# vtk DataFile Version 2.0
Comment goes here
ASCII

DATASET STRUCTURED_POINTS
FIELD FieldData 1
TIME 1 1 double
0.07100000
DIMENSIONS    64   64   1

ORIGIN    0.000   0.000   0.000
SPACING   0.03125 0.03125   1.000

POINT_DATA   4096
SCALARS Omega double
LOOKUP_TABLE default

-8.060576e-02 -1.882682e-01 -5.377308e-01 -8.562215e-01 -5.708846e-01 9.090658e-02 -3.915528e-01 -5.514496e-01 -4.273124e-01 -6.446103e-01 -3.018220e-01 -6.565478e-01 -1.132355e-01 -4.912582e-01 1.348589e-01 -1.542220e-01 4.379303e-01 2.467800e-01 9.918939e-01 4.730033e-01 1.186556e+00 4.064555e-01 1.151821e+00 4.355062e-01 1.061093e+00 6.958762e-01 1.115937e+00 6.259400e-01 1.026711e+00 6.190548e-01 9.203171e-01 8.692177e-01 8.708037e-01 8.968486e-01 8.005382e-01 8.556522e-01 7.386214e-01 1.000844e+00 7.232068e-01 1.049045e+00 7.123952e-01 9.824995e-01 5.993890e-01 1.052882e+00 5.100439e-01 1.060006e+00 4.870557e-01 7.914170e-01 2.910230e-01 4.450209e-01 8.504999e-02 1.081172e-01 -1.854975e-01 -4.853181e-02 -4.028139e-01 -1.489321e-01 -4.949716e-01 -2.545544e-01 -4.821511e-01 -3.377788e-01 -4.374301e-01 -3.851583e-01 -3.595097e-01 -4.923925e-01 
-2.145416e+01 -3.437191e+01 -1.815285e+01 -3.280558e+01 -2.102849e+01 -3.183635e+01 -2.373163e+01 -3.077035e+01 -2.827559e+01 -3.029424e+01 -3.221429e+01 -2.834166e+01 -3.664292e+01 -2.558366e+01 -4.145199e+01 -2.246006e+01 -4.663714e+01 -1.886341e+01 -5.231617e+01 -1.455392e+01 -5.817075e+01 -8.870205e+00 -6.494734e+01 -2.166999e+00 -7.216416e+01 4.443698e+00 -7.898100e+01 1.019058e+01 -8.416227e+01 1.425911e+01 -8.746486e+01 1.649380e+01 -8.983781e+01 1.817964e+01 -9.170705e+01 1.973821e+01 -9.324758e+01 2.080265e+01 -9.459435e+01 2.147315e+01 -9.515343e+01 2.162791e+01 -9.460664e+01 2.022373e+01 -9.240301e+01 1.702695e+01 -8.780867e+01 1.208705e+01 -8.127143e+01 6.337239e+00 -7.396748e+01 7.192534e-02 -6.588226e+01 -6.929961e+00 -5.694963e+01 -1.487110e+01 -4.711692e+01 -2.348009e+01 -3.675658e+01 -3.218387e+01 -2.657312e+01 -3.987295e+01 -1.562986e+01 -4.731752e+01 
-6.258139e+01 -7.582319e-01 -4.997316e+01 6.981154e+00 -7.417856e+00 7.198725e+00 -5.911179e+01 1.659973e+00 -7.669146e+01 1.692257e+00 -8.820930e+01 1.139230e+00 -9.633287e+01 -4.208344e-01 -1.025749e+02 -2.956322e+00 -1.074641e+02 -6.356659e+00 -1.121882e+02 -9.538077e+00 -1.148039e+02 -1.262457e+01 -1.146974e+02 -1.606961e+01 -1.135298e+02 -1.932343e+01 -1.131182e+02 -2.187128e+01 -1.124575e+02 -2.345162e+01 -1.124716e+02 -2.438310e+01 -1.131939e+02 -2.504328e+01 -1.134842e+02 -2.588531e+01 -1.132627e+02 -2.666826e+01 -1.130199e+02 -2.730271e+01 -1.128683e+02 -2.799258e+01 -1.120974e+02 -2.802583e+01 -1.116867e+02 -2.684937e+01 -1.124200e+02 -2.424386e+01 -1.126239e+02 -2.096129e+01 -1.114361e+02 -1.727477e+01 -1.095080e+02 -1.332714e+01 -1.073433e+02 -8.861818e+00 -1.051735e+02 -4.085251e+00 -1.025522e+02 9.950311e-01 -9.850789e+01 5.837703e+00 -9.671074e+01 1.386863e+01 
-3.013085e+01 1.332765e+00 -2.737417e+01 9.674204e+00 -3.943917e+01 6.042552e+00 -2.149665e+01 1.293553e+01 -3.363221e+01 1.156006e+01 -4.065547e+01 9.645723e+00 -4.513900e+01 7.426853e+00 -4.819425e+01 4.527610e+00 -4.996697e+01 7.965239e-01 -5.153633e+01 -2.394747e+00 -5.178055e+01 -6.151186e+00 -5.050435e+01 -9.688420e+00 -4.904601e+01 -1.253449e+01 -4.728199e+01 -1.526332e+01 -4.569809e+01 -1.710923e+01 -4.508028e+01 -1.768269e+01 -4.469876e+01 -1.800563e+01 -4.383748e+01 -1.873515e+01 -4.339089e+01 -1.892219e+01 -4.280972e+01 -1.878733e+01 -4.200629e+01 -1.916045e+01 -4.178612e+01 -1.859397e+01 -4.190130e+01 -1.695263e+01 -4.265833e+01 -1.508187e+01 -4.389022e+01 -1.282752e+01 -4.484032e+01 -9.868386e+00 -4.539307e+01 -6.389838e+00 -4.606395e+01 -2.716828e+00 -4.700658e+01 9.955148e-01 -4.770942e+01 4.485398e+00 -4.759796e+01 8.683607e+00 -5.005868e+01 1.265103e+01 
-3.785069e+00 2.439735e+00 -3.747513e+00 -8.588038e+00 -6.129852e+01 -2.471630e+00 9.238121e+00 8.790442e-01 1.953241e+00 4.734634e-01 -3.050809e-01 4.047200e-01 -1.204514e+00 8.570787e-01 -1.937175e+00 8.388031e-01 -2.597246e+00 -4.002621e-01 -2.100931e+00 -5.768182e-01 -1.957678e+00 -5.436280e-01 -2.070697e+00 -3.222398e-01 -2.350379e+00 9.111594e-03 -2.210593e+00 -3.263951e-01 -2.063510e+00 -4.238312e-01 -2.110132e+00 -2.933939e-01 -1.895991e+00 -4.479235e-01 -1.573957e+00 -6.634792e-01 -1.477708e+00 -5.604871e-01 -1.388040e+00 -5.453463e-01 -1.122614e+00 -9.825443e-01 -1.052915e+00 -9.201475e-01 -1.136655e+00 -7.742280e-01 -8.068416e-01 -1.359588e+00 -5.234223e-01 -1.451416e+00 -3.987108e-01 -1.290613e+00 -2.631912e-01 -5.454625e-01 -3.083344e-01 1.011395e-02 -5.199321e-01 3.843582e-01 -7.944813e-01 7.707682e-01 -1.136948e+00 1.368037e+00 -1.939766e+00 3.092963e+00 
-3.025376e+00 2.477535e+00 -3.409132e+00 -8.259298e+00 -8.124091e+01 -4.209758e+00 7.526486e+00 -1.695960e+00 4.282525e+00 -5.714194e-01 2.298674e+00 -7.962938e-02 1.172695e+00 1.200483e+00 2.461292e-01 2.498117e+00 -1.189869e+00 -1.922598e+00 1.626199e-01 -1.200235e+00 7.726711e-01 1.390672e-01 3.871635e-01 -1.501038e-01 -3.698428e-01 -2.336672e-01 2.178621e-01 3.538666e-01 2.502383e-01 -9.662507e-02 -3.155629e-01 -3.109915e-01 -6.078753e-02 4.131480e-01 2.391040e-01 -2.168715e-02 -1.672654e-01 -2.471705e-01 -2.606052e-01 5.108102e-01 1.348503e-01 2.313372e-01 -2.176128e-01 1.438450e-01 -6.917348e-01 5.715242e-01 -4.785379e-02 -2.479541e-01 1.335350e-01 -1.122239e+00 2.599426e-01 -2.362455e-01 1.750702e-01 5.196923e-01 -5.001756e-02 7.794651e-01 -4.335052e-01 8.368953e-01 -7.808180e-01 1.078804e+00 -1.248572e+00 1.413968e+00 -1.882440e+00 2.097755e+00 
-2.973693e+00 1.546314e+00 -1.662530e+00 -9.660837e+00 -9.120608e+01 -2.416889e+00 5.711074e+00 -2.274440e+00 4.065751e+00 -1.453508e+00 2.544224e+00 -1.116808e+00 1.828427e+00 6.867119e-01 1.458143e+00 4.554006e+00 -3.747240e+00 -2.472268e+00 1.181952e+00 -5.704242e-01 1.367343e+00 1.003224e+00 4.921636e-01 -5.263752e-01 -1.067706e-01 1.238963e-01 4.802103e-01 1.291014e+00 8.798122e-02 -7.443732e-01 -1.086514e-01 -6.010882e-01 3.882078e-01 1.756276e+00 -2.065993e-01 -6.693261e-01 8.928229e-02 -8.502654e-01 2.143525e-01 1.955980e+00 -4.616904e-01 -2.358393e-01 3.567711e-02 -4.355112e-01 -4.218765e-01 2.214754e+00 -9.228146e-01 2.413495e-01 -4.983804e-03 -1.709665e+00 4.072539e-01 -3.073953e-01 8.158971e-01 1.214007e+00 -8.819106e-02 1.174646e+00 -7.591985e-01 9.990330e-01 -1.129697e+00 1.122821e+00 -1.536915e+00 1.445246e+00 -2.162468e+00 1.820040e+00 
-2.761550e+00 1.169582e+00 -1.171997e+00 -8.468875e+00 -1.029569e+02 -2.027701e+00 3.107101e+00 -3.264245e+00 3.147061e+00 -2.561865e+00 2.483077e+00 -2.599266e+00 1.634170e+00 -3.074780e+00 3.899806e+00 -6.508435e+00 -8.156083e-01 1.165099e+01 7.134107e+00 8.248055e+00 5.451549e+00 5.601973e+00 2.107043e+00 3.850047e+00 -1.177737e+00 3.661429e+00 2.675933e+00 2.384104e+00 2.376694e+00 1.569233e+00 -6.233795e-01 1.602270e+00 8.586940e-01 1.717874e+00 2.912886e+00 3.861448e-01 2.927978e-01 4.320710e-03 -1.916792e-01 1.651480e+00 3.267151e+00 -5.474816e-01 9.600054e-01 -5.487655e-01 -1.390765e+00 3.039185e+00 2.098064e+00 -2.387729e+00 1.816257e+00 -7.845367e+00 -9.768123e-01 -4.640165e+00 3.965606e-01 1.890214e+00 -2.006224e-01 1.580749e+00 -9.929069e-01 1.093576e+00 -1.210367e+00 1.251190e+00 -1.497965e+00 1.614827e+00 -2.023117e+00 2.032037e+00 
-2.189314e+00 5.997191e-01 4.186692e-01 -8.674174e+00 -1.078329e+02 -8.855108e-01 2.006953e+00 -2.811563e+00 1.957769e+00 -2.729127e+00 1.477939e+00 -4.557859e+00 1.616118e+00 -1.471939e+01 1.409366e+01 -3.802467e+01 1.227993e+01 5.277814e+01 4.599547e+01 3.105551e+01 4.059501e+01 3.484094e+01 2.117472e+01 3.802823e+01 1.620524e+01 2.197338e+01 4.389065e+01 2.938946e+01 2.146344e+01 3.297835e+01 1.504882e+01 2.792352e+01 3.904065e+01 1.679373e+01 2.280052e+01 3.205496e+01 1.754733e+01 2.929122e+01 3.095364e+01 7.672464e+00 2.619666e+01 3.105436e+01 1.925360e+01 2.734131e+01 2.311940e+01 5.625866e+00 2.717808e+01 2.495535e+01 1.843873e+01 1.739598e+01 1.683726e+01 1.697861e+01 4.163826e+00 5.628837e+00 -1.557991e+00 1.249489e+00 -1.753754e+00 8.976937e-01 -1.452125e+00 1.210019e+00 -1.536424e+00 1.585842e+00 -1.898232e+00 1.861406e+00 
-1.700534e+00 2.542276e-01 1.137895e+00 -7.584467e+00 -1.146910e+02 -5.991839e-01 8.180192e-01 -2.781709e+00 1.032620e+00 -2.788694e+00 1.690168e+00 -5.454517e+00 4.616798e+00 -1.681280e+01 1.824734e+01 -4.198159e+01 3.373296e+01 5.535948e+01 5.234419e+01 3.421941e+01 6.100858e+01 2.626206e+01 4.731315e+01 5.340874e+01 3.292843e+01 5.127186e+01 7.434494e+01 3.278044e+01 5.219984e+01 5.535459e+01 3.342776e+01 7.164220e+01 6.796752e+01 2.206864e+01 5.740294e+01 5.924887e+01 3.799244e+01 7.955219e+01 5.393274e+01 1.513903e+01 6.443796e+01 6.163156e+01 4.141310e+01 7.860090e+01 4.326747e+01 1.764200e+01 7.234166e+01 5.645346e+01 4.356190e+01 1.207342e+02 3.299198e+01 4.359145e+01 -5.452213e+00 1.688724e+00 -5.417838e+00 -1.369130e+00 -2.357504e+00 2.079407e-01 -1.315708e+00 1.139409e+00 -1.290300e+00 1.620088e+00 -1.594233e+00 1.817442e+00 
-1.006286e+00 -2.345544e-01 2.371496e+00 -7.138224e+00 -1.164205e+02 -3.431124e-02 6.283863e-01 -2.282262e+00 8.410973e-01 -1.525119e+00 2.046414e+00 -2.077609e-01 3.347628e+00 2.839344e+00 1.422585e+00 9.987208e+00 -9.054202e+00 -3.620952e+01 -1.058434e+01 -2.167446e+01 -8.995387e+00 -2.097319e+01 2.887024e-01 -1.581715e+01 3.077388e+00 -8.314571e+00 -2.629722e+00 -8.239003e+00 4.356244e+00 -3.220543e+00 4.047834e+00 1.408403e+00 3.096458e+00 1.301508e-01 6.863965e+00 4.460350e+00 4.538168e+00 1.052141e+01 3.734734e+00 4.171253e+00 9.737181e+00 1.112814e+01 5.914417e+00 1.943216e+01 2.771334e+00 8.420228e+00 1.538700e+01 1.884106e+01 1.638355e+01 5.191013e+01 2.787267e+00 1.956594e+01 -5.146588e+00 1.780577e+00 -2.963326e+00 1.735601e-02 -1.331667e+00 6.738714e-01 -9.466658e-01 1.225221e+00 -1.059422e+00 1.579148e+00 -1.272262e+00 1.643244e+00 
-4.573818e-01 -4.999843e-01 3.000708e+00 -6.121224e+00 -1.197826e+02 2.115109e-01 2.273841e-01 -2.272717e+00 2.742923e-01 -1.127223e+00 9.805327e-01 3.435692e+00 -1.351356e+00 1.873703e+01 -1.960901e+01 4.714415e+01 -2.602931e+01 -6.763269e+01 -6.073718e+01 -4.419987e+01 -6.531394e+01 -3.821143e+01 -4.569867e+01 -6.085640e+01 -3.249938e+01 -5.611157e+01 -7.618730e+01 -3.695258e+01 -5.165244e+01 -5.787001e+01 -3.385230e+01 -7.529087e+01 -6.725171e+01 -2.252762e+01 -5.842540e+01 -5.807840e+01 -3.932203e+01 -8.032640e+01 -5.198728e+01 -1.453766e+01 -6.623732e+01 -5.633490e+01 -4.352653e+01 -7.499203e+01 -4.126451e+01 -1.810028e+01 -7.106856e+01 -4.635362e+01 -5.038761e+01 -1.220170e+02 -2.478355e+01 -3.107698e+01 4.493297e+00 2.875045e+00 3.463058e+00 3.855340e+00 7.695009e-01 2.207840e+00 -3.358463e-01 1.675708e+00 -7.440906e-01 1.665718e+00 -9.317428e-01 1.543765e+00 
1.973920e-01 -8.587349e-01 3.881047e+00 -5.525685e+00 -1.191024e+02 7.529032e-01 4.952760e-02 -2.030811e+00 -5.632326e-01 -1.653147e+00 -2.865957e-01 5.976995e-01 -2.193750e+00 8.912900e+00 -1.358347e+01 2.353148e+01 -6.857140e+00 -1.639152e+01 -3.142588e+01 -9.601559e+00 -3.288060e+01 -1.538378e+01 -2.049095e+01 -2.380179e+01 -1.865447e+01 -1.463812e+01 -4.287453e+01 -2.137336e+01 -2.389559e+01 -3.108159e+01 -1.883020e+01 -2.889536e+01 -4.452497e+01 -1.648674e+01 -2.717594e+01 -3.797367e+01 -2.138855e+01 -3.884960e+01 -3.846199e+01 -1.005583e+01 -3.310782e+01 -4.400818e+01 -2.370857e+01 -4.557259e+01 -3.164637e+01 -9.641908e+00 -4.054012e+01 -4.802827e+01 -2.407266e+01 -6.383438e+01 -2.807090e+01 -4.035295e+01 -1.530035e+00 -4.671645e+00 2.803295e+00 2.223938e+00 1.005276e+00 2.023110e+00 -9.590627e-02 1.669270e+00 -5.071396e-01 1.615110e+00 -5.894039e-01 1.379443e+00 
7.196439e-01 -1.064153e+00 4.357254e+00 -4.608874e+00 -1.197986e+02 1.161021e+00 -2.765126e-01 -1.617210e+00 -1.367599e+00 -1.424271e+00 -1.458293e+00 -7.863052e-01 -2.031386e+00 -2.539578e+00 -2.406969e+00 -3.589545e+00 3.120889e-02 1.513322e+00 -1.768467e+00 9.794610e-01 -2.397250e+00 2.797310e+00 -2.430113e+00 2.055258e+00 9.852825e-01 -5.109849e-01 -1.307669e+00 1.812556e+00 -2.925503e+00 9.713938e-01 7.338712e-01 -6.968589e-01 9.845722e-02 3.641128e-02 -3.598522e+00 -3.409154e-01 2.513473e-01 -1.255415e+00 1.358519e+00 -1.754740e+00 -4.176231e+00 -1.852892e+00 5.629069e-02 -3.573897e+00 2.897228e+00 -4.553836e+00 -4.472743e+00 -1.993894e+00 -2.783111e+00 2.509463e+00 -4.175532e-01 -1.242411e+00 -7.946121e-02 -3.141971e+00 4.179187e-01 7.111913e-03 4.534310e-01 1.264031e+00 2.614814e-02 1.500714e+00 -2.579226e-01 1.538796e+00 -2.621502e-01 1.227511e+00 
1.268880e+00 -1.314273e+00 4.927691e+00 -4.077919e+00 -1.173472e+02 1.529609e+00 -2.479107e-01 -1.621045e+00 -1.658791e+00 -1.780839e+00 -1.598595e+00 -9.790084e-01 -1.646633e+00 -1.798132e+00 -5.401798e-01 -5.330140e+00 3.039959e+00 1.735748e+00 5.047205e-02 -1.909480e-01 -5.846905e-01 -1.912951e+00 7.815199e-02 4.154422e-01 5.305946e-02 -2.528584e-02 -5.016069e-01 -1.798957e+00 3.369197e-01 7.469705e-01 2.026085e-01 9.220654e-01 -6.289136e-01 -2.128883e+00 5.000860e-01 7.460407e-01 1.051159e-01 1.321818e+00 -4.556539e-01 -2.145251e+00 4.718239e-01 4.190582e-01 2.732703e-02 9.696608e-01 5.905730e-02 -2.065275e+00 1.810424e-01 4.348998e-01 -6.334608e-01 3.424400e+00 -1.352544e-01 9.651100e-01 -6.362066e-01 -1.532612e+00 9.691951e-02 -1.586838e-01 2.870731e-01 9.040140e-01 4.674406e-02 1.272992e+00 -1.093025e-01 1.381274e+00 2.584806e-02 1.029702e+00 
1.697613e+00 -1.511795e+00 5.251224e+00 -3.455809e+00 -1.160700e+02 1.892335e+00 -2.845133e-01 -1.516818e+00 -1.813023e+00 -2.322137e+00 -1.509217e+00 -2.150584e+00 -7.685083e-01 -1.476322e+00 8.177181e-02 -2.315569e-01 3.378713e-01 -1.333074e+00 2.216911e-01 -3.023923e-01 -2.728384e-01 -4.733049e-01 2.347091e-01 -4.902161e-01 5.478667e-01 4.284653e-01 -6.007302e-01 -3.043576e-01 -1.065491e-01 -6.361526e-01 5.153297e-01 4.365284e-01 -2.396341e-01 -6.635328e-02 -3.791996e-01 -6.068501e-01 4.411125e-01 3.481121e-01 2.169473e-01 1.729064e-01 -5.940594e-01 -5.787194e-01 4.834155e-01 1.968626e-01 6.763617e-01 8.898118e-01 -1.216648e+00 4.620203e-01 -6.373668e-01 1.361835e+00 -3.210728e-01 2.074769e-01 4.734082e-01 -1.200819e-01 2.554418e-01 2.268126e-01 8.305769e-02 7.373464e-01 -3.185541e-03 1.071046e+00 5.656326e-03 1.213848e+00 2.714190e-01 8.213708e-01 
2.119389e+00 -1.695226e+00 5.531315e+00 -2.921221e+00 -1.121183e+02 2.058514e+00 -1.868989e-01 -1.447273e+00 -1.787257e+00 -2.584226e+00 -1.346201e+00 -2.817665e+00 -3.539036e-01 -2.296704e+00 3.218162e-01 7.892648e-01 -1.768369e+00 -1.542445e+00 1.008712e+00 1.570101e+00 5.667240e-01 2.048914e+00 6.853509e-01 3.793360e-01 8.058091e-01 1.239064e+00 -3.578805e-01 1.497657e+00 2.781433e-01 -5.450733e-01 8.062563e-01 4.169906e-01 6.037572e-02 1.487488e+00 -6.118427e-02 -7.643092e-01 8.798209e-01 -2.170292e-01 5.487308e-01 1.436683e+00 -3.049977e-01 -7.043041e-01 1.070287e+00 -5.427360e-01 8.775113e-01 2.290730e+00 -1.052455e+00 2.963923e-01 3.352049e-01 -1.577591e+00 -6.093261e-02 -7.190092e-01 1.095494e+00 1.218667e+00 1.969981e-01 8.324660e-01 -2.204378e-01 6.674596e-01 -1.314054e-01 8.610780e-01 6.589833e-02 1.022721e+00 4.891145e-01 6.001705e-01 
2.438890e+00 -1.852179e+00 5.659364e+00 -2.403856e+00 -1.091737e+02 2.252115e+00 -1.089379e-01 -1.203399e+00 -1.758294e+00 -2.621956e+00 -1.466588e+00 -3.927939e+00 -2.453966e-02 -7.404043e+00 2.935086e+00 -5.017945e+00 -3.034201e+00 -2.035020e+00 1.221369e+01 1.392286e+01 1.091563e+01 1.555016e+01 7.704019e+00 1.175016e+01 6.957239e+00 4.394260e+00 7.385770e+00 1.223934e+01 8.646591e+00 1.048960e+01 6.248902e+00 4.001460e+00 8.163488e+00 9.137811e+00 7.382788e+00 8.920404e+00 6.640133e+00 4.604547e+00 8.546102e+00 5.664631e+00 6.316708e+00 7.944084e+00 7.528998e+00 4.880457e+00 8.527222e+00 3.490037e+00 5.893491e+00 7.903690e+00 6.600049e+00 4.469597e+00 5.541877e+00 6.624882e+00 3.415750e+00 3.147866e+00 -8.343328e-02 1.055775e+00 -5.046070e-01 6.275392e-01 -1.869172e-01 7.450172e-01 1.493871e-01 8.689794e-01 6.789528e-01 3.826224e-01 
2.732926e+00 -1.905052e+00 5.652373e+00 -1.769846e+00 -1.038470e+02 2.263360e+00 -1.343135e-01 -9.061121e-01 -1.842061e+00 -2.373717e+00 -1.489570e+00 -4.897293e+00 1.391761e+00 -1.312598e+01 7.894818e+00 -1.352221e+01 8.013705e-01 -2.843851e+00 2.938768e+01 2.172252e+01 2.991510e+01 3.004341e+01 2.263308e+01 2.966324e+01 2.020162e+01 7.413442e+00 2.585692e+01 3.032342e+01 2.892660e+01 3.487500e+01 1.865840e+01 1.168431e+01 2.750626e+01 2.514861e+01 2.748744e+01 3.495482e+01 1.988407e+01 1.852659e+01 2.764641e+01 1.663092e+01 2.441973e+01 3.459798e+01 2.244762e+01 2.385033e+01 2.699156e+01 8.996692e+00 2.466958e+01 3.637941e+01 2.094364e+01 3.742949e+01 2.137169e+01 4.049528e+01 6.752271e+00 6.604351e+00 -2.615951e+00 -2.646828e-01 -1.328264e+00 -1.630602e-02 -2.583632e-01 5.191043e-01 2.567580e-01 7.314238e-01 8.714116e-01 2.030349e-01 
2.927014e+00 -1.932168e+00 5.574697e+00 -1.353923e+00 -9.945460e+01 2.238971e+00 4.335898e-02 -7.222947e-01 -1.422723e+00 -1.732741e+00 -8.622661e-01 -2.119878e+00 9.164987e-01 -3.593317e+00 3.365437e+00 -5.740225e+00 3.802030e+00 -3.595693e+00 8.076709e+00 -4.010485e+00 1.081156e+01 1.668158e+00 1.013293e+01 6.625641e+00 9.737682e+00 3.723838e-01 1.312650e+01 8.887038e+00 1.471371e+01 1.503495e+01 9.241976e+00 5.639399e+00 1.409608e+01 1.042582e+01 1.601121e+01 1.924390e+01 9.633658e+00 1.173576e+01 1.374137e+01 8.766550e+00 1.529579e+01 2.202162e+01 1.085076e+01 1.768932e+01 1.249973e+01 7.014429e+00 1.600751e+01 2.534697e+01 1.118827e+01 3.261417e+01 1.296076e+01 3.151188e+01 2.104232e+00 5.263381e+00 -2.481527e+00 -5.828578e-02 -9.641588e-01 3.817531e-02 -4.399246e-02 4.651787e-01 4.063936e-01 6.198193e-01 1.033041e+00 3.319929e-02 
3.063157e+00 -1.832843e+00 5.343994e+00 -8.308079e-01 -9.300577e+01 2.047400e+00 1.446178e-01 -6.386765e-01 -1.136453e+00 -9.844705e-01 -9.942450e-01 1.799288e+00 -2.572333e+00 1.045273e+01 -7.877409e+00 9.480090e+00 1.682819e+00 -6.640844e-01 -2.825795e+01 -2.612804e+01 -2.863246e+01 -3.295031e+01 -2.133925e+01 -3.245282e+01 -1.734273e+01 -9.961802e+00 -2.473024e+01 -2.987642e+01 -2.760359e+01 -3.441063e+01 -1.549053e+01 -1.261853e+01 -2.538147e+01 -2.245205e+01 -2.686801e+01 -3.257668e+01 -1.689319e+01 -1.771698e+01 -2.449188e+01 -1.295874e+01 -2.480692e+01 -3.045142e+01 -1.965725e+01 -2.092783e+01 -2.321720e+01 -5.152518e+00 -2.551470e+01 -2.879120e+01 -1.891767e+01 -3.396529e+01 -1.964412e+01 -3.082567e+01 -4.766321e+00 -2.101347e+00 1.684920e+00 1.763342e+00 9.517721e-01 1.178854e+00 5.113060e-01 8.033842e-01 5.880568e-01 6.419166e-01 1.173082e+00 -6.446839e-02 
3.104622e+00 -1.725956e+00 5.098947e+00 -5.226657e-01 -8.729517e+01 2.046750e+00 1.637133e-01 -4.764296e-01 -1.206850e+00 -1.039365e+00 -1.494557e+00 7.758510e-01 -3.233814e+00 6.551391e+00 -7.010564e+00 5.540082e+00 -1.019223e+00 5.388156e+00 -2.143128e+01 -1.231707e+01 -2.184723e+01 -2.030420e+01 -1.781190e+01 -1.909958e+01 -1.786242e+01 -5.173011e+00 -2.040836e+01 -2.350449e+01 -2.235802e+01 -2.562615e+01 -1.649591e+01 -9.000678e+00 -2.286356e+01 -2.138722e+01 -2.155187e+01 -2.793714e+01 -1.708822e+01 -1.522636e+01 -2.339296e+01 -1.527621e+01 -1.931499e+01 -2.964084e+01 -1.889140e+01 -2.077366e+01 -2.286699e+01 -9.040280e+00 -1.995703e+01 -3.340371e+01 -1.814024e+01 -3.320306e+01 -1.865980e+01 -3.824362e+01 -6.580479e+00 -6.090138e+00 2.333837e+00 1.340733e+00 1.396665e+00 1.265901e+00 6.972273e-01 8.370079e-01 6.865255e-01 5.902019e-01 1.261898e+00 -1.543961e-01 
3.092319e+00 -1.562211e+00 4.739023e+00 -1.008096e-01 -7.991980e+01 1.964646e+00 3.205220e-02 -2.193195e-01 -1.398355e+00 -9.115790e-01 -1.778615e+00 -9.858171e-01 -1.913701e+00 -1.779827e+00 -1.671329e+00 -2.076143e+00 -8.862195e-01 6.811822e-01 -2.452760e+00 7.948734e-01 -2.907359e+00 2.715431e-01 -2.624720e+00 3.542964e-01 -2.310133e+00 -6.044840e-01 -2.349644e+00 -1.737367e+00 -2.617956e+00 -9.649116e-01 -2.126825e+00 -1.205028e+00 -2.596422e+00 -2.799558e+00 -2.394428e+00 -2.279670e+00 -2.174496e+00 -2.000583e+00 -2.671331e+00 -3.193219e+00 -1.915476e+00 -3.683653e+00 -2.296729e+00 -3.160934e+00 -2.397542e+00 -3.790413e+00 -1.638170e+00 -5.086563e+00 -2.446229e+00 -2.544048e+00 -2.669128e+00 -4.861919e+00 -1.982980e+00 -2.784036e+00 3.016568e-01 -2.583526e-01 6.976929e-01 5.430184e-01 6.414222e-01 6.345491e-01 7.399053e-01 5.046932e-01 1.321843e+00 -2.196542e-01 
2.994437e+00 -1.405490e+00 4.383150e+00 6.663121e-02 -7.319503e+01 1.894695e+00 4.382146e-02 -1.056772e-01 -1.322113e+00 -7.912721e-01 -1.669196e+00 -9.137279e-01 -1.473893e+00 -1.976399e+00 -4.472258e-01 -2.695959e+00 3.786333e-02 -3.602932e-01 4.215299e-01 -2.725550e-01 8.601751e-02 -1.681442e-01 -8.656637e-01 5.421911e-01 -7.824105e-01 -1.034057e+00 5.467585e-01 -7.185966e-01 -2.957882e-01 9.976891e-01 -6.206792e-01 -3.586908e-01 3.153252e-01 -1.218608e+00 1.913949e-01 1.068824e+00 -5.630863e-01 1.531076e-01 -3.714334e-03 -1.640751e+00 6.602602e-01 8.609604e-01 -5.477523e-01 3.152375e-01 -1.101312e-01 -2.344765e+00 1.175335e+00 8.014297e-01 -5.858417e-01 2.299987e+00 -4.426505e-02 1.261167e+00 -1.007267e+00 -1.102308e+00 -3.287400e-03 -4.823620e-01 5.455080e-01 2.380430e-01 6.360440e-01 4.680689e-01 7.652078e-01 3.976982e-01 1.334148e+00 -2.763707e-01 
2.832460e+00 -1.264838e+00 3.969096e+00 2.108694e-01 -6.522555e+01 1.744992e+00 3.715421e-02 -1.332673e-01 -1.169575e+00 -9.748651e-01 -1.347997e+00 -1.207338e+00 -9.860932e-01 -1.401836e+00 -4.287273e-01 -1.217515e+00 3.353935e-03 -9.641372e-01 1.906198e-01 -4.141930e-01 2.249133e-02 -1.442009e-01 -3.387832e-01 -4.456673e-02 -2.072944e-01 -4.750084e-01 1.055816e-01 -3.007175e-01 -1.710281e-01 1.687225e-01 -1.325616e-01 -2.244379e-01 1.316901e-01 -3.312298e-01 -1.482659e-02 2.980516e-01 -1.311554e-01 -2.700452e-02 1.020088e-01 -4.148563e-01 1.450617e-01 2.939852e-01 -1.053688e-01 4.666925e-02 1.800069e-01 -4.724247e-01 2.390730e-01 7.920888e-01 -3.938099e-01 1.189876e+00 -2.238108e-01 8.766285e-01 -3.075578e-01 -7.743385e-02 -8.503155e-03 -1.765982e-01 2.935419e-01 1.106010e-01 4.810307e-01 3.080926e-01 6.938819e-01 2.823834e-01 1.279401e+00 -3.283148e-01 
2.610644e+00 -1.121222e+00 3.536802e+00 2.647143e-01 -5.771011e+01 1.588611e+00 6.431013e-02 -5.335214e-02 -9.881364e-01 -8.391762e-01 -1.133031e+00 -1.091498e+00 -7.983570e-01 -1.202942e+00 -4.075691e-01 -9.452453e-01 -7.769891e-02 -1.014774e+00 6.863259e-02 -4.158027e-01 -4.823814e-03 -6.517736e-02 -2.593364e-01 -1.885422e-01 -1.595330e-01 -3.664973e-01 4.736235e-02 -9.901295e-02 -1.459853e-01 -4.288616e-02 -1.008663e-01 -2.364182e-01 9.520897e-02 -3.607609e-02 -3.298512e-02 6.887656e-02 -8.949866e-02 -1.242217e-01 9.490132e-02 -5.203034e-02 7.592458e-02 1.062538e-01 -5.965757e-02 -6.007650e-02 1.469431e-01 -1.748817e-03 1.193641e-01 6.024911e-01 -2.433127e-01 7.250303e-01 -1.984655e-01 7.332697e-01 -2.190245e-01 2.089029e-01 -2.533214e-02 -3.220396e-02 2.265906e-01 7.696963e-02 4.275384e-01 2.175413e-01 6.503091e-01 1.933506e-01 1.206372e+00 -3.568119e-01 
2.330129e+00 -9.890224e-01 3.069894e+00 2.785265e-01 -4.928763e+01 1.368927e+00 1.001964e-01 -7.136457e-02 -7.881378e-01 -7.827628e-01 -9.045613e-01 -9.324296e-01 -6.506249e-01 -9.030447e-01 -3.773582e-01 -7.775035e-01 -1.297906e-01 -7.566456e-01 -5.740227e-02 -4.468155e-01 -7.167702e-02 -2.108145e-01 -1.274248e-01 -1.961088e-01 -5.679971e-02 -2.189067e-01 -3.272502e-02 -1.103991e-01 -9.206661e-02 -8.741502e-02 -2.090865e-02 -1.311572e-01 2.507397e-02 -3.234888e-02 -4.089610e-02 -4.122438e-03 -4.637984e-03 -6.483263e-02 6.324283e-02 -5.044594e-03 1.383972e-02 4.925780e-02 2.096681e-02 2.235208e-02 9.252380e-02 1.418840e-01 -4.297701e-02 4.083575e-01 -1.922842e-01 4.659032e-01 -1.699947e-01 4.878441e-01 -8.619162e-02 2.831916e-01 2.087373e-02 1.143056e-01 1.661871e-01 1.127534e-01 3.301925e-01 1.729068e-01 5.489854e-01 1.292898e-01 1.074273e+00 -3.683337e-01 
2.009745e+00 -8.458569e-01 2.579919e+00 2.651719e-01 -4.114621e+01 1.162762e+00 1.107411e-01 -2.476995e-02 -6.121036e-01 -6.409135e-01 -7.243798e-01 -7.845885e-01 -5.336212e-01 -7.483854e-01 -3.230206e-01 -6.572247e-01 -1.087216e-01 -6.368796e-01 -8.027098e-02 -3.959483e-01 -7.597496e-02 -2.078857e-01 -8.993475e-02 -1.867896e-01 -5.532380e-02 -1.615258e-01 -4.178665e-02 -9.027446e-02 -6.082554e-02 -1.009018e-01 -2.376369e-02 -9.651162e-02 1.732649e-03 -1.211275e-02 -1.944035e-02 -3.497923e-02 -2.871282e-03 -4.666824e-02 3.378917e-02 2.881032e-02 1.837185e-02 1.847091e-02 1.854630e-02 3.596219e-02 4.811335e-02 1.762720e-01 -3.520497e-02 3.026537e-01 -1.293326e-01 3.591381e-01 -1.454206e-01 3.832015e-01 -7.432241e-02 2.876774e-01 1.590348e-02 1.527466e-01 1.317709e-01 1.138780e-01 2.744359e-01 1.343955e-01 4.715997e-01 7.950060e-02 9.363592e-01 -3.562700e-01 
1.646178e+00 -7.003419e-01 2.065016e+00 2.318743e-01 -3.238184e+01 9.130962e-01 1.229891e-01 -1.762350e-02 -4.398486e-01 -5.108281e-01 -5.444171e-01 -6.157497e-01 -4.106275e-01 -5.824423e-01 -2.514163e-01 -5.209292e-01 -1.127320e-01 -4.694135e-01 -7.951255e-02 -3.364685e-01 -6.680229e-02 -2.133298e-01 -5.159568e-02 -1.586552e-01 -2.306334e-02 -1.235775e-01 -2.965069e-02 -8.349741e-02 -3.625356e-02 -7.358282e-02 -5.670365e-03 -6.199012e-02 -5.215666e-04 -2.464555e-02 -1.429915e-02 -2.315861e-02 1.046495e-02 -1.941646e-02 2.631704e-02 1.709264e-02 6.031301e-03 3.258884e-02 1.617641e-02 6.419887e-02 1.542484e-02 1.439943e-01 -6.484124e-02 2.211069e-01 -1.182458e-01 2.649344e-01 -1.129865e-01 2.814615e-01 -4.889804e-02 2.374661e-01 1.670796e-02 1.616434e-01 9.571951e-02 1.219222e-01 2.019814e-01 1.157257e-01 3.648412e-01 5.053157e-02 7.597471e-01 -3.242137e-01 
1.257909e+00 -5.484799e-01 1.536293e+00 1.800191e-01 -2.377914e+01 6.808155e-01 1.138675e-01 1.453144e-02 -2.808143e-01 -3.629976e-01 -3.751995e-01 -4.620636e-01 -2.885685e-01 -4.433910e-01 -1.709876e-01 -4.032563e-01 -6.633905e-02 -3.629505e-01 -5.424186e-02 -2.664568e-01 -4.578441e-02 -1.754487e-01 -2.990706e-02 -1.249147e-01 -1.729057e-02 -8.746857e-02 -2.258060e-02 -6.303165e-02 -2.094247e-02 -5.827016e-02 -7.117018e-03 -4.183212e-02 -5.560523e-03 -1.728712e-02 -5.307987e-03 -2.159153e-02 6.150533e-03 -9.963271e-03 1.265104e-02 1.946714e-02 7.008320e-03 2.559443e-02 7.587713e-03 6.040149e-02 -2.662751e-03 1.257968e-01 -5.222853e-02 1.705760e-01 -9.132027e-02 2.070256e-01 -9.949961e-02 2.204655e-01 -5.376275e-02 1.987593e-01 4.754270e-04 1.437748e-01 6.128980e-02 1.030554e-01 1.426117e-01 8.499679e-02 2.696533e-01 2.223485e-02 5.797401e-01 -2.779603e-01 
8.435477e-01 -3.897975e-01 9.896547e-01 1.250672e-01 -1.481291e+01 4.206600e-01 9.946381e-02 2.710201e-02 -1.277773e-01 -2.204276e-01 -2.048089e-01 -3.037192e-01 -1.601041e-01 -2.995254e-01 -8.698491e-02 -2.738032e-01 -2.933839e-02 -2.416698e-01 -1.870443e-02 -1.861074e-01 -1.538216e-02 -1.285794e-01 -5.653983e-03 -8.781729e-02 2.989234e-03 -6.010432e-02 -3.845887e-03 -4.207694e-02 -6.425063e-03 -3.348053e-02 2.353080e-03 -2.403039e-02 1.321620e-03 -1.233247e-02 -1.941276e-03 -8.821931e-03 7.525692e-03 -3.512323e-04 1.004886e-02 1.598501e-02 -8.003747e-05 2.975152e-02 -2.213804e-03 5.483692e-02 -1.643759e-02 9.109485e-02 -5.901805e-02 1.235377e-01 -8.663778e-02 1.497097e-01 -8.491982e-02 1.595665e-01 -5.255994e-02 1.453414e-01 -1.670115e-02 1.113601e-01 2.236022e-02 8.051540e-02 7.449251e-02 5.965990e-02 1.600924e-01 4.616353e-03 3.785592e-01 -2.175841e-01 
4.194148e-01 -2.317982e-01 4.414938e-01 5.477852e-02 -5.920821e+00 1.751919e-01 7.912105e-02 5.233963e-02 2.190697e-02 -7.175927e-02 -3.629213e-02 -1.497190e-01 -3.000489e-02 -1.637478e-01 5.611246e-03 -1.571832e-01 3.296934e-02 -1.428774e-01 2.475547e-02 -1.102596e-01 1.655576e-02 -7.371513e-02 1.687447e-02 -4.494337e-02 1.526595e-02 -2.502345e-02 6.625444e-03 -1.595518e-02 3.374245e-03 -1.306166e-02 4.536376e-03 -7.470874e-03 1.699455e-03 -2.366465e-03 1.106508e-03 -2.789914e-03 4.372063e-03 3.518823e-03 3.523895e-03 1.442475e-02 -2.265825e-03 2.283062e-02 -8.205858e-03 4.260894e-02 -2.336660e-02 6.900155e-02 -5.288118e-02 8.907522e-02 -7.585263e-02 1.068104e-01 -8.195866e-02 1.129966e-01 -6.313017e-02 1.025762e-01 -3.942867e-02 7.545305e-02 -1.662576e-02 4.693630e-02 1.089543e-02 2.489719e-02 5.583811e-02 -1.628958e-02 1.765557e-01 -1.522796e-01 
-1.458992e-02 -6.641115e-02 -1.179318e-01 -6.200610e-03 3.087439e+00 -8.596307e-02 4.966446e-02 6.794301e-02 1.668419e-01 7.490820e-02 1.320822e-01 6.025933e-03 1.011419e-01 -2.509518e-02 9.655838e-02 -3.530197e-02 9.043573e-02 -3.699997e-02 7.023639e-02 -2.802437e-02 5.144539e-02 -1.388319e-02 4.070587e-02 -1.460867e-03 3.271204e-02 6.167249e-03 2.137524e-02 8.685397e-03 1.365108e-02 8.109234e-03 1.125862e-02 7.424632e-03 6.879004e-03 6.922357e-03 3.090244e-03 5.802143e-03 3.847797e-03 7.468077e-03 1.292299e-03 1.205524e-02 -6.876241e-03 1.816757e-02 -1.452836e-02 2.864815e-02 -2.921454e-02 4.170253e-02 -5.459091e-02 5.410215e-02 -7.342603e-02 6.416915e-02 -7.789075e-02 6.575946e-02 -6.944666e-02 5.481033e-02 -6.092619e-02 3.323651e-02 -5.657556e-02 9.709665e-03 -5.502900e-02 -9.894553e-03 -5.241885e-02 -3.412766e-02 -3.210846e-02 -8.089334e-02 
-4.425906e-01 9.407287e-02 -6.670192e-01 -7.512954e-02 1.209514e+01 -3.336758e-01 2.681984e-02 9.147829e-02 3.119982e-01 2.213476e-01 2.989680e-01 1.576683e-01 2.334215e-01 1.077224e-01 1.935155e-01 7.817008e-02 1.594248e-01 5.805764e-02 1.198235e-01 4.879974e-02 8.714219e-02 4.637405e-02 6.526211e-02 4.572500e-02 4.839010e-02 4.335337e-02 3.279629e-02 3.751394e-02 2.207053e-02 3.017540e-02 1.528288e-02 2.386944e-02 8.902848e-03 1.792259e-02 4.584910e-03 1.207670e-02 2.231450e-03 9.363486e-03 -2.123134e-03 8.963980e-03 -9.377643e-03 9.698065e-03 -1.829900e-02 1.423226e-02 -3.262792e-02 2.025942e-02 -5.312227e-02 2.474717e-02 -7.103391e-02 2.762707e-02 -8.129528e-02 2.458447e-02 -8.286858e-02 1.236347e-02 -8.594749e-02 -8.367613e-03 -9.718808e-02 -3.123081e-02 -1.191803e-01 -4.945709e-02 -1.572290e-01 -5.528876e-02 -2.366728e-01 -1.153146e-02 