# vtk DataFile Version 2.0
Comment goes here
ASCII

DATASET STRUCTURED_POINTS
FIELD FieldData 1
TIME 1 1 double
0.00900000
DIMENSIONS    64   64   1

ORIGIN    0.000   0.000   0.000
SPACING   0.03125 0.03125   1.000

POINT_DATA   4096
SCALARS P double
LOOKUP_TABLE default

1.254307e+01 -3.124470e+01 3.751321e+01 -5.514884e+01 1.042539e+02 1.866003e+02 6.785322e+01 1.753239e+02 7.819414e+01 1.628997e+02 8.687324e+01 1.538470e+02 8.827929e+01 1.482809e+02 8.699434e+01 1.428773e+02 8.392960e+01 1.378730e+02 8.045704e+01 1.328457e+02 7.491829e+01 1.282650e+02 7.288497e+01 1.176124e+02 7.424585e+01 1.091769e+02 7.162430e+01 1.015443e+02 6.959479e+01 9.326190e+01 6.786071e+01 8.498264e+01 6.704279e+01 7.603297e+01 6.540284e+01 6.720887e+01 6.445470e+01 5.926885e+01 6.250251e+01 5.072011e+01 6.169641e+01 4.174596e+01 5.943366e+01 3.423661e+01 5.906586e+01 2.356413e+01 5.841856e+01 1.718403e+01 5.159041e+01 1.448649e+01 4.754812e+01 3.380516e+00 5.274065e+01 -1.302933e+01 5.650590e+01 -2.481636e+01 5.484003e+01 -3.114217e+01 4.870241e+01 -3.322560e+01 3.770636e+01 -2.873620e+01 2.624085e+01 -2.548428e+01 
-2.314846e+00 -5.728509e+01 1.103439e+01 -7.011911e+01 5.562581e+01 1.156922e+02 2.388611e+01 1.105598e+02 2.798973e+01 1.038600e+02 3.181696e+01 9.833305e+01 3.192071e+01 9.432757e+01 3.093550e+01 8.979384e+01 2.941524e+01 8.497431e+01 2.798879e+01 7.991343e+01 2.522901e+01 7.529077e+01 2.428575e+01 6.717228e+01 2.526363e+01 6.032386e+01 2.388860e+01 5.373819e+01 2.312363e+01 4.669914e+01 2.265444e+01 3.941201e+01 2.272309e+01 3.193116e+01 2.210372e+01 2.445109e+01 2.201553e+01 1.753471e+01 2.117715e+01 1.031588e+01 2.115708e+01 2.614070e+00 2.039248e+01 -4.057844e+00 2.072956e+01 -1.265974e+01 2.095337e+01 -1.862611e+01 1.747867e+01 -2.202879e+01 1.522896e+01 -2.972081e+01 1.811502e+01 -4.004362e+01 1.998966e+01 -4.769127e+01 1.938339e+01 -5.283807e+01 1.683390e+01 -5.594818e+01 1.177893e+01 -5.522474e+01 6.245360e+00 -5.443102e+01 
-5.082940e+00 -8.192202e+01 -2.545358e+00 -8.654830e+01 1.029621e+01 8.424636e+01 -1.699723e+00 8.128218e+01 -1.562266e+00 7.738030e+01 -1.202019e+00 7.317902e+01 -1.466611e+00 6.890795e+01 -1.802368e+00 6.404329e+01 -2.033075e+00 5.859294e+01 -2.035478e+00 5.283135e+01 -2.493628e+00 4.723047e+01 -2.767043e+00 4.084087e+01 -2.656707e+00 3.455638e+01 -2.976415e+00 2.813818e+01 -2.965736e+00 2.143552e+01 -2.698263e+00 1.447947e+01 -2.340652e+00 7.574097e+00 -2.217847e+00 5.952241e-01 -1.941014e+00 -6.204104e+00 -1.946758e+00 -1.302255e+01 -1.701982e+00 -2.006111e+01 -1.527759e+00 -2.677493e+01 -1.137520e+00 -3.388182e+01 -7.783665e-01 -4.022053e+01 -1.332817e+00 -4.564215e+01 -1.863750e+00 -5.144158e+01 -1.529909e+00 -5.734043e+01 -1.514006e+00 -6.258310e+01 -1.610365e+00 -6.758054e+01 -1.691912e+00 -7.228341e+01 -2.153647e+00 -7.598781e+01 -2.830699e+00 -7.908410e+01 
-4.287248e+00 -7.778918e+01 -2.832563e+00 -8.091435e+01 -1.748072e+00 8.036857e+01 -9.988966e-01 7.788696e+01 -4.721360e-01 7.449779e+01 -6.106014e-02 7.066628e+01 -1.007005e-01 6.659579e+01 -3.693086e-01 6.205380e+01 -6.798389e-01 5.700421e+01 -9.586094e-01 5.163614e+01 -1.402384e+00 4.610061e+01 -1.690562e+00 4.007876e+01 -1.755645e+00 3.394261e+01 -1.953336e+00 2.768347e+01 -1.999189e+00 2.121658e+01 -1.858686e+00 1.456049e+01 -1.662519e+00 7.896434e+00 -1.556938e+00 1.192085e+00 -1.403004e+00 -5.436646e+00 -1.363495e+00 -1.206128e+01 -1.231456e+00 -1.878095e+01 -1.075012e+00 -2.537006e+01 -8.678739e-01 -3.196235e+01 -8.081262e-01 -3.804551e+01 -1.193881e+00 -4.361042e+01 -1.511051e+00 -4.926014e+01 -1.328678e+00 -5.490504e+01 -1.216354e+00 -6.007823e+01 -1.300360e+00 -6.477703e+01 -1.630430e+00 -6.888613e+01 -2.325153e+00 -7.218435e+01 -3.234948e+00 -7.500825e+01 
-3.170796e+00 -8.319661e+01 -2.537180e+00 -8.647312e+01 -2.050640e+00 8.437545e+01 -1.765170e+00 8.144300e+01 -1.562588e+00 7.768613e+01 -1.384826e+00 7.345942e+01 -1.413271e+00 6.890128e+01 -1.538840e+00 6.390151e+01 -1.695419e+00 5.844997e+01 -1.850226e+00 5.271747e+01 -2.126680e+00 4.682748e+01 -2.333314e+00 4.060139e+01 -2.416060e+00 3.426349e+01 -2.561609e+00 2.779985e+01 -2.580944e+00 2.114425e+01 -2.459285e+00 1.435242e+01 -2.305998e+00 7.537778e+00 -2.195368e+00 6.784999e-01 -2.051361e+00 -6.143273e+00 -1.985169e+00 -1.294274e+01 -1.880765e+00 -1.978452e+01 -1.759336e+00 -2.653731e+01 -1.628127e+00 -3.323306e+01 -1.604156e+00 -3.958517e+01 -1.834051e+00 -4.554318e+01 -2.042598e+00 -5.135544e+01 -1.986563e+00 -5.700802e+01 -1.952824e+00 -6.232204e+01 -1.980780e+00 -6.733963e+01 -2.077443e+00 -7.200247e+01 -2.336513e+00 -7.612724e+01 -2.718788e+00 -7.979977e+01 
-2.883081e+00 -7.967753e+01 -2.366402e+00 -8.274393e+01 -1.746630e+00 8.199392e+01 -1.131778e+00 7.901705e+01 -6.711381e-01 7.542343e+01 -3.465082e-01 7.140327e+01 -2.326222e-01 6.705062e+01 -2.879101e-01 6.230079e+01 -4.800188e-01 5.708694e+01 -7.406697e-01 5.160656e+01 -1.083704e+00 4.590454e+01 -1.332389e+00 3.988820e+01 -1.467082e+00 3.373312e+01 -1.634933e+00 2.747189e+01 -1.706328e+00 2.101442e+01 -1.645944e+00 1.445118e+01 -1.596081e+00 7.884972e+00 -1.554551e+00 1.242836e+00 -1.457432e+00 -5.392075e+00 -1.431759e+00 -1.196521e+01 -1.409933e+00 -1.857661e+01 -1.335079e+00 -2.514046e+01 -1.314736e+00 -3.154739e+01 -1.433719e+00 -3.771611e+01 -1.652667e+00 -4.364011e+01 -1.816394e+00 -4.930057e+01 -1.762704e+00 -5.475523e+01 -1.698729e+00 -5.989599e+01 -1.740380e+00 -6.466893e+01 -1.934264e+00 -6.901009e+01 -2.286671e+00 -7.287423e+01 -2.682989e+00 -7.637685e+01 
-2.583798e+00 -8.463923e+01 -2.330698e+00 -8.806370e+01 -2.032814e+00 8.579306e+01 -1.756954e+00 8.242088e+01 -1.540219e+00 7.845699e+01 -1.362086e+00 7.406790e+01 -1.262965e+00 6.933375e+01 -1.243882e+00 6.420883e+01 -1.357971e+00 5.858642e+01 -1.542041e+00 5.275983e+01 -1.828317e+00 4.676062e+01 -2.021376e+00 4.047355e+01 -2.112576e+00 3.409525e+01 -2.273243e+00 2.765326e+01 -2.335863e+00 2.098952e+01 -2.251259e+00 1.424823e+01 -2.228728e+00 7.545616e+00 -2.205109e+00 7.251578e-01 -2.082917e+00 -6.104362e+00 -2.061907e+00 -1.282175e+01 -2.075465e+00 -1.959624e+01 -2.000255e+00 -2.635739e+01 -2.011089e+00 -3.292884e+01 -2.174536e+00 -3.934484e+01 -2.356283e+00 -4.559262e+01 -2.487987e+00 -5.142994e+01 -2.421201e+00 -5.701349e+01 -2.328061e+00 -6.235713e+01 -2.280738e+00 -6.745546e+01 -2.299592e+00 -7.226550e+01 -2.396601e+00 -7.672327e+01 -2.526758e+00 -8.083633e+01 
-2.290013e+00 -8.180880e+01 -1.987094e+00 -8.539014e+01 -1.546825e+00 8.435391e+01 -1.121885e+00 8.075789e+01 -7.391752e-01 7.677097e+01 -4.235359e-01 7.246942e+01 -1.967794e-01 6.790021e+01 -7.071213e-02 6.300827e+01 -2.101587e-01 5.743517e+01 -4.394232e-01 5.179679e+01 -8.591180e-01 4.602263e+01 -1.086008e+00 3.983746e+01 -1.144620e+00 3.362826e+01 -1.413972e+00 2.745578e+01 -1.543725e+00 2.091963e+01 -1.421458e+00 1.434412e+01 -1.522335e+00 7.948427e+00 -1.606486e+00 1.288329e+00 -1.438775e+00 -5.409477e+00 -1.497126e+00 -1.183247e+01 -1.640637e+00 -1.841840e+01 -1.539056e+00 -2.506815e+01 -1.622600e+00 -3.137266e+01 -1.958604e+00 -3.763224e+01 -2.164915e+00 -4.393623e+01 -2.340986e+00 -4.954690e+01 -2.207124e+00 -5.491810e+01 -2.073887e+00 -6.008028e+01 -2.026630e+00 -6.499271e+01 -2.079470e+00 -6.961365e+01 -2.205410e+00 -7.392810e+01 -2.320212e+00 -7.797630e+01 
-2.345682e+00 -8.646207e+01 -2.165670e+00 -9.042991e+01 -1.924520e+00 8.795950e+01 -1.703387e+00 8.399166e+01 -1.483819e+00 7.965286e+01 -1.261880e+00 7.502123e+01 -1.033495e+00 7.015693e+01 -8.164789e-01 6.500931e+01 -9.470548e-01 5.892744e+01 -1.130250e+00 5.297256e+01 -1.624321e+00 4.698056e+01 -1.808459e+00 4.043920e+01 -1.738465e+00 3.398868e+01 -2.085398e+00 2.772682e+01 -2.235933e+00 2.091520e+01 -1.979246e+00 1.410398e+01 -2.155167e+00 7.669254e+00 -2.312038e+00 7.839610e-01 -2.010676e+00 -6.178306e+00 -2.106498e+00 -1.264621e+01 -2.358450e+00 -1.941893e+01 -2.152332e+00 -2.636762e+01 -2.243049e+00 -3.278306e+01 -2.726182e+00 -3.927287e+01 -2.924508e+00 -4.605629e+01 -3.134533e+00 -5.175752e+01 -2.883029e+00 -5.725813e+01 -2.656639e+00 -6.263713e+01 -2.513051e+00 -6.785974e+01 -2.441798e+00 -7.288077e+01 -2.421431e+00 -7.766191e+01 -2.410069e+00 -8.219067e+01 
-1.990019e+00 -8.418676e+01 -1.747159e+00 -8.841863e+01 -1.409354e+00 8.714419e+01 -1.080039e+00 8.289310e+01 -7.448819e-01 7.843393e+01 -4.140491e-01 7.380369e+01 -6.206126e-02 6.907445e+01 4.084974e-01 6.438837e+01 1.550673e-01 5.785165e+01 5.292380e-02 5.211737e+01 -8.320023e-01 4.654976e+01 -1.003049e+00 3.981740e+01 -6.097303e-01 3.348115e+01 -1.338986e+00 2.779930e+01 -1.629282e+00 2.087227e+01 -9.704901e-01 1.405257e+01 -1.472253e+00 8.270771e+00 -1.908072e+00 1.379759e+00 -1.189041e+00 -5.704723e+00 -1.483830e+00 -1.154326e+01 -2.116293e+00 -1.818969e+01 -1.552070e+00 -2.534208e+01 -1.683117e+00 -3.124970e+01 -2.614309e+00 -3.750179e+01 -2.698636e+00 -4.493430e+01 -3.181808e+00 -5.002936e+01 -2.651747e+00 -5.528868e+01 -2.362298e+00 -6.051353e+01 -2.211839e+00 -6.560774e+01 -2.151136e+00 -7.052399e+01 -2.135493e+00 -7.524839e+01 -2.104869e+00 -7.979552e+01 
-2.235503e+00 -8.858285e+01 -2.068680e+00 -9.318570e+01 -1.858561e+00 9.054311e+01 -1.657973e+00 8.593920e+01 -1.434369e+00 8.114486e+01 -1.170162e+00 7.621029e+01 -7.954534e-01 7.127075e+01 -5.746278e-02 6.674981e+01 -4.648871e-01 5.914322e+01 -4.098243e-01 5.321918e+01 -1.740173e+00 4.775340e+01 -1.830920e+00 4.031643e+01 -9.437872e-01 3.368985e+01 -2.113682e+00 2.835145e+01 -2.525568e+00 2.084323e+01 -1.263639e+00 1.358089e+01 -2.125057e+00 8.243313e+00 -2.864099e+00 9.226046e-01 -1.524406e+00 -6.747649e+00 -2.018182e+00 -1.216758e+01 -3.093588e+00 -1.906323e+01 -1.987147e+00 -2.691063e+01 -2.098328e+00 -3.256562e+01 -3.564503e+00 -3.890574e+01 -3.449520e+00 -4.760284e+01 -4.262342e+00 -5.227955e+01 -3.321802e+00 -5.762292e+01 -2.901733e+00 -6.307287e+01 -2.671823e+00 -6.846474e+01 -2.531865e+00 -7.373434e+01 -2.436762e+00 -7.885054e+01 -2.349945e+00 -8.380134e+01 
-1.826318e+00 -8.671650e+01 -1.608472e+00 -9.160814e+01 -1.331551e+00 9.014489e+01 -1.051371e+00 8.524335e+01 -7.503391e-01 8.027160e+01 -4.279664e-01 7.523953e+01 -4.846352e-02 7.020945e+01 5.150053e-01 6.537474e+01 2.561542e-01 5.842246e+01 2.159510e-01 5.253324e+01 -7.621962e-01 4.692393e+01 -9.094604e-01 3.996967e+01 -3.963272e-01 3.354287e+01 -1.247526e+00 2.795885e+01 -1.588725e+00 2.090411e+01 -8.035243e-01 1.400569e+01 -1.431666e+00 8.387944e+00 -1.981216e+00 1.433285e+00 -1.135773e+00 -5.757369e+00 -1.518030e+00 -1.143712e+01 -2.303919e+00 -1.810600e+01 -1.633147e+00 -2.541058e+01 -1.792615e+00 -3.123524e+01 -2.892481e+00 -3.751879e+01 -2.934020e+00 -4.532016e+01 -3.506615e+00 -5.034880e+01 -2.855285e+00 -5.569400e+01 -2.510773e+00 -6.107717e+01 -2.306582e+00 -6.640017e+01 -2.177562e+00 -7.162534e+01 -2.081364e+00 -7.674444e+01 -1.976978e+00 -8.176831e+01 
-2.184353e+00 -9.087542e+01 -2.022522e+00 -9.611091e+01 -1.834498e+00 9.332038e+01 -1.642463e+00 8.808384e+01 -1.429113e+00 8.278060e+01 -1.189325e+00 7.740422e+01 -9.161592e-01 7.195364e+01 -6.428401e-01 6.634425e+01 -7.301858e-01 5.987420e+01 -8.806661e-01 5.362456e+01 -1.356175e+00 4.741016e+01 -1.530355e+00 4.069407e+01 -1.458914e+00 3.412471e+01 -1.827151e+00 2.780081e+01 -2.017770e+00 2.095105e+01 -1.810016e+00 1.413286e+01 -2.059114e+00 7.725760e+00 -2.294084e+00 8.611093e-01 -2.055608e+00 -6.087642e+00 -2.223175e+00 -1.252717e+01 -2.558376e+00 -1.928874e+01 -2.420617e+00 -2.625813e+01 -2.580587e+00 -3.271384e+01 -3.123128e+00 -3.930684e+01 -3.329915e+00 -4.626821e+01 -3.523517e+00 -5.215510e+01 -3.233120e+00 -5.788532e+01 -2.954088e+00 -6.356709e+01 -2.739393e+00 -6.919109e+01 -2.576474e+00 -7.473940e+01 -2.444316e+00 -8.020168e+01 -2.320522e+00 -8.557761e+01 
-1.735193e+00 -8.929524e+01 -1.535459e+00 -9.481407e+01 -1.300933e+00 9.319579e+01 -1.049236e+00 8.767065e+01 -7.802579e-01 8.217273e+01 -4.993002e-01 7.667194e+01 -2.140056e-01 7.113583e+01 3.133011e-02 6.546350e+01 -1.416167e-02 5.918684e+01 -1.592092e-01 5.302377e+01 -5.455043e-01 4.685995e+01 -7.294272e-01 4.034821e+01 -7.503366e-01 3.392944e+01 -1.064569e+00 2.765814e+01 -1.249701e+00 2.102461e+01 -1.167502e+00 1.441337e+01 -1.392107e+00 8.066040e+00 -1.599936e+00 1.404937e+00 -1.493806e+00 -5.305967e+00 -1.666507e+00 -1.167953e+01 -1.951966e+00 -1.827290e+01 -1.930007e+00 -2.499642e+01 -2.121795e+00 -3.136958e+01 -2.574574e+00 -3.782644e+01 -2.791078e+00 -4.448404e+01 -2.952856e+00 -5.036437e+01 -2.746772e+00 -5.606481e+01 -2.516955e+00 -6.170152e+01 -2.325466e+00 -6.728991e+01 -2.171314e+00 -7.283139e+01 -2.036637e+00 -7.833328e+01 -1.898336e+00 -8.381268e+01 
-2.163856e+00 -9.322414e+01 -2.009404e+00 -9.905645e+01 -1.841110e+00 9.613701e+01 -1.653861e+00 9.030107e+01 -1.453700e+00 8.449299e+01 -1.243337e+00 7.867361e+01 -1.037523e+00 7.279502e+01 -8.872754e-01 6.676015e+01 -9.090992e-01 6.039844e+01 -1.038907e+00 5.399912e+01 -1.285628e+00 4.754991e+01 -1.451751e+00 4.093305e+01 -1.544863e+00 3.432856e+01 -1.740528e+00 2.775787e+01 -1.878223e+00 2.102879e+01 -1.902578e+00 1.429458e+01 -2.037377e+00 7.650410e+00 -2.166992e+00 8.791372e-01 -2.175741e+00 -5.913500e+00 -2.294636e+00 -1.257505e+01 -2.471530e+00 -1.931574e+01 -2.544060e+00 -2.609776e+01 -2.714353e+00 -3.272729e+01 -3.004317e+00 -3.935474e+01 -3.188004e+00 -4.597374e+01 -3.264624e+00 -5.218537e+01 -3.133877e+00 -5.819610e+01 -2.941493e+00 -6.411870e+01 -2.754777e+00 -6.999203e+01 -2.590446e+00 -7.582850e+01 -2.444622e+00 -8.163624e+01 -2.306299e+00 -8.742789e+01 
-1.685257e+00 -9.183140e+01 -1.503566e+00 -9.792876e+01 -1.302601e+00 9.617956e+01 -1.069623e+00 9.007665e+01 -8.256071e-01 8.408045e+01 -5.771497e-01 7.814191e+01 -3.420782e-01 7.220229e+01 -1.717408e-01 6.615769e+01 -1.754071e-01 5.983874e+01 -2.963924e-01 5.350776e+01 -5.357230e-01 4.714536e+01 -7.047886e-01 4.064069e+01 -8.121842e-01 3.416032e+01 -1.018716e+00 2.771741e+01 -1.171549e+00 2.113245e+01 -1.222405e+00 1.454992e+01 -1.378789e+00 8.052531e+00 -1.528757e+00 1.436576e+00 -1.567669e+00 -5.196510e+00 -1.711381e+00 -1.170955e+01 -1.907064e+00 -1.830119e+01 -2.005627e+00 -2.493324e+01 -2.196748e+00 -3.142864e+01 -2.495469e+00 -3.793133e+01 -2.689435e+00 -4.443061e+01 -2.778083e+00 -5.055541e+01 -2.663724e+00 -5.649859e+01 -2.484958e+00 -6.237376e+01 -2.307196e+00 -6.822567e+01 -2.146287e+00 -7.407544e+01 -1.997112e+00 -7.994196e+01 -1.847442e+00 -8.584978e+01 
-2.159851e+00 -9.553196e+01 -2.016430e+00 -1.019114e+02 -1.867103e+00 9.887958e+01 -1.683439e+00 9.249529e+01 -1.492208e+00 8.622021e+01 -1.295495e+00 8.000492e+01 -1.106101e+00 7.379546e+01 -9.647457e-01 6.750549e+01 -9.760350e-01 6.096017e+01 -1.081595e+00 5.442074e+01 -1.296997e+00 4.785847e+01 -1.442592e+00 4.116211e+01 -1.528949e+00 3.449550e+01 -1.714977e+00 2.787284e+01 -1.849032e+00 2.111518e+01 -1.883846e+00 1.436353e+01 -2.024622e+00 7.700340e+00 -2.158945e+00 9.222707e-01 -2.183514e+00 -5.872091e+00 -2.311799e+00 -1.254654e+01 -2.488773e+00 -1.929836e+01 -2.566467e+00 -2.609004e+01 -2.730829e+00 -3.274648e+01 -2.992167e+00 -3.941150e+01 -3.147193e+00 -4.608784e+01 -3.217795e+00 -5.241458e+01 -3.098203e+00 -5.859389e+01 -2.923909e+00 -6.471864e+01 -2.748238e+00 -7.082857e+01 -2.586708e+00 -7.694449e+01 -2.439012e+00 -8.308424e+01 -2.299045e+00 -8.927000e+01 
-1.659266e+00 -9.424714e+01 -1.497081e+00 -1.008671e+02 -1.325195e+00 9.900484e+01 -1.106383e+00 9.238066e+01 -8.793221e-01 8.593421e+01 -6.447132e-01 7.961618e+01 -4.085981e-01 7.337727e+01 -2.046253e-01 6.712670e+01 -2.165366e-01 6.050370e+01 -3.157992e-01 5.402050e+01 -5.981333e-01 4.757344e+01 -7.392134e-01 4.091181e+01 -7.746760e-01 3.435107e+01 -1.029547e+00 2.791790e+01 -1.193078e+00 2.124150e+01 -1.170465e+00 1.459911e+01 -1.375285e+00 8.155687e+00 -1.567087e+00 1.489076e+00 -1.534540e+00 -5.208343e+00 -1.707546e+00 -1.166364e+01 -1.958805e+00 -1.828592e+01 -1.985851e+00 -2.500682e+01 -2.166326e+00 -3.148398e+01 -2.521071e+00 -3.803936e+01 -2.688130e+00 -4.475345e+01 -2.809799e+00 -5.092559e+01 -2.647132e+00 -5.699894e+01 -2.452988e+00 -6.306827e+01 -2.272939e+00 -6.916249e+01 -2.110740e+00 -7.530116e+01 -1.960025e+00 -8.150702e+01 -1.812090e+00 -8.780969e+01 
-2.164455e+00 -9.771904e+01 -2.035407e+00 -1.045891e+02 -1.905348e+00 1.014580e+02 -1.725912e+00 9.458388e+01 -1.540235e+00 8.789077e+01 -1.343601e+00 8.133355e+01 -1.129826e+00 7.488018e+01 -8.929115e-01 6.850499e+01 -9.459339e-01 6.151805e+01 -1.014655e+00 5.486305e+01 -1.380835e+00 4.830094e+01 -1.490262e+00 4.136451e+01 -1.412709e+00 3.461621e+01 -1.744795e+00 2.812154e+01 -1.917026e+00 2.119910e+01 -1.757596e+00 1.434204e+01 -2.021993e+00 7.863085e+00 -2.259303e+00 9.852222e-01 -2.085273e+00 -5.951866e+00 -2.283773e+00 -1.244325e+01 -2.604876e+00 -1.923809e+01 -2.499335e+00 -2.621796e+01 -2.652964e+00 -3.276030e+01 -3.086372e+00 -3.945595e+01 -3.185849e+00 -4.655444e+01 -3.364526e+00 -5.278862e+01 -3.119176e+00 -5.904469e+01 -2.908849e+00 -6.533230e+01 -2.728550e+00 -7.165794e+01 -2.570432e+00 -7.803511e+01 -2.427644e+00 -8.448422e+01 -2.294033e+00 -9.103325e+01 
-1.647146e+00 -9.647738e+01 -1.506398e+00 -1.035602e+02 -1.362238e+00 1.015964e+02 -1.156935e+00 9.451021e+01 -9.448096e-01 8.766244e+01 -7.172358e-01 8.101450e+01 -4.467109e-01 7.456974e+01 -2.948698e-02 6.846912e+01 -1.639143e-01 6.103159e+01 -1.540374e-01 5.449235e+01 -8.062409e-01 4.821728e+01 -8.732493e-01 4.108708e+01 -5.170548e-01 3.440908e+01 -1.138659e+00 2.836027e+01 -1.395312e+00 2.132268e+01 -8.878432e-01 1.444518e+01 -1.392928e+00 8.478645e+00 -1.826048e+00 1.578647e+00 -1.290569e+00 -5.464708e+00 -1.633214e+00 -1.145565e+01 -2.233529e+00 -1.816670e+01 -1.806028e+00 -2.532423e+01 -1.967278e+00 -3.146682e+01 -2.735703e+00 -3.798644e+01 -2.721332e+00 -4.562110e+01 -3.134059e+00 -5.138956e+01 -2.664235e+00 -5.750170e+01 -2.408109e+00 -6.373702e+01 -2.222018e+00 -7.005394e+01 -2.065287e+00 -7.645844e+01 -1.922417e+00 -8.297353e+01 -1.784863e+00 -8.963242e+01 
-2.172997e+00 -9.972010e+01 -2.061406e+00 -1.070206e+02 -1.952393e+00 1.037981e+02 -1.780074e+00 9.649342e+01 -1.603385e+00 8.942742e+01 -1.412246e+00 8.256079e+01 -1.180577e+00 7.589200e+01 -8.208467e-01 6.953083e+01 -9.412491e-01 6.200241e+01 -9.407778e-01 5.526869e+01 -1.516715e+00 4.877627e+01 -1.578040e+00 4.153641e+01 -1.266413e+00 3.470022e+01 -1.811268e+00 2.842198e+01 -2.035537e+00 2.127541e+01 -1.587743e+00 1.427282e+01 -2.029377e+00 8.074639e+00 -2.408068e+00 1.055232e+00 -1.933690e+00 -6.089099e+00 -2.231923e+00 -1.230532e+01 -2.757735e+00 -1.915598e+01 -2.376552e+00 -2.640051e+01 -2.514323e+00 -3.275199e+01 -3.191118e+00 -3.944005e+01 -3.178541e+00 -4.710993e+01 -3.534308e+00 -5.313714e+01 -3.106905e+00 -5.946296e+01 -2.864801e+00 -6.590725e+01 -2.687848e+00 -7.243502e+01 -2.540417e+00 -7.905278e+01 -2.409371e+00 -8.578299e+01 -2.288211e+00 -9.265817e+01 
-1.642733e+00 -9.846838e+01 -1.525323e+00 -1.059518e+02 -1.409621e+00 1.038928e+02 -1.220001e+00 9.640286e+01 -1.029977e+00 8.919201e+01 -8.355658e-01 8.220962e+01 -6.323827e-01 7.541321e+01 -4.285268e-01 6.874025e+01 -4.441238e-01 6.169833e+01 -4.991337e-01 5.494322e+01 -7.697128e-01 4.830611e+01 -8.646182e-01 4.144044e+01 -8.309357e-01 3.474155e+01 -1.090458e+00 2.824795e+01 -1.242931e+00 2.146649e+01 -1.161867e+00 1.474578e+01 -1.382441e+00 8.304726e+00 -1.588490e+00 1.584596e+00 -1.501155e+00 -5.175753e+00 -1.677452e+00 -1.161845e+01 -1.944601e+00 -1.828198e+01 -1.904560e+00 -2.508771e+01 -2.047423e+00 -3.159509e+01 -2.398088e+00 -3.823482e+01 -2.510156e+00 -4.517383e+01 -2.646387e+00 -5.151643e+01 -2.465759e+00 -5.788310e+01 -2.293522e+00 -6.432429e+01 -2.142909e+00 -7.085742e+01 -2.007766e+00 -7.750440e+01 -1.882014e+00 -8.429521e+01 -1.761264e+00 -9.126782e+01 
-2.182539e+00 -1.014823e+02 -2.090935e+00 -1.091506e+02 -2.005266e+00 1.058409e+02 -1.844126e+00 9.816456e+01 -1.684980e+00 9.076467e+01 -1.523673e+00 8.358852e+01 -1.358243e+00 7.658758e+01 -1.206398e+00 6.968317e+01 -1.213584e+00 6.256437e+01 -1.273496e+00 5.563869e+01 -1.476665e+00 4.880333e+01 -1.564810e+00 4.183760e+01 -1.570284e+00 3.499236e+01 -1.761856e+00 2.828314e+01 -1.882918e+00 2.139687e+01 -1.854715e+00 1.455718e+01 -2.017646e+00 7.895929e+00 -2.170737e+00 1.058828e+00 -2.138146e+00 -5.799329e+00 -2.273678e+00 -1.245663e+01 -2.468731e+00 -1.925603e+01 -2.471323e+00 -2.614568e+01 -2.593053e+00 -3.284902e+01 -2.851930e+00 -3.964346e+01 -2.957384e+00 -4.661388e+01 -3.042061e+00 -5.319461e+01 -2.906331e+00 -5.976509e+01 -2.755573e+00 -6.639916e+01 -2.618691e+00 -7.312198e+01 -2.495787e+00 -7.995759e+01 -2.383724e+00 -8.693629e+01 -2.279881e+00 -9.409584e+01 
-1.642069e+00 -1.001765e+02 -1.548892e+00 -1.079966e+02 -1.461554e+00 1.058480e+02 -1.289344e+00 9.801652e+01 -1.123955e+00 9.049317e+01 -9.657976e-01 8.321846e+01 -8.206693e-01 7.613248e+01 -7.097428e-01 6.915840e+01 -6.915957e-01 6.217153e+01 -7.332608e-01 5.529634e+01 -8.462412e-01 4.849509e+01 -9.291547e-01 4.168635e+01 -9.883306e-01 3.495014e+01 -1.114333e+00 2.828303e+01 -1.218084e+00 2.157234e+01 -1.270853e+00 1.489115e+01 -1.389565e+00 8.279440e+00 -1.507176e+00 1.612722e+00 -1.562239e+00 -5.058114e+00 -1.676561e+00 -1.166030e+01 -1.815808e+00 -1.831448e+01 -1.891938e+00 -2.500536e+01 -2.010916e+00 -3.163941e+01 -2.177939e+00 -3.831140e+01 -2.277398e+00 -4.503628e+01 -2.324958e+00 -5.161842e+01 -2.259686e+00 -5.819024e+01 -2.158244e+00 -6.481974e+01 -2.049777e+00 -7.154696e+01 -1.942899e+00 -7.840630e+01 -1.839379e+00 -8.543479e+01 -1.739135e+00 -9.267501e+01 
-2.191143e+00 -1.029634e+02 -2.120761e+00 -1.109354e+02 -2.059176e+00 1.075431e+02 -1.911953e+00 9.955844e+01 -1.773159e+00 9.187770e+01 -1.642627e+00 8.444092e+01 -1.525576e+00 7.718855e+01 -1.440319e+00 7.004964e+01 -1.426958e+00 6.293436e+01 -1.465654e+00 5.591414e+01 -1.556362e+00 4.896176e+01 -1.629708e+00 4.202244e+01 -1.688419e+00 3.514418e+01 -1.789376e+00 2.832037e+01 -1.875422e+00 2.147716e+01 -1.928452e+00 1.465964e+01 -2.022861e+00 7.890375e+00 -2.116416e+00 1.089092e+00 -2.170481e+00 -5.712344e+00 -2.262672e+00 -1.246975e+01 -2.371739e+00 -1.926102e+01 -2.441829e+00 -2.607696e+01 -2.539925e+00 -3.285946e+01 -2.668150e+00 -3.966899e+01 -2.747501e+00 -4.651012e+01 -2.777802e+00 -5.325948e+01 -2.722659e+00 -6.000339e+01 -2.633705e+00 -6.680242e+01 -2.537092e+00 -7.369623e+01 -2.442385e+00 -8.071942e+01 -2.352622e+00 -8.790891e+01 -2.268709e+00 -9.530709e+01 
-1.642567e+00 -1.015671e+02 -1.573119e+00 -1.096588e+02 -1.512472e+00 1.074281e+02 -1.357986e+00 9.932102e+01 -1.215495e+00 9.154522e+01 -1.086831e+00 8.403854e+01 -9.782115e-01 7.674074e+01 -9.026995e-01 6.959065e+01 -8.783169e-01 6.253276e+01 -8.981232e-01 5.557352e+01 -9.544643e-01 4.869234e+01 -1.016226e+00 4.186107e+01 -1.079921e+00 3.508763e+01 -1.162602e+00 2.836149e+01 -1.243021e+00 2.165075e+01 -1.313797e+00 1.496541e+01 -1.400132e+00 8.308083e+00 -1.487748e+00 1.647143e+00 -1.563130e+00 -5.010021e+00 -1.652979e+00 -1.165187e+01 -1.750347e+00 -1.830852e+01 -1.835016e+00 -2.497978e+01 -1.928015e+00 -3.164802e+01 -2.026267e+00 -3.833518e+01 -2.093806e+00 -4.504177e+01 -2.119749e+00 -5.172952e+01 -2.091665e+00 -5.843937e+01 -2.031577e+00 -6.521748e+01 -1.956884e+00 -7.210447e+01 -1.876992e+00 -7.913924e+01 -1.796477e+00 -8.636298e+01 -1.717734e+00 -9.382157e+01 
-2.197523e+00 -1.041307e+02 -2.148145e+00 -1.123409e+02 -2.109605e+00 1.088731e+02 -1.977368e+00 1.006467e+02 -1.857846e+00 9.274580e+01 -1.751976e+00 8.510862e+01 -1.664575e+00 7.767660e+01 -1.605819e+00 7.039283e+01 -1.588291e+00 6.320917e+01 -1.607292e+00 5.612050e+01 -1.654947e+00 4.910742e+01 -1.708756e+00 4.214709e+01 -1.764946e+00 3.524043e+01 -1.833459e+00 2.837682e+01 -1.900321e+00 2.153299e+01 -1.960700e+00 1.471299e+01 -2.030619e+00 7.916193e+00 -2.101211e+00 1.120804e+00 -2.164093e+00 -5.669850e+00 -2.236393e+00 -1.245003e+01 -2.313861e+00 -1.924027e+01 -2.383466e+00 -2.604165e+01 -2.457918e+00 -3.284426e+01 -2.533777e+00 -3.966296e+01 -2.585081e+00 -4.649837e+01 -2.601290e+00 -5.332891e+01 -2.574655e+00 -6.018625e+01 -2.521167e+00 -6.711095e+01 -2.455467e+00 -7.414138e+01 -2.386375e+00 -8.131541e+01 -2.318660e+00 -8.867360e+01 -2.255047e+00 -9.626142e+01 
-1.642555e+00 -1.026135e+02 -1.595158e+00 -1.109106e+02 -1.558408e+00 1.086072e+02 -1.420960e+00 1.002924e+02 -1.298258e+00 9.232710e+01 -1.191897e+00 8.464930e+01 -1.106067e+00 7.720141e+01 -1.047412e+00 6.993088e+01 -1.022102e+00 6.279510e+01 -1.027878e+00 5.577202e+01 -1.058398e+00 4.883974e+01 -1.101722e+00 4.197819e+01 -1.153235e+00 3.517733e+01 -1.214031e+00 2.842449e+01 -1.277684e+00 2.170415e+01 -1.341439e+00 1.501129e+01 -1.410204e+00 8.340085e+00 -1.480643e+00 1.678229e+00 -1.549578e+00 -4.977444e+00 -1.622613e+00 -1.162907e+01 -1.697856e+00 -1.828765e+01 -1.769697e+00 -2.495732e+01 -1.840487e+00 -3.163839e+01 -1.905770e+00 -3.833976e+01 -1.951722e+00 -4.506613e+01 -1.970029e+00 -5.181810e+01 -1.957293e+00 -5.862008e+01 -1.921270e+00 -6.550644e+01 -1.871237e+00 -7.251450e+01 -1.814240e+00 -7.968377e+01 -1.755004e+00 -8.705719e+01 -1.696840e+00 -9.468254e+01 
-2.200850e+00 -1.049600e+02 -2.171141e+00 -1.133419e+02 -2.153475e+00 1.098072e+02 -2.036262e+00 1.014071e+02 -1.933839e+00 9.334867e+01 -1.846867e+00 8.557035e+01 -1.778230e+00 7.801609e+01 -1.732727e+00 7.063569e+01 -1.714514e+00 6.338867e+01 -1.721628e+00 5.625076e+01 -1.748508e+00 4.920023e+01 -1.785953e+00 4.221819e+01 -1.829814e+00 3.529330e+01 -1.879986e+00 2.841339e+01 -1.931932e+00 2.156523e+01 -1.983694e+00 1.474292e+01 -2.038354e+00 7.940438e+00 -2.093891e+00 1.148041e+00 -2.148406e+00 -5.637953e+00 -2.205551e+00 -1.242052e+01 -2.264132e+00 -1.920821e+01 -2.320339e+00 -2.600523e+01 -2.375070e+00 -3.281346e+01 -2.424404e+00 -3.964044e+01 -2.457924e+00 -4.649156e+01 -2.468874e+00 -5.337132e+01 -2.455063e+00 -6.030168e+01 -2.422585e+00 -6.731397e+01 -2.379278e+00 -7.444339e+01 -2.331500e+00 -8.172804e+01 -2.283758e+00 -8.920990e+01 -2.239306e+00 -9.693609e+01 
-1.640978e+00 -1.032965e+02 -1.613254e+00 -1.117323e+02 -1.597119e+00 1.093660e+02 -1.475654e+00 1.009117e+02 -1.369864e+00 9.281989e+01 -1.280596e+00 8.502920e+01 -1.210096e+00 7.748422e+01 -1.161402e+00 7.013606e+01 -1.136601e+00 6.294438e+01 -1.134348e+00 5.587935e+01 -1.150671e+00 4.891625e+01 -1.179820e+00 4.203458e+01 -1.217999e+00 3.521880e+01 -1.263277e+00 2.845491e+01 -1.312665e+00 2.173013e+01 -1.364473e+00 1.503541e+01 -1.419085e+00 8.362642e+00 -1.475346e+00 1.703191e+00 -1.532206e+00 -4.948998e+00 -1.590480e+00 -1.159949e+01 -1.649117e+00 -1.825568e+01 -1.705730e+00 -2.492359e+01 -1.758960e+00 -3.160879e+01 -1.805132e+00 -3.831955e+01 -1.837860e+00 -4.506495e+01 -1.852486e+00 -5.185666e+01 -1.847693e+00 -5.871645e+01 -1.826749e+00 -6.567395e+01 -1.794707e+00 -7.276383e+01 -1.756390e+00 -8.002499e+01 -1.715798e+00 -8.750077e+01 -1.676282e+00 -9.523976e+01 
-2.200616e+00 -1.054343e+02 -2.188621e+00 -1.139212e+02 -2.189183e+00 1.103285e+02 -2.086668e+00 1.018231e+02 -1.999434e+00 9.366938e+01 -1.927472e+00 8.580675e+01 -1.871990e+00 7.818095e+01 -1.834862e+00 7.074459e+01 -1.817215e+00 6.345861e+01 -1.817637e+00 5.629326e+01 -1.832650e+00 4.922432e+01 -1.857564e+00 4.223201e+01 -1.889096e+00 3.530104e+01 -1.925394e+00 2.841814e+01 -1.964180e+00 2.157164e+01 -2.004199e+00 1.475295e+01 -2.045666e+00 7.954530e+00 -2.087918e+00 1.168903e+00 -2.130394e+00 -5.609542e+00 -2.173690e+00 -1.238601e+01 -2.217133e+00 -1.916686e+01 -2.259031e+00 -2.595771e+01 -2.298114e+00 -3.276415e+01 -2.331388e+00 -3.959396e+01 -2.353975e+00 -4.645626e+01 -2.362299e+00 -5.336322e+01 -2.355568e+00 -6.033533e+01 -2.336569e+00 -6.740025e+01 -2.309675e+00 -7.459085e+01 -2.279204e+00 -8.194451e+01 -2.248837e+00 -8.950343e+01 -2.221686e+00 -9.731534e+01 
-1.637213e+00 -1.036037e+02 -1.626520e+00 -1.121109e+02 -1.627686e+00 1.096912e+02 -1.521213e+00 1.011658e+02 -1.430196e+00 9.300953e+01 -1.354721e+00 8.516208e+01 -1.295652e+00 7.756938e+01 -1.254107e+00 7.018415e+01 -1.230531e+00 6.296658e+01 -1.223793e+00 5.588439e+01 -1.231337e+00 4.891109e+01 -1.249834e+00 4.202492e+01 -1.276452e+00 3.520824e+01 -1.309078e+00 2.844615e+01 -1.345754e+00 2.172599e+01 -1.385166e+00 1.503750e+01 -1.426754e+00 8.371823e+00 -1.469826e+00 1.720864e+00 -1.513782e+00 -4.922317e+00 -1.558385e+00 -1.156430e+01 -1.602802e+00 -1.821208e+01 -1.645568e+00 -2.487270e+01 -1.685015e+00 -3.155380e+01 -1.718564e+00 -3.826487e+01 -1.742881e+00 -4.501760e+01 -1.755462e+00 -5.182727e+01 -1.755672e+00 -5.871536e+01 -1.745103e+00 -6.570948e+01 -1.726646e+00 -7.284259e+01 -1.703545e+00 -8.015264e+01 -1.678933e+00 -8.768271e+01 -1.655807e+00 -9.548145e+01 
-2.196547e+00 -1.055441e+02 -2.200108e+00 -1.140687e+02 -2.216229e+00 1.104269e+02 -2.128141e+00 1.018842e+02 -2.054843e+00 9.369670e+01 -1.995658e+00 8.580474e+01 -1.950618e+00 7.815529e+01 -1.920040e+00 7.070238e+01 -1.903784e+00 6.340738e+01 -1.900575e+00 5.623894e+01 -1.908091e+00 4.917152e+01 -1.923501e+00 4.218431e+01 -1.944389e+00 3.526057e+01 -1.968966e+00 2.838639e+01 -1.995722e+00 2.155020e+01 -2.023716e+00 1.474264e+01 -2.052619e+00 7.955786e+00 -2.082100e+00 1.182556e+00 -2.111924e+00 -5.583164e+00 -2.142072e+00 -1.234717e+01 -2.172081e+00 -1.911558e+01 -2.200971e+00 -2.589470e+01 -2.227492e+00 -3.269162e+01 -2.249687e+00 -3.951517e+01 -2.265076e+00 -4.637645e+01 -2.271851e+00 -5.329016e+01 -2.269721e+00 -6.027648e+01 -2.260173e+00 -6.736137e+01 -2.245785e+00 -7.457607e+01 -2.229460e+00 -8.195696e+01 -2.214022e+00 -8.954577e+01 -2.202156e+00 -9.739012e+01 