# vtk DataFile Version 2.0
Comment goes here
ASCII

DATASET STRUCTURED_POINTS
FIELD FieldData 1
TIME 1 1 double
0.04200000
DIMENSIONS    64   64   1

ORIGIN    0.000   0.000   0.000
SPACING   0.03125 0.03125   1.000

POINT_DATA   4096
SCALARS P double
LOOKUP_TABLE default

-2.861272e+01 -1.807117e+02 -2.166688e+01 -1.821998e+02 5.989085e+01 1.341999e+02 -1.581160e+01 1.267461e+02 -1.310856e+01 1.094622e+02 -3.939617e+00 9.371612e+01 -2.281853e+00 8.557294e+01 -6.686600e+00 8.227691e+01 -1.652954e+01 8.185438e+01 -2.215577e+01 7.448754e+01 -2.295708e+01 6.511693e+01 -2.146190e+01 5.136510e+01 -1.271296e+01 2.909884e+01 2.442454e+00 4.817042e+00 1.275847e+01 -1.515620e+01 1.958416e+01 -3.160664e+01 2.078498e+01 -4.016961e+01 1.144856e+01 -3.893135e+01 -5.392188e+00 -3.535865e+01 -2.219986e+01 -2.903801e+01 -4.550094e+01 -2.049243e+01 -6.402370e+01 -2.233057e+01 -7.073585e+01 -3.397803e+01 -6.749723e+01 -5.236895e+01 -5.882152e+01 -7.405647e+01 -4.850165e+01 -9.365690e+01 -4.272217e+01 -1.072775e+02 -4.159352e+01 -1.180515e+02 -4.261755e+01 -1.282807e+02 -4.047367e+01 -1.428353e+02 -3.373649e+01 -1.567802e+02 -3.021825e+01 -1.624314e+02 
-8.315425e+00 -1.243017e+02 -4.055205e+00 -1.257187e+02 5.524166e+01 1.118900e+02 -1.967012e+00 1.072079e+02 -1.462014e+00 9.660896e+01 3.011472e+00 8.665250e+01 3.443599e+00 8.041416e+01 1.128910e+00 7.617629e+01 -4.028503e+00 7.334310e+01 -6.699044e+00 6.646172e+01 -7.075825e+00 5.894370e+01 -6.876091e+00 4.959970e+01 -3.310649e+00 3.590690e+01 3.594568e+00 2.128721e+01 7.598669e+00 8.925350e+00 1.037890e+01 -2.255835e+00 1.108016e+01 -9.946189e+00 6.795118e+00 -1.294560e+01 -6.740104e-01 -1.548462e+01 -7.348117e+00 -1.674682e+01 -1.781683e+01 -1.634177e+01 -2.612789e+01 -2.112552e+01 -2.862936e+01 -3.030259e+01 -2.675764e+01 -4.231379e+01 -2.247328e+01 -5.565403e+01 -1.758852e+01 -6.756097e+01 -1.512920e+01 -7.625378e+01 -1.493909e+01 -8.356591e+01 -1.574172e+01 -9.056783e+01 -1.468589e+01 -9.996761e+01 -1.093296e+01 -1.088905e+02 -9.111404e+00 -1.126061e+02 
3.915159e+00 -9.033248e+01 5.321259e+00 -9.263346e+01 2.472970e+01 9.719335e+01 5.542389e+00 9.403785e+01 5.071802e+00 8.896465e+01 5.492744e+00 8.354792e+01 5.183088e+00 7.822746e+01 4.655553e+00 7.264645e+01 3.618912e+00 6.700341e+01 3.139082e+00 6.029824e+01 2.940083e+00 5.354379e+01 2.552266e+00 4.667465e+01 2.437363e+00 3.919546e+01 2.767275e+00 3.163950e+01 2.407760e+00 2.445294e+01 2.149542e+00 1.712149e+01 1.978365e+00 1.001181e+01 1.281343e+00 3.387946e+00 4.577394e-01 -3.549606e+00 1.793818e-01 -1.036581e+01 -9.356899e-01 -1.666466e+01 -1.804459e+00 -2.365037e+01 -1.900884e+00 -3.090854e+01 -1.666527e+00 -3.821951e+01 -1.181865e+00 -4.545301e+01 -5.995420e-01 -5.215443e+01 -3.078722e-01 -5.819641e+01 -1.448604e-01 -6.398869e+01 4.319971e-02 -6.957650e+01 7.268486e-01 -7.542775e+01 2.039255e+00 -8.084855e+01 2.974490e+00 -8.469451e+01 
3.469112e+00 -9.115409e+01 5.285523e+00 -9.415066e+01 6.954397e+00 9.811862e+01 5.906113e+00 9.457114e+01 5.324781e+00 8.956591e+01 5.296899e+00 8.408087e+01 4.976124e+00 7.860294e+01 4.351079e+00 7.305385e+01 3.420945e+00 6.729411e+01 2.818999e+00 6.083746e+01 2.486024e+00 5.400169e+01 2.290228e+00 4.680946e+01 2.459165e+00 3.912683e+01 2.890683e+00 3.128684e+01 3.038586e+00 2.365282e+01 3.076027e+00 1.621234e+01 2.830916e+00 9.137527e+00 2.006290e+00 2.509738e+00 9.343244e-01 -3.994761e+00 -1.109079e-01 -1.034578e+01 -1.490826e+00 -1.658573e+01 -2.549605e+00 -2.333016e+01 -2.899836e+00 -3.055146e+01 -2.734264e+00 -3.805626e+01 -2.163590e+00 -4.550306e+01 -1.486083e+00 -5.250113e+01 -1.011453e+00 -5.888516e+01 -7.378630e-01 -6.487225e+01 -4.446384e-01 -7.065855e+01 2.191247e-01 -7.643977e+01 1.292963e+00 -8.181832e+01 2.340609e+00 -8.638597e+01 
3.834029e+00 -9.022082e+01 5.236342e+00 -9.350482e+01 6.722515e+00 9.747137e+01 5.761802e+00 9.394619e+01 5.215353e+00 8.928703e+01 5.042753e+00 8.407351e+01 4.772789e+00 7.860802e+01 4.369222e+00 7.287778e+01 3.749503e+00 6.682880e+01 3.344010e+00 6.030874e+01 3.014950e+00 5.352253e+01 2.702019e+00 4.653761e+01 2.553167e+00 3.932497e+01 2.458675e+00 3.200219e+01 2.166657e+00 2.473258e+01 1.921737e+00 1.753024e+01 1.598668e+00 1.043934e+01 1.028158e+00 3.465372e+00 4.823899e-01 -3.479870e+00 -3.033194e-03 -1.036084e+01 -7.423407e-01 -1.720379e+01 -1.275630e+00 -2.420281e+01 -1.477664e+00 -3.130581e+01 -1.500133e+00 -3.844628e+01 -1.265697e+00 -4.543254e+01 -8.389202e-01 -5.207897e+01 -4.613900e-01 -5.832267e+01 -1.277368e-01 -6.429517e+01 2.817406e-01 -7.007525e+01 9.414719e-01 -7.573824e+01 1.867961e+00 -8.103893e+01 2.824646e+00 -8.572614e+01 
3.343292e+00 -9.204450e+01 4.789931e+00 -9.580698e+01 6.160969e+00 9.859390e+01 5.586287e+00 9.479393e+01 5.105734e+00 9.002977e+01 4.837487e+00 8.472681e+01 4.558653e+00 7.916993e+01 4.174017e+00 7.339498e+01 3.578197e+00 6.729448e+01 3.133247e+00 6.076621e+01 2.768393e+00 5.384736e+01 2.567116e+00 4.667407e+01 2.587208e+00 3.929921e+01 2.616220e+00 3.173361e+01 2.551245e+00 2.421548e+01 2.476099e+00 1.693347e+01 2.128613e+00 9.824379e+00 1.427892e+00 2.873487e+00 6.977335e-01 -3.844448e+00 -1.527302e-01 -1.050262e+01 -1.182713e+00 -1.728499e+01 -1.879528e+00 -2.417698e+01 -2.245602e+00 -3.128087e+01 -2.381196e+00 -3.858041e+01 -2.127587e+00 -4.571155e+01 -1.651493e+00 -5.260254e+01 -1.173407e+00 -5.907062e+01 -7.650823e-01 -6.522412e+01 -3.023570e-01 -7.117078e+01 3.537261e-01 -7.694734e+01 1.225281e+00 -8.240937e+01 2.214644e+00 -8.741636e+01 
3.539253e+00 -9.179568e+01 4.704289e+00 -9.589214e+01 5.899198e+00 9.863408e+01 5.379805e+00 9.467123e+01 4.948960e+00 8.997801e+01 4.703717e+00 8.477274e+01 4.517545e+00 7.922311e+01 4.293789e+00 7.336154e+01 3.777573e+00 6.705824e+01 3.488531e+00 6.051173e+01 3.098861e+00 5.367600e+01 2.754240e+00 4.663104e+01 2.614553e+00 3.954185e+01 2.346649e+00 3.230190e+01 1.947800e+00 2.496645e+01 1.767193e+00 1.781852e+01 1.436540e+00 1.073053e+01 8.136872e-01 3.542842e+00 4.570133e-01 -3.470401e+00 4.363239e-02 -1.041962e+01 -6.937389e-01 -1.757444e+01 -1.057010e+00 -2.466514e+01 -1.250495e+00 -3.171584e+01 -1.533454e+00 -3.887201e+01 -1.473425e+00 -4.580465e+01 -1.017831e+00 -5.242016e+01 -5.903493e-01 -5.871249e+01 -1.874941e-01 -6.479251e+01 2.925956e-01 -7.071372e+01 9.200035e-01 -7.646809e+01 1.699051e+00 -8.195003e+01 2.570618e+00 -8.705881e+01 
2.950088e+00 -9.396110e+01 4.097778e+00 -9.850015e+01 5.232704e+00 1.001389e+02 4.923652e+00 9.581347e+01 4.607598e+00 9.091202e+01 4.391343e+00 8.557758e+01 4.254672e+00 7.995412e+01 4.164921e+00 7.402982e+01 3.762914e+00 6.759932e+01 3.364515e+00 6.098672e+01 2.900662e+00 5.396759e+01 2.713229e+00 4.674120e+01 2.668754e+00 3.960098e+01 2.414180e+00 3.215268e+01 2.192522e+00 2.456495e+01 2.116210e+00 1.743071e+01 1.719233e+00 1.034860e+01 1.000788e+00 3.050441e+00 5.712567e-01 -3.788967e+00 -8.035736e-02 -1.055771e+01 -1.098827e+00 -1.782649e+01 -1.532737e+00 -2.485119e+01 -1.884128e+00 -3.187086e+01 -2.332077e+00 -3.927505e+01 -2.233949e+00 -4.630937e+01 -1.805246e+00 -5.313323e+01 -1.311520e+00 -5.954649e+01 -8.552031e-01 -6.577567e+01 -3.345277e-01 -7.187035e+01 3.020409e-01 -7.780843e+01 1.069307e+00 -8.351464e+01 1.950008e+00 -8.891335e+01 
3.045811e+00 -9.406335e+01 3.968720e+00 -9.893337e+01 4.897788e+00 1.007141e+02 4.670623e+00 9.612470e+01 4.432632e+00 9.114071e+01 4.290191e+00 8.580758e+01 4.265613e+00 8.018205e+01 4.340511e+00 7.420257e+01 3.890417e+00 6.736626e+01 3.671826e+00 6.085341e+01 3.060530e+00 5.409494e+01 2.768033e+00 4.681431e+01 2.763295e+00 3.978761e+01 2.247244e+00 3.270460e+01 1.702304e+00 2.509511e+01 1.739131e+00 1.795346e+01 1.409177e+00 1.107228e+01 5.119876e-01 3.563322e+00 4.945340e-01 -3.596703e+00 2.632402e-01 -1.036187e+01 -8.794775e-01 -1.788278e+01 -9.744519e-01 -2.521726e+01 -1.051373e+00 -3.212450e+01 -1.815463e+00 -3.947734e+01 -1.938751e+00 -4.674582e+01 -1.221716e+00 -5.306515e+01 -7.704454e-01 -5.925406e+01 -3.380841e-01 -6.542078e+01 1.741217e-01 -7.152070e+01 7.705607e-01 -7.749367e+01 1.453485e+00 -8.327578e+01 2.211490e+00 -8.881207e+01 
2.385053e+00 -9.634287e+01 3.259591e+00 -1.016244e+02 4.102323e+00 1.025009e+02 4.048430e+00 9.751482e+01 3.930207e+00 9.224881e+01 3.838888e+00 8.672927e+01 3.834362e+00 8.105951e+01 4.041168e+00 7.543073e+01 4.543010e+00 6.747231e+01 3.459247e+00 6.136567e+01 2.566393e+00 5.462561e+01 3.055680e+00 4.668981e+01 2.811854e+00 3.985526e+01 1.877243e+00 3.293381e+01 2.115510e+00 2.453320e+01 1.965682e+00 1.752284e+01 1.250707e+00 1.116073e+01 6.985747e-01 2.984759e+00 6.126961e-01 -4.143209e+00 -3.504925e-03 -1.017585e+01 -1.293806e+00 -1.828780e+01 -1.265499e+00 -2.582376e+01 -1.721596e+00 -3.222711e+01 -2.689339e+00 -3.990795e+01 -2.601594e+00 -4.807903e+01 -2.199878e+00 -5.388069e+01 -1.563082e+00 -6.009054e+01 -1.019654e+00 -6.642964e+01 -4.598887e-01 -7.272422e+01 1.463601e-01 -7.890814e+01 8.203163e-01 -8.493344e+01 1.566868e+00 -9.075758e+01 
2.418672e+00 -9.662623e+01 3.094099e+00 -1.022188e+02 3.727053e+00 1.034254e+02 3.775564e+00 9.814622e+01 3.749339e+00 9.272516e+01 3.737477e+00 8.718605e+01 3.821267e+00 8.169652e+01 4.216453e+00 7.660427e+01 5.070200e+00 6.735227e+01 3.786022e+00 6.149176e+01 2.655186e+00 5.520481e+01 3.498238e+00 4.668429e+01 3.075415e+00 3.999560e+01 1.519288e+00 3.382386e+01 2.162245e+00 2.473368e+01 1.974542e+00 1.771027e+01 8.203530e-01 1.221478e+01 5.910632e-01 3.249255e+00 9.579329e-01 -4.223473e+00 1.597687e-01 -9.454680e+00 -1.154399e+00 -1.830779e+01 -4.208970e-01 -2.627939e+01 -1.213081e+00 -3.207284e+01 -2.406381e+00 -3.986146e+01 -1.450850e+00 -4.903509e+01 -2.177321e+00 -5.337709e+01 -1.232944e+00 -5.962851e+01 -5.652817e-01 -6.608460e+01 1.818008e-04 -7.245377e+01 5.552095e-01 -7.871074e+01 1.139525e+00 -8.483961e+01 1.761619e+00 -9.081924e+01 
1.714003e+00 -9.890720e+01 2.322547e+00 -1.048782e+02 2.861962e+00 1.053781e+02 3.067312e+00 9.970696e+01 3.170469e+00 9.397010e+01 3.243945e+00 8.816226e+01 3.342219e+00 8.236044e+01 3.534902e+00 7.665423e+01 3.697541e+00 6.814357e+01 3.460188e+00 6.187216e+01 2.779188e+00 5.516689e+01 3.080577e+00 4.699421e+01 2.861110e+00 4.013878e+01 1.859662e+00 3.337724e+01 2.067302e+00 2.475947e+01 1.899576e+00 1.771874e+01 1.083041e+00 1.150626e+01 6.464208e-01 3.046467e+00 7.220700e-01 -4.222015e+00 4.618886e-02 -1.014573e+01 -1.188548e+00 -1.855393e+01 -8.547600e-01 -2.624638e+01 -1.504826e+00 -3.253234e+01 -2.604687e+00 -4.029101e+01 -2.032868e+00 -4.865350e+01 -2.651423e+00 -5.419343e+01 -1.811538e+00 -6.059847e+01 -1.162148e+00 -6.716998e+01 -5.998955e-01 -7.370169e+01 -5.566620e-02 -8.015908e+01 5.074203e-01 -8.652444e+01 1.099664e+00 -9.277986e+01 
1.710527e+00 -9.926857e+01 2.137616e+00 -1.055253e+02 2.479649e+00 1.064994e+02 2.794789e+00 1.005261e+02 3.005945e+00 9.456218e+01 3.188844e+00 8.855903e+01 3.403001e+00 8.247712e+01 3.644304e+00 7.615351e+01 3.156296e+00 6.872471e+01 3.394420e+00 6.189186e+01 2.962823e+00 5.494495e+01 2.598429e+00 4.742760e+01 2.647876e+00 4.029158e+01 2.166548e+00 3.322097e+01 1.507771e+00 2.549473e+01 1.590573e+00 1.822414e+01 1.351061e+00 1.130611e+01 4.083143e-01 3.686534e+00 4.948801e-01 -3.695880e+00 4.134734e-01 -1.058918e+01 -7.595879e-01 -1.818916e+01 -7.749085e-01 -2.574782e+01 -7.957007e-01 -3.277446e+01 -1.753183e+00 -4.010076e+01 -2.051618e+00 -4.762658e+01 -1.378222e+00 -5.397093e+01 -9.778385e-01 -6.044885e+01 -5.702381e-01 -6.698619e+01 -1.304313e-01 -7.353162e+01 3.209586e-01 -8.004833e+01 7.822890e-01 -8.651734e+01 1.249641e+00 -9.292712e+01 
9.856944e-01 -1.014848e+02 1.333231e+00 -1.080865e+02 1.570630e+00 1.085032e+02 2.029337e+00 1.021507e+02 2.360893e+00 9.584755e+01 2.627923e+00 8.952481e+01 2.881130e+00 8.311080e+01 3.126812e+00 7.644986e+01 3.056203e+00 6.950362e+01 2.985735e+00 6.241502e+01 2.703187e+00 5.508797e+01 2.568670e+00 4.772497e+01 2.471766e+00 4.055351e+01 2.043957e+00 3.309253e+01 1.698319e+00 2.548459e+01 1.588491e+00 1.830787e+01 1.193414e+00 1.105242e+01 6.046016e-01 3.441499e+00 4.636177e-01 -3.703651e+00 6.902943e-02 -1.083225e+01 -7.354327e-01 -1.854460e+01 -9.245497e-01 -2.582144e+01 -1.244322e+00 -3.297017e+01 -1.863030e+00 -4.053345e+01 -1.942272e+00 -4.762599e+01 -1.754188e+00 -5.462274e+01 -1.414752e+00 -6.134727e+01 -1.066785e+00 -6.805470e+01 -6.744329e-01 -7.477209e+01 -2.609558e-01 -8.148418e+01 1.620007e-01 -8.817820e+01 5.838459e-01 -9.484631e+01 
9.622818e-01 -1.018554e+02 1.141433e+00 -1.087151e+02 1.190705e+00 1.097024e+02 1.755261e+00 1.030551e+02 2.182836e+00 9.650083e+01 2.527434e+00 8.995676e+01 2.818933e+00 8.334350e+01 3.015002e+00 7.658010e+01 2.887616e+00 6.959854e+01 2.876384e+00 6.247891e+01 2.659896e+00 5.521082e+01 2.423723e+00 4.789476e+01 2.313146e+00 4.065107e+01 1.987778e+00 3.328942e+01 1.559103e+00 2.582790e+01 1.419681e+00 1.854397e+01 1.155214e+00 1.125763e+01 6.221223e-01 3.794399e+00 4.468524e-01 -3.500200e+00 2.140479e-01 -1.076109e+01 -3.943800e-01 -1.827490e+01 -6.465897e-01 -2.563396e+01 -8.366127e-01 -3.286996e+01 -1.314650e+00 -4.021892e+01 -1.511884e+00 -4.740335e+01 -1.132610e+00 -5.434834e+01 -8.250943e-01 -6.113277e+01 -5.446435e-01 -6.787625e+01 -2.386394e-01 -7.463204e+01 8.362947e-02 -8.140901e+01 4.043312e-01 -8.820493e+01 7.050395e-01 -9.501918e+01 
2.365477e-01 -1.039650e+02 3.280503e-01 -1.111360e+02 2.634720e-01 1.116753e+02 9.630494e-01 1.046802e+02 1.506731e+00 9.781048e+01 1.946846e+00 9.098364e+01 2.319862e+00 8.412492e+01 2.603473e+00 7.718256e+01 2.613243e+00 7.020554e+01 2.592460e+00 6.294466e+01 2.429186e+00 5.550299e+01 2.296275e+00 4.815543e+01 2.180332e+00 4.083273e+01 1.872215e+00 3.330444e+01 1.563130e+00 2.583087e+01 1.386404e+00 1.852372e+01 1.058283e+00 1.110029e+01 6.165008e-01 3.629064e+00 3.796261e-01 -3.632978e+00 2.325072e-02 -1.099571e+01 -5.241300e-01 -1.854751e+01 -8.143276e-01 -2.586713e+01 -1.118945e+00 -3.320238e+01 -1.538217e+00 -4.065968e+01 -1.669104e+00 -4.781872e+01 -1.543495e+00 -5.501297e+01 -1.272233e+00 -6.199315e+01 -1.024567e+00 -6.890221e+01 -7.562303e-01 -7.582930e+01 -4.740993e-01 -8.279583e+01 -1.986931e-01 -8.980419e+01 4.761363e-02 -9.685759e+01 
2.060343e-01 -1.042965e+02 1.403477e-01 -1.116965e+02 -1.066512e-01 1.128759e+02 6.917399e-01 1.056130e+02 1.316218e+00 9.851145e+01 1.815992e+00 9.149377e+01 2.225965e+00 8.449337e+01 2.533676e+00 7.744683e+01 2.577491e+00 7.036988e+01 2.532826e+00 6.307468e+01 2.387061e+00 5.564362e+01 2.238543e+00 4.830291e+01 2.084260e+00 4.099631e+01 1.808273e+00 3.350503e+01 1.520470e+00 2.605430e+01 1.309834e+00 1.875250e+01 1.041437e+00 1.133883e+01 6.849704e-01 3.864327e+00 4.473861e-01 -3.422296e+00 1.811958e-01 -1.079880e+01 -2.382459e-01 -1.834769e+01 -5.236298e-01 -2.567216e+01 -7.679832e-01 -3.300700e+01 -1.104282e+00 -4.045480e+01 -1.248367e+00 -4.765405e+01 -1.077910e+00 -5.481831e+01 -8.099397e-01 -6.178057e+01 -5.907841e-01 -6.870845e+01 -3.753887e-01 -7.567968e+01 -1.665294e-01 -8.271510e+01 1.693557e-02 -8.982225e+01 1.512065e-01 -9.701076e+01 
-5.044193e-01 -1.062725e+02 -6.607183e-01 -1.139498e+02 -1.025084e+00 1.147587e+02 -9.953909e-02 1.071890e+02 6.328705e-01 9.981391e+01 1.226882e+00 9.256565e+01 1.733493e+00 8.537796e+01 2.171905e+00 7.815085e+01 2.372815e+00 7.097249e+01 2.274831e+00 6.354179e+01 2.163435e+00 5.595328e+01 2.116179e+00 4.854318e+01 1.943960e+00 4.120704e+01 1.663604e+00 3.356315e+01 1.480878e+00 2.602361e+01 1.226634e+00 1.874724e+01 9.232817e-01 1.124586e+01 6.351054e-01 3.664889e+00 3.431593e-01 -3.559125e+00 1.756155e-02 -1.097336e+01 -3.779051e-01 -1.868386e+01 -7.138362e-01 -2.596512e+01 -1.026957e+00 -3.335764e+01 -1.352129e+00 -4.101773e+01 -1.524791e+00 -4.824968e+01 -1.512135e+00 -5.556075e+01 -1.269349e+00 -6.260750e+01 -1.072669e+00 -6.967128e+01 -8.780715e-01 -7.680973e+01 -7.020686e-01 -8.402870e+01 -5.639580e-01 -9.133501e+01 -4.872725e-01 -9.874243e+01 
-5.298348e-01 -1.065300e+02 -8.308137e-01 -1.144068e+02 -1.367240e+00 1.159052e+02 -3.515848e-01 1.081019e+02 4.472026e-01 1.005236e+02 1.082085e+00 9.310869e+01 1.604295e+00 8.580409e+01 2.071977e+00 7.859006e+01 2.598055e+00 7.105817e+01 2.169756e+00 6.372248e+01 2.108009e+00 5.614518e+01 2.187000e+00 4.862969e+01 1.853693e+00 4.141130e+01 1.568246e+00 3.381395e+01 1.587138e+00 2.611136e+01 1.167114e+00 1.895584e+01 8.776603e-01 1.156640e+01 8.299881e-01 3.774837e+00 4.189382e-01 -3.368912e+00 1.394446e-01 -1.063416e+01 -3.435838e-02 -1.856291e+01 -4.610857e-01 -2.580099e+01 -7.592265e-01 -3.305645e+01 -9.494305e-01 -4.082753e+01 -1.222467e+00 -4.828937e+01 -1.163119e+00 -5.539583e+01 -8.945745e-01 -6.235742e+01 -7.046177e-01 -6.944044e+01 -5.433097e-01 -7.662827e+01 -4.252661e-01 -8.391612e+01 -3.668150e-01 -9.131441e+01 -3.906762e-01 -9.884306e+01 
-1.210435e+00 -1.083554e+02 -1.598884e+00 -1.164755e+02 -2.245830e+00 1.176479e+02 -1.114748e+00 1.095755e+02 -2.204926e-01 1.017572e+02 4.913924e-01 9.415462e+01 1.079009e+00 8.677508e+01 1.656913e+00 7.976441e+01 2.687513e+00 7.145721e+01 1.822239e+00 6.425016e+01 1.923011e+00 5.653802e+01 2.292146e+00 4.869588e+01 1.575631e+00 4.169809e+01 1.299744e+00 3.402897e+01 1.845822e+00 2.585655e+01 9.164785e-01 1.895431e+01 5.403533e-01 1.172099e+01 1.098820e+00 3.353389e+00 2.118801e-01 -3.553318e+00 -2.403837e-01 -1.051501e+01 1.170201e-01 -1.912161e+01 -6.631930e-01 -2.619997e+01 -1.271131e+00 -3.322698e+01 -1.057815e+00 -4.143961e+01 -1.265665e+00 -4.930573e+01 -1.869175e+00 -5.604632e+01 -1.450849e+00 -6.304230e+01 -1.179875e+00 -7.031485e+01 -1.015286e+00 -7.768368e+01 -9.286558e-01 -8.514715e+01 -9.173832e-01 -9.272739e+01 -9.999213e-01 -1.004521e+02 
-1.217746e+00 -1.085136e+02 -1.735634e+00 -1.168038e+02 -2.535341e+00 1.186908e+02 -1.324130e+00 1.104210e+02 -3.681158e-01 1.024344e+02 3.883610e-01 9.469704e+01 9.968643e-01 8.721100e+01 1.533548e+00 8.003891e+01 2.231114e+00 7.175307e+01 1.861864e+00 6.442716e+01 1.977454e+00 5.668984e+01 2.213646e+00 4.886727e+01 1.651117e+00 4.181491e+01 1.404567e+00 3.416276e+01 1.808445e+00 2.608138e+01 1.025088e+00 1.912932e+01 6.961146e-01 1.185792e+01 1.160711e+00 3.612572e+00 4.095460e-01 -3.339990e+00 1.866220e-02 -1.037886e+01 3.394448e-01 -1.883412e+01 -3.153007e-01 -2.593435e+01 -8.644289e-01 -3.302835e+01 -6.707985e-01 -4.113050e+01 -8.063992e-01 -4.885479e+01 -1.506157e+00 -5.569519e+01 -1.101644e+00 -6.274518e+01 -8.384420e-01 -7.005357e+01 -7.032996e-01 -7.746638e+01 -6.674300e-01 -8.498892e+01 -7.264652e-01 -9.264813e+01 -8.983479e-01 -1.004766e+02 
-1.856188e+00 -1.101771e+02 -2.452810e+00 -1.186775e+02 -3.345837e+00 1.202534e+02 -2.036127e+00 1.117488e+02 -9.902745e-01 1.035414e+02 -1.499685e-01 9.558612e+01 5.366393e-01 8.783284e+01 1.096919e+00 8.016679e+01 1.333828e+00 7.231592e+01 1.574902e+00 6.463514e+01 1.619683e+00 5.686522e+01 1.632816e+00 4.916978e+01 1.553674e+00 4.173893e+01 1.347873e+00 3.406432e+01 1.240022e+00 2.632108e+01 1.024651e+00 1.898945e+01 7.870926e-01 1.149959e+01 6.080555e-01 3.748583e+00 3.482474e-01 -3.547651e+00 9.749705e-02 -1.095112e+01 -1.720148e-01 -1.879407e+01 -4.719658e-01 -2.617022e+01 -7.515328e-01 -3.360552e+01 -1.023421e+00 -4.137541e+01 -1.247689e+00 -4.888569e+01 -1.404190e+00 -5.623878e+01 -1.247969e+00 -6.353177e+01 -1.151416e+00 -7.094285e+01 -1.103360e+00 -7.847671e+01 -1.126184e+00 -8.614009e+01 -1.239361e+00 -9.395471e+01 -1.469705e+00 -1.019530e+02 
-1.832770e+00 -1.102170e+02 -2.541992e+00 -1.188579e+02 -3.568367e+00 1.211424e+02 -2.193541e+00 1.124699e+02 -1.097953e+00 1.041096e+02 -2.226099e-01 9.600982e+01 4.847917e-01 8.810360e+01 1.058164e+00 8.026436e+01 1.412403e+00 7.260639e+01 1.544551e+00 6.480268e+01 1.613991e+00 5.697169e+01 1.665663e+00 4.938533e+01 1.574257e+00 4.188643e+01 1.409773e+00 3.416176e+01 1.318127e+00 2.658362e+01 1.122656e+00 1.921060e+01 9.176665e-01 1.163723e+01 7.586686e-01 4.040812e+00 5.459981e-01 -3.270174e+00 3.265137e-01 -1.076579e+01 9.602768e-02 -1.847322e+01 -1.429319e-01 -2.582265e+01 -3.810168e-01 -3.331226e+01 -6.025817e-01 -4.102154e+01 -7.623471e-01 -4.836198e+01 -8.882973e-01 -5.587416e+01 -8.094618e-01 -6.321869e+01 -7.774212e-01 -7.065078e+01 -7.840070e-01 -7.821454e+01 -8.627544e-01 -8.592301e+01 -1.041483e+00 -9.380070e+01 -1.351116e+00 -1.018833e+02 
-2.420596e+00 -1.117113e+02 -3.198106e+00 -1.205292e+02 -4.303654e+00 1.224870e+02 -2.849432e+00 1.136120e+02 -1.683728e+00 1.050534e+02 -7.526720e-01 9.675597e+01 -1.463445e-02 8.865628e+01 5.477307e-01 8.068585e+01 9.029888e-01 7.286318e+01 1.136401e+00 6.501805e+01 1.251064e+00 5.719519e+01 1.311496e+00 4.950435e+01 1.309448e+00 4.187995e+01 1.196604e+00 3.419696e+01 1.066392e+00 2.658759e+01 9.449374e-01 1.907902e+01 7.653226e-01 1.151255e+01 5.436565e-01 3.943156e+00 3.690464e-01 -3.512102e+00 1.609531e-01 -1.103616e+01 -1.192606e-01 -1.865008e+01 -3.349757e-01 -2.613582e+01 -5.461322e-01 -3.366945e+01 -8.089126e-01 -4.129627e+01 -9.913634e-01 -4.879924e+01 -1.045343e+00 -5.636725e+01 -1.042129e+00 -6.388155e+01 -1.075943e+00 -7.145535e+01 -1.147118e+00 -7.914449e+01 -1.282738e+00 -8.697962e+01 -1.514604e+00 -9.499169e+01 -1.878876e+00 -1.032193e+02 
-2.356185e+00 -1.116181e+02 -3.228676e+00 -1.205469e+02 -4.446560e+00 1.231862e+02 -2.942183e+00 1.141764e+02 -1.737736e+00 1.054945e+02 -7.783328e-01 9.708574e+01 -2.086491e-02 8.889137e+01 5.571161e-01 8.086281e+01 9.384229e-01 7.301783e+01 1.166687e+00 6.514975e+01 1.292323e+00 5.732219e+01 1.368546e+00 4.964036e+01 1.367819e+00 4.200635e+01 1.275479e+00 3.434048e+01 1.173690e+00 2.677076e+01 1.062692e+00 1.926282e+01 9.015645e-01 1.170709e+01 7.232540e-01 4.184794e+00 5.725764e-01 -3.267039e+00 3.859195e-01 -1.078539e+01 1.611082e-01 -1.834268e+01 -1.719824e-02 -2.581390e+01 -2.051159e-01 -3.333805e+01 -4.156302e-01 -4.091417e+01 -5.559531e-01 -4.839357e+01 -6.384619e-01 -5.596690e+01 -6.572745e-01 -6.351057e+01 -7.192934e-01 -7.110771e+01 -8.297625e-01 -7.882148e+01 -1.012992e+00 -8.669018e+01 -1.301638e+00 -9.474937e+01 -1.733791e+00 -1.030412e+02 
-2.888220e+00 -1.129385e+02 -3.817371e+00 -1.220111e+02 -5.101774e+00 1.242927e+02 -3.534824e+00 1.151192e+02 -2.277330e+00 1.062781e+02 -1.277050e+00 9.771804e+01 -4.932831e-01 8.938791e+01 9.953071e-02 8.124482e+01 5.107818e-01 7.325770e+01 7.875611e-01 6.533543e+01 9.566227e-01 5.747927e+01 1.057040e+00 4.971948e+01 1.090630e+00 4.202105e+01 1.040279e+00 3.434488e+01 9.531648e-01 2.672544e+01 8.555609e-01 1.915502e+01 7.117341e-01 1.158675e+01 5.359741e-01 4.035597e+00 3.773359e-01 -3.481100e+00 1.918709e-01 -1.101804e+01 -2.901395e-02 -1.857931e+01 -2.180282e-01 -2.611383e+01 -4.067165e-01 -3.366963e+01 -6.137243e-01 -4.126320e+01 -7.686933e-01 -4.884635e+01 -8.567186e-01 -5.647522e+01 -9.222486e-01 -6.412343e+01 -1.024055e+00 -7.183640e+01 -1.177062e+00 -7.966295e+01 -1.404116e+00 -8.764358e+01 -1.737102e+00 -9.581791e+01 -2.215511e+00 -1.042312e+02 
-2.774846e+00 -1.127008e+02 -3.780710e+00 -1.218540e+02 -5.155424e+00 1.247775e+02 -3.553209e+00 1.155057e+02 -2.268914e+00 1.065769e+02 -1.249084e+00 9.794191e+01 -4.516023e-01 8.955304e+01 1.519645e-01 8.137044e+01 5.755424e-01 7.335674e+01 8.578230e-01 6.542371e+01 1.034767e+00 5.756991e+01 1.143204e+00 4.981726e+01 1.181672e+00 4.212797e+01 1.146209e+00 3.447289e+01 1.078830e+00 2.687849e+01 9.937072e-01 1.932614e+01 8.694015e-01 1.178143e+01 7.251615e-01 4.260499e+00 5.889619e-01 -3.236150e+00 4.287406e-01 -1.074941e+01 2.481344e-01 -1.827466e+01 8.934349e-02 -2.578481e+01 -7.406267e-02 -3.331709e+01 -2.452286e-01 -4.087712e+01 -3.777864e-01 -4.843891e+01 -4.783331e-01 -5.605557e+01 -5.605062e-01 -6.370764e+01 -6.813741e-01 -7.143024e+01 -8.618043e-01 -7.927047e+01 -1.125227e+00 -8.727159e+01 -1.503551e+00 -9.547650e+01 -2.036851e+00 -1.039335e+02 
-3.247392e+00 -1.138449e+02 -4.296329e+00 -1.231090e+02 -5.722315e+00 1.256346e+02 -4.073241e+00 1.162393e+02 -2.749887e+00 1.071910e+02 -1.698995e+00 9.844330e+01 -8.777305e-01 8.995078e+01 -2.536051e-01 8.167110e+01 1.981901e-01 7.356051e+01 5.143170e-01 6.556710e+01 7.237331e-01 5.766985e+01 8.545612e-01 4.986375e+01 9.158742e-01 4.212871e+01 9.088861e-01 3.444444e+01 8.587278e-01 2.681080e+01 7.819980e-01 1.921840e+01 6.693945e-01 1.164803e+01 5.314372e-01 4.096052e+00 3.893924e-01 -3.439444e+00 2.289347e-01 -1.097830e+01 5.124605e-02 -1.852746e+01 -1.165837e-01 -2.607829e+01 -2.842945e-01 -3.364731e+01 -4.550472e-01 -4.124759e+01 -6.002415e-01 -4.887612e+01 -7.175864e-01 -5.655196e+01 -8.328641e-01 -6.428134e+01 -9.843771e-01 -7.209304e+01 -1.195479e+00 -8.002570e+01 -1.490891e+00 -8.812010e+01 -1.902574e+00 -9.641984e+01 -2.471115e+00 -1.049748e+02 
-3.078619e+00 -1.134537e+02 -4.185493e+00 -1.227676e+02 -5.679181e+00 1.258860e+02 -4.010430e+00 1.164292e+02 -2.673229e+00 1.073284e+02 -1.613036e+00 9.853834e+01 -7.857925e-01 9.001458e+01 -1.572025e-01 8.171480e+01 2.996548e-01 7.359397e+01 6.192475e-01 6.560131e+01 8.327637e-01 5.771413e+01 9.677802e-01 4.992338e+01 1.033825e+00 4.220762e+01 1.037212e+00 3.454815e+01 1.000820e+00 2.694171e+01 9.371027e-01 1.937590e+01 8.424269e-01 1.183421e+01 7.281403e-01 4.312902e+00 6.078880e-01 -3.193975e+00 4.720520e-01 -1.070277e+01 3.247256e-01 -1.821843e+01 1.832388e-01 -2.573873e+01 3.952556e-02 -3.327810e+01 -1.061528e-01 -4.084685e+01 -2.363890e-01 -4.844834e+01 -3.560042e-01 -5.610332e+01 -4.809379e-01 -6.382073e+01 -6.458323e-01 -7.162687e+01 -8.761327e-01 -7.955903e+01 -1.197768e+00 -8.765874e+01 -1.643091e+00 -9.597137e+01 -2.252965e+00 -1.045489e+02 
-3.488684e+00 -1.144214e+02 -4.622991e+00 -1.238137e+02 -6.149454e+00 1.264855e+02 -4.449808e+00 1.169442e+02 -3.086808e+00 1.077609e+02 -2.005283e+00 9.889192e+01 -1.159892e+00 9.029314e+01 -5.135606e-01 8.192158e+01 -3.494371e-02 7.373406e+01 3.088494e-01 6.569016e+01 5.456299e-01 5.776204e+01 6.989979e-01 4.993153e+01 7.823467e-01 4.218015e+01 8.045816e-01 3.449085e+01 7.817080e-01 2.685330e+01 7.256995e-01 1.925685e+01 6.385150e-01 1.168858e+01 5.282071e-01 4.139746e+00 4.053140e-01 -3.396619e+00 2.680204e-01 -1.093195e+01 1.197105e-01 -1.847464e+01 -2.840127e-02 -2.602834e+01 -1.776871e-01 -3.360375e+01 -3.278152e-01 -4.121311e+01 -4.693909e-01 -4.886486e+01 -6.053502e-01 -5.657251e+01 -7.537722e-01 -6.435109e+01 -9.417577e-01 -7.222584e+01 -1.194182e+00 -8.023022e+01 -1.537802e+00 -8.840326e+01 -2.005436e+00 -9.678955e+01 -2.638403e+00 -1.054412e+02 
-3.259388e+00 -1.138696e+02 -4.432666e+00 -1.232807e+02 -6.003971e+00 1.264880e+02 -4.301169e+00 1.169219e+02 -2.938146e+00 1.077205e+02 -1.858614e+00 9.884013e+01 -1.016310e+00 9.023693e+01 -3.730460e-01 8.186770e+01 1.035407e-01 7.368908e+01 4.457814e-01 6.566074e+01 6.821247e-01 5.775403e+01 8.361884e-01 4.994896e+01 9.221794e-01 4.222594e+01 9.510357e-01 3.456775e+01 9.379898e-01 2.696285e+01 8.937224e-01 1.939939e+01 8.220858e-01 1.186489e+01 7.310260e-01 4.350623e+00 6.283787e-01 -3.151439e+00 5.135938e-01 -1.065189e+01 3.902235e-01 -1.815852e+01 2.655814e-01 -2.567679e+01 1.380704e-01 -3.321723e+01 7.848982e-03 -4.079139e+01 -1.206908e-01 -4.840986e+01 -2.532566e-01 -5.608802e+01 -4.047999e-01 -6.384218e+01 -6.001352e-01 -7.169717e+01 -8.643919e-01 -7.968597e+01 -1.224939e+00 -8.784786e+01 -1.714908e+00 -9.622830e+01 -2.375722e+00 -1.048807e+02 
-3.604887e+00 -1.146626e+02 -4.788347e+00 -1.241199e+02 -6.371552e+00 1.268252e+02 -4.654480e+00 1.172123e+02 -3.279276e+00 1.079636e+02 -2.189108e+00 9.903633e+01 -1.336634e+00 9.038669e+01 -6.820518e-01 8.197192e+01 -1.913087e-01 7.375076e+01 1.668645e-01 6.568620e+01 4.189691e-01 5.774847e+01 5.866986e-01 4.991456e+01 6.853566e-01 4.216475e+01 7.266594e-01 3.448191e+01 7.231384e-01 2.685258e+01 6.848292e-01 1.926492e+01 6.174972e-01 1.170727e+01 5.280063e-01 4.169650e+00 4.232159e-01 -3.356643e+00 3.055481e-01 -1.088129e+01 1.785788e-01 -1.841330e+01 4.768996e-02 -2.596040e+01 -8.637323e-02 -3.353280e+01 -2.234220e-01 -4.114245e+01 -3.621526e-01 -4.880105e+01 -5.080954e-01 -5.652261e+01 -6.759241e-01 -6.432475e+01 -8.870957e-01 -7.223167e+01 -1.165569e+00 -8.027432e+01 -1.538778e+00 -8.849001e+01 -2.040120e+00 -9.692288e+01 -2.711331e+00 -1.056256e+02 
-3.311440e+00 -1.139452e+02 -4.515088e+00 -1.233898e+02 -6.120416e+00 1.265679e+02 -4.417493e+00 1.169669e+02 -3.056811e+00 1.077341e+02 -1.980761e+00 9.882631e+01 -1.141431e+00 9.019959e+01 -4.984170e-01 8.181093e+01 -1.719775e-02 7.361901e+01 3.333762e-01 6.558672e+01 5.800135e-01 5.768390e+01 7.445450e-01 4.988673e+01 8.428216e-01 4.217485e+01 8.874004e-01 3.453081e+01 8.906054e-01 2.694067e+01 8.620480e-01 1.939211e+01 8.079765e-01 1.187357e+01 7.349503e-01 4.375193e+00 6.486732e-01 -3.111900e+00 5.515294e-01 -1.059706e+01 4.465281e-01 -1.808896e+01 3.371602e-01 -2.559578e+01 2.233301e-01 -3.312774e+01 1.042795e-01 -4.069664e+01 -2.108010e-02 -4.831507e+01 -1.595844e-01 -5.599822e+01 -3.248944e-01 -6.376444e+01 -5.372569e-01 -7.163803e+01 -8.203155e-01 -7.964984e+01 -1.201547e+00 -8.783727e+01 -1.714334e+00 -9.624484e+01 -2.400240e+00 -1.049258e+02 
-3.591646e+00 -1.145667e+02 -4.787161e+00 -1.240255e+02 -6.382105e+00 1.266423e+02 -4.682095e+00 1.170312e+02 -3.323386e+00 1.077856e+02 -2.248243e+00 9.886215e+01 -1.408080e+00 9.021728e+01 -7.617124e-01 8.180857e+01 -2.741491e-01 7.359610e+01 8.492690e-02 6.554426e+01 3.408967e-01 5.762301e+01 5.143628e-01 4.980773e+01 6.210868e-01 4.207786e+01 6.735122e-01 3.441602e+01 6.827034e-01 2.680779e+01 6.576980e-01 1.924082e+01 6.051974e-01 1.170378e+01 5.314114e-01 4.186517e+00 4.418512e-01 -3.320246e+00 3.400883e-01 -1.082586e+01 2.294347e-01 -1.833958e+01 1.130325e-01 -2.587052e+01 -8.272260e-03 -3.342910e+01 -1.350743e-01 -4.102710e+01 -2.694244e-01 -4.867723e+01 -4.180426e-01 -5.639428e+01 -5.938442e-01 -6.419657e+01 -8.152556e-01 -7.210755e+01 -1.104789e+00 -8.015653e+01 -1.489513e+00 -8.837918e+01 -2.002715e+00 -9.681845e+01 -2.685986e+00 -1.055263e+02 