# vtk DataFile Version 2.0
Comment goes here
ASCII

DATASET STRUCTURED_POINTS
FIELD FieldData 1
TIME 1 1 double
0.00100000
DIMENSIONS    64   64   1

ORIGIN    0.000   0.000   0.000
SPACING   0.03125 0.03125   1.000

POINT_DATA   4096
VECTORS u double

-0.006198 0.000003 0.000000 0.024562 0.000001 0.000000 -0.023909 0.000001 0.000000 0.031068 0.000000 0.000000 -0.020796 0.000001 0.000000 0.027686 0.000002 0.000000 -0.021616 -0.000003 0.000000 0.022299 0.000003 0.000000 -0.011112 0.000001 0.000000 0.009627 -0.000001 0.000000 -0.002253 0.000005 0.000000 0.002352 -0.000010 0.000000 0.000760 -0.000005 0.000000 0.000061 -0.000020 0.000000 0.001213 -0.000010 0.000000 -0.001919 -0.000001 0.000000 0.002246 -0.000046 0.000000 -0.003523 0.000031 0.000000 0.002554 0.000002 0.000000 -0.004788 -0.000034 0.000000 0.003004 0.000032 0.000000 -0.005790 -0.000029 0.000000 0.003287 -0.000001 0.000000 -0.006449 0.000047 0.000000 0.003415 -0.000014 0.000000 -0.006948 -0.000000 0.000000 0.003615 0.000014 0.000000 -0.007352 -0.000026 0.000000 0.003805 0.000015 0.000000 -0.007642 0.000016 0.000000 0.003875 -0.000018 0.000000 -0.007810 0.000008 0.000000 0.003929 -0.000000 0.000000 -0.007946 -0.000019 0.000000 0.003995 0.000016 0.000000 -0.008039 -0.000001 0.000000 0.004007 -0.000016 0.000000 -0.008021 0.000016 0.000000 0.003959 -0.000008 0.000000 -0.007962 -0.000007 0.000000 0.003921 0.000014 0.000000 -0.007869 -0.000018 0.000000 0.003878 -0.000006 0.000000 -0.007684 0.000018 0.000000 0.003746 -0.000019 0.000000 -0.007385 0.000008 0.000000 0.003571 0.000005 0.000000 -0.007001 -0.000020 0.000000 0.003438 0.000020 0.000000 -0.006511 0.000009 0.000000 0.003215 0.000001 0.000000 -0.005806 0.000009 0.000000 0.002904 0.000001 0.000000 -0.004968 0.000001 0.000000 0.002410 -0.000001 0.000000 -0.003910 0.000003 0.000000 0.001802 -0.000001 0.000000 -0.002668 -0.000002 0.000000 0.000803 0.000002 0.000000 -0.000418 -0.000001 0.000000 -0.001431 -0.000001 0.000000 0.001460 0.000001 0.000000 -0.002593 -0.000002 0.000000 0.002740 -0.000001 0.000000 
-0.009160 -0.010907 0.000000 0.015504 0.008856 0.000000 -0.021979 -0.003253 0.000000 0.025562 -0.001556 0.000000 -0.032105 0.001692 0.000000 0.025560 0.000412 0.000000 -0.020526 0.002692 0.000000 0.013517 -0.005250 0.000000 -0.011959 0.006337 0.000000 0.006403 -0.004429 0.000000 -0.005265 0.003643 0.000000 0.001495 -0.001516 0.000000 -0.001773 0.001146 0.000000 -0.000746 -0.000243 0.000000 0.000071 0.000981 0.000000 -0.002137 -0.000498 0.000000 0.001630 0.000758 0.000000 -0.003195 -0.000146 0.000000 0.002788 0.000646 0.000000 -0.003991 -0.000266 0.000000 0.003588 0.000531 0.000000 -0.004608 -0.000133 0.000000 0.004099 0.000309 0.000000 -0.004989 -0.000046 0.000000 0.004674 0.000246 0.000000 -0.005310 -0.000113 0.000000 0.005079 0.000217 0.000000 -0.005570 -0.000095 0.000000 0.005293 0.000134 0.000000 -0.005686 -0.000030 0.000000 0.005533 0.000082 0.000000 -0.005841 -0.000035 0.000000 0.005706 0.000073 0.000000 -0.005934 -0.000032 0.000000 0.005741 0.000041 0.000000 -0.005926 -0.000005 0.000000 0.005763 -0.000007 0.000000 -0.005975 0.000020 0.000000 0.005782 -0.000032 0.000000 -0.005944 0.000024 0.000000 0.005672 -0.000050 0.000000 -0.005832 0.000019 0.000000 0.005494 -0.000085 0.000000 -0.005744 0.000060 0.000000 0.005361 -0.000156 0.000000 -0.005575 0.000099 0.000000 0.005090 -0.000200 0.000000 -0.005281 0.000067 0.000000 0.004681 -0.000231 0.000000 -0.004933 0.000108 0.000000 0.004267 -0.000347 0.000000 -0.004489 0.000157 0.000000 0.003695 -0.000419 0.000000 -0.003875 0.000250 0.000000 0.002910 -0.000533 0.000000 -0.003078 0.000305 0.000000 0.001879 -0.000621 0.000000 -0.002037 0.000498 0.000000 0.000493 -0.001124 0.000000 -0.000294 0.001116 0.000000 -0.001427 -0.000940 0.000000 0.002013 0.000582 0.000000 -0.003503 -0.000641 0.000000 0.004477 0.001803 0.000000 
-0.005378 -0.011024 0.000000 0.000595 0.012820 0.000000 -0.006766 -0.010057 0.000000 0.003918 0.010126 0.000000 -0.016374 0.000003 0.000000 0.005625 -0.011576 0.000000 -0.007276 0.012041 0.000000 0.000811 -0.008564 0.000000 -0.004513 0.007115 0.000000 0.001843 -0.006694 0.000000 -0.002088 0.004913 0.000000 0.001395 -0.003503 0.000000 0.000864 0.002237 0.000000 0.000241 -0.001863 0.000000 0.003505 0.001381 0.000000 -0.000278 -0.001561 0.000000 0.005216 0.001012 0.000000 -0.000636 -0.001126 0.000000 0.006722 0.000798 0.000000 -0.000860 -0.000834 0.000000 0.007699 0.000649 0.000000 -0.001019 -0.000541 0.000000 0.008480 0.000381 0.000000 -0.001182 -0.000528 0.000000 0.009196 0.000307 0.000000 -0.001301 -0.000405 0.000000 0.009668 0.000274 0.000000 -0.001380 -0.000240 0.000000 0.009985 0.000131 0.000000 -0.001432 -0.000224 0.000000 0.010281 0.000137 0.000000 -0.001501 -0.000164 0.000000 0.010472 0.000092 0.000000 -0.001528 -0.000054 0.000000 0.010552 0.000008 0.000000 -0.001520 -0.000023 0.000000 0.010586 0.000033 0.000000 -0.001545 -0.000003 0.000000 0.010578 -0.000039 0.000000 -0.001533 0.000103 0.000000 0.010465 -0.000099 0.000000 -0.001484 0.000160 0.000000 0.010259 -0.000095 0.000000 -0.001440 0.000150 0.000000 0.010028 -0.000188 0.000000 -0.001386 0.000279 0.000000 0.009696 -0.000289 0.000000 -0.001284 0.000388 0.000000 0.009183 -0.000328 0.000000 -0.001145 0.000424 0.000000 0.008578 -0.000443 0.000000 -0.001005 0.000581 0.000000 0.007794 -0.000613 0.000000 -0.000778 0.000786 0.000000 0.006808 -0.000799 0.000000 -0.000477 0.001033 0.000000 0.005494 -0.001041 0.000000 -0.000004 0.001385 0.000000 0.003848 -0.001742 0.000000 0.000496 0.001918 0.000000 0.002118 -0.002308 0.000000 0.001751 0.002077 0.000000 -0.000863 -0.002466 0.000000 0.004031 0.005656 0.000000 
-0.005870 -0.007471 0.000000 -0.003986 0.010244 0.000000 -0.007321 -0.006576 0.000000 -0.009734 0.008052 0.000000 -0.015670 -0.000015 0.000000 -0.009778 -0.008686 0.000000 -0.008712 0.007506 0.000000 -0.002448 -0.008013 0.000000 -0.004130 0.005305 0.000000 0.000150 -0.006854 0.000000 -0.001211 0.004091 0.000000 0.001505 -0.004468 0.000000 0.001960 0.002300 0.000000 0.001411 -0.002884 0.000000 0.004770 0.001500 0.000000 0.001206 -0.002209 0.000000 0.006693 0.001117 0.000000 0.001068 -0.001652 0.000000 0.008194 0.000870 0.000000 0.000992 -0.001244 0.000000 0.009358 0.000690 0.000000 0.000969 -0.000914 0.000000 0.010336 0.000472 0.000000 0.000864 -0.000762 0.000000 0.011004 0.000364 0.000000 0.000802 -0.000585 0.000000 0.011520 0.000297 0.000000 0.000789 -0.000413 0.000000 0.011962 0.000186 0.000000 0.000723 -0.000326 0.000000 0.012246 0.000151 0.000000 0.000713 -0.000226 0.000000 0.012430 0.000100 0.000000 0.000709 -0.000112 0.000000 0.012570 0.000033 0.000000 0.000678 -0.000039 0.000000 0.012613 0.000018 0.000000 0.000703 0.000028 0.000000 0.012553 -0.000043 0.000000 0.000710 0.000136 0.000000 0.012456 -0.000099 0.000000 0.000709 0.000226 0.000000 0.012276 -0.000129 0.000000 0.000758 0.000290 0.000000 0.011945 -0.000211 0.000000 0.000788 0.000431 0.000000 0.011549 -0.000301 0.000000 0.000802 0.000580 0.000000 0.011039 -0.000370 0.000000 0.000862 0.000713 0.000000 0.010310 -0.000486 0.000000 0.000928 0.000941 0.000000 0.009395 -0.000647 0.000000 0.000989 0.001237 0.000000 0.008234 -0.000834 0.000000 0.001077 0.001619 0.000000 0.006726 -0.001094 0.000000 0.001221 0.002145 0.000000 0.004755 -0.001624 0.000000 0.001145 0.002845 0.000000 0.002159 -0.002195 0.000000 0.001081 0.003563 0.000000 -0.001990 -0.002922 0.000000 0.001718 0.006318 0.000000 
-0.002314 -0.005320 0.000000 -0.003298 0.014271 0.000000 -0.005032 -0.004309 0.000000 -0.006932 0.018476 0.000000 -0.013919 0.000047 0.000000 -0.006955 -0.018534 0.000000 -0.005691 0.004710 0.000000 -0.002525 -0.013146 0.000000 -0.001345 0.004517 0.000000 -0.000528 -0.009613 0.000000 0.001232 0.003558 0.000000 0.000701 -0.006674 0.000000 0.003729 0.002332 0.000000 0.000916 -0.004673 0.000000 0.005974 0.001585 0.000000 0.000899 -0.003484 0.000000 0.007653 0.001150 0.000000 0.000869 -0.002627 0.000000 0.008976 0.000874 0.000000 0.000849 -0.001999 0.000000 0.010023 0.000672 0.000000 0.000844 -0.001518 0.000000 0.010876 0.000486 0.000000 0.000790 -0.001196 0.000000 0.011497 0.000370 0.000000 0.000752 -0.000921 0.000000 0.011977 0.000287 0.000000 0.000737 -0.000682 0.000000 0.012365 0.000198 0.000000 0.000698 -0.000507 0.000000 0.012629 0.000147 0.000000 0.000687 -0.000348 0.000000 0.012806 0.000096 0.000000 0.000681 -0.000194 0.000000 0.012925 0.000040 0.000000 0.000664 -0.000066 0.000000 0.012962 0.000007 0.000000 0.000676 0.000057 0.000000 0.012917 -0.000046 0.000000 0.000681 0.000200 0.000000 0.012820 -0.000098 0.000000 0.000685 0.000340 0.000000 0.012646 -0.000144 0.000000 0.000715 0.000481 0.000000 0.012358 -0.000217 0.000000 0.000734 0.000675 0.000000 0.011990 -0.000303 0.000000 0.000746 0.000899 0.000000 0.011513 -0.000388 0.000000 0.000779 0.001152 0.000000 0.010862 -0.000509 0.000000 0.000815 0.001496 0.000000 0.010042 -0.000674 0.000000 0.000844 0.001947 0.000000 0.009007 -0.000887 0.000000 0.000881 0.002541 0.000000 0.007691 -0.001185 0.000000 0.000922 0.003356 0.000000 0.006019 -0.001666 0.000000 0.000821 0.004515 0.000000 0.003857 -0.002244 0.000000 0.000630 0.006225 0.000000 0.000747 -0.003102 0.000000 0.000375 0.009536 0.000000 
-0.001136 -0.003799 0.000000 -0.002976 0.012962 0.000000 -0.003115 -0.002941 0.000000 -0.005251 0.016939 0.000000 -0.006042 0.000008 0.000000 -0.005218 -0.016914 0.000000 -0.003325 0.003076 0.000000 -0.002641 -0.012359 0.000000 -0.000597 0.003308 0.000000 -0.000809 -0.009431 0.000000 0.001727 0.002862 0.000000 0.000279 -0.006966 0.000000 0.003962 0.002085 0.000000 0.000665 -0.005128 0.000000 0.005959 0.001517 0.000000 0.000772 -0.003888 0.000000 0.007551 0.001147 0.000000 0.000792 -0.002975 0.000000 0.008823 0.000890 0.000000 0.000791 -0.002291 0.000000 0.009839 0.000695 0.000000 0.000783 -0.001767 0.000000 0.010659 0.000525 0.000000 0.000748 -0.001382 0.000000 0.011280 0.000403 0.000000 0.000720 -0.001066 0.000000 0.011760 0.000311 0.000000 0.000701 -0.000801 0.000000 0.012138 0.000225 0.000000 0.000673 -0.000590 0.000000 0.012405 0.000163 0.000000 0.000662 -0.000403 0.000000 0.012585 0.000106 0.000000 0.000655 -0.000231 0.000000 0.012699 0.000050 0.000000 0.000645 -0.000076 0.000000 0.012737 0.000005 0.000000 0.000652 0.000073 0.000000 0.012697 -0.000048 0.000000 0.000658 0.000234 0.000000 0.012596 -0.000103 0.000000 0.000665 0.000400 0.000000 0.012418 -0.000158 0.000000 0.000686 0.000578 0.000000 0.012140 -0.000230 0.000000 0.000704 0.000798 0.000000 0.011773 -0.000313 0.000000 0.000717 0.001057 0.000000 0.011293 -0.000404 0.000000 0.000741 0.001365 0.000000 0.010655 -0.000522 0.000000 0.000763 0.001761 0.000000 0.009847 -0.000676 0.000000 0.000778 0.002271 0.000000 0.008829 -0.000871 0.000000 0.000779 0.002935 0.000000 0.007541 -0.001136 0.000000 0.000741 0.003817 0.000000 0.005915 -0.001523 0.000000 0.000567 0.005008 0.000000 0.003870 -0.002004 0.000000 0.000223 0.006673 0.000000 0.001321 -0.002667 0.000000 -0.000501 0.009379 0.000000 
0.001268 -0.002845 0.000000 -0.002440 0.016249 0.000000 -0.001056 -0.002034 0.000000 -0.003924 0.021404 0.000000 -0.004284 0.000014 0.000000 -0.003912 -0.021251 0.000000 -0.001137 0.002133 0.000000 -0.002293 -0.015874 0.000000 0.001584 0.002686 0.000000 -0.000974 -0.011938 0.000000 0.003697 0.002470 0.000000 -0.000076 -0.008909 0.000000 0.005567 0.001946 0.000000 0.000347 -0.006671 0.000000 0.007214 0.001478 0.000000 0.000529 -0.005076 0.000000 0.008565 0.001130 0.000000 0.000612 -0.003900 0.000000 0.009661 0.000874 0.000000 0.000655 -0.003014 0.000000 0.010546 0.000680 0.000000 0.000674 -0.002338 0.000000 0.011261 0.000521 0.000000 0.000668 -0.001818 0.000000 0.011813 0.000398 0.000000 0.000660 -0.001401 0.000000 0.012242 0.000306 0.000000 0.000651 -0.001059 0.000000 0.012577 0.000225 0.000000 0.000636 -0.000775 0.000000 0.012817 0.000159 0.000000 0.000630 -0.000528 0.000000 0.012978 0.000103 0.000000 0.000625 -0.000308 0.000000 0.013079 0.000050 0.000000 0.000618 -0.000103 0.000000 0.013112 -0.000000 0.000000 0.000623 0.000097 0.000000 0.013077 -0.000052 0.000000 0.000627 0.000300 0.000000 0.012985 -0.000105 0.000000 0.000630 0.000518 0.000000 0.012824 -0.000165 0.000000 0.000642 0.000760 0.000000 0.012577 -0.000236 0.000000 0.000652 0.001042 0.000000 0.012249 -0.000316 0.000000 0.000655 0.001379 0.000000 0.011821 -0.000412 0.000000 0.000661 0.001789 0.000000 0.011258 -0.000532 0.000000 0.000661 0.002304 0.000000 0.010552 -0.000689 0.000000 0.000649 0.002965 0.000000 0.009671 -0.000888 0.000000 0.000616 0.003829 0.000000 0.008573 -0.001148 0.000000 0.000535 0.004982 0.000000 0.007210 -0.001492 0.000000 0.000339 0.006559 0.000000 0.005522 -0.001900 0.000000 -0.000033 0.008774 0.000000 0.003453 -0.002378 0.000000 -0.000758 0.011993 0.000000 
0.003120 -0.002116 0.000000 -0.002165 0.015286 0.000000 0.002040 -0.001458 0.000000 -0.003137 0.020166 0.000000 0.001329 -0.000004 0.000000 -0.003127 -0.020061 0.000000 0.002052 0.001457 0.000000 -0.002088 -0.015080 0.000000 0.003340 0.001989 0.000000 -0.001025 -0.011543 0.000000 0.004756 0.001965 0.000000 -0.000245 -0.008836 0.000000 0.006200 0.001662 0.000000 0.000196 -0.006775 0.000000 0.007554 0.001335 0.000000 0.000423 -0.005239 0.000000 0.008728 0.001064 0.000000 0.000537 -0.004071 0.000000 0.009709 0.000847 0.000000 0.000598 -0.003176 0.000000 0.010516 0.000676 0.000000 0.000623 -0.002482 0.000000 0.011178 0.000531 0.000000 0.000626 -0.001935 0.000000 0.011697 0.000412 0.000000 0.000627 -0.001495 0.000000 0.012102 0.000320 0.000000 0.000620 -0.001136 0.000000 0.012422 0.000240 0.000000 0.000607 -0.000830 0.000000 0.012652 0.000169 0.000000 0.000606 -0.000564 0.000000 0.012805 0.000111 0.000000 0.000602 -0.000331 0.000000 0.012904 0.000057 0.000000 0.000594 -0.000109 0.000000 0.012936 0.000000 0.000000 0.000600 0.000108 0.000000 0.012901 -0.000053 0.000000 0.000605 0.000325 0.000000 0.012814 -0.000106 0.000000 0.000605 0.000561 0.000000 0.012660 -0.000170 0.000000 0.000615 0.000825 0.000000 0.012422 -0.000240 0.000000 0.000623 0.001126 0.000000 0.012110 -0.000316 0.000000 0.000621 0.001486 0.000000 0.011703 -0.000409 0.000000 0.000620 0.001927 0.000000 0.011169 -0.000522 0.000000 0.000607 0.002467 0.000000 0.010509 -0.000664 0.000000 0.000579 0.003152 0.000000 0.009693 -0.000838 0.000000 0.000519 0.004033 0.000000 0.008695 -0.001055 0.000000 0.000397 0.005180 0.000000 0.007492 -0.001326 0.000000 0.000159 0.006696 0.000000 0.006085 -0.001632 0.000000 -0.000255 0.008741 0.000000 0.004541 -0.001942 0.000000 -0.000968 0.011565 0.000000 
0.004989 -0.001647 0.000000 -0.001782 0.017330 0.000000 0.003825 -0.001062 0.000000 -0.002443 0.022114 0.000000 0.002991 0.000004 0.000000 -0.002441 -0.021973 0.000000 0.003844 0.001094 0.000000 -0.001762 -0.017162 0.000000 0.005122 0.001622 0.000000 -0.000997 -0.013355 0.000000 0.006404 0.001690 0.000000 -0.000379 -0.010352 0.000000 0.007628 0.001505 0.000000 0.000020 -0.008025 0.000000 0.008750 0.001251 0.000000 0.000258 -0.006251 0.000000 0.009732 0.001016 0.000000 0.000396 -0.004880 0.000000 0.010556 0.000814 0.000000 0.000483 -0.003822 0.000000 0.011240 0.000655 0.000000 0.000529 -0.003000 0.000000 0.011808 0.000518 0.000000 0.000549 -0.002337 0.000000 0.012254 0.000398 0.000000 0.000568 -0.001806 0.000000 0.012601 0.000313 0.000000 0.000571 -0.001379 0.000000 0.012882 0.000238 0.000000 0.000564 -0.001005 0.000000 0.013082 0.000160 0.000000 0.000572 -0.000681 0.000000 0.013211 0.000107 0.000000 0.000572 -0.000407 0.000000 0.013301 0.000058 0.000000 0.000561 -0.000136 0.000000 0.013330 -0.000006 0.000000 0.000570 0.000132 0.000000 0.013294 -0.000057 0.000000 0.000574 0.000387 0.000000 0.013221 -0.000104 0.000000 0.000566 0.000672 0.000000 0.013088 -0.000175 0.000000 0.000572 0.000997 0.000000 0.012878 -0.000244 0.000000 0.000576 0.001354 0.000000 0.012609 -0.000314 0.000000 0.000562 0.001786 0.000000 0.012262 -0.000410 0.000000 0.000549 0.002323 0.000000 0.011798 -0.000519 0.000000 0.000518 0.002964 0.000000 0.011238 -0.000661 0.000000 0.000475 0.003781 0.000000 0.010551 -0.000828 0.000000 0.000398 0.004828 0.000000 0.009719 -0.001026 0.000000 0.000265 0.006185 0.000000 0.008726 -0.001254 0.000000 0.000033 0.007966 0.000000 0.007567 -0.001486 0.000000 -0.000343 0.010318 0.000000 0.006277 -0.001666 0.000000 -0.000933 0.013414 0.000000 
0.007036 -0.001267 0.000000 -0.001580 0.016450 0.000000 0.006824 -0.000797 0.000000 -0.002036 0.021000 0.000000 0.007219 -0.000005 0.000000 -0.002034 -0.020914 0.000000 0.006863 0.000778 0.000000 -0.001561 -0.016357 0.000000 0.007147 0.001224 0.000000 -0.000957 -0.012825 0.000000 0.007759 0.001347 0.000000 -0.000430 -0.010060 0.000000 0.008526 0.001263 0.000000 -0.000057 -0.007898 0.000000 0.009328 0.001097 0.000000 0.000179 -0.006221 0.000000 0.010078 0.000926 0.000000 0.000324 -0.004896 0.000000 0.010749 0.000759 0.000000 0.000408 -0.003860 0.000000 0.011325 0.000630 0.000000 0.000461 -0.003050 0.000000 0.011802 0.000510 0.000000 0.000490 -0.002380 0.000000 0.012196 0.000392 0.000000 0.000499 -0.001842 0.000000 0.012512 0.000317 0.000000 0.000507 -0.001417 0.000000 0.012751 0.000248 0.000000 0.000512 -0.001029 0.000000 0.012933 0.000160 0.000000 0.000507 -0.000694 0.000000 0.013062 0.000111 0.000000 0.000507 -0.000421 0.000000 0.013131 0.000067 0.000000 0.000511 -0.000138 0.000000 0.013155 -0.000008 0.000000 0.000508 0.000144 0.000000 0.013137 -0.000057 0.000000 0.000508 0.000398 0.000000 0.013061 -0.000097 0.000000 0.000513 0.000694 0.000000 0.012934 -0.000176 0.000000 0.000511 0.001035 0.000000 0.012758 -0.000244 0.000000 0.000506 0.001395 0.000000 0.012513 -0.000302 0.000000 0.000503 0.001834 0.000000 0.012197 -0.000396 0.000000 0.000490 0.002391 0.000000 0.011810 -0.000491 0.000000 0.000465 0.003028 0.000000 0.011326 -0.000620 0.000000 0.000412 0.003839 0.000000 0.010740 -0.000762 0.000000 0.000320 0.004865 0.000000 0.010052 -0.000922 0.000000 0.000169 0.006173 0.000000 0.009272 -0.001095 0.000000 -0.000073 0.007855 0.000000 0.008437 -0.001256 0.000000 -0.000436 0.010031 0.000000 0.007637 -0.001352 0.000000 -0.000949 0.012852 0.000000 
0.008587 -0.001017 0.000000 -0.001312 0.017541 0.000000 0.008375 -0.000606 0.000000 -0.001636 0.021720 0.000000 0.008735 0.000002 0.000000 -0.001637 -0.021618 0.000000 0.008401 0.000621 0.000000 -0.001315 -0.017447 0.000000 0.008654 0.001018 0.000000 -0.000875 -0.013967 0.000000 0.009169 0.001163 0.000000 -0.000463 -0.011119 0.000000 0.009790 0.001132 0.000000 -0.000147 -0.008826 0.000000 0.010427 0.001015 0.000000 0.000064 -0.007001 0.000000 0.011012 0.000872 0.000000 0.000206 -0.005551 0.000000 0.011550 0.000729 0.000000 0.000283 -0.004398 0.000000 0.012018 0.000602 0.000000 0.000349 -0.003477 0.000000 0.012389 0.000489 0.000000 0.000394 -0.002731 0.000000 0.012716 0.000388 0.000000 0.000394 -0.002122 0.000000 0.012987 0.000305 0.000000 0.000412 -0.001618 0.000000 0.013165 0.000233 0.000000 0.000436 -0.001187 0.000000 0.013317 0.000164 0.000000 0.000417 -0.000811 0.000000 0.013442 0.000107 0.000000 0.000418 -0.000477 0.000000 0.013481 0.000054 0.000000 0.000443 -0.000160 0.000000 0.013498 -0.000003 0.000000 0.000424 0.000151 0.000000 0.013503 -0.000056 0.000000 0.000416 0.000463 0.000000 0.013427 -0.000110 0.000000 0.000440 0.000799 0.000000 0.013313 -0.000172 0.000000 0.000425 0.001174 0.000000 0.013188 -0.000239 0.000000 0.000406 0.001599 0.000000 0.012983 -0.000311 0.000000 0.000416 0.002102 0.000000 0.012716 -0.000397 0.000000 0.000403 0.002710 0.000000 0.012435 -0.000494 0.000000 0.000389 0.003448 0.000000 0.012049 -0.000608 0.000000 0.000333 0.004366 0.000000 0.011578 -0.000736 0.000000 0.000238 0.005516 0.000000 0.011028 -0.000874 0.000000 0.000091 0.006966 0.000000 0.010407 -0.001013 0.000000 -0.000127 0.008801 0.000000 0.009744 -0.001122 0.000000 -0.000438 0.011119 0.000000 0.009098 -0.001153 0.000000 -0.000848 0.014014 0.000000 
0.010563 -0.000804 0.000000 -0.001169 0.016662 0.000000 0.011003 -0.000473 0.000000 -0.001404 0.020640 0.000000 0.012036 -0.000004 0.000000 -0.001404 -0.020581 0.000000 0.011034 0.000455 0.000000 -0.001163 -0.016610 0.000000 0.010627 0.000784 0.000000 -0.000811 -0.013340 0.000000 0.010607 0.000934 0.000000 -0.000461 -0.010681 0.000000 0.010819 0.000948 0.000000 -0.000175 -0.008534 0.000000 0.011152 0.000886 0.000000 0.000033 -0.006805 0.000000 0.011522 0.000784 0.000000 0.000178 -0.005434 0.000000 0.011896 0.000682 0.000000 0.000270 -0.004327 0.000000 0.012241 0.000565 0.000000 0.000338 -0.003422 0.000000 0.012535 0.000465 0.000000 0.000384 -0.002707 0.000000 0.012794 0.000392 0.000000 0.000402 -0.002113 0.000000 0.013010 0.000300 0.000000 0.000420 -0.001595 0.000000 0.013167 0.000223 0.000000 0.000438 -0.001182 0.000000 0.013293 0.000180 0.000000 0.000434 -0.000818 0.000000 0.013390 0.000110 0.000000 0.000437 -0.000461 0.000000 0.013433 0.000043 0.000000 0.000448 -0.000155 0.000000 0.013448 0.000010 0.000000 0.000441 0.000139 0.000000 0.013442 -0.000049 0.000000 0.000436 0.000474 0.000000 0.013384 -0.000121 0.000000 0.000443 0.000807 0.000000 0.013292 -0.000162 0.000000 0.000433 0.001161 0.000000 0.013175 -0.000225 0.000000 0.000417 0.001600 0.000000 0.013006 -0.000313 0.000000 0.000409 0.002100 0.000000 0.012791 -0.000383 0.000000 0.000385 0.002672 0.000000 0.012548 -0.000477 0.000000 0.000351 0.003414 0.000000 0.012243 -0.000564 0.000000 0.000284 0.004309 0.000000 0.011890 -0.000667 0.000000 0.000181 0.005415 0.000000 0.011502 -0.000775 0.000000 0.000031 0.006794 0.000000 0.011107 -0.000876 0.000000 -0.000182 0.008518 0.000000 0.010755 -0.000945 0.000000 -0.000466 0.010677 0.000000 0.010532 -0.000941 0.000000 -0.000813 0.013364 0.000000 
0.011886 -0.000660 0.000000 -0.000981 0.017102 0.000000 0.012353 -0.000371 0.000000 -0.001155 0.020688 0.000000 0.013390 0.000001 0.000000 -0.001156 -0.020616 0.000000 0.012372 0.000380 0.000000 -0.000987 -0.017040 0.000000 0.011924 0.000666 0.000000 -0.000725 -0.013946 0.000000 0.011828 0.000814 0.000000 -0.000449 -0.011331 0.000000 0.011937 0.000846 0.000000 -0.000209 -0.009159 0.000000 0.012156 0.000807 0.000000 -0.000016 -0.007371 0.000000 0.012428 0.000726 0.000000 0.000127 -0.005925 0.000000 0.012699 0.000637 0.000000 0.000237 -0.004743 0.000000 0.012955 0.000534 0.000000 0.000309 -0.003771 0.000000 0.013192 0.000443 0.000000 0.000357 -0.002990 0.000000 0.013386 0.000370 0.000000 0.000401 -0.002337 0.000000 0.013544 0.000287 0.000000 0.000424 -0.001775 0.000000 0.013683 0.000215 0.000000 0.000433 -0.001313 0.000000 0.013780 0.000168 0.000000 0.000453 -0.000907 0.000000 0.013841 0.000104 0.000000 0.000460 -0.000520 0.000000 0.013890 0.000042 0.000000 0.000453 -0.000175 0.000000 0.013906 0.000004 0.000000 0.000461 0.000158 0.000000 0.013883 -0.000052 0.000000 0.000462 0.000521 0.000000 0.013848 -0.000117 0.000000 0.000446 0.000891 0.000000 0.013784 -0.000162 0.000000 0.000440 0.001290 0.000000 0.013676 -0.000223 0.000000 0.000429 0.001768 0.000000 0.013548 -0.000303 0.000000 0.000397 0.002317 0.000000 0.013389 -0.000373 0.000000 0.000360 0.002953 0.000000 0.013177 -0.000459 0.000000 0.000302 0.003753 0.000000 0.012944 -0.000541 0.000000 0.000230 0.004720 0.000000 0.012684 -0.000633 0.000000 0.000130 0.005903 0.000000 0.012406 -0.000724 0.000000 -0.000010 0.007360 0.000000 0.012132 -0.000800 0.000000 -0.000197 0.009152 0.000000 0.011902 -0.000839 0.000000 -0.000434 0.011342 0.000000 0.011785 -0.000806 0.000000 -0.000711 0.013983 0.000000 
0.013681 -0.000534 0.000000 -0.000880 0.016196 0.000000 0.014589 -0.000299 0.000000 -0.001012 0.019603 0.000000 0.016027 -0.000002 0.000000 -0.001011 -0.019563 0.000000 0.014610 0.000286 0.000000 -0.000878 -0.016162 0.000000 0.013721 0.000522 0.000000 -0.000663 -0.013244 0.000000 0.013222 0.000659 0.000000 -0.000429 -0.010791 0.000000 0.012992 0.000707 0.000000 -0.000214 -0.008754 0.000000 0.012939 0.000693 0.000000 -0.000035 -0.007077 0.000000 0.012995 0.000641 0.000000 0.000102 -0.005706 0.000000 0.013102 0.000572 0.000000 0.000209 -0.004582 0.000000 0.013231 0.000493 0.000000 0.000282 -0.003659 0.000000 0.013369 0.000417 0.000000 0.000333 -0.002902 0.000000 0.013490 0.000348 0.000000 0.000376 -0.002270 0.000000 0.013594 0.000277 0.000000 0.000401 -0.001734 0.000000 0.013689 0.000214 0.000000 0.000413 -0.001279 0.000000 0.013758 0.000160 0.000000 0.000431 -0.000879 0.000000 0.013801 0.000103 0.000000 0.000439 -0.000510 0.000000 0.013837 0.000049 0.000000 0.000435 -0.000170 0.000000 0.013848 0.000003 0.000000 0.000441 0.000162 0.000000 0.013831 -0.000049 0.000000 0.000440 0.000508 0.000000 0.013806 -0.000105 0.000000 0.000426 0.000872 0.000000 0.013759 -0.000156 0.000000 0.000417 0.001269 0.000000 0.013682 -0.000214 0.000000 0.000402 0.001728 0.000000 0.013593 -0.000280 0.000000 0.000369 0.002259 0.000000 0.013486 -0.000347 0.000000 0.000329 0.002884 0.000000 0.013348 -0.000419 0.000000 0.000269 0.003647 0.000000 0.013209 -0.000492 0.000000 0.000193 0.004569 0.000000 0.013074 -0.000566 0.000000 0.000091 0.005693 0.000000 0.012959 -0.000636 0.000000 -0.000046 0.007068 0.000000 0.012899 -0.000689 0.000000 -0.000221 0.008748 0.000000 0.012945 -0.000707 0.000000 -0.000433 0.010794 0.000000 0.013173 -0.000665 0.000000 -0.000666 0.013263 0.000000 
0.014819 -0.000446 0.000000 -0.000746 0.016194 0.000000 0.015760 -0.000240 0.000000 -0.000847 0.019249 0.000000 0.017217 0.000001 0.000000 -0.000848 -0.019199 0.000000 0.015773 0.000247 0.000000 -0.000751 -0.016151 0.000000 0.014842 0.000452 0.000000 -0.000588 -0.013446 0.000000 0.014281 0.000579 0.000000 -0.000401 -0.011102 0.000000 0.013974 0.000631 0.000000 -0.000223 -0.009106 0.000000 0.013834 0.000628 0.000000 -0.000067 -0.007427 0.000000 0.013799 0.000589 0.000000 0.000059 -0.006031 0.000000 0.013823 0.000530 0.000000 0.000159 -0.004872 0.000000 0.013879 0.000461 0.000000 0.000233 -0.003909 0.000000 0.013949 0.000392 0.000000 0.000288 -0.003111 0.000000 0.014018 0.000327 0.000000 0.000331 -0.002441 0.000000 0.014081 0.000262 0.000000 0.000361 -0.001870 0.000000 0.014138 0.000203 0.000000 0.000380 -0.001382 0.000000 0.014181 0.000150 0.000000 0.000397 -0.000950 0.000000 0.014210 0.000097 0.000000 0.000406 -0.000555 0.000000 0.014231 0.000045 0.000000 0.000408 -0.000186 0.000000 0.014238 -0.000001 0.000000 0.000410 0.000174 0.000000 0.014229 -0.000051 0.000000 0.000407 0.000546 0.000000 0.014212 -0.000103 0.000000 0.000396 0.000938 0.000000 0.014182 -0.000153 0.000000 0.000383 0.001367 0.000000 0.014135 -0.000208 0.000000 0.000363 0.001857 0.000000 0.014080 -0.000270 0.000000 0.000331 0.002424 0.000000 0.014015 -0.000333 0.000000 0.000288 0.003091 0.000000 0.013939 -0.000399 0.000000 0.000230 0.003892 0.000000 0.013867 -0.000466 0.000000 0.000156 0.004856 0.000000 0.013808 -0.000531 0.000000 0.000060 0.006018 0.000000 0.013780 -0.000587 0.000000 -0.000063 0.007420 0.000000 0.013812 -0.000625 0.000000 -0.000215 0.009106 0.000000 0.013948 -0.000627 0.000000 -0.000392 0.011115 0.000000 0.014254 -0.000573 0.000000 -0.000579 0.013475 0.000000 
0.016400 -0.000367 0.000000 -0.000674 0.015254 0.000000 0.017644 -0.000198 0.000000 -0.000753 0.018146 0.000000 0.019356 -0.000002 0.000000 -0.000753 -0.018119 0.000000 0.017658 0.000189 0.000000 -0.000673 -0.015232 0.000000 0.016426 0.000359 0.000000 -0.000536 -0.012683 0.000000 0.015566 0.000472 0.000000 -0.000376 -0.010483 0.000000 0.014989 0.000528 0.000000 -0.000217 -0.008614 0.000000 0.014617 0.000538 0.000000 -0.000075 -0.007042 0.000000 0.014392 0.000515 0.000000 0.000044 -0.005730 0.000000 0.014261 0.000472 0.000000 0.000140 -0.004638 0.000000 0.014194 0.000419 0.000000 0.000213 -0.003729 0.000000 0.014167 0.000362 0.000000 0.000267 -0.002971 0.000000 0.014160 0.000304 0.000000 0.000311 -0.002333 0.000000 0.014165 0.000248 0.000000 0.000341 -0.001791 0.000000 0.014178 0.000194 0.000000 0.000361 -0.001322 0.000000 0.014189 0.000143 0.000000 0.000378 -0.000908 0.000000 0.014197 0.000094 0.000000 0.000387 -0.000531 0.000000 0.014205 0.000047 0.000000 0.000389 -0.000177 0.000000 0.014208 0.000000 0.000000 0.000391 0.000171 0.000000 0.014203 -0.000046 0.000000 0.000387 0.000526 0.000000 0.014197 -0.000094 0.000000 0.000376 0.000902 0.000000 0.014188 -0.000143 0.000000 0.000361 0.001315 0.000000 0.014173 -0.000194 0.000000 0.000340 0.001783 0.000000 0.014160 -0.000248 0.000000 0.000306 0.002324 0.000000 0.014152 -0.000304 0.000000 0.000262 0.002961 0.000000 0.014150 -0.000361 0.000000 0.000203 0.003719 0.000000 0.014173 -0.000418 0.000000 0.000128 0.004628 0.000000 0.014236 -0.000470 0.000000 0.000034 0.005721 0.000000 0.014362 -0.000513 0.000000 -0.000083 0.007036 0.000000 0.014585 -0.000537 0.000000 -0.000223 0.008612 0.000000 0.014954 -0.000530 0.000000 -0.000380 0.010489 0.000000 0.015533 -0.000477 0.000000 -0.000539 0.012698 0.000000 