# vtk DataFile Version 2.0
Comment goes here
ASCII

DATASET STRUCTURED_POINTS
FIELD FieldData 1
TIME 1 1 double
0.08100000
DIMENSIONS    64   64   1

ORIGIN    0.000   0.000   0.000
SPACING   0.03125 0.03125   1.000

POINT_DATA   4096
VECTORS u double

0.517586 0.043432 0.000000 -1.870477 -0.027761 0.000000 0.292607 0.023975 0.000000 -1.803871 -0.009554 0.000000 0.017039 -0.007893 0.000000 -1.751373 -0.005363 0.000000 0.306553 0.021848 0.000000 -1.613206 -0.004871 0.000000 0.435579 0.013812 0.000000 -1.523765 -0.008906 0.000000 0.459244 0.007334 0.000000 -1.406777 -0.012211 0.000000 0.386693 0.000632 0.000000 -1.233730 -0.014853 0.000000 0.235047 -0.005700 0.000000 -1.013924 -0.018354 0.000000 0.037951 -0.010234 0.000000 -0.776896 -0.026236 0.000000 -0.163239 0.000565 0.000000 -0.550540 -0.017213 0.000000 -0.359807 0.005884 0.000000 -0.339212 -0.011562 0.000000 -0.551122 0.001659 0.000000 -0.140341 -0.008476 0.000000 -0.726209 -0.001643 0.000000 0.038689 -0.006427 0.000000 -0.882721 0.003952 0.000000 0.205894 -0.005572 0.000000 -1.035700 0.001427 0.000000 0.369846 -0.004961 0.000000 -1.178667 -0.003171 0.000000 0.517154 -0.004620 0.000000 -1.292377 0.001602 0.000000 0.630106 -0.003043 0.000000 -1.368175 -0.000536 0.000000 0.699215 -0.001130 0.000000 -1.394705 -0.005261 0.000000 0.716108 -0.001198 0.000000 -1.377608 -0.001053 0.000000 0.700069 0.001226 0.000000 -1.341883 0.000682 0.000000 0.668483 0.002240 0.000000 -1.293587 -0.000234 0.000000 0.610922 0.001481 0.000000 -1.218608 0.004409 0.000000 0.515467 0.004492 0.000000 -1.110041 0.011575 0.000000 0.379544 0.006026 0.000000 -0.971427 0.014839 0.000000 0.197476 0.006320 0.000000 -0.798864 0.013035 0.000000 -0.028971 0.007205 0.000000 -0.600793 0.007674 0.000000 -0.292136 0.007092 0.000000 -0.372632 0.004351 0.000000 -0.600753 0.005761 0.000000 -0.108295 0.003933 0.000000 -0.959050 0.003188 0.000000 0.175543 0.004890 0.000000 -1.333206 0.000441 0.000000 0.430648 0.006257 0.000000 -1.678901 -0.002775 0.000000 0.616218 0.006740 0.000000 -1.976334 -0.008468 0.000000 
-0.316465 -0.053831 0.000000 0.382240 0.107035 0.000000 -0.088499 -0.033889 0.000000 0.357843 0.127010 0.000000 0.246681 -0.000984 0.000000 0.322360 -0.160059 0.000000 -0.208404 -0.068090 0.000000 0.168790 -0.079435 0.000000 -0.430062 -0.036462 0.000000 0.095332 -0.024393 0.000000 -0.537191 -0.045252 0.000000 0.024771 0.025959 0.000000 -0.565573 -0.068564 0.000000 -0.072944 0.067807 0.000000 -0.539091 -0.087473 0.000000 -0.195563 0.094093 0.000000 -0.482955 -0.093301 0.000000 -0.327262 0.102721 0.000000 -0.432496 -0.098175 0.000000 -0.443444 0.095562 0.000000 -0.369024 -0.095923 0.000000 -0.546294 0.091399 0.000000 -0.292987 -0.087575 0.000000 -0.645552 0.082479 0.000000 -0.222337 -0.075716 0.000000 -0.733184 0.072020 0.000000 -0.166130 -0.075674 0.000000 -0.809975 0.071681 0.000000 -0.106490 -0.073844 0.000000 -0.889609 0.067655 0.000000 -0.051784 -0.063133 0.000000 -0.963816 0.053552 0.000000 -0.017909 -0.051124 0.000000 -1.015631 0.035396 0.000000 0.001950 -0.030750 0.000000 -1.050541 0.012030 0.000000 -0.000835 -0.002441 0.000000 -1.060723 -0.008540 0.000000 -0.027845 0.009682 0.000000 -1.048241 -0.019032 0.000000 -0.058926 0.014745 0.000000 -1.031065 -0.025229 0.000000 -0.089594 0.028633 0.000000 -0.998372 -0.038037 0.000000 -0.133923 0.044040 0.000000 -0.937361 -0.057122 0.000000 -0.189127 0.058054 0.000000 -0.849937 -0.072121 0.000000 -0.247251 0.078594 0.000000 -0.733112 -0.089286 0.000000 -0.314877 0.103334 0.000000 -0.588448 -0.103331 0.000000 -0.384229 0.126747 0.000000 -0.428512 -0.120043 0.000000 -0.461562 0.153041 0.000000 -0.247257 -0.138998 0.000000 -0.549219 0.179248 0.000000 -0.039455 -0.148354 0.000000 -0.635639 0.187177 0.000000 0.175022 -0.133008 0.000000 -0.685100 0.172537 0.000000 0.366063 -0.096761 0.000000 -0.667016 0.149615 0.000000 0.527334 0.042996 0.000000 
2.098132 0.188526 0.000000 0.585387 -0.255727 0.000000 1.719753 0.048372 0.000000 0.539599 -0.344735 0.000000 1.269407 0.027590 0.000000 0.523067 0.449722 0.000000 2.082272 0.175419 0.000000 0.684598 0.216787 0.000000 2.519490 0.087269 0.000000 0.694678 0.098223 0.000000 2.836162 0.077896 0.000000 0.623149 0.016171 0.000000 3.122855 0.098347 0.000000 0.507921 -0.041336 0.000000 3.408326 0.116919 0.000000 0.372416 -0.074489 0.000000 3.690590 0.121464 0.000000 0.242544 -0.076695 0.000000 3.980732 0.116748 0.000000 0.106790 -0.080685 0.000000 4.206460 0.108733 0.000000 -0.028970 -0.087599 0.000000 4.377711 0.100917 0.000000 -0.141842 -0.079127 0.000000 4.524101 0.085989 0.000000 -0.239006 -0.062634 0.000000 4.664945 0.080743 0.000000 -0.336231 -0.065213 0.000000 4.784590 0.081062 0.000000 -0.414712 -0.059666 0.000000 4.892155 0.071036 0.000000 -0.469817 -0.038495 0.000000 4.995160 0.053417 0.000000 -0.511759 -0.022901 0.000000 5.058714 0.034374 0.000000 -0.511421 0.001655 0.000000 5.075429 0.004921 0.000000 -0.468157 0.025812 0.000000 5.074447 -0.013535 0.000000 -0.419298 0.032307 0.000000 5.046038 -0.016494 0.000000 -0.360024 0.032908 0.000000 4.988609 -0.032928 0.000000 -0.291190 0.045810 0.000000 4.918747 -0.056601 0.000000 -0.220242 0.059696 0.000000 4.804739 -0.075849 0.000000 -0.146130 0.064150 0.000000 4.632426 -0.101987 0.000000 -0.056157 0.073947 0.000000 4.411627 -0.131629 0.000000 0.042650 0.076557 0.000000 4.150995 -0.152263 0.000000 0.161229 0.084425 0.000000 3.859836 -0.176903 0.000000 0.301366 0.093418 0.000000 3.524454 -0.203869 0.000000 0.465550 0.089607 0.000000 3.145633 -0.209587 0.000000 0.631664 0.049903 0.000000 2.737676 -0.184785 0.000000 0.774647 -0.020860 0.000000 2.317018 -0.154530 0.000000 0.798731 -0.359019 0.000000 
4.560235 0.159513 0.000000 0.000729 0.485414 0.000000 3.491074 0.011899 0.000000 -0.441554 0.577356 0.000000 1.839026 0.015547 0.000000 -0.425872 -0.972924 0.000000 4.170678 -0.229620 0.000000 -0.175385 -0.516653 0.000000 5.250123 -0.046542 0.000000 -0.128457 -0.341065 0.000000 5.926719 0.026277 0.000000 -0.108252 -0.260733 0.000000 6.416608 0.046664 0.000000 -0.036488 -0.217664 0.000000 6.783590 0.048031 0.000000 0.095342 -0.188170 0.000000 7.072126 0.036572 0.000000 0.251908 -0.187421 0.000000 7.429808 0.037578 0.000000 0.423655 -0.130166 0.000000 7.641857 0.039837 0.000000 0.558879 -0.079851 0.000000 7.759493 0.025297 0.000000 0.649872 -0.063912 0.000000 7.856968 0.021449 0.000000 0.693791 -0.068824 0.000000 7.934428 0.021550 0.000000 0.732757 -0.047964 0.000000 7.983718 0.004637 0.000000 0.776807 -0.039910 0.000000 8.022197 -0.008029 0.000000 0.815409 -0.049453 0.000000 8.072439 -0.009181 0.000000 0.851159 -0.028157 0.000000 8.091698 -0.031088 0.000000 0.884292 -0.004686 0.000000 8.109283 -0.045704 0.000000 0.912229 -0.007558 0.000000 8.142066 -0.039178 0.000000 0.931398 0.009377 0.000000 8.124889 -0.044528 0.000000 0.955614 0.032199 0.000000 8.088180 -0.040201 0.000000 0.982652 0.031826 0.000000 8.051402 -0.026908 0.000000 0.980294 0.056886 0.000000 7.964988 -0.016058 0.000000 0.958399 0.100192 0.000000 7.832799 -0.011379 0.000000 0.924398 0.131512 0.000000 7.647900 0.004527 0.000000 0.860580 0.157301 0.000000 7.409504 0.008169 0.000000 0.782304 0.171117 0.000000 7.132955 0.012904 0.000000 0.685184 0.196384 0.000000 6.829443 0.015064 0.000000 0.572341 0.230466 0.000000 6.487584 0.021063 0.000000 0.453585 0.274949 0.000000 6.061077 0.029555 0.000000 0.326680 0.323897 0.000000 5.497285 0.125531 0.000000 0.132348 0.261882 0.000000 
4.770148 0.320146 0.000000 0.257074 0.813434 0.000000 3.876638 0.490655 0.000000 -0.209912 1.307313 0.000000 2.510389 0.011908 0.000000 -0.211136 -1.881930 0.000000 4.163560 -0.075068 0.000000 -0.293359 -0.862657 0.000000 5.216523 0.040341 0.000000 -0.253760 -0.578374 0.000000 5.933219 0.057691 0.000000 -0.199244 -0.473718 0.000000 6.470606 0.026584 0.000000 -0.103100 -0.408317 0.000000 6.887190 -0.014912 0.000000 0.070195 -0.363026 0.000000 7.192275 -0.035102 0.000000 0.247314 -0.434376 0.000000 7.605604 -0.054999 0.000000 0.446460 -0.292735 0.000000 7.821376 -0.026491 0.000000 0.586068 -0.205235 0.000000 7.924373 0.009924 0.000000 0.667215 -0.176601 0.000000 8.024333 0.042070 0.000000 0.692940 -0.140094 0.000000 8.126767 0.041777 0.000000 0.733578 -0.114502 0.000000 8.158263 0.037012 0.000000 0.784854 -0.098146 0.000000 8.185297 0.032433 0.000000 0.811456 -0.088738 0.000000 8.250998 0.017667 0.000000 0.833864 -0.042159 0.000000 8.243339 0.001241 0.000000 0.872331 -0.015931 0.000000 8.233564 -0.023017 0.000000 0.900147 -0.006971 0.000000 8.263898 -0.032704 0.000000 0.907487 0.049484 0.000000 8.223794 -0.040710 0.000000 0.941273 0.069617 0.000000 8.166428 -0.059966 0.000000 0.977537 0.082588 0.000000 8.130863 -0.054242 0.000000 0.963700 0.146110 0.000000 8.033528 -0.053955 0.000000 0.967145 0.196339 0.000000 7.864456 -0.067986 0.000000 0.962541 0.258846 0.000000 7.661559 -0.067811 0.000000 0.892312 0.314952 0.000000 7.387187 -0.073987 0.000000 0.794771 0.360974 0.000000 7.102007 -0.079784 0.000000 0.702957 0.396930 0.000000 6.798703 -0.091026 0.000000 0.625287 0.431467 0.000000 6.457339 -0.090831 0.000000 0.559707 0.476410 0.000000 6.048806 -0.057880 0.000000 0.477141 0.542932 0.000000 5.535395 0.039802 0.000000 0.419861 0.578032 0.000000 
5.098835 0.322300 0.000000 0.028418 1.378924 0.000000 4.272358 0.478886 0.000000 -0.104022 1.943605 0.000000 3.161351 0.016770 0.000000 -0.114974 -2.626096 0.000000 4.282958 -0.147396 0.000000 -0.205720 -1.569616 0.000000 5.307018 -0.086142 0.000000 -0.202127 -1.057762 0.000000 6.032275 -0.028239 0.000000 -0.212638 -0.798120 0.000000 6.577436 -0.049480 0.000000 -0.196900 -0.634248 0.000000 6.998049 -0.125264 0.000000 -0.009847 -0.493255 0.000000 7.243849 -0.140547 0.000000 0.225904 -0.600749 0.000000 7.760331 -0.161567 0.000000 0.515861 -0.345939 0.000000 7.915100 -0.099770 0.000000 0.654599 -0.182847 0.000000 7.974795 -0.055850 0.000000 0.692701 -0.163872 0.000000 8.084311 -0.004276 0.000000 0.688569 -0.171258 0.000000 8.144341 -0.019089 0.000000 0.781650 -0.079460 0.000000 8.170388 -0.046638 0.000000 0.810910 -0.066944 0.000000 8.202225 -0.034631 0.000000 0.818731 -0.115154 0.000000 8.267967 -0.031589 0.000000 0.913226 -0.020499 0.000000 8.243442 -0.069555 0.000000 0.926043 0.005089 0.000000 8.238934 -0.073521 0.000000 0.942859 -0.037891 0.000000 8.298401 -0.046517 0.000000 1.008650 0.049481 0.000000 8.229244 -0.078314 0.000000 1.022101 0.089565 0.000000 8.188492 -0.076465 0.000000 1.051614 0.067391 0.000000 8.191646 -0.013071 0.000000 1.072726 0.154221 0.000000 8.073765 -0.019503 0.000000 1.062202 0.269264 0.000000 7.941258 -0.006776 0.000000 1.045345 0.334409 0.000000 7.734214 0.074756 0.000000 0.973630 0.431674 0.000000 7.474530 0.105710 0.000000 0.839958 0.456297 0.000000 7.182142 0.104718 0.000000 0.674807 0.499688 0.000000 6.893343 0.092733 0.000000 0.532571 0.571830 0.000000 6.590506 0.086644 0.000000 0.411837 0.683482 0.000000 6.225699 0.112120 0.000000 0.283637 0.837309 0.000000 5.758327 0.182812 0.000000 0.129406 1.027129 0.000000 
5.356899 0.421135 0.000000 0.202735 1.639910 0.000000 4.697536 0.623095 0.000000 0.110091 2.418320 0.000000 3.782997 0.022859 0.000000 0.098321 -3.003537 0.000000 4.533488 0.015679 0.000000 -0.071532 -1.886717 0.000000 5.317418 0.036748 0.000000 -0.156815 -1.303632 0.000000 5.965834 0.068202 0.000000 -0.232513 -1.018879 0.000000 6.505728 0.010846 0.000000 -0.337515 -0.828931 0.000000 6.996375 -0.201965 0.000000 -0.197993 -0.608826 0.000000 7.229207 -0.270853 0.000000 0.383414 -0.950858 0.000000 7.829264 -0.344956 0.000000 0.648495 -0.447504 0.000000 7.928726 -0.165230 0.000000 0.648453 -0.264930 0.000000 7.923164 -0.028178 0.000000 0.716510 -0.286117 0.000000 8.021319 0.046202 0.000000 0.659861 -0.200124 0.000000 8.197726 -0.051304 0.000000 0.708658 -0.140549 0.000000 8.168902 0.007752 0.000000 0.804312 -0.129983 0.000000 8.163401 0.024612 0.000000 0.803171 -0.154479 0.000000 8.328964 -0.076828 0.000000 0.788863 -0.017635 0.000000 8.268185 -0.011576 0.000000 0.878421 -0.011423 0.000000 8.214583 -0.039832 0.000000 0.915715 -0.066437 0.000000 8.341110 -0.098496 0.000000 0.844288 0.118640 0.000000 8.273766 -0.054161 0.000000 0.933605 0.110369 0.000000 8.183893 -0.089480 0.000000 1.003397 0.079434 0.000000 8.235429 -0.075354 0.000000 0.920253 0.263991 0.000000 8.158376 -0.043431 0.000000 1.015060 0.328846 0.000000 7.951202 -0.051129 0.000000 1.140716 0.465890 0.000000 7.730947 0.003905 0.000000 0.947975 0.574636 0.000000 7.398994 0.059684 0.000000 0.750423 0.653362 0.000000 7.145089 0.085368 0.000000 0.613445 0.685729 0.000000 6.904168 0.051210 0.000000 0.531610 0.734304 0.000000 6.641589 0.029903 0.000000 0.479109 0.841217 0.000000 6.317919 0.070319 0.000000 0.418915 1.010304 0.000000 5.902148 0.194033 0.000000 0.327720 1.237524 0.000000 
5.720751 0.447285 0.000000 0.118445 2.038287 0.000000 5.134409 0.571529 0.000000 0.158376 2.858145 0.000000 4.384075 0.028540 0.000000 0.146774 -3.376587 0.000000 4.896000 0.022456 0.000000 0.053833 -2.353546 0.000000 5.514872 -0.000858 0.000000 -0.014154 -1.706177 0.000000 6.067787 0.047459 0.000000 -0.136563 -1.338015 0.000000 6.556018 0.055521 0.000000 -0.455229 -1.124895 0.000000 7.068550 -0.264785 0.000000 -0.550083 -0.726088 0.000000 7.291178 -0.721955 0.000000 0.310621 -1.200805 0.000000 8.130385 -0.426648 0.000000 0.770765 -0.445402 0.000000 8.008167 -0.099728 0.000000 0.783468 -0.177285 0.000000 7.885992 -0.123908 0.000000 0.743912 -0.262028 0.000000 8.110352 0.052373 0.000000 0.453156 -0.347664 0.000000 8.243138 -0.067886 0.000000 0.880085 -0.050636 0.000000 8.132370 -0.142292 0.000000 0.871611 -0.061443 0.000000 8.160306 -0.033491 0.000000 0.619222 -0.280717 0.000000 8.433797 -0.017280 0.000000 0.977187 0.040279 0.000000 8.220648 -0.159113 0.000000 0.965587 0.058691 0.000000 8.175416 -0.110815 0.000000 0.825682 -0.164418 0.000000 8.487509 0.024909 0.000000 0.974220 0.116825 0.000000 8.237323 -0.167631 0.000000 1.043020 0.179437 0.000000 8.170191 -0.146258 0.000000 0.997153 0.015856 0.000000 8.396258 0.070073 0.000000 0.939268 0.231274 0.000000 8.211651 -0.114310 0.000000 1.098216 0.476438 0.000000 8.083192 -0.132432 0.000000 1.159842 0.554664 0.000000 7.839213 0.267497 0.000000 1.077557 0.763626 0.000000 7.488373 0.303262 0.000000 0.767147 0.710202 0.000000 7.195590 0.241696 0.000000 0.510874 0.740609 0.000000 7.000729 0.174569 0.000000 0.401994 0.834409 0.000000 6.805813 0.139144 0.000000 0.340302 1.007152 0.000000 6.543466 0.172314 0.000000 0.269657 1.253080 0.000000 6.190767 0.274007 0.000000 0.183443 1.572377 0.000000 
6.040052 0.486133 0.000000 0.262205 2.226253 0.000000 5.571634 0.583164 0.000000 0.311936 3.168654 0.000000 4.956957 0.034461 0.000000 0.300522 -3.515462 0.000000 5.282306 0.108620 0.000000 0.217875 -2.505589 0.000000 5.693230 0.104734 0.000000 0.156849 -1.856546 0.000000 6.114689 0.190612 0.000000 0.101795 -1.507110 0.000000 6.512348 0.329512 0.000000 -0.063787 -1.341463 0.000000 6.892228 -0.107112 0.000000 -0.311627 -0.831453 0.000000 7.288427 -1.131557 0.000000 0.111389 -1.790066 0.000000 7.486299 -0.805099 0.000000 -0.040720 -0.325286 0.000000 7.625702 -0.177933 0.000000 -0.051767 -0.142755 0.000000 7.740870 0.011378 0.000000 0.372061 -0.510477 0.000000 7.911570 0.336959 0.000000 0.265574 -0.332911 0.000000 8.152831 -0.478233 0.000000 0.460663 -0.029780 0.000000 8.042306 0.016227 0.000000 0.680715 -0.157919 0.000000 8.015512 0.277001 0.000000 0.574143 -0.427970 0.000000 8.382654 -0.434794 0.000000 0.688161 0.195513 0.000000 8.150162 0.000024 0.000000 0.842617 0.033810 0.000000 8.020299 0.100073 0.000000 0.857327 -0.378531 0.000000 8.452236 -0.247033 0.000000 0.764266 0.368826 0.000000 8.162645 -0.122961 0.000000 0.962922 0.177501 0.000000 8.010042 -0.043612 0.000000 1.038308 -0.146633 0.000000 8.418887 -0.017470 0.000000 0.729221 0.448598 0.000000 8.211517 -0.202379 0.000000 1.237828 0.457306 0.000000 7.959096 -0.112754 0.000000 1.906366 0.709868 0.000000 7.947826 0.086189 0.000000 1.568726 0.925477 0.000000 7.406028 0.370094 0.000000 0.626215 0.946145 0.000000 7.168865 0.341641 0.000000 0.366808 0.880590 0.000000 7.077392 0.160090 0.000000 0.377787 0.929220 0.000000 6.933952 0.091595 0.000000 0.392416 1.103564 0.000000 6.709193 0.140965 0.000000 0.366486 1.363002 0.000000 6.412993 0.280246 0.000000 0.310753 1.707541 0.000000 
6.400037 0.495834 0.000000 0.222324 2.506706 0.000000 5.998979 0.521798 0.000000 0.323904 3.472822 0.000000 5.509198 0.039955 0.000000 0.313142 -3.701936 0.000000 5.722043 0.105103 0.000000 0.280248 -2.764470 0.000000 6.021526 0.060168 0.000000 0.324350 -2.127636 0.000000 6.311127 0.102512 0.000000 0.561828 -1.735673 0.000000 6.411232 0.221103 0.000000 0.994511 -1.504775 0.000000 6.234934 -0.016945 0.000000 0.779197 -1.122287 0.000000 6.321720 -1.144971 0.000000 -1.086706 -1.398677 0.000000 4.976350 -0.274539 0.000000 -2.017364 -0.584804 0.000000 5.566356 -0.088682 0.000000 -2.084953 -0.292454 0.000000 6.138095 -0.547736 0.000000 -1.911792 -0.432727 0.000000 6.057041 0.158860 0.000000 -1.259632 -0.588925 0.000000 6.034530 -0.262975 0.000000 -1.658567 0.059889 0.000000 6.407757 -0.362344 0.000000 -1.424924 -0.034649 0.000000 6.456820 0.073081 0.000000 -0.943955 -0.647859 0.000000 6.147230 -0.131298 0.000000 -1.276790 0.272772 0.000000 6.524605 -0.313570 0.000000 -1.058566 0.188554 0.000000 6.561095 -0.125524 0.000000 -0.761372 -0.596354 0.000000 6.198089 0.117970 0.000000 -0.889632 0.406416 0.000000 6.595695 -0.366287 0.000000 -0.759309 0.332041 0.000000 6.595644 -0.221643 0.000000 -0.518983 -0.392989 0.000000 6.359591 0.379160 0.000000 -0.448604 0.438644 0.000000 6.756967 -0.622916 0.000000 -0.230516 0.728859 0.000000 6.881447 -0.800971 0.000000 0.390579 0.565933 0.000000 6.874769 0.605137 0.000000 0.165749 1.305425 0.000000 6.917217 1.245773 0.000000 -0.060483 0.947365 0.000000 7.145713 0.501103 0.000000 0.105282 0.832082 0.000000 7.223940 0.163589 0.000000 0.240527 0.977850 0.000000 7.138145 0.124516 0.000000 0.279734 1.231910 0.000000 6.957544 0.198244 0.000000 0.261598 1.549281 0.000000 6.712703 0.329740 0.000000 0.225486 1.945318 0.000000 
6.722939 0.489295 0.000000 0.333519 2.627310 0.000000 6.414117 0.481584 0.000000 0.431699 3.658436 0.000000 6.034201 0.045223 0.000000 0.421738 -3.728307 0.000000 6.124334 0.141514 0.000000 0.384368 -2.805073 0.000000 6.261355 0.060632 0.000000 0.429142 -2.146146 0.000000 6.354018 -0.046867 0.000000 0.735937 -1.607215 0.000000 6.187715 -0.103171 0.000000 1.347245 -1.165166 0.000000 5.699713 0.108203 0.000000 1.221798 -0.918239 0.000000 5.640274 0.734346 0.000000 -1.123333 -0.444695 0.000000 3.867144 0.125558 0.000000 -2.010907 -0.915292 0.000000 4.069012 -0.110345 0.000000 -2.173191 -0.714494 0.000000 4.633382 -0.161783 0.000000 -2.935511 -0.429422 0.000000 4.515226 -0.315202 0.000000 -2.316090 -0.310400 0.000000 3.953890 -0.079298 0.000000 -2.707497 -0.403007 0.000000 4.593918 -0.217416 0.000000 -3.183780 -0.206982 0.000000 4.885410 -0.203968 0.000000 -2.840767 -0.118380 0.000000 3.802096 -0.101959 0.000000 -2.816482 -0.181862 0.000000 4.516986 -0.218200 0.000000 -3.210456 -0.002680 0.000000 4.973137 -0.197121 0.000000 -3.318746 -0.015524 0.000000 3.789375 -0.118774 0.000000 -2.680910 -0.028780 0.000000 4.426854 -0.253284 0.000000 -3.148230 0.177553 0.000000 4.907429 -0.283938 0.000000 -3.486997 0.089420 0.000000 3.935351 -0.087849 0.000000 -2.375090 0.051222 0.000000 4.199873 -0.420466 0.000000 -3.269090 0.332826 0.000000 4.980780 -0.733850 0.000000 -4.997120 0.716546 0.000000 5.676919 0.311020 0.000000 -3.137481 0.883028 0.000000 7.182848 0.596326 0.000000 -0.633707 0.717649 0.000000 7.600006 0.175876 0.000000 0.222484 0.802362 0.000000 7.519099 0.024845 0.000000 0.380416 1.015016 0.000000 7.339558 0.052389 0.000000 0.376247 1.284165 0.000000 7.155025 0.159101 0.000000 0.347795 1.607843 0.000000 6.957444 0.316358 0.000000 0.321766 2.020207 0.000000 
7.058923 0.484081 0.000000 0.310168 2.815528 0.000000 6.814845 0.423617 0.000000 0.425927 3.852738 0.000000 6.538142 0.049916 0.000000 0.417498 -3.792068 0.000000 6.542093 0.142474 0.000000 0.370100 -2.901491 0.000000 6.598438 0.015394 0.000000 0.323440 -2.220300 0.000000 6.666648 -0.204283 0.000000 0.338192 -1.569370 0.000000 6.687321 -0.390205 0.000000 0.426173 -1.016773 0.000000 6.670410 0.108501 0.000000 0.431332 -1.062847 0.000000 6.821279 1.200160 0.000000 0.642093 0.374452 0.000000 6.553585 0.613035 0.000000 0.295364 -0.786672 0.000000 6.418303 0.073602 0.000000 -0.071364 -0.856824 0.000000 6.473751 0.214585 0.000000 -0.231328 -0.314571 0.000000 6.367277 -0.460561 0.000000 -0.268482 -0.027589 0.000000 6.333707 0.128432 0.000000 -0.718678 -0.580138 0.000000 6.393257 0.113939 0.000000 -0.891249 -0.326142 0.000000 6.362194 -0.269932 0.000000 -0.766170 0.435454 0.000000 6.078552 -0.155583 0.000000 -1.206977 -0.442118 0.000000 6.312419 0.080405 0.000000 -1.323851 -0.267596 0.000000 6.376411 -0.017234 0.000000 -1.242065 0.587407 0.000000 5.895006 -0.519867 0.000000 -1.456216 -0.231064 0.000000 6.233911 0.101032 0.000000 -1.658401 -0.148534 0.000000 6.328696 0.117125 0.000000 -1.709949 0.579089 0.000000 5.775378 -0.732748 0.000000 -1.564330 0.174122 0.000000 6.008687 0.271084 0.000000 -2.155949 -0.052048 0.000000 6.178766 0.927059 0.000000 -2.919003 -0.130206 0.000000 6.454192 -1.254502 0.000000 -2.387708 -0.200504 0.000000 7.263569 -1.258001 0.000000 -0.754903 0.530207 0.000000 7.616005 -0.355088 0.000000 0.046751 0.912989 0.000000 7.616667 0.005658 0.000000 0.265028 1.157391 0.000000 7.509755 0.128685 0.000000 0.290788 1.416443 0.000000 7.382484 0.226695 0.000000 0.276490 1.746862 0.000000 7.238090 0.355769 0.000000 0.269121 2.179822 0.000000 
7.363317 0.448248 0.000000 0.391715 2.871388 0.000000 7.197636 0.365824 0.000000 0.504292 3.935139 0.000000 7.015663 0.053653 0.000000 0.497254 -3.732258 0.000000 6.929552 0.188912 0.000000 0.436289 -2.861418 0.000000 6.898147 0.107293 0.000000 0.309485 -2.214356 0.000000 6.935624 -0.061619 0.000000 0.069033 -1.627888 0.000000 7.107093 -0.191152 0.000000 -0.349949 -1.148255 0.000000 7.422407 0.103043 0.000000 -0.390937 -1.069108 0.000000 7.442950 0.523586 0.000000 0.497854 -0.177001 0.000000 8.289445 0.472288 0.000000 0.943813 -0.780011 0.000000 8.183474 0.256383 0.000000 0.964857 -0.769942 0.000000 8.037208 -0.001819 0.000000 1.077890 -0.322948 0.000000 8.190160 -0.278048 0.000000 0.732809 -0.276830 0.000000 8.389094 0.370899 0.000000 0.924596 -0.462557 0.000000 8.209962 -0.044845 0.000000 0.966689 -0.175919 0.000000 8.166605 -0.329048 0.000000 0.770359 0.165261 0.000000 8.548958 0.338849 0.000000 0.790313 -0.415729 0.000000 8.313177 -0.101326 0.000000 0.820928 -0.066672 0.000000 8.195903 -0.278907 0.000000 0.842454 0.465880 0.000000 8.597007 0.095377 0.000000 0.596565 -0.367685 0.000000 8.380046 -0.051099 0.000000 0.668632 0.082768 0.000000 8.249460 -0.232390 0.000000 0.819758 0.642738 0.000000 8.522814 -0.233468 0.000000 0.436817 -0.182087 0.000000 8.432136 0.171153 0.000000 0.725988 0.162748 0.000000 8.275158 0.029204 0.000000 1.651884 0.441120 0.000000 8.020917 -0.220275 0.000000 0.882810 0.073651 0.000000 7.645033 -1.036480 0.000000 0.111599 0.365213 0.000000 7.610727 -0.625778 0.000000 0.101760 0.801701 0.000000 7.641283 -0.193432 0.000000 0.233950 1.121928 0.000000 7.619020 0.026629 0.000000 0.301148 1.411435 0.000000 7.556549 0.173399 0.000000 0.321124 1.752238 0.000000 7.473341 0.323727 0.000000 0.335759 2.199373 0.000000 
7.670390 0.428125 0.000000 0.375776 2.981209 0.000000 7.565962 0.311040 0.000000 0.487210 4.034710 0.000000 7.472057 0.056954 0.000000 0.481304 -3.705957 0.000000 7.342887 0.203439 0.000000 0.419930 -2.870086 0.000000 7.281976 0.142198 0.000000 0.308623 -2.257778 0.000000 7.308967 0.036169 0.000000 0.139221 -1.740838 0.000000 7.470352 0.028777 0.000000 -0.121490 -1.332088 0.000000 7.753237 0.149489 0.000000 -0.130027 -1.083391 0.000000 7.834167 0.311370 0.000000 0.303241 -0.472042 0.000000 8.397732 0.167075 0.000000 0.660405 -0.680701 0.000000 8.373351 0.052558 0.000000 0.835716 -0.710558 0.000000 8.229527 0.101552 0.000000 0.829429 -0.467523 0.000000 8.348432 -0.115480 0.000000 0.582083 -0.226523 0.000000 8.447526 -0.063354 0.000000 0.911744 -0.401006 0.000000 8.307093 0.071846 0.000000 0.900477 -0.282785 0.000000 8.333087 -0.073603 0.000000 0.632890 0.053101 0.000000 8.589025 -0.175537 0.000000 0.954218 -0.206336 0.000000 8.343211 0.049789 0.000000 0.937618 -0.150322 0.000000 8.321163 -0.038759 0.000000 0.749649 0.186303 0.000000 8.678040 -0.273978 0.000000 0.894095 -0.014103 0.000000 8.361823 0.028966 0.000000 0.970927 -0.017948 0.000000 8.335207 -0.034001 0.000000 0.870468 0.305735 0.000000 8.690040 -0.349806 0.000000 0.788314 0.264799 0.000000 8.385317 -0.018087 0.000000 1.106287 0.104931 0.000000 8.288586 0.001163 0.000000 1.274599 0.124035 0.000000 8.354625 -0.485428 0.000000 1.284344 0.175380 0.000000 8.044490 -0.486790 0.000000 0.581008 0.564513 0.000000 7.832531 -0.345249 0.000000 0.259442 0.882432 0.000000 7.793410 -0.126532 0.000000 0.228257 1.179654 0.000000 7.787429 0.061486 0.000000 0.252866 1.478914 0.000000 7.767474 0.206720 0.000000 0.273290 1.830070 0.000000 7.731114 0.341134 0.000000 0.302076 2.289846 0.000000 
7.946620 0.374548 0.000000 0.430825 2.975816 0.000000 7.913402 0.254391 0.000000 0.533439 4.029044 0.000000 7.902759 0.059558 0.000000 0.528780 -3.603088 0.000000 7.725085 0.250287 0.000000 0.454178 -2.800507 0.000000 7.623841 0.218599 0.000000 0.316311 -2.241348 0.000000 7.618799 0.107783 0.000000 0.165005 -1.789273 0.000000 7.718014 0.069559 0.000000 0.091121 -1.431139 0.000000 7.854294 0.111581 0.000000 0.169323 -1.150039 0.000000 7.951919 0.090317 0.000000 0.382066 -0.740565 0.000000 8.313729 0.115124 0.000000 0.637021 -0.755630 0.000000 8.431848 0.081073 0.000000 0.757646 -0.626119 0.000000 8.366493 0.004468 0.000000 0.855177 -0.441854 0.000000 8.362161 -0.030703 0.000000 0.785092 -0.375923 0.000000 8.462924 0.041238 0.000000 0.757524 -0.322124 0.000000 8.407486 -0.033578 0.000000 0.849383 -0.201913 0.000000 8.362578 -0.061461 0.000000 0.835879 -0.090677 0.000000 8.503861 0.017521 0.000000 0.754563 -0.169915 0.000000 8.459879 -0.084727 0.000000 0.859476 -0.044623 0.000000 8.389191 -0.090937 0.000000 0.896759 0.109003 0.000000 8.515843 -0.049069 0.000000 0.767492 -0.051468 0.000000 8.499805 -0.127932 0.000000 0.890374 0.109384 0.000000 8.414288 -0.131931 0.000000 0.978350 0.287905 0.000000 8.501904 -0.151314 0.000000 0.849820 0.122636 0.000000 8.538557 -0.146820 0.000000 0.998365 0.259479 0.000000 8.409037 -0.139109 0.000000 1.167948 0.375081 0.000000 8.230195 -0.230019 0.000000 0.902702 0.383786 0.000000 8.020874 -0.333144 0.000000 0.604939 0.577172 0.000000 7.921969 -0.304212 0.000000 0.379294 0.840821 0.000000 7.889460 -0.162247 0.000000 0.290888 1.127909 0.000000 7.903841 0.002020 0.000000 0.286659 1.431390 0.000000 7.927968 0.152975 0.000000 0.309751 1.788598 0.000000 7.946202 0.294940 0.000000 0.350032 2.260097 0.000000 
8.224884 0.347332 0.000000 0.423329 3.014428 0.000000 8.245785 0.208426 0.000000 0.524072 4.045353 0.000000 8.312200 0.061613 0.000000 0.521097 -3.528283 0.000000 8.098583 0.278040 0.000000 0.470558 -2.768842 0.000000 7.969829 0.280065 0.000000 0.359222 -2.252736 0.000000 7.931552 0.187475 0.000000 0.216648 -1.840052 0.000000 7.980582 0.102661 0.000000 0.146611 -1.468368 0.000000 8.033175 0.071287 0.000000 0.229841 -1.181016 0.000000 8.101946 0.098627 0.000000 0.263211 -0.833851 0.000000 8.347862 -0.087879 0.000000 0.614692 -0.798821 0.000000 8.476058 -0.068067 0.000000 0.830408 -0.645202 0.000000 8.454864 0.004021 0.000000 0.811718 -0.463191 0.000000 8.465405 -0.045395 0.000000 0.776634 -0.327286 0.000000 8.445647 -0.035786 0.000000 0.843567 -0.345568 0.000000 8.451790 -0.020013 0.000000 0.828945 -0.237877 0.000000 8.461847 -0.060099 0.000000 0.782650 -0.088182 0.000000 8.483736 -0.094220 0.000000 0.876681 -0.162354 0.000000 8.476423 -0.055124 0.000000 0.860439 -0.079634 0.000000 8.473750 -0.076042 0.000000 0.814460 0.059651 0.000000 8.532363 -0.144711 0.000000 0.897308 0.001935 0.000000 8.494204 -0.093917 0.000000 0.889204 0.067569 0.000000 8.495775 -0.121978 0.000000 0.871112 0.218119 0.000000 8.568083 -0.221275 0.000000 0.940574 0.228146 0.000000 8.489561 -0.166632 0.000000 0.989614 0.234451 0.000000 8.437172 -0.168420 0.000000 1.023749 0.302877 0.000000 8.369938 -0.220181 0.000000 0.969143 0.384701 0.000000 8.278301 -0.189028 0.000000 0.745221 0.663419 0.000000 8.127559 -0.119604 0.000000 0.471664 0.914940 0.000000 8.059805 -0.038126 0.000000 0.316980 1.165273 0.000000 8.079891 0.065715 0.000000 0.276257 1.454787 0.000000 8.131132 0.183628 0.000000 0.289890 1.811837 0.000000 8.184230 0.300853 0.000000 0.334630 2.289427 0.000000 