# vtk DataFile Version 2.0
Comment goes here
ASCII

DATASET STRUCTURED_POINTS
FIELD FieldData 1
TIME 1 1 double
0.04800000
DIMENSIONS    64   64   1

ORIGIN    0.000   0.000   0.000
SPACING   0.03125 0.03125   1.000

POINT_DATA   4096
SCALARS uX double
LOOKUP_TABLE default

7.856681e-01 -1.396408e+00 4.918992e-01 -1.347006e+00 3.258983e-01 -1.298260e+00 4.103070e-01 -1.187629e+00 3.867431e-01 -1.042223e+00 2.920315e-01 -8.663320e-01 1.540202e-01 -6.782306e-01 9.036002e-03 -5.125073e-01 -1.010849e-01 -3.941501e-01 -1.722908e-01 -3.129146e-01 -2.222351e-01 -2.467623e-01 -2.700100e-01 -1.749361e-01 -3.324959e-01 -8.676426e-02 -4.110121e-01 1.808326e-02 -5.172329e-01 1.579260e-01 -6.689397e-01 3.439872e-01 -8.635206e-01 5.579822e-01 -1.066717e+00 7.497397e-01 -1.223813e+00 8.600879e-01 -1.283475e+00 8.628715e-01 -1.230350e+00 7.595391e-01 -1.092070e+00 5.823553e-01 -9.029168e-01 3.831525e-01 -7.196983e-01 2.042433e-01 -5.673062e-01 4.587296e-02 -4.298417e-01 -1.107194e-01 -2.916249e-01 -2.742375e-01 -1.454436e-01 -4.540116e-01 1.085527e-02 -6.447442e-01 1.684082e-01 -8.463901e-01 3.281793e-01 -1.059525e+00 4.887929e-01 -1.299504e+00 
-5.977954e-01 3.164095e-01 -1.738335e-01 2.587530e-01 3.657687e-02 2.357011e-01 -1.502746e-01 1.675345e-01 -2.310781e-01 9.541508e-02 -2.526284e-01 1.385474e-02 -2.410229e-01 -7.242564e-02 -2.213974e-01 -1.458411e-01 -2.201554e-01 -1.917718e-01 -2.319479e-01 -2.185451e-01 -2.489341e-01 -2.355746e-01 -2.602727e-01 -2.571457e-01 -2.593134e-01 -2.906386e-01 -2.490187e-01 -3.290991e-01 -2.220207e-01 -3.883826e-01 -1.651656e-01 -4.759297e-01 -7.909304e-02 -5.832786e-01 1.628436e-02 -6.801410e-01 9.824857e-02 -7.398747e-01 1.336483e-01 -7.478066e-01 1.158695e-01 -7.024672e-01 6.201583e-02 -6.222696e-01 -1.422828e-02 -5.322895e-01 -8.582287e-02 -4.498480e-01 -1.331867e-01 -3.763813e-01 -1.680255e-01 -3.012124e-01 -2.040523e-01 -2.214718e-01 -2.447469e-01 -1.322150e-01 -2.897159e-01 -3.804922e-02 -3.296830e-01 6.187959e-02 -3.639843e-01 1.688420e-01 -3.914387e-01 3.038529e-01 
9.089009e-01 5.586603e-01 9.413745e-01 5.137067e-01 6.787680e-01 4.710587e-01 1.079848e+00 4.471290e-01 1.377875e+00 3.671185e-01 1.634940e+00 2.613488e-01 1.870424e+00 1.544815e-01 2.082652e+00 7.431162e-02 2.252735e+00 3.042570e-02 2.365697e+00 1.457252e-02 2.446971e+00 4.325777e-03 2.513894e+00 -1.273462e-02 2.572793e+00 -3.206970e-02 2.638531e+00 -6.299480e-02 2.719742e+00 -1.221838e-01 2.817610e+00 -2.140566e-01 2.947657e+00 -3.328095e-01 3.089245e+00 -4.528903e-01 3.189966e+00 -5.229804e-01 3.226049e+00 -5.267163e-01 3.191817e+00 -4.726665e-01 3.093650e+00 -3.723367e-01 2.956390e+00 -2.608793e-01 2.827379e+00 -1.812487e-01 2.706036e+00 -1.261296e-01 2.574549e+00 -6.845952e-02 2.430563e+00 4.506408e-04 2.273713e+00 8.662020e-02 2.098691e+00 1.829419e-01 1.905471e+00 2.868740e-01 1.683194e+00 4.035685e-01 1.416243e+00 5.646185e-01 
2.879159e+00 -1.132150e-01 1.975688e+00 -1.794931e-01 9.760423e-01 -1.571724e-01 2.148381e+00 -1.251163e-01 2.808865e+00 -9.270266e-02 3.246194e+00 -4.846709e-02 3.565421e+00 1.438013e-02 3.823156e+00 9.127200e-02 4.060571e+00 1.630952e-01 4.246550e+00 2.061486e-01 4.399782e+00 2.240545e-01 4.507591e+00 2.386360e-01 4.576709e+00 2.532184e-01 4.644215e+00 2.605749e-01 4.692899e+00 2.773449e-01 4.697842e+00 3.121037e-01 4.690605e+00 3.599411e-01 4.676378e+00 4.047091e-01 4.634111e+00 4.377589e-01 4.614816e+00 4.490457e-01 4.624226e+00 4.330295e-01 4.612467e+00 4.057126e-01 4.600319e+00 3.740593e-01 4.579344e+00 3.341317e-01 4.500715e+00 2.867226e-01 4.382781e+00 2.287651e-01 4.238771e+00 1.731751e-01 4.089153e+00 1.258067e-01 3.928013e+00 8.952178e-02 3.732008e+00 5.656981e-02 3.480813e+00 1.602614e-02 3.146949e+00 -7.005496e-02 
2.877145e+00 -2.540282e-04 2.187627e+00 -9.367052e-02 1.369594e+00 -8.549988e-02 2.279235e+00 -1.005529e-01 2.877391e+00 -7.755317e-02 3.301645e+00 -3.976816e-02 3.626295e+00 1.626637e-02 3.895321e+00 9.320085e-02 4.146701e+00 1.762682e-01 4.316630e+00 2.266349e-01 4.458066e+00 2.467913e-01 4.558449e+00 2.633606e-01 4.613273e+00 2.767404e-01 4.673705e+00 2.783080e-01 4.728771e+00 2.810583e-01 4.737280e+00 2.964066e-01 4.745325e+00 3.144118e-01 4.764957e+00 3.289183e-01 4.742527e+00 3.490523e-01 4.728519e+00 3.636309e-01 4.743294e+00 3.601669e-01 4.715326e+00 3.599833e-01 4.675818e+00 3.569990e-01 4.641269e+00 3.321477e-01 4.552458e+00 2.911602e-01 4.411725e+00 2.343950e-01 4.255148e+00 1.806289e-01 4.100699e+00 1.403102e-01 3.937638e+00 1.143659e-01 3.743704e+00 9.660507e-02 3.498872e+00 7.421812e-02 3.183535e+00 1.328252e-02 
2.966617e+00 -1.015439e-01 2.411190e+00 -1.290850e-01 1.756707e+00 -1.327144e-01 2.414600e+00 -1.143799e-01 2.956357e+00 -9.128291e-02 3.356043e+00 -6.290780e-02 3.662725e+00 -2.002184e-02 3.923245e+00 5.388867e-02 4.187234e+00 1.887527e-01 4.345982e+00 2.355458e-01 4.487911e+00 2.357626e-01 4.580817e+00 2.659459e-01 4.619233e+00 2.855274e-01 4.684838e+00 2.797966e-01 4.740597e+00 3.086846e-01 4.723754e+00 3.423485e-01 4.726121e+00 3.577830e-01 4.751025e+00 3.887992e-01 4.703710e+00 4.205975e-01 4.685853e+00 4.234519e-01 4.720149e+00 4.148817e-01 4.684330e+00 4.165242e-01 4.652131e+00 3.996846e-01 4.648680e+00 3.640968e-01 4.562066e+00 3.315256e-01 4.429191e+00 2.478016e-01 4.264994e+00 1.713417e-01 4.119848e+00 1.192161e-01 3.971905e+00 8.087218e-02 3.796486e+00 4.465615e-02 3.576604e+00 1.760313e-03 3.299529e+00 -5.474594e-02 
3.083660e+00 -4.536821e-03 2.645904e+00 -4.367729e-02 2.121628e+00 -4.756385e-02 2.609620e+00 -6.154234e-02 3.051886e+00 -6.136805e-02 3.404839e+00 -5.222998e-02 3.691365e+00 -2.670986e-02 3.948497e+00 3.939772e-02 4.258570e+00 2.313958e-01 4.367444e+00 2.772955e-01 4.494975e+00 2.395968e-01 4.605625e+00 2.707040e-01 4.621807e+00 3.074085e-01 4.675500e+00 2.720454e-01 4.765480e+00 2.827262e-01 4.739771e+00 3.253061e-01 4.733343e+00 3.138977e-01 4.807419e+00 3.111914e-01 4.763333e+00 3.573562e-01 4.725610e+00 3.626570e-01 4.790391e+00 3.344476e-01 4.749611e+00 3.710386e-01 4.684841e+00 3.854756e-01 4.697491e+00 3.456540e-01 4.620493e+00 3.341052e-01 4.427137e+00 2.292294e-01 4.257917e+00 1.501144e-01 4.127777e+00 1.116181e-01 3.996511e+00 9.344236e-02 3.837416e+00 7.944759e-02 3.637256e+00 5.967777e-02 3.387755e+00 2.782013e-02 
3.253749e+00 -5.638066e-02 2.897348e+00 -7.254361e-02 2.478356e+00 -7.634760e-02 2.826568e+00 -7.746858e-02 3.185258e+00 -7.384169e-02 3.486852e+00 -7.549341e-02 3.732656e+00 -8.907108e-02 3.968594e+00 -1.133824e-01 4.367781e+00 3.517154e-01 4.400505e+00 3.241366e-01 4.534939e+00 1.651912e-01 4.653326e+00 3.070568e-01 4.610812e+00 3.599314e-01 4.675899e+00 2.063434e-01 4.809719e+00 3.244276e-01 4.717681e+00 4.139234e-01 4.695290e+00 2.914871e-01 4.837092e+00 3.547807e-01 4.730293e+00 4.644527e-01 4.665092e+00 3.766941e-01 4.812569e+00 3.524115e-01 4.734116e+00 4.649424e-01 4.646414e+00 4.098098e-01 4.745033e+00 3.222584e-01 4.672643e+00 4.655573e-01 4.443007e+00 2.263745e-01 4.247548e+00 1.099023e-01 4.147533e+00 7.426619e-02 4.044582e+00 5.565124e-02 3.911082e+00 3.495051e-02 3.739242e+00 7.458873e-03 3.523195e+00 -2.574027e-02 
3.420308e+00 1.390424e-02 3.141510e+00 -3.647562e-03 2.814935e+00 -7.339493e-03 3.059269e+00 -2.052348e-02 3.326820e+00 -3.277035e-02 3.565769e+00 -5.650513e-02 3.770955e+00 -1.118495e-01 3.988678e+00 -1.617475e-01 4.412214e+00 3.067113e-01 4.380168e+00 2.859201e-01 4.510194e+00 3.677468e-02 4.683716e+00 2.533642e-01 4.598865e+00 3.725180e-01 4.629285e+00 9.368122e-02 4.846294e+00 2.583326e-01 4.717845e+00 4.267496e-01 4.645983e+00 1.839475e-01 4.895364e+00 2.475201e-01 4.763792e+00 4.587986e-01 4.632656e+00 2.983529e-01 4.878195e+00 2.327111e-01 4.786037e+00 4.808447e-01 4.628147e+00 4.041330e-01 4.817155e+00 2.563450e-01 4.805090e+00 7.518951e-01 4.392989e+00 1.934932e-01 4.216112e+00 5.544757e-02 4.166946e+00 5.296557e-02 4.091156e+00 6.197239e-02 3.977392e+00 6.228358e-02 3.828727e+00 5.274552e-02 3.644654e+00 3.514405e-02 
3.610998e+00 -1.964940e-02 3.392423e+00 -2.434871e-02 3.142148e+00 -2.770726e-02 3.300628e+00 -3.126029e-02 3.496328e+00 -3.013514e-02 3.675768e+00 -3.207264e-02 3.801342e+00 -5.723840e-02 3.811210e+00 -1.260968e-01 3.442779e+00 -8.388852e-01 3.628157e+00 -8.410144e-01 3.602638e+00 -6.506630e-01 3.615920e+00 -7.865405e-01 3.806371e+00 -7.926605e-01 3.787034e+00 -6.022787e-01 3.699902e+00 -6.889638e-01 3.857443e+00 -7.161478e-01 3.866073e+00 -5.568781e-01 3.720938e+00 -5.832482e-01 3.853164e+00 -6.312330e-01 3.883303e+00 -5.233465e-01 3.734480e+00 -4.929623e-01 3.846360e+00 -5.518207e-01 3.901706e+00 -4.697467e-01 3.811662e+00 -3.615050e-01 3.944122e+00 -3.559191e-01 4.007040e+00 -1.831350e-01 4.178131e+00 -4.854184e-02 4.205554e+00 9.890173e-03 4.156336e+00 2.862847e-02 4.065911e+00 2.697215e-02 3.944643e+00 1.427430e-02 3.793770e+00 -3.228295e-03 
3.791061e+00 3.524624e-02 3.630743e+00 3.288987e-02 3.450672e+00 2.984401e-02 3.538509e+00 2.358172e-02 3.660393e+00 2.514765e-02 3.765150e+00 4.050500e-02 3.781307e+00 5.036108e-02 3.555306e+00 -8.363069e-02 2.515187e+00 -1.634068e+00 2.836668e+00 -1.776042e+00 2.671302e+00 -1.226578e+00 2.389508e+00 -1.737485e+00 2.821786e+00 -2.063422e+00 2.837881e+00 -1.427661e+00 2.310160e+00 -1.742006e+00 2.751785e+00 -2.147371e+00 2.981730e+00 -1.612222e+00 2.298377e+00 -1.643257e+00 2.672551e+00 -2.115163e+00 3.030244e+00 -1.793939e+00 2.341716e+00 -1.521693e+00 2.575404e+00 -2.048334e+00 3.005063e+00 -1.913087e+00 2.505235e+00 -1.421560e+00 2.556473e+00 -2.208080e+00 3.736688e+00 -7.155903e-01 4.236511e+00 -1.649955e-01 4.283805e+00 -7.670483e-03 4.232476e+00 3.966297e-02 4.151834e+00 5.284149e-02 4.051302e+00 5.216221e-02 3.931295e+00 4.478404e-02 
3.981542e+00 1.187041e-02 3.869448e+00 1.633624e-02 3.748944e+00 1.369085e-02 3.779304e+00 9.338129e-03 3.849329e+00 1.128047e-02 3.920346e+00 2.300803e-02 3.947354e+00 4.045554e-02 3.876396e+00 1.932672e-02 3.663339e+00 -4.548937e-01 3.642673e+00 -5.580002e-01 3.577813e+00 -4.613956e-01 3.527012e+00 -6.909906e-01 3.662996e+00 -8.289345e-01 3.623011e+00 -6.405513e-01 3.458135e+00 -8.105972e-01 3.634095e+00 -9.631938e-01 3.674135e+00 -7.617708e-01 3.411032e+00 -8.307328e-01 3.586872e+00 -1.016800e+00 3.693048e+00 -8.780090e-01 3.390973e+00 -8.312280e-01 3.526132e+00 -1.069046e+00 3.691685e+00 -1.001452e+00 3.440758e+00 -8.250544e-01 3.502550e+00 -1.145148e+00 3.998036e+00 -4.753544e-01 4.292743e+00 -1.349608e-01 4.333011e+00 -1.882646e-02 4.301768e+00 1.858117e-02 4.245108e+00 2.729902e-02 4.171648e+00 2.437359e-02 4.083301e+00 1.749490e-02 
4.159871e+00 5.617975e-02 4.094448e+00 6.214821e-02 4.029625e+00 5.987408e-02 4.013165e+00 4.872780e-02 4.038139e+00 3.391487e-02 4.083855e+00 8.174971e-03 4.141387e+00 -4.204714e-02 4.256047e+00 -9.883156e-02 4.696627e+00 5.121277e-01 4.575719e+00 4.686103e-01 4.668163e+00 1.839501e-01 4.809547e+00 3.847171e-01 4.680057e+00 4.698143e-01 4.692293e+00 1.647964e-01 4.905584e+00 3.073197e-01 4.763802e+00 4.534267e-01 4.684145e+00 1.992001e-01 4.934633e+00 2.335668e-01 4.810620e+00 4.241598e-01 4.681389e+00 2.643496e-01 4.920566e+00 1.708253e-01 4.847342e+00 3.936769e-01 4.704662e+00 3.278307e-01 4.881507e+00 1.804725e-01 4.898236e+00 6.477691e-01 4.508817e+00 1.065220e-01 4.399893e+00 6.278602e-03 4.392956e+00 2.299502e-02 4.372466e+00 4.366393e-02 4.334040e+00 5.439727e-02 4.283432e+00 5.770611e-02 4.224315e+00 5.717278e-02 
4.341411e+00 3.954705e-02 4.315845e+00 4.931295e-02 4.299406e+00 4.750123e-02 4.243708e+00 3.819030e-02 4.233086e+00 2.621858e-02 4.255224e+00 6.634816e-03 4.307346e+00 -2.931807e-02 4.425195e+00 -7.756980e-02 4.721112e+00 3.488369e-01 4.697784e+00 3.438046e-01 4.769321e+00 1.945414e-01 4.837484e+00 3.466429e-01 4.746303e+00 3.960556e-01 4.788604e+00 2.105464e-01 4.914303e+00 3.411008e-01 4.794351e+00 4.305067e-01 4.771326e+00 2.566663e-01 4.940780e+00 3.231105e-01 4.817641e+00 4.473567e-01 4.754126e+00 3.201367e-01 4.940589e+00 2.972257e-01 4.846772e+00 4.584806e-01 4.759893e+00 3.889403e-01 4.913721e+00 2.902371e-01 4.855173e+00 5.674746e-01 4.650003e+00 2.065324e-01 4.488721e+00 5.913951e-02 4.461695e+00 3.519642e-02 4.449129e+00 3.644123e-02 4.429580e+00 3.874265e-02 4.403020e+00 3.877314e-02 4.372284e+00 3.811476e-02 
4.510743e+00 7.671729e-02 4.523428e+00 8.752237e-02 4.552429e+00 8.611307e-02 4.464902e+00 7.349074e-02 4.423614e+00 5.679960e-02 4.423153e+00 3.907715e-02 4.462160e+00 3.596250e-02 4.552756e+00 9.047644e-02 4.728344e+00 2.552732e-01 4.756473e+00 3.101107e-01 4.806193e+00 2.788666e-01 4.847808e+00 3.043163e-01 4.809048e+00 3.352226e-01 4.827625e+00 2.949907e-01 4.896375e+00 3.010298e-01 4.846682e+00 3.384627e-01 4.829620e+00 3.156367e-01 4.914008e+00 3.002940e-01 4.867317e+00 3.425149e-01 4.828973e+00 3.433931e-01 4.916189e+00 3.105009e-01 4.885621e+00 3.617737e-01 4.831449e+00 3.894531e-01 4.887813e+00 3.504983e-01 4.859779e+00 3.504261e-01 4.692255e+00 2.147754e-01 4.580444e+00 1.136678e-01 4.540474e+00 7.393224e-02 4.528551e+00 6.513153e-02 4.521742e+00 6.610917e-02 4.514959e+00 6.895729e-02 4.509853e+00 7.214629e-02 
4.679100e+00 6.529180e-02 4.724989e+00 7.850635e-02 4.794029e+00 7.759600e-02 4.676157e+00 6.699445e-02 4.604894e+00 5.182323e-02 4.577025e+00 3.445004e-02 4.590240e+00 3.034386e-02 4.647620e+00 8.277023e-02 4.753947e+00 2.553609e-01 4.811912e+00 2.960467e-01 4.866983e+00 2.811544e-01 4.863432e+00 3.219584e-01 4.827890e+00 3.283259e-01 4.868976e+00 2.955153e-01 4.896099e+00 3.332021e-01 4.841838e+00 3.464885e-01 4.856833e+00 3.143806e-01 4.910828e+00 3.408862e-01 4.849511e+00 3.600813e-01 4.846786e+00 3.362694e-01 4.920843e+00 3.468183e-01 4.866835e+00 3.762235e-01 4.848328e+00 3.649364e-01 4.911513e+00 3.580278e-01 4.851279e+00 3.677609e-01 4.762246e+00 2.387767e-01 4.642887e+00 1.265799e-01 4.604506e+00 7.563076e-02 4.604995e+00 5.918072e-02 4.615859e+00 5.564817e-02 4.630183e+00 5.630317e-02 4.649630e+00 5.923620e-02 
4.835504e+00 9.761790e-02 4.912822e+00 1.123058e-01 5.019500e+00 1.118445e-01 4.876959e+00 1.022792e-01 4.780314e+00 8.831580e-02 4.726908e+00 7.282662e-02 4.713065e+00 6.524618e-02 4.743201e+00 8.379953e-02 4.837896e+00 2.987706e-01 4.865806e+00 3.019718e-01 4.906043e+00 2.752367e-01 4.902725e+00 3.278800e-01 4.863635e+00 3.217119e-01 4.895143e+00 2.765633e-01 4.924775e+00 3.278844e-01 4.872827e+00 3.316711e-01 4.879873e+00 2.837944e-01 4.936861e+00 3.255613e-01 4.882910e+00 3.398922e-01 4.872361e+00 3.018433e-01 4.945949e+00 3.283234e-01 4.900702e+00 3.574341e-01 4.876046e+00 3.313756e-01 4.939584e+00 3.284088e-01 4.898899e+00 3.492116e-01 4.794591e+00 2.206405e-01 4.691743e+00 1.291344e-01 4.670241e+00 9.098008e-02 4.682715e+00 7.954816e-02 4.706881e+00 7.906493e-02 4.738361e+00 8.281688e-02 4.779515e+00 8.887754e-02 
4.988255e+00 9.038094e-02 5.093108e+00 1.069516e-01 5.233134e+00 1.070133e-01 5.064557e+00 1.008245e-01 4.939948e+00 8.941765e-02 4.855729e+00 7.042995e-02 4.809593e+00 3.818334e-02 4.817387e+00 -3.391437e-03 4.916614e+00 3.350327e-01 4.915230e+00 2.791969e-01 4.955332e+00 2.146710e-01 4.935182e+00 3.463523e-01 4.866103e+00 3.209679e-01 4.913283e+00 2.130578e-01 4.948351e+00 3.594181e-01 4.858404e+00 3.615218e-01 4.872635e+00 2.275015e-01 4.958990e+00 3.563456e-01 4.862456e+00 3.861097e-01 4.850646e+00 2.578541e-01 4.971863e+00 3.417633e-01 4.886550e+00 4.055006e-01 4.860919e+00 2.935728e-01 4.986922e+00 3.090001e-01 4.933341e+00 4.930758e-01 4.827265e+00 2.220700e-01 4.712549e+00 1.010925e-01 4.721909e+00 7.457010e-02 4.756240e+00 7.010688e-02 4.797462e+00 7.108112e-02 4.846739e+00 7.453400e-02 4.908403e+00 8.057823e-02 
5.129210e+00 1.189587e-01 5.259813e+00 1.373230e-01 5.431116e+00 1.378500e-01 5.241991e+00 1.353587e-01 5.095971e+00 1.297807e-01 4.987978e+00 1.207887e-01 4.910838e+00 1.034723e-01 4.852164e+00 7.547112e-02 4.784779e+00 -9.055909e-03 4.733616e+00 -1.735373e-02 4.703515e+00 -2.713620e-02 4.707047e+00 -8.852722e-03 4.689276e+00 1.343685e-02 4.669447e+00 9.351667e-04 4.681333e+00 2.208429e-02 4.665718e+00 4.299781e-02 4.648529e+00 2.384564e-02 4.672571e+00 4.472090e-02 4.661782e+00 6.913269e-02 4.643911e+00 5.053773e-02 4.678334e+00 6.756470e-02 4.677319e+00 1.002911e-01 4.662553e+00 8.416779e-02 4.709112e+00 9.097249e-02 4.747997e+00 1.782327e-01 4.702211e+00 8.438454e-02 4.728150e+00 6.749663e-02 4.780917e+00 7.502944e-02 4.830774e+00 8.306168e-02 4.884083e+00 8.998730e-02 4.947774e+00 9.732984e-02 5.027472e+00 1.064913e-01 
5.264624e+00 1.146746e-01 5.417965e+00 1.341240e-01 5.616945e+00 1.351477e-01 5.406465e+00 1.371931e-01 5.236192e+00 1.410169e-01 5.094836e+00 1.547093e-01 4.955937e+00 1.840033e-01 4.747118e+00 2.003989e-01 4.335386e+00 -6.547052e-01 4.214978e+00 -5.920305e-01 4.021053e+00 -4.795863e-01 4.007782e+00 -7.741135e-01 4.126344e+00 -7.138534e-01 3.971934e+00 -4.737892e-01 3.858494e+00 -7.798794e-01 4.045804e+00 -7.761723e-01 3.993827e+00 -4.796224e-01 3.785222e+00 -7.371527e-01 4.002392e+00 -7.921703e-01 4.032192e+00 -5.138697e-01 3.771693e+00 -6.705003e-01 3.985241e+00 -7.972598e-01 4.074035e+00 -5.653335e-01 3.845256e+00 -5.921736e-01 4.034224e+00 -9.578309e-01 4.372107e+00 -3.260674e-01 4.735847e+00 -2.714567e-02 4.846821e+00 5.510813e-02 4.906890e+00 7.771046e-02 4.969757e+00 8.626807e-02 5.046773e+00 9.295697e-02 5.143162e+00 1.016961e-01 
5.388309e+00 1.398074e-01 5.562736e+00 1.604880e-01 5.787490e+00 1.619375e-01 5.559944e+00 1.656484e-01 5.371959e+00 1.706116e-01 5.211856e+00 1.842407e-01 5.056836e+00 2.114254e-01 4.859856e+00 2.224603e-01 4.580163e+00 -3.055052e-01 4.423747e+00 -2.992701e-01 4.259657e+00 -2.518310e-01 4.233066e+00 -4.827062e-01 4.290100e+00 -4.685508e-01 4.162756e+00 -3.178078e-01 4.079314e+00 -5.600430e-01 4.207726e+00 -5.735048e-01 4.159278e+00 -3.658409e-01 4.004612e+00 -5.764343e-01 4.170366e+00 -6.282937e-01 4.189854e+00 -4.229528e-01 3.989050e+00 -5.624143e-01 4.162405e+00 -6.720099e-01 4.236429e+00 -4.951382e-01 4.053009e+00 -5.333372e-01 4.207234e+00 -8.280663e-01 4.489059e+00 -3.075336e-01 4.803732e+00 -2.825536e-02 4.909799e+00 5.995216e-02 4.975845e+00 8.926235e-02 5.048196e+00 1.026223e-01 5.137404e+00 1.128505e-01 5.248840e+00 1.244334e-01 
5.505059e+00 1.370441e-01 5.698317e+00 1.570269e-01 5.945633e+00 1.588893e-01 5.702951e+00 1.613163e-01 5.500678e+00 1.598128e-01 5.333088e+00 1.524375e-01 5.197077e+00 1.299773e-01 5.109505e+00 8.335671e-02 5.133508e+00 3.671294e-01 5.042474e+00 2.963925e-01 5.024245e+00 2.254699e-01 4.982100e+00 3.138368e-01 4.896310e+00 2.772848e-01 4.902154e+00 1.764752e-01 4.921954e+00 2.740676e-01 4.844320e+00 2.685051e-01 4.836353e+00 1.556802e-01 4.899646e+00 2.352021e-01 4.835550e+00 2.536215e-01 4.819273e+00 1.510956e-01 4.907412e+00 1.911958e-01 4.867064e+00 2.314360e-01 4.856619e+00 1.467904e-01 4.952950e+00 1.476805e-01 4.959332e+00 3.077702e-01 4.904837e+00 1.142640e-01 4.900335e+00 7.447209e-02 4.962973e+00 8.494160e-02 5.036596e+00 9.597087e-02 5.121152e+00 1.038255e-01 5.223327e+00 1.116440e-01 5.349188e+00 1.220610e-01 
5.610276e+00 1.588487e-01 5.820662e+00 1.794154e-01 6.088804e+00 1.816526e-01 5.834063e+00 1.850216e-01 5.620803e+00 1.833236e-01 5.445163e+00 1.730725e-01 5.308878e+00 1.434956e-01 5.232577e+00 9.160475e-02 5.236583e+00 3.670912e-01 5.179568e+00 3.144423e-01 5.158782e+00 2.586517e-01 5.099902e+00 3.630691e-01 5.016845e+00 3.274981e-01 5.033912e+00 2.301261e-01 5.041108e+00 3.518791e-01 4.957755e+00 3.419444e-01 4.963483e+00 2.187321e-01 5.024652e+00 3.285721e-01 4.944952e+00 3.451354e-01 4.939473e+00 2.247101e-01 5.038109e+00 2.960682e-01 4.974203e+00 3.443693e-01 4.968428e+00 2.384794e-01 5.083473e+00 2.558107e-01 5.054973e+00 4.267001e-01 5.015750e+00 2.045217e-01 4.963853e+00 1.116722e-01 5.017985e+00 1.037797e-01 5.096272e+00 1.111281e-01 5.189046e+00 1.198512e-01 5.301523e+00 1.296539e-01 5.439779e+00 1.421254e-01 
5.707707e+00 1.572295e-01 5.933222e+00 1.765398e-01 6.219388e+00 1.791186e-01 5.954590e+00 1.824467e-01 5.732149e+00 1.815924e-01 5.550095e+00 1.777434e-01 5.409362e+00 1.745756e-01 5.314827e+00 1.868682e-01 5.266087e+00 2.783952e-01 5.208932e+00 2.912433e-01 5.168400e+00 2.853405e-01 5.114768e+00 3.145919e-01 5.054159e+00 3.119097e-01 5.041265e+00 2.876239e-01 5.029962e+00 3.164101e-01 4.982974e+00 3.175413e-01 4.976681e+00 2.870078e-01 4.997093e+00 3.096963e-01 4.962331e+00 3.153834e-01 4.960401e+00 2.859228e-01 5.004835e+00 2.969884e-01 4.986712e+00 3.095380e-01 4.991816e+00 2.850073e-01 5.049250e+00 2.825356e-01 5.051198e+00 3.033358e-01 5.041245e+00 2.165541e-01 5.031923e+00 1.534933e-01 5.077659e+00 1.293776e-01 5.154205e+00 1.233593e-01 5.252723e+00 1.248698e-01 5.374484e+00 1.309530e-01 5.524095e+00 1.415058e-01 
5.793716e+00 1.761889e-01 6.032734e+00 1.957230e-01 6.335228e+00 1.986140e-01 6.061767e+00 2.026666e-01 5.831117e+00 2.022597e-01 5.641081e+00 1.990452e-01 5.491368e+00 1.987622e-01 5.381167e+00 2.176860e-01 5.303074e+00 2.764034e-01 5.250898e+00 2.914756e-01 5.203119e+00 2.938153e-01 5.138810e+00 3.089956e-01 5.085907e+00 3.030861e-01 5.068166e+00 2.911343e-01 5.042216e+00 3.060578e-01 5.005795e+00 3.007363e-01 5.001960e+00 2.840556e-01 5.005249e+00 2.971726e-01 4.980734e+00 2.941908e-01 4.986010e+00 2.771625e-01 5.013047e+00 2.856637e-01 5.002231e+00 2.866430e-01 5.016719e+00 2.707993e-01 5.059615e+00 2.720804e-01 5.062607e+00 2.715227e-01 5.076110e+00 2.172236e-01 5.078726e+00 1.673685e-01 5.125727e+00 1.441342e-01 5.205333e+00 1.377598e-01 5.309655e+00 1.398886e-01 5.439311e+00 1.472569e-01 5.598625e+00 1.592558e-01 
5.871423e+00 1.753987e-01 6.121981e+00 1.939544e-01 6.438337e+00 1.971368e-01 6.157174e+00 2.025674e-01 5.918695e+00 2.051772e-01 5.720395e+00 2.078709e-01 5.560491e+00 2.155263e-01 5.435976e+00 2.343701e-01 5.342634e+00 2.633798e-01 5.271574e+00 2.807265e-01 5.211996e+00 2.892266e-01 5.152218e+00 2.972557e-01 5.100865e+00 2.996359e-01 5.070073e+00 2.981642e-01 5.042602e+00 3.011588e-01 5.013142e+00 3.002077e-01 5.001058e+00 2.961177e-01 4.997558e+00 2.966744e-01 4.984549e+00 2.940667e-01 4.986406e+00 2.886671e-01 5.002506e+00 2.866919e-01 5.005403e+00 2.827563e-01 5.019930e+00 2.746043e-01 5.051529e+00 2.646273e-01 5.070796e+00 2.457457e-01 5.091580e+00 2.122361e-01 5.116893e+00 1.787879e-01 5.170846e+00 1.570642e-01 5.253372e+00 1.467872e-01 5.362242e+00 1.448590e-01 5.498613e+00 1.493027e-01 5.666392e+00 1.594832e-01 
5.937743e+00 1.919335e-01 6.198360e+00 2.106240e-01 6.526865e+00 2.140543e-01 6.239252e+00 2.201219e-01 5.994287e+00 2.232752e-01 5.788872e+00 2.263417e-01 5.620611e+00 2.337079e-01 5.485975e+00 2.494794e-01 5.381989e+00 2.705931e-01 5.304705e+00 2.843182e-01 5.239253e+00 2.914257e-01 5.175764e+00 2.958915e-01 5.124004e+00 2.958981e-01 5.089497e+00 2.939471e-01 5.058205e+00 2.938221e-01 5.030536e+00 2.908332e-01 5.017448e+00 2.867796e-01 5.009803e+00 2.852164e-01 4.999531e+00 2.812620e-01 5.002190e+00 2.764125e-01 5.013835e+00 2.735423e-01 5.019446e+00 2.685743e-01 5.036249e+00 2.611638e-01 5.064486e+00 2.519879e-01 5.086753e+00 2.354805e-01 5.115982e+00 2.096726e-01 5.149641e+00 1.838249e-01 5.207824e+00 1.662624e-01 5.293831e+00 1.581579e-01 5.407146e+00 1.577748e-01 5.549297e+00 1.636115e-01 5.724214e+00 1.750532e-01 
5.995363e+00 1.913278e-01 6.264141e+00 2.094001e-01 6.602553e+00 2.130596e-01 6.308816e+00 2.205281e-01 6.057389e+00 2.258336e-01 5.844786e+00 2.314578e-01 5.668414e+00 2.400746e-01 5.524964e+00 2.529191e-01 5.411306e+00 2.671814e-01 5.321524e+00 2.785852e-01 5.247736e+00 2.859484e-01 5.183309e+00 2.906689e-01 5.129833e+00 2.933020e-01 5.089851e+00 2.938950e-01 5.057390e+00 2.935222e-01 5.030456e+00 2.923578e-01 5.013880e+00 2.903893e-01 5.004419e+00 2.876318e-01 4.997003e+00 2.841562e-01 4.998219e+00 2.802028e-01 5.007559e+00 2.750555e-01 5.017619e+00 2.683949e-01 5.035370e+00 2.597295e-01 5.062861e+00 2.468712e-01 5.092357e+00 2.285497e-01 5.127477e+00 2.074586e-01 5.172574e+00 1.872654e-01 5.238294e+00 1.719162e-01 5.328994e+00 1.631587e-01 5.446631e+00 1.610110e-01 5.593838e+00 1.650824e-01 5.774803e+00 1.752130e-01 
6.041647e+00 2.057124e-01 6.317187e+00 2.239486e-01 6.663780e+00 2.277850e-01 6.365594e+00 2.356771e-01 6.109636e+00 2.411826e-01 5.892015e+00 2.464776e-01 5.710054e+00 2.537599e-01 5.560627e+00 2.637788e-01 5.440994e+00 2.743980e-01 5.346218e+00 2.826451e-01 5.268301e+00 2.875674e-01 5.201297e+00 2.899585e-01 5.146398e+00 2.903888e-01 5.104338e+00 2.891695e-01 5.070241e+00 2.870785e-01 5.043248e+00 2.843626e-01 5.025893e+00 2.811107e-01 5.015118e+00 2.773462e-01 5.008265e+00 2.731726e-01 5.009465e+00 2.686812e-01 5.017579e+00 2.633252e-01 5.028499e+00 2.568698e-01 5.047098e+00 2.487998e-01 5.074179e+00 2.376027e-01 5.105561e+00 2.226785e-01 5.144911e+00 2.056565e-01 5.194816e+00 1.898224e-01 5.264122e+00 1.780567e-01 5.357793e+00 1.719281e-01 5.478630e+00 1.717469e-01 5.629718e+00 1.773711e-01 5.815420e+00 1.887341e-01 
6.078890e+00 2.046072e-01 6.359409e+00 2.224645e-01 6.712091e+00 2.264551e-01 6.409528e+00 2.352425e-01 6.148947e+00 2.418136e-01 5.926276e+00 2.479394e-01 5.738904e+00 2.550477e-01 5.583758e+00 2.633794e-01 5.457578e+00 2.716514e-01 5.355465e+00 2.785430e-01 5.272004e+00 2.833557e-01 5.202563e+00 2.863889e-01 5.145734e+00 2.880561e-01 5.101039e+00 2.882492e-01 5.065743e+00 2.872657e-01 5.038320e+00 2.856541e-01 5.019520e+00 2.832802e-01 5.007954e+00 2.798805e-01 5.001792e+00 2.758758e-01 5.002691e+00 2.711372e-01 5.010530e+00 2.649561e-01 5.023339e+00 2.573616e-01 5.043329e+00 2.479257e-01 5.071738e+00 2.355617e-01 5.107015e+00 2.206364e-01 5.150919e+00 2.051836e-01 5.207270e+00 1.912101e-01 5.282068e+00 1.804391e-01 5.379853e+00 1.741747e-01 5.504169e+00 1.731379e-01 5.658762e+00 1.777037e-01 5.848325e+00 1.881741e-01 
6.104890e+00 2.170984e-01 6.388987e+00 2.351780e-01 6.746022e+00 2.392671e-01 6.441110e+00 2.481971e-01 6.178175e+00 2.546172e-01 5.952892e+00 2.600476e-01 5.762648e+00 2.657228e-01 5.604471e+00 2.718841e-01 5.475207e+00 2.776657e-01 5.370345e+00 2.820745e-01 5.284630e+00 2.846305e-01 5.213720e+00 2.855806e-01 5.155993e+00 2.852435e-01 5.110378e+00 2.836523e-01 5.074411e+00 2.811488e-01 5.046825e+00 2.781494e-01 5.027694e+00 2.745862e-01 5.015674e+00 2.703756e-01 5.009570e+00 2.658035e-01 5.010362e+00 2.607005e-01 5.017771e+00 2.546070e-01 5.030756e+00 2.475261e-01 5.051002e+00 2.390552e-01 5.079441e+00 2.285210e-01 5.115646e+00 2.163364e-01 5.161589e+00 2.038836e-01 5.220372e+00 1.929774e-01 5.297250e+00 1.850471e-01 5.396778e+00 1.811935e-01 5.522819e+00 1.821140e-01 5.679400e+00 1.882318e-01 5.871384e+00 1.998819e-01 
6.121585e+00 2.149729e-01 6.407596e+00 2.328070e-01 6.766991e+00 2.369683e-01 6.459718e+00 2.462877e-01 6.194247e+00 2.530678e-01 5.966228e+00 2.586467e-01 5.773064e+00 2.639932e-01 5.611700e+00 2.693221e-01 5.478731e+00 2.741981e-01 5.369950e+00 2.781401e-01 5.281059e+00 2.808701e-01 5.208277e+00 2.824748e-01 5.149240e+00 2.830952e-01 5.102346e+00 2.826662e-01 5.065629e+00 2.813092e-01 5.037666e+00 2.792786e-01 5.017969e+00 2.764895e-01 5.005634e+00 2.728174e-01 4.999764e+00 2.684152e-01 5.000660e+00 2.631219e-01 5.008321e+00 2.565756e-01 5.022374e+00 2.487474e-01 5.043817e+00 2.394307e-01 5.073644e+00 2.283681e-01 5.112218e+00 2.161663e-01 5.161190e+00 2.041562e-01 5.223692e+00 1.936924e-01 5.303969e+00 1.858872e-01 5.406166e+00 1.817108e-01 5.534290e+00 1.819589e-01 5.692654e+00 1.872742e-01 5.886338e+00 1.982154e-01 
6.127147e+00 2.258728e-01 6.413617e+00 2.439818e-01 6.773622e+00 2.481583e-01 6.466207e+00 2.573408e-01 6.200653e+00 2.637123e-01 5.972444e+00 2.684477e-01 5.778937e+00 2.724576e-01 5.617087e+00 2.760274e-01 5.483516e+00 2.789250e-01 5.374181e+00 2.808237e-01 5.284896e+00 2.815697e-01 5.212004e+00 2.812806e-01 5.153066e+00 2.800916e-01 5.106266e+00 2.780234e-01 5.069685e+00 2.752440e-01 5.041950e+00 2.719644e-01 5.022360e+00 2.681542e-01 5.010005e+00 2.637803e-01 5.004164e+00 2.589469e-01 5.004949e+00 2.535130e-01 5.012319e+00 2.472409e-01 5.026175e+00 2.401023e-01 5.047405e+00 2.319317e-01 5.076950e+00 2.226151e-01 5.115561e+00 2.126754e-01 5.165018e+00 2.031196e-01 5.228158e+00 1.951273e-01 5.308890e+00 1.896774e-01 5.411288e+00 1.876139e-01 5.539455e+00 1.896560e-01 5.697842e+00 1.964140e-01 5.891636e+00 2.084301e-01 
6.123252e+00 2.223717e-01 6.408598e+00 2.402982e-01 6.767276e+00 2.444622e-01 6.459692e+00 2.536454e-01 6.193816e+00 2.599819e-01 5.965210e+00 2.646307e-01 5.771186e+00 2.684234e-01 5.608576e+00 2.716856e-01 5.473887e+00 2.743851e-01 5.363267e+00 2.763961e-01 5.272911e+00 2.776417e-01 5.199413e+00 2.781574e-01 5.140144e+00 2.779774e-01 5.093075e+00 2.770585e-01 5.056383e+00 2.754269e-01 5.028661e+00 2.731501e-01 5.009026e+00 2.701633e-01 4.996695e+00 2.663876e-01 4.991068e+00 2.618281e-01 4.992082e+00 2.563654e-01 4.999784e+00 2.498295e-01 5.014295e+00 2.421995e-01 5.036324e+00 2.334555e-01 5.066805e+00 2.236966e-01 5.106736e+00 2.134891e-01 5.157837e+00 2.037673e-01 5.222800e+00 1.955248e-01 5.305082e+00 1.896450e-01 5.408474e+00 1.869469e-01 5.537040e+00 1.882023e-01 5.695315e+00 1.941358e-01 5.888590e+00 2.054272e-01 
6.108313e+00 2.320202e-01 6.391016e+00 2.502571e-01 6.746593e+00 2.543511e-01 6.441156e+00 2.631392e-01 6.177524e+00 2.688773e-01 5.951149e+00 2.726141e-01 5.759237e+00 2.751622e-01 5.598560e+00 2.769031e-01 5.465593e+00 2.779101e-01 5.356529e+00 2.781502e-01 5.267610e+00 2.776242e-01 5.195477e+00 2.764116e-01 5.137479e+00 2.745799e-01 5.091512e+00 2.721481e-01 5.055756e+00 2.691868e-01 5.028810e+00 2.657758e-01 5.009726e+00 2.618971e-01 4.997710e+00 2.575244e-01 4.992212e+00 2.526662e-01 4.993117e+00 2.472329e-01 5.000467e+00 2.411129e-01 5.014468e+00 2.342938e-01 5.035818e+00 2.267711e-01 5.065462e+00 2.186659e-01 5.104541e+00 2.104510e-01 5.154834e+00 2.028752e-01 5.218902e+00 1.967902e-01 5.300043e+00 1.929764e-01 5.401975e+00 1.921599e-01 5.528774e+00 1.950350e-01 5.685025e+00 2.022702e-01 5.876065e+00 2.145054e-01 