# vtk DataFile Version 2.0
Comment goes here
ASCII

DATASET STRUCTURED_POINTS
FIELD FieldData 1
TIME 1 1 double
0.13000000
DIMENSIONS    128   16   1

ORIGIN    0.000   0.000   0.000
SPACING   0.0078125 0.015625   1.000

POINT_DATA   2048
SCALARS fMag double
LOOKUP_TABLE default

0 0 0 0 0 0 0 0 0 0 0 0 0 0 0 0 0 0 0 0 0 0 0 0 0 0 0 0 0 0 0 0 0 0 0 0 0 0 0 0 0 0 0 0 0 0 0 0 0 0 0 0 0 0 0 0 0 0 0 0 0 0 0 0 0 0 0 0 0 0 0 0 0 0 0 0 0 0 0 0 0 0 0 0 0 0 0 0 0 0 0 0 0 0 0 0 0 0 0 0 0 0 0 0 0 0 0 0 0 0 0 0 0 0 0 0 0 0 0 0 0 0 0 0 0 0 0 0 
0 0 0 0 0 0 0 0 0 0 0 0 0 0 0 0 0 0 0 0 0 0 0 0 0 0 0 0 0 0 0 0 0 0 0 0 0 0 0 0 0 0 0 0 0 0 0 0 0 0 0 0 0 0 0 0 0 0 0 0 0 0 0 0 0 0 0 0 0 0 0 0 0 0 0 0 0 0 0 0 0 0 0 0 0 0 0 0 0 0 0 0 0 0 0 0 0 0 0 0 0 0 0 0 0 0 0 0 0 0 0 0 0 0 0 0 0 0 0 0 0 0 0 0 0 0 0 0 
0 0 0 0 0 1.704599e+00 6.737795e-01 1.687732e+00 7.608788e-01 4.978181e-01 4.716354e-01 2.440117e-01 6.728389e-01 1.053511e+00 1.623113e+00 1.766694e+00 3.390332e+00 3.812263e+00 4.957693e+00 6.349644e+00 6.464917e+00 6.616472e+00 5.401699e+00 3.983123e+00 3.309262e+00 4.675652e+00 7.664649e+00 9.685974e+00 9.663245e+00 8.008528e+00 6.448494e+00 4.663607e+00 4.373392e+00 5.557756e+00 7.100903e+00 7.569606e+00 7.181767e+00 5.861536e+00 4.567924e+00 3.750609e+00 4.192781e+00 5.090863e+00 6.092559e+00 6.612265e+00 6.597431e+00 6.250411e+00 5.399891e+00 4.639174e+00 4.271831e+00 4.509616e+00 5.004885e+00 5.256552e+00 4.784481e+00 3.928307e+00 3.860330e+00 4.176205e+00 4.929961e+00 4.788806e+00 4.220566e+00 2.118825e+00 9.751352e-01 4.594915e+00 4.871212e+00 2.917423e+00 1.899791e+00 2.157278e+00 1.604462e+00 2.079573e+00 2.864323e+00 4.416130e+00 8.329600e+00 6.615410e+00 4.272971e+00 3.425658e+00 2.794805e+00 3.165926e+00 4.377036e+00 4.368431e+00 4.027618e+00 4.312351e+00 4.158025e+00 3.450862e+00 2.619368e+00 2.043487e+00 1.563997e+00 1.705838e+00 1.753241e+00 2.609194e+00 2.988662e+00 2.620387e+00 1.871169e+00 2.761391e+00 3.796789e+00 4.287627e+00 4.086154e+00 3.021894e+00 1.794864e+00 1.187324e+00 9.979930e-01 7.015116e-01 2.454282e+00 3.804385e+00 3.691161e+00 2.165449e+00 2.569817e+00 2.535124e+00 2.264388e+00 1.713327e+00 2.471173e+00 1.748249e+00 8.706715e-01 8.434292e-01 2.438799e+00 2.294022e+00 9.981225e-01 7.136438e-01 6.485555e-01 1.474391e+00 1.774119e+00 2.497112e+00 1.077416e+00 1.629946e+00 6.777404e-01 6.260891e-01 0 0 0 0 
0 0 0 0 0 5.014280e+00 1.973551e+00 4.949575e+00 2.233499e+00 1.461632e+00 1.387692e+00 7.166513e-01 1.978821e+00 3.098698e+00 4.774292e+00 5.196478e+00 9.972245e+00 1.121330e+01 1.458264e+01 1.867732e+01 1.901660e+01 1.946264e+01 1.588950e+01 1.171650e+01 9.734341e+00 1.375367e+01 2.254605e+01 2.849251e+01 2.842573e+01 2.355759e+01 1.896832e+01 1.371769e+01 1.286397e+01 1.634796e+01 2.088740e+01 2.226617e+01 2.112527e+01 1.724157e+01 1.343623e+01 1.103208e+01 1.233274e+01 1.497451e+01 1.792120e+01 1.944998e+01 1.940632e+01 1.838551e+01 1.588354e+01 1.364581e+01 1.256522e+01 1.326467e+01 1.472156e+01 1.546186e+01 1.407322e+01 1.155477e+01 1.135481e+01 1.228396e+01 1.464812e+01 1.505248e+01 1.421916e+01 1.036250e+01 9.129079e+00 1.049055e+01 6.677227e+00 6.581393e+00 5.326516e+00 5.884302e+00 2.019886e+00 2.964272e+00 5.009637e+00 1.885970e+01 2.073768e+01 1.531256e+01 1.221975e+01 1.007626e+01 8.220550e+00 9.312235e+00 1.287479e+01 1.284949e+01 1.184692e+01 1.268444e+01 1.223046e+01 1.015034e+01 7.704485e+00 6.010578e+00 4.600218e+00 5.017425e+00 5.156883e+00 7.674605e+00 8.790709e+00 7.707509e+00 5.503979e+00 8.122657e+00 1.116816e+01 1.261198e+01 1.201935e+01 8.888801e+00 5.279652e+00 3.492299e+00 2.935411e+00 2.063450e+00 7.218991e+00 1.119019e+01 1.085731e+01 6.369783e+00 7.559463e+00 7.457590e+00 6.661442e+00 5.040976e+00 7.270534e+00 5.144589e+00 2.563551e+00 2.481480e+00 7.172610e+00 6.746082e+00 2.933302e+00 2.100409e+00 1.908529e+00 4.337264e+00 5.219871e+00 7.351582e+00 3.202084e+00 4.827604e+00 1.999826e+00 1.840946e+00 0 0 0 0 
0 0 0 0 0 3.464018e+00 1.359296e+00 3.412006e+00 1.540694e+00 1.008404e+00 9.588163e-01 4.945331e-01 1.366830e+00 9.099164e+00 8.433642e+00 1.177527e+01 1.728616e+01 1.258161e+01 1.827151e+01 1.372133e+01 1.174200e+01 1.344514e+01 1.097684e+01 8.093953e+00 6.724661e+00 9.501307e+00 1.557530e+01 1.968354e+01 1.963744e+01 1.627409e+01 1.310356e+01 9.476188e+00 8.886394e+00 1.129326e+01 1.442929e+01 1.538180e+01 1.459361e+01 1.191060e+01 9.281739e+00 7.620920e+00 8.519439e+00 1.034443e+01 1.238014e+01 1.343627e+01 1.340609e+01 1.270088e+01 1.097241e+01 9.426519e+00 8.680009e+00 9.163209e+00 1.016967e+01 1.068108e+01 9.721778e+00 7.981993e+00 7.843862e+00 8.485727e+00 1.047864e+01 1.318835e+01 1.366609e+01 1.394690e+01 1.362623e+01 7.811389e+00 2.376863e+00 4.509294e+00 4.728923e+00 5.648028e+00 6.875192e+00 9.068465e+00 1.445916e+01 1.895877e+01 1.370042e+01 9.660047e+00 8.475864e+00 6.960644e+00 5.678667e+00 6.432832e+00 8.893916e+00 8.876448e+00 8.183828e+00 8.762384e+00 8.448756e+00 7.011791e+00 5.322157e+00 4.152010e+00 3.177746e+00 3.465949e+00 3.562298e+00 5.301537e+00 6.072505e+00 5.324259e+00 3.802178e+00 5.611233e+00 7.715040e+00 8.712455e+00 8.303070e+00 6.140434e+00 3.647272e+00 2.412415e+00 2.027724e+00 1.425431e+00 4.986823e+00 7.730112e+00 7.500229e+00 4.400372e+00 5.222328e+00 5.152039e+00 4.602158e+00 3.482956e+00 5.023331e+00 3.554964e+00 1.772126e+00 1.714493e+00 4.954377e+00 4.659404e+00 2.025061e+00 1.451579e+00 1.318822e+00 2.996396e+00 3.606575e+00 5.081621e+00 2.227968e+00 3.351088e+00 1.384590e+00 1.271409e+00 0 0 0 0 
0 0 0 0 0 1.543370e-01 5.952453e-02 1.501636e-01 6.807413e-02 4.459040e-02 4.275960e-02 2.189359e-02 6.084735e-02 1.086538e+01 1.192008e+01 1.120505e+01 1.249971e+01 1.146566e+01 1.195094e+01 1.163957e+01 9.633871e+00 5.989776e-01 4.890366e-01 3.605797e-01 2.995824e-01 4.232859e-01 6.938951e-01 8.769955e-01 8.749518e-01 7.250269e-01 5.837353e-01 4.220996e-01 3.958185e-01 5.030601e-01 6.427947e-01 6.852368e-01 6.501158e-01 5.305664e-01 4.134356e-01 3.394488e-01 3.794770e-01 4.607831e-01 5.514925e-01 5.985478e-01 5.972004e-01 5.657793e-01 4.887602e-01 4.198848e-01 3.866235e-01 4.081504e-01 4.529917e-01 4.757755e-01 4.330370e-01 3.555323e-01 3.493788e-01 3.779722e-01 8.568080e-01 3.625585e+00 4.434957e+00 5.951609e+00 5.997484e+00 2.007494e+00 1.200772e+00 2.739845e+00 4.339956e+00 4.640416e+00 5.689055e+00 5.836014e+00 6.923874e+00 4.669933e+00 9.099325e-01 5.117079e-01 4.527392e-01 3.100388e-01 2.529229e-01 2.865228e-01 3.961659e-01 3.953896e-01 3.645270e-01 3.902969e-01 3.763223e-01 3.123100e-01 2.370394e-01 1.849184e-01 1.415250e-01 1.543617e-01 1.586564e-01 2.361265e-01 2.704584e-01 2.371365e-01 1.693682e-01 2.499674e-01 3.436710e-01 3.881053e-01 3.698698e-01 2.735267e-01 1.624830e-01 1.074397e-01 9.030644e-02 6.349314e-02 2.221142e-01 3.443045e-01 3.340838e-01 1.960380e-01 2.326825e-01 2.295730e-01 2.051045e-01 1.553066e-01 2.239695e-01 1.586238e-01 7.924713e-02 7.644250e-02 2.205662e-01 2.073440e-01 8.988155e-02 6.481457e-02 5.884849e-02 1.335230e-01 1.608227e-01 2.271510e-01 1.032998e-01 1.534279e-01 6.250357e-02 5.655211e-02 0 0 0 0 
0 0 0 0 0 0 0 0 0 0 0 0 0 1.199559e+01 1.281602e+01 1.229243e+01 1.322788e+01 1.246540e+01 1.266793e+01 1.258406e+01 1.100714e+01 0 0 0 0 0 0 0 0 0 0 0 0 0 0 0 0 0 0 0 0 0 0 0 0 0 0 0 0 0 0 0 0 0 0 0 1.868018e-01 1.320103e+00 1.514315e+00 1.409652e+00 1.460851e+00 1.149576e+00 1.108028e+00 1.161354e+00 1.487200e+00 1.357607e+00 1.608361e+00 1.259612e+00 8.526939e-01 5.758456e-01 1.221979e-01 1.728465e-01 3.449797e-02 0 0 0 0 0 0 0 0 0 0 0 0 0 0 0 0 0 0 0 0 0 0 0 0 0 0 0 0 0 0 0 0 0 0 0 0 0 0 0 0 0 0 0 0 0 0 0 0 0 0 0 0 0 0 0 
0 0 0 0 0 0 0 0 0 0 0 0 0 1.235253e+01 1.291651e+01 1.233578e+01 1.273525e+01 1.242545e+01 1.244964e+01 1.259477e+01 1.214294e+01 0 0 0 0 0 0 0 0 0 0 0 0 0 0 0 0 0 0 0 0 0 0 0 0 0 0 0 0 0 0 0 0 0 0 0 1.093677e-01 7.284979e-01 7.614713e-01 1.853824e-01 1.044737e-01 2.899821e-01 3.388892e-01 3.492478e-01 4.423666e-01 4.749185e-01 6.797847e-01 3.659161e-01 9.433457e-02 1.590647e-01 5.211783e-01 4.032367e-01 3.310282e-02 0 0 0 0 0 0 0 0 0 0 0 0 0 0 0 0 0 0 0 0 0 0 0 0 0 0 0 0 0 0 0 0 0 0 0 0 0 0 0 0 0 0 0 0 0 0 0 0 0 0 0 0 0 0 0 
0 0 0 0 0 0 0 0 0 0 0 0 0 1.288790e+01 1.341965e+01 1.287763e+01 1.324168e+01 1.298830e+01 1.290841e+01 1.319810e+01 1.254756e+01 0 0 0 0 0 0 0 0 0 0 0 0 0 0 0 0 0 0 0 0 0 0 0 0 0 0 0 0 0 0 0 0 0 0 0 9.930784e-02 6.567128e-01 7.132161e-01 3.872904e-01 3.238834e-01 3.148850e-01 3.493703e-01 5.103204e-01 6.980394e-01 7.384688e-01 9.795382e-01 7.256278e-01 4.953828e-01 4.536605e-01 4.693399e-01 3.806018e-01 3.954576e-02 0 0 0 0 0 0 0 0 0 0 0 0 0 0 0 0 0 0 0 0 0 0 0 0 0 0 0 0 0 0 0 0 0 0 0 0 0 0 0 0 0 0 0 0 0 0 0 0 0 0 0 0 0 0 0 
0 0 0 0 0 0 0 0 0 0 0 0 0 1.261101e+01 1.313464e+01 1.252621e+01 1.286472e+01 1.256433e+01 1.251800e+01 1.274375e+01 1.227775e+01 0 0 0 0 0 0 0 0 0 0 0 0 0 0 0 0 0 0 0 0 0 0 0 0 0 0 0 0 0 0 0 0 0 0 0 2.806413e-01 1.848970e+00 2.116048e+00 2.260459e+00 2.398801e+00 2.378074e+00 2.595378e+00 2.776069e+00 3.370637e+00 2.898476e+00 3.224241e+00 2.733149e+00 2.662501e+00 2.316766e+00 1.960230e+00 1.548730e+00 1.522195e-01 0 0 0 0 0 0 0 0 0 0 0 0 0 0 0 0 0 0 0 0 0 0 0 0 0 0 0 0 0 0 0 0 0 0 0 0 0 0 0 0 0 0 0 0 0 0 0 0 0 0 0 0 0 0 0 
0 0 0 0 0 0 0 0 0 0 0 0 0 1.239457e+01 1.314870e+01 1.243703e+01 1.331957e+01 1.258749e+01 1.270959e+01 1.290448e+01 1.141401e+01 0 0 0 0 0 0 0 0 0 0 0 0 0 0 0 0 0 0 0 0 0 0 0 0 0 0 0 0 0 0 0 0 0 0 0 2.304512e-01 1.522560e+00 1.726151e+00 1.672695e+00 1.728894e+00 1.548488e+00 1.624957e+00 2.160233e+00 2.864866e+00 2.569962e+00 2.985113e+00 2.460269e+00 2.251566e+00 1.891124e+00 1.411450e+00 1.106281e+00 1.081652e-01 0 0 0 0 0 0 0 0 0 0 0 0 0 0 0 0 0 0 0 0 0 0 0 0 0 0 0 0 0 0 0 0 0 0 0 0 0 0 0 0 0 0 0 0 0 0 0 0 0 0 0 0 0 0 0 
0 0 0 0 0 1.540382e-01 4.212787e-02 1.019308e-01 6.995319e-02 4.668056e-02 7.091214e-02 5.659830e-02 1.187423e-01 1.206678e+01 1.285843e+01 1.167314e+01 1.276292e+01 1.163938e+01 1.167154e+01 1.196460e+01 1.044296e+01 5.857045e-01 5.908110e-01 5.853224e-01 6.136954e-01 6.572577e-01 6.618404e-01 6.018609e-01 5.553994e-01 4.816379e-01 4.858869e-01 5.081290e-01 5.376434e-01 5.030959e-01 4.907366e-01 4.367976e-01 3.789537e-01 3.256940e-01 3.659004e-01 4.774874e-01 6.318386e-01 7.502648e-01 7.597387e-01 6.328367e-01 4.256229e-01 2.471062e-01 1.201504e-01 1.230131e-01 2.359313e-01 3.781834e-01 4.233441e-01 4.748505e-01 5.478118e-01 5.639186e-01 5.105351e-01 4.754208e-01 3.642890e-01 6.642014e-02 2.160371e-01 2.856072e-01 2.803371e-01 1.513076e-01 3.606039e-01 1.901955e-01 1.250026e-01 1.039412e-01 6.964851e-02 3.719291e-02 1.946890e-01 1.870967e-01 1.923981e-01 2.147643e-01 2.626108e-01 1.880606e-01 1.076255e-01 1.093497e-01 1.359342e-01 1.635902e-01 2.361715e-01 3.416110e-01 3.875682e-01 3.879308e-01 3.667107e-01 3.820443e-01 3.251367e-01 2.820857e-01 2.653932e-01 2.849227e-01 2.233953e-01 1.439931e-01 4.895170e-02 9.101358e-02 2.412725e-01 3.780577e-01 4.388954e-01 4.229759e-01 3.864598e-01 2.439373e-01 1.068503e-01 4.081157e-02 9.204588e-02 1.170019e-01 4.541188e-02 4.717275e-02 1.292810e-01 1.584867e-01 2.171635e-01 2.001890e-01 2.163925e-01 2.108519e-01 1.901383e-01 1.458110e-01 1.183749e-01 1.297714e-01 4.990965e-02 6.331138e-02 1.139015e-01 7.798852e-02 6.077320e-02 6.215679e-02 7.290782e-02 1.418426e-01 4.524262e-02 5.590523e-02 0 0 0 0 
0 0 0 0 0 3.457284e+00 9.688365e-01 2.327553e+00 1.566864e+00 1.051357e+00 1.590382e+00 1.271832e+00 2.667282e+00 1.011238e+01 7.379184e+00 1.080307e+01 1.650808e+01 1.175003e+01 1.731056e+01 1.392178e+01 1.358283e+01 1.314726e+01 1.326155e+01 1.313834e+01 1.377511e+01 1.475251e+01 1.485544e+01 1.350982e+01 1.246723e+01 1.081215e+01 1.090780e+01 1.140712e+01 1.206960e+01 1.129427e+01 1.101684e+01 9.806180e+00 8.507877e+00 7.312227e+00 8.214540e+00 1.071921e+01 1.418301e+01 1.684064e+01 1.705319e+01 1.420529e+01 9.555202e+00 5.547833e+00 2.697709e+00 2.762063e+00 5.297037e+00 8.490533e+00 9.504324e+00 1.066032e+01 1.229783e+01 1.265929e+01 1.146116e+01 1.067307e+01 9.230148e+00 6.483180e+00 3.799801e+00 2.214643e+00 3.204717e+00 4.530197e+00 6.551962e+00 9.430199e+00 1.241701e+01 1.364479e+01 1.437181e+01 1.397456e+01 1.180475e+01 8.280574e+00 6.616481e+00 6.502419e+00 6.064246e+00 4.222286e+00 2.416578e+00 2.455480e+00 3.052314e+00 3.673088e+00 5.302509e+00 7.669629e+00 8.701328e+00 8.709425e+00 8.233040e+00 8.577163e+00 7.299667e+00 6.333208e+00 5.958305e+00 6.396549e+00 5.015191e+00 3.232801e+00 1.098475e+00 2.042243e+00 5.416182e+00 8.486418e+00 9.852192e+00 9.495162e+00 8.675624e+00 5.476706e+00 2.398897e+00 9.166573e-01 2.067137e+00 2.627899e+00 1.019592e+00 1.057731e+00 2.900608e+00 3.555914e+00 4.871877e+00 4.489692e+00 4.852454e+00 4.727622e+00 4.262484e+00 3.267035e+00 2.651712e+00 2.908812e+00 1.116397e+00 1.421608e+00 2.558828e+00 1.750434e+00 1.364440e+00 1.376629e+00 1.547101e+00 3.062904e+00 9.795810e-01 1.256812e+00 0 0 0 0 
0 0 0 0 0 5.004526e+00 1.408344e+00 3.379314e+00 2.267324e+00 1.522808e+00 2.301825e+00 1.841403e+00 3.861531e+00 4.271746e+00 6.008008e+00 5.553179e+00 1.010618e+01 1.165858e+01 1.348166e+01 1.563977e+01 1.617778e+01 1.903145e+01 1.919680e+01 1.901845e+01 1.994018e+01 2.135492e+01 2.150394e+01 1.955626e+01 1.804713e+01 1.565146e+01 1.578998e+01 1.651280e+01 1.747177e+01 1.634947e+01 1.594788e+01 1.419540e+01 1.231605e+01 1.058524e+01 1.189135e+01 1.551698e+01 2.053080e+01 2.437772e+01 2.468537e+01 2.056303e+01 1.383205e+01 8.031091e+00 3.905274e+00 3.998456e+00 7.668060e+00 1.229093e+01 1.375847e+01 1.543182e+01 1.780214e+01 1.832535e+01 1.659103e+01 1.545025e+01 1.336154e+01 9.385143e+00 5.500692e+00 3.205996e+00 4.639269e+00 6.558039e+00 9.484719e+00 1.365113e+01 1.797465e+01 1.975187e+01 2.080421e+01 2.022920e+01 1.708836e+01 1.198695e+01 9.578099e+00 9.412987e+00 8.778690e+00 6.112243e+00 3.498324e+00 3.554688e+00 4.418664e+00 5.317267e+00 7.676002e+00 1.110263e+01 1.259611e+01 1.260782e+01 1.191821e+01 1.241633e+01 1.056705e+01 9.168019e+00 8.625270e+00 9.259621e+00 7.259957e+00 4.679827e+00 1.590022e+00 2.956084e+00 7.840340e+00 1.228465e+01 1.426173e+01 1.374498e+01 1.255869e+01 7.928131e+00 3.472658e+00 1.327060e+00 2.992556e+00 3.804441e+00 1.475981e+00 1.530837e+00 4.198461e+00 5.146986e+00 7.051631e+00 6.498101e+00 7.022976e+00 6.842157e+00 6.168796e+00 4.727713e+00 3.837131e+00 4.209626e+00 1.615056e+00 2.057981e+00 3.704589e+00 2.533816e+00 1.975180e+00 1.988034e+00 2.216833e+00 4.403018e+00 1.409036e+00 1.819796e+00 0 0 0 0 
0 0 0 0 0 1.701280e+00 4.816353e-01 1.153692e+00 7.704136e-01 5.181312e-01 7.823554e-01 6.261696e-01 1.312991e+00 1.452349e+00 2.042539e+00 1.887956e+00 3.435855e+00 3.963634e+00 4.583404e+00 5.317034e+00 5.499872e+00 6.469895e+00 6.526066e+00 6.465433e+00 6.778766e+00 7.259667e+00 7.310333e+00 6.648294e+00 6.135293e+00 5.320947e+00 5.368071e+00 5.613805e+00 5.939812e+00 5.558296e+00 5.421772e+00 4.826013e+00 4.187130e+00 3.598711e+00 4.042706e+00 5.275254e+00 6.979631e+00 8.287340e+00 8.391917e+00 6.990574e+00 4.702476e+00 2.730364e+00 1.327716e+00 1.359405e+00 2.606955e+00 4.178583e+00 4.677495e+00 5.246341e+00 6.052123e+00 6.229980e+00 5.640404e+00 5.252600e+00 4.542530e+00 3.190724e+00 1.870126e+00 1.089985e+00 1.577277e+00 2.229606e+00 3.224580e+00 4.640981e+00 6.110763e+00 6.714912e+00 7.072635e+00 6.877165e+00 5.809462e+00 4.075213e+00 3.256319e+00 3.200188e+00 2.984545e+00 2.078017e+00 1.189372e+00 1.208557e+00 1.502285e+00 1.807769e+00 2.609664e+00 3.774616e+00 4.282346e+00 4.286322e+00 4.051876e+00 4.221208e+00 3.592520e+00 3.116896e+00 2.932358e+00 3.147995e+00 2.468161e+00 1.591019e+00 5.404991e-01 1.004854e+00 2.665430e+00 4.176287e+00 4.848431e+00 4.672798e+00 4.269525e+00 2.695363e+00 1.180612e+00 4.512139e-01 1.017465e+00 1.293543e+00 5.018006e-01 5.202784e-01 1.427134e+00 1.749559e+00 2.396917e+00 2.208597e+00 2.386915e+00 2.325387e+00 2.096450e+00 1.606489e+00 1.303794e+00 1.430585e+00 5.485686e-01 6.996852e-01 1.259663e+00 8.613706e-01 6.715134e-01 6.735624e-01 7.426398e-01 1.481957e+00 4.746995e-01 6.188896e-01 0 0 0 0 
0 0 0 0 0 0 0 0 0 0 0 0 0 0 0 0 0 0 0 0 0 0 0 0 0 0 0 0 0 0 0 0 0 0 0 0 0 0 0 0 0 0 0 0 0 0 0 0 0 0 0 0 0 0 0 0 0 0 0 0 0 0 0 0 0 0 0 0 0 0 0 0 0 0 0 0 0 0 0 0 0 0 0 0 0 0 0 0 0 0 0 0 0 0 0 0 0 0 0 0 0 0 0 0 0 0 0 0 0 0 0 0 0 0 0 0 0 0 0 0 0 0 0 0 0 0 0 0 
