# vtk DataFile Version 2.0
Comment goes here
ASCII

DATASET STRUCTURED_POINTS
FIELD FieldData 1
TIME 1 1 double
0.82000000
DIMENSIONS    128   16   1

ORIGIN    0.000   0.000   0.000
SPACING   0.0078125 0.015625   1.000

POINT_DATA   2048
SCALARS fMag double
LOOKUP_TABLE default

0 0 0 0 0 0 0 0 0 0 0 0 0 0 0 0 0 0 0 0 0 0 0 0 0 0 0 0 0 0 0 0 0 0 0 0 0 0 0 0 0 0 0 0 0 0 0 0 0 0 0 0 0 0 0 0 0 0 0 0 0 0 0 0 0 0 0 0 0 0 0 0 0 0 0 0 0 0 0 0 0 0 0 0 0 0 0 0 0 0 0 0 0 0 0 0 0 0 0 0 0 0 0 0 0 0 0 0 0 0 0 0 0 0 0 0 0 0 0 0 0 0 0 0 0 0 0 0 
0 0 0 0 0 0 0 0 0 0 0 0 0 0 0 0 0 0 0 0 0 0 0 0 0 0 0 0 0 0 0 0 0 0 0 0 0 0 0 0 0 0 0 0 0 0 0 0 0 0 0 0 0 0 0 0 0 0 0 0 0 0 0 0 0 0 0 0 0 0 0 0 0 0 0 0 0 0 0 0 0 0 0 0 0 0 0 0 0 0 0 0 0 0 0 0 0 0 0 0 0 0 0 0 0 0 0 0 0 0 0 0 0 0 0 0 0 0 0 0 0 0 0 0 0 0 0 0 
0 0 0 0 0 2.025626e+00 1.593645e+00 8.278351e-01 1.396474e+00 9.700374e-01 1.674590e+00 1.193489e+00 1.818482e+00 2.421604e+00 3.622104e+00 5.081650e+00 6.453363e+00 8.884609e+00 1.085654e+01 1.225397e+01 1.626898e+01 1.617407e+01 1.592469e+01 1.597179e+01 1.567569e+01 1.574517e+01 1.542330e+01 1.548633e+01 1.513259e+01 1.517359e+01 1.483982e+01 1.489040e+01 1.461157e+01 1.464596e+01 1.440013e+01 1.437844e+01 1.413724e+01 1.403209e+01 1.380220e+01 1.367393e+01 1.353095e+01 1.343911e+01 1.336238e+01 1.325949e+01 1.316622e+01 1.300761e+01 1.285056e+01 1.265658e+01 1.248880e+01 1.237559e+01 1.228194e+01 1.228654e+01 1.222846e+01 1.228169e+01 1.219221e+01 1.223821e+01 1.246134e+01 1.419761e+01 1.436747e+01 1.515558e+01 1.528866e+01 1.300327e+01 1.286940e+01 1.451815e+01 1.607912e+01 1.698211e+01 1.881606e+01 1.864581e+01 2.019138e+01 1.776420e+01 1.279502e+01 1.238808e+01 1.026278e+01 8.151121e+00 7.795140e+00 7.668112e+00 7.534003e+00 7.278129e+00 7.192901e+00 6.868718e+00 6.875606e+00 6.546498e+00 6.667554e+00 6.331695e+00 6.485921e+00 6.084267e+00 6.208759e+00 5.764145e+00 5.857311e+00 5.426704e+00 5.504011e+00 5.163850e+00 5.223596e+00 4.977904e+00 4.939881e+00 4.763109e+00 4.594911e+00 4.510000e+00 4.216773e+00 4.245932e+00 3.858613e+00 4.015578e+00 3.545448e+00 3.779398e+00 3.232811e+00 3.513854e+00 2.945176e+00 3.228649e+00 2.669432e+00 2.901734e+00 2.416688e+00 2.563807e+00 2.195052e+00 2.204325e+00 1.993248e+00 1.852491e+00 1.821202e+00 1.498159e+00 1.621391e+00 1.140681e+00 1.378030e+00 8.039894e-01 2.070383e+00 5.532790e-01 0 0 0 0 
0 0 0 0 0 5.959681e+00 4.704288e+00 2.437766e+00 4.117320e+00 2.855132e+00 4.926106e+00 3.510823e+00 5.349227e+00 7.122212e+00 1.065269e+01 1.494497e+01 1.897900e+01 2.612825e+01 3.192729e+01 3.603622e+01 4.784135e+01 4.756214e+01 4.682882e+01 4.696729e+01 4.609685e+01 4.630125e+01 4.535507e+01 4.554054e+01 4.450063e+01 4.462126e+01 4.364001e+01 4.378878e+01 4.296898e+01 4.307009e+01 4.234730e+01 4.228351e+01 4.157430e+01 4.126512e+01 4.058914e+01 4.021197e+01 3.979156e+01 3.952153e+01 3.929591e+01 3.899338e+01 3.871915e+01 3.825278e+01 3.779099e+01 3.722062e+01 3.672728e+01 3.639441e+01 3.611902e+01 3.613254e+01 3.596174e+01 3.611822e+01 3.585509e+01 3.599031e+01 3.643869e+01 3.997370e+01 3.962115e+01 3.976383e+01 3.989349e+01 3.841534e+01 3.979119e+01 4.091262e+01 4.203677e+01 4.189811e+01 4.170910e+01 4.018020e+01 3.827361e+01 3.783703e+01 3.202702e+01 3.116048e+01 2.885157e+01 2.397101e+01 2.292409e+01 2.255056e+01 2.215620e+01 2.140386e+01 2.115333e+01 2.020016e+01 2.022056e+01 1.925291e+01 1.960907e+01 1.862153e+01 1.907518e+01 1.789406e+01 1.826019e+01 1.695261e+01 1.722653e+01 1.596004e+01 1.618725e+01 1.518670e+01 1.536226e+01 1.463955e+01 1.452765e+01 1.400772e+01 1.351309e+01 1.326343e+01 1.240121e+01 1.248712e+01 1.134822e+01 1.181001e+01 1.042750e+01 1.111560e+01 9.508046e+00 1.033446e+01 8.661685e+00 9.495029e+00 7.849852e+00 8.532560e+00 7.105430e+00 7.537628e+00 6.452630e+00 6.479643e+00 5.858716e+00 5.444852e+00 5.353170e+00 4.403598e+00 4.766713e+00 3.353086e+00 4.045974e+00 2.355394e+00 6.084889e+00 1.626950e+00 0 0 0 0 
0 0 0 0 0 4.117644e+00 3.257810e+00 1.685442e+00 2.848941e+00 1.973214e+00 3.403154e+00 2.425401e+00 3.695383e+00 2.468924e+01 3.796947e+01 2.729753e+01 2.988539e+01 3.339114e+01 3.292085e+01 4.276030e+01 4.329021e+01 3.284972e+01 3.234325e+01 3.243888e+01 3.183781e+01 3.197904e+01 3.132570e+01 3.145385e+01 3.073577e+01 3.081912e+01 3.014151e+01 3.024427e+01 2.967813e+01 2.974797e+01 2.924880e+01 2.920474e+01 2.871495e+01 2.850142e+01 2.803457e+01 2.777409e+01 2.748374e+01 2.729725e+01 2.714143e+01 2.693250e+01 2.674311e+01 2.642103e+01 2.610211e+01 2.570820e+01 2.536748e+01 2.513759e+01 2.494740e+01 2.495673e+01 2.483876e+01 2.494681e+01 2.476507e+01 2.485844e+01 2.485877e+01 2.226299e+01 1.923300e+01 1.803053e+01 1.743854e+01 1.965564e+01 1.839719e+01 1.681294e+01 1.365350e+01 1.216375e+01 8.413363e+00 8.219653e+00 9.713851e+00 1.801969e+01 1.366356e+01 1.203764e+01 1.724840e+01 1.655676e+01 1.583363e+01 1.557566e+01 1.530330e+01 1.478372e+01 1.461073e+01 1.395247e+01 1.396664e+01 1.329838e+01 1.354445e+01 1.286243e+01 1.317582e+01 1.236005e+01 1.261294e+01 1.170978e+01 1.189894e+01 1.102410e+01 1.118097e+01 1.048980e+01 1.061099e+01 1.011174e+01 1.003440e+01 9.675246e+00 9.333618e+00 9.161199e+00 8.565718e+00 8.625129e+00 7.838555e+00 8.157608e+00 7.202732e+00 7.678055e+00 6.567649e+00 7.138413e+00 5.982837e+00 6.558282e+00 5.421658e+00 5.892987e+00 4.906931e+00 5.205231e+00 4.455554e+00 4.474086e+00 4.045123e+00 3.759304e+00 3.696142e+00 3.040485e+00 3.291633e+00 2.315269e+00 2.791368e+00 1.622518e+00 4.201018e+00 1.123663e+00 0 0 0 0 
0 0 0 0 0 1.835894e-01 1.471660e-01 7.551114e-02 1.280954e-01 8.811873e-02 1.516376e-01 1.080664e-01 1.646386e-01 2.686669e+01 2.938686e+01 2.772352e+01 2.798826e+01 2.841035e+01 2.712919e+01 2.911887e+01 2.720088e+01 1.461651e+00 1.439121e+00 1.443371e+00 1.416660e+00 1.422957e+00 1.393926e+00 1.399642e+00 1.367728e+00 1.371447e+00 1.341324e+00 1.345900e+00 1.320727e+00 1.323834e+00 1.301635e+00 1.299675e+00 1.277890e+00 1.268392e+00 1.247626e+00 1.236041e+00 1.223126e+00 1.214832e+00 1.207901e+00 1.198609e+00 1.190186e+00 1.175862e+00 1.161676e+00 1.144157e+00 1.129001e+00 1.118775e+00 1.110314e+00 1.110727e+00 1.105477e+00 1.110281e+00 1.102193e+00 1.106341e+00 8.746349e-01 5.059597e+00 8.772626e+00 9.017070e+00 1.067769e+01 8.282804e+00 1.069981e+01 1.162163e+01 1.410451e+01 1.440255e+01 1.567960e+01 1.541226e+01 1.471725e+01 1.210687e+01 6.376269e+00 6.672994e+00 1.705915e+00 7.368782e-01 7.046888e-01 6.932128e-01 6.810951e-01 6.579871e-01 6.503014e-01 6.210285e-01 6.216779e-01 5.919607e-01 6.029317e-01 5.725966e-01 5.865570e-01 5.502591e-01 5.615166e-01 5.213148e-01 5.297248e-01 4.907706e-01 4.977360e-01 4.669502e-01 4.723263e-01 4.500858e-01 4.466337e-01 4.306393e-01 4.154368e-01 4.077688e-01 3.812797e-01 3.839430e-01 3.489522e-01 3.631752e-01 3.206841e-01 3.418512e-01 2.924140e-01 3.178064e-01 2.663276e-01 2.919017e-01 2.412386e-01 2.621602e-01 2.181889e-01 2.314096e-01 1.979760e-01 1.987689e-01 1.796547e-01 1.669433e-01 1.641736e-01 1.350466e-01 1.463119e-01 1.028646e-01 1.234246e-01 7.111284e-02 1.865116e-01 4.999200e-02 0 0 0 0 
0 0 0 0 0 0 0 0 0 0 0 0 0 2.950627e+01 3.242077e+01 3.023022e+01 3.066560e+01 3.128901e+01 2.958354e+01 3.227529e+01 2.966282e+01 0 0 0 0 0 0 0 0 0 0 0 0 0 0 0 0 0 0 0 0 0 0 0 0 0 0 0 0 0 0 0 0 0 0 0 7.635883e-02 1.556293e+00 2.584433e+00 1.702903e+00 1.715809e+00 1.505736e+00 1.298460e+00 1.287961e+00 1.240555e+00 1.047023e+00 5.556956e-01 4.158317e-01 8.302090e-01 1.280501e+00 1.882045e+00 2.428997e+00 9.908341e-01 0 0 0 0 0 0 0 0 0 0 0 0 0 0 0 0 0 0 0 0 0 0 0 0 0 0 0 0 0 0 0 0 0 0 0 0 0 0 0 0 0 0 0 0 0 0 0 0 0 0 0 0 0 0 0 
0 0 0 0 0 0 0 0 0 0 0 0 0 2.860209e+01 2.957376e+01 2.876652e+01 2.904959e+01 2.910493e+01 2.868702e+01 2.948899e+01 2.862123e+01 0 0 0 0 0 0 0 0 0 0 0 0 0 0 0 0 0 0 0 0 0 0 0 0 0 0 0 0 0 0 0 0 0 0 0 2.004109e-01 6.748426e-01 5.121897e-01 8.206610e-02 4.155360e-01 3.954628e-01 6.966889e-01 7.889409e-01 6.777375e-01 9.179643e-01 8.624277e-01 8.107971e-01 5.569521e-01 3.542737e-01 4.877959e-01 4.212468e-01 8.248041e-02 0 0 0 0 0 0 0 0 0 0 0 0 0 0 0 0 0 0 0 0 0 0 0 0 0 0 0 0 0 0 0 0 0 0 0 0 0 0 0 0 0 0 0 0 0 0 0 0 0 0 0 0 0 0 0 
0 0 0 0 0 0 0 0 0 0 0 0 0 3.064344e+01 3.204885e+01 3.097033e+01 3.129293e+01 3.153284e+01 3.070778e+01 3.208723e+01 3.053973e+01 0 0 0 0 0 0 0 0 0 0 0 0 0 0 0 0 0 0 0 0 0 0 0 0 0 0 0 0 0 0 0 0 0 0 0 1.629877e-01 7.450691e-01 7.447185e-01 5.970393e-01 5.397672e-01 2.845693e-01 2.976191e-01 1.873280e-01 1.567383e-01 9.185052e-02 1.793080e-01 7.413861e-02 2.223767e-01 4.168567e-01 4.930490e-01 4.005186e-01 1.130652e-02 0 0 0 0 0 0 0 0 0 0 0 0 0 0 0 0 0 0 0 0 0 0 0 0 0 0 0 0 0 0 0 0 0 0 0 0 0 0 0 0 0 0 0 0 0 0 0 0 0 0 0 0 0 0 0 
0 0 0 0 0 0 0 0 0 0 0 0 0 2.860364e+01 2.957178e+01 2.876198e+01 2.905000e+01 2.909286e+01 2.868847e+01 2.947341e+01 2.861746e+01 0 0 0 0 0 0 0 0 0 0 0 0 0 0 0 0 0 0 0 0 0 0 0 0 0 0 0 0 0 0 0 0 0 0 0 2.058787e-01 6.441448e-01 5.875615e-01 5.440253e-01 5.646241e-01 6.033599e-01 5.935880e-01 7.331478e-01 7.549701e-01 7.196831e-01 7.637658e-01 8.038896e-01 9.721472e-01 7.482772e-01 6.571372e-01 2.917282e-01 1.142955e-02 0 0 0 0 0 0 0 0 0 0 0 0 0 0 0 0 0 0 0 0 0 0 0 0 0 0 0 0 0 0 0 0 0 0 0 0 0 0 0 0 0 0 0 0 0 0 0 0 0 0 0 0 0 0 0 
0 0 0 0 0 0 0 0 0 0 0 0 0 2.952866e+01 3.240463e+01 3.022873e+01 3.067501e+01 3.124860e+01 2.960704e+01 3.222065e+01 2.963901e+01 0 0 0 0 0 0 0 0 0 0 0 0 0 0 0 0 0 0 0 0 0 0 0 0 0 0 0 0 0 0 0 0 0 0 0 3.178186e-01 9.458167e-01 9.195949e-01 1.018661e+00 9.747094e-01 9.267538e-01 9.229103e-01 1.010140e+00 1.030608e+00 9.353427e-01 9.488960e-01 9.516462e-01 9.674543e-01 6.890604e-01 6.301779e-01 2.354061e-01 6.498513e-04 0 0 0 0 0 0 0 0 0 0 0 0 0 0 0 0 0 0 0 0 0 0 0 0 0 0 0 0 0 0 0 0 0 0 0 0 0 0 0 0 0 0 0 0 0 0 0 0 0 0 0 0 0 0 0 
0 0 0 0 0 1.838350e-01 1.469867e-01 7.593782e-02 1.276995e-01 8.776748e-02 1.512915e-01 1.083449e-01 1.649717e-01 2.689194e+01 2.936723e+01 2.770986e+01 2.798757e+01 2.835646e+01 2.715498e+01 2.904921e+01 2.717380e+01 1.463045e+00 1.436106e+00 1.443233e+00 1.412329e+00 1.421852e+00 1.388886e+00 1.398700e+00 1.365515e+00 1.373511e+00 1.340764e+00 1.344844e+00 1.315693e+00 1.317066e+00 1.293235e+00 1.289540e+00 1.270100e+00 1.261670e+00 1.248234e+00 1.235827e+00 1.227106e+00 1.210660e+00 1.205281e+00 1.183914e+00 1.177168e+00 1.149604e+00 1.142077e+00 1.115474e+00 1.112050e+00 1.090742e+00 1.089814e+00 1.071701e+00 1.066714e+00 1.045210e+00 1.029360e+00 1.003750e+00 1.126418e+00 1.386401e+00 1.361758e+00 1.426279e+00 1.352652e+00 1.198054e+00 1.173300e+00 1.260800e+00 1.264493e+00 1.354356e+00 1.378501e+00 1.488930e+00 1.547328e+00 1.291463e+00 1.190584e+00 9.082425e-01 7.187604e-01 7.128376e-01 7.004221e-01 6.907322e-01 6.795144e-01 6.632314e-01 6.523810e-01 6.310274e-01 6.243135e-01 6.007609e-01 5.987923e-01 5.741643e-01 5.771068e-01 5.519855e-01 5.553727e-01 5.267640e-01 5.269892e-01 4.980906e-01 4.960384e-01 4.704278e-01 4.653372e-01 4.468307e-01 4.389937e-01 4.289961e-01 4.141159e-01 4.104075e-01 3.859893e-01 3.882342e-01 3.531673e-01 3.600831e-01 3.171308e-01 3.317728e-01 2.873447e-01 3.092250e-01 2.659700e-01 2.909721e-01 2.503375e-01 2.697579e-01 2.288508e-01 2.345406e-01 1.985711e-01 1.932775e-01 1.719259e-01 1.577898e-01 1.554964e-01 1.317522e-01 1.458300e-01 1.072198e-01 1.257319e-01 7.408695e-02 1.862270e-01 5.006974e-02 0 0 0 0 
0 0 0 0 0 4.123153e+00 3.253722e+00 1.695745e+00 2.840074e+00 1.965353e+00 3.395396e+00 2.431691e+00 3.702920e+00 2.480615e+01 3.784776e+01 2.735819e+01 2.992537e+01 3.323970e+01 3.308981e+01 4.256155e+01 4.314932e+01 3.288113e+01 3.227545e+01 3.243563e+01 3.174019e+01 3.195389e+01 3.121202e+01 3.143231e+01 3.068569e+01 3.086528e+01 3.012873e+01 3.022044e+01 2.956494e+01 2.959587e+01 2.906010e+01 2.897709e+01 2.854008e+01 2.835059e+01 2.804852e+01 2.776952e+01 2.757343e+01 2.720357e+01 2.708257e+01 2.660207e+01 2.645034e+01 2.583053e+01 2.566127e+01 2.506315e+01 2.498615e+01 2.450715e+01 2.448632e+01 2.407917e+01 2.396710e+01 2.348377e+01 2.312746e+01 2.255184e+01 2.204085e+01 2.150045e+01 2.097660e+01 2.063801e+01 2.015284e+01 2.000148e+01 1.950591e+01 1.935316e+01 1.876169e+01 1.858418e+01 1.796601e+01 1.777826e+01 1.717225e+01 1.701804e+01 1.655571e+01 1.646355e+01 1.614655e+01 1.601349e+01 1.573453e+01 1.551678e+01 1.526471e+01 1.489875e+01 1.465490e+01 1.417498e+01 1.402406e+01 1.349474e+01 1.345045e+01 1.289704e+01 1.296315e+01 1.239875e+01 1.247494e+01 1.183231e+01 1.183754e+01 1.118851e+01 1.114260e+01 1.056748e+01 1.045327e+01 1.003769e+01 9.861666e+00 9.637082e+00 9.302656e+00 9.219189e+00 8.670350e+00 8.720522e+00 7.932465e+00 8.087623e+00 7.122661e+00 7.451629e+00 6.453952e+00 6.945940e+00 5.975141e+00 6.537712e+00 5.626206e+00 6.063666e+00 5.146223e+00 5.275118e+00 4.468322e+00 4.349973e+00 3.870708e+00 3.552874e+00 3.500459e+00 2.965835e+00 3.280276e+00 2.412804e+00 2.843611e+00 1.690047e+00 4.194728e+00 1.125416e+00 0 0 0 0 
0 0 0 0 0 5.967656e+00 4.698355e+00 2.452863e+00 4.104489e+00 2.843760e+00 4.914879e+00 3.519938e+00 5.360152e+00 7.207096e+00 1.066025e+01 1.490542e+01 1.906427e+01 2.605904e+01 3.191672e+01 3.612520e+01 4.773537e+01 4.760764e+01 4.673063e+01 4.696256e+01 4.595542e+01 4.626475e+01 4.519037e+01 4.550925e+01 4.442805e+01 4.468803e+01 4.362145e+01 4.375424e+01 4.280508e+01 4.284988e+01 4.207411e+01 4.195394e+01 4.132116e+01 4.104679e+01 4.060942e+01 4.020543e+01 3.992148e+01 3.938591e+01 3.921069e+01 3.851491e+01 3.829520e+01 3.739771e+01 3.715262e+01 3.628656e+01 3.617507e+01 3.548150e+01 3.545136e+01 3.486184e+01 3.469958e+01 3.399976e+01 3.348386e+01 3.265042e+01 3.191054e+01 3.112809e+01 3.036960e+01 2.987935e+01 2.917684e+01 2.895769e+01 2.824014e+01 2.801897e+01 2.716257e+01 2.690556e+01 2.601053e+01 2.573870e+01 2.486130e+01 2.463804e+01 2.396867e+01 2.383525e+01 2.337630e+01 2.318366e+01 2.277979e+01 2.246451e+01 2.209955e+01 2.156969e+01 2.121663e+01 2.052177e+01 2.030324e+01 1.953687e+01 1.947273e+01 1.867148e+01 1.876720e+01 1.795007e+01 1.806040e+01 1.713004e+01 1.713765e+01 1.619804e+01 1.613164e+01 1.529905e+01 1.513375e+01 1.453211e+01 1.427729e+01 1.395215e+01 1.346794e+01 1.334706e+01 1.255240e+01 1.262497e+01 1.148398e+01 1.170856e+01 1.031151e+01 1.078779e+01 9.343486e+00 1.005588e+01 8.650629e+00 9.465328e+00 8.146025e+00 8.779662e+00 7.451811e+00 7.638694e+00 6.470963e+00 6.299766e+00 5.606004e+00 5.145787e+00 5.069676e+00 4.295359e+00 4.750136e+00 3.494215e+00 4.121712e+00 2.453342e+00 6.075810e+00 1.629489e+00 0 0 0 0 
0 0 0 0 0 2.028337e+00 1.591620e+00 8.330565e-01 1.392115e+00 9.661743e-01 1.670775e+00 1.196592e+00 1.822204e+00 2.450466e+00 3.624662e+00 5.068177e+00 6.482322e+00 8.861018e+00 1.085290e+01 1.228420e+01 1.623293e+01 1.618956e+01 1.589129e+01 1.597016e+01 1.562756e+01 1.573271e+01 1.536724e+01 1.547564e+01 1.510787e+01 1.519626e+01 1.483349e+01 1.487865e+01 1.455583e+01 1.457108e+01 1.430724e+01 1.426638e+01 1.405119e+01 1.395788e+01 1.380913e+01 1.367173e+01 1.357516e+01 1.339300e+01 1.333340e+01 1.309676e+01 1.302203e+01 1.271679e+01 1.263343e+01 1.233889e+01 1.230097e+01 1.206510e+01 1.205485e+01 1.185437e+01 1.179919e+01 1.156120e+01 1.138575e+01 1.110233e+01 1.085070e+01 1.058462e+01 1.032667e+01 1.015994e+01 9.921035e+00 9.846501e+00 9.602478e+00 9.527261e+00 9.236026e+00 9.148623e+00 8.844259e+00 8.751822e+00 8.453461e+00 8.377547e+00 8.149932e+00 8.104572e+00 7.948513e+00 7.883006e+00 7.745675e+00 7.638464e+00 7.514361e+00 7.334175e+00 7.214113e+00 6.977816e+00 6.903498e+00 6.642886e+00 6.621069e+00 6.348605e+00 6.381152e+00 6.103301e+00 6.140828e+00 5.824490e+00 5.827096e+00 5.507628e+00 5.485072e+00 5.201998e+00 5.145809e+00 4.941258e+00 4.854615e+00 4.744060e+00 4.579400e+00 4.538277e+00 4.268037e+00 4.292681e+00 3.904679e+00 3.981017e+00 3.505979e+00 3.667930e+00 3.176879e+00 3.419168e+00 2.941458e+00 3.218588e+00 2.770156e+00 2.985755e+00 2.534439e+00 2.598116e+00 2.201212e+00 2.143070e+00 1.907222e+00 1.750703e+00 1.724714e+00 1.461276e+00 1.615689e+00 1.188631e+00 1.403833e+00 8.373819e-01 2.067309e+00 5.541432e-01 0 0 0 0 
0 0 0 0 0 0 0 0 0 0 0 0 0 0 0 0 0 0 0 0 0 0 0 0 0 0 0 0 0 0 0 0 0 0 0 0 0 0 0 0 0 0 0 0 0 0 0 0 0 0 0 0 0 0 0 0 0 0 0 0 0 0 0 0 0 0 0 0 0 0 0 0 0 0 0 0 0 0 0 0 0 0 0 0 0 0 0 0 0 0 0 0 0 0 0 0 0 0 0 0 0 0 0 0 0 0 0 0 0 0 0 0 0 0 0 0 0 0 0 0 0 0 0 0 0 0 0 0 
