# vtk DataFile Version 2.0
Comment goes here
ASCII

DATASET STRUCTURED_POINTS
FIELD FieldData 1
TIME 1 1 double
0.91000000
DIMENSIONS    128   16   1

ORIGIN    0.000   0.000   0.000
SPACING   0.0078125 0.015625   1.000

POINT_DATA   2048
SCALARS fMag double
LOOKUP_TABLE default

0 0 0 0 0 0 0 0 0 0 0 0 0 0 0 0 0 0 0 0 0 0 0 0 0 0 0 0 0 0 0 0 0 0 0 0 0 0 0 0 0 0 0 0 0 0 0 0 0 0 0 0 0 0 0 0 0 0 0 0 0 0 0 0 0 0 0 0 0 0 0 0 0 0 0 0 0 0 0 0 0 0 0 0 0 0 0 0 0 0 0 0 0 0 0 0 0 0 0 0 0 0 0 0 0 0 0 0 0 0 0 0 0 0 0 0 0 0 0 0 0 0 0 0 0 0 0 0 
0 0 0 0 0 0 0 0 0 0 0 0 0 0 0 0 0 0 0 0 0 0 0 0 0 0 0 0 0 0 0 0 0 0 0 0 0 0 0 0 0 0 0 0 0 0 0 0 0 0 0 0 0 0 0 0 0 0 0 0 0 0 0 0 0 0 0 0 0 0 0 0 0 0 0 0 0 0 0 0 0 0 0 0 0 0 0 0 0 0 0 0 0 0 0 0 0 0 0 0 0 0 0 0 0 0 0 0 0 0 0 0 0 0 0 0 0 0 0 0 0 0 0 0 0 0 0 0 
0 0 0 0 0 1.758776e+00 3.110284e+00 1.555450e+00 2.572634e+00 2.051966e+00 3.148872e+00 2.463616e+00 3.579224e+00 4.922953e+00 7.228327e+00 9.471320e+00 1.333907e+01 1.780499e+01 2.184341e+01 2.559209e+01 3.208024e+01 3.234305e+01 3.178492e+01 3.187681e+01 3.132477e+01 3.135404e+01 3.085183e+01 3.081418e+01 3.034014e+01 3.020885e+01 2.976755e+01 2.956780e+01 2.918642e+01 2.894834e+01 2.864403e+01 2.839450e+01 2.815235e+01 2.786876e+01 2.762759e+01 2.728826e+01 2.702488e+01 2.665698e+01 2.638877e+01 2.605330e+01 2.581994e+01 2.555774e+01 2.533383e+01 2.510532e+01 2.483124e+01 2.461175e+01 2.427352e+01 2.407648e+01 2.371054e+01 2.360694e+01 2.330399e+01 2.335882e+01 2.337807e+01 2.522185e+01 2.549350e+01 2.626791e+01 2.626379e+01 2.348560e+01 2.282457e+01 2.405798e+01 2.532247e+01 2.597140e+01 2.756326e+01 2.710653e+01 2.788769e+01 2.605291e+01 2.210271e+01 2.166019e+01 1.884074e+01 1.642360e+01 1.583405e+01 1.544126e+01 1.521920e+01 1.487655e+01 1.479303e+01 1.441573e+01 1.433783e+01 1.383984e+01 1.371190e+01 1.311579e+01 1.297988e+01 1.238606e+01 1.231848e+01 1.180041e+01 1.178464e+01 1.131111e+01 1.126676e+01 1.080052e+01 1.067017e+01 1.020557e+01 9.982154e+00 9.579224e+00 9.307606e+00 9.014934e+00 8.682298e+00 8.483150e+00 8.058707e+00 7.940322e+00 7.414449e+00 7.373836e+00 6.770878e+00 6.821099e+00 6.168277e+00 6.274364e+00 5.571432e+00 5.686001e+00 4.963301e+00 5.048805e+00 4.353425e+00 4.386738e+00 3.797580e+00 3.756972e+00 3.310739e+00 3.122795e+00 2.831367e+00 2.463794e+00 2.322039e+00 2.014887e+00 3.103311e+00 2.494234e-01 0 0 0 0 
0 0 0 0 0 5.174920e+00 9.161676e+00 4.594600e+00 7.575168e+00 6.037414e+00 9.263868e+00 7.249344e+00 1.053115e+01 1.447876e+01 2.125632e+01 2.785223e+01 3.922614e+01 5.235603e+01 6.422957e+01 7.524880e+01 9.431941e+01 9.509208e+01 9.345176e+01 9.372192e+01 9.209961e+01 9.218582e+01 9.070992e+01 9.059936e+01 8.920616e+01 8.882030e+01 8.752327e+01 8.693618e+01 8.581518e+01 8.511542e+01 8.422095e+01 8.348752e+01 8.277578e+01 8.194223e+01 8.123334e+01 8.023594e+01 7.946178e+01 7.838037e+01 7.759199e+01 7.660591e+01 7.591995e+01 7.514924e+01 7.449106e+01 7.381933e+01 7.301369e+01 7.236849e+01 7.137422e+01 7.079500e+01 6.971925e+01 6.941469e+01 6.852407e+01 6.868518e+01 6.853843e+01 7.226363e+01 7.222807e+01 7.242916e+01 7.201788e+01 6.953487e+01 6.950876e+01 6.966237e+01 7.031979e+01 6.980196e+01 6.974211e+01 6.814724e+01 6.636151e+01 6.425523e+01 5.907127e+01 5.810304e+01 5.387714e+01 4.829529e+01 4.656192e+01 4.540720e+01 4.475436e+01 4.374705e+01 4.350162e+01 4.239244e+01 4.216355e+01 4.069949e+01 4.032343e+01 3.857081e+01 3.817125e+01 3.642526e+01 3.622654e+01 3.470317e+01 3.465671e+01 3.326420e+01 3.313368e+01 3.176253e+01 3.137911e+01 3.001275e+01 2.935571e+01 2.817074e+01 2.737201e+01 2.651134e+01 2.553326e+01 2.494770e+01 2.369972e+01 2.335172e+01 2.180547e+01 2.168618e+01 1.991317e+01 2.006092e+01 1.814109e+01 1.845298e+01 1.638553e+01 1.672216e+01 1.459630e+01 1.484728e+01 1.280156e+01 1.289899e+01 1.116564e+01 1.104574e+01 9.732821e+00 9.179680e+00 8.321965e+00 7.239715e+00 6.821716e+00 5.920074e+00 9.126037e+00 7.335575e-01 0 0 0 0 
0 0 0 0 0 3.575609e+00 6.335180e+00 3.183326e+00 5.236772e+00 4.171466e+00 6.400291e+00 5.009195e+00 7.276428e+00 4.901437e+01 6.857672e+01 5.488227e+01 6.485901e+01 6.584899e+01 7.084279e+01 8.292456e+01 8.295425e+01 6.566885e+01 6.453640e+01 6.472295e+01 6.360299e+01 6.366258e+01 6.264368e+01 6.256739e+01 6.160552e+01 6.133914e+01 6.044364e+01 6.003829e+01 5.926431e+01 5.878117e+01 5.816359e+01 5.765719e+01 5.716577e+01 5.659025e+01 5.610080e+01 5.541214e+01 5.487761e+01 5.413094e+01 5.358659e+01 5.290574e+01 5.243210e+01 5.189994e+01 5.144548e+01 5.098166e+01 5.042538e+01 4.997987e+01 4.929334e+01 4.889339e+01 4.815057e+01 4.794026e+01 4.732526e+01 4.743648e+01 4.700583e+01 4.397442e+01 4.098059e+01 3.962556e+01 3.801007e+01 4.057203e+01 3.870384e+01 3.651027e+01 3.294319e+01 3.132265e+01 2.742682e+01 2.699806e+01 2.521411e+01 2.792524e+01 2.885328e+01 2.796690e+01 3.346703e+01 3.335578e+01 3.215873e+01 3.136137e+01 3.091055e+01 3.021498e+01 3.004555e+01 2.927963e+01 2.912162e+01 2.811062e+01 2.785096e+01 2.664064e+01 2.636472e+01 2.515893e+01 2.502168e+01 2.396957e+01 2.393746e+01 2.297568e+01 2.288548e+01 2.193842e+01 2.167355e+01 2.072979e+01 2.027596e+01 1.945748e+01 1.890583e+01 1.831137e+01 1.763589e+01 1.723149e+01 1.636962e+01 1.612933e+01 1.506146e+01 1.497913e+01 1.375460e+01 1.385669e+01 1.253066e+01 1.274604e+01 1.131793e+01 1.155029e+01 1.008171e+01 1.025483e+01 8.841504e+00 8.908540e+00 7.710948e+00 7.627904e+00 6.720770e+00 6.338507e+00 5.745755e+00 4.997624e+00 4.708369e+00 4.086399e+00 6.303227e+00 5.066908e-01 0 0 0 0 
0 0 0 0 0 1.594652e-01 2.837874e-01 1.441758e-01 2.342384e-01 1.860183e-01 2.852945e-01 2.234674e-01 3.244971e-01 5.435481e+01 5.948169e+01 5.585075e+01 5.760850e+01 5.751721e+01 5.580442e+01 5.913082e+01 5.449578e+01 2.919825e+00 2.869554e+00 2.877845e+00 2.828143e+00 2.830809e+00 2.785587e+00 2.782211e+00 2.739509e+00 2.727684e+00 2.687920e+00 2.669920e+00 2.635547e+00 2.614091e+00 2.586661e+00 2.564172e+00 2.542345e+00 2.516785e+00 2.495046e+00 2.464459e+00 2.440716e+00 2.407550e+00 2.383370e+00 2.353125e+00 2.332086e+00 2.308444e+00 2.288255e+00 2.267649e+00 2.242935e+00 2.223141e+00 2.192638e+00 2.174866e+00 2.141859e+00 2.132511e+00 2.105177e+00 2.110111e+00 1.841487e+00 4.950977e+00 9.279592e+00 9.792398e+00 1.207466e+01 8.925297e+00 1.143334e+01 1.226674e+01 1.505673e+01 1.536792e+01 1.684527e+01 1.655429e+01 1.545397e+01 1.366436e+01 7.823476e+00 8.060882e+00 1.979138e+00 1.484093e+00 1.430865e+00 1.395427e+00 1.375389e+00 1.344477e+00 1.336958e+00 1.302919e+00 1.295909e+00 1.250969e+00 1.239435e+00 1.185621e+00 1.173358e+00 1.119731e+00 1.113627e+00 1.066822e+00 1.065386e+00 1.022587e+00 1.018560e+00 9.764081e-01 9.646099e-01 9.226014e-01 9.024008e-01 8.659699e-01 8.414246e-01 8.149703e-01 7.849252e-01 7.669386e-01 7.286084e-01 7.179320e-01 6.704365e-01 6.667906e-01 6.123134e-01 6.168648e-01 5.578489e-01 5.674225e-01 5.038319e-01 5.141368e-01 4.487112e-01 4.563580e-01 3.933672e-01 3.962846e-01 3.428922e-01 3.391378e-01 2.986878e-01 2.816216e-01 2.551572e-01 2.217029e-01 2.086920e-01 1.812111e-01 2.805012e-01 2.255669e-02 0 0 0 0 
0 0 0 0 0 0 0 0 0 0 0 0 0 5.945148e+01 6.489943e+01 6.091579e+01 6.255217e+01 6.293790e+01 6.039704e+01 6.494307e+01 5.916961e+01 0 0 0 0 0 0 0 0 0 0 0 0 0 0 0 0 0 0 0 0 0 0 0 0 0 0 0 0 0 0 0 0 0 0 0 3.620211e-02 1.713040e+00 3.049856e+00 2.067000e+00 2.313883e+00 1.868729e+00 1.747166e+00 1.869215e+00 1.699352e+00 1.665121e+00 9.931492e-01 8.764518e-01 5.267564e-01 1.061883e+00 1.567699e+00 1.997678e+00 8.156677e-01 0 0 0 0 0 0 0 0 0 0 0 0 0 0 0 0 0 0 0 0 0 0 0 0 0 0 0 0 0 0 0 0 0 0 0 0 0 0 0 0 0 0 0 0 0 0 0 0 0 0 0 0 0 0 0 
0 0 0 0 0 0 0 0 0 0 0 0 0 5.849483e+01 6.058739e+01 5.879954e+01 5.960313e+01 5.951744e+01 5.881968e+01 6.038798e+01 5.851807e+01 0 0 0 0 0 0 0 0 0 0 0 0 0 0 0 0 0 0 0 0 0 0 0 0 0 0 0 0 0 0 0 0 0 0 0 2.878567e-01 7.238365e-01 5.349186e-01 1.034181e-01 5.039243e-01 6.243792e-01 1.165201e+00 1.015421e+00 1.006909e+00 1.134329e+00 8.655885e-01 8.974993e-01 4.186160e-01 3.513125e-01 5.965041e-01 4.755508e-01 1.407183e-01 0 0 0 0 0 0 0 0 0 0 0 0 0 0 0 0 0 0 0 0 0 0 0 0 0 0 0 0 0 0 0 0 0 0 0 0 0 0 0 0 0 0 0 0 0 0 0 0 0 0 0 0 0 0 0 
0 0 0 0 0 0 0 0 0 0 0 0 0 6.206697e+01 6.482807e+01 6.266052e+01 6.352531e+01 6.376447e+01 6.234920e+01 6.492445e+01 6.178054e+01 0 0 0 0 0 0 0 0 0 0 0 0 0 0 0 0 0 0 0 0 0 0 0 0 0 0 0 0 0 0 0 0 0 0 0 2.303071e-01 9.157922e-01 8.767317e-01 8.013321e-01 6.912114e-01 3.491231e-01 3.511799e-01 2.059511e-01 2.129211e-01 9.890742e-02 1.487757e-01 9.713148e-02 2.669602e-01 3.708787e-01 5.432028e-01 3.963206e-01 2.437355e-02 0 0 0 0 0 0 0 0 0 0 0 0 0 0 0 0 0 0 0 0 0 0 0 0 0 0 0 0 0 0 0 0 0 0 0 0 0 0 0 0 0 0 0 0 0 0 0 0 0 0 0 0 0 0 0 
0 0 0 0 0 0 0 0 0 0 0 0 0 5.849892e+01 6.058092e+01 5.879849e+01 5.960152e+01 5.950652e+01 5.882750e+01 6.036804e+01 5.853206e+01 0 0 0 0 0 0 0 0 0 0 0 0 0 0 0 0 0 0 0 0 0 0 0 0 0 0 0 0 0 0 0 0 0 0 0 1.726514e-01 4.937440e-01 4.290758e-01 4.028129e-01 3.949227e-01 2.485093e-01 2.607127e-01 4.470746e-01 4.637832e-01 6.024938e-01 6.441444e-01 8.843716e-01 1.003942e+00 6.969853e-01 5.739827e-01 1.576229e-01 9.993513e-03 0 0 0 0 0 0 0 0 0 0 0 0 0 0 0 0 0 0 0 0 0 0 0 0 0 0 0 0 0 0 0 0 0 0 0 0 0 0 0 0 0 0 0 0 0 0 0 0 0 0 0 0 0 0 0 
0 0 0 0 0 0 0 0 0 0 0 0 0 5.947748e+01 6.485459e+01 6.093411e+01 6.253003e+01 6.291090e+01 6.042796e+01 6.485869e+01 5.923356e+01 0 0 0 0 0 0 0 0 0 0 0 0 0 0 0 0 0 0 0 0 0 0 0 0 0 0 0 0 0 0 0 0 0 0 0 3.984810e-01 9.580137e-01 9.431323e-01 1.127949e+00 1.015075e+00 8.912813e-01 8.844764e-01 1.038013e+00 1.042638e+00 1.069472e+00 1.094838e+00 1.155741e+00 1.170476e+00 8.031132e-01 7.087571e-01 2.143242e-01 5.144372e-06 0 0 0 0 0 0 0 0 0 0 0 0 0 0 0 0 0 0 0 0 0 0 0 0 0 0 0 0 0 0 0 0 0 0 0 0 0 0 0 0 0 0 0 0 0 0 0 0 0 0 0 0 0 0 0 
0 0 0 0 0 1.595533e-01 2.834092e-01 1.438105e-01 2.342228e-01 1.859462e-01 2.852870e-01 2.233862e-01 3.243444e-01 5.438184e+01 5.943715e+01 5.586294e+01 5.757704e+01 5.747648e+01 5.582736e+01 5.903528e+01 5.456625e+01 2.921712e+00 2.865993e+00 2.880082e+00 2.824479e+00 2.832916e+00 2.779913e+00 2.782237e+00 2.733282e+00 2.728444e+00 2.683445e+00 2.670629e+00 2.631771e+00 2.614127e+00 2.583751e+00 2.562093e+00 2.538138e+00 2.510973e+00 2.489478e+00 2.455044e+00 2.433427e+00 2.394739e+00 2.375847e+00 2.338400e+00 2.323138e+00 2.288033e+00 2.273648e+00 2.238742e+00 2.220003e+00 2.182025e+00 2.157214e+00 2.119202e+00 2.092187e+00 2.057352e+00 2.028599e+00 1.996259e+00 2.165010e+00 2.409743e+00 2.384827e+00 2.492514e+00 2.357162e+00 2.166141e+00 2.123095e+00 2.161872e+00 2.140044e+00 2.213628e+00 2.205982e+00 2.267724e+00 2.260887e+00 2.032922e+00 1.942853e+00 1.635680e+00 1.480888e+00 1.461734e+00 1.431163e+00 1.408672e+00 1.378150e+00 1.352711e+00 1.323783e+00 1.296045e+00 1.270161e+00 1.239581e+00 1.216748e+00 1.183799e+00 1.165803e+00 1.131709e+00 1.117604e+00 1.080880e+00 1.067850e+00 1.027276e+00 1.012134e+00 9.679113e-01 9.510823e-01 9.096300e-01 8.945385e-01 8.598243e-01 8.431679e-01 8.135793e-01 7.901914e-01 7.645676e-01 7.313276e-01 7.112029e-01 6.699985e-01 6.595035e-01 6.122142e-01 6.104510e-01 5.561607e-01 5.603461e-01 5.001488e-01 5.074069e-01 4.445911e-01 4.533301e-01 3.938063e-01 4.002759e-01 3.461037e-01 3.430619e-01 2.976439e-01 2.821194e-01 2.510369e-01 2.208673e-01 2.040864e-01 1.816022e-01 2.793891e-01 2.186091e-02 0 0 0 0 
0 0 0 0 0 3.577594e+00 6.326673e+00 3.175326e+00 5.236524e+00 4.169848e+00 6.400115e+00 5.007365e+00 7.273016e+00 4.907829e+01 6.839609e+01 5.506332e+01 6.470288e+01 6.585934e+01 7.091138e+01 8.257263e+01 8.310081e+01 6.571212e+01 6.445688e+01 6.477384e+01 6.352074e+01 6.371016e+01 6.251589e+01 6.256793e+01 6.146526e+01 6.135626e+01 6.034300e+01 6.005447e+01 5.917965e+01 5.878242e+01 5.809859e+01 5.761093e+01 5.707164e+01 5.645994e+01 5.597597e+01 5.520060e+01 5.471387e+01 5.384278e+01 5.341743e+01 5.257435e+01 5.223076e+01 5.144051e+01 5.111670e+01 5.033104e+01 4.990928e+01 4.905457e+01 4.849616e+01 4.764076e+01 4.703279e+01 4.624894e+01 4.560187e+01 4.487419e+01 4.415534e+01 4.341769e+01 4.263219e+01 4.195815e+01 4.113517e+01 4.055941e+01 3.971132e+01 3.913039e+01 3.824144e+01 3.766782e+01 3.678367e+01 3.624468e+01 3.541397e+01 3.497682e+01 3.427804e+01 3.391843e+01 3.327995e+01 3.284921e+01 3.216175e+01 3.165598e+01 3.096965e+01 3.039759e+01 2.974713e+01 2.912338e+01 2.854138e+01 2.785371e+01 2.734031e+01 2.659941e+01 2.619476e+01 2.542816e+01 2.511103e+01 2.428541e+01 2.399250e+01 2.308046e+01 2.274015e+01 2.174626e+01 2.136811e+01 2.043662e+01 2.009757e+01 1.931759e+01 1.894333e+01 1.827852e+01 1.775286e+01 1.717704e+01 1.642984e+01 1.597747e+01 1.505122e+01 1.481517e+01 1.375228e+01 1.371252e+01 1.249263e+01 1.258683e+01 1.123478e+01 1.139847e+01 9.988258e+00 1.018569e+01 8.850002e+00 8.996727e+00 7.781519e+00 7.714503e+00 6.695875e+00 6.348409e+00 5.652166e+00 4.978130e+00 4.604714e+00 4.095281e+00 6.278274e+00 4.910547e-01 0 0 0 0 
0 0 0 0 0 5.177796e+00 9.149358e+00 4.583071e+00 7.574834e+00 6.035071e+00 9.263612e+00 7.246693e+00 1.052622e+01 1.451434e+01 2.121330e+01 2.781615e+01 3.930304e+01 5.220672e+01 6.434499e+01 7.514930e+01 9.421366e+01 9.515494e+01 9.333677e+01 9.379576e+01 9.198056e+01 9.225476e+01 9.052484e+01 9.060013e+01 8.900298e+01 8.884511e+01 8.737754e+01 8.695967e+01 8.569264e+01 8.511734e+01 8.412695e+01 8.342065e+01 8.263959e+01 8.175363e+01 8.105268e+01 7.992966e+01 7.922472e+01 7.796309e+01 7.734704e+01 7.612599e+01 7.562837e+01 7.448387e+01 7.401490e+01 7.287706e+01 7.226626e+01 7.102844e+01 7.021975e+01 6.898096e+01 6.810048e+01 6.696533e+01 6.602824e+01 6.497443e+01 6.393339e+01 6.286516e+01 6.172760e+01 6.075149e+01 5.955967e+01 5.872588e+01 5.749772e+01 5.665645e+01 5.536914e+01 5.453848e+01 5.325813e+01 5.247763e+01 5.127470e+01 5.064168e+01 4.962981e+01 4.910907e+01 4.818454e+01 4.756080e+01 4.656535e+01 4.583298e+01 4.483918e+01 4.401082e+01 4.306895e+01 4.216576e+01 4.132302e+01 4.032728e+01 3.958387e+01 3.851105e+01 3.792511e+01 3.681509e+01 3.635589e+01 3.516044e+01 3.473632e+01 3.341576e+01 3.292304e+01 3.148401e+01 3.093651e+01 2.958788e+01 2.909700e+01 2.796774e+01 2.742589e+01 2.646336e+01 2.570227e+01 2.486857e+01 2.378668e+01 2.313169e+01 2.179055e+01 2.144873e+01 1.990978e+01 1.985218e+01 1.808601e+01 1.822243e+01 1.626504e+01 1.650219e+01 1.446078e+01 1.474689e+01 1.281352e+01 1.302629e+01 1.126741e+01 1.117072e+01 9.696413e+00 9.193691e+00 8.186209e+00 7.211310e+00 6.671599e+00 5.932959e+00 9.089919e+00 7.109188e-01 0 0 0 0 
0 0 0 0 0 1.759755e+00 3.106094e+00 1.551555e+00 2.572533e+00 2.051170e+00 3.148784e+00 2.462714e+00 3.577549e+00 4.935055e+00 7.213697e+00 9.459021e+00 1.336518e+01 1.775411e+01 2.188259e+01 2.555815e+01 3.204430e+01 3.236454e+01 3.174588e+01 3.190200e+01 3.128430e+01 3.137751e+01 3.078886e+01 3.081444e+01 3.027101e+01 3.021729e+01 2.971799e+01 2.957582e+01 2.914477e+01 2.894905e+01 2.861211e+01 2.837182e+01 2.810609e+01 2.780467e+01 2.756619e+01 2.718411e+01 2.694428e+01 2.651505e+01 2.630546e+01 2.589004e+01 2.572075e+01 2.533139e+01 2.517185e+01 2.478477e+01 2.457698e+01 2.415590e+01 2.388080e+01 2.345940e+01 2.315988e+01 2.277374e+01 2.245497e+01 2.209650e+01 2.174237e+01 2.137900e+01 2.099204e+01 2.066001e+01 2.025460e+01 1.997098e+01 1.955321e+01 1.926705e+01 1.882917e+01 1.854663e+01 1.811113e+01 1.784566e+01 1.743650e+01 1.722119e+01 1.687703e+01 1.669992e+01 1.638547e+01 1.617333e+01 1.583477e+01 1.558568e+01 1.524768e+01 1.496594e+01 1.464561e+01 1.433842e+01 1.405181e+01 1.371314e+01 1.346031e+01 1.309543e+01 1.289616e+01 1.251864e+01 1.236246e+01 1.195590e+01 1.181167e+01 1.136258e+01 1.119502e+01 1.070566e+01 1.051948e+01 1.006088e+01 9.893967e+00 9.509973e+00 9.325720e+00 8.998421e+00 8.739602e+00 8.456100e+00 8.088169e+00 7.865421e+00 7.409326e+00 7.293063e+00 6.769714e+00 6.750111e+00 6.149535e+00 6.195944e+00 5.530415e+00 5.611130e+00 4.917111e+00 5.014535e+00 4.357322e+00 4.429841e+00 3.831991e+00 3.799277e+00 3.298182e+00 3.127402e+00 2.785080e+00 2.454047e+00 2.270972e+00 2.019280e+00 3.091034e+00 2.417250e-01 0 0 0 0 
0 0 0 0 0 0 0 0 0 0 0 0 0 0 0 0 0 0 0 0 0 0 0 0 0 0 0 0 0 0 0 0 0 0 0 0 0 0 0 0 0 0 0 0 0 0 0 0 0 0 0 0 0 0 0 0 0 0 0 0 0 0 0 0 0 0 0 0 0 0 0 0 0 0 0 0 0 0 0 0 0 0 0 0 0 0 0 0 0 0 0 0 0 0 0 0 0 0 0 0 0 0 0 0 0 0 0 0 0 0 0 0 0 0 0 0 0 0 0 0 0 0 0 0 0 0 0 0 
