# vtk DataFile Version 2.0
Comment goes here
ASCII

DATASET STRUCTURED_POINTS
FIELD FieldData 1
TIME 1 1 double
0.44000000
DIMENSIONS    128   16   1

ORIGIN    0.000   0.000   0.000
SPACING   0.0078125 0.015625   1.000

POINT_DATA   2048
SCALARS fX double
LOOKUP_TABLE default

0 0 0 0 0 0 0 0 0 0 0 0 0 0 0 0 0 0 0 0 0 0 0 0 0 0 0 0 0 0 0 0 0 0 0 0 0 0 0 0 0 0 0 0 0 0 0 0 0 0 0 0 0 0 0 0 0 0 0 0 0 0 0 0 0 0 0 0 0 0 0 0 0 0 0 0 0 0 0 0 0 0 0 0 0 0 0 0 0 0 0 0 0 0 0 0 0 0 0 0 0 0 0 0 0 0 0 0 0 0 0 0 0 0 0 0 0 0 0 0 0 0 0 0 0 0 0 0 
0 0 0 0 0 0 0 0 0 0 0 0 0 0 0 0 0 0 0 0 0 0 0 0 0 0 0 0 0 0 0 0 0 0 0 0 0 0 0 0 0 0 0 0 0 0 0 0 0 0 0 0 0 0 0 0 0 0 0 0 0 0 0 0 0 0 0 0 0 0 0 0 0 0 0 0 0 0 0 0 0 0 0 0 0 0 0 0 0 0 0 0 0 0 0 0 0 0 0 0 0 0 0 0 0 0 0 0 0 0 0 0 0 0 0 0 0 0 0 0 0 0 0 0 0 0 0 0 
0 0 0 0 0 -9.959590e-01 1.978191e+00 1.528143e+00 2.886132e-01 8.291867e-01 4.251729e-01 7.598159e-01 -1.073078e+00 -3.730454e+00 -4.856797e+00 -3.974293e+00 -5.065508e+00 -4.309588e+00 -4.575443e+00 -4.936130e+00 -3.449294e+00 -6.825320e-01 7.106038e-01 6.726451e-01 7.490779e-01 7.037512e-01 7.717079e-01 7.148304e-01 7.783424e-01 7.102870e-01 7.739138e-01 7.043038e-01 7.730598e-01 7.101166e-01 7.865930e-01 7.352914e-01 8.107971e-01 7.638838e-01 8.269658e-01 7.904700e-01 8.479104e-01 8.304698e-01 8.772700e-01 8.680251e-01 8.905359e-01 8.748235e-01 8.706697e-01 8.471876e-01 8.337527e-01 8.081879e-01 7.934392e-01 7.613792e-01 7.411851e-01 7.090639e-01 6.759100e-01 7.112299e-01 8.721849e-01 9.617511e-01 4.625817e-01 4.900592e-01 1.065465e+00 1.760196e+00 1.451338e+00 1.293706e+00 1.062436e+00 1.017454e+00 1.570008e+00 2.175875e+00 1.928053e+00 -7.025388e-01 -4.116211e-01 9.105456e-01 5.073179e-01 7.384726e-01 6.414279e-01 6.903844e-01 6.251437e-01 6.253065e-01 5.828731e-01 5.643660e-01 5.455842e-01 5.207844e-01 5.246084e-01 5.065531e-01 5.322851e-01 5.187170e-01 5.542125e-01 5.477542e-01 5.955024e-01 5.981295e-01 6.424355e-01 6.389531e-01 6.719209e-01 6.623200e-01 6.872226e-01 6.655665e-01 6.819987e-01 6.448466e-01 6.594314e-01 6.070552e-01 6.272204e-01 5.648009e-01 6.005195e-01 5.349516e-01 5.861213e-01 5.215689e-01 5.857731e-01 5.338321e-01 6.034681e-01 5.677998e-01 6.228373e-01 6.086228e-01 6.376149e-01 6.611617e-01 6.530159e-01 7.214777e-01 6.562882e-01 7.758470e-01 6.421576e-01 8.371249e-01 6.082009e-01 1.478933e+00 1.161238e+00 -2.605807e-02 0 0 0 0 
0 0 0 0 0 -2.928982e+00 5.820902e+00 4.497229e+00 8.480946e-01 2.436466e+00 1.247997e+00 2.232457e+00 -3.158003e+00 -1.097440e+01 -1.428701e+01 -1.169099e+01 -1.490088e+01 -1.267732e+01 -1.346004e+01 -1.452160e+01 -1.014814e+01 -2.008165e+00 2.090726e+00 1.979099e+00 2.204012e+00 2.070692e+00 2.270643e+00 2.103298e+00 2.290148e+00 2.089882e+00 2.277053e+00 2.072207e+00 2.274462e+00 2.089250e+00 2.314229e+00 2.163283e+00 2.385419e+00 2.247385e+00 2.432968e+00 2.325584e+00 2.494565e+00 2.443251e+00 2.580937e+00 2.553743e+00 2.619981e+00 2.573762e+00 2.561550e+00 2.492469e+00 2.452936e+00 2.377721e+00 2.334311e+00 2.239986e+00 2.180561e+00 2.086057e+00 1.988508e+00 2.092404e+00 2.550655e+00 2.740257e+00 1.230257e+00 1.120883e+00 2.832853e+00 5.452244e+00 4.684634e+00 3.970008e+00 3.117263e+00 2.390165e+00 3.359216e+00 4.259980e+00 1.631008e+00 -4.847222e+00 -1.560834e+00 2.433406e+00 1.441882e+00 2.172405e+00 1.886901e+00 2.030885e+00 1.838947e+00 1.839413e+00 1.714584e+00 1.660148e+00 1.604903e+00 1.531960e+00 1.543214e+00 1.490103e+00 1.565796e+00 1.525879e+00 1.630287e+00 1.611287e+00 1.751738e+00 1.759463e+00 1.889787e+00 1.879532e+00 1.976499e+00 1.948244e+00 2.021490e+00 1.957780e+00 2.006120e+00 1.896839e+00 1.939756e+00 1.785705e+00 1.845046e+00 1.661468e+00 1.766568e+00 1.573745e+00 1.724301e+00 1.534470e+00 1.723362e+00 1.570613e+00 1.775450e+00 1.670535e+00 1.832378e+00 1.790523e+00 1.875705e+00 1.944879e+00 1.920791e+00 2.122077e+00 1.930263e+00 2.282039e+00 1.889380e+00 2.465062e+00 1.799274e+00 4.362045e+00 3.419558e+00 -7.662500e-02 0 0 0 0 
0 0 0 0 0 -2.023067e+00 4.022138e+00 3.107799e+00 5.854557e-01 1.681884e+00 8.608469e-01 1.540974e+00 -2.182331e+00 -3.872087e+01 -4.841216e+01 -4.344231e+01 -5.078557e+01 -4.678056e+01 -4.650556e+01 -5.222162e+01 -3.401748e+01 -1.387503e+00 1.444531e+00 1.367432e+00 1.522846e+00 1.430751e+00 1.568907e+00 1.453284e+00 1.582377e+00 1.443992e+00 1.573297e+00 1.431745e+00 1.571469e+00 1.443491e+00 1.598921e+00 1.494625e+00 1.648096e+00 1.552722e+00 1.680938e+00 1.606741e+00 1.723485e+00 1.688030e+00 1.783157e+00 1.764371e+00 1.810139e+00 1.778211e+00 1.769778e+00 1.722051e+00 1.694735e+00 1.642767e+00 1.612766e+00 1.547596e+00 1.506532e+00 1.441238e+00 1.373838e+00 1.445612e+00 1.750607e+00 1.845118e+00 7.885422e-01 7.301492e-01 2.016651e+00 3.870873e+00 3.171301e+00 2.555461e+00 1.863604e+00 1.072040e+00 1.464918e+00 1.588261e+00 -1.293065e+00 -4.943186e+00 -1.292436e+00 1.502862e+00 9.723668e-01 1.500812e+00 1.303560e+00 1.403016e+00 1.270407e+00 1.270723e+00 1.184484e+00 1.146881e+00 1.108717e+00 1.058330e+00 1.066107e+00 1.029417e+00 1.081708e+00 1.054129e+00 1.126255e+00 1.113128e+00 1.210153e+00 1.215488e+00 1.305516e+00 1.298427e+00 1.365409e+00 1.345883e+00 1.396480e+00 1.352464e+00 1.385860e+00 1.310368e+00 1.340023e+00 1.233610e+00 1.274616e+00 1.147812e+00 1.220433e+00 1.087250e+00 1.191276e+00 1.060163e+00 1.190668e+00 1.085165e+00 1.226670e+00 1.154195e+00 1.265974e+00 1.237038e+00 1.295835e+00 1.343578e+00 1.326877e+00 1.465882e+00 1.333346e+00 1.576402e+00 1.305434e+00 1.704180e+00 1.247926e+00 3.019050e+00 2.364098e+00 -5.292137e-02 0 0 0 0 
0 0 0 0 0 -9.004412e-02 1.794273e-01 1.387136e-01 2.597443e-02 7.460485e-02 3.802243e-02 6.833334e-02 -9.740652e-02 -4.407782e+01 -4.821056e+01 -4.518738e+01 -4.729065e+01 -4.659643e+01 -4.561416e+01 -4.810904e+01 -4.357781e+01 -6.187043e-02 6.440940e-02 6.097836e-02 6.791219e-02 6.381071e-02 6.997213e-02 6.481647e-02 7.057091e-02 6.439626e-02 7.015797e-02 6.384143e-02 7.006687e-02 6.435783e-02 7.128469e-02 6.663333e-02 7.347446e-02 6.922106e-02 7.493613e-02 7.162700e-02 7.683011e-02 7.524912e-02 7.948965e-02 7.865278e-02 8.069432e-02 7.927196e-02 7.889704e-02 7.676994e-02 7.555127e-02 7.323430e-02 7.189449e-02 6.898893e-02 6.715659e-02 6.424557e-02 6.123983e-02 6.443744e-02 7.204549e-02 6.133925e-02 1.340751e-02 1.558133e-01 3.533275e-01 1.710673e-01 -1.826826e-01 -1.978861e-01 -2.175356e-01 -2.924201e-01 -2.182794e-01 -3.668478e-01 -7.669706e-01 -5.808315e-01 -1.034749e-01 -1.386229e-02 4.094840e-02 6.687994e-02 5.808718e-02 6.251508e-02 5.660371e-02 5.661622e-02 5.277307e-02 5.109832e-02 4.939846e-02 4.715451e-02 4.750164e-02 4.586703e-02 4.819674e-02 4.696744e-02 5.018020e-02 4.959506e-02 5.391715e-02 5.415457e-02 5.816479e-02 5.784762e-02 6.083050e-02 5.995897e-02 6.221225e-02 6.025045e-02 6.173866e-02 5.837592e-02 5.969893e-02 5.496024e-02 5.679000e-02 5.114483e-02 5.438402e-02 4.845659e-02 5.309567e-02 4.726111e-02 5.307904e-02 4.838356e-02 5.468754e-02 5.145940e-02 5.643275e-02 5.513837e-02 5.774550e-02 5.986138e-02 5.910179e-02 6.528245e-02 5.937111e-02 7.021011e-02 5.821154e-02 7.624347e-02 5.685322e-02 1.359382e-01 1.057787e-01 -2.354445e-03 0 0 0 0 
0 0 0 0 0 0 0 0 0 0 0 0 0 -4.814373e+01 -5.217366e+01 -4.928711e+01 -5.119760e+01 -5.081728e+01 -4.945841e+01 -5.242530e+01 -4.742391e+01 0 0 0 0 0 0 0 0 0 0 0 0 0 0 0 0 0 0 0 0 0 0 0 0 0 0 0 0 0 0 0 0 0 0 0 1.764371e-03 6.319846e-03 3.344076e-03 5.290710e-02 9.769534e-02 3.980456e-02 -4.511153e-02 -2.273401e-02 3.314321e-02 4.408566e-02 1.237940e-01 1.390044e-01 2.291420e-01 2.344046e-01 9.317828e-02 5.311704e-02 9.959522e-03 0 0 0 0 0 0 0 0 0 0 0 0 0 0 0 0 0 0 0 0 0 0 0 0 0 0 0 0 0 0 0 0 0 0 0 0 0 0 0 0 0 0 0 0 0 0 0 0 0 0 0 0 0 0 0 
0 0 0 0 0 0 0 0 0 0 0 0 0 -4.800923e+01 -4.982190e+01 -4.821865e+01 -4.906772e+01 -4.881327e+01 -4.838552e+01 -4.958862e+01 -4.802057e+01 0 0 0 0 0 0 0 0 0 0 0 0 0 0 0 0 0 0 0 0 0 0 0 0 0 0 0 0 0 0 0 0 0 0 0 2.199806e-03 1.616637e-02 1.581704e-02 -1.342943e-02 -2.144174e-02 5.441179e-02 9.748504e-02 6.353438e-02 6.067849e-02 3.076802e-02 -1.855850e-03 -1.317330e-02 -4.146240e-02 -2.196387e-02 3.015387e-02 3.082095e-02 5.560670e-03 0 0 0 0 0 0 0 0 0 0 0 0 0 0 0 0 0 0 0 0 0 0 0 0 0 0 0 0 0 0 0 0 0 0 0 0 0 0 0 0 0 0 0 0 0 0 0 0 0 0 0 0 0 0 0 
0 0 0 0 0 0 0 0 0 0 0 0 0 -5.049965e+01 -5.267326e+01 -5.091684e+01 -5.179013e+01 -5.177633e+01 -5.083783e+01 -5.274058e+01 -5.019892e+01 0 0 0 0 0 0 0 0 0 0 0 0 0 0 0 0 0 0 0 0 0 0 0 0 0 0 0 0 0 0 0 0 0 0 0 1.083181e-03 9.222968e-03 9.558265e-03 -1.193523e-02 -1.868751e-02 8.580729e-03 2.572160e-02 1.169866e-02 3.239905e-03 -5.668060e-03 -2.271723e-02 -2.605796e-02 -4.423063e-02 -4.119298e-02 -2.718542e-02 -1.949319e-02 -1.627209e-03 0 0 0 0 0 0 0 0 0 0 0 0 0 0 0 0 0 0 0 0 0 0 0 0 0 0 0 0 0 0 0 0 0 0 0 0 0 0 0 0 0 0 0 0 0 0 0 0 0 0 0 0 0 0 0 
0 0 0 0 0 0 0 0 0 0 0 0 0 -4.800723e+01 -4.981725e+01 -4.822451e+01 -4.907218e+01 -4.882307e+01 -4.840259e+01 -4.959727e+01 -4.804153e+01 0 0 0 0 0 0 0 0 0 0 0 0 0 0 0 0 0 0 0 0 0 0 0 0 0 0 0 0 0 0 0 0 0 0 0 1.079361e-03 6.654587e-03 6.486811e-03 -2.515794e-03 -4.443290e-03 4.248933e-03 7.806991e-03 4.669158e-03 3.431262e-03 -1.223032e-03 -5.981905e-03 -7.681681e-03 -1.230537e-02 -1.031519e-02 -8.689282e-03 -7.311225e-03 -8.588189e-04 0 0 0 0 0 0 0 0 0 0 0 0 0 0 0 0 0 0 0 0 0 0 0 0 0 0 0 0 0 0 0 0 0 0 0 0 0 0 0 0 0 0 0 0 0 0 0 0 0 0 0 0 0 0 0 
0 0 0 0 0 0 0 0 0 0 0 0 0 -4.811622e+01 -5.214520e+01 -4.929242e+01 -5.117489e+01 -5.083196e+01 -4.947918e+01 -5.241950e+01 -4.749370e+01 0 0 0 0 0 0 0 0 0 0 0 0 0 0 0 0 0 0 0 0 0 0 0 0 0 0 0 0 0 0 0 0 0 0 0 -1.463024e-04 -1.207535e-03 -1.518455e-03 -1.942296e-03 -1.824112e-03 3.406012e-03 5.680501e-03 5.537019e-03 6.187325e-03 4.101620e-03 2.942709e-03 2.114163e-03 5.810940e-04 1.772599e-03 5.437483e-03 3.602893e-03 4.423177e-05 0 0 0 0 0 0 0 0 0 0 0 0 0 0 0 0 0 0 0 0 0 0 0 0 0 0 0 0 0 0 0 0 0 0 0 0 0 0 0 0 0 0 0 0 0 0 0 0 0 0 0 0 0 0 0 
0 0 0 0 0 -8.974454e-02 1.817091e-01 1.445774e-01 3.275962e-02 8.182533e-02 4.415013e-02 7.323340e-02 -9.449448e-02 -4.407381e+01 -4.819470e+01 -4.521889e+01 -4.728861e+01 -4.664495e+01 -4.569957e+01 -4.818010e+01 -4.375222e+01 -6.943551e-02 5.591260e-02 5.269925e-02 6.028738e-02 5.769485e-02 6.598046e-02 6.287292e-02 7.153300e-02 6.748203e-02 7.590096e-02 7.063767e-02 7.817397e-02 7.208735e-02 7.862136e-02 7.211055e-02 7.733318e-02 7.072907e-02 7.465062e-02 6.836385e-02 7.085460e-02 6.532183e-02 6.695677e-02 6.301919e-02 6.433162e-02 6.234758e-02 6.349231e-02 6.346603e-02 6.406338e-02 6.541138e-02 6.507361e-02 6.785745e-02 6.657567e-02 7.056300e-02 6.792162e-02 7.123025e-02 6.007784e-02 5.974470e-02 6.407094e-02 6.801414e-02 6.179937e-02 6.251062e-02 6.557320e-02 6.650027e-02 6.792654e-02 6.786344e-02 6.354453e-02 6.320274e-02 6.180541e-02 6.173513e-02 6.016020e-02 6.392101e-02 5.414698e-02 4.969889e-02 4.989065e-02 5.056391e-02 5.269973e-02 5.347378e-02 5.644366e-02 5.681861e-02 5.990684e-02 5.941036e-02 6.188386e-02 6.006379e-02 6.122941e-02 5.835265e-02 5.853495e-02 5.569620e-02 5.533369e-02 5.293736e-02 5.210194e-02 5.016895e-02 4.956378e-02 4.811994e-02 4.868174e-02 4.787412e-02 5.044836e-02 5.005636e-02 5.423759e-02 5.316364e-02 5.830757e-02 5.624135e-02 6.213461e-02 5.897268e-02 6.505413e-02 6.109397e-02 6.689015e-02 6.240366e-02 6.671148e-02 6.214525e-02 6.426252e-02 6.097440e-02 6.036877e-02 5.990867e-02 5.620406e-02 6.029188e-02 5.280605e-02 6.240195e-02 4.993623e-02 6.741041e-02 4.898003e-02 1.294131e-01 1.037218e-01 -2.364282e-03 0 0 0 0 
0 0 0 0 0 -2.016329e+00 4.073491e+00 3.239702e+00 7.379679e-01 1.844054e+00 9.984660e-01 1.650987e+00 -2.117001e+00 -3.852374e+01 -4.828489e+01 -4.350567e+01 -5.056928e+01 -4.690623e+01 -4.650294e+01 -5.216881e+01 -3.443649e+01 -1.557019e+00 1.254073e+00 1.181862e+00 1.351919e+00 1.293698e+00 1.479488e+00 1.409792e+00 1.604056e+00 1.513251e+00 1.702148e+00 1.584169e+00 1.753275e+00 1.616841e+00 1.763467e+00 1.617510e+00 1.734717e+00 1.586623e+00 1.674614e+00 1.533588e+00 1.589441e+00 1.465307e+00 1.501953e+00 1.413611e+00 1.443065e+00 1.398565e+00 1.424318e+00 1.423748e+00 1.437208e+00 1.467468e+00 1.459888e+00 1.522351e+00 1.493597e+00 1.583066e+00 1.523859e+00 1.598122e+00 1.358857e+00 1.412617e+00 1.515283e+00 1.560065e+00 1.409017e+00 1.382700e+00 1.433498e+00 1.417122e+00 1.417049e+00 1.416781e+00 1.294692e+00 1.262974e+00 1.157807e+00 1.170166e+00 1.120798e+00 1.264393e+00 1.203312e+00 1.115340e+00 1.119631e+00 1.134724e+00 1.182657e+00 1.200050e+00 1.266729e+00 1.275178e+00 1.344521e+00 1.333386e+00 1.388916e+00 1.348061e+00 1.374235e+00 1.309685e+00 1.313812e+00 1.250134e+00 1.242043e+00 1.188287e+00 1.169553e+00 1.126175e+00 1.112583e+00 1.080177e+00 1.092778e+00 1.074650e+00 1.132419e+00 1.123605e+00 1.217423e+00 1.193266e+00 1.308643e+00 1.262164e+00 1.394309e+00 1.323200e+00 1.459569e+00 1.370535e+00 1.500573e+00 1.399752e+00 1.496469e+00 1.393946e+00 1.441589e+00 1.367890e+00 1.354557e+00 1.344465e+00 1.261652e+00 1.353682e+00 1.185822e+00 1.400988e+00 1.119533e+00 1.505734e+00 1.070833e+00 2.872202e+00 2.317828e+00 -5.314386e-02 0 0 0 0 
0 0 0 0 0 -2.919225e+00 5.895271e+00 4.688237e+00 1.068917e+00 2.671240e+00 1.447227e+00 2.391713e+00 -3.063443e+00 -1.089151e+01 -1.424211e+01 -1.177975e+01 -1.491407e+01 -1.284249e+01 -1.358727e+01 -1.462000e+01 -1.044597e+01 -2.253474e+00 1.815094e+00 1.710544e+00 1.956642e+00 1.872357e+00 2.141249e+00 2.040375e+00 2.321552e+00 2.190139e+00 2.463557e+00 2.292817e+00 2.537593e+00 2.340145e+00 2.552383e+00 2.341152e+00 2.510808e+00 2.296471e+00 2.423834e+00 2.219714e+00 2.300551e+00 2.120875e+00 2.173908e+00 2.046040e+00 2.088674e+00 2.024267e+00 2.061560e+00 2.060741e+00 2.080238e+00 2.124042e+00 2.113069e+00 2.203482e+00 2.161862e+00 2.291365e+00 2.205681e+00 2.313181e+00 1.966874e+00 2.044698e+00 2.193311e+00 2.258135e+00 2.039500e+00 2.001406e+00 2.074932e+00 2.051230e+00 2.051126e+00 2.050743e+00 1.874029e+00 1.828127e+00 1.675908e+00 1.693808e+00 1.622356e+00 1.830216e+00 1.741803e+00 1.614459e+00 1.620667e+00 1.642511e+00 1.711894e+00 1.737075e+00 1.833601e+00 1.845840e+00 1.946224e+00 1.930108e+00 2.010492e+00 1.951352e+00 1.989243e+00 1.895809e+00 1.901792e+00 1.809626e+00 1.797925e+00 1.720119e+00 1.693005e+00 1.630216e+00 1.610538e+00 1.563629e+00 1.581867e+00 1.555626e+00 1.639248e+00 1.626485e+00 1.762282e+00 1.727300e+00 1.894293e+00 1.826987e+00 2.018239e+00 1.915270e+00 2.112637e+00 1.983719e+00 2.171939e+00 2.025966e+00 2.165976e+00 2.017561e+00 2.086557e+00 1.979901e+00 1.960666e+00 1.946118e+00 1.826329e+00 1.959616e+00 1.716673e+00 2.028079e+00 1.620241e+00 2.177756e+00 1.542828e+00 4.149377e+00 3.352553e+00 -7.694749e-02 0 0 0 0 
0 0 0 0 0 -9.926405e-01 2.003490e+00 1.593112e+00 3.637090e-01 9.090114e-01 4.929115e-01 8.139589e-01 -1.040936e+00 -3.702280e+00 -4.841535e+00 -4.004469e+00 -5.069984e+00 -4.365722e+00 -4.618678e+00 -4.969559e+00 -3.550506e+00 -7.658905e-01 6.169337e-01 5.813809e-01 6.650106e-01 6.363538e-01 7.277416e-01 6.934561e-01 7.890285e-01 7.443692e-01 8.373097e-01 7.792857e-01 8.624919e-01 7.953916e-01 8.675383e-01 7.957519e-01 8.534249e-01 7.805775e-01 8.238712e-01 7.544903e-01 7.819644e-01 7.208895e-01 7.389121e-01 6.954477e-01 7.099409e-01 6.880492e-01 7.007346e-01 7.004585e-01 7.070931e-01 7.219846e-01 7.182546e-01 7.489882e-01 7.348413e-01 7.788626e-01 7.497438e-01 7.862887e-01 6.685801e-01 6.950390e-01 7.455601e-01 7.675974e-01 6.932777e-01 6.803285e-01 7.053209e-01 6.972646e-01 6.972299e-01 6.971022e-01 6.370355e-01 6.214362e-01 5.696963e-01 5.757862e-01 5.515005e-01 6.221634e-01 5.921093e-01 5.488178e-01 5.509266e-01 5.583504e-01 5.819366e-01 5.904993e-01 6.233157e-01 6.274804e-01 6.616093e-01 6.561319e-01 6.834601e-01 6.633550e-01 6.762376e-01 6.444766e-01 6.465148e-01 6.151877e-01 6.112156e-01 5.847690e-01 5.755539e-01 5.542095e-01 5.475189e-01 5.315721e-01 5.377713e-01 5.288504e-01 5.572765e-01 5.529360e-01 5.990966e-01 5.871977e-01 6.439578e-01 6.210644e-01 6.860647e-01 6.510431e-01 7.181223e-01 6.742781e-01 7.382568e-01 6.886180e-01 7.362181e-01 6.857601e-01 7.092301e-01 6.729851e-01 6.664781e-01 6.615615e-01 6.208806e-01 6.662259e-01 5.836571e-01 6.894934e-01 5.506439e-01 7.394319e-01 5.209752e-01 1.406588e+00 1.138447e+00 -2.616791e-02 0 0 0 0 
0 0 0 0 0 0 0 0 0 0 0 0 0 0 0 0 0 0 0 0 0 0 0 0 0 0 0 0 0 0 0 0 0 0 0 0 0 0 0 0 0 0 0 0 0 0 0 0 0 0 0 0 0 0 0 0 0 0 0 0 0 0 0 0 0 0 0 0 0 0 0 0 0 0 0 0 0 0 0 0 0 0 0 0 0 0 0 0 0 0 0 0 0 0 0 0 0 0 0 0 0 0 0 0 0 0 0 0 0 0 0 0 0 0 0 0 0 0 0 0 0 0 0 0 0 0 0 0 
