# vtk DataFile Version 2.0
Comment goes here
ASCII

DATASET STRUCTURED_POINTS
FIELD FieldData 1
TIME 1 1 double
0.74000000
DIMENSIONS    128   16   1

ORIGIN    0.000   0.000   0.000
SPACING   0.0078125 0.015625   1.000

POINT_DATA   2048
SCALARS fX double
LOOKUP_TABLE default

0 0 0 0 0 0 0 0 0 0 0 0 0 0 0 0 0 0 0 0 0 0 0 0 0 0 0 0 0 0 0 0 0 0 0 0 0 0 0 0 0 0 0 0 0 0 0 0 0 0 0 0 0 0 0 0 0 0 0 0 0 0 0 0 0 0 0 0 0 0 0 0 0 0 0 0 0 0 0 0 0 0 0 0 0 0 0 0 0 0 0 0 0 0 0 0 0 0 0 0 0 0 0 0 0 0 0 0 0 0 0 0 0 0 0 0 0 0 0 0 0 0 0 0 0 0 0 0 
0 0 0 0 0 0 0 0 0 0 0 0 0 0 0 0 0 0 0 0 0 0 0 0 0 0 0 0 0 0 0 0 0 0 0 0 0 0 0 0 0 0 0 0 0 0 0 0 0 0 0 0 0 0 0 0 0 0 0 0 0 0 0 0 0 0 0 0 0 0 0 0 0 0 0 0 0 0 0 0 0 0 0 0 0 0 0 0 0 0 0 0 0 0 0 0 0 0 0 0 0 0 0 0 0 0 0 0 0 0 0 0 0 0 0 0 0 0 0 0 0 0 0 0 0 0 0 0 
0 0 0 0 0 -1.000178e+00 1.987017e+00 1.553411e+00 3.174272e-01 8.588555e-01 4.524983e-01 7.815011e-01 -1.060461e+00 -3.740651e+00 -4.872280e+00 -4.001342e+00 -5.097503e+00 -4.341739e+00 -4.619470e+00 -4.979444e+00 -3.482585e+00 -7.303187e-01 6.622182e-01 6.158612e-01 6.856060e-01 6.384014e-01 7.032105e-01 6.484515e-01 7.122729e-01 6.508279e-01 7.149073e-01 6.502539e-01 7.138621e-01 6.499790e-01 7.116305e-01 6.523103e-01 7.096368e-01 6.580857e-01 7.078814e-01 6.659655e-01 7.053660e-01 6.734173e-01 7.006837e-01 6.778749e-01 6.931142e-01 6.782545e-01 6.826765e-01 6.740583e-01 6.685311e-01 6.666615e-01 6.477308e-01 6.554960e-01 6.180707e-01 6.350675e-01 5.736491e-01 5.626647e-01 -8.734592e-02 -1.858938e-01 -2.394631e-01 -6.064901e-01 1.560623e+00 2.956260e+00 1.392284e+00 6.499786e-01 8.071282e-01 7.822969e-01 1.296194e+00 2.220992e+00 1.915059e+00 1.743621e-01 5.640515e-01 1.113455e+00 9.530241e-01 1.145335e+00 6.402686e-01 7.273924e-01 6.620490e-01 6.999682e-01 6.632653e-01 6.778098e-01 6.647315e-01 6.642855e-01 6.682850e-01 6.585723e-01 6.731784e-01 6.591632e-01 6.785123e-01 6.640748e-01 6.841256e-01 6.706151e-01 6.899371e-01 6.763238e-01 6.956800e-01 6.793823e-01 7.007986e-01 6.785090e-01 7.052560e-01 6.738022e-01 7.089287e-01 6.664201e-01 7.119085e-01 6.581215e-01 7.142093e-01 6.511258e-01 7.154119e-01 6.477712e-01 7.147596e-01 6.497781e-01 7.108911e-01 6.581160e-01 7.026955e-01 6.734453e-01 6.895895e-01 6.958570e-01 6.714629e-01 7.250377e-01 6.486474e-01 7.612808e-01 6.219874e-01 8.158434e-01 5.851780e-01 1.465033e+00 1.153709e+00 -2.903865e-02 0 0 0 0 
0 0 0 0 0 -2.941390e+00 5.846899e+00 4.571606e+00 9.328925e-01 2.523769e+00 1.328393e+00 2.296256e+00 -3.120887e+00 -1.100439e+01 -1.433255e+01 -1.177057e+01 -1.499502e+01 -1.277193e+01 -1.358959e+01 -1.464907e+01 -1.024611e+01 -2.148738e+00 1.948408e+00 1.812062e+00 2.017299e+00 1.878438e+00 2.069126e+00 1.908012e+00 2.095770e+00 1.914963e+00 2.103466e+00 1.913210e+00 2.100323e+00 1.912337e+00 2.093697e+00 1.919148e+00 2.087794e+00 1.936115e+00 2.082615e+00 1.959295e+00 2.075217e+00 1.981228e+00 2.061454e+00 1.994357e+00 2.039197e+00 1.995485e+00 2.008495e+00 1.983142e+00 1.966874e+00 1.961368e+00 1.905659e+00 1.928491e+00 1.818365e+00 1.868352e+00 1.687641e+00 1.655320e+00 -3.071507e-01 -7.450837e-01 -8.026369e-01 -1.281173e+00 5.256192e+00 8.970281e+00 4.161197e+00 1.689583e+00 1.914397e+00 1.572936e+00 2.619379e+00 4.665474e+00 1.970832e+00 -2.196030e+00 1.018813e+00 2.748808e+00 2.702042e+00 3.369281e+00 1.883509e+00 2.139779e+00 1.947536e+00 2.059057e+00 1.951072e+00 1.993846e+00 1.955369e+00 1.954059e+00 1.965827e+00 1.937263e+00 1.980232e+00 1.939011e+00 1.995929e+00 1.953460e+00 2.012437e+00 1.972689e+00 2.029519e+00 1.989464e+00 2.046393e+00 1.998441e+00 2.061433e+00 1.995857e+00 2.074534e+00 1.982007e+00 2.085341e+00 1.960308e+00 2.094133e+00 1.935942e+00 2.100959e+00 1.915440e+00 2.104579e+00 1.905664e+00 2.102743e+00 1.911638e+00 2.091405e+00 1.936173e+00 2.067257e+00 1.981178e+00 2.028569e+00 2.046920e+00 1.975044e+00 2.132543e+00 1.907783e+00 2.239193e+00 1.830055e+00 2.402487e+00 1.731630e+00 4.321248e+00 3.397448e+00 -8.538965e-02 0 0 0 0 
0 0 0 0 0 -2.031637e+00 4.040114e+00 3.159205e+00 6.440553e-01 1.742210e+00 9.163934e-01 1.585053e+00 -2.156690e+00 -3.882684e+01 -4.863004e+01 -4.367046e+01 -5.109445e+01 -4.702463e+01 -4.686064e+01 -5.256536e+01 -3.419277e+01 -1.484617e+00 1.346220e+00 1.252038e+00 1.393857e+00 1.297927e+00 1.429681e+00 1.318363e+00 1.448081e+00 1.323146e+00 1.453372e+00 1.321904e+00 1.451167e+00 1.321269e+00 1.446561e+00 1.325952e+00 1.442464e+00 1.337663e+00 1.438879e+00 1.353676e+00 1.433769e+00 1.368834e+00 1.424265e+00 1.377911e+00 1.408894e+00 1.378696e+00 1.387686e+00 1.370170e+00 1.358927e+00 1.355120e+00 1.316624e+00 1.332392e+00 1.256296e+00 1.290824e+00 1.165963e+00 1.143631e+00 -2.326590e-01 -2.972706e-01 -8.572065e-02 1.224313e-01 4.975728e+00 6.831263e+00 3.091182e+00 1.236770e+00 1.414080e+00 1.063554e+00 1.766322e+00 2.822305e+00 -4.289469e-02 -2.191247e+00 8.909145e-01 2.091248e+00 2.049473e+00 2.327671e+00 1.301225e+00 1.478258e+00 1.345437e+00 1.422468e+00 1.347860e+00 1.377404e+00 1.350821e+00 1.349916e+00 1.358047e+00 1.338318e+00 1.368004e+00 1.339530e+00 1.378851e+00 1.349513e+00 1.390254e+00 1.362792e+00 1.402047e+00 1.374371e+00 1.413695e+00 1.380564e+00 1.424077e+00 1.378771e+00 1.433122e+00 1.369201e+00 1.440590e+00 1.354219e+00 1.446677e+00 1.337408e+00 1.451420e+00 1.323282e+00 1.453961e+00 1.316572e+00 1.452733e+00 1.320734e+00 1.444920e+00 1.337688e+00 1.428219e+00 1.368735e+00 1.401427e+00 1.414063e+00 1.364351e+00 1.473109e+00 1.317814e+00 1.546803e+00 1.264454e+00 1.660965e+00 1.201235e+00 2.990911e+00 2.348843e+00 -5.897477e-02 0 0 0 0 
0 0 0 0 0 -9.042553e-02 1.802323e-01 1.410099e-01 2.859000e-02 7.729627e-02 4.049903e-02 7.029838e-02 -9.626379e-02 -4.435941e+01 -4.852425e+01 -4.549797e+01 -4.762110e+01 -4.694834e+01 -4.597610e+01 -4.852806e+01 -4.392931e+01 -6.619764e-02 6.003090e-02 5.583703e-02 6.216484e-02 5.789041e-02 6.376607e-02 5.880215e-02 6.458406e-02 5.901048e-02 6.481330e-02 5.894720e-02 6.470658e-02 5.891094e-02 6.449383e-02 5.911381e-02 6.430654e-02 5.963291e-02 6.414497e-02 6.034634e-02 6.391747e-02 6.102327e-02 6.349527e-02 6.142974e-02 6.281162e-02 6.146612e-02 6.186699e-02 6.108628e-02 6.058433e-02 6.041389e-02 5.869597e-02 5.939723e-02 5.600254e-02 5.753961e-02 5.197131e-02 5.097525e-02 -1.125390e-02 3.981673e-01 7.287740e-01 1.076819e+00 1.668345e+00 1.086802e+00 4.533925e-01 3.559942e-01 5.992660e-01 5.913274e-01 9.126721e-01 8.858674e-01 5.192824e-01 8.445595e-01 8.093073e-01 7.611969e-01 4.166441e-01 1.037252e-01 5.798538e-02 6.587121e-02 5.994997e-02 6.337922e-02 6.005281e-02 6.136782e-02 6.018279e-02 6.014265e-02 6.050528e-02 5.962714e-02 6.095031e-02 5.968240e-02 6.143437e-02 6.012729e-02 6.194190e-02 6.071770e-02 6.246568e-02 6.123139e-02 6.298230e-02 6.150485e-02 6.344270e-02 6.142311e-02 6.384437e-02 6.099619e-02 6.417746e-02 6.033067e-02 6.445199e-02 5.958732e-02 6.467043e-02 5.896732e-02 6.479387e-02 5.867959e-02 6.474927e-02 5.887383e-02 6.440621e-02 5.963020e-02 6.365725e-02 6.100253e-02 6.244699e-02 6.299946e-02 6.076999e-02 6.560366e-02 5.867859e-02 6.889156e-02 5.638677e-02 7.432148e-02 5.478288e-02 1.346959e-01 1.051037e-01 -2.623770e-03 0 0 0 0 
0 0 0 0 0 0 0 0 0 0 0 0 0 -4.840281e+01 -5.247893e+01 -4.957047e+01 -5.150990e+01 -5.112587e+01 -4.977072e+01 -5.276600e+01 -4.771469e+01 0 0 0 0 0 0 0 0 0 0 0 0 0 0 0 0 0 0 0 0 0 0 0 0 0 0 0 0 0 0 0 0 0 0 0 9.761057e-04 1.198007e-01 2.286018e-01 2.553280e-01 3.656429e-01 3.139927e-01 2.265592e-01 2.286280e-01 3.781262e-01 3.783363e-01 4.988047e-01 5.314654e-01 6.185496e-01 6.990954e-01 4.703342e-01 4.131614e-01 1.522131e-01 0 0 0 0 0 0 0 0 0 0 0 0 0 0 0 0 0 0 0 0 0 0 0 0 0 0 0 0 0 0 0 0 0 0 0 0 0 0 0 0 0 0 0 0 0 0 0 0 0 0 0 0 0 0 0 
0 0 0 0 0 0 0 0 0 0 0 0 0 -4.831375e+01 -5.013260e+01 -4.853514e+01 -4.938510e+01 -4.914520e+01 -4.870896e+01 -4.993458e+01 -4.834386e+01 0 0 0 0 0 0 0 0 0 0 0 0 0 0 0 0 0 0 0 0 0 0 0 0 0 0 0 0 0 0 0 0 0 0 0 -5.678380e-03 -4.760964e-02 -5.897210e-02 -7.853534e-02 -8.477368e-02 -5.971805e-03 5.496952e-02 8.186218e-03 -1.198798e-02 -3.009529e-02 -9.702236e-02 -9.164601e-02 -1.435396e-01 -1.176445e-01 -4.915420e-02 -1.303170e-02 1.981075e-02 0 0 0 0 0 0 0 0 0 0 0 0 0 0 0 0 0 0 0 0 0 0 0 0 0 0 0 0 0 0 0 0 0 0 0 0 0 0 0 0 0 0 0 0 0 0 0 0 0 0 0 0 0 0 0 
0 0 0 0 0 0 0 0 0 0 0 0 0 -5.078424e+01 -5.297468e+01 -5.120980e+01 -5.209303e+01 -5.208116e+01 -5.114235e+01 -5.305925e+01 -5.050668e+01 0 0 0 0 0 0 0 0 0 0 0 0 0 0 0 0 0 0 0 0 0 0 0 0 0 0 0 0 0 0 0 0 0 0 0 -8.827562e-03 -5.138326e-02 -6.152555e-02 -1.020327e-01 -1.127167e-01 -6.909568e-02 -5.250446e-02 -7.686594e-02 -1.174441e-01 -1.137747e-01 -1.548499e-01 -1.400502e-01 -1.641751e-01 -1.608062e-01 -1.471059e-01 -1.219188e-01 -1.677834e-02 0 0 0 0 0 0 0 0 0 0 0 0 0 0 0 0 0 0 0 0 0 0 0 0 0 0 0 0 0 0 0 0 0 0 0 0 0 0 0 0 0 0 0 0 0 0 0 0 0 0 0 0 0 0 0 
0 0 0 0 0 0 0 0 0 0 0 0 0 -4.830875e+01 -5.012182e+01 -4.853152e+01 -4.937749e+01 -4.913916e+01 -4.871103e+01 -4.992511e+01 -4.835798e+01 0 0 0 0 0 0 0 0 0 0 0 0 0 0 0 0 0 0 0 0 0 0 0 0 0 0 0 0 0 0 0 0 0 0 0 -5.327908e-03 -2.761097e-02 -3.491572e-02 -6.802388e-02 -7.172620e-02 -3.225874e-02 -2.461920e-02 -3.879965e-02 -4.935948e-02 -6.092753e-02 -7.630180e-02 -7.817967e-02 -9.371101e-02 -7.133482e-02 -5.910002e-02 -3.979798e-02 -1.871899e-03 0 0 0 0 0 0 0 0 0 0 0 0 0 0 0 0 0 0 0 0 0 0 0 0 0 0 0 0 0 0 0 0 0 0 0 0 0 0 0 0 0 0 0 0 0 0 0 0 0 0 0 0 0 0 0 
0 0 0 0 0 0 0 0 0 0 0 0 0 -4.839338e+01 -5.244222e+01 -4.958109e+01 -5.146781e+01 -5.112505e+01 -4.976944e+01 -5.271776e+01 -4.778364e+01 0 0 0 0 0 0 0 0 0 0 0 0 0 0 0 0 0 0 0 0 0 0 0 0 0 0 0 0 0 0 0 0 0 0 0 -2.284889e-03 -1.095360e-02 -1.307121e-02 -2.149730e-02 -2.217237e-02 -1.377315e-02 -1.256385e-02 -2.271941e-02 -2.843643e-02 -3.639482e-02 -4.718955e-02 -5.075014e-02 -6.966186e-02 -5.786147e-02 -5.388029e-02 -3.669920e-02 -1.388672e-03 0 0 0 0 0 0 0 0 0 0 0 0 0 0 0 0 0 0 0 0 0 0 0 0 0 0 0 0 0 0 0 0 0 0 0 0 0 0 0 0 0 0 0 0 0 0 0 0 0 0 0 0 0 0 0 
0 0 0 0 0 -9.019584e-02 1.806089e-01 1.424940e-01 2.992202e-02 7.901838e-02 4.169277e-02 7.137282e-02 -9.630218e-02 -4.434425e+01 -4.848475e+01 -4.550229e+01 -4.757236e+01 -4.693441e+01 -4.597311e+01 -4.846383e+01 -4.401349e+01 -6.761180e-02 5.880534e-02 5.444178e-02 6.091960e-02 5.646647e-02 6.284747e-02 5.768485e-02 6.427489e-02 5.848699e-02 6.522081e-02 5.908640e-02 6.569629e-02 5.951314e-02 6.568322e-02 5.978456e-02 6.527798e-02 5.994613e-02 6.464004e-02 6.011873e-02 6.388855e-02 6.036092e-02 6.317978e-02 6.069105e-02 6.263327e-02 6.119189e-02 6.228863e-02 6.191315e-02 6.217875e-02 6.290349e-02 6.231850e-02 6.424178e-02 6.277871e-02 6.596761e-02 6.378751e-02 6.715456e-02 6.099488e-02 6.150336e-02 6.374668e-02 6.826029e-02 5.977186e-02 6.206181e-02 6.569998e-02 6.864765e-02 6.772430e-02 6.840388e-02 6.362122e-02 6.423793e-02 6.275956e-02 6.053294e-02 5.982402e-02 5.709903e-02 5.479853e-02 5.641853e-02 5.658827e-02 5.715849e-02 5.821192e-02 5.797632e-02 5.945871e-02 5.862396e-02 6.033665e-02 5.905915e-02 6.079438e-02 5.932302e-02 6.087827e-02 5.945958e-02 6.072192e-02 5.952210e-02 6.046712e-02 5.953215e-02 6.024937e-02 5.952443e-02 6.021203e-02 5.952220e-02 6.052389e-02 5.952980e-02 6.124939e-02 5.959221e-02 6.226040e-02 5.972331e-02 6.333863e-02 5.985600e-02 6.429691e-02 5.998013e-02 6.497863e-02 6.019128e-02 6.525685e-02 6.056217e-02 6.500611e-02 6.114638e-02 6.409108e-02 6.200915e-02 6.249234e-02 6.324396e-02 6.031527e-02 6.502998e-02 5.779001e-02 6.766039e-02 5.532172e-02 7.280824e-02 5.404670e-02 1.331553e-01 1.049877e-01 -2.449957e-03 0 0 0 0 
0 0 0 0 0 -2.026467e+00 4.048769e+00 3.192887e+00 6.741977e-01 1.780968e+00 9.432301e-01 1.609166e+00 -2.157609e+00 -3.873796e+01 -4.856321e+01 -4.381520e+01 -5.083788e+01 -4.717024e+01 -4.675337e+01 -5.228759e+01 -3.458815e+01 -1.516068e+00 1.318967e+00 1.220937e+00 1.366094e+00 1.266130e+00 1.409198e+00 1.293409e+00 1.441237e+00 1.311486e+00 1.462585e+00 1.325082e+00 1.473414e+00 1.334807e+00 1.473262e+00 1.341008e+00 1.464265e+00 1.344696e+00 1.450002e+00 1.348591e+00 1.433162e+00 1.354028e+00 1.417269e+00 1.361434e+00 1.405014e+00 1.372677e+00 1.397299e+00 1.388882e+00 1.394870e+00 1.411143e+00 1.398058e+00 1.441226e+00 1.408444e+00 1.480010e+00 1.431136e+00 1.506700e+00 1.384917e+00 1.459915e+00 1.507231e+00 1.561845e+00 1.362095e+00 1.397202e+00 1.473814e+00 1.521797e+00 1.494130e+00 1.517508e+00 1.415208e+00 1.386623e+00 1.318299e+00 1.268827e+00 1.242715e+00 1.234884e+00 1.231615e+00 1.266135e+00 1.269958e+00 1.282768e+00 1.306422e+00 1.301139e+00 1.334419e+00 1.315686e+00 1.354140e+00 1.325476e+00 1.364450e+00 1.331446e+00 1.366391e+00 1.334574e+00 1.362945e+00 1.336040e+00 1.357282e+00 1.336317e+00 1.352435e+00 1.336180e+00 1.351621e+00 1.336148e+00 1.358625e+00 1.336311e+00 1.374882e+00 1.337663e+00 1.397500e+00 1.340496e+00 1.421561e+00 1.343288e+00 1.442853e+00 1.345816e+00 1.457887e+00 1.350274e+00 1.463885e+00 1.358389e+00 1.458139e+00 1.371480e+00 1.437713e+00 1.391098e+00 1.402221e+00 1.419341e+00 1.353949e+00 1.460056e+00 1.297720e+00 1.519037e+00 1.240424e+00 1.626818e+00 1.184296e+00 2.955895e+00 2.346117e+00 -5.506977e-02 0 0 0 0 
0 0 0 0 0 -2.933902e+00 5.859479e+00 4.620458e+00 9.765871e-01 2.579899e+00 1.367251e+00 2.331160e+00 -3.122233e+00 -1.097089e+01 -1.431572e+01 -1.186095e+01 -1.494185e+01 -1.287265e+01 -1.360026e+01 -1.460033e+01 -1.040931e+01 -2.194191e+00 1.909023e+00 1.767097e+00 1.977158e+00 1.832452e+00 2.039510e+00 1.871922e+00 2.085887e+00 1.898108e+00 2.116819e+00 1.917825e+00 2.132535e+00 1.931939e+00 2.132350e+00 1.940944e+00 2.119351e+00 1.946297e+00 2.098719e+00 1.951942e+00 2.074350e+00 1.959811e+00 2.051348e+00 1.970532e+00 2.033611e+00 1.986807e+00 2.022449e+00 2.010268e+00 2.018941e+00 2.042500e+00 2.023569e+00 2.086058e+00 2.038618e+00 2.142211e+00 2.071478e+00 2.180857e+00 2.004591e+00 2.113152e+00 2.181648e+00 2.260703e+00 1.971578e+00 2.022397e+00 2.133293e+00 2.202753e+00 2.162709e+00 2.196556e+00 2.048485e+00 2.007117e+00 1.908224e+00 1.836619e+00 1.798824e+00 1.787491e+00 1.782763e+00 1.832733e+00 1.838271e+00 1.856816e+00 1.891059e+00 1.883414e+00 1.931590e+00 1.904473e+00 1.960141e+00 1.918651e+00 1.975073e+00 1.927304e+00 1.977898e+00 1.931849e+00 1.972927e+00 1.933986e+00 1.964742e+00 1.934401e+00 1.957737e+00 1.934212e+00 1.956565e+00 1.934169e+00 1.966704e+00 1.934403e+00 1.990230e+00 1.936347e+00 2.022952e+00 1.940422e+00 2.057745e+00 1.944415e+00 2.088512e+00 1.948009e+00 2.110206e+00 1.954391e+00 2.118826e+00 1.966084e+00 2.110477e+00 1.985028e+00 2.080938e+00 2.013491e+00 2.029661e+00 2.054508e+00 1.959937e+00 2.113603e+00 1.878658e+00 2.198966e+00 1.795238e+00 2.353011e+00 1.707005e+00 4.270449e+00 3.393472e+00 -7.973605e-02 0 0 0 0 
0 0 0 0 0 -9.976310e-01 1.991319e+00 1.570064e+00 3.323114e-01 8.779497e-01 4.657134e-01 7.933665e-01 -1.060926e+00 -3.729268e+00 -4.866559e+00 -4.032068e+00 -5.079420e+00 -4.375966e+00 -4.623079e+00 -4.962859e+00 -3.538035e+00 -7.457349e-01 6.488607e-01 6.006018e-01 6.719830e-01 6.227886e-01 6.931589e-01 6.361980e-01 7.089250e-01 6.451090e-01 7.194546e-01 6.518292e-01 7.248167e-01 6.566451e-01 7.247713e-01 6.597199e-01 7.203642e-01 6.615474e-01 7.133572e-01 6.634689e-01 7.050764e-01 6.661442e-01 6.972585e-01 6.697882e-01 6.912305e-01 6.753212e-01 6.874385e-01 6.832986e-01 6.862505e-01 6.942601e-01 6.878301e-01 7.090733e-01 6.929529e-01 7.281685e-01 7.041297e-01 7.413122e-01 6.814000e-01 7.183046e-01 7.415908e-01 7.684657e-01 6.701873e-01 6.874640e-01 7.251617e-01 7.487753e-01 7.351656e-01 7.466748e-01 6.963443e-01 6.822856e-01 6.486708e-01 6.243321e-01 6.114856e-01 6.076346e-01 6.060285e-01 6.230169e-01 6.249013e-01 6.312071e-01 6.428492e-01 6.402507e-01 6.566293e-01 6.474110e-01 6.663370e-01 6.522337e-01 6.714177e-01 6.551812e-01 6.723852e-01 6.567340e-01 6.707031e-01 6.574682e-01 6.679275e-01 6.576156e-01 6.655512e-01 6.575557e-01 6.651556e-01 6.575435e-01 6.686031e-01 6.576221e-01 6.765972e-01 6.582770e-01 6.877122e-01 6.596486e-01 6.995227e-01 6.609833e-01 7.099554e-01 6.621734e-01 7.172975e-01 6.643083e-01 7.201974e-01 6.682575e-01 7.173446e-01 6.746949e-01 7.073167e-01 6.844018e-01 6.899333e-01 6.984109e-01 6.663032e-01 7.185774e-01 6.387280e-01 7.475895e-01 6.101359e-01 7.990014e-01 5.767556e-01 1.447710e+00 1.152343e+00 -2.711624e-02 0 0 0 0 
0 0 0 0 0 0 0 0 0 0 0 0 0 0 0 0 0 0 0 0 0 0 0 0 0 0 0 0 0 0 0 0 0 0 0 0 0 0 0 0 0 0 0 0 0 0 0 0 0 0 0 0 0 0 0 0 0 0 0 0 0 0 0 0 0 0 0 0 0 0 0 0 0 0 0 0 0 0 0 0 0 0 0 0 0 0 0 0 0 0 0 0 0 0 0 0 0 0 0 0 0 0 0 0 0 0 0 0 0 0 0 0 0 0 0 0 0 0 0 0 0 0 0 0 0 0 0 0 
