# vtk DataFile Version 2.0
Comment goes here
ASCII

DATASET STRUCTURED_POINTS
FIELD FieldData 1
TIME 1 1 double
0.25000000
DIMENSIONS    128   16   1

ORIGIN    0.000   0.000   0.000
SPACING   0.0078125 0.015625   1.000

POINT_DATA   2048
SCALARS fY double
LOOKUP_TABLE default

0 0 0 0 0 0 0 0 0 0 0 0 0 0 0 0 0 0 0 0 0 0 0 0 0 0 0 0 0 0 0 0 0 0 0 0 0 0 0 0 0 0 0 0 0 0 0 0 0 0 0 0 0 0 0 0 0 0 0 0 0 0 0 0 0 0 0 0 0 0 0 0 0 0 0 0 0 0 0 0 0 0 0 0 0 0 0 0 0 0 0 0 0 0 0 0 0 0 0 0 0 0 0 0 0 0 0 0 0 0 0 0 0 0 0 0 0 0 0 0 0 0 0 0 0 0 0 0 
0 0 0 0 0 0 0 0 0 0 0 0 0 0 0 0 0 0 0 0 0 0 0 0 0 0 0 0 0 0 0 0 0 0 0 0 0 0 0 0 0 0 0 0 0 0 0 0 0 0 0 0 0 0 0 0 0 0 0 0 0 0 0 0 0 0 0 0 0 0 0 0 0 0 0 0 0 0 0 0 0 0 0 0 0 0 0 0 0 0 0 0 0 0 0 0 0 0 0 0 0 0 0 0 0 0 0 0 0 0 0 0 0 0 0 0 0 0 0 0 0 0 0 0 0 0 0 0 
0 0 0 0 0 1.135238e+00 1.984746e+00 1.471747e+00 2.601814e+00 2.042942e+00 3.385905e+00 2.693857e+00 3.973872e+00 2.336510e+00 -4.333746e+00 -8.595691e+00 -1.362846e+01 -1.874696e+01 -2.348198e+01 -2.776423e+01 -3.471473e+01 -3.584710e+01 -3.549813e+01 -3.596534e+01 -3.531556e+01 -3.490596e+01 -3.360115e+01 -3.284538e+01 -3.209585e+01 -3.226597e+01 -3.268749e+01 -3.337953e+01 -3.362679e+01 -3.328138e+01 -3.250374e+01 -3.134375e+01 -3.033319e+01 -2.943938e+01 -2.923112e+01 -2.907837e+01 -2.936925e+01 -2.938960e+01 -2.950655e+01 -2.914664e+01 -2.888946e+01 -2.828306e+01 -2.779810e+01 -2.725412e+01 -2.693432e+01 -2.666568e+01 -2.636888e+01 -2.608457e+01 -2.554612e+01 -2.511481e+01 -2.446971e+01 -2.438555e+01 -2.431795e+01 -2.546065e+01 -2.620881e+01 -2.756935e+01 -2.707384e+01 -2.368339e+01 -2.096244e+01 -1.974353e+01 -1.889073e+01 -1.946895e+01 -2.127261e+01 -2.260108e+01 -2.386868e+01 -2.431560e+01 -2.354409e+01 -2.136890e+01 -1.885101e+01 -1.659785e+01 -1.539296e+01 -1.505445e+01 -1.562529e+01 -1.646661e+01 -1.715766e+01 -1.747166e+01 -1.710989e+01 -1.656114e+01 -1.581022e+01 -1.526640e+01 -1.469994e+01 -1.435362e+01 -1.395174e+01 -1.333912e+01 -1.263377e+01 -1.190471e+01 -1.171128e+01 -1.171253e+01 -1.233638e+01 -1.248978e+01 -1.248630e+01 -1.146732e+01 -1.048100e+01 -9.110980e+00 -8.476909e+00 -8.146515e+00 -8.622884e+00 -9.081211e+00 -9.428221e+00 -9.381808e+00 -8.795853e+00 -8.095842e+00 -6.927794e+00 -6.179273e+00 -5.048065e+00 -4.902518e+00 -4.468110e+00 -5.094941e+00 -4.951275e+00 -5.537252e+00 -5.039258e+00 -5.035895e+00 -3.998840e+00 -3.502011e+00 -2.569208e+00 -2.204032e+00 -1.971470e+00 -1.553364e+00 -1.958181e+00 1.943814e-01 0 0 0 0 
0 0 0 0 0 3.338013e+00 5.830496e+00 4.319345e+00 7.648243e+00 6.006708e+00 9.955272e+00 7.918228e+00 1.168095e+01 6.864470e+00 -1.275143e+01 -2.528792e+01 -4.009325e+01 -5.515419e+01 -6.908698e+01 -8.169046e+01 -1.021484e+02 -1.054809e+02 -1.044535e+02 -1.058287e+02 -1.039158e+02 -1.027100e+02 -9.886910e+01 -9.664442e+01 -9.443822e+01 -9.493900e+01 -9.617978e+01 -9.821692e+01 -9.894472e+01 -9.792796e+01 -9.563900e+01 -9.222447e+01 -8.925002e+01 -8.661915e+01 -8.600614e+01 -8.555652e+01 -8.641264e+01 -8.647253e+01 -8.681677e+01 -8.575747e+01 -8.500054e+01 -8.321580e+01 -8.178847e+01 -8.018747e+01 -7.924626e+01 -7.845563e+01 -7.758209e+01 -7.674534e+01 -7.516061e+01 -7.389124e+01 -7.199266e+01 -7.174496e+01 -7.156231e+01 -7.474996e+01 -7.670127e+01 -7.934721e+01 -7.764896e+01 -7.187366e+01 -6.564157e+01 -6.097048e+01 -5.821892e+01 -5.867855e+01 -6.300676e+01 -6.731797e+01 -7.198738e+01 -7.257664e+01 -6.944116e+01 -6.301801e+01 -5.545533e+01 -4.882831e+01 -4.528298e+01 -4.428694e+01 -4.596656e+01 -4.844204e+01 -5.047540e+01 -5.139932e+01 -5.033483e+01 -4.872018e+01 -4.651072e+01 -4.491058e+01 -4.324391e+01 -4.222496e+01 -4.104253e+01 -3.924005e+01 -3.716481e+01 -3.501982e+01 -3.445070e+01 -3.445440e+01 -3.628982e+01 -3.674117e+01 -3.673100e+01 -3.373319e+01 -3.083146e+01 -2.680115e+01 -2.493583e+01 -2.396400e+01 -2.536557e+01 -2.671390e+01 -2.773484e+01 -2.759828e+01 -2.587432e+01 -2.381499e+01 -2.037859e+01 -1.817657e+01 -1.484876e+01 -1.442052e+01 -1.314267e+01 -1.498663e+01 -1.456420e+01 -1.628829e+01 -1.482384e+01 -1.481455e+01 -1.176496e+01 -1.030472e+01 -7.563652e+00 -6.495638e+00 -5.827975e+00 -4.597885e+00 -5.768217e+00 5.716737e-01 0 0 0 0 
0 0 0 0 0 2.305312e+00 4.024072e+00 2.979103e+00 5.281070e+00 4.148237e+00 6.875096e+00 5.467212e+00 8.065358e+00 9.242243e+00 -1.240642e+01 -1.186845e+01 -3.313266e+01 -3.246251e+01 -5.397658e+01 -5.267526e+01 -7.440964e+01 -7.288510e+01 -7.217498e+01 -7.312545e+01 -7.180320e+01 -7.096979e+01 -6.831505e+01 -6.677744e+01 -6.525266e+01 -6.559880e+01 -6.645636e+01 -6.786437e+01 -6.836739e+01 -6.766464e+01 -6.608265e+01 -6.372270e+01 -6.166698e+01 -5.984872e+01 -5.942504e+01 -5.911430e+01 -5.970596e+01 -5.974734e+01 -5.998526e+01 -5.925318e+01 -5.873007e+01 -5.749666e+01 -5.651024e+01 -5.540383e+01 -5.475338e+01 -5.420700e+01 -5.360331e+01 -5.302505e+01 -5.192986e+01 -5.105265e+01 -4.974060e+01 -4.956942e+01 -4.923871e+01 -4.919198e+01 -4.965902e+01 -4.968694e+01 -4.772205e+01 -4.853303e+01 -4.574137e+01 -4.142454e+01 -3.822149e+01 -3.751349e+01 -3.852603e+01 -4.181066e+01 -4.464059e+01 -4.508611e+01 -4.501754e+01 -4.101871e+01 -3.773385e+01 -3.373391e+01 -3.128420e+01 -3.059599e+01 -3.175652e+01 -3.346696e+01 -3.487194e+01 -3.551034e+01 -3.477481e+01 -3.365915e+01 -3.213252e+01 -3.102690e+01 -2.987534e+01 -2.917130e+01 -2.835433e+01 -2.710893e+01 -2.567512e+01 -2.419310e+01 -2.379988e+01 -2.380244e+01 -2.507056e+01 -2.538241e+01 -2.537542e+01 -2.330427e+01 -2.129948e+01 -1.851511e+01 -1.722643e+01 -1.655509e+01 -1.752347e+01 -1.845499e+01 -1.916037e+01 -1.906602e+01 -1.787490e+01 -1.645217e+01 -1.407799e+01 -1.255670e+01 -1.025763e+01 -9.961736e+00 -9.078967e+00 -1.035286e+01 -1.006113e+01 -1.125235e+01 -1.024089e+01 -1.023477e+01 -8.128517e+00 -7.120341e+00 -5.228121e+00 -4.493305e+00 -4.040032e+00 -3.190161e+00 -3.988737e+00 3.948704e-01 0 0 0 0 
0 0 0 0 0 1.025366e-01 1.783218e-01 1.315049e-01 2.346421e-01 1.844716e-01 3.057287e-01 2.428410e-01 3.582806e-01 3.624119e+00 -4.199156e+00 4.551381e+00 -6.853038e+00 4.181167e+00 -7.976336e+00 2.088877e+00 -5.954634e+00 -3.251332e+00 -3.219593e+00 -3.262048e+00 -3.202949e+00 -3.165707e+00 -3.047097e+00 -2.978405e+00 -2.910300e+00 -2.925766e+00 -2.964075e+00 -3.026983e+00 -3.049454e+00 -3.018056e+00 -2.947393e+00 -2.841969e+00 -2.750157e+00 -2.668947e+00 -2.650022e+00 -2.636143e+00 -2.662562e+00 -2.664409e+00 -2.675035e+00 -2.642346e+00 -2.618989e+00 -2.563920e+00 -2.519876e+00 -2.470482e+00 -2.441440e+00 -2.417048e+00 -2.390094e+00 -2.364278e+00 -2.315382e+00 -2.276222e+00 -2.217650e+00 -2.210006e+00 -1.906852e+00 1.273608e+00 2.399491e+00 3.535598e+00 4.396046e+00 1.500757e+00 1.607675e+00 2.092768e+00 3.526021e+00 3.708758e+00 4.828594e+00 4.255745e+00 4.178049e+00 3.870978e+00 1.971409e+00 1.786007e+00 -8.589709e-01 -1.503454e+00 -1.394185e+00 -1.363492e+00 -1.415248e+00 -1.491534e+00 -1.554200e+00 -1.582677e+00 -1.549869e+00 -1.500107e+00 -1.432020e+00 -1.382712e+00 -1.331360e+00 -1.299963e+00 -1.263535e+00 -1.208000e+00 -1.144072e+00 -1.077993e+00 -1.060460e+00 -1.060575e+00 -1.117113e+00 -1.131018e+00 -1.130716e+00 -1.038393e+00 -9.490269e-01 -8.249434e-01 -7.675107e-01 -7.376084e-01 -7.807877e-01 -8.223043e-01 -8.537517e-01 -8.495449e-01 -7.964382e-01 -7.330283e-01 -6.271939e-01 -5.593948e-01 -4.569334e-01 -4.437374e-01 -4.044079e-01 -4.611734e-01 -4.481979e-01 -5.013169e-01 -4.563088e-01 -4.561104e-01 -3.623945e-01 -3.176287e-01 -2.336763e-01 -2.016992e-01 -1.835272e-01 -1.456399e-01 -1.786998e-01 1.757812e-02 0 0 0 0 
0 0 0 0 0 0 0 0 0 0 0 0 0 2.134785e+00 -6.621014e-01 2.084120e+00 -1.674908e+00 1.705435e+00 -2.139275e+00 7.359168e-01 -2.134154e+00 0 0 0 0 0 0 0 0 0 0 0 0 0 0 0 0 0 0 0 0 0 0 0 0 0 0 0 0 0 0 0 0 0 0 0 1.171960e-01 1.496055e+00 1.975554e+00 1.882423e+00 2.024016e+00 1.456153e+00 1.699132e+00 1.590183e+00 1.742751e+00 1.602919e+00 1.529741e+00 1.381598e+00 1.043751e+00 8.285228e-01 4.873276e-01 5.452865e-01 1.636717e-01 0 0 0 0 0 0 0 0 0 0 0 0 0 0 0 0 0 0 0 0 0 0 0 0 0 0 0 0 0 0 0 0 0 0 0 0 0 0 0 0 0 0 0 0 0 0 0 0 0 0 0 0 0 0 0 
0 0 0 0 0 0 0 0 0 0 0 0 0 1.059085e+00 -6.251956e-01 1.333313e+00 -1.228741e+00 1.286754e+00 -1.344773e+00 7.257938e-01 -1.040328e+00 0 0 0 0 0 0 0 0 0 0 0 0 0 0 0 0 0 0 0 0 0 0 0 0 0 0 0 0 0 0 0 0 0 0 0 7.705724e-02 7.617317e-01 9.476679e-01 8.871828e-01 9.441940e-01 1.691012e-01 -3.015702e-01 -9.003566e-02 5.570860e-02 1.518361e-01 3.897767e-01 4.696251e-01 8.151682e-01 6.562837e-01 1.153640e-01 1.896259e-02 -1.867890e-02 0 0 0 0 0 0 0 0 0 0 0 0 0 0 0 0 0 0 0 0 0 0 0 0 0 0 0 0 0 0 0 0 0 0 0 0 0 0 0 0 0 0 0 0 0 0 0 0 0 0 0 0 0 0 0 
0 0 0 0 0 0 0 0 0 0 0 0 0 2.099837e-02 -4.365702e-04 1.700593e-02 -1.507568e-02 1.605071e-02 -3.353150e-02 1.629584e-02 -5.877147e-02 0 0 0 0 0 0 0 0 0 0 0 0 0 0 0 0 0 0 0 0 0 0 0 0 0 0 0 0 0 0 0 0 0 0 0 9.080118e-02 8.337848e-01 1.023666e+00 1.039072e+00 1.127968e+00 8.968117e-01 8.863829e-01 8.551577e-01 1.059964e+00 9.462344e-01 1.058284e+00 9.777080e-01 1.056342e+00 1.002047e+00 9.095717e-01 7.677914e-01 1.056278e-01 0 0 0 0 0 0 0 0 0 0 0 0 0 0 0 0 0 0 0 0 0 0 0 0 0 0 0 0 0 0 0 0 0 0 0 0 0 0 0 0 0 0 0 0 0 0 0 0 0 0 0 0 0 0 0 
0 0 0 0 0 0 0 0 0 0 0 0 0 -1.022135e+00 6.165319e-01 -1.304748e+00 1.211108e+00 -1.249075e+00 1.331278e+00 -6.719726e-01 1.034833e+00 0 0 0 0 0 0 0 0 0 0 0 0 0 0 0 0 0 0 0 0 0 0 0 0 0 0 0 0 0 0 0 0 0 0 0 1.656947e-01 1.497535e+00 1.851925e+00 2.173827e+00 2.440456e+00 1.908542e+00 1.895799e+00 1.892259e+00 2.354068e+00 2.190984e+00 2.583989e+00 2.409334e+00 2.603441e+00 2.291497e+00 1.624857e+00 1.330846e+00 1.745945e-01 0 0 0 0 0 0 0 0 0 0 0 0 0 0 0 0 0 0 0 0 0 0 0 0 0 0 0 0 0 0 0 0 0 0 0 0 0 0 0 0 0 0 0 0 0 0 0 0 0 0 0 0 0 0 0 
0 0 0 0 0 0 0 0 0 0 0 0 0 -2.091185e+00 6.590928e-01 -2.061829e+00 1.660024e+00 -1.678132e+00 2.101727e+00 -6.732190e-01 2.088408e+00 0 0 0 0 0 0 0 0 0 0 0 0 0 0 0 0 0 0 0 0 0 0 0 0 0 0 0 0 0 0 0 0 0 0 0 1.471331e-01 1.333339e+00 1.652001e+00 1.971600e+00 2.223353e+00 1.778087e+00 1.791844e+00 1.805306e+00 2.261897e+00 2.087338e+00 2.428156e+00 2.262903e+00 2.443231e+00 2.180277e+00 1.679357e+00 1.391278e+00 1.831543e-01 0 0 0 0 0 0 0 0 0 0 0 0 0 0 0 0 0 0 0 0 0 0 0 0 0 0 0 0 0 0 0 0 0 0 0 0 0 0 0 0 0 0 0 0 0 0 0 0 0 0 0 0 0 0 0 
0 0 0 0 0 -1.028769e-01 -1.831836e-01 -1.440922e-01 -2.503011e-01 -1.937249e-01 -3.056174e-01 -2.375269e-01 -3.536583e-01 -3.709274e+00 4.160667e+00 -4.594279e+00 6.776108e+00 -4.178582e+00 7.955664e+00 -1.792451e+00 6.188185e+00 3.259260e+00 3.229803e+00 3.270427e+00 3.218583e+00 3.199484e+00 3.097710e+00 3.030916e+00 2.941382e+00 2.910374e+00 2.886852e+00 2.899687e+00 2.906116e+00 2.904749e+00 2.888091e+00 2.859878e+00 2.847549e+00 2.825599e+00 2.808450e+00 2.759797e+00 2.713441e+00 2.641850e+00 2.596285e+00 2.552117e+00 2.536470e+00 2.520065e+00 2.519089e+00 2.491784e+00 2.445441e+00 2.387215e+00 2.343415e+00 2.315694e+00 2.303945e+00 2.299289e+00 2.282754e+00 2.251192e+00 2.235428e+00 2.393139e+00 2.402272e+00 2.453764e+00 2.464503e+00 2.178294e+00 2.030405e+00 2.034425e+00 2.090252e+00 2.133154e+00 2.269165e+00 2.226274e+00 2.221975e+00 2.124612e+00 1.963688e+00 1.889040e+00 1.675561e+00 1.621079e+00 1.595648e+00 1.589732e+00 1.571925e+00 1.570091e+00 1.538323e+00 1.503495e+00 1.445442e+00 1.395303e+00 1.331532e+00 1.293183e+00 1.276692e+00 1.267464e+00 1.252779e+00 1.222972e+00 1.200928e+00 1.160243e+00 1.147720e+00 1.109155e+00 1.092264e+00 1.038087e+00 1.015848e+00 9.549730e-01 9.365267e-01 8.938687e-01 8.901502e-01 8.541740e-01 8.330184e-01 7.821056e-01 7.464705e-01 7.194225e-01 6.914316e-01 6.672446e-01 6.112030e-01 5.930171e-01 5.440913e-01 5.589381e-01 5.181556e-01 5.430574e-01 4.832015e-01 4.746176e-01 3.639418e-01 3.224507e-01 2.263210e-01 2.282458e-01 2.161131e-01 2.495246e-01 2.446252e-01 1.862516e-01 1.895135e-01 -1.770751e-02 0 0 0 0 
0 0 0 0 0 -2.312967e+00 -4.133184e+00 -3.261682e+00 -5.632801e+00 -4.356117e+00 -6.872594e+00 -5.347948e+00 -7.961666e+00 -9.323820e+00 1.239803e+01 1.172688e+01 3.303305e+01 3.222905e+01 5.404308e+01 5.284039e+01 7.539787e+01 7.306238e+01 7.240331e+01 7.331280e+01 7.215298e+01 7.172571e+01 6.944797e+01 6.795292e+01 6.594854e+01 6.525435e+01 6.472763e+01 6.501486e+01 6.515876e+01 6.512815e+01 6.475519e+01 6.412364e+01 6.384764e+01 6.335629e+01 6.297238e+01 6.188313e+01 6.084517e+01 5.924213e+01 5.822176e+01 5.723263e+01 5.688220e+01 5.651478e+01 5.649291e+01 5.588134e+01 5.484337e+01 5.353913e+01 5.255802e+01 5.193704e+01 5.167384e+01 5.156956e+01 5.119915e+01 5.049205e+01 4.958147e+01 4.857217e+01 4.747873e+01 4.635095e+01 4.524021e+01 4.415572e+01 4.300837e+01 4.209328e+01 4.160862e+01 4.155001e+01 4.144039e+01 4.111089e+01 4.031915e+01 3.943136e+01 3.857832e+01 3.791859e+01 3.701025e+01 3.637124e+01 3.580113e+01 3.566850e+01 3.526927e+01 3.522810e+01 3.451582e+01 3.373495e+01 3.243321e+01 3.130898e+01 2.987884e+01 2.901894e+01 2.864909e+01 2.844216e+01 2.811283e+01 2.744449e+01 2.695014e+01 2.603780e+01 2.575700e+01 2.489209e+01 2.451322e+01 2.329796e+01 2.279903e+01 2.143321e+01 2.101921e+01 2.006187e+01 1.997814e+01 1.917063e+01 1.869577e+01 1.755307e+01 1.675353e+01 1.614656e+01 1.551867e+01 1.497606e+01 1.371897e+01 1.331119e+01 1.221364e+01 1.254715e+01 1.163203e+01 1.219079e+01 1.084702e+01 1.065361e+01 8.168017e+00 7.235330e+00 5.074615e+00 5.114367e+00 4.834754e+00 5.566847e+00 5.410625e+00 4.100360e+00 4.230633e+00 -3.977780e-01 0 0 0 0 
0 0 0 0 0 -3.349099e+00 -5.988436e+00 -4.728405e+00 -8.157454e+00 -6.307670e+00 -9.951649e+00 -7.745592e+00 -1.153087e+01 -6.752905e+00 1.283495e+01 2.522622e+01 3.986994e+01 5.492720e+01 6.920856e+01 8.189748e+01 1.023718e+02 1.057373e+02 1.047838e+02 1.060998e+02 1.044218e+02 1.038037e+02 1.005083e+02 9.834518e+01 9.544507e+01 9.444066e+01 9.367853e+01 9.409410e+01 9.430229e+01 9.425799e+01 9.371835e+01 9.280459e+01 9.240526e+01 9.169435e+01 9.113888e+01 8.956284e+01 8.806100e+01 8.574149e+01 8.426506e+01 8.283384e+01 8.232677e+01 8.179511e+01 8.176346e+01 8.087851e+01 7.937657e+01 7.748930e+01 7.606962e+01 7.517103e+01 7.479017e+01 7.463927e+01 7.410327e+01 7.308006e+01 7.176240e+01 7.030186e+01 6.871955e+01 6.708753e+01 6.548018e+01 6.391077e+01 6.225040e+01 6.092613e+01 6.022474e+01 6.013993e+01 5.998130e+01 5.950445e+01 5.835867e+01 5.707387e+01 5.583937e+01 5.488459e+01 5.357003e+01 5.264525e+01 5.182017e+01 5.162822e+01 5.105042e+01 5.099083e+01 4.995996e+01 4.882984e+01 4.694584e+01 4.531877e+01 4.324890e+01 4.200436e+01 4.146906e+01 4.116957e+01 4.069294e+01 3.972565e+01 3.901017e+01 3.768974e+01 3.728335e+01 3.603152e+01 3.548316e+01 3.372420e+01 3.300204e+01 3.102510e+01 3.042583e+01 2.904006e+01 2.891880e+01 2.774988e+01 2.706251e+01 2.540841e+01 2.425113e+01 2.337254e+01 2.246374e+01 2.167836e+01 1.985887e+01 1.926869e+01 1.768009e+01 1.816294e+01 1.683833e+01 1.764711e+01 1.570187e+01 1.542172e+01 1.182335e+01 1.047289e+01 7.344390e+00 7.401057e+00 6.994453e+00 8.049657e+00 7.811772e+00 5.915096e+00 6.118164e+00 -5.758835e-01 0 0 0 0 
0 0 0 0 0 -1.139008e+00 -2.038436e+00 -1.610814e+00 -2.774953e+00 -2.145277e+00 -3.384673e+00 -2.635171e+00 -3.922858e+00 -2.298593e+00 4.362131e+00 8.574719e+00 1.355257e+01 1.866981e+01 2.352330e+01 2.783459e+01 3.479063e+01 3.593420e+01 3.561032e+01 3.605738e+01 3.548744e+01 3.527748e+01 3.415800e+01 3.342317e+01 3.243792e+01 3.209669e+01 3.183775e+01 3.197892e+01 3.204965e+01 3.203459e+01 3.185126e+01 3.154083e+01 3.140517e+01 3.116366e+01 3.097495e+01 3.043951e+01 2.992927e+01 2.914122e+01 2.863959e+01 2.815332e+01 2.798104e+01 2.780039e+01 2.778964e+01 2.748896e+01 2.697864e+01 2.633739e+01 2.585501e+01 2.554968e+01 2.542028e+01 2.536900e+01 2.518688e+01 2.483920e+01 2.439147e+01 2.389518e+01 2.335752e+01 2.280294e+01 2.225676e+01 2.172345e+01 2.115923e+01 2.070921e+01 2.047086e+01 2.044204e+01 2.038814e+01 2.022609e+01 1.983672e+01 1.940011e+01 1.898058e+01 1.865611e+01 1.820937e+01 1.789508e+01 1.761468e+01 1.754945e+01 1.735308e+01 1.733282e+01 1.698247e+01 1.659839e+01 1.595808e+01 1.540509e+01 1.470159e+01 1.427861e+01 1.409667e+01 1.399488e+01 1.383288e+01 1.350413e+01 1.326096e+01 1.281218e+01 1.267406e+01 1.224859e+01 1.206220e+01 1.146433e+01 1.121886e+01 1.054686e+01 1.034314e+01 9.872066e+00 9.830812e+00 9.433433e+00 9.199759e+00 8.637448e+00 8.244068e+00 7.945403e+00 7.636501e+00 7.369543e+00 6.751103e+00 6.550519e+00 6.010546e+00 6.174726e+00 5.724452e+00 5.999380e+00 5.338055e+00 5.242724e+00 4.019276e+00 3.560011e+00 2.496096e+00 2.514935e+00 2.375812e+00 2.732335e+00 2.645771e+00 2.000988e+00 2.077045e+00 -1.958130e-01 0 0 0 0 
0 0 0 0 0 0 0 0 0 0 0 0 0 0 0 0 0 0 0 0 0 0 0 0 0 0 0 0 0 0 0 0 0 0 0 0 0 0 0 0 0 0 0 0 0 0 0 0 0 0 0 0 0 0 0 0 0 0 0 0 0 0 0 0 0 0 0 0 0 0 0 0 0 0 0 0 0 0 0 0 0 0 0 0 0 0 0 0 0 0 0 0 0 0 0 0 0 0 0 0 0 0 0 0 0 0 0 0 0 0 0 0 0 0 0 0 0 0 0 0 0 0 0 0 0 0 0 0 
