# vtk DataFile Version 2.0
Comment goes here
ASCII

DATASET STRUCTURED_POINTS
FIELD FieldData 1
TIME 1 1 double
0.19000000
DIMENSIONS    128   16   1

ORIGIN    0.000   0.000   0.000
SPACING   0.0078125 0.015625   1.000

POINT_DATA   2048
SCALARS fY double
LOOKUP_TABLE default

0 0 0 0 0 0 0 0 0 0 0 0 0 0 0 0 0 0 0 0 0 0 0 0 0 0 0 0 0 0 0 0 0 0 0 0 0 0 0 0 0 0 0 0 0 0 0 0 0 0 0 0 0 0 0 0 0 0 0 0 0 0 0 0 0 0 0 0 0 0 0 0 0 0 0 0 0 0 0 0 0 0 0 0 0 0 0 0 0 0 0 0 0 0 0 0 0 0 0 0 0 0 0 0 0 0 0 0 0 0 0 0 0 0 0 0 0 0 0 0 0 0 0 0 0 0 0 0 
0 0 0 0 0 0 0 0 0 0 0 0 0 0 0 0 0 0 0 0 0 0 0 0 0 0 0 0 0 0 0 0 0 0 0 0 0 0 0 0 0 0 0 0 0 0 0 0 0 0 0 0 0 0 0 0 0 0 0 0 0 0 0 0 0 0 0 0 0 0 0 0 0 0 0 0 0 0 0 0 0 0 0 0 0 0 0 0 0 0 0 0 0 0 0 0 0 0 0 0 0 0 0 0 0 0 0 0 0 0 0 0 0 0 0 0 0 0 0 0 0 0 0 0 0 0 0 0 
0 0 0 0 0 -5.597917e-01 -1.559127e+00 -1.276145e+00 -2.156832e+00 -1.738845e+00 -2.509742e+00 -1.844753e+00 -2.580604e+00 -1.449313e+00 3.207016e+00 5.837060e+00 9.950110e+00 1.367044e+01 1.738888e+01 2.142841e+01 2.624562e+01 2.726669e+01 2.634403e+01 2.544919e+01 2.359043e+01 2.240639e+01 2.165558e+01 2.218545e+01 2.335972e+01 2.478303e+01 2.600011e+01 2.644053e+01 2.618654e+01 2.489547e+01 2.347422e+01 2.169310e+01 2.069785e+01 2.025856e+01 2.074474e+01 2.089238e+01 2.121010e+01 2.125744e+01 2.118572e+01 2.084824e+01 2.068402e+01 2.042833e+01 1.999734e+01 1.968646e+01 1.929620e+01 1.921410e+01 1.924724e+01 1.960204e+01 1.942781e+01 1.901924e+01 1.813476e+01 1.728964e+01 1.650473e+01 1.652259e+01 1.647177e+01 1.596165e+01 1.597096e+01 1.709191e+01 1.734897e+01 1.712868e+01 1.723056e+01 1.684096e+01 1.640464e+01 1.505755e+01 1.305159e+01 1.338154e+01 1.531648e+01 1.480743e+01 1.375985e+01 1.353002e+01 1.340705e+01 1.288834e+01 1.239976e+01 1.183239e+01 1.176196e+01 1.185750e+01 1.178523e+01 1.149852e+01 1.078158e+01 1.018420e+01 9.708288e+00 9.990890e+00 1.015851e+01 1.038865e+01 1.006255e+01 9.658840e+00 8.785431e+00 8.024648e+00 7.532512e+00 7.271883e+00 7.400106e+00 7.551469e+00 8.086093e+00 8.000259e+00 8.163622e+00 7.700443e+00 7.375205e+00 5.996660e+00 5.195109e+00 4.531326e+00 4.737806e+00 4.870836e+00 5.420045e+00 5.462312e+00 4.814359e+00 4.080571e+00 3.193818e+00 3.000527e+00 2.746397e+00 3.666546e+00 3.865949e+00 4.468546e+00 3.645815e+00 3.169998e+00 1.454441e+00 6.786158e-01 -5.462198e-02 3.193477e-01 8.170176e-01 -5.736700e-01 0 0 0 0 
0 0 0 0 0 -1.646723e+00 -4.587017e+00 -3.755018e+00 -6.345122e+00 -5.116067e+00 -7.384591e+00 -5.429674e+00 -7.595053e+00 -4.267852e+00 9.429601e+00 1.716519e+01 2.926139e+01 4.020089e+01 5.113417e+01 6.300966e+01 7.717076e+01 8.017251e+01 7.746047e+01 7.483005e+01 6.936605e+01 6.588540e+01 6.367814e+01 6.523571e+01 6.868773e+01 7.287157e+01 7.644928e+01 7.774390e+01 7.699731e+01 7.320235e+01 6.902443e+01 6.378860e+01 6.086283e+01 5.957137e+01 6.100066e+01 6.143466e+01 6.236866e+01 6.250782e+01 6.229697e+01 6.130479e+01 6.082202e+01 6.007029e+01 5.880329e+01 5.788934e+01 5.674208e+01 5.650073e+01 5.659816e+01 5.764128e+01 5.712907e+01 5.592791e+01 5.332756e+01 5.084292e+01 4.861319e+01 4.891990e+01 4.907086e+01 4.929292e+01 4.934789e+01 4.978417e+01 4.976927e+01 5.008493e+01 5.077579e+01 5.067476e+01 5.035858e+01 4.779585e+01 4.481696e+01 4.239889e+01 4.167013e+01 4.080571e+01 4.023113e+01 3.978890e+01 3.942733e+01 3.790214e+01 3.646554e+01 3.479720e+01 3.459011e+01 3.487104e+01 3.465853e+01 3.381548e+01 3.170736e+01 2.995073e+01 2.855130e+01 2.938231e+01 2.987520e+01 3.055192e+01 2.959297e+01 2.840580e+01 2.583736e+01 2.360019e+01 2.215294e+01 2.138652e+01 2.176363e+01 2.220877e+01 2.378098e+01 2.352859e+01 2.400896e+01 2.264682e+01 2.169027e+01 1.763600e+01 1.527870e+01 1.332634e+01 1.393338e+01 1.432448e+01 1.593944e+01 1.606372e+01 1.415833e+01 1.200029e+01 9.392621e+00 8.824331e+00 8.077114e+00 1.078356e+01 1.137008e+01 1.314219e+01 1.072219e+01 9.321561e+00 4.272527e+00 1.980671e+00 -2.110128e-01 8.802280e-01 2.382272e+00 -1.687771e+00 0 0 0 0 
0 0 0 0 0 -1.137621e+00 -3.169172e+00 -2.594608e+00 -4.383668e+00 -3.534843e+00 -5.102415e+00 -3.752494e+00 -5.248785e+00 -6.663007e+00 9.504423e+00 8.954644e+00 2.450839e+01 2.369172e+01 3.982886e+01 3.840155e+01 5.532105e+01 5.536833e+01 5.349577e+01 5.167951e+01 4.790661e+01 4.550322e+01 4.397902e+01 4.505451e+01 4.743819e+01 5.032706e+01 5.279746e+01 5.369136e+01 5.317587e+01 5.055558e+01 4.767073e+01 4.405537e+01 4.203507e+01 4.114327e+01 4.213024e+01 4.242992e+01 4.307486e+01 4.317094e+01 4.302534e+01 4.234019e+01 4.200681e+01 4.148771e+01 4.061281e+01 3.998170e+01 3.918948e+01 3.902283e+01 3.909011e+01 3.981045e+01 3.945676e+01 3.862729e+01 3.683160e+01 3.511579e+01 3.339441e+01 3.253861e+01 3.258930e+01 3.322054e+01 3.305690e+01 3.226889e+01 3.188767e+01 3.202535e+01 3.189524e+01 3.231449e+01 3.148173e+01 3.094325e+01 3.008476e+01 2.718469e+01 2.426390e+01 2.459265e+01 2.744391e+01 2.748194e+01 2.723223e+01 2.617890e+01 2.518675e+01 2.403452e+01 2.389150e+01 2.408552e+01 2.393876e+01 2.335651e+01 2.190056e+01 2.068735e+01 1.972082e+01 2.029477e+01 2.063519e+01 2.110255e+01 2.044023e+01 1.962029e+01 1.784632e+01 1.630118e+01 1.530159e+01 1.477224e+01 1.503273e+01 1.534018e+01 1.642610e+01 1.625178e+01 1.658355e+01 1.564272e+01 1.498199e+01 1.218161e+01 1.055338e+01 9.204744e+00 9.623945e+00 9.894016e+00 1.100938e+01 1.109522e+01 9.779227e+00 8.288620e+00 6.487560e+00 6.095113e+00 5.579075e+00 7.448633e+00 7.853803e+00 9.077783e+00 7.406053e+00 6.437989e+00 2.948741e+00 1.360769e+00 -1.701633e-01 5.794199e-01 1.635533e+00 -1.166086e+00 0 0 0 0 
0 0 0 0 0 -5.068954e-02 -1.412816e-01 -1.157347e-01 -1.953784e-01 -1.576214e-01 -2.275667e-01 -1.675730e-01 -2.343360e-01 -3.023698e+00 3.220915e+00 -2.101102e+00 4.935307e+00 -3.029809e+00 5.681255e+00 -2.795050e+00 4.680162e+00 2.462509e+00 2.379333e+00 2.298641e+00 2.131001e+00 2.024211e+00 1.956464e+00 2.004247e+00 2.110176e+00 2.238518e+00 2.348282e+00 2.387994e+00 2.365095e+00 2.248702e+00 2.120523e+00 1.959876e+00 1.870094e+00 1.830456e+00 1.874322e+00 1.887639e+00 1.916298e+00 1.920566e+00 1.914093e+00 1.883637e+00 1.868819e+00 1.845745e+00 1.806863e+00 1.778811e+00 1.743602e+00 1.736197e+00 1.739189e+00 1.771213e+00 1.755494e+00 1.718622e+00 1.638796e+00 1.562516e+00 1.122931e+00 -9.194194e-01 -1.203218e+00 -1.291199e+00 -1.585653e+00 -2.151586e+00 -2.572906e+00 -2.682280e+00 -3.581966e+00 -2.797206e+00 -3.589092e+00 -2.534055e+00 -2.013260e+00 -2.375256e+00 -2.947543e+00 -2.104501e+00 8.951188e-01 1.223055e+00 1.211950e+00 1.165100e+00 1.120969e+00 1.069713e+00 1.063350e+00 1.071982e+00 1.065454e+00 1.039553e+00 9.747877e-01 9.208140e-01 8.778134e-01 9.033491e-01 9.184935e-01 9.392826e-01 9.098117e-01 8.733294e-01 7.943895e-01 7.256402e-01 6.811568e-01 6.576037e-01 6.691998e-01 6.828837e-01 7.312115e-01 7.234566e-01 7.382165e-01 6.963431e-01 6.669251e-01 5.422651e-01 4.697887e-01 4.097305e-01 4.283662e-01 4.403708e-01 4.899901e-01 4.938093e-01 4.352545e-01 3.689010e-01 2.887569e-01 2.713085e-01 2.483582e-01 3.316201e-01 3.496671e-01 4.041386e-01 3.296758e-01 2.864264e-01 1.306553e-01 5.871406e-02 -1.377249e-02 1.853968e-02 7.027837e-02 -5.198531e-02 0 0 0 0 
0 0 0 0 0 0 0 0 0 0 0 0 0 -1.592659e+00 4.672675e-01 -1.491443e+00 1.194971e+00 -1.362988e+00 1.446608e+00 -8.600152e-01 1.157323e+00 0 0 0 0 0 0 0 0 0 0 0 0 0 0 0 0 0 0 0 0 0 0 0 0 0 0 0 0 0 0 0 0 0 0 0 -1.207691e-01 -8.509463e-01 -9.588783e-01 -8.108663e-01 -8.020433e-01 -8.508513e-01 -1.050719e+00 -9.091112e-01 -1.024689e+00 -7.598020e-01 -6.892553e-01 -4.853891e-01 -1.615959e-01 -2.600670e-01 -5.069411e-01 -4.491944e-01 -6.133562e-02 0 0 0 0 0 0 0 0 0 0 0 0 0 0 0 0 0 0 0 0 0 0 0 0 0 0 0 0 0 0 0 0 0 0 0 0 0 0 0 0 0 0 0 0 0 0 0 0 0 0 0 0 0 0 0 
0 0 0 0 0 0 0 0 0 0 0 0 0 -8.001366e-01 4.324672e-01 -8.902068e-01 8.532561e-01 -9.570300e-01 9.259534e-01 -6.535198e-01 6.336014e-01 0 0 0 0 0 0 0 0 0 0 0 0 0 0 0 0 0 0 0 0 0 0 0 0 0 0 0 0 0 0 0 0 0 0 0 -1.690480e-01 -7.445767e-01 -7.557593e-01 -6.589128e-01 -6.084078e-01 -3.928442e-01 -3.717630e-01 -5.020136e-01 -5.584406e-01 -7.606010e-01 -9.608603e-01 -8.640902e-01 -1.013831e+00 -7.526261e-01 -6.698462e-01 -4.458774e-01 -1.358649e-02 0 0 0 0 0 0 0 0 0 0 0 0 0 0 0 0 0 0 0 0 0 0 0 0 0 0 0 0 0 0 0 0 0 0 0 0 0 0 0 0 0 0 0 0 0 0 0 0 0 0 0 0 0 0 0 
0 0 0 0 0 0 0 0 0 0 0 0 0 -2.143679e-02 -2.748999e-02 -4.416887e-02 -6.533712e-02 -7.910737e-02 -1.073851e-01 -1.125643e-01 -1.263903e-01 0 0 0 0 0 0 0 0 0 0 0 0 0 0 0 0 0 0 0 0 0 0 0 0 0 0 0 0 0 0 0 0 0 0 0 -1.589390e-01 -7.174355e-01 -7.133026e-01 -5.745820e-01 -5.711621e-01 -6.062777e-01 -6.286795e-01 -6.251670e-01 -6.862196e-01 -6.463174e-01 -7.368927e-01 -5.582274e-01 -5.617730e-01 -5.907503e-01 -7.484018e-01 -5.075541e-01 -2.094108e-02 0 0 0 0 0 0 0 0 0 0 0 0 0 0 0 0 0 0 0 0 0 0 0 0 0 0 0 0 0 0 0 0 0 0 0 0 0 0 0 0 0 0 0 0 0 0 0 0 0 0 0 0 0 0 0 
0 0 0 0 0 0 0 0 0 0 0 0 0 7.712259e-01 -4.576930e-01 8.582457e-01 -9.367543e-01 8.694717e-01 -1.086471e+00 5.057582e-01 -8.376867e-01 0 0 0 0 0 0 0 0 0 0 0 0 0 0 0 0 0 0 0 0 0 0 0 0 0 0 0 0 0 0 0 0 0 0 0 -2.991297e-01 -1.345920e+00 -1.402585e+00 -1.478114e+00 -1.497734e+00 -1.429592e+00 -1.473480e+00 -1.559639e+00 -1.720815e+00 -1.708777e+00 -1.993466e+00 -1.669397e+00 -1.809976e+00 -1.498145e+00 -1.399773e+00 -9.450476e-01 -3.767346e-02 0 0 0 0 0 0 0 0 0 0 0 0 0 0 0 0 0 0 0 0 0 0 0 0 0 0 0 0 0 0 0 0 0 0 0 0 0 0 0 0 0 0 0 0 0 0 0 0 0 0 0 0 0 0 0 
0 0 0 0 0 0 0 0 0 0 0 0 0 1.567169e+00 -4.786216e-01 1.451771e+00 -1.308845e+00 1.198835e+00 -1.759050e+00 4.695086e-01 -1.736082e+00 0 0 0 0 0 0 0 0 0 0 0 0 0 0 0 0 0 0 0 0 0 0 0 0 0 0 0 0 0 0 0 0 0 0 0 -5.537468e-01 -2.493809e+00 -2.635054e+00 -2.970984e+00 -3.071921e+00 -3.276122e+00 -3.464397e+00 -3.548667e+00 -3.882040e+00 -3.595640e+00 -4.036170e+00 -3.295865e+00 -3.473538e+00 -2.888740e+00 -2.724305e+00 -1.847053e+00 -7.570963e-02 0 0 0 0 0 0 0 0 0 0 0 0 0 0 0 0 0 0 0 0 0 0 0 0 0 0 0 0 0 0 0 0 0 0 0 0 0 0 0 0 0 0 0 0 0 0 0 0 0 0 0 0 0 0 0 
0 0 0 0 0 5.123741e-02 1.406262e-01 1.024447e-01 1.715921e-01 1.410335e-01 2.235638e-01 1.804033e-01 2.635941e-01 3.247618e+00 -3.048575e+00 2.293749e+00 -4.927059e+00 2.976740e+00 -5.949913e+00 2.602095e+00 -5.222509e+00 -2.293971e+00 -2.240717e+00 -2.253740e+00 -2.234113e+00 -2.280217e+00 -2.304195e+00 -2.311375e+00 -2.288691e+00 -2.276260e+00 -2.259500e+00 -2.209914e+00 -2.168768e+00 -2.108696e+00 -2.060420e+00 -2.014841e+00 -2.024209e+00 -2.000418e+00 -1.968017e+00 -1.926213e+00 -1.900313e+00 -1.852094e+00 -1.835675e+00 -1.848847e+00 -1.878586e+00 -1.929453e+00 -1.983855e+00 -1.991006e+00 -1.915050e+00 -1.808474e+00 -1.680329e+00 -1.564955e+00 -1.493737e+00 -1.508980e+00 -1.565784e+00 -1.636995e+00 -1.900290e+00 -2.623330e+00 -2.634052e+00 -2.645927e+00 -2.593195e+00 -2.593011e+00 -2.570399e+00 -2.514726e+00 -2.607308e+00 -2.491921e+00 -2.673557e+00 -2.417063e+00 -2.446043e+00 -2.366357e+00 -2.463853e+00 -2.078536e+00 -1.301425e+00 -1.147249e+00 -1.031481e+00 -9.451865e-01 -9.084420e-01 -9.622597e-01 -1.058858e+00 -1.184532e+00 -1.266110e+00 -1.316199e+00 -1.252200e+00 -1.133433e+00 -9.507765e-01 -7.980217e-01 -6.815332e-01 -6.825120e-01 -7.556476e-01 -8.536874e-01 -9.287937e-01 -9.613703e-01 -9.570447e-01 -8.694976e-01 -7.923930e-01 -7.004686e-01 -6.623870e-01 -5.799646e-01 -5.550319e-01 -4.909191e-01 -5.038261e-01 -5.242702e-01 -6.143537e-01 -6.372012e-01 -6.640161e-01 -6.415567e-01 -5.815153e-01 -4.690617e-01 -3.547071e-01 -2.891039e-01 -2.298848e-01 -2.592692e-01 -2.711983e-01 -3.344245e-01 -2.951871e-01 -3.156711e-01 -2.528745e-01 -2.628043e-01 -1.920993e-01 -2.030110e-01 -1.554501e-01 -1.328703e-01 -1.071493e-01 4.989877e-02 0 0 0 0 
0 0 0 0 0 1.149909e+00 3.154360e+00 2.296108e+00 3.849666e+00 3.162468e+00 5.012553e+00 4.040668e+00 5.905472e+00 7.505648e+00 -8.717005e+00 -8.190679e+00 -2.385274e+01 -2.308950e+01 -3.919050e+01 -3.753771e+01 -5.416290e+01 -5.157428e+01 -5.037553e+01 -5.066867e+01 -5.022699e+01 -5.126490e+01 -5.180466e+01 -5.196636e+01 -5.145586e+01 -5.117604e+01 -5.079880e+01 -4.968255e+01 -4.875646e+01 -4.740435e+01 -4.631789e+01 -4.529210e+01 -4.550285e+01 -4.496745e+01 -4.423836e+01 -4.329773e+01 -4.271498e+01 -4.163014e+01 -4.126071e+01 -4.155706e+01 -4.222621e+01 -4.337071e+01 -4.459488e+01 -4.475578e+01 -4.304660e+01 -4.064879e+01 -3.776592e+01 -3.517071e+01 -3.356886e+01 -3.391166e+01 -3.518931e+01 -3.679108e+01 -3.816418e+01 -3.848608e+01 -3.772672e+01 -3.611612e+01 -3.415578e+01 -3.169507e+01 -2.948473e+01 -2.797124e+01 -2.753872e+01 -2.780533e+01 -2.881763e+01 -3.033798e+01 -3.158643e+01 -3.191445e+01 -3.172200e+01 -3.066329e+01 -2.858721e+01 -2.577778e+01 -2.317504e+01 -2.123528e+01 -2.040931e+01 -2.161894e+01 -2.379049e+01 -2.661582e+01 -2.845001e+01 -2.957639e+01 -2.813746e+01 -2.546724e+01 -2.136154e+01 -1.792801e+01 -1.531050e+01 -1.533260e+01 -1.697601e+01 -1.917967e+01 -2.086756e+01 -2.159977e+01 -2.150245e+01 -1.953430e+01 -1.780133e+01 -1.573530e+01 -1.487951e+01 -1.302753e+01 -1.246744e+01 -1.102735e+01 -1.131766e+01 -1.177743e+01 -1.380238e+01 -1.431618e+01 -1.491928e+01 -1.441496e+01 -1.306579e+01 -1.053988e+01 -7.970117e+00 -6.496298e+00 -5.165388e+00 -5.824616e+00 -6.092096e+00 -7.511743e+00 -6.630023e+00 -7.090396e+00 -5.680983e+00 -5.907328e+00 -4.328744e+00 -4.602374e+00 -3.630721e+00 -3.147936e+00 -2.464569e+00 1.119332e+00 0 0 0 0 
0 0 0 0 0 1.664509e+00 4.565551e+00 3.322876e+00 5.572103e+00 4.577025e+00 7.254507e+00 5.846867e+00 8.545631e+00 5.167806e+00 -8.776202e+00 -1.664973e+01 -2.871583e+01 -3.967725e+01 -5.001226e+01 -6.044480e+01 -7.294104e+01 -7.467763e+01 -7.294150e+01 -7.336606e+01 -7.272643e+01 -7.422962e+01 -7.501134e+01 -7.524555e+01 -7.450623e+01 -7.410098e+01 -7.355464e+01 -7.193798e+01 -7.059678e+01 -6.863859e+01 -6.706517e+01 -6.557959e+01 -6.588478e+01 -6.510941e+01 -6.405356e+01 -6.269136e+01 -6.184744e+01 -6.027645e+01 -5.974145e+01 -6.017061e+01 -6.113965e+01 -6.279705e+01 -6.456988e+01 -6.480289e+01 -6.232769e+01 -5.885531e+01 -5.468055e+01 -5.092247e+01 -4.860287e+01 -4.909926e+01 -5.094937e+01 -5.326888e+01 -5.525727e+01 -5.572340e+01 -5.462377e+01 -5.229148e+01 -4.945276e+01 -4.588955e+01 -4.268892e+01 -4.049740e+01 -3.987112e+01 -4.025716e+01 -4.172298e+01 -4.392444e+01 -4.573223e+01 -4.620722e+01 -4.592855e+01 -4.439553e+01 -4.138934e+01 -3.732138e+01 -3.355272e+01 -3.074411e+01 -2.954816e+01 -3.129959e+01 -3.444386e+01 -3.853480e+01 -4.119066e+01 -4.282168e+01 -4.073814e+01 -3.687175e+01 -3.092708e+01 -2.595565e+01 -2.216596e+01 -2.219799e+01 -2.457736e+01 -2.776805e+01 -3.021188e+01 -3.127204e+01 -3.113110e+01 -2.828134e+01 -2.577220e+01 -2.278083e+01 -2.154177e+01 -1.886044e+01 -1.804957e+01 -1.596472e+01 -1.638511e+01 -1.705086e+01 -1.998283e+01 -2.072683e+01 -2.160015e+01 -2.087008e+01 -1.891670e+01 -1.525988e+01 -1.153926e+01 -9.405510e+00 -7.478527e+00 -8.432706e+00 -8.819826e+00 -1.087496e+01 -9.598368e+00 -1.026493e+01 -8.224766e+00 -8.553290e+00 -6.270361e+00 -6.673746e+00 -5.291596e+00 -4.598857e+00 -3.582707e+00 1.620112e+00 0 0 0 0 
0 0 0 0 0 5.658370e-01 1.551817e+00 1.129213e+00 1.894029e+00 1.555590e+00 2.465518e+00 1.986603e+00 2.903752e+00 1.755243e+00 -2.984871e+00 -5.661803e+00 -9.764598e+00 -1.349237e+01 -1.700729e+01 -2.055592e+01 -2.480667e+01 -2.539732e+01 -2.480669e+01 -2.495113e+01 -2.473354e+01 -2.524493e+01 -2.551088e+01 -2.559056e+01 -2.533906e+01 -2.520120e+01 -2.501534e+01 -2.446535e+01 -2.400909e+01 -2.334294e+01 -2.280769e+01 -2.230233e+01 -2.240614e+01 -2.214238e+01 -2.178321e+01 -2.131984e+01 -2.103278e+01 -2.049840e+01 -2.031642e+01 -2.046239e+01 -2.079202e+01 -2.135580e+01 -2.195886e+01 -2.203812e+01 -2.119614e+01 -2.001500e+01 -1.859497e+01 -1.731671e+01 -1.652774e+01 -1.669658e+01 -1.732585e+01 -1.811479e+01 -1.879112e+01 -1.894967e+01 -1.857564e+01 -1.778235e+01 -1.681682e+01 -1.560490e+01 -1.451632e+01 -1.377098e+01 -1.355798e+01 -1.368927e+01 -1.418780e+01 -1.493654e+01 -1.555139e+01 -1.571294e+01 -1.561816e+01 -1.509677e+01 -1.407434e+01 -1.269085e+01 -1.140916e+01 -1.045402e+01 -1.004730e+01 -1.064291e+01 -1.171222e+01 -1.310350e+01 -1.400676e+01 -1.456148e+01 -1.385288e+01 -1.253795e+01 -1.051631e+01 -8.825664e+00 -7.536994e+00 -7.547902e+00 -8.357001e+00 -9.442066e+00 -1.027311e+01 -1.063364e+01 -1.058570e+01 -9.616531e+00 -8.763256e+00 -7.745998e+00 -7.324646e+00 -6.412879e+00 -6.137166e+00 -5.428284e+00 -5.571273e+00 -5.797707e+00 -6.794805e+00 -7.047850e+00 -7.344887e+00 -7.096674e+00 -6.432430e+00 -5.189058e+00 -3.923855e+00 -3.198316e+00 -2.543023e+00 -2.867360e+00 -2.998928e+00 -3.697637e+00 -3.263532e+00 -3.490206e+00 -2.796658e+00 -2.908767e+00 -2.133716e+00 -2.274383e+00 -1.816326e+00 -1.583791e+00 -1.225288e+00 5.506788e-01 0 0 0 0 
0 0 0 0 0 0 0 0 0 0 0 0 0 0 0 0 0 0 0 0 0 0 0 0 0 0 0 0 0 0 0 0 0 0 0 0 0 0 0 0 0 0 0 0 0 0 0 0 0 0 0 0 0 0 0 0 0 0 0 0 0 0 0 0 0 0 0 0 0 0 0 0 0 0 0 0 0 0 0 0 0 0 0 0 0 0 0 0 0 0 0 0 0 0 0 0 0 0 0 0 0 0 0 0 0 0 0 0 0 0 0 0 0 0 0 0 0 0 0 0 0 0 0 0 0 0 0 0 
