# vtk DataFile Version 2.0
Comment goes here
ASCII

DATASET STRUCTURED_POINTS
FIELD FieldData 1
TIME 1 1 double
0.90000000
DIMENSIONS    128   16   1

ORIGIN    0.000   0.000   0.000
SPACING   0.0078125 0.015625   1.000

POINT_DATA   2048
SCALARS fY double
LOOKUP_TABLE default

0 0 0 0 0 0 0 0 0 0 0 0 0 0 0 0 0 0 0 0 0 0 0 0 0 0 0 0 0 0 0 0 0 0 0 0 0 0 0 0 0 0 0 0 0 0 0 0 0 0 0 0 0 0 0 0 0 0 0 0 0 0 0 0 0 0 0 0 0 0 0 0 0 0 0 0 0 0 0 0 0 0 0 0 0 0 0 0 0 0 0 0 0 0 0 0 0 0 0 0 0 0 0 0 0 0 0 0 0 0 0 0 0 0 0 0 0 0 0 0 0 0 0 0 0 0 0 0 
0 0 0 0 0 0 0 0 0 0 0 0 0 0 0 0 0 0 0 0 0 0 0 0 0 0 0 0 0 0 0 0 0 0 0 0 0 0 0 0 0 0 0 0 0 0 0 0 0 0 0 0 0 0 0 0 0 0 0 0 0 0 0 0 0 0 0 0 0 0 0 0 0 0 0 0 0 0 0 0 0 0 0 0 0 0 0 0 0 0 0 0 0 0 0 0 0 0 0 0 0 0 0 0 0 0 0 0 0 0 0 0 0 0 0 0 0 0 0 0 0 0 0 0 0 0 0 0 
0 0 0 0 0 -1.168384e+00 -1.992085e+00 -1.568643e+00 -2.712296e+00 -2.110247e+00 -3.347878e+00 -2.608003e+00 -3.871767e+00 -2.241775e+00 4.418458e+00 8.723830e+00 1.373475e+01 1.904731e+01 2.385884e+01 2.841852e+01 3.532147e+01 3.622922e+01 3.554411e+01 3.567304e+01 3.505818e+01 3.504332e+01 3.450785e+01 3.436964e+01 3.392958e+01 3.369044e+01 3.333611e+01 3.300399e+01 3.272058e+01 3.232306e+01 3.209385e+01 3.165174e+01 3.145213e+01 3.099637e+01 3.080629e+01 3.035197e+01 3.013455e+01 2.969639e+01 2.944577e+01 2.905701e+01 2.877640e+01 2.845721e+01 2.815110e+01 2.790501e+01 2.755357e+01 2.734467e+01 2.692806e+01 2.675537e+01 2.631074e+01 2.620867e+01 2.579118e+01 2.580643e+01 2.555816e+01 2.677443e+01 2.689855e+01 2.751580e+01 2.737101e+01 2.494337e+01 2.428567e+01 2.498082e+01 2.565340e+01 2.580573e+01 2.650401e+01 2.574811e+01 2.528094e+01 2.433590e+01 2.275053e+01 2.222058e+01 1.977325e+01 1.841309e+01 1.811457e+01 1.760759e+01 1.736681e+01 1.685378e+01 1.662522e+01 1.611669e+01 1.589186e+01 1.541035e+01 1.519364e+01 1.475930e+01 1.455376e+01 1.414859e+01 1.391464e+01 1.349267e+01 1.321611e+01 1.277613e+01 1.247955e+01 1.203634e+01 1.175375e+01 1.133723e+01 1.109020e+01 1.069498e+01 1.045415e+01 1.006347e+01 9.804137e+00 9.417875e+00 9.107371e+00 8.732825e+00 8.359150e+00 8.036224e+00 7.600395e+00 7.362851e+00 6.869109e+00 6.747047e+00 6.192370e+00 6.160291e+00 5.511905e+00 5.525147e+00 4.797943e+00 4.828994e+00 4.072174e+00 4.090462e+00 3.391844e+00 3.357560e+00 2.795510e+00 2.591855e+00 2.255966e+00 1.688620e+00 1.966954e+00 -2.267053e-01 0 0 0 0 
0 0 0 0 0 -3.437602e+00 -5.867026e+00 -4.624156e+00 -7.982293e+00 -6.208794e+00 -9.850218e+00 -7.675493e+00 -1.139460e+01 -6.600970e+00 1.299133e+01 2.565345e+01 4.038902e+01 5.600811e+01 7.015401e+01 8.355620e+01 1.038450e+02 1.065136e+02 1.045003e+02 1.048792e+02 1.030724e+02 1.030287e+02 1.014551e+02 1.010489e+02 9.975556e+01 9.905276e+01 9.801137e+01 9.703530e+01 9.620237e+01 9.503408e+01 9.436045e+01 9.306109e+01 9.247444e+01 9.113492e+01 9.057626e+01 8.924094e+01 8.860190e+01 8.731402e+01 8.657740e+01 8.543471e+01 8.460991e+01 8.367170e+01 8.277199e+01 8.204866e+01 8.101568e+01 8.040167e+01 7.917715e+01 7.866954e+01 7.736261e+01 7.706257e+01 7.583538e+01 7.588015e+01 7.500866e+01 7.733097e+01 7.716617e+01 7.747131e+01 7.659447e+01 7.428974e+01 7.396760e+01 7.369654e+01 7.392487e+01 7.305361e+01 7.275734e+01 7.089481e+01 6.912075e+01 6.650592e+01 6.335045e+01 6.181841e+01 5.712800e+01 5.414504e+01 5.326759e+01 5.177721e+01 5.106940e+01 4.956117e+01 4.888926e+01 4.739421e+01 4.673320e+01 4.531754e+01 4.468039e+01 4.340334e+01 4.279901e+01 4.160770e+01 4.091980e+01 3.967907e+01 3.886587e+01 3.757213e+01 3.670008e+01 3.539681e+01 3.456584e+01 3.334104e+01 3.261462e+01 3.145240e+01 3.074420e+01 2.959532e+01 2.883271e+01 2.769681e+01 2.678374e+01 2.568229e+01 2.458349e+01 2.363386e+01 2.235231e+01 2.165380e+01 2.020194e+01 1.984305e+01 1.821194e+01 1.811763e+01 1.621080e+01 1.624964e+01 1.411078e+01 1.420179e+01 1.197553e+01 1.202874e+01 9.973180e+00 9.871005e+00 8.215147e+00 7.609343e+00 6.603059e+00 4.934300e+00 5.775438e+00 -6.668708e-01 0 0 0 0 
0 0 0 0 0 -2.375121e+00 -4.056548e+00 -3.199261e+00 -5.516230e+00 -4.289832e+00 -6.805820e+00 -5.304279e+00 -7.874328e+00 -9.322266e+00 1.261229e+01 1.195040e+01 3.342136e+01 3.261813e+01 5.450276e+01 5.310749e+01 7.549097e+01 7.355425e+01 7.216441e+01 7.242604e+01 7.117869e+01 7.114859e+01 7.006218e+01 6.978176e+01 6.888885e+01 6.840364e+01 6.768466e+01 6.701080e+01 6.643575e+01 6.562918e+01 6.516411e+01 6.426704e+01 6.386202e+01 6.293720e+01 6.255149e+01 6.162955e+01 6.118833e+01 6.029913e+01 5.979053e+01 5.900156e+01 5.843208e+01 5.778430e+01 5.716310e+01 5.666368e+01 5.595047e+01 5.552653e+01 5.468106e+01 5.433059e+01 5.342820e+01 5.322103e+01 5.237367e+01 5.240457e+01 5.153862e+01 4.908420e+01 4.696287e+01 4.572487e+01 4.366505e+01 4.612780e+01 4.510850e+01 4.333714e+01 4.043844e+01 3.906756e+01 3.583901e+01 3.488069e+01 3.332343e+01 3.168915e+01 3.329253e+01 3.212168e+01 3.603570e+01 3.739572e+01 3.678988e+01 3.576076e+01 3.527200e+01 3.423052e+01 3.376654e+01 3.273413e+01 3.227766e+01 3.130003e+01 3.086003e+01 2.997811e+01 2.956076e+01 2.873802e+01 2.826295e+01 2.740608e+01 2.684446e+01 2.595096e+01 2.534869e+01 2.444859e+01 2.387468e+01 2.302876e+01 2.252704e+01 2.172433e+01 2.123520e+01 2.044168e+01 1.991497e+01 1.913042e+01 1.849979e+01 1.773904e+01 1.698014e+01 1.632426e+01 1.543916e+01 1.495673e+01 1.395400e+01 1.370616e+01 1.257960e+01 1.251447e+01 1.119740e+01 1.122418e+01 9.746729e+00 9.809453e+00 8.271485e+00 8.307962e+00 6.887679e+00 6.816452e+00 5.671312e+00 5.249544e+00 4.545541e+00 3.392787e+00 3.984718e+00 -4.606900e-01 0 0 0 0 
0 0 0 0 0 -1.059034e-01 -1.816068e-01 -1.437475e-01 -2.462333e-01 -1.912846e-01 -3.034795e-01 -2.367891e-01 -3.514926e-01 -3.700584e+00 4.309033e+00 -4.649514e+00 6.908027e+00 -4.411057e+00 8.037307e+00 -2.325226e+00 5.868569e+00 3.269906e+00 3.208236e+00 3.219855e+00 3.164503e+00 3.163172e+00 3.114951e+00 3.102504e+00 3.062864e+00 3.041325e+00 3.009404e+00 2.979492e+00 2.953962e+00 2.918158e+00 2.897512e+00 2.857687e+00 2.839706e+00 2.798644e+00 2.781517e+00 2.740577e+00 2.720983e+00 2.681493e+00 2.658905e+00 2.623863e+00 2.598572e+00 2.569800e+00 2.542213e+00 2.520032e+00 2.488358e+00 2.469530e+00 2.431980e+00 2.416414e+00 2.376331e+00 2.367128e+00 2.329483e+00 2.330851e+00 2.064519e+00 -3.244044e+00 -6.276264e+00 -6.983213e+00 -8.907149e+00 -6.140245e+00 -8.140837e+00 -8.646936e+00 -1.097635e+01 -1.103012e+01 -1.220772e+01 -1.181456e+01 -1.050182e+01 -1.011342e+01 -6.637432e+00 -6.790678e+00 -1.215289e+00 1.663773e+00 1.636863e+00 1.591132e+00 1.569414e+00 1.523124e+00 1.502502e+00 1.456607e+00 1.436315e+00 1.392849e+00 1.373285e+00 1.334068e+00 1.315509e+00 1.278920e+00 1.257791e+00 1.219678e+00 1.194698e+00 1.154953e+00 1.128162e+00 1.088119e+00 1.062588e+00 1.024951e+00 1.002629e+00 9.669105e-01 9.451462e-01 9.098343e-01 8.863980e-01 8.514833e-01 8.234251e-01 7.895701e-01 7.558073e-01 7.266223e-01 6.872465e-01 6.657847e-01 6.211747e-01 6.101538e-01 5.600263e-01 5.571312e-01 4.985079e-01 4.996873e-01 4.338968e-01 4.366521e-01 3.681300e-01 3.696835e-01 3.063431e-01 3.030067e-01 2.516755e-01 2.320564e-01 1.984481e-01 1.471074e-01 1.762341e-01 -2.052453e-02 0 0 0 0 
0 0 0 0 0 0 0 0 0 0 0 0 0 -2.207478e+00 6.438239e-01 -2.161327e+00 1.640589e+00 -1.816226e+00 2.053757e+00 -8.318939e-01 1.979090e+00 0 0 0 0 0 0 0 0 0 0 0 0 0 0 0 0 0 0 0 0 0 0 0 0 0 0 0 0 0 0 0 0 0 0 0 -1.759094e-02 -1.729722e+00 -2.932347e+00 -2.167262e+00 -2.642479e+00 -1.975742e+00 -2.104720e+00 -2.202793e+00 -1.926279e+00 -2.023903e+00 -1.236523e+00 -1.170946e+00 -2.050284e-01 3.245411e-01 6.769284e-01 8.783194e-01 3.205312e-01 0 0 0 0 0 0 0 0 0 0 0 0 0 0 0 0 0 0 0 0 0 0 0 0 0 0 0 0 0 0 0 0 0 0 0 0 0 0 0 0 0 0 0 0 0 0 0 0 0 0 0 0 0 0 0 
0 0 0 0 0 0 0 0 0 0 0 0 0 -1.087721e+00 6.338032e-01 -1.365324e+00 1.228022e+00 -1.338626e+00 1.323347e+00 -7.699410e-01 9.523648e-01 0 0 0 0 0 0 0 0 0 0 0 0 0 0 0 0 0 0 0 0 0 0 0 0 0 0 0 0 0 0 0 0 0 0 0 -2.709238e-01 -8.318019e-01 -7.975639e-01 -2.311542e-01 -8.552069e-03 2.171460e-01 7.390227e-01 4.398391e-01 5.521733e-01 5.105612e-01 2.203131e-01 3.721568e-01 -1.239258e-01 9.747451e-03 1.855651e-01 1.687768e-01 1.591626e-01 0 0 0 0 0 0 0 0 0 0 0 0 0 0 0 0 0 0 0 0 0 0 0 0 0 0 0 0 0 0 0 0 0 0 0 0 0 0 0 0 0 0 0 0 0 0 0 0 0 0 0 0 0 0 0 
0 0 0 0 0 0 0 0 0 0 0 0 0 6.790657e-04 -1.571526e-03 -5.225600e-03 -1.969731e-03 -8.472473e-03 -5.320437e-03 -4.789036e-03 -1.327361e-02 0 0 0 0 0 0 0 0 0 0 0 0 0 0 0 0 0 0 0 0 0 0 0 0 0 0 0 0 0 0 0 0 0 0 0 -2.268867e-01 -8.481046e-01 -7.946569e-01 -7.250570e-01 -5.911865e-01 -2.992735e-01 -2.954340e-01 -1.681721e-01 -2.248331e-01 -1.861043e-02 -4.896594e-02 4.911348e-02 1.436176e-01 1.116532e-01 2.860229e-01 9.273959e-02 -5.338872e-02 0 0 0 0 0 0 0 0 0 0 0 0 0 0 0 0 0 0 0 0 0 0 0 0 0 0 0 0 0 0 0 0 0 0 0 0 0 0 0 0 0 0 0 0 0 0 0 0 0 0 0 0 0 0 0 
0 0 0 0 0 0 0 0 0 0 0 0 0 1.088991e+00 -6.320498e-01 1.339206e+00 -1.215467e+00 1.286741e+00 -1.313997e+00 7.236730e-01 -9.826086e-01 0 0 0 0 0 0 0 0 0 0 0 0 0 0 0 0 0 0 0 0 0 0 0 0 0 0 0 0 0 0 0 0 0 0 0 -2.735924e-01 -7.251964e-01 -6.827589e-01 -7.586822e-01 -7.255670e-01 -5.596042e-01 -5.745157e-01 -7.595996e-01 -7.768974e-01 -9.771571e-01 -1.000988e+00 -1.201589e+00 -1.240680e+00 -9.537160e-01 -8.609809e-01 -1.962113e-01 4.224914e-03 0 0 0 0 0 0 0 0 0 0 0 0 0 0 0 0 0 0 0 0 0 0 0 0 0 0 0 0 0 0 0 0 0 0 0 0 0 0 0 0 0 0 0 0 0 0 0 0 0 0 0 0 0 0 0 
0 0 0 0 0 0 0 0 0 0 0 0 0 2.207180e+00 -6.464003e-01 2.139502e+00 -1.632719e+00 1.771559e+00 -2.046183e+00 7.904161e-01 -2.007646e+00 0 0 0 0 0 0 0 0 0 0 0 0 0 0 0 0 0 0 0 0 0 0 0 0 0 0 0 0 0 0 0 0 0 0 0 -5.930606e-01 -1.375038e+00 -1.360798e+00 -1.667683e+00 -1.569810e+00 -1.598179e+00 -1.597267e+00 -1.871952e+00 -1.875578e+00 -1.989416e+00 -2.014373e+00 -1.933181e+00 -1.970243e+00 -1.568351e+00 -1.501807e+00 -4.791365e-01 1.503191e-06 0 0 0 0 0 0 0 0 0 0 0 0 0 0 0 0 0 0 0 0 0 0 0 0 0 0 0 0 0 0 0 0 0 0 0 0 0 0 0 0 0 0 0 0 0 0 0 0 0 0 0 0 0 0 0 
0 0 0 0 0 1.056113e-01 1.818402e-01 1.434068e-01 2.462574e-01 1.908941e-01 3.036697e-01 2.368903e-01 3.518601e-01 3.703313e+00 -4.330632e+00 4.616931e+00 -6.841712e+00 4.240354e+00 -7.885936e+00 2.078992e+00 -5.909746e+00 -3.270494e+00 -3.205843e+00 -3.221832e+00 -3.162226e+00 -3.166927e+00 -3.113671e+00 -3.107731e+00 -3.060471e+00 -3.044774e+00 -3.004933e+00 -2.982230e+00 -2.949857e+00 -2.920979e+00 -2.894226e+00 -2.860222e+00 -2.837022e+00 -2.798916e+00 -2.777738e+00 -2.738385e+00 -2.719072e+00 -2.680065e+00 -2.659925e+00 -2.620630e+00 -2.597420e+00 -2.557860e+00 -2.530701e+00 -2.492113e+00 -2.463489e+00 -2.429324e+00 -2.401389e+00 -2.370349e+00 -2.340054e+00 -2.307267e+00 -2.270995e+00 -2.232811e+00 -2.459355e+00 -2.772154e+00 -2.743754e+00 -2.889452e+00 -2.758232e+00 -2.617196e+00 -2.570591e+00 -2.600800e+00 -2.569364e+00 -2.592381e+00 -2.563789e+00 -2.482421e+00 -2.451248e+00 -2.299823e+00 -2.247416e+00 -1.861647e+00 -1.667605e+00 -1.647081e+00 -1.613723e+00 -1.588787e+00 -1.550996e+00 -1.525162e+00 -1.488181e+00 -1.464225e+00 -1.430131e+00 -1.406882e+00 -1.374528e+00 -1.347798e+00 -1.315030e+00 -1.283086e+00 -1.252517e+00 -1.217421e+00 -1.191525e+00 -1.153596e+00 -1.132930e+00 -1.092350e+00 -1.075706e+00 -1.031216e+00 -1.016018e+00 -9.687238e-01 -9.541970e-01 -9.064434e-01 -8.903411e-01 -8.446896e-01 -8.256395e-01 -7.856576e-01 -7.611466e-01 -7.284796e-01 -6.958698e-01 -6.722837e-01 -6.296536e-01 -6.151422e-01 -5.619749e-01 -5.574095e-01 -4.963092e-01 -4.998920e-01 -4.320596e-01 -4.390578e-01 -3.687584e-01 -3.749503e-01 -3.081454e-01 -3.069058e-01 -2.510539e-01 -2.336146e-01 -1.972380e-01 -1.478822e-01 -1.757262e-01 2.150406e-02 0 0 0 0 
0 0 0 0 0 2.368581e+00 4.061980e+00 3.191900e+00 5.516874e+00 4.281005e+00 6.809947e+00 5.306350e+00 7.882334e+00 9.324572e+00 -1.262790e+01 -1.193759e+01 -3.340887e+01 -3.263908e+01 -5.444785e+01 -5.316065e+01 -7.546220e+01 -7.356825e+01 -7.211118e+01 -7.247113e+01 -7.112771e+01 -7.123334e+01 -7.003337e+01 -6.989953e+01 -6.883497e+01 -6.848144e+01 -6.758413e+01 -6.707276e+01 -6.634367e+01 -6.569316e+01 -6.509061e+01 -6.432460e+01 -6.380205e+01 -6.294366e+01 -6.246664e+01 -6.158027e+01 -6.114530e+01 -6.026681e+01 -5.981328e+01 -5.892841e+01 -5.840579e+01 -5.751507e+01 -5.690359e+01 -5.603484e+01 -5.539041e+01 -5.462128e+01 -5.399241e+01 -5.329367e+01 -5.261167e+01 -5.187368e+01 -5.105716e+01 -5.019773e+01 -4.923265e+01 -4.828881e+01 -4.738397e+01 -4.657542e+01 -4.580479e+01 -4.514126e+01 -4.441973e+01 -4.374284e+01 -4.294913e+01 -4.218725e+01 -4.131299e+01 -4.057934e+01 -3.977506e+01 -3.920205e+01 -3.852373e+01 -3.810757e+01 -3.747959e+01 -3.701793e+01 -3.626759e+01 -3.570669e+01 -3.485674e+01 -3.427570e+01 -3.344403e+01 -3.290527e+01 -3.213859e+01 -3.161576e+01 -3.088827e+01 -3.028717e+01 -2.955038e+01 -2.883204e+01 -2.814472e+01 -2.735550e+01 -2.677326e+01 -2.592038e+01 -2.545573e+01 -2.454333e+01 -2.416915e+01 -2.316902e+01 -2.282742e+01 -2.176443e+01 -2.143804e+01 -2.036495e+01 -2.000323e+01 -1.897754e+01 -1.854958e+01 -1.765133e+01 -1.710054e+01 -1.636657e+01 -1.563360e+01 -1.510349e+01 -1.414518e+01 -1.381884e+01 -1.262378e+01 -1.252095e+01 -1.114799e+01 -1.122856e+01 -9.705016e+00 -9.862921e+00 -8.284894e+00 -8.425555e+00 -6.927456e+00 -6.903432e+00 -5.656998e+00 -5.284809e+00 -4.520544e+00 -3.413053e+00 -3.974376e+00 4.826667e-01 0 0 0 0 
0 0 0 0 0 3.428138e+00 5.874938e+00 4.613573e+00 7.983252e+00 6.196001e+00 9.856156e+00 7.678440e+00 1.140613e+01 6.599528e+00 -1.297143e+01 -2.558541e+01 -4.046224e+01 -5.578858e+01 -7.029510e+01 -8.326771e+01 -1.037541e+02 -1.065340e+02 -1.044234e+02 -1.049447e+02 -1.029986e+02 -1.031515e+02 -1.014134e+02 -1.012195e+02 -9.967753e+01 -9.916547e+01 -9.786580e+01 -9.712511e+01 -9.606909e+01 -9.512687e+01 -9.425412e+01 -9.314458e+01 -9.238770e+01 -9.114437e+01 -9.045344e+01 -8.916959e+01 -8.853957e+01 -8.726718e+01 -8.661028e+01 -8.532867e+01 -8.457174e+01 -8.328168e+01 -8.239606e+01 -8.113783e+01 -8.020449e+01 -7.909057e+01 -7.817977e+01 -7.716781e+01 -7.618007e+01 -7.511126e+01 -7.392873e+01 -7.268405e+01 -7.128637e+01 -6.991948e+01 -6.860906e+01 -6.743811e+01 -6.632208e+01 -6.536115e+01 -6.431623e+01 -6.333598e+01 -6.218655e+01 -6.108322e+01 -5.981715e+01 -5.875472e+01 -5.759001e+01 -5.676022e+01 -5.577793e+01 -5.517528e+01 -5.426590e+01 -5.359737e+01 -5.251082e+01 -5.169859e+01 -5.046781e+01 -4.962643e+01 -4.842214e+01 -4.764199e+01 -4.653183e+01 -4.577476e+01 -4.472135e+01 -4.385094e+01 -4.278408e+01 -4.174392e+01 -4.074868e+01 -3.960589e+01 -3.876280e+01 -3.752784e+01 -3.685503e+01 -3.553391e+01 -3.499210e+01 -3.354398e+01 -3.304938e+01 -3.151030e+01 -3.103775e+01 -2.948408e+01 -2.896041e+01 -2.747541e+01 -2.685583e+01 -2.555536e+01 -2.475791e+01 -2.369527e+01 -2.263399e+01 -2.186646e+01 -2.047890e+01 -2.000634e+01 -1.827601e+01 -1.812707e+01 -1.613925e+01 -1.625593e+01 -1.405027e+01 -1.427906e+01 -1.199476e+01 -1.219880e+01 -1.003059e+01 -9.996776e+00 -8.194334e+00 -7.660464e+00 -6.567424e+00 -4.964366e+00 -5.760737e+00 6.986806e-01 0 0 0 0 
0 0 0 0 0 1.165169e+00 1.994798e+00 1.565080e+00 2.712635e+00 2.105890e+00 3.349879e+00 2.608980e+00 3.875655e+00 2.241253e+00 -4.411705e+00 -8.700698e+00 -1.375962e+01 -1.897257e+01 -2.390678e+01 -2.832028e+01 -3.529061e+01 -3.623628e+01 -3.551802e+01 -3.569537e+01 -3.503312e+01 -3.508512e+01 -3.449366e+01 -3.442769e+01 -3.390303e+01 -3.372880e+01 -3.328660e+01 -3.303458e+01 -3.267528e+01 -3.235468e+01 -3.205773e+01 -3.168020e+01 -3.142267e+01 -3.099962e+01 -3.076453e+01 -3.032771e+01 -3.011335e+01 -2.968043e+01 -2.945693e+01 -2.902089e+01 -2.876337e+01 -2.832447e+01 -2.802316e+01 -2.759510e+01 -2.727757e+01 -2.689861e+01 -2.658875e+01 -2.624448e+01 -2.590846e+01 -2.554485e+01 -2.514256e+01 -2.471913e+01 -2.424365e+01 -2.377866e+01 -2.333288e+01 -2.293455e+01 -2.255490e+01 -2.222803e+01 -2.187257e+01 -2.153913e+01 -2.114813e+01 -2.077282e+01 -2.034216e+01 -1.998077e+01 -1.958459e+01 -1.930234e+01 -1.896822e+01 -1.876323e+01 -1.845391e+01 -1.822652e+01 -1.785695e+01 -1.758069e+01 -1.716206e+01 -1.687589e+01 -1.646629e+01 -1.620095e+01 -1.582337e+01 -1.556588e+01 -1.520761e+01 -1.491157e+01 -1.454873e+01 -1.419496e+01 -1.385648e+01 -1.346781e+01 -1.318107e+01 -1.276105e+01 -1.253223e+01 -1.208292e+01 -1.189866e+01 -1.140618e+01 -1.123798e+01 -1.071459e+01 -1.055390e+01 -1.002558e+01 -9.847516e+00 -9.342562e+00 -9.131888e+00 -8.689689e+00 -8.418516e+00 -8.057176e+00 -7.696264e+00 -7.435253e+00 -6.963368e+00 -6.802645e+00 -6.214206e+00 -6.163531e+00 -5.487577e+00 -5.527259e+00 -4.777316e+00 -4.855194e+00 -4.078628e+00 -4.148198e+00 -3.411276e+00 -3.400250e+00 -2.788390e+00 -2.609269e+00 -2.244118e+00 -1.699196e+00 -1.962087e+00 2.375180e-01 0 0 0 0 
0 0 0 0 0 0 0 0 0 0 0 0 0 0 0 0 0 0 0 0 0 0 0 0 0 0 0 0 0 0 0 0 0 0 0 0 0 0 0 0 0 0 0 0 0 0 0 0 0 0 0 0 0 0 0 0 0 0 0 0 0 0 0 0 0 0 0 0 0 0 0 0 0 0 0 0 0 0 0 0 0 0 0 0 0 0 0 0 0 0 0 0 0 0 0 0 0 0 0 0 0 0 0 0 0 0 0 0 0 0 0 0 0 0 0 0 0 0 0 0 0 0 0 0 0 0 0 0 
