# vtk DataFile Version 2.0
Comment goes here
ASCII

DATASET STRUCTURED_POINTS
FIELD FieldData 1
TIME 1 1 double
0.66000000
DIMENSIONS    128   16   1

ORIGIN    0.000   0.000   0.000
SPACING   0.0078125 0.015625   1.000

POINT_DATA   2048
SCALARS fY double
LOOKUP_TABLE default

0 0 0 0 0 0 0 0 0 0 0 0 0 0 0 0 0 0 0 0 0 0 0 0 0 0 0 0 0 0 0 0 0 0 0 0 0 0 0 0 0 0 0 0 0 0 0 0 0 0 0 0 0 0 0 0 0 0 0 0 0 0 0 0 0 0 0 0 0 0 0 0 0 0 0 0 0 0 0 0 0 0 0 0 0 0 0 0 0 0 0 0 0 0 0 0 0 0 0 0 0 0 0 0 0 0 0 0 0 0 0 0 0 0 0 0 0 0 0 0 0 0 0 0 0 0 0 0 
0 0 0 0 0 0 0 0 0 0 0 0 0 0 0 0 0 0 0 0 0 0 0 0 0 0 0 0 0 0 0 0 0 0 0 0 0 0 0 0 0 0 0 0 0 0 0 0 0 0 0 0 0 0 0 0 0 0 0 0 0 0 0 0 0 0 0 0 0 0 0 0 0 0 0 0 0 0 0 0 0 0 0 0 0 0 0 0 0 0 0 0 0 0 0 0 0 0 0 0 0 0 0 0 0 0 0 0 0 0 0 0 0 0 0 0 0 0 0 0 0 0 0 0 0 0 0 0 
0 0 0 0 0 1.335338e+00 1.751342e+00 1.396352e+00 2.456589e+00 1.831846e+00 3.041789e+00 2.290849e+00 3.512898e+00 2.049785e+00 -3.992745e+00 -8.235515e+00 -1.233701e+01 -1.705298e+01 -2.145048e+01 -2.497021e+01 -3.179994e+01 -3.251033e+01 -3.188809e+01 -3.202692e+01 -3.138822e+01 -3.144608e+01 -3.086911e+01 -3.086686e+01 -3.034708e+01 -3.025918e+01 -2.983961e+01 -2.970565e+01 -2.938128e+01 -2.913612e+01 -2.883196e+01 -2.847231e+01 -2.820192e+01 -2.779163e+01 -2.758215e+01 -2.721150e+01 -2.708922e+01 -2.678143e+01 -2.664781e+01 -2.633533e+01 -2.610575e+01 -2.577973e+01 -2.543625e+01 -2.514173e+01 -2.478303e+01 -2.465417e+01 -2.436292e+01 -2.434366e+01 -2.401401e+01 -2.399810e+01 -2.365083e+01 -2.368698e+01 -2.357964e+01 -2.526088e+01 -2.564534e+01 -2.660530e+01 -2.662229e+01 -2.349095e+01 -2.300528e+01 -2.449886e+01 -2.599778e+01 -2.650189e+01 -2.793427e+01 -2.712326e+01 -2.722148e+01 -2.535666e+01 -2.150634e+01 -2.103370e+01 -1.790415e+01 -1.651959e+01 -1.637740e+01 -1.594384e+01 -1.574133e+01 -1.509816e+01 -1.483685e+01 -1.414859e+01 -1.396765e+01 -1.344007e+01 -1.345165e+01 -1.310482e+01 -1.315288e+01 -1.276059e+01 -1.263504e+01 -1.208762e+01 -1.180001e+01 -1.122001e+01 -1.098029e+01 -1.057633e+01 -1.047483e+01 -1.017298e+01 -1.001711e+01 -9.666318e+00 -9.381216e+00 -9.017091e+00 -8.645124e+00 -8.367312e+00 -7.997370e+00 -7.894684e+00 -7.495629e+00 -7.451193e+00 -6.878676e+00 -6.817013e+00 -6.109511e+00 -6.103349e+00 -5.393821e+00 -5.509596e+00 -4.878138e+00 -5.028958e+00 -4.401068e+00 -4.424508e+00 -3.815460e+00 -3.697446e+00 -3.206927e+00 -2.925821e+00 -2.637931e+00 -2.191390e+00 -2.204224e+00 -1.447991e+00 -2.053997e+00 -1.984705e-01 0 0 0 0 
0 0 0 0 0 3.926123e+00 5.139275e+00 4.090306e+00 7.217833e+00 5.385931e+00 8.944547e+00 6.734932e+00 1.032767e+01 6.023766e+00 -1.174700e+01 -2.422750e+01 -3.629327e+01 -5.016967e+01 -6.310861e+01 -7.346734e+01 -9.356877e+01 -9.565911e+01 -9.382744e+01 -9.423596e+01 -9.235573e+01 -9.252585e+01 -9.082743e+01 -9.082071e+01 -8.929077e+01 -8.903203e+01 -8.779709e+01 -8.740284e+01 -8.644813e+01 -8.572654e+01 -8.483134e+01 -8.377278e+01 -8.297694e+01 -8.176936e+01 -8.115280e+01 -8.006189e+01 -7.970200e+01 -7.879612e+01 -7.840288e+01 -7.748321e+01 -7.680755e+01 -7.584805e+01 -7.483716e+01 -7.397039e+01 -7.291471e+01 -7.253550e+01 -7.167836e+01 -7.162169e+01 -7.065158e+01 -7.060482e+01 -6.958289e+01 -6.968938e+01 -6.907636e+01 -7.201342e+01 -7.242350e+01 -7.290538e+01 -7.235586e+01 -6.996504e+01 -7.066185e+01 -7.103530e+01 -7.210595e+01 -7.137066e+01 -7.102497e+01 -6.882360e+01 -6.626026e+01 -6.247134e+01 -5.756027e+01 -5.653253e+01 -5.115062e+01 -4.859973e+01 -4.818105e+01 -4.690508e+01 -4.630904e+01 -4.441634e+01 -4.364735e+01 -4.162207e+01 -4.108959e+01 -3.953719e+01 -3.957118e+01 -3.855071e+01 -3.869208e+01 -3.753791e+01 -3.716856e+01 -3.555803e+01 -3.471191e+01 -3.300563e+01 -3.230042e+01 -3.111206e+01 -3.081353e+01 -2.992559e+01 -2.946709e+01 -2.843517e+01 -2.759643e+01 -2.652526e+01 -2.543092e+01 -2.461362e+01 -2.352520e+01 -2.322302e+01 -2.204894e+01 -2.191811e+01 -2.023377e+01 -2.005231e+01 -1.797103e+01 -1.795297e+01 -1.586596e+01 -1.620677e+01 -1.434965e+01 -1.479373e+01 -1.294729e+01 -1.301674e+01 -1.122580e+01 -1.087906e+01 -9.436683e+00 -8.610058e+00 -7.763647e+00 -6.450670e+00 -6.489029e+00 -4.262642e+00 -6.042328e+00 -5.838082e-01 0 0 0 0 
0 0 0 0 0 2.711350e+00 3.544309e+00 2.817359e+00 4.982174e+00 3.719477e+00 6.177600e+00 4.650820e+00 7.131789e+00 7.983310e+00 -1.119925e+01 -1.077383e+01 -2.982057e+01 -2.946376e+01 -4.858500e+01 -4.811202e+01 -6.732446e+01 -6.609690e+01 -6.483091e+01 -6.511320e+01 -6.381358e+01 -6.393108e+01 -6.275717e+01 -6.275248e+01 -6.169508e+01 -6.151625e+01 -6.066278e+01 -6.039031e+01 -5.973052e+01 -5.923183e+01 -5.861315e+01 -5.788157e+01 -5.733157e+01 -5.649700e+01 -5.607090e+01 -5.531698e+01 -5.506826e+01 -5.444222e+01 -5.417046e+01 -5.353491e+01 -5.306797e+01 -5.240490e+01 -5.170630e+01 -5.110732e+01 -5.037777e+01 -5.011572e+01 -4.952339e+01 -4.948424e+01 -4.881387e+01 -4.878157e+01 -4.807541e+01 -4.814903e+01 -4.729618e+01 -4.403975e+01 -4.187100e+01 -4.027350e+01 -3.827529e+01 -4.153773e+01 -4.030399e+01 -3.778306e+01 -3.389185e+01 -3.225880e+01 -2.770316e+01 -2.670983e+01 -2.373881e+01 -2.276775e+01 -2.661325e+01 -2.580873e+01 -3.121403e+01 -3.357679e+01 -3.328737e+01 -3.240559e+01 -3.199367e+01 -3.068578e+01 -3.015437e+01 -2.875492e+01 -2.838695e+01 -2.731430e+01 -2.733774e+01 -2.663265e+01 -2.673031e+01 -2.593288e+01 -2.567771e+01 -2.456500e+01 -2.398043e+01 -2.280161e+01 -2.231441e+01 -2.149343e+01 -2.128721e+01 -2.067379e+01 -2.035704e+01 -1.964415e+01 -1.906468e+01 -1.832466e+01 -1.756858e+01 -1.700393e+01 -1.625192e+01 -1.604311e+01 -1.523192e+01 -1.514148e+01 -1.397778e+01 -1.385240e+01 -1.241454e+01 -1.240209e+01 -1.096040e+01 -1.119596e+01 -9.913194e+00 -1.022018e+01 -8.944888e+00 -8.993098e+00 -7.756174e+00 -7.516843e+00 -6.520664e+00 -5.949744e+00 -5.365236e+00 -4.458470e+00 -4.485263e+00 -2.946317e+00 -4.174346e+00 -4.033046e-01 0 0 0 0 
0 0 0 0 0 1.205648e-01 1.563760e-01 1.234055e-01 2.209297e-01 1.653916e-01 2.748409e-01 2.067377e-01 3.170213e-01 2.857990e+00 -3.772703e+00 5.217963e+00 -6.139068e+00 3.882574e+00 -7.022091e+00 6.914361e-01 -4.811363e+00 -2.948118e+00 -2.891557e+00 -2.904151e+00 -2.846072e+00 -2.851298e+00 -2.798847e+00 -2.798626e+00 -2.751396e+00 -2.743408e+00 -2.705295e+00 -2.693128e+00 -2.663668e+00 -2.641398e+00 -2.613773e+00 -2.581103e+00 -2.556544e+00 -2.519276e+00 -2.500249e+00 -2.466586e+00 -2.455480e+00 -2.427530e+00 -2.415397e+00 -2.387024e+00 -2.366178e+00 -2.336578e+00 -2.305391e+00 -2.278653e+00 -2.246087e+00 -2.234390e+00 -2.207952e+00 -2.206206e+00 -2.176289e+00 -2.174853e+00 -2.143344e+00 -2.146639e+00 -1.767864e+00 4.863974e+00 8.606464e+00 9.283841e+00 1.120473e+01 8.296281e+00 1.120175e+01 1.222279e+01 1.544589e+01 1.543736e+01 1.694617e+01 1.616447e+01 1.437481e+01 1.281076e+01 7.573947e+00 7.703743e+00 1.426242e+00 -1.496655e+00 -1.483712e+00 -1.444349e+00 -1.425956e+00 -1.367593e+00 -1.343875e+00 -1.281441e+00 -1.265017e+00 -1.217171e+00 -1.218207e+00 -1.186762e+00 -1.191114e+00 -1.155560e+00 -1.144187e+00 -1.094585e+00 -1.068529e+00 -1.015988e+00 -9.942761e-01 -9.576918e-01 -9.485084e-01 -9.211772e-01 -9.070647e-01 -8.752996e-01 -8.494715e-01 -8.164940e-01 -7.827883e-01 -7.576205e-01 -7.240918e-01 -7.147746e-01 -6.786056e-01 -6.745618e-01 -6.226882e-01 -6.170934e-01 -5.530210e-01 -5.524739e-01 -4.882586e-01 -4.987846e-01 -4.416795e-01 -4.554096e-01 -3.986605e-01 -4.008688e-01 -3.458378e-01 -3.352262e-01 -2.909084e-01 -2.655063e-01 -2.395196e-01 -1.991898e-01 -2.004581e-01 -1.316655e-01 -1.860160e-01 -1.796695e-02 0 0 0 0 
0 0 0 0 0 0 0 0 0 0 0 0 0 1.931729e+00 -5.779028e-01 1.941600e+00 -1.418076e+00 1.541926e+00 -1.759096e+00 5.843111e-01 -1.916673e+00 0 0 0 0 0 0 0 0 0 0 0 0 0 0 0 0 0 0 0 0 0 0 0 0 0 0 0 0 0 0 0 0 0 0 0 5.818236e-02 2.415417e+00 4.060790e+00 3.067238e+00 3.249630e+00 2.808983e+00 2.719190e+00 2.536466e+00 2.406676e+00 2.128754e+00 1.221223e+00 9.577326e-01 -4.205560e-01 -1.034196e+00 -1.736425e+00 -2.112468e+00 -7.907843e-01 0 0 0 0 0 0 0 0 0 0 0 0 0 0 0 0 0 0 0 0 0 0 0 0 0 0 0 0 0 0 0 0 0 0 0 0 0 0 0 0 0 0 0 0 0 0 0 0 0 0 0 0 0 0 0 
0 0 0 0 0 0 0 0 0 0 0 0 0 9.342356e-01 -5.755704e-01 1.284764e+00 -1.086583e+00 1.170694e+00 -1.155089e+00 5.718584e-01 -9.315932e-01 0 0 0 0 0 0 0 0 0 0 0 0 0 0 0 0 0 0 0 0 0 0 0 0 0 0 0 0 0 0 0 0 0 0 0 1.622861e-01 1.309334e+00 1.581475e+00 7.843657e-01 4.150129e-01 3.710723e-01 -9.831627e-03 -1.099659e-01 2.664249e-02 -1.585274e-01 -5.981568e-02 -1.168099e-01 2.308619e-01 2.818542e-01 1.592344e-02 -1.301704e-01 -1.314023e-01 0 0 0 0 0 0 0 0 0 0 0 0 0 0 0 0 0 0 0 0 0 0 0 0 0 0 0 0 0 0 0 0 0 0 0 0 0 0 0 0 0 0 0 0 0 0 0 0 0 0 0 0 0 0 0 
0 0 0 0 0 0 0 0 0 0 0 0 0 -5.288568e-04 -8.618093e-04 2.868107e-03 2.472493e-03 7.132714e-03 1.028703e-02 1.134833e-02 2.256074e-02 0 0 0 0 0 0 0 0 0 0 0 0 0 0 0 0 0 0 0 0 0 0 0 0 0 0 0 0 0 0 0 0 0 0 0 1.296616e-01 1.075777e+00 1.253712e+00 8.761259e-01 7.883312e-01 4.906640e-01 5.386040e-01 3.612717e-01 3.703781e-01 2.716091e-01 1.016983e-01 1.000770e-01 -2.967724e-02 -8.163610e-02 -2.045166e-01 -1.169860e-01 2.871136e-02 0 0 0 0 0 0 0 0 0 0 0 0 0 0 0 0 0 0 0 0 0 0 0 0 0 0 0 0 0 0 0 0 0 0 0 0 0 0 0 0 0 0 0 0 0 0 0 0 0 0 0 0 0 0 0 
0 0 0 0 0 0 0 0 0 0 0 0 0 -9.369499e-01 5.669527e-01 -1.273761e+00 1.078792e+00 -1.148143e+00 1.163305e+00 -5.444057e-01 9.742882e-01 0 0 0 0 0 0 0 0 0 0 0 0 0 0 0 0 0 0 0 0 0 0 0 0 0 0 0 0 0 0 0 0 0 0 0 2.679520e-01 1.521226e+00 1.668278e+00 1.621755e+00 1.683479e+00 1.706121e+00 1.760797e+00 1.854956e+00 2.053881e+00 1.916981e+00 2.157560e+00 1.960856e+00 2.282889e+00 1.876883e+00 1.602131e+00 1.044787e+00 2.660034e-02 0 0 0 0 0 0 0 0 0 0 0 0 0 0 0 0 0 0 0 0 0 0 0 0 0 0 0 0 0 0 0 0 0 0 0 0 0 0 0 0 0 0 0 0 0 0 0 0 0 0 0 0 0 0 0 
0 0 0 0 0 0 0 0 0 0 0 0 0 -1.939045e+00 5.634016e-01 -1.938884e+00 1.405101e+00 -1.527464e+00 1.761683e+00 -5.601423e-01 1.951400e+00 0 0 0 0 0 0 0 0 0 0 0 0 0 0 0 0 0 0 0 0 0 0 0 0 0 0 0 0 0 0 0 0 0 0 0 4.393062e-01 2.395766e+00 2.642289e+00 2.875473e+00 3.005815e+00 3.147866e+00 3.351213e+00 3.399746e+00 3.754859e+00 3.372060e+00 3.703211e+00 3.170923e+00 3.375022e+00 2.810653e+00 2.581463e+00 1.755507e+00 7.481526e-02 0 0 0 0 0 0 0 0 0 0 0 0 0 0 0 0 0 0 0 0 0 0 0 0 0 0 0 0 0 0 0 0 0 0 0 0 0 0 0 0 0 0 0 0 0 0 0 0 0 0 0 0 0 0 0 
0 0 0 0 0 -1.204546e-01 -1.568033e-01 -1.242807e-01 -2.226120e-01 -1.670520e-01 -2.759719e-01 -2.069622e-01 -3.165787e-01 -2.861764e+00 3.735760e+00 -5.198388e+00 6.072574e+00 -3.836012e+00 6.957151e+00 -6.456554e-01 4.827571e+00 2.940770e+00 2.881797e+00 2.898496e+00 2.843168e+00 2.852508e+00 2.796097e+00 2.796530e+00 2.745320e+00 2.741559e+00 2.697388e+00 2.686840e+00 2.649809e+00 2.634236e+00 2.604185e+00 2.580606e+00 2.553202e+00 2.522654e+00 2.499740e+00 2.466132e+00 2.447577e+00 2.413293e+00 2.397654e+00 2.360223e+00 2.339136e+00 2.295106e+00 2.270871e+00 2.230477e+00 2.210837e+00 2.177876e+00 2.161911e+00 2.134148e+00 2.114932e+00 2.079316e+00 2.042153e+00 1.992029e+00 2.109297e+00 2.799312e+00 2.860737e+00 2.978321e+00 2.991208e+00 2.787111e+00 2.754835e+00 2.809618e+00 2.906272e+00 2.844862e+00 2.980378e+00 2.792867e+00 2.874092e+00 2.586997e+00 2.375610e+00 2.071754e+00 1.482257e+00 1.446480e+00 1.428565e+00 1.412114e+00 1.386634e+00 1.356756e+00 1.319518e+00 1.281286e+00 1.248387e+00 1.218354e+00 1.201560e+00 1.181678e+00 1.175494e+00 1.151980e+00 1.138777e+00 1.097537e+00 1.073658e+00 1.023130e+00 9.999724e-01 9.519936e-01 9.364404e-01 8.993424e-01 8.921070e-01 8.627477e-01 8.509357e-01 8.221444e-01 8.006444e-01 7.742693e-01 7.389410e-01 7.118746e-01 6.613880e-01 6.418229e-01 5.886249e-01 5.873938e-01 5.392178e-01 5.555666e-01 5.080342e-01 5.245109e-01 4.630943e-01 4.642662e-01 3.935951e-01 3.853606e-01 3.236274e-01 3.140888e-01 2.765524e-01 2.657076e-01 2.507454e-01 2.165767e-01 2.129577e-01 1.383887e-01 1.873622e-01 1.798868e-02 0 0 0 0 
0 0 0 0 0 -2.708868e+00 -3.553791e+00 -2.836834e+00 -5.019874e+00 -3.756757e+00 -6.203025e+00 -4.655897e+00 -7.121864e+00 -8.005094e+00 1.116958e+01 1.074690e+01 2.978116e+01 2.942955e+01 4.852669e+01 4.806164e+01 6.723565e+01 6.593180e+01 6.461184e+01 6.498611e+01 6.374818e+01 6.395790e+01 6.269546e+01 6.270547e+01 6.155899e+01 6.147483e+01 6.048567e+01 6.024937e+01 5.941995e+01 5.907113e+01 5.839803e+01 5.786998e+01 5.725619e+01 5.657210e+01 5.605893e+01 5.530634e+01 5.489081e+01 5.412304e+01 5.377282e+01 5.293447e+01 5.246216e+01 5.147589e+01 5.093299e+01 5.002805e+01 4.958804e+01 4.884953e+01 4.849180e+01 4.786971e+01 4.743914e+01 4.664104e+01 4.580833e+01 4.468504e+01 4.360845e+01 4.249057e+01 4.156968e+01 4.089407e+01 4.021076e+01 3.985966e+01 3.917046e+01 3.873499e+01 3.779158e+01 3.720532e+01 3.613675e+01 3.549839e+01 3.450617e+01 3.398761e+01 3.335189e+01 3.307273e+01 3.272651e+01 3.245665e+01 3.205493e+01 3.168604e+01 3.111467e+01 3.044472e+01 2.960965e+01 2.875236e+01 2.801454e+01 2.734107e+01 2.696444e+01 2.651860e+01 2.637993e+01 2.585261e+01 2.555650e+01 2.463153e+01 2.409590e+01 2.296246e+01 2.244292e+01 2.136645e+01 2.101740e+01 2.018489e+01 2.002238e+01 1.936344e+01 1.909829e+01 1.845212e+01 1.796974e+01 1.737790e+01 1.658541e+01 1.597818e+01 1.484566e+01 1.440683e+01 1.321335e+01 1.318590e+01 1.210479e+01 1.247157e+01 1.140441e+01 1.177357e+01 1.039414e+01 1.041938e+01 8.831605e+00 8.645522e+00 7.258121e+00 7.042877e+00 6.198949e+00 5.954640e+00 5.617667e+00 4.849107e+00 4.766061e+00 3.097386e+00 4.204579e+00 4.037922e-01 0 0 0 0 
0 0 0 0 0 -3.922528e+00 -5.152971e+00 -4.118455e+00 -7.272391e+00 -5.439899e+00 -8.981361e+00 -6.742291e+00 -1.031330e+01 -6.014640e+00 1.179290e+01 2.419659e+01 3.635926e+01 5.008682e+01 6.313761e+01 7.334233e+01 9.339324e+01 9.542008e+01 9.351032e+01 9.405196e+01 9.226101e+01 9.256460e+01 9.073810e+01 9.075267e+01 8.909385e+01 8.897208e+01 8.754080e+01 8.719887e+01 8.599869e+01 8.549395e+01 8.451995e+01 8.375588e+01 8.286773e+01 8.187789e+01 8.113534e+01 8.004637e+01 7.944511e+01 7.833418e+01 7.782742e+01 7.661433e+01 7.593089e+01 7.450375e+01 7.371814e+01 7.240864e+01 7.177191e+01 7.070322e+01 7.018556e+01 6.928531e+01 6.866224e+01 6.750728e+01 6.630226e+01 6.467670e+01 6.311874e+01 6.150098e+01 6.016832e+01 5.919060e+01 5.820175e+01 5.769366e+01 5.669626e+01 5.606607e+01 5.470077e+01 5.385234e+01 5.230588e+01 5.138202e+01 4.994604e+01 4.919554e+01 4.827548e+01 4.787146e+01 4.737037e+01 4.697981e+01 4.639840e+01 4.586451e+01 4.503756e+01 4.406796e+01 4.285935e+01 4.161859e+01 4.055073e+01 3.957601e+01 3.903091e+01 3.838564e+01 3.818494e+01 3.742174e+01 3.699317e+01 3.565441e+01 3.487915e+01 3.323861e+01 3.248661e+01 3.092849e+01 3.042324e+01 2.921819e+01 2.898292e+01 2.802909e+01 2.764527e+01 2.670993e+01 2.601171e+01 2.515503e+01 2.400800e+01 2.312907e+01 2.148986e+01 2.085473e+01 1.912725e+01 1.908757e+01 1.752266e+01 1.805355e+01 1.650872e+01 1.704292e+01 1.504592e+01 1.508219e+01 1.278342e+01 1.251374e+01 1.050496e+01 1.019310e+01 8.971117e+00 8.617243e+00 8.129169e+00 7.016232e+00 6.895557e+00 4.481362e+00 6.086095e+00 5.845139e-01 0 0 0 0 
0 0 0 0 0 -1.334115e+00 -1.755984e+00 -1.405901e+00 -2.475129e+00 -1.850194e+00 -3.054308e+00 -2.293356e+00 -3.508016e+00 -2.046682e+00 4.008356e+00 8.225028e+00 1.235947e+01 1.702488e+01 2.146038e+01 2.492777e+01 3.174026e+01 3.242905e+01 3.178028e+01 3.196435e+01 3.135599e+01 3.145921e+01 3.083874e+01 3.084373e+01 3.028018e+01 3.023881e+01 2.975252e+01 2.963634e+01 2.922855e+01 2.905705e+01 2.872611e+01 2.846651e+01 2.816474e+01 2.782844e+01 2.757615e+01 2.720616e+01 2.700188e+01 2.662443e+01 2.645226e+01 2.604009e+01 2.580787e+01 2.532296e+01 2.505602e+01 2.461106e+01 2.439471e+01 2.403156e+01 2.385566e+01 2.354975e+01 2.333803e+01 2.294556e+01 2.253608e+01 2.198369e+01 2.145427e+01 2.090452e+01 2.045166e+01 2.011940e+01 1.978337e+01 1.961071e+01 1.927177e+01 1.905761e+01 1.859364e+01 1.830531e+01 1.777975e+01 1.746578e+01 1.697775e+01 1.672269e+01 1.640999e+01 1.627268e+01 1.610238e+01 1.596964e+01 1.577203e+01 1.559059e+01 1.530953e+01 1.498000e+01 1.456921e+01 1.414752e+01 1.378457e+01 1.345329e+01 1.326802e+01 1.304871e+01 1.298050e+01 1.272111e+01 1.257544e+01 1.212041e+01 1.185690e+01 1.129928e+01 1.104367e+01 1.051403e+01 1.034228e+01 9.932642e+00 9.852648e+00 9.528397e+00 9.397912e+00 9.079949e+00 8.842610e+00 8.551402e+00 8.161522e+00 7.862765e+00 7.305595e+00 7.089720e+00 6.502527e+00 6.489061e+00 5.957095e+00 6.137551e+00 5.612348e+00 5.793868e+00 5.114870e+00 5.127069e+00 4.345408e+00 4.253574e+00 3.570468e+00 3.464308e+00 3.048720e+00 2.928310e+00 2.762248e+00 2.383702e+00 2.342454e+00 1.522365e+00 2.068878e+00 1.987104e-01 0 0 0 0 
0 0 0 0 0 0 0 0 0 0 0 0 0 0 0 0 0 0 0 0 0 0 0 0 0 0 0 0 0 0 0 0 0 0 0 0 0 0 0 0 0 0 0 0 0 0 0 0 0 0 0 0 0 0 0 0 0 0 0 0 0 0 0 0 0 0 0 0 0 0 0 0 0 0 0 0 0 0 0 0 0 0 0 0 0 0 0 0 0 0 0 0 0 0 0 0 0 0 0 0 0 0 0 0 0 0 0 0 0 0 0 0 0 0 0 0 0 0 0 0 0 0 0 0 0 0 0 0 
