# vtk DataFile Version 2.0
Comment goes here
ASCII

DATASET STRUCTURED_POINTS
FIELD FieldData 1
TIME 1 1 double
0.66000000
DIMENSIONS    128   16   1

ORIGIN    0.000   0.000   0.000
SPACING   0.0078125 0.015625   1.000

POINT_DATA   2048
SCALARS Omega double
LOOKUP_TABLE default

2.087154e-05 1.051423e-05 3.005069e-06 -1.345254e-05 -3.870488e-05 -2.631734e-05 8.312429e-07 7.713942e-05 9.707323e-06 4.263375e-05 1.054330e-06 -2.172822e-05 -1.229197e-04 1.919770e-04 -5.927010e-06 -2.245192e-04 2.480380e-04 -4.039118e-04 1.959999e-04 -7.850042e-05 -5.563081e-04 4.078547e-04 2.493762e-04 -4.266498e-05 -5.166807e-05 -1.141548e-04 -9.291726e-05 -1.763633e-04 -1.628201e-04 -2.636583e-04 -2.586783e-04 -3.852596e-04 -3.949269e-04 -5.537182e-04 -5.816278e-04 -7.773277e-04 -8.255097e-04 -1.060633e-03 -1.128453e-03 -1.400819e-03 -1.484417e-03 -1.784867e-03 -1.877966e-03 -2.195398e-03 -2.299410e-03 -2.648530e-03 -2.820669e-03 -3.347304e-03 -3.892958e-03 -5.235118e-03 -7.329906e-03 -1.132297e-02 -1.699352e-02 -2.558514e-02 -4.468898e-02 -9.697414e-02 -1.733642e-01 -2.014583e-01 -1.544812e-01 -7.711636e-02 -1.240890e-02 -1.140484e-02 -6.426679e-02 -1.192451e-01 -1.458167e-01 -1.585345e-01 -1.643998e-01 -1.426917e-01 -7.864709e-03 2.348216e-01 3.392422e-01 3.220044e-01 2.631644e-01 1.619019e-01 8.520134e-02 4.465209e-02 2.877188e-02 1.790951e-02 1.096067e-02 5.240708e-03 2.082977e-03 -2.049821e-04 -1.180592e-03 -1.692210e-03 -1.757411e-03 -1.545476e-03 -1.405685e-03 -1.005516e-03 -9.410242e-04 -5.483443e-04 -6.047923e-04 -2.584414e-04 -3.997375e-04 -9.419535e-05 -2.780458e-04 -6.008007e-06 -2.034546e-04 3.715009e-05 -1.571376e-04 5.157605e-05 -1.302383e-04 4.754221e-05 -1.168120e-04 3.373626e-05 -1.101230e-04 1.824724e-05 -1.023328e-04 7.267418e-06 -8.748523e-05 3.490600e-06 -6.301409e-05 6.895467e-06 -3.000561e-05 1.391104e-05 5.712662e-06 1.746833e-05 3.450458e-05 5.876271e-06 3.725709e-05 -5.262073e-05 -4.922274e-05 -2.717170e-04 -1.544378e-05 1.550608e-04 9.936285e-05 5.757341e-05 5.173857e-05 3.712035e-05 
-5.724802e-03 -6.068589e-03 -1.598021e-02 -2.058983e-02 1.674934e-01 4.652023e-01 -8.124922e-01 -5.611839e-01 -1.719527e-01 -2.981206e-01 -2.355619e-01 -3.944731e-01 3.701305e-01 1.700915e+00 2.217411e+00 1.739457e+00 2.152765e+00 1.957561e+00 1.969831e+00 2.274242e+00 1.704821e+00 1.841504e-01 -3.226330e-01 -2.636704e-01 -2.246363e-01 -2.239523e-01 -2.296803e-01 -2.287820e-01 -2.379232e-01 -2.299486e-01 -2.433867e-01 -2.300312e-01 -2.470186e-01 -2.298528e-01 -2.491453e-01 -2.298051e-01 -2.500524e-01 -2.300259e-01 -2.499767e-01 -2.304597e-01 -2.490211e-01 -2.309974e-01 -2.470747e-01 -2.314047e-01 -2.438280e-01 -2.312763e-01 -2.386489e-01 -2.296905e-01 -2.309539e-01 -2.253148e-01 -2.209859e-01 -2.176163e-01 -2.100243e-01 -2.213540e-01 -3.127011e-01 -5.677032e-01 -3.868973e-01 -3.200111e-01 -4.141036e-01 9.200007e-02 -7.456164e-01 -1.385891e+00 -6.965753e-01 -4.631261e-01 -7.350048e-01 -7.886085e-01 -1.014407e+00 -1.366479e+00 -3.958756e-01 3.663958e-01 5.723325e-01 1.959490e-01 -4.617815e-01 -1.488074e-01 -2.079593e-02 -2.052939e-01 -2.292455e-01 -2.577953e-01 -2.413015e-01 -2.581183e-01 -2.449276e-01 -2.555956e-01 -2.458639e-01 -2.517588e-01 -2.455871e-01 -2.480397e-01 -2.451473e-01 -2.449787e-01 -2.450005e-01 -2.425668e-01 -2.452480e-01 -2.405935e-01 -2.458443e-01 -2.388488e-01 -2.467401e-01 -2.371682e-01 -2.478384e-01 -2.355214e-01 -2.490072e-01 -2.340181e-01 -2.499880e-01 -2.329275e-01 -2.504678e-01 -2.326166e-01 -2.500353e-01 -2.334834e-01 -2.482880e-01 -2.358937e-01 -2.448702e-01 -2.400864e-01 -2.395344e-01 -2.461117e-01 -2.321820e-01 -2.536519e-01 -2.226464e-01 -2.619593e-01 -2.102394e-01 -2.701800e-01 -1.915921e-01 -2.769534e-01 -1.293407e-01 -4.915739e-01 -5.182871e-01 5.502247e-02 -2.478748e-02 -2.126454e-02 -9.584929e-03 -7.040037e-03 
1.159689e-03 -7.936258e-03 -8.825238e-02 -2.011114e-01 1.000083e+00 2.316496e+00 -2.193582e+00 -1.268965e+00 -3.376584e-01 -5.882103e-01 -4.186040e-01 -5.274377e-01 1.086249e+00 -2.807436e-01 -4.700608e-01 -7.126734e-01 -3.460053e-01 -7.630180e-01 -3.625236e-01 -8.195930e-01 7.699045e-02 6.905849e-01 -3.874189e-01 -5.628705e-01 -4.397595e-01 -5.013769e-01 -4.277785e-01 -4.869249e-01 -4.347575e-01 -4.744466e-01 -4.437265e-01 -4.631596e-01 -4.544165e-01 -4.542194e-01 -4.660584e-01 -4.458800e-01 -4.745966e-01 -4.355221e-01 -4.799290e-01 -4.260865e-01 -4.843566e-01 -4.186342e-01 -4.859415e-01 -4.123528e-01 -4.830186e-01 -4.073833e-01 -4.742181e-01 -4.034044e-01 -4.588163e-01 -3.957850e-01 -4.313597e-01 -3.721241e-01 -3.813380e-01 -3.375763e-01 -4.481575e-01 -6.809568e-01 4.888974e-03 4.313669e-01 -1.993239e-01 1.031062e-01 -6.813440e-01 -1.167460e+00 -4.210956e-01 -3.375760e-02 8.373420e-02 4.805467e-02 2.011596e-01 -1.634665e-01 1.348163e-03 -1.001118e+00 -1.099030e+00 -1.139664e+00 -1.922914e+00 -9.338549e-01 -2.536452e-01 -4.292143e-01 -4.397626e-01 -4.705375e-01 -4.496695e-01 -4.588953e-01 -4.506007e-01 -4.563653e-01 -4.507143e-01 -4.574492e-01 -4.464329e-01 -4.576316e-01 -4.393216e-01 -4.554101e-01 -4.325510e-01 -4.516901e-01 -4.313696e-01 -4.482516e-01 -4.371318e-01 -4.436066e-01 -4.482671e-01 -4.358097e-01 -4.605321e-01 -4.221671e-01 -4.708417e-01 -4.057971e-01 -4.800194e-01 -3.914292e-01 -4.878706e-01 -3.845496e-01 -4.947380e-01 -3.874296e-01 -4.938874e-01 -3.959463e-01 -4.798765e-01 -4.116438e-01 -4.543323e-01 -4.378271e-01 -4.203033e-01 -4.763393e-01 -3.793269e-01 -5.237597e-01 -3.269266e-01 -5.771450e-01 -2.493117e-01 -6.471713e-01 -5.746021e-02 -1.471953e+00 -3.906526e-01 1.194586e+00 -5.538215e-01 -2.129668e-01 -1.923425e-02 2.926753e-03 
1.790545e-02 -8.608218e-03 -2.030817e-01 -5.986451e-01 1.657152e+00 4.137457e+00 8.206725e-02 6.546616e-01 6.653336e-01 7.263323e-01 5.908877e-01 4.906418e-01 -5.831308e-01 -2.383672e-01 -4.183564e-02 -1.506534e-01 -1.733829e-01 -1.770762e-01 -1.181916e-01 -1.059100e-01 -1.862839e-01 -5.290008e-01 5.730507e-01 4.934214e-01 7.549800e-01 5.775401e-01 8.118016e-01 6.344019e-01 8.411147e-01 6.735733e-01 8.495351e-01 7.027748e-01 8.408335e-01 7.237723e-01 8.192219e-01 7.441325e-01 7.982728e-01 7.722417e-01 7.796565e-01 7.988479e-01 7.570419e-01 8.199611e-01 7.350652e-01 8.362387e-01 7.161602e-01 8.441838e-01 6.992963e-01 8.369960e-01 6.800630e-01 8.128135e-01 6.643177e-01 7.828698e-01 6.623850e-01 7.710615e-01 7.577956e-01 9.829198e-01 7.561860e-01 6.515995e-01 8.690395e-01 4.845181e-01 1.310833e+00 1.705353e+00 1.200909e+00 7.642814e-01 8.852593e-01 7.542905e-01 9.023350e-01 1.058549e+00 7.656377e-01 9.794267e-01 1.046989e+00 9.565032e-01 1.539390e+00 9.298726e-01 7.427144e-01 8.617051e-01 8.238519e-01 8.996267e-01 8.123145e-01 8.975030e-01 8.101494e-01 8.723629e-01 8.116649e-01 8.403598e-01 8.262797e-01 8.162103e-01 8.500077e-01 8.039402e-01 8.738304e-01 7.996046e-01 8.823945e-01 7.967468e-01 8.716113e-01 7.988065e-01 8.460119e-01 8.106915e-01 8.175400e-01 8.402737e-01 7.944368e-01 8.791843e-01 7.725653e-01 9.154143e-01 7.504892e-01 9.353920e-01 7.245984e-01 9.352315e-01 7.122958e-01 9.295971e-01 7.275904e-01 9.155984e-01 7.646479e-01 8.840751e-01 8.149416e-01 8.281959e-01 8.747009e-01 7.545890e-01 9.544104e-01 6.664677e-01 1.067732e+00 5.312141e-01 1.294331e+00 -9.213944e-02 3.403445e+00 3.346559e+00 -1.593374e+00 -5.616101e-01 -2.312464e-02 3.064663e-02 
1.790353e-02 2.015978e-02 -7.374258e-02 -4.401913e-01 3.821570e-01 1.523515e+00 2.979977e+00 2.361498e+00 1.127431e+00 1.519231e+00 1.053757e+00 1.306929e+00 1.293331e+00 1.384638e+00 1.091490e+00 1.325660e+00 1.153034e+00 1.310085e+00 1.181559e+00 1.238264e+00 1.267881e+00 1.333920e+00 1.273871e+00 1.184077e+00 1.397006e+00 1.288910e+00 1.466961e+00 1.332623e+00 1.504239e+00 1.357924e+00 1.522186e+00 1.374844e+00 1.523925e+00 1.386369e+00 1.512970e+00 1.398493e+00 1.499220e+00 1.417076e+00 1.484301e+00 1.435342e+00 1.463948e+00 1.450122e+00 1.440848e+00 1.461191e+00 1.415696e+00 1.465025e+00 1.385892e+00 1.454026e+00 1.346272e+00 1.420590e+00 1.296832e+00 1.361361e+00 1.232986e+00 1.258963e+00 1.111246e+00 1.020889e+00 6.606895e-01 2.016591e-01 6.852586e-01 8.370596e-01 5.035139e-01 2.620475e-01 6.055728e-01 8.986057e-01 8.524612e-01 9.854863e-01 9.475896e-01 8.020766e-01 1.435471e+00 1.419156e+00 1.791679e+00 1.730240e+00 1.856388e+00 1.851122e+00 1.568150e+00 1.567736e+00 1.422684e+00 1.561126e+00 1.430941e+00 1.556916e+00 1.442627e+00 1.533075e+00 1.455188e+00 1.503991e+00 1.474813e+00 1.480415e+00 1.498795e+00 1.465447e+00 1.521330e+00 1.456500e+00 1.532259e+00 1.449184e+00 1.529017e+00 1.445857e+00 1.514931e+00 1.449818e+00 1.498220e+00 1.466610e+00 1.484370e+00 1.490827e+00 1.469924e+00 1.514957e+00 1.453151e+00 1.530627e+00 1.430609e+00 1.536244e+00 1.413492e+00 1.542850e+00 1.410822e+00 1.548928e+00 1.418344e+00 1.548192e+00 1.430743e+00 1.535421e+00 1.446700e+00 1.514951e+00 1.475395e+00 1.492368e+00 1.527020e+00 1.470824e+00 1.619451e+00 1.965030e+00 4.538049e+00 1.931665e+00 -1.545298e+00 -5.332728e-01 -4.103676e-02 1.859418e-02 
1.336215e-03 1.407506e-02 2.197509e-02 -8.338427e-02 -4.777039e-01 -7.843140e-01 1.566480e+00 9.733561e-01 2.511819e-01 5.032992e-01 2.793045e-01 5.108356e-01 1.464789e+00 1.093199e+00 7.780514e-01 7.873218e-01 7.830531e-01 7.837619e-01 7.874509e-01 7.795263e-01 1.183687e+00 1.333494e+00 3.678083e-01 3.386798e-01 4.133672e-01 4.237305e-01 4.499348e-01 4.321106e-01 4.605627e-01 4.317998e-01 4.659330e-01 4.297461e-01 4.682339e-01 4.279566e-01 4.683673e-01 4.271376e-01 4.669681e-01 4.273758e-01 4.641581e-01 4.279166e-01 4.595660e-01 4.281110e-01 4.527207e-01 4.272257e-01 4.427309e-01 4.240958e-01 4.280561e-01 4.164970e-01 4.071876e-01 4.009380e-01 3.791388e-01 3.753805e-01 3.480797e-01 3.230861e-01 1.316783e-01 -2.819588e-01 8.803528e-01 1.705813e+00 4.709047e-01 7.249465e-01 1.722029e-01 -1.856182e-01 4.173886e-01 4.983014e-01 7.309367e-01 4.083899e-01 8.806503e-01 3.874590e-01 6.114388e-01 -3.586102e-01 -5.286151e-01 -6.735767e-01 -1.992874e+00 -4.424311e-01 5.366257e-01 5.136321e-01 3.793289e-01 4.190335e-01 3.711620e-01 4.216059e-01 3.901563e-01 4.279800e-01 4.089150e-01 4.322943e-01 4.244668e-01 4.342059e-01 4.363831e-01 4.343533e-01 4.451248e-01 4.333879e-01 4.511052e-01 4.317811e-01 4.548576e-01 4.300717e-01 4.569975e-01 4.286581e-01 4.581435e-01 4.280397e-01 4.586124e-01 4.282866e-01 4.580607e-01 4.295337e-01 4.561045e-01 4.319375e-01 4.521432e-01 4.359826e-01 4.462978e-01 4.426039e-01 4.386793e-01 4.519494e-01 4.290762e-01 4.637974e-01 4.178160e-01 4.779810e-01 4.063233e-01 4.957566e-01 3.983303e-01 5.226719e-01 4.009382e-01 5.783887e-01 3.860841e-01 1.044395e+00 1.173867e+00 -3.328163e-01 -4.059917e-01 -8.490204e-02 1.500100e-03 1.425597e-03 
-5.830202e-03 6.554859e-04 1.113399e-02 1.412190e-02 -4.354412e-02 -1.702637e-01 -1.271145e-02 -1.844271e-02 -6.045757e-02 -1.255967e-02 -6.167159e-02 -7.095993e-02 1.287410e+00 1.202973e+00 5.478036e-01 5.472656e-01 5.470894e-01 5.471244e-01 5.472657e-01 5.482819e-01 1.275818e+00 1.286104e+00 -2.593574e-01 -2.119545e-01 -9.519712e-02 -5.901360e-02 -4.482369e-02 -4.287947e-02 -3.729589e-02 -3.961815e-02 -3.610047e-02 -3.986752e-02 -3.680636e-02 -4.078300e-02 -3.783819e-02 -4.162520e-02 -3.891924e-02 -4.240705e-02 -4.017184e-02 -4.338140e-02 -4.187054e-02 -4.490864e-02 -4.439983e-02 -4.741655e-02 -4.816910e-02 -5.122822e-02 -5.329553e-02 -5.603777e-02 -5.870273e-02 -5.965065e-02 -6.000128e-02 -5.334401e-02 -3.891304e-02 -1.574297e-02 -5.080266e-02 -1.761873e-01 9.168023e-01 2.214925e+00 9.738433e-01 5.424426e-01 7.935369e-01 3.094748e-01 5.623711e-01 3.317670e-01 4.520359e-01 5.713960e-02 2.998606e-01 1.864106e-01 -7.075019e-02 2.376918e-01 2.509112e-01 5.221874e-01 -2.783737e-01 -5.495417e-01 -1.811777e-01 -9.998029e-04 -1.103040e-02 -3.359926e-02 -5.312935e-02 -5.800058e-02 -6.289650e-02 -6.085532e-02 -6.034736e-02 -5.688051e-02 -5.469409e-02 -5.188124e-02 -4.946084e-02 -4.784690e-02 -4.557936e-02 -4.510294e-02 -4.296478e-02 -4.341424e-02 -4.127054e-02 -4.246066e-02 -4.016970e-02 -4.198193e-02 -3.943010e-02 -4.178789e-02 -3.890968e-02 -4.173659e-02 -3.854033e-02 -4.171124e-02 -3.830366e-02 -4.161322e-02 -3.821868e-02 -4.135649e-02 -3.831720e-02 -4.086218e-02 -3.861464e-02 -4.003035e-02 -3.903603e-02 -3.864903e-02 -3.925435e-02 -3.618807e-02 -3.839549e-02 -3.141991e-02 -3.464449e-02 -2.200138e-02 -2.531525e-02 -6.137654e-03 -2.137473e-02 3.427873e-03 -3.333156e-02 -9.526729e-02 -4.142417e-02 -8.890704e-03 -7.492415e-03 -8.440493e-03 
-4.969536e-03 -3.380365e-03 -9.278603e-04 2.332288e-03 1.803727e-03 -9.743249e-03 -1.023162e-02 -4.544923e-03 5.197879e-03 2.031507e-02 4.410495e-03 -2.621921e-02 6.346896e-01 5.828507e-01 2.747486e-01 2.743289e-01 2.743282e-01 2.743284e-01 2.743297e-01 2.750293e-01 6.451342e-01 6.453632e-01 -1.519219e-01 -1.165428e-01 -5.103578e-02 -2.802703e-02 -1.919113e-02 -1.472787e-02 -1.167543e-02 -1.035333e-02 -9.443632e-03 -9.382641e-03 -9.212120e-03 -9.506242e-03 -9.563345e-03 -9.938208e-03 -1.010262e-02 -1.051995e-02 -1.081215e-02 -1.132399e-02 -1.181845e-02 -1.250961e-02 -1.328183e-02 -1.419403e-02 -1.519491e-02 -1.611378e-02 -1.683419e-02 -1.679031e-02 -1.557362e-02 -1.194630e-02 -4.745623e-03 8.876351e-03 3.119921e-02 5.502490e-02 3.682946e-02 2.741053e-02 6.819076e-01 1.206100e+00 5.107579e-01 1.920698e-01 1.740262e-01 -3.040343e-01 9.695644e-02 6.454737e-01 6.336386e-01 6.551787e-01 6.531538e-01 6.876873e-01 5.789994e-01 1.698777e-01 1.127986e-01 3.025949e-01 3.770289e-01 3.714167e-01 2.230578e-01 1.474130e-01 8.574142e-02 4.290890e-02 1.562550e-02 -8.536984e-04 -1.041338e-02 -1.537294e-02 -1.752910e-02 -1.796046e-02 -1.749224e-02 -1.656327e-02 -1.550621e-02 -1.445744e-02 -1.351648e-02 -1.271161e-02 -1.203172e-02 -1.150162e-02 -1.104096e-02 -1.072747e-02 -1.040872e-02 -1.025128e-02 -1.000833e-02 -9.963685e-03 -9.749479e-03 -9.789481e-03 -9.573745e-03 -9.679027e-03 -9.445189e-03 -9.599606e-03 -9.342425e-03 -9.528318e-03 -9.250474e-03 -9.441848e-03 -9.144855e-03 -9.292649e-03 -8.954256e-03 -8.955198e-03 -8.484979e-03 -8.131341e-03 -7.317018e-03 -6.272004e-03 -4.819181e-03 -2.802345e-03 -7.227440e-04 1.659406e-03 1.878091e-03 -1.084944e-03 -6.708411e-03 -5.674964e-03 -3.058668e-03 -4.150598e-03 -5.815319e-03 -5.867952e-03 
-1.348931e-05 -9.480420e-06 -7.201821e-06 -3.705488e-06 -1.141698e-06 2.984204e-06 2.236728e-06 -1.445620e-06 -4.128058e-06 -4.341850e-06 -2.995744e-06 -7.548182e-05 -4.938596e-04 5.145761e-04 7.111469e-07 3.216327e-11 5.086065e-10 -1.911178e-09 -2.930930e-10 1.671114e-07 2.560568e-05 -3.198174e-03 1.562417e-03 1.035461e-03 4.296671e-04 1.987394e-04 7.217335e-05 -9.113492e-06 -8.077779e-05 -1.376149e-04 -1.957984e-04 -2.569888e-04 -3.276007e-04 -4.141930e-04 -5.167026e-04 -6.483369e-04 -8.053341e-04 -1.008911e-03 -1.253547e-03 -1.567837e-03 -1.944172e-03 -2.410513e-03 -2.946650e-03 -3.550257e-03 -4.148495e-03 -4.632911e-03 -4.781949e-03 -4.239672e-03 -2.477156e-03 1.311459e-03 8.283425e-03 2.035030e-02 3.912623e-02 5.841889e-02 5.494437e-02 1.261654e-01 7.213537e-01 7.824348e-01 1.827413e-01 1.506038e-01 8.120305e-02 6.545737e-02 2.024046e-01 3.077655e-01 2.659127e-01 1.428538e-01 1.147747e-01 1.052857e-01 2.464865e-01 3.064528e-01 2.489482e-01 -6.034616e-02 -1.133557e-01 1.747792e-01 2.266569e-01 1.575405e-01 9.682979e-02 5.671312e-02 3.090968e-02 1.452350e-02 4.553555e-03 -1.177353e-03 -4.105903e-03 -5.335297e-03 -5.532519e-03 -5.193204e-03 -4.593481e-03 -3.917463e-03 -3.260800e-03 -2.668048e-03 -2.161863e-03 -1.736938e-03 -1.392049e-03 -1.111136e-03 -8.877828e-04 -7.081427e-04 -5.661907e-04 -4.525388e-04 -3.626797e-04 -2.906861e-04 -2.335699e-04 -1.874429e-04 -1.506843e-04 -1.204283e-04 -9.626005e-05 -7.583931e-05 -5.963418e-05 -4.568347e-05 -3.485213e-05 -2.560172e-05 -1.872196e-05 -1.326304e-05 -9.531523e-06 -7.528962e-06 -6.531681e-06 -8.072090e-06 -9.313016e-06 -1.390705e-05 -1.541935e-05 -2.007303e-05 -1.840343e-05 -1.804185e-05 -1.504803e-05 -1.436550e-05 -2.071588e-05 -1.846738e-05 -1.928927e-05 -1.529473e-05 
4.937862e-03 3.356719e-03 9.098259e-04 -2.342473e-03 -1.798100e-03 9.766151e-03 1.024849e-02 4.538722e-03 -5.197198e-03 -2.032089e-02 -4.421870e-03 2.596705e-02 -6.356838e-01 -5.818811e-01 -2.747472e-01 -2.743289e-01 -2.743282e-01 -2.743284e-01 -2.743297e-01 -2.750292e-01 -6.451898e-01 -6.526146e-01 1.555599e-01 1.187554e-01 5.186658e-02 2.838616e-02 1.929097e-02 1.468309e-02 1.147575e-02 1.004923e-02 9.003032e-03 8.819009e-03 8.478969e-03 8.586625e-03 8.399550e-03 8.479011e-03 8.271891e-03 8.219473e-03 7.931315e-03 7.700340e-03 7.288461e-03 6.840518e-03 6.265833e-03 5.588470e-03 4.873009e-03 4.084550e-03 3.474745e-03 3.039028e-03 3.249131e-03 4.204345e-03 6.698841e-03 1.122257e-02 1.727013e-02 1.229928e-02 -2.611452e-02 1.202834e-01 9.927028e-01 9.520477e-01 3.229609e-01 2.882385e-01 -1.715538e-01 -2.856164e-01 7.293762e-02 3.283526e-01 2.069432e-01 2.720715e-01 1.526989e-01 1.481427e-01 4.926950e-04 -4.129522e-01 -3.290336e-01 -7.644698e-01 -4.174882e-01 3.035811e-01 2.288707e-01 1.274195e-01 7.392736e-02 4.393668e-02 2.529143e-02 1.376971e-02 7.096797e-03 3.607491e-03 2.152277e-03 1.895355e-03 2.337941e-03 3.092182e-03 3.990323e-03 4.852144e-03 5.670742e-03 6.354813e-03 6.959863e-03 7.436924e-03 7.839616e-03 8.160905e-03 8.404684e-03 8.630863e-03 8.753273e-03 8.932990e-03 8.959185e-03 9.126105e-03 9.072499e-03 9.247052e-03 9.126394e-03 9.317485e-03 9.142265e-03 9.347365e-03 9.130085e-03 9.331775e-03 9.078753e-03 9.232614e-03 8.923642e-03 8.928683e-03 8.474118e-03 8.123179e-03 7.310971e-03 6.266167e-03 4.802468e-03 2.782553e-03 6.839853e-04 -1.698476e-03 -1.926990e-03 1.072088e-03 6.672338e-03 5.623191e-03 2.999425e-03 4.100296e-03 5.768605e-03 5.830860e-03 
5.777587e-03 -7.000562e-04 -1.117517e-02 -1.414303e-02 4.360730e-02 1.702633e-01 1.287300e-02 1.845189e-02 6.048622e-02 1.254546e-02 6.170294e-02 7.069614e-02 -1.288394e+00 -1.201968e+00 -5.478054e-01 -5.472665e-01 -5.470938e-01 -5.471288e-01 -5.472710e-01 -5.482924e-01 -1.275702e+00 -1.290396e+00 2.619049e-01 2.135423e-01 9.556208e-02 5.922109e-02 4.466768e-02 4.279508e-02 3.691414e-02 3.930347e-02 3.549562e-02 3.927059e-02 3.588188e-02 3.975996e-02 3.640672e-02 3.992989e-02 3.666562e-02 3.963004e-02 3.656718e-02 3.883850e-02 3.603806e-02 3.749144e-02 3.494262e-02 3.545259e-02 3.308947e-02 3.255631e-02 3.030966e-02 2.870625e-02 2.648949e-02 2.374203e-02 2.123168e-02 1.713840e-02 1.099857e-02 -2.154514e-02 -1.321568e-01 -1.242542e-01 6.773482e-01 6.385283e-01 1.506981e-01 2.456751e-01 -1.239248e-01 -1.606520e-01 1.346443e-01 3.936651e-01 1.794168e-01 2.331170e-01 1.097022e-01 7.958011e-02 1.077156e-01 -1.631103e-01 -2.275474e-01 -1.136649e+00 -7.690262e-01 2.452271e-01 1.898612e-01 9.085160e-02 4.986110e-02 3.272048e-02 2.410351e-02 2.098154e-02 1.973557e-02 2.135328e-02 2.252188e-02 2.542262e-02 2.695466e-02 2.977771e-02 3.095717e-02 3.330117e-02 3.394732e-02 3.583632e-02 3.595315e-02 3.756853e-02 3.718887e-02 3.874426e-02 3.787848e-02 3.956208e-02 3.820097e-02 4.014892e-02 3.829193e-02 4.056917e-02 3.826197e-02 4.083971e-02 3.821350e-02 4.094062e-02 3.823843e-02 4.083181e-02 3.840869e-02 4.046169e-02 3.875434e-02 3.974328e-02 3.920016e-02 3.846760e-02 3.941439e-02 3.610020e-02 3.851550e-02 3.140514e-02 3.468274e-02 2.201935e-02 2.521978e-02 6.140010e-03 2.118351e-02 -3.060513e-03 3.322363e-02 9.499641e-02 4.124212e-02 8.744538e-03 7.395090e-03 8.375755e-03 
-1.414418e-03 -1.414781e-02 -2.206342e-02 8.339539e-02 4.781541e-01 7.816821e-01 -1.565645e+00 -9.719753e-01 -2.514731e-01 -5.030743e-01 -2.795883e-01 -5.116643e-01 -1.466223e+00 -1.092174e+00 -7.781305e-01 -7.873377e-01 -7.831621e-01 -7.838667e-01 -7.875748e-01 -7.798032e-01 -1.182751e+00 -1.335701e+00 -3.661939e-01 -3.369641e-01 -4.142724e-01 -4.235351e-01 -4.509338e-01 -4.323768e-01 -4.614510e-01 -4.325146e-01 -4.668444e-01 -4.309796e-01 -4.695893e-01 -4.300940e-01 -4.708083e-01 -4.305359e-01 -4.709013e-01 -4.322864e-01 -4.703487e-01 -4.354120e-01 -4.696605e-01 -4.399779e-01 -4.693651e-01 -4.462671e-01 -4.703074e-01 -4.548498e-01 -4.736444e-01 -4.666350e-01 -4.812789e-01 -4.832223e-01 -4.963018e-01 -5.076636e-01 -5.251731e-01 -5.582094e-01 -6.379843e-01 -7.518030e-01 -7.020930e-01 -7.000834e-01 -6.470118e-01 -5.589215e-01 -6.987638e-01 -7.718867e-01 -6.145921e-01 -5.866035e-01 -5.956192e-01 -5.874292e-01 -6.336876e-01 -6.467501e-01 -4.960837e-01 -3.850826e-01 -2.816471e-01 -3.696482e-01 -3.790001e-01 -3.429239e-01 -4.257879e-01 -4.768465e-01 -4.845579e-01 -4.867072e-01 -4.859170e-01 -4.767558e-01 -4.785307e-01 -4.644762e-01 -4.702461e-01 -4.539205e-01 -4.635659e-01 -4.461645e-01 -4.591138e-01 -4.408978e-01 -4.564817e-01 -4.372300e-01 -4.550691e-01 -4.346285e-01 -4.545013e-01 -4.328967e-01 -4.545884e-01 -4.319500e-01 -4.548144e-01 -4.314253e-01 -4.546286e-01 -4.314709e-01 -4.538477e-01 -4.324959e-01 -4.520799e-01 -4.351405e-01 -4.489514e-01 -4.398263e-01 -4.436737e-01 -4.464398e-01 -4.358960e-01 -4.552577e-01 -4.260569e-01 -4.664675e-01 -4.149489e-01 -4.801494e-01 -4.041130e-01 -4.971895e-01 -3.968330e-01 -5.231531e-01 -4.005057e-01 -5.780930e-01 -3.867919e-01 -1.041417e+00 -1.176055e+00 3.320598e-01 4.068526e-01 8.451836e-02 -1.839225e-03 -1.572359e-03 
-1.803863e-02 -2.026473e-02 7.359369e-02 4.406932e-01 -3.775535e-01 -1.530419e+00 -2.980060e+00 -2.358861e+00 -1.128577e+00 -1.518546e+00 -1.054862e+00 -1.306347e+00 -1.294239e+00 -1.383475e+00 -1.092258e+00 -1.325306e+00 -1.154093e+00 -1.309821e+00 -1.182963e+00 -1.238427e+00 -1.270888e+00 -1.331055e+00 -1.272486e+00 -1.187118e+00 -1.397831e+00 -1.297057e+00 -1.467591e+00 -1.342143e+00 -1.501115e+00 -1.366351e+00 -1.515622e+00 -1.382625e+00 -1.518328e+00 -1.398255e+00 -1.516315e+00 -1.415789e+00 -1.510678e+00 -1.433010e+00 -1.503776e+00 -1.451027e+00 -1.498296e+00 -1.468458e+00 -1.494932e+00 -1.485668e+00 -1.496359e+00 -1.503581e+00 -1.504396e+00 -1.525142e+00 -1.524610e+00 -1.555759e+00 -1.560679e+00 -1.596296e+00 -1.609990e+00 -1.637529e+00 -1.647809e+00 -1.658416e+00 -1.780523e+00 -1.807554e+00 -1.745055e+00 -1.802544e+00 -1.664835e+00 -1.677424e+00 -1.704665e+00 -1.769150e+00 -1.688444e+00 -1.707864e+00 -1.613822e+00 -1.584692e+00 -1.567447e+00 -1.509024e+00 -1.506844e+00 -1.391219e+00 -1.411862e+00 -1.549527e+00 -1.489263e+00 -1.516936e+00 -1.479620e+00 -1.495126e+00 -1.482947e+00 -1.477344e+00 -1.491340e+00 -1.461955e+00 -1.499866e+00 -1.445553e+00 -1.506239e+00 -1.433410e+00 -1.514120e+00 -1.427864e+00 -1.518903e+00 -1.425846e+00 -1.517739e+00 -1.428338e+00 -1.511757e+00 -1.438886e+00 -1.505318e+00 -1.458444e+00 -1.494495e+00 -1.477401e+00 -1.474710e+00 -1.494405e+00 -1.451894e+00 -1.511457e+00 -1.431518e+00 -1.531341e+00 -1.419832e+00 -1.551063e+00 -1.410873e+00 -1.559681e+00 -1.403093e+00 -1.559701e+00 -1.404208e+00 -1.554684e+00 -1.416899e+00 -1.544269e+00 -1.439354e+00 -1.523846e+00 -1.470437e+00 -1.496192e+00 -1.525711e+00 -1.469286e+00 -1.623101e+00 -1.953119e+00 -4.576788e+00 -1.919834e+00 1.569330e+00 5.362210e-01 4.030524e-02 -1.902554e-02 
-1.804608e-02 8.497633e-03 2.028718e-01 5.992330e-01 -1.650687e+00 -4.140865e+00 -8.397769e-02 -6.544327e-01 -6.662939e-01 -7.259699e-01 -5.917676e-01 -4.884169e-01 5.822790e-01 2.391000e-01 3.873900e-02 1.530158e-01 1.705434e-01 1.786467e-01 1.179526e-01 1.058575e-01 1.906345e-01 5.265370e-01 -5.709761e-01 -5.003598e-01 -7.532296e-01 -5.906396e-01 -8.099246e-01 -6.485996e-01 -8.335694e-01 -6.849939e-01 -8.364089e-01 -7.119531e-01 -8.279668e-01 -7.372208e-01 -8.175815e-01 -7.630912e-01 -8.058318e-01 -7.857583e-01 -7.949319e-01 -8.064977e-01 -7.876361e-01 -8.228889e-01 -7.836776e-01 -8.348477e-01 -7.851013e-01 -8.424988e-01 -7.918122e-01 -8.482800e-01 -8.076808e-01 -8.571816e-01 -8.319018e-01 -8.660491e-01 -8.529776e-01 -8.613538e-01 -8.551335e-01 -8.410376e-01 -8.477757e-01 -8.597077e-01 -8.671436e-01 -8.861288e-01 -8.842803e-01 -8.742791e-01 -8.696709e-01 -8.460853e-01 -8.391124e-01 -8.144564e-01 -8.206536e-01 -8.136084e-01 -8.464687e-01 -8.648931e-01 -8.745037e-01 -8.866672e-01 -8.409837e-01 -8.720845e-01 -8.110587e-01 -8.475102e-01 -7.997862e-01 -8.280012e-01 -8.049262e-01 -8.146269e-01 -8.207118e-01 -8.022808e-01 -8.369618e-01 -7.851823e-01 -8.490766e-01 -7.715701e-01 -8.620291e-01 -7.659931e-01 -8.690237e-01 -7.652646e-01 -8.661431e-01 -7.714390e-01 -8.551589e-01 -7.898571e-01 -8.426721e-01 -8.216910e-01 -8.233978e-01 -8.524789e-01 -7.913639e-01 -8.794478e-01 -7.561997e-01 -9.044033e-01 -7.274869e-01 -9.297970e-01 -7.160732e-01 -9.495925e-01 -7.148169e-01 -9.467408e-01 -7.223742e-01 -9.242745e-01 -7.499330e-01 -8.874123e-01 -8.003379e-01 -8.363404e-01 -8.687384e-01 -7.646455e-01 -9.506743e-01 -6.711744e-01 -1.067564e+00 -5.298785e-01 -1.299019e+00 1.063155e-01 -3.459218e+00 -3.326587e+00 1.628641e+00 5.662409e-01 2.227315e-02 -3.113201e-02 
-1.197990e-03 7.888594e-03 8.809093e-02 2.010363e-01 -9.980497e-01 -2.314417e+00 2.192354e+00 1.267520e+00 3.377635e-01 5.881235e-01 4.183768e-01 5.269610e-01 -1.087361e+00 2.821424e-01 4.701351e-01 7.135840e-01 3.456152e-01 7.633731e-01 3.628463e-01 8.160177e-01 -7.250187e-02 -6.928016e-01 3.930482e-01 5.604493e-01 4.421577e-01 4.963135e-01 4.302573e-01 4.819756e-01 4.394884e-01 4.710749e-01 4.509052e-01 4.612751e-01 4.623494e-01 4.518438e-01 4.713407e-01 4.430359e-01 4.783696e-01 4.366723e-01 4.834142e-01 4.326317e-01 4.862052e-01 4.320224e-01 4.875646e-01 4.352384e-01 4.878220e-01 4.428866e-01 4.884945e-01 4.550885e-01 4.904590e-01 4.714239e-01 4.966835e-01 4.940922e-01 5.129427e-01 5.230380e-01 5.222934e-01 5.221386e-01 5.911643e-01 6.231664e-01 5.993319e-01 6.449843e-01 5.463117e-01 5.575860e-01 5.699302e-01 6.310605e-01 5.731131e-01 6.046144e-01 5.238135e-01 5.059800e-01 4.775167e-01 4.334020e-01 4.373011e-01 3.423417e-01 3.806097e-01 4.271274e-01 4.253339e-01 4.095874e-01 4.279656e-01 4.162848e-01 4.336691e-01 4.236330e-01 4.344297e-01 4.313197e-01 4.332599e-01 4.405749e-01 4.320293e-01 4.482099e-01 4.295458e-01 4.523448e-01 4.286826e-01 4.537413e-01 4.311726e-01 4.516593e-01 4.367453e-01 4.443667e-01 4.432939e-01 4.317129e-01 4.525781e-01 4.189841e-01 4.663434e-01 4.076390e-01 4.807680e-01 3.977467e-01 4.916439e-01 3.894172e-01 4.942220e-01 3.857675e-01 4.900104e-01 3.934379e-01 4.788318e-01 4.119281e-01 4.566657e-01 4.395616e-01 4.227559e-01 4.757989e-01 3.791964e-01 5.217037e-01 3.265761e-01 5.759502e-01 2.484269e-01 6.470897e-01 5.547973e-02 1.474316e+00 3.698417e-01 -1.184351e+00 5.680397e-01 2.146810e-01 1.887238e-02 -3.082927e-03 
5.760371e-03 6.079151e-03 1.594712e-02 2.045027e-02 -1.676227e-01 -4.640178e-01 8.122667e-01 5.607637e-01 1.721571e-01 2.981353e-01 2.355780e-01 3.940108e-01 -3.701730e-01 -1.698653e+00 -2.214453e+00 -1.743515e+00 -2.146625e+00 -1.960178e+00 -1.966515e+00 -2.268185e+00 -1.716823e+00 -1.858476e-01 3.251881e-01 2.637071e-01 2.252850e-01 2.235258e-01 2.302854e-01 2.284513e-01 2.385745e-01 2.297300e-01 2.441260e-01 2.299038e-01 2.478866e-01 2.298284e-01 2.501754e-01 2.299667e-01 2.513177e-01 2.305668e-01 2.516479e-01 2.317791e-01 2.514758e-01 2.337391e-01 2.511369e-01 2.366146e-01 2.510770e-01 2.406648e-01 2.518636e-01 2.461445e-01 2.540988e-01 2.529901e-01 2.578100e-01 2.599002e-01 2.613159e-01 2.623418e-01 2.527320e-01 2.404234e-01 2.569251e-01 2.781170e-01 2.865914e-01 3.244906e-01 2.972635e-01 3.031611e-01 2.995462e-01 3.158409e-01 2.918257e-01 3.040995e-01 2.796377e-01 2.842542e-01 3.029142e-01 3.221069e-01 3.439962e-01 3.093301e-01 3.028708e-01 2.990100e-01 2.697802e-01 2.548888e-01 2.474475e-01 2.396916e-01 2.395377e-01 2.334693e-01 2.372400e-01 2.322480e-01 2.375533e-01 2.333206e-01 2.387173e-01 2.350777e-01 2.398994e-01 2.366424e-01 2.408899e-01 2.376130e-01 2.417612e-01 2.379294e-01 2.426933e-01 2.376537e-01 2.438088e-01 2.369211e-01 2.451414e-01 2.359071e-01 2.465916e-01 2.348378e-01 2.479283e-01 2.340111e-01 2.487400e-01 2.338295e-01 2.485550e-01 2.347527e-01 2.469533e-01 2.371605e-01 2.436169e-01 2.412963e-01 2.383674e-01 2.471823e-01 2.311317e-01 2.544976e-01 2.218075e-01 2.625044e-01 2.096910e-01 2.704029e-01 1.914154e-01 2.768915e-01 1.292733e-01 4.901154e-01 5.171678e-01 -5.350496e-02 2.588017e-02 2.138639e-02 9.618529e-03 7.093468e-03 
