# vtk DataFile Version 2.0
Comment goes here
ASCII

DATASET STRUCTURED_POINTS
FIELD FieldData 1
TIME 1 1 double
0.56000000
DIMENSIONS    128   16   1

ORIGIN    0.000   0.000   0.000
SPACING   0.0078125 0.015625   1.000

POINT_DATA   2048
SCALARS Omega double
LOOKUP_TABLE default

1.589559e-05 8.086679e-06 2.874285e-06 -9.559413e-06 -2.945408e-05 -2.060128e-05 -5.228716e-06 5.980973e-05 1.878472e-06 3.069525e-05 -3.983490e-06 -2.720047e-05 -1.137979e-04 1.538996e-04 -1.320077e-05 -1.942156e-04 2.054101e-04 -3.541282e-04 1.557516e-04 -8.881446e-05 -4.635618e-04 3.603103e-04 1.944191e-04 -4.866466e-05 -5.427153e-05 -1.006741e-04 -8.139469e-05 -1.468479e-04 -1.326946e-04 -2.133840e-04 -2.059797e-04 -3.080157e-04 -3.120826e-04 -4.388293e-04 -4.559567e-04 -6.100275e-04 -6.402218e-04 -8.219263e-04 -8.617366e-04 -1.063417e-03 -1.105110e-03 -1.309172e-03 -1.345498e-03 -1.534845e-03 -1.574039e-03 -1.771302e-03 -1.891721e-03 -2.263943e-03 -2.777533e-03 -3.932156e-03 -5.892651e-03 -9.451065e-03 -1.453976e-02 -2.215481e-02 -4.032278e-02 -9.211942e-02 -1.690861e-01 -1.965178e-01 -1.521882e-01 -7.421751e-02 9.586051e-03 1.935227e-02 -4.622748e-02 -1.105410e-01 -1.358063e-01 -1.464052e-01 -1.488782e-01 -1.228302e-01 1.603175e-02 2.577281e-01 3.394436e-01 2.914970e-01 2.283454e-01 1.431255e-01 7.929740e-02 4.498074e-02 3.002794e-02 1.881506e-02 1.116833e-02 5.015937e-03 1.535385e-03 -7.627088e-04 -1.678957e-03 -2.004941e-03 -1.927740e-03 -1.578208e-03 -1.358746e-03 -9.165635e-04 -8.290847e-04 -4.497012e-04 -5.019500e-04 -1.882925e-04 -3.228388e-04 -5.356450e-05 -2.217441e-04 1.307956e-05 -1.600503e-04 4.200592e-05 -1.208905e-04 4.795946e-05 -9.860310e-05 3.957729e-05 -8.884150e-05 2.481525e-05 -8.544295e-05 1.023578e-05 -8.112374e-05 1.127278e-06 -7.066693e-05 -1.242559e-06 -5.227915e-05 2.198181e-06 -2.601004e-05 9.058623e-06 4.622877e-06 1.450405e-05 3.243712e-05 9.379216e-06 4.026425e-05 -3.523649e-05 -2.837289e-05 -2.221675e-04 6.888065e-07 1.363969e-04 8.329129e-05 4.634196e-05 4.141262e-05 2.906899e-05 
-6.757150e-03 -7.128922e-03 -1.712691e-02 -2.196941e-02 1.655324e-01 4.618060e-01 -8.150271e-01 -5.630965e-01 -1.734729e-01 -2.994909e-01 -2.364070e-01 -3.951248e-01 3.696961e-01 1.697134e+00 2.212511e+00 1.736112e+00 2.147668e+00 1.953666e+00 1.965134e+00 2.268529e+00 1.703395e+00 1.827070e-01 -3.237000e-01 -2.647795e-01 -2.262153e-01 -2.255026e-01 -2.316923e-01 -2.305092e-01 -2.400892e-01 -2.316442e-01 -2.455780e-01 -2.316537e-01 -2.492055e-01 -2.314630e-01 -2.513442e-01 -2.314777e-01 -2.523209e-01 -2.318049e-01 -2.523330e-01 -2.322998e-01 -2.515254e-01 -2.327757e-01 -2.497420e-01 -2.330883e-01 -2.466681e-01 -2.329650e-01 -2.416558e-01 -2.315714e-01 -2.340331e-01 -2.277494e-01 -2.237195e-01 -2.204971e-01 -2.115494e-01 -2.247023e-01 -3.180182e-01 -5.876750e-01 -4.444323e-01 -4.242866e-01 -5.059406e-01 2.570024e-02 -6.382297e-01 -1.190870e+00 -6.391191e-01 -5.044182e-01 -7.586118e-01 -7.869455e-01 -1.016282e+00 -1.303008e+00 -3.191744e-01 5.086366e-01 6.448557e-01 1.115158e-01 -4.617104e-01 -1.502525e-01 -6.839357e-02 -2.175432e-01 -2.329030e-01 -2.581504e-01 -2.440791e-01 -2.594626e-01 -2.482879e-01 -2.573510e-01 -2.491876e-01 -2.535643e-01 -2.486754e-01 -2.498848e-01 -2.480970e-01 -2.470296e-01 -2.479984e-01 -2.448547e-01 -2.482926e-01 -2.430681e-01 -2.489199e-01 -2.414703e-01 -2.497969e-01 -2.399027e-01 -2.508079e-01 -2.383679e-01 -2.518800e-01 -2.369694e-01 -2.527326e-01 -2.359526e-01 -2.531259e-01 -2.357088e-01 -2.525997e-01 -2.365487e-01 -2.507854e-01 -2.389402e-01 -2.473737e-01 -2.430825e-01 -2.420759e-01 -2.490967e-01 -2.348575e-01 -2.566756e-01 -2.254683e-01 -2.650549e-01 -2.132601e-01 -2.733761e-01 -1.946983e-01 -2.800331e-01 -1.322574e-01 -4.942343e-01 -5.212151e-01 5.176250e-02 -2.690217e-02 -2.262722e-02 -1.068219e-02 -8.070130e-03 
-5.719279e-04 -9.570697e-03 -8.968968e-02 -2.026827e-01 9.983504e-01 2.312400e+00 -2.196198e+00 -1.270700e+00 -3.386649e-01 -5.897165e-01 -4.194065e-01 -5.293884e-01 1.083674e+00 -2.843218e-01 -4.710776e-01 -7.154302e-01 -3.476718e-01 -7.655162e-01 -3.651737e-01 -8.209839e-01 7.445017e-02 6.865262e-01 -3.902369e-01 -5.643655e-01 -4.426369e-01 -5.014961e-01 -4.298773e-01 -4.875636e-01 -4.395207e-01 -4.769176e-01 -4.484248e-01 -4.637835e-01 -4.562260e-01 -4.517160e-01 -4.635121e-01 -4.411336e-01 -4.724348e-01 -4.363619e-01 -4.840264e-01 -4.331842e-01 -4.917210e-01 -4.270337e-01 -4.916486e-01 -4.156957e-01 -4.820898e-01 -4.050025e-01 -4.715839e-01 -4.022663e-01 -4.592205e-01 -3.993885e-01 -4.365754e-01 -3.827473e-01 -3.889446e-01 -3.491947e-01 -4.537347e-01 -6.841017e-01 -1.777238e-02 3.232904e-01 -2.339596e-01 6.660692e-02 -7.272157e-01 -1.208788e+00 -4.677301e-01 -5.823469e-02 5.033802e-02 3.631874e-02 1.402998e-01 -1.878622e-01 -8.388750e-02 -1.040014e+00 -1.105388e+00 -1.162936e+00 -1.701625e+00 -7.674067e-01 -2.862842e-01 -4.419121e-01 -4.478061e-01 -4.685677e-01 -4.524605e-01 -4.591546e-01 -4.550941e-01 -4.599393e-01 -4.559609e-01 -4.632257e-01 -4.516967e-01 -4.628032e-01 -4.416469e-01 -4.583392e-01 -4.339738e-01 -4.543697e-01 -4.332355e-01 -4.514320e-01 -4.422647e-01 -4.501835e-01 -4.559813e-01 -4.405099e-01 -4.642781e-01 -4.225115e-01 -4.721464e-01 -4.055935e-01 -4.826952e-01 -3.957378e-01 -4.966425e-01 -3.943639e-01 -5.038804e-01 -3.932502e-01 -4.961043e-01 -3.959743e-01 -4.779945e-01 -4.108318e-01 -4.550730e-01 -4.430015e-01 -4.273435e-01 -4.847103e-01 -3.855253e-01 -5.292906e-01 -3.308269e-01 -5.809548e-01 -2.513619e-01 -6.493633e-01 -5.977919e-02 -1.476161e+00 -3.936508e-01 1.189969e+00 -5.568916e-01 -2.141240e-01 -2.041696e-02 1.370243e-03 
1.572269e-02 -1.040398e-02 -2.039057e-01 -5.987308e-01 1.659547e+00 4.141175e+00 8.294646e-02 6.550995e-01 6.668143e-01 7.267689e-01 5.915231e-01 4.898235e-01 -5.813834e-01 -2.373074e-01 -4.030609e-02 -1.500953e-01 -1.714604e-01 -1.768808e-01 -1.177526e-01 -1.055542e-01 -1.850631e-01 -5.226565e-01 5.739264e-01 4.947311e-01 7.535641e-01 5.824305e-01 8.129379e-01 6.368607e-01 8.339207e-01 6.694734e-01 8.421780e-01 7.034401e-01 8.419487e-01 7.337619e-01 8.334811e-01 7.615292e-01 8.122986e-01 7.744292e-01 7.764370e-01 7.836167e-01 7.459924e-01 8.011455e-01 7.309764e-01 8.325460e-01 7.339243e-01 8.585038e-01 7.244187e-01 8.503493e-01 6.981121e-01 8.184062e-01 6.688509e-01 7.769789e-01 6.604963e-01 7.768683e-01 7.806789e-01 1.033514e+00 8.316480e-01 7.516762e-01 9.386941e-01 5.313310e-01 1.295568e+00 1.647629e+00 1.192599e+00 7.741232e-01 9.062635e-01 7.661515e-01 9.366474e-01 1.058223e+00 7.708700e-01 9.553911e-01 9.857503e-01 9.395171e-01 1.371526e+00 8.564237e-01 7.502942e-01 8.707398e-01 8.284977e-01 9.120584e-01 8.238337e-01 9.018888e-01 8.140615e-01 8.655821e-01 8.112280e-01 8.271388e-01 8.245986e-01 8.057478e-01 8.564793e-01 8.018966e-01 8.833518e-01 7.999593e-01 8.907356e-01 7.967596e-01 8.703133e-01 7.896742e-01 8.368109e-01 8.077348e-01 8.192650e-01 8.508305e-01 8.025890e-01 8.920581e-01 7.757238e-01 9.155297e-01 7.350892e-01 9.198281e-01 7.074223e-01 9.312275e-01 7.149585e-01 9.424832e-01 7.422601e-01 9.304986e-01 7.716838e-01 8.810916e-01 8.041037e-01 8.157323e-01 8.668927e-01 7.504948e-01 9.542672e-01 6.677873e-01 1.073406e+00 5.365832e-01 1.298462e+00 -9.468138e-02 3.405826e+00 3.347197e+00 -1.594489e+00 -5.607991e-01 -2.344715e-02 2.900104e-02 
1.458737e-02 1.733471e-02 -7.510622e-02 -4.397427e-01 3.862204e-01 1.532261e+00 2.982847e+00 2.362686e+00 1.129075e+00 1.520508e+00 1.054656e+00 1.307603e+00 1.293180e+00 1.384686e+00 1.091988e+00 1.326443e+00 1.153981e+00 1.311195e+00 1.182504e+00 1.239418e+00 1.268866e+00 1.335421e+00 1.276130e+00 1.186479e+00 1.397928e+00 1.293228e+00 1.469297e+00 1.334550e+00 1.500346e+00 1.354674e+00 1.517919e+00 1.374549e+00 1.525472e+00 1.392564e+00 1.523752e+00 1.410136e+00 1.510265e+00 1.418692e+00 1.483975e+00 1.425235e+00 1.459010e+00 1.437446e+00 1.441618e+00 1.458809e+00 1.432488e+00 1.475275e+00 1.408543e+00 1.464346e+00 1.364359e+00 1.427796e+00 1.305330e+00 1.364681e+00 1.237136e+00 1.274418e+00 1.123457e+00 1.031813e+00 6.581345e-01 2.871420e-01 7.343120e-01 8.911870e-01 6.323627e-01 3.890097e-01 7.022915e-01 9.558564e-01 9.343808e-01 1.060231e+00 1.028055e+00 9.067072e-01 1.514311e+00 1.516774e+00 1.822983e+00 1.800785e+00 1.884535e+00 1.827102e+00 1.546868e+00 1.571023e+00 1.439696e+00 1.575031e+00 1.449919e+00 1.562572e+00 1.453687e+00 1.529404e+00 1.461520e+00 1.495426e+00 1.479278e+00 1.473985e+00 1.508320e+00 1.465558e+00 1.532859e+00 1.458965e+00 1.542784e+00 1.451880e+00 1.532699e+00 1.442617e+00 1.512930e+00 1.451148e+00 1.503385e+00 1.477592e+00 1.493635e+00 1.503725e+00 1.475317e+00 1.519256e+00 1.445478e+00 1.524324e+00 1.421437e+00 1.537811e+00 1.417792e+00 1.555972e+00 1.423391e+00 1.563193e+00 1.425675e+00 1.549952e+00 1.426011e+00 1.530538e+00 1.444230e+00 1.515753e+00 1.478544e+00 1.497025e+00 1.534376e+00 1.478091e+00 1.625688e+00 1.966361e+00 4.543418e+00 1.937143e+00 -1.543488e+00 -5.317957e-01 -4.173182e-02 1.603842e-02 
-3.376347e-03 9.658707e-03 1.865959e-02 -8.515559e-02 -4.776015e-01 -7.812031e-01 1.567342e+00 9.731770e-01 2.508906e-01 5.033608e-01 2.792489e-01 5.112648e-01 1.465262e+00 1.093418e+00 7.781058e-01 7.873329e-01 7.831555e-01 7.838693e-01 7.875946e-01 7.797748e-01 1.184613e+00 1.333727e+00 3.680188e-01 3.391323e-01 4.139078e-01 4.237492e-01 4.499271e-01 4.312904e-01 4.597730e-01 4.302658e-01 4.649122e-01 4.281322e-01 4.674453e-01 4.266490e-01 4.680845e-01 4.262356e-01 4.669399e-01 4.262624e-01 4.639391e-01 4.264236e-01 4.596099e-01 4.264405e-01 4.535710e-01 4.259390e-01 4.448886e-01 4.235020e-01 4.310130e-01 4.163859e-01 4.103377e-01 4.022534e-01 3.825032e-01 3.800984e-01 3.535316e-01 3.346379e-01 1.486612e-01 -2.151497e-01 9.229098e-01 1.594776e+00 4.447006e-01 7.419271e-01 1.078316e-01 -1.964395e-01 3.704287e-01 5.206793e-01 7.068773e-01 4.315199e-01 8.430855e-01 3.741164e-01 5.647563e-01 -3.690518e-01 -4.842261e-01 -7.448920e-01 -1.724800e+00 -1.832488e-01 5.483043e-01 5.086091e-01 3.887453e-01 4.255197e-01 3.813441e-01 4.255610e-01 3.972710e-01 4.295246e-01 4.138811e-01 4.326069e-01 4.280692e-01 4.342049e-01 4.393507e-01 4.346709e-01 4.477233e-01 4.339512e-01 4.532760e-01 4.324626e-01 4.564415e-01 4.306206e-01 4.581112e-01 4.295460e-01 4.593270e-01 4.295145e-01 4.597837e-01 4.300080e-01 4.588389e-01 4.309708e-01 4.561790e-01 4.330085e-01 4.520263e-01 4.373241e-01 4.466692e-01 4.443711e-01 4.394084e-01 4.536012e-01 4.295832e-01 4.647702e-01 4.179090e-01 4.785381e-01 4.065293e-01 4.963998e-01 3.988543e-01 5.234580e-01 4.017310e-01 5.792436e-01 3.869225e-01 1.044811e+00 1.175307e+00 -3.301680e-01 -4.051473e-01 -8.580927e-02 -1.227878e-03 -2.682645e-03 
-1.038632e-02 -3.811598e-03 7.113907e-03 1.075965e-02 -4.621925e-02 -1.722737e-01 -1.466202e-02 -2.036994e-02 -6.210125e-02 -1.363015e-02 -6.200885e-02 -7.042287e-02 1.288707e+00 1.203450e+00 5.478059e-01 5.472654e-01 5.470928e-01 5.471281e-01 5.472714e-01 5.482928e-01 1.276319e+00 1.287148e+00 -2.591050e-01 -2.120776e-01 -9.582952e-02 -6.020198e-02 -4.643664e-02 -4.485854e-02 -3.946030e-02 -4.195756e-02 -3.845647e-02 -4.230499e-02 -3.918323e-02 -4.320988e-02 -4.017351e-02 -4.399586e-02 -4.117619e-02 -4.468510e-02 -4.230881e-02 -4.552212e-02 -4.381816e-02 -4.685268e-02 -4.607282e-02 -4.909525e-02 -4.950479e-02 -5.260724e-02 -5.429390e-02 -5.710531e-02 -5.930724e-02 -6.009939e-02 -5.959672e-02 -5.199800e-02 -3.611626e-02 -1.081975e-02 -3.643077e-02 -1.197801e-01 9.244215e-01 1.963554e+00 8.151609e-01 5.341451e-01 6.460844e-01 3.057833e-01 5.526217e-01 2.813589e-01 3.601705e-01 1.616530e-02 2.597696e-01 1.075181e-01 -7.277122e-02 2.155223e-01 2.464753e-01 3.642764e-01 -3.969581e-01 -4.977719e-01 -1.244387e-01 9.420796e-03 -1.161533e-02 -3.547059e-02 -5.418507e-02 -5.912743e-02 -6.348587e-02 -6.168612e-02 -6.088200e-02 -5.775069e-02 -5.546253e-02 -5.301305e-02 -5.061027e-02 -4.931117e-02 -4.710617e-02 -4.686011e-02 -4.479175e-02 -4.537914e-02 -4.329961e-02 -4.454888e-02 -4.232274e-02 -4.413357e-02 -4.165752e-02 -4.396621e-02 -4.117839e-02 -4.392398e-02 -4.083476e-02 -4.390461e-02 -4.061108e-02 -4.381210e-02 -4.053508e-02 -4.357159e-02 -4.064186e-02 -4.310043e-02 -4.095150e-02 -4.231356e-02 -4.141284e-02 -4.101891e-02 -4.172708e-02 -3.871923e-02 -4.105196e-02 -3.418600e-02 -3.752205e-02 -2.497156e-02 -2.830073e-02 -9.092610e-03 -2.415669e-02 8.436017e-04 -3.545346e-02 -9.713161e-02 -4.365444e-02 -1.177164e-02 -1.112504e-02 -1.269286e-02 
-7.610879e-03 -6.020302e-03 -3.479796e-03 -8.338895e-05 -4.727696e-04 -1.191125e-02 -1.232353e-02 -6.493559e-03 3.549652e-03 1.916326e-02 3.914402e-03 -2.595392e-02 6.359765e-01 5.834389e-01 2.747494e-01 2.743289e-01 2.743282e-01 2.743284e-01 2.743297e-01 2.750297e-01 6.454860e-01 6.467755e-01 -1.519105e-01 -1.168991e-01 -5.176346e-02 -2.914402e-02 -2.063838e-02 -1.642154e-02 -1.353377e-02 -1.231080e-02 -1.145262e-02 -1.141235e-02 -1.124121e-02 -1.152226e-02 -1.155349e-02 -1.189455e-02 -1.201186e-02 -1.237272e-02 -1.259101e-02 -1.301605e-02 -1.340245e-02 -1.397415e-02 -1.461178e-02 -1.539950e-02 -1.629166e-02 -1.716465e-02 -1.790699e-02 -1.800347e-02 -1.700710e-02 -1.368744e-02 -6.756112e-03 6.656523e-03 2.905221e-02 5.398454e-02 3.983675e-02 2.793405e-02 6.303960e-01 1.048063e+00 4.146653e-01 2.035346e-01 7.269784e-02 -3.598632e-01 1.037327e-01 5.921572e-01 5.764026e-01 6.094628e-01 6.225187e-01 6.392505e-01 5.127910e-01 8.812441e-02 9.317847e-02 3.337425e-01 3.813113e-01 3.609757e-01 2.137480e-01 1.330533e-01 7.336298e-02 3.386971e-02 9.323919e-03 -5.206799e-03 -1.338297e-02 -1.743645e-02 -1.901632e-02 -1.914187e-02 -1.854274e-02 -1.761531e-02 -1.663218e-02 -1.570036e-02 -1.488945e-02 -1.421020e-02 -1.364622e-02 -1.321036e-02 -1.283300e-02 -1.257866e-02 -1.231461e-02 -1.218981e-02 -1.198201e-02 -1.195315e-02 -1.176231e-02 -1.180868e-02 -1.160964e-02 -1.171676e-02 -1.149580e-02 -1.165037e-02 -1.140373e-02 -1.159011e-02 -1.132232e-02 -1.151778e-02 -1.123487e-02 -1.139728e-02 -1.108643e-02 -1.112434e-02 -1.070824e-02 -1.042501e-02 -9.696392e-03 -8.747933e-03 -7.387791e-03 -5.447967e-03 -3.403313e-03 -1.002761e-03 -6.930857e-04 -3.508997e-03 -8.943310e-03 -7.780553e-03 -5.156932e-03 -6.359014e-03 -8.198224e-03 -8.415218e-03 
-1.038635e-05 -6.514518e-06 -4.492932e-06 -1.637115e-06 1.172055e-07 3.231678e-06 2.402745e-06 -1.061863e-06 -3.714810e-06 -4.171508e-06 -2.643449e-06 -6.121052e-05 -2.690447e-04 5.965147e-04 8.478632e-07 1.008839e-09 1.708769e-09 1.761609e-11 1.063236e-09 -3.926771e-07 -8.407614e-05 -2.172161e-03 1.408475e-03 8.574807e-04 3.264013e-04 1.379036e-04 4.001372e-05 -1.914890e-05 -7.109846e-05 -1.107853e-04 -1.525365e-04 -1.967349e-04 -2.485187e-04 -3.125294e-04 -3.878124e-04 -4.850714e-04 -5.995688e-04 -7.493406e-04 -9.276694e-04 -1.160227e-03 -1.439699e-03 -1.795586e-03 -2.215297e-03 -2.711341e-03 -3.234393e-03 -3.710850e-03 -3.956706e-03 -3.656601e-03 -2.304134e-03 8.954913e-04 7.102114e-03 1.818014e-02 3.573686e-02 5.437842e-02 5.301550e-02 1.202704e-01 6.905365e-01 7.524703e-01 1.872098e-01 1.644606e-01 9.262941e-02 5.980407e-02 1.730326e-01 2.699514e-01 2.154149e-01 1.146315e-01 8.595796e-02 6.741691e-02 2.137070e-01 2.725258e-01 2.028812e-01 -1.739387e-01 -1.945809e-01 1.584562e-01 2.007847e-01 1.334360e-01 7.992048e-02 4.587867e-02 2.432988e-02 1.082758e-02 2.773033e-03 -1.721857e-03 -3.896263e-03 -4.699497e-03 -4.698519e-03 -4.305594e-03 -3.744501e-03 -3.154456e-03 -2.605683e-03 -2.122186e-03 -1.718068e-03 -1.381412e-03 -1.111032e-03 -8.901074e-04 -7.151601e-04 -5.730210e-04 -4.608244e-04 -3.697483e-04 -2.978684e-04 -2.394319e-04 -1.933365e-04 -1.555628e-04 -1.257557e-04 -1.008065e-04 -8.111146e-05 -6.411323e-05 -5.083342e-05 -3.912245e-05 -3.024282e-05 -2.248621e-05 -1.685601e-05 -1.232634e-05 -9.192612e-06 -7.560787e-06 -6.573473e-06 -8.055696e-06 -9.091057e-06 -1.365675e-05 -1.533078e-05 -2.044107e-05 -1.947305e-05 -1.993035e-05 -1.689115e-05 -1.525052e-05 -1.988041e-05 -1.678456e-05 -1.671276e-05 -1.249683e-05 
7.586498e-03 6.003087e-03 3.467102e-03 7.665577e-05 4.777884e-04 1.192999e-02 1.233790e-02 6.487684e-03 -3.550504e-03 -1.917062e-02 -3.925633e-03 2.574428e-02 -6.364655e-01 -5.823604e-01 -2.747479e-01 -2.743289e-01 -2.743282e-01 -2.743284e-01 -2.743297e-01 -2.750310e-01 -6.459483e-01 -6.521409e-01 1.552377e-01 1.187514e-01 5.239571e-02 2.938733e-02 2.067712e-02 1.635330e-02 1.334661e-02 1.204739e-02 1.108204e-02 1.094687e-02 1.063967e-02 1.077329e-02 1.060935e-02 1.071705e-02 1.054095e-02 1.053251e-02 1.029555e-02 1.013504e-02 9.804149e-03 9.457756e-03 8.990351e-03 8.426160e-03 7.802899e-03 7.070006e-03 6.443114e-03 5.900439e-03 5.899036e-03 6.561219e-03 8.712786e-03 1.290759e-02 1.892339e-02 1.532689e-02 -2.260950e-02 9.067864e-02 9.413784e-01 9.433869e-01 3.240549e-01 2.980547e-01 -1.709833e-01 -2.987077e-01 5.159849e-02 3.255501e-01 1.882964e-01 2.498054e-01 1.661034e-01 9.434684e-02 -1.056581e-02 -4.390238e-01 -3.415922e-01 -7.397722e-01 -4.843326e-01 2.394096e-01 1.950875e-01 1.062420e-01 6.141729e-02 3.737141e-02 2.268045e-02 1.369253e-02 8.575068e-03 5.994900e-03 5.026843e-03 4.992371e-03 5.488754e-03 6.198640e-03 6.995575e-03 7.733016e-03 8.420802e-03 8.982901e-03 9.478235e-03 9.863434e-03 1.018898e-02 1.044949e-02 1.064375e-02 1.083250e-02 1.092453e-02 1.108217e-02 1.109002e-02 1.124428e-02 1.117959e-02 1.134708e-02 1.121984e-02 1.140732e-02 1.122868e-02 1.143304e-02 1.121573e-02 1.142125e-02 1.117501e-02 1.134329e-02 1.105693e-02 1.109862e-02 1.069557e-02 1.041489e-02 9.688063e-03 8.739957e-03 7.370233e-03 5.427154e-03 3.365128e-03 9.625443e-04 6.428358e-04 3.487836e-03 8.903690e-03 7.732281e-03 5.104623e-03 6.316348e-03 8.159764e-03 8.385704e-03 
1.034553e-02 3.776054e-03 -7.148319e-03 -1.078058e-02 4.626255e-02 1.722617e-01 1.477522e-02 2.034176e-02 6.206988e-02 1.357050e-02 6.198651e-02 7.017583e-02 -1.289021e+00 -1.202148e+00 -5.478157e-01 -5.472742e-01 -5.471019e-01 -5.471345e-01 -5.472746e-01 -5.482948e-01 -1.276098e+00 -1.289576e+00 2.614423e-01 2.134289e-01 9.610627e-02 6.034870e-02 4.626208e-02 4.474492e-02 3.906911e-02 4.162128e-02 3.784514e-02 4.169843e-02 3.827404e-02 4.221596e-02 3.881138e-02 4.240838e-02 3.910042e-02 4.215279e-02 3.907246e-02 4.144503e-02 3.866641e-02 4.023677e-02 3.775345e-02 3.839309e-02 3.612944e-02 3.571765e-02 3.356943e-02 3.205644e-02 2.994877e-02 2.738120e-02 2.526570e-02 2.198711e-02 1.780104e-02 -9.466634e-03 -1.113914e-01 -1.273975e-01 6.729525e-01 6.782438e-01 1.654151e-01 2.660375e-01 -1.160014e-01 -1.747989e-01 9.638155e-02 3.775957e-01 1.605031e-01 2.014078e-01 1.503154e-01 4.826227e-02 9.946187e-02 -1.743669e-01 -1.959789e-01 -1.038579e+00 -7.803373e-01 2.100078e-01 1.719509e-01 8.080928e-02 4.615906e-02 3.306205e-02 2.672678e-02 2.475681e-02 2.399256e-02 2.570588e-02 2.678638e-02 2.948746e-02 3.080149e-02 3.338343e-02 3.433999e-02 3.648810e-02 3.694435e-02 3.869929e-02 3.866859e-02 4.020626e-02 3.972016e-02 4.123623e-02 4.029839e-02 4.196173e-02 4.055332e-02 4.249147e-02 4.060317e-02 4.288073e-02 4.054938e-02 4.313551e-02 4.048722e-02 4.322629e-02 4.050321e-02 4.310989e-02 4.066892e-02 4.274058e-02 4.102240e-02 4.204297e-02 4.150921e-02 4.083726e-02 4.183371e-02 3.862561e-02 4.113706e-02 3.416838e-02 3.755229e-02 2.500271e-02 2.822412e-02 9.117335e-03 2.398794e-02 -5.004347e-04 3.532773e-02 9.690772e-02 4.351537e-02 1.165778e-02 1.105065e-02 1.264379e-02 
3.315594e-03 -9.718624e-03 -1.873783e-02 8.514338e-02 4.779359e-01 7.788684e-01 -1.567158e+00 -9.727568e-01 -2.523296e-01 -5.041376e-01 -2.805216e-01 -5.126133e-01 -1.466517e+00 -1.092374e+00 -7.783764e-01 -7.875200e-01 -7.833507e-01 -7.839927e-01 -7.876413e-01 -7.797906e-01 -1.183329e+00 -1.333604e+00 -3.656555e-01 -3.370482e-01 -4.144131e-01 -4.230996e-01 -4.504869e-01 -4.312429e-01 -4.607555e-01 -4.311607e-01 -4.663368e-01 -4.299741e-01 -4.697297e-01 -4.296581e-01 -4.711934e-01 -4.299176e-01 -4.707192e-01 -4.310689e-01 -4.692640e-01 -4.335462e-01 -4.678579e-01 -4.379676e-01 -4.674775e-01 -4.444798e-01 -4.684247e-01 -4.531979e-01 -4.717448e-01 -4.648208e-01 -4.788124e-01 -4.804074e-01 -4.926045e-01 -5.031419e-01 -5.186278e-01 -5.478455e-01 -6.197834e-01 -7.326356e-01 -6.856187e-01 -6.872434e-01 -6.503248e-01 -5.527838e-01 -6.593588e-01 -7.333339e-01 -5.963519e-01 -5.691862e-01 -5.844741e-01 -5.695072e-01 -6.013494e-01 -6.296306e-01 -4.701242e-01 -3.503721e-01 -2.609240e-01 -3.663237e-01 -3.889593e-01 -3.462967e-01 -4.199430e-01 -4.692916e-01 -4.761040e-01 -4.789427e-01 -4.789650e-01 -4.710945e-01 -4.737816e-01 -4.607448e-01 -4.672457e-01 -4.519214e-01 -4.621470e-01 -4.454904e-01 -4.587515e-01 -4.407624e-01 -4.566196e-01 -4.372517e-01 -4.553413e-01 -4.346189e-01 -4.548924e-01 -4.330865e-01 -4.550671e-01 -4.322377e-01 -4.553364e-01 -4.321079e-01 -4.556531e-01 -4.325955e-01 -4.550643e-01 -4.335141e-01 -4.531545e-01 -4.359611e-01 -4.499278e-01 -4.407077e-01 -4.449842e-01 -4.477913e-01 -4.375959e-01 -4.566772e-01 -4.275580e-01 -4.675910e-01 -4.161237e-01 -4.809466e-01 -4.049835e-01 -4.978328e-01 -3.976712e-01 -5.236709e-01 -4.010217e-01 -5.781682e-01 -3.870982e-01 -1.041383e+00 -1.177657e+00 3.294903e-01 4.060270e-01 8.551432e-02 9.532494e-04 2.567755e-03 
-1.470213e-02 -1.742433e-02 7.496652e-02 4.400930e-01 -3.824935e-01 -1.538565e+00 -2.983903e+00 -2.361531e+00 -1.131018e+00 -1.520774e+00 -1.057196e+00 -1.308561e+00 -1.293894e+00 -1.383132e+00 -1.092684e+00 -1.325985e+00 -1.154033e+00 -1.310055e+00 -1.182176e+00 -1.237606e+00 -1.266897e+00 -1.327229e+00 -1.275928e+00 -1.195533e+00 -1.407063e+00 -1.302972e+00 -1.468050e+00 -1.338159e+00 -1.493386e+00 -1.356701e+00 -1.506601e+00 -1.378992e+00 -1.522247e+00 -1.408774e+00 -1.528577e+00 -1.426398e+00 -1.517224e+00 -1.435150e+00 -1.500282e+00 -1.443646e+00 -1.489027e+00 -1.461555e+00 -1.490632e+00 -1.484130e+00 -1.496264e+00 -1.505877e+00 -1.508361e+00 -1.527842e+00 -1.523496e+00 -1.548682e+00 -1.551249e+00 -1.584340e+00 -1.599355e+00 -1.626693e+00 -1.642554e+00 -1.653866e+00 -1.775706e+00 -1.805566e+00 -1.727126e+00 -1.782579e+00 -1.642870e+00 -1.648953e+00 -1.667092e+00 -1.736159e+00 -1.662437e+00 -1.683334e+00 -1.608836e+00 -1.557854e+00 -1.547042e+00 -1.485685e+00 -1.478295e+00 -1.367190e+00 -1.366196e+00 -1.515184e+00 -1.463969e+00 -1.504498e+00 -1.473345e+00 -1.492669e+00 -1.481289e+00 -1.473756e+00 -1.485799e+00 -1.452279e+00 -1.491743e+00 -1.439827e+00 -1.507284e+00 -1.437195e+00 -1.521098e+00 -1.434683e+00 -1.526661e+00 -1.431505e+00 -1.521090e+00 -1.429610e+00 -1.512824e+00 -1.440893e+00 -1.505632e+00 -1.457819e+00 -1.492836e+00 -1.480476e+00 -1.481263e+00 -1.504610e+00 -1.460322e+00 -1.518131e+00 -1.434701e+00 -1.532042e+00 -1.418495e+00 -1.550414e+00 -1.414440e+00 -1.567460e+00 -1.413540e+00 -1.567756e+00 -1.409976e+00 -1.556953e+00 -1.418557e+00 -1.544005e+00 -1.440882e+00 -1.527624e+00 -1.479049e+00 -1.505072e+00 -1.532715e+00 -1.471630e+00 -1.624280e+00 -1.954165e+00 -4.580596e+00 -1.926796e+00 1.565180e+00 5.344089e-01 4.107574e-02 -1.641458e-02 
-1.585097e-02 1.030774e-02 2.037116e-01 5.991517e-01 -1.654247e+00 -4.144493e+00 -8.469137e-02 -6.545825e-01 -6.659231e-01 -7.251840e-01 -5.919882e-01 -4.884037e-01 5.802120e-01 2.380315e-01 3.770556e-02 1.524202e-01 1.699890e-01 1.794313e-01 1.192507e-01 1.100493e-01 1.941529e-01 5.257973e-01 -5.760626e-01 -5.124907e-01 -7.661217e-01 -5.993505e-01 -8.094720e-01 -6.427262e-01 -8.203088e-01 -6.704658e-01 -8.204712e-01 -7.058963e-01 -8.306271e-01 -7.518866e-01 -8.327808e-01 -7.785085e-01 -8.137410e-01 -7.896141e-01 -7.896252e-01 -7.972230e-01 -7.752463e-01 -8.147402e-01 -7.792574e-01 -8.344260e-01 -7.871602e-01 -8.476044e-01 -8.001486e-01 -8.542862e-01 -8.093296e-01 -8.500283e-01 -8.226181e-01 -8.530847e-01 -8.432317e-01 -8.506850e-01 -8.523953e-01 -8.427719e-01 -8.550652e-01 -8.623809e-01 -8.632536e-01 -8.732842e-01 -8.664415e-01 -8.549711e-01 -8.487231e-01 -8.312476e-01 -8.333804e-01 -8.184127e-01 -8.287822e-01 -8.185289e-01 -8.440192e-01 -8.557046e-01 -8.552820e-01 -8.625388e-01 -8.134830e-01 -8.525546e-01 -8.003599e-01 -8.494846e-01 -8.069324e-01 -8.355568e-01 -8.104714e-01 -8.135878e-01 -8.149881e-01 -7.881422e-01 -8.243390e-01 -7.744370e-01 -8.482168e-01 -7.736562e-01 -8.688543e-01 -7.724627e-01 -8.765712e-01 -7.702120e-01 -8.669620e-01 -7.700412e-01 -8.524001e-01 -7.893120e-01 -8.386638e-01 -8.168625e-01 -8.162886e-01 -8.524445e-01 -7.958514e-01 -8.894198e-01 -7.631645e-01 -9.091348e-01 -7.266462e-01 -9.256744e-01 -7.083945e-01 -9.431428e-01 -7.138969e-01 -9.522080e-01 -7.311799e-01 -9.299969e-01 -7.519382e-01 -8.848400e-01 -7.966877e-01 -8.305196e-01 -8.654536e-01 -7.652765e-01 -9.582360e-01 -6.798559e-01 -1.073317e+00 -5.296027e-01 -1.296568e+00 1.076721e-01 -3.458791e+00 -3.329689e+00 1.626111e+00 5.648536e-01 2.265312e-02 -2.944088e-02 
5.300685e-04 9.529940e-03 8.955519e-02 2.026115e-01 -9.966624e-01 -2.310666e+00 2.195764e+00 1.270524e+00 3.408943e-01 5.913329e-01 4.206202e-01 5.296107e-01 -1.084043e+00 2.854857e-01 4.708321e-01 7.162623e-01 3.463624e-01 7.659836e-01 3.646863e-01 8.187300e-01 -7.001299e-02 -6.871365e-01 3.925950e-01 5.570321e-01 4.389451e-01 4.943763e-01 4.322164e-01 4.853246e-01 4.464357e-01 4.776610e-01 4.592012e-01 4.650850e-01 4.643697e-01 4.484448e-01 4.688169e-01 4.390096e-01 4.777726e-01 4.361768e-01 4.865974e-01 4.362331e-01 4.911079e-01 4.349864e-01 4.893098e-01 4.355439e-01 4.870933e-01 4.412678e-01 4.853563e-01 4.529377e-01 4.891577e-01 4.731670e-01 4.985107e-01 4.973577e-01 5.148734e-01 5.267039e-01 5.253491e-01 5.238834e-01 5.866145e-01 6.213720e-01 5.888929e-01 6.406237e-01 5.469891e-01 5.555376e-01 5.606249e-01 6.189039e-01 5.582173e-01 5.829768e-01 5.140627e-01 4.827398e-01 4.656236e-01 4.251609e-01 4.307544e-01 3.421222e-01 3.697240e-01 4.199168e-01 4.187856e-01 4.025284e-01 4.212429e-01 4.119393e-01 4.312228e-01 4.250484e-01 4.379664e-01 4.387251e-01 4.402349e-01 4.475640e-01 4.354435e-01 4.509998e-01 4.305792e-01 4.534239e-01 4.295284e-01 4.551125e-01 4.343885e-01 4.550997e-01 4.412660e-01 4.475994e-01 4.483001e-01 4.366324e-01 4.587306e-01 4.225504e-01 4.686697e-01 4.079638e-01 4.823413e-01 3.999234e-01 4.959687e-01 3.947392e-01 5.010355e-01 3.920984e-01 4.947070e-01 3.958672e-01 4.803306e-01 4.143241e-01 4.604747e-01 4.447299e-01 4.283672e-01 4.819038e-01 3.844837e-01 5.253967e-01 3.279793e-01 5.766329e-01 2.501896e-01 6.504580e-01 5.973020e-02 1.477362e+00 3.742332e-01 -1.180854e+00 5.695386e-01 2.155750e-01 2.005947e-02 -1.525590e-03 
6.781777e-03 7.136998e-03 1.710319e-02 2.186193e-02 -1.656264e-01 -4.607520e-01 8.150766e-01 5.630931e-01 1.742384e-01 2.999802e-01 2.369180e-01 3.950154e-01 -3.694553e-01 -1.695039e+00 -2.210194e+00 -1.739591e+00 -2.142794e+00 -1.956106e+00 -1.962721e+00 -2.264006e+00 -1.714065e+00 -1.842160e-01 3.254457e-01 2.643170e-01 2.263791e-01 2.248073e-01 2.320402e-01 2.301730e-01 2.408126e-01 2.317150e-01 2.466342e-01 2.319778e-01 2.504493e-01 2.318584e-01 2.526572e-01 2.318789e-01 2.536216e-01 2.323622e-01 2.537225e-01 2.334913e-01 2.533518e-01 2.354390e-01 2.529311e-01 2.384143e-01 2.528815e-01 2.425795e-01 2.536846e-01 2.480924e-01 2.558448e-01 2.548074e-01 2.594494e-01 2.617832e-01 2.634050e-01 2.655495e-01 2.575763e-01 2.461934e-01 2.606825e-01 2.811326e-01 2.839220e-01 3.227339e-01 2.985055e-01 3.038197e-01 2.963571e-01 3.116242e-01 2.875622e-01 2.983779e-01 2.794086e-01 2.780614e-01 2.995374e-01 3.177670e-01 3.348842e-01 2.998403e-01 2.899180e-01 2.912756e-01 2.656605e-01 2.532686e-01 2.469730e-01 2.401794e-01 2.403647e-01 2.348099e-01 2.387538e-01 2.342055e-01 2.396536e-01 2.357863e-01 2.412158e-01 2.377784e-01 2.426098e-01 2.393142e-01 2.436468e-01 2.401904e-01 2.445328e-01 2.404485e-01 2.454737e-01 2.401866e-01 2.465944e-01 2.395334e-01 2.479474e-01 2.386178e-01 2.494296e-01 2.376045e-01 2.507897e-01 2.368001e-01 2.516306e-01 2.366699e-01 2.515065e-01 2.376801e-01 2.499767e-01 2.401512e-01 2.466893e-01 2.443180e-01 2.414546e-01 2.502087e-01 2.342086e-01 2.575082e-01 2.248716e-01 2.655022e-01 2.127538e-01 2.733546e-01 1.944118e-01 2.796831e-01 1.320852e-01 4.925724e-01 5.203305e-01 -5.038329e-02 2.782355e-02 2.270274e-02 1.069373e-02 8.105283e-03 
