# vtk DataFile Version 2.0
Comment goes here
ASCII

DATASET STRUCTURED_POINTS
FIELD FieldData 1
TIME 1 1 double
0.48000000
DIMENSIONS    128   16   1

ORIGIN    0.000   0.000   0.000
SPACING   0.0078125 0.015625   1.000

POINT_DATA   2048
SCALARS Omega double
LOOKUP_TABLE default

1.181273e-05 4.938022e-06 -1.910176e-06 -8.173290e-06 2.957858e-06 4.830322e-05 6.903817e-06 -2.583676e-05 2.252390e-05 -6.352476e-06 -3.493634e-06 -4.460229e-05 1.750121e-05 5.560780e-05 1.146463e-04 -1.473278e-04 2.089343e-04 -1.671825e-04 1.600669e-04 7.087843e-05 -5.984613e-04 -1.251724e-04 1.414967e-04 4.134130e-06 -2.364657e-05 -5.005796e-05 -5.770115e-05 -4.055796e-05 -8.657324e-05 -4.455630e-05 -1.254023e-04 -6.509562e-05 -1.737884e-04 -1.005732e-04 -2.266255e-04 -1.468340e-04 -2.729274e-04 -1.927628e-04 -2.878946e-04 -2.113158e-04 -2.237828e-04 -1.413745e-04 -8.661049e-06 1.013604e-04 4.181775e-04 5.567075e-04 9.929644e-04 1.027884e-03 1.240973e-03 6.600443e-04 -2.691995e-04 -2.626967e-03 -6.668044e-03 -1.654638e-02 -4.052095e-02 -7.449426e-02 -6.961292e-02 -7.591981e-02 -7.807074e-02 -1.479775e-02 -1.513055e-02 -3.551823e-02 -2.596497e-02 -4.421295e-02 -8.116720e-02 -8.925821e-02 -9.381503e-02 -5.883264e-02 8.694547e-02 1.919981e-01 2.287953e-01 1.842919e-01 1.085930e-01 1.015259e-01 8.041678e-02 5.183765e-02 3.212829e-02 1.902237e-02 9.917130e-03 3.432859e-03 -1.503104e-04 -2.369431e-03 -2.757204e-03 -3.038416e-03 -2.349045e-03 -2.177974e-03 -1.428411e-03 -1.317747e-03 -7.675233e-04 -7.693639e-04 -4.033980e-04 -4.588041e-04 -2.195080e-04 -2.799437e-04 -1.270728e-04 -1.702075e-04 -8.071876e-05 -9.837786e-05 -5.929891e-05 -5.249138e-05 -5.480021e-05 -2.727960e-05 -6.051083e-05 -1.590449e-05 -6.765068e-05 -1.079043e-05 -6.972381e-05 -6.047885e-06 -6.504010e-05 3.354925e-07 -5.516887e-05 9.430165e-06 -4.036406e-05 2.193912e-05 -2.257345e-05 3.696542e-05 -4.175194e-06 4.899556e-05 2.214649e-07 2.664106e-05 -6.926634e-05 -7.774593e-05 -1.029912e-04 1.038465e-04 1.224706e-04 5.914202e-05 3.288022e-05 2.192710e-05 
-7.811734e-03 -1.077131e-02 -1.387684e-02 2.257624e-02 1.089878e-01 -6.877496e-01 -1.166059e+00 -4.927039e-01 -5.789953e-01 -4.734070e-01 -5.374337e-01 -2.830851e-01 6.181038e-01 2.245207e+00 3.022623e+00 2.753528e+00 2.779637e+00 2.865863e+00 2.695446e+00 2.975425e+00 2.413959e+00 4.210081e-01 -3.149688e-01 -5.107504e-01 -4.691223e-01 -5.068765e-01 -4.724875e-01 -5.120436e-01 -4.825478e-01 -5.139727e-01 -4.898159e-01 -5.129046e-01 -4.955168e-01 -5.102140e-01 -4.999579e-01 -5.066863e-01 -5.032545e-01 -5.030629e-01 -5.051847e-01 -4.995773e-01 -5.058221e-01 -4.961081e-01 -5.052070e-01 -4.920141e-01 -5.031709e-01 -4.866913e-01 -4.992483e-01 -4.791146e-01 -4.920883e-01 -4.681903e-01 -4.801400e-01 -4.535510e-01 -4.673040e-01 -4.673001e-01 -5.261510e-01 -3.151433e-01 8.660723e-01 1.135138e+00 3.590946e-01 3.432848e-01 -9.496581e-01 -1.433152e+00 -2.481077e-01 3.924140e-01 2.051891e-01 3.511335e-01 2.450106e-01 1.032198e-01 3.168903e-01 -1.681671e+00 -1.977551e+00 -1.482122e+00 -1.723473e+00 -8.173138e-01 -4.323533e-01 -4.151153e-01 -4.650406e-01 -4.760198e-01 -4.934998e-01 -4.973236e-01 -5.019673e-01 -5.060580e-01 -5.031217e-01 -5.082650e-01 -5.018184e-01 -5.072794e-01 -5.007051e-01 -5.055235e-01 -5.006397e-01 -5.034270e-01 -5.008313e-01 -5.013412e-01 -5.013985e-01 -4.997568e-01 -5.017546e-01 -4.987354e-01 -5.017176e-01 -4.987926e-01 -5.009532e-01 -4.997775e-01 -4.992006e-01 -5.021625e-01 -4.965592e-01 -5.055859e-01 -4.926874e-01 -5.099942e-01 -4.882928e-01 -5.150623e-01 -4.833534e-01 -5.198033e-01 -4.784971e-01 -5.237693e-01 -4.744628e-01 -5.260986e-01 -4.717296e-01 -5.260231e-01 -4.696562e-01 -5.225540e-01 -4.637349e-01 -5.151426e-01 -4.253778e-01 -7.041847e-01 -1.067554e+00 -2.690341e-01 -4.659399e-02 -3.245832e-02 -1.561426e-02 -8.779903e-03 
-7.893545e-03 -2.417570e-02 -3.994374e-02 2.425078e-01 1.605339e+00 -5.581345e-01 -2.700086e+00 -5.163852e-01 -1.034377e+00 -6.328753e-01 -8.664707e-01 -3.793239e-01 2.136534e-01 -4.938452e-01 -1.293595e+00 -1.208137e+00 -1.060754e+00 -1.216778e+00 -1.074160e+00 -1.338146e+00 -3.438036e-01 -1.189647e-01 -4.931311e-01 -8.253396e-01 -7.309458e-01 -8.277530e-01 -7.072571e-01 -8.099991e-01 -6.959247e-01 -7.983482e-01 -7.009020e-01 -7.972276e-01 -7.182672e-01 -7.934548e-01 -7.304084e-01 -7.768715e-01 -7.344913e-01 -7.567217e-01 -7.398337e-01 -7.434001e-01 -7.492396e-01 -7.353876e-01 -7.577312e-01 -7.281718e-01 -7.628841e-01 -7.210680e-01 -7.660546e-01 -7.157766e-01 -7.669818e-01 -7.089907e-01 -7.590776e-01 -6.982694e-01 -7.530681e-01 -7.331752e-01 -8.116811e-01 -3.891322e-01 1.534266e+00 2.120321e+00 4.047540e-01 1.467645e-01 -3.585963e-01 -2.074883e-01 3.132909e-02 1.543339e-01 6.228226e-02 -5.939990e-02 7.787008e-02 -5.073293e-01 -2.566582e-01 -1.424182e+00 -1.988095e+00 -2.364922e+00 -2.583156e+00 -1.277357e+00 -6.106707e-01 -6.011469e-01 -6.235739e-01 -6.951468e-01 -6.725918e-01 -7.188367e-01 -6.826526e-01 -7.200811e-01 -6.911902e-01 -7.203299e-01 -7.045732e-01 -7.160144e-01 -7.150185e-01 -7.057033e-01 -7.232542e-01 -6.962119e-01 -7.339140e-01 -6.907278e-01 -7.407099e-01 -6.804011e-01 -7.377668e-01 -6.716885e-01 -7.365970e-01 -6.745528e-01 -7.363187e-01 -6.833143e-01 -7.300831e-01 -6.946494e-01 -7.139502e-01 -7.068680e-01 -6.922582e-01 -7.297164e-01 -6.743848e-01 -7.600200e-01 -6.506241e-01 -7.825340e-01 -6.174129e-01 -7.968408e-01 -5.889053e-01 -8.144339e-01 -5.809220e-01 -8.330143e-01 -5.811262e-01 -8.319792e-01 -5.674919e-01 -8.211338e-01 -4.699801e-01 -1.353331e+00 -1.814269e+00 1.054660e+00 4.745471e-01 -1.252525e-01 -6.165252e-02 -1.248272e-02 
-9.320998e-04 -4.290707e-02 -9.997032e-02 4.981182e-01 4.213495e+00 3.834879e+00 1.709470e-01 1.752082e+00 1.068739e+00 1.390072e+00 1.024314e+00 8.105148e-01 6.047813e-02 7.143012e-02 4.776245e-01 1.864388e-01 2.954095e-01 1.446118e-01 3.325262e-01 3.513686e-01 9.260225e-02 3.023503e-01 8.463992e-01 1.096218e+00 1.223747e+00 1.237906e+00 1.342054e+00 1.310653e+00 1.428666e+00 1.348675e+00 1.456709e+00 1.339686e+00 1.440825e+00 1.329026e+00 1.433076e+00 1.350877e+00 1.441795e+00 1.382849e+00 1.437640e+00 1.395670e+00 1.412911e+00 1.392845e+00 1.382804e+00 1.383097e+00 1.353237e+00 1.364053e+00 1.316304e+00 1.322567e+00 1.260676e+00 1.256680e+00 1.186657e+00 1.157369e+00 1.053344e+00 9.713314e-01 8.132414e-01 4.668868e-01 -7.162185e-01 -1.007654e+00 -2.272972e-01 1.011591e-02 7.173278e-01 9.718710e-01 4.078245e-01 2.235419e-01 2.119036e-01 3.727148e-01 3.719328e-01 8.739899e-01 9.583077e-01 2.464159e+00 3.055353e+00 3.112993e+00 3.517377e+00 2.144210e+00 1.776569e+00 1.449437e+00 1.614598e+00 1.412099e+00 1.574571e+00 1.437492e+00 1.567734e+00 1.478615e+00 1.544015e+00 1.496736e+00 1.500545e+00 1.510104e+00 1.468040e+00 1.534092e+00 1.447460e+00 1.550871e+00 1.419434e+00 1.554530e+00 1.404320e+00 1.575503e+00 1.415603e+00 1.595446e+00 1.418458e+00 1.588897e+00 1.413255e+00 1.571146e+00 1.418419e+00 1.555315e+00 1.446627e+00 1.543557e+00 1.482858e+00 1.506866e+00 1.505174e+00 1.452392e+00 1.542134e+00 1.417925e+00 1.609042e+00 1.402085e+00 1.670124e+00 1.365996e+00 1.683497e+00 1.313196e+00 1.682984e+00 1.299793e+00 1.705420e+00 1.306350e+00 1.770468e+00 9.964732e-01 2.368689e+00 5.324010e+00 1.706011e+00 -2.337716e-01 -1.164434e-01 -7.585394e-03 
1.542947e-03 -2.039743e-02 -5.998856e-02 3.176145e-01 2.945253e+00 5.430629e+00 3.792011e+00 2.691507e+00 2.613818e+00 2.458925e+00 2.440886e+00 2.272909e+00 2.579426e+00 2.423418e+00 2.398993e+00 2.420971e+00 2.433381e+00 2.457957e+00 2.400814e+00 2.441972e+00 2.451796e+00 2.465587e+00 2.327576e+00 2.483744e+00 2.444092e+00 2.596118e+00 2.566022e+00 2.662254e+00 2.650822e+00 2.689344e+00 2.688786e+00 2.676974e+00 2.692859e+00 2.659656e+00 2.699083e+00 2.662804e+00 2.713196e+00 2.672955e+00 2.714069e+00 2.670265e+00 2.696749e+00 2.656545e+00 2.672042e+00 2.635427e+00 2.643377e+00 2.603043e+00 2.603497e+00 2.546617e+00 2.539174e+00 2.459791e+00 2.442117e+00 2.327483e+00 2.262429e+00 2.070786e+00 1.867643e+00 1.555807e+00 1.329347e+00 9.952569e-01 1.381143e+00 1.436977e+00 1.061247e+00 1.027775e+00 1.512654e+00 2.023101e+00 1.923011e+00 2.304133e+00 2.018098e+00 2.509362e+00 2.229823e+00 1.532098e+00 1.718415e+00 1.528443e+00 1.754191e+00 2.252195e+00 2.774108e+00 2.572100e+00 2.758879e+00 2.604383e+00 2.760970e+00 2.666326e+00 2.769814e+00 2.720622e+00 2.758958e+00 2.747277e+00 2.731659e+00 2.760939e+00 2.711710e+00 2.777219e+00 2.701203e+00 2.785289e+00 2.684347e+00 2.783182e+00 2.676394e+00 2.794343e+00 2.685112e+00 2.806524e+00 2.686198e+00 2.803922e+00 2.679073e+00 2.796284e+00 2.675872e+00 2.794090e+00 2.686136e+00 2.797345e+00 2.698612e+00 2.785697e+00 2.700936e+00 2.763012e+00 2.712879e+00 2.752102e+00 2.747229e+00 2.751020e+00 2.782028e+00 2.731085e+00 2.790992e+00 2.694982e+00 2.799286e+00 2.685754e+00 2.832251e+00 2.718063e+00 2.876052e+00 3.261402e+00 5.578569e+00 4.749533e+00 9.123322e-01 -3.301772e-01 -1.090104e-01 -1.131847e-02 
-7.874036e-03 -6.627429e-03 -3.220979e-02 -9.374898e-02 1.556242e-01 1.921099e+00 2.256882e+00 8.930857e-01 1.109389e+00 9.356568e-01 1.100406e+00 1.268853e+00 1.978305e+00 1.638622e+00 1.347299e+00 1.347199e+00 1.352258e+00 1.347635e+00 1.351632e+00 1.349881e+00 1.727980e+00 1.795672e+00 1.119070e+00 1.032387e+00 9.843650e-01 1.081724e+00 1.033701e+00 1.100371e+00 1.053465e+00 1.102221e+00 1.064913e+00 1.097554e+00 1.072339e+00 1.090724e+00 1.077905e+00 1.083963e+00 1.081846e+00 1.077571e+00 1.082631e+00 1.070605e+00 1.080043e+00 1.062487e+00 1.074444e+00 1.051597e+00 1.065124e+00 1.035845e+00 1.050126e+00 1.012003e+00 1.025618e+00 9.773973e-01 9.883788e-01 9.304368e-01 9.264511e-01 8.310350e-01 8.076964e-01 1.408949e+00 4.192329e+00 5.005774e+00 2.711873e+00 2.038701e+00 1.866227e+00 1.942070e+00 1.973636e+00 1.727085e+00 1.604564e+00 1.376130e+00 1.476469e+00 8.029650e-01 1.160676e+00 6.478938e-01 -3.955136e-01 -5.283615e-01 -7.781512e-01 1.625073e-01 9.153790e-01 9.906775e-01 1.023363e+00 9.970471e-01 1.026586e+00 1.025761e+00 1.040874e+00 1.050791e+00 1.051778e+00 1.067342e+00 1.058899e+00 1.075842e+00 1.064143e+00 1.079896e+00 1.068719e+00 1.080473e+00 1.071132e+00 1.079172e+00 1.073079e+00 1.078727e+00 1.074380e+00 1.079060e+00 1.074021e+00 1.080536e+00 1.071697e+00 1.083194e+00 1.067751e+00 1.088240e+00 1.063135e+00 1.094864e+00 1.056965e+00 1.101943e+00 1.050219e+00 1.109046e+00 1.043828e+00 1.115431e+00 1.039571e+00 1.120597e+00 1.038160e+00 1.122783e+00 1.040650e+00 1.123718e+00 1.051758e+00 1.131640e+00 1.078880e+00 1.166096e+00 1.111609e+00 1.602402e+00 2.417277e+00 8.058717e-01 -1.146388e-01 -1.196648e-01 -3.170446e-02 -1.100027e-02 
-1.348015e-02 -7.147507e-03 -3.664616e-03 -1.886552e-02 -4.938799e-02 4.034752e-02 1.459002e-01 4.555046e-02 4.615820e-02 5.656628e-02 1.265031e-01 5.655873e-01 1.861420e+00 1.557827e+00 8.936402e-01 8.928383e-01 8.930434e-01 8.928553e-01 8.930223e-01 8.946307e-01 1.719147e+00 1.819537e+00 2.283956e-01 -4.083819e-02 -6.741107e-03 3.205528e-02 4.157371e-02 4.975213e-02 4.902123e-02 5.218532e-02 5.042093e-02 5.154988e-02 5.027379e-02 5.025054e-02 4.981180e-02 4.893726e-02 4.923550e-02 4.765232e-02 4.838445e-02 4.620172e-02 4.700742e-02 4.424987e-02 4.474567e-02 4.128293e-02 4.112334e-02 3.677298e-02 3.585074e-02 3.081344e-02 2.998497e-02 2.618274e-02 2.927604e-02 3.325498e-02 4.741741e-02 6.039806e-02 1.245131e-01 5.663659e-01 1.852682e+00 2.531362e+00 1.240252e+00 7.348253e-01 9.693168e-01 5.263596e-01 8.098521e-01 1.003919e+00 9.402326e-01 9.004229e-01 1.117163e+00 9.302963e-01 1.171354e+00 1.002784e+00 5.486063e-01 2.149786e+00 2.116467e+00 5.381368e-01 7.611667e-02 8.372227e-02 7.221339e-02 5.118832e-02 3.777882e-02 3.229905e-02 2.960966e-02 3.160522e-02 3.223139e-02 3.609492e-02 3.713156e-02 4.058832e-02 4.134810e-02 4.377334e-02 4.435178e-02 4.570704e-02 4.630410e-02 4.679421e-02 4.755695e-02 4.741271e-02 4.831539e-02 4.779389e-02 4.872954e-02 4.812317e-02 4.887289e-02 4.847312e-02 4.878819e-02 4.894052e-02 4.853083e-02 4.952811e-02 4.810371e-02 5.025245e-02 4.759946e-02 5.110012e-02 4.705367e-02 5.201878e-02 4.662488e-02 5.312132e-02 4.670708e-02 5.485447e-02 4.827000e-02 5.856291e-02 5.337696e-02 6.700466e-02 6.452512e-02 8.090303e-02 7.453100e-02 1.271656e-01 1.629128e-01 -9.419290e-03 -5.604726e-02 -2.917016e-02 -1.859502e-02 -1.615277e-02 
-9.717890e-03 -7.919136e-03 -5.612938e-03 -5.199595e-03 -9.746351e-03 -1.485406e-02 -7.073337e-03 -4.356851e-03 2.803812e-03 1.409460e-02 4.730978e-02 2.704646e-01 9.225141e-01 7.737540e-01 4.466294e-01 4.462569e-01 4.462564e-01 4.462564e-01 4.462583e-01 4.471647e-01 8.715638e-01 9.148592e-01 5.762871e-02 -7.896143e-02 -5.074997e-02 -2.935171e-02 -1.996656e-02 -1.585560e-02 -1.350193e-02 -1.235160e-02 -1.173790e-02 -1.162767e-02 -1.156586e-02 -1.177051e-02 -1.183128e-02 -1.211631e-02 -1.220117e-02 -1.252718e-02 -1.265808e-02 -1.305686e-02 -1.330223e-02 -1.383861e-02 -1.428898e-02 -1.503118e-02 -1.572819e-02 -1.659065e-02 -1.720949e-02 -1.739478e-02 -1.635183e-02 -1.305545e-02 -5.748420e-03 7.566700e-03 2.717262e-02 5.048535e-02 1.149131e-01 4.727514e-01 1.322502e+00 1.404205e+00 3.517910e-01 -5.800229e-02 1.916732e-01 1.308228e-01 2.557520e-01 6.785053e-01 6.379680e-01 5.643815e-01 6.727853e-01 6.778258e-01 4.830571e-01 -1.428107e-01 -1.863922e-01 3.589698e-01 4.736562e-01 3.093601e-01 1.801244e-01 1.076458e-01 5.693442e-02 2.361233e-02 2.948726e-03 -8.786418e-03 -1.521081e-02 -1.797242e-02 -1.890742e-02 -1.858184e-02 -1.789536e-02 -1.692926e-02 -1.606578e-02 -1.524209e-02 -1.457088e-02 -1.402046e-02 -1.355144e-02 -1.322521e-02 -1.289539e-02 -1.272478e-02 -1.247887e-02 -1.241093e-02 -1.221329e-02 -1.221103e-02 -1.204218e-02 -1.207855e-02 -1.193046e-02 -1.198310e-02 -1.185555e-02 -1.190334e-02 -1.180202e-02 -1.182415e-02 -1.175925e-02 -1.173316e-02 -1.171285e-02 -1.160491e-02 -1.161629e-02 -1.135417e-02 -1.131694e-02 -1.072842e-02 -1.042087e-02 -9.172781e-03 -8.234893e-03 -5.982172e-03 -4.416849e-03 -2.052192e-03 -2.524825e-03 -2.015295e-03 -3.881626e-03 -1.195693e-02 -1.130082e-02 -9.616377e-03 -1.032360e-02 -1.040656e-02 
-8.068204e-06 -3.185101e-06 -2.157382e-06 9.888948e-07 1.562898e-06 3.264931e-06 3.076745e-06 -5.037889e-07 -3.226310e-06 -7.025959e-06 -2.481356e-05 -7.225496e-05 6.502737e-05 2.355555e-04 2.123400e-07 -2.604217e-09 -1.349363e-09 -2.151794e-09 2.212289e-10 1.229287e-06 5.642116e-04 -7.160971e-03 2.973526e-05 5.618163e-04 2.523938e-04 9.651455e-05 1.068490e-05 -2.787708e-05 -6.347081e-05 -9.046211e-05 -1.189115e-04 -1.537185e-04 -1.896988e-04 -2.418490e-04 -2.947367e-04 -3.728396e-04 -4.546281e-04 -5.721981e-04 -7.024983e-04 -8.820264e-04 -1.092244e-03 -1.368429e-03 -1.700135e-03 -2.103801e-03 -2.557340e-03 -2.995780e-03 -3.289665e-03 -3.126526e-03 -2.035713e-03 8.481887e-04 6.690687e-03 1.686293e-02 3.146731e-02 5.150297e-02 1.128236e-01 3.593991e-01 8.788611e-01 8.263057e-01 1.154968e-01 -1.292964e-01 -1.578419e-01 -1.313468e-01 8.203141e-03 5.778739e-02 8.994100e-02 -1.034050e-02 4.251834e-02 9.181012e-02 -1.852807e-02 -1.389556e-01 2.469966e-02 3.651331e-01 2.750220e-01 1.260572e-01 1.396416e-01 1.016472e-01 6.150163e-02 3.434392e-02 1.729424e-02 6.903026e-03 8.792063e-04 -2.301218e-03 -3.703539e-03 -4.077418e-03 -3.893723e-03 -3.465950e-03 -2.956114e-03 -2.461480e-03 -2.019033e-03 -1.640712e-03 -1.329636e-03 -1.071229e-03 -8.668672e-04 -6.959627e-04 -5.644709e-04 -4.520323e-04 -3.677483e-04 -2.937324e-04 -2.397076e-04 -1.912197e-04 -1.565874e-04 -1.250710e-04 -1.024592e-04 -8.185707e-05 -6.633705e-05 -5.268750e-05 -4.154911e-05 -3.267438e-05 -2.467899e-05 -1.939137e-05 -1.388388e-05 -1.136403e-05 -7.824537e-06 -7.527008e-06 -5.786765e-06 -7.991363e-06 -8.394616e-06 -1.352015e-05 -1.510773e-05 -2.095196e-05 -1.970786e-05 -2.133113e-05 -1.785365e-05 -1.731830e-05 -2.046887e-05 -1.543256e-05 -1.560304e-05 -9.585689e-06 
9.698605e-03 7.908900e-03 5.606044e-03 5.199723e-03 9.751634e-03 1.485989e-02 7.085141e-03 4.362731e-03 -2.810439e-03 -1.410935e-02 -4.736787e-02 -2.705941e-01 -9.222801e-01 -7.737476e-01 -4.466295e-01 -4.462569e-01 -4.462564e-01 -4.462564e-01 -4.462583e-01 -4.471654e-01 -8.718794e-01 -9.311704e-01 -5.765205e-02 8.014496e-02 5.124538e-02 2.952346e-02 1.995170e-02 1.577047e-02 1.332873e-02 1.212423e-02 1.142900e-02 1.124105e-02 1.107329e-02 1.115510e-02 1.106332e-02 1.115691e-02 1.101186e-02 1.103979e-02 1.081194e-02 1.074372e-02 1.041704e-02 1.021924e-02 9.762227e-03 9.388358e-03 8.766411e-03 8.209241e-03 7.504342e-03 7.016238e-03 6.774942e-03 7.355549e-03 9.132662e-03 1.239432e-02 1.519861e-02 1.860318e-02 7.545147e-02 3.383061e-01 7.949375e-01 7.428304e-01 1.491716e-01 -9.297657e-02 -1.328987e-01 -1.464056e-01 8.039129e-02 2.599868e-01 2.124480e-01 1.884893e-01 2.528743e-01 2.298616e-01 -1.120097e-01 -6.210850e-01 -6.312377e-01 -4.549334e-01 -2.792590e-01 2.155378e-02 1.192359e-01 8.379638e-02 4.970616e-02 3.018251e-02 1.883450e-02 1.216656e-02 8.412224e-03 6.686645e-03 6.103881e-03 6.312357e-03 6.796692e-03 7.508533e-03 8.148910e-03 8.822128e-03 9.330238e-03 9.838495e-03 1.017847e-02 1.053890e-02 1.074406e-02 1.100137e-02 1.110972e-02 1.130139e-02 1.134208e-02 1.149261e-02 1.148717e-02 1.160946e-02 1.157540e-02 1.167326e-02 1.162741e-02 1.169757e-02 1.165711e-02 1.168986e-02 1.167130e-02 1.164967e-02 1.166417e-02 1.155688e-02 1.159302e-02 1.132881e-02 1.130760e-02 1.071513e-02 1.041551e-02 9.160389e-03 8.221250e-03 5.956119e-03 4.382788e-03 2.005951e-03 2.482379e-03 1.976448e-03 3.839918e-03 1.191034e-02 1.124936e-02 9.577463e-03 1.028662e-02 1.038298e-02 
1.344523e-02 7.120095e-03 3.641034e-03 1.885338e-02 4.935378e-02 -4.046256e-02 -1.458110e-01 -4.537574e-02 -4.615846e-02 -5.648686e-02 -1.265378e-01 -5.656664e-01 -1.861253e+00 -1.557530e+00 -8.936422e-01 -8.928353e-01 -8.930434e-01 -8.928545e-01 -8.930192e-01 -8.946338e-01 -1.717192e+00 -1.831401e+00 -2.284345e-01 4.149530e-02 6.882340e-03 -3.222515e-02 -4.181868e-02 -5.017575e-02 -4.943191e-02 -5.285220e-02 -5.106956e-02 -5.256700e-02 -5.131527e-02 -5.179784e-02 -5.149725e-02 -5.128833e-02 -5.194061e-02 -5.121667e-02 -5.270930e-02 -5.163485e-02 -5.383337e-02 -5.260735e-02 -5.543418e-02 -5.432343e-02 -5.776844e-02 -5.707687e-02 -6.116466e-02 -6.117791e-02 -6.585524e-02 -6.670142e-02 -7.175874e-02 -7.449785e-02 -8.615230e-02 -1.033922e-01 -5.305904e-02 4.247843e-01 1.485987e+00 1.364890e+00 3.483160e-01 8.941855e-02 -2.314770e-02 -1.896983e-02 3.812494e-02 1.382275e-01 -3.055904e-02 -1.271814e-01 -1.203259e-01 -2.686488e-01 -4.273332e-01 -7.910072e-01 -9.715509e-01 -1.289381e+00 -9.870519e-01 -2.058934e-01 2.246791e-03 -2.055400e-02 -4.657348e-02 -5.820718e-02 -6.273560e-02 -6.429643e-02 -6.441058e-02 -6.299459e-02 -6.192207e-02 -5.950869e-02 -5.856982e-02 -5.606072e-02 -5.570355e-02 -5.339461e-02 -5.361766e-02 -5.154702e-02 -5.220784e-02 -5.035788e-02 -5.127883e-02 -4.964329e-02 -5.063930e-02 -4.925487e-02 -5.013446e-02 -4.910759e-02 -4.967356e-02 -4.918687e-02 -4.921153e-02 -4.947449e-02 -4.868901e-02 -4.992598e-02 -4.808847e-02 -5.052979e-02 -4.745647e-02 -5.126793e-02 -4.685638e-02 -5.212471e-02 -4.642696e-02 -5.319230e-02 -4.654236e-02 -5.492871e-02 -4.816119e-02 -5.866229e-02 -5.333337e-02 -6.716609e-02 -6.457009e-02 -8.114041e-02 -7.457537e-02 -1.273970e-01 -1.628893e-01 9.412926e-03 5.601204e-02 2.911225e-02 1.852762e-02 1.610834e-02 
7.816292e-03 6.573701e-03 3.216411e-02 9.370228e-02 -1.560302e-01 -1.922491e+00 -2.256221e+00 -8.912107e-01 -1.108941e+00 -9.341928e-01 -1.099897e+00 -1.267704e+00 -1.977233e+00 -1.639282e+00 -1.347365e+00 -1.347132e+00 -1.352260e+00 -1.347635e+00 -1.351564e+00 -1.350023e+00 -1.725108e+00 -1.806700e+00 -1.119715e+00 -1.034884e+00 -9.854074e-01 -1.085259e+00 -1.033678e+00 -1.102854e+00 -1.051933e+00 -1.104851e+00 -1.064473e+00 -1.102693e+00 -1.074873e+00 -1.098621e+00 -1.083620e+00 -1.094057e+00 -1.091591e+00 -1.090625e+00 -1.099624e+00 -1.089201e+00 -1.107730e+00 -1.090077e+00 -1.116648e+00 -1.094574e+00 -1.127374e+00 -1.103148e+00 -1.140152e+00 -1.116631e+00 -1.156330e+00 -1.137142e+00 -1.178362e+00 -1.168199e+00 -1.214728e+00 -1.228183e+00 -1.279632e+00 -1.148755e+00 -7.697292e-01 -7.912216e-01 -1.114928e+00 -1.185128e+00 -1.364685e+00 -1.397321e+00 -1.175119e+00 -1.066980e+00 -1.076240e+00 -1.063821e+00 -1.112242e+00 -1.162266e+00 -1.249147e+00 -1.476368e+00 -1.428694e+00 -1.467006e+00 -1.384165e+00 -1.119145e+00 -1.089963e+00 -1.111607e+00 -1.118845e+00 -1.120467e+00 -1.116011e+00 -1.111365e+00 -1.107494e+00 -1.099455e+00 -1.099509e+00 -1.088779e+00 -1.094084e+00 -1.081450e+00 -1.091455e+00 -1.077255e+00 -1.089855e+00 -1.074756e+00 -1.088102e+00 -1.073623e+00 -1.085759e+00 -1.073768e+00 -1.082973e+00 -1.075818e+00 -1.079856e+00 -1.079224e+00 -1.075190e+00 -1.083334e+00 -1.069011e+00 -1.088599e+00 -1.061701e+00 -1.094758e+00 -1.053903e+00 -1.101995e+00 -1.046784e+00 -1.109347e+00 -1.040526e+00 -1.115450e+00 -1.035920e+00 -1.119695e+00 -1.034579e+00 -1.122555e+00 -1.039084e+00 -1.125612e+00 -1.052037e+00 -1.134762e+00 -1.079672e+00 -1.169681e+00 -1.111828e+00 -1.606563e+00 -2.415591e+00 -8.048257e-01 1.151919e-01 1.199152e-01 3.160300e-02 1.090109e-02 
-1.657318e-03 2.032255e-02 6.006288e-02 -3.170005e-01 -2.944514e+00 -5.433766e+00 -3.793272e+00 -2.689912e+00 -2.614677e+00 -2.456824e+00 -2.440082e+00 -2.269738e+00 -2.578143e+00 -2.422408e+00 -2.399375e+00 -2.419685e+00 -2.433796e+00 -2.457517e+00 -2.401367e+00 -2.442179e+00 -2.445621e+00 -2.466634e+00 -2.329850e+00 -2.506109e+00 -2.457470e+00 -2.618521e+00 -2.561880e+00 -2.653904e+00 -2.620171e+00 -2.669031e+00 -2.676678e+00 -2.687789e+00 -2.723921e+00 -2.694348e+00 -2.747195e+00 -2.689114e+00 -2.756913e+00 -2.685514e+00 -2.763593e+00 -2.689392e+00 -2.771692e+00 -2.705605e+00 -2.791908e+00 -2.742199e+00 -2.824100e+00 -2.785792e+00 -2.853099e+00 -2.828094e+00 -2.884317e+00 -2.881291e+00 -2.930750e+00 -2.957541e+00 -3.010180e+00 -3.074527e+00 -3.145032e+00 -3.309456e+00 -3.530259e+00 -3.550529e+00 -3.277893e+00 -3.250118e+00 -3.062002e+00 -3.078386e+00 -3.051536e+00 -3.108541e+00 -3.008087e+00 -2.985346e+00 -2.902181e+00 -2.807023e+00 -2.710281e+00 -2.501485e+00 -2.521789e+00 -2.416481e+00 -2.539676e+00 -2.649071e+00 -2.736114e+00 -2.706051e+00 -2.757506e+00 -2.722038e+00 -2.770158e+00 -2.727217e+00 -2.765109e+00 -2.717144e+00 -2.748335e+00 -2.706517e+00 -2.736620e+00 -2.712128e+00 -2.739047e+00 -2.732323e+00 -2.742285e+00 -2.749914e+00 -2.733944e+00 -2.757711e+00 -2.711561e+00 -2.757818e+00 -2.692367e+00 -2.774709e+00 -2.694602e+00 -2.799602e+00 -2.692736e+00 -2.804771e+00 -2.679681e+00 -2.798672e+00 -2.671449e+00 -2.791583e+00 -2.678302e+00 -2.790884e+00 -2.699979e+00 -2.784594e+00 -2.719941e+00 -2.763212e+00 -2.734732e+00 -2.732762e+00 -2.751218e+00 -2.709829e+00 -2.781670e+00 -2.703007e+00 -2.813936e+00 -2.702156e+00 -2.844234e+00 -2.728958e+00 -2.878543e+00 -3.264065e+00 -5.569705e+00 -4.748869e+00 -9.128696e-01 3.332458e-01 1.093659e-01 1.111323e-02 
7.805046e-04 4.282698e-02 1.000428e-01 -4.970909e-01 -4.210892e+00 -3.836133e+00 -1.745836e-01 -1.754501e+00 -1.071540e+00 -1.390698e+00 -1.024736e+00 -8.090987e-01 -6.141678e-02 -6.920736e-02 -4.786686e-01 -1.870562e-01 -2.972844e-01 -1.470294e-01 -3.281207e-01 -3.511943e-01 -7.830212e-02 -3.038744e-01 -8.492085e-01 -1.124085e+00 -1.241656e+00 -1.264319e+00 -1.335969e+00 -1.292208e+00 -1.385548e+00 -1.311635e+00 -1.440501e+00 -1.345412e+00 -1.485436e+00 -1.365692e+00 -1.497546e+00 -1.370007e+00 -1.491168e+00 -1.374997e+00 -1.480591e+00 -1.387386e+00 -1.473003e+00 -1.414079e+00 -1.483472e+00 -1.464361e+00 -1.509664e+00 -1.516644e+00 -1.527956e+00 -1.556466e+00 -1.544086e+00 -1.598239e+00 -1.573166e+00 -1.655006e+00 -1.634861e+00 -1.751398e+00 -1.742999e+00 -1.868858e+00 -1.839140e+00 -1.955412e+00 -1.847694e+00 -1.917769e+00 -1.788846e+00 -1.821195e+00 -1.726793e+00 -1.734308e+00 -1.672358e+00 -1.634200e+00 -1.609092e+00 -1.520066e+00 -1.533891e+00 -1.415946e+00 -1.438246e+00 -1.339853e+00 -1.389117e+00 -1.340091e+00 -1.423473e+00 -1.374045e+00 -1.465675e+00 -1.411758e+00 -1.499250e+00 -1.437226e+00 -1.503816e+00 -1.439951e+00 -1.486411e+00 -1.439150e+00 -1.471778e+00 -1.457769e+00 -1.474488e+00 -1.494086e+00 -1.478059e+00 -1.524417e+00 -1.465515e+00 -1.537659e+00 -1.433587e+00 -1.536752e+00 -1.408517e+00 -1.557893e+00 -1.418378e+00 -1.588382e+00 -1.426317e+00 -1.586233e+00 -1.421238e+00 -1.563365e+00 -1.427326e+00 -1.536364e+00 -1.458915e+00 -1.516098e+00 -1.512433e+00 -1.486295e+00 -1.561499e+00 -1.435879e+00 -1.598730e+00 -1.376324e+00 -1.631006e+00 -1.333556e+00 -1.672720e+00 -1.320821e+00 -1.705004e+00 -1.317279e+00 -1.722332e+00 -1.314176e+00 -1.774057e+00 -9.878759e-01 -2.360237e+00 -5.326782e+00 -1.707888e+00 2.382865e-01 1.171171e-01 7.381541e-03 
7.822832e-03 2.413096e-02 3.992584e-02 -2.421350e-01 -1.603795e+00 5.592715e-01 2.698265e+00 5.133524e-01 1.032638e+00 6.308116e-01 8.652772e-01 3.781743e-01 -2.126313e-01 4.920335e-01 1.292773e+00 1.205306e+00 1.061411e+00 1.212451e+00 1.077074e+00 1.337813e+00 3.502358e-01 1.127847e-01 4.937998e-01 8.188701e-01 7.260074e-01 8.215591e-01 7.095767e-01 8.191339e-01 7.100990e-01 8.143886e-01 7.057563e-01 7.998949e-01 7.030837e-01 7.874472e-01 7.105089e-01 7.794691e-01 7.235214e-01 7.718505e-01 7.377089e-01 7.632768e-01 7.502136e-01 7.515513e-01 7.560515e-01 7.346807e-01 7.569547e-01 7.210464e-01 7.616678e-01 7.166327e-01 7.690386e-01 7.177752e-01 7.752444e-01 7.213847e-01 7.749419e-01 7.150358e-01 7.616884e-01 7.599810e-01 9.616663e-01 8.996074e-01 7.980755e-01 7.242562e-01 6.936485e-01 6.691608e-01 7.306340e-01 7.666499e-01 7.420208e-01 7.551190e-01 7.097246e-01 7.148758e-01 6.398232e-01 5.970978e-01 6.002528e-01 5.973050e-01 6.353606e-01 7.587079e-01 7.479595e-01 7.644221e-01 7.239460e-01 7.457488e-01 7.084231e-01 7.331722e-01 7.058161e-01 7.288951e-01 7.127565e-01 7.261972e-01 7.199424e-01 7.175344e-01 7.217242e-01 7.032912e-01 7.226718e-01 6.912308e-01 7.284001e-01 6.857325e-01 7.400857e-01 6.860944e-01 7.482673e-01 6.798482e-01 7.425856e-01 6.715106e-01 7.354163e-01 6.763919e-01 7.307749e-01 6.907620e-01 7.198663e-01 7.083134e-01 6.979988e-01 7.253582e-01 6.679110e-01 7.468921e-01 6.397263e-01 7.752571e-01 6.171980e-01 8.050861e-01 5.996080e-01 8.262204e-01 5.833597e-01 8.324280e-01 5.733101e-01 8.291996e-01 5.618627e-01 8.223728e-01 4.681227e-01 1.361331e+00 1.813065e+00 -1.055990e+00 -4.737419e-01 1.273232e-01 6.189434e-02 1.238773e-02 
7.820628e-03 1.077022e-02 1.385763e-02 -2.257148e-02 -1.086927e-01 6.884433e-01 1.165818e+00 4.917980e-01 5.787485e-01 4.726898e-01 5.370229e-01 2.824351e-01 -6.173929e-01 -2.247133e+00 -3.019765e+00 -2.755719e+00 -2.776525e+00 -2.866034e+00 -2.694008e+00 -2.969171e+00 -2.420560e+00 -4.254048e-01 3.155876e-01 5.119324e-01 4.695602e-01 5.078602e-01 4.725058e-01 5.130693e-01 4.822348e-01 5.152235e-01 4.893631e-01 5.145841e-01 4.952118e-01 5.125624e-01 5.003151e-01 5.099792e-01 5.049367e-01 5.075509e-01 5.093243e-01 5.057490e-01 5.133970e-01 5.047249e-01 5.172881e-01 5.050042e-01 5.214371e-01 5.070392e-01 5.261278e-01 5.111139e-01 5.313762e-01 5.171306e-01 5.367899e-01 5.242679e-01 5.411305e-01 5.284468e-01 5.396403e-01 5.473269e-01 6.212999e-01 6.150044e-01 5.677845e-01 5.649384e-01 5.463052e-01 5.425787e-01 5.487918e-01 5.591260e-01 5.359763e-01 5.369394e-01 5.191944e-01 5.212759e-01 5.212009e-01 5.186062e-01 5.350575e-01 5.122827e-01 5.204152e-01 5.499215e-01 5.412169e-01 5.287655e-01 5.158185e-01 5.107588e-01 5.029125e-01 5.015041e-01 4.978975e-01 4.979042e-01 4.976808e-01 4.970277e-01 4.993557e-01 4.969786e-01 5.013220e-01 4.968945e-01 5.028297e-01 4.965563e-01 5.038482e-01 4.962799e-01 5.044864e-01 4.962807e-01 5.045916e-01 4.965798e-01 5.038670e-01 4.973220e-01 5.022446e-01 4.989584e-01 4.997902e-01 5.016455e-01 4.962523e-01 5.051516e-01 4.916817e-01 5.094839e-01 4.866485e-01 5.144118e-01 4.815854e-01 5.193256e-01 4.769595e-01 5.235578e-01 4.733758e-01 5.264079e-01 4.712055e-01 5.268598e-01 4.695260e-01 5.239021e-01 4.638422e-01 5.168477e-01 4.250927e-01 7.059597e-01 1.065469e+00 2.689636e-01 4.742348e-02 3.279064e-02 1.566804e-02 8.794583e-03 
