# vtk DataFile Version 2.0
Comment goes here
ASCII

DATASET STRUCTURED_POINTS
FIELD FieldData 1
TIME 1 1 double
0.11000000
DIMENSIONS    128   16   1

ORIGIN    0.000   0.000   0.000
SPACING   0.0078125 0.015625   1.000

POINT_DATA   2048
SCALARS Omega double
LOOKUP_TABLE default

-1.555287e-06 -4.517118e-07 -2.564920e-06 -1.558213e-05 -6.876353e-05 -1.236097e-04 1.227961e-04 6.790741e-05 2.792787e-05 5.752776e-05 -1.021735e-04 -5.504492e-05 4.301106e-05 -2.531028e-05 -1.976406e-04 1.049874e-04 3.756031e-04 -1.504581e-04 -5.524000e-04 6.234245e-04 4.152036e-04 -9.477166e-04 -7.051073e-05 1.704809e-04 -4.350098e-04 -1.083188e-04 -1.133481e-05 1.729121e-04 8.021986e-05 4.287492e-04 -2.268258e-04 9.375358e-05 5.297359e-06 -7.528500e-05 2.255118e-04 1.137957e-04 3.058577e-04 2.254842e-04 3.715149e-04 3.710543e-04 3.454291e-04 3.190492e-04 6.693608e-04 8.168245e-04 1.409069e-03 1.607442e-03 2.233597e-03 2.591867e-03 3.643425e-03 4.439279e-03 5.173983e-03 3.847855e-03 -3.336606e-03 -2.145969e-02 -5.036358e-02 -7.781172e-02 -1.092706e-01 -1.671688e-01 -2.256348e-01 -2.542653e-01 -2.231276e-01 -4.151233e-02 2.090625e-01 3.182437e-01 2.475189e-01 8.378417e-02 -5.417053e-02 -6.083656e-02 4.404506e-02 2.003216e-01 4.171016e-01 5.427471e-01 4.574369e-01 2.934034e-01 1.546832e-01 6.126980e-02 1.408743e-02 -3.331134e-03 -6.322874e-03 -5.030337e-03 -3.789180e-03 -2.217733e-03 -1.535338e-03 -2.065017e-04 -4.007480e-04 -1.039960e-04 -2.206335e-04 3.384281e-04 5.828710e-04 2.201264e-04 2.615153e-04 -2.419649e-05 4.547634e-04 -6.860477e-06 -6.292044e-05 8.883799e-05 -2.480857e-05 4.258903e-04 7.886300e-05 2.727725e-04 2.296494e-04 -2.944642e-04 1.297319e-04 -3.401780e-04 5.286712e-05 7.225926e-05 4.914422e-05 2.561283e-04 3.051643e-04 -2.988900e-04 -4.459562e-07 3.776400e-04 -6.348480e-04 2.539948e-06 4.455275e-04 -4.903852e-04 3.251250e-05 6.132932e-04 -2.442348e-04 -1.185281e-04 5.782456e-04 1.969300e-05 -1.692932e-04 8.426624e-05 4.150289e-05 5.031628e-06 -2.620723e-06 -2.697395e-06 
-7.216261e-03 -4.135702e-03 9.214169e-03 8.507583e-03 -1.913324e-01 -4.417748e-01 7.829669e-01 5.082939e-01 1.109349e-01 2.422463e-01 1.824672e-01 3.646473e-01 -2.790017e-01 -1.503605e+00 -2.030190e+00 -1.634778e+00 -1.954339e+00 -1.777040e+00 -1.848076e+00 -2.155384e+00 -1.539226e+00 -2.863447e-02 4.237003e-01 3.204294e-01 2.184092e-01 1.647903e-01 1.392892e-01 1.890538e-01 2.329319e-01 2.465522e-01 2.483230e-01 2.137423e-01 2.021993e-01 1.558357e-01 2.367523e-01 2.503324e-01 2.574674e-01 2.279410e-01 2.039022e-01 1.916368e-01 2.354291e-01 2.370739e-01 2.523055e-01 2.054212e-01 2.154271e-01 2.021943e-01 2.363163e-01 2.402703e-01 2.539218e-01 2.361846e-01 2.254949e-01 2.151000e-01 1.600193e-01 1.386040e-01 1.649128e-01 2.402858e-01 3.677517e-02 1.153171e-01 2.558032e-01 -1.478759e-02 8.702254e-02 3.563329e-01 3.684223e-01 5.524635e-01 7.667476e-01 4.056826e-01 4.818895e-01 6.052807e-01 3.519087e-01 6.964782e-01 1.013792e+00 1.359982e+00 1.273491e+00 7.722325e-01 5.316284e-01 3.652118e-01 2.669171e-01 1.847139e-01 2.267078e-01 2.792061e-01 2.865656e-01 2.089374e-01 1.462500e-01 1.735111e-01 2.186546e-01 2.368908e-01 1.940946e-01 2.041245e-01 2.307781e-01 2.434655e-01 2.126664e-01 1.840030e-01 2.210044e-01 2.087879e-01 2.211700e-01 1.771229e-01 2.210908e-01 2.389994e-01 2.358147e-01 2.442465e-01 2.373539e-01 2.161685e-01 2.049795e-01 1.762528e-01 2.576135e-01 2.050264e-01 2.255910e-01 2.568838e-01 2.055231e-01 1.645454e-01 2.316307e-01 2.226244e-01 1.757721e-01 2.748330e-01 1.912353e-01 2.393263e-01 2.293595e-01 2.571237e-01 1.670254e-01 3.108826e-01 1.581151e-01 5.766766e-01 5.203341e-01 -1.677686e-01 8.030196e-03 6.030464e-03 -1.181694e-02 -1.049665e-02 
-3.661439e-02 -1.880667e-02 6.638809e-02 1.787184e-01 -1.021862e+00 -2.187015e+00 2.161073e+00 1.166693e+00 2.461178e-01 5.116794e-01 3.138631e-01 4.108902e-01 -1.041145e+00 4.116176e-01 4.685541e-01 5.759930e-01 3.386471e-01 7.181519e-01 1.967744e-01 4.964064e-01 -1.329777e-01 -5.325041e-01 6.114911e-01 7.515281e-01 4.276036e-01 3.533617e-01 1.632772e-01 3.503316e-01 3.543045e-01 5.165760e-01 4.893187e-01 4.353129e-01 3.492599e-01 1.743438e-01 3.951705e-01 5.363885e-01 5.442125e-01 4.423309e-01 3.735385e-01 3.621625e-01 4.926002e-01 4.495605e-01 5.325568e-01 3.377347e-01 3.741568e-01 3.278904e-01 4.329304e-01 4.376697e-01 4.649188e-01 4.395833e-01 4.250631e-01 4.081027e-01 3.176215e-01 3.303175e-01 4.856249e-01 7.061400e-01 4.068792e-01 4.692530e-01 6.290254e-01 5.329360e-01 1.007803e+00 1.031031e+00 3.083746e-01 -7.341314e-02 3.621672e-01 1.447048e-01 2.903375e-01 5.098583e-01 3.932920e-01 1.250380e+00 1.115798e+00 9.722614e-01 6.135465e-01 1.810725e-01 2.774497e-01 3.349766e-01 3.454661e-01 2.458231e-01 3.640226e-01 4.962233e-01 5.849303e-01 3.581043e-01 1.933913e-01 2.733189e-01 4.290221e-01 4.264410e-01 3.043730e-01 3.765591e-01 4.196170e-01 4.416076e-01 3.355024e-01 2.939368e-01 4.006815e-01 4.290557e-01 4.137023e-01 2.322490e-01 3.215712e-01 4.017308e-01 3.936257e-01 4.237112e-01 5.086010e-01 4.583655e-01 4.198575e-01 2.258559e-01 5.267494e-01 3.013222e-01 4.469806e-01 4.843936e-01 4.098613e-01 1.679517e-01 3.715904e-01 3.273810e-01 2.635998e-01 5.587465e-01 3.327898e-01 5.446512e-01 4.066778e-01 5.313669e-01 1.706286e-01 7.287563e-01 1.841435e-02 1.566880e+00 2.443074e-01 -1.482498e+00 7.113880e-01 2.518861e-01 -2.785863e-02 -5.290581e-02 
-8.055564e-02 -5.241028e-02 1.418634e-01 5.809903e-01 -1.634791e+00 -4.017929e+00 -3.263938e-02 -6.654847e-01 -6.014791e-01 -7.136156e-01 -6.608301e-01 -5.809665e-01 4.917453e-01 1.655795e-01 -3.831763e-02 1.086660e-01 1.162826e-01 5.171098e-02 8.146882e-02 5.222380e-02 1.349339e-02 4.221526e-01 -4.137147e-01 -3.114960e-01 -7.414442e-01 -5.440537e-01 -8.719115e-01 -7.022519e-01 -1.015300e+00 -6.501267e-01 -7.440906e-01 -6.466053e-01 -8.007937e-01 -9.773349e-01 -9.283339e-01 -6.330763e-01 -6.495016e-01 -7.381417e-01 -7.443180e-01 -6.926605e-01 -6.371822e-01 -7.823991e-01 -6.470350e-01 -8.665855e-01 -8.263995e-01 -8.650974e-01 -8.083260e-01 -8.264669e-01 -8.394049e-01 -7.763327e-01 -7.398355e-01 -7.465871e-01 -7.152084e-01 -7.781986e-01 -8.332291e-01 -9.454187e-01 -6.699061e-01 -8.064799e-01 -1.033728e+00 -9.216779e-01 -1.174845e+00 -1.339838e+00 -1.006563e+00 -8.684685e-01 -9.222561e-01 -9.394993e-01 -1.333449e+00 -1.456038e+00 -1.597408e+00 -1.890051e+00 -1.764317e+00 -1.598662e+00 -1.826574e+00 -1.437106e+00 -1.290885e+00 -1.124503e+00 -1.009797e+00 -9.526179e-01 -9.942475e-01 -1.009320e+00 -7.979793e-01 -8.594837e-01 -8.583853e-01 -8.151467e-01 -7.044430e-01 -8.493275e-01 -8.828431e-01 -7.390605e-01 -8.129908e-01 -8.485903e-01 -9.274508e-01 -8.306425e-01 -7.939315e-01 -6.214839e-01 -7.622277e-01 -9.581507e-01 -1.030421e+00 -9.307195e-01 -9.269435e-01 -9.119360e-01 -5.936079e-01 -6.057130e-01 -6.052042e-01 -9.867018e-01 -6.934812e-01 -9.799222e-01 -6.838484e-01 -8.340299e-01 -6.352545e-01 -1.068012e+00 -9.540847e-01 -1.026125e+00 -8.594253e-01 -7.457335e-01 -7.630401e-01 -5.187512e-01 -8.570995e-01 -6.712997e-01 -1.110438e+00 -5.341416e-01 -1.527101e+00 -2.904989e-02 -3.689997e+00 -3.275755e+00 2.217905e+00 7.224234e-01 -2.926513e-02 -1.084526e-01 
-7.946764e-02 -6.779512e-02 9.434874e-02 6.195333e-01 -2.348179e-01 -1.669338e+00 -3.037470e+00 -2.379103e+00 -1.054866e+00 -1.489346e+00 -1.017068e+00 -1.189946e+00 -1.297702e+00 -1.431875e+00 -1.095918e+00 -1.294102e+00 -1.131079e+00 -1.283712e+00 -1.150533e+00 -1.171477e+00 -1.165582e+00 -1.327535e+00 -1.345695e+00 -1.237848e+00 -1.395078e+00 -1.081574e+00 -1.207491e+00 -1.257692e+00 -1.632172e+00 -1.424779e+00 -1.502787e+00 -1.310147e+00 -1.374630e+00 -1.336409e+00 -1.583596e+00 -1.436625e+00 -1.464108e+00 -1.430097e+00 -1.338965e+00 -1.268049e+00 -1.378824e+00 -1.493135e+00 -1.444289e+00 -1.436489e+00 -1.435293e+00 -1.422000e+00 -1.496593e+00 -1.528483e+00 -1.578086e+00 -1.473456e+00 -1.415602e+00 -1.414984e+00 -1.281680e+00 -1.380208e+00 -1.509129e+00 -1.785321e+00 -1.705218e+00 -1.566584e+00 -1.562393e+00 -1.725690e+00 -1.572001e+00 -1.589296e+00 -1.807930e+00 -1.671224e+00 -1.846395e+00 -2.025688e+00 -1.861975e+00 -1.811632e+00 -1.832698e+00 -1.896138e+00 -2.177237e+00 -2.255529e+00 -2.087275e+00 -1.759412e+00 -1.778906e+00 -1.700085e+00 -1.622315e+00 -1.446371e+00 -1.651719e+00 -1.849851e+00 -1.714617e+00 -1.470912e+00 -1.235103e+00 -1.293010e+00 -1.377130e+00 -1.537699e+00 -1.409318e+00 -1.334954e+00 -1.484735e+00 -1.550290e+00 -1.502919e+00 -1.324349e+00 -1.435472e+00 -1.267526e+00 -1.416001e+00 -1.387222e+00 -1.598889e+00 -1.589969e+00 -1.575309e+00 -1.599041e+00 -1.345031e+00 -1.295812e+00 -1.234410e+00 -1.419153e+00 -1.481533e+00 -1.515495e+00 -1.358885e+00 -1.598785e+00 -1.251565e+00 -1.435693e+00 -1.567580e+00 -1.604643e+00 -1.312458e+00 -1.595604e+00 -1.297452e+00 -1.311420e+00 -1.509864e+00 -1.459801e+00 -1.477665e+00 -1.535806e+00 -1.686099e+00 -1.952837e+00 -4.523220e+00 -1.672735e+00 1.663060e+00 3.511678e-01 -1.175560e-01 -1.136212e-01 
-4.041291e-02 -5.980349e-02 -6.256273e-02 1.169355e-01 6.033407e-01 7.621162e-01 -1.688965e+00 -1.161272e+00 -3.629689e-01 -5.612243e-01 -2.266529e-01 -3.480516e-01 -1.453287e+00 -1.146847e+00 -7.835965e-01 -7.876230e-01 -7.824842e-01 -7.858652e-01 -7.868779e-01 -7.683600e-01 -1.039084e+00 -1.257866e+00 -5.654637e-01 -5.478418e-01 -4.982552e-01 -3.766118e-01 -3.279127e-01 -4.115954e-01 -5.176559e-01 -5.279873e-01 -5.425718e-01 -4.631578e-01 -4.479687e-01 -3.566967e-01 -5.214533e-01 -5.428114e-01 -5.546933e-01 -5.013059e-01 -4.467960e-01 -4.256342e-01 -5.093214e-01 -5.234985e-01 -5.437266e-01 -4.609220e-01 -4.743026e-01 -4.550326e-01 -5.190216e-01 -5.335512e-01 -5.587966e-01 -5.254841e-01 -5.095522e-01 -5.105116e-01 -4.371661e-01 -4.125409e-01 -2.919405e-01 -2.865527e-01 -7.844825e-01 -6.644505e-01 -2.429588e-01 -4.297010e-01 -3.223943e-02 8.649975e-02 -4.064718e-01 -7.199138e-01 -5.859308e-01 -7.333822e-01 -4.145530e-01 3.705498e-02 5.077190e-03 4.770973e-01 4.563549e-01 4.930755e-01 4.169484e-01 -2.362301e-01 -5.205298e-01 -5.626403e-01 -5.550670e-01 -4.703252e-01 -5.647791e-01 -6.703642e-01 -6.612034e-01 -4.953266e-01 -3.541069e-01 -4.035603e-01 -4.900744e-01 -5.271225e-01 -4.398254e-01 -4.472603e-01 -5.093856e-01 -5.298737e-01 -4.762333e-01 -4.036714e-01 -4.863446e-01 -4.478987e-01 -4.851887e-01 -3.928741e-01 -4.915542e-01 -5.207951e-01 -5.154129e-01 -5.326411e-01 -5.053697e-01 -4.698795e-01 -4.360860e-01 -4.014549e-01 -5.451141e-01 -4.607520e-01 -4.766074e-01 -5.635784e-01 -4.329805e-01 -3.822371e-01 -4.965074e-01 -4.974235e-01 -3.825256e-01 -5.937746e-01 -4.115344e-01 -5.109404e-01 -4.960619e-01 -5.383833e-01 -3.750183e-01 -6.075458e-01 -3.060196e-01 -1.022031e+00 -1.244948e+00 3.011138e-01 2.288097e-01 -8.232016e-02 -1.023393e-01 -5.542463e-02 
-1.044296e-02 -1.874178e-02 -3.642943e-02 -3.827754e-02 3.064647e-02 1.333152e-01 -7.121602e-02 -8.495177e-02 -1.830892e-02 -1.690418e-03 1.659952e-01 2.680299e-01 -1.299983e+00 -1.279404e+00 -5.484612e-01 -5.472852e-01 -5.470703e-01 -5.472104e-01 -5.472379e-01 -5.472664e-01 -1.116362e+00 -1.164706e+00 6.247905e-02 3.046305e-03 -3.899859e-02 -2.243813e-02 -9.936853e-03 -7.447620e-03 -1.255641e-02 -1.236915e-02 -1.398432e-02 -9.812672e-03 -1.090092e-02 -4.897870e-03 -1.441738e-02 -1.389779e-02 -1.616746e-02 -1.229770e-02 -1.129688e-02 -9.960601e-03 -1.410327e-02 -1.432877e-02 -1.579653e-02 -1.208029e-02 -1.348868e-02 -1.295110e-02 -1.664833e-02 -1.782522e-02 -2.041085e-02 -2.060658e-02 -2.188608e-02 -2.224829e-02 -9.857764e-03 3.355720e-02 1.455010e-01 2.952723e-01 3.488976e-01 2.991275e-01 3.091827e-01 2.478750e-01 2.658929e-01 2.744332e-01 2.333558e-01 3.284138e-01 3.755410e-01 3.700906e-01 3.686455e-01 5.025878e-01 3.757190e-01 2.234400e-01 4.832259e-01 7.317052e-01 7.311438e-01 4.224699e-01 1.142042e-01 1.333453e-02 -1.649678e-02 -2.214911e-02 -2.784743e-02 -3.161454e-02 -2.859068e-02 -2.018059e-02 -1.249737e-02 -1.486981e-02 -1.705208e-02 -1.726455e-02 -1.277338e-02 -1.298194e-02 -1.604422e-02 -1.544431e-02 -1.337530e-02 -9.269964e-03 -1.413375e-02 -1.110809e-02 -1.319165e-02 -8.228949e-03 -1.318006e-02 -1.388293e-02 -1.444920e-02 -1.374312e-02 -1.498582e-02 -1.052137e-02 -1.205538e-02 -7.072276e-03 -1.622670e-02 -1.015544e-02 -1.294569e-02 -1.530094e-02 -1.145622e-02 -6.315865e-03 -1.288393e-02 -1.306567e-02 -6.431907e-03 -1.730130e-02 -8.922503e-03 -1.298602e-02 -9.840665e-03 -1.540570e-02 1.364189e-04 -1.065996e-02 2.246899e-02 -7.740923e-03 -3.465736e-03 2.436290e-02 -4.723266e-02 -5.903284e-02 -3.430380e-02 -1.497540e-02 
-1.866125e-03 -3.806179e-03 -8.731918e-03 -1.518874e-02 -1.666591e-02 -9.075262e-03 -1.481558e-02 -2.057948e-02 -1.831817e-02 4.433888e-04 8.277602e-02 1.565954e-01 -6.576965e-01 -6.385126e-01 -2.750169e-01 -2.743296e-01 -2.743283e-01 -2.743282e-01 -2.743289e-01 -2.746989e-01 -5.448004e-01 -5.707702e-01 2.472540e-02 -1.860483e-02 -3.727992e-02 -2.627130e-02 -1.715223e-02 -1.339952e-02 -1.262352e-02 -1.238799e-02 -1.254534e-02 -1.250741e-02 -1.268878e-02 -1.260378e-02 -1.276431e-02 -1.265299e-02 -1.277098e-02 -1.267608e-02 -1.276914e-02 -1.274248e-02 -1.276735e-02 -1.276031e-02 -1.276401e-02 -1.279537e-02 -1.282722e-02 -1.289286e-02 -1.295809e-02 -1.307719e-02 -1.327916e-02 -1.366274e-02 -1.436557e-02 -1.511602e-02 -1.228640e-02 1.036914e-02 7.670593e-02 7.257856e-02 -1.490961e-01 -5.763958e-02 1.071889e-01 7.546564e-02 3.936554e-01 4.022697e-01 -1.326016e-01 -2.868444e-01 -2.018927e-01 -2.524730e-01 3.217714e-02 9.828145e-02 2.520366e-01 6.259902e-01 4.661252e-01 3.959134e-01 3.528513e-01 1.517981e-01 6.362156e-02 2.563890e-02 2.971602e-03 -8.946901e-03 -1.365681e-02 -1.493010e-02 -1.493615e-02 -1.468849e-02 -1.442203e-02 -1.420876e-02 -1.395368e-02 -1.370972e-02 -1.355499e-02 -1.341021e-02 -1.335756e-02 -1.320980e-02 -1.318477e-02 -1.307447e-02 -1.308737e-02 -1.296194e-02 -1.297779e-02 -1.290992e-02 -1.295609e-02 -1.286160e-02 -1.293461e-02 -1.278236e-02 -1.294388e-02 -1.272559e-02 -1.295165e-02 -1.272154e-02 -1.291242e-02 -1.272134e-02 -1.290179e-02 -1.273198e-02 -1.291998e-02 -1.269350e-02 -1.286339e-02 -1.276290e-02 -1.279716e-02 -1.275746e-02 -1.284040e-02 -1.271920e-02 -1.268387e-02 -1.280621e-02 -1.251147e-02 -1.244492e-02 -1.072350e-02 -8.634847e-03 -7.766380e-03 -1.559072e-02 -1.888691e-02 -1.284026e-02 -6.052106e-03 -2.407824e-03 
-1.424884e-07 1.152426e-07 -2.838897e-07 4.707571e-08 2.105430e-07 5.335587e-07 -1.442995e-07 -2.334231e-08 -4.996239e-08 6.960571e-07 5.595377e-06 -6.350045e-06 9.947092e-04 -3.593346e-03 -7.203858e-06 9.852763e-10 2.422868e-08 5.321252e-09 1.864003e-08 3.037610e-06 3.176192e-03 -9.629943e-03 -5.825186e-04 -1.029235e-04 1.423783e-05 1.556610e-05 6.956834e-06 3.554787e-06 2.640001e-06 2.174367e-06 4.618029e-06 4.872419e-06 7.480755e-06 5.355940e-06 8.086412e-06 7.042341e-06 1.154715e-05 1.149310e-05 1.428554e-05 1.298191e-05 1.526121e-05 1.632165e-05 1.897090e-05 1.911795e-05 1.656025e-05 1.110887e-05 9.185960e-07 -1.584936e-05 -6.619304e-05 -2.147016e-04 -6.626426e-04 -1.448789e-03 -7.912271e-04 9.245366e-03 2.829287e-02 -2.685366e-02 -1.940376e-01 -1.040354e-01 1.355697e-01 8.530924e-02 6.253759e-02 6.033168e-02 -1.309279e-01 -1.520037e-01 -8.097556e-02 -9.366433e-02 7.280234e-02 1.583490e-01 6.043764e-02 6.270554e-02 1.608335e-01 2.865265e-01 2.731055e-01 1.375636e-01 5.620275e-02 3.104247e-02 1.517998e-02 5.563170e-03 1.269197e-03 -1.765696e-04 -5.324530e-04 -5.440339e-04 -4.946241e-04 -4.245470e-04 -3.645171e-04 -3.041186e-04 -2.542420e-04 -2.120671e-04 -1.782276e-04 -1.513526e-04 -1.261422e-04 -1.059008e-04 -8.524759e-05 -7.161401e-05 -5.725324e-05 -4.950248e-05 -4.005546e-05 -3.335146e-05 -2.678344e-05 -2.021079e-05 -1.839765e-05 -1.443059e-05 -1.347817e-05 -1.053352e-05 -7.374029e-06 -6.453525e-06 -5.113361e-06 -4.993022e-06 -4.451238e-06 -3.601641e-06 -1.284032e-06 -2.234837e-06 -2.280024e-06 -1.110965e-06 -2.613741e-06 -1.260584e-06 6.429135e-07 1.642525e-06 1.345957e-06 -3.778066e-06 -1.002070e-05 -1.171529e-05 -3.781924e-06 -5.083102e-07 6.525984e-07 1.007589e-06 3.162820e-07 3.826112e-07 
1.866448e-03 3.806818e-03 8.731460e-03 1.519136e-02 1.667633e-02 9.093490e-03 1.479857e-02 2.057483e-02 1.831740e-02 -4.293140e-04 -8.271833e-02 -1.566678e-01 6.574910e-01 6.314468e-01 2.750026e-01 2.743297e-01 2.743284e-01 2.743283e-01 2.743289e-01 2.747197e-01 5.616677e-01 5.603132e-01 -2.633137e-02 1.827910e-02 3.732387e-02 2.631733e-02 1.717353e-02 1.340131e-02 1.262398e-02 1.235274e-02 1.258353e-02 1.251412e-02 1.271132e-02 1.261998e-02 1.275205e-02 1.266031e-02 1.276133e-02 1.268860e-02 1.275819e-02 1.272365e-02 1.274314e-02 1.273774e-02 1.271365e-02 1.272179e-02 1.268081e-02 1.268663e-02 1.263576e-02 1.261896e-02 1.248839e-02 1.215530e-02 1.095841e-02 8.090091e-03 4.443804e-03 8.073056e-03 9.718073e-04 -1.230219e-01 -3.179659e-01 -2.340741e-01 -4.919288e-03 3.146369e-02 2.576409e-01 2.721273e-01 -2.040391e-01 -2.717672e-01 -2.430251e-01 -2.840062e-01 6.191425e-03 1.120568e-01 1.792262e-01 3.942365e-01 3.193197e-01 1.923735e-01 2.177686e-01 1.484223e-01 5.887741e-02 4.290635e-02 2.863395e-02 1.820152e-02 1.328862e-02 1.168358e-02 1.134615e-02 1.143029e-02 1.158805e-02 1.174503e-02 1.190619e-02 1.202561e-02 1.217329e-02 1.224458e-02 1.234896e-02 1.239750e-02 1.248946e-02 1.252449e-02 1.260302e-02 1.260314e-02 1.269061e-02 1.264699e-02 1.274404e-02 1.265301e-02 1.278817e-02 1.266500e-02 1.283267e-02 1.268446e-02 1.286632e-02 1.269654e-02 1.287071e-02 1.268441e-02 1.286842e-02 1.268279e-02 1.287088e-02 1.270389e-02 1.286318e-02 1.272458e-02 1.284122e-02 1.274205e-02 1.278557e-02 1.275795e-02 1.268585e-02 1.276325e-02 1.254423e-02 1.243440e-02 1.061495e-02 8.575360e-03 7.759794e-03 1.558085e-02 1.888784e-02 1.284511e-02 6.054943e-03 2.409793e-03 
1.044496e-02 1.874318e-02 3.643449e-02 3.832400e-02 -3.047446e-02 -1.334816e-01 6.814446e-02 8.216339e-02 1.941805e-02 3.548250e-03 -1.615485e-01 -2.630678e-01 1.299517e+00 1.262249e+00 5.484809e-01 5.474516e-01 5.472309e-01 5.471576e-01 5.472174e-01 5.477650e-01 1.135024e+00 1.148690e+00 -7.289044e-02 -1.343152e-02 3.612193e-02 2.736778e-02 2.031528e-02 1.217765e-02 1.208682e-02 7.340126e-03 9.195351e-03 9.050894e-03 1.460974e-02 1.250979e-02 1.515266e-02 1.139008e-02 1.346108e-02 1.133028e-02 1.301528e-02 1.122875e-02 1.118053e-02 9.610635e-03 1.139645e-02 1.100015e-02 1.334310e-02 1.151073e-02 1.079447e-02 7.325321e-03 6.651108e-03 6.218290e-03 6.914047e-03 4.874584e-03 3.106381e-03 1.202095e-02 1.831739e-02 -3.205653e-01 -1.211229e+00 -1.000332e+00 -1.857838e-01 -1.242911e-01 -4.601235e-02 -6.926788e-02 -4.279596e-01 -5.467964e-01 -2.799760e-01 -3.180494e-01 1.962680e-01 4.833286e-01 4.343111e-01 7.231872e-01 7.602036e-01 1.099084e+00 8.101081e-01 1.520737e-01 3.986197e-02 3.562429e-02 2.047366e-02 9.530767e-03 3.267598e-03 2.534131e-03 1.707602e-03 5.103057e-03 8.872972e-03 1.186826e-02 1.146874e-02 7.794539e-03 7.267486e-03 6.097834e-03 8.370950e-03 7.282490e-03 9.966114e-03 1.009858e-02 1.351875e-02 1.169556e-02 1.209290e-02 9.160767e-03 1.058022e-02 8.235292e-03 1.153339e-02 9.385642e-03 1.415277e-02 1.060135e-02 1.427418e-02 9.230418e-03 1.150002e-02 8.757261e-03 1.243330e-02 1.199215e-02 1.303941e-02 1.259208e-02 1.182522e-02 1.274874e-02 8.792474e-03 1.398332e-02 9.201826e-03 1.417261e-02 6.419464e-03 1.546835e-02 1.492386e-04 8.262124e-03 -2.232370e-02 8.274269e-03 2.621818e-03 -2.456022e-02 4.722381e-02 5.904659e-02 3.431594e-02 1.498173e-02 
4.041937e-02 5.981204e-02 6.261617e-02 -1.165807e-01 -6.014359e-01 -7.675455e-01 1.625415e+00 1.098157e+00 3.899267e-01 6.066024e-01 3.166282e-01 4.540137e-01 1.414697e+00 1.094390e+00 7.845173e-01 7.916581e-01 7.862636e-01 7.843552e-01 7.865477e-01 7.794522e-01 1.150581e+00 1.301757e+00 3.592048e-01 3.344254e-01 4.185391e-01 4.878981e-01 5.634590e-01 5.247555e-01 5.074124e-01 4.353585e-01 4.297904e-01 4.497533e-01 5.344869e-01 5.192528e-01 5.506151e-01 4.966116e-01 5.141857e-01 4.918017e-01 5.080379e-01 4.799141e-01 4.735350e-01 4.484028e-01 4.927580e-01 4.902722e-01 5.514131e-01 5.162654e-01 5.012606e-01 4.294863e-01 4.254443e-01 4.365251e-01 4.973230e-01 5.434615e-01 5.828410e-01 5.508405e-01 4.940834e-01 3.151873e-01 -1.313653e-02 1.621585e-01 5.422223e-01 6.036771e-01 5.096641e-01 4.602005e-01 2.865321e-01 3.020823e-01 3.462510e-01 3.790901e-01 5.823174e-01 7.161524e-01 6.090496e-01 4.755260e-01 4.936587e-01 6.560437e-01 6.461694e-01 4.511186e-01 4.996458e-01 4.862693e-01 4.405126e-01 4.163683e-01 3.896211e-01 3.984323e-01 3.797703e-01 4.349476e-01 5.073060e-01 5.664382e-01 5.387244e-01 4.481113e-01 4.183959e-01 3.941286e-01 4.305460e-01 4.100322e-01 4.575528e-01 4.566021e-01 5.185143e-01 4.853246e-01 4.715546e-01 4.218854e-01 4.361691e-01 4.223420e-01 4.575332e-01 4.521024e-01 5.114035e-01 4.792783e-01 4.992842e-01 4.360863e-01 4.401588e-01 4.302042e-01 4.649164e-01 5.010869e-01 4.817552e-01 5.022834e-01 4.657114e-01 5.075711e-01 4.169199e-01 5.254462e-01 4.431235e-01 5.224722e-01 4.200995e-01 5.626890e-01 3.694927e-01 5.440816e-01 3.270575e-01 1.031335e+00 1.217010e+00 -3.030344e-01 -2.285466e-01 8.231184e-02 1.023670e-01 5.544090e-02 
7.946767e-02 6.779001e-02 -9.429400e-02 -6.188924e-01 2.522878e-01 1.712211e+00 2.944911e+00 2.216151e+00 1.105720e+00 1.579781e+00 1.084368e+00 1.325243e+00 1.249530e+00 1.317562e+00 1.084834e+00 1.307570e+00 1.145192e+00 1.282626e+00 1.175170e+00 1.222163e+00 1.280067e+00 1.317520e+00 1.159054e+00 1.034155e+00 1.290708e+00 1.341058e+00 1.613300e+00 1.415459e+00 1.510998e+00 1.319643e+00 1.385896e+00 1.294752e+00 1.486041e+00 1.419068e+00 1.544957e+00 1.405952e+00 1.430007e+00 1.385162e+00 1.406532e+00 1.347685e+00 1.369023e+00 1.444724e+00 1.484322e+00 1.543025e+00 1.650424e+00 1.610531e+00 1.453050e+00 1.313725e+00 1.294186e+00 1.332048e+00 1.415692e+00 1.454529e+00 1.501102e+00 1.539784e+00 1.573600e+00 1.605622e+00 1.784595e+00 1.811458e+00 1.615790e+00 1.668252e+00 1.572889e+00 1.557723e+00 1.474448e+00 1.508460e+00 1.257500e+00 1.260451e+00 1.150000e+00 1.179700e+00 1.237088e+00 1.091401e+00 1.099000e+00 8.095575e-01 9.154904e-01 1.090875e+00 1.253134e+00 1.313588e+00 1.309595e+00 1.247394e+00 1.207691e+00 1.291263e+00 1.260058e+00 1.296218e+00 1.482029e+00 1.624328e+00 1.546321e+00 1.337521e+00 1.412927e+00 1.330012e+00 1.391304e+00 1.339670e+00 1.487354e+00 1.358055e+00 1.454218e+00 1.384307e+00 1.323040e+00 1.193347e+00 1.322393e+00 1.437496e+00 1.441858e+00 1.511967e+00 1.600646e+00 1.631672e+00 1.398409e+00 1.400317e+00 1.278037e+00 1.411338e+00 1.268119e+00 1.492538e+00 1.296928e+00 1.435058e+00 1.386103e+00 1.664424e+00 1.510075e+00 1.586283e+00 1.447045e+00 1.440388e+00 1.412067e+00 1.461388e+00 1.433175e+00 1.341892e+00 1.597908e+00 1.946771e+00 4.535951e+00 1.710564e+00 -1.658017e+00 -3.514151e-01 1.175605e-01 1.136315e-01 
8.054676e-02 5.238960e-02 -1.419044e-01 -5.807151e-01 1.657871e+00 4.100588e+00 5.848742e-02 5.802616e-01 6.082874e-01 7.320872e-01 5.236078e-01 5.061508e-01 -4.368545e-01 -1.675393e-01 5.350897e-03 -9.463348e-02 -9.246086e-02 -8.682275e-02 -3.274885e-03 -3.165705e-02 -2.201799e-01 -5.416844e-01 6.762065e-01 5.670161e-01 7.954916e-01 6.507091e-01 8.710517e-01 6.428296e-01 8.520445e-01 7.340025e-01 8.649764e-01 6.584516e-01 7.387581e-01 6.669611e-01 7.849460e-01 7.080624e-01 7.010557e-01 6.889432e-01 6.789181e-01 6.641133e-01 7.111436e-01 9.013626e-01 8.381132e-01 9.402307e-01 9.372040e-01 9.730717e-01 7.616138e-01 7.394949e-01 7.159093e-01 7.452408e-01 7.070714e-01 6.343161e-01 5.881488e-01 7.266988e-01 9.475214e-01 1.114233e+00 1.192370e+00 1.151147e+00 9.777584e-01 8.279467e-01 7.550071e-01 6.993828e-01 7.069090e-01 7.139106e-01 6.049767e-01 5.403136e-01 5.907360e-01 5.805470e-01 4.680608e-01 4.743165e-01 5.824735e-01 5.843928e-01 5.018219e-01 4.414129e-01 4.591141e-01 5.843974e-01 6.772141e-01 6.390400e-01 6.440859e-01 7.581871e-01 7.629809e-01 6.767249e-01 7.768858e-01 8.424115e-01 8.012215e-01 7.170082e-01 9.239858e-01 8.553802e-01 8.609095e-01 8.287981e-01 9.408104e-01 7.343371e-01 7.261833e-01 6.989570e-01 6.490651e-01 5.723984e-01 7.435328e-01 9.537488e-01 8.721961e-01 9.909002e-01 9.748182e-01 1.107368e+00 6.891112e-01 8.644609e-01 6.589811e-01 8.985639e-01 5.733566e-01 8.347521e-01 5.714011e-01 7.426061e-01 7.539372e-01 1.089326e+00 1.079631e+00 9.166974e-01 9.083959e-01 6.928973e-01 9.104014e-01 6.036830e-01 1.055455e+00 4.030727e-01 1.326402e+00 -7.745929e-03 3.787058e+00 3.339192e+00 -2.211615e+00 -7.228898e-01 2.923858e-02 1.084366e-01 
3.660100e-02 1.879339e-02 -6.645338e-02 -1.789325e-01 1.028575e+00 2.225286e+00 -2.071926e+00 -1.119987e+00 -2.772243e-01 -5.618096e-01 -4.783068e-01 -5.721724e-01 1.101150e+00 -1.926773e-01 -3.863689e-01 -6.363365e-01 -3.202264e-01 -6.955660e-01 -3.425454e-01 -8.300783e-01 -2.905668e-02 6.619149e-01 -2.633379e-01 -3.890511e-01 -3.069005e-01 -4.522181e-01 -4.590221e-01 -5.144784e-01 -4.042111e-01 -3.684602e-01 -3.038123e-01 -4.140083e-01 -4.839190e-01 -4.961766e-01 -4.887448e-01 -4.514237e-01 -4.765033e-01 -4.521861e-01 -4.789259e-01 -4.455018e-01 -4.249731e-01 -3.170244e-01 -4.022748e-01 -3.558862e-01 -4.397625e-01 -3.776369e-01 -4.438567e-01 -3.592489e-01 -3.666121e-01 -3.682484e-01 -4.615307e-01 -5.512973e-01 -6.250328e-01 -5.410274e-01 -3.832947e-01 -2.727977e-01 -3.353186e-01 -3.758181e-01 -3.710134e-01 -5.483227e-01 -5.541016e-01 -5.992595e-01 -5.257209e-01 -5.420653e-01 -4.540035e-01 -5.216195e-01 -4.047983e-01 -4.410231e-01 -5.864314e-01 -4.817448e-01 -3.880743e-01 -1.543533e-01 -3.027545e-01 -4.857822e-01 -5.893819e-01 -5.249188e-01 -4.437886e-01 -4.243075e-01 -3.880350e-01 -3.466538e-01 -3.169308e-01 -4.123646e-01 -4.607874e-01 -5.079804e-01 -4.826700e-01 -4.028304e-01 -2.801186e-01 -2.798668e-01 -3.153896e-01 -3.086705e-01 -3.172327e-01 -4.011669e-01 -4.733339e-01 -4.496489e-01 -4.432145e-01 -4.164579e-01 -3.636163e-01 -2.716221e-01 -3.431931e-01 -2.934095e-01 -3.737954e-01 -2.809567e-01 -4.688559e-01 -3.161803e-01 -4.073728e-01 -2.940897e-01 -4.734120e-01 -4.064098e-01 -4.964413e-01 -4.423809e-01 -4.077694e-01 -3.175328e-01 -2.224823e-01 -4.076616e-01 -3.193453e-01 -4.921802e-01 -2.898815e-01 -5.886819e-01 -1.856206e-01 -6.975546e-01 -1.228118e-01 -1.594220e+00 -1.713667e-01 1.509192e+00 -7.095166e-01 -2.521741e-01 2.777203e-02 5.287576e-02 
7.210194e-03 4.130239e-03 -9.243494e-03 -8.673381e-03 1.907401e-01 4.454503e-01 -7.516926e-01 -4.789347e-01 -1.237900e-01 -2.639126e-01 -2.281390e-01 -4.171581e-01 2.944457e-01 1.575740e+00 2.059992e+00 1.608888e+00 1.961014e+00 1.791374e+00 1.766849e+00 2.037748e+00 1.523746e+00 9.038076e-02 -3.242436e-01 -2.136567e-01 -1.798867e-01 -2.172643e-01 -2.534235e-01 -2.442709e-01 -2.306280e-01 -1.993841e-01 -1.931968e-01 -2.069451e-01 -2.462158e-01 -2.395942e-01 -2.537282e-01 -2.272259e-01 -2.376331e-01 -2.250490e-01 -2.354978e-01 -2.196160e-01 -2.186989e-01 -2.013600e-01 -2.261978e-01 -2.211732e-01 -2.532365e-01 -2.333413e-01 -2.310757e-01 -1.949259e-01 -1.943355e-01 -1.982269e-01 -2.285263e-01 -2.532644e-01 -2.767560e-01 -2.664794e-01 -2.424624e-01 -2.327866e-01 -2.824951e-01 -3.094703e-01 -2.979509e-01 -3.512560e-01 -3.239969e-01 -2.897329e-01 -2.093474e-01 -1.996473e-01 -1.729299e-01 -2.360335e-01 -2.348591e-01 -2.535921e-01 -2.616389e-01 -1.646274e-01 -9.249233e-02 1.809300e-02 -5.412179e-02 -1.553925e-01 -2.290073e-01 -2.401339e-01 -2.291777e-01 -2.181428e-01 -2.032551e-01 -2.002081e-01 -1.877048e-01 -2.121776e-01 -2.433502e-01 -2.694854e-01 -2.538860e-01 -2.116377e-01 -1.914855e-01 -1.820937e-01 -1.962140e-01 -1.895403e-01 -2.072983e-01 -2.130870e-01 -2.395730e-01 -2.271404e-01 -2.181207e-01 -1.974927e-01 -1.998824e-01 -1.909108e-01 -2.091439e-01 -2.038281e-01 -2.349852e-01 -2.141996e-01 -2.346528e-01 -1.958937e-01 -2.069675e-01 -1.914855e-01 -2.211860e-01 -2.263219e-01 -2.298175e-01 -2.285072e-01 -2.193787e-01 -2.262966e-01 -1.901910e-01 -2.390175e-01 -2.041469e-01 -2.429661e-01 -1.912463e-01 -2.690102e-01 -1.661160e-01 -2.818703e-01 -1.707672e-01 -5.821335e-01 -5.050300e-01 1.700252e-01 -7.967736e-03 -6.005441e-03 1.180678e-02 1.048745e-02 
