# vtk DataFile Version 2.0
Comment goes here
ASCII

DATASET STRUCTURED_POINTS
FIELD FieldData 1
TIME 1 1 double
0.15000000
DIMENSIONS    128   16   1

ORIGIN    0.000   0.000   0.000
SPACING   0.0078125 0.015625   1.000

POINT_DATA   2048
SCALARS Omega double
LOOKUP_TABLE default

-2.703936e-06 -6.606182e-06 -2.144233e-05 -5.509631e-05 -6.817392e-05 2.177652e-05 -4.571780e-05 1.422537e-05 2.087218e-05 -6.830827e-06 4.175566e-05 3.834529e-05 -1.623591e-04 6.452901e-05 -4.367238e-05 -4.578550e-05 -2.398702e-05 -2.388517e-04 5.403114e-05 -3.170287e-04 -8.394159e-05 1.504832e-04 1.311109e-05 -8.747805e-05 -5.271483e-05 -2.655763e-05 3.185944e-05 2.534075e-06 -7.979296e-05 -1.056098e-04 -5.587191e-05 9.906131e-05 7.383816e-05 3.072977e-05 -9.736813e-05 2.175474e-05 1.245249e-05 7.595199e-05 -5.228373e-05 -1.050003e-04 -1.133830e-05 2.557914e-04 3.659210e-04 3.140714e-04 6.193139e-04 7.554418e-04 1.335523e-03 1.604894e-03 2.335518e-03 2.439191e-03 2.096961e-03 -1.749319e-03 -1.060114e-02 -2.678669e-02 -5.411112e-02 -1.073248e-01 -2.000131e-01 -2.651565e-01 -2.950108e-01 -2.422426e-01 -3.046944e-03 1.488289e-01 1.136837e-01 8.514523e-02 4.633653e-02 -5.439781e-02 -1.197959e-01 -1.044744e-01 1.007408e-01 4.493608e-01 5.390027e-01 4.429398e-01 3.731065e-01 2.784243e-01 1.687247e-01 8.120826e-02 2.831157e-02 3.239207e-03 -5.453161e-03 -6.465736e-03 -5.452189e-03 -3.659551e-03 -2.530256e-03 -1.287721e-03 -8.768385e-04 -1.529068e-04 -2.703747e-04 1.358312e-04 -3.871011e-06 1.382205e-04 -1.057807e-04 1.394945e-04 3.146771e-04 2.968648e-04 1.388024e-04 6.696616e-05 2.521968e-05 1.355434e-05 1.054142e-04 9.851219e-05 -4.731681e-05 1.876389e-04 1.491975e-04 -2.020653e-05 -9.550191e-05 8.649103e-05 -4.298828e-05 -4.224936e-05 2.321151e-04 -1.446076e-04 1.958935e-05 1.377599e-04 2.195493e-05 -7.643582e-05 4.419299e-05 -4.467369e-05 -9.967642e-05 1.915026e-04 -2.237768e-06 -8.812061e-05 2.083318e-04 6.795694e-05 2.075669e-04 2.541211e-04 1.238440e-04 4.335436e-05 9.418383e-06 -2.476430e-07 
-8.339000e-03 -5.728192e-03 -1.302749e-02 -4.172292e-02 8.949977e-02 8.624422e-01 -1.401354e-01 -2.954187e-01 1.529898e-01 -2.403769e-02 8.482872e-02 -2.011743e-01 4.832774e-02 3.893189e-01 4.388665e-01 1.267864e-01 5.393727e-01 2.832942e-01 4.026494e-01 5.288748e-01 2.982485e-01 -6.264791e-03 -9.773738e-02 5.064598e-02 4.337933e-02 5.290065e-02 4.527272e-02 8.350603e-02 5.143112e-02 5.494072e-02 1.599939e-02 5.299354e-02 4.194550e-02 7.599628e-02 3.616234e-02 5.121601e-02 3.482670e-02 8.220920e-02 6.512372e-02 5.888504e-02 3.079969e-02 4.268335e-02 4.068530e-02 5.870571e-02 4.927330e-02 4.347742e-02 5.944416e-02 6.228558e-02 5.019947e-02 2.641385e-02 3.018911e-02 2.792514e-02 3.428971e-02 1.292952e-02 -7.731092e-02 -4.025961e-01 -1.130452e+00 -1.424898e+00 -1.231856e+00 -7.278248e-01 8.983639e-01 1.204355e+00 -1.765633e-01 -9.750675e-01 -9.381779e-01 -1.100158e+00 -1.277307e+00 -1.232914e+00 8.682751e-02 2.662061e+00 2.446922e+00 7.813834e-01 4.668098e-01 3.995245e-01 2.829421e-01 1.486852e-01 8.798395e-02 6.672774e-02 5.749761e-02 3.469514e-02 9.425523e-03 3.479538e-02 5.924070e-02 5.223864e-02 1.423265e-02 1.910904e-02 3.838279e-02 5.459898e-02 4.819093e-02 4.795277e-02 4.064830e-02 4.203417e-02 4.191846e-02 2.773414e-02 2.275332e-02 5.459970e-02 7.255462e-02 4.677055e-02 1.700074e-02 3.586638e-02 2.902623e-02 5.380892e-02 5.278939e-02 6.109891e-02 1.285931e-02 6.012666e-02 2.525858e-02 2.997568e-02 2.479382e-02 7.077328e-02 3.081038e-02 6.130158e-02 5.158761e-02 1.330268e-02 2.378628e-02 4.954749e-02 4.340002e-02 4.977437e-02 8.538690e-02 9.520193e-03 1.039484e-01 -6.026630e-02 9.182264e-02 1.518612e-01 6.479541e-03 1.180324e-02 1.686610e-03 -7.431537e-03 
-2.569818e-02 -1.756846e-02 -7.878648e-02 -3.566837e-01 4.165176e-03 2.621075e+00 -6.104444e-01 -1.003243e+00 2.628865e-01 -2.090659e-01 8.882613e-02 -3.113393e-01 9.385374e-01 -2.200105e-02 2.939443e-01 2.179643e-03 3.175974e-01 -4.345330e-02 2.535038e-01 -3.785478e-02 2.412112e-01 7.483092e-01 -9.920669e-02 -1.009595e-01 -6.908452e-02 -9.635447e-02 -4.109830e-02 3.038949e-02 1.747199e-02 -8.072165e-03 -8.507807e-02 -1.032389e-02 -2.694022e-02 5.459750e-02 -5.480237e-02 -5.384363e-02 -1.230089e-01 2.362941e-02 3.537675e-03 1.387679e-02 -6.126395e-02 -2.892782e-02 -6.950720e-02 -1.870313e-02 -3.258650e-02 9.419104e-04 5.806239e-02 9.408976e-02 2.208176e-02 -7.967070e-02 -1.128470e-01 -6.291285e-02 1.236915e-02 1.020702e-01 6.723882e-02 -1.847209e-01 -9.828243e-01 -1.193288e+00 -4.272557e-01 -2.422083e-01 -2.491697e-01 -6.970037e-01 -4.496193e-01 -2.310286e-01 -3.936767e-03 4.754587e-02 -1.522461e-01 -5.444445e-02 -1.901670e-01 -2.926674e-02 1.066207e-01 4.934615e-01 5.382109e-01 6.257048e-02 -1.555683e-01 -1.754858e-01 -1.094904e-01 -3.222604e-03 -6.345633e-04 -7.090447e-02 -1.638074e-01 -1.012084e-01 -1.216408e-02 -4.099740e-02 -1.162404e-01 -1.155259e-01 -3.153893e-02 -4.131743e-02 -2.477118e-02 -5.426454e-02 -5.314177e-02 -7.832129e-02 -2.301160e-02 -9.243133e-02 -7.949307e-02 -1.055356e-02 5.186886e-02 -7.491629e-02 -1.500663e-01 -8.767297e-02 -8.716698e-02 9.398375e-04 -1.084361e-02 2.712078e-02 -1.611072e-01 1.196826e-02 -1.534462e-01 -8.118985e-02 -1.446350e-01 8.006109e-02 -1.133817e-01 5.715576e-02 -3.397735e-02 -7.272454e-02 -1.000897e-01 7.445055e-03 -5.768867e-02 -7.542893e-02 5.327310e-02 -2.250245e-01 1.802189e-01 -6.360399e-01 6.457935e-01 3.643649e-01 -8.262640e-01 -8.539688e-02 1.688012e-02 -1.725726e-02 
-4.736099e-02 -3.751962e-02 -1.709194e-01 -9.024152e-01 -9.348772e-01 1.803064e+00 5.139469e-03 -3.943110e-01 4.639487e-02 -1.170014e-01 -4.908310e-02 -4.059008e-02 -6.469458e-01 -3.354864e-01 -4.008940e-01 -3.057959e-01 -3.912188e-01 -3.239882e-01 -3.563177e-01 -3.010637e-01 -2.327049e-01 -7.537500e-01 1.505880e-02 -2.553996e-01 -8.903085e-02 -2.653902e-01 -7.391087e-02 -1.336377e-01 5.554611e-02 -2.869057e-02 2.342638e-02 -2.125975e-02 -3.848932e-03 -9.159548e-03 -4.412697e-02 -1.415801e-01 -2.330231e-01 -1.514677e-01 -9.189344e-02 -6.976324e-03 -2.093312e-02 -8.489131e-03 -1.163373e-01 -1.039130e-01 -7.069002e-02 7.138939e-02 1.244000e-01 2.054204e-01 9.522392e-02 -3.344547e-02 -1.628936e-01 -5.608504e-02 2.605255e-02 2.668104e-01 4.702640e-01 9.436566e-01 1.416179e+00 1.407092e+00 1.035815e+00 5.551155e-01 1.850725e-01 1.705695e-01 7.261283e-01 7.902927e-01 6.636160e-01 3.643242e-01 3.928175e-01 2.202895e-01 -2.175977e-01 -9.860853e-01 -1.220555e+00 -1.028120e+00 -1.146082e+00 -6.940029e-01 -6.284413e-01 -3.684778e-01 -2.521464e-01 -4.918012e-02 -8.282118e-02 -1.333025e-01 -2.152421e-01 -2.068109e-01 -1.247457e-01 -1.436395e-01 -7.207671e-02 -1.017803e-01 -6.632095e-04 -1.518339e-01 -5.001788e-02 -1.397904e-01 -7.735258e-02 -1.664902e-01 7.510400e-03 -9.698304e-02 -1.507799e-02 -6.282277e-02 -1.006277e-02 -1.912034e-01 -1.800629e-01 -1.429024e-01 -9.284922e-02 -1.558482e-02 -4.922588e-02 5.173876e-03 -1.937156e-01 -2.586797e-02 -2.685786e-01 -6.774880e-02 -2.375574e-01 9.637261e-02 -1.977068e-01 1.090611e-01 -1.228229e-01 9.081435e-02 -1.013828e-01 4.926759e-02 -1.263279e-01 -2.023890e-01 -1.287789e-01 -3.643679e-01 1.850845e-01 -7.076747e-01 2.036141e+00 7.529961e-02 -2.517920e+00 -3.114571e-01 4.145017e-02 -2.369150e-02 
-6.088129e-02 -3.792483e-02 -6.048645e-02 -5.397155e-01 -1.316919e+00 -1.793723e+00 6.418092e-01 7.179333e-01 -4.485443e-01 -7.504720e-03 -4.296350e-01 -7.531605e-02 -2.769299e-01 -9.054492e-02 -3.773144e-01 -1.534214e-01 -3.391628e-01 -1.983064e-01 -2.939071e-01 -2.584524e-01 -1.898064e-01 -1.454290e-01 -1.422345e-01 -3.637680e-01 -1.239392e-01 -2.896603e-01 -1.475236e-01 -3.204919e-01 -8.531656e-02 -1.485363e-01 1.493370e-02 -1.379471e-01 -9.930422e-02 -2.141359e-01 -1.095132e-01 -2.191484e-01 -2.351957e-01 -3.375679e-01 -2.460417e-01 -1.579297e-01 -7.469841e-02 -1.011826e-01 -1.731989e-01 -2.267313e-01 -1.699926e-01 -5.074008e-02 -6.717701e-02 -2.303925e-02 -4.956466e-02 -6.100869e-02 -1.649646e-01 -1.162258e-01 -1.233041e-01 2.261448e-02 1.526864e-01 1.748347e-01 -4.268773e-02 -9.072842e-02 -2.512053e-01 4.017159e-02 4.040453e-01 4.477891e-01 1.077320e-01 -3.158977e-01 -4.038908e-01 -5.067029e-01 -4.834602e-01 -7.450633e-01 2.027514e-02 7.260411e-01 4.982673e-01 2.287275e-01 -2.036290e-01 -2.753728e-01 -4.891722e-01 -3.025648e-01 -3.086572e-01 -2.302119e-01 -2.784642e-01 -2.303417e-01 -1.938601e-01 -2.603533e-01 -2.849021e-01 -2.614630e-01 -7.283173e-02 -1.057684e-01 -1.013009e-01 -2.633530e-01 -1.640500e-01 -2.312818e-01 -1.549103e-01 -2.294215e-01 -9.537483e-02 -1.290276e-01 -4.299493e-02 -2.026536e-01 -2.178486e-01 -2.627505e-01 -1.369577e-01 -1.877620e-01 -1.238855e-01 -1.606320e-01 -1.798173e-01 -1.711015e-01 -1.432810e-01 -1.833658e-01 -2.429923e-01 -1.012632e-01 -2.212150e-01 -1.306194e-01 -2.204746e-01 -8.224810e-02 -2.447776e-01 7.523820e-02 -1.293677e-01 -8.365450e-02 -2.148011e-01 -2.595970e-01 -3.551849e-01 -2.099695e-01 -7.185719e-02 6.966857e-02 1.387292e+00 -8.729946e-01 -2.184058e+00 -3.821036e-01 -3.192486e-02 -5.334109e-02 
-4.925137e-02 -4.011309e-02 -1.875882e-02 -5.578843e-02 -5.261039e-01 -1.905465e+00 1.345366e-01 3.239849e-01 -4.952372e-01 -1.324944e-01 -3.917035e-01 -2.158911e-01 2.668882e-01 8.171350e-02 -5.195948e-02 -4.425284e-02 -5.351958e-02 -5.114987e-02 -5.054408e-02 -5.760499e-02 1.648107e-01 2.650604e-01 -3.562732e-01 -3.307676e-01 -2.090901e-01 -2.385949e-01 -2.209885e-01 -3.038648e-01 -2.343593e-01 -2.440624e-01 -1.671429e-01 -2.421988e-01 -2.254465e-01 -2.912420e-01 -2.175982e-01 -2.456500e-01 -2.217044e-01 -3.107428e-01 -2.804707e-01 -2.600487e-01 -2.078160e-01 -2.274451e-01 -2.305646e-01 -2.652637e-01 -2.460346e-01 -2.292670e-01 -2.600441e-01 -2.647825e-01 -2.414969e-01 -2.019937e-01 -2.171492e-01 -2.265359e-01 -2.474369e-01 -2.152519e-01 -1.994934e-01 -6.086872e-01 -1.511086e+00 -1.656708e+00 -9.611406e-01 -5.488260e-01 -9.621412e-01 -1.120571e+00 -8.176560e-01 -5.022095e-01 -3.457115e-01 -2.729656e-01 -2.076394e-01 -1.075139e-01 -3.847242e-01 -6.452276e-01 -1.764088e-01 1.820650e-01 2.668018e-01 1.953634e-01 -1.106325e-01 -2.106513e-01 -2.948244e-01 -3.283742e-01 -3.410774e-01 -2.870983e-01 -2.303846e-01 -2.660045e-01 -3.072295e-01 -2.831336e-01 -1.982648e-01 -2.041759e-01 -2.370228e-01 -2.741410e-01 -2.528231e-01 -2.586908e-01 -2.353246e-01 -2.470828e-01 -2.313912e-01 -2.145217e-01 -1.913795e-01 -2.694937e-01 -2.937257e-01 -2.570425e-01 -1.840157e-01 -2.312942e-01 -2.079971e-01 -2.624507e-01 -2.571540e-01 -2.753056e-01 -1.826939e-01 -2.706423e-01 -2.133843e-01 -2.066006e-01 -2.135065e-01 -2.829045e-01 -2.277717e-01 -2.596069e-01 -2.702125e-01 -1.606203e-01 -2.118507e-01 -2.363371e-01 -2.503241e-01 -2.420663e-01 -3.209394e-01 -1.347219e-01 -2.514401e-01 1.001728e-01 -2.952037e-01 -8.492082e-01 -4.184850e-01 -8.848112e-02 -5.117399e-02 -5.386273e-02 
-2.046018e-02 -2.059615e-02 -2.001578e-02 -1.210581e-02 -4.681171e-02 -2.327713e-01 -1.561090e-01 -1.145888e-01 -1.518946e-01 -8.911153e-02 -1.177579e-01 -3.025769e-01 1.545275e-01 2.080570e-01 -4.453904e-03 -4.497820e-03 -4.889017e-03 -4.780410e-03 -4.764725e-03 -4.568809e-03 3.038254e-01 2.213558e-01 -5.083002e-01 -2.666137e-01 -1.447570e-01 -1.229363e-01 -1.121507e-01 -1.146369e-01 -1.079164e-01 -1.104805e-01 -1.056390e-01 -1.115125e-01 -1.094806e-01 -1.142122e-01 -1.096980e-01 -1.123161e-01 -1.102781e-01 -1.152718e-01 -1.133486e-01 -1.130854e-01 -1.105910e-01 -1.121225e-01 -1.122019e-01 -1.136698e-01 -1.135809e-01 -1.131285e-01 -1.158049e-01 -1.163471e-01 -1.171161e-01 -1.158743e-01 -1.187713e-01 -1.163963e-01 -1.047298e-01 -6.485371e-02 -1.365973e-02 -9.806955e-02 -4.247991e-01 -5.719885e-01 -2.785024e-01 -1.582001e-01 -5.401571e-02 1.770497e-01 -8.784854e-02 -3.281546e-01 -3.261083e-01 -3.758868e-01 -3.778011e-01 -3.455518e-01 -4.247835e-01 -9.369210e-03 2.028114e-01 -5.994363e-01 -6.909847e-01 -1.145521e-01 1.638446e-02 -4.499435e-02 -9.829932e-02 -1.227063e-01 -1.300914e-01 -1.281357e-01 -1.234665e-01 -1.229226e-01 -1.229900e-01 -1.203354e-01 -1.155851e-01 -1.144049e-01 -1.151656e-01 -1.155048e-01 -1.146607e-01 -1.137443e-01 -1.127119e-01 -1.125315e-01 -1.125229e-01 -1.110033e-01 -1.098899e-01 -1.131055e-01 -1.138775e-01 -1.124896e-01 -1.086455e-01 -1.115501e-01 -1.089882e-01 -1.134505e-01 -1.113125e-01 -1.138751e-01 -1.071911e-01 -1.140579e-01 -1.081919e-01 -1.111551e-01 -1.085586e-01 -1.143801e-01 -1.086359e-01 -1.138310e-01 -1.106073e-01 -1.087900e-01 -1.083658e-01 -1.111531e-01 -1.092789e-01 -1.090081e-01 -1.087764e-01 -9.484610e-02 -9.854575e-02 -1.038771e-01 -1.695077e-01 -1.387437e-01 -6.531891e-02 -4.178683e-02 -3.544061e-02 -2.615531e-02 
-5.257581e-03 -6.508916e-03 -9.312187e-03 -1.062766e-02 -1.118024e-02 -2.288377e-02 -3.123434e-02 -3.005710e-02 -2.423102e-02 -6.584316e-03 -7.539277e-03 -1.217285e-01 7.239941e-02 8.496002e-02 -1.332089e-03 -1.472995e-03 -1.473403e-03 -1.473333e-03 -1.472945e-03 -1.220717e-03 1.587024e-01 1.166131e-01 -2.572148e-01 -1.199137e-01 -5.330472e-02 -3.573450e-02 -2.823647e-02 -2.435784e-02 -2.218908e-02 -2.175448e-02 -2.150061e-02 -2.173357e-02 -2.169754e-02 -2.188240e-02 -2.184908e-02 -2.196583e-02 -2.194274e-02 -2.200203e-02 -2.200254e-02 -2.203664e-02 -2.207566e-02 -2.210745e-02 -2.217413e-02 -2.218392e-02 -2.232221e-02 -2.239366e-02 -2.263117e-02 -2.281918e-02 -2.326456e-02 -2.370596e-02 -2.415548e-02 -2.268506e-02 -1.468409e-02 7.187765e-03 2.742380e-02 -8.213404e-02 -5.061116e-01 -5.842384e-01 -8.208637e-02 1.678982e-01 -5.807546e-02 -2.241545e-01 4.378987e-02 6.925803e-02 6.499482e-02 2.348704e-01 1.027740e-01 3.193241e-02 5.550362e-02 1.052921e-02 2.391004e-01 7.167236e-01 6.359578e-01 2.348476e-01 9.133037e-02 3.626511e-02 4.465264e-03 -1.296848e-02 -2.115553e-02 -2.428472e-02 -2.502997e-02 -2.487589e-02 -2.451358e-02 -2.408327e-02 -2.376455e-02 -2.338484e-02 -2.316267e-02 -2.286991e-02 -2.277797e-02 -2.255655e-02 -2.251758e-02 -2.235302e-02 -2.235291e-02 -2.221438e-02 -2.220069e-02 -2.212517e-02 -2.210188e-02 -2.208568e-02 -2.202770e-02 -2.205215e-02 -2.193575e-02 -2.206484e-02 -2.191377e-02 -2.205791e-02 -2.184891e-02 -2.207091e-02 -2.180181e-02 -2.207739e-02 -2.179506e-02 -2.205844e-02 -2.174138e-02 -2.207618e-02 -2.172199e-02 -2.203480e-02 -2.171419e-02 -2.192020e-02 -2.157948e-02 -2.158377e-02 -2.088085e-02 -1.998409e-02 -1.879107e-02 -2.137524e-02 -2.540885e-02 -2.029500e-02 -1.671264e-02 -1.434066e-02 -1.063325e-02 -6.726321e-03 
-3.487618e-07 6.816307e-07 5.230675e-08 1.613247e-06 2.696686e-06 2.270928e-06 7.100792e-07 -4.576973e-07 2.950474e-07 4.328968e-06 1.530457e-05 3.332326e-05 -1.044956e-03 -1.480103e-03 -2.211144e-06 -2.868336e-09 9.421334e-10 -4.556325e-10 1.914683e-08 1.120063e-05 6.215766e-03 3.621982e-03 6.596869e-04 7.853887e-05 -3.434127e-05 -7.743927e-06 -4.445362e-07 4.790622e-06 -3.574724e-07 1.024135e-06 -9.925132e-07 6.898545e-07 -3.661535e-07 -1.127156e-06 -2.371305e-06 -4.001153e-06 -3.133716e-06 -6.045357e-06 -6.067337e-06 -1.376527e-05 -1.527434e-05 -2.538165e-05 -2.774094e-05 -4.381377e-05 -5.497462e-05 -8.638417e-05 -1.192389e-04 -1.920554e-04 -3.193562e-04 -5.889113e-04 -9.739501e-04 -8.971419e-04 1.667215e-03 8.465361e-03 5.359433e-03 -6.867506e-02 -2.084496e-01 -2.185529e-01 -2.401379e-02 1.460408e-01 1.922151e-01 1.985543e-01 1.273748e-01 4.661552e-02 1.386019e-02 1.955994e-02 -2.312795e-02 -7.585463e-02 6.574674e-02 2.105737e-01 2.575115e-01 2.210906e-01 1.541935e-01 1.230309e-01 7.692321e-02 4.470606e-02 2.386607e-02 1.089160e-02 3.838808e-03 5.777461e-04 -6.188406e-04 -9.406713e-04 -9.224014e-04 -8.246560e-04 -7.031543e-04 -5.927689e-04 -4.937493e-04 -4.094277e-04 -3.424966e-04 -2.843935e-04 -2.393866e-04 -1.966235e-04 -1.635560e-04 -1.322599e-04 -1.109631e-04 -9.074023e-05 -7.702736e-05 -6.204316e-05 -5.113178e-05 -3.960749e-05 -3.331519e-05 -2.729674e-05 -2.407392e-05 -1.904242e-05 -1.569950e-05 -1.165096e-05 -9.901940e-06 -8.637332e-06 -7.223964e-06 -5.502680e-06 -3.694945e-06 -3.512226e-06 -3.010115e-06 -4.171654e-06 -3.153073e-06 -1.973345e-06 2.866310e-08 7.914118e-07 -3.450543e-07 -6.899839e-06 -1.225570e-05 -1.470480e-05 -1.085295e-05 -7.453294e-06 -3.770150e-06 7.640462e-07 -3.681698e-07 1.289720e-06 
5.258284e-03 6.511652e-03 9.317325e-03 1.064319e-02 1.120585e-02 2.289348e-02 3.124126e-02 3.005296e-02 2.422683e-02 6.601698e-03 7.576394e-03 1.217502e-01 -7.430998e-02 -8.552425e-02 1.331113e-03 1.472959e-03 1.473301e-03 1.473183e-03 1.472805e-03 1.238947e-03 -1.491783e-01 -1.089111e-01 2.588746e-01 1.200728e-01 5.320545e-02 3.570898e-02 2.822614e-02 2.436921e-02 2.218396e-02 2.175703e-02 2.148207e-02 2.170856e-02 2.165813e-02 2.184298e-02 2.179985e-02 2.189693e-02 2.186202e-02 2.189673e-02 2.188654e-02 2.187259e-02 2.187058e-02 2.180669e-02 2.182367e-02 2.173195e-02 2.175364e-02 2.162106e-02 2.161212e-02 2.139816e-02 2.121572e-02 2.053985e-02 1.940782e-02 1.755190e-02 1.648013e-02 1.636027e-02 -6.177773e-03 -1.937222e-01 -7.035366e-01 -7.977113e-01 -2.971920e-01 1.203331e-02 -7.119176e-02 -2.053361e-01 -2.482497e-02 -1.124890e-03 5.839000e-02 1.997217e-01 5.764043e-02 1.131654e-02 1.537822e-01 2.028958e-01 3.893721e-01 8.884805e-01 7.834238e-01 2.741165e-01 9.055595e-02 5.489546e-02 4.129104e-02 3.093961e-02 2.445419e-02 2.125410e-02 2.015811e-02 1.991051e-02 2.010361e-02 2.027046e-02 2.057710e-02 2.071180e-02 2.098601e-02 2.106690e-02 2.129241e-02 2.132437e-02 2.150122e-02 2.150738e-02 2.163574e-02 2.163919e-02 2.172789e-02 2.174252e-02 2.178258e-02 2.182518e-02 2.181443e-02 2.188213e-02 2.181416e-02 2.193065e-02 2.180594e-02 2.197365e-02 2.179561e-02 2.201160e-02 2.176869e-02 2.204120e-02 2.174480e-02 2.204986e-02 2.172701e-02 2.205079e-02 2.171058e-02 2.201986e-02 2.169539e-02 2.192306e-02 2.158964e-02 2.157799e-02 2.087412e-02 1.996480e-02 1.871598e-02 2.131720e-02 2.534270e-02 2.023648e-02 1.668376e-02 1.433815e-02 1.063339e-02 6.730442e-03 
2.046588e-02 2.060960e-02 2.005319e-02 1.219910e-02 4.688991e-02 2.326857e-01 1.559361e-01 1.137119e-01 1.513918e-01 8.826440e-02 1.182796e-01 3.034615e-01 -1.589017e-01 -2.123773e-01 4.553239e-03 4.457317e-03 4.672325e-03 4.426006e-03 4.321726e-03 4.123503e-03 -2.865599e-01 -2.148293e-01 5.091693e-01 2.659255e-01 1.443251e-01 1.231670e-01 1.105979e-01 1.115831e-01 1.065114e-01 1.123227e-01 1.094951e-01 1.138915e-01 1.090794e-01 1.119400e-01 1.086036e-01 1.123287e-01 1.097851e-01 1.123684e-01 1.111553e-01 1.145351e-01 1.131988e-01 1.134575e-01 1.100782e-01 1.093271e-01 1.092946e-01 1.103702e-01 1.110834e-01 1.107775e-01 1.116296e-01 1.099054e-01 1.091109e-01 1.036063e-01 1.034187e-01 9.941808e-02 6.738233e-02 -2.207568e-01 -1.206892e+00 -1.401504e+00 -5.465116e-01 -1.617563e-01 -1.285879e-01 -2.707428e-01 -7.389480e-03 2.383075e-02 1.001491e-01 2.974550e-01 1.886774e-01 2.820504e-01 4.049343e-01 5.328035e-01 7.571940e-01 1.515983e+00 1.372313e+00 4.489094e-01 1.744126e-01 1.335587e-01 1.185747e-01 1.090004e-01 1.027962e-01 1.018720e-01 1.022433e-01 1.037599e-01 1.041256e-01 1.049270e-01 1.061003e-01 1.071122e-01 1.084033e-01 1.080725e-01 1.092568e-01 1.084547e-01 1.095778e-01 1.099537e-01 1.114056e-01 1.111067e-01 1.099573e-01 1.093831e-01 1.078806e-01 1.103526e-01 1.105406e-01 1.139463e-01 1.108798e-01 1.136696e-01 1.088679e-01 1.113675e-01 1.073311e-01 1.131265e-01 1.095302e-01 1.149175e-01 1.097417e-01 1.123045e-01 1.067530e-01 1.117643e-01 1.088385e-01 1.129248e-01 1.112781e-01 1.112621e-01 1.095591e-01 1.054563e-01 1.049446e-01 9.491269e-02 1.001873e-01 1.071129e-01 1.715178e-01 1.385456e-01 6.506953e-02 4.172839e-02 3.543214e-02 2.616312e-02 
4.926718e-02 4.015482e-02 1.888577e-02 5.595693e-02 5.261292e-01 1.904588e+00 -1.411577e-01 -3.426087e-01 4.854798e-01 1.126276e-01 4.028487e-01 2.360912e-01 -2.771864e-01 -8.391811e-02 5.416392e-02 4.336328e-02 4.875475e-02 4.306313e-02 4.024262e-02 4.671683e-02 -1.537202e-01 -2.174627e-01 3.598403e-01 3.176285e-01 2.015219e-01 2.410021e-01 1.845539e-01 2.336456e-01 2.013573e-01 2.832222e-01 2.563986e-01 3.068618e-01 2.297143e-01 2.526501e-01 2.011507e-01 2.538211e-01 2.143249e-01 2.533307e-01 2.403207e-01 3.053058e-01 2.857843e-01 2.921028e-01 2.233052e-01 2.121750e-01 2.117263e-01 2.477068e-01 2.621032e-01 2.737669e-01 2.925552e-01 2.921840e-01 2.993179e-01 2.523964e-01 2.717993e-01 2.613677e-01 3.062266e-01 1.718919e-01 -1.746738e-01 -2.604211e-01 3.218028e-02 1.942534e-01 3.935259e-01 4.125425e-01 2.353526e-01 4.705281e-02 4.995308e-02 1.069843e-01 1.310523e-01 1.434491e-01 3.054994e-01 5.090780e-01 5.247516e-01 5.652373e-01 5.186756e-01 2.738229e-01 2.334411e-01 2.265461e-01 1.942205e-01 1.827508e-01 1.684849e-01 1.927048e-01 2.041993e-01 2.256720e-01 2.083375e-01 2.176394e-01 2.163371e-01 2.419684e-01 2.392492e-01 2.364538e-01 2.321346e-01 2.263020e-01 2.264925e-01 2.472054e-01 2.633648e-01 2.624941e-01 2.237012e-01 2.088230e-01 1.755833e-01 2.207700e-01 2.385177e-01 2.967786e-01 2.565822e-01 2.862070e-01 2.175243e-01 2.244863e-01 1.825763e-01 2.516794e-01 2.358077e-01 2.848641e-01 2.492347e-01 2.348343e-01 1.930535e-01 2.257503e-01 2.359011e-01 2.530852e-01 2.810875e-01 2.370466e-01 2.500344e-01 1.653353e-01 2.303044e-01 1.301025e-01 2.960982e-01 -2.647774e-02 3.456602e-01 8.529841e-01 4.169681e-01 8.802339e-02 5.111338e-02 5.386461e-02 
6.090446e-02 3.796064e-02 6.050620e-02 5.392178e-01 1.323110e+00 1.791503e+00 -6.706664e-01 -7.435626e-01 4.466861e-01 -1.593691e-02 4.457802e-01 1.166861e-01 2.610420e-01 6.499361e-02 3.637653e-01 1.420906e-01 3.210148e-01 1.788849e-01 2.724711e-01 2.442280e-01 2.272190e-01 2.110193e-01 1.793801e-01 3.849250e-01 8.982196e-02 2.234432e-01 1.360322e-02 1.777227e-01 3.085846e-02 2.110952e-01 1.484870e-01 3.182192e-01 2.184788e-01 2.782643e-01 1.846429e-01 2.059864e-01 9.907113e-02 1.263957e-01 1.561067e-01 2.193670e-01 1.878825e-01 1.762218e-01 1.673739e-01 1.675808e-01 2.358186e-01 2.725651e-01 3.154735e-01 2.980927e-01 3.404115e-01 2.782894e-01 2.501499e-01 1.708361e-01 2.506757e-01 3.358709e-01 5.345602e-01 6.224949e-01 8.285544e-01 8.656499e-01 6.330107e-01 5.363549e-01 2.967071e-01 2.700855e-01 1.907445e-01 2.419623e-01 2.197891e-01 1.274010e-01 2.175563e-01 1.071607e-01 1.248830e-02 -2.785084e-01 -2.850348e-01 -5.142165e-01 -3.837484e-01 -1.411363e-01 -1.744967e-03 -3.209547e-03 6.844634e-02 1.040177e-01 8.722948e-02 8.789510e-02 1.003195e-01 1.001660e-01 2.438829e-02 6.096934e-02 6.298261e-02 1.891367e-01 1.618356e-01 2.108689e-01 1.476172e-01 2.278345e-01 1.478458e-01 2.497803e-01 1.924051e-01 2.403297e-01 7.642899e-02 9.972050e-02 4.178748e-03 1.435970e-01 1.616976e-01 2.745465e-01 2.526406e-01 2.864368e-01 2.083015e-01 1.091482e-01 1.042859e-01 4.852881e-02 1.276612e-01 6.184328e-02 2.376031e-01 1.367951e-01 3.206755e-01 1.737217e-01 2.728063e-01 8.711467e-02 2.357177e-01 9.043013e-02 1.767327e-01 6.709788e-02 1.297715e-01 1.610151e-01 1.283766e-01 5.527693e-02 -1.276765e+00 8.980574e-01 2.181610e+00 3.800628e-01 3.176255e-02 5.334030e-02 
4.735320e-02 3.750263e-02 1.706408e-01 9.012533e-01 9.449171e-01 -1.803822e+00 -3.230313e-02 4.041752e-01 -2.289776e-02 1.340990e-01 4.432317e-02 5.031647e-02 6.877889e-01 2.999585e-01 3.410943e-01 3.131664e-01 3.968630e-01 2.907739e-01 3.483657e-01 3.803273e-01 2.656034e-01 6.939425e-01 3.462247e-02 3.242865e-01 5.554973e-02 1.550139e-01 -3.770779e-02 1.000636e-01 -5.167315e-02 2.128836e-02 -8.856729e-03 1.281129e-01 1.782772e-01 2.135006e-01 2.064113e-01 9.748777e-02 3.880024e-02 -2.602945e-02 5.936209e-02 -2.095762e-02 -1.393565e-02 -5.357218e-02 1.229320e-01 1.496586e-01 2.618504e-01 2.186964e-01 2.497381e-01 1.887321e-01 2.070022e-01 1.081758e-01 4.419914e-02 4.198780e-02 1.113374e-01 2.646636e-01 4.114055e-01 5.747352e-01 5.574320e-01 5.925355e-01 4.436502e-01 3.838576e-01 1.689915e-01 1.606728e-01 1.276456e-01 2.126834e-01 1.878711e-01 1.297553e-01 1.138732e-01 2.135822e-02 -4.614292e-02 -2.128980e-01 -1.868149e-01 -3.202309e-01 -2.728575e-01 -2.667577e-01 -1.742113e-01 -1.832060e-01 8.136268e-03 8.434942e-02 9.912173e-02 3.523825e-02 3.308199e-02 -2.241959e-02 -8.565469e-02 -5.165647e-02 -3.876673e-02 9.134145e-02 5.996156e-02 1.471190e-01 6.103793e-02 2.067936e-01 7.851571e-02 1.880794e-01 4.894424e-02 1.341217e-01 -2.563003e-02 6.112421e-02 -8.072855e-03 9.901580e-02 6.925769e-02 9.893054e-02 1.630814e-01 1.456055e-01 2.001614e-01 3.376928e-02 1.334629e-01 -1.358476e-01 2.714449e-02 -2.064101e-01 1.648319e-01 4.444542e-02 4.488493e-01 1.255744e-01 2.587729e-01 -8.584746e-02 7.957847e-02 -3.971009e-02 6.742712e-02 1.077107e-01 2.005506e-02 3.005931e-01 -2.193001e-01 7.037947e-01 -1.999175e+00 -4.929857e-02 2.516842e+00 3.093480e-01 -4.164214e-02 2.368651e-02 
2.566868e-02 1.751811e-02 7.853862e-02 3.559963e-01 -5.155891e-04 -2.620157e+00 6.086107e-01 1.030274e+00 -2.416453e-01 2.405205e-01 -1.043607e-01 2.882215e-01 -9.224544e-01 2.262515e-02 -2.656805e-01 4.764879e-02 -2.359913e-01 6.401886e-02 -2.619891e-01 1.621103e-02 -3.318902e-01 -8.069792e-01 1.165705e-01 1.435694e-01 6.543090e-02 5.152351e-02 4.447579e-02 4.520394e-02 2.497319e-02 -4.372256e-02 -2.150938e-02 -3.045511e-02 8.738099e-02 7.099712e-02 1.369215e-01 2.618064e-02 5.876897e-02 -1.953134e-02 3.511745e-02 -8.241573e-02 -4.961694e-02 -7.762507e-02 8.071406e-02 1.007640e-01 1.481699e-01 8.413012e-02 8.056030e-02 4.218910e-02 2.780797e-02 -8.450248e-03 -4.158410e-02 1.670353e-02 1.559607e-02 8.373455e-02 5.772135e-02 1.267743e-01 -5.210648e-02 -4.277836e-02 7.064299e-03 3.659253e-02 4.146887e-02 5.474950e-02 6.116118e-02 8.221837e-02 7.039949e-02 8.002754e-02 -8.169560e-03 -1.035502e-02 1.437493e-02 1.009031e-01 1.260980e-01 1.711062e-01 1.157547e-01 -6.396650e-02 -8.563892e-02 -9.339492e-02 2.214258e-02 6.200457e-02 9.513176e-02 4.317829e-02 3.925669e-02 -6.090950e-03 4.866071e-04 3.728774e-03 1.541623e-02 3.518771e-02 2.854792e-02 6.898173e-02 4.044627e-02 1.092378e-01 5.540397e-02 7.910247e-02 -1.589601e-03 4.146478e-02 1.966023e-02 8.262480e-02 8.750280e-02 8.250334e-02 3.870398e-02 -1.310279e-02 5.279996e-02 1.667572e-02 1.177509e-01 5.000925e-02 1.386289e-01 -5.051201e-02 3.387126e-02 -1.212804e-01 7.173298e-02 3.402925e-02 2.519664e-01 7.436839e-02 1.276760e-01 -4.093814e-02 4.102479e-03 -3.903095e-03 3.521193e-02 1.362752e-01 1.872104e-02 2.069147e-01 -2.498675e-01 5.420877e-01 -6.933320e-01 -3.607229e-01 8.264622e-01 8.482671e-02 -1.694887e-02 1.723575e-02 
8.326797e-03 5.696919e-03 1.292723e-02 4.149480e-02 -8.955762e-02 -8.619292e-01 1.428935e-01 3.045749e-01 -1.478237e-01 3.391785e-02 -9.015024e-02 1.909596e-01 -4.811806e-02 -3.836483e-01 -4.228584e-01 -1.115748e-01 -5.104385e-01 -2.742724e-01 -4.064288e-01 -5.467085e-01 -3.333499e-01 -8.118971e-03 9.813026e-02 -4.335218e-02 -4.053003e-02 -5.579372e-02 -2.929844e-02 -4.994420e-02 -3.577429e-02 -7.419121e-02 -5.919476e-02 -8.255752e-02 -4.136755e-02 -5.428665e-02 -2.598210e-02 -5.613679e-02 -3.417945e-02 -5.732281e-02 -4.613547e-02 -8.209651e-02 -6.915966e-02 -7.537909e-02 -3.670943e-02 -3.285327e-02 -2.888871e-02 -4.773934e-02 -5.293036e-02 -5.908272e-02 -6.703759e-02 -6.681631e-02 -7.147541e-02 -4.816865e-02 -6.118894e-02 -5.913808e-02 -9.893621e-02 -1.060099e-01 -1.945093e-01 -2.093362e-01 -1.784285e-01 -1.501600e-01 -8.422661e-02 -3.830456e-02 -6.593532e-03 -4.297021e-04 -1.660757e-02 -3.671577e-02 -9.477140e-02 -8.353146e-02 -2.707991e-02 9.005786e-02 1.317178e-01 1.735275e-01 1.298244e-01 2.557083e-02 -2.710735e-02 -5.345511e-02 -4.619413e-02 -4.634446e-02 -3.518471e-02 -4.608434e-02 -4.521385e-02 -5.440390e-02 -4.216172e-02 -4.453249e-02 -4.122570e-02 -4.982007e-02 -4.858256e-02 -4.365358e-02 -4.416851e-02 -3.570201e-02 -4.060487e-02 -4.463933e-02 -5.843575e-02 -5.189764e-02 -4.041013e-02 -2.660054e-02 -1.642033e-02 -3.190781e-02 -4.528435e-02 -6.890549e-02 -5.161751e-02 -6.373309e-02 -3.094278e-02 -3.655469e-02 -1.389207e-02 -5.369872e-02 -3.986390e-02 -7.226779e-02 -4.289394e-02 -4.553520e-02 -1.031884e-02 -4.103326e-02 -3.326480e-02 -5.797015e-02 -5.790554e-02 -4.948220e-02 -4.462460e-02 -1.338117e-02 -4.333581e-02 -8.313490e-03 -1.259078e-01 2.467690e-02 -1.144579e-01 -1.533869e-01 -6.043836e-03 -1.164809e-02 -1.651341e-03 7.429559e-03 
