# vtk DataFile Version 2.0
Comment goes here
ASCII

DATASET STRUCTURED_POINTS
FIELD FieldData 1
TIME 1 1 double
0.47000000
DIMENSIONS    128   16   1

ORIGIN    0.000   0.000   0.000
SPACING   0.0078125 0.015625   1.000

POINT_DATA   2048
SCALARS Omega double
LOOKUP_TABLE default

1.222546e-05 4.985096e-06 -1.036112e-06 -1.008709e-05 -1.446756e-05 2.358208e-05 1.118369e-06 -1.143341e-06 1.764886e-05 3.353066e-06 -2.563609e-06 -4.776086e-05 -3.820398e-05 1.063219e-04 3.381646e-05 -1.613416e-04 1.753746e-04 -2.333408e-04 1.294216e-04 -1.179320e-05 -5.147726e-04 1.068555e-04 1.679920e-04 -1.995270e-05 -3.774535e-05 -7.553222e-05 -5.732282e-05 -8.790199e-05 -8.723505e-05 -1.151592e-04 -1.331223e-04 -1.619088e-04 -1.983346e-04 -2.284677e-04 -2.813412e-04 -3.111958e-04 -3.785267e-04 -4.018122e-04 -4.752234e-04 -4.768002e-04 -5.342722e-04 -4.897787e-04 -4.914350e-04 -3.846340e-04 -2.917726e-04 -1.607345e-04 -2.505714e-05 -7.595180e-05 -2.320038e-04 -1.089165e-03 -2.518074e-03 -5.484758e-03 -9.703139e-03 -1.827475e-02 -4.077162e-02 -9.004194e-02 -1.313540e-01 -1.495746e-01 -1.268210e-01 -4.495681e-02 5.443622e-03 1.016016e-03 -3.201920e-02 -8.032767e-02 -1.145434e-01 -1.238727e-01 -1.279675e-01 -9.590443e-02 6.294203e-02 2.510892e-01 3.065515e-01 2.408741e-01 1.634950e-01 1.241327e-01 8.350521e-02 5.093229e-02 3.260660e-02 1.925263e-02 1.033429e-02 3.412739e-03 -4.134715e-05 -2.356847e-03 -2.690479e-03 -2.911669e-03 -2.290536e-03 -1.993099e-03 -1.397582e-03 -1.124817e-03 -7.706168e-04 -5.922139e-04 -4.327991e-04 -3.045186e-04 -2.629560e-04 -1.490613e-04 -1.750178e-04 -6.215221e-05 -1.252423e-04 -1.345489e-05 -9.577536e-05 8.673576e-06 -7.965366e-05 1.210298e-05 -7.323643e-05 4.635293e-06 -7.123310e-05 -2.912101e-06 -6.757718e-05 -5.335282e-06 -6.075242e-05 -1.323044e-06 -4.946220e-05 7.060172e-06 -3.429626e-05 1.747756e-05 -1.363455e-05 2.899215e-05 9.190208e-06 3.479971e-05 2.104854e-05 8.243639e-06 -3.697396e-05 -1.318408e-04 -4.012990e-05 1.345351e-04 1.021067e-04 4.646183e-05 3.307824e-05 2.310321e-05 
-7.548344e-03 -9.837894e-03 -1.788195e-02 1.695979e-03 1.690428e-01 -1.453456e-01 -1.218926e+00 -6.466637e-01 -4.592379e-01 -4.738474e-01 -4.761862e-01 -4.192194e-01 6.139566e-01 2.442385e+00 3.238135e+00 2.781775e+00 3.046757e+00 2.980416e+00 2.879129e+00 3.237762e+00 2.544937e+00 3.702493e-01 -3.947759e-01 -4.798158e-01 -4.305916e-01 -4.534878e-01 -4.361095e-01 -4.592834e-01 -4.471689e-01 -4.606464e-01 -4.545504e-01 -4.594536e-01 -4.598582e-01 -4.573472e-01 -4.638314e-01 -4.549348e-01 -4.665341e-01 -4.525595e-01 -4.680742e-01 -4.504243e-01 -4.680796e-01 -4.484190e-01 -4.659680e-01 -4.464563e-01 -4.616091e-01 -4.435678e-01 -4.546451e-01 -4.382513e-01 -4.445408e-01 -4.285650e-01 -4.299820e-01 -4.124132e-01 -4.118319e-01 -4.155828e-01 -5.042453e-01 -5.273058e-01 3.080265e-01 4.872737e-01 -6.622413e-02 2.448733e-01 -9.179957e-01 -1.509557e+00 -4.703635e-01 8.952212e-04 -2.734458e-01 -2.023256e-01 -3.754909e-01 -6.267375e-01 1.023498e-01 -6.854819e-01 -9.050059e-01 -1.098125e+00 -1.566534e+00 -6.628159e-01 -3.510615e-01 -4.049496e-01 -4.378156e-01 -4.588685e-01 -4.562319e-01 -4.712681e-01 -4.619660e-01 -4.743252e-01 -4.628381e-01 -4.722136e-01 -4.621068e-01 -4.689179e-01 -4.618875e-01 -4.657563e-01 -4.623932e-01 -4.630605e-01 -4.635895e-01 -4.605730e-01 -4.646656e-01 -4.582201e-01 -4.659281e-01 -4.565151e-01 -4.667146e-01 -4.550517e-01 -4.667301e-01 -4.546845e-01 -4.660606e-01 -4.553829e-01 -4.640399e-01 -4.572568e-01 -4.607779e-01 -4.605111e-01 -4.562171e-01 -4.651901e-01 -4.507261e-01 -4.711580e-01 -4.443244e-01 -4.777095e-01 -4.374949e-01 -4.846207e-01 -4.307312e-01 -4.908024e-01 -4.229610e-01 -4.953141e-01 -4.097819e-01 -4.976593e-01 -3.537099e-01 -7.596164e-01 -9.895722e-01 -1.189937e-01 -3.653178e-02 -2.921124e-02 -1.333836e-02 -8.638094e-03 
-4.696238e-03 -2.158552e-02 -8.044156e-02 2.457629e-02 1.613464e+00 1.073358e+00 -3.020412e+00 -1.094717e+00 -8.431333e-01 -7.550784e-01 -7.971547e-01 -5.674963e-01 8.026700e-01 -4.812549e-01 -1.095692e+00 -1.188606e+00 -8.725888e-01 -1.224722e+00 -8.902613e-01 -1.335000e+00 -1.720407e-01 3.484047e-01 -5.442322e-01 -8.557675e-01 -7.227538e-01 -8.185346e-01 -7.010104e-01 -8.035218e-01 -7.061353e-01 -7.959246e-01 -7.154732e-01 -7.831357e-01 -7.225500e-01 -7.640536e-01 -7.280907e-01 -7.435815e-01 -7.392539e-01 -7.331402e-01 -7.616408e-01 -7.313685e-01 -7.799088e-01 -7.206561e-01 -7.758717e-01 -6.976682e-01 -7.603510e-01 -6.862255e-01 -7.584567e-01 -6.950597e-01 -7.609083e-01 -6.978409e-01 -7.430086e-01 -6.762288e-01 -7.041851e-01 -6.676475e-01 -7.801382e-01 -6.480325e-01 1.018225e+00 1.605477e+00 1.518029e-01 1.495287e-01 -6.483961e-01 -7.783201e-01 -2.058686e-01 1.127239e-01 1.041931e-01 -2.959130e-02 1.410432e-01 -4.525141e-01 -2.456952e-01 -1.492769e+00 -1.902692e+00 -2.395720e+00 -2.809597e+00 -1.237752e+00 -5.723767e-01 -6.479813e-01 -6.614258e-01 -7.163508e-01 -6.835200e-01 -7.212501e-01 -6.927057e-01 -7.293464e-01 -7.101146e-01 -7.392255e-01 -7.213163e-01 -7.350216e-01 -7.156482e-01 -7.178630e-01 -7.087975e-01 -7.077036e-01 -7.167014e-01 -7.079953e-01 -7.332167e-01 -7.064462e-01 -7.431770e-01 -6.913447e-01 -7.424747e-01 -6.759857e-01 -7.495671e-01 -6.753327e-01 -7.575001e-01 -6.746137e-01 -7.507239e-01 -6.742109e-01 -7.361138e-01 -6.855208e-01 -7.201483e-01 -7.112023e-01 -6.998329e-01 -7.416538e-01 -6.675209e-01 -7.717428e-01 -6.295123e-01 -8.046118e-01 -5.924981e-01 -8.399941e-01 -5.592842e-01 -8.770995e-01 -5.098153e-01 -9.211218e-01 -3.419232e-01 -1.779634e+00 -1.370486e+00 1.422622e+00 -3.881798e-02 -2.046993e-01 -4.734650e-02 -5.481206e-03 
6.703951e-03 -3.512733e-02 -1.890297e-01 -5.807265e-02 3.666070e+00 4.937449e+00 1.305652e-01 1.486926e+00 1.068860e+00 1.306747e+00 9.972984e-01 8.019921e-01 -3.229250e-01 -1.038837e-01 2.719550e-01 1.974850e-02 7.749173e-02 -1.883378e-02 1.323025e-01 1.546538e-01 -6.195348e-02 -1.368127e-01 8.736372e-01 9.859613e-01 1.226464e+00 1.133468e+00 1.338123e+00 1.197729e+00 1.386077e+00 1.221177e+00 1.404172e+00 1.245672e+00 1.416999e+00 1.283661e+00 1.426316e+00 1.324072e+00 1.410705e+00 1.335335e+00 1.354144e+00 1.322789e+00 1.298819e+00 1.337412e+00 1.293968e+00 1.388526e+00 1.306965e+00 1.398677e+00 1.260830e+00 1.330064e+00 1.176721e+00 1.241546e+00 1.109075e+00 1.158332e+00 1.039265e+00 1.051624e+00 9.606249e-01 8.670554e-01 -9.873108e-03 -2.660106e-01 3.282916e-01 2.404770e-01 1.138332e+00 1.491479e+00 8.879997e-01 5.289754e-01 6.155241e-01 6.530514e-01 7.525523e-01 1.153747e+00 1.058238e+00 2.131714e+00 2.580704e+00 2.726511e+00 3.235282e+00 1.939759e+00 1.636280e+00 1.477864e+00 1.549048e+00 1.479037e+00 1.520151e+00 1.493352e+00 1.493906e+00 1.471571e+00 1.442303e+00 1.428944e+00 1.410316e+00 1.424193e+00 1.432634e+00 1.457004e+00 1.461194e+00 1.470429e+00 1.449112e+00 1.453416e+00 1.409220e+00 1.442375e+00 1.389052e+00 1.475987e+00 1.396057e+00 1.512049e+00 1.373971e+00 1.512852e+00 1.344220e+00 1.521351e+00 1.347792e+00 1.536978e+00 1.365750e+00 1.527615e+00 1.379072e+00 1.485673e+00 1.399810e+00 1.438455e+00 1.451056e+00 1.396113e+00 1.518615e+00 1.348968e+00 1.588081e+00 1.292051e+00 1.645599e+00 1.222976e+00 1.721426e+00 1.142710e+00 1.908960e+00 5.697061e-01 3.579949e+00 5.353018e+00 5.098718e-02 -5.002100e-01 -9.064490e-02 1.064862e-02 
6.674522e-03 -6.743244e-03 -1.022582e-01 -1.163259e-01 2.050507e+00 4.340329e+00 4.193116e+00 3.128571e+00 2.310330e+00 2.465151e+00 2.166273e+00 2.221891e+00 2.394209e+00 2.349800e+00 2.159236e+00 2.316285e+00 2.218407e+00 2.330245e+00 2.215874e+00 2.277053e+00 2.301931e+00 2.353704e+00 2.216962e+00 2.265208e+00 2.374255e+00 2.407583e+00 2.496994e+00 2.463976e+00 2.556016e+00 2.478750e+00 2.586889e+00 2.488804e+00 2.609202e+00 2.506600e+00 2.625750e+00 2.525737e+00 2.621392e+00 2.525099e+00 2.585251e+00 2.508883e+00 2.545121e+00 2.511781e+00 2.533048e+00 2.539931e+00 2.526223e+00 2.536404e+00 2.470201e+00 2.469748e+00 2.377292e+00 2.372729e+00 2.277564e+00 2.250199e+00 2.139549e+00 2.040266e+00 1.836500e+00 1.554231e+00 1.135191e+00 6.571934e-01 1.225164e+00 1.358519e+00 1.021857e+00 8.671816e-01 1.379593e+00 1.881778e+00 1.782488e+00 2.155441e+00 1.935286e+00 2.245401e+00 2.434696e+00 1.960221e+00 2.282402e+00 2.090621e+00 2.306971e+00 2.552753e+00 2.755455e+00 2.618558e+00 2.648212e+00 2.637853e+00 2.637839e+00 2.666466e+00 2.627005e+00 2.658262e+00 2.598797e+00 2.627740e+00 2.583861e+00 2.620029e+00 2.606771e+00 2.636457e+00 2.633472e+00 2.639192e+00 2.631951e+00 2.620810e+00 2.608933e+00 2.606938e+00 2.598877e+00 2.626423e+00 2.605000e+00 2.648623e+00 2.587758e+00 2.650315e+00 2.562677e+00 2.660716e+00 2.556107e+00 2.679476e+00 2.555872e+00 2.684866e+00 2.549069e+00 2.671518e+00 2.545681e+00 2.657716e+00 2.562067e+00 2.648178e+00 2.590646e+00 2.636414e+00 2.624629e+00 2.617850e+00 2.654848e+00 2.594834e+00 2.702153e+00 2.599882e+00 2.783132e+00 3.238066e+00 6.243252e+00 4.102393e+00 -3.585824e-01 -5.020262e-01 -9.009788e-02 3.131636e-04 
-8.385216e-03 -3.274369e-04 -1.221913e-02 -1.268180e-01 -2.376392e-01 6.961344e-01 2.384795e+00 1.174006e+00 8.487251e-01 8.954545e-01 8.457963e-01 1.091788e+00 2.132925e+00 1.691968e+00 1.313813e+00 1.319295e+00 1.319947e+00 1.317494e+00 1.322236e+00 1.316519e+00 1.793651e+00 1.933158e+00 9.265151e-01 8.554234e-01 8.663430e-01 9.303061e-01 9.160665e-01 9.445250e-01 9.334521e-01 9.441182e-01 9.435222e-01 9.399720e-01 9.503351e-01 9.355917e-01 9.552491e-01 9.314259e-01 9.573639e-01 9.267055e-01 9.561380e-01 9.216567e-01 9.519359e-01 9.172713e-01 9.448534e-01 9.132519e-01 9.333093e-01 9.047228e-01 9.137145e-01 8.869734e-01 8.852952e-01 8.578185e-01 8.475525e-01 8.160828e-01 7.968604e-01 7.253593e-01 5.895563e-01 7.506388e-01 3.342985e+00 4.271546e+00 2.074676e+00 1.779976e+00 1.290908e+00 1.250070e+00 1.535200e+00 1.511328e+00 1.503276e+00 1.171576e+00 1.487322e+00 7.272736e-01 1.065503e+00 2.456559e-01 -4.936378e-01 -1.011508e+00 -1.636329e+00 4.489559e-02 9.195330e-01 9.446707e-01 8.997659e-01 9.089359e-01 8.890454e-01 9.212455e-01 8.996533e-01 9.325239e-01 9.115635e-01 9.379186e-01 9.223222e-01 9.404024e-01 9.326754e-01 9.410611e-01 9.410000e-01 9.396585e-01 9.466002e-01 9.365480e-01 9.490645e-01 9.334923e-01 9.510991e-01 9.331204e-01 9.520420e-01 9.333738e-01 9.499372e-01 9.347558e-01 9.460063e-01 9.383212e-01 9.404793e-01 9.440369e-01 9.333801e-01 9.511578e-01 9.243365e-01 9.593410e-01 9.146946e-01 9.690533e-01 9.054461e-01 9.793494e-01 8.976436e-01 9.904295e-01 8.934507e-01 1.002809e+00 8.951393e-01 1.022485e+00 9.098933e-01 1.071203e+00 9.079603e-01 1.624760e+00 2.226902e+00 3.037259e-01 -3.026726e-01 -1.200431e-01 -2.016827e-02 -9.514893e-03 
-1.489445e-02 -8.073703e-03 4.756426e-05 -8.595428e-03 -6.542254e-02 -8.355056e-02 8.452730e-02 2.174368e-02 -7.896671e-03 1.907725e-02 1.225507e-02 2.681945e-01 1.960930e+00 1.725330e+00 8.908349e-01 8.900364e-01 8.900617e-01 8.899647e-01 8.901559e-01 8.918141e-01 1.831064e+00 1.909086e+00 1.609643e-02 -1.298991e-01 -5.248682e-02 -1.304103e-02 -1.295199e-03 3.494104e-03 5.788563e-03 5.969106e-03 7.047453e-03 5.411965e-03 6.696376e-03 4.288047e-03 6.069321e-03 3.243567e-03 5.381977e-03 2.282357e-03 4.521829e-03 1.211426e-03 3.221730e-03 -2.771112e-04 1.090043e-03 -2.588984e-03 -2.320498e-03 -6.224555e-03 -7.272601e-03 -1.111371e-02 -1.264994e-02 -1.464291e-02 -1.279956e-02 -6.148242e-03 9.517088e-03 2.534136e-02 3.006827e-02 2.720536e-01 1.896292e+00 2.963436e+00 1.322076e+00 8.116930e-01 9.839297e-01 5.834695e-01 8.402684e-01 7.761052e-01 8.096107e-01 5.359747e-01 8.479049e-01 5.758032e-01 6.806537e-01 8.024865e-01 4.316881e-01 1.398502e+00 1.024559e+00 8.401309e-02 -1.602057e-02 4.992412e-02 3.230070e-02 1.042542e-02 -6.529989e-03 -1.093249e-02 -1.524822e-02 -1.264435e-02 -1.252008e-02 -8.670836e-03 -7.367565e-03 -4.378588e-03 -2.932958e-03 -1.275015e-03 1.895573e-04 6.636151e-04 2.257173e-03 1.775626e-03 3.561327e-03 2.374227e-03 4.406943e-03 2.722281e-03 4.912911e-03 2.916771e-03 5.163986e-03 3.121042e-03 5.233760e-03 3.387862e-03 5.100408e-03 3.772745e-03 4.795979e-03 4.329184e-03 4.324188e-03 5.091311e-03 3.732291e-03 6.092492e-03 3.092890e-03 7.419617e-03 2.734708e-03 9.543789e-03 3.556111e-03 1.369488e-02 7.481051e-03 2.255378e-02 1.728494e-02 3.744667e-02 2.156950e-02 7.045511e-02 7.610846e-02 -6.422291e-02 -5.829985e-02 -2.309970e-02 -1.687522e-02 -1.705928e-02 
-1.014070e-02 -8.428296e-03 -5.793859e-03 -3.766127e-03 -7.202022e-03 -1.715019e-02 -1.255601e-02 -7.703346e-03 6.637420e-04 1.200526e-02 1.171541e-02 1.265163e-01 9.731183e-01 8.510704e-01 4.458170e-01 4.453465e-01 4.453458e-01 4.453459e-01 4.453480e-01 4.463539e-01 9.247567e-01 9.579496e-01 -3.559471e-02 -1.027857e-01 -5.433569e-02 -3.136660e-02 -2.237108e-02 -1.837161e-02 -1.581752e-02 -1.468941e-02 -1.394816e-02 -1.390215e-02 -1.375873e-02 -1.402060e-02 -1.402695e-02 -1.434780e-02 -1.439852e-02 -1.473547e-02 -1.484785e-02 -1.523356e-02 -1.547008e-02 -1.597186e-02 -1.641875e-02 -1.711216e-02 -1.782106e-02 -1.864868e-02 -1.934355e-02 -1.958547e-02 -1.879804e-02 -1.581180e-02 -9.095891e-03 3.987185e-03 2.456614e-02 4.511181e-02 5.821260e-02 2.690266e-01 1.257240e+00 1.571922e+00 4.282769e-01 2.727846e-02 9.311343e-02 -1.328463e-01 2.290974e-01 7.353423e-01 7.217318e-01 6.767095e-01 7.476064e-01 7.725767e-01 5.869090e-01 -4.093342e-02 -1.083194e-01 2.143040e-01 3.046317e-01 3.123422e-01 1.869360e-01 1.107863e-01 5.738438e-02 2.285346e-02 1.649492e-03 -1.049354e-02 -1.709484e-02 -2.004554e-02 -2.100243e-02 -2.076664e-02 -2.005554e-02 -1.914266e-02 -1.825143e-02 -1.746311e-02 -1.677178e-02 -1.624323e-02 -1.576241e-02 -1.544761e-02 -1.511186e-02 -1.494683e-02 -1.469654e-02 -1.463436e-02 -1.442817e-02 -1.443855e-02 -1.425053e-02 -1.431343e-02 -1.412924e-02 -1.422857e-02 -1.404244e-02 -1.416169e-02 -1.397581e-02 -1.409643e-02 -1.392051e-02 -1.401929e-02 -1.386530e-02 -1.390572e-02 -1.377045e-02 -1.367639e-02 -1.349674e-02 -1.309293e-02 -1.267009e-02 -1.161688e-02 -1.060668e-02 -8.526617e-03 -6.843973e-03 -4.373645e-03 -4.745286e-03 -5.868210e-03 -9.468095e-03 -1.265712e-02 -9.841352e-03 -9.221768e-03 -1.059719e-02 -1.085688e-02 
-7.905730e-06 -3.161153e-06 -1.916970e-06 1.021427e-06 1.563887e-06 3.803158e-06 3.095051e-06 -5.168681e-07 -2.951032e-06 -4.351649e-06 -1.444243e-05 -7.239929e-05 -3.046871e-04 1.331849e-04 1.848612e-07 1.310061e-09 3.267232e-09 9.982398e-10 4.264069e-09 7.441776e-07 4.135861e-04 -3.502460e-03 6.554973e-04 6.487108e-04 2.516335e-04 9.052590e-05 1.396301e-05 -2.515184e-05 -5.853787e-05 -8.436292e-05 -1.115699e-04 -1.432917e-04 -1.782660e-04 -2.255736e-04 -2.766949e-04 -3.479138e-04 -4.259154e-04 -5.338618e-04 -6.566003e-04 -8.224281e-04 -1.018970e-03 -1.275758e-03 -1.586634e-03 -1.967528e-03 -2.402387e-03 -2.835582e-03 -3.153874e-03 -3.067955e-03 -2.144006e-03 4.451424e-04 5.857992e-03 1.577517e-02 3.068445e-02 4.625610e-02 7.008890e-02 2.712218e-01 1.009104e+00 1.010258e+00 1.360472e-01 -4.877399e-02 -7.644169e-02 -7.400171e-02 6.001789e-02 1.400951e-01 1.196005e-01 6.466064e-03 6.463897e-03 2.686403e-02 7.673604e-02 4.887662e-02 2.164188e-02 -1.239364e-01 -1.305884e-01 9.539824e-02 1.521528e-01 1.060272e-01 6.299367e-02 3.526164e-02 1.793664e-02 7.317025e-03 1.141701e-03 -2.142767e-03 -3.601398e-03 -4.009990e-03 -3.847517e-03 -3.429668e-03 -2.931137e-03 -2.439498e-03 -2.004550e-03 -1.627717e-03 -1.321099e-03 -1.064168e-03 -8.616464e-04 -6.925616e-04 -5.610625e-04 -4.507005e-04 -3.654024e-04 -2.934214e-04 -2.380664e-04 -1.912881e-04 -1.555481e-04 -1.252306e-04 -1.020198e-04 -8.198558e-05 -6.639201e-05 -5.271641e-05 -4.193096e-05 -3.259681e-05 -2.520125e-05 -1.925895e-05 -1.438397e-05 -1.126547e-05 -8.151069e-06 -7.460878e-06 -5.741430e-06 -7.867248e-06 -7.844084e-06 -1.338661e-05 -1.431483e-05 -2.115850e-05 -1.971991e-05 -2.185581e-05 -1.849952e-05 -1.614293e-05 -2.081247e-05 -1.528672e-05 -1.562728e-05 -9.726510e-06 
1.012200e-02 8.418058e-03 5.787227e-03 3.765591e-03 7.208465e-03 1.716157e-02 1.256851e-02 7.704208e-03 -6.680510e-04 -1.201489e-02 -1.175656e-02 -1.266948e-01 -9.733784e-01 -8.508031e-01 -4.458167e-01 -4.453465e-01 -4.453458e-01 -4.453459e-01 -4.453480e-01 -4.463549e-01 -9.251484e-01 -9.671420e-01 3.708970e-02 1.041870e-01 5.483024e-02 3.152288e-02 2.236267e-02 1.829028e-02 1.565426e-02 1.447254e-02 1.365375e-02 1.353455e-02 1.328855e-02 1.343582e-02 1.329397e-02 1.343627e-02 1.326467e-02 1.332257e-02 1.309066e-02 1.303647e-02 1.272791e-02 1.253304e-02 1.211517e-02 1.173658e-02 1.116813e-02 1.059121e-02 9.929777e-03 9.373262e-03 9.108394e-03 9.502284e-03 1.119413e-02 1.468735e-02 1.845380e-02 1.446077e-02 2.076202e-02 3.113175e-01 1.320786e+00 1.276119e+00 3.376425e-01 1.307002e-01 -1.499669e-01 -2.186983e-01 7.505275e-02 3.522227e-01 2.069324e-01 2.185788e-01 1.824712e-01 1.072968e-01 -1.183196e-01 -6.956199e-01 -7.576403e-01 -1.134774e+00 -7.993166e-01 5.397123e-02 1.436088e-01 8.855934e-02 5.210720e-02 3.279885e-02 2.145095e-02 1.467218e-02 1.083585e-02 9.032739e-03 8.424414e-03 8.587116e-03 9.072350e-03 9.751433e-03 1.040322e-02 1.104861e-02 1.157207e-02 1.205591e-02 1.241190e-02 1.275231e-02 1.297110e-02 1.321484e-02 1.333082e-02 1.351833e-02 1.355640e-02 1.371616e-02 1.369305e-02 1.384253e-02 1.377085e-02 1.391824e-02 1.381069e-02 1.395599e-02 1.382751e-02 1.396220e-02 1.382975e-02 1.393573e-02 1.381447e-02 1.385744e-02 1.374536e-02 1.365078e-02 1.348569e-02 1.307991e-02 1.266304e-02 1.160597e-02 1.059172e-02 8.503627e-03 6.808687e-03 4.330060e-03 4.697872e-03 5.836265e-03 9.423327e-03 1.260935e-02 9.788942e-03 9.182665e-03 1.056139e-02 1.083293e-02 
1.486107e-02 8.046052e-03 -7.279811e-05 8.584039e-03 6.542335e-02 8.342362e-02 -8.447504e-02 -2.162694e-02 7.793127e-03 -1.908360e-02 -1.235699e-02 -2.683936e-01 -1.961217e+00 -1.725091e+00 -8.908378e-01 -8.900374e-01 -8.900662e-01 -8.899671e-01 -8.901579e-01 -8.918145e-01 -1.829963e+00 -1.913577e+00 -1.497210e-02 1.309073e-01 5.268653e-02 1.304472e-02 1.077868e-03 -3.764859e-03 -6.219782e-03 -6.506621e-03 -7.743292e-03 -6.288076e-03 -7.742300e-03 -5.606709e-03 -7.598541e-03 -5.213211e-03 -7.668526e-03 -5.264703e-03 -8.016105e-03 -5.776587e-03 -8.683816e-03 -6.800024e-03 -9.789257e-03 -8.471838e-03 -1.156723e-02 -1.104975e-02 -1.435630e-02 -1.481551e-02 -1.842066e-02 -1.985119e-02 -2.358196e-02 -2.587611e-02 -3.394195e-02 -6.070444e-02 -9.920526e-02 2.477687e-01 1.713478e+00 1.664022e+00 4.411664e-01 2.868983e-01 1.476847e-02 1.303055e-02 1.263025e-01 3.644884e-01 7.478019e-02 1.695787e-02 -2.263169e-02 -2.287432e-01 -2.529805e-01 -6.588224e-01 -8.878730e-01 -1.910771e+00 -1.486280e+00 -8.346998e-02 8.135012e-02 2.763911e-02 -1.630159e-03 -1.292975e-02 -1.773447e-02 -1.924782e-02 -1.980349e-02 -1.823909e-02 -1.746291e-02 -1.491770e-02 -1.410867e-02 -1.153969e-02 -1.117888e-02 -8.881912e-03 -9.052115e-03 -7.004361e-03 -7.646022e-03 -5.727419e-03 -6.768747e-03 -4.880280e-03 -6.242289e-03 -4.337695e-03 -5.915324e-03 -4.025888e-03 -5.678906e-03 -3.911857e-03 -5.451518e-03 -3.991898e-03 -5.187983e-03 -4.276848e-03 -4.830329e-03 -4.752402e-03 -4.328208e-03 -5.430354e-03 -3.700454e-03 -6.346611e-03 -3.044072e-03 -7.614302e-03 -2.674399e-03 -9.653350e-03 -3.454398e-03 -1.371169e-02 -7.372876e-03 -2.253621e-02 -1.723559e-02 -3.745170e-02 -2.155811e-02 -7.035751e-02 -7.616201e-02 6.413924e-02 5.823505e-02 2.302177e-02 1.680978e-02 1.701653e-02 
8.333236e-03 2.745546e-04 1.216420e-02 1.268048e-01 2.375017e-01 -6.988278e-01 -2.385054e+00 -1.172357e+00 -8.507370e-01 -8.956563e-01 -8.474208e-01 -1.092650e+00 -2.132652e+00 -1.691556e+00 -1.313888e+00 -1.319316e+00 -1.320047e+00 -1.317535e+00 -1.322249e+00 -1.316530e+00 -1.792171e+00 -1.935400e+00 -9.246436e-01 -8.536256e-01 -8.657674e-01 -9.303035e-01 -9.161831e-01 -9.467832e-01 -9.358420e-01 -9.496566e-01 -9.481210e-01 -9.475315e-01 -9.556374e-01 -9.437009e-01 -9.607262e-01 -9.410279e-01 -9.656500e-01 -9.410783e-01 -9.707108e-01 -9.430466e-01 -9.748891e-01 -9.461182e-01 -9.784782e-01 -9.512218e-01 -9.839097e-01 -9.610190e-01 -9.943258e-01 -9.770018e-01 -1.010988e+00 -1.000175e+00 -1.036312e+00 -1.033692e+00 -1.075989e+00 -1.096032e+00 -1.177940e+00 -1.150826e+00 -8.044905e-01 -8.119235e-01 -1.063932e+00 -1.065015e+00 -1.221971e+00 -1.290449e+00 -1.075366e+00 -9.793054e-01 -1.006953e+00 -9.824294e-01 -1.026110e+00 -1.077994e+00 -1.013851e+00 -1.074102e+00 -1.043947e+00 -1.226685e+00 -1.170490e+00 -8.915330e-01 -8.987744e-01 -9.465861e-01 -9.546974e-01 -9.639782e-01 -9.636246e-01 -9.617842e-01 -9.640314e-01 -9.553698e-01 -9.613795e-01 -9.481237e-01 -9.579520e-01 -9.415519e-01 -9.548527e-01 -9.364874e-01 -9.529172e-01 -9.331564e-01 -9.518660e-01 -9.311075e-01 -9.514939e-01 -9.305864e-01 -9.510862e-01 -9.306990e-01 -9.490707e-01 -9.315456e-01 -9.460048e-01 -9.344330e-01 -9.421835e-01 -9.395782e-01 -9.377089e-01 -9.467467e-01 -9.316692e-01 -9.543597e-01 -9.231969e-01 -9.624560e-01 -9.138725e-01 -9.720094e-01 -9.052862e-01 -9.827379e-01 -8.979587e-01 -9.927739e-01 -8.919447e-01 -1.002723e+00 -8.922539e-01 -1.021561e+00 -9.070879e-01 -1.070110e+00 -9.055619e-01 -1.624571e+00 -2.226776e+00 -3.031930e-01 3.036687e-01 1.201146e-01 1.999998e-02 9.414145e-03 
-6.784431e-03 6.657936e-03 1.022305e-01 1.168596e-01 -2.048441e+00 -4.346110e+00 -4.194178e+00 -3.125207e+00 -2.312693e+00 -2.464405e+00 -2.168888e+00 -2.222231e+00 -2.394683e+00 -2.349437e+00 -2.159639e+00 -2.315946e+00 -2.218611e+00 -2.329068e+00 -2.215288e+00 -2.274739e+00 -2.301637e+00 -2.351098e+00 -2.215576e+00 -2.269494e+00 -2.368727e+00 -2.407114e+00 -2.487247e+00 -2.477164e+00 -2.569691e+00 -2.517749e+00 -2.612845e+00 -2.522667e+00 -2.617774e+00 -2.512130e+00 -2.613417e+00 -2.518092e+00 -2.628554e+00 -2.553458e+00 -2.657427e+00 -2.591506e+00 -2.668797e+00 -2.605464e+00 -2.655237e+00 -2.605108e+00 -2.647086e+00 -2.629898e+00 -2.679644e+00 -2.690590e+00 -2.741161e+00 -2.768897e+00 -2.822898e+00 -2.864499e+00 -2.920112e+00 -2.963688e+00 -3.019155e+00 -3.120446e+00 -3.386433e+00 -3.430972e+00 -3.157435e+00 -3.188587e+00 -2.977842e+00 -3.005569e+00 -2.960564e+00 -3.023737e+00 -2.867593e+00 -2.816363e+00 -2.696626e+00 -2.552918e+00 -2.509026e+00 -2.326021e+00 -2.334926e+00 -2.145750e+00 -2.243260e+00 -2.470705e+00 -2.498411e+00 -2.522760e+00 -2.527157e+00 -2.531065e+00 -2.556985e+00 -2.550244e+00 -2.598849e+00 -2.571916e+00 -2.628113e+00 -2.576482e+00 -2.634936e+00 -2.567313e+00 -2.627288e+00 -2.559869e+00 -2.620968e+00 -2.564943e+00 -2.616637e+00 -2.580513e+00 -2.616599e+00 -2.608363e+00 -2.613033e+00 -2.625306e+00 -2.586259e+00 -2.629499e+00 -2.559656e+00 -2.644251e+00 -2.547872e+00 -2.668223e+00 -2.549847e+00 -2.691664e+00 -2.550614e+00 -2.691533e+00 -2.538548e+00 -2.673349e+00 -2.536638e+00 -2.663243e+00 -2.563034e+00 -2.666465e+00 -2.603253e+00 -2.652511e+00 -2.621189e+00 -2.612029e+00 -2.640397e+00 -2.588497e+00 -2.694691e+00 -2.595035e+00 -2.779358e+00 -3.236710e+00 -6.259870e+00 -4.099480e+00 3.692363e-01 5.055233e-01 9.005126e-02 -5.998779e-04 
-6.850977e-03 3.503985e-02 1.889674e-01 5.885191e-02 -3.662054e+00 -4.939254e+00 -1.313370e-01 -1.486053e+00 -1.067287e+00 -1.305010e+00 -9.971828e-01 -8.008389e-01 3.200698e-01 1.039067e-01 -2.743390e-01 -1.909910e-02 -7.723771e-02 2.193187e-02 -1.293136e-01 -1.525354e-01 6.625555e-02 1.329610e-01 -8.752070e-01 -9.963012e-01 -1.219072e+00 -1.133073e+00 -1.322637e+00 -1.212999e+00 -1.401322e+00 -1.268466e+00 -1.432964e+00 -1.279895e+00 -1.417101e+00 -1.272600e+00 -1.394044e+00 -1.289257e+00 -1.402898e+00 -1.345618e+00 -1.433755e+00 -1.401711e+00 -1.440415e+00 -1.417714e+00 -1.410647e+00 -1.406592e+00 -1.385764e+00 -1.423371e+00 -1.413109e+00 -1.481420e+00 -1.471393e+00 -1.549983e+00 -1.541122e+00 -1.621554e+00 -1.607873e+00 -1.671366e+00 -1.651466e+00 -1.703640e+00 -1.681296e+00 -1.756448e+00 -1.700359e+00 -1.773761e+00 -1.705684e+00 -1.735652e+00 -1.664977e+00 -1.638624e+00 -1.563921e+00 -1.486386e+00 -1.440170e+00 -1.348606e+00 -1.371476e+00 -1.310016e+00 -1.348839e+00 -1.306302e+00 -1.317708e+00 -1.315522e+00 -1.322406e+00 -1.319454e+00 -1.330510e+00 -1.316829e+00 -1.354721e+00 -1.342381e+00 -1.406942e+00 -1.377946e+00 -1.446220e+00 -1.390072e+00 -1.454723e+00 -1.382201e+00 -1.442758e+00 -1.376441e+00 -1.432327e+00 -1.388473e+00 -1.424379e+00 -1.415601e+00 -1.422387e+00 -1.459422e+00 -1.415581e+00 -1.485527e+00 -1.377002e+00 -1.490344e+00 -1.341675e+00 -1.506644e+00 -1.331816e+00 -1.531562e+00 -1.345593e+00 -1.550247e+00 -1.362026e+00 -1.530565e+00 -1.365254e+00 -1.480946e+00 -1.387229e+00 -1.439753e+00 -1.452320e+00 -1.416151e+00 -1.536938e+00 -1.368304e+00 -1.586291e+00 -1.283406e+00 -1.630509e+00 -1.215732e+00 -1.717662e+00 -1.138318e+00 -1.909941e+00 -5.654204e-01 -3.608216e+00 -5.351041e+00 -3.627796e-02 5.055623e-01 9.069145e-02 -1.098266e-02 
4.634598e-03 2.154278e-02 8.036751e-02 -2.439592e-02 -1.611674e+00 -1.070760e+00 3.020836e+00 1.093166e+00 8.462078e-01 7.560280e-01 7.988654e-01 5.680448e-01 -8.011957e-01 4.817467e-01 1.093852e+00 1.190320e+00 8.715456e-01 1.224109e+00 8.914920e-01 1.329807e+00 1.734933e-01 -3.546383e-01 5.446485e-01 8.510723e-01 7.252810e-01 8.184246e-01 7.072318e-01 8.000718e-01 7.035719e-01 7.842326e-01 7.105250e-01 7.787142e-01 7.291656e-01 7.771840e-01 7.467311e-01 7.671743e-01 7.512909e-01 7.449936e-01 7.470632e-01 7.250342e-01 7.502535e-01 7.214224e-01 7.657497e-01 7.303955e-01 7.808533e-01 7.343147e-01 7.813668e-01 7.296809e-01 7.766339e-01 7.288403e-01 7.763413e-01 7.371028e-01 7.879596e-01 7.619721e-01 8.085877e-01 8.212954e-01 1.031723e+00 1.018917e+00 8.821199e-01 8.580831e-01 7.632657e-01 7.502926e-01 7.701252e-01 8.342919e-01 7.779743e-01 8.032464e-01 7.490614e-01 7.195266e-01 6.791462e-01 6.115831e-01 5.938707e-01 4.844024e-01 5.358575e-01 6.929588e-01 7.014406e-01 7.170171e-01 7.137617e-01 7.292846e-01 7.202098e-01 7.284064e-01 7.124564e-01 7.208431e-01 7.055696e-01 7.193283e-01 7.068439e-01 7.230882e-01 7.135817e-01 7.249321e-01 7.191976e-01 7.198142e-01 7.237939e-01 7.087777e-01 7.263802e-01 6.919626e-01 7.305266e-01 6.817031e-01 7.447087e-01 6.798083e-01 7.563556e-01 6.757499e-01 7.572801e-01 6.711247e-01 7.481238e-01 6.715815e-01 7.355763e-01 6.876341e-01 7.243562e-01 7.162850e-01 7.040884e-01 7.443194e-01 6.673709e-01 7.678836e-01 6.234601e-01 7.998297e-01 5.917471e-01 8.429447e-01 5.616627e-01 8.785495e-01 5.075343e-01 9.211994e-01 3.377609e-01 1.780986e+00 1.356388e+00 -1.420878e+00 4.566598e-02 2.068208e-01 4.729691e-02 5.337744e-03 
7.561627e-03 9.839404e-03 1.785934e-02 -1.745082e-03 -1.688836e-01 1.466246e-01 1.219179e+00 6.459538e-01 4.602714e-01 4.740060e-01 4.768251e-01 4.192473e-01 -6.127424e-01 -2.442032e+00 -3.236027e+00 -2.783335e+00 -3.043727e+00 -2.981434e+00 -2.877087e+00 -3.234386e+00 -2.553679e+00 -3.736903e-01 3.954050e-01 4.793899e-01 4.305760e-01 4.532566e-01 4.364157e-01 4.597935e-01 4.480763e-01 4.621294e-01 4.562471e-01 4.619561e-01 4.621489e-01 4.605769e-01 4.663643e-01 4.589487e-01 4.695286e-01 4.577977e-01 4.720381e-01 4.575012e-01 4.741667e-01 4.583531e-01 4.762706e-01 4.606521e-01 4.789448e-01 4.648425e-01 4.829260e-01 4.711699e-01 4.887153e-01 4.797357e-01 4.965335e-01 4.901494e-01 5.055743e-01 4.999312e-01 5.086901e-01 5.108017e-01 5.824239e-01 5.905652e-01 5.406923e-01 5.594482e-01 5.269473e-01 5.296387e-01 5.205145e-01 5.365436e-01 5.012611e-01 5.028179e-01 4.802557e-01 4.684942e-01 4.828828e-01 4.806036e-01 4.922217e-01 4.371870e-01 4.451887e-01 4.890920e-01 4.761162e-01 4.690714e-01 4.603070e-01 4.575079e-01 4.543496e-01 4.526150e-01 4.535077e-01 4.521590e-01 4.553822e-01 4.535946e-01 4.577662e-01 4.549973e-01 4.596374e-01 4.557091e-01 4.610247e-01 4.557371e-01 4.621472e-01 4.552084e-01 4.631800e-01 4.544737e-01 4.641528e-01 4.538443e-01 4.648279e-01 4.536016e-01 4.649435e-01 4.540228e-01 4.642267e-01 4.553912e-01 4.626438e-01 4.579855e-01 4.599790e-01 4.616954e-01 4.559255e-01 4.664974e-01 4.506180e-01 4.723174e-01 4.443407e-01 4.788150e-01 4.374913e-01 4.853042e-01 4.301793e-01 4.908457e-01 4.219307e-01 4.950220e-01 4.085170e-01 4.972728e-01 3.522382e-01 7.593366e-01 9.874430e-01 1.195620e-01 3.748989e-02 2.940849e-02 1.335181e-02 8.652785e-03 
