# vtk DataFile Version 2.0
Comment goes here
ASCII

DATASET STRUCTURED_POINTS
FIELD FieldData 1
TIME 1 1 double
0.61000000
DIMENSIONS    128   16   1

ORIGIN    0.000   0.000   0.000
SPACING   0.0078125 0.015625   1.000

POINT_DATA   2048
SCALARS P double
LOOKUP_TABLE default

-9.311364e-01 -9.124191e-01 -9.327161e-01 -9.184003e-01 -9.324492e-01 -9.248566e-01 -9.308985e-01 -9.383874e-01 -9.273200e-01 -9.457114e-01 -9.215777e-01 -9.447996e-01 -9.082817e-01 -9.281119e-01 -8.748622e-01 -8.875136e-01 -8.324526e-01 -8.408420e-01 -7.875066e-01 -7.965516e-01 -7.482635e-01 -7.606606e-01 -7.323181e-01 -7.471376e-01 -7.297554e-01 -7.432496e-01 -7.328191e-01 -7.434756e-01 -7.380759e-01 -7.453141e-01 -7.439599e-01 -7.477452e-01 -7.498688e-01 -7.504665e-01 -7.555789e-01 -7.534117e-01 -7.610270e-01 -7.567015e-01 -7.663749e-01 -7.605830e-01 -7.717404e-01 -7.649383e-01 -7.767032e-01 -7.690786e-01 -7.806180e-01 -7.725742e-01 -7.836469e-01 -7.760345e-01 -7.868517e-01 -7.803832e-01 -7.908454e-01 -7.853806e-01 -7.947649e-01 -7.894268e-01 -7.969708e-01 -7.907197e-01 -7.961191e-01 -7.873958e-01 -7.910978e-01 -7.858028e-01 -7.892542e-01 -7.889868e-01 -7.936580e-01 -7.901833e-01 -7.932129e-01 -7.882596e-01 -7.908108e-01 -7.848699e-01 -7.908544e-01 -7.842187e-01 -7.992056e-01 -7.924946e-01 -8.084885e-01 -8.010444e-01 -8.155180e-01 -8.055340e-01 -8.204462e-01 -8.083708e-01 -8.246430e-01 -8.109310e-01 -8.289700e-01 -8.139306e-01 -8.336404e-01 -8.173630e-01 -8.382737e-01 -8.208650e-01 -8.424522e-01 -8.243536e-01 -8.462486e-01 -8.282539e-01 -8.501060e-01 -8.330203e-01 -8.541899e-01 -8.385122e-01 -8.580623e-01 -8.440817e-01 -8.612014e-01 -8.493222e-01 -8.637176e-01 -8.544740e-01 -8.663126e-01 -8.599834e-01 -8.696105e-01 -8.658707e-01 -8.737175e-01 -8.716050e-01 -8.783169e-01 -8.764020e-01 -8.830251e-01 -8.796951e-01 -8.878464e-01 -8.815965e-01 -8.933751e-01 -8.828213e-01 -9.002599e-01 -8.839447e-01 -9.083593e-01 -8.849510e-01 -9.167029e-01 -8.858970e-01 -9.242325e-01 -8.879760e-01 -9.298767e-01 -8.952284e-01 -9.292083e-01 -9.002845e-01 -9.294046e-01 -9.061078e-01 
-7.871216e-01 -7.732810e-01 -7.854388e-01 -7.743430e-01 -7.819966e-01 -7.742950e-01 -7.760782e-01 -7.864488e-01 -7.715619e-01 -7.923547e-01 -7.701041e-01 -7.938985e-01 -7.712820e-01 -7.906312e-01 -7.750101e-01 -7.921614e-01 -7.815193e-01 -7.939613e-01 -7.887041e-01 -7.949321e-01 -7.944851e-01 -7.938278e-01 -7.942935e-01 -7.930908e-01 -7.953538e-01 -7.926552e-01 -7.972666e-01 -7.925448e-01 -7.996405e-01 -7.924968e-01 -8.020110e-01 -7.922813e-01 -8.039070e-01 -7.915384e-01 -8.049047e-01 -7.903291e-01 -8.053546e-01 -7.895039e-01 -8.062442e-01 -7.901094e-01 -8.081408e-01 -7.918678e-01 -8.097773e-01 -7.928940e-01 -8.094876e-01 -7.923082e-01 -8.076547e-01 -7.914822e-01 -8.064172e-01 -7.923784e-01 -8.069808e-01 -7.945830e-01 -8.075898e-01 -7.951164e-01 -8.051322e-01 -7.906165e-01 -7.968425e-01 -7.775720e-01 -7.805022e-01 -7.678911e-01 -7.705324e-01 -7.638899e-01 -7.668261e-01 -7.600672e-01 -7.626796e-01 -7.546089e-01 -7.581415e-01 -7.480942e-01 -7.564440e-01 -7.453166e-01 -7.621783e-01 -7.522751e-01 -7.729697e-01 -7.633536e-01 -7.801007e-01 -7.671534e-01 -7.826393e-01 -7.672997e-01 -7.832877e-01 -7.665734e-01 -7.839408e-01 -7.663833e-01 -7.850585e-01 -7.665937e-01 -7.858505e-01 -7.664395e-01 -7.857431e-01 -7.659577e-01 -7.850846e-01 -7.659113e-01 -7.847555e-01 -7.672447e-01 -7.852426e-01 -7.697093e-01 -7.855352e-01 -7.718540e-01 -7.843877e-01 -7.728510e-01 -7.819294e-01 -7.734736e-01 -7.798223e-01 -7.752015e-01 -7.793546e-01 -7.780919e-01 -7.801310e-01 -7.808042e-01 -7.809474e-01 -7.817789e-01 -7.810389e-01 -7.806517e-01 -7.811604e-01 -7.784480e-01 -7.826352e-01 -7.762035e-01 -7.861117e-01 -7.741122e-01 -7.908439e-01 -7.713572e-01 -7.954340e-01 -7.679005e-01 -7.993276e-01 -7.653776e-01 -8.016418e-01 -7.687996e-01 -7.932705e-01 -7.697388e-01 -7.889942e-01 -7.713942e-01 
-9.313281e-01 -9.129374e-01 -9.363032e-01 -9.172801e-01 -9.348692e-01 -9.108240e-01 -9.349734e-01 -9.505825e-01 -9.315929e-01 -9.622961e-01 -9.369169e-01 -9.771041e-01 -9.492957e-01 -9.761623e-01 -8.926383e-01 -8.995255e-01 -8.374368e-01 -8.354870e-01 -7.761319e-01 -7.787837e-01 -7.016601e-01 -7.163837e-01 -7.061419e-01 -7.276878e-01 -7.186223e-01 -7.344284e-01 -7.284357e-01 -7.398179e-01 -7.373575e-01 -7.446460e-01 -7.456052e-01 -7.488992e-01 -7.525820e-01 -7.516875e-01 -7.573943e-01 -7.530381e-01 -7.609979e-01 -7.549280e-01 -7.658281e-01 -7.598383e-01 -7.733434e-01 -7.672229e-01 -7.806997e-01 -7.728539e-01 -7.841827e-01 -7.748985e-01 -7.846662e-01 -7.764844e-01 -7.868697e-01 -7.822762e-01 -7.939018e-01 -7.924971e-01 -8.033878e-01 -8.034136e-01 -8.120425e-01 -8.136839e-01 -8.171104e-01 -7.827535e-01 -7.797071e-01 -7.675272e-01 -7.637205e-01 -7.998493e-01 -8.157692e-01 -8.049996e-01 -8.021006e-01 -7.941492e-01 -7.786609e-01 -7.703167e-01 -7.526615e-01 -7.433169e-01 -7.950401e-01 -7.907283e-01 -8.205210e-01 -8.199421e-01 -8.274250e-01 -8.146996e-01 -8.265624e-01 -8.118197e-01 -8.273889e-01 -8.115477e-01 -8.307583e-01 -8.142259e-01 -8.362026e-01 -8.183113e-01 -8.413785e-01 -8.216145e-01 -8.449209e-01 -8.240676e-01 -8.475423e-01 -8.271005e-01 -8.510450e-01 -8.327050e-01 -8.565754e-01 -8.404157e-01 -8.619394e-01 -8.471090e-01 -8.643739e-01 -8.510592e-01 -8.640370e-01 -8.540675e-01 -8.644775e-01 -8.596096e-01 -8.683446e-01 -8.678815e-01 -8.744141e-01 -8.760396e-01 -8.798347e-01 -8.809351e-01 -8.829505e-01 -8.822681e-01 -8.856858e-01 -8.826206e-01 -8.908287e-01 -8.838775e-01 -8.993762e-01 -8.857996e-01 -9.095615e-01 -8.859209e-01 -9.189005e-01 -8.833675e-01 -9.278735e-01 -8.771687e-01 -9.423545e-01 -8.994951e-01 -9.273540e-01 -8.986012e-01 -9.262187e-01 -9.049973e-01 
-7.862666e-01 -7.764790e-01 -7.924236e-01 -7.786749e-01 -7.917980e-01 -7.682959e-01 -8.256399e-01 -8.556917e-01 -8.361598e-01 -8.684711e-01 -8.549265e-01 -8.863017e-01 -8.715741e-01 -8.365502e-01 -6.431329e-01 -5.378418e-01 -4.009313e-01 -2.715638e-01 -1.349442e-01 -3.349144e-02 1.614434e-01 2.069067e-01 1.914549e-01 1.921861e-01 1.736087e-01 1.754400e-01 1.546599e-01 1.576850e-01 1.351320e-01 1.394491e-01 1.154548e-01 1.211108e-01 9.609592e-02 1.031769e-01 7.754615e-02 8.573245e-02 5.954447e-02 6.804921e-02 4.120550e-02 4.919727e-02 2.197431e-02 2.933012e-02 2.775252e-03 9.902236e-03 -1.518132e-02 -8.421169e-03 -3.224796e-02 -2.668863e-02 -5.009769e-02 -4.653673e-02 -6.989480e-02 -6.820340e-02 -9.105013e-02 -9.079638e-02 -1.129119e-01 -1.146332e-01 -1.243620e-01 -6.322552e-03 9.129623e-03 5.156326e-02 5.066533e-02 -6.783558e-02 -9.253634e-02 -5.151572e-02 -1.158216e-02 1.344540e-02 6.897176e-02 6.377209e-02 8.969734e-02 3.534638e-02 -1.429832e-01 -1.491465e-01 -2.557549e-01 -2.805875e-01 -2.982379e-01 -2.914638e-01 -3.118016e-01 -3.049724e-01 -3.272662e-01 -3.206833e-01 -3.443730e-01 -3.381392e-01 -3.626555e-01 -3.564759e-01 -3.811781e-01 -3.747730e-01 -3.993776e-01 -3.929091e-01 -4.174560e-01 -4.113664e-01 -4.359983e-01 -4.308469e-01 -4.553841e-01 -4.512467e-01 -4.748259e-01 -4.714749e-01 -4.932994e-01 -4.909126e-01 -5.108204e-01 -5.101017e-01 -5.285505e-01 -5.301443e-01 -5.474319e-01 -5.510692e-01 -5.670993e-01 -5.718378e-01 -5.866378e-01 -5.913388e-01 -6.055704e-01 -6.094573e-01 -6.246569e-01 -6.270870e-01 -6.449011e-01 -6.447775e-01 -6.665544e-01 -6.622853e-01 -6.889698e-01 -6.785915e-01 -7.115469e-01 -6.928594e-01 -7.359935e-01 -6.970085e-01 -7.808660e-01 -7.738268e-01 -7.770205e-01 -7.667529e-01 -7.792837e-01 -7.703697e-01 
-9.320809e-01 -9.279182e-01 -9.656497e-01 -9.598056e-01 -1.002194e+00 -9.965501e-01 -1.082969e+00 -1.095854e+00 -1.142260e+00 -1.142335e+00 -1.203408e+00 -1.190362e+00 -1.260039e+00 -1.185841e+00 -5.353142e-01 -1.613539e-01 2.749564e-01 7.065021e-01 1.164067e+00 1.483400e+00 2.187841e+00 2.216287e+00 2.173093e+00 2.164194e+00 2.120841e+00 2.109159e+00 2.066536e+00 2.053371e+00 2.011634e+00 1.997157e+00 1.956312e+00 1.940379e+00 1.900050e+00 1.882176e+00 1.842113e+00 1.822607e+00 1.783511e+00 1.763537e+00 1.726584e+00 1.707321e+00 1.672718e+00 1.653462e+00 1.619144e+00 1.597998e+00 1.562288e+00 1.539418e+00 1.503118e+00 1.481105e+00 1.446462e+00 1.428064e+00 1.395836e+00 1.381264e+00 1.349845e+00 1.338342e+00 1.306912e+00 1.300224e+00 1.280146e+00 1.370685e+00 1.366781e+00 1.387640e+00 1.360055e+00 1.257663e+00 1.238147e+00 1.248777e+00 1.267406e+00 1.257975e+00 1.263518e+00 1.216037e+00 1.174625e+00 1.066874e+00 8.953353e-01 8.676122e-01 7.453076e-01 7.057970e-01 6.586510e-01 6.400268e-01 5.958476e-01 5.756542e-01 5.339670e-01 5.130703e-01 4.742278e-01 4.529828e-01 4.163400e-01 3.941037e-01 3.580572e-01 3.343935e-01 2.980939e-01 2.738122e-01 2.371270e-01 2.136510e-01 1.768786e-01 1.557283e-01 1.184426e-01 9.947967e-02 5.972870e-02 4.190254e-02 -1.840280e-03 -1.860461e-02 -6.606917e-02 -8.014303e-02 -1.294778e-01 -1.391609e-01 -1.896026e-01 -1.953595e-01 -2.477910e-01 -2.513507e-01 -3.069615e-01 -3.100549e-01 -3.688631e-01 -3.716371e-01 -4.317501e-01 -4.335438e-01 -4.929997e-01 -4.938843e-01 -5.515675e-01 -5.528330e-01 -6.090886e-01 -6.127824e-01 -6.681425e-01 -6.743172e-01 -7.298241e-01 -7.302931e-01 -8.068516e-01 -8.365883e-01 -8.600887e-01 -8.677137e-01 -8.980854e-01 -8.977303e-01 
-7.889657e-01 -7.957184e-01 -8.271796e-01 -8.351191e-01 -8.713893e-01 -8.851954e-01 -9.330646e-01 -9.431822e-01 -9.902647e-01 -9.945825e-01 -1.045073e+00 -1.043439e+00 -1.096063e+00 -1.085130e+00 -2.996069e-01 -2.103341e-01 5.172655e-01 6.321905e-01 1.361518e+00 1.445207e+00 2.232541e+00 2.242107e+00 2.189690e+00 2.192335e+00 2.140077e+00 2.139887e+00 2.088321e+00 2.086386e+00 2.035793e+00 2.032240e+00 1.982777e+00 1.977438e+00 1.928932e+00 1.921392e+00 1.873718e+00 1.864210e+00 1.817926e+00 1.807389e+00 1.763356e+00 1.752749e+00 1.711025e+00 1.699881e+00 1.658786e+00 1.645739e+00 1.603892e+00 1.589094e+00 1.547003e+00 1.532375e+00 1.491628e+00 1.479100e+00 1.440090e+00 1.429451e+00 1.390652e+00 1.380511e+00 1.340701e+00 1.330620e+00 1.290994e+00 1.285155e+00 1.235288e+00 1.220444e+00 1.164370e+00 1.145531e+00 1.102017e+00 1.090957e+00 1.045405e+00 1.027763e+00 9.746165e-01 9.461370e-01 8.881574e-01 8.458955e-01 8.009886e-01 7.871991e-01 7.526992e-01 7.445957e-01 7.102266e-01 6.978797e-01 6.607686e-01 6.448222e-01 6.074519e-01 5.895063e-01 5.533869e-01 5.341841e-01 4.994296e-01 4.787423e-01 4.444412e-01 4.220983e-01 3.877213e-01 3.644642e-01 3.299442e-01 3.069940e-01 2.725114e-01 2.511573e-01 2.162894e-01 1.965806e-01 1.597121e-01 1.409968e-01 1.008271e-01 8.320168e-02 3.982307e-02 2.463435e-02 -2.063182e-02 -3.203370e-02 -7.860540e-02 -8.657781e-02 -1.350675e-01 -1.410343e-01 -1.922160e-01 -1.976695e-01 -2.513394e-01 -2.566314e-01 -3.110565e-01 -3.159620e-01 -3.693091e-01 -3.742167e-01 -4.253078e-01 -4.315626e-01 -4.803008e-01 -4.898663e-01 -5.361302e-01 -5.498888e-01 -5.928206e-01 -6.107078e-01 -6.505310e-01 -6.763835e-01 -7.078012e-01 -7.219534e-01 -7.510035e-01 -7.596656e-01 
-9.348074e-01 -9.364675e-01 -9.837623e-01 -9.844552e-01 -1.036173e+00 -1.037185e+00 -1.095514e+00 -1.097325e+00 -1.155614e+00 -1.155466e+00 -1.216202e+00 -1.213561e+00 -1.276393e+00 -1.272190e+00 -4.148932e-01 -3.259136e-01 4.693351e-01 5.836977e-01 1.384977e+00 1.459946e+00 2.331875e+00 2.317377e+00 2.273242e+00 2.258350e+00 2.214397e+00 2.199172e+00 2.155661e+00 2.139984e+00 2.097093e+00 2.080738e+00 2.038575e+00 2.021315e+00 1.979912e+00 1.961587e+00 1.920994e+00 1.901666e+00 1.862055e+00 1.841989e+00 1.803524e+00 1.782972e+00 1.745540e+00 1.724463e+00 1.687555e+00 1.665790e+00 1.628958e+00 1.606730e+00 1.569955e+00 1.547909e+00 1.511390e+00 1.490088e+00 1.453689e+00 1.433009e+00 1.396026e+00 1.375111e+00 1.336578e+00 1.313791e+00 1.272450e+00 1.244166e+00 1.194550e+00 1.170564e+00 1.119952e+00 1.099976e+00 1.049418e+00 1.031120e+00 9.843073e-01 9.642342e-01 9.219497e-01 8.992582e-01 8.617021e-01 8.373920e-01 8.010549e-01 7.796360e-01 7.454802e-01 7.283378e-01 6.900423e-01 6.714010e-01 6.314003e-01 6.116513e-01 5.714278e-01 5.509064e-01 5.111593e-01 4.900586e-01 4.508758e-01 4.292415e-01 3.903143e-01 3.682746e-01 3.292592e-01 3.072139e-01 2.678372e-01 2.463630e-01 2.063653e-01 1.860195e-01 1.449685e-01 1.260120e-01 8.325550e-02 6.576883e-02 2.079403e-02 5.000511e-03 -4.227996e-02 -5.592448e-02 -1.052460e-01 -1.163806e-01 -1.675627e-01 -1.763139e-01 -2.294004e-01 -2.362870e-01 -2.913054e-01 -2.969360e-01 -3.535837e-01 -3.583535e-01 -4.158962e-01 -4.200662e-01 -4.776647e-01 -4.816178e-01 -5.386223e-01 -5.429445e-01 -5.990417e-01 -6.043431e-01 -6.593849e-01 -6.658726e-01 -7.197361e-01 -7.272340e-01 -7.796894e-01 -7.895890e-01 -8.354684e-01 -8.422947e-01 -8.863035e-01 -8.900856e-01 
-7.907465e-01 -8.016124e-01 -8.380889e-01 -8.490320e-01 -8.881362e-01 -8.999177e-01 -9.423548e-01 -9.544879e-01 -9.988936e-01 -1.011878e+00 -1.057573e+00 -1.073588e+00 -1.119383e+00 -1.142892e+00 -2.809957e-01 -2.719131e-01 5.620404e-01 5.837004e-01 1.416259e+00 1.427223e+00 2.284169e+00 2.266251e+00 2.215731e+00 2.204683e+00 2.153822e+00 2.146125e+00 2.095422e+00 2.089075e+00 2.038906e+00 2.032698e+00 1.983339e+00 1.976528e+00 1.928167e+00 1.920322e+00 1.873102e+00 1.864082e+00 1.818155e+00 1.808043e+00 1.763496e+00 1.752431e+00 1.709138e+00 1.697130e+00 1.654699e+00 1.641716e+00 1.599776e+00 1.586041e+00 1.544486e+00 1.530502e+00 1.489365e+00 1.475594e+00 1.434698e+00 1.421216e+00 1.380037e+00 1.366607e+00 1.324513e+00 1.310848e+00 1.267194e+00 1.253445e+00 1.208255e+00 1.195729e+00 1.150047e+00 1.136226e+00 1.091303e+00 1.074806e+00 1.031204e+00 1.012924e+00 9.696472e-01 9.503588e-01 9.077490e-01 8.884394e-01 8.451523e-01 8.273054e-01 7.818046e-01 7.644721e-01 7.224286e-01 7.058674e-01 6.654565e-01 6.485165e-01 6.092507e-01 5.915759e-01 5.533472e-01 5.348526e-01 4.974975e-01 4.781674e-01 4.413804e-01 4.213298e-01 3.847977e-01 3.643655e-01 3.278189e-01 3.075020e-01 2.706608e-01 2.509579e-01 2.134084e-01 1.946396e-01 1.558243e-01 1.381918e-01 9.764929e-02 8.142860e-02 3.899577e-02 2.457312e-02 -1.965105e-02 -3.199994e-02 -7.790137e-02 -8.826265e-02 -1.357991e-01 -1.445882e-01 -1.936446e-01 -2.014176e-01 -2.516087e-01 -2.588631e-01 -3.094662e-01 -3.166467e-01 -3.667948e-01 -3.744239e-01 -4.233327e-01 -4.320591e-01 -4.791636e-01 -4.896228e-01 -5.345024e-01 -5.469902e-01 -5.892935e-01 -6.035765e-01 -6.431270e-01 -6.583681e-01 -6.950802e-01 -7.086713e-01 -7.438239e-01 -7.556503e-01 
-9.358023e-01 -9.386423e-01 -9.881191e-01 -9.902096e-01 -1.042567e+00 -1.044619e+00 -1.100169e+00 -1.102717e+00 -1.160060e+00 -1.163484e+00 -1.222155e+00 -1.228267e+00 -1.287255e+00 -1.300497e+00 -3.962729e-01 -3.666857e-01 5.039443e-01 5.468850e-01 1.421322e+00 1.442292e+00 2.356774e+00 2.329036e+00 2.285408e+00 2.264102e+00 2.220276e+00 2.201931e+00 2.158289e+00 2.141062e+00 2.097882e+00 2.080755e+00 2.038252e+00 2.020663e+00 1.979004e+00 1.960658e+00 1.919946e+00 1.900714e+00 1.860986e+00 1.840860e+00 1.802083e+00 1.781128e+00 1.743173e+00 1.721470e+00 1.684103e+00 1.661750e+00 1.624706e+00 1.601877e+00 1.564942e+00 1.541885e+00 1.504864e+00 1.481762e+00 1.444345e+00 1.421156e+00 1.382859e+00 1.359314e+00 1.319554e+00 1.295288e+00 1.253460e+00 1.228576e+00 1.186465e+00 1.163960e+00 1.121282e+00 1.099871e+00 1.057034e+00 1.036518e+00 9.934094e-01 9.739535e-01 9.310044e-01 9.116673e-01 8.700242e-01 8.495083e-01 8.093481e-01 7.891385e-01 7.486488e-01 7.290144e-01 6.884795e-01 6.692022e-01 6.284972e-01 6.091080e-01 5.684079e-01 5.487268e-01 5.082060e-01 4.881902e-01 4.478835e-01 4.275642e-01 3.873563e-01 3.668525e-01 3.265427e-01 3.060917e-01 2.654504e-01 2.453869e-01 2.041520e-01 1.848285e-01 1.426750e-01 1.243914e-01 8.095245e-02 6.396045e-02 1.891805e-02 3.465198e-03 -4.336959e-02 -5.704644e-02 -1.057336e-01 -1.174855e-01 -1.680062e-01 -1.778474e-01 -2.301260e-01 -2.382474e-01 -2.921271e-01 -2.988529e-01 -3.540503e-01 -3.597645e-01 -4.158406e-01 -4.209244e-01 -4.773197e-01 -4.821420e-01 -5.382913e-01 -5.432296e-01 -5.986749e-01 -6.040737e-01 -6.584695e-01 -6.645170e-01 -7.175284e-01 -7.241645e-01 -7.753204e-01 -7.822345e-01 -8.308233e-01 -8.366123e-01 -8.839333e-01 -8.881296e-01 
-7.908520e-01 -8.016769e-01 -8.381959e-01 -8.491086e-01 -8.882484e-01 -8.999992e-01 -9.424672e-01 -9.545620e-01 -9.989899e-01 -1.011935e+00 -1.057647e+00 -1.073634e+00 -1.119447e+00 -1.142949e+00 -2.809822e-01 -2.720303e-01 5.620872e-01 5.835739e-01 1.416233e+00 1.427220e+00 2.283953e+00 2.266469e+00 2.215452e+00 2.204901e+00 2.153493e+00 2.146304e+00 2.094982e+00 2.089066e+00 2.038217e+00 2.032324e+00 1.982324e+00 1.975762e+00 1.926974e+00 1.919383e+00 1.872017e+00 1.863157e+00 1.817228e+00 1.806987e+00 1.762433e+00 1.750869e+00 1.707573e+00 1.694828e+00 1.652548e+00 1.638740e+00 1.597133e+00 1.582446e+00 1.541287e+00 1.526100e+00 1.485291e+00 1.469967e+00 1.429279e+00 1.413898e+00 1.372873e+00 1.357299e+00 1.315527e+00 1.299793e+00 1.257294e+00 1.241978e+00 1.198841e+00 1.184235e+00 1.140812e+00 1.126128e+00 1.082307e+00 1.067471e+00 1.023960e+00 1.008441e+00 9.653391e-01 9.490737e-01 9.063286e-01 8.893361e-01 8.457415e-01 8.284043e-01 7.842824e-01 7.678891e-01 7.250219e-01 7.088131e-01 6.670461e-01 6.505358e-01 6.098147e-01 5.927538e-01 5.530782e-01 5.353576e-01 4.966289e-01 4.781978e-01 4.401804e-01 4.210669e-01 3.834576e-01 3.638629e-01 3.264101e-01 3.067326e-01 2.691875e-01 2.498552e-01 2.118538e-01 1.932176e-01 1.543004e-01 1.366485e-01 9.638521e-02 8.002506e-02 3.814166e-02 2.338227e-02 -2.025625e-02 -3.320790e-02 -7.860775e-02 -8.969680e-02 -1.367391e-01 -1.461276e-01 -1.945983e-01 -2.027025e-01 -2.523039e-01 -2.597437e-01 -3.099915e-01 -3.173587e-01 -3.674433e-01 -3.752009e-01 -4.241867e-01 -4.328433e-01 -4.799992e-01 -4.901681e-01 -5.350762e-01 -5.472231e-01 -5.896197e-01 -6.036451e-01 -6.433294e-01 -6.584044e-01 -6.952222e-01 -7.087096e-01 -7.439384e-01 -7.557006e-01 
-9.350227e-01 -9.366090e-01 -9.839744e-01 -9.846241e-01 -1.036392e+00 -1.037367e+00 -1.095724e+00 -1.097466e+00 -1.155727e+00 -1.155505e+00 -1.216186e+00 -1.213523e+00 -1.276304e+00 -1.272191e+00 -4.145946e-01 -3.264941e-01 4.699132e-01 5.827269e-01 1.385365e+00 1.459293e+00 2.331178e+00 2.317804e+00 2.272440e+00 2.258740e+00 2.213518e+00 2.199456e+00 2.154586e+00 2.139881e+00 2.095557e+00 2.079904e+00 2.036401e+00 2.019661e+00 1.977334e+00 1.959479e+00 1.918503e+00 1.899403e+00 1.859691e+00 1.839247e+00 1.800674e+00 1.778988e+00 1.741443e+00 1.718723e+00 1.681963e+00 1.658321e+00 1.621921e+00 1.597496e+00 1.561184e+00 1.536391e+00 1.500104e+00 1.475366e+00 1.438870e+00 1.414245e+00 1.376968e+00 1.352253e+00 1.313697e+00 1.289007e+00 1.249287e+00 1.225402e+00 1.184922e+00 1.162229e+00 1.121313e+00 1.099848e+00 1.058315e+00 1.036866e+00 9.946654e-01 9.737097e-01 9.310586e-01 9.106262e-01 8.679038e-01 8.491372e-01 8.071138e-01 7.887345e-01 7.464442e-01 7.283702e-01 6.861658e-01 6.681066e-01 6.259962e-01 6.076849e-01 5.658189e-01 5.471518e-01 5.057247e-01 4.866708e-01 4.457057e-01 4.262263e-01 3.855426e-01 3.656249e-01 3.249408e-01 3.047445e-01 2.638875e-01 2.438252e-01 2.026537e-01 1.831521e-01 1.413638e-01 1.227455e-01 7.989701e-02 6.240922e-02 1.805516e-02 1.995290e-03 -4.415361e-02 -5.845864e-02 -1.065873e-01 -1.188991e-01 -1.690607e-01 -1.792280e-01 -2.313269e-01 -2.393861e-01 -2.932612e-01 -2.995446e-01 -3.550487e-01 -3.601815e-01 -4.170302e-01 -4.215513e-01 -4.790047e-01 -4.831856e-01 -5.403118e-01 -5.444866e-01 -6.006643e-01 -6.054068e-01 -6.604989e-01 -6.663442e-01 -7.203952e-01 -7.274092e-01 -7.801281e-01 -7.897019e-01 -8.357790e-01 -8.423983e-01 -8.865471e-01 -8.902026e-01 
-7.892401e-01 -7.959203e-01 -8.274863e-01 -8.353775e-01 -8.717468e-01 -8.854896e-01 -9.334661e-01 -9.434435e-01 -9.905775e-01 -9.947285e-01 -1.045248e+00 -1.043488e+00 -1.096172e+00 -1.085210e+00 -2.993896e-01 -2.108891e-01 5.178293e-01 6.312818e-01 1.361911e+00 1.444801e+00 2.231791e+00 2.242733e+00 2.188807e+00 2.193141e+00 2.139335e+00 2.141026e+00 2.087548e+00 2.087068e+00 2.034044e+00 2.031230e+00 1.979139e+00 1.974266e+00 1.924209e+00 1.917835e+00 1.870261e+00 1.862006e+00 1.816327e+00 1.805721e+00 1.761627e+00 1.749001e+00 1.706671e+00 1.692719e+00 1.651960e+00 1.636580e+00 1.596211e+00 1.579061e+00 1.538686e+00 1.520846e+00 1.481275e+00 1.464075e+00 1.425433e+00 1.408691e+00 1.369452e+00 1.351599e+00 1.310059e+00 1.290482e+00 1.246808e+00 1.226172e+00 1.183131e+00 1.165360e+00 1.123324e+00 1.108718e+00 1.066116e+00 1.050657e+00 1.006783e+00 9.913838e-01 9.468788e-01 9.324425e-01 8.880331e-01 8.762096e-01 8.330626e-01 8.212789e-01 7.784849e-01 7.655707e-01 7.224668e-01 7.085448e-01 6.656384e-01 6.505509e-01 6.083819e-01 5.923721e-01 5.516493e-01 5.349075e-01 4.957514e-01 4.781069e-01 4.400749e-01 4.210941e-01 3.834145e-01 3.630642e-01 3.257004e-01 3.049511e-01 2.681580e-01 2.477934e-01 2.111776e-01 1.915220e-01 1.542228e-01 1.353227e-01 9.643422e-02 7.869897e-02 3.790480e-02 2.198086e-02 -2.104708e-02 -3.482141e-02 -8.019483e-02 -9.136402e-02 -1.387670e-01 -1.470919e-01 -1.961665e-01 -2.021236e-01 -2.530703e-01 -2.583311e-01 -3.114604e-01 -3.171632e-01 -3.709252e-01 -3.767795e-01 -4.287657e-01 -4.348996e-01 -4.837806e-01 -4.917957e-01 -5.377946e-01 -5.499943e-01 -5.933048e-01 -6.103866e-01 -6.508853e-01 -6.763553e-01 -7.080959e-01 -7.220282e-01 -7.512729e-01 -7.598082e-01 
-9.324114e-01 -9.281900e-01 -9.660324e-01 -9.601991e-01 -1.002701e+00 -9.971426e-01 -1.083733e+00 -1.096382e+00 -1.142605e+00 -1.142309e+00 -1.203152e+00 -1.189806e+00 -1.259311e+00 -1.184929e+00 -5.349889e-01 -1.631986e-01 2.779249e-01 7.018824e-01 1.168315e+00 1.479110e+00 2.185566e+00 2.217132e+00 2.171522e+00 2.165217e+00 2.119586e+00 2.110612e+00 2.065343e+00 2.054262e+00 2.009252e+00 1.995875e+00 1.951505e+00 1.936240e+00 1.893793e+00 1.877420e+00 1.837388e+00 1.819395e+00 1.780979e+00 1.760713e+00 1.723568e+00 1.701415e+00 1.665881e+00 1.642693e+00 1.608612e+00 1.584150e+00 1.550036e+00 1.523730e+00 1.489134e+00 1.462334e+00 1.428420e+00 1.402846e+00 1.369890e+00 1.345339e+00 1.311460e+00 1.286029e+00 1.249153e+00 1.222447e+00 1.182303e+00 1.154229e+00 1.115147e+00 1.091115e+00 1.053304e+00 1.034285e+00 9.952115e-01 9.739877e-01 9.329120e-01 9.118445e-01 8.694115e-01 8.503787e-01 8.071274e-01 7.934111e-01 7.515831e-01 7.381151e-01 6.963702e-01 6.817027e-01 6.387433e-01 6.236405e-01 5.805135e-01 5.645576e-01 5.217449e-01 5.051425e-01 4.635172e-01 4.464796e-01 4.061652e-01 3.884831e-01 3.488971e-01 3.300113e-01 2.902062e-01 2.699932e-01 2.300847e-01 2.096882e-01 1.702217e-01 1.504917e-01 1.111785e-01 9.235113e-02 5.226932e-02 3.420079e-02 -7.658568e-03 -2.459720e-02 -6.850173e-02 -8.357418e-02 -1.298749e-01 -1.427036e-01 -1.915539e-01 -2.015160e-01 -2.525771e-01 -2.592236e-01 -3.121708e-01 -3.158816e-01 -3.712166e-01 -3.738808e-01 -4.323683e-01 -4.351116e-01 -4.951259e-01 -4.971482e-01 -5.559868e-01 -5.570329e-01 -6.134565e-01 -6.151173e-01 -6.701355e-01 -6.743384e-01 -7.303790e-01 -7.298886e-01 -8.073802e-01 -8.365914e-01 -8.604664e-01 -8.678298e-01 -8.984169e-01 -8.979202e-01 
-7.866010e-01 -7.768298e-01 -7.928565e-01 -7.791978e-01 -7.924310e-01 -7.691449e-01 -8.266737e-01 -8.564852e-01 -8.366830e-01 -8.685034e-01 -8.547798e-01 -8.856775e-01 -8.710506e-01 -8.355953e-01 -6.424998e-01 -5.377744e-01 -3.993399e-01 -2.729720e-01 -1.330734e-01 -3.483224e-02 1.608702e-01 2.069626e-01 1.918626e-01 1.922087e-01 1.738186e-01 1.753049e-01 1.547526e-01 1.577328e-01 1.355982e-01 1.402182e-01 1.167824e-01 1.227290e-01 9.790587e-02 1.046278e-01 7.859901e-02 8.595975e-02 5.938943e-02 6.732429e-02 4.072415e-02 4.882370e-02 2.237826e-02 3.012128e-02 4.060564e-03 1.137598e-02 -1.367933e-02 -6.646884e-03 -3.053267e-02 -2.426245e-02 -4.748190e-02 -4.255204e-02 -6.533881e-02 -6.158434e-02 -8.341137e-02 -7.992961e-02 -1.001963e-01 -9.647267e-02 -1.166882e-01 -1.156267e-01 -1.340131e-01 -1.326215e-01 -1.500698e-01 -1.468512e-01 -1.647102e-01 -1.645323e-01 -1.826339e-01 -1.824974e-01 -2.014686e-01 -2.007032e-01 -2.217110e-01 -2.171927e-01 -2.389429e-01 -2.352303e-01 -2.581176e-01 -2.552024e-01 -2.795256e-01 -2.757116e-01 -2.999700e-01 -2.953519e-01 -3.195763e-01 -3.145604e-01 -3.389596e-01 -3.338413e-01 -3.585384e-01 -3.532859e-01 -3.782343e-01 -3.725984e-01 -3.975127e-01 -3.915058e-01 -4.163119e-01 -4.104949e-01 -4.351767e-01 -4.300479e-01 -4.542381e-01 -4.500815e-01 -4.732522e-01 -4.702338e-01 -4.918943e-01 -4.902891e-01 -5.103032e-01 -5.103844e-01 -5.286706e-01 -5.304386e-01 -5.471358e-01 -5.505252e-01 -5.660996e-01 -5.708098e-01 -5.858692e-01 -5.911306e-01 -6.061279e-01 -6.104700e-01 -6.259045e-01 -6.280106e-01 -6.453596e-01 -6.445712e-01 -6.658116e-01 -6.612744e-01 -6.879643e-01 -6.780040e-01 -7.113090e-01 -6.930937e-01 -7.363395e-01 -6.975070e-01 -7.813600e-01 -7.741394e-01 -7.773453e-01 -7.670068e-01 -7.795859e-01 -7.706384e-01 
-9.315608e-01 -9.131800e-01 -9.365646e-01 -9.175885e-01 -9.351945e-01 -9.112535e-01 -9.354048e-01 -9.509220e-01 -9.317304e-01 -9.622008e-01 -9.366863e-01 -9.766204e-01 -9.488398e-01 -9.754678e-01 -8.922500e-01 -8.992407e-01 -8.368327e-01 -8.358460e-01 -7.754854e-01 -7.795224e-01 -7.017286e-01 -7.168098e-01 -7.056495e-01 -7.283466e-01 -7.184403e-01 -7.356637e-01 -7.284236e-01 -7.406917e-01 -7.362787e-01 -7.436135e-01 -7.422111e-01 -7.454304e-01 -7.479500e-01 -7.483493e-01 -7.548103e-01 -7.524072e-01 -7.614572e-01 -7.561082e-01 -7.668507e-01 -7.594327e-01 -7.717476e-01 -7.635143e-01 -7.768991e-01 -7.678832e-01 -7.805966e-01 -7.703911e-01 -7.819238e-01 -7.720317e-01 -7.836787e-01 -7.758961e-01 -7.880857e-01 -7.820698e-01 -7.929966e-01 -7.864551e-01 -7.941266e-01 -7.862180e-01 -7.918285e-01 -7.851362e-01 -7.897810e-01 -7.850054e-01 -7.898203e-01 -7.860625e-01 -7.909499e-01 -7.878669e-01 -7.921560e-01 -7.882446e-01 -7.931625e-01 -7.884480e-01 -7.958075e-01 -7.893892e-01 -7.996493e-01 -7.932047e-01 -8.055159e-01 -7.984046e-01 -8.120243e-01 -8.029815e-01 -8.172582e-01 -8.060325e-01 -8.213787e-01 -8.085599e-01 -8.258100e-01 -8.119064e-01 -8.312267e-01 -8.161370e-01 -8.369887e-01 -8.201693e-01 -8.415120e-01 -8.229927e-01 -8.447116e-01 -8.259428e-01 -8.482619e-01 -8.304334e-01 -8.526509e-01 -8.362982e-01 -8.571190e-01 -8.423698e-01 -8.605207e-01 -8.479397e-01 -8.630828e-01 -8.534507e-01 -8.653362e-01 -8.588471e-01 -8.676406e-01 -8.644738e-01 -8.710516e-01 -8.709228e-01 -8.763638e-01 -8.778868e-01 -8.826479e-01 -8.826919e-01 -8.871767e-01 -8.832797e-01 -8.904965e-01 -8.821705e-01 -8.962881e-01 -8.825573e-01 -9.061912e-01 -8.842235e-01 -9.177934e-01 -8.839064e-01 -9.282041e-01 -8.781436e-01 -9.427464e-01 -8.999496e-01 -9.276326e-01 -8.988867e-01 -9.264564e-01 -9.052276e-01 
-7.872495e-01 -7.734204e-01 -7.855912e-01 -7.745139e-01 -7.821797e-01 -7.744946e-01 -7.762711e-01 -7.865966e-01 -7.716551e-01 -7.923470e-01 -7.700566e-01 -7.937390e-01 -7.711176e-01 -7.903846e-01 -7.747981e-01 -7.919702e-01 -7.812837e-01 -7.938992e-01 -7.884900e-01 -7.950292e-01 -7.942965e-01 -7.939935e-01 -7.939523e-01 -7.933346e-01 -7.950898e-01 -7.930736e-01 -7.970180e-01 -7.927548e-01 -7.989254e-01 -7.918991e-01 -8.003645e-01 -7.906901e-01 -8.017588e-01 -7.899334e-01 -8.034977e-01 -7.896707e-01 -8.050410e-01 -7.894116e-01 -8.060318e-01 -7.892321e-01 -8.067546e-01 -7.894760e-01 -8.072816e-01 -7.896642e-01 -8.067033e-01 -7.888088e-01 -8.047283e-01 -7.874753e-01 -8.027642e-01 -7.870851e-01 -8.017777e-01 -7.874375e-01 -8.004889e-01 -7.862676e-01 -7.965882e-01 -7.819614e-01 -7.898386e-01 -7.757622e-01 -7.821242e-01 -7.701839e-01 -7.760268e-01 -7.660496e-01 -7.716900e-01 -7.625530e-01 -7.682407e-01 -7.590123e-01 -7.657953e-01 -7.561089e-01 -7.652575e-01 -7.550038e-01 -7.670518e-01 -7.566406e-01 -7.707009e-01 -7.596965e-01 -7.744094e-01 -7.619877e-01 -7.770014e-01 -7.629715e-01 -7.785501e-01 -7.632646e-01 -7.798749e-01 -7.636817e-01 -7.813841e-01 -7.643437e-01 -7.827634e-01 -7.647924e-01 -7.833220e-01 -7.646942e-01 -7.831051e-01 -7.647713e-01 -7.829434e-01 -7.657739e-01 -7.831129e-01 -7.676097e-01 -7.831712e-01 -7.695861e-01 -7.824952e-01 -7.712637e-01 -7.812233e-01 -7.728797e-01 -7.798621e-01 -7.745820e-01 -7.788421e-01 -7.764924e-01 -7.786403e-01 -7.785875e-01 -7.794459e-01 -7.803808e-01 -7.807570e-01 -7.806022e-01 -7.815748e-01 -7.785257e-01 -7.823698e-01 -7.754111e-01 -7.848026e-01 -7.727587e-01 -7.894313e-01 -7.706097e-01 -7.948968e-01 -7.680365e-01 -7.993816e-01 -7.657243e-01 -8.017612e-01 -7.689871e-01 -7.933853e-01 -7.698754e-01 -7.891099e-01 -7.715190e-01 
