# vtk DataFile Version 2.0
Comment goes here
ASCII

DATASET STRUCTURED_POINTS
FIELD FieldData 1
TIME 1 1 double
0.87000000
DIMENSIONS    128   16   1

ORIGIN    0.000   0.000   0.000
SPACING   0.0078125 0.015625   1.000

POINT_DATA   2048
SCALARS uMag double
LOOKUP_TABLE default

7.809412e-03 3.845194e-03 6.706550e-03 9.343069e-04 5.212589e-03 2.110354e-03 1.136796e-02 7.701727e-04 5.829792e-03 4.102151e-03 2.832997e-03 1.355283e-02 2.103589e-02 3.703333e-02 4.593690e-02 4.848090e-02 5.316601e-02 5.131013e-02 5.056989e-02 4.467033e-02 3.866851e-02 1.975897e-02 1.403986e-02 3.904941e-03 3.565153e-03 2.464513e-03 8.169509e-04 5.064145e-03 2.679553e-03 6.037784e-03 3.521308e-03 6.286350e-03 3.959186e-03 6.196762e-03 4.249024e-03 5.945166e-03 4.486688e-03 5.622966e-03 4.697069e-03 5.285823e-03 4.874801e-03 4.972604e-03 5.004675e-03 4.711106e-03 5.071639e-03 4.518287e-03 5.063696e-03 4.395894e-03 4.971656e-03 4.325042e-03 4.784934e-03 4.253746e-03 4.468506e-03 4.055382e-03 3.888495e-03 3.412104e-03 2.515340e-03 1.259818e-03 1.722752e-03 1.796498e-03 5.572796e-03 7.126863e-03 5.269178e-03 4.722006e-03 4.890028e-03 5.404690e-03 4.663131e-03 6.783133e-03 3.236570e-03 7.202033e-03 6.222960e-03 8.366905e-03 9.374913e-03 7.217596e-03 4.663045e-03 5.035803e-03 3.723943e-03 4.579045e-03 3.593802e-03 4.413156e-03 3.615708e-03 4.311079e-03 3.675875e-03 4.210872e-03 3.750981e-03 4.093078e-03 3.843139e-03 3.949824e-03 3.958837e-03 3.778164e-03 4.099805e-03 3.580045e-03 4.259949e-03 3.365168e-03 4.425610e-03 3.154830e-03 4.575830e-03 2.980483e-03 4.680705e-03 2.875870e-03 4.702477e-03 2.871986e-03 4.604772e-03 2.996592e-03 4.364243e-03 3.270563e-03 3.975418e-03 3.697087e-03 3.450358e-03 4.252433e-03 2.821825e-03 4.886393e-03 2.152576e-03 5.527805e-03 1.545542e-03 6.087323e-03 1.162160e-03 6.458723e-03 1.284300e-03 6.524365e-03 2.516728e-03 6.205296e-03 6.682942e-03 1.669310e-03 6.202806e-03 3.337605e-03 7.500050e-03 4.599027e-03 
3.461173e-03 1.121333e-03 3.428439e-03 3.250640e-03 3.354740e-03 9.602282e-03 8.893852e-03 6.013483e-03 5.459569e-03 8.761048e-03 9.448364e-03 1.824637e-02 2.406873e-02 2.491070e-02 1.151270e-02 7.689688e-03 2.903501e-03 4.365420e-03 6.672169e-03 1.219145e-02 2.511448e-02 2.478022e-02 1.593484e-02 1.053667e-02 6.352639e-03 4.640302e-03 2.517310e-03 2.753315e-03 8.369634e-04 2.374247e-03 1.427359e-04 2.266561e-03 4.289289e-04 2.105682e-03 7.215048e-04 1.866245e-03 9.755620e-04 1.577061e-03 1.213234e-03 1.284289e-03 1.437403e-03 1.040289e-03 1.633965e-03 9.108369e-04 1.782004e-03 9.537656e-04 1.849180e-03 1.155438e-03 1.793783e-03 1.466618e-03 1.570401e-03 1.925232e-03 1.370562e-03 2.915285e-03 2.956664e-03 6.757051e-03 9.637371e-03 1.148224e-02 9.138851e-03 1.076395e-02 1.343801e-02 5.059764e-03 8.623309e-03 6.402991e-03 7.658625e-03 4.726007e-03 7.590303e-03 9.415244e-04 1.650484e-03 9.936438e-03 9.307694e-03 1.473319e-02 1.647546e-02 1.517652e-02 8.558668e-03 5.703809e-03 3.018401e-03 2.647053e-03 1.140244e-03 1.536515e-03 4.499905e-04 1.059336e-03 2.695716e-04 7.790720e-04 2.509276e-04 5.818619e-04 2.697160e-04 4.438820e-04 3.352434e-04 3.940491e-04 4.410020e-04 4.693252e-04 5.686156e-04 6.326059e-04 7.060789e-04 8.155769e-04 8.442159e-04 9.689018e-04 9.549261e-04 1.062093e-03 9.962253e-04 1.076380e-03 9.283712e-04 9.954197e-04 7.527285e-04 8.111003e-04 5.567945e-04 6.135762e-04 6.238695e-04 7.198621e-04 1.053480e-03 1.195788e-03 1.626467e-03 1.790915e-03 2.184931e-03 2.368587e-03 2.577127e-03 2.855632e-03 2.577713e-03 3.339335e-03 1.699169e-03 4.993241e-03 4.992559e-03 5.197781e-03 2.832197e-03 1.444803e-03 3.691334e-03 8.998323e-04 
1.059173e-02 8.566037e-03 9.336157e-03 6.615204e-03 1.006507e-02 2.536280e-02 1.053280e-02 1.446939e-02 2.971135e-03 1.070849e-02 1.525242e-03 1.084835e-02 1.185094e-02 1.802176e-02 2.183075e-02 2.213795e-02 2.351782e-02 2.390088e-02 2.187470e-02 2.156565e-02 1.871607e-02 1.042679e-02 5.400081e-03 2.480224e-03 5.262523e-03 4.112309e-03 7.718429e-03 5.823390e-03 9.018249e-03 6.681735e-03 9.617958e-03 7.188791e-03 9.830730e-03 7.586179e-03 9.812019e-03 7.960646e-03 9.653652e-03 8.331809e-03 9.411519e-03 8.666772e-03 9.120762e-03 8.925471e-03 8.820618e-03 9.072854e-03 8.533343e-03 9.085965e-03 8.272606e-03 8.964662e-03 8.028336e-03 8.745509e-03 7.825191e-03 8.632656e-03 7.916073e-03 9.342093e-03 9.701907e-03 1.437897e-02 1.723424e-02 1.437268e-03 9.181206e-03 5.753776e-03 1.268739e-02 1.179236e-02 8.927227e-03 6.511804e-03 8.684665e-03 8.100187e-03 1.302676e-02 1.753058e-02 1.857637e-02 2.845918e-02 2.426939e-02 2.710247e-02 2.820383e-02 2.598241e-02 2.183186e-02 1.541256e-02 1.460695e-02 1.150610e-02 1.192124e-02 1.042672e-02 1.081930e-02 1.024110e-02 1.035307e-02 1.029137e-02 1.014098e-02 1.036830e-02 1.002049e-02 1.043314e-02 9.937291e-03 1.051661e-02 9.868297e-03 1.064350e-02 9.796850e-03 1.081820e-02 9.703202e-03 1.100516e-02 9.573189e-03 1.116623e-02 9.436244e-03 1.127970e-02 9.349417e-03 1.133643e-02 9.381717e-03 1.131693e-02 9.561413e-03 1.116782e-02 9.883310e-03 1.086104e-02 1.033611e-02 1.040262e-02 1.089678e-02 9.836560e-03 1.153891e-02 9.211906e-03 1.220690e-02 8.585693e-03 1.285322e-02 8.087771e-03 1.346813e-02 8.175580e-03 1.411505e-02 1.152571e-02 2.151684e-02 1.414670e-02 9.159961e-03 4.100394e-03 9.656554e-03 8.470302e-03 
9.471931e-03 1.220234e-02 1.714819e-02 2.506512e-02 3.631636e-02 1.467499e-02 2.816625e-02 2.074955e-02 2.363413e-02 2.127553e-02 2.130330e-02 2.149897e-02 1.863709e-02 2.403096e-02 2.193293e-02 2.614111e-02 2.284081e-02 2.672928e-02 2.247290e-02 2.537832e-02 2.058712e-02 2.085559e-02 2.040523e-02 2.151368e-02 2.070134e-02 2.163489e-02 2.113470e-02 2.161064e-02 2.153047e-02 2.150775e-02 2.183417e-02 2.138524e-02 2.203673e-02 2.127667e-02 2.213723e-02 2.119051e-02 2.213949e-02 2.112038e-02 2.204467e-02 2.103929e-02 2.185366e-02 2.090736e-02 2.156794e-02 2.066985e-02 2.117103e-02 2.025047e-02 2.060896e-02 1.953815e-02 1.975086e-02 1.834523e-02 1.833943e-02 1.634746e-02 1.589635e-02 1.294764e-02 1.155002e-02 6.891459e-03 3.856836e-03 5.782241e-03 1.991655e-03 3.929470e-03 3.790969e-03 3.133914e-03 5.482285e-03 6.801596e-03 5.436371e-03 1.079369e-02 1.059781e-02 1.654354e-02 1.943866e-02 2.534906e-02 2.857349e-02 2.941652e-02 3.453347e-02 3.229698e-02 2.940410e-02 2.688405e-02 2.526725e-02 2.482733e-02 2.350193e-02 2.394123e-02 2.265280e-02 2.348846e-02 2.223574e-02 2.319177e-02 2.204123e-02 2.295003e-02 2.196529e-02 2.273727e-02 2.195545e-02 2.256222e-02 2.197861e-02 2.243490e-02 2.200848e-02 2.236033e-02 2.201971e-02 2.233095e-02 2.199222e-02 2.233833e-02 2.192491e-02 2.238060e-02 2.182890e-02 2.246211e-02 2.172311e-02 2.258205e-02 2.161906e-02 2.272007e-02 2.152255e-02 2.285824e-02 2.144026e-02 2.298259e-02 2.137731e-02 2.308429e-02 2.135009e-02 2.314518e-02 2.138509e-02 2.314962e-02 2.154310e-02 2.309046e-02 2.199590e-02 2.294650e-02 2.333734e-02 2.269298e-02 3.107020e-02 3.357445e-02 3.674813e-02 1.695733e-02 1.350592e-02 1.005975e-02 
3.298721e-02 3.687368e-02 3.876025e-02 4.849654e-02 5.721158e-02 5.479165e-02 2.741150e-02 3.948654e-02 2.707122e-02 3.425974e-02 2.493993e-02 2.882755e-02 1.842172e-02 2.253700e-02 2.141674e-02 2.231367e-02 2.238870e-02 2.208306e-02 2.265469e-02 2.162844e-02 2.231501e-02 2.027108e-02 2.801978e-02 2.653493e-02 3.129168e-02 2.942222e-02 3.276114e-02 3.086734e-02 3.341709e-02 3.166935e-02 3.363392e-02 3.218988e-02 3.359489e-02 3.259074e-02 3.339271e-02 3.292418e-02 3.308573e-02 3.319191e-02 3.270272e-02 3.334791e-02 3.224484e-02 3.333388e-02 3.170264e-02 3.308165e-02 3.102709e-02 3.249874e-02 3.012000e-02 3.144026e-02 2.877642e-02 2.963981e-02 2.662375e-02 2.663962e-02 2.301157e-02 2.163568e-02 1.683396e-02 1.299988e-02 7.129182e-03 7.018311e-03 1.103897e-03 2.294520e-03 5.547788e-03 9.846374e-03 9.379401e-03 1.274933e-02 9.931769e-03 1.769220e-02 1.587306e-02 2.611713e-02 2.848093e-02 3.785526e-02 4.734832e-02 4.918433e-02 6.161698e-02 5.114147e-02 4.817880e-02 4.146456e-02 4.125561e-02 3.768856e-02 3.809230e-02 3.606862e-02 3.649307e-02 3.538017e-02 3.561279e-02 3.509031e-02 3.506953e-02 3.496241e-02 3.468526e-02 3.490922e-02 3.439486e-02 3.492250e-02 3.417087e-02 3.500014e-02 3.399366e-02 3.512937e-02 3.383994e-02 3.526601e-02 3.368940e-02 3.536856e-02 3.356246e-02 3.541411e-02 3.350568e-02 3.539315e-02 3.357689e-02 3.528882e-02 3.379455e-02 3.505423e-02 3.414917e-02 3.466902e-02 3.463147e-02 3.414921e-02 3.522517e-02 3.355367e-02 3.590963e-02 3.295663e-02 3.663417e-02 3.244903e-02 3.735772e-02 3.219887e-02 3.807513e-02 3.259649e-02 3.879020e-02 3.488941e-02 3.977377e-02 7.058251e-02 5.248270e-02 4.357970e-02 3.500590e-02 3.560233e-02 
3.706112e-02 3.929757e-02 4.096234e-02 4.624363e-02 5.316838e-02 6.379219e-02 5.894059e-02 6.029131e-02 5.493985e-02 5.690880e-02 5.179779e-02 5.301110e-02 4.638021e-02 4.628244e-02 4.604518e-02 4.622841e-02 4.619379e-02 4.614936e-02 4.628196e-02 4.608238e-02 4.626947e-02 4.670762e-02 5.299544e-02 5.252093e-02 5.573865e-02 5.505084e-02 5.729167e-02 5.627899e-02 5.815471e-02 5.688705e-02 5.858736e-02 5.722141e-02 5.873821e-02 5.744729e-02 5.868916e-02 5.762507e-02 5.849192e-02 5.776008e-02 5.817228e-02 5.780644e-02 5.772828e-02 5.769436e-02 5.714068e-02 5.732749e-02 5.634505e-02 5.657093e-02 5.521105e-02 5.522674e-02 5.348733e-02 5.298259e-02 5.076630e-02 4.940719e-02 4.653036e-02 4.418914e-02 4.107295e-02 4.069031e-02 4.086319e-02 1.360703e-02 2.038574e-02 2.099860e-02 2.061768e-02 2.413938e-02 2.505112e-02 3.005491e-02 3.027349e-02 3.447970e-02 3.521947e-02 3.764063e-02 4.008946e-02 3.999288e-02 4.076014e-02 3.648284e-02 3.627216e-02 4.306141e-02 4.870174e-02 4.905879e-02 5.239102e-02 5.306950e-02 5.505152e-02 5.574736e-02 5.669479e-02 5.739409e-02 5.767047e-02 5.836278e-02 5.823462e-02 5.890245e-02 5.854410e-02 5.919144e-02 5.870630e-02 5.936434e-02 5.878513e-02 5.950164e-02 5.881034e-02 5.964169e-02 5.878809e-02 5.977919e-02 5.871568e-02 5.989917e-02 5.861632e-02 5.999305e-02 5.853182e-02 6.005685e-02 5.851221e-02 6.007667e-02 5.857756e-02 6.001408e-02 5.872736e-02 5.984785e-02 5.896393e-02 5.958279e-02 5.928899e-02 5.925572e-02 5.970538e-02 5.891944e-02 6.020234e-02 5.864577e-02 6.080010e-02 5.857181e-02 6.161079e-02 5.896181e-02 6.296178e-02 6.027816e-02 6.685912e-02 6.366861e-02 4.760185e-02 4.422905e-02 3.865601e-02 3.864097e-02 
4.787284e-02 5.000100e-02 4.968510e-02 5.334486e-02 5.430770e-02 6.006854e-02 6.256446e-02 6.344687e-02 6.165478e-02 6.426579e-02 6.246692e-02 6.587008e-02 6.446595e-02 6.343205e-02 6.314617e-02 6.336242e-02 6.332298e-02 6.326227e-02 6.343207e-02 6.316737e-02 6.342835e-02 6.487390e-02 6.543709e-02 6.334163e-02 6.371321e-02 6.272604e-02 6.340475e-02 6.252246e-02 6.337431e-02 6.244347e-02 6.338194e-02 6.243058e-02 6.335300e-02 6.246080e-02 6.326105e-02 6.251266e-02 6.309755e-02 6.255825e-02 6.285875e-02 6.255835e-02 6.253794e-02 6.246524e-02 6.212243e-02 6.222351e-02 6.158800e-02 6.177524e-02 6.090109e-02 6.107699e-02 6.004295e-02 6.015218e-02 5.910761e-02 5.925348e-02 5.858304e-02 5.927960e-02 6.013718e-02 6.345209e-02 6.880842e-02 6.757070e-02 6.507981e-02 6.488816e-02 6.224961e-02 6.065658e-02 6.053201e-02 5.534932e-02 5.714388e-02 5.199424e-02 5.483573e-02 5.005559e-02 5.148053e-02 4.986523e-02 4.749768e-02 4.715011e-02 4.495804e-02 5.109909e-02 5.422345e-02 5.673803e-02 5.869186e-02 6.008427e-02 6.101052e-02 6.194028e-02 6.223987e-02 6.299669e-02 6.289688e-02 6.359083e-02 6.323991e-02 6.391324e-02 6.340639e-02 6.408388e-02 6.347402e-02 6.418189e-02 6.348583e-02 6.425475e-02 6.346353e-02 6.432538e-02 6.341722e-02 6.439723e-02 6.335416e-02 6.446462e-02 6.328812e-02 6.451935e-02 6.323885e-02 6.455237e-02 6.322709e-02 6.455183e-02 6.326513e-02 6.450294e-02 6.335644e-02 6.439739e-02 6.349916e-02 6.423809e-02 6.368546e-02 6.404035e-02 6.389949e-02 6.382786e-02 6.411250e-02 6.363009e-02 6.428309e-02 6.347841e-02 6.434985e-02 6.336640e-02 6.421220e-02 6.306930e-02 6.404152e-02 5.838278e-02 5.376866e-02 5.211981e-02 4.912985e-02 4.953310e-02 
4.705744e-02 4.842273e-02 4.873181e-02 5.127993e-02 5.245210e-02 5.571579e-02 5.699350e-02 5.946919e-02 6.055355e-02 6.291576e-02 6.562966e-02 6.794516e-02 7.412107e-02 7.398119e-02 7.389786e-02 7.396638e-02 7.394826e-02 7.393302e-02 7.398391e-02 7.389274e-02 7.399102e-02 7.421735e-02 6.710348e-02 6.589086e-02 6.283075e-02 6.211719e-02 6.105033e-02 6.024329e-02 6.022923e-02 5.927904e-02 5.982366e-02 5.878842e-02 5.958740e-02 5.855900e-02 5.940566e-02 5.847561e-02 5.922523e-02 5.846530e-02 5.902167e-02 5.847238e-02 5.878303e-02 5.845038e-02 5.850273e-02 5.836142e-02 5.817712e-02 5.818402e-02 5.781491e-02 5.793623e-02 5.746868e-02 5.772922e-02 5.731422e-02 5.787867e-02 5.780003e-02 5.908141e-02 5.991033e-02 6.289942e-02 6.514251e-02 7.012431e-02 7.063582e-02 6.665419e-02 6.918800e-02 6.467222e-02 6.631860e-02 6.402864e-02 6.613327e-02 6.446704e-02 6.610643e-02 6.593183e-02 6.603647e-02 6.746795e-02 6.416188e-02 6.544742e-02 6.452927e-02 6.118098e-02 5.938067e-02 5.852201e-02 5.846224e-02 5.818913e-02 5.843810e-02 5.842573e-02 5.865496e-02 5.878848e-02 5.889406e-02 5.911642e-02 5.908173e-02 5.936958e-02 5.920374e-02 5.955720e-02 5.926787e-02 5.970349e-02 5.928667e-02 5.982970e-02 5.927139e-02 5.994737e-02 5.923159e-02 6.005682e-02 5.917772e-02 6.015149e-02 5.912510e-02 6.022209e-02 5.909300e-02 6.025828e-02 5.910029e-02 6.024835e-02 5.915888e-02 6.018027e-02 5.927215e-02 6.004772e-02 5.943588e-02 5.985315e-02 5.963621e-02 5.960613e-02 5.984459e-02 5.931507e-02 6.000727e-02 5.897237e-02 6.002773e-02 5.852573e-02 5.972483e-02 5.781544e-02 5.874748e-02 5.647285e-02 5.651419e-02 5.365328e-02 5.133082e-02 4.984984e-02 4.794581e-02 4.791246e-02 
5.197110e-02 5.348468e-02 5.315024e-02 5.567132e-02 5.617207e-02 5.920272e-02 6.047007e-02 6.279822e-02 6.403940e-02 6.629121e-02 6.888662e-02 7.094495e-02 7.709324e-02 7.726236e-02 7.713709e-02 7.723181e-02 7.721001e-02 7.717739e-02 7.726783e-02 7.712114e-02 7.728537e-02 7.706615e-02 6.980890e-02 6.896099e-02 6.607749e-02 6.549873e-02 6.454137e-02 6.388074e-02 6.387764e-02 6.311761e-02 6.359003e-02 6.277636e-02 6.345768e-02 6.265958e-02 6.338422e-02 6.267250e-02 6.333113e-02 6.276603e-02 6.328969e-02 6.291424e-02 6.326957e-02 6.310775e-02 6.329562e-02 6.335633e-02 6.341117e-02 6.369928e-02 6.368859e-02 6.422358e-02 6.424732e-02 6.508629e-02 6.526999e-02 6.651988e-02 6.697128e-02 6.874433e-02 6.941502e-02 7.168763e-02 7.165698e-02 7.458029e-02 7.493022e-02 7.304469e-02 7.507259e-02 7.396615e-02 7.492068e-02 7.461599e-02 7.599145e-02 7.469131e-02 7.550936e-02 7.433426e-02 7.443429e-02 7.334678e-02 7.154597e-02 7.235576e-02 6.882828e-02 6.642774e-02 6.478635e-02 6.430208e-02 6.373031e-02 6.369082e-02 6.340164e-02 6.352682e-02 6.331908e-02 6.352739e-02 6.331734e-02 6.358309e-02 6.333167e-02 6.365377e-02 6.333713e-02 6.372847e-02 6.332523e-02 6.380714e-02 6.329458e-02 6.389171e-02 6.324765e-02 6.398177e-02 6.318978e-02 6.407281e-02 6.312896e-02 6.415660e-02 6.307587e-02 6.422286e-02 6.304299e-02 6.426086e-02 6.304209e-02 6.426050e-02 6.308119e-02 6.421382e-02 6.316242e-02 6.411715e-02 6.328059e-02 6.397193e-02 6.342077e-02 6.378190e-02 6.355312e-02 6.354481e-02 6.362351e-02 6.323486e-02 6.353490e-02 6.276686e-02 6.311145e-02 6.193199e-02 6.204253e-02 6.032206e-02 5.985132e-02 5.738830e-02 5.572087e-02 5.451579e-02 5.286133e-02 5.308591e-02 
4.705753e-02 4.841601e-02 4.873024e-02 5.127731e-02 5.244971e-02 5.571661e-02 5.699237e-02 5.946701e-02 6.055456e-02 6.291332e-02 6.563097e-02 6.794377e-02 7.412099e-02 7.398124e-02 7.389824e-02 7.396689e-02 7.394836e-02 7.393418e-02 7.398368e-02 7.389431e-02 7.399057e-02 7.421430e-02 6.714591e-02 6.591320e-02 6.285815e-02 6.215840e-02 6.108418e-02 6.029807e-02 6.028552e-02 5.934647e-02 5.992144e-02 5.887417e-02 5.974988e-02 5.867719e-02 5.966203e-02 5.865265e-02 5.961347e-02 5.874591e-02 5.959632e-02 5.893103e-02 5.962704e-02 5.920323e-02 5.974095e-02 5.958068e-02 5.999508e-02 6.011342e-02 6.047604e-02 6.089621e-02 6.131001e-02 6.207701e-02 6.265896e-02 6.383777e-02 6.466580e-02 6.629172e-02 6.725294e-02 6.897026e-02 6.817080e-02 6.968122e-02 6.925022e-02 6.839587e-02 6.940514e-02 6.821179e-02 6.946450e-02 6.809043e-02 7.033064e-02 6.927516e-02 7.129947e-02 7.190083e-02 7.354282e-02 7.512766e-02 7.500993e-02 7.734684e-02 7.401133e-02 6.962979e-02 6.757973e-02 6.543231e-02 6.437383e-02 6.302936e-02 6.244995e-02 6.156018e-02 6.128075e-02 6.068181e-02 6.057653e-02 6.017989e-02 6.015246e-02 5.991745e-02 5.988955e-02 5.980771e-02 5.971108e-02 5.979499e-02 5.957057e-02 5.984431e-02 5.944478e-02 5.993234e-02 5.932687e-02 6.004012e-02 5.921987e-02 6.014796e-02 5.913229e-02 6.023619e-02 5.907729e-02 6.028720e-02 5.906853e-02 6.028583e-02 5.911629e-02 6.022130e-02 5.922432e-02 6.008907e-02 5.938846e-02 5.989330e-02 5.959440e-02 5.964328e-02 5.981118e-02 5.934618e-02 5.998365e-02 5.899441e-02 6.001480e-02 5.853663e-02 5.972387e-02 5.781522e-02 5.875822e-02 5.646222e-02 5.653132e-02 5.363581e-02 5.133847e-02 4.983339e-02 4.794868e-02 4.790090e-02 
4.787497e-02 4.998610e-02 4.968379e-02 5.333914e-02 5.430494e-02 6.007593e-02 6.256277e-02 6.343591e-02 6.166047e-02 6.425604e-02 6.247292e-02 6.586459e-02 6.446654e-02 6.343003e-02 6.314833e-02 6.336269e-02 6.332338e-02 6.326574e-02 6.343058e-02 6.317307e-02 6.342694e-02 6.486407e-02 6.551393e-02 6.338587e-02 6.378337e-02 6.281492e-02 6.349993e-02 6.264807e-02 6.352317e-02 6.260636e-02 6.362180e-02 6.264365e-02 6.373043e-02 6.275283e-02 6.383413e-02 6.293514e-02 6.394010e-02 6.319513e-02 6.407289e-02 6.354641e-02 6.427389e-02 6.401364e-02 6.460000e-02 6.463904e-02 6.512975e-02 6.549347e-02 6.597205e-02 6.669026e-02 6.727897e-02 6.839872e-02 6.925547e-02 7.085270e-02 7.217098e-02 7.437379e-02 7.644886e-02 7.953412e-02 8.138132e-02 8.174847e-02 7.961882e-02 7.928740e-02 7.860191e-02 7.837422e-02 7.764777e-02 7.792330e-02 7.679358e-02 7.634462e-02 7.487015e-02 7.363942e-02 7.136604e-02 6.853595e-02 6.676925e-02 6.454701e-02 6.579902e-02 6.637176e-02 6.612895e-02 6.613309e-02 6.569891e-02 6.550256e-02 6.508061e-02 6.484413e-02 6.454867e-02 6.434017e-02 6.417727e-02 6.402120e-02 6.394390e-02 6.386085e-02 6.380087e-02 6.381935e-02 6.370095e-02 6.385831e-02 6.361032e-02 6.394984e-02 6.351350e-02 6.407472e-02 6.341002e-02 6.421721e-02 6.330736e-02 6.435861e-02 6.321595e-02 6.447937e-02 6.315071e-02 6.456240e-02 6.312691e-02 6.459296e-02 6.315679e-02 6.456107e-02 6.324644e-02 6.446295e-02 6.339538e-02 6.430588e-02 6.359603e-02 6.410542e-02 6.382855e-02 6.388345e-02 6.406210e-02 6.366992e-02 6.425431e-02 6.349816e-02 6.434448e-02 6.336603e-02 6.422902e-02 6.305095e-02 6.407127e-02 5.834757e-02 5.378332e-02 5.208617e-02 4.913744e-02 4.950887e-02 
3.705892e-02 3.927862e-02 4.095744e-02 4.623877e-02 5.316192e-02 6.381448e-02 5.893465e-02 6.027992e-02 5.494962e-02 5.689721e-02 5.180731e-02 5.300110e-02 4.638333e-02 4.628094e-02 4.604725e-02 4.622927e-02 4.619427e-02 4.615372e-02 4.628087e-02 4.608939e-02 4.626826e-02 4.669957e-02 5.300899e-02 5.259779e-02 5.573654e-02 5.518104e-02 5.731496e-02 5.643716e-02 5.823699e-02 5.706062e-02 5.877952e-02 5.741731e-02 5.910032e-02 5.769026e-02 5.929446e-02 5.796686e-02 5.941957e-02 5.828278e-02 5.953109e-02 5.867336e-02 5.969726e-02 5.917010e-02 5.998420e-02 5.981033e-02 6.047177e-02 6.065219e-02 6.125923e-02 6.179090e-02 6.248669e-02 6.336772e-02 6.432306e-02 6.555225e-02 6.698410e-02 6.859773e-02 7.090596e-02 7.334276e-02 7.743246e-02 7.730030e-02 7.448569e-02 7.418190e-02 7.167554e-02 7.163614e-02 7.053057e-02 7.075268e-02 6.858824e-02 6.795153e-02 6.562831e-02 6.427743e-02 6.195446e-02 5.942924e-02 5.824936e-02 5.531733e-02 5.797213e-02 6.027936e-02 6.130388e-02 6.157548e-02 6.167554e-02 6.127480e-02 6.124447e-02 6.062206e-02 6.070065e-02 6.001491e-02 6.024878e-02 5.956948e-02 5.992177e-02 5.930863e-02 5.969981e-02 5.921056e-02 5.952627e-02 5.922407e-02 5.935128e-02 5.931466e-02 5.915861e-02 5.946313e-02 5.895852e-02 5.965607e-02 5.876803e-02 5.985925e-02 5.859545e-02 6.003491e-02 5.846620e-02 6.015624e-02 5.840621e-02 6.019652e-02 5.843822e-02 6.013792e-02 5.857227e-02 5.996710e-02 5.881199e-02 5.970157e-02 5.916348e-02 5.937255e-02 5.961013e-02 5.901986e-02 6.013728e-02 5.871612e-02 6.076330e-02 5.860037e-02 6.161221e-02 5.895324e-02 6.301660e-02 6.023488e-02 6.697937e-02 6.359912e-02 4.760222e-02 4.416100e-02 3.865479e-02 3.860393e-02 
3.298900e-02 3.684281e-02 3.876038e-02 4.847489e-02 5.722629e-02 5.479516e-02 2.739318e-02 3.949166e-02 2.707230e-02 3.426119e-02 2.494311e-02 2.881938e-02 1.843495e-02 2.252837e-02 2.142426e-02 2.231270e-02 2.238988e-02 2.209289e-02 2.264639e-02 2.164659e-02 2.231202e-02 2.027292e-02 2.801975e-02 2.662121e-02 3.129942e-02 2.956360e-02 3.281176e-02 3.103628e-02 3.354091e-02 3.184847e-02 3.388048e-02 3.238234e-02 3.402057e-02 3.281622e-02 3.406497e-02 3.322726e-02 3.406753e-02 3.363736e-02 3.407741e-02 3.407251e-02 3.415330e-02 3.455126e-02 3.433676e-02 3.508935e-02 3.466703e-02 3.570898e-02 3.517965e-02 3.644615e-02 3.592250e-02 3.734517e-02 3.691557e-02 3.840497e-02 3.813013e-02 3.958588e-02 3.953267e-02 4.096970e-02 4.147892e-02 4.235574e-02 4.126924e-02 4.166798e-02 4.013900e-02 4.016209e-02 3.975435e-02 3.972112e-02 3.896112e-02 3.844763e-02 3.744599e-02 3.660462e-02 3.575589e-02 3.475545e-02 3.442115e-02 3.359435e-02 3.383086e-02 3.416994e-02 3.399298e-02 3.404396e-02 3.387361e-02 3.388806e-02 3.382062e-02 3.381328e-02 3.383479e-02 3.380467e-02 3.388079e-02 3.384873e-02 3.393480e-02 3.395561e-02 3.398844e-02 3.412534e-02 3.400334e-02 3.432802e-02 3.394838e-02 3.454884e-02 3.383048e-02 3.478304e-02 3.368381e-02 3.502635e-02 3.354448e-02 3.524219e-02 3.343308e-02 3.538590e-02 3.339099e-02 3.542763e-02 3.345685e-02 3.533837e-02 3.366211e-02 3.510238e-02 3.401680e-02 3.471035e-02 3.451579e-02 3.419484e-02 3.515124e-02 3.360371e-02 3.587793e-02 3.299279e-02 3.663950e-02 3.245329e-02 3.739253e-02 3.215584e-02 3.814838e-02 3.251080e-02 3.892168e-02 3.476117e-02 3.999838e-02 7.066442e-02 5.250710e-02 4.348368e-02 3.499807e-02 3.554964e-02 
9.489199e-03 1.218472e-02 1.716110e-02 2.504792e-02 3.634443e-02 1.466869e-02 2.818010e-02 2.072752e-02 2.366685e-02 2.124231e-02 2.133981e-02 2.145989e-02 1.867353e-02 2.399065e-02 2.196863e-02 2.609856e-02 2.288105e-02 2.668226e-02 2.251909e-02 2.533937e-02 2.064320e-02 2.084904e-02 2.041847e-02 2.157190e-02 2.070449e-02 2.173416e-02 2.114604e-02 2.174038e-02 2.156518e-02 2.166594e-02 2.191645e-02 2.157777e-02 2.219710e-02 2.151905e-02 2.241553e-02 2.151250e-02 2.257868e-02 2.156529e-02 2.270339e-02 2.168558e-02 2.281485e-02 2.187904e-02 2.293833e-02 2.214900e-02 2.310442e-02 2.250088e-02 2.334613e-02 2.294642e-02 2.369953e-02 2.350288e-02 2.418209e-02 2.417076e-02 2.478855e-02 2.493641e-02 2.551985e-02 2.588827e-02 2.667697e-02 2.685941e-02 2.625117e-02 2.649501e-02 2.544076e-02 2.577095e-02 2.522403e-02 2.559813e-02 2.473722e-02 2.480449e-02 2.380079e-02 2.355913e-02 2.276209e-02 2.215647e-02 2.206736e-02 2.125839e-02 2.192350e-02 2.182215e-02 2.209275e-02 2.174270e-02 2.200219e-02 2.159407e-02 2.196941e-02 2.149669e-02 2.200072e-02 2.145400e-02 2.206277e-02 2.145576e-02 2.212924e-02 2.149731e-02 2.218838e-02 2.157119e-02 2.222278e-02 2.166386e-02 2.222029e-02 2.176963e-02 2.218148e-02 2.188741e-02 2.211372e-02 2.202049e-02 2.201973e-02 2.216562e-02 2.189869e-02 2.231693e-02 2.176129e-02 2.247571e-02 2.161973e-02 2.264089e-02 2.148752e-02 2.280857e-02 2.137447e-02 2.296727e-02 2.128526e-02 2.311180e-02 2.122961e-02 2.322610e-02 2.121662e-02 2.328890e-02 2.126593e-02 2.328555e-02 2.143389e-02 2.321164e-02 2.189287e-02 2.304703e-02 2.323830e-02 2.275160e-02 3.098822e-02 3.394813e-02 3.674990e-02 1.694318e-02 1.346428e-02 1.004119e-02 
1.060636e-02 8.559189e-03 9.347935e-03 6.601442e-03 1.005768e-02 2.535516e-02 1.048833e-02 1.446588e-02 2.986109e-03 1.070083e-02 1.489915e-03 1.083679e-02 1.179867e-02 1.803749e-02 2.177528e-02 2.214618e-02 2.348804e-02 2.386176e-02 2.191315e-02 2.147233e-02 1.879274e-02 1.034908e-02 5.627413e-03 2.350916e-03 5.281877e-03 4.190323e-03 7.682474e-03 5.926845e-03 8.984390e-03 6.770778e-03 9.626018e-03 7.252931e-03 9.918589e-03 7.625409e-03 1.002056e-02 7.989457e-03 1.000727e-02 8.366082e-03 9.937039e-03 8.769734e-03 9.873386e-03 9.203039e-03 9.860678e-03 9.662057e-03 9.939270e-03 1.014792e-02 1.014199e-02 1.067517e-02 1.050913e-02 1.127326e-02 1.105199e-02 1.193898e-02 1.173455e-02 1.265129e-02 1.250481e-02 1.343109e-02 1.328361e-02 1.402503e-02 1.338588e-02 1.377017e-02 1.301813e-02 1.277006e-02 1.270817e-02 1.237297e-02 1.257613e-02 1.180960e-02 1.231452e-02 1.110577e-02 1.193274e-02 1.056582e-02 1.116362e-02 1.004245e-02 1.044502e-02 9.863254e-03 1.063424e-02 9.895197e-03 1.078708e-02 9.865586e-03 1.085994e-02 9.807748e-03 1.086506e-02 9.750202e-03 1.082208e-02 9.723430e-03 1.075092e-02 9.765544e-03 1.067104e-02 9.890542e-03 1.055786e-02 1.007276e-02 1.038426e-02 1.029704e-02 1.015647e-02 1.055575e-02 9.905817e-03 1.084120e-02 9.664715e-03 1.111329e-02 9.452245e-03 1.132463e-02 9.312988e-03 1.144387e-02 9.291390e-03 1.143946e-02 9.423665e-03 1.129076e-02 9.720493e-03 1.098086e-02 1.017105e-02 1.053287e-02 1.076022e-02 9.977586e-03 1.143570e-02 9.345304e-03 1.213372e-02 8.691219e-03 1.280292e-02 8.141734e-03 1.344943e-02 8.161102e-03 1.414529e-02 1.144590e-02 2.155909e-02 1.411113e-02 9.175708e-03 4.143177e-03 9.668853e-03 8.476699e-03 
3.469525e-03 1.111234e-03 3.437698e-03 3.245820e-03 3.353367e-03 9.593807e-03 8.886412e-03 6.012175e-03 5.462003e-03 8.755136e-03 9.453546e-03 1.822643e-02 2.407217e-02 2.489361e-02 1.150906e-02 7.718693e-03 2.840981e-03 4.276118e-03 6.757671e-03 1.202004e-02 2.508935e-02 2.474426e-02 1.606519e-02 1.041604e-02 6.524078e-03 4.447972e-03 2.747397e-03 2.548206e-03 1.123733e-03 2.231072e-03 4.230225e-04 2.176284e-03 2.898677e-04 2.047657e-03 4.740847e-04 1.830355e-03 6.876234e-04 1.562846e-03 8.899712e-04 1.278346e-03 1.057866e-03 1.010920e-03 1.171477e-03 8.004391e-04 1.214425e-03 6.928625e-04 1.176774e-03 7.113100e-04 1.048627e-03 8.357525e-04 8.384350e-04 1.037846e-03 6.178460e-04 1.318138e-03 6.921644e-04 1.705173e-03 8.998977e-04 1.623035e-03 1.331110e-03 1.966024e-03 2.254586e-03 1.113344e-03 1.304260e-03 3.870745e-04 1.125171e-03 5.079890e-04 8.651708e-04 1.174457e-03 2.883108e-04 1.357223e-03 4.544138e-04 1.606188e-03 1.832456e-03 2.280100e-03 1.826041e-03 2.175523e-03 1.351005e-03 1.847030e-03 8.902510e-04 1.503790e-03 5.620326e-04 1.189015e-03 3.627898e-04 9.014722e-04 2.625447e-04 6.249510e-04 2.478104e-04 3.430934e-04 3.154063e-04 6.127896e-05 4.413532e-04 2.214067e-04 6.019257e-04 4.855858e-04 7.704310e-04 7.289946e-04 9.155223e-04 9.283477e-04 1.012666e-03 1.052262e-03 1.031555e-03 1.076118e-03 9.464110e-04 9.814837e-04 7.517168e-04 7.753150e-04 5.160585e-04 5.589179e-04 5.531704e-04 6.841454e-04 1.010358e-03 1.175670e-03 1.610243e-03 1.776164e-03 2.184570e-03 2.357673e-03 2.583101e-03 2.847525e-03 2.589682e-03 3.323059e-03 1.718714e-03 4.982634e-03 4.915399e-03 5.161624e-03 2.858200e-03 1.463107e-03 3.699732e-03 9.110066e-04 
