# vtk DataFile Version 2.0
Comment goes here
ASCII

DATASET STRUCTURED_POINTS
FIELD FieldData 1
TIME 1 1 double
0.98000000
DIMENSIONS    128   16   1

ORIGIN    0.000   0.000   0.000
SPACING   0.0078125 0.015625   1.000

POINT_DATA   2048
SCALARS uMag double
LOOKUP_TABLE default

5.992282e-03 4.117536e-03 4.832375e-03 2.415570e-03 3.542933e-03 2.403280e-03 9.860455e-03 9.034989e-05 5.535519e-03 4.072324e-03 2.993779e-03 1.420190e-02 2.110299e-02 3.640656e-02 4.438936e-02 4.832790e-02 5.077592e-02 5.085090e-02 4.849433e-02 4.401348e-02 3.727568e-02 2.083917e-02 1.375627e-02 4.897189e-03 2.911033e-03 1.784707e-03 1.604036e-03 4.619113e-03 3.474956e-03 5.800393e-03 4.246020e-03 6.240078e-03 4.571005e-03 6.328041e-03 4.729776e-03 6.237681e-03 4.836902e-03 6.054163e-03 4.932356e-03 5.826697e-03 5.022392e-03 5.588770e-03 5.099098e-03 5.365029e-03 5.151275e-03 5.174624e-03 5.172137e-03 5.032505e-03 5.163639e-03 4.944569e-03 5.129661e-03 4.884398e-03 5.037226e-03 4.728487e-03 4.718240e-03 4.245864e-03 4.053340e-03 3.686007e-03 4.866861e-04 6.521934e-04 3.719217e-03 3.971408e-03 3.621220e-03 3.190894e-03 4.591467e-03 4.487480e-03 5.152494e-03 5.307186e-03 4.077025e-03 8.453097e-03 8.823989e-03 1.163678e-02 1.284059e-02 9.913400e-03 6.170043e-03 6.154911e-03 3.958383e-03 5.144622e-03 3.470189e-03 4.780138e-03 3.490597e-03 4.559458e-03 3.701837e-03 4.334685e-03 3.984230e-03 4.074071e-03 4.282490e-03 3.790872e-03 4.565325e-03 3.513190e-03 4.809149e-03 3.271922e-03 4.991941e-03 3.096091e-03 5.091989e-03 3.010443e-03 5.089373e-03 3.033541e-03 4.968502e-03 3.176870e-03 4.721902e-03 3.443917e-03 4.354007e-03 3.826912e-03 3.883237e-03 4.302262e-03 3.342264e-03 4.827744e-03 2.778799e-03 5.344117e-03 2.256610e-03 5.780392e-03 1.855228e-03 6.060348e-03 1.668249e-03 6.110761e-03 1.809012e-03 5.875789e-03 2.448755e-03 5.346818e-03 3.959711e-03 4.649463e-03 7.567878e-03 1.229696e-03 4.868406e-03 2.617654e-03 5.736815e-03 4.219489e-03 
1.931207e-03 1.256081e-03 1.722604e-03 2.060720e-03 2.897373e-03 6.634336e-03 7.795797e-03 4.842226e-03 6.572374e-03 8.727503e-03 1.034416e-02 1.821517e-02 2.223363e-02 2.328672e-02 1.216816e-02 7.064996e-03 3.659197e-03 4.811637e-03 6.984378e-03 1.182503e-02 2.319683e-02 2.360428e-02 1.586266e-02 1.098900e-02 6.552855e-03 4.857446e-03 2.698920e-03 2.670708e-03 1.071494e-03 2.089846e-03 4.424966e-04 1.948858e-03 3.668586e-04 1.842842e-03 4.711303e-04 1.701601e-03 5.981875e-04 1.531801e-03 7.412369e-04 1.361602e-03 8.995331e-04 1.227628e-03 1.063719e-03 1.173251e-03 1.227314e-03 1.239011e-03 1.389602e-03 1.454361e-03 1.577399e-03 1.875623e-03 1.939821e-03 2.721775e-03 3.024869e-03 4.746994e-03 6.406102e-03 1.056115e-02 1.398964e-02 1.526145e-02 1.305816e-02 1.323315e-02 1.263337e-02 1.065767e-02 1.223886e-02 1.041672e-02 9.897642e-03 7.272010e-03 9.185345e-03 4.679860e-03 1.147248e-02 1.850790e-02 1.263961e-02 1.723067e-02 1.683078e-02 1.883409e-02 1.131194e-02 7.993631e-03 3.613040e-03 3.394995e-03 9.655763e-04 1.798365e-03 2.104549e-04 1.247900e-03 3.231011e-04 1.015132e-03 3.622883e-04 9.361932e-04 3.984628e-04 9.993457e-04 4.867986e-04 1.153132e-03 6.059883e-04 1.323927e-03 7.137364e-04 1.460680e-03 7.715736e-04 1.530399e-03 7.545231e-04 1.511426e-03 6.563286e-04 1.390241e-03 5.136709e-04 1.169482e-03 4.830717e-04 8.822412e-04 7.453276e-04 6.436265e-04 1.191494e-03 6.985135e-04 1.698106e-03 1.027764e-03 2.178527e-03 1.397387e-03 2.551688e-03 1.674005e-03 2.731173e-03 1.787592e-03 2.623915e-03 1.750212e-03 2.097925e-03 1.903415e-03 9.418142e-04 3.620582e-03 4.542263e-03 6.330379e-03 1.385540e-03 1.695647e-03 2.376515e-03 6.144514e-04 
8.710180e-03 7.838402e-03 6.334729e-03 6.400802e-03 8.057800e-03 2.504181e-02 5.060679e-03 1.230893e-02 4.011536e-03 8.984781e-03 4.927161e-04 6.885387e-03 9.491660e-03 1.608818e-02 1.912987e-02 2.027963e-02 2.043518e-02 2.156450e-02 1.927251e-02 1.883847e-02 1.637349e-02 7.154976e-03 2.694802e-03 2.897294e-03 4.851300e-03 6.235364e-03 7.683213e-03 7.861378e-03 9.075981e-03 8.562782e-03 9.784947e-03 8.888401e-03 1.015252e-02 9.078949e-03 1.032081e-02 9.222807e-03 1.036140e-02 9.348535e-03 1.031886e-02 9.449205e-03 1.022027e-02 9.505906e-03 1.007848e-02 9.484818e-03 9.876598e-03 9.346713e-03 9.585990e-03 9.075848e-03 9.189762e-03 8.740203e-03 8.812107e-03 8.743921e-03 9.212079e-03 1.059927e-02 1.330713e-02 1.854552e-02 2.222194e-02 6.638085e-03 8.944460e-03 3.945528e-03 3.862736e-03 3.398799e-03 5.053157e-03 4.525746e-03 9.727836e-03 8.595443e-03 1.435149e-02 1.765406e-02 1.983455e-02 3.027729e-02 3.087729e-02 3.373965e-02 3.655942e-02 3.043160e-02 2.717826e-02 1.900933e-02 1.817095e-02 1.309272e-02 1.447318e-02 1.117330e-02 1.277915e-02 1.081384e-02 1.185999e-02 1.102519e-02 1.126516e-02 1.141516e-02 1.082170e-02 1.182245e-02 1.047061e-02 1.217796e-02 1.019599e-02 1.244894e-02 1.000618e-02 1.262798e-02 9.917109e-03 1.271063e-02 9.940751e-03 1.269311e-02 1.008387e-02 1.256621e-02 1.034234e-02 1.232675e-02 1.071089e-02 1.198009e-02 1.117016e-02 1.153921e-02 1.169462e-02 1.103603e-02 1.224700e-02 1.050675e-02 1.277209e-02 1.000932e-02 1.321495e-02 9.621754e-03 1.351863e-02 9.446488e-03 1.364626e-02 9.633289e-03 1.359145e-02 1.051645e-02 1.342220e-02 1.370134e-02 1.749874e-02 1.753683e-02 9.165060e-03 3.865918e-03 7.760629e-03 7.493635e-03 
9.168686e-03 1.186273e-02 1.699986e-02 2.694360e-02 2.892096e-02 2.371563e-02 2.621195e-02 2.014487e-02 2.517025e-02 1.998075e-02 2.388956e-02 2.000972e-02 2.230431e-02 2.313371e-02 2.536362e-02 2.594005e-02 2.570139e-02 2.702470e-02 2.475909e-02 2.648502e-02 2.197141e-02 2.286579e-02 2.063039e-02 2.296274e-02 2.066080e-02 2.290119e-02 2.088286e-02 2.278214e-02 2.116416e-02 2.260957e-02 2.143845e-02 2.240353e-02 2.167999e-02 2.218013e-02 2.187145e-02 2.194393e-02 2.200359e-02 2.169020e-02 2.206836e-02 2.140267e-02 2.205102e-02 2.105498e-02 2.192186e-02 2.060158e-02 2.161939e-02 1.996604e-02 2.103441e-02 1.902010e-02 1.997195e-02 1.752978e-02 1.808243e-02 1.505043e-02 1.472317e-02 1.074017e-02 8.731545e-03 4.295725e-03 4.899268e-03 1.188710e-02 7.949374e-03 6.063056e-03 5.329005e-03 4.363721e-03 3.857704e-03 3.404746e-03 2.357115e-03 9.764862e-03 9.887544e-03 1.757590e-02 1.985354e-02 2.675678e-02 2.654886e-02 2.839949e-02 3.070148e-02 2.939361e-02 2.989995e-02 2.523736e-02 2.566251e-02 2.346066e-02 2.397664e-02 2.301003e-02 2.314415e-02 2.295973e-02 2.265118e-02 2.302291e-02 2.232833e-02 2.310146e-02 2.210679e-02 2.315867e-02 2.195598e-02 2.318659e-02 2.185747e-02 2.318928e-02 2.179851e-02 2.318043e-02 2.176695e-02 2.317317e-02 2.175185e-02 2.317633e-02 2.174550e-02 2.319115e-02 2.174187e-02 2.321571e-02 2.173991e-02 2.324339e-02 2.174042e-02 2.326326e-02 2.174712e-02 2.326341e-02 2.176907e-02 2.322744e-02 2.181542e-02 2.314713e-02 2.190540e-02 2.302239e-02 2.207052e-02 2.286647e-02 2.237385e-02 2.270319e-02 2.296611e-02 2.255494e-02 2.434343e-02 2.242860e-02 3.028779e-02 2.068984e-02 3.719673e-02 2.132504e-02 1.534608e-02 9.938487e-03 
3.582230e-02 3.801667e-02 4.290601e-02 5.026159e-02 6.034179e-02 4.629127e-02 2.879546e-02 3.949827e-02 2.837284e-02 3.523405e-02 2.667507e-02 2.988215e-02 2.234763e-02 2.521789e-02 2.498256e-02 2.534076e-02 2.571730e-02 2.536600e-02 2.568979e-02 2.535560e-02 2.482296e-02 2.476861e-02 2.884995e-02 2.919563e-02 3.193459e-02 3.130547e-02 3.332252e-02 3.231164e-02 3.397129e-02 3.283726e-02 3.424100e-02 3.316009e-02 3.429104e-02 3.339368e-02 3.418891e-02 3.356693e-02 3.397075e-02 3.367618e-02 3.365617e-02 3.368849e-02 3.324343e-02 3.355110e-02 3.270313e-02 3.317433e-02 3.194787e-02 3.241555e-02 3.081706e-02 3.105325e-02 2.901975e-02 2.870757e-02 2.602451e-02 2.469491e-02 2.083796e-02 1.775845e-02 1.171258e-02 6.789094e-03 1.052034e-02 1.926464e-02 1.394367e-02 9.079127e-03 8.447320e-03 6.401398e-03 8.592827e-03 5.761359e-03 3.021879e-03 1.083164e-02 1.079951e-02 2.082782e-02 2.698141e-02 3.491715e-02 4.519302e-02 4.854083e-02 5.928020e-02 5.200109e-02 4.912428e-02 4.180351e-02 4.184928e-02 3.760175e-02 3.873791e-02 3.597000e-02 3.720261e-02 3.541142e-02 3.631627e-02 3.533227e-02 3.571687e-02 3.546809e-02 3.525763e-02 3.568292e-02 3.488745e-02 3.590298e-02 3.459296e-02 3.608311e-02 3.438302e-02 3.620200e-02 3.427366e-02 3.624296e-02 3.427606e-02 3.619338e-02 3.439562e-02 3.603937e-02 3.462754e-02 3.577658e-02 3.496720e-02 3.541322e-02 3.539649e-02 3.496815e-02 3.589064e-02 3.448138e-02 3.641061e-02 3.399831e-02 3.689784e-02 3.358376e-02 3.729243e-02 3.331960e-02 3.753278e-02 3.331096e-02 3.758053e-02 3.371794e-02 3.743291e-02 3.487139e-02 3.712023e-02 3.774959e-02 3.685299e-02 6.398881e-02 5.795154e-02 4.762666e-02 3.897173e-02 3.724880e-02 
4.158677e-02 4.356252e-02 4.629451e-02 5.221322e-02 6.072699e-02 6.879682e-02 6.137815e-02 6.283511e-02 5.892775e-02 5.927577e-02 5.576957e-02 5.481867e-02 5.032029e-02 4.996394e-02 5.006515e-02 4.999850e-02 5.010307e-02 5.003891e-02 5.006165e-02 5.009595e-02 4.993320e-02 5.054083e-02 5.534929e-02 5.661343e-02 5.844770e-02 5.931442e-02 6.009656e-02 6.060622e-02 6.102933e-02 6.120518e-02 6.155784e-02 6.147297e-02 6.183895e-02 6.158056e-02 6.194403e-02 6.159376e-02 6.190990e-02 6.152734e-02 6.175201e-02 6.135707e-02 6.146002e-02 6.103033e-02 6.099023e-02 6.045404e-02 6.023907e-02 5.948122e-02 5.902949e-02 5.789325e-02 5.707970e-02 5.536607e-02 5.399727e-02 5.151226e-02 4.948882e-02 4.652037e-02 4.532307e-02 4.606079e-02 4.673418e-02 1.461743e-02 2.051648e-02 2.181793e-02 1.920686e-02 2.555027e-02 2.680736e-02 3.120572e-02 3.043189e-02 3.435253e-02 3.328867e-02 3.533069e-02 3.476008e-02 3.251858e-02 3.471207e-02 2.724457e-02 2.563020e-02 3.205250e-02 4.275401e-02 4.477383e-02 5.130419e-02 5.189303e-02 5.625911e-02 5.633545e-02 5.903416e-02 5.910339e-02 6.052703e-02 6.087504e-02 6.129141e-02 6.204427e-02 6.164940e-02 6.283127e-02 6.179163e-02 6.336280e-02 6.183003e-02 6.371259e-02 6.183474e-02 6.393049e-02 6.185063e-02 6.404511e-02 6.190324e-02 6.407206e-02 6.200666e-02 6.401534e-02 6.216484e-02 6.387856e-02 6.238191e-02 6.366893e-02 6.265406e-02 6.339691e-02 6.297483e-02 6.308566e-02 6.332880e-02 6.276038e-02 6.368801e-02 6.246020e-02 6.402592e-02 6.224038e-02 6.432205e-02 6.218253e-02 6.459528e-02 6.242218e-02 6.495542e-02 6.319627e-02 6.572887e-02 6.487570e-02 6.857536e-02 6.883684e-02 5.533680e-02 4.944687e-02 4.391066e-02 4.275829e-02 
5.288660e-02 5.469046e-02 5.501805e-02 5.898314e-02 6.063882e-02 6.773913e-02 6.762292e-02 6.780813e-02 6.736459e-02 6.827289e-02 6.795361e-02 6.939363e-02 6.837765e-02 6.745867e-02 6.753386e-02 6.748821e-02 6.758589e-02 6.752336e-02 6.754777e-02 6.756794e-02 6.741644e-02 6.886188e-02 6.924757e-02 6.863450e-02 6.802653e-02 6.830732e-02 6.782207e-02 6.818849e-02 6.784715e-02 6.809220e-02 6.791827e-02 6.800171e-02 6.797615e-02 6.791365e-02 6.799173e-02 6.781785e-02 6.794792e-02 6.769568e-02 6.783098e-02 6.751918e-02 6.762317e-02 6.725175e-02 6.729760e-02 6.684896e-02 6.681650e-02 6.626756e-02 6.614620e-02 6.549560e-02 6.530800e-02 6.463769e-02 6.453006e-02 6.415435e-02 6.465678e-02 6.549276e-02 6.829464e-02 7.289860e-02 7.960070e-02 8.112828e-02 7.764564e-02 7.581470e-02 7.167856e-02 6.885886e-02 6.685936e-02 6.174978e-02 6.132158e-02 5.686096e-02 5.745533e-02 5.358881e-02 5.378745e-02 5.376525e-02 5.117620e-02 4.936482e-02 4.955622e-02 5.692136e-02 5.981663e-02 6.086781e-02 6.355851e-02 6.399189e-02 6.590216e-02 6.601386e-02 6.720445e-02 6.733618e-02 6.787760e-02 6.821631e-02 6.818185e-02 6.881282e-02 6.828013e-02 6.922231e-02 6.827440e-02 6.950309e-02 6.822756e-02 6.969001e-02 6.817838e-02 6.980470e-02 6.815052e-02 6.985959e-02 6.815758e-02 6.986110e-02 6.820665e-02 6.981203e-02 6.829977e-02 6.971512e-02 6.843591e-02 6.957511e-02 6.861005e-02 6.939998e-02 6.881327e-02 6.920268e-02 6.903141e-02 6.899973e-02 6.924456e-02 6.881258e-02 6.942979e-02 6.866666e-02 6.956306e-02 6.858909e-02 6.962327e-02 6.859859e-02 6.959153e-02 6.865794e-02 6.944583e-02 6.849433e-02 6.935317e-02 6.466727e-02 5.968108e-02 5.728964e-02 5.433836e-02 5.413990e-02 
5.233963e-02 5.369240e-02 5.409485e-02 5.682817e-02 5.800410e-02 6.158152e-02 6.234467e-02 6.470065e-02 6.580854e-02 6.798325e-02 7.067601e-02 7.313998e-02 7.819401e-02 7.794434e-02 7.800961e-02 7.794908e-02 7.799378e-02 7.796611e-02 7.797387e-02 7.798938e-02 7.795531e-02 7.828058e-02 7.186699e-02 7.082408e-02 6.746429e-02 6.732440e-02 6.558771e-02 6.561604e-02 6.474724e-02 6.472521e-02 6.437971e-02 6.423717e-02 6.422332e-02 6.395678e-02 6.414846e-02 6.378417e-02 6.408838e-02 6.366093e-02 6.400671e-02 6.354592e-02 6.388059e-02 6.340594e-02 6.369256e-02 6.321451e-02 6.343056e-02 6.296178e-02 6.310363e-02 6.268390e-02 6.278516e-02 6.252960e-02 6.270841e-02 6.289213e-02 6.343523e-02 6.462426e-02 6.614201e-02 6.934120e-02 7.178551e-02 7.789476e-02 7.882503e-02 7.468377e-02 7.678772e-02 7.352210e-02 7.387994e-02 7.367107e-02 7.387368e-02 7.358020e-02 7.345058e-02 7.341604e-02 7.297397e-02 7.293652e-02 6.900271e-02 6.853303e-02 7.046120e-02 6.665241e-02 6.431518e-02 6.254705e-02 6.289325e-02 6.200262e-02 6.293552e-02 6.243630e-02 6.329899e-02 6.310631e-02 6.363669e-02 6.375161e-02 6.385872e-02 6.429509e-02 6.397026e-02 6.472668e-02 6.400487e-02 6.505674e-02 6.399852e-02 6.529859e-02 6.398160e-02 6.546344e-02 6.397732e-02 6.555886e-02 6.400201e-02 6.558949e-02 6.406604e-02 6.555829e-02 6.417426e-02 6.546889e-02 6.432672e-02 6.532737e-02 6.451803e-02 6.514363e-02 6.473726e-02 6.493222e-02 6.496687e-02 6.471068e-02 6.518152e-02 6.449692e-02 6.534714e-02 6.430226e-02 6.541570e-02 6.411619e-02 6.531138e-02 6.387414e-02 6.489395e-02 6.339124e-02 6.388589e-02 6.226438e-02 6.179611e-02 5.950389e-02 5.689143e-02 5.532366e-02 5.332989e-02 5.315046e-02 
5.732851e-02 5.875124e-02 5.862234e-02 6.128184e-02 6.182636e-02 6.515695e-02 6.601351e-02 6.814125e-02 6.954128e-02 7.143939e-02 7.418154e-02 7.638516e-02 8.153648e-02 8.145143e-02 8.151440e-02 8.145930e-02 8.150421e-02 8.147973e-02 8.148115e-02 8.150478e-02 8.145256e-02 8.151091e-02 7.484209e-02 7.409851e-02 7.088412e-02 7.088915e-02 6.925692e-02 6.940820e-02 6.858180e-02 6.868458e-02 6.833150e-02 6.831664e-02 6.826994e-02 6.813154e-02 6.828982e-02 6.805353e-02 6.834361e-02 6.804902e-02 6.841504e-02 6.810590e-02 6.850825e-02 6.822882e-02 6.864633e-02 6.844396e-02 6.887793e-02 6.881225e-02 6.929328e-02 6.945244e-02 7.005058e-02 7.057146e-02 7.140261e-02 7.247838e-02 7.367065e-02 7.549719e-02 7.703694e-02 7.950554e-02 8.034110e-02 8.248971e-02 8.303748e-02 8.073990e-02 8.185320e-02 8.223607e-02 8.199883e-02 8.199343e-02 8.225027e-02 8.134157e-02 8.130443e-02 8.070749e-02 8.017740e-02 7.940694e-02 7.768765e-02 7.799034e-02 7.606377e-02 7.291904e-02 7.176476e-02 7.025803e-02 7.018261e-02 6.930278e-02 6.948165e-02 6.894325e-02 6.911755e-02 6.886506e-02 6.889261e-02 6.891967e-02 6.872277e-02 6.903223e-02 6.857655e-02 6.916375e-02 6.844644e-02 6.929256e-02 6.833485e-02 6.940525e-02 6.824760e-02 6.949246e-02 6.819112e-02 6.954720e-02 6.817120e-02 6.956433e-02 6.819209e-02 6.954069e-02 6.825549e-02 6.947545e-02 6.835960e-02 6.937088e-02 6.849853e-02 6.923304e-02 6.866191e-02 6.907191e-02 6.883430e-02 6.889972e-02 6.899390e-02 6.872668e-02 6.910980e-02 6.855206e-02 6.913517e-02 6.834578e-02 6.899031e-02 6.801185e-02 6.852593e-02 6.732559e-02 6.746070e-02 6.586820e-02 6.532510e-02 6.305892e-02 6.123240e-02 5.989590e-02 5.825338e-02 5.827441e-02 
5.234134e-02 5.368709e-02 5.409632e-02 5.682480e-02 5.800599e-02 6.157973e-02 6.234678e-02 6.469571e-02 6.581151e-02 6.797833e-02 7.067856e-02 7.313585e-02 7.819454e-02 7.794427e-02 7.800926e-02 7.794947e-02 7.799331e-02 7.796691e-02 7.797368e-02 7.799023e-02 7.795602e-02 7.827310e-02 7.191962e-02 7.083531e-02 6.751458e-02 6.734470e-02 6.565793e-02 6.564125e-02 6.485329e-02 6.475765e-02 6.453676e-02 6.428828e-02 6.444936e-02 6.405066e-02 6.446863e-02 6.396129e-02 6.453902e-02 6.398229e-02 6.464293e-02 6.410143e-02 6.478939e-02 6.432716e-02 6.501200e-02 6.469307e-02 6.537376e-02 6.526713e-02 6.597572e-02 6.616359e-02 6.696806e-02 6.755205e-02 6.855056e-02 6.963832e-02 7.091729e-02 7.254127e-02 7.398801e-02 7.555055e-02 7.604608e-02 7.764722e-02 7.676609e-02 7.601764e-02 7.652997e-02 7.607527e-02 7.694448e-02 7.637667e-02 7.799536e-02 7.789333e-02 7.901934e-02 8.048152e-02 8.123050e-02 8.290673e-02 8.268536e-02 8.429419e-02 8.220793e-02 7.733590e-02 7.520981e-02 7.226752e-02 7.126433e-02 6.921500e-02 6.876434e-02 6.734349e-02 6.716715e-02 6.625771e-02 6.614274e-02 6.567853e-02 6.547284e-02 6.541317e-02 6.501985e-02 6.533321e-02 6.470179e-02 6.535433e-02 6.447300e-02 6.542087e-02 6.431023e-02 6.549509e-02 6.420379e-02 6.555140e-02 6.415215e-02 6.557285e-02 6.415748e-02 6.554908e-02 6.422143e-02 6.547433e-02 6.434137e-02 6.534762e-02 6.450966e-02 6.517458e-02 6.471341e-02 6.496813e-02 6.493436e-02 6.474728e-02 6.514708e-02 6.453155e-02 6.531575e-02 6.433291e-02 6.539012e-02 6.414128e-02 6.529231e-02 6.389263e-02 6.488143e-02 6.340295e-02 6.387959e-02 6.226862e-02 6.179567e-02 5.949750e-02 5.689356e-02 5.531416e-02 5.333211e-02 5.314274e-02 
5.289300e-02 5.467810e-02 5.502365e-02 5.897616e-02 6.064667e-02 6.773961e-02 6.763034e-02 6.779126e-02 6.737692e-02 6.825736e-02 6.796400e-02 6.938129e-02 6.837827e-02 6.745686e-02 6.753318e-02 6.748916e-02 6.758302e-02 6.752655e-02 6.754556e-02 6.756986e-02 6.742130e-02 6.883508e-02 6.934614e-02 6.864663e-02 6.813995e-02 6.834996e-02 6.798715e-02 6.825641e-02 6.809408e-02 6.819200e-02 6.827817e-02 6.815726e-02 6.848663e-02 6.817302e-02 6.870418e-02 6.826022e-02 6.893349e-02 6.843786e-02 6.919251e-02 6.872868e-02 6.951634e-02 6.916593e-02 6.996081e-02 6.980305e-02 7.060872e-02 7.072213e-02 7.157351e-02 7.203920e-02 7.300325e-02 7.390781e-02 7.508162e-02 7.651493e-02 7.801985e-02 8.007536e-02 8.206384e-02 8.452724e-02 8.547052e-02 8.596747e-02 8.454961e-02 8.466224e-02 8.533604e-02 8.545339e-02 8.490544e-02 8.503146e-02 8.406603e-02 8.368485e-02 8.257616e-02 8.170804e-02 8.002052e-02 7.785080e-02 7.663202e-02 7.560195e-02 7.552480e-02 7.510246e-02 7.479811e-02 7.381304e-02 7.343239e-02 7.235552e-02 7.204616e-02 7.113909e-02 7.092401e-02 7.029230e-02 7.010533e-02 6.978062e-02 6.953168e-02 6.952051e-02 6.913026e-02 6.943011e-02 6.884284e-02 6.944328e-02 6.863143e-02 6.951035e-02 6.847470e-02 6.959405e-02 6.836370e-02 6.966764e-02 6.829849e-02 6.971275e-02 6.828385e-02 6.971777e-02 6.832449e-02 6.967485e-02 6.841987e-02 6.958006e-02 6.856437e-02 6.943657e-02 6.874771e-02 6.925616e-02 6.895575e-02 6.905964e-02 6.916943e-02 6.887218e-02 6.936313e-02 6.872103e-02 6.950912e-02 6.863459e-02 6.958256e-02 6.863332e-02 6.956338e-02 6.868260e-02 6.942868e-02 6.850948e-02 6.934732e-02 6.464578e-02 5.968694e-02 5.726530e-02 5.434615e-02 5.412169e-02 
4.159168e-02 4.354631e-02 4.629865e-02 5.220611e-02 6.073803e-02 6.880212e-02 6.138633e-02 6.281848e-02 5.894010e-02 5.926090e-02 5.577917e-02 5.480449e-02 5.032333e-02 4.996227e-02 5.006444e-02 4.999975e-02 5.010020e-02 5.004252e-02 5.005885e-02 5.009830e-02 4.993748e-02 5.052297e-02 5.538470e-02 5.665009e-02 5.850930e-02 5.936780e-02 6.023403e-02 6.065528e-02 6.127780e-02 6.124489e-02 6.194742e-02 6.152052e-02 6.240403e-02 6.169002e-02 6.274075e-02 6.186543e-02 6.301277e-02 6.210222e-02 6.326479e-02 6.243726e-02 6.354742e-02 6.290345e-02 6.392557e-02 6.355367e-02 6.449559e-02 6.447032e-02 6.537746e-02 6.575875e-02 6.671083e-02 6.754571e-02 6.865587e-02 6.999003e-02 7.143263e-02 7.336739e-02 7.553622e-02 7.846239e-02 8.127251e-02 8.109040e-02 7.845492e-02 7.795161e-02 7.606204e-02 7.594494e-02 7.481650e-02 7.480307e-02 7.333850e-02 7.276638e-02 7.146911e-02 7.052850e-02 6.880136e-02 6.743460e-02 6.723594e-02 6.668670e-02 6.843825e-02 6.895712e-02 6.975139e-02 6.868116e-02 6.873701e-02 6.728477e-02 6.725657e-02 6.591541e-02 6.593755e-02 6.488689e-02 6.491346e-02 6.421755e-02 6.415074e-02 6.384105e-02 6.358676e-02 6.367989e-02 6.316283e-02 6.366166e-02 6.283823e-02 6.372706e-02 6.258686e-02 6.382308e-02 6.239610e-02 6.391009e-02 6.226899e-02 6.396029e-02 6.221875e-02 6.395865e-02 6.226049e-02 6.388988e-02 6.239256e-02 6.373855e-02 6.260582e-02 6.350364e-02 6.288498e-02 6.320109e-02 6.321491e-02 6.287222e-02 6.357625e-02 6.256437e-02 6.393281e-02 6.233193e-02 6.425438e-02 6.225497e-02 6.454866e-02 6.246967e-02 6.492733e-02 6.322236e-02 6.572090e-02 6.488607e-02 6.860735e-02 6.878599e-02 5.535156e-02 4.939217e-02 4.391686e-02 4.272860e-02 
3.583602e-02 3.799154e-02 4.291228e-02 5.025125e-02 6.035776e-02 4.627382e-02 2.880484e-02 3.950505e-02 2.837450e-02 3.524020e-02 2.668110e-02 2.988125e-02 2.237186e-02 2.520766e-02 2.498456e-02 2.534458e-02 2.570288e-02 2.538111e-02 2.566811e-02 2.535594e-02 2.485030e-02 2.464617e-02 2.890087e-02 2.915460e-02 3.204655e-02 3.129703e-02 3.353317e-02 3.230698e-02 3.430934e-02 3.282412e-02 3.472894e-02 3.314982e-02 3.495522e-02 3.343698e-02 3.508033e-02 3.375909e-02 3.515561e-02 3.414040e-02 3.521884e-02 3.459186e-02 3.530908e-02 3.511827e-02 3.547176e-02 3.574000e-02 3.577442e-02 3.649573e-02 3.628605e-02 3.742265e-02 3.705890e-02 3.853954e-02 3.810933e-02 3.983574e-02 3.942862e-02 4.130348e-02 4.106106e-02 4.312583e-02 4.326155e-02 4.453921e-02 4.325030e-02 4.387170e-02 4.242161e-02 4.275171e-02 4.223887e-02 4.232799e-02 4.171280e-02 4.113459e-02 4.040322e-02 3.928565e-02 3.843346e-02 3.700672e-02 3.689556e-02 3.584972e-02 3.642378e-02 3.605660e-02 3.639572e-02 3.568477e-02 3.599838e-02 3.527414e-02 3.562824e-02 3.503262e-02 3.534585e-02 3.497074e-02 3.512606e-02 3.503903e-02 3.493296e-02 3.519123e-02 3.475569e-02 3.539360e-02 3.459207e-02 3.561400e-02 3.444910e-02 3.582386e-02 3.433539e-02 3.598890e-02 3.426345e-02 3.608162e-02 3.425577e-02 3.608302e-02 3.434074e-02 3.598723e-02 3.454372e-02 3.578580e-02 3.486335e-02 3.546920e-02 3.528344e-02 3.504730e-02 3.577398e-02 3.455329e-02 3.629968e-02 3.405419e-02 3.681710e-02 3.362251e-02 3.725609e-02 3.333636e-02 3.754368e-02 3.329693e-02 3.762755e-02 3.366428e-02 3.750838e-02 3.478135e-02 3.722181e-02 3.763359e-02 3.700536e-02 6.393772e-02 5.803269e-02 4.755445e-02 3.898799e-02 3.720482e-02 
9.183762e-03 1.184913e-02 1.700180e-02 2.694515e-02 2.894210e-02 2.372417e-02 2.623816e-02 2.010255e-02 2.521481e-02 1.992824e-02 2.394188e-02 1.995047e-02 2.236990e-02 2.305708e-02 2.542600e-02 2.587032e-02 2.575172e-02 2.697727e-02 2.477276e-02 2.647145e-02 2.197002e-02 2.288669e-02 2.056126e-02 2.306579e-02 2.060809e-02 2.303585e-02 2.087244e-02 2.293727e-02 2.121013e-02 2.278277e-02 2.155480e-02 2.260439e-02 2.188555e-02 2.243744e-02 2.219775e-02 2.230957e-02 2.248831e-02 2.223782e-02 2.275849e-02 2.223472e-02 2.301626e-02 2.230956e-02 2.327817e-02 2.247640e-02 2.357234e-02 2.275731e-02 2.392752e-02 2.317414e-02 2.436602e-02 2.373827e-02 2.489763e-02 2.444330e-02 2.552858e-02 2.528388e-02 2.631451e-02 2.639786e-02 2.748153e-02 2.724035e-02 2.706751e-02 2.690412e-02 2.635718e-02 2.644222e-02 2.613139e-02 2.631340e-02 2.569483e-02 2.569784e-02 2.485216e-02 2.469294e-02 2.372541e-02 2.335892e-02 2.317721e-02 2.273815e-02 2.332403e-02 2.301017e-02 2.333545e-02 2.270108e-02 2.301803e-02 2.235681e-02 2.276119e-02 2.213611e-02 2.261345e-02 2.203367e-02 2.254190e-02 2.201508e-02 2.250417e-02 2.205307e-02 2.247295e-02 2.213071e-02 2.243119e-02 2.223530e-02 2.237126e-02 2.235817e-02 2.229018e-02 2.249021e-02 2.219012e-02 2.262561e-02 2.207908e-02 2.276207e-02 2.196834e-02 2.290095e-02 2.186977e-02 2.303728e-02 2.178923e-02 2.315820e-02 2.172969e-02 2.325005e-02 2.169191e-02 2.330138e-02 2.167834e-02 2.330663e-02 2.170146e-02 2.325720e-02 2.177678e-02 2.315249e-02 2.193078e-02 2.300668e-02 2.222071e-02 2.284623e-02 2.280046e-02 2.269644e-02 2.417195e-02 2.255852e-02 3.015993e-02 2.080044e-02 3.724263e-02 2.134804e-02 1.532292e-02 9.921257e-03 
8.718907e-03 7.828222e-03 6.341630e-03 6.381364e-03 8.064121e-03 2.504852e-02 5.084931e-03 1.229168e-02 4.033570e-03 8.957967e-03 5.288557e-04 6.844327e-03 9.433709e-03 1.609857e-02 1.910414e-02 2.024765e-02 2.047381e-02 2.146293e-02 1.938084e-02 1.871504e-02 1.647563e-02 7.120960e-03 3.030499e-03 2.824287e-03 4.863040e-03 6.276875e-03 7.701035e-03 7.892023e-03 9.157243e-03 8.551414e-03 9.943531e-03 8.826952e-03 1.039653e-02 8.991428e-03 1.067270e-02 9.168300e-03 1.084141e-02 9.398970e-03 1.094179e-02 9.695574e-03 1.100901e-02 1.005598e-02 1.108326e-02 1.048920e-02 1.122665e-02 1.102310e-02 1.150379e-02 1.168718e-02 1.196624e-02 1.249907e-02 1.263480e-02 1.345463e-02 1.350481e-02 1.455194e-02 1.456806e-02 1.580183e-02 1.569490e-02 1.682252e-02 1.604373e-02 1.673265e-02 1.578377e-02 1.604492e-02 1.565361e-02 1.578510e-02 1.561156e-02 1.516692e-02 1.524162e-02 1.410079e-02 1.444573e-02 1.272915e-02 1.308970e-02 1.164721e-02 1.216249e-02 1.122702e-02 1.239799e-02 1.122140e-02 1.256002e-02 1.115739e-02 1.252417e-02 1.109834e-02 1.235288e-02 1.110241e-02 1.209963e-02 1.118175e-02 1.179579e-02 1.133224e-02 1.147410e-02 1.154162e-02 1.115722e-02 1.178487e-02 1.086548e-02 1.203282e-02 1.061454e-02 1.224708e-02 1.042097e-02 1.239569e-02 1.031017e-02 1.245594e-02 1.031243e-02 1.241910e-02 1.045394e-02 1.227303e-02 1.073211e-02 1.200325e-02 1.112719e-02 1.161353e-02 1.160460e-02 1.112991e-02 1.212587e-02 1.061118e-02 1.264885e-02 1.012086e-02 1.310732e-02 9.731420e-03 1.343266e-02 9.540472e-03 1.357428e-02 9.696597e-03 1.353102e-02 1.054383e-02 1.337751e-02 1.369843e-02 1.752574e-02 1.749680e-02 9.175102e-03 3.912057e-03 7.760297e-03 7.493682e-03 
1.936294e-03 1.241809e-03 1.733499e-03 2.047360e-03 2.895209e-03 6.640987e-03 7.804323e-03 4.828965e-03 6.583852e-03 8.710984e-03 1.035908e-02 1.818842e-02 2.224524e-02 2.328847e-02 1.211065e-02 7.127242e-03 3.591940e-03 4.705332e-03 7.108789e-03 1.167940e-02 2.319491e-02 2.343750e-02 1.610307e-02 1.077710e-02 6.813353e-03 4.613820e-03 2.976497e-03 2.481043e-03 1.332993e-03 2.016260e-03 6.013037e-04 1.951036e-03 2.888939e-04 1.873127e-03 2.609552e-04 1.724819e-03 3.615308e-04 1.521358e-03 4.674904e-04 1.288822e-03 5.471990e-04 1.058625e-03 5.821319e-04 8.685480e-04 5.441897e-04 7.914665e-04 4.114404e-04 9.386516e-04 3.145014e-04 1.354734e-03 7.209630e-04 2.035279e-03 1.538296e-03 3.014345e-03 2.688825e-03 4.211777e-03 3.652557e-03 5.144458e-03 4.347274e-03 5.411267e-03 4.687202e-03 4.722830e-03 4.415540e-03 3.748628e-03 3.712653e-03 2.254609e-03 2.835855e-03 1.663614e-03 2.332133e-03 2.746177e-03 1.501451e-03 2.731936e-03 2.382373e-03 3.302359e-03 2.219174e-03 2.945722e-03 1.454651e-03 2.310818e-03 7.938400e-04 1.697807e-03 4.033277e-04 1.149885e-03 2.498166e-04 6.625679e-04 2.203816e-04 2.852491e-04 2.664440e-04 3.714317e-04 3.809978e-04 7.048058e-04 5.198856e-04 1.009992e-03 6.396480e-04 1.240728e-03 7.080534e-04 1.373743e-03 6.982321e-04 1.394613e-03 5.905748e-04 1.299798e-03 3.915095e-04 1.093254e-03 2.837506e-04 7.986393e-04 6.042724e-04 5.253234e-04 1.096325e-03 5.935200e-04 1.626112e-03 9.710229e-04 2.125814e-03 1.364151e-03 2.517005e-03 1.649320e-03 2.711288e-03 1.765711e-03 2.611756e-03 1.728549e-03 2.089376e-03 1.876577e-03 9.243011e-04 3.607424e-03 4.520647e-03 6.298524e-03 1.394014e-03 1.703689e-03 2.374948e-03 6.244364e-04 
