# vtk DataFile Version 2.0
Comment goes here
ASCII

DATASET STRUCTURED_POINTS
FIELD FieldData 1
TIME 1 1 double
0.45000000
DIMENSIONS    128   16   1

ORIGIN    0.000   0.000   0.000
SPACING   0.0078125 0.015625   1.000

POINT_DATA   2048
SCALARS uMag double
LOOKUP_TABLE default

3.284645e-03 1.104944e-04 3.407274e-03 2.074612e-03 3.116856e-03 7.018987e-03 2.911593e-03 8.621800e-04 9.118080e-04 4.107569e-04 5.223354e-04 1.328569e-03 1.921286e-04 7.823713e-04 2.539380e-03 1.507391e-04 4.022668e-03 8.560691e-04 3.623020e-03 1.306218e-03 2.455670e-03 1.610185e-03 4.148719e-04 1.609130e-03 8.604870e-04 1.167056e-03 9.679598e-04 8.121001e-04 9.002360e-04 4.879777e-04 7.461534e-04 2.140275e-04 5.549382e-04 1.410181e-04 3.624556e-04 3.040415e-04 2.022503e-04 4.688429e-04 1.150479e-04 6.164280e-04 1.918752e-04 7.644617e-04 3.447806e-04 9.154012e-04 5.261794e-04 1.079255e-03 7.983702e-04 1.321243e-03 1.274047e-03 1.759188e-03 2.028220e-03 2.434325e-03 2.968167e-03 3.267841e-03 3.980535e-03 4.657104e-03 5.375655e-03 6.160818e-03 4.658862e-03 5.137214e-03 3.151519e-03 4.026635e-03 4.521499e-03 7.252033e-03 7.597125e-03 8.783669e-03 8.593431e-03 7.825161e-03 6.555881e-03 6.478468e-03 6.265608e-03 4.751185e-03 3.633998e-03 3.266461e-03 2.293199e-03 2.582915e-03 1.933830e-03 2.005985e-03 1.496858e-03 1.343904e-03 9.991502e-04 8.078188e-04 6.403702e-04 5.401812e-04 5.356918e-04 5.212415e-04 6.225057e-04 6.075336e-04 7.418676e-04 6.911986e-04 8.144107e-04 7.082748e-04 8.026424e-04 6.216534e-04 6.831066e-04 4.301643e-04 4.468377e-04 1.547604e-04 1.215049e-04 2.133031e-04 3.034949e-04 5.996062e-04 6.986439e-04 9.820710e-04 1.041093e-03 1.289455e-03 1.268868e-03 1.453699e-03 1.323711e-03 1.410142e-03 1.161525e-03 1.112845e-03 7.492766e-04 5.592436e-04 7.952895e-05 2.036517e-04 8.194959e-04 1.073235e-03 1.754199e-03 1.891700e-03 2.332459e-03 2.393041e-03 1.320915e-03 1.299406e-03 2.555205e-03 1.647872e-03 3.209929e-03 9.849363e-04 
2.838145e-03 3.130773e-04 3.303303e-03 1.999951e-03 5.617027e-03 8.501512e-03 6.636432e-03 1.999005e-03 1.577399e-03 1.210260e-03 3.284930e-03 1.408068e-03 6.738712e-03 2.754257e-03 5.570041e-03 1.537659e-03 4.911820e-03 9.465522e-04 4.214471e-03 2.144195e-03 4.335974e-03 4.055315e-03 1.334431e-03 1.200132e-03 8.891926e-04 1.936382e-04 5.859280e-04 2.997533e-04 3.828297e-04 4.607037e-04 2.891272e-04 5.093301e-04 4.377122e-04 4.975816e-04 6.717143e-04 4.065691e-04 8.206834e-04 2.903662e-04 8.765626e-04 2.557393e-04 9.102582e-04 3.194524e-04 9.658285e-04 3.855015e-04 9.947116e-04 4.461147e-04 9.896352e-04 6.151476e-04 1.147444e-03 1.122980e-03 1.946457e-03 2.304240e-03 3.824943e-03 4.888658e-03 7.760229e-03 9.558100e-03 9.777005e-03 8.123009e-03 7.787506e-03 9.354146e-03 6.881591e-03 8.675211e-03 8.711721e-03 6.924928e-03 3.309257e-03 2.902235e-03 7.615567e-03 1.378871e-02 2.501806e-02 2.051689e-02 3.708478e-03 3.331307e-03 4.960027e-03 6.844776e-03 4.881416e-03 4.127032e-03 2.714852e-03 2.001420e-03 1.846571e-03 9.591700e-04 1.368040e-03 7.059470e-04 9.868848e-04 8.795943e-04 7.076653e-04 1.129269e-03 5.122776e-04 1.365988e-03 3.312274e-04 1.504258e-03 1.764748e-04 1.511340e-03 1.572418e-04 1.424780e-03 3.049657e-04 1.262768e-03 5.700431e-04 1.020579e-03 9.239438e-04 7.129244e-04 1.315213e-03 4.086035e-04 1.697939e-03 3.560258e-04 2.048021e-03 5.179451e-04 2.295400e-03 6.473665e-04 2.359992e-03 6.560999e-04 2.219474e-03 5.362307e-04 1.882578e-03 6.886200e-04 1.342920e-03 1.331038e-03 8.409703e-04 2.165466e-03 1.198270e-03 3.048497e-03 1.883138e-03 4.046588e-03 1.854015e-03 4.156460e-03 4.283655e-03 1.923003e-03 3.228546e-03 8.019889e-04 
3.650101e-03 1.417173e-03 5.049469e-03 2.520672e-03 1.429382e-02 1.458367e-03 1.743516e-02 6.857493e-03 3.488041e-03 4.455434e-03 3.175026e-03 6.516079e-03 5.119343e-03 3.258279e-03 5.380588e-03 3.435945e-03 5.366440e-03 4.411229e-03 4.655306e-03 5.764213e-03 4.371222e-03 6.427028e-03 4.848637e-03 4.243266e-03 2.025762e-03 3.709862e-03 9.628362e-04 3.247490e-03 5.375912e-04 2.828064e-03 6.125955e-04 2.536563e-03 9.168696e-04 2.332787e-03 1.236205e-03 2.036754e-03 1.388863e-03 1.662720e-03 1.390831e-03 1.366348e-03 1.425880e-03 1.284811e-03 1.571031e-03 1.263796e-03 1.619369e-03 1.130296e-03 1.467559e-03 1.090433e-03 1.519042e-03 1.969272e-03 2.900328e-03 4.079294e-03 5.977869e-03 8.150844e-03 1.209709e-02 1.519716e-02 1.738593e-02 1.642685e-02 1.580843e-02 1.303298e-02 1.129679e-02 1.128322e-02 1.528903e-02 1.467681e-02 1.641471e-02 1.298432e-02 1.298653e-02 8.314007e-03 6.496489e-03 1.352558e-02 1.810761e-02 1.643338e-02 1.608357e-02 1.214994e-02 1.102732e-02 7.406356e-03 6.993405e-03 4.355494e-03 4.757821e-03 2.841922e-03 3.312110e-03 2.220153e-03 2.303097e-03 2.125462e-03 1.728215e-03 2.334543e-03 1.389406e-03 2.628990e-03 1.053837e-03 2.781884e-03 7.496231e-04 2.739643e-03 6.398819e-04 2.635418e-03 7.841490e-04 2.500085e-03 1.102309e-03 2.293785e-03 1.518957e-03 1.988691e-03 1.941720e-03 1.589890e-03 2.314628e-03 1.206529e-03 2.680391e-03 8.156984e-04 2.984084e-03 4.184382e-04 3.118777e-03 4.416525e-04 3.109795e-03 9.163453e-04 3.043283e-03 1.645581e-03 2.798798e-03 2.535692e-03 2.381581e-03 3.437763e-03 2.038192e-03 4.278359e-03 2.029346e-03 5.097089e-03 5.413426e-03 1.198498e-02 8.157628e-03 3.783780e-03 4.507920e-03 1.884277e-03 
1.367182e-03 2.775317e-03 6.978173e-04 7.303715e-03 1.323080e-02 1.581627e-02 9.005587e-03 2.358851e-03 3.606444e-03 2.152081e-03 4.775063e-03 3.422742e-03 7.058480e-03 2.002682e-03 5.745137e-03 1.417211e-03 4.795625e-03 1.605318e-03 4.110491e-03 2.526854e-03 3.536063e-03 4.131191e-03 2.286057e-03 2.278161e-03 1.317049e-03 1.838797e-03 1.350266e-03 1.628393e-03 1.335843e-03 1.533551e-03 1.105136e-03 1.583262e-03 8.185347e-04 1.500438e-03 8.356408e-04 1.138903e-03 9.907121e-04 7.934939e-04 8.747503e-04 5.632327e-04 4.654556e-04 5.523361e-04 2.143826e-04 3.613226e-04 3.847570e-04 3.520395e-04 8.559124e-04 1.114572e-03 1.341374e-03 1.926592e-03 1.827840e-03 3.122332e-03 3.152636e-03 5.756014e-03 6.372380e-03 1.034884e-02 9.281303e-03 1.072715e-02 9.235356e-03 9.060849e-03 8.390574e-03 8.582688e-03 6.867437e-03 4.282129e-03 4.579831e-03 4.527894e-03 4.459119e-03 8.750720e-03 9.200565e-03 1.101222e-02 4.720674e-03 3.619528e-03 4.698919e-03 5.251229e-03 5.884923e-03 3.378288e-03 2.976723e-03 2.077870e-03 1.662670e-03 1.902934e-03 1.061904e-03 1.924202e-03 6.993020e-04 1.565796e-03 8.577883e-04 1.186467e-03 9.117128e-04 1.122069e-03 5.020448e-04 1.143176e-03 6.847753e-05 1.023421e-03 3.042403e-04 9.902002e-04 4.958296e-04 1.158753e-03 7.466437e-04 1.353444e-03 1.011435e-03 1.419082e-03 1.240721e-03 1.399777e-03 1.185823e-03 1.358392e-03 9.351485e-04 1.084271e-03 6.850787e-04 5.774867e-04 5.055242e-04 4.139718e-04 9.095218e-04 8.752558e-04 1.751156e-03 1.659891e-03 2.436031e-03 2.568334e-03 3.033024e-03 3.190015e-03 3.475402e-03 3.244786e-03 3.006627e-03 2.040583e-03 4.137994e-03 2.544831e-02 3.883202e-03 7.886740e-03 3.847755e-03 2.390899e-03 
4.452583e-03 1.696350e-03 6.819449e-03 5.061245e-03 6.679237e-03 1.412595e-02 1.401485e-02 1.878253e-03 1.893849e-03 1.756202e-03 2.755193e-03 3.315452e-03 6.315359e-03 4.306012e-03 5.710760e-03 4.868711e-03 5.322700e-03 5.276457e-03 4.842641e-03 5.944111e-03 4.037469e-03 7.091072e-03 2.768311e-03 3.997576e-03 1.633668e-03 2.761426e-03 1.085754e-03 1.978528e-03 9.733380e-04 1.494808e-03 1.062219e-03 1.352993e-03 1.255835e-03 1.271296e-03 1.480580e-03 9.668175e-04 1.558664e-03 6.445807e-04 1.395467e-03 5.784880e-04 1.120146e-03 7.474427e-04 9.604789e-04 7.265527e-04 7.302517e-04 6.518217e-04 2.040976e-04 1.224578e-03 8.771805e-04 2.526607e-03 2.687475e-03 4.624795e-03 5.692311e-03 8.327183e-03 1.131823e-02 1.570768e-02 2.092989e-02 2.211495e-02 2.190035e-02 1.810159e-02 1.912475e-02 1.743091e-02 1.579924e-02 1.192307e-02 9.951969e-03 7.201933e-03 6.458008e-03 6.923240e-03 1.356895e-02 7.730250e-03 8.806983e-03 7.921145e-03 9.141260e-03 1.039164e-02 8.247187e-03 5.903141e-03 5.478616e-03 3.327631e-03 3.958435e-03 2.102127e-03 2.863818e-03 1.695645e-03 2.102434e-03 1.533189e-03 1.749497e-03 1.537600e-03 1.505194e-03 1.701146e-03 1.134741e-03 1.784841e-03 8.182322e-04 1.682746e-03 7.352223e-04 1.562875e-03 8.738419e-04 1.489544e-03 1.167330e-03 1.399000e-03 1.549631e-03 1.220556e-03 1.939370e-03 1.023249e-03 2.237014e-03 9.414882e-04 2.507889e-03 7.951992e-04 2.708575e-03 5.108378e-04 2.717739e-03 2.889237e-04 2.542279e-03 3.671879e-04 2.316359e-03 1.097493e-03 1.950296e-03 2.138702e-03 1.631178e-03 3.281386e-03 1.952545e-03 4.454109e-03 2.909027e-03 5.140564e-03 5.960512e-03 1.884825e-02 8.285047e-03 8.309784e-03 6.582244e-03 3.499498e-03 
7.169542e-03 6.572811e-03 8.325811e-03 8.991648e-03 1.252905e-02 1.019064e-02 1.223043e-02 4.521585e-03 6.718996e-03 4.653488e-03 6.752988e-03 6.404951e-03 6.778311e-03 5.888710e-03 6.435345e-03 6.048244e-03 6.269678e-03 6.243899e-03 6.064395e-03 6.425065e-03 5.866444e-03 7.116179e-03 5.283537e-03 5.996400e-03 4.068756e-03 6.306514e-03 4.291967e-03 6.405802e-03 4.534104e-03 6.350212e-03 4.761327e-03 6.264480e-03 5.035841e-03 6.189754e-03 5.283848e-03 6.019129e-03 5.386417e-03 5.739669e-03 5.377858e-03 5.463830e-03 5.381104e-03 5.295525e-03 5.449690e-03 5.188776e-03 5.483253e-03 5.027368e-03 5.403729e-03 4.810005e-03 5.305768e-03 4.786800e-03 5.628046e-03 5.571064e-03 7.163538e-03 8.236530e-03 1.145074e-02 1.327396e-02 1.041298e-02 4.664702e-03 6.753616e-03 6.662766e-03 4.206524e-03 8.508709e-03 9.534135e-03 1.025980e-02 7.712693e-03 7.064029e-03 4.581884e-03 3.310936e-03 1.005101e-03 2.962842e-03 7.785689e-03 6.093264e-03 6.927587e-03 3.262461e-03 1.713491e-03 2.467435e-03 4.913711e-03 4.265644e-03 5.858444e-03 5.123454e-03 5.948872e-03 5.549351e-03 5.702175e-03 5.833983e-03 5.460907e-03 6.146496e-03 5.325544e-03 6.440403e-03 5.223905e-03 6.594144e-03 5.107190e-03 6.591861e-03 5.052351e-03 6.534521e-03 5.134131e-03 6.441723e-03 5.319856e-03 6.293011e-03 5.580981e-03 6.074981e-03 5.859876e-03 5.785039e-03 6.141762e-03 5.498602e-03 6.439163e-03 5.258242e-03 6.693377e-03 5.065689e-03 6.830462e-03 4.947977e-03 6.841457e-03 5.009721e-03 6.761915e-03 5.284714e-03 6.509917e-03 5.702573e-03 6.018520e-03 6.234142e-03 5.296451e-03 6.846685e-03 4.387172e-03 7.505075e-03 5.144351e-03 9.655464e-03 1.281649e-02 8.628096e-03 8.616391e-03 6.588897e-03 
8.025966e-03 7.417125e-03 8.373770e-03 8.804453e-03 9.775212e-03 1.232945e-02 8.698939e-03 7.378237e-03 9.534080e-03 7.044957e-03 8.969379e-03 7.040213e-03 7.742824e-03 6.438395e-03 7.014123e-03 6.596926e-03 6.812344e-03 6.813225e-03 6.577771e-03 7.033397e-03 6.383669e-03 8.446512e-03 7.446526e-03 8.258558e-03 6.934413e-03 8.667165e-03 7.072585e-03 8.762890e-03 7.191956e-03 8.715278e-03 7.315587e-03 8.601786e-03 7.455346e-03 8.452879e-03 7.586375e-03 8.261370e-03 7.674402e-03 8.033795e-03 7.717406e-03 7.801451e-03 7.735483e-03 7.589141e-03 7.733830e-03 7.387736e-03 7.689544e-03 7.176915e-03 7.594967e-03 6.977248e-03 7.510064e-03 6.897181e-03 7.611757e-03 7.180414e-03 8.247264e-03 8.355410e-03 1.030471e-02 1.163492e-02 1.398625e-02 1.464855e-02 1.529734e-02 1.416745e-02 1.447900e-02 1.428234e-02 1.417149e-02 1.393449e-02 1.264493e-02 1.369369e-02 1.273426e-02 1.368162e-02 1.385335e-02 1.610712e-02 1.537162e-02 1.619676e-02 1.617377e-02 1.497085e-02 1.460615e-02 1.202686e-02 1.233951e-02 1.067629e-02 1.106593e-02 9.859101e-03 1.007322e-02 9.327858e-03 9.294199e-03 9.025424e-03 8.726120e-03 8.891706e-03 8.337279e-03 8.846838e-03 8.076296e-03 8.814695e-03 7.906494e-03 8.757966e-03 7.825618e-03 8.679077e-03 7.835660e-03 8.575836e-03 7.920667e-03 8.444207e-03 8.061842e-03 8.282239e-03 8.231503e-03 8.096630e-03 8.411650e-03 7.912887e-03 8.586503e-03 7.752097e-03 8.730919e-03 7.633063e-03 8.817746e-03 7.574238e-03 8.832605e-03 7.603502e-03 8.776140e-03 7.725901e-03 8.634543e-03 7.911324e-03 8.417152e-03 8.114525e-03 8.189752e-03 8.295373e-03 8.147089e-03 8.603342e-03 8.624638e-03 1.050562e-02 9.668744e-03 8.346503e-03 8.431767e-03 7.374899e-03 
8.627022e-03 8.517449e-03 8.620617e-03 8.877243e-03 8.844552e-03 9.472852e-03 8.729684e-03 8.419672e-03 8.401046e-03 7.867634e-03 7.712577e-03 7.878126e-03 6.775147e-03 6.334458e-03 6.572289e-03 6.366726e-03 6.467483e-03 6.448300e-03 6.379811e-03 6.550825e-03 6.340741e-03 7.074535e-03 8.782405e-03 8.341442e-03 8.135137e-03 8.626743e-03 7.774398e-03 8.735503e-03 7.629680e-03 8.760221e-03 7.633255e-03 8.736560e-03 7.727763e-03 8.677944e-03 7.858919e-03 8.584864e-03 7.986274e-03 8.468620e-03 8.099109e-03 8.355646e-03 8.205355e-03 8.269423e-03 8.309052e-03 8.214627e-03 8.403022e-03 8.187803e-03 8.488640e-03 8.201283e-03 8.593946e-03 8.297426e-03 8.784590e-03 8.562090e-03 9.189054e-03 9.206342e-03 1.016586e-02 1.048692e-02 1.092293e-02 1.120104e-02 1.209648e-02 1.207290e-02 1.196456e-02 1.363542e-02 1.427179e-02 1.584122e-02 1.545372e-02 1.652959e-02 1.569354e-02 1.590280e-02 1.639497e-02 1.612097e-02 1.593397e-02 1.543198e-02 1.655079e-02 1.424096e-02 1.314865e-02 1.142949e-02 1.116756e-02 9.970288e-03 9.994638e-03 9.206695e-03 9.234509e-03 8.877819e-03 8.727351e-03 8.797596e-03 8.387768e-03 8.840264e-03 8.165019e-03 8.919716e-03 8.023211e-03 8.978483e-03 7.943569e-03 8.990581e-03 7.927134e-03 8.954728e-03 7.978230e-03 8.873184e-03 8.090066e-03 8.748870e-03 8.248707e-03 8.588067e-03 8.433208e-03 8.403587e-03 8.623627e-03 8.219684e-03 8.800197e-03 8.061599e-03 8.936817e-03 7.951011e-03 9.007167e-03 7.908840e-03 8.994468e-03 7.954912e-03 8.890974e-03 8.090568e-03 8.691126e-03 8.295226e-03 8.415705e-03 8.545861e-03 8.146439e-03 8.834388e-03 8.070346e-03 9.197322e-03 8.477374e-03 9.473725e-03 9.134775e-03 8.966125e-03 8.878532e-03 8.566130e-03 
8.743400e-03 8.527599e-03 8.809220e-03 8.986150e-03 8.992746e-03 9.485893e-03 8.814461e-03 8.415732e-03 8.580883e-03 7.725734e-03 7.945044e-03 7.829066e-03 7.101558e-03 6.697084e-03 6.997284e-03 6.758528e-03 6.863860e-03 6.879017e-03 6.734565e-03 7.010664e-03 6.662437e-03 7.112983e-03 9.038970e-03 8.844618e-03 8.551335e-03 9.099064e-03 8.171235e-03 9.141136e-03 7.995687e-03 9.090570e-03 7.966545e-03 8.996782e-03 8.026471e-03 8.880675e-03 8.131804e-03 8.755850e-03 8.254148e-03 8.635038e-03 8.377644e-03 8.530350e-03 8.494415e-03 8.451003e-03 8.601364e-03 8.403716e-03 8.701163e-03 8.396476e-03 8.804348e-03 8.440294e-03 8.928219e-03 8.548651e-03 9.098584e-03 8.746681e-03 9.372043e-03 9.110475e-03 9.902279e-03 9.815145e-03 1.103393e-02 1.107680e-02 1.140862e-02 1.120991e-02 1.076685e-02 1.119229e-02 1.024270e-02 1.013253e-02 9.649205e-03 9.448984e-03 9.249044e-03 9.375736e-03 1.000002e-02 9.634124e-03 9.876604e-03 9.362034e-03 9.444784e-03 8.771363e-03 9.242278e-03 8.622031e-03 9.219893e-03 8.651160e-03 9.137748e-03 8.686781e-03 8.982953e-03 8.738232e-03 8.801904e-03 8.805474e-03 8.625955e-03 8.875753e-03 8.475315e-03 8.935476e-03 8.363435e-03 8.972158e-03 8.297849e-03 8.975687e-03 8.281641e-03 8.940500e-03 8.314651e-03 8.866675e-03 8.393767e-03 8.759132e-03 8.510997e-03 8.625316e-03 8.652088e-03 8.475689e-03 8.799456e-03 8.325594e-03 8.934958e-03 8.194037e-03 9.041054e-03 8.100236e-03 9.101596e-03 8.059521e-03 9.103945e-03 8.079743e-03 9.041371e-03 8.156516e-03 8.916827e-03 8.274380e-03 8.755317e-03 8.419244e-03 8.621187e-03 8.600582e-03 8.625409e-03 8.871975e-03 8.856155e-03 9.197844e-03 9.050201e-03 8.795985e-03 8.867564e-03 8.475012e-03 
8.627579e-03 8.522056e-03 8.623089e-03 8.879038e-03 8.848404e-03 9.473024e-03 8.733101e-03 8.417742e-03 8.402713e-03 7.866050e-03 7.713559e-03 7.878178e-03 6.773172e-03 6.335252e-03 6.572212e-03 6.366785e-03 6.466803e-03 6.447087e-03 6.378616e-03 6.547957e-03 6.339198e-03 7.054498e-03 8.762979e-03 8.337212e-03 8.132266e-03 8.627029e-03 7.792540e-03 8.750777e-03 7.674747e-03 8.788872e-03 7.697739e-03 8.765242e-03 7.799380e-03 8.701808e-03 7.944581e-03 8.627575e-03 8.114555e-03 8.564576e-03 8.291152e-03 8.521022e-03 8.453166e-03 8.493850e-03 8.583928e-03 8.483732e-03 8.684586e-03 8.499809e-03 8.762310e-03 8.535523e-03 8.793824e-03 8.528210e-03 8.685200e-03 8.332589e-03 8.266667e-03 7.729432e-03 7.264918e-03 5.997520e-03 4.380605e-03 4.471076e-03 6.001703e-03 5.802969e-03 5.388964e-03 7.221181e-03 8.479367e-03 9.339127e-03 9.765015e-03 1.061169e-02 1.032664e-02 1.137402e-02 1.145792e-02 1.151894e-02 1.246530e-02 1.218958e-02 1.210584e-02 1.077544e-02 1.047540e-02 9.458441e-03 9.310981e-03 8.688161e-03 8.676392e-03 8.396579e-03 8.358528e-03 8.397253e-03 8.196750e-03 8.525360e-03 8.086130e-03 8.673740e-03 7.993435e-03 8.801898e-03 7.930247e-03 8.898280e-03 7.911576e-03 8.949153e-03 7.937073e-03 8.937417e-03 8.003587e-03 8.863460e-03 8.117151e-03 8.741472e-03 8.276656e-03 8.583898e-03 8.465653e-03 8.401231e-03 8.657126e-03 8.209194e-03 8.825731e-03 8.036479e-03 8.952935e-03 7.916349e-03 9.021118e-03 7.875998e-03 9.011774e-03 7.928637e-03 8.907601e-03 8.071137e-03 8.703266e-03 8.285564e-03 8.421056e-03 8.547669e-03 8.143659e-03 8.848122e-03 8.059467e-03 9.218306e-03 8.460977e-03 9.493304e-03 9.127100e-03 8.980016e-03 8.876036e-03 8.574626e-03 
8.026980e-03 7.426535e-03 8.378266e-03 8.809374e-03 9.783390e-03 1.233061e-02 8.708216e-03 7.371852e-03 9.537939e-03 7.039100e-03 8.969854e-03 7.039124e-03 7.734607e-03 6.440429e-03 7.012594e-03 6.598688e-03 6.810625e-03 6.812662e-03 6.577043e-03 7.028737e-03 6.383691e-03 8.416831e-03 7.417372e-03 8.254295e-03 6.944828e-03 8.675259e-03 7.126185e-03 8.809301e-03 7.303145e-03 8.801867e-03 7.476860e-03 8.707065e-03 7.650448e-03 8.575424e-03 7.835865e-03 8.459563e-03 8.045708e-03 8.390526e-03 8.272714e-03 8.371132e-03 8.492474e-03 8.389825e-03 8.687014e-03 8.451079e-03 8.874615e-03 8.587344e-03 9.098644e-03 8.830620e-03 9.382947e-03 9.172990e-03 9.704924e-03 9.582854e-03 1.007585e-02 1.016801e-02 1.072899e-02 1.071536e-02 9.230756e-03 9.062935e-03 1.063247e-02 9.348169e-03 9.660225e-03 1.017156e-02 9.547831e-03 8.562778e-03 7.864479e-03 7.237714e-03 6.652762e-03 7.078284e-03 6.839544e-03 7.200336e-03 6.720308e-03 5.536914e-03 6.387301e-03 6.645315e-03 7.002098e-03 6.327526e-03 6.638478e-03 6.346660e-03 6.850097e-03 6.804898e-03 7.200288e-03 7.340162e-03 7.476619e-03 7.788667e-03 7.616433e-03 8.104420e-03 7.655686e-03 8.316237e-03 7.664447e-03 8.462192e-03 7.690394e-03 8.549227e-03 7.740603e-03 8.559918e-03 7.813135e-03 8.500291e-03 7.924392e-03 8.392699e-03 8.081353e-03 8.249350e-03 8.270113e-03 8.074798e-03 8.460258e-03 7.878881e-03 8.625615e-03 7.693552e-03 8.754909e-03 7.558066e-03 8.838675e-03 7.504758e-03 8.862581e-03 7.548994e-03 8.806647e-03 7.687736e-03 8.659547e-03 7.895605e-03 8.430980e-03 8.122675e-03 8.189478e-03 8.327716e-03 8.130513e-03 8.648188e-03 8.591310e-03 1.053947e-02 9.654675e-03 8.368592e-03 8.427300e-03 7.389709e-03 
7.174312e-03 6.583154e-03 8.331974e-03 8.995337e-03 1.253884e-02 1.019103e-02 1.225005e-02 4.504248e-03 6.722843e-03 4.651295e-03 6.749733e-03 6.416080e-03 6.770961e-03 5.892436e-03 6.434955e-03 6.050819e-03 6.267432e-03 6.242159e-03 6.060023e-03 6.417981e-03 5.862762e-03 7.095130e-03 5.203169e-03 5.925174e-03 4.003005e-03 6.246169e-03 4.325841e-03 6.450507e-03 4.705548e-03 6.484920e-03 5.015823e-03 6.369246e-03 5.240593e-03 6.174741e-03 5.443491e-03 6.032424e-03 5.702170e-03 6.000408e-03 6.011144e-03 6.055315e-03 6.290834e-03 6.107331e-03 6.449455e-03 6.137604e-03 6.548793e-03 6.274456e-03 6.772321e-03 6.693643e-03 7.280679e-03 7.455684e-03 8.052223e-03 8.486058e-03 9.124207e-03 1.001924e-02 1.103159e-02 1.265154e-02 1.345218e-02 1.358971e-02 1.215200e-02 1.086068e-02 9.858521e-03 9.332095e-03 7.551515e-03 6.758726e-03 5.638784e-03 5.065301e-03 4.563090e-03 5.396565e-03 6.031976e-03 5.027194e-03 3.166026e-03 2.126854e-03 2.258325e-03 3.405534e-03 3.206755e-03 3.440811e-03 3.874823e-03 4.038273e-03 4.510519e-03 4.752591e-03 5.027074e-03 5.449872e-03 5.355234e-03 5.961586e-03 5.404193e-03 6.220566e-03 5.275077e-03 6.353739e-03 5.162470e-03 6.490320e-03 5.167760e-03 6.617367e-03 5.230088e-03 6.608683e-03 5.286980e-03 6.472545e-03 5.415373e-03 6.294195e-03 5.655328e-03 6.089437e-03 5.972645e-03 5.833783e-03 6.281367e-03 5.504489e-03 6.524815e-03 5.170981e-03 6.714292e-03 4.924644e-03 6.850990e-03 4.836684e-03 6.910596e-03 4.933340e-03 6.829648e-03 5.216475e-03 6.560346e-03 5.666761e-03 6.048978e-03 6.236032e-03 5.300977e-03 6.902687e-03 4.358545e-03 7.587250e-03 5.080553e-03 9.743373e-03 1.282489e-02 8.662779e-03 8.619488e-03 6.607738e-03 
4.461213e-03 1.711931e-03 6.818138e-03 5.074504e-03 6.686029e-03 1.412638e-02 1.402816e-02 1.837193e-03 1.907756e-03 1.799808e-03 2.770965e-03 3.338710e-03 6.335756e-03 4.310934e-03 5.714428e-03 4.885400e-03 5.324604e-03 5.293873e-03 4.852903e-03 5.951166e-03 4.059643e-03 7.052755e-03 2.575444e-03 3.875558e-03 1.556721e-03 2.658798e-03 1.225815e-03 2.058783e-03 1.236897e-03 1.670091e-03 1.457360e-03 1.324504e-03 1.647899e-03 1.068387e-03 1.730666e-03 1.029603e-03 1.854892e-03 1.095007e-03 2.066193e-03 1.130861e-03 2.254693e-03 1.167716e-03 2.294589e-03 1.299181e-03 2.231976e-03 1.531022e-03 2.346163e-03 2.104486e-03 2.849373e-03 3.008216e-03 3.480475e-03 3.997850e-03 4.185006e-03 5.071988e-03 5.231706e-03 6.558820e-03 6.802241e-03 7.458467e-03 6.114629e-03 5.937450e-03 4.720387e-03 4.698914e-03 3.848125e-03 3.648993e-03 2.895105e-03 1.935198e-03 1.463079e-03 5.967231e-04 1.850796e-03 3.244855e-03 3.472243e-03 4.431351e-03 3.406244e-03 3.287761e-03 1.794131e-03 2.022559e-03 8.073429e-04 1.185619e-03 7.291078e-04 3.666975e-04 1.122012e-03 4.285410e-04 1.196014e-03 1.028824e-03 9.766281e-04 1.329846e-03 7.326884e-04 1.378784e-03 6.163371e-04 1.479427e-03 6.107278e-04 1.647410e-03 6.787202e-04 1.633654e-03 9.092837e-04 1.506490e-03 1.164780e-03 1.431437e-03 1.508037e-03 1.369914e-03 1.946581e-03 1.172922e-03 2.373081e-03 8.745657e-04 2.625373e-03 6.979452e-04 2.712393e-03 5.952721e-04 2.697495e-03 3.826766e-04 2.610246e-03 4.027220e-04 2.396380e-03 1.132870e-03 2.068859e-03 2.167079e-03 1.809163e-03 3.314196e-03 2.175112e-03 4.515988e-03 3.050641e-03 5.231135e-03 6.065648e-03 1.911994e-02 8.342159e-03 8.336961e-03 6.611490e-03 3.511614e-03 
1.384189e-03 2.773983e-03 6.972427e-04 7.300786e-03 1.323304e-02 1.580046e-02 9.030971e-03 2.396772e-03 3.596714e-03 2.199363e-03 4.761487e-03 3.439877e-03 7.046031e-03 2.036227e-03 5.721811e-03 1.416529e-03 4.763628e-03 1.587014e-03 4.081714e-03 2.511842e-03 3.460388e-03 4.247084e-03 2.545757e-03 2.337581e-03 1.341672e-03 1.855899e-03 1.092569e-03 1.759538e-03 1.124255e-03 1.680978e-03 1.217247e-03 1.522942e-03 1.209340e-03 1.370281e-03 8.830420e-04 1.303098e-03 4.084366e-04 1.245964e-03 7.030154e-05 1.066279e-03 3.370969e-04 8.878004e-04 6.110450e-04 9.176488e-04 7.656730e-04 8.218302e-04 1.147256e-03 8.748581e-04 1.725554e-03 1.124855e-03 1.955970e-03 1.437220e-03 2.232948e-03 1.919144e-03 2.781705e-03 2.600030e-03 3.596499e-03 3.112061e-03 2.944339e-03 2.192879e-03 1.990201e-03 1.469103e-03 1.565141e-03 8.250646e-04 1.244363e-03 1.308303e-04 6.824406e-04 1.081338e-03 1.049321e-03 2.338758e-03 1.964235e-03 2.731544e-03 1.890468e-03 1.827647e-03 1.073646e-03 1.270368e-03 6.259452e-04 8.560788e-04 6.957205e-04 3.442388e-04 1.054448e-03 3.184962e-04 8.980015e-04 7.828384e-04 4.259212e-04 1.055812e-03 2.147086e-04 8.965222e-04 2.900985e-04 7.393671e-04 2.424802e-04 8.555839e-04 2.339563e-04 9.196451e-04 7.140806e-04 1.081184e-03 9.300276e-04 1.384118e-03 1.059845e-03 1.602060e-03 1.213124e-03 1.536320e-03 1.382451e-03 1.245537e-03 1.289804e-03 9.079368e-04 8.883671e-04 5.066697e-04 5.300027e-04 2.300631e-04 1.025751e-03 8.967904e-04 1.803155e-03 1.767891e-03 2.560836e-03 2.682615e-03 3.197333e-03 3.318015e-03 3.701779e-03 3.377939e-03 3.172978e-03 2.229671e-03 4.019539e-03 2.580852e-02 3.894348e-03 7.922575e-03 3.886024e-03 2.395099e-03 
3.652729e-03 1.417954e-03 5.051110e-03 2.514100e-03 1.428701e-02 1.473184e-03 1.747213e-02 6.866651e-03 3.485157e-03 4.469649e-03 3.162863e-03 6.530831e-03 5.117137e-03 3.274485e-03 5.353963e-03 3.475687e-03 5.324736e-03 4.452288e-03 4.656090e-03 5.781231e-03 4.445461e-03 6.381359e-03 4.667115e-03 4.133010e-03 1.957353e-03 3.640779e-03 1.038264e-03 3.310493e-03 6.740622e-04 2.966126e-03 7.986725e-04 2.562613e-03 1.011142e-03 2.147009e-03 1.194422e-03 1.850900e-03 1.453334e-03 1.710507e-03 1.780016e-03 1.685946e-03 2.049833e-03 1.687912e-03 2.136576e-03 1.669370e-03 2.109279e-03 1.694243e-03 2.206697e-03 1.993770e-03 2.623566e-03 2.712959e-03 3.233399e-03 3.617233e-03 3.904809e-03 4.570259e-03 4.707170e-03 5.596691e-03 5.422814e-03 6.339574e-03 5.615594e-03 6.293719e-03 5.094504e-03 5.791213e-03 4.900339e-03 5.395028e-03 4.523199e-03 4.295575e-03 3.368806e-03 2.497970e-03 1.729549e-03 1.305988e-03 8.543137e-04 1.547744e-03 1.155183e-03 1.691832e-03 1.009857e-03 1.245304e-03 8.016820e-04 9.248741e-04 9.759742e-04 1.105103e-03 1.343103e-03 1.686438e-03 1.509646e-03 2.178511e-03 1.350570e-03 2.401965e-03 1.039893e-03 2.475661e-03 8.152952e-04 2.590761e-03 7.737449e-04 2.729787e-03 8.573510e-04 2.690643e-03 1.023524e-03 2.497751e-03 1.267476e-03 2.281289e-03 1.628158e-03 2.036955e-03 2.082439e-03 1.687556e-03 2.516343e-03 1.206535e-03 2.818938e-03 7.111327e-04 3.013304e-03 2.825265e-04 3.140536e-03 3.171946e-04 3.199883e-03 8.975990e-04 3.120984e-03 1.659445e-03 2.873436e-03 2.561855e-03 2.474497e-03 3.485108e-03 2.173503e-03 4.363748e-03 2.171749e-03 5.181746e-03 5.351921e-03 1.214102e-02 8.181164e-03 3.825212e-03 4.514766e-03 1.896802e-03 
2.836498e-03 3.113223e-04 3.300899e-03 2.001878e-03 5.609290e-03 8.501952e-03 6.653832e-03 2.006075e-03 1.576208e-03 1.221890e-03 3.282751e-03 1.415951e-03 6.747640e-03 2.736271e-03 5.551686e-03 1.526537e-03 4.902422e-03 9.084590e-04 4.205235e-03 2.060085e-03 4.301787e-03 4.039547e-03 1.344300e-03 1.224829e-03 9.332432e-04 1.800590e-04 5.589160e-04 3.375487e-04 3.307672e-04 5.253803e-04 3.700979e-04 5.197087e-04 5.375133e-04 4.283736e-04 7.135020e-04 3.488483e-04 9.138004e-04 3.194649e-04 1.121485e-03 3.713330e-04 1.290724e-03 5.051942e-04 1.380776e-03 6.720271e-04 1.439713e-03 8.964545e-04 1.592214e-03 1.324928e-03 1.979100e-03 2.086279e-03 2.669026e-03 3.143372e-03 3.642127e-03 4.384573e-03 4.741985e-03 5.523936e-03 5.366329e-03 6.221827e-03 5.702446e-03 6.556778e-03 5.275987e-03 5.705831e-03 4.786628e-03 4.977414e-03 4.146087e-03 4.148994e-03 4.222382e-03 4.665587e-03 5.369145e-03 4.760485e-03 2.790985e-03 2.463860e-03 1.939733e-03 2.978487e-03 2.167912e-03 2.738809e-03 1.568046e-03 1.967447e-03 8.310278e-04 1.123891e-03 3.276482e-04 5.845256e-04 3.083542e-04 6.956051e-04 2.946561e-04 9.573430e-04 1.719869e-04 1.158606e-03 6.708677e-05 1.331170e-03 6.339019e-05 1.445932e-03 1.835277e-04 1.419451e-03 3.645910e-04 1.261606e-03 6.090819e-04 1.037897e-03 9.511273e-04 7.790503e-04 1.364664e-03 5.156724e-04 1.769873e-03 4.058441e-04 2.092894e-03 5.621833e-04 2.301039e-03 7.053294e-04 2.365335e-03 6.860748e-04 2.251270e-03 5.598507e-04 1.919417e-03 7.235035e-04 1.392360e-03 1.352530e-03 9.364322e-04 2.179542e-03 1.278964e-03 3.061584e-03 1.932647e-03 4.053093e-03 1.830036e-03 4.193177e-03 4.296641e-03 1.942857e-03 3.227652e-03 8.095896e-04 
