# vtk DataFile Version 2.0
Comment goes here
ASCII

DATASET STRUCTURED_POINTS
FIELD FieldData 1
TIME 1 1 double
0.76000000
DIMENSIONS    128   16   1

ORIGIN    0.000   0.000   0.000
SPACING   0.0078125 0.015625   1.000

POINT_DATA   2048
SCALARS uMag double
LOOKUP_TABLE default

6.686650e-03 2.134165e-03 6.070985e-03 8.809466e-04 4.953498e-03 5.820760e-03 8.610165e-03 1.243423e-03 3.966075e-03 2.479161e-03 1.564674e-03 7.683167e-03 1.293381e-02 2.345202e-02 2.995920e-02 3.007706e-02 3.529660e-02 3.220661e-02 3.341422e-02 2.835829e-02 2.537468e-02 1.122675e-02 8.988525e-03 1.495554e-03 2.853608e-03 2.127658e-03 2.742959e-04 3.496716e-03 9.019439e-04 3.897029e-03 1.498657e-03 3.876167e-03 1.875739e-03 3.667655e-03 2.166478e-03 3.377862e-03 2.417091e-03 3.064651e-03 2.637953e-03 2.766554e-03 2.822413e-03 2.509731e-03 2.953479e-03 2.306884e-03 3.010981e-03 2.160510e-03 2.984264e-03 2.070611e-03 2.886127e-03 2.043116e-03 2.766011e-03 2.113464e-03 2.730073e-03 2.418317e-03 2.978816e-03 3.219283e-03 3.075465e-03 2.883474e-03 3.582471e-03 3.513492e-03 5.391807e-03 7.897542e-03 5.814747e-03 6.898515e-03 6.058757e-03 7.745006e-03 6.222282e-03 8.004360e-03 4.411297e-03 2.992576e-03 1.509956e-03 1.709727e-03 2.252184e-03 2.224164e-03 1.577777e-03 2.289385e-03 2.017569e-03 2.404184e-03 2.238839e-03 2.449791e-03 2.253973e-03 2.486433e-03 2.153211e-03 2.540813e-03 2.013841e-03 2.606269e-03 1.891909e-03 2.649235e-03 1.821467e-03 2.628900e-03 1.823914e-03 2.521770e-03 1.914096e-03 2.330220e-03 2.095632e-03 2.072983e-03 2.351027e-03 1.775466e-03 2.639694e-03 1.470482e-03 2.907911e-03 1.203817e-03 3.101345e-03 1.032180e-03 3.171422e-03 1.011601e-03 3.077106e-03 1.183994e-03 2.787971e-03 1.566378e-03 2.291901e-03 2.147281e-03 1.608792e-03 2.886722e-03 8.079648e-04 3.712278e-03 6.444425e-05 4.507083e-03 4.445854e-04 5.090336e-03 5.635977e-05 5.230190e-03 3.174328e-03 1.585922e-03 5.227141e-03 2.870695e-03 6.448479e-03 3.269518e-03 
3.742562e-03 6.456015e-04 4.009172e-03 3.301779e-03 4.982680e-03 1.057308e-02 8.214021e-03 4.896237e-03 2.298613e-03 5.535381e-03 5.587252e-03 1.137568e-02 1.739966e-02 1.704329e-02 7.875110e-03 5.484018e-03 4.052925e-03 2.397949e-03 5.075976e-03 8.101595e-03 1.761160e-02 1.681808e-02 9.996225e-03 6.205966e-03 3.816360e-03 2.683496e-03 1.506165e-03 1.750133e-03 4.760953e-04 1.672842e-03 1.420932e-04 1.636938e-03 4.121451e-04 1.511189e-03 6.715275e-04 1.317717e-03 9.212994e-04 1.082070e-03 1.154061e-03 8.277780e-04 1.351831e-03 5.826762e-04 1.499454e-03 3.801082e-04 1.581350e-03 2.751158e-04 1.575588e-03 2.943573e-04 1.479591e-03 2.956912e-04 1.353636e-03 1.101389e-04 1.510431e-03 6.398378e-04 2.440168e-03 7.111930e-04 1.085720e-03 3.069856e-03 1.842912e-03 3.969801e-03 1.056447e-02 2.828188e-03 1.770929e-03 1.311886e-04 2.858562e-03 1.027100e-03 3.124802e-03 7.001942e-03 1.302872e-02 9.628806e-03 8.299987e-03 7.238793e-03 9.305004e-03 5.927572e-03 3.890368e-03 3.367874e-03 2.168006e-03 1.987603e-03 1.264540e-03 1.181858e-03 8.144768e-04 7.182873e-04 5.465592e-04 5.158318e-04 3.564182e-04 5.304084e-04 2.170853e-04 6.066367e-04 1.296171e-04 6.294919e-04 1.194249e-04 5.685326e-04 2.207926e-04 4.285006e-04 4.240502e-04 2.425064e-04 7.009308e-04 1.872503e-04 1.000038e-03 4.192768e-04 1.271020e-03 6.711176e-04 1.470030e-03 8.442062e-04 1.556125e-03 8.827028e-04 1.498810e-03 7.686260e-04 1.281445e-03 5.930919e-04 9.381146e-04 7.316512e-04 7.153333e-04 1.314424e-03 1.082473e-03 2.097011e-03 1.753815e-03 2.932222e-03 2.301286e-03 3.757545e-03 2.196532e-03 5.183168e-03 3.704458e-03 3.215478e-03 4.086789e-03 1.315668e-03 3.955295e-03 8.913100e-04 
8.503396e-03 6.022237e-03 8.803872e-03 4.650809e-03 1.363614e-02 1.605077e-02 1.671107e-02 1.205980e-02 2.672867e-03 8.796154e-03 2.855976e-03 1.070206e-02 1.000299e-02 1.302835e-02 1.633781e-02 1.555395e-02 1.763366e-02 1.718522e-02 1.615193e-02 1.629871e-02 1.399883e-02 1.002234e-02 6.248401e-03 3.342613e-03 3.927404e-03 1.159543e-03 4.774425e-03 1.781069e-03 5.396381e-03 2.426487e-03 5.663588e-03 2.919677e-03 5.693042e-03 3.353972e-03 5.556336e-03 3.755256e-03 5.311394e-03 4.139113e-03 5.021868e-03 4.512458e-03 4.727162e-03 4.856633e-03 4.452556e-03 5.141554e-03 4.234107e-03 5.364523e-03 4.133155e-03 5.547116e-03 4.202879e-03 5.725472e-03 4.530801e-03 6.031763e-03 5.309925e-03 6.759907e-03 6.898949e-03 8.724479e-03 9.938246e-03 8.142718e-03 1.183232e-02 9.382499e-03 1.742579e-02 1.672594e-02 1.639405e-02 1.388346e-02 1.443666e-02 1.232250e-02 1.329860e-02 1.291196e-02 1.069776e-02 1.322028e-02 5.301252e-03 7.999385e-03 6.455298e-03 1.018162e-02 6.964913e-03 4.751800e-03 4.577198e-03 4.879645e-03 4.356184e-03 5.223788e-03 4.557549e-03 5.332758e-03 4.880478e-03 5.247547e-03 5.215767e-03 5.073831e-03 5.514489e-03 4.909224e-03 5.743786e-03 4.819980e-03 5.860835e-03 4.832421e-03 5.835165e-03 4.958355e-03 5.668758e-03 5.182952e-03 5.392306e-03 5.487878e-03 5.072367e-03 5.844163e-03 4.752201e-03 6.183123e-03 4.477076e-03 6.442954e-03 4.308720e-03 6.566415e-03 4.306327e-03 6.518442e-03 4.518489e-03 6.291308e-03 4.956932e-03 5.899130e-03 5.605262e-03 5.346518e-03 6.414632e-03 4.611884e-03 7.333031e-03 3.652693e-03 8.329675e-03 2.623162e-03 9.411965e-03 5.533697e-03 1.691113e-02 9.754693e-03 8.572583e-03 3.989722e-03 8.167249e-03 6.183487e-03 
6.167846e-03 8.036598e-03 1.062623e-02 1.438212e-02 3.016936e-02 2.839903e-03 2.054943e-02 1.350617e-02 1.333379e-02 1.441475e-02 1.074566e-02 1.486225e-02 8.422265e-03 1.580211e-02 1.016539e-02 1.643292e-02 1.129408e-02 1.630739e-02 1.172672e-02 1.469113e-02 1.157382e-02 1.114464e-02 1.261573e-02 1.193875e-02 1.292327e-02 1.217146e-02 1.334084e-02 1.225590e-02 1.366941e-02 1.227813e-02 1.388381e-02 1.230021e-02 1.398756e-02 1.234947e-02 1.398604e-02 1.242496e-02 1.389746e-02 1.251827e-02 1.374290e-02 1.262162e-02 1.353248e-02 1.271958e-02 1.327140e-02 1.278629e-02 1.296898e-02 1.279312e-02 1.263328e-02 1.270055e-02 1.224926e-02 1.244044e-02 1.177386e-02 1.194211e-02 1.112646e-02 1.116738e-02 1.022458e-02 9.803070e-03 7.869882e-03 5.662293e-03 7.715235e-03 7.203981e-03 9.108714e-03 7.455418e-03 9.068505e-03 7.546552e-03 7.033214e-03 7.787006e-03 7.543771e-03 9.932370e-03 1.213109e-02 1.594212e-02 1.942703e-02 1.963342e-02 2.289840e-02 2.095091e-02 1.718877e-02 1.731784e-02 1.483929e-02 1.593497e-02 1.384833e-02 1.513640e-02 1.347220e-02 1.458409e-02 1.339092e-02 1.414671e-02 1.343959e-02 1.378426e-02 1.353314e-02 1.349210e-02 1.363083e-02 1.327386e-02 1.370682e-02 1.313202e-02 1.374348e-02 1.306622e-02 1.373554e-02 1.306335e-02 1.368686e-02 1.310752e-02 1.360941e-02 1.319157e-02 1.350033e-02 1.330198e-02 1.336354e-02 1.343231e-02 1.321148e-02 1.358161e-02 1.306024e-02 1.375444e-02 1.292588e-02 1.395762e-02 1.281613e-02 1.419142e-02 1.273721e-02 1.442942e-02 1.269694e-02 1.462625e-02 1.271500e-02 1.472532e-02 1.287093e-02 1.463877e-02 1.353111e-02 1.425099e-02 2.029325e-02 3.562916e-02 2.234828e-02 6.873968e-03 6.885870e-03 6.620971e-03 
1.753847e-02 2.169173e-02 1.984216e-02 2.825913e-02 3.153786e-02 4.239583e-02 1.907027e-02 2.451537e-02 1.553562e-02 2.025030e-02 1.368917e-02 1.686251e-02 7.516932e-03 1.125996e-02 9.681668e-03 1.078454e-02 1.053360e-02 1.038197e-02 1.099891e-02 9.661877e-03 1.128179e-02 8.130896e-03 1.665147e-02 1.388962e-02 1.874152e-02 1.643849e-02 1.964224e-02 1.775833e-02 2.001095e-02 1.853419e-02 2.010722e-02 1.906440e-02 2.004913e-02 1.947421e-02 1.988415e-02 1.980251e-02 1.964819e-02 2.007437e-02 1.938612e-02 2.029853e-02 1.912001e-02 2.045286e-02 1.885216e-02 2.049626e-02 1.858230e-02 2.040219e-02 1.831838e-02 2.015338e-02 1.803763e-02 1.971593e-02 1.770986e-02 1.908909e-02 1.734226e-02 1.834707e-02 1.705116e-02 1.753569e-02 1.515400e-02 1.061929e-02 1.515613e-02 1.333202e-02 1.805597e-02 1.932714e-02 1.684476e-02 1.724629e-02 1.459463e-02 1.755129e-02 1.512013e-02 2.069076e-02 2.058940e-02 2.540127e-02 2.971849e-02 2.807839e-02 3.592932e-02 2.839106e-02 2.669497e-02 2.396348e-02 2.350287e-02 2.245233e-02 2.205199e-02 2.177505e-02 2.135273e-02 2.138666e-02 2.102352e-02 2.108669e-02 2.088179e-02 2.083795e-02 2.083258e-02 2.065926e-02 2.081390e-02 2.057106e-02 2.076355e-02 2.057225e-02 2.063707e-02 2.066299e-02 2.042552e-02 2.083038e-02 2.014893e-02 2.106322e-02 1.986421e-02 2.133631e-02 1.960784e-02 2.158313e-02 1.941490e-02 2.174242e-02 1.933112e-02 2.175616e-02 1.939715e-02 2.158650e-02 1.965441e-02 2.122278e-02 2.012988e-02 2.068135e-02 2.083469e-02 1.998861e-02 2.174473e-02 1.918009e-02 2.282894e-02 1.835145e-02 2.407158e-02 1.778814e-02 2.546547e-02 1.859960e-02 2.755851e-02 5.173831e-02 2.753458e-02 2.320501e-02 1.771052e-02 2.043661e-02 
1.840302e-02 2.011109e-02 2.015109e-02 2.282240e-02 2.547648e-02 3.446329e-02 3.525816e-02 3.463727e-02 2.997818e-02 3.265448e-02 2.790597e-02 3.093910e-02 2.481619e-02 2.493487e-02 2.445079e-02 2.481622e-02 2.465636e-02 2.464889e-02 2.484091e-02 2.448328e-02 2.494092e-02 2.522131e-02 3.087514e-02 2.862533e-02 3.194735e-02 2.997977e-02 3.266147e-02 3.063829e-02 3.304296e-02 3.101022e-02 3.320033e-02 3.128341e-02 3.319759e-02 3.152937e-02 3.306589e-02 3.176082e-02 3.283376e-02 3.198208e-02 3.253773e-02 3.218066e-02 3.219405e-02 3.231529e-02 3.179293e-02 3.231948e-02 3.130377e-02 3.211316e-02 3.067367e-02 3.157530e-02 2.977111e-02 3.049638e-02 2.835404e-02 2.856048e-02 2.602001e-02 2.528120e-02 2.221165e-02 2.091777e-02 2.014797e-02 8.847241e-03 1.261359e-02 1.241289e-02 1.357088e-02 1.369803e-02 1.384208e-02 1.717867e-02 1.776811e-02 2.022662e-02 2.235936e-02 2.370773e-02 2.832532e-02 3.014059e-02 2.951663e-02 2.976644e-02 3.130215e-02 3.483907e-02 3.340228e-02 3.249178e-02 3.172183e-02 3.247872e-02 3.174980e-02 3.279651e-02 3.209364e-02 3.296999e-02 3.245909e-02 3.296233e-02 3.277515e-02 3.284694e-02 3.302888e-02 3.271065e-02 3.321242e-02 3.261508e-02 3.330339e-02 3.258492e-02 3.328418e-02 3.263248e-02 3.315916e-02 3.275439e-02 3.295212e-02 3.294650e-02 3.271293e-02 3.319091e-02 3.247541e-02 3.343801e-02 3.226688e-02 3.364185e-02 3.211838e-02 3.375833e-02 3.205502e-02 3.375826e-02 3.210493e-02 3.363173e-02 3.229129e-02 3.338868e-02 3.263229e-02 3.304977e-02 3.312923e-02 3.264780e-02 3.379929e-02 3.226782e-02 3.471967e-02 3.211262e-02 3.612183e-02 3.262757e-02 3.977054e-02 3.459090e-02 2.153988e-02 2.198021e-02 1.857049e-02 1.975344e-02 
2.461447e-02 2.628840e-02 2.547648e-02 2.745573e-02 2.740961e-02 2.953369e-02 3.365045e-02 3.475174e-02 3.237447e-02 3.564341e-02 3.309706e-02 3.713366e-02 3.607186e-02 3.518784e-02 3.465031e-02 3.504628e-02 3.488559e-02 3.484911e-02 3.510019e-02 3.465256e-02 3.522123e-02 3.644953e-02 3.694355e-02 3.395251e-02 3.511909e-02 3.329803e-02 3.478170e-02 3.309317e-02 3.468326e-02 3.306213e-02 3.462219e-02 3.312913e-02 3.453578e-02 3.325582e-02 3.440358e-02 3.341444e-02 3.422417e-02 3.358273e-02 3.400510e-02 3.373672e-02 3.375135e-02 3.384538e-02 3.345896e-02 3.386864e-02 3.311251e-02 3.375720e-02 3.268223e-02 3.344820e-02 3.211749e-02 3.286944e-02 3.136285e-02 3.197760e-02 3.042099e-02 3.083120e-02 2.948735e-02 3.028297e-02 3.210949e-02 2.992040e-02 2.874050e-02 2.973476e-02 2.920054e-02 2.849483e-02 2.986307e-02 2.633415e-02 2.914530e-02 2.528968e-02 2.842275e-02 2.484580e-02 2.632647e-02 2.365628e-02 2.235338e-02 2.368695e-02 2.012157e-02 2.398019e-02 2.622928e-02 2.905125e-02 2.963415e-02 3.159086e-02 3.152060e-02 3.298226e-02 3.266326e-02 3.371535e-02 3.338254e-02 3.406053e-02 3.384755e-02 3.418943e-02 3.414976e-02 3.421729e-02 3.433610e-02 3.421821e-02 3.442728e-02 3.423421e-02 3.443396e-02 3.428604e-02 3.436876e-02 3.437892e-02 3.425053e-02 3.450839e-02 3.410486e-02 3.466045e-02 3.395582e-02 3.481110e-02 3.382521e-02 3.493438e-02 3.373315e-02 3.500645e-02 3.369615e-02 3.501065e-02 3.372706e-02 3.494026e-02 3.383179e-02 3.479914e-02 3.400573e-02 3.460013e-02 3.422781e-02 3.436584e-02 3.445690e-02 3.413170e-02 3.461730e-02 3.392676e-02 3.455698e-02 3.363379e-02 3.425865e-02 2.988524e-02 2.724109e-02 2.703158e-02 2.514124e-02 2.603698e-02 
2.382877e-02 2.471193e-02 2.483088e-02 2.622208e-02 2.696067e-02 2.861388e-02 2.995362e-02 3.155841e-02 3.226878e-02 3.397442e-02 3.569981e-02 3.705265e-02 4.175648e-02 4.177111e-02 4.157020e-02 4.174257e-02 4.166770e-02 4.167178e-02 4.174509e-02 4.158360e-02 4.177433e-02 4.189413e-02 3.652146e-02 3.563826e-02 3.397738e-02 3.310581e-02 3.304513e-02 3.184981e-02 3.260534e-02 3.121871e-02 3.234876e-02 3.092652e-02 3.215012e-02 3.083042e-02 3.195825e-02 3.084868e-02 3.175440e-02 3.092799e-02 3.153479e-02 3.102734e-02 3.129988e-02 3.111043e-02 3.104939e-02 3.114431e-02 3.078156e-02 3.110258e-02 3.049590e-02 3.097304e-02 3.020291e-02 3.077994e-02 2.995722e-02 3.063264e-02 2.991865e-02 3.077778e-02 3.042385e-02 3.191149e-02 3.282735e-02 3.488499e-02 3.458390e-02 3.224874e-02 3.446795e-02 3.029950e-02 3.254481e-02 2.913275e-02 3.141286e-02 2.904823e-02 3.121059e-02 3.090438e-02 3.110388e-02 3.285531e-02 3.108860e-02 3.325844e-02 3.064246e-02 2.975535e-02 2.954090e-02 3.032023e-02 3.023422e-02 3.090374e-02 3.069410e-02 3.123773e-02 3.104489e-02 3.141268e-02 3.132891e-02 3.147757e-02 3.155481e-02 3.147704e-02 3.172320e-02 3.145372e-02 3.183218e-02 3.144215e-02 3.187837e-02 3.146389e-02 3.186041e-02 3.152808e-02 3.178328e-02 3.163337e-02 3.166067e-02 3.177108e-02 3.151431e-02 3.192520e-02 3.136796e-02 3.207238e-02 3.124457e-02 3.218675e-02 3.116498e-02 3.224413e-02 3.114611e-02 3.222663e-02 3.119972e-02 3.212529e-02 3.132861e-02 3.193979e-02 3.152077e-02 3.167419e-02 3.173896e-02 3.132861e-02 3.190418e-02 3.088210e-02 3.185900e-02 3.025129e-02 3.129367e-02 2.921471e-02 2.970838e-02 2.736360e-02 2.614496e-02 2.533758e-02 2.423374e-02 2.439069e-02 
2.679918e-02 2.784401e-02 2.745868e-02 2.887774e-02 2.917811e-02 3.071810e-02 3.192811e-02 3.357010e-02 3.422758e-02 3.604582e-02 3.752925e-02 3.872876e-02 4.321372e-02 4.357306e-02 4.330709e-02 4.351582e-02 4.343524e-02 4.340744e-02 4.355167e-02 4.329161e-02 4.360807e-02 4.319692e-02 3.778498e-02 3.726058e-02 3.574349e-02 3.494330e-02 3.498391e-02 3.388695e-02 3.465398e-02 3.342492e-02 3.447918e-02 3.326093e-02 3.435152e-02 3.325833e-02 3.423275e-02 3.334771e-02 3.411275e-02 3.348869e-02 3.399386e-02 3.365559e-02 3.388566e-02 3.383347e-02 3.380396e-02 3.401880e-02 3.377192e-02 3.422270e-02 3.382308e-02 3.447749e-02 3.400710e-02 3.484572e-02 3.439249e-02 3.541711e-02 3.503583e-02 3.623949e-02 3.584864e-02 3.723556e-02 3.635168e-02 3.812547e-02 3.809141e-02 3.721430e-02 3.919548e-02 3.737617e-02 3.878624e-02 3.850627e-02 4.018968e-02 3.909712e-02 4.027563e-02 3.913856e-02 3.926476e-02 3.882081e-02 3.710531e-02 3.847363e-02 3.547608e-02 3.472368e-02 3.347080e-02 3.398280e-02 3.322222e-02 3.386743e-02 3.328030e-02 3.386517e-02 3.343671e-02 3.388259e-02 3.361806e-02 3.389201e-02 3.378689e-02 3.389147e-02 3.392225e-02 3.389211e-02 3.401366e-02 3.390919e-02 3.405663e-02 3.395422e-02 3.405018e-02 3.403098e-02 3.399752e-02 3.413609e-02 3.390807e-02 3.426115e-02 3.379737e-02 3.439373e-02 3.368433e-02 3.451780e-02 3.358776e-02 3.461523e-02 3.352395e-02 3.466879e-02 3.350533e-02 3.466548e-02 3.353885e-02 3.459854e-02 3.362288e-02 3.446690e-02 3.374162e-02 3.427071e-02 3.385599e-02 3.400001e-02 3.388783e-02 3.360962e-02 3.369296e-02 3.297141e-02 3.302681e-02 3.181606e-02 3.156057e-02 2.983374e-02 2.892166e-02 2.832783e-02 2.728029e-02 2.764763e-02 
2.382875e-02 2.470581e-02 2.482811e-02 2.622062e-02 2.695592e-02 2.861623e-02 2.994952e-02 3.155954e-02 3.226699e-02 3.397534e-02 3.569902e-02 3.705465e-02 4.175488e-02 4.177084e-02 4.157065e-02 4.174249e-02 4.166772e-02 4.167211e-02 4.174457e-02 4.158442e-02 4.177344e-02 4.189510e-02 3.654439e-02 3.565261e-02 3.398064e-02 3.313563e-02 3.304385e-02 3.189096e-02 3.260377e-02 3.126525e-02 3.235252e-02 3.097571e-02 3.217184e-02 3.088675e-02 3.201998e-02 3.092444e-02 3.188436e-02 3.104018e-02 3.176468e-02 3.120154e-02 3.167216e-02 3.139440e-02 3.163240e-02 3.162667e-02 3.168676e-02 3.192952e-02 3.189221e-02 3.236153e-02 3.232757e-02 3.302015e-02 3.310193e-02 3.404980e-02 3.434352e-02 3.561401e-02 3.613142e-02 3.784722e-02 3.727567e-02 3.774500e-02 3.749354e-02 3.689741e-02 3.805122e-02 3.643774e-02 3.717877e-02 3.533743e-02 3.686975e-02 3.520312e-02 3.678695e-02 3.645963e-02 3.764191e-02 3.876357e-02 3.795386e-02 3.991152e-02 3.782513e-02 3.575417e-02 3.485495e-02 3.436977e-02 3.370301e-02 3.345466e-02 3.293856e-02 3.274477e-02 3.246276e-02 3.222926e-02 3.220381e-02 3.187147e-02 3.207943e-02 3.163003e-02 3.202047e-02 3.148059e-02 3.198256e-02 3.141526e-02 3.193990e-02 3.142841e-02 3.187381e-02 3.150595e-02 3.177169e-02 3.162915e-02 3.163421e-02 3.177996e-02 3.147612e-02 3.194136e-02 3.132139e-02 3.209412e-02 3.119403e-02 3.221388e-02 3.111361e-02 3.227609e-02 3.109595e-02 3.226178e-02 3.115240e-02 3.216134e-02 3.128661e-02 3.197378e-02 3.148691e-02 3.170246e-02 3.171656e-02 3.134722e-02 3.189600e-02 3.088738e-02 3.186754e-02 3.024260e-02 3.131877e-02 2.919389e-02 2.974005e-02 2.734039e-02 2.615805e-02 2.531931e-02 2.423824e-02 2.437894e-02 
2.461477e-02 2.627514e-02 2.547156e-02 2.745168e-02 2.739997e-02 2.954194e-02 3.364051e-02 3.474948e-02 3.237012e-02 3.564153e-02 3.309478e-02 3.713546e-02 3.606875e-02 3.518621e-02 3.465308e-02 3.504548e-02 3.488686e-02 3.485070e-02 3.509855e-02 3.465688e-02 3.521671e-02 3.645501e-02 3.698099e-02 3.398386e-02 3.513380e-02 3.335902e-02 3.479300e-02 3.317726e-02 3.469689e-02 3.315830e-02 3.464765e-02 3.323175e-02 3.459594e-02 3.337176e-02 3.453837e-02 3.356406e-02 3.448311e-02 3.379253e-02 3.444034e-02 3.404486e-02 3.442950e-02 3.432405e-02 3.448684e-02 3.465655e-02 3.466747e-02 3.509118e-02 3.504219e-02 3.569962e-02 3.570542e-02 3.658998e-02 3.679518e-02 3.793249e-02 3.852708e-02 3.999531e-02 4.126684e-02 4.348732e-02 4.568541e-02 4.599956e-02 4.405834e-02 4.390917e-02 4.233528e-02 4.212328e-02 4.194181e-02 4.250292e-02 4.186345e-02 4.177738e-02 4.078516e-02 3.969030e-02 3.820720e-02 3.564137e-02 3.496177e-02 3.316960e-02 3.420189e-02 3.555863e-02 3.505989e-02 3.581620e-02 3.509144e-02 3.548912e-02 3.481967e-02 3.501219e-02 3.457363e-02 3.460538e-02 3.444199e-02 3.431549e-02 3.439864e-02 3.412613e-02 3.439454e-02 3.402090e-02 3.439692e-02 3.399693e-02 3.438863e-02 3.405071e-02 3.435294e-02 3.416467e-02 3.427392e-02 3.431652e-02 3.415035e-02 3.448814e-02 3.399782e-02 3.466598e-02 3.384339e-02 3.483559e-02 3.371231e-02 3.497465e-02 3.362305e-02 3.505955e-02 3.359101e-02 3.507228e-02 3.362910e-02 3.500547e-02 3.374559e-02 3.486201e-02 3.393685e-02 3.465347e-02 3.418280e-02 3.440171e-02 3.444072e-02 3.414192e-02 3.463391e-02 3.390838e-02 3.460549e-02 3.358911e-02 3.431874e-02 2.984915e-02 2.726472e-02 2.699937e-02 2.514997e-02 2.601423e-02 
1.839785e-02 2.009512e-02 2.014198e-02 2.282055e-02 2.545800e-02 3.448910e-02 3.524023e-02 3.463591e-02 2.998056e-02 3.265202e-02 2.791031e-02 3.094068e-02 2.481610e-02 2.493319e-02 2.445314e-02 2.481505e-02 2.465674e-02 2.464950e-02 2.483866e-02 2.448640e-02 2.493691e-02 2.522062e-02 3.086937e-02 2.866732e-02 3.190761e-02 3.007784e-02 3.262729e-02 3.078303e-02 3.300658e-02 3.116141e-02 3.315485e-02 3.141452e-02 3.316924e-02 3.164879e-02 3.313188e-02 3.191504e-02 3.308625e-02 3.220184e-02 3.303685e-02 3.247899e-02 3.299497e-02 3.274136e-02 3.300631e-02 3.303156e-02 3.314919e-02 3.340975e-02 3.348731e-02 3.391772e-02 3.406031e-02 3.457789e-02 3.488755e-02 3.540814e-02 3.601672e-02 3.646865e-02 3.756871e-02 3.809616e-02 4.088615e-02 4.119556e-02 4.005960e-02 4.066440e-02 3.887141e-02 3.926405e-02 3.928776e-02 4.019354e-02 3.896010e-02 3.902285e-02 3.756998e-02 3.671886e-02 3.586956e-02 3.358906e-02 3.328479e-02 3.026529e-02 3.142667e-02 3.388764e-02 3.363007e-02 3.441302e-02 3.376822e-02 3.399299e-02 3.352868e-02 3.344823e-02 3.334084e-02 3.301245e-02 3.328851e-02 3.270122e-02 3.329836e-02 3.246243e-02 3.329568e-02 3.229201e-02 3.327040e-02 3.223560e-02 3.324412e-02 3.232094e-02 3.319583e-02 3.250385e-02 3.307226e-02 3.273047e-02 3.286108e-02 3.297336e-02 3.259185e-02 3.322715e-02 3.232751e-02 3.348763e-02 3.211303e-02 3.371137e-02 3.196658e-02 3.384900e-02 3.190839e-02 3.386361e-02 3.196324e-02 3.374495e-02 3.216329e-02 3.350097e-02 3.252538e-02 3.314803e-02 3.305691e-02 3.271749e-02 3.376765e-02 3.228663e-02 3.474382e-02 3.208115e-02 3.622849e-02 3.254653e-02 3.995141e-02 3.452748e-02 2.153468e-02 2.191840e-02 1.856696e-02 1.972020e-02 
1.753189e-02 2.166512e-02 1.983860e-02 2.823772e-02 3.154711e-02 4.241790e-02 1.903068e-02 2.451848e-02 1.554526e-02 2.025051e-02 1.369685e-02 1.685593e-02 7.516662e-03 1.125557e-02 9.690169e-03 1.077872e-02 1.054122e-02 1.038440e-02 1.099674e-02 9.678487e-03 1.126327e-02 8.171934e-03 1.661114e-02 1.396232e-02 1.866856e-02 1.657690e-02 1.959220e-02 1.795767e-02 1.997238e-02 1.874240e-02 2.006002e-02 1.924292e-02 2.001422e-02 1.962388e-02 1.994799e-02 1.997094e-02 1.990754e-02 2.028344e-02 1.988108e-02 2.052926e-02 1.986405e-02 2.070029e-02 1.989054e-02 2.084101e-02 2.002423e-02 2.100832e-02 2.029089e-02 2.121717e-02 2.066186e-02 2.143425e-02 2.105350e-02 2.159261e-02 2.138207e-02 2.165027e-02 2.158188e-02 2.161978e-02 2.198931e-02 2.227917e-02 2.221124e-02 2.258179e-02 2.188940e-02 2.186565e-02 2.200106e-02 2.212269e-02 2.189992e-02 2.191259e-02 2.151176e-02 2.146964e-02 2.151801e-02 2.162743e-02 2.169354e-02 2.166236e-02 2.122922e-02 2.176456e-02 2.076290e-02 2.118119e-02 2.026488e-02 2.068988e-02 2.001135e-02 2.037289e-02 2.000146e-02 2.021504e-02 2.015801e-02 2.013287e-02 2.033596e-02 2.004846e-02 2.043636e-02 1.997629e-02 2.046421e-02 1.999481e-02 2.047237e-02 2.015627e-02 2.044695e-02 2.041597e-02 2.032296e-02 2.071009e-02 2.009094e-02 2.100212e-02 1.979524e-02 2.128051e-02 1.952204e-02 2.154087e-02 1.933075e-02 2.172696e-02 1.925224e-02 2.177178e-02 1.932343e-02 2.162637e-02 1.958193e-02 2.128036e-02 2.006553e-02 2.074856e-02 2.078231e-02 2.005357e-02 2.171622e-02 1.922784e-02 2.282868e-02 1.835833e-02 2.411436e-02 1.775726e-02 2.559094e-02 1.851139e-02 2.779710e-02 5.196861e-02 2.749950e-02 2.311348e-02 1.768737e-02 2.039010e-02 
6.183262e-03 8.023290e-03 1.064704e-02 1.435747e-02 3.019698e-02 2.761384e-03 2.055339e-02 1.350691e-02 1.334120e-02 1.439943e-02 1.075430e-02 1.483888e-02 8.425236e-03 1.578507e-02 1.017433e-02 1.640625e-02 1.131179e-02 1.627134e-02 1.176131e-02 1.464886e-02 1.163569e-02 1.110775e-02 1.267269e-02 1.193357e-02 1.298045e-02 1.219704e-02 1.339147e-02 1.229616e-02 1.370226e-02 1.232233e-02 1.389946e-02 1.234199e-02 1.400365e-02 1.239274e-02 1.404475e-02 1.249640e-02 1.403458e-02 1.264687e-02 1.397593e-02 1.282297e-02 1.388503e-02 1.301003e-02 1.379281e-02 1.321527e-02 1.373582e-02 1.345635e-02 1.373733e-02 1.373111e-02 1.380409e-02 1.401525e-02 1.392455e-02 1.427534e-02 1.407988e-02 1.447986e-02 1.422990e-02 1.462108e-02 1.459800e-02 1.516249e-02 1.472333e-02 1.537652e-02 1.453861e-02 1.503317e-02 1.471670e-02 1.527605e-02 1.471705e-02 1.506007e-02 1.440946e-02 1.447160e-02 1.418306e-02 1.401699e-02 1.402083e-02 1.364221e-02 1.369288e-02 1.376597e-02 1.354916e-02 1.344330e-02 1.336520e-02 1.317790e-02 1.329675e-02 1.301314e-02 1.332468e-02 1.292729e-02 1.341261e-02 1.287122e-02 1.350459e-02 1.282330e-02 1.356344e-02 1.279530e-02 1.359444e-02 1.280572e-02 1.362782e-02 1.286627e-02 1.365428e-02 1.296464e-02 1.363732e-02 1.308036e-02 1.356858e-02 1.319589e-02 1.346027e-02 1.330405e-02 1.333290e-02 1.342238e-02 1.318807e-02 1.355845e-02 1.303037e-02 1.371151e-02 1.287788e-02 1.388478e-02 1.275059e-02 1.408889e-02 1.266331e-02 1.432311e-02 1.262191e-02 1.456077e-02 1.263178e-02 1.474660e-02 1.270448e-02 1.482467e-02 1.289242e-02 1.470919e-02 1.356531e-02 1.423613e-02 2.025698e-02 3.616267e-02 2.228901e-02 6.843729e-03 6.841638e-03 6.610017e-03 
8.516749e-03 6.021168e-03 8.817653e-03 4.646464e-03 1.363499e-02 1.603510e-02 1.669589e-02 1.207654e-02 2.680962e-03 8.805440e-03 2.836060e-03 1.070776e-02 9.968786e-03 1.305358e-02 1.628031e-02 1.559244e-02 1.757450e-02 1.719869e-02 1.614458e-02 1.625586e-02 1.403810e-02 1.000193e-02 6.319589e-03 3.284080e-03 3.900548e-03 1.089444e-03 4.746068e-03 1.854102e-03 5.357367e-03 2.514824e-03 5.576472e-03 2.965107e-03 5.565516e-03 3.350446e-03 5.462161e-03 3.751999e-03 5.329748e-03 4.155536e-03 5.169205e-03 4.508286e-03 4.987403e-03 4.781410e-03 4.826142e-03 5.000444e-03 4.752750e-03 5.203695e-03 4.793283e-03 5.385328e-03 4.914900e-03 5.494148e-03 5.026590e-03 5.456949e-03 5.047420e-03 5.268639e-03 4.979833e-03 5.059346e-03 4.984693e-03 5.057700e-03 4.960830e-03 4.910096e-03 4.833618e-03 4.254301e-03 4.623757e-03 4.054479e-03 4.673381e-03 4.086715e-03 5.017150e-03 4.512405e-03 5.682265e-03 5.650558e-03 6.378277e-03 6.355399e-03 6.269546e-03 6.287381e-03 6.068392e-03 5.912792e-03 5.766129e-03 5.473580e-03 5.583983e-03 5.128425e-03 5.580085e-03 4.908749e-03 5.716916e-03 4.754901e-03 5.868166e-03 4.604783e-03 5.938112e-03 4.484296e-03 5.933336e-03 4.477554e-03 5.909604e-03 4.640430e-03 5.848546e-03 4.928199e-03 5.675724e-03 5.269835e-03 5.377998e-03 5.619547e-03 5.001428e-03 5.960007e-03 4.634705e-03 6.288820e-03 4.338592e-03 6.552564e-03 4.156261e-03 6.686607e-03 4.147380e-03 6.645734e-03 4.362165e-03 6.424381e-03 4.823276e-03 6.035096e-03 5.505519e-03 5.480160e-03 6.360126e-03 4.731685e-03 7.322887e-03 3.734465e-03 8.366451e-03 2.605350e-03 9.524465e-03 5.387027e-03 1.693381e-02 9.869009e-03 8.594619e-03 4.038515e-03 8.181211e-03 6.196041e-03 
3.748697e-03 6.453368e-04 4.016026e-03 3.304493e-03 4.981223e-03 1.056692e-02 8.207453e-03 4.905644e-03 2.291172e-03 5.536810e-03 5.586743e-03 1.136271e-02 1.739882e-02 1.700862e-02 7.911266e-03 5.474377e-03 4.048356e-03 2.340448e-03 5.125606e-03 7.978943e-03 1.757825e-02 1.687764e-02 1.000980e-02 6.183402e-03 3.840377e-03 2.599034e-03 1.568413e-03 1.628258e-03 5.730372e-04 1.564740e-03 8.988382e-05 1.552525e-03 2.953732e-04 1.442037e-03 5.709352e-04 1.248588e-03 8.068736e-04 1.023004e-03 1.020491e-03 8.182493e-04 1.220549e-03 6.686652e-04 1.394651e-03 5.807974e-04 1.519161e-03 5.563215e-04 1.597086e-03 6.156173e-04 1.672540e-03 7.999182e-04 1.828856e-03 1.159068e-03 2.140651e-03 1.693036e-03 2.580494e-03 2.310941e-03 3.090339e-03 2.931936e-03 3.298378e-03 3.162833e-03 3.267194e-03 3.321045e-03 2.702297e-03 3.540635e-03 2.361336e-03 3.409756e-03 2.133873e-03 3.229921e-03 2.989707e-03 2.247142e-03 1.962763e-03 5.482463e-04 5.821018e-04 5.958548e-04 2.954717e-04 1.110206e-03 4.627520e-04 1.141217e-03 4.424586e-04 1.030376e-03 3.795140e-04 8.998070e-04 2.781045e-04 7.981796e-04 1.760876e-04 7.734817e-04 1.046185e-04 8.060987e-04 1.250859e-04 8.038060e-04 2.507557e-04 7.094855e-04 4.013691e-04 5.546966e-04 5.805061e-04 4.234680e-04 8.157096e-04 4.214742e-04 1.094374e-03 5.558887e-04 1.356238e-03 7.398131e-04 1.540299e-03 8.808958e-04 1.609096e-03 9.053492e-04 1.536805e-03 7.825976e-04 1.313224e-03 6.010177e-04 9.752046e-04 7.361736e-04 7.726945e-04 1.321458e-03 1.134907e-03 2.106024e-03 1.795415e-03 2.943313e-03 2.338905e-03 3.754626e-03 2.245985e-03 5.167064e-03 3.597335e-03 3.212351e-03 4.113181e-03 1.339332e-03 3.962872e-03 9.007326e-04 
