# vtk DataFile Version 2.0
Comment goes here
ASCII

DATASET STRUCTURED_POINTS
FIELD FieldData 1
TIME 1 1 double
0.60000000
DIMENSIONS    128   16   1

ORIGIN    0.000   0.000   0.000
SPACING   0.0078125 0.015625   1.000

POINT_DATA   2048
SCALARS uMag double
LOOKUP_TABLE default

2.690984e-03 6.482200e-04 2.762384e-03 2.582406e-03 2.384294e-03 7.432977e-03 2.116601e-03 1.681578e-03 1.035434e-04 3.616168e-04 8.808147e-05 7.511026e-04 3.050997e-04 1.396447e-03 2.974281e-03 7.251550e-04 4.317275e-03 1.169944e-03 3.734725e-03 1.408271e-03 2.488560e-03 1.562754e-03 6.183290e-04 1.435673e-03 1.181893e-03 9.367356e-04 1.369832e-03 5.353403e-04 1.357370e-03 1.722512e-04 1.231086e-03 1.965102e-04 1.045363e-03 5.017031e-04 8.429969e-04 7.679475e-04 6.587665e-04 9.837221e-04 5.136407e-04 1.139544e-03 4.175527e-04 1.223179e-03 3.835508e-04 1.235170e-03 4.344866e-04 1.198231e-03 5.809216e-04 1.144430e-03 8.112825e-04 1.094550e-03 1.093252e-03 1.091883e-03 1.409916e-03 1.374615e-03 1.986472e-03 2.722236e-03 3.282755e-03 3.863614e-03 2.635049e-03 2.522167e-03 9.223579e-04 1.865379e-03 1.671187e-03 3.432143e-03 3.079701e-03 4.273857e-03 3.322350e-03 3.290844e-03 1.016365e-03 2.727564e-03 3.863698e-03 2.551038e-03 2.410014e-03 1.990113e-03 1.459241e-03 1.150584e-03 1.212740e-03 8.915209e-04 9.722072e-04 7.387014e-04 7.253308e-04 5.946407e-04 6.331072e-04 4.276818e-04 7.539734e-04 2.551268e-04 9.680908e-04 1.771676e-04 1.176405e-03 2.277932e-04 1.320053e-03 2.585288e-04 1.353047e-03 2.193890e-04 1.248295e-03 1.724628e-04 1.009457e-03 3.486128e-04 6.682993e-04 6.998420e-04 2.716104e-04 1.121637e-03 1.454090e-04 1.532098e-03 5.064899e-04 1.849081e-03 7.656914e-04 2.001391e-03 8.498175e-04 1.935047e-03 6.987984e-04 1.611893e-03 2.864795e-04 1.011873e-03 3.762329e-04 1.471387e-04 1.173626e-03 9.284339e-04 1.915933e-03 2.023741e-03 2.229986e-03 2.698050e-03 1.394959e-03 2.179412e-04 1.856103e-03 7.605860e-04 2.577240e-03 3.413893e-04 
2.345912e-03 6.267904e-04 2.977741e-03 2.203119e-03 5.318223e-03 8.628311e-03 6.073736e-03 2.058761e-03 1.959232e-03 7.277759e-04 3.638441e-03 1.121415e-03 7.018776e-03 2.680702e-03 5.767209e-03 1.579906e-03 5.098110e-03 1.350648e-03 4.492204e-03 2.492746e-03 4.598751e-03 4.319202e-03 1.856007e-03 1.686637e-03 1.411346e-03 5.506159e-04 1.044435e-03 2.221566e-05 7.550011e-04 2.641959e-04 5.250717e-04 3.288390e-04 4.119022e-04 3.189710e-04 4.722255e-04 2.990492e-04 6.037590e-04 3.243624e-04 7.009222e-04 3.846363e-04 7.619772e-04 4.082815e-04 8.099607e-04 3.607894e-04 8.461342e-04 2.660701e-04 8.546397e-04 2.200656e-04 9.340012e-04 4.558803e-04 1.355995e-03 1.212784e-03 2.475442e-03 3.040748e-03 5.266169e-03 6.717459e-03 6.953960e-03 5.987411e-03 5.571918e-03 5.805506e-03 4.713484e-03 5.830439e-03 5.862175e-03 4.782963e-03 3.321830e-03 2.150005e-03 2.184158e-03 5.926021e-03 1.330873e-02 1.090033e-02 1.400697e-03 3.643797e-03 8.538647e-04 3.034422e-03 1.528282e-03 1.957751e-03 5.618651e-04 1.140883e-03 7.454100e-04 8.278025e-04 6.414143e-04 6.014203e-04 4.164072e-04 5.115236e-04 1.905997e-04 6.402885e-04 8.239304e-05 8.617000e-04 1.783245e-04 1.026468e-03 2.757632e-04 1.089313e-03 2.871028e-04 1.058758e-03 1.685076e-04 9.418439e-04 1.648406e-04 7.245914e-04 5.113808e-04 4.358838e-04 9.088996e-04 3.472809e-04 1.299385e-03 6.381304e-04 1.660132e-03 9.078443e-04 1.944308e-03 1.027690e-03 2.065482e-03 9.704998e-04 1.964088e-03 7.553152e-04 1.635529e-03 6.167815e-04 1.207945e-03 1.139560e-03 1.042806e-03 2.150327e-03 1.381925e-03 3.332109e-03 1.753694e-03 4.293589e-03 2.985414e-03 3.253105e-03 3.579690e-03 1.136762e-03 2.539115e-03 2.236286e-04 
3.425814e-03 1.519280e-03 4.788046e-03 2.472009e-03 1.402142e-02 1.580524e-03 1.666591e-02 6.843291e-03 3.906926e-03 4.045178e-03 3.412432e-03 6.448588e-03 5.217891e-03 3.311646e-03 5.329451e-03 3.366994e-03 5.251972e-03 4.174598e-03 4.498679e-03 5.466481e-03 4.300955e-03 6.005711e-03 4.726713e-03 4.034662e-03 2.153749e-03 3.608319e-03 1.050656e-03 3.287598e-03 4.045183e-04 2.982162e-03 4.210278e-04 2.663038e-03 7.664017e-04 2.333022e-03 1.117595e-03 1.980759e-03 1.411717e-03 1.599763e-03 1.603440e-03 1.270738e-03 1.746800e-03 1.058186e-03 1.882167e-03 9.596362e-04 1.968376e-03 8.745344e-04 1.877827e-03 7.277846e-04 1.691392e-03 8.716164e-04 2.051577e-03 1.969419e-03 3.710053e-03 4.435659e-03 7.447930e-03 8.377402e-03 9.207762e-03 8.492693e-03 8.773522e-03 6.688254e-03 6.911133e-03 6.484668e-03 9.081188e-03 8.537945e-03 9.522374e-03 8.022734e-03 8.272440e-03 5.595348e-03 3.571395e-03 4.840738e-03 6.529342e-03 4.846908e-03 6.364970e-03 4.246275e-03 3.475268e-03 1.916023e-03 2.366989e-03 8.916746e-04 2.086739e-03 6.960337e-04 1.952313e-03 8.973322e-04 1.818311e-03 1.243363e-03 1.651878e-03 1.657781e-03 1.438112e-03 2.074602e-03 1.131293e-03 2.373989e-03 7.975043e-04 2.539674e-03 5.732627e-04 2.622878e-03 5.822560e-04 2.637134e-03 8.591745e-04 2.512651e-03 1.278424e-03 2.205640e-03 1.715803e-03 1.762319e-03 2.108517e-03 1.302690e-03 2.489825e-03 8.916652e-04 2.872397e-03 4.532934e-04 3.136763e-03 2.973939e-04 3.205217e-03 8.226818e-04 3.063393e-03 1.425881e-03 2.831133e-03 2.074564e-03 2.638532e-03 2.803818e-03 2.560022e-03 3.573531e-03 2.479790e-03 4.299373e-03 8.420492e-03 1.106342e-02 8.761720e-03 4.136155e-03 4.566832e-03 1.934564e-03 
1.616114e-03 2.884694e-03 1.311110e-03 7.604461e-03 1.340552e-02 1.477709e-02 8.959625e-03 2.408715e-03 3.870572e-03 2.215088e-03 4.783468e-03 3.421452e-03 7.053871e-03 2.068158e-03 5.693799e-03 1.367318e-03 4.768516e-03 1.588539e-03 4.193568e-03 2.657974e-03 3.740420e-03 4.373578e-03 2.468806e-03 2.656682e-03 1.214364e-03 2.099552e-03 1.080839e-03 1.880068e-03 1.147972e-03 1.828417e-03 1.206675e-03 1.805256e-03 1.192063e-03 1.732779e-03 1.136229e-03 1.520622e-03 1.107638e-03 1.203710e-03 9.492394e-04 9.108764e-04 6.546073e-04 6.566333e-04 4.280227e-04 3.698897e-04 4.253071e-04 1.611192e-04 3.761118e-04 7.850758e-04 2.693690e-04 1.349847e-03 6.072010e-04 2.066038e-03 1.693908e-03 3.677165e-03 4.106457e-03 7.046883e-03 6.909400e-03 7.641069e-03 7.493439e-03 6.664881e-03 7.261800e-03 6.777141e-03 6.700162e-03 4.575572e-03 4.737269e-03 3.875230e-03 4.244973e-03 5.570784e-03 6.702637e-03 8.644093e-03 6.177845e-03 6.904836e-03 6.299045e-03 4.423375e-03 4.650591e-03 2.888254e-03 2.394615e-03 1.767413e-03 1.047030e-03 1.249705e-03 4.219376e-04 1.029107e-03 6.563651e-04 9.615750e-04 9.847288e-04 9.587779e-04 1.079781e-03 1.075434e-03 8.609192e-04 1.154086e-03 5.425834e-04 1.076325e-03 2.601691e-04 1.078371e-03 1.488436e-04 1.317227e-03 5.130820e-04 1.564588e-03 1.003052e-03 1.694372e-03 1.375695e-03 1.710027e-03 1.450446e-03 1.670848e-03 1.173399e-03 1.468197e-03 8.300966e-04 9.472265e-04 6.657781e-04 3.800959e-04 9.720311e-04 9.991339e-04 1.617409e-03 1.908002e-03 2.441867e-03 2.744137e-03 3.174466e-03 3.463357e-03 3.521469e-03 3.751150e-03 2.979702e-03 2.011450e-03 3.296382e-03 2.736176e-02 3.599388e-03 8.303459e-03 4.131341e-03 2.898371e-03 
4.622079e-03 2.465691e-03 7.124475e-03 4.863248e-03 4.453659e-03 1.477140e-02 1.383203e-02 1.834980e-03 2.267561e-03 2.017124e-03 2.791982e-03 3.139401e-03 6.362013e-03 4.285105e-03 5.706849e-03 4.874035e-03 5.330646e-03 5.283108e-03 4.869338e-03 5.974411e-03 4.018207e-03 7.213062e-03 3.146863e-03 4.337764e-03 1.786763e-03 3.027954e-03 1.190596e-03 2.262000e-03 1.026941e-03 1.832753e-03 1.192244e-03 1.597485e-03 1.459017e-03 1.459944e-03 1.717403e-03 1.290877e-03 1.900182e-03 1.065136e-03 1.918892e-03 8.934341e-04 1.821275e-03 7.706704e-04 1.700816e-03 6.134314e-04 1.556170e-03 2.790565e-04 1.196005e-03 2.445804e-04 4.691807e-04 1.006189e-03 9.190171e-04 2.368757e-03 3.024370e-03 5.039217e-03 7.030247e-03 1.060974e-02 1.363511e-02 1.434518e-02 1.521595e-02 1.214846e-02 1.413140e-02 1.263767e-02 1.259042e-02 9.885054e-03 9.441657e-03 8.377547e-03 7.753919e-03 8.765339e-03 1.040531e-02 8.852776e-03 6.515127e-03 6.374755e-03 6.190542e-03 6.432369e-03 4.236258e-03 4.594591e-03 2.194820e-03 2.527270e-03 1.134779e-03 1.099952e-03 1.053032e-03 1.972126e-04 1.264269e-03 5.945410e-04 1.429499e-03 1.114296e-03 1.455338e-03 1.528068e-03 1.274563e-03 1.744212e-03 1.027925e-03 1.737135e-03 8.457763e-04 1.642123e-03 8.253175e-04 1.579776e-03 1.064821e-03 1.491982e-03 1.512135e-03 1.321707e-03 1.986804e-03 1.147866e-03 2.353631e-03 1.122422e-03 2.609882e-03 1.103172e-03 2.813122e-03 8.441401e-04 2.859863e-03 3.769579e-04 2.670062e-03 3.194659e-04 2.234093e-03 1.035278e-03 1.776113e-03 1.880720e-03 1.792572e-03 2.866422e-03 2.621933e-03 3.868907e-03 3.897025e-03 4.719004e-03 6.613928e-03 1.724662e-02 1.018807e-02 8.115271e-03 6.685552e-03 3.044261e-03 
7.385902e-03 7.100791e-03 9.074426e-03 9.932713e-03 1.240641e-02 1.035404e-02 1.348191e-02 4.159096e-03 6.486204e-03 3.724295e-03 6.058653e-03 5.837549e-03 6.884131e-03 5.875535e-03 6.424847e-03 6.038276e-03 6.259679e-03 6.235430e-03 6.054114e-03 6.420607e-03 5.847361e-03 6.814722e-03 5.807230e-03 6.974875e-03 5.060768e-03 7.119765e-03 4.879398e-03 7.068768e-03 4.898670e-03 6.955152e-03 5.055997e-03 6.796999e-03 5.291331e-03 6.603927e-03 5.563449e-03 6.375166e-03 5.807861e-03 6.099862e-03 5.985682e-03 5.826989e-03 6.115174e-03 5.607971e-03 6.199948e-03 5.445506e-03 6.196593e-03 5.257769e-03 5.989132e-03 4.914318e-03 5.526645e-03 4.411568e-03 5.045167e-03 4.194566e-03 5.583633e-03 6.015000e-03 9.193811e-03 9.278764e-03 5.754919e-03 2.543234e-03 4.126491e-03 3.101521e-03 4.463595e-03 4.922182e-03 5.712628e-03 7.789824e-03 6.801735e-03 7.995225e-03 9.636743e-03 9.890290e-03 1.374781e-02 1.410449e-02 1.529601e-02 1.752609e-02 1.888716e-02 1.561288e-02 1.033489e-02 7.061839e-03 4.456024e-03 3.035562e-03 2.747874e-03 2.318252e-03 3.647121e-03 3.390359e-03 4.567761e-03 4.417379e-03 5.104680e-03 5.236046e-03 5.347857e-03 5.873999e-03 5.373850e-03 6.317758e-03 5.277855e-03 6.601304e-03 5.192275e-03 6.774507e-03 5.210245e-03 6.855388e-03 5.356142e-03 6.811119e-03 5.590144e-03 6.615259e-03 5.875951e-03 6.296085e-03 6.190088e-03 5.930210e-03 6.537506e-03 5.608447e-03 6.881189e-03 5.350412e-03 7.124892e-03 5.177500e-03 7.201098e-03 5.125616e-03 7.063163e-03 5.231507e-03 6.717657e-03 5.531495e-03 6.167948e-03 6.014026e-03 5.385565e-03 6.660832e-03 4.355188e-03 7.410569e-03 4.783175e-03 1.015000e-02 1.263867e-02 8.323724e-03 8.441032e-03 6.661822e-03 
8.103184e-03 7.667323e-03 8.768035e-03 9.330669e-03 1.044705e-02 1.254474e-02 8.579110e-03 6.816905e-03 9.039351e-03 6.313254e-03 8.630751e-03 7.122443e-03 8.682519e-03 6.422497e-03 7.002568e-03 6.585178e-03 6.802234e-03 6.803490e-03 6.567702e-03 7.025953e-03 6.365781e-03 7.459303e-03 7.155492e-03 8.592894e-03 7.281176e-03 9.005157e-03 7.303806e-03 9.091987e-03 7.325285e-03 9.018957e-03 7.406625e-03 8.865218e-03 7.539360e-03 8.665299e-03 7.699509e-03 8.434631e-03 7.855315e-03 8.183049e-03 7.979618e-03 7.928486e-03 8.056632e-03 7.684570e-03 8.068100e-03 7.445764e-03 7.985486e-03 7.183975e-03 7.779471e-03 6.878697e-03 7.482016e-03 6.604854e-03 7.294305e-03 6.671621e-03 7.712953e-03 7.752908e-03 9.394523e-03 9.485953e-03 9.498233e-03 9.411316e-03 9.293744e-03 7.633380e-03 8.339904e-03 6.657600e-03 8.481829e-03 6.524325e-03 5.073739e-03 6.293141e-03 2.847059e-03 4.887294e-03 3.017430e-03 5.055035e-03 4.391353e-03 5.475789e-03 8.359767e-03 1.224682e-02 1.170445e-02 8.721961e-03 8.411646e-03 6.722059e-03 7.334007e-03 6.378489e-03 7.271331e-03 6.700736e-03 7.493320e-03 7.176676e-03 7.688208e-03 7.631243e-03 7.781066e-03 8.014856e-03 7.780976e-03 8.307611e-03 7.731410e-03 8.509620e-03 7.689324e-03 8.629595e-03 7.698219e-03 8.671373e-03 7.775946e-03 8.630185e-03 7.915794e-03 8.505997e-03 8.101746e-03 8.317434e-03 8.315845e-03 8.100153e-03 8.541105e-03 7.894361e-03 8.750252e-03 7.727549e-03 8.904538e-03 7.624429e-03 8.974501e-03 7.609531e-03 8.949074e-03 7.703125e-03 8.846418e-03 7.916360e-03 8.708755e-03 8.236434e-03 8.597692e-03 8.606692e-03 8.574185e-03 8.848758e-03 8.444109e-03 1.055635e-02 9.386738e-03 8.311037e-03 8.308782e-03 7.432087e-03 
8.398252e-03 8.464135e-03 8.638099e-03 8.986978e-03 8.994666e-03 9.489739e-03 8.728913e-03 8.421632e-03 8.571071e-03 8.377006e-03 8.382957e-03 8.986994e-03 7.109177e-03 6.321604e-03 6.562595e-03 6.353954e-03 6.456262e-03 6.435137e-03 6.367065e-03 6.536198e-03 6.325701e-03 6.695582e-03 7.489938e-03 7.491560e-03 7.093323e-03 7.987775e-03 7.061898e-03 8.351292e-03 7.134370e-03 8.522330e-03 7.258942e-03 8.549847e-03 7.416420e-03 8.483183e-03 7.590958e-03 8.359949e-03 7.763097e-03 8.208401e-03 7.916180e-03 8.055588e-03 8.041343e-03 7.923977e-03 8.133144e-03 7.826266e-03 8.190403e-03 7.770637e-03 8.232289e-03 7.790486e-03 8.341159e-03 7.994437e-03 8.694476e-03 8.574198e-03 9.502180e-03 9.697248e-03 1.071765e-02 1.067899e-02 1.099136e-02 1.021477e-02 1.057686e-02 1.039227e-02 1.084983e-02 1.079186e-02 9.659398e-03 1.186403e-02 9.840652e-03 1.165306e-02 1.022039e-02 1.030246e-02 1.047045e-02 9.193511e-03 8.090615e-03 7.701991e-03 1.037001e-02 9.868742e-03 9.993631e-03 8.663347e-03 8.798441e-03 7.690382e-03 7.984754e-03 7.231931e-03 7.632227e-03 7.245836e-03 7.569420e-03 7.504645e-03 7.598262e-03 7.833274e-03 7.618359e-03 8.141526e-03 7.604839e-03 8.387436e-03 7.574932e-03 8.557352e-03 7.563589e-03 8.649863e-03 7.600358e-03 8.664676e-03 7.697085e-03 8.600488e-03 7.847894e-03 8.463156e-03 8.038824e-03 8.273497e-03 8.253072e-03 8.066051e-03 8.471441e-03 7.879928e-03 8.666322e-03 7.746842e-03 8.804141e-03 7.693538e-03 8.859379e-03 7.744356e-03 8.823848e-03 7.919830e-03 8.714288e-03 8.229954e-03 8.569428e-03 8.655689e-03 8.442880e-03 9.124826e-03 8.400633e-03 9.487887e-03 8.491899e-03 9.498600e-03 8.800929e-03 8.731638e-03 8.493265e-03 8.342559e-03 
8.481230e-03 8.409080e-03 8.775947e-03 9.041272e-03 9.153946e-03 9.607263e-03 8.981845e-03 8.679415e-03 9.060841e-03 8.616034e-03 8.928907e-03 9.125496e-03 7.096396e-03 6.682483e-03 6.987529e-03 6.745128e-03 6.853005e-03 6.866246e-03 6.723054e-03 6.997139e-03 6.649650e-03 7.093923e-03 7.575111e-03 7.634559e-03 7.109113e-03 8.100130e-03 7.139403e-03 8.452001e-03 7.264417e-03 8.599026e-03 7.402949e-03 8.595483e-03 7.546916e-03 8.502581e-03 7.696150e-03 8.367027e-03 7.846050e-03 8.222104e-03 7.989668e-03 8.093461e-03 8.123308e-03 8.003807e-03 8.251404e-03 7.976795e-03 8.393082e-03 8.046093e-03 8.596830e-03 8.274973e-03 8.962817e-03 8.777635e-03 9.651212e-03 9.709683e-03 1.083654e-02 1.118883e-02 1.254170e-02 1.297391e-02 1.432207e-02 1.376777e-02 1.370859e-02 1.286790e-02 1.296273e-02 1.288520e-02 1.207671e-02 1.213090e-02 1.145680e-02 1.130056e-02 1.099842e-02 1.085597e-02 1.045191e-02 1.178507e-02 1.187524e-02 1.060861e-02 1.331584e-02 1.325919e-02 1.359116e-02 1.212127e-02 1.214534e-02 1.063844e-02 1.068017e-02 9.472476e-03 9.603545e-03 8.798829e-03 8.922237e-03 8.504150e-03 8.505214e-03 8.428368e-03 8.237103e-03 8.453274e-03 8.053333e-03 8.507391e-03 7.929637e-03 8.550975e-03 7.863339e-03 8.562488e-03 7.857199e-03 8.530187e-03 7.909866e-03 8.449436e-03 8.013281e-03 8.323866e-03 8.154387e-03 8.167018e-03 8.317289e-03 8.000940e-03 8.483681e-03 7.851638e-03 8.633042e-03 7.744395e-03 8.745396e-03 7.701428e-03 8.807131e-03 7.741089e-03 8.817606e-03 7.876086e-03 8.792998e-03 8.107776e-03 8.762523e-03 8.413637e-03 8.750900e-03 8.730902e-03 8.750096e-03 8.971341e-03 8.714777e-03 9.098955e-03 8.670605e-03 8.535921e-03 8.468913e-03 8.221241e-03 
8.401013e-03 8.464928e-03 8.641780e-03 8.985832e-03 8.999058e-03 9.487330e-03 8.731195e-03 8.418777e-03 8.572754e-03 8.375007e-03 8.383964e-03 8.989195e-03 7.101257e-03 6.321182e-03 6.561373e-03 6.353521e-03 6.455289e-03 6.434277e-03 6.367019e-03 6.534850e-03 6.327337e-03 6.702251e-03 7.498879e-03 7.480056e-03 7.116801e-03 7.965994e-03 7.099010e-03 8.320507e-03 7.181324e-03 8.486357e-03 7.309791e-03 8.515469e-03 7.467113e-03 8.461785e-03 7.642386e-03 8.369530e-03 7.825412e-03 8.273176e-03 8.005858e-03 8.199560e-03 8.179985e-03 8.176708e-03 8.358285e-03 8.235067e-03 8.565003e-03 8.409820e-03 8.846755e-03 8.754629e-03 9.285758e-03 9.352687e-03 9.999334e-03 1.030425e-02 1.110429e-02 1.166945e-02 1.260875e-02 1.344601e-02 1.484907e-02 1.490131e-02 1.462113e-02 1.466187e-02 1.453543e-02 1.462428e-02 1.441418e-02 1.525206e-02 1.466485e-02 1.558060e-02 1.464099e-02 1.507906e-02 1.409015e-02 1.404386e-02 1.440728e-02 1.294469e-02 1.548483e-02 1.440616e-02 1.425921e-02 1.290435e-02 1.269223e-02 1.138567e-02 1.119738e-02 1.018646e-02 1.003774e-02 9.423638e-03 9.219244e-03 9.020058e-03 8.659586e-03 8.850931e-03 8.273803e-03 8.805833e-03 8.006751e-03 8.808879e-03 7.834053e-03 8.812927e-03 7.748964e-03 8.790139e-03 7.748782e-03 8.723304e-03 7.825241e-03 8.604251e-03 7.963304e-03 8.435270e-03 8.142731e-03 8.231885e-03 8.342586e-03 8.021595e-03 8.539461e-03 7.836657e-03 8.708236e-03 7.710784e-03 8.824247e-03 7.672002e-03 8.865587e-03 7.741432e-03 8.823277e-03 7.933021e-03 8.707674e-03 8.249819e-03 8.555108e-03 8.675192e-03 8.423562e-03 9.142722e-03 8.382416e-03 9.504339e-03 8.479552e-03 9.508642e-03 8.798206e-03 8.737245e-03 8.494409e-03 8.345447e-03 
8.109358e-03 7.669230e-03 8.775872e-03 9.329004e-03 1.045740e-02 1.253834e-02 8.586662e-03 6.810749e-03 9.045229e-03 6.307609e-03 8.633973e-03 7.124463e-03 8.670511e-03 6.422907e-03 6.998670e-03 6.586091e-03 6.797270e-03 6.802473e-03 6.566448e-03 7.019601e-03 6.373948e-03 7.482188e-03 7.168678e-03 8.560434e-03 7.325399e-03 8.961175e-03 7.378279e-03 9.037496e-03 7.424974e-03 8.960270e-03 7.521094e-03 8.815423e-03 7.660873e-03 8.647972e-03 7.829367e-03 8.487965e-03 8.013996e-03 8.358326e-03 8.201893e-03 8.275327e-03 8.387119e-03 8.261499e-03 8.580957e-03 8.341680e-03 8.802314e-03 8.536600e-03 9.079152e-03 8.870684e-03 9.453320e-03 9.374535e-03 9.971904e-03 1.006530e-02 1.063878e-02 1.088001e-02 1.129709e-02 1.167247e-02 1.126942e-02 1.194044e-02 1.229573e-02 1.248283e-02 1.363862e-02 1.358982e-02 1.366032e-02 1.363607e-02 1.407865e-02 1.410615e-02 1.544688e-02 1.511534e-02 1.684829e-02 1.743511e-02 1.888319e-02 1.805267e-02 1.890094e-02 1.678992e-02 1.617406e-02 1.446212e-02 1.411583e-02 1.250605e-02 1.231948e-02 1.102596e-02 1.093011e-02 1.004870e-02 9.915572e-03 9.472794e-03 9.194227e-03 9.167773e-03 8.682673e-03 9.017775e-03 8.324285e-03 8.942913e-03 8.089876e-03 8.891826e-03 7.965495e-03 8.833254e-03 7.941304e-03 8.745278e-03 8.002231e-03 8.614685e-03 8.128354e-03 8.438331e-03 8.295485e-03 8.227443e-03 8.482350e-03 8.006469e-03 8.666659e-03 7.804299e-03 8.826352e-03 7.654242e-03 8.940803e-03 7.582195e-03 8.986677e-03 7.605241e-03 8.950775e-03 7.731297e-03 8.837347e-03 7.957785e-03 8.684351e-03 8.276318e-03 8.563171e-03 8.642631e-03 8.540186e-03 8.882857e-03 8.417811e-03 1.057461e-02 9.383537e-03 8.319345e-03 8.312259e-03 7.437045e-03 
7.394658e-03 7.101952e-03 9.082106e-03 9.928850e-03 1.241712e-02 1.034732e-02 1.347878e-02 4.145233e-03 6.490899e-03 3.727275e-03 6.059194e-03 5.860615e-03 6.869848e-03 5.874598e-03 6.420410e-03 6.038427e-03 6.253909e-03 6.232151e-03 6.050297e-03 6.409947e-03 5.854157e-03 6.832823e-03 5.773664e-03 6.923728e-03 5.113087e-03 7.031025e-03 4.991104e-03 6.948903e-03 5.046779e-03 6.806610e-03 5.202145e-03 6.628038e-03 5.405423e-03 6.435932e-03 5.624228e-03 6.258101e-03 5.849034e-03 6.121403e-03 6.050441e-03 6.017705e-03 6.203158e-03 5.977679e-03 6.339858e-03 6.037887e-03 6.473273e-03 6.189942e-03 6.596692e-03 6.410990e-03 6.709162e-03 6.691885e-03 6.840841e-03 7.037155e-03 6.981228e-03 7.371940e-03 7.001407e-03 7.318778e-03 5.748112e-03 7.092671e-03 7.287584e-03 7.450790e-03 8.441214e-03 8.619409e-03 9.628684e-03 9.770791e-03 1.120431e-02 1.123861e-02 1.321481e-02 1.348929e-02 1.461005e-02 1.522939e-02 1.694810e-02 1.914042e-02 1.738159e-02 1.522114e-02 1.441262e-02 1.256490e-02 1.204765e-02 1.046126e-02 1.016061e-02 8.989016e-03 8.732154e-03 8.049936e-03 7.674532e-03 7.532990e-03 6.921157e-03 7.300762e-03 6.367086e-03 7.199645e-03 5.952645e-03 7.147887e-03 5.672283e-03 7.098618e-03 5.534775e-03 7.030529e-03 5.545303e-03 6.915658e-03 5.680858e-03 6.732425e-03 5.909195e-03 6.467119e-03 6.181003e-03 6.134532e-03 6.472729e-03 5.783469e-03 6.751342e-03 5.453267e-03 6.985681e-03 5.211057e-03 7.153186e-03 5.095398e-03 7.194404e-03 5.126498e-03 7.064397e-03 5.309148e-03 6.710604e-03 5.619984e-03 6.119681e-03 6.075499e-03 5.310197e-03 6.707416e-03 4.288452e-03 7.469141e-03 4.742098e-03 1.018347e-02 1.266176e-02 8.329757e-03 8.452246e-03 6.665963e-03 
4.634206e-03 2.470089e-03 7.124466e-03 4.875822e-03 4.466390e-03 1.478349e-02 1.381783e-02 1.811232e-03 2.280884e-03 2.047652e-03 2.808754e-03 3.166378e-03 6.381777e-03 4.282582e-03 5.700820e-03 4.877866e-03 5.305028e-03 5.284845e-03 4.848230e-03 5.940288e-03 4.054472e-03 7.055168e-03 3.065439e-03 4.166254e-03 1.795437e-03 2.854948e-03 1.308731e-03 2.098519e-03 1.219880e-03 1.652339e-03 1.363049e-03 1.371760e-03 1.556855e-03 1.181146e-03 1.715957e-03 1.055987e-03 1.837111e-03 9.446790e-04 1.916810e-03 8.340455e-04 1.919015e-03 8.292819e-04 1.903040e-03 9.452250e-04 1.894789e-03 1.155476e-03 1.867991e-03 1.416851e-03 1.814420e-03 1.690870e-03 1.795646e-03 2.009986e-03 1.854649e-03 2.372109e-03 1.975684e-03 2.750687e-03 2.036095e-03 3.128364e-03 2.661248e-03 3.337759e-03 3.099984e-03 3.796933e-03 3.874728e-03 4.494022e-03 4.761628e-03 4.856664e-03 5.338156e-03 4.921818e-03 5.096935e-03 4.189628e-03 5.208798e-03 5.117055e-03 5.453455e-03 4.238538e-03 4.761103e-03 3.434090e-03 3.949856e-03 2.746007e-03 3.215264e-03 2.298254e-03 2.597311e-03 2.049801e-03 2.115717e-03 1.954530e-03 1.758271e-03 1.982645e-03 1.404516e-03 2.014171e-03 1.074262e-03 1.994593e-03 8.398091e-04 1.928045e-03 7.956094e-04 1.849944e-03 9.804233e-04 1.754712e-03 1.327883e-03 1.620241e-03 1.759802e-03 1.415045e-03 2.176999e-03 1.202953e-03 2.514435e-03 1.014469e-03 2.752518e-03 8.453953e-04 2.851512e-03 6.462293e-04 2.833430e-03 2.933688e-04 2.655838e-03 4.107250e-04 2.309953e-03 1.171864e-03 1.859351e-03 2.053660e-03 1.819887e-03 2.962033e-03 2.692951e-03 3.875014e-03 3.982180e-03 4.722636e-03 6.587120e-03 1.741771e-02 1.024459e-02 8.132479e-03 6.710341e-03 3.048034e-03 
1.622590e-03 2.881613e-03 1.315326e-03 7.600171e-03 1.341265e-02 1.475719e-02 8.987897e-03 2.433140e-03 3.887294e-03 2.245665e-03 4.791558e-03 3.429355e-03 7.066422e-03 2.129801e-03 5.699919e-03 1.406875e-03 4.740352e-03 1.575635e-03 4.088430e-03 2.593411e-03 3.498179e-03 4.346050e-03 2.541336e-03 2.645624e-03 1.290602e-03 2.121240e-03 1.108600e-03 1.905770e-03 1.116152e-03 1.798624e-03 1.106005e-03 1.694256e-03 1.005510e-03 1.551066e-03 8.104793e-04 1.380681e-03 5.499171e-04 1.162753e-03 3.909737e-04 9.234333e-04 3.311467e-04 7.538984e-04 4.675563e-04 6.522895e-04 6.807033e-04 6.287225e-04 8.330095e-04 6.773916e-04 9.332888e-04 6.703054e-04 1.030734e-03 5.937131e-04 1.096633e-03 5.696980e-04 1.085752e-03 5.727368e-04 9.041539e-04 5.763737e-04 1.272891e-03 6.871386e-04 1.516809e-03 1.034760e-03 1.858768e-03 1.549638e-03 2.211440e-03 1.988973e-03 2.410740e-03 2.349844e-03 2.169632e-03 2.106670e-03 2.357295e-03 2.879681e-03 2.566383e-03 2.335486e-03 2.153615e-03 1.900074e-03 1.722367e-03 1.564381e-03 1.386428e-03 1.400329e-03 1.151949e-03 1.309730e-03 1.043870e-03 1.183497e-03 9.729586e-04 1.131010e-03 7.527087e-04 1.091658e-03 4.655051e-04 1.023034e-03 2.198285e-04 1.017169e-03 3.216476e-04 1.179314e-03 6.284599e-04 1.432805e-03 9.580998e-04 1.649145e-03 1.265139e-03 1.720694e-03 1.458889e-03 1.673633e-03 1.431904e-03 1.471288e-03 1.227125e-03 1.114634e-03 8.346341e-04 6.495953e-04 6.800842e-04 3.653260e-04 1.151163e-03 1.059867e-03 1.854998e-03 2.004383e-03 2.529134e-03 2.912204e-03 3.150924e-03 3.568484e-03 3.511229e-03 3.715589e-03 3.026265e-03 1.916523e-03 3.321862e-03 2.757320e-02 3.598075e-03 8.346065e-03 4.143178e-03 2.907885e-03 
3.430352e-03 1.517039e-03 4.790197e-03 2.464008e-03 1.401415e-02 1.600416e-03 1.668919e-02 6.857470e-03 3.925321e-03 4.074681e-03 3.414384e-03 6.486336e-03 5.203092e-03 3.321934e-03 5.300409e-03 3.434511e-03 5.173819e-03 4.295994e-03 4.433494e-03 5.550379e-03 4.248693e-03 6.014116e-03 4.595481e-03 3.994584e-03 2.079395e-03 3.542241e-03 1.048316e-03 3.191428e-03 5.103813e-04 2.844352e-03 5.428383e-04 2.484115e-03 8.167266e-04 2.127323e-03 1.100508e-03 1.807368e-03 1.378373e-03 1.552055e-03 1.615175e-03 1.351298e-03 1.772056e-03 1.243762e-03 1.891010e-03 1.260764e-03 1.975949e-03 1.374528e-03 2.005116e-03 1.538367e-03 1.985285e-03 1.737747e-03 2.007019e-03 2.056665e-03 2.169494e-03 2.548677e-03 2.499749e-03 3.192676e-03 3.015842e-03 3.837701e-03 3.433249e-03 4.064753e-03 3.695018e-03 4.312646e-03 4.212569e-03 4.765465e-03 4.751664e-03 5.049651e-03 5.076572e-03 4.985365e-03 4.927252e-03 4.483549e-03 4.738403e-03 4.290743e-03 4.533327e-03 3.794695e-03 4.255872e-03 3.270580e-03 3.826644e-03 2.780308e-03 3.300463e-03 2.447052e-03 2.751612e-03 2.294161e-03 2.245450e-03 2.322091e-03 1.815682e-03 2.470279e-03 1.402994e-03 2.617564e-03 1.027683e-03 2.714106e-03 7.675711e-04 2.745913e-03 7.188702e-04 2.721439e-03 8.978383e-04 2.619608e-03 1.217260e-03 2.415451e-03 1.613130e-03 2.083586e-03 2.015003e-03 1.653596e-03 2.390105e-03 1.177280e-03 2.720330e-03 6.888150e-04 2.978654e-03 2.444186e-04 3.165519e-03 3.300067e-04 3.222540e-03 8.807348e-04 3.125525e-03 1.530827e-03 2.874622e-03 2.209344e-03 2.635301e-03 2.888083e-03 2.596590e-03 3.606186e-03 2.572863e-03 4.353891e-03 8.422901e-03 1.114312e-02 8.799954e-03 4.155848e-03 4.578995e-03 1.939953e-03 
2.346934e-03 6.272110e-04 2.976282e-03 2.206248e-03 5.309765e-03 8.629900e-03 6.086832e-03 2.067623e-03 1.966248e-03 7.376361e-04 3.646900e-03 1.134640e-03 7.039916e-03 2.659429e-03 5.779197e-03 1.510961e-03 5.124372e-03 1.370960e-03 4.494040e-03 2.472127e-03 4.607530e-03 4.353834e-03 1.849017e-03 1.676743e-03 1.401287e-03 5.698794e-04 9.966287e-04 3.219976e-05 6.645312e-04 1.819353e-04 3.803824e-04 1.955394e-04 2.118454e-04 1.268162e-04 3.271510e-04 8.870145e-05 5.356152e-04 1.359378e-04 7.153131e-04 1.922286e-04 8.401687e-04 2.080984e-04 9.328885e-04 2.032912e-04 1.007956e-03 3.131501e-04 1.078053e-03 5.699837e-04 1.185157e-03 9.565987e-04 1.423815e-03 1.532138e-03 1.901183e-03 2.351250e-03 2.669160e-03 3.382763e-03 3.641341e-03 4.172406e-03 3.589809e-03 4.073624e-03 3.308521e-03 3.688128e-03 3.087599e-03 3.158986e-03 2.376322e-03 2.410918e-03 1.778442e-03 2.154708e-03 2.215962e-03 1.914362e-03 1.229541e-03 5.184215e-04 1.259609e-03 4.222811e-04 1.267779e-03 3.829295e-04 1.298875e-03 2.934664e-04 1.179016e-03 1.812482e-04 9.675973e-04 2.331067e-04 7.274507e-04 4.447881e-04 4.960824e-04 6.983693e-04 2.881286e-04 9.202310e-04 2.021816e-04 1.072849e-03 2.705605e-04 1.139870e-03 3.226747e-04 1.119679e-03 3.332779e-04 1.007244e-03 4.282781e-04 8.105909e-04 6.878883e-04 5.822120e-04 1.038151e-03 5.096799e-04 1.408795e-03 6.991242e-04 1.742028e-03 9.411585e-04 1.980585e-03 1.069745e-03 2.076547e-03 1.018013e-03 1.977715e-03 8.035787e-04 1.678547e-03 6.974581e-04 1.267941e-03 1.213052e-03 1.100552e-03 2.181232e-03 1.438247e-03 3.340840e-03 1.792513e-03 4.310265e-03 2.971024e-03 3.277395e-03 3.596341e-03 1.145548e-03 2.543695e-03 2.270817e-04 
