# vtk DataFile Version 2.0
Comment goes here
ASCII

DATASET STRUCTURED_POINTS
FIELD FieldData 1
TIME 1 1 double
0.82000000
DIMENSIONS    128   16   1

ORIGIN    0.000   0.000   0.000
SPACING   0.0078125 0.015625   1.000

POINT_DATA   2048
SCALARS uMag double
LOOKUP_TABLE default

7.633665e-03 3.714978e-03 6.470693e-03 8.420745e-04 4.885559e-03 2.094536e-03 1.099127e-02 1.185469e-03 5.331590e-03 4.471487e-03 3.160947e-03 1.370684e-02 2.111996e-02 3.704122e-02 4.591303e-02 4.836991e-02 5.290634e-02 5.100310e-02 5.009188e-02 4.425673e-02 3.815670e-02 1.948622e-02 1.380029e-02 3.838075e-03 3.427683e-03 2.443435e-03 9.279896e-04 4.994368e-03 2.771134e-03 5.940118e-03 3.586923e-03 6.180258e-03 3.990653e-03 6.099152e-03 4.238892e-03 5.867713e-03 4.433073e-03 5.573136e-03 4.608559e-03 5.267645e-03 4.769511e-03 4.984133e-03 4.904934e-03 4.746530e-03 5.003509e-03 4.582634e-03 5.065397e-03 4.529036e-03 5.103161e-03 4.617466e-03 5.121788e-03 4.812071e-03 5.034025e-03 4.818890e-03 4.404446e-03 3.770239e-03 2.457423e-03 1.896631e-03 1.575947e-03 1.666158e-03 5.076509e-03 5.326950e-03 4.457742e-03 3.745389e-03 5.269614e-03 5.316244e-03 6.764513e-03 7.588338e-03 6.907248e-03 1.004955e-02 8.536041e-03 1.002662e-02 9.994167e-03 7.976576e-03 6.360292e-03 6.236911e-03 5.322282e-03 5.416477e-03 4.561467e-03 4.815597e-03 4.032503e-03 4.454278e-03 3.753168e-03 4.236644e-03 3.660820e-03 4.070478e-03 3.693501e-03 3.901020e-03 3.805879e-03 3.702556e-03 3.965447e-03 3.473007e-03 4.148560e-03 3.230550e-03 4.335069e-03 3.004733e-03 4.499590e-03 2.826678e-03 4.607069e-03 2.725924e-03 4.619776e-03 2.731897e-03 4.507705e-03 2.871674e-03 4.253596e-03 3.163009e-03 3.853834e-03 3.606482e-03 3.322120e-03 4.181579e-03 2.697568e-03 4.847929e-03 2.053877e-03 5.548962e-03 1.509250e-03 6.215494e-03 1.247349e-03 6.766543e-03 1.573770e-03 7.088364e-03 3.058045e-03 6.897405e-03 7.016144e-03 1.027315e-03 5.972389e-03 2.861208e-03 7.299896e-03 4.357766e-03 
3.336534e-03 1.181483e-03 3.383198e-03 3.164761e-03 3.298932e-03 9.342779e-03 8.725864e-03 6.189307e-03 5.244885e-03 8.606825e-03 9.232319e-03 1.800203e-02 2.392938e-02 2.481477e-02 1.140000e-02 7.470374e-03 2.755265e-03 4.498682e-03 6.748948e-03 1.223797e-02 2.497944e-02 2.453538e-02 1.572587e-02 1.045481e-02 6.260725e-03 4.582299e-03 2.465968e-03 2.637714e-03 8.156901e-04 2.237560e-03 2.234567e-04 2.147447e-03 4.690818e-04 2.017804e-03 7.203993e-04 1.819466e-03 9.358274e-04 1.582847e-03 1.145681e-03 1.345347e-03 1.358512e-03 1.139795e-03 1.563687e-03 1.001413e-03 1.740602e-03 9.786754e-04 1.865707e-03 1.133315e-03 1.925810e-03 1.540593e-03 1.941896e-03 2.357023e-03 2.233525e-03 3.988905e-03 4.322876e-03 8.640436e-03 1.139349e-02 1.218216e-02 9.253944e-03 1.088281e-02 1.250860e-02 4.161725e-03 7.803759e-03 5.117832e-03 5.392770e-03 3.174666e-03 8.213829e-03 6.227528e-03 1.261342e-02 1.752545e-02 9.653142e-03 1.285360e-02 1.351688e-02 1.347916e-02 8.199164e-03 5.405261e-03 3.613644e-03 2.342992e-03 2.035030e-03 9.641476e-04 1.310679e-03 2.994667e-04 9.087068e-04 7.787865e-05 6.401648e-04 2.217701e-04 4.539240e-04 3.095472e-04 3.802507e-04 3.902414e-04 4.442563e-04 5.243491e-04 5.756828e-04 7.174518e-04 7.223405e-04 9.143817e-04 8.706189e-04 1.064909e-03 9.872956e-04 1.146274e-03 1.022819e-03 1.148690e-03 9.410534e-04 1.056523e-03 7.579436e-04 8.586525e-04 5.882121e-04 6.447840e-04 6.914572e-04 7.622312e-04 1.104353e-03 1.278112e-03 1.640158e-03 1.934778e-03 2.137860e-03 2.620692e-03 2.416601e-03 3.304693e-03 2.218752e-03 4.029050e-03 1.148282e-03 5.209261e-03 6.323062e-03 6.182500e-03 2.705880e-03 1.797712e-03 3.554313e-03 6.979972e-04 
1.083338e-02 8.783844e-03 9.238793e-03 6.746470e-03 9.862480e-03 2.527900e-02 9.634798e-03 1.439672e-02 3.029659e-03 1.028549e-02 1.685348e-03 1.077731e-02 1.167815e-02 1.782015e-02 2.166318e-02 2.190867e-02 2.321909e-02 2.361697e-02 2.146568e-02 2.125112e-02 1.833966e-02 1.009325e-02 5.059858e-03 2.648245e-03 5.370446e-03 4.417640e-03 7.765626e-03 6.102977e-03 8.998443e-03 6.935739e-03 9.558203e-03 7.396236e-03 9.776442e-03 7.732058e-03 9.812237e-03 8.030728e-03 9.731575e-03 8.306983e-03 9.565578e-03 8.544898e-03 9.334070e-03 8.726781e-03 9.058066e-03 8.838878e-03 8.753425e-03 8.871028e-03 8.415765e-03 8.786592e-03 7.985247e-03 8.546662e-03 7.439474e-03 8.354322e-03 7.223759e-03 9.442856e-03 9.951239e-03 1.644345e-02 1.902172e-02 6.678752e-03 1.025780e-02 8.232080e-03 1.300528e-02 6.564585e-03 5.206421e-03 2.829048e-03 7.548655e-03 6.678403e-03 1.303764e-02 1.667799e-02 2.065467e-02 3.127327e-02 3.025897e-02 3.231530e-02 3.358419e-02 3.035443e-02 2.531754e-02 1.896877e-02 1.745168e-02 1.396909e-02 1.393927e-02 1.176819e-02 1.221915e-02 1.081603e-02 1.134454e-02 1.044823e-02 1.084827e-02 1.035056e-02 1.050122e-02 1.038662e-02 1.021690e-02 1.051217e-02 9.977278e-03 1.071595e-02 9.786167e-03 1.097116e-02 9.617109e-03 1.120390e-02 9.444415e-03 1.136302e-02 9.299328e-03 1.144453e-02 9.244688e-03 1.146296e-02 9.339121e-03 1.140730e-02 9.592252e-03 1.122544e-02 9.977336e-03 1.088005e-02 1.046633e-02 1.039055e-02 1.105539e-02 9.829171e-03 1.174512e-02 9.258445e-03 1.250029e-02 8.754298e-03 1.328358e-02 8.482700e-03 1.407498e-02 8.898709e-03 1.490277e-02 1.180524e-02 2.415616e-02 1.386324e-02 1.001358e-02 4.667247e-03 1.036089e-02 8.902070e-03 
9.786897e-03 1.291503e-02 1.765088e-02 2.574234e-02 3.621779e-02 1.526889e-02 2.825877e-02 2.051266e-02 2.352084e-02 2.122998e-02 2.131217e-02 2.171210e-02 1.853787e-02 2.403749e-02 2.181895e-02 2.614219e-02 2.271347e-02 2.665329e-02 2.234577e-02 2.524691e-02 2.046220e-02 2.071293e-02 2.010006e-02 2.122990e-02 2.044668e-02 2.144963e-02 2.096902e-02 2.152716e-02 2.141015e-02 2.148166e-02 2.173137e-02 2.137331e-02 2.195284e-02 2.124665e-02 2.209011e-02 2.111920e-02 2.214554e-02 2.099215e-02 2.211389e-02 2.085482e-02 2.198658e-02 2.068945e-02 2.175189e-02 2.046826e-02 2.138826e-02 2.014622e-02 2.084987e-02 1.963614e-02 2.003574e-02 1.877437e-02 1.875778e-02 1.728186e-02 1.667468e-02 1.468217e-02 1.325688e-02 1.042448e-02 7.843000e-03 3.113473e-03 5.553233e-03 6.953761e-03 9.113962e-03 8.073140e-03 9.999159e-03 1.228520e-02 1.270557e-02 1.703026e-02 1.775349e-02 2.304299e-02 2.588776e-02 3.037470e-02 3.202141e-02 3.449426e-02 3.782749e-02 3.530612e-02 3.165176e-02 2.878173e-02 2.710213e-02 2.580446e-02 2.487582e-02 2.424944e-02 2.366938e-02 2.340782e-02 2.298133e-02 2.295029e-02 2.255935e-02 2.269830e-02 2.227734e-02 2.255589e-02 2.208161e-02 2.247758e-02 2.195104e-02 2.244399e-02 2.187175e-02 2.244317e-02 2.181626e-02 2.245220e-02 2.176157e-02 2.245994e-02 2.170385e-02 2.247785e-02 2.164722e-02 2.252776e-02 2.159715e-02 2.261728e-02 2.155125e-02 2.272850e-02 2.150373e-02 2.284281e-02 2.145127e-02 2.295822e-02 2.140249e-02 2.308100e-02 2.138998e-02 2.320058e-02 2.145886e-02 2.330700e-02 2.168814e-02 2.338879e-02 2.224955e-02 2.337451e-02 2.365211e-02 2.308407e-02 3.066058e-02 3.495609e-02 3.757479e-02 1.675434e-02 1.339317e-02 1.030713e-02 
3.289991e-02 3.689511e-02 3.893218e-02 4.916435e-02 5.924745e-02 5.559810e-02 2.738034e-02 3.907525e-02 2.677934e-02 3.410626e-02 2.495251e-02 2.901942e-02 1.844422e-02 2.255228e-02 2.142429e-02 2.233336e-02 2.240361e-02 2.208234e-02 2.267605e-02 2.162537e-02 2.231372e-02 2.035859e-02 2.763049e-02 2.640578e-02 3.092987e-02 2.940676e-02 3.250868e-02 3.095802e-02 3.322216e-02 3.179690e-02 3.346246e-02 3.230179e-02 3.345186e-02 3.266316e-02 3.330197e-02 3.294529e-02 3.305652e-02 3.315048e-02 3.272946e-02 3.324997e-02 3.231856e-02 3.320571e-02 3.181188e-02 3.296984e-02 3.117406e-02 3.247276e-02 3.031742e-02 3.156697e-02 2.902454e-02 2.995438e-02 2.688243e-02 2.710373e-02 2.311671e-02 2.202663e-02 1.621945e-02 1.246543e-02 2.971035e-03 5.774209e-03 2.423159e-03 3.926096e-03 1.044387e-02 1.401613e-02 1.402650e-02 1.760180e-02 1.691306e-02 2.369169e-02 2.363114e-02 3.359607e-02 3.687279e-02 4.751836e-02 5.529506e-02 6.038810e-02 6.847220e-02 5.696062e-02 5.294316e-02 4.592320e-02 4.447463e-02 4.058484e-02 4.006224e-02 3.775637e-02 3.764584e-02 3.625600e-02 3.628534e-02 3.547408e-02 3.546849e-02 3.507631e-02 3.491637e-02 3.489469e-02 3.450305e-02 3.486044e-02 3.418293e-02 3.494482e-02 3.394299e-02 3.510855e-02 3.374807e-02 3.526961e-02 3.356582e-02 3.537014e-02 3.342203e-02 3.539849e-02 3.337659e-02 3.536184e-02 3.348607e-02 3.524615e-02 3.375733e-02 3.500232e-02 3.416304e-02 3.459935e-02 3.468084e-02 3.406640e-02 3.531694e-02 3.349537e-02 3.607961e-02 3.298320e-02 3.694247e-02 3.264312e-02 3.788052e-02 3.265335e-02 3.886836e-02 3.336476e-02 3.972394e-02 3.568978e-02 3.981324e-02 6.953489e-02 5.112908e-02 4.362626e-02 3.476589e-02 3.560388e-02 
3.701737e-02 3.904187e-02 4.066979e-02 4.586166e-02 5.327872e-02 6.469739e-02 5.957259e-02 6.054877e-02 5.530258e-02 5.757957e-02 5.244969e-02 5.415770e-02 4.650259e-02 4.630097e-02 4.606386e-02 4.624351e-02 4.620816e-02 4.615694e-02 4.629413e-02 4.608369e-02 4.627620e-02 4.659202e-02 5.177364e-02 5.180770e-02 5.475289e-02 5.456237e-02 5.667386e-02 5.607140e-02 5.777487e-02 5.684367e-02 5.833434e-02 5.723760e-02 5.857023e-02 5.746175e-02 5.861108e-02 5.760522e-02 5.851777e-02 5.769275e-02 5.831663e-02 5.771588e-02 5.801734e-02 5.765650e-02 5.762598e-02 5.749291e-02 5.714445e-02 5.720168e-02 5.656392e-02 5.673745e-02 5.583684e-02 5.602724e-02 5.489812e-02 5.502060e-02 5.371762e-02 5.382920e-02 5.268929e-02 5.435681e-02 5.338807e-02 3.873789e-02 4.451034e-02 4.429267e-02 4.486767e-02 4.619196e-02 4.628828e-02 4.993333e-02 5.025515e-02 5.284868e-02 5.330407e-02 5.465475e-02 5.586863e-02 5.472902e-02 5.709227e-02 5.335842e-02 5.338916e-02 5.975568e-02 6.164148e-02 6.079728e-02 6.143199e-02 6.049145e-02 6.096341e-02 6.010480e-02 6.044419e-02 5.977436e-02 6.000890e-02 5.956582e-02 5.966565e-02 5.946226e-02 5.938044e-02 5.943761e-02 5.913700e-02 5.948233e-02 5.893680e-02 5.959306e-02 5.878517e-02 5.974956e-02 5.866036e-02 5.989800e-02 5.853531e-02 6.000310e-02 5.842385e-02 6.006395e-02 5.836606e-02 6.009176e-02 5.840062e-02 6.007924e-02 5.853062e-02 5.999041e-02 5.873693e-02 5.979897e-02 5.901054e-02 5.951999e-02 5.937064e-02 5.921452e-02 5.984045e-02 5.894835e-02 6.042094e-02 5.879593e-02 6.112452e-02 5.886579e-02 6.201189e-02 5.933271e-02 6.327994e-02 6.046539e-02 6.685801e-02 6.358117e-02 4.809926e-02 4.465138e-02 3.894766e-02 3.871496e-02 
4.766159e-02 4.960796e-02 4.929231e-02 5.282675e-02 5.393785e-02 5.983505e-02 6.267969e-02 6.390506e-02 6.211488e-02 6.469449e-02 6.279515e-02 6.651386e-02 6.493411e-02 6.345204e-02 6.315988e-02 6.337952e-02 6.333555e-02 6.327324e-02 6.344338e-02 6.317444e-02 6.343498e-02 6.443548e-02 6.478995e-02 6.313681e-02 6.338608e-02 6.255082e-02 6.313407e-02 6.240283e-02 6.315518e-02 6.237847e-02 6.321277e-02 6.239456e-02 6.323552e-02 6.242872e-02 6.320475e-02 6.246920e-02 6.311583e-02 6.250319e-02 6.296876e-02 6.251655e-02 6.276769e-02 6.249827e-02 6.252404e-02 6.244544e-02 6.226163e-02 6.237165e-02 6.202743e-02 6.232247e-02 6.191683e-02 6.241671e-02 6.214292e-02 6.294382e-02 6.319137e-02 6.457501e-02 6.624645e-02 6.941934e-02 7.563764e-02 8.013673e-02 7.668925e-02 7.706408e-02 7.416958e-02 7.301347e-02 7.236687e-02 6.837521e-02 6.977371e-02 6.510823e-02 6.778421e-02 6.359157e-02 6.516494e-02 6.415933e-02 6.191284e-02 5.981822e-02 5.668313e-02 6.182177e-02 6.418945e-02 6.601313e-02 6.663576e-02 6.672102e-02 6.668275e-02 6.627803e-02 6.604768e-02 6.563371e-02 6.534899e-02 6.510022e-02 6.476558e-02 6.473657e-02 6.431510e-02 6.452196e-02 6.397422e-02 6.442179e-02 6.371783e-02 6.440405e-02 6.352569e-02 6.443786e-02 6.337877e-02 6.449120e-02 6.326374e-02 6.454011e-02 6.318074e-02 6.457206e-02 6.313964e-02 6.458017e-02 6.315087e-02 6.455515e-02 6.321636e-02 6.448376e-02 6.333051e-02 6.435781e-02 6.348605e-02 6.418215e-02 6.367554e-02 6.397396e-02 6.388248e-02 6.375164e-02 6.406969e-02 6.352888e-02 6.417608e-02 6.331168e-02 6.412471e-02 6.309398e-02 6.390422e-02 6.281101e-02 6.422584e-02 5.816085e-02 5.395741e-02 5.206080e-02 4.913239e-02 4.933075e-02 
4.698302e-02 4.812495e-02 4.848305e-02 5.087256e-02 5.218896e-02 5.543824e-02 5.693406e-02 5.923184e-02 6.036214e-02 6.223658e-02 6.508631e-02 6.705667e-02 7.424460e-02 7.399967e-02 7.390277e-02 7.398373e-02 7.395529e-02 7.394971e-02 7.399127e-02 7.391103e-02 7.399744e-02 7.412674e-02 6.806004e-02 6.664281e-02 6.374316e-02 6.272375e-02 6.158378e-02 6.061977e-02 6.049906e-02 5.951138e-02 5.996423e-02 5.894634e-02 5.968975e-02 5.867949e-02 5.952531e-02 5.857684e-02 5.939559e-02 5.856185e-02 5.926535e-02 5.858838e-02 5.912178e-02 5.862846e-02 5.896580e-02 5.866656e-02 5.880713e-02 5.869740e-02 5.866263e-02 5.872755e-02 5.856037e-02 5.878830e-02 5.856167e-02 5.897414e-02 5.881957e-02 5.953818e-02 5.976525e-02 6.134087e-02 6.284558e-02 6.780727e-02 6.724155e-02 6.652140e-02 6.880016e-02 6.594430e-02 6.825385e-02 6.676134e-02 6.924480e-02 6.833401e-02 7.080081e-02 7.068131e-02 7.232624e-02 7.379217e-02 7.090313e-02 7.207479e-02 7.058029e-02 6.759551e-02 6.593581e-02 6.443770e-02 6.374305e-02 6.254535e-02 6.225048e-02 6.132916e-02 6.127031e-02 6.060297e-02 6.064333e-02 6.020412e-02 6.023649e-02 6.001249e-02 5.995701e-02 5.995018e-02 5.974976e-02 5.997003e-02 5.958589e-02 6.004165e-02 5.945112e-02 6.014018e-02 5.933738e-02 6.024167e-02 5.924262e-02 6.032685e-02 5.917369e-02 6.038277e-02 5.914293e-02 6.039959e-02 5.916139e-02 6.036655e-02 5.923256e-02 6.027183e-02 5.935174e-02 6.010757e-02 5.950743e-02 5.987311e-02 5.967957e-02 5.957181e-02 5.983114e-02 5.920044e-02 5.989723e-02 5.873823e-02 5.977569e-02 5.813385e-02 5.931255e-02 5.728257e-02 5.827152e-02 5.597446e-02 5.628468e-02 5.340817e-02 5.142056e-02 4.979357e-02 4.803687e-02 4.778635e-02 
5.179524e-02 5.310989e-02 5.282103e-02 5.517492e-02 5.576550e-02 5.868741e-02 6.010175e-02 6.222644e-02 6.347973e-02 6.522359e-02 6.799407e-02 6.957748e-02 7.708375e-02 7.728235e-02 7.714268e-02 7.724983e-02 7.721791e-02 7.719392e-02 7.727605e-02 7.713886e-02 7.729263e-02 7.709911e-02 7.119132e-02 7.000047e-02 6.732508e-02 6.635159e-02 6.530516e-02 6.440283e-02 6.428093e-02 6.341293e-02 6.379637e-02 6.294758e-02 6.357947e-02 6.276645e-02 6.348397e-02 6.274188e-02 6.343789e-02 6.280705e-02 6.341123e-02 6.292798e-02 6.339841e-02 6.308999e-02 6.340927e-02 6.329156e-02 6.346429e-02 6.354212e-02 6.359296e-02 6.386379e-02 6.383620e-02 6.429859e-02 6.425359e-02 6.492374e-02 6.493710e-02 6.587897e-02 6.602716e-02 6.745227e-02 6.776878e-02 7.021678e-02 6.909317e-02 6.935945e-02 6.991060e-02 6.872363e-02 6.921094e-02 6.929221e-02 6.983616e-02 6.928059e-02 7.007357e-02 6.896503e-02 7.018683e-02 6.840824e-02 6.769202e-02 6.763260e-02 6.475249e-02 6.389616e-02 6.298993e-02 6.310252e-02 6.294516e-02 6.309920e-02 6.316218e-02 6.325452e-02 6.336263e-02 6.341480e-02 6.348677e-02 6.354967e-02 6.353839e-02 6.366492e-02 6.353507e-02 6.377234e-02 6.349429e-02 6.388042e-02 6.343034e-02 6.399180e-02 6.335412e-02 6.410330e-02 6.327463e-02 6.420777e-02 6.320106e-02 6.429638e-02 6.314367e-02 6.435991e-02 6.311261e-02 6.438893e-02 6.311578e-02 6.437443e-02 6.315694e-02 6.430902e-02 6.323396e-02 6.418780e-02 6.333617e-02 6.400710e-02 6.344027e-02 6.376065e-02 6.350529e-02 6.343297e-02 6.346702e-02 6.298900e-02 6.323243e-02 6.235769e-02 6.267248e-02 6.139992e-02 6.159604e-02 5.983199e-02 5.964126e-02 5.707471e-02 5.569108e-02 5.431444e-02 5.281581e-02 5.284041e-02 
4.698479e-02 4.811707e-02 4.848206e-02 5.086990e-02 5.218642e-02 5.544038e-02 5.693244e-02 5.923255e-02 6.036192e-02 6.223682e-02 6.508638e-02 6.705765e-02 7.424367e-02 7.399952e-02 7.390296e-02 7.398415e-02 7.395519e-02 7.395086e-02 7.399108e-02 7.391253e-02 7.399781e-02 7.411600e-02 6.809322e-02 6.664641e-02 6.377286e-02 6.273993e-02 6.162964e-02 6.064801e-02 6.057438e-02 5.955282e-02 6.007902e-02 5.900507e-02 5.985271e-02 5.876487e-02 5.974810e-02 5.870598e-02 5.969494e-02 5.875828e-02 5.966244e-02 5.888030e-02 5.964175e-02 5.904723e-02 5.963565e-02 5.924200e-02 5.964741e-02 5.944483e-02 5.966980e-02 5.962524e-02 5.967703e-02 5.973356e-02 5.961193e-02 5.968488e-02 5.936709e-02 5.934312e-02 5.876843e-02 5.845647e-02 5.753271e-02 5.896087e-02 5.852212e-02 5.901150e-02 5.922261e-02 5.843062e-02 5.896147e-02 5.844978e-02 5.971720e-02 5.939825e-02 6.114580e-02 6.172896e-02 6.370795e-02 6.421387e-02 6.461725e-02 6.491771e-02 6.256129e-02 6.062590e-02 5.990149e-02 5.907053e-02 5.914266e-02 5.865627e-02 5.904671e-02 5.868460e-02 5.918667e-02 5.886856e-02 5.936357e-02 5.908238e-02 5.949700e-02 5.928471e-02 5.956587e-02 5.947087e-02 5.957465e-02 5.964705e-02 5.953626e-02 5.981720e-02 5.946395e-02 5.997931e-02 5.937215e-02 6.012827e-02 5.927835e-02 6.025625e-02 5.920051e-02 6.035178e-02 5.915396e-02 6.040010e-02 5.914973e-02 6.038731e-02 5.919624e-02 6.030559e-02 5.929790e-02 6.015304e-02 5.944893e-02 5.992925e-02 5.962605e-02 5.963121e-02 5.978549e-02 5.925202e-02 5.986062e-02 5.877354e-02 5.975180e-02 5.815049e-02 5.930750e-02 5.728252e-02 5.828734e-02 5.596025e-02 5.631332e-02 5.338516e-02 5.143503e-02 4.977301e-02 4.804326e-02 4.777231e-02 
4.766592e-02 4.959019e-02 4.929185e-02 5.281933e-02 5.393411e-02 5.984241e-02 6.267459e-02 6.390073e-02 6.211381e-02 6.468935e-02 6.279537e-02 6.651223e-02 6.493190e-02 6.344984e-02 6.316149e-02 6.337965e-02 6.333454e-02 6.327722e-02 6.344095e-02 6.317977e-02 6.343736e-02 6.440912e-02 6.485976e-02 6.314191e-02 6.346320e-02 6.259028e-02 6.325454e-02 6.247843e-02 6.334601e-02 6.249592e-02 6.349705e-02 6.256707e-02 6.363632e-02 6.268220e-02 6.375385e-02 6.284795e-02 6.385865e-02 6.306814e-02 6.396428e-02 6.334390e-02 6.408966e-02 6.367929e-02 6.425988e-02 6.408180e-02 6.449956e-02 6.455604e-02 6.482606e-02 6.510304e-02 6.525213e-02 6.572571e-02 6.578917e-02 6.643262e-02 6.645541e-02 6.726258e-02 6.737629e-02 6.842610e-02 6.809201e-02 6.830448e-02 6.698962e-02 6.693339e-02 6.576797e-02 6.536974e-02 6.515805e-02 6.535656e-02 6.453407e-02 6.429332e-02 6.301185e-02 6.227002e-02 5.987940e-02 5.777019e-02 5.554801e-02 5.389871e-02 5.517889e-02 5.598281e-02 5.674765e-02 5.750446e-02 5.838684e-02 5.908988e-02 5.993691e-02 6.044384e-02 6.118163e-02 6.148238e-02 6.208451e-02 6.223660e-02 6.268920e-02 6.277744e-02 6.306230e-02 6.317572e-02 6.326705e-02 6.348623e-02 6.335410e-02 6.374314e-02 6.335876e-02 6.396336e-02 6.330974e-02 6.415563e-02 6.323577e-02 6.432174e-02 6.316257e-02 6.445524e-02 6.310972e-02 6.454235e-02 6.309070e-02 6.456943e-02 6.311875e-02 6.453214e-02 6.320665e-02 6.443453e-02 6.335872e-02 6.428280e-02 6.356198e-02 6.408274e-02 6.378756e-02 6.384684e-02 6.399517e-02 6.359425e-02 6.412806e-02 6.334236e-02 6.411375e-02 6.309350e-02 6.393360e-02 6.278518e-02 6.428293e-02 5.811405e-02 5.398313e-02 5.201965e-02 4.914461e-02 4.930183e-02 
3.702018e-02 3.902229e-02 4.066715e-02 4.585578e-02 5.327045e-02 6.471682e-02 5.956539e-02 6.054614e-02 5.530639e-02 5.757418e-02 5.245360e-02 5.415314e-02 4.650443e-02 4.629868e-02 4.606531e-02 4.624413e-02 4.620719e-02 4.616181e-02 4.629136e-02 4.608967e-02 4.627863e-02 4.657447e-02 5.178590e-02 5.183321e-02 5.476730e-02 5.461554e-02 5.675545e-02 5.615032e-02 5.796107e-02 5.695076e-02 5.864646e-02 5.737928e-02 5.901789e-02 5.765853e-02 5.922333e-02 5.791636e-02 5.935241e-02 5.820055e-02 5.944782e-02 5.852181e-02 5.954579e-02 5.889573e-02 5.969941e-02 5.935406e-02 5.996348e-02 5.991976e-02 6.037761e-02 6.062268e-02 6.101065e-02 6.155160e-02 6.200501e-02 6.289435e-02 6.362260e-02 6.497465e-02 6.631783e-02 6.846693e-02 7.061538e-02 6.954798e-02 6.723050e-02 6.588849e-02 6.308268e-02 6.246171e-02 6.177453e-02 6.128183e-02 5.935193e-02 5.827587e-02 5.555690e-02 5.399625e-02 5.031967e-02 4.786137e-02 4.491276e-02 4.300018e-02 4.584666e-02 4.816707e-02 5.068474e-02 5.204771e-02 5.389963e-02 5.459074e-02 5.604193e-02 5.622285e-02 5.742213e-02 5.724955e-02 5.827761e-02 5.789639e-02 5.877459e-02 5.832182e-02 5.902939e-02 5.863302e-02 5.912313e-02 5.890002e-02 5.911204e-02 5.915250e-02 5.901754e-02 5.938708e-02 5.886189e-02 5.960887e-02 5.868863e-02 5.982125e-02 5.853833e-02 6.001044e-02 5.843547e-02 6.013820e-02 5.838493e-02 6.016546e-02 5.840586e-02 6.008852e-02 5.853695e-02 5.992954e-02 5.880827e-02 5.970735e-02 5.920838e-02 5.942648e-02 5.970653e-02 5.912707e-02 6.030191e-02 5.890341e-02 6.103201e-02 5.890303e-02 6.199194e-02 5.932288e-02 6.336303e-02 6.040598e-02 6.704921e-02 6.349940e-02 4.812056e-02 4.457967e-02 3.895619e-02 3.867616e-02 
3.290641e-02 3.686411e-02 3.893934e-02 4.913647e-02 5.926890e-02 5.559967e-02 2.738590e-02 3.906372e-02 2.680160e-02 3.409496e-02 2.496846e-02 2.900655e-02 1.845652e-02 2.254578e-02 2.143375e-02 2.233037e-02 2.239913e-02 2.209544e-02 2.265611e-02 2.164065e-02 2.233010e-02 2.027630e-02 2.767067e-02 2.638649e-02 3.098299e-02 2.942912e-02 3.263382e-02 3.102126e-02 3.345877e-02 3.190093e-02 3.383367e-02 3.244685e-02 3.396671e-02 3.286235e-02 3.399621e-02 3.325780e-02 3.400230e-02 3.366383e-02 3.401636e-02 3.407797e-02 3.406896e-02 3.451227e-02 3.421423e-02 3.500307e-02 3.450342e-02 3.557100e-02 3.495526e-02 3.622902e-02 3.560005e-02 3.702554e-02 3.650196e-02 3.804876e-02 3.775027e-02 3.938813e-02 3.937136e-02 4.103157e-02 4.114751e-02 4.141286e-02 3.984334e-02 3.961086e-02 3.770004e-02 3.752102e-02 3.680939e-02 3.641928e-02 3.537929e-02 3.454746e-02 3.308028e-02 3.185089e-02 3.011239e-02 2.854446e-02 2.729046e-02 2.628599e-02 2.700197e-02 2.776498e-02 2.863927e-02 2.941432e-02 3.020768e-02 3.082723e-02 3.147873e-02 3.189294e-02 3.240983e-02 3.265430e-02 3.304982e-02 3.319289e-02 3.345751e-02 3.358975e-02 3.368807e-02 3.391223e-02 3.378793e-02 3.421179e-02 3.379528e-02 3.450430e-02 3.372014e-02 3.476905e-02 3.358635e-02 3.500176e-02 3.345021e-02 3.520111e-02 3.336421e-02 3.534700e-02 3.335967e-02 3.538946e-02 3.344278e-02 3.527897e-02 3.363743e-02 3.501617e-02 3.398871e-02 3.463850e-02 3.452652e-02 3.417742e-02 3.522309e-02 3.364417e-02 3.601798e-02 3.310180e-02 3.688307e-02 3.268961e-02 3.782911e-02 3.263417e-02 3.888438e-02 3.330754e-02 3.985446e-02 3.558499e-02 4.008827e-02 6.966549e-02 5.113477e-02 4.354501e-02 3.475826e-02 3.555550e-02 
9.808095e-03 1.290360e-02 1.766841e-02 2.572403e-02 3.623990e-02 1.525185e-02 2.824524e-02 2.050870e-02 2.351705e-02 2.120593e-02 2.131944e-02 2.167001e-02 1.855959e-02 2.398073e-02 2.186590e-02 2.607434e-02 2.275922e-02 2.661380e-02 2.235749e-02 2.525376e-02 2.048861e-02 2.076140e-02 2.003625e-02 2.132552e-02 2.040789e-02 2.155963e-02 2.098070e-02 2.164463e-02 2.148240e-02 2.161149e-02 2.186990e-02 2.153097e-02 2.216078e-02 2.145965e-02 2.238553e-02 2.143455e-02 2.256343e-02 2.146897e-02 2.270145e-02 2.156402e-02 2.281323e-02 2.172334e-02 2.292531e-02 2.195888e-02 2.306184e-02 2.227564e-02 2.323762e-02 2.267172e-02 2.347650e-02 2.315858e-02 2.381579e-02 2.376769e-02 2.430925e-02 2.453940e-02 2.500875e-02 2.552065e-02 2.594622e-02 2.571495e-02 2.495926e-02 2.468861e-02 2.360460e-02 2.364205e-02 2.312510e-02 2.311968e-02 2.228744e-02 2.215044e-02 2.101358e-02 2.080086e-02 1.949375e-02 1.906978e-02 1.820196e-02 1.776969e-02 1.834764e-02 1.868927e-02 1.932908e-02 1.945503e-02 2.014463e-02 2.004063e-02 2.080532e-02 2.047350e-02 2.130826e-02 2.079257e-02 2.167012e-02 2.103375e-02 2.191271e-02 2.122648e-02 2.206090e-02 2.139239e-02 2.213953e-02 2.154696e-02 2.216764e-02 2.169743e-02 2.214605e-02 2.184169e-02 2.207852e-02 2.198336e-02 2.197843e-02 2.213146e-02 2.185718e-02 2.229179e-02 2.172156e-02 2.245787e-02 2.157670e-02 2.261849e-02 2.143621e-02 2.277848e-02 2.131790e-02 2.294892e-02 2.124007e-02 2.312035e-02 2.121271e-02 2.326321e-02 2.123619e-02 2.336882e-02 2.133345e-02 2.344628e-02 2.158174e-02 2.350074e-02 2.217312e-02 2.344925e-02 2.360687e-02 2.307429e-02 3.059777e-02 3.542219e-02 3.754335e-02 1.676379e-02 1.334572e-02 1.030811e-02 
1.084904e-02 8.786099e-03 9.251530e-03 6.742037e-03 9.848836e-03 2.524972e-02 9.608438e-03 1.439666e-02 3.031806e-03 1.026847e-02 1.655329e-03 1.074675e-02 1.163314e-02 1.785138e-02 2.159949e-02 2.191452e-02 2.320395e-02 2.354397e-02 2.154808e-02 2.109522e-02 1.846058e-02 1.000402e-02 5.387671e-03 2.476356e-03 5.423623e-03 4.418763e-03 7.783237e-03 6.134653e-03 9.068285e-03 6.973263e-03 9.696234e-03 7.428081e-03 9.969987e-03 7.756060e-03 1.006669e-02 8.083311e-03 1.007805e-02 8.438587e-03 1.003735e-02 8.809045e-03 9.976445e-03 9.193861e-03 9.952625e-03 9.618179e-03 1.002252e-02 1.009358e-02 1.021235e-02 1.062374e-02 1.055973e-02 1.124883e-02 1.112983e-02 1.204334e-02 1.199102e-02 1.305769e-02 1.308671e-02 1.412350e-02 1.395485e-02 1.461318e-02 1.372770e-02 1.391285e-02 1.287336e-02 1.255898e-02 1.231070e-02 1.191953e-02 1.176347e-02 1.087220e-02 1.063225e-02 9.071785e-03 8.761099e-03 6.730227e-03 6.351053e-03 4.839887e-03 5.600112e-03 5.349055e-03 6.788079e-03 6.526413e-03 8.118579e-03 7.590773e-03 9.166054e-03 8.361236e-03 9.871180e-03 8.879892e-03 1.029281e-02 9.233378e-03 1.049890e-02 9.502573e-03 1.054900e-02 9.749883e-03 1.049076e-02 1.001901e-02 1.036095e-02 1.031710e-02 1.016317e-02 1.061390e-02 9.913763e-03 1.089689e-02 9.664838e-03 1.115955e-02 9.468453e-03 1.137868e-02 9.359556e-03 1.150078e-02 9.350289e-03 1.147223e-02 9.468231e-03 1.129051e-02 9.756855e-03 1.098753e-02 1.024128e-02 1.058101e-02 1.088620e-02 1.005951e-02 1.161615e-02 9.457502e-03 1.238363e-02 8.878334e-03 1.318071e-02 8.523864e-03 1.404038e-02 8.857275e-03 1.497447e-02 1.167897e-02 2.421997e-02 1.375801e-02 1.003611e-02 4.730542e-03 1.037399e-02 8.924804e-03 
3.342405e-03 1.175744e-03 3.385682e-03 3.161327e-03 3.291178e-03 9.325539e-03 8.716502e-03 6.188552e-03 5.241725e-03 8.592757e-03 9.238463e-03 1.796941e-02 2.392945e-02 2.477306e-02 1.139667e-02 7.503575e-03 2.630021e-03 4.346956e-03 6.917735e-03 1.201357e-02 2.496247e-02 2.446193e-02 1.592248e-02 1.029814e-02 6.478771e-03 4.368744e-03 2.711418e-03 2.438547e-03 1.083547e-03 2.112396e-03 3.949217e-04 2.067147e-03 2.986228e-04 1.953436e-03 4.737547e-04 1.746231e-03 6.496333e-04 1.479413e-03 8.034358e-04 1.191772e-03 9.266122e-04 9.076011e-04 9.909281e-04 6.512814e-04 9.590319e-04 5.288632e-04 8.083380e-04 7.166572e-04 5.596770e-04 1.190932e-03 5.936077e-04 1.904498e-03 1.326976e-03 2.804615e-03 2.311984e-03 3.587385e-03 2.859339e-03 4.456254e-03 3.858058e-03 4.697265e-03 4.199044e-03 3.438874e-03 3.134500e-03 2.348153e-03 2.785797e-03 2.036597e-03 3.130526e-03 3.703106e-03 3.917680e-03 5.426021e-03 4.004831e-03 5.063530e-03 5.146646e-03 5.428392e-03 4.887397e-03 4.552671e-03 3.682819e-03 3.304040e-03 2.462063e-03 2.257605e-03 1.535708e-03 1.521919e-03 9.109658e-04 1.025513e-03 5.193038e-04 6.667872e-04 3.072549e-04 3.673867e-04 2.820384e-04 1.062625e-04 3.955796e-04 2.547399e-04 5.601831e-04 5.316071e-04 7.409798e-04 7.796032e-04 9.020144e-04 9.784614e-04 1.002055e-03 1.105302e-03 1.009951e-03 1.124689e-03 9.173765e-04 1.006071e-03 7.269215e-04 7.639922e-04 4.903465e-04 5.287223e-04 5.401607e-04 6.728214e-04 1.023346e-03 1.202995e-03 1.612333e-03 1.879251e-03 2.127942e-03 2.593576e-03 2.410639e-03 3.289177e-03 2.230964e-03 3.997109e-03 1.165497e-03 5.175677e-03 6.219265e-03 6.139326e-03 2.738509e-03 1.793701e-03 3.566162e-03 7.143887e-04 
