# vtk DataFile Version 2.0
Comment goes here
ASCII

DATASET STRUCTURED_POINTS
FIELD FieldData 1
TIME 1 1 double
0.22000000
DIMENSIONS    128   16   1

ORIGIN    0.000   0.000   0.000
SPACING   0.0078125 0.015625   1.000

POINT_DATA   2048
SCALARS uMag double
LOOKUP_TABLE default

6.944135e-03 3.025419e-03 5.769348e-03 1.445739e-04 4.158826e-03 2.842648e-03 1.022745e-02 1.855462e-03 4.717038e-03 4.917970e-03 3.462895e-03 1.374968e-02 2.093123e-02 3.655640e-02 4.521674e-02 4.766159e-02 5.207905e-02 5.023970e-02 4.932840e-02 4.358173e-02 3.765506e-02 1.929700e-02 1.377731e-02 4.135505e-03 3.775521e-03 1.821155e-03 3.580205e-04 4.226499e-03 2.120168e-03 5.123127e-03 2.880801e-03 5.359146e-03 3.242130e-03 5.316970e-03 3.482014e-03 5.175997e-03 3.661835e-03 4.930365e-03 3.747689e-03 4.609312e-03 3.804697e-03 4.341243e-03 3.938136e-03 4.179915e-03 4.098572e-03 4.050552e-03 4.189129e-03 3.892386e-03 4.180613e-03 3.727938e-03 4.113497e-03 3.605218e-03 3.984148e-03 3.485386e-03 3.651800e-03 3.071269e-03 2.346702e-03 1.903798e-03 3.005810e-03 2.913229e-03 5.943001e-03 6.207870e-03 4.020830e-03 3.150547e-03 2.951096e-03 2.576177e-03 3.763423e-03 4.714112e-03 5.114370e-03 8.521593e-03 7.160149e-03 6.551994e-03 5.996116e-03 6.077380e-03 5.129485e-03 5.402653e-03 4.270932e-03 4.580943e-03 3.417931e-03 3.999050e-03 2.928001e-03 3.734590e-03 2.769166e-03 3.544292e-03 2.689780e-03 3.330802e-03 2.680544e-03 3.089295e-03 2.756888e-03 2.836773e-03 2.953687e-03 2.642134e-03 3.198156e-03 2.423796e-03 3.436148e-03 2.235527e-03 3.653288e-03 2.028393e-03 3.697852e-03 1.830780e-03 3.646866e-03 1.770880e-03 3.531187e-03 1.923537e-03 3.387871e-03 2.294260e-03 3.064259e-03 2.728839e-03 2.518218e-03 3.277438e-03 1.905776e-03 3.949225e-03 1.260626e-03 4.650163e-03 6.891079e-04 5.310718e-03 3.783950e-04 5.873953e-03 6.654687e-04 6.221844e-03 2.107589e-03 6.069210e-03 6.095698e-03 2.050381e-04 5.252315e-03 2.234418e-03 6.662219e-03 3.711066e-03 
2.767301e-03 1.238320e-03 3.127343e-03 3.652627e-03 3.613076e-03 9.771508e-03 8.113864e-03 6.315660e-03 4.657374e-03 8.402979e-03 8.847254e-03 1.755008e-02 2.352615e-02 2.430753e-02 1.122360e-02 7.142873e-03 2.824093e-03 3.986378e-03 6.847039e-03 1.190561e-02 2.457549e-02 2.411714e-02 1.535812e-02 1.008098e-02 6.106587e-03 4.259140e-03 2.520111e-03 2.157659e-03 9.540600e-04 1.540230e-03 4.259403e-04 1.415774e-03 2.266063e-04 1.421362e-03 1.216837e-04 1.412820e-03 4.612680e-04 1.116458e-03 5.225778e-04 6.730301e-04 3.298650e-04 4.837441e-04 4.497456e-04 5.278453e-04 8.004572e-04 4.746982e-04 9.344905e-04 3.673945e-04 7.850923e-04 4.329439e-04 6.767357e-04 6.027110e-04 7.717247e-04 1.162648e-03 1.139277e-03 3.258923e-03 3.437013e-03 3.592318e-03 2.288256e-03 6.645048e-03 8.740878e-03 3.523092e-03 6.398571e-03 3.183573e-03 3.223202e-03 3.358586e-03 5.585122e-03 4.682517e-03 1.096127e-02 8.595975e-03 3.328145e-03 3.089386e-03 2.788663e-03 3.916716e-03 3.363097e-03 3.006789e-03 2.919532e-03 2.033909e-03 2.157886e-03 1.051434e-03 1.544679e-03 4.617831e-04 1.258567e-03 4.444590e-04 1.174624e-03 5.825626e-04 1.017189e-03 7.511740e-04 8.082783e-04 9.490278e-04 5.410119e-04 1.080002e-03 3.678433e-04 1.310883e-03 1.573796e-04 1.416789e-03 3.524701e-04 1.551604e-03 4.032236e-04 1.814599e-03 2.497431e-04 1.989520e-03 7.885723e-05 1.877332e-03 4.497842e-04 1.397371e-03 5.966830e-04 1.055658e-03 1.052244e-03 6.976090e-04 1.625835e-03 7.036398e-04 2.188797e-03 1.280403e-03 2.667035e-03 2.005765e-03 2.978606e-03 2.676505e-03 2.851171e-03 3.420983e-03 1.884908e-03 4.858143e-03 6.054723e-03 6.784795e-03 2.497170e-03 2.232526e-03 3.076096e-03 2.902766e-04 
1.019566e-02 8.200559e-03 8.791417e-03 6.609378e-03 1.007629e-02 2.531614e-02 9.739108e-03 1.459415e-02 3.362268e-03 1.048430e-02 1.195063e-03 1.061038e-02 1.073336e-02 1.685832e-02 2.053192e-02 2.078088e-02 2.202118e-02 2.241477e-02 2.032904e-02 2.002135e-02 1.736729e-02 9.138173e-03 4.816609e-03 2.706700e-03 5.717662e-03 4.802693e-03 7.934129e-03 6.410684e-03 9.326341e-03 7.463536e-03 1.007898e-02 7.904527e-03 1.021339e-02 7.999361e-03 1.002332e-02 8.020464e-03 1.004154e-02 8.469869e-03 1.033187e-02 9.084818e-03 1.047525e-02 9.381701e-03 1.009530e-02 9.222588e-03 9.472408e-03 9.034788e-03 9.306701e-03 9.563811e-03 9.590403e-03 1.000125e-02 9.405201e-03 9.688755e-03 8.556662e-03 9.097733e-03 7.991104e-03 9.767814e-03 7.086055e-03 5.827373e-03 7.948015e-03 9.440544e-03 1.461980e-02 1.291685e-02 1.028183e-02 7.793719e-03 7.888676e-03 6.820626e-03 1.096483e-02 1.299276e-02 1.809901e-02 2.284437e-02 2.049254e-02 1.838923e-02 1.919668e-02 1.667936e-02 1.592392e-02 1.363307e-02 1.384076e-02 1.177074e-02 1.242795e-02 1.058273e-02 1.160840e-02 1.004303e-02 1.132962e-02 1.006263e-02 1.124874e-02 1.024428e-02 1.110749e-02 1.039258e-02 1.080027e-02 1.056130e-02 1.051812e-02 1.082096e-02 1.027733e-02 1.106922e-02 9.880703e-03 1.106747e-02 9.412770e-03 1.117877e-02 9.378914e-03 1.166645e-02 9.779641e-03 1.209763e-02 9.959681e-03 1.193650e-02 9.898453e-03 1.142404e-02 1.000174e-02 1.113373e-02 1.058133e-02 1.084118e-02 1.127400e-02 1.026127e-02 1.182916e-02 9.526973e-03 1.251468e-02 9.006061e-03 1.337485e-02 8.779111e-03 1.430584e-02 9.119371e-03 1.529134e-02 1.195246e-02 2.449975e-02 1.402274e-02 1.023085e-02 4.382893e-03 9.825195e-03 8.301571e-03 
9.444047e-03 1.250693e-02 1.717949e-02 2.529280e-02 3.608104e-02 1.501531e-02 2.797967e-02 2.025047e-02 2.325297e-02 2.096377e-02 2.107973e-02 2.144241e-02 1.833613e-02 2.369618e-02 2.151295e-02 2.577558e-02 2.238756e-02 2.630185e-02 2.205479e-02 2.496868e-02 2.027651e-02 2.058518e-02 2.005115e-02 2.107353e-02 2.030202e-02 2.118990e-02 2.085952e-02 2.139394e-02 2.157030e-02 2.149425e-02 2.190326e-02 2.128794e-02 2.200606e-02 2.113319e-02 2.218798e-02 2.115708e-02 2.245317e-02 2.117253e-02 2.249578e-02 2.112647e-02 2.241919e-02 2.116686e-02 2.233930e-02 2.123483e-02 2.212783e-02 2.110843e-02 2.189896e-02 2.119106e-02 2.176707e-02 2.129446e-02 2.155215e-02 2.125774e-02 2.121960e-02 2.097781e-02 2.067649e-02 2.026171e-02 1.886681e-02 1.848960e-02 1.967793e-02 2.008683e-02 2.159947e-02 2.164757e-02 2.226635e-02 2.174235e-02 2.232085e-02 2.284266e-02 2.364510e-02 2.500434e-02 2.610700e-02 2.757800e-02 2.747287e-02 2.802943e-02 2.748571e-02 2.611243e-02 2.487626e-02 2.415011e-02 2.349130e-02 2.279258e-02 2.261126e-02 2.201368e-02 2.225696e-02 2.174355e-02 2.231146e-02 2.153684e-02 2.210277e-02 2.139734e-02 2.193654e-02 2.144135e-02 2.180079e-02 2.145338e-02 2.173228e-02 2.167262e-02 2.162939e-02 2.167337e-02 2.134354e-02 2.167929e-02 2.125763e-02 2.172747e-02 2.120641e-02 2.200455e-02 2.138662e-02 2.224810e-02 2.122603e-02 2.216134e-02 2.107252e-02 2.231194e-02 2.100076e-02 2.252651e-02 2.090999e-02 2.276535e-02 2.098403e-02 2.287150e-02 2.093330e-02 2.295597e-02 2.103831e-02 2.319002e-02 2.136079e-02 2.335583e-02 2.201736e-02 2.331183e-02 2.336482e-02 2.284588e-02 3.033631e-02 3.539070e-02 3.736621e-02 1.638579e-02 1.286263e-02 9.928607e-03 
3.250211e-02 3.640965e-02 3.829615e-02 4.838944e-02 5.864116e-02 5.523911e-02 2.713294e-02 3.883875e-02 2.664487e-02 3.399108e-02 2.495815e-02 2.904221e-02 1.859366e-02 2.262394e-02 2.152837e-02 2.241141e-02 2.249632e-02 2.216304e-02 2.273913e-02 2.171206e-02 2.232999e-02 2.042404e-02 2.758785e-02 2.643825e-02 3.070088e-02 2.924692e-02 3.204714e-02 3.071844e-02 3.284884e-02 3.175388e-02 3.331754e-02 3.229946e-02 3.331409e-02 3.241770e-02 3.293468e-02 3.236549e-02 3.277774e-02 3.280123e-02 3.306742e-02 3.343790e-02 3.326872e-02 3.363828e-02 3.284305e-02 3.328724e-02 3.218667e-02 3.296095e-02 3.203773e-02 3.332686e-02 3.234345e-02 3.360438e-02 3.212998e-02 3.312116e-02 3.116291e-02 3.214109e-02 2.986831e-02 3.034647e-02 2.601749e-02 2.620758e-02 2.878597e-02 2.908925e-02 3.409717e-02 3.483697e-02 3.334915e-02 3.232395e-02 3.310049e-02 3.365188e-02 3.502444e-02 3.879552e-02 4.037954e-02 4.695407e-02 4.731910e-02 4.692121e-02 4.636219e-02 4.236869e-02 4.121216e-02 3.866140e-02 3.835866e-02 3.660017e-02 3.662756e-02 3.530122e-02 3.549065e-02 3.454751e-02 3.485202e-02 3.447635e-02 3.472104e-02 3.462359e-02 3.457846e-02 3.464067e-02 3.424998e-02 3.470008e-02 3.396770e-02 3.477030e-02 3.375504e-02 3.497624e-02 3.349752e-02 3.487434e-02 3.303867e-02 3.489151e-02 3.306668e-02 3.525334e-02 3.344478e-02 3.556693e-02 3.373826e-02 3.543989e-02 3.371475e-02 3.479165e-02 3.382653e-02 3.437452e-02 3.446990e-02 3.400069e-02 3.515798e-02 3.338100e-02 3.577654e-02 3.269319e-02 3.648990e-02 3.225003e-02 3.744792e-02 3.227133e-02 3.853566e-02 3.298032e-02 3.959339e-02 3.531037e-02 3.984579e-02 6.937009e-02 5.030801e-02 4.286322e-02 3.410686e-02 3.513912e-02 
3.711335e-02 3.906874e-02 4.054864e-02 4.556419e-02 5.284327e-02 6.430246e-02 5.920127e-02 6.022775e-02 5.503859e-02 5.735900e-02 5.234154e-02 5.410815e-02 4.657551e-02 4.636711e-02 4.613713e-02 4.631143e-02 4.627694e-02 4.623222e-02 4.635550e-02 4.615956e-02 4.632327e-02 4.664764e-02 5.182804e-02 5.180898e-02 5.460568e-02 5.436389e-02 5.638864e-02 5.587678e-02 5.768637e-02 5.684037e-02 5.838001e-02 5.717859e-02 5.854755e-02 5.723670e-02 5.852389e-02 5.732281e-02 5.862491e-02 5.762470e-02 5.880166e-02 5.799906e-02 5.892686e-02 5.821059e-02 5.874141e-02 5.818691e-02 5.839945e-02 5.818056e-02 5.838176e-02 5.875427e-02 5.890828e-02 5.958866e-02 5.955315e-02 6.040037e-02 6.041585e-02 6.170623e-02 6.231420e-02 6.410893e-02 6.486145e-02 6.515379e-02 6.487198e-02 6.482602e-02 6.380770e-02 6.361294e-02 6.405561e-02 6.532854e-02 6.553749e-02 6.621470e-02 6.615365e-02 6.567304e-02 6.527382e-02 6.329279e-02 6.346245e-02 6.275944e-02 6.365320e-02 6.386473e-02 6.318226e-02 6.211177e-02 6.178081e-02 6.055406e-02 6.068644e-02 5.952775e-02 6.001581e-02 5.903095e-02 5.976068e-02 5.887533e-02 5.954066e-02 5.886835e-02 5.934772e-02 5.891263e-02 5.906677e-02 5.896421e-02 5.884551e-02 5.917327e-02 5.863860e-02 5.928571e-02 5.829128e-02 5.925660e-02 5.797890e-02 5.934802e-02 5.791992e-02 5.972041e-02 5.824735e-02 6.006834e-02 5.831739e-02 5.993822e-02 5.819441e-02 5.967477e-02 5.826133e-02 5.949819e-02 5.857967e-02 5.937113e-02 5.901316e-02 5.904757e-02 5.934017e-02 5.863579e-02 5.987857e-02 5.846848e-02 6.065769e-02 5.858011e-02 6.165518e-02 5.903317e-02 6.299825e-02 6.005620e-02 6.663681e-02 6.300088e-02 4.762934e-02 4.430539e-02 3.885395e-02 3.874006e-02 
4.812696e-02 5.002006e-02 4.963984e-02 5.305369e-02 5.405681e-02 5.989032e-02 6.270263e-02 6.390759e-02 6.212235e-02 6.465021e-02 6.278119e-02 6.643298e-02 6.495728e-02 6.352340e-02 6.324071e-02 6.345476e-02 6.341111e-02 6.335214e-02 6.351020e-02 6.325934e-02 6.349816e-02 6.449301e-02 6.482904e-02 6.320318e-02 6.344584e-02 6.263182e-02 6.324728e-02 6.255360e-02 6.339642e-02 6.260214e-02 6.351533e-02 6.259485e-02 6.354771e-02 6.260972e-02 6.359124e-02 6.271966e-02 6.365652e-02 6.285449e-02 6.365870e-02 6.299173e-02 6.363562e-02 6.314231e-02 6.358551e-02 6.329497e-02 6.351102e-02 6.345454e-02 6.350503e-02 6.375224e-02 6.368583e-02 6.420085e-02 6.406718e-02 6.479957e-02 6.476753e-02 6.573126e-02 6.612817e-02 6.746093e-02 6.920807e-02 7.046726e-02 6.829517e-02 6.917280e-02 6.791705e-02 6.806482e-02 6.656702e-02 6.637100e-02 6.534712e-02 6.508354e-02 6.523291e-02 6.413830e-02 6.547458e-02 6.458223e-02 6.359994e-02 6.277734e-02 6.257951e-02 6.422412e-02 6.469577e-02 6.508954e-02 6.516757e-02 6.492044e-02 6.501388e-02 6.457073e-02 6.476780e-02 6.432224e-02 6.459197e-02 6.413316e-02 6.433902e-02 6.403056e-02 6.412233e-02 6.403417e-02 6.391904e-02 6.406260e-02 6.374084e-02 6.418478e-02 6.355843e-02 6.423887e-02 6.333374e-02 6.430508e-02 6.320863e-02 6.440751e-02 6.314061e-02 6.456687e-02 6.321594e-02 6.469203e-02 6.321603e-02 6.463712e-02 6.322479e-02 6.458182e-02 6.332281e-02 6.446930e-02 6.345726e-02 6.433442e-02 6.366788e-02 6.412791e-02 6.384397e-02 6.387617e-02 6.405246e-02 6.366997e-02 6.421227e-02 6.346936e-02 6.422215e-02 6.323742e-02 6.401181e-02 6.288841e-02 6.433253e-02 5.815246e-02 5.413312e-02 5.229211e-02 4.952149e-02 4.974904e-02 
4.773919e-02 4.885874e-02 4.920065e-02 5.155024e-02 5.281789e-02 5.603300e-02 5.748789e-02 5.975356e-02 6.082116e-02 6.261706e-02 6.535424e-02 6.721310e-02 7.430833e-02 7.407595e-02 7.397829e-02 7.406003e-02 7.402852e-02 7.402769e-02 7.406251e-02 7.399113e-02 7.406858e-02 7.420291e-02 6.822237e-02 6.687254e-02 6.406101e-02 6.310497e-02 6.203873e-02 6.111944e-02 6.108008e-02 6.009857e-02 6.063490e-02 5.956322e-02 6.040898e-02 5.929369e-02 6.028905e-02 5.920116e-02 6.023674e-02 5.923434e-02 6.021029e-02 5.933518e-02 6.017202e-02 5.944857e-02 6.009084e-02 5.955215e-02 5.998856e-02 5.966870e-02 5.992110e-02 5.983068e-02 5.989199e-02 5.995788e-02 5.979324e-02 5.990023e-02 5.947520e-02 5.949529e-02 5.876145e-02 5.862274e-02 5.782840e-02 5.832451e-02 5.795154e-02 5.881270e-02 5.882272e-02 5.864227e-02 5.901741e-02 5.883635e-02 5.907616e-02 5.928704e-02 5.964651e-02 5.969938e-02 6.066152e-02 6.031514e-02 5.984710e-02 6.020865e-02 6.021225e-02 5.982394e-02 6.040508e-02 6.021409e-02 6.076479e-02 6.033235e-02 6.085027e-02 6.026813e-02 6.080069e-02 6.018338e-02 6.071820e-02 6.014195e-02 6.061123e-02 6.015761e-02 6.049101e-02 6.021954e-02 6.034977e-02 6.030835e-02 6.019802e-02 6.042402e-02 6.003703e-02 6.053298e-02 5.987088e-02 6.063658e-02 5.974183e-02 6.075470e-02 5.968182e-02 6.088805e-02 5.969863e-02 6.097736e-02 5.972224e-02 6.095800e-02 5.975646e-02 6.086015e-02 5.984639e-02 6.071064e-02 6.000046e-02 6.051040e-02 6.018787e-02 6.022989e-02 6.034942e-02 5.986868e-02 6.044992e-02 5.943091e-02 6.038800e-02 5.885187e-02 5.998462e-02 5.799810e-02 5.897164e-02 5.664915e-02 5.698106e-02 5.404115e-02 5.212517e-02 5.048369e-02 4.878531e-02 4.852032e-02 
5.251382e-02 5.381127e-02 5.353150e-02 5.586233e-02 5.644092e-02 5.933561e-02 6.073247e-02 6.282114e-02 6.402388e-02 6.567685e-02 6.832698e-02 6.978344e-02 7.716575e-02 7.736050e-02 7.722381e-02 7.732901e-02 7.729628e-02 7.727539e-02 7.735118e-02 7.722339e-02 7.736644e-02 7.718698e-02 7.134636e-02 7.024071e-02 6.764127e-02 6.674009e-02 6.575104e-02 6.488907e-02 6.482195e-02 6.395871e-02 6.440263e-02 6.351538e-02 6.422076e-02 6.332612e-02 6.414055e-02 6.328095e-02 6.410266e-02 6.332237e-02 6.407262e-02 6.341127e-02 6.403293e-02 6.352273e-02 6.398001e-02 6.364510e-02 6.392089e-02 6.377272e-02 6.386912e-02 6.390369e-02 6.383494e-02 6.402333e-02 6.381252e-02 6.410470e-02 6.379516e-02 6.415242e-02 6.384587e-02 6.436604e-02 6.444799e-02 6.490714e-02 6.373885e-02 6.426385e-02 6.297134e-02 6.313694e-02 6.229527e-02 6.272107e-02 6.183581e-02 6.187661e-02 6.126026e-02 6.082877e-02 6.055131e-02 5.968915e-02 5.922985e-02 5.890752e-02 5.940064e-02 6.046106e-02 6.123043e-02 6.196929e-02 6.259331e-02 6.291364e-02 6.339869e-02 6.342613e-02 6.382420e-02 6.370334e-02 6.403357e-02 6.387453e-02 6.411743e-02 6.401479e-02 6.412984e-02 6.414911e-02 6.409032e-02 6.427696e-02 6.401268e-02 6.440392e-02 6.391090e-02 6.452459e-02 6.380527e-02 6.464634e-02 6.371996e-02 6.476222e-02 6.366156e-02 6.486324e-02 6.364068e-02 6.492881e-02 6.364584e-02 6.493519e-02 6.367850e-02 6.488416e-02 6.374673e-02 6.477946e-02 6.385235e-02 6.462780e-02 6.397737e-02 6.441325e-02 6.407275e-02 6.411794e-02 6.407894e-02 6.370953e-02 6.389821e-02 6.310709e-02 6.338519e-02 6.215374e-02 6.232574e-02 6.055344e-02 6.035908e-02 5.775033e-02 5.640382e-02 5.499949e-02 5.353508e-02 5.353578e-02 
4.773975e-02 4.885403e-02 4.919923e-02 5.154744e-02 5.281557e-02 5.603228e-02 5.748739e-02 5.975568e-02 6.082266e-02 6.261854e-02 6.535706e-02 6.721598e-02 7.431110e-02 7.407811e-02 7.398191e-02 7.406233e-02 7.403202e-02 7.403054e-02 7.406590e-02 7.399525e-02 7.407178e-02 7.419690e-02 6.823797e-02 6.689469e-02 6.410207e-02 6.315060e-02 6.208278e-02 6.113991e-02 6.109113e-02 6.008421e-02 6.064250e-02 5.955374e-02 6.044309e-02 5.929529e-02 6.032892e-02 5.918306e-02 6.024554e-02 5.917407e-02 6.017541e-02 5.923010e-02 6.009399e-02 5.930696e-02 5.998598e-02 5.938020e-02 5.984563e-02 5.942186e-02 5.965666e-02 5.939472e-02 5.940429e-02 5.928084e-02 5.908367e-02 5.904937e-02 5.867518e-02 5.867669e-02 5.818328e-02 5.820252e-02 5.785924e-02 5.807472e-02 5.754821e-02 5.816926e-02 5.803838e-02 5.839945e-02 5.767994e-02 5.751089e-02 5.708734e-02 5.706792e-02 5.706937e-02 5.722986e-02 5.804468e-02 5.811210e-02 5.799888e-02 5.740111e-02 5.755319e-02 5.771856e-02 5.829346e-02 5.834254e-02 5.904927e-02 5.886735e-02 5.958777e-02 5.920782e-02 5.990326e-02 5.941915e-02 6.006899e-02 5.958066e-02 6.016178e-02 5.975903e-02 6.021364e-02 5.995394e-02 6.021203e-02 6.012906e-02 6.013506e-02 6.027676e-02 6.001298e-02 6.042209e-02 5.989283e-02 6.058404e-02 5.979533e-02 6.073653e-02 5.972445e-02 6.086469e-02 5.968581e-02 6.094206e-02 5.968395e-02 6.094109e-02 5.970969e-02 6.085647e-02 5.979097e-02 6.071509e-02 5.995057e-02 6.052875e-02 6.015255e-02 6.026675e-02 6.034610e-02 5.992315e-02 6.045987e-02 5.946952e-02 6.038545e-02 5.884791e-02 5.996375e-02 5.797057e-02 5.896059e-02 5.662882e-02 5.699208e-02 5.402698e-02 5.213294e-02 5.047323e-02 4.878887e-02 4.851314e-02 
4.812630e-02 5.000858e-02 4.963570e-02 5.304543e-02 5.405036e-02 5.988563e-02 6.269749e-02 6.391048e-02 6.212093e-02 6.465042e-02 6.278299e-02 6.643702e-02 6.497401e-02 6.352964e-02 6.325148e-02 6.345766e-02 6.341773e-02 6.335817e-02 6.351658e-02 6.326317e-02 6.350191e-02 6.444851e-02 6.483681e-02 6.324668e-02 6.355207e-02 6.275106e-02 6.335085e-02 6.258762e-02 6.339754e-02 6.256960e-02 6.355591e-02 6.263264e-02 6.368666e-02 6.266823e-02 6.370760e-02 6.269009e-02 6.369908e-02 6.279020e-02 6.370495e-02 6.292761e-02 6.366163e-02 6.304374e-02 6.357580e-02 6.315423e-02 6.347333e-02 6.324956e-02 6.332780e-02 6.326492e-02 6.310579e-02 6.319939e-02 6.282649e-02 6.304078e-02 6.245897e-02 6.271971e-02 6.189137e-02 6.215890e-02 6.108099e-02 6.164830e-02 6.121752e-02 6.161643e-02 6.018933e-02 6.055259e-02 6.124578e-02 6.224383e-02 6.226377e-02 6.285897e-02 6.243156e-02 6.259736e-02 6.123492e-02 6.032159e-02 6.019787e-02 6.125652e-02 6.105528e-02 6.107772e-02 6.122916e-02 6.137570e-02 6.181582e-02 6.190559e-02 6.245645e-02 6.235446e-02 6.287836e-02 6.265355e-02 6.313143e-02 6.290123e-02 6.334869e-02 6.319338e-02 6.351904e-02 6.346558e-02 6.359123e-02 6.367328e-02 6.355881e-02 6.382874e-02 6.345702e-02 6.398819e-02 6.337365e-02 6.419383e-02 6.330130e-02 6.435969e-02 6.320988e-02 6.448547e-02 6.313792e-02 6.458684e-02 6.314222e-02 6.464766e-02 6.316782e-02 6.458652e-02 6.320167e-02 6.446364e-02 6.335404e-02 6.435922e-02 6.359599e-02 6.420770e-02 6.385835e-02 6.400007e-02 6.407199e-02 6.373123e-02 6.418752e-02 6.343710e-02 6.415824e-02 6.316948e-02 6.399667e-02 6.286568e-02 6.436734e-02 5.813207e-02 5.414845e-02 5.227235e-02 4.952637e-02 4.973355e-02 
3.711265e-02 3.905614e-02 4.054138e-02 4.555445e-02 5.282731e-02 6.429737e-02 5.920312e-02 6.024587e-02 5.504676e-02 5.735582e-02 5.235909e-02 5.411761e-02 4.659413e-02 4.637554e-02 4.614980e-02 4.631608e-02 4.628636e-02 4.623629e-02 4.636434e-02 4.616587e-02 4.633921e-02 4.661890e-02 5.178398e-02 5.188865e-02 5.478753e-02 5.466539e-02 5.665884e-02 5.599015e-02 5.764260e-02 5.665972e-02 5.829592e-02 5.711102e-02 5.872464e-02 5.736906e-02 5.883034e-02 5.743041e-02 5.878014e-02 5.752364e-02 5.874676e-02 5.771223e-02 5.869898e-02 5.787243e-02 5.861895e-02 5.805144e-02 5.853889e-02 5.818646e-02 5.832824e-02 5.808060e-02 5.794985e-02 5.794785e-02 5.767567e-02 5.793209e-02 5.762352e-02 5.805111e-02 5.756837e-02 5.812544e-02 5.750889e-02 5.779099e-02 5.712459e-02 5.700895e-02 5.530097e-02 5.526625e-02 5.651941e-02 5.728497e-02 5.761104e-02 5.808249e-02 5.761396e-02 5.767801e-02 5.621786e-02 5.510503e-02 5.508756e-02 5.620797e-02 5.624771e-02 5.620123e-02 5.680735e-02 5.670239e-02 5.753152e-02 5.727423e-02 5.819834e-02 5.760733e-02 5.848078e-02 5.771804e-02 5.852773e-02 5.774790e-02 5.861483e-02 5.801924e-02 5.883379e-02 5.846257e-02 5.903649e-02 5.873935e-02 5.888495e-02 5.881187e-02 5.860142e-02 5.891097e-02 5.842173e-02 5.921631e-02 5.832358e-02 5.946255e-02 5.822826e-02 5.970137e-02 5.813236e-02 5.987009e-02 5.813402e-02 5.986764e-02 5.803236e-02 5.967469e-02 5.805607e-02 5.949242e-02 5.839799e-02 5.941002e-02 5.884058e-02 5.914928e-02 5.938579e-02 5.891201e-02 6.001134e-02 5.869520e-02 6.068647e-02 5.850504e-02 6.149737e-02 5.883764e-02 6.290671e-02 5.999084e-02 6.675958e-02 6.298508e-02 4.766095e-02 4.428271e-02 3.886269e-02 3.872285e-02 
3.249591e-02 3.638837e-02 3.828689e-02 4.836675e-02 5.862734e-02 5.524376e-02 2.715571e-02 3.884118e-02 2.665578e-02 3.396260e-02 2.496607e-02 2.900702e-02 1.853405e-02 2.259781e-02 2.151326e-02 2.237788e-02 2.246991e-02 2.216219e-02 2.272668e-02 2.172173e-02 2.236452e-02 2.044524e-02 2.757755e-02 2.640125e-02 3.080745e-02 2.941360e-02 3.242105e-02 3.086299e-02 3.302361e-02 3.157251e-02 3.324421e-02 3.207700e-02 3.342391e-02 3.259206e-02 3.348878e-02 3.291776e-02 3.334217e-02 3.305339e-02 3.314147e-02 3.327533e-02 3.310653e-02 3.356283e-02 3.317452e-02 3.387603e-02 3.325200e-02 3.405030e-02 3.315219e-02 3.391865e-02 3.293326e-02 3.383917e-02 3.298346e-02 3.402875e-02 3.342410e-02 3.448002e-02 3.381761e-02 3.462687e-02 3.383149e-02 3.425193e-02 3.327715e-02 3.366012e-02 3.243815e-02 3.277512e-02 3.287234e-02 3.341141e-02 3.331775e-02 3.376602e-02 3.328093e-02 3.324915e-02 3.254559e-02 3.173847e-02 3.158530e-02 3.166766e-02 3.171921e-02 3.190678e-02 3.235054e-02 3.257373e-02 3.299928e-02 3.307094e-02 3.342439e-02 3.331231e-02 3.365057e-02 3.343616e-02 3.369554e-02 3.338350e-02 3.364865e-02 3.352495e-02 3.384202e-02 3.403908e-02 3.416869e-02 3.441322e-02 3.399563e-02 3.449236e-02 3.366692e-02 3.453081e-02 3.341386e-02 3.476354e-02 3.330596e-02 3.501911e-02 3.335940e-02 3.531486e-02 3.340658e-02 3.537267e-02 3.340761e-02 3.501997e-02 3.327126e-02 3.458768e-02 3.356156e-02 3.428852e-02 3.421795e-02 3.395913e-02 3.488057e-02 3.333869e-02 3.567294e-02 3.285835e-02 3.664499e-02 3.254292e-02 3.762579e-02 3.226907e-02 3.847612e-02 3.281237e-02 3.945263e-02 3.516567e-02 3.991692e-02 6.944067e-02 5.031874e-02 4.283616e-02 3.410092e-02 3.511302e-02 
9.440698e-03 1.249462e-02 1.718398e-02 2.527443e-02 3.608095e-02 1.497663e-02 2.795341e-02 2.028126e-02 2.327273e-02 2.097941e-02 2.109189e-02 2.147127e-02 1.838122e-02 2.373620e-02 2.158113e-02 2.574087e-02 2.244000e-02 2.622583e-02 2.203024e-02 2.487538e-02 2.015317e-02 2.048890e-02 1.993746e-02 2.125390e-02 2.045828e-02 2.151946e-02 2.091531e-02 2.142828e-02 2.131156e-02 2.137868e-02 2.181281e-02 2.139081e-02 2.219117e-02 2.122731e-02 2.226227e-02 2.099171e-02 2.231648e-02 2.097698e-02 2.247482e-02 2.106614e-02 2.250647e-02 2.109849e-02 2.242920e-02 2.117720e-02 2.235501e-02 2.135444e-02 2.225663e-02 2.147049e-02 2.205981e-02 2.153486e-02 2.187765e-02 2.165626e-02 2.180422e-02 2.182205e-02 2.168889e-02 2.195622e-02 2.165606e-02 2.189492e-02 2.143475e-02 2.156968e-02 2.082174e-02 2.102621e-02 2.108869e-02 2.155512e-02 2.143982e-02 2.194411e-02 2.139755e-02 2.171951e-02 2.101943e-02 2.107039e-02 2.084488e-02 2.128657e-02 2.108888e-02 2.100667e-02 2.113474e-02 2.089842e-02 2.139533e-02 2.103238e-02 2.175742e-02 2.107220e-02 2.178186e-02 2.097657e-02 2.166807e-02 2.094404e-02 2.172301e-02 2.115018e-02 2.187851e-02 2.135578e-02 2.189614e-02 2.143025e-02 2.178200e-02 2.144240e-02 2.163811e-02 2.149490e-02 2.162115e-02 2.170567e-02 2.158970e-02 2.182718e-02 2.144219e-02 2.193441e-02 2.127015e-02 2.214089e-02 2.127801e-02 2.242879e-02 2.122201e-02 2.253441e-02 2.098404e-02 2.264256e-02 2.090756e-02 2.290035e-02 2.099284e-02 2.313739e-02 2.105887e-02 2.330142e-02 2.112891e-02 2.330064e-02 2.134281e-02 2.321842e-02 2.183682e-02 2.317801e-02 2.333985e-02 2.281314e-02 3.048703e-02 3.559290e-02 3.734303e-02 1.639190e-02 1.283014e-02 9.918212e-03 
1.019486e-02 8.199855e-03 8.799094e-03 6.611800e-03 1.007142e-02 2.528326e-02 9.731674e-03 1.462437e-02 3.392328e-03 1.048486e-02 1.178529e-03 1.053089e-02 1.073495e-02 1.686643e-02 2.045985e-02 2.081805e-02 2.201242e-02 2.243499e-02 2.041068e-02 2.005447e-02 1.752793e-02 9.126352e-03 5.074795e-03 2.571594e-03 5.787524e-03 4.995698e-03 8.187933e-03 6.559391e-03 9.283014e-03 7.246146e-03 9.867717e-03 7.705929e-03 1.026714e-02 8.084863e-03 1.037373e-02 8.271173e-03 1.026205e-02 8.424258e-03 1.014521e-02 8.698885e-03 1.009691e-02 9.000481e-03 1.005384e-02 9.342292e-03 1.001355e-02 9.621113e-03 9.839049e-03 9.622881e-03 9.542362e-03 9.680479e-03 9.533168e-03 1.004377e-02 1.000142e-02 1.074037e-02 1.054779e-02 1.119964e-02 1.075401e-02 1.108265e-02 1.026307e-02 1.045438e-02 9.505429e-03 9.521970e-03 9.331635e-03 9.525683e-03 9.470752e-03 9.586320e-03 9.404949e-03 8.863593e-03 8.548066e-03 7.373453e-03 7.432564e-03 6.804517e-03 7.469172e-03 7.235015e-03 8.500641e-03 8.142146e-03 9.637322e-03 8.936828e-03 1.043067e-02 9.302813e-03 1.071024e-02 9.399763e-03 1.068801e-02 9.360053e-03 1.063064e-02 9.592216e-03 1.079951e-02 1.015178e-02 1.103012e-02 1.053437e-02 1.075489e-02 1.063451e-02 1.032758e-02 1.074282e-02 1.002623e-02 1.108896e-02 9.868271e-03 1.141081e-02 9.808019e-03 1.176250e-02 9.752647e-03 1.194876e-02 9.785532e-03 1.179128e-02 9.663426e-03 1.145134e-02 9.832390e-03 1.118521e-02 1.043154e-02 1.092731e-02 1.111052e-02 1.038227e-02 1.185344e-02 9.874030e-03 1.269038e-02 9.340293e-03 1.350912e-02 8.744411e-03 1.417679e-02 8.948760e-03 1.515280e-02 1.176862e-02 2.462243e-02 1.399487e-02 1.020407e-02 4.387173e-03 9.811441e-03 8.303968e-03 
2.768349e-03 1.242600e-03 3.131732e-03 3.656694e-03 3.612734e-03 9.761144e-03 8.106432e-03 6.323367e-03 4.645687e-03 8.396910e-03 8.844644e-03 1.751476e-02 2.352584e-02 2.428652e-02 1.128419e-02 7.192564e-03 2.819925e-03 3.837583e-03 6.871041e-03 1.164457e-02 2.453655e-02 2.403859e-02 1.546769e-02 9.969672e-03 6.176998e-03 4.059499e-03 2.620014e-03 2.033482e-03 1.158817e-03 1.609535e-03 4.611584e-04 1.525584e-03 2.076721e-04 1.363135e-03 2.149815e-04 1.200096e-03 1.568429e-04 1.072679e-03 3.107999e-04 8.334774e-04 4.291699e-04 5.531453e-04 4.744209e-04 3.079903e-04 4.594158e-04 2.372924e-04 4.984330e-04 2.840033e-04 5.047200e-04 3.306143e-04 2.764102e-04 6.778478e-04 2.902245e-04 1.338904e-03 1.016247e-03 1.894682e-03 1.410287e-03 2.020734e-03 1.271121e-03 1.861367e-03 1.538587e-03 6.113143e-04 3.145820e-04 2.860509e-04 7.511936e-04 1.125294e-03 1.792127e-03 2.703740e-03 3.152298e-03 4.021206e-03 3.657728e-03 4.602592e-03 3.933196e-03 3.869446e-03 2.803855e-03 2.616506e-03 1.689477e-03 1.564814e-03 9.853769e-04 8.273317e-04 7.206371e-04 4.093398e-04 7.074362e-04 2.362909e-04 6.245119e-04 1.088056e-04 6.509642e-04 4.666563e-04 7.520016e-04 8.009263e-04 5.702078e-04 1.006131e-03 3.129725e-04 1.176860e-03 2.198584e-04 1.380226e-03 3.252788e-04 1.620451e-03 3.028273e-04 1.879357e-03 1.707588e-04 1.946260e-03 2.766562e-04 1.684512e-03 3.261637e-04 1.334369e-03 4.083783e-04 1.042052e-03 9.263384e-04 7.259585e-04 1.520191e-03 7.837205e-04 2.122961e-03 1.299296e-03 2.719101e-03 1.879816e-03 3.085402e-03 2.647718e-03 2.871531e-03 3.489467e-03 1.814949e-03 4.864189e-03 6.031971e-03 6.758694e-03 2.498847e-03 2.215735e-03 3.073834e-03 2.858645e-04 
