# vtk DataFile Version 2.0
Comment goes here
ASCII

DATASET STRUCTURED_POINTS
FIELD FieldData 1
TIME 1 1 double
0.57000000
DIMENSIONS    128   16   1

ORIGIN    0.000   0.000   0.000
SPACING   0.0078125 0.015625   1.000

POINT_DATA   2048
SCALARS uX double
LOOKUP_TABLE default

-7.939543e-03 -3.990329e-03 -6.829378e-03 -1.079404e-03 -5.332075e-03 1.954163e-03 -1.148824e-02 6.224241e-04 -5.951247e-03 3.945248e-03 2.687180e-03 1.334819e-02 2.080248e-02 3.668413e-02 4.551636e-02 4.806977e-02 5.269346e-02 5.087599e-02 5.013274e-02 4.426550e-02 3.834545e-02 1.954434e-02 1.384222e-02 3.791235e-03 3.405406e-03 -2.555875e-03 -9.617354e-04 -5.168445e-03 -2.833617e-03 -6.155131e-03 -3.657824e-03 -6.406941e-03 -4.064746e-03 -6.322861e-03 -4.330891e-03 -6.090723e-03 -4.561265e-03 -5.795552e-03 -4.771531e-03 -5.475601e-03 -4.944335e-03 -5.157978e-03 -5.062117e-03 -4.866891e-03 -5.113131e-03 -4.615040e-03 -5.086536e-03 -4.398020e-03 -4.971045e-03 -4.198043e-03 -4.752191e-03 -3.986159e-03 -4.396741e-03 -3.715960e-03 -3.800339e-03 -3.111392e-03 -1.839935e-03 -6.473661e-04 -2.760390e-03 -2.167417e-03 -5.278291e-03 -6.758426e-03 -4.623866e-03 -4.273948e-03 -3.634334e-03 -4.443169e-03 -3.249699e-03 -5.719927e-03 -2.644783e-03 -6.228127e-03 -5.584044e-03 -7.165372e-03 -7.656518e-03 -6.198723e-03 -4.551472e-03 -4.920159e-03 -3.812743e-03 -4.640644e-03 -3.682479e-03 -4.559162e-03 -3.718811e-03 -4.508739e-03 -3.789336e-03 -4.436871e-03 -3.862861e-03 -4.332885e-03 -3.948534e-03 -4.196346e-03 -4.060325e-03 -4.023111e-03 -4.201401e-03 -3.811113e-03 -4.366479e-03 -3.573313e-03 -4.545316e-03 -3.338926e-03 -4.717411e-03 -3.144098e-03 -4.848500e-03 -3.024157e-03 -4.894345e-03 -3.008399e-03 -4.810237e-03 -3.119898e-03 -4.567179e-03 -3.379912e-03 -4.166510e-03 -3.803182e-03 -3.635885e-03 -4.375161e-03 -3.011917e-03 -5.034996e-03 -2.342901e-03 -5.691846e-03 -1.720985e-03 -6.252640e-03 -1.316723e-03 -6.624008e-03 -1.427277e-03 -6.695600e-03 -2.658221e-03 -6.382442e-03 -6.826717e-03 -1.851006e-03 -6.349196e-03 -3.498582e-03 -7.636223e-03 -4.749153e-03 
-3.533213e-03 -3.347708e-04 -1.960694e-03 2.728966e-03 1.285668e-03 7.211981e-03 -8.912703e-03 2.194693e-03 -4.449724e-03 1.146943e-03 -1.990257e-04 9.651020e-04 5.160801e-03 1.041453e-04 1.090089e-03 -2.774465e-03 3.787391e-04 -3.557515e-03 8.797364e-04 -2.329621e-03 2.952550e-03 2.415059e-03 2.012865e-03 -1.213285e-04 8.102028e-04 -1.381380e-03 2.609700e-04 -2.016488e-03 -4.105473e-05 -2.290514e-03 -2.495569e-04 -2.325961e-03 -4.357805e-04 -2.201742e-03 -6.493935e-04 -1.996769e-03 -9.100926e-04 -1.757626e-03 -1.192370e-03 -1.510204e-03 -1.453179e-03 -1.270689e-03 -1.656084e-03 -1.070018e-03 -1.797108e-03 -9.344240e-04 -1.862054e-03 -8.451840e-04 -1.806344e-03 -7.198046e-04 -1.497836e-03 -3.487750e-04 -6.434192e-04 6.674137e-04 1.391094e-03 3.415403e-03 6.939720e-03 1.003271e-02 5.679969e-03 6.479520e-03 3.055065e-03 3.131046e-03 4.212614e-03 4.372992e-03 5.589547e-03 3.370272e-03 4.781356e-03 -6.616494e-04 -1.769959e-04 -7.589406e-03 -8.957435e-03 -1.195218e-02 -1.275488e-02 -8.432661e-03 -5.202724e-03 -3.804940e-03 -2.051298e-03 -1.913261e-03 -8.034746e-04 -1.054063e-03 -3.232245e-04 -6.267500e-04 -1.580043e-04 -3.811553e-04 -1.308344e-04 -2.242597e-04 -1.930778e-04 -1.091911e-04 -3.126169e-04 1.843156e-05 -4.597839e-04 1.910697e-04 -6.170532e-04 4.091260e-04 -7.822028e-04 6.316371e-04 -9.518640e-04 8.176797e-04 -1.092142e-03 9.288623e-04 -1.162859e-03 9.339809e-04 -1.105318e-03 8.233750e-04 -8.772458e-04 5.727458e-04 -4.819167e-04 1.569791e-04 4.446216e-05 -4.273574e-04 6.577094e-04 -1.123044e-03 1.321616e-03 -1.839455e-03 1.955239e-03 -2.492335e-03 2.416081e-03 -2.999554e-03 2.453437e-03 -3.247163e-03 1.540057e-03 -2.897336e-03 -2.141363e-03 4.991458e-03 -2.449261e-03 4.979275e-04 -3.622082e-03 -1.014157e-03 
-1.055796e-02 -8.022812e-03 -7.082021e-03 -1.430681e-03 4.625380e-03 1.511683e-02 3.129885e-03 1.143359e-02 2.148229e-03 6.555152e-03 -1.398938e-03 -1.404274e-03 -1.157608e-02 -1.588144e-02 -2.081451e-02 -2.188604e-02 -2.322741e-02 -2.364036e-02 -2.154361e-02 -2.090392e-02 -1.596350e-02 -1.007641e-02 -1.939371e-03 -1.079612e-04 4.691301e-03 4.025533e-03 7.639794e-03 5.820707e-03 9.023399e-03 6.663984e-03 9.664378e-03 7.157475e-03 9.934194e-03 7.557783e-03 9.960647e-03 7.906652e-03 9.793505e-03 8.222480e-03 9.512442e-03 8.519272e-03 9.205280e-03 8.811262e-03 8.938947e-03 9.044404e-03 8.686399e-03 9.123843e-03 8.413691e-03 8.986858e-03 8.072578e-03 8.595283e-03 7.633561e-03 7.981363e-03 7.035588e-03 7.122368e-03 6.018656e-03 5.533686e-03 2.521528e-03 7.623109e-04 4.959120e-03 3.671588e-03 9.997119e-03 1.117369e-02 8.873172e-03 6.497545e-03 6.971282e-03 6.783849e-03 7.328746e-03 1.071650e-02 9.480700e-03 1.537181e-02 1.843392e-02 1.885265e-02 2.352009e-02 1.562299e-02 1.562759e-02 1.184387e-02 1.259842e-02 1.063913e-02 1.124555e-02 1.026280e-02 1.063467e-02 1.021654e-02 1.039284e-02 1.028353e-02 1.031294e-02 1.033873e-02 1.024083e-02 1.034710e-02 1.014426e-02 1.038092e-02 1.004531e-02 1.049777e-02 9.954200e-03 1.070906e-02 9.845605e-03 1.094802e-02 9.687023e-03 1.116439e-02 9.513419e-03 1.131776e-02 9.363102e-03 1.137656e-02 9.325618e-03 1.135725e-02 9.472616e-03 1.122915e-02 9.797932e-03 1.094059e-02 1.024969e-02 1.045335e-02 1.078385e-02 9.829880e-03 1.141474e-02 9.179999e-03 1.211488e-02 8.587174e-03 1.283071e-02 8.131996e-03 1.350246e-02 7.978832e-03 1.414251e-02 8.846659e-03 1.464972e-02 1.413147e-02 -1.728085e-03 -3.409597e-03 -9.210658e-03 -8.523270e-03 
-9.388477e-03 -9.264369e-03 -6.191616e-03 -3.756975e-03 4.634424e-03 1.154350e-02 2.678130e-02 2.048240e-02 2.273437e-02 2.124297e-02 2.026412e-02 2.137684e-02 1.773541e-02 2.315898e-02 2.187740e-02 2.596706e-02 2.278133e-02 2.663980e-02 2.239734e-02 2.530107e-02 2.031695e-02 2.051380e-02 1.994021e-02 2.130858e-02 2.059587e-02 2.155489e-02 2.111265e-02 2.155538e-02 2.154096e-02 2.145480e-02 2.186937e-02 2.132940e-02 2.210108e-02 2.121961e-02 2.222529e-02 2.112132e-02 2.223217e-02 2.103417e-02 2.213186e-02 2.095635e-02 2.193951e-02 2.087802e-02 2.166244e-02 2.074607e-02 2.126747e-02 2.046374e-02 2.069813e-02 1.990461e-02 1.984367e-02 1.888727e-02 1.849760e-02 1.714078e-02 1.625523e-02 1.415635e-02 1.231462e-02 8.756068e-03 4.421689e-03 -8.367302e-04 4.748222e-03 3.186605e-03 6.742525e-03 6.684706e-03 7.818272e-03 1.011004e-02 9.975897e-03 1.439725e-02 1.356533e-02 1.945179e-02 2.044477e-02 2.515647e-02 2.884324e-02 2.999380e-02 3.339313e-02 2.878866e-02 2.798977e-02 2.567023e-02 2.516552e-02 2.436995e-02 2.371105e-02 2.372370e-02 2.292335e-02 2.334295e-02 2.251256e-02 2.307126e-02 2.231650e-02 2.283685e-02 2.222382e-02 2.261891e-02 2.218367e-02 2.244117e-02 2.217590e-02 2.232496e-02 2.218209e-02 2.227698e-02 2.217491e-02 2.227943e-02 2.212629e-02 2.232091e-02 2.203529e-02 2.239486e-02 2.190558e-02 2.249466e-02 2.176175e-02 2.262715e-02 2.162822e-02 2.277959e-02 2.150813e-02 2.292435e-02 2.139501e-02 2.303231e-02 2.129569e-02 2.310350e-02 2.124945e-02 2.314988e-02 2.129707e-02 2.316769e-02 2.149724e-02 2.313802e-02 2.199147e-02 2.300790e-02 2.323828e-02 2.251587e-02 2.714718e-02 9.956758e-03 2.148230e-03 -5.058422e-03 -7.225102e-03 -9.664800e-03 
-3.299971e-02 -3.569185e-02 -3.490799e-02 -3.964103e-02 -4.156891e-02 -4.933435e-02 -2.632177e-02 -3.949894e-02 -2.711657e-02 -3.408252e-02 -2.498497e-02 -2.826638e-02 -1.837403e-02 -2.255768e-02 -2.145371e-02 -2.232912e-02 -2.241577e-02 -2.210852e-02 -2.267046e-02 -2.166953e-02 -2.232816e-02 -2.015111e-02 -2.781693e-02 -2.658967e-02 -3.124519e-02 -2.950457e-02 -3.275499e-02 -3.093586e-02 -3.343985e-02 -3.172168e-02 -3.369375e-02 -3.223744e-02 -3.371596e-02 -3.265050e-02 -3.356686e-02 -3.296938e-02 -3.326468e-02 -3.319431e-02 -3.286385e-02 -3.332330e-02 -3.242270e-02 -3.335171e-02 -3.196648e-02 -3.320087e-02 -3.140629e-02 -3.273167e-02 -3.060701e-02 -3.178893e-02 -2.935202e-02 -3.014548e-02 -2.732011e-02 -2.745992e-02 -2.392494e-02 -2.301049e-02 -1.793295e-02 -1.491883e-02 -5.085885e-03 4.010917e-04 -6.603215e-03 -6.505950e-03 -1.224197e-02 -1.437420e-02 -1.377340e-02 -1.642932e-02 -1.616421e-02 -2.216186e-02 -2.174210e-02 -3.118371e-02 -3.249027e-02 -4.214974e-02 -4.876029e-02 -5.104300e-02 -5.740149e-02 -4.752250e-02 -4.569833e-02 -4.050675e-02 -4.033183e-02 -3.756789e-02 -3.772827e-02 -3.618355e-02 -3.635188e-02 -3.553216e-02 -3.559482e-02 -3.523822e-02 -3.514401e-02 -3.508086e-02 -3.479702e-02 -3.496259e-02 -3.449779e-02 -3.491292e-02 -3.425506e-02 -3.496240e-02 -3.407131e-02 -3.510731e-02 -3.391601e-02 -3.527434e-02 -3.375147e-02 -3.541095e-02 -3.360379e-02 -3.547661e-02 -3.350130e-02 -3.544267e-02 -3.352296e-02 -3.532965e-02 -3.373151e-02 -3.511375e-02 -3.411684e-02 -3.475325e-02 -3.462669e-02 -3.421899e-02 -3.521556e-02 -3.357899e-02 -3.589498e-02 -3.295148e-02 -3.664032e-02 -3.244576e-02 -3.741077e-02 -3.221057e-02 -3.816285e-02 -3.259891e-02 -3.889092e-02 -3.487593e-02 -3.879067e-02 -4.935019e-02 -3.528084e-02 -3.821964e-02 -3.290060e-02 -3.541609e-02 
-3.714714e-02 -3.917031e-02 -4.027692e-02 -4.492221e-02 -5.066661e-02 -6.030136e-02 -5.804206e-02 -6.038199e-02 -5.486642e-02 -5.670703e-02 -5.161942e-02 -5.192687e-02 -4.605778e-02 -4.631598e-02 -4.608300e-02 -4.626010e-02 -4.622812e-02 -4.618377e-02 -4.631239e-02 -4.611875e-02 -4.629730e-02 -4.614506e-02 -5.233497e-02 -5.244067e-02 -5.567590e-02 -5.512205e-02 -5.735312e-02 -5.636441e-02 -5.826848e-02 -5.696413e-02 -5.874677e-02 -5.729361e-02 -5.895852e-02 -5.752542e-02 -5.896196e-02 -5.768747e-02 -5.877794e-02 -5.778757e-02 -5.844948e-02 -5.782140e-02 -5.801793e-02 -5.776982e-02 -5.749403e-02 -5.753832e-02 -5.679227e-02 -5.696036e-02 -5.577256e-02 -5.582431e-02 -5.419944e-02 -5.382339e-02 -5.170433e-02 -5.051096e-02 -4.766221e-02 -4.510616e-02 -4.102258e-02 -3.626197e-02 -2.987074e-02 -2.330639e-02 -2.758178e-02 -2.916217e-02 -2.870337e-02 -3.219211e-02 -3.252299e-02 -3.704634e-02 -3.645574e-02 -4.056802e-02 -3.974503e-02 -4.091859e-02 -4.311640e-02 -3.928137e-02 -4.406626e-02 -3.954483e-02 -4.440101e-02 -4.760641e-02 -5.199332e-02 -5.284887e-02 -5.529242e-02 -5.580563e-02 -5.712155e-02 -5.754627e-02 -5.812202e-02 -5.854502e-02 -5.868328e-02 -5.910347e-02 -5.900124e-02 -5.937752e-02 -5.914237e-02 -5.947425e-02 -5.917431e-02 -5.951818e-02 -5.915944e-02 -5.959130e-02 -5.912694e-02 -5.972384e-02 -5.906645e-02 -5.987986e-02 -5.895507e-02 -6.002922e-02 -5.881630e-02 -6.014695e-02 -5.867722e-02 -6.021276e-02 -5.860306e-02 -6.023933e-02 -5.864840e-02 -6.020452e-02 -5.881323e-02 -6.006839e-02 -5.906586e-02 -5.980001e-02 -5.938403e-02 -5.944268e-02 -5.979386e-02 -5.908217e-02 -6.030491e-02 -5.880432e-02 -6.093473e-02 -5.872959e-02 -6.176349e-02 -5.908435e-02 -6.308518e-02 -6.032815e-02 -6.560477e-02 -5.860377e-02 -4.551832e-02 -4.284279e-02 -3.833454e-02 -3.860393e-02 
-4.783972e-02 -4.986601e-02 -4.936716e-02 -5.285068e-02 -5.363560e-02 -5.943082e-02 -6.214178e-02 -6.309240e-02 -6.133157e-02 -6.352369e-02 -6.179271e-02 -6.373627e-02 -6.316775e-02 -6.346749e-02 -6.318681e-02 -6.339822e-02 -6.336058e-02 -6.330018e-02 -6.346587e-02 -6.320747e-02 -6.346001e-02 -6.321415e-02 -6.348495e-02 -6.289583e-02 -6.333500e-02 -6.266299e-02 -6.334889e-02 -6.252188e-02 -6.340994e-02 -6.244636e-02 -6.345856e-02 -6.242657e-02 -6.346129e-02 -6.244941e-02 -6.339419e-02 -6.249007e-02 -6.324428e-02 -6.252471e-02 -6.301257e-02 -6.252861e-02 -6.270372e-02 -6.246955e-02 -6.231290e-02 -6.229426e-02 -6.181238e-02 -6.193188e-02 -6.116244e-02 -6.131374e-02 -6.032866e-02 -6.040616e-02 -5.933767e-02 -5.929867e-02 -5.842166e-02 -5.840374e-02 -5.839916e-02 -5.913785e-02 -6.241496e-02 -6.563510e-02 -6.283790e-02 -6.444291e-02 -6.164319e-02 -6.165065e-02 -6.093811e-02 -5.770054e-02 -5.844194e-02 -5.499971e-02 -5.710046e-02 -5.319581e-02 -5.509222e-02 -5.342637e-02 -5.181401e-02 -5.061672e-02 -4.856144e-02 -5.348266e-02 -5.683475e-02 -5.904058e-02 -6.062344e-02 -6.160665e-02 -6.232593e-02 -6.291804e-02 -6.312096e-02 -6.359659e-02 -6.349293e-02 -6.393950e-02 -6.366023e-02 -6.409932e-02 -6.371712e-02 -6.416500e-02 -6.371236e-02 -6.420039e-02 -6.367514e-02 -6.424501e-02 -6.361937e-02 -6.431368e-02 -6.354741e-02 -6.439876e-02 -6.345967e-02 -6.448567e-02 -6.336783e-02 -6.455927e-02 -6.329048e-02 -6.460619e-02 -6.325357e-02 -6.461860e-02 -6.327788e-02 -6.458428e-02 -6.336712e-02 -6.448939e-02 -6.351113e-02 -6.432900e-02 -6.369638e-02 -6.412023e-02 -6.391113e-02 -6.389579e-02 -6.413118e-02 -6.368982e-02 -6.431234e-02 -6.352753e-02 -6.438079e-02 -6.337737e-02 -6.420654e-02 -6.293596e-02 -6.382618e-02 -5.748109e-02 -5.328362e-02 -5.168820e-02 -4.898436e-02 -4.946972e-02 
-4.696687e-02 -4.831855e-02 -4.860928e-02 -5.113287e-02 -5.229431e-02 -5.553269e-02 -5.686868e-02 -5.936826e-02 -6.046227e-02 -6.275348e-02 -6.549175e-02 -6.748497e-02 -7.388692e-02 -7.401666e-02 -7.393380e-02 -7.400213e-02 -7.398353e-02 -7.396924e-02 -7.401817e-02 -7.392910e-02 -7.402450e-02 -7.387330e-02 -6.666546e-02 -6.581354e-02 -6.277146e-02 -6.210891e-02 -6.105201e-02 -6.022713e-02 -6.024279e-02 -5.924539e-02 -5.984744e-02 -5.874091e-02 -5.962646e-02 -5.850103e-02 -5.945873e-02 -5.840596e-02 -5.928469e-02 -5.838399e-02 -5.908125e-02 -5.838673e-02 -5.884160e-02 -5.837308e-02 -5.855962e-02 -5.829814e-02 -5.822047e-02 -5.811665e-02 -5.780836e-02 -5.780030e-02 -5.732518e-02 -5.737108e-02 -5.684030e-02 -5.697933e-02 -5.660483e-02 -5.706312e-02 -5.728550e-02 -5.873354e-02 -6.090950e-02 -6.504666e-02 -6.416650e-02 -6.346824e-02 -6.487104e-02 -6.261083e-02 -6.442735e-02 -6.304172e-02 -6.497425e-02 -6.382806e-02 -6.590304e-02 -6.520751e-02 -6.577907e-02 -6.689580e-02 -6.556111e-02 -6.790532e-02 -6.630418e-02 -6.278843e-02 -6.166748e-02 -6.032459e-02 -6.023653e-02 -5.953585e-02 -5.967281e-02 -5.933344e-02 -5.948450e-02 -5.935818e-02 -5.945004e-02 -5.944959e-02 -5.946384e-02 -5.954447e-02 -5.947527e-02 -5.962826e-02 -5.946605e-02 -5.971077e-02 -5.943440e-02 -5.980453e-02 -5.938300e-02 -5.991299e-02 -5.931434e-02 -6.002718e-02 -5.923371e-02 -6.013321e-02 -5.915495e-02 -6.021629e-02 -5.909743e-02 -6.026314e-02 -5.908383e-02 -6.026360e-02 -5.913073e-02 -6.020582e-02 -5.924051e-02 -6.007892e-02 -5.940279e-02 -5.988021e-02 -5.959990e-02 -5.962106e-02 -5.980615e-02 -5.931648e-02 -5.997108e-02 -5.896274e-02 -5.999695e-02 -5.850572e-02 -5.969644e-02 -5.777868e-02 -5.870673e-02 -5.639594e-02 -5.641703e-02 -5.344928e-02 -5.120696e-02 -4.969687e-02 -4.785029e-02 -4.781091e-02 
-5.180443e-02 -5.331818e-02 -5.300014e-02 -5.553569e-02 -5.605781e-02 -5.910971e-02 -6.039350e-02 -6.274244e-02 -6.400189e-02 -6.627414e-02 -6.889107e-02 -7.096445e-02 -7.713153e-02 -7.729931e-02 -7.717567e-02 -7.726941e-02 -7.724785e-02 -7.721609e-02 -7.730448e-02 -7.716076e-02 -7.732116e-02 -7.710527e-02 -6.982705e-02 -6.897135e-02 -6.606994e-02 -6.547107e-02 -6.450637e-02 -6.381575e-02 -6.382341e-02 -6.302405e-02 -6.352862e-02 -6.266401e-02 -6.339764e-02 -6.253387e-02 -6.332729e-02 -6.253443e-02 -6.327429e-02 -6.261572e-02 -6.322860e-02 -6.275281e-02 -6.319876e-02 -6.293452e-02 -6.320501e-02 -6.316201e-02 -6.328013e-02 -6.345551e-02 -6.347604e-02 -6.386638e-02 -6.387373e-02 -6.449060e-02 -6.459009e-02 -6.547277e-02 -6.575878e-02 -6.695857e-02 -6.739836e-02 -6.889740e-02 -6.933219e-02 -7.188145e-02 -7.103974e-02 -7.100139e-02 -7.183511e-02 -7.124495e-02 -7.186834e-02 -7.176276e-02 -7.278380e-02 -7.166276e-02 -7.258806e-02 -7.158852e-02 -7.172273e-02 -7.107648e-02 -6.988546e-02 -7.084160e-02 -6.865651e-02 -6.652101e-02 -6.514199e-02 -6.444787e-02 -6.391122e-02 -6.370285e-02 -6.346000e-02 -6.345862e-02 -6.331485e-02 -6.341438e-02 -6.328542e-02 -6.344520e-02 -6.329105e-02 -6.350282e-02 -6.329609e-02 -6.357210e-02 -6.328529e-02 -6.365143e-02 -6.325410e-02 -6.374216e-02 -6.320356e-02 -6.384251e-02 -6.313817e-02 -6.394591e-02 -6.306611e-02 -6.404246e-02 -6.299968e-02 -6.412095e-02 -6.295380e-02 -6.417021e-02 -6.294279e-02 -6.417988e-02 -6.297601e-02 -6.414073e-02 -6.305423e-02 -6.404626e-02 -6.316928e-02 -6.389618e-02 -6.330514e-02 -6.369623e-02 -6.343398e-02 -6.344826e-02 -6.350344e-02 -6.312885e-02 -6.341581e-02 -6.265313e-02 -6.299388e-02 -6.181273e-02 -6.192611e-02 -6.019890e-02 -5.973206e-02 -5.725745e-02 -5.558673e-02 -5.436368e-02 -5.270444e-02 -5.291514e-02 
-4.696554e-02 -4.831384e-02 -4.860756e-02 -5.113075e-02 -5.229240e-02 -5.553251e-02 -5.686794e-02 -5.936573e-02 -6.046282e-02 -6.275071e-02 -6.549248e-02 -6.748343e-02 -7.388750e-02 -7.401748e-02 -7.393465e-02 -7.400385e-02 -7.398479e-02 -7.397226e-02 -7.401982e-02 -7.393323e-02 -7.402627e-02 -7.387709e-02 -6.667251e-02 -6.584060e-02 -6.278204e-02 -6.215107e-02 -6.106716e-02 -6.028081e-02 -6.027300e-02 -5.931674e-02 -5.991435e-02 -5.884129e-02 -5.975271e-02 -5.864107e-02 -5.966922e-02 -5.860523e-02 -5.961560e-02 -5.867991e-02 -5.958607e-02 -5.884163e-02 -5.959504e-02 -5.907939e-02 -5.966655e-02 -5.939717e-02 -5.984042e-02 -5.982252e-02 -6.017410e-02 -6.040924e-02 -6.073948e-02 -6.123125e-02 -6.160125e-02 -6.234906e-02 -6.274905e-02 -6.369460e-02 -6.384625e-02 -6.457517e-02 -6.338781e-02 -6.451077e-02 -6.465691e-02 -6.453695e-02 -6.555339e-02 -6.489889e-02 -6.607429e-02 -6.498285e-02 -6.681266e-02 -6.611249e-02 -6.747777e-02 -6.823766e-02 -6.898431e-02 -7.105746e-02 -7.111556e-02 -7.335574e-02 -7.105537e-02 -6.729955e-02 -6.583573e-02 -6.386687e-02 -6.314436e-02 -6.193377e-02 -6.161125e-02 -6.081574e-02 -6.073686e-02 -6.018235e-02 -6.024204e-02 -5.984258e-02 -5.996179e-02 -5.968549e-02 -5.979469e-02 -5.964414e-02 -5.967640e-02 -5.967715e-02 -5.957085e-02 -5.975969e-02 -5.946171e-02 -5.987234e-02 -5.934566e-02 -5.999765e-02 -5.923003e-02 -6.011787e-02 -5.912905e-02 -6.021643e-02 -5.906242e-02 -6.027844e-02 -5.904797e-02 -6.028896e-02 -5.909660e-02 -6.023455e-02 -5.920727e-02 -6.010387e-02 -5.936849e-02 -5.989784e-02 -5.956626e-02 -5.963301e-02 -5.977850e-02 -5.932759e-02 -5.995534e-02 -5.897477e-02 -5.999258e-02 -5.851419e-02 -5.969946e-02 -5.778005e-02 -5.871399e-02 -5.638928e-02 -5.642492e-02 -5.343824e-02 -5.120806e-02 -4.968603e-02 -4.784956e-02 -4.780310e-02 
-4.783791e-02 -4.985626e-02 -4.936453e-02 -5.284688e-02 -5.363274e-02 -5.943457e-02 -6.214090e-02 -6.308259e-02 -6.133478e-02 -6.351465e-02 -6.179598e-02 -6.373098e-02 -6.316894e-02 -6.346661e-02 -6.318892e-02 -6.340011e-02 -6.336321e-02 -6.330596e-02 -6.346860e-02 -6.321758e-02 -6.346320e-02 -6.322591e-02 -6.351170e-02 -6.295900e-02 -6.337737e-02 -6.276135e-02 -6.340726e-02 -6.264944e-02 -6.350455e-02 -6.261670e-02 -6.363293e-02 -6.266423e-02 -6.376082e-02 -6.277720e-02 -6.386853e-02 -6.294810e-02 -6.396422e-02 -6.318544e-02 -6.408034e-02 -6.350862e-02 -6.425830e-02 -6.393564e-02 -6.454295e-02 -6.449725e-02 -6.500119e-02 -6.525318e-02 -6.572587e-02 -6.629581e-02 -6.683792e-02 -6.775154e-02 -6.848176e-02 -6.977812e-02 -7.082859e-02 -7.256572e-02 -7.407382e-02 -7.632148e-02 -7.816194e-02 -7.906111e-02 -7.663742e-02 -7.642785e-02 -7.479051e-02 -7.477146e-02 -7.374298e-02 -7.395341e-02 -7.262595e-02 -7.187248e-02 -7.053994e-02 -6.878077e-02 -6.683054e-02 -6.376750e-02 -6.268403e-02 -6.126053e-02 -6.179032e-02 -6.310023e-02 -6.339667e-02 -6.388021e-02 -6.378144e-02 -6.392055e-02 -6.378753e-02 -6.378276e-02 -6.372181e-02 -6.365108e-02 -6.367502e-02 -6.358346e-02 -6.366025e-02 -6.358959e-02 -6.366149e-02 -6.365736e-02 -6.365277e-02 -6.376800e-02 -6.361749e-02 -6.390840e-02 -6.355100e-02 -6.406529e-02 -6.345750e-02 -6.422633e-02 -6.335067e-02 -6.437750e-02 -6.324865e-02 -6.450552e-02 -6.317556e-02 -6.459824e-02 -6.315142e-02 -6.464112e-02 -6.318880e-02 -6.462100e-02 -6.328671e-02 -6.452439e-02 -6.343366e-02 -6.435406e-02 -6.362378e-02 -6.413741e-02 -6.385248e-02 -6.391349e-02 -6.409709e-02 -6.371093e-02 -6.430114e-02 -6.354302e-02 -6.438445e-02 -6.338040e-02 -6.421863e-02 -6.292433e-02 -6.383964e-02 -5.745698e-02 -5.328389e-02 -5.166561e-02 -4.898358e-02 -4.945374e-02 
-3.714161e-02 -3.915750e-02 -4.027025e-02 -4.491820e-02 -5.065585e-02 -6.031350e-02 -5.804231e-02 -6.037154e-02 -5.487153e-02 -5.669495e-02 -5.162232e-02 -5.191721e-02 -4.605765e-02 -4.631610e-02 -4.608509e-02 -4.626390e-02 -4.623208e-02 -4.619373e-02 -4.631854e-02 -4.613671e-02 -4.630568e-02 -4.616977e-02 -5.235291e-02 -5.254004e-02 -5.568928e-02 -5.525392e-02 -5.734711e-02 -5.649349e-02 -5.826420e-02 -5.712396e-02 -5.884675e-02 -5.753910e-02 -5.922244e-02 -5.784664e-02 -5.942449e-02 -5.810236e-02 -5.951736e-02 -5.837297e-02 -5.960126e-02 -5.873176e-02 -5.975361e-02 -5.918784e-02 -6.000244e-02 -5.975623e-02 -6.042588e-02 -6.051243e-02 -6.114065e-02 -6.157297e-02 -6.230141e-02 -6.308376e-02 -6.406269e-02 -6.520122e-02 -6.665643e-02 -6.823742e-02 -7.060880e-02 -7.307088e-02 -7.746622e-02 -7.817089e-02 -7.412796e-02 -7.400976e-02 -7.039570e-02 -7.043612e-02 -6.841114e-02 -6.865055e-02 -6.597143e-02 -6.471939e-02 -6.269533e-02 -5.989659e-02 -5.865553e-02 -5.456449e-02 -5.402272e-02 -5.031858e-02 -5.237024e-02 -5.586575e-02 -5.721091e-02 -5.839128e-02 -5.888760e-02 -5.914131e-02 -5.945445e-02 -5.924904e-02 -5.958704e-02 -5.913844e-02 -5.957933e-02 -5.902049e-02 -5.955498e-02 -5.898756e-02 -5.954271e-02 -5.904658e-02 -5.950209e-02 -5.916522e-02 -5.941213e-02 -5.933693e-02 -5.927212e-02 -5.953829e-02 -5.908669e-02 -5.975496e-02 -5.888344e-02 -5.996048e-02 -5.868480e-02 -6.013442e-02 -5.854227e-02 -6.026697e-02 -5.849031e-02 -6.033174e-02 -5.855536e-02 -6.031062e-02 -5.872788e-02 -6.015057e-02 -5.896257e-02 -5.984118e-02 -5.926811e-02 -5.945551e-02 -5.969280e-02 -5.910574e-02 -6.026422e-02 -5.885631e-02 -6.093990e-02 -5.876692e-02 -6.178472e-02 -5.908894e-02 -6.312033e-02 -6.029521e-02 -6.565795e-02 -5.855006e-02 -4.550001e-02 -4.279664e-02 -3.832595e-02 -3.857933e-02 
-3.299399e-02 -3.567202e-02 -3.489888e-02 -3.962748e-02 -4.155094e-02 -4.932987e-02 -2.632148e-02 -3.951118e-02 -2.711588e-02 -3.408928e-02 -2.498465e-02 -2.826326e-02 -1.838074e-02 -2.255533e-02 -2.146259e-02 -2.233354e-02 -2.242454e-02 -2.211988e-02 -2.267427e-02 -2.169447e-02 -2.233547e-02 -2.020991e-02 -2.784123e-02 -2.671442e-02 -3.126369e-02 -2.965246e-02 -3.275533e-02 -3.106700e-02 -3.344778e-02 -3.188047e-02 -3.383452e-02 -3.248862e-02 -3.404841e-02 -3.296456e-02 -3.410764e-02 -3.334488e-02 -3.407502e-02 -3.369456e-02 -3.405912e-02 -3.409284e-02 -3.413247e-02 -3.453166e-02 -3.429018e-02 -3.500088e-02 -3.457446e-02 -3.554990e-02 -3.504913e-02 -3.624530e-02 -3.578059e-02 -3.712979e-02 -3.675333e-02 -3.815377e-02 -3.791295e-02 -3.929374e-02 -3.926874e-02 -4.065802e-02 -4.119319e-02 -4.215796e-02 -4.059487e-02 -4.111559e-02 -3.933430e-02 -3.941357e-02 -3.869689e-02 -3.875375e-02 -3.768473e-02 -3.708417e-02 -3.600774e-02 -3.474050e-02 -3.417420e-02 -3.263228e-02 -3.246412e-02 -3.138389e-02 -3.160705e-02 -3.233759e-02 -3.240017e-02 -3.278616e-02 -3.283159e-02 -3.309014e-02 -3.318603e-02 -3.330267e-02 -3.344261e-02 -3.344100e-02 -3.363427e-02 -3.357458e-02 -3.379713e-02 -3.375839e-02 -3.393700e-02 -3.399252e-02 -3.400260e-02 -3.424457e-02 -3.397867e-02 -3.451846e-02 -3.387763e-02 -3.479093e-02 -3.371783e-02 -3.504845e-02 -3.354584e-02 -3.525767e-02 -3.339654e-02 -3.539253e-02 -3.334035e-02 -3.544330e-02 -3.342134e-02 -3.538003e-02 -3.367142e-02 -3.518696e-02 -3.407371e-02 -3.480193e-02 -3.455978e-02 -3.421973e-02 -3.512666e-02 -3.354470e-02 -3.581527e-02 -3.293054e-02 -3.662858e-02 -3.246038e-02 -3.744680e-02 -3.220317e-02 -3.820987e-02 -3.254924e-02 -3.895268e-02 -3.478206e-02 -3.888207e-02 -4.927166e-02 -3.526724e-02 -3.815620e-02 -3.289326e-02 -3.538253e-02 
-9.392880e-03 -9.253508e-03 -6.192310e-03 -3.744353e-03 4.636931e-03 1.156734e-02 2.679054e-02 2.045814e-02 2.275318e-02 2.121579e-02 2.028422e-02 2.135593e-02 1.775823e-02 2.315084e-02 2.189742e-02 2.596384e-02 2.280980e-02 2.663289e-02 2.244458e-02 2.529316e-02 2.037562e-02 2.052162e-02 2.000014e-02 2.136683e-02 2.064568e-02 2.164182e-02 2.114163e-02 2.165466e-02 2.155525e-02 2.158505e-02 2.191723e-02 2.152290e-02 2.221284e-02 2.147845e-02 2.242185e-02 2.146073e-02 2.255786e-02 2.149270e-02 2.266006e-02 2.160230e-02 2.276009e-02 2.178367e-02 2.286600e-02 2.202934e-02 2.300793e-02 2.235339e-02 2.322497e-02 2.277781e-02 2.355754e-02 2.332152e-02 2.401588e-02 2.397782e-02 2.459318e-02 2.475353e-02 2.531584e-02 2.575168e-02 2.649088e-02 2.687929e-02 2.581435e-02 2.622495e-02 2.489058e-02 2.529017e-02 2.452833e-02 2.495993e-02 2.398589e-02 2.389367e-02 2.302826e-02 2.231549e-02 2.191306e-02 2.080005e-02 2.090356e-02 1.992262e-02 2.046296e-02 2.074907e-02 2.107619e-02 2.105183e-02 2.135008e-02 2.119397e-02 2.157283e-02 2.128376e-02 2.175769e-02 2.134621e-02 2.191177e-02 2.141014e-02 2.204315e-02 2.149397e-02 2.215126e-02 2.159433e-02 2.221759e-02 2.169755e-02 2.223771e-02 2.180812e-02 2.221498e-02 2.192511e-02 2.215002e-02 2.205253e-02 2.205073e-02 2.218950e-02 2.192104e-02 2.233738e-02 2.177965e-02 2.250023e-02 2.163922e-02 2.267080e-02 2.151208e-02 2.284189e-02 2.139684e-02 2.298379e-02 2.127986e-02 2.307997e-02 2.118115e-02 2.314600e-02 2.114910e-02 2.320638e-02 2.123140e-02 2.324662e-02 2.145783e-02 2.321795e-02 2.196157e-02 2.307704e-02 2.321390e-02 2.256648e-02 2.712963e-02 9.975294e-03 2.123823e-03 -5.048034e-03 -7.236330e-03 -9.653669e-03 
-1.056526e-02 -8.021453e-03 -7.088431e-03 -1.427071e-03 4.614165e-03 1.512942e-02 3.139260e-03 1.143262e-02 2.165180e-03 6.544973e-03 -1.377402e-03 -1.421478e-03 -1.154193e-02 -1.589518e-02 -2.077268e-02 -2.189225e-02 -2.319263e-02 -2.362390e-02 -2.154398e-02 -2.085070e-02 -1.601247e-02 -1.000048e-02 -1.959520e-03 8.073078e-06 4.655950e-03 4.143867e-03 7.556260e-03 5.898759e-03 8.897220e-03 6.741487e-03 9.603314e-03 7.291426e-03 9.976151e-03 7.701698e-03 1.009623e-02 8.032006e-03 1.005172e-02 8.348882e-03 9.965055e-03 8.723598e-03 9.916478e-03 9.130873e-03 9.902169e-03 9.538834e-03 9.962652e-03 9.974422e-03 1.015481e-02 1.048240e-02 1.053285e-02 1.108741e-02 1.106307e-02 1.172913e-02 1.166954e-02 1.238694e-02 1.231619e-02 1.307237e-02 1.296805e-02 1.378067e-02 1.297589e-02 1.355061e-02 1.258772e-02 1.260065e-02 1.223188e-02 1.193726e-02 1.182516e-02 1.100139e-02 1.136073e-02 1.005382e-02 1.093551e-02 9.469767e-03 1.021951e-02 9.019543e-03 9.614712e-03 9.100815e-03 9.857280e-03 9.298934e-03 1.015532e-02 9.450674e-03 1.038617e-02 9.503087e-03 1.049771e-02 9.488501e-03 1.054043e-02 9.495401e-03 1.056406e-02 9.586226e-03 1.057789e-02 9.759913e-03 1.052835e-02 9.980589e-03 1.039801e-02 1.025087e-02 1.019664e-02 1.054506e-02 9.938108e-03 1.084579e-02 9.665617e-03 1.111505e-02 9.413046e-03 1.132235e-02 9.254199e-03 1.145353e-02 9.238163e-03 1.147302e-02 9.401645e-03 1.135857e-02 9.728668e-03 1.103890e-02 1.014821e-02 1.050086e-02 1.065707e-02 9.843753e-03 1.129747e-02 9.212482e-03 1.206819e-02 8.662281e-03 1.283434e-02 8.190511e-03 1.351813e-02 7.996494e-03 1.417206e-02 8.814033e-03 1.470909e-02 1.409799e-02 -1.758940e-03 -3.437421e-03 -9.225394e-03 -8.529263e-03 
-3.537195e-03 -3.354763e-04 -1.964284e-03 2.728068e-03 1.279222e-03 7.208919e-03 -8.911067e-03 2.203965e-03 -4.447704e-03 1.152145e-03 -1.962540e-04 9.662948e-04 5.162499e-03 1.039323e-04 1.098720e-03 -2.774798e-03 3.857204e-04 -3.544499e-03 8.743322e-04 -2.295150e-03 2.935703e-03 2.466404e-03 1.999711e-03 -6.756528e-05 7.940216e-04 -1.327703e-03 2.312311e-04 -1.976052e-03 -7.960405e-05 -2.247446e-03 -2.546548e-04 -2.259743e-03 -3.909390e-04 -2.130488e-03 -5.562666e-04 -1.932582e-03 -7.572656e-04 -1.693128e-03 -9.544083e-04 -1.415242e-03 -1.111156e-03 -1.129208e-03 -1.222638e-03 -8.638615e-04 -1.272178e-03 -6.190678e-04 -1.238291e-03 -3.787469e-04 -1.102280e-03 -1.278279e-04 -8.799893e-04 1.224156e-04 -6.053894e-04 3.756722e-04 -3.313449e-04 5.700884e-04 -2.909374e-04 8.111115e-04 2.176857e-04 1.137729e-03 7.624135e-04 8.837139e-04 8.036376e-04 1.301731e-04 5.898184e-04 -5.815475e-04 3.732921e-04 -9.936161e-04 2.815435e-04 -7.163255e-04 -9.663552e-05 -9.881004e-04 -1.043328e-03 -1.693253e-03 -1.228704e-03 -1.633820e-03 -9.762918e-04 -1.382416e-03 -6.932632e-04 -1.157229e-03 -5.003112e-04 -9.867560e-04 -3.845620e-04 -8.324504e-04 -3.198872e-04 -6.598606e-04 -2.998901e-04 -4.591380e-04 -3.427026e-04 -2.341591e-04 -4.499239e-04 1.996634e-05 -6.091701e-04 2.879088e-04 -8.025158e-04 5.477244e-04 -9.958290e-04 7.643588e-04 -1.152013e-03 9.046679e-04 -1.215955e-03 9.441089e-04 -1.143403e-03 8.539729e-04 -9.048852e-04 6.129623e-04 -5.070856e-04 1.883111e-04 7.456754e-06 -4.140040e-04 6.108332e-04 -1.122533e-03 1.278225e-03 -1.833150e-03 1.938920e-03 -2.472165e-03 2.420088e-03 -2.988317e-03 2.464721e-03 -3.254072e-03 1.561082e-03 -2.924755e-03 -2.103693e-03 4.969511e-03 -2.462368e-03 4.825310e-04 -3.629079e-03 -1.018438e-03 
