# vtk DataFile Version 2.0
Comment goes here
ASCII

DATASET STRUCTURED_POINTS
FIELD FieldData 1
TIME 1 1 double
0.51000000
DIMENSIONS    128   16   1

ORIGIN    0.000   0.000   0.000
SPACING   0.0078125 0.015625   1.000

POINT_DATA   2048
SCALARS uX double
LOOKUP_TABLE default

6.224419e-03 1.751060e-03 5.554056e-03 -1.228262e-03 4.337273e-03 -6.063603e-03 7.951074e-03 -1.869338e-03 3.238201e-03 -3.068886e-03 -2.116430e-03 -8.071078e-03 -1.331071e-02 -2.370919e-02 -3.014800e-02 -3.028149e-02 -3.530002e-02 -3.220882e-02 -3.327035e-02 -2.823628e-02 -2.519146e-02 -1.120829e-02 -9.033067e-03 -1.666423e-03 -2.997484e-03 1.876103e-03 -4.489107e-04 3.182462e-03 6.872849e-04 3.522744e-03 1.256860e-03 3.454801e-03 1.613274e-03 3.222870e-03 1.887487e-03 2.935853e-03 2.116723e-03 2.648629e-03 2.304139e-03 2.391594e-03 2.439209e-03 2.177963e-03 2.509366e-03 2.014549e-03 2.517934e-03 1.917195e-03 2.491006e-03 1.903968e-03 2.454381e-03 1.970633e-03 2.411916e-03 2.096762e-03 2.369283e-03 2.317383e-03 2.432647e-03 2.825499e-03 2.326339e-03 2.453141e-03 2.856090e-03 2.444703e-03 3.118676e-03 4.009670e-03 3.060304e-03 3.487202e-03 3.174876e-03 3.835181e-03 3.125384e-03 4.277351e-03 2.094647e-03 2.739921e-03 1.834271e-03 3.318426e-03 3.331401e-03 2.669443e-03 2.337507e-03 2.397049e-03 2.120936e-03 2.272552e-03 1.943217e-03 2.214554e-03 1.798039e-03 2.220582e-03 1.665525e-03 2.242103e-03 1.535202e-03 2.247435e-03 1.435095e-03 2.235094e-03 1.405811e-03 2.195856e-03 1.457934e-03 2.096468e-03 1.573780e-03 1.910129e-03 1.740791e-03 1.649507e-03 1.961991e-03 1.358115e-03 2.227625e-03 1.076875e-03 2.492597e-03 8.361615e-04 2.691383e-03 6.742775e-04 2.766781e-03 6.452468e-04 2.678404e-03 8.012044e-04 2.397955e-03 1.173947e-03 1.917284e-03 1.771526e-03 1.264791e-03 2.572734e-03 5.195516e-04 3.519680e-03 -1.577773e-04 4.510809e-03 -4.570720e-04 5.364439e-03 2.199137e-04 5.650311e-03 3.208581e-03 6.605936e-04 4.666977e-03 2.126050e-03 5.945965e-03 2.771643e-03 
3.225064e-03 -3.877438e-04 2.369067e-03 -3.174819e-03 2.774134e-04 -9.852157e-03 6.452128e-03 -1.914581e-03 1.519053e-03 -5.127196e-04 -2.254568e-03 -7.184560e-05 -7.537693e-03 -3.138606e-04 -4.462424e-03 1.032351e-03 -3.642197e-03 1.218507e-03 -3.594852e-03 -1.216741e-04 -4.267949e-03 -4.151683e-03 -2.697701e-03 -1.193005e-03 -1.574683e-03 2.265914e-04 -9.662625e-04 9.115832e-04 -5.605306e-04 1.174144e-03 -2.266686e-04 1.204265e-03 9.030686e-05 1.100041e-03 3.814413e-04 9.113251e-04 6.310242e-04 6.939836e-04 8.447221e-04 5.027301e-04 1.020957e-03 3.548092e-04 1.127791e-03 2.365010e-04 1.153996e-03 1.759640e-04 1.153902e-03 2.261122e-04 1.171002e-03 3.766378e-04 1.167568e-03 5.410878e-04 1.048508e-03 6.460678e-04 7.282539e-04 5.295683e-04 -9.507941e-04 -1.597210e-03 8.045134e-05 -3.911733e-04 1.582983e-03 1.910224e-03 9.301293e-04 -5.527752e-05 -9.139016e-04 -4.996890e-04 -1.491085e-03 6.715488e-04 -2.607039e-04 3.483392e-03 2.967449e-03 4.299291e-03 3.896194e-03 1.333302e-03 6.501803e-04 -8.210807e-05 -1.045370e-04 -3.606550e-04 -2.398846e-04 -2.729746e-04 -1.854198e-04 -6.812600e-05 -1.351853e-04 1.072625e-04 -1.524265e-04 2.138669e-04 -1.832933e-04 2.921859e-04 -1.489648e-04 3.428665e-04 -5.125324e-05 3.057351e-04 7.360257e-05 1.440612e-04 2.200345e-04 -1.115899e-04 4.248148e-04 -3.851882e-04 7.008373e-04 -6.374099e-04 9.895057e-04 -8.575384e-04 1.212323e-03 -1.014091e-03 1.313073e-03 -1.042766e-03 1.258808e-03 -8.891595e-04 1.003446e-03 -5.324532e-04 5.320877e-04 6.086748e-05 -1.088396e-04 9.027913e-04 -8.447256e-04 1.953605e-03 -1.563791e-03 3.104905e-03 -2.074842e-03 4.146115e-03 -1.945821e-03 4.458918e-03 1.514194e-04 -3.580048e-03 3.353468e-03 -2.372931e-04 3.459854e-03 4.221753e-04 
8.389023e-03 5.899858e-03 6.555277e-03 2.379080e-03 3.759906e-04 -1.030982e-02 -3.739591e-05 -6.988915e-03 5.588207e-04 -3.760745e-03 2.809903e-03 1.048699e-03 9.836126e-03 1.127277e-02 1.583464e-02 1.521315e-02 1.727886e-02 1.682121e-02 1.551955e-02 1.581553e-02 1.098251e-02 9.084807e-03 1.089953e-03 2.285712e-03 -2.988492e-03 -5.139929e-04 -4.773390e-03 -1.884374e-03 -5.534092e-03 -2.647518e-03 -5.753861e-03 -3.136875e-03 -5.672784e-03 -3.525886e-03 -5.478131e-03 -3.917395e-03 -5.276286e-03 -4.298966e-03 -5.070571e-03 -4.604410e-03 -4.864027e-03 -4.836518e-03 -4.738111e-03 -5.066479e-03 -4.736531e-03 -5.258178e-03 -4.750050e-03 -5.303643e-03 -4.693624e-03 -5.232416e-03 -4.653543e-03 -5.235028e-03 -4.789247e-03 -5.487941e-03 -5.184881e-03 -6.085625e-03 -5.084768e-03 -5.087589e-03 -7.087260e-03 -5.569511e-03 -8.887648e-03 -8.897894e-03 -8.864365e-03 -7.195514e-03 -8.693678e-03 -7.667929e-03 -9.020027e-03 -9.590909e-03 -8.704451e-03 -9.699209e-03 -9.769047e-03 -1.070003e-02 -1.138517e-02 -8.178255e-03 -8.330307e-03 -7.201816e-03 -7.335308e-03 -6.645102e-03 -6.640058e-03 -6.119384e-03 -6.134531e-03 -5.690462e-03 -5.862787e-03 -5.442435e-03 -5.823335e-03 -5.341354e-03 -5.867994e-03 -5.238288e-03 -5.833313e-03 -5.103070e-03 -5.744525e-03 -5.061144e-03 -5.685588e-03 -5.192369e-03 -5.652166e-03 -5.449806e-03 -5.536310e-03 -5.705330e-03 -5.270874e-03 -5.930187e-03 -4.940144e-03 -6.165399e-03 -4.654146e-03 -6.399113e-03 -4.467587e-03 -6.548077e-03 -4.401902e-03 -6.554053e-03 -4.542691e-03 -6.420655e-03 -4.936138e-03 -6.085824e-03 -5.537238e-03 -5.504728e-03 -6.326749e-03 -4.725961e-03 -7.347187e-03 -3.915210e-03 -8.696072e-03 -3.299415e-03 -1.030448e-02 -3.262025e-03 -1.133975e-02 -6.250884e-03 6.705672e-03 4.536570e-03 8.523517e-03 6.458846e-03 
6.103797e-03 7.494538e-03 4.841270e-03 6.844945e-03 -3.322515e-04 1.338993e-03 -1.728131e-02 -1.296089e-02 -1.201658e-02 -1.442608e-02 -9.663231e-03 -1.474539e-02 -6.798127e-03 -1.503868e-02 -1.005526e-02 -1.623545e-02 -1.116506e-02 -1.618573e-02 -1.146697e-02 -1.458856e-02 -1.093345e-02 -1.041311e-02 -1.165565e-02 -1.144776e-02 -1.251547e-02 -1.189748e-02 -1.312686e-02 -1.209742e-02 -1.352891e-02 -1.216974e-02 -1.374703e-02 -1.219267e-02 -1.381956e-02 -1.221745e-02 -1.380157e-02 -1.227771e-02 -1.373664e-02 -1.236535e-02 -1.363300e-02 -1.244833e-02 -1.349679e-02 -1.252075e-02 -1.335869e-02 -1.260126e-02 -1.323355e-02 -1.267304e-02 -1.308197e-02 -1.269272e-02 -1.287533e-02 -1.266457e-02 -1.264855e-02 -1.264464e-02 -1.244866e-02 -1.266024e-02 -1.221220e-02 -1.245159e-02 -1.064081e-02 -9.984453e-03 -1.180938e-02 -1.142880e-02 -1.344328e-02 -1.336561e-02 -1.408083e-02 -1.338723e-02 -1.367613e-02 -1.458059e-02 -1.470322e-02 -1.706825e-02 -1.787343e-02 -2.131901e-02 -2.198626e-02 -2.346993e-02 -2.300036e-02 -2.025418e-02 -1.862595e-02 -1.728232e-02 -1.640883e-02 -1.568398e-02 -1.514132e-02 -1.474097e-02 -1.436705e-02 -1.418445e-02 -1.390718e-02 -1.387691e-02 -1.366781e-02 -1.370626e-02 -1.355690e-02 -1.356537e-02 -1.349686e-02 -1.340967e-02 -1.347962e-02 -1.327190e-02 -1.351952e-02 -1.318339e-02 -1.359411e-02 -1.314100e-02 -1.364355e-02 -1.311856e-02 -1.362041e-02 -1.312432e-02 -1.353466e-02 -1.319190e-02 -1.340769e-02 -1.332929e-02 -1.324194e-02 -1.351690e-02 -1.303818e-02 -1.374134e-02 -1.282712e-02 -1.400197e-02 -1.263590e-02 -1.427064e-02 -1.247561e-02 -1.451603e-02 -1.238330e-02 -1.473026e-02 -1.244802e-02 -1.492065e-02 -1.283197e-02 -1.500868e-02 -1.381902e-02 -1.450009e-02 -1.670170e-02 -1.894202e-03 8.121066e-04 4.819299e-03 4.996783e-03 6.924013e-03 
1.744780e-02 2.124708e-02 1.892108e-02 2.509350e-02 2.336691e-02 3.712835e-02 1.383922e-02 2.419069e-02 1.530396e-02 1.996665e-02 1.376335e-02 1.634834e-02 7.467567e-03 1.134044e-02 9.763150e-03 1.084143e-02 1.060697e-02 1.044420e-02 1.106480e-02 9.739398e-03 1.136494e-02 8.056346e-03 1.599485e-02 1.371158e-02 1.837230e-02 1.638270e-02 1.947774e-02 1.786072e-02 1.994813e-02 1.873000e-02 2.003914e-02 1.926453e-02 1.991229e-02 1.963637e-02 1.972160e-02 1.995937e-02 1.955058e-02 2.023483e-02 1.938578e-02 2.041010e-02 1.921508e-02 2.049376e-02 1.910505e-02 2.055717e-02 1.908940e-02 2.056500e-02 1.905635e-02 2.041250e-02 1.891674e-02 2.012757e-02 1.873941e-02 1.988831e-02 1.864217e-02 1.982761e-02 1.856330e-02 1.961911e-02 1.635877e-02 1.538145e-02 1.916584e-02 1.760405e-02 2.227708e-02 2.242397e-02 2.274393e-02 2.153649e-02 2.200848e-02 2.334898e-02 2.359473e-02 2.781070e-02 2.799814e-02 3.386933e-02 3.495067e-02 3.679416e-02 3.727945e-02 3.106011e-02 2.935734e-02 2.663325e-02 2.562996e-02 2.428319e-02 2.345823e-02 2.278306e-02 2.213348e-02 2.180625e-02 2.138591e-02 2.123471e-02 2.104824e-02 2.093941e-02 2.089007e-02 2.072736e-02 2.070965e-02 2.054334e-02 2.051126e-02 2.048587e-02 2.036620e-02 2.061091e-02 2.027022e-02 2.085540e-02 2.012343e-02 2.108263e-02 1.986664e-02 2.125732e-02 1.958218e-02 2.141435e-02 1.937376e-02 2.154455e-02 1.929209e-02 2.157388e-02 1.935308e-02 2.145463e-02 1.963522e-02 2.120248e-02 2.018007e-02 2.077005e-02 2.094337e-02 2.013285e-02 2.191409e-02 1.936824e-02 2.314597e-02 1.869004e-02 2.472881e-02 1.842150e-02 2.644825e-02 1.920501e-02 2.652070e-02 3.003368e-02 1.599138e-02 2.127451e-02 1.646718e-02 2.024302e-02 
1.833483e-02 1.976022e-02 1.967478e-02 2.186593e-02 2.493695e-02 3.163059e-02 3.264132e-02 3.496517e-02 3.011150e-02 3.313106e-02 2.849986e-02 3.049891e-02 2.447006e-02 2.503681e-02 2.455351e-02 2.490911e-02 2.475249e-02 2.474001e-02 2.493402e-02 2.457729e-02 2.504063e-02 2.453984e-02 2.898955e-02 2.774170e-02 3.091171e-02 2.940357e-02 3.210862e-02 3.037600e-02 3.275049e-02 3.093772e-02 3.299614e-02 3.127841e-02 3.298572e-02 3.152877e-02 3.285992e-02 3.177539e-02 3.270750e-02 3.201647e-02 3.253863e-02 3.220600e-02 3.236104e-02 3.234930e-02 3.224082e-02 3.250580e-02 3.222378e-02 3.266930e-02 3.226252e-02 3.280288e-02 3.235972e-02 3.300385e-02 3.269070e-02 3.352340e-02 3.352175e-02 3.457499e-02 3.493050e-02 3.581877e-02 3.555841e-02 3.472368e-02 3.601309e-02 3.598579e-02 3.646097e-02 3.691203e-02 3.763630e-02 3.959175e-02 3.969746e-02 4.132676e-02 4.189736e-02 4.193567e-02 4.387465e-02 4.237610e-02 4.448878e-02 4.419421e-02 4.519177e-02 4.391468e-02 4.199602e-02 4.015866e-02 3.874876e-02 3.751505e-02 3.655294e-02 3.572574e-02 3.508671e-02 3.454338e-02 3.418659e-02 3.382600e-02 3.371279e-02 3.341433e-02 3.346913e-02 3.311908e-02 3.328142e-02 3.286815e-02 3.313042e-02 3.272452e-02 3.305151e-02 3.273134e-02 3.302070e-02 3.284789e-02 3.294348e-02 3.298022e-02 3.275786e-02 3.310849e-02 3.251580e-02 3.326606e-02 3.229119e-02 3.344696e-02 3.211944e-02 3.359392e-02 3.201695e-02 3.366763e-02 3.204889e-02 3.367001e-02 3.225510e-02 3.355616e-02 3.261582e-02 3.329546e-02 3.313667e-02 3.293212e-02 3.387745e-02 3.260039e-02 3.494703e-02 3.246383e-02 3.641217e-02 3.270920e-02 3.854525e-02 2.985291e-02 2.108151e-02 2.152290e-02 1.865518e-02 1.968531e-02 
2.453405e-02 2.596609e-02 2.500007e-02 2.668419e-02 2.655297e-02 2.885031e-02 3.330871e-02 3.499519e-02 3.258643e-02 3.561798e-02 3.310744e-02 3.570402e-02 3.467635e-02 3.529683e-02 3.475901e-02 3.515216e-02 3.499173e-02 3.495338e-02 3.520390e-02 3.475628e-02 3.532431e-02 3.470689e-02 3.482108e-02 3.348250e-02 3.452041e-02 3.307771e-02 3.451343e-02 3.299701e-02 3.454940e-02 3.304935e-02 3.454626e-02 3.316310e-02 3.448675e-02 3.331296e-02 3.438759e-02 3.348982e-02 3.427232e-02 3.367853e-02 3.415548e-02 3.386106e-02 3.405316e-02 3.403567e-02 3.399228e-02 3.421639e-02 3.399692e-02 3.441532e-02 3.408216e-02 3.465313e-02 3.428752e-02 3.498947e-02 3.470026e-02 3.550786e-02 3.541544e-02 3.621646e-02 3.642011e-02 3.701164e-02 3.853833e-02 4.047534e-02 3.846485e-02 3.989216e-02 3.840725e-02 3.894559e-02 3.765013e-02 3.778574e-02 3.813148e-02 3.652247e-02 3.844625e-02 3.600343e-02 3.763582e-02 3.590233e-02 3.566072e-02 3.494488e-02 3.399626e-02 3.701667e-02 3.718690e-02 3.784236e-02 3.730930e-02 3.730328e-02 3.669469e-02 3.654614e-02 3.600463e-02 3.587831e-02 3.545372e-02 3.538036e-02 3.507919e-02 3.503391e-02 3.483939e-02 3.478887e-02 3.467714e-02 3.461473e-02 3.456270e-02 3.451428e-02 3.448344e-02 3.449137e-02 3.441777e-02 3.453105e-02 3.433407e-02 3.460592e-02 3.421380e-02 3.470033e-02 3.407010e-02 3.480988e-02 3.393001e-02 3.492113e-02 3.381627e-02 3.500919e-02 3.374873e-02 3.505125e-02 3.374955e-02 3.503046e-02 3.382757e-02 3.492659e-02 3.396898e-02 3.472652e-02 3.414406e-02 3.443743e-02 3.430391e-02 3.408629e-02 3.436616e-02 3.370573e-02 3.424802e-02 3.331663e-02 3.433310e-02 2.888514e-02 2.731704e-02 2.680304e-02 2.520814e-02 2.593641e-02 
2.402598e-02 2.470358e-02 2.480654e-02 2.603484e-02 2.681084e-02 2.845416e-02 2.988116e-02 3.148210e-02 3.208006e-02 3.337790e-02 3.511311e-02 3.588423e-02 4.156420e-02 4.187437e-02 4.166763e-02 4.184520e-02 4.176571e-02 4.177432e-02 4.184274e-02 4.168732e-02 4.187153e-02 4.159802e-02 3.707593e-02 3.646178e-02 3.489038e-02 3.382746e-02 3.369402e-02 3.237197e-02 3.304213e-02 3.162179e-02 3.266904e-02 3.127394e-02 3.242114e-02 3.115523e-02 3.222816e-02 3.116798e-02 3.206310e-02 3.125025e-02 3.191618e-02 3.136041e-02 3.178817e-02 3.147573e-02 3.168681e-02 3.158468e-02 3.161266e-02 3.167069e-02 3.154870e-02 3.170990e-02 3.146714e-02 3.167467e-02 3.132369e-02 3.150835e-02 3.101497e-02 3.106894e-02 3.032189e-02 3.018910e-02 2.961497e-02 3.098315e-02 3.051401e-02 3.097077e-02 3.143484e-02 3.105481e-02 3.215815e-02 3.100367e-02 3.265818e-02 3.178589e-02 3.324437e-02 3.314999e-02 3.366144e-02 3.480753e-02 3.502747e-02 3.559017e-02 3.458398e-02 3.409832e-02 3.431557e-02 3.412530e-02 3.407255e-02 3.372577e-02 3.360831e-02 3.323684e-02 3.316729e-02 3.280290e-02 3.282747e-02 3.246965e-02 3.259890e-02 3.223403e-02 3.245156e-02 3.207142e-02 3.234613e-02 3.196666e-02 3.226023e-02 3.192277e-02 3.218390e-02 3.194247e-02 3.210425e-02 3.201434e-02 3.200371e-02 3.211657e-02 3.187482e-02 3.223235e-02 3.173122e-02 3.235022e-02 3.159738e-02 3.245320e-02 3.149599e-02 3.251613e-02 3.144503e-02 3.251352e-02 3.145892e-02 3.242365e-02 3.153793e-02 3.222333e-02 3.165909e-02 3.189194e-02 3.177517e-02 3.141521e-02 3.180713e-02 3.078105e-02 3.162633e-02 2.996499e-02 3.102095e-02 2.890211e-02 2.967892e-02 2.719314e-02 2.643520e-02 2.546646e-02 2.457495e-02 2.453927e-02 
2.695991e-02 2.782903e-02 2.742520e-02 2.872093e-02 2.900790e-02 3.053507e-02 3.176703e-02 3.328644e-02 3.380747e-02 3.523120e-02 3.670401e-02 3.767266e-02 4.330815e-02 4.368131e-02 4.341000e-02 4.362305e-02 4.353887e-02 4.351435e-02 4.365429e-02 4.339957e-02 4.370916e-02 4.331271e-02 3.911262e-02 3.847102e-02 3.709336e-02 3.598132e-02 3.591812e-02 3.461873e-02 3.527151e-02 3.395431e-02 3.492187e-02 3.368569e-02 3.471570e-02 3.363198e-02 3.457155e-02 3.369057e-02 3.445381e-02 3.380372e-02 3.435140e-02 3.393819e-02 3.426419e-02 3.407403e-02 3.419410e-02 3.419642e-02 3.413764e-02 3.428845e-02 3.408035e-02 3.432623e-02 3.399409e-02 3.427545e-02 3.383410e-02 3.408970e-02 3.354184e-02 3.373016e-02 3.307701e-02 3.327747e-02 3.284843e-02 3.357788e-02 3.268281e-02 3.354885e-02 3.283725e-02 3.287101e-02 3.286731e-02 3.320703e-02 3.307334e-02 3.310114e-02 3.298554e-02 3.235700e-02 3.262160e-02 3.138661e-02 3.111796e-02 3.122328e-02 3.069830e-02 3.132613e-02 3.149709e-02 3.236283e-02 3.255909e-02 3.319595e-02 3.331665e-02 3.372581e-02 3.379478e-02 3.402482e-02 3.408337e-02 3.418231e-02 3.425979e-02 3.426419e-02 3.436783e-02 3.430983e-02 3.442638e-02 3.434434e-02 3.444494e-02 3.438773e-02 3.443052e-02 3.445336e-02 3.438643e-02 3.454367e-02 3.431348e-02 3.465205e-02 3.421599e-02 3.476851e-02 3.410632e-02 3.488176e-02 3.400213e-02 3.497709e-02 3.392048e-02 3.503569e-02 3.387402e-02 3.503745e-02 3.386841e-02 3.496374e-02 3.389804e-02 3.479781e-02 3.393980e-02 3.452284e-02 3.394671e-02 3.411811e-02 3.384351e-02 3.355253e-02 3.352731e-02 3.276983e-02 3.286606e-02 3.163453e-02 3.164718e-02 2.981461e-02 2.921143e-02 2.845582e-02 2.757439e-02 2.775959e-02 
2.402577e-02 2.470087e-02 2.480476e-02 2.603483e-02 2.680799e-02 2.845683e-02 2.987914e-02 3.148516e-02 3.207948e-02 3.338067e-02 3.511349e-02 3.588600e-02 4.156466e-02 4.187398e-02 4.166810e-02 4.184495e-02 4.176570e-02 4.177446e-02 4.184154e-02 4.168749e-02 4.186849e-02 4.159671e-02 3.706430e-02 3.647093e-02 3.487290e-02 3.384067e-02 3.367250e-02 3.238389e-02 3.302413e-02 3.163312e-02 3.266605e-02 3.128687e-02 3.244018e-02 3.116545e-02 3.226510e-02 3.116435e-02 3.210783e-02 3.122409e-02 3.196114e-02 3.130873e-02 3.182530e-02 3.139042e-02 3.169459e-02 3.143935e-02 3.154986e-02 3.141824e-02 3.135315e-02 3.127555e-02 3.104152e-02 3.093943e-02 3.052179e-02 3.030995e-02 2.966278e-02 2.925983e-02 2.829852e-02 2.759468e-02 2.621969e-02 2.664364e-02 2.665611e-02 2.706588e-02 2.731872e-02 2.719025e-02 2.722860e-02 2.679478e-02 2.723875e-02 2.686688e-02 2.767452e-02 2.767598e-02 2.875028e-02 2.934533e-02 2.936600e-02 2.999347e-02 2.895987e-02 2.870705e-02 2.890890e-02 2.920119e-02 2.965758e-02 2.992037e-02 3.041327e-02 3.052219e-02 3.101082e-02 3.094022e-02 3.144269e-02 3.121013e-02 3.174824e-02 3.138413e-02 3.195601e-02 3.149947e-02 3.207748e-02 3.158372e-02 3.212281e-02 3.166636e-02 3.210928e-02 3.177251e-02 3.205016e-02 3.190830e-02 3.195062e-02 3.206380e-02 3.181824e-02 3.222438e-02 3.167194e-02 3.237663e-02 3.153917e-02 3.250291e-02 3.144406e-02 3.257789e-02 3.140261e-02 3.257306e-02 3.142191e-02 3.246497e-02 3.150226e-02 3.224161e-02 3.163035e-02 3.189579e-02 3.176409e-02 3.141697e-02 3.181850e-02 3.078369e-02 3.165101e-02 2.996180e-02 3.104615e-02 2.889105e-02 2.969864e-02 2.718145e-02 2.644241e-02 2.545739e-02 2.457717e-02 2.453357e-02 
2.453325e-02 2.595979e-02 2.499600e-02 2.668272e-02 2.654614e-02 2.885607e-02 3.330247e-02 3.500126e-02 3.258426e-02 3.562439e-02 3.310773e-02 3.570903e-02 3.467930e-02 3.529434e-02 3.476222e-02 3.515012e-02 3.499427e-02 3.495409e-02 3.520133e-02 3.476084e-02 3.531492e-02 3.470803e-02 3.480196e-02 3.350960e-02 3.449601e-02 3.311452e-02 3.448402e-02 3.303335e-02 3.452886e-02 3.308738e-02 3.455771e-02 3.320785e-02 3.454667e-02 3.335867e-02 3.449243e-02 3.351841e-02 3.440720e-02 3.367843e-02 3.431225e-02 3.383553e-02 3.422510e-02 3.398146e-02 3.414966e-02 3.409920e-02 3.407645e-02 3.416631e-02 3.398470e-02 3.415532e-02 3.384301e-02 3.403915e-02 3.362113e-02 3.380193e-02 3.329844e-02 3.344956e-02 3.290051e-02 3.311736e-02 3.258834e-02 3.280807e-02 3.194498e-02 3.205820e-02 3.071800e-02 3.098597e-02 3.112814e-02 3.164064e-02 3.123687e-02 3.146627e-02 3.031164e-02 3.003479e-02 2.806773e-02 2.697260e-02 2.635754e-02 2.635740e-02 2.655528e-02 2.757011e-02 2.813208e-02 2.916658e-02 2.973144e-02 3.060712e-02 3.110804e-02 3.173133e-02 3.216763e-02 3.252853e-02 3.294327e-02 3.307049e-02 3.350438e-02 3.343751e-02 3.389891e-02 3.368570e-02 3.414955e-02 3.385596e-02 3.427773e-02 3.399363e-02 3.431671e-02 3.414008e-02 3.429165e-02 3.430883e-02 3.421197e-02 3.449202e-02 3.408764e-02 3.467698e-02 3.394119e-02 3.485451e-02 3.380495e-02 3.501105e-02 3.370560e-02 3.512300e-02 3.365955e-02 3.516203e-02 3.367406e-02 3.510770e-02 3.375736e-02 3.496083e-02 3.391375e-02 3.473365e-02 3.412301e-02 3.444016e-02 3.432504e-02 3.408979e-02 3.441188e-02 3.369765e-02 3.429477e-02 3.329374e-02 3.437154e-02 2.886307e-02 2.732927e-02 2.678630e-02 2.521204e-02 2.592523e-02 
1.833138e-02 1.975391e-02 1.966815e-02 2.186694e-02 2.492207e-02 3.164499e-02 3.263327e-02 3.497394e-02 3.011099e-02 3.313938e-02 2.850452e-02 3.050406e-02 2.447186e-02 2.503530e-02 2.455693e-02 2.490756e-02 2.475504e-02 2.474200e-02 2.493290e-02 2.458325e-02 2.502891e-02 2.453362e-02 2.895413e-02 2.780688e-02 3.086138e-02 2.947422e-02 3.202382e-02 3.041702e-02 3.266365e-02 3.097324e-02 3.297819e-02 3.135096e-02 3.308679e-02 3.163166e-02 3.305005e-02 3.184491e-02 3.292927e-02 3.202362e-02 3.279279e-02 3.219895e-02 3.269381e-02 3.237921e-02 3.264467e-02 3.254273e-02 3.263443e-02 3.267213e-02 3.265218e-02 3.275513e-02 3.269111e-02 3.282327e-02 3.282469e-02 3.301378e-02 3.322967e-02 3.354764e-02 3.419487e-02 3.494562e-02 3.661704e-02 3.586750e-02 3.435544e-02 3.394907e-02 3.190118e-02 3.177638e-02 3.104577e-02 3.099734e-02 2.957020e-02 2.932647e-02 2.727139e-02 2.665816e-02 2.479448e-02 2.331094e-02 2.227683e-02 2.064781e-02 2.224936e-02 2.430215e-02 2.563543e-02 2.696903e-02 2.800458e-02 2.887243e-02 2.972475e-02 3.014013e-02 3.089584e-02 3.091358e-02 3.169520e-02 3.140049e-02 3.229217e-02 3.174150e-02 3.273550e-02 3.197224e-02 3.299716e-02 3.209834e-02 3.307360e-02 3.219177e-02 3.304716e-02 3.235331e-02 3.297058e-02 3.259179e-02 3.282835e-02 3.286165e-02 3.260688e-02 3.312434e-02 3.234186e-02 3.338402e-02 3.211224e-02 3.363458e-02 3.196416e-02 3.383011e-02 3.191574e-02 3.390500e-02 3.196028e-02 3.380935e-02 3.212846e-02 3.357406e-02 3.248691e-02 3.325651e-02 3.308262e-02 3.292583e-02 3.394620e-02 3.263778e-02 3.507119e-02 3.246717e-02 3.651168e-02 3.265354e-02 3.862805e-02 2.980221e-02 2.107281e-02 2.149248e-02 1.865215e-02 1.967045e-02 
1.744180e-02 2.123578e-02 1.891240e-02 2.508517e-02 2.334818e-02 3.712116e-02 1.382946e-02 2.417119e-02 1.529380e-02 1.994366e-02 1.375706e-02 1.632658e-02 7.455028e-03 1.133853e-02 9.771977e-03 1.083501e-02 1.062359e-02 1.044327e-02 1.106324e-02 9.761961e-03 1.132787e-02 8.135235e-03 1.598692e-02 1.383172e-02 1.835493e-02 1.647534e-02 1.941958e-02 1.789262e-02 1.988455e-02 1.874561e-02 2.005474e-02 1.933449e-02 2.006365e-02 1.976185e-02 1.996282e-02 2.006496e-02 1.981206e-02 2.028877e-02 1.968413e-02 2.047757e-02 1.963924e-02 2.065184e-02 1.968844e-02 2.079423e-02 1.981089e-02 2.089280e-02 1.998142e-02 2.093400e-02 2.016716e-02 2.093965e-02 2.040300e-02 2.101193e-02 2.076936e-02 2.123825e-02 2.127755e-02 2.161566e-02 2.194815e-02 2.160523e-02 2.099996e-02 2.072735e-02 1.998236e-02 1.969609e-02 1.940737e-02 1.907317e-02 1.858986e-02 1.833505e-02 1.753367e-02 1.734082e-02 1.675391e-02 1.659125e-02 1.591074e-02 1.557246e-02 1.555116e-02 1.658244e-02 1.652274e-02 1.757109e-02 1.750514e-02 1.842076e-02 1.837322e-02 1.900095e-02 1.902105e-02 1.932358e-02 1.950211e-02 1.954191e-02 1.991709e-02 1.974960e-02 2.025394e-02 1.992693e-02 2.043359e-02 2.003424e-02 2.042485e-02 2.013104e-02 2.032080e-02 2.032538e-02 2.018460e-02 2.061481e-02 1.999621e-02 2.093057e-02 1.973792e-02 2.121334e-02 1.945768e-02 2.146350e-02 1.926262e-02 2.166803e-02 1.921303e-02 2.176210e-02 1.933198e-02 2.166018e-02 1.960863e-02 2.130160e-02 2.007688e-02 2.073526e-02 2.081156e-02 2.004757e-02 2.185836e-02 1.934862e-02 2.323790e-02 1.874769e-02 2.488393e-02 1.844505e-02 2.656515e-02 1.915480e-02 2.661510e-02 2.997743e-02 1.596872e-02 2.123799e-02 1.645859e-02 2.022432e-02 
6.109084e-03 7.489411e-03 4.847219e-03 6.831439e-03 -3.222657e-04 1.307435e-03 -1.727345e-02 -1.299254e-02 -1.201765e-02 -1.445722e-02 -9.664914e-03 -1.476548e-02 -6.793763e-03 -1.503851e-02 -1.007377e-02 -1.619667e-02 -1.121426e-02 -1.611762e-02 -1.153249e-02 -1.453531e-02 -1.098041e-02 -1.039674e-02 -1.166971e-02 -1.147581e-02 -1.250483e-02 -1.193883e-02 -1.308846e-02 -1.213610e-02 -1.348437e-02 -1.221425e-02 -1.373696e-02 -1.225803e-02 -1.387713e-02 -1.229998e-02 -1.392199e-02 -1.235021e-02 -1.389638e-02 -1.242288e-02 -1.383397e-02 -1.253221e-02 -1.376180e-02 -1.267853e-02 -1.368889e-02 -1.284691e-02 -1.361700e-02 -1.302318e-02 -1.354933e-02 -1.319315e-02 -1.348656e-02 -1.335723e-02 -1.345779e-02 -1.355358e-02 -1.351694e-02 -1.382755e-02 -1.370136e-02 -1.422604e-02 -1.413217e-02 -1.440751e-02 -1.349694e-02 -1.398317e-02 -1.287298e-02 -1.345869e-02 -1.261274e-02 -1.314790e-02 -1.223030e-02 -1.271466e-02 -1.173287e-02 -1.206991e-02 -1.143671e-02 -1.147425e-02 -1.106114e-02 -1.063598e-02 -1.095474e-02 -1.116267e-02 -1.159572e-02 -1.162361e-02 -1.212415e-02 -1.203022e-02 -1.254102e-02 -1.233730e-02 -1.283323e-02 -1.253647e-02 -1.304738e-02 -1.266894e-02 -1.323874e-02 -1.276687e-02 -1.340958e-02 -1.282677e-02 -1.352853e-02 -1.284051e-02 -1.358315e-02 -1.284045e-02 -1.360598e-02 -1.287644e-02 -1.361318e-02 -1.295309e-02 -1.358496e-02 -1.305240e-02 -1.350407e-02 -1.316559e-02 -1.337643e-02 -1.330668e-02 -1.322705e-02 -1.348668e-02 -1.306707e-02 -1.369756e-02 -1.289676e-02 -1.391722e-02 -1.270787e-02 -1.412320e-02 -1.251779e-02 -1.432368e-02 -1.237357e-02 -1.452958e-02 -1.232896e-02 -1.474457e-02 -1.245780e-02 -1.494133e-02 -1.287212e-02 -1.500475e-02 -1.385227e-02 -1.446510e-02 -1.673226e-02 -1.868405e-03 8.227302e-04 4.831277e-03 5.003514e-03 6.925929e-03 
8.398775e-03 5.899836e-03 6.564937e-03 2.371189e-03 3.936596e-04 -1.032902e-02 -3.155238e-05 -6.997993e-03 5.560769e-04 -3.765726e-03 2.795969e-03 1.050274e-03 9.817205e-03 1.127348e-02 1.577603e-02 1.525508e-02 1.719475e-02 1.686684e-02 1.549227e-02 1.579121e-02 1.109678e-02 8.992797e-03 1.154706e-03 2.162813e-03 -2.921999e-03 -6.051904e-04 -4.661575e-03 -1.911996e-03 -5.406634e-03 -2.653364e-03 -5.693698e-03 -3.185055e-03 -5.736528e-03 -3.610296e-03 -5.616326e-03 -3.953069e-03 -5.407391e-03 -4.245419e-03 -5.193580e-03 -4.521115e-03 -5.042936e-03 -4.789679e-03 -4.971766e-03 -5.022956e-03 -4.963686e-03 -5.198385e-03 -4.996928e-03 -5.292996e-03 -5.040247e-03 -5.320981e-03 -5.127253e-03 -5.372933e-03 -5.318271e-03 -5.502971e-03 -5.557221e-03 -5.592593e-03 -5.594567e-03 -5.425009e-03 -5.098251e-03 -4.917281e-03 -4.523944e-03 -4.245887e-03 -4.063799e-03 -3.746235e-03 -3.592204e-03 -3.152630e-03 -3.048163e-03 -2.444667e-03 -2.538373e-03 -1.974306e-03 -2.133829e-03 -1.722061e-03 -2.097659e-03 -2.258127e-03 -2.774333e-03 -2.982823e-03 -3.591530e-03 -3.649229e-03 -4.324957e-03 -4.093943e-03 -4.856060e-03 -4.303079e-03 -5.242101e-03 -4.420920e-03 -5.591542e-03 -4.542178e-03 -5.888215e-03 -4.646975e-03 -6.039787e-03 -4.696874e-03 -6.005860e-03 -4.759365e-03 -5.876843e-03 -4.950332e-03 -5.710280e-03 -5.264946e-03 -5.475817e-03 -5.627460e-03 -5.149712e-03 -5.974644e-03 -4.780902e-03 -6.306246e-03 -4.481681e-03 -6.608495e-03 -4.317642e-03 -6.812511e-03 -4.314844e-03 -6.824185e-03 -4.462122e-03 -6.570746e-03 -4.792047e-03 -6.087722e-03 -5.376001e-03 -5.442911e-03 -6.250016e-03 -4.717764e-03 -7.422341e-03 -3.973413e-03 -8.835929e-03 -3.316260e-03 -1.040864e-02 -3.204472e-03 -1.142743e-02 -6.195117e-03 6.738534e-03 4.568233e-03 8.539203e-03 6.469462e-03 
3.229575e-03 -3.867435e-04 2.373695e-03 -3.176078e-03 2.847309e-04 -9.852811e-03 6.453210e-03 -1.910335e-03 1.518602e-03 -5.049481e-04 -2.262784e-03 -6.245771e-05 -7.555731e-03 -3.013815e-04 -4.469233e-03 1.020975e-03 -3.631948e-03 1.182079e-03 -3.571419e-03 -1.617915e-04 -4.242278e-03 -4.178616e-03 -2.675366e-03 -1.236689e-03 -1.555919e-03 1.918254e-04 -9.319023e-04 9.010995e-04 -5.211097e-04 1.172010e-03 -2.132774e-04 1.184285e-03 5.802409e-05 1.064301e-03 3.243616e-04 8.920094e-04 5.797754e-04 7.078315e-04 7.989813e-04 5.317393e-04 9.547875e-04 3.778454e-04 1.038391e-03 2.671393e-04 1.061304e-03 2.179242e-04 1.046318e-03 2.443361e-04 1.016884e-03 3.319671e-04 9.633824e-04 4.296810e-04 8.733988e-04 5.183462e-04 8.250035e-04 7.279119e-04 1.099134e-03 8.992476e-04 1.072698e-03 9.596626e-04 1.003028e-03 1.108630e-03 1.080095e-03 1.330911e-03 1.041217e-03 1.616969e-03 1.224999e-03 2.174833e-03 1.875476e-03 2.597995e-03 2.306342e-03 2.508978e-03 2.459394e-03 2.189373e-03 2.101033e-03 1.661891e-03 1.539519e-03 1.169262e-03 1.008439e-03 8.543716e-04 6.105209e-04 7.169978e-04 3.232616e-04 6.603386e-04 9.236266e-05 6.133204e-04 -7.695770e-05 5.657720e-04 -1.423513e-04 5.184646e-04 -8.755984e-05 4.292205e-04 4.552612e-05 2.441544e-04 2.270456e-04 -2.860294e-05 4.630171e-04 -3.380572e-04 7.513161e-04 -6.342161e-04 1.046235e-03 -8.927741e-04 1.267917e-03 -1.079562e-03 1.357767e-03 -1.132783e-03 1.281280e-03 -9.834611e-04 1.027024e-03 -5.823331e-04 5.833209e-04 6.632700e-05 -4.868014e-05 9.311387e-04 -8.160958e-04 1.959124e-03 -1.594198e-03 3.082192e-03 -2.131144e-03 4.137555e-03 -1.988363e-03 4.478398e-03 1.171550e-04 -3.559031e-03 3.365253e-03 -2.244784e-04 3.465882e-03 4.273101e-04 
