# vtk DataFile Version 2.0
Comment goes here
ASCII

DATASET STRUCTURED_POINTS
FIELD FieldData 1
TIME 1 1 double
0.02000000
DIMENSIONS    128   16   1

ORIGIN    0.000   0.000   0.000
SPACING   0.0078125 0.015625   1.000

POINT_DATA   2048
SCALARS uX double
LOOKUP_TABLE default

4.575177e-03 2.230082e-03 3.099440e-03 -2.857560e-04 1.559780e-03 -1.765206e-03 4.821819e-03 -1.719973e-03 -1.648435e-04 -5.296206e-03 -7.957909e-03 -1.500121e-02 -2.300174e-02 -3.524486e-02 -4.243332e-02 -4.442282e-02 -4.732143e-02 -4.627782e-02 -4.326163e-02 -4.061527e-02 -3.332803e-02 -2.155323e-02 -1.501401e-02 -8.396788e-03 -6.457090e-03 -2.174885e-03 -1.147612e-03 3.071984e-03 2.388881e-03 4.579959e-03 1.560447e-03 3.322987e-03 3.758208e-04 2.758017e-03 2.083247e-03 3.636780e-03 3.478362e-03 3.211352e-03 2.195561e-03 2.509564e-03 1.960194e-03 2.829534e-03 2.360397e-03 2.409679e-03 2.602351e-03 2.055273e-03 2.931087e-03 1.529529e-03 2.242464e-03 1.742903e-03 3.260862e-03 1.571855e-03 3.666996e-04 3.078023e-03 -1.908555e-03 -8.439148e-04 -4.272688e-03 -7.604016e-03 -8.641317e-03 -8.764378e-03 -8.537095e-03 1.006970e-03 1.532404e-02 1.238385e-02 1.454824e-02 4.724535e-03 1.307612e-03 3.281941e-04 -9.235639e-04 1.721914e-02 2.132048e-02 2.548713e-02 2.232929e-02 1.513483e-02 9.718850e-03 8.253883e-03 5.498133e-03 2.485681e-03 5.842953e-03 2.945069e-03 3.562448e-03 3.807430e-03 2.262814e-03 3.004141e-03 3.663906e-03 4.582759e-03 3.224017e-03 3.432933e-03 3.818712e-03 3.630544e-03 3.963514e-03 3.636860e-03 3.969273e-03 4.422996e-03 3.350363e-03 3.387663e-03 3.007866e-03 3.590673e-03 5.190557e-03 5.272576e-03 5.194145e-03 4.539598e-03 3.156561e-03 3.306355e-03 4.293769e-03 5.210219e-03 6.186077e-03 5.851644e-03 6.134537e-03 4.493682e-03 4.466476e-03 3.189458e-03 4.413325e-03 5.495052e-03 5.708780e-03 7.703083e-03 5.816090e-03 8.296640e-03 4.296316e-03 6.904206e-03 3.855136e-03 5.924298e-03 6.844002e-03 2.560946e-03 4.237565e-03 2.637103e-03 4.680061e-03 3.230787e-03 
1.243061e-03 -5.271559e-04 -5.430083e-04 -3.400232e-03 -3.588000e-03 -6.298765e-03 2.495049e-03 -2.578822e-03 -1.147770e-03 -2.290277e-03 -4.914111e-03 -3.936713e-03 -8.777607e-03 -4.649687e-03 -4.450457e-03 -1.968648e-03 -2.545968e-03 -7.269809e-04 1.476653e-03 7.583218e-04 -7.879520e-04 -6.398490e-03 -3.666813e-03 -4.779272e-03 -4.743937e-03 -4.866382e-03 -3.309679e-03 1.641610e-03 2.832068e-03 2.105568e-03 -1.265269e-03 -3.297994e-04 -5.545253e-03 -2.343442e-03 -1.899611e-03 -6.887726e-04 1.588908e-03 -4.411308e-04 -1.925377e-03 -1.506149e-03 -3.172796e-03 -1.067167e-03 -2.286923e-03 -1.821880e-03 -1.084468e-03 -2.099662e-03 -6.675210e-05 -3.295890e-03 -2.176780e-03 -3.084717e-03 5.416815e-04 -3.572177e-03 -5.506846e-03 1.433823e-03 -7.038583e-03 -1.679744e-03 -1.696843e-03 -4.784379e-03 1.875801e-03 4.220149e-03 -2.468854e-03 1.026994e-03 -3.003556e-03 -1.742223e-02 -2.235943e-03 -5.720292e-03 4.682026e-03 1.464712e-02 4.431934e-03 1.800756e-02 1.036205e-02 4.120902e-03 3.609655e-03 6.081091e-04 -1.352762e-03 2.569731e-03 -6.405231e-04 -4.524363e-03 4.553741e-03 -1.275352e-03 5.964455e-05 7.805326e-04 -3.269939e-03 -1.582452e-03 2.529391e-04 2.373467e-03 -1.120801e-03 -5.035324e-04 6.373389e-04 -5.139729e-04 7.386046e-04 -8.645903e-04 5.001292e-04 1.986991e-03 -1.175121e-03 -4.632140e-04 -2.023690e-03 -1.445549e-03 3.258428e-03 2.188610e-03 2.005906e-03 1.144327e-03 -3.661730e-03 -2.923491e-03 9.949256e-04 2.790685e-03 3.559505e-03 2.841826e-03 2.967572e-03 7.648192e-04 -1.178677e-03 -4.435169e-03 -4.765782e-04 3.115097e-03 3.605988e-03 5.637668e-03 4.162975e-03 6.755280e-03 4.910383e-04 2.477589e-03 -1.895956e-03 8.400814e-04 2.031291e-03 -3.569979e-03 -3.192502e-04 -1.085515e-03 1.171531e-03 2.786865e-04 
7.490190e-03 5.403560e-03 3.355655e-03 -2.189822e-03 -8.279432e-03 -1.739646e-02 -8.893785e-03 -1.298430e-02 -8.076059e-03 -8.656044e-03 -4.166809e-03 -1.945138e-03 5.371252e-03 9.872178e-03 1.426112e-02 1.426829e-02 1.442352e-02 1.332391e-02 1.341017e-02 1.527542e-02 7.200930e-03 -5.943192e-04 -2.837767e-03 -1.758565e-03 -6.160295e-03 -8.123509e-03 -1.324467e-02 -7.634399e-03 -8.530424e-03 -1.168881e-02 -1.247445e-02 -5.741374e-03 -1.309957e-02 -8.226202e-03 -1.098284e-02 -1.426471e-02 -9.019149e-03 -1.123343e-02 -1.048331e-02 -7.901266e-03 -1.314136e-02 -1.002936e-02 -1.372031e-02 -1.138685e-02 -9.733807e-03 -1.081042e-02 -7.436824e-03 -1.101795e-02 -8.769344e-03 -1.105963e-02 -9.671980e-03 -8.273111e-03 -5.855655e-03 -2.349399e-03 2.495586e-03 7.668165e-03 1.511081e-02 1.752899e-02 1.559113e-02 1.585649e-02 1.196063e-02 -3.042558e-03 -2.043489e-02 -2.146010e-02 -2.594360e-02 -1.722698e-02 -1.852749e-02 -2.094784e-02 -2.791840e-02 -5.005293e-02 -6.441306e-02 -6.699622e-02 -6.024476e-02 -4.873225e-02 -3.795284e-02 -3.086328e-02 -2.385985e-02 -2.039252e-02 -1.603425e-02 -1.563329e-02 -1.336561e-02 -1.422345e-02 -1.426629e-02 -1.248095e-02 -1.409805e-02 -9.556406e-03 -1.093920e-02 -8.383381e-03 -8.035623e-03 -1.258073e-02 -8.834124e-03 -1.320082e-02 -1.102866e-02 -7.343554e-03 -1.142296e-02 -6.102287e-03 -1.008906e-02 -1.348740e-02 -7.755923e-03 -1.258948e-02 -9.793678e-03 -5.434309e-03 -1.297258e-02 -1.142691e-02 -6.564824e-03 -8.733783e-03 -1.185106e-02 -1.266311e-02 -8.180660e-03 -6.114031e-03 -7.643853e-03 -1.499962e-02 -8.851020e-03 -5.876937e-03 -9.861221e-03 -1.125905e-02 -1.092837e-02 -6.448167e-03 -1.100514e-02 -7.836435e-03 -1.066856e-02 -7.591519e-03 -9.326559e-03 -1.047867e-02 -1.812224e-03 1.917708e-03 6.035372e-03 6.631127e-03 
8.847257e-03 7.926416e-03 4.941733e-03 6.789678e-04 -6.869923e-03 -1.627341e-02 -2.401883e-02 -2.213329e-02 -2.102622e-02 -2.162867e-02 -1.707806e-02 -1.869000e-02 -1.393689e-02 -1.830813e-02 -1.828761e-02 -2.122236e-02 -2.092933e-02 -2.394750e-02 -2.668776e-02 -2.655392e-02 -2.505683e-02 -2.262328e-02 -1.867159e-02 -1.364554e-02 -1.316915e-02 -1.389649e-02 -2.120200e-02 -2.364761e-02 -2.739974e-02 -2.754726e-02 -2.266508e-02 -1.460260e-02 -1.382223e-02 -1.294412e-02 -1.832837e-02 -2.367534e-02 -2.305033e-02 -2.092533e-02 -1.757080e-02 -1.481932e-02 -1.833990e-02 -1.840439e-02 -2.114564e-02 -1.913914e-02 -1.930024e-02 -1.890937e-02 -1.934511e-02 -1.809018e-02 -1.803990e-02 -2.068380e-02 -2.737896e-02 -2.027263e-02 -1.553382e-02 -3.098565e-02 -1.371512e-02 -2.806875e-02 -3.135356e-02 -2.525699e-02 -3.406727e-02 -3.796614e-02 -2.913960e-02 -2.725474e-02 -2.891672e-02 2.005873e-03 -2.552716e-02 -1.512231e-02 -3.000711e-02 -4.116380e-02 -2.041072e-02 -4.213244e-02 -2.248792e-02 -1.871460e-02 -2.118734e-02 -1.901127e-02 -1.731918e-02 -2.723668e-02 -1.932086e-02 -1.187285e-02 -2.872425e-02 -1.807457e-02 -2.002983e-02 -2.315223e-02 -1.592854e-02 -1.748421e-02 -2.374282e-02 -2.267348e-02 -1.735583e-02 -1.582769e-02 -1.760039e-02 -2.105188e-02 -1.900269e-02 -2.114088e-02 -2.133749e-02 -2.001372e-02 -1.832460e-02 -1.354496e-02 -1.494362e-02 -2.024629e-02 -2.305439e-02 -2.655729e-02 -2.263456e-02 -1.582169e-02 -1.445089e-02 -1.427809e-02 -1.688707e-02 -2.337401e-02 -2.795373e-02 -2.787847e-02 -2.198724e-02 -1.594317e-02 -1.244551e-02 -1.512124e-02 -1.583076e-02 -2.032363e-02 -2.628447e-02 -3.106943e-02 -2.891186e-02 -2.673580e-02 -2.055688e-02 -1.792142e-02 -1.335556e-02 -1.299161e-02 -1.719518e-02 -6.856854e-03 -1.427212e-03 4.983365e-03 7.131382e-03 9.157094e-03 
3.276349e-02 3.407085e-02 3.446585e-02 3.736581e-02 3.959677e-02 4.372101e-02 2.908896e-02 3.428831e-02 2.923211e-02 3.026146e-02 2.768131e-02 2.735722e-02 2.172682e-02 2.311086e-02 2.243991e-02 2.319120e-02 2.412310e-02 2.448211e-02 2.207750e-02 1.887972e-02 2.230081e-02 2.413673e-02 2.811415e-02 2.678171e-02 3.172366e-02 3.277319e-02 3.399033e-02 2.615978e-02 2.437477e-02 2.861257e-02 3.166344e-02 2.921934e-02 3.762120e-02 3.318323e-02 3.268787e-02 3.407038e-02 2.772284e-02 3.196689e-02 3.251555e-02 3.147626e-02 3.514975e-02 3.185722e-02 3.411624e-02 3.286619e-02 3.040497e-02 3.222723e-02 2.781487e-02 3.301056e-02 3.058355e-02 3.213436e-02 2.791502e-02 3.077609e-02 3.367009e-02 2.205724e-02 3.251875e-02 2.212660e-02 2.406371e-02 3.105345e-02 3.570380e-02 3.581253e-02 3.099043e-02 4.340126e-02 2.343391e-02 3.118858e-02 2.694209e-02 3.678667e-02 4.733645e-02 5.573720e-02 6.718915e-02 5.642685e-02 7.833682e-02 5.988029e-02 5.319420e-02 5.309017e-02 4.794294e-02 4.085380e-02 3.949033e-02 4.345044e-02 2.948720e-02 3.718891e-02 3.345112e-02 3.387692e-02 3.788862e-02 3.549478e-02 3.387514e-02 2.939671e-02 3.395459e-02 3.191213e-02 3.054081e-02 3.384944e-02 3.059492e-02 3.445995e-02 3.181106e-02 2.833737e-02 3.400075e-02 3.052295e-02 3.432384e-02 3.528662e-02 2.699804e-02 3.069731e-02 2.964718e-02 2.850882e-02 3.804058e-02 3.633136e-02 2.911502e-02 2.789171e-02 2.892596e-02 2.987312e-02 2.815158e-02 2.913636e-02 3.307200e-02 3.997711e-02 3.235944e-02 2.615987e-02 2.724905e-02 2.624423e-02 2.702144e-02 2.354571e-02 3.249351e-02 3.110680e-02 3.720370e-02 3.473954e-02 3.460547e-02 4.279844e-02 3.648579e-02 3.644172e-02 3.332728e-02 3.383798e-02 
3.893787e-02 4.051077e-02 4.241542e-02 4.712836e-02 5.298459e-02 6.195762e-02 5.940970e-02 6.065816e-02 5.679066e-02 5.720464e-02 5.255552e-02 5.212681e-02 4.615260e-02 4.662439e-02 4.600518e-02 4.651079e-02 4.609778e-02 4.727483e-02 4.679378e-02 4.767564e-02 4.680140e-02 5.105532e-02 4.995961e-02 4.847230e-02 5.040378e-02 5.269494e-02 5.831352e-02 5.684365e-02 5.864422e-02 6.109554e-02 5.933075e-02 5.268379e-02 5.641271e-02 5.371907e-02 5.729016e-02 6.182728e-02 5.816530e-02 5.892054e-02 5.669023e-02 5.441395e-02 5.862855e-02 5.714447e-02 6.007834e-02 5.817451e-02 5.689783e-02 5.782959e-02 5.577928e-02 5.789446e-02 5.664779e-02 5.985857e-02 6.324290e-02 6.030570e-02 6.044333e-02 6.714045e-02 6.437525e-02 7.322214e-02 8.322619e-02 8.173593e-02 8.243345e-02 8.465394e-02 7.533031e-02 7.541060e-02 7.048076e-02 5.624774e-02 6.229412e-02 5.724374e-02 6.047310e-02 6.074549e-02 5.180148e-02 5.376508e-02 4.877796e-02 4.291131e-02 4.861754e-02 5.257895e-02 5.490293e-02 6.171190e-02 5.762194e-02 5.620973e-02 6.158118e-02 5.901263e-02 5.847516e-02 6.139175e-02 5.827338e-02 5.826931e-02 6.197089e-02 5.892614e-02 5.742521e-02 5.529505e-02 5.584172e-02 5.987263e-02 5.677224e-02 6.011791e-02 5.900672e-02 5.630570e-02 5.795400e-02 5.284029e-02 5.563607e-02 5.981724e-02 5.768489e-02 6.195898e-02 5.870184e-02 5.340741e-02 5.704672e-02 5.609012e-02 5.435687e-02 5.826117e-02 6.181973e-02 6.228760e-02 5.729808e-02 5.372490e-02 5.306430e-02 5.832874e-02 5.498633e-02 5.497735e-02 5.959433e-02 6.219277e-02 6.136475e-02 5.797109e-02 5.855281e-02 5.595673e-02 5.626721e-02 5.495495e-02 5.816118e-02 5.542760e-02 4.813108e-02 4.395990e-02 4.049637e-02 3.962190e-02 
4.897453e-02 5.047628e-02 5.110164e-02 5.445911e-02 5.647371e-02 6.187949e-02 6.370137e-02 6.501482e-02 6.354425e-02 6.511584e-02 6.315335e-02 6.434591e-02 6.349850e-02 6.396615e-02 6.354501e-02 6.390359e-02 6.370014e-02 6.398656e-02 6.386293e-02 6.407726e-02 6.441884e-02 6.549182e-02 6.327866e-02 6.192751e-02 6.164959e-02 6.139128e-02 6.421532e-02 6.446022e-02 6.640979e-02 6.551248e-02 6.475997e-02 6.132120e-02 6.184832e-02 6.095377e-02 6.325328e-02 6.470852e-02 6.465575e-02 6.382362e-02 6.273839e-02 6.165109e-02 6.297362e-02 6.268454e-02 6.358073e-02 6.273523e-02 6.231955e-02 6.232236e-02 6.152418e-02 6.133973e-02 6.006233e-02 6.091405e-02 6.174779e-02 5.849668e-02 5.501471e-02 5.856490e-02 4.934074e-02 5.163596e-02 4.542889e-02 4.172792e-02 4.775683e-02 4.999913e-02 5.250580e-02 4.722706e-02 5.374548e-02 4.854378e-02 6.082135e-02 5.910878e-02 6.569839e-02 7.329804e-02 7.147798e-02 8.363857e-02 7.239060e-02 7.948117e-02 8.272136e-02 7.676091e-02 7.520331e-02 7.579250e-02 7.158023e-02 6.775710e-02 7.173372e-02 6.770840e-02 6.705374e-02 6.778368e-02 6.467345e-02 6.469771e-02 6.650853e-02 6.566903e-02 6.364087e-02 6.292248e-02 6.315183e-02 6.439432e-02 6.331792e-02 6.410037e-02 6.401413e-02 6.347067e-02 6.293012e-02 6.123198e-02 6.158944e-02 6.343569e-02 6.421590e-02 6.552894e-02 6.410216e-02 6.195897e-02 6.126197e-02 6.124669e-02 6.208602e-02 6.439067e-02 6.547843e-02 6.576383e-02 6.348466e-02 6.198282e-02 6.020220e-02 6.132251e-02 6.126261e-02 6.290468e-02 6.469441e-02 6.589771e-02 6.560035e-02 6.436531e-02 6.284904e-02 6.134380e-02 6.024069e-02 5.969340e-02 6.095274e-02 5.701751e-02 5.400415e-02 5.180657e-02 4.987727e-02 4.964321e-02 
4.888447e-02 5.010814e-02 5.088183e-02 5.343869e-02 5.500535e-02 5.835514e-02 5.955874e-02 6.180406e-02 6.289943e-02 6.468636e-02 6.717438e-02 6.876473e-02 7.443470e-02 7.469651e-02 7.441666e-02 7.472817e-02 7.449296e-02 7.485848e-02 7.468707e-02 7.496675e-02 7.489223e-02 7.498887e-02 6.880315e-02 6.734588e-02 6.446187e-02 6.365802e-02 6.312848e-02 6.228952e-02 6.238249e-02 6.151630e-02 6.165222e-02 6.003882e-02 6.082599e-02 5.984489e-02 6.067598e-02 6.066227e-02 6.067529e-02 6.042544e-02 6.043749e-02 5.988854e-02 6.058492e-02 6.010401e-02 6.062971e-02 6.026756e-02 6.010924e-02 6.022425e-02 5.964051e-02 6.000483e-02 5.922204e-02 5.958801e-02 5.873353e-02 5.821332e-02 5.591282e-02 5.574213e-02 5.121568e-02 4.946094e-02 4.351877e-02 4.307741e-02 4.867942e-02 4.988900e-02 5.384430e-02 5.012901e-02 5.142389e-02 5.110469e-02 5.700896e-02 5.849481e-02 6.370931e-02 6.890338e-02 6.922291e-02 7.174792e-02 6.700991e-02 7.021447e-02 6.996863e-02 6.750830e-02 6.568221e-02 6.471646e-02 6.334921e-02 6.214498e-02 6.234827e-02 6.143132e-02 6.118716e-02 6.117000e-02 6.068485e-02 6.050786e-02 6.075564e-02 6.033564e-02 6.004149e-02 5.986372e-02 5.963762e-02 6.021855e-02 5.965957e-02 6.013944e-02 5.985810e-02 5.961783e-02 5.967751e-02 5.921487e-02 5.939818e-02 5.994663e-02 5.971288e-02 6.027699e-02 5.980684e-02 5.942937e-02 5.946366e-02 5.950920e-02 5.939803e-02 6.010498e-02 6.007805e-02 6.050596e-02 5.954887e-02 5.966449e-02 5.884391e-02 5.965920e-02 5.907803e-02 5.954112e-02 5.980348e-02 5.992136e-02 5.987699e-02 5.899171e-02 5.884785e-02 5.758316e-02 5.732233e-02 5.597880e-02 5.562013e-02 5.375295e-02 5.206157e-02 5.065136e-02 4.937363e-02 4.918654e-02 
5.306384e-02 5.426121e-02 5.465113e-02 5.695184e-02 5.802757e-02 6.090100e-02 6.219840e-02 6.435842e-02 6.560403e-02 6.751976e-02 7.009325e-02 7.186468e-02 7.783594e-02 7.799915e-02 7.784206e-02 7.799188e-02 7.791739e-02 7.799512e-02 7.803140e-02 7.799946e-02 7.815628e-02 7.799825e-02 7.221312e-02 7.058075e-02 6.801183e-02 6.682835e-02 6.635701e-02 6.533007e-02 6.560544e-02 6.445756e-02 6.483366e-02 6.357765e-02 6.418597e-02 6.333056e-02 6.403779e-02 6.359968e-02 6.398606e-02 6.353953e-02 6.372908e-02 6.335830e-02 6.365916e-02 6.342468e-02 6.360213e-02 6.342222e-02 6.332935e-02 6.330249e-02 6.297415e-02 6.302064e-02 6.244510e-02 6.251913e-02 6.163583e-02 6.137958e-02 5.938711e-02 5.927195e-02 5.575715e-02 5.446048e-02 4.980399e-02 4.882407e-02 5.124168e-02 5.102070e-02 5.369010e-02 5.265242e-02 6.121971e-02 6.237223e-02 6.620372e-02 6.652060e-02 6.515986e-02 6.467548e-02 6.538152e-02 7.086203e-02 6.936413e-02 7.321287e-02 7.151693e-02 6.967848e-02 6.811103e-02 6.716614e-02 6.627738e-02 6.528921e-02 6.538845e-02 6.457725e-02 6.448017e-02 6.425981e-02 6.393383e-02 6.384654e-02 6.380913e-02 6.372163e-02 6.342366e-02 6.340722e-02 6.318366e-02 6.338514e-02 6.309313e-02 6.326631e-02 6.306146e-02 6.306695e-02 6.287970e-02 6.282826e-02 6.274848e-02 6.304277e-02 6.299263e-02 6.328160e-02 6.301766e-02 6.300643e-02 6.275635e-02 6.293470e-02 6.283079e-02 6.332977e-02 6.316809e-02 6.360298e-02 6.301148e-02 6.329975e-02 6.261966e-02 6.306551e-02 6.263911e-02 6.304326e-02 6.291383e-02 6.304807e-02 6.277412e-02 6.239472e-02 6.190459e-02 6.114538e-02 6.059738e-02 5.948566e-02 5.892330e-02 5.712562e-02 5.582338e-02 5.461678e-02 5.353404e-02 5.347673e-02 
4.888344e-02 5.007641e-02 5.084780e-02 5.337852e-02 5.494967e-02 5.826467e-02 5.947620e-02 6.167166e-02 6.281514e-02 6.459189e-02 6.721311e-02 6.879763e-02 7.462080e-02 7.477406e-02 7.462779e-02 7.478879e-02 7.468923e-02 7.480879e-02 7.478806e-02 7.479954e-02 7.484152e-02 7.472352e-02 6.907578e-02 6.772951e-02 6.511828e-02 6.402378e-02 6.331863e-02 6.221764e-02 6.237128e-02 6.118448e-02 6.172779e-02 6.059170e-02 6.133850e-02 6.043216e-02 6.104750e-02 6.048640e-02 6.083586e-02 6.050258e-02 6.072446e-02 6.058226e-02 6.076641e-02 6.071604e-02 6.081477e-02 6.082431e-02 6.078248e-02 6.090716e-02 6.068575e-02 6.087940e-02 6.040561e-02 6.049684e-02 5.950700e-02 5.915611e-02 5.701516e-02 5.582925e-02 5.126020e-02 4.797080e-02 3.865581e-02 3.807476e-02 4.564147e-02 4.569954e-02 4.800054e-02 4.623556e-02 4.867145e-02 4.658726e-02 5.576744e-02 5.869055e-02 6.495754e-02 7.258794e-02 7.290364e-02 8.055395e-02 7.791931e-02 8.016705e-02 7.564116e-02 6.865734e-02 6.530629e-02 6.239717e-02 6.104018e-02 5.988808e-02 5.951595e-02 5.913536e-02 5.907985e-02 5.907537e-02 5.912037e-02 5.918284e-02 5.928532e-02 5.936778e-02 5.936439e-02 5.944599e-02 5.935369e-02 5.953053e-02 5.937781e-02 5.952451e-02 5.942427e-02 5.948448e-02 5.937784e-02 5.940638e-02 5.932247e-02 5.947734e-02 5.939659e-02 5.963346e-02 5.947742e-02 5.960807e-02 5.945791e-02 5.956588e-02 5.943081e-02 5.972220e-02 5.952297e-02 6.008858e-02 5.957010e-02 6.022954e-02 5.946372e-02 6.005825e-02 5.940430e-02 5.963957e-02 5.940048e-02 5.921623e-02 5.926565e-02 5.863077e-02 5.875331e-02 5.776640e-02 5.773427e-02 5.646853e-02 5.602484e-02 5.404647e-02 5.226683e-02 5.077002e-02 4.944292e-02 4.920457e-02 
4.892159e-02 5.041883e-02 5.103848e-02 5.440105e-02 5.638256e-02 6.175551e-02 6.344394e-02 6.464850e-02 6.318184e-02 6.496145e-02 6.325495e-02 6.474275e-02 6.391646e-02 6.417457e-02 6.397620e-02 6.420391e-02 6.414580e-02 6.416515e-02 6.432221e-02 6.408172e-02 6.428698e-02 6.397160e-02 6.365372e-02 6.314884e-02 6.394155e-02 6.309217e-02 6.473491e-02 6.353913e-02 6.472681e-02 6.327762e-02 6.425710e-02 6.314878e-02 6.436693e-02 6.348181e-02 6.427509e-02 6.364946e-02 6.398031e-02 6.358402e-02 6.381413e-02 6.391526e-02 6.413255e-02 6.428033e-02 6.432803e-02 6.442015e-02 6.450888e-02 6.477157e-02 6.495868e-02 6.542293e-02 6.578571e-02 6.650709e-02 6.711365e-02 6.797528e-02 6.908373e-02 7.063978e-02 7.234476e-02 7.428360e-02 7.766104e-02 7.614896e-02 6.741877e-02 6.592146e-02 6.786831e-02 6.782593e-02 7.590195e-02 7.801849e-02 6.918467e-02 6.394915e-02 5.430549e-02 4.442575e-02 4.340987e-02 4.196096e-02 4.358211e-02 5.020316e-02 5.142819e-02 5.240285e-02 5.424805e-02 5.588410e-02 5.703318e-02 5.801872e-02 5.896870e-02 5.969951e-02 6.031385e-02 6.095620e-02 6.134477e-02 6.168830e-02 6.199826e-02 6.236806e-02 6.246211e-02 6.256499e-02 6.246074e-02 6.260229e-02 6.247237e-02 6.259529e-02 6.255087e-02 6.266011e-02 6.246448e-02 6.245010e-02 6.224722e-02 6.239577e-02 6.248845e-02 6.292947e-02 6.291520e-02 6.307675e-02 6.274601e-02 6.259660e-02 6.236746e-02 6.259955e-02 6.267460e-02 6.358699e-02 6.331655e-02 6.417849e-02 6.322989e-02 6.380014e-02 6.283645e-02 6.291492e-02 6.263147e-02 6.267110e-02 6.270646e-02 6.264408e-02 6.255133e-02 6.241600e-02 6.226382e-02 6.181321e-02 6.233288e-02 5.774462e-02 5.439344e-02 5.195921e-02 4.991769e-02 4.961634e-02 
3.878552e-02 4.033029e-02 4.226784e-02 4.695536e-02 5.283864e-02 6.174420e-02 5.915165e-02 6.012573e-02 5.622182e-02 5.665746e-02 5.253080e-02 5.236938e-02 4.671575e-02 4.694996e-02 4.678826e-02 4.702953e-02 4.693900e-02 4.705855e-02 4.722768e-02 4.703831e-02 4.719375e-02 4.694003e-02 5.067261e-02 5.181427e-02 5.485786e-02 5.458630e-02 5.752642e-02 5.648533e-02 5.866330e-02 5.666533e-02 5.850844e-02 5.705070e-02 5.896562e-02 5.761966e-02 5.856126e-02 5.793938e-02 5.814641e-02 5.795142e-02 5.802706e-02 5.860810e-02 5.839124e-02 5.888644e-02 5.882690e-02 5.903447e-02 5.929395e-02 5.960372e-02 6.004538e-02 6.075202e-02 6.162853e-02 6.275976e-02 6.415340e-02 6.561356e-02 6.859022e-02 7.133043e-02 7.679518e-02 8.113880e-02 9.211871e-02 9.149001e-02 7.827183e-02 7.660348e-02 7.581049e-02 7.499010e-02 7.651360e-02 7.814763e-02 6.405168e-02 5.895127e-02 4.574582e-02 3.076610e-02 2.825498e-02 1.840829e-02 1.870886e-02 1.878195e-02 2.386483e-02 3.204957e-02 3.755002e-02 4.290655e-02 4.567892e-02 4.852444e-02 5.016876e-02 5.184240e-02 5.282357e-02 5.395834e-02 5.469377e-02 5.521300e-02 5.578266e-02 5.636786e-02 5.655905e-02 5.655890e-02 5.652490e-02 5.681567e-02 5.662019e-02 5.665785e-02 5.695042e-02 5.706982e-02 5.668318e-02 5.663171e-02 5.642441e-02 5.637381e-02 5.667215e-02 5.719263e-02 5.691353e-02 5.721054e-02 5.694165e-02 5.644019e-02 5.670989e-02 5.622330e-02 5.674246e-02 5.797925e-02 5.747577e-02 5.929281e-02 5.719738e-02 5.880817e-02 5.703450e-02 5.743887e-02 5.718120e-02 5.673141e-02 5.778142e-02 5.677176e-02 5.835213e-02 5.690392e-02 5.862960e-02 5.759439e-02 5.979845e-02 5.619565e-02 4.849301e-02 4.401901e-02 4.044172e-02 3.947254e-02 
3.232504e-02 3.383608e-02 3.441075e-02 3.751119e-02 3.996860e-02 4.438429e-02 3.012692e-02 3.554212e-02 3.014156e-02 3.071057e-02 2.760951e-02 2.705133e-02 2.116485e-02 2.341626e-02 2.300343e-02 2.366727e-02 2.339642e-02 2.308964e-02 2.343804e-02 2.251024e-02 2.276268e-02 2.144908e-02 2.743593e-02 2.753396e-02 3.055657e-02 2.948789e-02 3.066623e-02 2.953724e-02 3.201206e-02 3.005438e-02 3.290616e-02 3.084219e-02 3.254030e-02 3.063631e-02 3.156400e-02 3.106170e-02 3.164295e-02 3.195612e-02 3.200282e-02 3.247551e-02 3.170284e-02 3.229690e-02 3.245194e-02 3.300616e-02 3.363714e-02 3.399098e-02 3.458710e-02 3.523953e-02 3.590984e-02 3.671390e-02 3.726896e-02 3.839452e-02 3.947730e-02 4.038637e-02 4.276677e-02 4.437188e-02 4.705911e-02 4.762148e-02 4.506140e-02 4.412464e-02 4.293813e-02 4.152145e-02 3.667664e-02 3.559961e-02 3.111773e-02 2.984883e-02 2.618269e-02 2.227636e-02 2.000631e-02 1.449422e-02 1.342773e-02 1.092374e-02 1.242818e-02 1.659161e-02 1.924883e-02 2.169698e-02 2.350972e-02 2.534268e-02 2.621013e-02 2.711131e-02 2.775252e-02 2.807600e-02 2.870859e-02 2.904199e-02 2.936583e-02 2.962522e-02 2.971845e-02 2.993421e-02 3.018414e-02 3.080148e-02 3.071150e-02 3.085118e-02 3.124573e-02 3.145492e-02 3.108779e-02 3.141231e-02 3.137799e-02 3.111916e-02 3.078654e-02 3.043407e-02 2.935039e-02 2.966572e-02 2.997870e-02 3.014428e-02 3.113077e-02 3.011695e-02 2.993173e-02 2.993533e-02 2.846889e-02 3.023494e-02 2.823281e-02 3.071425e-02 2.998387e-02 3.119330e-02 3.177637e-02 2.991263e-02 3.274402e-02 2.873728e-02 3.347887e-02 2.835109e-02 3.289547e-02 3.032031e-02 3.117910e-02 4.038420e-02 3.469544e-02 3.516748e-02 3.238619e-02 3.318867e-02 
8.133936e-03 7.442907e-03 4.693506e-03 5.869080e-04 -6.696220e-03 -1.592498e-02 -2.323270e-02 -2.109885e-02 -2.010818e-02 -2.158599e-02 -1.808769e-02 -2.107540e-02 -1.687447e-02 -2.165606e-02 -2.116782e-02 -2.377762e-02 -2.233361e-02 -2.359688e-02 -2.319147e-02 -2.131725e-02 -2.052477e-02 -1.722888e-02 -1.759501e-02 -1.727237e-02 -1.891672e-02 -1.844698e-02 -2.131221e-02 -2.039793e-02 -2.131451e-02 -1.998494e-02 -2.023262e-02 -1.989350e-02 -2.112484e-02 -2.080154e-02 -2.122064e-02 -2.087316e-02 -2.054421e-02 -2.015043e-02 -2.009384e-02 -2.059330e-02 -2.070586e-02 -2.092019e-02 -2.055503e-02 -2.033513e-02 -1.998010e-02 -1.997033e-02 -1.977377e-02 -1.995800e-02 -2.013914e-02 -2.045630e-02 -2.099344e-02 -2.089934e-02 -2.221369e-02 -2.280808e-02 -2.406529e-02 -2.410079e-02 -2.725479e-02 -2.671480e-02 -2.489833e-02 -2.546797e-02 -2.482802e-02 -2.466065e-02 -2.325500e-02 -2.272450e-02 -1.987415e-02 -1.954622e-02 -1.765080e-02 -1.486930e-02 -1.412361e-02 -1.143240e-02 -1.089355e-02 -9.058503e-03 -1.129103e-02 -1.250401e-02 -1.392401e-02 -1.580798e-02 -1.608608e-02 -1.700643e-02 -1.731727e-02 -1.825156e-02 -1.838148e-02 -1.934597e-02 -1.953437e-02 -1.974387e-02 -2.012301e-02 -2.051245e-02 -2.065602e-02 -2.026610e-02 -2.002344e-02 -1.980036e-02 -1.959359e-02 -1.935931e-02 -1.956863e-02 -1.941203e-02 -1.924237e-02 -1.879469e-02 -1.866903e-02 -1.867667e-02 -1.946574e-02 -2.039343e-02 -2.090131e-02 -2.103930e-02 -2.058029e-02 -1.966118e-02 -1.944173e-02 -1.935924e-02 -2.036037e-02 -2.202373e-02 -2.253050e-02 -2.373311e-02 -2.230337e-02 -2.266461e-02 -2.063087e-02 -2.025430e-02 -1.927368e-02 -2.011186e-02 -1.926973e-02 -2.110273e-02 -1.960396e-02 -2.161076e-02 -2.049214e-02 -2.088332e-02 -2.307916e-02 -1.083854e-02 -4.304368e-03 2.982631e-03 5.677643e-03 8.131145e-03 
7.143284e-03 5.128782e-03 3.134178e-03 -2.387744e-03 -8.472440e-03 -1.765396e-02 -9.230496e-03 -1.332221e-02 -8.205761e-03 -8.791149e-03 -4.410518e-03 -2.589864e-03 4.745049e-03 8.531361e-03 1.262272e-02 1.302237e-02 1.487218e-02 1.506100e-02 1.337650e-02 1.361713e-02 9.458642e-03 4.925752e-03 -1.586674e-03 -3.991729e-03 -8.008694e-03 -7.448798e-03 -1.031438e-02 -8.638336e-03 -1.173019e-02 -8.980075e-03 -1.224919e-02 -9.865096e-03 -1.258185e-02 -1.029182e-02 -1.166132e-02 -1.063613e-02 -1.119000e-02 -1.102242e-02 -1.125509e-02 -1.165903e-02 -1.117964e-02 -1.151816e-02 -1.146203e-02 -1.164709e-02 -1.181131e-02 -1.203380e-02 -1.209612e-02 -1.271930e-02 -1.300252e-02 -1.364613e-02 -1.401301e-02 -1.449521e-02 -1.588686e-02 -1.582318e-02 -1.805808e-02 -1.787709e-02 -1.959774e-02 -1.947517e-02 -1.887516e-02 -1.814490e-02 -1.615917e-02 -1.476686e-02 -1.060969e-02 -1.082076e-02 -7.617071e-03 -7.885903e-03 -6.205888e-03 -3.967501e-03 -3.365738e-03 1.276858e-03 1.248323e-03 3.633551e-03 1.883742e-03 8.990816e-04 -1.263050e-03 -2.958445e-03 -4.271997e-03 -6.125627e-03 -6.339772e-03 -7.771480e-03 -7.991125e-03 -8.710905e-03 -9.288652e-03 -9.466820e-03 -9.865617e-03 -9.981318e-03 -1.022736e-02 -9.964890e-03 -1.004715e-02 -1.025680e-02 -1.006210e-02 -9.883463e-03 -1.036675e-02 -1.024378e-02 -1.003313e-02 -9.905287e-03 -9.948654e-03 -9.557597e-03 -9.659065e-03 -9.728819e-03 -9.175920e-03 -9.496303e-03 -9.710471e-03 -9.307392e-03 -1.000188e-02 -8.979404e-03 -9.256703e-03 -1.012511e-02 -9.129906e-03 -1.138632e-02 -8.922046e-03 -1.124367e-02 -9.386646e-03 -1.000846e-02 -9.855575e-03 -8.392094e-03 -1.047698e-02 -7.709892e-03 -1.131138e-02 -7.605165e-03 -1.113049e-02 -8.559210e-03 -1.025380e-02 -1.132698e-02 -2.570417e-03 1.279108e-03 5.499225e-03 6.200836e-03 
1.069763e-03 -7.100407e-04 -7.198108e-04 -3.608836e-03 -3.838791e-03 -6.666737e-03 1.945498e-03 -3.290900e-03 -1.659570e-03 -2.477664e-03 -4.608630e-03 -3.198687e-03 -7.549567e-03 -3.273310e-03 -3.146687e-03 -9.309018e-04 -1.624751e-03 -5.715421e-04 -3.087097e-04 -2.209645e-03 -2.574037e-03 -6.299340e-03 -3.792433e-03 -4.507034e-03 -3.226673e-03 -2.595446e-03 -1.677851e-03 -2.744711e-04 -1.393794e-03 1.227313e-04 -2.270917e-03 -3.813584e-04 -2.265186e-03 -3.689294e-04 -1.340957e-03 -5.203072e-04 -1.031906e-03 -1.125337e-03 -1.503900e-03 -1.416337e-03 -1.367249e-03 -1.301474e-03 -1.576810e-03 -1.846950e-03 -1.933381e-03 -2.427614e-03 -2.179976e-03 -3.028901e-03 -2.762839e-03 -3.320622e-03 -3.020798e-03 -3.386792e-03 -3.921854e-03 -2.524602e-03 -4.042000e-03 -2.785652e-03 -2.428973e-03 -2.464195e-03 -3.151048e-03 -2.474246e-03 -1.763839e-03 -7.191376e-04 2.870888e-03 1.211287e-03 3.300362e-03 2.166198e-03 2.875413e-03 3.540817e-03 2.704699e-03 6.239780e-03 5.388697e-03 6.735169e-03 5.561883e-03 5.270751e-03 3.939812e-03 3.900596e-03 3.142524e-03 1.794158e-03 2.658934e-03 1.337507e-03 1.571242e-03 1.279963e-03 7.458016e-04 7.952689e-04 6.037059e-04 9.727921e-04 5.278295e-04 5.913964e-04 4.138796e-04 8.658365e-05 2.131847e-04 8.280764e-05 -4.821536e-05 1.186704e-04 -1.651295e-04 -1.326385e-04 -3.594760e-04 -8.876632e-05 5.805188e-04 8.577976e-04 1.415649e-03 1.219017e-03 5.682809e-04 4.151112e-04 2.235881e-04 7.886625e-04 1.376698e-03 1.356715e-03 2.442666e-03 1.157463e-03 2.143557e-03 5.244033e-04 1.220359e-03 1.023660e-03 7.579827e-04 2.639595e-03 5.151186e-04 3.875662e-03 -5.098756e-05 4.002134e-03 5.755593e-04 3.195925e-03 3.423765e-03 -2.999536e-03 -1.163471e-04 -1.123027e-03 1.050124e-03 1.052641e-04 
