# vtk DataFile Version 2.0
Comment goes here
ASCII

DATASET STRUCTURED_POINTS
FIELD FieldData 1
TIME 1 1 double
0.12000000
DIMENSIONS    128   16   1

ORIGIN    0.000   0.000   0.000
SPACING   0.0078125 0.015625   1.000

POINT_DATA   2048
SCALARS uY double
LOOKUP_TABLE default

-6.071131e-05 -4.916663e-05 -3.681211e-05 -3.055994e-05 -1.817178e-05 -1.643178e-05 -5.929904e-07 -8.293358e-06 2.343009e-06 -4.710716e-05 -3.640067e-06 -5.421157e-05 -4.615031e-05 -6.640412e-05 -1.183549e-04 -8.376297e-05 -1.239115e-04 -5.306715e-05 -1.053641e-04 -6.365279e-05 8.039742e-05 -3.093545e-05 2.090900e-04 3.689635e-05 2.346044e-04 -8.547480e-05 3.480538e-05 -2.286639e-04 -1.319099e-04 -1.332570e-04 -1.327051e-04 -2.403931e-04 -3.256861e-04 -3.938278e-04 -4.337569e-04 -3.094570e-04 -2.518920e-04 -1.725638e-04 -1.554979e-04 -7.603148e-05 -1.839877e-04 -1.220271e-04 -1.161309e-04 2.077899e-05 8.805288e-05 2.222399e-04 1.873362e-04 2.094264e-04 1.865254e-04 2.022414e-04 1.766111e-04 2.326565e-04 3.073926e-04 6.252080e-04 8.306957e-04 1.034121e-03 7.952030e-04 -1.462465e-04 -1.025588e-03 -2.289651e-03 -3.613473e-03 -3.177731e-03 -2.793159e-03 -1.258606e-03 -4.531664e-04 -1.916922e-04 -1.878266e-03 -2.866660e-03 -4.434015e-03 -3.990205e-03 -2.101260e-03 4.585556e-05 2.499622e-03 3.679209e-03 4.020796e-03 3.422818e-03 2.937452e-03 1.926078e-03 1.692347e-03 8.374554e-04 9.029655e-04 2.943768e-04 6.350133e-04 2.669988e-04 5.376246e-04 2.416224e-04 3.647704e-04 9.961965e-05 1.016714e-04 1.913053e-05 4.400100e-05 1.260819e-04 1.180629e-04 9.346006e-05 -1.612248e-04 -2.626511e-04 -5.676958e-04 -4.695447e-04 -5.509782e-04 -1.721670e-04 -2.247597e-04 1.671689e-04 4.667747e-05 1.369616e-04 -1.553253e-06 -6.511176e-05 -2.056536e-05 -1.591118e-04 1.013254e-04 7.547546e-05 1.352029e-04 -8.423626e-06 5.634005e-05 -1.804148e-04 -1.234163e-04 -7.939331e-05 -1.756291e-04 -4.854978e-05 3.601956e-05 -6.008958e-05 -7.934579e-05 -1.070299e-05 -1.717957e-04 -1.104070e-04 -1.355903e-04 -9.967329e-05 -9.361224e-05 -7.322697e-05 
6.393396e-04 1.132834e-03 2.774441e-03 1.578192e-03 2.896904e-03 -6.011457e-03 -9.025087e-04 5.519307e-03 3.075370e-03 7.926351e-03 8.475168e-03 1.667177e-02 2.204912e-02 2.358232e-02 1.055549e-02 6.659562e-03 2.499659e-03 -2.680629e-03 -6.707759e-03 -1.160156e-02 -2.362658e-02 -2.326022e-02 -1.434728e-02 -9.289380e-03 -5.177533e-03 -4.022489e-03 -2.361021e-03 -2.244184e-03 -1.380783e-03 -8.741043e-04 -2.554498e-04 -5.028670e-04 -3.373789e-04 -7.296002e-04 -4.136157e-04 -4.662954e-04 1.988558e-04 -2.287752e-04 2.517310e-04 1.126157e-05 6.584031e-05 -3.222305e-04 7.643360e-05 1.008968e-04 5.613816e-04 4.467674e-04 3.517403e-04 -2.461194e-05 1.310453e-04 2.285616e-04 3.758841e-04 3.962086e-04 4.613623e-04 1.163305e-03 1.734863e-03 3.375861e-03 2.573075e-03 -1.000742e-03 -1.914751e-03 -7.557854e-03 -9.931584e-03 1.492350e-03 3.952237e-03 6.648873e-04 1.265347e-03 -1.218039e-03 -6.497670e-03 -7.265100e-03 -1.477804e-02 -1.003544e-02 3.191850e-03 3.888907e-03 3.585978e-03 5.723325e-03 5.706966e-03 4.895051e-03 3.833831e-03 2.611609e-03 2.354995e-03 1.150604e-03 1.043795e-03 1.594047e-04 8.458440e-04 3.380961e-04 7.659258e-04 1.599375e-04 6.671430e-04 -5.649844e-05 1.022188e-04 -3.963873e-04 1.634180e-04 -1.084205e-04 3.955446e-04 4.915184e-05 3.042115e-04 -2.606482e-04 -3.943536e-04 -6.254971e-04 -5.362939e-04 -1.787564e-04 -3.382684e-04 4.278530e-04 -1.618280e-04 3.076939e-04 -2.501332e-04 3.493398e-04 -4.173587e-04 2.154309e-04 -3.229859e-04 9.617128e-04 -5.245568e-04 9.200355e-04 -4.412959e-04 1.511284e-04 -8.118635e-04 4.722702e-04 -1.221788e-03 -3.167154e-04 1.749706e-04 -1.752138e-03 9.361069e-05 -3.723927e-03 5.291455e-03 -1.233624e-04 -2.200817e-03 -1.316172e-03 -1.362916e-03 -2.483049e-04 
8.846211e-04 2.895019e-03 5.577693e-03 6.396615e-03 8.505189e-03 -1.990903e-02 -8.757489e-03 9.202802e-03 -2.149547e-03 7.795912e-03 -9.339162e-04 9.811842e-03 -1.690643e-03 -7.929253e-03 -5.749320e-03 -1.270480e-03 -1.356022e-03 1.450013e-03 1.804688e-03 3.697736e-03 9.123943e-03 -2.245877e-03 -4.356398e-03 -1.488326e-03 -9.278832e-04 -7.518991e-04 -9.363596e-04 -1.710379e-03 -1.781789e-03 -4.554700e-04 9.594914e-05 -3.882373e-04 -2.845736e-04 -1.063777e-03 -7.879203e-04 -6.132418e-04 8.016258e-04 -3.078685e-04 7.581628e-04 4.006940e-04 1.102825e-04 -8.532270e-04 5.382364e-05 2.227379e-04 1.295286e-03 1.091468e-03 5.097904e-04 -5.501915e-04 -2.185741e-04 -3.458464e-05 7.400476e-05 -4.626604e-04 -1.053016e-03 -3.197260e-04 8.312635e-04 3.745363e-03 3.077129e-03 -2.029625e-03 -2.615664e-03 -6.060333e-03 -5.935750e-03 3.611492e-03 4.700756e-03 2.915366e-03 1.113336e-03 -1.070155e-03 -6.346121e-03 -5.598434e-03 -1.051107e-02 -5.879499e-03 2.937543e-03 3.168792e-03 4.540938e-03 5.267220e-03 3.755528e-03 2.395138e-03 1.447456e-03 8.890659e-04 1.665786e-03 6.884088e-04 5.710614e-04 -6.955307e-04 6.448261e-04 2.344351e-04 7.433588e-04 7.046313e-05 1.142221e-03 -1.166650e-04 -5.587600e-05 -9.713043e-04 -6.937633e-05 -4.737885e-04 9.703228e-04 3.964736e-04 1.045181e-03 -2.477733e-04 -5.474725e-04 -1.357268e-03 -8.170013e-04 -2.962456e-04 -5.922901e-04 7.785650e-04 -1.128851e-04 6.591536e-04 -4.646111e-04 7.663461e-04 -8.645128e-04 1.873740e-06 -8.242249e-04 2.229655e-03 -1.087315e-03 1.987945e-03 -9.411048e-04 1.029120e-04 -1.942465e-03 1.193871e-03 -2.961573e-03 -1.591929e-04 4.489551e-04 -2.616828e-03 6.944174e-04 -5.774053e-03 1.786567e-02 -2.532348e-03 -1.044239e-02 -1.995966e-03 -3.163071e-03 1.921896e-04 
1.950629e-03 8.133307e-03 1.547241e-02 2.429491e-02 3.528984e-02 -9.026530e-03 -8.316891e-03 3.604089e-03 -5.842135e-03 2.147378e-03 -6.012594e-03 -2.110927e-03 -5.709901e-03 6.166836e-03 -5.481369e-04 2.533211e-03 -7.713065e-04 4.689787e-04 -1.605992e-03 -1.306532e-03 -3.598410e-03 2.293014e-03 4.483863e-03 3.346492e-03 3.267474e-03 2.705040e-03 2.408991e-03 4.074872e-04 -3.998199e-04 -1.798263e-04 2.965439e-05 -8.007436e-04 3.275280e-04 -4.675396e-04 -5.855176e-04 -4.687304e-04 8.498947e-04 -5.505114e-04 9.782563e-04 6.086544e-04 3.580907e-04 -1.052088e-03 4.510387e-04 -1.805984e-04 1.516404e-03 8.300087e-04 8.193940e-04 -8.338494e-04 2.564612e-04 -3.342550e-04 1.584922e-04 -7.775144e-04 -1.621830e-03 -2.080447e-03 -1.903455e-03 -1.915794e-03 -1.102505e-03 3.396705e-03 1.985902e-03 4.757791e-03 3.910571e-03 -3.445608e-03 -6.351808e-03 -1.388971e-03 -7.843560e-04 1.281515e-03 3.079425e-03 4.358450e-03 8.618392e-03 6.285552e-03 -1.965305e-03 -1.161711e-03 -2.363796e-03 -1.580544e-03 -2.507316e-03 -2.740156e-03 -2.376939e-03 -1.522726e-03 2.858209e-04 7.571676e-04 1.463442e-03 -8.585266e-04 2.736060e-04 -1.123837e-03 -7.789143e-05 -9.493086e-04 1.372622e-03 -3.771009e-04 8.107056e-04 -8.237284e-04 -3.783404e-04 -1.186725e-03 1.551294e-03 9.006867e-04 1.315105e-03 -1.088643e-05 -5.420338e-04 -1.833580e-03 -9.584501e-04 -5.746421e-04 -7.713457e-04 6.041915e-05 6.861056e-04 1.871058e-03 -1.780767e-05 1.715246e-03 -6.893350e-04 9.250650e-05 -1.692458e-03 2.785124e-03 -9.967365e-04 2.084839e-03 -1.944909e-03 1.162267e-03 -2.783417e-03 1.729779e-03 -1.636307e-03 2.101958e-03 4.330720e-04 8.479035e-04 2.202878e-03 -3.838286e-03 1.354962e-02 -3.704245e-02 -3.735578e-02 -1.401991e-02 -1.007351e-02 -1.874211e-03 
1.380122e-03 8.404106e-03 1.566971e-02 2.695267e-02 4.060882e-02 2.472248e-02 6.982440e-03 4.042745e-04 -5.817176e-04 3.836306e-03 -3.666531e-05 5.542495e-03 1.357929e-03 -1.315516e-05 -2.088444e-04 4.629209e-04 -1.077665e-04 2.814260e-04 -2.872881e-04 -1.135048e-04 -2.892140e-04 -3.574247e-03 -3.139817e-03 -1.135783e-03 -1.690957e-03 1.235710e-03 5.550719e-04 1.255602e-03 -2.163234e-04 -6.494528e-04 -1.529534e-03 -1.273226e-03 -1.568105e-04 2.492795e-04 -2.598243e-04 -2.525234e-04 -4.099072e-04 -6.572814e-04 2.956128e-05 -1.271223e-04 3.170818e-04 -3.776695e-04 6.758329e-04 -6.750603e-04 4.271401e-04 -4.667279e-04 7.944827e-04 -1.138338e-05 1.291557e-03 3.150370e-04 1.125373e-03 1.194165e-03 1.218977e-03 8.154356e-04 1.765890e-04 5.820935e-04 6.969799e-04 1.778462e-03 6.088600e-04 -2.438964e-03 -4.053647e-03 2.943066e-03 3.442869e-03 1.245622e-03 -1.066886e-04 -2.137188e-03 -3.739616e-03 -4.081378e-03 -7.383590e-03 -3.589148e-03 3.278313e-03 3.993939e-03 2.221139e-03 1.917093e-03 -7.640327e-04 -4.830368e-04 -6.227909e-04 7.332927e-05 3.705069e-04 1.385585e-03 2.366608e-03 3.520566e-04 2.329653e-04 -1.821372e-03 -6.117326e-04 -1.575100e-03 5.475406e-04 -6.384162e-04 1.461751e-03 1.005291e-05 -6.569973e-05 -1.087030e-03 8.400373e-04 3.368898e-04 3.134761e-04 3.339551e-05 8.239681e-06 -7.560958e-04 -2.569194e-04 -5.454092e-04 -2.702135e-04 -9.526474e-04 9.400874e-04 1.744129e-03 4.689711e-04 1.512934e-03 -4.229296e-05 6.167712e-04 -1.617583e-03 8.747942e-04 -6.489764e-04 2.661163e-04 -2.329581e-03 1.512088e-03 -2.233867e-03 2.396046e-04 4.094862e-04 1.698593e-03 -2.138432e-03 1.822740e-03 -6.873102e-04 -1.635494e-03 -9.292807e-03 -4.931181e-02 -3.673231e-02 -1.976148e-02 -1.179317e-02 -4.439222e-03 
7.929267e-04 3.700556e-03 7.511928e-03 1.077201e-02 1.658665e-02 2.193176e-02 1.196356e-02 2.311447e-03 3.606403e-03 5.054720e-03 3.985254e-03 1.074063e-02 6.141421e-03 2.294703e-05 -1.839434e-04 4.440368e-04 -2.226529e-04 2.411211e-04 -2.728526e-04 -3.901870e-05 -9.164001e-06 -6.708876e-03 -7.690164e-03 -4.244975e-03 -4.019259e-03 -1.324082e-03 -1.266459e-03 7.263399e-05 -2.913895e-04 -6.878790e-04 -1.054051e-03 -7.956144e-04 -2.194317e-04 6.898764e-05 8.944618e-05 -2.041505e-04 -4.453817e-04 -4.156800e-04 -1.806477e-04 -4.827407e-04 2.315156e-04 -8.071236e-05 4.370912e-04 -5.767196e-04 -1.019637e-04 -8.207026e-04 2.698749e-04 -5.171792e-05 5.518347e-04 -2.104936e-04 5.406957e-05 6.829376e-05 -2.737640e-05 -2.640525e-04 -6.873833e-04 1.566831e-03 1.968901e-03 -1.270856e-03 -1.555987e-03 -5.209473e-03 -7.584728e-03 -1.323052e-04 1.535053e-04 -7.625503e-04 -9.509869e-04 -1.347680e-03 -2.876188e-03 -2.706597e-03 -7.038610e-03 -7.240690e-03 -9.273881e-04 2.173540e-03 6.133363e-03 7.673307e-03 5.099880e-03 4.295769e-03 3.012772e-03 2.423688e-03 1.605142e-03 1.504658e-03 1.891811e-03 8.459229e-04 6.500570e-04 -7.625190e-04 6.185856e-05 -8.368630e-04 2.056098e-04 -4.877932e-04 9.112364e-04 7.567219e-05 3.359812e-04 -4.279357e-04 1.885722e-04 -2.249344e-04 -1.248205e-04 -1.048168e-04 2.104086e-04 1.113983e-05 1.186982e-04 -2.218716e-04 5.329708e-05 -5.104717e-04 3.091593e-04 7.155479e-04 2.031393e-04 7.289361e-04 -2.494359e-05 7.513147e-04 -8.106122e-04 -1.449754e-05 -6.072318e-04 -1.973056e-04 -1.432434e-03 7.262615e-04 -1.159433e-03 -5.307190e-04 -6.074132e-06 -3.501411e-04 -2.467279e-03 -9.624039e-04 -2.550780e-03 -2.994675e-03 -1.317222e-02 -2.438439e-02 -1.349168e-02 -1.141738e-02 -6.011205e-03 -3.625870e-03 
7.390408e-04 2.991675e-03 5.404501e-03 7.170634e-03 8.828546e-03 9.360341e-03 7.548117e-03 6.761250e-03 5.573386e-03 8.903929e-03 7.968138e-03 1.697792e-02 1.448307e-02 1.080987e-04 -3.989834e-05 1.125673e-04 -5.019148e-05 7.677795e-05 -6.479495e-05 4.736922e-06 -5.534723e-05 -1.245780e-02 -1.404258e-02 -7.713660e-03 -7.178662e-03 -3.770936e-03 -3.678253e-03 -1.844754e-03 -1.979929e-03 -1.148206e-03 -1.273239e-03 -8.016856e-04 -7.069609e-04 -4.473898e-04 -4.425203e-04 -3.850809e-04 -3.452763e-04 -4.023805e-04 -2.051860e-04 -3.839914e-04 -8.894329e-05 -4.136091e-04 -3.597487e-05 -5.363583e-04 -1.347117e-04 -6.488446e-04 -2.560181e-04 -7.937170e-04 -5.949591e-04 -1.253802e-03 -1.434019e-03 -2.197745e-03 -2.948518e-03 -4.032052e-03 -4.982106e-03 -5.208561e-03 -3.791484e-03 3.659548e-04 9.174383e-04 -5.765569e-04 -2.339118e-03 1.790622e-03 1.518625e-03 9.908691e-04 2.255693e-03 1.012829e-03 1.137051e-03 5.660617e-04 -8.320608e-04 -7.814846e-04 2.546040e-03 2.920227e-03 2.846539e-04 2.403283e-03 2.938415e-03 2.709971e-03 2.200233e-03 1.732179e-03 1.499775e-03 1.075990e-03 1.203934e-03 4.468263e-04 6.803074e-04 -1.697406e-04 3.711415e-04 -3.593316e-04 3.693974e-04 -2.946152e-04 4.275334e-04 -1.909721e-04 2.440091e-04 -2.425274e-04 2.023269e-04 -1.169556e-04 8.532164e-05 -1.092708e-04 2.130224e-05 -1.576105e-04 -2.281724e-05 -1.295128e-04 -5.236146e-06 -3.687605e-05 9.923831e-05 3.515205e-04 1.308399e-05 4.247797e-04 -1.860219e-04 3.312036e-04 -5.057701e-04 2.177188e-04 -6.313624e-04 9.451256e-05 -9.338592e-04 7.548328e-05 -1.045544e-03 -3.311068e-04 -1.077113e-03 -8.088248e-04 -1.898657e-03 -2.035901e-03 -2.831808e-03 -4.457385e-03 -5.384638e-03 -9.886438e-03 -7.099118e-03 -6.734189e-03 -3.925049e-03 -2.087752e-03 
3.065201e-04 1.078479e-03 2.130317e-03 2.960981e-03 3.516675e-03 4.314192e-03 3.500984e-03 3.339200e-03 2.882601e-03 4.310432e-03 3.934482e-03 8.599284e-03 7.348722e-03 5.881406e-05 -3.202196e-05 7.788920e-05 -4.981817e-05 5.629329e-05 -5.149351e-05 1.437790e-05 -3.119156e-05 -6.161422e-03 -6.888444e-03 -3.841078e-03 -3.513843e-03 -1.962641e-03 -1.775830e-03 -9.668103e-04 -8.834226e-04 -6.055630e-04 -5.610084e-04 -4.384870e-04 -3.330669e-04 -2.855031e-04 -2.267485e-04 -2.696182e-04 -2.406924e-04 -3.075614e-04 -2.208954e-04 -3.421858e-04 -1.849269e-04 -3.530438e-04 -1.938905e-04 -4.485205e-04 -3.038000e-04 -5.611452e-04 -4.256466e-04 -6.677622e-04 -6.727379e-04 -9.612199e-04 -1.165897e-03 -1.455435e-03 -1.902985e-03 -2.208280e-03 -2.558473e-03 -2.039712e-03 -1.619276e-03 -4.599254e-05 -4.900741e-04 -4.428450e-03 -4.946323e-03 2.001752e-03 3.807520e-03 3.133848e-03 2.494099e-03 5.438685e-04 -5.334924e-04 -3.554525e-03 -7.266461e-03 -3.777039e-03 3.045183e-03 3.389099e-03 1.982066e-03 2.702149e-03 2.824756e-03 2.683490e-03 2.375911e-03 1.965187e-03 1.702309e-03 1.268141e-03 1.223234e-03 6.954484e-04 7.556418e-04 1.920114e-04 4.422155e-04 -3.624815e-05 3.202224e-04 -7.382891e-05 2.907233e-04 -4.951729e-05 1.616051e-04 -9.382898e-05 4.919356e-05 -7.867729e-05 -2.483422e-05 -3.932950e-05 -9.751852e-06 -8.301521e-06 -5.316397e-06 -2.051558e-05 -2.622356e-06 -9.767777e-06 1.774198e-05 1.278040e-04 -8.680433e-06 1.647472e-04 -9.429157e-05 1.190723e-04 -2.446924e-04 -1.933543e-05 -3.352570e-04 -9.970541e-05 -4.629853e-04 -1.142097e-04 -5.065651e-04 -3.277377e-04 -5.886511e-04 -5.771521e-04 -1.078657e-03 -1.112593e-03 -1.680695e-03 -2.164821e-03 -2.816160e-03 -4.032933e-03 -2.799754e-03 -2.935237e-03 -1.510709e-03 -1.031247e-03 
9.635971e-06 1.330777e-05 1.550310e-05 1.560939e-05 1.890639e-05 1.657468e-05 2.087498e-05 1.683374e-05 1.902429e-05 2.665281e-05 9.150008e-06 2.675810e-05 2.746923e-06 6.669731e-06 2.200411e-06 8.413422e-06 7.142501e-06 6.693134e-06 7.309994e-06 7.617480e-07 6.663794e-06 -1.933630e-04 -4.979071e-05 -1.593143e-04 -2.292894e-05 -9.946568e-05 1.017751e-05 -9.586667e-05 -3.158842e-05 -1.633454e-04 -1.222870e-04 -2.225516e-04 -1.723242e-04 -2.260709e-04 -1.968445e-04 -2.335680e-04 -2.314469e-04 -2.726319e-04 -2.790050e-04 -3.175586e-04 -3.185979e-04 -3.477338e-04 -3.476929e-04 -3.908476e-04 -4.240109e-04 -4.919966e-04 -5.905883e-04 -6.952019e-04 -8.961043e-04 -1.047954e-03 -1.366149e-03 -1.536905e-03 -1.947707e-03 -2.032816e-03 -2.253371e-03 -1.807428e-03 -1.573910e-03 5.480285e-04 9.367648e-05 -2.153575e-03 -2.855980e-03 2.436967e-04 7.818179e-04 1.382607e-03 2.053736e-03 1.367828e-03 1.977026e-03 -1.945598e-04 -1.550590e-03 -8.037662e-04 2.003222e-03 1.649899e-03 -1.154159e-04 8.573437e-04 1.337642e-03 1.399731e-03 1.464345e-03 1.198402e-03 1.182500e-03 8.299479e-04 8.596300e-04 4.770413e-04 5.529289e-04 1.875744e-04 3.337881e-04 5.085414e-05 2.331950e-04 2.400672e-05 1.620072e-04 1.521871e-05 4.828700e-05 -1.545393e-05 -5.664470e-05 -2.463145e-05 -1.320757e-04 -1.564451e-05 -1.438180e-04 4.561473e-06 -1.167518e-04 1.585897e-05 -7.589703e-05 2.380096e-05 -2.575765e-05 4.461742e-05 -3.707447e-06 2.531268e-05 -1.554596e-05 -3.445989e-05 -6.195109e-05 -1.068465e-04 -9.809803e-05 -1.535143e-04 -1.223561e-04 -1.505045e-04 -1.133472e-04 -1.436239e-04 -9.509177e-05 -1.114478e-04 -1.110168e-04 -8.655477e-05 -9.365929e-05 -8.254999e-05 -6.123945e-05 -3.979977e-05 -2.503033e-05 -9.333528e-06 -2.236169e-06 6.612120e-06 
-2.824001e-04 -1.056252e-03 -2.102460e-03 -2.944600e-03 -3.487570e-03 -4.306195e-03 -3.473679e-03 -3.349336e-03 -2.858796e-03 -4.283294e-03 -3.949507e-03 -8.587443e-03 -7.386390e-03 -5.362884e-05 3.355016e-05 -6.380002e-05 5.865037e-05 -4.729261e-05 5.336276e-05 -1.389759e-05 2.756265e-05 5.706854e-03 6.730298e-03 3.454960e-03 3.420690e-03 1.798903e-03 1.864418e-03 8.624958e-04 9.024187e-04 2.639887e-04 3.049652e-04 -3.356061e-05 3.145639e-05 -9.590048e-05 -6.653148e-05 -1.217846e-04 -1.719235e-04 -2.129005e-04 -3.283723e-04 -2.990258e-04 -4.240728e-04 -2.894313e-04 -4.246302e-04 -2.551840e-04 -4.655537e-04 -3.364878e-04 -6.384255e-04 -5.621911e-04 -9.579104e-04 -9.781830e-04 -1.468225e-03 -1.662501e-03 -2.310847e-03 -2.876342e-03 -3.634477e-03 -4.794978e-03 -3.931092e-03 1.973466e-03 1.405784e-03 -2.237279e-03 -2.569581e-03 3.793716e-03 5.657151e-03 4.905415e-03 5.232547e-03 2.525901e-03 2.835537e-03 -1.377551e-03 -3.962732e-03 -1.094391e-03 5.127045e-03 3.187860e-03 -3.298894e-03 -2.663691e-03 -9.298004e-04 -5.086000e-04 2.693582e-04 2.732738e-04 5.752750e-04 4.171149e-04 5.127991e-04 3.053737e-04 2.826072e-04 7.881167e-05 8.589790e-05 2.915257e-05 8.879307e-05 1.095118e-04 8.237961e-05 1.091014e-04 -6.962518e-05 9.193560e-06 -2.352499e-04 -2.393625e-05 -2.762258e-04 6.173397e-05 -1.831161e-04 1.490522e-04 -1.209324e-04 9.037626e-05 -1.278134e-04 -1.582464e-05 -8.579998e-05 -5.639011e-05 1.855727e-05 -6.858905e-05 9.347970e-05 -1.383072e-04 7.953840e-05 -2.528018e-04 8.438020e-05 -2.630452e-04 1.664980e-04 -1.533244e-04 2.984532e-04 2.654976e-05 4.646517e-04 3.575695e-04 8.015995e-04 9.568660e-04 1.482486e-03 1.953678e-03 2.718610e-03 3.975791e-03 2.779554e-03 2.938209e-03 1.522919e-03 1.052597e-03 
-6.957533e-04 -2.947505e-03 -5.363626e-03 -7.134016e-03 -8.784939e-03 -9.324387e-03 -7.491190e-03 -6.765830e-03 -5.503153e-03 -8.811349e-03 -7.963210e-03 -1.691402e-02 -1.451894e-02 -1.121553e-04 3.969433e-05 -8.184752e-05 8.357565e-05 -4.654774e-05 8.183989e-05 -9.045967e-06 5.272862e-05 1.189798e-02 1.383922e-02 7.309917e-03 7.119204e-03 3.798423e-03 3.997568e-03 1.937005e-03 2.112356e-03 7.884927e-04 8.661390e-04 1.340252e-04 2.603216e-04 1.118125e-05 8.929333e-05 4.439669e-05 -6.555926e-05 -1.192589e-04 -3.845850e-04 -3.100697e-04 -5.900908e-04 -2.298759e-04 -4.704833e-04 -1.339431e-05 -3.529350e-04 7.193113e-05 -3.717080e-04 -4.013138e-06 -5.546639e-04 -3.375996e-04 -9.178625e-04 -7.980468e-04 -1.375562e-03 -1.412030e-03 -1.668115e-03 -2.008034e-03 -2.032049e-03 1.815495e-03 5.618815e-04 -3.206352e-03 -3.853436e-03 5.165634e-04 1.808170e-03 2.231219e-03 3.365509e-03 1.482930e-03 2.997167e-03 -9.854094e-04 -2.980816e-03 -1.352563e-03 3.091762e-03 2.484823e-03 -1.547560e-03 -9.571482e-04 2.478104e-04 3.259528e-05 6.186092e-04 3.748850e-04 6.005377e-04 3.718632e-04 4.137445e-04 2.528216e-04 8.354531e-05 -5.646999e-05 -1.685969e-04 2.975142e-05 -1.353599e-05 2.761369e-04 7.142436e-05 3.128720e-04 -1.790709e-04 1.286141e-04 -4.310237e-04 -2.899512e-06 -6.026249e-04 3.446683e-05 -4.630395e-04 2.035395e-04 -2.649123e-04 1.753419e-04 -1.832407e-04 3.328466e-05 -3.802049e-05 -1.014558e-04 1.153802e-04 -2.120248e-04 2.932464e-04 -3.495835e-04 3.409384e-04 -5.341552e-04 3.877133e-04 -6.002233e-04 5.560577e-04 -3.919173e-04 7.819686e-04 -5.723778e-05 1.023954e-03 6.150089e-04 1.543014e-03 1.945685e-03 2.583747e-03 4.137619e-03 5.247599e-03 9.856403e-03 7.102910e-03 6.773605e-03 3.964249e-03 2.137928e-03 
-7.361601e-04 -3.651492e-03 -7.473783e-03 -1.074445e-02 -1.654392e-02 -2.188582e-02 -1.193323e-02 -2.543358e-03 -3.437348e-03 -4.813535e-03 -4.068113e-03 -1.075683e-02 -6.278974e-03 -8.977258e-05 1.666678e-04 -3.742920e-04 2.885373e-04 -2.183995e-04 2.668188e-04 1.394370e-05 3.740171e-05 5.911983e-03 7.190741e-03 3.300048e-03 3.490035e-03 1.816718e-03 2.357956e-03 1.007911e-03 1.132965e-03 -8.107579e-05 -1.174403e-04 -5.606422e-04 -2.998760e-04 -4.914821e-05 1.256303e-04 2.879457e-04 1.032508e-04 -1.374108e-04 -6.778992e-04 -6.394636e-04 -1.045387e-03 -3.270939e-04 -4.959430e-04 3.977127e-04 -1.016515e-04 4.612443e-04 -2.712956e-04 2.902819e-04 -5.163258e-04 -2.618385e-05 -6.804971e-04 -7.890750e-05 -8.484817e-04 -7.217909e-04 -1.506084e-03 -1.194998e-03 -1.242569e-03 3.000323e-05 2.669643e-04 -6.368085e-04 -9.718874e-04 8.400495e-04 1.230320e-03 5.768381e-04 9.322328e-04 -6.963790e-04 -3.210462e-04 -1.025636e-03 -1.468596e-03 -1.082343e-03 1.171988e-03 6.568389e-04 7.350124e-04 3.425427e-04 5.254096e-04 -2.915544e-04 1.646139e-04 1.395490e-04 4.568091e-04 4.303746e-04 4.432366e-04 3.867344e-04 -3.030554e-04 -7.193127e-04 -1.049118e-03 -4.070438e-04 -9.019357e-05 6.302479e-04 4.667234e-04 6.756509e-04 -2.388225e-04 -1.472312e-04 -1.012623e-03 -4.388800e-04 -1.060305e-03 1.598925e-04 -2.308364e-04 8.927560e-04 4.077678e-05 3.933900e-04 -4.469798e-04 -2.822521e-04 -4.376793e-04 -3.542236e-04 1.644419e-04 -7.332822e-05 6.379831e-04 -2.188192e-04 3.314308e-04 -9.051588e-04 1.976599e-04 -9.090452e-04 5.992460e-04 -4.778702e-04 9.675857e-04 -2.308462e-04 8.307805e-04 2.009312e-04 1.262473e-03 1.279558e-03 2.263237e-03 1.948495e-03 1.316935e-02 2.470458e-02 1.365317e-02 1.158774e-02 6.105317e-03 3.717005e-03 
-1.287034e-03 -8.335682e-03 -1.563531e-02 -2.692472e-02 -4.059508e-02 -2.457897e-02 -6.930414e-03 -8.675693e-04 9.838558e-04 -3.302245e-03 -5.587478e-05 -5.490499e-03 -1.674811e-03 -1.951649e-04 1.848198e-04 -3.002702e-04 3.288806e-04 -1.085381e-04 3.133988e-04 4.541311e-05 7.330921e-05 2.027437e-03 2.335809e-03 -4.450914e-05 1.088018e-03 3.413442e-04 1.967838e-03 6.300872e-04 1.589926e-03 -1.022489e-05 -4.781667e-04 -1.427781e-03 -9.858967e-04 -4.717881e-04 1.510822e-04 9.794946e-04 6.086232e-04 1.660892e-04 -8.639624e-04 -1.252568e-03 -2.070914e-03 -6.325783e-04 -6.628341e-04 6.971664e-04 1.140047e-04 1.191890e-03 4.846174e-04 1.681261e-03 4.973995e-04 7.316132e-04 -4.660442e-04 -6.863883e-05 -1.485007e-03 -1.351190e-03 -2.245064e-03 -1.586274e-03 -6.602558e-04 7.171683e-04 1.301420e-03 1.675921e-03 1.278462e-03 -6.420260e-04 -1.019890e-03 -1.602511e-03 -1.704378e-03 -1.884186e-03 -9.264781e-04 -6.039194e-04 4.336218e-04 -4.329022e-04 -2.550538e-06 -9.548371e-05 2.277993e-03 1.151092e-03 7.571676e-04 -6.181285e-04 3.836179e-05 -6.439099e-05 1.966483e-04 1.599606e-04 4.112767e-04 6.669037e-04 -5.948699e-04 -1.527255e-03 -1.874500e-03 -3.595847e-04 1.632438e-05 1.246991e-03 1.111448e-03 1.373607e-03 -4.130053e-04 2.710458e-04 -8.587791e-04 -3.929677e-04 -2.175314e-03 -4.934848e-04 -1.248933e-03 8.465280e-04 -1.533306e-04 7.513466e-04 -3.965361e-04 2.334991e-04 1.657491e-04 -2.508979e-04 1.105678e-04 -5.224051e-04 9.755825e-04 -6.928122e-04 8.737845e-04 -1.324595e-03 5.859280e-04 -2.185747e-03 1.061375e-03 -1.306409e-03 1.529306e-03 -1.474246e-03 1.072777e-03 -1.523543e-03 7.142299e-04 -8.377556e-04 2.422621e-04 -3.484209e-04 8.918091e-03 4.988564e-02 3.718193e-02 2.009894e-02 1.200193e-02 4.592771e-03 
-1.935902e-03 -8.134755e-03 -1.548850e-02 -2.430448e-02 -3.532615e-02 9.163144e-03 8.429028e-03 -3.743425e-03 6.152163e-03 -1.916288e-03 6.112751e-03 2.181545e-03 5.508216e-03 -6.376697e-03 5.622583e-04 -2.226934e-03 7.752295e-04 -7.012896e-04 1.060032e-03 5.145743e-04 2.864678e-03 -3.557663e-03 -4.270414e-03 -3.190983e-03 -2.417054e-03 -1.452580e-03 -6.170493e-04 -3.520134e-04 4.552591e-04 5.753472e-04 -8.035356e-04 -1.197442e-03 -1.843606e-03 -1.123410e-03 -1.243401e-03 5.776496e-04 -4.582587e-04 2.962104e-04 -1.035969e-03 -8.980603e-04 -2.225319e-03 -5.889012e-04 -1.109487e-03 -7.229889e-07 -5.162096e-04 9.694628e-04 8.149484e-04 2.238253e-03 1.314687e-03 8.729126e-04 -5.447031e-04 -1.218674e-03 -2.457642e-03 -2.162275e-03 -1.737694e-03 -8.001908e-04 -1.217917e-04 3.892006e-04 3.395364e-04 7.070668e-04 1.379944e-03 1.004192e-03 8.965247e-04 -3.271343e-05 -5.176406e-04 -1.616009e-03 -6.918058e-04 -9.036417e-04 1.996689e-05 -5.291432e-05 6.620262e-04 -8.591847e-06 7.104837e-04 1.714055e-04 1.811800e-04 -4.463738e-04 1.214362e-04 -6.270415e-04 -7.186521e-04 -1.157730e-03 -6.128471e-04 -1.976708e-04 -4.958025e-04 -8.245495e-04 -7.008615e-04 6.259245e-04 -2.067396e-05 8.453605e-04 3.265776e-04 1.116244e-03 -5.753704e-04 1.425533e-03 4.337116e-04 7.896691e-04 -2.153389e-03 -1.349324e-03 -2.927616e-03 -1.077466e-03 -1.321241e-03 3.203356e-04 2.701723e-04 1.262867e-03 1.738036e-03 2.248693e-04 2.326951e-04 -1.586476e-03 7.067224e-04 -1.921514e-03 1.697043e-03 -1.381618e-03 1.779019e-03 -2.993353e-03 1.640473e-03 -2.316928e-03 1.596955e-03 -2.330807e-03 1.457397e-03 -1.721335e-03 1.038187e-04 -3.299564e-04 -2.624531e-03 3.001726e-03 -1.460248e-02 3.689281e-02 3.750714e-02 1.405987e-02 1.013612e-02 1.886200e-03 
-9.699332e-04 -2.971786e-03 -5.631875e-03 -6.445093e-03 -8.546166e-03 1.990480e-02 8.841145e-03 -9.027132e-03 2.165522e-03 -8.028616e-03 1.089800e-03 -9.898890e-03 1.692069e-03 7.849199e-03 5.275367e-03 8.684630e-04 9.949829e-04 -1.373135e-03 -2.670537e-03 -4.001073e-03 -8.771159e-03 2.028590e-03 5.215293e-03 2.326101e-03 2.294657e-03 6.774866e-04 8.945009e-04 3.083222e-04 8.413049e-04 9.977655e-04 3.872720e-04 8.593788e-05 -6.903008e-04 -6.694589e-04 -1.219449e-03 -1.965705e-04 -9.749610e-04 1.128596e-04 -5.725844e-04 2.206003e-05 -8.431581e-04 -1.074680e-04 -7.951082e-04 -3.947238e-04 -6.722507e-04 2.579309e-04 3.508677e-04 1.050679e-03 7.496220e-04 3.630991e-04 -3.846247e-04 -1.143528e-03 -1.500845e-03 -1.179112e-03 -3.302972e-04 1.883750e-04 -7.250460e-05 -3.957794e-04 -9.763530e-04 -9.776809e-04 -2.647442e-04 7.679587e-04 9.993329e-04 7.367687e-04 7.031445e-04 -2.212468e-04 1.325720e-04 -6.768740e-04 -4.783555e-04 -1.195930e-04 5.703927e-04 1.230518e-04 -4.975899e-04 -1.658131e-04 4.120141e-04 5.627875e-04 7.473195e-04 -2.106434e-04 -3.680260e-04 -1.032891e-03 -6.408246e-04 -6.457072e-04 3.788550e-05 3.659453e-04 7.052099e-04 9.070130e-04 -4.414066e-05 7.088243e-05 -5.582766e-04 2.672997e-04 -3.720426e-04 1.296556e-03 6.724653e-04 1.081317e-03 -8.725327e-04 -8.742066e-04 -2.287275e-03 -1.606272e-03 -1.495625e-03 -2.152006e-04 3.544292e-04 1.010325e-03 1.478449e-03 3.133918e-04 3.284952e-04 -1.307071e-03 2.733882e-04 -1.644189e-03 1.382088e-03 -8.113176e-04 1.797833e-03 -1.653802e-03 1.450799e-03 -1.557716e-03 1.204115e-03 -1.073663e-03 1.573613e-03 2.457085e-04 8.961771e-04 2.261348e-03 -9.337386e-04 6.325451e-03 -1.871502e-02 1.878723e-03 1.013946e-02 1.729488e-03 3.011294e-03 -3.291035e-04 
-7.348679e-04 -1.202784e-03 -2.824457e-03 -1.611424e-03 -2.913115e-03 5.998101e-03 9.440952e-04 -5.421790e-03 -3.066994e-03 -8.052152e-03 -8.403496e-03 -1.673406e-02 -2.204880e-02 -2.364465e-02 -1.086322e-02 -6.879589e-03 -2.650618e-03 2.443648e-03 6.395901e-03 1.114302e-02 2.375903e-02 2.320627e-02 1.480564e-02 9.603463e-03 5.870270e-03 3.793412e-03 2.241766e-03 1.473886e-03 8.757103e-04 8.242948e-04 2.759035e-04 2.019642e-04 -3.792274e-04 -3.221052e-04 -7.684179e-04 -2.923301e-04 -6.955115e-04 -9.643853e-05 -4.550470e-04 -1.251889e-06 -4.448417e-04 -6.931966e-05 -4.417592e-04 -1.118344e-04 -2.606356e-04 2.203579e-04 1.592740e-04 4.602628e-04 2.994991e-04 2.718632e-04 -2.217664e-05 -1.850837e-04 -2.556142e-04 3.635062e-05 3.745618e-04 6.067224e-04 2.531150e-04 -4.537709e-04 -1.085995e-03 -1.716623e-03 -1.987194e-03 -6.970005e-04 -3.239965e-04 -1.862240e-04 -1.053588e-05 -6.738083e-04 -1.538792e-03 -2.301443e-03 -3.040712e-03 -2.400101e-03 -5.351595e-04 1.095844e-04 7.946729e-04 1.408124e-03 1.907612e-03 1.773117e-03 1.691011e-03 8.890795e-04 7.817535e-04 1.133703e-04 2.625479e-04 -7.649604e-05 3.652354e-04 3.843973e-04 5.864547e-04 4.863387e-04 1.385942e-04 1.262088e-04 -2.195080e-04 1.712406e-04 -1.167149e-04 5.685308e-04 1.237129e-04 4.306686e-04 -4.519062e-04 -3.640945e-04 -1.126323e-03 -7.712834e-04 -8.711803e-04 -1.960364e-04 -9.136100e-06 3.498188e-04 5.081525e-04 8.086940e-05 2.442322e-04 -5.848838e-04 2.194624e-04 -8.143749e-04 6.701217e-04 -5.332944e-04 8.604861e-04 -7.791627e-04 6.931159e-04 -8.574648e-04 4.733637e-04 -5.161247e-04 4.884249e-04 2.241734e-04 2.738644e-04 1.479328e-03 -2.794877e-04 3.978134e-03 -5.735796e-03 -2.469910e-04 1.899992e-03 1.103121e-03 1.194304e-03 1.238555e-04 
