# vtk DataFile Version 2.0
Comment goes here
ASCII

DATASET STRUCTURED_POINTS
FIELD FieldData 1
TIME 1 1 double
0.27000000
DIMENSIONS    128   16   1

ORIGIN    0.000   0.000   0.000
SPACING   0.0078125 0.015625   1.000

POINT_DATA   2048
SCALARS uY double
LOOKUP_TABLE default

7.731193e-06 8.067951e-06 1.182642e-05 1.259090e-05 1.572056e-05 1.769279e-05 1.826710e-05 1.628261e-05 7.707551e-07 -3.650162e-06 -2.821224e-05 -3.073416e-05 -4.748960e-05 -4.190978e-05 -4.522366e-05 -4.855274e-05 -3.964107e-05 -5.333159e-05 -4.481647e-05 -5.556294e-05 -5.333876e-05 -5.142993e-05 -4.393564e-05 -1.133002e-05 -2.387592e-05 1.282053e-05 -4.292308e-05 1.868629e-05 -6.143031e-05 3.910039e-05 -7.525670e-05 5.380416e-05 -1.170598e-04 1.716419e-05 -2.065288e-04 -7.622974e-05 -3.140584e-04 -1.643876e-04 -3.509472e-04 -2.211082e-04 -3.544670e-04 -3.186270e-04 -3.938792e-04 -5.038513e-04 -4.970826e-04 -7.477629e-04 -6.310371e-04 -1.001713e-03 -7.974462e-04 -1.282247e-03 -1.038176e-03 -1.524003e-03 -1.216763e-03 -1.532219e-03 -1.184211e-03 -1.176263e-03 -1.087945e-03 9.782233e-05 2.136342e-04 -6.720804e-05 1.291879e-03 7.213495e-04 2.245532e-03 1.512289e-03 2.907182e-03 1.739302e-03 2.493474e-03 1.119992e-03 6.963610e-04 1.657629e-03 1.339613e-03 2.436414e-03 2.602654e-04 5.328265e-04 -2.262060e-04 2.234606e-04 -4.074152e-04 -1.653579e-05 -6.012496e-04 -1.917314e-04 -6.664150e-04 -2.587614e-04 -6.113972e-04 -2.680242e-04 -5.022840e-04 -2.684440e-04 -3.729838e-04 -2.293509e-04 -2.149890e-04 -1.786060e-04 -1.182723e-04 -1.923262e-04 -1.145322e-04 -2.244689e-04 -1.123274e-04 -2.076298e-04 -7.999639e-05 -1.585190e-04 -5.606462e-05 -1.354396e-04 -6.397519e-05 -1.220206e-04 -5.226951e-05 -7.900054e-05 -2.066857e-05 -4.987079e-05 -2.845504e-05 -6.353767e-05 -5.807462e-05 -7.807238e-05 -6.773102e-05 -4.681259e-05 -2.397726e-05 8.486741e-06 -1.683344e-06 1.170611e-05 -2.537515e-05 -2.456608e-06 -3.364858e-05 -6.292597e-06 -3.674638e-05 -1.152988e-05 -2.284954e-05 -1.289786e-05 -7.698309e-06 -2.219733e-06 2.306918e-06 3.666812e-06 
-7.276519e-04 -1.101107e-03 -2.902985e-03 -1.494222e-03 -2.996481e-03 6.175867e-03 1.297439e-03 -5.591786e-03 -3.428387e-03 -8.777781e-03 -9.576667e-03 -1.827601e-02 -2.342742e-02 -2.470929e-02 -1.142877e-02 -7.196946e-03 -2.821551e-03 2.523819e-03 6.576482e-03 1.175110e-02 2.464091e-02 2.448655e-02 1.580153e-02 1.056479e-02 6.471251e-03 4.507488e-03 2.671568e-03 1.964695e-03 1.002062e-03 9.210299e-04 2.484267e-04 5.181973e-04 -1.165724e-04 3.583776e-04 -3.376599e-04 2.472119e-04 -5.013044e-04 1.688994e-04 -5.272061e-04 1.151036e-04 -5.092488e-04 -2.132556e-07 -4.477885e-04 -1.458718e-04 -3.635723e-04 -3.199294e-04 -3.044274e-04 -5.255888e-04 -3.148253e-04 -8.529399e-04 -5.456184e-04 -1.277604e-03 -8.081385e-04 -1.756118e-03 -1.488178e-03 -4.114670e-03 -4.276256e-03 2.252050e-03 1.992840e-03 4.129757e-03 8.606815e-03 -1.538340e-03 -4.318032e-03 -1.492090e-03 5.114394e-04 -7.780595e-04 2.693575e-03 -1.777978e-03 1.425020e-03 5.580440e-03 7.630018e-04 2.953366e-03 -2.100631e-03 -3.382882e-03 -1.533398e-03 -4.268747e-04 -2.661414e-04 3.180074e-04 -9.675815e-05 4.184987e-04 -1.128975e-04 3.404886e-04 -1.543421e-04 2.250346e-04 -2.413236e-04 3.506951e-05 -3.181542e-04 3.852553e-05 -1.815176e-04 1.858231e-04 -1.043690e-04 1.858325e-04 -2.089099e-04 6.841431e-05 -3.427231e-04 -2.304621e-05 -3.097015e-04 1.666716e-05 -1.599836e-04 -3.384934e-05 -7.757124e-05 -1.888229e-04 6.102606e-05 -3.009512e-04 2.753517e-04 -4.097574e-04 4.524020e-04 -5.702468e-04 5.322717e-04 -7.426887e-04 5.611604e-04 -7.474611e-04 6.727661e-04 -5.529516e-04 6.487488e-04 -3.265409e-04 3.939771e-04 1.228406e-04 3.290685e-05 1.205158e-03 -3.737507e-04 4.122942e-03 -4.523222e-03 -5.422824e-04 1.538518e-03 1.251327e-03 1.256523e-03 3.411345e-04 
-1.329057e-03 -3.195092e-03 -6.203232e-03 -6.595512e-03 -8.951675e-03 2.045059e-02 1.001900e-02 -8.911058e-03 2.059463e-03 -8.557741e-03 2.588639e-04 -1.082125e-02 1.634977e-03 8.090844e-03 5.696092e-03 1.404765e-03 1.557444e-03 -9.927916e-04 -2.474828e-03 -4.144157e-03 -9.565176e-03 1.760616e-03 4.937843e-03 2.438915e-03 2.600193e-03 1.217515e-03 1.270921e-03 6.176261e-04 4.983505e-04 4.417359e-04 8.512424e-05 4.922893e-04 -2.207177e-04 4.737625e-04 -5.602315e-04 3.351437e-04 -8.732961e-04 2.984486e-04 -8.353129e-04 2.953670e-04 -8.548437e-04 1.703142e-05 -8.960652e-04 -3.240239e-04 -7.940292e-04 -5.444339e-04 -6.281825e-04 -8.701859e-04 -8.100084e-04 -1.863437e-03 -1.946457e-03 -3.463128e-03 -3.430664e-03 -5.555917e-03 -6.226527e-03 -1.086753e-02 -1.087486e-02 4.002912e-03 6.769911e-03 6.809528e-03 9.395910e-03 -4.322807e-04 -1.797776e-03 -2.024123e-03 4.299046e-03 3.150047e-03 1.041355e-02 9.975284e-03 1.397569e-02 1.577596e-02 5.434932e-03 4.003379e-03 -8.017890e-03 -1.016812e-02 -6.698196e-03 -4.694521e-03 -3.668080e-03 -2.491177e-03 -2.231081e-03 -1.153664e-03 -1.184908e-03 -4.113318e-04 -7.024846e-04 -2.299359e-04 -7.652576e-04 -5.171102e-04 -9.575149e-04 -3.105817e-04 -4.831214e-04 3.502092e-04 -1.313580e-04 4.805437e-04 -4.513280e-04 1.418419e-04 -8.479499e-04 -5.978598e-05 -7.307267e-04 1.591895e-04 -2.876208e-04 1.213100e-04 -1.415051e-04 -2.830239e-04 6.806431e-05 -5.420421e-04 5.749961e-04 -6.914199e-04 9.862137e-04 -1.041398e-03 1.129322e-03 -1.499002e-03 1.119913e-03 -1.544490e-03 1.489636e-03 -1.079320e-03 1.574343e-03 -7.465997e-04 1.061805e-03 -1.142531e-04 4.105527e-04 1.740834e-03 -7.911922e-04 7.301689e-03 -1.564632e-02 6.350939e-04 8.878933e-03 2.387946e-03 3.089919e-03 -8.548412e-05 
-1.754248e-03 -8.272780e-03 -1.642724e-02 -2.532867e-02 -3.639283e-02 9.176647e-03 8.759700e-03 -3.510419e-03 6.480109e-03 -1.527442e-03 6.498976e-03 2.145700e-03 5.524546e-03 -6.271969e-03 5.759352e-04 -2.363390e-03 6.524942e-04 -7.916143e-04 1.078683e-03 7.125841e-04 3.055111e-03 -3.635932e-03 -4.330920e-03 -2.800075e-03 -1.847734e-03 -1.489098e-03 -1.107583e-03 -1.059550e-03 -8.773425e-04 -4.639185e-04 -4.934021e-04 2.983755e-04 -5.276855e-04 3.851156e-04 -1.065889e-03 1.917187e-04 -1.406254e-03 5.205978e-04 -9.958391e-04 8.862965e-04 -9.125509e-04 4.750261e-04 -1.225471e-03 -7.137043e-05 -8.891303e-04 3.176032e-04 2.765879e-04 7.823948e-04 7.634215e-04 6.587366e-06 -1.072904e-04 -9.898826e-04 -2.495108e-04 -5.707274e-04 8.789616e-04 2.162561e-03 3.466191e-03 -2.079939e-03 -1.259383e-03 -3.971753e-03 -4.246926e-03 1.179753e-03 5.356145e-03 1.810794e-03 5.296297e-04 -1.603887e-03 -4.408001e-03 -4.968409e-03 -7.735439e-03 -8.550418e-03 -1.626644e-03 -3.632703e-04 4.222918e-03 6.466919e-03 2.400322e-03 2.564513e-03 -5.381676e-05 8.433597e-04 -5.583053e-04 7.760315e-04 2.160846e-04 1.113297e-03 3.854910e-04 5.016546e-04 -3.670401e-04 -4.719058e-04 -9.847320e-04 -3.137149e-04 -2.817588e-04 9.281828e-04 4.586752e-04 1.217449e-03 -3.533277e-04 3.613520e-04 -1.284453e-03 -2.138131e-05 -1.222468e-03 3.486565e-04 -5.108558e-04 4.747791e-04 -2.290595e-04 -1.379574e-04 -9.925464e-05 -6.472106e-04 6.659462e-04 -8.034598e-04 1.267760e-03 -1.414963e-03 1.441211e-03 -2.198818e-03 1.394410e-03 -2.331370e-03 2.032577e-03 -1.701437e-03 2.264518e-03 -1.493448e-03 1.380265e-03 -1.321295e-03 2.321578e-04 -2.259486e-04 -2.242376e-03 3.058307e-03 -1.506474e-02 3.237659e-02 3.694803e-02 1.661018e-02 1.178654e-02 3.194007e-03 
-2.161270e-03 -9.796189e-03 -1.758261e-02 -2.867171e-02 -4.002587e-02 -2.397775e-02 -7.799718e-03 -8.337650e-04 5.917594e-04 -3.552310e-03 1.313086e-04 -5.640750e-03 -1.795100e-03 -1.363944e-04 1.437877e-04 -3.823663e-04 2.070302e-04 -2.473658e-04 1.848720e-04 1.172806e-05 5.903470e-05 2.594342e-03 3.364137e-03 1.080837e-03 1.955579e-03 -2.926286e-05 1.025239e-03 -4.885545e-04 4.835488e-04 -3.021583e-04 4.720672e-04 2.394988e-04 1.849856e-04 2.035384e-04 -4.859591e-04 4.753941e-05 -7.901481e-04 4.378756e-04 -5.166347e-04 8.074679e-04 -5.068843e-04 5.112973e-04 -9.362985e-04 6.063842e-05 -7.279348e-04 5.335854e-04 3.713546e-04 1.046238e-03 8.493468e-04 5.309777e-04 4.914376e-04 -7.025078e-05 7.950325e-04 5.038684e-04 2.081633e-03 1.414896e-03 2.198407e-03 6.478084e-04 -5.507222e-05 1.786904e-03 2.857081e-03 -3.011235e-03 -5.820642e-03 -4.256726e-03 -2.687400e-03 -2.265405e-03 1.087443e-03 -9.890609e-04 3.818294e-03 2.737344e-03 -4.563579e-04 2.933475e-04 -2.214786e-03 -1.479141e-03 -2.047209e-03 -5.978821e-04 -1.828655e-03 -4.074546e-04 -1.318470e-03 6.768555e-05 -2.545947e-04 6.072762e-04 1.035648e-04 1.357117e-04 -3.242957e-04 -3.963968e-04 -5.686503e-04 -2.487185e-04 -1.502678e-04 6.055862e-04 3.946814e-04 9.127848e-04 -1.945018e-04 3.286023e-04 -8.736122e-04 1.115860e-04 -9.575005e-04 2.576315e-04 -5.928213e-04 4.270778e-04 -2.990912e-04 1.194203e-04 -2.500660e-04 -3.082618e-04 2.092281e-04 -4.686243e-04 5.992169e-04 -9.227676e-04 8.000243e-04 -1.394219e-03 9.215513e-04 -1.504482e-03 1.343379e-03 -1.220901e-03 1.578788e-03 -1.096844e-03 1.157155e-03 -1.100625e-03 6.623073e-04 -8.063952e-04 8.821863e-05 -5.670974e-04 9.140766e-03 5.068742e-02 3.947124e-02 2.158958e-02 1.268047e-02 4.375460e-03 
-1.216716e-03 -4.404718e-03 -8.470758e-03 -1.191567e-02 -1.707830e-02 -2.151889e-02 -1.104465e-02 -2.107204e-03 -4.524895e-03 -5.971776e-03 -5.259801e-03 -1.112880e-02 -5.858197e-03 -8.088773e-05 1.620777e-04 -4.186435e-04 2.398588e-04 -2.670561e-04 2.291636e-04 -4.076338e-06 3.705063e-05 7.491449e-03 8.801355e-03 4.122655e-03 3.955518e-03 1.515085e-03 1.842246e-03 4.698836e-04 8.110768e-04 1.257975e-04 3.536131e-04 1.063717e-04 -1.485919e-05 7.404789e-06 -4.069654e-04 -6.797715e-05 -6.059541e-04 -3.492365e-09 -6.849822e-04 -1.559979e-05 -8.392252e-04 -2.833720e-04 -1.185623e-03 -7.226836e-04 -1.446603e-03 -1.087220e-03 -1.648426e-03 -1.799610e-03 -2.457940e-03 -3.354511e-03 -4.120186e-03 -5.916123e-03 -6.888032e-03 -9.909031e-03 -1.183040e-02 -1.837597e-02 -1.786456e-02 4.118759e-03 9.826907e-03 7.534256e-03 1.025606e-02 4.294005e-03 5.616741e-03 4.073276e-03 9.970730e-03 7.210157e-03 1.232097e-02 1.222911e-02 1.257117e-02 1.680573e-02 8.253211e-03 5.773636e-03 -6.886272e-03 -1.099122e-02 -7.227949e-03 -4.711599e-03 -3.575575e-03 -2.199147e-03 -2.142363e-03 -1.179209e-03 -1.274872e-03 -6.166749e-04 -8.224741e-04 -5.204954e-04 -6.608886e-04 -4.052602e-04 -4.788715e-04 -2.376729e-04 -3.443076e-04 7.303751e-06 -1.897759e-04 1.841592e-04 -2.813926e-04 1.256434e-04 -4.194529e-04 1.026615e-04 -4.828207e-04 5.049976e-05 -4.295408e-04 7.481591e-05 -2.400638e-04 1.423122e-05 -1.298724e-04 -1.851790e-04 3.119340e-05 -3.494660e-04 2.031863e-04 -5.332081e-04 3.805401e-04 -6.267936e-04 5.667329e-04 -6.273282e-04 6.840962e-04 -5.246873e-04 7.873194e-04 -2.197152e-04 8.562313e-04 3.128381e-04 1.135169e-03 1.382429e-03 2.409533e-03 2.897728e-03 1.367620e-02 2.527357e-02 1.477172e-02 1.178243e-02 6.137757e-03 3.311191e-03 
-1.036399e-03 -3.341199e-03 -5.733052e-03 -7.486831e-03 -8.933343e-03 -9.234855e-03 -7.755785e-03 -7.297281e-03 -6.927468e-03 -1.027487e-02 -9.699536e-03 -1.702089e-02 -1.317830e-02 -9.551872e-05 2.707029e-05 -1.004213e-04 6.157688e-05 -7.166184e-05 7.437742e-05 -1.493640e-05 1.076747e-04 1.474490e-02 1.616298e-02 7.901132e-03 7.470985e-03 3.508093e-03 3.750057e-03 1.617214e-03 1.899773e-03 7.694395e-04 9.444584e-04 4.105982e-04 3.613529e-04 2.004324e-04 -6.260625e-05 6.282255e-05 -3.397741e-04 -4.835000e-06 -5.108487e-04 -1.098168e-04 -6.996284e-04 -3.561892e-04 -9.616329e-04 -7.251733e-04 -1.241692e-03 -1.181520e-03 -1.628590e-03 -1.941660e-03 -2.457697e-03 -3.309356e-03 -4.006634e-03 -5.452186e-03 -6.418368e-03 -8.454976e-03 -9.961909e-03 -1.297788e-02 -1.254395e-02 9.090144e-04 7.531842e-03 3.232969e-03 6.546284e-03 2.995017e-03 3.124850e-03 2.589853e-03 4.097058e-03 2.478692e-03 3.128885e-03 3.697241e-03 1.237996e-03 5.085098e-03 1.354416e-03 2.529573e-03 6.862675e-03 5.183568e-03 2.848812e-03 2.736085e-03 1.488508e-03 1.637401e-03 5.835279e-04 8.638927e-04 1.288325e-04 4.342756e-04 -8.490395e-05 1.393967e-04 -2.154524e-04 -2.316159e-05 -2.472897e-04 -2.534509e-05 -1.859594e-04 8.257196e-05 -1.257524e-04 1.391735e-04 -1.970408e-04 8.549438e-05 -3.000515e-04 4.120192e-05 -3.258514e-04 2.878277e-05 -2.650597e-04 1.359304e-05 -1.686251e-04 -6.414103e-05 -7.189696e-05 -1.820046e-04 6.678554e-05 -2.909928e-04 2.096811e-04 -4.108570e-04 3.368369e-04 -4.911913e-04 4.629470e-04 -4.681620e-04 6.119459e-04 -3.098245e-04 7.651762e-04 6.097925e-06 9.573847e-04 6.306880e-04 1.445135e-03 1.962134e-03 2.700940e-03 4.535419e-03 5.816078e-03 1.042612e-02 7.570019e-03 6.793434e-03 3.829708e-03 1.790807e-03 
-4.172762e-04 -1.209214e-03 -2.245642e-03 -3.084715e-03 -3.615535e-03 -4.367178e-03 -3.679823e-03 -3.677617e-03 -3.639330e-03 -5.041022e-03 -4.862565e-03 -8.412945e-03 -6.429273e-03 -4.766659e-05 2.680896e-05 -7.513385e-05 4.925648e-05 -5.961523e-05 5.039634e-05 -1.965835e-05 4.977709e-05 7.501547e-03 8.139270e-03 3.809570e-03 3.503273e-03 1.585649e-03 1.607441e-03 6.641520e-04 7.004530e-04 2.496701e-04 2.346280e-04 5.075430e-05 -5.698471e-05 -8.866218e-05 -2.854752e-04 -2.189960e-04 -4.803436e-04 -3.656158e-04 -6.804852e-04 -5.840025e-04 -9.427755e-04 -9.315191e-04 -1.318925e-03 -1.446613e-03 -1.841665e-03 -2.175798e-03 -2.600951e-03 -3.249957e-03 -3.772318e-03 -4.823017e-03 -5.494074e-03 -6.939236e-03 -7.722622e-03 -9.301454e-03 -1.006140e-02 -1.140297e-02 -9.497437e-03 3.640852e-03 8.628604e-03 6.897818e-03 8.296136e-03 2.514893e-03 7.555137e-04 1.668904e-03 6.389195e-03 6.425269e-03 1.001645e-02 1.112281e-02 1.375481e-02 1.237277e-02 4.419918e-03 3.157822e-03 -1.486683e-03 -1.269729e-03 -1.439926e-03 -9.409701e-04 -1.219759e-03 -8.127130e-04 -1.140414e-03 -7.416041e-04 -1.018264e-03 -6.471117e-04 -8.544981e-04 -5.524569e-04 -6.856496e-04 -4.491646e-04 -5.221291e-04 -3.431259e-04 -3.844788e-04 -2.437060e-04 -2.822032e-04 -1.717192e-04 -2.339470e-04 -1.391747e-04 -2.150359e-04 -1.213854e-04 -1.988834e-04 -1.133776e-04 -1.695297e-04 -1.068683e-04 -1.232701e-04 -1.157189e-04 -7.726784e-05 -1.448171e-04 -2.552726e-05 -1.761053e-04 3.130828e-05 -2.006462e-04 9.384677e-05 -1.995822e-04 1.618948e-04 -1.610049e-04 2.333679e-04 -6.843413e-05 3.274543e-04 1.138352e-04 4.885667e-04 4.475406e-04 8.340892e-04 1.069985e-03 1.575456e-03 2.171154e-03 2.886647e-03 4.123079e-03 2.880327e-03 2.879986e-03 1.441348e-03 8.935643e-04 
-1.039085e-05 -4.645546e-06 -1.022797e-05 -4.825129e-06 -1.050728e-05 -4.461651e-06 -1.052890e-05 -3.354063e-06 -8.677567e-06 -2.440774e-06 -6.480911e-06 -1.686574e-06 -5.447360e-06 -3.501008e-06 -2.623360e-06 -3.038628e-06 -2.432463e-06 -2.799546e-06 -2.402741e-06 -2.278782e-06 -2.477382e-06 -4.181884e-05 -7.631727e-05 -3.485976e-05 -7.832720e-05 -3.596430e-05 -9.190135e-05 -3.867437e-05 -1.082584e-04 -4.264771e-05 -1.309839e-04 -6.147865e-05 -1.771772e-04 -1.162149e-04 -2.551261e-04 -2.099384e-04 -3.586102e-04 -3.403308e-04 -4.899583e-04 -5.284760e-04 -6.812271e-04 -8.187173e-04 -9.809646e-04 -1.260287e-03 -1.436945e-03 -1.902917e-03 -2.115488e-03 -2.828489e-03 -3.124975e-03 -4.139486e-03 -4.562512e-03 -5.862245e-03 -6.372129e-03 -7.753461e-03 -8.194505e-03 -9.137581e-03 -6.695680e-03 3.666646e-03 7.017858e-03 5.383638e-03 6.634193e-03 4.203997e-03 4.759474e-03 4.263018e-03 6.260341e-03 5.276240e-03 5.815827e-03 5.255686e-03 5.236879e-03 5.980209e-03 4.660161e-03 3.940286e-03 -1.390748e-03 -1.768705e-03 -1.538258e-03 -6.028970e-04 -7.052881e-04 -1.246768e-04 -4.602799e-04 -2.546018e-05 -3.930683e-04 -4.322725e-05 -3.463130e-04 -8.192845e-05 -2.827115e-04 -1.106617e-04 -2.052354e-04 -1.252849e-04 -1.306779e-04 -1.341529e-04 -7.738461e-05 -1.471423e-04 -5.236935e-05 -1.588328e-04 -4.063241e-05 -1.584556e-04 -3.602308e-05 -1.508321e-04 -3.782030e-05 -1.380777e-04 -4.168581e-05 -1.219429e-04 -4.581320e-05 -1.048771e-04 -4.880057e-05 -8.951936e-05 -5.299111e-05 -7.624756e-05 -5.248421e-05 -5.769289e-05 -4.320784e-05 -3.308351e-05 -2.808182e-05 -8.899846e-06 -1.518405e-05 7.074634e-06 -1.038129e-05 1.248022e-05 -1.073290e-05 1.007897e-05 -1.419944e-05 3.506718e-06 -1.493192e-05 -1.630630e-06 -1.323435e-05 -3.359922e-06 -1.137996e-05 -4.170013e-06 
3.941881e-04 1.197869e-03 2.221589e-03 3.071605e-03 3.588706e-03 4.352878e-03 3.650017e-03 3.665761e-03 3.618055e-03 5.035318e-03 4.853267e-03 8.414343e-03 6.425684e-03 4.022269e-05 -3.249968e-05 6.663772e-05 -5.615647e-05 5.021009e-05 -5.827156e-05 1.193069e-05 -5.855118e-05 -7.594161e-03 -8.309138e-03 -3.897383e-03 -3.688270e-03 -1.689655e-03 -1.828430e-03 -7.847563e-04 -9.622563e-04 -3.896848e-04 -5.476735e-04 -2.408705e-04 -3.617883e-04 -2.342952e-04 -3.107326e-04 -3.166867e-04 -3.439398e-04 -4.556900e-04 -4.387089e-04 -6.504501e-04 -6.068752e-04 -9.310706e-04 -8.922405e-04 -1.350805e-03 -1.336708e-03 -1.945183e-03 -1.972486e-03 -2.761765e-03 -2.867065e-03 -3.884828e-03 -4.111157e-03 -5.402110e-03 -5.780710e-03 -7.392007e-03 -8.091398e-03 -1.022616e-02 -7.726871e-03 4.847988e-03 8.283206e-03 7.939473e-03 8.480302e-03 3.441787e-03 2.212826e-03 3.023820e-03 6.853710e-03 6.770373e-03 1.011030e-02 1.029966e-02 1.273747e-02 1.081963e-02 5.227304e-03 2.895010e-03 -6.572619e-03 -6.364474e-03 -4.627258e-03 -3.087398e-03 -2.546632e-03 -1.659990e-03 -1.625227e-03 -1.015692e-03 -1.156284e-03 -7.078104e-04 -8.527956e-04 -5.372181e-04 -6.075505e-04 -4.306727e-04 -4.011016e-04 -3.718182e-04 -2.435387e-04 -3.524105e-04 -1.330572e-04 -3.483212e-04 -5.259445e-05 -3.305591e-04 1.102550e-05 -2.965510e-04 3.914073e-05 -2.641989e-04 2.760928e-05 -2.221795e-04 -2.607734e-06 -1.616239e-04 -4.546051e-05 -9.312115e-05 -9.998226e-05 -2.782843e-05 -1.603851e-04 3.083734e-05 -2.107060e-04 7.882367e-05 -2.505610e-04 9.224549e-05 -2.949884e-04 4.354862e-05 -3.626501e-04 -1.013520e-04 -5.074653e-04 -4.193006e-04 -8.515906e-04 -1.047166e-03 -1.602505e-03 -2.164238e-03 -2.917429e-03 -4.127918e-03 -2.907951e-03 -2.887733e-03 -1.465659e-03 -9.032233e-04 
1.019209e-03 3.330947e-03 5.714485e-03 7.475055e-03 8.911272e-03 9.222936e-03 7.727065e-03 7.291189e-03 6.908674e-03 1.027011e-02 9.688197e-03 1.701784e-02 1.317182e-02 8.982356e-05 -3.035499e-05 9.523785e-05 -6.579717e-05 6.493528e-05 -7.908043e-05 1.064530e-05 -1.078878e-04 -1.482429e-02 -1.629103e-02 -7.964308e-03 -7.602515e-03 -3.578886e-03 -3.923601e-03 -1.689762e-03 -2.091320e-03 -7.959094e-04 -1.113415e-03 -3.909138e-04 -5.899825e-04 -2.783995e-04 -3.473772e-04 -3.382133e-04 -2.687675e-04 -4.482659e-04 -2.337680e-04 -5.442596e-04 -2.358343e-04 -6.847607e-04 -3.866662e-04 -1.006353e-03 -7.620370e-04 -1.519222e-03 -1.310456e-03 -2.202522e-03 -2.075082e-03 -3.207002e-03 -3.251026e-03 -4.779831e-03 -5.086018e-03 -7.321150e-03 -8.327089e-03 -1.234125e-02 -1.000331e-02 5.617459e-03 8.654258e-03 7.880061e-03 8.324472e-03 5.168518e-03 5.057566e-03 4.937948e-03 8.674763e-03 6.754631e-03 9.211580e-03 8.525241e-03 9.923839e-03 9.580776e-03 7.278245e-03 4.658665e-03 -9.760493e-03 -9.790239e-03 -6.426764e-03 -4.393865e-03 -3.216980e-03 -2.041551e-03 -1.786356e-03 -9.935966e-04 -1.096884e-03 -5.371127e-04 -6.914344e-04 -3.231664e-04 -3.731457e-04 -2.213057e-04 -1.212663e-04 -2.224648e-04 3.114708e-05 -3.166794e-04 9.867677e-05 -4.265830e-04 1.553311e-04 -4.432619e-04 2.539304e-04 -3.816192e-04 2.839458e-04 -3.471786e-04 2.007905e-04 -3.007729e-04 8.824797e-05 -1.819168e-04 -2.301215e-05 -1.981715e-05 -1.586445e-04 1.210669e-04 -3.338339e-04 2.377507e-04 -4.764561e-04 3.519447e-04 -5.725309e-04 4.038671e-04 -6.591013e-04 3.250090e-04 -7.630509e-04 5.041637e-05 -9.576930e-04 -5.748701e-04 -1.454770e-03 -1.925900e-03 -2.740628e-03 -4.534242e-03 -5.855272e-03 -1.044290e-02 -7.596758e-03 -6.803226e-03 -3.848493e-03 -1.800025e-03 
1.203578e-03 4.394442e-03 8.454281e-03 1.190034e-02 1.705206e-02 2.148993e-02 1.096844e-02 2.079903e-03 4.489457e-03 5.960615e-03 5.267889e-03 1.115063e-02 5.890240e-03 8.722691e-05 -1.679261e-04 4.095896e-04 -2.476952e-04 2.473028e-04 -2.380517e-04 -1.419070e-05 -3.014487e-05 -7.513161e-03 -8.881329e-03 -4.190233e-03 -4.105565e-03 -1.629456e-03 -2.046138e-03 -5.803400e-04 -1.033100e-03 -1.457031e-04 -4.522306e-04 3.038440e-05 -1.220112e-04 -1.655393e-05 6.249823e-06 -1.847556e-04 3.800251e-05 -3.247572e-04 9.076018e-05 -3.802356e-04 1.868750e-04 -3.861504e-04 1.537372e-04 -5.765532e-04 -9.502277e-05 -8.628153e-04 -3.617936e-04 -1.117591e-03 -6.483096e-04 -1.436780e-03 -1.006948e-03 -1.850599e-03 -1.442412e-03 -2.349198e-03 -2.050050e-03 -3.479504e-03 -2.644080e-03 1.761806e-03 2.789514e-03 2.733858e-03 3.493380e-03 1.169180e-03 6.885233e-04 1.247439e-03 2.511510e-03 2.529935e-03 3.938677e-03 3.308216e-03 3.479315e-03 3.348828e-03 1.722263e-03 1.711994e-03 -2.566288e-03 -2.126156e-03 -1.853978e-03 -9.758263e-04 -1.266085e-03 -5.153259e-04 -9.979775e-04 -3.448898e-04 -8.229176e-04 -2.782067e-04 -6.066422e-04 -2.236745e-04 -3.233397e-04 -1.718456e-04 -4.024245e-05 -2.048542e-04 1.177358e-04 -3.735727e-04 1.583224e-04 -5.619393e-04 2.113386e-04 -5.753390e-04 3.895268e-04 -4.576713e-04 4.429433e-04 -4.491004e-04 3.043446e-04 -4.090765e-04 1.716131e-04 -2.380202e-04 3.462417e-05 -2.789825e-05 -1.506283e-04 1.472747e-04 -3.935402e-04 3.052869e-04 -5.597468e-04 4.954143e-04 -6.500367e-04 5.913525e-04 -7.428974e-04 5.261524e-04 -7.814999e-04 3.187526e-04 -8.158599e-04 -2.010594e-04 -1.110618e-03 -1.319487e-03 -2.460725e-03 -2.908134e-03 -1.373481e-02 -2.531340e-02 -1.479907e-02 -1.179226e-02 -6.151632e-03 -3.319925e-03 
2.162848e-03 9.788470e-03 1.757480e-02 2.865120e-02 4.000775e-02 2.394658e-02 7.726859e-03 8.542981e-04 -5.989320e-04 3.550586e-03 -1.470068e-04 5.603732e-03 1.794135e-03 1.512595e-04 -1.329111e-04 3.859281e-04 -2.128997e-04 2.230435e-04 -2.107841e-04 -4.147931e-05 -6.720432e-05 -2.675318e-03 -3.419887e-03 -1.087218e-03 -1.919672e-03 -5.479646e-05 -1.283414e-03 2.339376e-04 -7.996967e-04 3.344283e-04 -2.491739e-04 4.563033e-04 1.669501e-04 2.641202e-04 2.466111e-04 -2.664649e-04 -1.453202e-05 -6.368164e-04 1.461282e-04 -4.032973e-04 7.612629e-04 1.324563e-04 1.043842e-03 -4.070205e-05 5.148448e-04 -5.571663e-04 1.947367e-04 -4.779257e-04 3.686185e-04 -2.895812e-04 3.494006e-04 -2.940161e-04 3.585572e-04 -6.613392e-05 7.621073e-04 6.926849e-04 1.167240e-03 -7.794174e-04 -5.130334e-04 -7.295402e-04 -4.091464e-04 3.991239e-04 7.999901e-04 7.043504e-04 1.587456e-04 3.051552e-04 -5.823959e-04 -2.294188e-04 -8.359147e-04 -3.197016e-04 -4.059635e-04 2.123367e-04 6.992411e-04 1.105098e-03 -2.724863e-05 6.211205e-04 -3.163923e-04 4.999972e-04 -5.145813e-04 2.431421e-04 -6.480164e-04 3.204057e-05 -5.425533e-04 2.986001e-05 -5.187191e-05 1.989266e-04 4.652897e-04 1.301017e-04 6.072775e-04 -3.836958e-04 3.749087e-04 -1.040320e-03 2.394676e-04 -1.019383e-03 8.409824e-04 -4.935795e-04 1.067760e-03 -5.730568e-04 5.712829e-04 -7.371534e-04 2.015073e-04 -4.063428e-04 7.800914e-05 1.778871e-04 -1.321701e-04 4.676339e-04 -7.805941e-04 6.057551e-04 -1.143381e-03 1.048596e-03 -1.220461e-03 1.400030e-03 -1.310256e-03 1.456838e-03 -1.318982e-03 1.351718e-03 -1.129635e-03 1.241001e-03 -5.896538e-04 9.112772e-04 -2.585098e-04 4.940293e-04 -9.234289e-03 -5.080599e-02 -3.948301e-02 -2.157800e-02 -1.266544e-02 -4.374056e-03 
1.774645e-03 8.279434e-03 1.644324e-02 2.533163e-02 3.641823e-02 -9.140330e-03 -8.690345e-03 3.640480e-03 -6.420176e-03 1.557907e-03 -6.595065e-03 -2.285574e-03 -5.677171e-03 6.197562e-03 -6.217101e-04 2.323715e-03 -6.757485e-04 7.055746e-04 -1.164753e-03 -8.630658e-04 -3.125069e-03 3.421927e-03 4.206328e-03 2.874257e-03 2.080993e-03 1.561532e-03 9.130508e-04 8.370509e-04 5.946731e-04 5.690043e-04 7.795974e-04 5.558435e-04 9.820176e-04 2.941701e-04 8.646626e-04 -4.046889e-04 2.716725e-04 -8.960084e-04 3.801291e-04 -4.501035e-04 1.173068e-03 3.738327e-04 1.564459e-03 2.697595e-04 8.630419e-04 -3.758203e-04 4.046815e-04 -1.774341e-04 7.559623e-04 2.195317e-04 7.314560e-04 1.805474e-04 5.801122e-04 1.669761e-04 5.688497e-04 2.040072e-04 4.697781e-04 3.671713e-04 3.197847e-04 -8.775318e-05 -2.739857e-04 -4.676623e-04 -7.576210e-04 -5.821803e-04 -7.816261e-04 -4.741459e-04 -7.143933e-04 -4.694380e-04 -7.292153e-04 -3.528804e-04 -5.567623e-04 1.047425e-04 -3.958646e-04 2.083624e-04 -3.132028e-04 5.317656e-04 -1.365470e-04 7.326147e-04 -2.045068e-04 5.212605e-04 -3.670987e-04 2.466913e-04 -3.187083e-04 2.251136e-04 2.509135e-04 4.207075e-04 8.241479e-04 2.926180e-04 9.404400e-04 -3.740780e-04 5.840000e-04 -1.226208e-03 3.368656e-04 -1.199478e-03 1.040394e-03 -4.923353e-04 1.305977e-03 -5.007031e-04 6.253119e-04 -6.998240e-04 2.929071e-05 -2.642034e-04 -1.482573e-04 6.062031e-04 -3.890859e-04 1.031365e-03 -1.279767e-03 1.166799e-03 -1.817840e-03 1.669209e-03 -1.921210e-03 2.104139e-03 -1.911940e-03 2.139808e-03 -1.838729e-03 1.764751e-03 -1.467345e-03 1.347537e-03 -2.356375e-04 2.873150e-04 1.993635e-03 -3.151446e-03 1.500409e-02 -3.251341e-02 -3.694328e-02 -1.658411e-02 -1.174898e-02 -3.180430e-03 
1.347729e-03 3.209369e-03 6.226953e-03 6.618490e-03 8.990937e-03 -2.038874e-02 -9.904829e-03 9.019270e-03 -2.010413e-03 8.578270e-03 -3.575785e-04 1.069320e-02 -1.809315e-03 -8.192017e-03 -5.810004e-03 -1.502634e-03 -1.597866e-03 8.752894e-04 2.405551e-03 3.980832e-03 9.397026e-03 -1.980393e-03 -5.077818e-03 -2.405173e-03 -2.491231e-03 -1.116151e-03 -1.357668e-03 -6.393667e-04 -6.409363e-04 -3.402354e-04 -1.224726e-04 -1.794415e-04 1.759784e-04 -2.147606e-04 2.183268e-04 -5.079287e-04 -3.439472e-05 -7.516048e-04 3.493040e-06 -5.699331e-04 2.998637e-04 -2.901094e-04 3.872706e-04 -4.156021e-04 -3.128612e-05 -8.530144e-04 -4.468384e-04 -9.850936e-04 -5.122109e-04 -1.008429e-03 -7.669485e-04 -1.227621e-03 -1.073462e-03 -1.404293e-03 -1.297948e-03 -1.543856e-03 -1.229037e-03 8.805479e-04 1.323049e-03 1.449639e-03 1.888118e-03 1.314242e-03 1.591854e-03 1.559098e-03 2.391150e-03 2.075802e-03 2.620609e-03 2.187194e-03 2.034415e-03 1.967902e-03 1.172743e-03 1.350075e-03 -9.436796e-04 -5.625235e-04 -1.031750e-03 -3.754456e-04 -8.892167e-04 -2.377769e-04 -8.227452e-04 -2.426261e-04 -7.685282e-04 -2.807597e-04 -6.109751e-04 -2.205131e-04 -2.171545e-04 -1.051546e-04 1.518748e-04 -1.601447e-04 3.236939e-04 -4.357249e-04 2.777332e-04 -7.846567e-04 2.355437e-04 -7.835406e-04 5.055111e-04 -4.835015e-04 6.062032e-04 -3.713162e-04 3.030388e-04 -3.532804e-04 -6.530128e-05 -7.839783e-05 -2.533564e-04 4.385907e-04 -4.600736e-04 7.642662e-04 -9.546667e-04 9.182164e-04 -1.326259e-03 1.159053e-03 -1.468508e-03 1.355373e-03 -1.452089e-03 1.304257e-03 -1.393094e-03 8.414282e-04 -1.172980e-03 6.923424e-05 -4.981970e-04 -1.746302e-03 6.482760e-04 -7.337734e-03 1.560513e-02 -7.072147e-04 -8.879539e-03 -2.378136e-03 -3.070167e-03 9.599202e-05 
7.440951e-04 1.116038e-03 2.926756e-03 1.518223e-03 3.029255e-03 -6.134606e-03 -1.239275e-03 5.636803e-03 3.440521e-03 8.772083e-03 9.513620e-03 1.819339e-02 2.331875e-02 2.461203e-02 1.133923e-02 7.106001e-03 2.739249e-03 -2.595641e-03 -6.677587e-03 -1.180527e-02 -2.472233e-02 -2.461679e-02 -1.587058e-02 -1.056694e-02 -6.460401e-03 -4.439988e-03 -2.708221e-03 -1.881856e-03 -1.058358e-03 -7.642434e-04 -3.169262e-04 -3.021376e-04 -4.690456e-06 -1.621441e-04 7.353194e-05 -2.078223e-04 2.207613e-05 -2.705625e-04 5.153809e-05 -2.147626e-04 1.554266e-04 -1.531092e-04 1.942848e-04 -2.139970e-04 8.554329e-05 -3.858960e-04 -5.891365e-05 -5.048051e-04 -1.275263e-04 -5.844701e-04 -2.501289e-04 -7.006028e-04 -4.084541e-04 -8.028802e-04 -6.143763e-04 -8.979364e-04 -7.835682e-04 5.130830e-04 6.924409e-04 6.067920e-04 1.244528e-03 -4.749112e-05 1.779306e-04 -7.242266e-05 6.888182e-04 1.332683e-04 8.442108e-04 1.201215e-04 2.483589e-04 8.277878e-04 7.882758e-05 9.649375e-04 -6.156405e-04 -1.655830e-05 -3.518662e-04 2.785887e-04 -1.550673e-04 3.659788e-04 -1.666631e-04 2.955222e-04 -2.065038e-04 1.949788e-04 -1.707957e-04 1.305700e-04 -3.614963e-05 7.556160e-05 1.067662e-04 -1.889355e-05 2.033093e-04 -1.641617e-04 2.212431e-04 -3.202658e-04 2.158166e-04 -3.715288e-04 2.563595e-04 -3.123661e-04 2.609498e-04 -2.367730e-04 1.537842e-04 -1.756102e-04 -1.424493e-05 -4.247752e-05 -1.417971e-04 1.771698e-04 -2.730059e-04 3.533172e-04 -4.742472e-04 4.646532e-04 -6.492616e-04 5.658105e-04 -7.288921e-04 6.448801e-04 -6.994291e-04 6.169544e-04 -6.180683e-04 3.702518e-04 -4.482609e-04 -1.267234e-04 -1.050625e-04 -1.210832e-03 2.990949e-04 -4.136793e-03 4.483003e-03 5.121062e-04 -1.550024e-03 -1.254033e-03 -1.249137e-03 -3.339001e-04 
