# vtk DataFile Version 2.0
Comment goes here
ASCII

DATASET STRUCTURED_POINTS
FIELD FieldData 1
TIME 1 1 double
0.01000000
DIMENSIONS    128   16   1

ORIGIN    0.000   0.000   0.000
SPACING   0.0078125 0.015625   1.000

POINT_DATA   2048
SCALARS uY double
LOOKUP_TABLE default

2.354494e-04 2.185136e-04 2.108843e-04 2.083669e-04 2.156903e-04 2.223704e-04 2.379566e-04 2.291774e-04 1.852491e-04 1.087131e-04 2.355351e-05 -5.523725e-05 -1.088314e-04 -1.358669e-04 -1.248722e-04 -9.341152e-05 -3.207354e-05 1.536853e-05 8.157415e-05 1.028747e-04 1.243178e-04 6.234681e-05 1.686926e-05 -6.459228e-05 -1.222946e-04 -1.847283e-04 -1.503482e-04 -2.382900e-05 2.371413e-04 5.245108e-04 8.069123e-04 9.215080e-04 8.835756e-04 5.686211e-04 9.727907e-05 -5.078899e-04 -7.195062e-04 -6.020560e-04 -3.064247e-04 1.558461e-05 1.385158e-03 2.408647e-03 1.834143e-03 4.757384e-04 3.131159e-04 -3.758986e-04 1.313219e-04 9.793311e-04 2.144702e-03 3.836246e-03 4.548036e-03 2.642521e-03 4.275881e-03 3.259075e-03 4.329635e-03 5.730377e-03 1.783393e-03 1.587229e-03 -1.687175e-03 -7.730822e-03 -9.295006e-03 -1.754141e-02 -1.697334e-02 -7.003395e-03 -8.074889e-03 -7.028375e-03 -3.935736e-03 -8.038322e-03 -1.206935e-02 -9.800094e-03 -1.198348e-02 -3.214257e-03 8.108756e-03 8.890600e-03 9.391409e-03 1.046731e-02 6.554662e-03 5.616695e-03 6.134139e-03 4.123873e-03 4.551944e-03 5.065645e-03 3.423917e-03 2.904795e-03 1.724190e-03 -1.973838e-04 -1.551791e-04 -2.536491e-05 1.527238e-03 2.753388e-03 2.136495e-03 1.031616e-03 7.466719e-04 7.391352e-05 -6.471371e-04 -8.495839e-04 -4.570740e-04 -3.896808e-05 3.413304e-04 5.382896e-04 5.856879e-04 4.217811e-04 1.745980e-04 -1.183714e-04 -3.482522e-04 -5.112781e-04 -5.700731e-04 -5.646447e-04 -5.031267e-04 -4.333217e-04 -3.642958e-04 -3.206234e-04 -2.927806e-04 -2.808946e-04 -2.641478e-04 -2.337311e-04 -1.742771e-04 -8.520474e-05 3.100507e-05 1.607966e-04 2.833953e-04 3.786949e-04 4.163678e-04 3.964299e-04 3.662159e-04 3.262888e-04 2.906508e-04 2.589511e-04 
8.704821e-06 2.173374e-04 9.822524e-04 5.552746e-04 8.848102e-04 -1.294281e-03 -7.933976e-04 2.538000e-03 2.772512e-03 3.662611e-03 5.294618e-03 7.942758e-03 1.126921e-02 1.020840e-02 5.474025e-03 3.759386e-03 9.119928e-04 2.939010e-05 -3.188617e-03 -4.596370e-03 -1.038044e-02 -1.166575e-02 -8.826211e-03 -5.548701e-03 -4.445442e-03 -3.309902e-03 -2.001352e-03 -2.096447e-03 -3.803500e-04 -9.613457e-05 1.451801e-03 1.270163e-03 1.676229e-03 6.881331e-04 -3.616628e-04 -2.124888e-03 -2.845010e-03 -2.680491e-03 -1.858160e-03 -6.109166e-04 3.403947e-03 6.505481e-03 4.452686e-03 1.174766e-05 -2.340819e-03 -5.147701e-03 -4.350722e-03 -7.689966e-04 3.270821e-03 8.508567e-03 8.474575e-03 2.721389e-03 5.882136e-03 5.092408e-03 1.420787e-02 2.601813e-02 1.558727e-02 2.449839e-02 1.486942e-02 -1.599482e-02 -3.563162e-02 -1.050934e-01 -8.964473e-02 1.146141e-02 2.642108e-02 3.255056e-02 5.370305e-02 4.520694e-03 -4.944654e-02 -6.092684e-02 -8.679519e-02 -3.096381e-02 5.670625e-02 4.904028e-02 3.458056e-02 3.285843e-02 1.125331e-02 7.046297e-03 1.031003e-02 3.327002e-03 3.959349e-03 8.209217e-03 6.667803e-03 5.452064e-03 6.152298e-04 -5.614384e-03 -5.563749e-03 -3.442156e-03 2.222105e-03 6.798150e-03 5.398887e-03 2.302149e-03 1.032205e-03 -8.530260e-04 -2.772006e-03 -2.981181e-03 -1.674440e-03 -2.773298e-04 8.045033e-04 1.370191e-03 1.438311e-03 1.013125e-03 3.896898e-04 -2.660328e-04 -7.375577e-04 -9.822782e-04 -9.751661e-04 -8.916803e-04 -6.718103e-04 -3.927556e-04 -1.935037e-04 -1.074891e-04 5.423670e-05 7.043737e-05 -4.047229e-05 -2.148153e-04 -2.254103e-05 -2.030055e-04 -7.087391e-04 3.817772e-04 -9.499448e-04 -6.874965e-04 2.013121e-03 2.380081e-04 -7.667534e-04 -1.174505e-03 -9.467764e-04 -6.811612e-04 
-2.014060e-04 7.499480e-04 2.135324e-03 2.313060e-03 3.102632e-03 -4.503481e-03 -5.904447e-03 3.968212e-03 1.950768e-03 3.243504e-03 2.180664e-03 4.608269e-03 2.027468e-03 -6.978800e-03 -6.902096e-04 1.810245e-04 -1.996191e-03 2.834077e-03 2.951592e-04 2.382050e-03 8.234575e-03 -1.266588e-03 -6.134291e-03 -1.791444e-03 -5.084509e-03 -3.080724e-03 -2.882842e-03 -3.266506e-03 -7.798623e-04 2.393861e-04 2.941773e-03 2.955311e-03 3.503714e-03 2.181681e-03 -1.073188e-03 -5.511320e-03 -6.319084e-03 -3.421434e-03 -4.613198e-03 -5.998919e-03 8.318461e-03 2.204561e-02 1.058630e-02 -4.613259e-03 -6.018693e-03 -1.014504e-02 -8.582491e-03 -3.507068e-03 3.118073e-03 2.403382e-02 1.908116e-02 -2.532377e-03 6.486608e-03 -1.106475e-03 1.843781e-02 3.686600e-02 3.897504e-03 1.368604e-02 1.884306e-03 -2.065167e-02 -9.425827e-03 -6.854527e-02 -6.111850e-02 1.785551e-02 -1.639981e-02 -2.732975e-02 1.876310e-02 -2.053457e-02 -4.146933e-02 -2.296554e-02 -6.704830e-02 -2.290585e-02 6.544084e-02 4.350146e-02 3.331006e-02 4.589342e-02 2.794092e-03 -2.643853e-03 1.573284e-02 -2.965968e-03 6.020797e-03 2.185845e-02 9.207612e-03 9.939355e-03 4.597005e-03 -1.349802e-02 -1.547424e-02 -1.198023e-02 5.574289e-03 2.230522e-02 1.200557e-02 -3.360237e-04 2.625099e-03 1.272209e-03 -6.705768e-03 -8.263925e-03 -3.603237e-03 1.969026e-04 2.061407e-03 3.102235e-03 3.261939e-03 2.322847e-03 9.021925e-04 -5.192054e-04 -1.532079e-03 -1.872184e-03 -1.709370e-03 -1.624772e-03 -1.122349e-03 -2.133631e-04 6.924360e-05 -3.470594e-05 5.134991e-04 8.879112e-04 1.113395e-04 -5.922411e-04 5.942652e-04 -5.458424e-04 -1.608088e-03 1.739369e-03 -2.812097e-03 -2.100373e-05 6.894470e-03 -1.391591e-03 -4.207558e-03 -3.155384e-03 -2.614129e-03 -1.381865e-03 
-4.722851e-04 2.491933e-03 6.811582e-03 9.886111e-03 1.508720e-02 2.071385e-03 -4.560173e-03 5.919310e-04 -7.094869e-04 -1.519800e-03 -4.553776e-04 -4.411819e-03 -1.995780e-03 1.719791e-03 -1.445113e-03 1.460687e-03 -2.274982e-03 2.032752e-03 -2.620724e-03 2.779561e-03 -3.357592e-03 2.733952e-03 2.514121e-03 1.521337e-03 1.307592e-03 -7.172840e-04 1.495653e-03 -2.070643e-03 1.610320e-03 -8.777877e-04 2.342999e-03 2.936033e-04 1.933339e-03 1.670936e-03 -9.383100e-04 -5.308342e-03 -1.488940e-03 7.158721e-03 -2.583213e-03 -1.922925e-02 3.372926e-03 2.984076e-02 1.847237e-03 -2.226446e-02 -4.518081e-03 1.706545e-03 3.005995e-03 -5.766383e-03 -1.695679e-02 2.233816e-02 1.112103e-02 -2.704980e-02 2.040529e-04 -1.821204e-02 -6.151390e-03 5.760969e-04 -1.867082e-02 4.258217e-03 -8.933239e-03 -6.103710e-03 1.882255e-02 5.283764e-02 3.941974e-02 2.155157e-02 1.612333e-03 -2.358520e-02 -4.761822e-04 -9.112831e-03 1.945645e-02 4.569770e-02 3.463704e-02 4.197569e-03 -2.490571e-02 -1.666637e-02 -2.050484e-02 2.305693e-03 -1.684714e-02 -2.604820e-02 3.759275e-03 -2.152603e-02 6.430791e-03 2.783199e-02 -2.048310e-02 -4.805316e-03 1.433302e-02 -5.848649e-03 -1.030839e-02 -1.859871e-02 2.633566e-03 3.023191e-02 1.481446e-03 -2.038153e-02 2.593626e-03 1.208860e-02 -2.920225e-03 -7.773297e-03 -9.323771e-04 2.148567e-03 1.218504e-03 1.048885e-03 1.522612e-03 1.357113e-03 8.500733e-04 2.188100e-04 -3.235751e-04 -2.750659e-04 -4.749204e-05 -7.061382e-04 -5.999429e-04 5.714460e-04 1.971923e-04 -9.478467e-04 8.006316e-05 1.268837e-03 -1.986198e-04 -1.756543e-03 1.685056e-03 -6.519652e-04 -9.362116e-04 3.552146e-03 -4.135110e-03 3.572962e-03 3.245915e-03 -1.814357e-02 -1.782958e-02 -1.194270e-02 -7.921609e-03 -4.134103e-03 
-3.293521e-04 3.496206e-03 7.905146e-03 1.268742e-02 1.814792e-02 1.365045e-02 5.648563e-03 5.252962e-04 -4.350219e-04 1.336900e-03 1.262810e-03 1.527138e-03 1.177912e-03 2.131740e-04 -4.650171e-04 6.166206e-04 -7.036968e-04 4.726143e-04 -1.016699e-03 2.375581e-04 -9.677071e-04 -1.109518e-03 -3.286917e-03 -1.455432e-04 9.614789e-04 1.096790e-03 1.957121e-03 6.838793e-04 1.175889e-03 -2.171535e-03 -2.084232e-03 -4.091407e-03 -2.885364e-03 -1.048506e-03 2.069514e-04 1.330759e-03 7.077722e-03 1.389651e-02 3.542072e-03 -1.487560e-02 -6.818483e-03 7.235989e-03 -1.147207e-02 -1.964167e-02 5.107767e-03 1.914806e-02 1.925822e-02 3.542962e-03 -1.913154e-02 3.574290e-03 -6.714363e-04 -1.425563e-02 1.396252e-02 9.918951e-03 8.002889e-03 1.056857e-02 2.299015e-02 4.236496e-03 -6.003507e-03 1.107984e-02 -3.648662e-02 -4.255924e-02 -2.173234e-02 -3.275566e-02 2.865014e-02 5.137270e-02 6.284365e-03 1.603653e-02 -1.311666e-02 -6.496235e-02 -2.662714e-02 3.161296e-04 1.285755e-03 3.574310e-02 8.940747e-03 6.764226e-04 1.825830e-02 2.763217e-03 6.895962e-03 -5.060161e-03 1.293855e-02 1.512357e-02 -3.082951e-02 -1.326503e-02 1.608579e-02 1.499726e-02 1.221183e-02 -4.012647e-03 -2.738736e-03 8.011945e-03 -1.362486e-02 -2.367961e-02 4.595339e-04 1.392809e-02 6.526882e-03 2.671807e-03 4.505544e-03 2.958774e-03 -7.710350e-04 -2.457675e-03 -2.136343e-03 -1.087808e-03 2.236786e-04 1.355079e-03 2.038093e-03 2.479345e-03 2.475262e-03 1.447641e-03 8.153013e-04 9.028677e-04 -7.347666e-06 -1.382134e-03 -9.010145e-04 -8.325272e-05 -8.051614e-04 -1.917062e-03 6.346428e-04 -7.031459e-04 -6.329667e-05 1.058084e-03 -3.128637e-03 2.368232e-03 -8.416303e-03 -2.427511e-02 -1.979309e-02 -1.383582e-02 -8.635526e-03 -4.444504e-03 
-2.895029e-04 1.500644e-03 3.991298e-03 5.888492e-03 8.272167e-03 9.449463e-03 6.974886e-03 1.654938e-03 1.635873e-03 3.246898e-03 3.165651e-03 6.055673e-03 4.519206e-03 2.343901e-04 -4.734310e-04 5.864630e-04 -7.899726e-04 6.063197e-04 -9.453296e-04 3.535451e-04 -8.102182e-04 -4.487464e-03 -6.397146e-03 -2.487838e-03 -1.122598e-03 -1.017105e-04 5.288155e-04 4.530832e-04 4.125291e-04 -1.555186e-03 -1.777337e-03 -2.962936e-03 -2.132858e-03 -1.341251e-03 8.198204e-04 2.825255e-03 5.242675e-03 6.119103e-03 3.249023e-03 -2.462147e-03 -5.350850e-03 -5.871137e-03 -7.603945e-03 -4.126119e-03 5.323226e-03 1.189030e-02 1.165443e-02 5.843645e-03 -4.549471e-03 -3.390781e-03 -1.362268e-03 3.679783e-03 1.412994e-02 1.893513e-02 1.672706e-02 1.993586e-02 2.414576e-02 -2.508097e-02 -2.305690e-02 2.282802e-02 -2.689691e-02 -4.619808e-02 4.837190e-03 -4.468934e-02 -3.233155e-02 -5.340649e-03 -5.666579e-02 -2.359458e-03 -1.091362e-02 -7.118650e-02 -2.698717e-02 2.389217e-02 3.807205e-02 5.217714e-02 2.994501e-02 1.239673e-02 2.649799e-02 1.690361e-02 8.844530e-03 7.912839e-03 8.811729e-03 2.559115e-03 -1.022793e-02 -4.602880e-03 6.177857e-03 1.203063e-02 1.220105e-02 4.670909e-03 -2.087048e-03 -5.057815e-03 -8.705714e-03 -7.340972e-03 -4.245032e-04 4.625815e-03 5.448484e-03 4.862993e-03 3.559954e-03 1.484757e-03 -5.215303e-04 -1.551190e-03 -1.565186e-03 -8.867234e-04 1.038261e-04 1.023076e-03 1.646785e-03 1.878368e-03 1.788581e-03 1.326374e-03 8.615730e-04 4.178833e-04 -5.026069e-05 -6.021854e-04 -6.749475e-04 -7.186192e-04 -6.254796e-04 -9.387531e-04 -5.777148e-04 -7.101013e-04 -5.289204e-04 -1.402709e-03 -1.957032e-03 -1.620713e-03 -8.692581e-03 -1.179794e-02 -8.805521e-03 -7.358357e-03 -4.556858e-03 -2.840343e-03 
-1.842649e-04 1.089406e-03 2.514863e-03 3.588841e-03 4.516886e-03 4.705859e-03 4.000514e-03 3.911734e-03 3.543213e-03 5.436903e-03 5.343799e-03 9.265748e-03 8.304405e-03 1.561098e-04 -1.653986e-04 1.482798e-04 -2.837471e-04 7.386509e-05 -3.637749e-04 -7.373717e-05 -3.707484e-04 -7.428529e-03 -8.677862e-03 -4.324779e-03 -3.997810e-03 -1.979637e-03 -1.686420e-03 -1.065268e-03 -8.376610e-04 -1.053152e-03 -8.247282e-04 -1.001236e-03 -5.668731e-04 -2.422049e-04 3.221401e-04 7.778210e-04 1.284151e-03 1.571541e-03 6.110191e-04 -9.403444e-04 -1.100272e-03 -2.827388e-04 -1.234857e-03 -8.189564e-04 1.626142e-03 3.288285e-03 3.247327e-03 2.718713e-03 1.494767e-04 1.840962e-03 2.154357e-03 1.519902e-03 5.349791e-03 4.521186e-03 5.718304e-03 4.930368e-03 4.745991e-03 -3.562954e-03 -5.630637e-03 -1.762520e-03 -2.132305e-02 -3.381754e-02 -9.313271e-03 -6.288388e-03 -3.035190e-03 2.885399e-03 -8.294065e-03 -7.038825e-04 -1.336114e-02 -3.395038e-02 -2.457190e-02 2.015696e-03 1.535025e-02 1.919934e-02 1.475387e-02 1.164871e-02 1.259059e-02 8.646976e-03 8.515691e-03 5.632395e-03 5.789100e-03 4.953744e-03 4.572607e-04 2.025571e-03 3.620752e-03 3.759673e-03 3.656096e-03 1.700715e-03 6.160554e-04 5.431511e-04 -1.326517e-03 -1.666145e-03 2.015206e-04 1.548860e-03 1.550280e-03 1.508465e-03 1.389704e-03 1.001385e-03 4.720698e-04 1.574286e-04 5.847287e-05 1.493760e-04 3.367922e-04 5.413765e-04 6.950613e-04 7.583005e-04 7.466865e-04 5.848459e-04 4.277850e-04 2.521696e-04 6.691602e-05 -1.998277e-04 -2.472460e-04 -3.685009e-04 -4.083255e-04 -6.606771e-04 -5.543726e-04 -7.766778e-04 -1.084478e-03 -1.137935e-03 -2.181010e-03 -2.206349e-03 -3.933840e-03 -5.342760e-03 -4.774768e-03 -4.224989e-03 -2.862252e-03 -1.712364e-03 
-1.681693e-04 3.014446e-04 9.244940e-04 1.364074e-03 1.773939e-03 2.031777e-03 1.933881e-03 1.891873e-03 1.830266e-03 2.784347e-03 2.712735e-03 4.921659e-03 4.202475e-03 6.202829e-05 -1.262783e-04 9.727404e-05 -2.164191e-04 7.361712e-05 -2.574874e-04 -2.939010e-05 -2.334764e-04 -3.734815e-03 -4.437886e-03 -2.145753e-03 -1.937155e-03 -8.718384e-04 -7.104119e-04 -3.790270e-04 -3.072026e-04 -4.150782e-04 -3.276995e-04 -4.122478e-04 -1.398913e-04 4.434683e-05 4.792075e-04 7.867391e-04 1.071680e-03 1.099307e-03 7.694623e-04 2.661519e-04 -1.124847e-04 6.179631e-06 1.309582e-04 1.026504e-03 2.137792e-03 3.306116e-03 3.523561e-03 3.781838e-03 3.184118e-03 3.993363e-03 4.792810e-03 6.143712e-03 8.097587e-03 9.264772e-03 1.055003e-02 1.102965e-02 1.257528e-02 7.667840e-03 3.784548e-03 -9.531331e-03 -2.251990e-02 -5.576305e-02 -5.644365e-02 -1.671969e-02 4.970877e-03 1.280713e-02 8.155817e-03 -4.713881e-03 -2.911592e-02 -3.922696e-02 -5.066282e-02 -2.488556e-02 1.875721e-02 2.499914e-02 2.158542e-02 1.852632e-02 1.733909e-02 1.414950e-02 1.200098e-02 9.858386e-03 8.122686e-03 6.504054e-03 4.405029e-03 4.287162e-03 4.230282e-03 4.295310e-03 3.736943e-03 2.673985e-03 1.450568e-03 7.275194e-04 4.277048e-05 1.034555e-04 5.873948e-04 1.129294e-03 1.309129e-03 1.339636e-03 1.126073e-03 8.303329e-04 4.852257e-04 2.672953e-04 1.569215e-04 1.847463e-04 2.744660e-04 3.942624e-04 4.849210e-04 5.224113e-04 5.061139e-04 4.211928e-04 3.204641e-04 1.871151e-04 7.601157e-05 -6.384060e-05 -1.230640e-04 -2.181289e-04 -2.402782e-04 -3.476134e-04 -3.710740e-04 -4.917168e-04 -6.189167e-04 -8.004585e-04 -1.154588e-03 -1.294761e-03 -1.988428e-03 -2.253917e-03 -2.014437e-03 -1.831265e-03 -1.240702e-03 -8.439931e-04 
-1.222605e-04 -1.062922e-04 -9.255016e-05 -7.377746e-05 -5.834772e-05 -3.409062e-05 -1.610289e-05 1.509517e-05 2.961778e-05 5.681701e-05 5.872228e-05 8.393553e-05 7.606658e-05 -4.219341e-05 -3.508797e-05 -3.269358e-05 -2.961268e-05 -3.990183e-05 -3.758141e-05 -5.900652e-05 -4.895454e-05 1.319448e-04 1.862599e-04 1.774436e-04 2.222245e-04 2.157574e-04 2.175571e-04 1.857522e-04 1.458744e-04 1.044975e-04 6.271470e-05 6.503619e-05 7.982102e-05 1.664788e-04 2.331464e-04 3.481540e-04 3.839817e-04 4.460222e-04 3.361307e-04 2.761627e-04 2.131010e-04 3.827037e-04 3.988646e-04 6.942118e-04 1.047965e-03 1.500923e-03 1.712015e-03 2.064011e-03 2.152327e-03 2.629161e-03 3.191407e-03 3.550124e-03 4.685292e-03 5.182694e-03 6.341478e-03 7.352903e-03 7.647072e-03 4.731771e-03 2.683977e-03 -5.165464e-03 -1.148346e-02 -3.290817e-02 -3.412737e-02 -1.126875e-02 -1.777473e-04 5.763084e-03 3.845719e-03 -3.410709e-03 -1.793836e-02 -2.313790e-02 -3.199450e-02 -1.665457e-02 1.176657e-02 1.491017e-02 1.323299e-02 1.193890e-02 1.057972e-02 9.005989e-03 7.910668e-03 6.583599e-03 5.623692e-03 4.820774e-03 3.719799e-03 3.386049e-03 2.875233e-03 2.535483e-03 2.091474e-03 1.640178e-03 1.187906e-03 9.671294e-04 6.128161e-04 5.421893e-04 5.779319e-04 6.821486e-04 6.499229e-04 6.427769e-04 5.510660e-04 4.678876e-04 3.401296e-04 2.658442e-04 1.976294e-04 1.848207e-04 1.751607e-04 1.923861e-04 1.927294e-04 1.939864e-04 1.704823e-04 1.429065e-04 1.002348e-04 6.229605e-05 2.325688e-05 -3.626416e-06 -2.539756e-05 -3.652562e-05 -4.559951e-05 -5.131608e-05 -6.078022e-05 -7.279650e-05 -9.061529e-05 -1.110188e-04 -1.333481e-04 -1.524374e-04 -1.663166e-04 -1.688580e-04 -1.672191e-04 -1.585048e-04 -1.486879e-04 -1.349649e-04 
-1.280516e-04 -5.667924e-04 -1.169687e-03 -1.580853e-03 -1.976984e-03 -2.198543e-03 -2.086536e-03 -1.978837e-03 -1.901823e-03 -2.781281e-03 -2.736958e-03 -4.855329e-03 -4.224223e-03 -9.066413e-05 9.991559e-05 -1.244405e-04 1.609108e-04 -1.417078e-04 1.512976e-04 -1.026503e-04 7.410686e-05 3.955833e-03 4.841841e-03 2.562252e-03 2.525652e-03 1.483264e-03 1.345441e-03 9.039609e-04 6.675994e-04 5.699340e-04 2.899797e-04 3.240623e-04 1.272153e-04 2.845453e-04 2.419562e-04 4.643472e-04 4.775349e-04 6.631908e-04 6.126364e-04 7.073638e-04 6.296813e-04 7.647674e-04 8.088135e-04 1.131874e-03 1.425204e-03 1.932730e-03 2.300549e-03 2.792862e-03 3.135648e-03 3.619799e-03 4.156429e-03 4.714329e-03 5.528629e-03 6.147409e-03 7.058033e-03 7.876274e-03 1.210760e-02 2.252317e-02 1.782437e-02 -1.259804e-02 -2.423374e-02 -6.451570e-02 -7.244326e-02 -1.076169e-02 1.618146e-02 2.895568e-02 3.683448e-02 2.777674e-03 -3.655076e-02 -4.054886e-02 -5.618510e-02 -3.257553e-02 1.606505e-02 1.957104e-02 1.643999e-02 1.476262e-02 1.256559e-02 1.101078e-02 9.336044e-03 8.083409e-03 6.785248e-03 5.878125e-03 4.864021e-03 4.295153e-03 3.576002e-03 3.083338e-03 2.436515e-03 1.964510e-03 1.465151e-03 1.221412e-03 9.855188e-04 9.548288e-04 8.965730e-04 8.976463e-04 7.888683e-04 6.926529e-04 5.204891e-04 3.885389e-04 2.406567e-04 1.638023e-04 9.639799e-05 8.906589e-05 7.452870e-05 9.166239e-05 8.041386e-05 8.380263e-05 5.056776e-05 4.679813e-05 1.389831e-05 2.338888e-05 2.061281e-05 8.792184e-05 1.014846e-04 1.830990e-04 1.993394e-04 3.026788e-04 3.039829e-04 3.831868e-04 4.442941e-04 5.445046e-04 8.125590e-04 8.782813e-04 1.531426e-03 1.805284e-03 1.585955e-03 1.437459e-03 8.798369e-04 5.191515e-04 
-7.338779e-05 -1.317358e-03 -2.717931e-03 -3.765084e-03 -4.665748e-03 -4.812031e-03 -4.046617e-03 -3.851685e-03 -3.417507e-03 -5.264847e-03 -5.180370e-03 -9.085713e-03 -8.154469e-03 -1.833712e-04 1.459390e-04 -1.456611e-04 2.783020e-04 -1.060792e-04 3.036363e-04 -4.504223e-05 2.515352e-04 7.446508e-03 8.881024e-03 4.696646e-03 4.604651e-03 2.684428e-03 2.389595e-03 1.641772e-03 1.175316e-03 1.094975e-03 5.491136e-04 5.676959e-04 1.816639e-04 2.542415e-04 1.541174e-04 2.537157e-04 2.785215e-04 3.913350e-04 3.618464e-04 3.870700e-04 2.913221e-04 2.282248e-04 1.792329e-04 2.266481e-04 4.099341e-04 6.879229e-04 1.071232e-03 1.400509e-03 1.759452e-03 1.993209e-03 2.408434e-03 2.734264e-03 3.391562e-03 4.067150e-03 4.960613e-03 6.270117e-03 1.068428e-02 2.327508e-02 1.929865e-02 -1.013293e-02 -2.034321e-02 -5.989373e-02 -6.834374e-02 -3.509722e-03 2.362873e-02 3.509922e-02 4.531000e-02 8.665018e-03 -3.035283e-02 -3.466411e-02 -5.163550e-02 -2.996369e-02 1.558846e-02 1.741855e-02 1.302902e-02 1.119856e-02 8.591345e-03 7.315821e-03 5.771393e-03 4.892065e-03 3.923393e-03 3.373921e-03 2.743241e-03 2.409143e-03 1.886053e-03 1.490300e-03 1.006375e-03 6.907823e-04 4.458338e-04 3.986645e-04 3.912121e-04 4.908706e-04 5.269218e-04 5.328816e-04 4.330359e-04 3.192225e-04 1.608003e-04 4.302150e-05 -6.556745e-05 -1.098387e-04 -1.433515e-04 -1.340903e-04 -1.466109e-04 -1.327298e-04 -1.503220e-04 -1.595910e-04 -2.137082e-04 -1.809051e-04 -2.003939e-04 -1.863353e-04 -1.337052e-04 6.047229e-05 8.263490e-05 2.230117e-04 2.970436e-04 5.848097e-04 4.914376e-04 6.980614e-04 9.548477e-04 9.286926e-04 1.875262e-03 1.801483e-03 3.472931e-03 4.897936e-03 4.362590e-03 3.855232e-03 2.533292e-03 1.421904e-03 
4.774427e-05 -1.722292e-03 -4.200968e-03 -6.111052e-03 -8.508225e-03 -9.735579e-03 -7.250697e-03 -1.783049e-03 -1.572463e-03 -3.136807e-03 -3.011437e-03 -6.040593e-03 -4.537335e-03 3.568098e-05 5.713971e-04 -4.438592e-04 8.205962e-04 -5.823152e-04 8.520671e-04 -4.724282e-04 5.138096e-04 3.696788e-03 5.985206e-03 2.866989e-03 2.261536e-03 1.838232e-03 1.390684e-03 1.206711e-03 4.428386e-04 1.203351e-03 4.849235e-05 2.352267e-04 -7.150721e-04 -3.518761e-04 -4.783028e-04 6.565730e-05 2.848637e-04 8.453578e-04 9.279434e-04 1.096078e-03 7.243867e-04 2.857004e-04 -2.613950e-04 -4.973755e-04 -3.235280e-04 3.214571e-04 1.237696e-03 1.936411e-03 2.344728e-03 2.176156e-03 2.114462e-03 1.929837e-03 2.351988e-03 2.591007e-03 3.271285e-03 3.233836e-03 4.310568e-03 7.525117e-03 5.401298e-03 -7.459356e-03 -1.081563e-02 -2.514517e-02 -2.843284e-02 -4.239118e-03 4.337592e-03 9.518865e-03 1.342884e-02 2.978835e-04 -1.425232e-02 -1.432358e-02 -2.074853e-02 -1.244394e-02 4.055809e-03 5.200503e-03 5.630807e-03 5.758357e-03 5.175921e-03 4.571821e-03 3.957007e-03 3.420172e-03 2.930574e-03 2.764512e-03 2.792109e-03 2.819885e-03 2.327823e-03 1.498950e-03 4.631021e-04 -2.477479e-04 -4.863255e-04 -1.894517e-04 3.667654e-04 9.694370e-04 1.281064e-03 1.257074e-03 9.109056e-04 4.417452e-04 -3.952776e-05 -3.707851e-04 -5.460263e-04 -5.394017e-04 -4.533870e-04 -3.157313e-04 -2.363374e-04 -1.691489e-04 -1.812764e-04 -2.383330e-04 -3.777068e-04 -3.818535e-04 -4.659548e-04 -4.918507e-04 -3.312330e-04 1.172438e-04 2.583558e-04 4.871884e-04 6.121399e-04 1.108945e-03 8.364092e-04 9.370517e-04 5.938186e-04 1.199084e-03 1.404996e-03 6.902278e-04 7.661236e-03 1.100130e-02 8.220660e-03 6.908005e-03 4.207880e-03 2.553383e-03 
1.254594e-04 -3.696342e-03 -8.124680e-03 -1.296591e-02 -1.851839e-02 -1.413259e-02 -5.884282e-03 -1.352942e-04 1.185095e-03 -7.109381e-04 -8.922993e-04 -1.473892e-03 -1.333681e-03 -1.901041e-04 6.395869e-04 -3.238159e-04 9.904845e-04 -2.853952e-04 9.586282e-04 -4.158871e-04 5.694723e-04 -5.237601e-04 2.072537e-03 6.143852e-04 8.549703e-04 1.346641e-03 3.554848e-04 1.228678e-03 -1.043692e-04 1.869535e-03 -8.364791e-05 3.515920e-04 -7.973243e-04 -6.255591e-04 -3.383553e-04 -3.127956e-04 2.986859e-04 7.450974e-04 7.463731e-04 8.319686e-04 3.384011e-04 -5.568092e-04 -1.180544e-03 -1.706476e-03 -1.579969e-03 -9.652265e-04 1.985681e-04 8.877070e-04 1.194643e-03 6.271618e-04 3.710497e-04 -2.801672e-04 -1.301512e-04 -8.171781e-05 4.841654e-04 2.531805e-04 -2.521140e-04 -2.346976e-03 -1.884318e-03 -4.980111e-04 1.635366e-03 4.882534e-03 5.216241e-03 -4.003928e-04 -5.063017e-03 -5.058700e-03 -6.151219e-03 -2.223084e-03 6.835143e-04 3.196884e-03 4.019774e-03 2.538361e-03 -6.143468e-04 -1.491822e-03 -4.609601e-04 -1.193946e-05 -6.913542e-05 -2.039386e-04 -2.121792e-04 -3.132547e-04 -2.617302e-04 -1.577827e-04 3.610123e-04 9.185588e-04 6.433633e-04 -1.486863e-04 -1.145991e-03 -1.852947e-03 -1.864368e-03 -1.427455e-03 -5.795288e-04 4.212558e-04 1.066909e-03 1.104892e-03 7.510874e-04 2.225317e-04 -3.062064e-04 -6.992728e-04 -8.847533e-04 -8.618204e-04 -7.067386e-04 -5.382240e-04 -4.890078e-04 -3.857095e-04 -2.951172e-04 -5.615629e-04 -9.049255e-04 -5.315094e-04 -6.370193e-04 -1.347920e-03 -8.247077e-04 4.459871e-04 1.053416e-04 -4.169940e-04 6.461382e-04 2.057309e-03 -3.041551e-04 1.083951e-03 3.399510e-04 -1.018403e-03 2.793805e-03 -3.243803e-03 7.269080e-03 2.336422e-02 1.917224e-02 1.339641e-02 8.322655e-03 4.200667e-03 
5.855209e-04 -2.405007e-03 -6.751917e-03 -9.856693e-03 -1.509800e-02 -2.058130e-03 5.104159e-03 6.797404e-04 2.135259e-03 2.468798e-03 8.156096e-04 4.278738e-03 1.633151e-03 -2.168616e-03 4.878295e-04 -2.097914e-03 1.741248e-03 -2.629742e-03 2.160003e-03 -3.128515e-03 3.445228e-03 -3.247806e-03 -3.162140e-03 -1.290006e-03 -6.843503e-04 8.470950e-04 -2.083552e-03 1.492615e-03 -1.443917e-03 2.016182e-03 -6.011478e-04 1.586179e-03 4.420939e-04 1.090701e-03 7.973168e-04 2.008903e-04 -6.235306e-05 -2.200214e-04 -9.291854e-04 -7.529061e-04 -8.039880e-04 -6.976927e-04 -2.206526e-04 -2.973615e-05 -1.349638e-05 -2.520686e-04 -2.956618e-04 -5.292550e-04 -4.586982e-04 -5.129663e-04 2.289222e-05 -3.046380e-04 -3.714754e-04 -8.043550e-04 -9.122227e-04 -1.079057e-03 -3.107600e-04 -8.082909e-05 4.579718e-04 2.439284e-04 -7.857332e-05 -8.607130e-04 -8.949297e-04 -1.457697e-04 2.331221e-04 1.009898e-03 -2.630529e-04 5.219822e-04 -6.514487e-04 -7.179332e-04 -7.909552e-04 -7.278452e-04 -6.173100e-04 -6.959448e-04 -1.348782e-03 -1.560320e-03 -1.471937e-03 -9.770869e-04 -6.187760e-04 -3.682565e-04 -1.497776e-04 -4.832195e-04 -8.299515e-04 -7.692351e-04 -8.616752e-04 -5.886985e-04 -1.533200e-04 1.045024e-04 2.439029e-04 -1.625503e-04 -5.899516e-04 -7.281756e-04 -6.757235e-04 -6.537512e-04 -4.510221e-04 -1.596911e-04 1.174181e-04 2.490183e-04 2.632416e-04 1.773330e-04 6.255512e-05 -1.147419e-04 -3.788162e-04 -4.510107e-04 -3.774118e-04 -7.064896e-04 -1.026984e-03 -3.376795e-04 -3.446379e-04 -1.421689e-03 -9.767335e-04 2.036088e-04 -8.069779e-04 -1.991682e-03 -5.037385e-04 1.122973e-03 -2.166038e-03 4.165477e-04 1.027993e-03 -3.087652e-03 4.934279e-03 -2.662635e-03 -2.562116e-03 1.854057e-02 1.811496e-02 1.216859e-02 8.099284e-03 4.277385e-03 
5.497601e-04 -4.340886e-04 -1.831050e-03 -1.992935e-03 -2.740893e-03 4.978791e-03 6.683624e-03 -2.998098e-03 -1.143207e-03 -2.852062e-03 -2.251548e-03 -5.053124e-03 -2.711430e-03 6.213509e-03 3.415448e-06 -6.351107e-04 1.846339e-03 -2.720916e-03 1.489631e-04 -1.665768e-03 -7.385759e-03 1.738052e-03 6.299434e-03 1.642245e-03 4.403192e-03 1.593134e-03 9.217617e-04 1.665029e-03 5.143581e-04 1.399393e-03 6.278593e-04 1.875263e-03 1.714560e-03 1.864781e-03 1.419053e-03 6.022513e-04 -1.173009e-05 -6.273050e-04 -1.147699e-03 -1.138197e-03 -6.516632e-04 3.266737e-05 9.839396e-04 1.334056e-03 1.408625e-03 6.323901e-04 1.266938e-05 -6.846326e-04 -5.204543e-04 -1.644771e-04 8.148934e-04 7.056084e-04 8.836447e-04 2.431675e-04 -8.304606e-05 -7.213520e-05 7.670786e-04 2.323531e-03 1.847904e-03 -1.299598e-03 -3.893650e-03 -8.687005e-03 -9.527384e-03 -2.342721e-03 1.863038e-03 3.493689e-03 3.313221e-03 3.034810e-04 -4.429744e-03 -5.721136e-03 -6.913173e-03 -4.029056e-03 5.799945e-04 1.878136e-03 9.489109e-04 6.898133e-04 5.214504e-04 9.912309e-04 1.202238e-03 1.290179e-03 1.350126e-03 8.968489e-04 -4.364875e-05 -5.329798e-04 -6.224320e-04 -5.482524e-05 9.986515e-04 1.639827e-03 1.865743e-03 1.215418e-03 2.090532e-04 -7.370611e-04 -1.181254e-03 -1.291377e-03 -9.191549e-04 -3.436371e-04 2.894892e-04 6.844859e-04 8.490446e-04 7.473723e-04 5.200337e-04 2.008848e-04 -1.186557e-04 -3.144282e-04 -3.708964e-04 -5.061900e-04 -5.807403e-04 -2.374576e-04 -1.666957e-04 -5.761672e-04 -5.284697e-04 -3.168405e-04 -9.313342e-04 -1.484067e-03 -8.893085e-04 -2.847985e-04 -1.407583e-03 -1.638066e-05 1.481080e-03 -1.304731e-03 3.859340e-03 1.584301e-03 -5.324782e-03 2.537475e-03 5.041757e-03 3.796756e-03 3.113986e-03 1.792169e-03 
4.160372e-04 1.827401e-04 -5.870583e-04 -1.453488e-04 -4.352787e-04 1.809318e-03 1.397767e-03 -1.929482e-03 -2.291637e-03 -3.369483e-03 -5.239540e-03 -8.074051e-03 -1.158833e-02 -1.059093e-02 -5.961291e-03 -4.170756e-03 -1.251778e-03 -2.551746e-04 3.130685e-03 4.636817e-03 1.057721e-02 1.180186e-02 8.837571e-03 5.325706e-03 3.936826e-03 2.524238e-03 1.156394e-03 1.539471e-03 5.254540e-04 1.162872e-03 5.693487e-04 1.310492e-03 9.232899e-04 1.033529e-03 4.616664e-04 7.693987e-05 -4.036012e-04 -5.955029e-04 -6.647657e-04 -4.334987e-04 1.340294e-04 6.536610e-04 9.359824e-04 6.747619e-04 5.603589e-04 -5.982554e-06 1.292138e-05 1.561979e-04 9.258058e-04 1.604597e-03 2.520700e-03 2.268759e-03 3.043659e-03 2.979077e-03 3.366386e-03 4.169668e-03 2.824907e-03 2.397292e-03 -3.025295e-04 -7.432565e-03 -1.084951e-02 -1.850051e-02 -1.709906e-02 -4.929397e-03 -5.496157e-04 2.791586e-03 3.483213e-03 -2.010487e-03 -9.964254e-03 -1.119307e-02 -1.336031e-02 -6.209811e-03 4.198521e-03 6.368398e-03 7.283851e-03 7.358553e-03 5.519086e-03 4.969770e-03 4.470518e-03 3.510220e-03 3.111456e-03 2.769044e-03 1.860900e-03 1.188797e-03 4.740757e-04 -3.582860e-06 3.414338e-04 6.508868e-04 1.208558e-03 1.270110e-03 8.469319e-04 1.557588e-04 -2.636285e-04 -6.245582e-04 -6.737024e-04 -5.148511e-04 -1.417547e-04 1.653759e-04 3.993023e-04 4.458956e-04 3.804727e-04 1.938942e-04 -1.843982e-05 -2.225663e-04 -3.625803e-04 -4.612627e-04 -5.041397e-04 -4.408793e-04 -3.998857e-04 -4.334278e-04 -4.414060e-04 -4.388935e-04 -5.855516e-04 -6.404948e-04 -5.609524e-04 -3.747092e-04 -4.688186e-04 -9.775661e-05 6.869992e-04 -7.166786e-05 1.601619e-03 1.632270e-03 -9.975315e-04 6.282419e-04 1.494959e-03 1.792770e-03 1.478942e-03 1.149679e-03 
