# vtk DataFile Version 2.0
Comment goes here
ASCII

DATASET STRUCTURED_POINTS
FIELD FieldData 1
TIME 1 1 double
0.00900000
DIMENSIONS    64   64   1

ORIGIN    0.000   0.000   0.000
SPACING   0.03125 0.03125   1.000

POINT_DATA   4096
SCALARS Omega double
LOOKUP_TABLE default

-3.937703e-02 -3.160044e-02 1.586734e-02 -5.206271e-02 -1.572681e-05 -9.372844e-03 -7.419460e-03 -1.617469e-02 -5.670228e-03 -1.375670e-02 -5.685191e-03 -8.584960e-03 -9.340520e-04 -3.952169e-03 -1.134234e-04 2.286057e-03 4.020383e-03 4.162486e-03 2.604545e-03 2.180505e-02 -3.881964e-03 1.480434e-02 1.069518e-02 1.798383e-02 1.460736e-02 1.683573e-02 1.553395e-02 1.271271e-02 1.934148e-02 1.237753e-02 1.884577e-02 1.858020e-02 1.889960e-02 3.591753e-03 3.660421e-02 -2.133207e-03 3.342493e-02 -2.926987e-03 3.485039e-02 2.374042e-03 2.512539e-02 7.322405e-03 1.835470e-02 8.545206e-03 1.445875e-02 2.194492e-02 -1.265781e-02 2.245321e-02 8.648790e-03 9.817527e-03 -1.634578e-02 1.821407e-02 -1.783018e-02 5.196094e-03 -1.409235e-02 -1.168383e-03 -1.946423e-02 3.543931e-03 -2.742518e-02 2.826385e-03 -2.713751e-02 -3.430723e-03 -1.779976e-02 -6.607581e-03 
-3.413769e+00 -1.453018e+01 6.495070e+00 -1.057926e+01 2.835976e+00 -7.953511e+00 -1.327313e-01 -4.615182e+00 -3.573198e+00 -1.328597e+00 -6.553547e+00 1.010156e+00 -8.382908e+00 2.228444e+00 -9.248978e+00 2.702200e+00 -9.363642e+00 2.476158e+00 -8.992367e+00 1.992944e+00 -8.464190e+00 1.619323e+00 -8.378423e+00 1.872238e+00 -8.582682e+00 1.900465e+00 -8.437010e+00 1.767823e+00 -8.260257e+00 1.739270e+00 -8.144935e+00 1.666611e+00 -7.919281e+00 1.476623e+00 -7.622585e+00 1.308132e+00 -7.327170e+00 1.074601e+00 -6.924194e+00 7.794428e-01 -6.433868e+00 3.256747e-01 -5.969916e+00 -9.127981e-03 -5.403792e+00 -4.727364e-01 -4.988050e+00 -4.486940e-01 -5.186256e+00 -2.470767e-01 -4.830812e+00 -1.153427e+00 -3.303569e+00 -2.699096e+00 -1.901714e+00 -3.414454e+00 -1.770848e+00 -2.738076e+00 -2.963901e+00 -6.469331e-01 -5.548901e+00 2.529049e+00 -9.604326e+00 7.604402e+00 
-2.119382e+00 1.644237e+01 -1.429479e+01 8.270778e+00 -4.970080e+00 6.568153e+00 -6.258613e+00 4.483241e+00 -6.867378e+00 2.647614e+00 -7.075148e+00 1.385436e+00 -7.504803e+00 7.612654e-01 -8.105487e+00 4.680596e-01 -8.795877e+00 5.087280e-01 -9.495275e+00 6.318881e-01 -1.015466e+01 7.189871e-01 -1.036324e+01 1.765117e-01 -1.011639e+01 -1.323586e-01 -1.022954e+01 -1.737303e-01 -1.029670e+01 -4.697357e-01 -1.019475e+01 -6.558184e-01 -1.013020e+01 -8.307081e-01 -9.985970e+00 -1.118313e+00 -9.693627e+00 -1.492126e+00 -9.383838e+00 -1.872073e+00 -8.987738e+00 -2.188615e+00 -8.480229e+00 -2.624715e+00 -8.122401e+00 -2.834852e+00 -7.712259e+00 -3.287629e+00 -6.800154e+00 -3.907700e+00 -6.316970e+00 -3.471992e+00 -6.859601e+00 -2.465437e+00 -7.194165e+00 -2.113803e+00 -6.522593e+00 -2.579024e+00 -4.970664e+00 -3.922848e+00 -2.133456e+00 -6.509579e+00 5.019869e+00 -1.570454e+01 
-4.500741e-01 1.100129e+01 -8.605416e+00 6.411393e+00 -8.395230e-01 4.573697e+00 -3.201630e+00 3.110730e+00 -2.902566e+00 1.571403e+00 -2.472763e+00 5.109977e-01 -2.356926e+00 -1.677962e-02 -2.502236e+00 -2.436155e-01 -2.833129e+00 -1.797982e-01 -3.258754e+00 -2.830025e-02 -3.692593e+00 7.941587e-02 -3.811567e+00 -2.437270e-01 -3.647552e+00 -4.053690e-01 -3.730820e+00 -4.050434e-01 -3.794849e+00 -5.513643e-01 -3.762350e+00 -6.345520e-01 -3.769168e+00 -6.912042e-01 -3.745334e+00 -8.106581e-01 -3.649202e+00 -9.594159e-01 -3.562212e+00 -1.101795e+00 -3.448880e+00 -1.180558e+00 -3.273485e+00 -1.344907e+00 -3.192510e+00 -1.367002e+00 -3.061227e+00 -1.605561e+00 -2.555773e+00 -1.960225e+00 -2.375551e+00 -1.573965e+00 -2.926389e+00 -7.813228e-01 -3.351085e+00 -4.721574e-01 -3.034920e+00 -8.325813e-01 -2.028416e+00 -1.904364e+00 -1.104179e-01 -3.830273e+00 4.354561e+00 -9.294336e+00 
-2.219203e-02 5.824261e-02 -5.561868e-02 -2.837081e-04 -9.816231e+00 -4.339369e-02 -1.138061e-04 2.744807e-03 -8.511261e-03 1.002465e-03 -9.658453e-03 1.013823e-04 -1.069829e-02 -7.320306e-04 -1.245023e-02 -1.027137e-03 -1.396515e-02 -9.428069e-04 -1.493793e-02 -9.164572e-04 -1.532737e-02 -1.474683e-03 -1.503614e-02 -2.252432e-03 -1.460141e-02 -2.694214e-03 -1.410523e-02 -3.191433e-03 -1.370988e-02 -3.723280e-03 -1.318301e-02 -4.069814e-03 -1.256781e-02 -4.408056e-03 -1.191754e-02 -4.882727e-03 -1.150756e-02 -5.073582e-03 -1.094181e-02 -5.279243e-03 -1.046424e-02 -5.371908e-03 -9.950991e-03 -5.510794e-03 -9.608264e-03 -5.395142e-03 -9.262868e-03 -4.829539e-03 -8.562205e-03 -4.812712e-03 -7.463991e-03 -5.732193e-03 -7.209572e-03 -5.203005e-03 -8.173491e-03 -2.298446e-03 -9.375646e-03 7.361797e-04 -8.625219e-03 9.119616e-04 -4.362168e-03 -8.351818e-03 2.755300e-02 -1.717416e-02 
-5.722007e-03 -3.530528e-02 -2.334611e-02 1.055438e-01 -8.747198e+00 -1.820066e-01 8.810900e-03 -3.203623e-03 5.918760e-03 -1.980108e-03 3.354011e-03 -1.359860e-03 1.958603e-03 -9.600005e-04 1.220609e-03 -6.258322e-04 7.205151e-04 -3.985985e-04 5.193372e-04 -1.747400e-04 5.439989e-04 -4.648284e-05 4.162538e-04 -8.228043e-05 1.393399e-04 -9.179832e-05 1.374247e-04 -6.234185e-05 1.563186e-04 -5.026427e-05 8.368276e-05 -1.600904e-05 7.761802e-06 -5.314559e-06 1.833641e-05 -4.386253e-05 1.583997e-05 8.316149e-06 -2.568629e-05 1.716389e-07 -6.354804e-05 2.253436e-05 -6.149040e-05 -9.083043e-06 -1.441070e-04 -2.860080e-05 -1.620247e-04 1.086437e-04 1.224041e-06 3.240856e-04 -7.133642e-05 1.736004e-04 -5.301290e-04 -1.685935e-04 -1.010721e-03 -2.181276e-04 -1.289127e-03 1.608366e-04 -1.841875e-03 7.669771e-04 -3.105345e-03 3.875852e-03 4.818847e-03 2.897725e-02 
-1.270406e-02 -1.557304e-02 -2.147669e-02 3.527816e-01 -1.297442e+01 -4.679924e-01 1.093408e-02 -1.965509e-03 8.088061e-03 -1.611788e-03 4.518606e-03 -1.270633e-03 2.476367e-03 -1.049166e-03 1.334365e-03 -8.629929e-04 6.948959e-04 -6.661246e-04 4.554629e-04 -4.312909e-04 4.493242e-04 -2.637251e-04 3.662284e-04 -1.854358e-04 2.056714e-04 -1.471236e-04 1.619878e-04 -1.057811e-04 1.543542e-04 -7.963327e-05 9.875054e-05 -3.674046e-05 4.752049e-05 -1.985700e-05 3.854926e-05 -1.326791e-05 3.064354e-05 1.540817e-05 -2.372906e-06 3.666275e-05 -3.107592e-05 5.462885e-05 -4.429581e-05 6.720768e-05 -8.300393e-05 9.506004e-05 -7.650409e-05 1.938755e-04 -2.830762e-05 2.596621e-04 -1.675031e-04 1.599022e-04 -5.377387e-04 5.400528e-05 -8.226553e-04 2.296560e-04 -8.510417e-04 6.739063e-04 -1.027717e-03 1.045393e-03 -1.856516e-03 2.528901e-03 1.013292e-03 1.544706e-02 
-4.185140e-03 -5.853083e-03 -8.764726e-03 2.656694e-01 -1.185335e+01 -3.696906e-01 2.532262e-03 -1.944033e-03 4.317128e-03 -2.101632e-03 2.979067e-03 -1.677958e-03 1.956899e-03 -1.228875e-03 1.301778e-03 -8.627963e-04 9.004620e-04 -6.313343e-04 6.536815e-04 -4.009079e-04 5.333476e-04 -2.924604e-04 3.897086e-04 -1.994963e-04 2.496465e-04 -1.799980e-04 1.823445e-04 -1.054173e-04 1.532020e-04 -9.760945e-05 1.010607e-04 -3.134149e-05 5.999997e-05 -3.648857e-05 3.880330e-05 6.385266e-06 2.250893e-05 8.327543e-06 -7.446394e-06 6.021309e-05 -3.662943e-05 5.703894e-05 -5.989110e-05 1.043165e-04 -1.007327e-04 1.059459e-04 -1.158061e-04 2.045585e-04 -1.026161e-04 2.501149e-04 -1.781930e-04 2.588270e-04 -4.545774e-04 2.387008e-04 -8.223278e-04 3.341103e-04 -1.217336e-03 6.776823e-04 -1.630880e-03 1.543504e-03 -1.508143e-03 3.981858e-03 9.335525e-04 7.283668e-03 
-6.065508e-03 -2.017781e-03 -8.585092e-03 2.841063e-01 -1.449257e+01 -4.096793e-01 2.975461e-03 -1.629122e-03 5.269789e-03 -1.676288e-03 3.608572e-03 -1.423684e-03 2.250572e-03 -1.159256e-03 1.356748e-03 -9.527852e-04 8.775859e-04 -8.010717e-04 5.602068e-04 -5.690044e-04 4.501229e-04 -4.470281e-04 3.135963e-04 -2.928627e-04 2.325610e-04 -2.537859e-04 1.535421e-04 -1.480825e-04 1.343275e-04 -1.412887e-04 8.058994e-05 -5.116515e-05 5.840741e-05 -6.017000e-05 2.951675e-05 1.384679e-05 1.882568e-05 4.510307e-06 -8.896678e-06 8.297377e-05 -3.195654e-05 7.575227e-05 -5.187762e-05 1.571850e-04 -8.217608e-05 1.631712e-04 -8.665923e-05 2.613574e-04 -1.095460e-04 2.549465e-04 -1.695886e-04 2.916614e-04 -3.831870e-04 3.837087e-04 -6.185416e-04 5.984967e-04 -8.347734e-04 9.582664e-04 -1.155399e-03 1.520950e-03 -1.591560e-03 2.792767e-03 -1.742649e-03 4.797194e-03 
-1.421391e-03 -2.131984e-05 -1.816197e-03 2.085363e-01 -1.337963e+01 -3.246861e-01 -1.857906e-03 -1.518054e-03 2.023024e-03 -1.905563e-03 1.830313e-03 -1.685559e-03 1.366005e-03 -1.290889e-03 9.604835e-04 -9.409681e-04 8.190397e-04 -8.917978e-04 5.782168e-04 -5.281091e-04 4.894441e-04 -5.311698e-04 3.197430e-04 -2.454930e-04 2.543860e-04 -3.347546e-04 1.549670e-04 -8.960117e-05 1.388891e-04 -2.146502e-04 7.722299e-05 1.358923e-05 6.297268e-05 -1.297744e-04 2.671793e-05 8.613880e-05 1.445456e-05 -5.756555e-05 -1.394599e-05 1.616072e-04 -4.225933e-05 2.584942e-05 -6.475885e-05 2.501153e-04 -1.100067e-04 1.309713e-04 -1.127392e-04 3.538577e-04 -1.343961e-04 1.903149e-04 -1.104247e-04 3.188767e-04 -3.335300e-04 4.770199e-04 -6.131238e-04 6.884016e-04 -8.792347e-04 1.069698e-03 -1.033243e-03 1.792201e-03 -8.047307e-04 2.949622e-03 -1.601047e-04 3.370044e-03 
-2.258598e-03 1.145123e-03 -2.150817e-03 2.075597e-01 -1.507627e+01 -3.368175e-01 -1.740543e-03 -1.752343e-03 2.429799e-03 -1.725495e-03 2.129632e-03 -1.461780e-03 1.473329e-03 -1.143848e-03 9.104609e-04 -9.683666e-04 9.075082e-04 -1.035324e-03 4.567870e-04 -6.024948e-04 4.909753e-04 -6.659131e-04 2.119176e-04 -2.809594e-04 2.672504e-04 -4.317487e-04 8.917015e-05 -8.999470e-05 1.516163e-04 -2.887559e-04 3.532967e-05 3.425762e-05 7.605883e-05 -1.863169e-04 5.671941e-06 1.259984e-04 2.069549e-05 -9.679494e-05 -1.659463e-05 2.164502e-04 -4.228731e-05 6.696160e-06 -4.799862e-05 3.258294e-04 -1.194066e-04 1.403254e-04 -7.595733e-05 4.467704e-04 -1.608129e-04 2.024864e-04 -3.006818e-06 3.390010e-04 -2.131131e-04 5.619560e-04 -4.429520e-04 8.279146e-04 -6.473166e-04 1.178190e-03 -8.670272e-04 1.673781e-03 -1.095517e-03 2.361871e-03 -1.342536e-03 2.759645e-03 
6.281221e-04 1.504615e-03 1.413721e-03 1.528563e-01 -1.396567e+01 -2.727192e-01 -4.499287e-03 -1.669120e-03 5.664287e-05 -1.835862e-03 5.645100e-04 -1.626406e-03 5.090785e-04 -1.180119e-03 2.024281e-04 -6.716935e-04 7.948533e-04 -1.492510e-03 3.283551e-04 -2.878112e-04 5.245626e-04 -1.072364e-03 1.475065e-04 9.160383e-05 2.970520e-04 -8.333237e-04 5.071532e-05 3.029201e-04 1.692200e-04 -6.922559e-04 1.378554e-05 4.358133e-04 8.406605e-05 -5.894653e-04 -1.623340e-06 5.317903e-04 1.557658e-05 -4.934630e-04 -1.269063e-05 6.250476e-04 -6.348401e-05 -3.721885e-04 -4.035868e-05 7.504883e-04 -1.765408e-04 -1.895777e-04 -8.507169e-05 9.099204e-04 -2.280617e-04 -1.820128e-04 2.367870e-04 3.164412e-04 -1.441652e-04 6.510278e-04 -3.835030e-04 9.199205e-04 -5.000273e-04 1.272221e-03 -4.691200e-04 1.782962e-03 -1.933221e-04 2.358424e-03 2.881703e-04 2.463553e-03 
1.349863e-04 2.022649e-03 1.042910e-03 1.483911e-01 -1.502768e+01 -2.760639e-01 -4.348742e-03 -2.021578e-03 2.901238e-04 -1.835405e-03 7.374344e-04 -1.463301e-03 4.751887e-04 -8.781423e-04 -2.435832e-04 -6.739057e-04 1.410930e-03 -1.814808e-03 -1.351906e-04 -1.228124e-04 8.682488e-04 -1.357046e-03 -2.232610e-04 2.868335e-04 5.422041e-04 -1.118107e-03 -2.079437e-04 5.240587e-04 3.423137e-04 -9.700179e-04 -1.532442e-04 6.762001e-04 1.919574e-04 -8.562456e-04 -8.643794e-05 7.858686e-04 5.639416e-05 -7.451570e-04 -1.624276e-05 8.866935e-04 -9.626527e-05 -6.029098e-04 4.193961e-05 1.018591e-03 -3.050289e-04 -3.806695e-04 7.937414e-05 1.216159e-03 -4.994903e-04 -2.546798e-04 6.054969e-04 2.528773e-04 -1.078549e-05 6.923592e-04 -2.936907e-04 9.961893e-04 -4.061190e-04 1.308893e-03 -4.530643e-04 1.689921e-03 -4.284895e-04 2.103858e-03 -2.737594e-04 2.317711e-03 
1.958269e-03 1.995381e-03 3.044380e-03 1.081451e-01 -1.390734e+01 -2.264517e-01 -5.887587e-03 -1.952450e-03 -1.297556e-03 -1.923073e-03 -3.968768e-04 -1.679204e-03 -2.492887e-04 -9.873756e-04 -1.708567e-03 1.569291e-03 2.137226e-03 -3.818935e-03 -5.657140e-04 2.404035e-03 1.434514e-03 -3.304859e-03 -5.293386e-04 2.912962e-03 1.035270e-03 -3.171793e-03 -3.870064e-04 3.169204e-03 7.712690e-04 -3.105231e-03 -2.381983e-04 3.313103e-03 5.592228e-04 -3.040834e-03 -9.289074e-05 3.391927e-03 3.616192e-04 -2.954307e-03 5.236233e-05 3.440513e-03 1.407042e-04 -2.814055e-03 1.839185e-04 3.520292e-03 -1.817810e-04 -2.522996e-03 2.061872e-04 3.847113e-03 -6.824658e-04 -2.236405e-03 1.568636e-03 4.311750e-04 -8.599318e-05 9.035372e-04 -2.655414e-04 1.108707e-03 -1.941842e-04 1.371631e-03 6.226270e-06 1.722073e-03 3.947280e-04 2.071563e-03 1.019670e-03 2.205211e-03 
1.604201e-03 2.270722e-03 2.716796e-03 1.027284e-01 -1.450620e+01 -2.250949e-01 -5.615901e-03 -2.278514e-03 -1.039266e-03 -2.081589e-03 -9.614115e-05 -1.708816e-03 -9.172486e-05 -1.303232e-04 -3.977678e-03 8.114408e-02 1.607882e-01 8.141684e-02 -2.815909e-03 8.299563e-02 1.614324e-01 8.179093e-02 -2.075523e-03 8.484329e-02 1.653062e-01 8.330976e-02 -1.338386e-03 8.595172e-02 1.679535e-01 8.423427e-02 -6.950150e-04 8.627335e-02 1.690994e-01 8.444789e-02 -1.031125e-04 8.580037e-02 1.687263e-01 8.392198e-02 4.881834e-04 8.450482e-02 1.667766e-01 8.262123e-02 1.105253e-03 8.247449e-02 1.633146e-01 8.067367e-02 1.646210e-03 8.126519e-02 1.606918e-01 7.983831e-02 3.479244e-03 2.050580e-04 -1.822919e-04 1.012221e-03 -3.509569e-04 1.199926e-03 -2.197108e-04 1.397003e-03 -4.796966e-05 1.666456e-03 2.162620e-04 1.961533e-03 6.945648e-04 2.182147e-03 
2.736974e-03 2.144358e-03 3.882945e-03 7.076687e-02 -1.336992e+01 -1.837355e-01 -6.407597e-03 -2.181259e-03 -2.050623e-03 -2.158606e-03 -7.104819e-04 -2.248846e-03 7.244254e-04 -2.588142e-03 -4.154771e-03 1.530072e+00 3.228331e+00 1.706146e+00 4.463112e-03 1.584313e+00 3.328566e+00 1.757580e+00 5.508686e-03 1.648528e+00 3.462421e+00 1.826546e+00 6.785188e-03 1.693060e+00 3.555809e+00 1.874671e+00 7.826181e-03 1.718217e+00 3.608934e+00 1.901867e+00 8.697255e-03 1.725898e+00 3.625774e+00 1.910143e+00 9.476491e-03 1.717491e+00 3.609358e+00 1.901091e+00 1.021064e-02 1.696480e+00 3.567265e+00 1.878965e+00 1.054817e-02 1.696482e+00 3.569060e+00 1.885303e+00 1.236217e-02 2.942736e-03 -1.693472e-03 1.507521e-03 -4.458839e-04 1.291366e-03 1.623082e-05 1.404786e-03 3.888311e-04 1.642050e-03 8.862451e-04 1.899305e-03 1.623955e-03 2.077978e-03 
2.435206e-03 2.274314e-03 3.583139e-03 6.457902e-02 -1.361367e+01 -1.787647e-01 -6.039858e-03 -2.408849e-03 -1.752520e-03 -2.499766e-03 -3.679066e-05 -3.510052e-03 3.215225e-03 -8.221627e-03 5.385517e-03 2.111391e+00 4.466085e+00 2.351897e+00 1.870224e-02 2.195295e+00 4.625632e+00 2.433690e+00 1.685035e-02 2.293657e+00 4.824943e+00 2.537719e+00 1.582999e-02 2.362513e+00 4.964599e+00 2.610942e+00 1.492385e-02 2.402913e+00 5.046007e+00 2.653921e+00 1.399061e-02 2.418141e+00 5.075717e+00 2.670113e+00 1.292339e-02 2.410735e+00 5.058920e+00 2.662370e+00 1.159339e-02 2.386171e+00 5.007322e+00 2.637321e+00 9.436288e-03 2.392116e+00 5.021583e+00 2.653473e+00 9.585474e-03 6.380942e-03 -3.306600e-03 2.233925e-03 -7.850904e-04 1.445451e-03 -5.722359e-05 1.410718e-03 3.234977e-04 1.589339e-03 7.448351e-04 1.829652e-03 1.387802e-03 2.063242e-03 
3.107513e-03 2.112732e-03 4.249456e-03 3.840209e-02 -1.246331e+01 -1.431243e-01 -6.401861e-03 -2.185567e-03 -2.564443e-03 -2.194260e-03 -1.207593e-03 -2.656264e-03 3.141098e-04 -4.549969e-03 5.798487e-03 -7.979556e-01 -1.671961e+00 -8.861203e-01 6.476869e-03 -8.221346e-01 -1.709498e+00 -9.044089e-01 3.834877e-03 -8.494312e-01 -1.768854e+00 -9.332098e-01 1.318773e-03 -8.678582e-01 -1.809856e+00 -9.528824e-01 -8.122992e-04 -8.772308e-01 -1.831801e+00 -9.628904e-01 -2.725880e-03 -8.780775e-01 -1.836012e+00 -9.637708e-01 -4.607826e-03 -8.706800e-01 -1.823369e+00 -9.558726e-01 -6.630572e-03 -8.563884e-01 -1.797036e+00 -9.409561e-01 -8.753382e-03 -8.520145e-01 -1.790968e+00 -9.418486e-01 -6.846706e-03 1.320383e-03 -8.446152e-05 1.195046e-03 1.077800e-04 1.165605e-03 3.764897e-04 1.296078e-03 7.371293e-04 1.504051e-03 1.256362e-03 1.732408e-03 2.013056e-03 1.937874e-03 
2.816685e-03 2.131532e-03 3.949521e-03 3.231079e-02 -1.242735e+01 -1.360038e-01 -6.050237e-03 -2.089537e-03 -2.624665e-03 -1.702292e-03 -1.990169e-03 -8.507008e-04 -3.253175e-03 2.348693e-03 -1.042153e-03 -2.188723e+00 -4.628349e+00 -2.443351e+00 -1.298514e-02 -2.273761e+00 -4.786129e+00 -2.524140e+00 -1.243710e-02 -2.372479e+00 -4.988256e+00 -2.628457e+00 -1.281755e-02 -2.441275e+00 -5.129800e+00 -2.701655e+00 -1.314571e-02 -2.481104e+00 -5.211773e+00 -2.744072e+00 -1.335336e-02 -2.495137e+00 -5.240626e+00 -2.759025e+00 -1.343280e-02 -2.485771e+00 -5.221433e+00 -2.749224e+00 -1.334212e-02 -2.458440e+00 -5.165923e+00 -2.721302e+00 -1.242046e-02 -2.462267e+00 -5.176495e+00 -2.735920e+00 -1.261371e-02 -3.482338e-03 2.926449e-03 -3.673456e-05 8.445613e-04 8.024932e-04 5.582310e-04 1.147405e-03 7.324601e-04 1.405042e-03 1.142286e-03 1.651366e-03 1.806207e-03 1.892090e-03 
3.176197e-03 1.951289e-03 4.279660e-03 1.412516e-02 -1.127177e+01 -1.083719e-01 -6.108712e-03 -1.847618e-03 -3.064821e-03 -1.430824e-03 -2.407762e-03 -5.312428e-04 -2.920382e-03 2.322777e-03 -2.118484e-03 -7.368808e-01 -1.561374e+00 -8.191808e-01 -9.803100e-03 -7.682248e-01 -1.621863e+00 -8.512102e-01 -8.007528e-03 -8.052211e-01 -1.695457e+00 -8.901065e-01 -6.997773e-03 -8.312017e-01 -1.747333e+00 -9.176276e-01 -6.211339e-03 -8.467890e-01 -1.778133e+00 -9.341895e-01 -5.483768e-03 -8.533219e-01 -1.790411e+00 -9.411874e-01 -4.706089e-03 -8.518605e-01 -1.786245e+00 -9.398074e-01 -3.744976e-03 -8.445262e-01 -1.769922e+00 -9.326114e-01 -2.195917e-03 -8.484278e-01 -1.776795e+00 -9.391180e-01 -5.240998e-03 -2.264719e-03 1.703332e-03 -6.573890e-05 8.514865e-04 6.691570e-04 7.740745e-04 1.032013e-03 1.018506e-03 1.297118e-03 1.486296e-03 1.532509e-03 2.188475e-03 1.748700e-03 
2.875859e-03 1.900110e-03 3.954595e-03 1.027210e-02 -1.101292e+01 -1.017740e-01 -5.661976e-03 -1.766421e-03 -2.889641e-03 -1.335731e-03 -2.220066e-03 -7.396340e-04 -1.908604e-03 -3.848692e-05 -4.105897e-04 -4.917822e-03 -1.692056e-03 4.083528e-03 -2.705393e-03 -4.641439e-03 -2.264030e-03 3.672051e-03 -1.767225e-03 -5.317590e-03 -2.713353e-03 3.359912e-03 -1.201282e-03 -5.783233e-03 -3.154842e-03 3.114497e-03 -7.886729e-04 -6.116128e-03 -3.511078e-03 2.881412e-03 -4.322560e-04 -6.361693e-03 -3.790056e-03 2.631707e-03 -7.044729e-05 -6.560064e-03 -4.003469e-03 2.328203e-03 3.791002e-04 -6.785605e-03 -4.091429e-03 1.882159e-03 1.106092e-03 -7.180564e-03 -4.121918e-03 2.125911e-03 -1.123285e-03 -1.561213e-04 7.801032e-04 1.717637e-04 7.611199e-04 6.150873e-04 7.602980e-04 9.407331e-04 9.558206e-04 1.203708e-03 1.351701e-03 1.443250e-03 1.974140e-03 1.673471e-03 
3.015974e-03 1.715736e-03 4.038991e-03 -4.228915e-04 -9.860075e+00 -8.171196e-02 -5.501943e-03 -1.588814e-03 -3.023157e-03 -1.237543e-03 -2.316133e-03 -8.507996e-04 -1.801436e-03 -7.324049e-04 -5.264099e-04 -3.151833e-03 5.023715e-04 1.058696e-03 -1.292976e-03 -2.396513e-03 3.290884e-04 1.418688e-03 -8.132011e-04 -2.286941e-03 3.523195e-04 1.626483e-03 -5.107976e-04 -2.189314e-03 2.903626e-04 1.788340e-03 -3.154965e-04 -2.096588e-03 1.995196e-04 1.907208e-03 -1.614320e-04 -2.006911e-03 1.024197e-04 1.994466e-03 -6.879911e-06 -1.916731e-03 1.416592e-05 2.053241e-03 1.976090e-04 -1.839389e-03 -3.180075e-05 2.073428e-03 4.975152e-04 -1.728203e-03 -2.857994e-04 2.609141e-03 -5.367893e-04 3.647699e-04 5.710713e-04 3.300923e-04 7.260607e-04 6.026369e-04 8.531951e-04 8.677584e-04 1.114291e-03 1.103178e-03 1.543002e-03 1.319743e-03 2.165627e-03 1.523096e-03 
2.697346e-03 1.624296e-03 3.674822e-03 -1.726207e-03 -9.420339e+00 -7.630876e-02 -4.982312e-03 -1.520713e-03 -2.719414e-03 -1.217262e-03 -2.008226e-03 -9.680120e-04 -1.392699e-03 -9.916644e-04 -5.171920e-04 -1.888301e-03 3.618575e-05 -8.861839e-05 -7.217971e-04 -1.224074e-03 -1.498856e-05 2.366520e-04 -4.413795e-04 -1.050951e-03 7.645411e-05 4.033325e-04 -2.542913e-04 -9.246594e-04 9.210835e-05 5.346364e-04 -1.439312e-04 -8.190109e-04 7.374435e-05 6.387481e-04 -6.333864e-05 -7.274687e-04 4.698352e-05 7.246115e-04 1.824500e-05 -6.440274e-04 3.115880e-05 7.965883e-04 1.346101e-04 -5.693667e-04 4.667286e-05 8.703406e-04 2.728289e-04 -4.016627e-04 -1.579287e-04 1.381684e-03 -2.678008e-04 5.726257e-04 3.415589e-04 4.525577e-04 5.859897e-04 6.043783e-04 7.526858e-04 8.120711e-04 9.951206e-04 1.021877e-03 1.374152e-03 1.226976e-03 1.928895e-03 1.427965e-03 
2.679389e-03 1.442916e-03 3.576818e-03 -7.014464e-03 -8.276710e+00 -6.176060e-02 -4.681243e-03 -1.370990e-03 -2.671993e-03 -1.130788e-03 -1.993936e-03 -9.542848e-04 -1.400196e-03 -9.690485e-04 -7.115029e-04 -1.327053e-03 -3.332617e-04 -4.083396e-04 -5.316872e-04 -8.553952e-04 -2.062110e-04 -1.056904e-04 -3.051818e-04 -6.657203e-04 -7.087706e-05 5.868328e-05 -1.594501e-04 -5.388106e-04 -9.981970e-06 1.798516e-04 -7.956263e-05 -4.387767e-04 1.150066e-05 2.748979e-04 -2.816955e-05 -3.542387e-04 2.032507e-05 3.549227e-04 2.045039e-05 -2.761335e-04 3.596401e-05 4.288932e-04 8.874109e-05 -1.942523e-04 6.974563e-05 5.251799e-04 1.582290e-04 -2.054030e-05 -1.155364e-05 8.918090e-04 -3.138830e-05 5.494114e-04 3.499212e-04 4.785728e-04 5.807963e-04 5.860199e-04 7.847024e-04 7.506445e-04 1.055899e-03 9.274859e-04 1.442058e-03 1.104226e-03 1.974326e-03 1.276982e-03 
2.341891e-03 1.326486e-03 3.173587e-03 -6.522136e-03 -7.687745e+00 -5.704895e-02 -4.126031e-03 -1.284095e-03 -2.325995e-03 -1.076389e-03 -1.702343e-03 -9.302050e-04 -1.171048e-03 -9.008634e-04 -6.647303e-04 -9.812703e-04 -3.624281e-04 -5.569404e-04 -3.923903e-04 -6.131547e-04 -2.096108e-04 -2.919805e-04 -2.191400e-04 -4.261932e-04 -9.032970e-05 -1.419809e-04 -1.089441e-04 -3.029935e-04 -3.028073e-05 -3.302928e-05 -4.950876e-05 -2.080009e-04 -3.369294e-06 5.368178e-05 -1.283306e-05 -1.284479e-04 1.243898e-05 1.291681e-04 2.103596e-05 -5.432719e-05 3.277984e-05 2.041471e-04 6.667361e-05 2.913333e-05 6.130219e-05 3.099661e-04 1.016480e-04 1.946008e-04 1.419098e-05 5.855073e-04 4.172954e-05 4.998167e-04 2.725252e-04 4.810364e-04 4.692279e-04 5.635473e-04 6.602128e-04 6.959478e-04 9.047003e-04 8.476072e-04 1.245525e-03 1.006482e-03 1.715239e-03 1.167535e-03 
2.208848e-03 1.148626e-03 2.944598e-03 -8.614711e-03 -6.559702e+00 -4.583153e-02 -3.728401e-03 -1.137364e-03 -2.165469e-03 -9.700560e-04 -1.612785e-03 -8.422502e-04 -1.160240e-03 -7.643674e-04 -7.722862e-04 -7.244154e-04 -4.641937e-04 -5.860611e-04 -3.764953e-04 -4.791761e-04 -2.367315e-04 -3.614575e-04 -2.006533e-04 -3.004520e-04 -1.140514e-04 -2.176164e-04 -9.921766e-05 -1.832266e-04 -4.860702e-05 -1.174441e-04 -4.362044e-05 -9.666822e-05 -1.523626e-05 -3.945766e-05 -1.038769e-05 -2.503500e-05 5.371042e-06 2.954042e-05 1.718012e-05 4.427007e-05 2.595628e-05 1.037114e-04 4.902616e-05 1.300132e-04 4.993385e-05 2.110640e-04 8.147347e-05 2.705912e-04 7.320924e-05 3.785405e-04 1.655700e-04 4.046525e-04 3.039450e-04 4.456571e-04 4.598355e-04 5.242366e-04 6.473166e-04 6.305436e-04 8.921871e-04 7.528532e-04 1.219428e-03 8.834032e-04 1.651610e-03 1.016918e-03 
1.857242e-03 1.013818e-03 2.512310e-03 -7.301448e-03 -5.846412e+00 -4.102832e-02 -3.153823e-03 -1.025193e-03 -1.804085e-03 -8.799531e-04 -1.330630e-03 -7.552485e-04 -9.712188e-04 -6.395493e-04 -7.004148e-04 -5.464651e-04 -3.794058e-04 -5.774633e-04 -3.069352e-04 -3.685450e-04 -1.747164e-04 -3.848110e-04 -1.623879e-04 -2.070811e-04 -8.332542e-05 -2.555516e-04 -8.204795e-05 -1.015115e-04 -3.492153e-05 -1.666416e-04 -3.615362e-05 -2.443890e-05 -1.036827e-05 -9.728368e-05 -7.791320e-06 3.965026e-05 3.862524e-06 -3.466516e-05 1.483982e-05 1.033376e-04 1.543936e-05 3.570685e-05 3.654030e-05 1.856541e-04 2.395907e-05 1.380881e-04 5.907662e-05 3.066696e-04 5.785412e-05 2.427652e-04 1.951399e-04 3.246286e-04 2.552098e-04 4.026071e-04 3.595051e-04 4.788907e-04 5.145587e-04 5.663956e-04 7.251125e-04 6.670091e-04 1.006148e-03 7.778475e-04 1.377054e-03 8.949996e-04 
1.640768e-03 8.372974e-04 2.195360e-03 -8.070393e-03 -4.741104e+00 -3.130907e-02 -2.678880e-03 -8.756879e-04 -1.559755e-03 -7.692736e-04 -1.159012e-03 -6.636326e-04 -8.915383e-04 -4.899442e-04 -8.043531e-04 -1.916305e-04 -3.781876e-04 -7.439905e-04 -2.746674e-04 -1.097767e-04 -1.579492e-04 -5.705371e-04 -1.481983e-04 4.803886e-05 -8.257836e-05 -4.515954e-04 -7.653789e-05 1.457382e-04 -3.948546e-05 -3.744101e-04 -3.248640e-05 2.132819e-04 -1.668557e-05 -3.151731e-04 -4.606468e-06 2.682998e-04 -4.360483e-06 -2.600299e-04 1.600177e-05 3.251400e-04 1.850884e-06 -1.920409e-04 2.978089e-05 4.076028e-04 -3.182207e-06 -8.406389e-05 4.149567e-05 5.232408e-04 5.980801e-05 -7.103455e-05 3.446523e-04 2.284649e-04 2.540811e-04 3.711319e-04 3.118431e-04 4.368195e-04 4.572401e-04 4.963460e-04 6.564564e-04 5.681283e-04 9.110023e-04 6.518551e-04 1.234133e-03 7.431932e-04 
1.282841e-03 6.867650e-04 1.748941e-03 -6.835776e-03 -3.923906e+00 -2.566925e-02 -2.089245e-03 -7.433134e-04 -1.188203e-03 -6.647123e-04 -8.627897e-04 -5.704199e-04 -6.906547e-04 -3.557218e-04 -7.942189e-04 5.672398e-05 -2.170917e-04 -8.397450e-04 -2.324967e-04 1.025564e-04 -5.555391e-05 -6.798992e-04 -1.363127e-04 2.414505e-04 -2.606778e-05 -5.760684e-04 -7.650241e-05 3.229247e-04 -1.043043e-05 -5.106566e-04 -3.407020e-05 3.777679e-04 -5.659787e-06 -4.606468e-04 -3.761818e-06 4.226894e-04 -8.261977e-06 -4.133381e-04 1.937896e-05 4.711893e-04 -1.956395e-05 -3.523474e-04 3.107979e-05 5.470842e-04 -5.185808e-05 -2.501550e-04 3.294123e-05 6.566450e-04 -7.543987e-06 -2.718428e-04 4.343255e-04 1.540454e-04 1.931967e-04 3.291224e-04 1.997206e-04 3.847376e-04 3.175804e-04 4.233629e-04 4.839440e-04 4.731906e-04 6.922675e-04 5.363285e-04 9.537807e-04 6.090371e-04 
1.006852e-03 5.093814e-04 1.378819e-03 -7.789503e-03 -2.849765e+00 -1.598895e-02 -1.549857e-03 -5.861613e-04 -8.812190e-04 -5.667711e-04 -5.856334e-04 -5.616658e-04 -4.297103e-04 -3.678003e-04 -1.150438e-03 1.354325e-03 5.252548e-05 -1.993285e-03 -8.786058e-05 1.452212e-03 1.095558e-04 -1.775787e-03 -7.631805e-05 1.614046e-03 1.158896e-04 -1.695496e-03 -3.056884e-05 1.692622e-03 1.299700e-04 -1.651180e-03 7.621927e-06 1.739462e-03 1.350786e-04 -1.615306e-03 3.615583e-05 1.772483e-03 1.316253e-04 -1.577224e-03 5.795822e-05 1.805948e-03 1.158637e-04 -1.521102e-03 6.322229e-05 1.873355e-03 5.835508e-05 -1.397864e-03 9.254322e-07 2.067780e-03 -2.541392e-07 -1.383912e-03 8.996779e-04 2.290769e-04 4.314312e-05 3.815486e-04 7.569510e-05 3.557283e-04 2.203942e-04 3.466367e-04 3.771109e-04 3.660795e-04 5.504315e-04 4.045785e-04 7.557948e-04 4.541638e-04 
6.519808e-04 3.445438e-04 9.343155e-04 -7.402730e-03 -1.946027e+00 -8.869376e-03 -9.529447e-04 -4.321796e-04 -5.119078e-04 -4.581195e-04 -2.565777e-04 -5.249261e-04 -9.954116e-05 -4.026454e-04 -1.325131e-03 3.666562e-02 7.445261e-02 3.720343e-02 1.967559e-04 3.821726e-02 7.693875e-02 3.862751e-02 1.533793e-04 4.002138e-02 8.020168e-02 4.030789e-02 1.981520e-04 4.124742e-02 8.252378e-02 4.148135e-02 2.442289e-04 4.196074e-02 8.388449e-02 4.217568e-02 2.824281e-04 4.222788e-02 8.438117e-02 4.244929e-02 3.129707e-04 4.209891e-02 8.408469e-02 4.235564e-02 3.210588e-04 4.168914e-02 8.312700e-02 4.204377e-02 2.187453e-04 4.187424e-02 8.303173e-02 4.225196e-02 1.433415e-03 3.257936e-04 -1.424383e-04 3.889204e-04 -7.040792e-05 3.035543e-04 8.132491e-05 2.618215e-04 2.124211e-04 2.587480e-04 3.390317e-04 2.775025e-04 4.808279e-04 3.080040e-04 
3.349423e-04 1.657828e-04 5.357411e-04 -9.511135e-03 -9.134111e-01 1.682495e-03 -3.759586e-04 -2.430726e-04 -1.980662e-04 -3.314240e-04 1.023963e-04 -6.630227e-04 9.654053e-04 -1.886713e-03 -1.260173e-03 7.446834e-01 1.601549e+00 8.584400e-01 5.211705e-03 7.758696e-01 1.655807e+00 8.844780e-01 4.933691e-03 8.112161e-01 1.725571e+00 9.191908e-01 4.999440e-03 8.358562e-01 1.774444e+00 9.435604e-01 5.056633e-03 8.501172e-01 1.802742e+00 9.576781e-01 5.084778e-03 8.551126e-01 1.812669e+00 9.626546e-01 5.080710e-03 8.516810e-01 1.805952e+00 9.594020e-01 5.026435e-03 8.416946e-01 1.786599e+00 9.502095e-01 4.688516e-03 8.421543e-01 1.789914e+00 9.560377e-01 6.265646e-03 1.924219e-03 -1.114507e-03 5.742733e-04 -2.652600e-04 2.470337e-04 -1.326936e-05 1.574056e-04 9.570868e-05 1.359409e-04 1.719981e-04 1.379116e-04 2.475594e-04 1.496656e-04 
-6.540717e-06 -1.042773e-05 1.073193e-04 -1.047042e-02 6.142956e-02 1.067337e-02 2.072484e-04 -4.785095e-05 1.197264e-04 -1.596119e-04 3.795159e-04 -5.811936e-04 1.483600e-03 -2.360164e-03 -7.983723e-04 1.042897e+00 2.243597e+00 1.203396e+00 7.311868e-03 1.086714e+00 2.319225e+00 1.239283e+00 6.907765e-03 1.136029e+00 2.416469e+00 1.287447e+00 6.959483e-03 1.170358e+00 2.484484e+00 1.321208e+00 7.005643e-03 1.190152e+00 2.523731e+00 1.340681e+00 7.018913e-03 1.196959e+00 2.537287e+00 1.347404e+00 6.992790e-03 1.191940e+00 2.527562e+00 1.342639e+00 6.906882e-03 1.177701e+00 2.500201e+00 1.329587e+00 6.467351e-03 1.178007e+00 2.504877e+00 1.338066e+00 7.647105e-03 2.456268e-03 -1.553542e-03 5.503959e-04 -3.864661e-04 1.481344e-04 -1.127144e-04 4.472257e-05 -4.051740e-05 1.242511e-05 -1.838598e-05 -2.195462e-07 -1.051339e-05 -6.294683e-06 
-3.495007e-04 -1.876514e-04 -3.076716e-04 -1.346238e-02 1.039206e+00 2.173602e-02 7.802504e-04 2.079894e-04 3.025648e-04 2.272936e-04 1.127097e-04 3.951658e-04 -3.995580e-04 1.202919e-03 -3.972732e-04 -3.769264e-01 -8.088365e-01 -4.323303e-01 -2.970907e-03 -3.930422e-01 -8.370049e-01 -4.457442e-01 -2.772263e-03 -4.112794e-01 -8.727905e-01 -4.635278e-01 -2.696397e-03 -4.240559e-01 -8.979314e-01 -4.760702e-01 -2.620241e-03 -4.315336e-01 -9.126126e-01 -4.834218e-01 -2.536270e-03 -4.342865e-01 -9.179754e-01 -4.861555e-01 -2.439303e-03 -4.327518e-01 -9.149210e-01 -4.847441e-01 -2.321101e-03 -4.278882e-01 -9.055152e-01 -4.803526e-01 -2.104260e-03 -4.283485e-01 -9.078233e-01 -4.837273e-01 -2.046052e-03 -1.099383e-03 5.054401e-04 -2.957524e-04 5.594571e-05 -1.411013e-04 -7.434661e-05 -1.180968e-04 -1.385898e-04 -1.268122e-04 -1.968571e-04 -1.442932e-04 -2.652784e-04 -1.647608e-04 