# vtk DataFile Version 2.0
Comment goes here
ASCII

DATASET STRUCTURED_POINTS
FIELD FieldData 1
TIME 1 1 double
0.00300000
DIMENSIONS    64   64   1

ORIGIN    0.000   0.000   0.000
SPACING   0.03125 0.03125   1.000

POINT_DATA   4096
SCALARS Omega double
LOOKUP_TABLE default

-1.257256e-03 -1.814428e-04 1.203037e-03 -1.132616e-03 1.181840e-03 1.699553e-04 -3.179164e-03 1.827850e-03 -2.895568e-03 1.664326e-03 -1.648357e-03 1.157696e-03 -4.240529e-03 3.014224e-03 1.798690e-03 -8.865819e-03 1.512565e-02 -1.715544e-03 -4.069881e-03 -1.570634e-03 1.047284e-02 1.304891e-03 -7.445521e-03 4.284780e-03 1.575613e-03 9.579706e-05 -1.764325e-03 2.204156e-04 1.126946e-03 3.770517e-03 -2.631258e-03 -2.458078e-04 3.270064e-03 1.924219e-04 -3.005515e-04 8.452374e-04 5.015454e-04 1.941760e-03 9.809616e-05 8.820099e-04 6.482952e-04 -1.190979e-05 1.462317e-03 -3.123920e-03 1.275441e-03 3.657003e-03 -1.320165e-03 -3.585635e-03 3.644074e-03 -6.865132e-04 -1.358384e-03 1.988102e-03 -2.358345e-03 1.564417e-03 -6.533498e-04 -2.297654e-04 7.191515e-04 -1.287115e-03 9.329755e-06 1.718859e-04 3.988260e-04 1.344084e-03 -1.392490e-03 5.369014e-04 
-2.666773e+00 1.583959e+00 -4.299088e-01 1.188638e+00 -4.662167e-01 8.748068e-01 -8.183938e-01 1.582964e+00 -1.635285e+00 1.946402e+00 -1.653255e+00 1.342356e+00 -1.065478e+00 8.384589e-01 -7.481713e-01 4.092854e-01 -5.112485e-01 1.075490e-01 -3.930663e-01 -9.914435e-02 -3.154613e-01 -2.030414e-01 -3.414136e-01 -2.730989e-01 -4.227902e-01 -2.524541e-01 -4.887239e-01 -3.286107e-01 -4.602291e-01 -4.037289e-01 -4.730344e-01 -4.438710e-01 -5.309480e-01 -4.461408e-01 -5.568852e-01 -5.165904e-01 -5.900822e-01 -5.294167e-01 -6.295646e-01 -6.051805e-01 -6.697319e-01 -5.982927e-01 -7.430107e-01 -6.694284e-01 -7.704562e-01 -7.134792e-01 -8.092832e-01 -7.634619e-01 -9.036963e-01 -7.079979e-01 -9.924558e-01 -7.359055e-01 -1.029476e+00 -7.787700e-01 -1.048951e+00 -7.971008e-01 -1.104780e+00 -7.437244e-01 -1.131398e+00 -9.599835e-01 -7.698586e-01 -1.112355e+00 -1.839770e+00 6.846900e-01 
-6.262475e-01 4.351877e+00 -4.023981e+00 3.084579e+00 -2.028399e+00 3.090719e+00 -2.140544e+00 1.759784e+00 -1.537359e+00 8.179209e-01 -1.431900e+00 6.784724e-01 -1.622609e+00 2.565694e-01 -1.394786e+00 -1.494045e-01 -1.190893e+00 -4.572324e-01 -9.703620e-01 -6.955681e-01 -9.610457e-01 -7.917689e-01 -9.358639e-01 -8.104975e-01 -9.797746e-01 -8.133385e-01 -9.820884e-01 -8.449912e-01 -9.727130e-01 -8.939276e-01 -9.496771e-01 -8.790613e-01 -9.710038e-01 -8.795731e-01 -9.439927e-01 -8.805829e-01 -9.435100e-01 -8.662827e-01 -9.193603e-01 -8.468471e-01 -9.063415e-01 -8.108890e-01 -8.934085e-01 -7.747956e-01 -8.472523e-01 -7.591252e-01 -8.065285e-01 -6.761542e-01 -8.132041e-01 -5.990124e-01 -8.020596e-01 -5.116475e-01 -7.371138e-01 -4.453506e-01 -6.637460e-01 -3.542912e-01 -5.854079e-01 -2.926544e-01 -4.978919e-01 9.567992e-02 -8.582327e-01 6.447508e-01 8.490071e-01 -1.866449e+00 
1.598154e-01 1.943748e+00 -1.982998e+00 1.400098e+00 -2.367454e-01 1.392070e+00 -9.494500e-01 6.148587e-01 -4.932931e-01 6.880442e-02 -4.364125e-01 1.065912e-01 -6.398356e-01 -1.868381e-02 -5.797322e-01 -1.508157e-01 -5.151846e-01 -2.543036e-01 -4.267579e-01 -3.376861e-01 -4.337900e-01 -3.688809e-01 -4.188015e-01 -3.648129e-01 -4.249400e-01 -3.713988e-01 -4.149377e-01 -3.730014e-01 -4.147014e-01 -3.848248e-01 -4.014114e-01 -3.697980e-01 -4.011832e-01 -3.702240e-01 -3.830697e-01 -3.574009e-01 -3.766494e-01 -3.483840e-01 -3.574704e-01 -3.242357e-01 -3.433473e-01 -3.079637e-01 -3.236087e-01 -2.762269e-01 -2.951516e-01 -2.602935e-01 -2.679132e-01 -2.090185e-01 -2.534874e-01 -1.800891e-01 -2.323985e-01 -1.296624e-01 -1.927501e-01 -8.817900e-02 -1.516252e-01 -3.827559e-02 -1.013913e-01 -1.641645e-02 -5.174573e-02 2.211136e-01 -3.008639e-01 5.296581e-01 7.643372e-01 -1.076617e+00 
-8.149550e-05 2.040030e-03 -2.513444e-03 -8.185972e-02 -3.063946e+00 7.704722e-02 -4.466273e-04 1.264720e-04 -2.884239e-04 1.409641e-05 -4.647056e-04 5.716699e-05 -5.504668e-04 -1.368789e-04 -5.183966e-04 -2.053039e-04 -4.589246e-04 -2.748268e-04 -4.036464e-04 -3.156263e-04 -4.141028e-04 -3.431076e-04 -4.085169e-04 -3.365850e-04 -4.080344e-04 -3.503773e-04 -3.886236e-04 -3.519384e-04 -3.912713e-04 -3.603804e-04 -3.806546e-04 -3.514382e-04 -3.789687e-04 -3.528958e-04 -3.643589e-04 -3.504067e-04 -3.647211e-04 -3.460667e-04 -3.514860e-04 -3.392979e-04 -3.495258e-04 -3.313086e-04 -3.359397e-04 -3.216070e-04 -3.264973e-04 -3.043793e-04 -3.028819e-04 -2.854012e-04 -2.920378e-04 -2.599789e-04 -2.737942e-04 -2.216466e-04 -2.405377e-04 -1.677560e-04 -2.039032e-04 -1.098993e-04 -1.641190e-04 -5.465100e-05 -9.038478e-05 9.293965e-05 -2.390988e-04 4.457495e-04 6.044010e-04 -7.061711e-05 
-5.598342e-06 -3.802358e-04 -4.823209e-04 -1.627993e-02 -2.741579e+00 8.719558e-03 2.091576e-04 -5.675881e-05 9.600926e-05 -6.775271e-05 7.655943e-05 -2.207764e-05 6.109909e-05 -1.981293e-05 3.670186e-05 -1.360850e-05 2.138202e-05 -9.176163e-06 1.114609e-05 -8.582531e-06 7.680902e-06 -5.373260e-06 3.917829e-06 -3.464594e-06 3.334844e-06 -1.533438e-06 1.819488e-06 -1.974912e-06 1.237736e-06 -1.389601e-06 -9.844988e-08 -1.361433e-06 2.780747e-07 -3.595809e-07 -1.243122e-07 -8.115186e-07 -2.605386e-07 9.541761e-08 -4.212643e-07 -1.154111e-07 -6.609982e-07 4.636406e-07 -9.460268e-07 8.071037e-07 -1.376477e-06 1.801931e-06 -2.144776e-06 1.278803e-06 -3.960010e-06 1.445551e-06 -6.827376e-06 2.729556e-06 -1.048934e-05 3.744362e-06 -1.623843e-05 6.177229e-06 -2.640838e-05 1.342243e-05 -4.232268e-05 1.458341e-05 -7.429435e-05 2.772752e-05 4.360591e-05 3.665127e-04 
-1.547527e-04 -1.811043e-04 -4.373483e-04 -8.890215e-03 -3.805094e+00 -9.613806e-04 2.892167e-04 -4.151187e-05 1.590363e-04 -4.591419e-05 9.556827e-05 -2.223748e-05 5.928078e-05 -2.202409e-05 3.274340e-05 -1.608388e-05 1.830163e-05 -1.122740e-05 1.012563e-05 -8.585947e-06 6.709909e-06 -5.865079e-06 3.895970e-06 -3.801647e-06 2.858194e-06 -2.415665e-06 1.779437e-06 -2.056349e-06 1.108081e-06 -1.557290e-06 3.543147e-07 -1.146796e-06 3.491132e-07 -5.255201e-07 1.715427e-07 -3.992025e-07 1.275131e-08 1.390126e-07 -9.526542e-08 3.541948e-07 -3.226690e-07 8.501229e-07 -5.842193e-07 1.350777e-06 -1.066447e-06 2.025291e-06 -1.782819e-06 2.178979e-06 -3.358081e-06 2.694399e-06 -5.755832e-06 3.662345e-06 -8.948122e-06 4.593636e-06 -1.377746e-05 6.478245e-06 -2.181311e-05 1.204689e-05 -3.370201e-05 1.973692e-05 -6.020157e-05 2.446921e-05 -1.400019e-05 2.133926e-04 
-3.702754e-05 -8.759576e-05 -1.133309e-04 1.447563e-02 -3.504826e+00 -2.366643e-02 3.292958e-05 -9.993700e-06 5.560440e-05 -3.711373e-05 5.080494e-05 -2.717923e-05 4.181077e-05 -2.147203e-05 2.892822e-05 -1.594819e-05 1.874151e-05 -1.173113e-05 1.163495e-05 -9.104817e-06 7.786410e-06 -6.509677e-06 4.959124e-06 -4.488397e-06 3.462594e-06 -3.047322e-06 2.200713e-06 -2.373818e-06 1.410193e-06 -1.765513e-06 6.788450e-07 -1.238920e-06 4.585991e-07 -6.590933e-07 1.858771e-07 -3.184026e-07 -1.210816e-08 1.912364e-07 -2.214174e-07 5.785368e-07 -4.941958e-07 1.088002e-06 -8.684736e-07 1.699951e-06 -1.449228e-06 2.392936e-06 -2.369287e-06 2.901227e-06 -3.984034e-06 3.684354e-06 -6.417416e-06 5.136826e-06 -9.817945e-06 7.155213e-06 -1.467541e-05 1.059206e-05 -2.142729e-05 1.665674e-05 -2.895311e-05 2.442017e-05 -3.240820e-05 4.194657e-05 4.347486e-06 9.122550e-05 
-7.635295e-05 -3.302380e-05 -1.124341e-04 4.772896e-04 -4.093015e+00 -1.081236e-02 6.634075e-05 -1.887150e-05 8.166736e-05 -3.130953e-05 6.249630e-05 -2.562470e-05 4.277336e-05 -2.206203e-05 2.680453e-05 -1.741717e-05 1.645639e-05 -1.319005e-05 1.000105e-05 -9.923430e-06 6.510627e-06 -7.272810e-06 4.106276e-06 -5.166007e-06 2.761294e-06 -3.755125e-06 1.727645e-06 -2.802018e-06 1.078493e-06 -2.104657e-06 5.510631e-07 -1.421635e-06 3.364840e-07 -8.601518e-07 1.470706e-07 -3.410657e-07 -7.534270e-09 1.480572e-07 -1.640682e-07 6.862683e-07 -3.976442e-07 1.228132e-06 -7.081584e-07 1.925414e-06 -1.238293e-06 2.624474e-06 -2.008410e-06 3.392422e-06 -3.369863e-06 4.322891e-06 -5.319070e-06 5.711064e-06 -8.159763e-06 7.660720e-06 -1.226236e-05 1.086018e-05 -1.812743e-05 1.650936e-05 -2.581746e-05 2.469565e-05 -3.538937e-05 3.671696e-05 -3.313624e-05 6.598201e-05 
2.530626e-06 -1.847786e-05 2.880715e-05 1.355582e-02 -3.813279e+00 -2.327200e-02 -5.466864e-05 -6.027974e-06 7.480209e-06 -2.549873e-05 2.060900e-05 -2.544540e-05 2.184563e-05 -2.162533e-05 1.774175e-05 -1.716286e-05 1.306706e-05 -1.340056e-05 8.922461e-06 -1.018067e-05 6.262301e-06 -7.750602e-06 4.179131e-06 -5.560718e-06 2.916910e-06 -4.215669e-06 1.872888e-06 -3.000714e-06 1.229935e-06 -2.341689e-06 6.827693e-07 -1.454781e-06 4.086030e-07 -9.887586e-07 1.601321e-07 -2.459273e-07 -2.981674e-08 1.514507e-07 -2.318365e-07 9.096523e-07 -5.051696e-07 1.374848e-06 -8.507200e-07 2.295629e-06 -1.425964e-06 2.965089e-06 -2.200358e-06 4.067378e-06 -3.481300e-06 5.081010e-06 -5.128216e-06 6.892228e-06 -7.523434e-06 9.446084e-06 -1.049103e-05 1.314550e-05 -1.358802e-05 1.846093e-05 -1.523805e-05 2.521657e-05 -1.181667e-05 3.360642e-05 2.855421e-06 3.641801e-05 
-1.279671e-05 7.274098e-06 1.895094e-05 3.388111e-05 -4.138852e+00 -1.030802e-02 -3.377923e-05 -1.852646e-05 1.820797e-05 -2.654340e-05 2.653531e-05 -2.516340e-05 2.283595e-05 -2.184407e-05 1.652768e-05 -1.803436e-05 1.167980e-05 -1.441545e-05 7.356185e-06 -1.092620e-05 5.185707e-06 -8.464523e-06 3.169806e-06 -6.116792e-06 2.299912e-06 -4.780384e-06 1.311468e-06 -3.343851e-06 9.371244e-07 -2.669424e-06 4.425863e-07 -1.599875e-06 3.023482e-07 -1.166788e-06 9.016973e-08 -2.499629e-07 -2.979436e-08 1.066187e-07 -1.640890e-07 1.029215e-06 -4.116040e-07 1.464389e-06 -6.248123e-07 2.532835e-06 -1.185906e-06 3.188278e-06 -1.697207e-06 4.498500e-06 -2.877542e-06 5.530002e-06 -3.968312e-06 7.285198e-06 -5.992017e-06 9.817264e-06 -8.648513e-06 1.342394e-05 -1.181134e-05 1.855804e-05 -1.498946e-05 2.508634e-05 -1.693808e-05 3.210272e-05 -1.421110e-05 3.555045e-05 
3.538018e-05 7.092532e-06 8.020186e-05 9.300116e-03 -3.870817e+00 -1.897848e-02 -9.361966e-05 -1.339499e-05 -2.762257e-05 -2.304541e-05 -5.298630e-06 -2.380999e-05 3.649128e-06 -2.097630e-05 5.864545e-06 -1.730092e-05 6.544643e-06 -1.468274e-05 4.615899e-06 -1.066191e-05 3.997899e-06 -9.025381e-06 2.446377e-06 -5.974667e-06 2.083648e-06 -5.394679e-06 1.124660e-06 -3.111817e-06 9.513816e-07 -3.193063e-06 4.110650e-07 -1.256993e-06 3.339229e-07 -1.616515e-06 7.419140e-08 1.866042e-07 -4.103030e-08 -2.546107e-07 -1.777420e-07 1.562033e-06 -4.577317e-07 1.216854e-06 -6.076151e-07 3.193315e-06 -1.214691e-06 3.137093e-06 -1.532287e-06 5.402163e-06 -2.599644e-06 5.721571e-06 -2.889170e-06 7.993629e-06 -4.253738e-06 1.081671e-05 -5.339922e-06 1.437963e-05 -5.487622e-06 1.882618e-05 -3.349576e-06 2.374203e-05 3.321447e-06 2.769514e-05 1.684507e-05 2.560293e-05 
2.709773e-05 2.076932e-05 7.019426e-05 -1.290410e-03 -4.032990e+00 -8.596218e-03 -7.730449e-05 -2.250669e-05 -2.233673e-05 -2.562004e-05 -2.171013e-06 -2.426218e-05 4.213101e-06 -2.088282e-05 4.605021e-06 -1.793171e-05 6.590273e-06 -1.556614e-05 2.686036e-06 -1.099313e-05 3.713755e-06 -9.760136e-06 1.035318e-06 -6.170261e-06 1.946192e-06 -6.034159e-06 2.633401e-07 -3.146033e-06 9.303249e-07 -3.686065e-06 -2.807871e-08 -1.137805e-06 3.493604e-07 -1.989546e-06 -6.280981e-08 4.209813e-07 -4.006514e-08 -5.197746e-07 -5.346120e-08 1.891100e-06 -4.764198e-07 1.059637e-06 -1.944688e-07 3.606543e-06 -1.215539e-06 3.109132e-06 -7.330503e-07 5.972574e-06 -2.519812e-06 6.003282e-06 -1.541554e-06 8.104110e-06 -3.036741e-06 1.105545e-05 -4.203515e-06 1.463284e-05 -4.788293e-06 1.903638e-05 -4.106617e-06 2.397268e-05 -6.342024e-07 2.826882e-05 8.452016e-06 2.900391e-05 
5.442584e-05 1.834564e-05 9.666904e-05 5.801490e-03 -3.770144e+00 -1.509989e-02 -1.077119e-04 -2.016459e-05 -4.843945e-05 -2.348914e-05 -2.366310e-05 -2.294668e-05 -1.077828e-05 -1.985579e-05 -6.091947e-06 -1.434275e-05 3.736816e-06 -1.624557e-05 -1.227642e-06 -7.404890e-06 4.374169e-06 -1.074060e-05 -5.763407e-07 -2.636413e-06 3.822848e-06 -7.237831e-06 -4.390826e-07 4.332495e-07 3.184422e-06 -4.975013e-06 -3.307953e-07 2.502730e-06 2.669221e-06 -3.320593e-06 -1.565003e-07 4.089487e-06 2.228065e-06 -1.863521e-06 2.266762e-08 5.550709e-06 1.712476e-06 -2.660139e-07 1.019689e-07 7.240219e-06 9.207013e-07 1.905433e-06 -1.021433e-07 9.738283e-06 -3.200489e-07 5.153443e-06 7.784866e-07 8.558917e-06 -9.062434e-07 1.155876e-05 -4.500517e-07 1.478171e-05 1.623428e-06 1.845629e-05 6.279994e-06 2.218058e-05 1.518249e-05 2.483432e-05 3.037969e-05 2.419700e-05 
4.849574e-05 2.544649e-05 8.801725e-05 -2.232604e-03 -3.822268e+00 -7.047088e-03 -9.345482e-05 -2.543113e-05 -4.459019e-05 -2.562412e-05 -2.120770e-05 -2.359160e-05 -9.973965e-06 -1.846756e-05 -9.008884e-06 1.421885e-03 2.871369e-03 1.427802e-03 -4.851339e-06 1.554305e-03 3.123175e-03 1.558043e-03 -2.592933e-06 1.658767e-03 3.325732e-03 1.662017e-03 -9.452242e-07 1.730019e-03 3.464427e-03 1.733011e-03 4.212339e-07 1.770658e-03 3.543419e-03 1.773552e-03 1.639294e-06 1.783331e-03 3.567149e-03 1.786211e-03 2.757798e-06 1.769368e-03 3.537629e-03 1.772296e-03 3.791732e-06 1.727857e-03 3.452344e-03 1.730976e-03 4.636255e-06 1.659940e-03 3.312004e-03 1.664275e-03 4.841720e-06 8.026549e-06 -3.376786e-07 1.180160e-05 -7.750530e-08 1.503364e-05 1.590938e-06 1.867613e-05 5.178619e-06 2.253261e-05 1.221590e-05 2.579786e-05 2.527758e-05 2.712475e-05 
6.281843e-05 2.306776e-05 9.825428e-05 3.309707e-03 -3.560913e+00 -1.200087e-02 -1.086312e-04 -2.393068e-05 -5.825781e-05 -2.415861e-05 -3.425950e-05 -2.282490e-05 -1.899136e-05 -1.977776e-05 -1.250173e-06 3.156971e-02 6.332992e-02 3.178316e-02 3.028261e-05 3.440160e-02 6.899008e-02 3.462527e-02 3.794536e-05 3.667818e-02 7.354972e-02 3.691441e-02 4.325222e-05 3.824122e-02 7.668076e-02 3.848648e-02 4.690504e-05 3.913825e-02 7.847769e-02 3.938879e-02 4.938144e-05 3.942155e-02 7.904465e-02 3.967371e-02 5.094352e-05 3.911711e-02 7.843327e-02 3.936732e-02 5.173925e-05 3.820167e-02 7.659645e-02 3.844642e-02 5.160388e-05 3.669092e-02 7.356252e-02 3.693055e-02 3.323034e-05 1.086277e-05 3.719076e-07 1.223273e-05 3.306724e-06 1.470371e-05 7.154650e-06 1.769389e-05 1.337784e-05 2.074189e-05 2.344889e-05 2.315605e-05 3.914255e-05 2.403928e-05 
5.764779e-05 2.630040e-05 9.062584e-05 -2.776063e-03 -3.534937e+00 -5.740502e-03 -9.560008e-05 -2.630281e-05 -5.446592e-05 -2.551476e-05 -3.120916e-05 -2.507595e-05 -1.422567e-05 -2.878112e-05 1.782055e-05 4.421848e-02 8.872150e-02 4.452023e-02 6.566887e-05 4.819535e-02 9.668070e-02 4.851709e-02 6.964944e-05 5.139890e-02 1.030913e-01 5.173780e-02 7.153510e-05 5.360030e-02 1.074954e-01 5.395132e-02 7.201051e-05 5.486639e-02 1.100264e-01 5.522444e-02 7.137415e-05 5.527106e-02 1.108316e-01 5.563124e-02 6.965401e-05 5.485151e-02 1.099847e-01 5.520908e-02 6.672398e-05 5.357585e-02 1.074211e-01 5.392607e-02 6.218397e-05 5.146611e-02 1.031828e-01 5.180615e-02 3.813617e-05 1.615656e-05 -1.810400e-06 1.344513e-05 2.841210e-06 1.497185e-05 6.635417e-06 1.775830e-05 1.208553e-05 2.088766e-05 2.090826e-05 2.371994e-05 3.517016e-05 2.561659e-05 
6.409537e-05 2.419146e-05 9.273485e-05 1.586969e-03 -3.273362e+00 -9.511410e-03 -1.024179e-04 -2.485426e-05 -6.079399e-05 -2.393316e-05 -3.922679e-05 -2.327625e-05 -2.315544e-05 -2.547745e-05 -1.235008e-05 -1.607441e-02 -3.220263e-02 -1.618142e-02 -8.609075e-06 -1.749899e-02 -3.504791e-02 -1.760706e-02 -1.105823e-05 -1.863982e-02 -3.734534e-02 -1.875476e-02 -1.550921e-05 -1.942157e-02 -3.892257e-02 -1.954165e-02 -1.985819e-05 -1.986768e-02 -3.982545e-02 -1.999077e-02 -2.367534e-05 -2.000359e-02 -4.010544e-02 -2.012759e-02 -2.700919e-05 -1.984140e-02 -3.978759e-02 -1.996430e-02 -2.998539e-05 -1.936829e-02 -3.884681e-02 -1.948816e-02 -3.220468e-05 -1.859171e-02 -3.729492e-02 -1.871105e-02 -1.794314e-05 1.166300e-05 3.321703e-06 1.207493e-05 6.611300e-06 1.398313e-05 1.116782e-05 1.650456e-05 1.798120e-05 1.916601e-05 2.816472e-05 2.154375e-05 4.302609e-05 2.324513e-05 
5.908650e-05 2.509414e-05 8.568451e-05 -3.022527e-03 -3.189972e+00 -4.615908e-03 -9.043774e-05 -2.497605e-05 -5.722851e-05 -2.305012e-05 -3.793417e-05 -2.021002e-05 -2.652819e-05 -1.443049e-05 -3.753532e-05 -4.567668e-02 -9.159879e-02 -4.598795e-02 -6.677091e-05 -4.977068e-02 -9.979363e-02 -5.009899e-02 -6.744577e-05 -5.306524e-02 -1.063998e-01 -5.341136e-02 -6.980839e-05 -5.532813e-02 -1.109390e-01 -5.568705e-02 -7.177146e-05 -5.662772e-02 -1.135468e-01 -5.699407e-02 -7.281838e-05 -5.703931e-02 -1.143742e-01 -5.740793e-02 -7.278304e-05 -5.660040e-02 -1.134967e-01 -5.696627e-02 -7.147336e-05 -5.527720e-02 -1.108469e-01 -5.563542e-02 -6.801223e-05 -5.309203e-02 -1.064662e-01 -5.344137e-02 -3.916041e-05 4.517673e-06 6.981499e-06 1.015257e-05 7.250976e-06 1.328580e-05 1.066239e-05 1.610914e-05 1.656010e-05 1.890234e-05 2.568493e-05 2.148840e-05 3.932932e-05 2.359456e-05 
6.078266e-05 2.315222e-05 8.354553e-05 4.735200e-04 -2.927717e+00 -7.515631e-03 -9.237126e-05 -2.342120e-05 -5.892663e-05 -2.137196e-05 -4.156313e-05 -1.830324e-05 -3.022241e-05 -1.213704e-05 -3.047971e-05 -1.554172e-02 -3.116501e-02 -1.564117e-02 -3.765381e-05 -1.693667e-02 -3.395977e-02 -1.704430e-02 -3.210820e-05 -1.806186e-02 -3.621385e-02 -1.817530e-02 -2.928709e-05 -1.883532e-02 -3.776401e-02 -1.895291e-02 -2.744926e-05 -1.928039e-02 -3.865608e-02 -1.940038e-02 -2.583061e-05 -1.942285e-02 -3.894163e-02 -1.954358e-02 -2.399797e-05 -1.927567e-02 -3.864666e-02 -1.939554e-02 -2.154205e-05 -1.882758e-02 -3.774846e-02 -1.894505e-02 -1.774259e-05 -1.808625e-02 -3.626176e-02 -1.819932e-02 -9.112885e-06 4.739982e-06 7.656121e-06 9.326132e-06 9.498510e-06 1.222083e-05 1.371746e-05 1.478611e-05 2.028501e-05 1.726570e-05 2.977111e-05 1.957431e-05 4.298280e-05 2.155620e-05 
5.571206e-05 2.267504e-05 7.678389e-05 -2.973311e-03 -2.801089e+00 -3.701058e-03 -8.113646e-05 -2.250445e-05 -5.467777e-05 -2.037070e-05 -3.856340e-05 -1.769556e-05 -2.716181e-05 -1.447335e-05 -1.827363e-05 -2.470492e-05 -2.816158e-05 -1.381109e-05 -1.188150e-05 -2.134056e-05 -2.473517e-05 -1.176329e-05 -6.428302e-06 -1.988456e-05 -2.392434e-05 -1.037907e-05 -3.529629e-06 -1.880134e-05 -2.416932e-05 -9.369005e-06 -1.816763e-06 -1.792606e-05 -2.457448e-05 -8.543718e-06 -6.177244e-07 -1.706015e-05 -2.477915e-05 -7.709023e-06 4.392142e-07 -1.601734e-05 -2.458765e-05 -6.692854e-06 1.675497e-06 -1.462760e-05 -2.370788e-05 -5.347263e-06 3.555990e-06 -1.267287e-05 -2.203634e-05 -2.440106e-06 2.938579e-06 7.003273e-06 6.310610e-06 9.281312e-06 8.805617e-06 1.175696e-05 1.266136e-05 1.422240e-05 1.854168e-05 1.666121e-05 2.711797e-05 1.897208e-05 3.921921e-05 2.101037e-05 
5.452226e-05 2.080867e-05 7.236202e-05 -1.540586e-04 -2.538365e+00 -5.920526e-03 -8.003019e-05 -2.093667e-05 -5.342417e-05 -1.892398e-05 -3.912429e-05 -1.659889e-05 -2.827879e-05 -1.442127e-05 -1.929112e-05 -1.547550e-05 -1.181951e-05 -9.066862e-06 -1.071658e-05 -1.097415e-05 -5.490972e-06 -5.369535e-06 -5.461156e-06 -7.966172e-06 -2.340415e-06 -2.651607e-06 -2.753800e-06 -5.705973e-06 -9.460438e-07 -5.948905e-07 -1.309213e-06 -3.961285e-06 -3.401048e-07 1.030330e-06 -4.157443e-07 -2.492739e-06 -2.583105e-08 2.462115e-06 3.303946e-07 -1.069052e-06 3.036241e-07 3.922995e-06 1.260510e-06 5.270946e-07 9.733986e-07 5.642144e-06 2.764959e-06 2.644773e-06 2.161904e-06 8.469503e-06 3.961087e-06 7.175214e-06 7.103625e-06 8.734324e-06 1.012184e-05 1.078832e-05 1.437449e-05 1.294377e-05 2.043352e-05 1.511229e-05 2.880385e-05 1.720875e-05 4.001080e-05 1.913315e-05 
4.932250e-05 1.953536e-05 6.571627e-05 -2.681928e-03 -2.378591e+00 -2.963683e-03 -6.947873e-05 -1.944216e-05 -4.867251e-05 -1.760923e-05 -3.555809e-05 -1.562130e-05 -2.549396e-05 -1.385079e-05 -1.759238e-05 -1.326538e-05 -1.156606e-05 -9.570829e-06 -9.199626e-06 -9.239607e-06 -5.610024e-06 -6.205156e-06 -4.611252e-06 -6.380295e-06 -2.589293e-06 -3.699007e-06 -2.273512e-06 -4.213749e-06 -1.154861e-06 -1.786173e-06 -1.055909e-06 -2.531118e-06 -4.514032e-07 -2.578795e-07 -3.295653e-07 -1.115839e-06 -2.592001e-08 1.103546e-06 2.631097e-07 2.464149e-07 4.085536e-07 2.508878e-06 1.008972e-06 1.767909e-06 1.138205e-06 4.196427e-06 2.210985e-06 3.799840e-06 2.326120e-06 6.841403e-06 3.761324e-06 7.112582e-06 6.224925e-06 8.442234e-06 9.063166e-06 1.023718e-05 1.292634e-05 1.220910e-05 1.836600e-05 1.422962e-05 2.590348e-05 1.619443e-05 3.606821e-05 1.799520e-05 
4.636659e-05 1.768522e-05 6.005829e-05 -4.308620e-04 -2.116016e+00 -4.612940e-03 -6.639964e-05 -1.780597e-05 -4.564372e-05 -1.612635e-05 -3.425648e-05 -1.434226e-05 -2.518435e-05 -1.272208e-05 -1.793543e-05 -1.157733e-05 -1.253762e-05 -9.051825e-06 -9.344406e-06 -8.100910e-06 -6.326662e-06 -6.008113e-06 -4.706319e-06 -5.484828e-06 -3.064928e-06 -3.722514e-06 -2.298583e-06 -3.508481e-06 -1.423189e-06 -1.980122e-06 -1.046450e-06 -1.972250e-06 -5.678634e-07 -5.828370e-07 -3.176194e-07 -6.768301e-07 -2.165577e-08 6.674215e-07 2.675274e-07 5.727597e-07 5.333342e-07 1.964145e-06 1.013923e-06 1.975222e-06 1.408053e-06 3.529682e-06 2.257581e-06 3.822873e-06 2.929279e-06 5.786947e-06 4.389097e-06 6.489308e-06 6.742119e-06 7.685760e-06 9.658792e-06 9.229337e-06 1.355193e-05 1.094555e-05 1.882268e-05 1.273277e-05 2.583958e-05 1.450839e-05 3.493801e-05 1.618751e-05 
4.103829e-05 1.596787e-05 5.343424e-05 -2.230242e-03 -1.930511e+00 -2.338027e-03 -5.651262e-05 -1.596835e-05 -4.058237e-05 -1.451146e-05 -3.039596e-05 -1.297118e-05 -2.230466e-05 -1.151456e-05 -1.597916e-05 -1.022899e-05 -1.127312e-05 -8.402559e-06 -8.222383e-06 -7.201319e-06 -5.702194e-06 -5.698160e-06 -4.136206e-06 -4.834434e-06 -2.796702e-06 -3.628092e-06 -2.021729e-06 -3.025256e-06 -1.317905e-06 -2.035296e-06 -9.210422e-07 -1.608350e-06 -5.336284e-07 -7.485631e-07 -2.812209e-07 -4.084661e-07 -2.527268e-08 4.086400e-07 2.288420e-07 7.506734e-07 4.852625e-07 1.613906e-06 8.712986e-07 2.053683e-06 1.264923e-06 3.072559e-06 1.937206e-06 3.750010e-06 2.639728e-06 5.079912e-06 3.919298e-06 5.986035e-06 5.862913e-06 7.122397e-06 8.413616e-06 8.502398e-06 1.184460e-05 1.003247e-05 1.649506e-05 1.162720e-05 2.270948e-05 1.320504e-05 3.081037e-05 1.468068e-05 
3.699823e-05 1.409584e-05 4.712172e-05 -4.806226e-04 -1.668994e+00 -3.485724e-03 -5.207330e-05 -1.423279e-05 -3.648987e-05 -1.292658e-05 -2.789478e-05 -1.153318e-05 -2.091444e-05 -1.016120e-05 -1.536969e-05 -8.871257e-06 -1.107937e-05 -7.512290e-06 -8.078297e-06 -6.276906e-06 -5.734044e-06 -5.139868e-06 -4.135295e-06 -4.180342e-06 -2.872834e-06 -3.306528e-06 -2.042632e-06 -2.579527e-06 -1.371724e-06 -1.899104e-06 -9.317205e-07 -1.327183e-06 -5.564679e-07 -7.611297e-07 -2.805512e-07 -2.649305e-07 -2.021618e-08 2.650414e-07 2.394503e-07 7.642598e-07 5.182263e-07 1.337902e-06 8.936895e-07 1.924646e-06 1.333811e-06 2.632388e-06 1.998114e-06 3.398837e-06 2.829562e-06 4.300457e-06 4.152405e-06 5.202749e-06 5.965071e-06 6.245437e-06 8.383968e-06 7.443512e-06 1.160996e-05 8.760880e-06 1.587330e-05 1.014799e-05 2.140417e-05 1.154650e-05 2.840341e-05 1.288821e-05 
3.157068e-05 1.214519e-05 4.047313e-05 -1.693698e-03 -1.463363e+00 -1.761405e-03 -4.281515e-05 -1.221153e-05 -3.123005e-05 -1.112629e-05 -2.381860e-05 -9.948522e-06 -1.784572e-05 -8.744576e-06 -1.315638e-05 -7.597728e-06 -9.411178e-06 -6.602942e-06 -6.866757e-06 -5.419703e-06 -4.841250e-06 -4.572704e-06 -3.511761e-06 -3.605482e-06 -2.422873e-06 -2.978018e-06 -1.739212e-06 -2.205323e-06 -1.158089e-06 -1.743074e-06 -7.967136e-07 -1.102200e-06 -4.717672e-07 -7.382972e-07 -2.427926e-07 -1.620596e-07 -2.207315e-08 1.715774e-07 1.972418e-07 7.517992e-07 4.240322e-07 1.126015e-06 7.424009e-07 1.784523e-06 1.094010e-06 2.276593e-06 1.663556e-06 3.080461e-06 2.358243e-06 3.704081e-06 3.532409e-06 4.559231e-06 4.990650e-06 5.518177e-06 6.998347e-06 6.568145e-06 9.726652e-06 7.698324e-06 1.336080e-05 8.876221e-06 1.810107e-05 1.005212e-05 2.413098e-05 1.116458e-05 
2.686798e-05 1.022779e-05 3.383664e-05 -4.031595e-04 -1.204054e+00 -2.452193e-03 -3.736155e-05 -1.037595e-05 -2.649078e-05 -9.454589e-06 -2.051018e-05 -8.435236e-06 -1.564789e-05 -7.313939e-06 -1.188481e-05 -6.099973e-06 -8.502258e-06 -5.817080e-06 -6.268190e-06 -4.320234e-06 -4.452134e-06 -4.100106e-06 -3.272352e-06 -2.775438e-06 -2.267532e-06 -2.754638e-06 -1.644508e-06 -1.594357e-06 -1.094554e-06 -1.719506e-06 -7.580788e-07 -6.680216e-07 -4.463025e-07 -8.779995e-07 -2.288941e-07 1.212476e-07 -1.727474e-08 -1.140672e-07 1.941066e-07 8.905822e-07 4.079538e-07 6.923043e-07 7.137012e-07 1.766190e-06 1.038752e-06 1.671857e-06 1.585981e-06 2.852039e-06 2.266921e-06 2.781159e-06 3.516611e-06 3.736137e-06 4.679711e-06 4.614739e-06 6.430730e-06 5.487722e-06 8.825324e-06 6.414996e-06 1.195291e-05 7.393717e-06 1.593620e-05 8.390185e-06 2.088704e-05 9.354914e-06 
2.138204e-05 8.169418e-06 2.714345e-05 -1.131821e-03 -9.826419e-01 -1.184835e-03 -2.869118e-05 -8.279156e-06 -2.110445e-05 -7.578328e-06 -1.627059e-05 -6.776249e-06 -1.240971e-05 -5.806616e-06 -9.591662e-06 -4.676156e-06 -6.569168e-06 -4.960020e-06 -4.991906e-06 -3.277855e-06 -3.381722e-06 -3.574282e-06 -2.616506e-06 -2.027969e-06 -1.699813e-06 -2.482362e-06 -1.325816e-06 -1.069318e-06 -8.102629e-07 -1.637300e-06 -6.171998e-07 -3.141374e-07 -3.282781e-07 -9.467084e-07 -1.892324e-07 3.321712e-07 -1.724596e-08 -3.174224e-07 1.523501e-07 9.656290e-07 2.851687e-07 3.499313e-07 5.605535e-07 1.692662e-06 7.334042e-07 1.166702e-06 1.234646e-06 2.596650e-06 1.668177e-06 2.048991e-06 2.897538e-06 3.018961e-06 3.615027e-06 3.805546e-06 4.943446e-06 4.514563e-06 6.838714e-06 5.244340e-06 9.337342e-06 6.007408e-06 1.253554e-05 6.777844e-06 1.653093e-05 7.514511e-06 
1.628073e-05 6.194569e-06 2.036971e-05 -2.761306e-04 -7.269192e-01 -1.445586e-03 -2.242246e-05 -6.346229e-06 -1.597700e-05 -5.844908e-06 -1.239289e-05 -5.293700e-06 -9.518600e-06 -4.507011e-06 -8.162312e-06 -1.755611e-06 -4.181876e-06 -4.829081e-06 -3.978782e-06 -5.509830e-07 -1.709272e-06 -3.662957e-06 -2.157836e-06 4.824697e-07 -3.310226e-07 -2.812228e-06 -1.112031e-06 1.240504e-06 4.323261e-07 -2.166010e-06 -5.204013e-07 1.824725e-06 8.531410e-07 -1.642924e-06 -1.558475e-07 2.314127e-06 1.117332e-06 -1.170924e-06 1.375379e-07 2.784587e-06 1.355345e-06 -6.706289e-07 4.797464e-07 3.326813e-06 1.672260e-06 -2.540715e-08 9.835505e-07 4.071608e-06 2.307267e-06 6.827900e-07 2.985056e-06 2.366291e-06 2.837957e-06 2.983395e-06 3.915525e-06 3.440977e-06 5.444631e-06 3.948611e-06 7.382430e-06 4.509920e-06 9.796508e-06 5.095883e-06 1.275166e-05 5.670736e-06 
1.078390e-05 4.102920e-06 1.362596e-05 -5.897130e-04 -4.931751e-01 -5.723021e-04 -1.431613e-05 -4.231926e-06 -1.053810e-05 -3.959823e-06 -8.048996e-06 -3.689491e-06 -6.061310e-06 -3.161347e-06 -5.638809e-06 7.110301e-04 1.424881e-03 7.127924e-04 -1.725547e-06 7.759127e-04 1.554288e-03 7.776409e-04 -4.770717e-07 8.281509e-04 1.658209e-03 8.297990e-04 2.886064e-07 8.640594e-04 1.729509e-03 8.656749e-04 7.424818e-07 8.847846e-04 1.770464e-03 8.863882e-04 1.028053e-06 8.915611e-04 1.783548e-03 8.931671e-04 1.245620e-06 8.850320e-04 1.770019e-03 8.866591e-04 1.464301e-06 8.647428e-04 1.728867e-03 8.664423e-04 1.709417e-06 8.311758e-04 1.660877e-03 8.328671e-04 3.190254e-06 1.774746e-06 1.617950e-06 2.177729e-06 2.375547e-06 2.406991e-06 3.444643e-06 2.700307e-06 4.761180e-06 3.047694e-06 6.388948e-06 3.416885e-06 8.386147e-06 3.777985e-06 
5.451878e-06 2.069450e-06 6.815941e-06 -1.560547e-04 -2.426744e-01 -4.188803e-04 -7.365456e-06 -2.182384e-06 -5.235984e-06 -2.123804e-06 -3.811482e-06 -2.312168e-06 -1.926449e-06 -3.492006e-06 4.257265e-06 1.576382e-02 3.164891e-02 1.590136e-02 1.991914e-05 1.718327e-02 3.448274e-02 1.732049e-02 2.195391e-05 1.832549e-02 3.676635e-02 1.846367e-02 2.355943e-05 1.911022e-02 3.833513e-02 1.924898e-02 2.458295e-05 1.956109e-02 3.923633e-02 1.970011e-02 2.510886e-05 1.970423e-02 3.952223e-02 1.984328e-02 2.520968e-05 1.955270e-02 3.921898e-02 1.969159e-02 2.491222e-05 1.909495e-02 3.830331e-02 1.923353e-02 2.404055e-05 1.833884e-02 3.678968e-02 1.847837e-02 1.599633e-05 2.791031e-06 -2.622823e-07 1.513519e-06 1.009959e-06 1.305530e-06 1.751544e-06 1.374185e-06 2.465579e-06 1.528229e-06 3.292243e-06 1.710743e-06 4.281483e-06 1.896910e-06 
6.073095e-10 -1.001352e-08 2.645274e-08 -9.427578e-05 6.048664e-04 9.487426e-05 1.655218e-07 -5.916474e-08 1.348016e-07 -1.843122e-07 4.373149e-07 -6.558973e-07 1.699691e-06 -2.656083e-06 9.661548e-06 2.210457e-02 4.438097e-02 2.230064e-02 2.982608e-05 2.409406e-02 4.835275e-02 2.428964e-02 3.180477e-05 2.569485e-02 5.155357e-02 2.589188e-02 3.355399e-05 2.679454e-02 5.375244e-02 2.699243e-02 3.470556e-05 2.742623e-02 5.501547e-02 2.762450e-02 3.526911e-05 2.762650e-02 5.541590e-02 2.782481e-02 3.527050e-05 2.741363e-02 5.499026e-02 2.761169e-02 3.468830e-05 2.677134e-02 5.370590e-02 2.696892e-02 3.321633e-05 2.571059e-02 5.158293e-02 2.590953e-02 2.109341e-05 2.644972e-06 -1.696462e-06 6.315386e-07 -4.225124e-07 1.737026e-07 -1.226157e-07 5.374252e-08 -4.193304e-08 1.584962e-08 -1.600836e-08 1.031238e-09 -5.678598e-09 -5.989616e-09 
-5.452151e-06 -2.089798e-06 -6.767494e-06 -6.697111e-05 2.439279e-01 6.431870e-04 7.694342e-06 2.133457e-06 5.345422e-06 2.002641e-06 4.048442e-06 2.021897e-06 2.526935e-06 2.761036e-06 -2.173832e-06 -7.996924e-03 -1.605450e-02 -8.065209e-03 -1.023273e-05 -8.717490e-03 -1.749341e-02 -8.785616e-03 -1.141544e-05 -9.297550e-03 -1.865280e-02 -9.366026e-03 -1.221046e-05 -9.696164e-03 -1.944932e-02 -9.764817e-03 -1.264033e-05 -9.925317e-03 -1.990701e-02 -9.994031e-03 -1.279154e-05 -9.998287e-03 -2.005247e-02 -1.006699e-02 -1.272347e-05 -9.921729e-03 -1.989902e-02 -9.990374e-03 -1.246883e-05 -9.689798e-03 -1.943495e-02 -9.758355e-03 -1.198228e-05 -9.306488e-03 -1.866769e-02 -9.375557e-03 -7.381928e-06 -1.919537e-06 -3.587711e-07 -1.205445e-06 -1.234661e-06 -1.184327e-06 -1.844428e-06 -1.327253e-06 -2.506857e-06 -1.515662e-06 -3.310721e-06 -1.715821e-06 -4.288905e-06 -1.911641e-06 