# vtk DataFile Version 2.0
Comment goes here
ASCII

DATASET STRUCTURED_POINTS
FIELD FieldData 1
TIME 1 1 double
0.01200000
DIMENSIONS    64   64   1

ORIGIN    0.000   0.000   0.000
SPACING   0.03125 0.03125   1.000

POINT_DATA   4096
SCALARS Omega double
LOOKUP_TABLE default

-1.061156e-01 -2.856823e-02 7.330480e-03 -1.007288e-01 9.033237e-04 -2.540672e-02 3.861991e-03 -5.373981e-02 6.284733e-03 -4.828756e-02 1.302474e-02 -3.156388e-02 8.709492e-03 -1.491022e-02 1.549721e-02 -9.838951e-03 3.165325e-02 -2.709341e-03 3.077990e-02 1.297010e-02 3.147428e-02 2.157905e-02 3.063208e-02 3.796430e-02 2.081063e-02 4.134128e-02 3.011329e-02 4.383516e-02 2.843792e-02 4.383809e-02 3.299205e-02 4.521259e-02 2.339464e-02 4.968639e-02 2.566683e-02 5.633730e-02 1.810757e-02 4.373636e-02 4.245064e-02 2.724375e-02 3.770058e-02 2.624628e-02 3.595867e-02 3.535488e-02 1.545378e-02 3.341043e-02 2.239882e-02 7.828292e-03 1.949096e-02 8.228299e-03 3.932487e-03 -1.167570e-03 -4.227453e-03 -5.629808e-03 -2.379914e-02 -1.406449e-03 -3.576994e-02 -2.749651e-03 -4.741700e-02 4.088676e-03 -5.533508e-02 -1.923361e-03 -4.652145e-02 5.469761e-03 
-3.044394e+00 -1.906696e+01 9.931621e+00 -1.596405e+01 5.921838e+00 -1.268022e+01 2.075970e+00 -8.631820e+00 -2.116072e+00 -4.578519e+00 -6.157196e+00 -1.040890e+00 -9.494543e+00 1.678717e+00 -1.180426e+01 3.187605e+00 -1.278600e+01 3.525048e+00 -1.284055e+01 3.252266e+00 -1.256033e+01 2.839469e+00 -1.213183e+01 2.406852e+00 -1.189643e+01 2.321831e+00 -1.203965e+01 2.672470e+00 -1.247005e+01 2.950836e+00 -1.244835e+01 2.676149e+00 -1.216860e+01 2.546555e+00 -1.212511e+01 2.443689e+00 -1.192975e+01 2.299935e+00 -1.181461e+01 2.084263e+00 -1.125083e+01 1.484098e+00 -1.101378e+01 1.758312e+00 -1.146749e+01 2.098273e+00 -1.121185e+01 1.223192e+00 -9.605158e+00 -7.664709e-01 -7.493914e+00 -2.648058e+00 -5.702293e+00 -3.864321e+00 -5.080318e+00 -3.482562e+00 -6.149645e+00 -1.695544e+00 -8.305079e+00 8.087688e-01 -1.034214e+01 2.554424e+00 -1.222728e+01 4.586017e+00 
-2.707518e+00 1.773228e+01 -1.867345e+01 9.671139e+00 -7.192020e+00 7.236263e+00 -8.797721e+00 4.795132e+00 -1.002965e+01 2.708828e+00 -1.055116e+01 1.025268e+00 -1.091578e+01 -2.391492e-01 -1.137234e+01 -8.172025e-01 -1.225824e+01 -7.821256e-01 -1.333071e+01 -5.276217e-01 -1.420972e+01 -3.278759e-01 -1.499141e+01 -1.175043e-01 -1.548293e+01 -1.382751e-01 -1.565005e+01 -4.926929e-01 -1.540636e+01 -9.028215e-01 -1.547132e+01 -7.805142e-01 -1.564922e+01 -9.102029e-01 -1.545908e+01 -1.111618e+00 -1.533991e+01 -1.324947e+00 -1.501826e+01 -1.518432e+00 -1.508809e+01 -1.241673e+00 -1.477408e+01 -1.949418e+00 -1.356309e+01 -2.945546e+00 -1.269154e+01 -3.082879e+00 -1.260392e+01 -2.511285e+00 -1.259663e+01 -2.162254e+00 -1.240876e+01 -2.048144e+00 -1.138935e+01 -3.009626e+00 -9.133687e+00 -4.664098e+00 -6.057685e+00 -6.937647e+00 -2.640558e+00 -9.140190e+00 4.241524e+00 -1.793835e+01 
-8.229840e-01 1.241976e+01 -1.162957e+01 8.135640e+00 -1.482316e+00 5.782265e+00 -4.900924e+00 3.987293e+00 -4.804433e+00 2.160464e+00 -4.353557e+00 6.647907e-01 -3.932807e+00 -4.502212e-01 -3.735167e+00 -9.957032e-01 -4.000282e+00 -1.027322e+00 -4.536750e+00 -8.394970e-01 -5.037646e+00 -6.649183e-01 -5.516443e+00 -4.809658e-01 -5.813402e+00 -4.799927e-01 -5.871047e+00 -7.241077e-01 -5.669069e+00 -9.820542e-01 -5.705041e+00 -8.721768e-01 -5.847885e+00 -9.162274e-01 -5.757811e+00 -1.001021e+00 -5.733458e+00 -1.087665e+00 -5.585739e+00 -1.151552e+00 -5.722760e+00 -9.034454e-01 -5.604369e+00 -1.317284e+00 -4.907788e+00 -1.891033e+00 -4.505790e+00 -1.809254e+00 -4.746978e+00 -1.158758e+00 -5.123834e+00 -6.418106e-01 -5.354165e+00 -3.653711e-01 -4.950892e+00 -9.281495e-01 -3.606582e+00 -2.106629e+00 -1.643566e+00 -3.743978e+00 4.776375e-01 -5.246365e+00 4.512518e+00 -9.714108e+00 
-5.196116e-02 1.243094e-01 -1.128677e-01 -4.971313e-03 -1.324032e+01 -7.125012e-02 6.274543e-03 2.422572e-03 -1.648404e-02 8.807833e-04 -1.977977e-02 -1.678591e-04 -2.033580e-02 -2.253333e-03 -2.217176e-02 -3.763657e-03 -2.450949e-02 -3.919027e-03 -2.658657e-02 -3.577413e-03 -2.842254e-02 -3.355242e-03 -2.961430e-02 -3.213031e-03 -3.000398e-02 -3.579206e-03 -2.976406e-02 -4.837370e-03 -2.972844e-02 -5.891343e-03 -2.981316e-02 -5.924244e-03 -2.963285e-02 -6.188385e-03 -2.926981e-02 -6.881075e-03 -2.903994e-02 -7.206800e-03 -2.839385e-02 -7.821449e-03 -2.787127e-02 -8.064463e-03 -2.739597e-02 -7.378600e-03 -2.612040e-02 -7.101993e-03 -2.356306e-02 -8.993122e-03 -2.148773e-02 -1.095750e-02 -2.079536e-02 -1.092315e-02 -2.191511e-02 -7.592324e-03 -2.336988e-02 -2.547640e-03 -2.220897e-02 9.936286e-04 -1.525684e-02 -1.513691e-03 -5.028654e-03 -2.245292e-02 5.001539e-02 -3.224933e-02 
-1.803152e-02 -8.707262e-02 -5.670727e-02 9.940945e-02 -1.167464e+01 -2.359359e-01 2.247419e-02 -9.086691e-03 1.527033e-02 -4.793520e-03 8.718679e-03 -3.050299e-03 4.916382e-03 -2.231853e-03 2.762964e-03 -1.652007e-03 1.524628e-03 -1.228634e-03 8.995359e-04 -9.277094e-04 6.378516e-04 -7.009353e-04 5.140022e-04 -3.321174e-04 4.076277e-04 -1.246535e-04 3.392291e-04 -2.347695e-04 4.754080e-05 -4.190813e-04 -1.739316e-05 -1.145206e-04 -3.113270e-06 1.134779e-05 4.328380e-05 -6.015570e-06 9.120295e-05 1.181465e-04 6.323101e-05 1.014461e-04 -2.719142e-04 -1.550847e-06 -6.979397e-05 4.023209e-04 4.009953e-04 8.005594e-04 3.182431e-04 5.260335e-04 -3.163335e-04 2.604832e-05 -7.741043e-04 -3.027832e-04 -1.256946e-03 -1.257603e-04 -1.620196e-03 5.604223e-04 -2.057448e-03 1.353951e-03 -3.857353e-03 2.239595e-03 -7.061805e-03 1.045379e-02 1.091092e-02 6.730292e-02 
-3.341012e-02 -3.763632e-02 -5.386179e-02 4.035135e-01 -1.754611e+01 -6.142886e-01 2.614114e-02 -5.536111e-03 2.031894e-02 -4.044985e-03 1.161800e-02 -3.049244e-03 6.446846e-03 -2.529773e-03 3.358671e-03 -2.230556e-03 1.604478e-03 -1.974838e-03 7.260665e-04 -1.592573e-03 4.570484e-04 -1.197851e-03 4.207519e-04 -7.000357e-04 4.438671e-04 -4.174517e-04 3.889810e-04 -3.319218e-04 2.056278e-04 -3.723697e-04 9.684757e-05 -1.648631e-04 9.044189e-05 -5.960616e-05 1.161284e-04 3.826921e-05 1.461192e-04 1.071114e-04 8.606975e-05 1.858488e-04 -5.033077e-05 2.376149e-04 1.186750e-04 5.742871e-04 4.085299e-04 7.614843e-04 2.559361e-04 5.431342e-04 -3.565231e-04 7.631597e-05 -8.998651e-04 -6.162537e-05 -1.215211e-03 4.470691e-04 -1.101426e-03 1.525150e-03 -8.518121e-04 2.653822e-03 -1.676537e-03 3.345625e-03 -4.420685e-03 6.954776e-03 3.913914e-04 3.546287e-02 
-1.183801e-02 -1.403870e-02 -2.363962e-02 2.854884e-01 -1.594631e+01 -4.754752e-01 6.806820e-03 -6.009569e-03 1.150011e-02 -5.629681e-03 7.806936e-03 -4.295598e-03 4.916790e-03 -3.132662e-03 3.051355e-03 -2.288503e-03 2.040189e-03 -1.906500e-03 1.370608e-03 -1.365295e-03 1.015894e-03 -1.140376e-03 7.361248e-04 -6.744203e-04 5.678479e-04 -5.842116e-04 3.986701e-04 -3.491954e-04 2.490867e-04 -4.305707e-04 1.485966e-04 -1.191280e-04 1.261293e-04 -1.299109e-04 1.087418e-04 1.050400e-04 1.046959e-04 6.905474e-05 4.927102e-05 2.931049e-04 -5.153939e-05 2.367450e-04 -1.571791e-05 5.899410e-04 8.562774e-05 6.314570e-04 3.674904e-05 6.932207e-04 -2.032328e-04 3.243563e-04 -4.720936e-04 3.681048e-04 -1.018107e-03 7.276190e-04 -1.706145e-03 1.333389e-03 -2.576990e-03 2.300147e-03 -3.651581e-03 4.451930e-03 -3.578746e-03 1.043165e-02 1.298555e-03 1.766935e-02 
-1.616443e-02 -4.308461e-03 -2.334998e-02 3.058644e-01 -1.966484e+01 -5.364787e-01 6.640578e-03 -4.850081e-03 1.354667e-02 -4.502450e-03 9.285280e-03 -3.663489e-03 5.725053e-03 -2.934523e-03 3.331828e-03 -2.497547e-03 2.141232e-03 -2.371683e-03 1.183453e-03 -1.788035e-03 8.537639e-04 -1.555673e-03 5.372434e-04 -9.474521e-04 4.895599e-04 -8.437604e-04 3.155594e-04 -4.428017e-04 2.529346e-04 -5.223831e-04 1.213073e-04 -1.433361e-04 1.237328e-04 -2.159708e-04 7.651800e-05 1.272996e-04 8.803224e-05 3.393250e-05 2.601669e-05 3.738269e-04 -1.501566e-05 3.059201e-04 7.361171e-06 7.136800e-04 3.879602e-05 6.386638e-04 -2.655510e-05 7.758077e-04 -2.543855e-04 3.855445e-04 -3.700347e-04 5.703215e-04 -7.314536e-04 1.179757e-03 -1.075178e-03 2.039309e-03 -1.527288e-03 3.029416e-03 -2.518604e-03 4.372611e-03 -4.086606e-03 7.306527e-03 -5.398659e-03 1.155981e-02 
-4.376911e-03 7.874675e-04 -6.333071e-03 2.102334e-01 -1.808879e+01 -4.241496e-01 -4.592394e-03 -4.828950e-03 5.665002e-03 -5.330453e-03 4.865788e-03 -4.502920e-03 3.373193e-03 -3.311710e-03 2.119382e-03 -2.346495e-03 1.989731e-03 -2.795665e-03 1.328163e-03 -1.539557e-03 1.155483e-03 -1.874305e-03 6.966635e-04 -6.643849e-04 6.116093e-04 -1.210940e-03 3.352955e-04 -1.571475e-04 2.946715e-04 -8.606343e-04 1.365074e-04 1.767925e-04 1.429146e-04 -5.473290e-04 6.777792e-05 4.635296e-04 6.188650e-05 -2.741752e-04 -3.629967e-06 7.358588e-04 -7.401491e-05 3.476889e-05 -9.692716e-05 1.091286e-03 -1.664160e-04 4.206744e-04 -1.484102e-04 1.239661e-03 -2.124942e-04 9.906793e-05 2.402180e-05 5.931779e-04 -6.517890e-04 1.312338e-03 -1.394851e-03 2.084782e-03 -2.056607e-03 3.181193e-03 -2.476176e-03 5.069474e-03 -2.104361e-03 7.939482e-03 -9.925524e-04 8.813385e-03 
-6.392588e-03 3.553021e-03 -7.123565e-03 2.097943e-01 -2.051281e+01 -4.486252e-01 -5.239794e-03 -5.218531e-03 6.464769e-03 -4.759835e-03 5.507403e-03 -3.818437e-03 3.567223e-03 -2.789001e-03 1.901684e-03 -2.372639e-03 2.494847e-03 -3.300888e-03 1.007590e-03 -1.652137e-03 1.282014e-03 -2.319584e-03 3.703528e-04 -6.804647e-04 6.815074e-04 -1.575830e-03 1.304598e-04 -6.150479e-05 3.725992e-04 -1.138568e-03 1.857862e-05 3.350855e-04 1.981380e-04 -7.955027e-04 -4.924950e-06 6.589669e-04 8.488215e-05 -4.795382e-04 -2.875337e-05 9.740501e-04 -7.448590e-05 -1.061924e-04 -7.854344e-05 1.363416e-03 -2.708679e-04 3.204553e-04 -1.259692e-04 1.563601e-03 -3.486763e-04 8.120480e-05 4.728784e-04 6.658892e-04 -2.129221e-04 1.587056e-03 -8.682380e-04 2.486502e-03 -1.424952e-03 3.455196e-03 -2.109967e-03 4.688586e-03 -2.962305e-03 6.313874e-03 -3.970594e-03 7.184097e-03 
1.006239e-03 4.621919e-03 2.282780e-03 1.434636e-01 -1.894530e+01 -3.651170e-01 -1.162805e-02 -5.157319e-03 6.084025e-04 -5.251392e-03 1.623694e-03 -4.426613e-03 1.041781e-03 -2.813017e-03 -4.083594e-04 -8.012734e-04 2.386641e-03 -5.496311e-03 7.545978e-04 -1.107221e-04 1.561688e-03 -4.222174e-03 2.694009e-04 1.130160e-03 8.311788e-04 -3.471631e-03 5.667841e-05 1.821165e-03 4.325843e-04 -3.056048e-03 -4.649495e-06 2.256424e-03 2.020407e-04 -2.722060e-03 6.363325e-06 2.592947e-03 2.753232e-05 -2.388298e-03 9.100633e-06 2.915620e-03 -2.065388e-04 -1.948319e-03 -5.988474e-05 3.370633e-03 -5.856226e-04 -1.294030e-03 -2.065821e-04 3.819531e-03 -6.632889e-04 -1.857095e-03 1.590544e-03 4.756195e-04 -9.586196e-05 1.848281e-03 -9.713097e-04 2.715919e-03 -1.313462e-03 3.697961e-03 -1.264256e-03 5.051585e-03 -6.830496e-04 6.530583e-03 3.139523e-04 6.814187e-03 
-2.046322e-04 5.785271e-03 1.390999e-03 1.379319e-01 -2.048809e+01 -3.747985e-01 -1.190984e-02 -5.996065e-03 1.120543e-03 -5.188888e-03 2.030740e-03 -3.841315e-03 7.525664e-04 -1.588095e-03 -2.408100e-03 -6.207171e-04 5.058970e-03 -7.011842e-03 -9.515859e-04 8.842815e-04 2.987066e-03 -5.491783e-03 -1.063408e-03 2.221156e-03 1.753819e-03 -4.769637e-03 -8.463813e-04 2.989396e-03 1.053978e-03 -4.339520e-03 -5.714704e-04 3.480148e-03 5.763097e-04 -3.986740e-03 -2.920642e-04 3.841977e-03 1.673701e-04 -3.612720e-03 -2.739500e-05 4.170590e-03 -3.298822e-04 -3.101913e-03 1.786721e-04 4.616969e-03 -1.119344e-03 -2.293313e-03 2.808756e-04 5.219275e-03 -1.793270e-03 -2.347553e-03 3.175615e-03 2.153643e-04 3.767050e-04 1.994481e-03 -7.376912e-04 2.959616e-03 -1.095515e-03 3.792500e-03 -1.273232e-03 4.746545e-03 -1.341077e-03 5.764806e-03 -1.122793e-03 6.319788e-03 
4.535524e-03 5.838932e-03 6.949127e-03 8.944217e-02 -1.890904e+01 -3.088995e-01 -1.536608e-02 -5.940503e-03 -2.792238e-03 -5.687504e-03 -6.069417e-04 -4.857182e-03 -7.995684e-04 -2.101771e-03 -8.152105e-03 1.035625e-02 8.446427e-03 -1.710207e-02 -2.064283e-03 1.279445e-02 5.068759e-03 -1.513481e-02 -1.892092e-03 1.450218e-02 3.326331e-03 -1.491995e-02 -1.205800e-03 1.533574e-02 2.271366e-03 -1.489058e-02 -5.754035e-04 1.580680e-02 1.493807e-03 -1.477949e-02 -1.405767e-05 1.605599e-02 8.067573e-04 -1.452536e-02 5.153046e-04 1.617604e-02 1.767376e-05 -1.403311e-02 9.732920e-04 1.643734e-02 -1.274819e-03 -1.293006e-02 8.494994e-04 1.797680e-02 -3.511474e-03 -1.256268e-02 7.778907e-03 1.115777e-03 -2.839952e-04 2.941243e-03 -1.058200e-03 3.400779e-03 -7.804504e-04 4.024527e-03 -2.136176e-04 4.922662e-03 7.472157e-04 5.840321e-03 2.246413e-03 6.234632e-03 
3.659946e-03 6.442436e-03 6.149751e-03 8.121914e-02 -1.980269e+01 -3.089590e-01 -1.509029e-02 -6.848601e-03 -2.020144e-03 -6.257029e-03 4.938274e-04 -5.066523e-03 -1.187025e-04 1.281586e-03 -1.858876e-02 2.063607e-01 3.965438e-01 1.990806e-01 -1.111137e-02 2.020545e-01 3.744790e-01 1.869813e-01 -7.944559e-03 2.015632e-01 3.743772e-01 1.840144e-01 -4.821831e-03 2.011033e-01 3.749341e-01 1.819543e-01 -2.313972e-03 1.998418e-01 3.739240e-01 1.796641e-01 -1.741692e-04 1.973675e-01 3.707116e-01 1.765947e-01 1.906858e-03 1.933599e-01 3.648460e-01 1.723483e-01 4.119124e-03 1.881919e-01 3.566213e-01 1.673518e-01 5.906582e-03 1.883903e-01 3.545270e-01 1.671754e-01 1.615650e-02 5.797883e-04 -8.620107e-04 3.434490e-03 -1.538463e-03 3.760879e-03 -9.644103e-04 4.119573e-03 -4.103747e-04 4.735450e-03 2.573158e-04 5.466671e-03 1.410992e-03 6.068349e-03 
6.654944e-03 6.188131e-03 9.593839e-03 4.084423e-02 -1.820179e+01 -2.508711e-01 -1.672269e-02 -6.648328e-03 -4.528256e-03 -6.767422e-03 -5.200169e-04 -7.773287e-03 5.266585e-03 -1.059746e-02 -2.156303e-02 3.322987e+00 7.363078e+00 4.069649e+00 1.957672e-02 3.332199e+00 7.311437e+00 4.032166e+00 2.154651e-02 3.429452e+00 7.519657e+00 4.138109e+00 2.613809e-02 3.502758e+00 7.679053e+00 4.220362e+00 2.983389e-02 3.545162e+00 7.772475e+00 4.268252e+00 3.284430e-02 3.558921e+00 7.805038e+00 4.283976e+00 3.557321e-02 3.547424e+00 7.785085e+00 4.271924e+00 3.830662e-02 3.525754e+00 7.747769e+00 4.252491e+00 3.905089e-02 3.632578e+00 7.994892e+00 4.415646e+00 5.475674e-02 1.406057e-02 -8.847697e-03 5.711666e-03 -2.469163e-03 4.152557e-03 -4.982672e-04 4.174066e-03 6.754779e-04 4.722672e-03 1.990653e-03 5.394319e-03 3.852003e-03 5.905826e-03 
5.905597e-03 6.439295e-03 8.863628e-03 3.013288e-02 -1.859401e+01 -2.430417e-01 -1.605507e-02 -7.327220e-03 -3.581553e-03 -8.144007e-03 2.200976e-03 -1.327331e-02 1.590844e-02 -3.557570e-02 2.475079e-02 4.533405e+00 1.007078e+01 5.517691e+00 7.544985e-02 4.585940e+00 1.008851e+01 5.512404e+00 6.358312e-02 4.758202e+00 1.042912e+01 5.692282e+00 5.788566e-02 4.887543e+00 1.068822e+01 5.831072e+00 5.358973e-02 4.967398e+00 1.084723e+01 5.917509e+00 4.978524e-02 5.003767e+00 1.091745e+01 5.957721e+00 4.580764e-02 5.004090e+00 1.091450e+01 5.960762e+00 4.094581e-02 4.992398e+00 1.089242e+01 5.958482e+00 3.230881e-02 5.167807e+00 1.129371e+01 6.226833e+00 3.290716e-02 2.925352e-02 -1.583026e-02 8.782185e-03 -3.981898e-03 4.786957e-03 -8.000864e-04 4.204605e-03 4.984127e-04 4.531120e-03 1.634153e-03 5.128198e-03 3.259154e-03 5.772195e-03 
7.721689e-03 6.039357e-03 1.099789e-02 -4.591320e-03 -1.697507e+01 -1.902405e-01 -1.672560e-02 -6.512268e-03 -6.050928e-03 -6.747377e-03 -2.118246e-03 -8.795645e-03 2.967412e-03 -1.582240e-02 2.524930e-02 -1.777362e+00 -3.877463e+00 -2.143136e+00 2.836138e-02 -1.770926e+00 -3.794460e+00 -2.089362e+00 1.665744e-02 -1.799640e+00 -3.865596e+00 -2.116944e+00 6.307748e-03 -1.821059e+00 -3.921111e+00 -2.139158e+00 -1.820721e-03 -1.829965e+00 -3.948714e+00 -2.148239e+00 -8.705175e-03 -1.825653e+00 -3.948100e+00 -2.143121e+00 -1.541847e-02 -1.808076e+00 -3.920805e+00 -2.123955e+00 -2.303685e-02 -1.783150e+00 -3.881837e+00 -2.099099e+00 -3.198904e-02 -1.820185e+00 -3.978793e+00 -2.173585e+00 -2.447950e-02 2.772187e-03 -9.618415e-05 3.647415e-03 1.001985e-04 3.476229e-03 7.623777e-04 3.747989e-03 1.694790e-03 4.280339e-03 3.017849e-03 4.900108e-03 4.936557e-03 5.487849e-03 
6.996226e-03 5.993603e-03 1.026184e-02 -1.542797e-02 -1.697110e+01 -1.778627e-01 -1.617554e-02 -5.935139e-03 -6.755947e-03 -4.495053e-03 -5.957253e-03 -7.500068e-04 -1.354375e-02 1.384520e-02 -2.132046e-03 -4.709655e+00 -1.047562e+01 -5.769674e+00 -5.295749e-02 -4.755734e+00 -1.046129e+01 -5.747531e+00 -4.713755e-02 -4.921911e+00 -1.079768e+01 -5.920656e+00 -4.751903e-02 -5.046312e+00 -1.105429e+01 -6.054467e+00 -4.810200e-02 -5.121498e+00 -1.120994e+01 -6.136120e+00 -4.847853e-02 -5.152706e+00 -1.127498e+01 -6.170812e+00 -4.861125e-02 -5.146641e+00 -1.126433e+01 -6.166856e+00 -4.836612e-02 -5.127077e+00 -1.123222e+01 -6.156145e+00 -4.441167e-02 -5.298196e+00 -1.162677e+01 -6.421328e+00 -4.904031e-02 -1.840539e-02 1.438290e-02 -1.774755e-03 3.594747e-03 1.891144e-03 1.689606e-03 3.129320e-03 1.842120e-03 3.896051e-03 2.790601e-03 4.587957e-03 4.438449e-03 5.273728e-03 
8.004422e-03 5.504376e-03 1.144852e-02 -3.760630e-02 -1.535110e+01 -1.376454e-01 -1.610579e-02 -5.116108e-03 -8.073862e-03 -3.537992e-03 -7.047337e-03 2.224155e-04 -1.076084e-02 1.254544e-02 -3.929334e-03 -1.568076e+00 -3.505316e+00 -1.909383e+00 -4.103564e-02 -1.592787e+00 -3.528486e+00 -1.922967e+00 -3.169841e-02 -1.663085e+00 -3.662115e+00 -1.996586e+00 -2.711890e-02 -1.715450e+00 -3.764075e+00 -2.053058e+00 -2.386691e-02 -1.748796e+00 -3.828503e+00 -2.089541e+00 -2.109425e-02 -1.766041e+00 -3.860413e+00 -2.109077e+00 -1.824469e-02 -1.770535e+00 -3.866303e+00 -2.115747e+00 -1.462198e-02 -1.771606e+00 -3.865804e+00 -2.121902e+00 -7.869779e-03 -1.840967e+00 -4.012808e+00 -2.217593e+00 -2.670392e-02 -1.209741e-02 7.550204e-03 -1.747784e-03 3.158834e-03 1.376692e-03 2.254484e-03 2.721541e-03 2.634074e-03 3.570846e-03 3.734436e-03 4.270249e-03 5.489581e-03 4.902075e-03 
7.248157e-03 5.286578e-03 1.061844e-02 -4.386141e-02 -1.503284e+01 -1.265997e-01 -1.516163e-02 -4.767616e-03 -7.770922e-03 -3.196242e-03 -6.527230e-03 -9.111139e-04 -6.309939e-03 1.604750e-03 4.173360e-04 -2.171761e-02 -3.426539e-03 2.398917e-02 -1.149247e-02 -2.028237e-02 -5.503930e-03 2.148332e-02 -7.294903e-03 -2.359673e-02 -7.308343e-03 1.998979e-02 -4.963542e-03 -2.583231e-02 -9.124264e-03 1.893974e-02 -3.349841e-03 -2.739723e-02 -1.059919e-02 1.797846e-02 -2.013704e-03 -2.853137e-02 -1.179384e-02 1.691728e-02 -6.704536e-04 -2.946813e-02 -1.277577e-02 1.554094e-02 1.087549e-03 -3.067270e-02 -1.322773e-02 1.340399e-02 4.360926e-03 -3.332333e-02 -1.278250e-02 1.516952e-02 -6.625643e-03 -1.702906e-03 3.008911e-03 -5.538354e-04 2.750321e-03 1.209861e-03 2.303093e-03 2.388409e-03 2.551800e-03 3.236308e-03 3.437965e-03 3.953133e-03 4.967328e-03 4.624454e-03 
7.680878e-03 4.773575e-03 1.105999e-02 -5.334110e-02 -1.342457e+01 -9.933884e-02 -1.453804e-02 -4.257172e-03 -8.110908e-03 -3.010775e-03 -6.561952e-03 -1.635391e-03 -5.392610e-03 -1.567397e-03 -1.939775e-04 -1.315278e-02 3.534907e-03 6.663572e-03 -5.081847e-03 -1.007091e-02 1.924044e-03 7.680533e-03 -3.228830e-03 -1.005159e-02 1.769614e-03 8.278648e-03 -2.082382e-03 -9.930019e-03 1.404832e-03 8.794868e-03 -1.356408e-03 -9.747984e-03 1.006230e-03 9.175309e-03 -7.904793e-04 -9.537302e-03 6.208173e-04 9.431614e-03 -2.186155e-04 -9.320972e-03 2.767821e-04 9.538866e-03 5.815751e-04 -9.230718e-03 1.155016e-04 9.380129e-03 1.892216e-03 -9.253726e-03 -1.070708e-03 1.173905e-02 -3.442138e-03 8.033478e-04 1.851985e-03 3.061921e-04 2.326078e-03 1.282221e-03 2.440300e-03 2.205428e-03 2.950801e-03 2.965415e-03 3.959431e-03 3.623466e-03 5.511879e-03 4.220963e-03 
6.867706e-03 4.475441e-03 1.008477e-02 -5.418350e-02 -1.285173e+01 -9.117422e-02 -1.328925e-02 -4.069358e-03 -7.284314e-03 -3.050410e-03 -5.559422e-03 -2.297388e-03 -3.813160e-03 -2.813260e-03 -4.578161e-04 -7.249398e-03 1.278255e-03 1.076740e-03 -2.531479e-03 -4.579033e-03 3.208289e-04 2.057015e-03 -1.615235e-03 -4.217949e-03 4.957319e-04 2.479501e-03 -9.539913e-04 -3.934188e-03 4.682981e-04 2.850460e-03 -5.651768e-04 -3.667442e-03 3.592872e-04 3.152868e-03 -2.777220e-04 -3.427083e-03 2.427195e-04 3.390940e-03 2.223127e-05 -3.221652e-03 1.783508e-04 3.546192e-03 4.806463e-04 -3.108533e-03 2.519664e-04 3.632951e-03 1.055603e-03 -2.690871e-03 -8.127709e-04 5.834265e-03 -1.881720e-03 1.806763e-03 8.723408e-04 9.533076e-04 1.778643e-03 1.384163e-03 2.139906e-03 2.056625e-03 2.650368e-03 2.713099e-03 3.539736e-03 3.328154e-03 4.914567e-03 3.915029e-03 
6.877008e-03 3.973332e-03 9.948362e-03 -5.466964e-02 -1.126322e+01 -7.320133e-02 -1.233742e-02 -3.691746e-03 -7.111284e-03 -2.914957e-03 -5.398712e-03 -2.437012e-03 -3.714401e-03 -2.829740e-03 -1.297157e-03 -4.755492e-03 -2.366393e-04 -5.959126e-04 -1.555538e-03 -2.952775e-03 -3.884749e-04 3.635044e-04 -9.692783e-04 -2.458779e-03 -7.513208e-05 8.053433e-04 -5.242059e-04 -2.142068e-03 6.103894e-05 1.143533e-03 -2.751878e-04 -1.878037e-03 9.611164e-05 1.414051e-03 -1.090365e-04 -1.650245e-03 1.051903e-04 1.634190e-03 5.695928e-05 -1.450327e-03 1.462936e-04 1.810109e-03 3.038007e-04 -1.274353e-03 2.497269e-04 2.029537e-03 5.235267e-04 -7.563284e-04 -3.031488e-04 3.545666e-03 -7.371794e-04 1.750341e-03 8.458333e-04 1.182741e-03 1.630142e-03 1.438476e-03 2.138987e-03 1.942528e-03 2.776981e-03 2.483495e-03 3.721472e-03 3.009342e-03 5.064651e-03 3.510187e-03 
6.004788e-03 3.633505e-03 8.831268e-03 -5.156571e-02 -1.047971e+01 -6.689243e-02 -1.094277e-02 -3.487955e-03 -6.143713e-03 -2.841239e-03 -4.524894e-03 -2.477797e-03 -3.010887e-03 -2.629324e-03 -1.360309e-03 -3.235014e-03 -5.395906e-04 -1.432406e-03 -1.026875e-03 -1.904521e-03 -4.698360e-04 -5.851306e-04 -6.393834e-04 -1.378045e-03 -1.955064e-04 -1.783128e-04 -3.265349e-04 -1.053386e-03 -4.753023e-05 1.189247e-04 -1.506969e-04 -7.966496e-04 1.642066e-05 3.596385e-04 -3.651354e-05 -5.799718e-04 5.647351e-05 5.651460e-04 7.642792e-05 -3.863659e-04 1.179153e-04 7.546094e-04 2.339649e-04 -1.811121e-04 1.947011e-04 1.041301e-03 2.998241e-04 3.530580e-04 -1.894370e-04 2.117515e-03 -2.775566e-04 1.564829e-03 6.061744e-04 1.277207e-03 1.261022e-03 1.441509e-03 1.768205e-03 1.817711e-03 2.365045e-03 2.263211e-03 3.206783e-03 2.725930e-03 4.393824e-03 3.188876e-03 
5.699442e-03 3.146381e-03 8.274767e-03 -4.729065e-02 -8.917836e+00 -5.399051e-02 -9.776984e-03 -3.130075e-03 -5.677593e-03 -2.623094e-03 -4.234738e-03 -2.293175e-03 -3.004416e-03 -2.168312e-03 -1.874833e-03 -2.180618e-03 -9.718617e-04 -1.727389e-03 -9.026830e-04 -1.398603e-03 -5.348855e-04 -1.008429e-03 -5.208644e-04 -8.601810e-04 -2.670828e-04 -5.915850e-04 -2.645846e-04 -5.327311e-04 -1.102063e-04 -3.116031e-04 -1.144515e-04 -2.933860e-04 -2.824395e-05 -9.372807e-05 -2.005671e-05 -9.514528e-05 2.373652e-05 9.763360e-05 6.091072e-05 9.486728e-05 7.445769e-05 3.025820e-04 1.463684e-04 3.378814e-04 1.081063e-04 6.273921e-04 1.778191e-04 7.963988e-04 4.011614e-05 1.200025e-03 3.012734e-04 1.197663e-03 7.349763e-04 1.228564e-03 1.183597e-03 1.407587e-03 1.677014e-03 1.695115e-03 2.300403e-03 2.040206e-03 3.134398e-03 2.410715e-03 4.247560e-03 2.787183e-03 
4.782857e-03 2.772669e-03 7.057566e-03 -4.221558e-02 -7.957631e+00 -4.788838e-02 -8.298438e-03 -2.859674e-03 -4.675666e-03 -2.423948e-03 -3.439818e-03 -2.078571e-03 -2.514983e-03 -1.746674e-03 -1.835952e-03 -1.476452e-03 -7.932784e-04 -1.824176e-03 -7.119918e-04 -9.833922e-04 -3.513066e-04 -1.203984e-03 -4.085663e-04 -4.829872e-04 -1.801723e-04 -8.195912e-04 -2.162320e-04 -1.819999e-04 -7.578219e-05 -5.699129e-04 -9.279456e-05 3.187863e-05 -1.964186e-05 -3.769608e-04 -1.051648e-05 2.094733e-04 1.298224e-05 -2.023552e-04 5.576132e-05 3.880353e-04 3.171675e-05 7.317170e-07 1.030130e-04 6.367237e-04 4.597613e-06 3.274024e-04 1.013250e-04 1.034842e-03 2.033573e-05 6.117185e-04 5.396119e-04 8.967838e-04 6.374267e-04 1.127503e-03 8.880101e-04 1.319938e-03 1.292495e-03 1.544621e-03 1.839753e-03 1.814798e-03 2.566020e-03 2.120205e-03 3.527533e-03 2.446759e-03 
4.245480e-03 2.290836e-03 6.225336e-03 -3.682776e-02 -6.430416e+00 -3.645421e-02 -6.943880e-03 -2.494550e-03 -3.983533e-03 -2.196446e-03 -2.923523e-03 -1.894234e-03 -2.315362e-03 -1.243854e-03 -2.431147e-03 5.054566e-05 -8.751741e-04 -2.792220e-03 -5.423209e-04 1.066987e-04 -2.996075e-04 -2.183399e-03 -3.159809e-04 6.375766e-04 -1.959327e-04 -1.804057e-03 -1.640578e-04 9.328035e-04 -1.143679e-04 -1.582029e-03 -5.090165e-05 1.125819e-03 -6.668688e-05 -1.416135e-03 2.687688e-05 1.281621e-03 -4.402243e-05 -1.258861e-03 8.155735e-05 1.449461e-03 -5.220220e-05 -1.047467e-03 8.767468e-05 1.729366e-03 -1.500509e-04 -6.649122e-04 1.945700e-05 2.160831e-03 -1.094699e-06 -8.212542e-04 1.283782e-03 5.404874e-04 6.607313e-04 1.110874e-03 7.000688e-04 1.282237e-03 1.087069e-03 1.407106e-03 1.630625e-03 1.577550e-03 2.311079e-03 1.794422e-03 3.166413e-03 2.040302e-03 
3.308663e-03 1.879029e-03 4.967647e-03 -3.160853e-02 -5.321279e+00 -2.899776e-02 -5.388267e-03 -2.164544e-03 -2.953377e-03 -1.960028e-03 -2.081020e-03 -1.678877e-03 -1.782205e-03 -8.083799e-04 -2.690085e-03 1.084304e-03 -4.016159e-04 -3.405672e-03 -4.454156e-04 1.000561e-03 2.081513e-05 -2.796946e-03 -2.994512e-04 1.484528e-03 -3.124488e-05 -2.450330e-03 -1.703544e-04 1.733593e-03 -4.191132e-05 -2.258052e-03 -4.960164e-05 1.889406e-03 -5.504100e-05 -2.116888e-03 4.559795e-05 2.016254e-03 -8.393953e-05 -1.980295e-03 1.156946e-04 2.163205e-03 -1.558187e-04 -1.783430e-03 1.173808e-04 2.436043e-03 -3.612909e-04 -1.401277e-03 9.294576e-06 2.875859e-03 -2.657934e-04 -1.711900e-03 1.822352e-03 2.904845e-04 5.099528e-04 1.032049e-03 3.561010e-04 1.177388e-03 6.800423e-04 1.230967e-03 1.155428e-03 1.328436e-03 1.727988e-03 1.480448e-03 2.429443e-03 1.671459e-03 
2.603399e-03 1.391215e-03 3.981212e-03 -2.804853e-02 -3.839000e+00 -1.615412e-02 -3.859691e-03 -1.766798e-03 -2.084682e-03 -1.801674e-03 -1.185755e-03 -1.899760e-03 -8.235527e-04 -1.075333e-03 -4.498395e-03 7.054208e-03 3.220604e-04 -9.266091e-03 4.121969e-04 7.146528e-03 3.089462e-04 -8.209747e-03 1.363745e-04 7.749637e-03 1.767898e-04 -7.926185e-03 2.071501e-04 8.006893e-03 1.737872e-04 -7.806391e-03 3.100210e-04 8.151286e-03 1.698778e-04 -7.713369e-03 3.967259e-04 8.251007e-03 1.437012e-04 -7.605799e-03 4.617786e-04 8.361157e-03 6.146618e-05 -7.421137e-03 4.381865e-04 8.647188e-03 -2.457390e-04 -6.937153e-03 4.495563e-06 9.678684e-03 -6.648158e-04 -7.198194e-03 4.211711e-03 7.793892e-04 -1.405358e-04 1.425608e-03 -1.449009e-04 1.206113e-03 3.577445e-04 1.064959e-03 8.562956e-04 1.054522e-03 1.357600e-03 1.128454e-03 1.922185e-03 1.250042e-03 
1.674819e-03 9.359748e-04 2.744509e-03 -2.421607e-02 -2.604672e+00 -6.026250e-03 -2.248799e-03 -1.358505e-03 -1.064704e-03 -1.566807e-03 -1.909259e-04 -1.967395e-03 3.187648e-04 -1.470888e-03 -5.742440e-03 8.511472e-02 1.720443e-01 8.428266e-02 1.717965e-03 8.628477e-02 1.711658e-01 8.464432e-02 1.128206e-03 8.987362e-02 1.766830e-01 8.751628e-02 1.190413e-03 9.238944e-02 1.811324e-01 8.970348e-02 1.322838e-03 9.392876e-02 1.839417e-01 9.110862e-02 1.447301e-03 9.463408e-02 1.852358e-01 9.183505e-02 1.551278e-03 9.465931e-02 1.851969e-01 9.205236e-02 1.548652e-03 9.453556e-02 1.843993e-01 9.244958e-02 9.183056e-04 9.812717e-02 1.891463e-01 9.593046e-02 6.967678e-03 1.435063e-03 -8.982150e-04 1.591816e-03 -6.583587e-04 1.110208e-03 -5.247750e-05 8.453947e-04 4.125130e-04 7.620431e-04 8.032010e-04 7.777791e-04 1.204306e-03 8.454749e-04 
8.523324e-04 4.374360e-04 1.687780e-03 -2.428172e-02 -1.181232e+00 9.947520e-03 -6.369801e-04 -8.084930e-04 -2.422497e-04 -1.281150e-03 9.930617e-04 -2.927229e-03 4.923625e-03 -8.659794e-03 -7.432681e-03 1.568621e+00 3.624720e+00 2.062604e+00 2.487672e-02 1.591956e+00 3.618503e+00 2.046567e+00 2.176094e-02 1.653462e+00 3.734590e+00 2.101624e+00 2.140746e-02 1.699272e+00 3.823370e+00 2.144757e+00 2.130251e-02 1.726880e+00 3.877319e+00 2.171232e+00 2.124622e-02 1.738149e+00 3.899900e+00 2.182676e+00 2.119404e-02 1.735409e+00 3.896149e+00 2.181864e+00 2.105058e-02 1.726730e+00 3.884569e+00 2.179894e+00 1.953989e-02 1.781966e+00 4.019424e+00 2.274671e+00 3.033573e-02 9.475971e-03 -5.640575e-03 2.593997e-03 -1.478085e-03 1.003005e-03 -3.093211e-04 5.477509e-04 1.323277e-04 4.133905e-04 3.875734e-04 3.870577e-04 6.086158e-04 4.048030e-04 
-3.786152e-05 -5.629210e-05 5.214506e-04 -2.274334e-02 1.567317e-01 2.347278e-02 9.488187e-04 -2.230094e-04 5.608764e-04 -7.711017e-04 1.766036e-03 -2.816841e-03 6.908126e-03 -1.123086e-02 -4.708954e-03 2.198235e+00 5.076520e+00 2.888886e+00 3.355956e-02 2.232718e+00 5.067030e+00 2.863602e+00 2.946322e-02 2.318252e+00 5.227447e+00 2.938301e+00 2.883282e-02 2.381739e+00 5.349626e+00 2.996716e+00 2.853622e-02 2.419646e+00 5.423191e+00 3.032168e+00 2.833584e-02 2.434551e+00 5.452960e+00 3.046853e+00 2.817198e-02 2.429675e+00 5.445962e+00 3.044582e+00 2.796022e-02 2.416282e+00 5.428334e+00 3.040870e+00 2.626477e-02 2.492106e+00 5.617907e+00 3.176337e+00 3.432152e-02 1.225533e-02 -7.610183e-03 2.602173e-03 -1.900335e-03 6.923010e-04 -5.536916e-04 2.069798e-04 -1.997694e-04 5.604563e-05 -9.245778e-05 -3.240506e-06 -5.535076e-05 -3.202215e-05 
-9.345517e-04 -5.556652e-04 -5.772098e-04 -2.556189e-02 1.501600e+00 4.152677e-02 2.482449e-03 6.581809e-04 7.420607e-04 7.843774e-04 2.403780e-05 1.633632e-03 -2.201921e-03 5.539451e-03 -1.360726e-03 -7.934673e-01 -1.822954e+00 -1.030565e+00 -1.327471e-02 -8.070119e-01 -1.823509e+00 -1.023915e+00 -1.159051e-02 -8.396858e-01 -1.884405e+00 -1.052796e+00 -1.092824e-02 -8.642553e-01 -1.931222e+00 -1.075614e+00 -1.041731e-02 -8.794262e-01 -1.960265e+00 -1.090016e+00 -9.974427e-03 -8.861827e-01 -1.973389e+00 -1.096874e+00 -9.554781e-03 -8.857604e-01 -1.973251e+00 -1.097634e+00 -9.116791e-03 -8.823136e-01 -1.969381e+00 -1.097914e+00 -8.315361e-03 -9.116740e-01 -2.041204e+00 -1.148540e+00 -9.191526e-03 -5.377374e-03 2.552567e-03 -1.268366e-03 4.470517e-04 -5.018405e-04 -1.199463e-04 -3.641248e-04 -3.445759e-04 -3.731115e-04 -5.142207e-04 -4.206187e-04 -7.030303e-04 -4.802779e-04 