# vtk DataFile Version 2.0
Comment goes here
ASCII

DATASET STRUCTURED_POINTS
FIELD FieldData 1
TIME 1 1 double
0.07300000
DIMENSIONS    64   64   1

ORIGIN    0.000   0.000   0.000
SPACING   0.03125 0.03125   1.000

POINT_DATA   4096
SCALARS Omega double
LOOKUP_TABLE default

-2.568566e-01 -1.228229e-01 -8.746659e-02 -4.952514e-01 -1.141035e-01 -3.295401e-02 -2.975227e-02 -2.571468e-01 -3.652174e-02 -2.070870e-01 -5.772684e-03 -1.378201e-01 4.731658e-02 -4.883613e-02 1.223403e-01 3.156348e-02 2.109622e-01 1.206808e-01 3.064729e-01 2.084220e-01 3.434476e-01 2.598112e-01 3.723501e-01 3.176474e-01 3.912750e-01 3.361650e-01 4.059740e-01 3.457878e-01 4.276801e-01 3.661223e-01 4.023243e-01 3.999911e-01 3.531173e-01 4.262581e-01 3.562208e-01 4.229336e-01 3.333807e-01 4.138909e-01 3.264327e-01 4.092795e-01 3.012873e-01 3.816341e-01 2.940139e-01 3.312311e-01 2.492640e-01 3.023313e-01 1.998364e-01 2.624908e-01 1.182529e-01 1.573302e-01 1.025260e-01 6.597048e-02 4.887836e-02 -3.452140e-03 -2.051353e-02 -4.404450e-02 -8.053518e-02 -8.181134e-02 -1.116935e-01 -1.205859e-01 -1.199888e-01 -1.746223e-01 -8.174764e-02 -2.315012e-01 
-2.238361e+01 -3.584931e+01 -1.889686e+01 -3.505356e+01 -2.112165e+01 -3.423629e+01 -2.348504e+01 -3.361833e+01 -2.845497e+01 -3.306042e+01 -3.256918e+01 -3.096900e+01 -3.712020e+01 -2.757526e+01 -4.212721e+01 -2.370337e+01 -4.709683e+01 -1.952757e+01 -5.239031e+01 -1.446702e+01 -5.880935e+01 -8.038132e+00 -6.626654e+01 -8.429736e-01 -7.396231e+01 6.131631e+00 -8.074083e+01 1.165201e+01 -8.576934e+01 1.534436e+01 -8.906656e+01 1.776499e+01 -9.161976e+01 1.989758e+01 -9.393752e+01 2.159556e+01 -9.565601e+01 2.265452e+01 -9.659385e+01 2.297334e+01 -9.669302e+01 2.258042e+01 -9.587157e+01 2.097815e+01 -9.335886e+01 1.761456e+01 -8.888584e+01 1.265950e+01 -8.281742e+01 6.612175e+00 -7.571169e+01 -1.626778e-01 -6.781759e+01 -7.439161e+00 -5.890640e+01 -1.572809e+01 -4.870730e+01 -2.483289e+01 -3.790518e+01 -3.361278e+01 -2.766620e+01 -4.110436e+01 -1.655587e+01 -4.828321e+01 
-6.420222e+01 -4.176649e+00 -5.094120e+01 4.860822e+00 -7.784224e+00 5.640902e+00 -6.191359e+01 -1.158028e+00 -7.996897e+01 -1.957709e+00 -9.151871e+01 -2.756332e+00 -9.933369e+01 -4.129773e+00 -1.048906e+02 -5.588581e+00 -1.093158e+02 -7.079120e+00 -1.126663e+02 -9.013723e+00 -1.143446e+02 -1.172792e+01 -1.146843e+02 -1.493577e+01 -1.141422e+02 -1.816305e+01 -1.136049e+02 -2.045993e+01 -1.136693e+02 -2.177681e+01 -1.142850e+02 -2.259138e+01 -1.146996e+02 -2.366369e+01 -1.147137e+02 -2.460604e+01 -1.146315e+02 -2.525731e+01 -1.145468e+02 -2.562521e+01 -1.143415e+02 -2.585861e+01 -1.139869e+02 -2.554810e+01 -1.139541e+02 -2.433758e+01 -1.142853e+02 -2.246887e+01 -1.145156e+02 -2.009032e+01 -1.143277e+02 -1.737500e+01 -1.134004e+02 -1.453887e+01 -1.118502e+02 -1.092655e+01 -1.099685e+02 -6.471170e+00 -1.072251e+02 -1.605692e+00 -1.024633e+02 3.100455e+00 -1.001551e+02 1.169421e+01 
-3.105105e+01 -1.402226e-01 -2.828012e+01 9.074209e+00 -4.077832e+01 5.142426e+00 -2.272670e+01 1.289670e+01 -3.501687e+01 1.098341e+01 -4.221974e+01 8.545242e+00 -4.660426e+01 5.743960e+00 -4.926955e+01 2.988936e+00 -5.115115e+01 3.934228e-01 -5.220970e+01 -2.423375e+00 -5.209912e+01 -5.874166e+00 -5.097693e+01 -9.426064e+00 -4.933110e+01 -1.271387e+01 -4.770009e+01 -1.523077e+01 -4.663267e+01 -1.662541e+01 -4.601714e+01 -1.746213e+01 -4.544060e+01 -1.816691e+01 -4.465854e+01 -1.865221e+01 -4.396067e+01 -1.887493e+01 -4.338855e+01 -1.878069e+01 -4.298113e+01 -1.844398e+01 -4.265875e+01 -1.764785e+01 -4.283699e+01 -1.612555e+01 -4.357885e+01 -1.397392e+01 -4.473846e+01 -1.158233e+01 -4.594180e+01 -9.112061e+00 -4.695237e+01 -6.585263e+00 -4.800528e+01 -3.650875e+00 -4.920677e+01 -2.360891e-01 -4.995023e+01 3.041430e+00 -4.959875e+01 7.313601e+00 -5.192292e+01 1.055617e+01 
-3.938701e+00 2.282287e+00 -3.898268e+00 -8.823840e+00 -6.356850e+01 -3.597750e+00 1.004822e+01 1.409067e+00 2.261130e+00 9.211628e-01 -4.278584e-01 4.953648e-01 -1.455844e+00 2.242598e-01 -1.911774e+00 3.066876e-02 -2.129966e+00 -9.632225e-02 -2.257563e+00 -1.958132e-01 -2.348272e+00 -2.492047e-01 -2.393416e+00 -2.516149e-01 -2.388931e+00 -2.346764e-01 -2.349201e+00 -2.774542e-01 -2.244207e+00 -3.490592e-01 -2.102702e+00 -4.485319e-01 -1.918381e+00 -5.131606e-01 -1.718691e+00 -5.723494e-01 -1.521619e+00 -6.606628e-01 -1.345655e+00 -8.043430e-01 -1.185592e+00 -9.744053e-01 -1.023866e+00 -1.123955e+00 -8.491283e-01 -1.184706e+00 -6.701389e-01 -1.138253e+00 -5.228060e-01 -9.984499e-01 -4.394192e-01 -7.918655e-01 -4.259206e-01 -5.120786e-01 -4.749780e-01 -1.664236e-01 -6.041324e-01 2.487816e-01 -8.477932e-01 7.097866e-01 -1.224275e+00 1.393547e+00 -2.233035e+00 3.305911e+00 
-3.213807e+00 2.455918e+00 -3.570307e+00 -8.499450e+00 -8.424607e+01 -5.210508e+00 7.958394e+00 -1.443887e+00 4.653160e+00 -6.977378e-02 2.305399e+00 1.504279e-02 1.120803e+00 -4.861250e-02 5.495224e-01 -8.292349e-02 2.758849e-01 -9.842125e-02 1.578350e-01 -1.488673e-01 6.987202e-02 -1.413436e-01 3.238935e-02 -1.289301e-01 -3.530020e-03 -9.968565e-02 -5.523060e-03 -6.547466e-02 -2.739668e-02 -3.420369e-02 -2.841332e-02 -1.798231e-02 -4.989432e-02 -1.125656e-03 -4.594453e-02 -8.295412e-04 -6.016191e-02 1.952637e-02 -5.384565e-02 2.961253e-02 -7.169230e-02 4.991824e-02 -6.701292e-02 5.803496e-02 -8.635229e-02 6.339592e-02 -8.094792e-02 6.234925e-02 -1.036489e-01 9.849116e-02 -1.071477e-01 1.580951e-01 -1.706016e-01 2.614677e-01 -2.833903e-01 4.497910e-01 -4.590138e-01 7.295045e-01 -7.513017e-01 1.143380e+00 -1.269269e+00 1.527504e+00 -1.988146e+00 2.415326e+00 
-3.083307e+00 1.507793e+00 -1.770929e+00 -9.793755e+00 -9.477445e+01 -3.299602e+00 5.938937e+00 -2.005077e+00 4.436168e+00 -5.754671e-01 2.467009e+00 -2.092318e-01 1.249335e+00 -1.508732e-01 6.460585e-01 -1.671114e-01 3.837768e-01 -1.599548e-01 2.633861e-01 -2.316463e-01 1.807782e-01 -2.168008e-01 1.412857e-01 -1.789830e-01 1.327551e-01 -1.054882e-01 1.184920e-01 -6.028508e-02 1.080639e-01 -4.789269e-03 8.226278e-02 2.053245e-02 6.572522e-02 5.106397e-02 3.870267e-02 5.546095e-02 2.359715e-02 7.713885e-02 -7.791621e-03 8.721821e-02 -3.272834e-02 1.098664e-01 -7.242509e-02 1.085045e-01 -9.067106e-02 1.125155e-01 -1.076971e-01 1.104465e-01 -1.107011e-01 1.501111e-01 -1.816386e-01 2.371337e-01 -2.908997e-01 3.945767e-01 -4.289145e-01 6.078848e-01 -6.414255e-01 8.704693e-01 -9.813926e-01 1.203535e+00 -1.499325e+00 1.595943e+00 -2.258196e+00 2.004829e+00 
-2.871293e+00 1.107817e+00 -1.261836e+00 -8.573468e+00 -1.071626e+02 -2.653573e+00 3.158352e+00 -2.974162e+00 3.389806e+00 -1.293025e+00 2.413569e+00 -5.209530e-01 1.375339e+00 -2.892872e-01 7.348051e-01 -2.673050e-01 4.091717e-01 -2.043525e-01 3.200022e-01 -3.532951e-01 1.714226e-01 -3.129362e-01 1.535155e-01 -2.803164e-01 8.524607e-02 -1.601874e-01 9.860523e-02 -1.316772e-01 3.486883e-02 -4.913098e-02 5.294096e-02 -4.591695e-02 -7.440089e-03 1.754355e-02 1.705290e-02 1.744665e-02 -4.284295e-02 8.097197e-02 -2.089525e-02 8.884827e-02 -8.842524e-02 1.504209e-01 -6.808069e-02 1.463933e-01 -1.259197e-01 1.788834e-01 -7.354400e-02 1.614481e-01 -1.187187e-01 2.388780e-01 -6.783593e-02 3.098001e-01 -1.689368e-01 4.603309e-01 -3.242956e-01 7.308577e-01 -5.478846e-01 1.065654e+00 -8.963722e-01 1.438733e+00 -1.406136e+00 1.824612e+00 -2.094604e+00 2.233806e+00 
-2.245199e+00 5.506813e-01 3.663234e-01 -8.775197e+00 -1.125172e+02 -1.455245e+00 2.060375e+00 -2.717056e+00 2.276498e+00 -1.557324e+00 1.929615e+00 -6.997270e-01 1.149964e+00 -3.476140e-01 6.281070e-01 -3.759907e-01 3.816838e-01 -2.897093e-01 3.274880e-01 -5.566533e-01 2.257827e-01 -4.104116e-01 1.849445e-01 -3.429940e-01 1.674921e-01 -1.526394e-01 1.288396e-01 -1.370542e-01 1.138567e-01 -2.038010e-02 7.213961e-02 -3.385106e-02 6.627497e-02 5.576562e-02 2.441068e-02 3.952294e-02 1.724566e-02 1.231946e-01 -3.806592e-02 1.145325e-01 -5.980174e-02 1.889854e-01 -1.260931e-01 1.624491e-01 -1.262865e-01 1.923090e-01 -1.272054e-01 1.330893e-01 -5.745537e-02 1.746624e-01 -1.445863e-01 2.794085e-01 -2.748484e-01 5.113651e-01 -4.034748e-01 7.994735e-01 -6.164568e-01 1.111804e+00 -9.472947e-01 1.447649e+00 -1.395119e+00 1.795076e+00 -1.936520e+00 2.031516e+00 
-1.750800e+00 1.680947e-01 1.198493e+00 -7.980990e+00 -1.200574e+02 -8.106890e-01 9.782287e-01 -2.973748e+00 1.198362e+00 -2.024455e+00 1.445542e+00 -9.188532e-01 9.637416e-01 -3.378222e-01 5.091922e-01 -4.450003e-01 1.969441e-01 -3.280117e-01 3.694655e-01 -8.600772e-01 1.666914e-01 -4.954953e-01 2.505553e-01 -4.927004e-01 9.092197e-02 -1.284998e-01 1.681585e-01 -2.489927e-01 3.909617e-03 6.508236e-03 1.011923e-01 -1.431280e-01 -4.918961e-02 8.785533e-02 6.334628e-02 -5.073505e-02 -8.919350e-02 1.810596e-01 1.882575e-02 6.752240e-02 -1.558169e-01 3.006659e-01 -6.497344e-02 1.779465e-01 -2.446568e-01 3.231089e-01 -7.458798e-02 8.786618e-02 -1.977542e-01 2.569247e-01 5.135012e-02 2.364372e-01 -6.581288e-02 4.645380e-01 -2.246421e-01 8.773034e-01 -4.633889e-01 1.242112e+00 -8.028400e-01 1.557517e+00 -1.215038e+00 1.850645e+00 -1.665852e+00 1.963784e+00 
-1.034137e+00 -2.901503e-01 2.472580e+00 -7.634939e+00 -1.221399e+02 -4.197977e-02 6.330875e-01 -2.731020e+00 3.006306e-01 -2.157510e+00 7.892188e-01 -9.184611e-01 5.397483e-01 4.591969e-02 2.513743e-01 -2.546794e-01 -1.149997e-02 -7.112357e-01 3.151546e-01 -1.331191e+00 3.312592e-01 -5.756175e-01 2.429350e-01 -5.032521e-01 2.376229e-01 -8.632099e-02 1.078196e-01 -2.474578e-01 1.408567e-01 2.805840e-02 2.947300e-02 -1.303634e-01 9.144265e-02 1.062459e-01 -1.607795e-02 -2.461183e-02 4.470621e-02 2.011554e-01 -8.147285e-02 1.111760e-01 -5.231493e-02 3.344994e-01 -2.187690e-01 2.443076e-01 -1.914036e-01 3.376232e-01 -2.168055e-01 8.204831e-02 3.320857e-02 -4.465586e-03 -3.381825e-02 1.602743e-01 -1.497765e-01 5.615095e-01 -2.171084e-01 9.496923e-01 -4.410203e-01 1.262734e+00 -7.579574e-01 1.528522e+00 -1.089058e+00 1.772792e+00 -1.364076e+00 1.770292e+00 
-4.770867e-01 -6.883097e-01 3.307332e+00 -7.044277e+00 -1.261745e+02 6.102571e-01 3.779659e-01 -2.856369e+00 -2.922901e-01 -2.679088e+00 4.056376e-01 -1.175036e+00 3.431430e-01 6.592831e-01 -7.900595e-03 7.394510e-01 -9.064843e-01 -1.744406e+00 4.343722e-01 -1.764990e+00 2.999094e-01 -6.437632e-01 4.272490e-01 -5.475968e-01 1.018344e-01 2.461305e-02 2.119464e-01 -4.113229e-01 -4.264503e-02 1.572897e-01 1.296253e-01 -3.568813e-01 -9.714478e-02 2.713454e-01 1.026490e-01 -2.785376e-01 -1.324342e-01 4.074962e-01 7.181890e-02 -1.388595e-01 -2.054977e-01 6.346484e-01 -4.616727e-02 1.123892e-01 -4.269622e-01 8.261227e-01 -1.682188e-01 -2.218944e-01 -4.575414e-01 1.411759e-01 2.666088e-01 -3.792322e-01 3.056980e-01 4.514995e-01 9.650790e-02 1.149941e+00 -2.954531e-01 1.409265e+00 -6.565364e-01 1.568493e+00 -9.275822e-01 1.730680e+00 -1.080080e+00 1.602893e+00 
1.961907e-01 -1.094121e+00 4.212804e+00 -6.427683e+00 -1.257956e+02 1.104953e+00 2.951304e-01 -2.838547e+00 -8.504287e-01 -3.206582e+00 -1.723913e-01 -1.843517e+00 4.051843e-02 1.003937e+00 1.785524e-01 3.169579e+00 -2.625092e+00 -4.438318e+00 9.550339e-01 -6.481088e-01 8.557728e-01 -1.417844e+00 4.590246e-01 1.122251e+00 2.260725e-01 -1.172428e+00 1.440343e-01 9.746034e-01 1.113446e-01 -1.071783e+00 7.623816e-02 9.733498e-01 6.922715e-02 -9.201258e-01 5.621596e-02 1.004126e+00 2.514126e-02 -7.297089e-01 2.502044e-02 1.100828e+00 -8.410058e-02 -3.886576e-01 -1.481159e-01 1.373482e+00 -4.475372e-01 -3.403658e-02 -2.818016e-01 8.386862e-01 -1.988166e-01 -1.413121e+00 4.054999e-01 -1.214658e-01 2.511663e-01 7.044133e-01 1.938227e-01 1.294445e+00 -2.546570e-01 1.445200e+00 -6.213347e-01 1.515048e+00 -7.958567e-01 1.622489e+00 -7.681386e-01 1.390429e+00 
7.403855e-01 -1.479748e+00 4.876786e+00 -5.828741e+00 -1.268902e+02 1.720028e+00 2.526687e-01 -2.841692e+00 -1.134810e+00 -4.169222e+00 -2.409037e-01 -3.794132e+00 5.822419e-01 -1.895538e+00 2.051532e+00 2.390763e+00 -7.418805e+00 -1.667571e+00 4.902059e+00 4.583825e+00 4.593160e-01 -1.217471e+00 1.570359e+00 4.625527e+00 -7.676664e-01 -2.343367e+00 7.115432e-01 3.348649e+00 -6.415272e-01 -2.614664e+00 3.916436e-01 2.845726e+00 -5.346456e-01 -2.601003e+00 2.243773e-01 2.600377e+00 -4.582033e-01 -2.465728e+00 1.256612e-01 2.552108e+00 -4.180884e-01 -2.137739e+00 6.980341e-03 3.026829e+00 -6.969802e-01 -1.021284e+00 -5.472132e-01 3.998980e+00 -2.009765e+00 -2.748803e+00 3.325338e-01 -1.404843e+00 2.069045e+00 1.887074e+00 5.614888e-01 1.911529e+00 -4.803781e-01 1.491933e+00 -7.334865e-01 1.424805e+00 -7.084683e-01 1.501311e+00 -5.036720e-01 1.169859e+00 
1.337417e+00 -1.828444e+00 5.407721e+00 -4.938269e+00 -1.244985e+02 1.927356e+00 2.052769e-01 -2.543590e+00 -1.408778e+00 -4.359859e+00 -1.023097e+00 -6.091166e+00 -1.641568e-01 -1.350180e+01 8.695527e+00 -1.774628e+01 -8.772122e+00 2.221109e+01 3.520766e+01 2.927337e+01 2.380144e+00 1.362764e+01 1.450468e+01 1.250195e+01 2.072581e-01 8.474986e+00 1.196022e+01 8.711696e+00 9.911665e-01 5.489995e+00 9.269271e+00 5.845735e+00 1.431724e+00 3.369050e+00 7.294115e+00 3.712110e+00 1.753536e+00 1.737016e+00 5.722817e+00 1.999250e+00 2.003828e+00 4.487550e-01 4.208397e+00 1.017242e+00 1.744011e+00 4.240441e-01 2.541162e+00 -2.802629e+00 4.087146e+00 -5.818813e+00 -5.965847e-01 -1.234587e+01 -6.596177e-01 1.171811e+00 6.573141e-01 2.562252e+00 -6.490448e-01 1.485158e+00 -8.175502e-01 1.255287e+00 -5.961891e-01 1.330646e+00 -2.014293e-01 9.209175e-01 
1.853465e+00 -2.084905e+00 5.748445e+00 -3.969741e+00 -1.229966e+02 2.398285e+00 -4.263627e-02 -1.714416e+00 -2.026962e+00 -4.098368e+00 -1.393284e+00 -9.721329e+00 3.955553e+00 -2.978902e+01 2.325590e+01 -4.365840e+01 8.955540e+00 6.775773e+01 9.183474e+01 4.023935e+01 1.951238e+01 6.505293e+01 6.130114e+01 1.688568e+01 1.471506e+01 6.240577e+01 6.475092e+01 1.968134e+01 1.468630e+01 5.841422e+01 6.338222e+01 2.003365e+01 1.436799e+01 5.388062e+01 6.165949e+01 2.028461e+01 1.398164e+01 4.903486e+01 5.989988e+01 2.041470e+01 1.352320e+01 4.292962e+01 5.744759e+01 1.985671e+01 1.371429e+01 3.376700e+01 5.558714e+01 1.912544e+01 1.149544e+01 3.784134e+01 3.733299e+01 4.043031e+01 9.945890e+00 1.054848e+01 -2.238136e+00 1.236893e+00 -2.157174e+00 6.551505e-01 -1.042339e+00 9.969551e-01 -4.456748e-01 1.186443e+00 1.005051e-01 6.840940e-01 
2.349123e+00 -2.195222e+00 5.900264e+00 -2.992450e+00 -1.189208e+02 2.244539e+00 2.888584e-02 -1.465689e+00 -1.407430e+00 -3.149828e+00 6.306250e-01 -6.299222e+00 6.446235e+00 -1.464845e+01 1.732018e+01 -2.892120e+01 2.216474e+01 4.298379e+01 4.463255e+01 -2.164171e+01 3.165596e+01 6.261717e+01 4.326265e+01 -2.337937e+01 3.323868e+01 8.343186e+01 5.027859e+01 -2.030101e+01 3.524564e+01 9.648353e+01 5.371608e+01 -1.914721e+01 3.615416e+01 1.047974e+02 5.629755e+01 -1.802466e+01 3.605290e+01 1.101579e+02 5.907836e+01 -1.675192e+01 3.506833e+01 1.128959e+02 6.204696e+01 -1.631342e+01 3.463622e+01 1.117548e+02 6.786208e+01 -1.439404e+01 4.165422e+01 1.512159e+02 5.237468e+01 7.243820e+01 -6.430394e+00 5.016219e+00 -7.585804e+00 -2.663030e+00 -3.070167e+00 -7.690795e-01 -9.080513e-01 5.729047e-01 -1.643414e-01 1.013885e+00 4.442044e-01 4.721454e-01 
2.761090e+00 -2.226031e+00 5.951541e+00 -2.177669e+00 -1.154655e+02 2.206035e+00 3.579695e-01 -9.258468e-01 -8.664411e-01 -3.086142e-01 -1.342599e-01 4.997806e+00 -1.771616e+00 1.984413e+01 -1.475930e+01 3.473089e+01 -1.663071e+01 -9.128512e+01 -6.449562e+01 -2.105249e+01 -2.169043e+01 -8.544711e+01 -3.307320e+01 1.489882e+00 -2.274691e+01 -7.727173e+01 -2.959903e+01 5.181888e+00 -2.276170e+01 -6.728060e+01 -2.467826e+01 8.257493e+00 -2.173540e+01 -5.738166e+01 -2.110331e+01 1.019838e+01 -1.998489e+01 -4.752840e+01 -1.849658e+01 1.147007e+01 -1.749774e+01 -3.639471e+01 -1.582029e+01 1.242997e+01 -1.437382e+01 -2.240744e+01 -1.183125e+01 1.183128e+01 -8.714032e+00 -5.755166e+00 -6.910703e-01 1.245495e+01 -3.309384e+00 3.589808e+00 -1.266880e+00 1.114502e+00 -3.592033e-01 7.982524e-01 -7.126225e-03 9.464665e-01 2.233979e-01 9.993265e-01 7.724055e-01 2.815891e-01 
3.056414e+00 -2.042221e+00 5.795652e+00 -1.353418e+00 -1.097978e+02 2.087232e+00 2.583536e-01 -1.009477e+00 -1.220573e+00 -4.910032e-01 -1.721124e+00 6.121143e+00 -7.752348e+00 2.790394e+01 -2.796012e+01 3.458005e+01 -1.278237e+00 -3.835279e+01 -9.402036e+01 -4.027302e+01 -2.211805e+01 -5.649457e+01 -7.167405e+01 -1.411942e+01 -1.911090e+01 -7.323212e+01 -7.696243e+01 -1.039140e+01 -2.222863e+01 -8.476338e+01 -7.697775e+01 -5.552842e+00 -2.470468e+01 -9.215712e+01 -7.616020e+01 -1.691867e+00 -2.665677e+01 -9.691293e+01 -7.538969e+01 1.612140e+00 -2.822086e+01 -9.916689e+01 -7.426556e+01 5.984224e+00 -3.111333e+01 -9.776996e+01 -7.500268e+01 9.677557e+00 -4.072804e+01 -1.372268e+02 -5.150723e+01 -6.527797e+01 3.938196e+00 -3.455993e-01 5.595546e+00 5.174737e+00 2.101411e+00 2.750724e+00 6.205521e-01 1.495584e+00 4.520600e-01 1.055876e+00 1.015208e+00 1.745755e-01 
3.312122e+00 -1.926303e+00 5.700713e+00 -7.494295e-01 -1.047367e+02 2.457802e+00 3.191563e-02 -4.225890e-01 -1.867799e+00 -1.127280e+00 -2.531721e+00 -3.165074e-01 -4.371074e+00 4.048391e+00 -1.072618e+01 8.660477e+00 -3.031345e+00 2.102846e+00 -1.883839e+01 -4.640858e+00 -1.049572e+01 2.870250e-01 -1.589483e+01 -5.966575e+00 -6.602189e+00 -3.950811e+00 -2.079407e+01 -9.861979e+00 -6.292594e+00 -8.747398e+00 -2.448733e+01 -1.253305e+01 -6.065059e+00 -1.300471e+01 -2.741972e+01 -1.457542e+01 -5.871695e+00 -1.682152e+01 -3.005025e+01 -1.630013e+01 -5.662226e+00 -2.039419e+01 -3.266285e+01 -1.794223e+01 -5.549121e+00 -2.366678e+01 -3.712357e+01 -1.880450e+01 -5.421125e+00 -4.127018e+01 -3.402512e+01 -4.598832e+01 -6.286060e+00 -1.090055e+01 2.394492e+00 8.240897e-01 1.900184e+00 1.790171e+00 9.462624e-01 1.355181e+00 7.455151e-01 9.906112e-01 1.283053e+00 6.036436e-02 
3.441564e+00 -1.643971e+00 5.382095e+00 -5.499887e-02 -9.793608e+01 2.429605e+00 -2.367551e-01 -5.170531e-02 -2.313395e+00 -5.706404e-01 -3.130896e+00 -1.081803e+00 -3.243536e+00 -5.231880e+00 -1.546629e+00 -7.184260e+00 2.507291e+00 1.467229e+00 -9.737668e-01 2.736462e+00 -1.238166e+00 1.535188e+00 -9.252136e-01 -1.053228e+00 1.037130e-01 2.265447e+00 -4.854477e-01 -1.353931e+00 5.563552e-01 2.699188e+00 -5.660616e-01 -2.021545e+00 8.007370e-01 2.743138e+00 -7.582214e-01 -2.748610e+00 9.841754e-01 2.590170e+00 -1.022972e+00 -3.608369e+00 1.187286e+00 2.135737e+00 -1.330470e+00 -5.306225e+00 1.921668e+00 5.711902e-01 -1.850000e+00 -5.540208e+00 1.376205e+00 3.140599e+00 -1.358046e+00 1.609984e+00 -5.996706e-01 -4.255198e+00 2.775564e-01 -1.264465e+00 1.022059e+00 6.662001e-01 8.969921e-01 1.028525e+00 8.686741e-01 8.677293e-01 1.453333e+00 -1.913672e-02 
3.504728e+00 -1.541090e+00 5.234794e+00 1.323557e-02 -9.191373e+01 2.574992e+00 -7.553590e-02 -1.365877e-01 -2.049176e+00 -1.189708e+00 -2.461602e+00 -1.553288e+00 -1.896196e+00 -3.098610e+00 -2.971489e-01 -3.739417e+00 1.023356e+00 5.708288e-01 6.892735e-01 -1.715982e-02 -9.216644e-01 2.442819e-01 -2.581408e-01 -1.571221e+00 -5.826672e-01 4.242475e-01 1.137243e-01 -1.460173e+00 -3.449270e-01 8.963228e-01 2.124063e-01 -1.420949e+00 -2.404311e-01 1.218574e+00 2.302895e-01 -1.437924e+00 -1.834057e-01 1.424245e+00 2.328640e-01 -1.548784e+00 -1.022262e-01 1.446827e+00 3.302973e-01 -2.002226e+00 2.197673e-01 1.249428e+00 3.480984e-01 -1.884416e+00 3.899146e-01 3.718891e+00 -8.031627e-02 2.934084e+00 -8.231240e-01 -1.353203e+00 -2.038857e-01 -1.151833e+00 5.760971e-01 5.899156e-02 7.849846e-01 6.230931e-01 9.244291e-01 6.456677e-01 1.563101e+00 -1.436048e-01 
3.462410e+00 -1.374655e+00 4.872130e+00 3.269956e-01 -8.440680e+01 2.445836e+00 -1.294279e-01 -9.035014e-02 -1.906835e+00 -1.326986e+00 -2.077716e+00 -1.961149e+00 -1.302250e+00 -2.399056e+00 -3.602721e-01 -1.449500e+00 8.454291e-01 -1.240236e+00 -2.611927e-01 4.057397e-01 -4.567294e-03 -2.446814e-01 -5.773999e-01 -1.762934e-01 -4.188213e-02 -4.664064e-01 -3.527146e-01 -2.247909e-01 9.465989e-02 -2.311629e-01 -2.155805e-01 -1.726052e-01 1.330604e-01 -4.345769e-02 -1.621204e-01 -1.593392e-01 1.321608e-01 6.880515e-02 -1.207491e-01 -2.313071e-01 1.708707e-01 2.727261e-02 4.339770e-02 -4.813522e-01 3.955266e-01 1.190531e-01 2.840931e-02 1.988747e-01 -3.429026e-02 2.313336e+00 -6.323859e-01 1.320131e+00 -2.526250e-01 -3.157316e-01 -1.573983e-02 -6.094567e-01 3.895041e-01 -5.861927e-02 6.578013e-01 4.012153e-01 9.017372e-01 4.739501e-01 1.593889e+00 -2.430007e-01 
3.350363e+00 -1.315189e+00 4.618663e+00 2.462338e-01 -7.751656e+01 2.349029e+00 1.175151e-01 -6.163564e-02 -1.514381e+00 -1.221929e+00 -1.664497e+00 -1.563366e+00 -1.071821e+00 -1.710971e+00 -5.327741e-01 -1.230296e+00 -1.368670e-01 -1.145131e+00 -1.064040e-01 -8.959646e-02 -2.035448e-01 -4.029061e-01 -2.207870e-01 -1.468658e-01 -2.174754e-01 -5.276365e-01 -1.156996e-01 -6.173986e-02 -9.996145e-02 -4.120161e-01 -3.198361e-02 7.341987e-02 -4.342753e-02 -3.171687e-01 -1.421272e-03 1.656281e-01 -1.478792e-02 -2.691408e-01 2.215065e-02 2.007925e-01 3.954177e-02 -2.898831e-01 9.940186e-02 1.956887e-01 1.506197e-01 -1.554554e-01 1.726750e-02 7.642853e-01 -5.177955e-02 7.323303e-01 -2.503827e-01 1.064033e+00 -6.052972e-02 3.081034e-01 4.432957e-02 -1.510209e-01 3.027156e-01 -1.496827e-03 5.619816e-01 2.761851e-01 8.494236e-01 3.222605e-01 1.561797e+00 -3.438135e-01 
3.156265e+00 -1.208799e+00 4.208226e+00 3.352989e-01 -6.941379e+01 2.137895e+00 1.544461e-01 -9.164389e-02 -1.291653e+00 -1.195867e+00 -1.425543e+00 -1.403266e+00 -9.702369e-01 -1.308013e+00 -5.443941e-01 -1.021966e+00 -1.179963e-01 -1.003614e+00 -3.382865e-01 -3.910236e-01 -1.051753e-01 -3.812852e-01 -2.400243e-01 -2.080120e-01 -8.917886e-02 -3.522275e-01 -1.580818e-01 -1.370232e-01 -2.192424e-02 -2.572789e-01 -8.056388e-02 -3.772917e-02 1.567788e-02 -1.747998e-01 -4.097406e-02 3.179466e-02 3.500764e-02 -1.293077e-01 -5.466306e-03 6.098247e-02 7.589561e-02 -1.176237e-01 6.289349e-02 1.119962e-01 1.179404e-01 7.142469e-02 -4.030089e-02 5.478989e-01 -1.422286e-01 6.413091e-01 -2.084896e-01 6.443298e-01 1.439188e-02 2.829777e-01 1.204157e-01 4.263289e-02 2.880002e-01 9.213561e-02 4.940587e-01 2.458214e-01 7.765886e-01 2.375820e-01 1.481278e+00 -4.024304e-01 
2.898819e+00 -1.141031e+00 3.836881e+00 2.309655e-01 -6.168438e+01 1.926837e+00 3.147602e-01 -4.894181e-02 -9.866757e-01 -9.964176e-01 -1.177841e+00 -1.095577e+00 -8.805733e-01 -1.012825e+00 -6.001089e-01 -8.405973e-01 -4.427436e-01 -7.136748e-01 -3.077416e-01 -4.906772e-01 -2.033315e-01 -4.464691e-01 -1.228523e-01 -3.106033e-01 -1.088298e-01 -2.799714e-01 -5.911279e-02 -1.752153e-01 -5.851812e-02 -1.749327e-01 -2.231150e-02 -8.824302e-02 -2.617229e-02 -1.017580e-01 1.844461e-03 -2.191354e-02 -7.604113e-04 -4.600712e-02 2.358836e-02 3.948905e-02 2.442258e-02 1.995795e-02 3.199026e-02 1.422314e-01 5.333396e-03 1.549893e-01 -5.620963e-02 3.347583e-01 -8.382449e-02 3.340947e-01 -8.464747e-02 3.944234e-01 1.045565e-01 2.797751e-01 1.953326e-01 2.055048e-01 2.909843e-01 2.135859e-01 4.308487e-01 2.572386e-01 6.826935e-01 1.788952e-01 1.351560e+00 -4.399216e-01 
2.582937e+00 -1.039877e+00 3.373211e+00 2.018233e-01 -5.305366e+01 1.679966e+00 3.539423e-01 -7.212987e-02 -7.848912e-01 -8.888187e-01 -9.936007e-01 -8.681576e-01 -7.946674e-01 -7.280934e-01 -5.448917e-01 -6.833086e-01 -4.297580e-01 -5.435237e-01 -3.393496e-01 -6.460091e-01 -1.965682e-01 -4.457197e-01 -7.336474e-02 -3.502714e-01 -7.170667e-02 -1.652547e-01 -1.742735e-02 -1.959851e-01 -5.062642e-02 -7.409474e-02 1.726464e-03 -1.359694e-01 -3.124078e-02 -1.591974e-02 2.379209e-02 -8.739597e-02 -1.101235e-02 3.794975e-02 4.471597e-02 -2.516236e-02 -2.017202e-03 1.287147e-01 2.943051e-02 9.666081e-02 -6.901166e-02 2.515733e-01 -5.798905e-02 1.502184e-01 -1.151761e-01 2.578493e-01 -1.634084e-02 1.829627e-01 1.301096e-01 1.846959e-01 2.209514e-01 2.605359e-01 2.728240e-01 2.837819e-01 3.584454e-01 2.716133e-01 5.735016e-01 1.478995e-01 1.189883e+00 -4.431701e-01 
2.212449e+00 -9.537712e-01 2.906116e+00 6.371095e-02 -4.458622e+01 1.417834e+00 4.337233e-01 -1.086767e-01 -5.153225e-01 -7.854650e-01 -7.262261e-01 -5.949815e-01 -6.708223e-01 -3.208743e-01 -5.457725e-01 -4.337241e-01 -5.502689e-01 -1.714986e-01 -5.713114e-01 -9.218509e-01 -1.260332e-01 -4.410332e-01 -3.438585e-02 -4.985240e-01 4.138629e-02 2.464062e-02 -3.432818e-02 -3.157111e-01 2.085347e-02 1.045503e-01 -4.926593e-02 -2.805423e-01 3.031547e-02 1.561308e-01 -3.774060e-02 -2.437818e-01 5.102135e-02 2.143467e-01 -2.243215e-02 -1.721493e-01 5.595688e-02 3.444551e-01 -6.565767e-02 9.802897e-03 -6.789652e-02 5.036236e-01 -2.049744e-01 -1.482446e-01 -5.062044e-02 1.288491e-01 -6.194173e-02 -2.015536e-01 3.151379e-01 9.096192e-02 3.600416e-01 4.372339e-01 2.618886e-01 4.152374e-01 2.523477e-01 2.923924e-01 4.309048e-01 1.139039e-01 9.878694e-01 -4.335757e-01 
1.809960e+00 -8.536032e-01 2.395332e+00 -4.286785e-02 -3.553188e+01 1.155636e+00 4.545224e-01 -1.549744e-01 -3.084493e-01 -7.420152e-01 -4.853726e-01 -4.388029e-01 -5.051467e-01 1.716238e-01 -5.623176e-01 -3.091994e-02 -5.025861e-01 -1.531036e-01 -8.108636e-01 -1.333004e+00 7.283986e-02 -3.518745e-01 4.916400e-03 -4.339776e-01 1.272010e-01 1.076725e-01 -5.302416e-02 -2.661408e-01 6.674393e-02 1.146224e-01 -7.536529e-02 -2.292678e-01 6.469846e-02 1.321384e-01 -6.536700e-02 -1.943772e-01 8.124894e-02 1.752374e-01 -5.405865e-02 -1.235262e-01 7.988715e-02 3.241980e-01 -1.201489e-01 8.708582e-02 -8.138059e-02 5.775660e-01 -3.048535e-01 -1.510840e-01 -3.627370e-02 -2.052853e-01 -5.955110e-02 -5.832025e-01 4.431214e-01 1.945493e-01 3.987415e-01 6.026698e-01 1.843015e-01 4.783824e-01 1.255723e-01 2.788963e-01 2.828576e-01 8.100606e-02 7.713820e-01 -4.059259e-01 
1.368548e+00 -7.306928e-01 1.837720e+00 -1.632040e-01 -2.643672e+01 8.899500e-01 4.161770e-01 -2.819849e-01 -8.468394e-02 -9.852438e-01 -4.060350e-02 -6.742593e-01 -1.513608e-02 1.013763e+00 -6.943682e-01 1.155443e+00 -1.407566e-01 -1.100035e-02 -2.428107e+00 -2.545263e+00 1.464192e+00 1.071916e-01 -6.645876e-01 -5.387849e-01 1.165257e+00 4.767863e-01 -9.809351e-01 -3.955729e-01 1.013820e+00 2.603558e-01 -9.731848e-01 -2.768559e-01 9.859464e-01 1.866968e-01 -9.424996e-01 -1.978939e-01 9.927894e-01 1.738488e-01 -9.162151e-01 -1.289779e-01 1.025974e+00 2.975966e-01 -9.418349e-01 1.323046e-01 9.241239e-01 1.016108e+00 -1.424064e+00 1.436702e-01 6.987903e-01 -6.945720e-01 -1.046182e+00 -2.312478e+00 1.410614e+00 9.347509e-01 6.913380e-01 1.195981e+00 -7.040096e-02 5.043513e-01 -1.272437e-01 1.696309e-01 9.684222e-02 5.417469e-03 5.378629e-01 -3.703961e-01 
9.195336e-01 -6.019251e-01 1.277224e+00 -2.755739e-01 -1.707761e+01 6.318454e-01 3.801605e-01 -2.969445e-01 7.500283e-02 -1.008603e+00 2.293044e-01 -1.138783e+00 6.490279e-01 -3.474558e-01 2.411271e-01 1.230575e+00 -7.096364e-01 -2.303931e+00 9.220076e-01 1.315960e+00 2.393992e+00 6.771893e-01 1.360897e+00 1.360852e+00 9.066228e-01 4.012847e-01 1.317791e+00 1.620043e+00 7.837235e-01 2.304617e-01 1.557235e+00 1.887716e+00 7.686671e-01 1.932654e-01 1.789823e+00 2.142629e+00 8.178622e-01 1.762619e-01 1.992253e+00 2.417047e+00 9.256364e-01 2.262470e-01 2.138301e+00 2.929858e+00 9.515215e-01 7.357132e-01 2.149278e+00 3.134267e+00 8.567377e-01 -2.242009e-01 1.515163e+00 7.154700e-02 2.304947e+00 2.378387e+00 5.162969e-01 1.493178e+00 -3.774037e-01 3.645932e-01 -3.220645e-01 3.028931e-02 -5.070517e-02 -6.254827e-02 3.126020e-01 -3.202374e-01 
4.510076e-01 -3.605100e-01 6.053601e-01 -1.818228e-01 -7.484632e+00 3.785760e-01 1.124583e-01 -1.294283e-01 -9.443399e-02 -1.166183e+00 3.546906e-01 -4.501171e+00 3.299284e+00 -1.063640e+01 4.876736e+00 -3.338237e+00 1.396176e+00 -1.613428e+01 1.683192e+01 3.684189e+01 2.357009e+01 7.469104e+00 1.719382e+01 2.893396e+01 1.374201e+01 2.089478e+00 1.920480e+01 3.063048e+01 1.384310e+01 2.620450e+00 2.105145e+01 3.128754e+01 1.308181e+01 2.791594e+00 2.222566e+01 3.174306e+01 1.265753e+01 2.846677e+00 2.282957e+01 3.218767e+01 1.270525e+01 2.549113e+00 2.296610e+01 3.221019e+01 1.358069e+01 9.602880e-01 2.380247e+01 3.480327e+01 1.171674e+01 1.125710e+01 1.716240e+01 4.475583e+01 1.506705e+01 1.352011e+01 -1.418664e+00 3.667941e-01 -1.650892e+00 -6.468573e-01 -6.092572e-01 -2.881048e-01 -1.408235e-01 -1.277107e-01 1.235342e-01 -2.239501e-01 
-1.386504e-02 -1.460721e-01 -7.886490e-03 -2.121437e-01 2.021650e+00 1.174669e-01 2.984334e-03 -6.704293e-02 -4.852911e-02 -1.184693e+00 5.577567e-01 -5.690102e+00 4.434989e+00 -1.447090e+01 7.533195e+00 -6.227766e+00 6.178504e-01 -1.495782e+01 3.145772e+01 5.111979e+01 2.614895e+01 1.402828e+01 3.008914e+01 3.829536e+01 1.462893e+01 9.010606e+00 3.259399e+01 3.856587e+01 1.478642e+01 1.049275e+01 3.416249e+01 3.753614e+01 1.354568e+01 1.102675e+01 3.484167e+01 3.661694e+01 1.267864e+01 1.108909e+01 3.481245e+01 3.599301e+01 1.233348e+01 1.044579e+01 3.425726e+01 3.495926e+01 1.268335e+01 8.108469e+00 3.534681e+01 3.623263e+01 1.089036e+01 2.215506e+01 2.646989e+01 5.805238e+01 1.291598e+01 1.199795e+01 -2.939262e+00 -1.015766e+00 -1.896731e+00 -1.117928e+00 -6.059716e-01 -4.168640e-01 -1.830743e-01 -1.501192e-01 -6.585437e-02 -1.206373e-01 
-5.035172e-01 1.897870e-01 -7.341072e-01 -7.374067e-02 1.176022e+01 -3.911562e-01 -5.234342e-02 4.314517e-02 2.506627e-01 5.098344e-01 7.394598e-02 1.484975e+00 -9.913084e-01 3.591351e+00 -2.145609e+00 2.123049e+00 -7.952215e-02 2.574829e+00 -9.518755e+00 -1.015680e+01 -4.410695e+00 -2.635996e+00 -9.167245e+00 -7.770072e+00 -2.837571e+00 -2.972595e+00 -1.080515e+01 -9.162668e+00 -3.218801e+00 -4.049780e+00 -1.209697e+01 -1.013300e+01 -3.266126e+00 -4.812865e+00 -1.319083e+01 -1.108578e+01 -3.334704e+00 -5.297013e+00 -1.411483e+01 -1.213761e+01 -3.520539e+00 -5.411869e+00 -1.489579e+01 -1.307903e+01 -3.952034e+00 -4.823858e+00 -1.639448e+01 -1.499344e+01 -3.709640e+00 -1.161992e+01 -1.368474e+01 -2.798330e+01 -4.746735e+00 -4.952951e+00 1.567847e+00 4.560032e-01 7.957631e-01 4.775277e-01 1.515209e-01 1.373211e-01 -8.616842e-02 4.068335e-03 -2.302917e-01 4.695712e-02 