# vtk DataFile Version 2.0
Comment goes here
ASCII

DATASET STRUCTURED_POINTS
FIELD FieldData 1
TIME 1 1 double
0.07900000
DIMENSIONS    64   64   1

ORIGIN    0.000   0.000   0.000
SPACING   0.03125 0.03125   1.000

POINT_DATA   4096
SCALARS Omega double
LOOKUP_TABLE default

-1.146685e-01 -3.957684e-01 5.607970e-02 -6.461898e-01 1.528638e-02 -1.395081e-01 9.967714e-02 -3.883342e-01 7.676990e-02 -3.512412e-01 1.040511e-01 -2.795506e-01 1.501685e-01 -1.808918e-01 2.196343e-01 -7.280966e-02 2.891954e-01 3.509595e-02 4.030827e-01 1.319636e-01 4.570822e-01 2.044971e-01 4.782146e-01 2.810210e-01 4.847323e-01 3.409576e-01 4.733273e-01 3.903091e-01 4.656570e-01 4.331766e-01 4.383577e-01 4.603238e-01 4.048935e-01 4.916344e-01 3.747846e-01 5.166717e-01 3.407505e-01 5.174517e-01 3.156991e-01 5.289682e-01 2.742426e-01 5.133969e-01 2.414558e-01 4.771899e-01 1.934867e-01 4.117113e-01 1.672311e-01 3.438469e-01 9.267507e-02 2.247565e-01 4.926144e-02 1.439799e-01 -2.612877e-02 8.111784e-02 -9.464719e-02 2.402919e-02 -1.417048e-01 -2.505381e-02 -1.723078e-01 -6.365707e-02 -1.904106e-01 -1.087471e-01 -2.066426e-01 -6.932294e-02 
-2.487422e+01 -3.763017e+01 -2.204847e+01 -3.745219e+01 -2.320507e+01 -3.766924e+01 -2.572741e+01 -3.666432e+01 -3.152449e+01 -3.591782e+01 -3.597269e+01 -3.384290e+01 -4.048489e+01 -3.030609e+01 -4.611864e+01 -2.503581e+01 -5.315568e+01 -1.829915e+01 -6.114947e+01 -1.097425e+01 -6.881841e+01 -4.458184e+00 -7.530310e+01 1.009739e+00 -8.078780e+01 5.658867e+00 -8.559057e+01 9.834658e+00 -9.006022e+01 1.369600e+01 -9.412728e+01 1.711487e+01 -9.761094e+01 1.984349e+01 -1.002237e+02 2.142417e+01 -1.014414e+02 2.159919e+01 -1.012829e+02 2.062549e+01 -1.000459e+02 1.890634e+01 -9.814524e+01 1.678868e+01 -9.588614e+01 1.438916e+01 -9.293148e+01 1.112635e+01 -8.852241e+01 6.576220e+00 -8.260965e+01 6.559758e-01 -7.514974e+01 -6.569848e+00 -6.605124e+01 -1.482728e+01 -5.611473e+01 -2.326198e+01 -4.567267e+01 -3.200992e+01 -3.459017e+01 -4.060508e+01 -2.156097e+01 -4.964967e+01 
-7.235964e+01 -3.635647e+00 -5.506977e+01 7.459974e+00 -1.093441e+01 9.531955e+00 -7.041261e+01 -5.745333e-01 -8.914479e+01 -2.061079e+00 -1.010284e+02 -2.833284e+00 -1.093231e+02 -4.011458e+00 -1.149312e+02 -6.161602e+00 -1.183223e+02 -9.252020e+00 -1.201113e+02 -1.274557e+01 -1.211811e+02 -1.570535e+01 -1.221403e+02 -1.822473e+01 -1.228802e+02 -2.039873e+01 -1.234293e+02 -2.236908e+01 -1.235635e+02 -2.428358e+01 -1.235265e+02 -2.601139e+01 -1.233632e+02 -2.757551e+01 -1.232259e+02 -2.860812e+01 -1.235019e+02 -2.884144e+01 -1.240946e+02 -2.856249e+01 -1.247688e+02 -2.795301e+01 -1.252830e+02 -2.713392e+01 -1.252672e+02 -2.629764e+01 -1.248876e+02 -2.509351e+01 -1.244552e+02 -2.323596e+01 -1.238115e+02 -2.062775e+01 -1.227871e+02 -1.730597e+01 -1.214829e+02 -1.322470e+01 -1.191293e+02 -8.982835e+00 -1.153619e+02 -3.982377e+00 -1.099990e+02 1.578595e+00 -1.077688e+02 1.392546e+01 
-3.633476e+01 -4.294714e-01 -3.124261e+01 1.022405e+01 -4.396717e+01 6.087980e+00 -2.542003e+01 1.586774e+01 -3.872694e+01 1.329662e+01 -4.650872e+01 1.041963e+01 -5.140114e+01 7.290502e+00 -5.415420e+01 3.612274e+00 -5.527336e+01 -5.865677e-01 -5.513755e+01 -4.912634e+00 -5.452260e+01 -8.721663e+00 -5.392801e+01 -1.174722e+01 -5.331923e+01 -1.419002e+01 -5.253326e+01 -1.634171e+01 -5.159386e+01 -1.815033e+01 -5.043462e+01 -1.966955e+01 -4.937618e+01 -2.074677e+01 -4.842638e+01 -2.124727e+01 -4.793931e+01 -2.106541e+01 -4.782933e+01 -2.034105e+01 -4.807815e+01 -1.924827e+01 -4.837257e+01 -1.808715e+01 -4.846965e+01 -1.692441e+01 -4.856840e+01 -1.533503e+01 -4.901831e+01 -1.334270e+01 -4.971917e+01 -1.102472e+01 -5.054874e+01 -8.205143e+00 -5.175504e+01 -5.103702e+00 -5.270298e+01 -2.134161e+00 -5.290003e+01 1.066573e+00 -5.280624e+01 6.438383e+00 -5.512762e+01 8.427075e+00 
-4.587073e+00 2.143416e+00 -4.430912e+00 -1.138907e+01 -7.006936e+01 -5.995466e+00 1.308754e+01 2.398772e+00 3.281426e+00 1.686371e+00 -3.036758e-01 9.154103e-01 -1.690659e+00 4.563562e-01 -2.318097e+00 1.778340e-01 -2.647611e+00 2.611318e-02 -2.814478e+00 -1.004572e-01 -2.924183e+00 -2.049432e-01 -2.937458e+00 -2.729579e-01 -2.884834e+00 -3.165148e-01 -2.772465e+00 -4.214941e-01 -2.615883e+00 -5.350243e-01 -2.424539e+00 -6.664859e-01 -2.212150e+00 -7.491541e-01 -1.974181e+00 -8.233273e-01 -1.738268e+00 -9.250957e-01 -1.508638e+00 -1.084722e+00 -1.306552e+00 -1.266336e+00 -1.113022e+00 -1.414770e+00 -9.267514e-01 -1.463094e+00 -7.318394e-01 -1.393590e+00 -5.706665e-01 -1.228271e+00 -4.645151e-01 -9.806082e-01 -4.333842e-01 -6.292874e-01 -4.854909e-01 -1.821675e-01 -6.518351e-01 3.450466e-01 -9.639315e-01 9.095959e-01 -1.493767e+00 1.860909e+00 -3.281757e+00 4.156128e+00 
-3.585045e+00 2.947591e+00 -3.987004e+00 -1.091547e+01 -9.159349e+01 -7.277396e+00 9.943143e+00 -1.766399e+00 5.992962e+00 2.223253e-01 2.989630e+00 2.625979e-01 1.444929e+00 8.176755e-02 6.964195e-01 -2.545851e-02 3.282367e-01 -6.485186e-02 2.103520e-01 -1.413764e-01 8.680641e-02 -1.594149e-01 3.865788e-02 -1.574718e-01 -1.635113e-02 -1.274325e-01 -1.417861e-02 -8.493210e-02 -4.779649e-02 -4.629041e-02 -3.804550e-02 -2.136350e-02 -6.705817e-02 -4.178307e-04 -5.457743e-02 6.850579e-03 -7.915186e-02 2.769049e-02 -7.067375e-02 3.801256e-02 -1.024112e-01 5.382869e-02 -9.301867e-02 6.841535e-02 -1.107450e-01 7.884871e-02 -9.977751e-02 8.823409e-02 -1.337367e-01 1.315800e-01 -1.433170e-01 2.146294e-01 -2.246668e-01 3.452477e-01 -3.745238e-01 5.886590e-01 -5.987866e-01 9.650438e-01 -9.717014e-01 1.485667e+00 -1.593619e+00 1.904958e+00 -2.547450e+00 3.439956e+00 
-3.340935e+00 1.658513e+00 -1.607413e+00 -1.217904e+01 -1.038615e+02 -4.476093e+00 7.316362e+00 -2.684700e+00 5.601466e+00 -5.793065e-01 3.170774e+00 -4.632146e-02 1.607626e+00 -4.249838e-02 8.263887e-01 -1.212382e-01 4.413026e-01 -1.159964e-01 3.559991e-01 -2.341790e-01 2.202796e-01 -2.562207e-01 1.864499e-01 -2.290978e-01 1.479302e-01 -1.398120e-01 1.518957e-01 -8.332298e-02 1.145234e-01 -1.143080e-02 1.051072e-01 2.151689e-02 6.615958e-02 6.676653e-02 5.483062e-02 7.492582e-02 1.606283e-02 1.078871e-01 -3.813924e-03 1.185582e-01 -5.075331e-02 1.523001e-01 -7.609111e-02 1.517263e-01 -1.083638e-01 1.684524e-01 -1.127809e-01 1.630688e-01 -1.478204e-01 2.214344e-01 -2.428481e-01 3.235377e-01 -4.001602e-01 5.184043e-01 -5.858618e-01 7.909698e-01 -8.547001e-01 1.134253e+00 -1.275667e+00 1.566158e+00 -1.917140e+00 2.059920e+00 -2.874806e+00 2.608720e+00 
-3.241303e+00 1.068121e+00 -1.099565e+00 -1.060486e+01 -1.166522e+02 -3.465278e+00 3.979906e+00 -3.840703e+00 4.168605e+00 -1.612184e+00 3.072194e+00 -4.981198e-01 1.785612e+00 -2.363947e-01 9.660499e-01 -2.534437e-01 4.605194e-01 -1.788446e-01 4.384261e-01 -3.784027e-01 1.942139e-01 -3.999242e-01 1.978588e-01 -3.487383e-01 8.365309e-02 -2.155596e-01 1.365763e-01 -1.520096e-01 2.799353e-02 -6.891443e-02 7.775612e-02 -3.832126e-02 -2.346241e-02 1.917714e-02 2.870118e-02 4.666791e-02 -7.003707e-02 1.023404e-01 -2.671641e-02 1.347592e-01 -1.305905e-01 1.826670e-01 -8.628980e-02 1.978367e-01 -1.625794e-01 2.140790e-01 -8.895720e-02 2.316820e-01 -1.703144e-01 3.129723e-01 -1.118271e-01 4.353716e-01 -2.246631e-01 6.138202e-01 -4.317771e-01 9.508731e-01 -7.137034e-01 1.394894e+00 -1.147552e+00 1.882747e+00 -1.779507e+00 2.386123e+00 -2.656519e+00 2.879074e+00 
-2.431992e+00 2.199055e-01 8.439110e-01 -1.055915e+01 -1.229929e+02 -1.827026e+00 2.792683e+00 -3.353275e+00 2.710188e+00 -2.021604e+00 2.384376e+00 -7.795165e-01 1.477420e+00 -3.439870e-01 8.426223e-01 -4.201053e-01 3.537220e-01 -2.379703e-01 4.749404e-01 -6.468618e-01 2.231341e-01 -5.437129e-01 2.640501e-01 -4.527098e-01 1.595782e-01 -1.969643e-01 2.075349e-01 -1.726661e-01 9.783358e-02 -2.356907e-02 1.308650e-01 -4.208707e-02 3.770349e-02 7.703767e-02 6.763134e-02 5.624058e-02 -2.341885e-02 1.716682e-01 -1.405198e-02 1.550078e-01 -1.167201e-01 2.580463e-01 -1.174879e-01 2.107531e-01 -1.794297e-01 2.626541e-01 -1.111670e-01 1.708997e-01 -1.168985e-01 2.586144e-01 -1.918423e-01 3.794452e-01 -3.857397e-01 6.756337e-01 -5.545717e-01 1.043844e+00 -8.136437e-01 1.452570e+00 -1.221175e+00 1.892189e+00 -1.776925e+00 2.336786e+00 -2.420166e+00 2.543214e+00 
-1.877394e+00 -3.485237e-01 1.740941e+00 -9.484267e+00 -1.308143e+02 -9.408968e-01 1.666240e+00 -3.549077e+00 1.380469e+00 -2.621870e+00 1.723855e+00 -1.062391e+00 1.232188e+00 -3.259187e-01 7.190294e-01 -5.166049e-01 8.935080e-02 -2.926286e-01 5.373897e-01 -1.048515e+00 1.147532e-01 -7.225855e-01 3.570183e-01 -6.084031e-01 5.350598e-02 -1.957365e-01 2.781101e-01 -2.593582e-01 -4.559949e-02 -2.653547e-02 1.823705e-01 -1.237250e-01 -1.130709e-01 7.209179e-02 1.230330e-01 -1.757132e-03 -1.637240e-01 1.935379e-01 5.382411e-02 1.528074e-01 -2.469432e-01 3.425711e-01 -5.676447e-02 2.761990e-01 -3.237917e-01 3.352111e-01 -6.077234e-02 1.755462e-01 -2.916721e-01 3.076020e-01 1.038438e-02 3.870865e-01 -1.022496e-01 5.931706e-01 -3.108241e-01 1.108547e+00 -5.913427e-01 1.618355e+00 -1.016524e+00 2.044541e+00 -1.547542e+00 2.411584e+00 -2.094656e+00 2.406727e+00 
-9.428226e-01 -9.866495e-01 3.177040e+00 -8.874587e+00 -1.334297e+02 9.069646e-02 1.381451e+00 -3.113823e+00 3.122574e-01 -2.829100e+00 8.493188e-01 -1.080333e+00 6.845455e-01 2.097772e-01 4.050029e-01 -3.457239e-01 -2.995563e-01 -5.907623e-01 4.648413e-01 -1.881562e+00 2.499395e-01 -7.860472e-01 4.378930e-01 -7.330075e-01 1.741786e-01 -1.259218e-02 2.900876e-01 -3.652280e-01 3.964127e-02 1.046959e-01 1.798842e-01 -2.176922e-01 -2.824008e-02 1.934799e-01 1.169492e-01 -7.250453e-02 -8.864488e-02 3.199092e-01 2.798139e-02 1.141324e-01 -2.125610e-01 4.954076e-01 -1.439976e-01 2.728004e-01 -3.470273e-01 4.707135e-01 -1.155780e-01 5.181668e-02 -1.046224e-01 4.369586e-02 -1.894889e-02 2.161625e-01 -2.498481e-01 7.405597e-01 -3.254815e-01 1.222257e+00 -5.642384e-01 1.645050e+00 -9.581836e-01 1.998931e+00 -1.387402e+00 2.287978e+00 -1.685165e+00 2.086594e+00 
-2.594604e-01 -1.542229e+00 4.079786e+00 -8.061521e+00 -1.376217e+02 9.088041e-01 1.207667e+00 -3.236438e+00 -3.049533e-01 -3.581456e+00 3.668742e-01 -1.504593e+00 4.749232e-01 1.063156e+00 2.202330e-02 9.908866e-01 -1.368025e+00 -1.857260e+00 4.028249e-01 -2.758118e+00 2.648392e-01 -8.120367e-01 6.572484e-01 -8.165820e-01 5.467064e-02 2.265133e-01 3.971976e-01 -6.197044e-01 -1.560457e-01 3.125191e-01 2.797438e-01 -5.394196e-01 -2.317044e-01 4.242443e-01 2.338322e-01 -4.176446e-01 -2.743410e-01 5.890805e-01 1.769291e-01 -2.162159e-01 -3.604542e-01 8.891594e-01 -1.508247e-03 1.119970e-01 -5.713031e-01 1.022076e+00 -1.429825e-01 -3.396456e-01 -5.870078e-01 2.622978e-01 1.981305e-01 -3.476287e-01 2.896418e-01 4.054458e-01 1.319136e-01 1.433254e+00 -3.090225e-01 1.867966e+00 -8.104615e-01 2.070339e+00 -1.198401e+00 2.222114e+00 -1.343380e+00 1.801697e+00 
6.266617e-01 -2.064519e+00 5.041318e+00 -7.153478e+00 -1.374246e+02 1.590874e+00 1.121187e+00 -3.135445e+00 -9.490184e-01 -4.430463e+00 -3.658584e-01 -2.814245e+00 3.335191e-01 1.110645e+00 1.697217e-01 4.036388e+00 -3.774413e+00 -4.495885e+00 6.692653e-01 -2.453768e+00 1.342975e+00 -7.220228e-01 6.537047e-01 5.707710e-01 3.115685e-01 -4.268735e-01 2.514766e-01 3.613269e-01 5.465704e-02 -5.596731e-01 2.276897e-01 4.818717e-01 -5.701305e-02 -5.000963e-01 2.476253e-01 6.425441e-01 -1.551203e-01 -3.455080e-01 2.408431e-01 8.839057e-01 -3.356296e-01 4.365293e-02 3.529951e-02 1.332081e+00 -7.543987e-01 3.164889e-01 1.586646e-03 7.719868e-01 -5.926909e-01 -1.801622e+00 6.276842e-01 -1.387965e-01 1.792870e-01 8.519997e-01 1.886373e-01 1.623652e+00 -2.333349e-01 1.926106e+00 -7.569448e-01 1.994953e+00 -1.034884e+00 2.046613e+00 -9.241986e-01 1.438762e+00 
1.319955e+00 -2.553012e+00 5.713878e+00 -6.267760e+00 -1.384685e+02 2.333533e+00 1.077609e+00 -3.031275e+00 -1.167531e+00 -5.711584e+00 -4.127565e-01 -6.021656e+00 1.305024e+00 -4.527469e+00 2.446791e+00 4.759389e+00 -1.040158e+01 -3.762521e+00 6.463171e+00 5.407482e+00 2.156256e+00 1.426307e+00 1.547896e+00 4.023215e+00 -2.447553e-02 -1.593905e-01 2.591032e-01 1.477357e+00 1.478436e-01 -5.706442e-01 -2.135621e-01 5.957078e-01 2.932528e-01 -5.475395e-01 -4.864441e-01 1.811391e-01 4.199996e-01 -3.419816e-01 -6.886695e-01 6.106489e-02 5.438699e-01 1.686804e-01 -9.888391e-01 7.199371e-01 4.104360e-01 1.635541e+00 -1.975106e+00 1.986486e+00 -8.672787e-01 -1.361745e+00 -7.123083e-01 -2.066163e+00 2.433608e+00 2.198344e+00 1.151918e+00 2.699135e+00 -4.106802e-01 2.089894e+00 -9.561650e-01 1.871221e+00 -9.786068e-01 1.849556e+00 -6.007277e-01 1.067490e+00 
2.114619e+00 -2.948608e+00 6.206531e+00 -4.982469e+00 -1.359902e+02 2.646627e+00 9.195084e-01 -2.326028e+00 -1.592603e+00 -5.609789e+00 -1.576871e+00 -9.896867e+00 1.398005e+00 -2.231216e+01 1.052471e+01 -1.334809e+01 -1.497613e+01 5.008709e+00 4.171353e+01 4.952006e+01 5.995989e+00 1.436618e+01 1.909260e+01 2.277558e+01 -1.043233e+00 7.245123e+00 1.637806e+01 1.591312e+01 -2.707370e-01 4.758911e+00 1.285341e+01 1.039307e+01 -1.250818e-01 2.995022e+00 1.049247e+01 6.397419e+00 -1.049350e-02 1.795006e+00 8.673244e+00 3.138203e+00 6.256154e-02 1.127323e+00 6.822878e+00 9.657710e-01 -3.988575e-01 1.289443e+00 5.798401e+00 -5.168766e+00 1.808500e+00 -4.431304e+00 2.025835e+00 -1.668815e+01 -3.164330e+00 -1.379876e+00 8.982777e-01 3.611641e+00 -5.194080e-01 2.188360e+00 -1.093880e+00 1.605072e+00 -8.576144e-01 1.553598e+00 -1.823387e-01 6.411897e-01 
2.784552e+00 -3.156069e+00 6.443620e+00 -3.551879e+00 -1.341766e+02 3.205685e+00 4.661483e-01 -1.080381e+00 -2.354652e+00 -5.045367e+00 -1.442132e+00 -1.461857e+01 7.871956e+00 -4.020269e+01 2.470828e+01 -3.815499e+01 4.475791e+00 3.333310e+01 9.611323e+01 6.978920e+01 2.546998e+01 5.402812e+01 6.920862e+01 4.204121e+01 1.698985e+01 4.865646e+01 7.310606e+01 4.704541e+01 1.798890e+01 4.479014e+01 6.891485e+01 4.554440e+01 1.803683e+01 4.032659e+01 6.589460e+01 4.447578e+01 1.809411e+01 3.576020e+01 6.357862e+01 4.369721e+01 1.813416e+01 3.054377e+01 6.145892e+01 4.209845e+01 1.953177e+01 2.071228e+01 5.703902e+01 3.794678e+01 1.693518e+01 2.718173e+01 3.208841e+01 4.276419e+01 1.650650e+01 1.840087e+01 -8.272975e-01 3.006034e+00 -2.933002e+00 8.401604e-01 -1.645978e+00 1.126212e+00 -7.241399e-01 1.292599e+00 2.272582e-01 2.490990e-01 
3.431076e+00 -3.119529e+00 6.518767e+00 -2.384399e+00 -1.299019e+02 2.979331e+00 6.854173e-01 -9.147530e-01 -1.227942e+00 -3.387081e+00 1.097074e+00 -6.641050e+00 7.944607e+00 -1.494124e+01 1.875390e+01 -2.656707e+01 1.755757e+01 2.750270e+01 4.386537e+01 -2.461475e+01 2.981176e+01 5.079705e+01 5.121355e+01 -1.800176e+01 2.886900e+01 7.387439e+01 6.217499e+01 -9.450077e+00 2.997147e+01 8.862976e+01 6.653235e+01 -6.085677e+00 2.990907e+01 9.788153e+01 7.055383e+01 -2.812481e+00 2.907981e+01 1.036890e+02 7.545514e+01 1.216978e+00 2.730243e+01 1.069288e+02 8.250472e+01 5.244129e+00 2.607563e+01 1.020794e+02 9.032595e+01 8.030785e+00 3.561432e+01 1.481568e+02 5.874593e+01 1.050362e+02 -4.505133e+00 1.132171e+01 -1.017937e+01 -4.190168e+00 -4.948069e+00 -2.001931e+00 -1.574274e+00 2.998608e-01 -3.032178e-01 9.974214e-01 7.509417e-01 -7.088239e-02 
3.934873e+00 -2.989862e+00 6.477893e+00 -1.415841e+00 -1.260294e+02 2.717498e+00 1.196014e+00 -4.566867e-01 -4.451102e-01 5.285733e-01 -6.538986e-01 9.803027e+00 -5.871495e+00 3.104785e+01 -1.971333e+01 3.295412e+01 -6.959056e-01 -6.873218e+01 -8.265959e+01 -4.604047e+01 -1.747121e+01 -8.723848e+01 -5.015626e+01 -1.388592e+01 -1.822355e+01 -8.041353e+01 -4.521095e+01 -6.759935e+00 -1.973205e+01 -7.102956e+01 -3.607981e+01 8.201647e-01 -1.969023e+01 -6.077510e+01 -3.004774e+01 5.664119e+00 -1.873234e+01 -5.027086e+01 -2.568292e+01 8.942989e+00 -1.693468e+01 -3.850479e+01 -2.144333e+01 1.162324e+01 -1.420684e+01 -2.278842e+01 -1.367350e+01 1.400398e+01 -8.313549e+00 -2.545506e+00 1.990332e+00 2.329028e+01 -5.398388e+00 5.626960e+00 -2.474193e+00 8.914371e-01 -8.673512e-01 5.185533e-01 -1.335259e-01 9.250281e-01 2.790641e-01 9.674634e-01 1.226138e+00 -3.463251e-01 
4.252870e+00 -2.594299e+00 6.252400e+00 -5.576282e-01 -1.199410e+02 2.642918e+00 1.045300e+00 -6.635477e-01 -9.917525e-01 -2.013044e-01 -2.891567e+00 9.661242e+00 -1.263537e+01 3.475798e+01 -2.743738e+01 2.282257e+01 4.432488e-01 3.572368e+00 -8.756767e+01 -6.708790e+01 -3.398211e+01 -3.663875e+01 -7.648559e+01 -4.161126e+01 -2.057593e+01 -5.099402e+01 -8.700574e+01 -4.115067e+01 -2.176775e+01 -6.478225e+01 -8.793499e+01 -3.493402e+01 -2.262159e+01 -7.436895e+01 -8.840465e+01 -2.978210e+01 -2.372174e+01 -8.122439e+01 -8.937706e+01 -2.574321e+01 -2.476817e+01 -8.613221e+01 -9.162747e+01 -2.080108e+01 -2.754858e+01 -8.397754e+01 -9.297460e+01 -1.246056e+01 -4.031638e+01 -1.338009e+02 -5.521839e+01 -9.348289e+01 3.255711e+00 -3.351012e+00 7.453813e+00 7.797616e+00 3.325346e+00 4.374586e+00 9.693570e-01 2.078871e+00 6.117518e-01 1.114577e+00 1.561594e+00 -4.608577e-01 
4.553374e+00 -2.293404e+00 6.079553e+00 2.944651e-01 -1.142922e+02 3.142857e+00 5.626606e-01 2.490150e-01 -1.931339e+00 -1.226511e+00 -3.411376e+00 -7.304498e-01 -6.124715e+00 3.759332e+00 -1.111691e+01 3.309768e+00 -3.200772e+00 8.442813e+00 -1.907401e+01 -3.680166e+00 -1.310422e+01 2.341974e+00 -1.414325e+01 -7.390567e+00 -7.795283e+00 1.206062e+00 -1.931355e+01 -1.486590e+01 -7.736563e+00 -2.279405e+00 -2.340235e+01 -2.053230e+01 -7.456535e+00 -5.774362e+00 -2.701894e+01 -2.505090e+01 -7.197491e+00 -9.148308e+00 -3.059371e+01 -2.913993e+01 -6.967123e+00 -1.263369e+01 -3.484854e+01 -3.346573e+01 -7.528095e+00 -1.420482e+01 -4.042912e+01 -3.674119e+01 -7.039626e+00 -3.412584e+01 -3.287527e+01 -6.025172e+01 -1.149185e+01 -1.974113e+01 2.088751e+00 3.589161e-01 2.806054e+00 2.797039e+00 1.456471e+00 1.954732e+00 1.070365e+00 1.079031e+00 1.967171e+00 -5.640263e-01 
4.659773e+00 -1.746059e+00 5.692047e+00 1.052942e+00 -1.069432e+02 3.220612e+00 1.762150e-01 7.662156e-01 -2.585779e+00 -4.020975e-01 -4.074361e+00 -1.883804e+00 -3.926444e+00 -7.287822e+00 -1.311886e+00 -7.783877e+00 1.253227e+00 -1.433486e+00 -3.692774e-01 6.238105e+00 -1.458814e+00 -6.886029e-01 -1.248813e+00 1.215992e+00 3.946359e-02 -1.969490e-01 -6.433331e-01 1.212903e+00 9.035932e-01 6.786964e-01 -7.773403e-01 2.617661e-01 1.401906e+00 9.555174e-01 -1.049319e+00 -8.895127e-01 1.761045e+00 9.280071e-01 -1.388681e+00 -2.242168e+00 2.095682e+00 4.738335e-01 -1.660184e+00 -4.823996e+00 2.823202e+00 -6.705676e-01 -2.703839e+00 -6.064427e+00 2.636498e+00 2.526915e+00 -2.277795e+00 3.288039e+00 -2.535250e-01 -5.556582e+00 -1.235245e-01 -2.511643e+00 1.218481e+00 7.451915e-01 1.253953e+00 1.375579e+00 1.241811e+00 9.133445e-01 2.221385e+00 -5.933694e-01 
4.708421e+00 -1.538368e+00 5.553789e+00 1.063705e+00 -1.003650e+02 3.359923e+00 3.674675e-01 4.960505e-01 -2.145727e+00 -1.368678e+00 -3.054454e+00 -2.300873e+00 -2.301461e+00 -4.018086e+00 -4.330276e-01 -3.615203e+00 6.013920e-01 -9.247763e-01 1.137173e+00 1.156969e+00 -9.676656e-01 -4.272287e-01 -2.788713e-01 -8.766089e-01 -9.524958e-01 -8.773175e-01 2.684641e-01 -4.384927e-01 -6.822044e-01 -3.802482e-01 4.686838e-01 -1.814962e-01 -5.880865e-01 -6.999067e-02 5.429281e-01 -5.792149e-02 -5.447498e-01 8.636466e-02 5.852361e-01 -6.979132e-02 -4.722922e-01 -4.373153e-02 7.632641e-01 -4.967132e-01 -2.834654e-01 -3.852815e-01 8.804071e-01 -2.733850e-01 -4.725212e-02 3.001118e+00 2.764955e-01 4.574630e+00 -6.440886e-01 -1.212795e+00 -6.688141e-01 -1.997211e+00 5.039092e-01 -2.469899e-01 1.012383e+00 6.820401e-01 1.304806e+00 5.676903e-01 2.381313e+00 -7.171066e-01 
4.607343e+00 -1.255452e+00 5.160785e+00 1.332852e+00 -9.226685e+01 3.247090e+00 2.739114e-01 5.260504e-01 -1.943474e+00 -1.561492e+00 -2.493688e+00 -2.712395e+00 -1.663564e+00 -2.867129e+00 -6.976500e-01 -1.869814e+00 8.649077e-01 -1.845997e+00 -3.306576e-01 4.299417e-01 2.012662e-01 -1.427336e-01 -8.180820e-01 -1.073660e-01 5.952320e-02 -7.472487e-01 -6.489429e-01 -1.570886e-01 2.731500e-01 -4.916972e-01 -4.846654e-01 -2.416841e-02 3.598353e-01 -2.858159e-01 -4.228787e-01 3.722273e-02 3.819686e-01 -1.904115e-01 -3.746403e-01 -2.307077e-02 4.522719e-01 -3.273066e-01 -1.617039e-01 -2.734463e-01 6.401069e-01 -1.982774e-01 -2.176096e-01 6.381000e-01 1.481497e-01 2.706151e+00 -8.033750e-01 1.847454e+00 -2.547945e-01 -2.568461e-01 -1.273055e-01 -9.921581e-01 3.601666e-01 -3.451688e-01 8.147142e-01 3.264420e-01 1.260070e+00 2.994336e-01 2.423306e+00 -8.078642e-01 
4.433425e+00 -1.188103e+00 4.922765e+00 1.135768e+00 -8.476364e+01 3.050741e+00 5.740827e-01 5.005490e-01 -1.427810e+00 -1.358370e+00 -1.974371e+00 -2.079310e+00 -1.395429e+00 -2.118283e+00 -8.467427e-01 -1.588121e+00 -1.946326e-01 -1.557627e+00 -3.280488e-01 -2.391359e-01 -1.078894e-01 -4.014308e-01 -3.586320e-01 -1.994135e-01 -1.755767e-01 -6.761348e-01 -2.911337e-01 -1.139738e-01 -1.926419e-02 -5.355134e-01 -1.795030e-01 8.372056e-02 6.920168e-02 -4.163954e-01 -1.386247e-01 2.140105e-01 1.171956e-01 -3.667265e-01 -1.104735e-01 2.614998e-01 1.949323e-01 -4.122242e-01 -2.336074e-02 2.786477e-01 2.781401e-01 -1.863808e-01 -1.513440e-01 1.005762e+00 7.206268e-02 8.520704e-01 -3.180877e-01 1.286616e+00 -1.062781e-02 5.504283e-01 1.098428e-02 -2.354060e-01 2.758110e-01 -1.906425e-01 6.695252e-01 1.500757e-01 1.172172e+00 7.690480e-02 2.364993e+00 -9.169383e-01 
4.152364e+00 -1.060339e+00 4.491010e+00 1.130918e+00 -7.600129e+01 2.790112e+00 5.859894e-01 4.068282e-01 -1.169772e+00 -1.315427e+00 -1.693808e+00 -1.815051e+00 -1.305317e+00 -1.650248e+00 -8.126761e-01 -1.374473e+00 -1.733152e-01 -1.284197e+00 -5.313761e-01 -6.305180e-01 -9.220341e-02 -4.419896e-01 -3.474467e-01 -2.909227e-01 -4.916191e-02 -4.329175e-01 -2.910319e-01 -2.071009e-01 4.228105e-02 -3.219467e-01 -1.990920e-01 -7.079687e-02 1.065736e-01 -2.197375e-01 -1.500198e-01 2.220951e-02 1.440486e-01 -1.699627e-01 -1.068787e-01 5.809634e-02 2.056117e-01 -1.610486e-01 -3.316334e-02 1.439526e-01 2.260686e-01 1.088339e-01 -1.869661e-01 7.050823e-01 -7.079874e-02 7.970889e-01 -2.977736e-01 8.054489e-01 2.296706e-02 3.894772e-01 1.290270e-01 7.101938e-03 3.123950e-01 -1.482759e-02 6.048979e-01 1.352873e-01 1.079986e+00 -2.816816e-02 2.247869e+00 -9.595402e-01 
3.797811e+00 -1.020262e+00 4.113729e+00 9.112074e-01 -6.754945e+01 2.472239e+00 7.451960e-01 4.127710e-01 -8.231344e-01 -1.032799e+00 -1.391935e+00 -1.410521e+00 -1.155989e+00 -1.324504e+00 -8.326002e-01 -1.071487e+00 -5.682167e-01 -9.830377e-01 -5.059129e-01 -6.017012e-01 -2.531864e-01 -6.121963e-01 -2.107149e-01 -3.969352e-01 -1.014085e-01 -4.049777e-01 -1.276801e-01 -2.054576e-01 -2.880740e-02 -2.580311e-01 -8.103523e-02 -9.222823e-02 1.620342e-02 -1.624193e-01 -5.052528e-02 -7.877727e-03 5.317009e-02 -8.967067e-02 -2.672428e-02 7.312018e-02 8.453225e-02 2.624523e-04 -3.204086e-02 2.109418e-01 4.868521e-02 1.725118e-01 -1.393670e-01 4.440977e-01 -3.968142e-02 3.758254e-01 -1.515745e-01 4.869368e-01 1.192546e-01 3.490581e-01 2.335986e-01 2.191695e-01 3.484793e-01 1.901495e-01 5.395093e-01 1.902245e-01 9.514586e-01 -7.826032e-02 2.049069e+00 -9.731348e-01 
3.372105e+00 -9.343115e-01 3.623846e+00 7.743641e-01 -5.817517e+01 2.150521e+00 7.475124e-01 3.284832e-01 -6.197568e-01 -8.887566e-01 -1.185589e+00 -1.097989e+00 -1.045484e+00 -1.009135e+00 -7.254550e-01 -8.490955e-01 -5.456519e-01 -7.484070e-01 -5.156849e-01 -7.602096e-01 -2.864459e-01 -6.906757e-01 -1.401299e-01 -4.412119e-01 -7.143773e-02 -2.793382e-01 -4.496015e-02 -1.979287e-01 -3.710789e-02 -1.479382e-01 -2.189820e-02 -1.275348e-01 -1.596798e-02 -7.600849e-02 7.860009e-03 -6.771979e-02 1.080246e-02 -6.981547e-03 3.288061e-02 1.974358e-02 1.844184e-02 1.145502e-01 1.466778e-04 1.855956e-01 -6.717356e-02 2.462457e-01 -9.198741e-02 2.440576e-01 -1.384778e-01 2.805123e-01 -6.373094e-02 2.564756e-01 1.409504e-01 1.802250e-01 2.640589e-01 2.656919e-01 3.516356e-01 3.051213e-01 4.675144e-01 2.439560e-01 8.118191e-01 -8.486821e-02 1.813932e+00 -9.349194e-01 
2.875990e+00 -8.941762e-01 3.136287e+00 4.978756e-01 -4.888614e+01 1.788026e+00 8.090741e-01 2.100983e-01 -3.288845e-01 -7.495591e-01 -8.743227e-01 -7.115249e-01 -8.870239e-01 -5.695110e-01 -6.574689e-01 -4.844719e-01 -6.548314e-01 -2.807811e-01 -7.837580e-01 -9.209842e-01 -3.210674e-01 -8.776435e-01 -7.257333e-02 -5.485062e-01 5.728211e-02 -1.446574e-01 -3.540152e-02 -2.363218e-01 4.726799e-02 -1.194784e-02 -7.296136e-02 -2.214804e-01 5.797742e-02 6.158738e-02 -6.555385e-02 -1.854339e-01 8.749871e-02 1.439226e-01 -5.409914e-02 -8.338982e-02 8.988669e-02 3.234678e-01 -1.316144e-01 1.732392e-01 -6.452333e-02 4.429318e-01 -2.443078e-01 -6.733659e-02 -3.607474e-02 6.933883e-02 -1.612829e-01 -1.406295e-01 2.901443e-01 -6.176088e-02 4.699566e-01 4.722645e-01 4.022098e-01 5.389286e-01 3.538340e-01 3.247727e-01 6.120811e-01 -8.591385e-02 1.504773e+00 -8.798506e-01 
2.346574e+00 -8.368898e-01 2.593629e+00 2.697377e-01 -3.901233e+01 1.439729e+00 7.858169e-01 7.514627e-02 -1.191255e-01 -7.209130e-01 -5.824715e-01 -4.546482e-01 -7.103804e-01 5.014099e-02 -6.487524e-01 -1.910636e-01 -4.503010e-01 2.950490e-01 -1.206360e+00 -1.911227e+00 -9.368377e-02 -6.051060e-01 -1.527559e-02 -7.012216e-01 2.230580e-01 2.567985e-01 -1.019072e-01 -4.447336e-01 1.620944e-01 2.884473e-01 -1.566095e-01 -4.498619e-01 1.592853e-01 3.279568e-01 -1.539240e-01 -4.246621e-01 1.848634e-01 3.970689e-01 -1.505849e-01 -3.271781e-01 1.825634e-01 6.045780e-01 -2.591387e-01 -2.154691e-02 -1.168559e-02 8.504160e-01 -4.076292e-01 -3.986768e-01 3.584512e-03 -4.648257e-02 -2.021855e-01 -7.903880e-01 4.342304e-01 -1.778043e-03 5.572254e-01 7.276807e-01 3.399927e-01 6.789110e-01 1.945476e-01 3.418497e-01 4.033244e-01 -9.266621e-02 1.181186e+00 -8.028382e-01 
1.761248e+00 -7.594510e-01 1.999966e+00 2.909849e-03 -2.900486e+01 1.103386e+00 7.029679e-01 -2.148839e-01 1.409097e-01 -1.122235e+00 -1.658931e-03 -5.863533e-01 -2.846314e-01 1.188839e+00 -7.722614e-01 4.717410e-01 4.659998e-01 1.858211e+00 -3.344130e+00 -4.268054e+00 1.125106e+00 3.997089e-01 -5.916088e-01 -1.596051e+00 1.586696e+00 1.722419e+00 -1.373663e+00 -1.568205e+00 1.517200e+00 1.509516e+00 -1.533870e+00 -1.590623e+00 1.597071e+00 1.523142e+00 -1.595292e+00 -1.572415e+00 1.676819e+00 1.565689e+00 -1.621626e+00 -1.516310e+00 1.761806e+00 1.756612e+00 -1.691356e+00 -1.096033e+00 1.602011e+00 2.641472e+00 -2.198842e+00 -1.370620e+00 1.403359e+00 5.001787e-01 -1.606342e+00 -3.286094e+00 1.143088e+00 3.858212e-01 1.291950e+00 1.800224e+00 1.476623e-01 8.638667e-01 -1.717707e-01 2.073188e-01 1.097323e-01 -1.746636e-01 8.152274e-01 -7.156610e-01 
1.177478e+00 -6.719458e-01 1.398235e+00 -2.181692e-01 -1.875931e+01 7.686925e-01 5.948192e-01 -3.064214e-01 2.784162e-01 -1.258848e+00 4.108175e-01 -1.385902e+00 6.572287e-01 -1.722363e-01 -3.261149e-01 6.181405e-01 1.179451e+00 -2.217285e+00 -1.587423e+00 5.347345e-01 3.919032e+00 1.475465e+00 9.787601e-01 9.374702e-01 2.008799e+00 1.146791e+00 3.880692e-01 1.167511e+00 1.997319e+00 8.650417e-01 5.938504e-01 1.377590e+00 2.064504e+00 8.430310e-01 8.045660e-01 1.665306e+00 2.233656e+00 8.379618e-01 9.717260e-01 2.011727e+00 2.509915e+00 9.356598e-01 1.031597e+00 2.741980e+00 2.780340e+00 1.490383e+00 1.099969e+00 2.951472e+00 2.540269e+00 6.695765e-01 5.860578e-01 -5.007536e-01 2.711962e+00 2.504389e+00 1.248844e+00 2.554723e+00 -2.627476e-01 7.188082e-01 -4.831357e-01 -6.250417e-03 -1.179451e-01 -2.475335e-01 4.732466e-01 -6.060471e-01 
5.589091e-01 -4.042466e-01 6.550183e-01 -1.606547e-01 -8.155638e+00 5.199160e-01 1.434813e-01 -1.483871e-01 -3.663512e-02 -1.942930e+00 1.026558e+00 -6.824840e+00 4.327595e+00 -1.064547e+01 2.467627e+00 -4.361915e+00 7.926724e+00 -2.155436e+01 4.477935e+00 2.782266e+01 3.321082e+01 1.626161e+01 1.245272e+01 2.857601e+01 2.398972e+01 5.342550e+00 1.189132e+01 3.127631e+01 2.529391e+01 4.985801e+00 1.367652e+01 3.333917e+01 2.431615e+01 3.706510e+00 1.473495e+01 3.474810e+01 2.403325e+01 3.083524e+00 1.532413e+01 3.576893e+01 2.455086e+01 2.794294e+00 1.556991e+01 3.599238e+01 2.693016e+01 1.956816e+00 1.604314e+01 3.988806e+01 2.376732e+01 1.433032e+01 9.799169e+00 4.425753e+01 2.112093e+01 2.571670e+01 6.274852e-01 2.271591e+00 -2.416812e+00 -1.084920e+00 -1.095681e+00 -6.345689e-01 -2.769967e-01 -3.243197e-01 1.836403e-01 -4.019236e-01 
-4.780746e-02 -1.839037e-01 -1.129552e-02 -2.599219e-01 2.284234e+00 1.859259e-01 -7.020405e-02 -1.473189e-01 -5.941293e-02 -2.193241e+00 1.464046e+00 -8.914533e+00 6.117919e+00 -1.501890e+01 4.502564e+00 -5.684993e+00 7.487804e+00 -2.695656e+01 1.788474e+01 4.650086e+01 3.755580e+01 1.861514e+01 2.516825e+01 4.510853e+01 2.630994e+01 7.293651e+00 2.654127e+01 4.681926e+01 2.689642e+01 7.707422e+00 2.872859e+01 4.723263e+01 2.426789e+01 6.315071e+00 2.966245e+01 4.706713e+01 2.288130e+01 5.551250e+00 2.980134e+01 4.675851e+01 2.266517e+01 4.912049e+00 2.933668e+01 4.574306e+01 2.445902e+01 3.145040e+00 3.059568e+01 4.795375e+01 2.038889e+01 1.994871e+01 2.097615e+01 6.305954e+01 1.964494e+01 2.483671e+01 -2.200807e+00 -2.046956e-01 -3.004943e+00 -1.972417e+00 -1.108557e+00 -8.367991e-01 -3.173213e-01 -2.927439e-01 -9.719591e-02 -1.806441e-01 
-7.145231e-01 2.012200e-01 -8.024725e-01 -2.239082e-01 1.302593e+01 -5.245642e-01 -1.117058e-01 -7.482331e-02 1.791213e-01 6.667407e-01 -6.060764e-02 2.063007e+00 -1.248337e+00 3.544310e+00 -1.379833e+00 1.424536e+00 -1.319887e+00 6.082992e+00 -6.566543e+00 -1.018703e+01 -6.253468e+00 -1.091516e+00 -7.772730e+00 -9.817089e+00 -4.825027e+00 -3.101744e-01 -9.367032e+00 -1.220283e+01 -5.630980e+00 -1.214918e+00 -1.083696e+01 -1.401586e+01 -5.689976e+00 -1.561801e+00 -1.206678e+01 -1.574842e+01 -5.999237e+00 -1.761191e+00 -1.307025e+01 -1.753760e+01 -6.689736e+00 -1.753359e+00 -1.388518e+01 -1.923379e+01 -8.245758e+00 -1.256910e+00 -1.540475e+01 -2.211256e+01 -7.507618e+00 -9.689695e+00 -1.177064e+01 -3.311381e+01 -8.535198e+00 -1.118864e+01 1.681194e+00 2.256784e-01 1.399106e+00 9.382972e-01 3.690760e-01 3.630149e-01 -8.252724e-02 1.076220e-01 -3.534588e-01 1.709561e-01 