# vtk DataFile Version 2.0
Comment goes here
ASCII

DATASET STRUCTURED_POINTS
FIELD FieldData 1
TIME 1 1 double
0.01100000
DIMENSIONS    64   64   1

ORIGIN    0.000   0.000   0.000
SPACING   0.03125 0.03125   1.000

POINT_DATA   4096
SCALARS P double
LOOKUP_TABLE default

8.381881e+00 -5.597781e+01 1.686708e+01 -7.631901e+01 9.110095e+01 1.714051e+02 4.248452e+01 1.575722e+02 5.148523e+01 1.435663e+02 5.716799e+01 1.304361e+02 6.127983e+01 1.193597e+02 6.097541e+01 1.128158e+02 5.676382e+01 1.071882e+02 5.144197e+01 1.006697e+02 4.681194e+01 9.430626e+01 4.186801e+01 8.690237e+01 3.792965e+01 7.627315e+01 3.767740e+01 6.378869e+01 3.604510e+01 5.629922e+01 3.076173e+01 4.779037e+01 2.841104e+01 3.696277e+01 2.513784e+01 2.986776e+01 2.266525e+01 1.868769e+01 1.973319e+01 1.180378e+01 1.723967e+01 1.577726e+00 1.877376e+01 -9.983366e+00 1.542506e+01 -1.281022e+01 7.151032e+00 -1.743794e+01 7.172803e+00 -3.046685e+01 1.289244e+01 -4.514394e+01 1.784589e+01 -5.641896e+01 2.112168e+01 -6.455862e+01 2.077375e+01 -6.294063e+01 1.440991e+01 -5.824003e+01 6.651146e+00 -5.176691e+01 3.174426e+00 -5.216795e+01 
1.057994e+00 -6.697146e+01 4.484341e+00 -7.791794e+01 5.570058e+01 1.122008e+02 1.554325e+01 1.058111e+02 1.920032e+01 9.858131e+01 2.126983e+01 9.117606e+01 2.303438e+01 8.423180e+01 2.270634e+01 7.932868e+01 2.058200e+01 7.440837e+01 1.826040e+01 6.862475e+01 1.646928e+01 6.293949e+01 1.442899e+01 5.671178e+01 1.283550e+01 4.875673e+01 1.317398e+01 3.979734e+01 1.266251e+01 3.370219e+01 1.005874e+01 2.682917e+01 9.245252e+00 1.862239e+01 7.678580e+00 1.272294e+01 6.676781e+00 4.154097e+00 5.467414e+00 -1.777657e+00 4.383152e+00 -9.850377e+00 5.884929e+00 -1.899794e+01 4.676576e+00 -2.301255e+01 3.809841e-01 -2.789991e+01 7.674437e-01 -3.735064e+01 3.994439e+00 -4.746905e+01 6.533881e+00 -5.569013e+01 8.370274e+00 -6.279865e+01 8.543662e+00 -6.455737e+01 5.403093e+00 -6.471489e+01 1.273830e+00 -6.332883e+01 -1.047121e+00 -6.501971e+01 
-1.621867e+00 -8.500942e+01 -1.177553e+00 -8.976138e+01 1.420549e+01 8.861113e+01 -4.349492e-01 8.505658e+01 -3.110194e-01 8.082880e+01 -3.953517e-01 7.607504e+01 -2.846558e-01 7.092392e+01 -4.536627e-01 6.577209e+01 -7.744459e-01 6.019899e+01 -9.286774e-01 5.416597e+01 -8.824526e-01 4.804842e+01 -9.141713e-01 4.178293e+01 -9.850218e-01 3.524465e+01 -8.349702e-01 2.852626e+01 -9.193632e-01 2.235323e+01 -1.403342e+00 1.588343e+01 -1.504668e+00 9.171932e+00 -1.914017e+00 3.040049e+00 -2.095749e+00 -3.885040e+00 -2.206372e+00 -1.020705e+01 -2.317069e+00 -1.711869e+01 -1.663410e+00 -2.447084e+01 -1.463793e+00 -3.069477e+01 -1.995328e+00 -3.697927e+01 -1.544681e+00 -4.400528e+01 -7.323843e-01 -5.087132e+01 -2.247264e-01 -5.732914e+01 3.024703e-01 -6.378307e+01 6.427177e-01 -6.904843e+01 2.853195e-01 -7.382648e+01 -4.912870e-01 -7.777557e+01 -1.340540e+00 -8.178828e+01 
-1.633421e+00 -7.974396e+01 -1.059941e+00 -8.287374e+01 -3.406252e-01 8.349008e+01 1.322167e-01 8.067632e+01 4.851153e-01 7.694733e+01 6.499678e-01 7.261032e+01 7.579451e-01 6.789658e+01 6.119997e-01 6.302440e+01 2.828850e-01 5.782753e+01 -8.732946e-03 5.226585e+01 -2.020360e-01 4.649818e+01 -3.797070e-01 4.050187e+01 -5.024127e-01 3.424371e+01 -5.110959e-01 2.787716e+01 -6.550104e-01 2.172093e+01 -1.007946e+00 1.545027e+01 -1.250304e+00 9.077047e+00 -1.578799e+00 2.871977e+00 -1.799220e+00 -3.622129e+00 -1.930846e+00 -9.968252e+00 -1.959818e+00 -1.658329e+01 -1.669337e+00 -2.331071e+01 -1.620791e+00 -2.949528e+01 -1.862115e+00 -3.568769e+01 -1.565326e+00 -4.229796e+01 -9.115533e-01 -4.888479e+01 -3.254359e-01 -5.512029e+01 1.401939e-01 -6.093292e+01 2.874391e-01 -6.578200e+01 -1.083277e-01 -6.991131e+01 -8.089523e-01 -7.340506e+01 -1.422220e+00 -7.673411e+01 
-9.906371e-01 -8.599013e+01 -8.899937e-01 -8.953051e+01 -5.782921e-01 8.848456e+01 -4.578698e-01 8.515481e+01 -3.788015e-01 8.099196e+01 -3.696959e-01 7.626904e+01 -3.617142e-01 7.115210e+01 -4.538576e-01 6.578705e+01 -6.096307e-01 6.011410e+01 -7.249351e-01 5.414691e+01 -7.782124e-01 4.800239e+01 -8.362775e-01 4.170358e+01 -8.982881e-01 3.525143e+01 -9.290565e-01 2.872428e+01 -1.050507e+00 2.229175e+01 -1.291828e+00 1.578203e+01 -1.477053e+00 9.203501e+00 -1.707099e+00 2.705565e+00 -1.864528e+00 -3.970409e+00 -1.951679e+00 -1.058621e+01 -1.953245e+00 -1.736854e+01 -1.747394e+00 -2.423086e+01 -1.636584e+00 -3.079809e+01 -1.662821e+00 -3.733209e+01 -1.410174e+00 -4.401598e+01 -9.878944e-01 -5.060785e+01 -6.107932e-01 -5.695414e+01 -2.889574e-01 -6.302487e+01 -1.262846e-01 -6.851334e+01 -2.635825e-01 -7.351550e+01 -6.049742e-01 -7.801982e+01 -9.434258e-01 -8.221232e+01 
-1.008441e+00 -8.160167e+01 -7.523172e-01 -8.484657e+01 -3.514472e-01 8.505450e+01 1.529041e-02 8.177519e+01 2.861457e-01 7.781548e+01 4.469303e-01 7.334566e+01 5.124635e-01 6.850932e+01 4.406357e-01 6.340752e+01 2.625928e-01 5.803143e+01 6.173980e-02 5.238986e+01 -1.193657e-01 4.653861e+01 -2.849989e-01 4.049985e+01 -4.253682e-01 3.429787e+01 -5.425203e-01 2.801215e+01 -7.099786e-01 2.173684e+01 -9.462312e-01 1.541535e+01 -1.173166e+00 9.049332e+00 -1.404390e+00 2.688012e+00 -1.585124e+00 -3.756101e+00 -1.699289e+00 -1.020837e+01 -1.732056e+00 -1.673751e+01 -1.661279e+00 -2.327077e+01 -1.627511e+00 -2.964430e+01 -1.621186e+00 -3.598329e+01 -1.425728e+00 -4.238515e+01 -1.071002e+00 -4.869965e+01 -7.078422e-01 -5.475101e+01 -4.279234e-01 -6.041351e+01 -3.326319e-01 -6.551265e+01 -4.824177e-01 -7.008710e+01 -7.728835e-01 -7.421613e+01 -1.011256e+00 -7.804754e+01 
-8.171872e-01 -8.727245e+01 -7.373441e-01 -9.099156e+01 -5.666275e-01 8.978755e+01 -4.525432e-01 8.607327e+01 -3.779884e-01 8.170729e+01 -3.423795e-01 7.685164e+01 -3.381088e-01 7.162414e+01 -3.893410e-01 6.610677e+01 -4.836137e-01 6.032123e+01 -5.818753e-01 5.430339e+01 -6.675709e-01 4.810984e+01 -7.526337e-01 4.177766e+01 -8.402710e-01 3.533369e+01 -9.316754e-01 2.882647e+01 -1.061708e+00 2.230759e+01 -1.234542e+00 1.574978e+01 -1.403854e+00 9.154292e+00 -1.571961e+00 2.549406e+00 -1.702699e+00 -4.115926e+00 -1.781677e+00 -1.079968e+01 -1.796679e+00 -1.753805e+01 -1.733753e+00 -2.428443e+01 -1.670680e+00 -3.093622e+01 -1.610069e+00 -3.753758e+01 -1.445854e+00 -4.411960e+01 -1.196890e+00 -5.058949e+01 -9.391736e-01 -5.685532e+01 -7.186453e-01 -6.285054e+01 -5.938822e-01 -6.847058e+01 -6.091352e-01 -7.371179e+01 -7.208837e-01 -7.857938e+01 -8.258129e-01 -8.310985e+01 
-7.602304e-01 -8.377973e+01 -5.664275e-01 -8.760116e+01 -2.775077e-01 8.744395e+01 -2.288561e-02 8.354399e+01 1.905561e-01 7.918610e+01 3.366182e-01 7.444165e+01 4.031993e-01 6.938274e+01 3.751666e-01 6.406132e+01 2.655223e-01 5.849841e+01 1.132885e-01 5.272208e+01 -5.076606e-02 4.676613e+01 -2.137518e-01 4.066135e+01 -3.695436e-01 3.443610e+01 -5.225810e-01 2.813618e+01 -6.955218e-01 2.179890e+01 -8.926299e-01 1.542512e+01 -1.090847e+00 9.016928e+00 -1.279635e+00 2.587004e+00 -1.436746e+00 -3.881959e+00 -1.548310e+00 -1.037195e+01 -1.607026e+00 -1.688725e+01 -1.614465e+00 -2.338988e+01 -1.605702e+00 -2.982916e+01 -1.569729e+00 -3.621822e+01 -1.445533e+00 -4.256073e+01 -1.237556e+00 -4.877707e+01 -1.004452e+00 -5.476975e+01 -8.087190e-01 -6.045709e+01 -7.062852e-01 -6.577039e+01 -7.171379e-01 -7.071393e+01 -7.911104e-01 -7.532982e+01 -8.340921e-01 -7.967775e+01 
-7.679236e-01 -8.900003e+01 -6.699181e-01 -9.326541e+01 -5.277023e-01 9.193670e+01 -4.281339e-01 8.764430e+01 -3.442782e-01 8.291087e+01 -2.850539e-01 7.780410e+01 -2.587570e-01 7.238403e+01 -2.807059e-01 6.669286e+01 -3.520164e-01 6.075931e+01 -4.498470e-01 5.463456e+01 -5.559326e-01 4.835543e+01 -6.648483e-01 4.196340e+01 -7.768670e-01 3.547923e+01 -8.946893e-01 2.893997e+01 -1.029331e+00 2.236238e+01 -1.179748e+00 1.575530e+01 -1.330987e+00 9.114505e+00 -1.473442e+00 2.453774e+00 -1.591811e+00 -4.243038e+00 -1.674898e+00 -1.095876e+01 -1.717238e+00 -1.769950e+01 -1.718929e+00 -2.443238e+01 -1.701115e+00 -3.112553e+01 -1.660499e+00 -3.776364e+01 -1.565778e+00 -4.433613e+01 -1.413612e+00 -5.077542e+01 -1.228847e+00 -5.702753e+01 -1.050799e+00 -6.305226e+01 -9.196815e-01 -6.880830e+01 -8.563867e-01 -7.428276e+01 -8.412841e-01 -7.947405e+01 -8.262471e-01 -8.438579e+01 
-6.596206e-01 -8.623123e+01 -4.787153e-01 -9.072802e+01 -2.464662e-01 9.033478e+01 -3.522030e-02 8.577523e+01 1.557144e-01 8.094332e+01 3.029700e-01 7.585053e+01 3.874385e-01 7.051655e+01 3.911735e-01 6.495449e+01 3.115913e-01 5.917726e+01 1.774769e-01 5.323289e+01 1.797476e-02 4.714207e+01 -1.484023e-01 4.094329e+01 -3.150865e-01 3.464908e+01 -4.817762e-01 2.829742e+01 -6.560279e-01 2.189747e+01 -8.370907e-01 1.546937e+01 -1.017110e+00 9.006316e+00 -1.185860e+00 2.525092e+00 -1.333118e+00 -3.986796e+00 -1.449474e+00 -1.051032e+01 -1.532395e+00 -1.704962e+01 -1.582845e+00 -2.357244e+01 -1.610171e+00 -3.006499e+01 -1.606034e+00 -3.650081e+01 -1.548460e+00 -4.286321e+01 -1.428172e+00 -4.907806e+01 -1.262189e+00 -5.509346e+01 -1.094686e+00 -6.087462e+01 -9.657041e-01 -6.639875e+01 -8.888455e-01 -7.167002e+01 -8.414292e-01 -7.671279e+01 -7.783180e-01 -8.155948e+01 
-7.757480e-01 -9.106764e+01 -6.568092e-01 -9.596445e+01 -5.180069e-01 9.458097e+01 -4.026296e-01 8.966496e+01 -2.926609e-01 8.449168e+01 -1.973415e-01 7.907132e+01 -1.317160e-01 7.341515e+01 -1.221143e-01 6.752062e+01 -1.923770e-01 6.138798e+01 -3.083374e-01 5.511957e+01 -4.399162e-01 4.871369e+01 -5.728808e-01 4.224118e+01 -7.062965e-01 3.567989e+01 -8.401732e-01 2.909173e+01 -9.801886e-01 2.244670e+01 -1.123553e+00 1.579458e+01 -1.265968e+00 9.094711e+00 -1.398544e+00 2.394260e+00 -1.515318e+00 -4.351247e+00 -1.608391e+00 -1.109288e+01 -1.677491e+00 -1.786887e+01 -1.722879e+00 -2.462020e+01 -1.753190e+00 -3.137044e+01 -1.764382e+00 -3.805615e+01 -1.742022e+00 -4.468661e+01 -1.662142e+00 -5.114865e+01 -1.510929e+00 -5.742701e+01 -1.334872e+00 -6.352236e+01 -1.176285e+00 -6.942696e+01 -1.054114e+00 -7.513516e+01 -9.614439e-01 -8.064519e+01 -8.756114e-01 -8.595746e+01 
-6.329602e-01 -8.884585e+01 -4.516316e-01 -9.401319e+01 -2.444141e-01 9.349427e+01 -3.835716e-02 8.828966e+01 1.584376e-01 8.296660e+01 3.290084e-01 7.750269e+01 4.510163e-01 7.187857e+01 4.903006e-01 6.606154e+01 4.129610e-01 6.002258e+01 2.674849e-01 5.388939e+01 9.471046e-02 4.762588e+01 -8.210047e-02 4.132052e+01 -2.594037e-01 3.491964e+01 -4.329103e-01 2.850689e+01 -6.087016e-01 2.202427e+01 -7.822254e-01 1.554857e+01 -9.536830e-01 9.013964e+00 -1.113281e+00 2.493857e+00 -1.259469e+00 -4.079985e+00 -1.383765e+00 -1.063295e+01 -1.489257e+00 -1.722856e+01 -1.573893e+00 -2.378548e+01 -1.645039e+00 -3.035820e+01 -1.695276e+00 -3.685763e+01 -1.712864e+00 -4.331410e+01 -1.663721e+00 -4.957838e+01 -1.520740e+00 -5.565079e+01 -1.341425e+00 -6.154854e+01 -1.172588e+00 -6.727942e+01 -1.031430e+00 -7.285371e+01 -9.091734e-01 -7.828987e+01 -7.832499e-01 -8.361237e+01 
-8.123219e-01 -9.333782e+01 -6.746939e-01 -9.886178e+01 -5.286450e-01 9.748041e+01 -3.824787e-01 9.195409e+01 -2.326738e-01 8.632648e+01 -8.316435e-02 8.057840e+01 4.985125e-02 7.468652e+01 1.161854e-01 6.858576e+01 1.529550e-02 6.215245e+01 -1.512060e-01 5.574168e+01 -3.204388e-01 4.913885e+01 -4.807426e-01 4.260766e+01 -6.332686e-01 3.590762e+01 -7.800364e-01 2.930031e+01 -9.258329e-01 2.253824e+01 -1.068963e+00 1.588164e+01 -1.208970e+00 9.075566e+00 -1.340180e+00 2.379841e+00 -1.460747e+00 -4.463339e+00 -1.566582e+00 -1.119263e+01 -1.659648e+00 -1.806303e+01 -1.742459e+00 -2.480921e+01 -1.822413e+00 -3.168053e+01 -1.901997e+00 -3.840471e+01 -1.973217e+00 -4.520687e+01 -1.981809e+00 -5.170513e+01 -1.817828e+00 -5.800849e+01 -1.601048e+00 -6.418192e+01 -1.395845e+00 -7.024010e+01 -1.222029e+00 -7.618272e+01 -1.075898e+00 -8.200974e+01 -9.437573e-01 -8.772535e+01 
-6.451902e-01 -9.151461e+01 -4.600465e-01 -9.731292e+01 -2.622050e-01 9.674491e+01 -4.141266e-02 9.093478e+01 1.814698e-01 8.513855e+01 3.999617e-01 7.931991e+01 5.951853e-01 7.343565e+01 7.056974e-01 6.738781e+01 5.846113e-01 6.096282e+01 3.835185e-01 5.467494e+01 1.775197e-01 4.815234e+01 -1.652805e-02 4.179262e+01 -2.052217e-01 3.520264e+01 -3.830388e-01 2.878582e+01 -5.613180e-01 2.214451e+01 -7.308012e-01 1.568644e+01 -8.998021e-01 9.007272e+00 -1.055539e+00 2.516242e+00 -1.205434e+00 -4.194069e+00 -1.338274e+00 -1.071296e+01 -1.464726e+00 -1.744645e+01 -1.579714e+00 -2.398277e+01 -1.698521e+00 -3.072569e+01 -1.818013e+00 -3.725810e+01 -1.940989e+00 -4.395961e+01 -1.993038e+00 -5.026972e+01 -1.815963e+00 -5.638134e+01 -1.577828e+00 -6.238787e+01 -1.352041e+00 -6.831502e+01 -1.155989e+00 -7.417317e+01 -9.827916e-01 -7.997672e+01 -8.171607e-01 -8.574770e+01 
-8.624461e-01 -9.568658e+01 -7.110299e-01 -1.018012e+02 -5.562267e-01 1.004546e+02 -3.749852e-01 9.435549e+01 -1.784210e-01 8.828984e+01 4.357951e-02 8.223548e+01 2.951101e-01 7.617121e+01 5.193916e-01 6.997883e+01 2.964217e-01 6.289569e+01 2.597551e-03 5.655453e+01 -2.029952e-01 4.949370e+01 -4.029139e-01 4.314225e+01 -5.586201e-01 3.604326e+01 -7.276721e-01 2.966317e+01 -8.665378e-01 2.252447e+01 -1.024505e+00 1.611794e+01 -1.153084e+00 8.945894e+00 -1.299560e+00 2.512897e+00 -1.413264e+00 -4.689780e+00 -1.544616e+00 -1.115101e+01 -1.644553e+00 -1.838216e+01 -1.771788e+00 -2.487260e+01 -1.884616e+00 -3.213933e+01 -2.054100e+00 -3.867572e+01 -2.257919e+00 -4.603618e+01 -2.476689e+00 -5.245397e+01 -2.179070e+00 -5.871762e+01 -1.856039e+00 -6.495466e+01 -1.584127e+00 -7.116632e+01 -1.362815e+00 -7.734243e+01 -1.178233e+00 -8.348093e+01 -1.015493e+00 -8.958972e+01 
-6.773873e-01 -9.414182e+01 -4.903682e-01 -1.005185e+02 -2.973556e-01 9.994332e+01 -5.514768e-02 9.357714e+01 2.027287e-01 8.734158e+01 4.893988e-01 8.121035e+01 8.195935e-01 7.516321e+01 1.150878e+00 6.907668e+01 8.455256e-01 6.177070e+01 4.938288e-01 5.568787e+01 2.576534e-01 4.851905e+01 3.306585e-02 4.248945e+01 -1.516852e-01 3.531358e+01 -3.435396e-01 2.928494e+01 -5.120850e-01 2.208111e+01 -6.908999e-01 1.604207e+01 -8.484100e-01 8.810963e+00 -1.014747e+00 2.755474e+00 -1.157765e+00 -4.502002e+00 -1.310173e+00 -1.057983e+01 -1.441274e+00 -1.786493e+01 -1.592418e+00 -2.397385e+01 -1.741450e+00 -3.130872e+01 -1.946997e+00 -3.749013e+01 -2.229121e+00 -4.500871e+01 -2.555073e+00 -5.115514e+01 -2.174774e+00 -5.721387e+01 -1.803000e+00 -6.330445e+01 -1.502621e+00 -6.941751e+01 -1.259089e+00 -7.554434e+01 -1.051423e+00 -8.169180e+01 -8.618469e-01 -8.788041e+01 
-9.175895e-01 -9.800984e+01 -7.600178e-01 -1.046652e+02 -6.024033e-01 1.033601e+02 -3.912332e-01 9.673251e+01 -1.556434e-01 9.024957e+01 1.360915e-01 8.391068e+01 5.616808e-01 7.779867e+01 1.351871e+00 7.224110e+01 6.870540e-01 6.289849e+01 2.548049e-02 5.808008e+01 -5.204422e-02 4.913902e+01 -4.131743e-01 4.441837e+01 -4.289805e-01 3.545702e+01 -7.509012e-01 3.077985e+01 -7.452202e-01 2.177353e+01 -1.055875e+00 1.711611e+01 -1.035842e+00 8.070694e+00 -1.338539e+00 3.413065e+00 -1.304749e+00 -5.665351e+00 -1.600654e+00 -1.034082e+01 -1.559475e+00 -1.945074e+01 -1.861395e+00 -2.415954e+01 -1.848964e+00 -3.333825e+01 -2.216654e+00 -3.812277e+01 -2.484864e+00 -4.783326e+01 -3.509245e+00 -5.334437e+01 -2.569616e+00 -5.944964e+01 -2.060688e+00 -6.575067e+01 -1.722344e+00 -7.212574e+01 -1.468016e+00 -7.853663e+01 -1.261102e+00 -8.497752e+01 -1.081799e+00 -9.146020e+01 
-7.187946e-01 -9.664622e+01 -5.358094e-01 -1.035432e+02 -3.520403e-01 1.029711e+02 -9.293112e-02 9.609714e+01 1.889840e-01 8.944740e+01 5.294414e-01 8.302623e+01 1.030359e+00 7.695542e+01 2.042141e+00 7.174897e+01 1.225379e+00 6.161771e+01 4.420080e-01 5.755742e+01 4.067296e-01 4.799467e+01 -2.326576e-02 4.409582e+01 -4.869118e-03 3.452967e+01 -4.012461e-01 3.071725e+01 -3.625660e-01 2.110960e+01 -7.506840e-01 1.734456e+01 -6.958338e-01 7.698517e+00 -1.077650e+00 3.949917e+00 -1.007237e+00 -5.728612e+00 -1.383695e+00 -9.486743e+00 -1.304224e+00 -1.919775e+01 -1.686522e+00 -2.298756e+01 -1.634796e+00 -3.278017e+01 -2.082703e+00 -3.664928e+01 -2.375579e+00 -4.714751e+01 -3.735606e+00 -5.211123e+01 -2.532709e+00 -5.801041e+01 -1.958231e+00 -6.419699e+01 -1.597342e+00 -7.050458e+01 -1.328013e+00 -7.689242e+01 -1.104856e+00 -8.336196e+01 -9.059694e-01 -8.993484e+01 
-9.726934e-01 -1.002221e+02 -8.181616e-01 -1.073622e+02 -6.687135e-01 1.060846e+02 -4.399897e-01 9.897045e+01 -1.945931e-01 9.206944e+01 9.117775e-02 8.536112e+01 4.605099e-01 7.886471e+01 9.927355e-01 7.264727e+01 5.477005e-01 6.407024e+01 7.996181e-02 5.827852e+01 -7.729271e-02 5.002742e+01 -3.491450e-01 4.437390e+01 -4.480946e-01 3.615577e+01 -6.850997e-01 3.056528e+01 -7.622222e-01 2.233987e+01 -9.872128e-01 1.677861e+01 -1.050712e+00 8.536096e+00 -1.268407e+00 2.980025e+00 -1.321457e+00 -5.285549e+00 -1.535938e+00 -1.085702e+01 -1.586834e+00 -1.915499e+01 -1.812788e+00 -2.476447e+01 -1.894783e+00 -3.313631e+01 -2.188936e+00 -3.883863e+01 -2.482901e+00 -4.758917e+01 -3.165313e+00 -5.365512e+01 -2.525754e+00 -5.999012e+01 -2.093627e+00 -6.647296e+01 -1.776877e+00 -7.304815e+01 -1.527269e+00 -7.969861e+01 -1.319141e+00 -8.642914e+01 -1.137487e+00 -9.325949e+01 
-7.628912e-01 -9.896017e+01 -5.914401e-01 -1.063168e+02 -4.260124e-01 1.057362e+02 -1.615020e-01 9.839687e+01 1.120137e-01 9.132515e+01 4.093181e-01 8.448204e+01 7.423846e-01 7.782687e+01 1.055777e+00 7.119821e+01 8.027711e-01 6.356815e+01 4.879897e-01 5.705438e+01 2.648506e-01 4.967690e+01 5.470018e-02 4.332296e+01 -1.215244e-01 3.602996e+01 -3.038418e-01 2.974684e+01 -4.642036e-01 2.248399e+01 -6.351963e-01 1.623184e+01 -7.856217e-01 8.974941e+00 -9.484989e-01 2.728201e+00 -1.090846e+00 -4.539708e+00 -1.249255e+00 -1.080276e+01 -1.390603e+00 -1.810005e+01 -1.558816e+00 -2.440667e+01 -1.727778e+00 -3.177530e+01 -1.957113e+00 -3.818880e+01 -2.255884e+00 -4.577000e+01 -2.580218e+00 -5.218477e+01 -2.248543e+00 -5.853277e+01 -1.896340e+00 -6.497142e+01 -1.600513e+00 -7.151135e+01 -1.352504e+00 -7.815730e+01 -1.137208e+00 -8.492616e+01 -9.432216e-01 -9.184703e+01 
-1.024387e+00 -1.022540e+02 -8.805922e-01 -1.098192e+02 -7.480091e-01 1.085488e+02 -5.132920e-01 1.009972e+02 -2.788017e-01 9.369631e+01 -3.817898e-02 8.659356e+01 2.032406e-01 7.962664e+01 3.882268e-01 7.265822e+01 2.445743e-01 6.521562e+01 2.857869e-02 5.828075e+01 -1.574745e-01 5.098717e+01 -3.348976e-01 4.417524e+01 -4.930085e-01 3.695959e+01 -6.495306e-01 3.021210e+01 -7.928268e-01 2.303105e+01 -9.383478e-01 1.631277e+01 -1.072310e+00 9.141097e+00 -1.210752e+00 2.427483e+00 -1.338874e+00 -4.753980e+00 -1.475002e+00 -1.148367e+01 -1.604798e+00 -1.869387e+01 -1.750820e+00 -2.546250e+01 -1.902281e+00 -3.273047e+01 -2.086572e+00 -3.957068e+01 -2.295271e+00 -4.693897e+01 -2.469498e+00 -5.371037e+01 -2.269027e+00 -6.038801e+01 -2.009470e+00 -6.710433e+01 -1.764677e+00 -7.389508e+01 -1.546877e+00 -8.077933e+01 -1.353912e+00 -8.777905e+01 -1.181145e+00 -9.492408e+01 
-8.053552e-01 -1.010284e+02 -6.508071e-01 -1.087819e+02 -5.090625e-01 1.081800e+02 -2.475051e-01 1.004305e+02 5.392256e-03 9.297474e+01 2.495741e-01 8.574980e+01 4.691682e-01 7.867844e+01 6.049243e-01 7.163133e+01 5.235170e-01 6.440664e+01 3.615348e-01 5.741547e+01 1.856531e-01 5.034004e+01 1.610282e-02 4.349047e+01 -1.523600e-01 3.652327e+01 -3.122835e-01 2.975860e+01 -4.725280e-01 2.284947e+01 -6.251123e-01 1.612734e+01 -7.786301e-01 9.242146e+00 -9.251983e-01 2.532075e+00 -1.073617e+00 -4.355469e+00 -1.217261e+00 -1.107908e+01 -1.366002e+00 -1.799347e+01 -1.515638e+00 -2.475686e+01 -1.677662e+00 -3.172612e+01 -1.846866e+00 -3.855283e+01 -2.020247e+00 -4.557449e+01 -2.117094e+00 -5.231402e+01 -1.989013e+00 -5.896398e+01 -1.778873e+00 -6.564506e+01 -1.557194e+00 -7.241198e+01 -1.346682e+00 -7.929847e+01 -1.151937e+00 -8.633688e+01 -9.720828e-01 -9.356496e+01 
-1.070322e+00 -1.040499e+02 -9.414611e-01 -1.119781e+02 -8.290856e-01 1.107012e+02 -5.948222e-01 1.027734e+02 -3.754311e-01 9.512508e+01 -1.733310e-01 8.769078e+01 -4.413419e-03 8.039681e+01 8.956925e-02 7.314703e+01 4.014687e-02 6.583431e+01 -7.931883e-02 5.864866e+01 -2.223590e-01 5.145255e+01 -3.681821e-01 4.438418e+01 -5.146722e-01 3.728461e+01 -6.558546e-01 3.029395e+01 -7.956668e-01 2.325030e+01 -9.300120e-01 1.630004e+01 -1.063504e+00 9.280088e+00 -1.192591e+00 2.341137e+00 -1.322221e+00 -4.680874e+00 -1.449697e+00 -1.163280e+01 -1.580531e+00 -1.867942e+01 -1.712783e+00 -2.566582e+01 -1.851051e+00 -3.275560e+01 -1.988374e+00 -3.978428e+01 -2.112703e+00 -4.689541e+01 -2.168154e+00 -5.385197e+01 -2.076224e+00 -6.074614e+01 -1.912428e+00 -6.766122e+01 -1.727346e+00 -7.464832e+01 -1.544289e+00 -8.174409e+01 -1.372269e+00 -8.898289e+01 -1.214077e+00 -9.640301e+01 
-8.432721e-01 -1.028063e+02 -7.074209e-01 -1.108927e+02 -5.894958e-01 1.102642e+02 -3.340133e-01 1.021704e+02 -9.969492e-02 9.439403e+01 1.082688e-01 8.686569e+01 2.727221e-01 7.951037e+01 3.601483e-01 7.224448e+01 3.348286e-01 6.500395e+01 2.391060e-01 5.786410e+01 1.083538e-01 5.077296e+01 -3.416423e-02 4.377804e+01 -1.831471e-01 3.681072e+01 -3.308751e-01 2.991628e+01 -4.795384e-01 2.302526e+01 -6.244924e-01 1.618664e+01 -7.694018e-01 9.332109e+00 -9.104420e-01 2.513536e+00 -1.051902e+00 -4.336713e+00 -1.190618e+00 -1.116511e+01 -1.331274e+00 -1.803881e+01 -1.470575e+00 -2.490249e+01 -1.610991e+00 -3.182007e+01 -1.742160e+00 -3.872626e+01 -1.849086e+00 -4.566449e+01 -1.887010e+00 -5.252879e+01 -1.816087e+00 -5.936237e+01 -1.675657e+00 -6.623238e+01 -1.505269e+00 -7.319280e+01 -1.328289e+00 -8.028740e+01 -1.156051e+00 -8.755747e+01 -9.935549e-01 -9.504712e+01 
-1.108917e+00 -1.055658e+02 -9.957244e-01 -1.137930e+02 -9.024508e-01 1.125044e+02 -6.706140e-01 1.042688e+02 -4.620800e-01 9.633967e+01 -2.815752e-01 8.864874e+01 -1.435193e-01 8.112573e+01 -7.262255e-02 7.370001e+01 -9.017211e-02 6.632282e+01 -1.688276e-01 5.902816e+01 -2.808620e-01 5.178862e+01 -4.062949e-01 4.462544e+01 -5.378006e-01 3.749967e+01 -6.689082e-01 3.042961e+01 -7.998309e-01 2.337535e+01 -9.277718e-01 1.635754e+01 -1.054787e+00 9.337503e+00 -1.179086e+00 2.338145e+00 -1.303348e+00 -4.678232e+00 -1.426243e+00 -1.168718e+01 -1.550475e+00 -1.872539e+01 -1.673905e+00 -2.576618e+01 -1.796198e+00 -3.284221e+01 -1.907727e+00 -3.991734e+01 -1.992960e+00 -4.700782e+01 -2.018602e+00 -5.405358e+01 -1.959031e+00 -6.108204e+01 -1.839520e+00 -6.814562e+01 -1.690790e+00 -7.529277e+01 -1.534024e+00 -8.256585e+01 -1.381147e+00 -9.000565e+01 -1.238311e+00 -9.765579e+01 
-8.747374e-01 -1.042587e+02 -7.563940e-01 -1.126128e+02 -6.589130e-01 1.119592e+02 -4.091264e-01 1.035918e+02 -1.863406e-01 9.556507e+01 3.791617e-03 8.780951e+01 1.472702e-01 8.025461e+01 2.231299e-01 7.283274e+01 2.169185e-01 6.549896e+01 1.489288e-01 5.826416e+01 4.335166e-02 5.110891e+01 -8.069558e-02 4.403839e+01 -2.144077e-01 3.702490e+01 -3.510029e-01 3.007086e+01 -4.892007e-01 2.314839e+01 -6.261959e-01 1.626208e+01 -7.628235e-01 9.385941e+00 -8.974572e-01 2.526793e+00 -1.031655e+00 -4.339915e+00 -1.164218e+00 -1.120585e+01 -1.296611e+00 -1.809426e+01 -1.426538e+00 -2.499460e+01 -1.552089e+00 -3.192590e+01 -1.663401e+00 -3.886902e+01 -1.744751e+00 -4.582919e+01 -1.768310e+00 -5.277292e+01 -1.715855e+00 -5.972321e+01 -1.605430e+00 -6.672875e+01 -1.463126e+00 -7.383932e+01 -1.308943e+00 -8.110102e+01 -1.155206e+00 -8.855893e+01 -1.008981e+00 -9.626061e+01 
-1.139172e+00 -1.067673e+02 -1.040146e+00 -1.152284e+02 -9.624874e-01 1.139278e+02 -7.327481e-01 1.054554e+02 -5.285466e-01 9.731507e+01 -3.539253e-01 8.943894e+01 -2.210724e-01 8.175815e+01 -1.505845e-01 7.420435e+01 -1.601873e-01 6.672777e+01 -2.271457e-01 5.935226e+01 -3.262514e-01 5.204787e+01 -4.402976e-01 4.482933e+01 -5.613336e-01 3.765886e+01 -6.838484e-01 3.054958e+01 -8.067211e-01 2.346388e+01 -9.279669e-01 1.641738e+01 -1.048374e+00 9.374199e+00 -1.167034e+00 2.352240e+00 -1.285371e+00 -4.683055e+00 -1.402844e+00 -1.171231e+01 -1.520728e+00 -1.876892e+01 -1.637501e+00 -2.583160e+01 -1.751453e+00 -3.293020e+01 -1.854408e+00 -4.003592e+01 -1.931849e+00 -4.716549e+01 -1.956207e+00 -5.427168e+01 -1.904606e+00 -6.138202e+01 -1.798814e+00 -6.854610e+01 -1.665516e+00 -7.581142e+01 -1.523711e+00 -8.322146e+01 -1.384776e+00 -9.081916e+01 -1.255225e+00 -9.865054e+01 
-8.985665e-01 -1.053582e+02 -7.949904e-01 -1.139140e+02 -7.131612e-01 1.132394e+02 -4.674223e-01 1.046700e+02 -2.486363e-01 9.646385e+01 -6.087542e-02 8.855258e+01 8.384200e-02 8.086612e+01 1.641783e-01 7.333245e+01 1.591213e-01 6.589414e+01 9.424121e-02 5.858418e+01 -4.142781e-03 5.135974e+01 -1.192541e-01 4.424158e+01 -2.433822e-01 3.717950e+01 -3.708860e-01 3.019387e+01 -5.003689e-01 2.323532e+01 -6.293952e-01 1.632739e+01 -7.583703e-01 9.422766e+00 -8.859232e-01 2.547623e+00 -1.013109e+00 -4.343925e+00 -1.138971e+00 -1.122417e+01 -1.264465e+00 -1.813796e+01 -1.387825e+00 -2.505607e+01 -1.507369e+00 -3.202047e+01 -1.615378e+00 -3.899549e+01 -1.698103e+00 -4.601088e+01 -1.727334e+00 -5.300997e+01 -1.676268e+00 -6.002817e+01 -1.570160e+00 -6.711980e+01 -1.436353e+00 -7.433488e+01 -1.293311e+00 -8.171911e+01 -1.151998e+00 -8.931790e+01 -1.018928e+00 -9.717969e+01 
-1.160505e+00 -1.076284e+02 -1.073447e+00 -1.162577e+02 -1.007512e+00 1.149444e+02 -7.793325e-01 1.063064e+02 -5.735872e-01 9.802442e+01 -3.912451e-01 9.003314e+01 -2.418173e-01 8.226346e+01 -1.524814e-01 7.463048e+01 -1.740939e-01 6.703063e+01 -2.557960e-01 5.960459e+01 -3.573882e-01 5.222087e+01 -4.693772e-01 4.498497e+01 -5.836711e-01 3.775672e+01 -7.001482e-01 3.064596e+01 -8.152144e-01 2.351317e+01 -9.304880e-01 1.647394e+01 -1.043508e+00 9.389657e+00 -1.156681e+00 2.379716e+00 -1.267994e+00 -4.693965e+00 -1.380380e+00 -1.171010e+01 -1.491823e+00 -1.880653e+01 -1.605245e+00 -2.586133e+01 -1.717362e+00 -3.301161e+01 -1.827761e+00 -4.013137e+01 -1.923306e+00 -4.734732e+01 -1.971606e+00 -5.448511e+01 -1.907115e+00 -6.162774e+01 -1.788691e+00 -6.884524e+01 -1.652219e+00 -7.618585e+01 -1.514648e+00 -8.369053e+01 -1.384110e+00 -9.140085e+01 -1.265039e+00 -9.936273e+01 
-9.140829e-01 -1.060848e+02 -8.224922e-01 -1.147758e+02 -7.519133e-01 1.140815e+02 -5.092118e-01 1.053814e+02 -2.884533e-01 9.706576e+01 -8.956635e-02 8.907013e+01 7.896005e-02 8.132472e+01 1.863873e-01 7.373539e+01 1.600037e-01 6.615993e+01 7.004886e-02 5.881790e+01 -3.554724e-02 5.150390e+01 -1.512912e-01 4.438841e+01 -2.691354e-01 3.725754e+01 -3.908679e-01 3.028973e+01 -5.118053e-01 2.327155e+01 -6.344595e-01 1.638940e+01 -7.549605e-01 9.430054e+00 -8.764418e-01 2.584885e+00 -9.954410e-01 -4.359338e+00 -1.115751e+00 -1.120896e+01 -1.234018e+00 -1.817758e+01 -1.354597e+00 -2.507146e+01 -1.473734e+00 -3.210507e+01 -1.594197e+00 -3.908233e+01 -1.704298e+00 -4.621001e+01 -1.768652e+00 -5.322732e+01 -1.694598e+00 -6.025914e+01 -1.565801e+00 -6.738737e+01 -1.422467e+00 -7.466185e+01 -1.280309e+00 -8.212385e+01 -1.145922e+00 -8.981582e+01 -1.022901e+00 -9.778496e+01 
-1.172633e+00 -1.081310e+02 -1.096016e+00 -1.168622e+02 -1.039206e+00 1.155308e+02 -8.136583e-01 1.067969e+02 -6.035354e-01 9.844039e+01 -4.026189e-01 9.040473e+01 -2.086867e-01 8.263249e+01 -4.896477e-02 7.502111e+01 -1.256902e-01 6.715786e+01 -2.704182e-01 5.981402e+01 -3.760606e-01 5.224539e+01 -5.015473e-01 4.513290e+01 -6.011792e-01 3.773669e+01 -7.228223e-01 3.076449e+01 -8.204645e-01 2.346857e+01 -9.399714e-01 1.657576e+01 -1.035249e+00 9.330470e+00 -1.152777e+00 2.471163e+00 -1.246239e+00 -4.762760e+00 -1.363435e+00 -1.162737e+01 -1.457682e+00 -1.888623e+01 -1.578924e+00 -2.579547e+01 -1.681782e+00 -3.312436e+01 -1.820469e+00 -4.013134e+01 -1.957921e+00 -4.760968e+01 -2.103236e+00 -5.469223e+01 -1.966949e+00 -6.179792e+01 -1.799831e+00 -6.902148e+01 -1.643559e+00 -7.639714e+01 -1.502784e+00 -8.395559e+01 -1.377219e+00 -9.173346e+01 -1.266888e+00 -9.977471e+01 
-9.209755e-01 -1.064250e+02 -8.397599e-01 -1.151850e+02 -7.779691e-01 1.144657e+02 -5.396061e-01 1.057036e+02 -3.150173e-01 9.734489e+01 -9.518533e-02 8.933655e+01 1.283849e-01 8.162847e+01 3.356957e-01 7.412105e+01 2.286500e-01 6.618961e+01 5.325193e-02 5.902277e+01 -5.297264e-02 5.144825e+01 -1.888816e-01 4.455029e+01 -2.865356e-01 3.717145e+01 -4.187819e-01 3.043576e+01 -5.166600e-01 2.317077e+01 -6.485165e-01 1.652845e+01 -7.455038e-01 9.322163e+00 -8.761412e-01 2.721087e+00 -9.713429e-01 -4.470393e+00 -1.101257e+00 -1.107488e+01 -1.196212e+00 -1.829307e+01 -1.329584e+00 -2.494732e+01 -1.433855e+00 -3.224750e+01 -1.590063e+00 -3.902003e+01 -1.750275e+00 -4.652350e+01 -1.952980e+00 -5.342789e+01 -1.771456e+00 -6.039291e+01 -1.579325e+00 -6.750898e+01 -1.411053e+00 -7.480230e+01 -1.263934e+00 -8.230031e+01 -1.133942e+00 -9.003909e+01 -1.019521e+00 -9.806317e+01 
-1.175481e+00 -1.082644e+02 -1.109265e+00 -1.170313e+02 -1.061540e+00 1.156686e+02 -8.427336e-01 1.069045e+02 -6.324507e-01 9.853184e+01 -4.138158e-01 9.051139e+01 -1.485040e-01 8.284543e+01 2.755161e-01 7.565753e+01 1.223801e-02 6.675947e+01 -3.501689e-01 6.024946e+01 -3.546449e-01 5.180979e+01 -5.847399e-01 4.556565e+01 -5.754485e-01 3.728899e+01 -7.942753e-01 3.120774e+01 -7.820658e-01 2.301740e+01 -9.982890e-01 1.703097e+01 -9.826856e-01 8.881918e+00 -1.197467e+00 2.938069e+00 -1.178633e+00 -5.204192e+00 -1.393970e+00 -1.114960e+01 -1.374558e+00 -1.931883e+01 -1.595677e+00 -2.530921e+01 -1.588714e+00 -3.356217e+01 -1.839530e+00 -3.966058e+01 -1.960850e+00 -4.827785e+01 -2.530296e+00 -5.486944e+01 -2.061908e+00 -6.184960e+01 -1.803069e+00 -6.904644e+01 -1.622732e+00 -7.642708e+01 -1.479875e+00 -8.400333e+01 -1.360358e+00 -9.180564e+01 -1.259301e+00 -9.987571e+01 