# vtk DataFile Version 2.0
Comment goes here
ASCII

DATASET STRUCTURED_POINTS
FIELD FieldData 1
TIME 1 1 double
0.01400000
DIMENSIONS    64   64   1

ORIGIN    0.000   0.000   0.000
SPACING   0.03125 0.03125   1.000

POINT_DATA   4096
SCALARS P double
LOOKUP_TABLE default

-1.658640e+00 -1.067370e+02 -1.195535e+01 -1.118782e+02 5.707959e+01 1.513645e+02 1.139810e+01 1.385670e+02 2.422941e+01 1.248011e+02 3.437242e+01 1.126262e+02 4.141359e+01 1.022830e+02 4.537584e+01 9.345846e+01 4.663808e+01 8.758347e+01 4.496338e+01 8.450468e+01 3.967513e+01 8.154009e+01 3.504635e+01 7.673920e+01 3.279679e+01 7.034476e+01 2.986531e+01 6.216461e+01 2.850098e+01 5.254001e+01 2.792841e+01 4.063647e+01 2.903404e+01 3.266773e+01 2.105236e+01 2.968810e+01 1.832588e+01 1.472645e+01 2.271660e+01 4.263262e+00 1.659949e+01 1.314349e+00 7.667866e+00 -3.687741e+00 2.036061e+00 -1.356860e+01 3.903448e+00 -2.709271e+01 4.768311e+00 -4.392556e+01 9.347027e+00 -5.804609e+01 8.655775e+00 -6.749541e+01 3.050257e+00 -6.988924e+01 -9.134590e+00 -7.097542e+01 -2.022115e+01 -7.151416e+01 -3.017038e+01 -7.697534e+01 -2.666294e+01 -1.093912e+02 
2.738148e+00 -9.038705e+01 -5.521705e+00 -9.310026e+01 4.271057e+01 1.068844e+02 4.886034e+00 1.002198e+02 1.050856e+01 9.256640e+01 1.458656e+01 8.540546e+01 1.732346e+01 7.852234e+01 1.882795e+01 7.199843e+01 1.915619e+01 6.669557e+01 1.825037e+01 6.264470e+01 1.546404e+01 5.851831e+01 1.316983e+01 5.322253e+01 1.230505e+01 4.718291e+01 1.079613e+01 4.031334e+01 1.028191e+01 3.270586e+01 1.012850e+01 2.375250e+01 1.116367e+01 1.705174e+01 6.717046e+00 1.352837e+01 5.308665e+00 2.855700e+00 8.209125e+00 -5.214631e+00 5.123688e+00 -9.079225e+00 6.111253e-01 -1.408786e+01 -2.229287e+00 -2.149724e+01 -1.036659e+00 -3.057549e+01 -7.783952e-01 -4.142843e+01 1.869767e+00 -5.073164e+01 1.731440e+00 -5.793786e+01 -2.936374e-01 -6.166773e+01 -5.606902e+00 -6.497761e+01 -1.005617e+01 -6.766377e+01 -1.450195e+01 -7.215519e+01 -1.214842e+01 -9.265594e+01 
2.996996e+00 -8.962628e+01 5.423182e-01 -9.294292e+01 1.539144e+01 9.053312e+01 1.574097e+00 8.646530e+01 2.040521e+00 8.182708e+01 2.129243e+00 7.690062e+01 2.168235e+00 7.145272e+01 2.185652e+00 6.571941e+01 2.051829e+00 5.995680e+01 1.822456e+00 5.424670e+01 1.228169e+00 4.840212e+01 7.526047e-01 4.217445e+01 5.828725e-01 3.578716e+01 1.528133e-01 2.928208e+01 2.595925e-02 2.261149e+01 -1.199011e-01 1.565176e+01 9.378213e-02 9.148781e+00 -1.008262e+00 3.529432e+00 -1.547321e+00 -3.674652e+00 -1.080988e+00 -1.037924e+01 -1.801880e+00 -1.629583e+01 -2.674602e+00 -2.244975e+01 -3.321213e+00 -2.884214e+01 -3.264832e+00 -3.536691e+01 -3.515452e+00 -4.214651e+01 -3.145796e+00 -4.854897e+01 -3.169901e+00 -5.483903e+01 -2.943958e+00 -6.076957e+01 -3.012780e+00 -6.677672e+01 -2.636283e+00 -7.252446e+01 -2.351874e+00 -7.813805e+01 -1.002926e+00 -8.717281e+01 
7.279638e-01 -8.478098e+01 3.871111e-01 -8.729000e+01 1.035002e+00 8.548566e+01 1.505321e+00 8.222664e+01 2.128670e+00 7.807781e+01 2.539414e+00 7.344100e+01 2.790505e+00 6.836527e+01 2.886733e+00 6.305156e+01 2.762893e+00 5.767406e+01 2.432916e+00 5.227919e+01 1.854985e+00 4.673717e+01 1.320511e+00 4.088865e+01 9.623887e-01 3.481324e+01 5.791144e-01 2.854966e+01 3.746720e-01 2.209785e+01 2.253525e-01 1.553661e+01 9.718805e-02 9.266778e+00 -6.002227e-01 3.318320e+00 -1.046356e+00 -3.270505e+00 -1.080845e+00 -9.652655e+00 -1.660779e+00 -1.556583e+01 -2.440072e+00 -2.152939e+01 -3.011474e+00 -2.773298e+01 -3.112839e+00 -3.416587e+01 -3.116489e+00 -4.074085e+01 -2.851777e+00 -4.705349e+01 -2.786714e+00 -5.305388e+01 -2.792561e+00 -5.865987e+01 -2.991969e+00 -6.409190e+01 -2.984781e+00 -6.940692e+01 -2.662900e+00 -7.495819e+01 -1.391083e+00 -8.145220e+01 
9.419156e-01 -8.951273e+01 8.024442e-01 -9.296961e+01 1.227850e+00 9.055386e+01 1.419784e+00 8.682781e+01 1.663072e+00 8.231675e+01 1.793043e+00 7.732315e+01 1.847970e+00 7.192225e+01 1.833247e+00 6.624649e+01 1.714734e+00 6.042582e+01 1.491337e+00 5.451254e+01 1.134821e+00 4.845898e+01 7.900220e-01 4.220353e+01 5.222201e-01 3.579991e+01 2.295609e-01 2.928116e+01 1.716931e-02 2.265900e+01 -1.762367e-01 1.597015e+01 -3.606805e-01 9.435229e+00 -8.632892e-01 3.084899e+00 -1.244043e+00 -3.607276e+00 -1.401819e+00 -1.019306e+01 -1.837643e+00 -1.654046e+01 -2.357184e+00 -2.290808e+01 -2.765196e+00 -2.936666e+01 -2.926001e+00 -3.589666e+01 -3.029692e+00 -4.247043e+01 -2.938207e+00 -4.890385e+01 -2.856571e+00 -5.519968e+01 -2.689510e+00 -6.131691e+01 -2.506731e+00 -6.735037e+01 -2.131881e+00 -7.326068e+01 -1.576643e+00 -7.914449e+01 -5.468082e-01 -8.531273e+01 
-3.290920e-02 -8.547194e+01 3.652035e-01 -8.886093e+01 8.973071e-01 8.699335e+01 1.326747e+00 8.340618e+01 1.759761e+00 7.912438e+01 2.093126e+00 7.436116e+01 2.302517e+00 6.923200e+01 2.371830e+00 6.385789e+01 2.279833e+00 5.833646e+01 2.034373e+00 5.270509e+01 1.662086e+00 4.693060e+01 1.272437e+00 4.096870e+01 9.296035e-01 3.483695e+01 6.109630e-01 2.856257e+01 3.540266e-01 2.217633e+01 1.196358e-01 1.574777e+01 -1.474152e-01 9.402623e+00 -5.655196e-01 3.129045e+00 -9.380161e-01 -3.278806e+00 -1.228235e+00 -9.626858e+00 -1.657799e+00 -1.583041e+01 -2.147691e+00 -2.203196e+01 -2.535897e+00 -2.832441e+01 -2.722098e+00 -3.470727e+01 -2.777824e+00 -4.110744e+01 -2.712330e+00 -4.736707e+01 -2.653648e+00 -5.341580e+01 -2.601886e+00 -5.922949e+01 -2.549482e+00 -6.487670e+01 -2.354352e+00 -7.041148e+01 -1.907343e+00 -7.590818e+01 -1.068109e+00 -8.126943e+01 
2.494878e-01 -9.020969e+01 5.920241e-01 -9.424000e+01 9.622124e-01 9.200425e+01 1.197124e+00 8.795208e+01 1.398202e+00 8.327464e+01 1.534242e+00 7.814419e+01 1.600000e+00 7.266060e+01 1.587721e+00 6.691407e+01 1.485022e+00 6.098328e+01 1.295670e+00 5.491627e+01 1.033160e+00 4.871661e+01 7.536316e-01 4.238009e+01 4.891128e-01 3.592746e+01 2.286713e-01 2.938413e+01 -8.390969e-03 2.277269e+01 -2.408136e-01 1.613356e+01 -4.962044e-01 9.536777e+00 -8.391794e-01 2.981468e+00 -1.162981e+00 -3.646045e+00 -1.440985e+00 -1.024299e+01 -1.786036e+00 -1.676526e+01 -2.152052e+00 -2.327889e+01 -2.456631e+00 -2.982136e+01 -2.643252e+00 -3.638446e+01 -2.737446e+00 -4.293443e+01 -2.716504e+00 -4.939520e+01 -2.623288e+00 -5.573932e+01 -2.447074e+00 -6.195364e+01 -2.191825e+00 -6.805635e+01 -1.807271e+00 -7.403435e+01 -1.272043e+00 -7.987175e+01 -5.419213e-01 -8.546375e+01 
-2.693994e-01 -8.698927e+01 2.294980e-01 -9.114076e+01 7.124627e-01 8.941371e+01 1.117354e+00 8.526272e+01 1.480389e+00 8.063971e+01 1.768154e+00 7.563833e+01 1.954329e+00 7.033668e+01 2.018824e+00 6.480567e+01 1.950974e+00 5.910397e+01 1.763869e+00 5.327117e+01 1.488820e+00 4.731023e+01 1.180289e+00 4.121832e+01 8.754679e-01 3.500360e+01 5.838158e-01 2.868790e+01 3.130079e-01 2.229695e+01 4.769796e-02 1.587471e+01 -2.401073e-01 9.466345e+00 -5.754448e-01 3.073698e+00 -9.104716e-01 -3.346304e+00 -1.233430e+00 -9.744170e+00 -1.592040e+00 -1.609765e+01 -1.957035e+00 -2.244663e+01 -2.262588e+00 -2.882786e+01 -2.460917e+00 -3.523276e+01 -2.557751e+00 -4.161360e+01 -2.561345e+00 -4.788897e+01 -2.508236e+00 -5.401085e+01 -2.408063e+00 -5.996731e+01 -2.249181e+00 -6.577977e+01 -1.978157e+00 -7.146411e+01 -1.547171e+00 -7.700609e+01 -9.394586e-01 -8.228298e+01 
-5.056238e-02 -9.162214e+01 3.585771e-01 -9.627869e+01 7.146897e-01 9.430306e+01 9.784156e-01 8.970316e+01 1.190175e+00 8.468305e+01 1.344751e+00 7.931525e+01 1.431427e+00 7.365884e+01 1.435026e+00 6.776302e+01 1.344842e+00 6.167450e+01 1.175945e+00 5.545104e+01 9.515720e-01 4.911020e+01 7.049013e-01 4.267227e+01 4.544067e-01 3.614550e+01 2.064374e-01 2.955517e+01 -3.678995e-02 2.291383e+01 -2.813613e-01 1.625417e+01 -5.430542e-01 9.596569e+00 -8.332581e-01 2.950008e+00 -1.126366e+00 -3.715221e+00 -1.411099e+00 -1.036707e+01 -1.711335e+00 -1.699909e+01 -2.007539e+00 -2.362233e+01 -2.265033e+00 -3.025677e+01 -2.451466e+00 -3.688664e+01 -2.558022e+00 -4.348806e+01 -2.564062e+00 -5.000305e+01 -2.469607e+00 -5.640910e+01 -2.280486e+00 -6.270393e+01 -2.003514e+00 -6.889004e+01 -1.630463e+00 -7.495120e+01 -1.159669e+00 -8.084491e+01 -6.049514e-01 -8.646854e+01 
-3.651306e-01 -8.905046e+01 1.016572e-01 -9.389391e+01 5.377929e-01 9.238674e+01 9.261404e-01 8.759923e+01 1.266367e+00 8.253388e+01 1.541167e+00 7.721372e+01 1.726933e+00 7.166753e+01 1.798621e+00 6.592040e+01 1.742621e+00 5.999953e+01 1.582706e+00 5.396325e+01 1.351051e+00 4.781980e+01 1.086443e+00 4.159029e+01 8.104381e-01 3.527127e+01 5.377177e-01 2.888860e+01 2.682894e-01 2.244878e+01 -6.426498e-04 1.598743e+01 -2.841149e-01 9.514081e+00 -5.847331e-01 3.045578e+00 -8.935405e-01 -3.435744e+00 -1.201366e+00 -9.905629e+00 -1.518223e+00 -1.636997e+01 -1.825087e+00 -2.283055e+01 -2.095545e+00 -2.930923e+01 -2.299790e+00 -3.578338e+01 -2.428258e+00 -4.222530e+01 -2.463907e+00 -4.856333e+01 -2.406754e+00 -5.477040e+01 -2.270577e+00 -6.084972e+01 -2.060128e+00 -6.681344e+01 -1.762622e+00 -7.266292e+01 -1.366179e+00 -7.837286e+01 -8.809248e-01 -8.387103e+01 
-2.268538e-01 -9.351694e+01 1.621798e-01 -9.879649e+01 5.013758e-01 9.709585e+01 7.890479e-01 9.188974e+01 1.029348e+00 8.644615e+01 1.219714e+00 8.077766e+01 1.345483e+00 7.489674e+01 1.377473e+00 6.880313e+01 1.286519e+00 6.249940e+01 1.113923e+00 5.610212e+01 8.952111e-01 4.960045e+01 6.617325e-01 4.305296e+01 4.195792e-01 3.642707e+01 1.806375e-01 2.977716e+01 -6.196787e-02 2.307318e+01 -3.041822e-01 1.637252e+01 -5.599093e-01 9.645173e+00 -8.239393e-01 2.937124e+00 -1.096501e+00 -3.797748e+00 -1.364821e+00 -1.051090e+01 -1.638770e+00 -1.724204e+01 -1.901051e+00 -2.395543e+01 -2.142676e+00 -3.069798e+01 -2.338119e+00 -3.741856e+01 -2.476062e+00 -4.412924e+01 -2.510014e+00 -5.071962e+01 -2.408713e+00 -5.718945e+01 -2.199641e+00 -6.356240e+01 -1.909040e+00 -6.984789e+01 -1.549430e+00 -7.603353e+01 -1.131281e+00 -8.208424e+01 -6.753280e-01 -8.793808e+01 
-4.270501e-01 -9.142855e+01 -1.038812e-02 -9.692046e+01 3.814731e-01 9.565676e+01 7.650868e-01 9.023249e+01 1.108197e+00 8.469228e+01 1.398619e+00 7.901920e+01 1.611773e+00 7.319964e+01 1.706279e+00 6.720596e+01 1.640212e+00 6.100897e+01 1.473937e+00 5.476072e+01 1.248310e+00 4.841506e+01 1.004788e+00 4.205125e+01 7.443463e-01 3.560277e+01 4.890303e-01 2.914631e+01 2.250613e-01 2.262222e+01 -3.414107e-02 1.611193e+01 -3.093086e-01 9.556908e+00 -5.856478e-01 3.030178e+00 -8.758279e-01 -3.536593e+00 -1.159857e+00 -1.007267e+01 -1.452584e+00 -1.664653e+01 -1.729279e+00 -2.319721e+01 -1.992851e+00 -2.979654e+01 -2.213280e+00 -3.636755e+01 -2.388245e+00 -4.294236e+01 -2.457249e+00 -4.936793e+01 -2.382952e+00 -5.565631e+01 -2.206362e+00 -6.184673e+01 -1.957818e+00 -6.796081e+01 -1.646909e+00 -7.400039e+01 -1.277031e+00 -7.994849e+01 -8.605180e-01 -8.577034e+01 
-3.571877e-01 -9.569301e+01 -1.710774e-03 -1.015736e+02 3.166942e-01 1.001395e+02 6.294589e-01 9.433368e+01 9.084397e-01 8.844654e+01 1.154125e+00 8.245995e+01 1.350764e+00 7.635067e+01 1.442626e+00 7.005080e+01 1.315506e+00 6.341742e+01 1.097530e+00 5.685663e+01 8.579911e-01 5.013692e+01 6.259544e-01 4.351183e+01 3.856703e-01 3.673298e+01 1.568146e-01 3.005310e+01 -8.362565e-02 2.322928e+01 -3.155357e-01 1.651746e+01 -5.647332e-01 9.674375e+00 -8.082444e-01 2.951110e+00 -1.067114e+00 -3.902138e+00 -1.314922e+00 -1.063658e+01 -1.574044e+00 -1.750323e+01 -1.817131e+00 -2.425962e+01 -2.062398e+00 -3.116267e+01 -2.282948e+00 -3.796203e+01 -2.491705e+00 -4.489402e+01 -2.590693e+00 -5.155549e+01 -2.455791e+00 -5.806438e+01 -2.199727e+00 -6.450579e+01 -1.882580e+00 -7.090243e+01 -1.526473e+00 -7.724620e+01 -1.142462e+00 -8.351351e+01 -7.450023e-01 -8.967214e+01 
-4.835890e-01 -9.395306e+01 -1.127634e-01 -1.000518e+02 2.394249e-01 9.903136e+01 6.289894e-01 9.300328e+01 9.928392e-01 8.699775e+01 1.327186e+00 8.098041e+01 1.611510e+00 7.490986e+01 1.774157e+00 6.868740e+01 1.643945e+00 6.207067e+01 1.421081e+00 5.565249e+01 1.168050e+00 4.903002e+01 9.365714e-01 4.259528e+01 6.781618e-01 3.594334e+01 4.455344e-01 2.947069e+01 1.821821e-01 2.278235e+01 -5.532802e-02 1.628054e+01 -3.283229e-01 9.571444e+00 -5.764468e-01 3.054579e+00 -8.592909e-01 -3.668456e+00 -1.113271e+00 -1.020181e+01 -1.398124e+00 -1.694723e+01 -1.650082e+00 -2.351518e+01 -1.928336e+00 -3.031459e+01 -2.174362e+00 -3.694925e+01 -2.446786e+00 -4.381484e+01 -2.593669e+00 -5.030769e+01 -2.462558e+00 -5.663689e+01 -2.214763e+00 -6.291725e+01 -1.918587e+00 -6.917994e+01 -1.591801e+00 -7.542556e+01 -1.238122e+00 -8.164395e+01 -8.640443e-01 -8.782194e+01 
-4.663110e-01 -9.799265e+01 -1.444442e-01 -1.044393e+02 1.500722e-01 1.032501e+02 4.882705e-01 9.687855e+01 8.106120e-01 9.056119e+01 1.130620e+00 8.427685e+01 1.454716e+00 7.800406e+01 1.721072e+00 7.161952e+01 1.455361e+00 6.426401e+01 1.087526e+00 5.776725e+01 8.293333e-01 5.058089e+01 5.824111e-01 4.412310e+01 3.573280e-01 3.694046e+01 1.281863e-01 3.047233e+01 -9.639145e-02 2.327275e+01 -3.263847e-01 1.679360e+01 -5.577094e-01 9.582310e+00 -7.941372e-01 3.095691e+00 -1.031284e+00 -4.127388e+00 -1.270580e+00 -1.062872e+01 -1.508126e+00 -1.787738e+01 -1.747714e+00 -2.441527e+01 -1.989845e+00 -3.173534e+01 -2.254608e+00 -3.837341e+01 -2.594688e+00 -4.594327e+01 -2.911778e+00 -5.253790e+01 -2.628155e+00 -5.900151e+01 -2.262025e+00 -6.548982e+01 -1.895324e+00 -7.200547e+01 -1.532277e+00 -7.852967e+01 -1.169970e+00 -8.504354e+01 -8.115141e-01 -9.153259e+01 
-5.410977e-01 -9.649292e+01 -2.112869e-01 -1.031516e+02 1.032088e-01 1.023562e+02 5.036437e-01 9.577123e+01 8.961697e-01 8.933101e+01 1.296833e+00 8.301009e+01 1.723418e+00 7.678683e+01 2.129566e+00 7.052516e+01 1.764862e+00 6.294058e+01 1.370937e+00 5.673125e+01 1.088751e+00 4.946180e+01 8.687949e-01 4.334332e+01 6.103403e-01 3.610454e+01 4.063001e-01 3.000047e+01 1.381773e-01 2.275239e+01 -6.767199e-02 1.664856e+01 -3.474557e-01 9.387493e+00 -5.591286e-01 3.279538e+00 -8.471691e-01 -3.998484e+00 -1.062076e+00 -1.012214e+01 -1.352893e+00 -1.743605e+01 -1.570255e+00 -2.360250e+01 -1.873635e+00 -3.101128e+01 -2.132520e+00 -3.730261e+01 -2.605291e+00 -4.509359e+01 -3.017328e+00 -5.140064e+01 -2.665382e+00 -5.765912e+01 -2.274251e+00 -6.400108e+01 -1.911669e+00 -7.041240e+01 -1.565976e+00 -7.687315e+01 -1.223791e+00 -8.337257e+01 -8.809222e-01 -8.990908e+01 
-5.626818e-01 -1.002924e+02 -2.748843e-01 -1.072607e+02 -1.005222e-02 1.062806e+02 3.483066e-01 9.938525e+01 7.046016e-01 9.265695e+01 1.094245e+00 8.609860e+01 1.603083e+00 7.980153e+01 2.483959e+00 7.410731e+01 1.795828e+00 6.424303e+01 8.604375e-01 5.935515e+01 8.838809e-01 5.028730e+01 4.099247e-01 4.544817e+01 4.318098e-01 3.641809e+01 -1.454091e-02 3.161459e+01 -2.934475e-03 2.257580e+01 -4.472865e-01 1.779610e+01 -4.439658e-01 8.742048e+00 -8.914019e-01 3.973532e+00 -8.919076e-01 -5.100751e+00 -1.339697e+00 -9.873938e+00 -1.340135e+00 -1.899105e+01 -1.786509e+00 -2.378580e+01 -1.797613e+00 -3.302032e+01 -2.261585e+00 -3.785240e+01 -2.616770e+00 -4.803938e+01 -3.887956e+00 -5.362063e+01 -2.893166e+00 -5.990529e+01 -2.326611e+00 -6.644239e+01 -1.905184e+00 -7.309601e+01 -1.539061e+00 -7.981828e+01 -1.197347e+00 -8.659124e+01 -8.715001e-01 -9.341220e+01 
-5.994083e-01 -9.894515e+01 -3.095338e-01 -1.061115e+02 -3.577846e-02 1.055035e+02 3.716158e-01 9.840876e+01 7.805001e-01 9.155789e+01 1.229312e+00 8.496142e+01 1.827133e+00 7.875670e+01 2.951199e+00 7.346957e+01 2.149807e+00 6.273629e+01 1.060307e+00 5.866968e+01 1.188421e+00 4.899650e+01 6.435976e-01 4.500075e+01 7.422701e-01 3.538807e+01 2.150853e-01 3.145588e+01 2.958974e-01 2.184071e+01 -2.350589e-01 1.794985e+01 -1.641822e-01 8.317848e+00 -7.015408e-01 4.446387e+00 -6.339381e-01 -5.211229e+00 -1.173880e+00 -9.084550e+00 -1.105092e+00 -1.879553e+01 -1.644523e+00 -2.268624e+01 -1.584879e+00 -3.253643e+01 -2.134229e+00 -3.643009e+01 -2.510441e+00 -4.751307e+01 -4.201850e+00 -5.250450e+01 -2.927329e+00 -5.858830e+01 -2.308342e+00 -6.501273e+01 -1.889445e+00 -7.159284e+01 -1.539332e+00 -7.827808e+01 -1.214824e+00 -8.505787e+01 -9.021285e-01 -9.193969e+01 
-6.488889e-01 -1.024953e+02 -3.975415e-01 -1.099339e+02 -1.705327e-01 1.091138e+02 1.964987e-01 1.017344e+02 5.560168e-01 9.458951e+01 9.334049e-01 8.766112e+01 1.374458e+00 8.097124e+01 1.961460e+00 7.457574e+01 1.488924e+00 6.557484e+01 8.984243e-01 5.965946e+01 7.559242e-01 5.126320e+01 4.444426e-01 4.548421e+01 3.239001e-01 3.717091e+01 3.187656e-02 3.145959e+01 -9.089702e-02 2.316996e+01 -3.835975e-01 1.749582e+01 -5.098139e-01 9.208898e+00 -8.058849e-01 3.548753e+00 -9.325544e-01 -4.751963e+00 -1.230267e+00 -1.042171e+01 -1.355924e+00 -1.876510e+01 -1.657896e+00 -2.447317e+01 -1.798726e+00 -3.293096e+01 -2.141907e+00 -3.873245e+01 -2.552392e+00 -4.785995e+01 -3.397181e+00 -5.404710e+01 -2.721856e+00 -6.056907e+01 -2.242778e+00 -6.728050e+01 -1.859617e+00 -7.411653e+01 -1.523529e+00 -8.105281e+01 -1.213268e+00 -8.808570e+01 -9.217306e-01 -9.522541e+01 
-6.563590e-01 -1.012284e+02 -4.075344e-01 -1.088457e+02 -1.795058e-01 1.083732e+02 2.245899e-01 1.008082e+02 6.178999e-01 9.352866e+01 1.016610e+00 8.649530e+01 1.434377e+00 7.966425e+01 1.811344e+00 7.285785e+01 1.524128e+00 6.493914e+01 1.183159e+00 5.827692e+01 9.320580e-01 5.077316e+01 7.342763e-01 4.430979e+01 5.108242e-01 3.692852e+01 3.235577e-01 3.054991e+01 9.255532e-02 2.321939e+01 -9.961133e-02 1.688089e+01 -3.391953e-01 9.568038e+00 -5.365608e-01 3.239994e+00 -7.810760e-01 -4.080985e+00 -9.815196e-01 -1.042762e+01 -1.229414e+00 -1.779027e+01 -1.437000e+00 -2.419502e+01 -1.705734e+00 -3.166638e+01 -1.968233e+00 -3.822212e+01 -2.410205e+00 -4.607239e+01 -2.815957e+00 -5.266850e+01 -2.501608e+00 -5.921214e+01 -2.133098e+00 -6.587699e+01 -1.797346e+00 -7.266924e+01 -1.489581e+00 -7.958647e+01 -1.199198e+00 -8.663696e+01 -9.213611e-01 -9.384043e+01 
-7.251257e-01 -1.045247e+02 -5.117875e-01 -1.123775e+02 -3.267509e-01 1.116681e+02 3.882866e-02 1.038514e+02 3.818587e-01 9.630279e+01 7.093553e-01 8.896882e+01 1.016153e+00 8.178317e+01 1.240395e+00 7.459910e+01 1.076156e+00 6.690369e+01 8.328364e-01 5.977664e+01 6.186524e-01 5.232909e+01 4.265291e-01 4.537368e+01 2.266304e-01 3.804146e+01 4.103216e-02 3.117476e+01 -1.609490e-01 2.389889e+01 -3.489121e-01 1.707739e+01 -5.547238e-01 9.824204e+00 -7.453931e-01 3.016932e+00 -9.533617e-01 -4.241489e+00 -1.145551e+00 -1.106442e+01 -1.355634e+00 -1.836108e+01 -1.553177e+00 -2.523702e+01 -1.777566e+00 -3.262433e+01 -2.007642e+00 -3.961455e+01 -2.305744e+00 -4.721020e+01 -2.534800e+00 -5.417767e+01 -2.341234e+00 -6.105701e+01 -2.057996e+00 -6.799825e+01 -1.766734e+00 -7.503725e+01 -1.484828e+00 -8.218916e+01 -1.215648e+00 -8.947033e+01 -9.612860e-01 -9.690434e+01 
-7.094352e-01 -1.032784e+02 -5.014464e-01 -1.112867e+02 -3.199826e-01 1.109043e+02 7.392483e-02 1.029240e+02 4.400882e-01 9.525247e+01 7.784792e-01 8.782502e+01 1.071874e+00 8.056047e+01 1.254120e+00 7.332236e+01 1.171846e+00 6.589245e+01 1.007273e+00 5.873147e+01 8.155412e-01 5.151682e+01 6.420228e-01 4.454317e+01 4.445988e-01 3.747040e+01 2.650336e-01 3.060466e+01 5.820200e-02 2.360791e+01 -1.296543e-01 1.679742e+01 -3.446923e-01 9.833492e+00 -5.387770e-01 3.039817e+00 -7.589804e-01 -3.926620e+00 -9.569063e-01 -1.073911e+01 -1.181127e+00 -1.774570e+01 -1.384969e+00 -2.461824e+01 -1.620781e+00 -3.171385e+01 -1.844340e+00 -3.869674e+01 -2.101202e+00 -4.592046e+01 -2.246651e+00 -5.285922e+01 -2.140219e+00 -5.971346e+01 -1.926065e+00 -6.661547e+01 -1.679037e+00 -7.362109e+01 -1.426241e+00 -8.076057e+01 -1.177138e+00 -8.806078e+01 -9.366172e-01 -9.555338e+01 
-7.908273e-01 -1.063207e+02 -6.143153e-01 -1.145283e+02 -4.701246e-01 1.138928e+02 -1.108424e-01 1.056997e+02 2.124044e-01 9.780055e+01 4.970674e-01 9.012880e+01 7.261747e-01 8.260843e+01 8.540369e-01 7.514004e+01 8.046977e-01 6.761043e+01 6.764881e-01 6.023093e+01 5.140701e-01 5.286793e+01 3.505679e-01 4.564873e+01 1.719325e-01 3.841679e+01 -5.236600e-04 3.130209e+01 -1.864690e-01 2.414728e+01 -3.644804e-01 1.708944e+01 -5.551454e-01 9.970381e+00 -7.365346e-01 2.931724e+00 -9.296488e-01 -4.186732e+00 -1.112635e+00 -1.124103e+01 -1.307221e+00 -1.839439e+01 -1.492188e+00 -2.550091e+01 -1.689702e+00 -3.272690e+01 -1.875363e+00 -3.991622e+01 -2.056581e+00 -4.722094e+01 -2.144827e+00 -5.437821e+01 -2.061919e+00 -6.148044e+01 -1.884818e+00 -6.861838e+01 -1.667532e+00 -7.584507e+01 -1.437738e+00 -8.319560e+01 -1.209543e+00 -9.070101e+01 -9.915790e-01 -9.839552e+01 
-7.564116e-01 -1.050447e+02 -5.861629e-01 -1.133817e+02 -4.471793e-01 1.130591e+02 -6.489817e-02 1.047306e+02 2.774115e-01 9.673285e+01 5.740161e-01 8.899534e+01 8.061107e-01 8.144084e+01 9.366225e-01 7.398324e+01 9.269853e-01 6.655611e+01 8.366949e-01 5.924725e+01 7.001408e-01 5.200823e+01 5.495521e-01 4.488123e+01 3.804926e-01 3.779653e+01 2.097103e-01 3.079361e+01 2.567843e-02 2.380305e+01 -1.565803e-01 1.686881e+01 -3.498268e-01 9.922913e+00 -5.390816e-01 3.012391e+00 -7.375790e-01 -3.930633e+00 -9.304894e-01 -1.085787e+01 -1.131522e+00 -1.783807e+01 -1.325808e+00 -2.482162e+01 -1.525810e+00 -3.187615e+01 -1.710371e+00 -3.894164e+01 -1.873516e+00 -4.606433e+01 -1.948772e+00 -5.312472e+01 -1.896999e+00 -6.016289e+01 -1.757329e+00 -6.724922e+01 -1.571035e+00 -7.443871e+01 -1.364680e+00 -8.177348e+01 -1.153783e+00 -8.929154e+01 -9.483386e-01 -9.703314e+01 
-8.452838e-01 -1.078364e+02 -7.015836e-01 -1.163368e+02 -5.930303e-01 1.157524e+02 -2.403538e-01 1.072519e+02 6.859201e-02 9.907060e+01 3.287659e-01 9.113990e+01 5.247664e-01 8.338855e+01 6.301070e-01 7.574471e+01 6.234695e-01 6.815862e+01 5.434562e-01 6.067132e+01 4.195375e-01 5.325887e+01 2.775016e-01 4.593916e+01 1.202874e-01 3.867208e+01 -4.072795e-02 3.147146e+01 -2.101128e-01 2.429654e+01 -3.793918e-01 1.716402e+01 -5.546665e-01 1.003452e+01 -7.279340e-01 2.927064e+00 -9.057198e-01 -4.197267e+00 -1.080194e+00 -1.131836e+01 -1.258000e+00 -1.847523e+01 -1.430716e+00 -2.564610e+01 -1.602618e+00 -3.286733e+01 -1.758102e+00 -4.010719e+01 -1.884733e+00 -4.738358e+01 -1.936020e+00 -5.462816e+01 -1.885105e+00 -6.186500e+01 -1.757513e+00 -6.914860e+01 -1.585922e+00 -7.652875e+01 -1.394889e+00 -8.404725e+01 -1.200683e+00 -9.174298e+01 -1.014504e+00 -9.965702e+01 
-7.954836e-01 -1.064884e+02 -6.574112e-01 -1.150899e+02 -5.535660e-01 1.148089e+02 -1.807916e-01 1.062043e+02 1.463791e-01 9.795305e+01 4.218150e-01 8.998503e+01 6.303578e-01 8.222848e+01 7.494919e-01 7.461444e+01 7.655048e-01 6.709721e+01 7.072282e-01 5.969330e+01 6.008221e-01 5.238575e+01 4.698565e-01 4.517781e+01 3.203634e-01 3.803987e+01 1.622893e-01 3.097090e+01 -5.883263e-03 2.394123e+01 -1.775507e-01 1.695229e+01 -3.559122e-01 9.976547e+00 -5.350416e-01 3.017696e+00 -7.185962e-01 -3.950662e+00 -9.008474e-01 -1.092372e+01 -1.085422e+00 -1.792729e+01 -1.265716e+00 -2.495484e+01 -1.442440e+00 -3.202865e+01 -1.601378e+00 -3.913279e+01 -1.727554e+00 -4.627283e+01 -1.783163e+00 -5.340928e+01 -1.748370e+00 -6.056140e+01 -1.641159e+00 -6.777840e+01 -1.488940e+00 -7.511060e+01 -1.314335e+00 -8.260326e+01 -1.133276e+00 -9.029945e+01 -9.571910e-01 -9.824431e+01 
-8.878022e-01 -1.090357e+02 -7.711449e-01 -1.177653e+02 -6.909104e-01 1.172173e+02 -3.429512e-01 1.084810e+02 -4.038279e-02 1.000887e+02 2.126854e-01 9.197260e+01 4.034660e-01 8.406329e+01 5.102355e-01 7.629137e+01 5.155352e-01 6.860539e+01 4.505352e-01 6.103612e+01 3.433519e-01 5.355593e+01 2.157221e-01 4.617708e+01 7.292195e-02 3.886046e+01 -7.611157e-02 3.161538e+01 -2.329531e-01 2.440318e+01 -3.915410e-01 1.723579e+01 -5.550024e-01 1.007651e+01 -7.178928e-01 2.939420e+00 -8.837873e-01 -4.211116e+00 -1.047453e+00 -1.135997e+01 -1.212461e+00 -1.854230e+01 -1.372909e+00 -2.574159e+01 -1.530004e+00 -3.299027e+01 -1.671589e+00 -4.026384e+01 -1.785017e+00 -4.757955e+01 -1.833146e+00 -5.488391e+01 -1.790715e+00 -6.220077e+01 -1.679986e+00 -6.958121e+01 -1.529709e+00 -7.707400e+01 -1.362011e+00 -8.472249e+01 -1.192139e+00 -9.256840e+01 -1.031059e+00 -1.006561e+02 
-8.252311e-01 -1.075795e+02 -7.126070e-01 -1.163805e+02 -6.353422e-01 1.161281e+02 -2.688560e-01 1.073205e+02 5.234945e-02 9.888865e+01 3.241202e-01 9.076378e+01 5.337033e-01 8.287471e+01 6.582712e-01 7.514783e+01 6.763175e-01 6.752296e+01 6.223938e-01 6.004174e+01 5.248408e-01 5.266276e+01 4.055098e-01 4.540408e+01 2.680132e-01 3.821397e+01 1.222780e-01 3.110889e+01 -3.427484e-02 2.403856e+01 -1.941256e-01 1.702264e+01 -3.612525e-01 1.001325e+01 -5.286754e-01 3.032532e+00 -7.008119e-01 -3.966057e+00 -8.709134e-01 -1.095918e+01 -1.043420e+00 -1.799285e+01 -1.211067e+00 -2.504252e+01 -1.376273e+00 -3.215208e+01 -1.526364e+00 -3.929001e+01 -1.651004e+00 -4.648634e+01 -1.711038e+00 -5.367689e+01 -1.677395e+00 -6.089328e+01 -1.575857e+00 -6.819135e+01 -1.435615e+00 -7.562200e+01 -1.277828e+00 -8.323043e+01 -1.116796e+00 -9.106066e+01 -9.629573e-01 -9.915953e+01 
-9.177500e-01 -1.098918e+02 -8.220390e-01 -1.187860e+02 -7.626117e-01 1.182608e+02 -4.175637e-01 1.093604e+02 -1.143008e-01 1.008279e+02 1.467091e-01 9.259810e+01 3.559197e-01 8.460110e+01 4.845224e-01 7.675007e+01 4.769497e-01 6.893309e+01 3.953856e-01 6.131047e+01 2.870426e-01 5.375069e+01 1.650662e-01 4.635245e+01 3.173546e-02 3.897696e+01 -1.072003e-01 3.172645e+01 -2.535976e-01 2.446488e+01 -4.019375e-01 1.729959e+01 -5.551526e-01 1.009620e+01 -7.077698e-01 2.965359e+00 -8.632012e-01 -4.226795e+00 -1.016228e+00 -1.136806e+01 -1.170543e+00 -1.859282e+01 -1.321197e+00 -2.578810e+01 -1.471630e+00 -3.308961e+01 -1.615343e+00 -4.038007e+01 -1.748410e+00 -4.778888e+01 -1.824184e+00 -5.512585e+01 -1.770018e+00 -6.247138e+01 -1.647854e+00 -6.990079e+01 -1.497244e+00 -7.746406e+01 -1.338614e+00 -8.520195e+01 -1.183693e+00 -9.315500e+01 -1.040899e+00 -1.013679e+02 
-8.445705e-01 -1.082965e+02 -7.509257e-01 -1.172310e+02 -6.922608e-01 1.169933e+02 -3.298438e-01 1.080550e+02 -7.364586e-03 9.951442e+01 2.758699e-01 9.130630e+01 5.113248e-01 8.335929e+01 6.658802e-01 7.557631e+01 6.585925e-01 6.780255e+01 5.755740e-01 6.028635e+01 4.702912e-01 5.281855e+01 3.543264e-01 4.556130e+01 2.242315e-01 3.830265e+01 8.877026e-02 3.121205e+01 -5.847550e-02 2.408125e+01 -2.072733e-01 1.708654e+01 -3.650773e-01 1.002104e+01 -5.212110e-01 3.065366e+00 -6.837205e-01 -3.987224e+00 -8.421253e-01 -1.095404e+01 -1.004924e+00 -1.804299e+01 -1.162359e+00 -2.507066e+01 -1.323669e+00 -3.224867e+01 -1.479811e+00 -3.939056e+01 -1.636524e+00 -4.670849e+01 -1.736282e+00 -5.391715e+01 -1.679938e+00 -6.114180e+01 -1.555315e+00 -6.847111e+01 -1.406464e+00 -7.595620e+01 -1.252289e+00 -8.363758e+01 -1.102527e+00 -9.155635e+01 -9.643154e-01 -9.975843e+01 
-9.345860e-01 -1.103859e+02 -8.546581e-01 -1.193796e+02 -8.099675e-01 1.188588e+02 -4.680766e-01 1.098645e+02 -1.606219e-01 1.012603e+02 1.199468e-01 9.298990e+01 3.772552e-01 8.499502e+01 5.839625e-01 7.717000e+01 5.200995e-01 6.906158e+01 3.545608e-01 6.152138e+01 2.503076e-01 5.378196e+01 1.139576e-01 4.650552e+01 3.001815e-03 3.896707e+01 -1.418613e-01 3.184933e+01 -2.647923e-01 2.442905e+01 -4.180401e-01 1.740238e+01 -5.480339e-01 1.004213e+01 -7.052054e-01 3.053552e+00 -8.370284e-01 -4.294608e+00 -9.940691e-01 -1.129175e+01 -1.124340e+00 -1.867423e+01 -1.280162e+00 -2.572768e+01 -1.411983e+00 -3.320223e+01 -1.579819e+00 -4.037927e+01 -1.758138e+00 -4.807640e+01 -1.952351e+00 -5.535546e+01 -1.824273e+00 -6.265604e+01 -1.650253e+00 -7.008632e+01 -1.479170e+00 -7.768076e+01 -1.318958e+00 -8.546882e+01 -1.172254e+00 -9.348581e+01 -1.042502e+00 -1.017746e+02 
-8.527322e-01 -1.086252e+02 -7.729734e-01 -1.176272e+02 -7.269675e-01 1.173830e+02 -3.692085e-01 1.083843e+02 -4.299574e-02 9.980331e+01 2.622480e-01 9.158705e+01 5.568993e-01 8.368384e+01 8.213837e-01 7.598824e+01 7.292291e-01 6.781666e+01 5.327476e-01 6.048159e+01 4.365745e-01 5.275982e+01 3.000773e-01 4.571976e+01 1.969584e-01 3.821981e+01 5.085580e-02 3.135541e+01 -6.934149e-02 2.398448e+01 -2.270395e-01 1.722130e+01 -3.584642e-01 9.915636e+00 -5.227332e-01 3.195232e+00 -6.585340e-01 -4.097597e+00 -8.242879e-01 -1.082664e+01 -9.596951e-01 -1.815796e+01 -1.125323e+00 -2.494850e+01 -1.264275e+00 -3.238562e+01 -1.448006e+00 -3.931790e+01 -1.663661e+00 -4.705114e+01 -1.927805e+00 -5.413558e+01 -1.758629e+00 -6.128322e+01 -1.565301e+00 -6.859506e+01 -1.389161e+00 -7.609557e+01 -1.230042e+00 -8.381002e+01 -1.086219e+00 -9.177283e+01 -9.591037e-01 -1.000273e+02 
-9.379105e-01 -1.105073e+02 -8.702196e-01 -1.195348e+02 -8.366849e-01 1.189916e+02 -5.017308e-01 1.099694e+02 -1.942803e-01 1.013525e+02 1.043391e-01 9.310420e+01 4.352787e-01 8.523111e+01 9.180445e-01 7.786204e+01 7.199701e-01 6.860116e+01 1.909928e-01 6.193871e+01 2.944292e-01 5.333674e+01 -2.127088e-02 4.692643e+01 5.857412e-02 3.852380e+01 -2.562782e-01 3.228000e+01 -1.943555e-01 2.398740e+01 -5.149043e-01 1.784368e+01 -4.619305e-01 9.604430e+00 -7.854208e-01 3.506038e+00 -7.336450e-01 -4.725244e+00 -1.056251e+00 -1.082549e+01 -1.000672e+00 -1.909631e+01 -1.321334e+00 -2.524158e+01 -1.264735e+00 -3.362339e+01 -1.594101e+00 -3.985713e+01 -1.692804e+00 -4.881098e+01 -2.435950e+00 -5.554608e+01 -1.933790e+00 -6.270879e+01 -1.655054e+00 -7.010887e+01 -1.455996e+00 -7.770625e+01 -1.293001e+00 -8.551024e+01 -1.152973e+00 -9.354976e+01 -1.033771e+00 -1.018654e+02 
-8.492781e-01 -1.085592e+02 -7.800889e-01 -1.175623e+02 -7.435921e-01 1.172809e+02 -3.950532e-01 1.082866e+02 -7.201388e-02 9.972040e+01 2.473421e-01 9.155136e+01 6.182134e-01 8.381188e+01 1.225150e+00 7.673647e+01 9.821590e-01 6.712105e+01 3.184140e-01 6.095683e+01 5.161934e-01 5.213350e+01 1.320206e-01 4.622838e+01 2.899736e-01 3.761766e+01 -9.469776e-02 3.189319e+01 3.740754e-02 2.339894e+01 -3.555716e-01 1.778459e+01 -2.372900e-01 9.346112e+00 -6.355908e-01 3.782072e+00 -5.210962e-01 -4.649046e+00 -9.199784e-01 -1.021401e+01 -8.022574e-01 -1.868930e+01 -1.199338e+00 -2.429966e+01 -1.078925e+00 -3.289851e+01 -1.479759e+00 -3.858703e+01 -1.550480e+00 -4.790232e+01 -2.515730e+00 -5.427260e+01 -1.871149e+00 -6.125927e+01 -1.562920e+00 -6.853233e+01 -1.360446e+00 -7.602374e+01 -1.199812e+00 -8.373762e+01 -1.062588e+00 -9.170241e+01 -9.450510e-01 -9.995927e+01 