# vtk DataFile Version 2.0
Comment goes here
ASCII

DATASET STRUCTURED_POINTS
FIELD FieldData 1
TIME 1 1 double
0.01800000
DIMENSIONS    64   64   1

ORIGIN    0.000   0.000   0.000
SPACING   0.03125 0.03125   1.000

POINT_DATA   4096
VECTORS u double

0.072561 -0.001124 0.000000 -0.607683 -0.002105 0.000000 0.401190 0.002541 0.000000 -0.730604 -0.001764 0.000000 0.452198 -0.001922 0.000000 -0.716104 -0.002094 0.000000 0.396105 0.002933 0.000000 -0.616007 -0.002241 0.000000 0.275712 0.002298 0.000000 -0.451591 -0.002354 0.000000 0.111494 0.002025 0.000000 -0.265024 -0.002386 0.000000 -0.050343 0.001859 0.000000 -0.100767 -0.002359 0.000000 -0.181581 0.001731 0.000000 0.025366 -0.002229 0.000000 -0.268488 0.001833 0.000000 0.099686 -0.002172 0.000000 -0.307470 0.001708 0.000000 0.127061 -0.002061 0.000000 -0.305381 0.001734 0.000000 0.117272 -0.001828 0.000000 -0.273334 0.001603 0.000000 0.082018 -0.001543 0.000000 -0.221788 0.001232 0.000000 0.031517 -0.001208 0.000000 -0.171246 0.001280 0.000000 -0.000494 -0.001269 0.000000 -0.148333 0.001278 0.000000 -0.011982 -0.001005 0.000000 -0.132592 0.000997 0.000000 -0.028858 -0.000763 0.000000 -0.110762 0.000680 0.000000 -0.041721 -0.000374 0.000000 -0.108346 0.000331 0.000000 -0.023902 -0.000076 0.000000 -0.135231 -0.000047 0.000000 0.007615 0.000629 0.000000 -0.160429 -0.000562 0.000000 0.026432 0.000785 0.000000 -0.166444 -0.000710 0.000000 0.021634 0.001306 0.000000 -0.148139 -0.001100 0.000000 -0.006324 0.001531 0.000000 -0.107837 -0.001430 0.000000 -0.057341 0.002145 0.000000 -0.053387 -0.001629 0.000000 -0.102023 0.002375 0.000000 -0.031011 -0.001760 0.000000 -0.098850 0.002541 0.000000 -0.062654 -0.001918 0.000000 -0.040838 0.002652 0.000000 -0.151714 -0.001972 0.000000 0.068431 0.002700 0.000000 -0.278303 -0.002240 0.000000 0.181964 0.002926 0.000000 -0.366985 -0.002518 0.000000 0.219456 0.002911 0.000000 -0.359198 -0.002535 0.000000 0.147143 0.002788 0.000000 -0.253156 -0.002579 0.000000 -0.000457 0.002649 0.000000 -0.092270 -0.002413 0.000000 -0.189347 0.002363 0.000000 
-0.070355 0.205017 0.000000 0.328311 -0.165489 0.000000 -0.403380 0.062883 0.000000 0.416577 -0.027855 0.000000 -0.429474 -0.001595 0.000000 0.397474 0.025660 0.000000 -0.392422 -0.048495 0.000000 0.335535 0.057948 0.000000 -0.332647 -0.080159 0.000000 0.238860 0.079887 0.000000 -0.249523 -0.090995 0.000000 0.128878 0.078688 0.000000 -0.166336 -0.079742 0.000000 0.028491 0.063399 0.000000 -0.094445 -0.060639 0.000000 -0.056267 0.041249 0.000000 -0.040031 -0.034830 0.000000 -0.116295 0.017366 0.000000 -0.005916 -0.011516 0.000000 -0.155050 -0.003073 0.000000 0.010212 0.006912 0.000000 -0.175274 -0.017978 0.000000 0.012496 0.019526 0.000000 -0.181173 -0.027582 0.000000 0.004125 0.026874 0.000000 -0.175543 -0.026982 0.000000 -0.005184 0.017595 0.000000 -0.178769 -0.013102 0.000000 0.000520 0.007331 0.000000 -0.192290 -0.009239 0.000000 0.007177 0.009391 0.000000 -0.196622 -0.011708 0.000000 0.005420 0.006893 0.000000 -0.198988 -0.001668 0.000000 0.012112 -0.008640 0.000000 -0.216285 0.013116 0.000000 0.032816 -0.015530 0.000000 -0.237640 0.012551 0.000000 0.048181 -0.009816 0.000000 -0.245169 0.003574 0.000000 0.046754 0.001532 0.000000 -0.234365 -0.008134 0.000000 0.028777 0.012418 0.000000 -0.208635 -0.018516 0.000000 -0.001843 0.023447 0.000000 -0.167978 -0.025275 0.000000 -0.042375 0.019982 0.000000 -0.127741 -0.009117 0.000000 -0.066704 -0.003956 0.000000 -0.112225 0.017967 0.000000 -0.063540 -0.031639 0.000000 -0.121834 0.046939 0.000000 -0.030770 -0.057537 0.000000 -0.159690 0.066009 0.000000 0.026335 -0.059894 0.000000 -0.204211 0.047293 0.000000 0.067988 -0.022025 0.000000 -0.211397 -0.000777 0.000000 0.062290 0.032922 0.000000 -0.164084 -0.049992 0.000000 0.012893 0.070759 0.000000 -0.087553 -0.077487 0.000000 -0.051339 0.091396 0.000000 -0.005928 -0.079276 0.000000 
0.565341 -0.335363 0.000000 0.384019 0.330920 0.000000 0.178090 -0.085724 0.000000 0.468245 0.024331 0.000000 0.149594 0.017181 0.000000 0.457882 -0.039146 0.000000 0.205941 0.064871 0.000000 0.380168 -0.062017 0.000000 0.338225 0.098974 0.000000 0.263903 -0.085478 0.000000 0.501764 0.112007 0.000000 0.136747 -0.085572 0.000000 0.656950 0.102246 0.000000 0.027964 -0.074250 0.000000 0.786352 0.086488 0.000000 -0.056063 -0.056642 0.000000 0.882234 0.061861 0.000000 -0.106934 -0.036287 0.000000 0.942694 0.040463 0.000000 -0.130057 -0.018189 0.000000 0.972833 0.021958 0.000000 -0.131686 -0.004112 0.000000 0.979817 0.007503 0.000000 -0.118122 0.006828 0.000000 0.969640 -0.004398 0.000000 -0.093546 0.008101 0.000000 0.956407 0.004506 0.000000 -0.083499 -0.006972 0.000000 0.961574 0.014799 0.000000 -0.088355 -0.007662 0.000000 0.967316 0.005329 0.000000 -0.084672 0.000994 0.000000 0.962363 0.003046 0.000000 -0.080541 -0.007066 0.000000 0.967980 0.017628 0.000000 -0.098130 -0.020781 0.000000 0.992251 0.021308 0.000000 -0.123749 -0.014736 0.000000 1.010386 0.006967 0.000000 -0.136725 0.002212 0.000000 1.009736 -0.011514 0.000000 -0.130269 0.019282 0.000000 0.987973 -0.026830 0.000000 -0.106736 0.032151 0.000000 0.947881 -0.042087 0.000000 -0.064859 0.042677 0.000000 0.891839 -0.041867 0.000000 -0.025320 0.026703 0.000000 0.854108 -0.017276 0.000000 -0.019356 -0.000623 0.000000 0.849541 0.007692 0.000000 -0.050076 -0.030118 0.000000 0.881624 0.035884 0.000000 -0.119459 -0.054404 0.000000 0.941121 0.042281 0.000000 -0.196724 -0.038727 0.000000 0.973709 0.004667 0.000000 -0.222791 0.008609 0.000000 0.936801 -0.049847 0.000000 -0.174124 0.052185 0.000000 0.831174 -0.079111 0.000000 -0.080230 0.066881 0.000000 0.691658 -0.084038 0.000000 0.036733 0.021379 0.000000 
0.680334 -0.142269 0.000000 -0.150687 0.221762 0.000000 0.620418 -0.021343 0.000000 -0.173529 0.000641 0.000000 0.190123 0.008769 0.000000 -0.156067 -0.030687 0.000000 0.582841 0.029219 0.000000 -0.118165 -0.074336 0.000000 0.824189 0.036106 0.000000 -0.073393 -0.083652 0.000000 0.977812 0.036161 0.000000 -0.028263 -0.076498 0.000000 1.086857 0.029040 0.000000 0.007743 -0.066003 0.000000 1.170166 0.023388 0.000000 0.036110 -0.054634 0.000000 1.237725 0.016042 0.000000 0.052924 -0.043094 0.000000 1.295413 0.011607 0.000000 0.061718 -0.033212 0.000000 1.345323 0.008541 0.000000 0.064016 -0.024961 0.000000 1.388500 0.005962 0.000000 0.061315 -0.017406 0.000000 1.427203 0.002299 0.000000 0.052551 -0.013749 0.000000 1.458626 0.007548 0.000000 0.051415 -0.018269 0.000000 1.472952 0.012186 0.000000 0.058005 -0.014981 0.000000 1.482591 0.005709 0.000000 0.056955 -0.006755 0.000000 1.495397 0.002762 0.000000 0.053753 -0.007284 0.000000 1.499030 0.008949 0.000000 0.061492 -0.011156 0.000000 1.488706 0.010089 0.000000 0.073145 -0.005584 0.000000 1.477446 0.003159 0.000000 0.077482 0.004223 0.000000 1.470802 -0.004923 0.000000 0.073085 0.013629 0.000000 1.467616 -0.011115 0.000000 0.062094 0.021576 0.000000 1.465452 -0.018431 0.000000 0.041755 0.030767 0.000000 1.465782 -0.019557 0.000000 0.019539 0.028614 0.000000 1.451802 -0.009920 0.000000 0.010232 0.022534 0.000000 1.417583 -0.000919 0.000000 0.012343 0.014856 0.000000 1.360433 0.011845 0.000000 0.031901 0.006512 0.000000 1.277541 0.017371 0.000000 0.059724 0.014705 0.000000 1.189073 0.004042 0.000000 0.070339 0.036131 0.000000 1.108285 -0.015746 0.000000 0.055935 0.055635 0.000000 1.024125 -0.023135 0.000000 0.037850 0.062029 0.000000 0.906657 -0.025567 0.000000 0.041662 0.047041 0.000000 
0.855728 -0.143015 0.000000 -0.078187 0.390836 0.000000 0.743045 -0.062882 0.000000 -0.079475 0.454626 0.000000 0.334701 -0.000281 0.000000 -0.070848 -0.431864 0.000000 0.714461 0.026970 0.000000 -0.048540 -0.303365 0.000000 0.933206 0.054202 0.000000 -0.026871 -0.239101 0.000000 1.077821 0.066877 0.000000 -0.006986 -0.194617 0.000000 1.184646 0.066241 0.000000 0.008209 -0.157559 0.000000 1.267414 0.058121 0.000000 0.021019 -0.124202 0.000000 1.333122 0.045047 0.000000 0.029744 -0.093974 0.000000 1.386045 0.031669 0.000000 0.036084 -0.068099 0.000000 1.428592 0.019659 0.000000 0.040578 -0.047290 0.000000 1.462712 0.010204 0.000000 0.043328 -0.031875 0.000000 1.491077 0.004366 0.000000 0.042818 -0.023323 0.000000 1.513465 0.005641 0.000000 0.045655 -0.021298 0.000000 1.525366 0.008209 0.000000 0.051602 -0.017302 0.000000 1.533644 0.006379 0.000000 0.052512 -0.011811 0.000000 1.542756 0.006248 0.000000 0.051257 -0.010700 0.000000 1.546446 0.009890 0.000000 0.054885 -0.010456 0.000000 1.542253 0.009654 0.000000 0.059950 -0.003477 0.000000 1.536478 0.002630 0.000000 0.061277 0.008856 0.000000 1.531075 -0.007118 0.000000 0.058563 0.022469 0.000000 1.524812 -0.015838 0.000000 0.052987 0.034315 0.000000 1.516380 -0.021748 0.000000 0.042299 0.042347 0.000000 1.507349 -0.019651 0.000000 0.029277 0.040684 0.000000 1.489833 -0.007968 0.000000 0.020510 0.033596 0.000000 1.461548 0.005580 0.000000 0.014853 0.027032 0.000000 1.420961 0.016326 0.000000 0.016928 0.028487 0.000000 1.364610 0.014458 0.000000 0.024364 0.049741 0.000000 1.299995 -0.005949 0.000000 0.026023 0.089397 0.000000 1.230855 -0.035442 0.000000 0.018987 0.136345 0.000000 1.149327 -0.061026 0.000000 0.013852 0.184349 0.000000 1.036910 -0.087850 0.000000 0.016813 0.247702 0.000000 
0.829758 -0.047269 0.000000 -0.090298 0.334446 0.000000 0.701748 -0.020055 0.000000 -0.113880 0.408985 0.000000 0.480851 0.000142 0.000000 -0.114957 -0.410446 0.000000 0.709021 0.006911 0.000000 -0.090296 -0.293081 0.000000 0.891793 0.014437 0.000000 -0.060204 -0.228268 0.000000 1.026742 0.016276 0.000000 -0.028621 -0.183323 0.000000 1.128273 0.013845 0.000000 -0.000038 -0.148771 0.000000 1.207668 0.010578 0.000000 0.023653 -0.120342 0.000000 1.272017 0.007316 0.000000 0.040427 -0.096016 0.000000 1.325406 0.005266 0.000000 0.050766 -0.075759 0.000000 1.370428 0.004048 0.000000 0.055651 -0.059082 0.000000 1.408446 0.003212 0.000000 0.056431 -0.045771 0.000000 1.440513 0.002808 0.000000 0.054650 -0.036137 0.000000 1.465590 0.004711 0.000000 0.054701 -0.030170 0.000000 1.481969 0.006239 0.000000 0.056924 -0.023259 0.000000 1.493072 0.004799 0.000000 0.057754 -0.015867 0.000000 1.501435 0.004017 0.000000 0.058495 -0.010975 0.000000 1.504183 0.005321 0.000000 0.062368 -0.006962 0.000000 1.500595 0.005024 0.000000 0.067143 0.000191 0.000000 1.494612 0.001832 0.000000 0.068701 0.009627 0.000000 1.489021 -0.002209 0.000000 0.065461 0.019892 0.000000 1.483734 -0.005538 0.000000 0.057641 0.030008 0.000000 1.477466 -0.007743 0.000000 0.045513 0.039798 0.000000 1.467949 -0.006534 0.000000 0.032786 0.046130 0.000000 1.448653 -0.001153 0.000000 0.025006 0.050818 0.000000 1.415288 0.004738 0.000000 0.023858 0.055444 0.000000 1.366434 0.009770 0.000000 0.030293 0.062863 0.000000 1.303073 0.009936 0.000000 0.039323 0.079320 0.000000 1.232054 0.002384 0.000000 0.041267 0.105270 0.000000 1.157318 -0.008711 0.000000 0.031909 0.137163 0.000000 1.073359 -0.018000 0.000000 0.014685 0.174447 0.000000 0.967203 -0.028527 0.000000 -0.013887 0.228222 0.000000 
0.965091 -0.066603 0.000000 -0.039861 0.518845 0.000000 0.828033 -0.039301 0.000000 -0.051649 0.675523 0.000000 0.612926 0.000797 0.000000 -0.052433 -0.660034 0.000000 0.826257 0.002309 0.000000 -0.038889 -0.486136 0.000000 0.994395 0.024110 0.000000 -0.024012 -0.374049 0.000000 1.120725 0.035293 0.000000 -0.008804 -0.296149 0.000000 1.218069 0.037658 0.000000 0.005368 -0.236954 0.000000 1.295219 0.034431 0.000000 0.018083 -0.188551 0.000000 1.357108 0.028273 0.000000 0.027979 -0.147364 0.000000 1.406119 0.021330 0.000000 0.035120 -0.113121 0.000000 1.445169 0.014774 0.000000 0.039976 -0.085308 0.000000 1.475968 0.009424 0.000000 0.043079 -0.063942 0.000000 1.500677 0.006147 0.000000 0.044827 -0.048400 0.000000 1.519382 0.005590 0.000000 0.047209 -0.037677 0.000000 1.532199 0.005986 0.000000 0.050158 -0.028404 0.000000 1.540988 0.005549 0.000000 0.051739 -0.020174 0.000000 1.547683 0.005507 0.000000 0.052620 -0.013448 0.000000 1.550516 0.006017 0.000000 0.054625 -0.006868 0.000000 1.549434 0.004880 0.000000 0.056742 0.002506 0.000000 1.545899 0.001072 0.000000 0.057128 0.014447 0.000000 1.541302 -0.003878 0.000000 0.055099 0.027757 0.000000 1.534899 -0.008018 0.000000 0.050693 0.040583 0.000000 1.526233 -0.009620 0.000000 0.043521 0.051864 0.000000 1.513845 -0.006925 0.000000 0.034746 0.059980 0.000000 1.494725 -0.000188 0.000000 0.026512 0.066961 0.000000 1.466331 0.006728 0.000000 0.019880 0.075886 0.000000 1.428471 0.009891 0.000000 0.016866 0.091848 0.000000 1.381147 0.005428 0.000000 0.016409 0.120760 0.000000 1.326209 -0.007892 0.000000 0.014477 0.164132 0.000000 1.263467 -0.026084 0.000000 0.009179 0.220305 0.000000 1.187931 -0.043803 0.000000 0.001666 0.290504 0.000000 1.090714 -0.059278 0.000000 -0.010736 0.385147 0.000000 
0.969411 -0.018144 0.000000 -0.058499 0.471504 0.000000 0.868991 -0.008267 0.000000 -0.078227 0.624092 0.000000 0.747548 0.000925 0.000000 -0.078778 -0.623778 0.000000 0.877007 -0.006633 0.000000 -0.067102 -0.461218 0.000000 0.999394 -0.000440 0.000000 -0.048077 -0.354598 0.000000 1.102027 0.001069 0.000000 -0.025601 -0.280667 0.000000 1.185944 -0.000327 0.000000 -0.002772 -0.225921 0.000000 1.255204 -0.002137 0.000000 0.017925 -0.182231 0.000000 1.312733 -0.002579 0.000000 0.033915 -0.145027 0.000000 1.359439 -0.001875 0.000000 0.044610 -0.114808 0.000000 1.398169 -0.000808 0.000000 0.050669 -0.089881 0.000000 1.429806 0.000110 0.000000 0.053422 -0.070480 0.000000 1.456049 0.001060 0.000000 0.054281 -0.054843 0.000000 1.476272 0.002328 0.000000 0.055178 -0.042987 0.000000 1.491159 0.003290 0.000000 0.056527 -0.032047 0.000000 1.501237 0.003218 0.000000 0.057729 -0.022563 0.000000 1.508147 0.003136 0.000000 0.059046 -0.013808 0.000000 1.510773 0.003315 0.000000 0.061234 -0.005881 0.000000 1.509954 0.002908 0.000000 0.063292 0.003726 0.000000 1.506502 0.001446 0.000000 0.063626 0.014225 0.000000 1.502269 -0.000180 0.000000 0.061194 0.026295 0.000000 1.496545 -0.001133 0.000000 0.055951 0.038673 0.000000 1.488842 -0.000571 0.000000 0.048218 0.052186 0.000000 1.476257 0.002241 0.000000 0.039578 0.065250 0.000000 1.455832 0.007080 0.000000 0.031966 0.079212 0.000000 1.424303 0.011370 0.000000 0.026894 0.093304 0.000000 1.382360 0.012784 0.000000 0.025432 0.110187 0.000000 1.331879 0.010392 0.000000 0.025374 0.134258 0.000000 1.275444 0.004316 0.000000 0.022331 0.168012 0.000000 1.213942 -0.003413 0.000000 0.013388 0.212699 0.000000 1.144792 -0.010487 0.000000 -0.002127 0.271663 0.000000 1.063504 -0.016126 0.000000 -0.025974 0.353845 0.000000 
1.085233 -0.034078 0.000000 -0.028590 0.619266 0.000000 0.985385 -0.019573 0.000000 -0.037360 0.796966 0.000000 0.867892 0.001347 0.000000 -0.037858 -0.789493 0.000000 0.986705 -0.009368 0.000000 -0.031008 -0.608523 0.000000 1.098219 0.005086 0.000000 -0.021157 -0.476683 0.000000 1.192797 0.012817 0.000000 -0.009240 -0.380066 0.000000 1.271691 0.014829 0.000000 0.004224 -0.306213 0.000000 1.338248 0.013734 0.000000 0.018127 -0.246080 0.000000 1.393864 0.012283 0.000000 0.029165 -0.194070 0.000000 1.436045 0.010635 0.000000 0.036549 -0.151851 0.000000 1.469881 0.008714 0.000000 0.041237 -0.116945 0.000000 1.495228 0.006672 0.000000 0.044234 -0.090184 0.000000 1.516203 0.005288 0.000000 0.046285 -0.068624 0.000000 1.531152 0.004694 0.000000 0.048240 -0.052563 0.000000 1.543055 0.004637 0.000000 0.050171 -0.038483 0.000000 1.550420 0.004347 0.000000 0.051668 -0.027084 0.000000 1.556418 0.004190 0.000000 0.052859 -0.016074 0.000000 1.558446 0.003828 0.000000 0.054195 -0.006050 0.000000 1.559038 0.002823 0.000000 0.055270 0.005959 0.000000 1.556390 0.000738 0.000000 0.055380 0.018679 0.000000 1.553364 -0.001446 0.000000 0.054048 0.033481 0.000000 1.547294 -0.002775 0.000000 0.051104 0.048286 0.000000 1.539813 -0.001887 0.000000 0.046268 0.064449 0.000000 1.527014 0.001715 0.000000 0.039508 0.080405 0.000000 1.508789 0.007424 0.000000 0.030823 0.098491 0.000000 1.480484 0.011800 0.000000 0.021212 0.117829 0.000000 1.445466 0.011354 0.000000 0.014193 0.142329 0.000000 1.405444 0.005485 0.000000 0.009856 0.177195 0.000000 1.360387 -0.004849 0.000000 0.006071 0.225634 0.000000 1.308865 -0.017141 0.000000 0.001075 0.289455 0.000000 1.247854 -0.028288 0.000000 -0.005878 0.371792 0.000000 1.173717 -0.035431 0.000000 -0.015747 0.479240 0.000000 
1.112798 -0.005301 0.000000 -0.044032 0.571352 0.000000 1.051534 0.000503 0.000000 -0.056547 0.741585 0.000000 0.991300 0.001423 0.000000 -0.056992 -0.742591 0.000000 1.056260 -0.013483 0.000000 -0.051252 -0.572731 0.000000 1.128189 -0.010291 0.000000 -0.039226 -0.449176 0.000000 1.196556 -0.010848 0.000000 -0.022754 -0.359561 0.000000 1.258508 -0.013791 0.000000 -0.003253 -0.292478 0.000000 1.314578 -0.016041 0.000000 0.016996 -0.237847 0.000000 1.364185 -0.013617 0.000000 0.032857 -0.187209 0.000000 1.401358 -0.009259 0.000000 0.043140 -0.148644 0.000000 1.432868 -0.005496 0.000000 0.049077 -0.115228 0.000000 1.456482 -0.002888 0.000000 0.052315 -0.091455 0.000000 1.477529 -0.000991 0.000000 0.053957 -0.069791 0.000000 1.492288 0.000373 0.000000 0.055226 -0.054890 0.000000 1.505170 0.001360 0.000000 0.056371 -0.039412 0.000000 1.512600 0.001721 0.000000 0.057584 -0.028561 0.000000 1.519128 0.001945 0.000000 0.058758 -0.015836 0.000000 1.520796 0.001978 0.000000 0.060182 -0.006473 0.000000 1.521950 0.001834 0.000000 0.061198 0.006374 0.000000 1.519215 0.001336 0.000000 0.061301 0.017251 0.000000 1.517072 0.001152 0.000000 0.059780 0.032364 0.000000 1.511393 0.001811 0.000000 0.056670 0.046154 0.000000 1.505110 0.004266 0.000000 0.051751 0.064986 0.000000 1.492342 0.009001 0.000000 0.045157 0.083475 0.000000 1.474013 0.015765 0.000000 0.036315 0.107517 0.000000 1.443607 0.020982 0.000000 0.026279 0.128322 0.000000 1.406839 0.019803 0.000000 0.019154 0.150209 0.000000 1.366813 0.014729 0.000000 0.014411 0.179314 0.000000 1.324143 0.008101 0.000000 0.009233 0.219535 0.000000 1.278382 0.001583 0.000000 0.001218 0.273710 0.000000 1.228296 -0.003533 0.000000 -0.010726 0.345800 0.000000 1.172770 -0.006256 0.000000 -0.026637 0.442329 0.000000 
1.215383 -0.016683 0.000000 -0.023581 0.680529 0.000000 1.156937 -0.007058 0.000000 -0.028941 0.857200 0.000000 1.100472 0.001792 0.000000 -0.029347 -0.854453 0.000000 1.157144 -0.015107 0.000000 -0.026330 -0.680453 0.000000 1.220362 -0.006941 0.000000 -0.020356 -0.545050 0.000000 1.281255 -0.003655 0.000000 -0.011132 -0.442017 0.000000 1.338051 -0.004671 0.000000 0.002667 -0.362284 0.000000 1.392510 -0.006515 0.000000 0.020990 -0.295686 0.000000 1.444034 -0.003578 0.000000 0.034320 -0.231243 0.000000 1.474309 0.000351 0.000000 0.040693 -0.183361 0.000000 1.503007 0.002777 0.000000 0.044424 -0.140558 0.000000 1.518852 0.003434 0.000000 0.046274 -0.111232 0.000000 1.537717 0.003645 0.000000 0.048035 -0.083383 0.000000 1.545980 0.003425 0.000000 0.049209 -0.065445 0.000000 1.558448 0.003491 0.000000 0.050800 -0.045913 0.000000 1.561237 0.003135 0.000000 0.051784 -0.033612 0.000000 1.569110 0.003016 0.000000 0.053096 -0.017743 0.000000 1.567811 0.002404 0.000000 0.053877 -0.007203 0.000000 1.571884 0.001806 0.000000 0.054895 0.008693 0.000000 1.567279 0.000635 0.000000 0.054930 0.020822 0.000000 1.568508 0.000076 0.000000 0.054734 0.039160 0.000000 1.561142 0.000334 0.000000 0.053212 0.054568 0.000000 1.558762 0.003033 0.000000 0.050969 0.077217 0.000000 1.545620 0.008308 0.000000 0.045927 0.098734 0.000000 1.532908 0.016267 0.000000 0.036192 0.128896 0.000000 1.501157 0.021836 0.000000 0.019974 0.154596 0.000000 1.467387 0.018478 0.000000 0.008765 0.182356 0.000000 1.434775 0.010228 0.000000 0.002630 0.219865 0.000000 1.401003 0.000329 0.000000 -0.001293 0.271395 0.000000 1.363594 -0.009126 0.000000 -0.005232 0.339541 0.000000 1.320604 -0.016344 0.000000 -0.010268 0.427317 0.000000 1.270941 -0.019519 0.000000 -0.016652 0.539213 0.000000 
1.255639 0.001627 0.000000 -0.035587 0.629798 0.000000 1.229658 0.005863 0.000000 -0.043288 0.798050 0.000000 1.212929 0.001829 0.000000 -0.043630 -0.799263 0.000000 1.231237 -0.016500 0.000000 -0.041561 -0.635950 0.000000 1.262123 -0.016265 0.000000 -0.034719 -0.510068 0.000000 1.298372 -0.020071 0.000000 -0.022895 -0.416357 0.000000 1.337538 -0.027591 0.000000 -0.004573 -0.346938 0.000000 1.380918 -0.034363 0.000000 0.020359 -0.289370 0.000000 1.427911 -0.026947 0.000000 0.037774 -0.217484 0.000000 1.449004 -0.015632 0.000000 0.045934 -0.177342 0.000000 1.475287 -0.009227 0.000000 0.050455 -0.131073 0.000000 1.485759 -0.004737 0.000000 0.052638 -0.110320 0.000000 1.505196 -0.002751 0.000000 0.054254 -0.078054 0.000000 1.510231 -0.000801 0.000000 0.055225 -0.067358 0.000000 1.524594 -0.000232 0.000000 0.056396 -0.042200 0.000000 1.524910 0.000737 0.000000 0.057284 -0.036434 0.000000 1.534942 0.000633 0.000000 0.058439 -0.014537 0.000000 1.531353 0.001198 0.000000 0.059322 -0.010546 0.000000 1.537833 0.000815 0.000000 0.060230 0.010980 0.000000 1.531361 0.001301 0.000000 0.060388 0.016022 0.000000 1.535457 0.001348 0.000000 0.060141 0.039730 0.000000 1.526866 0.003333 0.000000 0.058929 0.048534 0.000000 1.527935 0.006509 0.000000 0.057034 0.078128 0.000000 1.513976 0.014043 0.000000 0.052630 0.096187 0.000000 1.504297 0.025499 0.000000 0.042040 0.139268 0.000000 1.468975 0.037200 0.000000 0.022840 0.162091 0.000000 1.434477 0.031012 0.000000 0.010478 0.182821 0.000000 1.404428 0.020864 0.000000 0.003831 0.213087 0.000000 1.375982 0.012024 0.000000 -0.001109 0.256944 0.000000 1.347080 0.005523 0.000000 -0.007110 0.316700 0.000000 1.316927 0.001503 0.000000 -0.015286 0.395463 0.000000 1.285843 0.000128 0.000000 -0.025360 0.497888 0.000000 
1.347279 -0.006456 0.000000 -0.020714 0.706510 0.000000 1.324544 0.000642 0.000000 -0.024077 0.873930 0.000000 1.311332 0.002135 0.000000 -0.024380 -0.872761 0.000000 1.322748 -0.017177 0.000000 -0.024536 -0.711339 0.000000 1.346016 -0.013783 0.000000 -0.022773 -0.581299 0.000000 1.374568 -0.015479 0.000000 -0.017594 -0.481184 0.000000 1.407358 -0.022993 0.000000 -0.003630 -0.405663 0.000000 1.450578 -0.031447 0.000000 0.028128 -0.342680 0.000000 1.515201 -0.020993 0.000000 0.047573 -0.252336 0.000000 1.514261 -0.007809 0.000000 0.046868 -0.209644 0.000000 1.548801 -0.001744 0.000000 0.050390 -0.151030 0.000000 1.539564 0.001250 0.000000 0.047648 -0.130669 0.000000 1.569753 0.002030 0.000000 0.051231 -0.088417 0.000000 1.556675 0.002454 0.000000 0.048966 -0.079808 0.000000 1.583495 0.002321 0.000000 0.052896 -0.046229 0.000000 1.567000 0.002246 0.000000 0.050753 -0.043644 0.000000 1.590976 0.001861 0.000000 0.054707 -0.014153 0.000000 1.571789 0.001520 0.000000 0.052481 -0.013683 0.000000 1.593443 0.000898 0.000000 0.056338 0.015165 0.000000 1.572299 0.000478 0.000000 0.053868 0.016727 0.000000 1.592331 0.000322 0.000000 0.057550 0.047751 0.000000 1.569959 0.001546 0.000000 0.055135 0.053499 0.000000 1.588644 0.004927 0.000000 0.059136 0.091176 0.000000 1.563807 0.012712 0.000000 0.055930 0.108413 0.000000 1.576284 0.026858 0.000000 0.048924 0.164218 0.000000 1.523199 0.041036 0.000000 0.013851 0.189095 0.000000 1.487991 0.030840 0.000000 -0.001866 0.212405 0.000000 1.465238 0.016875 0.000000 -0.006954 0.248311 0.000000 1.445174 0.005269 0.000000 -0.008757 0.300297 0.000000 1.423700 -0.003125 0.000000 -0.010480 0.369694 0.000000 1.399683 -0.008169 0.000000 -0.013152 0.458401 0.000000 1.373559 -0.009445 0.000000 -0.016769 0.569417 0.000000 
1.392945 0.005573 0.000000 -0.030024 0.652534 0.000000 1.396575 0.009227 0.000000 -0.034975 0.811262 0.000000 1.413060 0.002132 0.000000 -0.035208 -0.810679 0.000000 1.395186 -0.016344 0.000000 -0.036437 -0.659217 0.000000 1.391863 -0.018028 0.000000 -0.035041 -0.538621 0.000000 1.398026 -0.025250 0.000000 -0.029526 -0.449146 0.000000 1.413108 -0.041556 0.000000 -0.013010 -0.390159 0.000000 1.445257 -0.066120 0.000000 0.030355 -0.353993 0.000000 1.516457 -0.046393 0.000000 0.053600 -0.216544 0.000000 1.492087 -0.014927 0.000000 0.051251 -0.211882 0.000000 1.532879 -0.012749 0.000000 0.055438 -0.121836 0.000000 1.506548 -0.001995 0.000000 0.052290 -0.140509 0.000000 1.546889 -0.006335 0.000000 0.056449 -0.064977 0.000000 1.519156 0.001464 0.000000 0.053765 -0.094177 0.000000 1.557858 -0.004162 0.000000 0.057964 -0.025705 0.000000 1.527682 0.002881 0.000000 0.055448 -0.060410 0.000000 1.564290 -0.003321 0.000000 0.059644 0.004651 0.000000 1.531895 0.003424 0.000000 0.057161 -0.032200 0.000000 1.566690 -0.003042 0.000000 0.061251 0.032124 0.000000 1.532891 0.003771 0.000000 0.058608 -0.004011 0.000000 1.566679 -0.002334 0.000000 0.062660 0.062102 0.000000 1.532528 0.005747 0.000000 0.060551 0.029849 0.000000 1.566138 0.002509 0.000000 0.065847 0.102965 0.000000 1.531174 0.017249 0.000000 0.064735 0.083710 0.000000 1.560874 0.032505 0.000000 0.057433 0.192353 0.000000 1.492421 0.072273 0.000000 0.012811 0.197300 0.000000 1.457499 0.046730 0.000000 -0.004015 0.205573 0.000000 1.440505 0.025952 0.000000 -0.008580 0.233151 0.000000 1.428285 0.013827 0.000000 -0.010482 0.278418 0.000000 1.416872 0.007245 0.000000 -0.013312 0.340717 0.000000 1.406095 0.004174 0.000000 -0.017918 0.421587 0.000000 1.397306 0.003745 0.000000 -0.023875 0.524167 0.000000 
1.474817 -0.000307 0.000000 -0.018617 0.702880 0.000000 1.481445 0.005593 0.000000 -0.020921 0.857444 0.000000 1.500995 0.002369 0.000000 -0.021111 -0.854887 0.000000 1.477426 -0.015948 0.000000 -0.024465 -0.708017 0.000000 1.467130 -0.015179 0.000000 -0.028408 -0.587461 0.000000 1.464064 -0.020994 0.000000 -0.032613 -0.496266 0.000000 1.466595 -0.039509 0.000000 -0.028027 -0.437812 0.000000 1.490209 -0.074813 0.000000 0.042575 -0.413879 0.000000 1.649666 -0.044237 0.000000 0.086027 -0.227966 0.000000 1.519366 -0.005460 0.000000 0.043499 -0.250437 0.000000 1.637382 -0.005931 0.000000 0.067045 -0.124699 0.000000 1.521380 0.004399 0.000000 0.037350 -0.171010 0.000000 1.644500 -0.002130 0.000000 0.064895 -0.060685 0.000000 1.527672 0.005138 0.000000 0.037211 -0.118510 0.000000 1.651571 -0.001878 0.000000 0.065835 -0.016052 0.000000 1.532232 0.004762 0.000000 0.038326 -0.080252 0.000000 1.655933 -0.002335 0.000000 0.067353 0.018241 0.000000 1.534654 0.004004 0.000000 0.039742 -0.048477 0.000000 1.657920 -0.003192 0.000000 0.069016 0.048963 0.000000 1.535676 0.003121 0.000000 0.041462 -0.017061 0.000000 1.658881 -0.003730 0.000000 0.071393 0.081902 0.000000 1.537059 0.003655 0.000000 0.045471 0.019890 0.000000 1.662687 -0.000368 0.000000 0.079318 0.126140 0.000000 1.544129 0.013824 0.000000 0.063720 0.078714 0.000000 1.686895 0.034159 0.000000 0.094529 0.232671 0.000000 1.524682 0.085659 0.000000 -0.011909 0.224016 0.000000 1.496297 0.047666 0.000000 -0.023550 0.229399 0.000000 1.493206 0.021440 0.000000 -0.020052 0.260531 0.000000 1.490743 0.007172 0.000000 -0.016405 0.311710 0.000000 1.486164 -0.000295 0.000000 -0.014784 0.380471 0.000000 1.480532 -0.003563 0.000000 -0.015004 0.467190 0.000000 1.475821 -0.003488 0.000000 -0.016486 0.573779 0.000000 
1.521381 0.007703 0.000000 -0.025772 0.645906 0.000000 1.549448 0.011531 0.000000 -0.029127 0.791711 0.000000 1.592189 0.002322 0.000000 -0.029244 -0.787109 0.000000 1.545309 -0.012990 0.000000 -0.033682 -0.648921 0.000000 1.512719 -0.014084 0.000000 -0.039056 -0.535555 0.000000 1.488862 -0.021045 0.000000 -0.046608 -0.451678 0.000000 1.471516 -0.046142 0.000000 -0.049328 -0.413772 0.000000 1.477142 -0.136722 0.000000 0.021528 -0.513450 0.000000 1.633437 -0.089845 0.000000 0.060191 -0.086244 0.000000 1.473430 0.027601 0.000000 0.015405 -0.329899 0.000000 1.603811 -0.036296 0.000000 0.041051 -0.005834 0.000000 1.463093 0.027700 0.000000 0.012064 -0.263629 0.000000 1.605080 -0.033880 0.000000 0.041882 0.051851 0.000000 1.463008 0.029148 0.000000 0.014121 -0.218075 0.000000 1.609713 -0.032786 0.000000 0.044733 0.093634 0.000000 1.464211 0.030390 0.000000 0.016603 -0.184112 0.000000 1.613412 -0.032348 0.000000 0.047638 0.125931 0.000000 1.465105 0.031035 0.000000 0.019117 -0.155467 0.000000 1.615985 -0.032316 0.000000 0.050577 0.154369 0.000000 1.466032 0.031324 0.000000 0.021941 -0.127216 0.000000 1.618907 -0.032265 0.000000 0.054456 0.183924 0.000000 1.468909 0.031670 0.000000 0.027752 -0.095779 0.000000 1.627301 -0.031338 0.000000 0.065874 0.221523 0.000000 1.481800 0.032847 0.000000 0.054532 -0.059055 0.000000 1.669930 0.001696 0.000000 0.096362 0.354566 0.000000 1.477020 0.178711 0.000000 -0.025368 0.225685 0.000000 1.463173 0.058371 0.000000 -0.031354 0.208664 0.000000 1.472270 0.022454 0.000000 -0.023944 0.235614 0.000000 1.479880 0.010179 0.000000 -0.019045 0.282997 0.000000 1.485878 0.005624 0.000000 -0.017770 0.346348 0.000000 1.492906 0.004395 0.000000 -0.019179 0.426298 0.000000 1.503734 0.005227 0.000000 -0.022187 0.525171 0.000000 