# vtk DataFile Version 2.0
Comment goes here
ASCII

DATASET STRUCTURED_POINTS
FIELD FieldData 1
TIME 1 1 double
0.00800000
DIMENSIONS    64   64   1

ORIGIN    0.000   0.000   0.000
SPACING   0.03125 0.03125   1.000

POINT_DATA   4096
VECTORS u double

-0.012339 -0.000288 0.000000 -0.264878 -0.000355 0.000000 0.140734 0.000414 0.000000 -0.230175 -0.000305 0.000000 0.079050 -0.000073 0.000000 -0.153391 -0.000207 0.000000 -0.016527 0.000242 0.000000 -0.049866 -0.000330 0.000000 -0.113451 0.000355 0.000000 0.046371 -0.000404 0.000000 -0.187712 0.000279 0.000000 0.111750 -0.000361 0.000000 -0.227984 0.000293 0.000000 0.144525 -0.000433 0.000000 -0.237913 0.000350 0.000000 0.149383 -0.000421 0.000000 -0.223228 0.000332 0.000000 0.130872 -0.000380 0.000000 -0.192271 0.000239 0.000000 0.105679 -0.000235 0.000000 -0.166285 0.000274 0.000000 0.094106 -0.000219 0.000000 -0.153851 0.000086 0.000000 0.086597 -0.000175 0.000000 -0.135922 0.000237 0.000000 0.068512 -0.000212 0.000000 -0.112155 0.000118 0.000000 0.050315 -0.000131 0.000000 -0.087549 0.000086 0.000000 0.028783 -0.000050 0.000000 -0.062291 0.000060 0.000000 0.008688 -0.000099 0.000000 -0.038927 0.000055 0.000000 -0.011896 0.000088 0.000000 -0.016880 -0.000052 0.000000 -0.029771 0.000012 0.000000 0.002981 0.000022 0.000000 -0.046740 0.000092 0.000000 0.021574 -0.000109 0.000000 -0.063100 0.000140 0.000000 0.039794 -0.000207 0.000000 -0.079652 0.000372 0.000000 0.055062 -0.000238 0.000000 -0.090530 0.000150 0.000000 0.064466 -0.000136 0.000000 -0.098032 0.000338 0.000000 0.071510 -0.000195 0.000000 -0.103126 0.000293 0.000000 0.072426 -0.000054 0.000000 -0.100501 0.000179 0.000000 0.070412 -0.000165 0.000000 -0.110268 0.000352 0.000000 0.095621 -0.000215 0.000000 -0.149606 0.000320 0.000000 0.136691 -0.000210 0.000000 -0.183040 0.000276 0.000000 0.147643 -0.000230 0.000000 -0.170558 0.000321 0.000000 0.105742 -0.000352 0.000000 -0.107494 0.000533 0.000000 0.018087 -0.000556 0.000000 -0.009928 0.000547 0.000000 -0.089794 -0.000485 0.000000 0.073297 0.000417 0.000000 
-0.029990 0.168309 0.000000 0.287689 -0.076629 0.000000 -0.301466 -0.017224 0.000000 0.305187 0.030662 0.000000 -0.285992 -0.037869 0.000000 0.273482 0.047419 0.000000 -0.232954 -0.051418 0.000000 0.212984 0.048055 0.000000 -0.179124 -0.047634 0.000000 0.153786 0.036599 0.000000 -0.136311 -0.032163 0.000000 0.108853 0.019678 0.000000 -0.109107 -0.015974 0.000000 0.078866 0.004625 0.000000 -0.094946 -0.002054 0.000000 0.060701 -0.007662 0.000000 -0.088805 0.009612 0.000000 0.051514 -0.015773 0.000000 -0.088206 0.012915 0.000000 0.044460 -0.013293 0.000000 -0.082764 0.006182 0.000000 0.027282 -0.006370 0.000000 -0.067545 0.003831 0.000000 0.006927 -0.009026 0.000000 -0.054068 0.009167 0.000000 -0.007991 -0.011946 0.000000 -0.040994 0.009197 0.000000 -0.027128 -0.012443 0.000000 -0.025221 0.010933 0.000000 -0.045944 -0.012684 0.000000 -0.009763 0.010000 0.000000 -0.064309 -0.011598 0.000000 0.005634 0.010280 0.000000 -0.079817 -0.010967 0.000000 0.019587 0.008858 0.000000 -0.094890 -0.009880 0.000000 0.032679 0.008532 0.000000 -0.109342 -0.009312 0.000000 0.045479 0.008153 0.000000 -0.122325 -0.009069 0.000000 0.056659 0.008228 0.000000 -0.132143 -0.007534 0.000000 0.066082 0.005214 0.000000 -0.140440 -0.004450 0.000000 0.072977 0.003559 0.000000 -0.145249 -0.003380 0.000000 0.076852 0.002363 0.000000 -0.146694 -0.000343 0.000000 0.081744 -0.001407 0.000000 -0.152867 0.001228 0.000000 0.090350 0.004528 0.000000 -0.153101 -0.012267 0.000000 0.082656 0.019352 0.000000 -0.133644 -0.020297 0.000000 0.063583 0.016464 0.000000 -0.115029 -0.005243 0.000000 0.059188 -0.006586 0.000000 -0.119268 0.021342 0.000000 0.081830 -0.031975 0.000000 -0.147683 0.044294 0.000000 0.126198 -0.049277 0.000000 -0.190102 0.054461 0.000000 0.173877 -0.042202 0.000000 -0.201004 -0.038097 0.000000 
0.182714 -0.488982 0.000000 0.264239 0.271120 0.000000 -0.062904 -0.017084 0.000000 0.259651 -0.015778 0.000000 -0.020988 0.031633 0.000000 0.205719 -0.053246 0.000000 0.035084 0.060739 0.000000 0.136177 -0.054160 0.000000 0.118158 0.059554 0.000000 0.070057 -0.043217 0.000000 0.189815 0.045211 0.000000 0.024307 -0.027565 0.000000 0.237980 0.030280 0.000000 -0.001277 -0.014593 0.000000 0.265213 0.018515 0.000000 -0.010782 -0.006562 0.000000 0.276374 0.009519 0.000000 -0.007078 -0.000979 0.000000 0.276098 0.007293 0.000000 -0.000736 -0.005677 0.000000 0.279635 0.017452 0.000000 -0.007344 -0.015438 0.000000 0.293910 0.020441 0.000000 -0.018370 -0.013652 0.000000 0.303384 0.015155 0.000000 -0.021802 -0.013286 0.000000 0.309025 0.019254 0.000000 -0.028082 -0.015904 0.000000 0.314903 0.018902 0.000000 -0.032790 -0.015507 0.000000 0.319531 0.018425 0.000000 -0.038364 -0.015496 0.000000 0.324336 0.015562 0.000000 -0.042000 -0.013864 0.000000 0.327846 0.015021 0.000000 -0.046571 -0.013080 0.000000 0.330963 0.014474 0.000000 -0.050862 -0.012708 0.000000 0.333314 0.012874 0.000000 -0.054342 -0.011040 0.000000 0.333753 0.009612 0.000000 -0.055457 -0.009051 0.000000 0.333141 0.008059 0.000000 -0.058141 -0.006744 0.000000 0.332736 0.004673 0.000000 -0.059960 -0.003538 0.000000 0.329852 0.001250 0.000000 -0.060594 -0.004598 0.000000 0.328983 0.006119 0.000000 -0.067615 -0.008428 0.000000 0.330724 0.000070 0.000000 -0.065992 0.008047 0.000000 0.308985 -0.019672 0.000000 -0.038871 0.019393 0.000000 0.270468 -0.018825 0.000000 -0.013199 0.004672 0.000000 0.249702 0.004008 0.000000 -0.018944 -0.022322 0.000000 0.263008 0.028064 0.000000 -0.058859 -0.043834 0.000000 0.304641 0.041863 0.000000 -0.122287 -0.047132 0.000000 0.357122 0.010418 0.000000 -0.166612 0.204285 0.000000 
0.162041 -0.262543 0.000000 -0.167284 0.168989 0.000000 0.201040 -0.012636 0.000000 -0.126629 -0.011254 0.000000 -0.033221 0.016064 0.000000 -0.095064 -0.008653 0.000000 0.117082 0.018123 0.000000 -0.056436 -0.035020 0.000000 0.207178 0.018487 0.000000 -0.027489 -0.035058 0.000000 0.270597 0.013586 0.000000 -0.010701 -0.028487 0.000000 0.321495 0.009610 0.000000 -0.002781 -0.022608 0.000000 0.364172 0.007451 0.000000 -0.000470 -0.018822 0.000000 0.399777 0.005908 0.000000 -0.002664 -0.015497 0.000000 0.430910 0.006573 0.000000 -0.006077 -0.016830 0.000000 0.453130 0.012790 0.000000 -0.002315 -0.020645 0.000000 0.464467 0.014857 0.000000 0.002844 -0.018500 0.000000 0.474775 0.012598 0.000000 0.003299 -0.017586 0.000000 0.483072 0.015477 0.000000 0.006838 -0.018322 0.000000 0.487348 0.015641 0.000000 0.009965 -0.017311 0.000000 0.490185 0.015574 0.000000 0.013111 -0.016404 0.000000 0.491140 0.013916 0.000000 0.014629 -0.014476 0.000000 0.491442 0.013428 0.000000 0.016482 -0.012998 0.000000 0.490354 0.012824 0.000000 0.018744 -0.011662 0.000000 0.487432 0.011632 0.000000 0.020847 -0.009508 0.000000 0.483444 0.009343 0.000000 0.021690 -0.006922 0.000000 0.478282 0.007898 0.000000 0.022815 -0.004045 0.000000 0.471872 0.005378 0.000000 0.022784 -0.000495 0.000000 0.464809 0.002998 0.000000 0.021345 0.000526 0.000000 0.453476 0.005613 0.000000 0.025514 -0.000513 0.000000 0.434287 0.002906 0.000000 0.027754 0.009472 0.000000 0.422112 -0.007770 0.000000 0.017144 0.018221 0.000000 0.413428 -0.009207 0.000000 0.007604 0.015523 0.000000 0.389487 -0.000841 0.000000 0.014084 0.008036 0.000000 0.339414 0.007940 0.000000 0.039918 0.002661 0.000000 0.258116 0.014150 0.000000 0.089019 0.001980 0.000000 0.135907 0.002124 0.000000 0.152232 0.136311 0.000000 
0.236164 -0.169465 0.000000 -0.088276 0.232121 0.000000 0.222095 -0.057738 0.000000 -0.065387 0.218483 0.000000 0.018603 0.000067 0.000000 -0.049332 -0.203549 0.000000 0.180349 0.022111 0.000000 -0.032792 -0.144257 0.000000 0.267938 0.030607 0.000000 -0.020732 -0.106635 0.000000 0.327084 0.028423 0.000000 -0.013996 -0.078464 0.000000 0.372256 0.022360 0.000000 -0.010411 -0.057270 0.000000 0.408042 0.016205 0.000000 -0.008350 -0.042167 0.000000 0.436389 0.011712 0.000000 -0.007789 -0.032112 0.000000 0.459817 0.010707 0.000000 -0.007751 -0.027897 0.000000 0.476929 0.013690 0.000000 -0.004227 -0.026775 0.000000 0.487121 0.015282 0.000000 -0.000297 -0.023960 0.000000 0.495828 0.014700 0.000000 0.001008 -0.021583 0.000000 0.502432 0.015715 0.000000 0.004066 -0.020180 0.000000 0.506039 0.015775 0.000000 0.006864 -0.018344 0.000000 0.508230 0.015278 0.000000 0.009644 -0.016452 0.000000 0.508903 0.014045 0.000000 0.011399 -0.014167 0.000000 0.508829 0.013168 0.000000 0.013226 -0.011992 0.000000 0.507601 0.012212 0.000000 0.015145 -0.009786 0.000000 0.504966 0.010771 0.000000 0.016898 -0.007052 0.000000 0.501337 0.008768 0.000000 0.017780 -0.003889 0.000000 0.496703 0.006934 0.000000 0.018589 -0.000334 0.000000 0.490961 0.004704 0.000000 0.018464 0.003525 0.000000 0.484411 0.002689 0.000000 0.017334 0.006735 0.000000 0.474790 0.001950 0.000000 0.019346 0.010761 0.000000 0.459493 -0.002171 0.000000 0.020984 0.020222 0.000000 0.446187 -0.009062 0.000000 0.016249 0.028077 0.000000 0.433412 -0.009285 0.000000 0.011685 0.028613 0.000000 0.412109 -0.002471 0.000000 0.014094 0.027750 0.000000 0.376979 0.002229 0.000000 0.024908 0.037464 0.000000 0.324182 -0.007238 0.000000 0.047763 0.075077 0.000000 0.244101 -0.052795 0.000000 0.081723 0.178150 0.000000 
0.216937 -0.092543 0.000000 -0.058166 0.183058 0.000000 0.189997 -0.035525 0.000000 -0.070019 0.192238 0.000000 0.091369 0.000010 0.000000 -0.069632 -0.170399 0.000000 0.176447 0.001583 0.000000 -0.048087 -0.122609 0.000000 0.245224 0.006427 0.000000 -0.029725 -0.094203 0.000000 0.299238 0.006850 0.000000 -0.016769 -0.073660 0.000000 0.343213 0.006025 0.000000 -0.008902 -0.058394 0.000000 0.379892 0.005390 0.000000 -0.004922 -0.047169 0.000000 0.410519 0.005347 0.000000 -0.003635 -0.038926 0.000000 0.435840 0.006535 0.000000 -0.003047 -0.033941 0.000000 0.454960 0.009266 0.000000 -0.000626 -0.030837 0.000000 0.467967 0.010927 0.000000 0.002390 -0.027207 0.000000 0.477810 0.011293 0.000000 0.004458 -0.024190 0.000000 0.485095 0.012420 0.000000 0.007073 -0.021929 0.000000 0.489781 0.012843 0.000000 0.009668 -0.019502 0.000000 0.492640 0.012794 0.000000 0.012093 -0.017077 0.000000 0.493953 0.012161 0.000000 0.013986 -0.014402 0.000000 0.494105 0.011602 0.000000 0.015788 -0.011770 0.000000 0.493027 0.010905 0.000000 0.017571 -0.009027 0.000000 0.490605 0.009879 0.000000 0.019119 -0.005879 0.000000 0.487026 0.008460 0.000000 0.020135 -0.002287 0.000000 0.482236 0.007090 0.000000 0.020859 0.001696 0.000000 0.476123 0.005503 0.000000 0.021027 0.006055 0.000000 0.468399 0.004127 0.000000 0.020843 0.010147 0.000000 0.457872 0.003601 0.000000 0.021602 0.014784 0.000000 0.444079 0.001268 0.000000 0.021083 0.022779 0.000000 0.430260 -0.003036 0.000000 0.017153 0.030996 0.000000 0.414287 -0.004643 0.000000 0.014537 0.036826 0.000000 0.389017 -0.003250 0.000000 0.018734 0.043165 0.000000 0.349529 -0.002874 0.000000 0.030364 0.055459 0.000000 0.295966 -0.008706 0.000000 0.043787 0.082060 0.000000 0.237694 -0.031837 0.000000 0.036311 0.144248 0.000000 
0.275178 -0.074989 0.000000 -0.029805 0.259061 0.000000 0.232286 -0.045885 0.000000 -0.037009 0.317110 0.000000 0.138818 -0.000319 0.000000 -0.036842 -0.288626 0.000000 0.227766 0.000565 0.000000 -0.027817 -0.213034 0.000000 0.296095 0.012245 0.000000 -0.020225 -0.160649 0.000000 0.347484 0.015467 0.000000 -0.014763 -0.122438 0.000000 0.387437 0.014493 0.000000 -0.011003 -0.093949 0.000000 0.419213 0.012225 0.000000 -0.008367 -0.072793 0.000000 0.444598 0.010426 0.000000 -0.006588 -0.057433 0.000000 0.464773 0.010119 0.000000 -0.005019 -0.047017 0.000000 0.480005 0.011269 0.000000 -0.002563 -0.039782 0.000000 0.490735 0.012265 0.000000 0.000074 -0.033802 0.000000 0.498836 0.012633 0.000000 0.002136 -0.028869 0.000000 0.504687 0.013100 0.000000 0.004492 -0.024865 0.000000 0.508459 0.013180 0.000000 0.006816 -0.021203 0.000000 0.510651 0.012853 0.000000 0.009011 -0.017764 0.000000 0.511577 0.012152 0.000000 0.010839 -0.014319 0.000000 0.511460 0.011366 0.000000 0.012532 -0.010915 0.000000 0.510345 0.010429 0.000000 0.014121 -0.007363 0.000000 0.508118 0.009223 0.000000 0.015482 -0.003473 0.000000 0.504933 0.007753 0.000000 0.016411 0.000900 0.000000 0.500693 0.006209 0.000000 0.017005 0.005779 0.000000 0.495327 0.004537 0.000000 0.017089 0.011249 0.000000 0.488512 0.002873 0.000000 0.016808 0.017262 0.000000 0.479431 0.001191 0.000000 0.017002 0.024553 0.000000 0.467489 -0.001652 0.000000 0.016663 0.034041 0.000000 0.454418 -0.005133 0.000000 0.014641 0.044049 0.000000 0.439284 -0.006669 0.000000 0.013091 0.053883 0.000000 0.418512 -0.006668 0.000000 0.014472 0.067238 0.000000 0.389359 -0.009401 0.000000 0.019046 0.091027 0.000000 0.350922 -0.020662 0.000000 0.024475 0.133349 0.000000 0.306081 -0.045319 0.000000 0.019801 0.198908 0.000000 
0.277608 -0.042937 0.000000 -0.028417 0.225949 0.000000 0.248962 -0.028321 0.000000 -0.043734 0.285707 0.000000 0.204010 -0.000157 0.000000 -0.043856 -0.259348 0.000000 0.251561 -0.007442 0.000000 -0.036326 -0.190938 0.000000 0.297263 -0.001165 0.000000 -0.026435 -0.145592 0.000000 0.337256 0.001389 0.000000 -0.017689 -0.113612 0.000000 0.371596 0.002265 0.000000 -0.011124 -0.090170 0.000000 0.400991 0.002754 0.000000 -0.006685 -0.072555 0.000000 0.425847 0.003568 0.000000 -0.003917 -0.059100 0.000000 0.446232 0.004966 0.000000 -0.001884 -0.049173 0.000000 0.462172 0.006811 0.000000 0.000381 -0.041568 0.000000 0.473932 0.008290 0.000000 0.002766 -0.035308 0.000000 0.482734 0.009231 0.000000 0.004930 -0.030041 0.000000 0.489091 0.010063 0.000000 0.007157 -0.025701 0.000000 0.493436 0.010519 0.000000 0.009345 -0.021693 0.000000 0.496074 0.010599 0.000000 0.011394 -0.018004 0.000000 0.497395 0.010333 0.000000 0.013200 -0.014285 0.000000 0.497508 0.009908 0.000000 0.014852 -0.010655 0.000000 0.496579 0.009316 0.000000 0.016366 -0.006799 0.000000 0.494497 0.008518 0.000000 0.017650 -0.002695 0.000000 0.491402 0.007531 0.000000 0.018591 0.001953 0.000000 0.487120 0.006496 0.000000 0.019186 0.007062 0.000000 0.481598 0.005419 0.000000 0.019359 0.012870 0.000000 0.474417 0.004409 0.000000 0.019156 0.019228 0.000000 0.465167 0.003407 0.000000 0.018748 0.026726 0.000000 0.453572 0.001606 0.000000 0.017590 0.035850 0.000000 0.440285 -0.001013 0.000000 0.015610 0.046131 0.000000 0.424156 -0.003093 0.000000 0.014532 0.057598 0.000000 0.402416 -0.004631 0.000000 0.015979 0.072318 0.000000 0.373371 -0.007448 0.000000 0.019064 0.093896 0.000000 0.338371 -0.014134 0.000000 0.019028 0.126901 0.000000 0.303203 -0.027162 0.000000 0.005984 0.175151 0.000000 
0.326140 -0.040587 0.000000 -0.014946 0.287707 0.000000 0.292403 -0.030568 0.000000 -0.023906 0.362063 0.000000 0.247302 -0.000197 0.000000 -0.024002 -0.336177 0.000000 0.296071 -0.006966 0.000000 -0.021465 -0.258736 0.000000 0.341262 0.002355 0.000000 -0.017586 -0.200642 0.000000 0.379339 0.006720 0.000000 -0.013818 -0.156779 0.000000 0.410795 0.007928 0.000000 -0.010462 -0.123344 0.000000 0.436771 0.007786 0.000000 -0.007517 -0.097649 0.000000 0.458012 0.007657 0.000000 -0.005167 -0.077818 0.000000 0.474670 0.008086 0.000000 -0.003159 -0.062957 0.000000 0.487586 0.009004 0.000000 -0.001072 -0.051542 0.000000 0.496979 0.009880 0.000000 0.001024 -0.042604 0.000000 0.504092 0.010469 0.000000 0.002974 -0.035226 0.000000 0.509018 0.010873 0.000000 0.004952 -0.029210 0.000000 0.512460 0.010991 0.000000 0.006900 -0.023841 0.000000 0.514336 0.010805 0.000000 0.008746 -0.019086 0.000000 0.515293 0.010346 0.000000 0.010416 -0.014432 0.000000 0.515088 0.009713 0.000000 0.011941 -0.009986 0.000000 0.514201 0.008915 0.000000 0.013323 -0.005281 0.000000 0.512224 0.007939 0.000000 0.014495 -0.000378 0.000000 0.509585 0.006812 0.000000 0.015375 0.005182 0.000000 0.505806 0.005614 0.000000 0.015926 0.011301 0.000000 0.501141 0.004364 0.000000 0.016074 0.018431 0.000000 0.494877 0.003076 0.000000 0.015800 0.026512 0.000000 0.486935 0.001600 0.000000 0.015190 0.036149 0.000000 0.476621 -0.000494 0.000000 0.014030 0.047328 0.000000 0.464717 -0.003153 0.000000 0.012548 0.060178 0.000000 0.450785 -0.005591 0.000000 0.011539 0.075623 0.000000 0.433286 -0.008115 0.000000 0.011629 0.096283 0.000000 0.411010 -0.012485 0.000000 0.012300 0.126027 0.000000 0.383993 -0.020626 0.000000 0.011284 0.168517 0.000000 0.354288 -0.032275 0.000000 0.003722 0.224503 0.000000 
0.341061 -0.024270 0.000000 -0.018312 0.259687 0.000000 0.323669 -0.019361 0.000000 -0.028876 0.330808 0.000000 0.305945 -0.000061 0.000000 -0.029014 -0.308117 0.000000 0.328866 -0.009979 0.000000 -0.026940 -0.236128 0.000000 0.355136 -0.005045 0.000000 -0.022000 -0.183669 0.000000 0.380967 -0.002380 0.000000 -0.016421 -0.145069 0.000000 0.404936 -0.001091 0.000000 -0.011218 -0.116145 0.000000 0.426627 -0.000190 0.000000 -0.006774 -0.093796 0.000000 0.445639 0.001218 0.000000 -0.003457 -0.075758 0.000000 0.461067 0.002958 0.000000 -0.000944 -0.062090 0.000000 0.473566 0.004723 0.000000 0.001273 -0.050960 0.000000 0.482856 0.006194 0.000000 0.003367 -0.042421 0.000000 0.490102 0.007281 0.000000 0.005345 -0.034967 0.000000 0.495100 0.008085 0.000000 0.007281 -0.029143 0.000000 0.498800 0.008571 0.000000 0.009163 -0.023569 0.000000 0.500825 0.008754 0.000000 0.010937 -0.018960 0.000000 0.502046 0.008663 0.000000 0.012569 -0.014081 0.000000 0.501953 0.008384 0.000000 0.014054 -0.009768 0.000000 0.501285 0.007934 0.000000 0.015391 -0.004822 0.000000 0.499401 0.007347 0.000000 0.016521 -0.000056 0.000000 0.496964 0.006650 0.000000 0.017390 0.005732 0.000000 0.493243 0.005945 0.000000 0.017932 0.011727 0.000000 0.488733 0.005271 0.000000 0.018066 0.019133 0.000000 0.482502 0.004684 0.000000 0.017669 0.027170 0.000000 0.474809 0.004017 0.000000 0.016643 0.037040 0.000000 0.464758 0.002766 0.000000 0.014916 0.047753 0.000000 0.453150 0.000469 0.000000 0.013154 0.060063 0.000000 0.439628 -0.002084 0.000000 0.011985 0.075096 0.000000 0.423115 -0.004721 0.000000 0.011572 0.094594 0.000000 0.403167 -0.008119 0.000000 0.010863 0.120914 0.000000 0.380930 -0.013118 0.000000 0.007264 0.156606 0.000000 0.359258 -0.019600 0.000000 -0.002531 0.203299 0.000000 
0.382582 -0.024806 0.000000 -0.010032 0.305099 0.000000 0.363586 -0.020005 0.000000 -0.016395 0.379787 0.000000 0.345175 -0.000059 0.000000 -0.016497 -0.359098 0.000000 0.368139 -0.009039 0.000000 -0.016473 -0.285006 0.000000 0.393639 -0.002585 0.000000 -0.014844 -0.226472 0.000000 0.417864 0.001141 0.000000 -0.012460 -0.180748 0.000000 0.439661 0.002725 0.000000 -0.009507 -0.145035 0.000000 0.459078 0.003342 0.000000 -0.006070 -0.116661 0.000000 0.476015 0.004340 0.000000 -0.003393 -0.093246 0.000000 0.488313 0.005573 0.000000 -0.001373 -0.075457 0.000000 0.498694 0.006787 0.000000 0.000419 -0.060832 0.000000 0.505504 0.007786 0.000000 0.002121 -0.049851 0.000000 0.511535 0.008491 0.000000 0.003791 -0.040224 0.000000 0.514836 0.008937 0.000000 0.005441 -0.032910 0.000000 0.518027 0.009109 0.000000 0.007091 -0.025866 0.000000 0.518942 0.009030 0.000000 0.008655 -0.020307 0.000000 0.520169 0.008715 0.000000 0.010141 -0.014339 0.000000 0.519400 0.008228 0.000000 0.011489 -0.009317 0.000000 0.519148 0.007577 0.000000 0.012738 -0.003397 0.000000 0.516991 0.006810 0.000000 0.013794 0.002059 0.000000 0.515376 0.005943 0.000000 0.014669 0.008903 0.000000 0.511804 0.005072 0.000000 0.015245 0.015810 0.000000 0.508553 0.004230 0.000000 0.015482 0.024662 0.000000 0.502920 0.003472 0.000000 0.015120 0.034205 0.000000 0.496811 0.002627 0.000000 0.013929 0.046200 0.000000 0.487340 0.001232 0.000000 0.011718 0.058936 0.000000 0.477041 -0.001391 0.000000 0.009974 0.073700 0.000000 0.465843 -0.004422 0.000000 0.008874 0.092137 0.000000 0.452822 -0.007702 0.000000 0.008188 0.116232 0.000000 0.437375 -0.011776 0.000000 0.007228 0.148264 0.000000 0.419718 -0.017027 0.000000 0.004683 0.190188 0.000000 0.400984 -0.022480 0.000000 -0.001085 0.242700 0.000000 
0.403550 -0.015323 0.000000 -0.013557 0.278683 0.000000 0.398433 -0.012999 0.000000 -0.020276 0.349219 0.000000 0.397899 0.000042 0.000000 -0.020390 -0.331082 0.000000 0.403023 -0.010003 0.000000 -0.020417 -0.261628 0.000000 0.413569 -0.006674 0.000000 -0.018204 -0.207894 0.000000 0.426602 -0.004763 0.000000 -0.014777 -0.166866 0.000000 0.440585 -0.004044 0.000000 -0.010552 -0.135562 0.000000 0.454961 -0.003627 0.000000 -0.005735 -0.110733 0.000000 0.469016 -0.001459 0.000000 -0.002183 -0.088056 0.000000 0.478835 0.000938 0.000000 0.000294 -0.072471 0.000000 0.488170 0.002931 0.000000 0.002298 -0.057770 0.000000 0.493828 0.004493 0.000000 0.004083 -0.048451 0.000000 0.499718 0.005610 0.000000 0.005807 -0.038268 0.000000 0.502409 0.006435 0.000000 0.007457 -0.032335 0.000000 0.505837 0.006921 0.000000 0.009095 -0.024484 0.000000 0.506383 0.007190 0.000000 0.010622 -0.020187 0.000000 0.508012 0.007176 0.000000 0.012089 -0.013312 0.000000 0.506974 0.007036 0.000000 0.013400 -0.009516 0.000000 0.507205 0.006685 0.000000 0.014627 -0.002664 0.000000 0.504859 0.006291 0.000000 0.015647 0.001559 0.000000 0.503811 0.005775 0.000000 0.016520 0.009304 0.000000 0.500152 0.005369 0.000000 0.017079 0.014978 0.000000 0.497591 0.005035 0.000000 0.017302 0.024766 0.000000 0.492049 0.005045 0.000000 0.016807 0.033279 0.000000 0.486812 0.005208 0.000000 0.015238 0.046512 0.000000 0.477496 0.004977 0.000000 0.012277 0.058052 0.000000 0.467924 0.002213 0.000000 0.010100 0.071261 0.000000 0.458085 -0.000984 0.000000 0.008671 0.088117 0.000000 0.447238 -0.004035 0.000000 0.007451 0.110040 0.000000 0.435237 -0.007159 0.000000 0.005545 0.138572 0.000000 0.422899 -0.010573 0.000000 0.001714 0.175340 0.000000 0.411823 -0.013833 0.000000 -0.004971 0.221701 0.000000 
0.439532 -0.016221 0.000000 -0.007766 0.310217 0.000000 0.434050 -0.013286 0.000000 -0.012003 0.380320 0.000000 0.433134 0.000055 0.000000 -0.012091 -0.364221 0.000000 0.437781 -0.009012 0.000000 -0.013080 -0.295553 0.000000 0.447375 -0.004798 0.000000 -0.012859 -0.239505 0.000000 0.458870 -0.002286 0.000000 -0.011675 -0.194732 0.000000 0.470942 -0.001500 0.000000 -0.009040 -0.159411 0.000000 0.483894 -0.001475 0.000000 -0.003870 -0.130715 0.000000 0.498660 0.000788 0.000000 -0.000942 -0.103065 0.000000 0.503883 0.003096 0.000000 0.000634 -0.084791 0.000000 0.513375 0.004782 0.000000 0.002019 -0.066491 0.000000 0.514816 0.006002 0.000000 0.003238 -0.055741 0.000000 0.521706 0.006767 0.000000 0.004645 -0.042915 0.000000 0.520767 0.007287 0.000000 0.005919 -0.036338 0.000000 0.525871 0.007471 0.000000 0.007384 -0.026412 0.000000 0.523238 0.007504 0.000000 0.008627 -0.021936 0.000000 0.527042 0.007248 0.000000 0.010021 -0.013301 0.000000 0.523196 0.006918 0.000000 0.011122 -0.009548 0.000000 0.526000 0.006350 0.000000 0.012361 -0.001051 0.000000 0.521215 0.005789 0.000000 0.013257 0.003107 0.000000 0.523124 0.005070 0.000000 0.014275 0.012562 0.000000 0.517479 0.004514 0.000000 0.014886 0.018372 0.000000 0.518348 0.004007 0.000000 0.015496 0.030204 0.000000 0.511437 0.003967 0.000000 0.015252 0.039442 0.000000 0.510053 0.004196 0.000000 0.013700 0.055516 0.000000 0.498875 0.004193 0.000000 0.008938 0.068508 0.000000 0.490256 0.000786 0.000000 0.006750 0.083539 0.000000 0.482714 -0.002992 0.000000 0.005787 0.102983 0.000000 0.474765 -0.006483 0.000000 0.005013 0.128233 0.000000 0.465926 -0.009870 0.000000 0.003742 0.160602 0.000000 0.456493 -0.013196 0.000000 0.001327 0.201265 0.000000 0.447329 -0.015794 0.000000 -0.002673 0.250973 0.000000 
0.462784 -0.010230 0.000000 -0.010703 0.284165 0.000000 0.468480 -0.008762 0.000000 -0.015066 0.350134 0.000000 0.480380 0.000130 0.000000 -0.015156 -0.335729 0.000000 0.471866 -0.009014 0.000000 -0.016122 -0.271221 0.000000 0.469609 -0.006895 0.000000 -0.015617 -0.219390 0.000000 0.471345 -0.005948 0.000000 -0.013930 -0.178938 0.000000 0.475884 -0.006678 0.000000 -0.010488 -0.148513 0.000000 0.483659 -0.008798 0.000000 -0.003440 -0.125500 0.000000 0.496614 -0.004387 0.000000 0.000190 -0.093278 0.000000 0.497111 -0.000638 0.000000 0.001990 -0.081963 0.000000 0.506438 0.001546 0.000000 0.003565 -0.059212 0.000000 0.504585 0.003274 0.000000 0.004843 -0.055342 0.000000 0.512523 0.004203 0.000000 0.006364 -0.037328 0.000000 0.508993 0.005162 0.000000 0.007628 -0.037439 0.000000 0.515751 0.005456 0.000000 0.009160 -0.021851 0.000000 0.510863 0.005947 0.000000 0.010345 -0.023992 0.000000 0.516641 0.005782 0.000000 0.011787 -0.009465 0.000000 0.510730 0.005935 0.000000 0.012808 -0.012320 0.000000 0.515701 0.005445 0.000000 0.014089 0.002120 0.000000 0.509018 0.005395 0.000000 0.014900 -0.000350 0.000000 0.513270 0.004757 0.000000 0.015981 0.014949 0.000000 0.505961 0.004759 0.000000 0.016539 0.014109 0.000000 0.509435 0.004424 0.000000 0.017271 0.031676 0.000000 0.501285 0.005289 0.000000 0.016995 0.034664 0.000000 0.502904 0.006760 0.000000 0.015238 0.057690 0.000000 0.490469 0.009739 0.000000 0.008858 0.066671 0.000000 0.482957 0.004400 0.000000 0.006292 0.078804 0.000000 0.477542 -0.000021 0.000000 0.005140 0.096066 0.000000 0.472504 -0.003261 0.000000 0.004010 0.118879 0.000000 0.467624 -0.005888 0.000000 0.002151 0.148005 0.000000 0.463579 -0.008158 0.000000 -0.000970 0.184504 0.000000 0.461540 -0.009832 0.000000 -0.005492 0.229498 0.000000 
0.494113 -0.011009 0.000000 -0.006377 0.304521 0.000000 0.499882 -0.008923 0.000000 -0.009279 0.368421 0.000000 0.511680 0.000145 0.000000 -0.009351 -0.355708 0.000000 0.502534 -0.008046 0.000000 -0.010883 -0.293295 0.000000 0.499265 -0.005303 0.000000 -0.011836 -0.241242 0.000000 0.499342 -0.003972 0.000000 -0.012338 -0.199270 0.000000 0.501377 -0.004943 0.000000 -0.011117 -0.167187 0.000000 0.506961 -0.008523 0.000000 0.000503 -0.143670 0.000000 0.530808 -0.002842 0.000000 0.002933 -0.103563 0.000000 0.515217 0.001296 0.000000 0.002747 -0.094117 0.000000 0.536074 0.003207 0.000000 0.003855 -0.064638 0.000000 0.518704 0.004724 0.000000 0.004079 -0.063679 0.000000 0.539681 0.005246 0.000000 0.005705 -0.039384 0.000000 0.520670 0.006023 0.000000 0.006113 -0.043096 0.000000 0.541430 0.005939 0.000000 0.007973 -0.021524 0.000000 0.521105 0.006318 0.000000 0.008357 -0.027713 0.000000 0.541547 0.005806 0.000000 0.010270 -0.007390 0.000000 0.520345 0.005896 0.000000 0.010524 -0.014520 0.000000 0.540427 0.005069 0.000000 0.012403 0.005632 0.000000 0.518743 0.004978 0.000000 0.012509 -0.001144 0.000000 0.538418 0.003989 0.000000 0.014365 0.019870 0.000000 0.516633 0.003956 0.000000 0.014437 0.014898 0.000000 0.535920 0.003274 0.000000 0.016438 0.038354 0.000000 0.514418 0.004244 0.000000 0.016599 0.037824 0.000000 0.533101 0.005952 0.000000 0.016743 0.067950 0.000000 0.507807 0.010573 0.000000 0.003581 0.076020 0.000000 0.502392 0.003352 0.000000 0.002293 0.088954 0.000000 0.499986 -0.001840 0.000000 0.002503 0.108021 0.000000 0.497584 -0.005353 0.000000 0.002331 0.133113 0.000000 0.495051 -0.008011 0.000000 0.001404 0.164648 0.000000 0.492973 -0.010076 0.000000 -0.000430 0.203304 0.000000 0.492276 -0.011272 0.000000 -0.003159 0.249728 0.000000 
0.517507 -0.007012 0.000000 -0.008708 0.278396 0.000000 0.532255 -0.005859 0.000000 -0.011686 0.338336 0.000000 0.553780 0.000201 0.000000 -0.011757 -0.326583 0.000000 0.534507 -0.007482 0.000000 -0.013289 -0.267952 0.000000 0.521710 -0.005942 0.000000 -0.014204 -0.219466 0.000000 0.513325 -0.005446 0.000000 -0.014833 -0.180973 0.000000 0.507972 -0.007900 0.000000 -0.014054 -0.154098 0.000000 0.507303 -0.020417 0.000000 -0.001147 -0.149347 0.000000 0.529966 -0.006817 0.000000 0.000911 -0.077686 0.000000 0.506653 -0.000452 0.000000 0.000391 -0.102821 0.000000 0.529021 0.000438 0.000000 0.001588 -0.041842 0.000000 0.505615 0.003050 0.000000 0.001749 -0.076319 0.000000 0.529705 0.002577 0.000000 0.003549 -0.018317 0.000000 0.505327 0.004754 0.000000 0.003861 -0.058199 0.000000 0.530063 0.003596 0.000000 0.005885 -0.001526 0.000000 0.504698 0.005564 0.000000 0.006125 -0.044433 0.000000 0.529634 0.003869 0.000000 0.008200 0.011737 0.000000 0.503602 0.005680 0.000000 0.008284 -0.032402 0.000000 0.528526 0.003567 0.000000 0.010335 0.023804 0.000000 0.502223 0.005289 0.000000 0.010266 -0.020025 0.000000 0.527036 0.002901 0.000000 0.012334 0.036734 0.000000 0.500949 0.004687 0.000000 0.012297 -0.005177 0.000000 0.525793 0.002423 0.000000 0.014710 0.053178 0.000000 0.500696 0.005129 0.000000 0.015212 0.015981 0.000000 0.526077 0.006616 0.000000 0.016381 0.082983 0.000000 0.498426 0.022901 0.000000 0.001628 0.072085 0.000000 0.495898 0.005688 0.000000 0.001061 0.081210 0.000000 0.496620 -0.000230 0.000000 0.001580 0.098468 0.000000 0.497603 -0.003089 0.000000 0.001297 0.121412 0.000000 0.499160 -0.004961 0.000000 0.000018 0.150083 0.000000 0.502224 -0.006324 0.000000 -0.002245 0.185201 0.000000 0.507932 -0.007103 0.000000 -0.005318 0.227661 0.000000 