# vtk DataFile Version 2.0
Comment goes here
ASCII

DATASET STRUCTURED_POINTS
FIELD FieldData 1
TIME 1 1 double
0.03400000
DIMENSIONS    64   64   1

ORIGIN    0.000   0.000   0.000
SPACING   0.03125 0.03125   1.000

POINT_DATA   4096
VECTORS u double

0.582059 -0.000608 0.000000 -1.043313 0.000377 0.000000 0.443596 0.000510 0.000000 -1.037126 -0.000130 0.000000 0.349866 -0.000520 0.000000 -1.011999 -0.000840 0.000000 0.396072 0.000878 0.000000 -0.940274 -0.000600 0.000000 0.379559 0.000372 0.000000 -0.851582 -0.000656 0.000000 0.333609 0.000111 0.000000 -0.756822 -0.000762 0.000000 0.272076 0.000024 0.000000 -0.660354 -0.000784 0.000000 0.201027 -0.000045 0.000000 -0.555942 -0.000557 0.000000 0.104466 -0.000064 0.000000 -0.412997 -0.000539 0.000000 -0.043470 -0.000172 0.000000 -0.219591 -0.000052 0.000000 -0.233147 0.000227 0.000000 -0.000212 -0.000068 0.000000 -0.443352 0.000369 0.000000 0.231860 -0.000167 0.000000 -0.653091 0.000945 0.000000 0.434024 -0.000068 0.000000 -0.803068 0.000479 0.000000 0.536621 0.000390 0.000000 -0.825403 0.000038 0.000000 0.495730 0.001004 0.000000 -0.714997 -0.000173 0.000000 0.350201 0.001194 0.000000 -0.539662 -0.000431 0.000000 0.175152 0.001103 0.000000 -0.372365 0.000041 0.000000 0.038636 0.000900 0.000000 -0.271792 0.000324 0.000000 -0.017069 0.000536 0.000000 -0.261502 0.000732 0.000000 0.013772 0.000437 0.000000 -0.332165 0.000988 0.000000 0.110628 0.000510 0.000000 -0.450303 0.000875 0.000000 0.235883 0.000739 0.000000 -0.582909 0.001024 0.000000 0.358929 0.000790 0.000000 -0.698772 0.001130 0.000000 0.445982 0.000628 0.000000 -0.757473 0.001239 0.000000 0.455528 0.000841 0.000000 -0.729921 0.001010 0.000000 0.368296 0.000888 0.000000 -0.606612 0.000838 0.000000 0.187261 0.000647 0.000000 -0.396137 0.000797 0.000000 -0.069147 0.000247 0.000000 -0.140688 0.000855 0.000000 -0.346031 -0.000118 0.000000 0.102960 0.000734 0.000000 -0.599044 -0.000268 0.000000 0.305431 0.000669 0.000000 -0.819065 -0.000459 0.000000 0.470545 0.000429 0.000000 -1.012575 -0.000450 0.000000 
-0.380693 0.014085 0.000000 0.222014 0.068817 0.000000 -0.167527 -0.002789 0.000000 0.213413 0.045996 0.000000 -0.045634 -0.011028 0.000000 0.206598 -0.023684 0.000000 -0.162009 -0.035497 0.000000 0.172700 0.007465 0.000000 -0.219833 -0.043682 0.000000 0.135470 0.022253 0.000000 -0.248532 -0.046711 0.000000 0.097996 0.030263 0.000000 -0.261513 -0.047750 0.000000 0.062481 0.035294 0.000000 -0.266114 -0.051964 0.000000 0.025252 0.048122 0.000000 -0.255055 -0.071403 0.000000 -0.033386 0.073809 0.000000 -0.212333 -0.096512 0.000000 -0.121599 0.094300 0.000000 -0.143076 -0.109545 0.000000 -0.224353 0.104445 0.000000 -0.059806 -0.115988 0.000000 -0.337989 0.104083 0.000000 0.032082 -0.100839 0.000000 -0.442225 0.074358 0.000000 0.100043 -0.051838 0.000000 -0.496824 0.011163 0.000000 0.103106 0.019372 0.000000 -0.474617 -0.055122 0.000000 0.040795 0.071808 0.000000 -0.400486 -0.087653 0.000000 -0.050479 0.086514 0.000000 -0.313106 -0.083771 0.000000 -0.134715 0.067458 0.000000 -0.246137 -0.050493 0.000000 -0.181962 0.026999 0.000000 -0.220588 -0.005151 0.000000 -0.183495 -0.016436 0.000000 -0.237604 0.035066 0.000000 -0.143181 -0.048960 0.000000 -0.287043 0.058506 0.000000 -0.079987 -0.063277 0.000000 -0.347216 0.065548 0.000000 -0.010397 -0.061857 0.000000 -0.406043 0.057097 0.000000 0.052876 -0.044092 0.000000 -0.447451 0.028559 0.000000 0.089266 -0.005142 0.000000 -0.450098 -0.014577 0.000000 0.084136 0.043045 0.000000 -0.404549 -0.062189 0.000000 0.033556 0.089975 0.000000 -0.311744 -0.105675 0.000000 -0.060050 0.127960 0.000000 -0.178164 -0.128266 0.000000 -0.174715 0.138566 0.000000 -0.034905 -0.122441 0.000000 -0.276288 0.126827 0.000000 0.094190 -0.101768 0.000000 -0.347805 0.110259 0.000000 0.203814 -0.082857 0.000000 -0.390408 0.097051 0.000000 0.296313 -0.055728 0.000000 
0.684514 0.073691 0.000000 0.451736 -0.212789 0.000000 0.634753 0.009111 0.000000 0.433458 -0.122022 0.000000 0.446426 0.006295 0.000000 0.419599 0.115534 0.000000 0.693071 0.034776 0.000000 0.385714 0.057224 0.000000 0.891140 0.037603 0.000000 0.332533 0.028043 0.000000 1.052649 0.037585 0.000000 0.276587 0.012218 0.000000 1.186894 0.035539 0.000000 0.225670 0.003818 0.000000 1.300958 0.037184 0.000000 0.177030 -0.011616 0.000000 1.413210 0.058574 0.000000 0.107616 -0.043261 0.000000 1.549373 0.088041 0.000000 0.006275 -0.069309 0.000000 1.705624 0.102982 0.000000 -0.110684 -0.083338 0.000000 1.869321 0.114005 0.000000 -0.240313 -0.092054 0.000000 2.032719 0.105180 0.000000 -0.358122 -0.068029 0.000000 2.154499 0.055078 0.000000 -0.414491 -0.002673 0.000000 2.183957 -0.022169 0.000000 -0.375351 0.063314 0.000000 2.117854 -0.074305 0.000000 -0.270429 0.092468 0.000000 2.005959 -0.087811 0.000000 -0.151254 0.085339 0.000000 1.897770 -0.066928 0.000000 -0.062377 0.048148 0.000000 1.833057 -0.025225 0.000000 -0.030465 0.002069 0.000000 1.825851 0.017747 0.000000 -0.057146 -0.039877 0.000000 1.868709 0.050428 0.000000 -0.127332 -0.062684 0.000000 1.937290 0.061048 0.000000 -0.214859 -0.068852 0.000000 2.010283 0.059851 0.000000 -0.301918 -0.062483 0.000000 2.069940 0.042538 0.000000 -0.368051 -0.035762 0.000000 2.089308 0.003886 0.000000 -0.384076 0.005971 0.000000 2.047878 -0.044539 0.000000 -0.337629 0.051468 0.000000 1.938535 -0.091968 0.000000 -0.229823 0.094253 0.000000 1.762513 -0.132784 0.000000 -0.070850 0.114912 0.000000 1.544673 -0.142404 0.000000 0.099284 0.101455 0.000000 1.322170 -0.128362 0.000000 0.249202 0.071249 0.000000 1.110009 -0.108954 0.000000 0.376216 0.042144 0.000000 0.894613 -0.092071 0.000000 0.491155 -0.010165 0.000000 
1.908190 0.053504 0.000000 -0.038758 0.118577 0.000000 1.320743 0.015489 0.000000 -0.077203 0.234324 0.000000 0.598834 0.002831 0.000000 -0.072682 -0.270329 0.000000 1.396899 -0.001613 0.000000 -0.051202 -0.190604 0.000000 1.876077 0.009499 0.000000 -0.029389 -0.139256 0.000000 2.203655 0.009235 0.000000 -0.009089 -0.103982 0.000000 2.445861 0.003167 0.000000 0.007177 -0.078770 0.000000 2.635935 -0.003324 0.000000 0.019270 -0.064131 0.000000 2.784589 -0.001988 0.000000 0.039162 -0.062353 0.000000 2.888550 0.004829 0.000000 0.072033 -0.061951 0.000000 2.957061 0.007414 0.000000 0.108931 -0.059253 0.000000 2.999790 0.013641 0.000000 0.153500 -0.059315 0.000000 3.017093 0.016970 0.000000 0.199490 -0.047423 0.000000 3.027930 0.004531 0.000000 0.224030 -0.018295 0.000000 3.059663 -0.019768 0.000000 0.210047 0.010981 0.000000 3.114396 -0.033114 0.000000 0.173417 0.024243 0.000000 3.172683 -0.032661 0.000000 0.133655 0.024418 0.000000 3.218710 -0.021419 0.000000 0.105930 0.014220 0.000000 3.239348 -0.004913 0.000000 0.098202 0.002055 0.000000 3.232852 0.010246 0.000000 0.108689 -0.007792 0.000000 3.201780 0.021225 0.000000 0.131923 -0.010075 0.000000 3.155868 0.024250 0.000000 0.156272 -0.007445 0.000000 3.100393 0.025202 0.000000 0.179439 -0.002560 0.000000 3.036126 0.022041 0.000000 0.196223 0.009192 0.000000 2.970356 0.010884 0.000000 0.196752 0.026853 0.000000 2.907762 -0.003403 0.000000 0.178223 0.047154 0.000000 2.847774 -0.017831 0.000000 0.142388 0.070347 0.000000 2.788912 -0.031013 0.000000 0.090192 0.089574 0.000000 2.717141 -0.031568 0.000000 0.038118 0.100062 0.000000 2.608279 -0.023091 0.000000 -0.004877 0.110393 0.000000 2.447045 -0.016755 0.000000 -0.043991 0.132538 0.000000 2.225396 -0.017888 0.000000 -0.092188 0.154371 0.000000 
1.950318 0.020262 0.000000 0.006917 0.374657 0.000000 1.489256 0.047555 0.000000 -0.023163 0.599887 0.000000 0.888977 0.001774 0.000000 -0.022604 -0.682530 0.000000 1.531009 0.013296 0.000000 -0.014316 -0.421954 0.000000 1.954917 0.015790 0.000000 0.005869 -0.299535 0.000000 2.258548 0.017285 0.000000 0.027261 -0.229988 0.000000 2.488626 0.019273 0.000000 0.046003 -0.186256 0.000000 2.669928 0.025091 0.000000 0.060695 -0.160270 0.000000 2.813821 0.038683 0.000000 0.074941 -0.147222 0.000000 2.922036 0.055170 0.000000 0.091282 -0.137820 0.000000 3.001992 0.066083 0.000000 0.105617 -0.126067 0.000000 3.060637 0.069437 0.000000 0.121931 -0.109357 0.000000 3.098612 0.059190 0.000000 0.140304 -0.078867 0.000000 3.125383 0.030538 0.000000 0.151693 -0.034406 0.000000 3.154520 -0.008185 0.000000 0.148317 0.008582 0.000000 3.187815 -0.037675 0.000000 0.137604 0.034181 0.000000 3.217353 -0.048048 0.000000 0.126599 0.039312 0.000000 3.238035 -0.039204 0.000000 0.120229 0.027510 0.000000 3.245850 -0.017496 0.000000 0.120272 0.008564 0.000000 3.240699 0.007260 0.000000 0.125306 -0.008804 0.000000 3.223675 0.027193 0.000000 0.132993 -0.016773 0.000000 3.197958 0.036700 0.000000 0.138828 -0.013376 0.000000 3.164095 0.036683 0.000000 0.142893 0.001783 0.000000 3.119740 0.025754 0.000000 0.144034 0.030008 0.000000 3.066203 0.003357 0.000000 0.138082 0.068565 0.000000 3.003805 -0.026010 0.000000 0.125039 0.111455 0.000000 2.931408 -0.056132 0.000000 0.106195 0.153115 0.000000 2.848873 -0.080588 0.000000 0.081636 0.186683 0.000000 2.749751 -0.090330 0.000000 0.058584 0.210317 0.000000 2.621210 -0.085366 0.000000 0.040892 0.232483 0.000000 2.452514 -0.069841 0.000000 0.023979 0.263792 0.000000 2.236769 -0.043874 0.000000 -0.002417 0.307041 0.000000 
2.003858 0.044171 0.000000 -0.056676 0.579640 0.000000 1.612856 0.045568 0.000000 -0.064026 0.834602 0.000000 1.152046 0.002272 0.000000 -0.065662 -0.912361 0.000000 1.620621 -0.009900 0.000000 -0.045101 -0.614512 0.000000 2.003082 -0.010686 0.000000 -0.025053 -0.442887 0.000000 2.292861 -0.012157 0.000000 -0.005217 -0.334060 0.000000 2.515003 -0.015574 0.000000 0.014305 -0.260072 0.000000 2.688648 -0.018016 0.000000 0.034123 -0.208024 0.000000 2.823204 -0.016234 0.000000 0.057441 -0.170568 0.000000 2.921475 -0.011512 0.000000 0.085900 -0.141907 0.000000 2.990272 -0.006921 0.000000 0.116687 -0.117897 0.000000 3.036288 -0.002673 0.000000 0.148524 -0.097290 0.000000 3.065993 -0.001402 0.000000 0.176336 -0.074193 0.000000 3.089745 -0.006858 0.000000 0.191282 -0.047433 0.000000 3.119356 -0.016393 0.000000 0.187555 -0.022313 0.000000 3.156322 -0.022401 0.000000 0.170677 -0.005295 0.000000 3.193736 -0.021655 0.000000 0.149903 0.003735 0.000000 3.222797 -0.015050 0.000000 0.134153 0.006405 0.000000 3.237012 -0.004955 0.000000 0.128328 0.007205 0.000000 3.233630 0.005212 0.000000 0.132934 0.009233 0.000000 3.213715 0.013538 0.000000 0.144708 0.015642 0.000000 3.180424 0.018415 0.000000 0.158499 0.026418 0.000000 3.136948 0.021137 0.000000 0.170452 0.041795 0.000000 3.084944 0.020899 0.000000 0.176480 0.062729 0.000000 3.027736 0.016836 0.000000 0.171586 0.089251 0.000000 2.967041 0.009640 0.000000 0.154336 0.119551 0.000000 2.902975 0.001014 0.000000 0.125875 0.152882 0.000000 2.833091 -0.006454 0.000000 0.088750 0.188697 0.000000 2.748775 -0.008517 0.000000 0.049494 0.228604 0.000000 2.636820 -0.005399 0.000000 0.012845 0.279089 0.000000 2.485043 0.000157 0.000000 -0.020367 0.348283 0.000000 2.281409 0.008508 0.000000 -0.050516 0.440822 0.000000 
2.105408 0.026422 0.000000 0.007701 0.765659 0.000000 1.791964 0.054905 0.000000 -0.008310 1.060696 0.000000 1.419013 0.003410 0.000000 -0.010162 -1.151105 0.000000 1.783273 -0.007265 0.000000 -0.001769 -0.804416 0.000000 2.100313 -0.004258 0.000000 0.011331 -0.589314 0.000000 2.353455 -0.002551 0.000000 0.027904 -0.452130 0.000000 2.555009 -0.000249 0.000000 0.045980 -0.359901 0.000000 2.717681 0.005273 0.000000 0.064032 -0.294826 0.000000 2.848724 0.015365 0.000000 0.081056 -0.245493 0.000000 2.949313 0.026711 0.000000 0.097127 -0.206617 0.000000 3.025265 0.035296 0.000000 0.111140 -0.172083 0.000000 3.081019 0.037600 0.000000 0.124272 -0.139062 0.000000 3.121587 0.031378 0.000000 0.135768 -0.102618 0.000000 3.152086 0.015592 0.000000 0.142823 -0.064017 0.000000 3.179551 -0.004458 0.000000 0.142912 -0.028384 0.000000 3.204934 -0.020797 0.000000 0.138794 -0.003234 0.000000 3.226649 -0.027275 0.000000 0.133667 0.010251 0.000000 3.241192 -0.023454 0.000000 0.130641 0.013295 0.000000 3.247180 -0.011670 0.000000 0.130615 0.011946 0.000000 3.243257 0.002653 0.000000 0.133495 0.011110 0.000000 3.230467 0.015419 0.000000 0.137534 0.016518 0.000000 3.209007 0.022909 0.000000 0.140889 0.030100 0.000000 3.179613 0.024731 0.000000 0.141905 0.053787 0.000000 3.140736 0.019727 0.000000 0.139110 0.087216 0.000000 3.092666 0.008251 0.000000 0.130067 0.129261 0.000000 3.034163 -0.008761 0.000000 0.115350 0.175521 0.000000 2.965347 -0.027671 0.000000 0.097205 0.222999 0.000000 2.886229 -0.043463 0.000000 0.077534 0.270999 0.000000 2.792689 -0.051074 0.000000 0.059165 0.322272 0.000000 2.677000 -0.048717 0.000000 0.043290 0.384261 0.000000 2.530937 -0.036629 0.000000 0.028153 0.467426 0.000000 2.345697 -0.013725 0.000000 0.010797 0.584592 0.000000 
2.207427 0.047267 0.000000 -0.033502 0.893084 0.000000 1.950970 0.061579 0.000000 -0.040637 1.207553 0.000000 1.662272 0.004124 0.000000 -0.042460 -1.276622 0.000000 1.928978 -0.018293 0.000000 -0.031023 -0.931552 0.000000 2.191270 -0.023786 0.000000 -0.016028 -0.696029 0.000000 2.414773 -0.028730 0.000000 0.001838 -0.535615 0.000000 2.598181 -0.033650 0.000000 0.022674 -0.422744 0.000000 2.747895 -0.036068 0.000000 0.045985 -0.339067 0.000000 2.868204 -0.033258 0.000000 0.070416 -0.271156 0.000000 2.957411 -0.027583 0.000000 0.095917 -0.217859 0.000000 3.022795 -0.020934 0.000000 0.120515 -0.173652 0.000000 3.068273 -0.015805 0.000000 0.143621 -0.137858 0.000000 3.101894 -0.012898 0.000000 0.161866 -0.104692 0.000000 3.128310 -0.013913 0.000000 0.172316 -0.074898 0.000000 3.155148 -0.016481 0.000000 0.172353 -0.047697 0.000000 3.181993 -0.018283 0.000000 0.165134 -0.027010 0.000000 3.207837 -0.016529 0.000000 0.154647 -0.010807 0.000000 3.226619 -0.012024 0.000000 0.146491 0.000416 0.000000 3.236275 -0.004929 0.000000 0.142950 0.011128 0.000000 3.233282 0.002332 0.000000 0.145414 0.022023 0.000000 3.219232 0.009499 0.000000 0.151518 0.037102 0.000000 3.193871 0.015060 0.000000 0.159030 0.055813 0.000000 3.160139 0.020121 0.000000 0.163914 0.080672 0.000000 3.117698 0.023694 0.000000 0.163218 0.110799 0.000000 3.068906 0.025879 0.000000 0.152922 0.147753 0.000000 3.012759 0.024357 0.000000 0.133637 0.188367 0.000000 2.950871 0.019159 0.000000 0.107950 0.232000 0.000000 2.883020 0.013217 0.000000 0.078610 0.282236 0.000000 2.804051 0.009852 0.000000 0.048787 0.344293 0.000000 2.705580 0.010476 0.000000 0.020801 0.425152 0.000000 2.578961 0.015295 0.000000 -0.004312 0.533523 0.000000 2.415978 0.025864 0.000000 -0.025126 0.681110 0.000000 
2.334778 0.034798 0.000000 0.012783 1.022116 0.000000 2.131353 0.062039 0.000000 0.004122 1.349394 0.000000 1.907187 0.005233 0.000000 0.002304 -1.417811 0.000000 2.107158 -0.018701 0.000000 0.007402 -1.066707 0.000000 2.313867 -0.019253 0.000000 0.016125 -0.812816 0.000000 2.499620 -0.020417 0.000000 0.029426 -0.635538 0.000000 2.659498 -0.021084 0.000000 0.047699 -0.509615 0.000000 2.796602 -0.018039 0.000000 0.069634 -0.415135 0.000000 2.913169 -0.009065 0.000000 0.089816 -0.334700 0.000000 3.000531 0.001210 0.000000 0.106203 -0.272002 0.000000 3.067893 0.010697 0.000000 0.118640 -0.217560 0.000000 3.116013 0.014495 0.000000 0.128711 -0.172683 0.000000 3.154051 0.013133 0.000000 0.136278 -0.129035 0.000000 3.181579 0.005142 0.000000 0.141061 -0.090855 0.000000 3.206389 -0.004495 0.000000 0.142060 -0.055228 0.000000 3.225603 -0.013579 0.000000 0.140897 -0.029078 0.000000 3.242803 -0.016788 0.000000 0.138732 -0.008532 0.000000 3.252677 -0.015298 0.000000 0.137700 0.003639 0.000000 3.258071 -0.008129 0.000000 0.137976 0.014940 0.000000 3.254539 0.000189 0.000000 0.140076 0.025160 0.000000 3.245786 0.009316 0.000000 0.142573 0.041880 0.000000 3.228121 0.015397 0.000000 0.144735 0.063832 0.000000 3.204739 0.019846 0.000000 0.144418 0.096228 0.000000 3.171153 0.020423 0.000000 0.139859 0.136008 0.000000 3.129414 0.018547 0.000000 0.127738 0.185408 0.000000 3.074466 0.010524 0.000000 0.108898 0.237409 0.000000 3.009425 -0.001984 0.000000 0.088899 0.290850 0.000000 2.938139 -0.014123 0.000000 0.070666 0.349968 0.000000 2.858094 -0.021251 0.000000 0.055130 0.420744 0.000000 2.763577 -0.020731 0.000000 0.041930 0.510879 0.000000 2.648593 -0.011516 0.000000 0.029915 0.630409 0.000000 2.507523 0.007089 0.000000 0.018722 0.793144 0.000000 
2.453794 0.053206 0.000000 -0.016753 1.096509 0.000000 2.296403 0.070240 0.000000 -0.021866 1.431719 0.000000 2.130774 0.005941 0.000000 -0.023554 -1.476592 0.000000 2.268155 -0.023391 0.000000 -0.018157 -1.138261 0.000000 2.426715 -0.032508 0.000000 -0.008020 -0.881781 0.000000 2.579258 -0.042031 0.000000 0.007461 -0.695493 0.000000 2.716277 -0.051923 0.000000 0.029733 -0.559848 0.000000 2.837615 -0.058004 0.000000 0.057764 -0.455634 0.000000 2.944003 -0.053440 0.000000 0.084391 -0.358518 0.000000 3.017295 -0.043970 0.000000 0.107949 -0.285222 0.000000 3.074733 -0.033371 0.000000 0.127042 -0.221772 0.000000 3.112041 -0.025876 0.000000 0.143827 -0.175896 0.000000 3.144514 -0.020465 0.000000 0.155833 -0.132219 0.000000 3.166410 -0.018696 0.000000 0.163657 -0.099708 0.000000 3.190559 -0.017480 0.000000 0.164761 -0.066910 0.000000 3.208604 -0.017119 0.000000 0.162499 -0.044210 0.000000 3.228591 -0.014365 0.000000 0.157189 -0.020682 0.000000 3.239457 -0.010992 0.000000 0.153698 -0.004978 0.000000 3.247861 -0.005205 0.000000 0.151614 0.014660 0.000000 3.244060 0.000233 0.000000 0.153726 0.030777 0.000000 3.236082 0.007002 0.000000 0.156948 0.054766 0.000000 3.216176 0.012898 0.000000 0.161669 0.079195 0.000000 3.192544 0.020437 0.000000 0.162973 0.114258 0.000000 3.157553 0.028253 0.000000 0.159170 0.152538 0.000000 3.117646 0.038000 0.000000 0.143781 0.202701 0.000000 3.064005 0.043196 0.000000 0.119614 0.253408 0.000000 3.004584 0.039158 0.000000 0.093217 0.303287 0.000000 2.944021 0.031450 0.000000 0.067825 0.362281 0.000000 2.878710 0.025389 0.000000 0.044514 0.438809 0.000000 2.802096 0.023676 0.000000 0.023630 0.540136 0.000000 2.708193 0.027309 0.000000 0.005520 0.674593 0.000000 2.592720 0.037057 0.000000 -0.008683 0.853855 0.000000 
2.588512 0.042868 0.000000 0.018413 1.179507 0.000000 2.471426 0.067153 0.000000 0.013964 1.515023 0.000000 2.354390 0.006920 0.000000 0.012401 -1.555192 0.000000 2.444476 -0.024098 0.000000 0.013367 -1.225267 0.000000 2.558629 -0.029391 0.000000 0.017502 -0.965360 0.000000 2.676344 -0.035898 0.000000 0.027069 -0.772556 0.000000 2.789458 -0.043355 0.000000 0.046110 -0.630953 0.000000 2.898540 -0.046071 0.000000 0.076646 -0.521523 0.000000 3.006454 -0.035692 0.000000 0.105198 -0.407992 0.000000 3.071856 -0.022348 0.000000 0.119798 -0.329440 0.000000 3.129004 -0.008396 0.000000 0.130414 -0.254868 0.000000 3.161137 -0.002290 0.000000 0.135264 -0.205156 0.000000 3.196560 0.001127 0.000000 0.140963 -0.150931 0.000000 3.213957 -0.002683 0.000000 0.142378 -0.115004 0.000000 3.238566 -0.005599 0.000000 0.144557 -0.073273 0.000000 3.248460 -0.011317 0.000000 0.143101 -0.049065 0.000000 3.266049 -0.011478 0.000000 0.143680 -0.019397 0.000000 3.268739 -0.011807 0.000000 0.142384 -0.004766 0.000000 3.277683 -0.006045 0.000000 0.144382 0.018742 0.000000 3.271169 -0.001923 0.000000 0.145059 0.033137 0.000000 3.270003 0.006093 0.000000 0.148615 0.061786 0.000000 3.253310 0.010676 0.000000 0.149604 0.087463 0.000000 3.240504 0.018542 0.000000 0.151446 0.131219 0.000000 3.210465 0.024227 0.000000 0.146552 0.175915 0.000000 3.179461 0.033936 0.000000 0.133548 0.239049 0.000000 3.123613 0.034691 0.000000 0.104247 0.296830 0.000000 3.059028 0.024413 0.000000 0.078276 0.351413 0.000000 2.998545 0.011269 0.000000 0.060002 0.415279 0.000000 2.937706 0.002059 0.000000 0.047391 0.497358 0.000000 2.869868 0.000154 0.000000 0.037898 0.604782 0.000000 2.790345 0.006595 0.000000 0.029913 0.745881 0.000000 2.696591 0.021292 0.000000 0.023125 0.932070 0.000000 
2.710659 0.057918 0.000000 -0.003900 1.213596 0.000000 2.631229 0.074689 0.000000 -0.007049 1.548755 0.000000 2.558433 0.007504 0.000000 -0.008412 -1.566678 0.000000 2.603888 -0.024357 0.000000 -0.008323 -1.252414 0.000000 2.678493 -0.036643 0.000000 -0.004109 -0.999496 0.000000 2.764777 -0.051599 0.000000 0.006794 -0.808607 0.000000 2.854040 -0.070963 0.000000 0.030329 -0.668930 0.000000 2.946691 -0.088540 0.000000 0.069826 -0.563549 0.000000 3.051500 -0.081992 0.000000 0.105914 -0.423920 0.000000 3.094076 -0.058570 0.000000 0.124198 -0.342369 0.000000 3.145507 -0.043988 0.000000 0.138502 -0.253904 0.000000 3.161447 -0.030726 0.000000 0.147446 -0.211320 0.000000 3.196751 -0.026164 0.000000 0.156065 -0.149616 0.000000 3.202866 -0.020111 0.000000 0.160074 -0.124317 0.000000 3.231290 -0.019660 0.000000 0.162377 -0.076805 0.000000 3.233701 -0.015663 0.000000 0.161097 -0.061799 0.000000 3.257784 -0.014943 0.000000 0.159578 -0.023372 0.000000 3.255056 -0.009696 0.000000 0.157594 -0.013921 0.000000 3.271130 -0.007203 0.000000 0.157641 0.021173 0.000000 3.259342 -0.000444 0.000000 0.158995 0.031944 0.000000 3.264683 0.003446 0.000000 0.162282 0.071458 0.000000 3.242787 0.011909 0.000000 0.165639 0.092001 0.000000 3.236858 0.018595 0.000000 0.168079 0.144297 0.000000 3.203458 0.033147 0.000000 0.164509 0.183542 0.000000 3.180397 0.051005 0.000000 0.145660 0.258549 0.000000 3.119294 0.072497 0.000000 0.108888 0.317993 0.000000 3.058350 0.065130 0.000000 0.077068 0.363770 0.000000 3.009286 0.049723 0.000000 0.053937 0.423120 0.000000 2.964119 0.038000 0.000000 0.036595 0.506648 0.000000 2.914686 0.033169 0.000000 0.022525 0.619659 0.000000 2.856408 0.035294 0.000000 0.010830 0.768348 0.000000 2.787841 0.043846 0.000000 0.001830 0.961934 0.000000 
2.843970 0.048597 0.000000 0.023613 1.258938 0.000000 2.796588 0.070302 0.000000 0.021945 1.587819 0.000000 2.761276 0.008284 0.000000 0.020769 -1.600647 0.000000 2.770503 -0.024187 0.000000 0.017029 -1.299872 0.000000 2.808860 -0.033605 0.000000 0.014354 -1.051643 0.000000 2.863070 -0.046802 0.000000 0.015565 -0.861820 0.000000 2.927627 -0.066890 0.000000 0.030935 -0.723603 0.000000 3.009216 -0.085568 0.000000 0.079525 -0.626332 0.000000 3.140522 -0.071780 0.000000 0.144806 -0.450568 0.000000 3.151832 -0.040633 0.000000 0.133066 -0.380872 0.000000 3.213715 -0.022700 0.000000 0.154788 -0.270808 0.000000 3.203515 -0.011234 0.000000 0.135053 -0.240459 0.000000 3.256687 -0.007492 0.000000 0.156467 -0.157047 0.000000 3.239334 -0.006691 0.000000 0.136791 -0.143427 0.000000 3.285469 -0.007902 0.000000 0.157154 -0.075684 0.000000 3.263504 -0.010036 0.000000 0.136976 -0.073148 0.000000 3.304456 -0.009959 0.000000 0.156877 -0.016669 0.000000 3.278145 -0.009823 0.000000 0.137367 -0.020840 0.000000 3.313219 -0.006092 0.000000 0.158373 0.030530 0.000000 3.281850 -0.003276 0.000000 0.140664 0.027796 0.000000 3.310500 0.002806 0.000000 0.163235 0.083682 0.000000 3.273969 0.007320 0.000000 0.146763 0.093393 0.000000 3.295085 0.016101 0.000000 0.170075 0.164619 0.000000 3.251325 0.027797 0.000000 0.152972 0.198976 0.000000 3.256782 0.052785 0.000000 0.163283 0.300152 0.000000 3.176410 0.071463 0.000000 0.097713 0.357774 0.000000 3.102881 0.056233 0.000000 0.058792 0.400476 0.000000 3.059089 0.034401 0.000000 0.042399 0.460447 0.000000 3.023959 0.019402 0.000000 0.035516 0.546790 0.000000 2.986607 0.014223 0.000000 0.031629 0.663060 0.000000 2.943616 0.018290 0.000000 0.028474 0.814449 0.000000 2.895131 0.030292 0.000000 0.025721 1.009251 0.000000 
2.962422 0.060026 0.000000 0.006274 1.260977 0.000000 2.946160 0.076357 0.000000 0.005192 1.584067 0.000000 2.945880 0.008681 0.000000 0.004253 -1.575906 0.000000 2.920664 -0.020617 0.000000 -0.000848 -1.290771 0.000000 2.926251 -0.033968 0.000000 -0.005232 -1.053707 0.000000 2.952026 -0.052810 0.000000 -0.006219 -0.873164 0.000000 2.993260 -0.086333 0.000000 0.010111 -0.750519 0.000000 3.057535 -0.137130 0.000000 0.073973 -0.694854 0.000000 3.213641 -0.147273 0.000000 0.162815 -0.435229 0.000000 3.165959 -0.046830 0.000000 0.133301 -0.404252 0.000000 3.247501 -0.065710 0.000000 0.166578 -0.243705 0.000000 3.195081 -0.010990 0.000000 0.139392 -0.264491 0.000000 3.275712 -0.047579 0.000000 0.171963 -0.132264 0.000000 3.219284 -0.000435 0.000000 0.146379 -0.170452 0.000000 3.296551 -0.040023 0.000000 0.174365 -0.054840 0.000000 3.238370 0.004515 0.000000 0.148214 -0.102751 0.000000 3.313066 -0.034844 0.000000 0.172968 0.002940 0.000000 3.252317 0.009813 0.000000 0.147879 -0.048996 0.000000 3.322246 -0.028209 0.000000 0.172669 0.052542 0.000000 3.257332 0.017265 0.000000 0.150954 0.003294 0.000000 3.321302 -0.019126 0.000000 0.177449 0.107989 0.000000 3.252752 0.028381 0.000000 0.159106 0.070885 0.000000 3.311021 -0.004716 0.000000 0.187378 0.188057 0.000000 3.239692 0.050250 0.000000 0.172039 0.178085 0.000000 3.285767 0.040694 0.000000 0.175388 0.338921 0.000000 3.166885 0.138067 0.000000 0.095083 0.391522 0.000000 3.098029 0.104051 0.000000 0.050839 0.407561 0.000000 3.070666 0.066116 0.000000 0.032830 0.458251 0.000000 3.053572 0.044883 0.000000 0.024371 0.544000 0.000000 3.034811 0.037056 0.000000 0.018380 0.662649 0.000000 3.012045 0.038449 0.000000 0.013162 0.816833 0.000000 2.986642 0.046599 0.000000 0.008970 1.013095 0.000000 
3.089550 0.051293 0.000000 0.028666 1.275199 0.000000 3.099116 0.071384 0.000000 0.029587 1.588099 0.000000 3.128351 0.009223 0.000000 0.028876 -1.575430 0.000000 3.074316 -0.019087 0.000000 0.021198 -1.305459 0.000000 3.049100 -0.029220 0.000000 0.009820 -1.077419 0.000000 3.042353 -0.045816 0.000000 -0.007397 -0.903053 0.000000 3.049807 -0.083220 0.000000 -0.022970 -0.787879 0.000000 3.092589 -0.149430 0.000000 0.022114 -0.782438 0.000000 3.383753 -0.160621 0.000000 0.302307 -0.402886 0.000000 3.176875 -0.011119 0.000000 0.067255 -0.462414 0.000000 3.370423 -0.055977 0.000000 0.255102 -0.218388 0.000000 3.179338 0.015952 0.000000 0.048821 -0.321091 0.000000 3.391247 -0.040063 0.000000 0.250957 -0.100619 0.000000 3.195246 0.018893 0.000000 0.047144 -0.220694 0.000000 3.406630 -0.035888 0.000000 0.249729 -0.017504 0.000000 3.207678 0.016116 0.000000 0.047153 -0.147844 0.000000 3.418020 -0.034714 0.000000 0.249772 0.044079 0.000000 3.216669 0.015266 0.000000 0.048581 -0.090768 0.000000 3.424564 -0.030882 0.000000 0.251826 0.095444 0.000000 3.221671 0.018439 0.000000 0.053204 -0.036173 0.000000 3.426982 -0.023690 0.000000 0.257785 0.152231 0.000000 3.224618 0.025663 0.000000 0.061864 0.035124 0.000000 3.427303 -0.012170 0.000000 0.267939 0.235947 0.000000 3.232656 0.043135 0.000000 0.080618 0.152901 0.000000 3.443030 0.049437 0.000000 0.310647 0.419035 0.000000 3.198321 0.151767 0.000000 0.060562 0.426629 0.000000 3.116942 0.100478 0.000000 0.012569 0.427839 0.000000 3.113091 0.052409 0.000000 0.013493 0.477541 0.000000 3.112973 0.027860 0.000000 0.019887 0.565551 0.000000 3.107921 0.020214 0.000000 0.024330 0.685826 0.000000 3.099776 0.023507 0.000000 0.026664 0.839852 0.000000 3.092059 0.034484 0.000000 0.027853 1.033471 0.000000 
3.200578 0.059213 0.000000 0.015232 1.251411 0.000000 3.235939 0.075435 0.000000 0.016784 1.554832 0.000000 3.293611 0.009392 0.000000 0.016337 -1.521871 0.000000 3.211314 -0.012939 0.000000 0.008108 -1.265555 0.000000 3.157702 -0.022591 0.000000 -0.005201 -1.046959 0.000000 3.123741 -0.035592 0.000000 -0.029733 -0.880618 0.000000 3.106305 -0.070760 0.000000 -0.066326 -0.793301 0.000000 3.127019 -0.182214 0.000000 -0.030568 -0.986018 0.000000 3.340834 -0.427466 0.000000 0.170394 -0.228352 0.000000 3.116322 0.188222 0.000000 -0.030707 -0.597799 0.000000 3.323964 -0.253557 0.000000 0.154757 -0.052620 0.000000 3.104496 0.195290 0.000000 -0.025935 -0.476400 0.000000 3.344722 -0.249715 0.000000 0.179329 0.063737 0.000000 3.104808 0.203378 0.000000 -0.012288 -0.381836 0.000000 3.361342 -0.242608 0.000000 0.197969 0.144113 0.000000 3.108528 0.207092 0.000000 -0.002344 -0.313093 0.000000 3.376629 -0.237463 0.000000 0.211839 0.204291 0.000000 3.113576 0.211004 0.000000 0.005604 -0.256891 0.000000 3.389181 -0.231454 0.000000 0.225364 0.255435 0.000000 3.117649 0.215887 0.000000 0.016296 -0.202017 0.000000 3.400216 -0.223707 0.000000 0.244407 0.310353 0.000000 3.122964 0.224302 0.000000 0.033022 -0.131799 0.000000 3.415727 -0.210791 0.000000 0.273066 0.382704 0.000000 3.147204 0.237571 0.000000 0.076991 -0.032289 0.000000 3.481170 -0.189335 0.000000 0.375224 0.583629 0.000000 3.130048 0.388152 0.000000 0.038264 0.472902 0.000000 3.097593 0.152044 0.000000 -0.007764 0.411412 0.000000 3.125850 0.065192 0.000000 -0.000149 0.458369 0.000000 3.145917 0.038489 0.000000 0.008828 0.549051 0.000000 3.157998 0.032613 0.000000 0.013175 0.670795 0.000000 3.167742 0.036115 0.000000 0.014489 0.824550 0.000000 3.180146 0.045410 0.000000 0.014750 1.015604 0.000000 