# vtk DataFile Version 2.0
Comment goes here
ASCII

DATASET STRUCTURED_POINTS
FIELD FieldData 1
TIME 1 1 double
0.06400000
DIMENSIONS    64   64   1

ORIGIN    0.000   0.000   0.000
SPACING   0.03125 0.03125   1.000

POINT_DATA   4096
VECTORS u double

0.641776 0.004377 0.000000 -1.697526 -0.001791 0.000000 0.417628 0.003658 0.000000 -1.491756 -0.001046 0.000000 0.025491 -0.001108 0.000000 -1.292063 -0.000957 0.000000 0.076383 0.003132 0.000000 -1.078203 -0.000512 0.000000 0.070702 0.002535 0.000000 -0.953202 -0.000755 0.000000 0.074324 0.002682 0.000000 -0.893022 -0.000905 0.000000 0.095562 0.003038 0.000000 -0.869550 -0.000718 0.000000 0.122132 0.003757 0.000000 -0.849441 -0.000192 0.000000 0.117945 0.004351 0.000000 -0.788520 0.000160 0.000000 0.054050 0.005366 0.000000 -0.665620 0.001513 0.000000 -0.078401 0.006371 0.000000 -0.486787 0.002420 0.000000 -0.256162 0.006284 0.000000 -0.282814 0.003314 0.000000 -0.445731 0.006617 0.000000 -0.079430 0.004039 0.000000 -0.630313 0.006588 0.000000 0.116940 0.004021 0.000000 -0.812812 0.006895 0.000000 0.316003 0.004432 0.000000 -1.001778 0.007103 0.000000 0.520790 0.004145 0.000000 -1.191825 0.007292 0.000000 0.714960 0.004234 0.000000 -1.353540 0.007031 0.000000 0.857767 0.004527 0.000000 -1.447005 0.006682 0.000000 0.921910 0.004913 0.000000 -1.461670 0.006132 0.000000 0.912535 0.005126 0.000000 -1.416295 0.006169 0.000000 0.850852 0.004902 0.000000 -1.331561 0.006694 0.000000 0.746340 0.004659 0.000000 -1.208009 0.006495 0.000000 0.594727 0.004511 0.000000 -1.035693 0.006361 0.000000 0.382405 0.004777 0.000000 -0.806752 0.005844 0.000000 0.113254 0.003936 0.000000 -0.539027 0.004888 0.000000 -0.192957 0.003729 0.000000 -0.250099 0.003839 0.000000 -0.518476 0.002960 0.000000 0.039647 0.002881 0.000000 -0.841537 0.001922 0.000000 0.301376 0.002228 0.000000 -1.131798 0.001062 0.000000 0.506378 0.001623 0.000000 -1.365113 0.000562 0.000000 0.634517 0.001279 0.000000 -1.536248 -0.000037 0.000000 0.686662 0.001357 0.000000 -1.656035 -0.000694 0.000000 
-0.336596 0.026052 0.000000 0.392978 0.109491 0.000000 -0.205368 -0.102494 0.000000 0.304951 0.193778 0.000000 0.151198 -0.095849 0.000000 0.211457 -0.028138 0.000000 -0.099888 -0.106905 0.000000 0.063416 0.000168 0.000000 -0.223452 -0.062349 0.000000 -0.010747 -0.004418 0.000000 -0.309077 -0.030004 0.000000 -0.041351 -0.013600 0.000000 -0.380489 -0.011777 0.000000 -0.049025 -0.016864 0.000000 -0.443253 -0.010768 0.000000 -0.051600 -0.001871 0.000000 -0.482772 -0.032188 0.000000 -0.075314 0.027825 0.000000 -0.485188 -0.064112 0.000000 -0.131448 0.061020 0.000000 -0.445279 -0.092775 0.000000 -0.217937 0.083081 0.000000 -0.377686 -0.105619 0.000000 -0.317974 0.088372 0.000000 -0.300749 -0.105583 0.000000 -0.418341 0.085337 0.000000 -0.224192 -0.101964 0.000000 -0.514823 0.084207 0.000000 -0.147729 -0.103578 0.000000 -0.613756 0.087130 0.000000 -0.065861 -0.106521 0.000000 -0.717391 0.087807 0.000000 0.019453 -0.101078 0.000000 -0.818756 0.073670 0.000000 0.092968 -0.075598 0.000000 -0.894510 0.039584 0.000000 0.132413 -0.036197 0.000000 -0.930468 0.000187 0.000000 0.136229 0.000761 0.000000 -0.932393 -0.029620 0.000000 0.116158 0.026569 0.000000 -0.910729 -0.048882 0.000000 0.082370 0.047585 0.000000 -0.868286 -0.067921 0.000000 0.034966 0.071463 0.000000 -0.803176 -0.092112 0.000000 -0.031268 0.101874 0.000000 -0.705683 -0.120354 0.000000 -0.122003 0.130698 0.000000 -0.577537 -0.138861 0.000000 -0.226463 0.150203 0.000000 -0.430936 -0.148964 0.000000 -0.334476 0.160562 0.000000 -0.273524 -0.148222 0.000000 -0.436722 0.159857 0.000000 -0.114681 -0.133000 0.000000 -0.518571 0.143825 0.000000 0.029561 -0.103755 0.000000 -0.563339 0.115828 0.000000 0.145910 -0.064963 0.000000 -0.556568 0.085163 0.000000 0.228267 -0.026750 0.000000 -0.491642 0.059894 0.000000 0.280463 0.021057 0.000000 
1.616632 -0.108139 0.000000 0.722574 -0.133019 0.000000 1.267102 0.091686 0.000000 0.619390 -0.357612 0.000000 0.986059 0.092386 0.000000 0.475414 0.250129 0.000000 1.674879 0.151173 0.000000 0.455186 0.123052 0.000000 2.090547 0.076697 0.000000 0.405476 0.084869 0.000000 2.355779 0.033286 0.000000 0.368081 0.070507 0.000000 2.530636 0.010712 0.000000 0.348895 0.062046 0.000000 2.652708 0.006332 0.000000 0.334751 0.039328 0.000000 2.762306 0.028065 0.000000 0.296910 0.002576 0.000000 2.889403 0.061501 0.000000 0.219446 -0.038396 0.000000 3.043945 0.092859 0.000000 0.105393 -0.065172 0.000000 3.214010 0.106321 0.000000 -0.019048 -0.073623 0.000000 3.376611 0.106984 0.000000 -0.135942 -0.072518 0.000000 3.524222 0.103070 0.000000 -0.243972 -0.072443 0.000000 3.663428 0.105828 0.000000 -0.349844 -0.077436 0.000000 3.802814 0.110739 0.000000 -0.459060 -0.081169 0.000000 3.942217 0.108657 0.000000 -0.561007 -0.069280 0.000000 4.061247 0.082784 0.000000 -0.628054 -0.034918 0.000000 4.129872 0.042641 0.000000 -0.643362 0.001097 0.000000 4.142445 0.008057 0.000000 -0.615302 0.025197 0.000000 4.112950 -0.015496 0.000000 -0.563098 0.038691 0.000000 4.055827 -0.035749 0.000000 -0.495273 0.052063 0.000000 3.968578 -0.058616 0.000000 -0.408276 0.070745 0.000000 3.842615 -0.091132 0.000000 -0.290279 0.095512 0.000000 3.665505 -0.122301 0.000000 -0.142521 0.108396 0.000000 3.451078 -0.141714 0.000000 0.021519 0.111742 0.000000 3.206172 -0.153573 0.000000 0.192745 0.105207 0.000000 2.938073 -0.155962 0.000000 0.359701 0.083771 0.000000 2.662218 -0.142013 0.000000 0.503945 0.045831 0.000000 2.393499 -0.114727 0.000000 0.608324 -0.006209 0.000000 2.135360 -0.081077 0.000000 0.679295 -0.064963 0.000000 1.861648 -0.050839 0.000000 0.726874 -0.155739 0.000000 
3.632174 0.030352 0.000000 0.002183 0.459022 0.000000 2.791311 0.000691 0.000000 -0.172402 0.474820 0.000000 1.390235 0.048127 0.000000 -0.087214 -0.716958 0.000000 3.050980 -0.086678 0.000000 0.037058 -0.415500 0.000000 3.915357 -0.012638 0.000000 0.089047 -0.269650 0.000000 4.489827 0.007391 0.000000 0.115136 -0.188458 0.000000 4.919527 0.007409 0.000000 0.131171 -0.138936 0.000000 5.261690 0.003376 0.000000 0.144528 -0.111470 0.000000 5.533455 0.005653 0.000000 0.168437 -0.099272 0.000000 5.739438 0.013352 0.000000 0.206591 -0.093523 0.000000 5.886085 0.021278 0.000000 0.256636 -0.086984 0.000000 5.989048 0.018822 0.000000 0.306987 -0.074229 0.000000 6.065341 0.011311 0.000000 0.350965 -0.062274 0.000000 6.123694 0.006067 0.000000 0.387199 -0.055000 0.000000 6.166309 0.002293 0.000000 0.422798 -0.052256 0.000000 6.190268 0.002696 0.000000 0.461962 -0.051597 0.000000 6.196084 0.000869 0.000000 0.503853 -0.045360 0.000000 6.191316 -0.008551 0.000000 0.534869 -0.029042 0.000000 6.189265 -0.020889 0.000000 0.547414 -0.012386 0.000000 6.188214 -0.027299 0.000000 0.547282 -0.000124 0.000000 6.179746 -0.025635 0.000000 0.543361 0.008241 0.000000 6.156303 -0.020241 0.000000 0.538357 0.019328 0.000000 6.117586 -0.015535 0.000000 0.530798 0.033851 0.000000 6.064621 -0.016123 0.000000 0.512353 0.056756 0.000000 5.999762 -0.017060 0.000000 0.481912 0.075567 0.000000 5.911944 -0.013837 0.000000 0.445524 0.095943 0.000000 5.795227 -0.010664 0.000000 0.404995 0.119876 0.000000 5.643188 -0.007099 0.000000 0.361536 0.142856 0.000000 5.442588 -0.000420 0.000000 0.320097 0.164964 0.000000 5.174089 0.011449 0.000000 0.282179 0.193176 0.000000 4.812801 0.014192 0.000000 0.244168 0.246961 0.000000 4.326716 0.012315 0.000000 0.191467 0.266072 0.000000 
3.745808 0.081146 0.000000 0.187928 0.707844 0.000000 3.044201 0.266271 0.000000 -0.045344 1.043464 0.000000 1.932675 0.007198 0.000000 -0.007448 -1.410617 0.000000 3.174050 0.026900 0.000000 -0.027874 -0.741324 0.000000 3.987757 0.024709 0.000000 0.019071 -0.489601 0.000000 4.556011 0.007197 0.000000 0.070472 -0.359194 0.000000 4.979972 -0.005323 0.000000 0.118127 -0.280117 0.000000 5.311665 -0.007025 0.000000 0.162353 -0.232438 0.000000 5.575660 0.004155 0.000000 0.206699 -0.203406 0.000000 5.782038 0.023347 0.000000 0.252173 -0.185043 0.000000 5.939051 0.042814 0.000000 0.298954 -0.168136 0.000000 6.056887 0.055970 0.000000 0.338882 -0.149916 0.000000 6.148211 0.063005 0.000000 0.370029 -0.130870 0.000000 6.219235 0.066837 0.000000 0.395141 -0.115058 0.000000 6.271859 0.070228 0.000000 0.416144 -0.101395 0.000000 6.306830 0.071575 0.000000 0.436659 -0.086985 0.000000 6.324426 0.066766 0.000000 0.456495 -0.064513 0.000000 6.329098 0.051767 0.000000 0.470690 -0.032867 0.000000 6.327398 0.030096 0.000000 0.477942 0.002148 0.000000 6.318740 0.008189 0.000000 0.481101 0.033666 0.000000 6.298850 -0.011575 0.000000 0.484538 0.062133 0.000000 6.263808 -0.030744 0.000000 0.488370 0.090780 0.000000 6.212761 -0.051056 0.000000 0.491016 0.123711 0.000000 6.144677 -0.072687 0.000000 0.487287 0.160371 0.000000 6.060433 -0.091860 0.000000 0.477274 0.196214 0.000000 5.951413 -0.105326 0.000000 0.463870 0.228459 0.000000 5.811623 -0.113044 0.000000 0.447946 0.257245 0.000000 5.638088 -0.112503 0.000000 0.429837 0.284372 0.000000 5.421687 -0.100573 0.000000 0.410163 0.314330 0.000000 5.147366 -0.076809 0.000000 0.389923 0.355078 0.000000 4.796349 -0.043066 0.000000 0.354269 0.421123 0.000000 4.356792 0.001861 0.000000 0.284458 0.538803 0.000000 
3.990001 0.126882 0.000000 0.045453 1.160629 0.000000 3.321579 0.233962 0.000000 -0.014972 1.586346 0.000000 2.434818 0.010231 0.000000 -0.021736 -1.958333 0.000000 3.324631 -0.066252 0.000000 0.006365 -1.229206 0.000000 4.095251 -0.059583 0.000000 0.052603 -0.837904 0.000000 4.655076 -0.044009 0.000000 0.091328 -0.612419 0.000000 5.073127 -0.040246 0.000000 0.125580 -0.470629 0.000000 5.399258 -0.040850 0.000000 0.159737 -0.375465 0.000000 5.657112 -0.038693 0.000000 0.198231 -0.305650 0.000000 5.855138 -0.032123 0.000000 0.241375 -0.250536 0.000000 6.002111 -0.025502 0.000000 0.287280 -0.204819 0.000000 6.108343 -0.021106 0.000000 0.330954 -0.165554 0.000000 6.186383 -0.019837 0.000000 0.370048 -0.133297 0.000000 6.242682 -0.019044 0.000000 0.404932 -0.107623 0.000000 6.281621 -0.018710 0.000000 0.438321 -0.087227 0.000000 6.303081 -0.017819 0.000000 0.471577 -0.069193 0.000000 6.310260 -0.018968 0.000000 0.503473 -0.050031 0.000000 6.306732 -0.022745 0.000000 0.529705 -0.027342 0.000000 6.299448 -0.028141 0.000000 0.548054 -0.003728 0.000000 6.287696 -0.030458 0.000000 0.559656 0.019766 0.000000 6.269394 -0.029071 0.000000 0.566012 0.043283 0.000000 6.239382 -0.024073 0.000000 0.566362 0.070375 0.000000 6.197135 -0.018181 0.000000 0.558291 0.101935 0.000000 6.140541 -0.012394 0.000000 0.539077 0.140999 0.000000 6.068707 -0.007046 0.000000 0.509366 0.184587 0.000000 5.974007 -0.000432 0.000000 0.472482 0.235733 0.000000 5.852914 0.005260 0.000000 0.430562 0.293411 0.000000 5.700166 0.011010 0.000000 0.384936 0.359256 0.000000 5.505900 0.019254 0.000000 0.337031 0.439285 0.000000 5.256041 0.031689 0.000000 0.286279 0.544194 0.000000 4.932730 0.049846 0.000000 0.226555 0.686518 0.000000 4.516281 0.082126 0.000000 0.145562 0.877057 0.000000 
4.184477 0.181255 0.000000 0.171679 1.376266 0.000000 3.647523 0.326696 0.000000 0.097537 1.930225 0.000000 2.935994 0.013963 0.000000 0.090301 -2.300429 0.000000 3.568314 -0.001201 0.000000 0.045300 -1.511945 0.000000 4.187810 -0.021529 0.000000 0.051280 -1.049426 0.000000 4.686064 -0.031528 0.000000 0.083448 -0.777244 0.000000 5.074462 -0.039574 0.000000 0.125343 -0.606248 0.000000 5.383209 -0.041182 0.000000 0.171365 -0.490291 0.000000 5.632929 -0.034338 0.000000 0.220260 -0.401432 0.000000 5.830933 -0.019797 0.000000 0.266742 -0.332016 0.000000 5.981664 -0.003091 0.000000 0.310114 -0.274369 0.000000 6.094964 0.012297 0.000000 0.345933 -0.227955 0.000000 6.180435 0.023911 0.000000 0.375326 -0.187170 0.000000 6.245458 0.031953 0.000000 0.398340 -0.153997 0.000000 6.293002 0.036839 0.000000 0.418533 -0.122855 0.000000 6.325910 0.038319 0.000000 0.436126 -0.094163 0.000000 6.344879 0.034871 0.000000 0.452707 -0.060986 0.000000 6.353306 0.025535 0.000000 0.465441 -0.025582 0.000000 6.352751 0.011747 0.000000 0.475118 0.013900 0.000000 6.344384 -0.003413 0.000000 0.481607 0.051968 0.000000 6.325126 -0.017931 0.000000 0.487676 0.092145 0.000000 6.293966 -0.031095 0.000000 0.491945 0.133027 0.000000 6.247962 -0.042985 0.000000 0.493979 0.180304 0.000000 6.187019 -0.053474 0.000000 0.489642 0.232206 0.000000 6.107507 -0.062149 0.000000 0.479489 0.290914 0.000000 6.006448 -0.068442 0.000000 0.463140 0.349552 0.000000 5.876139 -0.071125 0.000000 0.443015 0.409993 0.000000 5.715428 -0.066877 0.000000 0.419910 0.478638 0.000000 5.520543 -0.052669 0.000000 0.393742 0.564189 0.000000 5.282996 -0.026057 0.000000 0.362450 0.678389 0.000000 4.991480 0.016658 0.000000 0.319907 0.837571 0.000000 4.632427 0.082854 0.000000 0.260749 1.065083 0.000000 
4.455744 0.215953 0.000000 0.110495 1.697583 0.000000 3.985085 0.308104 0.000000 0.096152 2.297875 0.000000 3.400490 0.017466 0.000000 0.088865 -2.590653 0.000000 3.855172 -0.021250 0.000000 0.065726 -1.848703 0.000000 4.371062 -0.065563 0.000000 0.074351 -1.336158 0.000000 4.824337 -0.076177 0.000000 0.100980 -1.000818 0.000000 5.190847 -0.082142 0.000000 0.136347 -0.779376 0.000000 5.487081 -0.086872 0.000000 0.177133 -0.625185 0.000000 5.727580 -0.087587 0.000000 0.223512 -0.503654 0.000000 5.914152 -0.078605 0.000000 0.269637 -0.401266 0.000000 6.051903 -0.068875 0.000000 0.312663 -0.318120 0.000000 6.149672 -0.056925 0.000000 0.350095 -0.251025 0.000000 6.221539 -0.049230 0.000000 0.382941 -0.198320 0.000000 6.271629 -0.042058 0.000000 0.412352 -0.155167 0.000000 6.307727 -0.038903 0.000000 0.440193 -0.120134 0.000000 6.328352 -0.035412 0.000000 0.466921 -0.088162 0.000000 6.339761 -0.035549 0.000000 0.492092 -0.058458 0.000000 6.340541 -0.035479 0.000000 0.513658 -0.026788 0.000000 6.337509 -0.037818 0.000000 0.530590 0.004639 0.000000 6.326856 -0.036947 0.000000 0.542501 0.039025 0.000000 6.311376 -0.035140 0.000000 0.549741 0.074443 0.000000 6.284472 -0.028341 0.000000 0.550858 0.116378 0.000000 6.248394 -0.020215 0.000000 0.543837 0.162879 0.000000 6.196949 -0.008057 0.000000 0.525558 0.220511 0.000000 6.130433 0.003106 0.000000 0.496812 0.285646 0.000000 6.038315 0.015917 0.000000 0.459829 0.366043 0.000000 5.923358 0.025385 0.000000 0.418345 0.454122 0.000000 5.784767 0.034115 0.000000 0.374203 0.554142 0.000000 5.616820 0.045421 0.000000 0.328620 0.676832 0.000000 5.410615 0.062982 0.000000 0.281207 0.835710 0.000000 5.155167 0.092389 0.000000 0.229571 1.045571 0.000000 4.839508 0.141283 0.000000 0.171957 1.325007 0.000000 
4.693235 0.242718 0.000000 0.198637 1.846925 0.000000 4.326478 0.341039 0.000000 0.176443 2.514819 0.000000 3.861644 0.021250 0.000000 0.169275 -2.755111 0.000000 4.175316 0.021937 0.000000 0.120210 -2.027835 0.000000 4.552876 -0.030154 0.000000 0.097496 -1.502701 0.000000 4.920896 -0.058157 0.000000 0.106866 -1.143754 0.000000 5.239221 -0.074942 0.000000 0.138699 -0.902483 0.000000 5.507520 -0.081968 0.000000 0.184920 -0.730790 0.000000 5.734404 -0.080717 0.000000 0.242265 -0.588005 0.000000 5.921501 -0.065922 0.000000 0.293046 -0.469766 0.000000 6.056514 -0.046116 0.000000 0.335492 -0.372138 0.000000 6.156651 -0.025136 0.000000 0.365240 -0.299823 0.000000 6.228715 -0.008934 0.000000 0.389472 -0.237259 0.000000 6.285769 0.002541 0.000000 0.407321 -0.190096 0.000000 6.325710 0.008998 0.000000 0.424414 -0.143479 0.000000 6.356542 0.011592 0.000000 0.438241 -0.105572 0.000000 6.373664 0.009699 0.000000 0.452312 -0.061766 0.000000 6.384784 0.003970 0.000000 0.462881 -0.022550 0.000000 6.384665 -0.005186 0.000000 0.473061 0.024553 0.000000 6.380129 -0.015324 0.000000 0.480376 0.067448 0.000000 6.363128 -0.025170 0.000000 0.488529 0.119048 0.000000 6.339317 -0.032212 0.000000 0.494304 0.169106 0.000000 6.298932 -0.035965 0.000000 0.498489 0.231749 0.000000 6.248208 -0.035194 0.000000 0.494406 0.298722 0.000000 6.175654 -0.033403 0.000000 0.483073 0.383032 0.000000 6.088679 -0.031459 0.000000 0.461314 0.464509 0.000000 5.970687 -0.029641 0.000000 0.433192 0.548583 0.000000 5.828294 -0.022735 0.000000 0.401522 0.646585 0.000000 5.665619 -0.007085 0.000000 0.368754 0.770394 0.000000 5.478853 0.021356 0.000000 0.334556 0.933836 0.000000 5.260066 0.068294 0.000000 0.296016 1.153231 0.000000 5.000583 0.140468 0.000000 0.250598 1.448847 0.000000 
4.965123 0.267914 0.000000 0.161842 2.064341 0.000000 4.661451 0.330298 0.000000 0.170548 2.762709 0.000000 4.288864 0.024634 0.000000 0.163906 -2.904325 0.000000 4.501783 0.027814 0.000000 0.127035 -2.226263 0.000000 4.790748 -0.042850 0.000000 0.110050 -1.704178 0.000000 5.099960 -0.085546 0.000000 0.118697 -1.319143 0.000000 5.383757 -0.113975 0.000000 0.149024 -1.047675 0.000000 5.633586 -0.133094 0.000000 0.195511 -0.852069 0.000000 5.848192 -0.144932 0.000000 0.257501 -0.690751 0.000000 6.021175 -0.129385 0.000000 0.312511 -0.536279 0.000000 6.137708 -0.111321 0.000000 0.351126 -0.418257 0.000000 6.216218 -0.086674 0.000000 0.379243 -0.323089 0.000000 6.275420 -0.073461 0.000000 0.402194 -0.255374 0.000000 6.315468 -0.059908 0.000000 0.424002 -0.195108 0.000000 6.347793 -0.055996 0.000000 0.444982 -0.150967 0.000000 6.364817 -0.049239 0.000000 0.465702 -0.105285 0.000000 6.378875 -0.049621 0.000000 0.485187 -0.069578 0.000000 6.380264 -0.046048 0.000000 0.502357 -0.026668 0.000000 6.382336 -0.047998 0.000000 0.516895 0.009175 0.000000 6.373114 -0.044262 0.000000 0.527933 0.056025 0.000000 6.364337 -0.043293 0.000000 0.536544 0.098253 0.000000 6.341561 -0.034117 0.000000 0.540077 0.156764 0.000000 6.315339 -0.024399 0.000000 0.537494 0.213602 0.000000 6.270593 -0.003974 0.000000 0.520791 0.293065 0.000000 6.214634 0.014439 0.000000 0.492613 0.372621 0.000000 6.124219 0.037675 0.000000 0.450692 0.484035 0.000000 6.016597 0.053508 0.000000 0.404427 0.596516 0.000000 5.897825 0.065785 0.000000 0.357358 0.716816 0.000000 5.765500 0.078189 0.000000 0.312557 0.863598 0.000000 5.613429 0.097181 0.000000 0.270662 1.054496 0.000000 5.433435 0.130929 0.000000 0.230572 1.305054 0.000000 5.218654 0.186701 0.000000 0.192429 1.632354 0.000000 
5.210957 0.273305 0.000000 0.226503 2.150596 0.000000 4.989691 0.332333 0.000000 0.233551 2.887407 0.000000 4.710959 0.027891 0.000000 0.227393 -2.968030 0.000000 4.830336 0.058809 0.000000 0.177456 -2.316800 0.000000 5.015040 -0.013169 0.000000 0.136474 -1.811913 0.000000 5.241706 -0.066804 0.000000 0.121846 -1.427551 0.000000 5.470666 -0.105270 0.000000 0.139701 -1.152312 0.000000 5.685932 -0.128455 0.000000 0.191786 -0.945396 0.000000 5.878004 -0.142707 0.000000 0.279921 -0.760987 0.000000 6.065060 -0.120932 0.000000 0.344623 -0.586300 0.000000 6.163228 -0.084731 0.000000 0.380288 -0.450648 0.000000 6.244795 -0.053253 0.000000 0.397177 -0.359024 0.000000 6.289450 -0.031885 0.000000 0.410238 -0.277308 0.000000 6.342712 -0.019267 0.000000 0.421302 -0.222421 0.000000 6.366515 -0.011982 0.000000 0.432564 -0.160503 0.000000 6.401196 -0.009128 0.000000 0.443419 -0.119630 0.000000 6.408098 -0.009786 0.000000 0.453448 -0.063155 0.000000 6.427899 -0.013200 0.000000 0.462754 -0.024622 0.000000 6.421031 -0.019725 0.000000 0.470428 0.033774 0.000000 6.428779 -0.026362 0.000000 0.478571 0.076226 0.000000 6.408866 -0.033781 0.000000 0.486221 0.141823 0.000000 6.402745 -0.035744 0.000000 0.496404 0.195328 0.000000 6.363612 -0.033382 0.000000 0.504965 0.276495 0.000000 6.333492 -0.018492 0.000000 0.508485 0.354681 0.000000 6.259469 -0.005224 0.000000 0.497595 0.473447 0.000000 6.196197 0.010462 0.000000 0.470412 0.572131 0.000000 6.084772 0.016623 0.000000 0.425104 0.667356 0.000000 5.957460 0.024334 0.000000 0.377249 0.778910 0.000000 5.832091 0.037717 0.000000 0.337837 0.922465 0.000000 5.703335 0.063251 0.000000 0.306113 1.113830 0.000000 5.561014 0.108383 0.000000 0.277560 1.368012 0.000000 5.398070 0.178611 0.000000 0.249792 1.702378 0.000000 
5.471148 0.291203 0.000000 0.201466 2.285607 0.000000 5.304669 0.323250 0.000000 0.226333 3.041440 0.000000 5.101156 0.030792 0.000000 0.220911 -3.023702 0.000000 5.153736 0.077751 0.000000 0.178817 -2.410967 0.000000 5.273153 -0.001867 0.000000 0.141175 -1.930843 0.000000 5.444768 -0.070919 0.000000 0.122400 -1.548103 0.000000 5.635917 -0.131830 0.000000 0.133073 -1.262941 0.000000 5.836455 -0.185178 0.000000 0.189640 -1.044141 0.000000 6.014835 -0.233068 0.000000 0.324489 -0.877807 0.000000 6.189022 -0.194087 0.000000 0.389697 -0.634447 0.000000 6.253305 -0.146987 0.000000 0.410086 -0.499823 0.000000 6.304107 -0.103563 0.000000 0.414278 -0.367743 0.000000 6.342108 -0.086522 0.000000 0.426643 -0.308637 0.000000 6.371764 -0.070971 0.000000 0.435853 -0.218911 0.000000 6.398252 -0.067258 0.000000 0.453804 -0.185647 0.000000 6.409898 -0.060095 0.000000 0.464657 -0.112187 0.000000 6.425959 -0.059649 0.000000 0.483619 -0.089379 0.000000 6.424896 -0.055354 0.000000 0.491543 -0.019800 0.000000 6.433686 -0.055672 0.000000 0.507999 0.001427 0.000000 6.424341 -0.052405 0.000000 0.511540 0.075939 0.000000 6.427174 -0.050943 0.000000 0.526587 0.104374 0.000000 6.408951 -0.044300 0.000000 0.528108 0.195897 0.000000 6.400109 -0.032960 0.000000 0.541985 0.243723 0.000000 6.363660 -0.007494 0.000000 0.525508 0.367087 0.000000 6.325799 0.025330 0.000000 0.511929 0.435893 0.000000 6.223704 0.064858 0.000000 0.451252 0.595461 0.000000 6.114433 0.098816 0.000000 0.388649 0.723827 0.000000 6.017224 0.113640 0.000000 0.331539 0.842185 0.000000 5.928100 0.117601 0.000000 0.287368 0.992354 0.000000 5.836978 0.128905 0.000000 0.254639 1.196817 0.000000 5.733278 0.159482 0.000000 0.229121 1.467998 0.000000 5.611718 0.214469 0.000000 0.209680 1.819467 0.000000 
5.709723 0.281518 0.000000 0.252207 2.317075 0.000000 5.609792 0.307466 0.000000 0.279944 3.090919 0.000000 5.484878 0.033314 0.000000 0.275317 -3.020609 0.000000 5.463850 0.100903 0.000000 0.228686 -2.436217 0.000000 5.502394 0.024474 0.000000 0.169963 -1.983528 0.000000 5.601078 -0.048029 0.000000 0.111133 -1.618700 0.000000 5.741955 -0.115942 0.000000 0.071864 -1.352850 0.000000 5.917984 -0.185023 0.000000 0.116316 -1.123775 0.000000 6.055105 -0.277556 0.000000 0.404130 -0.935175 0.000000 6.295601 -0.186140 0.000000 0.437428 -0.650583 0.000000 6.280471 -0.105119 0.000000 0.460460 -0.501450 0.000000 6.365382 -0.057445 0.000000 0.422940 -0.397025 0.000000 6.341000 -0.044251 0.000000 0.442087 -0.306963 0.000000 6.428251 -0.028477 0.000000 0.427808 -0.248910 0.000000 6.397675 -0.029933 0.000000 0.449218 -0.172149 0.000000 6.473118 -0.019982 0.000000 0.443479 -0.135690 0.000000 6.431273 -0.028748 0.000000 0.461741 -0.062092 0.000000 6.496586 -0.021123 0.000000 0.458835 -0.033412 0.000000 6.444802 -0.036182 0.000000 0.471743 0.043120 0.000000 6.503019 -0.029903 0.000000 0.471384 0.073393 0.000000 6.443857 -0.048828 0.000000 0.481559 0.160046 0.000000 6.497298 -0.037266 0.000000 0.490037 0.204171 0.000000 6.428111 -0.047258 0.000000 0.507813 0.312943 0.000000 6.466225 -0.002016 0.000000 0.533598 0.392542 0.000000 6.345557 0.008355 0.000000 0.546594 0.575541 0.000000 6.337071 0.071139 0.000000 0.520171 0.681401 0.000000 6.197110 0.079226 0.000000 0.413854 0.764565 0.000000 6.074456 0.081444 0.000000 0.333512 0.868034 0.000000 5.997559 0.081888 0.000000 0.293434 1.013587 0.000000 5.935570 0.095980 0.000000 0.273846 1.217529 0.000000 5.869523 0.133900 0.000000 0.261502 1.489573 0.000000 5.794216 0.198053 0.000000 0.252764 1.842948 0.000000 
5.952551 0.291760 0.000000 0.235039 2.385538 0.000000 5.898983 0.295514 0.000000 0.274583 3.166354 0.000000 5.838204 0.035419 0.000000 0.270911 -3.002673 0.000000 5.767068 0.124382 0.000000 0.236843 -2.449511 0.000000 5.757234 0.056857 0.000000 0.185910 -2.029527 0.000000 5.807754 -0.012089 0.000000 0.117111 -1.688980 0.000000 5.906988 -0.092561 0.000000 0.021863 -1.438970 0.000000 6.086214 -0.229630 0.000000 -0.033901 -1.181262 0.000000 6.252402 -0.520883 0.000000 0.633992 -1.118303 0.000000 6.441459 -0.227384 0.000000 0.433771 -0.619317 0.000000 6.372091 -0.170019 0.000000 0.554685 -0.584734 0.000000 6.398240 -0.066042 0.000000 0.349065 -0.343362 0.000000 6.419185 -0.105670 0.000000 0.527144 -0.395888 0.000000 6.430741 -0.056692 0.000000 0.360010 -0.188336 0.000000 6.464533 -0.088668 0.000000 0.538890 -0.261090 0.000000 6.451398 -0.054356 0.000000 0.382963 -0.070342 0.000000 6.489936 -0.077911 0.000000 0.556935 -0.154693 0.000000 6.460577 -0.052449 0.000000 0.404807 0.031984 0.000000 6.502184 -0.068580 0.000000 0.569800 -0.056790 0.000000 6.463521 -0.052046 0.000000 0.420473 0.135101 0.000000 6.510154 -0.061118 0.000000 0.577976 0.050933 0.000000 6.468077 -0.052778 0.000000 0.439439 0.265085 0.000000 6.519496 -0.050736 0.000000 0.605624 0.205609 0.000000 6.470264 -0.033279 0.000000 0.478490 0.487755 0.000000 6.503551 0.012334 0.000000 0.639725 0.444378 0.000000 6.315821 0.091281 0.000000 0.466353 0.735422 0.000000 6.177960 0.205132 0.000000 0.356542 0.846480 0.000000 6.115064 0.193982 0.000000 0.279110 0.919082 0.000000 6.088625 0.157679 0.000000 0.244858 1.054344 0.000000 6.067514 0.148493 0.000000 0.231555 1.262864 0.000000 6.037223 0.171826 0.000000 0.225442 1.543306 0.000000 5.997661 0.223207 0.000000 0.224572 1.903960 0.000000 
6.175969 0.271051 0.000000 0.277298 2.370643 0.000000 6.176578 0.267922 0.000000 0.323107 3.151698 0.000000 6.184063 0.036986 0.000000 0.320523 -2.949473 0.000000 6.050930 0.134972 0.000000 0.299534 -2.426383 0.000000 5.971408 0.075407 0.000000 0.252925 -2.034048 0.000000 5.943712 0.020769 0.000000 0.150831 -1.717934 0.000000 5.980479 -0.020694 0.000000 -0.071634 -1.532075 0.000000 6.151832 -0.129259 0.000000 -0.279975 -1.289964 0.000000 6.291897 -0.945448 0.000000 0.851667 -1.124232 0.000000 6.628922 0.014081 0.000000 0.236730 -0.581214 0.000000 6.342046 -0.226033 0.000000 0.732511 -0.527599 0.000000 6.515285 0.148174 0.000000 0.107556 -0.417970 0.000000 6.358966 -0.222330 0.000000 0.704662 -0.318519 0.000000 6.564763 0.138657 0.000000 0.140663 -0.282702 0.000000 6.398735 -0.208814 0.000000 0.710416 -0.159014 0.000000 6.599438 0.135946 0.000000 0.172208 -0.174228 0.000000 6.422781 -0.202720 0.000000 0.715472 -0.032733 0.000000 6.620416 0.131005 0.000000 0.199131 -0.075020 0.000000 6.434998 -0.201174 0.000000 0.711814 0.081784 0.000000 6.630940 0.119424 0.000000 0.219140 0.026759 0.000000 6.444820 -0.206331 0.000000 0.700033 0.202122 0.000000 6.645466 0.101271 0.000000 0.235092 0.152753 0.000000 6.473247 -0.213442 0.000000 0.689839 0.362175 0.000000 6.696514 0.125118 0.000000 0.280565 0.359256 0.000000 6.470222 -0.152880 0.000000 0.837880 0.763271 0.000000 6.548016 0.244511 0.000000 0.660404 0.819263 0.000000 6.228471 0.189037 0.000000 0.320852 0.827460 0.000000 6.143607 0.158876 0.000000 0.228746 0.894474 0.000000 6.157809 0.116140 0.000000 0.227370 1.034698 0.000000 6.172148 0.109283 0.000000 0.238680 1.247820 0.000000 6.175538 0.140013 0.000000 0.248257 1.529134 0.000000 6.174771 0.198922 0.000000 0.258248 1.888058 0.000000 
6.398259 0.272710 0.000000 0.266627 2.384929 0.000000 6.437497 0.249704 0.000000 0.319017 3.158869 0.000000 6.500595 0.038004 0.000000 0.317435 -2.869539 0.000000 6.325609 0.145370 0.000000 0.315744 -2.369990 0.000000 6.208035 0.103467 0.000000 0.302975 -2.001831 0.000000 6.144160 0.090005 0.000000 0.265337 -1.725747 0.000000 6.130816 0.129904 0.000000 0.193320 -1.610323 0.000000 6.127009 -0.021289 0.000000 0.104349 -1.321326 0.000000 6.238130 -1.652524 0.000000 0.199295 -1.455328 0.000000 5.984124 0.387553 0.000000 -0.422234 -0.332442 0.000000 6.211861 -0.665801 0.000000 0.284652 -0.757973 0.000000 6.093390 0.558913 0.000000 -0.318295 -0.187043 0.000000 6.316050 -0.702775 0.000000 0.509531 -0.601685 0.000000 6.158494 0.507307 0.000000 -0.215352 -0.022308 0.000000 6.367220 -0.658421 0.000000 0.672584 -0.461792 0.000000 6.201757 0.483852 0.000000 -0.135585 0.106314 0.000000 6.398138 -0.621175 0.000000 0.795199 -0.352328 0.000000 6.235380 0.463893 0.000000 -0.071856 0.217403 0.000000 6.418338 -0.581263 0.000000 0.888193 -0.252732 0.000000 6.267636 0.440628 0.000000 -0.022575 0.321220 0.000000 6.441741 -0.542011 0.000000 0.965355 -0.149713 0.000000 6.320546 0.412163 0.000000 0.014261 0.437303 0.000000 6.501584 -0.505484 0.000000 1.062772 -0.017658 0.000000 6.457959 0.375995 0.000000 0.141147 0.714047 0.000000 6.602031 -0.544981 0.000000 1.562390 0.366585 0.000000 6.443165 0.268757 0.000000 0.737924 1.054967 0.000000 6.130289 0.544685 0.000000 0.214670 0.931344 0.000000 6.178105 0.286088 0.000000 0.151855 0.904880 0.000000 6.262754 0.159056 0.000000 0.183024 1.040004 0.000000 6.310604 0.137183 0.000000 0.208536 1.259474 0.000000 6.339022 0.162249 0.000000 0.224335 1.544073 0.000000 6.365253 0.213216 0.000000 0.239822 1.902763 0.000000 