# vtk DataFile Version 2.0
Comment goes here
ASCII

DATASET STRUCTURED_POINTS
FIELD FieldData 1
TIME 1 1 double
0.03800000
DIMENSIONS    64   64   1

ORIGIN    0.000   0.000   0.000
SPACING   0.03125 0.03125   1.000

POINT_DATA   4096
VECTORS u double

0.756839 -0.000251 0.000000 -1.221492 -0.001148 0.000000 0.502099 -0.000162 0.000000 -1.105499 0.000589 0.000000 0.297660 0.000115 0.000000 -1.018989 -0.000008 0.000000 0.330548 -0.000301 0.000000 -0.932773 0.000290 0.000000 0.334900 -0.000518 0.000000 -0.866153 0.000068 0.000000 0.323385 -0.000544 0.000000 -0.797432 -0.000148 0.000000 0.287920 -0.000507 0.000000 -0.722880 -0.000250 0.000000 0.242407 -0.000437 0.000000 -0.642953 -0.000045 0.000000 0.167564 -0.000380 0.000000 -0.510441 -0.000260 0.000000 0.011723 0.000014 0.000000 -0.286496 -0.000099 0.000000 -0.227345 0.000812 0.000000 -0.014824 -0.000064 0.000000 -0.480316 0.000871 0.000000 0.237433 -0.000196 0.000000 -0.685162 0.001233 0.000000 0.417359 0.000154 0.000000 -0.800873 0.000934 0.000000 0.490805 0.000454 0.000000 -0.813068 0.000737 0.000000 0.470822 0.000615 0.000000 -0.749723 0.000728 0.000000 0.389280 0.000872 0.000000 -0.647393 0.000627 0.000000 0.286015 0.000557 0.000000 -0.546350 0.001151 0.000000 0.198474 0.000502 0.000000 -0.481148 0.001193 0.000000 0.158681 0.000310 0.000000 -0.477328 0.001419 0.000000 0.184646 0.000439 0.000000 -0.543307 0.001606 0.000000 0.272051 0.000355 0.000000 -0.655652 0.001691 0.000000 0.385350 0.000489 0.000000 -0.771802 0.001861 0.000000 0.477051 0.000570 0.000000 -0.842706 0.001794 0.000000 0.500200 0.000718 0.000000 -0.822884 0.001491 0.000000 0.417550 0.000933 0.000000 -0.701056 0.001571 0.000000 0.241497 0.000718 0.000000 -0.507166 0.001419 0.000000 0.010312 0.000475 0.000000 -0.275951 0.001236 0.000000 -0.248733 0.000171 0.000000 -0.036871 0.001070 0.000000 -0.509203 -0.000087 0.000000 0.186006 0.000862 0.000000 -0.753562 -0.000236 0.000000 0.385485 0.000683 0.000000 -0.986340 -0.000349 0.000000 0.564077 0.000123 0.000000 -1.207830 0.001255 0.000000 
-0.450683 0.006172 0.000000 0.273075 0.128204 0.000000 -0.181794 -0.058272 0.000000 0.207449 0.102134 0.000000 0.014637 -0.043725 0.000000 0.172031 -0.016217 0.000000 -0.116686 -0.043421 0.000000 0.127944 -0.002067 0.000000 -0.196587 -0.033610 0.000000 0.101865 0.006014 0.000000 -0.250535 -0.034644 0.000000 0.076997 0.017978 0.000000 -0.279469 -0.037526 0.000000 0.050958 0.022994 0.000000 -0.300173 -0.040352 0.000000 0.028598 0.037643 0.000000 -0.306499 -0.066897 0.000000 -0.019136 0.077973 0.000000 -0.266053 -0.112123 0.000000 -0.119048 0.118705 0.000000 -0.174614 -0.135521 0.000000 -0.246148 0.125172 0.000000 -0.074800 -0.125963 0.000000 -0.362401 0.101118 0.000000 0.002440 -0.089843 0.000000 -0.444108 0.056525 0.000000 0.037695 -0.036892 0.000000 -0.471721 0.005084 0.000000 0.023175 0.009358 0.000000 -0.453351 -0.032643 0.000000 -0.023127 0.040339 0.000000 -0.407484 -0.052279 0.000000 -0.082357 0.051134 0.000000 -0.353826 -0.051695 0.000000 -0.135366 0.043426 0.000000 -0.309819 -0.033811 0.000000 -0.166196 0.019300 0.000000 -0.290139 -0.002846 0.000000 -0.164330 -0.013681 0.000000 -0.305008 0.031914 0.000000 -0.123514 -0.044195 0.000000 -0.352196 0.054998 0.000000 -0.057440 -0.057216 0.000000 -0.413608 0.056630 0.000000 0.013675 -0.046013 0.000000 -0.467710 0.033841 0.000000 0.066626 -0.011941 0.000000 -0.489928 -0.011319 0.000000 0.076826 0.040838 0.000000 -0.459262 -0.062155 0.000000 0.037882 0.087539 0.000000 -0.383173 -0.097959 0.000000 -0.031795 0.115218 0.000000 -0.282671 -0.116460 0.000000 -0.114313 0.129313 0.000000 -0.168450 -0.120201 0.000000 -0.196281 0.130260 0.000000 -0.052837 -0.112065 0.000000 -0.264498 0.122472 0.000000 0.055352 -0.100409 0.000000 -0.316636 0.116849 0.000000 0.162463 -0.089935 0.000000 -0.355545 0.111487 0.000000 0.274280 -0.097264 0.000000 
0.691780 0.000953 0.000000 0.540232 -0.270037 0.000000 0.685950 0.065463 0.000000 0.450933 -0.195841 0.000000 0.517177 0.035533 0.000000 0.389362 0.131315 0.000000 0.838849 0.043786 0.000000 0.357380 0.080191 0.000000 1.056432 0.025562 0.000000 0.324088 0.054015 0.000000 1.215465 0.024323 0.000000 0.285932 0.028787 0.000000 1.348734 0.025532 0.000000 0.247583 0.020455 0.000000 1.456341 0.021924 0.000000 0.215528 0.006280 0.000000 1.558275 0.047354 0.000000 0.154575 -0.040706 0.000000 1.702202 0.099927 0.000000 0.030759 -0.091538 0.000000 1.896585 0.127911 0.000000 -0.124155 -0.099878 0.000000 2.091630 0.117124 0.000000 -0.262240 -0.077436 0.000000 2.248178 0.082940 0.000000 -0.351671 -0.035101 0.000000 2.339555 0.028547 0.000000 -0.370681 0.014974 0.000000 2.356525 -0.017633 0.000000 -0.333266 0.046917 0.000000 2.320275 -0.045139 0.000000 -0.263486 0.060103 0.000000 2.255561 -0.053030 0.000000 -0.188064 0.053566 0.000000 2.189440 -0.042856 0.000000 -0.130021 0.031332 0.000000 2.144326 -0.018487 0.000000 -0.108229 -0.001556 0.000000 2.137518 0.016288 0.000000 -0.133832 -0.040377 0.000000 2.176090 0.048794 0.000000 -0.202889 -0.065719 0.000000 2.244075 0.063104 0.000000 -0.291318 -0.070626 0.000000 2.313548 0.055963 0.000000 -0.367580 -0.052381 0.000000 2.352400 0.024012 0.000000 -0.400566 -0.009481 0.000000 2.328012 -0.029175 0.000000 -0.362710 0.039876 0.000000 2.230417 -0.074518 0.000000 -0.265066 0.070395 0.000000 2.080235 -0.099083 0.000000 -0.136135 0.082993 0.000000 1.897663 -0.112985 0.000000 0.007493 0.082138 0.000000 1.697232 -0.114544 0.000000 0.149806 0.068130 0.000000 1.490321 -0.107327 0.000000 0.280013 0.051902 0.000000 1.273922 -0.106428 0.000000 0.409339 0.038561 0.000000 1.032319 -0.111694 0.000000 0.549431 0.096392 0.000000 
2.218280 0.015372 0.000000 -0.071774 0.134035 0.000000 1.542561 0.031027 0.000000 -0.084515 0.270907 0.000000 0.709532 0.017846 0.000000 -0.051847 -0.337889 0.000000 1.604184 -0.011439 0.000000 -0.028291 -0.219651 0.000000 2.142636 -0.000318 0.000000 -0.013655 -0.153019 0.000000 2.514528 0.003512 0.000000 0.002371 -0.115291 0.000000 2.785174 0.000823 0.000000 0.018282 -0.084614 0.000000 2.999490 -0.008297 0.000000 0.025428 -0.064291 0.000000 3.171948 -0.005943 0.000000 0.041044 -0.065954 0.000000 3.288577 0.011693 0.000000 0.084340 -0.075678 0.000000 3.351015 0.019394 0.000000 0.140333 -0.069873 0.000000 3.389548 0.012121 0.000000 0.188425 -0.055430 0.000000 3.421707 -0.000413 0.000000 0.220265 -0.034852 0.000000 3.458225 -0.017881 0.000000 0.225960 -0.011887 0.000000 3.505610 -0.028058 0.000000 0.212651 0.003607 0.000000 3.554642 -0.029440 0.000000 0.190695 0.012435 0.000000 3.599023 -0.024289 0.000000 0.168120 0.014426 0.000000 3.631582 -0.014616 0.000000 0.151281 0.011303 0.000000 3.647178 -0.002493 0.000000 0.144592 0.003962 0.000000 3.641814 0.011923 0.000000 0.152935 -0.006657 0.000000 3.611228 0.024862 0.000000 0.175502 -0.012987 0.000000 3.561425 0.031212 0.000000 0.203378 -0.012844 0.000000 3.499872 0.030250 0.000000 0.227579 -0.005010 0.000000 3.434188 0.021045 0.000000 0.236919 0.013069 0.000000 3.375043 0.002983 0.000000 0.220204 0.035440 0.000000 3.323237 -0.010106 0.000000 0.185016 0.052223 0.000000 3.264779 -0.013713 0.000000 0.145373 0.066112 0.000000 3.188622 -0.014315 0.000000 0.104949 0.080230 0.000000 3.085540 -0.012053 0.000000 0.067979 0.094847 0.000000 2.942315 -0.007734 0.000000 0.035852 0.115989 0.000000 2.748791 -0.012477 0.000000 -0.002809 0.151669 0.000000 2.491598 -0.028605 0.000000 -0.063952 0.243274 0.000000 
2.226234 0.008775 0.000000 0.005363 0.405683 0.000000 1.700456 0.078204 0.000000 -0.025575 0.637188 0.000000 1.031420 0.002865 0.000000 -0.011023 -0.763337 0.000000 1.740071 0.020230 0.000000 -0.008161 -0.458261 0.000000 2.217244 0.010926 0.000000 0.009900 -0.317877 0.000000 2.561117 0.008297 0.000000 0.032735 -0.241859 0.000000 2.818779 0.009621 0.000000 0.055390 -0.193861 0.000000 3.022911 0.014777 0.000000 0.071459 -0.166178 0.000000 3.188279 0.031739 0.000000 0.086675 -0.157335 0.000000 3.311555 0.056631 0.000000 0.111055 -0.153976 0.000000 3.395630 0.071918 0.000000 0.137203 -0.138412 0.000000 3.456904 0.069032 0.000000 0.156500 -0.109594 0.000000 3.504344 0.051100 0.000000 0.167774 -0.071620 0.000000 3.544277 0.022852 0.000000 0.168472 -0.032410 0.000000 3.581493 -0.004324 0.000000 0.163342 -0.002115 0.000000 3.613365 -0.023184 0.000000 0.157088 0.015722 0.000000 3.638972 -0.030456 0.000000 0.152086 0.021008 0.000000 3.656451 -0.026017 0.000000 0.149953 0.015736 0.000000 3.664876 -0.011798 0.000000 0.150960 0.003808 0.000000 3.662293 0.007945 0.000000 0.156455 -0.009791 0.000000 3.646083 0.026227 0.000000 0.165659 -0.015916 0.000000 3.617254 0.035228 0.000000 0.175283 -0.009073 0.000000 3.577138 0.031762 0.000000 0.181878 0.013303 0.000000 3.526631 0.014672 0.000000 0.181631 0.049664 0.000000 3.468959 -0.012461 0.000000 0.169061 0.091683 0.000000 3.403448 -0.039330 0.000000 0.148966 0.128853 0.000000 3.323449 -0.059441 0.000000 0.128772 0.159150 0.000000 3.224733 -0.072561 0.000000 0.110054 0.185220 0.000000 3.102693 -0.077574 0.000000 0.094052 0.211355 0.000000 2.948406 -0.075200 0.000000 0.081532 0.245426 0.000000 2.752017 -0.067767 0.000000 0.064021 0.295754 0.000000 2.503386 -0.050551 0.000000 0.027903 0.369710 0.000000 
2.296673 0.037912 0.000000 -0.057535 0.659814 0.000000 1.856574 0.061964 0.000000 -0.058044 0.939943 0.000000 1.328028 0.003295 0.000000 -0.059615 -1.046540 0.000000 1.851666 -0.014301 0.000000 -0.033089 -0.696824 0.000000 2.283979 -0.018379 0.000000 -0.013152 -0.496891 0.000000 2.612252 -0.019322 0.000000 0.005843 -0.372953 0.000000 2.863071 -0.021832 0.000000 0.025348 -0.288746 0.000000 3.059988 -0.024366 0.000000 0.044606 -0.229659 0.000000 3.213909 -0.021159 0.000000 0.068638 -0.189230 0.000000 3.324427 -0.012687 0.000000 0.102532 -0.159753 0.000000 3.397443 -0.006754 0.000000 0.140698 -0.131146 0.000000 3.446465 -0.007176 0.000000 0.174659 -0.102870 0.000000 3.484353 -0.011686 0.000000 0.198322 -0.074784 0.000000 3.519215 -0.018579 0.000000 0.208111 -0.049103 0.000000 3.555759 -0.022927 0.000000 0.205602 -0.028265 0.000000 3.591315 -0.023186 0.000000 0.195750 -0.013171 0.000000 3.622812 -0.019287 0.000000 0.183391 -0.003053 0.000000 3.645807 -0.012483 0.000000 0.173613 0.002878 0.000000 3.657189 -0.003500 0.000000 0.169858 0.006545 0.000000 3.653478 0.006427 0.000000 0.174675 0.009553 0.000000 3.633095 0.015658 0.000000 0.186738 0.015842 0.000000 3.597425 0.021588 0.000000 0.201561 0.027272 0.000000 3.550575 0.023655 0.000000 0.212870 0.045497 0.000000 3.496559 0.021292 0.000000 0.214375 0.070741 0.000000 3.439732 0.015553 0.000000 0.201146 0.100951 0.000000 3.379310 0.009989 0.000000 0.175979 0.132221 0.000000 3.310121 0.006481 0.000000 0.144618 0.164828 0.000000 3.226224 0.004403 0.000000 0.110542 0.202270 0.000000 3.120675 0.003949 0.000000 0.076304 0.249134 0.000000 2.984641 0.004785 0.000000 0.042578 0.312379 0.000000 2.809039 0.005034 0.000000 0.006667 0.400300 0.000000 2.583852 0.007512 0.000000 -0.033522 0.520425 0.000000 
2.390615 0.032788 0.000000 0.018046 0.845781 0.000000 2.042090 0.078713 0.000000 0.000189 1.165734 0.000000 1.624792 0.004437 0.000000 -0.001915 -1.286975 0.000000 2.024551 -0.006296 0.000000 0.005634 -0.890574 0.000000 2.380101 -0.009011 0.000000 0.018138 -0.646150 0.000000 2.665729 -0.010698 0.000000 0.035870 -0.492678 0.000000 2.892812 -0.009884 0.000000 0.056526 -0.390778 0.000000 3.076570 -0.004481 0.000000 0.077228 -0.320099 0.000000 3.225616 0.007707 0.000000 0.097346 -0.267853 0.000000 3.339224 0.022736 0.000000 0.118490 -0.226991 0.000000 3.422814 0.033752 0.000000 0.137883 -0.187434 0.000000 3.484265 0.035071 0.000000 0.152843 -0.147482 0.000000 3.531918 0.027437 0.000000 0.161914 -0.106482 0.000000 3.570019 0.013064 0.000000 0.165191 -0.068954 0.000000 3.602601 -0.001816 0.000000 0.164274 -0.037671 0.000000 3.629070 -0.013332 0.000000 0.162076 -0.015776 0.000000 3.649882 -0.018097 0.000000 0.159982 -0.001987 0.000000 3.663299 -0.016239 0.000000 0.159589 0.004354 0.000000 3.669207 -0.008044 0.000000 0.161045 0.007519 0.000000 3.665714 0.003129 0.000000 0.165129 0.010591 0.000000 3.652481 0.014164 0.000000 0.170700 0.019755 0.000000 3.628735 0.020404 0.000000 0.176124 0.037777 0.000000 3.595396 0.020453 0.000000 0.178299 0.067319 0.000000 3.551932 0.013167 0.000000 0.174603 0.106491 0.000000 3.499178 0.000768 0.000000 0.162347 0.152105 0.000000 3.435053 -0.014163 0.000000 0.144194 0.198042 0.000000 3.357317 -0.028080 0.000000 0.124910 0.243047 0.000000 3.264738 -0.038485 0.000000 0.106952 0.290768 0.000000 3.153921 -0.043336 0.000000 0.091081 0.347389 0.000000 3.018741 -0.041474 0.000000 0.076395 0.421028 0.000000 2.852064 -0.031856 0.000000 0.059057 0.520941 0.000000 2.646246 -0.010362 0.000000 0.034806 0.656889 0.000000 
2.516990 0.054672 0.000000 -0.023933 1.008339 0.000000 2.229506 0.079821 0.000000 -0.030488 1.357240 0.000000 1.898593 0.005400 0.000000 -0.032839 -1.446298 0.000000 2.194453 -0.021850 0.000000 -0.020130 -1.052374 0.000000 2.490930 -0.030883 0.000000 -0.004707 -0.782520 0.000000 2.744820 -0.037055 0.000000 0.013466 -0.600036 0.000000 2.953164 -0.042488 0.000000 0.035137 -0.472504 0.000000 3.123535 -0.045068 0.000000 0.059693 -0.378705 0.000000 3.260838 -0.041278 0.000000 0.086138 -0.302839 0.000000 3.361356 -0.033831 0.000000 0.115180 -0.243343 0.000000 3.433591 -0.026147 0.000000 0.143281 -0.192597 0.000000 3.483989 -0.022136 0.000000 0.167924 -0.150523 0.000000 3.523739 -0.020758 0.000000 0.185236 -0.112885 0.000000 3.556416 -0.021856 0.000000 0.194750 -0.081686 0.000000 3.587499 -0.022010 0.000000 0.196116 -0.054734 0.000000 3.614548 -0.020988 0.000000 0.192929 -0.033983 0.000000 3.638122 -0.017192 0.000000 0.187126 -0.016471 0.000000 3.653727 -0.012091 0.000000 0.182872 -0.003030 0.000000 3.661260 -0.004956 0.000000 0.181350 0.010038 0.000000 3.656903 0.002343 0.000000 0.184853 0.022787 0.000000 3.641802 0.010088 0.000000 0.191422 0.039588 0.000000 3.614681 0.016164 0.000000 0.199285 0.060611 0.000000 3.579005 0.021481 0.000000 0.203134 0.088960 0.000000 3.534689 0.024988 0.000000 0.199437 0.123494 0.000000 3.484339 0.027809 0.000000 0.184133 0.165077 0.000000 3.425071 0.028142 0.000000 0.160053 0.209958 0.000000 3.356492 0.025765 0.000000 0.131768 0.257406 0.000000 3.277342 0.022361 0.000000 0.102434 0.313087 0.000000 3.183223 0.019820 0.000000 0.073699 0.384314 0.000000 3.067606 0.019472 0.000000 0.045827 0.479056 0.000000 2.923442 0.022372 0.000000 0.018155 0.606118 0.000000 2.743291 0.031763 0.000000 -0.008256 0.776056 0.000000 
2.648634 0.048464 0.000000 0.027943 1.133266 0.000000 2.423685 0.085268 0.000000 0.016666 1.496647 0.000000 2.171290 0.006788 0.000000 0.014335 -1.582835 0.000000 2.388531 -0.019004 0.000000 0.017684 -1.187051 0.000000 2.618970 -0.024434 0.000000 0.025535 -0.900040 0.000000 2.828228 -0.028871 0.000000 0.039414 -0.701022 0.000000 3.008803 -0.031555 0.000000 0.059786 -0.561148 0.000000 3.164009 -0.029037 0.000000 0.084970 -0.457402 0.000000 3.296778 -0.018737 0.000000 0.109071 -0.368371 0.000000 3.395853 -0.006306 0.000000 0.129423 -0.299227 0.000000 3.471120 0.005651 0.000000 0.144888 -0.237833 0.000000 3.524956 0.010427 0.000000 0.156097 -0.187232 0.000000 3.568373 0.010126 0.000000 0.162803 -0.139158 0.000000 3.600876 0.003550 0.000000 0.166252 -0.100038 0.000000 3.629233 -0.003182 0.000000 0.166789 -0.064720 0.000000 3.650094 -0.010145 0.000000 0.166628 -0.039350 0.000000 3.667545 -0.012293 0.000000 0.166058 -0.017592 0.000000 3.677267 -0.011985 0.000000 0.166796 -0.003179 0.000000 3.682474 -0.006521 0.000000 0.168396 0.011876 0.000000 3.678857 -0.000375 0.000000 0.171878 0.025692 0.000000 3.669352 0.007596 0.000000 0.175769 0.046875 0.000000 3.650127 0.012541 0.000000 0.179562 0.073453 0.000000 3.623956 0.016605 0.000000 0.180173 0.111635 0.000000 3.586830 0.016864 0.000000 0.175381 0.156841 0.000000 3.540475 0.016072 0.000000 0.161470 0.211373 0.000000 3.479628 0.009917 0.000000 0.140120 0.266621 0.000000 3.405591 0.000206 0.000000 0.118282 0.322198 0.000000 3.322955 -0.009151 0.000000 0.099491 0.384887 0.000000 3.229930 -0.014601 0.000000 0.083999 0.463007 0.000000 3.121428 -0.013602 0.000000 0.070262 0.565191 0.000000 2.991980 -0.004184 0.000000 0.056001 0.701093 0.000000 2.836373 0.016050 0.000000 0.040335 0.883190 0.000000 
2.791279 0.067064 0.000000 -0.002825 1.233288 0.000000 2.614264 0.091098 0.000000 -0.008405 1.609635 0.000000 2.422693 0.007731 0.000000 -0.010555 -1.663540 0.000000 2.573925 -0.025200 0.000000 -0.005931 -1.282812 0.000000 2.752689 -0.038734 0.000000 0.003929 -0.991778 0.000000 2.926322 -0.050935 0.000000 0.019754 -0.780611 0.000000 3.082636 -0.062859 0.000000 0.043442 -0.627710 0.000000 3.221278 -0.070253 0.000000 0.073988 -0.511473 0.000000 3.343727 -0.065379 0.000000 0.103820 -0.401914 0.000000 3.426734 -0.054183 0.000000 0.130525 -0.318610 0.000000 3.491139 -0.041612 0.000000 0.151488 -0.246433 0.000000 3.532599 -0.033345 0.000000 0.169352 -0.193941 0.000000 3.569851 -0.027463 0.000000 0.181112 -0.145388 0.000000 3.595285 -0.025305 0.000000 0.189361 -0.110043 0.000000 3.622528 -0.022548 0.000000 0.191452 -0.075595 0.000000 3.640912 -0.020827 0.000000 0.191910 -0.051434 0.000000 3.660447 -0.016623 0.000000 0.189200 -0.026192 0.000000 3.669394 -0.012829 0.000000 0.188524 -0.008237 0.000000 3.676695 -0.006555 0.000000 0.187887 0.013655 0.000000 3.671413 -0.001139 0.000000 0.191405 0.032292 0.000000 3.662802 0.006197 0.000000 0.195080 0.058812 0.000000 3.641519 0.012372 0.000000 0.200505 0.086783 0.000000 3.616925 0.020869 0.000000 0.201098 0.126086 0.000000 3.579993 0.029780 0.000000 0.195651 0.169849 0.000000 3.537984 0.041720 0.000000 0.176556 0.225924 0.000000 3.479640 0.049492 0.000000 0.148508 0.283994 0.000000 3.412891 0.047603 0.000000 0.119033 0.340042 0.000000 3.343031 0.041152 0.000000 0.091938 0.406112 0.000000 3.266965 0.035313 0.000000 0.067820 0.492815 0.000000 3.178667 0.033209 0.000000 0.045978 0.608504 0.000000 3.072627 0.036632 0.000000 0.025886 0.761725 0.000000 2.944550 0.047430 0.000000 0.008596 0.963795 0.000000 
2.934710 0.059885 0.000000 0.035828 1.310280 0.000000 2.805332 0.090848 0.000000 0.029706 1.688218 0.000000 2.672008 0.008937 0.000000 0.027721 -1.734067 0.000000 2.767709 -0.023628 0.000000 0.026357 -1.365815 0.000000 2.893663 -0.034294 0.000000 0.028907 -1.073673 0.000000 3.025894 -0.044697 0.000000 0.038076 -0.857336 0.000000 3.153765 -0.055243 0.000000 0.058625 -0.699791 0.000000 3.277318 -0.059583 0.000000 0.093188 -0.579851 0.000000 3.400995 -0.048570 0.000000 0.128402 -0.451378 0.000000 3.476532 -0.033010 0.000000 0.146243 -0.363632 0.000000 3.539862 -0.015312 0.000000 0.158974 -0.279293 0.000000 3.576307 -0.007437 0.000000 0.163563 -0.224484 0.000000 3.615121 -0.001635 0.000000 0.168899 -0.164591 0.000000 3.636112 -0.004699 0.000000 0.169296 -0.127281 0.000000 3.662844 -0.005273 0.000000 0.171498 -0.083104 0.000000 3.674681 -0.010603 0.000000 0.170303 -0.058885 0.000000 3.692456 -0.009584 0.000000 0.172047 -0.026540 0.000000 3.695866 -0.011309 0.000000 0.171676 -0.010480 0.000000 3.704258 -0.005884 0.000000 0.174987 0.017159 0.000000 3.698205 -0.003893 0.000000 0.176686 0.034303 0.000000 3.696017 0.003921 0.000000 0.181839 0.068159 0.000000 3.679130 0.007116 0.000000 0.184272 0.098047 0.000000 3.664127 0.016012 0.000000 0.187793 0.148567 0.000000 3.632040 0.022311 0.000000 0.183242 0.198851 0.000000 3.596325 0.035166 0.000000 0.169921 0.269716 0.000000 3.535582 0.037965 0.000000 0.137456 0.333370 0.000000 3.461289 0.029681 0.000000 0.107760 0.392057 0.000000 3.391046 0.017944 0.000000 0.087115 0.460953 0.000000 3.321022 0.009517 0.000000 0.073299 0.551304 0.000000 3.244156 0.008240 0.000000 0.062788 0.671232 0.000000 3.155585 0.015908 0.000000 0.053140 0.829170 0.000000 3.052670 0.033339 0.000000 0.043745 1.036462 0.000000 
3.078336 0.074980 0.000000 0.012373 1.362666 0.000000 2.988103 0.097221 0.000000 0.009130 1.742960 0.000000 2.901281 0.009716 0.000000 0.007405 -1.759241 0.000000 2.950330 -0.023836 0.000000 0.005698 -1.408766 0.000000 3.034213 -0.041285 0.000000 0.008567 -1.124009 0.000000 3.132816 -0.060103 0.000000 0.018890 -0.908482 0.000000 3.235181 -0.083408 0.000000 0.043689 -0.751263 0.000000 3.341348 -0.104815 0.000000 0.087009 -0.635151 0.000000 3.463965 -0.100593 0.000000 0.131173 -0.477451 0.000000 3.512268 -0.072024 0.000000 0.151375 -0.381940 0.000000 3.569861 -0.054344 0.000000 0.166839 -0.282878 0.000000 3.586839 -0.037934 0.000000 0.175128 -0.232754 0.000000 3.626498 -0.032799 0.000000 0.183632 -0.166379 0.000000 3.633378 -0.025701 0.000000 0.187768 -0.136775 0.000000 3.665110 -0.024751 0.000000 0.190937 -0.087432 0.000000 3.666711 -0.019632 0.000000 0.191307 -0.069209 0.000000 3.692075 -0.018367 0.000000 0.191448 -0.029602 0.000000 3.687167 -0.012458 0.000000 0.191352 -0.016630 0.000000 3.703803 -0.009866 0.000000 0.192475 0.019709 0.000000 3.689974 -0.002839 0.000000 0.195150 0.034479 0.000000 3.696221 0.001044 0.000000 0.199052 0.075699 0.000000 3.672838 0.009938 0.000000 0.203703 0.101786 0.000000 3.667936 0.017349 0.000000 0.206483 0.158173 0.000000 3.632164 0.034331 0.000000 0.202624 0.205565 0.000000 3.608033 0.055041 0.000000 0.181045 0.286666 0.000000 3.540220 0.081957 0.000000 0.139816 0.358287 0.000000 3.470632 0.077298 0.000000 0.103174 0.410285 0.000000 3.414002 0.061797 0.000000 0.076897 0.476137 0.000000 3.362064 0.049129 0.000000 0.057955 0.569681 0.000000 3.305833 0.043720 0.000000 0.042859 0.697075 0.000000 3.240436 0.046280 0.000000 0.029979 0.864640 0.000000 3.164242 0.056824 0.000000 0.019498 1.081755 0.000000 
3.221896 0.067010 0.000000 0.042488 1.400514 0.000000 3.169659 0.094091 0.000000 0.040388 1.775039 0.000000 3.127684 0.010662 0.000000 0.038907 -1.783116 0.000000 3.134116 -0.021921 0.000000 0.032532 -1.449698 0.000000 3.174913 -0.037163 0.000000 0.027189 -1.172276 0.000000 3.235437 -0.055020 0.000000 0.025842 -0.959701 0.000000 3.308693 -0.080041 0.000000 0.040124 -0.805957 0.000000 3.401212 -0.102903 0.000000 0.091858 -0.702468 0.000000 3.551426 -0.092734 0.000000 0.179786 -0.499681 0.000000 3.569843 -0.053213 0.000000 0.162272 -0.421225 0.000000 3.633717 -0.030775 0.000000 0.190906 -0.296271 0.000000 3.625802 -0.015726 0.000000 0.162073 -0.264143 0.000000 3.679353 -0.010138 0.000000 0.189069 -0.171471 0.000000 3.665660 -0.008836 0.000000 0.161976 -0.159012 0.000000 3.711536 -0.008442 0.000000 0.188518 -0.084706 0.000000 3.692890 -0.010972 0.000000 0.162242 -0.084249 0.000000 3.732256 -0.009725 0.000000 0.188914 -0.021632 0.000000 3.708688 -0.011212 0.000000 0.163967 -0.027115 0.000000 3.741361 -0.007007 0.000000 0.191837 0.030987 0.000000 3.712707 -0.006568 0.000000 0.169061 0.028056 0.000000 3.738717 0.000019 0.000000 0.198907 0.091541 0.000000 3.705241 0.002465 0.000000 0.178362 0.102949 0.000000 3.723912 0.013233 0.000000 0.210122 0.184339 0.000000 3.681470 0.026169 0.000000 0.188666 0.222982 0.000000 3.680890 0.056745 0.000000 0.208059 0.337530 0.000000 3.597972 0.079195 0.000000 0.134230 0.402958 0.000000 3.510304 0.066323 0.000000 0.086426 0.448687 0.000000 3.458477 0.044221 0.000000 0.066033 0.512891 0.000000 3.418483 0.028459 0.000000 0.057893 0.607536 0.000000 3.376982 0.023336 0.000000 0.053519 0.736629 0.000000 3.329909 0.028788 0.000000 0.049696 0.905363 0.000000 3.277333 0.043820 0.000000 0.045858 1.122367 0.000000 
3.359604 0.078350 0.000000 0.024195 1.414902 0.000000 3.339831 0.099321 0.000000 0.023866 1.784935 0.000000 3.335017 0.011197 0.000000 0.022692 -1.765673 0.000000 3.305587 -0.017460 0.000000 0.015440 -1.449563 0.000000 3.311753 -0.035942 0.000000 0.008380 -1.184533 0.000000 3.342048 -0.058756 0.000000 0.004073 -0.981737 0.000000 3.390426 -0.097691 0.000000 0.017982 -0.843782 0.000000 3.464326 -0.156549 0.000000 0.080900 -0.785365 0.000000 3.649306 -0.188520 0.000000 0.209056 -0.495867 0.000000 3.593297 -0.054510 0.000000 0.159741 -0.445814 0.000000 3.683793 -0.082978 0.000000 0.206278 -0.274963 0.000000 3.623069 -0.009101 0.000000 0.162488 -0.286306 0.000000 3.712955 -0.059795 0.000000 0.206966 -0.152685 0.000000 3.649641 0.001392 0.000000 0.169345 -0.182651 0.000000 3.735959 -0.051292 0.000000 0.209017 -0.068786 0.000000 3.670353 0.006644 0.000000 0.173327 -0.108575 0.000000 3.753007 -0.045038 0.000000 0.209260 -0.006033 0.000000 3.684020 0.012489 0.000000 0.175695 -0.049304 0.000000 3.761367 -0.037736 0.000000 0.210519 0.048363 0.000000 3.688410 0.019937 0.000000 0.180860 0.008469 0.000000 3.760397 -0.028802 0.000000 0.216623 0.109175 0.000000 3.685026 0.030483 0.000000 0.191920 0.083116 0.000000 3.753230 -0.014411 0.000000 0.230142 0.200614 0.000000 3.673881 0.055787 0.000000 0.208912 0.206145 0.000000 3.727737 0.035647 0.000000 0.219285 0.369585 0.000000 3.592635 0.155786 0.000000 0.129145 0.445955 0.000000 3.511774 0.125102 0.000000 0.074708 0.462113 0.000000 3.480050 0.082191 0.000000 0.052362 0.516131 0.000000 3.461148 0.057268 0.000000 0.042805 0.611181 0.000000 3.440432 0.048094 0.000000 0.036670 0.744149 0.000000 3.415199 0.050104 0.000000 0.031348 0.917216 0.000000 3.386970 0.060662 0.000000 0.026957 1.137192 0.000000 
3.497214 0.069772 0.000000 0.048795 1.420287 0.000000 3.508188 0.094419 0.000000 0.050663 1.779854 0.000000 3.538862 0.011836 0.000000 0.049789 -1.753687 0.000000 3.475345 -0.014669 0.000000 0.040074 -1.455864 0.000000 3.444795 -0.030103 0.000000 0.025536 -1.202571 0.000000 3.436300 -0.050713 0.000000 0.002382 -1.008079 0.000000 3.445245 -0.093950 0.000000 -0.024870 -0.879858 0.000000 3.496890 -0.165821 0.000000 -0.006471 -0.887448 0.000000 3.822226 -0.220890 0.000000 0.393023 -0.443672 0.000000 3.607356 -0.003897 0.000000 0.064666 -0.511720 0.000000 3.802715 -0.077313 0.000000 0.330140 -0.235548 0.000000 3.605260 0.028064 0.000000 0.038715 -0.354030 0.000000 3.820388 -0.054615 0.000000 0.318604 -0.108157 0.000000 3.623408 0.028785 0.000000 0.036427 -0.245330 0.000000 3.837467 -0.048114 0.000000 0.315936 -0.019099 0.000000 3.638168 0.024717 0.000000 0.037287 -0.166903 0.000000 3.850158 -0.045658 0.000000 0.316252 0.047355 0.000000 3.648276 0.022353 0.000000 0.040056 -0.104462 0.000000 3.857060 -0.041832 0.000000 0.318870 0.103944 0.000000 3.653781 0.023091 0.000000 0.046083 -0.043931 0.000000 3.860272 -0.035744 0.000000 0.326037 0.166912 0.000000 3.658351 0.027168 0.000000 0.057863 0.034745 0.000000 3.867211 -0.024989 0.000000 0.341832 0.263688 0.000000 3.670428 0.047399 0.000000 0.079376 0.169126 0.000000 3.884950 0.046372 0.000000 0.398325 0.472632 0.000000 3.630819 0.169335 0.000000 0.099054 0.483819 0.000000 3.522340 0.120761 0.000000 0.031207 0.480411 0.000000 3.517160 0.066567 0.000000 0.030126 0.531793 0.000000 3.518439 0.038016 0.000000 0.037741 0.628251 0.000000 3.514059 0.029471 0.000000 0.043368 0.761862 0.000000 3.506196 0.034110 0.000000 0.046349 0.933591 0.000000 3.498891 0.048211 0.000000 0.047789 1.149734 0.000000 
3.625414 0.077344 0.000000 0.034627 1.403928 0.000000 3.663356 0.097453 0.000000 0.038108 1.754261 0.000000 3.724401 0.012070 0.000000 0.037575 -1.702156 0.000000 3.631290 -0.007745 0.000000 0.028258 -1.419013 0.000000 3.570619 -0.021404 0.000000 0.012568 -1.176038 0.000000 3.533086 -0.035602 0.000000 -0.017814 -0.990683 0.000000 3.515807 -0.070439 0.000000 -0.067688 -0.895427 0.000000 3.541243 -0.174948 0.000000 -0.051462 -1.110700 0.000000 3.758745 -0.588015 0.000000 0.207028 -0.280998 0.000000 3.525309 0.273847 0.000000 -0.059829 -0.641172 0.000000 3.746427 -0.348452 0.000000 0.194312 -0.077508 0.000000 3.514337 0.282323 0.000000 -0.052748 -0.501434 0.000000 3.770016 -0.339684 0.000000 0.226294 0.044294 0.000000 3.516023 0.283569 0.000000 -0.033898 -0.396709 0.000000 3.791007 -0.330801 0.000000 0.254022 0.130512 0.000000 3.520744 0.285292 0.000000 -0.018873 -0.320565 0.000000 3.809141 -0.324004 0.000000 0.276055 0.195848 0.000000 3.525508 0.288685 0.000000 -0.006794 -0.258088 0.000000 3.823306 -0.316550 0.000000 0.296308 0.251642 0.000000 3.529061 0.292724 0.000000 0.006880 -0.198022 0.000000 3.837149 -0.308755 0.000000 0.322137 0.311096 0.000000 3.535911 0.298657 0.000000 0.027704 -0.125744 0.000000 3.864956 -0.298380 0.000000 0.364426 0.397398 0.000000 3.567411 0.318243 0.000000 0.078505 -0.008377 0.000000 3.946934 -0.283301 0.000000 0.506029 0.623716 0.000000 3.549276 0.455057 0.000000 0.073882 0.554434 0.000000 3.503526 0.192949 0.000000 0.004443 0.467292 0.000000 3.539146 0.083272 0.000000 0.011719 0.514851 0.000000 3.564066 0.049654 0.000000 0.023169 0.615561 0.000000 3.578413 0.042467 0.000000 0.029396 0.752013 0.000000 3.589487 0.047123 0.000000 0.031918 0.924521 0.000000 3.603207 0.059222 0.000000 0.033100 1.138868 0.000000 