# vtk DataFile Version 2.0
Comment goes here
ASCII

DATASET STRUCTURED_POINTS
FIELD FieldData 1
TIME 1 1 double
0.01500000
DIMENSIONS    64   64   1

ORIGIN    0.000   0.000   0.000
SPACING   0.03125 0.03125   1.000

POINT_DATA   4096
VECTORS u double

0.115480 -0.002098 0.000000 -0.609212 -0.001955 0.000000 0.443193 0.002153 0.000000 -0.671610 -0.001674 0.000000 0.435901 -0.001114 0.000000 -0.596880 -0.001822 0.000000 0.315800 0.002247 0.000000 -0.455599 -0.001758 0.000000 0.168985 0.001752 0.000000 -0.290217 -0.001813 0.000000 0.014716 0.001507 0.000000 -0.130594 -0.001788 0.000000 -0.119294 0.001424 0.000000 -0.001626 -0.001898 0.000000 -0.218290 0.001446 0.000000 0.088934 -0.001891 0.000000 -0.275837 0.001498 0.000000 0.134395 -0.001854 0.000000 -0.291968 0.001561 0.000000 0.138655 -0.001832 0.000000 -0.273370 0.001401 0.000000 0.115296 -0.001479 0.000000 -0.237515 0.001203 0.000000 0.085384 -0.001320 0.000000 -0.205901 0.001224 0.000000 0.062254 -0.001238 0.000000 -0.184675 0.001107 0.000000 0.050471 -0.001066 0.000000 -0.173684 0.001025 0.000000 0.046060 -0.000887 0.000000 -0.169279 0.000713 0.000000 0.049351 -0.000515 0.000000 -0.172214 0.000441 0.000000 0.051390 -0.000112 0.000000 -0.162113 -0.000007 0.000000 0.029289 0.000234 0.000000 -0.130914 -0.000162 0.000000 0.007215 0.000220 0.000000 -0.122990 -0.000227 0.000000 0.017034 0.000363 0.000000 -0.140112 -0.000235 0.000000 0.032626 0.000681 0.000000 -0.146773 -0.000517 0.000000 0.025375 0.000937 0.000000 -0.123238 -0.000820 0.000000 -0.012888 0.001414 0.000000 -0.070013 -0.001227 0.000000 -0.076817 0.001902 0.000000 -0.005319 -0.001565 0.000000 -0.135761 0.002216 0.000000 0.038887 -0.001774 0.000000 -0.158600 0.002370 0.000000 0.032238 -0.002020 0.000000 -0.124720 0.002516 0.000000 -0.031655 -0.002027 0.000000 -0.046845 0.002395 0.000000 -0.124214 -0.002008 0.000000 0.041038 0.002278 0.000000 -0.204811 -0.001965 0.000000 0.086532 0.002156 0.000000 -0.214288 -0.002033 0.000000 0.033696 0.002185 0.000000 -0.111139 -0.002225 0.000000 -0.127307 0.002736 0.000000 
-0.010281 0.236409 0.000000 0.337158 -0.164584 0.000000 -0.414549 0.032386 0.000000 0.409480 0.001758 0.000000 -0.426487 -0.032996 0.000000 0.368247 0.058119 0.000000 -0.353675 -0.069239 0.000000 0.287465 0.071533 0.000000 -0.278866 -0.080974 0.000000 0.193833 0.075327 0.000000 -0.201346 -0.077923 0.000000 0.101605 0.065184 0.000000 -0.133421 -0.062500 0.000000 0.023924 0.047672 0.000000 -0.080762 -0.043278 0.000000 -0.035830 0.026916 0.000000 -0.046715 -0.020745 0.000000 -0.073054 0.006297 0.000000 -0.031099 -0.000310 0.000000 -0.090155 -0.010921 0.000000 -0.032222 0.013336 0.000000 -0.091967 -0.019579 0.000000 -0.042036 0.016595 0.000000 -0.089697 -0.017358 0.000000 -0.049029 0.013020 0.000000 -0.089559 -0.011922 0.000000 -0.050987 0.007089 0.000000 -0.095128 -0.006633 0.000000 -0.046610 0.003209 0.000000 -0.105350 -0.003095 0.000000 -0.037518 -0.000889 0.000000 -0.121401 0.000738 0.000000 -0.021088 -0.000349 0.000000 -0.138538 -0.005475 0.000000 -0.011941 0.011193 0.000000 -0.138713 -0.015652 0.000000 -0.018907 0.010885 0.000000 -0.136503 -0.003803 0.000000 -0.011563 -0.005169 0.000000 -0.155189 0.008747 0.000000 0.012529 -0.008043 0.000000 -0.176266 0.003810 0.000000 0.029385 0.002756 0.000000 -0.183104 -0.010830 0.000000 0.029345 0.017920 0.000000 -0.173655 -0.025341 0.000000 0.014131 0.030253 0.000000 -0.148746 -0.030631 0.000000 -0.007882 0.027347 0.000000 -0.125665 -0.020130 0.000000 -0.019607 0.009122 0.000000 -0.119553 0.005358 0.000000 -0.005929 -0.019290 0.000000 -0.141528 0.034130 0.000000 0.036591 -0.041477 0.000000 -0.184129 0.048760 0.000000 0.093786 -0.046635 0.000000 -0.232641 0.042848 0.000000 0.148410 -0.025364 0.000000 -0.262992 0.007211 0.000000 0.169388 0.023905 0.000000 -0.242222 -0.049071 0.000000 0.130480 0.077855 0.000000 -0.160554 -0.110530 0.000000 
0.465935 -0.499811 0.000000 0.393821 0.402313 0.000000 0.058800 -0.070169 0.000000 0.450854 0.010264 0.000000 0.084774 0.040119 0.000000 0.396784 -0.074635 0.000000 0.157864 0.083029 0.000000 0.297225 -0.076566 0.000000 0.287694 0.095384 0.000000 0.185988 -0.079334 0.000000 0.428053 0.093735 0.000000 0.081248 -0.069713 0.000000 0.551636 0.079104 0.000000 -0.001392 -0.054557 0.000000 0.648399 0.061200 0.000000 -0.059424 -0.035937 0.000000 0.714146 0.038723 0.000000 -0.088798 -0.017470 0.000000 0.749498 0.018662 0.000000 -0.093040 -0.000709 0.000000 0.758482 0.003214 0.000000 -0.080299 0.008336 0.000000 0.752722 -0.001068 0.000000 -0.064819 0.005673 0.000000 0.748370 0.001087 0.000000 -0.055057 0.000720 0.000000 0.749238 0.006676 0.000000 -0.054045 -0.005444 0.000000 0.755817 0.011247 0.000000 -0.058830 -0.009979 0.000000 0.765891 0.016764 0.000000 -0.070470 -0.016944 0.000000 0.781852 0.017579 0.000000 -0.082523 -0.009259 0.000000 0.786409 0.000168 0.000000 -0.074296 0.007201 0.000000 0.770545 -0.002373 0.000000 -0.064997 -0.007124 0.000000 0.772185 0.018459 0.000000 -0.082577 -0.023729 0.000000 0.793186 0.020843 0.000000 -0.104647 -0.016176 0.000000 0.804302 0.006321 0.000000 -0.110003 0.000977 0.000000 0.791790 -0.010268 0.000000 -0.093764 0.016628 0.000000 0.756055 -0.026137 0.000000 -0.058177 0.023915 0.000000 0.708627 -0.024646 0.000000 -0.025399 0.013941 0.000000 0.671583 -0.007886 0.000000 -0.016320 -0.011307 0.000000 0.665939 0.019954 0.000000 -0.045927 -0.040005 0.000000 0.696755 0.040574 0.000000 -0.105470 -0.054800 0.000000 0.744751 0.046504 0.000000 -0.173804 -0.052345 0.000000 0.784302 0.028385 0.000000 -0.216285 -0.018822 0.000000 0.773331 -0.022802 0.000000 -0.189806 0.041093 0.000000 0.680036 -0.083893 0.000000 -0.080172 0.143497 0.000000 
0.497825 -0.237585 0.000000 -0.193741 0.242551 0.000000 0.515583 -0.024648 0.000000 -0.188968 -0.024216 0.000000 0.122600 0.021074 0.000000 -0.148991 -0.014970 0.000000 0.428672 0.030320 0.000000 -0.099121 -0.058297 0.000000 0.620469 0.030263 0.000000 -0.055372 -0.065032 0.000000 0.747506 0.026817 0.000000 -0.018110 -0.058399 0.000000 0.840274 0.020141 0.000000 0.009530 -0.049091 0.000000 0.912596 0.014753 0.000000 0.029349 -0.038831 0.000000 0.972716 0.008629 0.000000 0.039480 -0.029054 0.000000 1.024757 0.003932 0.000000 0.041618 -0.019905 0.000000 1.071885 0.000595 0.000000 0.037354 -0.013819 0.000000 1.112994 0.001115 0.000000 0.032695 -0.013006 0.000000 1.143548 0.003258 0.000000 0.030053 -0.012790 0.000000 1.165269 0.006077 0.000000 0.030612 -0.013212 0.000000 1.179115 0.007994 0.000000 0.033086 -0.013169 0.000000 1.187134 0.010750 0.000000 0.038921 -0.015224 0.000000 1.186672 0.011704 0.000000 0.046121 -0.010032 0.000000 1.188124 0.002967 0.000000 0.040868 0.000213 0.000000 1.199060 0.001586 0.000000 0.033591 -0.005443 0.000000 1.196713 0.012411 0.000000 0.041615 -0.012254 0.000000 1.179332 0.014027 0.000000 0.051569 -0.007306 0.000000 1.163043 0.008111 0.000000 0.053036 0.001681 0.000000 1.152296 0.001681 0.000000 0.045795 0.010393 0.000000 1.145466 -0.005335 0.000000 0.028685 0.016797 0.000000 1.138381 -0.005431 0.000000 0.011688 0.016914 0.000000 1.121147 0.000042 0.000000 0.002898 0.011003 0.000000 1.084294 0.010318 0.000000 0.009921 0.003313 0.000000 1.023583 0.018065 0.000000 0.029889 0.000765 0.000000 0.943077 0.021699 0.000000 0.058391 0.003296 0.000000 0.843961 0.017117 0.000000 0.086943 0.018182 0.000000 0.734370 -0.002575 0.000000 0.101777 0.044224 0.000000 0.615651 -0.031779 0.000000 0.112975 0.103570 0.000000 
0.657397 -0.193095 0.000000 -0.098149 0.384555 0.000000 0.597940 -0.074942 0.000000 -0.088851 0.403247 0.000000 0.231495 0.000143 0.000000 -0.068296 -0.380706 0.000000 0.548167 0.033159 0.000000 -0.043779 -0.268363 0.000000 0.726995 0.051635 0.000000 -0.024535 -0.206371 0.000000 0.845939 0.056472 0.000000 -0.008954 -0.162482 0.000000 0.934182 0.051465 0.000000 0.002630 -0.126879 0.000000 1.002845 0.041381 0.000000 0.011988 -0.096058 0.000000 1.057966 0.028592 0.000000 0.018191 -0.069511 0.000000 1.102764 0.016525 0.000000 0.021733 -0.047837 0.000000 1.140141 0.007477 0.000000 0.022835 -0.032773 0.000000 1.170883 0.003592 0.000000 0.023741 -0.024881 0.000000 1.193797 0.003728 0.000000 0.025099 -0.021001 0.000000 1.210584 0.006117 0.000000 0.027254 -0.019289 0.000000 1.222190 0.008773 0.000000 0.029572 -0.017998 0.000000 1.229745 0.010929 0.000000 0.033182 -0.016482 0.000000 1.231656 0.010378 0.000000 0.037557 -0.010711 0.000000 1.233220 0.005421 0.000000 0.035354 -0.003735 0.000000 1.238891 0.004904 0.000000 0.031690 -0.004778 0.000000 1.236836 0.010436 0.000000 0.035529 -0.006348 0.000000 1.226200 0.010888 0.000000 0.039987 0.000113 0.000000 1.214598 0.004854 0.000000 0.040376 0.011724 0.000000 1.203373 -0.003028 0.000000 0.036898 0.023459 0.000000 1.191393 -0.009027 0.000000 0.028442 0.031000 0.000000 1.177181 -0.007648 0.000000 0.019171 0.031176 0.000000 1.156666 0.000904 0.000000 0.012272 0.025545 0.000000 1.125899 0.012931 0.000000 0.011554 0.020706 0.000000 1.082501 0.020605 0.000000 0.016313 0.025706 0.000000 1.026924 0.018002 0.000000 0.026136 0.046771 0.000000 0.956604 -0.000166 0.000000 0.038983 0.090769 0.000000 0.871990 -0.037636 0.000000 0.048860 0.159812 0.000000 0.769027 -0.095091 0.000000 0.056540 0.261323 0.000000 
0.626171 -0.082895 0.000000 -0.089062 0.302008 0.000000 0.546133 -0.033946 0.000000 -0.110882 0.342229 0.000000 0.361934 0.000519 0.000000 -0.111478 -0.331642 0.000000 0.539881 0.005803 0.000000 -0.080568 -0.237125 0.000000 0.684363 0.011019 0.000000 -0.050446 -0.183976 0.000000 0.793819 0.011236 0.000000 -0.023036 -0.146642 0.000000 0.878291 0.008556 0.000000 -0.000318 -0.117754 0.000000 0.945841 0.005395 0.000000 0.017007 -0.093952 0.000000 1.001786 0.002425 0.000000 0.027997 -0.073852 0.000000 1.049114 0.000390 0.000000 0.033169 -0.057282 0.000000 1.089821 -0.000507 0.000000 0.034003 -0.044561 0.000000 1.123931 0.000209 0.000000 0.033273 -0.035920 0.000000 1.150594 0.001899 0.000000 0.032858 -0.029578 0.000000 1.170212 0.003923 0.000000 0.033711 -0.024818 0.000000 1.183652 0.005677 0.000000 0.035774 -0.020723 0.000000 1.191879 0.007140 0.000000 0.038976 -0.017135 0.000000 1.195649 0.007328 0.000000 0.041812 -0.011596 0.000000 1.198282 0.005170 0.000000 0.041062 -0.005459 0.000000 1.201200 0.005250 0.000000 0.039867 -0.003388 0.000000 1.198342 0.008572 0.000000 0.042736 -0.001618 0.000000 1.188960 0.009569 0.000000 0.046126 0.004297 0.000000 1.177671 0.007722 0.000000 0.045850 0.012906 0.000000 1.166846 0.005158 0.000000 0.040674 0.022374 0.000000 1.155628 0.003122 0.000000 0.031084 0.031009 0.000000 1.141113 0.003841 0.000000 0.021239 0.037429 0.000000 1.118173 0.006941 0.000000 0.015721 0.041770 0.000000 1.082323 0.011036 0.000000 0.017991 0.046711 0.000000 1.031455 0.013306 0.000000 0.027300 0.056342 0.000000 0.966535 0.011876 0.000000 0.040115 0.073616 0.000000 0.889368 0.004270 0.000000 0.049922 0.102795 0.000000 0.803932 -0.012451 0.000000 0.046875 0.147188 0.000000 0.713503 -0.039459 0.000000 0.016706 0.215200 0.000000 
0.746307 -0.087327 0.000000 -0.040294 0.464593 0.000000 0.644842 -0.053122 0.000000 -0.051868 0.587446 0.000000 0.462370 0.000738 0.000000 -0.052237 -0.558654 0.000000 0.639732 0.002249 0.000000 -0.037361 -0.412845 0.000000 0.778168 0.021513 0.000000 -0.023717 -0.315827 0.000000 0.882154 0.029062 0.000000 -0.011269 -0.246953 0.000000 0.962445 0.028746 0.000000 -0.000279 -0.194429 0.000000 1.026296 0.024057 0.000000 0.009208 -0.152003 0.000000 1.077877 0.017601 0.000000 0.016323 -0.116838 0.000000 1.119240 0.011353 0.000000 0.020978 -0.088544 0.000000 1.152803 0.006643 0.000000 0.023663 -0.066883 0.000000 1.179478 0.004322 0.000000 0.025492 -0.051545 0.000000 1.200102 0.004144 0.000000 0.027160 -0.040619 0.000000 1.215308 0.005263 0.000000 0.029022 -0.032730 0.000000 1.226252 0.006710 0.000000 0.031054 -0.026225 0.000000 1.233326 0.007727 0.000000 0.033389 -0.020251 0.000000 1.237210 0.007543 0.000000 0.035414 -0.013344 0.000000 1.239368 0.006170 0.000000 0.035449 -0.006653 0.000000 1.240984 0.006099 0.000000 0.035035 -0.001919 0.000000 1.238632 0.007567 0.000000 0.036506 0.003035 0.000000 1.232112 0.007498 0.000000 0.038067 0.011402 0.000000 1.223162 0.005130 0.000000 0.037726 0.022549 0.000000 1.212817 0.002148 0.000000 0.034812 0.034676 0.000000 1.200055 0.000563 0.000000 0.029163 0.045514 0.000000 1.183693 0.002196 0.000000 0.022321 0.054116 0.000000 1.161111 0.006422 0.000000 0.016400 0.061394 0.000000 1.130936 0.010662 0.000000 0.013749 0.071575 0.000000 1.092223 0.011296 0.000000 0.014700 0.090625 0.000000 1.044375 0.005187 0.000000 0.018292 0.123938 0.000000 0.986213 -0.009973 0.000000 0.021938 0.176205 0.000000 0.917165 -0.034589 0.000000 0.020607 0.250241 0.000000 0.836273 -0.064922 0.000000 0.006489 0.348655 0.000000 
0.746031 -0.036113 0.000000 -0.051106 0.403472 0.000000 0.675513 -0.022372 0.000000 -0.072900 0.524701 0.000000 0.581369 0.000888 0.000000 -0.073188 -0.509004 0.000000 0.682387 -0.009073 0.000000 -0.060547 -0.375561 0.000000 0.778825 -0.002625 0.000000 -0.042368 -0.287962 0.000000 0.861220 -0.001212 0.000000 -0.022972 -0.226933 0.000000 0.929976 -0.002434 0.000000 -0.004710 -0.181605 0.000000 0.987808 -0.004091 0.000000 0.010816 -0.145534 0.000000 1.036724 -0.004690 0.000000 0.022005 -0.115215 0.000000 1.077319 -0.004265 0.000000 0.028686 -0.090845 0.000000 1.111449 -0.003192 0.000000 0.031870 -0.071237 0.000000 1.139247 -0.001621 0.000000 0.033216 -0.056544 0.000000 1.161489 0.000232 0.000000 0.034054 -0.044783 0.000000 1.178059 0.002060 0.000000 0.035195 -0.035763 0.000000 1.190113 0.003644 0.000000 0.036821 -0.027796 0.000000 1.197828 0.004806 0.000000 0.038810 -0.021020 0.000000 1.202550 0.005303 0.000000 0.040459 -0.013754 0.000000 1.204976 0.005135 0.000000 0.041000 -0.007074 0.000000 1.205942 0.005664 0.000000 0.041339 -0.001037 0.000000 1.203297 0.007102 0.000000 0.042626 0.004902 0.000000 1.197300 0.008008 0.000000 0.043681 0.013247 0.000000 1.188769 0.008063 0.000000 0.042777 0.023251 0.000000 1.178952 0.008073 0.000000 0.039038 0.035136 0.000000 1.166509 0.008771 0.000000 0.032712 0.047370 0.000000 1.149817 0.010682 0.000000 0.025499 0.060011 0.000000 1.125555 0.012862 0.000000 0.019946 0.071945 0.000000 1.092568 0.013687 0.000000 0.018476 0.085424 0.000000 1.050512 0.012355 0.000000 0.020887 0.104190 0.000000 0.999859 0.008284 0.000000 0.024544 0.131778 0.000000 0.941818 0.000625 0.000000 0.024833 0.171844 0.000000 0.878556 -0.011120 0.000000 0.015680 0.228080 0.000000 0.812356 -0.025341 0.000000 -0.009243 0.305166 0.000000 
0.846092 -0.045464 0.000000 -0.025202 0.535111 0.000000 0.769002 -0.031328 0.000000 -0.035902 0.681590 0.000000 0.673393 0.001027 0.000000 -0.036135 -0.659671 0.000000 0.772189 -0.010392 0.000000 -0.030041 -0.509283 0.000000 0.864254 0.003335 0.000000 -0.021558 -0.398221 0.000000 0.942168 0.009665 0.000000 -0.011944 -0.315709 0.000000 1.007148 0.010484 0.000000 -0.001551 -0.252261 0.000000 1.061990 0.008531 0.000000 0.008890 -0.200918 0.000000 1.107946 0.006412 0.000000 0.017010 -0.157434 0.000000 1.143448 0.004672 0.000000 0.022245 -0.122674 0.000000 1.172291 0.003459 0.000000 0.025405 -0.094681 0.000000 1.194085 0.002975 0.000000 0.027445 -0.073787 0.000000 1.211795 0.003306 0.000000 0.029079 -0.057188 0.000000 1.224277 0.004122 0.000000 0.030645 -0.044785 0.000000 1.234178 0.005084 0.000000 0.032267 -0.033940 0.000000 1.240080 0.005738 0.000000 0.033899 -0.024973 0.000000 1.244466 0.005894 0.000000 0.035275 -0.015770 0.000000 1.246045 0.005629 0.000000 0.035970 -0.007619 0.000000 1.247024 0.005761 0.000000 0.036479 0.000725 0.000000 1.244577 0.006279 0.000000 0.037364 0.009032 0.000000 1.240454 0.006444 0.000000 0.038068 0.019932 0.000000 1.233157 0.006033 0.000000 0.037640 0.032366 0.000000 1.224704 0.005888 0.000000 0.035448 0.047120 0.000000 1.212314 0.006889 0.000000 0.031011 0.062206 0.000000 1.196378 0.009409 0.000000 0.024495 0.078379 0.000000 1.173093 0.011975 0.000000 0.017184 0.094381 0.000000 1.144507 0.012132 0.000000 0.012286 0.113630 0.000000 1.111149 0.008884 0.000000 0.010395 0.141279 0.000000 1.072235 0.001531 0.000000 0.010279 0.181979 0.000000 1.026696 -0.010262 0.000000 0.009592 0.239466 0.000000 0.973870 -0.025436 0.000000 0.005148 0.316441 0.000000 0.913474 -0.039999 0.000000 -0.006226 0.414980 0.000000 
0.868179 -0.017137 0.000000 -0.036684 0.480562 0.000000 0.824933 -0.011672 0.000000 -0.051000 0.620310 0.000000 0.781752 0.001120 0.000000 -0.051232 -0.607801 0.000000 0.831894 -0.015166 0.000000 -0.046113 -0.467626 0.000000 0.888161 -0.011109 0.000000 -0.035431 -0.365876 0.000000 0.942550 -0.010825 0.000000 -0.021683 -0.291913 0.000000 0.992695 -0.012827 0.000000 -0.006303 -0.236446 0.000000 1.038727 -0.014532 0.000000 0.009005 -0.191490 0.000000 1.079921 -0.012810 0.000000 0.020589 -0.150717 0.000000 1.111928 -0.009500 0.000000 0.027721 -0.119688 0.000000 1.139337 -0.006352 0.000000 0.031618 -0.093031 0.000000 1.160087 -0.003661 0.000000 0.033687 -0.074254 0.000000 1.178035 -0.001402 0.000000 0.035001 -0.057264 0.000000 1.190427 0.000495 0.000000 0.036212 -0.045664 0.000000 1.200920 0.002022 0.000000 0.037545 -0.033699 0.000000 1.206776 0.003174 0.000000 0.038978 -0.025405 0.000000 1.211740 0.003927 0.000000 0.040233 -0.015333 0.000000 1.213127 0.004440 0.000000 0.041116 -0.008054 0.000000 1.214287 0.005155 0.000000 0.041862 0.001410 0.000000 1.211608 0.006217 0.000000 0.042727 0.009024 0.000000 1.208196 0.007303 0.000000 0.043216 0.020544 0.000000 1.201199 0.008491 0.000000 0.042525 0.031705 0.000000 1.193723 0.010266 0.000000 0.039976 0.047525 0.000000 1.181632 0.013208 0.000000 0.035152 0.063307 0.000000 1.166041 0.017198 0.000000 0.028044 0.083296 0.000000 1.141575 0.020172 0.000000 0.020026 0.100531 0.000000 1.111853 0.018586 0.000000 0.015032 0.118782 0.000000 1.078231 0.014245 0.000000 0.013212 0.143104 0.000000 1.040705 0.008400 0.000000 0.012310 0.177317 0.000000 0.999613 0.001312 0.000000 0.009072 0.224669 0.000000 0.956101 -0.006676 0.000000 0.000224 0.288477 0.000000 0.911752 -0.013968 0.000000 -0.016001 0.372548 0.000000 
0.954703 -0.024782 0.000000 -0.019999 0.578357 0.000000 0.909580 -0.017011 0.000000 -0.027034 0.724771 0.000000 0.865498 0.001258 0.000000 -0.027233 -0.709814 0.000000 0.912854 -0.015511 0.000000 -0.025252 -0.565550 0.000000 0.965244 -0.007347 0.000000 -0.020546 -0.452611 0.000000 1.015498 -0.004083 0.000000 -0.013359 -0.365854 0.000000 1.062200 -0.004895 0.000000 -0.002851 -0.298293 0.000000 1.106712 -0.006777 0.000000 0.010885 -0.242112 0.000000 1.148464 -0.005173 0.000000 0.020728 -0.189440 0.000000 1.174311 -0.002459 0.000000 0.025597 -0.150083 0.000000 1.198795 -0.000437 0.000000 0.028385 -0.115430 0.000000 1.212776 0.000906 0.000000 0.029785 -0.091735 0.000000 1.228703 0.001991 0.000000 0.031166 -0.069581 0.000000 1.235835 0.002911 0.000000 0.032174 -0.055278 0.000000 1.246100 0.003751 0.000000 0.033554 -0.039796 0.000000 1.248356 0.004305 0.000000 0.034608 -0.029936 0.000000 1.254523 0.004639 0.000000 0.035887 -0.017158 0.000000 1.253322 0.004747 0.000000 0.036606 -0.008779 0.000000 1.256489 0.005014 0.000000 0.037603 0.003404 0.000000 1.252198 0.005415 0.000000 0.038324 0.012444 0.000000 1.251987 0.005954 0.000000 0.039260 0.026929 0.000000 1.244334 0.006724 0.000000 0.039236 0.039842 0.000000 1.240563 0.008438 0.000000 0.038353 0.059211 0.000000 1.228133 0.011712 0.000000 0.034824 0.077796 0.000000 1.216399 0.016518 0.000000 0.027514 0.102846 0.000000 1.190285 0.019993 0.000000 0.015546 0.124103 0.000000 1.162806 0.017126 0.000000 0.007758 0.147253 0.000000 1.135619 0.010704 0.000000 0.004240 0.178805 0.000000 1.106685 0.002433 0.000000 0.002737 0.223071 0.000000 1.074350 -0.007024 0.000000 0.000927 0.282978 0.000000 1.037980 -0.016588 0.000000 -0.003138 0.360790 0.000000 0.997786 -0.023774 0.000000 -0.010479 0.458553 0.000000 
0.988835 -0.007617 0.000000 -0.029471 0.525686 0.000000 0.972273 -0.004636 0.000000 -0.038357 0.664391 0.000000 0.963780 0.001319 0.000000 -0.038545 -0.655157 0.000000 0.976791 -0.017147 0.000000 -0.037183 -0.520016 0.000000 1.000265 -0.015815 0.000000 -0.031517 -0.416130 0.000000 1.028609 -0.018012 0.000000 -0.022004 -0.338615 0.000000 1.059831 -0.023335 0.000000 -0.007860 -0.280959 0.000000 1.094719 -0.028268 0.000000 0.010880 -0.233242 0.000000 1.132234 -0.022653 0.000000 0.023798 -0.176565 0.000000 1.151159 -0.014369 0.000000 0.029952 -0.144171 0.000000 1.173803 -0.009140 0.000000 0.033322 -0.107012 0.000000 1.183746 -0.005061 0.000000 0.034845 -0.090181 0.000000 1.200095 -0.002783 0.000000 0.036173 -0.064396 0.000000 1.204722 -0.000513 0.000000 0.037032 -0.055930 0.000000 1.216347 0.000642 0.000000 0.038284 -0.035954 0.000000 1.216637 0.002120 0.000000 0.039236 -0.031573 0.000000 1.224493 0.002647 0.000000 0.040482 -0.014131 0.000000 1.221514 0.003720 0.000000 0.041266 -0.011221 0.000000 1.226467 0.004158 0.000000 0.042358 0.005702 0.000000 1.220656 0.005496 0.000000 0.043098 0.009236 0.000000 1.222699 0.006367 0.000000 0.044022 0.028197 0.000000 1.214129 0.008516 0.000000 0.044015 0.035476 0.000000 1.213157 0.011148 0.000000 0.043234 0.059956 0.000000 1.200255 0.016738 0.000000 0.039720 0.075040 0.000000 1.191148 0.024508 0.000000 0.031568 0.109411 0.000000 1.162704 0.032141 0.000000 0.017096 0.128010 0.000000 1.134977 0.026373 0.000000 0.008383 0.145968 0.000000 1.109861 0.017763 0.000000 0.004580 0.172037 0.000000 1.085136 0.009904 0.000000 0.002370 0.209652 0.000000 1.059798 0.003122 0.000000 -0.001118 0.261039 0.000000 1.034334 -0.002611 0.000000 -0.007766 0.328671 0.000000 1.010101 -0.006627 0.000000 -0.017907 0.415632 0.000000 
1.064684 -0.013218 0.000000 -0.017701 0.594918 0.000000 1.048001 -0.008125 0.000000 -0.022259 0.733264 0.000000 1.039388 0.001446 0.000000 -0.022417 -0.722825 0.000000 1.049412 -0.016873 0.000000 -0.023149 -0.589024 0.000000 1.069024 -0.013014 0.000000 -0.022013 -0.480954 0.000000 1.092797 -0.013595 0.000000 -0.018098 -0.397076 0.000000 1.119762 -0.019039 0.000000 -0.007472 -0.333181 0.000000 1.154607 -0.025518 0.000000 0.016459 -0.279627 0.000000 1.204784 -0.018091 0.000000 0.029926 -0.208365 0.000000 1.206607 -0.008613 0.000000 0.030753 -0.172727 0.000000 1.235718 -0.003807 0.000000 0.033174 -0.125373 0.000000 1.229579 -0.000617 0.000000 0.031800 -0.108084 0.000000 1.254369 0.000663 0.000000 0.034032 -0.074207 0.000000 1.244296 0.002052 0.000000 0.032964 -0.066903 0.000000 1.266018 0.002499 0.000000 0.035567 -0.040086 0.000000 1.252736 0.003353 0.000000 0.034709 -0.037792 0.000000 1.271945 0.003393 0.000000 0.037453 -0.014178 0.000000 1.256229 0.003963 0.000000 0.036572 -0.013732 0.000000 1.273423 0.003922 0.000000 0.039387 0.009215 0.000000 1.255727 0.004675 0.000000 0.038672 0.010401 0.000000 1.270995 0.005030 0.000000 0.041787 0.035499 0.000000 1.251619 0.006731 0.000000 0.041272 0.040814 0.000000 1.265160 0.009218 0.000000 0.044221 0.072113 0.000000 1.243261 0.015227 0.000000 0.041922 0.086904 0.000000 1.250891 0.024669 0.000000 0.035576 0.131290 0.000000 1.208550 0.034465 0.000000 0.009769 0.151829 0.000000 1.180733 0.025839 0.000000 -0.001110 0.172369 0.000000 1.161805 0.014507 0.000000 -0.004010 0.203530 0.000000 1.144470 0.004643 0.000000 -0.004563 0.248409 0.000000 1.125910 -0.003537 0.000000 -0.005486 0.308441 0.000000 1.105735 -0.009940 0.000000 -0.008009 0.385024 0.000000 1.084771 -0.013632 0.000000 -0.012365 0.479819 0.000000 
1.104013 -0.002280 0.000000 -0.025187 0.542369 0.000000 1.110437 -0.000078 0.000000 -0.030908 0.673005 0.000000 1.128019 0.001477 0.000000 -0.031044 -0.665181 0.000000 1.112084 -0.016416 0.000000 -0.032451 -0.539628 0.000000 1.108169 -0.016951 0.000000 -0.031376 -0.439903 0.000000 1.112224 -0.021927 0.000000 -0.026954 -0.365580 0.000000 1.123698 -0.033961 0.000000 -0.014239 -0.315804 0.000000 1.148824 -0.052198 0.000000 0.018212 -0.283419 0.000000 1.202655 -0.036120 0.000000 0.034488 -0.178388 0.000000 1.186979 -0.015196 0.000000 0.034475 -0.173282 0.000000 1.220671 -0.011560 0.000000 0.037455 -0.100873 0.000000 1.201228 -0.003687 0.000000 0.035643 -0.114971 0.000000 1.233699 -0.005015 0.000000 0.038397 -0.054323 0.000000 1.212169 0.000555 0.000000 0.036888 -0.077651 0.000000 1.243008 -0.001961 0.000000 0.039910 -0.022672 0.000000 1.219019 0.002977 0.000000 0.038617 -0.050781 0.000000 1.248034 -0.000096 0.000000 0.041776 0.001584 0.000000 1.221999 0.004601 0.000000 0.040516 -0.028415 0.000000 1.249411 0.001343 0.000000 0.043781 0.023398 0.000000 1.221834 0.006211 0.000000 0.042697 -0.006032 0.000000 1.247877 0.003252 0.000000 0.046313 0.047572 0.000000 1.219405 0.009031 0.000000 0.045678 0.021935 0.000000 1.244679 0.008198 0.000000 0.049704 0.081855 0.000000 1.215011 0.019037 0.000000 0.048229 0.067410 0.000000 1.235867 0.030854 0.000000 0.041883 0.151752 0.000000 1.182616 0.057948 0.000000 0.008508 0.155827 0.000000 1.155409 0.037253 0.000000 -0.003230 0.164896 0.000000 1.141117 0.020662 0.000000 -0.005708 0.189372 0.000000 1.130169 0.010457 0.000000 -0.006339 0.228213 0.000000 1.120018 0.004045 0.000000 -0.008160 0.281213 0.000000 1.111129 -0.000087 0.000000 -0.012217 0.349635 0.000000 1.105095 -0.002272 0.000000 -0.018325 0.435718 0.000000 
1.170808 -0.006356 0.000000 -0.016317 0.588495 0.000000 1.177716 -0.002404 0.000000 -0.019487 0.715682 0.000000 1.195605 0.001582 0.000000 -0.019595 -0.706890 0.000000 1.176876 -0.015466 0.000000 -0.022806 -0.585110 0.000000 1.169067 -0.014089 0.000000 -0.026173 -0.485009 0.000000 1.167161 -0.018018 0.000000 -0.029453 -0.408551 0.000000 1.169665 -0.031754 0.000000 -0.025524 -0.358306 0.000000 1.188535 -0.057968 0.000000 0.030323 -0.333459 0.000000 1.308386 -0.034367 0.000000 0.054000 -0.192690 0.000000 1.212001 -0.008601 0.000000 0.031902 -0.206419 0.000000 1.307351 -0.006787 0.000000 0.043794 -0.105930 0.000000 1.215757 0.001196 0.000000 0.027744 -0.140555 0.000000 1.314556 -0.002091 0.000000 0.042329 -0.052678 0.000000 1.221114 0.003561 0.000000 0.027611 -0.097741 0.000000 1.320719 -0.000523 0.000000 0.043243 -0.016098 0.000000 1.224657 0.004646 0.000000 0.028738 -0.066807 0.000000 1.324171 0.000234 0.000000 0.044887 0.011857 0.000000 1.226160 0.005222 0.000000 0.030385 -0.041144 0.000000 1.325215 0.000658 0.000000 0.046964 0.036791 0.000000 1.226135 0.005759 0.000000 0.032769 -0.015642 0.000000 1.324711 0.001414 0.000000 0.050209 0.063972 0.000000 1.225745 0.007367 0.000000 0.037442 0.015540 0.000000 1.325419 0.005192 0.000000 0.057535 0.101781 0.000000 1.228644 0.016701 0.000000 0.050379 0.066048 0.000000 1.336005 0.031016 0.000000 0.065208 0.184541 0.000000 1.211112 0.067840 0.000000 -0.011060 0.179037 0.000000 1.189837 0.037577 0.000000 -0.018154 0.186661 0.000000 1.186463 0.016986 0.000000 -0.014715 0.214478 0.000000 1.183447 0.005274 0.000000 -0.011542 0.258560 0.000000 1.178968 -0.001716 0.000000 -0.010290 0.317330 0.000000 1.174098 -0.005883 0.000000 -0.010978 0.391058 0.000000 1.170614 -0.007525 0.000000 -0.013214 0.480901 0.000000 
1.211189 0.000822 0.000000 -0.022118 0.535461 0.000000 1.236794 0.003092 0.000000 -0.026052 0.655116 0.000000 1.274926 0.001584 0.000000 -0.026129 -0.646452 0.000000 1.235759 -0.013204 0.000000 -0.030071 -0.531819 0.000000 1.208470 -0.013584 0.000000 -0.034391 -0.437996 0.000000 1.188537 -0.018648 0.000000 -0.039957 -0.368085 0.000000 1.173939 -0.037890 0.000000 -0.040834 -0.334674 0.000000 1.177183 -0.108045 0.000000 0.017000 -0.403270 0.000000 1.297890 -0.059796 0.000000 0.038039 -0.082003 0.000000 1.175109 0.006901 0.000000 0.013086 -0.268631 0.000000 1.281425 -0.023452 0.000000 0.026368 -0.009279 0.000000 1.167945 0.012363 0.000000 0.009766 -0.213771 0.000000 1.282864 -0.019601 0.000000 0.026134 0.039120 0.000000 1.167894 0.015274 0.000000 0.010619 -0.177257 0.000000 1.286491 -0.017593 0.000000 0.027945 0.073390 0.000000 1.168658 0.017481 0.000000 0.012397 -0.150296 0.000000 1.289049 -0.016245 0.000000 0.030265 0.099596 0.000000 1.168974 0.019103 0.000000 0.014594 -0.127471 0.000000 1.290318 -0.015235 0.000000 0.032996 0.122478 0.000000 1.169025 0.020405 0.000000 0.017564 -0.104608 0.000000 1.291270 -0.014187 0.000000 0.037053 0.146538 0.000000 1.170232 0.021798 0.000000 0.023353 -0.077739 0.000000 1.295694 -0.011895 0.000000 0.046702 0.178629 0.000000 1.178307 0.026193 0.000000 0.041892 -0.039951 0.000000 1.319161 0.016024 0.000000 0.064399 0.276645 0.000000 1.174076 0.134217 0.000000 -0.021842 0.177103 0.000000 1.163184 0.044346 0.000000 -0.024365 0.168270 0.000000 1.169218 0.017223 0.000000 -0.017980 0.192389 0.000000 1.174432 0.007284 0.000000 -0.013911 0.232692 0.000000 1.178883 0.002794 0.000000 -0.012973 0.286083 0.000000 1.184865 0.000600 0.000000 -0.014593 0.353119 0.000000 1.194804 -0.000035 0.000000 -0.017972 0.435524 0.000000 