# vtk DataFile Version 2.0
Comment goes here
ASCII

DATASET STRUCTURED_POINTS
FIELD FieldData 1
TIME 1 1 double
0.03700000
DIMENSIONS    64   64   1

ORIGIN    0.000   0.000   0.000
SPACING   0.03125 0.03125   1.000

POINT_DATA   4096
SCALARS uX double
LOOKUP_TABLE default

7.356513e-01 -1.202084e+00 5.052428e-01 -1.111353e+00 3.255035e-01 -1.039786e+00 3.618309e-01 -9.542799e-01 3.548442e-01 -8.739151e-01 3.276277e-01 -7.969037e-01 2.885899e-01 -7.199993e-01 2.388903e-01 -6.353860e-01 1.632385e-01 -5.082633e-01 2.139203e-02 -3.001637e-01 -2.086116e-01 -2.039085e-02 -4.844056e-01 2.631306e-01 -7.172330e-01 4.640193e-01 -8.445660e-01 5.419565e-01 -8.532253e-01 5.110495e-01 -7.720049e-01 4.099852e-01 -6.464630e-01 2.819401e-01 -5.202843e-01 1.737359e-01 -4.391391e-01 1.264110e-01 -4.323529e-01 1.532515e-01 -4.982181e-01 2.409820e-01 -6.120573e-01 3.591684e-01 -7.329023e-01 4.558735e-01 -8.090171e-01 4.896997e-01 -8.082294e-01 4.341523e-01 -7.136998e-01 2.784384e-01 -5.250268e-01 4.411512e-02 -2.840176e-01 -2.233160e-01 -3.721717e-02 -4.871938e-01 1.902739e-01 -7.321837e-01 3.869359e-01 -9.529904e-01 5.531942e-01 -1.164394e+00 
-4.265061e-01 2.495913e-01 -1.639312e-01 1.984638e-01 1.368539e-02 1.729269e-01 -1.169060e-01 1.312288e-01 -1.884849e-01 9.734042e-02 -2.316616e-01 6.867913e-02 -2.600515e-01 4.425379e-02 -2.800264e-01 2.105578e-02 -2.874419e-01 -2.065610e-02 -2.599131e-01 -1.041896e-01 -1.808468e-01 -2.291947e-01 -7.372970e-02 -3.573781e-01 1.300322e-02 -4.434692e-01 4.866758e-02 -4.686771e-01 2.997982e-02 -4.425178e-01 -2.595229e-02 -3.870240e-01 -9.579506e-02 -3.213308e-01 -1.605453e-01 -2.687541e-01 -1.957126e-01 -2.506778e-01 -1.898154e-01 -2.717381e-01 -1.439701e-01 -3.242334e-01 -7.166367e-02 -3.943699e-01 7.424685e-03 -4.556279e-01 6.593836e-02 -4.845868e-01 8.720057e-02 -4.696275e-01 6.425293e-02 -4.046863e-01 -5.123343e-03 -2.984766e-01 -9.759695e-02 -1.761150e-01 -1.877044e-01 -5.522677e-02 -2.639298e-01 5.864198e-02 -3.197082e-01 1.605785e-01 -3.518816e-01 2.635005e-01 
6.862225e-01 5.196799e-01 6.749263e-01 4.467504e-01 4.998204e-01 3.986244e-01 8.028120e-01 3.648231e-01 1.020369e+00 3.203520e-01 1.185787e+00 2.769845e-01 1.316047e+00 2.392075e-01 1.422659e+00 2.052413e-01 1.522062e+00 1.514451e-01 1.650165e+00 4.618294e-02 1.831169e+00 -1.092960e-01 2.038590e+00 -2.669589e-01 2.210710e+00 -3.678264e-01 2.305495e+00 -3.884814e-01 2.317569e+00 -3.436402e-01 2.268040e+00 -2.622614e-01 2.188333e+00 -1.715961e-01 2.106345e+00 -1.014290e-01 2.053645e+00 -7.804392e-02 2.049620e+00 -1.076244e-01 2.092149e+00 -1.791531e-01 2.164715e+00 -2.737961e-01 2.240481e+00 -3.552975e-01 2.283703e+00 -3.960026e-01 2.273308e+00 -3.787440e-01 2.196965e+00 -2.960230e-01 2.049886e+00 -1.616211e-01 1.858972e+00 -8.763587e-03 1.653011e+00 1.388124e-01 1.442717e+00 2.732481e-01 1.229632e+00 3.943131e-01 1.002869e+00 5.237245e-01 
2.143986e+00 -6.330629e-02 1.485358e+00 -8.125417e-02 6.817548e-01 -5.844228e-02 1.553574e+00 -3.485345e-02 2.074827e+00 -1.444270e-02 2.431934e+00 3.650109e-03 2.697163e+00 1.806521e-02 2.905819e+00 2.682128e-02 3.073405e+00 3.987170e-02 3.194296e+00 7.250344e-02 3.261791e+00 1.277659e-01 3.292043e+00 1.846175e-01 3.315746e+00 2.195350e-01 3.350361e+00 2.247598e-01 3.397814e+00 2.084030e-01 3.449993e+00 1.828972e-01 3.497868e+00 1.546022e-01 3.535894e+00 1.330264e-01 3.553369e+00 1.272764e-01 3.545529e+00 1.383165e-01 3.513394e+00 1.617154e-01 3.462148e+00 1.925175e-01 3.398711e+00 2.177754e-01 3.334165e+00 2.274935e-01 3.272279e+00 2.187068e-01 3.213125e+00 1.893829e-01 3.157813e+00 1.447858e-01 3.090877e+00 9.924166e-02 2.995181e+00 5.973515e-02 2.860661e+00 2.380761e-02 2.675273e+00 -1.132049e-02 2.422049e+00 -6.655736e-02 
2.158090e+00 6.127356e-03 1.645773e+00 -2.353053e-02 9.960119e-01 -1.398242e-02 1.687734e+00 -9.501658e-03 2.150296e+00 1.107606e-02 2.482276e+00 3.398069e-02 2.734024e+00 5.499327e-02 2.932536e+00 7.135679e-02 3.092810e+00 8.468212e-02 3.216180e+00 1.025184e-01 3.301676e+00 1.271034e-01 3.358439e+00 1.496566e-01 3.402093e+00 1.615383e-01 3.441644e+00 1.618685e-01 3.478857e+00 1.557525e-01 3.511684e+00 1.487833e-01 3.537961e+00 1.419509e-01 3.557076e+00 1.380977e-01 3.565452e+00 1.397549e-01 3.560868e+00 1.463857e-01 3.543577e+00 1.555339e-01 3.514128e+00 1.662449e-01 3.473622e+00 1.729753e-01 3.425010e+00 1.723417e-01 3.367699e+00 1.634272e-01 3.300182e+00 1.461108e-01 3.223459e+00 1.233101e-01 3.130837e+00 1.022145e-01 3.014000e+00 8.516487e-02 2.866274e+00 7.056321e-02 2.677074e+00 5.498590e-02 2.434129e+00 2.313351e-02 
2.223961e+00 -5.658950e-02 1.795041e+00 -5.924555e-02 1.283529e+00 -6.077279e-02 1.793720e+00 -3.561233e-02 2.212572e+00 -1.441211e-02 2.530010e+00 5.274097e-03 2.773981e+00 2.427384e-02 2.965740e+00 4.302298e-02 3.116150e+00 6.500746e-02 3.226332e+00 9.518618e-02 3.299354e+00 1.327144e-01 3.345040e+00 1.690850e-01 3.379294e+00 1.939728e-01 3.412712e+00 2.032611e-01 3.449389e+00 1.989379e-01 3.486551e+00 1.866234e-01 3.520190e+00 1.713194e-01 3.545540e+00 1.593655e-01 3.557781e+00 1.555516e-01 3.553229e+00 1.613965e-01 3.531778e+00 1.744553e-01 3.495128e+00 1.907263e-01 3.447467e+00 2.031774e-01 3.393330e+00 2.060534e-01 3.335498e+00 1.960490e-01 3.273752e+00 1.731536e-01 3.206902e+00 1.406990e-01 3.128239e+00 1.047190e-01 3.028417e+00 6.920888e-02 2.898502e+00 3.480970e-02 2.728610e+00 8.334268e-04 2.507736e+00 -3.604164e-02 
2.318824e+00 1.611384e-02 1.978755e+00 -1.393056e-03 1.573231e+00 -3.415453e-03 1.963885e+00 4.453526e-03 2.309119e+00 1.775639e-02 2.585968e+00 3.546138e-02 2.806853e+00 5.529850e-02 2.985647e+00 7.515610e-02 3.130878e+00 9.356828e-02 3.242830e+00 1.119927e-01 3.325471e+00 1.302262e-01 3.384703e+00 1.456886e-01 3.430335e+00 1.549385e-01 3.467596e+00 1.579322e-01 3.499966e+00 1.564270e-01 3.526731e+00 1.535223e-01 3.547949e+00 1.504697e-01 3.561889e+00 1.493106e-01 3.567702e+00 1.508312e-01 3.563438e+00 1.553036e-01 3.549558e+00 1.611141e-01 3.525425e+00 1.669761e-01 3.492058e+00 1.694417e-01 3.449262e+00 1.661505e-01 3.397013e+00 1.553462e-01 3.333358e+00 1.382508e-01 3.258104e+00 1.183706e-01 3.169520e+00 9.949616e-02 3.063066e+00 8.305215e-02 2.932777e+00 6.807001e-02 2.771176e+00 5.193449e-02 2.569979e+00 2.990648e-02 
2.439327e+00 -2.578406e-02 2.159258e+00 -3.270073e-02 1.838770e+00 -3.492113e-02 2.127480e+00 -2.231099e-02 2.415039e+00 -6.543192e-03 2.660940e+00 1.173467e-02 2.863206e+00 3.293975e-02 3.028954e+00 5.665479e-02 3.162939e+00 8.169542e-02 3.261859e+00 1.090410e-01 3.332901e+00 1.365974e-01 3.381440e+00 1.617389e-01 3.419244e+00 1.793598e-01 3.450906e+00 1.883767e-01 3.481877e+00 1.885854e-01 3.509703e+00 1.837766e-01 3.534415e+00 1.762974e-01 3.551217e+00 1.707995e-01 3.559275e+00 1.690251e-01 3.554738e+00 1.729088e-01 3.539080e+00 1.801745e-01 3.511372e+00 1.889092e-01 3.475142e+00 1.937305e-01 3.430542e+00 1.912009e-01 3.379894e+00 1.775827e-01 3.320906e+00 1.547020e-01 3.254301e+00 1.264078e-01 3.178616e+00 9.652912e-02 3.088602e+00 6.738754e-02 2.977335e+00 3.959680e-02 2.837393e+00 1.302029e-02 2.661180e+00 -1.171998e-02 
2.569451e+00 2.461202e-02 2.349924e+00 1.392729e-02 2.104930e+00 1.171726e-02 2.317736e+00 1.565824e-02 2.541936e+00 2.399290e-02 2.745060e+00 3.785382e-02 2.920538e+00 5.762396e-02 3.071536e+00 8.178696e-02 3.200834e+00 1.044197e-01 3.297791e+00 1.231986e-01 3.371670e+00 1.378029e-01 3.424099e+00 1.488312e-01 3.466327e+00 1.554698e-01 3.498101e+00 1.586515e-01 3.526181e+00 1.588048e-01 3.547027e+00 1.581175e-01 3.564641e+00 1.570186e-01 3.574471e+00 1.573255e-01 3.579604e+00 1.588762e-01 3.575586e+00 1.624575e-01 3.565734e+00 1.665151e-01 3.546218e+00 1.704623e-01 3.520074e+00 1.712687e-01 3.483250e+00 1.667699e-01 3.437495e+00 1.535421e-01 3.377588e+00 1.328221e-01 3.305713e+00 1.111370e-01 3.226063e+00 9.227061e-02 3.136332e+00 7.675697e-02 3.031322e+00 6.324227e-02 2.905423e+00 4.981061e-02 2.753319e+00 3.545163e-02 
2.706344e+00 -6.010004e-03 2.534034e+00 -1.157599e-02 2.348833e+00 -1.361216e-02 2.496719e+00 -8.652270e-03 2.670359e+00 1.455223e-03 2.838643e+00 1.724555e-02 2.990300e+00 4.043356e-02 3.125050e+00 7.005831e-02 3.244125e+00 9.866149e-02 3.325391e+00 1.242380e-01 3.388484e+00 1.448021e-01 3.428890e+00 1.626056e-01 3.464980e+00 1.743952e-01 3.489852e+00 1.821496e-01 3.516866e+00 1.835286e-01 3.535674e+00 1.828792e-01 3.555720e+00 1.792301e-01 3.565354e+00 1.777308e-01 3.572898e+00 1.769219e-01 3.567644e+00 1.804989e-01 3.558651e+00 1.846357e-01 3.537012e+00 1.904788e-01 3.511942e+00 1.917504e-01 3.474839e+00 1.870091e-01 3.432800e+00 1.690252e-01 3.375267e+00 1.418735e-01 3.310336e+00 1.128834e-01 3.242998e+00 8.596883e-02 3.169763e+00 6.197454e-02 3.084405e+00 4.043883e-02 2.981290e+00 2.102185e-02 2.856175e+00 4.617119e-03 
2.847392e+00 3.170503e-02 2.721151e+00 2.595853e-02 2.592121e+00 2.407517e-02 2.686377e+00 2.340009e-02 2.809274e+00 2.646737e-02 2.937788e+00 3.579390e-02 3.062057e+00 5.593955e-02 3.182305e+00 8.941601e-02 3.302569e+00 1.227056e-01 3.376020e+00 1.394351e-01 3.438379e+00 1.515401e-01 3.473893e+00 1.560441e-01 3.512209e+00 1.612762e-01 3.532525e+00 1.615240e-01 3.559187e+00 1.634386e-01 3.570703e+00 1.619231e-01 3.588696e+00 1.633302e-01 3.591852e+00 1.627294e-01 3.600381e+00 1.659621e-01 3.593834e+00 1.676899e-01 3.591633e+00 1.728794e-01 3.574214e+00 1.752923e-01 3.559366e+00 1.787298e-01 3.527157e+00 1.741858e-01 3.492208e+00 1.610087e-01 3.432131e+00 1.292049e-01 3.360047e+00 1.003111e-01 3.292231e+00 8.020701e-02 3.224509e+00 6.672560e-02 3.149884e+00 5.655865e-02 3.063532e+00 4.746173e-02 2.962859e+00 3.881283e-02 
2.985700e+00 8.383945e-03 2.898012e+00 5.089018e-03 2.814615e+00 3.455168e-03 2.862876e+00 2.267240e-03 2.944488e+00 5.534472e-03 3.040054e+00 1.600722e-02 3.139319e+00 4.043229e-02 3.242486e+00 8.274624e-02 3.361209e+00 1.246227e-01 3.408506e+00 1.441903e-01 3.465112e+00 1.594297e-01 3.481914e+00 1.678406e-01 3.520757e+00 1.763298e-01 3.527577e+00 1.801270e-01 3.558905e+00 1.828322e-01 3.560928e+00 1.824652e-01 3.586313e+00 1.820708e-01 3.581980e+00 1.814152e-01 3.598527e+00 1.824750e-01 3.584901e+00 1.850737e-01 3.590651e+00 1.892899e-01 3.567081e+00 1.939697e-01 3.561484e+00 1.970522e-01 3.525675e+00 1.933548e-01 3.501346e+00 1.725214e-01 3.434806e+00 1.322129e-01 3.367192e+00 9.662325e-02 3.312465e+00 7.105890e-02 3.262254e+00 5.251558e-02 3.207702e+00 3.773191e-02 3.143996e+00 2.523404e-02 3.069573e+00 1.517528e-02 
3.126633e+00 3.779104e-02 3.075657e+00 3.574446e-02 3.035503e+00 3.433851e-02 3.042627e+00 2.866513e-02 3.082788e+00 2.403097e-02 3.141704e+00 2.335196e-02 3.212847e+00 3.795424e-02 3.302923e+00 8.910483e-02 3.449210e+00 1.710310e-01 3.465762e+00 1.547914e-01 3.530254e+00 1.818285e-01 3.521417e+00 1.549172e-01 3.575737e+00 1.805347e-01 3.560701e+00 1.547976e-01 3.607480e+00 1.797847e-01 3.587543e+00 1.546483e-01 3.628037e+00 1.797970e-01 3.603168e+00 1.560331e-01 3.637001e+00 1.825943e-01 3.606857e+00 1.611200e-01 3.633934e+00 1.897239e-01 3.598724e+00 1.702614e-01 3.618290e+00 2.003639e-01 3.574393e+00 1.797561e-01 3.575390e+00 1.968764e-01 3.492110e+00 1.246649e-01 3.407759e+00 7.909738e-02 3.357929e+00 5.980284e-02 3.319143e+00 5.207653e-02 3.278659e+00 4.791960e-02 3.232576e+00 4.435193e-02 3.180997e+00 4.084020e-02 
3.259505e+00 1.960295e-02 3.240489e+00 1.899948e-02 3.236747e+00 1.788481e-02 3.208465e+00 1.116408e-02 3.214559e+00 4.758603e-03 3.243777e+00 1.264985e-03 3.290491e+00 1.584412e-02 3.362287e+00 7.958807e-02 3.540843e+00 1.969301e-01 3.486932e+00 1.529474e-01 3.576419e+00 1.962474e-01 3.517306e+00 1.565153e-01 3.605717e+00 1.979388e-01 3.543616e+00 1.630402e-01 3.628489e+00 1.996392e-01 3.564313e+00 1.660753e-01 3.645731e+00 1.991951e-01 3.578282e+00 1.676649e-01 3.654340e+00 2.002285e-01 3.582680e+00 1.727001e-01 3.653037e+00 2.066340e-01 3.578487e+00 1.836917e-01 3.644399e+00 2.198477e-01 3.566046e+00 1.998672e-01 3.617736e+00 2.084592e-01 3.486086e+00 1.202381e-01 3.407928e+00 6.833125e-02 3.377262e+00 4.716525e-02 3.358795e+00 3.796107e-02 3.338528e+00 3.192953e-02 3.313837e+00 2.668894e-02 3.286208e+00 2.237087e-02 
3.394520e+00 4.360313e-02 3.405177e+00 4.515045e-02 3.435595e+00 4.431647e-02 3.374450e+00 3.505952e-02 3.345226e+00 2.124618e-02 3.337127e+00 -4.682465e-04 3.345647e+00 -2.461619e-02 3.395041e+00 1.733032e-03 3.714126e+00 3.698366e-01 3.499041e+00 6.536383e-02 3.697749e+00 3.117719e-01 3.498817e+00 4.097797e-02 3.716520e+00 3.017322e-01 3.516634e+00 3.833075e-02 3.733314e+00 2.989241e-01 3.531012e+00 3.864892e-02 3.745830e+00 2.989997e-01 3.540901e+00 4.108530e-02 3.752626e+00 3.017079e-01 3.546123e+00 4.715547e-02 3.755478e+00 3.092140e-01 3.549980e+00 5.885501e-02 3.760353e+00 3.241626e-01 3.560483e+00 7.991419e-02 3.776035e+00 3.763460e-01 3.521620e+00 8.807908e-02 3.420173e+00 2.577699e-02 3.415407e+00 2.547122e-02 3.416331e+00 3.292786e-02 3.411771e+00 3.835873e-02 3.403822e+00 4.124731e-02 3.396402e+00 4.265752e-02 
3.518364e+00 2.950384e-02 3.555570e+00 3.238958e-02 3.615714e+00 3.187915e-02 3.525382e+00 2.271838e-02 3.466532e+00 7.463203e-03 3.429892e+00 -2.166466e-02 3.412511e+00 -6.840313e-02 3.436875e+00 -4.703018e-02 3.655648e+00 1.979071e-01 3.422969e+00 -5.282132e-02 3.643428e+00 1.847316e-01 3.411947e+00 -4.681488e-02 3.666543e+00 2.142998e-01 3.413380e+00 -2.969178e-02 3.686666e+00 2.391954e-01 3.418059e+00 -1.621839e-02 3.704383e+00 2.589116e-01 3.423023e+00 -5.184070e-03 3.718287e+00 2.776045e-01 3.426615e+00 8.137952e-03 3.731438e+00 3.023386e-01 3.432845e+00 2.870346e-02 3.755936e+00 3.417651e-01 3.462157e+00 7.811416e-02 3.832048e+00 4.718968e-01 3.443769e+00 6.338330e-02 3.401491e+00 6.181092e-04 3.435240e+00 8.260341e-03 3.458924e+00 1.921662e-02 3.472684e+00 2.505015e-02 3.483379e+00 2.731553e-02 3.496694e+00 2.827574e-02 
3.643993e+00 5.007940e-02 3.705213e+00 5.561483e-02 3.792807e+00 5.540997e-02 3.677676e+00 4.766020e-02 3.590743e+00 3.398300e-02 3.515306e+00 4.907163e-03 3.417209e+00 -7.661102e-02 3.204751e+00 -3.356974e-01 2.394740e+00 -1.110729e+00 2.840412e+00 -6.883909e-01 2.395878e+00 -1.111701e+00 2.832731e+00 -6.899285e-01 2.397128e+00 -1.093460e+00 2.823027e+00 -6.846147e-01 2.404414e+00 -1.073968e+00 2.818880e+00 -6.761195e-01 2.412716e+00 -1.056488e+00 2.817339e+00 -6.650424e-01 2.423677e+00 -1.036541e+00 2.818043e+00 -6.489532e-01 2.438490e+00 -1.010784e+00 2.823682e+00 -6.231862e-01 2.467013e+00 -9.711799e-01 2.853388e+00 -5.775097e-01 2.553016e+00 -9.060180e-01 3.100762e+00 -3.111310e-01 3.388434e+00 -9.471423e-02 3.481388e+00 -1.675522e-02 3.521251e+00 1.593594e-02 3.546939e+00 3.159655e-02 3.571467e+00 4.007277e-02 3.601778e+00 4.552971e-02 
3.756569e+00 3.933452e-02 3.839789e+00 4.610318e-02 3.951913e+00 4.622178e-02 3.812582e+00 4.054429e-02 3.698960e+00 3.174090e-02 3.589820e+00 1.398469e-02 3.436244e+00 -5.489262e-02 3.113383e+00 -3.869174e-01 2.048590e+00 -1.411470e+00 2.610058e+00 -8.270564e-01 1.950405e+00 -1.489364e+00 2.582272e+00 -8.830903e-01 1.879510e+00 -1.546958e+00 2.558445e+00 -9.204852e-01 1.837703e+00 -1.582865e+00 2.546270e+00 -9.447382e-01 1.810692e+00 -1.610097e+00 2.540324e+00 -9.611362e-01 1.794614e+00 -1.630272e+00 2.538610e+00 -9.713276e-01 1.783992e+00 -1.647821e+00 2.542682e+00 -9.748988e-01 1.782885e+00 -1.663492e+00 2.570830e+00 -9.723423e-01 1.825366e+00 -1.692681e+00 2.982450e+00 -5.183278e-01 3.412783e+00 -1.467263e-01 3.523215e+00 -3.333903e-02 3.571097e+00 6.295195e-03 3.608046e+00 2.230420e-02 3.647083e+00 2.988985e-02 3.694626e+00 3.468514e-02 
3.870513e+00 5.748949e-02 3.973151e+00 6.607846e-02 4.107470e+00 6.643291e-02 3.953038e+00 6.099035e-02 3.827269e+00 5.174832e-02 3.718814e+00 3.694365e-02 3.612562e+00 1.201628e-02 3.501505e+00 -1.662976e-02 3.470577e+00 -5.431308e-02 3.280688e+00 -1.318219e-01 3.316280e+00 -1.715885e-01 3.226293e+00 -1.989136e-01 3.249173e+00 -2.456734e-01 3.196068e+00 -2.425014e-01 3.206884e+00 -2.963978e-01 3.180472e+00 -2.730835e-01 3.179981e+00 -3.336506e-01 3.173778e+00 -2.956625e-01 3.162838e+00 -3.628767e-01 3.174381e+00 -3.129649e-01 3.153170e+00 -3.881187e-01 3.185201e+00 -3.258720e-01 3.156479e+00 -4.086787e-01 3.225167e+00 -3.125960e-01 3.199602e+00 -3.715615e-01 3.346442e+00 -1.997243e-01 3.504117e+00 -7.615388e-02 3.581973e+00 -1.466058e-02 3.633232e+00 1.608776e-02 3.679291e+00 3.264599e-02 3.729962e+00 4.280172e-02 3.791696e+00 5.037293e-02 
3.970205e+00 4.914711e-02 4.091095e+00 5.785039e-02 4.245665e+00 5.846966e-02 4.074937e+00 5.238408e-02 3.934648e+00 4.084818e-02 3.819785e+00 1.958322e-02 3.732513e+00 -1.077181e-02 3.711899e+00 1.203612e-02 4.035991e+00 4.465762e-01 3.689122e+00 8.042930e-02 3.909532e+00 3.827985e-01 3.601010e+00 4.683532e-02 3.867512e+00 3.665146e-01 3.564215e+00 3.457119e-02 3.846712e+00 3.573531e-01 3.545730e+00 2.653630e-02 3.838759e+00 3.516736e-01 3.539330e+00 2.072413e-02 3.839337e+00 3.482347e-01 3.542974e+00 1.759758e-02 3.850299e+00 3.494997e-01 3.560537e+00 1.953802e-02 3.881086e+00 3.616920e-01 3.607855e+00 4.457667e-02 3.956685e+00 4.629582e-01 3.615437e+00 4.659458e-02 3.572061e+00 -1.234350e-02 3.624820e+00 1.538477e-03 3.679884e+00 1.797744e-02 3.735616e+00 2.896323e-02 3.798648e+00 3.636689e-02 3.874904e+00 4.252209e-02 
4.071006e+00 6.554513e-02 4.207422e+00 7.564709e-02 4.379865e+00 7.648104e-02 4.200292e+00 7.237930e-02 4.053798e+00 6.520572e-02 3.938732e+00 5.530433e-02 3.859092e+00 4.876912e-02 3.836941e+00 7.795102e-02 3.976194e+00 2.644914e-01 3.818414e+00 1.444954e-01 3.880025e+00 2.560463e-01 3.735015e+00 1.276769e-01 3.832135e+00 2.504473e-01 3.693535e+00 1.177406e-01 3.806941e+00 2.471087e-01 3.671162e+00 1.111377e-01 3.796106e+00 2.462504e-01 3.662196e+00 1.074837e-01 3.796020e+00 2.481547e-01 3.664618e+00 1.073072e-01 3.807529e+00 2.551457e-01 3.680213e+00 1.129346e-01 3.834523e+00 2.729523e-01 3.711310e+00 1.298408e-01 3.878597e+00 3.055772e-01 3.714297e+00 9.685081e-02 3.662945e+00 3.359793e-02 3.693889e+00 2.741603e-02 3.743818e+00 3.403896e-02 3.803381e+00 4.210237e-02 3.874714e+00 4.970541e-02 3.962169e+00 5.723905e-02 
4.156739e+00 5.908476e-02 4.308147e+00 6.882181e-02 4.497208e+00 6.988530e-02 4.306124e+00 6.570541e-02 4.149143e+00 5.957768e-02 4.026493e+00 5.469652e-02 3.941689e+00 6.351978e-02 3.906025e+00 1.175107e-01 3.948683e+00 1.959896e-01 3.870506e+00 1.819592e-01 3.865134e+00 2.074986e-01 3.786526e+00 1.797791e-01 3.804364e+00 2.040674e-01 3.737338e+00 1.762709e-01 3.770192e+00 2.014268e-01 3.710451e+00 1.738278e-01 3.754019e+00 2.001266e-01 3.699648e+00 1.727141e-01 3.751603e+00 2.006489e-01 3.702357e+00 1.739671e-01 3.762600e+00 2.047512e-01 3.719293e+00 1.796538e-01 3.788256e+00 2.158166e-01 3.748067e+00 1.916346e-01 3.817805e+00 2.116344e-01 3.741514e+00 1.163762e-01 3.710274e+00 6.056627e-02 3.735942e+00 4.188234e-02 3.787301e+00 3.901668e-02 3.853672e+00 4.147019e-02 3.934893e+00 4.586011e-02 4.034305e+00 5.161600e-02 
4.243381e+00 7.390474e-02 4.406976e+00 8.479757e-02 4.610166e+00 8.605769e-02 4.412530e+00 8.405837e-02 4.249769e+00 8.159426e-02 4.121860e+00 8.226727e-02 4.029857e+00 9.468799e-02 3.976619e+00 1.329193e-01 3.967425e+00 1.778414e-01 3.916735e+00 1.813983e-01 3.887238e+00 1.944270e-01 3.835695e+00 1.835354e-01 3.822876e+00 1.920956e-01 3.783294e+00 1.790445e-01 3.784190e+00 1.878223e-01 3.753503e+00 1.748939e-01 3.764741e+00 1.849875e-01 3.740950e+00 1.727710e-01 3.760564e+00 1.846454e-01 3.742955e+00 1.735911e-01 3.770435e+00 1.878337e-01 3.758734e+00 1.779844e-01 3.793068e+00 1.940574e-01 3.783750e+00 1.794753e-01 3.818372e+00 1.787908e-01 3.788691e+00 1.201740e-01 3.771668e+00 7.778249e-02 3.795335e+00 5.853327e-02 3.845565e+00 5.295142e-02 3.914817e+00 5.404372e-02 4.002242e+00 5.850588e-02 4.110332e+00 6.517302e-02 
4.314411e+00 6.876975e-02 4.490089e+00 7.929666e-02 4.706675e+00 8.076311e-02 4.499728e+00 7.927855e-02 4.327635e+00 7.859762e-02 4.190558e+00 8.309424e-02 4.088329e+00 1.001039e-01 4.020948e+00 1.350945e-01 3.986559e+00 1.652322e-01 3.937717e+00 1.802439e-01 3.898305e+00 1.876495e-01 3.851567e+00 1.890378e-01 3.825712e+00 1.896093e-01 3.792181e+00 1.882729e-01 3.780279e+00 1.877126e-01 3.757726e+00 1.862708e-01 3.756779e+00 1.859502e-01 3.742905e+00 1.850560e-01 3.750888e+00 1.855287e-01 3.744565e+00 1.855697e-01 3.760635e+00 1.871155e-01 3.761061e+00 1.876269e-01 3.783486e+00 1.881221e-01 3.786684e+00 1.812384e-01 3.808843e+00 1.609631e-01 3.799111e+00 1.208261e-01 3.798412e+00 8.603993e-02 3.827142e+00 6.532661e-02 3.881529e+00 5.596212e-02 3.956935e+00 5.367011e-02 4.052511e+00 5.570689e-02 4.170343e+00 6.084095e-02 
4.386133e+00 8.191382e-02 4.571112e+00 9.336093e-02 4.798477e+00 9.499723e-02 4.585830e+00 9.479006e-02 4.407979e+00 9.556829e-02 4.264503e+00 1.010556e-01 4.154272e+00 1.162163e-01 4.075598e+00 1.427155e-01 4.024667e+00 1.656264e-01 3.974278e+00 1.790058e-01 3.929236e+00 1.852316e-01 3.884917e+00 1.865469e-01 3.852895e+00 1.859064e-01 3.822198e+00 1.839676e-01 3.804012e+00 1.821541e-01 3.785113e+00 1.801479e-01 3.778100e+00 1.789032e-01 3.768705e+00 1.777388e-01 3.770904e+00 1.776111e-01 3.769713e+00 1.775641e-01 3.780086e+00 1.785048e-01 3.786017e+00 1.786103e-01 3.802721e+00 1.776630e-01 3.812448e+00 1.701091e-01 3.830433e+00 1.522430e-01 3.834070e+00 1.209145e-01 3.842013e+00 9.251514e-02 3.873587e+00 7.425198e-02 3.929931e+00 6.560571e-02 4.008675e+00 6.383883e-02 4.109370e+00 6.667740e-02 4.233941e+00 7.285625e-02 
4.441924e+00 7.749099e-02 4.636356e+00 8.868791e-02 4.874157e+00 9.050166e-02 4.653584e+00 9.071507e-02 4.467497e+00 9.251180e-02 4.315584e+00 9.958901e-02 4.196505e+00 1.158411e-01 4.108433e+00 1.408284e-01 4.047056e+00 1.622934e-01 3.990299e+00 1.770427e-01 3.940167e+00 1.841899e-01 3.892819e+00 1.876334e-01 3.856483e+00 1.877063e-01 3.823863e+00 1.875943e-01 3.802206e+00 1.860139e-01 3.782645e+00 1.854210e-01 3.773066e+00 1.838694e-01 3.764141e+00 1.836548e-01 3.764561e+00 1.826342e-01 3.764785e+00 1.829890e-01 3.774001e+00 1.822788e-01 3.782139e+00 1.819602e-01 3.798228e+00 1.781579e-01 3.811175e+00 1.692681e-01 3.829758e+00 1.488624e-01 3.840358e+00 1.204642e-01 3.856840e+00 9.424252e-02 3.894516e+00 7.590251e-02 3.956260e+00 6.590160e-02 4.040981e+00 6.248562e-02 4.148595e+00 6.388372e-02 4.281026e+00 6.902161e-02 
4.498200e+00 8.895784e-02 4.699357e+00 1.008878e-01 4.944881e+00 1.028375e-01 4.719276e+00 1.032351e-01 4.527870e+00 1.044257e-01 4.370158e+00 1.096779e-01 4.244917e+00 1.230311e-01 4.150781e+00 1.459272e-01 4.085035e+00 1.684226e-01 4.024503e+00 1.796696e-01 3.970274e+00 1.860663e-01 3.920460e+00 1.859592e-01 3.881826e+00 1.860572e-01 3.847958e+00 1.830163e-01 3.824791e+00 1.819895e-01 3.804567e+00 1.788593e-01 3.793948e+00 1.782792e-01 3.784827e+00 1.758611e-01 3.784603e+00 1.761627e-01 3.785116e+00 1.745857e-01 3.794144e+00 1.755329e-01 3.803303e+00 1.737171e-01 3.820060e+00 1.726399e-01 3.835319e+00 1.643911e-01 3.855737e+00 1.496044e-01 3.870147e+00 1.213762e-01 3.888010e+00 9.582722e-02 3.928277e+00 7.928744e-02 3.993336e+00 7.135321e-02 4.081833e+00 6.982013e-02 4.193818e+00 7.283935e-02 4.331371e+00 7.935639e-02 
4.538390e+00 8.476796e-02 4.746555e+00 9.655528e-02 4.999735e+00 9.864652e-02 4.767466e+00 9.907734e-02 4.569096e+00 1.002805e-01 4.404397e+00 1.055037e-01 4.272468e+00 1.190083e-01 4.172704e+00 1.431714e-01 4.104169e+00 1.686525e-01 4.035799e+00 1.794156e-01 3.978045e+00 1.870232e-01 3.922688e+00 1.866058e-01 3.882814e+00 1.883845e-01 3.844750e+00 1.853126e-01 3.821490e+00 1.858962e-01 3.797978e+00 1.825125e-01 3.788163e+00 1.831839e-01 3.776544e+00 1.800797e-01 3.777894e+00 1.811730e-01 3.776678e+00 1.783988e-01 3.788051e+00 1.796885e-01 3.796409e+00 1.762567e-01 3.816511e+00 1.754860e-01 3.832228e+00 1.658483e-01 3.857141e+00 1.514323e-01 3.872153e+00 1.208777e-01 3.893069e+00 9.423128e-02 3.938641e+00 7.745030e-02 4.009393e+00 6.925736e-02 4.103547e+00 6.721246e-02 4.221325e+00 6.959206e-02 4.365005e+00 7.553280e-02 
4.578910e+00 9.483411e-02 4.791384e+00 1.072972e-01 5.049455e+00 1.094886e-01 4.812919e+00 1.094181e-01 4.609741e+00 1.084551e-01 4.439625e+00 1.089626e-01 4.302596e+00 1.162012e-01 4.200957e+00 1.406836e-01 4.142139e+00 1.876750e-01 4.066402e+00 1.811650e-01 4.006563e+00 1.977099e-01 3.943383e+00 1.801506e-01 3.906370e+00 1.935949e-01 3.862034e+00 1.750440e-01 3.843252e+00 1.883739e-01 3.813596e+00 1.700930e-01 3.809022e+00 1.841112e-01 3.791286e+00 1.663926e-01 3.798368e+00 1.813033e-01 3.791303e+00 1.641549e-01 3.809067e+00 1.799284e-01 3.812570e+00 1.627779e-01 3.840627e+00 1.787958e-01 3.853734e+00 1.596311e-01 3.888242e+00 1.689504e-01 3.897664e+00 1.221843e-01 3.910557e+00 8.962178e-02 3.959306e+00 7.507348e-02 4.034964e+00 7.078142e-02 4.133190e+00 7.201859e-02 4.254485e+00 7.678742e-02 4.401682e+00 8.442373e-02 
4.603282e+00 9.061555e-02 4.820411e+00 1.030218e-01 5.083482e+00 1.053156e-01 4.841536e+00 1.050059e-01 4.632561e+00 1.032686e-01 4.456506e+00 1.020990e-01 4.314059e+00 1.072379e-01 4.209831e+00 1.325288e-01 4.163444e+00 1.988864e-01 4.067764e+00 1.776343e-01 4.013596e+00 2.046663e-01 3.935246e+00 1.752845e-01 3.908318e+00 2.007796e-01 3.849394e+00 1.713900e-01 3.842310e+00 1.967924e-01 3.798262e+00 1.676652e-01 3.806515e+00 1.934853e-01 3.774609e+00 1.644909e-01 3.795407e+00 1.909005e-01 3.774583e+00 1.618915e-01 3.807019e+00 1.890865e-01 3.797650e+00 1.596876e-01 3.841929e+00 1.882299e-01 3.844056e+00 1.581585e-01 3.897385e+00 1.812699e-01 3.891501e+00 1.196371e-01 3.903704e+00 8.341613e-02 3.959015e+00 6.977614e-02 4.040954e+00 6.664561e-02 4.144287e+00 6.835508e-02 4.270065e+00 7.306559e-02 4.421606e+00 8.043373e-02 
4.627897e+00 9.976391e-02 4.846964e+00 1.129093e-01 5.112267e+00 1.152683e-01 4.867251e+00 1.147538e-01 4.653998e+00 1.109571e-01 4.471190e+00 1.028429e-01 4.319447e+00 8.972280e-02 4.211681e+00 8.205222e-02 4.229159e+00 2.939392e-01 4.075043e+00 1.307523e-01 4.056407e+00 2.694090e-01 3.927506e+00 1.140373e-01 3.949668e+00 2.598201e-01 3.838352e+00 1.061599e-01 3.884015e+00 2.533330e-01 3.785515e+00 1.000896e-01 3.848719e+00 2.488914e-01 3.760886e+00 9.538661e-02 3.837864e+00 2.459594e-01 3.760475e+00 9.181021e-02 3.850131e+00 2.449736e-01 3.784762e+00 8.935885e-02 3.888646e+00 2.468490e-01 3.839939e+00 9.091275e-02 3.963511e+00 2.778357e-01 3.902621e+00 1.056781e-01 3.898282e+00 6.202987e-02 3.966728e+00 5.987216e-02 4.056476e+00 6.515953e-02 4.163455e+00 7.174116e-02 4.291299e+00 7.930247e-02 4.444504e+00 8.844144e-02 
4.636331e+00 9.539686e-02 4.857732e+00 1.085079e-01 5.125461e+00 1.109280e-01 4.876526e+00 1.103008e-01 4.658565e+00 1.058784e-01 4.469646e+00 9.547364e-02 4.309731e+00 7.597514e-02 4.192854e+00 6.221978e-02 4.222454e+00 2.978782e-01 4.026901e+00 9.150280e-02 4.034765e+00 2.623059e-01 3.874172e+00 7.380795e-02 3.924620e+00 2.515609e-01 3.780855e+00 6.710723e-02 3.856110e+00 2.447627e-01 3.725282e+00 6.212836e-02 3.818736e+00 2.398562e-01 3.698934e+00 5.778909e-02 3.806443e+00 2.358478e-01 3.697757e+00 5.369292e-02 3.818207e+00 2.332544e-01 3.722761e+00 5.003596e-02 3.858755e+00 2.339310e-01 3.784193e+00 5.499148e-02 3.947912e+00 2.815974e-01 3.859450e+00 7.902761e-02 3.875021e+00 4.509007e-02 3.957349e+00 5.103051e-02 4.053800e+00 5.998479e-02 4.164505e+00 6.775963e-02 4.295045e+00 7.543792e-02 4.450627e+00 8.432787e-02 
4.644970e+00 1.040578e-01 4.865964e+00 1.178024e-01 5.133369e+00 1.202410e-01 4.883998e+00 1.204582e-01 4.664077e+00 1.178263e-01 4.467239e+00 1.115760e-01 4.278981e+00 9.249571e-02 4.063412e+00 2.542870e-02 3.678297e+00 -3.751589e-01 3.662292e+00 -1.661817e-01 3.469793e+00 -4.138512e-01 3.523930e+00 -1.896362e-01 3.342722e+00 -4.352967e-01 3.432177e+00 -2.060062e-01 3.262593e+00 -4.500166e-01 3.377098e+00 -2.172743e-01 3.216373e+00 -4.619255e-01 3.349799e+00 -2.253567e-01 3.197844e+00 -4.715914e-01 3.346465e+00 -2.309494e-01 3.204048e+00 -4.807622e-01 3.367315e+00 -2.343680e-01 3.238590e+00 -4.895358e-01 3.422018e+00 -2.333356e-01 3.319932e+00 -5.073108e-01 3.615878e+00 -1.497310e-01 3.844887e+00 -1.010598e-02 3.962086e+00 3.892271e-02 4.063277e+00 5.990710e-02 4.174359e+00 7.206651e-02 4.304589e+00 8.192138e-02 4.459720e+00 9.213066e-02 
4.637397e+00 9.938911e-02 4.858420e+00 1.129038e-01 5.125717e+00 1.153524e-01 4.874859e+00 1.156563e-01 4.652600e+00 1.136332e-01 4.450603e+00 1.088342e-01 4.247183e+00 8.789526e-02 3.981509e+00 -1.123918e-02 3.386593e+00 -7.171595e-01 3.472473e+00 -3.016109e-01 3.172429e+00 -7.487224e-01 3.340935e+00 -3.226003e-01 3.039774e+00 -7.658365e-01 3.251237e+00 -3.377886e-01 2.957345e+00 -7.757924e-01 3.197803e+00 -3.471667e-01 2.910379e+00 -7.838839e-01 3.171690e+00 -3.533138e-01 2.892707e+00 -7.903977e-01 3.169344e+00 -3.570615e-01 2.900643e+00 -7.978689e-01 3.190732e+00 -3.587992e-01 2.937269e+00 -8.072085e-01 3.244944e+00 -3.598345e-01 3.019572e+00 -8.524693e-01 3.499289e+00 -2.433635e-01 3.819350e+00 -3.187566e-02 3.950699e+00 3.285256e-02 4.054110e+00 5.682631e-02 4.165896e+00 6.909147e-02 4.296570e+00 7.839470e-02 4.451993e+00 8.797053e-02 
4.630042e+00 1.077843e-01 4.848362e+00 1.212426e-01 5.112784e+00 1.236239e-01 4.865911e+00 1.230284e-01 4.649263e+00 1.186534e-01 4.458691e+00 1.087569e-01 4.287109e+00 8.718685e-02 4.123244e+00 4.772200e-02 3.943630e+00 -5.082611e-02 3.833999e+00 -4.381701e-02 3.750152e+00 -8.512341e-02 3.692935e+00 -6.230173e-02 3.638461e+00 -9.539825e-02 3.604407e+00 -7.115532e-02 3.570688e+00 -1.001560e-01 3.552556e+00 -7.644508e-02 3.534572e+00 -1.026464e-01 3.528383e+00 -7.984918e-02 3.523979e+00 -1.034479e-01 3.528105e+00 -8.170600e-02 3.537345e+00 -1.025489e-01 3.552708e+00 -8.149017e-02 3.579352e+00 -9.807012e-02 3.612729e+00 -7.222752e-02 3.670199e+00 -7.167140e-02 3.740879e+00 -2.412735e-02 3.857513e+00 2.225190e-02 3.957400e+00 4.946125e-02 4.055971e+00 6.543686e-02 4.165707e+00 7.643062e-02 4.294228e+00 8.597716e-02 4.447234e+00 9.603496e-02 