# vtk DataFile Version 2.0
Comment goes here
ASCII

DATASET STRUCTURED_POINTS
FIELD FieldData 1
TIME 1 1 double
0.00800000
DIMENSIONS    64   64   1

ORIGIN    0.000   0.000   0.000
SPACING   0.03125 0.03125   1.000

POINT_DATA   4096
SCALARS uX double
LOOKUP_TABLE default

-1.233900e-02 -2.648782e-01 1.407339e-01 -2.301748e-01 7.904965e-02 -1.533907e-01 -1.652677e-02 -4.986647e-02 -1.134508e-01 4.637088e-02 -1.877123e-01 1.117498e-01 -2.279845e-01 1.445248e-01 -2.379127e-01 1.493833e-01 -2.232277e-01 1.308717e-01 -1.922706e-01 1.056795e-01 -1.662846e-01 9.410558e-02 -1.538512e-01 8.659654e-02 -1.359219e-01 6.851165e-02 -1.121552e-01 5.031521e-02 -8.754942e-02 2.878315e-02 -6.229074e-02 8.688051e-03 -3.892743e-02 -1.189581e-02 -1.687988e-02 -2.977130e-02 2.980509e-03 -4.673972e-02 2.157411e-02 -6.309998e-02 3.979435e-02 -7.965204e-02 5.506172e-02 -9.052957e-02 6.446552e-02 -9.803157e-02 7.150954e-02 -1.031261e-01 7.242587e-02 -1.005013e-01 7.041196e-02 -1.102676e-01 9.562115e-02 -1.496061e-01 1.366908e-01 -1.830403e-01 1.476430e-01 -1.705580e-01 1.057424e-01 -1.074943e-01 1.808715e-02 -9.927684e-03 -8.979385e-02 7.329683e-02 
-2.998996e-02 2.876892e-01 -3.014657e-01 3.051871e-01 -2.859925e-01 2.734817e-01 -2.329541e-01 2.129845e-01 -1.791236e-01 1.537857e-01 -1.363108e-01 1.088533e-01 -1.091066e-01 7.886597e-02 -9.494639e-02 6.070077e-02 -8.880526e-02 5.151417e-02 -8.820646e-02 4.446005e-02 -8.276365e-02 2.728165e-02 -6.754537e-02 6.927050e-03 -5.406811e-02 -7.991231e-03 -4.099407e-02 -2.712797e-02 -2.522081e-02 -4.594390e-02 -9.763032e-03 -6.430887e-02 5.634099e-03 -7.981658e-02 1.958665e-02 -9.488972e-02 3.267915e-02 -1.093421e-01 4.547909e-02 -1.223250e-01 5.665859e-02 -1.321435e-01 6.608203e-02 -1.404400e-01 7.297661e-02 -1.452488e-01 7.685245e-02 -1.466941e-01 8.174376e-02 -1.528668e-01 9.035049e-02 -1.531013e-01 8.265569e-02 -1.336437e-01 6.358303e-02 -1.150292e-01 5.918769e-02 -1.192675e-01 8.183032e-02 -1.476830e-01 1.261975e-01 -1.901017e-01 1.738773e-01 -2.010043e-01 
1.827141e-01 2.642394e-01 -6.290436e-02 2.596515e-01 -2.098825e-02 2.057188e-01 3.508376e-02 1.361771e-01 1.181584e-01 7.005690e-02 1.898154e-01 2.430729e-02 2.379804e-01 -1.276787e-03 2.652133e-01 -1.078169e-02 2.763735e-01 -7.077679e-03 2.760980e-01 -7.355321e-04 2.796355e-01 -7.344208e-03 2.939103e-01 -1.837033e-02 3.033841e-01 -2.180180e-02 3.090245e-01 -2.808217e-02 3.149033e-01 -3.278951e-02 3.195306e-01 -3.836408e-02 3.243363e-01 -4.200030e-02 3.278457e-01 -4.657110e-02 3.309635e-01 -5.086241e-02 3.333139e-01 -5.434229e-02 3.337532e-01 -5.545687e-02 3.331413e-01 -5.814130e-02 3.327362e-01 -5.995974e-02 3.298518e-01 -6.059440e-02 3.289826e-01 -6.761495e-02 3.307243e-01 -6.599225e-02 3.089851e-01 -3.887063e-02 2.704677e-01 -1.319938e-02 2.497023e-01 -1.894435e-02 2.630082e-01 -5.885945e-02 3.046407e-01 -1.222866e-01 3.571222e-01 -1.666125e-01 
1.620408e-01 -1.672838e-01 2.010397e-01 -1.266293e-01 -3.322074e-02 -9.506413e-02 1.170820e-01 -5.643575e-02 2.071783e-01 -2.748910e-02 2.705968e-01 -1.070110e-02 3.214954e-01 -2.780877e-03 3.641719e-01 -4.701140e-04 3.997768e-01 -2.663901e-03 4.309101e-01 -6.077252e-03 4.531299e-01 -2.315151e-03 4.644672e-01 2.843810e-03 4.747752e-01 3.298572e-03 4.830724e-01 6.837629e-03 4.873483e-01 9.964657e-03 4.901847e-01 1.311084e-02 4.911402e-01 1.462857e-02 4.914424e-01 1.648198e-02 4.903540e-01 1.874423e-02 4.874320e-01 2.084668e-02 4.834444e-01 2.169012e-02 4.782822e-01 2.281477e-02 4.718724e-01 2.278377e-02 4.648091e-01 2.134512e-02 4.534757e-01 2.551388e-02 4.342868e-01 2.775422e-02 4.221118e-01 1.714419e-02 4.134283e-01 7.604482e-03 3.894865e-01 1.408364e-02 3.394143e-01 3.991823e-02 2.581161e-01 8.901950e-02 1.359065e-01 1.522325e-01 
2.361638e-01 -8.827598e-02 2.220949e-01 -6.538694e-02 1.860257e-02 -4.933244e-02 1.803493e-01 -3.279161e-02 2.679384e-01 -2.073222e-02 3.270835e-01 -1.399604e-02 3.722559e-01 -1.041070e-02 4.080421e-01 -8.349783e-03 4.363892e-01 -7.788601e-03 4.598175e-01 -7.751002e-03 4.769287e-01 -4.227190e-03 4.871207e-01 -2.969251e-04 4.958278e-01 1.008290e-03 5.024323e-01 4.066067e-03 5.060395e-01 6.863912e-03 5.082299e-01 9.644153e-03 5.089034e-01 1.139926e-02 5.088289e-01 1.322590e-02 5.076012e-01 1.514502e-02 5.049661e-01 1.689807e-02 5.013371e-01 1.778031e-02 4.967029e-01 1.858901e-02 4.909613e-01 1.846372e-02 4.844111e-01 1.733396e-02 4.747899e-01 1.934601e-02 4.594932e-01 2.098369e-02 4.461869e-01 1.624939e-02 4.334116e-01 1.168509e-02 4.121085e-01 1.409408e-02 3.769794e-01 2.490785e-02 3.241817e-01 4.776330e-02 2.441009e-01 8.172338e-02 
2.169365e-01 -5.816601e-02 1.899968e-01 -7.001926e-02 9.136910e-02 -6.963228e-02 1.764469e-01 -4.808694e-02 2.452237e-01 -2.972509e-02 2.992377e-01 -1.676889e-02 3.432126e-01 -8.901659e-03 3.798923e-01 -4.921635e-03 4.105190e-01 -3.634904e-03 4.358401e-01 -3.047358e-03 4.549599e-01 -6.262180e-04 4.679673e-01 2.390335e-03 4.778097e-01 4.457953e-03 4.850953e-01 7.073216e-03 4.897805e-01 9.668422e-03 4.926397e-01 1.209349e-02 4.939525e-01 1.398572e-02 4.941049e-01 1.578777e-02 4.930275e-01 1.757107e-02 4.906046e-01 1.911943e-02 4.870256e-01 2.013466e-02 4.822364e-01 2.085948e-02 4.761229e-01 2.102652e-02 4.683986e-01 2.084280e-02 4.578715e-01 2.160155e-02 4.440789e-01 2.108265e-02 4.302597e-01 1.715316e-02 4.142868e-01 1.453741e-02 3.890170e-01 1.873401e-02 3.495292e-01 3.036379e-02 2.959660e-01 4.378709e-02 2.376944e-01 3.631066e-02 
2.751779e-01 -2.980538e-02 2.322865e-01 -3.700927e-02 1.388182e-01 -3.684208e-02 2.277663e-01 -2.781725e-02 2.960950e-01 -2.022502e-02 3.474841e-01 -1.476326e-02 3.874367e-01 -1.100287e-02 4.192127e-01 -8.366778e-03 4.445984e-01 -6.588117e-03 4.647731e-01 -5.018566e-03 4.800051e-01 -2.562832e-03 4.907355e-01 7.425024e-05 4.988364e-01 2.136002e-03 5.046868e-01 4.492384e-03 5.084591e-01 6.816370e-03 5.106506e-01 9.011127e-03 5.115769e-01 1.083911e-02 5.114600e-01 1.253238e-02 5.103452e-01 1.412070e-02 5.081175e-01 1.548205e-02 5.049333e-01 1.641132e-02 5.006926e-01 1.700518e-02 4.953271e-01 1.708887e-02 4.885122e-01 1.680770e-02 4.794313e-01 1.700159e-02 4.674892e-01 1.666345e-02 4.544183e-01 1.464093e-02 4.392836e-01 1.309091e-02 4.185118e-01 1.447177e-02 3.893593e-01 1.904646e-02 3.509218e-01 2.447471e-02 3.060812e-01 1.980056e-02 
2.776083e-01 -2.841705e-02 2.489624e-01 -4.373385e-02 2.040100e-01 -4.385636e-02 2.515607e-01 -3.632563e-02 2.972633e-01 -2.643513e-02 3.372560e-01 -1.768864e-02 3.715964e-01 -1.112416e-02 4.009909e-01 -6.685078e-03 4.258466e-01 -3.916840e-03 4.462316e-01 -1.883797e-03 4.621718e-01 3.806882e-04 4.739319e-01 2.766020e-03 4.827339e-01 4.930179e-03 4.890911e-01 7.156863e-03 4.934360e-01 9.344916e-03 4.960738e-01 1.139361e-02 4.973952e-01 1.319961e-02 4.975081e-01 1.485214e-02 4.965793e-01 1.636604e-02 4.944969e-01 1.764983e-02 4.914018e-01 1.859065e-02 4.871200e-01 1.918622e-02 4.815984e-01 1.935925e-02 4.744166e-01 1.915576e-02 4.651668e-01 1.874750e-02 4.535715e-01 1.758969e-02 4.402849e-01 1.561007e-02 4.241563e-01 1.453216e-02 4.024162e-01 1.597943e-02 3.733709e-01 1.906420e-02 3.383711e-01 1.902823e-02 3.032030e-01 5.984102e-03 
3.261403e-01 -1.494558e-02 2.924028e-01 -2.390577e-02 2.473015e-01 -2.400227e-02 2.960713e-01 -2.146545e-02 3.412616e-01 -1.758569e-02 3.793389e-01 -1.381759e-02 4.107955e-01 -1.046181e-02 4.367708e-01 -7.517442e-03 4.580122e-01 -5.167234e-03 4.746698e-01 -3.159455e-03 4.875861e-01 -1.071986e-03 4.969788e-01 1.023781e-03 5.040920e-01 2.974281e-03 5.090183e-01 4.952056e-03 5.124599e-01 6.900255e-03 5.143360e-01 8.745716e-03 5.152926e-01 1.041595e-02 5.150884e-01 1.194088e-02 5.142013e-01 1.332320e-02 5.122236e-01 1.449457e-02 5.095846e-01 1.537534e-02 5.058055e-01 1.592633e-02 5.011406e-01 1.607448e-02 4.948771e-01 1.579960e-02 4.869350e-01 1.518982e-02 4.766206e-01 1.403001e-02 4.647168e-01 1.254809e-02 4.507845e-01 1.153936e-02 4.332862e-01 1.162911e-02 4.110104e-01 1.229965e-02 3.839926e-01 1.128410e-02 3.542876e-01 3.722091e-03 
3.410611e-01 -1.831250e-02 3.236690e-01 -2.887598e-02 3.059450e-01 -2.901353e-02 3.288658e-01 -2.694027e-02 3.551358e-01 -2.200042e-02 3.809665e-01 -1.642125e-02 4.049357e-01 -1.121786e-02 4.266272e-01 -6.774159e-03 4.456388e-01 -3.456852e-03 4.610665e-01 -9.440590e-04 4.735660e-01 1.273414e-03 4.828559e-01 3.366656e-03 4.901021e-01 5.344504e-03 4.950999e-01 7.280804e-03 4.987997e-01 9.163262e-03 5.008252e-01 1.093741e-02 5.020465e-01 1.256887e-02 5.019532e-01 1.405385e-02 5.012848e-01 1.539117e-02 4.994013e-01 1.652084e-02 4.969642e-01 1.739033e-02 4.932428e-01 1.793166e-02 4.887334e-01 1.806553e-02 4.825024e-01 1.766946e-02 4.748093e-01 1.664257e-02 4.647580e-01 1.491636e-02 4.531502e-01 1.315437e-02 4.396285e-01 1.198474e-02 4.231150e-01 1.157209e-02 4.031668e-01 1.086313e-02 3.809295e-01 7.264174e-03 3.592581e-01 -2.530907e-03 
3.825815e-01 -1.003197e-02 3.635858e-01 -1.639458e-02 3.451747e-01 -1.649744e-02 3.681394e-01 -1.647347e-02 3.936391e-01 -1.484390e-02 4.178638e-01 -1.246020e-02 4.396608e-01 -9.507230e-03 4.590776e-01 -6.070127e-03 4.760147e-01 -3.393276e-03 4.883126e-01 -1.373372e-03 4.986943e-01 4.191113e-04 5.055043e-01 2.120588e-03 5.115348e-01 3.791213e-03 5.148357e-01 5.441246e-03 5.180274e-01 7.091098e-03 5.189419e-01 8.654569e-03 5.201693e-01 1.014149e-02 5.194001e-01 1.148918e-02 5.191480e-01 1.273842e-02 5.169907e-01 1.379371e-02 5.153757e-01 1.466930e-02 5.118036e-01 1.524479e-02 5.085526e-01 1.548156e-02 5.029200e-01 1.512020e-02 4.968113e-01 1.392915e-02 4.873397e-01 1.171777e-02 4.770407e-01 9.974077e-03 4.658427e-01 8.874335e-03 4.528216e-01 8.188230e-03 4.373753e-01 7.228162e-03 4.197178e-01 4.682587e-03 4.009835e-01 -1.084811e-03 
4.035504e-01 -1.355663e-02 3.984330e-01 -2.027556e-02 3.978993e-01 -2.038965e-02 4.030227e-01 -2.041671e-02 4.135694e-01 -1.820378e-02 4.266018e-01 -1.477694e-02 4.405854e-01 -1.055229e-02 4.549612e-01 -5.735438e-03 4.690159e-01 -2.183485e-03 4.788352e-01 2.937178e-04 4.881697e-01 2.298202e-03 4.938280e-01 4.082992e-03 4.997180e-01 5.806704e-03 5.024092e-01 7.457236e-03 5.058373e-01 9.094973e-03 5.063828e-01 1.062159e-02 5.080120e-01 1.208884e-02 5.069742e-01 1.339954e-02 5.072051e-01 1.462682e-02 5.048590e-01 1.564729e-02 5.038109e-01 1.651966e-02 5.001524e-01 1.707851e-02 4.975909e-01 1.730170e-02 4.920491e-01 1.680718e-02 4.868117e-01 1.523795e-02 4.774958e-01 1.227742e-02 4.679239e-01 1.009986e-02 4.580848e-01 8.670535e-03 4.472382e-01 7.450813e-03 4.352369e-01 5.544874e-03 4.228994e-01 1.714267e-03 4.118231e-01 -4.971248e-03 
4.395319e-01 -7.766320e-03 4.340497e-01 -1.200349e-02 4.331343e-01 -1.209116e-02 4.377814e-01 -1.307985e-02 4.473747e-01 -1.285939e-02 4.588702e-01 -1.167480e-02 4.709422e-01 -9.040477e-03 4.838936e-01 -3.869994e-03 4.986605e-01 -9.421171e-04 5.038826e-01 6.339978e-04 5.133746e-01 2.019181e-03 5.148161e-01 3.238288e-03 5.217063e-01 4.645115e-03 5.207667e-01 5.918704e-03 5.258710e-01 7.383776e-03 5.232377e-01 8.626970e-03 5.270419e-01 1.002093e-02 5.231957e-01 1.112175e-02 5.259998e-01 1.236107e-02 5.212150e-01 1.325743e-02 5.231241e-01 1.427533e-02 5.174792e-01 1.488553e-02 5.183477e-01 1.549626e-02 5.114374e-01 1.525213e-02 5.100530e-01 1.369982e-02 4.988749e-01 8.937922e-03 4.902565e-01 6.750048e-03 4.827142e-01 5.786641e-03 4.747650e-01 5.012903e-03 4.659263e-01 3.742385e-03 4.564929e-01 1.327309e-03 4.473287e-01 -2.673495e-03 
4.627845e-01 -1.070334e-02 4.684801e-01 -1.506613e-02 4.803800e-01 -1.515632e-02 4.718662e-01 -1.612226e-02 4.696085e-01 -1.561720e-02 4.713453e-01 -1.393050e-02 4.758838e-01 -1.048766e-02 4.836591e-01 -3.439950e-03 4.966141e-01 1.899317e-04 4.971114e-01 1.990079e-03 5.064377e-01 3.565103e-03 5.045847e-01 4.843123e-03 5.125234e-01 6.364195e-03 5.089928e-01 7.627539e-03 5.157510e-01 9.159570e-03 5.108635e-01 1.034518e-02 5.166406e-01 1.178655e-02 5.107297e-01 1.280784e-02 5.157011e-01 1.408944e-02 5.090181e-01 1.490038e-02 5.132697e-01 1.598126e-02 5.059612e-01 1.653871e-02 5.094348e-01 1.727150e-02 5.012850e-01 1.699478e-02 5.029037e-01 1.523815e-02 4.904694e-01 8.858273e-03 4.829573e-01 6.292433e-03 4.775417e-01 5.140167e-03 4.725042e-01 4.010292e-03 4.676245e-01 2.150548e-03 4.635788e-01 -9.696350e-04 4.615397e-01 -5.492192e-03 
4.941127e-01 -6.377142e-03 4.998815e-01 -9.279418e-03 5.116797e-01 -9.351193e-03 5.025339e-01 -1.088341e-02 4.992651e-01 -1.183609e-02 4.993417e-01 -1.233807e-02 5.013767e-01 -1.111682e-02 5.069612e-01 5.026687e-04 5.308083e-01 2.933261e-03 5.152167e-01 2.747163e-03 5.360742e-01 3.855019e-03 5.187044e-01 4.078599e-03 5.396813e-01 5.705164e-03 5.206701e-01 6.113428e-03 5.414302e-01 7.973466e-03 5.211055e-01 8.356906e-03 5.415470e-01 1.026976e-02 5.203447e-01 1.052449e-02 5.404266e-01 1.240305e-02 5.187432e-01 1.250945e-02 5.384178e-01 1.436481e-02 5.166334e-01 1.443697e-02 5.359195e-01 1.643815e-02 5.144178e-01 1.659855e-02 5.331006e-01 1.674274e-02 5.078069e-01 3.580732e-03 5.023924e-01 2.293293e-03 4.999859e-01 2.502604e-03 4.975839e-01 2.330659e-03 4.950509e-01 1.403721e-03 4.929734e-01 -4.304569e-04 4.922763e-01 -3.159449e-03 
5.175067e-01 -8.708495e-03 5.322553e-01 -1.168599e-02 5.537796e-01 -1.175661e-02 5.345071e-01 -1.328897e-02 5.217104e-01 -1.420399e-02 5.133254e-01 -1.483255e-02 5.079719e-01 -1.405405e-02 5.073034e-01 -1.147045e-03 5.299664e-01 9.112099e-04 5.066529e-01 3.905679e-04 5.290208e-01 1.587646e-03 5.056146e-01 1.748571e-03 5.297047e-01 3.549393e-03 5.053274e-01 3.861090e-03 5.300631e-01 5.884963e-03 5.046984e-01 6.124954e-03 5.296339e-01 8.199509e-03 5.036024e-01 8.284322e-03 5.285260e-01 1.033538e-02 5.022235e-01 1.026626e-02 5.270356e-01 1.233446e-02 5.009486e-01 1.229685e-02 5.257933e-01 1.471002e-02 5.006957e-01 1.521195e-02 5.260771e-01 1.638091e-02 4.984261e-01 1.628326e-03 4.958979e-01 1.061036e-03 4.966198e-01 1.580388e-03 4.976031e-01 1.296517e-03 4.991598e-01 1.786560e-05 5.022242e-01 -2.244963e-03 5.079321e-01 -5.318475e-03 
5.447294e-01 -5.309945e-03 5.596520e-01 -7.373381e-03 5.811978e-01 -7.428355e-03 5.614304e-01 -9.257336e-03 5.478426e-01 -1.125566e-02 5.378722e-01 -1.470694e-02 5.282374e-01 -2.354361e-02 5.118354e-01 -5.242509e-02 4.639238e-01 -6.299929e-02 4.899258e-01 -6.589228e-02 4.527006e-01 -6.881858e-02 4.840300e-01 -6.900956e-02 4.469554e-01 -7.067656e-02 4.805448e-01 -6.977150e-02 4.429934e-01 -7.086475e-02 4.779168e-01 -6.925200e-02 4.401299e-01 -6.998799e-02 4.758924e-01 -6.785517e-02 4.382875e-01 -6.831751e-02 4.745732e-01 -6.572134e-02 4.376664e-01 -6.584195e-02 4.743558e-01 -6.258246e-02 4.389622e-01 -6.170314e-02 4.768416e-01 -5.603176e-02 4.460747e-01 -4.731752e-02 4.964984e-01 -1.372855e-02 5.115687e-01 -3.679618e-03 5.172567e-01 -4.062371e-04 5.205237e-01 4.024483e-04 5.237035e-01 -2.438310e-05 5.280530e-01 -1.286448e-03 5.346652e-01 -3.151672e-03 
5.670208e-01 -7.126336e-03 5.892215e-01 -9.229398e-03 6.184157e-01 -9.279594e-03 5.906907e-01 -1.106834e-02 5.694316e-01 -1.306359e-02 5.522791e-01 -1.708298e-02 5.352728e-01 -2.948510e-02 5.073034e-01 -7.673074e-02 4.238030e-01 -9.243981e-02 4.697699e-01 -9.597717e-02 4.032775e-01 -1.004259e-01 4.584810e-01 -1.005298e-01 3.921477e-01 -1.035820e-01 4.519373e-01 -1.022718e-01 3.849808e-01 -1.046956e-01 4.476740e-01 -1.023973e-01 3.804648e-01 -1.044004e-01 4.450147e-01 -1.013334e-01 3.781769e-01 -1.029946e-01 4.438681e-01 -9.924316e-02 3.781842e-01 -1.004888e-01 4.446266e-01 -9.586120e-02 3.812589e-01 -9.589758e-02 4.493405e-01 -8.807549e-02 3.927235e-01 -7.607907e-02 4.810342e-01 -1.998673e-02 5.056878e-01 -5.297230e-03 5.154485e-01 -1.184306e-03 5.221205e-01 -4.226995e-04 5.291717e-01 -1.127410e-03 5.382039e-01 -2.704101e-03 5.504291e-01 -4.823242e-03 
5.904732e-01 -4.336711e-03 6.127871e-01 -5.789720e-03 6.419941e-01 -5.819791e-03 6.141467e-01 -7.461156e-03 5.928231e-01 -9.220627e-03 5.760864e-01 -1.167477e-02 5.618781e-01 -1.584979e-02 5.479089e-01 -2.265277e-02 5.330988e-01 -2.692931e-02 5.278064e-01 -2.908640e-02 5.190566e-01 -3.029495e-02 5.178321e-01 -3.074006e-02 5.111710e-01 -3.097149e-02 5.117650e-01 -3.073751e-02 5.060786e-01 -3.052210e-02 5.077564e-01 -2.992090e-02 5.027252e-01 -2.945319e-02 5.052267e-01 -2.862428e-02 5.008156e-01 -2.798649e-02 5.041107e-01 -2.696580e-02 5.004715e-01 -2.611051e-02 5.047723e-01 -2.471764e-02 5.024039e-01 -2.316932e-02 5.086049e-01 -2.030919e-02 5.093605e-01 -1.562403e-02 5.211951e-01 -7.456477e-03 5.300790e-01 -2.868773e-03 5.369297e-01 -8.464837e-04 5.435370e-01 -2.863050e-04 5.511725e-01 -6.119335e-04 5.608548e-01 -1.532741e-03 5.735865e-01 -2.845435e-03 
6.109107e-01 -5.738603e-03 6.391820e-01 -7.188735e-03 6.745425e-01 -7.209335e-03 6.404085e-01 -8.652047e-03 6.130781e-01 -9.925337e-03 5.911536e-01 -1.103652e-02 5.737474e-01 -1.041272e-02 5.630730e-01 3.678998e-03 5.794640e-01 5.907729e-03 5.464464e-01 5.085981e-03 5.646861e-01 6.105583e-03 5.339232e-01 5.911248e-03 5.561403e-01 7.527689e-03 5.263181e-01 7.475495e-03 5.509117e-01 9.321585e-03 5.215605e-01 9.199720e-03 5.476596e-01 1.111640e-02 5.187992e-01 1.085248e-02 5.459364e-01 1.277003e-02 5.178377e-01 1.236428e-02 5.458266e-01 1.431605e-02 5.190145e-01 1.393587e-02 5.480641e-01 1.620677e-02 5.234809e-01 1.626081e-02 5.542112e-01 1.688547e-02 5.280716e-01 1.143055e-04 5.301722e-01 -1.005878e-03 5.373127e-01 -5.765859e-04 5.462371e-01 -6.664323e-04 5.571866e-01 -1.393745e-03 5.709746e-01 -2.613726e-03 5.885426e-01 -4.137187e-03 
6.307877e-01 -3.395664e-03 6.590305e-01 -4.367234e-03 6.943039e-01 -4.368809e-03 6.603258e-01 -5.558508e-03 6.332338e-01 -6.516823e-03 6.118136e-01 -6.993118e-03 5.953889e-01 -5.760419e-03 5.851019e-01 2.327618e-03 5.886249e-01 4.560982e-03 5.696940e-01 4.728871e-03 5.744750e-01 5.428599e-03 5.574763e-01 5.586978e-03 5.651678e-01 6.550903e-03 5.495510e-01 6.835593e-03 5.591831e-01 7.971515e-03 5.444878e-01 8.274240e-03 5.554595e-01 9.474436e-03 5.415613e-01 9.724554e-03 5.535785e-01 1.092258e-02 5.405747e-01 1.108922e-02 5.535676e-01 1.226707e-02 5.417461e-01 1.236869e-02 5.558555e-01 1.350026e-02 5.455801e-01 1.325003e-02 5.605991e-01 1.223097e-02 5.487652e-01 2.517640e-03 5.505619e-01 5.498129e-04 5.568208e-01 1.922462e-04 5.655078e-01 -7.985257e-05 5.765838e-01 -5.965345e-04 5.905984e-01 -1.379428e-03 6.083462e-01 -2.353294e-03 
6.488958e-01 -4.493034e-03 6.820557e-01 -5.445965e-03 7.223531e-01 -5.437248e-03 6.833068e-01 -6.417081e-03 6.513278e-01 -6.962626e-03 6.255192e-01 -6.730915e-03 6.054512e-01 -4.735528e-03 5.917471e-01 7.024687e-04 5.855635e-01 3.389795e-03 5.715047e-01 4.506629e-03 5.673395e-01 5.425348e-03 5.560026e-01 6.108949e-03 5.549269e-01 7.008261e-03 5.458643e-01 7.706881e-03 5.470020e-01 8.646492e-03 5.395497e-01 9.318300e-03 5.422853e-01 1.023068e-02 5.361177e-01 1.081536e-02 5.401653e-01 1.164250e-02 5.352351e-01 1.209418e-02 5.405656e-01 1.278852e-02 5.370443e-01 1.303918e-02 5.437991e-01 1.340029e-02 5.418181e-01 1.279128e-02 5.494671e-01 1.067327e-02 5.464668e-01 4.461251e-03 5.496818e-01 1.730463e-03 5.573940e-01 5.572003e-04 5.683205e-01 -2.650235e-04 5.823544e-01 -1.159657e-03 5.999571e-01 -2.211654e-03 6.218496e-01 -3.364471e-03 
6.653083e-01 -2.516252e-03 6.982552e-01 -3.126578e-03 7.383064e-01 -3.103117e-03 6.995936e-01 -3.897104e-03 6.679699e-01 -4.302823e-03 6.425422e-01 -4.011672e-03 6.227265e-01 -2.428220e-03 6.084205e-01 1.057142e-03 5.992981e-01 3.164515e-03 5.875785e-01 4.253241e-03 5.811456e-01 5.043075e-03 5.721787e-01 5.646586e-03 5.685478e-01 6.320660e-03 5.618594e-01 6.914788e-03 5.603357e-01 7.625881e-03 5.553433e-01 8.231570e-03 5.554115e-01 8.946206e-03 5.517919e-01 9.513254e-03 5.532059e-01 1.017102e-02 5.508760e-01 1.063312e-02 5.536043e-01 1.114493e-02 5.526493e-01 1.135575e-02 5.567541e-01 1.141610e-02 5.571625e-01 1.068983e-02 5.621941e-01 8.766354e-03 5.625545e-01 4.662834e-03 5.666177e-01 2.346251e-03 5.742868e-01 1.148598e-03 5.850863e-01 3.775764e-04 5.990529e-01 -3.073674e-04 6.166070e-01 -1.026791e-03 6.384136e-01 -1.783786e-03 
6.807753e-01 -3.412104e-03 7.178052e-01 -4.011657e-03 7.619958e-01 -3.979438e-03 7.191101e-01 -4.626314e-03 6.834000e-01 -4.782776e-03 6.541370e-01 -4.183107e-03 6.307747e-01 -2.470659e-03 6.129029e-01 3.770498e-04 5.994686e-01 2.565237e-03 5.866043e-01 4.012558e-03 5.770745e-01 5.078834e-03 5.677765e-01 5.950104e-03 5.615911e-01 6.771444e-03 5.551785e-01 7.536676e-03 5.515570e-01 8.307746e-03 5.473297e-01 9.020852e-03 5.456773e-01 9.729277e-03 5.432096e-01 1.034876e-02 5.432267e-01 1.093541e-02 5.423703e-01 1.138466e-02 5.440049e-01 1.173713e-02 5.448077e-01 1.182530e-02 5.481152e-01 1.157949e-02 5.505542e-01 1.060672e-02 5.552215e-01 8.561432e-03 5.586213e-01 5.303854e-03 5.647078e-01 2.901083e-03 5.742662e-01 1.341305e-03 5.872964e-01 2.141566e-04 6.039518e-01 -7.608815e-04 6.246490e-01 -1.700071e-03 6.500054e-01 -2.606157e-03 
6.937913e-01 -1.748127e-03 7.303961e-01 -2.113435e-03 7.741414e-01 -2.071240e-03 7.317383e-01 -2.633004e-03 6.964957e-01 -2.790934e-03 6.676465e-01 -2.320684e-03 6.445406e-01 -9.912508e-04 6.265605e-01 1.105348e-03 6.125959e-01 2.832061e-03 6.001517e-01 4.026809e-03 5.903680e-01 4.891691e-03 5.815282e-01 5.583784e-03 5.749994e-01 6.219767e-03 5.689916e-01 6.824471e-03 5.649670e-01 7.436458e-03 5.611305e-01 8.027327e-03 5.590573e-01 8.617206e-03 5.569849e-01 9.158870e-03 5.565793e-01 9.667090e-03 5.561189e-01 1.007540e-02 5.573227e-01 1.037535e-02 5.584970e-01 1.044140e-02 5.613450e-01 1.016791e-02 5.641333e-01 9.273532e-03 5.684500e-01 7.536740e-03 5.726258e-01 5.015579e-03 5.790747e-01 3.019792e-03 5.886271e-01 1.679891e-03 6.015000e-01 7.539592e-04 6.179370e-01 2.343011e-05 6.383676e-01 -6.279209e-04 6.634014e-01 -1.228967e-03 
7.064101e-01 -2.525556e-03 7.464161e-01 -2.898734e-03 7.935883e-01 -2.850080e-03 7.477032e-01 -3.335924e-03 7.090088e-01 -3.365619e-03 6.768424e-01 -2.750963e-03 6.505995e-01 -1.345198e-03 6.296249e-01 6.809156e-04 6.128165e-01 2.495253e-03 5.983586e-01 3.879192e-03 5.865844e-01 4.943465e-03 5.764305e-01 5.820813e-03 5.684880e-01 6.607658e-03 5.616970e-01 7.340603e-03 5.567218e-01 8.044749e-03 5.525318e-01 8.708564e-03 5.498872e-01 9.335255e-03 5.478152e-01 9.895991e-03 5.471624e-01 1.038458e-02 5.470145e-01 1.075335e-02 5.482756e-01 1.096893e-02 5.500688e-01 1.092672e-02 5.532987e-01 1.050375e-02 5.570677e-01 9.476441e-03 5.622375e-01 7.687691e-03 5.680796e-01 5.294512e-03 5.762643e-01 3.228666e-03 5.876704e-01 1.695215e-03 6.026504e-01 5.463346e-04 6.215111e-01 -3.907075e-04 6.446874e-01 -1.212580e-03 6.727568e-01 -1.937419e-03 
7.160794e-01 -1.121975e-03 7.554234e-01 -1.344268e-03 8.019197e-01 -1.290000e-03 7.566835e-01 -1.782638e-03 7.186073e-01 -1.914479e-03 6.869921e-01 -1.494235e-03 6.612194e-01 -3.294248e-04 6.406855e-01 1.502938e-03 6.243769e-01 3.035998e-03 6.100590e-01 4.117334e-03 5.986475e-01 4.920485e-03 5.885632e-01 5.564917e-03 5.809314e-01 6.158495e-03 5.741386e-01 6.715247e-03 5.694115e-01 7.277349e-03 5.651532e-01 7.813046e-03 5.627030e-01 8.346292e-03 5.605107e-01 8.827443e-03 5.600079e-01 9.273410e-03 5.596976e-01 9.615957e-03 5.610708e-01 9.850163e-03 5.626724e-01 9.856573e-03 5.659958e-01 9.550946e-03 5.695784e-01 8.691013e-03 5.748439e-01 7.108368e-03 5.804181e-01 4.848230e-03 5.884300e-01 3.039417e-03 5.996515e-01 1.800358e-03 6.143549e-01 9.402032e-04 6.328343e-01 2.823240e-04 6.555344e-01 -2.703334e-04 6.830468e-01 -7.454956e-04 
7.257129e-01 -1.841264e-03 7.678887e-01 -2.093003e-03 8.172241e-01 -2.034722e-03 7.690662e-01 -2.512610e-03 7.280680e-01 -2.601390e-03 6.936091e-01 -2.117468e-03 6.651472e-01 -8.500627e-04 6.421806e-01 1.181293e-03 6.238137e-01 2.855057e-03 6.074260e-01 4.056688e-03 5.944727e-01 4.997167e-03 5.828711e-01 5.774423e-03 5.742331e-01 6.500892e-03 5.663986e-01 7.166550e-03 5.611016e-01 7.826052e-03 5.561880e-01 8.427381e-03 5.535245e-01 9.011866e-03 5.510015e-01 9.509986e-03 5.505936e-01 9.958802e-03 5.502497e-01 1.027034e-02 5.520149e-01 1.046405e-02 5.538942e-01 1.040422e-02 5.579443e-01 1.003825e-02 5.621818e-01 9.104632e-03 5.685799e-01 7.429902e-03 5.751906e-01 4.964201e-03 5.846005e-01 3.027366e-03 5.975050e-01 1.668518e-03 6.141294e-01 6.723385e-04 6.347621e-01 -1.281193e-04 6.598424e-01 -8.127010e-04 6.899388e-01 -1.394257e-03 
7.320801e-01 -6.373515e-04 7.733298e-01 -7.996834e-04 8.217287e-01 -7.396345e-04 7.744258e-01 -1.304122e-03 7.342329e-01 -1.598875e-03 7.004768e-01 -1.420080e-03 6.726479e-01 -3.456228e-04 6.505843e-01 2.181462e-03 6.341632e-01 3.695346e-03 6.170559e-01 4.473244e-03 6.055967e-01 5.113800e-03 5.931437e-01 5.585158e-03 5.860231e-01 6.140976e-03 5.772191e-01 6.589815e-03 5.733866e-01 7.152530e-03 5.673676e-01 7.591158e-03 5.660906e-01 8.136123e-03 5.623469e-01 8.521827e-03 5.632442e-01 8.992393e-03 5.615930e-01 9.256035e-03 5.645912e-01 9.562379e-03 5.651267e-01 9.575276e-03 5.703893e-01 9.498118e-03 5.733420e-01 8.823808e-03 5.809298e-01 7.372406e-03 5.857677e-01 4.236009e-03 5.945780e-01 2.492720e-03 6.071999e-01 1.546000e-03 6.234413e-01 9.300048e-04 6.435205e-01 4.437233e-04 6.679017e-01 1.927583e-05 6.971896e-01 -3.495443e-04 
7.386380e-01 -1.338933e-03 7.822338e-01 -1.551602e-03 8.329760e-01 -1.489952e-03 7.832262e-01 -2.090239e-03 7.405627e-01 -2.419215e-03 7.043599e-01 -2.275495e-03 6.741879e-01 -1.129777e-03 6.501375e-01 2.018588e-03 6.328248e-01 3.693932e-03 6.130561e-01 4.479242e-03 6.010046e-01 5.222587e-03 5.863469e-01 5.763846e-03 5.791723e-01 6.464583e-03 5.685624e-01 6.984730e-03 5.650971e-01 7.676159e-03 5.575940e-01 8.150042e-03 5.570209e-01 8.786268e-03 5.520727e-01 9.161071e-03 5.539611e-01 9.682374e-03 5.513757e-01 9.893618e-03 5.556413e-01 1.022527e-02 5.555489e-01 1.017673e-02 5.624051e-01 1.015321e-02 5.651363e-01 9.463494e-03 5.747121e-01 7.980104e-03 5.794955e-01 4.111384e-03 5.894446e-01 2.251555e-03 6.036261e-01 1.283521e-03 6.216078e-01 6.088157e-04 6.435752e-01 2.670444e-05 6.699946e-01 -5.059021e-04 7.014606e-01 -9.739611e-04 
7.417482e-01 -2.648645e-04 7.841208e-01 -4.266110e-04 8.336336e-01 -3.661713e-04 7.850120e-01 -1.107451e-03 7.433942e-01 -1.765804e-03 7.080113e-01 -2.247035e-03 6.782931e-01 -1.820235e-03 6.548494e-01 3.822280e-03 6.446188e-01 5.128327e-03 6.183981e-01 4.915288e-03 6.135288e-01 5.513224e-03 5.923895e-01 5.469929e-03 5.927900e-01 6.268917e-03 5.753266e-01 6.300367e-03 5.795412e-01 7.191558e-03 5.648391e-01 7.213659e-03 5.719385e-01 8.125904e-03 5.595410e-01 8.082962e-03 5.690233e-01 8.959703e-03 5.588382e-01 8.805961e-03 5.705694e-01 9.610009e-03 5.628532e-01 9.337326e-03 5.770895e-01 1.008415e-02 5.724724e-01 9.685046e-03 5.897666e-01 9.363117e-03 5.871281e-01 2.231660e-03 5.969219e-01 1.150288e-03 6.111376e-01 9.648800e-04 6.286991e-01 7.965091e-04 6.499164e-01 5.516669e-04 6.753772e-01 2.633881e-04 7.057497e-01 -2.282531e-05 
7.451710e-01 -9.750186e-04 7.894666e-01 -1.203721e-03 8.408961e-01 -1.143751e-03 7.902540e-01 -1.952061e-03 7.465690e-01 -2.718923e-03 7.090559e-01 -3.439216e-03 6.770849e-01 -3.412633e-03 6.513710e-01 2.757821e-03 6.410997e-01 3.800081e-03 6.109545e-01 3.295522e-03 6.068165e-01 3.956855e-03 5.823300e-01 3.868945e-03 5.840701e-01 4.841258e-03 5.635722e-01 4.854681e-03 5.695481e-01 5.924895e-03 5.520609e-01 5.903816e-03 5.612490e-01 6.973835e-03 5.462980e-01 6.849776e-03 5.581382e-01 7.858257e-03 5.456409e-01 7.590039e-03 5.599781e-01 8.517763e-03 5.502455e-01 8.143164e-03 5.673923e-01 9.108930e-03 5.612401e-01 8.847914e-03 5.820731e-01 9.098567e-03 5.786040e-01 1.245402e-03 5.900678e-01 5.832525e-04 6.059568e-01 6.092106e-04 6.251099e-01 4.595548e-04 6.479475e-01 1.408673e-04 6.751151e-01 -2.530742e-04 7.072910e-01 -6.445049e-04 
7.450701e-01 4.125665e-05 7.878068e-01 -1.454458e-04 8.376770e-01 -8.753133e-05 7.885469e-01 -1.007624e-03 7.462922e-01 -2.119992e-03 7.098544e-01 -3.981132e-03 6.776155e-01 -8.464130e-03 6.458937e-01 -2.276837e-02 6.022025e-01 -2.829773e-02 5.982096e-01 -2.964966e-02 5.658363e-01 -3.131674e-02 5.699224e-01 -3.132986e-02 5.422463e-01 -3.234381e-02 5.515811e-01 -3.182510e-02 5.271751e-01 -3.253897e-02 5.403328e-01 -3.167973e-02 5.185502e-01 -3.221440e-02 5.346786e-01 -3.111593e-02 5.153079e-01 -3.154084e-02 5.339910e-01 -3.025592e-02 5.172008e-01 -3.057955e-02 5.384540e-01 -2.904424e-02 5.248898e-01 -2.898360e-02 5.495276e-01 -2.634323e-02 5.413454e-01 -2.246890e-02 5.758830e-01 -5.875072e-03 5.948816e-01 -1.093077e-03 6.117419e-01 3.716067e-04 6.303108e-01 7.472187e-04 6.520805e-01 7.123860e-04 6.779570e-01 5.162544e-04 7.087052e-01 2.720720e-04 
7.453159e-01 -6.985790e-04 7.896003e-01 -9.602326e-04 8.410143e-01 -9.038002e-04 7.902779e-01 -1.870614e-03 7.463771e-01 -3.077421e-03 7.081844e-01 -5.350445e-03 6.736706e-01 -1.177905e-02 6.371352e-01 -3.547614e-02 5.759492e-01 -4.386536e-02 5.826041e-01 -4.536340e-02 5.355798e-01 -4.788457e-02 5.518523e-01 -4.762073e-02 5.093807e-01 -4.935405e-02 5.318720e-01 -4.839766e-02 4.925864e-01 -4.978678e-02 5.196148e-01 -4.837353e-02 4.829984e-01 -4.956352e-02 5.134944e-01 -4.781931e-02 4.794657e-01 -4.888977e-02 5.128359e-01 -4.687646e-02 4.817061e-01 -4.783261e-02 5.178309e-01 -4.547356e-02 4.904179e-01 -4.595339e-02 5.301391e-01 -4.209252e-02 5.092332e-01 -3.670625e-02 5.625724e-01 -8.877518e-03 5.863113e-01 -1.777102e-03 6.050349e-01 1.169340e-04 6.249355e-01 4.879983e-04 6.480007e-01 3.401897e-04 6.752423e-01 8.465624e-06 7.074380e-01 -3.632502e-04 
7.420487e-01 3.175356e-04 7.843945e-01 1.154438e-04 8.338756e-01 1.721100e-04 7.851593e-01 -7.329144e-04 7.433508e-01 -1.745871e-03 7.074934e-01 -3.129315e-03 6.764608e-01 -5.387099e-03 6.488893e-01 -9.014633e-03 6.237647e-01 -1.126524e-02 6.066752e-01 -1.231136e-02 5.899563e-01 -1.289825e-02 5.794821e-01 -1.304097e-02 5.679210e-01 -1.310847e-02 5.618438e-01 -1.290765e-02 5.538972e-01 -1.274964e-02 5.510350e-01 -1.237944e-02 5.458665e-01 -1.211210e-02 5.455825e-01 -1.165923e-02 5.428104e-01 -1.134548e-02 5.448812e-01 -1.084929e-02 5.445168e-01 -1.048957e-02 5.491297e-01 -9.879730e-03 5.516578e-01 -9.252534e-03 5.596420e-01 -7.987568e-03 5.665433e-01 -5.880138e-03 5.804482e-01 -2.073899e-03 5.949294e-01 9.795413e-06 6.106291e-01 8.812550e-04 6.287257e-01 1.118900e-03 6.501483e-01 1.044814e-03 6.756809e-01 8.285148e-04 7.060654e-01 5.663000e-04 