# vtk DataFile Version 2.0
Comment goes here
ASCII

DATASET STRUCTURED_POINTS
FIELD FieldData 1
TIME 1 1 double
0.03300000
DIMENSIONS    64   64   1

ORIGIN    0.000   0.000   0.000
SPACING   0.03125 0.03125   1.000

POINT_DATA   4096
SCALARS uX double
LOOKUP_TABLE default

5.281094e-01 -9.729889e-01 4.195418e-01 -9.773515e-01 3.365028e-01 -9.572539e-01 3.874959e-01 -9.033197e-01 3.835132e-01 -8.292485e-01 3.434094e-01 -7.376790e-01 2.748769e-01 -6.332819e-01 1.923657e-01 -5.193526e-01 8.617909e-02 -3.725094e-01 -6.059894e-02 -1.872834e-01 -2.390678e-01 1.518011e-02 -4.250107e-01 2.134068e-01 -5.994291e-01 3.866596e-01 -7.343635e-01 4.864503e-01 -7.665276e-01 4.574688e-01 -6.657559e-01 3.133478e-01 -4.907427e-01 1.360791e-01 -3.218231e-01 -5.718938e-03 -2.182841e-01 -6.257303e-02 -2.111155e-01 -3.187511e-02 -2.791249e-01 5.989051e-02 -3.986516e-01 1.923865e-01 -5.436304e-01 3.262231e-01 -6.712607e-01 4.237054e-01 -7.447564e-01 4.507112e-01 -7.401649e-01 3.867146e-01 -6.396749e-01 2.262142e-01 -4.533886e-01 -6.672049e-03 -2.130475e-01 -2.818330e-01 4.119226e-02 -5.515551e-01 2.634796e-01 -7.855647e-01 4.374473e-01 -9.778097e-01 
-3.660042e-01 2.291212e-01 -1.940691e-01 2.290979e-01 -8.092124e-02 2.205708e-01 -1.911290e-01 1.934962e-01 -2.490755e-01 1.599356e-01 -2.749919e-01 1.190973e-01 -2.763421e-01 7.081601e-02 -2.647489e-01 1.788806e-02 -2.371678e-01 -5.339105e-02 -1.851132e-01 -1.453538e-01 -1.142122e-01 -2.464518e-01 -3.696061e-02 -3.467767e-01 4.048919e-02 -4.396727e-01 1.061752e-01 -4.990751e-01 1.229410e-01 -4.913115e-01 7.221435e-02 -4.210995e-01 -1.700713e-02 -3.332225e-01 -1.030442e-01 -2.605105e-01 -1.569273e-01 -2.284796e-01 -1.637906e-01 -2.370661e-01 -1.359074e-01 -2.721534e-01 -8.306491e-02 -3.271932e-01 -1.548501e-02 -3.834104e-01 4.533197e-02 -4.215544e-01 8.054638e-02 -4.249891e-01 7.925751e-02 -3.835974e-01 3.188320e-02 -2.937573e-01 -5.428108e-02 -1.714564e-01 -1.615365e-01 -2.921962e-02 -2.699286e-01 1.084150e-01 -3.527240e-01 2.242494e-01 -3.996440e-01 3.121090e-01 
6.818904e-01 4.330882e-01 6.060464e-01 4.237289e-01 4.273521e-01 4.122696e-01 6.554914e-01 3.868916e-01 8.378205e-01 3.406660e-01 9.924303e-01 2.834007e-01 1.132432e+00 2.215553e-01 1.257611e+00 1.600862e-01 1.381385e+00 8.167733e-02 1.521400e+00 -1.934759e-02 1.674175e+00 -1.302575e-01 1.824424e+00 -2.397095e-01 1.964143e+00 -3.412674e-01 2.078391e+00 -4.025549e-01 2.119676e+00 -3.792415e-01 2.063281e+00 -2.782110e-01 1.952172e+00 -1.585154e-01 1.842498e+00 -6.399411e-02 1.772878e+00 -2.725619e-02 1.764045e+00 -4.788066e-02 1.798157e+00 -1.061945e-01 1.860856e+00 -1.925450e-01 1.937388e+00 -2.811495e-01 1.999185e+00 -3.478246e-01 2.022373e+00 -3.700024e-01 1.991541e+00 -3.342491e-01 1.892801e+00 -2.350764e-01 1.731660e+00 -9.122860e-02 1.526376e+00 7.907223e-02 1.298547e+00 2.423475e-01 1.075803e+00 3.800843e-01 8.598846e-01 4.936217e-01 
1.825546e+00 -3.676561e-02 1.278285e+00 -7.910823e-02 5.741793e-01 -7.284132e-02 1.346595e+00 -5.663599e-02 1.815490e+00 -3.872905e-02 2.135724e+00 -1.897102e-02 2.367632e+00 1.939927e-03 2.546590e+00 1.994402e-02 2.684508e+00 4.435875e-02 2.782240e+00 7.723960e-02 2.848233e+00 1.127772e-01 2.892812e+00 1.481654e-01 2.918777e+00 1.862161e-01 2.930351e+00 2.140012e-01 2.952637e+00 2.094991e-01 3.000424e+00 1.743898e-01 3.057899e+00 1.344894e-01 3.104299e+00 1.040927e-01 3.127909e+00 9.437515e-02 3.122242e+00 1.024330e-01 3.097164e+00 1.187479e-01 3.056046e+00 1.429643e-01 3.000067e+00 1.667418e-01 2.937370e+00 1.825074e-01 2.873681e+00 1.842174e-01 2.810477e+00 1.686669e-01 2.751661e+00 1.338243e-01 2.691348e+00 8.913069e-02 2.617808e+00 3.739163e-02 2.517489e+00 -1.139599e-02 2.368515e+00 -5.451878e-02 2.156279e+00 -9.885310e-02 
1.878534e+00 4.035583e-03 1.443694e+00 -2.612736e-02 8.547955e-01 -2.457947e-02 1.480261e+00 -1.733297e-02 1.893116e+00 1.006999e-03 2.188204e+00 2.159048e-02 2.409421e+00 4.183277e-02 2.582366e+00 5.847648e-02 2.718458e+00 7.413133e-02 2.821376e+00 9.005483e-02 2.897907e+00 1.040780e-01 2.955469e+00 1.163148e-01 2.996463e+00 1.313076e-01 3.022818e+00 1.450206e-01 3.046976e+00 1.469558e-01 3.076883e+00 1.370005e-01 3.105957e+00 1.259061e-01 3.126460e+00 1.179571e-01 3.135487e+00 1.166659e-01 3.130523e+00 1.201357e-01 3.116733e+00 1.238038e-01 3.093964e+00 1.291642e-01 3.060658e+00 1.330743e-01 3.018504e+00 1.331748e-01 2.967935e+00 1.273987e-01 2.907496e+00 1.154819e-01 2.838334e+00 9.668131e-02 2.757524e+00 7.595574e-02 2.659459e+00 5.339475e-02 2.537083e+00 3.332938e-02 2.376795e+00 1.505159e-02 2.168877e+00 -9.497447e-03 
1.930327e+00 -5.833017e-02 1.556380e+00 -6.576370e-02 1.110679e+00 -6.759818e-02 1.565459e+00 -4.902664e-02 1.937100e+00 -3.069594e-02 2.218267e+00 -1.096941e-02 2.431784e+00 1.049813e-02 2.596893e+00 3.299778e-02 2.723800e+00 5.831215e-02 2.816898e+00 8.683282e-02 2.883231e+00 1.160572e-01 2.929525e+00 1.439876e-01 2.961527e+00 1.686358e-01 2.985139e+00 1.841808e-01 3.011212e+00 1.833618e-01 3.044910e+00 1.677377e-01 3.081093e+00 1.470429e-01 3.110147e+00 1.301982e-01 3.125471e+00 1.228918e-01 3.123449e+00 1.254417e-01 3.106380e+00 1.342914e-01 3.075756e+00 1.469696e-01 3.033597e+00 1.586094e-01 2.983152e+00 1.644181e-01 2.927542e+00 1.602546e-01 2.867837e+00 1.445956e-01 2.804990e+00 1.178649e-01 2.735954e+00 8.372068e-02 2.653339e+00 4.529074e-02 2.546640e+00 7.332076e-03 2.401932e+00 -2.664762e-02 2.204435e+00 -5.499637e-02 
2.034330e+00 3.929798e-03 1.732147e+00 -1.140057e-02 1.369102e+00 -1.329502e-02 1.724635e+00 -5.035857e-03 2.032895e+00 7.487560e-03 2.278308e+00 2.380144e-02 2.472571e+00 4.234049e-02 2.628443e+00 6.106551e-02 2.753418e+00 7.849268e-02 2.849466e+00 9.426404e-02 2.922395e+00 1.075626e-01 2.976746e+00 1.190332e-01 3.017276e+00 1.293923e-01 3.046851e+00 1.372779e-01 3.071998e+00 1.392528e-01 3.095465e+00 1.358701e-01 3.116389e+00 1.306990e-01 3.130807e+00 1.268777e-01 3.137357e+00 1.257949e-01 3.134237e+00 1.272871e-01 3.123182e+00 1.294553e-01 3.103563e+00 1.318762e-01 3.075554e+00 1.323911e-01 3.038524e+00 1.291929e-01 2.992654e+00 1.203335e-01 2.936331e+00 1.063004e-01 2.870042e+00 8.890365e-02 2.793222e+00 7.072151e-02 2.702244e+00 5.285575e-02 2.590903e+00 3.652417e-02 2.450283e+00 2.125129e-02 2.270326e+00 4.962660e-03 
2.130875e+00 -3.645383e-02 1.883793e+00 -4.341769e-02 1.605612e+00 -4.517854e-02 1.865075e+00 -3.444143e-02 2.119373e+00 -2.009586e-02 2.335471e+00 -2.224701e-03 2.511806e+00 1.938904e-02 2.654797e+00 4.375437e-02 2.769160e+00 6.889237e-02 2.854163e+00 9.419148e-02 2.917106e+00 1.177329e-01 2.961837e+00 1.390067e-01 2.995507e+00 1.558420e-01 3.021311e+00 1.662328e-01 3.046353e+00 1.671694e-01 3.071465e+00 1.604809e-01 3.096364e+00 1.499644e-01 3.115094e+00 1.411229e-01 3.125386e+00 1.365213e-01 3.123556e+00 1.375419e-01 3.111187e+00 1.420674e-01 3.087581e+00 1.485833e-01 3.055220e+00 1.530638e-01 3.014182e+00 1.523783e-01 2.966762e+00 1.427562e-01 2.911961e+00 1.246602e-01 2.851551e+00 1.003867e-01 2.785290e+00 7.260965e-02 2.708585e+00 4.355555e-02 2.613841e+00 1.555234e-02 2.491959e+00 -9.441057e-03 2.333928e+00 -2.933516e-02 
2.257313e+00 8.607079e-03 2.060074e+00 4.625051e-04 1.842777e+00 -1.271204e-03 2.038410e+00 3.982015e-03 2.239412e+00 1.267864e-02 2.419300e+00 2.595967e-02 2.573447e+00 4.428035e-02 2.705061e+00 6.614884e-02 2.816519e+00 8.606836e-02 2.900033e+00 1.020000e-01 2.964700e+00 1.138635e-01 3.011305e+00 1.232287e-01 3.048454e+00 1.304193e-01 3.075024e+00 1.355449e-01 3.098475e+00 1.372827e-01 3.116547e+00 1.365083e-01 3.133095e+00 1.342946e-01 3.142850e+00 1.327580e-01 3.148558e+00 1.322524e-01 3.145711e+00 1.333180e-01 3.138039e+00 1.346679e-01 3.121656e+00 1.359720e-01 3.099579e+00 1.351232e-01 3.067588e+00 1.303383e-01 3.027708e+00 1.184661e-01 2.974810e+00 1.003234e-01 2.912161e+00 8.118459e-02 2.843243e+00 6.388075e-02 2.765716e+00 4.886239e-02 2.674349e+00 3.580441e-02 2.563032e+00 2.402753e-02 2.425819e+00 1.351781e-02 
2.370663e+00 -2.025328e-02 2.218958e+00 -2.520466e-02 2.060065e+00 -2.680664e-02 2.193941e+00 -2.143150e-02 2.347542e+00 -1.137479e-02 2.494722e+00 4.180813e-03 2.626344e+00 2.663674e-02 2.742373e+00 5.474196e-02 2.843663e+00 8.120589e-02 2.913597e+00 1.042955e-01 2.968718e+00 1.227193e-01 3.005066e+00 1.386062e-01 3.036819e+00 1.499852e-01 3.058128e+00 1.576171e-01 3.081106e+00 1.589823e-01 3.098259e+00 1.568155e-01 3.117535e+00 1.514081e-01 3.128430e+00 1.473720e-01 3.137133e+00 1.445522e-01 3.134212e+00 1.456138e-01 3.127202e+00 1.478390e-01 3.108545e+00 1.517190e-01 3.085948e+00 1.526631e-01 3.052250e+00 1.489017e-01 3.013584e+00 1.342275e-01 2.961533e+00 1.111839e-01 2.903890e+00 8.604679e-02 2.845103e+00 6.180046e-02 2.781814e+00 3.921162e-02 2.707826e+00 1.867195e-02 2.617126e+00 8.792878e-04 2.505282e+00 -1.279337e-02 
2.503261e+00 1.409237e-02 2.389611e+00 9.948032e-03 2.276640e+00 8.469548e-03 2.365207e+00 9.840706e-03 2.476365e+00 1.428856e-02 2.590325e+00 2.406144e-02 2.699347e+00 4.301569e-02 2.804112e+00 7.288999e-02 2.907248e+00 1.002205e-01 2.969525e+00 1.142995e-01 3.024373e+00 1.243908e-01 3.055344e+00 1.292044e-01 3.089765e+00 1.347540e-01 3.106444e+00 1.365361e-01 3.130111e+00 1.389373e-01 3.139341e+00 1.377898e-01 3.156422e+00 1.381772e-01 3.159041e+00 1.366370e-01 3.168130e+00 1.379319e-01 3.162099e+00 1.379487e-01 3.161580e+00 1.405376e-01 3.145744e+00 1.408748e-01 3.133907e+00 1.420365e-01 3.105208e+00 1.370610e-01 3.075870e+00 1.241803e-01 3.021906e+00 9.592256e-02 2.959914e+00 7.113942e-02 2.901664e+00 5.376660e-02 2.842799e+00 4.166117e-02 2.777040e+00 3.241837e-02 2.699809e+00 2.467700e-02 2.608535e+00 1.828629e-02 
2.620188e+00 -7.668078e-03 2.543927e+00 -1.074784e-02 2.474860e+00 -1.203745e-02 2.519328e+00 -1.158713e-02 2.591536e+00 -7.047580e-03 2.674574e+00 4.139880e-03 2.760146e+00 2.762711e-02 2.848722e+00 6.641028e-02 2.948270e+00 1.009356e-01 2.988773e+00 1.188298e-01 3.037914e+00 1.325809e-01 3.053572e+00 1.414381e-01 3.087670e+00 1.497177e-01 3.093785e+00 1.537689e-01 3.120995e+00 1.560234e-01 3.123345e+00 1.547917e-01 3.146529e+00 1.530318e-01 3.144246e+00 1.506969e-01 3.160053e+00 1.501125e-01 3.149215e+00 1.507501e-01 3.154690e+00 1.532095e-01 3.133926e+00 1.558728e-01 3.128269e+00 1.578034e-01 3.096289e+00 1.542965e-01 3.074088e+00 1.361191e-01 3.015108e+00 1.007858e-01 2.956424e+00 7.047522e-02 2.909025e+00 4.843242e-02 2.865265e+00 3.171597e-02 2.817415e+00 1.797449e-02 2.761045e+00 6.519763e-03 2.694717e+00 -2.209321e-03 
2.750934e+00 1.922517e-02 2.704971e+00 1.764504e-02 2.671333e+00 1.653290e-02 2.681120e+00 1.337960e-02 2.718738e+00 1.136425e-02 2.771232e+00 1.327466e-02 2.833352e+00 2.897654e-02 2.911680e+00 7.663036e-02 3.037194e+00 1.369563e-01 3.046820e+00 1.266466e-01 3.106601e+00 1.464014e-01 3.096469e+00 1.290497e-01 3.148399e+00 1.487921e-01 3.131102e+00 1.313144e-01 3.176163e+00 1.500437e-01 3.154230e+00 1.318162e-01 3.194426e+00 1.498182e-01 3.168443e+00 1.318447e-01 3.203205e+00 1.506050e-01 3.172454e+00 1.340744e-01 3.201072e+00 1.541446e-01 3.165271e+00 1.386977e-01 3.186488e+00 1.595379e-01 3.144040e+00 1.439578e-01 3.150833e+00 1.522529e-01 3.072383e+00 8.934414e-02 3.002467e+00 5.264514e-02 2.960519e+00 3.723483e-02 2.926448e+00 3.066931e-02 2.890059e+00 2.685870e-02 2.848128e+00 2.376456e-02 2.800809e+00 2.114486e-02 
2.864684e+00 2.336066e-03 2.849603e+00 1.171074e-03 2.850613e+00 2.813563e-04 2.826364e+00 -4.252908e-03 2.831699e+00 -7.898234e-03 2.856218e+00 -7.955331e-03 2.895420e+00 8.981337e-03 2.956815e+00 7.234325e-02 3.104823e+00 1.530604e-01 3.059008e+00 1.276023e-01 3.136615e+00 1.574271e-01 3.086950e+00 1.341185e-01 3.164177e+00 1.635938e-01 3.110433e+00 1.411349e-01 3.184353e+00 1.662811e-01 3.128767e+00 1.428070e-01 3.200321e+00 1.647583e-01 3.142419e+00 1.418811e-01 3.209583e+00 1.637622e-01 3.147747e+00 1.438263e-01 3.209096e+00 1.673282e-01 3.143552e+00 1.504659e-01 3.199049e+00 1.758178e-01 3.131136e+00 1.624135e-01 3.175608e+00 1.642038e-01 3.061413e+00 8.708499e-02 2.995745e+00 4.541294e-02 2.969360e+00 2.846263e-02 2.952611e+00 2.030999e-02 2.934317e+00 1.437357e-02 2.912275e+00 9.168805e-03 2.887808e+00 5.005856e-03 
2.989144e+00 2.420161e-02 2.998480e+00 2.496175e-02 3.027362e+00 2.428681e-02 2.975573e+00 1.718812e-02 2.951565e+00 6.719271e-03 2.945169e+00 -8.918507e-03 2.952197e+00 -2.183276e-02 2.992770e+00 2.792503e-02 3.272580e+00 2.817438e-01 3.070596e+00 6.786651e-02 3.258129e+00 2.367290e-01 3.073253e+00 5.138163e-02 3.279184e+00 2.342506e-01 3.088560e+00 5.020466e-02 3.294165e+00 2.336983e-01 3.100355e+00 5.028687e-02 3.305143e+00 2.337950e-01 3.109049e+00 5.131363e-02 3.311655e+00 2.353406e-01 3.114146e+00 5.501634e-02 3.314139e+00 2.401861e-01 3.117091e+00 6.211566e-02 3.313646e+00 2.486212e-01 3.124898e+00 8.032377e-02 3.331375e+00 2.895854e-01 3.092497e+00 5.301346e-02 3.017149e+00 9.095879e-03 3.013410e+00 1.022904e-02 3.012873e+00 1.621988e-02 3.007627e+00 2.030282e-02 2.999445e+00 2.240518e-02 2.991723e+00 2.346820e-02 
3.095965e+00 1.112168e-02 3.130873e+00 1.236431e-02 3.187815e+00 1.193699e-02 3.108150e+00 4.167698e-03 3.056221e+00 -8.286092e-03 3.023117e+00 -3.104470e-02 3.005683e+00 -6.411206e-02 3.025060e+00 -2.405449e-02 3.234864e+00 1.620466e-01 3.014685e+00 -2.305469e-02 3.214863e+00 1.450017e-01 3.002549e+00 -1.839569e-02 3.234591e+00 1.680727e-01 3.002685e+00 -5.689985e-03 3.250052e+00 1.849959e-01 3.006080e+00 3.247753e-03 3.264337e+00 1.971492e-01 3.011044e+00 1.009673e-02 3.276288e+00 2.087821e-01 3.015305e+00 1.940810e-02 3.286615e+00 2.253495e-01 3.020463e+00 3.413247e-02 3.299722e+00 2.503555e-01 3.043354e+00 7.634259e-02 3.363967e+00 3.455957e-01 3.026967e+00 3.160455e-02 2.997346e+00 -9.823705e-03 3.023750e+00 -2.415047e-03 3.042581e+00 5.894208e-03 3.054083e+00 9.764545e-03 3.063557e+00 1.077967e-02 3.075777e+00 1.083412e-02 
3.211421e+00 2.976825e-02 3.265984e+00 3.324415e-02 3.345141e+00 3.305200e-02 3.244766e+00 2.558550e-02 3.169535e+00 1.217212e-02 3.104614e+00 -1.709165e-02 3.021077e+00 -9.789197e-02 2.842449e+00 -3.555808e-01 2.161338e+00 -8.967326e-01 2.552378e+00 -6.131026e-01 2.154858e+00 -9.044067e-01 2.533416e+00 -6.245149e-01 2.134577e+00 -9.090847e-01 2.516209e+00 -6.279989e-01 2.131170e+00 -9.029168e-01 2.509441e+00 -6.250564e-01 2.134410e+00 -8.939579e-01 2.507969e+00 -6.180052e-01 2.142966e+00 -8.806677e-01 2.510673e+00 -6.047297e-01 2.158223e+00 -8.589978e-01 2.521215e+00 -5.780413e-01 2.193262e+00 -8.182849e-01 2.551071e+00 -5.376421e-01 2.257676e+00 -7.545331e-01 2.764791e+00 -2.554912e-01 2.996072e+00 -8.402787e-02 3.071824e+00 -2.224844e-02 3.105252e+00 3.602152e-03 3.127109e+00 1.585510e-02 3.148123e+00 2.238284e-02 3.174358e+00 2.649886e-02 
3.308967e+00 1.982314e-02 3.384686e+00 2.393274e-02 3.486872e+00 2.399396e-02 3.363569e+00 1.769646e-02 3.263692e+00 7.316397e-03 3.168959e+00 -1.545229e-02 3.037800e+00 -9.441063e-02 2.761042e+00 -4.417688e-01 1.819623e+00 -1.188439e+00 2.351301e+00 -7.767488e-01 1.743723e+00 -1.243418e+00 2.313230e+00 -8.296601e-01 1.662227e+00 -1.303811e+00 2.280665e+00 -8.662532e-01 1.619325e+00 -1.336860e+00 2.265892e+00 -8.882902e-01 1.595902e+00 -1.358933e+00 2.260761e+00 -9.017231e-01 1.585565e+00 -1.372610e+00 2.262487e+00 -9.067979e-01 1.585405e+00 -1.377630e+00 2.274911e+00 -8.967997e-01 1.610026e+00 -1.364914e+00 2.307045e+00 -8.864591e-01 1.642970e+00 -1.351767e+00 2.658060e+00 -4.080125e-01 3.003795e+00 -1.226324e-01 3.097966e+00 -3.473530e-02 3.141045e+00 -3.869250e-03 3.174523e+00 8.325085e-03 3.209808e+00 1.375938e-02 3.252804e+00 1.691536e-02 
3.413595e+00 3.627653e-02 3.505039e+00 4.218100e-02 3.625009e+00 4.243124e-02 3.489202e+00 3.689397e-02 3.379313e+00 2.781185e-02 3.285122e+00 1.284975e-02 3.193036e+00 -1.311577e-02 3.094864e+00 -4.815538e-02 3.042247e+00 -9.834274e-02 2.910396e+00 -1.448286e-01 2.917322e+00 -1.844664e-01 2.861646e+00 -1.980694e-01 2.859936e+00 -2.387651e-01 2.833047e+00 -2.324602e-01 2.824075e+00 -2.754471e-01 2.818432e+00 -2.560128e-01 2.802629e+00 -3.016611e-01 2.813075e+00 -2.727622e-01 2.790895e+00 -3.211206e-01 2.815454e+00 -2.842797e-01 2.787427e+00 -3.354282e-01 2.828516e+00 -2.894778e-01 2.798133e+00 -3.417993e-01 2.866758e+00 -2.721666e-01 2.840849e+00 -2.981973e-01 2.973434e+00 -1.589399e-01 3.096863e+00 -6.557976e-02 3.160820e+00 -1.870931e-02 3.204680e+00 4.918582e-03 3.244820e+00 1.765888e-02 3.289301e+00 2.541868e-02 3.343748e+00 3.110530e-02 
3.500217e+00 2.868950e-02 3.609169e+00 3.463358e-02 3.748118e+00 3.509394e-02 3.596298e+00 2.926819e-02 3.472010e+00 1.945081e-02 3.370245e+00 2.977381e-03 3.291846e+00 -1.562277e-02 3.268903e+00 3.540518e-02 3.554490e+00 3.390815e-01 3.232039e+00 7.744704e-02 3.440634e+00 2.864208e-01 3.158723e+00 5.452663e-02 3.408239e+00 2.792944e-01 3.127157e+00 4.666007e-02 3.390112e+00 2.737276e-01 3.110974e+00 4.098558e-02 3.382933e+00 2.696400e-01 3.105902e+00 3.673072e-02 3.383660e+00 2.671559e-01 3.109983e+00 3.478403e-02 3.392733e+00 2.680358e-01 3.125224e+00 3.577972e-02 3.412798e+00 2.740241e-01 3.165287e+00 5.931294e-02 3.482296e+00 3.504384e-01 3.175106e+00 2.248737e-02 3.146955e+00 -1.787368e-02 3.192101e+00 -6.272145e-03 3.239910e+00 6.339899e-03 3.289382e+00 1.452186e-02 3.345863e+00 1.984556e-02 3.414417e+00 2.413574e-02 
3.592796e+00 4.349659e-02 3.714156e+00 5.090856e-02 3.867242e+00 5.154138e-02 3.708061e+00 4.766067e-02 3.578568e+00 4.178688e-02 3.476595e+00 3.473303e-02 3.404790e+00 3.359518e-02 3.381498e+00 7.422379e-02 3.503716e+00 2.097404e-01 3.354925e+00 1.202441e-01 3.418495e+00 2.005047e-01 3.284217e+00 1.095699e-01 3.379312e+00 1.985866e-01 3.248693e+00 1.037007e-01 3.357476e+00 1.966133e-01 3.229134e+00 9.953895e-02 3.347757e+00 1.958740e-01 3.221435e+00 9.725656e-02 3.347619e+00 1.969975e-01 3.223862e+00 9.744198e-02 3.357167e+00 2.013867e-01 3.237070e+00 1.009497e-01 3.377173e+00 2.117284e-01 3.263957e+00 1.151378e-01 3.417856e+00 2.334374e-01 3.267543e+00 6.404719e-02 3.232083e+00 1.825379e-02 3.260018e+00 1.442206e-02 3.303485e+00 1.969825e-02 3.355746e+00 2.589047e-02 3.418710e+00 3.166593e-02 3.496167e+00 3.733174e-02 
3.667363e+00 3.770968e-02 3.803112e+00 4.491906e-02 3.971784e+00 4.573744e-02 3.800847e+00 4.205976e-02 3.660609e+00 3.763019e-02 3.550574e+00 3.545434e-02 3.473409e+00 4.650255e-02 3.439510e+00 9.759823e-02 3.475093e+00 1.565522e-01 3.399103e+00 1.467445e-01 3.397651e+00 1.653631e-01 3.325895e+00 1.468846e-01 3.345638e+00 1.653950e-01 3.283540e+00 1.459162e-01 3.315696e+00 1.644509e-01 3.260109e+00 1.446526e-01 3.301342e+00 1.636364e-01 3.250869e+00 1.438520e-01 3.299226e+00 1.638131e-01 3.253476e+00 1.445007e-01 3.308431e+00 1.660912e-01 3.267701e+00 1.474452e-01 3.328890e+00 1.721581e-01 3.293014e+00 1.554350e-01 3.356520e+00 1.641274e-01 3.289162e+00 8.337507e-02 3.266275e+00 3.977715e-02 3.290569e+00 2.563085e-02 3.336446e+00 2.340817e-02 3.395694e+00 2.509481e-02 3.468407e+00 2.818977e-02 3.557544e+00 3.229982e-02 
3.747015e+00 5.097788e-02 3.892349e+00 5.936195e-02 4.072013e+00 6.033585e-02 3.895752e+00 5.848565e-02 3.750853e+00 5.693599e-02 3.636752e+00 5.884152e-02 3.554136e+00 7.160544e-02 3.505901e+00 1.069389e-01 3.497195e+00 1.427268e-01 3.447483e+00 1.455068e-01 3.423746e+00 1.556918e-01 3.376335e+00 1.483973e-01 3.368211e+00 1.556245e-01 3.331085e+00 1.463196e-01 3.334616e+00 1.533131e-01 3.305176e+00 1.438181e-01 3.317584e+00 1.514907e-01 3.294284e+00 1.423829e-01 3.313933e+00 1.511183e-01 3.296097e+00 1.426776e-01 3.322325e+00 1.526664e-01 3.309515e+00 1.445834e-01 3.341211e+00 1.551323e-01 3.331623e+00 1.435619e-01 3.364475e+00 1.386209e-01 3.336911e+00 8.798013e-02 3.325911e+00 5.416053e-02 3.348818e+00 3.927949e-02 3.393853e+00 3.503128e-02 3.455331e+00 3.587919e-02 3.532882e+00 3.928097e-02 3.628833e+00 4.434805e-02 
3.808724e+00 4.640206e-02 3.965725e+00 5.459165e-02 4.158013e+00 5.573254e-02 3.972177e+00 5.439522e-02 3.817859e+00 5.445352e-02 3.694748e+00 5.951504e-02 3.602615e+00 7.557308e-02 3.541623e+00 1.067339e-01 3.509140e+00 1.317227e-01 3.462509e+00 1.441030e-01 3.427428e+00 1.504760e-01 3.385405e+00 1.525237e-01 3.363543e+00 1.538988e-01 3.333479e+00 1.534695e-01 3.323721e+00 1.535728e-01 3.303327e+00 1.526318e-01 3.303080e+00 1.525869e-01 3.290420e+00 1.517745e-01 3.297946e+00 1.520652e-01 3.291943e+00 1.516421e-01 3.306341e+00 1.522975e-01 3.306182e+00 1.516457e-01 3.326045e+00 1.508670e-01 3.329192e+00 1.441138e-01 3.349450e+00 1.254213e-01 3.341683e+00 9.026823e-02 3.343779e+00 6.145854e-02 3.371291e+00 4.480277e-02 3.420745e+00 3.730098e-02 3.488534e+00 3.532742e-02 3.574223e+00 3.669248e-02 3.679777e+00 4.045045e-02 
3.874803e+00 5.806303e-02 4.038953e+00 6.713120e-02 4.239434e+00 6.840410e-02 4.049151e+00 6.804557e-02 3.890339e+00 6.912037e-02 3.762285e+00 7.468137e-02 3.663908e+00 8.875705e-02 3.593735e+00 1.123916e-01 3.547625e+00 1.318562e-01 3.500672e+00 1.429224e-01 3.460788e+00 1.483110e-01 3.421123e+00 1.500148e-01 3.393825e+00 1.502630e-01 3.366461e+00 1.492871e-01 3.351250e+00 1.483722e-01 3.334166e+00 1.470559e-01 3.328648e+00 1.463076e-01 3.319891e+00 1.453844e-01 3.322399e+00 1.452086e-01 3.320815e+00 1.448016e-01 3.330376e+00 1.449723e-01 3.334986e+00 1.441123e-01 3.350119e+00 1.421876e-01 3.358576e+00 1.348327e-01 3.375241e+00 1.183212e-01 3.378590e+00 9.084276e-02 3.387860e+00 6.713095e-02 3.417793e+00 5.238370e-02 3.468850e+00 4.553888e-02 3.539231e+00 4.414261e-02 3.628856e+00 4.632149e-02 3.739595e+00 5.107427e-02 
3.923073e+00 5.412053e-02 4.096471e+00 6.304578e-02 4.306907e+00 6.446190e-02 4.108511e+00 6.442568e-02 3.941444e+00 6.633994e-02 3.805128e+00 7.316290e-02 3.698284e+00 8.797658e-02 3.619124e+00 1.100828e-01 3.562962e+00 1.284754e-01 3.510376e+00 1.409302e-01 3.465160e+00 1.472756e-01 3.422739e+00 1.507847e-01 3.390922e+00 1.516898e-01 3.362027e+00 1.522124e-01 3.343225e+00 1.515207e-01 3.325853e+00 1.513106e-01 3.317642e+00 1.503204e-01 3.309658e+00 1.500959e-01 3.310227e+00 1.492093e-01 3.310288e+00 1.490634e-01 3.318532e+00 1.479669e-01 3.325565e+00 1.467618e-01 3.340001e+00 1.426894e-01 3.351766e+00 1.342349e-01 3.368849e+00 1.160585e-01 3.379101e+00 9.119061e-02 3.395870e+00 6.898656e-02 3.431403e+00 5.387903e-02 3.487753e+00 4.573751e-02 3.564119e+00 4.287714e-02 3.660674e+00 4.379643e-02 3.779249e+00 4.763899e-02 
3.975146e+00 6.421584e-02 4.153515e+00 7.377363e-02 4.369598e+00 7.529321e-02 4.167447e+00 7.529784e-02 3.996345e+00 7.657750e-02 3.855583e+00 8.178611e-02 3.743983e+00 9.418604e-02 3.660289e+00 1.146461e-01 3.601427e+00 1.334898e-01 3.545180e+00 1.428819e-01 3.497452e+00 1.483798e-01 3.452599e+00 1.490200e-01 3.419714e+00 1.498178e-01 3.389256e+00 1.480184e-01 3.369940e+00 1.476979e-01 3.351408e+00 1.455501e-01 3.343024e+00 1.453118e-01 3.334214e+00 1.434621e-01 3.334925e+00 1.436266e-01 3.334545e+00 1.420952e-01 3.343319e+00 1.423163e-01 3.350488e+00 1.400669e-01 3.366130e+00 1.380897e-01 3.379097e+00 1.302898e-01 3.398460e+00 1.164020e-01 3.410807e+00 9.168007e-02 3.428782e+00 7.033852e-02 3.466552e+00 5.694240e-02 3.525532e+00 5.062917e-02 3.604759e+00 4.940447e-02 3.704563e+00 5.173068e-02 3.826929e+00 5.676726e-02 
4.009576e+00 6.047410e-02 4.194981e+00 6.992174e-02 4.418553e+00 7.155540e-02 4.209583e+00 7.150360e-02 4.031467e+00 7.276079e-02 3.883741e+00 7.794959e-02 3.765481e+00 9.053324e-02 3.676069e+00 1.121925e-01 3.614066e+00 1.331486e-01 3.550369e+00 1.422701e-01 3.499274e+00 1.488213e-01 3.449187e+00 1.494364e-01 3.414958e+00 1.516401e-01 3.380560e+00 1.499240e-01 3.360990e+00 1.508772e-01 3.339438e+00 1.485760e-01 3.331673e+00 1.492873e-01 3.320634e+00 1.469241e-01 3.322709e+00 1.476684e-01 3.320842e+00 1.452366e-01 3.331717e+00 1.456994e-01 3.338267e+00 1.422514e-01 3.356946e+00 1.404864e-01 3.370507e+00 1.317699e-01 3.394101e+00 1.181031e-01 3.407414e+00 9.143697e-02 3.428567e+00 6.925305e-02 3.471330e+00 5.560090e-02 3.535722e+00 4.895164e-02 3.620501e+00 4.718303e-02 3.726128e+00 4.888376e-02 3.854714e+00 5.337320e-02 
4.047408e+00 6.927573e-02 4.235732e+00 7.922138e-02 4.462585e+00 8.092856e-02 4.250628e+00 8.028294e-02 4.068996e+00 7.960013e-02 3.917156e+00 8.092471e-02 3.794930e+00 8.884681e-02 3.704508e+00 1.121370e-01 3.653689e+00 1.485156e-01 3.579768e+00 1.436350e-01 3.530851e+00 1.565244e-01 3.471283e+00 1.441477e-01 3.443324e+00 1.551420e-01 3.400379e+00 1.415769e-01 3.388159e+00 1.521519e-01 3.358069e+00 1.385103e-01 3.358197e+00 1.493418e-01 3.338617e+00 1.359511e-01 3.348962e+00 1.472216e-01 3.338764e+00 1.340401e-01 3.358411e+00 1.455534e-01 3.357359e+00 1.319045e-01 3.385856e+00 1.427938e-01 3.393891e+00 1.275625e-01 3.429350e+00 1.314704e-01 3.433824e+00 9.111837e-02 3.449322e+00 6.531407e-02 3.494956e+00 5.405743e-02 3.563137e+00 5.074316e-02 3.650886e+00 5.168499e-02 3.758967e+00 5.535113e-02 3.889945e+00 6.123272e-02 
4.067745e+00 6.549431e-02 4.261010e+00 7.534679e-02 4.493028e+00 7.713649e-02 4.275504e+00 7.614908e-02 4.087996e+00 7.473427e-02 3.930174e+00 7.468130e-02 3.802382e+00 8.121642e-02 3.708743e+00 1.069087e-01 3.667923e+00 1.560398e-01 3.575931e+00 1.410000e-01 3.532128e+00 1.610867e-01 3.458829e+00 1.408424e-01 3.439584e+00 1.603230e-01 3.383536e+00 1.394085e-01 3.381373e+00 1.584165e-01 3.338539e+00 1.373605e-01 3.349732e+00 1.563627e-01 3.317776e+00 1.352378e-01 3.339999e+00 1.544132e-01 3.317913e+00 1.331033e-01 3.350282e+00 1.524292e-01 3.338189e+00 1.304247e-01 3.380627e+00 1.498338e-01 3.379500e+00 1.277944e-01 3.431420e+00 1.408769e-01 3.423295e+00 8.869528e-02 3.439175e+00 6.045509e-02 3.490679e+00 4.997352e-02 3.564574e+00 4.746101e-02 3.657277e+00 4.863525e-02 3.769962e+00 5.213352e-02 3.905536e+00 5.770668e-02 
4.091249e+00 7.345052e-02 4.285406e+00 8.378540e-02 4.518465e+00 8.561970e-02 4.299083e+00 8.412077e-02 4.108634e+00 8.053451e-02 3.945721e+00 7.434946e-02 3.810364e+00 6.684916e-02 3.712823e+00 7.493117e-02 3.735734e+00 2.279039e-01 3.578886e+00 1.066900e-01 3.580321e+00 2.077907e-01 3.451381e+00 9.578552e-02 3.488040e+00 2.032955e-01 3.374023e+00 9.109823e-02 3.430372e+00 1.992639e-01 3.327861e+00 8.719462e-02 3.399224e+00 1.961861e-01 3.306446e+00 8.402344e-02 3.389758e+00 1.940122e-01 3.306416e+00 8.151841e-02 3.400577e+00 1.928677e-01 3.327790e+00 7.928282e-02 3.432766e+00 1.919488e-01 3.375849e+00 8.106493e-02 3.501501e+00 2.137474e-01 3.433009e+00 7.385631e-02 3.440880e+00 4.366961e-02 3.503065e+00 4.279072e-02 3.582820e+00 4.695015e-02 3.678044e+00 5.199385e-02 3.791919e+00 5.778268e-02 3.928279e+00 6.478075e-02 
4.097345e+00 6.952150e-02 4.294398e+00 7.974953e-02 4.530398e+00 8.163349e-02 4.306867e+00 7.982051e-02 4.111628e+00 7.541500e-02 3.942772e+00 6.686648e-02 3.799679e+00 5.350535e-02 3.693725e+00 5.731976e-02 3.726787e+00 2.266594e-01 3.534771e+00 7.546542e-02 3.557639e+00 1.979268e-01 3.401897e+00 6.349270e-02 3.461594e+00 1.929376e-01 3.320438e+00 5.955464e-02 3.400905e+00 1.888160e-01 3.271636e+00 5.639075e-02 3.367764e+00 1.855329e-01 3.248756e+00 5.346237e-02 3.357157e+00 1.827416e-01 3.248347e+00 5.063242e-02 3.367889e+00 1.806995e-01 3.270902e+00 4.780199e-02 3.402084e+00 1.791505e-01 3.324909e+00 5.319127e-02 3.483591e+00 2.147807e-01 3.393257e+00 5.335531e-02 3.417308e+00 3.086802e-02 3.490688e+00 3.601469e-02 3.576387e+00 4.281791e-02 3.675389e+00 4.864710e-02 3.792313e+00 5.441680e-02 3.931529e+00 6.112984e-02 
4.106516e+00 7.706848e-02 4.302422e+00 8.771536e-02 4.537293e+00 8.960838e-02 4.314183e+00 8.808891e-02 4.118021e+00 8.404270e-02 3.943251e+00 7.552157e-02 3.776998e+00 5.169577e-02 3.587912e+00 -2.852026e-02 3.234646e+00 -3.246667e-01 3.258152e+00 -1.704242e-01 3.059205e+00 -3.519870e-01 3.131598e+00 -1.916965e-01 2.941962e+00 -3.739617e-01 3.046314e+00 -2.071737e-01 2.869547e+00 -3.869300e-01 2.996265e+00 -2.169659e-01 2.828972e+00 -3.960636e-01 2.972340e+00 -2.232809e-01 2.813912e+00 -4.025235e-01 2.970861e+00 -2.266579e-01 2.822337e+00 -4.066866e-01 2.993003e+00 -2.256802e-01 2.860253e+00 -4.049555e-01 3.045998e+00 -2.208474e-01 2.931079e+00 -4.064777e-01 3.217924e+00 -1.142929e-01 3.399758e+00 -9.612101e-03 3.499216e+00 2.734051e-02 3.588629e+00 4.334129e-02 3.687606e+00 5.266060e-02 3.803707e+00 6.020848e-02 3.941849e+00 6.800255e-02 
4.098287e+00 7.288384e-02 4.295063e+00 8.329136e-02 4.530709e+00 8.519485e-02 4.305588e+00 8.356870e-02 4.106736e+00 7.957563e-02 3.926977e+00 7.080117e-02 3.747412e+00 4.070842e-02 3.515546e+00 -8.384076e-02 2.970356e+00 -5.999071e-01 3.106244e+00 -2.966003e-01 2.793325e+00 -6.204080e-01 2.980684e+00 -3.179786e-01 2.666439e+00 -6.438205e-01 2.893114e+00 -3.344280e-01 2.589879e+00 -6.549940e-01 2.842646e+00 -3.436108e-01 2.547750e+00 -6.620223e-01 2.818934e+00 -3.487647e-01 2.533099e+00 -6.664236e-01 2.818201e+00 -3.506004e-01 2.543565e+00 -6.687074e-01 2.841943e+00 -3.469537e-01 2.586828e+00 -6.635409e-01 2.896584e+00 -3.430742e-01 2.656703e+00 -6.811023e-01 3.121899e+00 -1.844005e-01 3.372740e+00 -2.630842e-02 3.483891e+00 2.238488e-02 3.575973e+00 4.064435e-02 3.676307e+00 4.999397e-02 3.793523e+00 5.704371e-02 3.932681e+00 6.427494e-02 
4.093165e+00 8.028956e-02 4.286747e+00 9.071517e-02 4.519095e+00 9.256391e-02 4.298224e+00 9.054891e-02 4.104944e+00 8.556385e-02 3.935502e+00 7.563946e-02 3.783362e+00 5.501877e-02 3.638786e+00 1.758826e-02 3.479391e+00 -5.398099e-02 3.393210e+00 -4.982518e-02 3.311429e+00 -8.058227e-02 3.266960e+00 -6.527057e-02 3.210433e+00 -9.064963e-02 3.186697e+00 -7.325205e-02 3.149028e+00 -9.551486e-02 3.139870e+00 -7.779225e-02 3.116451e+00 -9.801163e-02 3.118306e+00 -8.041839e-02 3.107062e+00 -9.879492e-02 3.118535e+00 -8.134537e-02 3.119538e+00 -9.755427e-02 3.141608e+00 -7.958902e-02 3.158083e+00 -9.212798e-02 3.195963e+00 -6.965294e-02 3.237994e+00 -6.781118e-02 3.310421e+00 -2.264679e-02 3.409446e+00 1.449163e-02 3.495506e+00 3.566115e-02 3.582356e+00 4.796870e-02 3.679913e+00 5.640039e-02 3.794406e+00 6.369926e-02 3.930645e+00 7.136539e-02 