# vtk DataFile Version 2.0
Comment goes here
ASCII

DATASET STRUCTURED_POINTS
FIELD FieldData 1
TIME 1 1 double
0.04500000
DIMENSIONS    64   64   1

ORIGIN    0.000   0.000   0.000
SPACING   0.03125 0.03125   1.000

POINT_DATA   4096
SCALARS uX double
LOOKUP_TABLE default

7.175261e-01 -1.259724e+00 3.944338e-01 -1.146280e+00 1.753636e-01 -1.070850e+00 2.700628e-01 -1.017919e+00 3.203142e-01 -9.591271e-01 3.069141e-01 -8.591194e-01 2.295584e-01 -7.191468e-01 1.088180e-01 -5.571228e-01 -3.341200e-02 -3.894570e-01 -1.735448e-01 -2.417167e-01 -2.831430e-01 -1.325307e-01 -3.555889e-01 -5.523086e-02 -4.046896e-01 5.515041e-03 -4.493187e-01 7.357494e-02 -5.159213e-01 1.687359e-01 -6.102414e-01 2.779850e-01 -7.092205e-01 3.808234e-01 -8.045049e-01 4.753970e-01 -8.921921e-01 5.485254e-01 -9.491522e-01 5.763684e-01 -9.556480e-01 5.522488e-01 -9.153867e-01 4.810312e-01 -8.294147e-01 3.726740e-01 -7.196913e-01 2.539866e-01 -6.108096e-01 1.383617e-01 -5.070686e-01 2.092216e-02 -3.990000e-01 -1.168216e-01 -2.620615e-01 -3.004700e-01 -8.108654e-02 -5.302133e-01 1.246861e-01 -7.775592e-01 3.207837e-01 -1.011039e+00 4.842850e-01 -1.230687e+00 
-6.200836e-01 3.588492e-01 -2.314738e-01 2.745327e-01 7.560602e-03 2.306573e-01 -1.741826e-01 1.934633e-01 -2.882431e-01 1.628924e-01 -3.420692e-01 1.127991e-01 -3.455038e-01 4.156790e-02 -3.164151e-01 -4.144612e-02 -2.681886e-01 -1.301526e-01 -2.146018e-01 -2.107212e-01 -1.736173e-01 -2.723693e-01 -1.484341e-01 -3.192981e-01 -1.337422e-01 -3.564082e-01 -1.215377e-01 -3.958819e-01 -9.678756e-02 -4.495220e-01 -5.539660e-02 -5.084605e-01 -1.192034e-02 -5.600723e-01 3.159140e-02 -6.074555e-01 7.647055e-02 -6.444341e-01 1.077575e-01 -6.549260e-01 1.118806e-01 -6.375551e-01 9.332680e-02 -5.954586e-01 4.896275e-02 -5.311950e-01 -7.990385e-03 -4.621865e-01 -6.193189e-02 -3.957279e-01 -1.099858e-01 -3.288695e-01 -1.551706e-01 -2.521428e-01 -2.102051e-01 -1.513728e-01 -2.824088e-01 -2.810533e-02 -3.580722e-01 1.023194e-01 -4.178398e-01 2.247630e-01 -4.524506e-01 3.528477e-01 
8.165525e-01 6.006818e-01 8.523109e-01 5.096062e-01 6.380160e-01 4.439031e-01 1.013464e+00 4.525007e-01 1.250460e+00 4.269673e-01 1.446690e+00 3.614253e-01 1.636176e+00 2.654239e-01 1.822091e+00 1.558171e-01 1.999951e+00 4.635562e-02 2.160742e+00 -4.512674e-02 2.287600e+00 -1.046979e-01 2.379939e+00 -1.380314e-01 2.447932e+00 -1.551922e-01 2.503893e+00 -1.749654e-01 2.569243e+00 -2.156418e-01 2.647474e+00 -2.687560e-01 2.720643e+00 -3.212390e-01 2.784334e+00 -3.772979e-01 2.839521e+00 -4.286964e-01 2.870314e+00 -4.535296e-01 2.862542e+00 -4.450430e-01 2.822068e+00 -4.052320e-01 2.747497e+00 -3.366710e-01 2.653553e+00 -2.624519e-01 2.556389e+00 -1.922850e-01 2.456768e+00 -1.243735e-01 2.345295e+00 -4.661431e-02 2.200860e+00 6.030533e-02 2.008461e+00 1.965847e-01 1.778550e+00 3.409678e-01 1.529470e+00 4.766849e-01 1.260941e+00 6.220200e-01 
2.711897e+00 -5.835492e-02 1.868290e+00 -9.196583e-02 8.979412e-01 -4.822391e-02 1.991565e+00 -3.286900e-02 2.637978e+00 -2.023165e-02 3.068800e+00 4.838805e-03 3.371666e+00 4.101923e-02 3.594394e+00 8.131121e-02 3.762090e+00 1.229286e-01 3.890690e+00 1.577174e-01 3.998053e+00 1.794837e-01 4.089799e+00 1.920574e-01 4.166923e+00 1.977630e-01 4.229121e+00 2.041079e-01 4.269747e+00 2.202040e-01 4.288276e+00 2.409324e-01 4.296572e+00 2.590630e-01 4.294653e+00 2.796649e-01 4.279135e+00 3.000749e-01 4.258410e+00 3.094949e-01 4.240767e+00 3.073001e-01 4.221179e+00 2.951272e-01 4.202169e+00 2.716772e-01 4.174237e+00 2.481772e-01 4.125967e+00 2.286459e-01 4.053994e+00 2.124645e-01 3.957932e+00 1.955922e-01 3.842756e+00 1.686270e-01 3.708807e+00 1.307203e-01 3.539296e+00 8.759861e-02 3.309538e+00 4.207218e-02 2.993218e+00 -3.365769e-02 
2.702413e+00 4.228415e-02 2.055112e+00 -2.221127e-02 1.273884e+00 -2.684822e-03 2.123439e+00 -1.565007e-02 2.697084e+00 2.375784e-03 3.103045e+00 3.232327e-02 3.403582e+00 6.790669e-02 3.634014e+00 1.042968e-01 3.813532e+00 1.379253e-01 3.952484e+00 1.656279e-01 4.062578e+00 1.839759e-01 4.149172e+00 1.952898e-01 4.217346e+00 2.000370e-01 4.270717e+00 2.028144e-01 4.307894e+00 2.084106e-01 4.330821e+00 2.151164e-01 4.346273e+00 2.206183e-01 4.354573e+00 2.296164e-01 4.353667e+00 2.417860e-01 4.345933e+00 2.507541e-01 4.333787e+00 2.548113e-01 4.312305e+00 2.538456e-01 4.282390e+00 2.445553e-01 4.239450e+00 2.329416e-01 4.178526e+00 2.199231e-01 4.097077e+00 2.069008e-01 3.993631e+00 1.938482e-01 3.869744e+00 1.772145e-01 3.723320e+00 1.567148e-01 3.542487e+00 1.357803e-01 3.309578e+00 1.112933e-01 3.008357e+00 5.979077e-02 
2.791276e+00 -4.111378e-02 2.259976e+00 -5.048688e-02 1.630547e+00 -5.459092e-02 2.259396e+00 -3.142632e-02 2.783189e+00 -9.384654e-03 3.171716e+00 1.770129e-02 3.460514e+00 5.115464e-02 3.679626e+00 8.781935e-02 3.848096e+00 1.238849e-01 3.976845e+00 1.555622e-01 4.078160e+00 1.795611e-01 4.158422e+00 1.971559e-01 4.222552e+00 2.100708e-01 4.271567e+00 2.225672e-01 4.305779e+00 2.372172e-01 4.325487e+00 2.529433e-01 4.335587e+00 2.669796e-01 4.337041e+00 2.803381e-01 4.331091e+00 2.914280e-01 4.319731e+00 2.973474e-01 4.305536e+00 2.965724e-01 4.286066e+00 2.895033e-01 4.260458e+00 2.760216e-01 4.223525e+00 2.597104e-01 4.170365e+00 2.414940e-01 4.097252e+00 2.217129e-01 4.004171e+00 1.986014e-01 3.892417e+00 1.690522e-01 3.759504e+00 1.326096e-01 3.595551e+00 9.121296e-02 3.386412e+00 4.583761e-02 3.119291e+00 -6.048530e-03 
2.893175e+00 4.677225e-02 2.475767e+00 1.887412e-02 1.978049e+00 1.494422e-02 2.447755e+00 1.285890e-02 2.875186e+00 2.362118e-02 3.215846e+00 4.575242e-02 3.482707e+00 7.528295e-02 3.694387e+00 1.079513e-01 3.864131e+00 1.387730e-01 3.996143e+00 1.645552e-01 4.099283e+00 1.830408e-01 4.178894e+00 1.955871e-01 4.241207e+00 2.031678e-01 4.288553e+00 2.088730e-01 4.323311e+00 2.144608e-01 4.346581e+00 2.206301e-01 4.361956e+00 2.266055e-01 4.369608e+00 2.338870e-01 4.370264e+00 2.414435e-01 4.364047e+00 2.475965e-01 4.352020e+00 2.505555e-01 4.331895e+00 2.500543e-01 4.302901e+00 2.444925e-01 4.261582e+00 2.351828e-01 4.205040e+00 2.217127e-01 4.130077e+00 2.055928e-01 4.035364e+00 1.884282e-01 3.922579e+00 1.700802e-01 3.789928e+00 1.505113e-01 3.630137e+00 1.297209e-01 3.433195e+00 1.054967e-01 3.190113e+00 7.366628e-02 
3.052398e+00 -2.919858e-04 2.708203e+00 -1.075544e-02 2.307269e+00 -1.434364e-02 2.654554e+00 -6.719980e-03 3.011677e+00 9.290117e-03 3.315116e+00 3.273283e-02 3.559215e+00 6.315047e-02 3.754995e+00 9.754550e-02 3.912838e+00 1.307926e-01 4.032101e+00 1.604486e-01 4.125183e+00 1.829722e-01 4.195868e+00 2.008453e-01 4.252570e+00 2.143189e-01 4.294329e+00 2.273669e-01 4.325645e+00 2.396666e-01 4.344517e+00 2.527017e-01 4.356085e+00 2.638185e-01 4.358609e+00 2.743525e-01 4.356148e+00 2.816773e-01 4.347077e+00 2.862368e-01 4.335022e+00 2.856081e-01 4.316347e+00 2.812211e-01 4.291934e+00 2.710842e-01 4.255959e+00 2.568110e-01 4.206989e+00 2.364320e-01 4.139162e+00 2.126458e-01 4.054404e+00 1.864889e-01 3.955027e+00 1.577617e-01 3.839151e+00 1.265300e-01 3.700182e+00 9.332745e-02 3.529144e+00 5.875043e-02 3.316949e+00 2.463864e-02 
3.203284e+00 6.075283e-02 2.935300e+00 4.477554e-02 2.627113e+00 4.132668e-02 2.876680e+00 3.714890e-02 3.150441e+00 4.181098e-02 3.400466e+00 5.721141e-02 3.614072e+00 8.291193e-02 3.795059e+00 1.158557e-01 3.949859e+00 1.481619e-01 4.067188e+00 1.738586e-01 4.157670e+00 1.909774e-01 4.224857e+00 2.025193e-01 4.278507e+00 2.096284e-01 4.318198e+00 2.155780e-01 4.349116e+00 2.204385e-01 4.369698e+00 2.260116e-01 4.384291e+00 2.309932e-01 4.391110e+00 2.369482e-01 4.392999e+00 2.420681e-01 4.388090e+00 2.469568e-01 4.378375e+00 2.494507e-01 4.361028e+00 2.504214e-01 4.335963e+00 2.473772e-01 4.299345e+00 2.403097e-01 4.249219e+00 2.255257e-01 4.181576e+00 2.042844e-01 4.094455e+00 1.816317e-01 3.995414e+00 1.603384e-01 3.884624e+00 1.408246e-01 3.756708e+00 1.220249e-01 3.604842e+00 1.022277e-01 3.422748e+00 8.068755e-02 
3.380292e+00 2.816879e-02 3.167680e+00 2.135947e-02 2.929434e+00 1.819626e-02 3.102909e+00 1.771901e-02 3.315345e+00 2.628291e-02 3.523093e+00 4.448069e-02 3.708039e+00 7.339118e-02 3.870119e+00 1.102358e-01 4.014795e+00 1.461414e-01 4.114178e+00 1.757605e-01 4.193734e+00 1.946009e-01 4.247951e+00 2.103458e-01 4.296618e+00 2.208767e-01 4.327855e+00 2.329218e-01 4.356737e+00 2.420196e-01 4.370680e+00 2.533734e-01 4.384072e+00 2.610913e-01 4.384933e+00 2.701920e-01 4.386854e+00 2.746106e-01 4.378235e+00 2.793953e-01 4.371514e+00 2.787082e-01 4.354293e+00 2.778714e-01 4.336119e+00 2.703680e-01 4.303158e+00 2.591970e-01 4.262041e+00 2.355249e-01 4.197004e+00 2.060394e-01 4.118251e+00 1.753676e-01 4.033455e+00 1.460871e-01 3.941442e+00 1.186281e-01 3.836192e+00 9.243434e-02 3.711107e+00 6.737524e-02 3.560680e+00 4.491996e-02 
3.545756e+00 7.374109e-02 3.390886e+00 6.637586e-02 3.222175e+00 6.348520e-02 3.328162e+00 5.550453e-02 3.474856e+00 5.361616e-02 3.632217e+00 6.137966e-02 3.783801e+00 8.393342e-02 3.927802e+00 1.237172e-01 4.072134e+00 1.703196e-01 4.165889e+00 1.942930e-01 4.237562e+00 2.087460e-01 4.284755e+00 2.139600e-01 4.328394e+00 2.198898e-01 4.357083e+00 2.224888e-01 4.384191e+00 2.276444e-01 4.399233e+00 2.305142e-01 4.413452e+00 2.358224e-01 4.417964e+00 2.389845e-01 4.421910e+00 2.440830e-01 4.417720e+00 2.467165e-01 4.412404e+00 2.506716e-01 4.399225e+00 2.522009e-01 4.381540e+00 2.542946e-01 4.352461e+00 2.506094e-01 4.310830e+00 2.383099e-01 4.249588e+00 2.060691e-01 4.163339e+00 1.721430e-01 4.078985e+00 1.461829e-01 3.995841e+00 1.275571e-01 3.905975e+00 1.127366e-01 3.803132e+00 9.906196e-02 3.683656e+00 8.575812e-02 
3.722265e+00 4.956486e-02 3.612198e+00 4.738995e-02 3.497963e+00 4.487253e-02 3.551163e+00 3.800437e-02 3.648894e+00 3.756788e-02 3.766756e+00 4.683777e-02 3.888486e+00 7.326745e-02 4.012953e+00 1.200077e-01 4.158927e+00 1.794458e-01 4.218927e+00 2.022372e-01 4.284330e+00 2.159447e-01 4.308081e+00 2.223838e-01 4.355481e+00 2.308119e-01 4.365939e+00 2.379067e-01 4.400235e+00 2.460993e-01 4.399055e+00 2.536045e-01 4.422031e+00 2.603790e-01 4.411658e+00 2.664932e-01 4.426018e+00 2.704178e-01 4.409376e+00 2.739702e-01 4.417435e+00 2.748432e-01 4.395854e+00 2.766672e-01 4.395642e+00 2.751040e-01 4.362049e+00 2.699019e-01 4.340030e+00 2.453269e-01 4.265224e+00 2.029626e-01 4.184985e+00 1.615697e-01 4.117214e+00 1.299887e-01 4.055411e+00 1.067908e-01 3.989400e+00 8.817410e-02 3.913048e+00 7.213145e-02 3.823897e+00 5.885449e-02 
3.887715e+00 8.523958e-02 3.823773e+00 8.476924e-02 3.763990e+00 8.262108e-02 3.765806e+00 7.045479e-02 3.810614e+00 5.915178e-02 3.882345e+00 5.170980e-02 3.970139e+00 6.081035e-02 4.077836e+00 1.094785e-01 4.243908e+00 2.397854e-01 4.287102e+00 2.164298e-01 4.339061e+00 2.504010e-01 4.348579e+00 2.125118e-01 4.392693e+00 2.467937e-01 4.397547e+00 2.143666e-01 4.431687e+00 2.500891e-01 4.428904e+00 2.198450e-01 4.453198e+00 2.554223e-01 4.444183e+00 2.262223e-01 4.460369e+00 2.609031e-01 4.446984e+00 2.322126e-01 4.456428e+00 2.659074e-01 4.440409e+00 2.393142e-01 4.442744e+00 2.758440e-01 4.419013e+00 2.536176e-01 4.398607e+00 2.871388e-01 4.331606e+00 2.140299e-01 4.225017e+00 1.515865e-01 4.160101e+00 1.214455e-01 4.113042e+00 1.083437e-01 4.065838e+00 1.011108e-01 4.012459e+00 9.521202e-02 3.952345e+00 8.972897e-02 
4.056041e+00 6.672422e-02 4.029181e+00 6.986466e-02 4.013497e+00 6.815640e-02 3.975144e+00 5.675167e-02 3.980482e+00 4.464467e-02 4.017465e+00 3.351665e-02 4.076580e+00 3.840076e-02 4.164212e+00 7.958601e-02 4.380252e+00 2.995618e-01 4.322796e+00 2.059351e-01 4.409033e+00 2.740395e-01 4.350823e+00 1.994866e-01 4.447183e+00 2.704450e-01 4.384944e+00 2.104569e-01 4.476327e+00 2.779270e-01 4.406351e+00 2.240766e-01 4.491371e+00 2.862805e-01 4.415519e+00 2.354369e-01 4.495300e+00 2.916138e-01 4.416861e+00 2.427710e-01 4.493521e+00 2.934164e-01 4.416480e+00 2.501010e-01 4.492745e+00 3.017925e-01 4.413185e+00 2.703049e-01 4.478219e+00 2.965428e-01 4.325534e+00 2.033427e-01 4.231688e+00 1.337108e-01 4.193775e+00 1.016685e-01 4.173074e+00 8.814690e-02 4.150349e+00 8.025568e-02 4.121811e+00 7.389595e-02 4.089056e+00 6.902319e-02 
4.214177e+00 9.603926e-02 4.224812e+00 1.025117e-01 4.253105e+00 1.012580e-01 4.173550e+00 8.893732e-02 4.133918e+00 6.960881e-02 4.123428e+00 3.535794e-02 4.137138e+00 -2.004267e-02 4.208511e+00 -7.745060e-02 4.533314e+00 5.483463e-01 4.370309e+00 6.491587e-02 4.496777e+00 4.449514e-01 4.354447e+00 2.608889e-02 4.520963e+00 4.328111e-01 4.380943e+00 2.843009e-02 4.545517e+00 4.356518e-01 4.399918e+00 3.492147e-02 4.559362e+00 4.393160e-01 4.410663e+00 4.215408e-02 4.564706e+00 4.416713e-01 4.416234e+00 4.901974e-02 4.565421e+00 4.419967e-01 4.422665e+00 5.634356e-02 4.575173e+00 4.500150e-01 4.443540e+00 7.464110e-02 4.604944e+00 5.390543e-01 4.398385e+00 2.016283e-01 4.238498e+00 8.605374e-02 4.228324e+00 7.528004e-02 4.232710e+00 8.204805e-02 4.230214e+00 8.802598e-02 4.223017e+00 9.140429e-02 4.215862e+00 9.351173e-02 
4.370456e+00 8.196102e-02 4.411819e+00 9.164000e-02 4.476519e+00 9.088050e-02 4.363557e+00 8.185828e-02 4.289782e+00 6.502803e-02 4.246612e+00 2.834354e-02 4.232105e+00 -4.047864e-02 4.263912e+00 -6.043470e-02 4.443069e+00 2.573912e-01 4.227455e+00 -1.092415e-01 4.432452e+00 2.493150e-01 4.225477e+00 -9.286109e-02 4.471394e+00 3.109033e-01 4.234801e+00 -6.135102e-02 4.501584e+00 3.651238e-01 4.240916e+00 -3.416446e-02 4.521195e+00 4.079394e-01 4.243827e+00 -1.209914e-02 4.534358e+00 4.424576e-01 4.246870e+00 5.761782e-03 4.547745e+00 4.734840e-01 4.257491e+00 2.341566e-02 4.584327e+00 5.217162e-01 4.302613e+00 7.767598e-02 4.702967e+00 7.548632e-01 4.287797e+00 1.780055e-01 4.213813e+00 4.822982e-02 4.262664e+00 4.917633e-02 4.297119e+00 6.274917e-02 4.315839e+00 7.090656e-02 4.329413e+00 7.482093e-02 4.345434e+00 7.764098e-02 
4.516970e+00 1.069706e-01 4.589022e+00 1.204250e-01 4.689933e+00 1.201439e-01 4.546086e+00 1.163839e-01 4.437002e+00 1.103285e-01 4.343514e+00 9.892477e-02 4.223555e+00 5.569119e-02 3.959569e+00 -1.037480e-01 3.033335e+00 -1.402302e+00 3.483085e+00 -6.673475e-01 3.115371e+00 -1.319540e+00 3.533190e+00 -6.303435e-01 3.141611e+00 -1.265262e+00 3.525438e+00 -6.136468e-01 3.149726e+00 -1.227930e+00 3.516144e+00 -5.969227e-01 3.160931e+00 -1.191306e+00 3.511968e+00 -5.762544e-01 3.179781e+00 -1.149546e+00 3.513861e+00 -5.490205e-01 3.208990e+00 -1.098600e+00 3.520559e+00 -5.162782e-01 3.243716e+00 -1.048851e+00 3.540828e+00 -4.875710e-01 3.325794e+00 -1.053044e+00 3.808247e+00 -3.864794e-01 4.190535e+00 -9.024005e-02 4.315458e+00 1.525700e-02 4.365653e+00 5.818054e-02 4.397484e+00 7.854768e-02 4.428135e+00 8.999123e-02 4.465739e+00 9.833954e-02 
4.658707e+00 9.625333e-02 4.756219e+00 1.119512e-01 4.887415e+00 1.121460e-01 4.715260e+00 1.125839e-01 4.573838e+00 1.158700e-01 4.436912e+00 1.276332e-01 4.244699e+00 1.241189e-01 3.854836e+00 -5.782580e-02 2.761526e+00 -1.613378e+00 3.218869e+00 -6.817735e-01 2.702308e+00 -1.663100e+00 3.256965e+00 -7.221718e-01 2.635219e+00 -1.744901e+00 3.237937e+00 -7.679082e-01 2.573413e+00 -1.809851e+00 3.220887e+00 -7.978086e-01 2.533880e+00 -1.851536e+00 3.213178e+00 -8.144550e-01 2.515429e+00 -1.876439e+00 3.215283e+00 -8.216585e-01 2.513668e+00 -1.893540e+00 3.222796e+00 -8.300281e-01 2.501459e+00 -1.943719e+00 3.232973e+00 -8.800114e-01 2.476977e+00 -2.213642e+00 3.697266e+00 -7.192253e-01 4.265718e+00 -1.682871e-01 4.394178e+00 -6.665325e-03 4.443117e+00 4.642500e-02 4.483416e+00 6.752384e-02 4.528785e+00 7.832889e-02 4.585216e+00 8.656703e-02 
4.790736e+00 1.177012e-01 4.913687e+00 1.348240e-01 5.074788e+00 1.353838e-01 4.883426e+00 1.334629e-01 4.726299e+00 1.282635e-01 4.590273e+00 1.202737e-01 4.458643e+00 1.075253e-01 4.327851e+00 1.013302e-01 4.363982e+00 1.465018e-01 4.047130e+00 -3.190431e-02 4.159862e+00 -3.016952e-02 3.991023e+00 -1.163462e-01 4.085612e+00 -1.423077e-01 3.958733e+00 -1.745773e-01 4.033291e+00 -2.234044e-01 3.939161e+00 -2.170589e-01 3.997336e+00 -2.847616e-01 3.930276e+00 -2.493135e-01 3.974074e+00 -3.349321e-01 3.931875e+00 -2.758797e-01 3.961161e+00 -3.828684e-01 3.945534e+00 -3.020021e-01 3.959615e+00 -4.390522e-01 3.984291e+00 -3.101925e-01 3.987980e+00 -4.634695e-01 4.109243e+00 -2.705781e-01 4.332981e+00 -8.121808e-02 4.437433e+00 1.121382e-02 4.501285e+00 5.543850e-02 4.557685e+00 7.864897e-02 4.619746e+00 9.319818e-02 4.695159e+00 1.050306e-01 
4.916077e+00 1.087795e-01 5.060367e+00 1.257269e-01 5.246484e+00 1.266849e-01 5.036974e+00 1.229850e-01 4.863845e+00 1.104786e-01 4.722587e+00 7.986986e-02 4.619403e+00 1.685641e-02 4.608711e+00 -5.514562e-02 4.924161e+00 6.638450e-01 4.629828e+00 9.935343e-02 4.755435e+00 5.628231e-01 4.498398e+00 4.255063e-02 4.705829e+00 5.422637e-01 4.453287e+00 2.414410e-02 4.685917e+00 5.349036e-01 4.429265e+00 1.224619e-02 4.676180e+00 5.283136e-01 4.418447e+00 2.297520e-03 4.674565e+00 5.199135e-01 4.420275e+00 -8.378529e-03 4.683742e+00 5.090239e-01 4.440534e+00 -1.931885e-02 4.723630e+00 5.117973e-01 4.502102e+00 6.542568e-04 4.830386e+00 6.923103e-01 4.506424e+00 1.365365e-01 4.430197e+00 2.174853e-02 4.497182e+00 3.599022e-02 4.566531e+00 5.886786e-02 4.634296e+00 7.470847e-02 4.710152e+00 8.603030e-02 4.801777e+00 9.644064e-02 
5.032102e+00 1.278008e-01 5.197243e+00 1.453936e-01 5.407987e+00 1.466815e-01 5.187806e+00 1.441957e-01 5.007431e+00 1.357673e-01 4.866368e+00 1.198210e-01 4.771502e+00 9.651685e-02 4.752029e+00 8.055729e-02 4.888548e+00 3.694215e-01 4.742479e+00 2.037735e-01 4.752089e+00 3.554841e-01 4.626132e+00 1.735147e-01 4.688903e+00 3.513898e-01 4.576336e+00 1.588581e-01 4.659800e+00 3.519650e-01 4.550288e+00 1.486894e-01 4.646246e+00 3.527855e-01 4.539248e+00 1.409438e-01 4.644378e+00 3.540356e-01 4.541575e+00 1.349004e-01 4.655352e+00 3.579491e-01 4.560697e+00 1.337795e-01 4.688591e+00 3.790889e-01 4.603205e+00 1.513530e-01 4.752510e+00 4.523931e-01 4.615632e+00 1.995193e-01 4.531448e+00 8.815392e-02 4.567257e+00 7.183576e-02 4.630623e+00 7.941355e-02 4.704935e+00 9.057447e-02 4.792773e+00 1.018063e-01 4.899697e+00 1.137246e-01 
5.139956e+00 1.204085e-01 5.322754e+00 1.367596e-01 5.554007e+00 1.383808e-01 5.321962e+00 1.347378e-01 5.130700e+00 1.255260e-01 4.981856e+00 1.137291e-01 4.880003e+00 1.135343e-01 4.834514e+00 1.613140e-01 4.866118e+00 2.758061e-01 4.798434e+00 2.582653e-01 4.761569e+00 2.893396e-01 4.685418e+00 2.513231e-01 4.683405e+00 2.841603e-01 4.623389e+00 2.459954e-01 4.642630e+00 2.825263e-01 4.589885e+00 2.429228e-01 4.622521e+00 2.815005e-01 4.575096e+00 2.402852e-01 4.618268e+00 2.804786e-01 4.576784e+00 2.381218e-01 4.630510e+00 2.813826e-01 4.597511e+00 2.413835e-01 4.664251e+00 2.955547e-01 4.636658e+00 2.621274e-01 4.709910e+00 3.120688e-01 4.637578e+00 2.050398e-01 4.597797e+00 1.243347e-01 4.628095e+00 9.349016e-02 4.691612e+00 8.766242e-02 4.773009e+00 9.095898e-02 4.871738e+00 9.790212e-02 4.992049e+00 1.075385e-01 
5.239042e+00 1.376972e-01 5.438547e+00 1.547011e-01 5.689732e+00 1.566326e-01 5.449622e+00 1.557351e-01 5.251126e+00 1.517721e-01 5.094894e+00 1.488115e-01 4.982033e+00 1.569876e-01 4.913395e+00 1.932694e-01 4.889258e+00 2.506276e-01 4.839148e+00 2.592031e-01 4.786477e+00 2.723898e-01 4.732389e+00 2.602799e-01 4.702516e+00 2.687387e-01 4.665926e+00 2.539741e-01 4.654372e+00 2.635662e-01 4.629076e+00 2.480581e-01 4.629971e+00 2.591536e-01 4.613008e+00 2.435109e-01 4.623774e+00 2.563640e-01 4.614483e+00 2.413516e-01 4.634643e+00 2.572322e-01 4.633699e+00 2.449321e-01 4.663344e+00 2.664021e-01 4.668283e+00 2.526621e-01 4.702015e+00 2.634896e-01 4.686512e+00 2.034985e-01 4.663789e+00 1.454410e-01 4.690451e+00 1.155946e-01 4.751961e+00 1.058516e-01 4.837285e+00 1.067012e-01 4.944584e+00 1.132152e-01 5.076741e+00 1.236263e-01 
5.328749e+00 1.316306e-01 5.542450e+00 1.474630e-01 5.810125e+00 1.496933e-01 5.560480e+00 1.491401e-01 5.351915e+00 1.470924e-01 5.184941e+00 1.492840e-01 5.058686e+00 1.651439e-01 4.971371e+00 2.016149e-01 4.922739e+00 2.380968e-01 4.868364e+00 2.576860e-01 4.813836e+00 2.654100e-01 4.758405e+00 2.673696e-01 4.721247e+00 2.666587e-01 4.683063e+00 2.655839e-01 4.664465e+00 2.639172e-01 4.639783e+00 2.625755e-01 4.634788e+00 2.609269e-01 4.620412e+00 2.597226e-01 4.626450e+00 2.584770e-01 4.621323e+00 2.580202e-01 4.637728e+00 2.582647e-01 4.641690e+00 2.598895e-01 4.667399e+00 2.614414e-01 4.676834e+00 2.575372e-01 4.706054e+00 2.381318e-01 4.702118e+00 1.964973e-01 4.702668e+00 1.532119e-01 4.737039e+00 1.243941e-01 4.803043e+00 1.105423e-01 4.894823e+00 1.070937e-01 5.010969e+00 1.104362e-01 5.153945e+00 1.188014e-01 
5.410156e+00 1.472039e-01 5.636862e+00 1.637482e-01 5.920127e+00 1.662513e-01 5.663038e+00 1.676549e-01 5.446959e+00 1.681344e-01 5.271294e+00 1.725446e-01 5.134218e+00 1.872430e-01 5.032933e+00 2.145346e-01 4.964814e+00 2.403162e-01 4.904658e+00 2.572206e-01 4.844742e+00 2.638016e-01 4.790425e+00 2.656452e-01 4.746743e+00 2.635224e-01 4.710401e+00 2.613047e-01 4.684923e+00 2.577959e-01 4.663713e+00 2.552414e-01 4.652178e+00 2.521294e-01 4.642663e+00 2.501968e-01 4.642377e+00 2.481521e-01 4.642977e+00 2.475313e-01 4.652889e+00 2.473266e-01 4.662929e+00 2.484140e-01 4.681825e+00 2.483320e-01 4.698923e+00 2.431791e-01 4.722808e+00 2.263734e-01 4.736067e+00 1.943943e-01 4.747353e+00 1.602263e-01 4.784819e+00 1.354625e-01 4.852909e+00 1.226655e-01 4.948957e+00 1.196493e-01 5.072008e+00 1.237234e-01 5.224190e+00 1.331704e-01 
5.481265e+00 1.419298e-01 5.718926e+00 1.576978e-01 6.014920e+00 1.604589e-01 5.749555e+00 1.625142e-01 5.524485e+00 1.643902e-01 5.339084e+00 1.711217e-01 5.191413e+00 1.878285e-01 5.079258e+00 2.142826e-01 5.000249e+00 2.384108e-01 4.931685e+00 2.559774e-01 4.867725e+00 2.637111e-01 4.808917e+00 2.675507e-01 4.761748e+00 2.664958e-01 4.721608e+00 2.660884e-01 4.693410e+00 2.631535e-01 4.669717e+00 2.621323e-01 4.656583e+00 2.590343e-01 4.645918e+00 2.582029e-01 4.645119e+00 2.554867e-01 4.645776e+00 2.553541e-01 4.656119e+00 2.535116e-01 4.667160e+00 2.539078e-01 4.687149e+00 2.502333e-01 4.706094e+00 2.425058e-01 4.732081e+00 2.210589e-01 4.750262e+00 1.910822e-01 4.771859e+00 1.604669e-01 4.817110e+00 1.368129e-01 4.891500e+00 1.230261e-01 4.994129e+00 1.182433e-01 5.124724e+00 1.206128e-01 5.285550e+00 1.287528e-01 
5.544419e+00 1.557222e-01 5.791724e+00 1.722902e-01 6.099248e+00 1.752740e-01 5.826996e+00 1.779596e-01 5.594927e+00 1.794744e-01 5.402001e+00 1.841626e-01 5.246448e+00 1.972979e-01 5.126078e+00 2.209072e-01 5.038972e+00 2.464314e-01 4.968046e+00 2.609749e-01 4.896261e+00 2.672583e-01 4.835803e+00 2.670828e-01 4.783189e+00 2.653297e-01 4.743439e+00 2.615259e-01 4.711013e+00 2.585748e-01 4.688738e+00 2.545081e-01 4.672021e+00 2.519249e-01 4.663492e+00 2.484550e-01 4.659540e+00 2.467637e-01 4.662924e+00 2.443843e-01 4.670510e+00 2.439803e-01 4.685140e+00 2.427326e-01 4.703249e+00 2.420487e-01 4.727329e+00 2.359119e-01 4.752503e+00 2.220497e-01 4.779384e+00 1.932874e-01 4.802570e+00 1.628700e-01 4.850151e+00 1.408200e-01 4.928382e+00 1.293567e-01 5.035919e+00 1.268610e-01 5.172462e+00 1.312431e-01 5.340388e+00 1.411125e-01 
5.596643e+00 1.507288e-01 5.851821e+00 1.669312e-01 6.168463e+00 1.701203e-01 5.889186e+00 1.731630e-01 5.649635e+00 1.748550e-01 5.449052e+00 1.795540e-01 5.286223e+00 1.928391e-01 5.160013e+00 2.179407e-01 5.069622e+00 2.483103e-01 4.990546e+00 2.623440e-01 4.913918e+00 2.694666e-01 4.847437e+00 2.685901e-01 4.793212e+00 2.686493e-01 4.748998e+00 2.647738e-01 4.716266e+00 2.638239e-01 4.690375e+00 2.595069e-01 4.674347e+00 2.585925e-01 4.663056e+00 2.543639e-01 4.660731e+00 2.537715e-01 4.662300e+00 2.499329e-01 4.672471e+00 2.499232e-01 4.686421e+00 2.465297e-01 4.708223e+00 2.459522e-01 4.732879e+00 2.376491e-01 4.762729e+00 2.239431e-01 4.789278e+00 1.922253e-01 4.815201e+00 1.599403e-01 4.869003e+00 1.376069e-01 4.954034e+00 1.261815e-01 5.068039e+00 1.234152e-01 5.210934e+00 1.272516e-01 5.385477e+00 1.365400e-01 
5.641157e+00 1.629980e-01 5.902787e+00 1.802582e-01 6.227166e+00 1.836172e-01 5.941731e+00 1.866376e-01 5.695758e+00 1.859771e-01 5.488393e+00 1.843695e-01 5.319815e+00 1.881961e-01 5.191125e+00 2.109480e-01 5.101658e+00 2.703931e-01 5.029095e+00 2.686605e-01 4.935867e+00 2.829299e-01 4.870477e+00 2.632123e-01 4.807291e+00 2.746424e-01 4.767336e+00 2.538762e-01 4.728033e+00 2.663741e-01 4.706729e+00 2.454037e-01 4.684954e+00 2.588984e-01 4.678361e+00 2.381441e-01 4.670769e+00 2.525317e-01 4.677385e+00 2.323238e-01 4.682831e+00 2.476360e-01 4.703144e+00 2.286753e-01 4.721971e+00 2.463548e-01 4.755814e+00 2.290859e-01 4.783174e+00 2.464436e-01 4.817793e+00 2.003860e-01 4.830617e+00 1.560058e-01 4.886293e+00 1.339092e-01 4.977426e+00 1.269101e-01 5.096961e+00 1.284294e-01 5.244785e+00 1.354935e-01 5.424373e+00 1.471134e-01 
5.674342e+00 1.580107e-01 5.940825e+00 1.752681e-01 6.270825e+00 1.787747e-01 5.979661e+00 1.820294e-01 5.727548e+00 1.807484e-01 5.513925e+00 1.769742e-01 5.340055e+00 1.768191e-01 5.210506e+00 1.953108e-01 5.134572e+00 2.907400e-01 5.041151e+00 2.642413e-01 4.950494e+00 2.944549e-01 4.869592e+00 2.551347e-01 4.816709e+00 2.860762e-01 4.761867e+00 2.470550e-01 4.734921e+00 2.796468e-01 4.698377e+00 2.401397e-01 4.690302e+00 2.736473e-01 4.668418e+00 2.336317e-01 4.675634e+00 2.677236e-01 4.667356e+00 2.272797e-01 4.688720e+00 2.619739e-01 4.695196e+00 2.219907e-01 4.731888e+00 2.603187e-01 4.753872e+00 2.231798e-01 4.802788e+00 2.650113e-01 4.817921e+00 1.988164e-01 4.827800e+00 1.471421e-01 4.891745e+00 1.257652e-01 4.990890e+00 1.207303e-01 5.116402e+00 1.233769e-01 5.269020e+00 1.307340e-01 5.453041e+00 1.422495e-01 
5.699956e+00 1.692329e-01 5.969769e+00 1.879028e-01 6.303950e+00 1.915287e-01 6.007938e+00 1.957995e-01 5.749817e+00 1.935372e-01 5.527333e+00 1.818161e-01 5.343002e+00 1.533782e-01 5.216232e+00 1.083945e-01 5.180873e+00 4.171460e-01 5.075241e+00 2.097357e-01 4.969503e+00 3.792114e-01 4.875509e+00 1.751987e-01 4.833297e+00 3.646127e-01 4.764246e+00 1.603438e-01 4.752481e+00 3.568136e-01 4.698953e+00 1.492687e-01 4.708395e+00 3.499099e-01 4.667777e+00 1.400637e-01 4.693830e+00 3.432740e-01 4.666129e+00 1.318159e-01 4.706934e+00 3.366175e-01 4.694837e+00 1.237288e-01 4.753981e+00 3.346070e-01 4.764548e+00 1.226971e-01 4.845606e+00 3.969069e-01 4.844056e+00 2.013770e-01 4.813930e+00 1.187209e-01 4.892922e+00 1.100666e-01 5.002946e+00 1.167923e-01 5.133494e+00 1.263454e-01 5.289087e+00 1.376879e-01 5.475753e+00 1.517051e-01 
5.714008e+00 1.640866e-01 5.985686e+00 1.829436e-01 6.322068e+00 1.866545e-01 6.021978e+00 1.916387e-01 5.758837e+00 1.898048e-01 5.529579e+00 1.770476e-01 5.336290e+00 1.432897e-01 5.199261e+00 9.042891e-02 5.178707e+00 4.341636e-01 5.020851e+00 1.550667e-01 4.948560e+00 3.806112e-01 4.816371e+00 1.208661e-01 4.811301e+00 3.655118e-01 4.701081e+00 1.079975e-01 4.727952e+00 3.574792e-01 4.632201e+00 9.859578e-02 4.681479e+00 3.497611e-01 4.598344e+00 9.023005e-02 4.665099e+00 3.413753e-01 4.595164e+00 8.168443e-02 4.677307e+00 3.317263e-01 4.623750e+00 7.166680e-02 4.726419e+00 3.261158e-01 4.698716e+00 7.245068e-02 4.835576e+00 4.092173e-01 4.791780e+00 1.616428e-01 4.788531e+00 9.189327e-02 4.888191e+00 9.634869e-02 5.006933e+00 1.092643e-01 5.141399e+00 1.210008e-01 5.299367e+00 1.328011e-01 5.487965e+00 1.466908e-01 
5.720472e+00 1.744919e-01 5.992530e+00 1.945478e-01 6.329648e+00 1.982995e-01 6.028152e+00 2.058904e-01 5.761997e+00 2.106769e-01 5.522095e+00 2.159454e-01 5.292073e+00 2.205344e-01 5.029537e+00 2.015703e-01 4.660647e+00 -3.594809e-01 4.496416e+00 -9.820681e-02 4.395329e+00 -4.046007e-01 4.354284e+00 -1.126798e-01 4.247583e+00 -4.329852e-01 4.242651e+00 -1.307033e-01 4.145939e+00 -4.590629e-01 4.171660e+00 -1.456633e-01 4.086697e+00 -4.790351e-01 4.136568e+00 -1.567481e-01 4.063727e+00 -4.934295e-01 4.132541e+00 -1.642321e-01 4.073345e+00 -5.044909e-01 4.157855e+00 -1.711396e-01 4.112694e+00 -5.252655e-01 4.215159e+00 -1.890694e-01 4.198948e+00 -6.217423e-01 4.424198e+00 -2.164450e-01 4.738780e+00 7.763954e-04 4.891136e+00 7.672679e-02 5.013894e+00 1.077605e-01 5.147831e+00 1.254606e-01 5.305520e+00 1.401170e-01 5.494169e+00 1.557907e-01 
5.715301e+00 1.688298e-01 5.986334e+00 1.887480e-01 6.322230e+00 1.925036e-01 6.019699e+00 2.009294e-01 5.751392e+00 2.083812e-01 5.505573e+00 2.212136e-01 5.256670e+00 2.404573e-01 4.930697e+00 2.272378e-01 4.373716e+00 -7.812447e-01 4.235822e+00 -2.349719e-01 4.101636e+00 -8.075424e-01 4.128324e+00 -2.328979e-01 3.953399e+00 -8.280114e-01 4.022132e+00 -2.456687e-01 3.848032e+00 -8.492832e-01 3.953473e+00 -2.565736e-01 3.787817e+00 -8.632557e-01 3.921145e+00 -2.636484e-01 3.767149e+00 -8.704126e-01 3.920325e+00 -2.669927e-01 3.781452e+00 -8.736486e-01 3.948174e+00 -2.703204e-01 3.822659e+00 -8.939604e-01 4.001845e+00 -2.960464e-01 3.904051e+00 -1.064180e+00 4.272398e+00 -3.635285e-01 4.717838e+00 -3.148341e-02 4.888406e+00 6.915174e-02 5.011494e+00 1.042948e-01 5.144667e+00 1.219754e-01 5.301773e+00 1.358545e-01 5.489796e+00 1.507203e-01 
5.702440e+00 1.783562e-01 5.971154e+00 1.980552e-01 6.304269e+00 2.017196e-01 6.005660e+00 2.076405e-01 5.743358e+00 2.083528e-01 5.511370e+00 2.033112e-01 5.302543e+00 1.875630e-01 5.103298e+00 1.543204e-01 4.905412e+00 9.198689e-03 4.728897e+00 8.021523e-03 4.660841e+00 -3.506307e-02 4.565213e+00 -1.055418e-02 4.527508e+00 -4.555872e-02 4.458070e+00 -2.121317e-02 4.443533e+00 -5.158610e-02 4.393680e+00 -2.894365e-02 4.398335e+00 -5.472541e-02 4.363859e+00 -3.450655e-02 4.385331e+00 -5.544117e-02 4.364175e+00 -3.838809e-02 4.402282e+00 -5.438946e-02 4.394774e+00 -4.177550e-02 4.453111e+00 -5.313613e-02 4.465316e+00 -4.070699e-02 4.561295e+00 -3.414277e-02 4.609858e+00 -6.494356e-03 4.754160e+00 5.265721e-02 4.881566e+00 9.099029e-02 5.003184e+00 1.140001e-01 5.136734e+00 1.300604e-01 5.292851e+00 1.443678e-01 5.479091e+00 1.598868e-01 