# vtk DataFile Version 2.0
Comment goes here
ASCII

DATASET STRUCTURED_POINTS
FIELD FieldData 1
TIME 1 1 double
0.16000000
DIMENSIONS    128   16   1

ORIGIN    0.000   0.000   0.000
SPACING   0.0078125 0.015625   1.000

POINT_DATA   2048
SCALARS fMag double
LOOKUP_TABLE default

0 0 0 0 0 0 0 0 0 0 0 0 0 0 0 0 0 0 0 0 0 0 0 0 0 0 0 0 0 0 0 0 0 0 0 0 0 0 0 0 0 0 0 0 0 0 0 0 0 0 0 0 0 0 0 0 0 0 0 0 0 0 0 0 0 0 0 0 0 0 0 0 0 0 0 0 0 0 0 0 0 0 0 0 0 0 0 0 0 0 0 0 0 0 0 0 0 0 0 0 0 0 0 0 0 0 0 0 0 0 0 0 0 0 0 0 0 0 0 0 0 0 0 0 0 0 0 0 
0 0 0 0 0 0 0 0 0 0 0 0 0 0 0 0 0 0 0 0 0 0 0 0 0 0 0 0 0 0 0 0 0 0 0 0 0 0 0 0 0 0 0 0 0 0 0 0 0 0 0 0 0 0 0 0 0 0 0 0 0 0 0 0 0 0 0 0 0 0 0 0 0 0 0 0 0 0 0 0 0 0 0 0 0 0 0 0 0 0 0 0 0 0 0 0 0 0 0 0 0 0 0 0 0 0 0 0 0 0 0 0 0 0 0 0 0 0 0 0 0 0 0 0 0 0 0 0 
0 0 0 0 0 1.761587e+00 3.146046e+00 1.623520e+00 2.727437e+00 2.177415e+00 3.255456e+00 2.480979e+00 3.491135e+00 4.895845e+00 7.014288e+00 9.139876e+00 1.300709e+01 1.726766e+01 2.133352e+01 2.475386e+01 3.094387e+01 3.109591e+01 3.103659e+01 3.242233e+01 3.263148e+01 3.219035e+01 2.988381e+01 2.821852e+01 2.719941e+01 2.794361e+01 2.883278e+01 2.989192e+01 3.012758e+01 3.001158e+01 2.933178e+01 2.839052e+01 2.727318e+01 2.628176e+01 2.564758e+01 2.538008e+01 2.579394e+01 2.617167e+01 2.616949e+01 2.537149e+01 2.471809e+01 2.453612e+01 2.550238e+01 2.665842e+01 2.696944e+01 2.564185e+01 2.374472e+01 2.203809e+01 2.123268e+01 2.097318e+01 2.111258e+01 2.133703e+01 2.157105e+01 2.141742e+01 2.186052e+01 2.234462e+01 2.182016e+01 2.078040e+01 2.114088e+01 2.166045e+01 2.225172e+01 2.374994e+01 2.195089e+01 2.124743e+01 2.021239e+01 1.753450e+01 1.479780e+01 1.559870e+01 1.710082e+01 1.706254e+01 1.601487e+01 1.463843e+01 1.344536e+01 1.326975e+01 1.365682e+01 1.426402e+01 1.455463e+01 1.420800e+01 1.332834e+01 1.236697e+01 1.216559e+01 1.235124e+01 1.301319e+01 1.316547e+01 1.301542e+01 1.188180e+01 1.109328e+01 1.014475e+01 9.812831e+00 9.368043e+00 9.409593e+00 9.093161e+00 9.010031e+00 8.742969e+00 8.540033e+00 8.013791e+00 7.205206e+00 6.729412e+00 6.894206e+00 8.016421e+00 8.448090e+00 8.621290e+00 7.336710e+00 6.057693e+00 4.006982e+00 3.500233e+00 3.177901e+00 4.387064e+00 5.205775e+00 6.245474e+00 5.626845e+00 4.731341e+00 3.051135e+00 2.057882e+00 1.797669e+00 1.974916e+00 2.419861e+00 2.034518e+00 3.008477e+00 3.302235e-01 0 0 0 0 
0 0 0 0 0 5.179371e+00 9.239853e+00 4.755650e+00 8.013648e+00 6.402150e+00 9.572701e+00 7.293610e+00 1.026416e+01 1.440090e+01 2.063517e+01 2.688820e+01 3.826456e+01 5.080101e+01 6.276415e+01 7.283006e+01 9.104852e+01 9.149600e+01 9.132142e+01 9.539993e+01 9.601536e+01 9.471684e+01 8.792740e+01 8.302587e+01 8.002637e+01 8.221666e+01 8.483369e+01 8.795112e+01 8.864475e+01 8.830333e+01 8.630254e+01 8.353213e+01 8.024366e+01 7.732569e+01 7.545928e+01 7.467196e+01 7.588994e+01 7.700163e+01 7.699521e+01 7.464659e+01 7.272362e+01 7.218809e+01 7.503176e+01 7.843408e+01 7.934947e+01 7.544230e+01 6.985908e+01 6.483668e+01 6.246653e+01 6.170291e+01 6.211314e+01 6.277365e+01 6.406193e+01 6.553525e+01 6.648809e+01 6.604671e+01 6.426439e+01 6.082929e+01 6.028559e+01 6.182593e+01 6.316604e+01 6.539455e+01 6.161781e+01 5.759842e+01 5.419416e+01 5.186720e+01 4.827887e+01 4.939666e+01 5.054148e+01 5.019554e+01 4.711294e+01 4.306298e+01 3.955277e+01 3.903611e+01 4.017493e+01 4.196150e+01 4.281655e+01 4.179662e+01 3.920855e+01 3.637997e+01 3.578743e+01 3.633362e+01 3.828112e+01 3.872912e+01 3.828764e+01 3.495244e+01 3.263257e+01 2.984208e+01 2.886564e+01 2.755722e+01 2.767957e+01 2.674879e+01 2.650430e+01 2.571873e+01 2.512174e+01 2.357369e+01 2.119487e+01 1.979520e+01 2.027993e+01 2.358098e+01 2.485074e+01 2.536021e+01 2.158112e+01 1.781867e+01 1.178644e+01 1.029589e+01 9.348081e+00 1.290542e+01 1.531402e+01 1.837317e+01 1.655395e+01 1.392003e+01 8.978572e+00 6.057174e+00 5.292346e+00 5.814713e+00 7.123973e+00 5.988884e+00 8.850082e+00 9.713603e-01 0 0 0 0 
0 0 0 0 0 3.576834e+00 6.376093e+00 3.275596e+00 5.531503e+00 4.421359e+00 6.611366e+00 5.036477e+00 7.088169e+00 4.853197e+01 6.705985e+01 5.407264e+01 6.313369e+01 6.374827e+01 6.906336e+01 8.063728e+01 8.303193e+01 6.321972e+01 6.309907e+01 6.591769e+01 6.634295e+01 6.544546e+01 6.075294e+01 5.736540e+01 5.529246e+01 5.680612e+01 5.861475e+01 6.076926e+01 6.124863e+01 6.101267e+01 5.962995e+01 5.771530e+01 5.544270e+01 5.342612e+01 5.213630e+01 5.159220e+01 5.243388e+01 5.320214e+01 5.319769e+01 5.157462e+01 5.024573e+01 4.987564e+01 5.184078e+01 5.419202e+01 5.482463e+01 5.212452e+01 4.826620e+01 4.479554e+01 4.315771e+01 4.263005e+01 4.291353e+01 4.336995e+01 4.452491e+01 4.594232e+01 4.627703e+01 4.445048e+01 4.182622e+01 3.999041e+01 3.748825e+01 3.821863e+01 3.975992e+01 3.789116e+01 3.759091e+01 3.340771e+01 3.026541e+01 3.489079e+01 3.598560e+01 3.594455e+01 3.499252e+01 3.467858e+01 3.254865e+01 2.975033e+01 2.732506e+01 2.696809e+01 2.775493e+01 2.898936e+01 2.958013e+01 2.887541e+01 2.708727e+01 2.513290e+01 2.472348e+01 2.510085e+01 2.644639e+01 2.675590e+01 2.645089e+01 2.414656e+01 2.254376e+01 2.061587e+01 1.994128e+01 1.903738e+01 1.912196e+01 1.847896e+01 1.831010e+01 1.776741e+01 1.735497e+01 1.628551e+01 1.464202e+01 1.367505e+01 1.400990e+01 1.629033e+01 1.716750e+01 1.751944e+01 1.490857e+01 1.230931e+01 8.142153e+00 7.112494e+00 6.457895e+00 8.915635e+00 1.057969e+01 1.269341e+01 1.143691e+01 9.617466e+00 6.204270e+00 4.186259e+00 3.658193e+00 4.019532e+00 4.924203e+00 4.139295e+00 6.114049e+00 6.710304e-01 0 0 0 0 
0 0 0 0 0 1.590503e-01 2.822861e-01 1.434661e-01 2.452920e-01 1.966247e-01 2.941209e-01 2.238455e-01 3.151416e-01 5.358182e+01 5.835523e+01 5.502091e+01 5.650121e+01 5.658625e+01 5.480374e+01 5.841090e+01 5.409592e+01 2.819628e+00 2.814243e+00 2.940095e+00 2.959067e+00 2.918970e+00 2.709346e+00 2.558060e+00 2.465498e+00 2.533077e+00 2.613837e+00 2.710056e+00 2.731463e+00 2.720928e+00 2.659188e+00 2.573688e+00 2.472226e+00 2.382186e+00 2.324605e+00 2.300313e+00 2.337880e+00 2.372178e+00 2.371978e+00 2.299517e+00 2.240196e+00 2.223674e+00 2.311392e+00 2.416358e+00 2.444604e+00 2.324068e+00 2.151842e+00 1.996948e+00 1.923857e+00 1.900316e+00 1.912967e+00 1.933334e+00 1.822788e+00 5.326439e-01 3.450713e-01 3.162411e-01 2.549739e+00 1.355611e+00 3.069095e+00 3.667729e+00 2.049058e+00 5.130902e+00 3.154828e+00 3.611105e+00 5.022278e+00 9.156757e-01 1.598058e+00 1.355807e+00 1.467021e+00 1.545580e+00 1.450587e+00 1.325788e+00 1.217651e+00 1.201736e+00 1.236819e+00 1.291873e+00 1.318214e+00 1.286785e+00 1.207059e+00 1.119908e+00 1.101649e+00 1.118473e+00 1.178458e+00 1.192254e+00 1.178656e+00 1.075921e+00 1.004468e+00 9.185377e-01 8.884742e-01 8.481993e-01 8.519822e-01 8.233390e-01 8.158222e-01 7.916458e-01 7.732658e-01 7.256117e-01 6.523529e-01 6.092618e-01 6.241778e-01 7.257716e-01 7.648473e-01 7.805255e-01 6.641579e-01 5.483404e-01 3.626974e-01 3.168358e-01 2.877157e-01 3.972740e-01 4.714472e-01 5.657138e-01 5.097998e-01 4.287744e-01 2.768326e-01 1.869674e-01 1.635160e-01 1.797352e-01 2.200917e-01 1.849288e-01 2.724432e-01 2.989347e-02 0 0 0 0 
0 0 0 0 0 0 0 0 0 0 0 0 0 5.861903e+01 6.375883e+01 6.000063e+01 6.144237e+01 6.188906e+01 5.940460e+01 6.397159e+01 5.853064e+01 0 0 0 0 0 0 0 0 0 0 0 0 0 0 0 0 0 0 0 0 0 0 0 0 0 0 0 0 0 0 0 0 0 0 0 2.053225e-01 1.212199e+00 1.213743e+00 9.760610e-01 1.798606e+00 1.183126e+00 1.417148e+00 1.687298e+00 9.272946e-01 1.544918e+00 1.142778e+00 8.085955e-01 1.125216e+00 5.338272e-01 3.078660e-01 1.674313e-01 2.497494e-02 0 0 0 0 0 0 0 0 0 0 0 0 0 0 0 0 0 0 0 0 0 0 0 0 0 0 0 0 0 0 0 0 0 0 0 0 0 0 0 0 0 0 0 0 0 0 0 0 0 0 0 0 0 0 0 
0 0 0 0 0 0 0 0 0 0 0 0 0 5.768486e+01 5.960935e+01 5.797617e+01 5.865704e+01 5.869750e+01 5.793693e+01 5.962789e+01 5.774602e+01 0 0 0 0 0 0 0 0 0 0 0 0 0 0 0 0 0 0 0 0 0 0 0 0 0 0 0 0 0 0 0 0 0 0 0 3.576106e-02 4.504309e-01 5.793451e-01 3.163114e-01 5.034007e-01 3.951943e-01 5.244670e-01 7.507215e-01 4.224751e-01 6.799919e-01 6.016578e-01 4.050064e-01 6.222375e-01 2.829635e-01 2.946458e-02 2.004170e-02 1.154633e-03 0 0 0 0 0 0 0 0 0 0 0 0 0 0 0 0 0 0 0 0 0 0 0 0 0 0 0 0 0 0 0 0 0 0 0 0 0 0 0 0 0 0 0 0 0 0 0 0 0 0 0 0 0 0 0 
0 0 0 0 0 0 0 0 0 0 0 0 0 6.119747e+01 6.378752e+01 6.174249e+01 6.251141e+01 6.280036e+01 6.137528e+01 6.394606e+01 6.084260e+01 0 0 0 0 0 0 0 0 0 0 0 0 0 0 0 0 0 0 0 0 0 0 0 0 0 0 0 0 0 0 0 0 0 0 0 5.781637e-02 7.522877e-01 9.724317e-01 5.247499e-01 8.400967e-01 6.613723e-01 7.128019e-01 1.011281e+00 5.652852e-01 8.759707e-01 7.724914e-01 5.542502e-01 8.389767e-01 4.529744e-01 4.384370e-01 4.438412e-01 7.840335e-02 0 0 0 0 0 0 0 0 0 0 0 0 0 0 0 0 0 0 0 0 0 0 0 0 0 0 0 0 0 0 0 0 0 0 0 0 0 0 0 0 0 0 0 0 0 0 0 0 0 0 0 0 0 0 0 
0 0 0 0 0 0 0 0 0 0 0 0 0 5.765450e+01 5.964167e+01 5.790643e+01 5.866350e+01 5.855940e+01 5.788881e+01 5.937593e+01 5.755541e+01 0 0 0 0 0 0 0 0 0 0 0 0 0 0 0 0 0 0 0 0 0 0 0 0 0 0 0 0 0 0 0 0 0 0 0 2.461123e-02 2.741685e-01 3.408990e-01 1.776251e-01 2.649453e-01 1.980506e-01 1.927140e-01 2.570431e-01 1.880868e-01 4.279406e-01 3.658683e-01 4.139296e-01 6.633576e-01 2.712377e-01 1.717430e-01 1.926874e-01 4.148580e-02 0 0 0 0 0 0 0 0 0 0 0 0 0 0 0 0 0 0 0 0 0 0 0 0 0 0 0 0 0 0 0 0 0 0 0 0 0 0 0 0 0 0 0 0 0 0 0 0 0 0 0 0 0 0 0 
0 0 0 0 0 0 0 0 0 0 0 0 0 5.867204e+01 6.386788e+01 6.000177e+01 6.155713e+01 6.190206e+01 5.949160e+01 6.365636e+01 5.815499e+01 0 0 0 0 0 0 0 0 0 0 0 0 0 0 0 0 0 0 0 0 0 0 0 0 0 0 0 0 0 0 0 0 0 0 0 1.062477e-01 1.143353e+00 1.406501e+00 9.571793e-01 1.822871e+00 1.373185e+00 1.385387e+00 1.851189e+00 1.082120e+00 1.821420e+00 1.509048e+00 1.327904e+00 1.890885e+00 8.870422e-01 8.704762e-01 8.449026e-01 1.328294e-01 0 0 0 0 0 0 0 0 0 0 0 0 0 0 0 0 0 0 0 0 0 0 0 0 0 0 0 0 0 0 0 0 0 0 0 0 0 0 0 0 0 0 0 0 0 0 0 0 0 0 0 0 0 0 0 
0 0 0 0 0 1.589970e-01 2.851535e-01 1.445505e-01 2.329050e-01 1.744200e-01 2.787764e-01 2.240268e-01 3.467454e-01 5.364551e+01 5.856757e+01 5.493049e+01 5.664240e+01 5.636102e+01 5.494511e+01 5.772591e+01 5.349171e+01 2.929653e+00 2.818973e+00 2.740845e+00 2.621351e+00 2.648600e+00 2.680139e+00 2.766191e+00 2.770118e+00 2.794363e+00 2.775940e+00 2.783410e+00 2.728586e+00 2.620042e+00 2.442009e+00 2.288870e+00 2.211452e+00 2.229889e+00 2.331178e+00 2.451432e+00 2.541519e+00 2.539070e+00 2.497357e+00 2.408531e+00 2.316551e+00 2.192245e+00 2.092701e+00 2.017702e+00 2.020394e+00 2.060824e+00 2.121966e+00 2.144692e+00 2.156116e+00 2.142110e+00 2.095938e+00 1.998753e+00 1.978973e+00 2.780432e+00 2.947877e+00 2.623161e+00 3.621374e+00 3.248924e+00 3.429402e+00 4.013670e+00 3.215053e+00 4.269537e+00 3.726145e+00 3.581291e+00 4.347882e+00 2.510581e+00 1.836954e+00 2.064575e+00 1.779833e+00 1.735042e+00 1.695571e+00 1.603703e+00 1.482720e+00 1.391232e+00 1.327152e+00 1.276504e+00 1.212052e+00 1.143927e+00 1.117590e+00 1.139493e+00 1.213689e+00 1.256279e+00 1.259569e+00 1.160255e+00 1.063826e+00 9.714692e-01 9.588515e-01 9.294859e-01 9.128001e-01 8.425355e-01 8.360463e-01 8.848692e-01 1.006639e+00 1.063166e+00 1.018528e+00 8.768273e-01 7.213135e-01 6.297322e-01 5.720403e-01 5.800334e-01 5.768446e-01 6.542926e-01 6.733911e-01 7.020217e-01 5.980997e-01 5.397107e-01 4.118087e-01 3.530531e-01 2.257489e-01 2.008084e-01 1.695382e-01 2.570932e-01 3.285494e-01 4.048149e-01 4.134073e-01 3.494691e-01 2.834302e-01 1.963946e-01 2.813678e-01 3.172521e-02 0 0 0 0 
0 0 0 0 0 3.575619e+00 6.440203e+00 3.299813e+00 5.253197e+00 3.922701e+00 6.266493e+00 5.039927e+00 7.797467e+00 4.882292e+01 6.691599e+01 5.386304e+01 6.346915e+01 6.501843e+01 6.971779e+01 8.084238e+01 8.055500e+01 6.568306e+01 6.320565e+01 6.145619e+01 5.878144e+01 5.939244e+01 6.009898e+01 6.202623e+01 6.211435e+01 6.265724e+01 6.224470e+01 6.241184e+01 6.118408e+01 5.875342e+01 5.476567e+01 5.133573e+01 4.960130e+01 5.001428e+01 5.228355e+01 5.497699e+01 5.699493e+01 5.694023e+01 5.600598e+01 5.401659e+01 5.195625e+01 4.917153e+01 4.694127e+01 4.526072e+01 4.532108e+01 4.622699e+01 4.759689e+01 4.810607e+01 4.836199e+01 4.804817e+01 4.701364e+01 4.483575e+01 4.245562e+01 4.013384e+01 3.830306e+01 3.799545e+01 3.897789e+01 4.060049e+01 4.172189e+01 4.224715e+01 4.182675e+01 4.062702e+01 3.749284e+01 3.415618e+01 3.100101e+01 2.961581e+01 3.048358e+01 3.410430e+01 3.736147e+01 3.892565e+01 3.804073e+01 3.598139e+01 3.326878e+01 3.121760e+01 2.978061e+01 2.864487e+01 2.719935e+01 2.567165e+01 2.508095e+01 2.557216e+01 2.723644e+01 2.819164e+01 2.826544e+01 2.603820e+01 2.387535e+01 2.180357e+01 2.152046e+01 2.086152e+01 2.048699e+01 1.891018e+01 1.876445e+01 1.985962e+01 2.259058e+01 2.385869e+01 2.285745e+01 1.967793e+01 1.618947e+01 1.413446e+01 1.284018e+01 1.301996e+01 1.294867e+01 1.468709e+01 1.511583e+01 1.575813e+01 1.342574e+01 1.211495e+01 9.243152e+00 7.923442e+00 5.063763e+00 4.502779e+00 3.799022e+00 5.762620e+00 7.366260e+00 9.076501e+00 9.268233e+00 7.830672e+00 6.345155e+00 4.396816e+00 6.314571e+00 7.121659e-01 0 0 0 0 
0 0 0 0 0 5.177607e+00 9.332591e+00 4.790673e+00 7.610718e+00 5.680253e+00 9.073366e+00 7.298446e+00 1.129089e+01 1.500478e+01 2.053950e+01 2.705953e+01 3.847967e+01 5.057585e+01 6.248527e+01 7.373331e+01 9.393897e+01 9.506022e+01 9.147580e+01 8.894444e+01 8.507448e+01 8.595878e+01 8.698117e+01 8.976988e+01 8.989744e+01 9.068296e+01 9.008604e+01 9.032784e+01 8.855133e+01 8.503427e+01 7.926394e+01 7.430081e+01 7.179098e+01 7.238856e+01 7.567236e+01 7.956978e+01 8.248979e+01 8.241068e+01 8.105883e+01 7.818021e+01 7.519882e+01 7.116921e+01 6.794182e+01 6.550988e+01 6.559722e+01 6.690818e+01 6.889055e+01 6.962737e+01 6.999771e+01 6.954358e+01 6.804650e+01 6.489481e+01 6.146368e+01 5.817959e+01 5.553363e+01 5.496201e+01 5.623632e+01 5.861333e+01 6.011565e+01 6.076683e+01 6.015574e+01 5.785532e+01 5.347462e+01 4.835188e+01 4.329004e+01 4.242946e+01 4.470893e+01 4.983739e+01 5.412074e+01 5.634196e+01 5.506127e+01 5.208096e+01 4.815507e+01 4.518649e+01 4.310672e+01 4.146296e+01 3.937080e+01 3.715973e+01 3.630478e+01 3.701573e+01 3.942457e+01 4.080708e+01 4.091389e+01 3.769035e+01 3.455992e+01 3.156123e+01 3.115145e+01 3.019766e+01 2.965550e+01 2.737308e+01 2.716210e+01 2.874725e+01 3.269986e+01 3.453534e+01 3.308618e+01 2.848393e+01 2.343477e+01 2.046021e+01 1.858685e+01 1.884717e+01 1.874406e+01 2.126050e+01 2.188114e+01 2.281082e+01 1.943463e+01 1.753715e+01 1.337985e+01 1.146927e+01 7.329186e+00 6.516836e+00 5.497640e+00 8.339624e+00 1.066091e+01 1.313615e+01 1.341341e+01 1.133186e+01 9.180683e+00 6.361698e+00 9.140399e+00 1.030911e+00 0 0 0 0 
0 0 0 0 0 1.760985e+00 3.177541e+00 1.635410e+00 2.590426e+00 1.931972e+00 3.085650e+00 2.482546e+00 3.840165e+00 5.101249e+00 6.981766e+00 9.198097e+00 1.308020e+01 1.719115e+01 2.123876e+01 2.506073e+01 3.192581e+01 3.230682e+01 3.108913e+01 3.022909e+01 2.891439e+01 2.921494e+01 2.956233e+01 3.050984e+01 3.055320e+01 3.082009e+01 3.061728e+01 3.069942e+01 3.009583e+01 2.890089e+01 2.694027e+01 2.525394e+01 2.440112e+01 2.460417e+01 2.571999e+01 2.704422e+01 2.803638e+01 2.800952e+01 2.755021e+01 2.657215e+01 2.555913e+01 2.418992e+01 2.309325e+01 2.226686e+01 2.229654e+01 2.274201e+01 2.341562e+01 2.366600e+01 2.379183e+01 2.363752e+01 2.312881e+01 2.205781e+01 2.089234e+01 1.978030e+01 1.888196e+01 1.868529e+01 1.912004e+01 1.992654e+01 2.043622e+01 2.065816e+01 2.044791e+01 1.966410e+01 1.817558e+01 1.643205e+01 1.470990e+01 1.442284e+01 1.520491e+01 1.694674e+01 1.839714e+01 1.915135e+01 1.871611e+01 1.770327e+01 1.636902e+01 1.536012e+01 1.465326e+01 1.409460e+01 1.338350e+01 1.263201e+01 1.234142e+01 1.258306e+01 1.340182e+01 1.387172e+01 1.390802e+01 1.281240e+01 1.174839e+01 1.072913e+01 1.058984e+01 1.026562e+01 1.008131e+01 9.305435e+00 9.233703e+00 9.772492e+00 1.111592e+01 1.173981e+01 1.124725e+01 9.682830e+00 7.966616e+00 6.955477e+00 6.318703e+00 6.407245e+00 6.372227e+00 7.227707e+00 7.438702e+00 7.754711e+00 6.606990e+00 5.961907e+00 4.548502e+00 3.898886e+00 2.491172e+00 2.214866e+00 1.868156e+00 2.834097e+00 3.623194e+00 4.464468e+00 4.558582e+00 3.850653e+00 3.118957e+00 2.161277e+00 3.107196e+00 3.504706e-01 0 0 0 0 
0 0 0 0 0 0 0 0 0 0 0 0 0 0 0 0 0 0 0 0 0 0 0 0 0 0 0 0 0 0 0 0 0 0 0 0 0 0 0 0 0 0 0 0 0 0 0 0 0 0 0 0 0 0 0 0 0 0 0 0 0 0 0 0 0 0 0 0 0 0 0 0 0 0 0 0 0 0 0 0 0 0 0 0 0 0 0 0 0 0 0 0 0 0 0 0 0 0 0 0 0 0 0 0 0 0 0 0 0 0 0 0 0 0 0 0 0 0 0 0 0 0 0 0 0 0 0 0 
