# vtk DataFile Version 2.0
Comment goes here
ASCII

DATASET STRUCTURED_POINTS
FIELD FieldData 1
TIME 1 1 double
0.22000000
DIMENSIONS    128   16   1

ORIGIN    0.000   0.000   0.000
SPACING   0.0078125 0.015625   1.000

POINT_DATA   2048
SCALARS fX double
LOOKUP_TABLE default

0 0 0 0 0 0 0 0 0 0 0 0 0 0 0 0 0 0 0 0 0 0 0 0 0 0 0 0 0 0 0 0 0 0 0 0 0 0 0 0 0 0 0 0 0 0 0 0 0 0 0 0 0 0 0 0 0 0 0 0 0 0 0 0 0 0 0 0 0 0 0 0 0 0 0 0 0 0 0 0 0 0 0 0 0 0 0 0 0 0 0 0 0 0 0 0 0 0 0 0 0 0 0 0 0 0 0 0 0 0 0 0 0 0 0 0 0 0 0 0 0 0 0 0 0 0 0 0 
0 0 0 0 0 0 0 0 0 0 0 0 0 0 0 0 0 0 0 0 0 0 0 0 0 0 0 0 0 0 0 0 0 0 0 0 0 0 0 0 0 0 0 0 0 0 0 0 0 0 0 0 0 0 0 0 0 0 0 0 0 0 0 0 0 0 0 0 0 0 0 0 0 0 0 0 0 0 0 0 0 0 0 0 0 0 0 0 0 0 0 0 0 0 0 0 0 0 0 0 0 0 0 0 0 0 0 0 0 0 0 0 0 0 0 0 0 0 0 0 0 0 0 0 0 0 0 0 
0 0 0 0 0 -1.737830e+00 -1.325840e+00 3.810554e-01 -4.926603e-01 -1.848115e-01 -3.961243e-01 -1.861946e-01 2.289662e-01 2.299173e+00 3.111139e+00 2.307162e+00 2.221511e+00 2.626798e+00 2.013431e+00 2.934593e+00 2.831812e+00 -1.203349e-01 -2.834997e-01 -4.587157e-01 -3.447152e-01 -3.595618e-01 -1.257852e-01 -1.854227e-01 -2.640373e-01 -5.177678e-01 -4.507808e-01 -3.373154e-01 -1.428970e-01 -1.145126e-01 -7.528653e-02 -1.141311e-01 -1.010283e-01 -7.891126e-02 -6.633183e-02 -1.058376e-01 -1.476190e-01 -1.479244e-01 -2.083051e-01 -2.886341e-01 -3.631706e-01 -3.069985e-01 -3.223611e-01 -3.187989e-01 -3.987985e-01 -4.524798e-01 -6.043400e-01 -5.516961e-01 -4.689981e-01 -3.252451e-01 -3.384826e-01 -6.675710e-01 -1.678722e+00 -1.132378e+00 8.102963e-01 6.547321e-01 -7.527047e-02 7.284779e-01 5.390164e-01 -1.917520e-01 1.084224e+00 4.279439e-01 -5.205821e-02 1.623902e+00 -2.184941e+00 -5.832416e+00 -1.352744e+00 3.272768e+00 1.873372e+00 -2.547988e-01 -3.572352e-01 -4.449296e-01 -4.939314e-01 -4.675185e-01 -5.063591e-01 -6.384870e-01 -6.854684e-01 -6.730633e-01 -6.816882e-01 -6.188430e-01 -6.541985e-01 -7.388534e-01 -7.984434e-01 -8.142921e-01 -7.168784e-01 -5.080928e-01 -4.854957e-01 -5.508135e-01 -6.508702e-01 -6.734664e-01 -5.946776e-01 -5.492812e-01 -6.503545e-01 -6.791505e-01 -6.757612e-01 -6.384468e-01 -6.111390e-01 -7.266365e-01 -7.479899e-01 -7.242243e-01 -5.428517e-01 -4.961292e-01 -3.840649e-01 -4.677996e-01 -3.725550e-01 -4.529290e-01 -3.082551e-01 -4.147656e-01 -3.707751e-01 -6.219100e-01 -5.325302e-01 -5.992749e-01 -3.718808e-01 -4.661123e-01 -4.000829e-01 -6.054168e-01 -3.944051e-01 -6.930612e-01 -1.654351e+00 -2.143407e-01 0 0 0 0 
0 0 0 0 0 -5.112940e+00 -3.914176e+00 1.099548e+00 -1.458797e+00 -5.454627e-01 -1.165651e+00 -5.479882e-01 6.729667e-01 6.761749e+00 9.150019e+00 6.785064e+00 6.532995e+00 7.724597e+00 5.920819e+00 8.629958e+00 8.328208e+00 -3.532812e-01 -8.331820e-01 -1.348601e+00 -1.013490e+00 -1.057234e+00 -3.698454e-01 -5.452680e-01 -7.764735e-01 -1.522652e+00 -1.325661e+00 -9.919696e-01 -4.202051e-01 -3.367023e-01 -2.213301e-01 -3.355324e-01 -2.969848e-01 -2.319463e-01 -1.949315e-01 -3.111198e-01 -4.339997e-01 -4.348979e-01 -6.124843e-01 -8.487393e-01 -1.067949e+00 -9.027984e-01 -9.479949e-01 -9.375343e-01 -1.172815e+00 -1.330680e+00 -1.777273e+00 -1.622452e+00 -1.379249e+00 -9.564998e-01 -9.954330e-01 -1.963258e+00 -4.972188e+00 -3.472508e+00 2.264349e+00 1.943096e+00 -1.767093e-01 2.085479e+00 1.169838e+00 -9.761602e-01 2.359840e+00 -3.774364e-01 -1.358868e+00 2.183368e+00 -9.329543e+00 -1.860327e+01 -6.466785e+00 7.853343e+00 5.416370e+00 -7.494075e-01 -1.050642e+00 -1.308529e+00 -1.452640e+00 -1.374968e+00 -1.489214e+00 -1.877821e+00 -2.016008e+00 -1.979533e+00 -2.004892e+00 -1.820051e+00 -1.924009e+00 -2.172966e+00 -2.348204e+00 -2.394824e+00 -2.108340e+00 -1.494303e+00 -1.427862e+00 -1.619976e+00 -1.914241e+00 -1.980687e+00 -1.748936e+00 -1.615404e+00 -1.912658e+00 -1.997358e+00 -1.987426e+00 -1.877693e+00 -1.797399e+00 -2.137106e+00 -2.199933e+00 -2.130037e+00 -1.596606e+00 -1.459176e+00 -1.129543e+00 -1.375758e+00 -1.095544e+00 -1.331811e+00 -9.061795e-01 -1.219280e+00 -1.089753e+00 -1.828222e+00 -1.565194e+00 -1.761437e+00 -1.092539e+00 -1.369772e+00 -1.175779e+00 -1.780346e+00 -1.160613e+00 -2.038289e+00 -4.865004e+00 -6.302858e-01 0 0 0 0 
0 0 0 0 0 -3.532615e+00 -2.710844e+00 7.492458e-01 -1.012423e+00 -3.777032e-01 -8.054637e-01 -3.787002e-01 4.646324e-01 2.367646e+01 3.621696e+01 2.610863e+01 2.487611e+01 2.898060e+01 2.190489e+01 3.376594e+01 2.782128e+01 -2.437193e-01 -5.752165e-01 -9.312837e-01 -6.998932e-01 -7.301465e-01 -2.554198e-01 -3.766030e-01 -5.363033e-01 -1.051690e+00 -9.156308e-01 -6.851455e-01 -2.902210e-01 -2.325315e-01 -1.528366e-01 -2.317003e-01 -2.050683e-01 -1.601482e-01 -1.345719e-01 -2.148275e-01 -2.997045e-01 -3.003249e-01 -4.229921e-01 -5.861839e-01 -7.375971e-01 -6.235480e-01 -6.547737e-01 -6.475560e-01 -8.100722e-01 -9.191080e-01 -1.227569e+00 -1.120632e+00 -9.526509e-01 -6.606594e-01 -6.875527e-01 -1.356045e+00 -3.444674e+00 -2.449928e+00 1.518395e+00 1.441875e+00 4.676283e-02 1.499424e+00 7.477654e-01 -7.453722e-01 1.273142e+00 -1.004299e+00 -1.511570e+00 1.731774e-01 -7.939471e+00 -1.366774e+01 -5.966727e+00 4.356128e+00 3.684959e+00 -5.176587e-01 -7.257155e-01 -9.038346e-01 -1.003374e+00 -9.497282e-01 -1.028649e+00 -1.297079e+00 -1.392536e+00 -1.367347e+00 -1.384860e+00 -1.257178e+00 -1.328974e+00 -1.500929e+00 -1.621963e+00 -1.654170e+00 -1.456291e+00 -1.032159e+00 -9.862745e-01 -1.118980e+00 -1.322237e+00 -1.368128e+00 -1.208035e+00 -1.115791e+00 -1.321111e+00 -1.379621e+00 -1.372778e+00 -1.296987e+00 -1.241533e+00 -1.476193e+00 -1.519603e+00 -1.471323e+00 -1.102860e+00 -1.007924e+00 -7.802111e-01 -9.502560e-01 -7.566560e-01 -9.197977e-01 -6.257309e-01 -8.419271e-01 -7.523863e-01 -1.262411e+00 -1.080650e+00 -1.216176e+00 -7.540845e-01 -9.456246e-01 -8.117247e-01 -1.229647e+00 -8.019920e-01 -1.407903e+00 -3.360183e+00 -4.353127e-01 0 0 0 0 
0 0 0 0 0 -1.575050e-01 -1.225091e-01 3.075354e-02 -4.628594e-02 -1.705198e-02 -3.593668e-02 -1.690654e-02 2.063192e-02 2.611394e+01 2.840884e+01 2.664164e+01 2.691203e+01 2.746469e+01 2.614071e+01 2.818789e+01 2.649843e+01 -1.077291e-02 -2.553420e-02 -4.139854e-02 -3.111806e-02 -3.247462e-02 -1.135958e-02 -1.675777e-02 -2.386712e-02 -4.680529e-02 -4.075053e-02 -3.049129e-02 -1.291297e-02 -1.034182e-02 -6.793027e-03 -1.029894e-02 -9.111838e-03 -7.113097e-03 -5.972217e-03 -9.545186e-03 -1.332375e-02 -1.335136e-02 -1.881294e-02 -2.607864e-02 -3.281879e-02 -2.774804e-02 -2.913996e-02 -2.882059e-02 -3.605558e-02 -4.090801e-02 -5.463630e-02 -4.987637e-02 -4.239989e-02 -2.940480e-02 -3.060225e-02 -6.035848e-02 -1.651498e-01 -1.804749e-01 -1.990853e-03 9.250460e-02 3.584991e-02 6.865787e-02 7.167159e-03 -8.712410e-02 -7.637988e-02 -3.297602e-01 -2.966792e-01 -4.597467e-01 -8.972323e-01 -9.389454e-01 -8.744097e-01 -2.393921e-01 1.413611e-01 -2.304997e-02 -3.230826e-02 -4.023483e-02 -4.466552e-02 -4.227845e-02 -4.579374e-02 -5.774565e-02 -6.199689e-02 -6.087663e-02 -6.165544e-02 -5.596976e-02 -5.916314e-02 -6.681649e-02 -7.220250e-02 -7.363739e-02 -6.482953e-02 -4.594876e-02 -4.390821e-02 -4.981761e-02 -5.886573e-02 -6.090752e-02 -5.377662e-02 -4.966761e-02 -5.880745e-02 -6.141346e-02 -6.111334e-02 -5.774041e-02 -5.527393e-02 -6.572387e-02 -6.765959e-02 -6.551024e-02 -4.910560e-02 -4.487698e-02 -3.473348e-02 -4.229742e-02 -3.366672e-02 -4.091539e-02 -2.780650e-02 -3.741280e-02 -3.340819e-02 -5.609829e-02 -4.798686e-02 -5.401355e-02 -3.342640e-02 -4.196524e-02 -3.602895e-02 -5.471734e-02 -3.578431e-02 -6.267500e-02 -1.495304e-01 -1.936766e-02 0 0 0 0 
0 0 0 0 0 0 0 0 0 0 0 0 0 2.861411e+01 3.141429e+01 2.931330e+01 2.970767e+01 3.031236e+01 2.873572e+01 3.124626e+01 2.892320e+01 0 0 0 0 0 0 0 0 0 0 0 0 0 0 0 0 0 0 0 0 0 0 0 0 0 0 0 0 0 0 0 0 0 0 0 -1.886660e-02 -1.007260e-01 -9.699286e-02 -1.050646e-01 -2.014200e-01 -1.357437e-01 -2.110474e-01 -2.448710e-01 -1.504534e-01 -2.708980e-01 -1.949610e-01 -1.891042e-01 -2.565354e-01 -8.685672e-02 -5.524555e-03 -2.015443e-03 5.213813e-04 0 0 0 0 0 0 0 0 0 0 0 0 0 0 0 0 0 0 0 0 0 0 0 0 0 0 0 0 0 0 0 0 0 0 0 0 0 0 0 0 0 0 0 0 0 0 0 0 0 0 0 0 0 0 0 
0 0 0 0 0 0 0 0 0 0 0 0 0 2.772254e+01 2.865886e+01 2.788428e+01 2.816135e+01 2.821786e+01 2.783811e+01 2.860329e+01 2.780562e+01 0 0 0 0 0 0 0 0 0 0 0 0 0 0 0 0 0 0 0 0 0 0 0 0 0 0 0 0 0 0 0 0 0 0 0 -6.735222e-03 -4.197522e-02 -4.318262e-02 -5.681668e-02 -1.141755e-01 -7.938199e-02 -1.261991e-01 -1.486284e-01 -9.400447e-02 -1.701714e-01 -1.253193e-01 -1.349233e-01 -1.801492e-01 -5.338567e-02 1.651382e-02 1.316998e-02 1.138930e-03 0 0 0 0 0 0 0 0 0 0 0 0 0 0 0 0 0 0 0 0 0 0 0 0 0 0 0 0 0 0 0 0 0 0 0 0 0 0 0 0 0 0 0 0 0 0 0 0 0 0 0 0 0 0 0 
0 0 0 0 0 0 0 0 0 0 0 0 0 2.971066e+01 3.106530e+01 3.002500e+01 3.034104e+01 3.055830e+01 2.979837e+01 3.108235e+01 2.966236e+01 0 0 0 0 0 0 0 0 0 0 0 0 0 0 0 0 0 0 0 0 0 0 0 0 0 0 0 0 0 0 0 0 0 0 0 -2.150787e-03 -1.406678e-02 -1.472788e-02 -1.470801e-02 -2.874488e-02 -1.974745e-02 -2.704713e-02 -3.238860e-02 -1.875501e-02 -3.212127e-02 -2.351896e-02 -1.680913e-02 -2.239201e-02 -7.768326e-03 -1.054082e-03 -8.639811e-04 -8.281954e-05 0 0 0 0 0 0 0 0 0 0 0 0 0 0 0 0 0 0 0 0 0 0 0 0 0 0 0 0 0 0 0 0 0 0 0 0 0 0 0 0 0 0 0 0 0 0 0 0 0 0 0 0 0 0 0 
0 0 0 0 0 0 0 0 0 0 0 0 0 2.769412e+01 2.862989e+01 2.785937e+01 2.813168e+01 2.818301e+01 2.779316e+01 2.854144e+01 2.774140e+01 0 0 0 0 0 0 0 0 0 0 0 0 0 0 0 0 0 0 0 0 0 0 0 0 0 0 0 0 0 0 0 0 0 0 0 -1.780022e-03 -1.091419e-02 -1.114226e-02 -1.467742e-02 -2.921180e-02 -2.006188e-02 -3.037661e-02 -3.526549e-02 -2.491182e-02 -4.741998e-02 -3.436061e-02 -3.341309e-02 -4.291391e-02 -1.548827e-02 -9.397753e-03 -7.511651e-03 -6.571953e-04 0 0 0 0 0 0 0 0 0 0 0 0 0 0 0 0 0 0 0 0 0 0 0 0 0 0 0 0 0 0 0 0 0 0 0 0 0 0 0 0 0 0 0 0 0 0 0 0 0 0 0 0 0 0 0 
0 0 0 0 0 0 0 0 0 0 0 0 0 2.858103e+01 3.135901e+01 2.928487e+01 2.967092e+01 3.026393e+01 2.865745e+01 3.116278e+01 2.878036e+01 0 0 0 0 0 0 0 0 0 0 0 0 0 0 0 0 0 0 0 0 0 0 0 0 0 0 0 0 0 0 0 0 0 0 0 -3.077240e-04 -2.895064e-03 -3.348652e-03 -7.846056e-03 -1.807388e-02 -1.319328e-02 -2.237664e-02 -2.724756e-02 -2.122044e-02 -4.406180e-02 -3.349517e-02 -4.220654e-02 -5.730309e-02 -2.024169e-02 -6.737621e-03 -5.796092e-03 -6.248669e-04 0 0 0 0 0 0 0 0 0 0 0 0 0 0 0 0 0 0 0 0 0 0 0 0 0 0 0 0 0 0 0 0 0 0 0 0 0 0 0 0 0 0 0 0 0 0 0 0 0 0 0 0 0 0 0 
0 0 0 0 0 -1.568252e-01 -1.177885e-01 3.666525e-02 -4.752866e-02 -2.501320e-02 -4.804661e-02 -3.381908e-02 -1.183656e-03 2.597796e+01 2.832471e+01 2.662108e+01 2.688076e+01 2.742680e+01 2.601883e+01 2.810864e+01 2.630898e+01 -3.645078e-02 -4.020782e-02 -4.674396e-02 -2.822773e-02 -3.220514e-02 -2.797316e-02 -4.212720e-02 -2.869941e-02 -2.068764e-02 -1.182936e-02 -2.682752e-02 -3.097294e-02 -3.184510e-02 -2.243966e-02 -1.889168e-02 -1.323491e-02 -1.456137e-02 -2.316152e-02 -3.126614e-02 -3.183121e-02 -2.735273e-02 -2.750160e-02 -2.333518e-02 -2.386655e-02 -2.643939e-02 -3.930018e-02 -4.173030e-02 -4.502495e-02 -4.186847e-02 -4.561603e-02 -4.411885e-02 -5.729112e-02 -6.921018e-02 -7.498694e-02 -7.272102e-02 -9.493648e-02 -7.113920e-02 -5.377362e-02 -8.951921e-02 -2.444855e-02 -2.301896e-02 -4.008585e-02 4.992495e-02 -1.208319e-02 1.983938e-02 5.691673e-02 -4.330370e-05 9.993291e-02 1.047502e-01 1.383560e-02 -1.340702e-02 -3.153715e-02 -4.717273e-02 -5.038370e-02 -5.707758e-02 -6.117942e-02 -6.504120e-02 -6.669997e-02 -6.189943e-02 -5.437921e-02 -5.216812e-02 -5.320696e-02 -5.073581e-02 -5.446905e-02 -5.561122e-02 -5.432256e-02 -5.019122e-02 -4.850996e-02 -4.940981e-02 -5.493653e-02 -5.393427e-02 -4.998642e-02 -4.470856e-02 -4.318246e-02 -4.451889e-02 -4.770313e-02 -4.613100e-02 -4.115725e-02 -3.973446e-02 -4.035308e-02 -4.616137e-02 -5.168090e-02 -6.213392e-02 -5.522718e-02 -5.575603e-02 -4.358262e-02 -4.732552e-02 -4.068772e-02 -5.356398e-02 -4.657981e-02 -5.629087e-02 -3.857562e-02 -4.195715e-02 -2.568280e-02 -3.514681e-02 -2.209057e-02 -3.118842e-02 -1.851639e-02 -2.926396e-02 -4.454323e-03 -3.603796e-02 -1.386968e-01 -1.856326e-02 0 0 0 0 
0 0 0 0 0 -3.517349e+00 -2.604855e+00 8.819708e-01 -1.040327e+00 -5.564593e-01 -1.077395e+00 -7.584635e-01 -2.518047e-02 2.380652e+01 3.640150e+01 2.613682e+01 2.500979e+01 2.890191e+01 2.176875e+01 3.353510e+01 2.721255e+01 -8.207169e-01 -9.048966e-01 -1.051373e+00 -6.348900e-01 -7.240280e-01 -6.287435e-01 -9.466655e-01 -6.448489e-01 -4.648209e-01 -2.657849e-01 -6.028378e-01 -6.960315e-01 -7.156837e-01 -5.044051e-01 -4.247277e-01 -2.976736e-01 -3.275064e-01 -5.207578e-01 -7.028322e-01 -7.155341e-01 -6.148798e-01 -6.181798e-01 -5.245550e-01 -5.364529e-01 -5.941961e-01 -8.831216e-01 -9.376595e-01 -1.011655e+00 -9.407215e-01 -1.024915e+00 -9.912379e-01 -1.287167e+00 -1.554892e+00 -1.684656e+00 -1.633762e+00 -2.197539e+00 -1.943437e+00 -1.540474e+00 -2.482424e+00 -1.413226e+00 -1.095605e+00 -1.868749e+00 7.184527e-02 -1.045717e+00 -9.491643e-01 3.120948e-01 -1.130168e+00 9.286845e-01 1.965122e+00 1.040419e-01 -4.431173e-01 -7.140400e-01 -1.059601e+00 -1.131696e+00 -1.282052e+00 -1.374197e+00 -1.460984e+00 -1.498303e+00 -1.390500e+00 -1.221597e+00 -1.171914e+00 -1.195224e+00 -1.139666e+00 -1.223481e+00 -1.249104e+00 -1.220153e+00 -1.127358e+00 -1.089615e+00 -1.109840e+00 -1.234021e+00 -1.211537e+00 -1.122913e+00 -1.004396e+00 -9.701280e-01 -1.000138e+00 -1.071631e+00 -1.036306e+00 -9.245455e-01 -8.925665e-01 -9.064321e-01 -1.036862e+00 -1.160792e+00 -1.395567e+00 -1.240408e+00 -1.252333e+00 -9.790171e-01 -1.063244e+00 -9.143795e-01 -1.203882e+00 -1.047365e+00 -1.265858e+00 -8.684694e-01 -9.448020e-01 -5.797385e-01 -7.925004e-01 -4.994991e-01 -7.036647e-01 -4.184321e-01 -6.581541e-01 -9.847230e-02 -8.096778e-01 -3.116932e+00 -4.172426e-01 0 0 0 0 
0 0 0 0 0 -5.090839e+00 -3.760743e+00 1.291681e+00 -1.499193e+00 -8.042358e-01 -1.559314e+00 -1.097751e+00 -3.609746e-02 6.045587e+00 8.568000e+00 6.328781e+00 6.107157e+00 7.101866e+00 5.034255e+00 7.511767e+00 7.190735e+00 -1.188675e+00 -1.310491e+00 -1.522464e+00 -9.193627e-01 -1.048359e+00 -9.103554e-01 -1.370619e+00 -9.336191e-01 -6.729699e-01 -3.848037e-01 -8.728073e-01 -1.007747e+00 -1.036214e+00 -7.303355e-01 -6.149886e-01 -4.310506e-01 -4.742500e-01 -7.540449e-01 -1.017647e+00 -1.036038e+00 -8.903029e-01 -8.950692e-01 -7.595160e-01 -7.767314e-01 -8.603158e-01 -1.278614e+00 -1.357558e+00 -1.464681e+00 -1.361980e+00 -1.483873e+00 -1.435106e+00 -1.863546e+00 -2.251140e+00 -2.439004e+00 -2.365324e+00 -3.184235e+00 -2.828199e+00 -2.244354e+00 -3.618639e+00 -2.093446e+00 -1.618680e+00 -2.762551e+00 4.086401e-02 -1.563161e+00 -1.467354e+00 3.852365e-01 -1.723067e+00 1.238035e+00 2.812518e+00 1.385322e-01 -6.502532e-01 -1.034225e+00 -1.534019e+00 -1.638386e+00 -1.856059e+00 -1.989463e+00 -2.115119e+00 -2.169162e+00 -2.013099e+00 -1.768577e+00 -1.696645e+00 -1.730385e+00 -1.649939e+00 -1.771270e+00 -1.808357e+00 -1.766443e+00 -1.632101e+00 -1.577465e+00 -1.606749e+00 -1.786539e+00 -1.753996e+00 -1.625705e+00 -1.454133e+00 -1.404526e+00 -1.447970e+00 -1.551465e+00 -1.500320e+00 -1.338511e+00 -1.292209e+00 -1.312275e+00 -1.501092e+00 -1.680498e+00 -2.020384e+00 -1.795751e+00 -1.813025e+00 -1.417369e+00 -1.539347e+00 -1.323890e+00 -1.743082e+00 -1.516578e+00 -1.832991e+00 -1.257813e+00 -1.368418e+00 -8.400290e-01 -1.148097e+00 -7.239779e-01 -1.019507e+00 -6.064159e-01 -9.530397e-01 -1.421602e-01 -1.172245e+00 -4.512866e+00 -6.041247e-01 0 0 0 0 
0 0 0 0 0 -1.730315e+00 -1.273676e+00 4.463759e-01 -5.063941e-01 -2.727898e-01 -5.299656e-01 -3.731068e-01 -1.210065e-02 2.055687e+00 2.913252e+00 2.152025e+00 2.076723e+00 2.415059e+00 1.711980e+00 2.554379e+00 2.445024e+00 -4.044085e-01 -4.458018e-01 -5.178342e-01 -3.127004e-01 -3.565363e-01 -3.095851e-01 -4.660810e-01 -3.174695e-01 -2.288366e-01 -1.308482e-01 -2.967970e-01 -3.426882e-01 -3.523749e-01 -2.483701e-01 -2.091525e-01 -1.466119e-01 -1.613050e-01 -2.564486e-01 -3.460808e-01 -3.523352e-01 -3.027758e-01 -3.043911e-01 -2.582962e-01 -2.641450e-01 -2.925591e-01 -4.347924e-01 -4.616288e-01 -4.980510e-01 -4.631274e-01 -5.045747e-01 -4.879875e-01 -6.336699e-01 -7.654576e-01 -8.293349e-01 -8.042832e-01 -1.082764e+00 -9.617795e-01 -7.632420e-01 -1.230616e+00 -7.121696e-01 -5.506196e-01 -9.397692e-01 1.339690e-02 -5.319214e-01 -4.997018e-01 1.304350e-01 -5.866164e-01 4.200879e-01 9.560773e-01 4.703328e-02 -2.211538e-01 -3.516540e-01 -5.215905e-01 -5.570733e-01 -6.310851e-01 -6.764454e-01 -7.191759e-01 -7.375589e-01 -6.844984e-01 -6.013591e-01 -5.768989e-01 -5.883679e-01 -5.610088e-01 -6.022584e-01 -6.148644e-01 -6.006122e-01 -5.549343e-01 -5.363599e-01 -5.463184e-01 -6.074549e-01 -5.963933e-01 -5.527789e-01 -4.944459e-01 -4.775800e-01 -4.923508e-01 -5.275367e-01 -5.101452e-01 -4.551227e-01 -4.393768e-01 -4.461959e-01 -5.103922e-01 -5.713869e-01 -6.869505e-01 -6.105696e-01 -6.164487e-01 -4.819349e-01 -5.234280e-01 -4.501982e-01 -5.927636e-01 -5.157935e-01 -6.234232e-01 -4.279196e-01 -4.655732e-01 -2.859733e-01 -3.907434e-01 -2.465694e-01 -3.470302e-01 -2.065002e-01 -3.241496e-01 -4.814220e-02 -3.986048e-01 -1.534630e+00 -2.054453e-01 0 0 0 0 
0 0 0 0 0 0 0 0 0 0 0 0 0 0 0 0 0 0 0 0 0 0 0 0 0 0 0 0 0 0 0 0 0 0 0 0 0 0 0 0 0 0 0 0 0 0 0 0 0 0 0 0 0 0 0 0 0 0 0 0 0 0 0 0 0 0 0 0 0 0 0 0 0 0 0 0 0 0 0 0 0 0 0 0 0 0 0 0 0 0 0 0 0 0 0 0 0 0 0 0 0 0 0 0 0 0 0 0 0 0 0 0 0 0 0 0 0 0 0 0 0 0 0 0 0 0 0 0 
