# vtk DataFile Version 2.0
Comment goes here
ASCII

DATASET STRUCTURED_POINTS
FIELD FieldData 1
TIME 1 1 double
0.28000000
DIMENSIONS    128   16   1

ORIGIN    0.000   0.000   0.000
SPACING   0.0078125 0.015625   1.000

POINT_DATA   2048
SCALARS fX double
LOOKUP_TABLE default

0 0 0 0 0 0 0 0 0 0 0 0 0 0 0 0 0 0 0 0 0 0 0 0 0 0 0 0 0 0 0 0 0 0 0 0 0 0 0 0 0 0 0 0 0 0 0 0 0 0 0 0 0 0 0 0 0 0 0 0 0 0 0 0 0 0 0 0 0 0 0 0 0 0 0 0 0 0 0 0 0 0 0 0 0 0 0 0 0 0 0 0 0 0 0 0 0 0 0 0 0 0 0 0 0 0 0 0 0 0 0 0 0 0 0 0 0 0 0 0 0 0 0 0 0 0 0 0 
0 0 0 0 0 0 0 0 0 0 0 0 0 0 0 0 0 0 0 0 0 0 0 0 0 0 0 0 0 0 0 0 0 0 0 0 0 0 0 0 0 0 0 0 0 0 0 0 0 0 0 0 0 0 0 0 0 0 0 0 0 0 0 0 0 0 0 0 0 0 0 0 0 0 0 0 0 0 0 0 0 0 0 0 0 0 0 0 0 0 0 0 0 0 0 0 0 0 0 0 0 0 0 0 0 0 0 0 0 0 0 0 0 0 0 0 0 0 0 0 0 0 0 0 0 0 0 0 
0 0 0 0 0 1.631811e+00 -3.689103e-01 -1.161707e+00 1.288737e-01 -3.727489e-01 2.452352e-02 -3.249086e-01 5.707264e-01 9.365799e-01 1.108312e+00 1.076678e+00 1.814970e+00 1.151383e+00 1.738165e+00 1.440851e+00 5.709638e-01 6.045386e-01 -1.758839e-01 -9.159365e-02 -2.261900e-01 -1.561469e-01 -2.638598e-01 -1.704909e-01 -2.743867e-01 -2.054198e-01 -3.383428e-01 -2.979426e-01 -3.865799e-01 -2.945987e-01 -3.526800e-01 -2.973840e-01 -3.703691e-01 -3.231851e-01 -3.491362e-01 -2.932265e-01 -3.197670e-01 -2.930384e-01 -2.964093e-01 -2.986392e-01 -3.241427e-01 -3.540273e-01 -3.536710e-01 -3.803105e-01 -3.845371e-01 -4.475056e-01 -4.586502e-01 -4.832884e-01 -4.539519e-01 -4.854911e-01 -4.783358e-01 -3.967294e-01 4.550794e-02 -1.786071e-01 -1.329146e+00 -1.509689e+00 -5.608719e-01 -1.377606e+00 -1.454658e+00 -4.673181e-01 -1.795575e+00 -1.206482e+00 -7.442680e-01 -2.440038e+00 1.219071e+00 4.887811e+00 6.439486e-01 -4.025903e+00 -2.519224e+00 -2.961807e-01 -1.957263e-01 -1.682107e-01 -2.101418e-01 -2.340180e-01 -2.947049e-01 -2.813536e-01 -2.739059e-01 -2.712312e-01 -2.926448e-01 -2.932579e-01 -2.501571e-01 -2.127821e-01 -1.702256e-01 -1.537821e-01 -9.134862e-02 -1.963947e-02 9.391671e-02 1.652269e-01 2.088041e-01 2.024034e-01 2.041320e-01 2.481879e-01 3.030405e-01 3.527628e-01 3.072205e-01 2.696159e-01 1.877594e-01 2.354581e-01 2.090171e-01 2.717172e-01 1.546406e-01 1.830387e-01 7.925671e-02 1.856087e-01 1.123560e-01 2.295694e-01 1.466111e-01 2.379230e-01 1.460937e-01 2.016607e-01 1.280981e-01 1.576344e-01 1.355414e-01 1.122266e-01 1.094475e-01 1.451234e-02 -4.415310e-02 -6.188492e-01 2.110290e-01 2.856054e-01 0 0 0 0 
0 0 0 0 0 4.799134e+00 -1.091778e+00 -3.428470e+00 3.719656e-01 -1.098893e+00 7.098524e-02 -9.561390e-01 1.678575e+00 2.754781e+00 3.259890e+00 3.166818e+00 5.338142e+00 3.386452e+00 5.112233e+00 4.238028e+00 1.679720e+00 1.778502e+00 -5.168016e-01 -2.689328e-01 -6.648513e-01 -4.589041e-01 -7.757449e-01 -5.012172e-01 -8.068300e-01 -6.040444e-01 -9.950214e-01 -8.762271e-01 -1.136929e+00 -8.664237e-01 -1.037248e+00 -8.746186e-01 -1.089269e+00 -9.504830e-01 -1.026786e+00 -8.623373e-01 -9.403719e-01 -8.617548e-01 -8.716659e-01 -8.782254e-01 -9.532504e-01 -1.041151e+00 -1.040134e+00 -1.118497e+00 -1.130944e+00 -1.316155e+00 -1.348924e+00 -1.421391e+00 -1.335113e+00 -1.427876e+00 -1.406856e+00 -1.166841e+00 1.012349e-01 -6.451891e-01 -4.007007e+00 -4.503247e+00 -1.725717e+00 -3.979489e+00 -3.727061e+00 -8.267980e-01 -4.284865e+00 -1.604611e+00 -7.654985e-01 -4.146770e+00 6.982782e+00 1.586605e+01 4.170518e+00 -1.021757e+01 -7.323782e+00 -8.712086e-01 -5.757138e-01 -4.947659e-01 -6.180772e-01 -6.882981e-01 -8.667841e-01 -8.275183e-01 -8.056153e-01 -7.977464e-01 -8.607250e-01 -8.625164e-01 -7.357428e-01 -6.258084e-01 -5.006394e-01 -4.522755e-01 -2.686402e-01 -5.772926e-02 2.762746e-01 4.860142e-01 6.141850e-01 5.953600e-01 6.004357e-01 7.300045e-01 8.913278e-01 1.037562e+00 9.036067e-01 7.930030e-01 5.522480e-01 6.925520e-01 6.147947e-01 7.992416e-01 4.549392e-01 5.385165e-01 2.333526e-01 5.462476e-01 3.308865e-01 6.757477e-01 4.318252e-01 7.004702e-01 4.304198e-01 5.938479e-01 3.774336e-01 4.642118e-01 3.990700e-01 3.303535e-01 3.223257e-01 4.464352e-02 -1.185004e-01 -1.803565e+00 6.278770e-01 8.403052e-01 0 0 0 0 
0 0 0 0 0 3.314889e+00 -7.574244e-01 -2.373905e+00 2.535094e-01 -7.603157e-01 4.847979e-02 -6.607151e-01 1.159473e+00 9.168925e+00 7.291538e+00 1.059005e+01 1.587195e+01 1.106441e+01 1.519536e+01 1.168318e+01 4.442335e+00 1.228731e+00 -3.567404e-01 -1.855444e-01 -4.590508e-01 -3.168213e-01 -5.357000e-01 -3.461099e-01 -5.572321e-01 -4.171846e-01 -6.872681e-01 -6.052245e-01 -7.853080e-01 -5.984680e-01 -7.164652e-01 -6.041300e-01 -7.523962e-01 -6.565237e-01 -7.092194e-01 -5.956208e-01 -6.495114e-01 -5.952043e-01 -6.020490e-01 -6.065804e-01 -6.584115e-01 -7.191319e-01 -7.184447e-01 -7.725800e-01 -7.811856e-01 -9.091260e-01 -9.317567e-01 -9.818143e-01 -9.222203e-01 -9.862971e-01 -9.717895e-01 -8.059996e-01 1.675921e-03 -6.984426e-01 -2.974179e+00 -3.339821e+00 -1.532216e+00 -2.885209e+00 -2.557865e+00 -5.398359e-01 -2.579032e+00 -3.081409e-01 9.425031e-02 -1.361450e+00 6.502639e+00 1.175087e+01 4.184388e+00 -6.127466e+00 -5.009598e+00 -6.018372e-01 -3.977021e-01 -3.417772e-01 -4.269479e-01 -4.754520e-01 -5.987403e-01 -5.716183e-01 -5.564897e-01 -5.510532e-01 -5.945548e-01 -5.957866e-01 -5.082135e-01 -4.322717e-01 -3.458088e-01 -3.124007e-01 -1.855497e-01 -3.986051e-02 1.908625e-01 3.357436e-01 4.242799e-01 4.112766e-01 4.147786e-01 5.042757e-01 6.157072e-01 7.167163e-01 6.241815e-01 5.477802e-01 3.814766e-01 4.783993e-01 4.246929e-01 5.521179e-01 3.143080e-01 3.720655e-01 1.613087e-01 3.774893e-01 2.287696e-01 4.670413e-01 2.985852e-01 4.841928e-01 2.976707e-01 4.105580e-01 2.610421e-01 3.209395e-01 2.758638e-01 2.283277e-01 2.228531e-01 3.178784e-02 -7.634961e-02 -1.237793e+00 4.372014e-01 5.805875e-01 0 0 0 0 
0 0 0 0 0 1.475658e-01 -3.455671e-02 -1.071422e-01 1.041748e-02 -3.417158e-02 2.018064e-03 -2.948469e-02 5.162459e-02 1.113680e+01 1.215854e+01 1.148158e+01 1.256321e+01 1.190136e+01 1.208244e+01 1.249576e+01 1.072503e+01 5.476750e-02 -1.582276e-02 -8.205215e-03 -2.038954e-02 -1.406404e-02 -2.381486e-02 -1.538357e-02 -2.478884e-02 -1.856003e-02 -3.058951e-02 -2.693999e-02 -3.495913e-02 -2.664302e-02 -3.189682e-02 -2.689547e-02 -3.349601e-02 -2.922584e-02 -3.156935e-02 -2.651001e-02 -2.890647e-02 -2.648787e-02 -2.679227e-02 -2.699414e-02 -2.930384e-02 -3.200818e-02 -3.198141e-02 -3.439332e-02 -3.477847e-02 -4.047649e-02 -4.148302e-02 -4.371213e-02 -4.105932e-02 -4.391255e-02 -4.326965e-02 -3.588793e-02 -4.496343e-02 -1.670684e-01 -2.272921e-01 -2.850957e-01 -2.428857e-01 -1.960513e-01 -1.635253e-01 -2.801008e-02 -3.539404e-03 2.470281e-01 2.336239e-01 4.331623e-01 8.736086e-01 8.250540e-01 6.570431e-01 6.431708e-02 -2.047905e-01 -2.680927e-02 -1.771464e-02 -1.522201e-02 -1.901255e-02 -2.117192e-02 -2.666106e-02 -2.545370e-02 -2.478032e-02 -2.453799e-02 -2.647466e-02 -2.652807e-02 -2.262785e-02 -1.924539e-02 -1.539504e-02 -1.390737e-02 -8.258106e-03 -1.770722e-03 8.504664e-03 1.495633e-02 1.889895e-02 1.832000e-02 1.847493e-02 2.245910e-02 2.741989e-02 3.191667e-02 2.779535e-02 2.439316e-02 1.698800e-02 2.130543e-02 1.891527e-02 2.459350e-02 1.400937e-02 1.658776e-02 7.212783e-03 1.685045e-02 1.023917e-02 2.086308e-02 1.337108e-02 2.164564e-02 1.334466e-02 1.837077e-02 1.170656e-02 1.436216e-02 1.233509e-02 1.020074e-02 9.974927e-03 1.656667e-03 -2.002287e-03 -5.307704e-02 2.035339e-02 2.588776e-02 0 0 0 0 
0 0 0 0 0 0 0 0 0 0 0 0 0 1.204071e+01 1.279934e+01 1.232887e+01 1.328413e+01 1.270210e+01 1.287108e+01 1.317520e+01 1.159229e+01 0 0 0 0 0 0 0 0 0 0 0 0 0 0 0 0 0 0 0 0 0 0 0 0 0 0 0 0 0 0 0 0 0 0 0 2.818838e-02 1.969664e-01 2.104446e-01 1.773640e-01 3.434129e-01 2.390809e-01 3.228113e-01 3.974308e-01 2.311730e-01 4.112570e-01 3.109325e-01 2.802242e-01 4.004216e-01 1.586828e-01 5.928617e-02 5.170198e-02 6.037648e-03 0 0 0 0 0 0 0 0 0 0 0 0 0 0 0 0 0 0 0 0 0 0 0 0 0 0 0 0 0 0 0 0 0 0 0 0 0 0 0 0 0 0 0 0 0 0 0 0 0 0 0 0 0 0 0 
0 0 0 0 0 0 0 0 0 0 0 0 0 1.250311e+01 1.313605e+01 1.254355e+01 1.296646e+01 1.271034e+01 1.275785e+01 1.294217e+01 1.258049e+01 0 0 0 0 0 0 0 0 0 0 0 0 0 0 0 0 0 0 0 0 0 0 0 0 0 0 0 0 0 0 0 0 0 0 0 2.574909e-02 1.807849e-01 1.944429e-01 1.543139e-01 2.889742e-01 2.005880e-01 2.589427e-01 3.173195e-01 1.844706e-01 3.190256e-01 2.424630e-01 2.304909e-01 3.186263e-01 1.314383e-01 8.547146e-02 7.342594e-02 8.246889e-03 0 0 0 0 0 0 0 0 0 0 0 0 0 0 0 0 0 0 0 0 0 0 0 0 0 0 0 0 0 0 0 0 0 0 0 0 0 0 0 0 0 0 0 0 0 0 0 0 0 0 0 0 0 0 0 
0 0 0 0 0 0 0 0 0 0 0 0 0 1.279806e+01 1.341191e+01 1.287023e+01 1.329671e+01 1.307506e+01 1.304986e+01 1.333289e+01 1.276015e+01 0 0 0 0 0 0 0 0 0 0 0 0 0 0 0 0 0 0 0 0 0 0 0 0 0 0 0 0 0 0 0 0 0 0 0 9.075620e-03 6.586641e-02 7.166077e-02 5.232887e-02 9.643416e-02 6.671055e-02 7.635586e-02 9.454018e-02 5.148340e-02 8.400191e-02 6.388606e-02 4.307181e-02 5.867249e-02 3.036032e-02 3.899659e-02 3.340852e-02 3.723628e-03 0 0 0 0 0 0 0 0 0 0 0 0 0 0 0 0 0 0 0 0 0 0 0 0 0 0 0 0 0 0 0 0 0 0 0 0 0 0 0 0 0 0 0 0 0 0 0 0 0 0 0 0 0 0 0 
0 0 0 0 0 0 0 0 0 0 0 0 0 1.250075e+01 1.314000e+01 1.254144e+01 1.296767e+01 1.270096e+01 1.274876e+01 1.292280e+01 1.256328e+01 0 0 0 0 0 0 0 0 0 0 0 0 0 0 0 0 0 0 0 0 0 0 0 0 0 0 0 0 0 0 0 0 0 0 0 5.043897e-03 3.509061e-02 3.759648e-02 4.142042e-02 8.398103e-02 5.891830e-02 8.346295e-02 1.007517e-01 6.817720e-02 1.296194e-01 9.730958e-02 9.550049e-02 1.267764e-01 6.544424e-02 9.559538e-02 7.902634e-02 7.828605e-03 0 0 0 0 0 0 0 0 0 0 0 0 0 0 0 0 0 0 0 0 0 0 0 0 0 0 0 0 0 0 0 0 0 0 0 0 0 0 0 0 0 0 0 0 0 0 0 0 0 0 0 0 0 0 0 
0 0 0 0 0 0 0 0 0 0 0 0 0 1.204896e+01 1.280825e+01 1.231990e+01 1.327516e+01 1.267535e+01 1.283816e+01 1.314273e+01 1.154338e+01 0 0 0 0 0 0 0 0 0 0 0 0 0 0 0 0 0 0 0 0 0 0 0 0 0 0 0 0 0 0 0 0 0 0 0 -2.690398e-03 -1.345397e-02 -1.246952e-02 2.538228e-03 1.617425e-02 1.453020e-02 3.584154e-02 4.738478e-02 4.185650e-02 9.715892e-02 7.748008e-02 1.079336e-01 1.550977e-01 7.767896e-02 1.042496e-01 9.278095e-02 1.101192e-02 0 0 0 0 0 0 0 0 0 0 0 0 0 0 0 0 0 0 0 0 0 0 0 0 0 0 0 0 0 0 0 0 0 0 0 0 0 0 0 0 0 0 0 0 0 0 0 0 0 0 0 0 0 0 0 
0 0 0 0 0 1.476864e-01 -3.277186e-02 -1.030273e-01 1.468212e-02 -3.063548e-02 5.448516e-03 -2.414504e-02 5.888692e-02 1.114506e+01 1.220457e+01 1.150501e+01 1.259646e+01 1.188333e+01 1.204561e+01 1.240681e+01 1.063447e+01 5.898095e-02 -9.572384e-03 -1.491686e-03 -1.327127e-02 -6.012510e-03 -1.610282e-02 -8.106798e-03 -1.650061e-02 -6.630108e-03 -1.318961e-02 -4.209336e-03 -1.257522e-02 -9.544030e-03 -1.916137e-02 -1.224901e-02 -1.428491e-02 -8.706363e-03 -1.422539e-02 -1.496064e-02 -2.134438e-02 -2.219465e-02 -2.335480e-02 -2.395322e-02 -2.429981e-02 -2.617804e-02 -2.692613e-02 -3.047367e-02 -2.758878e-02 -2.649075e-02 -2.124707e-02 -2.331048e-02 -2.160932e-02 -2.558110e-02 -2.112162e-02 9.936315e-04 1.053205e-01 3.765709e-02 -8.417491e-02 1.099021e-02 -1.063995e-01 -1.166856e-01 -4.405032e-02 -2.166282e-01 -9.209165e-02 -1.617426e-01 -2.312173e-01 -1.258353e-01 -2.808571e-01 -2.092046e-01 -1.486758e-01 -2.168261e-01 -1.144534e-01 -3.971213e-02 -3.383875e-02 -3.052256e-02 -2.674753e-02 -2.022709e-02 -1.580143e-02 -1.119658e-02 -9.719093e-03 -5.611361e-03 -2.377552e-03 1.722446e-03 3.298945e-03 3.630672e-03 3.927029e-03 2.537864e-03 1.249928e-03 -1.468546e-03 -2.889918e-03 -6.529537e-03 -8.373505e-03 -9.296958e-03 -8.564530e-03 -7.698090e-03 -7.767091e-03 -3.548910e-03 -4.131255e-04 7.776704e-03 8.732153e-03 1.545875e-02 1.188292e-02 1.909940e-02 1.520670e-02 2.522379e-02 1.890043e-02 2.653973e-02 1.540091e-02 2.090110e-02 8.666999e-03 1.392482e-02 5.020086e-03 1.084906e-02 4.768793e-03 7.635422e-03 5.811853e-03 4.055925e-03 4.996369e-03 -1.319245e-03 -3.421148e-03 -5.425311e-02 1.983083e-02 2.585000e-02 0 0 0 0 
0 0 0 0 0 3.317603e+00 -7.174128e-01 -2.281559e+00 3.492789e-01 -6.809319e-01 1.255148e-01 -5.407953e-01 1.322547e+00 9.279844e+00 7.358809e+00 1.055676e+01 1.585275e+01 1.094151e+01 1.508351e+01 1.154839e+01 4.187972e+00 1.323372e+00 -2.163464e-01 -3.472192e-02 -2.991554e-01 -1.359433e-01 -3.624295e-01 -1.826637e-01 -3.710445e-01 -1.492128e-01 -2.964514e-01 -9.464438e-02 -2.825146e-01 -2.143963e-01 -4.304127e-01 -2.751663e-01 -3.209119e-01 -1.956580e-01 -3.196496e-01 -3.361928e-01 -4.796401e-01 -4.987401e-01 -5.248315e-01 -5.382676e-01 -5.460045e-01 -5.881799e-01 -6.049118e-01 -6.845572e-01 -6.197304e-01 -5.950386e-01 -4.772429e-01 -5.235702e-01 -4.853373e-01 -5.745396e-01 -4.743845e-01 2.230183e-02 2.569590e+00 2.053654e+00 -6.752216e-01 1.558643e+00 3.145604e-02 -9.750361e-01 1.517128e+00 -2.076873e+00 -5.053148e-02 -5.571843e-02 -2.665542e+00 1.212328e-01 -2.971805e+00 -3.088993e+00 -1.087997e+00 -3.473509e+00 -2.565988e+00 -8.917821e-01 -7.598947e-01 -6.854177e-01 -6.006384e-01 -4.542068e-01 -3.548206e-01 -2.514101e-01 -2.182449e-01 -1.260061e-01 -5.339638e-02 3.866436e-02 7.405630e-02 8.148960e-02 8.813061e-02 5.691460e-02 2.797184e-02 -3.309483e-02 -6.503271e-02 -1.467852e-01 -1.881976e-01 -2.089407e-01 -1.924842e-01 -1.730019e-01 -1.745337e-01 -7.976244e-02 -9.321907e-03 1.746138e-01 1.960838e-01 3.471228e-01 2.667783e-01 4.287501e-01 3.412122e-01 5.659871e-01 4.237714e-01 5.950689e-01 3.446634e-01 4.678845e-01 1.929120e-01 3.107978e-01 1.107167e-01 2.416174e-01 1.052253e-01 1.698725e-01 1.293448e-01 9.035173e-02 1.110641e-01 -3.507587e-02 -1.081819e-01 -1.264214e+00 4.254327e-01 5.797422e-01 0 0 0 0 
0 0 0 0 0 4.803064e+00 -1.033872e+00 -3.294798e+00 5.106083e-01 -9.839779e-01 1.825062e-01 -7.825323e-01 1.914649e+00 3.009594e+00 3.476860e+00 3.320848e+00 5.477650e+00 3.498694e+00 5.208780e+00 4.326360e+00 1.756118e+00 1.915515e+00 -3.135494e-01 -5.057661e-02 -4.333646e-01 -1.970353e-01 -5.248852e-01 -2.645923e-01 -5.372761e-01 -2.160929e-01 -4.292290e-01 -1.370435e-01 -4.090177e-01 -3.103928e-01 -6.231242e-01 -3.983741e-01 -4.646052e-01 -2.832845e-01 -4.627967e-01 -4.867539e-01 -6.944412e-01 -7.220931e-01 -7.598745e-01 -7.793250e-01 -7.905137e-01 -8.515688e-01 -8.757740e-01 -9.910691e-01 -8.972106e-01 -8.614564e-01 -6.909170e-01 -7.579811e-01 -7.026246e-01 -8.317625e-01 -6.867684e-01 3.228269e-02 3.725776e+00 3.007394e+00 -9.429191e-01 2.308130e+00 1.471618e-01 -1.339916e+00 2.322384e+00 -2.864115e+00 4.254957e-02 1.430690e-01 -3.695113e+00 4.033100e-01 -4.022252e+00 -4.335332e+00 -1.387218e+00 -4.894362e+00 -3.707616e+00 -1.291001e+00 -1.100074e+00 -9.922545e-01 -8.695208e-01 -6.575351e-01 -5.136565e-01 -3.639519e-01 -3.159433e-01 -1.824137e-01 -7.730149e-02 5.596918e-02 1.072023e-01 1.179591e-01 1.275695e-01 8.237393e-02 4.046928e-02 -4.793989e-02 -9.418015e-02 -2.125355e-01 -2.724878e-01 -3.025185e-01 -2.786927e-01 -2.504824e-01 -2.526954e-01 -1.154864e-01 -1.350634e-02 2.527769e-01 2.838619e-01 5.025120e-01 3.861887e-01 6.206486e-01 4.938918e-01 8.192472e-01 6.133115e-01 8.612289e-01 4.986570e-01 6.769656e-01 2.788363e-01 4.494484e-01 1.597690e-01 3.492704e-01 1.518578e-01 2.455148e-01 1.869516e-01 1.306140e-01 1.604953e-01 -5.216192e-02 -1.645753e-01 -1.841816e+00 6.108312e-01 8.390821e-01 0 0 0 0 
0 0 0 0 0 1.633148e+00 -3.492313e-01 -1.116267e+00 1.760115e-01 -3.336815e-01 6.243990e-02 -2.658821e-01 6.509886e-01 1.023214e+00 1.182080e+00 1.129047e+00 1.862404e+00 1.189545e+00 1.770991e+00 1.470884e+00 5.969400e-01 6.511248e-01 -1.067754e-01 -1.734638e-02 -1.474804e-01 -6.710452e-02 -1.785585e-01 -9.003536e-02 -1.827322e-01 -7.351021e-02 -1.459673e-01 -4.660846e-02 -1.390783e-01 -1.055405e-01 -2.118729e-01 -1.354568e-01 -1.579783e-01 -9.633277e-02 -1.573725e-01 -1.655218e-01 -2.361454e-01 -2.455476e-01 -2.583978e-01 -2.650106e-01 -2.688090e-01 -2.895670e-01 -2.977883e-01 -3.369856e-01 -3.050690e-01 -2.929086e-01 -2.349211e-01 -2.577214e-01 -2.388967e-01 -2.828041e-01 -2.335056e-01 1.097450e-02 1.266814e+00 1.022686e+00 -3.204420e-01 7.851482e-01 5.072500e-02 -4.551067e-01 7.905407e-01 -9.728089e-01 1.532665e-02 5.031164e-02 -1.255171e+00 1.388839e-01 -1.365413e+00 -1.472960e+00 -4.701373e-01 -1.663003e+00 -1.260528e+00 -4.389315e-01 -3.740184e-01 -3.373594e-01 -2.956300e-01 -2.235554e-01 -1.746373e-01 -1.237384e-01 -1.074174e-01 -6.201897e-02 -2.628267e-02 1.902727e-02 3.644490e-02 4.010018e-02 4.336592e-02 2.799720e-02 1.374737e-02 -1.631362e-02 -3.203736e-02 -7.227990e-02 -9.266373e-02 -1.028747e-01 -9.477297e-02 -8.517854e-02 -8.592878e-02 -3.927289e-02 -4.597562e-03 8.593980e-02 9.651022e-02 1.708480e-01 1.312933e-01 2.109979e-01 1.678863e-01 2.784839e-01 2.084405e-01 2.926997e-01 1.693944e-01 2.299822e-01 9.459131e-02 1.525755e-01 5.407240e-02 1.185021e-01 5.140131e-02 8.327771e-02 6.341865e-02 4.431817e-02 5.442759e-02 -1.840529e-02 -5.981462e-02 -6.318555e-01 2.052294e-01 2.851899e-01 0 0 0 0 
0 0 0 0 0 0 0 0 0 0 0 0 0 0 0 0 0 0 0 0 0 0 0 0 0 0 0 0 0 0 0 0 0 0 0 0 0 0 0 0 0 0 0 0 0 0 0 0 0 0 0 0 0 0 0 0 0 0 0 0 0 0 0 0 0 0 0 0 0 0 0 0 0 0 0 0 0 0 0 0 0 0 0 0 0 0 0 0 0 0 0 0 0 0 0 0 0 0 0 0 0 0 0 0 0 0 0 0 0 0 0 0 0 0 0 0 0 0 0 0 0 0 0 0 0 0 0 0 
