# vtk DataFile Version 2.0
Comment goes here
ASCII

DATASET STRUCTURED_POINTS
FIELD FieldData 1
TIME 1 1 double
1.00000000
DIMENSIONS    128   16   1

ORIGIN    0.000   0.000   0.000
SPACING   0.0078125 0.015625   1.000

POINT_DATA   2048
SCALARS fX double
LOOKUP_TABLE default

0 0 0 0 0 0 0 0 0 0 0 0 0 0 0 0 0 0 0 0 0 0 0 0 0 0 0 0 0 0 0 0 0 0 0 0 0 0 0 0 0 0 0 0 0 0 0 0 0 0 0 0 0 0 0 0 0 0 0 0 0 0 0 0 0 0 0 0 0 0 0 0 0 0 0 0 0 0 0 0 0 0 0 0 0 0 0 0 0 0 0 0 0 0 0 0 0 0 0 0 0 0 0 0 0 0 0 0 0 0 0 0 0 0 0 0 0 0 0 0 0 0 0 0 0 0 0 0 
0 0 0 0 0 0 0 0 0 0 0 0 0 0 0 0 0 0 0 0 0 0 0 0 0 0 0 0 0 0 0 0 0 0 0 0 0 0 0 0 0 0 0 0 0 0 0 0 0 0 0 0 0 0 0 0 0 0 0 0 0 0 0 0 0 0 0 0 0 0 0 0 0 0 0 0 0 0 0 0 0 0 0 0 0 0 0 0 0 0 0 0 0 0 0 0 0 0 0 0 0 0 0 0 0 0 0 0 0 0 0 0 0 0 0 0 0 0 0 0 0 0 0 0 0 0 0 0 
0 0 0 0 0 -1.141194e-01 -2.781159e+00 -1.353757e+00 -6.799801e-01 -1.060898e+00 -7.923973e-01 -1.003915e+00 1.108135e+00 5.016280e+00 6.651371e+00 5.350614e+00 6.358741e+00 5.861488e+00 5.721696e+00 6.645528e+00 5.126377e+00 5.490030e-01 -8.689178e-01 -9.042883e-01 -9.093857e-01 -9.291369e-01 -9.383631e-01 -9.368544e-01 -9.581016e-01 -9.371102e-01 -9.719824e-01 -9.348614e-01 -9.810928e-01 -9.316813e-01 -9.859652e-01 -9.277025e-01 -9.870732e-01 -9.236910e-01 -9.853642e-01 -9.206813e-01 -9.815751e-01 -9.197924e-01 -9.755897e-01 -9.210434e-01 -9.663097e-01 -9.233170e-01 -9.540279e-01 -9.246341e-01 -9.389118e-01 -9.243164e-01 -9.218455e-01 -9.200164e-01 -9.019600e-01 -9.101005e-01 -8.788291e-01 -1.137171e+00 -1.641301e+00 -1.289264e+00 -4.674440e-01 -6.266466e-01 -8.702865e-01 -6.745339e-01 -7.219540e-01 -9.659192e-01 -5.407073e-01 -8.087794e-01 -1.078191e+00 -6.658981e-01 -1.408111e+00 -2.032094e+00 -1.463148e+00 -1.016130e+00 -9.372707e-01 -1.004129e+00 -9.970607e-01 -9.810824e-01 -9.821867e-01 -9.773088e-01 -9.751272e-01 -9.716548e-01 -9.729838e-01 -9.643476e-01 -9.732241e-01 -9.575782e-01 -9.732159e-01 -9.528517e-01 -9.721140e-01 -9.499303e-01 -9.701012e-01 -9.470476e-01 -9.687087e-01 -9.431891e-01 -9.687390e-01 -9.391482e-01 -9.701365e-01 -9.359576e-01 -9.727227e-01 -9.336562e-01 -9.752462e-01 -9.330093e-01 -9.762005e-01 -9.342153e-01 -9.744569e-01 -9.385278e-01 -9.690772e-01 -9.464283e-01 -9.594856e-01 -9.583636e-01 -9.451599e-01 -9.737093e-01 -9.269837e-01 -9.921195e-01 -9.060184e-01 -1.013485e+00 -8.843352e-01 -1.038016e+00 -8.628754e-01 -1.068283e+00 -8.374093e-01 -1.121298e+00 -7.002786e-01 -1.815210e+00 -2.200471e+00 -2.925455e-02 0 0 0 0 
0 0 0 0 0 -3.356733e-01 -8.177520e+00 -3.976444e+00 -1.997398e+00 -3.121195e+00 -2.332950e+00 -2.955687e+00 3.256507e+00 1.475034e+01 1.955992e+01 1.573430e+01 1.869896e+01 1.723611e+01 1.682409e+01 1.953951e+01 1.507189e+01 1.613722e+00 -2.554917e+00 -2.658890e+00 -2.673833e+00 -2.731841e+00 -2.758906e+00 -2.754424e+00 -2.816851e+00 -2.755116e+00 -2.857628e+00 -2.748493e+00 -2.884423e+00 -2.739170e+00 -2.898789e+00 -2.727521e+00 -2.902103e+00 -2.715782e+00 -2.897135e+00 -2.706983e+00 -2.886042e+00 -2.704408e+00 -2.868479e+00 -2.708114e+00 -2.841219e+00 -2.714819e+00 -2.805127e+00 -2.718708e+00 -2.760699e+00 -2.717791e+00 -2.710536e+00 -2.705166e+00 -2.652085e+00 -2.676030e+00 -2.584092e+00 -3.343731e+00 -4.785513e+00 -3.642109e+00 -1.252228e+00 -1.670182e+00 -2.300846e+00 -1.859978e+00 -2.030675e+00 -2.765581e+00 -1.693408e+00 -2.631058e+00 -3.374930e+00 -2.435237e+00 -4.673087e+00 -5.900342e+00 -3.724974e+00 -2.582506e+00 -2.736334e+00 -2.952746e+00 -2.931971e+00 -2.884994e+00 -2.888250e+00 -2.873914e+00 -2.867506e+00 -2.857303e+00 -2.861220e+00 -2.835833e+00 -2.861947e+00 -2.815951e+00 -2.861952e+00 -2.802084e+00 -2.858746e+00 -2.793529e+00 -2.852861e+00 -2.785085e+00 -2.848797e+00 -2.773765e+00 -2.848907e+00 -2.761896e+00 -2.853023e+00 -2.752509e+00 -2.860616e+00 -2.745715e+00 -2.868006e+00 -2.743771e+00 -2.870770e+00 -2.747271e+00 -2.865608e+00 -2.759929e+00 -2.849786e+00 -2.783185e+00 -2.821633e+00 -2.818368e+00 -2.779613e+00 -2.863630e+00 -2.726293e+00 -2.917901e+00 -2.664723e+00 -2.980771e+00 -2.600879e+00 -3.052704e+00 -2.537294e+00 -3.140773e+00 -2.460242e+00 -3.291203e+00 -2.042465e+00 -5.321768e+00 -6.467180e+00 -8.605498e-02 0 0 0 0 
0 0 0 0 0 -2.318824e-01 -5.647543e+00 -2.744243e+00 -1.378485e+00 -2.156428e+00 -1.612652e+00 -2.043117e+00 2.248141e+00 5.327220e+01 7.080154e+01 5.975912e+01 6.621707e+01 6.490054e+01 6.023880e+01 7.333307e+01 5.120281e+01 1.114209e+00 -1.764478e+00 -1.836270e+00 -1.846568e+00 -1.886597e+00 -1.905258e+00 -1.902140e+00 -1.945232e+00 -1.902589e+00 -1.973374e+00 -1.898010e+00 -1.991883e+00 -1.891585e+00 -2.001824e+00 -1.883564e+00 -2.004139e+00 -1.875484e+00 -2.000736e+00 -1.869432e+00 -1.993099e+00 -1.867673e+00 -1.980987e+00 -1.870245e+00 -1.962173e+00 -1.874885e+00 -1.937257e+00 -1.877579e+00 -1.906583e+00 -1.876954e+00 -1.871949e+00 -1.868244e+00 -1.831590e+00 -1.848131e+00 -1.784642e+00 -2.309277e+00 -3.215305e+00 -2.196807e+00 -6.129719e-01 -8.583763e-01 -1.162970e+00 -1.063640e+00 -1.120420e+00 -1.674532e+00 -1.109521e+00 -1.792599e+00 -2.365722e+00 -1.832475e+00 -3.404841e+00 -3.952074e+00 -2.070417e+00 -1.435745e+00 -1.874716e+00 -2.039354e+00 -2.025010e+00 -1.992569e+00 -1.994822e+00 -1.984924e+00 -1.980503e+00 -1.973459e+00 -1.976168e+00 -1.958639e+00 -1.976681e+00 -1.944920e+00 -1.976698e+00 -1.935357e+00 -1.974500e+00 -1.929466e+00 -1.970453e+00 -1.923650e+00 -1.967660e+00 -1.915844e+00 -1.967747e+00 -1.907653e+00 -1.970593e+00 -1.901168e+00 -1.975832e+00 -1.896463e+00 -1.980920e+00 -1.895099e+00 -1.982809e+00 -1.897495e+00 -1.979226e+00 -1.906225e+00 -1.968298e+00 -1.922299e+00 -1.948879e+00 -1.946641e+00 -1.919909e+00 -1.977967e+00 -1.883146e+00 -2.015515e+00 -1.840660e+00 -2.058957e+00 -1.796526e+00 -2.108541e+00 -1.752376e+00 -2.168915e+00 -1.698109e+00 -2.270160e+00 -1.402524e+00 -3.667773e+00 -4.464932e+00 -5.944906e-02 0 0 0 0 
0 0 0 0 0 -1.032859e-02 -2.511812e-01 -1.215555e-01 -6.106761e-02 -9.613188e-02 -7.209904e-02 -9.134386e-02 9.977005e-02 6.032731e+01 6.589050e+01 6.184707e+01 6.408368e+01 6.379952e+01 6.197326e+01 6.579412e+01 6.016115e+01 4.949090e-02 -7.847888e-02 -8.166843e-02 -8.212093e-02 -8.389308e-02 -8.471531e-02 -8.457094e-02 -8.648180e-02 -8.458352e-02 -8.772883e-02 -8.437859e-02 -8.855301e-02 -8.409617e-02 -8.899999e-02 -8.374551e-02 -8.910978e-02 -8.339308e-02 -8.896545e-02 -8.313015e-02 -8.863177e-02 -8.305670e-02 -8.809757e-02 -8.317446e-02 -8.726399e-02 -8.338323e-02 -8.615830e-02 -8.350514e-02 -8.479630e-02 -8.347943e-02 -8.325810e-02 -8.309430e-02 -8.146534e-02 -8.220219e-02 -7.937966e-02 -1.027170e-01 -1.050411e-01 -1.038491e-01 -1.138117e-01 -4.667127e-02 -1.794965e-01 -1.924595e-01 -2.026676e-01 -3.568527e-01 -2.440955e-01 -4.757365e-01 -4.510551e-01 -3.639558e-01 -5.525181e-01 -2.762676e-01 -1.708504e-02 -5.260061e-02 -9.740466e-02 -9.073685e-02 -9.009974e-02 -8.865749e-02 -8.875881e-02 -8.831936e-02 -8.812361e-02 -8.781113e-02 -8.793274e-02 -8.715394e-02 -8.795817e-02 -8.654652e-02 -8.796244e-02 -8.612496e-02 -8.786883e-02 -8.586717e-02 -8.769300e-02 -8.561252e-02 -8.757245e-02 -8.526840e-02 -8.757890e-02 -8.490559e-02 -8.770641e-02 -8.461648e-02 -8.793803e-02 -8.440399e-02 -8.816061e-02 -8.433805e-02 -8.823943e-02 -8.443905e-02 -8.807574e-02 -8.482453e-02 -8.758925e-02 -8.554267e-02 -8.673159e-02 -8.663633e-02 -8.545573e-02 -8.804682e-02 -8.383597e-02 -8.973393e-02 -8.195554e-02 -9.167189e-02 -7.998181e-02 -9.385318e-02 -7.795824e-02 -9.642452e-02 -7.527713e-02 -1.002562e-01 -6.033742e-02 -1.612152e-01 -1.982230e-01 -2.648622e-03 0 0 0 0 
0 0 0 0 0 0 0 0 0 0 0 0 0 6.596557e+01 7.172386e+01 6.758959e+01 6.970785e+01 6.976984e+01 6.738514e+01 7.197532e+01 6.545205e+01 0 0 0 0 0 0 0 0 0 0 0 0 0 0 0 0 0 0 0 0 0 0 0 0 0 0 0 0 0 0 0 0 0 0 0 -5.925567e-02 -4.494594e-01 -4.942019e-01 -3.894128e-01 -7.448629e-01 -5.229909e-01 -6.348138e-01 -7.870217e-01 -4.615726e-01 -8.038424e-01 -6.139170e-01 -5.121108e-01 -7.083118e-01 -3.332692e-01 -3.531526e-01 -3.078691e-01 -3.588810e-02 0 0 0 0 0 0 0 0 0 0 0 0 0 0 0 0 0 0 0 0 0 0 0 0 0 0 0 0 0 0 0 0 0 0 0 0 0 0 0 0 0 0 0 0 0 0 0 0 0 0 0 0 0 0 0 
0 0 0 0 0 0 0 0 0 0 0 0 0 6.534147e+01 6.773164e+01 6.565882e+01 6.666607e+01 6.646801e+01 6.578471e+01 6.748349e+01 6.539494e+01 0 0 0 0 0 0 0 0 0 0 0 0 0 0 0 0 0 0 0 0 0 0 0 0 0 0 0 0 0 0 0 0 0 0 0 -1.818739e-02 -1.595171e-01 -1.834255e-01 -1.300557e-01 -2.518194e-01 -1.821655e-01 -2.077494e-01 -2.698083e-01 -1.500370e-01 -2.543146e-01 -2.044919e-01 -1.927230e-01 -2.771781e-01 -1.274860e-01 -1.119516e-01 -1.021186e-01 -1.334846e-02 0 0 0 0 0 0 0 0 0 0 0 0 0 0 0 0 0 0 0 0 0 0 0 0 0 0 0 0 0 0 0 0 0 0 0 0 0 0 0 0 0 0 0 0 0 0 0 0 0 0 0 0 0 0 0 
0 0 0 0 0 0 0 0 0 0 0 0 0 6.905603e+01 7.206910e+01 6.967844e+01 7.072981e+01 7.088498e+01 6.944141e+01 7.218959e+01 6.872048e+01 0 0 0 0 0 0 0 0 0 0 0 0 0 0 0 0 0 0 0 0 0 0 0 0 0 0 0 0 0 0 0 0 0 0 0 8.922960e-03 4.553014e-02 4.208825e-02 3.969981e-02 7.013195e-02 4.448366e-02 6.417468e-02 6.886932e-02 4.302060e-02 7.753132e-02 5.411425e-02 5.942262e-02 7.003336e-02 2.604375e-02 3.193907e-02 2.437276e-02 1.528276e-03 0 0 0 0 0 0 0 0 0 0 0 0 0 0 0 0 0 0 0 0 0 0 0 0 0 0 0 0 0 0 0 0 0 0 0 0 0 0 0 0 0 0 0 0 0 0 0 0 0 0 0 0 0 0 0 
0 0 0 0 0 0 0 0 0 0 0 0 0 6.534124e+01 6.773126e+01 6.565785e+01 6.666558e+01 6.646568e+01 6.578398e+01 6.747913e+01 6.539287e+01 0 0 0 0 0 0 0 0 0 0 0 0 0 0 0 0 0 0 0 0 0 0 0 0 0 0 0 0 0 0 0 0 0 0 0 4.762572e-03 1.935400e-02 1.755257e-02 4.110569e-03 4.434596e-03 6.039697e-03 1.630870e-02 1.752298e-02 1.015205e-04 -7.262618e-03 -1.212643e-03 2.004379e-02 2.569181e-02 5.531101e-04 -2.074434e-02 -1.361536e-02 -1.486260e-04 0 0 0 0 0 0 0 0 0 0 0 0 0 0 0 0 0 0 0 0 0 0 0 0 0 0 0 0 0 0 0 0 0 0 0 0 0 0 0 0 0 0 0 0 0 0 0 0 0 0 0 0 0 0 0 
0 0 0 0 0 0 0 0 0 0 0 0 0 6.596692e+01 7.172122e+01 6.758986e+01 6.970696e+01 6.976662e+01 6.738674e+01 7.196676e+01 6.545162e+01 0 0 0 0 0 0 0 0 0 0 0 0 0 0 0 0 0 0 0 0 0 0 0 0 0 0 0 0 0 0 0 0 0 0 0 2.556915e-02 8.082701e-02 6.231023e-02 8.869823e-02 1.199355e-01 7.102614e-02 1.324889e-01 1.113332e-01 9.906462e-02 1.448701e-01 7.796380e-02 1.106875e-01 1.062687e-01 5.230784e-02 7.313415e-02 3.638196e-02 -6.031570e-04 0 0 0 0 0 0 0 0 0 0 0 0 0 0 0 0 0 0 0 0 0 0 0 0 0 0 0 0 0 0 0 0 0 0 0 0 0 0 0 0 0 0 0 0 0 0 0 0 0 0 0 0 0 0 0 
0 0 0 0 0 -1.023865e-02 -2.510837e-01 -1.214833e-01 -6.086705e-02 -9.599649e-02 -7.197221e-02 -9.131174e-02 9.976697e-02 6.032767e+01 6.588775e+01 6.184674e+01 6.408284e+01 6.379532e+01 6.197550e+01 6.578106e+01 6.015585e+01 4.977691e-02 -7.863165e-02 -8.194359e-02 -8.238822e-02 -8.429642e-02 -8.496139e-02 -8.495403e-02 -8.664622e-02 -8.484621e-02 -8.771947e-02 -8.448987e-02 -8.843056e-02 -8.415677e-02 -8.900613e-02 -8.394088e-02 -8.941313e-02 -8.390643e-02 -8.970949e-02 -8.414735e-02 -8.977610e-02 -8.454052e-02 -8.971489e-02 -8.537122e-02 -8.953391e-02 -8.625178e-02 -8.956043e-02 -8.767308e-02 -8.941380e-02 -8.947101e-02 -9.015863e-02 -9.129832e-02 -9.213885e-02 -9.386567e-02 -9.473715e-02 -1.100502e-01 -1.166335e-01 -2.924744e-02 -3.466175e-02 -3.322206e-02 7.654299e-02 -7.523051e-03 4.437267e-02 7.384139e-02 1.034322e-02 1.419530e-01 6.526185e-02 4.985892e-02 1.483221e-01 3.973607e-02 5.206269e-02 5.382501e-02 -4.479107e-02 -7.928936e-02 -8.289585e-02 -8.176056e-02 -8.408621e-02 -8.366004e-02 -8.457403e-02 -8.483550e-02 -8.485018e-02 -8.553319e-02 -8.528072e-02 -8.571634e-02 -8.581838e-02 -8.575611e-02 -8.638739e-02 -8.567580e-02 -8.688249e-02 -8.553970e-02 -8.737642e-02 -8.535255e-02 -8.785424e-02 -8.508127e-02 -8.820530e-02 -8.481045e-02 -8.846769e-02 -8.451567e-02 -8.856136e-02 -8.430765e-02 -8.842449e-02 -8.428628e-02 -8.805535e-02 -8.457109e-02 -8.741104e-02 -8.521439e-02 -8.651442e-02 -8.627535e-02 -8.526601e-02 -8.779582e-02 -8.373564e-02 -8.965267e-02 -8.195743e-02 -9.174869e-02 -8.008857e-02 -9.402885e-02 -7.814211e-02 -9.663553e-02 -7.548842e-02 -1.004610e-01 -6.057341e-02 -1.612869e-01 -1.983232e-01 -2.683898e-03 0 0 0 0 
0 0 0 0 0 -2.298654e-01 -5.645377e+00 -2.742658e+00 -1.374002e+00 -2.153398e+00 -1.609814e+00 -2.042406e+00 2.248062e+00 5.327899e+01 7.079028e+01 5.977036e+01 6.621315e+01 6.490175e+01 6.025934e+01 7.330207e+01 5.120778e+01 1.120630e+00 -1.767929e+00 -1.842477e+00 -1.852603e+00 -1.895697e+00 -1.910824e+00 -1.910799e+00 -1.948975e+00 -1.908553e+00 -1.973220e+00 -1.900566e+00 -1.989178e+00 -1.892980e+00 -2.001985e+00 -1.887963e+00 -2.010957e+00 -1.887018e+00 -2.017454e+00 -1.892294e+00 -2.018824e+00 -1.901032e+00 -2.017353e+00 -1.919637e+00 -2.013209e+00 -1.939376e+00 -2.013742e+00 -1.971282e+00 -2.010391e+00 -2.011654e+00 -2.027082e+00 -2.052679e+00 -2.071538e+00 -2.110328e+00 -2.129873e+00 -2.474084e+00 -3.209231e+00 -2.671461e+00 -2.399406e+00 -3.232207e+00 -1.861276e+00 -2.294049e+00 -2.692890e+00 -1.601497e+00 -2.877206e+00 -1.729062e+00 -1.376333e+00 -2.566888e+00 -3.659912e-01 -9.254616e-01 -1.458147e+00 -2.468397e-01 -1.014172e+00 -1.782026e+00 -1.863065e+00 -1.837533e+00 -1.889774e+00 -1.880174e+00 -1.900685e+00 -1.906537e+00 -1.906839e+00 -1.922164e+00 -1.916468e+00 -1.926230e+00 -1.928498e+00 -1.927061e+00 -1.941215e+00 -1.925173e+00 -1.952252e+00 -1.922021e+00 -1.963260e+00 -1.917733e+00 -1.973928e+00 -1.911591e+00 -1.981790e+00 -1.905510e+00 -1.987711e+00 -1.898947e+00 -1.989892e+00 -1.894380e+00 -1.986925e+00 -1.894020e+00 -1.978725e+00 -1.900490e+00 -1.964257e+00 -1.914889e+00 -1.943969e+00 -1.938504e+00 -1.915622e+00 -1.972308e+00 -1.880876e+00 -2.013678e+00 -1.840698e+00 -2.060683e+00 -1.798929e+00 -2.112494e+00 -1.756513e+00 -2.173660e+00 -1.702854e+00 -2.274738e+00 -1.407741e+00 -3.669284e+00 -4.467145e+00 -6.024090e-02 0 0 0 0 
0 0 0 0 0 -3.327540e-01 -8.174391e+00 -3.974159e+00 -1.990913e+00 -3.116810e+00 -2.328845e+00 -2.954661e+00 3.256389e+00 1.474895e+01 1.954603e+01 1.573573e+01 1.867942e+01 1.722818e+01 1.682100e+01 1.951577e+01 1.507041e+01 1.623016e+00 -2.559918e+00 -2.667883e+00 -2.682578e+00 -2.745025e+00 -2.766974e+00 -2.766973e+00 -2.822283e+00 -2.763765e+00 -2.857419e+00 -2.752207e+00 -2.880518e+00 -2.741198e+00 -2.899028e+00 -2.733892e+00 -2.911975e+00 -2.732480e+00 -2.921340e+00 -2.740085e+00 -2.923290e+00 -2.752712e+00 -2.921137e+00 -2.779632e+00 -2.915117e+00 -2.808200e+00 -2.915874e+00 -2.854385e+00 -2.911007e+00 -2.912830e+00 -2.935161e+00 -2.972218e+00 -2.999516e+00 -3.055673e+00 -3.083962e+00 -3.582349e+00 -4.652234e+00 -3.887710e+00 -3.490257e+00 -4.701111e+00 -2.725035e+00 -3.339327e+00 -3.929446e+00 -2.345735e+00 -4.197204e+00 -2.554042e+00 -2.023961e+00 -3.765948e+00 -5.791377e-01 -1.364901e+00 -2.147363e+00 -3.770451e-01 -1.468469e+00 -2.580155e+00 -2.697485e+00 -2.660514e+00 -2.736145e+00 -2.722241e+00 -2.751929e+00 -2.760396e+00 -2.760827e+00 -2.783009e+00 -2.774755e+00 -2.788883e+00 -2.792161e+00 -2.790070e+00 -2.810555e+00 -2.787316e+00 -2.826512e+00 -2.782728e+00 -2.842426e+00 -2.776499e+00 -2.857854e+00 -2.767594e+00 -2.869231e+00 -2.758792e+00 -2.877810e+00 -2.749305e+00 -2.880986e+00 -2.742720e+00 -2.876718e+00 -2.742230e+00 -2.864871e+00 -2.751614e+00 -2.843925e+00 -2.772448e+00 -2.814516e+00 -2.806581e+00 -2.773400e+00 -2.855431e+00 -2.723004e+00 -2.915238e+00 -2.664777e+00 -2.983269e+00 -2.604359e+00 -3.058429e+00 -2.543285e+00 -3.147644e+00 -2.467110e+00 -3.297824e+00 -2.049997e+00 -5.323930e+00 -6.470375e+00 -8.720122e-02 0 0 0 0 
0 0 0 0 0 -1.131273e-01 -2.780098e+00 -1.352984e+00 -6.777780e-01 -1.059409e+00 -7.910030e-01 -1.003567e+00 1.108094e+00 5.015806e+00 6.646648e+00 5.351103e+00 6.352100e+00 5.858796e+00 5.720646e+00 6.637455e+00 5.125875e+00 5.521627e-01 -8.706207e-01 -9.073496e-01 -9.123629e-01 -9.336244e-01 -9.411111e-01 -9.411280e-01 -9.599546e-01 -9.400590e-01 -9.719184e-01 -9.361309e-01 -9.797707e-01 -9.323749e-01 -9.860493e-01 -9.298704e-01 -9.904305e-01 -9.293691e-01 -9.935951e-01 -9.319381e-01 -9.942427e-01 -9.362199e-01 -9.934988e-01 -9.453664e-01 -9.914421e-01 -9.550751e-01 -9.916917e-01 -9.707763e-01 -9.900299e-01 -9.906470e-01 -9.982378e-01 -1.010837e+00 -1.020116e+00 -1.039211e+00 -1.048826e+00 -1.218316e+00 -1.582245e+00 -1.322444e+00 -1.187206e+00 -1.598886e+00 -9.268907e-01 -1.135710e+00 -1.336442e+00 -7.978445e-01 -1.427379e+00 -8.685795e-01 -6.883040e-01 -1.280699e+00 -1.969536e-01 -4.641598e-01 -7.302652e-01 -1.282316e-01 -4.993732e-01 -8.774183e-01 -9.173157e-01 -9.047415e-01 -9.304574e-01 -9.257264e-01 -9.358184e-01 -9.386946e-01 -9.388378e-01 -9.463782e-01 -9.435685e-01 -9.483692e-01 -9.494809e-01 -9.487652e-01 -9.557274e-01 -9.478184e-01 -9.611427e-01 -9.462468e-01 -9.665430e-01 -9.441185e-01 -9.717807e-01 -9.410848e-01 -9.756463e-01 -9.380921e-01 -9.785666e-01 -9.348736e-01 -9.796558e-01 -9.326478e-01 -9.782180e-01 -9.324957e-01 -9.742011e-01 -9.356954e-01 -9.670797e-01 -9.427730e-01 -9.570619e-01 -9.543523e-01 -9.430443e-01 -9.709191e-01 -9.258632e-01 -9.912125e-01 -9.060362e-01 -1.014335e+00 -8.855190e-01 -1.039964e+00 -8.649134e-01 -1.070619e+00 -8.397446e-01 -1.123547e+00 -7.028292e-01 -1.815933e+00 -2.201553e+00 -2.964422e-02 0 0 0 0 
0 0 0 0 0 0 0 0 0 0 0 0 0 0 0 0 0 0 0 0 0 0 0 0 0 0 0 0 0 0 0 0 0 0 0 0 0 0 0 0 0 0 0 0 0 0 0 0 0 0 0 0 0 0 0 0 0 0 0 0 0 0 0 0 0 0 0 0 0 0 0 0 0 0 0 0 0 0 0 0 0 0 0 0 0 0 0 0 0 0 0 0 0 0 0 0 0 0 0 0 0 0 0 0 0 0 0 0 0 0 0 0 0 0 0 0 0 0 0 0 0 0 0 0 0 0 0 0 
