# vtk DataFile Version 2.0
Comment goes here
ASCII

DATASET STRUCTURED_POINTS
FIELD FieldData 1
TIME 1 1 double
0.09000000
DIMENSIONS    128   16   1

ORIGIN    0.000   0.000   0.000
SPACING   0.0078125 0.015625   1.000

POINT_DATA   2048
SCALARS fX double
LOOKUP_TABLE default

0 0 0 0 0 0 0 0 0 0 0 0 0 0 0 0 0 0 0 0 0 0 0 0 0 0 0 0 0 0 0 0 0 0 0 0 0 0 0 0 0 0 0 0 0 0 0 0 0 0 0 0 0 0 0 0 0 0 0 0 0 0 0 0 0 0 0 0 0 0 0 0 0 0 0 0 0 0 0 0 0 0 0 0 0 0 0 0 0 0 0 0 0 0 0 0 0 0 0 0 0 0 0 0 0 0 0 0 0 0 0 0 0 0 0 0 0 0 0 0 0 0 0 0 0 0 0 0 
0 0 0 0 0 0 0 0 0 0 0 0 0 0 0 0 0 0 0 0 0 0 0 0 0 0 0 0 0 0 0 0 0 0 0 0 0 0 0 0 0 0 0 0 0 0 0 0 0 0 0 0 0 0 0 0 0 0 0 0 0 0 0 0 0 0 0 0 0 0 0 0 0 0 0 0 0 0 0 0 0 0 0 0 0 0 0 0 0 0 0 0 0 0 0 0 0 0 0 0 0 0 0 0 0 0 0 0 0 0 0 0 0 0 0 0 0 0 0 0 0 0 0 0 0 0 0 0 
0 0 0 0 0 8.922264e-01 -1.718590e+00 -9.122595e-01 7.296145e-01 -2.007952e-01 -7.074405e-01 -1.186710e+00 1.165242e+00 4.371680e+00 5.035883e+00 3.413467e+00 4.407373e+00 4.373327e+00 4.413856e+00 3.379178e+00 1.202196e+00 3.368402e-01 6.332287e-01 -3.474560e-01 4.936800e-01 1.448821e+00 -1.606617e+00 -1.502184e+00 5.583543e-01 -7.920762e-01 -2.696495e-01 8.288483e-01 -9.041815e-01 -6.837879e-01 -1.225981e+00 -1.412729e+00 8.261401e-01 1.296312e+00 1.160267e+00 1.308451e+00 4.043072e-02 -6.124693e-01 -7.004363e-01 -1.299458e-01 8.965971e-01 1.185355e+00 -7.563325e-02 -1.600839e+00 -1.474956e+00 -5.047719e-01 8.305809e-01 1.604293e+00 9.401432e-01 8.764198e-02 2.857196e-01 9.103366e-01 1.485461e+00 6.642810e-01 -8.946858e-01 -1.104480e+00 -1.390034e+00 -1.493863e+00 -3.661782e-01 2.093062e-01 -1.503267e-01 1.166970e-02 1.424428e-01 -5.044175e-01 1.198493e+00 2.696927e+00 -8.596504e-01 -4.572332e+00 -3.821629e+00 -2.163239e+00 -1.842225e+00 -2.029865e+00 -1.729285e+00 -7.333634e-01 1.545984e-01 2.351933e-01 -1.189331e+00 -1.930672e+00 -1.908362e+00 -1.483838e+00 -9.588211e-01 -1.503827e+00 -8.345169e-01 -2.519232e-01 -1.448741e-01 -1.024086e-01 -1.254752e+00 -1.401458e+00 -7.915582e-01 -1.073342e+00 -2.172943e+00 -1.385223e+00 -1.280591e+00 -2.080184e+00 -2.265020e+00 -3.527420e+00 -1.567083e+00 -7.222924e-01 -3.674666e+00 -3.469786e+00 -3.518072e+00 -1.488599e+00 1.111255e+00 -2.057068e+00 -3.013797e+00 1.059108e-01 -1.217674e+00 -2.568376e+00 -1.538427e-01 8.884248e-01 8.908577e-01 9.044412e-01 4.590172e-02 5.026882e-01 2.306849e+00 5.980712e-01 -2.778380e-01 4.118175e-01 4.518220e-01 3.142387e-01 0 0 0 0 
0 0 0 0 0 2.624638e+00 -5.051962e+00 -2.679762e+00 2.146156e+00 -5.923629e-01 -2.083108e+00 -3.492568e+00 3.425889e+00 1.285629e+01 1.480992e+01 1.003849e+01 1.296157e+01 1.286132e+01 1.297980e+01 9.936983e+00 3.535110e+00 9.904794e-01 1.862031e+00 -1.021635e+00 1.451574e+00 4.260153e+00 -4.723950e+00 -4.416910e+00 1.641812e+00 -2.329042e+00 -7.926496e-01 2.437447e+00 -2.658682e+00 -2.010745e+00 -3.605196e+00 -4.154309e+00 2.429328e+00 3.811909e+00 3.411610e+00 3.847273e+00 1.188978e-01 -1.800868e+00 -2.059599e+00 -3.820520e-01 2.636491e+00 3.485586e+00 -2.223514e-01 -4.707317e+00 -4.337195e+00 -1.484294e+00 2.442431e+00 4.717635e+00 2.764631e+00 2.577305e-01 8.401834e-01 2.676987e+00 4.411927e+00 2.122151e+00 -2.492189e+00 -3.225540e+00 -4.075488e+00 -4.349735e+00 -8.599368e-01 8.264865e-01 3.722272e-02 9.877242e-01 1.127853e+00 9.355171e-02 5.288392e+00 8.837352e+00 -9.335296e-01 -1.231014e+01 -1.117871e+01 -6.361671e+00 -5.417709e+00 -5.969545e+00 -5.085561e+00 -2.156682e+00 4.546277e-01 6.915772e-01 -3.497820e+00 -5.678038e+00 -5.612361e+00 -4.363799e+00 -2.819722e+00 -4.422440e+00 -2.454037e+00 -7.407883e-01 -4.259945e-01 -3.011049e-01 -3.690127e+00 -4.121612e+00 -2.327931e+00 -3.156668e+00 -6.390606e+00 -4.073908e+00 -3.766141e+00 -6.117740e+00 -6.661288e+00 -1.037411e+01 -4.608939e+00 -2.124584e+00 -1.080743e+01 -1.020440e+01 -1.034584e+01 -4.376726e+00 3.268959e+00 -6.050212e+00 -8.863982e+00 3.119712e-01 -3.580552e+00 -7.553219e+00 -4.521946e-01 2.613100e+00 2.620179e+00 2.660069e+00 1.347244e-01 1.478441e+00 6.786869e+00 1.765794e+00 -7.961740e-01 1.236464e+00 1.338357e+00 9.245176e-01 0 0 0 0 
0 0 0 0 0 1.813204e+00 -3.488366e+00 -1.849441e+00 1.482586e+00 -4.100463e-01 -1.440086e+00 -2.413606e+00 2.365833e+00 3.816142e+01 4.826666e+01 4.489368e+01 5.087914e+01 4.844611e+01 4.627880e+01 4.574069e+01 2.860361e+01 6.840713e-01 1.286016e+00 -7.055591e-01 1.002480e+00 2.942208e+00 -3.262430e+00 -3.050395e+00 1.133898e+00 -1.608516e+00 -5.473170e-01 1.683519e+00 -1.836178e+00 -1.388746e+00 -2.490012e+00 -2.869245e+00 1.677836e+00 2.632730e+00 2.356140e+00 2.656995e+00 8.212182e-02 -1.243715e+00 -1.422437e+00 -2.638368e-01 1.820906e+00 2.407330e+00 -1.535429e-01 -3.251115e+00 -2.995510e+00 -1.025129e+00 1.686909e+00 3.258320e+00 1.909450e+00 1.780100e-01 5.802817e-01 1.848920e+00 3.091370e+00 1.634463e+00 -1.583184e+00 -2.195492e+00 -2.785624e+00 -2.975736e+00 -4.949221e-01 6.672978e-01 2.799650e-01 1.193328e+00 1.168939e+00 9.844033e-01 4.680816e+00 6.651713e+00 3.424076e-01 -7.800619e+00 -7.684430e+00 -4.393987e+00 -3.742034e+00 -4.123196e+00 -3.512613e+00 -1.489614e+00 3.140020e-01 4.776310e-01 -2.416044e+00 -3.921950e+00 -3.876555e+00 -3.014119e+00 -1.947580e+00 -3.054554e+00 -1.694939e+00 -5.116267e-01 -2.942077e-01 -2.079436e-01 -2.548828e+00 -2.846879e+00 -1.607949e+00 -2.180386e+00 -4.414164e+00 -2.813949e+00 -2.601344e+00 -4.225660e+00 -4.601076e+00 -7.165675e+00 -3.183598e+00 -1.467667e+00 -7.465117e+00 -7.048358e+00 -7.145773e+00 -3.022527e+00 2.258332e+00 -4.179236e+00 -6.122802e+00 2.157237e-01 -2.472886e+00 -5.217043e+00 -3.122193e-01 1.805060e+00 1.809913e+00 1.837438e+00 9.292591e-02 1.021218e+00 4.689061e+00 1.223012e+00 -5.397887e-01 8.663255e-01 9.290679e-01 6.387564e-01 0 0 0 0 
0 0 0 0 0 8.079207e-02 -1.549944e-01 -8.193830e-02 6.604433e-02 -1.847850e-02 -6.441896e-02 -1.077482e-01 1.051856e-01 4.453080e+01 4.815842e+01 4.511747e+01 4.656166e+01 4.636407e+01 4.492435e+01 4.680587e+01 4.138776e+01 3.043209e-02 5.721316e-02 -3.138055e-02 4.458562e-02 1.308758e-01 -1.450966e-01 -1.356694e-01 5.043974e-02 -7.155017e-02 -2.431693e-02 7.492083e-02 -8.167744e-02 -6.178872e-02 -1.107967e-01 -1.276648e-01 7.464889e-02 1.171337e-01 1.047974e-01 1.181729e-01 3.654709e-03 -5.531662e-02 -6.327516e-02 -1.173060e-02 8.101174e-02 1.070998e-01 -6.824674e-03 -1.446371e-01 -1.332706e-01 -4.560604e-02 7.505812e-02 1.449776e-01 8.496219e-02 7.921428e-03 2.581782e-02 8.226956e-02 1.636808e-01 1.670472e-01 4.043306e-03 -7.962217e-02 -1.055889e-01 -1.221503e-01 4.937968e-03 5.908410e-02 9.972074e-02 2.349284e-01 1.990774e-01 4.182221e-01 6.325668e-01 5.196097e-01 4.031122e-01 -7.262013e-02 -3.279710e-01 -1.955553e-01 -1.665499e-01 -1.835162e-01 -1.563376e-01 -6.629569e-02 1.397269e-02 2.124711e-02 -1.075545e-01 -1.745844e-01 -1.725559e-01 -1.341582e-01 -8.667919e-02 -1.359405e-01 -7.541921e-02 -2.276153e-02 -1.308734e-02 -9.247295e-03 -1.134535e-01 -1.267247e-01 -7.157574e-02 -9.706024e-02 -1.965021e-01 -1.252641e-01 -1.157942e-01 -1.881034e-01 -2.048087e-01 -3.189888e-01 -1.417420e-01 -6.537553e-02 -3.323527e-01 -3.137416e-01 -3.180073e-01 -1.344004e-01 1.006272e-01 -1.860924e-01 -2.726177e-01 9.663314e-03 -1.100080e-01 -2.322002e-01 -1.386743e-02 8.038544e-02 8.059213e-02 8.181011e-02 4.103223e-03 4.546573e-02 2.090408e-01 5.528958e-02 -2.145279e-02 4.167884e-02 4.253328e-02 2.847748e-02 0 0 0 0 
0 0 0 0 0 0 0 0 0 0 0 0 0 4.822348e+01 5.209184e+01 4.947208e+01 5.097397e+01 5.078374e+01 4.901415e+01 5.172158e+01 4.661096e+01 0 0 0 0 0 0 0 0 0 0 0 0 0 0 0 0 0 0 0 0 0 0 0 0 0 0 0 0 0 0 0 0 0 0 0 -4.108499e-03 -2.392523e-02 -2.371026e-02 -5.619856e-03 -2.270417e-03 1.887367e-03 2.419594e-02 2.853664e-02 1.815089e-02 3.431534e-02 2.588715e-02 3.057252e-02 3.804239e-02 4.467076e-03 -1.895442e-02 -1.378802e-02 -7.869281e-04 0 0 0 0 0 0 0 0 0 0 0 0 0 0 0 0 0 0 0 0 0 0 0 0 0 0 0 0 0 0 0 0 0 0 0 0 0 0 0 0 0 0 0 0 0 0 0 0 0 0 0 0 0 0 0 
0 0 0 0 0 0 0 0 0 0 0 0 0 4.836782e+01 4.978422e+01 4.853749e+01 4.895985e+01 4.909628e+01 4.826945e+01 4.981239e+01 4.790105e+01 0 0 0 0 0 0 0 0 0 0 0 0 0 0 0 0 0 0 0 0 0 0 0 0 0 0 0 0 0 0 0 0 0 0 0 -3.354351e-03 -1.695216e-02 -1.594134e-02 -8.668905e-04 3.063619e-03 4.379645e-03 2.011622e-02 2.183613e-02 1.114978e-02 1.613304e-02 9.617989e-03 -6.565405e-03 -1.064442e-02 -6.399395e-03 -7.394681e-03 -5.212158e-03 -2.600090e-04 0 0 0 0 0 0 0 0 0 0 0 0 0 0 0 0 0 0 0 0 0 0 0 0 0 0 0 0 0 0 0 0 0 0 0 0 0 0 0 0 0 0 0 0 0 0 0 0 0 0 0 0 0 0 0 
0 0 0 0 0 0 0 0 0 0 0 0 0 5.073270e+01 5.269137e+01 5.117680e+01 5.182607e+01 5.204319e+01 5.093039e+01 5.300679e+01 5.042389e+01 0 0 0 0 0 0 0 0 0 0 0 0 0 0 0 0 0 0 0 0 0 0 0 0 0 0 0 0 0 0 0 0 0 0 0 -6.154871e-04 -3.358315e-03 -3.265712e-03 -9.246124e-04 -8.637747e-04 -3.206918e-04 1.146040e-03 1.293406e-03 -2.456037e-04 -1.429054e-03 -1.254809e-03 -4.744484e-03 -6.220602e-03 -2.500040e-03 -2.277706e-03 -1.741070e-03 -1.272066e-04 0 0 0 0 0 0 0 0 0 0 0 0 0 0 0 0 0 0 0 0 0 0 0 0 0 0 0 0 0 0 0 0 0 0 0 0 0 0 0 0 0 0 0 0 0 0 0 0 0 0 0 0 0 0 0 
0 0 0 0 0 0 0 0 0 0 0 0 0 4.857300e+01 4.996772e+01 4.891933e+01 4.934548e+01 4.972653e+01 4.885671e+01 5.071514e+01 4.879678e+01 0 0 0 0 0 0 0 0 0 0 0 0 0 0 0 0 0 0 0 0 0 0 0 0 0 0 0 0 0 0 0 0 0 0 0 -1.187368e-04 -6.770023e-04 -6.703287e-04 7.756558e-04 1.812830e-03 1.441280e-03 3.781483e-03 4.126848e-03 3.976162e-03 8.042583e-03 5.686455e-03 7.485237e-03 9.223115e-03 5.478364e-03 9.678424e-03 7.143801e-03 4.473625e-04 0 0 0 0 0 0 0 0 0 0 0 0 0 0 0 0 0 0 0 0 0 0 0 0 0 0 0 0 0 0 0 0 0 0 0 0 0 0 0 0 0 0 0 0 0 0 0 0 0 0 0 0 0 0 0 
0 0 0 0 0 0 0 0 0 0 0 0 0 4.852645e+01 5.213135e+01 4.970778e+01 5.131526e+01 5.142939e+01 4.980495e+01 5.359268e+01 4.865242e+01 0 0 0 0 0 0 0 0 0 0 0 0 0 0 0 0 0 0 0 0 0 0 0 0 0 0 0 0 0 0 0 0 0 0 0 1.909544e-04 9.733864e-04 9.180332e-04 1.687649e-03 3.273593e-03 2.716019e-03 7.585084e-03 8.396870e-03 1.037260e-02 2.273430e-02 1.671074e-02 2.787193e-02 3.530003e-02 1.806667e-02 2.811327e-02 2.159435e-02 1.576853e-03 0 0 0 0 0 0 0 0 0 0 0 0 0 0 0 0 0 0 0 0 0 0 0 0 0 0 0 0 0 0 0 0 0 0 0 0 0 0 0 0 0 0 0 0 0 0 0 0 0 0 0 0 0 0 0 
0 0 0 0 0 7.210150e-02 -2.235891e-01 -2.328326e-01 -1.172341e-01 -1.242517e-01 -4.071880e-02 -4.384973e-02 1.103126e-01 4.457305e+01 4.810141e+01 4.597214e+01 4.770709e+01 4.813810e+01 4.622994e+01 5.068133e+01 4.588404e+01 1.682161e-01 -3.871881e-02 -1.567324e-01 -9.804133e-02 -1.360379e-01 -2.571009e-01 -1.374996e-01 -8.064411e-02 -1.337640e-01 -9.185486e-02 -1.382180e-01 -2.149265e-01 -1.382460e-01 -1.131343e-01 -4.717257e-02 1.949916e-02 1.216301e-02 -3.629363e-02 -9.645184e-02 -1.087694e-01 -8.555803e-02 -8.574848e-02 -6.874430e-02 -9.253158e-02 -6.747603e-02 5.535227e-03 1.509887e-02 4.407120e-02 1.845022e-02 -4.553068e-02 -5.125293e-02 -5.485368e-02 -1.593955e-02 7.221598e-02 1.091463e-01 1.069682e-01 5.248311e-02 7.105881e-03 1.978352e-02 -2.617575e-04 -1.385958e-02 -4.421123e-02 -1.215390e-01 -9.011343e-02 -1.053911e-01 -1.500615e-01 -1.405562e-01 -2.064090e-01 -2.281993e-01 -1.645876e-01 -1.037881e-01 -6.756904e-02 -3.091952e-02 -1.513561e-02 8.456660e-03 5.671745e-02 6.359644e-02 2.246548e-02 -2.893250e-02 -4.680889e-02 -6.760097e-02 -7.583024e-02 -9.921888e-02 -1.852928e-01 -2.104920e-01 -2.155112e-01 -2.581305e-01 -1.939414e-01 -1.725651e-01 -1.691947e-01 -1.755331e-02 -6.083941e-03 -3.205887e-02 1.647749e-02 -1.128802e-02 -6.756687e-02 -1.007623e-01 -1.522997e-01 -1.947384e-01 -1.716629e-01 -1.359331e-01 -1.732992e-01 -1.239425e-01 -8.820827e-02 -1.030502e-01 -7.283728e-02 -2.614648e-02 -8.283739e-03 3.946470e-02 1.993996e-02 -3.033035e-02 -3.480441e-04 1.980561e-02 -3.194468e-02 -4.702647e-02 1.196668e-03 -3.206274e-02 -3.179957e-02 2.855652e-02 1.188038e-01 -1.950850e-02 -7.083735e-02 1.553306e-02 0 0 0 0 
0 0 0 0 0 1.618115e+00 -5.028358e+00 -5.237639e+00 -2.632477e+00 -2.784654e+00 -9.083369e-01 -9.790790e-01 2.481257e+00 3.967354e+01 4.802090e+01 4.347405e+01 5.056823e+01 4.606261e+01 4.426954e+01 5.035810e+01 3.786688e+01 3.781979e+00 -8.707324e-01 -3.524550e+00 -2.204940e+00 -3.059305e+00 -5.781219e+00 -3.091556e+00 -1.812984e+00 -3.007098e+00 -2.065211e+00 -3.107505e+00 -4.831641e+00 -3.107764e+00 -2.543288e+00 -1.060371e+00 4.384580e-01 2.734696e-01 -8.159028e-01 -2.168121e+00 -2.444859e+00 -1.922938e+00 -1.927117e+00 -1.545115e+00 -2.080079e+00 -1.516914e+00 1.243290e-01 3.393122e-01 9.905270e-01 4.147469e-01 -1.023261e+00 -1.151905e+00 -1.232860e+00 -3.583262e-01 1.622948e+00 2.453004e+00 2.400133e+00 1.158618e+00 1.396470e-01 4.674535e-01 4.539838e-02 -2.691500e-01 -8.796122e-01 -2.610791e+00 -1.922069e+00 -2.191513e+00 -3.251050e+00 -3.040133e+00 -4.540386e+00 -5.036793e+00 -3.522977e+00 -2.253061e+00 -1.526819e+00 -6.947893e-01 -3.400123e-01 1.900281e-01 1.274303e+00 1.428930e+00 5.047908e-01 -6.501186e-01 -1.051784e+00 -1.518905e+00 -1.703779e+00 -2.229286e+00 -4.163014e+00 -4.729050e+00 -4.841640e+00 -5.799105e+00 -4.357134e+00 -3.876749e+00 -3.800948e+00 -3.941356e-01 -1.365062e-01 -7.201869e-01 3.701789e-01 -2.535253e-01 -1.517723e+00 -2.263442e+00 -3.421386e+00 -4.374684e+00 -3.856377e+00 -3.054034e+00 -3.894072e+00 -2.785681e+00 -1.982668e+00 -2.315879e+00 -1.636961e+00 -5.884749e-01 -1.873420e-01 8.851874e-01 4.465402e-01 -6.822883e-01 -8.326918e-03 4.447472e-01 -7.174390e-01 -1.056242e+00 2.704942e-02 -7.206498e-01 -7.177377e-01 6.254057e-01 2.606679e+00 -5.107262e-01 -1.615547e+00 3.483749e-01 0 0 0 0 
0 0 0 0 0 2.342233e+00 -7.281256e+00 -7.584659e+00 -3.810906e+00 -4.029834e+00 -1.313431e+00 -1.415952e+00 3.593059e+00 1.088577e+01 1.434158e+01 1.274247e+01 1.586932e+01 1.272425e+01 1.059211e+01 1.064536e+01 9.831320e+00 5.476179e+00 -1.260848e+00 -5.103621e+00 -3.192854e+00 -4.429970e+00 -8.371228e+00 -4.476513e+00 -2.625108e+00 -4.354100e+00 -2.990369e+00 -4.499555e+00 -6.995920e+00 -4.499836e+00 -3.682521e+00 -1.535329e+00 6.348880e-01 3.959774e-01 -1.181379e+00 -3.139267e+00 -3.539924e+00 -2.784184e+00 -2.790209e+00 -2.237159e+00 -3.011810e+00 -2.196404e+00 1.799941e-01 4.912736e-01 1.434169e+00 6.005226e-01 -1.481546e+00 -1.667817e+00 -1.785037e+00 -5.188339e-01 2.349802e+00 3.551635e+00 3.475077e+00 1.677430e+00 2.020896e-01 6.790229e-01 7.026767e-02 -3.856643e-01 -1.261241e+00 -3.766668e+00 -2.766775e+00 -3.139668e+00 -4.682631e+00 -4.361197e+00 -6.525622e+00 -7.266807e+00 -5.061341e+00 -3.235180e+00 -2.209492e+00 -1.005938e+00 -4.922555e-01 2.751284e-01 1.844927e+00 2.068815e+00 7.308446e-01 -9.412568e-01 -1.522793e+00 -2.199080e+00 -2.466735e+00 -3.227567e+00 -6.027168e+00 -6.846640e+00 -7.009600e+00 -8.395790e+00 -6.308166e+00 -5.612638e+00 -5.502875e+00 -5.705648e-01 -1.975859e-01 -1.042657e+00 5.359349e-01 -3.670297e-01 -2.197263e+00 -3.276884e+00 -4.953354e+00 -6.333484e+00 -5.583118e+00 -4.421598e+00 -5.637930e+00 -4.033344e+00 -2.870707e+00 -3.353065e+00 -2.370105e+00 -8.522509e-01 -2.715438e-01 1.281191e+00 6.461270e-01 -9.880256e-01 -1.218439e-02 6.438421e-01 -1.038632e+00 -1.529137e+00 3.920340e-02 -1.043423e+00 -1.039968e+00 9.013503e-01 3.758056e+00 -7.578109e-01 -2.345074e+00 5.042189e-01 0 0 0 0 
0 0 0 0 0 7.962188e-01 -2.476487e+00 -2.579852e+00 -1.295663e+00 -1.369431e+00 -4.458129e-01 -4.807226e-01 1.222114e+00 3.701716e+00 4.876606e+00 4.332833e+00 5.396069e+00 4.326669e+00 3.601861e+00 3.620106e+00 3.343510e+00 1.862415e+00 -4.288341e-01 -1.735804e+00 -1.085955e+00 -1.506703e+00 -2.847110e+00 -1.522456e+00 -8.927680e-01 -1.480766e+00 -1.017013e+00 -1.530268e+00 -2.379206e+00 -1.530318e+00 -1.252367e+00 -5.221312e-01 2.159291e-01 1.346708e-01 -4.017698e-01 -1.067598e+00 -1.203835e+00 -9.468041e-01 -9.488406e-01 -7.607886e-01 -1.024262e+00 -7.469666e-01 6.120033e-02 1.670603e-01 4.877128e-01 2.042259e-01 -5.038159e-01 -5.671645e-01 -6.070301e-01 -1.764473e-01 7.990707e-01 1.207777e+00 1.181748e+00 5.704293e-01 6.871956e-02 2.309280e-01 2.392633e-02 -1.311221e-01 -4.287676e-01 -1.280713e+00 -9.406656e-01 -1.067335e+00 -1.592132e+00 -1.482613e+00 -2.218538e+00 -2.470845e+00 -1.720724e+00 -1.099855e+00 -7.513354e-01 -3.420678e-01 -1.673788e-01 9.355701e-02 6.273419e-01 7.034809e-01 2.485192e-01 -3.200707e-01 -5.178172e-01 -7.477762e-01 -8.387862e-01 -1.097499e+00 -2.049447e+00 -2.328081e+00 -2.383472e+00 -2.854816e+00 -2.144973e+00 -1.908455e+00 -1.871122e+00 -1.939826e-01 -6.716358e-02 -3.545291e-01 1.822335e-01 -1.247924e-01 -7.471071e-01 -1.114205e+00 -1.684268e+00 -2.153538e+00 -1.898404e+00 -1.503497e+00 -1.917157e+00 -1.371605e+00 -9.762479e-01 -1.140236e+00 -8.059812e-01 -2.899224e-01 -9.248554e-02 4.354682e-01 2.195267e-01 -3.360677e-01 -4.205520e-03 2.189005e-01 -3.531381e-01 -5.199214e-01 1.335064e-02 -3.548356e-01 -3.540300e-01 3.045011e-01 1.270181e+00 -2.665932e-01 -8.003642e-01 1.713770e-01 0 0 0 0 
0 0 0 0 0 0 0 0 0 0 0 0 0 0 0 0 0 0 0 0 0 0 0 0 0 0 0 0 0 0 0 0 0 0 0 0 0 0 0 0 0 0 0 0 0 0 0 0 0 0 0 0 0 0 0 0 0 0 0 0 0 0 0 0 0 0 0 0 0 0 0 0 0 0 0 0 0 0 0 0 0 0 0 0 0 0 0 0 0 0 0 0 0 0 0 0 0 0 0 0 0 0 0 0 0 0 0 0 0 0 0 0 0 0 0 0 0 0 0 0 0 0 0 0 0 0 0 0 
