# vtk DataFile Version 2.0
Comment goes here
ASCII

DATASET STRUCTURED_POINTS
FIELD FieldData 1
TIME 1 1 double
0.69000000
DIMENSIONS    128   16   1

ORIGIN    0.000   0.000   0.000
SPACING   0.0078125 0.015625   1.000

POINT_DATA   2048
SCALARS fY double
LOOKUP_TABLE default

0 0 0 0 0 0 0 0 0 0 0 0 0 0 0 0 0 0 0 0 0 0 0 0 0 0 0 0 0 0 0 0 0 0 0 0 0 0 0 0 0 0 0 0 0 0 0 0 0 0 0 0 0 0 0 0 0 0 0 0 0 0 0 0 0 0 0 0 0 0 0 0 0 0 0 0 0 0 0 0 0 0 0 0 0 0 0 0 0 0 0 0 0 0 0 0 0 0 0 0 0 0 0 0 0 0 0 0 0 0 0 0 0 0 0 0 0 0 0 0 0 0 0 0 0 0 0 0 
0 0 0 0 0 0 0 0 0 0 0 0 0 0 0 0 0 0 0 0 0 0 0 0 0 0 0 0 0 0 0 0 0 0 0 0 0 0 0 0 0 0 0 0 0 0 0 0 0 0 0 0 0 0 0 0 0 0 0 0 0 0 0 0 0 0 0 0 0 0 0 0 0 0 0 0 0 0 0 0 0 0 0 0 0 0 0 0 0 0 0 0 0 0 0 0 0 0 0 0 0 0 0 0 0 0 0 0 0 0 0 0 0 0 0 0 0 0 0 0 0 0 0 0 0 0 0 0 
0 0 0 0 0 -5.583004e-01 -1.502250e+00 -1.124465e+00 -1.958670e+00 -1.561339e+00 -2.403662e+00 -1.926932e+00 -2.786315e+00 -1.586960e+00 3.149635e+00 5.788789e+00 9.846242e+00 1.358697e+01 1.707630e+01 2.073831e+01 2.514802e+01 2.593345e+01 2.544455e+01 2.554959e+01 2.515493e+01 2.510307e+01 2.476006e+01 2.455779e+01 2.427540e+01 2.399543e+01 2.381304e+01 2.351735e+01 2.341426e+01 2.309523e+01 2.299596e+01 2.263026e+01 2.248466e+01 2.209397e+01 2.190825e+01 2.154928e+01 2.135272e+01 2.106572e+01 2.086421e+01 2.064595e+01 2.042640e+01 2.025348e+01 1.999922e+01 1.982682e+01 1.950985e+01 1.929178e+01 1.891911e+01 1.866686e+01 1.831005e+01 1.808752e+01 1.783429e+01 1.768566e+01 1.765717e+01 1.781382e+01 1.758843e+01 1.677550e+01 1.633619e+01 1.592901e+01 1.496913e+01 1.463666e+01 1.432143e+01 1.341556e+01 1.393000e+01 1.302163e+01 1.278643e+01 1.522171e+01 1.730640e+01 1.610823e+01 1.378535e+01 1.334944e+01 1.301561e+01 1.284620e+01 1.259510e+01 1.249772e+01 1.219200e+01 1.204424e+01 1.165120e+01 1.147036e+01 1.107988e+01 1.091965e+01 1.057554e+01 1.039790e+01 1.007819e+01 9.846418e+00 9.576549e+00 9.309619e+00 9.127296e+00 8.826996e+00 8.716424e+00 8.338990e+00 8.241713e+00 7.759254e+00 7.671166e+00 7.155132e+00 7.134153e+00 6.669626e+00 6.708087e+00 6.289536e+00 6.281631e+00 5.850742e+00 5.700394e+00 5.280763e+00 5.014835e+00 4.723183e+00 4.405386e+00 4.309254e+00 3.934881e+00 3.996757e+00 3.492608e+00 3.606008e+00 2.931452e+00 3.055942e+00 2.310525e+00 2.466122e+00 1.784917e+00 1.907490e+00 1.399032e+00 1.280718e+00 1.132554e+00 -5.575086e-01 0 0 0 0 
0 0 0 0 0 -1.642336e+00 -4.419745e+00 -3.308904e+00 -5.762238e+00 -4.593934e+00 -7.072528e+00 -5.671283e+00 -8.200086e+00 -4.672739e+00 9.260838e+00 1.702325e+01 2.895593e+01 3.995541e+01 5.021512e+01 6.098091e+01 7.394445e+01 7.625357e+01 7.481650e+01 7.512525e+01 7.396511e+01 7.381261e+01 7.280431e+01 7.220971e+01 7.137956e+01 7.055660e+01 7.002046e+01 6.915127e+01 6.884825e+01 6.791045e+01 6.761867e+01 6.654363e+01 6.611563e+01 6.496711e+01 6.442112e+01 6.336582e+01 6.278798e+01 6.194426e+01 6.135185e+01 6.071019e+01 6.006477e+01 5.955643e+01 5.880894e+01 5.830210e+01 5.737028e+01 5.672917e+01 5.563354e+01 5.489195e+01 5.384294e+01 5.318870e+01 5.244421e+01 5.200722e+01 5.162099e+01 5.128219e+01 5.085747e+01 4.983629e+01 4.899755e+01 4.772047e+01 4.646653e+01 4.533027e+01 4.463488e+01 4.389607e+01 4.390045e+01 4.346048e+01 4.331556e+01 4.357997e+01 4.387212e+01 4.255139e+01 4.033239e+01 3.925793e+01 3.827638e+01 3.777825e+01 3.703994e+01 3.675359e+01 3.585466e+01 3.542016e+01 3.426444e+01 3.373268e+01 3.258442e+01 3.211325e+01 3.110134e+01 3.057896e+01 2.963879e+01 2.895725e+01 2.816365e+01 2.737874e+01 2.684262e+01 2.595959e+01 2.563448e+01 2.452463e+01 2.423860e+01 2.281985e+01 2.256081e+01 2.104325e+01 2.098149e+01 1.961530e+01 1.972828e+01 1.849722e+01 1.847380e+01 1.720642e+01 1.676415e+01 1.552990e+01 1.474782e+01 1.389005e+01 1.295554e+01 1.267294e+01 1.157213e+01 1.175431e+01 1.027184e+01 1.060551e+01 8.621711e+00 8.987746e+00 6.794986e+00 7.251410e+00 5.244475e+00 5.594537e+00 4.063878e+00 3.707129e+00 3.309919e+00 -1.640211e+00 0 0 0 0 
0 0 0 0 0 -1.134591e+00 -3.053634e+00 -2.286453e+00 -3.981010e+00 -3.174149e+00 -4.886826e+00 -3.919342e+00 -5.666716e+00 -7.083873e+00 9.074674e+00 8.489507e+00 2.405378e+01 2.316928e+01 3.930342e+01 3.765484e+01 5.448266e+01 5.266244e+01 5.167018e+01 5.188336e+01 5.108229e+01 5.097698e+01 5.028073e+01 4.987017e+01 4.929694e+01 4.872870e+01 4.835850e+01 4.775834e+01 4.754912e+01 4.690158e+01 4.670011e+01 4.595780e+01 4.566226e+01 4.486919e+01 4.449217e+01 4.376346e+01 4.336444e+01 4.278181e+01 4.237274e+01 4.192964e+01 4.148397e+01 4.113294e+01 4.061677e+01 4.026678e+01 3.962332e+01 3.918061e+01 3.842402e+01 3.791191e+01 3.718751e+01 3.673572e+01 3.622159e+01 3.591982e+01 3.554592e+01 3.505247e+01 3.485146e+01 3.478646e+01 3.444100e+01 3.345674e+01 3.336816e+01 3.244640e+01 3.196151e+01 3.218212e+01 3.145806e+01 3.187195e+01 3.190445e+01 2.898058e+01 2.594997e+01 2.643427e+01 2.773709e+01 2.711524e+01 2.643736e+01 2.609335e+01 2.558346e+01 2.538569e+01 2.476486e+01 2.446478e+01 2.366658e+01 2.329932e+01 2.250627e+01 2.218085e+01 2.148194e+01 2.112115e+01 2.047179e+01 2.000108e+01 1.945297e+01 1.891087e+01 1.854059e+01 1.793074e+01 1.770621e+01 1.693970e+01 1.674216e+01 1.576227e+01 1.558335e+01 1.453518e+01 1.449249e+01 1.354882e+01 1.362679e+01 1.277641e+01 1.276016e+01 1.188467e+01 1.157914e+01 1.072655e+01 1.018635e+01 9.593859e+00 8.948424e+00 8.753277e+00 7.993028e+00 8.118961e+00 7.095094e+00 7.325645e+00 5.955414e+00 6.208200e+00 4.693362e+00 5.008052e+00 3.620102e+00 3.856849e+00 2.782479e+00 2.531804e+00 2.276117e+00 -1.133221e+00 0 0 0 0 
0 0 0 0 0 -5.055455e-02 -1.361387e-01 -1.020136e-01 -1.774422e-01 -1.415539e-01 -2.179597e-01 -1.749907e-01 -2.529453e-01 -3.119370e+00 3.044847e+00 -2.241331e+00 4.884678e+00 -3.092856e+00 5.799630e+00 -2.758665e+00 4.708360e+00 2.342313e+00 2.298235e+00 2.307703e+00 2.272111e+00 2.267428e+00 2.236490e+00 2.218248e+00 2.192776e+00 2.167531e+00 2.151084e+00 2.124421e+00 2.115128e+00 2.086359e+00 2.077409e+00 2.044426e+00 2.031294e+00 1.996050e+00 1.979295e+00 1.946908e+00 1.929174e+00 1.903279e+00 1.885098e+00 1.865403e+00 1.845596e+00 1.829993e+00 1.807053e+00 1.791497e+00 1.762897e+00 1.743219e+00 1.709588e+00 1.686823e+00 1.654620e+00 1.634536e+00 1.611679e+00 1.598263e+00 1.502740e+00 9.758518e-01 9.226365e-01 1.256859e+00 1.033286e+00 1.179866e+00 1.383421e+00 1.247236e+00 1.408451e+00 1.488748e+00 1.387771e+00 1.465597e+00 1.580297e+00 6.680000e-01 -1.172830e+00 -5.425997e-01 1.118043e+00 1.206745e+00 1.176597e+00 1.161296e+00 1.138617e+00 1.129821e+00 1.102206e+00 1.088856e+00 1.053348e+00 1.037008e+00 1.001724e+00 9.872440e-01 9.561454e-01 9.400915e-01 9.111964e-01 8.902542e-01 8.658649e-01 8.417488e-01 8.252752e-01 7.981464e-01 7.881600e-01 7.540597e-01 7.452734e-01 7.016733e-01 6.937111e-01 6.470609e-01 6.451538e-01 6.031421e-01 6.065962e-01 5.687273e-01 5.679840e-01 5.289933e-01 5.153795e-01 4.774116e-01 4.533644e-01 4.269868e-01 3.982697e-01 3.895968e-01 3.557805e-01 3.614115e-01 3.158613e-01 3.261442e-01 2.651546e-01 2.763965e-01 2.089006e-01 2.227639e-01 1.605443e-01 1.698010e-01 1.176327e-01 1.053940e-01 9.875259e-02 -5.051857e-02 0 0 0 0 
0 0 0 0 0 0 0 0 0 0 0 0 0 -1.583151e+00 4.440706e-01 -1.510770e+00 1.207120e+00 -1.339930e+00 1.545178e+00 -7.117931e-01 1.346134e+00 0 0 0 0 0 0 0 0 0 0 0 0 0 0 0 0 0 0 0 0 0 0 0 0 0 0 0 0 0 0 0 0 0 0 0 -5.390270e-02 -3.675422e-01 -3.783882e-01 -2.697678e-01 -3.872172e-01 -2.285941e-01 -1.839481e-01 -1.291188e-01 -7.399473e-02 -2.015330e-02 3.752507e-02 -7.298937e-02 1.919532e-02 -4.741304e-03 -4.232273e-01 -4.035789e-01 -5.252790e-02 0 0 0 0 0 0 0 0 0 0 0 0 0 0 0 0 0 0 0 0 0 0 0 0 0 0 0 0 0 0 0 0 0 0 0 0 0 0 0 0 0 0 0 0 0 0 0 0 0 0 0 0 0 0 0 
0 0 0 0 0 0 0 0 0 0 0 0 0 -7.900639e-01 4.255378e-01 -8.917491e-01 8.675469e-01 -9.467584e-01 9.622250e-01 -6.305585e-01 6.469869e-01 0 0 0 0 0 0 0 0 0 0 0 0 0 0 0 0 0 0 0 0 0 0 0 0 0 0 0 0 0 0 0 0 0 0 0 -4.600962e-02 -1.627863e-01 -1.159214e-01 -1.788338e-01 -3.417735e-01 -2.116520e-01 -3.894454e-01 -4.256539e-01 -3.147837e-01 -6.502666e-01 -4.639832e-01 -5.584224e-01 -7.764942e-01 -3.991791e-01 -4.380774e-01 -3.149621e-01 -1.526781e-02 0 0 0 0 0 0 0 0 0 0 0 0 0 0 0 0 0 0 0 0 0 0 0 0 0 0 0 0 0 0 0 0 0 0 0 0 0 0 0 0 0 0 0 0 0 0 0 0 0 0 0 0 0 0 0 
0 0 0 0 0 0 0 0 0 0 0 0 0 2.485497e-04 -6.670524e-04 -8.408432e-04 -1.024105e-03 -1.604840e-03 -1.034835e-03 -1.862260e-03 -3.985584e-04 0 0 0 0 0 0 0 0 0 0 0 0 0 0 0 0 0 0 0 0 0 0 0 0 0 0 0 0 0 0 0 0 0 0 0 -2.526389e-02 -2.235934e-01 -2.528501e-01 -2.097271e-01 -4.316660e-01 -2.996721e-01 -3.451804e-01 -4.537598e-01 -2.834260e-01 -5.333343e-01 -4.200218e-01 -4.034247e-01 -5.609319e-01 -2.908850e-01 -3.889220e-01 -3.267359e-01 -3.287006e-02 0 0 0 0 0 0 0 0 0 0 0 0 0 0 0 0 0 0 0 0 0 0 0 0 0 0 0 0 0 0 0 0 0 0 0 0 0 0 0 0 0 0 0 0 0 0 0 0 0 0 0 0 0 0 0 
0 0 0 0 0 0 0 0 0 0 0 0 0 7.903808e-01 -4.265745e-01 8.898481e-01 -8.699809e-01 9.420485e-01 -9.663077e-01 6.237657e-01 -6.515607e-01 0 0 0 0 0 0 0 0 0 0 0 0 0 0 0 0 0 0 0 0 0 0 0 0 0 0 0 0 0 0 0 0 0 0 0 -4.850649e-02 -1.239193e-01 -7.426064e-02 -1.527954e-01 -1.638542e-01 -7.462212e-02 -1.792722e-01 -9.627600e-02 -1.423613e-01 -2.149132e-01 -8.719866e-02 -2.070347e-01 -1.928440e-01 -9.703671e-02 -1.501347e-01 -6.513799e-02 6.696843e-03 0 0 0 0 0 0 0 0 0 0 0 0 0 0 0 0 0 0 0 0 0 0 0 0 0 0 0 0 0 0 0 0 0 0 0 0 0 0 0 0 0 0 0 0 0 0 0 0 0 0 0 0 0 0 0 
0 0 0 0 0 0 0 0 0 0 0 0 0 1.582189e+00 -4.466740e-01 1.507815e+00 -1.210553e+00 1.334697e+00 -1.548360e+00 7.048336e-01 -1.347829e+00 0 0 0 0 0 0 0 0 0 0 0 0 0 0 0 0 0 0 0 0 0 0 0 0 0 0 0 0 0 0 0 0 0 0 0 -2.575469e-01 -9.940786e-01 -8.141697e-01 -1.027708e+00 -1.631325e+00 -9.688418e-01 -1.633419e+00 -1.608230e+00 -1.140199e+00 -2.016351e+00 -1.288719e+00 -1.426755e+00 -1.680237e+00 -7.404126e-01 -1.048835e+00 -7.447687e-01 -3.269600e-02 0 0 0 0 0 0 0 0 0 0 0 0 0 0 0 0 0 0 0 0 0 0 0 0 0 0 0 0 0 0 0 0 0 0 0 0 0 0 0 0 0 0 0 0 0 0 0 0 0 0 0 0 0 0 0 
0 0 0 0 0 5.059298e-02 1.361720e-01 1.020220e-01 1.772264e-01 1.412366e-01 2.177936e-01 1.751063e-01 2.531206e-01 3.114421e+00 -3.043518e+00 2.241957e+00 -4.885930e+00 3.085611e+00 -5.804055e+00 2.734356e+00 -4.723430e+00 -2.341970e+00 -2.297360e+00 -2.307230e+00 -2.271990e+00 -2.268698e+00 -2.237838e+00 -2.219872e+00 -2.192338e+00 -2.165715e+00 -2.146639e+00 -2.119754e+00 -2.110403e+00 -2.083935e+00 -2.076914e+00 -2.046063e+00 -2.034252e+00 -1.999279e+00 -1.983350e+00 -1.950101e+00 -1.933569e+00 -1.906232e+00 -1.889666e+00 -1.867346e+00 -1.847351e+00 -1.825948e+00 -1.800557e+00 -1.780092e+00 -1.753219e+00 -1.736587e+00 -1.711054e+00 -1.696353e+00 -1.669801e+00 -1.651996e+00 -1.622622e+00 -1.601106e+00 -1.253096e+00 -1.471827e-01 -2.830842e-01 -9.330480e-02 6.566694e-01 -1.137604e-01 9.316591e-01 8.338866e-01 2.136798e-01 1.064811e+00 7.598904e-02 2.091731e-01 1.716074e-01 -5.590229e-01 -2.293991e-01 -7.440926e-01 -1.248536e+00 -1.209191e+00 -1.183961e+00 -1.163580e+00 -1.134329e+00 -1.116405e+00 -1.086867e+00 -1.073880e+00 -1.045857e+00 -1.035610e+00 -1.006317e+00 -9.928021e-01 -9.603115e-01 -9.417046e-01 -9.099410e-01 -8.887857e-01 -8.638056e-01 -8.426935e-01 -8.270335e-01 -8.025868e-01 -7.908952e-01 -7.565028e-01 -7.452300e-01 -7.026008e-01 -6.955098e-01 -6.517259e-01 -6.513628e-01 -6.095289e-01 -6.108278e-01 -5.685238e-01 -5.639736e-01 -5.222915e-01 -5.103455e-01 -4.755219e-01 -4.571734e-01 -4.350493e-01 -4.105188e-01 -4.024833e-01 -3.669507e-01 -3.669538e-01 -3.150744e-01 -3.196734e-01 -2.559510e-01 -2.674223e-01 -2.024515e-01 -2.205456e-01 -1.622332e-01 -1.744210e-01 -1.222340e-01 -1.084873e-01 -9.954245e-02 5.048814e-02 0 0 0 0 
0 0 0 0 0 1.135452e+00 3.054376e+00 2.286634e+00 3.976166e+00 3.167031e+00 4.883105e+00 3.921950e+00 5.670667e+00 7.077291e+00 -9.079243e+00 -8.490346e+00 -2.405809e+01 -2.317097e+01 -3.931067e+01 -3.766773e+01 -5.450517e+01 -5.265472e+01 -5.165049e+01 -5.187271e+01 -5.107956e+01 -5.100556e+01 -5.031108e+01 -4.990673e+01 -4.928709e+01 -4.868784e+01 -4.825852e+01 -4.765334e+01 -4.744283e+01 -4.684705e+01 -4.668900e+01 -4.599465e+01 -4.572884e+01 -4.494183e+01 -4.458342e+01 -4.383527e+01 -4.346332e+01 -4.284826e+01 -4.247555e+01 -4.197338e+01 -4.152350e+01 -4.104199e+01 -4.047069e+01 -4.001028e+01 -3.940567e+01 -3.903148e+01 -3.845705e+01 -3.812634e+01 -3.752901e+01 -3.712848e+01 -3.646775e+01 -3.598377e+01 -3.503465e+01 -3.347793e+01 -3.316838e+01 -3.252078e+01 -3.134149e+01 -3.170114e+01 -3.039173e+01 -2.983767e+01 -3.002312e+01 -2.835191e+01 -2.880286e+01 -2.805536e+01 -2.741868e+01 -2.802688e+01 -2.732334e+01 -2.733518e+01 -2.760145e+01 -2.717020e+01 -2.660293e+01 -2.614470e+01 -2.548703e+01 -2.508408e+01 -2.442002e+01 -2.412808e+01 -2.349815e+01 -2.326784e+01 -2.260942e+01 -2.230569e+01 -2.157548e+01 -2.115729e+01 -2.044345e+01 -1.996797e+01 -1.940658e+01 -1.893203e+01 -1.858005e+01 -1.803051e+01 -1.776767e+01 -1.699460e+01 -1.674119e+01 -1.578312e+01 -1.562377e+01 -1.463997e+01 -1.463197e+01 -1.369225e+01 -1.372178e+01 -1.277174e+01 -1.266993e+01 -1.173399e+01 -1.146594e+01 -1.068400e+01 -1.027187e+01 -9.774938e+00 -9.223589e+00 -9.042774e+00 -8.243961e+00 -8.243500e+00 -7.077435e+00 -7.180311e+00 -5.748699e+00 -6.006613e+00 -4.548488e+00 -4.958187e+00 -3.657962e+00 -3.960544e+00 -2.885704e+00 -2.601210e+00 -2.293872e+00 1.132539e+00 0 0 0 0 
0 0 0 0 0 1.643584e+00 4.420818e+00 3.309166e+00 5.755227e+00 4.583631e+00 7.067143e+00 5.675063e+00 8.205809e+00 4.674882e+00 -9.261258e+00 -1.702058e+01 -2.895019e+01 -3.994364e+01 -5.021408e+01 -6.096531e+01 -7.394211e+01 -7.624240e+01 -7.478799e+01 -7.510983e+01 -7.396116e+01 -7.385401e+01 -7.284825e+01 -7.226267e+01 -7.136531e+01 -7.049743e+01 -6.987567e+01 -6.899922e+01 -6.869433e+01 -6.783149e+01 -6.760259e+01 -6.659701e+01 -6.621205e+01 -6.507231e+01 -6.455326e+01 -6.346982e+01 -6.293118e+01 -6.204048e+01 -6.150074e+01 -6.077353e+01 -6.012203e+01 -5.942475e+01 -5.859741e+01 -5.793067e+01 -5.705512e+01 -5.651323e+01 -5.568139e+01 -5.520247e+01 -5.433748e+01 -5.375745e+01 -5.280066e+01 -5.209982e+01 -5.144556e+01 -5.159490e+01 -5.077099e+01 -5.025317e+01 -5.037388e+01 -4.900743e+01 -4.921343e+01 -4.831095e+01 -4.708034e+01 -4.691541e+01 -4.535501e+01 -4.465432e+01 -4.407280e+01 -4.253324e+01 -4.217144e+01 -4.116275e+01 -3.998860e+01 -3.933751e+01 -3.851611e+01 -3.785261e+01 -3.690032e+01 -3.631687e+01 -3.535535e+01 -3.493263e+01 -3.402054e+01 -3.368708e+01 -3.273376e+01 -3.229400e+01 -3.123674e+01 -3.063126e+01 -2.959772e+01 -2.890927e+01 -2.809646e+01 -2.740935e+01 -2.689973e+01 -2.610403e+01 -2.572346e+01 -2.460412e+01 -2.423719e+01 -2.285003e+01 -2.261932e+01 -2.119496e+01 -2.118341e+01 -1.982295e+01 -1.986578e+01 -1.849043e+01 -1.834314e+01 -1.698823e+01 -1.660024e+01 -1.546828e+01 -1.487162e+01 -1.415220e+01 -1.335391e+01 -1.309206e+01 -1.193542e+01 -1.193462e+01 -1.024628e+01 -1.039511e+01 -8.322448e+00 -8.695901e+00 -6.585245e+00 -7.179209e+00 -5.299267e+00 -5.744640e+00 -4.213287e+00 -3.807590e+00 -3.335627e+00 1.639224e+00 0 0 0 0 
0 0 0 0 0 5.587244e-01 1.502614e+00 1.124553e+00 1.956287e+00 1.557836e+00 2.401832e+00 1.928219e+00 2.788263e+00 1.587690e+00 -3.149777e+00 -5.787882e+00 -9.844288e+00 -1.358297e+01 -1.707594e+01 -2.073300e+01 -2.514723e+01 -2.592965e+01 -2.543485e+01 -2.554435e+01 -2.515359e+01 -2.511715e+01 -2.477502e+01 -2.457581e+01 -2.427055e+01 -2.397531e+01 -2.376379e+01 -2.346563e+01 -2.336191e+01 -2.306838e+01 -2.299050e+01 -2.264842e+01 -2.251746e+01 -2.212976e+01 -2.195319e+01 -2.158465e+01 -2.140143e+01 -2.109845e+01 -2.091485e+01 -2.066749e+01 -2.044588e+01 -2.020870e+01 -1.992728e+01 -1.970048e+01 -1.940266e+01 -1.921834e+01 -1.893539e+01 -1.877248e+01 -1.847826e+01 -1.828097e+01 -1.795553e+01 -1.771715e+01 -1.750117e+01 -1.757388e+01 -1.729025e+01 -1.711893e+01 -1.717749e+01 -1.669462e+01 -1.678356e+01 -1.647577e+01 -1.604268e+01 -1.600689e+01 -1.545596e+01 -1.521957e+01 -1.502490e+01 -1.447989e+01 -1.436180e+01 -1.401039e+01 -1.359817e+01 -1.337650e+01 -1.309714e+01 -1.287149e+01 -1.254762e+01 -1.234919e+01 -1.202219e+01 -1.187843e+01 -1.156825e+01 -1.145485e+01 -1.113066e+01 -1.098111e+01 -1.062158e+01 -1.041567e+01 -1.006421e+01 -9.830089e+00 -9.553687e+00 -9.320019e+00 -9.146712e+00 -8.876110e+00 -8.746683e+00 -8.366023e+00 -8.241237e+00 -7.769516e+00 -7.691060e+00 -7.206718e+00 -7.202810e+00 -6.740227e+00 -6.754833e+00 -6.287217e+00 -6.237185e+00 -5.776535e+00 -5.644647e+00 -5.259796e+00 -5.056927e+00 -4.812315e+00 -4.540841e+00 -4.451768e+00 -4.058409e+00 -4.058072e+00 -3.483919e+00 -3.534470e+00 -2.829700e+00 -2.956710e+00 -2.239209e+00 -2.441568e+00 -1.803538e+00 -1.958517e+00 -1.449818e+00 -1.314867e+00 -1.141297e+00 5.571733e-01 0 0 0 0 
0 0 0 0 0 0 0 0 0 0 0 0 0 0 0 0 0 0 0 0 0 0 0 0 0 0 0 0 0 0 0 0 0 0 0 0 0 0 0 0 0 0 0 0 0 0 0 0 0 0 0 0 0 0 0 0 0 0 0 0 0 0 0 0 0 0 0 0 0 0 0 0 0 0 0 0 0 0 0 0 0 0 0 0 0 0 0 0 0 0 0 0 0 0 0 0 0 0 0 0 0 0 0 0 0 0 0 0 0 0 0 0 0 0 0 0 0 0 0 0 0 0 0 0 0 0 0 0 
