# vtk DataFile Version 2.0
Comment goes here
ASCII

DATASET STRUCTURED_POINTS
FIELD FieldData 1
TIME 1 1 double
0.25000000
DIMENSIONS    128   16   1

ORIGIN    0.000   0.000   0.000
SPACING   0.0078125 0.015625   1.000

POINT_DATA   2048
SCALARS fY double
LOOKUP_TABLE default

0 0 0 0 0 0 0 0 0 0 0 0 0 0 0 0 0 0 0 0 0 0 0 0 0 0 0 0 0 0 0 0 0 0 0 0 0 0 0 0 0 0 0 0 0 0 0 0 0 0 0 0 0 0 0 0 0 0 0 0 0 0 0 0 0 0 0 0 0 0 0 0 0 0 0 0 0 0 0 0 0 0 0 0 0 0 0 0 0 0 0 0 0 0 0 0 0 0 0 0 0 0 0 0 0 0 0 0 0 0 0 0 0 0 0 0 0 0 0 0 0 0 0 0 0 0 0 0 
0 0 0 0 0 0 0 0 0 0 0 0 0 0 0 0 0 0 0 0 0 0 0 0 0 0 0 0 0 0 0 0 0 0 0 0 0 0 0 0 0 0 0 0 0 0 0 0 0 0 0 0 0 0 0 0 0 0 0 0 0 0 0 0 0 0 0 0 0 0 0 0 0 0 0 0 0 0 0 0 0 0 0 0 0 0 0 0 0 0 0 0 0 0 0 0 0 0 0 0 0 0 0 0 0 0 0 0 0 0 0 0 0 0 0 0 0 0 0 0 0 0 0 0 0 0 0 0 
0 0 0 0 0 1.135150e+00 2.036722e+00 1.624526e+00 2.820681e+00 2.192888e+00 3.403515e+00 2.614611e+00 3.852556e+00 2.230737e+00 -4.373438e+00 -8.575689e+00 -1.355354e+01 -1.862403e+01 -2.335600e+01 -2.758530e+01 -3.452864e+01 -3.568860e+01 -3.531457e+01 -3.561924e+01 -3.485014e+01 -3.445335e+01 -3.337477e+01 -3.294233e+01 -3.248978e+01 -3.270082e+01 -3.277493e+01 -3.286717e+01 -3.265443e+01 -3.227234e+01 -3.177203e+01 -3.106240e+01 -3.038076e+01 -2.957407e+01 -2.912167e+01 -2.876956e+01 -2.888934e+01 -2.894989e+01 -2.911904e+01 -2.890841e+01 -2.860714e+01 -2.799415e+01 -2.741604e+01 -2.682920e+01 -2.645228e+01 -2.620363e+01 -2.597931e+01 -2.565764e+01 -2.515566e+01 -2.460384e+01 -2.407466e+01 -2.384050e+01 -2.362984e+01 -2.312158e+01 -2.374603e+01 -2.411893e+01 -2.314745e+01 -2.195704e+01 -2.001058e+01 -1.852434e+01 -1.827206e+01 -1.893691e+01 -2.055559e+01 -2.212622e+01 -2.302451e+01 -2.310909e+01 -2.165798e+01 -1.981515e+01 -1.784657e+01 -1.624870e+01 -1.520537e+01 -1.522212e+01 -1.580901e+01 -1.685764e+01 -1.757761e+01 -1.790082e+01 -1.745068e+01 -1.657669e+01 -1.549020e+01 -1.463241e+01 -1.415537e+01 -1.389742e+01 -1.377614e+01 -1.335704e+01 -1.293690e+01 -1.229838e+01 -1.212630e+01 -1.187568e+01 -1.205800e+01 -1.182271e+01 -1.177248e+01 -1.106301e+01 -1.052184e+01 -9.599924e+00 -9.233754e+00 -8.872464e+00 -9.025529e+00 -9.061096e+00 -9.084197e+00 -8.842379e+00 -8.319538e+00 -7.783672e+00 -6.816340e+00 -6.160827e+00 -5.140391e+00 -5.019493e+00 -4.610104e+00 -5.190274e+00 -4.959648e+00 -5.400564e+00 -4.790767e+00 -4.852661e+00 -3.978847e+00 -3.668954e+00 -2.751031e+00 -2.317771e+00 -1.891369e+00 -1.447952e+00 -1.896919e+00 2.105194e-01 0 0 0 0 
0 0 0 0 0 3.337757e+00 5.983453e+00 4.768808e+00 8.291963e+00 6.447693e+00 1.000705e+01 7.685099e+00 1.132411e+01 6.553345e+00 -1.286823e+01 -2.522911e+01 -3.987283e+01 -5.479248e+01 -6.871623e+01 -8.116381e+01 -1.016006e+02 -1.050143e+02 -1.039132e+02 -1.048100e+02 -1.025458e+02 -1.013777e+02 -9.820271e+01 -9.692977e+01 -9.559772e+01 -9.621896e+01 -9.643712e+01 -9.670865e+01 -9.608248e+01 -9.495776e+01 -9.348513e+01 -9.139634e+01 -8.939001e+01 -8.701558e+01 -8.568402e+01 -8.464762e+01 -8.500015e+01 -8.517836e+01 -8.567621e+01 -8.505626e+01 -8.416953e+01 -8.236540e+01 -8.066389e+01 -7.893676e+01 -7.782743e+01 -7.709561e+01 -7.643542e+01 -7.548875e+01 -7.401140e+01 -7.238741e+01 -7.083003e+01 -7.014092e+01 -7.011394e+01 -7.058823e+01 -7.210248e+01 -7.247108e+01 -7.035151e+01 -6.586432e+01 -6.035853e+01 -5.598027e+01 -5.462301e+01 -5.706916e+01 -6.138150e+01 -6.651440e+01 -6.936952e+01 -6.844172e+01 -6.404938e+01 -5.858157e+01 -5.253406e+01 -4.780088e+01 -4.473105e+01 -4.478033e+01 -4.650718e+01 -4.959271e+01 -5.171117e+01 -5.266225e+01 -5.133778e+01 -4.876610e+01 -4.556930e+01 -4.304535e+01 -4.164180e+01 -4.088281e+01 -4.052596e+01 -3.929284e+01 -3.805672e+01 -3.617805e+01 -3.567174e+01 -3.493439e+01 -3.547079e+01 -3.477858e+01 -3.463086e+01 -3.254365e+01 -3.095161e+01 -2.823953e+01 -2.716236e+01 -2.609962e+01 -2.655004e+01 -2.665473e+01 -2.672273e+01 -2.601135e+01 -2.447312e+01 -2.289667e+01 -2.005078e+01 -1.812238e+01 -1.512040e+01 -1.476464e+01 -1.356035e+01 -1.526701e+01 -1.458874e+01 -1.588604e+01 -1.409269e+01 -1.427533e+01 -1.170587e+01 -1.079557e+01 -8.098293e+00 -6.830237e+00 -5.593187e+00 -4.288870e+00 -5.588398e+00 6.191304e-01 0 0 0 0 
0 0 0 0 0 2.305136e+00 4.129771e+00 3.289628e+00 5.725722e+00 4.452835e+00 6.910857e+00 5.306151e+00 7.818855e+00 9.234673e+00 -1.230439e+01 -1.172462e+01 -3.286186e+01 -3.215290e+01 -5.350730e+01 -5.219326e+01 -7.380557e+01 -7.256262e+01 -7.180152e+01 -7.242130e+01 -7.085628e+01 -7.004893e+01 -6.785447e+01 -6.697466e+01 -6.605403e+01 -6.648341e+01 -6.663420e+01 -6.682189e+01 -6.638912e+01 -6.561177e+01 -6.459399e+01 -6.315033e+01 -6.176372e+01 -6.012269e+01 -5.920243e+01 -5.848616e+01 -5.872978e+01 -5.885294e+01 -5.919700e+01 -5.876855e+01 -5.815573e+01 -5.690891e+01 -5.573301e+01 -5.453943e+01 -5.377279e+01 -5.326706e+01 -5.281081e+01 -5.215660e+01 -5.113566e+01 -5.001340e+01 -4.893715e+01 -4.846095e+01 -4.907427e+01 -5.137439e+01 -5.201522e+01 -5.135248e+01 -5.033028e+01 -4.633119e+01 -4.231640e+01 -3.911947e+01 -3.765935e+01 -3.884682e+01 -4.185844e+01 -4.532419e+01 -4.690014e+01 -4.719681e+01 -4.545891e+01 -4.141086e+01 -3.636357e+01 -3.302396e+01 -3.090286e+01 -3.093691e+01 -3.213008e+01 -3.426209e+01 -3.572587e+01 -3.638306e+01 -3.546791e+01 -3.369095e+01 -3.148214e+01 -2.973820e+01 -2.876844e+01 -2.824402e+01 -2.799745e+01 -2.714543e+01 -2.629137e+01 -2.499334e+01 -2.464351e+01 -2.413407e+01 -2.450467e+01 -2.402643e+01 -2.392440e+01 -2.248240e+01 -2.138249e+01 -1.950884e+01 -1.876467e+01 -1.803052e+01 -1.834176e+01 -1.841411e+01 -1.846111e+01 -1.796966e+01 -1.690688e+01 -1.581776e+01 -1.385155e+01 -1.251928e+01 -1.044531e+01 -1.019949e+01 -9.367510e+00 -1.054654e+01 -1.007803e+01 -1.097439e+01 -9.735703e+00 -9.862152e+00 -8.087553e+00 -7.459314e+00 -5.597364e+00 -4.724467e+00 -3.878240e+00 -2.977200e+00 -3.864699e+00 4.276477e-01 0 0 0 0 
0 0 0 0 0 1.025290e-01 1.830390e-01 1.453457e-01 2.544405e-01 1.980305e-01 3.073194e-01 2.356630e-01 3.473011e-01 3.696736e+00 -4.124496e+00 4.591268e+00 -6.762804e+00 4.186823e+00 -7.839923e+00 2.096327e+00 -5.777434e+00 -3.236924e+00 -3.202909e+00 -3.230589e+00 -3.160643e+00 -3.124565e+00 -3.026519e+00 -2.987213e+00 -2.946092e+00 -2.965276e+00 -2.972015e+00 -2.980403e+00 -2.961074e+00 -2.926348e+00 -2.880889e+00 -2.816402e+00 -2.754474e+00 -2.681180e+00 -2.640083e+00 -2.608095e+00 -2.618971e+00 -2.624469e+00 -2.639833e+00 -2.620700e+00 -2.593336e+00 -2.537665e+00 -2.485161e+00 -2.431873e+00 -2.397645e+00 -2.375068e+00 -2.354700e+00 -2.325496e+00 -2.279920e+00 -2.229826e+00 -2.181786e+00 -2.160530e+00 -2.456065e+00 -2.710760e+00 -2.267242e+00 -2.100016e+00 -1.501149e+00 -1.247235e+00 -8.195202e-01 -2.048435e-01 -5.170136e-01 4.584514e-01 -1.233401e-01 -1.803737e-01 4.397546e-01 -1.256472e+00 -1.605268e+00 -1.239707e+00 -1.459655e+00 -1.471778e+00 -1.377181e+00 -1.378700e+00 -1.431915e+00 -1.527014e+00 -1.592303e+00 -1.621623e+00 -1.580808e+00 -1.501544e+00 -1.403040e+00 -1.325260e+00 -1.282016e+00 -1.258628e+00 -1.247631e+00 -1.209634e+00 -1.171552e+00 -1.113673e+00 -1.098073e+00 -1.075359e+00 -1.091883e+00 -1.070565e+00 -1.066023e+00 -1.001750e+00 -9.527258e-01 -8.692296e-01 -8.360688e-01 -8.033645e-01 -8.172510e-01 -8.204826e-01 -8.225821e-01 -8.006812e-01 -7.533004e-01 -7.047591e-01 -6.171107e-01 -5.577355e-01 -4.653015e-01 -4.543342e-01 -4.172626e-01 -4.697961e-01 -4.489389e-01 -4.889120e-01 -4.337779e-01 -4.394818e-01 -3.605342e-01 -3.327019e-01 -2.501016e-01 -2.120012e-01 -1.764220e-01 -1.362828e-01 -1.732211e-01 1.903666e-02 0 0 0 0 
0 0 0 0 0 0 0 0 0 0 0 0 0 2.140887e+00 -6.218783e-01 2.107096e+00 -1.627214e+00 1.734192e+00 -2.089994e+00 7.693510e-01 -2.118517e+00 0 0 0 0 0 0 0 0 0 0 0 0 0 0 0 0 0 0 0 0 0 0 0 0 0 0 0 0 0 0 0 0 0 0 0 1.241946e-01 9.219453e-01 9.924271e-01 7.416355e-01 1.482922e+00 1.045793e+00 1.127912e+00 1.427929e+00 8.096493e-01 1.354912e+00 1.068922e+00 9.861669e-01 1.410255e+00 7.183215e-01 7.968894e-01 6.892377e-01 7.276929e-02 0 0 0 0 0 0 0 0 0 0 0 0 0 0 0 0 0 0 0 0 0 0 0 0 0 0 0 0 0 0 0 0 0 0 0 0 0 0 0 0 0 0 0 0 0 0 0 0 0 0 0 0 0 0 0 
0 0 0 0 0 0 0 0 0 0 0 0 0 1.054204e+00 -6.098776e-01 1.333736e+00 -1.207341e+00 1.286595e+00 -1.323647e+00 7.313382e-01 -1.037393e+00 0 0 0 0 0 0 0 0 0 0 0 0 0 0 0 0 0 0 0 0 0 0 0 0 0 0 0 0 0 0 0 0 0 0 0 1.119227e-02 4.462553e-02 2.898272e-02 6.282763e-02 1.870109e-01 1.315763e-01 1.589118e-01 2.174181e-01 1.401593e-01 3.111544e-01 2.755179e-01 2.878689e-01 4.925556e-01 2.252523e-01 -1.527627e-01 -1.828678e-01 -4.371245e-02 0 0 0 0 0 0 0 0 0 0 0 0 0 0 0 0 0 0 0 0 0 0 0 0 0 0 0 0 0 0 0 0 0 0 0 0 0 0 0 0 0 0 0 0 0 0 0 0 0 0 0 0 0 0 0 
0 0 0 0 0 0 0 0 0 0 0 0 0 7.016527e-03 -2.480007e-04 1.349298e-02 -9.515534e-03 1.803891e-02 -2.631675e-02 2.412958e-02 -5.277747e-02 0 0 0 0 0 0 0 0 0 0 0 0 0 0 0 0 0 0 0 0 0 0 0 0 0 0 0 0 0 0 0 0 0 0 0 1.249934e-02 2.238932e-01 3.097235e-01 1.979090e-01 3.659270e-01 2.972385e-01 2.682069e-01 3.851501e-01 2.341661e-01 4.035279e-01 3.657329e-01 3.314092e-01 5.378002e-01 2.839118e-01 1.997524e-01 2.130691e-01 4.230055e-02 0 0 0 0 0 0 0 0 0 0 0 0 0 0 0 0 0 0 0 0 0 0 0 0 0 0 0 0 0 0 0 0 0 0 0 0 0 0 0 0 0 0 0 0 0 0 0 0 0 0 0 0 0 0 0 
0 0 0 0 0 0 0 0 0 0 0 0 0 -1.034852e+00 6.070944e-01 -1.318580e+00 1.195879e+00 -1.269052e+00 1.317190e+00 -6.847090e-01 1.025801e+00 0 0 0 0 0 0 0 0 0 0 0 0 0 0 0 0 0 0 0 0 0 0 0 0 0 0 0 0 0 0 0 0 0 0 0 2.179563e-03 -4.134934e-02 -7.443127e-02 2.399075e-02 1.535278e-01 1.113081e-01 1.930337e-01 2.674137e-01 1.714681e-01 3.434390e-01 2.926408e-01 2.583482e-01 3.933061e-01 1.430291e-01 -2.358666e-01 -2.720856e-01 -6.176422e-02 0 0 0 0 0 0 0 0 0 0 0 0 0 0 0 0 0 0 0 0 0 0 0 0 0 0 0 0 0 0 0 0 0 0 0 0 0 0 0 0 0 0 0 0 0 0 0 0 0 0 0 0 0 0 0 
0 0 0 0 0 0 0 0 0 0 0 0 0 -2.105800e+00 6.532058e-01 -2.072236e+00 1.638318e+00 -1.704294e+00 2.075516e+00 -6.885159e-01 2.087522e+00 0 0 0 0 0 0 0 0 0 0 0 0 0 0 0 0 0 0 0 0 0 0 0 0 0 0 0 0 0 0 0 0 0 0 0 -7.856647e-03 6.779221e-02 1.311967e-01 8.235072e-02 1.939986e-01 1.809447e-01 1.599828e-01 2.737924e-01 1.763811e-01 3.223976e-01 3.136207e-01 2.693708e-01 4.626890e-01 1.818490e-01 3.013448e-02 1.452576e-01 6.360810e-02 0 0 0 0 0 0 0 0 0 0 0 0 0 0 0 0 0 0 0 0 0 0 0 0 0 0 0 0 0 0 0 0 0 0 0 0 0 0 0 0 0 0 0 0 0 0 0 0 0 0 0 0 0 0 0 
0 0 0 0 0 -1.020775e-01 -1.773974e-01 -1.295501e-01 -2.325251e-01 -1.809802e-01 -3.031307e-01 -2.456708e-01 -3.654705e-01 -3.650523e+00 4.118244e+00 -4.614169e+00 6.686620e+00 -4.279396e+00 7.876868e+00 -1.909238e+00 6.101513e+00 3.218042e+00 3.181234e+00 3.225224e+00 3.182716e+00 3.168634e+00 3.079664e+00 3.027763e+00 2.951415e+00 2.924693e+00 2.904691e+00 2.914576e+00 2.914268e+00 2.900089e+00 2.872444e+00 2.832731e+00 2.810911e+00 2.786823e+00 2.777290e+00 2.737872e+00 2.696923e+00 2.627197e+00 2.575334e+00 2.526309e+00 2.516310e+00 2.513875e+00 2.519155e+00 2.494660e+00 2.449751e+00 2.389467e+00 2.341540e+00 2.316113e+00 2.306701e+00 2.297265e+00 2.270252e+00 2.237398e+00 2.014407e+00 5.800666e-01 3.430243e-01 1.005191e+00 1.320854e-01 6.522867e-01 5.426238e-01 1.584679e-01 9.884274e-01 5.603327e-01 8.856367e-01 1.041380e+00 8.433859e-01 1.012663e+00 -1.432697e-01 2.524045e-01 1.589582e+00 1.659259e+00 1.610871e+00 1.588974e+00 1.577214e+00 1.590435e+00 1.576390e+00 1.539805e+00 1.461785e+00 1.388214e+00 1.334906e+00 1.321397e+00 1.320894e+00 1.302174e+00 1.264294e+00 1.204538e+00 1.169071e+00 1.139468e+00 1.153646e+00 1.142359e+00 1.139151e+00 1.078865e+00 1.036231e+00 9.593015e-01 9.340323e-01 8.960056e-01 8.991178e-01 8.660565e-01 8.377222e-01 7.770563e-01 7.313004e-01 7.030010e-01 6.884596e-01 6.926952e-01 6.610196e-01 6.464614e-01 5.781759e-01 5.667747e-01 5.066041e-01 5.236169e-01 4.630458e-01 4.575847e-01 3.523748e-01 3.187863e-01 2.365686e-01 2.540197e-01 2.445906e-01 2.651976e-01 2.478492e-01 1.851193e-01 1.889079e-01 -1.797213e-02 0 0 0 0 
0 0 0 0 0 -2.294978e+00 -4.003120e+00 -2.934938e+00 -5.233433e+00 -4.069869e+00 -6.816815e+00 -5.530819e+00 -8.227001e+00 -9.415466e+00 1.219381e+01 1.153269e+01 3.271543e+01 3.189656e+01 5.359298e+01 5.233646e+01 7.466895e+01 7.214004e+01 7.131645e+01 7.230132e+01 7.135032e+01 7.103529e+01 6.904407e+01 6.788236e+01 6.617317e+01 6.557493e+01 6.512704e+01 6.534826e+01 6.534134e+01 6.502393e+01 6.440497e+01 6.351595e+01 6.302745e+01 6.248820e+01 6.227480e+01 6.139227e+01 6.047535e+01 5.891401e+01 5.775259e+01 5.665463e+01 5.643069e+01 5.637614e+01 5.649438e+01 5.594572e+01 5.493988e+01 5.358955e+01 5.251600e+01 5.194642e+01 5.173558e+01 5.152419e+01 5.091909e+01 5.018304e+01 4.938344e+01 4.802049e+01 4.744429e+01 4.735449e+01 4.573803e+01 4.467881e+01 4.327763e+01 4.204008e+01 4.211807e+01 4.164551e+01 4.148761e+01 4.101088e+01 3.976835e+01 3.927466e+01 3.800806e+01 3.773973e+01 3.790343e+01 3.722712e+01 3.614234e+01 3.565145e+01 3.538777e+01 3.568410e+01 3.536918e+01 3.454896e+01 3.279954e+01 3.115003e+01 2.995459e+01 2.965164e+01 2.964039e+01 2.922064e+01 2.837113e+01 2.703117e+01 2.623577e+01 2.557191e+01 2.588997e+01 2.563686e+01 2.556486e+01 2.421258e+01 2.325618e+01 2.153019e+01 2.096315e+01 2.010971e+01 2.017920e+01 1.943710e+01 1.880123e+01 1.743967e+01 1.641310e+01 1.577804e+01 1.545190e+01 1.554723e+01 1.483688e+01 1.451049e+01 1.297861e+01 1.272302e+01 1.137276e+01 1.175449e+01 1.039461e+01 1.027128e+01 7.908336e+00 7.153016e+00 5.304657e+00 5.692788e+00 5.473916e+00 5.918482e+00 5.482159e+00 4.074098e+00 4.216771e+00 -4.037246e-01 0 0 0 0 
0 0 0 0 0 -3.323047e+00 -5.800116e+00 -4.255341e+00 -7.579255e+00 -5.893266e+00 -9.870917e+00 -8.010325e+00 -1.191500e+01 -7.119290e+00 1.243716e+01 2.485496e+01 3.954863e+01 5.468452e+01 6.883831e+01 8.145671e+01 1.015594e+02 1.044029e+02 1.032114e+02 1.046364e+02 1.032606e+02 1.028048e+02 9.992389e+01 9.824308e+01 9.577010e+01 9.490452e+01 9.425645e+01 9.457650e+01 9.456648e+01 9.410722e+01 9.321165e+01 9.192536e+01 9.121855e+01 9.043832e+01 9.012955e+01 8.885262e+01 8.752590e+01 8.526673e+01 8.358619e+01 8.199747e+01 8.167343e+01 8.159450e+01 8.176559e+01 8.097167e+01 7.951622e+01 7.756225e+01 7.600882e+01 7.518460e+01 7.487952e+01 7.457362e+01 7.369801e+01 7.263290e+01 7.173484e+01 7.192089e+01 7.152505e+01 7.029158e+01 6.924785e+01 6.688522e+01 6.485391e+01 6.370338e+01 6.250695e+01 6.265677e+01 6.194523e+01 6.100429e+01 5.980078e+01 5.829856e+01 5.775980e+01 5.696811e+01 5.511961e+01 5.388388e+01 5.231396e+01 5.160353e+01 5.122191e+01 5.165076e+01 5.119498e+01 5.000791e+01 4.747600e+01 4.508872e+01 4.335854e+01 4.292008e+01 4.290380e+01 4.229631e+01 4.106680e+01 3.912746e+01 3.797626e+01 3.701544e+01 3.747581e+01 3.710948e+01 3.700526e+01 3.504800e+01 3.366369e+01 3.116545e+01 3.034466e+01 2.910928e+01 2.920978e+01 2.813555e+01 2.721513e+01 2.524424e+01 2.375836e+01 2.283912e+01 2.236708e+01 2.250513e+01 2.147702e+01 2.100467e+01 1.878741e+01 1.841751e+01 1.646303e+01 1.701555e+01 1.504699e+01 1.486827e+01 1.144744e+01 1.035372e+01 7.677392e+00 8.238323e+00 7.919661e+00 8.558625e+00 7.915109e+00 5.876866e+00 6.098030e+00 -5.844932e-01 0 0 0 0 
0 0 0 0 0 -1.130146e+00 -1.974393e+00 -1.449954e+00 -2.578347e+00 -2.004377e+00 -3.357232e+00 -2.725177e+00 -4.053471e+00 -2.423169e+00 4.226893e+00 8.448512e+00 1.344335e+01 1.858732e+01 2.339748e+01 2.768482e+01 3.451465e+01 3.548091e+01 3.507617e+01 3.556029e+01 3.509296e+01 3.493815e+01 3.395948e+01 3.338849e+01 3.254834e+01 3.225428e+01 3.203409e+01 3.214281e+01 3.213941e+01 3.198339e+01 3.167913e+01 3.124214e+01 3.100201e+01 3.073694e+01 3.063205e+01 3.019823e+01 2.974747e+01 2.897992e+01 2.840894e+01 2.786915e+01 2.775905e+01 2.773223e+01 2.779036e+01 2.752061e+01 2.702609e+01 2.636217e+01 2.583435e+01 2.555429e+01 2.545063e+01 2.534669e+01 2.504917e+01 2.468726e+01 2.438444e+01 2.446709e+01 2.433652e+01 2.390753e+01 2.356467e+01 2.275428e+01 2.206368e+01 2.167843e+01 2.126012e+01 2.131837e+01 2.107232e+01 2.074970e+01 2.034583e+01 1.982846e+01 1.965532e+01 1.938300e+01 1.873804e+01 1.831603e+01 1.778249e+01 1.754105e+01 1.741135e+01 1.755709e+01 1.740219e+01 1.699875e+01 1.613824e+01 1.532691e+01 1.473886e+01 1.458984e+01 1.458431e+01 1.437784e+01 1.395996e+01 1.330083e+01 1.290956e+01 1.258300e+01 1.273949e+01 1.261498e+01 1.257955e+01 1.191428e+01 1.144375e+01 1.059455e+01 1.031554e+01 9.895582e+00 9.929702e+00 9.564513e+00 9.251627e+00 8.581631e+00 8.076558e+00 7.764074e+00 7.603635e+00 7.650597e+00 7.301166e+00 7.140634e+00 6.386972e+00 6.261262e+00 5.596869e+00 5.784684e+00 5.115427e+00 5.054577e+00 3.891477e+00 3.519492e+00 2.609304e+00 2.799555e+00 2.690335e+00 2.905341e+00 2.680799e+00 1.987887e+00 2.070167e+00 -1.987408e-01 0 0 0 0 
0 0 0 0 0 0 0 0 0 0 0 0 0 0 0 0 0 0 0 0 0 0 0 0 0 0 0 0 0 0 0 0 0 0 0 0 0 0 0 0 0 0 0 0 0 0 0 0 0 0 0 0 0 0 0 0 0 0 0 0 0 0 0 0 0 0 0 0 0 0 0 0 0 0 0 0 0 0 0 0 0 0 0 0 0 0 0 0 0 0 0 0 0 0 0 0 0 0 0 0 0 0 0 0 0 0 0 0 0 0 0 0 0 0 0 0 0 0 0 0 0 0 0 0 0 0 0 0 
