# vtk DataFile Version 2.0
Comment goes here
ASCII

DATASET STRUCTURED_POINTS
FIELD FieldData 1
TIME 1 1 double
0.07000000
DIMENSIONS    128   16   1

ORIGIN    0.000   0.000   0.000
SPACING   0.0078125 0.015625   1.000

POINT_DATA   2048
SCALARS Omega double
LOOKUP_TABLE default

-9.642440e-08 4.626136e-08 -4.123329e-07 -2.551903e-07 -4.868187e-06 -2.844513e-05 2.314842e-06 5.740492e-05 -1.838200e-04 -3.781640e-05 1.533418e-04 -1.293026e-04 6.096309e-06 -2.693012e-04 2.399617e-04 2.424156e-04 -7.569006e-04 7.902459e-04 -3.198950e-04 -8.248151e-04 4.886442e-04 5.274479e-04 3.433489e-04 1.709414e-04 -2.564501e-04 -2.510726e-04 4.755147e-04 7.235416e-05 -1.050662e-03 -2.682638e-04 8.459154e-04 -5.741232e-04 -8.640946e-04 1.145389e-03 -6.659967e-04 -1.366180e-03 7.148766e-04 -1.114003e-03 -1.293323e-03 3.751814e-04 -1.663936e-03 -6.392459e-04 -9.329353e-04 -2.441436e-03 -8.066219e-04 -2.343029e-03 -2.253194e-03 -1.512945e-03 -2.519112e-03 -2.007694e-03 -1.886624e-03 -2.744701e-03 -7.568976e-03 -3.011994e-02 -9.723073e-02 -2.163984e-01 -3.082315e-01 -3.087983e-01 -2.683828e-01 -2.348074e-01 -2.753955e-01 -3.403313e-01 -3.798498e-01 -4.682656e-01 -5.168747e-01 -5.803374e-01 -6.035517e-01 -3.972371e-01 -6.045695e-02 3.830875e-01 6.915475e-01 6.446977e-01 4.600672e-01 2.746470e-01 1.135060e-01 2.172263e-02 -7.720082e-03 -1.378263e-02 -1.146240e-02 -7.088062e-03 -6.374258e-03 -3.624310e-03 -2.374007e-03 -2.397176e-03 -1.876276e-03 -1.218941e-04 -1.299691e-03 -3.203541e-04 4.311776e-04 -1.503574e-03 1.160530e-03 -8.004025e-04 -2.318352e-04 1.373501e-03 -1.954299e-03 1.311994e-03 4.901126e-05 -1.186142e-03 1.720828e-03 -5.916661e-04 -1.134012e-03 1.135114e-03 -1.166205e-04 -8.413244e-04 1.038896e-03 -1.523627e-04 -9.976308e-04 6.426373e-04 8.145063e-04 -8.347394e-04 -3.278978e-04 7.863597e-04 8.773035e-06 -7.446045e-04 3.959534e-05 5.540280e-04 -1.091501e-04 -4.089099e-04 9.254661e-05 3.579469e-04 1.391161e-04 -3.094314e-05 4.274561e-06 -3.007259e-06 8.601114e-06 2.452743e-06 -1.333391e-06 4.747967e-08 
-1.772153e-03 -4.083308e-03 -3.536065e-03 3.753020e-02 1.826453e-01 -2.699608e-01 -1.183936e+00 -6.123318e-01 -4.670238e-01 -4.928683e-01 -4.894017e-01 -3.999587e-01 7.704237e-01 2.649607e+00 3.432794e+00 3.043644e+00 3.290545e+00 3.289533e+00 3.159427e+00 3.461978e+00 2.684535e+00 4.709484e-01 -4.032798e-01 -4.565897e-01 -4.253548e-01 -4.708579e-01 -4.223621e-01 -3.753055e-01 -5.108971e-01 -5.734851e-01 -3.932092e-01 -4.222313e-01 -6.093952e-01 -3.438829e-01 -3.452323e-01 -6.259087e-01 -3.857788e-01 -4.105263e-01 -6.251660e-01 -3.255466e-01 -4.057671e-01 -5.268714e-01 -3.217490e-01 -4.734832e-01 -4.844121e-01 -4.485027e-01 -5.526638e-01 -4.338210e-01 -4.277167e-01 -4.078578e-01 -3.849370e-01 -4.127659e-01 -4.853384e-01 -6.024717e-01 -7.327439e-01 -9.609082e-01 -8.232869e-01 -9.749673e-01 -9.774194e-01 -2.244936e-01 -1.016535e+00 -1.125159e+00 -5.956886e-01 -1.768663e+00 -9.360478e-01 -1.203705e+00 -2.015338e+00 -2.969116e-01 -1.309771e+00 -1.710727e+00 4.120977e-01 6.816303e-01 8.171330e-02 -7.627124e-02 -2.576586e-01 -3.297889e-01 -4.126336e-01 -5.176066e-01 -4.575309e-01 -5.563736e-01 -4.438991e-01 -3.962738e-01 -4.750278e-01 -4.578988e-01 -5.022500e-01 -5.187472e-01 -5.166003e-01 -3.652780e-01 -4.889420e-01 -4.166034e-01 -4.679532e-01 -6.248272e-01 -3.095515e-01 -5.065234e-01 -4.484802e-01 -3.117048e-01 -6.792480e-01 -3.829563e-01 -3.546052e-01 -5.998833e-01 -3.689678e-01 -4.132588e-01 -6.109464e-01 -3.694812e-01 -3.425162e-01 -5.967754e-01 -4.656233e-01 -3.467847e-01 -4.968663e-01 -5.380900e-01 -3.478419e-01 -4.605165e-01 -5.210785e-01 -4.431419e-01 -3.326090e-01 -5.422896e-01 -4.690681e-01 -3.759932e-01 -3.263833e-01 -6.336908e-01 -4.829388e-01 -7.562443e-01 -9.677462e-01 1.294002e-02 5.003109e-02 -6.315492e-03 -7.927015e-03 -2.919377e-03 
-1.528568e-02 -3.779935e-02 -9.054600e-02 7.038690e-02 1.645727e+00 7.135379e-01 -2.965701e+00 -1.074124e+00 -9.314102e-01 -8.216973e-01 -8.206042e-01 -5.232618e-01 9.651650e-01 -4.228935e-01 -1.257724e+00 -1.273656e+00 -9.399511e-01 -1.082715e+00 -7.649347e-01 -1.466780e+00 -5.675410e-01 4.439143e-01 -2.498577e-01 -7.325491e-01 -9.950425e-01 -9.285367e-01 -4.256936e-01 -5.679135e-01 -1.076299e+00 -1.121183e+00 -4.903595e-01 -7.137458e-01 -1.209085e+00 -5.662705e-01 -6.703463e-01 -1.333645e+00 -3.404910e-01 -5.593540e-01 -1.274492e+00 -3.841400e-01 -6.040900e-01 -9.073318e-01 -2.167496e-01 -7.948211e-01 -1.016060e+00 -8.360484e-01 -1.099601e+00 -6.790013e-01 -5.140877e-01 -6.204592e-01 -6.720249e-01 -6.620152e-01 -8.526251e-01 -9.287123e-01 -7.528528e-01 -6.438615e-01 1.220998e-01 -1.697704e-01 -9.665681e-01 3.745101e-01 -3.759087e-01 -6.701848e-01 5.248159e-01 -9.866643e-01 -5.264899e-02 1.333424e-01 -1.188358e+00 -6.196896e-02 -1.546538e+00 -2.731285e+00 -1.441065e+00 -1.759804e+00 -2.025372e+00 -1.220948e+00 -9.698543e-01 -6.529376e-01 -6.680593e-01 -9.407984e-01 -7.584671e-01 -1.003859e+00 -7.051514e-01 -5.070758e-01 -7.160713e-01 -7.231417e-01 -8.172995e-01 -9.445438e-01 -9.217694e-01 -4.830648e-01 -8.052171e-01 -5.925150e-01 -8.072200e-01 -1.279104e+00 -3.902579e-01 -9.548764e-01 -6.415961e-01 -2.346106e-01 -1.354772e+00 -5.110357e-01 -5.498496e-01 -1.177596e+00 -5.061746e-01 -5.449453e-01 -1.208084e+00 -4.721196e-01 -4.029791e-01 -1.057590e+00 -7.053965e-01 -4.843845e-01 -9.896253e-01 -1.074935e+00 -4.450301e-01 -7.679623e-01 -8.829548e-01 -6.510896e-01 -3.102919e-01 -9.973333e-01 -7.463090e-01 -5.139239e-01 -2.806043e-01 -1.299050e+00 -7.473994e-01 -1.721721e+00 -1.339486e+00 1.768529e+00 2.753146e-01 -2.364217e-01 -1.134549e-01 -3.263856e-02 
-3.796709e-02 -1.018218e-01 -2.829311e-01 -6.094571e-02 3.881585e+00 4.909838e+00 2.139832e-01 1.521435e+00 1.031958e+00 1.356997e+00 1.001849e+00 7.981101e-01 -5.428482e-01 -1.166807e-01 3.460982e-01 -1.369926e-01 -1.313028e-01 -2.521207e-02 3.433505e-01 1.584504e-02 -6.587549e-01 -7.191750e-02 1.749331e+00 1.076383e+00 3.904784e-01 1.048685e+00 2.188679e+00 1.402994e+00 9.264659e-01 1.287983e+00 1.774029e+00 1.314355e+00 1.294087e+00 1.179962e+00 8.446611e-01 1.046886e+00 2.167800e+00 1.662102e+00 1.219748e+00 1.572197e+00 1.491759e+00 1.564599e+00 2.012523e+00 1.452241e+00 9.176090e-01 1.144470e+00 1.174317e+00 1.518586e+00 1.941506e+00 1.495075e+00 1.160293e+00 1.397603e+00 1.285240e+00 1.543318e+00 1.894140e+00 1.869305e+00 1.272895e+00 1.496387e+00 1.596513e+00 1.258639e+00 2.045384e+00 1.936445e+00 1.491480e+00 2.170283e+00 1.163178e+00 1.430837e+00 2.405719e+00 1.388415e+00 2.667988e+00 3.197449e+00 1.900580e+00 1.896080e+00 2.062790e+00 1.922830e+00 1.626928e+00 1.532079e+00 1.488628e+00 1.299489e+00 1.374913e+00 1.432788e+00 1.452203e+00 1.716393e+00 1.686441e+00 1.551462e+00 1.607286e+00 1.375635e+00 1.418028e+00 1.560836e+00 1.570351e+00 1.607637e+00 1.417827e+00 1.183834e+00 1.410189e+00 1.280121e+00 1.693021e+00 1.910853e+00 1.391176e+00 1.597199e+00 1.311102e+00 1.304901e+00 1.496940e+00 1.772263e+00 1.295841e+00 1.616667e+00 1.637101e+00 1.639088e+00 1.652882e+00 1.429923e+00 1.087671e+00 1.122190e+00 1.540207e+00 1.455711e+00 1.582291e+00 1.635764e+00 1.838123e+00 1.388193e+00 1.601353e+00 1.516554e+00 1.895502e+00 1.183038e+00 1.777352e+00 7.124799e-01 3.592742e+00 5.732316e+00 5.571267e-01 -6.974584e-01 -2.968824e-01 -8.082113e-02 
-3.226888e-02 -8.868144e-02 -2.646601e-01 -2.542331e-01 2.228784e+00 4.748834e+00 4.153181e+00 3.112965e+00 2.359386e+00 2.579165e+00 2.186698e+00 2.251542e+00 2.453657e+00 2.395380e+00 2.219815e+00 2.340723e+00 2.233781e+00 2.328270e+00 2.287852e+00 2.356007e+00 2.116252e+00 2.466509e+00 2.918101e+00 2.166701e+00 1.726960e+00 2.412085e+00 3.058674e+00 2.336441e+00 2.492059e+00 2.960280e+00 2.667113e+00 2.431964e+00 3.093673e+00 2.076959e+00 1.835745e+00 2.972744e+00 2.914655e+00 2.624795e+00 3.096083e+00 2.286563e+00 2.489296e+00 2.995360e+00 2.564785e+00 2.709751e+00 2.401413e+00 2.420495e+00 2.815329e+00 2.646821e+00 2.911780e+00 2.552465e+00 2.245690e+00 2.511076e+00 2.602878e+00 2.834299e+00 2.574153e+00 2.272510e+00 1.840799e+00 1.983418e+00 2.440868e+00 2.623794e+00 2.736322e+00 2.849975e+00 2.682937e+00 2.449302e+00 2.521395e+00 2.646291e+00 3.055994e+00 3.444546e+00 2.663695e+00 2.181661e+00 2.934942e+00 3.601122e+00 3.716568e+00 3.357732e+00 3.156254e+00 2.647722e+00 2.578822e+00 2.715618e+00 2.548818e+00 2.959972e+00 2.567116e+00 2.606402e+00 2.859778e+00 2.715482e+00 2.911980e+00 2.820514e+00 2.840617e+00 2.395582e+00 2.859881e+00 2.598671e+00 2.685769e+00 3.059872e+00 2.094756e+00 2.729853e+00 2.766933e+00 2.464450e+00 3.409489e+00 2.477384e+00 2.202918e+00 3.064325e+00 2.350695e+00 2.734149e+00 3.092423e+00 2.450721e+00 2.374154e+00 3.287771e+00 2.805483e+00 2.252876e+00 2.551231e+00 2.709670e+00 2.317643e+00 2.671289e+00 2.978010e+00 2.716400e+00 2.484745e+00 2.904441e+00 2.816541e+00 2.382843e+00 2.523639e+00 3.085212e+00 3.086964e+00 3.220228e+00 6.160543e+00 4.107521e+00 -2.088819e-01 -7.572836e-01 -2.755242e-01 -7.153298e-02 
-9.595177e-03 -2.969286e-02 -1.084072e-01 -2.866178e-01 -3.158968e-01 8.641585e-01 2.254649e+00 1.094669e+00 8.357775e-01 8.665584e-01 7.689313e-01 1.050557e+00 2.239021e+00 1.736145e+00 1.314342e+00 1.318834e+00 1.316270e+00 1.312782e+00 1.312191e+00 1.304460e+00 1.758213e+00 2.028493e+00 9.693221e-01 6.990530e-01 7.345709e-01 8.990900e-01 8.625883e-01 7.289748e-01 1.000936e+00 1.129240e+00 7.850126e-01 8.172113e-01 1.207822e+00 6.571028e-01 6.494295e-01 1.226847e+00 7.793180e-01 8.044593e-01 1.234358e+00 6.373554e-01 7.884892e-01 1.049537e+00 6.398252e-01 9.320059e-01 9.465524e-01 8.822090e-01 1.096048e+00 8.741754e-01 8.758817e-01 8.334140e-01 7.829168e-01 8.476855e-01 9.243059e-01 9.064302e-01 5.603067e-01 7.489727e-01 1.776903e+00 1.194767e+00 3.994857e-01 1.690296e+00 7.564412e-01 6.575368e-01 1.666821e+00 -9.563697e-02 9.765709e-01 1.428833e+00 4.618563e-02 1.277526e+00 3.311011e-02 -7.986984e-01 4.206768e-01 -1.610072e-01 -2.791992e-01 3.480104e-01 8.042813e-01 7.603296e-01 8.076369e-01 9.788443e-01 8.548422e-01 1.072918e+00 8.391014e-01 7.607105e-01 9.234048e-01 8.876036e-01 9.836721e-01 1.013025e+00 1.013396e+00 6.991387e-01 9.668200e-01 8.037533e-01 9.191512e-01 1.228687e+00 5.816046e-01 9.970279e-01 8.736165e-01 6.071758e-01 1.354603e+00 7.379448e-01 6.782144e-01 1.187919e+00 7.012433e-01 8.173927e-01 1.205351e+00 7.161668e-01 6.577318e-01 1.193916e+00 9.066785e-01 6.668584e-01 9.656498e-01 1.051585e+00 6.629237e-01 9.011500e-01 1.032133e+00 8.648154e-01 6.495404e-01 1.061929e+00 9.329699e-01 7.155282e-01 6.573507e-01 1.246787e+00 1.045694e+00 1.504144e+00 2.126085e+00 8.008700e-02 -5.066783e-01 -2.777115e-01 -8.576455e-02 -2.004957e-02 
-1.433201e-03 -4.059164e-03 -1.814697e-02 -6.024011e-02 -1.350599e-01 -1.260664e-01 2.290850e-02 -3.698732e-02 -7.092991e-02 -7.894331e-02 -1.072162e-01 2.079217e-01 2.073820e+00 1.802819e+00 8.909281e-01 8.900257e-01 8.899458e-01 8.897771e-01 8.896063e-01 8.911291e-01 1.820073e+00 1.964111e+00 -6.505226e-03 -1.889138e-01 -1.021831e-01 -5.401090e-02 -4.441670e-02 -4.804056e-02 -3.299912e-02 -3.158201e-02 -4.781575e-02 -4.424799e-02 -2.775021e-02 -5.469384e-02 -5.018499e-02 -2.641715e-02 -5.122670e-02 -4.371578e-02 -2.704798e-02 -5.538434e-02 -4.409010e-02 -3.662987e-02 -5.350443e-02 -3.732904e-02 -3.972878e-02 -3.884019e-02 -3.067032e-02 -4.146899e-02 -3.980798e-02 -4.191891e-02 -4.283016e-02 -4.460871e-02 -5.684535e-02 -1.099089e-01 -2.232558e-01 -1.649922e-01 4.064233e-01 2.484619e-01 -4.723776e-01 1.082464e-01 -2.154267e-02 -4.758572e-01 9.426194e-02 -4.797742e-01 -3.971410e-01 1.137932e-01 -5.359802e-01 -6.031176e-02 7.365741e-02 -5.939290e-01 -3.092791e-01 -1.009365e-01 -3.052150e-01 -3.414550e-01 -1.919194e-01 -8.789100e-02 -5.079582e-02 -3.319804e-02 -4.026978e-02 -3.328704e-02 -4.241726e-02 -5.084030e-02 -4.121114e-02 -4.412049e-02 -3.843701e-02 -3.878990e-02 -3.719444e-02 -5.208459e-02 -4.192569e-02 -4.466490e-02 -4.505929e-02 -2.640676e-02 -5.634404e-02 -4.201223e-02 -3.989061e-02 -5.912767e-02 -2.290319e-02 -4.754301e-02 -5.534136e-02 -2.977727e-02 -4.854868e-02 -4.953435e-02 -2.880907e-02 -4.936908e-02 -5.539217e-02 -3.036134e-02 -4.063245e-02 -5.387290e-02 -4.117095e-02 -3.359952e-02 -5.318964e-02 -4.328162e-02 -3.823397e-02 -4.141825e-02 -5.566419e-02 -3.449267e-02 -4.338581e-02 -4.661452e-02 -5.612857e-02 -2.348139e-02 -4.334021e-02 5.120745e-03 1.645199e-02 -1.484062e-01 -1.221695e-01 -5.045434e-02 -1.508953e-02 -3.379183e-03 
-2.116215e-04 -5.990181e-04 -2.241659e-03 -7.335577e-03 -1.829999e-02 -3.007306e-02 -2.607812e-02 -2.460797e-02 -2.852315e-02 -4.086862e-02 -5.800821e-02 8.841135e-02 1.036534e+00 8.947614e-01 4.458663e-01 4.453465e-01 4.453457e-01 4.453457e-01 4.453476e-01 4.463280e-01 9.113972e-01 9.677642e-01 -4.458480e-02 -1.170103e-01 -5.909824e-02 -3.056766e-02 -2.193116e-02 -2.036410e-02 -2.004568e-02 -2.030185e-02 -2.038936e-02 -2.034850e-02 -2.042000e-02 -2.055871e-02 -2.035924e-02 -2.044338e-02 -2.059367e-02 -2.030565e-02 -2.043235e-02 -2.047835e-02 -2.024496e-02 -2.044333e-02 -2.030388e-02 -2.016863e-02 -2.030535e-02 -2.007367e-02 -2.012382e-02 -2.012037e-02 -2.003190e-02 -2.011859e-02 -2.047397e-02 -2.282806e-02 -3.320479e-02 -6.892065e-02 -1.464878e-01 -1.643788e-01 2.309485e-01 4.000169e-01 -8.128158e-02 1.240058e-01 2.906870e-01 -4.534788e-02 1.906007e-01 1.049351e-01 1.156828e-01 2.758268e-01 5.276472e-02 2.072478e-01 -1.149214e-01 -6.804962e-01 -3.867154e-01 4.583037e-02 2.720513e-02 -6.556372e-02 -2.911631e-02 -8.215114e-03 -1.146738e-02 -1.658355e-02 -1.903230e-02 -2.007126e-02 -2.026210e-02 -2.065733e-02 -2.059732e-02 -2.067883e-02 -2.060244e-02 -2.065765e-02 -2.062884e-02 -2.059938e-02 -2.076753e-02 -2.047531e-02 -2.072006e-02 -2.057700e-02 -2.048169e-02 -2.083056e-02 -2.035187e-02 -2.065592e-02 -2.061267e-02 -2.039336e-02 -2.066439e-02 -2.061678e-02 -2.034919e-02 -2.067556e-02 -2.052031e-02 -2.045502e-02 -2.058473e-02 -2.061134e-02 -2.040530e-02 -2.057008e-02 -2.061375e-02 -2.046185e-02 -2.051961e-02 -2.057210e-02 -2.064048e-02 -2.037875e-02 -2.066527e-02 -2.049697e-02 -2.080699e-02 -2.036471e-02 -2.098498e-02 -2.083061e-02 -2.276037e-02 -2.266153e-02 -2.406657e-02 -2.538918e-02 -1.446675e-02 -5.182282e-03 -1.405745e-03 -2.364110e-04 
1.034528e-06 -2.602766e-07 5.509947e-07 -1.625299e-07 3.106609e-07 1.728065e-08 1.009882e-08 2.745723e-07 6.916491e-07 -5.229638e-07 -4.077195e-06 3.928181e-07 5.022357e-03 7.145458e-03 6.730314e-06 -4.484924e-08 -4.164596e-08 -5.672519e-08 -1.337699e-07 -5.273426e-05 -2.547423e-02 -7.119812e-03 1.282458e-03 3.735175e-04 1.566392e-04 2.964969e-05 1.083656e-05 -2.226102e-06 1.264017e-06 -4.403908e-06 -5.966456e-08 2.160290e-06 1.687150e-07 1.083066e-06 8.019416e-06 -1.206154e-06 3.024681e-06 6.519511e-06 2.763620e-06 4.484706e-06 8.616946e-06 -1.544469e-06 7.343909e-06 1.271321e-07 -5.077719e-07 -2.148391e-06 -1.933121e-05 -3.138353e-05 -6.526172e-05 -1.357216e-04 -4.402770e-04 -1.921588e-03 -8.530587e-03 -2.935243e-02 -5.568658e-02 6.146278e-02 5.872460e-01 6.822545e-01 -5.189353e-03 1.655505e-02 1.909460e-01 -9.537273e-02 1.010870e-02 -6.698232e-02 -1.091376e-01 -2.522090e-02 -8.266035e-02 1.107446e-01 -6.586395e-02 -2.723804e-01 -7.296270e-02 -6.015702e-02 -9.452869e-02 -1.704721e-02 2.307462e-02 2.104930e-02 9.689613e-03 3.078942e-03 7.441608e-04 1.363782e-04 -1.783209e-05 -5.033625e-05 -6.009496e-05 -5.787614e-05 -5.230766e-05 -4.660870e-05 -3.926961e-05 -4.142875e-05 -3.236132e-05 -3.071508e-05 -2.525319e-05 -1.674245e-05 -2.297791e-05 -1.253305e-05 -1.564518e-05 -1.010646e-05 -4.413449e-06 -7.250592e-06 -5.303332e-06 -3.516896e-06 -5.463115e-06 -2.384697e-06 3.390245e-07 -2.762992e-06 -1.729787e-06 -1.958742e-06 -1.226358e-06 -2.439399e-06 2.449120e-06 -2.189700e-06 -9.326248e-07 -2.832568e-06 1.574365e-06 -5.586460e-07 -2.532280e-07 3.834550e-07 -1.099073e-06 1.435872e-06 -1.789785e-06 3.093398e-06 -2.144868e-06 2.157508e-06 -2.526021e-06 -2.465113e-06 2.096162e-06 -1.693789e-06 1.769144e-06 -7.060511e-07 
2.121590e-04 5.983109e-04 2.241598e-03 7.335366e-03 1.830088e-02 3.007719e-02 2.607937e-02 2.460216e-02 2.853902e-02 4.086905e-02 5.797266e-02 -8.843289e-02 -1.025866e+00 -8.854318e-01 -4.458565e-01 -4.453465e-01 -4.453456e-01 -4.453458e-01 -4.453480e-01 -4.464213e-01 -9.579372e-01 -9.934403e-01 4.723760e-02 1.178715e-01 5.950083e-02 3.067517e-02 2.193346e-02 2.038452e-02 2.018292e-02 2.036366e-02 2.035693e-02 2.046305e-02 2.056697e-02 2.055506e-02 2.051365e-02 2.067961e-02 2.066454e-02 2.058303e-02 2.075146e-02 2.069920e-02 2.067415e-02 2.079660e-02 2.075049e-02 2.079628e-02 2.086323e-02 2.082469e-02 2.090127e-02 2.085396e-02 2.085120e-02 2.080179e-02 2.054879e-02 1.951087e-02 1.394589e-02 -8.780815e-03 -6.909588e-02 -9.420129e-02 2.597340e-01 3.526878e-01 -1.415955e-01 7.166303e-02 1.723534e-01 -1.224023e-01 1.189638e-01 -3.506547e-02 4.564650e-03 1.393438e-01 -2.253872e-02 2.048576e-01 -1.682929e-01 -6.665554e-01 -2.902704e-01 1.489703e-01 1.706798e-01 8.876430e-02 7.345261e-02 5.269427e-02 3.245633e-02 2.328183e-02 2.066378e-02 2.009872e-02 2.005536e-02 2.024950e-02 2.012773e-02 2.031341e-02 2.034031e-02 2.030259e-02 2.041430e-02 2.038580e-02 2.042886e-02 2.041939e-02 2.047861e-02 2.046308e-02 2.045716e-02 2.052457e-02 2.045701e-02 2.050695e-02 2.051121e-02 2.051777e-02 2.047248e-02 2.057836e-02 2.045209e-02 2.056330e-02 2.049290e-02 2.055605e-02 2.047073e-02 2.057382e-02 2.049287e-02 2.054401e-02 2.052152e-02 2.053155e-02 2.055223e-02 2.049013e-02 2.061298e-02 2.046126e-02 2.068237e-02 2.043363e-02 2.079675e-02 2.040408e-02 2.099539e-02 2.080074e-02 2.274211e-02 2.266542e-02 2.406088e-02 2.538677e-02 1.447266e-02 5.180621e-03 1.408273e-03 2.351757e-04 
1.435089e-03 4.059925e-03 1.814629e-02 6.024242e-02 1.350860e-01 1.258833e-01 -2.401293e-02 3.611042e-02 7.204878e-02 8.059404e-02 1.081977e-01 -2.064365e-01 -2.066514e+00 -1.790578e+00 -8.908737e-01 -8.899398e-01 -8.898599e-01 -8.896852e-01 -8.899515e-01 -8.918152e-01 -1.888455e+00 -1.967956e+00 1.180126e-02 1.864788e-01 9.917893e-02 5.613329e-02 4.090458e-02 3.572895e-02 3.306903e-02 4.478716e-02 4.418732e-02 3.881598e-02 4.482098e-02 5.243929e-02 3.555763e-02 3.635864e-02 4.983678e-02 3.704103e-02 3.897220e-02 4.986014e-02 4.162225e-02 4.406114e-02 4.575419e-02 4.193467e-02 4.602636e-02 4.624073e-02 4.819504e-02 4.804914e-02 4.449139e-02 4.581899e-02 3.855587e-02 3.933389e-02 3.444124e-02 5.363805e-03 -9.977057e-03 1.596079e-01 7.732732e-01 8.149150e-01 1.084923e-01 2.309495e-01 2.707233e-01 6.373283e-02 2.374335e-01 -9.932147e-02 6.357576e-02 1.175218e-01 -9.430942e-02 2.376867e-01 -2.592972e-01 -3.659418e-01 5.612471e-02 -2.435714e-01 -2.302073e-01 6.820612e-02 1.184149e-01 8.281402e-02 4.949454e-02 4.231006e-02 3.494371e-02 3.406258e-02 4.540022e-02 3.871989e-02 3.946674e-02 4.958275e-02 3.823351e-02 4.591785e-02 4.871206e-02 4.374178e-02 4.360780e-02 4.371842e-02 4.248145e-02 3.948242e-02 4.409886e-02 4.113081e-02 3.816582e-02 4.500644e-02 4.079423e-02 4.285451e-02 4.549734e-02 4.256112e-02 4.146880e-02 4.589163e-02 4.473662e-02 4.312165e-02 4.587219e-02 4.512170e-02 4.432410e-02 4.555568e-02 4.846332e-02 4.202659e-02 4.511501e-02 4.213612e-02 4.705004e-02 3.969895e-02 4.894466e-02 4.138493e-02 4.974227e-02 3.604057e-02 4.707263e-02 3.329314e-02 5.210573e-02 -1.319899e-02 -2.445855e-02 1.475637e-01 1.221891e-01 5.045689e-02 1.509907e-02 3.381550e-03 
9.591836e-03 2.969296e-02 1.084045e-01 2.867140e-01 3.154082e-01 -8.709873e-01 -2.280248e+00 -1.114104e+00 -8.187761e-01 -8.310888e-01 -7.400014e-01 -1.019202e+00 -2.203777e+00 -1.746795e+00 -1.313208e+00 -1.317334e+00 -1.315796e+00 -1.311646e+00 -1.318335e+00 -1.314773e+00 -1.848883e+00 -1.988079e+00 -8.507149e-01 -7.572312e-01 -8.425519e-01 -8.626730e-01 -8.939120e-01 -9.983209e-01 -1.058201e+00 -8.412879e-01 -8.197009e-01 -9.626156e-01 -8.597869e-01 -6.701654e-01 -1.031186e+00 -1.069653e+00 -7.614634e-01 -9.952209e-01 -1.030373e+00 -7.537620e-01 -9.190547e-01 -9.090639e-01 -8.370427e-01 -9.328947e-01 -8.676188e-01 -8.396463e-01 -8.174608e-01 -8.015954e-01 -8.836021e-01 -8.622605e-01 -9.869653e-01 -9.545427e-01 -8.635872e-01 -1.018592e+00 -1.036112e+00 -9.803341e-01 1.191956e-01 2.645159e-01 -1.256396e+00 -4.828508e-01 -4.316848e-01 -1.265030e+00 -4.003006e-01 -1.278288e+00 -1.044927e+00 -5.400974e-01 -1.241922e+00 -3.509325e-01 -1.383656e+00 -2.149811e+00 -1.021969e+00 -9.595417e-01 -9.515819e-01 -7.395901e-01 -6.721659e-01 -7.922812e-01 -9.261207e-01 -8.655241e-01 -1.005736e+00 -1.000728e+00 -7.709879e-01 -9.663218e-01 -8.834801e-01 -7.335289e-01 -9.778314e-01 -7.960585e-01 -7.667631e-01 -8.547854e-01 -8.742741e-01 -8.654043e-01 -9.167090e-01 -9.601923e-01 -8.554444e-01 -9.437747e-01 -9.833241e-01 -8.501511e-01 -9.441020e-01 -8.867236e-01 -8.237771e-01 -9.217179e-01 -9.085660e-01 -8.442028e-01 -8.501120e-01 -8.930465e-01 -8.208960e-01 -8.687133e-01 -8.650485e-01 -8.360882e-01 -7.732869e-01 -9.050986e-01 -8.561714e-01 -8.942123e-01 -8.320838e-01 -9.333292e-01 -7.931986e-01 -8.794787e-01 -7.966975e-01 -9.703876e-01 -8.601094e-01 -1.011670e+00 -8.484660e-01 -1.688016e+00 -2.303679e+00 -1.002686e-01 5.056916e-01 2.777270e-01 8.577081e-02 2.005882e-02 
3.225302e-02 8.868335e-02 2.647686e-01 2.552294e-01 -2.246434e+00 -4.795008e+00 -4.209258e+00 -3.174350e+00 -2.345386e+00 -2.525297e+00 -2.125785e+00 -2.155583e+00 -2.409745e+00 -2.383123e+00 -2.180797e+00 -2.330030e+00 -2.261515e+00 -2.345086e+00 -2.276971e+00 -2.307969e+00 -2.405609e+00 -2.393991e+00 -2.191150e+00 -2.254026e+00 -2.447252e+00 -2.386338e+00 -2.530810e+00 -2.623880e+00 -2.837085e+00 -2.482177e+00 -2.500767e+00 -2.661102e+00 -2.549104e+00 -2.234112e+00 -2.937564e+00 -2.888081e+00 -2.481502e+00 -2.750262e+00 -2.920817e+00 -2.490358e+00 -2.755462e+00 -2.690429e+00 -2.469906e+00 -2.623061e+00 -2.630081e+00 -2.604116e+00 -2.484853e+00 -2.413972e+00 -2.608278e+00 -2.614179e+00 -2.788044e+00 -2.817087e+00 -2.644615e+00 -2.878958e+00 -2.695609e+00 -3.066299e+00 -3.335012e+00 -3.173147e+00 -2.963799e+00 -2.890299e+00 -2.786057e+00 -2.590184e+00 -2.620139e+00 -2.656398e+00 -2.852145e+00 -2.832643e+00 -2.789965e+00 -2.701178e+00 -2.360223e+00 -2.224821e+00 -2.337919e+00 -2.332416e+00 -2.374396e+00 -2.517945e+00 -2.438343e+00 -2.559878e+00 -2.743615e+00 -2.631865e+00 -2.750414e+00 -2.792084e+00 -2.476687e+00 -2.674411e+00 -2.461763e+00 -2.280780e+00 -2.827932e+00 -2.577830e+00 -2.565564e+00 -2.583582e+00 -2.714472e+00 -2.752638e+00 -2.824878e+00 -2.756254e+00 -2.500650e+00 -2.695863e+00 -2.799578e+00 -2.627316e+00 -2.677958e+00 -2.579558e+00 -2.447992e+00 -2.735189e+00 -2.686369e+00 -2.689405e+00 -2.497325e+00 -2.688044e+00 -2.584038e+00 -2.875830e+00 -2.746867e+00 -2.627010e+00 -2.419843e+00 -2.592384e+00 -2.619151e+00 -2.697058e+00 -2.693227e+00 -2.696352e+00 -2.551643e+00 -2.600942e+00 -2.725448e+00 -2.789965e+00 -2.851225e+00 -2.731512e+00 -2.845887e+00 -3.468942e+00 -6.341457e+00 -4.175868e+00 1.901447e-01 7.565835e-01 2.754933e-01 7.155235e-02 
3.797616e-02 1.018156e-01 2.830598e-01 6.206277e-02 -3.907580e+00 -4.963183e+00 -2.334257e-01 -1.564637e+00 -1.054424e+00 -1.369233e+00 -9.852030e-01 -7.306968e-01 4.664113e-01 1.605264e-01 -2.385990e-01 6.964832e-02 -2.588831e-02 4.219341e-02 -1.195098e-01 -8.694450e-02 9.440253e-02 1.327142e-01 -9.284097e-01 -1.056176e+00 -1.227367e+00 -1.106094e+00 -1.276907e+00 -1.122405e+00 -1.304200e+00 -1.320512e+00 -1.422184e+00 -1.272192e+00 -1.378418e+00 -1.398196e+00 -1.527629e+00 -1.331320e+00 -1.538538e+00 -1.327413e+00 -1.487838e+00 -1.570982e+00 -1.536572e+00 -1.454702e+00 -1.308069e+00 -1.285401e+00 -1.467161e+00 -1.505385e+00 -1.368837e+00 -1.302874e+00 -1.376949e+00 -1.440507e+00 -1.370910e+00 -1.500963e+00 -1.504354e+00 -1.571862e+00 -1.436102e+00 -1.580917e+00 -1.826658e+00 -1.856321e+00 -1.209195e+00 -1.531635e+00 -1.526437e+00 -8.658417e-01 -1.358056e+00 -9.893400e-01 -1.121360e+00 -1.462512e+00 -1.077452e+00 -1.472667e+00 -1.314536e+00 -1.101208e+00 -1.500754e+00 -1.806565e+00 -1.856583e+00 -1.529511e+00 -1.422773e+00 -1.455857e+00 -1.499696e+00 -1.520859e+00 -1.327236e+00 -1.405348e+00 -1.520831e+00 -1.296554e+00 -1.192583e+00 -1.298511e+00 -1.504096e+00 -1.598074e+00 -1.657204e+00 -1.446560e+00 -1.600470e+00 -1.681183e+00 -1.656133e+00 -1.431311e+00 -1.312978e+00 -1.378878e+00 -1.438387e+00 -1.524543e+00 -1.349749e+00 -1.354040e+00 -1.314150e+00 -1.501681e+00 -1.460855e+00 -1.639468e+00 -1.318097e+00 -1.509075e+00 -1.533060e+00 -1.868405e+00 -1.669625e+00 -1.566916e+00 -1.403388e+00 -1.326379e+00 -1.493747e+00 -1.520528e+00 -1.675415e+00 -1.413078e+00 -1.558782e+00 -1.408644e+00 -1.825474e+00 -1.462818e+00 -1.862048e+00 -1.266302e+00 -1.932486e+00 -6.064114e-01 -3.394212e+00 -5.784272e+00 -5.845038e-01 6.960486e-01 2.969611e-01 8.081620e-02 
1.529074e-02 3.779475e-02 9.059425e-02 -6.999211e-02 -1.654576e+00 -7.250702e-01 2.989918e+00 1.083028e+00 9.020829e-01 7.718181e-01 7.900566e-01 5.088011e-01 -9.370675e-01 4.063992e-01 1.072263e+00 1.197467e+00 9.522370e-01 1.187084e+00 9.776137e-01 1.408779e+00 2.073064e-01 -6.009691e-01 4.183827e-01 8.124265e-01 8.146805e-01 8.619503e-01 8.099577e-01 1.014348e+00 1.010377e+00 7.442049e-01 6.675478e-01 9.171280e-01 7.411462e-01 4.983322e-01 9.009437e-01 1.032077e+00 5.579540e-01 9.363807e-01 9.236369e-01 5.398144e-01 7.652106e-01 7.851631e-01 7.504057e-01 8.816369e-01 7.360854e-01 6.857462e-01 7.181730e-01 7.235964e-01 8.091479e-01 7.624023e-01 9.566700e-01 8.730974e-01 7.433703e-01 8.049813e-01 6.020037e-01 5.976692e-01 1.458282e+00 1.569993e+00 8.260980e-01 1.277489e+00 1.213662e+00 6.957790e-01 1.117444e+00 7.911684e-01 8.028402e-01 1.017235e+00 6.927676e-01 8.741305e-01 4.861966e-01 4.929160e-02 6.171446e-01 8.422241e-01 7.483928e-01 9.350990e-01 7.886233e-01 7.308338e-01 7.802678e-01 6.705090e-01 9.194310e-01 8.876642e-01 5.655476e-01 8.969846e-01 8.344116e-01 6.145922e-01 8.375209e-01 5.808189e-01 5.193053e-01 7.128705e-01 6.758885e-01 6.391945e-01 7.095350e-01 8.513358e-01 7.644267e-01 8.502743e-01 8.765969e-01 6.786957e-01 8.627348e-01 7.864109e-01 7.270997e-01 7.739799e-01 7.773245e-01 6.254294e-01 7.601287e-01 7.327215e-01 6.434202e-01 5.664884e-01 6.467453e-01 6.403524e-01 6.322782e-01 8.177408e-01 6.996618e-01 7.323629e-01 5.991916e-01 8.245834e-01 5.923273e-01 7.606726e-01 4.910112e-01 8.547795e-01 5.467015e-01 9.729548e-01 4.420912e-01 1.992092e+00 1.638704e+00 -1.764969e+00 -2.853399e-01 2.359079e-01 1.134786e-01 3.263178e-02 
1.769268e-03 4.081531e-03 3.533750e-03 -3.751695e-02 -1.826176e-01 2.724894e-01 1.195819e+00 6.215644e-01 4.581945e-01 4.751064e-01 4.757735e-01 3.852154e-01 -7.488568e-01 -2.652676e+00 -3.511416e+00 -3.058560e+00 -3.272457e+00 -3.251977e+00 -3.098349e+00 -3.475854e+00 -2.741514e+00 -5.365151e-01 3.615714e-01 4.849166e-01 4.649498e-01 4.523205e-01 4.523325e-01 5.107375e-01 5.328256e-01 4.319146e-01 4.174670e-01 4.939220e-01 4.382992e-01 3.488776e-01 5.224751e-01 5.443637e-01 3.892959e-01 5.101305e-01 5.227786e-01 3.871191e-01 4.711211e-01 4.652521e-01 4.348391e-01 4.815813e-01 4.489722e-01 4.355399e-01 4.295580e-01 4.238438e-01 4.674926e-01 4.576105e-01 5.260126e-01 5.100400e-01 4.613367e-01 4.855975e-01 3.555124e-01 3.062571e-01 6.280602e-01 6.890051e-01 3.376806e-01 6.139072e-01 5.976179e-01 2.772923e-01 5.305092e-01 3.289448e-01 3.411267e-01 4.752859e-01 2.736383e-01 4.641788e-01 3.939885e-01 3.019412e-01 6.741067e-01 8.079603e-01 7.091142e-01 6.513214e-01 5.065864e-01 4.476022e-01 4.615526e-01 4.207830e-01 4.926011e-01 4.947400e-01 3.866072e-01 4.849910e-01 4.514075e-01 3.780063e-01 4.928031e-01 4.072773e-01 3.899048e-01 4.385339e-01 4.439823e-01 4.411952e-01 4.639816e-01 4.903353e-01 4.410215e-01 4.820452e-01 5.016907e-01 4.353405e-01 4.837915e-01 4.549763e-01 4.273452e-01 4.684592e-01 4.666824e-01 4.293769e-01 4.404712e-01 4.542587e-01 4.240597e-01 4.367788e-01 4.431280e-01 4.265188e-01 4.019938e-01 4.637365e-01 4.394231e-01 4.570540e-01 4.235741e-01 4.793619e-01 4.048751e-01 4.547954e-01 3.996105e-01 4.998044e-01 4.250260e-01 5.194136e-01 3.856804e-01 8.466864e-01 1.057602e+00 -4.481255e-03 -5.016870e-02 6.339368e-03 7.921348e-03 2.917207e-03 
