# vtk DataFile Version 2.0
Comment goes here
ASCII

DATASET STRUCTURED_POINTS
FIELD FieldData 1
TIME 1 1 double
0.98000000
DIMENSIONS    128   16   1

ORIGIN    0.000   0.000   0.000
SPACING   0.0078125 0.015625   1.000

POINT_DATA   2048
SCALARS Omega double
LOOKUP_TABLE default

-1.809879e-06 5.426174e-07 2.819102e-06 7.154342e-06 1.306481e-05 7.288846e-06 -1.978807e-06 -1.814718e-05 -6.339586e-06 -1.178702e-05 -4.108121e-06 1.277306e-06 1.064510e-05 -1.248216e-05 -1.538561e-05 4.666035e-05 -2.168089e-05 3.154603e-05 1.729320e-05 -2.813368e-06 8.973469e-05 5.441800e-05 -8.853745e-06 -2.290150e-05 -4.392325e-05 -5.112801e-05 -7.205310e-05 -7.990837e-05 -1.017313e-04 -1.124856e-04 -1.385684e-04 -1.532464e-04 -1.858875e-04 -2.024912e-04 -2.446260e-04 -2.596120e-04 -3.106632e-04 -3.220359e-04 -3.783958e-04 -3.842531e-04 -4.395335e-04 -4.384317e-04 -4.792475e-04 -4.609467e-04 -4.585546e-04 -3.860320e-04 -2.865532e-04 -1.044060e-04 1.162425e-04 3.223210e-04 3.690410e-04 9.258540e-05 -4.662230e-04 -2.639932e-03 -1.458691e-02 -4.918551e-02 -8.122307e-02 -7.973820e-02 -6.169622e-02 -3.950673e-02 -4.863809e-02 -5.200664e-02 -3.581696e-02 -6.299305e-02 -3.938297e-02 -4.111746e-02 -6.572246e-02 3.058131e-02 8.359395e-02 8.100471e-02 7.268845e-02 1.787546e-02 -5.798997e-03 4.012905e-03 1.175294e-02 1.256996e-02 1.029914e-02 8.143110e-03 5.735011e-03 4.000007e-03 2.319779e-03 1.278195e-03 3.549113e-04 -1.066496e-04 -4.975449e-04 -6.044874e-04 -7.062572e-04 -6.474709e-04 -6.308387e-04 -5.223567e-04 -4.776563e-04 -3.733249e-04 -3.351363e-04 -2.525628e-04 -2.263416e-04 -1.679980e-04 -1.482172e-04 -1.128181e-04 -9.306451e-05 -7.664754e-05 -5.604529e-05 -5.187701e-05 -3.279020e-05 -3.497248e-05 -1.934422e-05 -2.479763e-05 -1.204733e-05 -2.018994e-05 -8.736097e-06 -1.917998e-05 -7.428492e-06 -1.993993e-05 -6.299599e-06 -2.015334e-05 -4.145139e-06 -1.792565e-05 2.993347e-07 -1.236253e-05 8.192878e-06 -2.206605e-06 2.341779e-05 3.497418e-06 2.491938e-05 5.591183e-07 -1.054646e-05 -6.131458e-06 -4.712007e-06 -4.073010e-06 
-1.763534e-03 -4.473762e-03 -7.167804e-03 2.986751e-02 1.176949e-01 -6.744885e-01 -1.148275e+00 -4.795390e-01 -5.678858e-01 -4.627256e-01 -5.283088e-01 -2.758453e-01 6.235379e-01 2.236422e+00 3.004134e+00 2.744260e+00 2.762230e+00 2.855322e+00 2.679023e+00 2.957484e+00 2.416585e+00 4.288635e-01 -3.086355e-01 -5.010869e-01 -4.595859e-01 -4.947465e-01 -4.609730e-01 -4.982651e-01 -4.698227e-01 -4.994222e-01 -4.764975e-01 -4.980890e-01 -4.818215e-01 -4.954635e-01 -4.860300e-01 -4.922754e-01 -4.891395e-01 -4.890031e-01 -4.911145e-01 -4.858114e-01 -4.919421e-01 -4.826169e-01 -4.915359e-01 -4.791811e-01 -4.895754e-01 -4.750980e-01 -4.853988e-01 -4.696135e-01 -4.779391e-01 -4.615436e-01 -4.658922e-01 -4.489935e-01 -4.463582e-01 -4.306270e-01 -4.557994e-01 -5.684094e-01 -6.430968e-01 -6.040806e-01 -2.622388e-01 1.216407e-01 -4.540541e-01 -2.823196e-01 8.700105e-02 -7.529480e-01 1.014350e-01 -7.398707e-02 -7.564591e-01 6.173555e-01 -1.066477e+00 -2.846093e+00 -1.143215e+00 8.523500e-02 -2.698410e-01 -6.358842e-01 -5.374598e-01 -4.974583e-01 -4.882827e-01 -4.906415e-01 -4.910788e-01 -4.914864e-01 -4.930750e-01 -4.915693e-01 -4.937601e-01 -4.908552e-01 -4.937261e-01 -4.895875e-01 -4.934899e-01 -4.881334e-01 -4.933393e-01 -4.867004e-01 -4.933131e-01 -4.854831e-01 -4.932771e-01 -4.846431e-01 -4.929862e-01 -4.844057e-01 -4.921514e-01 -4.849899e-01 -4.905232e-01 -4.866035e-01 -4.879223e-01 -4.893209e-01 -4.843655e-01 -4.930400e-01 -4.799978e-01 -4.975218e-01 -4.750905e-01 -5.024037e-01 -4.699916e-01 -5.071828e-01 -4.651712e-01 -5.111827e-01 -4.611090e-01 -5.135758e-01 -4.580957e-01 -5.134472e-01 -4.555399e-01 -5.100929e-01 -4.492440e-01 -5.028960e-01 -4.103368e-01 -6.912948e-01 -1.046470e+00 -2.552423e-01 -3.818714e-02 -2.537667e-02 -9.323828e-03 -2.793788e-03 
1.713518e-03 -1.504122e-02 -3.238093e-02 2.482719e-01 1.619175e+00 -5.301194e-01 -2.663311e+00 -4.887225e-01 -1.011369e+00 -6.085127e-01 -8.439303e-01 -3.567338e-01 2.453072e-01 -4.591392e-01 -1.259437e+00 -1.174279e+00 -1.027866e+00 -1.181205e+00 -1.044207e+00 -1.299278e+00 -3.171483e-01 -9.018967e-02 -4.762129e-01 -7.971134e-01 -7.087159e-01 -7.949991e-01 -6.870650e-01 -7.831225e-01 -6.832310e-01 -7.769003e-01 -6.850896e-01 -7.695375e-01 -6.895115e-01 -7.603765e-01 -6.956479e-01 -7.504297e-01 -7.024159e-01 -7.400341e-01 -7.086911e-01 -7.297074e-01 -7.139973e-01 -7.192538e-01 -7.176504e-01 -7.089997e-01 -7.198201e-01 -6.995384e-01 -7.196128e-01 -6.901500e-01 -7.154302e-01 -6.791600e-01 -7.044896e-01 -6.621468e-01 -6.840407e-01 -6.475457e-01 -7.006899e-01 -5.786737e-01 -8.769678e-02 -2.346982e-01 -7.040122e-01 1.041882e-01 -6.020015e-01 -6.229336e-01 1.385551e-01 -1.151695e+00 -1.359636e-01 -8.019628e-02 -1.340816e+00 5.041647e-02 -1.293780e+00 -2.473331e+00 -1.080686e+00 -1.093820e+00 -1.192542e+00 -8.011212e-01 -6.228919e-01 -6.588544e-01 -6.500553e-01 -6.889112e-01 -6.694102e-01 -6.994879e-01 -6.786086e-01 -7.033102e-01 -6.839532e-01 -7.018498e-01 -6.878744e-01 -6.961067e-01 -6.927272e-01 -6.879857e-01 -6.993428e-01 -6.784962e-01 -7.075091e-01 -6.690498e-01 -7.158097e-01 -6.603101e-01 -7.221355e-01 -6.539463e-01 -7.249336e-01 -6.516307e-01 -7.226153e-01 -6.551328e-01 -7.144908e-01 -6.653971e-01 -6.998848e-01 -6.819600e-01 -6.793660e-01 -7.041593e-01 -6.541723e-01 -7.298302e-01 -6.262818e-01 -7.569322e-01 -5.991957e-01 -7.821061e-01 -5.758338e-01 -8.012689e-01 -5.595588e-01 -8.109413e-01 -5.506777e-01 -8.089122e-01 -5.384741e-01 -8.032799e-01 -4.438292e-01 -1.338976e+00 -1.767869e+00 1.080317e+00 4.783314e-01 -1.201485e-01 -5.372490e-02 -3.335442e-03 
9.747766e-03 -3.417646e-02 -9.693617e-02 4.944483e-01 4.226343e+00 3.858953e+00 1.880615e-01 1.772056e+00 1.084842e+00 1.408485e+00 1.041512e+00 8.289128e-01 7.492907e-02 8.586481e-02 4.964828e-01 2.020469e-01 3.166476e-01 1.615053e-01 3.513827e-01 3.653231e-01 9.973793e-02 3.212537e-01 8.603298e-01 1.128836e+00 1.244963e+00 1.277366e+00 1.352071e+00 1.327737e+00 1.412614e+00 1.347113e+00 1.447154e+00 1.355236e+00 1.466885e+00 1.360815e+00 1.475191e+00 1.365500e+00 1.474909e+00 1.371244e+00 1.468754e+00 1.377307e+00 1.457804e+00 1.383409e+00 1.443273e+00 1.386866e+00 1.422334e+00 1.383411e+00 1.393227e+00 1.370635e+00 1.353664e+00 1.345399e+00 1.301260e+00 1.305176e+00 1.230481e+00 1.245387e+00 1.164671e+00 1.273851e+00 1.129254e+00 1.175199e+00 9.334054e-01 6.855347e-01 1.023388e+00 1.050657e+00 6.874688e-01 1.457101e+00 8.553647e-01 9.941668e-01 1.824756e+00 9.549845e-01 2.290021e+00 3.567673e+00 2.365604e+00 1.706848e+00 1.828175e+00 1.780646e+00 1.715390e+00 1.608472e+00 1.636155e+00 1.545790e+00 1.601214e+00 1.510991e+00 1.579329e+00 1.491444e+00 1.562112e+00 1.485836e+00 1.547483e+00 1.492274e+00 1.530788e+00 1.506261e+00 1.510266e+00 1.525208e+00 1.486066e+00 1.545822e+00 1.461143e+00 1.567093e+00 1.439963e+00 1.585630e+00 1.425124e+00 1.597978e+00 1.419631e+00 1.600272e+00 1.424351e+00 1.590079e+00 1.441590e+00 1.567834e+00 1.470982e+00 1.533664e+00 1.511165e+00 1.491397e+00 1.559187e+00 1.443758e+00 1.608604e+00 1.396506e+00 1.655025e+00 1.357130e+00 1.692015e+00 1.331537e+00 1.716233e+00 1.323096e+00 1.732352e+00 1.315613e+00 1.785287e+00 9.934904e-01 2.401341e+00 5.340275e+00 1.689125e+00 -2.409271e-01 -1.123252e-01 1.572782e-03 
1.511930e-02 -9.104900e-03 -5.560421e-02 3.133318e-01 2.947868e+00 5.427516e+00 3.767256e+00 2.682400e+00 2.607623e+00 2.453379e+00 2.435259e+00 2.266366e+00 2.572456e+00 2.414554e+00 2.392165e+00 2.412342e+00 2.426602e+00 2.449229e+00 2.394850e+00 2.434380e+00 2.445146e+00 2.453925e+00 2.320956e+00 2.488391e+00 2.444971e+00 2.605159e+00 2.557782e+00 2.654533e+00 2.623269e+00 2.668003e+00 2.664650e+00 2.666905e+00 2.692252e+00 2.660816e+00 2.709057e+00 2.653001e+00 2.716926e+00 2.646002e+00 2.717476e+00 2.639483e+00 2.711308e+00 2.632697e+00 2.698884e+00 2.622891e+00 2.677165e+00 2.605938e+00 2.642942e+00 2.578212e+00 2.591544e+00 2.534111e+00 2.516812e+00 2.466267e+00 2.411632e+00 2.367241e+00 2.238527e+00 1.993619e+00 1.466725e+00 1.636589e+00 2.277177e+00 2.195854e+00 2.123034e+00 2.542851e+00 2.263383e+00 2.574239e+00 2.804628e+00 2.553942e+00 2.891392e+00 3.072847e+00 2.476252e+00 1.860286e+00 2.503638e+00 3.473940e+00 3.314188e+00 2.902507e+00 2.844350e+00 2.803461e+00 2.823941e+00 2.770341e+00 2.810686e+00 2.745179e+00 2.799693e+00 2.728807e+00 2.788890e+00 2.721684e+00 2.778868e+00 2.722729e+00 2.767174e+00 2.729238e+00 2.752830e+00 2.739603e+00 2.735782e+00 2.751976e+00 2.717641e+00 2.766095e+00 2.700853e+00 2.780271e+00 2.686477e+00 2.792691e+00 2.676000e+00 2.801169e+00 2.669661e+00 2.804029e+00 2.669377e+00 2.800998e+00 2.675652e+00 2.791213e+00 2.688711e+00 2.776101e+00 2.707883e+00 2.756087e+00 2.730507e+00 2.733472e+00 2.755563e+00 2.711932e+00 2.780803e+00 2.695310e+00 2.805700e+00 2.690703e+00 2.833725e+00 2.714012e+00 2.868172e+00 3.249383e+00 5.563683e+00 4.736513e+00 8.895328e-01 -3.385485e-01 -1.046057e-01 -3.962115e-05 
9.862662e-03 9.635098e-03 -2.053803e-02 -8.851275e-02 1.554485e-01 1.912761e+00 2.239065e+00 8.838223e-01 1.102809e+00 9.276575e-01 1.092211e+00 1.261165e+00 1.982529e+00 1.642920e+00 1.347200e+00 1.346929e+00 1.352162e+00 1.347374e+00 1.351497e+00 1.349875e+00 1.731265e+00 1.801727e+00 1.112725e+00 1.024410e+00 9.790836e-01 1.075432e+00 1.028626e+00 1.093795e+00 1.047598e+00 1.095186e+00 1.058967e+00 1.090911e+00 1.067087e+00 1.084650e+00 1.073133e+00 1.077980e+00 1.077239e+00 1.071597e+00 1.079282e+00 1.065437e+00 1.079121e+00 1.059005e+00 1.076458e+00 1.051510e+00 1.070442e+00 1.041967e+00 1.059749e+00 1.029088e+00 1.042513e+00 1.010912e+00 1.016338e+00 9.841337e-01 9.731434e-01 9.150688e-01 8.559195e-01 1.124463e+00 2.204882e+00 1.660700e+00 6.359356e-01 1.778082e+00 8.705585e-01 7.234599e-01 1.792370e+00 5.451763e-02 1.169579e+00 1.449717e+00 -2.198392e-01 1.354950e+00 3.469873e-01 -5.563399e-01 7.182945e-01 -1.505889e-01 -2.805718e-01 7.448810e-01 1.059502e+00 1.084972e+00 1.071294e+00 1.067305e+00 1.071961e+00 1.066754e+00 1.076598e+00 1.067324e+00 1.079665e+00 1.067868e+00 1.081597e+00 1.068163e+00 1.082587e+00 1.068340e+00 1.082816e+00 1.068551e+00 1.082342e+00 1.069064e+00 1.081146e+00 1.070188e+00 1.079112e+00 1.072248e+00 1.075998e+00 1.075492e+00 1.071642e+00 1.080077e+00 1.065944e+00 1.085915e+00 1.059230e+00 1.092663e+00 1.051976e+00 1.099758e+00 1.044848e+00 1.106615e+00 1.038577e+00 1.112524e+00 1.034075e+00 1.116871e+00 1.032640e+00 1.119553e+00 1.036199e+00 1.122093e+00 1.048242e+00 1.131182e+00 1.075055e+00 1.165359e+00 1.105856e+00 1.598709e+00 2.399205e+00 7.957208e-01 -1.182281e-01 -1.156611e-01 -2.068456e-02 4.862646e-03 
3.538904e-03 9.270556e-03 1.077685e-02 -7.222753e-03 -4.048078e-02 4.728398e-02 1.515874e-01 5.120743e-02 5.094186e-02 5.932560e-02 1.267901e-01 5.631379e-01 1.857872e+00 1.555303e+00 8.936330e-01 8.928275e-01 8.930398e-01 8.928446e-01 8.930167e-01 8.946242e-01 1.716342e+00 1.820661e+00 2.264418e-01 -4.108951e-02 -4.673622e-03 3.568378e-02 4.681841e-02 5.585891e-02 5.604989e-02 5.948231e-02 5.819712e-02 5.929456e-02 5.833376e-02 5.819883e-02 5.805482e-02 5.709718e-02 5.771861e-02 5.613428e-02 5.727780e-02 5.519562e-02 5.656463e-02 5.406226e-02 5.536353e-02 5.248315e-02 5.347016e-02 5.030190e-02 5.087345e-02 4.773358e-02 4.816241e-02 4.598560e-02 4.767927e-02 4.905254e-02 5.240528e-02 4.705406e-02 7.283337e-02 4.848599e-01 1.636204e+00 1.365968e+00 -2.029715e-02 6.391326e-01 5.340471e-01 -8.906810e-02 7.297396e-01 -6.854855e-02 -1.324049e-03 7.488525e-01 -1.990862e-01 3.762669e-01 6.634708e-01 -3.090142e-01 -2.626992e-01 -5.148585e-02 -1.311233e-02 5.843485e-02 7.405884e-02 8.171795e-02 6.703423e-02 5.600611e-02 5.147921e-02 4.884125e-02 4.907807e-02 4.861042e-02 5.015079e-02 5.015083e-02 5.195187e-02 5.184981e-02 5.359110e-02 5.322253e-02 5.484668e-02 5.419725e-02 5.572747e-02 5.485111e-02 5.630222e-02 5.529397e-02 5.663346e-02 5.563347e-02 5.676104e-02 5.595580e-02 5.670675e-02 5.632640e-02 5.648303e-02 5.678396e-02 5.611057e-02 5.734470e-02 5.561916e-02 5.801453e-02 5.506151e-02 5.880573e-02 5.453983e-02 5.977593e-02 5.427935e-02 6.112421e-02 5.476584e-02 6.340537e-02 5.701238e-02 6.791335e-02 6.290456e-02 7.705568e-02 7.439832e-02 9.082410e-02 8.352659e-02 1.354138e-01 1.691442e-01 -2.947734e-03 -4.795981e-02 -1.830968e-02 -4.757772e-03 -6.776544e-05 
2.926998e-04 1.972800e-03 3.780837e-03 3.467637e-03 -1.825927e-03 -7.497728e-03 -1.811755e-04 1.885008e-03 7.941950e-03 1.751653e-02 4.855854e-02 2.695552e-01 9.207533e-01 7.731173e-01 4.466288e-01 4.462569e-01 4.462564e-01 4.462563e-01 4.462583e-01 4.471609e-01 8.698170e-01 9.197356e-01 5.702704e-02 -7.866857e-02 -4.867042e-02 -2.579415e-02 -1.521212e-02 -1.024987e-02 -7.270661e-03 -5.738453e-03 -4.854333e-03 -4.604007e-03 -4.426567e-03 -4.584071e-03 -4.581264e-03 -4.844973e-03 -4.874640e-03 -5.176728e-03 -5.244167e-03 -5.607252e-03 -5.774382e-03 -6.253728e-03 -6.587496e-03 -7.209874e-03 -7.691244e-03 -8.318509e-03 -8.645030e-03 -8.702538e-03 -7.930025e-03 -5.914620e-03 -1.655406e-03 6.126533e-03 1.725239e-02 2.419327e-02 2.500921e-02 1.855509e-01 1.036869e+00 1.431068e+00 3.268714e-01 3.280806e-01 8.534071e-01 2.550541e-01 6.038843e-01 6.276256e-01 2.762481e-01 7.811752e-01 4.277130e-01 3.651160e-01 5.461994e-01 -3.985469e-01 -3.676296e-01 5.706997e-01 5.609036e-01 1.641957e-01 5.629701e-02 4.058121e-02 2.494529e-02 1.170046e-02 2.914222e-03 -2.498301e-03 -5.555324e-03 -7.224030e-03 -7.912559e-03 -8.119499e-03 -7.953240e-03 -7.688930e-03 -7.300567e-03 -6.961799e-03 -6.584078e-03 -6.305922e-03 -6.001600e-03 -5.812750e-03 -5.580410e-03 -5.472150e-03 -5.292398e-03 -5.246638e-03 -5.100418e-03 -5.099145e-03 -4.973686e-03 -5.000576e-03 -4.890322e-03 -4.929579e-03 -4.835226e-03 -4.869337e-03 -4.795522e-03 -4.801882e-03 -4.751860e-03 -4.696231e-03 -4.660030e-03 -4.482467e-03 -4.413593e-03 -4.001421e-03 -3.779747e-03 -2.930201e-03 -2.329972e-03 -7.483438e-04 4.907258e-04 2.984073e-03 4.635261e-03 6.903765e-03 6.098682e-03 6.118225e-03 3.682841e-03 -4.656051e-03 -3.738225e-03 -1.388118e-03 -1.279594e-03 -7.070666e-04 
-1.453860e-06 -2.468749e-06 -2.636020e-06 -3.031900e-06 -2.524532e-06 -2.178343e-06 -1.009981e-06 3.011873e-07 1.452912e-06 2.481255e-06 8.227903e-06 3.155412e-05 2.840544e-05 -3.024121e-05 -3.342831e-08 -2.132792e-10 -3.053124e-10 -4.654486e-10 -8.897915e-09 -3.888389e-06 -1.816622e-03 -1.919393e-03 1.958122e-04 1.240197e-04 1.915048e-05 -1.927385e-05 -3.652191e-05 -5.152858e-05 -6.387268e-05 -7.810105e-05 -9.240977e-05 -1.114617e-04 -1.326633e-04 -1.624075e-04 -1.976574e-04 -2.487561e-04 -3.132383e-04 -4.078583e-04 -5.318970e-04 -7.095870e-04 -9.405865e-04 -1.250782e-03 -1.629361e-03 -2.080514e-03 -2.552074e-03 -2.973058e-03 -3.190506e-03 -2.969590e-03 -1.969957e-03 3.462854e-04 4.714914e-03 1.205464e-02 2.104928e-02 2.301669e-02 2.568826e-02 2.683971e-01 1.306657e+00 1.449746e+00 3.360741e-02 2.042616e-01 4.591054e-01 -9.455091e-02 4.026846e-01 4.231858e-02 -3.841073e-03 3.285017e-01 -1.007868e-01 1.976392e-01 -6.770915e-02 -4.278531e-01 -1.234220e-01 -3.745243e-01 -4.230444e-01 -6.833119e-02 6.147100e-02 5.661192e-02 3.527450e-02 2.047545e-02 1.116997e-02 5.266641e-03 1.610154e-03 -5.423101e-04 -1.690013e-03 -2.207702e-03 -2.332867e-03 -2.239902e-03 -2.028380e-03 -1.771803e-03 -1.505228e-03 -1.255649e-03 -1.030638e-03 -8.373049e-04 -6.733078e-04 -5.381193e-04 -4.272735e-04 -3.378082e-04 -2.661212e-04 -2.087515e-04 -1.637322e-04 -1.276565e-04 -1.000750e-04 -7.772357e-05 -6.127053e-05 -4.761544e-05 -3.811076e-05 -2.988198e-05 -2.458600e-05 -1.966118e-05 -1.677249e-05 -1.375544e-05 -1.207597e-05 -1.003026e-05 -8.770805e-06 -7.075430e-06 -5.766687e-06 -4.082093e-06 -2.584851e-06 -9.100149e-07 5.013175e-07 1.750969e-06 2.334187e-06 2.512623e-06 2.179872e-06 2.008348e-06 1.775464e-06 7.277813e-07 2.739188e-07 -9.351316e-07 
-2.960453e-04 -1.978509e-03 -3.787492e-03 -3.475388e-03 1.817178e-03 7.489241e-03 1.777797e-04 -1.883259e-03 -7.941079e-03 -1.751200e-02 -4.853800e-02 -2.694823e-01 -9.207752e-01 -7.731503e-01 -4.466288e-01 -4.462569e-01 -4.462564e-01 -4.462563e-01 -4.462583e-01 -4.471710e-01 -8.745940e-01 -9.245412e-01 -5.649602e-02 7.896288e-02 4.871085e-02 2.574565e-02 1.512920e-02 1.013222e-02 7.126848e-03 5.559370e-03 4.642702e-03 4.344547e-03 4.117558e-03 4.201268e-03 4.116526e-03 4.257101e-03 4.140402e-03 4.223346e-03 4.016092e-03 3.980066e-03 3.640199e-03 3.426515e-03 2.911418e-03 2.483641e-03 1.805984e-03 1.248298e-03 6.204285e-04 3.277811e-04 3.952102e-04 1.366823e-03 3.696446e-03 8.405790e-03 1.538515e-02 1.935643e-02 1.586373e-02 7.803967e-02 4.621871e-01 5.543352e-01 -9.506865e-02 -8.158428e-02 2.099837e-01 -9.584871e-02 6.964784e-02 1.555635e-01 7.523962e-02 2.382146e-01 1.781217e-01 2.688940e-01 -6.635007e-02 -6.139033e-01 -2.228836e-01 2.785187e-01 2.317808e-01 1.113741e-01 7.468865e-02 4.541512e-02 2.786013e-02 1.704939e-02 1.019521e-02 5.955086e-03 3.484978e-03 2.198199e-03 1.639849e-03 1.561203e-03 1.717240e-03 2.043494e-03 2.387514e-03 2.782207e-03 3.104840e-03 3.448310e-03 3.683770e-03 3.951408e-03 4.094142e-03 4.297345e-03 4.362747e-03 4.521118e-03 4.528705e-03 4.658413e-03 4.626417e-03 4.736168e-03 4.681215e-03 4.771916e-03 4.709490e-03 4.774660e-03 4.718760e-03 4.743295e-03 4.702871e-03 4.657740e-03 4.626362e-03 4.455164e-03 4.388638e-03 3.981121e-03 3.760848e-03 2.915779e-03 2.317066e-03 7.405077e-04 -4.964450e-04 -2.984098e-03 -4.633058e-03 -6.896546e-03 -6.092097e-03 -6.109072e-03 -3.675852e-03 4.663713e-03 3.745334e-03 1.391287e-03 1.281084e-03 7.052951e-04 
-3.544266e-03 -9.278843e-03 -1.078739e-02 7.204233e-03 4.044752e-02 -4.726856e-02 -1.515900e-01 -5.123159e-02 -5.093389e-02 -5.933732e-02 -1.267719e-01 -5.630782e-01 -1.857873e+00 -1.555320e+00 -8.936338e-01 -8.928268e-01 -8.930406e-01 -8.928443e-01 -8.930163e-01 -8.946306e-01 -1.718745e+00 -1.823359e+00 -2.261865e-01 4.118294e-02 4.647789e-03 -3.581985e-02 -4.697204e-02 -5.608753e-02 -5.629406e-02 -5.981476e-02 -5.856087e-02 -5.978271e-02 -5.886947e-02 -5.893658e-02 -5.886780e-02 -5.821745e-02 -5.899832e-02 -5.787517e-02 -5.935065e-02 -5.797613e-02 -6.001173e-02 -5.860447e-02 -6.112182e-02 -5.991995e-02 -6.286278e-02 -6.208472e-02 -6.535215e-02 -6.510843e-02 -6.845780e-02 -6.856408e-02 -7.124935e-02 -7.101570e-02 -7.646607e-02 -9.230231e-02 -6.348723e-02 5.057681e-01 2.071673e+00 1.592294e+00 -8.961172e-02 8.657944e-01 3.016773e-01 -8.509332e-02 7.675004e-01 -5.237472e-01 2.062979e-01 2.301011e-01 -6.195736e-01 1.694952e-01 -8.017472e-01 -7.353806e-01 -2.951917e-01 -1.276019e+00 -8.612884e-01 -7.630367e-02 -1.024651e-02 -3.963642e-02 -5.623560e-02 -6.308951e-02 -6.508729e-02 -6.589158e-02 -6.551793e-02 -6.471749e-02 -6.393378e-02 -6.264023e-02 -6.208741e-02 -6.066960e-02 -6.052488e-02 -5.909919e-02 -5.936490e-02 -5.795458e-02 -5.857138e-02 -5.717927e-02 -5.804358e-02 -5.670289e-02 -5.767752e-02 -5.646942e-02 -5.737534e-02 -5.643769e-02 -5.707394e-02 -5.658709e-02 -5.671175e-02 -5.691457e-02 -5.625825e-02 -5.741000e-02 -5.571369e-02 -5.805324e-02 -5.512091e-02 -5.883580e-02 -5.458004e-02 -5.980173e-02 -5.430669e-02 -6.114583e-02 -5.478956e-02 -6.341571e-02 -5.703511e-02 -6.790639e-02 -6.292746e-02 -7.702574e-02 -7.441785e-02 -9.076788e-02 -8.355406e-02 -1.353045e-01 -1.691953e-01 2.935047e-03 4.797351e-02 1.831915e-02 4.761710e-03 6.540732e-05 
-9.872154e-03 -9.647346e-03 2.051486e-02 8.843996e-02 -1.555554e-01 -1.911834e+00 -2.238869e+00 -8.846219e-01 -1.102462e+00 -9.279672e-01 -1.091978e+00 -1.261287e+00 -1.982855e+00 -1.642836e+00 -1.347218e+00 -1.346914e+00 -1.352181e+00 -1.347367e+00 -1.351485e+00 -1.349911e+00 -1.733312e+00 -1.803886e+00 -1.112486e+00 -1.024925e+00 -9.794852e-01 -1.076334e+00 -1.029623e+00 -1.095160e+00 -1.049175e+00 -1.097203e+00 -1.061356e+00 -1.093962e+00 -1.070417e+00 -1.089398e+00 -1.078072e+00 -1.085046e+00 -1.084823e+00 -1.081956e+00 -1.090818e+00 -1.080502e+00 -1.096775e+00 -1.080989e+00 -1.103223e+00 -1.084275e+00 -1.111009e+00 -1.091579e+00 -1.121391e+00 -1.104485e+00 -1.136371e+00 -1.125090e+00 -1.158971e+00 -1.156614e+00 -1.203362e+00 -1.260792e+00 -1.390889e+00 -8.230967e-01 1.349652e+00 5.369318e-01 -1.512289e+00 4.426049e-01 -1.035083e+00 -1.272255e+00 3.372089e-01 -2.154510e+00 -1.923014e-01 -6.309218e-01 -2.233623e+00 -1.884301e-01 -2.937425e+00 -2.808077e+00 -1.340956e+00 -3.541918e+00 -2.688586e+00 -9.787220e-01 -9.690129e-01 -1.050110e+00 -1.068115e+00 -1.076475e+00 -1.074682e+00 -1.076577e+00 -1.076376e+00 -1.074549e+00 -1.077202e+00 -1.072137e+00 -1.077923e+00 -1.070017e+00 -1.078565e+00 -1.068652e+00 -1.078969e+00 -1.068054e+00 -1.079050e+00 -1.068273e+00 -1.078448e+00 -1.069366e+00 -1.076912e+00 -1.071513e+00 -1.074158e+00 -1.074807e+00 -1.070351e+00 -1.079312e+00 -1.065366e+00 -1.085144e+00 -1.059194e+00 -1.092017e+00 -1.052140e+00 -1.099340e+00 -1.044931e+00 -1.106360e+00 -1.038520e+00 -1.112403e+00 -1.033918e+00 -1.116901e+00 -1.032505e+00 -1.119557e+00 -1.036153e+00 -1.121951e+00 -1.048348e+00 -1.130805e+00 -1.075348e+00 -1.164750e+00 -1.106439e+00 -1.597230e+00 -2.400135e+00 -7.962073e-01 1.181437e-01 1.156626e-01 2.070003e-02 -4.864264e-03 
-1.513004e-02 9.089934e-03 5.555896e-02 -3.136002e-01 -2.948371e+00 -5.425831e+00 -3.766718e+00 -2.683592e+00 -2.606967e+00 -2.453894e+00 -2.434869e+00 -2.266820e+00 -2.572548e+00 -2.414499e+00 -2.392208e+00 -2.412301e+00 -2.426740e+00 -2.449232e+00 -2.394711e+00 -2.434669e+00 -2.444637e+00 -2.454978e+00 -2.321249e+00 -2.489757e+00 -2.446816e+00 -2.607576e+00 -2.562421e+00 -2.658363e+00 -2.630232e+00 -2.673201e+00 -2.674087e+00 -2.674096e+00 -2.704110e+00 -2.672367e+00 -2.726558e+00 -2.673404e+00 -2.743453e+00 -2.678453e+00 -2.755884e+00 -2.688424e+00 -2.766409e+00 -2.703023e+00 -2.776798e+00 -2.724306e+00 -2.792233e+00 -2.756881e+00 -2.818557e+00 -2.805596e+00 -2.862641e+00 -2.876191e+00 -2.932484e+00 -2.976263e+00 -3.041946e+00 -3.123696e+00 -3.256871e+00 -3.583274e+00 -4.113572e+00 -4.065614e+00 -3.381631e+00 -3.753627e+00 -3.414396e+00 -3.148977e+00 -3.529475e+00 -2.783746e+00 -3.042604e+00 -2.989528e+00 -2.361332e+00 -2.755588e+00 -2.114794e+00 -2.129208e+00 -2.301189e+00 -1.797753e+00 -2.089675e+00 -2.366148e+00 -2.529196e+00 -2.547179e+00 -2.627715e+00 -2.604926e+00 -2.676170e+00 -2.638678e+00 -2.705497e+00 -2.661958e+00 -2.721741e+00 -2.678700e+00 -2.727064e+00 -2.692464e+00 -2.725699e+00 -2.707441e+00 -2.720266e+00 -2.724374e+00 -2.712600e+00 -2.742958e+00 -2.702863e+00 -2.760339e+00 -2.691054e+00 -2.775127e+00 -2.679300e+00 -2.786667e+00 -2.670613e+00 -2.795183e+00 -2.667809e+00 -2.799938e+00 -2.670277e+00 -2.798194e+00 -2.677543e+00 -2.789341e+00 -2.689600e+00 -2.773479e+00 -2.706836e+00 -2.753987e+00 -2.729783e+00 -2.733278e+00 -2.755372e+00 -2.712699e+00 -2.780945e+00 -2.696068e+00 -2.805288e+00 -2.690193e+00 -2.833174e+00 -2.713242e+00 -2.868514e+00 -3.247299e+00 -5.564327e+00 -4.736733e+00 -8.902200e-01 3.382706e-01 1.046045e-01 5.137138e-05 
-9.755319e-03 3.417293e-02 9.693137e-02 -4.946649e-01 -4.227001e+00 -3.858931e+00 -1.877624e-01 -1.771725e+00 -1.084771e+00 -1.408449e+00 -1.041481e+00 -8.291119e-01 -7.438353e-02 -8.626170e-02 -4.965720e-01 -2.018831e-01 -3.171424e-01 -1.613695e-01 -3.511713e-01 -3.661102e-01 -9.856427e-02 -3.218213e-01 -8.611258e-01 -1.129421e+00 -1.246749e+00 -1.278844e+00 -1.356751e+00 -1.330215e+00 -1.419423e+00 -1.349992e+00 -1.455724e+00 -1.358495e+00 -1.476838e+00 -1.366471e+00 -1.489873e+00 -1.379094e+00 -1.497004e+00 -1.395445e+00 -1.499559e+00 -1.415792e+00 -1.499650e+00 -1.438769e+00 -1.498812e+00 -1.465351e+00 -1.503152e+00 -1.499615e+00 -1.518623e+00 -1.544930e+00 -1.550571e+00 -1.604368e+00 -1.602258e+00 -1.680701e+00 -1.680740e+00 -1.774693e+00 -1.751234e+00 -1.884877e+00 -2.255894e+00 -2.278087e+00 -1.760888e+00 -2.343124e+00 -1.867976e+00 -1.750702e+00 -2.158917e+00 -1.425961e+00 -1.920578e+00 -1.680609e+00 -1.126931e+00 -1.735239e+00 -7.276614e-01 -7.379017e-01 -1.125854e+00 -5.512543e-01 -9.066361e-01 -1.232492e+00 -1.332147e+00 -1.280338e+00 -1.398354e+00 -1.339682e+00 -1.454028e+00 -1.382133e+00 -1.486120e+00 -1.414225e+00 -1.501120e+00 -1.439108e+00 -1.501133e+00 -1.460875e+00 -1.492561e+00 -1.484535e+00 -1.479501e+00 -1.510796e+00 -1.464647e+00 -1.538621e+00 -1.448903e+00 -1.563024e+00 -1.432743e+00 -1.581027e+00 -1.420180e+00 -1.591105e+00 -1.415509e+00 -1.593247e+00 -1.423544e+00 -1.585827e+00 -1.443441e+00 -1.565184e+00 -1.473720e+00 -1.531848e+00 -1.512464e+00 -1.487976e+00 -1.557774e+00 -1.440815e+00 -1.607945e+00 -1.396159e+00 -1.655130e+00 -1.358360e+00 -1.692390e+00 -1.333124e+00 -1.715302e+00 -1.323284e+00 -1.730655e+00 -1.315968e+00 -1.784211e+00 -9.942759e-01 -2.399979e+00 -5.339095e+00 -1.689853e+00 2.404839e-01 1.122699e-01 -1.570498e-03 
-1.719295e-03 1.504499e-02 3.240308e-02 -2.482689e-01 -1.619356e+00 5.289579e-01 2.663147e+00 4.898209e-01 1.010945e+00 6.088978e-01 8.437373e-01 3.571099e-01 -2.460168e-01 4.595504e-01 1.259819e+00 1.173468e+00 1.028752e+00 1.180244e+00 1.044482e+00 1.299476e+00 3.142443e-01 8.914467e-02 4.761324e-01 7.977041e-01 7.085867e-01 7.955514e-01 6.865277e-01 7.838755e-01 6.825979e-01 7.783469e-01 6.847838e-01 7.721572e-01 6.898074e-01 7.641939e-01 6.960649e-01 7.540315e-01 7.031564e-01 7.434786e-01 7.107516e-01 7.331053e-01 7.189296e-01 7.239438e-01 7.276752e-01 7.167417e-01 7.356328e-01 7.114992e-01 7.421235e-01 7.090277e-01 7.477686e-01 7.109499e-01 7.556750e-01 7.203793e-01 7.645573e-01 7.024786e-01 6.715017e-01 8.733894e-01 2.102134e+00 1.682588e+00 5.348253e-01 1.645410e+00 8.621039e-01 5.914928e-01 1.631258e+00 1.730972e-01 1.324560e+00 1.093079e+00 1.225412e-01 1.445603e+00 -2.903614e-01 -2.238528e-01 7.239480e-01 -6.314313e-01 -9.905096e-02 8.755766e-01 7.903674e-01 7.580015e-01 6.962883e-01 7.286388e-01 6.825833e-01 7.184543e-01 6.780474e-01 7.102303e-01 6.788280e-01 7.031756e-01 6.841230e-01 6.960455e-01 6.915558e-01 6.876242e-01 6.996567e-01 6.779115e-01 7.075760e-01 6.676568e-01 7.147225e-01 6.591136e-01 7.207027e-01 6.539174e-01 7.236394e-01 6.530240e-01 7.220160e-01 6.567546e-01 7.137191e-01 6.660879e-01 6.989076e-01 6.822357e-01 6.783890e-01 7.043942e-01 6.537023e-01 7.308435e-01 6.267027e-01 7.578892e-01 5.992272e-01 7.822366e-01 5.756192e-01 8.007540e-01 5.593680e-01 8.101156e-01 5.511926e-01 8.083517e-01 5.395488e-01 8.024252e-01 4.450994e-01 1.336877e+00 1.769645e+00 -1.079211e+00 -4.786575e-01 1.199303e-01 5.369358e-02 3.326564e-03 
1.758569e-03 4.475702e-03 7.180611e-03 -2.982902e-02 -1.176629e-01 6.740537e-01 1.148178e+00 4.798867e-01 5.677008e-01 4.628457e-01 5.282200e-01 2.760062e-01 -6.238936e-01 -2.235977e+00 -3.004032e+00 -2.744175e+00 -2.761609e+00 -2.855791e+00 -2.678377e+00 -2.957180e+00 -2.417587e+00 -4.288406e-01 3.087350e-01 5.013629e-01 4.597127e-01 4.950914e-01 4.612837e-01 4.987775e-01 4.703306e-01 5.002092e-01 4.773074e-01 4.993228e-01 4.829745e-01 4.974064e-01 4.877619e-01 4.950959e-01 4.918694e-01 4.930614e-01 4.953939e-01 4.916274e-01 4.986869e-01 4.910548e-01 5.019889e-01 4.917905e-01 5.056310e-01 4.944121e-01 5.102075e-01 4.997196e-01 5.166821e-01 5.085909e-01 5.263160e-01 5.220081e-01 5.388614e-01 5.222777e-01 4.867209e-01 5.386417e-01 1.035430e+00 8.765882e-01 3.865227e-01 9.467403e-01 5.801489e-01 4.592634e-01 9.380327e-01 2.578199e-01 8.019213e-01 6.781931e-01 2.173623e-01 8.604469e-01 3.841379e-02 8.450618e-02 5.417058e-01 -6.659796e-02 1.848683e-01 5.789340e-01 5.246542e-01 4.949475e-01 4.834125e-01 4.865519e-01 4.817327e-01 4.849883e-01 4.818392e-01 4.843217e-01 4.830469e-01 4.841476e-01 4.847908e-01 4.840591e-01 4.866324e-01 4.839358e-01 4.883116e-01 4.836873e-01 4.897224e-01 4.833889e-01 4.906932e-01 4.832472e-01 4.911070e-01 4.835319e-01 4.907523e-01 4.844567e-01 4.895922e-01 4.861959e-01 4.874231e-01 4.889564e-01 4.841764e-01 4.927513e-01 4.799493e-01 4.973414e-01 4.750628e-01 5.023178e-01 4.699584e-01 5.071361e-01 4.650889e-01 5.111521e-01 4.610335e-01 5.134997e-01 4.580682e-01 5.132995e-01 4.556191e-01 5.098690e-01 4.494461e-01 5.025894e-01 4.107200e-01 6.905929e-01 1.047051e+00 2.555227e-01 3.812886e-02 2.533965e-02 9.311444e-03 2.783779e-03 
