# vtk DataFile Version 2.0
Comment goes here
ASCII

DATASET STRUCTURED_POINTS
FIELD FieldData 1
TIME 1 1 double
0.02000000
DIMENSIONS    128   16   1

ORIGIN    0.000   0.000   0.000
SPACING   0.0078125 0.015625   1.000

POINT_DATA   2048
SCALARS P double
LOOKUP_TABLE default

-4.077377e-01 -4.044555e-01 -4.028427e-01 -4.000891e-01 -3.962467e-01 -3.959320e-01 -3.913985e-01 -3.994099e-01 -3.919514e-01 -4.059447e-01 -3.890418e-01 -4.017087e-01 -3.808222e-01 -3.844407e-01 -3.619942e-01 -3.560514e-01 -3.352592e-01 -3.240590e-01 -3.048447e-01 -2.951976e-01 -2.717989e-01 -2.621047e-01 -2.392209e-01 -2.215089e-01 -1.980250e-01 -1.855590e-01 -1.588240e-01 -1.410605e-01 -1.340773e-01 -1.414947e-01 -1.314924e-01 -1.375968e-01 -1.313723e-01 -1.267271e-01 -1.303530e-01 -1.203290e-01 -1.169292e-01 -1.078047e-01 -1.030091e-01 -9.920060e-02 -9.972365e-02 -8.571638e-02 -8.248097e-02 -5.360373e-02 -4.668625e-02 -1.598721e-02 -9.361709e-03 1.513010e-02 2.106842e-02 3.879372e-02 4.476186e-02 5.183341e-02 4.785488e-02 5.232208e-02 3.799199e-02 2.996625e-02 1.613119e-02 -2.257235e-02 -3.949532e-02 -4.876667e-02 -1.037359e-01 -9.968323e-02 -1.230235e-01 -1.596083e-01 -1.521772e-01 -1.964633e-01 -2.071860e-01 -2.157143e-01 -2.466386e-01 -2.247385e-01 -2.540820e-01 -2.177867e-01 -2.141373e-01 -2.000008e-01 -1.781216e-01 -1.911637e-01 -1.829840e-01 -1.770520e-01 -2.025052e-01 -1.793219e-01 -1.895659e-01 -1.909395e-01 -1.937596e-01 -1.877612e-01 -2.050135e-01 -2.211037e-01 -2.394026e-01 -2.604181e-01 -2.856673e-01 -3.081914e-01 -3.287246e-01 -3.409526e-01 -3.642269e-01 -3.747078e-01 -3.891986e-01 -3.814656e-01 -3.706379e-01 -3.480095e-01 -3.268825e-01 -2.978422e-01 -2.754951e-01 -2.464571e-01 -2.304219e-01 -2.160185e-01 -2.159362e-01 -2.188651e-01 -2.410086e-01 -2.624746e-01 -2.858221e-01 -3.135167e-01 -3.209329e-01 -3.360725e-01 -3.508085e-01 -3.636817e-01 -3.592223e-01 -3.416559e-01 -3.419531e-01 -3.232028e-01 -3.377690e-01 -3.275040e-01 -3.597233e-01 -3.646746e-01 -3.930884e-01 -3.939396e-01 -4.065865e-01 -4.044057e-01 -4.096487e-01 -4.065227e-01 
-3.598404e-01 -3.539620e-01 -3.511172e-01 -3.460665e-01 -3.421826e-01 -3.391268e-01 -3.361054e-01 -3.491157e-01 -3.455923e-01 -3.658809e-01 -3.447173e-01 -3.574728e-01 -3.324031e-01 -3.381986e-01 -3.215412e-01 -3.189355e-01 -3.052640e-01 -3.014984e-01 -2.936345e-01 -2.899666e-01 -2.849617e-01 -2.930580e-01 -2.766574e-01 -2.477505e-01 -2.405810e-01 -2.586708e-01 -2.021136e-01 -1.461586e-01 -1.750064e-01 -2.158010e-01 -1.871751e-01 -1.950600e-01 -1.753874e-01 -1.653754e-01 -1.962723e-01 -1.808282e-01 -1.687375e-01 -1.570530e-01 -1.342118e-01 -1.481647e-01 -1.550750e-01 -1.543399e-01 -1.567234e-01 -1.095945e-01 -8.851346e-02 -3.264265e-02 -1.683971e-02 1.145527e-02 1.734417e-02 3.283947e-02 4.833507e-02 5.598220e-02 5.900008e-02 7.391486e-02 6.052034e-02 4.621972e-02 3.511693e-02 -4.082095e-02 -5.978431e-02 -6.463380e-02 -1.550806e-01 -1.347290e-01 -1.545984e-01 -2.091869e-01 -1.805884e-01 -2.554828e-01 -2.643904e-01 -2.833526e-01 -3.227065e-01 -2.805017e-01 -3.183854e-01 -2.427311e-01 -2.265765e-01 -1.940056e-01 -1.388765e-01 -1.725128e-01 -1.507852e-01 -1.498171e-01 -2.061746e-01 -1.630822e-01 -1.783947e-01 -1.920976e-01 -1.851177e-01 -1.686631e-01 -1.943420e-01 -2.216197e-01 -2.369214e-01 -2.609104e-01 -2.774850e-01 -2.919018e-01 -2.876128e-01 -2.792132e-01 -3.034556e-01 -3.208110e-01 -3.570460e-01 -3.595939e-01 -3.481494e-01 -3.308154e-01 -3.048437e-01 -2.754523e-01 -2.618536e-01 -2.292512e-01 -2.116428e-01 -1.912581e-01 -1.591259e-01 -1.373458e-01 -1.641904e-01 -1.820965e-01 -2.173639e-01 -2.618672e-01 -2.418923e-01 -2.452637e-01 -3.073851e-01 -3.597247e-01 -3.323127e-01 -2.827240e-01 -2.798614e-01 -2.565931e-01 -2.629773e-01 -2.460557e-01 -2.940761e-01 -3.155571e-01 -3.544152e-01 -3.567818e-01 -3.685235e-01 -3.641054e-01 -3.667975e-01 -3.608018e-01 
-4.238653e-01 -4.174599e-01 -4.119418e-01 -4.048508e-01 -3.959484e-01 -3.847725e-01 -3.849944e-01 -4.089552e-01 -4.230288e-01 -4.572334e-01 -4.223231e-01 -4.425293e-01 -4.029102e-01 -3.971612e-01 -3.606764e-01 -3.400893e-01 -3.125171e-01 -2.875055e-01 -2.688352e-01 -2.604747e-01 -2.256642e-01 -2.626879e-01 -2.559649e-01 -2.022718e-01 -2.166998e-01 -2.703485e-01 -1.485061e-01 -1.097797e-03 -9.807159e-02 -2.123054e-01 -1.729459e-01 -2.051777e-01 -1.736741e-01 -1.408393e-01 -2.112069e-01 -1.674937e-01 -1.389736e-01 -1.247570e-01 -9.109665e-02 -1.558900e-01 -1.914377e-01 -2.061516e-01 -2.084726e-01 -1.159532e-01 -8.397598e-02 1.063098e-03 1.760226e-02 5.092913e-02 4.828834e-02 7.581975e-02 1.252977e-01 1.013203e-01 9.335682e-02 1.435796e-01 9.423140e-02 1.231783e-01 1.576594e-01 -5.947171e-02 1.065241e-02 6.029886e-02 -2.213833e-01 -7.914287e-02 -8.194752e-02 -2.121164e-01 -7.258371e-02 -2.690389e-01 -2.666676e-01 -3.075565e-01 -4.110800e-01 -3.211366e-01 -4.957329e-01 -2.837881e-01 -1.861264e-01 -1.370357e-01 7.722229e-03 -1.776972e-01 -8.976611e-02 -9.170372e-02 -3.236291e-01 -1.349589e-01 -1.393036e-01 -2.937201e-01 -2.232980e-01 -1.162285e-01 -2.058077e-01 -2.944553e-01 -2.742104e-01 -2.872077e-01 -3.229591e-01 -3.505469e-01 -2.903860e-01 -2.308063e-01 -2.777431e-01 -3.413575e-01 -4.275683e-01 -4.263351e-01 -3.888520e-01 -3.831534e-01 -3.717204e-01 -3.615509e-01 -3.570837e-01 -2.890794e-01 -2.403760e-01 -2.046079e-01 -1.342203e-01 -9.943490e-02 -1.602588e-01 -1.800710e-01 -2.319195e-01 -3.081062e-01 -2.344796e-01 -2.302998e-01 -4.011431e-01 -5.519404e-01 -4.734808e-01 -3.419400e-01 -2.981043e-01 -2.373137e-01 -2.165309e-01 -1.921175e-01 -3.044193e-01 -3.991022e-01 -4.750062e-01 -4.673953e-01 -4.554264e-01 -4.435027e-01 -4.367259e-01 -4.287316e-01 
-3.798667e-01 -3.690298e-01 -3.610776e-01 -3.505066e-01 -3.388063e-01 -3.237200e-01 -3.462638e-01 -3.723048e-01 -4.366244e-01 -4.759445e-01 -4.524801e-01 -5.033885e-01 -4.454478e-01 -4.198974e-01 -2.910553e-01 -2.409431e-01 -1.665263e-01 -7.556654e-02 -5.965121e-02 -6.632582e-02 8.957921e-03 -4.992317e-02 -9.221648e-02 -1.020911e-01 -7.076264e-02 -8.762527e-03 1.013194e-01 2.294072e-01 2.219507e-01 1.386948e-01 6.675829e-02 -3.626666e-02 -6.308076e-02 -6.261788e-03 4.862569e-02 1.337708e-01 1.629038e-01 1.318028e-01 5.287482e-02 -6.319766e-02 -1.255510e-01 -9.881220e-02 -2.099046e-02 7.980386e-02 9.685063e-02 1.077032e-01 1.239062e-01 1.838285e-01 2.293836e-01 3.429735e-01 4.709724e-01 3.798486e-01 2.950824e-01 3.816117e-01 2.286726e-01 3.733915e-01 5.340674e-01 1.085008e-01 3.504263e-01 4.449758e-01 -3.138685e-01 -4.891255e-02 -1.689121e-01 -5.511524e-01 -2.104171e-01 -6.856164e-01 -5.516253e-01 -5.651199e-01 -7.023930e-01 -3.686920e-01 -8.901091e-01 -4.330179e-01 -1.050603e-01 -2.301297e-02 3.473649e-01 -9.945612e-02 1.998208e-01 2.561103e-01 -2.491022e-01 2.350242e-01 2.470069e-01 -2.363370e-01 -8.633851e-02 1.434309e-01 -8.144500e-02 -2.635830e-01 -1.571370e-01 -9.313472e-02 -1.975437e-01 -2.643407e-01 -1.734570e-01 -7.603669e-02 -1.369678e-01 -2.540536e-01 -3.088703e-01 -2.340748e-01 -1.608111e-01 -1.944470e-01 -3.075807e-01 -3.821514e-01 -3.429320e-01 -1.683534e-01 9.925947e-03 1.106541e-01 1.165196e-01 6.181970e-02 -1.203883e-02 -1.762653e-02 -1.779445e-02 -5.143840e-02 -9.182478e-02 -2.043891e-01 -4.084057e-01 -5.678359e-01 -5.323601e-01 -3.670880e-01 -1.762033e-01 1.807447e-02 8.931768e-02 7.862720e-02 -1.343511e-01 -3.634963e-01 -5.226687e-01 -5.026790e-01 -4.551841e-01 -4.275278e-01 -4.061053e-01 -3.904962e-01 
-4.363629e-01 -4.360351e-01 -4.378398e-01 -4.405048e-01 -4.435041e-01 -4.505469e-01 -4.861536e-01 -5.005445e-01 -5.667659e-01 -5.867181e-01 -6.055928e-01 -6.548787e-01 -6.348904e-01 -6.118757e-01 -3.564181e-01 -2.250135e-01 -9.013367e-02 8.236469e-02 1.937777e-01 2.085828e-01 6.097216e-01 6.211246e-01 5.180412e-01 4.597771e-01 5.004814e-01 6.846403e-01 6.432826e-01 6.205747e-01 7.363244e-01 8.018752e-01 6.392404e-01 5.579862e-01 4.651208e-01 4.967416e-01 6.545778e-01 7.080061e-01 6.918626e-01 6.348852e-01 4.709126e-01 4.174480e-01 3.764847e-01 4.405315e-01 5.387879e-01 5.536338e-01 5.341795e-01 4.504712e-01 4.533845e-01 5.046424e-01 5.717115e-01 6.917640e-01 7.771906e-01 7.018925e-01 5.814274e-01 6.082096e-01 4.473937e-01 5.443412e-01 6.463665e-01 3.395829e-01 4.748677e-01 4.946086e-01 -1.605873e-01 -3.308039e-02 -2.282061e-01 -5.582652e-01 -2.970004e-01 -6.292688e-01 -4.382172e-01 -3.627272e-01 -3.671776e-01 -2.803817e-02 -4.202687e-01 -1.141063e-01 1.233963e-01 1.700877e-01 4.624946e-01 1.557961e-01 4.228285e-01 5.016679e-01 1.766323e-01 5.268450e-01 5.178914e-01 1.261345e-01 1.899641e-01 3.061795e-01 1.243911e-01 5.113055e-03 8.063809e-02 1.601841e-01 5.657313e-02 -1.100296e-03 6.081949e-03 3.251390e-02 4.661818e-03 -5.814284e-02 -1.774268e-02 7.307729e-02 1.053623e-01 6.015005e-02 -9.683897e-02 -1.909456e-01 -1.372285e-01 7.550509e-03 1.759840e-01 2.675028e-01 1.757836e-01 5.558803e-02 3.095291e-02 3.350407e-02 7.764413e-02 1.149753e-01 -7.404624e-02 -2.510570e-01 -2.971150e-01 -3.006405e-01 -3.792014e-01 -3.498757e-01 -1.735767e-01 -2.572909e-03 4.233988e-02 -1.146309e-02 -1.579816e-01 -3.338571e-01 -4.673889e-01 -4.726489e-01 -4.556347e-01 -4.466845e-01 -4.406912e-01 -4.370580e-01 
-3.715038e-01 -3.740814e-01 -3.873947e-01 -3.914695e-01 -4.098030e-01 -4.187693e-01 -4.501194e-01 -4.500942e-01 -4.884130e-01 -4.859306e-01 -5.257756e-01 -5.301410e-01 -5.623019e-01 -5.344965e-01 -2.701568e-01 -2.290135e-01 9.622554e-03 6.385033e-02 2.896325e-01 3.119387e-01 5.617322e-01 5.917644e-01 5.475503e-01 5.218188e-01 5.413566e-01 6.445929e-01 5.878683e-01 5.411582e-01 6.148038e-01 6.868517e-01 6.056136e-01 5.914178e-01 5.382686e-01 5.405862e-01 6.168796e-01 6.232136e-01 5.985623e-01 5.725437e-01 4.891462e-01 4.935053e-01 4.836537e-01 5.162359e-01 5.515461e-01 5.325998e-01 5.207799e-01 4.740882e-01 4.776514e-01 4.996953e-01 5.335900e-01 5.783291e-01 5.889300e-01 5.792386e-01 5.252827e-01 5.124815e-01 4.546138e-01 4.541664e-01 4.550634e-01 3.973886e-01 3.962524e-01 4.037444e-01 2.780202e-01 2.687790e-01 2.231930e-01 1.581742e-01 1.873468e-01 1.821457e-01 2.193429e-01 2.788633e-01 3.181282e-01 3.834537e-01 3.384370e-01 3.539558e-01 3.237983e-01 3.042540e-01 3.575060e-01 3.019604e-01 3.650721e-01 3.893750e-01 3.466093e-01 3.964066e-01 3.652452e-01 2.825036e-01 2.527094e-01 2.297578e-01 1.775465e-01 1.566880e-01 1.489993e-01 1.666714e-01 1.257942e-01 1.082699e-01 7.039880e-02 4.896040e-02 4.475885e-02 4.493770e-02 8.289665e-02 1.133491e-01 1.033792e-01 8.913409e-02 2.932625e-02 3.930129e-03 2.810717e-02 7.068674e-02 1.206074e-01 1.531243e-01 9.463579e-02 4.015170e-02 3.931839e-02 3.523929e-02 4.351470e-02 6.447212e-02 -6.213730e-02 -1.480117e-01 -1.301924e-01 -8.669113e-02 -1.578754e-01 -1.909939e-01 -1.508237e-01 -1.046960e-01 -1.116250e-01 -1.456293e-01 -1.875113e-01 -2.317394e-01 -2.866990e-01 -3.085410e-01 -3.332147e-01 -3.412740e-01 -3.559310e-01 -3.594442e-01 
-4.273066e-01 -4.346285e-01 -4.496205e-01 -4.574348e-01 -4.751638e-01 -4.846257e-01 -5.081621e-01 -5.191163e-01 -5.452961e-01 -5.581341e-01 -5.781275e-01 -5.928646e-01 -6.057094e-01 -6.134933e-01 -3.108932e-01 -2.856173e-01 -9.057308e-03 2.782018e-02 3.064487e-01 3.257752e-01 6.408105e-01 6.486225e-01 6.204163e-01 6.275410e-01 6.148773e-01 6.476431e-01 6.309995e-01 6.439716e-01 6.402675e-01 6.579160e-01 6.251668e-01 6.259187e-01 6.008873e-01 6.071235e-01 6.092861e-01 6.150725e-01 5.980775e-01 5.915625e-01 5.571601e-01 5.521044e-01 5.343494e-01 5.399475e-01 5.415917e-01 5.411114e-01 5.375256e-01 5.304232e-01 5.304467e-01 5.399515e-01 5.461343e-01 5.625820e-01 5.611400e-01 5.600376e-01 5.317747e-01 5.327372e-01 5.002708e-01 5.003113e-01 4.940553e-01 4.713934e-01 4.685367e-01 4.912873e-01 4.572722e-01 4.361152e-01 4.288681e-01 3.834563e-01 3.511730e-01 3.312311e-01 3.031424e-01 3.126353e-01 3.000916e-01 3.205036e-01 2.966587e-01 3.174041e-01 2.993368e-01 2.960425e-01 3.283375e-01 2.969755e-01 3.239061e-01 3.279207e-01 2.957146e-01 3.166293e-01 2.924529e-01 2.537453e-01 2.327187e-01 2.182105e-01 1.806164e-01 1.592655e-01 1.380150e-01 1.316669e-01 1.019531e-01 8.882086e-02 6.860277e-02 6.073224e-02 4.728844e-02 4.021404e-02 3.753499e-02 4.345956e-02 3.702741e-02 3.338513e-02 1.444202e-02 1.079993e-02 1.498197e-02 3.409044e-02 4.756084e-02 5.925672e-02 4.311753e-02 2.749796e-02 8.362780e-03 -3.858559e-03 -2.728989e-02 -4.054447e-02 -9.076997e-02 -1.238959e-01 -1.567366e-01 -1.674743e-01 -1.946239e-01 -1.968374e-01 -1.954195e-01 -1.852000e-01 -1.985988e-01 -2.164655e-01 -2.552013e-01 -2.894514e-01 -3.308618e-01 -3.515294e-01 -3.755705e-01 -3.875129e-01 -4.043869e-01 -4.127428e-01 
-3.624619e-01 -3.687858e-01 -3.885836e-01 -3.941278e-01 -4.160370e-01 -4.210462e-01 -4.460802e-01 -4.494419e-01 -4.763149e-01 -4.787810e-01 -5.053337e-01 -5.079745e-01 -5.319281e-01 -5.335919e-01 -2.540375e-01 -2.455387e-01 2.720828e-02 3.938850e-02 3.140082e-01 3.208051e-01 6.084704e-01 6.071021e-01 5.884052e-01 5.917778e-01 5.791265e-01 5.950224e-01 5.802758e-01 5.888436e-01 5.817551e-01 5.963968e-01 5.778718e-01 5.852152e-01 5.693470e-01 5.741964e-01 5.691456e-01 5.714454e-01 5.579937e-01 5.563476e-01 5.366391e-01 5.366048e-01 5.244922e-01 5.252174e-01 5.199207e-01 5.145537e-01 5.076539e-01 4.998360e-01 4.942030e-01 4.935206e-01 4.888959e-01 4.910322e-01 4.801613e-01 4.761860e-01 4.546245e-01 4.456711e-01 4.195863e-01 4.041658e-01 3.778206e-01 3.468435e-01 3.164128e-01 3.122441e-01 2.666380e-01 2.623579e-01 2.392650e-01 2.189822e-01 2.228835e-01 2.072576e-01 2.200270e-01 2.389681e-01 2.413540e-01 2.744846e-01 2.680636e-01 2.896627e-01 2.980544e-01 3.033268e-01 3.134396e-01 3.091883e-01 3.148181e-01 3.141119e-01 3.042815e-01 3.019201e-01 2.849767e-01 2.687866e-01 2.473140e-01 2.321107e-01 2.071087e-01 1.939204e-01 1.712240e-01 1.620663e-01 1.381961e-01 1.277616e-01 1.071933e-01 9.837237e-02 8.600715e-02 8.285192e-02 7.794826e-02 8.032146e-02 7.332744e-02 7.429271e-02 6.478423e-02 6.633387e-02 6.408756e-02 7.068853e-02 6.834284e-02 7.063836e-02 5.550393e-02 4.645089e-02 2.878362e-02 1.979065e-02 -3.437959e-03 -1.266578e-02 -4.813393e-02 -6.435284e-02 -9.047623e-02 -9.754826e-02 -1.247236e-01 -1.345874e-01 -1.520633e-01 -1.585469e-01 -1.790464e-01 -1.935562e-01 -2.195302e-01 -2.370059e-01 -2.648479e-01 -2.794942e-01 -3.035585e-01 -3.143472e-01 -3.351474e-01 -3.431136e-01 
-4.209563e-01 -4.298288e-01 -4.488509e-01 -4.572448e-01 -4.775622e-01 -4.859556e-01 -5.079407e-01 -5.165165e-01 -5.386013e-01 -5.480584e-01 -5.679263e-01 -5.790899e-01 -5.955539e-01 -6.087344e-01 -2.956806e-01 -2.918589e-01 1.048587e-02 2.088683e-02 3.281730e-01 3.327236e-01 6.607246e-01 6.528451e-01 6.370059e-01 6.382350e-01 6.251313e-01 6.339027e-01 6.211646e-01 6.309483e-01 6.182775e-01 6.277439e-01 6.122816e-01 6.193386e-01 6.045829e-01 6.103052e-01 5.979945e-01 6.014469e-01 5.873697e-01 5.878642e-01 5.721834e-01 5.713994e-01 5.576437e-01 5.564926e-01 5.452152e-01 5.427146e-01 5.317678e-01 5.287473e-01 5.183251e-01 5.173901e-01 5.070125e-01 5.070787e-01 4.944055e-01 4.924610e-01 4.755546e-01 4.706977e-01 4.506184e-01 4.366723e-01 4.117694e-01 3.723554e-01 3.468017e-01 3.443602e-01 2.988840e-01 3.240652e-01 3.251520e-01 3.263089e-01 3.486410e-01 3.531413e-01 3.523819e-01 3.526637e-01 3.426078e-01 3.534831e-01 3.454149e-01 3.480531e-01 3.333552e-01 3.290255e-01 3.223827e-01 3.138670e-01 3.072075e-01 3.016044e-01 2.877468e-01 2.826119e-01 2.657200e-01 2.540174e-01 2.341573e-01 2.210375e-01 1.971922e-01 1.821089e-01 1.571775e-01 1.421859e-01 1.165314e-01 1.017073e-01 7.889001e-02 6.711892e-02 4.978710e-02 4.339938e-02 3.317677e-02 3.380210e-02 2.899242e-02 3.388776e-02 3.170241e-02 3.867327e-02 3.809257e-02 4.479896e-02 4.077029e-02 4.106240e-02 2.743853e-02 1.845077e-02 -3.399684e-03 -1.700708e-02 -4.436483e-02 -5.943915e-02 -9.011524e-02 -1.054335e-01 -1.335433e-01 -1.456856e-01 -1.705863e-01 -1.809456e-01 -2.026435e-01 -2.131942e-01 -2.367799e-01 -2.513198e-01 -2.781497e-01 -2.948860e-01 -3.215116e-01 -3.364177e-01 -3.595473e-01 -3.717313e-01 -3.919805e-01 -4.020710e-01 
-3.582163e-01 -3.648476e-01 -3.845424e-01 -3.906128e-01 -4.121075e-01 -4.176203e-01 -4.413875e-01 -4.450835e-01 -4.691564e-01 -4.723302e-01 -4.948198e-01 -5.004436e-01 -5.200574e-01 -5.284704e-01 -2.513400e-01 -2.495589e-01 2.257707e-02 2.896994e-02 3.077385e-01 3.101515e-01 6.068877e-01 5.998701e-01 5.858003e-01 5.872198e-01 5.750776e-01 5.831010e-01 5.713470e-01 5.815916e-01 5.701544e-01 5.808733e-01 5.686956e-01 5.783600e-01 5.671326e-01 5.747362e-01 5.652042e-01 5.690623e-01 5.582331e-01 5.587222e-01 5.473050e-01 5.462819e-01 5.350302e-01 5.313006e-01 5.190691e-01 5.127229e-01 4.992552e-01 4.919668e-01 4.781748e-01 4.720271e-01 4.579038e-01 4.531597e-01 4.385900e-01 4.357717e-01 4.219803e-01 4.228094e-01 4.114723e-01 4.167265e-01 4.098127e-01 4.186253e-01 4.100638e-01 3.988352e-01 3.855156e-01 3.821392e-01 3.772719e-01 3.735945e-01 3.713489e-01 3.709456e-01 3.633219e-01 3.581379e-01 3.459847e-01 3.511901e-01 3.376395e-01 3.418344e-01 3.347232e-01 3.329259e-01 3.253977e-01 3.201695e-01 3.121570e-01 3.073331e-01 2.969695e-01 2.911986e-01 2.781466e-01 2.692006e-01 2.520745e-01 2.405279e-01 2.193867e-01 2.058004e-01 1.820166e-01 1.672691e-01 1.424975e-01 1.275915e-01 1.047205e-01 9.230859e-02 7.474660e-02 6.879664e-02 5.924454e-02 6.129023e-02 5.896808e-02 6.717724e-02 6.885146e-02 7.947325e-02 8.025937e-02 8.830867e-02 8.445687e-02 8.470926e-02 7.188872e-02 6.263140e-02 4.024873e-02 2.751303e-02 -4.971219e-04 -1.287361e-02 -4.354245e-02 -5.467048e-02 -8.313735e-02 -9.302461e-02 -1.192072e-01 -1.305121e-01 -1.547398e-01 -1.682020e-01 -1.924784e-01 -2.077389e-01 -2.322449e-01 -2.461678e-01 -2.695546e-01 -2.811471e-01 -3.024889e-01 -3.118402e-01 -3.314972e-01 -3.391732e-01 
-4.189756e-01 -4.264468e-01 -4.449069e-01 -4.519861e-01 -4.734347e-01 -4.800139e-01 -5.066772e-01 -5.100823e-01 -5.373555e-01 -5.401986e-01 -5.647397e-01 -5.713081e-01 -5.947529e-01 -5.946895e-01 -3.056407e-01 -2.815806e-01 -1.605324e-02 1.758944e-02 2.904398e-01 3.065331e-01 6.255397e-01 6.125999e-01 6.058560e-01 6.076344e-01 6.036293e-01 6.145936e-01 6.069780e-01 6.189003e-01 6.087152e-01 6.183677e-01 6.062022e-01 6.152642e-01 6.038350e-01 6.127801e-01 6.028489e-01 6.067197e-01 5.949078e-01 5.956948e-01 5.846172e-01 5.844619e-01 5.724901e-01 5.685215e-01 5.529150e-01 5.450742e-01 5.259930e-01 5.166275e-01 4.976812e-01 4.906413e-01 4.730626e-01 4.687959e-01 4.526419e-01 4.534630e-01 4.436555e-01 4.576990e-01 4.565552e-01 4.942671e-01 5.130564e-01 5.790783e-01 6.044527e-01 5.942918e-01 6.226336e-01 5.921356e-01 5.792810e-01 5.633534e-01 5.299783e-01 5.231244e-01 4.879858e-01 4.731828e-01 4.407172e-01 4.231820e-01 3.860063e-01 3.772948e-01 3.572827e-01 3.462837e-01 3.330313e-01 3.190848e-01 3.075214e-01 3.021277e-01 2.900209e-01 2.869508e-01 2.771009e-01 2.718293e-01 2.571925e-01 2.476464e-01 2.259628e-01 2.089294e-01 1.788615e-01 1.549202e-01 1.190896e-01 9.103209e-02 5.502231e-02 3.002825e-02 2.313247e-03 -9.904048e-03 -2.088612e-02 -1.458955e-02 -6.623175e-03 1.558748e-02 3.424143e-02 6.118807e-02 7.605440e-02 9.495749e-02 9.801771e-02 9.836638e-02 8.178717e-02 6.079052e-02 2.534814e-02 -2.257216e-03 -4.230072e-02 -6.408809e-02 -9.875606e-02 -1.099403e-01 -1.358928e-01 -1.438669e-01 -1.664883e-01 -1.770935e-01 -2.015455e-01 -2.176753e-01 -2.460265e-01 -2.644107e-01 -2.931368e-01 -3.084669e-01 -3.334975e-01 -3.462589e-01 -3.660133e-01 -3.759166e-01 -3.934552e-01 -4.017624e-01 
-3.555680e-01 -3.605832e-01 -3.756418e-01 -3.822593e-01 -4.015111e-01 -4.125736e-01 -4.428471e-01 -4.416572e-01 -4.705001e-01 -4.625381e-01 -4.862493e-01 -4.936061e-01 -5.161454e-01 -5.130754e-01 -2.694386e-01 -2.520451e-01 -2.702883e-02 7.942051e-03 2.455205e-01 2.653488e-01 5.541056e-01 5.512485e-01 5.414651e-01 5.483326e-01 5.429666e-01 5.606957e-01 5.522529e-01 5.711677e-01 5.596184e-01 5.725292e-01 5.599387e-01 5.759482e-01 5.663798e-01 5.834782e-01 5.814331e-01 5.853429e-01 5.743004e-01 5.694960e-01 5.633601e-01 5.661234e-01 5.603149e-01 5.517683e-01 5.336283e-01 5.196057e-01 4.959206e-01 4.808287e-01 4.589021e-01 4.462364e-01 4.230701e-01 4.093503e-01 3.861739e-01 3.776010e-01 3.648363e-01 3.721911e-01 3.675002e-01 3.967796e-01 4.068740e-01 4.170116e-01 4.447560e-01 4.568908e-01 4.550051e-01 4.743394e-01 4.766657e-01 4.672453e-01 4.895899e-01 4.936125e-01 4.918071e-01 5.135563e-01 4.990054e-01 4.903605e-01 4.669212e-01 4.476200e-01 3.979094e-01 3.776219e-01 3.530075e-01 3.314424e-01 3.172562e-01 3.137363e-01 3.041763e-01 3.039223e-01 3.003092e-01 2.963065e-01 2.832934e-01 2.731621e-01 2.503911e-01 2.328942e-01 2.014026e-01 1.770571e-01 1.398292e-01 1.098426e-01 7.103522e-02 3.916042e-02 5.599301e-03 -9.281183e-03 -2.036115e-02 -1.131343e-02 3.970452e-03 3.442781e-02 6.682042e-02 1.064525e-01 1.252718e-01 1.556651e-01 1.676301e-01 1.726937e-01 1.645572e-01 1.309732e-01 8.813734e-02 5.630695e-02 1.164280e-02 -7.440211e-03 -5.274959e-02 -5.876048e-02 -8.989692e-02 -9.197000e-02 -1.158435e-01 -1.256332e-01 -1.486047e-01 -1.704782e-01 -1.978149e-01 -2.263702e-01 -2.548131e-01 -2.691706e-01 -2.918843e-01 -3.000979e-01 -3.172211e-01 -3.228461e-01 -3.370397e-01 -3.418807e-01 
-4.156319e-01 -4.199312e-01 -4.309392e-01 -4.371840e-01 -4.509930e-01 -4.622770e-01 -5.090888e-01 -4.974641e-01 -5.422740e-01 -5.262045e-01 -5.473440e-01 -5.895728e-01 -6.289997e-01 -6.286518e-01 -3.218885e-01 -2.206108e-01 -1.168656e-01 4.382496e-02 1.237246e-01 1.944433e-01 4.405396e-01 4.604477e-01 4.808759e-01 5.071849e-01 5.401974e-01 5.867013e-01 5.805221e-01 6.058813e-01 5.973377e-01 6.007983e-01 5.819220e-01 5.886843e-01 5.787253e-01 6.081291e-01 6.111073e-01 6.074762e-01 5.898690e-01 5.865641e-01 5.863300e-01 5.952639e-01 5.939662e-01 5.900133e-01 5.720426e-01 5.510609e-01 5.108519e-01 4.802408e-01 4.477738e-01 4.334090e-01 4.105469e-01 3.955557e-01 3.585158e-01 3.312276e-01 3.199374e-01 3.105416e-01 2.826904e-01 3.503217e-01 2.947516e-01 7.896716e-02 1.763344e-01 2.150973e-01 1.080510e-02 2.314883e-01 1.961032e-01 9.242704e-02 3.232735e-01 2.384521e-01 2.991487e-01 4.527933e-01 4.145148e-01 4.667150e-01 4.686301e-01 4.598729e-01 3.580090e-01 3.299865e-01 3.324069e-01 2.683259e-01 2.613156e-01 2.810831e-01 2.585650e-01 2.759202e-01 3.009639e-01 3.115161e-01 3.125382e-01 3.216038e-01 3.094215e-01 2.884190e-01 2.427872e-01 1.977173e-01 1.280725e-01 5.577923e-02 -2.921327e-02 -1.051526e-01 -1.757178e-01 -2.169183e-01 -2.372915e-01 -2.142111e-01 -1.594308e-01 -7.343136e-02 2.206597e-02 1.200943e-01 1.874154e-01 2.597908e-01 3.002805e-01 3.095836e-01 2.815492e-01 1.945898e-01 9.064296e-02 -2.901209e-03 -9.847294e-02 -1.488302e-01 -1.958168e-01 -1.723198e-01 -1.713256e-01 -1.524477e-01 -1.501436e-01 -1.484856e-01 -1.677238e-01 -2.007579e-01 -2.490052e-01 -2.869083e-01 -3.337650e-01 -3.461121e-01 -3.768691e-01 -3.899955e-01 -3.932286e-01 -3.957156e-01 -4.029214e-01 -4.063631e-01 
-3.473208e-01 -3.450691e-01 -3.444860e-01 -3.406722e-01 -3.350569e-01 -3.274220e-01 -3.506666e-01 -3.398492e-01 -3.573917e-01 -3.653878e-01 -3.425482e-01 -4.135126e-01 -4.090985e-01 -4.250057e-01 -3.680552e-01 -3.589238e-01 -3.404545e-01 -2.677964e-01 -2.791463e-01 -2.642671e-01 -1.672026e-01 -1.270271e-01 -8.383961e-02 -3.291409e-02 3.705703e-02 1.025170e-01 1.134648e-01 1.343554e-01 1.458060e-01 1.360095e-01 1.295850e-01 1.116206e-01 1.120246e-01 1.288397e-01 1.305876e-01 1.239498e-01 1.154985e-01 1.319035e-01 1.400618e-01 1.535333e-01 1.568450e-01 1.753282e-01 1.793978e-01 1.771841e-01 1.524477e-01 1.333924e-01 1.161797e-01 1.216867e-01 1.273280e-01 1.404152e-01 1.250049e-01 1.114194e-01 1.188875e-01 1.136023e-01 8.415111e-02 1.842343e-01 1.058160e-01 -1.569268e-01 -1.354832e-02 1.413189e-02 -2.402605e-01 1.905706e-02 -4.570447e-02 -2.103109e-01 4.028520e-02 -1.012339e-01 -8.018229e-02 7.921948e-02 -2.570353e-03 4.871293e-02 5.367069e-02 5.281651e-02 -4.082508e-02 -6.059234e-02 -1.670297e-02 -8.899073e-02 -7.712757e-02 -3.706632e-02 -6.089372e-02 -2.354138e-02 2.215375e-02 5.628647e-02 7.980282e-02 1.167965e-01 1.267148e-01 1.110850e-01 6.411678e-02 4.580167e-03 -8.577782e-02 -1.874383e-01 -3.012709e-01 -3.939853e-01 -4.759736e-01 -5.244815e-01 -5.423874e-01 -5.020226e-01 -4.198661e-01 -2.936031e-01 -1.646478e-01 -3.370175e-02 7.807191e-02 1.688818e-01 2.187842e-01 2.276876e-01 1.675352e-01 7.449065e-02 -5.572539e-02 -1.848709e-01 -3.015951e-01 -3.793558e-01 -3.895562e-01 -3.499537e-01 -2.956925e-01 -2.613297e-01 -2.198026e-01 -1.937206e-01 -2.018134e-01 -2.084785e-01 -2.666522e-01 -2.661223e-01 -3.213591e-01 -3.160682e-01 -3.512926e-01 -3.620365e-01 -3.531113e-01 -3.497468e-01 -3.485381e-01 -3.464941e-01 
-4.035458e-01 -4.006436e-01 -4.005906e-01 -3.945457e-01 -3.896165e-01 -3.766565e-01 -3.763231e-01 -3.776910e-01 -3.748100e-01 -3.980193e-01 -3.775426e-01 -4.145812e-01 -4.029289e-01 -4.157858e-01 -3.932138e-01 -3.852733e-01 -3.711948e-01 -3.467409e-01 -3.502801e-01 -3.449489e-01 -3.158228e-01 -2.932156e-01 -2.583335e-01 -2.228136e-01 -1.715871e-01 -1.350800e-01 -1.114336e-01 -1.013404e-01 -8.142030e-02 -8.801102e-02 -8.017294e-02 -9.790683e-02 -9.267611e-02 -9.472529e-02 -9.913898e-02 -9.767225e-02 -9.685823e-02 -7.517876e-02 -7.237813e-02 -6.205124e-02 -6.384195e-02 -3.980304e-02 -3.071295e-02 -1.326664e-02 -1.551873e-02 -7.044185e-03 -8.754331e-03 9.140175e-03 2.077410e-02 4.423268e-02 4.662424e-02 5.251649e-02 5.418293e-02 5.244189e-02 2.952132e-02 5.734304e-02 9.183013e-03 -9.175840e-02 -5.531993e-02 -5.907065e-02 -1.659206e-01 -8.433111e-02 -1.245605e-01 -1.992718e-01 -1.283092e-01 -1.936322e-01 -2.096014e-01 -1.635439e-01 -2.108300e-01 -1.943163e-01 -2.014579e-01 -1.947398e-01 -2.260407e-01 -2.273225e-01 -2.012463e-01 -2.256669e-01 -2.179423e-01 -1.971790e-01 -2.112994e-01 -1.865608e-01 -1.714422e-01 -1.473166e-01 -1.360130e-01 -1.133217e-01 -1.117179e-01 -1.238443e-01 -1.571056e-01 -1.998080e-01 -2.612065e-01 -3.258715e-01 -3.972914e-01 -4.471483e-01 -4.928430e-01 -5.160524e-01 -5.249567e-01 -4.974583e-01 -4.532252e-01 -3.797230e-01 -3.125809e-01 -2.390120e-01 -1.686381e-01 -1.200524e-01 -9.812934e-02 -9.428149e-02 -1.394300e-01 -1.752436e-01 -2.427869e-01 -3.151469e-01 -3.785420e-01 -4.328944e-01 -4.283579e-01 -4.217077e-01 -3.863605e-01 -3.739656e-01 -3.476949e-01 -3.270772e-01 -3.334575e-01 -3.180753e-01 -3.544873e-01 -3.314117e-01 -3.694339e-01 -3.618276e-01 -3.907178e-01 -3.958966e-01 -3.995303e-01 -3.987249e-01 -4.024629e-01 -4.010239e-01 
-3.469420e-01 -3.431901e-01 -3.421224e-01 -3.379423e-01 -3.344938e-01 -3.300162e-01 -3.248929e-01 -3.314452e-01 -3.238113e-01 -3.426266e-01 -3.285301e-01 -3.485998e-01 -3.370949e-01 -3.503978e-01 -3.481834e-01 -3.514801e-01 -3.486495e-01 -3.446548e-01 -3.433500e-01 -3.361681e-01 -3.261094e-01 -3.088112e-01 -2.840971e-01 -2.587773e-01 -2.285929e-01 -2.078594e-01 -1.826852e-01 -1.691412e-01 -1.542757e-01 -1.559166e-01 -1.437320e-01 -1.496753e-01 -1.419963e-01 -1.420575e-01 -1.433223e-01 -1.370735e-01 -1.323609e-01 -1.189756e-01 -1.134848e-01 -1.048901e-01 -1.029022e-01 -8.629747e-02 -8.017980e-02 -5.923622e-02 -5.357178e-02 -3.346000e-02 -2.848790e-02 -9.741074e-03 -2.419534e-03 1.430024e-02 1.880870e-02 2.678000e-02 2.435096e-02 2.432578e-02 8.962302e-03 -5.986703e-04 -2.548852e-02 -6.406553e-02 -8.173458e-02 -9.480037e-02 -1.420955e-01 -1.358769e-01 -1.596993e-01 -1.911725e-01 -1.817235e-01 -2.138881e-01 -2.216753e-01 -2.180368e-01 -2.390563e-01 -2.225467e-01 -2.356220e-01 -2.168259e-01 -2.215949e-01 -2.120359e-01 -1.988723e-01 -2.005642e-01 -1.939619e-01 -1.832960e-01 -1.895542e-01 -1.714079e-01 -1.706585e-01 -1.567571e-01 -1.553624e-01 -1.468296e-01 -1.555408e-01 -1.675244e-01 -1.922598e-01 -2.208288e-01 -2.585414e-01 -2.943229e-01 -3.335374e-01 -3.590965e-01 -3.868014e-01 -3.969860e-01 -4.040534e-01 -3.869267e-01 -3.639948e-01 -3.224189e-01 -2.841653e-01 -2.381209e-01 -1.988907e-01 -1.653649e-01 -1.504947e-01 -1.414273e-01 -1.576064e-01 -1.695456e-01 -2.029616e-01 -2.379145e-01 -2.719143e-01 -3.044201e-01 -3.099136e-01 -3.181665e-01 -3.143093e-01 -3.141172e-01 -3.059803e-01 -2.908845e-01 -2.970709e-01 -2.810036e-01 -3.024393e-01 -2.863899e-01 -3.148835e-01 -3.105063e-01 -3.346305e-01 -3.343325e-01 -3.453821e-01 -3.432319e-01 -3.484586e-01 -3.452940e-01 
