# vtk DataFile Version 2.0
Comment goes here
ASCII

DATASET STRUCTURED_POINTS
FIELD FieldData 1
TIME 1 1 double
0.38000000
DIMENSIONS    128   16   1

ORIGIN    0.000   0.000   0.000
SPACING   0.0078125 0.015625   1.000

POINT_DATA   2048
SCALARS uMag double
LOOKUP_TABLE default

5.663787e-03 3.844046e-03 4.465419e-03 2.102569e-03 3.116495e-03 2.057093e-03 9.385138e-03 3.202204e-04 5.070622e-03 4.479519e-03 3.392377e-03 1.447400e-02 2.122537e-02 3.621833e-02 4.391890e-02 4.791281e-02 5.015064e-02 5.035501e-02 4.798909e-02 4.361841e-02 3.713553e-02 2.103731e-02 1.401768e-02 5.369712e-03 3.301493e-03 1.258361e-03 1.188643e-03 4.138627e-03 3.076122e-03 5.384036e-03 3.826325e-03 5.866091e-03 4.089001e-03 5.991010e-03 4.190269e-03 5.969131e-03 4.276113e-03 5.874269e-03 4.367603e-03 5.712561e-03 4.455520e-03 5.502026e-03 4.547695e-03 5.274695e-03 4.650727e-03 5.058967e-03 4.772721e-03 4.889932e-03 4.930532e-03 4.796535e-03 5.130884e-03 4.790724e-03 5.388869e-03 4.916587e-03 5.817281e-03 5.434037e-03 6.926948e-03 5.835908e-03 4.489869e-03 3.850283e-03 4.838872e-03 2.982200e-03 4.032649e-03 4.085085e-03 2.945525e-03 4.542109e-03 3.924462e-03 3.572835e-03 5.704412e-03 7.846919e-03 5.134941e-03 2.349873e-03 2.460936e-03 4.165346e-03 3.237320e-03 4.373925e-03 3.218538e-03 4.411916e-03 3.252546e-03 4.420771e-03 3.338102e-03 4.366017e-03 3.447213e-03 4.215461e-03 3.566860e-03 3.977993e-03 3.717206e-03 3.701688e-03 3.920480e-03 3.427097e-03 4.155358e-03 3.163769e-03 4.369214e-03 2.927115e-03 4.527219e-03 2.759551e-03 4.603001e-03 2.691904e-03 4.557772e-03 2.742926e-03 4.376417e-03 2.942563e-03 4.071688e-03 3.293835e-03 3.645246e-03 3.749306e-03 3.104360e-03 4.256821e-03 2.514199e-03 4.785737e-03 1.975254e-03 5.276403e-03 1.564009e-03 5.620212e-03 1.348262e-03 5.718195e-03 1.443636e-03 5.521770e-03 2.043035e-03 5.029447e-03 3.525904e-03 4.357924e-03 7.121700e-03 9.809824e-04 4.512698e-03 2.359318e-03 5.401985e-03 3.959691e-03 
1.796786e-03 1.250339e-03 1.744077e-03 2.220498e-03 3.213563e-03 6.674449e-03 7.463965e-03 4.976960e-03 6.286941e-03 8.733842e-03 1.014148e-02 1.797272e-02 2.180866e-02 2.270885e-02 1.183029e-02 6.729354e-03 3.223529e-03 4.185455e-03 6.841046e-03 1.124247e-02 2.261389e-02 2.312106e-02 1.573170e-02 1.073360e-02 6.669132e-03 4.635760e-03 2.911265e-03 2.376707e-03 1.244440e-03 1.791637e-03 4.427347e-04 1.671488e-03 1.084963e-04 1.569586e-03 1.408205e-04 1.485676e-03 1.485423e-04 1.392543e-03 2.008095e-04 1.230555e-03 2.659461e-04 1.018162e-03 3.255480e-04 8.145481e-04 4.231194e-04 6.218007e-04 5.251850e-04 4.092988e-04 5.640123e-04 1.798335e-04 5.090674e-04 1.924768e-04 3.497679e-04 5.857011e-04 4.163812e-04 1.165333e-03 1.292605e-03 4.377796e-03 4.554347e-03 3.401650e-03 1.866145e-03 3.758951e-03 3.991076e-03 2.078910e-03 3.175626e-03 6.771678e-03 1.486062e-03 5.559628e-03 1.423508e-02 3.781003e-03 1.336939e-02 7.124838e-03 1.328710e-03 9.187307e-04 7.017910e-04 1.930080e-04 8.738658e-04 1.327430e-04 9.906431e-04 1.153850e-04 9.609600e-04 8.729870e-05 8.770332e-04 1.835721e-04 8.226525e-04 4.394021e-04 7.381656e-04 7.400880e-04 5.682438e-04 1.023629e-03 3.444045e-04 1.259547e-03 2.368540e-04 1.455903e-03 3.171047e-04 1.609399e-03 3.632399e-04 1.712725e-03 2.719606e-04 1.715064e-03 1.745862e-04 1.545345e-03 3.903226e-04 1.222365e-03 7.610549e-04 8.548371e-04 1.257328e-03 6.016025e-04 1.829004e-03 6.673605e-04 2.339754e-03 1.022055e-03 2.720583e-03 1.349798e-03 2.938596e-03 1.479831e-03 2.906100e-03 1.453038e-03 2.428427e-03 1.718204e-03 1.197262e-03 3.593744e-03 4.260885e-03 6.401378e-03 1.406399e-03 1.805101e-03 2.261518e-03 5.476193e-04 
8.475918e-03 7.668810e-03 6.171130e-03 6.644949e-03 8.657793e-03 2.527181e-02 5.612720e-03 1.281555e-02 4.529107e-03 9.419391e-03 1.074242e-03 6.838021e-03 8.730708e-03 1.522794e-02 1.813144e-02 1.927643e-02 1.939790e-02 2.047224e-02 1.835102e-02 1.776567e-02 1.564120e-02 6.357747e-03 2.499302e-03 3.423306e-03 5.423768e-03 6.888742e-03 8.196579e-03 8.335366e-03 9.482325e-03 8.862210e-03 1.024984e-02 9.204564e-03 1.086740e-02 9.465708e-03 1.120861e-02 9.530966e-03 1.125794e-02 9.531701e-03 1.123041e-02 9.642662e-03 1.122311e-02 9.832178e-03 1.114644e-02 9.972295e-03 1.095176e-02 1.007161e-02 1.074872e-02 1.022728e-02 1.061282e-02 1.045493e-02 1.054998e-02 1.074820e-02 1.058965e-02 1.114882e-02 1.086729e-02 1.192344e-02 1.151468e-02 1.086479e-02 8.055033e-03 6.904420e-03 6.924620e-03 7.045344e-03 6.014997e-03 8.702854e-03 6.238210e-03 1.157146e-02 1.255635e-02 1.110299e-02 2.074060e-02 2.138443e-02 1.787998e-02 1.122505e-02 1.069706e-02 1.090203e-02 1.165711e-02 1.099357e-02 1.208475e-02 1.108179e-02 1.231989e-02 1.106473e-02 1.227035e-02 1.098090e-02 1.213194e-02 1.108086e-02 1.208995e-02 1.139273e-02 1.203225e-02 1.175084e-02 1.184565e-02 1.206190e-02 1.152494e-02 1.229673e-02 1.115407e-02 1.249588e-02 1.084759e-02 1.269446e-02 1.070100e-02 1.290456e-02 1.073887e-02 1.301904e-02 1.087766e-02 1.291011e-02 1.108425e-02 1.258800e-02 1.139553e-02 1.216708e-02 1.189101e-02 1.173835e-02 1.250966e-02 1.122197e-02 1.305573e-02 1.064094e-02 1.348208e-02 1.017012e-02 1.383248e-02 9.983264e-03 1.409312e-02 1.017870e-02 1.412457e-02 1.098598e-02 1.394715e-02 1.403524e-02 1.786338e-02 1.779515e-02 9.377756e-03 3.905502e-03 7.552296e-03 7.281456e-03 
9.274669e-03 1.207267e-02 1.731803e-02 2.747521e-02 2.932067e-02 2.390098e-02 2.612515e-02 2.016303e-02 2.509228e-02 1.992416e-02 2.376118e-02 1.985249e-02 2.208937e-02 2.282142e-02 2.507663e-02 2.555491e-02 2.540339e-02 2.662681e-02 2.446628e-02 2.612711e-02 2.172968e-02 2.261449e-02 2.051775e-02 2.287620e-02 2.064247e-02 2.286278e-02 2.092073e-02 2.272373e-02 2.122108e-02 2.253246e-02 2.155094e-02 2.237529e-02 2.190948e-02 2.220950e-02 2.217909e-02 2.200411e-02 2.233428e-02 2.181481e-02 2.244002e-02 2.169744e-02 2.251993e-02 2.163370e-02 2.252674e-02 2.157042e-02 2.243964e-02 2.148773e-02 2.227431e-02 2.139093e-02 2.202408e-02 2.125138e-02 2.164099e-02 2.098962e-02 2.105365e-02 2.049013e-02 2.013243e-02 1.944875e-02 1.837611e-02 1.866578e-02 2.007491e-02 1.878846e-02 1.991842e-02 2.096069e-02 1.952080e-02 2.286199e-02 2.150264e-02 2.280631e-02 2.500675e-02 2.369059e-02 2.652112e-02 2.561111e-02 2.633299e-02 2.600057e-02 2.527094e-02 2.439990e-02 2.404431e-02 2.347214e-02 2.350104e-02 2.293949e-02 2.320699e-02 2.257560e-02 2.298252e-02 2.231426e-02 2.281865e-02 2.219884e-02 2.276172e-02 2.221922e-02 2.272233e-02 2.228937e-02 2.264146e-02 2.237761e-02 2.252339e-02 2.246382e-02 2.237859e-02 2.254046e-02 2.222892e-02 2.264201e-02 2.210826e-02 2.278961e-02 2.199750e-02 2.293613e-02 2.188069e-02 2.305099e-02 2.177259e-02 2.313455e-02 2.167871e-02 2.321705e-02 2.163493e-02 2.329689e-02 2.166366e-02 2.330426e-02 2.171652e-02 2.323401e-02 2.178081e-02 2.311817e-02 2.193151e-02 2.298855e-02 2.226329e-02 2.285128e-02 2.285775e-02 2.270492e-02 2.419743e-02 2.256252e-02 3.016999e-02 2.118959e-02 3.744016e-02 2.157174e-02 1.551036e-02 1.001078e-02 
3.599479e-02 3.816747e-02 4.326604e-02 5.064419e-02 6.084736e-02 4.636249e-02 2.909184e-02 3.968432e-02 2.858172e-02 3.535065e-02 2.679544e-02 2.991842e-02 2.239525e-02 2.522384e-02 2.500562e-02 2.533841e-02 2.572265e-02 2.538047e-02 2.567768e-02 2.538616e-02 2.482955e-02 2.478537e-02 2.892488e-02 2.939543e-02 3.212798e-02 3.158568e-02 3.353374e-02 3.249034e-02 3.413242e-02 3.291196e-02 3.449703e-02 3.330507e-02 3.482960e-02 3.365537e-02 3.496162e-02 3.380954e-02 3.485141e-02 3.386997e-02 3.469076e-02 3.398701e-02 3.456831e-02 3.412427e-02 3.439007e-02 3.415756e-02 3.409170e-02 3.409003e-02 3.375907e-02 3.399623e-02 3.342413e-02 3.384143e-02 3.300599e-02 3.352812e-02 3.238440e-02 3.294098e-02 3.140653e-02 3.181527e-02 2.929626e-02 3.004753e-02 2.947123e-02 2.823599e-02 2.931637e-02 3.052081e-02 2.843132e-02 3.353865e-02 3.161459e-02 3.329378e-02 3.836531e-02 3.653631e-02 4.188525e-02 4.490235e-02 4.152342e-02 3.956683e-02 3.871842e-02 3.768811e-02 3.746839e-02 3.657865e-02 3.685520e-02 3.607032e-02 3.649101e-02 3.570530e-02 3.610196e-02 3.541360e-02 3.578521e-02 3.536758e-02 3.565638e-02 3.555268e-02 3.557293e-02 3.579303e-02 3.540408e-02 3.598510e-02 3.512247e-02 3.610033e-02 3.480588e-02 3.618989e-02 3.456748e-02 3.628320e-02 3.449089e-02 3.639291e-02 3.460215e-02 3.642254e-02 3.480628e-02 3.624031e-02 3.505751e-02 3.585672e-02 3.539629e-02 3.538730e-02 3.589990e-02 3.493328e-02 3.650336e-02 3.443002e-02 3.702294e-02 3.390729e-02 3.741925e-02 3.354637e-02 3.772334e-02 3.352392e-02 3.791346e-02 3.394428e-02 3.786488e-02 3.503469e-02 3.756348e-02 3.781802e-02 3.731908e-02 6.416966e-02 5.831174e-02 4.779854e-02 3.921987e-02 3.733213e-02 
4.179205e-02 4.375581e-02 4.662759e-02 5.256836e-02 6.124399e-02 6.919587e-02 6.167041e-02 6.313469e-02 5.916466e-02 5.949010e-02 5.590896e-02 5.493379e-02 5.034334e-02 4.997436e-02 5.007609e-02 5.000843e-02 5.011096e-02 5.005222e-02 5.006655e-02 5.011144e-02 4.993689e-02 5.055102e-02 5.547415e-02 5.679837e-02 5.869821e-02 5.958257e-02 6.039964e-02 6.080909e-02 6.133031e-02 6.132614e-02 6.196341e-02 6.164059e-02 6.248445e-02 6.184319e-02 6.278447e-02 6.186155e-02 6.284255e-02 6.180172e-02 6.281035e-02 6.179445e-02 6.275499e-02 6.180938e-02 6.260288e-02 6.173978e-02 6.229391e-02 6.156498e-02 6.186121e-02 6.130042e-02 6.128606e-02 6.085693e-02 6.043258e-02 6.004405e-02 5.908192e-02 5.859153e-02 5.691112e-02 5.604200e-02 5.342852e-02 5.480754e-02 5.733165e-02 5.753167e-02 5.889819e-02 6.139070e-02 6.018884e-02 6.350990e-02 6.301816e-02 6.333037e-02 6.504159e-02 6.371346e-02 6.433131e-02 6.428190e-02 6.545478e-02 6.761243e-02 6.739550e-02 6.597456e-02 6.580349e-02 6.478439e-02 6.509582e-02 6.415278e-02 6.465742e-02 6.367410e-02 6.424426e-02 6.330767e-02 6.391642e-02 6.318964e-02 6.375485e-02 6.329873e-02 6.364151e-02 6.348052e-02 6.346709e-02 6.365257e-02 6.321148e-02 6.378959e-02 6.291827e-02 6.391526e-02 6.266778e-02 6.405938e-02 6.253413e-02 6.422713e-02 6.252402e-02 6.433344e-02 6.256962e-02 6.429160e-02 6.264915e-02 6.410162e-02 6.280001e-02 6.383743e-02 6.309272e-02 6.357097e-02 6.348803e-02 6.325640e-02 6.386279e-02 6.289816e-02 6.419990e-02 6.261987e-02 6.454439e-02 6.256700e-02 6.492713e-02 6.283643e-02 6.536289e-02 6.357466e-02 6.614152e-02 6.519417e-02 6.898206e-02 6.913351e-02 5.570530e-02 4.971170e-02 4.417860e-02 4.292223e-02 
5.268541e-02 5.446777e-02 5.489198e-02 5.887937e-02 6.062930e-02 6.773859e-02 6.758658e-02 6.778816e-02 6.735315e-02 6.826538e-02 6.795930e-02 6.939571e-02 6.839571e-02 6.747130e-02 6.754819e-02 6.750022e-02 6.759569e-02 6.753804e-02 6.755264e-02 6.758474e-02 6.742107e-02 6.885958e-02 6.928131e-02 6.862111e-02 6.806443e-02 6.827046e-02 6.786454e-02 6.810250e-02 6.790472e-02 6.796494e-02 6.803536e-02 6.787355e-02 6.819841e-02 6.781152e-02 6.832273e-02 6.774700e-02 6.837562e-02 6.768906e-02 6.837294e-02 6.765611e-02 6.832396e-02 6.763426e-02 6.821243e-02 6.759177e-02 6.802364e-02 6.750868e-02 6.775532e-02 6.736893e-02 6.739730e-02 6.713843e-02 6.692276e-02 6.677044e-02 6.632122e-02 6.626191e-02 6.571126e-02 6.585336e-02 6.537565e-02 6.503733e-02 6.398105e-02 6.561670e-02 6.353741e-02 6.463915e-02 6.493804e-02 6.367515e-02 6.521859e-02 6.558430e-02 6.423782e-02 6.676280e-02 6.650575e-02 6.659972e-02 6.800087e-02 6.618934e-02 6.637386e-02 6.725288e-02 6.803481e-02 6.830926e-02 6.885791e-02 6.871343e-02 6.917448e-02 6.881817e-02 6.922994e-02 6.881921e-02 6.917602e-02 6.884156e-02 6.909767e-02 6.892275e-02 6.899986e-02 6.903818e-02 6.886918e-02 6.916463e-02 6.871062e-02 6.928815e-02 6.854215e-02 6.940259e-02 6.839490e-02 6.951122e-02 6.830081e-02 6.960477e-02 6.826402e-02 6.965176e-02 6.827624e-02 6.963054e-02 6.833659e-02 6.953801e-02 6.845072e-02 6.939300e-02 6.862631e-02 6.921843e-02 6.884469e-02 6.902151e-02 6.906601e-02 6.881869e-02 6.926292e-02 6.865056e-02 6.942183e-02 6.856175e-02 6.952246e-02 6.856591e-02 6.952308e-02 6.860839e-02 6.938841e-02 6.842479e-02 6.928818e-02 6.459800e-02 5.962030e-02 5.714124e-02 5.418444e-02 5.390017e-02 
5.202626e-02 5.336862e-02 5.382382e-02 5.657646e-02 5.780638e-02 6.141176e-02 6.218442e-02 6.457890e-02 6.570227e-02 6.792670e-02 7.064301e-02 7.314887e-02 7.820804e-02 7.795538e-02 7.801838e-02 7.796026e-02 7.800180e-02 7.797793e-02 7.798090e-02 7.800165e-02 7.796168e-02 7.829193e-02 7.190641e-02 7.080747e-02 6.746589e-02 6.724133e-02 6.554823e-02 6.545633e-02 6.468879e-02 6.450790e-02 6.434461e-02 6.399831e-02 6.424880e-02 6.372127e-02 6.424230e-02 6.356102e-02 6.424398e-02 6.347192e-02 6.423087e-02 6.343882e-02 6.419351e-02 6.343925e-02 6.411433e-02 6.344181e-02 6.397606e-02 6.341883e-02 6.376601e-02 6.334085e-02 6.346341e-02 6.316686e-02 6.304120e-02 6.285876e-02 6.249460e-02 6.241900e-02 6.190664e-02 6.198964e-02 6.129902e-02 6.054696e-02 6.105840e-02 6.218586e-02 6.127734e-02 6.284224e-02 6.257163e-02 6.320517e-02 6.373564e-02 6.442239e-02 6.446255e-02 6.510184e-02 6.593257e-02 6.496328e-02 6.519098e-02 6.568933e-02 6.596564e-02 6.545562e-02 6.561331e-02 6.501596e-02 6.534402e-02 6.472318e-02 6.515905e-02 6.454872e-02 6.501425e-02 6.446403e-02 6.488990e-02 6.446741e-02 6.478198e-02 6.454619e-02 6.467215e-02 6.466882e-02 6.454330e-02 6.480780e-02 6.439594e-02 6.494668e-02 6.424690e-02 6.507684e-02 6.412076e-02 6.519041e-02 6.403991e-02 6.527472e-02 6.401505e-02 6.530868e-02 6.404480e-02 6.527416e-02 6.412735e-02 6.516942e-02 6.426504e-02 6.500996e-02 6.445647e-02 6.481432e-02 6.467850e-02 6.459178e-02 6.489089e-02 6.435693e-02 6.505637e-02 6.413242e-02 6.513336e-02 6.392074e-02 6.504708e-02 6.365905e-02 6.464842e-02 6.315932e-02 6.365514e-02 6.202281e-02 6.157369e-02 5.925553e-02 5.664887e-02 5.502894e-02 5.303656e-02 5.281270e-02 
5.679609e-02 5.820802e-02 5.812322e-02 6.079537e-02 6.138647e-02 6.474636e-02 6.563476e-02 6.781051e-02 6.926459e-02 7.123040e-02 7.405352e-02 7.632122e-02 8.154785e-02 8.146432e-02 8.152591e-02 8.147214e-02 8.151435e-02 8.149331e-02 8.148917e-02 8.151913e-02 8.145898e-02 8.152445e-02 7.478355e-02 7.399219e-02 7.072846e-02 7.064951e-02 6.901022e-02 6.905277e-02 6.827330e-02 6.824314e-02 6.799340e-02 6.781667e-02 6.792312e-02 6.758827e-02 6.793550e-02 6.746859e-02 6.796664e-02 6.741772e-02 6.799079e-02 6.741858e-02 6.799891e-02 6.745831e-02 6.798608e-02 6.752320e-02 6.794943e-02 6.759961e-02 6.788793e-02 6.767560e-02 6.780675e-02 6.775048e-02 6.773309e-02 6.785532e-02 6.773954e-02 6.807393e-02 6.797485e-02 6.858852e-02 6.850703e-02 6.903121e-02 6.855843e-02 6.900782e-02 6.892584e-02 6.901910e-02 6.882448e-02 6.940532e-02 6.850155e-02 6.958722e-02 6.894071e-02 6.907104e-02 7.003666e-02 6.926162e-02 6.921397e-02 6.925407e-02 6.914839e-02 6.885180e-02 6.888805e-02 6.851174e-02 6.868347e-02 6.830831e-02 6.857260e-02 6.821873e-02 6.850499e-02 6.820199e-02 6.844437e-02 6.823935e-02 6.837695e-02 6.831933e-02 6.829516e-02 6.842725e-02 6.819639e-02 6.854970e-02 6.808740e-02 6.867649e-02 6.798086e-02 6.879670e-02 6.788992e-02 6.889753e-02 6.782658e-02 6.896704e-02 6.780148e-02 6.899556e-02 6.782104e-02 6.897551e-02 6.788632e-02 6.890517e-02 6.799591e-02 6.879172e-02 6.814294e-02 6.864506e-02 6.830826e-02 6.847326e-02 6.846261e-02 6.828496e-02 6.857214e-02 6.808478e-02 6.859234e-02 6.785071e-02 6.844598e-02 6.749349e-02 6.798572e-02 6.679528e-02 6.693265e-02 6.534139e-02 6.481295e-02 6.254124e-02 6.072404e-02 5.935857e-02 5.772544e-02 5.771618e-02 
5.202453e-02 5.336739e-02 5.382230e-02 5.657503e-02 5.780475e-02 6.141002e-02 6.218235e-02 6.457793e-02 6.570076e-02 6.792705e-02 7.064287e-02 7.314999e-02 7.820829e-02 7.795488e-02 7.801847e-02 7.795984e-02 7.800217e-02 7.797783e-02 7.798176e-02 7.800201e-02 7.796309e-02 7.829605e-02 7.191129e-02 7.081035e-02 6.747395e-02 6.725421e-02 6.557474e-02 6.548961e-02 6.473756e-02 6.455838e-02 6.440724e-02 6.405807e-02 6.432006e-02 6.379420e-02 6.433221e-02 6.366409e-02 6.436938e-02 6.362399e-02 6.441089e-02 6.366414e-02 6.445868e-02 6.377874e-02 6.451810e-02 6.396225e-02 6.459838e-02 6.420781e-02 6.470455e-02 6.450427e-02 6.484521e-02 6.485505e-02 6.504834e-02 6.527471e-02 6.531529e-02 6.569119e-02 6.544769e-02 6.568178e-02 6.470069e-02 6.513214e-02 6.541160e-02 6.479122e-02 6.521475e-02 6.568143e-02 6.457901e-02 6.635230e-02 6.496902e-02 6.572299e-02 6.600790e-02 6.536687e-02 6.655451e-02 6.515408e-02 6.486617e-02 6.549742e-02 6.516280e-02 6.430189e-02 6.454598e-02 6.396037e-02 6.443899e-02 6.391212e-02 6.447500e-02 6.396969e-02 6.452602e-02 6.407291e-02 6.455255e-02 6.420890e-02 6.454419e-02 6.436866e-02 6.449405e-02 6.453673e-02 6.440173e-02 6.470482e-02 6.428832e-02 6.487620e-02 6.418063e-02 6.504038e-02 6.408844e-02 6.517008e-02 6.401753e-02 6.524862e-02 6.398898e-02 6.527567e-02 6.402047e-02 6.524335e-02 6.410979e-02 6.514567e-02 6.425670e-02 6.499740e-02 6.445838e-02 6.481276e-02 6.468693e-02 6.459649e-02 6.489997e-02 6.436198e-02 6.506180e-02 6.413530e-02 6.513462e-02 6.391975e-02 6.504216e-02 6.365195e-02 6.463881e-02 6.315039e-02 6.364663e-02 6.201644e-02 6.156839e-02 5.925258e-02 5.664560e-02 5.502722e-02 5.303427e-02 5.281142e-02 
5.268164e-02 5.446559e-02 5.488901e-02 5.887681e-02 6.062642e-02 6.773470e-02 6.758258e-02 6.778838e-02 6.734962e-02 6.826763e-02 6.795831e-02 6.939911e-02 6.839513e-02 6.747008e-02 6.754763e-02 6.749960e-02 6.759642e-02 6.753896e-02 6.755465e-02 6.758739e-02 6.742377e-02 6.886873e-02 6.929135e-02 6.862510e-02 6.807909e-02 6.829276e-02 6.791471e-02 6.816565e-02 6.799986e-02 6.806407e-02 6.815958e-02 6.799326e-02 6.834021e-02 6.795868e-02 6.850076e-02 6.795275e-02 6.861940e-02 6.798307e-02 6.871026e-02 6.807137e-02 6.879682e-02 6.822738e-02 6.889483e-02 6.845366e-02 6.901679e-02 6.874242e-02 6.915677e-02 6.906678e-02 6.929935e-02 6.940752e-02 6.944518e-02 6.975328e-02 6.954128e-02 6.996916e-02 6.925066e-02 6.936813e-02 6.650290e-02 6.656562e-02 6.916842e-02 6.652067e-02 6.860805e-02 7.050717e-02 6.666959e-02 7.259350e-02 6.907872e-02 6.999595e-02 7.352816e-02 6.998577e-02 7.446540e-02 7.396895e-02 7.181144e-02 7.510291e-02 7.380827e-02 7.131542e-02 7.061500e-02 6.943922e-02 6.944963e-02 6.872727e-02 6.900618e-02 6.846851e-02 6.883910e-02 6.842558e-02 6.877994e-02 6.850326e-02 6.874910e-02 6.864314e-02 6.869874e-02 6.880240e-02 6.860885e-02 6.896487e-02 6.850043e-02 6.914005e-02 6.840356e-02 6.931765e-02 6.832012e-02 6.945816e-02 6.824396e-02 6.954184e-02 6.820381e-02 6.958189e-02 6.822578e-02 6.956927e-02 6.830169e-02 6.949181e-02 6.843472e-02 6.936926e-02 6.863015e-02 6.921564e-02 6.885966e-02 6.902884e-02 6.908028e-02 6.882528e-02 6.926979e-02 6.865349e-02 6.942202e-02 6.855822e-02 6.951168e-02 6.855100e-02 6.950484e-02 6.859118e-02 6.937362e-02 6.841116e-02 6.927897e-02 6.459271e-02 5.961350e-02 5.713799e-02 5.417926e-02 5.389777e-02 
4.178844e-02 4.375347e-02 4.662417e-02 5.256428e-02 6.123884e-02 6.918647e-02 6.166035e-02 6.312869e-02 5.915727e-02 5.949346e-02 5.591244e-02 5.494205e-02 5.034473e-02 4.997221e-02 5.007597e-02 5.000660e-02 5.011152e-02 5.005155e-02 5.006891e-02 5.011410e-02 4.994488e-02 5.056142e-02 5.545065e-02 5.675505e-02 5.866041e-02 5.957651e-02 6.046026e-02 6.091744e-02 6.150586e-02 6.150422e-02 6.216728e-02 6.179812e-02 6.265314e-02 6.198697e-02 6.298111e-02 6.208618e-02 6.313495e-02 6.215032e-02 6.322104e-02 6.229790e-02 6.333187e-02 6.255629e-02 6.349418e-02 6.295377e-02 6.377837e-02 6.351882e-02 6.417842e-02 6.418675e-02 6.467174e-02 6.501123e-02 6.548936e-02 6.636134e-02 6.714207e-02 6.879152e-02 7.028469e-02 7.329700e-02 7.573176e-02 7.702105e-02 7.208152e-02 7.381045e-02 7.233056e-02 6.832568e-02 7.021041e-02 6.597321e-02 6.507771e-02 6.669610e-02 6.033479e-02 6.226269e-02 6.003765e-02 5.644240e-02 5.756492e-02 5.501227e-02 5.761282e-02 5.846155e-02 6.005185e-02 6.028174e-02 6.158228e-02 6.131062e-02 6.236539e-02 6.182722e-02 6.274802e-02 6.217312e-02 6.297801e-02 6.250589e-02 6.312104e-02 6.283836e-02 6.315204e-02 6.310711e-02 6.302353e-02 6.330492e-02 6.284304e-02 6.355949e-02 6.274223e-02 6.387100e-02 6.266342e-02 6.408375e-02 6.252199e-02 6.415460e-02 6.242459e-02 6.419763e-02 6.247517e-02 6.417908e-02 6.258522e-02 6.401303e-02 6.276864e-02 6.379888e-02 6.311098e-02 6.358334e-02 6.353512e-02 6.329351e-02 6.390727e-02 6.292363e-02 6.421851e-02 6.263571e-02 6.455618e-02 6.257381e-02 6.490661e-02 6.279936e-02 6.530999e-02 6.353046e-02 6.610522e-02 6.517339e-02 6.896662e-02 6.913085e-02 5.569943e-02 4.971039e-02 4.417381e-02 4.292051e-02 
3.598970e-02 3.816551e-02 4.326158e-02 5.063967e-02 6.083859e-02 4.635335e-02 2.908430e-02 3.967303e-02 2.858242e-02 3.535827e-02 2.681223e-02 2.993412e-02 2.240506e-02 2.523444e-02 2.501196e-02 2.534201e-02 2.572958e-02 2.538612e-02 2.568605e-02 2.539627e-02 2.482856e-02 2.477205e-02 2.888552e-02 2.931752e-02 3.207168e-02 3.156446e-02 3.360634e-02 3.261744e-02 3.434830e-02 3.310740e-02 3.473087e-02 3.343602e-02 3.498777e-02 3.372909e-02 3.511622e-02 3.393791e-02 3.507238e-02 3.409525e-02 3.498592e-02 3.433408e-02 3.496448e-02 3.466415e-02 3.501560e-02 3.509665e-02 3.520866e-02 3.563932e-02 3.548485e-02 3.615037e-02 3.574209e-02 3.661706e-02 3.616730e-02 3.738245e-02 3.724062e-02 3.893218e-02 3.944322e-02 4.191872e-02 4.432235e-02 4.649321e-02 4.087278e-02 4.533021e-02 4.209491e-02 3.906286e-02 4.302989e-02 3.595534e-02 3.818251e-02 3.772885e-02 3.019313e-02 3.441556e-02 2.606568e-02 2.409892e-02 2.748987e-02 2.482085e-02 2.798796e-02 3.020208e-02 3.208596e-02 3.250469e-02 3.382683e-02 3.354387e-02 3.457060e-02 3.401747e-02 3.486568e-02 3.435112e-02 3.502781e-02 3.470695e-02 3.512894e-02 3.508583e-02 3.513001e-02 3.539145e-02 3.495689e-02 3.559560e-02 3.475236e-02 3.586567e-02 3.468582e-02 3.619936e-02 3.465575e-02 3.638296e-02 3.455716e-02 3.635752e-02 3.452893e-02 3.627496e-02 3.470711e-02 3.610310e-02 3.497535e-02 3.573440e-02 3.533646e-02 3.531935e-02 3.589736e-02 3.492799e-02 3.654587e-02 3.446562e-02 3.707893e-02 3.393866e-02 3.744932e-02 3.357401e-02 3.774625e-02 3.354591e-02 3.789211e-02 3.391329e-02 3.779144e-02 3.499068e-02 3.750495e-02 3.780787e-02 3.728406e-02 6.415980e-02 5.829924e-02 4.779847e-02 3.921212e-02 3.733091e-02 
9.272385e-03 1.207415e-02 1.731630e-02 2.747316e-02 2.931333e-02 2.389950e-02 2.611510e-02 2.016753e-02 2.507097e-02 1.993161e-02 2.374678e-02 1.985911e-02 2.208657e-02 2.282185e-02 2.507848e-02 2.555404e-02 2.540916e-02 2.662404e-02 2.447271e-02 2.613403e-02 2.174931e-02 2.263016e-02 2.048877e-02 2.286634e-02 2.062430e-02 2.288240e-02 2.093389e-02 2.278711e-02 2.128093e-02 2.262400e-02 2.162859e-02 2.246181e-02 2.197610e-02 2.231212e-02 2.227381e-02 2.216068e-02 2.248604e-02 2.202659e-02 2.264894e-02 2.195297e-02 2.279710e-02 2.195453e-02 2.294131e-02 2.204870e-02 2.310963e-02 2.225291e-02 2.328566e-02 2.254280e-02 2.347870e-02 2.292712e-02 2.380776e-02 2.354893e-02 2.451462e-02 2.467381e-02 2.591008e-02 2.677323e-02 2.900418e-02 2.978099e-02 2.670730e-02 2.869162e-02 2.737945e-02 2.470481e-02 2.754181e-02 2.288565e-02 2.408692e-02 2.403705e-02 1.911674e-02 2.186266e-02 1.723349e-02 1.566434e-02 1.783718e-02 1.566188e-02 1.771913e-02 1.892688e-02 2.008544e-02 2.047007e-02 2.120166e-02 2.121790e-02 2.176876e-02 2.156999e-02 2.206319e-02 2.176319e-02 2.225696e-02 2.191929e-02 2.239082e-02 2.206058e-02 2.244124e-02 2.217201e-02 2.239522e-02 2.224322e-02 2.231668e-02 2.233553e-02 2.225309e-02 2.248421e-02 2.216324e-02 2.262253e-02 2.202706e-02 2.272421e-02 2.189888e-02 2.286245e-02 2.181691e-02 2.301151e-02 2.174313e-02 2.312043e-02 2.167168e-02 2.323880e-02 2.165298e-02 2.333678e-02 2.169139e-02 2.333406e-02 2.173959e-02 2.323893e-02 2.178646e-02 2.311334e-02 2.193468e-02 2.297501e-02 2.225185e-02 2.282118e-02 2.284042e-02 2.267035e-02 2.420928e-02 2.252924e-02 3.019129e-02 2.116311e-02 3.743531e-02 2.156688e-02 1.550732e-02 1.001087e-02 
8.474851e-03 7.671176e-03 6.171468e-03 6.647316e-03 8.654045e-03 2.526481e-02 5.600638e-03 1.281366e-02 4.519343e-03 9.437098e-03 1.083507e-03 6.834430e-03 8.728005e-03 1.522665e-02 1.812422e-02 1.927293e-02 1.938592e-02 2.046427e-02 1.833436e-02 1.774245e-02 1.561688e-02 6.360144e-03 2.584054e-03 3.360354e-03 5.332374e-03 6.840305e-03 8.217870e-03 8.430185e-03 9.639926e-03 9.025797e-03 1.041199e-02 9.298235e-03 1.093597e-02 9.487894e-03 1.125682e-02 9.584300e-03 1.134395e-02 9.631338e-03 1.133433e-02 9.769225e-03 1.133423e-02 1.000872e-02 1.134591e-02 1.035059e-02 1.142524e-02 1.078488e-02 1.149082e-02 1.112953e-02 1.139286e-02 1.128200e-02 1.121202e-02 1.143232e-02 1.123940e-02 1.183222e-02 1.167007e-02 1.289169e-02 1.317689e-02 1.416096e-02 1.181191e-02 1.403696e-02 1.393501e-02 1.219653e-02 1.391479e-02 1.264725e-02 1.284990e-02 1.507381e-02 1.017959e-02 1.237378e-02 1.298283e-02 7.622868e-03 9.608409e-03 8.558139e-03 1.182738e-02 1.080191e-02 1.197009e-02 1.090093e-02 1.221245e-02 1.091659e-02 1.217532e-02 1.081211e-02 1.203959e-02 1.082537e-02 1.196616e-02 1.102381e-02 1.193021e-02 1.134133e-02 1.182910e-02 1.163866e-02 1.155700e-02 1.186176e-02 1.124944e-02 1.217157e-02 1.107679e-02 1.256776e-02 1.094582e-02 1.282642e-02 1.075660e-02 1.288223e-02 1.065690e-02 1.289112e-02 1.078605e-02 1.280454e-02 1.102142e-02 1.250409e-02 1.135908e-02 1.214099e-02 1.190979e-02 1.176902e-02 1.256530e-02 1.127706e-02 1.311533e-02 1.067435e-02 1.351108e-02 1.019135e-02 1.385607e-02 9.997996e-03 1.407504e-02 1.014506e-02 1.406208e-02 1.093903e-02 1.391120e-02 1.401047e-02 1.785408e-02 1.779694e-02 9.377885e-03 3.899392e-03 7.550802e-03 7.282331e-03 
1.796752e-03 1.254487e-03 1.744962e-03 2.222500e-03 3.212180e-03 6.667487e-03 7.467023e-03 4.983944e-03 6.293283e-03 8.744170e-03 1.014663e-02 1.797515e-02 2.180799e-02 2.270132e-02 1.183185e-02 6.720519e-03 3.222978e-03 4.180366e-03 6.855355e-03 1.123984e-02 2.263457e-02 2.313447e-02 1.574011e-02 1.071434e-02 6.635994e-03 4.577973e-03 2.864889e-03 2.316582e-03 1.249746e-03 1.747035e-03 5.257740e-04 1.652753e-03 2.154510e-04 1.575439e-03 1.459778e-04 1.487974e-03 1.041778e-04 1.383637e-03 1.259049e-04 1.209270e-03 1.946196e-04 9.743557e-04 2.450046e-04 7.011738e-04 2.455043e-04 4.405108e-04 2.436706e-04 3.418351e-04 4.087879e-04 3.669246e-04 6.965031e-04 4.187418e-04 1.048654e-03 6.271194e-04 1.664441e-03 1.827415e-03 3.807186e-03 2.959887e-03 1.549654e-03 2.684929e-03 3.274793e-03 7.284394e-04 3.272572e-03 2.661809e-03 1.788653e-03 4.808164e-03 1.768661e-03 2.388479e-03 5.722782e-03 3.146593e-03 2.456397e-03 2.733849e-03 3.292071e-03 1.325805e-03 1.492812e-03 2.991165e-04 1.215618e-03 4.444643e-05 1.052601e-03 1.098036e-04 9.024580e-04 1.522834e-04 7.951399e-04 2.219386e-04 7.103261e-04 4.430343e-04 5.915008e-04 7.092834e-04 4.022693e-04 9.436277e-04 2.687748e-04 1.203465e-03 2.560674e-04 1.483193e-03 2.510307e-04 1.667552e-03 3.011544e-04 1.710385e-03 3.193582e-04 1.658275e-03 2.733829e-04 1.491326e-03 4.092051e-04 1.181911e-03 7.389939e-04 8.511552e-04 1.245372e-03 6.206162e-04 1.839037e-03 6.531878e-04 2.363009e-03 9.922396e-04 2.737491e-03 1.328549e-03 2.950927e-03 1.475186e-03 2.897474e-03 1.489901e-03 2.396674e-03 1.754380e-03 1.175667e-03 3.597903e-03 4.261608e-03 6.401675e-03 1.406434e-03 1.800852e-03 2.261387e-03 5.460646e-04 
