# vtk DataFile Version 2.0
Comment goes here
ASCII

DATASET STRUCTURED_POINTS
FIELD FieldData 1
TIME 1 1 double
0.12000000
DIMENSIONS    128   16   1

ORIGIN    0.000   0.000   0.000
SPACING   0.0078125 0.015625   1.000

POINT_DATA   2048
SCALARS uMag double
LOOKUP_TABLE default

7.440106e-03 3.427943e-03 6.280622e-03 6.730846e-04 4.745820e-03 2.185780e-03 1.076860e-02 1.238284e-03 5.430630e-03 4.201086e-03 2.550885e-03 1.258216e-02 1.929824e-02 3.468545e-02 4.294230e-02 4.534934e-02 4.957765e-02 4.799717e-02 4.700928e-02 4.132437e-02 3.569941e-02 1.787569e-02 1.252714e-02 3.272813e-03 3.149178e-03 2.359749e-03 7.848771e-04 4.577444e-03 2.472315e-03 5.492539e-03 3.276882e-03 5.731937e-03 3.732124e-03 5.761021e-03 3.923614e-03 5.751136e-03 4.147016e-03 5.552632e-03 4.374476e-03 5.285993e-03 4.406687e-03 4.894676e-03 4.397252e-03 4.591390e-03 4.333795e-03 4.265719e-03 4.295263e-03 4.117609e-03 4.416957e-03 4.107954e-03 4.365630e-03 3.773683e-03 3.903843e-03 3.313201e-03 3.408095e-03 2.912587e-03 3.457567e-03 3.006848e-03 2.312186e-03 2.725936e-03 2.539847e-03 2.128791e-03 2.327693e-03 1.390805e-03 1.597569e-03 2.794246e-03 3.194922e-03 4.440099e-03 5.028679e-03 5.391726e-03 4.538726e-03 3.521703e-03 3.936473e-03 5.533501e-03 4.698239e-03 5.292924e-03 4.078450e-03 4.699397e-03 3.499201e-03 4.394201e-03 3.298525e-03 4.206602e-03 3.110025e-03 4.039829e-03 3.158750e-03 3.934768e-03 3.196279e-03 3.731779e-03 3.502566e-03 3.565830e-03 3.659497e-03 3.251312e-03 3.996501e-03 3.130853e-03 4.177626e-03 2.742783e-03 4.281501e-03 2.398114e-03 4.243366e-03 2.183335e-03 4.542219e-03 2.253296e-03 4.344633e-03 2.494959e-03 4.141813e-03 2.849425e-03 3.572267e-03 3.388186e-03 2.940008e-03 3.940493e-03 2.241335e-03 4.528392e-03 1.576167e-03 5.013719e-03 1.042585e-03 5.838273e-03 4.680109e-04 6.638490e-03 8.243366e-04 6.654161e-03 2.511057e-03 6.658595e-03 6.401158e-03 1.087189e-03 6.258182e-03 2.995401e-03 7.332402e-03 4.151186e-03 
3.263596e-03 1.117730e-03 3.223188e-03 3.146309e-03 3.172383e-03 9.299670e-03 8.542539e-03 5.950987e-03 4.948592e-03 7.948063e-03 8.367206e-03 1.668826e-02 2.254392e-02 2.365094e-02 1.068932e-02 7.098714e-03 2.676233e-03 4.074264e-03 6.910224e-03 1.171326e-02 2.360652e-02 2.331231e-02 1.481404e-02 9.166478e-03 5.616511e-03 4.039781e-03 2.230393e-03 2.153726e-03 1.111798e-03 1.698566e-03 6.446612e-04 1.789523e-03 5.576463e-04 1.898619e-03 5.702628e-04 1.951955e-03 5.879754e-04 1.662105e-03 8.737611e-04 1.499995e-03 1.066046e-03 1.157405e-03 1.146611e-03 1.009738e-03 1.275900e-03 9.005062e-04 1.096922e-03 5.640256e-04 1.127006e-03 8.917975e-04 1.770903e-03 1.511869e-03 2.332477e-03 2.311914e-03 3.336192e-03 3.555803e-03 4.966371e-03 5.655970e-03 3.808336e-03 2.891401e-03 3.571621e-03 2.874050e-03 3.799305e-03 3.721757e-03 3.659692e-03 4.450027e-03 3.878001e-03 4.141263e-03 7.550347e-03 4.612644e-03 2.771692e-03 6.139490e-03 7.426161e-03 4.729384e-03 4.362908e-03 2.876313e-03 2.704819e-03 1.820424e-03 1.714146e-03 7.051268e-04 9.826345e-04 3.322871e-04 8.032845e-04 1.687840e-04 4.403162e-04 2.838745e-04 6.075838e-04 2.704001e-04 3.008518e-04 2.039438e-04 6.373684e-04 6.448610e-04 4.671671e-04 6.017102e-04 5.906810e-04 1.216299e-03 6.307016e-04 1.377515e-03 6.809086e-04 1.694974e-03 1.227318e-03 1.423255e-03 8.510582e-04 1.220992e-03 7.979052e-04 1.439483e-03 6.596175e-04 7.509618e-04 8.242171e-04 7.687470e-04 1.395273e-03 1.012865e-03 1.939284e-03 1.208016e-03 2.381150e-03 2.448797e-03 3.369551e-03 3.513257e-03 2.920969e-03 3.822104e-03 1.421905e-03 5.050798e-03 5.698870e-03 5.937181e-03 3.259713e-03 1.466466e-03 3.607416e-03 5.406388e-04 
1.025275e-02 8.076068e-03 8.657051e-03 6.416510e-03 9.725505e-03 2.506847e-02 9.480712e-03 1.444384e-02 3.474611e-03 1.017872e-02 1.350885e-03 1.003729e-02 1.018935e-02 1.602725e-02 1.953898e-02 1.981460e-02 2.078387e-02 2.159369e-02 1.944926e-02 1.882504e-02 1.687503e-02 8.661848e-03 5.375262e-03 1.482105e-03 5.402820e-03 4.899208e-03 8.183535e-03 6.780691e-03 9.475042e-03 7.413896e-03 9.974176e-03 7.837093e-03 1.007170e-02 7.732333e-03 9.866820e-03 7.786796e-03 9.954618e-03 8.351406e-03 9.871693e-03 8.440643e-03 9.602586e-03 8.652095e-03 9.483785e-03 8.727712e-03 9.412475e-03 9.364896e-03 9.879610e-03 9.664564e-03 9.421451e-03 9.317449e-03 8.760638e-03 8.842845e-03 8.273276e-03 8.213771e-03 7.680972e-03 8.014173e-03 8.104527e-03 9.052348e-03 6.638540e-03 6.231410e-03 5.723747e-03 4.685103e-03 4.386010e-03 4.492555e-03 3.809005e-03 5.394082e-03 6.202885e-03 6.243086e-03 9.567746e-03 1.273148e-02 1.529504e-02 9.849354e-03 1.073918e-02 1.170022e-02 1.293517e-02 1.187240e-02 1.199934e-02 1.011538e-02 1.084651e-02 9.668633e-03 1.140276e-02 1.024091e-02 1.146809e-02 9.796570e-03 1.077618e-02 9.370168e-03 1.061498e-02 9.817910e-03 1.067240e-02 1.019394e-02 1.037844e-02 1.011791e-02 9.780940e-03 1.068374e-02 1.014823e-02 1.152668e-02 9.787703e-03 1.147355e-02 9.257191e-03 1.148076e-02 9.050840e-03 1.125345e-02 8.818899e-03 1.125551e-02 9.465319e-03 1.179645e-02 1.034803e-02 1.126193e-02 1.040940e-02 1.058368e-02 1.115578e-02 1.041209e-02 1.195311e-02 9.504883e-03 1.270387e-02 8.989992e-03 1.339140e-02 8.264730e-03 1.412728e-02 8.942736e-03 1.512408e-02 1.097159e-02 2.390925e-02 1.391624e-02 1.061016e-02 4.257801e-03 9.874302e-03 8.233741e-03 
9.490095e-03 1.236451e-02 1.681085e-02 2.472878e-02 3.568891e-02 1.500305e-02 2.763782e-02 2.011446e-02 2.298701e-02 2.078324e-02 2.086690e-02 2.123320e-02 1.844564e-02 2.357953e-02 2.149128e-02 2.551765e-02 2.238303e-02 2.584675e-02 2.177244e-02 2.477729e-02 2.049153e-02 2.023704e-02 2.013221e-02 2.129541e-02 1.989318e-02 2.125731e-02 2.047772e-02 2.076408e-02 2.095567e-02 2.065370e-02 2.103983e-02 2.059713e-02 2.170600e-02 2.078108e-02 2.197211e-02 2.111490e-02 2.212217e-02 2.122633e-02 2.242715e-02 2.128956e-02 2.222604e-02 2.105413e-02 2.202127e-02 2.086832e-02 2.176764e-02 2.089254e-02 2.149133e-02 2.081438e-02 2.145560e-02 2.127310e-02 2.155111e-02 2.137777e-02 2.173179e-02 2.211168e-02 2.233621e-02 2.283933e-02 2.267256e-02 2.290212e-02 2.183836e-02 2.231278e-02 2.195589e-02 2.216522e-02 2.209339e-02 2.214548e-02 2.157459e-02 2.236784e-02 2.226375e-02 2.271098e-02 2.331049e-02 2.271391e-02 2.155652e-02 1.974346e-02 1.939366e-02 1.925984e-02 1.995970e-02 2.018287e-02 2.089733e-02 1.995736e-02 2.030230e-02 1.997707e-02 2.147328e-02 2.090274e-02 2.168623e-02 2.082895e-02 2.157859e-02 2.065307e-02 2.125826e-02 2.057544e-02 2.192950e-02 2.103742e-02 2.136070e-02 2.032637e-02 2.129985e-02 2.136662e-02 2.130309e-02 2.152976e-02 2.117453e-02 2.149075e-02 2.056128e-02 2.106908e-02 2.132044e-02 2.140693e-02 2.037831e-02 2.169395e-02 2.126498e-02 2.215691e-02 2.073972e-02 2.277270e-02 2.045954e-02 2.293645e-02 2.039098e-02 2.306422e-02 2.072309e-02 2.187862e-02 2.129775e-02 2.239972e-02 1.989018e-02 2.324830e-02 2.090745e-02 2.190460e-02 2.332186e-02 2.226850e-02 2.939319e-02 3.758785e-02 3.732196e-02 1.470986e-02 1.204400e-02 9.645870e-03 
3.223936e-02 3.612301e-02 3.785742e-02 4.756256e-02 5.796833e-02 5.446344e-02 2.659145e-02 3.830616e-02 2.621226e-02 3.348477e-02 2.456144e-02 2.882913e-02 1.839215e-02 2.259896e-02 2.151018e-02 2.239392e-02 2.256503e-02 2.205476e-02 2.259782e-02 2.172326e-02 2.225095e-02 2.028959e-02 2.706981e-02 2.571697e-02 3.052603e-02 2.902669e-02 3.230474e-02 3.100670e-02 3.294522e-02 3.168856e-02 3.325843e-02 3.202918e-02 3.284318e-02 3.175584e-02 3.239919e-02 3.159309e-02 3.243640e-02 3.209493e-02 3.218875e-02 3.215416e-02 3.203852e-02 3.252065e-02 3.213844e-02 3.275375e-02 3.237565e-02 3.357365e-02 3.333915e-02 3.417645e-02 3.313853e-02 3.379700e-02 3.275506e-02 3.368739e-02 3.271432e-02 3.331688e-02 3.261817e-02 3.379626e-02 3.374341e-02 3.333559e-02 3.174122e-02 3.193282e-02 3.141749e-02 3.111988e-02 2.990065e-02 3.170361e-02 3.026278e-02 3.218964e-02 3.326168e-02 3.249493e-02 3.590876e-02 3.631646e-02 3.318477e-02 3.043594e-02 3.052279e-02 3.122389e-02 3.198408e-02 3.221517e-02 3.248804e-02 3.241976e-02 3.283399e-02 3.294323e-02 3.356184e-02 3.351149e-02 3.379434e-02 3.327022e-02 3.325254e-02 3.302324e-02 3.338729e-02 3.361005e-02 3.324136e-02 3.386875e-02 3.326727e-02 3.413566e-02 3.287103e-02 3.415148e-02 3.331938e-02 3.495212e-02 3.300514e-02 3.489023e-02 3.274780e-02 3.496278e-02 3.208526e-02 3.451704e-02 3.235364e-02 3.444716e-02 3.259822e-02 3.465205e-02 3.375815e-02 3.379411e-02 3.399832e-02 3.304273e-02 3.481239e-02 3.298874e-02 3.567530e-02 3.283920e-02 3.596645e-02 3.192591e-02 3.763950e-02 3.127470e-02 3.854437e-02 3.271206e-02 3.894725e-02 3.446810e-02 3.956099e-02 6.891532e-02 4.912631e-02 4.143077e-02 3.339960e-02 3.476990e-02 
3.734458e-02 3.944987e-02 4.077116e-02 4.573547e-02 5.270165e-02 6.426308e-02 5.891794e-02 6.008117e-02 5.470693e-02 5.709568e-02 5.200001e-02 5.389614e-02 4.661768e-02 4.642761e-02 4.618093e-02 4.633005e-02 4.631622e-02 4.625589e-02 4.634240e-02 4.614703e-02 4.631794e-02 4.661564e-02 5.166129e-02 5.182769e-02 5.433544e-02 5.455879e-02 5.651116e-02 5.593827e-02 5.764111e-02 5.656669e-02 5.804181e-02 5.683984e-02 5.833878e-02 5.687627e-02 5.828797e-02 5.705657e-02 5.832955e-02 5.737296e-02 5.838960e-02 5.744082e-02 5.810683e-02 5.745389e-02 5.795533e-02 5.741336e-02 5.775152e-02 5.770085e-02 5.791333e-02 5.781910e-02 5.758695e-02 5.762520e-02 5.703465e-02 5.711752e-02 5.645996e-02 5.657548e-02 5.559614e-02 5.550570e-02 5.402541e-02 5.491727e-02 5.651910e-02 5.668629e-02 5.757606e-02 5.895627e-02 5.783539e-02 5.975711e-02 5.887087e-02 5.981579e-02 6.066596e-02 6.038013e-02 6.173282e-02 6.123371e-02 6.171090e-02 6.366768e-02 6.284626e-02 6.102930e-02 6.106065e-02 6.015850e-02 6.027594e-02 5.890926e-02 5.916389e-02 5.844112e-02 5.973919e-02 5.901900e-02 5.969291e-02 5.854100e-02 5.912752e-02 5.818098e-02 5.878858e-02 5.833311e-02 5.908982e-02 5.875242e-02 5.865241e-02 5.835450e-02 5.832816e-02 5.913374e-02 5.846372e-02 5.963773e-02 5.826011e-02 5.957280e-02 5.764295e-02 5.932299e-02 5.781419e-02 5.932575e-02 5.728158e-02 5.940075e-02 5.806061e-02 5.971162e-02 5.830271e-02 5.972325e-02 5.828228e-02 5.928815e-02 5.880317e-02 5.926918e-02 5.946972e-02 5.831447e-02 6.011707e-02 5.812149e-02 6.006596e-02 5.837632e-02 6.130431e-02 5.824088e-02 6.308024e-02 5.960655e-02 6.598715e-02 6.270429e-02 4.699961e-02 4.435627e-02 3.894877e-02 3.909666e-02 
4.831778e-02 5.039154e-02 4.994454e-02 5.350916e-02 5.431910e-02 6.032073e-02 6.286501e-02 6.414145e-02 6.219657e-02 6.475548e-02 6.274683e-02 6.632486e-02 6.492254e-02 6.355966e-02 6.328172e-02 6.347029e-02 6.344005e-02 6.336560e-02 6.350545e-02 6.328338e-02 6.351060e-02 6.452206e-02 6.493265e-02 6.349700e-02 6.356146e-02 6.300382e-02 6.352028e-02 6.277629e-02 6.364300e-02 6.273999e-02 6.363395e-02 6.271252e-02 6.378912e-02 6.277804e-02 6.380159e-02 6.293362e-02 6.376084e-02 6.303783e-02 6.380859e-02 6.316530e-02 6.368917e-02 6.320878e-02 6.359892e-02 6.329506e-02 6.349852e-02 6.341581e-02 6.341240e-02 6.351514e-02 6.340290e-02 6.371910e-02 6.339779e-02 6.377948e-02 6.344537e-02 6.401758e-02 6.355040e-02 6.400901e-02 6.354618e-02 6.465367e-02 6.371642e-02 6.436481e-02 6.375731e-02 6.455632e-02 6.421601e-02 6.425135e-02 6.426325e-02 6.451842e-02 6.412841e-02 6.506110e-02 6.427742e-02 6.509901e-02 6.591732e-02 6.516830e-02 6.499010e-02 6.499372e-02 6.490369e-02 6.463358e-02 6.457896e-02 6.397089e-02 6.404023e-02 6.366967e-02 6.425639e-02 6.387954e-02 6.425864e-02 6.380547e-02 6.415813e-02 6.377980e-02 6.396281e-02 6.382091e-02 6.412099e-02 6.408601e-02 6.385452e-02 6.397401e-02 6.375203e-02 6.447925e-02 6.363747e-02 6.465417e-02 6.353822e-02 6.472561e-02 6.322794e-02 6.461235e-02 6.341696e-02 6.472251e-02 6.311915e-02 6.476590e-02 6.352323e-02 6.480406e-02 6.350544e-02 6.491097e-02 6.363041e-02 6.473127e-02 6.387940e-02 6.453562e-02 6.419701e-02 6.389475e-02 6.456183e-02 6.375961e-02 6.416127e-02 6.378779e-02 6.432577e-02 6.309820e-02 6.444821e-02 6.304408e-02 6.427703e-02 5.853059e-02 5.431893e-02 5.272830e-02 4.975022e-02 5.008429e-02 
4.793999e-02 4.927060e-02 4.949900e-02 5.206514e-02 5.318221e-02 5.657933e-02 5.786538e-02 6.026502e-02 6.120022e-02 6.307587e-02 6.564032e-02 6.742141e-02 7.432111e-02 7.410923e-02 7.401400e-02 7.408910e-02 7.406162e-02 7.405731e-02 7.409228e-02 7.402352e-02 7.410680e-02 7.424850e-02 6.837149e-02 6.714550e-02 6.433665e-02 6.349853e-02 6.239502e-02 6.152444e-02 6.144251e-02 6.047284e-02 6.097114e-02 5.991909e-02 6.074868e-02 5.964702e-02 6.060278e-02 5.955567e-02 6.050449e-02 5.956550e-02 6.042851e-02 5.961302e-02 6.032537e-02 5.967695e-02 6.022928e-02 5.975725e-02 6.013241e-02 5.986326e-02 6.006125e-02 5.995908e-02 5.998163e-02 6.005426e-02 5.995200e-02 6.019909e-02 6.006686e-02 6.047681e-02 6.030167e-02 6.072687e-02 6.052213e-02 6.075984e-02 6.034105e-02 6.065720e-02 5.999075e-02 6.057334e-02 6.038582e-02 6.042370e-02 6.071975e-02 6.083928e-02 6.080096e-02 6.146984e-02 6.105865e-02 6.137552e-02 6.204799e-02 6.120042e-02 6.148282e-02 6.160359e-02 6.197937e-02 6.146040e-02 6.170535e-02 6.094858e-02 6.134626e-02 6.063655e-02 6.124407e-02 6.055605e-02 6.114890e-02 6.047292e-02 6.101239e-02 6.044496e-02 6.088278e-02 6.050878e-02 6.080380e-02 6.063265e-02 6.063423e-02 6.072580e-02 6.047668e-02 6.095311e-02 6.035840e-02 6.114819e-02 6.023015e-02 6.125152e-02 6.007816e-02 6.128204e-02 6.003142e-02 6.130353e-02 5.997728e-02 6.130897e-02 6.010472e-02 6.129408e-02 6.023649e-02 6.120514e-02 6.039313e-02 6.098516e-02 6.061808e-02 6.069461e-02 6.083575e-02 6.025271e-02 6.095333e-02 5.980388e-02 6.080171e-02 5.925409e-02 6.042967e-02 5.835736e-02 5.945114e-02 5.706511e-02 5.732793e-02 5.453703e-02 5.241272e-02 5.092472e-02 4.899667e-02 4.888991e-02 
5.262141e-02 5.409424e-02 5.370672e-02 5.623060e-02 5.668454e-02 5.975515e-02 6.101534e-02 6.325362e-02 6.437623e-02 6.613149e-02 6.864566e-02 7.004949e-02 7.719040e-02 7.737874e-02 7.724807e-02 7.734703e-02 7.731900e-02 7.729732e-02 7.737423e-02 7.725804e-02 7.740169e-02 7.724020e-02 7.146736e-02 7.043710e-02 6.782716e-02 6.698172e-02 6.595957e-02 6.512642e-02 6.503287e-02 6.418785e-02 6.461240e-02 6.374085e-02 6.443322e-02 6.356495e-02 6.432470e-02 6.353326e-02 6.425702e-02 6.356717e-02 6.421266e-02 6.364569e-02 6.416260e-02 6.374557e-02 6.410688e-02 6.385425e-02 6.403163e-02 6.394889e-02 6.395848e-02 6.404317e-02 6.390497e-02 6.414774e-02 6.388996e-02 6.427192e-02 6.392491e-02 6.440697e-02 6.395161e-02 6.444870e-02 6.395521e-02 6.451931e-02 6.397372e-02 6.458674e-02 6.407834e-02 6.454106e-02 6.415101e-02 6.460925e-02 6.413072e-02 6.468493e-02 6.423975e-02 6.445622e-02 6.434581e-02 6.434402e-02 6.425733e-02 6.431413e-02 6.446417e-02 6.471010e-02 6.488855e-02 6.473281e-02 6.482826e-02 6.449546e-02 6.468717e-02 6.434042e-02 6.464001e-02 6.429496e-02 6.460171e-02 6.429623e-02 6.456678e-02 6.435593e-02 6.451837e-02 6.444664e-02 6.446005e-02 6.454874e-02 6.433561e-02 6.465125e-02 6.421924e-02 6.481386e-02 6.411105e-02 6.496431e-02 6.401493e-02 6.507994e-02 6.392340e-02 6.514144e-02 6.389451e-02 6.516661e-02 6.385496e-02 6.516301e-02 6.388817e-02 6.513044e-02 6.396366e-02 6.505634e-02 6.408312e-02 6.489274e-02 6.422566e-02 6.464586e-02 6.435046e-02 6.430291e-02 6.437662e-02 6.391105e-02 6.417006e-02 6.336078e-02 6.369236e-02 6.241227e-02 6.265796e-02 6.086184e-02 6.060489e-02 5.810408e-02 5.659544e-02 5.530606e-02 5.365511e-02 5.378897e-02 
4.793423e-02 4.925991e-02 4.947862e-02 5.204578e-02 5.315051e-02 5.655740e-02 5.783103e-02 6.026281e-02 6.121394e-02 6.310442e-02 6.566071e-02 6.746017e-02 7.430913e-02 7.409714e-02 7.400887e-02 7.408432e-02 7.405984e-02 7.405443e-02 7.409512e-02 7.402997e-02 7.411901e-02 7.424311e-02 6.835703e-02 6.713799e-02 6.438693e-02 6.352625e-02 6.244055e-02 6.155045e-02 6.144492e-02 6.048720e-02 6.100201e-02 5.996455e-02 6.081988e-02 5.974321e-02 6.067668e-02 5.964821e-02 6.056293e-02 5.963441e-02 6.049359e-02 5.972208e-02 6.048103e-02 5.988688e-02 6.047695e-02 6.005726e-02 6.042509e-02 6.017523e-02 6.035267e-02 6.027004e-02 6.028191e-02 6.036911e-02 6.030855e-02 6.058786e-02 6.047619e-02 6.086037e-02 6.063990e-02 6.100284e-02 6.057150e-02 6.106561e-02 6.063100e-02 6.078340e-02 6.063997e-02 6.067597e-02 6.042283e-02 6.072829e-02 6.037588e-02 6.080442e-02 6.052963e-02 6.061738e-02 6.078240e-02 6.053953e-02 6.073986e-02 6.048449e-02 6.055281e-02 6.019686e-02 6.052705e-02 6.007295e-02 6.053805e-02 6.000320e-02 6.060047e-02 6.002486e-02 6.069452e-02 6.008985e-02 6.075701e-02 6.018869e-02 6.081189e-02 6.035295e-02 6.083018e-02 6.050761e-02 6.075634e-02 6.060066e-02 6.058645e-02 6.071243e-02 6.043009e-02 6.085728e-02 6.029587e-02 6.105667e-02 6.022522e-02 6.126675e-02 6.016640e-02 6.138568e-02 6.011562e-02 6.138340e-02 6.005123e-02 6.132247e-02 6.002110e-02 6.122229e-02 6.013573e-02 6.110160e-02 6.033098e-02 6.089374e-02 6.054098e-02 6.059546e-02 6.075121e-02 6.024203e-02 6.089175e-02 5.980732e-02 6.083560e-02 5.924251e-02 6.046690e-02 5.841123e-02 5.946656e-02 5.710762e-02 5.739604e-02 5.457400e-02 5.245281e-02 5.094303e-02 4.901044e-02 4.889169e-02 
4.829645e-02 5.036026e-02 4.989835e-02 5.346025e-02 5.424769e-02 6.025530e-02 6.275717e-02 6.413560e-02 6.230696e-02 6.480574e-02 6.281012e-02 6.644082e-02 6.487392e-02 6.353044e-02 6.326567e-02 6.346169e-02 6.342672e-02 6.335332e-02 6.351995e-02 6.328583e-02 6.354135e-02 6.445870e-02 6.479746e-02 6.334768e-02 6.373800e-02 6.305707e-02 6.365474e-02 6.290018e-02 6.357673e-02 6.281211e-02 6.376368e-02 6.281146e-02 6.391026e-02 6.289464e-02 6.379268e-02 6.298699e-02 6.376585e-02 6.303221e-02 6.374680e-02 6.315450e-02 6.376776e-02 6.336186e-02 6.380413e-02 6.358624e-02 6.367208e-02 6.360378e-02 6.354710e-02 6.365477e-02 6.337912e-02 6.361618e-02 6.326757e-02 6.370450e-02 6.323601e-02 6.377044e-02 6.311198e-02 6.362468e-02 6.241205e-02 6.297571e-02 6.312184e-02 6.234347e-02 6.299206e-02 6.364830e-02 6.196601e-02 6.488854e-02 6.315681e-02 6.427950e-02 6.565363e-02 6.426528e-02 6.603804e-02 6.616590e-02 6.487449e-02 6.607529e-02 6.537493e-02 6.461378e-02 6.441063e-02 6.396614e-02 6.410282e-02 6.371240e-02 6.409157e-02 6.372430e-02 6.413104e-02 6.365679e-02 6.405413e-02 6.367146e-02 6.414262e-02 6.392069e-02 6.422247e-02 6.413551e-02 6.416853e-02 6.411982e-02 6.388938e-02 6.419733e-02 6.375866e-02 6.430610e-02 6.364067e-02 6.452265e-02 6.357614e-02 6.476231e-02 6.346915e-02 6.492602e-02 6.351467e-02 6.483690e-02 6.340122e-02 6.478570e-02 6.318617e-02 6.473302e-02 6.334909e-02 6.466929e-02 6.355243e-02 6.449700e-02 6.375377e-02 6.424916e-02 6.401830e-02 6.400894e-02 6.425083e-02 6.379683e-02 6.440423e-02 6.363852e-02 6.447225e-02 6.334409e-02 6.434469e-02 6.310431e-02 6.450420e-02 5.861163e-02 5.440152e-02 5.275375e-02 4.976534e-02 5.007588e-02 
3.731005e-02 3.940447e-02 4.069718e-02 4.565045e-02 5.256786e-02 6.410420e-02 5.867639e-02 6.001078e-02 5.486217e-02 5.725934e-02 5.220824e-02 5.414837e-02 4.654713e-02 4.638362e-02 4.618444e-02 4.633177e-02 4.630362e-02 4.621877e-02 4.632839e-02 4.614967e-02 4.636762e-02 4.670275e-02 5.158909e-02 5.173525e-02 5.467749e-02 5.476103e-02 5.673321e-02 5.599311e-02 5.739748e-02 5.639869e-02 5.799307e-02 5.685686e-02 5.868062e-02 5.739152e-02 5.864128e-02 5.744531e-02 5.840342e-02 5.732241e-02 5.828206e-02 5.755339e-02 5.855326e-02 5.811388e-02 5.884353e-02 5.855729e-02 5.876862e-02 5.860956e-02 5.858989e-02 5.854149e-02 5.814465e-02 5.820281e-02 5.809284e-02 5.881717e-02 5.899768e-02 5.976234e-02 5.973610e-02 6.064516e-02 6.115650e-02 6.183412e-02 6.042852e-02 6.140608e-02 5.968062e-02 5.904536e-02 5.939678e-02 5.734824e-02 5.763150e-02 5.769231e-02 5.518464e-02 5.587247e-02 5.427548e-02 5.350549e-02 5.451183e-02 5.413712e-02 5.491826e-02 5.505324e-02 5.592627e-02 5.590421e-02 5.699854e-02 5.676710e-02 5.782343e-02 5.732099e-02 5.832991e-02 5.759343e-02 5.848630e-02 5.775155e-02 5.879650e-02 5.833757e-02 5.914414e-02 5.874060e-02 5.904889e-02 5.853830e-02 5.849154e-02 5.859365e-02 5.825522e-02 5.857612e-02 5.791327e-02 5.893802e-02 5.812306e-02 5.968788e-02 5.823109e-02 5.999362e-02 5.818114e-02 5.977149e-02 5.793889e-02 5.951887e-02 5.742434e-02 5.921701e-02 5.772032e-02 5.931962e-02 5.826907e-02 5.911297e-02 5.856378e-02 5.865264e-02 5.906705e-02 5.846367e-02 5.981426e-02 5.821064e-02 6.035885e-02 5.816008e-02 6.143891e-02 5.854021e-02 6.297284e-02 5.975065e-02 6.638268e-02 6.294638e-02 4.713833e-02 4.442570e-02 3.896993e-02 3.909145e-02 
3.215732e-02 3.604072e-02 3.776059e-02 4.742250e-02 5.780901e-02 5.423723e-02 2.650611e-02 3.817489e-02 2.605516e-02 3.364437e-02 2.479333e-02 2.879244e-02 1.855208e-02 2.258089e-02 2.148484e-02 2.233759e-02 2.239454e-02 2.199390e-02 2.261132e-02 2.169456e-02 2.237575e-02 2.047279e-02 2.721146e-02 2.601903e-02 3.018843e-02 2.899642e-02 3.187268e-02 3.029493e-02 3.240298e-02 3.077295e-02 3.238840e-02 3.161449e-02 3.303874e-02 3.251591e-02 3.336371e-02 3.253748e-02 3.282896e-02 3.242568e-02 3.249273e-02 3.278088e-02 3.282982e-02 3.346314e-02 3.305621e-02 3.371465e-02 3.307111e-02 3.378592e-02 3.262846e-02 3.321991e-02 3.175981e-02 3.233912e-02 3.144853e-02 3.278103e-02 3.262374e-02 3.367254e-02 3.323123e-02 3.391361e-02 3.384069e-02 3.468436e-02 3.396019e-02 3.633430e-02 3.436749e-02 3.453406e-02 3.588949e-02 3.262122e-02 3.446165e-02 3.351659e-02 3.005169e-02 3.246375e-02 2.820393e-02 2.781277e-02 3.030520e-02 3.098312e-02 3.196622e-02 3.204926e-02 3.222103e-02 3.229699e-02 3.281894e-02 3.285901e-02 3.309770e-02 3.285935e-02 3.332909e-02 3.327791e-02 3.370440e-02 3.350190e-02 3.380528e-02 3.374574e-02 3.390492e-02 3.380008e-02 3.352454e-02 3.364610e-02 3.302414e-02 3.358816e-02 3.252354e-02 3.345906e-02 3.196644e-02 3.379271e-02 3.249351e-02 3.482448e-02 3.303374e-02 3.511200e-02 3.267028e-02 3.508198e-02 3.260264e-02 3.454320e-02 3.263452e-02 3.373678e-02 3.295829e-02 3.370027e-02 3.389352e-02 3.334286e-02 3.451190e-02 3.267049e-02 3.523337e-02 3.237801e-02 3.638787e-02 3.172925e-02 3.698165e-02 3.125672e-02 3.798677e-02 3.207953e-02 3.901661e-02 3.436775e-02 3.934615e-02 6.927963e-02 4.919873e-02 4.147486e-02 3.333949e-02 3.472367e-02 
9.393223e-03 1.231793e-02 1.675883e-02 2.466239e-02 3.555809e-02 1.499610e-02 2.733785e-02 2.017301e-02 2.307128e-02 2.093948e-02 2.094500e-02 2.151483e-02 1.835082e-02 2.323526e-02 2.138065e-02 2.532933e-02 2.217920e-02 2.564745e-02 2.163577e-02 2.444731e-02 1.987256e-02 2.007311e-02 1.975846e-02 2.091812e-02 2.054534e-02 2.153831e-02 2.106823e-02 2.136999e-02 2.102284e-02 2.108883e-02 2.158025e-02 2.088365e-02 2.197076e-02 2.072434e-02 2.149411e-02 2.064731e-02 2.146701e-02 2.038976e-02 2.151355e-02 2.033648e-02 2.168496e-02 2.051984e-02 2.179637e-02 2.083344e-02 2.155309e-02 2.076525e-02 2.150833e-02 2.098747e-02 2.132338e-02 2.072138e-02 2.104630e-02 2.098989e-02 2.110837e-02 2.104657e-02 2.083113e-02 2.099167e-02 2.115850e-02 2.174686e-02 2.123702e-02 2.265870e-02 2.134760e-02 2.121244e-02 2.226032e-02 2.009788e-02 2.144093e-02 2.102346e-02 1.903670e-02 2.081060e-02 1.831245e-02 1.835673e-02 1.996832e-02 2.024522e-02 2.095533e-02 2.072600e-02 2.106347e-02 2.065270e-02 2.132233e-02 2.087679e-02 2.177889e-02 2.123429e-02 2.195862e-02 2.100592e-02 2.162952e-02 2.082517e-02 2.183738e-02 2.132525e-02 2.213152e-02 2.176446e-02 2.220757e-02 2.156847e-02 2.177417e-02 2.158800e-02 2.182147e-02 2.158484e-02 2.178948e-02 2.172368e-02 2.186336e-02 2.197585e-02 2.144193e-02 2.212366e-02 2.156614e-02 2.180031e-02 2.127330e-02 2.186063e-02 2.049586e-02 2.207897e-02 2.050893e-02 2.246514e-02 2.055005e-02 2.247725e-02 2.046904e-02 2.249070e-02 2.045493e-02 2.269398e-02 2.064502e-02 2.278631e-02 2.092105e-02 2.315172e-02 2.169413e-02 2.294469e-02 2.336623e-02 2.271876e-02 3.019671e-02 3.786043e-02 3.740093e-02 1.464297e-02 1.194767e-02 9.547135e-03 
1.021300e-02 8.090095e-03 8.694720e-03 6.497132e-03 9.726538e-03 2.489165e-02 9.347994e-03 1.426933e-02 3.231700e-03 1.077742e-02 1.258523e-03 1.022862e-02 1.005480e-02 1.617470e-02 1.965737e-02 1.994799e-02 2.107735e-02 2.174343e-02 1.953651e-02 1.924582e-02 1.694164e-02 8.686063e-03 4.943087e-03 2.387549e-03 5.753227e-03 5.076496e-03 8.342100e-03 6.556609e-03 9.172337e-03 6.968010e-03 9.576578e-03 7.545862e-03 1.034765e-02 8.266150e-03 1.037593e-02 8.241597e-03 9.874945e-03 8.064364e-03 9.602379e-03 8.411431e-03 9.968162e-03 9.207439e-03 1.025858e-02 9.730955e-03 1.024911e-02 9.948438e-03 9.958491e-03 9.738622e-03 9.207434e-03 9.071468e-03 8.961217e-03 9.847817e-03 1.021858e-02 1.100873e-02 1.096396e-02 1.141012e-02 1.121530e-02 1.177105e-02 1.198379e-02 1.247135e-02 1.162281e-02 1.215557e-02 1.254718e-02 1.155479e-02 1.267530e-02 1.286287e-02 1.091121e-02 1.121452e-02 1.030436e-02 8.614783e-03 9.724371e-03 8.553248e-03 9.029411e-03 7.865267e-03 8.623833e-03 7.884846e-03 9.366282e-03 8.583977e-03 1.000331e-02 8.891442e-03 1.043103e-02 9.280355e-03 1.069892e-02 9.475651e-03 1.091518e-02 1.004340e-02 1.121376e-02 1.044044e-02 1.095713e-02 1.027649e-02 1.032483e-02 1.039323e-02 9.902704e-03 1.034727e-02 9.376387e-03 1.078236e-02 9.796779e-03 1.185571e-02 1.002689e-02 1.219625e-02 9.720996e-03 1.199663e-02 9.519856e-03 1.154467e-02 9.208729e-03 1.093324e-02 9.531355e-03 1.102735e-02 1.042607e-02 1.066152e-02 1.098943e-02 9.958735e-03 1.167251e-02 9.652513e-03 1.277978e-02 8.901695e-03 1.337416e-02 8.310900e-03 1.424895e-02 8.732312e-03 1.533859e-02 1.156938e-02 2.425203e-02 1.409683e-02 1.037851e-02 4.061465e-03 9.745298e-03 8.176440e-03 
3.258133e-03 1.201253e-03 3.271733e-03 3.183264e-03 3.241598e-03 9.195121e-03 8.539784e-03 5.917984e-03 5.151236e-03 8.255862e-03 8.400132e-03 1.685010e-02 2.274713e-02 2.363881e-02 1.075473e-02 7.190546e-03 2.697418e-03 4.132734e-03 6.612025e-03 1.132366e-02 2.363332e-02 2.331480e-02 1.463267e-02 9.591169e-03 5.814538e-03 4.041274e-03 2.363307e-03 2.148707e-03 8.157469e-04 1.994942e-03 1.964037e-04 1.777786e-03 4.922591e-04 1.543844e-03 3.215497e-04 1.605459e-03 5.579812e-04 1.578112e-03 8.458056e-04 1.280998e-03 7.601428e-04 8.116439e-04 6.176429e-04 6.106399e-04 5.809295e-04 7.273532e-04 9.634558e-04 8.750736e-04 1.272827e-03 8.094444e-04 1.170466e-03 2.248313e-04 3.172848e-04 9.049361e-04 9.856538e-04 2.129518e-03 2.088070e-03 2.806242e-03 2.932329e-03 2.016853e-03 2.512091e-03 3.263861e-03 2.105102e-03 4.117552e-03 2.901929e-03 4.404331e-03 4.241420e-03 3.078247e-03 5.004508e-03 2.080847e-03 7.795650e-04 1.988271e-03 1.902539e-03 2.009829e-03 1.229413e-03 1.386262e-03 9.524902e-04 9.435369e-04 7.432590e-04 5.665864e-04 4.545800e-04 1.789777e-04 7.222928e-04 6.779826e-05 6.624344e-04 2.039020e-04 5.930266e-04 3.994824e-04 2.689079e-04 4.876431e-04 2.970292e-05 6.679929e-04 4.757684e-04 6.415541e-04 9.084767e-04 8.747796e-04 9.163771e-04 1.509848e-03 5.745671e-04 1.698544e-03 8.374548e-04 1.711882e-03 9.101728e-04 1.350608e-03 8.238507e-04 7.790099e-04 4.828442e-04 7.165716e-04 7.326311e-04 7.164903e-04 1.349489e-03 1.103818e-03 1.951382e-03 1.599940e-03 2.669352e-03 2.337009e-03 2.945997e-03 3.294115e-03 2.742709e-03 3.818509e-03 1.658648e-03 5.149935e-03 5.878438e-03 5.967859e-03 3.157839e-03 1.370663e-03 3.547847e-03 4.918669e-04 
