# vtk DataFile Version 2.0
Comment goes here
ASCII

DATASET STRUCTURED_POINTS
FIELD FieldData 1
TIME 1 1 double
0.19000000
DIMENSIONS    128   16   1

ORIGIN    0.000   0.000   0.000
SPACING   0.0078125 0.015625   1.000

POINT_DATA   2048
SCALARS uMag double
LOOKUP_TABLE default

1.745901e-03 2.722536e-03 9.323009e-04 2.795033e-03 2.613381e-04 5.769047e-03 4.281727e-03 5.956294e-04 2.718127e-03 3.003500e-03 2.651073e-03 1.022090e-02 1.393800e-02 2.269529e-02 2.655624e-02 3.050268e-02 2.960468e-02 3.172702e-02 2.860235e-02 2.730931e-02 2.251622e-02 1.491231e-02 8.973828e-03 4.657460e-03 1.622007e-03 6.572414e-05 1.373468e-03 2.101802e-03 2.483990e-03 3.088551e-03 2.844593e-03 3.638418e-03 2.913916e-03 3.934585e-03 2.863535e-03 4.105720e-03 2.817339e-03 4.155752e-03 2.779533e-03 4.096519e-03 2.783110e-03 3.978153e-03 2.883152e-03 3.865023e-03 3.072559e-03 3.713065e-03 3.251668e-03 3.532760e-03 3.485342e-03 3.444076e-03 3.880810e-03 3.626042e-03 4.590940e-03 4.218746e-03 5.728940e-03 5.465241e-03 7.461662e-03 5.906566e-03 4.226277e-03 3.119303e-03 4.379915e-03 2.010136e-03 3.685213e-03 3.241955e-03 1.641185e-03 3.202811e-03 1.766570e-03 2.056225e-03 4.238199e-03 7.594590e-03 4.427814e-03 2.743222e-03 2.173097e-03 9.376190e-04 5.243507e-04 2.138240e-03 1.490540e-03 2.694377e-03 1.899764e-03 2.829958e-03 2.125099e-03 2.692875e-03 2.302002e-03 2.479320e-03 2.504301e-03 2.301200e-03 2.840254e-03 2.154867e-03 3.158073e-03 1.990358e-03 3.285894e-03 1.758667e-03 3.337476e-03 1.618480e-03 3.355624e-03 1.666493e-03 3.256905e-03 1.825358e-03 3.045943e-03 2.053507e-03 2.724440e-03 2.419740e-03 2.296076e-03 2.879551e-03 1.822255e-03 3.313812e-03 1.389622e-03 3.704272e-03 1.009123e-03 4.021025e-03 7.909803e-04 4.138190e-03 7.656585e-04 3.966387e-03 1.043234e-03 3.570411e-03 1.688522e-03 2.915133e-03 2.591822e-03 1.990185e-03 3.647804e-03 1.073576e-03 5.199333e-03 3.103318e-04 1.364012e-03 7.089167e-04 1.526921e-03 2.115055e-03 
6.652236e-04 1.005429e-03 1.421919e-03 6.775624e-04 4.623542e-03 5.589566e-03 5.970567e-03 2.092491e-03 5.093980e-03 5.730938e-03 7.797982e-03 1.153921e-02 1.279819e-02 1.267561e-02 8.968348e-03 3.509582e-03 4.383428e-03 2.849374e-03 5.514458e-03 6.710475e-03 1.242832e-02 1.364881e-02 1.032085e-02 7.530899e-03 4.797394e-03 3.206988e-03 2.173137e-03 1.402727e-03 9.750261e-04 8.134791e-04 4.782939e-04 8.156881e-04 3.659258e-04 8.498375e-04 5.407219e-04 8.896429e-04 5.591471e-04 9.780416e-04 5.433713e-04 8.945443e-04 6.785669e-04 5.981305e-04 6.987180e-04 5.108410e-04 3.814046e-04 4.787370e-04 2.280581e-04 3.577919e-04 1.311936e-04 6.491377e-04 4.138554e-04 1.191959e-03 8.027593e-04 1.453380e-03 7.961131e-04 1.673637e-03 2.450602e-03 6.174072e-03 6.499276e-03 4.701162e-03 3.222557e-03 5.425018e-03 5.137821e-03 4.567182e-03 4.954129e-03 8.128771e-03 4.508205e-03 8.315680e-03 1.561224e-02 4.081521e-03 2.064101e-02 1.217939e-02 1.574285e-03 2.602480e-03 2.182964e-03 1.952188e-03 1.637551e-03 1.192756e-03 1.189700e-03 6.158700e-04 1.067381e-03 6.203917e-04 1.143569e-03 9.881264e-04 1.078446e-03 1.198129e-03 5.041324e-04 1.068462e-03 1.704537e-04 1.137163e-03 4.340886e-04 1.606135e-03 2.952829e-04 1.788437e-03 3.256708e-05 1.646464e-03 1.234460e-04 1.538566e-03 3.947900e-04 1.399034e-03 7.964924e-04 1.003550e-03 1.181277e-03 5.197601e-04 1.509113e-03 3.951190e-04 1.891475e-03 6.354889e-04 2.354813e-03 8.134130e-04 2.591801e-03 9.052878e-04 2.691145e-03 7.227468e-04 2.424479e-03 6.709625e-04 1.826501e-03 7.737797e-04 1.332465e-03 1.693498e-03 1.069389e-03 3.082601e-03 2.558304e-03 5.537513e-03 2.636085e-03 1.751303e-03 1.590941e-03 2.632814e-04 
3.757978e-03 4.252018e-03 1.035206e-03 4.586571e-03 1.159892e-02 1.549309e-02 1.195224e-02 7.607644e-03 4.934006e-03 5.017541e-03 2.708656e-03 4.370558e-04 4.138916e-03 7.755867e-03 9.140328e-03 1.038589e-02 9.357947e-03 1.065214e-02 9.191493e-03 8.910317e-03 7.838519e-03 2.437488e-03 1.439228e-03 4.106236e-03 3.239794e-03 6.283980e-03 5.160504e-03 7.164594e-03 6.310897e-03 7.508424e-03 7.065350e-03 7.541193e-03 7.633133e-03 7.447577e-03 7.956536e-03 7.141447e-03 7.986158e-03 6.763149e-03 7.892559e-03 6.704625e-03 8.240823e-03 7.147817e-03 8.516558e-03 7.302971e-03 8.128596e-03 7.042769e-03 7.759592e-03 7.308847e-03 7.929695e-03 7.928399e-03 7.950215e-03 8.173997e-03 7.758193e-03 8.499606e-03 8.133741e-03 9.386143e-03 8.502224e-03 8.024929e-03 5.036373e-03 3.483940e-03 3.222738e-03 2.990482e-03 3.315393e-03 4.519820e-03 2.489355e-03 7.165241e-03 9.042026e-03 7.801476e-03 1.673364e-02 1.897484e-02 1.437130e-02 5.756373e-03 4.505115e-03 5.066422e-03 6.536533e-03 6.222379e-03 7.445799e-03 6.770412e-03 7.902719e-03 7.268403e-03 8.404531e-03 8.067619e-03 8.908275e-03 8.818350e-03 8.927145e-03 8.939479e-03 8.077100e-03 8.446563e-03 7.317791e-03 8.573350e-03 7.524892e-03 9.380671e-03 7.824799e-03 9.715033e-03 7.603330e-03 9.503672e-03 7.494169e-03 9.536967e-03 7.893217e-03 9.527277e-03 8.231224e-03 9.082085e-03 8.432654e-03 8.392534e-03 8.625442e-03 7.910652e-03 9.315790e-03 7.779751e-03 9.912148e-03 7.309922e-03 1.007764e-02 7.005577e-03 1.033057e-02 7.150236e-03 1.018059e-02 7.254110e-03 9.456629e-03 7.645826e-03 8.964337e-03 9.020449e-03 8.365535e-03 1.136498e-02 7.386623e-03 1.649785e-02 8.989320e-03 4.063619e-03 3.990372e-03 3.766717e-03 
5.727588e-03 7.711190e-03 1.102907e-02 2.019326e-02 1.207530e-02 2.416809e-02 1.597380e-02 1.223496e-02 1.746061e-02 1.121684e-02 1.758213e-02 1.107835e-02 1.773070e-02 1.335907e-02 1.911022e-02 1.572854e-02 1.877021e-02 1.691683e-02 1.767498e-02 1.749022e-02 1.515094e-02 1.622224e-02 1.318268e-02 1.586680e-02 1.312280e-02 1.571256e-02 1.307380e-02 1.553910e-02 1.318997e-02 1.536141e-02 1.335177e-02 1.521680e-02 1.363092e-02 1.490689e-02 1.367548e-02 1.450976e-02 1.377489e-02 1.417893e-02 1.376992e-02 1.395118e-02 1.402922e-02 1.391838e-02 1.417998e-02 1.389586e-02 1.424658e-02 1.364651e-02 1.400092e-02 1.343853e-02 1.399417e-02 1.337342e-02 1.365549e-02 1.308138e-02 1.310809e-02 1.229089e-02 1.214572e-02 1.124840e-02 1.096578e-02 1.113284e-02 1.224991e-02 1.156506e-02 1.269205e-02 1.266106e-02 1.269669e-02 1.377549e-02 1.347771e-02 1.427442e-02 1.545639e-02 1.499006e-02 1.570922e-02 1.437850e-02 1.719307e-02 1.553636e-02 1.603934e-02 1.554324e-02 1.552577e-02 1.506910e-02 1.518406e-02 1.466033e-02 1.468964e-02 1.445640e-02 1.469129e-02 1.445006e-02 1.483548e-02 1.454609e-02 1.457007e-02 1.462974e-02 1.443287e-02 1.440467e-02 1.421440e-02 1.439485e-02 1.419404e-02 1.459721e-02 1.422461e-02 1.474611e-02 1.412093e-02 1.484766e-02 1.390114e-02 1.505147e-02 1.403970e-02 1.512959e-02 1.408413e-02 1.513368e-02 1.400237e-02 1.512049e-02 1.387941e-02 1.520605e-02 1.423608e-02 1.522598e-02 1.435966e-02 1.499443e-02 1.428943e-02 1.480034e-02 1.445276e-02 1.450676e-02 1.469367e-02 1.427723e-02 1.487347e-02 1.386264e-02 1.555462e-02 1.375209e-02 1.645483e-02 1.391819e-02 1.815621e-02 1.305084e-02 2.400676e-02 1.857104e-02 1.228359e-02 6.815132e-03 
2.537983e-02 2.513520e-02 3.153538e-02 3.386168e-02 4.104167e-02 2.088883e-02 2.259787e-02 2.491186e-02 1.928509e-02 2.307164e-02 1.839110e-02 1.966652e-02 1.768157e-02 1.818911e-02 1.892162e-02 1.866046e-02 1.918539e-02 1.895767e-02 1.887254e-02 1.935478e-02 1.778700e-02 1.962002e-02 1.884595e-02 2.068210e-02 2.054616e-02 2.125525e-02 2.145507e-02 2.151890e-02 2.211674e-02 2.170483e-02 2.260767e-02 2.175838e-02 2.294259e-02 2.180025e-02 2.318639e-02 2.169747e-02 2.306142e-02 2.144381e-02 2.281452e-02 2.147750e-02 2.295791e-02 2.192196e-02 2.306148e-02 2.196079e-02 2.240962e-02 2.158563e-02 2.183865e-02 2.162468e-02 2.167632e-02 2.185964e-02 2.128989e-02 2.153631e-02 2.031387e-02 2.084887e-02 1.924706e-02 1.972243e-02 1.777138e-02 1.913516e-02 1.789035e-02 1.757910e-02 1.753786e-02 1.825647e-02 1.701201e-02 1.984521e-02 1.916588e-02 1.983453e-02 2.361243e-02 2.296943e-02 2.609080e-02 2.844464e-02 2.675890e-02 2.345133e-02 2.323832e-02 2.329803e-02 2.417243e-02 2.327695e-02 2.386767e-02 2.289908e-02 2.359376e-02 2.278045e-02 2.359946e-02 2.327207e-02 2.384907e-02 2.380638e-02 2.386902e-02 2.376905e-02 2.294023e-02 2.316725e-02 2.215218e-02 2.315143e-02 2.244748e-02 2.390871e-02 2.277444e-02 2.413908e-02 2.256136e-02 2.379392e-02 2.253580e-02 2.373080e-02 2.287056e-02 2.367577e-02 2.316151e-02 2.318078e-02 2.334980e-02 2.244421e-02 2.351729e-02 2.199365e-02 2.399991e-02 2.184264e-02 2.455995e-02 2.148855e-02 2.473112e-02 2.132702e-02 2.489172e-02 2.166850e-02 2.459137e-02 2.191709e-02 2.367480e-02 2.256036e-02 2.291521e-02 2.422794e-02 2.212836e-02 2.686590e-02 2.100198e-02 3.532265e-02 4.298392e-02 3.462313e-02 2.890802e-02 2.508630e-02 
3.021146e-02 3.126074e-02 3.436052e-02 3.881426e-02 4.585372e-02 4.823908e-02 4.204811e-02 4.183113e-02 4.081573e-02 3.928606e-02 3.857496e-02 3.593186e-02 3.505423e-02 3.449206e-02 3.488979e-02 3.460484e-02 3.480403e-02 3.475216e-02 3.465843e-02 3.491196e-02 3.445782e-02 3.506555e-02 3.692379e-02 3.935814e-02 3.931097e-02 4.120769e-02 4.047785e-02 4.203751e-02 4.130465e-02 4.243731e-02 4.190046e-02 4.260028e-02 4.240504e-02 4.255512e-02 4.262493e-02 4.231800e-02 4.266636e-02 4.200982e-02 4.258047e-02 4.188862e-02 4.279301e-02 4.212329e-02 4.296164e-02 4.214326e-02 4.265415e-02 4.178811e-02 4.213182e-02 4.168820e-02 4.191951e-02 4.169071e-02 4.137818e-02 4.109187e-02 4.021787e-02 3.990477e-02 3.857930e-02 3.822744e-02 3.672969e-02 3.840310e-02 3.946780e-02 4.049644e-02 4.108460e-02 4.238891e-02 4.215302e-02 4.344402e-02 4.336337e-02 4.309105e-02 4.426438e-02 4.328576e-02 4.277610e-02 4.317003e-02 4.455979e-02 4.560565e-02 4.629341e-02 4.511950e-02 4.526852e-02 4.419573e-02 4.444625e-02 4.342495e-02 4.374889e-02 4.310663e-02 4.358718e-02 4.330759e-02 4.375508e-02 4.368049e-02 4.363231e-02 4.362236e-02 4.302336e-02 4.322745e-02 4.247329e-02 4.335302e-02 4.247528e-02 4.388444e-02 4.275743e-02 4.415190e-02 4.261925e-02 4.406450e-02 4.247723e-02 4.412903e-02 4.276962e-02 4.412777e-02 4.293751e-02 4.383876e-02 4.296076e-02 4.338505e-02 4.306092e-02 4.306263e-02 4.366634e-02 4.296835e-02 4.406789e-02 4.266438e-02 4.417615e-02 4.245112e-02 4.439849e-02 4.246241e-02 4.441686e-02 4.241965e-02 4.403492e-02 4.266951e-02 4.387118e-02 4.375461e-02 4.407800e-02 4.539436e-02 4.489565e-02 4.879166e-02 4.258294e-02 3.606893e-02 3.251688e-02 3.049092e-02 
3.710956e-02 3.792664e-02 3.894024e-02 4.179582e-02 4.371092e-02 4.937124e-02 4.667349e-02 4.604070e-02 4.717381e-02 4.606182e-02 4.740094e-02 4.641007e-02 4.631188e-02 4.564222e-02 4.604462e-02 4.576191e-02 4.595191e-02 4.592057e-02 4.578466e-02 4.608668e-02 4.558095e-02 4.663656e-02 4.679729e-02 4.762094e-02 4.638039e-02 4.756621e-02 4.630185e-02 4.748393e-02 4.640461e-02 4.736622e-02 4.656575e-02 4.724172e-02 4.676772e-02 4.705099e-02 4.685773e-02 4.682557e-02 4.692689e-02 4.662822e-02 4.694140e-02 4.649020e-02 4.698329e-02 4.643794e-02 4.695968e-02 4.637129e-02 4.682614e-02 4.620788e-02 4.651110e-02 4.603138e-02 4.618845e-02 4.580906e-02 4.568897e-02 4.537608e-02 4.501836e-02 4.476625e-02 4.433687e-02 4.430444e-02 4.371869e-02 4.319294e-02 4.286732e-02 4.368468e-02 4.275858e-02 4.365204e-02 4.408443e-02 4.360931e-02 4.488166e-02 4.573355e-02 4.532506e-02 4.732896e-02 4.893533e-02 4.790929e-02 4.898171e-02 4.760156e-02 4.746460e-02 4.719186e-02 4.769707e-02 4.743272e-02 4.792125e-02 4.749731e-02 4.787715e-02 4.753669e-02 4.785500e-02 4.761166e-02 4.783733e-02 4.771790e-02 4.765661e-02 4.773410e-02 4.743899e-02 4.770608e-02 4.722718e-02 4.780359e-02 4.708288e-02 4.794639e-02 4.709512e-02 4.807215e-02 4.707253e-02 4.812862e-02 4.703504e-02 4.814723e-02 4.715112e-02 4.808242e-02 4.725315e-02 4.793810e-02 4.733211e-02 4.774541e-02 4.746927e-02 4.755994e-02 4.778437e-02 4.741155e-02 4.798017e-02 4.724648e-02 4.808102e-02 4.713194e-02 4.816411e-02 4.706030e-02 4.817775e-02 4.706914e-02 4.807228e-02 4.718744e-02 4.798659e-02 4.746472e-02 4.796107e-02 4.753727e-02 4.790696e-02 4.614057e-02 4.239270e-02 4.008468e-02 3.820980e-02 3.743305e-02 
3.684098e-02 3.767645e-02 3.808133e-02 3.997625e-02 4.078782e-02 4.330463e-02 4.330688e-02 4.465510e-02 4.547916e-02 4.675810e-02 4.857592e-02 5.035934e-02 5.237303e-02 5.207009e-02 5.225609e-02 5.209125e-02 5.217979e-02 5.215205e-02 5.211342e-02 5.223038e-02 5.207737e-02 5.241523e-02 4.898541e-02 4.828929e-02 4.592414e-02 4.623939e-02 4.463587e-02 4.527284e-02 4.412063e-02 4.475211e-02 4.396328e-02 4.442712e-02 4.397361e-02 4.418521e-02 4.402945e-02 4.398506e-02 4.408923e-02 4.383083e-02 4.414031e-02 4.374780e-02 4.419921e-02 4.373290e-02 4.421406e-02 4.371841e-02 4.413272e-02 4.366822e-02 4.396068e-02 4.360282e-02 4.371759e-02 4.345039e-02 4.329891e-02 4.307782e-02 4.264848e-02 4.248779e-02 4.189333e-02 4.182767e-02 4.087416e-02 4.055083e-02 4.114705e-02 4.202711e-02 4.171983e-02 4.288089e-02 4.299817e-02 4.337135e-02 4.406324e-02 4.454794e-02 4.439794e-02 4.512411e-02 4.541462e-02 4.415143e-02 4.505348e-02 4.546938e-02 4.565068e-02 4.493893e-02 4.510427e-02 4.450991e-02 4.485403e-02 4.437995e-02 4.473748e-02 4.439180e-02 4.467578e-02 4.448753e-02 4.462246e-02 4.461081e-02 4.450454e-02 4.469183e-02 4.432140e-02 4.474576e-02 4.415080e-02 4.485982e-02 4.406399e-02 4.501783e-02 4.404855e-02 4.513528e-02 4.403516e-02 4.518006e-02 4.405350e-02 4.518070e-02 4.415005e-02 4.511834e-02 4.427510e-02 4.497832e-02 4.441625e-02 4.478859e-02 4.459716e-02 4.459629e-02 4.483439e-02 4.442528e-02 4.503189e-02 4.426021e-02 4.515146e-02 4.413857e-02 4.519990e-02 4.407764e-02 4.513113e-02 4.405740e-02 4.490830e-02 4.406962e-02 4.454549e-02 4.403046e-02 4.393665e-02 4.359088e-02 4.276079e-02 4.192878e-02 3.992526e-02 3.886102e-02 3.751714e-02 3.726922e-02 
3.986836e-02 4.065848e-02 4.083193e-02 4.261054e-02 4.305394e-02 4.539726e-02 4.556255e-02 4.671576e-02 4.787110e-02 4.883676e-02 5.090322e-02 5.254143e-02 5.475994e-02 5.445775e-02 5.468017e-02 5.450163e-02 5.459184e-02 5.459139e-02 5.449959e-02 5.469269e-02 5.444095e-02 5.476550e-02 5.091926e-02 5.039700e-02 4.802889e-02 4.848642e-02 4.688392e-02 4.762190e-02 4.643765e-02 4.714487e-02 4.629499e-02 4.682919e-02 4.629564e-02 4.659676e-02 4.635557e-02 4.641842e-02 4.642879e-02 4.628355e-02 4.649368e-02 4.619674e-02 4.653912e-02 4.614755e-02 4.654667e-02 4.612003e-02 4.650328e-02 4.609492e-02 4.640119e-02 4.605852e-02 4.623742e-02 4.597253e-02 4.598653e-02 4.580439e-02 4.567760e-02 4.563315e-02 4.551769e-02 4.569768e-02 4.547890e-02 4.556297e-02 4.561242e-02 4.584565e-02 4.607411e-02 4.639404e-02 4.645577e-02 4.722287e-02 4.695873e-02 4.785140e-02 4.830000e-02 4.831028e-02 4.994483e-02 4.941204e-02 4.957117e-02 4.951779e-02 4.931338e-02 4.838261e-02 4.831562e-02 4.755295e-02 4.771023e-02 4.714025e-02 4.737530e-02 4.696510e-02 4.716452e-02 4.691284e-02 4.700513e-02 4.692897e-02 4.685466e-02 4.697895e-02 4.671203e-02 4.704752e-02 4.658907e-02 4.714004e-02 4.649864e-02 4.723874e-02 4.645117e-02 4.731552e-02 4.643405e-02 4.735773e-02 4.645287e-02 4.736034e-02 4.652173e-02 4.731190e-02 4.662668e-02 4.721801e-02 4.675850e-02 4.709428e-02 4.691902e-02 4.694999e-02 4.709274e-02 4.680003e-02 4.723716e-02 4.666086e-02 4.733460e-02 4.655020e-02 4.737121e-02 4.647082e-02 4.732122e-02 4.640343e-02 4.715095e-02 4.629507e-02 4.681227e-02 4.601703e-02 4.615796e-02 4.528476e-02 4.487293e-02 4.369141e-02 4.235878e-02 4.142663e-02 4.042450e-02 4.025446e-02 
3.682759e-02 3.766679e-02 3.807178e-02 3.996951e-02 4.078095e-02 4.329964e-02 4.330234e-02 4.465014e-02 4.547458e-02 4.675161e-02 4.856795e-02 5.035173e-02 5.236776e-02 5.206708e-02 5.225359e-02 5.209026e-02 5.217920e-02 5.215214e-02 5.211397e-02 5.223285e-02 5.208326e-02 5.242832e-02 4.898296e-02 4.828599e-02 4.592386e-02 4.626412e-02 4.468821e-02 4.534574e-02 4.419898e-02 4.482376e-02 4.402005e-02 4.446569e-02 4.400621e-02 4.423032e-02 4.409190e-02 4.407906e-02 4.420212e-02 4.398767e-02 4.431944e-02 4.396623e-02 4.441445e-02 4.398091e-02 4.447655e-02 4.405673e-02 4.454531e-02 4.422082e-02 4.465224e-02 4.447539e-02 4.479874e-02 4.479128e-02 4.498002e-02 4.513891e-02 4.517018e-02 4.544332e-02 4.524848e-02 4.541358e-02 4.478354e-02 4.509755e-02 4.505252e-02 4.522488e-02 4.523180e-02 4.536603e-02 4.519961e-02 4.562103e-02 4.511918e-02 4.562707e-02 4.529615e-02 4.539603e-02 4.556500e-02 4.416132e-02 4.448524e-02 4.463152e-02 4.467016e-02 4.394002e-02 4.427867e-02 4.376452e-02 4.427019e-02 4.386786e-02 4.435587e-02 4.404962e-02 4.441059e-02 4.423475e-02 4.439859e-02 4.439748e-02 4.432671e-02 4.455833e-02 4.422939e-02 4.471418e-02 4.413024e-02 4.486340e-02 4.404662e-02 4.500103e-02 4.399418e-02 4.509373e-02 4.397319e-02 4.513693e-02 4.399970e-02 4.513160e-02 4.408525e-02 4.506711e-02 4.422719e-02 4.495192e-02 4.441711e-02 4.481195e-02 4.464619e-02 4.463699e-02 4.485901e-02 4.443267e-02 4.502943e-02 4.424822e-02 4.515222e-02 4.412623e-02 4.520680e-02 4.408330e-02 4.515401e-02 4.409152e-02 4.494716e-02 4.410345e-02 4.456370e-02 4.402602e-02 4.391460e-02 4.356139e-02 4.273083e-02 4.190407e-02 3.990104e-02 3.884251e-02 3.749880e-02 3.725563e-02 
3.708148e-02 3.790612e-02 3.892113e-02 4.178192e-02 4.369693e-02 4.936029e-02 4.666055e-02 4.602472e-02 4.716193e-02 4.604442e-02 4.737825e-02 4.638667e-02 4.630165e-02 4.564455e-02 4.604517e-02 4.576382e-02 4.595324e-02 4.592196e-02 4.578604e-02 4.608983e-02 4.558882e-02 4.665725e-02 4.680647e-02 4.757940e-02 4.634240e-02 4.758414e-02 4.640825e-02 4.763625e-02 4.657328e-02 4.752752e-02 4.669985e-02 4.732251e-02 4.683536e-02 4.717523e-02 4.705355e-02 4.709297e-02 4.721902e-02 4.700522e-02 4.737830e-02 4.701197e-02 4.750037e-02 4.702868e-02 4.758992e-02 4.711560e-02 4.766676e-02 4.728309e-02 4.779227e-02 4.754982e-02 4.791951e-02 4.780918e-02 4.796999e-02 4.790913e-02 4.766989e-02 4.748849e-02 4.647314e-02 4.546400e-02 4.213070e-02 4.206902e-02 4.486388e-02 4.267260e-02 4.500787e-02 4.683543e-02 4.427359e-02 4.952317e-02 4.735629e-02 4.814861e-02 5.206807e-02 4.939762e-02 5.340074e-02 5.335950e-02 5.210299e-02 5.474450e-02 5.351576e-02 5.047254e-02 4.969219e-02 4.815366e-02 4.824914e-02 4.736761e-02 4.772505e-02 4.716146e-02 4.750285e-02 4.717251e-02 4.737693e-02 4.725085e-02 4.727186e-02 4.740493e-02 4.716252e-02 4.755300e-02 4.708009e-02 4.771295e-02 4.700328e-02 4.788026e-02 4.694618e-02 4.795939e-02 4.691133e-02 4.800742e-02 4.692954e-02 4.804000e-02 4.700775e-02 4.798584e-02 4.715345e-02 4.787987e-02 4.733215e-02 4.778784e-02 4.757975e-02 4.762403e-02 4.778321e-02 4.740289e-02 4.794706e-02 4.721440e-02 4.809611e-02 4.709177e-02 4.818786e-02 4.707605e-02 4.820376e-02 4.713307e-02 4.813591e-02 4.726524e-02 4.804195e-02 4.747040e-02 4.793007e-02 4.748523e-02 4.785407e-02 4.609141e-02 4.234385e-02 4.004533e-02 3.817091e-02 3.740356e-02 
3.018059e-02 3.124094e-02 3.434145e-02 3.880200e-02 4.583741e-02 4.823224e-02 4.204851e-02 4.182743e-02 4.081985e-02 3.926911e-02 3.853895e-02 3.590000e-02 3.503596e-02 3.448590e-02 3.488548e-02 3.460472e-02 3.480320e-02 3.474470e-02 3.464165e-02 3.488732e-02 3.445134e-02 3.508681e-02 3.684691e-02 3.918014e-02 3.913904e-02 4.121212e-02 4.073297e-02 4.244286e-02 4.172616e-02 4.276776e-02 4.208012e-02 4.257585e-02 4.231800e-02 4.252835e-02 4.270742e-02 4.252829e-02 4.294469e-02 4.250047e-02 4.324414e-02 4.268910e-02 4.341802e-02 4.264962e-02 4.335110e-02 4.271551e-02 4.346090e-02 4.311275e-02 4.384860e-02 4.381301e-02 4.441403e-02 4.472531e-02 4.530248e-02 4.612351e-02 4.683962e-02 4.843136e-02 4.978735e-02 5.274071e-02 5.341426e-02 5.397235e-02 5.112785e-02 5.163010e-02 5.146170e-02 4.847029e-02 4.903421e-02 4.721657e-02 4.489845e-02 4.706875e-02 4.280775e-02 4.284997e-02 4.283112e-02 3.908964e-02 3.927751e-02 3.821666e-02 4.095741e-02 4.070546e-02 4.166366e-02 4.122129e-02 4.228855e-02 4.178630e-02 4.271827e-02 4.226643e-02 4.299199e-02 4.265766e-02 4.302315e-02 4.281978e-02 4.287287e-02 4.308393e-02 4.279374e-02 4.337637e-02 4.269688e-02 4.358639e-02 4.255349e-02 4.382144e-02 4.246605e-02 4.392028e-02 4.237977e-02 4.395743e-02 4.236977e-02 4.396036e-02 4.246714e-02 4.385540e-02 4.266202e-02 4.365824e-02 4.296126e-02 4.358048e-02 4.347122e-02 4.339076e-02 4.378516e-02 4.294701e-02 4.395748e-02 4.255054e-02 4.415695e-02 4.235517e-02 4.436727e-02 4.242956e-02 4.449492e-02 4.263712e-02 4.430237e-02 4.291090e-02 4.398239e-02 4.368214e-02 4.386918e-02 4.517580e-02 4.474075e-02 4.870675e-02 4.250566e-02 3.601890e-02 3.246792e-02 3.045829e-02 
2.533988e-02 2.511567e-02 3.152365e-02 3.385524e-02 4.104097e-02 2.091075e-02 2.265388e-02 2.497217e-02 1.936176e-02 2.311188e-02 1.844296e-02 1.971775e-02 1.773962e-02 1.821060e-02 1.895770e-02 1.864311e-02 1.914313e-02 1.889636e-02 1.881901e-02 1.930102e-02 1.776290e-02 1.950042e-02 1.867477e-02 2.050415e-02 2.051056e-02 2.138091e-02 2.184358e-02 2.204547e-02 2.268858e-02 2.209297e-02 2.287923e-02 2.178530e-02 2.294632e-02 2.174437e-02 2.309388e-02 2.174744e-02 2.322752e-02 2.195555e-02 2.348854e-02 2.234970e-02 2.358410e-02 2.241523e-02 2.327712e-02 2.255172e-02 2.336895e-02 2.318301e-02 2.381155e-02 2.403628e-02 2.439012e-02 2.502222e-02 2.524746e-02 2.650943e-02 2.697099e-02 2.898756e-02 3.017416e-02 3.358765e-02 3.694794e-02 3.891231e-02 3.339569e-02 3.733443e-02 3.329803e-02 3.026572e-02 3.250480e-02 2.485091e-02 2.575990e-02 2.419392e-02 1.667310e-02 1.902870e-02 1.120540e-02 8.829191e-03 1.206196e-02 9.371529e-03 1.313405e-02 1.593299e-02 1.864212e-02 1.925385e-02 2.095575e-02 2.072252e-02 2.201952e-02 2.160751e-02 2.267725e-02 2.226553e-02 2.284322e-02 2.255626e-02 2.268798e-02 2.286098e-02 2.270943e-02 2.330107e-02 2.260077e-02 2.350474e-02 2.242067e-02 2.362590e-02 2.233381e-02 2.371839e-02 2.227577e-02 2.365618e-02 2.229973e-02 2.342866e-02 2.247029e-02 2.320377e-02 2.274878e-02 2.290659e-02 2.325097e-02 2.270609e-02 2.395591e-02 2.245216e-02 2.442405e-02 2.191326e-02 2.459153e-02 2.142853e-02 2.466472e-02 2.129952e-02 2.477290e-02 2.156270e-02 2.471267e-02 2.210712e-02 2.398367e-02 2.273285e-02 2.278136e-02 2.399095e-02 2.162276e-02 2.646217e-02 2.067733e-02 3.512402e-02 4.283075e-02 3.452292e-02 2.882379e-02 2.503500e-02 
5.715069e-03 7.741778e-03 1.105716e-02 2.021431e-02 1.207654e-02 2.411385e-02 1.591265e-02 1.215216e-02 1.737736e-02 1.110915e-02 1.744721e-02 1.093917e-02 1.759697e-02 1.325969e-02 1.904098e-02 1.567968e-02 1.873499e-02 1.687941e-02 1.760438e-02 1.741821e-02 1.511320e-02 1.629094e-02 1.314016e-02 1.569034e-02 1.286895e-02 1.569207e-02 1.313079e-02 1.574340e-02 1.334858e-02 1.546691e-02 1.347341e-02 1.510063e-02 1.353298e-02 1.492767e-02 1.388783e-02 1.482078e-02 1.408366e-02 1.457468e-02 1.432380e-02 1.449032e-02 1.451811e-02 1.436265e-02 1.466232e-02 1.427971e-02 1.481611e-02 1.434647e-02 1.513558e-02 1.469708e-02 1.558206e-02 1.528188e-02 1.634738e-02 1.623544e-02 1.747537e-02 1.780810e-02 1.958374e-02 2.082366e-02 2.352877e-02 2.406089e-02 2.125284e-02 2.282948e-02 2.124254e-02 1.805879e-02 2.081805e-02 1.492107e-02 1.639295e-02 1.524005e-02 1.039137e-02 1.233009e-02 8.295726e-03 6.419141e-03 7.780123e-03 5.952499e-03 8.456670e-03 9.662505e-03 1.121787e-02 1.161276e-02 1.268631e-02 1.273114e-02 1.347487e-02 1.338482e-02 1.385474e-02 1.377235e-02 1.400684e-02 1.396091e-02 1.407604e-02 1.413798e-02 1.408254e-02 1.425655e-02 1.407685e-02 1.440764e-02 1.406253e-02 1.463686e-02 1.403860e-02 1.471388e-02 1.397855e-02 1.482591e-02 1.395215e-02 1.503724e-02 1.394530e-02 1.512233e-02 1.397538e-02 1.516569e-02 1.393392e-02 1.534562e-02 1.406683e-02 1.525048e-02 1.416412e-02 1.502164e-02 1.419015e-02 1.484825e-02 1.429303e-02 1.467177e-02 1.448640e-02 1.453079e-02 1.476349e-02 1.441741e-02 1.504854e-02 1.431260e-02 1.558709e-02 1.412876e-02 1.641312e-02 1.393656e-02 1.831919e-02 1.317446e-02 2.387351e-02 1.845211e-02 1.220982e-02 6.766173e-03 
3.752466e-03 4.271363e-03 1.062094e-03 4.620811e-03 1.157115e-02 1.544648e-02 1.199425e-02 7.603612e-03 4.932366e-03 4.995458e-03 2.674595e-03 4.576820e-04 4.182985e-03 7.811502e-03 9.183843e-03 1.040935e-02 9.422100e-03 1.072023e-02 9.269508e-03 8.925141e-03 7.839892e-03 2.370424e-03 1.628052e-03 3.776454e-03 3.064947e-03 6.271880e-03 5.447660e-03 7.614262e-03 6.770636e-03 7.808807e-03 7.199558e-03 7.412811e-03 7.455532e-03 7.239893e-03 7.839382e-03 7.128812e-03 8.081164e-03 7.090426e-03 8.410855e-03 7.297297e-03 8.522544e-03 7.185667e-03 8.201524e-03 7.084554e-03 8.113847e-03 7.396987e-03 8.246736e-03 7.904756e-03 8.354814e-03 8.386837e-03 8.459577e-03 8.965242e-03 8.868920e-03 1.006148e-02 1.038026e-02 1.276183e-02 1.269438e-02 1.346530e-02 1.047625e-02 1.300523e-02 1.369614e-02 1.025049e-02 1.256295e-02 1.087498e-02 9.188358e-03 1.387479e-02 6.909803e-03 9.439685e-03 1.164475e-02 2.648359e-03 5.157072e-03 4.407980e-03 9.938680e-03 8.906962e-03 9.536525e-03 8.208291e-03 9.213548e-03 7.984654e-03 8.995246e-03 8.021031e-03 8.942065e-03 8.261057e-03 8.716284e-03 8.328368e-03 8.316330e-03 8.527384e-03 8.128219e-03 8.895140e-03 7.888499e-03 9.123497e-03 7.637341e-03 9.355945e-03 7.511322e-03 9.490659e-03 7.412688e-03 9.496777e-03 7.433321e-03 9.390417e-03 7.595070e-03 9.201267e-03 7.886342e-03 8.909106e-03 8.366038e-03 8.712107e-03 9.089999e-03 8.382848e-03 9.581712e-03 7.727882e-03 9.820547e-03 7.152791e-03 1.001089e-02 6.914620e-03 1.024002e-02 7.075895e-03 1.032514e-02 7.547272e-03 9.809923e-03 8.105667e-03 8.945643e-03 9.065764e-03 8.023677e-03 1.112555e-02 7.269589e-03 1.648701e-02 8.898144e-03 3.991735e-03 3.955393e-03 3.760773e-03 
6.380773e-04 1.032441e-03 1.418701e-03 7.099702e-04 4.606377e-03 5.561613e-03 5.986432e-03 2.116696e-03 5.078890e-03 5.736179e-03 7.790355e-03 1.152668e-02 1.275206e-02 1.260254e-02 8.923782e-03 3.485807e-03 4.401228e-03 2.859873e-03 5.520936e-03 6.720250e-03 1.245589e-02 1.364010e-02 1.018984e-02 7.333451e-03 4.601968e-03 3.046720e-03 2.022835e-03 1.266646e-03 1.009358e-03 7.801451e-04 6.517072e-04 8.190689e-04 4.983198e-04 8.859487e-04 4.938209e-04 9.394707e-04 5.706590e-04 8.473770e-04 7.188126e-04 6.654662e-04 7.535025e-04 6.244834e-04 5.460510e-04 4.991586e-04 4.802491e-04 2.085222e-04 4.409774e-04 1.582483e-04 2.770804e-04 3.175264e-04 1.799624e-04 3.580471e-04 1.028797e-03 1.346317e-03 3.133089e-03 4.287266e-03 6.665126e-03 5.547175e-03 3.950988e-03 4.720536e-03 5.177856e-03 1.976619e-03 5.318180e-03 3.613511e-03 2.725273e-03 5.930845e-03 2.337912e-03 2.703441e-03 6.764969e-03 5.651297e-03 5.948827e-03 6.751018e-03 6.787593e-03 3.927515e-03 3.495958e-03 1.653342e-03 2.166799e-03 7.692446e-04 1.511988e-03 4.414780e-04 1.243435e-03 5.087333e-04 1.011052e-03 6.942838e-04 7.290733e-04 8.649863e-04 5.626248e-04 1.156596e-03 2.927820e-04 1.367597e-03 6.244765e-05 1.529159e-03 2.828301e-05 1.654702e-03 1.309620e-04 1.619026e-03 2.571682e-04 1.434689e-03 3.500350e-04 1.236322e-03 6.031676e-04 1.002994e-03 1.060548e-03 7.460653e-04 1.616176e-03 4.952619e-04 2.098734e-03 4.632666e-04 2.403836e-03 7.731804e-04 2.553863e-03 8.976320e-04 2.628108e-03 7.705073e-04 2.483726e-03 7.670752e-04 1.882808e-03 1.148369e-03 1.075485e-03 1.811487e-03 9.540420e-04 3.029699e-03 2.643019e-03 5.495780e-03 2.596517e-03 1.732115e-03 1.562996e-03 2.390516e-04 
