# vtk DataFile Version 2.0
Comment goes here
ASCII

DATASET STRUCTURED_POINTS
FIELD FieldData 1
TIME 1 1 double
0.15000000
DIMENSIONS    128   16   1

ORIGIN    0.000   0.000   0.000
SPACING   0.0078125 0.015625   1.000

POINT_DATA   2048
SCALARS uMag double
LOOKUP_TABLE default

3.290257e-03 7.461995e-05 3.408694e-03 2.083264e-03 3.071994e-03 6.995521e-03 2.912969e-03 9.684823e-04 7.055702e-04 3.186421e-05 1.265138e-04 3.231519e-04 1.230746e-03 2.595012e-03 4.586178e-03 2.286865e-03 6.244105e-03 3.042871e-03 5.758840e-03 3.260335e-03 4.201009e-03 3.285217e-04 1.294805e-03 1.109827e-03 1.127928e-03 1.005500e-03 1.128368e-03 6.776035e-04 1.066808e-03 3.517369e-04 8.992322e-04 3.072055e-05 6.730781e-04 2.457139e-04 4.553177e-04 4.727945e-04 3.590230e-04 6.154236e-04 2.232428e-04 7.474630e-04 1.420000e-04 7.632355e-04 1.102644e-04 6.647678e-04 2.741904e-04 7.608594e-04 7.651313e-04 1.224218e-03 1.438066e-03 1.744588e-03 2.099498e-03 2.463813e-03 2.910333e-03 3.219600e-03 3.345326e-03 3.158640e-03 2.498390e-03 1.756742e-03 2.019594e-03 3.648060e-03 3.286594e-03 4.343814e-03 4.721010e-03 5.150066e-03 5.421587e-03 6.795745e-03 6.226305e-03 7.147593e-03 7.617637e-03 5.393151e-03 3.279609e-03 3.490939e-03 3.128353e-03 1.969407e-03 2.455253e-03 2.319889e-03 2.096089e-03 1.709050e-03 1.362128e-03 1.175379e-03 9.253309e-04 7.116747e-04 6.993572e-04 3.942365e-04 6.147796e-04 3.631889e-04 7.065084e-04 5.906726e-04 7.219446e-04 6.885516e-04 7.617491e-04 7.083531e-04 7.816542e-04 5.269836e-04 6.248247e-04 3.696357e-04 3.767078e-04 1.898049e-04 1.228246e-04 2.172640e-04 4.269596e-04 5.990321e-04 7.428280e-04 1.016869e-03 1.150697e-03 1.342513e-03 1.326557e-03 1.467369e-03 1.482681e-03 1.384281e-03 1.431968e-03 1.069996e-03 8.053174e-04 5.603818e-04 1.476040e-04 2.792335e-04 6.442776e-04 1.219979e-03 1.493970e-03 2.172846e-03 2.097941e-03 2.555013e-03 1.154324e-03 1.237998e-03 2.232978e-03 1.373954e-03 3.024335e-03 9.464358e-04 
2.836686e-03 2.455385e-04 3.348806e-03 2.029942e-03 5.565224e-03 8.475393e-03 6.540336e-03 2.188416e-03 1.370617e-03 1.312916e-03 3.272387e-03 1.653703e-03 7.178777e-03 3.332601e-03 5.587257e-03 1.716048e-03 4.994088e-03 1.049693e-03 4.333797e-03 2.465748e-03 5.031082e-03 4.744486e-03 1.590688e-03 9.641817e-04 6.355184e-04 1.635047e-04 7.425962e-04 1.972912e-04 6.122319e-04 2.080115e-04 4.487953e-04 1.917542e-04 1.631544e-04 4.972839e-04 5.703084e-04 5.379085e-04 9.642611e-04 3.119750e-04 9.711890e-04 8.444867e-05 8.221435e-04 1.102139e-04 9.742103e-04 9.073558e-05 8.426373e-04 2.343491e-04 4.817067e-04 8.048210e-04 1.298431e-03 1.289455e-03 1.959786e-03 2.185849e-03 2.958742e-03 3.218646e-03 4.041003e-03 4.581909e-03 4.607243e-03 1.915270e-03 3.558992e-03 2.212965e-03 2.231434e-03 3.173790e-03 2.123966e-03 3.485582e-03 1.614441e-03 7.548372e-03 6.735409e-03 1.193724e-02 1.764116e-02 3.906017e-03 9.948915e-03 7.012527e-03 5.646955e-03 5.266195e-03 4.686970e-03 3.407709e-03 3.330924e-03 2.226762e-03 2.055657e-03 1.491643e-03 1.581763e-03 1.273584e-03 1.003645e-03 1.260213e-03 8.351813e-04 1.345649e-03 4.338826e-04 1.469336e-03 4.096011e-04 1.556113e-03 3.586642e-04 1.658669e-03 3.281737e-04 1.416202e-03 4.823251e-04 1.238439e-03 6.466996e-04 1.223452e-03 1.342312e-03 7.413219e-04 1.478824e-03 3.072345e-04 1.682134e-03 5.605392e-04 2.295361e-03 3.752144e-04 2.516794e-03 5.405470e-04 2.535002e-03 7.732735e-04 2.476813e-03 8.431366e-04 1.798180e-03 5.251088e-04 1.410977e-03 1.132416e-03 1.200988e-03 2.375408e-03 1.202570e-03 3.403640e-03 1.675373e-03 4.161055e-03 1.839859e-03 3.675676e-03 3.968345e-03 1.706454e-03 3.020159e-03 8.131504e-04 
3.953121e-03 1.848626e-03 5.414350e-03 2.688820e-03 1.424019e-02 1.515089e-03 1.739448e-02 6.972674e-03 3.527031e-03 4.604254e-03 3.637171e-03 6.753383e-03 5.887737e-03 4.327397e-03 6.515095e-03 4.647449e-03 6.627065e-03 5.685498e-03 5.802778e-03 6.751704e-03 4.994585e-03 7.477943e-03 5.607873e-03 5.173376e-03 2.041107e-03 4.014403e-03 5.985688e-04 3.083200e-03 1.771521e-04 2.414366e-03 3.504344e-04 2.038960e-03 5.958371e-04 2.185262e-03 1.325313e-03 2.430268e-03 2.020403e-03 2.191113e-03 2.004612e-03 1.442976e-03 1.582022e-03 1.218052e-03 1.798119e-03 1.170257e-03 1.536719e-03 8.734670e-04 8.021126e-04 9.714864e-04 1.954335e-03 1.256319e-03 1.943332e-03 1.737060e-03 2.929536e-03 3.584828e-03 6.037076e-03 7.554189e-03 9.438873e-03 9.441246e-03 9.064158e-03 1.011035e-02 1.079721e-02 9.460912e-03 1.213943e-02 9.548592e-03 9.636391e-03 9.176110e-03 4.250245e-03 3.819204e-03 5.026971e-03 6.991395e-03 3.909939e-03 7.787054e-04 1.340348e-03 1.781824e-03 2.631583e-03 2.390410e-03 2.454395e-03 2.231153e-03 1.983664e-03 1.804898e-03 1.795986e-03 2.023144e-03 1.787207e-03 2.347854e-03 1.419428e-03 2.295872e-03 8.863601e-04 2.209710e-03 7.972004e-04 2.531863e-03 9.061009e-04 2.607223e-03 8.432620e-04 2.312524e-03 6.964308e-04 2.102159e-03 1.127737e-03 2.679626e-03 1.906416e-03 1.864306e-03 2.079733e-03 1.134464e-03 2.230616e-03 1.591517e-03 2.883216e-03 8.832694e-04 3.315675e-03 3.684565e-04 3.063797e-03 3.189748e-04 2.870935e-03 1.614627e-03 2.634353e-03 1.200017e-03 2.501794e-03 1.545302e-03 2.826427e-03 3.622449e-03 2.488736e-03 4.638762e-03 1.672525e-03 4.971282e-03 5.770779e-03 1.101833e-02 8.018528e-03 3.716907e-03 4.543638e-03 2.092839e-03 
1.376461e-03 2.867278e-03 9.914970e-04 7.006840e-03 1.367897e-02 1.538106e-02 9.223722e-03 2.466666e-03 3.541668e-03 2.358565e-03 4.550029e-03 3.616877e-03 6.775103e-03 2.268570e-03 5.358712e-03 1.449671e-03 4.459929e-03 1.572179e-03 3.725276e-03 2.464422e-03 3.664017e-03 3.249782e-03 1.336992e-03 1.896410e-03 2.208549e-03 1.883675e-03 2.549449e-03 1.556404e-03 2.129815e-03 1.021527e-03 1.571701e-03 1.365064e-03 7.118158e-04 2.041430e-03 8.113372e-04 2.332040e-03 1.672642e-04 1.005143e-03 1.718912e-03 1.006297e-03 7.402800e-04 5.295108e-04 2.067918e-04 5.227720e-04 1.362113e-03 1.705117e-03 3.041714e-04 4.059171e-04 1.355704e-03 7.891403e-04 7.958237e-04 2.083283e-03 2.218524e-03 3.792474e-03 3.559048e-03 5.036108e-03 4.898821e-03 5.063002e-03 2.268546e-03 3.001185e-03 1.409811e-03 1.428664e-03 1.888305e-03 1.852343e-03 8.580853e-04 3.815232e-03 2.843009e-03 2.927895e-03 3.753360e-03 2.871171e-03 3.751872e-03 3.811918e-04 8.448032e-04 1.127470e-03 7.304992e-04 3.444800e-04 3.943218e-04 3.632047e-04 3.610632e-04 3.071976e-04 1.105134e-03 3.760869e-04 1.135436e-03 7.549766e-04 1.758052e-04 1.283507e-03 3.698648e-04 6.442717e-05 9.654769e-04 2.871014e-04 5.724189e-04 2.484496e-04 1.026061e-03 8.609103e-05 1.115825e-03 1.040434e-03 4.434467e-04 1.831134e-03 1.474453e-03 3.708659e-04 2.095100e-03 7.486999e-04 1.040917e-03 2.165758e-03 3.969225e-04 9.448243e-04 1.192648e-03 7.863587e-04 1.182301e-03 7.718020e-04 6.642522e-04 1.833558e-03 1.163063e-03 2.299059e-03 2.757525e-03 1.764159e-03 4.556619e-03 2.351462e-03 3.861766e-03 4.028912e-03 1.826263e-03 2.847846e-03 4.190328e-03 2.535416e-02 3.771775e-03 7.147757e-03 3.101963e-03 2.138825e-03 
3.981250e-03 1.161793e-03 5.909077e-03 4.310071e-03 5.477130e-03 1.492324e-02 1.375709e-02 2.022694e-03 1.288964e-03 1.403421e-03 2.438283e-03 3.296080e-03 6.243387e-03 4.228705e-03 5.617399e-03 4.810793e-03 5.276510e-03 5.250636e-03 4.793253e-03 5.812198e-03 3.900901e-03 7.176345e-03 3.559643e-03 4.365179e-03 1.559464e-03 2.635723e-03 5.769256e-04 1.280809e-03 5.450904e-04 5.755598e-04 1.225535e-04 1.170992e-03 1.472067e-04 1.441625e-03 8.779114e-04 1.749764e-03 1.256063e-03 4.141413e-04 1.719867e-03 5.129956e-04 7.411669e-04 6.885893e-04 6.657719e-04 5.421654e-04 7.527779e-04 1.362198e-03 9.892306e-04 1.846583e-03 1.504930e-03 1.806723e-03 2.029396e-03 2.689519e-03 3.849552e-03 5.028556e-03 7.289648e-03 8.723592e-03 1.203390e-02 1.084437e-02 9.212941e-03 9.456862e-03 7.668210e-03 6.559189e-03 7.879993e-03 5.276810e-03 5.381105e-03 4.971899e-03 3.079270e-03 6.093429e-03 5.972968e-03 8.305261e-04 5.174456e-03 2.590769e-03 6.214028e-04 6.839744e-04 8.827910e-04 6.478120e-04 1.041880e-03 4.973151e-04 8.592844e-04 6.653320e-04 1.061560e-03 9.402242e-04 1.308927e-03 1.446419e-03 8.801682e-04 1.338309e-03 2.955631e-04 1.130318e-03 8.343980e-04 1.249701e-03 4.618612e-04 1.421884e-03 5.553479e-04 1.057151e-03 5.762448e-04 1.569103e-03 6.313273e-04 1.212366e-03 1.662019e-03 7.884630e-04 2.020635e-03 8.924004e-04 1.398173e-03 1.298377e-03 2.258333e-03 9.231279e-04 2.792066e-03 9.029246e-04 2.396606e-03 1.260138e-03 2.164880e-03 8.291327e-04 1.344343e-03 1.439443e-03 1.843952e-03 1.047557e-03 3.296867e-03 2.387800e-03 2.400999e-03 4.681274e-03 3.012185e-03 4.955847e-03 6.437964e-03 1.988362e-02 7.166853e-03 7.001955e-03 5.544437e-03 2.806209e-03 
7.398774e-03 6.758533e-03 8.318637e-03 8.727718e-03 1.196542e-02 9.670286e-03 1.206517e-02 3.935111e-03 6.224496e-03 4.407373e-03 6.428078e-03 6.539922e-03 6.776614e-03 5.831231e-03 6.368453e-03 5.996741e-03 6.218641e-03 6.207118e-03 6.041264e-03 6.402777e-03 5.821662e-03 7.110946e-03 5.580302e-03 6.078683e-03 4.116792e-03 6.090666e-03 3.995765e-03 5.898430e-03 3.912979e-03 5.593785e-03 4.059526e-03 5.526813e-03 4.441814e-03 5.527486e-03 4.879845e-03 5.785917e-03 5.474900e-03 5.765744e-03 5.471756e-03 5.131875e-03 5.167122e-03 4.856897e-03 5.101935e-03 4.654557e-03 4.811521e-03 4.143626e-03 4.344707e-03 3.843146e-03 4.061667e-03 3.808336e-03 3.874843e-03 3.602617e-03 3.808552e-03 4.248273e-03 5.151197e-03 6.212688e-03 2.780212e-03 4.472507e-03 2.092378e-03 2.973875e-03 5.886989e-03 3.034100e-03 4.594878e-03 4.716622e-03 4.240852e-03 4.960439e-03 5.215799e-03 4.442934e-03 4.408663e-03 4.248210e-03 6.058033e-03 6.417234e-03 6.287547e-03 5.979699e-03 6.058101e-03 5.723195e-03 5.817918e-03 5.683289e-03 5.855872e-03 5.730043e-03 5.573692e-03 5.837038e-03 5.821037e-03 6.146146e-03 5.330633e-03 5.891622e-03 4.946911e-03 5.801533e-03 4.777500e-03 6.079223e-03 4.867147e-03 6.045633e-03 4.723448e-03 5.860737e-03 4.529208e-03 5.754015e-03 5.025955e-03 5.935245e-03 5.265047e-03 5.650366e-03 5.416715e-03 5.066473e-03 5.653283e-03 4.931684e-03 6.119691e-03 4.873733e-03 6.480404e-03 4.435762e-03 6.181881e-03 4.181950e-03 5.962343e-03 4.087531e-03 5.946348e-03 4.162242e-03 5.480024e-03 4.695842e-03 5.338651e-03 5.870575e-03 5.141779e-03 6.575264e-03 3.869624e-03 6.829226e-03 4.606824e-03 9.268434e-03 1.214083e-02 8.276749e-03 8.574533e-03 6.760649e-03 
8.480530e-03 7.868989e-03 8.800836e-03 9.131625e-03 1.001565e-02 1.240671e-02 8.774575e-03 7.402138e-03 9.546145e-03 7.131434e-03 8.920875e-03 7.213716e-03 7.869308e-03 6.378567e-03 6.946791e-03 6.540728e-03 6.752570e-03 6.760479e-03 6.523700e-03 6.978295e-03 6.328128e-03 8.565139e-03 7.650691e-03 8.260450e-03 7.048252e-03 8.742916e-03 7.205096e-03 8.844522e-03 7.262130e-03 8.714464e-03 7.390447e-03 8.654618e-03 7.644016e-03 8.580098e-03 7.841389e-03 8.517951e-03 8.057972e-03 8.360451e-03 8.130326e-03 8.064082e-03 8.084253e-03 7.825643e-03 7.919284e-03 7.507169e-03 7.719668e-03 7.248939e-03 7.572971e-03 7.070346e-03 7.298649e-03 6.863094e-03 7.162075e-03 6.837448e-03 7.227505e-03 7.198933e-03 7.890362e-03 8.118979e-03 8.505801e-03 7.492390e-03 7.441589e-03 8.712328e-03 7.643297e-03 7.495293e-03 8.626820e-03 7.430216e-03 8.719224e-03 8.886625e-03 9.096310e-03 9.725950e-03 1.127479e-02 1.035457e-02 1.029835e-02 9.466862e-03 9.539129e-03 9.166005e-03 9.535584e-03 9.151903e-03 9.265443e-03 8.915710e-03 9.087742e-03 8.815535e-03 8.735526e-03 8.708458e-03 8.690680e-03 8.769537e-03 8.340975e-03 8.662146e-03 8.170929e-03 8.606184e-03 7.975572e-03 8.694834e-03 7.962726e-03 8.621223e-03 7.910571e-03 8.578273e-03 7.833179e-03 8.487075e-03 8.107263e-03 8.469897e-03 8.126802e-03 8.300227e-03 8.348642e-03 8.040995e-03 8.580863e-03 7.933696e-03 8.689947e-03 7.760127e-03 8.865320e-03 7.544289e-03 8.795452e-03 7.495965e-03 8.646426e-03 7.442399e-03 8.724387e-03 7.502020e-03 8.508879e-03 7.777015e-03 8.339779e-03 8.239183e-03 8.402209e-03 8.479417e-03 8.256672e-03 8.745460e-03 8.516629e-03 1.067396e-02 9.867459e-03 8.737445e-03 8.854722e-03 7.847543e-03 
9.179036e-03 9.096537e-03 9.217701e-03 9.478552e-03 9.444663e-03 1.003550e-02 9.273494e-03 8.955118e-03 8.887784e-03 8.334422e-03 8.002161e-03 8.102589e-03 6.755019e-03 6.277540e-03 6.506692e-03 6.311933e-03 6.405324e-03 6.396487e-03 6.321138e-03 6.500935e-03 6.279965e-03 7.048201e-03 8.905985e-03 8.515409e-03 8.446227e-03 8.950642e-03 8.171147e-03 9.105648e-03 8.051202e-03 9.148529e-03 8.099285e-03 9.173857e-03 8.267989e-03 9.182902e-03 8.476998e-03 9.172810e-03 8.678633e-03 9.094884e-03 8.787861e-03 8.941699e-03 8.825403e-03 8.808875e-03 8.833366e-03 8.693259e-03 8.802764e-03 8.590686e-03 8.750423e-03 8.552788e-03 8.726350e-03 8.609981e-03 8.784779e-03 8.764816e-03 8.905443e-03 8.950638e-03 8.996950e-03 9.042156e-03 8.555460e-03 8.144683e-03 9.594789e-03 9.370311e-03 9.396453e-03 1.002256e-02 9.979604e-03 1.047897e-02 1.072150e-02 1.061558e-02 1.114904e-02 1.094299e-02 1.154182e-02 1.046835e-02 1.074698e-02 1.167397e-02 1.188192e-02 1.118151e-02 1.105807e-02 1.048818e-02 1.028700e-02 9.910947e-03 9.713585e-03 9.578104e-03 9.315398e-03 9.439539e-03 9.083042e-03 9.416480e-03 8.854249e-03 9.399175e-03 8.681714e-03 9.408050e-03 8.568411e-03 9.445977e-03 8.519742e-03 9.425229e-03 8.489486e-03 9.358146e-03 8.502930e-03 9.268952e-03 8.638028e-03 9.179005e-03 8.784711e-03 9.012777e-03 8.950518e-03 8.794261e-03 9.131362e-03 8.619147e-03 9.303691e-03 8.470795e-03 9.429995e-03 8.333419e-03 9.439827e-03 8.273394e-03 9.377858e-03 8.301927e-03 9.276103e-03 8.439437e-03 9.085434e-03 8.733863e-03 8.899922e-03 9.148702e-03 8.757669e-03 9.519468e-03 8.674877e-03 9.863427e-03 9.016589e-03 1.012911e-02 9.715893e-03 9.604187e-03 9.447468e-03 9.147777e-03 
9.173082e-03 8.985038e-03 9.294120e-03 9.497155e-03 9.527941e-03 1.002004e-02 9.359461e-03 8.970557e-03 9.106619e-03 8.228092e-03 8.284833e-03 8.035695e-03 7.034811e-03 6.637533e-03 6.929836e-03 6.697173e-03 6.796085e-03 6.814794e-03 6.665107e-03 6.942587e-03 6.590363e-03 7.042558e-03 9.083336e-03 8.957409e-03 8.763654e-03 9.336711e-03 8.466157e-03 9.434215e-03 8.342943e-03 9.434398e-03 8.378493e-03 9.404981e-03 8.506839e-03 9.341380e-03 8.653580e-03 9.248006e-03 8.795458e-03 9.134553e-03 8.915510e-03 9.024848e-03 9.007955e-03 8.938079e-03 9.074889e-03 8.878949e-03 9.130491e-03 8.857021e-03 9.171101e-03 8.879851e-03 9.222003e-03 8.972849e-03 9.346785e-03 9.182128e-03 9.573817e-03 9.502543e-03 9.918274e-03 9.887564e-03 9.839525e-03 9.725670e-03 1.053766e-02 9.842604e-03 1.037580e-02 1.020667e-02 1.048764e-02 1.069559e-02 1.068109e-02 1.077831e-02 1.150841e-02 1.125869e-02 1.257613e-02 1.203096e-02 1.220295e-02 1.160862e-02 1.153655e-02 1.090381e-02 1.096297e-02 1.030408e-02 1.027000e-02 9.748599e-03 9.709929e-03 9.402511e-03 9.321722e-03 9.238792e-03 9.079209e-03 9.196210e-03 8.904665e-03 9.210496e-03 8.795901e-03 9.245072e-03 8.723553e-03 9.279529e-03 8.686293e-03 9.269872e-03 8.671302e-03 9.221412e-03 8.686607e-03 9.138981e-03 8.769755e-03 9.040279e-03 8.880444e-03 8.915911e-03 9.020576e-03 8.756324e-03 9.160661e-03 8.605293e-03 9.281137e-03 8.481373e-03 9.390209e-03 8.398110e-03 9.446878e-03 8.382018e-03 9.441862e-03 8.416540e-03 9.397258e-03 8.507981e-03 9.295529e-03 8.687534e-03 9.179425e-03 8.929500e-03 9.117451e-03 9.171255e-03 9.146813e-03 9.452785e-03 9.348128e-03 9.754404e-03 9.539262e-03 9.308246e-03 9.314729e-03 8.925968e-03 
9.182121e-03 9.100550e-03 9.219175e-03 9.485065e-03 9.445735e-03 1.004530e-02 9.283087e-03 8.957225e-03 8.886919e-03 8.320569e-03 7.992389e-03 8.096103e-03 6.756469e-03 6.273857e-03 6.499332e-03 6.304157e-03 6.393275e-03 6.383536e-03 6.304769e-03 6.484086e-03 6.264238e-03 7.054019e-03 8.900037e-03 8.510154e-03 8.441144e-03 8.949240e-03 8.161863e-03 9.107880e-03 8.082317e-03 9.208027e-03 8.188044e-03 9.281959e-03 8.387202e-03 9.290804e-03 8.570184e-03 9.211715e-03 8.705285e-03 9.100366e-03 8.854893e-03 9.069203e-03 9.042449e-03 9.102274e-03 9.243709e-03 9.208478e-03 9.460469e-03 9.362782e-03 9.637875e-03 9.547960e-03 9.837626e-03 9.839608e-03 1.015822e-02 1.028691e-02 1.056712e-02 1.073305e-02 1.085401e-02 1.087471e-02 1.052997e-02 1.075648e-02 1.140215e-02 1.051278e-02 1.101154e-02 1.101038e-02 1.069702e-02 1.127934e-02 1.082091e-02 1.107147e-02 1.123762e-02 1.120932e-02 1.177860e-02 9.946844e-03 9.894499e-03 1.004308e-02 1.021566e-02 9.668067e-03 9.727217e-03 9.356686e-03 9.387096e-03 9.166305e-03 9.084893e-03 9.036496e-03 8.838379e-03 9.004520e-03 8.660728e-03 9.063847e-03 8.573719e-03 9.207641e-03 8.545052e-03 9.340427e-03 8.524117e-03 9.425564e-03 8.496493e-03 9.424220e-03 8.468341e-03 9.344395e-03 8.472526e-03 9.231224e-03 8.570680e-03 9.116004e-03 8.741810e-03 8.976508e-03 8.915906e-03 8.768728e-03 9.069720e-03 8.546929e-03 9.203422e-03 8.374438e-03 9.343081e-03 8.303811e-03 9.483053e-03 8.357785e-03 9.522441e-03 8.442438e-03 9.396185e-03 8.549591e-03 9.178493e-03 8.789774e-03 8.921236e-03 9.127334e-03 8.688409e-03 9.472253e-03 8.631279e-03 9.844889e-03 9.016117e-03 1.012204e-02 9.722136e-03 9.602970e-03 9.452475e-03 9.149656e-03 
8.486417e-03 7.878794e-03 8.808061e-03 9.147505e-03 1.002025e-02 1.242769e-02 8.785308e-03 7.413812e-03 9.537933e-03 7.081180e-03 8.906837e-03 7.206801e-03 7.864816e-03 6.388164e-03 6.945428e-03 6.536339e-03 6.740437e-03 6.740814e-03 6.496132e-03 6.942331e-03 6.290954e-03 8.537609e-03 7.718834e-03 8.331370e-03 7.133134e-03 8.795078e-03 7.204608e-03 8.815127e-03 7.324489e-03 8.835150e-03 7.573362e-03 8.869991e-03 7.862331e-03 8.794023e-03 8.044440e-03 8.622530e-03 8.176919e-03 8.451229e-03 8.367923e-03 8.455052e-03 8.593809e-03 8.513001e-03 8.852073e-03 8.702478e-03 9.212102e-03 8.927400e-03 9.388465e-03 9.107101e-03 9.568072e-03 9.344728e-03 9.790957e-03 9.600133e-03 9.825301e-03 9.545996e-03 9.265187e-03 8.480420e-03 6.206471e-03 5.748854e-03 8.144656e-03 6.366552e-03 7.952060e-03 8.666432e-03 7.539224e-03 9.986250e-03 9.281061e-03 9.183956e-03 1.138738e-02 9.961573e-03 1.230968e-02 1.176007e-02 1.161028e-02 1.282303e-02 1.257123e-02 1.054833e-02 1.000163e-02 8.800828e-03 8.722827e-03 8.133049e-03 8.177366e-03 7.899223e-03 7.933374e-03 7.905192e-03 7.782617e-03 7.987735e-03 7.775977e-03 8.247195e-03 7.832988e-03 8.442281e-03 7.880694e-03 8.593296e-03 7.867864e-03 8.625386e-03 7.859873e-03 8.550878e-03 7.821152e-03 8.412157e-03 7.876476e-03 8.274652e-03 8.077764e-03 8.233471e-03 8.266576e-03 7.997580e-03 8.391769e-03 7.725906e-03 8.486515e-03 7.592304e-03 8.689071e-03 7.531112e-03 8.907107e-03 7.610273e-03 8.959817e-03 7.713053e-03 8.869589e-03 7.728896e-03 8.737782e-03 7.924567e-03 8.441548e-03 8.209202e-03 8.144443e-03 8.376212e-03 8.158283e-03 8.723930e-03 8.583620e-03 1.066340e-02 9.887096e-03 8.732969e-03 8.861791e-03 7.850846e-03 
7.405513e-03 6.769933e-03 8.321428e-03 8.742619e-03 1.195033e-02 9.768249e-03 1.217668e-02 3.937624e-03 6.258460e-03 4.311388e-03 6.362762e-03 6.533476e-03 6.761400e-03 5.832529e-03 6.358735e-03 5.980342e-03 6.180968e-03 6.169359e-03 5.976526e-03 6.343245e-03 5.770360e-03 7.228783e-03 5.743086e-03 6.044767e-03 4.069014e-03 6.046133e-03 3.787266e-03 5.730810e-03 3.935624e-03 5.809986e-03 4.428668e-03 6.040842e-03 5.051080e-03 6.114803e-03 5.337947e-03 5.731333e-03 5.120154e-03 5.135569e-03 5.149899e-03 5.281356e-03 5.591375e-03 5.479947e-03 5.994181e-03 5.941728e-03 6.649268e-03 6.444539e-03 6.886239e-03 6.612125e-03 6.932369e-03 6.945365e-03 7.580993e-03 8.209371e-03 9.066971e-03 1.039662e-02 1.194549e-02 1.437463e-02 1.411039e-02 1.372927e-02 1.207128e-02 9.954065e-03 1.195897e-02 8.186064e-03 9.032054e-03 1.046621e-02 6.332884e-03 1.014204e-02 7.563483e-03 7.997616e-03 1.073088e-02 3.138636e-03 4.290877e-03 2.607114e-03 7.033961e-03 7.496669e-03 5.994033e-03 5.256554e-03 5.003978e-03 4.953274e-03 4.923263e-03 4.866061e-03 4.699250e-03 4.826944e-03 4.408337e-03 4.910102e-03 4.547529e-03 5.518973e-03 4.827453e-03 5.910016e-03 4.919551e-03 6.173998e-03 4.890754e-03 6.144356e-03 4.718490e-03 5.860475e-03 4.493797e-03 5.603884e-03 4.682338e-03 5.601327e-03 5.142747e-03 5.589656e-03 5.454426e-03 5.183020e-03 5.611622e-03 4.676859e-03 5.602999e-03 4.238754e-03 5.738399e-03 4.150771e-03 6.412192e-03 4.687383e-03 6.851118e-03 4.853722e-03 6.368426e-03 4.547779e-03 5.857994e-03 4.948258e-03 5.336920e-03 5.641644e-03 4.541772e-03 6.234506e-03 3.689138e-03 6.868782e-03 4.650755e-03 9.232560e-03 1.218323e-02 8.291947e-03 8.587214e-03 6.768526e-03 
3.978304e-03 1.164061e-03 5.938115e-03 4.264306e-03 5.571977e-03 1.484954e-02 1.393513e-02 1.754633e-03 1.649272e-03 1.593865e-03 2.519556e-03 3.299345e-03 6.404440e-03 4.338870e-03 5.711746e-03 4.838336e-03 5.310569e-03 5.293166e-03 4.864732e-03 5.952949e-03 4.087024e-03 7.133461e-03 3.359579e-03 3.845469e-03 1.216423e-03 2.371606e-03 4.291434e-04 1.203441e-03 4.182175e-04 1.424848e-03 8.392308e-04 1.712531e-03 1.163178e-03 1.081605e-03 1.738690e-03 4.140522e-04 1.764619e-03 6.804632e-04 4.518612e-04 1.149442e-03 9.760664e-04 8.892789e-04 1.582402e-03 1.327297e-03 2.000070e-03 1.392268e-03 2.383562e-03 2.023901e-03 2.311198e-03 2.126385e-03 2.853084e-03 3.690507e-03 4.885539e-03 6.529082e-03 8.373356e-03 1.112837e-02 1.403869e-02 1.542930e-02 9.923120e-03 1.069333e-02 8.267533e-03 5.051488e-03 6.581209e-03 2.729835e-03 2.368341e-03 2.056580e-03 2.817757e-03 2.335058e-03 7.191816e-03 9.427705e-03 8.078526e-03 1.161145e-02 9.513188e-03 7.363160e-03 4.860867e-03 3.783990e-03 1.917261e-03 1.663340e-03 6.688719e-04 1.446769e-03 5.792546e-04 1.492680e-03 5.888254e-04 3.962856e-04 1.399750e-03 4.991880e-04 9.507824e-04 9.117338e-04 6.436770e-04 1.173114e-03 2.594282e-04 1.160467e-03 7.968564e-04 8.493625e-04 8.166109e-04 7.127288e-04 4.759597e-04 1.467685e-03 1.062380e-03 1.011404e-03 1.837378e-03 6.320536e-04 2.201276e-03 5.604693e-04 2.114630e-03 1.417098e-03 1.570409e-03 2.176396e-03 2.691328e-03 1.115677e-03 3.013747e-03 1.159362e-03 1.982450e-03 1.519229e-03 1.299154e-03 1.781659e-03 2.021981e-03 2.771636e-03 2.272500e-03 3.887965e-03 3.487458e-03 4.535612e-03 6.578694e-03 1.963334e-02 7.087615e-03 7.073371e-03 5.517415e-03 2.833301e-03 
1.348582e-03 2.884905e-03 9.437622e-04 7.003608e-03 1.355778e-02 1.525072e-02 9.214173e-03 2.739722e-03 3.144990e-03 2.681936e-03 4.322700e-03 3.883466e-03 6.611789e-03 2.457275e-03 5.137903e-03 1.737745e-03 4.222369e-03 1.563181e-03 3.591031e-03 2.211448e-03 3.320378e-03 3.764802e-03 2.099508e-03 2.338472e-03 1.878505e-03 2.019093e-03 2.171874e-03 1.062522e-03 1.370032e-03 1.544680e-03 9.855332e-04 2.006148e-03 6.593218e-04 1.374721e-03 1.740755e-03 1.404253e-03 2.408267e-03 7.366622e-04 1.155403e-04 1.478583e-03 5.792707e-04 1.276860e-03 1.199177e-03 1.374449e-03 1.320600e-03 8.219391e-04 9.358054e-04 1.593986e-03 1.187748e-03 9.618749e-04 1.968500e-03 1.861897e-03 3.373045e-03 3.512035e-03 5.160456e-03 5.448533e-03 7.241668e-03 7.855663e-03 5.738839e-03 4.591123e-03 4.735908e-03 1.105020e-03 2.769884e-03 4.101653e-04 5.274869e-04 1.727811e-03 3.084804e-03 2.803717e-03 5.939590e-03 5.260363e-03 4.362679e-03 6.597019e-03 5.496992e-03 4.439020e-03 3.346322e-03 2.819535e-03 2.251860e-03 1.171764e-03 9.057418e-04 1.513942e-03 8.255375e-04 1.547083e-03 6.924483e-04 2.870784e-04 1.782322e-03 6.016514e-04 1.344687e-03 3.169171e-04 7.175318e-04 5.207984e-04 3.211951e-04 8.933695e-04 1.101108e-03 6.044188e-04 9.358125e-04 1.188699e-03 7.030099e-04 1.800420e-03 9.752057e-04 1.257652e-03 1.495077e-03 9.591300e-04 1.774959e-03 5.298700e-04 2.091840e-03 3.852045e-04 4.318209e-04 2.147265e-03 2.211149e-03 1.533086e-03 9.258524e-04 2.233764e-03 3.320652e-04 3.090324e-03 2.054757e-03 2.484955e-03 3.244432e-03 3.001286e-03 3.601038e-03 3.664820e-03 2.612882e-03 2.492273e-03 4.077119e-03 2.538273e-02 3.948339e-03 7.119934e-03 3.103014e-03 2.121928e-03 
3.935470e-03 1.858061e-03 5.378480e-03 2.697734e-03 1.416707e-02 1.463941e-03 1.740470e-02 7.075967e-03 3.475184e-03 4.761281e-03 3.496007e-03 6.711837e-03 5.889783e-03 4.277682e-03 6.407785e-03 4.523034e-03 6.525395e-03 5.567389e-03 5.775752e-03 6.722529e-03 5.468121e-03 7.104961e-03 5.008582e-03 4.950089e-03 2.245054e-03 3.884356e-03 9.662750e-04 2.986328e-03 5.461389e-04 2.726347e-03 6.711010e-04 2.723650e-03 1.313194e-03 2.635600e-03 1.793607e-03 2.057449e-03 1.628819e-03 1.091874e-03 1.128066e-03 1.249313e-03 1.696479e-03 1.399029e-03 2.147678e-03 1.791270e-03 2.670452e-03 2.252066e-03 2.770996e-03 2.588011e-03 2.629260e-03 2.758798e-03 2.942459e-03 3.766134e-03 4.469442e-03 6.079496e-03 7.394476e-03 1.005322e-02 1.096667e-02 1.154875e-02 9.026491e-03 8.825268e-03 9.387486e-03 6.683789e-03 8.145862e-03 8.236110e-03 5.576051e-03 7.857666e-03 4.089536e-03 4.866429e-03 7.489899e-03 3.669261e-03 3.292439e-03 5.057606e-03 6.319283e-03 5.633705e-03 3.435759e-03 2.371491e-03 1.602311e-03 1.902245e-03 1.736977e-03 2.140146e-03 1.460560e-03 1.744024e-03 5.983086e-04 1.385682e-03 8.864373e-04 2.062813e-03 1.199693e-03 2.589414e-03 1.128317e-03 2.872799e-03 1.096354e-03 2.803686e-03 9.620653e-04 2.340676e-03 6.253510e-04 2.205178e-03 9.088849e-04 2.319419e-03 1.759413e-03 2.043100e-03 2.103766e-03 1.544994e-03 2.393714e-03 8.586037e-04 2.605881e-03 1.482083e-04 2.364390e-03 9.699074e-04 3.424096e-03 9.804059e-04 3.933202e-03 1.710142e-03 3.079073e-03 2.290273e-03 2.438096e-03 2.133557e-03 2.345041e-03 3.144966e-03 2.354588e-03 4.430672e-03 1.969205e-03 4.998519e-03 5.683488e-03 1.121585e-02 8.053851e-03 3.673259e-03 4.544121e-03 2.078811e-03 
2.821453e-03 2.711824e-04 3.326168e-03 2.010243e-03 5.541566e-03 8.441359e-03 6.561859e-03 2.232650e-03 1.337854e-03 1.398365e-03 3.283422e-03 1.668240e-03 7.206852e-03 3.388087e-03 5.596150e-03 1.713407e-03 4.943750e-03 9.647531e-04 4.241611e-03 2.285500e-03 4.793770e-03 4.601237e-03 1.660631e-03 1.242818e-03 8.365728e-04 2.903600e-04 6.043831e-04 3.051339e-04 3.472853e-04 4.742179e-04 2.055022e-04 5.247214e-04 5.537972e-04 5.301316e-04 9.500758e-04 3.503434e-04 8.711553e-04 1.456842e-04 6.677716e-04 2.446456e-04 9.557990e-04 2.498723e-04 1.236926e-03 4.091200e-04 1.389318e-03 7.560837e-04 1.524727e-03 1.218119e-03 1.569331e-03 1.665745e-03 1.843236e-03 2.404567e-03 2.637486e-03 3.514011e-03 3.632618e-03 4.613966e-03 3.652239e-03 1.409454e-03 3.142260e-03 3.253258e-03 3.924652e-03 5.205954e-03 4.306258e-03 6.874923e-03 5.719128e-03 7.111594e-03 7.307342e-03 6.833758e-03 8.706183e-03 4.728935e-03 3.112594e-03 3.365096e-03 3.668217e-03 2.706893e-03 2.254936e-03 1.715857e-03 1.672858e-03 1.376124e-03 1.337315e-03 1.209698e-03 8.985749e-04 8.931242e-04 4.040586e-04 8.367116e-04 3.928220e-04 1.139629e-03 4.837254e-04 1.473695e-03 3.780674e-04 1.623741e-03 3.500527e-04 1.568579e-03 2.813808e-04 1.310633e-03 2.781736e-04 1.209481e-03 6.438401e-04 1.209948e-03 1.190028e-03 8.473631e-04 1.532615e-03 5.186290e-04 1.881154e-03 3.254138e-04 2.155867e-03 7.299432e-04 2.159407e-03 8.864469e-04 2.572356e-03 4.197453e-04 2.800695e-03 5.260441e-04 2.085343e-03 1.000529e-03 1.197160e-03 1.312199e-03 8.739981e-04 2.194530e-03 1.098633e-03 3.311806e-03 1.710082e-03 4.111513e-03 1.879960e-03 3.758666e-03 3.939572e-03 1.742974e-03 3.008558e-03 8.385016e-04 
