# vtk DataFile Version 2.0
Comment goes here
ASCII

DATASET STRUCTURED_POINTS
FIELD FieldData 1
TIME 1 1 double
0.39000000
DIMENSIONS    128   16   1

ORIGIN    0.000   0.000   0.000
SPACING   0.0078125 0.015625   1.000

POINT_DATA   2048
SCALARS uX double
LOOKUP_TABLE default

-1.603003e-03 -2.556279e-03 -7.975648e-04 -2.658010e-03 -1.589486e-04 -5.609728e-03 -4.184043e-03 -5.380260e-04 -2.746995e-03 2.858933e-03 2.344649e-03 9.705083e-03 1.318867e-02 2.177184e-02 2.550996e-02 2.941338e-02 2.850524e-02 3.063024e-02 2.754983e-02 2.630524e-02 2.166028e-02 1.424153e-02 8.569297e-03 4.481197e-03 1.617502e-03 5.563598e-05 -1.264091e-03 -1.994174e-03 -2.404579e-03 -3.002313e-03 -2.765221e-03 -3.517093e-03 -2.796709e-03 -3.794502e-03 -2.736011e-03 -3.953134e-03 -2.688143e-03 -4.017921e-03 -2.668867e-03 -3.976127e-03 -2.674615e-03 -3.844277e-03 -2.729516e-03 -3.675304e-03 -2.860765e-03 -3.509048e-03 -3.059962e-03 -3.359209e-03 -3.309796e-03 -3.258333e-03 -3.631456e-03 -3.288660e-03 -4.110535e-03 -3.620364e-03 -5.005707e-03 -4.731656e-03 -6.858287e-03 -5.263085e-03 -3.403446e-03 -2.534876e-03 -2.863954e-03 -7.072533e-04 -1.891446e-03 -5.794096e-04 -5.382051e-04 -8.247740e-04 -8.730862e-04 -1.481017e-03 -3.442323e-03 -6.527826e-03 -2.693542e-03 2.107513e-03 1.884745e-03 -8.026010e-04 -7.166757e-04 -2.259413e-03 -1.584816e-03 -2.732544e-03 -1.948923e-03 -2.814613e-03 -2.156597e-03 -2.707945e-03 -2.343719e-03 -2.512267e-03 -2.550971e-03 -2.279470e-03 -2.774390e-03 -2.045571e-03 -2.991456e-03 -1.837372e-03 -3.166900e-03 -1.677613e-03 -3.267181e-03 -1.592816e-03 -3.267124e-03 -1.603460e-03 -3.145449e-03 -1.721569e-03 -2.900752e-03 -1.961344e-03 -2.561117e-03 -2.327812e-03 -2.161257e-03 -2.782426e-03 -1.717343e-03 -3.238956e-03 -1.251977e-03 -3.616271e-03 -8.422899e-04 -3.872167e-03 -6.005439e-04 -3.965745e-03 -6.082789e-04 -3.826439e-03 -8.934217e-04 -3.385682e-03 -1.453323e-03 -2.635693e-03 -2.280583e-03 -1.687879e-03 -3.391393e-03 -8.708155e-04 -5.055255e-03 -1.785772e-04 -1.386953e-03 -7.288918e-04 -1.505777e-03 -2.009400e-03 
3.969379e-04 -4.392130e-04 1.545111e-03 -6.162819e-05 3.587160e-03 -3.723516e-03 -2.895189e-03 1.507977e-03 -3.536229e-03 2.045740e-03 -2.945738e-03 2.344703e-03 -2.810708e-03 7.158975e-04 -4.363747e-03 -1.699365e-03 -4.166192e-03 -2.629659e-03 -3.246340e-03 -2.801096e-03 -1.023005e-03 -1.662583e-03 7.093619e-05 -9.192272e-04 -1.509705e-04 -6.989754e-04 -1.622394e-04 -6.591377e-04 -6.032306e-05 -7.003672e-04 1.376989e-04 -7.381599e-04 3.740784e-04 -7.677715e-04 5.652669e-04 -7.980754e-04 6.710916e-04 -7.989759e-04 7.130267e-04 -7.263110e-04 6.991440e-04 -6.062825e-04 5.942545e-04 -4.796431e-04 4.107173e-04 -3.248860e-04 2.208516e-04 -1.097399e-04 5.585239e-05 1.143856e-04 -1.336119e-04 2.619045e-04 -3.657966e-04 3.108450e-04 -5.798254e-04 3.739659e-04 -3.915002e-04 8.089280e-04 5.312576e-04 2.115416e-03 1.180297e-03 2.651688e-03 2.424192e-03 2.405149e-03 2.874232e-03 2.824949e-03 1.972193e-03 2.121354e-03 1.746873e-03 -1.281630e-04 1.951202e-03 3.123034e-03 3.237018e-03 1.872996e-03 2.272163e-03 9.530927e-04 1.720495e-03 5.799483e-04 1.451174e-03 5.419349e-04 1.294583e-03 6.865379e-04 1.137325e-03 8.841847e-04 9.064839e-04 1.068382e-03 6.255134e-04 1.243501e-03 3.601827e-04 1.426452e-03 1.801464e-04 1.609651e-03 1.010928e-04 1.722251e-03 1.004429e-04 1.711086e-03 1.889764e-04 1.568358e-03 3.930928e-04 1.316423e-03 7.239164e-04 9.618066e-04 1.134065e-03 5.175656e-04 1.596525e-03 6.940083e-05 2.087731e-03 -3.124168e-04 2.515984e-03 -5.937376e-04 2.762940e-03 -7.338727e-04 2.748278e-03 -6.375459e-04 2.471679e-03 -1.962288e-04 1.933037e-03 6.035339e-04 1.071806e-03 1.653098e-03 -2.397652e-04 2.736178e-03 -2.421421e-03 4.079706e-03 2.582850e-03 1.733721e-03 7.610991e-04 5.808207e-06 
-3.281055e-03 -3.242593e-03 -3.610691e-04 1.937778e-03 8.902867e-03 8.258298e-03 5.683965e-03 7.531493e-03 4.861880e-03 4.957850e-03 2.840201e-03 1.023792e-04 -2.049172e-03 -6.510449e-03 -7.121129e-03 -9.762485e-03 -8.552940e-03 -9.891121e-03 -8.602586e-03 -7.092511e-03 -6.904759e-03 -6.806865e-04 -4.794684e-04 4.360263e-03 3.531075e-03 6.536100e-03 5.330329e-03 7.222818e-03 6.240794e-03 7.347785e-03 6.883707e-03 7.327560e-03 7.422028e-03 7.243953e-03 7.812511e-03 7.099021e-03 8.038646e-03 6.960241e-03 8.172114e-03 6.914286e-03 8.217850e-03 6.896734e-03 8.090926e-03 6.858291e-03 7.843860e-03 6.906659e-03 7.642870e-03 7.131113e-03 7.525716e-03 7.417511e-03 7.361388e-03 7.601147e-03 7.121548e-03 7.718432e-03 7.020581e-03 8.020983e-03 7.012771e-03 6.452810e-03 2.692509e-03 1.965144e-03 1.434866e-03 1.284457e-03 6.556868e-06 2.603641e-03 1.196982e-03 2.849083e-03 6.761385e-03 6.352438e-03 1.369783e-02 1.832910e-02 1.239954e-02 4.368135e-03 4.759505e-03 5.540986e-03 6.934535e-03 6.598872e-03 7.785905e-03 7.137727e-03 8.234480e-03 7.597384e-03 8.503879e-03 8.053039e-03 8.605545e-03 8.415479e-03 8.467378e-03 8.634754e-03 8.153788e-03 8.782911e-03 7.813558e-03 8.974460e-03 7.607623e-03 9.245365e-03 7.531738e-03 9.450574e-03 7.492011e-03 9.490703e-03 7.499760e-03 9.375703e-03 7.628866e-03 9.171333e-03 7.928327e-03 8.872824e-03 8.320290e-03 8.455994e-03 8.784226e-03 8.022384e-03 9.315134e-03 7.626356e-03 9.803619e-03 7.273785e-03 1.010641e-02 6.974461e-03 1.012967e-02 6.864203e-03 9.941460e-03 7.139421e-03 9.554302e-03 7.824779e-03 8.835406e-03 8.840264e-03 7.704496e-03 1.032830e-02 6.629118e-03 1.289812e-02 7.816408e-03 1.598080e-03 -1.160142e-03 -3.332836e-03 
-5.452174e-03 -3.277062e-03 -2.623814e-03 4.488341e-03 6.693786e-03 2.140008e-02 1.531683e-02 1.192832e-02 1.712365e-02 1.089686e-02 1.708309e-02 1.078053e-02 1.747057e-02 1.293248e-02 1.883011e-02 1.548079e-02 1.846751e-02 1.661394e-02 1.732819e-02 1.701495e-02 1.487558e-02 1.602672e-02 1.297636e-02 1.553091e-02 1.274378e-02 1.532053e-02 1.270472e-02 1.510819e-02 1.278126e-02 1.490700e-02 1.295995e-02 1.472528e-02 1.319177e-02 1.453022e-02 1.340890e-02 1.430120e-02 1.358597e-02 1.406402e-02 1.373874e-02 1.385232e-02 1.385144e-02 1.364482e-02 1.387834e-02 1.343297e-02 1.382928e-02 1.325787e-02 1.374411e-02 1.312822e-02 1.360960e-02 1.297667e-02 1.335975e-02 1.270192e-02 1.292257e-02 1.221270e-02 1.221986e-02 1.135640e-02 1.115253e-02 1.120669e-02 1.218363e-02 1.177224e-02 1.286948e-02 1.281064e-02 1.292796e-02 1.395734e-02 1.373097e-02 1.365640e-02 1.502458e-02 1.395165e-02 1.384162e-02 1.420231e-02 1.452319e-02 1.471274e-02 1.557847e-02 1.482654e-02 1.498747e-02 1.452761e-02 1.467956e-02 1.436534e-02 1.454022e-02 1.429991e-02 1.449353e-02 1.429523e-02 1.446883e-02 1.430466e-02 1.440474e-02 1.430124e-02 1.428080e-02 1.429079e-02 1.412933e-02 1.432486e-02 1.401272e-02 1.442459e-02 1.392231e-02 1.453779e-02 1.382306e-02 1.463286e-02 1.372505e-02 1.471767e-02 1.365982e-02 1.480124e-02 1.363453e-02 1.485833e-02 1.362926e-02 1.487014e-02 1.365682e-02 1.484758e-02 1.372976e-02 1.478033e-02 1.384058e-02 1.465164e-02 1.397074e-02 1.443769e-02 1.410679e-02 1.416864e-02 1.430091e-02 1.391026e-02 1.457551e-02 1.366769e-02 1.492396e-02 1.342873e-02 1.547242e-02 1.322563e-02 1.693502e-02 1.146884e-02 4.933875e-03 -7.960864e-04 -3.488341e-03 -4.718560e-03 
-2.501610e-02 -2.346698e-02 -2.632473e-02 -2.411542e-02 -3.041446e-02 -2.008644e-02 -2.061119e-02 -2.451880e-02 -1.901156e-02 -2.282565e-02 -1.826799e-02 -1.959040e-02 -1.769630e-02 -1.820282e-02 -1.893892e-02 -1.863481e-02 -1.914692e-02 -1.891808e-02 -1.883732e-02 -1.934788e-02 -1.782586e-02 -1.961435e-02 -1.889617e-02 -2.077503e-02 -2.066856e-02 -2.135923e-02 -2.146474e-02 -2.142578e-02 -2.187619e-02 -2.136631e-02 -2.221397e-02 -2.135216e-02 -2.252108e-02 -2.135834e-02 -2.271692e-02 -2.133409e-02 -2.276775e-02 -2.130801e-02 -2.273153e-02 -2.134038e-02 -2.261200e-02 -2.135715e-02 -2.232953e-02 -2.130108e-02 -2.193055e-02 -2.126535e-02 -2.156258e-02 -2.132352e-02 -2.122905e-02 -2.132987e-02 -2.073487e-02 -2.106592e-02 -1.996504e-02 -2.047921e-02 -1.893864e-02 -1.949717e-02 -1.747900e-02 -1.835814e-02 -1.690678e-02 -1.692628e-02 -1.716540e-02 -1.788606e-02 -1.688565e-02 -1.969842e-02 -1.883464e-02 -1.946775e-02 -2.308339e-02 -2.194069e-02 -2.474186e-02 -2.792693e-02 -2.483740e-02 -2.215037e-02 -2.264237e-02 -2.242624e-02 -2.314921e-02 -2.238872e-02 -2.319453e-02 -2.237261e-02 -2.318227e-02 -2.248905e-02 -2.317833e-02 -2.272727e-02 -2.313274e-02 -2.294027e-02 -2.292875e-02 -2.304249e-02 -2.261044e-02 -2.309502e-02 -2.230721e-02 -2.319614e-02 -2.215312e-02 -2.337483e-02 -2.213240e-02 -2.349158e-02 -2.214213e-02 -2.344929e-02 -2.218149e-02 -2.325799e-02 -2.231814e-02 -2.299377e-02 -2.261060e-02 -2.266644e-02 -2.298520e-02 -2.225093e-02 -2.341445e-02 -2.184490e-02 -2.389086e-02 -2.150283e-02 -2.430313e-02 -2.123096e-02 -2.451141e-02 -2.104670e-02 -2.442748e-02 -2.108439e-02 -2.410772e-02 -2.153558e-02 -2.355947e-02 -2.245145e-02 -2.266272e-02 -2.384437e-02 -2.138872e-02 -2.613562e-02 -2.031045e-02 -3.160480e-02 -3.026200e-02 -2.694988e-02 -2.594223e-02 -2.428587e-02 
-3.036099e-02 -3.111663e-02 -3.313523e-02 -3.700701e-02 -4.184776e-02 -4.696850e-02 -4.141165e-02 -4.138270e-02 -4.048242e-02 -3.890631e-02 -3.817737e-02 -3.572243e-02 -3.499699e-02 -3.449033e-02 -3.488576e-02 -3.460384e-02 -3.479996e-02 -3.475077e-02 -3.465140e-02 -3.490984e-02 -3.446406e-02 -3.500253e-02 -3.685656e-02 -3.920984e-02 -3.918496e-02 -4.108970e-02 -4.032015e-02 -4.182341e-02 -4.098323e-02 -4.207605e-02 -4.149739e-02 -4.215626e-02 -4.193637e-02 -4.213546e-02 -4.225391e-02 -4.202584e-02 -4.243432e-02 -4.188367e-02 -4.252485e-02 -4.177142e-02 -4.251876e-02 -4.163969e-02 -4.234518e-02 -4.145109e-02 -4.203016e-02 -4.126881e-02 -4.165986e-02 -4.110732e-02 -4.119069e-02 -4.079161e-02 -4.040993e-02 -4.004581e-02 -3.909437e-02 -3.863035e-02 -3.702978e-02 -3.629729e-02 -3.460920e-02 -3.629999e-02 -3.756891e-02 -3.852921e-02 -3.932882e-02 -4.086304e-02 -4.061059e-02 -4.227524e-02 -4.223611e-02 -4.185933e-02 -4.326855e-02 -4.223883e-02 -4.190958e-02 -4.263213e-02 -4.422083e-02 -4.576515e-02 -4.611593e-02 -4.461358e-02 -4.464911e-02 -4.358321e-02 -4.393032e-02 -4.312325e-02 -4.357951e-02 -4.298534e-02 -4.341925e-02 -4.304980e-02 -4.331292e-02 -4.316387e-02 -4.312640e-02 -4.323717e-02 -4.285115e-02 -4.328873e-02 -4.257070e-02 -4.339617e-02 -4.239659e-02 -4.358269e-02 -4.231658e-02 -4.373668e-02 -4.225617e-02 -4.378226e-02 -4.222304e-02 -4.372758e-02 -4.227517e-02 -4.361802e-02 -4.244812e-02 -4.344489e-02 -4.269067e-02 -4.318822e-02 -4.299242e-02 -4.290970e-02 -4.334897e-02 -4.263736e-02 -4.368963e-02 -4.237348e-02 -4.392267e-02 -4.212417e-02 -4.399005e-02 -4.199425e-02 -4.395877e-02 -4.214555e-02 -4.386653e-02 -4.263587e-02 -4.369436e-02 -4.349263e-02 -4.356680e-02 -4.486169e-02 -4.405740e-02 -4.619060e-02 -3.989291e-02 -3.460552e-02 -3.201466e-02 -3.052079e-02 
-3.747964e-02 -3.820338e-02 -3.899696e-02 -4.169297e-02 -4.336582e-02 -4.916654e-02 -4.667449e-02 -4.587878e-02 -4.702602e-02 -4.566906e-02 -4.685563e-02 -4.572702e-02 -4.615433e-02 -4.564366e-02 -4.604497e-02 -4.576236e-02 -4.595203e-02 -4.592097e-02 -4.578407e-02 -4.608632e-02 -4.558315e-02 -4.617309e-02 -4.611173e-02 -4.729178e-02 -4.625575e-02 -4.756744e-02 -4.634237e-02 -4.754852e-02 -4.645112e-02 -4.741896e-02 -4.660372e-02 -4.726238e-02 -4.677908e-02 -4.709870e-02 -4.693527e-02 -4.693007e-02 -4.704432e-02 -4.676707e-02 -4.709651e-02 -4.661777e-02 -4.707542e-02 -4.646813e-02 -4.695885e-02 -4.630501e-02 -4.674567e-02 -4.612566e-02 -4.643962e-02 -4.590063e-02 -4.601004e-02 -4.555229e-02 -4.539141e-02 -4.497902e-02 -4.452230e-02 -4.411605e-02 -4.344295e-02 -4.310316e-02 -4.240804e-02 -4.176019e-02 -4.158389e-02 -4.242154e-02 -4.123097e-02 -4.234058e-02 -4.264040e-02 -4.202429e-02 -4.365999e-02 -4.400530e-02 -4.371845e-02 -4.591918e-02 -4.667922e-02 -4.653818e-02 -4.781678e-02 -4.614600e-02 -4.621926e-02 -4.633605e-02 -4.710534e-02 -4.704457e-02 -4.762925e-02 -4.737297e-02 -4.783057e-02 -4.754027e-02 -4.787673e-02 -4.765669e-02 -4.783580e-02 -4.775366e-02 -4.772887e-02 -4.783532e-02 -4.757497e-02 -4.790919e-02 -4.741153e-02 -4.799523e-02 -4.728111e-02 -4.809366e-02 -4.719299e-02 -4.817245e-02 -4.714020e-02 -4.820516e-02 -4.712930e-02 -4.818696e-02 -4.717572e-02 -4.812202e-02 -4.728234e-02 -4.800938e-02 -4.743653e-02 -4.785590e-02 -4.762722e-02 -4.768186e-02 -4.783531e-02 -4.750476e-02 -4.802925e-02 -4.734167e-02 -4.817315e-02 -4.721221e-02 -4.824328e-02 -4.715748e-02 -4.825104e-02 -4.722285e-02 -4.821151e-02 -4.740712e-02 -4.813646e-02 -4.763025e-02 -4.804064e-02 -4.759801e-02 -4.784879e-02 -4.585471e-02 -4.217294e-02 -4.007817e-02 -3.843791e-02 -3.777378e-02 
-3.726404e-02 -3.808136e-02 -3.846288e-02 -4.033190e-02 -4.110623e-02 -4.361789e-02 -4.367884e-02 -4.496136e-02 -4.577018e-02 -4.694201e-02 -4.862328e-02 -5.030747e-02 -5.232641e-02 -5.206325e-02 -5.224761e-02 -5.208601e-02 -5.217250e-02 -5.214701e-02 -5.210576e-02 -5.222425e-02 -5.206903e-02 -5.228970e-02 -4.886919e-02 -4.832805e-02 -4.607972e-02 -4.644938e-02 -4.488082e-02 -4.552756e-02 -4.438096e-02 -4.501564e-02 -4.423230e-02 -4.470055e-02 -4.425547e-02 -4.448243e-02 -4.434316e-02 -4.431528e-02 -4.443571e-02 -4.418640e-02 -4.450545e-02 -4.409436e-02 -4.453268e-02 -4.402744e-02 -4.449702e-02 -4.396927e-02 -4.438864e-02 -4.390527e-02 -4.420151e-02 -4.380458e-02 -4.390893e-02 -4.360368e-02 -4.345923e-02 -4.322346e-02 -4.280631e-02 -4.261378e-02 -4.196097e-02 -4.178330e-02 -4.080322e-02 -4.044297e-02 -4.116275e-02 -4.209528e-02 -4.160073e-02 -4.286319e-02 -4.293528e-02 -4.311754e-02 -4.403554e-02 -4.435293e-02 -4.414488e-02 -4.505810e-02 -4.518936e-02 -4.433400e-02 -4.513730e-02 -4.551255e-02 -4.596863e-02 -4.543347e-02 -4.564689e-02 -4.508353e-02 -4.537895e-02 -4.489716e-02 -4.520880e-02 -4.485290e-02 -4.509625e-02 -4.489917e-02 -4.499491e-02 -4.498873e-02 -4.487653e-02 -4.509252e-02 -4.473972e-02 -4.520040e-02 -4.460380e-02 -4.531183e-02 -4.449391e-02 -4.541889e-02 -4.442176e-02 -4.549896e-02 -4.438945e-02 -4.553225e-02 -4.440346e-02 -4.551124e-02 -4.447192e-02 -4.543638e-02 -4.459477e-02 -4.530973e-02 -4.476074e-02 -4.514167e-02 -4.495787e-02 -4.495607e-02 -4.516854e-02 -4.477611e-02 -4.536100e-02 -4.461998e-02 -4.549719e-02 -4.450655e-02 -4.554830e-02 -4.446198e-02 -4.550282e-02 -4.449956e-02 -4.534180e-02 -4.457298e-02 -4.500736e-02 -4.452529e-02 -4.436781e-02 -4.402762e-02 -4.315026e-02 -4.227961e-02 -4.031196e-02 -3.925049e-02 -3.794195e-02 -3.768264e-02 
-4.023131e-02 -4.101804e-02 -4.121937e-02 -4.299822e-02 -4.346246e-02 -4.579458e-02 -4.598133e-02 -4.712201e-02 -4.826406e-02 -4.917507e-02 -5.113931e-02 -5.266581e-02 -5.475511e-02 -5.445418e-02 -5.467616e-02 -5.449711e-02 -5.458693e-02 -5.458423e-02 -5.449214e-02 -5.468039e-02 -5.442876e-02 -5.474454e-02 -5.097534e-02 -5.049004e-02 -4.818079e-02 -4.865700e-02 -4.707827e-02 -4.782311e-02 -4.665421e-02 -4.737283e-02 -4.653918e-02 -4.708652e-02 -4.656541e-02 -4.687882e-02 -4.664663e-02 -4.671812e-02 -4.673780e-02 -4.659753e-02 -4.681719e-02 -4.651751e-02 -4.687082e-02 -4.647185e-02 -4.688333e-02 -4.644470e-02 -4.684026e-02 -4.641587e-02 -4.673142e-02 -4.636227e-02 -4.654842e-02 -4.625794e-02 -4.628751e-02 -4.608728e-02 -4.597296e-02 -4.588469e-02 -4.572318e-02 -4.583289e-02 -4.584609e-02 -4.602356e-02 -4.604871e-02 -4.633233e-02 -4.640152e-02 -4.691157e-02 -4.694259e-02 -4.761174e-02 -4.761072e-02 -4.830178e-02 -4.884622e-02 -4.889165e-02 -5.037385e-02 -5.014612e-02 -5.032340e-02 -5.033258e-02 -5.012536e-02 -4.916217e-02 -4.904025e-02 -4.822605e-02 -4.828871e-02 -4.766490e-02 -4.782796e-02 -4.739078e-02 -4.754807e-02 -4.729153e-02 -4.735710e-02 -4.729091e-02 -4.720597e-02 -4.734478e-02 -4.707423e-02 -4.742557e-02 -4.695804e-02 -4.751459e-02 -4.686285e-02 -4.759699e-02 -4.679689e-02 -4.765928e-02 -4.676801e-02 -4.769039e-02 -4.678223e-02 -4.768225e-02 -4.684053e-02 -4.762902e-02 -4.693718e-02 -4.753018e-02 -4.706397e-02 -4.739647e-02 -4.721380e-02 -4.724838e-02 -4.737567e-02 -4.710626e-02 -4.752827e-02 -4.698407e-02 -4.764367e-02 -4.689227e-02 -4.769781e-02 -4.683837e-02 -4.767301e-02 -4.681180e-02 -4.754282e-02 -4.675060e-02 -4.723850e-02 -4.649345e-02 -4.659491e-02 -4.574510e-02 -4.530015e-02 -4.411125e-02 -4.277797e-02 -4.181709e-02 -4.080750e-02 -4.060830e-02 
-3.726588e-02 -3.808371e-02 -3.846426e-02 -4.033362e-02 -4.110720e-02 -4.361904e-02 -4.367937e-02 -4.496258e-02 -4.577023e-02 -4.694259e-02 -4.862299e-02 -5.030722e-02 -5.232603e-02 -5.206221e-02 -5.224673e-02 -5.208422e-02 -5.217087e-02 -5.214420e-02 -5.210335e-02 -5.222062e-02 -5.206674e-02 -5.228679e-02 -4.886504e-02 -4.832309e-02 -4.608034e-02 -4.645281e-02 -4.489746e-02 -4.554972e-02 -4.441814e-02 -4.505820e-02 -4.428709e-02 -4.476152e-02 -4.432444e-02 -4.456077e-02 -4.442557e-02 -4.441507e-02 -4.454135e-02 -4.432715e-02 -4.466526e-02 -4.431858e-02 -4.480145e-02 -4.439456e-02 -4.493692e-02 -4.453319e-02 -4.505317e-02 -4.471662e-02 -4.516052e-02 -4.495631e-02 -4.530109e-02 -4.528017e-02 -4.552004e-02 -4.569681e-02 -4.581365e-02 -4.612505e-02 -4.601082e-02 -4.621753e-02 -4.572364e-02 -4.619688e-02 -4.608705e-02 -4.613383e-02 -4.611099e-02 -4.622140e-02 -4.601135e-02 -4.631507e-02 -4.587324e-02 -4.608652e-02 -4.576584e-02 -4.572766e-02 -4.575894e-02 -4.493510e-02 -4.520087e-02 -4.523785e-02 -4.533378e-02 -4.469210e-02 -4.500732e-02 -4.448092e-02 -4.490858e-02 -4.446738e-02 -4.488415e-02 -4.455014e-02 -4.486004e-02 -4.467209e-02 -4.480730e-02 -4.481616e-02 -4.473266e-02 -4.497714e-02 -4.464440e-02 -4.513903e-02 -4.454742e-02 -4.528283e-02 -4.445254e-02 -4.539650e-02 -4.438045e-02 -4.547651e-02 -4.435432e-02 -4.552027e-02 -4.438902e-02 -4.551993e-02 -4.448128e-02 -4.545721e-02 -4.460995e-02 -4.532014e-02 -4.476071e-02 -4.512772e-02 -4.493736e-02 -4.492426e-02 -4.514269e-02 -4.474809e-02 -4.534888e-02 -4.460973e-02 -4.550394e-02 -4.451403e-02 -4.556776e-02 -4.447667e-02 -4.552005e-02 -4.450673e-02 -4.534584e-02 -4.456882e-02 -4.500202e-02 -4.451967e-02 -4.436533e-02 -4.402973e-02 -4.315305e-02 -4.228493e-02 -4.031528e-02 -3.925501e-02 -3.794447e-02 -3.768591e-02 
-3.748248e-02 -3.820751e-02 -3.899935e-02 -4.169593e-02 -4.336731e-02 -4.916738e-02 -4.667425e-02 -4.588085e-02 -4.702314e-02 -4.566875e-02 -4.685212e-02 -4.572548e-02 -4.615341e-02 -4.564390e-02 -4.604426e-02 -4.576055e-02 -4.594959e-02 -4.591684e-02 -4.577996e-02 -4.608033e-02 -4.557861e-02 -4.616682e-02 -4.610745e-02 -4.728440e-02 -4.626311e-02 -4.757971e-02 -4.638292e-02 -4.760055e-02 -4.653385e-02 -4.751458e-02 -4.672455e-02 -4.739926e-02 -4.693438e-02 -4.727779e-02 -4.712793e-02 -4.716217e-02 -4.729481e-02 -4.708822e-02 -4.746043e-02 -4.710475e-02 -4.765052e-02 -4.722578e-02 -4.784804e-02 -4.741267e-02 -4.801325e-02 -4.762567e-02 -4.813964e-02 -4.786092e-02 -4.824789e-02 -4.811004e-02 -4.830927e-02 -4.826128e-02 -4.809767e-02 -4.789286e-02 -4.682637e-02 -4.565593e-02 -4.254215e-02 -4.281507e-02 -4.561630e-02 -4.329340e-02 -4.594763e-02 -4.762873e-02 -4.507944e-02 -5.062492e-02 -4.824687e-02 -4.935375e-02 -5.339032e-02 -5.055392e-02 -5.499192e-02 -5.475380e-02 -5.358645e-02 -5.648444e-02 -5.484275e-02 -5.157513e-02 -5.057778e-02 -4.888706e-02 -4.881537e-02 -4.782803e-02 -4.806870e-02 -4.745089e-02 -4.772701e-02 -4.736797e-02 -4.754043e-02 -4.742840e-02 -4.742282e-02 -4.756750e-02 -4.733325e-02 -4.773496e-02 -4.724621e-02 -4.788938e-02 -4.715525e-02 -4.801118e-02 -4.708054e-02 -4.810172e-02 -4.705156e-02 -4.816336e-02 -4.708667e-02 -4.818813e-02 -4.717957e-02 -4.814773e-02 -4.729896e-02 -4.801830e-02 -4.742680e-02 -4.782048e-02 -4.758001e-02 -4.761437e-02 -4.778086e-02 -4.744764e-02 -4.800327e-02 -4.731915e-02 -4.818303e-02 -4.722435e-02 -4.827920e-02 -4.718541e-02 -4.828409e-02 -4.723728e-02 -4.822046e-02 -4.740082e-02 -4.812831e-02 -4.762082e-02 -4.803762e-02 -4.760190e-02 -4.785398e-02 -4.586402e-02 -4.217794e-02 -4.008561e-02 -3.844148e-02 -3.777926e-02 
-3.036545e-02 -3.112227e-02 -3.313884e-02 -3.701136e-02 -4.185032e-02 -4.697066e-02 -4.141411e-02 -4.138831e-02 -4.048414e-02 -3.890951e-02 -3.817771e-02 -3.572250e-02 -3.499881e-02 -3.448868e-02 -3.488408e-02 -3.459953e-02 -3.479523e-02 -3.474160e-02 -3.464072e-02 -3.489297e-02 -3.445018e-02 -3.498482e-02 -3.681827e-02 -3.915065e-02 -3.914028e-02 -4.105521e-02 -4.034948e-02 -4.187895e-02 -4.110374e-02 -4.220618e-02 -4.167170e-02 -4.233660e-02 -4.214120e-02 -4.234549e-02 -4.245335e-02 -4.223490e-02 -4.261377e-02 -4.211986e-02 -4.276639e-02 -4.218662e-02 -4.305237e-02 -4.250102e-02 -4.342159e-02 -4.291157e-02 -4.371090e-02 -4.329698e-02 -4.393536e-02 -4.376242e-02 -4.431669e-02 -4.455675e-02 -4.516700e-02 -4.597283e-02 -4.681020e-02 -4.832348e-02 -4.964015e-02 -5.209634e-02 -5.377566e-02 -5.470010e-02 -5.175693e-02 -5.226710e-02 -5.057068e-02 -4.883382e-02 -4.871307e-02 -4.608418e-02 -4.531259e-02 -4.454139e-02 -4.210510e-02 -4.191101e-02 -3.986489e-02 -3.926632e-02 -3.929668e-02 -3.827363e-02 -3.952233e-02 -3.969217e-02 -4.112928e-02 -4.089106e-02 -4.203055e-02 -4.157538e-02 -4.249295e-02 -4.201321e-02 -4.266454e-02 -4.228457e-02 -4.264696e-02 -4.253107e-02 -4.260624e-02 -4.284159e-02 -4.256517e-02 -4.315215e-02 -4.247387e-02 -4.338662e-02 -4.231728e-02 -4.352513e-02 -4.215729e-02 -4.361430e-02 -4.208320e-02 -4.369528e-02 -4.215981e-02 -4.378137e-02 -4.237177e-02 -4.376794e-02 -4.257644e-02 -4.353061e-02 -4.271147e-02 -4.312111e-02 -4.287206e-02 -4.272971e-02 -4.319646e-02 -4.249828e-02 -4.363295e-02 -4.234330e-02 -4.396740e-02 -4.218794e-02 -4.410620e-02 -4.209505e-02 -4.405171e-02 -4.218031e-02 -4.386072e-02 -4.258210e-02 -4.362650e-02 -4.343818e-02 -4.354767e-02 -4.488753e-02 -4.408313e-02 -4.622199e-02 -3.990865e-02 -3.462138e-02 -3.202200e-02 -3.052930e-02 
-2.502037e-02 -2.347398e-02 -2.633035e-02 -2.412362e-02 -3.042352e-02 -2.009879e-02 -2.062907e-02 -2.453314e-02 -1.903946e-02 -2.284456e-02 -1.829487e-02 -1.960759e-02 -1.771396e-02 -1.821185e-02 -1.894605e-02 -1.863315e-02 -1.914317e-02 -1.890950e-02 -1.882854e-02 -1.933559e-02 -1.781050e-02 -1.956183e-02 -1.885004e-02 -2.067906e-02 -2.061624e-02 -2.130103e-02 -2.151273e-02 -2.148819e-02 -2.204443e-02 -2.152366e-02 -2.244659e-02 -2.157020e-02 -2.277955e-02 -2.160205e-02 -2.293335e-02 -2.154370e-02 -2.290025e-02 -2.150163e-02 -2.286768e-02 -2.168734e-02 -2.302295e-02 -2.216642e-02 -2.330634e-02 -2.272640e-02 -2.349988e-02 -2.319564e-02 -2.360925e-02 -2.369857e-02 -2.390612e-02 -2.455280e-02 -2.479445e-02 -2.615267e-02 -2.674757e-02 -2.901007e-02 -3.054932e-02 -3.433711e-02 -3.801411e-02 -3.974793e-02 -3.389117e-02 -3.785694e-02 -3.308257e-02 -3.027476e-02 -3.257569e-02 -2.449212e-02 -2.589774e-02 -2.368780e-02 -1.593648e-02 -1.838866e-02 -9.932053e-03 -7.841232e-03 -1.073680e-02 -7.775884e-03 -1.174078e-02 -1.475372e-02 -1.761909e-02 -1.844051e-02 -2.025542e-02 -2.019909e-02 -2.153321e-02 -2.114710e-02 -2.208592e-02 -2.166279e-02 -2.222520e-02 -2.204585e-02 -2.226156e-02 -2.246383e-02 -2.226555e-02 -2.284049e-02 -2.218802e-02 -2.308822e-02 -2.202737e-02 -2.318958e-02 -2.187051e-02 -2.321072e-02 -2.183777e-02 -2.321582e-02 -2.201996e-02 -2.323513e-02 -2.239414e-02 -2.313400e-02 -2.275475e-02 -2.275145e-02 -2.301195e-02 -2.216643e-02 -2.327739e-02 -2.163000e-02 -2.371212e-02 -2.133777e-02 -2.423712e-02 -2.119659e-02 -2.456143e-02 -2.111558e-02 -2.454874e-02 -2.118364e-02 -2.418581e-02 -2.154216e-02 -2.350330e-02 -2.234146e-02 -2.252650e-02 -2.374301e-02 -2.132880e-02 -2.615665e-02 -2.032497e-02 -3.163610e-02 -3.027287e-02 -2.696575e-02 -2.594757e-02 -2.429473e-02 
-5.450818e-03 -3.278901e-03 -2.628736e-03 4.481314e-03 6.680442e-03 2.138416e-02 1.529191e-02 1.191270e-02 1.708577e-02 1.087116e-02 1.703903e-02 1.074752e-02 1.742883e-02 1.289818e-02 1.879644e-02 1.544883e-02 1.844094e-02 1.658845e-02 1.729971e-02 1.699667e-02 1.485480e-02 1.603115e-02 1.294704e-02 1.551537e-02 1.270738e-02 1.531281e-02 1.269640e-02 1.513687e-02 1.281026e-02 1.496568e-02 1.301596e-02 1.480510e-02 1.327542e-02 1.462861e-02 1.352027e-02 1.441315e-02 1.372785e-02 1.420345e-02 1.394686e-02 1.409142e-02 1.423144e-02 1.411582e-02 1.454671e-02 1.421234e-02 1.481413e-02 1.433585e-02 1.505379e-02 1.455552e-02 1.539621e-02 1.501819e-02 1.603785e-02 1.593346e-02 1.725372e-02 1.762749e-02 1.952896e-02 2.085295e-02 2.379611e-02 2.413653e-02 2.111056e-02 2.277708e-02 2.077127e-02 1.783322e-02 2.063154e-02 1.439756e-02 1.626663e-02 1.457033e-02 9.932811e-03 1.206668e-02 6.624756e-03 6.075641e-03 7.399845e-03 5.267553e-03 7.751562e-03 9.165687e-03 1.099453e-02 1.142300e-02 1.253629e-02 1.258477e-02 1.331083e-02 1.323008e-02 1.368584e-02 1.358699e-02 1.384938e-02 1.382066e-02 1.393878e-02 1.402542e-02 1.399188e-02 1.421109e-02 1.399885e-02 1.436073e-02 1.394977e-02 1.447528e-02 1.387086e-02 1.458268e-02 1.379858e-02 1.470044e-02 1.375788e-02 1.483271e-02 1.374706e-02 1.493206e-02 1.371467e-02 1.493591e-02 1.364184e-02 1.485482e-02 1.359010e-02 1.476775e-02 1.365003e-02 1.472271e-02 1.381622e-02 1.465056e-02 1.400456e-02 1.449119e-02 1.419159e-02 1.425243e-02 1.438829e-02 1.396853e-02 1.462422e-02 1.368492e-02 1.494484e-02 1.343776e-02 1.550801e-02 1.325841e-02 1.697627e-02 1.149580e-02 4.955854e-03 -7.846007e-04 -3.479397e-03 -4.715273e-03 
-3.276809e-03 -3.239977e-03 -3.613752e-04 1.937658e-03 8.898879e-03 8.256422e-03 5.679627e-03 7.531377e-03 4.858590e-03 4.957576e-03 2.834303e-03 1.000890e-04 -2.057151e-03 -6.513731e-03 -7.129246e-03 -9.771660e-03 -8.564430e-03 -9.898231e-03 -8.615991e-03 -7.090963e-03 -6.919417e-03 -7.089584e-04 -5.398619e-04 4.270123e-03 3.445100e-03 6.463933e-03 5.324020e-03 7.248764e-03 6.332818e-03 7.442134e-03 7.018760e-03 7.451323e-03 7.563418e-03 7.357508e-03 7.892834e-03 7.133518e-03 8.003655e-03 6.911404e-03 8.079309e-03 6.920858e-03 8.297696e-03 7.228127e-03 8.573913e-03 7.598133e-03 8.655732e-03 7.821835e-03 8.508829e-03 7.965267e-03 8.334834e-03 8.235027e-03 8.396812e-03 8.824944e-03 8.903755e-03 9.876088e-03 1.007480e-02 1.172820e-02 1.274413e-02 1.410643e-02 1.136702e-02 1.399148e-02 1.186640e-02 1.105576e-02 1.261788e-02 9.018522e-03 1.020042e-02 9.383332e-03 5.695788e-03 7.413949e-03 3.072625e-03 1.996243e-03 4.204061e-03 3.004897e-03 5.535508e-03 6.106188e-03 7.883037e-03 7.238711e-03 8.591424e-03 7.623678e-03 8.766379e-03 7.826592e-03 8.678010e-03 7.952421e-03 8.438679e-03 8.147140e-03 8.240793e-03 8.489889e-03 8.088279e-03 8.859148e-03 7.898131e-03 9.137730e-03 7.648213e-03 9.289749e-03 7.418008e-03 9.369254e-03 7.324001e-03 9.428040e-03 7.454567e-03 9.487589e-03 7.789215e-03 9.407813e-03 8.125857e-03 9.021995e-03 8.374642e-03 8.407893e-03 8.655215e-03 7.827347e-03 9.140891e-03 7.480427e-03 9.748953e-03 7.262082e-03 1.017606e-02 7.073670e-03 1.028435e-02 7.002786e-03 1.006286e-02 7.187198e-03 9.545813e-03 7.753628e-03 8.746905e-03 8.770778e-03 7.686824e-03 1.037106e-02 6.673706e-03 1.294259e-02 7.843486e-03 1.618580e-03 -1.148169e-03 -3.324568e-03 
3.990757e-04 -4.375571e-04 1.545302e-03 -6.085149e-05 3.586780e-03 -3.721345e-03 -2.892922e-03 1.509241e-03 -3.529568e-03 2.049945e-03 -2.938370e-03 2.350151e-03 -2.803801e-03 7.211950e-04 -4.361973e-03 -1.693363e-03 -4.167047e-03 -2.625839e-03 -3.243691e-03 -2.799558e-03 -1.020706e-03 -1.668159e-03 5.139157e-05 -9.521338e-04 -1.782281e-04 -7.239871e-04 -1.543006e-04 -6.429908e-04 -8.452129e-06 -6.529483e-04 2.115296e-04 -6.739950e-04 4.528733e-04 -7.036283e-04 6.182116e-04 -7.618832e-04 6.768965e-04 -7.881244e-04 6.999850e-04 -6.831685e-04 7.598939e-04 -4.283562e-04 8.180703e-04 -1.372549e-04 7.654158e-04 8.213755e-05 5.751580e-04 2.199151e-04 2.923853e-04 2.862611e-04 -7.113429e-05 2.049131e-04 -6.493019e-04 -2.950852e-04 -1.890615e-03 -2.025569e-03 -5.008758e-03 -4.348933e-03 -2.613147e-03 -3.476024e-03 -2.573168e-03 -3.508051e-04 -3.076757e-03 1.195276e-03 -7.776904e-04 -4.822003e-05 2.991449e-03 9.592164e-04 5.146174e-03 5.181053e-03 4.618105e-03 5.849145e-03 5.010279e-03 2.729388e-03 2.815105e-03 1.298299e-03 1.948714e-03 6.964033e-04 1.499825e-03 4.929462e-04 1.202786e-03 5.001637e-04 9.432202e-04 6.536132e-04 7.284781e-04 9.166752e-04 5.389090e-04 1.198219e-03 3.440871e-04 1.428699e-03 1.543397e-04 1.576982e-03 1.846500e-05 1.647017e-03 -2.264964e-06 1.648964e-03 1.400838e-04 1.584675e-03 4.368212e-04 1.393114e-03 7.928145e-04 1.012601e-03 1.155074e-03 4.994701e-04 1.552930e-03 -1.701361e-06 2.025810e-03 -3.674945e-04 2.496339e-03 -5.986931e-04 2.789630e-03 -6.990351e-04 2.802305e-03 -5.922939e-04 2.509139e-03 -1.871187e-04 1.918790e-03 5.669121e-04 1.026298e-03 1.619482e-03 -2.564067e-04 2.749634e-03 -2.409355e-03 4.096081e-03 2.592883e-03 1.742663e-03 7.663642e-04 9.966728e-06 
