# vtk DataFile Version 2.0
Comment goes here
ASCII

DATASET STRUCTURED_POINTS
FIELD FieldData 1
TIME 1 1 double
0.27000000
DIMENSIONS    128   16   1

ORIGIN    0.000   0.000   0.000
SPACING   0.0078125 0.015625   1.000

POINT_DATA   2048
SCALARS uX double
LOOKUP_TABLE default

-7.644463e-03 -3.752048e-03 -6.520512e-03 -8.070680e-04 -4.976421e-03 2.242630e-03 -1.108931e-02 9.971936e-04 -5.472302e-03 4.426844e-03 3.293444e-03 1.393969e-02 2.147525e-02 3.720641e-02 4.600626e-02 4.853526e-02 5.312326e-02 5.131503e-02 5.057828e-02 4.474118e-02 3.887447e-02 2.019218e-02 1.439856e-02 4.413433e-03 3.829843e-03 -2.038250e-03 -6.642596e-04 -4.713368e-03 -2.594524e-03 -5.730056e-03 -3.443844e-03 -6.025230e-03 -3.866384e-03 -5.993910e-03 -4.103456e-03 -5.804870e-03 -4.286408e-03 -5.584855e-03 -4.471310e-03 -5.372406e-03 -4.607110e-03 -5.115417e-03 -4.647311e-03 -4.852409e-03 -4.657321e-03 -4.682631e-03 -4.722035e-03 -4.636991e-03 -4.813963e-03 -4.644069e-03 -4.855793e-03 -4.632596e-03 -4.838487e-03 -4.596296e-03 -4.769966e-03 -4.541392e-03 -4.852341e-03 -4.492929e-03 -4.152199e-03 -4.068205e-03 -4.634597e-03 -4.484501e-03 -4.368718e-03 -5.236809e-03 -4.564152e-03 -4.852127e-03 -5.662902e-03 -4.439640e-03 -5.544008e-03 -6.704010e-03 -5.622561e-03 -5.746487e-03 -5.322511e-03 -5.722932e-03 -4.413148e-03 -4.873692e-03 -3.760140e-03 -4.548084e-03 -3.459279e-03 -4.451978e-03 -3.329680e-03 -4.427176e-03 -3.293517e-03 -4.374407e-03 -3.297789e-03 -4.228299e-03 -3.323324e-03 -3.994711e-03 -3.418845e-03 -3.749080e-03 -3.645378e-03 -3.529108e-03 -3.941795e-03 -3.269215e-03 -4.184827e-03 -2.946651e-03 -4.343833e-03 -2.650501e-03 -4.456610e-03 -2.489128e-03 -4.527613e-03 -2.487826e-03 -4.468238e-03 -2.605952e-03 -4.220682e-03 -2.871459e-03 -3.822960e-03 -3.322733e-03 -3.295044e-03 -3.904306e-03 -2.640749e-03 -4.558828e-03 -1.954626e-03 -5.261041e-03 -1.368981e-03 -5.903646e-03 -9.991822e-04 -6.327469e-03 -1.100093e-03 -6.413357e-03 -2.301339e-03 -6.104280e-03 -6.443807e-03 -1.621111e-03 -5.977959e-03 -3.202397e-03 -7.282288e-03 -4.487313e-03 
-3.392762e-03 -2.257140e-04 -1.781072e-03 2.902423e-03 1.551284e-03 7.423308e-03 -8.616014e-03 2.463267e-03 -4.130102e-03 1.453331e-03 1.636029e-04 1.312058e-03 5.556093e-03 4.700655e-04 1.515143e-03 -2.395912e-03 8.053945e-04 -3.163680e-03 1.280220e-03 -1.918059e-03 3.314982e-03 2.805322e-03 2.332587e-03 2.871790e-04 1.062378e-03 -9.996072e-04 4.298212e-04 -1.649953e-03 1.099115e-04 -1.900809e-03 -8.480160e-05 -1.967607e-03 -2.969158e-04 -1.923545e-03 -4.654953e-04 -1.718765e-03 -5.745551e-04 -1.475081e-03 -7.463336e-04 -1.316537e-03 -9.319026e-04 -1.103303e-03 -9.410264e-04 -7.787690e-04 -8.404594e-04 -5.379835e-04 -8.400991e-04 -4.724029e-04 -8.577742e-04 -3.399307e-04 -5.715637e-04 1.520544e-04 1.107351e-04 8.960094e-04 9.307698e-04 1.602503e-03 1.892021e-03 2.866043e-03 2.437596e-03 3.866260e-03 3.000026e-03 2.970276e-03 3.895395e-03 2.012777e-03 2.746421e-03 2.391281e-03 -7.599826e-04 4.867893e-04 -3.381036e-03 -5.439892e-03 -3.684851e-03 -3.575715e-03 -2.825090e-03 -2.810600e-03 -1.942830e-03 -2.003055e-03 -9.980504e-04 -1.304694e-03 -2.825510e-04 -8.861890e-04 1.110783e-04 -7.084531e-04 2.526028e-04 -6.104674e-04 3.061128e-04 -4.062715e-04 3.654483e-04 -8.524204e-05 3.366300e-04 1.620439e-04 3.314764e-05 2.714454e-04 -3.510665e-04 5.196595e-04 -5.592769e-04 9.146094e-04 -6.656792e-04 1.257808e-03 -7.700224e-04 1.419989e-03 -8.819850e-04 1.401293e-03 -8.500559e-04 1.293935e-03 -6.082244e-04 1.029463e-03 -2.411136e-04 5.558345e-04 2.752189e-04 -2.075167e-05 9.658805e-04 -6.621029e-04 1.674211e-03 -1.438210e-03 2.239490e-03 -2.205253e-03 2.671033e-03 -2.740903e-03 2.758736e-03 -2.991948e-03 1.884807e-03 -2.672360e-03 -1.775154e-03 5.133439e-03 -2.193638e-03 6.666139e-04 -3.420555e-03 -8.946402e-04 
-1.050960e-02 -7.963920e-03 -6.927555e-03 -1.206879e-03 4.986854e-03 1.551407e-02 3.500134e-03 1.177326e-02 2.488622e-03 6.832594e-03 -1.114942e-03 -1.191180e-03 -1.130545e-02 -1.562076e-02 -2.047235e-02 -2.161036e-02 -2.288281e-02 -2.333145e-02 -2.124052e-02 -2.056697e-02 -1.575376e-02 -9.760492e-03 -1.745232e-03 2.794463e-04 4.890939e-03 4.446474e-03 7.800000e-03 6.282448e-03 9.241452e-03 7.237274e-03 9.955696e-03 7.675227e-03 1.013972e-02 7.895455e-03 1.019963e-02 8.263552e-03 1.030968e-02 8.631073e-03 1.018820e-02 8.750492e-03 9.895558e-03 8.928621e-03 9.896936e-03 9.425980e-03 1.011915e-02 9.794657e-03 1.000536e-02 9.689945e-03 9.691243e-03 9.697453e-03 9.932658e-03 1.042078e-02 1.090066e-02 1.162418e-02 1.213892e-02 1.300574e-02 1.353978e-02 1.311234e-02 1.118017e-02 1.064450e-02 1.056846e-02 1.067626e-02 9.335339e-03 1.168529e-02 9.746593e-03 1.066994e-02 1.283448e-02 1.040254e-02 1.387354e-02 1.625550e-02 1.379394e-02 1.156705e-02 1.150641e-02 1.097857e-02 1.097989e-02 1.015872e-02 1.094394e-02 1.001919e-02 1.122459e-02 1.001943e-02 1.137078e-02 9.879885e-03 1.128031e-02 9.756936e-03 1.123972e-02 9.957987e-03 1.139777e-02 1.039176e-02 1.140038e-02 1.057091e-02 1.089938e-02 1.048600e-02 1.030378e-02 1.066486e-02 1.005151e-02 1.119388e-02 1.001360e-02 1.169839e-02 9.873796e-03 1.188038e-02 9.586459e-03 1.186806e-02 9.520112e-03 1.187173e-02 9.704040e-03 1.170835e-02 9.975958e-03 1.133117e-02 1.043628e-02 1.090067e-02 1.113723e-02 1.041487e-02 1.186898e-02 9.711029e-03 1.245840e-02 8.940812e-03 1.312178e-02 8.481279e-03 1.390685e-02 8.368811e-03 1.462592e-02 9.196608e-03 1.515476e-02 1.447128e-02 -1.427120e-03 -3.228902e-03 -9.087991e-03 -8.479222e-03 
-9.561990e-03 -9.371945e-03 -6.278867e-03 -3.711088e-03 4.716447e-03 1.179584e-02 2.686352e-02 2.061775e-02 2.281989e-02 2.133575e-02 2.030963e-02 2.141038e-02 1.771489e-02 2.313300e-02 2.181803e-02 2.592200e-02 2.270962e-02 2.657970e-02 2.234057e-02 2.523148e-02 2.028111e-02 2.046813e-02 1.998148e-02 2.136551e-02 2.067567e-02 2.166749e-02 2.121714e-02 2.173441e-02 2.171452e-02 2.172668e-02 2.210960e-02 2.161026e-02 2.234527e-02 2.147080e-02 2.251819e-02 2.141765e-02 2.267290e-02 2.140363e-02 2.269900e-02 2.135828e-02 2.260343e-02 2.135161e-02 2.255426e-02 2.151973e-02 2.256158e-02 2.167271e-02 2.237830e-02 2.158599e-02 2.202139e-02 2.148156e-02 2.173829e-02 2.146515e-02 2.148225e-02 2.134302e-02 2.091363e-02 2.067540e-02 1.929779e-02 1.905512e-02 2.005283e-02 1.927835e-02 1.934607e-02 2.127673e-02 1.888292e-02 2.241576e-02 2.104487e-02 2.157488e-02 2.445340e-02 2.308463e-02 2.587011e-02 2.699921e-02 2.518986e-02 2.641876e-02 2.530325e-02 2.445614e-02 2.400527e-02 2.330758e-02 2.337650e-02 2.269169e-02 2.309905e-02 2.236286e-02 2.293341e-02 2.210282e-02 2.275736e-02 2.193683e-02 2.268032e-02 2.194853e-02 2.273070e-02 2.202997e-02 2.267327e-02 2.198065e-02 2.248202e-02 2.191421e-02 2.227374e-02 2.189267e-02 2.211118e-02 2.202074e-02 2.205295e-02 2.221552e-02 2.192380e-02 2.230273e-02 2.169901e-02 2.239936e-02 2.155777e-02 2.256732e-02 2.144697e-02 2.272046e-02 2.134208e-02 2.288473e-02 2.128152e-02 2.304593e-02 2.124752e-02 2.316628e-02 2.124695e-02 2.324398e-02 2.129348e-02 2.323065e-02 2.146868e-02 2.320296e-02 2.199590e-02 2.311455e-02 2.328987e-02 2.265464e-02 2.721600e-02 1.024214e-02 2.197863e-03 -5.022824e-03 -7.352204e-03 -9.788186e-03 
-3.326083e-02 -3.591593e-02 -3.520767e-02 -3.991904e-02 -4.194921e-02 -4.963282e-02 -2.665590e-02 -3.976760e-02 -2.737963e-02 -3.426998e-02 -2.514819e-02 -2.835058e-02 -1.845596e-02 -2.260300e-02 -2.151772e-02 -2.236668e-02 -2.247017e-02 -2.216337e-02 -2.272813e-02 -2.176617e-02 -2.238313e-02 -2.033541e-02 -2.793026e-02 -2.688987e-02 -3.139411e-02 -2.986346e-02 -3.288823e-02 -3.134719e-02 -3.364412e-02 -3.225230e-02 -3.399159e-02 -3.274821e-02 -3.396642e-02 -3.303398e-02 -3.389920e-02 -3.344130e-02 -3.393535e-02 -3.381580e-02 -3.379035e-02 -3.390206e-02 -3.351214e-02 -3.400989e-02 -3.353236e-02 -3.436303e-02 -3.374664e-02 -3.453687e-02 -3.361596e-02 -3.421776e-02 -3.321896e-02 -3.387361e-02 -3.316547e-02 -3.398826e-02 -3.346942e-02 -3.416313e-02 -3.347283e-02 -3.375006e-02 -3.211748e-02 -3.137378e-02 -3.193691e-02 -3.003722e-02 -3.099048e-02 -3.250158e-02 -2.971553e-02 -3.486496e-02 -3.243000e-02 -3.386779e-02 -3.844579e-02 -3.605602e-02 -4.129797e-02 -4.420198e-02 -4.070840e-02 -4.075392e-02 -3.948266e-02 -3.817175e-02 -3.705199e-02 -3.634563e-02 -3.597984e-02 -3.551953e-02 -3.555236e-02 -3.508190e-02 -3.529915e-02 -3.472920e-02 -3.503387e-02 -3.449947e-02 -3.491323e-02 -3.461486e-02 -3.502906e-02 -3.498683e-02 -3.507216e-02 -3.514381e-02 -3.463775e-02 -3.500543e-02 -3.412480e-02 -3.514830e-02 -3.399312e-02 -3.561276e-02 -3.404699e-02 -3.601617e-02 -3.401084e-02 -3.612195e-02 -3.383940e-02 -3.602028e-02 -3.385002e-02 -3.592271e-02 -3.410031e-02 -3.566925e-02 -3.441887e-02 -3.519661e-02 -3.490994e-02 -3.469964e-02 -3.565562e-02 -3.419393e-02 -3.642757e-02 -3.349157e-02 -3.704948e-02 -3.280637e-02 -3.777903e-02 -3.257358e-02 -3.864660e-02 -3.298976e-02 -3.943916e-02 -3.520552e-02 -3.935515e-02 -4.958537e-02 -3.564909e-02 -3.847558e-02 -3.321423e-02 -3.564204e-02 
-3.723329e-02 -3.926763e-02 -4.046146e-02 -4.519791e-02 -5.105414e-02 -6.076661e-02 -5.841908e-02 -6.075558e-02 -5.520382e-02 -5.699553e-02 -5.183828e-02 -5.207281e-02 -4.612061e-02 -4.636731e-02 -4.614108e-02 -4.631234e-02 -4.628429e-02 -4.624527e-02 -4.637144e-02 -4.619518e-02 -4.635797e-02 -4.622507e-02 -5.247161e-02 -5.270350e-02 -5.587863e-02 -5.548660e-02 -5.757885e-02 -5.681924e-02 -5.858697e-02 -5.754972e-02 -5.916662e-02 -5.787533e-02 -5.936909e-02 -5.801858e-02 -5.946238e-02 -5.824742e-02 -5.956941e-02 -5.846461e-02 -5.948451e-02 -5.849829e-02 -5.924102e-02 -5.854690e-02 -5.916702e-02 -5.880829e-02 -5.920948e-02 -5.892836e-02 -5.891401e-02 -5.857654e-02 -5.830232e-02 -5.810211e-02 -5.778921e-02 -5.773621e-02 -5.722844e-02 -5.698438e-02 -5.581779e-02 -5.486776e-02 -5.237254e-02 -5.246741e-02 -5.573723e-02 -5.501315e-02 -5.561946e-02 -5.882451e-02 -5.643440e-02 -6.014684e-02 -5.962866e-02 -5.918675e-02 -6.150534e-02 -6.037731e-02 -6.096694e-02 -6.167589e-02 -6.152399e-02 -6.397078e-02 -6.328896e-02 -6.215404e-02 -6.189916e-02 -6.107975e-02 -6.130249e-02 -6.047097e-02 -6.099710e-02 -6.006141e-02 -6.075599e-02 -5.968638e-02 -6.047754e-02 -5.943450e-02 -6.033650e-02 -5.948897e-02 -6.039953e-02 -5.973127e-02 -6.034516e-02 -5.978576e-02 -5.995649e-02 -5.969259e-02 -5.951626e-02 -5.977814e-02 -5.930102e-02 -6.013316e-02 -5.925971e-02 -6.050222e-02 -5.913328e-02 -6.063603e-02 -5.888453e-02 -6.065406e-02 -5.879916e-02 -6.069951e-02 -5.887415e-02 -6.063399e-02 -5.901303e-02 -6.044676e-02 -5.929305e-02 -6.022715e-02 -5.973649e-02 -5.996495e-02 -6.022830e-02 -5.958601e-02 -6.068500e-02 -5.919582e-02 -6.128552e-02 -5.912138e-02 -6.220243e-02 -5.951658e-02 -6.359499e-02 -6.074867e-02 -6.613115e-02 -5.906458e-02 -4.591205e-02 -4.311693e-02 -3.852422e-02 -3.869980e-02 
-4.757600e-02 -4.961288e-02 -4.916982e-02 -5.272271e-02 -5.357574e-02 -5.945287e-02 -6.214220e-02 -6.311720e-02 -6.137024e-02 -6.356727e-02 -6.185046e-02 -6.378396e-02 -6.322904e-02 -6.352037e-02 -6.324792e-02 -6.345316e-02 -6.341937e-02 -6.336081e-02 -6.352223e-02 -6.327509e-02 -6.351287e-02 -6.328015e-02 -6.351853e-02 -6.298656e-02 -6.334346e-02 -6.275632e-02 -6.333921e-02 -6.263037e-02 -6.342188e-02 -6.258610e-02 -6.351502e-02 -6.257307e-02 -6.356805e-02 -6.259675e-02 -6.359712e-02 -6.267589e-02 -6.361026e-02 -6.278037e-02 -6.357254e-02 -6.287832e-02 -6.349571e-02 -6.298888e-02 -6.344342e-02 -6.314728e-02 -6.341416e-02 -6.327414e-02 -6.331918e-02 -6.329115e-02 -6.317242e-02 -6.328629e-02 -6.307381e-02 -6.330858e-02 -6.302462e-02 -6.331127e-02 -6.298915e-02 -6.338514e-02 -6.360787e-02 -6.401178e-02 -6.223328e-02 -6.403702e-02 -6.183695e-02 -6.233004e-02 -6.277591e-02 -6.099782e-02 -6.206537e-02 -6.219991e-02 -6.006102e-02 -6.246197e-02 -6.015439e-02 -6.097316e-02 -6.218400e-02 -6.050899e-02 -6.056736e-02 -6.185862e-02 -6.247003e-02 -6.295210e-02 -6.336704e-02 -6.339394e-02 -6.380507e-02 -6.356211e-02 -6.399699e-02 -6.359304e-02 -6.404462e-02 -6.360616e-02 -6.405442e-02 -6.368175e-02 -6.405959e-02 -6.379242e-02 -6.397911e-02 -6.386397e-02 -6.380956e-02 -6.393701e-02 -6.361368e-02 -6.404277e-02 -6.344387e-02 -6.421617e-02 -6.333423e-02 -6.440365e-02 -6.322395e-02 -6.451623e-02 -6.311120e-02 -6.457663e-02 -6.307012e-02 -6.459978e-02 -6.309950e-02 -6.455883e-02 -6.319839e-02 -6.446472e-02 -6.337223e-02 -6.431882e-02 -6.359543e-02 -6.412073e-02 -6.383840e-02 -6.389363e-02 -6.406570e-02 -6.365832e-02 -6.424401e-02 -6.347785e-02 -6.433271e-02 -6.333068e-02 -6.418630e-02 -6.289555e-02 -6.381215e-02 -5.748547e-02 -5.322608e-02 -5.154728e-02 -4.878175e-02 -4.920928e-02 
-4.661348e-02 -4.797107e-02 -4.827648e-02 -5.082668e-02 -5.200730e-02 -5.528183e-02 -5.661774e-02 -5.915085e-02 -6.027220e-02 -6.261810e-02 -6.542066e-02 -6.747679e-02 -7.393878e-02 -7.406814e-02 -7.398545e-02 -7.405411e-02 -7.403437e-02 -7.402303e-02 -7.406825e-02 -7.398482e-02 -7.407350e-02 -7.392830e-02 -6.667452e-02 -6.582464e-02 -6.268637e-02 -6.205052e-02 -6.088771e-02 -6.012664e-02 -6.004790e-02 -5.912990e-02 -5.965633e-02 -5.861000e-02 -5.945856e-02 -5.835618e-02 -5.934994e-02 -5.826959e-02 -5.927641e-02 -5.827294e-02 -5.919260e-02 -5.831489e-02 -5.909677e-02 -5.839082e-02 -5.901555e-02 -5.849190e-02 -5.893074e-02 -5.855537e-02 -5.878814e-02 -5.853338e-02 -5.858927e-02 -5.845827e-02 -5.838736e-02 -5.837664e-02 -5.822725e-02 -5.834216e-02 -5.823158e-02 -5.860482e-02 -5.883172e-02 -5.860291e-02 -5.804384e-02 -5.920405e-02 -5.802608e-02 -5.870976e-02 -5.864249e-02 -5.838362e-02 -5.867220e-02 -5.910660e-02 -5.864417e-02 -5.937405e-02 -5.938848e-02 -5.943823e-02 -5.924666e-02 -5.927505e-02 -5.948730e-02 -5.939143e-02 -5.959569e-02 -5.927832e-02 -5.965399e-02 -5.919151e-02 -5.971847e-02 -5.913575e-02 -5.975055e-02 -5.908527e-02 -5.973694e-02 -5.906594e-02 -5.970616e-02 -5.911027e-02 -5.966573e-02 -5.920170e-02 -5.957591e-02 -5.929358e-02 -5.941731e-02 -5.938616e-02 -5.923185e-02 -5.951304e-02 -5.907126e-02 -5.968220e-02 -5.894785e-02 -5.984897e-02 -5.883939e-02 -5.996184e-02 -5.874949e-02 -6.001563e-02 -5.871861e-02 -6.001754e-02 -5.876143e-02 -5.995380e-02 -5.887235e-02 -5.982002e-02 -5.904747e-02 -5.962378e-02 -5.926772e-02 -5.936701e-02 -5.948707e-02 -5.904432e-02 -5.964223e-02 -5.865405e-02 -5.965445e-02 -5.817124e-02 -5.935831e-02 -5.743971e-02 -5.838769e-02 -5.607052e-02 -5.611925e-02 -5.315029e-02 -5.089973e-02 -4.936638e-02 -4.750776e-02 -4.745582e-02 
-5.137517e-02 -5.289353e-02 -5.257502e-02 -5.512118e-02 -5.564516e-02 -5.871718e-02 -6.000345e-02 -6.238358e-02 -6.368836e-02 -6.602733e-02 -6.874936e-02 -7.090773e-02 -7.718614e-02 -7.735188e-02 -7.723044e-02 -7.732239e-02 -7.730089e-02 -7.726988e-02 -7.735474e-02 -7.721531e-02 -7.736909e-02 -7.715978e-02 -6.979721e-02 -6.892752e-02 -6.591212e-02 -6.531544e-02 -6.424372e-02 -6.358178e-02 -6.349994e-02 -6.274012e-02 -6.317569e-02 -6.234076e-02 -6.303550e-02 -6.217513e-02 -6.297049e-02 -6.214013e-02 -6.292863e-02 -6.217827e-02 -6.288625e-02 -6.226157e-02 -6.284520e-02 -6.237989e-02 -6.281539e-02 -6.252161e-02 -6.279429e-02 -6.266650e-02 -6.278031e-02 -6.281206e-02 -6.279386e-02 -6.298570e-02 -6.287648e-02 -6.323508e-02 -6.308827e-02 -6.363026e-02 -6.350577e-02 -6.425150e-02 -6.420671e-02 -6.500887e-02 -6.398425e-02 -6.464116e-02 -6.395840e-02 -6.400298e-02 -6.361739e-02 -6.358945e-02 -6.275584e-02 -6.333299e-02 -6.209695e-02 -6.243325e-02 -6.188748e-02 -6.164415e-02 -6.132502e-02 -6.127940e-02 -6.117989e-02 -6.158606e-02 -6.181008e-02 -6.202507e-02 -6.231675e-02 -6.235402e-02 -6.270426e-02 -6.258350e-02 -6.295620e-02 -6.272396e-02 -6.309065e-02 -6.281895e-02 -6.314654e-02 -6.290984e-02 -6.314876e-02 -6.301008e-02 -6.310001e-02 -6.311455e-02 -6.300500e-02 -6.322419e-02 -6.288264e-02 -6.334550e-02 -6.275818e-02 -6.347934e-02 -6.264846e-02 -6.360759e-02 -6.255549e-02 -6.370415e-02 -6.248675e-02 -6.375823e-02 -6.246033e-02 -6.376642e-02 -6.248712e-02 -6.372324e-02 -6.256533e-02 -6.362411e-02 -6.268503e-02 -6.346997e-02 -6.282769e-02 -6.326404e-02 -6.295812e-02 -6.300019e-02 -6.301679e-02 -6.265382e-02 -6.291260e-02 -6.215474e-02 -6.248405e-02 -6.130977e-02 -6.142801e-02 -5.971691e-02 -5.926163e-02 -5.681547e-02 -5.514213e-02 -5.393046e-02 -5.226851e-02 -5.248622e-02 
-4.661519e-02 -4.797322e-02 -4.827853e-02 -5.082884e-02 -5.200951e-02 -5.528354e-02 -5.661896e-02 -5.915113e-02 -6.027151e-02 -6.261616e-02 -6.541732e-02 -6.747310e-02 -7.393500e-02 -7.406456e-02 -7.398151e-02 -7.405014e-02 -7.402968e-02 -7.401760e-02 -7.406196e-02 -7.397784e-02 -7.406648e-02 -7.392302e-02 -6.666676e-02 -6.581759e-02 -6.268096e-02 -6.204848e-02 -6.088764e-02 -6.012817e-02 -6.005009e-02 -5.913465e-02 -5.966708e-02 -5.863055e-02 -5.949343e-02 -5.840134e-02 -5.940610e-02 -5.832582e-02 -5.933532e-02 -5.832895e-02 -5.925763e-02 -5.839348e-02 -5.920115e-02 -5.852639e-02 -5.918209e-02 -5.869683e-02 -5.917157e-02 -5.886082e-02 -5.916287e-02 -5.902325e-02 -5.918673e-02 -5.921406e-02 -5.927453e-02 -5.946245e-02 -5.944585e-02 -5.977264e-02 -5.964298e-02 -5.999159e-02 -5.940973e-02 -5.966909e-02 -5.972612e-02 -5.934977e-02 -5.924510e-02 -5.989853e-02 -5.875462e-02 -6.005894e-02 -5.913802e-02 -5.932360e-02 -5.976792e-02 -5.917515e-02 -5.980892e-02 -5.959192e-02 -5.888839e-02 -5.937957e-02 -5.923061e-02 -5.878337e-02 -5.896471e-02 -5.863704e-02 -5.905704e-02 -5.867383e-02 -5.923643e-02 -5.874601e-02 -5.938472e-02 -5.880771e-02 -5.947212e-02 -5.886957e-02 -5.950959e-02 -5.896018e-02 -5.951082e-02 -5.908437e-02 -5.946582e-02 -5.922183e-02 -5.936282e-02 -5.935795e-02 -5.921510e-02 -5.950203e-02 -5.906499e-02 -5.966893e-02 -5.894206e-02 -5.983463e-02 -5.883731e-02 -5.995072e-02 -5.875093e-02 -6.000469e-02 -5.871681e-02 -6.000680e-02 -5.876206e-02 -5.994976e-02 -5.887350e-02 -5.981119e-02 -5.903415e-02 -5.960032e-02 -5.924149e-02 -5.934024e-02 -5.946338e-02 -5.902621e-02 -5.962874e-02 -5.864759e-02 -5.965048e-02 -5.817357e-02 -5.936306e-02 -5.744863e-02 -5.839525e-02 -5.607732e-02 -5.612281e-02 -5.315387e-02 -5.090171e-02 -4.936870e-02 -4.750929e-02 -4.745791e-02 
-4.757896e-02 -4.961724e-02 -4.917391e-02 -5.272714e-02 -5.358043e-02 -5.945541e-02 -6.214336e-02 -6.311423e-02 -6.136674e-02 -6.355869e-02 -6.184022e-02 -6.377374e-02 -6.322225e-02 -6.351723e-02 -6.324436e-02 -6.344954e-02 -6.341473e-02 -6.335307e-02 -6.351096e-02 -6.326167e-02 -6.349531e-02 -6.327030e-02 -6.350255e-02 -6.297038e-02 -6.333033e-02 -6.275434e-02 -6.333866e-02 -6.262990e-02 -6.341770e-02 -6.258251e-02 -6.351965e-02 -6.259618e-02 -6.361706e-02 -6.266035e-02 -6.367533e-02 -6.274898e-02 -6.367957e-02 -6.283620e-02 -6.362786e-02 -6.294566e-02 -6.358351e-02 -6.311616e-02 -6.358478e-02 -6.331753e-02 -6.357397e-02 -6.348389e-02 -6.355606e-02 -6.364949e-02 -6.358237e-02 -6.385886e-02 -6.370188e-02 -6.420136e-02 -6.404655e-02 -6.484982e-02 -6.480000e-02 -6.594703e-02 -6.545617e-02 -6.570036e-02 -6.613690e-02 -6.533378e-02 -6.480179e-02 -6.624241e-02 -6.351697e-02 -6.574782e-02 -6.388856e-02 -6.362666e-02 -6.483987e-02 -6.301581e-02 -6.425763e-02 -6.458256e-02 -6.262262e-02 -6.403588e-02 -6.359067e-02 -6.339578e-02 -6.346866e-02 -6.345048e-02 -6.364208e-02 -6.347572e-02 -6.375820e-02 -6.346728e-02 -6.383207e-02 -6.346115e-02 -6.386924e-02 -6.347034e-02 -6.387887e-02 -6.353152e-02 -6.387497e-02 -6.364765e-02 -6.384306e-02 -6.378423e-02 -6.374840e-02 -6.390591e-02 -6.359899e-02 -6.404015e-02 -6.345191e-02 -6.420736e-02 -6.333320e-02 -6.438122e-02 -6.322656e-02 -6.450509e-02 -6.312819e-02 -6.456647e-02 -6.307196e-02 -6.458144e-02 -6.310258e-02 -6.455339e-02 -6.319918e-02 -6.444340e-02 -6.333841e-02 -6.426490e-02 -6.354079e-02 -6.406991e-02 -6.379382e-02 -6.385503e-02 -6.403401e-02 -6.364114e-02 -6.423667e-02 -6.348693e-02 -6.434941e-02 -6.335283e-02 -6.420428e-02 -6.290866e-02 -6.381945e-02 -5.749230e-02 -5.322889e-02 -5.155139e-02 -4.878382e-02 -4.921328e-02 
-3.723742e-02 -3.927408e-02 -4.046820e-02 -4.520595e-02 -5.106439e-02 -6.077474e-02 -5.842733e-02 -6.076294e-02 -5.520612e-02 -5.699136e-02 -5.182290e-02 -5.205770e-02 -4.610186e-02 -4.635920e-02 -4.613174e-02 -4.630524e-02 -4.627438e-02 -4.623018e-02 -4.634977e-02 -4.616184e-02 -4.631703e-02 -4.618054e-02 -5.243157e-02 -5.265575e-02 -5.584939e-02 -5.548128e-02 -5.758676e-02 -5.682404e-02 -5.857004e-02 -5.751753e-02 -5.914119e-02 -5.790362e-02 -5.948680e-02 -5.821203e-02 -5.971283e-02 -5.846893e-02 -5.974308e-02 -5.855109e-02 -5.956411e-02 -5.861548e-02 -5.949371e-02 -5.893436e-02 -5.966346e-02 -5.935228e-02 -5.977420e-02 -5.960401e-02 -5.979497e-02 -5.983371e-02 -5.993589e-02 -6.018760e-02 -6.027229e-02 -6.076989e-02 -6.100918e-02 -6.182932e-02 -6.239830e-02 -6.369435e-02 -6.520617e-02 -6.664274e-02 -6.320217e-02 -6.477441e-02 -6.387297e-02 -6.147992e-02 -6.331057e-02 -6.032123e-02 -6.006676e-02 -6.101956e-02 -5.697176e-02 -5.895524e-02 -5.590868e-02 -5.449632e-02 -5.610647e-02 -5.427096e-02 -5.508688e-02 -5.635067e-02 -5.738585e-02 -5.776672e-02 -5.858577e-02 -5.841790e-02 -5.920011e-02 -5.868870e-02 -5.952551e-02 -5.881714e-02 -5.969299e-02 -5.888612e-02 -5.977731e-02 -5.903708e-02 -5.988399e-02 -5.929573e-02 -5.993991e-02 -5.954819e-02 -5.984620e-02 -5.970595e-02 -5.956999e-02 -5.981186e-02 -5.930828e-02 -6.007723e-02 -5.922427e-02 -6.044159e-02 -5.912541e-02 -6.060878e-02 -5.890609e-02 -6.061498e-02 -5.876884e-02 -6.064131e-02 -5.888203e-02 -6.066680e-02 -5.907794e-02 -6.046464e-02 -5.925419e-02 -6.012069e-02 -5.959996e-02 -5.983767e-02 -6.012643e-02 -5.952519e-02 -6.065327e-02 -5.919368e-02 -6.127713e-02 -5.913415e-02 -6.223447e-02 -5.957590e-02 -6.364328e-02 -6.077335e-02 -6.613054e-02 -5.906769e-02 -4.591443e-02 -4.312028e-02 -3.852626e-02 -3.870465e-02 
-3.326468e-02 -3.592503e-02 -3.521742e-02 -3.993413e-02 -4.196865e-02 -4.965888e-02 -2.668813e-02 -3.981260e-02 -2.741766e-02 -3.430865e-02 -2.517556e-02 -2.836479e-02 -1.846286e-02 -2.259625e-02 -2.153072e-02 -2.238457e-02 -2.249650e-02 -2.217006e-02 -2.271957e-02 -2.172109e-02 -2.231295e-02 -2.026128e-02 -2.785327e-02 -2.682313e-02 -3.133225e-02 -2.982323e-02 -3.285885e-02 -3.132910e-02 -3.360091e-02 -3.219420e-02 -3.393374e-02 -3.273219e-02 -3.405168e-02 -3.319429e-02 -3.413563e-02 -3.358582e-02 -3.401140e-02 -3.369451e-02 -3.366739e-02 -3.372780e-02 -3.352444e-02 -3.406029e-02 -3.369949e-02 -3.444812e-02 -3.379337e-02 -3.454863e-02 -3.366736e-02 -3.445415e-02 -3.351779e-02 -3.429338e-02 -3.332191e-02 -3.396076e-02 -3.295450e-02 -3.332124e-02 -3.213667e-02 -3.203710e-02 -3.128643e-02 -3.274905e-02 -3.139304e-02 -3.405393e-02 -3.409486e-02 -3.333469e-02 -3.613516e-02 -3.422735e-02 -3.559587e-02 -3.679006e-02 -3.346955e-02 -3.680257e-02 -3.326703e-02 -3.233253e-02 -3.488000e-02 -3.528002e-02 -3.615577e-02 -3.589802e-02 -3.569080e-02 -3.521215e-02 -3.525622e-02 -3.480757e-02 -3.500554e-02 -3.453260e-02 -3.485074e-02 -3.436980e-02 -3.474646e-02 -3.430784e-02 -3.468664e-02 -3.442309e-02 -3.474593e-02 -3.469788e-02 -3.477112e-02 -3.497559e-02 -3.465969e-02 -3.517006e-02 -3.433473e-02 -3.524662e-02 -3.402608e-02 -3.552950e-02 -3.400950e-02 -3.594505e-02 -3.399349e-02 -3.605333e-02 -3.381121e-02 -3.592534e-02 -3.378898e-02 -3.584609e-02 -3.412347e-02 -3.574008e-02 -3.456251e-02 -3.530431e-02 -3.496506e-02 -3.467687e-02 -3.556955e-02 -3.410572e-02 -3.635913e-02 -3.350104e-02 -3.708271e-02 -3.287128e-02 -3.777974e-02 -3.258224e-02 -3.864089e-02 -3.304322e-02 -3.946463e-02 -3.522879e-02 -3.932880e-02 -4.958190e-02 -3.564231e-02 -3.847752e-02 -3.321288e-02 -3.564734e-02 
-9.564247e-03 -9.381175e-03 -6.285587e-03 -3.725718e-03 4.703310e-03 1.176923e-02 2.683384e-02 2.057220e-02 2.277333e-02 2.127490e-02 2.024196e-02 2.134821e-02 1.765248e-02 2.308703e-02 2.176323e-02 2.588536e-02 2.267669e-02 2.656489e-02 2.234072e-02 2.524281e-02 2.030801e-02 2.051272e-02 2.000756e-02 2.138463e-02 2.069949e-02 2.171646e-02 2.126233e-02 2.177095e-02 2.172184e-02 2.172550e-02 2.209822e-02 2.165085e-02 2.241729e-02 2.160765e-02 2.265123e-02 2.158723e-02 2.277994e-02 2.153560e-02 2.276390e-02 2.150980e-02 2.273827e-02 2.162025e-02 2.279032e-02 2.179888e-02 2.275039e-02 2.187963e-02 2.263118e-02 2.194441e-02 2.251030e-02 2.198844e-02 2.233893e-02 2.199142e-02 2.216561e-02 2.193991e-02 2.190126e-02 2.169522e-02 2.187196e-02 2.242081e-02 2.165160e-02 2.295878e-02 2.278701e-02 2.267039e-02 2.345679e-02 2.307559e-02 2.306448e-02 2.394402e-02 2.205210e-02 2.328975e-02 2.165693e-02 2.052155e-02 2.203013e-02 2.218810e-02 2.239702e-02 2.266661e-02 2.250900e-02 2.238409e-02 2.246354e-02 2.215790e-02 2.244107e-02 2.198181e-02 2.244108e-02 2.187085e-02 2.244141e-02 2.177645e-02 2.243027e-02 2.175841e-02 2.244698e-02 2.182248e-02 2.246534e-02 2.189559e-02 2.240273e-02 2.190457e-02 2.225438e-02 2.192941e-02 2.212744e-02 2.204465e-02 2.205079e-02 2.221951e-02 2.194330e-02 2.234614e-02 2.176259e-02 2.243403e-02 2.156070e-02 2.254684e-02 2.143349e-02 2.271152e-02 2.131700e-02 2.281800e-02 2.116767e-02 2.288838e-02 2.109534e-02 2.302341e-02 2.113545e-02 2.312767e-02 2.121505e-02 2.316083e-02 2.145025e-02 2.319643e-02 2.204420e-02 2.314756e-02 2.334294e-02 2.266219e-02 2.723588e-02 1.023937e-02 2.206977e-03 -5.027766e-03 -7.350151e-03 -9.794664e-03 
-1.050974e-02 -7.967697e-03 -6.927508e-03 -1.210136e-03 4.989333e-03 1.551218e-02 3.502782e-03 1.177649e-02 2.486895e-03 6.824199e-03 -1.134141e-03 -1.215984e-03 -1.133298e-02 -1.564521e-02 -2.048219e-02 -2.159685e-02 -2.285821e-02 -2.331466e-02 -2.122155e-02 -2.058316e-02 -1.576679e-02 -9.773055e-03 -1.770938e-03 2.563056e-04 4.872079e-03 4.456279e-03 7.813495e-03 6.300973e-03 9.218204e-03 7.199721e-03 9.904404e-03 7.692143e-03 1.024595e-02 8.110673e-03 1.046217e-02 8.485155e-03 1.042251e-02 8.610648e-03 1.010807e-02 8.689049e-03 9.953128e-03 9.093618e-03 1.010639e-02 9.575714e-03 1.014117e-02 9.749735e-03 9.936113e-03 9.723373e-03 9.688698e-03 9.596178e-03 9.343252e-03 9.257561e-03 8.801762e-03 8.599550e-03 7.816038e-03 7.258196e-03 6.267779e-03 6.576153e-03 6.936974e-03 7.878538e-03 8.029195e-03 8.571661e-03 9.074902e-03 9.330645e-03 9.833766e-03 1.035132e-02 1.002218e-02 1.115845e-02 1.081555e-02 1.053463e-02 1.182925e-02 1.238939e-02 1.307303e-02 1.200632e-02 1.220538e-02 1.105213e-02 1.165870e-02 1.043140e-02 1.134069e-02 1.001166e-02 1.117461e-02 9.776161e-03 1.107863e-02 9.671967e-03 1.101835e-02 9.783105e-03 1.106443e-02 1.008953e-02 1.106450e-02 1.041205e-02 1.088697e-02 1.063743e-02 1.047344e-02 1.077940e-02 1.008703e-02 1.114962e-02 9.983185e-03 1.165752e-02 9.873730e-03 1.186122e-02 9.598477e-03 1.181843e-02 9.470108e-03 1.180239e-02 9.710192e-03 1.175961e-02 1.007186e-02 1.137643e-02 1.041001e-02 1.078554e-02 1.097317e-02 1.025000e-02 1.174326e-02 9.643189e-03 1.243983e-02 8.945482e-03 1.311002e-02 8.473250e-03 1.392747e-02 8.422527e-03 1.467837e-02 9.214828e-03 1.514680e-02 1.446206e-02 -1.425852e-03 -3.234751e-03 -9.087974e-03 -8.483573e-03 
-3.392920e-03 -2.276510e-04 -1.781102e-03 2.901286e-03 1.552993e-03 7.425859e-03 -8.609540e-03 2.474787e-03 -4.120767e-03 1.464671e-03 1.726678e-04 1.317261e-03 5.561478e-03 4.766177e-04 1.532081e-03 -2.382111e-03 8.197243e-04 -3.157316e-03 1.278610e-03 -1.929044e-03 3.299576e-03 2.778275e-03 2.311529e-03 2.716734e-04 1.046510e-03 -1.009951e-03 4.203679e-04 -1.649819e-03 9.742097e-05 -1.912079e-03 -1.031030e-04 -1.966500e-03 -2.690521e-04 -1.859268e-03 -3.839850e-04 -1.666841e-03 -5.653570e-04 -1.539051e-03 -8.290136e-04 -1.421906e-03 -9.884462e-04 -1.162578e-03 -9.867316e-04 -8.830378e-04 -9.968218e-04 -7.582964e-04 -1.120694e-03 -7.836057e-04 -1.271014e-03 -8.605160e-04 -1.393573e-03 -9.559415e-04 -1.459171e-03 -9.429371e-04 -1.266301e-03 -5.070913e-04 -8.529066e-04 -6.523129e-04 -1.043973e-03 -1.454495e-03 -1.980799e-03 -1.697163e-03 -2.704327e-03 -2.285988e-03 -2.961436e-03 -2.966163e-03 -2.467628e-03 -2.671904e-03 -1.684281e-03 -5.710039e-04 -1.380932e-03 -1.827291e-03 -1.392749e-03 -1.325122e-03 -3.373262e-04 -6.192727e-04 1.459951e-04 -4.831681e-04 2.832431e-04 -5.191130e-04 3.199027e-04 -5.612036e-04 3.169119e-04 -5.391775e-04 3.015659e-04 -3.966612e-04 3.056401e-04 -1.466365e-04 2.402532e-04 1.185799e-04 5.362433e-05 3.599289e-04 -2.551533e-04 5.708308e-04 -5.450900e-04 8.890275e-04 -6.754852e-04 1.242088e-03 -7.729819e-04 1.396038e-03 -8.998642e-04 1.362183e-03 -8.763007e-04 1.264568e-03 -6.038738e-04 1.050420e-03 -1.924523e-04 5.915594e-04 2.931567e-04 -3.412281e-05 9.256112e-04 -7.102018e-04 1.637263e-03 -1.444203e-03 2.249905e-03 -2.187565e-03 2.666307e-03 -2.750639e-03 2.748122e-03 -2.981842e-03 1.892293e-03 -2.667094e-03 -1.784270e-03 5.128998e-03 -2.194591e-03 6.637701e-04 -3.420859e-03 -8.968230e-04 
