# vtk DataFile Version 2.0
Comment goes here
ASCII

DATASET STRUCTURED_POINTS
FIELD FieldData 1
TIME 1 1 double
0.59000000
DIMENSIONS    128   16   1

ORIGIN    0.000   0.000   0.000
SPACING   0.0078125 0.015625   1.000

POINT_DATA   2048
SCALARS uY double
LOOKUP_TABLE default

2.326588e-07 1.708644e-06 1.310835e-07 2.062792e-06 6.693539e-08 2.618419e-06 -7.684743e-07 2.536704e-06 8.413176e-07 1.823217e-06 1.310283e-06 4.738046e-07 6.833642e-07 -8.936798e-07 -2.452759e-07 -5.416840e-07 -3.344975e-06 -8.628038e-07 -7.074557e-06 -3.864459e-06 -9.375130e-06 -8.375042e-06 -1.220814e-05 -9.233596e-06 -8.582432e-06 -9.206761e-06 -5.682311e-06 -1.887458e-05 -1.455625e-05 -4.359134e-05 -3.391548e-05 -7.182875e-05 -4.937882e-05 -8.822630e-05 -5.743348e-05 -9.911765e-05 -7.707295e-05 -1.247382e-04 -1.257186e-04 -1.736880e-04 -2.023350e-04 -2.402250e-04 -2.980937e-04 -3.247321e-04 -4.204798e-04 -4.481278e-04 -5.908432e-04 -6.311790e-04 -8.190188e-04 -8.759045e-04 -1.097180e-03 -1.161177e-03 -1.383499e-03 -1.382864e-03 -1.501403e-03 -1.268720e-03 -1.168257e-03 -2.555301e-06 2.273293e-04 4.843225e-04 2.493586e-03 1.186933e-03 2.957281e-03 3.329729e-03 2.056327e-03 4.620268e-03 2.686113e-03 2.889181e-03 3.730915e-03 6.338574e-04 -3.435956e-04 -9.394456e-04 -1.450533e-03 -1.577352e-03 -1.544169e-03 -1.272292e-03 -1.065239e-03 -8.080247e-04 -6.605890e-04 -4.932877e-04 -4.042533e-04 -3.166936e-04 -2.581244e-04 -2.287428e-04 -1.781038e-04 -1.818438e-04 -1.269918e-04 -1.427124e-04 -8.375145e-05 -9.947703e-05 -4.656337e-05 -6.069726e-05 -2.641995e-05 -3.844516e-05 -2.535894e-05 -2.964090e-05 -3.117558e-05 -2.286167e-05 -3.115759e-05 -1.185989e-05 -2.341285e-05 -2.636253e-07 -1.314829e-05 8.510472e-06 -3.684567e-06 1.224442e-05 9.424390e-07 9.282759e-06 7.960356e-07 2.517971e-06 -1.958571e-06 -5.519998e-06 -4.299878e-06 -9.605196e-06 -1.663750e-06 -7.607468e-06 3.823636e-06 -3.605789e-06 7.075249e-06 -1.650638e-06 5.649641e-06 -8.294825e-07 2.543866e-06 1.986923e-06 1.461654e-06 1.835241e-06 5.815119e-07 1.661931e-06 
5.431878e-04 -7.989365e-04 1.078807e-04 -6.295482e-04 2.947644e-03 4.030621e-03 -5.044955e-03 -1.398176e-03 -3.346625e-03 -5.033341e-03 -6.783927e-03 -1.079025e-02 -1.203023e-02 -1.230473e-02 -7.628959e-03 -2.989230e-03 -1.216884e-03 9.603262e-04 4.316423e-03 5.880779e-03 1.204527e-02 1.305771e-02 9.709234e-03 6.899372e-03 4.370217e-03 2.830563e-03 2.009140e-03 1.101671e-03 9.929876e-04 3.369377e-04 5.207649e-04 8.275619e-06 2.819758e-04 -1.038952e-04 1.446541e-04 -1.094592e-04 3.982072e-05 -7.487386e-05 -6.387141e-05 -3.353876e-05 -1.681690e-04 4.932969e-06 -2.601190e-04 3.612226e-05 -3.375769e-04 4.256207e-05 -4.115297e-04 1.116372e-05 -4.774177e-04 -4.336206e-05 -5.023476e-04 -7.045543e-05 -4.016937e-04 8.852380e-05 2.510923e-05 1.845717e-04 -1.924715e-03 -5.386169e-03 -5.597251e-03 -1.632371e-03 3.344711e-06 -2.559720e-03 2.585655e-03 1.031571e-03 1.493148e-04 7.331024e-03 3.835328e-03 9.251281e-03 1.712068e-02 -2.288199e-03 -1.871061e-02 -1.047661e-02 1.911071e-03 2.483534e-03 1.266145e-03 8.428662e-04 4.378184e-04 4.682656e-04 1.632877e-04 3.557989e-04 7.749924e-06 3.045192e-04 -1.061339e-04 2.573114e-04 -1.876859e-04 2.136516e-04 -2.207297e-04 1.803107e-04 -2.005102e-04 1.477299e-04 -1.397657e-04 9.488369e-05 -5.967283e-05 6.830262e-06 2.811253e-05 -1.100942e-04 1.237741e-04 -2.340628e-04 2.299410e-04 -3.401463e-04 3.376117e-04 -4.133273e-04 4.224936e-04 -4.455243e-04 4.548409e-04 -4.330784e-04 4.082601e-04 -3.676305e-04 2.800454e-04 -2.305151e-04 8.385049e-05 -1.696725e-05 -1.665462e-04 2.558826e-04 -4.526002e-04 5.522221e-04 -7.368564e-04 8.369385e-04 -9.263857e-04 1.122270e-03 -8.000137e-04 1.677225e-03 -6.894506e-04 -3.644772e-03 5.768124e-04 1.323342e-04 1.280714e-03 9.265917e-05 
8.891603e-04 -2.263362e-03 -7.163688e-04 -4.041909e-03 7.312842e-03 1.294395e-02 -1.044645e-02 1.296835e-03 -1.056366e-03 -1.160278e-03 -5.789728e-04 -2.610435e-04 3.253057e-03 3.104768e-03 4.834594e-03 -3.865554e-04 1.865256e-03 -1.832635e-03 3.381088e-04 -4.444843e-03 -2.267002e-03 -2.161739e-03 -1.459440e-03 4.493909e-04 -4.705894e-04 -5.345076e-05 -1.743704e-04 -3.056862e-04 2.626108e-05 -4.342314e-04 9.082496e-05 -4.788045e-04 7.470869e-05 -4.300868e-04 1.927677e-05 -3.208889e-04 -8.674096e-05 -2.075840e-04 -2.457605e-04 -1.199627e-04 -4.325053e-04 -5.536095e-05 -5.982098e-04 -2.994136e-06 -7.356389e-04 -8.643575e-06 -8.909318e-04 -1.159718e-04 -1.067684e-03 -3.038450e-04 -1.221798e-03 -5.315300e-04 -1.322070e-03 -8.109665e-04 -1.525466e-03 -1.636997e-03 -1.876493e-03 -1.356177e-03 -2.199865e-03 -6.949722e-04 1.671215e-03 -1.550666e-03 3.441706e-03 2.206347e-03 6.039481e-04 6.411221e-03 3.758372e-03 3.199625e-03 8.467924e-03 -2.426689e-04 -7.039320e-03 -3.637300e-03 2.624863e-04 -3.729428e-04 -8.884828e-05 -2.845169e-04 -2.532275e-04 -9.442073e-05 -3.420954e-04 1.006360e-04 -4.080544e-04 2.385424e-04 -4.981552e-04 2.802833e-04 -5.850017e-04 2.801113e-04 -5.952388e-04 2.776830e-04 -5.111942e-04 2.573208e-04 -3.563195e-04 1.781204e-04 -1.751173e-04 1.091154e-05 1.357395e-05 -2.240177e-04 2.135338e-04 -4.794124e-04 4.352964e-04 -6.968003e-04 6.657668e-04 -8.462830e-04 8.540193e-04 -9.110750e-04 9.379601e-04 -8.938230e-04 8.475477e-04 -7.834975e-04 5.879304e-04 -5.173329e-04 2.031630e-04 -7.785294e-05 -2.877019e-04 4.990669e-04 -8.678329e-04 1.140072e-03 -1.500452e-03 1.803776e-03 -2.050204e-03 2.613095e-03 -2.203612e-03 4.334301e-03 -2.713030e-03 -9.976283e-03 4.717703e-03 3.630116e-03 3.428927e-03 7.058097e-04 
3.678814e-04 -6.562268e-03 -1.013775e-02 -1.903044e-02 -9.634705e-03 1.044181e-02 -3.625306e-03 1.940832e-04 1.742413e-03 -1.058238e-03 2.864917e-03 -1.065572e-03 1.171709e-03 -2.172172e-03 -1.123498e-03 -1.171932e-04 -9.458687e-04 1.064485e-03 -1.288571e-03 2.473386e-03 -7.630614e-04 3.020796e-04 -2.337171e-04 -9.883481e-04 7.016995e-05 -8.183319e-04 5.086155e-04 -8.478761e-04 6.792084e-04 -9.225357e-04 6.619638e-04 -9.394100e-04 5.683356e-04 -8.087008e-04 4.670810e-04 -5.697289e-04 3.110721e-04 -3.206961e-04 7.996176e-05 -1.013366e-04 -1.818509e-04 1.194528e-04 -3.649011e-04 3.894457e-04 -4.474665e-04 6.106085e-04 -5.298966e-04 6.857426e-04 -6.129369e-04 6.626141e-04 -6.065942e-04 6.047494e-04 -5.176156e-04 4.091176e-04 -4.874941e-04 3.987714e-04 1.320919e-03 2.940215e-03 3.359755e-03 8.162762e-04 9.878798e-04 2.587697e-04 -6.989670e-04 -1.994767e-03 -7.056541e-04 -4.864923e-03 -3.450678e-03 -5.030130e-03 -7.748338e-03 4.049626e-04 9.137131e-03 4.556863e-03 -1.629508e-04 -1.534542e-03 -6.701667e-04 -7.310728e-04 -4.810779e-04 -1.797374e-04 -3.991790e-04 2.779291e-04 -3.889975e-04 5.567526e-04 -5.350221e-04 6.054702e-04 -7.462550e-04 5.777945e-04 -8.312248e-04 5.734302e-04 -7.445153e-04 5.614620e-04 -5.309429e-04 4.572867e-04 -2.828567e-04 1.950993e-04 -3.218365e-05 -1.876751e-04 2.399738e-04 -6.073802e-04 5.670657e-04 -9.570679e-04 9.386545e-04 -1.196052e-03 1.268496e-03 -1.309685e-03 1.450709e-03 -1.330676e-03 1.348770e-03 -1.253134e-03 9.925469e-04 -9.323122e-04 4.825542e-04 -3.176339e-04 -1.616549e-04 5.379941e-04 -9.473284e-04 1.502365e-03 -1.884333e-03 2.458882e-03 -2.884503e-03 3.321003e-03 -3.922774e-03 3.708014e-03 -5.853045e-03 -5.997529e-03 2.311214e-02 1.796365e-02 1.103189e-02 4.270852e-03 
-1.990712e-03 -7.846943e-03 -1.611318e-02 -2.252536e-02 -2.635921e-02 -4.241201e-03 8.484819e-03 -2.329917e-03 9.913447e-04 -1.100213e-03 -3.636264e-04 -1.052976e-03 -1.051582e-03 3.845377e-04 -2.691594e-04 3.281856e-04 -4.065967e-04 4.435263e-04 -4.644231e-04 4.442825e-04 -3.454575e-04 1.637449e-03 -4.345836e-04 9.421792e-04 -4.131562e-05 -1.969862e-06 2.004063e-04 -5.069636e-04 4.043205e-04 -7.809869e-04 4.908508e-04 -8.982312e-04 4.980097e-04 -8.537941e-04 4.663377e-04 -7.014310e-04 3.643589e-04 -5.226335e-04 1.803664e-04 -3.510494e-04 -4.946692e-05 -1.661303e-04 -2.392403e-04 6.276084e-05 -3.628181e-04 2.597316e-04 -4.757023e-04 3.570278e-04 -5.540240e-04 4.071665e-04 -4.936362e-04 5.096743e-04 -2.050112e-04 7.708961e-04 4.090109e-04 8.244015e-04 -1.513404e-03 -3.889584e-03 -3.421479e-03 -2.288529e-03 -1.008896e-03 -1.719219e-03 4.789127e-04 2.216495e-05 1.064265e-03 2.928348e-03 2.926035e-03 5.291370e-03 7.526069e-03 -1.405406e-03 -8.435692e-03 -5.858930e-03 8.010027e-04 1.547197e-03 9.508366e-04 5.924090e-04 2.390106e-04 3.400021e-04 -3.724345e-05 3.891880e-04 -1.886886e-04 4.702685e-04 -3.818565e-04 4.659297e-04 -5.918943e-04 4.461123e-04 -6.935469e-04 4.604460e-04 -6.577573e-04 4.746139e-04 -5.188822e-04 4.201696e-04 -3.461191e-04 2.443137e-04 -1.641262e-04 -2.830055e-05 4.215451e-05 -3.374291e-04 2.965130e-04 -6.053557e-04 5.910607e-04 -8.023294e-04 8.639269e-04 -9.205080e-04 1.038108e-03 -9.871555e-04 1.016631e-03 -9.965112e-04 8.221045e-04 -8.409020e-04 5.251889e-04 -4.800407e-04 1.362632e-04 4.604978e-05 -3.563875e-04 6.294566e-04 -9.583816e-04 1.153337e-03 -1.556808e-03 1.488251e-03 -1.848289e-03 1.358972e-03 8.353310e-04 1.398446e-02 2.909180e-02 2.030699e-02 1.113120e-02 4.560700e-03 
-1.269805e-03 -3.952859e-03 -8.834564e-03 -1.083862e-02 -1.760886e-02 -9.058427e-03 5.292485e-03 -2.938315e-03 -1.575884e-03 -2.472615e-03 -3.549054e-03 -2.170369e-03 -1.609179e-03 2.980240e-04 -2.767886e-04 2.784025e-04 -4.006540e-04 4.329897e-04 -4.275002e-04 4.626739e-04 -2.452065e-04 2.356734e-03 1.963303e-03 2.427836e-03 1.186370e-03 8.149171e-04 7.556279e-04 9.074876e-05 6.146837e-04 -2.768648e-04 5.319834e-04 -4.573480e-04 4.497594e-04 -5.167401e-04 3.517567e-04 -5.013158e-04 2.240799e-04 -4.515750e-04 6.066776e-05 -3.936257e-04 -1.309202e-04 -3.399483e-04 -3.338233e-04 -3.054390e-04 -5.459096e-04 -3.298792e-04 -7.856350e-04 -4.579689e-04 -1.068984e-03 -7.205457e-04 -1.410833e-03 -1.146705e-03 -1.852832e-03 -1.862301e-03 -2.737890e-03 -3.009085e-03 -1.039483e-03 2.569035e-03 6.145582e-04 1.655721e-03 3.800464e-03 -1.574264e-04 4.081761e-03 2.971174e-03 -7.044375e-04 5.256182e-03 2.085270e-03 -1.124305e-03 5.280497e-03 3.626784e-04 -1.894835e-03 5.436536e-04 -7.817114e-04 -1.689053e-03 -1.420003e-03 -1.022770e-03 -7.574657e-04 -4.601350e-04 -4.840230e-04 -1.531519e-04 -3.920799e-04 2.430937e-05 -3.966399e-04 1.197384e-04 -4.359211e-04 1.736502e-04 -4.536953e-04 2.070944e-04 -4.253739e-04 2.159404e-04 -3.527859e-04 1.836357e-04 -2.523390e-04 9.826206e-05 -1.344784e-04 -3.105748e-05 -5.531652e-08 -1.804503e-04 1.497523e-04 -3.206780e-04 3.035902e-04 -4.325101e-04 4.356343e-04 -5.067769e-04 5.141192e-04 -5.423062e-04 5.111235e-04 -5.289630e-04 4.276720e-04 -4.414215e-04 2.815067e-04 -2.721752e-04 8.839234e-05 -4.185354e-05 -1.263343e-04 2.108867e-04 -2.894424e-04 4.716303e-04 -1.760130e-04 8.322152e-04 8.056968e-04 1.663230e-03 5.125244e-03 1.382403e-02 1.372521e-02 9.295462e-03 5.688157e-03 2.418973e-03 
-7.961980e-04 -2.366603e-03 -4.445140e-03 -5.221297e-03 -6.505354e-03 -5.090697e-03 -2.630319e-03 -4.113675e-03 -3.872385e-03 -5.601626e-03 -6.625866e-03 -7.317283e-03 -3.468750e-03 1.583989e-04 -4.483263e-05 1.513169e-04 -1.209928e-04 1.342614e-04 -1.545015e-04 7.142569e-05 -1.339539e-04 6.348919e-03 7.835791e-03 5.476828e-03 3.643255e-03 2.279105e-03 1.732098e-03 8.925212e-04 9.367027e-04 2.125363e-04 5.617197e-04 -1.290848e-04 3.539463e-04 -2.897712e-04 2.055530e-04 -3.545030e-04 6.204104e-05 -3.795440e-04 -1.039353e-04 -4.018544e-04 -3.023416e-04 -4.469630e-04 -5.371694e-04 -5.440207e-04 -8.267781e-04 -7.435727e-04 -1.213656e-03 -1.113417e-03 -1.756376e-03 -1.729366e-03 -2.525798e-03 -2.668861e-03 -3.600892e-03 -4.041635e-03 -5.096961e-03 -5.021381e-03 -2.006741e-03 2.477250e-03 1.307114e-03 1.344071e-03 4.295192e-03 1.276607e-03 3.849742e-03 4.255693e-03 6.141081e-04 5.454254e-03 4.217268e-03 2.132642e-03 8.152814e-03 3.915583e-03 -1.731503e-03 -2.080839e-03 -1.411562e-03 -1.071153e-03 -6.951610e-04 -4.322638e-04 -3.255001e-04 -1.422279e-04 -2.477093e-04 -2.042536e-05 -2.548955e-04 4.958236e-05 -2.892313e-04 9.021173e-05 -3.243233e-04 1.151862e-04 -3.350018e-04 1.313053e-04 -3.100656e-04 1.325908e-04 -2.531304e-04 1.062678e-04 -1.758709e-04 4.402780e-05 -8.612414e-05 -4.822394e-05 1.429730e-05 -1.537487e-04 1.239136e-04 -2.523360e-04 2.340105e-04 -3.300077e-04 3.258378e-04 -3.792541e-04 3.766293e-04 -3.967101e-04 3.674840e-04 -3.740340e-04 2.982464e-04 -2.947018e-04 1.822602e-04 -1.515409e-04 3.754141e-05 5.025783e-05 -1.007712e-04 3.092590e-04 -1.464754e-04 6.701556e-04 1.010463e-04 1.277784e-03 9.990049e-04 2.434461e-03 3.501147e-03 5.657443e-03 6.011564e-03 4.679981e-03 3.082968e-03 1.325263e-03 
-4.091934e-04 -9.803777e-04 -1.963732e-03 -2.223577e-03 -2.772434e-03 -2.494386e-03 -1.295147e-03 -2.237479e-03 -1.992499e-03 -2.800381e-03 -3.415633e-03 -3.549156e-03 -1.757214e-03 7.913018e-05 -4.273240e-05 8.941540e-05 -8.699999e-05 9.482220e-05 -9.637112e-05 6.312540e-05 -6.439193e-05 3.398324e-03 4.175020e-03 2.708263e-03 1.742916e-03 1.011755e-03 7.489991e-04 3.364551e-04 3.692249e-04 2.277084e-05 1.954203e-04 -1.392407e-04 8.718026e-05 -2.340292e-04 -1.075504e-05 -3.029212e-04 -1.244683e-04 -3.730341e-04 -2.697660e-04 -4.661083e-04 -4.588236e-04 -6.035567e-04 -7.061577e-04 -8.135631e-04 -1.037054e-03 -1.138819e-03 -1.494039e-03 -1.638355e-03 -2.135960e-03 -2.378862e-03 -3.021210e-03 -3.400823e-03 -4.158190e-03 -4.677552e-03 -5.540814e-03 -5.963199e-03 -4.885561e-03 3.208603e-04 2.482955e-03 5.505860e-04 3.289842e-03 3.223565e-03 2.836061e-03 5.264619e-03 3.740597e-03 4.787819e-03 6.475943e-03 4.638351e-03 6.204215e-03 3.556143e-03 -3.096516e-03 -2.794943e-03 1.302085e-03 1.842207e-03 1.268340e-03 9.271162e-04 5.189807e-04 3.606312e-04 1.027655e-04 7.408073e-05 -1.088755e-04 -4.598341e-05 -2.038982e-04 -7.931993e-05 -2.371887e-04 -7.328455e-05 -2.356377e-04 -5.319528e-05 -2.120191e-04 -3.386976e-05 -1.744291e-04 -2.507132e-05 -1.293999e-04 -3.168912e-05 -8.085914e-05 -5.246557e-05 -3.023077e-05 -8.156019e-05 2.116972e-05 -1.116752e-04 6.972564e-05 -1.370133e-04 1.090439e-04 -1.537512e-04 1.318744e-04 -1.591785e-04 1.329059e-04 -1.497681e-04 1.121266e-04 -1.210504e-04 7.480879e-05 -7.053464e-05 3.185874e-05 3.511751e-06 6.387503e-06 1.114854e-04 4.850410e-05 2.931728e-04 2.549202e-04 6.421994e-04 7.562378e-04 1.300051e-03 1.644087e-03 2.520829e-03 2.286055e-03 1.955392e-03 1.195876e-03 5.673356e-04 
9.543840e-07 -6.382233e-07 5.773975e-07 -6.181375e-07 3.465392e-07 -5.119465e-07 2.874864e-07 -2.938222e-07 -7.904867e-09 -3.837891e-08 -3.247773e-07 1.488051e-07 -3.217910e-07 -2.872835e-07 -1.909705e-07 -1.783368e-07 1.499528e-07 3.743011e-08 6.836522e-07 3.994526e-07 1.510561e-06 -1.920676e-05 -2.197728e-05 -2.191161e-05 -2.219858e-05 -2.706035e-05 -2.725501e-05 -3.883920e-05 -4.003024e-05 -5.911482e-05 -6.181967e-05 -8.697117e-05 -9.222210e-05 -1.222870e-04 -1.347136e-04 -1.713968e-04 -1.995969e-04 -2.464477e-04 -3.003506e-04 -3.615276e-04 -4.517017e-04 -5.345894e-04 -6.754266e-04 -7.967836e-04 -1.011333e-03 -1.202836e-03 -1.524996e-03 -1.834477e-03 -2.307104e-03 -2.792626e-03 -3.455616e-03 -4.160377e-03 -5.019326e-03 -5.951408e-03 -6.994986e-03 -7.610992e-03 -5.114683e-03 3.054416e-03 5.039147e-03 2.401076e-03 5.831312e-03 4.243147e-03 4.503731e-03 6.573079e-03 3.565832e-03 5.858057e-03 5.705564e-03 4.749067e-03 6.699127e-03 3.319397e-03 5.218940e-04 -1.633234e-04 -1.335179e-03 -1.649044e-03 -1.330047e-03 -8.975911e-04 -6.501778e-04 -4.617036e-04 -3.452857e-04 -2.755121e-04 -2.041706e-04 -1.909559e-04 -1.348751e-04 -1.485489e-04 -9.859979e-05 -1.219562e-04 -7.633706e-05 -9.864474e-05 -5.886153e-05 -7.471268e-05 -4.412442e-05 -5.239634e-05 -3.406007e-05 -3.515989e-05 -2.917235e-05 -2.308713e-05 -2.674279e-05 -1.370938e-05 -2.362205e-05 -5.305476e-06 -1.897395e-05 1.654165e-06 -1.387187e-05 6.118117e-06 -9.508984e-06 7.410181e-06 -6.854950e-06 5.655671e-06 -5.825076e-06 2.156986e-06 -5.561708e-06 -1.470374e-06 -4.890469e-06 -3.529160e-06 -2.851266e-06 -3.504480e-06 -2.287803e-08 -2.479404e-06 2.183290e-06 -1.680673e-06 2.996298e-06 -1.286341e-06 2.878711e-06 -8.663690e-07 2.169654e-06 -7.155946e-07 1.482843e-06 -6.535066e-07 
4.111157e-04 9.791549e-04 1.964974e-03 2.222478e-03 2.773355e-03 2.493650e-03 1.296560e-03 2.237507e-03 1.992784e-03 2.801551e-03 3.414961e-03 3.551293e-03 1.756125e-03 -7.940757e-05 4.265960e-05 -8.954480e-05 8.705030e-05 -9.488272e-05 9.662129e-05 -6.296927e-05 6.545966e-05 -3.453068e-03 -4.235632e-03 -2.769921e-03 -1.805554e-03 -1.086195e-03 -8.253335e-04 -4.382491e-04 -4.764813e-04 -1.706811e-04 -3.541091e-04 -7.278981e-05 -3.178425e-04 -6.093321e-05 -3.196371e-04 -1.067341e-04 -3.534197e-04 -2.065204e-04 -4.288158e-04 -3.644058e-04 -5.599776e-04 -5.895344e-04 -7.685895e-04 -9.040489e-04 -1.092527e-03 -1.350154e-03 -1.587117e-03 -1.985116e-03 -2.313080e-03 -2.858595e-03 -3.299528e-03 -3.944770e-03 -4.438526e-03 -4.989778e-03 -5.346632e-03 -5.246872e-03 -4.013864e-03 8.883797e-04 3.036954e-03 1.398080e-03 4.546464e-03 4.292012e-03 4.441099e-03 6.552648e-03 5.147880e-03 7.499390e-03 7.525383e-03 7.911177e-03 8.785364e-03 2.936781e-03 -2.654638e-03 -2.987821e-03 -1.441789e-03 -8.557063e-04 -9.802676e-04 -8.574384e-04 -8.276642e-04 -7.513110e-04 -6.045800e-04 -6.162198e-04 -4.096369e-04 -5.050258e-04 -2.607736e-04 -4.196457e-04 -1.541751e-04 -3.509535e-04 -8.156137e-05 -2.883663e-04 -3.541977e-05 -2.250608e-04 -1.210334e-05 -1.604717e-04 -1.099837e-05 -9.698957e-05 -2.898371e-05 -3.514670e-05 -5.874481e-05 2.503855e-05 -9.237317e-05 8.052546e-05 -1.240318e-04 1.254716e-04 -1.484630e-04 1.549128e-04 -1.595892e-04 1.655806e-04 -1.531862e-04 1.548162e-04 -1.285706e-04 1.210492e-04 -8.923243e-05 6.494742e-05 -4.384490e-05 -1.195105e-05 -1.366072e-05 -1.191036e-04 -4.984175e-05 -2.984119e-04 -2.516651e-04 -6.457620e-04 -7.510357e-04 -1.302903e-03 -1.638499e-03 -2.522912e-03 -2.281897e-03 -1.957099e-03 -1.192990e-03 -5.687283e-04 
7.974555e-04 2.365272e-03 4.445714e-03 5.219750e-03 6.505453e-03 5.089349e-03 2.631983e-03 4.113060e-03 3.872577e-03 5.602197e-03 6.624623e-03 7.317787e-03 3.466401e-03 -1.593728e-04 4.391077e-05 -1.520991e-04 1.205216e-04 -1.347719e-04 1.545316e-04 -7.162710e-05 1.353624e-04 -6.379103e-03 -7.872511e-03 -5.506295e-03 -3.670117e-03 -2.306360e-03 -1.754969e-03 -9.356193e-04 -9.802804e-04 -3.000498e-04 -6.504526e-04 -1.437034e-05 -4.891615e-04 1.015758e-04 -3.839267e-04 1.173079e-04 -3.157624e-04 4.875273e-05 -2.930889e-04 -8.971385e-05 -3.158751e-04 -2.769945e-04 -3.879585e-04 -5.144133e-04 -5.476618e-04 -8.469176e-04 -8.666706e-04 -1.347373e-03 -1.433026e-03 -2.116842e-03 -2.374735e-03 -3.328321e-03 -3.927036e-03 -5.366029e-03 -6.662120e-03 -8.019971e-03 -4.808639e-03 4.054112e-03 4.737486e-03 2.413090e-03 6.099665e-03 3.907338e-03 4.775279e-03 6.195166e-03 2.917181e-03 5.734816e-03 4.848897e-03 4.638517e-03 5.013811e-03 1.960452e-03 1.076859e-03 -1.448963e-04 -2.888073e-03 -2.610715e-03 -1.956833e-03 -1.278207e-03 -8.562128e-04 -6.792842e-04 -3.271416e-04 -4.419180e-04 -4.576464e-05 -3.567683e-04 1.096311e-04 -3.358473e-04 1.880213e-04 -3.329286e-04 2.177871e-04 -3.144320e-04 2.188073e-04 -2.618938e-04 1.952306e-04 -1.810214e-04 1.364709e-04 -8.715166e-05 4.293433e-05 1.713298e-05 -6.707809e-05 1.330007e-04 -1.750571e-04 2.492462e-04 -2.724011e-04 3.443731e-04 -3.497796e-04 4.048416e-04 -3.882852e-04 4.241321e-04 -3.743709e-04 3.925734e-04 -3.066408e-04 2.996733e-04 -1.949057e-04 1.424196e-04 -5.270531e-05 -6.555267e-05 9.201808e-05 -3.201545e-04 1.490327e-04 -6.741099e-04 -9.103334e-05 -1.279500e-03 -9.892954e-04 -2.437170e-03 -3.493044e-03 -5.658057e-03 -6.007328e-03 -4.681080e-03 -3.080674e-03 -1.326438e-03 
1.270389e-03 3.951637e-03 8.834259e-03 1.083651e-02 1.760676e-02 9.056566e-03 -5.284257e-03 2.937035e-03 1.575729e-03 2.475290e-03 3.546861e-03 2.174184e-03 1.604910e-03 -2.976966e-04 2.767759e-04 -2.782192e-04 4.003973e-04 -4.336421e-04 4.248419e-04 -4.639585e-04 2.404798e-04 -2.391769e-03 -2.002545e-03 -2.456861e-03 -1.208023e-03 -8.312515e-04 -7.621192e-04 -1.168536e-04 -6.396603e-04 2.011340e-04 -6.083717e-04 3.210360e-04 -5.686750e-04 3.501045e-04 -4.894204e-04 3.147219e-04 -4.067301e-04 1.985763e-04 -3.601915e-04 7.002064e-06 -3.550865e-04 -2.296447e-04 -3.931977e-04 -5.086888e-04 -5.285986e-04 -8.943795e-04 -8.652624e-04 -1.494015e-03 -1.534970e-03 -2.479306e-03 -2.773948e-03 -4.224665e-03 -5.126345e-03 -7.703026e-03 -1.025955e-02 -1.462646e-02 -9.649891e-03 8.069915e-03 3.798133e-03 2.766316e-03 1.397280e-02 1.835751e-03 1.156068e-02 1.296204e-02 2.629591e-03 1.919945e-02 9.483326e-03 1.184644e-02 1.773929e-02 -4.714706e-04 1.923782e-03 -5.844259e-04 -1.309026e-02 -1.075402e-02 -7.287201e-03 -5.045672e-03 -3.432520e-03 -2.604968e-03 -1.615770e-03 -1.473715e-03 -6.791307e-04 -9.400653e-04 -1.789550e-04 -6.941108e-04 8.126430e-05 -5.801808e-04 2.051848e-04 -5.011884e-04 2.553967e-04 -4.023492e-04 2.551587e-04 -2.788470e-04 1.940918e-04 -1.478626e-04 7.625903e-05 -6.396123e-06 -6.830457e-05 1.533205e-04 -2.122971e-04 3.166230e-04 -3.467104e-04 4.510357e-04 -4.604438e-04 5.392678e-04 -5.236421e-04 5.759793e-04 -5.163675e-04 5.493050e-04 -4.365034e-04 4.438403e-04 -2.974011e-04 2.558275e-04 -1.092894e-04 1.892687e-05 1.144483e-04 -2.244501e-04 2.938294e-04 -4.737617e-04 1.901433e-04 -8.318007e-04 -7.941046e-04 -1.666435e-03 -5.112682e-03 -1.382428e-02 -1.372171e-02 -9.297101e-03 -5.686718e-03 -2.420042e-03 
1.989365e-03 7.845256e-03 1.611161e-02 2.252148e-02 2.635444e-02 4.239360e-03 -8.475904e-03 2.328674e-03 -9.887157e-04 1.106751e-03 3.623464e-04 1.052522e-03 1.041266e-03 -3.876900e-04 2.672618e-04 -3.297454e-04 4.050478e-04 -4.448092e-04 4.592543e-04 -4.495201e-04 3.318902e-04 -1.665133e-03 3.825211e-04 -9.588686e-04 4.997181e-05 7.121520e-05 -9.573556e-05 6.098509e-04 -3.183237e-04 7.654342e-04 -5.459774e-04 7.331198e-04 -6.053563e-04 7.290994e-04 -4.345646e-04 7.352809e-04 -2.134425e-04 6.050389e-04 -8.166283e-05 3.493125e-04 2.166839e-05 1.387692e-04 2.241541e-04 7.418032e-05 4.723546e-04 4.549985e-05 6.173503e-04 4.525456e-07 7.048039e-04 8.160460e-05 9.108395e-04 4.282415e-04 1.318363e-03 1.037645e-03 1.908032e-03 1.437458e-03 1.031764e-03 -7.072848e-04 -8.280203e-04 -3.370555e-04 -1.656293e-03 -3.657534e-04 -1.546033e-03 -1.417353e-03 -6.740121e-04 -1.545583e-03 -9.899017e-04 -3.778904e-04 -7.436938e-04 3.942316e-04 -1.391697e-03 2.728689e-04 2.000820e-04 8.656142e-04 6.066016e-04 6.137213e-04 5.338979e-04 2.126333e-04 5.087259e-04 -8.698898e-05 5.928703e-04 -2.569281e-04 7.082046e-04 -4.028709e-04 7.352885e-04 -5.534229e-04 6.853743e-04 -6.240013e-04 6.360845e-04 -5.316937e-04 5.994404e-04 -3.385185e-04 4.559264e-04 -1.605836e-04 1.786813e-04 3.187036e-05 -1.279906e-04 3.014369e-04 -3.900561e-04 6.145198e-04 -6.333850e-04 8.544634e-04 -8.733331e-04 9.977018e-04 -1.010930e-03 1.070850e-03 -9.904857e-04 1.041866e-03 -8.155158e-04 8.494417e-04 -5.456076e-04 4.337053e-04 -1.919805e-04 -1.115979e-04 3.257350e-04 -6.543619e-04 9.799348e-04 -1.137327e-03 1.604613e-03 -1.475592e-03 1.869577e-03 -1.375739e-03 -8.225066e-04 -1.397073e-02 -2.909333e-02 -2.030942e-02 -1.113385e-02 -4.562149e-03 
-3.697912e-04 6.562476e-03 1.013705e-02 1.902980e-02 9.633300e-03 -1.043849e-02 3.619797e-03 -1.900336e-04 -1.734748e-03 1.066936e-03 -2.858610e-03 1.060956e-03 -1.175006e-03 2.170718e-03 1.123045e-03 1.195800e-04 9.511033e-04 -1.068068e-03 1.278390e-03 -2.484402e-03 7.205312e-04 -3.253470e-04 1.713012e-04 9.757499e-04 -5.502339e-05 9.213485e-04 -3.647214e-04 9.968422e-04 -5.604350e-04 9.087505e-04 -7.326144e-04 7.189311e-04 -7.014794e-04 6.461494e-04 -3.957490e-04 6.322342e-04 -6.272827e-05 4.609675e-04 1.089776e-04 1.385955e-04 2.066685e-04 -1.114338e-04 4.114992e-04 -1.665469e-04 6.557478e-04 -1.969838e-04 7.337598e-04 -2.907106e-04 7.014924e-04 -2.623439e-04 7.889116e-04 7.498255e-05 1.086493e-03 7.169720e-04 1.682721e-03 2.211721e-03 2.031382e-03 -1.635851e-03 -4.303635e-04 1.840803e-04 -2.870861e-03 9.902176e-04 -1.809788e-03 -1.356524e-03 4.153730e-04 -3.165188e-03 -1.403965e-03 -1.716435e-03 -4.837065e-03 1.174500e-03 -2.943919e-04 8.190538e-04 2.769019e-03 2.624662e-03 1.227780e-03 1.046769e-03 6.447445e-04 3.131067e-04 5.216306e-04 -1.243372e-04 6.446664e-04 -3.415810e-04 8.301491e-04 -5.144285e-04 8.838300e-04 -6.912959e-04 8.171038e-04 -7.600949e-04 7.411335e-04 -6.095774e-04 6.787692e-04 -3.278978e-04 4.695597e-04 -7.603769e-05 8.000970e-05 1.872103e-04 -3.404474e-04 5.460433e-04 -6.860231e-04 9.534991e-04 -9.902730e-04 1.247814e-03 -1.274787e-03 1.396152e-03 -1.404095e-03 1.433412e-03 -1.300837e-03 1.311516e-03 -9.701834e-04 9.478567e-04 -4.971482e-04 2.610657e-04 9.502941e-05 -6.225286e-04 9.112752e-04 -1.534463e-03 1.916065e-03 -2.437182e-03 2.949787e-03 -3.305226e-03 3.949329e-03 -3.731306e-03 5.853742e-03 6.021088e-03 -2.311575e-02 -1.796273e-02 -1.103636e-02 -4.270462e-03 
-8.894504e-04 2.265904e-03 7.170070e-04 4.045614e-03 -7.310568e-03 -1.293724e-02 1.043570e-02 -1.289635e-03 1.062222e-03 1.166716e-03 5.863449e-04 2.619900e-04 -3.249812e-03 -3.112582e-03 -4.826543e-03 3.891526e-04 -1.870284e-03 1.841912e-03 -3.565575e-04 4.442423e-03 2.250308e-03 2.129586e-03 1.407334e-03 -4.725671e-04 4.561618e-04 7.369590e-05 2.101076e-04 3.279957e-04 -1.341560e-05 3.609691e-04 -1.740958e-04 2.878968e-04 -2.024962e-04 2.326594e-04 -8.596580e-05 1.847939e-04 5.336683e-05 5.915301e-05 1.169649e-04 -1.412399e-04 1.249513e-04 -3.267814e-04 1.385365e-04 -4.600427e-04 1.110165e-04 -6.400697e-04 -7.941803e-05 -9.605868e-04 -4.854240e-04 -1.459412e-03 -1.167510e-03 -2.296765e-03 -2.422285e-03 -4.058391e-03 -5.332167e-03 -8.197586e-03 -5.996486e-03 5.661589e-03 2.192357e-03 9.937421e-04 9.309353e-03 -2.433433e-04 6.540265e-03 7.841769e-03 -6.806889e-04 1.265075e-02 4.058276e-03 7.209456e-03 1.201284e-02 -1.251682e-03 1.399084e-03 -2.420539e-04 -8.657749e-03 -6.507752e-03 -4.507475e-03 -2.883039e-03 -2.065826e-03 -1.516513e-03 -9.128504e-04 -9.477268e-04 -2.501751e-04 -6.991766e-04 1.482932e-04 -6.126292e-04 3.396399e-04 -5.983282e-04 3.931246e-04 -5.576895e-04 3.864188e-04 -4.227618e-04 3.430396e-04 -2.241332e-04 2.052488e-04 -2.871758e-05 -3.293857e-05 1.759989e-04 -2.969083e-04 4.188510e-04 -5.271377e-04 6.721234e-04 -7.219276e-04 8.580335e-04 -8.767565e-04 9.488728e-04 -9.258248e-04 9.454248e-04 -8.265272e-04 8.174030e-04 -5.759744e-04 5.274518e-04 -2.088672e-04 5.099306e-05 2.590946e-04 -5.424714e-04 8.531483e-04 -1.162915e-03 1.517342e-03 -1.802111e-03 2.083649e-03 -2.610977e-03 2.221351e-03 -4.343607e-03 2.711309e-03 9.989891e-03 -4.716828e-03 -3.626438e-03 -3.429897e-03 -7.032852e-04 
-5.429812e-04 8.017649e-04 -1.077467e-04 6.331711e-04 -2.946966e-03 -4.025752e-03 5.040128e-03 1.402994e-03 3.348377e-03 5.036147e-03 6.786353e-03 1.079038e-02 1.203049e-02 1.229958e-02 7.632164e-03 2.988149e-03 1.210738e-03 -9.550344e-04 -4.330326e-03 -5.879649e-03 -1.205084e-02 -1.306272e-02 -9.722582e-03 -6.896939e-03 -4.364894e-03 -2.817296e-03 -1.986101e-03 -1.099035e-03 -9.794124e-04 -3.793850e-04 -5.384574e-04 -9.867274e-05 -3.117881e-04 6.166345e-06 -1.540134e-04 3.219887e-05 -4.115810e-05 -1.671449e-06 1.941264e-05 -7.628343e-05 4.108381e-05 -1.566789e-04 4.459047e-05 -2.279765e-04 1.917180e-05 -3.161648e-04 -6.977736e-05 -4.533540e-04 -2.462760e-04 -6.676372e-04 -5.490643e-04 -1.039936e-03 -1.104441e-03 -1.816393e-03 -2.412604e-03 -3.886593e-03 -3.232329e-03 1.569860e-03 -2.390816e-04 -5.121868e-04 3.748922e-03 -7.042788e-04 3.062047e-03 3.862787e-03 -7.830899e-05 7.042131e-03 2.642129e-03 4.402044e-03 6.862667e-03 -9.702024e-04 -1.029034e-03 -1.265858e-03 -4.159282e-03 -2.787798e-03 -1.623593e-03 -8.718921e-04 -4.986153e-04 -2.798341e-04 -4.293611e-05 -1.165990e-04 1.621171e-04 -1.166159e-04 2.538747e-04 -1.676731e-04 2.806451e-04 -2.157427e-04 2.699292e-04 -2.246337e-04 2.415956e-04 -1.787141e-04 1.955586e-04 -9.429941e-05 1.124847e-04 2.695295e-06 -9.601971e-06 1.081592e-04 -1.450490e-04 2.257411e-04 -2.677130e-04 3.435350e-04 -3.670562e-04 4.344245e-04 -4.344822e-04 4.806542e-04 -4.493133e-04 4.726705e-04 -3.959517e-04 3.966680e-04 -2.717406e-04 2.409969e-04 -8.502800e-05 6.304036e-06 1.574278e-04 -2.772897e-04 4.491553e-04 -5.686328e-04 7.468343e-04 -8.435301e-04 9.442551e-04 -1.125087e-03 8.138973e-04 -1.679110e-03 6.936398e-04 3.650288e-03 -5.734753e-04 -1.284471e-04 -1.279737e-03 -8.967192e-05 
