# vtk DataFile Version 2.0
Comment goes here
ASCII

DATASET STRUCTURED_POINTS
FIELD FieldData 1
TIME 1 1 double
0.08000000
DIMENSIONS    128   16   1

ORIGIN    0.000   0.000   0.000
SPACING   0.0078125 0.015625   1.000

POINT_DATA   2048
SCALARS uY double
LOOKUP_TABLE default

1.671116e-05 3.322824e-05 3.013590e-05 3.828383e-05 3.236184e-05 2.802266e-05 7.618028e-06 -1.403547e-05 -5.623307e-06 1.094041e-05 -1.197306e-04 -1.045346e-04 -1.563067e-04 -2.005501e-04 -9.739633e-05 -1.025246e-04 -9.044203e-05 -2.475795e-04 -2.178546e-04 -2.072178e-04 -2.144398e-04 1.929543e-05 -5.245605e-05 8.239816e-05 3.325343e-04 4.938130e-04 1.711612e-04 3.545600e-04 3.131955e-04 -1.189358e-04 -2.440263e-05 5.181910e-05 -1.979959e-04 3.442210e-05 3.589695e-05 -4.210718e-04 -2.894406e-04 -5.779331e-04 -6.451595e-04 -4.157576e-04 -6.918115e-04 -5.132220e-04 -6.334904e-04 -6.659539e-04 -5.266613e-04 -3.711314e-04 -2.398008e-04 4.714745e-05 -1.307521e-05 -9.205991e-05 -1.653298e-04 5.493673e-05 2.308871e-04 7.391644e-04 7.468300e-04 7.053677e-04 3.565632e-05 9.150513e-04 1.013718e-03 1.142707e-03 3.562323e-03 2.239607e-03 3.477476e-03 3.772987e-03 1.374332e-03 2.837775e-03 -7.033814e-04 -2.792714e-03 -2.545589e-03 -5.689027e-03 -4.016158e-03 -1.426683e-03 -1.868806e-04 6.646746e-04 4.313791e-04 3.579944e-04 -2.043632e-04 -3.372147e-04 -4.652280e-04 -7.637924e-04 -4.014437e-04 -5.149543e-04 -2.553197e-04 -9.706005e-05 -3.206861e-04 -1.903919e-04 -2.402221e-04 -1.958597e-04 -2.213662e-04 -8.073816e-05 -4.515653e-04 -3.982701e-04 -1.518396e-04 -5.204244e-04 7.274797e-05 -4.022827e-04 -1.134035e-04 1.329668e-04 -1.382714e-04 4.796290e-04 2.964600e-04 2.499364e-04 5.181899e-04 8.232673e-05 -4.594687e-05 1.588039e-05 -2.403300e-04 -4.462233e-04 -2.386880e-04 -4.488967e-04 -2.658390e-04 3.255216e-05 1.329331e-04 1.320622e-05 3.025559e-04 3.975505e-04 1.002244e-04 -3.269154e-05 2.547787e-05 9.396186e-05 -2.725423e-04 -2.035703e-04 -1.714039e-04 -6.050373e-05 -5.646328e-05 -1.596197e-06 -7.566414e-06 2.169292e-05 
5.512619e-05 -1.261610e-03 -1.746979e-03 -1.513750e-03 2.645518e-04 6.070872e-03 -2.871796e-03 -4.612862e-03 -4.628428e-03 -8.721481e-03 -1.097038e-02 -1.924629e-02 -2.373132e-02 -2.428210e-02 -1.275732e-02 -6.271734e-03 -2.665305e-03 2.098557e-03 6.607975e-03 1.178094e-02 2.391869e-02 2.496867e-02 1.677499e-02 1.145035e-02 8.154233e-03 5.278909e-03 2.710836e-03 2.725965e-03 1.703111e-03 -1.973411e-04 1.124542e-03 6.119793e-04 -6.509801e-04 1.085860e-03 1.900542e-05 -1.400273e-03 -2.267622e-04 -1.260700e-03 -7.870554e-04 4.532281e-04 -9.817964e-04 8.513811e-05 -5.475478e-04 -4.557270e-04 -6.367318e-05 4.234563e-04 5.169119e-04 1.190337e-03 1.061983e-03 7.795180e-04 7.955630e-04 1.961220e-03 2.410565e-03 3.672471e-03 3.384081e-03 1.761998e-03 -3.704325e-04 -5.741331e-04 -3.307999e-03 3.470382e-04 4.668435e-03 -2.172842e-03 4.210892e-03 1.651960e-03 -4.239348e-03 5.370245e-03 -5.113093e-03 -2.415605e-03 7.875458e-03 -1.418241e-02 -2.304045e-02 -1.046620e-02 3.584503e-04 3.178790e-03 3.224499e-03 3.702166e-03 2.662892e-03 2.342111e-03 1.455368e-03 4.417258e-04 7.957057e-04 3.332173e-04 8.351613e-04 8.507156e-04 -2.796989e-04 4.857484e-04 -2.389598e-04 5.014010e-04 2.229576e-04 6.333433e-04 -8.993801e-04 -2.449754e-04 6.211447e-05 -7.095642e-04 7.931565e-04 -1.227895e-03 -4.160108e-04 5.277144e-04 -9.762027e-04 1.119354e-03 6.721797e-04 -4.456158e-04 1.956823e-03 -4.650671e-04 -3.734042e-04 3.758956e-04 2.064367e-04 -1.424699e-03 4.986141e-04 -1.328101e-03 -4.231972e-04 2.895297e-04 4.584393e-04 -1.125006e-03 5.183621e-04 1.740211e-03 -2.026224e-04 6.011898e-05 9.743688e-05 2.626732e-03 -1.293612e-03 2.678345e-03 -4.247139e-03 -3.664550e-03 1.972885e-03 1.364107e-03 2.111680e-03 4.518929e-04 
3.079879e-05 -3.441515e-03 -4.219780e-03 -6.970640e-03 -2.074192e-04 2.035219e-02 -1.474029e-03 -5.340022e-03 2.558525e-04 -5.776467e-03 -1.285819e-03 -7.459202e-03 2.284492e-03 7.105165e-03 6.829155e-03 2.018680e-03 2.339556e-03 -2.527776e-03 -2.209885e-03 -5.940265e-03 -8.101054e-03 5.910775e-04 2.375819e-03 1.730298e-03 4.151932e-03 2.077775e-03 -4.599792e-04 2.167792e-03 1.598321e-03 -2.667220e-03 1.501701e-03 6.942489e-04 -2.360936e-03 2.905498e-03 6.518456e-04 -3.176017e-03 -4.035128e-04 -3.167173e-03 -1.781916e-03 1.760097e-03 -1.650266e-03 2.862907e-04 -1.102845e-03 -1.507075e-03 -6.447510e-04 3.570758e-04 3.962356e-04 1.382536e-03 7.492171e-04 -1.568293e-03 -2.534711e-03 -8.501599e-04 -1.290870e-03 -3.665172e-04 -2.446333e-03 -5.856752e-03 -6.196643e-03 -5.164125e-04 -2.879326e-03 -7.649762e-04 5.009793e-03 -3.853301e-03 3.607117e-03 4.343272e-03 -2.018540e-04 1.277638e-02 7.945967e-03 8.390628e-03 1.767355e-02 3.737662e-03 -3.166106e-03 -2.164115e-03 -3.344255e-03 -5.347383e-03 -5.613587e-03 -3.494452e-03 -2.913989e-03 -1.375039e-03 -1.927860e-03 -3.138652e-03 -1.311642e-03 -1.538957e-03 4.334795e-04 4.933086e-04 -1.647203e-03 3.162520e-04 -1.274725e-03 2.955594e-04 2.540568e-04 1.359048e-03 -2.227652e-03 -4.289835e-04 1.767569e-04 -1.389638e-03 1.940224e-03 -3.217328e-03 -1.315880e-03 1.212195e-03 -2.409790e-03 2.760188e-03 1.111998e-03 -1.723413e-03 4.153987e-03 -1.079237e-03 -9.519340e-04 1.546710e-03 5.674722e-04 -2.954100e-03 1.280935e-03 -3.065953e-03 -1.309060e-03 1.013396e-03 1.268441e-03 -2.699273e-03 1.317543e-03 3.844979e-03 -6.553490e-04 -5.403000e-04 7.539337e-04 5.744238e-03 -3.443451e-03 5.049966e-03 -1.362056e-02 -8.997982e-03 1.003336e-02 5.349263e-03 5.056322e-03 7.313189e-04 
-9.330462e-04 -9.499546e-03 -1.713053e-02 -2.907322e-02 -2.915220e-02 1.207769e-02 2.010842e-03 -2.530699e-03 6.716396e-03 -5.611840e-04 4.625476e-03 1.399072e-03 4.577329e-03 -6.142796e-03 -1.888139e-03 -8.894047e-04 7.654978e-04 1.391051e-04 5.703177e-04 1.994742e-03 -6.110455e-04 -1.481022e-03 -1.952714e-03 -3.232775e-03 -6.654634e-04 -4.197841e-04 -1.635472e-03 -2.937626e-05 1.902044e-03 -2.386607e-03 -3.858281e-04 -7.703064e-04 -1.500053e-03 1.755780e-03 2.835307e-03 -8.418719e-04 -1.463278e-03 -3.653086e-03 -3.377244e-03 6.295267e-04 -7.296258e-04 -2.581001e-04 -1.412324e-03 -7.121102e-04 -1.624239e-03 1.644343e-03 1.115632e-03 2.408381e-03 1.756393e-03 -1.196185e-03 -2.774648e-03 -4.616863e-04 -2.957768e-04 1.587923e-03 8.910959e-04 8.236719e-04 5.878122e-04 -2.492065e-04 2.961763e-03 3.229159e-03 -9.606486e-04 7.679725e-04 -2.306811e-03 -2.588768e-03 2.465998e-03 -6.619443e-03 -4.489069e-03 -8.154426e-03 -1.353443e-02 4.511492e-04 7.766234e-03 2.406831e-03 1.425139e-03 1.263802e-03 2.084045e-03 1.363208e-03 1.093634e-03 1.419377e-03 -4.788707e-04 -1.349905e-03 -7.351967e-04 2.456378e-04 1.114123e-03 1.358086e-03 5.133735e-04 1.785620e-03 -4.419821e-04 -4.115824e-04 -8.572958e-04 1.354333e-03 -1.083095e-03 3.646542e-04 -3.198929e-04 -7.816165e-04 -2.532347e-04 -2.610732e-03 -1.836118e-03 3.135390e-04 4.617130e-04 1.990874e-03 8.368969e-04 -1.494239e-03 1.434285e-03 4.159977e-04 2.610510e-03 1.041757e-03 1.554319e-03 -2.375849e-03 5.483683e-05 -4.623168e-03 -1.636166e-03 -2.130958e-03 1.550782e-03 -3.211610e-04 1.463296e-03 7.038930e-04 -8.472911e-04 1.394092e-03 -8.065683e-05 4.062423e-03 -4.718141e-03 3.451801e-03 -1.361776e-02 1.224411e-02 3.996802e-02 2.462855e-02 1.512440e-02 4.935008e-03 
-2.848576e-03 -1.096195e-02 -2.176479e-02 -3.363254e-02 -4.365484e-02 -1.756422e-02 -1.400758e-04 -2.455957e-03 2.610950e-03 -2.962151e-03 -1.636263e-03 -4.061329e-03 -1.144647e-03 1.562513e-04 -2.889152e-04 -2.121896e-05 5.086744e-05 1.348373e-04 -2.472812e-04 2.541486e-04 -7.844533e-04 2.724863e-03 4.378366e-03 1.697676e-03 -1.053871e-03 1.394010e-04 1.435444e-03 -1.462072e-03 1.723988e-03 1.352324e-03 -1.673524e-03 -1.774071e-03 1.902653e-03 -1.896464e-03 2.737074e-03 3.089843e-03 -1.625416e-03 -7.175096e-04 -2.562390e-03 -2.346141e-03 3.500019e-04 -1.325821e-03 -1.325517e-03 6.934958e-04 -2.178913e-03 1.158682e-03 -8.137059e-05 6.367563e-04 2.392339e-04 1.294698e-04 -7.485925e-04 1.565976e-04 8.701936e-04 1.548943e-03 1.061472e-03 1.345895e-04 -1.280458e-03 -1.678472e-03 -2.546208e-03 -1.378298e-03 -1.306925e-03 -1.993167e-03 1.464417e-03 1.156372e-03 1.617841e-03 3.628461e-03 9.736872e-04 3.516672e-03 7.966328e-03 -2.276621e-03 -8.518815e-03 -6.466378e-03 -2.647133e-03 -9.806883e-04 1.706314e-03 3.120958e-04 5.262453e-04 -1.402657e-05 -1.090255e-03 3.276197e-04 -1.226639e-03 9.941607e-04 -6.255842e-04 1.840380e-04 2.019111e-03 1.287308e-03 4.852297e-04 -1.266673e-03 -2.159447e-03 -4.952692e-04 1.088435e-03 8.019017e-04 -1.261201e-03 6.766450e-04 -3.603809e-03 9.971199e-04 -7.512408e-04 -1.435552e-03 4.042602e-03 -1.425050e-03 -1.819457e-04 5.913564e-04 -3.529470e-03 1.997038e-03 5.254028e-03 -1.223518e-03 1.691215e-03 4.534244e-04 -1.474714e-03 -2.406227e-03 6.454237e-05 -4.817001e-03 5.405302e-04 3.223322e-03 4.806409e-04 -4.050116e-03 3.639897e-04 3.693788e-03 -6.804366e-04 -7.780328e-04 2.090085e-05 1.943987e-03 7.585275e-03 3.826130e-02 4.388687e-02 2.776157e-02 1.467016e-02 5.538979e-03 
-1.698731e-03 -4.843656e-03 -1.068484e-02 -1.435074e-02 -2.289866e-02 -1.925674e-02 -3.784962e-03 -3.448054e-03 -3.380753e-03 -5.686862e-03 -6.310461e-03 -9.099803e-03 -5.037198e-03 1.587339e-04 -1.606751e-04 -5.901667e-05 -4.924862e-05 6.901209e-05 -6.886864e-05 2.890821e-04 -2.167730e-04 6.415913e-03 8.411136e-03 5.018654e-03 1.923815e-03 1.439716e-03 2.580260e-03 -4.118712e-04 1.027662e-03 1.698745e-03 -6.225774e-04 -9.001593e-04 1.776997e-03 -1.915795e-03 6.843064e-04 1.917364e-03 -8.367816e-04 4.568214e-04 -1.038165e-03 -2.067600e-03 -2.155697e-04 -1.111798e-03 -1.018227e-03 3.744943e-04 -1.482403e-03 -7.244856e-05 -1.102888e-03 -7.654917e-04 -1.225487e-03 -1.326609e-04 -5.454923e-04 -7.855088e-04 -9.548623e-04 -1.821454e-03 -3.430267e-03 -5.234073e-03 -2.188754e-03 5.084472e-03 -1.563375e-04 2.627983e-04 5.280682e-03 -9.770614e-04 5.967209e-03 6.222202e-03 -1.048014e-03 8.640307e-03 5.351765e-03 1.114908e-03 1.044685e-02 2.974169e-03 -2.200304e-03 -3.995097e-04 -3.025274e-03 -5.586924e-03 -4.583310e-03 -4.507478e-03 -3.161729e-03 -2.708254e-03 -2.185799e-03 -4.014962e-04 -1.424346e-03 5.142078e-05 -1.218308e-03 -5.062053e-04 8.388954e-04 1.398326e-04 2.251239e-04 -6.505484e-04 -1.309788e-03 -7.820797e-04 7.118546e-04 3.701621e-04 -1.022617e-03 6.455177e-04 -2.441535e-03 1.375483e-03 6.854761e-05 -1.135318e-03 2.437264e-03 -1.625338e-03 -2.179565e-04 8.604721e-04 -2.340780e-03 9.945939e-04 2.779298e-03 -1.332285e-03 8.698913e-04 6.549010e-04 -7.480116e-04 -5.321457e-04 7.155287e-04 -2.697464e-03 -4.949623e-05 1.943497e-03 1.961624e-05 -2.386473e-03 7.967559e-04 2.716536e-03 1.170035e-04 -2.171781e-05 2.958387e-03 3.754223e-03 1.300888e-02 2.447889e-02 1.763261e-02 1.269764e-02 6.565147e-03 3.194759e-03 
-1.190536e-03 -3.326858e-03 -6.211425e-03 -7.756393e-03 -9.877719e-03 -8.956290e-03 -6.515884e-03 -7.153301e-03 -6.489177e-03 -1.003648e-02 -1.081740e-02 -1.643328e-02 -1.122943e-02 8.634410e-05 -2.421802e-06 4.180093e-05 -3.100043e-05 1.508000e-05 -8.372889e-05 -2.937899e-05 -8.125703e-05 1.346915e-02 1.564874e-02 8.764296e-03 7.015843e-03 3.847098e-03 3.702754e-03 1.664622e-03 2.008854e-03 9.545513e-04 8.621993e-04 1.191945e-04 8.155937e-04 -1.706071e-04 5.068770e-04 2.578039e-04 -2.601486e-04 -1.990798e-04 -6.326884e-04 -6.655677e-04 -5.295095e-04 -5.628700e-04 -7.451385e-04 -2.058716e-04 -8.550879e-04 -7.912829e-05 -6.295724e-04 -1.246044e-04 -5.113099e-04 -1.291826e-04 -4.144870e-04 -1.199483e-04 -2.560807e-04 -3.304143e-04 -1.257832e-03 -2.336847e-03 -1.432138e-03 2.453976e-03 8.943179e-04 -1.778206e-04 3.317634e-03 5.907170e-04 1.744195e-03 3.469067e-03 -1.222313e-03 2.888318e-03 2.677227e-03 -9.177352e-04 6.305534e-03 2.890532e-03 -3.946907e-03 -2.571527e-03 -1.948961e-04 -1.457647e-03 -1.902650e-03 -2.038381e-03 -1.597526e-03 -1.199217e-03 -1.147176e-03 -5.041568e-04 -7.864984e-04 -1.582110e-04 -4.318130e-04 -1.096943e-04 2.551265e-05 -8.013738e-06 -1.166317e-04 -2.309210e-04 -4.344760e-04 -1.703469e-04 -2.215347e-04 8.209147e-05 -5.409460e-04 1.484042e-04 -7.176388e-04 1.135440e-04 -1.160090e-04 -2.742252e-04 5.231600e-04 -2.632309e-04 1.123887e-04 1.110041e-04 -1.189856e-04 1.899445e-04 8.269880e-04 -2.273344e-04 4.799957e-04 -2.228903e-04 3.553686e-05 -6.527749e-04 1.439707e-04 -8.128685e-04 2.110777e-04 1.564694e-04 3.706512e-04 -1.701762e-05 6.573826e-04 1.323059e-03 1.133183e-03 2.000412e-03 2.556143e-03 4.294483e-03 6.033885e-03 9.635379e-03 8.182857e-03 6.743751e-03 3.922362e-03 1.807535e-03 
-5.717752e-04 -1.291910e-03 -2.605292e-03 -3.220105e-03 -4.050668e-03 -4.236616e-03 -3.060863e-03 -3.604975e-03 -3.330382e-03 -4.913795e-03 -5.468054e-03 -8.210665e-03 -5.657785e-03 3.884723e-05 -2.918012e-06 1.841627e-05 -2.063063e-05 1.383594e-05 -4.247579e-05 5.646469e-06 -5.503443e-05 6.899370e-03 7.834982e-03 4.201697e-03 3.212891e-03 1.683740e-03 1.574245e-03 6.810063e-04 7.306581e-04 3.827242e-04 2.792913e-04 -4.537358e-05 2.581630e-04 -2.162423e-04 2.599207e-05 -3.354895e-06 -2.940264e-04 -2.469514e-04 -5.097290e-04 -6.519887e-04 -6.290872e-04 -7.130290e-04 -8.447015e-04 -6.409073e-04 -1.024657e-03 -7.477120e-04 -1.127608e-03 -9.524290e-04 -1.279048e-03 -1.147972e-03 -1.470363e-03 -1.557210e-03 -1.947613e-03 -2.403786e-03 -3.468732e-03 -4.784950e-03 -4.595048e-03 1.250324e-03 1.975562e-03 -2.419629e-04 4.045881e-03 2.428316e-03 3.422512e-03 5.916875e-03 3.085559e-03 7.320563e-03 7.322193e-03 6.954728e-03 1.050296e-02 3.732455e-03 -2.321632e-03 -2.819300e-03 -2.134648e-03 -2.701709e-03 -2.778998e-03 -2.659301e-03 -2.307624e-03 -1.969247e-03 -1.794026e-03 -1.280368e-03 -1.322181e-03 -8.599934e-04 -9.139384e-04 -6.674556e-04 -4.992125e-04 -4.971063e-04 -4.118781e-04 -4.656012e-04 -4.473480e-04 -3.741844e-04 -2.840878e-04 -1.464489e-04 -3.948361e-04 2.785772e-06 -4.237295e-04 5.062450e-05 -5.799787e-05 -1.838616e-04 2.447819e-04 -2.186284e-04 4.749164e-05 3.424599e-05 -9.084153e-05 7.072581e-05 3.052383e-04 -1.308182e-04 1.825139e-04 -7.861990e-05 -1.322461e-05 -2.266859e-04 4.483890e-05 -3.527277e-04 2.556368e-05 3.641655e-05 1.182283e-04 -6.826504e-06 3.611600e-04 6.211007e-04 7.116364e-04 1.020195e-03 1.586805e-03 2.182428e-03 2.912913e-03 4.043837e-03 3.084003e-03 2.841604e-03 1.465860e-03 8.396058e-04 
-2.566082e-05 -1.900945e-05 -2.471462e-05 -2.148800e-05 -2.124357e-05 -1.875555e-05 -1.005996e-05 -6.390986e-06 1.566003e-05 4.206850e-06 4.470894e-06 1.509834e-05 1.380407e-05 1.759057e-05 2.148761e-05 7.223304e-06 4.191702e-06 -1.454220e-05 -2.101506e-05 -4.043912e-05 -4.582756e-05 2.260372e-05 -3.337951e-05 -1.522314e-06 -1.103292e-04 -5.930236e-05 -1.150704e-04 -6.391003e-05 -1.153479e-04 -4.943350e-05 -9.215592e-05 -8.125330e-05 -6.200343e-05 -7.152243e-05 -7.236957e-05 -7.757821e-05 -1.748385e-04 -2.408458e-04 -3.473261e-04 -4.538174e-04 -4.970658e-04 -5.591061e-04 -6.039181e-04 -5.655899e-04 -6.516636e-04 -5.719757e-04 -6.778346e-04 -6.446187e-04 -8.090382e-04 -8.659554e-04 -1.148774e-03 -1.356598e-03 -1.829028e-03 -2.415700e-03 -3.408274e-03 -4.307410e-03 -3.141890e-03 2.038204e-03 3.351121e-03 1.352874e-03 3.358944e-03 2.588937e-03 2.822636e-03 3.846653e-03 1.756578e-03 4.098451e-03 3.127389e-03 2.996335e-03 5.626331e-03 1.482599e-03 -7.621953e-04 -9.851286e-04 -1.960868e-03 -2.291228e-03 -1.975978e-03 -1.610342e-03 -1.270124e-03 -1.003742e-03 -8.405363e-04 -5.976865e-04 -5.162608e-04 -3.488549e-04 -2.847866e-04 -2.436756e-04 -1.760614e-04 -2.127513e-04 -1.918317e-04 -2.354681e-04 -1.927865e-04 -2.268329e-04 -1.474350e-04 -1.601741e-04 -1.345318e-04 -9.593916e-05 -8.514069e-05 -4.656485e-05 2.860265e-05 -2.905227e-05 1.189691e-04 1.503049e-05 1.124642e-04 7.962368e-05 6.883680e-05 7.560896e-05 6.655121e-05 -1.574067e-05 -3.597775e-05 -9.010300e-05 -1.391890e-04 -1.484318e-04 -1.485017e-04 -1.597273e-04 -1.250292e-04 -7.661859e-05 -8.723710e-05 -7.434077e-05 -5.842464e-05 -6.137564e-06 -4.537187e-05 -2.476250e-06 -2.896680e-05 2.492393e-05 -3.112031e-05 8.340346e-06 -2.912237e-05 -4.638546e-06 -2.684076e-05 -1.338629e-05 
4.936483e-04 1.228859e-03 2.517851e-03 3.143709e-03 3.954896e-03 4.156430e-03 2.973971e-03 3.559123e-03 3.317081e-03 4.862487e-03 5.394583e-03 8.199248e-03 5.620710e-03 1.825624e-07 2.923522e-05 6.365464e-06 2.448260e-05 -2.677972e-05 6.463050e-06 -4.619605e-05 -3.933030e-05 -6.760454e-03 -7.858688e-03 -4.115354e-03 -3.619540e-03 -1.927887e-03 -1.897204e-03 -8.927611e-04 -1.130760e-03 -4.215358e-04 -5.385128e-04 -2.347136e-04 -4.160505e-04 -4.692263e-05 -2.920683e-04 -9.301021e-05 -1.636225e-04 -3.095949e-04 -3.545111e-04 -6.105642e-04 -6.564423e-04 -8.383111e-04 -8.121746e-04 -9.312070e-04 -8.660554e-04 -1.024170e-03 -9.521466e-04 -1.173784e-03 -1.177919e-03 -1.369510e-03 -1.550675e-03 -1.729513e-03 -2.061914e-03 -2.454453e-03 -3.099904e-03 -3.971108e-03 -3.487249e-03 1.172338e-03 2.324631e-03 2.943297e-04 3.594569e-03 2.679415e-03 3.152801e-03 5.074353e-03 3.499911e-03 7.271678e-03 6.564524e-03 8.981733e-03 1.145968e-02 3.096337e-03 -2.565802e-03 -3.482203e-03 -3.135618e-03 -2.794403e-03 -2.530715e-03 -2.130942e-03 -1.854421e-03 -1.620209e-03 -1.442284e-03 -1.176392e-03 -1.007398e-03 -8.750830e-04 -6.476125e-04 -7.375676e-04 -5.287135e-04 -5.806439e-04 -5.556679e-04 -5.221855e-04 -3.804616e-04 -5.093285e-04 -1.780759e-04 -3.538112e-04 -8.911135e-05 -2.361859e-04 1.123176e-05 -1.330649e-04 5.768609e-05 -2.369770e-05 5.646704e-05 2.410691e-05 9.115957e-05 7.035302e-05 1.478945e-05 1.088730e-04 -9.931696e-05 5.030880e-05 -1.982421e-04 -1.873508e-05 -3.003194e-04 -1.792957e-06 -3.130595e-04 -7.997502e-05 -3.412935e-04 -1.413022e-04 -3.877827e-04 -3.169741e-04 -5.018745e-04 -5.774935e-04 -8.236735e-04 -1.073039e-03 -1.564028e-03 -2.046028e-03 -2.946417e-03 -4.019577e-03 -3.147040e-03 -2.864374e-03 -1.537452e-03 -8.860959e-04 
1.140164e-03 3.276242e-03 6.151899e-03 7.692580e-03 9.804378e-03 8.880287e-03 6.437610e-03 7.147542e-03 6.667997e-03 1.004354e-02 1.075076e-02 1.647955e-02 1.132409e-02 1.815579e-05 7.848731e-05 1.806379e-05 7.102466e-05 -2.763793e-05 4.123894e-05 -5.867085e-05 -3.802713e-05 -1.335969e-02 -1.545429e-02 -8.686813e-03 -7.549058e-03 -4.187720e-03 -3.953108e-03 -1.869510e-03 -2.333489e-03 -8.679096e-04 -1.074260e-03 -4.479317e-04 -7.770247e-04 9.082678e-05 -2.832218e-04 2.163146e-04 1.905564e-04 -8.342491e-05 -1.524915e-04 -6.728287e-04 -6.358326e-04 -9.504939e-04 -6.989725e-04 -9.254186e-04 -5.348566e-04 -8.007047e-04 -3.077936e-04 -5.740320e-04 -2.838589e-04 -5.714588e-04 -7.156037e-04 -1.018972e-03 -1.524853e-03 -2.381722e-03 -3.460238e-03 -4.945414e-03 -3.435986e-03 1.984936e-03 2.888974e-03 1.240885e-03 3.322382e-03 1.941373e-03 3.255023e-03 3.661693e-03 1.204905e-03 4.915515e-03 2.647029e-03 4.012887e-03 5.414842e-03 4.848845e-05 6.478472e-04 7.791557e-05 -3.671108e-03 -3.349676e-03 -2.233059e-03 -1.388652e-03 -8.159461e-04 -5.546407e-04 -3.135322e-04 -1.201045e-04 1.106028e-04 3.132125e-05 3.526373e-04 -7.998386e-05 1.211200e-04 -2.020754e-04 -3.257464e-04 -3.650107e-04 -1.357125e-04 -5.144807e-04 5.707347e-05 -3.923085e-04 1.262287e-04 -2.807794e-04 2.905513e-04 -7.894725e-05 2.670647e-04 1.100725e-04 1.021513e-04 2.116538e-04 2.611802e-04 3.227194e-04 9.143717e-05 3.104505e-04 -2.929773e-04 1.281761e-04 -5.492020e-04 -2.141734e-05 -6.894161e-04 1.677147e-04 -5.723013e-04 1.158622e-04 -5.182903e-04 1.364602e-05 -5.091371e-04 -3.955039e-04 -7.112305e-04 -1.077095e-03 -1.237060e-03 -2.100540e-03 -2.540070e-03 -4.068664e-03 -6.112823e-03 -9.632908e-03 -8.242185e-03 -6.769949e-03 -3.971604e-03 -1.846830e-03 
1.631773e-03 4.767666e-03 1.059357e-02 1.423615e-02 2.273388e-02 1.902393e-02 3.439769e-03 3.561288e-03 3.901998e-03 5.454680e-03 5.868269e-03 9.138772e-03 5.275133e-03 4.685334e-05 1.298586e-04 1.770343e-04 1.227005e-04 -1.224342e-04 1.090357e-04 -2.959491e-04 1.572816e-04 -6.079681e-03 -7.118003e-03 -3.924650e-03 -4.242962e-03 -3.163190e-03 -2.264839e-03 -3.541810e-04 -2.306925e-03 -8.389301e-05 5.335402e-04 -4.144263e-04 -1.096562e-03 1.063390e-03 -6.207872e-04 4.977759e-04 1.247894e-03 -3.022779e-05 2.457101e-04 -8.561518e-04 -1.266036e-03 -1.499544e-03 -1.182680e-03 -1.218993e-03 -5.731896e-04 -1.072787e-03 -2.167342e-04 -1.211058e-03 -5.004440e-04 -9.692157e-04 -1.242341e-03 -1.116050e-03 -2.220966e-03 -3.538182e-03 -5.357356e-03 -9.402863e-03 -7.613104e-03 3.574162e-03 2.766798e-03 -1.223297e-03 6.259807e-03 3.918211e-04 4.637080e-03 7.345740e-03 5.530953e-04 1.345066e-02 7.894308e-03 1.184970e-02 1.936016e-02 1.442103e-03 -5.004467e-04 -5.674717e-04 -9.054230e-03 -7.937778e-03 -5.090743e-03 -3.389106e-03 -2.056070e-03 -1.760203e-03 -1.406130e-03 -5.447229e-04 -3.922671e-04 -2.234316e-04 5.897489e-04 -8.807254e-04 3.592653e-05 -2.694814e-04 -1.506008e-03 -3.883689e-04 -4.238705e-04 -1.211813e-03 3.848491e-04 -4.103529e-04 1.727445e-04 -4.149146e-04 6.636734e-04 -3.430478e-04 3.663233e-04 3.826292e-04 -2.773253e-04 2.758604e-04 5.780476e-04 1.368818e-04 2.735625e-04 5.354719e-04 -5.666281e-04 2.765478e-04 -5.680481e-04 -3.020297e-04 -9.455083e-04 6.058620e-04 -6.121564e-04 1.297728e-04 -6.365621e-04 1.412865e-04 -6.247878e-04 -2.804362e-04 -5.341000e-04 -8.220267e-04 -6.537432e-04 -1.167396e-03 -2.173358e-03 -2.418967e-03 -1.314880e-02 -2.471204e-02 -1.777880e-02 -1.281365e-02 -6.644794e-03 -3.270008e-03 
2.831137e-03 1.090616e-02 2.171412e-02 3.354203e-02 4.351312e-02 1.721234e-02 -8.788168e-04 2.533961e-03 -5.111313e-04 3.030826e-03 1.047413e-04 4.145160e-03 1.970757e-03 1.946940e-04 3.203034e-04 2.335924e-04 2.239300e-04 -8.674130e-05 2.000400e-04 -2.621453e-04 1.189791e-04 -2.596250e-03 -1.620397e-03 -8.072559e-04 -2.456135e-03 -2.167663e-03 -1.136093e-03 1.126805e-03 -2.303706e-03 4.863024e-04 9.419827e-04 -8.059047e-04 -1.952622e-03 1.466192e-03 8.864917e-05 2.255375e-03 3.366683e-03 1.347651e-03 4.167136e-04 -2.157791e-03 -2.157815e-03 -2.391175e-03 -1.557040e-03 -1.759872e-03 -7.266918e-04 -1.586371e-03 7.463547e-04 6.570049e-04 2.036208e-03 1.513742e-03 9.582198e-04 1.690667e-03 1.234671e-03 1.810599e-03 3.014535e-03 1.369671e-03 1.105324e-03 1.968140e-04 8.544358e-06 -3.365058e-04 -5.103726e-04 -2.122726e-04 -1.014732e-03 -7.209022e-04 -1.226400e-03 -2.101333e-03 -2.605638e-03 -1.746876e-03 -1.868478e-03 4.694089e-04 -1.265739e-03 -1.000874e-03 4.393025e-04 1.700802e-04 -4.282704e-04 -3.902587e-05 7.409553e-04 6.426289e-04 5.429864e-04 1.378398e-03 1.568762e-03 1.440543e-03 2.639103e-03 5.321653e-04 1.281052e-03 -2.974685e-04 -2.466696e-03 -6.492947e-04 -1.561121e-04 -1.480250e-03 5.303625e-04 -8.073691e-04 1.079529e-04 -8.029043e-04 1.262804e-03 1.158933e-04 1.088753e-03 3.827064e-04 -1.000308e-03 4.175587e-04 1.510555e-03 1.300292e-03 9.403465e-04 1.113632e-03 -1.051312e-03 1.042983e-04 -1.730130e-03 -1.056863e-03 -2.212286e-03 1.205103e-03 -8.620084e-04 7.841537e-04 -7.331146e-04 1.328813e-03 -5.618476e-06 4.270497e-04 -1.424546e-04 -8.379922e-04 3.798785e-04 -8.185502e-04 2.977096e-04 -3.633694e-04 -7.974332e-03 -3.868883e-02 -4.385663e-02 -2.786372e-02 -1.466957e-02 -5.598240e-03 
1.025469e-03 9.562645e-03 1.722853e-02 2.916825e-02 2.928338e-02 -1.211454e-02 -2.836391e-03 2.298291e-03 -4.481626e-03 1.347016e-03 -6.183018e-03 -1.468258e-03 -4.166350e-03 4.879998e-03 -1.554571e-04 1.346033e-03 1.818072e-04 -4.244405e-04 7.797940e-05 -1.923152e-03 -1.997147e-03 1.848171e-03 3.144126e-03 2.107586e-03 9.599210e-04 2.125953e-03 8.887246e-04 1.726067e-03 5.661198e-04 7.464441e-04 -1.065230e-03 -2.231227e-04 -7.043215e-04 -1.221525e-04 2.125964e-03 3.059789e-03 2.644064e-03 2.203983e-03 -2.939539e-04 -2.869256e-03 -1.321097e-03 -2.284205e-03 -9.836944e-04 -2.279746e-03 -1.382510e-03 -2.322888e-03 1.754211e-04 2.032866e-03 2.679515e-03 1.858212e-03 9.613273e-04 -1.530286e-04 1.916973e-04 6.453306e-04 2.057460e-03 2.329897e-03 2.276058e-03 -1.408431e-03 -1.084855e-03 2.992146e-05 -2.755192e-03 -4.707917e-04 -1.068236e-03 -1.736336e-03 -3.954728e-04 -1.428217e-03 9.186799e-05 1.420216e-03 2.415071e-04 4.126132e-03 2.846194e-03 1.142709e-03 2.625973e-05 -1.540722e-03 -3.326497e-03 -2.343579e-03 -1.440395e-03 -3.458551e-04 2.513748e-04 2.706132e-04 1.537850e-03 1.054365e-03 1.934817e-03 2.059564e-03 1.436412e-03 -1.091522e-03 -7.662954e-04 -1.487588e-03 4.041702e-04 -5.222082e-04 -4.232445e-04 -1.416311e-03 -2.529880e-04 -9.559526e-04 6.891842e-04 1.015937e-03 1.287992e-03 -1.329441e-04 -6.016983e-04 6.630501e-04 1.298080e-03 2.932088e-03 7.738190e-04 1.363245e-03 -1.078283e-03 -4.737368e-05 -2.916081e-03 -5.746216e-04 -2.841527e-03 9.318138e-04 -1.098020e-03 1.621670e-03 -3.340237e-04 2.163761e-03 1.177597e-03 7.190008e-04 5.351981e-04 -1.707680e-03 9.562452e-04 -3.352424e-03 2.759128e-03 -4.511013e-03 1.300260e-02 -1.234210e-02 -3.966743e-02 -2.452646e-02 -1.498760e-02 -4.872402e-03 
4.605197e-05 3.533905e-03 4.324780e-03 7.108319e-03 3.824495e-04 -2.016659e-02 1.435080e-03 5.045585e-03 1.408483e-04 6.363063e-03 7.416243e-04 7.169510e-03 -2.970276e-03 -8.328135e-03 -6.808511e-03 -1.223284e-03 -2.030147e-03 1.342919e-03 1.271094e-03 4.726901e-03 7.051936e-03 1.341741e-04 -3.351390e-03 -3.010077e-03 -1.360704e-03 1.186576e-03 -4.024901e-04 -2.056343e-04 1.027187e-03 -1.090962e-04 -2.326209e-03 2.063505e-04 3.694937e-04 -1.169170e-03 1.723224e-03 1.127173e-03 -1.086246e-04 7.960761e-04 -8.214259e-04 -1.571582e-03 -1.243766e-04 -1.150555e-03 -3.247449e-04 -1.623615e-03 -1.171847e-03 -1.580684e-03 -6.375815e-04 9.605188e-04 7.987395e-04 2.974070e-04 2.181158e-06 -1.695177e-03 -1.032909e-03 -1.594046e-03 -2.275820e-03 -4.183528e-03 -4.840240e-03 3.111845e-03 3.294206e-03 -5.955765e-04 5.208482e-03 1.098108e-03 2.632034e-03 4.487587e-03 -1.977170e-03 6.533739e-03 3.228540e-03 5.558379e-03 1.196934e-02 -5.607311e-04 -2.248104e-03 -9.931072e-04 -6.140566e-03 -4.766580e-03 -3.860080e-03 -2.337634e-03 -1.845410e-03 -7.604011e-04 -7.576587e-05 -7.278521e-04 4.451593e-04 -4.052819e-05 8.424438e-05 1.426140e-03 4.864002e-04 -9.398066e-04 1.036692e-03 -1.181326e-03 3.782851e-04 1.973627e-04 -8.065827e-04 -1.078912e-03 -2.564875e-04 -5.697777e-04 -1.332374e-04 6.949869e-04 5.329751e-04 -2.911889e-04 3.248820e-04 5.828942e-04 2.185403e-04 2.054316e-03 2.909394e-05 7.414699e-04 -5.183147e-04 6.210526e-05 -1.934034e-03 3.276957e-04 -1.601702e-03 1.168238e-04 -9.127281e-04 1.114767e-03 -1.251743e-04 1.114140e-03 8.110642e-04 1.566144e-04 3.292358e-04 -1.679150e-03 1.843051e-04 -3.932658e-03 1.331058e-03 -7.156310e-03 1.320525e-02 9.184478e-03 -9.883864e-03 -5.209853e-03 -4.973067e-03 -6.408645e-04 
-2.543792e-06 1.337358e-03 1.827769e-03 1.609477e-03 -1.599372e-04 -5.954495e-03 2.983744e-03 4.532432e-03 4.566383e-03 8.894543e-03 1.078731e-02 1.903685e-02 2.317789e-02 2.371744e-02 1.259330e-02 6.374181e-03 2.568633e-03 -2.609347e-03 -7.431658e-03 -1.198284e-02 -2.433964e-02 -2.478200e-02 -1.735172e-02 -1.176138e-02 -6.773956e-03 -3.701508e-03 -2.737769e-03 -1.750933e-03 -5.864167e-04 -7.833111e-04 -1.234266e-03 -7.504401e-05 4.802489e-05 -4.316054e-04 5.933293e-04 1.087500e-04 -2.324862e-04 -2.440755e-05 -4.423978e-04 -5.800010e-04 -1.722175e-04 -5.872186e-04 -2.261524e-04 -7.422689e-04 -3.328317e-04 -3.718606e-04 7.061015e-05 7.024925e-04 7.588116e-04 7.214842e-04 8.332436e-04 4.034243e-04 8.651235e-04 7.785079e-04 4.157917e-04 -7.604300e-04 -1.737002e-03 1.472336e-03 9.112230e-04 -8.672739e-04 2.561543e-03 -5.299734e-05 1.090691e-03 1.932285e-03 -2.015125e-03 2.505020e-03 -6.449343e-04 -3.208295e-04 2.732254e-03 -4.600998e-03 -4.905372e-03 -2.433348e-03 -2.891326e-03 -1.123956e-03 -3.188745e-04 3.653266e-04 2.530484e-04 5.193114e-04 6.712529e-04 2.131065e-04 6.886143e-04 3.628795e-04 4.204671e-04 8.020380e-04 4.291867e-04 -9.064606e-05 7.121442e-04 -3.041724e-04 2.103532e-04 8.327504e-05 -3.334456e-04 -4.906397e-04 -4.167283e-05 -3.390708e-04 3.170178e-05 8.999236e-05 1.804932e-04 8.086003e-05 2.394422e-04 5.671879e-04 1.510313e-04 9.053085e-04 1.373917e-04 4.115845e-04 -2.911333e-04 1.575075e-04 -8.775105e-04 1.162165e-04 -7.499522e-04 -6.292807e-05 -5.483835e-04 4.874148e-04 -2.541032e-05 3.688890e-04 3.882982e-04 1.027381e-04 2.703322e-04 -8.513442e-04 1.877654e-04 -1.895238e-03 3.596668e-04 -3.585668e-03 3.920185e-03 3.674582e-03 -2.026466e-03 -1.322807e-03 -2.097234e-03 -3.929419e-04 
