# vtk DataFile Version 2.0
Comment goes here
ASCII

DATASET STRUCTURED_POINTS
FIELD FieldData 1
TIME 1 1 double
0.65000000
DIMENSIONS    128   16   1

ORIGIN    0.000   0.000   0.000
SPACING   0.0078125 0.015625   1.000

POINT_DATA   2048
SCALARS uY double
LOOKUP_TABLE default

4.738687e-07 -8.375411e-07 5.478940e-07 -8.388504e-07 1.171920e-06 -7.666077e-07 2.519779e-06 -1.417515e-06 2.070470e-06 -1.131523e-06 1.356616e-06 -2.464241e-08 -2.910381e-07 2.881127e-06 -2.739669e-06 5.546590e-06 -3.346281e-06 6.200740e-06 3.853251e-07 6.223901e-06 6.869032e-06 1.060925e-05 1.009904e-05 1.238105e-05 1.406342e-05 1.438185e-05 2.109420e-05 2.124354e-05 3.388940e-05 3.391883e-05 5.054351e-05 4.949398e-05 6.662261e-05 6.589161e-05 8.422651e-05 9.077831e-05 1.155098e-04 1.372242e-04 1.723165e-04 2.145700e-04 2.607564e-04 3.254597e-04 3.837774e-04 4.751193e-04 5.576490e-04 6.875419e-04 8.175891e-04 9.979051e-04 1.198913e-03 1.427332e-03 1.703905e-03 1.942625e-03 2.246991e-03 2.358525e-03 2.515933e-03 2.173229e-03 1.714049e-03 -3.339272e-04 -9.737806e-04 -1.123785e-03 -3.097058e-03 -1.805743e-03 -3.181732e-03 -3.697405e-03 -2.462598e-03 -4.807497e-03 -3.374759e-03 -3.987245e-03 -4.727958e-03 -1.472924e-03 -7.954096e-04 -4.138835e-04 5.057778e-04 9.126407e-04 1.352805e-03 1.397417e-03 1.375564e-03 1.274029e-03 1.104356e-03 9.907820e-04 7.953392e-04 7.099834e-04 5.425888e-04 4.900092e-04 3.647768e-04 3.322554e-04 2.440522e-04 2.195894e-04 1.596498e-04 1.385666e-04 1.029365e-04 8.604213e-05 7.226855e-05 5.705540e-05 5.766374e-05 3.942012e-05 4.614730e-05 2.353902e-05 3.210610e-05 1.070852e-05 2.189420e-05 8.558952e-06 1.949772e-05 1.317400e-05 1.733640e-05 1.499669e-05 1.015675e-05 1.129404e-05 1.312990e-06 8.149114e-06 -1.056045e-06 9.859818e-06 1.940075e-06 1.090080e-05 3.775737e-06 7.635237e-06 2.934585e-06 2.264940e-06 2.413996e-06 -3.280538e-07 4.030123e-06 -4.781165e-07 4.525071e-06 2.985585e-08 1.840028e-06 -6.005182e-07 8.713113e-07 -7.732050e-07 
-1.087234e-03 1.373829e-04 -1.944378e-03 -2.672420e-04 -4.912934e-03 -1.812411e-04 6.194636e-03 -1.997352e-03 1.299635e-03 -3.816090e-04 9.303822e-04 -3.405437e-04 -2.134428e-03 -2.780620e-03 5.984516e-04 -1.474217e-03 -7.326499e-04 4.316459e-04 -4.443677e-04 1.195819e-03 2.969841e-03 2.057705e-03 -2.573868e-05 -4.515991e-04 -4.763209e-04 -1.147355e-04 -3.834108e-04 7.337031e-05 -3.391575e-04 1.733130e-04 -2.981642e-04 2.138997e-04 -2.554636e-04 2.074239e-04 -2.088118e-04 1.713155e-04 -1.496559e-04 1.294557e-04 -6.946585e-05 1.008686e-04 2.932281e-05 8.702676e-05 1.303284e-04 8.118210e-05 2.300363e-04 1.005058e-04 3.578419e-04 1.889491e-04 5.586922e-04 3.969318e-04 8.680603e-04 7.679519e-04 1.306562e-03 1.340545e-03 2.032462e-03 2.975997e-03 3.875645e-03 2.134571e-03 3.669621e-03 2.344530e-03 -1.249030e-03 2.831941e-03 -1.859525e-03 -1.772484e-03 4.322618e-04 -7.414519e-03 -5.047351e-03 -1.108142e-02 -1.715896e-02 1.428539e-03 1.375996e-02 8.240006e-03 -1.636476e-05 -1.804941e-03 -1.070788e-03 -6.486344e-04 -2.110902e-04 -2.022419e-04 5.196242e-05 -1.096316e-04 1.321052e-04 -1.140680e-04 1.686042e-04 -1.164734e-04 1.890735e-04 -1.051716e-04 1.695404e-04 -8.795598e-05 9.967022e-05 -5.462035e-05 2.637122e-06 1.670648e-05 -9.057422e-05 1.243156e-04 -1.747557e-04 2.360031e-04 -2.576834e-04 3.195601e-04 -3.324174e-04 3.641993e-04 -3.700467e-04 3.726959e-04 -3.487415e-04 3.316063e-04 -2.695967e-04 2.237167e-04 -1.358767e-04 4.983745e-05 5.341164e-05 -1.711354e-04 2.908029e-04 -4.182273e-04 5.409215e-04 -6.702450e-04 7.515976e-04 -8.731163e-04 8.668298e-04 -9.128125e-04 8.099530e-04 -5.615839e-04 4.899181e-04 1.026871e-03 -1.104802e-03 3.853367e-03 3.447215e-04 6.510526e-04 -6.610721e-04 7.598923e-05 
-2.159739e-03 1.315399e-04 -3.306239e-03 1.197123e-04 -1.294294e-02 -2.740569e-04 1.728178e-02 -6.863480e-03 2.134240e-03 -4.422158e-03 4.831973e-04 -6.450905e-03 -2.137451e-03 1.763883e-03 -1.308654e-03 1.353271e-03 -9.208784e-04 1.348121e-03 -1.827703e-03 1.971820e-03 -3.485762e-03 3.679123e-03 4.639176e-03 1.080720e-03 1.882201e-03 7.018980e-04 8.683297e-04 6.521709e-04 3.054553e-04 6.380197e-04 1.482054e-05 6.122672e-04 -1.091093e-04 5.434686e-04 -1.385155e-04 4.379368e-04 -9.343606e-05 3.372644e-04 3.038329e-05 2.862361e-04 2.247326e-04 2.798979e-04 4.261706e-04 2.698493e-04 5.961305e-04 2.752927e-04 7.906623e-04 3.901185e-04 1.111642e-03 7.280945e-04 1.641375e-03 1.385777e-03 2.475313e-03 2.599833e-03 4.132952e-03 5.114740e-03 3.665591e-03 -3.468826e-03 -1.198368e-03 1.622315e-04 -4.835721e-03 1.223712e-03 -3.484466e-03 -3.649866e-03 6.275655e-04 -6.105340e-03 -2.884148e-03 -3.054846e-03 -6.598374e-03 2.615905e-04 -9.435705e-04 -1.644719e-03 1.149053e-03 1.617854e-03 1.225813e-03 9.876085e-04 8.837581e-04 5.167953e-04 6.570724e-04 1.622123e-04 5.323174e-04 -4.041006e-05 5.326612e-04 -8.789574e-05 5.678386e-04 -8.126258e-05 5.082881e-04 -8.284963e-05 3.198440e-04 -6.356086e-05 7.658518e-05 5.695563e-05 -1.289574e-04 2.812116e-04 -3.014164e-04 5.159851e-04 -4.811388e-04 6.777221e-04 -6.616160e-04 7.521782e-04 -7.599805e-04 7.723134e-04 -7.205791e-04 6.997119e-04 -5.667821e-04 4.829728e-04 -3.086593e-04 1.261424e-04 6.677389e-05 -3.209979e-04 5.623892e-04 -8.195267e-04 1.099639e-03 -1.362612e-03 1.576568e-03 -1.868145e-03 1.925478e-03 -2.151260e-03 2.059065e-03 -1.793625e-03 1.805875e-03 7.425818e-04 -4.772457e-03 1.143965e-02 4.688780e-04 -2.297027e-03 -2.061795e-03 -1.098737e-03 
-1.332314e-03 1.880418e-03 4.067853e-04 4.149897e-03 -1.271118e-02 -6.170499e-03 8.930813e-03 -2.285253e-03 2.205313e-03 2.889874e-04 1.155808e-03 2.620114e-03 2.322910e-03 -1.568753e-03 1.482678e-03 -1.345133e-03 1.359613e-03 -1.555469e-03 1.902777e-03 -1.987657e-03 2.499558e-03 -2.352444e-03 -2.368540e-03 -6.405589e-04 -1.362582e-03 -4.559011e-05 -1.168379e-03 3.551692e-04 -1.084966e-03 6.125443e-04 -1.012220e-03 7.420215e-04 -9.200634e-04 7.209503e-04 -8.333873e-04 5.717991e-04 -7.204728e-04 3.825945e-04 -5.261838e-04 2.462321e-04 -2.405581e-04 1.368192e-04 -1.231996e-05 -8.532740e-05 3.937488e-05 -4.163317e-04 -1.591255e-05 -7.172552e-04 -4.598706e-05 -8.843571e-04 -5.627676e-05 -1.035796e-03 -2.648976e-04 -1.432331e-03 -1.038834e-03 -2.863193e-03 -2.458835e-03 -2.667248e-04 -1.051346e-03 -6.962370e-04 3.450364e-04 7.934394e-06 5.813754e-04 2.238548e-03 3.457744e-04 3.847337e-03 3.229573e-03 4.572437e-03 6.325833e-03 -1.023245e-03 -4.081859e-03 -9.187632e-04 -5.021515e-04 2.672749e-04 3.334120e-04 1.653186e-04 2.841227e-04 -2.264072e-04 1.733972e-04 -5.908361e-04 1.628430e-04 -7.171246e-04 3.706234e-04 -5.735878e-04 6.158015e-04 -3.963266e-04 6.311700e-04 -3.290069e-04 3.668238e-04 -2.975186e-04 4.907894e-07 -9.478171e-05 -2.656343e-04 3.110272e-04 -4.695609e-04 7.318736e-04 -7.245712e-04 1.003271e-03 -1.034045e-03 1.121643e-03 -1.219979e-03 1.191405e-03 -1.169519e-03 1.137954e-03 -9.575584e-04 8.517183e-04 -6.102171e-04 3.452775e-04 -8.626249e-05 -2.771640e-04 6.562525e-04 -9.560761e-04 1.487439e-03 -1.738271e-03 2.254176e-03 -2.533465e-03 2.911078e-03 -3.139872e-03 3.325706e-03 -3.262608e-03 2.786874e-03 -2.087624e-03 -4.117650e-03 2.525972e-02 -8.272566e-04 -7.737907e-03 -3.817290e-03 -2.162438e-03 
-9.417528e-05 1.115703e-03 4.825414e-03 5.295955e-03 3.952850e-03 -9.771532e-03 -1.350246e-02 1.817652e-03 -7.015067e-04 -9.088236e-04 3.633816e-04 -2.452964e-03 -3.505321e-04 -4.693283e-04 3.470942e-04 -5.698413e-04 5.312505e-04 -5.912492e-04 5.764055e-04 -4.290000e-04 3.722568e-04 -1.701118e-04 2.259962e-03 -1.885694e-04 1.182301e-03 1.537980e-04 5.257629e-04 4.238162e-04 4.693436e-05 6.158690e-04 -2.626240e-04 7.341665e-04 -4.379832e-04 7.483505e-04 -5.314774e-04 6.650812e-04 -5.408200e-04 5.441775e-04 -4.389462e-04 4.525193e-04 -2.288301e-04 3.742265e-04 -2.834522e-05 2.176364e-04 6.844040e-05 1.199777e-06 1.084407e-04 -1.556096e-04 1.939810e-04 -1.599804e-04 3.423473e-04 -7.626374e-05 4.275137e-04 -3.769676e-05 4.202666e-04 6.391436e-04 2.210449e-03 1.846337e-03 1.655429e-03 1.861818e-03 6.214840e-04 1.384697e-03 -2.407145e-04 3.543628e-04 -1.025533e-03 -2.239744e-03 -2.690529e-03 -5.766761e-03 -6.052015e-03 1.578327e-03 5.718737e-03 2.634774e-03 -1.424951e-05 -8.198247e-04 -5.949985e-04 -5.393237e-04 -9.158394e-05 -4.316375e-04 8.348101e-05 -5.442611e-04 1.777607e-04 -5.780647e-04 3.593469e-04 -4.488279e-04 5.361297e-04 -3.054209e-04 5.345479e-04 -2.507146e-04 3.295976e-04 -2.300793e-04 5.439369e-05 -8.698868e-05 -1.468703e-04 2.092614e-04 -3.069609e-04 5.258959e-04 -5.109690e-04 7.411959e-04 -7.612956e-04 8.507968e-04 -9.271330e-04 9.276226e-04 -9.242346e-04 9.180083e-04 -8.062116e-04 7.430283e-04 -5.929231e-04 4.119168e-04 -2.560376e-04 -1.157132e-06 2.338788e-04 -4.565513e-04 7.819567e-04 -9.929012e-04 1.276653e-03 -1.551091e-03 1.686553e-03 -1.992372e-03 1.950597e-03 -2.118667e-03 1.854488e-03 -1.510554e-03 4.543061e-03 1.902810e-02 -3.551257e-03 -7.954785e-03 -4.330777e-03 -2.836358e-03 
1.680105e-04 7.799503e-04 3.327558e-03 3.041731e-03 7.674079e-03 -2.698529e-03 -1.098924e-02 1.847173e-03 -1.518941e-03 -1.583412e-03 -2.193055e-04 -4.450492e-03 -1.671301e-03 -3.465374e-04 3.731445e-04 -5.382791e-04 5.457796e-04 -5.960343e-04 5.628017e-04 -4.552809e-04 2.697336e-04 2.884977e-03 3.833806e-03 4.618349e-05 1.095069e-03 -2.662467e-05 3.044704e-04 1.512412e-04 -8.652464e-05 3.175284e-04 -2.805734e-04 4.354188e-04 -3.644267e-04 4.954201e-04 -3.751488e-04 5.081415e-04 -3.216531e-04 4.990030e-04 -2.024051e-04 4.943332e-04 -2.301739e-05 5.048530e-04 1.920596e-04 5.354957e-04 4.326834e-04 6.253508e-04 7.336650e-04 8.546346e-04 1.172691e-03 1.334815e-03 1.872576e-03 2.233720e-03 3.063715e-03 3.951780e-03 5.383490e-03 6.730270e-03 2.256784e-03 -6.184666e-03 -2.456355e-03 -2.697925e-03 -6.162153e-03 -4.298301e-04 -4.740123e-03 -3.923664e-03 4.463596e-05 -4.422507e-03 -2.422810e-03 -1.652968e-04 -3.444079e-03 -3.345715e-03 -4.396412e-03 -2.924472e-03 1.804540e-03 2.480942e-03 2.389291e-03 1.782446e-03 1.539948e-03 9.816604e-04 1.044960e-03 4.918747e-04 7.639559e-04 2.026352e-04 6.140609e-04 6.473416e-05 5.213918e-04 1.004430e-05 4.161415e-04 -1.184651e-05 2.743724e-04 -4.766949e-06 1.184090e-04 5.663934e-05 -2.199601e-05 1.730961e-04 -1.495280e-04 3.066310e-04 -2.773826e-04 4.155809e-04 -3.981417e-04 4.844338e-04 -4.761327e-04 5.145251e-04 -4.844801e-04 4.901049e-04 -4.262231e-04 3.933214e-04 -3.067917e-04 2.281132e-04 -1.286218e-04 1.722985e-05 9.670471e-05 -2.167004e-04 3.260356e-04 -4.528547e-04 5.051759e-04 -6.303273e-04 5.971417e-04 -6.158682e-04 6.151394e-04 -1.223851e-04 8.308097e-04 1.192828e-03 4.026157e-03 2.247513e-03 -4.683989e-03 -2.709362e-03 -2.378605e-03 -9.046441e-04 
-9.690187e-05 7.780626e-06 7.814675e-04 5.245059e-04 1.268171e-03 -2.951826e-04 -2.064314e-03 -5.417953e-04 -1.095225e-03 -1.263446e-03 4.093941e-05 -2.010681e-03 -2.968495e-03 -2.142440e-04 6.103782e-05 -2.115725e-04 1.596796e-04 -1.756451e-04 2.029093e-04 -7.688183e-05 2.067634e-04 4.523536e-03 3.309043e-03 -9.593452e-04 5.478671e-04 -7.076182e-04 2.226788e-04 -2.535507e-04 6.844736e-05 6.043762e-05 -2.499366e-05 2.485495e-04 -8.252747e-05 3.450372e-04 -1.018895e-04 3.863685e-04 -7.386954e-05 4.068033e-04 9.493716e-06 4.335838e-04 1.473916e-04 4.805152e-04 3.271900e-04 5.553823e-04 5.432541e-04 6.812276e-04 8.116812e-04 8.969576e-04 1.163370e-03 1.247315e-03 1.642218e-03 1.798259e-03 2.356519e-03 2.773221e-03 3.682514e-03 3.893241e-03 1.135315e-03 -2.091775e-03 -1.544159e-03 -2.742035e-03 -2.882695e-03 -1.327639e-03 -3.355929e-03 -2.327182e-03 -2.049287e-03 -3.054961e-03 -3.074793e-03 -2.542878e-03 -3.828639e-03 -4.861451e-03 -3.543887e-04 2.518117e-03 6.997841e-04 2.861204e-04 9.857641e-04 9.020315e-04 1.059319e-03 7.160565e-04 8.523611e-04 4.484444e-04 6.540052e-04 2.372986e-04 5.149133e-04 1.119863e-04 4.166359e-04 4.799171e-05 3.194459e-04 1.790314e-05 2.052047e-04 1.803315e-05 8.482751e-05 5.999533e-05 -2.413695e-05 1.402939e-04 -1.216467e-04 2.324170e-04 -2.146025e-04 3.080847e-04 -2.974505e-04 3.546443e-04 -3.480006e-04 3.699940e-04 -3.490376e-04 3.431534e-04 -3.007130e-04 2.623363e-04 -2.065181e-04 1.292819e-04 -6.941590e-05 -4.173767e-05 1.002283e-04 -2.343419e-04 2.736539e-04 -4.283543e-04 4.181361e-04 -5.714028e-04 5.193260e-04 -5.523910e-04 5.972840e-04 -1.638238e-04 7.325784e-04 8.107400e-04 5.496285e-04 1.314287e-03 -1.071090e-03 -5.509034e-04 -8.591701e-04 -5.127138e-04 
5.506977e-05 8.124944e-05 4.840652e-04 2.118176e-04 5.317067e-04 -1.560003e-04 -1.040533e-03 -2.007507e-04 -6.465517e-04 -5.853774e-04 1.572130e-04 -7.914240e-04 -1.099462e-03 -1.044203e-04 6.035670e-05 -1.329141e-04 1.190322e-04 -1.282853e-04 1.304838e-04 -7.109950e-05 1.025265e-04 2.388390e-03 1.722702e-03 -4.890678e-04 2.480526e-04 -3.721132e-04 5.578701e-05 -1.433702e-04 -8.302178e-06 3.310823e-05 -1.961635e-05 1.558973e-04 -3.766081e-06 2.429098e-04 3.921130e-05 3.162672e-04 1.167545e-04 3.968744e-04 2.378534e-04 5.034957e-04 4.106376e-04 6.527329e-04 6.421197e-04 8.610683e-04 9.409011e-04 1.146503e-03 1.316683e-03 1.524020e-03 1.775896e-03 2.002006e-03 2.325994e-03 2.594879e-03 3.005095e-03 3.394923e-03 4.051877e-03 4.581145e-03 3.890828e-03 -1.655081e-03 -4.705205e-03 -2.654792e-03 -3.499972e-03 -3.429463e-03 -3.057333e-03 -3.958626e-03 -3.741155e-03 -3.672599e-03 -4.524388e-03 -4.726879e-03 -4.553702e-03 -3.574372e-03 -2.122538e-03 -1.243396e-03 -4.621631e-04 2.285925e-04 9.709847e-04 1.249855e-03 1.516274e-03 1.405154e-03 1.419302e-03 1.171062e-03 1.138730e-03 8.706133e-04 8.590601e-04 6.143212e-04 6.291826e-04 4.238044e-04 4.477151e-04 2.914978e-04 3.031324e-04 2.070706e-04 1.876328e-04 1.630090e-04 9.639453e-05 1.499319e-04 2.358826e-05 1.546013e-04 -3.579255e-05 1.640886e-04 -8.216384e-05 1.698731e-04 -1.112092e-04 1.669371e-04 -1.191147e-04 1.501775e-04 -1.060598e-04 1.156719e-04 -7.433126e-05 6.374880e-05 -2.755920e-05 -8.933267e-07 2.758937e-05 -7.097662e-05 7.997809e-05 -1.352713e-04 1.193395e-04 -1.713047e-04 1.468264e-04 -1.399488e-04 1.856759e-04 4.655928e-06 2.782235e-04 2.359964e-04 3.289508e-04 1.958441e-04 -4.155677e-04 -1.962552e-04 -3.383117e-04 -1.307588e-04 
6.687352e-07 4.407657e-07 3.050902e-07 2.212790e-07 -1.853485e-08 -9.413462e-08 -3.302060e-07 -4.822979e-07 -3.469780e-07 -8.258760e-07 -2.452620e-07 -1.025570e-06 -3.097836e-07 1.063090e-07 2.266189e-07 3.062131e-07 4.645346e-07 6.246965e-07 8.944706e-07 1.026549e-06 1.537360e-06 1.561939e-05 2.296092e-05 1.997900e-05 2.632706e-05 2.394916e-05 3.353197e-05 3.225667e-05 4.551172e-05 4.595324e-05 6.273137e-05 6.589207e-05 8.628890e-05 9.434149e-05 1.200792e-04 1.369622e-04 1.716292e-04 2.019757e-04 2.502695e-04 2.983212e-04 3.657579e-04 4.355881e-04 5.290184e-04 6.264434e-04 7.549591e-04 8.891342e-04 1.063436e-03 1.247621e-03 1.481285e-03 1.738813e-03 2.059476e-03 2.440870e-03 2.918217e-03 3.555572e-03 4.382592e-03 5.112535e-03 3.575578e-03 -2.419284e-03 -4.942365e-03 -3.456463e-03 -4.166694e-03 -3.629020e-03 -3.651469e-03 -4.086321e-03 -3.509021e-03 -3.492900e-03 -3.697332e-03 -4.320733e-03 -4.202286e-03 -3.525934e-03 -2.341688e-03 -7.699309e-04 7.375335e-04 1.817584e-03 2.169710e-03 2.060209e-03 1.849387e-03 1.606529e-03 1.353897e-03 1.147761e-03 9.246651e-04 7.820631e-04 6.059670e-04 5.201282e-04 3.881791e-04 3.414630e-04 2.455834e-04 2.211920e-04 1.542295e-04 1.405889e-04 9.727839e-05 8.817617e-05 6.352762e-05 5.565679e-05 4.383354e-05 3.547982e-05 3.101829e-05 2.216645e-05 2.146428e-05 1.363521e-05 1.509965e-05 9.708318e-06 1.191077e-05 8.617395e-06 9.936471e-06 7.661602e-06 7.583330e-06 5.811239e-06 5.292438e-06 4.110544e-06 4.512116e-06 3.411208e-06 5.013588e-06 2.787281e-06 5.347191e-06 1.482920e-06 4.938585e-06 1.011197e-08 4.268439e-06 -5.761470e-07 3.685650e-06 -2.506205e-07 2.736885e-06 3.337603e-07 1.787226e-06 5.420824e-07 1.130421e-06 5.554761e-07 
-5.297399e-05 -8.031147e-05 -4.825854e-04 -2.114961e-04 -5.308180e-04 1.554908e-04 1.040497e-03 1.991990e-04 6.471077e-04 5.826626e-04 -1.558512e-04 7.877616e-04 1.101269e-03 1.042478e-04 -6.034016e-05 1.331246e-04 -1.188335e-04 1.292635e-04 -1.294997e-04 7.293631e-05 -9.972430e-05 -2.341372e-03 -1.657807e-03 5.493608e-04 -1.727807e-04 4.456528e-04 4.060179e-05 2.421765e-04 1.388462e-04 1.058439e-04 1.994910e-04 4.122027e-05 2.521810e-04 3.682527e-05 3.067948e-04 8.430376e-05 3.734790e-04 1.821520e-04 4.655118e-04 3.332964e-04 5.989635e-04 5.449080e-04 7.932016e-04 8.296880e-04 1.071180e-03 1.204865e-03 1.455528e-03 1.686465e-03 1.961182e-03 2.281224e-03 2.588836e-03 2.971405e-03 3.301337e-03 3.676883e-03 4.013171e-03 4.108954e-03 3.011618e-03 -2.520528e-03 -5.046465e-03 -2.929708e-03 -4.380110e-03 -4.076930e-03 -4.035202e-03 -5.091537e-03 -4.528741e-03 -5.653143e-03 -5.655936e-03 -6.995100e-03 -7.149262e-03 -3.694408e-03 -2.230325e-03 -6.503642e-04 1.909288e-03 2.647492e-03 2.760835e-03 2.723204e-03 2.468535e-03 2.308760e-03 1.894341e-03 1.764861e-03 1.331578e-03 1.283846e-03 8.847900e-04 9.094288e-04 5.669661e-04 6.323421e-04 3.604786e-04 4.293322e-04 2.389904e-04 2.774292e-04 1.766023e-04 1.597957e-04 1.523473e-04 6.599219e-05 1.502748e-04 -9.234683e-06 1.582192e-04 -6.684004e-05 1.670401e-04 -1.050687e-04 1.704224e-04 -1.211706e-04 1.630075e-04 -1.147816e-04 1.400043e-04 -8.806153e-05 9.968920e-05 -4.390528e-05 4.576853e-05 1.449816e-05 -1.283068e-05 8.119052e-05 -6.577542e-05 1.428681e-04 -1.057578e-04 1.755169e-04 -1.350225e-04 1.408843e-04 -1.759073e-04 -4.956713e-06 -2.701358e-04 -2.356433e-04 -3.233814e-04 -1.944442e-04 4.195255e-04 1.978646e-04 3.411936e-04 1.321420e-04 
9.778416e-05 -6.533499e-06 -7.810347e-04 -5.236463e-04 -1.268175e-03 2.953990e-04 2.062600e-03 5.407898e-04 1.094182e-03 1.261167e-03 -4.159487e-05 2.007307e-03 2.967776e-03 2.141163e-04 -6.103048e-05 2.117078e-04 -1.595186e-04 1.765611e-04 -2.018879e-04 7.896750e-05 -2.032373e-04 -4.497267e-03 -3.275821e-03 9.885523e-04 -5.102819e-04 7.389681e-04 -1.741784e-04 2.968499e-04 1.895174e-06 6.704834e-06 1.253154e-04 -1.505095e-04 2.145912e-04 -2.124135e-04 2.717779e-04 -2.010706e-04 3.096292e-04 -1.276480e-04 3.430388e-04 -3.529438e-06 3.856824e-04 1.615305e-04 4.538436e-04 3.679629e-04 5.751221e-04 6.339140e-04 7.887428e-04 9.933984e-04 1.143822e-03 1.504286e-03 1.721397e-03 2.282957e-03 2.697712e-03 3.631373e-03 4.525153e-03 5.425612e-03 3.014827e-03 -3.327076e-03 -4.624904e-03 -3.570393e-03 -4.491641e-03 -2.970900e-03 -3.557006e-03 -3.950078e-03 -2.976302e-03 -3.479872e-03 -2.748294e-03 -3.908239e-03 -3.208834e-03 -2.423389e-03 -3.011722e-03 -9.305913e-04 1.993469e-03 2.692711e-03 2.388335e-03 2.109430e-03 1.540119e-03 1.479123e-03 9.325474e-04 1.066690e-03 5.138990e-04 7.816584e-04 2.312984e-04 5.733177e-04 6.007622e-05 4.141587e-04 -1.515306e-05 2.850652e-04 -1.589612e-05 1.668885e-04 3.119126e-05 4.875790e-05 1.048687e-04 -7.024916e-05 1.883648e-04 -1.835968e-04 2.678501e-04 -2.794601e-04 3.303257e-04 -3.436365e-04 3.671768e-04 -3.605914e-04 3.690275e-04 -3.256464e-04 3.227269e-04 -2.429398e-04 2.218141e-04 -1.179633e-04 7.418065e-05 4.612431e-05 -9.619739e-05 2.409746e-04 -2.628487e-04 4.367570e-04 -4.043532e-04 5.751652e-04 -5.082706e-04 5.489822e-04 -5.889942e-04 1.590878e-04 -7.237230e-04 -8.123017e-04 -5.441966e-04 -1.312098e-03 1.073485e-03 5.527362e-04 8.606041e-04 5.142662e-04 
-1.668304e-04 -7.785448e-04 -3.326273e-03 -3.040496e-03 -7.671771e-03 2.699247e-03 1.098347e-02 -1.848053e-03 1.518785e-03 1.579426e-03 2.205569e-04 4.442871e-03 1.676377e-03 3.452218e-04 -3.739033e-04 5.369628e-04 -5.479931e-04 5.966492e-04 -5.656749e-04 4.582230e-04 -2.664899e-04 -2.858401e-03 -3.807397e-03 -1.997150e-05 -1.062273e-03 5.356074e-05 -2.597220e-04 -1.120595e-04 1.560818e-04 -2.512331e-04 3.829462e-04 -3.368283e-04 4.959790e-04 -3.691155e-04 5.340824e-04 -3.385950e-04 5.352315e-04 -2.393292e-04 5.285875e-04 -7.970974e-05 5.354838e-04 1.288339e-04 5.800232e-04 3.918438e-04 7.096592e-04 7.501555e-04 1.005136e-03 1.292376e-03 1.586361e-03 2.187494e-03 2.679790e-03 3.777843e-03 4.775047e-03 6.900537e-03 9.172592e-03 1.251502e-02 8.674565e-03 -7.210722e-03 -7.288927e-03 -3.688869e-03 -1.048388e-02 -3.414671e-03 -7.430572e-03 -9.682847e-03 -3.318159e-03 -1.171413e-02 -7.383542e-03 -9.961738e-03 -1.282521e-02 -2.529102e-03 -6.285730e-03 -2.764371e-03 9.691169e-03 1.007600e-02 7.140983e-03 5.350977e-03 3.561787e-03 2.953723e-03 1.810527e-03 1.790991e-03 8.752932e-04 1.172991e-03 3.527581e-04 8.090575e-04 7.308728e-05 5.691703e-04 -3.884854e-05 3.908482e-04 -3.612371e-05 2.328457e-04 3.169031e-05 7.612964e-05 1.320882e-04 -8.321518e-05 2.450767e-04 -2.386293e-04 3.541254e-04 -3.731661e-04 4.416441e-04 -4.683517e-04 4.977420e-04 -5.004317e-04 5.091195e-04 -4.632403e-04 4.560163e-04 -3.647042e-04 3.271257e-04 -2.137517e-04 1.324272e-04 -1.465158e-05 -9.330716e-05 2.240656e-04 -3.113839e-04 4.637752e-04 -4.867027e-04 6.344285e-04 -5.839566e-04 6.089937e-04 -6.064440e-04 1.147710e-04 -8.193352e-04 -1.194136e-03 -4.024139e-03 -2.242812e-03 4.685639e-03 2.712540e-03 2.380159e-03 9.066551e-04 
9.368077e-05 -1.114257e-03 -4.825370e-03 -5.293769e-03 -3.950677e-03 9.775782e-03 1.349480e-02 -1.819471e-03 7.004986e-04 9.043398e-04 -3.637774e-04 2.445862e-03 3.504458e-04 4.671403e-04 -3.482061e-04 5.675964e-04 -5.345750e-04 5.902832e-04 -5.822302e-04 4.286367e-04 -3.708912e-04 1.963709e-04 -2.247866e-03 1.981725e-04 -1.187764e-03 -1.794017e-04 -5.404878e-04 -4.501941e-04 -3.109392e-05 -6.031765e-04 3.293497e-04 -6.866545e-04 5.033149e-04 -7.462061e-04 5.162394e-04 -7.357974e-04 4.623360e-04 -6.229100e-04 3.826789e-04 -4.454366e-04 2.758225e-04 -2.720836e-04 1.196663e-04 -1.546078e-04 -5.695714e-05 -7.279619e-05 -1.900441e-04 -1.128430e-06 -2.651704e-04 4.562024e-05 -3.320184e-04 -2.645985e-06 -4.560646e-04 -1.436622e-04 -5.852366e-04 -1.581436e-04 -3.197162e-04 9.184327e-06 4.193739e-04 2.867904e-04 3.829283e-04 1.478408e-04 3.035588e-04 9.444979e-05 3.984321e-04 -4.237447e-04 8.376738e-05 -5.426657e-04 -4.985208e-04 2.539902e-04 1.207779e-03 2.040209e-04 2.729322e-04 8.419777e-05 -2.935004e-04 -3.219937e-07 -3.503542e-04 2.381687e-04 -3.592944e-04 4.481126e-04 -4.179153e-04 5.349584e-04 -5.139145e-04 5.167112e-04 -5.684941e-04 4.484959e-04 -5.031822e-04 3.680710e-04 -3.252017e-04 2.335735e-04 -1.032316e-04 3.262156e-05 1.379782e-04 -2.159131e-04 3.771265e-04 -4.817454e-04 6.002310e-04 -7.256436e-04 7.688697e-04 -9.123304e-04 8.843989e-04 -9.621774e-04 9.399267e-04 -8.721396e-04 8.674312e-04 -6.773096e-04 6.241855e-04 -4.038113e-04 2.154191e-04 -3.359174e-05 -2.655466e-04 4.661451e-04 -7.557942e-04 1.031094e-03 -1.237099e-03 1.567107e-03 -1.673854e-03 1.963538e-03 -1.955120e-03 2.093523e-03 -1.830350e-03 1.504615e-03 -4.533691e-03 -1.900856e-02 3.541995e-03 7.955685e-03 4.329199e-03 2.837977e-03 
1.330086e-03 -1.880765e-03 -4.088388e-04 -4.149326e-03 1.271075e-02 6.174875e-03 -8.926695e-03 2.280002e-03 -2.203923e-03 -2.934106e-04 -1.154728e-03 -2.623462e-03 -2.326851e-03 1.559600e-03 -1.480247e-03 1.338646e-03 -1.364943e-03 1.554321e-03 -1.926626e-03 1.998793e-03 -2.518163e-03 2.366972e-03 2.378713e-03 6.441152e-04 1.342828e-03 3.230267e-07 1.130252e-03 -4.031196e-04 1.084315e-03 -6.114781e-04 1.079052e-03 -6.983338e-04 9.804723e-04 -7.463052e-04 7.754091e-04 -7.112165e-04 5.651455e-04 -5.566206e-04 3.799681e-04 -3.329029e-04 1.958358e-04 -1.287661e-04 -3.717522e-05 -1.341464e-05 -2.977812e-04 4.211729e-05 -5.190095e-04 5.474816e-05 -6.938003e-04 -3.755455e-05 -9.282900e-04 -4.060958e-04 -1.400609e-03 -1.233576e-03 -2.346518e-03 -2.737179e-03 -2.184994e-03 2.271275e-03 1.946072e-03 5.213686e-04 3.044841e-03 2.789882e-04 1.825295e-03 1.957722e-03 3.641372e-04 3.003845e-03 2.208935e-03 2.453529e-03 4.857293e-03 -2.089332e-04 1.250242e-03 3.396068e-04 -2.796049e-03 -2.898392e-03 -1.981253e-03 -1.316631e-03 -1.240193e-03 -4.275105e-04 -8.803120e-04 1.336230e-04 -7.528385e-04 3.992305e-04 -7.640841e-04 4.623713e-04 -7.732112e-04 4.311227e-04 -6.578667e-04 3.702522e-04 -4.136061e-04 2.231244e-04 -1.166569e-04 -2.878638e-05 2.101606e-04 -3.517132e-04 5.317700e-04 -6.937370e-04 8.251716e-04 -1.001204e-03 1.034167e-03 -1.223732e-03 1.157603e-03 -1.252617e-03 1.190413e-03 -1.085013e-03 1.038606e-03 -7.673494e-04 6.465293e-04 -3.365691e-04 2.017339e-05 2.308204e-04 -7.115691e-04 9.743377e-04 -1.463733e-03 1.798165e-03 -2.211507e-03 2.563747e-03 -2.903955e-03 3.107886e-03 -3.340091e-03 3.233332e-03 -2.759224e-03 2.078453e-03 4.138325e-03 -2.523921e-02 8.137841e-04 7.734370e-03 3.813625e-03 2.161599e-03 
2.159073e-03 -1.331865e-04 3.305347e-03 -1.215395e-04 1.294260e-02 2.742025e-04 -1.727029e-02 6.857223e-03 -2.129074e-03 4.416578e-03 -4.772881e-04 6.444223e-03 2.140543e-03 -1.754695e-03 1.294415e-03 -1.334616e-03 9.005231e-04 -1.336500e-03 1.821153e-03 -1.974970e-03 3.502733e-03 -3.649242e-03 -4.618632e-03 -1.057536e-03 -1.867584e-03 -6.932745e-04 -8.500504e-04 -6.337267e-04 -2.540669e-04 -5.829160e-04 8.741761e-05 -5.178928e-04 2.350921e-04 -4.468178e-04 2.516579e-04 -3.428235e-04 2.234814e-04 -1.839354e-04 1.924032e-04 1.610546e-05 1.682803e-04 2.283025e-04 1.500436e-04 4.385773e-04 1.745608e-04 6.913307e-04 3.167329e-04 1.052412e-03 6.737367e-04 1.613587e-03 1.378346e-03 2.559793e-03 2.731677e-03 4.436693e-03 5.644637e-03 7.974497e-03 5.654177e-03 -5.548811e-03 -5.221382e-03 -1.959375e-03 -7.608340e-03 -1.992908e-03 -4.659676e-03 -6.850211e-03 -9.855754e-04 -8.620362e-03 -4.427282e-03 -6.649610e-03 -9.631710e-03 -8.705693e-04 -3.626280e-03 -2.117914e-03 7.252583e-03 6.839579e-03 4.946748e-03 3.628633e-03 2.442342e-03 2.125953e-03 1.218638e-03 1.413435e-03 5.374031e-04 1.017128e-03 1.291584e-04 7.537114e-04 -9.552291e-05 5.599128e-04 -1.602641e-04 4.054179e-04 -1.007198e-04 2.357852e-04 3.266403e-05 2.649351e-05 2.134118e-04 -2.094959e-04 4.065241e-04 -4.424476e-04 5.846478e-04 -6.418050e-04 7.111780e-04 -7.729334e-04 7.729984e-04 -7.820611e-04 7.590302e-04 -6.622905e-04 6.218522e-04 -4.311506e-04 3.358600e-04 -1.061528e-04 -8.991547e-05 3.174866e-04 -5.859095e-04 8.416285e-04 -1.091044e-03 1.401551e-03 -1.558120e-03 1.892036e-03 -1.920483e-03 2.145183e-03 -2.062126e-03 1.783904e-03 -1.791979e-03 -7.466193e-04 4.791577e-03 -1.143523e-02 -4.719583e-04 2.293709e-03 2.061187e-03 1.096922e-03 
1.087004e-03 -1.387927e-04 1.944083e-03 2.658073e-04 4.913307e-03 1.802749e-04 -6.188821e-03 1.994023e-03 -1.296598e-03 3.784298e-04 -9.280212e-04 3.374698e-04 2.134398e-03 2.785588e-03 -6.121068e-04 1.485149e-03 7.151910e-04 -4.328153e-04 4.435827e-04 -1.222643e-03 -2.969218e-03 -2.045411e-03 2.313864e-05 4.556163e-04 4.748578e-04 1.116497e-04 3.865167e-04 -7.518235e-05 3.558536e-04 -1.655646e-04 3.305291e-04 -1.988996e-04 2.899668e-04 -1.975949e-04 2.322612e-04 -1.659762e-04 1.737275e-04 -1.028097e-04 1.257923e-04 -1.497971e-05 9.115357e-05 8.551378e-05 7.208777e-05 1.951881e-04 8.772446e-05 3.351120e-04 1.771352e-04 5.431634e-04 3.956584e-04 8.758363e-04 8.207369e-04 1.438540e-03 1.602296e-03 2.489944e-03 3.195202e-03 4.535034e-03 3.680970e-03 -1.700087e-03 -1.373688e-03 -3.248643e-05 -3.221245e-03 -2.358588e-04 -2.215786e-03 -3.489639e-03 -6.750785e-04 -5.409752e-03 -3.089672e-03 -4.659807e-03 -6.205934e-03 -2.732669e-04 -5.879100e-04 -1.940378e-04 3.579955e-03 3.065187e-03 1.982980e-03 1.374788e-03 8.360019e-04 7.456385e-04 3.328024e-04 4.811539e-04 6.577574e-05 3.462795e-04 -8.308964e-05 2.601420e-04 -1.512172e-04 1.940755e-04 -1.532517e-04 1.322021e-04 -1.047897e-04 5.781606e-05 -2.255638e-05 -3.525309e-05 8.068103e-05 -1.404220e-04 1.877533e-04 -2.451197e-04 2.819902e-04 -3.347006e-04 3.481816e-04 -3.893051e-04 3.785615e-04 -3.874797e-04 3.652308e-04 -3.238322e-04 2.906705e-04 -2.044299e-04 1.455962e-04 -3.603378e-05 -6.153689e-05 1.798019e-04 -3.011721e-04 4.340437e-04 -5.408003e-04 6.910702e-04 -7.452569e-04 8.872999e-04 -8.621792e-04 9.146765e-04 -8.065453e-04 5.582159e-04 -4.826274e-04 -1.029695e-03 1.115319e-03 -3.854458e-03 -3.425524e-04 -6.525931e-04 6.616098e-04 -7.745084e-05 
