# vtk DataFile Version 2.0
Comment goes here
ASCII

DATASET STRUCTURED_POINTS
FIELD FieldData 1
TIME 1 1 double
0.58000000
DIMENSIONS    128   16   1

ORIGIN    0.000   0.000   0.000
SPACING   0.0078125 0.015625   1.000

POINT_DATA   2048
SCALARS uY double
LOOKUP_TABLE default

-5.817122e-07 1.459821e-06 -7.223357e-07 1.120697e-06 -9.405746e-07 9.477342e-07 -1.755179e-06 4.013893e-07 -8.067689e-07 -1.652939e-07 1.498090e-07 -6.289461e-07 6.069366e-07 -1.946547e-06 5.281490e-08 -1.963097e-06 -1.521793e-06 -7.063350e-07 -4.377838e-06 -1.018472e-06 -8.542376e-06 -5.023865e-06 -1.364457e-05 -9.347425e-06 -1.693800e-05 -9.097183e-06 -1.159100e-05 -2.748431e-06 -3.164744e-06 -3.041808e-06 -5.697685e-06 -2.127017e-05 -2.383190e-05 -5.387412e-05 -4.717667e-05 -8.541772e-05 -6.429336e-05 -1.097362e-04 -8.092369e-05 -1.349614e-04 -1.101197e-04 -1.710991e-04 -1.639962e-04 -2.275339e-04 -2.488610e-04 -3.057095e-04 -3.588409e-04 -3.978819e-04 -4.813789e-04 -4.956473e-04 -6.128413e-04 -6.020093e-04 -7.580037e-04 -6.847396e-04 -8.337208e-04 -5.910033e-04 -8.458081e-04 -4.211510e-05 1.180655e-05 -7.528423e-05 1.739522e-03 5.810199e-04 1.909100e-03 2.623042e-03 1.153605e-03 3.790090e-03 1.952951e-03 1.894659e-03 3.008856e-03 3.418541e-04 1.622996e-04 -5.739126e-04 -1.354780e-03 -1.423433e-03 -1.387476e-03 -1.081122e-03 -8.901935e-04 -6.837067e-04 -5.347695e-04 -4.482629e-04 -3.333752e-04 -3.159301e-04 -2.143691e-04 -2.232883e-04 -1.353082e-04 -1.522202e-04 -8.893765e-05 -1.045182e-04 -7.018585e-05 -7.607240e-05 -6.589799e-05 -5.557142e-05 -6.048872e-05 -3.454520e-05 -4.818130e-05 -1.446983e-05 -3.313617e-05 -1.919023e-06 -2.396636e-05 -2.019120e-06 -2.241876e-05 -7.338805e-06 -1.855399e-05 -6.736494e-06 -6.842757e-06 3.867349e-07 5.977395e-06 2.669694e-06 6.380032e-06 -8.125305e-06 -4.213972e-06 -2.053420e-05 -1.029577e-05 -2.117647e-05 -4.734295e-06 -1.047274e-05 5.567140e-06 1.074740e-07 9.391162e-06 3.671755e-06 6.387972e-06 4.020411e-06 1.330113e-06 4.674201e-06 3.222889e-07 3.176511e-06 -3.237429e-07 2.120688e-06 
-1.204844e-04 -1.191732e-03 -1.734632e-03 -1.339053e-03 -4.823542e-05 6.273843e-03 -2.349177e-03 -4.272391e-03 -4.104615e-03 -8.398248e-03 -9.925094e-03 -1.777056e-02 -2.170105e-02 -2.267341e-02 -1.167880e-02 -6.228213e-03 -2.438475e-03 2.165139e-03 6.729555e-03 1.084975e-02 2.255726e-02 2.307820e-02 1.560765e-02 1.065152e-02 6.551090e-03 4.419987e-03 2.810196e-03 1.839306e-03 1.217023e-03 7.518316e-04 5.081470e-04 2.931726e-04 1.561752e-04 9.050673e-05 -4.556629e-05 4.114444e-06 -1.595024e-04 -1.344345e-05 -2.122038e-04 6.069612e-06 -2.349980e-04 2.415019e-05 -2.680401e-04 3.397012e-06 -3.332264e-04 -5.680144e-05 -4.057419e-04 -1.123601e-04 -4.308623e-04 -1.082399e-04 -3.685357e-04 -1.697761e-05 -1.910046e-04 2.566586e-04 3.193200e-04 7.033936e-04 -1.173122e-03 -3.841471e-03 -4.332678e-03 -9.316741e-04 8.926970e-04 -2.401674e-03 2.575497e-03 1.237535e-03 -1.095397e-03 6.766824e-03 1.551039e-03 5.470883e-03 1.476114e-02 -1.242181e-03 -1.279039e-02 -6.684894e-03 1.099058e-03 6.865125e-04 -1.467437e-04 -1.293052e-04 -1.557353e-04 -8.186124e-05 -1.216201e-04 -5.406592e-05 -1.512894e-04 -1.129730e-05 -1.815044e-04 6.784414e-05 -2.015432e-04 1.489500e-04 -2.361914e-04 1.898696e-04 -2.871026e-04 1.874451e-04 -3.170267e-04 1.690196e-04 -2.847530e-04 1.463242e-04 -1.906000e-04 9.450250e-05 -6.900783e-05 -1.321578e-05 5.157054e-05 -1.695067e-04 1.730541e-04 -3.283453e-04 3.106660e-04 -4.477723e-04 4.503417e-04 -5.196265e-04 5.468917e-04 -5.551390e-04 5.547790e-04 -5.486606e-04 4.673522e-04 -4.607854e-04 3.071875e-04 -2.543502e-04 8.866150e-05 8.883165e-05 -1.826619e-04 6.068816e-04 -4.781919e-04 1.490571e-03 -6.614660e-04 3.609321e-03 -3.381011e-03 -2.583413e-03 1.404915e-03 9.043795e-04 1.599272e-03 2.565060e-04 
-2.367662e-04 -3.347480e-03 -4.216402e-03 -6.585124e-03 -1.039042e-03 2.055798e-02 -3.977813e-04 -4.694626e-03 6.417670e-04 -5.942070e-03 -1.143300e-04 -6.801944e-03 3.033740e-03 6.908894e-03 6.503214e-03 6.163734e-04 2.108666e-03 -1.739536e-03 -1.310453e-03 -5.244069e-03 -7.193798e-03 -1.146008e-04 2.188990e-03 1.790309e-03 1.204305e-03 6.432170e-04 6.071076e-04 1.993874e-04 3.449036e-04 5.357908e-05 1.702014e-04 9.016722e-06 -2.185158e-05 -3.833895e-05 -2.358814e-04 -7.272684e-05 -3.924130e-04 -4.465525e-05 -4.549625e-04 3.987701e-05 -4.527723e-04 1.155043e-04 -4.806969e-04 7.439899e-05 -6.175666e-04 -1.047874e-04 -8.179282e-04 -3.203252e-04 -9.534246e-04 -4.472103e-04 -9.700617e-04 -5.317917e-04 -1.018680e-03 -7.809107e-04 -1.399040e-03 -1.994444e-03 -2.876244e-03 -1.008351e-03 -2.865814e-03 -1.424532e-03 2.831538e-03 -2.526499e-03 4.019820e-03 3.504413e-03 -5.068055e-04 9.474523e-03 4.174576e-03 4.866555e-03 1.266002e-02 -1.135336e-03 -6.947114e-03 -4.068146e-03 -2.146616e-03 -2.213133e-03 -1.388556e-03 -1.181164e-03 -7.575675e-04 -6.772089e-04 -5.723455e-04 -4.322831e-04 -5.449654e-04 -2.141130e-04 -5.108269e-04 5.815538e-05 -4.636542e-04 2.904669e-04 -4.942694e-04 3.810590e-04 -6.058288e-04 3.507368e-04 -6.841316e-04 3.063585e-04 -6.036756e-04 2.916025e-04 -3.781406e-04 2.207867e-04 -1.162389e-04 6.696078e-06 1.067986e-04 -3.374705e-04 3.197256e-04 -6.770943e-04 5.966352e-04 -9.059980e-04 9.074502e-04 -1.027117e-03 1.136095e-03 -1.093137e-03 1.163887e-03 -1.104945e-03 9.912606e-04 -9.515515e-04 6.964989e-04 -5.451020e-04 3.071665e-04 1.299406e-04 -1.980984e-04 1.106541e-03 -8.572541e-04 2.763204e-03 -1.788857e-03 7.152714e-03 -1.175411e-02 -5.726726e-03 8.573805e-03 3.736025e-03 4.062564e-03 3.623124e-04 
-8.921922e-04 -9.124091e-03 -1.627900e-02 -2.732654e-02 -2.841535e-02 1.224650e-02 3.113292e-03 -2.104122e-03 5.064353e-03 -1.651183e-03 5.799353e-03 6.670914e-04 4.194154e-03 -5.214531e-03 -2.912313e-04 -1.517541e-03 -1.766105e-04 2.038991e-04 -1.291758e-04 1.996269e-03 1.380280e-03 -1.924804e-03 -2.736307e-03 -2.306645e-03 -1.261014e-03 -1.494427e-03 -4.339314e-04 -1.076908e-03 -1.798367e-05 -7.359029e-04 1.345013e-04 -4.935471e-04 2.615669e-05 -4.080736e-04 -2.542721e-04 -3.572951e-04 -4.719408e-04 -1.858117e-04 -5.106207e-04 1.141546e-04 -4.046608e-04 4.195533e-04 -3.472402e-04 4.991297e-04 -5.144990e-04 3.113359e-04 -7.997819e-04 9.921477e-05 -8.887377e-04 1.709530e-04 -6.238495e-04 4.312463e-04 -3.735642e-04 3.390257e-04 -6.662511e-04 -1.032644e-04 5.507054e-04 2.778419e-03 3.061709e-03 6.002053e-04 7.075805e-04 9.587182e-04 -6.847661e-04 -1.171355e-03 9.671435e-05 -5.093099e-03 -2.764519e-03 -5.141474e-03 -9.198030e-03 -6.912527e-04 8.027030e-03 3.934949e-03 5.580903e-04 -5.297063e-04 4.552609e-04 -1.786018e-04 2.815043e-04 -1.980130e-04 -6.840288e-05 -2.135752e-04 -3.666331e-04 -4.076743e-05 -4.600876e-04 3.611870e-04 -4.328236e-04 7.250753e-04 -5.470200e-04 8.097876e-04 -8.408540e-04 6.708695e-04 -1.076768e-03 5.610602e-04 -9.837309e-04 5.837989e-04 -6.097120e-04 5.392701e-04 -2.054161e-04 2.203170e-04 6.909826e-05 -3.631858e-04 3.072441e-04 -9.258017e-04 7.139073e-04 -1.259650e-03 1.244274e-03 -1.411233e-03 1.661741e-03 -1.532240e-03 1.722044e-03 -1.658498e-03 1.446349e-03 -1.563919e-03 1.020031e-03 -1.085685e-03 4.854326e-04 -2.642347e-04 -2.647892e-04 7.416199e-04 -1.455308e-03 1.959714e-03 -3.622806e-03 4.239473e-03 -1.295604e-02 1.668919e-02 3.711924e-02 2.112916e-02 1.388813e-02 4.438366e-03 
-2.488014e-03 -1.065903e-02 -2.052918e-02 -3.145813e-02 -4.107314e-02 -1.730774e-02 4.991872e-04 -1.983601e-03 1.009070e-03 -2.912597e-03 -1.074040e-04 -4.123447e-03 -1.712769e-03 1.463657e-04 -7.853032e-05 -3.664591e-05 -1.213439e-04 1.307828e-04 -1.643899e-04 2.917327e-04 -1.750858e-04 2.674559e-03 1.815732e-03 1.272388e-03 1.071493e-03 -1.986728e-05 7.494175e-04 -5.010556e-04 6.698543e-04 -5.900901e-04 5.994726e-04 -5.520192e-04 4.099240e-04 -5.316986e-04 1.164384e-04 -4.849129e-04 -1.241878e-04 -3.215025e-04 -2.269767e-04 -5.291312e-05 -2.164130e-04 2.203579e-04 -2.329062e-04 3.293004e-04 -4.012103e-04 2.529265e-04 -6.296487e-04 1.897146e-04 -6.568632e-04 3.960634e-04 -3.141517e-04 8.618214e-04 2.426309e-04 1.394066e-03 1.011775e-03 1.919734e-03 -5.391821e-04 -4.415823e-03 -4.076410e-03 -1.915564e-03 -2.318858e-03 -1.680821e-03 7.873065e-05 -9.510587e-04 1.100423e-03 2.028318e-03 1.871841e-03 3.865079e-03 6.757186e-03 -5.045165e-04 -7.637380e-03 -5.379842e-03 1.188774e-03 1.145908e-03 1.129505e-03 3.671529e-04 5.772221e-04 4.197711e-05 1.503313e-04 -9.555367e-05 -1.784078e-04 -1.168115e-05 -3.204694e-04 2.803048e-04 -3.500615e-04 5.621582e-04 -4.682838e-04 6.453748e-04 -7.098674e-04 5.658853e-04 -9.036026e-04 5.067017e-04 -8.527177e-04 5.429871e-04 -5.943098e-04 5.294273e-04 -3.133209e-04 3.118880e-04 -1.264503e-04 -1.054546e-04 4.130729e-05 -5.158733e-04 3.464854e-04 -7.692623e-04 7.586355e-04 -9.028189e-04 1.103076e-03 -1.029522e-03 1.201360e-03 -1.177585e-03 1.068422e-03 -1.184560e-03 8.412481e-04 -9.324920e-04 5.579649e-04 -4.627969e-04 1.608567e-04 5.883674e-05 -3.957350e-04 4.797781e-04 -8.814448e-04 4.693131e-04 6.439700e-03 4.002897e-02 4.181976e-02 2.554966e-02 1.449667e-02 5.467026e-03 
-1.480335e-03 -4.975618e-03 -1.046032e-02 -1.378758e-02 -2.140343e-02 -1.898686e-02 -3.559225e-03 -3.089953e-03 -3.661651e-03 -5.097993e-03 -5.324062e-03 -8.217959e-03 -4.626622e-03 1.319718e-04 -6.629225e-05 -8.491542e-05 -9.777965e-05 1.091118e-04 -1.213332e-04 2.900101e-04 -1.268696e-04 6.058722e-03 6.541702e-03 4.017485e-03 3.157831e-03 1.474191e-03 1.641671e-03 4.014839e-04 9.587938e-04 -7.046391e-05 5.958028e-04 -2.666536e-04 3.400560e-04 -3.404565e-04 1.181651e-04 -3.436830e-04 -6.682182e-05 -2.916032e-04 -2.077466e-04 -2.140493e-04 -3.245970e-04 -1.613212e-04 -4.651776e-04 -1.907062e-04 -6.712501e-04 -3.239676e-04 -9.397726e-04 -5.435855e-04 -1.246752e-03 -8.538868e-04 -1.625099e-03 -1.363062e-03 -2.220676e-03 -2.340629e-03 -3.583538e-03 -4.872529e-03 -3.505292e-03 3.993605e-03 7.157054e-04 1.143435e-03 6.623359e-03 -7.832060e-04 5.840774e-03 5.621964e-03 -1.205491e-03 9.492818e-03 3.816808e-03 1.569351e-03 1.003916e-02 -1.061904e-03 -1.925257e-03 6.503139e-04 -3.882448e-03 -4.733640e-03 -3.161606e-03 -2.539794e-03 -1.539121e-03 -1.368814e-03 -8.711409e-04 -7.716000e-04 -6.080923e-04 -3.977339e-04 -4.992784e-04 -1.092076e-04 -4.543926e-04 1.048611e-04 -4.665542e-04 2.244754e-04 -5.172307e-04 2.671214e-04 -5.494399e-04 2.787499e-04 -5.084021e-04 2.791653e-04 -3.972074e-04 2.393242e-04 -2.600028e-04 1.258135e-04 -1.287710e-04 -5.309406e-05 9.038345e-06 -2.404982e-04 1.810142e-04 -3.881684e-04 3.711202e-04 -4.908705e-04 5.248186e-04 -5.628546e-04 5.909658e-04 -5.979811e-04 5.670651e-04 -5.493891e-04 4.909740e-04 -3.711448e-04 4.058939e-04 -3.872588e-05 3.865044e-04 4.928720e-04 6.770238e-04 1.389747e-03 2.031759e-03 2.717962e-03 1.173022e-02 2.407441e-02 1.732949e-02 1.288771e-02 7.175629e-03 3.531998e-03 
-1.093832e-03 -3.443654e-03 -6.203040e-03 -7.752167e-03 -9.496209e-03 -8.820557e-03 -6.367557e-03 -6.940020e-03 -6.471613e-03 -9.584453e-03 -9.901471e-03 -1.506190e-02 -1.033368e-02 4.089240e-05 -9.898534e-06 3.284101e-05 -3.549984e-05 4.104990e-05 -4.818542e-05 3.674855e-05 -1.589111e-05 1.285793e-02 1.455389e-02 8.161277e-03 6.825455e-03 3.583313e-03 3.408884e-03 1.577948e-03 1.803122e-03 6.180432e-04 9.826143e-04 1.516909e-04 5.095142e-04 -8.093132e-05 1.931969e-04 -1.938465e-04 -3.737405e-05 -2.400013e-04 -2.171315e-04 -2.634112e-04 -3.835494e-04 -3.155554e-04 -5.857707e-04 -4.515364e-04 -8.695318e-04 -7.102717e-04 -1.262761e-03 -1.120202e-03 -1.798922e-03 -1.740553e-03 -2.562915e-03 -2.699102e-03 -3.702593e-03 -4.209821e-03 -5.582033e-03 -6.389112e-03 -3.603986e-03 4.727515e-03 2.722965e-03 1.017701e-03 6.626322e-03 1.409245e-03 4.123134e-03 5.924358e-03 -3.520372e-04 6.156174e-03 4.336569e-03 1.415042e-03 8.629548e-03 3.830954e-03 1.386686e-04 -7.501278e-04 -2.350468e-03 -2.321421e-03 -1.494082e-03 -1.294063e-03 -8.036103e-04 -7.920615e-04 -5.663630e-04 -5.339295e-04 -4.795900e-04 -3.353210e-04 -4.335077e-04 -1.498035e-04 -4.040096e-04 4.765499e-06 -4.015114e-04 1.029450e-04 -4.201798e-04 1.487229e-04 -4.261820e-04 1.674170e-04 -3.855293e-04 1.705243e-04 -2.984000e-04 1.408901e-04 -1.912119e-04 5.939041e-05 -8.414658e-05 -6.632050e-05 2.787629e-05 -1.990184e-04 1.583636e-04 -3.056207e-04 2.958573e-04 -3.788084e-04 4.054396e-04 -4.238725e-04 4.554310e-04 -4.320538e-04 4.472431e-04 -3.671866e-04 4.142642e-04 -1.848249e-04 4.092227e-04 1.686095e-04 5.333799e-04 8.088118e-04 1.022165e-03 2.017380e-03 2.338873e-03 4.266078e-03 5.755815e-03 9.887645e-03 8.289638e-03 7.037724e-03 4.232598e-03 1.943974e-03 
-4.905071e-04 -1.319262e-03 -2.570992e-03 -3.244297e-03 -3.927536e-03 -4.225090e-03 -3.032599e-03 -3.585461e-03 -3.358357e-03 -4.711812e-03 -5.011249e-03 -7.422483e-03 -5.108326e-03 2.221023e-05 -7.774154e-06 1.154779e-05 -2.126785e-05 2.481997e-05 -2.631153e-05 2.940608e-05 -6.514370e-06 6.630994e-03 7.463222e-03 3.979380e-03 3.258786e-03 1.636359e-03 1.517765e-03 6.612630e-04 7.403636e-04 2.073830e-04 3.574200e-04 -1.585081e-05 1.369133e-04 -1.377148e-04 -2.006841e-05 -2.165032e-04 -1.551846e-04 -2.833499e-04 -2.916094e-04 -3.640019e-04 -4.515379e-04 -4.865985e-04 -6.619367e-04 -6.832368e-04 -9.548773e-04 -9.905816e-04 -1.370026e-03 -1.456681e-03 -1.962658e-03 -2.146784e-03 -2.799860e-03 -3.118578e-03 -3.907097e-03 -4.345513e-03 -5.285462e-03 -5.922644e-03 -5.668816e-03 7.183008e-04 2.647797e-03 -3.461473e-04 4.122776e-03 2.878167e-03 2.880531e-03 6.244519e-03 3.024254e-03 6.448705e-03 7.066690e-03 5.216255e-03 9.073534e-03 4.179656e-03 -2.794388e-03 -2.978896e-03 -2.382765e-04 1.833801e-04 -6.500480e-06 -2.041036e-04 -2.519462e-04 -3.650355e-04 -3.587537e-04 -3.985057e-04 -3.910093e-04 -3.517508e-04 -3.782484e-04 -2.648391e-04 -3.470445e-04 -1.718341e-04 -3.159665e-04 -9.438982e-05 -2.902403e-04 -3.907863e-05 -2.635983e-04 -2.949896e-06 -2.275592e-04 1.661915e-05 -1.806198e-04 1.738318e-05 -1.277990e-04 -3.018587e-06 -7.379168e-05 -4.056733e-05 -1.840956e-05 -8.409915e-05 3.986259e-05 -1.225734e-04 9.674412e-05 -1.505261e-04 1.423898e-04 -1.655986e-04 1.686362e-04 -1.619977e-04 1.774935e-04 -1.263449e-04 1.842620e-04 -3.871595e-05 2.204908e-04 1.329320e-04 3.499602e-04 4.542264e-04 6.990621e-04 1.056068e-03 1.464507e-03 2.129804e-03 2.814278e-03 4.092074e-03 3.177741e-03 2.986488e-03 1.631497e-03 9.220527e-04 
1.450299e-06 -3.069602e-07 1.064487e-06 -4.840913e-07 8.366179e-07 -5.681619e-07 7.732778e-07 -4.135189e-07 5.288003e-07 -1.362590e-07 2.943565e-07 9.580227e-08 3.926376e-07 2.243280e-07 2.501059e-08 5.792774e-08 -1.885355e-07 -1.146866e-07 -4.256388e-07 -2.591096e-07 -6.190056e-07 -1.864421e-05 -2.278560e-05 -1.999327e-05 -2.428395e-05 -2.491075e-05 -2.810057e-05 -3.304938e-05 -3.616910e-05 -4.883296e-05 -5.373969e-05 -7.675971e-05 -8.462767e-05 -1.185764e-04 -1.304582e-04 -1.751742e-04 -1.948212e-04 -2.525079e-04 -2.885263e-04 -3.648621e-04 -4.303981e-04 -5.349546e-04 -6.481270e-04 -7.964653e-04 -9.820401e-04 -1.199301e-03 -1.491685e-03 -1.816900e-03 -2.261079e-03 -2.744330e-03 -3.383643e-03 -4.058140e-03 -4.890594e-03 -5.723679e-03 -6.769871e-03 -7.694323e-03 -6.261826e-03 4.390586e-03 6.364360e-03 1.601959e-03 7.830081e-03 4.307215e-03 4.575966e-03 8.177024e-03 2.368997e-03 7.349770e-03 5.932371e-03 4.433160e-03 8.782406e-03 3.050444e-03 1.637201e-03 1.157483e-03 -2.587929e-03 -3.127141e-03 -2.481286e-03 -1.912845e-03 -1.454803e-03 -1.192247e-03 -9.141747e-04 -7.918947e-04 -6.057972e-04 -5.477604e-04 -4.155127e-04 -3.843679e-04 -2.902628e-04 -2.691643e-04 -2.068652e-04 -1.879473e-04 -1.524854e-04 -1.313406e-04 -1.167259e-04 -9.103532e-05 -9.099527e-05 -6.092313e-05 -7.040483e-05 -3.839382e-05 -5.366268e-05 -2.315686e-05 -4.109384e-05 -1.480814e-05 -3.178715e-05 -1.047375e-05 -2.306223e-05 -6.750730e-06 -1.373770e-05 -3.014341e-06 -5.793577e-06 -1.480547e-06 -2.268942e-06 -3.426948e-06 -2.668442e-06 -6.090267e-06 -3.117645e-06 -6.015407e-06 -1.205327e-06 -2.982955e-06 1.965613e-06 2.995829e-07 3.960085e-06 1.765538e-06 4.244068e-06 1.656253e-06 3.698477e-06 9.785261e-07 2.789996e-06 3.536712e-07 2.016060e-06 -4.815709e-08 
4.932321e-04 1.318432e-03 2.572895e-03 3.243215e-03 3.928992e-03 4.223858e-03 3.034373e-03 3.584827e-03 3.358906e-03 4.712133e-03 5.010737e-03 7.423667e-03 5.107679e-03 -2.151121e-05 8.081449e-06 -1.107851e-05 2.140680e-05 -2.460777e-05 2.613598e-05 -2.955648e-05 5.610915e-06 -6.675454e-03 -7.513021e-03 -4.025870e-03 -3.313006e-03 -1.694674e-03 -1.582239e-03 -7.383935e-04 -8.237053e-04 -3.183518e-04 -4.780782e-04 -1.521327e-04 -3.204449e-04 -1.133411e-04 -2.546044e-04 -1.444573e-04 -2.443445e-04 -2.238723e-04 -2.840259e-04 -3.490656e-04 -3.810268e-04 -5.267137e-04 -5.495587e-04 -7.732341e-04 -8.143445e-04 -1.119463e-03 -1.214996e-03 -1.610801e-03 -1.800397e-03 -2.289847e-03 -2.597090e-03 -3.138858e-03 -3.520008e-03 -3.943998e-03 -4.279145e-03 -4.354710e-03 -3.852313e-03 1.003384e-03 2.679985e-03 3.520369e-04 4.081346e-03 3.012490e-03 3.307262e-03 5.605919e-03 3.504024e-03 7.177196e-03 6.147469e-03 7.108731e-03 9.606258e-03 2.840225e-03 -2.697006e-03 -3.024464e-03 -1.469777e-03 -7.127414e-04 -8.854974e-04 -7.664431e-04 -7.979514e-04 -7.055886e-04 -6.323126e-04 -6.031360e-04 -4.731456e-04 -5.092145e-04 -3.339802e-04 -4.291674e-04 -2.158815e-04 -3.612482e-04 -1.200042e-04 -3.029006e-04 -4.803388e-05 -2.520772e-04 -1.843441e-06 -2.066458e-04 1.894008e-05 -1.624323e-04 1.874105e-05 -1.140622e-04 4.023651e-06 -5.915173e-05 -2.112311e-05 -1.236793e-06 -5.480270e-05 5.404956e-05 -9.314780e-05 1.023364e-04 -1.295873e-04 1.395817e-04 -1.579359e-04 1.594237e-04 -1.758206e-04 1.536376e-04 -1.843561e-04 1.140427e-04 -1.913948e-04 2.720643e-05 -2.238318e-04 -1.384932e-04 -3.473693e-04 -4.537465e-04 -6.926952e-04 -1.053105e-03 -1.457156e-03 -2.127391e-03 -2.806924e-03 -4.091326e-03 -3.172301e-03 -2.986640e-03 -1.627611e-03 -9.226088e-04 
1.095966e-03 3.442680e-03 6.204538e-03 7.750864e-03 9.497309e-03 8.818589e-03 6.369982e-03 6.938821e-03 6.472700e-03 9.584618e-03 9.902010e-03 1.506332e-02 1.033432e-02 -4.047126e-05 9.911638e-06 -3.270051e-05 3.521698e-05 -4.139239e-05 4.700436e-05 -3.779633e-05 1.264336e-05 -1.288456e-02 -1.459026e-02 -8.192987e-03 -6.867170e-03 -3.619600e-03 -3.447174e-03 -1.612834e-03 -1.836993e-03 -6.667236e-04 -1.036341e-03 -2.489748e-04 -6.180791e-04 -9.584670e-05 -3.784124e-04 -7.162691e-05 -2.327324e-04 -1.226950e-04 -1.655171e-04 -2.351019e-04 -1.769779e-04 -3.983107e-04 -2.664158e-04 -6.135932e-04 -4.516643e-04 -9.148892e-04 -7.873530e-04 -1.379644e-03 -1.368522e-03 -2.129334e-03 -2.337255e-03 -3.354143e-03 -3.925529e-03 -5.428756e-03 -6.833373e-03 -9.292348e-03 -6.840454e-03 6.428611e-03 5.265899e-03 1.251392e-03 9.780797e-03 2.608714e-03 6.028623e-03 8.681744e-03 5.321385e-04 9.501242e-03 4.892333e-03 4.952289e-03 8.950435e-03 3.574386e-04 2.403479e-03 1.548527e-03 -5.414494e-03 -4.592961e-03 -3.329541e-03 -2.276595e-03 -1.684551e-03 -1.228606e-03 -8.790068e-04 -7.479506e-04 -4.430094e-04 -5.336672e-04 -1.810982e-04 -4.392330e-04 -5.168851e-06 -3.947546e-04 1.196905e-04 -3.640985e-04 2.049440e-04 -3.327346e-04 2.443552e-04 -2.991127e-04 2.320258e-04 -2.555672e-04 1.782582e-04 -1.842439e-04 1.040262e-04 -7.539666e-05 1.720693e-05 5.449412e-05 -8.775593e-05 1.815848e-04 -2.060441e-04 2.927283e-04 -3.172849e-04 3.820071e-04 -3.990221e-04 4.350860e-04 -4.440839e-04 4.282109e-04 -4.522757e-04 3.441461e-04 -4.298609e-04 1.610602e-04 -4.165644e-04 -1.754604e-04 -5.246309e-04 -8.008463e-04 -1.007331e-03 -2.007519e-03 -2.327078e-03 -4.260527e-03 -5.746981e-03 -9.885869e-03 -8.284601e-03 -7.037926e-03 -4.229433e-03 -1.944692e-03 
1.481495e-03 4.974523e-03 1.046065e-02 1.378604e-02 2.140188e-02 1.898305e-02 3.567782e-03 3.088096e-03 3.661574e-03 5.099402e-03 5.322596e-03 8.222394e-03 4.623640e-03 -1.310053e-04 6.608234e-05 8.548633e-05 9.850305e-05 -1.084786e-04 1.224415e-04 -2.898316e-04 1.231587e-04 -6.078727e-03 -6.568350e-03 -4.044651e-03 -3.196039e-03 -1.503970e-03 -1.670375e-03 -4.177812e-04 -9.679679e-04 5.243279e-05 -6.139495e-04 2.034843e-04 -4.096033e-04 1.982170e-04 -2.560388e-04 1.307641e-04 -1.247847e-04 2.579473e-05 -4.256596e-05 -1.222385e-04 -2.750402e-05 -3.007412e-04 -7.377247e-05 -5.014320e-04 -1.907509e-04 -7.530282e-04 -4.309867e-04 -1.132691e-03 -8.893843e-04 -1.762494e-03 -1.711156e-03 -2.862773e-03 -3.175292e-03 -4.961501e-03 -6.440996e-03 -1.076891e-02 -9.199875e-03 7.592970e-03 2.672605e-03 -1.103417e-03 1.298938e-02 -1.015488e-03 7.687235e-03 1.082779e-02 -2.256757e-03 1.728770e-02 6.405321e-03 9.087384e-03 1.860154e-02 -2.462141e-03 7.366375e-04 9.286542e-04 -1.095128e-02 -8.096479e-03 -5.237670e-03 -3.578224e-03 -2.572713e-03 -1.843851e-03 -1.308701e-03 -1.045229e-03 -6.341476e-04 -6.943048e-04 -2.384794e-04 -5.473512e-04 1.965197e-05 -4.887217e-04 1.980673e-04 -4.561366e-04 3.201416e-04 -4.245129e-04 3.776736e-04 -3.930053e-04 3.598560e-04 -3.504816e-04 2.827229e-04 -2.672214e-04 1.814471e-04 -1.248651e-04 6.766395e-05 4.981430e-05 -7.199502e-05 2.206983e-04 -2.344739e-04 3.715080e-04 -3.902530e-04 4.989182e-04 -5.039535e-04 5.850109e-04 -5.656183e-04 5.969170e-04 -5.713483e-04 5.183202e-04 -5.141693e-04 3.392196e-04 -4.175353e-04 3.308706e-05 -3.749609e-04 -4.778434e-04 -6.592141e-04 -1.374530e-03 -2.020440e-03 -2.711143e-03 -1.171529e-02 -2.407653e-02 -1.732556e-02 -1.289005e-02 -7.173521e-03 -3.533313e-03 
2.487266e-03 1.065751e-02 2.052841e-02 3.145659e-02 4.106864e-02 1.730156e-02 -4.873728e-04 1.979909e-03 -1.010513e-03 2.913941e-03 1.084298e-04 4.132962e-03 1.713098e-03 -1.474060e-04 7.828029e-05 3.757834e-05 1.235417e-04 -1.302332e-04 1.673079e-04 -2.918321e-04 1.723256e-04 -2.667053e-03 -1.833058e-03 -1.309481e-03 -1.147408e-03 -2.892040e-05 -7.752930e-04 5.565953e-04 -5.704992e-04 7.277028e-04 -4.629836e-04 6.321076e-04 -3.754083e-04 4.489721e-04 -1.989596e-04 3.335090e-04 7.701208e-05 2.469754e-04 2.896493e-04 8.737448e-05 3.892911e-04 -7.389797e-05 4.740442e-04 -1.333439e-04 6.084144e-04 -7.637713e-05 7.527742e-04 2.732120e-05 8.631836e-04 2.012311e-04 1.032092e-03 5.571045e-04 1.387784e-03 1.247332e-03 2.194451e-03 2.383376e-03 1.936341e-03 -1.148273e-03 -1.114689e-03 -1.347412e-04 -2.322578e-03 -5.508644e-04 -1.513591e-03 -2.289484e-03 -4.191399e-04 -2.214353e-03 -1.916050e-03 -6.300855e-04 -2.473015e-03 5.311099e-04 -1.275876e-03 -1.926652e-04 1.283461e-03 1.848915e-03 1.157818e-03 1.174768e-03 6.819421e-04 6.482244e-04 4.604534e-04 2.590089e-04 3.931928e-04 -3.634795e-05 4.454300e-04 -2.457470e-04 5.529527e-04 -4.110387e-04 6.662083e-04 -5.011981e-04 7.908166e-04 -5.155167e-04 8.414027e-04 -5.291678e-04 7.371439e-04 -5.483001e-04 5.150671e-04 -4.674229e-04 3.092101e-04 -1.961805e-04 1.357733e-04 1.560286e-04 -1.127885e-04 4.648257e-04 -4.492034e-04 7.128529e-04 -7.792792e-04 9.486603e-04 -9.868672e-04 1.147529e-03 -1.089415e-03 1.192755e-03 -1.096956e-03 1.075936e-03 -9.415847e-04 8.258008e-04 -6.011701e-04 4.630547e-04 -1.060354e-04 8.509296e-06 4.555876e-04 -4.390391e-04 8.993619e-04 -4.651695e-04 -6.432752e-03 -4.003011e-02 -4.182133e-02 -2.555717e-02 -1.449857e-02 -5.470129e-03 
8.901749e-04 9.124168e-03 1.627829e-02 2.732735e-02 2.841339e-02 -1.224918e-02 -3.116705e-03 2.101276e-03 -5.065813e-03 1.649717e-03 -5.793162e-03 -6.607058e-04 -4.185462e-03 5.219647e-03 2.835545e-04 1.515031e-03 1.792196e-04 -1.984057e-04 1.498113e-04 -1.981882e-03 -1.370121e-03 1.939717e-03 2.703185e-03 2.254415e-03 1.150846e-03 1.425662e-03 3.940027e-04 1.156673e-03 1.510880e-04 9.367568e-04 5.140460e-05 6.243848e-04 2.286040e-05 3.202491e-04 1.476870e-04 1.707037e-04 4.182660e-04 8.919030e-05 6.049922e-04 -8.503073e-05 6.381544e-04 -2.673911e-04 6.441080e-04 -3.294492e-04 6.968372e-04 -2.712258e-04 7.222996e-04 -2.259516e-04 6.261646e-04 -2.238036e-04 4.642439e-04 -2.179310e-04 2.536456e-04 -2.259714e-04 6.165473e-05 3.275181e-04 8.363200e-04 -5.953813e-04 4.460481e-04 1.126604e-03 -9.960024e-04 1.494152e-03 -2.309104e-04 1.021698e-04 1.042431e-03 -1.341514e-03 -1.944534e-04 -3.898216e-04 -3.177707e-03 1.439505e-03 2.617364e-04 8.679813e-04 1.094834e-03 1.037866e-03 -2.325142e-05 4.148733e-04 3.034002e-05 1.913154e-04 1.508865e-04 -4.992792e-05 2.850024e-04 -2.694762e-04 4.668560e-04 -4.342258e-04 6.548369e-04 -5.800880e-04 8.109976e-04 -6.485161e-04 9.645107e-04 -6.247547e-04 1.010160e-03 -6.052117e-04 8.455639e-04 -5.973628e-04 5.232437e-04 -4.582526e-04 2.256552e-04 -6.558810e-05 -2.628605e-05 4.298156e-04 -3.779456e-04 8.544518e-04 -8.370085e-04 1.180228e-03 -1.267276e-03 1.470028e-03 -1.506691e-03 1.688332e-03 -1.578620e-03 1.670623e-03 -1.495259e-03 1.406329e-03 -1.162237e-03 9.316258e-04 -5.446723e-04 2.565449e-04 3.437988e-04 -6.567129e-04 1.541449e-03 -1.911397e-03 3.648970e-03 -4.236362e-03 1.293963e-02 -1.667894e-02 -3.712454e-02 -2.113248e-02 -1.389277e-02 -4.439373e-03 
2.353649e-04 3.349443e-03 4.215768e-03 6.587362e-03 1.039601e-03 -2.055558e-02 3.857719e-04 4.695248e-03 -6.431609e-04 5.941341e-03 1.172250e-04 6.804670e-03 -3.028585e-03 -6.919393e-03 -6.496688e-03 -6.253645e-04 -2.107999e-03 1.746656e-03 1.305004e-03 5.259103e-03 7.184712e-03 1.020177e-04 -2.227647e-03 -1.828284e-03 -1.273168e-03 -6.862209e-04 -6.430368e-04 -1.788300e-04 -3.079122e-04 1.137400e-05 -1.197339e-04 5.216332e-06 -5.197621e-06 -7.395279e-05 1.173876e-04 -1.258302e-04 2.650515e-04 -1.662847e-04 3.516662e-04 -2.540180e-04 3.480116e-04 -3.548333e-04 3.010650e-04 -4.181517e-04 2.361618e-04 -4.525689e-04 1.154778e-04 -5.347601e-04 -1.171812e-04 -7.236049e-04 -4.854315e-04 -1.086441e-03 -1.077630e-03 -1.832500e-03 -2.454133e-03 -4.639218e-03 -4.560220e-03 4.276695e-03 1.154894e-03 -1.313639e-03 6.691916e-03 -1.247390e-03 2.974946e-03 5.348701e-03 -2.735122e-03 9.177733e-03 2.369987e-03 4.437337e-03 1.069994e-02 -1.991745e-03 -1.338557e-04 5.732774e-04 -6.222454e-03 -3.595491e-03 -2.385978e-03 -1.308096e-03 -1.053156e-03 -6.874521e-04 -4.423469e-04 -4.850389e-04 -9.839567e-05 -4.485828e-04 1.384704e-04 -4.602008e-04 3.170750e-04 -4.888920e-04 4.458957e-04 -4.931252e-04 5.405841e-04 -4.571481e-04 5.584736e-04 -4.116613e-04 4.608850e-04 -3.524413e-04 2.738987e-04 -2.169156e-04 7.511323e-05 4.184815e-05 -1.233209e-04 3.554257e-04 -3.732938e-04 6.393717e-04 -6.648335e-04 8.667744e-04 -9.254464e-04 1.047415e-03 -1.074454e-03 1.150847e-03 -1.107244e-03 1.095136e-03 -1.017889e-03 8.633896e-04 -7.637423e-04 4.574398e-04 -3.354764e-04 -1.500996e-04 2.355478e-04 -1.077700e-03 9.040298e-04 -2.742128e-03 1.810009e-03 -7.145847e-03 1.174066e-02 5.742672e-03 -8.575269e-03 -3.731399e-03 -4.064819e-03 -3.595906e-04 
1.194441e-04 1.194191e-03 1.733546e-03 1.341006e-03 4.757921e-05 -6.271704e-03 2.343305e-03 4.273483e-03 4.103557e-03 8.398476e-03 9.925782e-03 1.777145e-02 2.170220e-02 2.266896e-02 1.168388e-02 6.223780e-03 2.442115e-03 -2.159805e-03 -6.735683e-03 -1.083504e-02 -2.256603e-02 -2.308336e-02 -1.562747e-02 -1.066195e-02 -6.576262e-03 -4.425217e-03 -2.817041e-03 -1.820320e-03 -1.194739e-03 -7.218280e-04 -4.816203e-04 -2.938484e-04 -1.614121e-04 -1.533325e-04 1.579167e-06 -1.190535e-04 1.019532e-04 -1.259399e-04 1.536805e-04 -1.608750e-04 1.580475e-04 -2.076903e-04 1.274580e-04 -2.500278e-04 7.098459e-05 -2.867320e-04 -1.426479e-05 -3.333377e-04 -1.347616e-04 -4.061793e-04 -2.943408e-04 -5.263810e-04 -5.043785e-04 -7.311954e-04 -9.355854e-04 -1.838596e-03 -2.189516e-03 1.149497e-03 -3.548127e-04 -1.138154e-03 2.816676e-03 -7.584538e-04 1.621914e-03 2.883361e-03 -9.372245e-04 5.287788e-03 1.641089e-03 2.765988e-03 5.932823e-03 -1.044817e-03 -1.089321e-03 -5.237462e-04 -2.805157e-03 -1.466304e-03 -9.297462e-04 -4.750986e-04 -3.855623e-04 -2.219091e-04 -1.136261e-04 -1.618293e-04 2.940935e-05 -1.833769e-04 1.199560e-04 -2.170531e-04 1.908091e-04 -2.404600e-04 2.439344e-04 -2.462194e-04 2.740987e-04 -2.336962e-04 2.674119e-04 -2.076793e-04 2.163809e-04 -1.626751e-04 1.312621e-04 -8.160715e-05 3.215706e-05 4.265295e-05 -7.713101e-05 1.876812e-04 -2.048886e-04 3.254246e-04 -3.406290e-04 4.420592e-04 -4.557044e-04 5.304347e-04 -5.226380e-04 5.712304e-04 -5.322496e-04 5.359890e-04 -4.744206e-04 4.153842e-04 -3.313063e-04 2.066907e-04 -9.928010e-05 -1.099757e-04 1.980342e-04 -6.026041e-04 5.026237e-04 -1.479922e-03 6.779050e-04 -3.599812e-03 3.381173e-03 2.595380e-03 -1.403844e-03 -8.978746e-04 -1.599859e-03 -2.526562e-04 
