# vtk DataFile Version 2.0
Comment goes here
ASCII

DATASET STRUCTURED_POINTS
FIELD FieldData 1
TIME 1 1 double
0.03900000
DIMENSIONS    64   64   1

ORIGIN    0.000   0.000   0.000
SPACING   0.03125 0.03125   1.000

POINT_DATA   4096
SCALARS Omega double
LOOKUP_TABLE default

-2.122800e-01 -5.818565e-02 -1.392217e-01 -5.818041e-02 -1.863323e-01 -1.100525e-01 -9.014941e-02 -1.161958e-01 -5.322199e-02 -1.025997e-01 -1.789975e-02 -7.762760e-02 4.775250e-02 -5.539439e-02 1.200087e-01 -1.696416e-02 1.861033e-01 -1.197428e-02 3.015323e-01 -1.766414e-02 3.932427e-01 -2.943637e-02 4.445119e-01 -3.314802e-02 4.456490e-01 -2.673121e-02 4.532228e-01 9.966157e-04 4.375927e-01 2.982006e-02 3.735312e-01 1.104715e-01 3.261744e-01 1.432836e-01 2.782795e-01 2.043439e-01 2.115490e-01 2.451290e-01 1.707832e-01 2.865488e-01 1.451418e-01 2.802604e-01 1.191978e-01 2.651015e-01 1.412553e-01 1.973824e-01 1.090249e-01 1.791354e-01 5.110000e-02 1.711636e-01 -4.324015e-02 1.635037e-01 -1.250862e-01 1.338031e-01 -1.795763e-01 1.129537e-01 -2.355741e-01 1.154068e-01 -3.040800e-01 1.577126e-01 -3.817371e-01 1.933782e-01 -4.390614e-01 2.116256e-01 
4.770495e+00 -2.940197e+01 -3.855738e+00 -2.421360e+01 -6.660838e+00 -2.157789e+01 -9.217673e+00 -1.984288e+01 -1.252469e+01 -1.859757e+01 -1.508036e+01 -1.739750e+01 -1.724413e+01 -1.622130e+01 -1.937369e+01 -1.440396e+01 -2.291005e+01 -1.036836e+01 -2.869500e+01 -4.321553e+00 -3.566813e+01 2.030278e+00 -4.217640e+01 7.408711e+00 -4.692136e+01 1.066368e+01 -4.958048e+01 1.213506e+01 -5.040577e+01 1.146315e+01 -4.911120e+01 9.660027e+00 -4.732267e+01 7.716422e+00 -4.557150e+01 6.120035e+00 -4.420224e+01 5.262613e+00 -4.407609e+01 5.970430e+00 -4.549122e+01 8.245861e+00 -4.813263e+01 1.128878e+01 -5.100445e+01 1.405795e+01 -5.267875e+01 1.456103e+01 -5.126696e+01 1.195002e+01 -4.713111e+01 7.202164e+00 -4.151787e+01 1.735105e+00 -3.531896e+01 -4.205209e+00 -2.874760e+01 -1.020499e+01 -2.208795e+01 -1.621339e+01 -1.521769e+01 -2.227392e+01 -8.283855e+00 -3.063815e+01 
-5.064088e+01 7.692622e+00 -2.788329e+01 4.685619e+00 -6.114682e+00 3.829431e+00 -2.941694e+01 2.591571e+00 -3.935466e+01 2.167534e+00 -4.622787e+01 1.746080e+00 -5.140201e+01 1.444262e+00 -5.555472e+01 9.965964e-01 -5.809341e+01 -7.705101e-01 -5.853016e+01 -3.752946e+00 -5.771091e+01 -6.833791e+00 -5.675467e+01 -9.396643e+00 -5.634784e+01 -1.084796e+01 -5.656850e+01 -1.165999e+01 -5.723034e+01 -1.128142e+01 -5.876277e+01 -1.036939e+01 -6.012171e+01 -9.481294e+00 -6.118446e+01 -8.715803e+00 -6.190787e+01 -8.159271e+00 -6.191697e+01 -8.432232e+00 -6.087768e+01 -9.517472e+00 -5.900134e+01 -1.101305e+01 -5.678211e+01 -1.247307e+01 -5.469952e+01 -1.280557e+01 -5.407043e+01 -1.139689e+01 -5.441653e+01 -9.065347e+00 -5.480231e+01 -6.733754e+00 -5.477339e+01 -4.265537e+00 -5.427257e+01 -1.930724e+00 -5.290322e+01 3.625270e-01 -5.063627e+01 2.703908e+00 -4.600281e+01 7.827546e+00 
-2.741460e+01 9.261827e+00 -1.473602e+01 7.619456e+00 -1.858619e+01 5.741264e+00 -1.277369e+01 6.179354e+00 -1.807139e+01 5.242631e+00 -2.157164e+01 4.336045e+00 -2.412982e+01 3.590010e+00 -2.602563e+01 2.697090e+00 -2.676355e+01 8.556720e-01 -2.595013e+01 -1.894880e+00 -2.416441e+01 -4.594615e+00 -2.234686e+01 -6.786666e+00 -2.111135e+01 -7.887098e+00 -2.053157e+01 -8.295566e+00 -2.055442e+01 -7.762880e+00 -2.148174e+01 -6.825912e+00 -2.249117e+01 -5.991443e+00 -2.340733e+01 -5.366464e+00 -2.413658e+01 -5.070820e+00 -2.427941e+01 -5.480545e+00 -2.359519e+01 -6.633033e+00 -2.223175e+01 -8.086099e+00 -2.058565e+01 -9.408416e+00 -1.915299e+01 -9.657798e+00 -1.898231e+01 -8.373321e+00 -1.978428e+01 -6.205346e+00 -2.089494e+01 -3.910172e+00 -2.195258e+01 -1.499045e+00 -2.290715e+01 8.338389e-01 -2.350420e+01 3.054888e+00 -2.366623e+01 5.326867e+00 -2.275357e+01 9.579433e+00 
-7.309187e-01 9.214573e-01 -1.378838e+00 -1.811287e+00 -3.305791e+01 4.761632e-01 1.025796e+00 -7.804150e-02 5.145657e-03 -5.255482e-02 -3.531073e-01 -3.406073e-02 -4.971403e-01 -3.025564e-02 -5.530787e-01 -3.614437e-02 -5.635682e-01 -4.635331e-02 -5.630481e-01 -4.607479e-02 -5.381165e-01 -4.964173e-02 -4.855670e-01 -7.121537e-02 -4.227844e-01 -1.092445e-01 -3.632518e-01 -1.644878e-01 -3.309461e-01 -2.017926e-01 -3.076764e-01 -2.161076e-01 -3.070682e-01 -1.873232e-01 -3.245699e-01 -1.421723e-01 -3.705380e-01 -9.370510e-02 -4.304113e-01 -5.359298e-02 -4.764207e-01 -2.901401e-02 -4.969560e-01 -2.172541e-02 -4.767012e-01 -3.965982e-02 -4.365902e-01 -8.740011e-02 -3.754543e-01 -1.524895e-01 -3.098146e-01 -2.025877e-01 -2.469237e-01 -2.120150e-01 -1.922944e-01 -1.724032e-01 -1.551596e-01 -8.642403e-02 -1.479203e-01 2.948811e-02 -1.793340e-01 1.550628e-01 -3.155491e-01 4.839797e-01 
-4.524435e-01 2.380208e-01 -1.033804e+00 -1.477979e+00 -4.242216e+01 -4.308770e-01 1.137582e+00 -3.069660e-01 6.406445e-01 -1.552797e-01 3.314253e-01 -9.338105e-02 1.705246e-01 -5.881269e-02 8.699369e-02 -3.977641e-02 5.754158e-02 -4.294357e-02 3.401142e-02 -2.798825e-02 2.206255e-02 -2.228036e-02 1.854256e-02 -1.800540e-02 2.711728e-03 -1.235033e-02 7.578268e-03 -1.983357e-02 -8.016458e-03 -1.195161e-02 -2.697087e-03 -2.325418e-02 -1.609843e-02 -1.844329e-02 -1.804773e-02 -1.890409e-02 -1.579542e-02 -6.249159e-03 -1.413622e-02 9.323469e-03 2.807580e-03 1.824177e-02 -2.439141e-03 3.129295e-02 5.870992e-03 2.352720e-02 -3.297375e-03 2.531592e-02 -1.763183e-03 1.252396e-02 -4.939020e-03 1.410794e-02 -2.006084e-02 2.843192e-02 -4.284295e-02 4.665099e-02 -7.418640e-02 6.905598e-02 -1.199258e-01 9.896374e-02 -2.055412e-01 1.377692e-01 -3.886894e-01 3.715425e-01 
-5.470500e-01 2.325743e-01 -8.785989e-01 -1.737347e+00 -4.958654e+01 -6.273393e-01 9.320520e-01 -2.750029e-01 6.479679e-01 -1.751512e-01 3.583087e-01 -1.137628e-01 1.932581e-01 -6.678073e-02 1.069433e-01 -3.833098e-02 9.792454e-02 -5.224519e-02 6.811631e-02 -3.123417e-02 5.360679e-02 -2.802260e-02 4.674203e-02 -1.938777e-02 1.720713e-02 -1.222529e-02 2.503295e-02 -3.008776e-02 -1.430744e-02 -1.908379e-02 -6.161488e-03 -4.250994e-02 -3.176910e-02 -2.891251e-02 -3.080547e-02 -3.090286e-02 -2.229146e-02 -8.378806e-03 -1.823899e-02 1.572133e-02 1.572378e-02 2.999056e-02 6.491912e-03 5.886214e-02 3.190843e-02 4.412790e-02 9.747804e-03 4.958700e-02 1.565570e-02 1.986244e-02 8.677571e-03 1.907097e-02 -1.874983e-02 3.771655e-02 -5.675577e-02 5.853812e-02 -1.022396e-01 8.195482e-02 -1.607358e-01 1.153375e-01 -2.489434e-01 1.762150e-01 -4.020087e-01 2.971104e-01 
-4.535402e-01 2.745408e-01 -5.509468e-01 -1.554261e+00 -5.504412e+01 -7.252335e-01 5.219874e-01 -3.690147e-01 5.338361e-01 -2.332016e-01 3.417851e-01 -1.475101e-01 1.888575e-01 -8.529618e-02 9.112045e-02 -4.676053e-02 1.002551e-01 -9.837316e-02 5.499584e-02 -5.835777e-02 2.667969e-02 -6.386746e-02 3.633330e-02 -4.185500e-02 -8.167698e-03 -1.460420e-02 4.235038e-02 -3.622774e-02 -1.348807e-02 8.808672e-03 2.443874e-02 -3.607434e-02 -1.049791e-02 -1.310826e-03 -1.684023e-02 -2.636030e-02 -5.164857e-03 -1.058612e-04 -3.144818e-02 1.546896e-02 1.910170e-02 1.518421e-02 -2.419964e-02 6.226614e-02 2.232312e-02 2.309674e-02 -1.954130e-02 5.286901e-02 -1.455419e-03 -7.324614e-04 1.594351e-02 1.220567e-02 -6.504485e-03 5.326329e-02 -4.108574e-02 8.857520e-02 -8.261134e-02 1.210760e-01 -1.375741e-01 1.607064e-01 -2.219039e-01 2.181213e-01 -3.498486e-01 2.960072e-01 
-4.191866e-01 2.757784e-01 -3.455756e-01 -1.732009e+00 -5.910435e+01 -7.786787e-01 2.907196e-01 -3.494294e-01 4.385200e-01 -2.304343e-01 3.035340e-01 -1.473461e-01 1.627757e-01 -7.090232e-02 5.585010e-02 -2.390839e-02 1.410298e-01 -1.436175e-01 7.174253e-02 -4.486706e-02 3.459161e-02 -9.115724e-02 6.609349e-02 -3.684554e-02 -2.738466e-02 -1.361069e-02 8.326382e-02 -5.361662e-02 -4.212232e-02 2.570516e-02 4.329756e-02 -7.030522e-02 -2.868341e-02 1.188030e-02 -3.418226e-02 -5.733028e-02 -3.070233e-03 8.617357e-03 -5.988504e-02 1.490363e-02 4.797170e-02 1.885836e-02 -4.663752e-02 1.025556e-01 5.554278e-02 2.398515e-02 -3.477542e-02 9.212540e-02 6.696270e-04 -2.794583e-02 4.009280e-02 -4.219247e-04 3.665522e-03 5.790886e-02 -4.903459e-02 9.600687e-02 -1.007409e-01 1.269387e-01 -1.571932e-01 1.659438e-01 -2.313019e-01 2.195613e-01 -3.308418e-01 2.701295e-01 
-2.925227e-01 2.829777e-01 -7.844912e-02 -1.662073e+00 -6.196965e+01 -7.496104e-01 3.604807e-02 -3.958955e-01 2.815886e-01 -2.754374e-01 2.324763e-01 -1.728941e-01 1.197180e-01 -6.306232e-02 -2.214964e-02 3.185836e-02 1.541385e-01 -2.747300e-01 8.474180e-02 -7.892178e-03 -2.860480e-02 -1.700553e-01 1.093043e-01 -3.510161e-02 -1.103567e-01 -5.410827e-03 1.587161e-01 -9.678106e-02 -8.608266e-02 1.064848e-01 8.751985e-02 -1.348389e-01 -5.090342e-03 9.674253e-02 -6.603905e-02 -1.174291e-01 5.727289e-02 4.924463e-02 -1.342484e-01 1.344034e-03 1.145303e-01 -1.039378e-02 -1.164810e-01 1.606551e-01 8.972102e-02 -3.972517e-02 -6.818776e-02 1.770757e-01 -4.960924e-02 -1.086988e-01 9.027419e-02 -1.957600e-02 2.911321e-02 7.709683e-02 -3.383484e-02 1.239797e-01 -8.130382e-02 1.564620e-01 -1.269131e-01 1.936732e-01 -1.833395e-01 2.396867e-01 -2.498546e-01 2.831109e-01 
-2.301961e-01 2.719296e-01 9.565757e-02 -1.741182e+00 -6.394677e+01 -7.870595e-01 -1.192717e-01 -4.074762e-01 1.948262e-01 -2.837498e-01 1.905859e-01 -1.682140e-01 7.547641e-02 8.294421e-03 -1.844726e-01 1.807076e-01 2.574458e-01 -5.132426e-01 1.194030e-01 1.819509e-01 -1.016015e-01 -3.432742e-01 2.333655e-01 6.196840e-02 -2.670892e-01 -4.265931e-02 3.456962e-01 -1.389437e-01 -2.211964e-01 2.218393e-01 1.827216e-01 -2.813704e-01 -2.017891e-02 2.641851e-01 -1.473072e-01 -2.864803e-01 1.502267e-01 1.654066e-01 -2.883504e-01 -6.841608e-02 2.719499e-01 -1.170257e-02 -2.492037e-01 2.615335e-01 2.141056e-01 -1.204146e-01 -1.287718e-01 3.618507e-01 -1.164566e-01 -2.685981e-01 1.912067e-01 -4.105966e-02 6.134240e-02 1.012357e-01 -4.534613e-02 1.396283e-01 -9.956274e-02 1.613617e-01 -1.370148e-01 1.928237e-01 -1.767334e-01 2.341610e-01 -2.171256e-01 2.733660e-01 
-1.140619e-01 2.695702e-01 2.943921e-01 -1.708617e+00 -6.494878e+01 -6.995905e-01 -2.542968e-01 -4.346462e-01 6.757734e-02 -3.333110e-01 1.205143e-01 -2.159288e-01 4.414906e-02 6.324942e-02 -4.091197e-01 6.623307e-01 2.525355e-01 -1.100778e+00 3.523248e-01 7.418735e-01 -4.748704e-01 -7.513965e-01 5.883930e-01 2.862982e-01 -6.813022e-01 -4.026716e-02 7.051544e-01 -3.463153e-01 -4.199781e-01 6.587938e-01 2.340107e-01 -7.615032e-01 1.584329e-01 8.496240e-01 -5.045384e-01 -7.759983e-01 5.469848e-01 5.380266e-01 -7.475166e-01 -2.649828e-01 6.630422e-01 -8.363358e-02 -5.356156e-01 5.273439e-01 3.819935e-01 -4.983483e-01 -8.907000e-02 9.655733e-01 -4.879427e-01 -6.588733e-01 4.734001e-01 -6.691807e-03 8.396616e-02 1.532046e-01 -5.483569e-02 1.708909e-01 -9.106055e-02 1.841752e-01 -1.073955e-01 2.105201e-01 -1.245061e-01 2.458520e-01 -1.362472e-01 2.811594e-01 
-5.613770e-02 2.574065e-01 4.263081e-01 -1.746070e+00 -6.537396e+01 -7.060524e-01 -3.422253e-01 -4.701426e-01 2.204974e-02 -3.919225e-01 1.369506e-01 -3.045612e-01 1.017223e-01 2.154502e-01 -1.029769e+00 1.400189e+00 1.721543e+00 -5.920487e-01 5.764242e-01 1.597762e+00 -2.509608e-01 -3.118989e-01 1.201905e+00 9.247328e-01 -1.302284e+00 1.097176e+00 1.455461e+00 -5.460043e-01 -1.061534e+00 1.869739e+00 9.694104e-01 -1.707245e+00 2.132776e-01 1.676237e+00 -1.355978e-01 -1.672005e+00 1.086252e+00 1.137294e+00 -1.017755e+00 -2.316570e-01 1.239313e+00 -2.228261e-01 -1.124615e+00 1.489814e+00 8.665284e-01 -1.652193e+00 -2.026585e-01 2.088925e+00 -3.833863e-01 -2.813743e+00 8.243199e-01 4.776729e-02 8.937585e-02 2.569199e-01 -1.273387e-01 1.952765e-01 -1.289033e-01 1.839120e-01 -1.163763e-01 2.043242e-01 -1.122023e-01 2.379043e-01 -1.025537e-01 2.735788e-01 
3.689616e-02 2.470636e-01 5.688979e-01 -1.711908e+00 -6.496285e+01 -5.981918e-01 -4.012724e-01 -4.819286e-01 -6.312577e-02 -4.672646e-01 8.903584e-02 -5.452960e-01 1.766297e-01 -3.066243e-01 -1.123112e+00 -1.058963e+00 2.025790e+01 2.225405e+01 4.402594e+00 -1.918766e+00 1.010558e+01 2.071799e+01 9.801989e+00 2.490653e+00 1.584699e+00 1.529438e+01 1.732123e+01 8.429428e+00 -1.071814e+00 4.930421e+00 1.886470e+01 1.433478e+01 2.416955e+00 -2.044641e+00 1.311729e+01 1.780201e+01 6.794696e+00 -9.320332e-01 5.462671e+00 1.702785e+01 1.298326e+01 4.251111e+00 -3.806536e-01 9.360634e+00 1.761025e+01 9.576445e+00 1.167787e+00 8.724896e-02 1.477764e+01 1.434881e+01 4.328475e+00 1.622907e+00 -2.698775e-01 3.242745e-01 -2.385711e-01 2.115345e-01 -1.350806e-01 1.978135e-01 -8.714237e-02 2.145002e-01 -6.183931e-02 2.431116e-01 -3.170894e-02 2.745481e-01 
8.147944e-02 2.312288e-01 6.617859e-01 -1.711767e+00 -6.415081e+01 -5.759733e-01 -4.503623e-01 -4.965138e-01 -9.357020e-02 -5.535875e-01 1.692880e-01 -1.016773e+00 8.504871e-01 -2.142472e+00 1.446101e+00 -1.355137e+00 4.605241e+01 4.844697e+01 7.603881e+00 -8.133087e+00 2.968417e+01 5.186045e+01 1.965800e+01 7.096983e-01 1.075514e+01 4.055399e+01 4.222137e+01 1.809821e+01 5.344738e-01 1.421333e+01 5.135023e+01 3.957078e+01 3.526248e+00 -5.760855e+00 4.030682e+01 5.377992e+01 1.201009e+01 -5.664124e+00 2.159454e+01 5.196136e+01 3.181882e+01 9.118739e+00 3.351918e+00 2.912966e+01 5.097420e+01 2.961219e+01 1.548403e+00 1.081699e+00 4.973720e+01 5.464200e+01 5.512130e+00 3.539950e+00 -1.654934e+00 3.099063e-01 -5.157578e-01 1.649462e-01 -1.758257e-01 1.742175e-01 -8.133649e-02 2.008992e-01 -4.213459e-02 2.326239e-01 -7.473536e-04 2.656810e-01 
1.515102e-01 2.128542e-01 7.545916e-01 -1.636805e+00 -6.264230e+01 -4.830218e-01 -4.637693e-01 -4.442435e-01 -1.288605e-01 -4.576334e-01 1.602792e-01 -7.587227e-01 7.933518e-01 -1.883203e+00 2.274854e+00 -1.225818e+00 6.573452e+00 5.072598e+00 3.497959e+00 -3.850995e+00 7.994690e+00 1.081133e+01 4.787380e+00 -2.140433e+00 4.693256e+00 1.133779e+01 1.134950e+01 2.960846e+00 1.221835e+00 5.324548e+00 1.632699e+01 1.093344e+01 6.108190e-01 -1.016632e+00 1.492813e+01 1.761140e+01 2.366630e+00 -1.745929e+00 9.165287e+00 1.911120e+01 9.999983e+00 2.889374e+00 1.601415e+00 1.287259e+01 1.959508e+01 1.105879e+01 -1.272555e+00 3.133188e+00 2.313306e+01 2.360742e+01 -3.516718e-01 2.377365e+00 -9.301230e-01 4.616535e-01 -3.016948e-01 2.197691e-01 -9.722382e-02 1.914538e-01 -3.016025e-02 2.050929e-01 8.901679e-03 2.307670e-01 5.848847e-02 2.593234e-01 
1.819350e-01 1.941338e-01 8.103700e-01 -1.576523e+00 -6.083505e+01 -4.507884e-01 -4.987064e-01 -3.566352e-01 -2.165718e-01 -1.728094e-01 -1.410980e-01 2.412580e-01 -4.406343e-01 1.133465e+00 -4.980412e-02 1.912086e-01 -4.816206e+01 -5.019107e+01 -5.232452e+00 6.034027e+00 -3.068929e+01 -5.239320e+01 -1.760919e+01 -1.352166e+00 -1.140970e+01 -4.129563e+01 -4.080302e+01 -1.682720e+01 -3.655841e-01 -1.603878e+01 -5.077921e+01 -3.733343e+01 -1.685578e+00 3.831527e+00 -4.101443e+01 -5.152138e+01 -8.932857e+00 5.570810e+00 -2.312994e+01 -5.049091e+01 -2.850676e+01 -6.444920e+00 -5.021018e+00 -2.967497e+01 -4.811167e+01 -2.522748e+01 -1.450670e+00 -3.132270e+00 -4.849910e+01 -5.013114e+01 -3.151069e+00 -2.263402e+00 1.075098e+00 1.342214e-01 3.033253e-01 1.982315e-01 7.140371e-02 1.857169e-01 2.661363e-02 1.962021e-01 3.886879e-02 2.202793e-01 8.478438e-02 2.486391e-01 
2.306958e-01 1.739268e-01 8.575101e-01 -1.468339e+00 -5.847817e+01 -3.801068e-01 -5.160926e-01 -3.167700e-01 -3.040969e-01 -1.392629e-01 -3.076938e-01 2.844388e-01 -7.266813e-01 1.183786e+00 -1.136466e+00 3.773031e+00 -2.664883e+01 -2.882124e+01 -9.292458e+00 5.757912e+00 -1.644071e+01 -3.179680e+01 -1.621117e+01 -1.558446e+00 -4.961089e+00 -2.491444e+01 -2.951772e+01 -1.392241e+01 -1.429004e-01 -7.571244e+00 -3.430093e+01 -2.786536e+01 -4.579008e+00 5.063993e+00 -2.567727e+01 -3.694320e+01 -1.153306e+01 3.181691e+00 -1.257136e+01 -3.562863e+01 -2.459692e+01 -8.681649e+00 -7.337701e-01 -1.928470e+01 -3.675338e+01 -2.344874e+01 -1.426696e+00 5.824338e-01 -3.456373e+01 -4.077499e+01 -6.247095e+00 -3.731889e+00 1.191492e+00 -1.932227e-01 3.833061e-01 8.730389e-02 1.226303e-01 1.475267e-01 6.878470e-02 1.791033e-01 8.043031e-02 2.078534e-01 1.294385e-01 2.352276e-01 
2.449022e-01 1.548233e-01 8.817358e-01 -1.421681e+00 -5.594134e+01 -3.281175e-01 -5.254275e-01 -2.931266e-01 -3.451257e-01 -1.602431e-01 -3.341594e-01 -1.746822e-02 -4.424268e-01 1.103656e-02 -8.171792e-02 -1.247074e+00 -1.189618e+00 2.851406e+00 -1.410054e+00 -5.966582e-01 -5.864754e-01 8.273226e-01 -1.476148e+00 -6.671895e-02 6.030290e-01 -1.878693e+00 -1.952560e+00 8.956667e-01 8.800931e-01 -2.350319e+00 -2.528487e+00 1.261699e+00 -2.456853e-01 -1.243801e+00 -1.934659e+00 2.294940e-01 -1.301637e+00 -9.446030e-01 -1.819210e-01 -2.076812e+00 -2.224688e+00 -5.733330e-01 1.480083e+00 -3.319577e+00 -3.319459e+00 -1.608701e-01 1.065010e+00 -2.184597e+00 -3.377371e+00 -2.183140e-01 -8.128278e-01 -8.055306e-01 1.677919e-01 -2.442866e-01 1.775076e-01 1.196886e-02 1.086298e-01 1.098734e-01 8.225962e-02 1.577948e-01 9.533269e-02 1.922140e-01 1.434870e-01 2.216056e-01 
2.735347e-01 1.341159e-01 8.896609e-01 -1.299517e+00 -5.294541e+01 -2.819027e-01 -5.191491e-01 -2.590780e-01 -3.719831e-01 -1.426572e-01 -3.475507e-01 -4.504319e-02 -3.593897e-01 -1.665850e-01 9.512898e-02 -1.460819e+00 7.263685e-01 1.165489e+00 -1.008186e+00 -1.013675e+00 1.023494e+00 6.865305e-01 -1.052767e+00 -3.095223e-01 9.629395e-01 -2.848999e-01 -8.782718e-01 6.399281e-01 4.572676e-01 -1.152516e+00 -1.581583e-01 1.242970e+00 -4.018963e-01 -1.356089e+00 8.115619e-01 1.260025e+00 -9.491481e-01 -9.326595e-01 1.161639e+00 4.876753e-01 -1.063415e+00 5.305017e-02 9.342113e-01 -7.298627e-01 -7.224972e-01 8.882147e-01 2.830948e-01 -1.531735e+00 3.595614e-01 1.623707e+00 -6.415463e-01 -1.005644e-01 5.241894e-02 -1.467353e-01 1.499271e-01 4.865734e-04 1.192596e-01 8.923156e-02 1.045934e-01 1.403659e-01 1.219075e-01 1.762578e-01 1.719364e-01 2.043627e-01 
2.723844e-01 1.169138e-01 8.842823e-01 -1.259457e+00 -4.985527e+01 -2.328601e-01 -4.938054e-01 -2.616530e-01 -3.523587e-01 -1.785524e-01 -2.897196e-01 -1.379135e-01 -2.131663e-01 -2.063721e-01 6.138907e-02 -5.767709e-01 1.904675e-01 1.716126e-01 -2.331083e-01 -2.326788e-01 2.374496e-01 9.562475e-02 -2.853600e-01 -8.319745e-02 2.817688e-01 -1.193321e-01 -3.421606e-01 1.229207e-01 2.135843e-01 -3.345048e-01 -1.894253e-01 2.853691e-01 2.370876e-03 -3.875607e-01 1.517144e-01 3.600238e-01 -1.803592e-01 -2.706221e-01 3.312321e-01 2.112758e-01 -3.385547e-01 -2.401548e-02 3.732396e-01 -1.363147e-01 -3.680163e-01 1.884295e-01 2.732582e-01 -3.932109e-01 -9.413783e-02 6.272253e-01 -1.749797e-01 7.884912e-02 1.396033e-02 -3.179306e-02 8.050057e-02 2.052475e-02 8.944304e-02 8.110558e-02 9.612722e-02 1.264748e-01 1.209532e-01 1.616621e-01 1.722415e-01 1.899400e-01 
2.827602e-01 9.849240e-02 8.598333e-01 -1.134225e+00 -4.635797e+01 -2.027097e-01 -4.668641e-01 -2.371913e-01 -3.438516e-01 -1.705681e-01 -2.737364e-01 -1.488669e-01 -1.831641e-01 -2.165432e-01 3.573413e-02 -4.065288e-01 6.771797e-02 7.315701e-02 -1.441021e-01 -1.634968e-01 1.281712e-01 2.577942e-02 -1.878451e-01 -5.176436e-02 1.610434e-01 -1.343832e-01 -2.011866e-01 9.057767e-02 1.086440e-01 -2.258652e-01 -9.102886e-02 1.708052e-01 -1.878907e-02 -1.860296e-01 1.071540e-01 1.717015e-01 -1.186066e-01 -9.496083e-02 2.014630e-01 5.279370e-02 -1.880558e-01 4.979410e-02 1.934839e-01 -1.348506e-01 -1.671148e-01 1.546700e-01 1.204255e-01 -1.762126e-01 -2.079801e-03 3.734152e-01 -1.391461e-01 1.310299e-01 -1.813982e-03 2.040315e-02 6.735371e-02 3.676246e-02 8.885399e-02 7.861531e-02 1.040285e-01 1.163404e-01 1.330046e-01 1.475879e-01 1.851219e-01 1.724290e-01 
2.689181e-01 8.444591e-02 8.276256e-01 -1.086073e+00 -4.281359e+01 -1.633344e-01 -4.231966e-01 -2.392307e-01 -3.047378e-01 -1.818688e-01 -2.257141e-01 -1.559421e-01 -1.467431e-01 -1.648863e-01 -4.387754e-02 -2.104672e-01 -1.148229e-02 -8.932869e-02 -3.569884e-02 -8.925037e-02 3.666536e-03 -4.715733e-02 -3.930765e-02 -4.783462e-02 2.272983e-02 -5.990538e-02 -5.563511e-02 -1.324462e-02 2.609100e-02 -6.945702e-02 -4.871219e-02 1.678044e-02 1.175274e-02 -5.064893e-02 2.128739e-03 4.195571e-02 1.528079e-04 -2.336958e-02 4.161032e-02 3.327318e-02 -3.009562e-02 8.719573e-03 6.124632e-02 -7.231337e-03 -6.146083e-02 4.475788e-02 4.836799e-02 1.754501e-03 -6.602795e-02 1.649839e-01 -2.511257e-02 8.978124e-02 2.166640e-02 4.980581e-02 5.048792e-02 5.708645e-02 6.858004e-02 8.183618e-02 8.919304e-02 1.093748e-01 1.220215e-01 1.357958e-01 1.743997e-01 1.585576e-01 
2.639028e-01 6.974457e-02 7.774916e-01 -9.624957e-01 -3.891343e+01 -1.408664e-01 -3.844608e-01 -2.190223e-01 -2.826662e-01 -1.731195e-01 -2.083902e-01 -1.485204e-01 -1.426898e-01 -1.383430e-01 -7.906403e-02 -1.425319e-01 -2.332122e-02 -1.317962e-01 -2.792433e-02 -6.781223e-02 -1.993064e-02 -7.268737e-02 -1.496463e-02 -4.126819e-02 -1.743866e-02 -4.837572e-02 -1.016476e-02 -3.062016e-02 -8.451128e-03 -2.682333e-02 -1.398233e-02 -2.108077e-02 2.487804e-03 -4.266281e-03 -3.963769e-03 -5.700756e-03 1.146860e-02 4.880228e-03 5.277189e-03 1.116501e-02 7.004353e-03 8.378514e-03 1.198505e-02 2.180284e-02 -1.339906e-02 2.307241e-02 1.232472e-02 5.148637e-02 -3.691874e-02 7.837114e-02 2.301227e-03 7.237573e-02 2.672652e-02 6.362126e-02 4.549286e-02 6.801205e-02 6.392822e-02 8.314286e-02 8.775688e-02 1.028935e-01 1.225761e-01 1.236954e-01 1.742106e-01 1.419964e-01 
2.403776e-01 5.817900e-02 7.236763e-01 -9.050383e-01 -3.498436e+01 -1.060008e-01 -3.324758e-01 -2.167249e-01 -2.381186e-01 -1.764268e-01 -1.637191e-01 -1.416713e-01 -1.198037e-01 -8.041187e-02 -1.442939e-01 -2.455902e-03 -6.335779e-02 -2.413363e-01 4.006099e-02 -1.850906e-02 -9.352857e-02 -1.189396e-01 8.462062e-02 -3.868210e-02 -1.075829e-01 5.687768e-03 9.060355e-02 -9.631216e-02 -5.966587e-02 7.858379e-02 1.041988e-02 -1.200642e-01 2.638750e-02 7.975188e-02 -7.714833e-02 -8.488830e-02 9.067615e-02 4.021829e-02 -1.018940e-01 1.294580e-02 1.121727e-01 -2.834276e-02 -7.145930e-02 1.220042e-01 4.394967e-02 -5.385705e-02 -2.629414e-02 1.653358e-01 -1.005992e-01 -6.228493e-02 9.832431e-02 2.506190e-02 5.281772e-02 7.808021e-02 3.231104e-02 8.291559e-02 4.292692e-02 8.622504e-02 6.885685e-02 9.699557e-02 1.055175e-01 1.126146e-01 1.558850e-01 1.281846e-01 
2.233773e-01 4.631589e-02 6.542574e-01 -7.851607e-01 -3.076529e+01 -8.605573e-02 -2.864515e-01 -1.974627e-01 -2.080368e-01 -1.704961e-01 -1.395473e-01 -1.378398e-01 -1.093697e-01 -4.382088e-02 -1.908195e-01 1.485177e-01 -8.203959e-02 -4.075274e-01 1.005681e-01 1.182383e-01 -1.744387e-01 -2.213436e-01 1.713318e-01 1.366571e-02 -2.057758e-01 1.271544e-02 1.845779e-01 -1.438522e-01 -1.131482e-01 1.903795e-01 3.189939e-02 -2.357522e-01 5.411553e-02 2.164845e-01 -1.466099e-01 -2.077776e-01 1.686711e-01 1.210574e-01 -2.037122e-01 -3.206446e-02 2.052987e-01 -4.662470e-02 -1.451995e-01 2.001339e-01 9.222671e-02 -1.443842e-01 -2.474590e-02 3.110690e-01 -1.628724e-01 -2.015700e-01 1.738072e-01 1.503942e-02 5.954831e-02 9.230861e-02 2.095930e-02 9.113121e-02 3.197003e-02 8.615173e-02 6.062900e-02 9.024131e-02 9.798763e-02 1.006154e-01 1.459665e-01 1.119536e-01 
1.933216e-01 3.558270e-02 5.847027e-01 -7.196485e-01 -2.651322e+01 -4.911662e-02 -2.312228e-01 -1.897670e-01 -1.630627e-01 -1.846250e-01 -8.197373e-02 -1.750781e-01 -2.871913e-02 -1.525657e-02 -2.407777e-01 6.196427e-01 -2.845467e-01 -8.963025e-01 5.460747e-01 5.757281e-01 -5.694582e-01 -4.483868e-01 6.142048e-01 1.686901e-01 -5.715833e-01 2.043895e-01 4.893781e-01 -4.005792e-01 -2.030284e-01 6.705561e-01 -2.666035e-04 -7.358414e-01 3.338542e-01 7.343314e-01 -5.068941e-01 -6.517828e-01 6.335685e-01 4.506768e-01 -6.498369e-01 -1.090520e-01 6.218339e-01 -1.315482e-01 -3.986557e-01 5.620290e-01 2.388155e-01 -5.816741e-01 8.407975e-02 9.274051e-01 -5.012470e-01 -8.184031e-01 5.444662e-01 8.528075e-02 5.190991e-02 1.553107e-01 -3.138182e-02 1.042968e-01 -1.591854e-03 8.194119e-02 3.876139e-02 8.021118e-02 7.867552e-02 8.768393e-02 1.236649e-01 9.711628e-02 
1.678833e-01 2.492812e-02 5.014458e-01 -6.012006e-01 -2.205308e+01 -2.996959e-02 -1.817358e-01 -1.664414e-01 -1.282227e-01 -1.837993e-01 -4.608389e-02 -2.153904e-01 1.818846e-02 -9.829097e-02 -2.483693e-01 -2.353505e-01 2.220708e+00 2.631496e+00 1.551101e+00 3.228732e-01 5.294957e-01 2.507428e+00 2.335374e+00 7.678750e-01 -4.779149e-01 2.087125e+00 3.211138e+00 1.278466e+00 -2.622129e-01 8.832011e-01 2.908779e+00 1.940845e+00 8.169945e-01 1.736433e-01 1.483379e+00 2.410731e+00 1.840099e+00 3.830345e-01 6.104090e-02 2.509220e+00 2.891248e+00 8.674768e-01 -4.560523e-01 1.554007e+00 3.313079e+00 1.569700e+00 3.457904e-01 4.531225e-01 2.142337e+00 2.160865e+00 1.358181e+00 4.821354e-01 -2.518185e-02 1.932720e-01 -7.364104e-02 1.069569e-01 -1.893812e-02 7.613825e-02 2.799642e-02 7.004477e-02 6.721234e-02 7.393174e-02 1.076422e-01 8.016638e-02 
1.345921e-01 1.422795e-02 4.203246e-01 -5.188356e-01 -1.754280e+01 9.646611e-03 -1.302175e-01 -1.380266e-01 -9.984762e-02 -1.947647e-01 -7.632031e-03 -3.966854e-01 2.116841e-01 -8.104586e-01 6.419111e-01 -4.855661e+00 1.499098e+01 2.318618e+01 7.666467e+00 -2.297931e+00 6.953167e+00 1.986126e+01 1.278391e+01 3.440409e+00 1.293405e+00 1.186202e+01 1.972732e+01 1.222709e+01 5.853295e-01 1.058924e+00 1.958839e+01 2.054819e+01 4.062203e+00 -3.697168e+00 1.243464e+01 2.287633e+01 9.101489e+00 -6.570029e-01 4.560337e+00 1.815996e+01 1.696334e+01 7.372986e+00 2.015940e-01 6.430105e+00 2.168775e+01 1.726678e+01 2.244614e+00 -2.933411e+00 1.705988e+01 2.536833e+01 5.876885e+00 2.666418e+00 -6.617037e-01 1.943398e-01 -2.409630e-01 6.445385e-02 -5.160405e-02 5.209570e-02 1.534777e-02 5.345444e-02 5.205985e-02 5.853534e-02 8.519808e-02 6.399256e-02 
1.038581e-01 4.318158e-03 3.273508e-01 -3.953325e-01 -1.291893e+01 2.671357e-02 -8.265717e-02 -9.877318e-02 -7.029264e-02 -1.601099e-01 1.684785e-02 -3.785280e-01 2.831425e-01 -9.448511e-01 7.750942e-01 -4.169541e+00 1.496073e+01 2.183701e+01 6.399005e+00 -2.714745e+00 7.809966e+00 1.948760e+01 1.160758e+01 2.399424e+00 2.076846e+00 1.223394e+01 1.909077e+01 1.099512e+01 5.218037e-01 1.820349e+00 1.982419e+01 1.973013e+01 2.928313e+00 -3.328095e+00 1.336670e+01 2.260982e+01 7.560650e+00 -1.103986e+00 5.521989e+00 1.838749e+01 1.588258e+01 6.399290e+00 4.671514e-01 7.216359e+00 2.151870e+01 1.643666e+01 1.276184e+00 -2.082155e+00 1.811365e+01 2.537612e+01 4.434458e+00 2.440490e+00 -6.579063e-01 1.962885e-01 -2.225963e-01 4.897449e-02 -4.620551e-02 3.738850e-02 1.183837e-02 3.884454e-02 4.089201e-02 4.255204e-02 6.601800e-02 4.605615e-02 
6.958659e-02 -5.770925e-03 2.375500e-01 -2.861799e-01 -8.238440e+00 6.175806e-02 -3.318777e-02 -2.131701e-02 -5.976276e-02 9.703188e-03 -7.279660e-02 1.546094e-01 -1.874416e-01 4.979137e-01 -3.420975e-01 2.899429e+00 -1.202228e+01 -1.734701e+01 -4.404657e+00 1.736523e+00 -6.110759e+00 -1.519702e+01 -8.547352e+00 -1.944154e+00 -1.566817e+00 -9.629700e+00 -1.439756e+01 -8.240910e+00 -2.212749e-01 -1.668824e+00 -1.513107e+01 -1.479093e+01 -1.933695e+00 2.406689e+00 -1.033917e+01 -1.707600e+01 -5.452789e+00 9.649058e-01 -4.407434e+00 -1.408175e+01 -1.185655e+01 -4.475647e+00 -5.125738e-01 -5.696697e+00 -1.632795e+01 -1.200207e+01 -1.016806e+00 1.531768e+00 -1.383014e+01 -1.879120e+01 -3.219443e+00 -1.553510e+00 4.347673e-01 -4.795715e-02 1.568994e-01 2.821695e-02 5.222035e-02 2.730829e-02 3.112677e-02 2.601624e-02 3.365750e-02 2.742874e-02 4.492750e-02 2.920412e-02 
3.542028e-02 -1.460998e-02 1.391226e-01 -1.615359e-01 -3.537319e+00 7.719026e-02 1.223558e-02 2.672810e-02 -3.895627e-02 7.901654e-02 -9.311165e-02 3.163697e-01 -3.140121e-01 8.566009e-01 -8.677079e-01 5.286559e+00 -1.671838e+01 -2.554594e+01 -8.343888e+00 2.727559e+00 -8.044711e+00 -2.214892e+01 -1.403411e+01 -3.563593e+00 -1.718556e+00 -1.335992e+01 -2.196036e+01 -1.343654e+01 -6.790164e-01 -1.316918e+00 -2.206016e+01 -2.293372e+01 -4.255804e+00 4.137043e+00 -1.422718e+01 -2.569658e+01 -9.779613e+00 9.113524e-01 -5.406784e+00 -2.047627e+01 -1.871739e+01 -8.039883e+00 -3.085106e-01 -7.376021e+00 -2.428287e+01 -1.925566e+01 -2.237855e+00 3.204663e+00 -1.945515e+01 -2.869421e+01 -6.174944e+00 -2.884382e+00 7.507263e-01 -1.494830e-01 2.660333e-01 -3.122962e-03 7.863011e-02 8.721394e-03 3.146778e-02 9.708985e-03 2.169034e-02 1.057410e-02 2.327374e-02 1.101722e-02 
-2.578817e-04 -2.474011e-02 4.681343e-02 -6.672101e-02 1.194264e+00 1.171130e-01 6.465004e-02 6.294198e-02 -1.406231e-02 7.476120e-02 -6.225071e-02 1.448123e-01 -1.348721e-01 1.587626e-01 -4.694741e-02 9.344232e-01 -3.787840e+00 -5.075979e+00 -2.627698e+00 1.251612e-01 -1.385143e+00 -4.720849e+00 -3.916612e+00 -1.118278e+00 2.121858e-01 -3.307410e+00 -5.562922e+00 -2.855564e+00 6.356732e-02 -7.883285e-01 -5.222036e+00 -4.590849e+00 -1.395560e+00 4.095611e-01 -2.931805e+00 -5.267799e+00 -2.976037e+00 -3.135754e-01 -5.797312e-01 -4.632456e+00 -4.913178e+00 -1.940475e+00 4.493384e-01 -2.139424e+00 -5.847443e+00 -3.917402e+00 -5.731857e-01 7.825071e-02 -4.156880e+00 -5.529530e+00 -2.084676e+00 -8.843711e-01 1.289064e-01 -1.588157e-01 1.152747e-01 -4.950043e-02 5.250502e-02 -1.849664e-02 2.160743e-02 -9.363709e-03 7.386186e-03 -6.763467e-03 2.388832e-04 -6.818050e-03 
-3.679898e-02 -3.293439e-02 -5.190365e-02 4.376653e-02 5.879012e+00 1.341243e-01 1.140043e-01 9.323547e-02 2.052334e-02 8.543299e-02 -2.772539e-02 9.524671e-02 -5.858558e-02 -4.941904e-02 1.792953e-01 -7.495763e-01 2.633875e-01 8.967085e-01 -6.402325e-01 -6.172726e-01 5.599444e-01 3.985761e-01 -6.881341e-01 -1.655842e-01 5.911665e-01 -3.292448e-01 -5.638916e-01 4.570131e-01 2.199074e-01 -7.867343e-01 -7.803836e-02 8.144194e-01 -3.453887e-01 -8.017845e-01 4.678503e-01 6.941517e-01 -6.610136e-01 -4.875836e-01 6.766621e-01 6.713774e-02 -6.665066e-01 1.510181e-01 4.670979e-01 -6.557286e-01 -3.183823e-01 6.767423e-01 -3.601654e-02 -1.004252e+00 4.038627e-01 1.002791e+00 -5.568216e-01 -5.894937e-02 -3.794389e-02 -1.273601e-01 5.297068e-02 -6.404084e-02 3.277149e-02 -3.435338e-02 8.043119e-03 -2.491510e-02 -9.810885e-03 -2.309342e-02 -2.424491e-02 -2.435935e-02 