# vtk DataFile Version 2.0
Comment goes here
ASCII

DATASET STRUCTURED_POINTS
FIELD FieldData 1
TIME 1 1 double
0.01400000
DIMENSIONS    64   64   1

ORIGIN    0.000   0.000   0.000
SPACING   0.03125 0.03125   1.000

POINT_DATA   4096
SCALARS Omega double
LOOKUP_TABLE default

-2.231299e-01 3.200005e-01 -2.518970e-01 5.143825e-02 -2.863452e-01 1.986194e-01 -2.004805e-01 1.153118e-01 -1.882284e-01 1.203588e-01 -1.724438e-01 1.319430e-01 -1.610034e-01 1.484211e-01 -1.516917e-01 1.793934e-01 -1.591107e-01 2.152549e-01 -1.732077e-01 2.475324e-01 -1.664116e-01 2.259338e-01 -1.327450e-01 2.344522e-01 -1.364543e-01 2.503301e-01 -1.284000e-01 2.438419e-01 -1.337480e-01 2.453312e-01 -9.564539e-02 2.150238e-01 -9.378331e-02 2.050697e-01 -5.777824e-02 1.336245e-01 1.029600e-02 1.043747e-01 2.919538e-02 6.866390e-02 5.334793e-02 5.161822e-02 8.546695e-02 -2.912753e-02 2.157334e-01 -1.692633e-01 2.739718e-01 -2.231334e-01 2.932850e-01 -2.538191e-01 2.906597e-01 -2.825788e-01 2.871638e-01 -3.138321e-01 2.986445e-01 -3.564467e-01 3.145140e-01 -3.787663e-01 3.199024e-01 -3.990808e-01 3.335601e-01 -4.280482e-01 4.472195e-01 -5.320805e-01 
-5.032055e+00 -1.947093e+01 9.983511e+00 -1.826968e+01 6.861777e+00 -1.540668e+01 2.990199e+00 -1.104646e+01 -1.737099e+00 -6.300877e+00 -6.481110e+00 -2.109948e+00 -1.050610e+01 1.173709e+00 -1.342856e+01 3.278196e+00 -1.510981e+01 4.163189e+00 -1.557939e+01 3.861574e+00 -1.505452e+01 3.031493e+00 -1.436697e+01 2.350509e+00 -1.393687e+01 1.913813e+00 -1.370467e+01 1.720761e+00 -1.385999e+01 2.061065e+00 -1.433036e+01 2.364438e+00 -1.443626e+01 2.186852e+00 -1.418791e+01 1.871921e+00 -1.383571e+01 1.466320e+00 -1.343150e+01 1.322079e+00 -1.369596e+01 2.055908e+00 -1.457183e+01 2.620989e+00 -1.427747e+01 1.787237e+00 -1.291545e+01 2.356501e-01 -1.097807e+01 -1.703906e+00 -9.080694e+00 -2.944609e+00 -8.334916e+00 -2.668016e+00 -9.322028e+00 -7.488281e-01 -1.149151e+01 1.795397e+00 -1.379623e+01 3.973423e+00 -1.492441e+01 4.089788e+00 -1.362499e+01 2.395862e+00 
-3.263993e+00 1.603335e+01 -2.033130e+01 1.040630e+01 -8.849298e+00 8.058916e+00 -1.113577e+01 5.625684e+00 -1.276669e+01 3.293236e+00 -1.348283e+01 1.351207e+00 -1.384822e+01 -2.528913e-01 -1.419703e+01 -1.363358e+00 -1.465641e+01 -1.986019e+00 -1.534177e+01 -1.983281e+00 -1.640669e+01 -1.601849e+00 -1.733280e+01 -1.497402e+00 -1.779312e+01 -1.519955e+00 -1.813470e+01 -1.549147e+00 -1.816411e+01 -1.966403e+00 -1.796728e+01 -2.276096e+00 -1.791629e+01 -2.276962e+00 -1.800840e+01 -2.238303e+00 -1.809670e+01 -2.131861e+00 -1.824958e+01 -2.074310e+00 -1.781714e+01 -2.832273e+00 -1.663041e+01 -3.575652e+00 -1.638575e+01 -3.141401e+00 -1.654673e+01 -2.600672e+00 -1.682345e+01 -1.699134e+00 -1.704963e+01 -1.184090e+00 -1.651448e+01 -1.532881e+00 -1.480026e+01 -2.912916e+00 -1.217813e+01 -4.608693e+00 -9.190645e+00 -6.378208e+00 -6.199805e+00 -7.499435e+00 -2.500307e+00 -1.322318e+01 
-7.624404e-01 1.165493e+01 -1.264548e+01 8.845494e+00 -1.850914e+00 6.862961e+00 -6.287488e+00 4.870426e+00 -6.315755e+00 2.771762e+00 -5.846534e+00 1.015163e+00 -5.300403e+00 -3.749599e-01 -4.928795e+00 -1.287465e+00 -4.844017e+00 -1.739344e+00 -5.104758e+00 -1.666157e+00 -5.744389e+00 -1.321454e+00 -6.339094e+00 -1.147354e+00 -6.658419e+00 -1.081008e+00 -6.875374e+00 -1.066032e+00 -6.865389e+00 -1.340492e+00 -6.673447e+00 -1.558170e+00 -6.628904e+00 -1.529513e+00 -6.715831e+00 -1.465064e+00 -6.814954e+00 -1.341461e+00 -6.965642e+00 -1.289326e+00 -6.696496e+00 -1.814567e+00 -5.929720e+00 -2.307714e+00 -5.838975e+00 -1.961020e+00 -6.154286e+00 -1.414205e+00 -6.640942e+00 -6.069497e-01 -7.101611e+00 -1.216897e-01 -6.968006e+00 -3.560381e-01 -5.912799e+00 -1.423461e+00 -4.175066e+00 -2.771063e+00 -2.224739e+00 -4.105350e+00 -4.776346e-01 -4.772727e+00 1.421675e+00 -6.834034e+00 
-7.347999e-02 1.796588e-01 -1.607674e-01 -2.885429e-02 -1.530839e+01 -7.572280e-02 1.381180e-02 4.708394e-04 -2.463783e-02 -2.743906e-04 -3.091411e-02 -7.210108e-04 -3.082180e-02 -3.338683e-03 -3.154438e-02 -6.484014e-03 -3.343875e-02 -8.114246e-03 -3.570877e-02 -8.266310e-03 -3.855106e-02 -6.735449e-03 -4.163407e-02 -5.226717e-03 -4.289565e-02 -5.668238e-03 -4.375070e-02 -5.710954e-03 -4.374788e-02 -7.665034e-03 -4.412431e-02 -7.849693e-03 -4.343990e-02 -8.591910e-03 -4.291547e-02 -9.779759e-03 -4.290296e-02 -1.027782e-02 -4.314980e-02 -9.690750e-03 -4.291021e-02 -7.882394e-03 -4.103436e-02 -1.039586e-02 -3.920136e-02 -1.057043e-02 -3.620729e-02 -1.265785e-02 -3.474329e-02 -1.372033e-02 -3.537250e-02 -1.199116e-02 -3.798106e-02 -6.771039e-03 -3.870456e-02 -7.679121e-04 -3.321860e-02 1.928763e-03 -2.007870e-02 -4.522926e-03 -6.608296e-03 -3.402528e-02 5.731877e-02 -3.288987e-02 
-2.872078e-02 -1.228648e-01 -8.762689e-02 1.332528e-02 -1.347356e+01 -1.988970e-01 3.753802e-02 -1.528390e-02 2.520818e-02 -7.716976e-03 1.430229e-02 -4.652841e-03 7.973418e-03 -3.194490e-03 4.450773e-03 -2.432555e-03 2.518989e-03 -2.253809e-03 1.299285e-03 -1.887288e-03 4.053344e-04 -1.667669e-03 7.851887e-04 -6.082110e-04 5.532761e-04 -3.712894e-04 5.091099e-04 -1.238771e-04 4.525602e-04 -2.852370e-04 1.364084e-04 -2.055874e-04 -7.385805e-05 3.337990e-05 -3.298945e-04 -4.443769e-04 -1.904410e-05 -1.912771e-04 -7.801001e-04 -6.921994e-05 1.848132e-04 1.073477e-03 5.144410e-04 7.203852e-04 1.175498e-04 9.265061e-04 1.858034e-05 5.123817e-04 -8.740539e-04 -5.124739e-04 -1.164704e-03 -5.465397e-04 -1.292855e-03 6.522361e-04 -1.447680e-03 2.077115e-03 -2.472954e-03 2.857930e-03 -5.780035e-03 3.940479e-03 -1.048288e-02 1.660205e-02 1.262586e-02 9.192465e-02 
-5.218479e-02 -5.229755e-02 -8.490455e-02 3.009443e-01 -2.039464e+01 -5.907977e-01 4.234163e-02 -9.536951e-03 3.290348e-02 -6.688854e-03 1.892143e-02 -4.759772e-03 1.059588e-02 -3.653086e-03 5.581244e-03 -3.237323e-03 2.942744e-03 -3.505285e-03 1.107785e-03 -2.924385e-03 7.537315e-05 -2.671541e-03 4.938375e-04 -1.460295e-03 3.104965e-04 -8.123632e-04 8.807606e-04 -4.638415e-04 5.197641e-04 -1.084109e-04 5.510840e-04 -3.509356e-04 1.040361e-04 5.171191e-05 -2.321138e-04 -4.941803e-04 2.150779e-05 1.323069e-05 -5.182074e-04 2.465221e-04 5.195769e-04 1.013493e-03 4.554784e-04 1.256190e-03 4.292599e-04 8.755991e-04 -3.227837e-04 5.936718e-04 -1.063780e-03 -5.891578e-04 -1.053085e-03 -1.636063e-04 -9.446635e-04 1.543508e-03 -4.822762e-04 3.602551e-03 -4.116714e-04 5.101191e-03 -2.404555e-03 5.925351e-03 -7.399594e-03 1.124971e-02 -3.656211e-03 4.910596e-02 
-1.933342e-02 -1.901572e-02 -3.793962e-02 1.729759e-01 -1.853202e+01 -4.336862e-01 1.219815e-02 -1.076866e-02 1.916966e-02 -9.405656e-03 1.280962e-02 -6.846336e-03 7.768729e-03 -4.668872e-03 4.591733e-03 -3.282642e-03 3.681018e-03 -3.863038e-03 2.241193e-03 -2.301023e-03 1.032868e-03 -2.691259e-03 1.407428e-03 -1.290253e-03 3.197258e-04 -7.816301e-04 1.360128e-03 -7.970487e-04 2.161084e-04 2.247384e-04 7.943770e-04 -7.970293e-04 1.130666e-04 3.837833e-04 -3.549442e-04 -8.445432e-04 2.335619e-04 2.782282e-04 -8.326817e-04 1.508743e-04 6.047342e-04 7.593873e-04 -2.682692e-04 1.610151e-03 4.732525e-04 7.706267e-04 -4.294280e-04 1.542951e-03 -6.771491e-04 -3.569158e-04 -2.531216e-04 2.491472e-04 -1.072527e-03 1.534972e-03 -2.182880e-03 2.848525e-03 -3.664695e-03 4.386735e-03 -5.532643e-03 7.634137e-03 -5.930376e-03 1.634935e-02 -3.204592e-04 2.605964e-02 
-2.620288e-02 -4.662807e-03 -3.786230e-02 2.083553e-01 -2.296632e+01 -5.260949e-01 1.119678e-02 -8.825601e-03 2.221473e-02 -7.687481e-03 1.515098e-02 -5.847823e-03 8.958982e-03 -4.068853e-03 4.604647e-03 -3.171726e-03 4.433949e-03 -5.140470e-03 2.167670e-03 -2.516653e-03 3.118859e-04 -4.032343e-03 1.557083e-03 -1.670051e-03 -6.826775e-04 -1.189599e-03 2.152444e-03 -1.282818e-03 -4.176908e-04 6.843642e-04 1.369987e-03 -1.444481e-03 3.773075e-05 9.391322e-04 -8.030793e-04 -1.510504e-03 6.561519e-04 6.907872e-04 -1.630222e-03 1.033584e-04 1.389976e-03 7.211099e-04 -9.856301e-04 2.341550e-03 9.871455e-04 4.496496e-04 -9.644136e-04 2.345534e-03 -1.044888e-03 -9.188881e-04 6.632144e-04 3.713585e-04 -2.797671e-04 2.357421e-03 -1.159077e-03 4.087710e-03 -2.127861e-03 5.599213e-03 -4.057559e-03 7.522361e-03 -7.139476e-03 1.168509e-02 -1.035904e-02 1.731473e-02 
-7.588839e-03 2.852596e-03 -1.055470e-02 1.080044e-01 -2.111533e+01 -4.028570e-01 -6.521965e-03 -9.031970e-03 9.594178e-03 -9.185627e-03 7.908094e-03 -7.267317e-03 4.712857e-03 -4.485177e-03 1.654704e-03 -1.956650e-03 5.297928e-03 -7.832105e-03 2.705171e-03 -6.266016e-04 -2.119848e-04 -5.788550e-03 3.282427e-03 -9.578003e-04 -2.330528e-03 -8.740320e-04 4.259594e-03 -2.443530e-03 -1.958415e-03 2.688929e-03 2.535971e-03 -3.650563e-03 -2.565891e-05 3.177753e-03 -1.754280e-03 -3.681713e-03 2.069462e-03 2.004970e-03 -3.643776e-03 -4.215248e-04 3.214696e-03 1.785469e-04 -2.819745e-03 4.138059e-03 2.249076e-03 -1.105214e-03 -1.635944e-03 5.275842e-03 -1.689246e-03 -2.846686e-03 1.991450e-03 1.315652e-04 -3.372551e-04 2.425102e-03 -2.037404e-03 4.005335e-03 -3.220531e-03 5.796777e-03 -4.007039e-03 8.693564e-03 -3.781897e-03 1.294689e-02 -2.661562e-03 1.415939e-02 
-1.083657e-02 6.858206e-03 -1.173867e-02 1.191432e-01 -2.402873e+01 -4.491369e-01 -7.911608e-03 -9.731136e-03 1.099640e-02 -8.527712e-03 9.295618e-03 -6.332134e-03 4.913175e-03 -2.773477e-03 -1.394228e-03 1.642958e-05 8.461383e-03 -1.200280e-02 2.849342e-03 2.586649e-03 -2.672537e-03 -9.690170e-03 6.179901e-03 4.181449e-04 -6.864151e-03 -1.428465e-03 9.013932e-03 -3.998845e-03 -5.712170e-03 5.388750e-03 5.392031e-03 -7.152893e-03 -3.644678e-04 6.883463e-03 -4.058341e-03 -7.182937e-03 5.225563e-03 4.306935e-03 -8.288331e-03 -1.233889e-03 7.721924e-03 -5.929365e-04 -6.654378e-03 6.876436e-03 5.421973e-03 -3.956347e-03 -3.205819e-03 9.592328e-03 -3.518022e-03 -5.835610e-03 5.528039e-03 -1.561579e-04 5.919662e-04 3.276961e-03 -1.572339e-03 4.952807e-03 -2.561495e-03 6.336466e-03 -3.722118e-03 8.088895e-03 -5.328410e-03 1.042822e-02 -7.256231e-03 1.168094e-02 
1.101392e-03 8.593142e-03 3.781605e-03 5.030977e-02 -2.217312e+01 -3.564732e-01 -1.796455e-02 -9.801657e-03 1.614452e-03 -9.595284e-03 3.068083e-03 -7.616517e-03 5.647872e-04 -2.661485e-03 -9.815321e-03 8.684614e-03 1.365023e-02 -2.561207e-02 3.604297e-03 1.487300e-02 -8.759553e-03 -1.916163e-02 1.442457e-02 5.009156e-03 -1.744327e-02 -2.109952e-04 2.056876e-02 -1.061442e-02 -1.461802e-02 1.613976e-02 1.170756e-02 -2.001127e-02 -5.891827e-04 2.044114e-02 -9.871671e-03 -1.879672e-02 1.370510e-02 1.244698e-02 -1.974936e-02 -3.926562e-03 1.883741e-02 -3.774087e-03 -1.607720e-02 1.533333e-02 1.328514e-02 -1.521801e-02 -6.007337e-03 2.420411e-02 -8.018935e-03 -1.638569e-02 1.146036e-02 2.841447e-04 1.631526e-04 4.072353e-03 -2.137739e-03 5.387767e-03 -2.552940e-03 6.780667e-03 -2.382605e-03 8.797293e-03 -1.545140e-03 1.103185e-02 -1.181024e-04 1.153588e-02 
-8.432186e-04 1.020923e-02 2.568697e-03 4.804507e-02 -2.403546e+01 -3.757954e-01 -1.845453e-02 -1.137265e-02 2.926740e-03 -1.031558e-02 5.316163e-03 -8.317139e-03 2.470056e-03 8.423647e-04 -2.637704e-02 6.291597e-02 5.412485e-02 -2.073678e-02 2.681367e-03 4.463956e-02 8.107781e-03 -1.650469e-03 3.254611e-02 1.621739e-02 -2.657544e-02 4.404400e-02 4.851161e-02 -1.899690e-02 -3.271020e-02 6.880899e-02 3.904458e-02 -3.759014e-02 -2.123713e-03 5.467735e-02 8.634619e-03 -3.207611e-02 3.124540e-02 2.708910e-02 -1.915784e-02 7.758413e-03 4.283291e-02 -9.634203e-03 -2.968951e-02 5.276316e-02 3.423736e-02 -3.721445e-02 -1.112824e-02 5.899583e-02 4.821166e-05 -4.952068e-02 2.642201e-02 1.031454e-03 -1.270017e-03 6.050040e-03 -3.339705e-03 6.433695e-03 -2.805361e-03 7.062613e-03 -2.621615e-03 8.263797e-03 -2.671590e-03 9.740557e-03 -2.380617e-03 1.065770e-02 
6.918546e-03 1.039297e-02 1.192237e-02 -9.183407e-04 -2.216016e+01 -3.025107e-01 -2.382299e-02 -1.145536e-02 -3.168117e-03 -1.168819e-02 1.855372e-03 -1.154129e-02 4.665215e-03 -6.119349e-03 -5.270604e-02 2.291116e+00 5.194013e+00 2.949309e+00 3.099519e-02 4.288693e-01 4.159273e+00 4.868867e+00 1.164352e+00 8.621338e-03 1.827134e+00 5.344186e+00 3.672454e+00 2.630367e-01 1.823403e-01 3.864028e+00 5.407479e+00 1.825226e+00 1.075659e-02 1.283575e+00 5.278764e+00 4.412931e+00 4.857210e-01 -1.594015e-02 3.333277e+00 5.651276e+00 2.383129e+00 5.435701e-02 8.530151e-01 4.774606e+00 4.713190e+00 8.647882e-01 -1.308829e-02 2.518636e+00 5.697886e+00 3.215770e+00 8.590556e-02 1.520765e-02 -9.221237e-03 8.664433e-03 -4.551112e-03 7.246700e-03 -2.354360e-03 7.500256e-03 -8.930779e-04 8.655877e-03 7.830498e-04 1.002809e-02 3.196049e-03 1.072504e-02 
5.518076e-03 1.113200e-02 1.093230e-02 -1.438247e-02 -2.324046e+01 -3.006519e-01 -2.347442e-02 -1.275225e-02 -1.882622e-03 -1.364871e-02 6.740667e-03 -2.033211e-02 2.823024e-02 -4.698203e-02 9.800581e-03 6.353965e+00 1.461523e+01 8.293275e+00 1.330464e-01 1.151850e+00 1.197319e+01 1.391433e+01 3.240061e+00 -4.566351e-02 5.442400e+00 1.535245e+01 1.048037e+01 7.021931e-01 6.948186e-01 1.113602e+01 1.562807e+01 5.273251e+00 4.742833e-02 3.726042e+00 1.542288e+01 1.289064e+01 1.274303e+00 -4.647409e-02 9.876301e+00 1.653703e+01 6.804144e+00 1.556122e-01 2.649703e+00 1.398741e+01 1.375731e+01 2.550795e+00 -1.631851e-02 7.439751e+00 1.689291e+01 9.607791e+00 9.774420e-02 4.885001e-02 -3.330655e-02 1.472012e-02 -8.570566e-03 8.240470e-03 -2.811821e-03 7.414570e-03 -1.048909e-03 8.113230e-03 1.119324e-04 9.243324e-03 1.921037e-03 1.028887e-02 
1.050247e-02 1.072757e-02 1.674888e-02 -4.996875e-02 -2.134305e+01 -2.401965e-01 -2.618298e-02 -1.229465e-02 -6.178293e-03 -1.433425e-02 3.419659e-03 -2.398340e-02 2.385095e-02 -6.413487e-02 6.859245e-02 2.014047e+00 4.704493e+00 2.622670e+00 1.208040e-01 3.322478e-01 4.020561e+00 4.619540e+00 1.104570e+00 -7.080465e-02 1.901081e+00 5.221385e+00 3.561034e+00 1.862870e-01 2.890878e-01 3.851557e+00 5.386787e+00 1.780334e+00 3.377601e-02 1.315949e+00 5.394438e+00 4.474478e+00 4.253526e-01 -2.578865e-03 3.501539e+00 5.817516e+00 2.364391e+00 5.806200e-02 9.570386e-01 4.992491e+00 4.872200e+00 9.055716e-01 -2.914167e-02 2.728155e+00 6.108084e+00 3.471192e+00 -3.291622e-03 4.506741e-02 -1.838482e-02 1.432185e-02 -5.350862e-03 8.183692e-03 -1.206791e-03 7.393087e-03 8.993081e-04 8.102457e-03 3.027540e-03 9.182058e-03 5.996410e-03 1.008956e-02 
9.297705e-03 1.091831e-02 1.586792e-02 -6.909730e-02 -2.182173e+01 -2.246870e-01 -2.585449e-02 -1.135607e-02 -8.189349e-03 -9.626635e-03 -5.573600e-03 -5.983201e-03 -1.384928e-02 1.087689e-02 1.655512e-02 -6.236447e+00 -1.427516e+01 -8.091630e+00 -5.973341e-02 -1.197300e+00 -1.167277e+01 -1.352285e+01 -3.082112e+00 -2.161630e-03 -5.315605e+00 -1.491754e+01 -1.012633e+01 -6.742679e-01 -6.946844e-01 -1.083888e+01 -1.513188e+01 -5.071096e+00 -2.951941e-02 -3.666341e+00 -1.495990e+01 -1.244437e+01 -1.180776e+00 1.316537e-02 -9.605278e+00 -1.598756e+01 -6.526980e+00 -1.261265e-01 -2.619526e+00 -1.354249e+01 -1.325997e+01 -2.401625e+00 -2.374644e-02 -7.215761e+00 -1.630285e+01 -9.230570e+00 -8.343546e-02 -3.324983e-02 2.322398e-02 -1.480242e-03 5.152688e-03 4.142633e-03 1.657877e-03 5.997521e-03 1.581762e-03 7.280066e-03 2.765352e-03 8.506293e-03 5.143765e-03 9.697674e-03 
1.240036e-02 1.015860e-02 1.937385e-02 -8.938399e-02 -1.991280e+01 -1.792005e-01 -2.735180e-02 -9.606439e-03 -1.237842e-02 -6.384505e-03 -1.168181e-02 2.819112e-03 -2.590207e-02 3.653089e-02 -2.553604e-03 -4.257155e+00 -9.928501e+00 -5.641526e+00 -1.536518e-01 -7.330747e-01 -8.161846e+00 -9.524559e+00 -2.294575e+00 5.330000e-02 -3.691507e+00 -1.054013e+01 -7.268016e+00 -5.019281e-01 -4.421189e-01 -7.652560e+00 -1.081193e+01 -3.675181e+00 -4.463319e-02 -2.534971e+00 -1.065035e+01 -8.945521e+00 -9.408784e-01 5.644027e-02 -6.795340e+00 -1.148008e+01 -4.785039e+00 -1.251986e-01 -1.778794e+00 -9.714918e+00 -9.606439e+00 -1.822233e+00 4.720772e-02 -5.165397e+00 -1.178112e+01 -6.748524e+00 -9.923264e-02 -4.133776e-02 2.497531e-02 -6.205084e-03 6.806442e-03 2.188522e-03 3.237452e-03 5.134846e-03 3.380795e-03 6.801255e-03 5.054224e-03 8.110895e-03 7.973057e-03 9.209726e-03 
1.122061e-02 1.001687e-02 1.834491e-02 -1.011462e-01 -1.992861e+01 -1.655136e-01 -2.613105e-02 -9.287323e-03 -1.204461e-02 -6.183710e-03 -1.009050e-02 -8.989380e-04 -1.179372e-02 9.614617e-03 -3.572386e-03 -2.151294e-01 -4.142644e-01 -1.628668e-01 -4.990107e-02 -5.030812e-02 -3.519360e-01 -3.697010e-01 -1.424945e-01 1.006127e-02 -1.498723e-01 -4.978930e-01 -3.541936e-01 1.452516e-02 -2.772437e-03 -4.183619e-01 -5.146186e-01 -1.141371e-01 -8.656649e-03 -1.713511e-01 -5.086433e-01 -3.644743e-01 -7.416575e-02 -2.377819e-02 -3.136876e-01 -5.444973e-01 -2.578792e-01 1.110054e-04 -5.439723e-02 -5.348052e-01 -4.862143e-01 -5.643707e-02 2.986550e-02 -3.327849e-01 -5.922871e-01 -2.799896e-01 -1.849328e-02 -9.045161e-03 6.690428e-03 -2.229113e-03 4.770926e-03 2.105860e-03 3.344529e-03 4.549010e-03 3.401534e-03 6.189460e-03 4.668584e-03 7.541619e-03 7.169706e-03 8.789665e-03 
1.298985e-02 9.135617e-03 2.018726e-02 -1.085684e-01 -1.801945e+01 -1.330601e-01 -2.629720e-02 -8.108472e-03 -1.406320e-02 -5.343483e-03 -1.176793e-02 -1.943618e-03 -1.048398e-02 -1.386876e-03 3.976248e-03 -3.746453e-02 7.925801e-03 2.697315e-02 -2.260014e-02 -2.349872e-02 2.570114e-02 1.271827e-02 -3.052089e-02 -3.048637e-03 2.750670e-02 -1.466160e-02 -2.918550e-02 2.133313e-02 1.907878e-02 -3.386305e-02 -1.362692e-02 3.292743e-02 -3.123392e-03 -3.409531e-02 1.568147e-02 2.894792e-02 -2.466358e-02 -1.954747e-02 2.996625e-02 6.296512e-03 -3.154746e-02 6.421270e-03 2.828652e-02 -2.258659e-02 -2.623615e-02 2.611175e-02 1.618064e-02 -3.731816e-02 -2.093837e-03 3.710195e-02 -1.342262e-02 -2.886284e-04 4.296185e-03 -9.502777e-04 4.700869e-03 1.852083e-03 4.135282e-03 4.068114e-03 4.623743e-03 5.705632e-03 6.224066e-03 7.027953e-03 8.957275e-03 8.158454e-03 
1.174562e-02 8.807871e-03 1.883410e-02 -1.098428e-01 -1.766766e+01 -1.256503e-01 -2.446213e-02 -8.130252e-03 -1.265034e-02 -5.868482e-03 -9.664263e-03 -3.933493e-03 -7.055631e-03 -4.497937e-03 -6.946401e-04 -1.673190e-02 5.885545e-03 2.956077e-03 -9.263988e-03 -6.337522e-03 9.417381e-03 -4.840299e-04 -9.987757e-03 -4.335682e-04 7.966971e-03 -6.455406e-03 -8.676653e-03 5.496018e-03 4.756802e-03 -9.806781e-03 -3.660456e-03 8.150701e-03 -1.110025e-03 -8.721051e-03 6.093117e-03 7.602628e-03 -6.825865e-03 -4.833229e-03 9.907811e-03 2.776237e-03 -9.145366e-03 1.499386e-03 9.026549e-03 -4.053200e-03 -8.449456e-03 6.523861e-03 6.392955e-03 -7.605407e-03 -2.127764e-03 1.427804e-02 -4.531194e-03 3.027275e-03 1.668317e-03 1.343485e-03 3.107159e-03 2.500512e-03 3.441187e-03 3.988452e-03 4.124900e-03 5.341353e-03 5.584883e-03 6.567255e-03 8.043412e-03 7.719849e-03 
1.253338e-02 7.942313e-03 1.943431e-02 -1.086122e-01 -1.576716e+01 -1.021773e-01 -2.363047e-02 -7.369957e-03 -1.323005e-02 -5.613344e-03 -1.005271e-02 -4.532624e-03 -6.768321e-03 -5.776494e-03 -9.397749e-04 -1.205555e-02 4.362195e-04 1.214829e-03 -4.877249e-03 -6.108160e-03 3.961777e-03 4.488094e-04 -5.936101e-03 -1.965612e-03 4.427790e-03 -4.021082e-03 -5.536726e-03 2.548752e-03 3.043150e-03 -6.683803e-03 -2.459029e-03 5.037186e-03 -4.007535e-04 -5.737097e-03 3.266703e-03 5.329219e-03 -3.893761e-03 -2.936344e-03 5.783406e-03 1.809786e-03 -5.235046e-03 1.505794e-03 5.225706e-03 -3.320270e-03 -4.249946e-03 4.970439e-03 3.280416e-03 -4.622346e-03 -3.010715e-04 1.016991e-02 -3.148609e-03 3.748948e-03 1.349979e-03 1.950695e-03 3.044143e-03 2.571532e-03 3.798180e-03 3.755263e-03 4.794591e-03 4.947912e-03 6.457138e-03 6.050452e-03 8.981291e-03 7.058044e-03 
1.118923e-02 7.498458e-03 1.774138e-02 -1.024981e-01 -1.511231e+01 -9.865481e-02 -2.150448e-02 -7.346575e-03 -1.154196e-02 -5.832860e-03 -8.438161e-03 -4.877807e-03 -5.741126e-03 -4.992723e-03 -2.593137e-03 -6.623388e-03 9.018246e-06 -3.208725e-03 -2.170671e-03 -3.025904e-03 5.329116e-04 -2.259091e-03 -1.840729e-03 -1.483722e-03 3.953775e-04 -2.318236e-03 -1.299468e-03 -3.363377e-04 2.015569e-04 -2.030999e-03 -5.054143e-04 4.209301e-04 -1.665865e-04 -1.182283e-03 7.791347e-04 8.932620e-04 -6.086679e-04 -3.527980e-04 1.275385e-03 6.982334e-04 -8.640403e-04 5.623827e-04 1.254553e-03 1.856230e-04 -9.205913e-04 1.593700e-03 9.736860e-04 7.730288e-04 -7.284953e-04 4.326895e-03 -4.549655e-04 2.963431e-03 1.171422e-03 2.484369e-03 2.210220e-03 2.927814e-03 3.019524e-03 3.750743e-03 4.059457e-03 4.684718e-03 5.624488e-03 5.642190e-03 7.933335e-03 6.596496e-03 
1.124583e-02 6.679079e-03 1.742514e-02 -9.655396e-02 -1.322924e+01 -8.024982e-02 -2.001070e-02 -6.709613e-03 -1.132056e-02 -5.526159e-03 -8.386549e-03 -4.764658e-03 -5.946701e-03 -4.523256e-03 -3.617760e-03 -4.778379e-03 -9.860199e-04 -3.874358e-03 -1.730527e-03 -2.384874e-03 -7.138475e-04 -2.575279e-03 -9.250485e-04 -1.431751e-03 -6.935387e-04 -1.717598e-03 -2.795980e-04 -9.469411e-04 -4.827920e-04 -9.104404e-04 -1.447351e-05 -5.368554e-04 -1.269792e-04 -1.897953e-04 8.589659e-05 -6.954021e-05 1.364071e-04 1.943175e-04 1.029391e-04 3.921515e-04 2.105756e-04 4.083660e-04 2.285271e-04 8.579109e-04 5.293293e-05 9.302846e-04 3.649985e-04 1.792483e-03 -4.345682e-04 2.628978e-03 5.352091e-04 2.548794e-03 1.375842e-03 2.537473e-03 2.215580e-03 2.921161e-03 3.123091e-03 3.566053e-03 4.303040e-03 4.330229e-03 5.944481e-03 5.135360e-03 8.209132e-03 5.939202e-03 
9.803927e-03 6.139611e-03 1.549303e-02 -8.778104e-02 -1.231791e+01 -7.636357e-02 -1.766421e-02 -6.538568e-03 -9.515447e-03 -5.533555e-03 -6.831445e-03 -4.697336e-03 -5.196923e-03 -3.356962e-03 -5.112243e-03 -9.641557e-04 -5.450055e-04 -6.861580e-03 -2.779525e-05 -5.475071e-05 -2.877225e-03 -4.622682e-03 2.004464e-03 -8.242930e-04 -3.602707e-03 -7.602641e-04 2.997885e-03 -2.556630e-03 -2.599570e-03 2.032052e-03 1.562433e-03 -3.371064e-03 -2.150333e-05 2.670939e-03 -1.722783e-03 -2.912648e-03 2.461042e-03 1.771232e-03 -3.240935e-03 -2.763525e-04 3.376718e-03 -2.519718e-04 -2.623989e-03 3.263433e-03 2.320757e-03 -1.267380e-03 -1.156461e-03 5.219711e-03 -1.147308e-03 -1.292533e-03 2.830694e-03 1.571901e-03 1.387157e-03 2.696874e-03 1.468548e-03 3.098596e-03 2.292990e-03 3.507965e-03 3.463101e-03 4.056554e-03 5.002679e-03 4.713458e-03 7.060267e-03 5.431904e-03 
9.320261e-03 5.340890e-03 1.452826e-02 -8.022853e-02 -1.046271e+01 -5.995427e-02 -1.568568e-02 -5.914464e-03 -8.742189e-03 -5.204767e-03 -6.302096e-03 -4.474940e-03 -5.171480e-03 -2.575090e-03 -7.065415e-03 1.919183e-03 4.647813e-04 -9.745358e-03 1.633740e-04 3.042021e-03 -4.565752e-03 -6.777952e-03 3.968466e-03 3.788091e-04 -6.173551e-03 -3.254952e-04 5.726606e-03 -3.954069e-03 -4.651183e-03 4.630480e-03 3.016453e-03 -6.224113e-03 -1.070489e-04 5.730047e-03 -3.083310e-03 -5.590836e-03 4.317721e-03 3.522079e-03 -5.876582e-03 -8.704438e-04 5.902559e-03 -1.094724e-03 -4.754781e-03 5.348044e-03 4.117886e-03 -3.950935e-03 -1.709616e-03 8.451152e-03 -2.144409e-03 -4.293518e-03 4.690825e-03 1.152937e-03 1.443653e-03 2.761186e-03 1.283168e-03 3.081503e-03 2.157626e-03 3.310550e-03 3.385526e-03 3.686251e-03 4.911011e-03 4.189255e-03 6.844174e-03 4.765849e-03 
7.804996e-03 4.705097e-03 1.250191e-02 -7.317125e-02 -9.331676e+00 -5.168138e-02 -1.310139e-02 -5.560974e-03 -6.832145e-03 -5.255034e-03 -4.227311e-03 -5.145202e-03 -3.054396e-03 -2.834435e-03 -1.199512e-02 1.698330e-02 4.575062e-03 -2.080854e-02 6.833353e-03 1.486053e-02 -1.192514e-02 -1.117039e-02 1.724802e-02 3.463836e-03 -1.827967e-02 7.344112e-03 2.070289e-02 -1.114942e-02 -1.435395e-02 1.963314e-02 1.170002e-02 -1.788843e-02 8.315663e-04 1.963326e-02 -6.847520e-03 -1.503864e-02 1.582658e-02 1.112310e-02 -1.742479e-02 -5.650151e-04 2.113141e-02 -4.047242e-03 -1.654722e-02 1.703781e-02 1.630839e-02 -1.472951e-02 -6.753688e-03 2.452901e-02 -1.988394e-03 -1.676557e-02 1.189003e-02 2.107182e-03 -2.306652e-05 3.696834e-03 -8.434805e-05 3.304562e-03 1.210189e-03 3.149605e-03 2.534798e-03 3.321119e-03 3.950330e-03 3.696735e-03 5.650477e-03 4.186401e-03 
6.929815e-03 3.887279e-03 1.110248e-02 -6.620573e-02 -7.517359e+00 -3.512756e-02 -1.077208e-02 -4.864798e-03 -5.673293e-03 -4.996358e-03 -2.991174e-03 -5.612089e-03 -1.042564e-03 -4.236954e-03 -1.773668e-02 3.413762e-01 7.840081e-01 4.447343e-01 1.495160e-02 6.909273e-02 6.144900e-01 7.381477e-01 2.011692e-01 3.534871e-03 2.552527e-01 8.209380e-01 5.871223e-01 3.464313e-02 1.314977e-02 6.020573e-01 8.425668e-01 2.736103e-01 3.018147e-03 2.067018e-01 8.050373e-01 6.733384e-01 9.250447e-02 4.901962e-03 4.926831e-01 8.738822e-01 3.948108e-01 5.381423e-03 1.127611e-01 7.489183e-01 7.493983e-01 1.283994e-01 -7.737201e-03 3.996373e-01 8.850608e-01 4.986341e-01 2.456681e-02 5.009936e-03 -1.939372e-03 4.412620e-03 -7.410600e-04 3.337226e-03 8.911056e-04 2.879393e-03 2.259361e-03 2.876267e-03 3.585458e-03 3.117266e-03 5.089546e-03 3.484025e-03 
5.377684e-03 3.155151e-03 9.100904e-03 -6.362392e-02 -6.199129e+00 -1.995424e-02 -8.078742e-03 -4.091089e-03 -4.042703e-03 -4.764623e-03 -3.668464e-04 -8.128347e-03 9.498034e-03 -2.007590e-02 -1.994297e-02 2.446531e+00 6.013896e+00 3.599549e+00 8.758448e-02 3.920301e-01 4.835767e+00 5.822394e+00 1.444701e+00 -1.679977e-02 2.123239e+00 6.293550e+00 4.444661e+00 3.545542e-01 2.254249e-01 4.484915e+00 6.499452e+00 2.294502e+00 2.385368e-02 1.436934e+00 6.307053e+00 5.422118e+00 6.009564e-01 -5.437838e-02 3.951303e+00 6.849101e+00 2.939971e+00 8.001845e-02 1.004988e+00 5.692360e+00 5.767653e+00 1.144460e+00 -1.779431e-02 2.921715e+00 6.962352e+00 4.120104e+00 7.878709e-02 2.361276e-02 -1.439520e-02 6.613753e-03 -3.030728e-03 3.195555e-03 1.870218e-04 2.393148e-03 1.616496e-03 2.324317e-03 2.719587e-03 2.513506e-03 3.915376e-03 2.818453e-03 
4.225558e-03 2.297077e-03 7.415469e-03 -5.814266e-02 -4.442266e+00 -2.457829e-03 -5.621775e-03 -3.083719e-03 -3.004613e-03 -3.973875e-03 4.457875e-04 -8.200660e-03 1.090755e-02 -2.595881e-02 -4.883754e-03 2.422450e+00 5.957104e+00 3.554927e+00 8.840827e-02 3.907997e-01 4.818051e+00 5.776798e+00 1.419900e+00 -2.308129e-02 2.137146e+00 6.260994e+00 4.404146e+00 3.367966e-01 2.461491e-01 4.473185e+00 6.462820e+00 2.267062e+00 2.359750e-02 1.446116e+00 6.293361e+00 5.391134e+00 5.763463e-01 -4.478248e-02 3.959274e+00 6.823585e+00 2.904481e+00 7.605909e-02 1.022933e+00 5.683578e+00 5.736636e+00 1.129516e+00 -1.516495e-02 2.932927e+00 6.957533e+00 4.110909e+00 6.198505e-02 2.831877e-02 -1.384341e-02 6.793240e-03 -2.909619e-03 2.752333e-03 1.065754e-04 1.857923e-03 1.327332e-03 1.738051e-03 2.205225e-03 1.855757e-03 3.124717e-03 2.068280e-03 
2.683946e-03 1.489753e-03 5.468318e-03 -5.893980e-02 -2.970257e+00 1.818594e-02 -3.117121e-03 -1.458167e-03 -2.915139e-03 -8.228815e-04 -3.399649e-03 1.417910e-03 -8.296462e-03 1.094797e-02 7.051006e-03 -1.850615e+00 -4.510803e+00 -2.686188e+00 -4.908766e-02 -3.142944e-01 -3.638839e+00 -4.350559e+00 -1.053542e+00 6.358883e-03 -1.614293e+00 -4.714632e+00 -3.299648e+00 -2.520039e-01 -1.879043e-01 -3.372397e+00 -4.849167e+00 -1.693651e+00 -1.384381e-02 -1.097474e+00 -4.728717e+00 -4.035540e+00 -4.225575e-01 2.818967e-02 -2.981043e+00 -5.114823e+00 -2.166752e+00 -5.060164e-02 -7.788117e-01 -4.266170e+00 -4.290565e+00 -8.312188e-01 1.731708e-03 -2.202500e+00 -5.205245e+00 -3.058806e+00 -4.384558e-02 -1.559360e-02 9.564316e-03 -2.160700e-03 2.622745e-03 1.705581e-04 1.231399e-03 7.506007e-04 1.172615e-03 9.841774e-04 1.497579e-03 1.158583e-03 2.010299e-03 1.335521e-03 
1.341477e-03 6.188788e-04 3.574213e-03 -5.388075e-02 -1.292084e+00 3.526457e-02 -6.371762e-04 -1.746060e-04 -2.168385e-03 9.678054e-04 -4.168233e-03 5.326603e-03 -1.397433e-02 2.167485e-02 1.360996e-02 -2.738522e+00 -6.739573e+00 -4.030933e+00 -1.006230e-01 -4.388849e-01 -5.432210e+00 -6.530631e+00 -1.616146e+00 2.123566e-02 -2.394144e+00 -7.065243e+00 -4.984299e+00 -3.941127e-01 -2.617937e-01 -5.038760e+00 -7.298300e+00 -2.573459e+00 -2.700297e-02 -1.617664e+00 -7.091170e+00 -6.090862e+00 -6.670394e-01 5.923476e-02 -4.449291e+00 -7.697904e+00 -3.294545e+00 -8.900869e-02 -1.137539e+00 -6.401172e+00 -6.478600e+00 -1.284252e+00 1.938685e-02 -3.289926e+00 -7.834637e+00 -4.636502e+00 -8.156726e-02 -2.664386e-02 1.609211e-02 -5.355960e-03 4.072661e-03 -1.111628e-03 1.407778e-03 -2.916912e-05 8.591057e-04 3.094735e-04 8.621449e-04 4.622268e-04 1.052836e-03 5.667390e-04 
-1.271579e-04 -2.168232e-04 1.626393e-03 -5.179800e-02 2.973245e-01 5.422681e-02 2.102725e-03 8.359433e-04 -7.630917e-04 1.471556e-03 -1.940887e-03 3.175916e-03 -4.357145e-03 6.289126e-03 1.242017e-02 -6.301159e-01 -1.513650e+00 -8.838735e-01 -3.385659e-02 -1.088915e-01 -1.209705e+00 -1.454679e+00 -3.830014e-01 3.018193e-03 -5.200578e-01 -1.595787e+00 -1.138731e+00 -8.010197e-02 -4.378331e-02 -1.152269e+00 -1.650546e+00 -5.639750e-01 -7.653049e-03 -3.790001e-01 -1.590350e+00 -1.354248e+00 -1.679415e-01 5.208582e-03 -9.849604e-01 -1.730218e+00 -7.620035e-01 -1.798146e-02 -2.368788e-01 -1.457202e+00 -1.471203e+00 -2.784845e-01 1.323344e-02 -7.614621e-01 -1.761359e+00 -1.024821e+00 -3.176188e-02 -7.750112e-03 4.766942e-03 -3.086423e-03 2.194965e-03 -1.317562e-03 9.164988e-04 -6.009588e-04 3.643360e-04 -3.221052e-04 1.167397e-04 -2.160297e-04 -1.873667e-05 -1.797361e-04 
-1.592369e-03 -1.045071e-03 -4.346580e-04 -4.540382e-02 1.872180e+00 6.865801e-02 4.762991e-03 1.723934e-03 7.248285e-04 2.026005e-03 -3.059772e-04 2.618842e-03 -4.760288e-04 1.084388e-03 9.616379e-03 -2.378288e-02 -6.057767e-03 2.086753e-02 -1.004280e-02 -1.756517e-02 1.009416e-02 9.078636e-03 -1.980252e-02 -3.500255e-03 1.705604e-02 -1.301725e-02 -2.300467e-02 1.327788e-02 1.392541e-02 -2.628724e-02 -1.456874e-02 2.037956e-02 -1.227792e-03 -2.386914e-02 3.591200e-03 1.621686e-02 -1.642969e-02 -1.288924e-02 1.549899e-02 -1.510627e-03 -2.248509e-02 4.744869e-03 1.696478e-02 -2.206614e-02 -1.914908e-02 1.732349e-02 8.014680e-03 -2.903313e-02 -2.214647e-03 2.093730e-02 -1.177701e-02 -1.136779e-03 8.248091e-04 -2.399600e-03 1.164515e-03 -1.595274e-03 3.756205e-04 -1.094176e-03 -2.290579e-04 -9.021788e-04 -6.850076e-04 -8.709811e-04 -1.112608e-03 -9.173762e-04 