# vtk DataFile Version 2.0
Comment goes here
ASCII

DATASET STRUCTURED_POINTS
FIELD FieldData 1
TIME 1 1 double
0.05100000
DIMENSIONS    64   64   1

ORIGIN    0.000   0.000   0.000
SPACING   0.03125 0.03125   1.000

POINT_DATA   4096
SCALARS Omega double
LOOKUP_TABLE default

-2.060067e-01 1.388250e-01 -2.951824e-01 -3.638852e-03 -3.616168e-01 4.133198e-02 -2.554592e-01 2.730973e-02 -2.425758e-01 3.437432e-02 -1.651655e-01 2.263191e-02 -5.607961e-02 1.287474e-02 7.811514e-02 8.706624e-03 1.912686e-01 5.159710e-02 2.725085e-01 1.035666e-01 3.462517e-01 2.548530e-01 2.807996e-01 2.667864e-01 2.772120e-01 2.391863e-01 3.265261e-01 2.954486e-01 3.370786e-01 2.740390e-01 3.541520e-01 2.473791e-01 3.304624e-01 2.627040e-01 3.183807e-01 2.264242e-01 3.337949e-01 2.260736e-01 3.283769e-01 2.478101e-01 3.165432e-01 2.619178e-01 2.676927e-01 2.544522e-01 2.199082e-01 2.252757e-01 1.866427e-01 1.551416e-01 1.476268e-01 7.268493e-02 1.251269e-01 -7.947244e-03 6.111738e-02 -4.140493e-02 -1.822757e-02 -6.791333e-02 -5.911028e-02 -1.013465e-01 -7.905321e-02 -1.314929e-01 -8.803733e-02 -1.520666e-01 -4.415555e-02 -2.574853e-01 
7.009516e-01 -3.531861e+01 -8.528069e+00 -3.293881e+01 -8.044758e+00 -3.154120e+01 -1.158055e+01 -2.753624e+01 -1.898976e+01 -2.214945e+01 -2.623646e+01 -1.676492e+01 -3.231946e+01 -1.243986e+01 -3.701124e+01 -9.272356e+00 -4.018880e+01 -7.437507e+00 -4.223920e+01 -6.388657e+00 -4.353082e+01 -6.034550e+00 -4.420020e+01 -5.683401e+00 -4.534783e+01 -4.058229e+00 -4.827485e+01 -5.697984e-01 -5.295704e+01 4.583873e+00 -5.885317e+01 1.065342e+01 -6.532982e+01 1.695901e+01 -7.121196e+01 2.196095e+01 -7.548349e+01 2.511142e+01 -7.715513e+01 2.524347e+01 -7.556619e+01 2.210352e+01 -7.108238e+01 1.720436e+01 -6.574364e+01 1.208070e+01 -6.014010e+01 6.711457e+00 -5.431654e+01 1.405580e+00 -4.870137e+01 -3.365089e+00 -4.368900e+01 -7.458575e+00 -3.920244e+01 -1.093416e+01 -3.530275e+01 -1.374037e+01 -3.137040e+01 -1.736255e+01 -2.569298e+01 -2.284502e+01 -1.836195e+01 -3.232463e+01 
-6.801146e+01 7.604423e+00 -3.423645e+01 6.471922e+00 -1.055224e+01 6.861851e+00 -4.184999e+01 3.209708e+00 -5.282981e+01 5.313098e-01 -5.954998e+01 -1.827591e+00 -6.453190e+01 -3.528244e+00 -6.857763e+01 -4.799370e+00 -7.222253e+01 -5.504327e+00 -7.540955e+01 -5.996103e+00 -7.813823e+01 -6.241766e+00 -8.068440e+01 -6.080868e+00 -8.269558e+01 -6.598124e+00 -8.334703e+01 -8.235282e+00 -8.260590e+01 -1.059927e+01 -8.105403e+01 -1.348708e+01 -7.860538e+01 -1.671407e+01 -7.614129e+01 -1.920238e+01 -7.428678e+01 -2.090608e+01 -7.322784e+01 -2.111919e+01 -7.376610e+01 -1.944230e+01 -7.543314e+01 -1.705281e+01 -7.683001e+01 -1.484129e+01 -7.787764e+01 -1.244127e+01 -7.864225e+01 -1.005339e+01 -7.884171e+01 -7.941478e+00 -7.813632e+01 -6.201030e+00 -7.658268e+01 -4.740082e+00 -7.386979e+01 -3.881420e+00 -6.995302e+01 -2.523924e+00 -6.567920e+01 -1.710224e-01 -5.844930e+01 6.623234e+00 
-3.607815e+01 7.899448e+00 -1.833366e+01 1.032711e+01 -2.511808e+01 8.472538e+00 -1.783783e+01 9.352875e+00 -2.366327e+01 6.291792e+00 -2.660880e+01 3.330886e+00 -2.860540e+01 9.579915e-01 -3.014767e+01 -9.111667e-01 -3.162111e+01 -2.038128e+00 -3.293593e+01 -2.791522e+00 -3.400105e+01 -3.025993e+00 -3.508035e+01 -3.120180e+00 -3.584150e+01 -3.654106e+00 -3.545721e+01 -4.844550e+00 -3.401567e+01 -6.818451e+00 -3.199789e+01 -9.228610e+00 -2.946487e+01 -1.187170e+01 -2.705598e+01 -1.396574e+01 -2.528680e+01 -1.540252e+01 -2.445035e+01 -1.551637e+01 -2.498659e+01 -1.420511e+01 -2.669139e+01 -1.222691e+01 -2.836847e+01 -1.030073e+01 -2.984806e+01 -8.172854e+00 -3.123520e+01 -5.954224e+00 -3.226724e+01 -3.939957e+00 -3.273143e+01 -2.218309e+00 -3.276038e+01 -7.698345e-01 -3.214446e+01 2.499932e-01 -3.094634e+01 1.481608e+00 -2.980500e+01 3.567973e+00 -2.786240e+01 1.019673e+01 
-1.771408e+00 1.633566e+00 -2.203121e+00 -3.248037e+00 -4.428676e+01 -2.024462e-03 2.797731e+00 -5.445787e-02 3.534121e-01 -2.971765e-02 -4.907946e-01 -2.632806e-03 -8.503509e-01 4.261667e-03 -1.008120e+00 -1.641621e-02 -1.033741e+00 -7.149432e-02 -1.024327e+00 -1.256155e-01 -9.677259e-01 -1.651030e-01 -8.941009e-01 -2.114224e-01 -8.274095e-01 -2.316591e-01 -7.627721e-01 -2.589456e-01 -7.618905e-01 -2.531463e-01 -7.467509e-01 -2.366864e-01 -7.534721e-01 -1.829216e-01 -7.414608e-01 -1.404553e-01 -7.423739e-01 -1.415192e-01 -7.490295e-01 -1.756319e-01 -7.370453e-01 -2.359281e-01 -7.137237e-01 -2.642737e-01 -6.435277e-01 -2.930397e-01 -5.806108e-01 -3.193787e-01 -4.991635e-01 -3.552594e-01 -4.260743e-01 -3.726983e-01 -3.607269e-01 -3.282318e-01 -3.071937e-01 -2.128569e-01 -2.795722e-01 -2.827622e-02 -3.022250e-01 2.135322e-01 -3.912737e-01 5.367489e-01 -5.358383e-01 9.312569e-01 
-1.194333e+00 1.092606e+00 -1.840291e+00 -2.940582e+00 -5.590475e+01 -1.225382e+00 2.647226e+00 -6.193663e-01 1.472508e+00 -2.679649e-01 7.419927e-01 -1.589093e-01 3.746514e-01 -9.846382e-02 1.947594e-01 -6.228355e-02 1.343310e-01 -7.823998e-02 6.366016e-02 -7.609523e-02 2.746514e-02 -6.423408e-02 1.946396e-02 -5.823032e-02 -1.336586e-02 -2.842148e-02 7.468008e-03 -3.609624e-02 -1.789750e-02 -1.315289e-02 9.579308e-03 -2.110526e-02 -1.417367e-02 -1.761951e-02 -1.541101e-02 -1.586066e-02 -1.914479e-02 -1.050870e-02 -3.148794e-02 1.384821e-02 -4.318585e-03 2.015759e-02 -2.779557e-02 4.946962e-02 -2.678322e-03 3.865536e-02 -2.468732e-02 4.181424e-02 -1.245407e-02 3.382365e-02 -1.925922e-02 3.752283e-02 -4.950681e-02 7.271382e-02 -9.173380e-02 1.271074e-01 -1.557222e-01 1.968074e-01 -2.533912e-01 3.047590e-01 -4.322132e-01 4.617919e-01 -7.975161e-01 3.982376e-01 
-1.289123e+00 7.632256e-01 -1.357695e+00 -3.635199e+00 -6.575350e+01 -9.819314e-01 2.092585e+00 -6.399939e-01 1.465632e+00 -3.489315e-01 8.014531e-01 -2.134172e-01 4.188979e-01 -1.189885e-01 2.235383e-01 -6.749080e-02 2.087070e-01 -1.104238e-01 1.148575e-01 -1.008727e-01 8.125054e-02 -8.142401e-02 6.487066e-02 -6.830181e-02 1.498606e-02 -2.643583e-02 6.724392e-02 -4.732378e-02 -4.344716e-03 -7.555935e-03 4.461137e-02 -3.235817e-02 -1.491375e-02 -1.641117e-02 -1.161063e-02 -1.693752e-02 -2.485588e-02 -6.936323e-03 -4.008758e-02 2.891203e-02 6.490873e-03 3.278510e-02 -3.622649e-02 8.636931e-02 2.509542e-02 5.957176e-02 -2.252171e-02 7.043210e-02 1.196784e-02 4.521189e-02 -2.214206e-03 5.249709e-02 -5.002858e-02 1.063938e-01 -1.190420e-01 1.691138e-01 -2.142621e-01 2.346222e-01 -3.459351e-01 3.198544e-01 -5.374782e-01 4.407892e-01 -8.291253e-01 5.105676e-01 
-1.119541e+00 6.906787e-01 -9.505671e-01 -3.265167e+00 -7.242608e+01 -1.063747e+00 1.149668e+00 -8.930892e-01 1.207856e+00 -4.943309e-01 7.865089e-01 -2.849373e-01 4.316615e-01 -1.524382e-01 2.019199e-01 -8.732112e-02 2.210962e-01 -1.831016e-01 1.017059e-01 -1.636132e-01 5.095484e-02 -1.328746e-01 6.467740e-02 -1.131872e-01 -2.419178e-02 -2.877200e-02 9.598877e-02 -6.779904e-02 -2.327043e-02 1.255400e-02 7.162097e-02 -4.273907e-02 -1.344190e-02 -1.141812e-02 -1.253801e-02 -2.124445e-02 -1.698141e-02 -8.674415e-03 -6.453894e-02 4.397899e-02 3.026850e-02 2.825731e-02 -6.472685e-02 1.209744e-01 3.877551e-02 5.700910e-02 -5.351717e-02 8.238850e-02 -3.684963e-03 2.513644e-02 1.219158e-02 3.705609e-02 -2.718258e-02 1.325828e-01 -9.059662e-02 2.260131e-01 -1.794828e-01 3.123515e-01 -3.019531e-01 4.124191e-01 -4.856176e-01 5.290849e-01 -7.643444e-01 6.048717e-01 
-9.566918e-01 5.951821e-01 -3.913850e-01 -3.602234e+00 -7.802902e+01 -8.707370e-01 6.390982e-01 -8.766621e-01 9.364395e-01 -5.247362e-01 6.810731e-01 -3.015164e-01 3.617297e-01 -1.204123e-01 1.115758e-01 -3.785865e-02 2.948688e-01 -3.008634e-01 1.092754e-01 -1.633568e-01 6.551177e-02 -1.896906e-01 1.089779e-01 -1.137549e-01 -6.169984e-02 -2.117643e-02 1.967183e-01 -9.653136e-02 -6.758108e-02 5.718539e-02 1.420518e-01 -8.809946e-02 -4.259831e-02 2.170052e-02 -1.699427e-02 -5.872869e-02 -2.656950e-02 9.125025e-03 -1.148477e-01 4.898420e-02 7.460658e-02 2.921571e-02 -1.262640e-01 1.910264e-01 9.362882e-02 5.226095e-02 -1.083770e-01 1.273150e-01 3.935196e-03 -3.541231e-02 3.984158e-02 4.248709e-03 -5.287669e-03 1.469862e-01 -9.713297e-02 2.511000e-01 -2.106516e-01 3.287262e-01 -3.399821e-01 4.162484e-01 -5.014558e-01 5.225185e-01 -7.112171e-01 6.097761e-01 
-7.255597e-01 5.430959e-01 5.092066e-02 -3.403906e+00 -8.152927e+01 -8.011716e-01 1.047793e-01 -9.982931e-01 5.867731e-01 -6.478707e-01 5.375944e-01 -3.614857e-01 2.948302e-01 -7.516147e-02 -2.788136e-02 8.384813e-02 2.779895e-01 -5.531999e-01 1.493247e-01 -1.222706e-01 -3.014341e-02 -3.225081e-01 1.878825e-01 -1.231021e-01 -1.935846e-01 -7.352675e-03 3.106663e-01 -1.790162e-01 -1.313648e-01 1.799913e-01 1.820744e-01 -2.051056e-01 -1.677025e-02 1.340619e-01 -8.144896e-02 -1.646116e-01 4.288181e-02 6.025253e-02 -2.321267e-01 3.380818e-02 1.841248e-01 -1.291343e-02 -2.097185e-01 3.176081e-01 1.541424e-01 -2.159903e-02 -1.376978e-01 2.698850e-01 -7.971231e-02 -1.661869e-01 1.211782e-01 -5.281238e-02 6.242179e-02 1.859962e-01 -5.893552e-02 3.091040e-01 -1.749518e-01 3.856259e-01 -2.863737e-01 4.675760e-01 -4.176124e-01 5.598784e-01 -5.796817e-01 6.371027e-01 
-5.293283e-01 4.652093e-01 5.361637e-01 -3.529409e+00 -8.432976e+01 -6.571596e-01 -1.842497e-01 -1.031863e+00 3.451501e-01 -7.010472e-01 4.157062e-01 -3.719061e-01 1.796366e-01 1.208154e-01 -3.421586e-01 5.364293e-01 3.918231e-01 -1.225431e+00 2.307221e-01 3.394307e-01 -1.643033e-01 -7.516247e-01 4.040186e-01 1.227791e-01 -4.866784e-01 -1.129894e-01 6.764073e-01 -2.323198e-01 -3.601318e-01 4.513323e-01 3.682945e-01 -5.042472e-01 -4.405867e-02 5.164698e-01 -1.902224e-01 -5.397614e-01 1.654111e-01 3.381218e-01 -4.901232e-01 -1.605593e-01 4.563301e-01 2.300484e-02 -4.504430e-01 5.077929e-01 3.676259e-01 -1.420042e-01 -2.724217e-01 6.001033e-01 -2.040639e-01 -5.319338e-01 2.602709e-01 -1.100965e-01 1.599229e-01 2.550733e-01 -5.730489e-02 3.564490e-01 -2.057336e-01 3.978593e-01 -3.033985e-01 4.610854e-01 -3.945315e-01 5.455325e-01 -4.894561e-01 6.231397e-01 
-3.124652e-01 4.137351e-01 9.137978e-01 -3.377343e+00 -8.555067e+01 -5.202648e-01 -4.442630e-01 -1.103565e+00 6.533483e-02 -8.581246e-01 2.639338e-01 -5.379214e-01 1.511150e-01 2.839886e-01 -5.650594e-01 1.515340e+00 -5.895836e-04 -2.457852e+00 8.979730e-01 1.681064e+00 -9.006716e-01 -1.647385e+00 1.012758e+00 6.793400e-01 -1.110471e+00 -9.202127e-02 1.081005e+00 -6.791000e-01 -4.047926e-01 1.495451e+00 1.161413e-01 -1.622908e+00 4.704270e-01 1.875222e+00 -9.386235e-01 -1.735917e+00 8.327925e-01 1.210651e+00 -1.237399e+00 -7.058512e-01 9.951822e-01 -7.883753e-02 -7.059248e-01 1.127134e+00 3.842421e-01 -8.849826e-01 7.999435e-02 2.027739e+00 -1.094330e+00 -1.369678e+00 7.638955e-01 -4.534777e-02 3.118463e-01 4.014482e-01 -7.160549e-02 4.271813e-01 -2.065948e-01 4.368542e-01 -2.597012e-01 4.867193e-01 -3.052768e-01 5.582993e-01 -3.489416e-01 6.237124e-01 
-1.379212e-01 3.382714e-01 1.292427e+00 -3.391594e+00 -8.627015e+01 -3.941552e-01 -5.820829e-01 -1.182973e+00 -7.146567e-02 -1.047336e+00 2.638128e-01 -8.550318e-01 1.758954e-01 3.797991e-01 -1.323110e+00 1.498312e-01 2.872278e+00 3.302700e-01 2.104536e+00 3.710148e+00 -9.851832e-01 -2.922734e-01 2.455771e+00 2.742529e+00 -2.668057e+00 1.717266e+00 2.898732e+00 -7.806227e-01 -1.485218e+00 2.865799e+00 1.819812e+00 -3.291708e+00 6.975153e-01 3.203138e+00 -3.783269e-01 -3.180761e+00 1.810332e+00 2.693189e+00 -2.033798e+00 -5.641365e-01 2.167780e+00 -3.521847e-01 -1.856131e+00 2.521840e+00 1.678243e+00 -3.522593e+00 -1.013514e-01 3.945363e+00 -7.060327e-01 -5.679101e+00 9.264783e-01 -3.868987e-01 4.757084e-01 7.227285e-01 -2.067592e-01 4.878068e-01 -3.036071e-01 4.210219e-01 -2.820882e-01 4.622917e-01 -2.693803e-01 5.359773e-01 -2.548910e-01 6.020544e-01 
4.602003e-02 2.771575e-01 1.575994e+00 -3.204326e+00 -8.573018e+01 -2.622029e-01 -6.923929e-01 -1.179356e+00 -2.718737e-01 -1.221144e+00 6.420524e-02 -1.553506e+00 7.089734e-02 -1.895815e+00 8.005728e-01 -1.423205e+01 2.057570e+01 3.665339e+01 1.426857e+01 -7.038008e-01 7.175778e+00 2.726760e+01 1.962612e+01 1.104902e+01 -7.424912e-01 1.276524e+01 2.581679e+01 2.165170e+01 1.559373e+00 -2.984573e+00 2.087718e+01 2.458313e+01 9.169495e+00 -4.741430e+00 1.076687e+01 2.235921e+01 1.459010e+01 2.819791e+00 2.551100e+00 1.721581e+01 2.066819e+01 1.307505e+01 -1.445807e-01 2.624088e+00 2.114694e+01 1.753252e+01 6.316801e+00 -4.845192e+00 1.183321e+01 1.505452e+01 9.118323e+00 5.194051e+00 2.234965e-01 1.009284e+00 -5.823469e-01 4.698401e-01 -3.738234e-01 4.248127e-01 -2.416955e-01 4.685867e-01 -1.787529e-01 5.335107e-01 -1.242874e-01 5.871489e-01 
1.891715e-01 2.014063e-01 1.841324e+00 -3.092065e+00 -8.477334e+01 -1.625146e-01 -7.721819e-01 -1.155785e+00 -3.784105e-01 -1.346657e+00 1.865682e-01 -2.576305e+00 1.484169e+00 -5.796592e+00 5.944306e+00 -2.103837e+01 4.538002e+01 6.862644e+01 1.973286e+01 -1.528447e+01 2.702693e+01 6.484092e+01 3.561117e+01 8.196680e+00 8.823941e+00 3.597546e+01 6.098390e+01 4.550772e+01 4.263087e+00 -5.056590e+00 5.856636e+01 7.038345e+01 1.372129e+01 -1.877135e+01 3.811075e+01 7.382278e+01 2.646837e+01 -6.170993e+00 1.819953e+01 5.903763e+01 5.142316e+01 2.865523e+01 3.428175e+00 1.316224e+01 6.413289e+01 6.168586e+01 1.032561e+01 -1.762464e+01 4.552894e+01 7.866790e+01 1.473449e+01 1.208024e+01 -3.374774e+00 3.935428e-01 -1.513028e+00 1.108390e-01 -5.145110e-01 3.068980e-01 -2.234231e-01 4.260270e-01 -1.194769e-01 5.090076e-01 -3.336774e-02 5.625748e-01 
3.384346e-01 1.375712e-01 2.014934e+00 -2.814822e+00 -8.283958e+01 -1.052236e-01 -7.766738e-01 -9.822733e-01 -3.725070e-01 -9.311518e-01 2.949008e-01 -1.364788e+00 1.643341e+00 -2.959306e+00 4.181067e+00 -2.768439e+00 6.384554e-01 -3.240492e+00 5.743517e+00 -7.530792e+00 6.580208e+00 7.089037e+00 5.812869e+00 -4.425872e+00 5.055885e+00 8.439723e+00 1.368485e+01 5.936038e+00 2.189533e+00 2.606163e-01 1.867638e+01 1.788974e+01 1.907327e+00 -5.349943e+00 1.594851e+01 2.425869e+01 4.843132e+00 -3.216970e+00 9.321676e+00 2.348000e+01 1.642954e+01 9.049310e+00 2.827169e-01 9.634017e+00 2.817542e+01 2.557311e+01 -2.312970e+00 -3.079149e+00 2.806322e+01 4.019819e+01 -4.998435e-01 6.885121e+00 -2.425472e+00 8.435648e-01 -9.134335e-01 3.255840e-01 -2.890932e-01 3.632641e-01 -9.812058e-02 4.321288e-01 -1.184050e-02 4.961444e-01 8.463956e-02 5.356387e-01 
4.491925e-01 7.685330e-02 2.165495e+00 -2.573224e+00 -8.052329e+01 -4.349329e-02 -8.132810e-01 -7.901188e-01 -5.106613e-01 -2.719755e-01 -2.656053e-01 1.035774e+00 -6.951736e-01 3.955724e+00 -3.657882e+00 2.112796e+01 -4.847225e+01 -7.516511e+01 -1.810272e+01 1.161415e+01 -2.808654e+01 -6.835908e+01 -3.371582e+01 -9.090076e+00 -8.854462e+00 -3.930879e+01 -6.098138e+01 -4.386398e+01 -1.787391e+00 8.556046e-01 -6.094085e+01 -6.846994e+01 -8.160089e+00 1.677110e+01 -4.202492e+01 -7.275964e+01 -1.975178e+01 8.967369e+00 -2.212700e+01 -5.964710e+01 -4.616199e+01 -2.089355e+01 -4.769606e+00 -1.746933e+01 -6.272191e+01 -5.305275e+01 -5.835331e+00 1.330917e+01 -4.897120e+01 -7.211311e+01 -7.049451e+00 -6.877832e+00 2.211774e+00 8.119701e-01 8.839162e-01 7.342256e-01 2.180325e-01 5.097504e-01 6.351767e-02 4.636220e-01 7.291837e-02 4.892923e-01 1.645164e-01 5.120651e-01 
5.575489e-01 3.620112e-02 2.234336e+00 -2.294549e+00 -7.746489e+01 1.104186e-02 -8.553570e-01 -7.393809e-01 -6.946466e-01 -3.597595e-01 -6.343530e-01 5.985652e-01 -1.266586e+00 3.052125e+00 -5.472245e+00 1.767384e+01 -2.045795e+01 -3.312374e+01 -2.285599e+01 5.230779e+00 -1.067708e+01 -3.280625e+01 -2.812243e+01 -1.057278e+01 -3.054382e+00 -1.728421e+01 -3.921869e+01 -3.229140e+01 -6.093930e+00 6.781117e+00 -3.495498e+01 -4.557774e+01 -1.632516e+01 1.147817e+01 -2.066510e+01 -4.698425e+01 -2.490294e+01 -9.844114e-01 -8.274779e+00 -3.775639e+01 -3.904457e+01 -2.640565e+01 -1.766762e+00 -5.875924e+00 -4.453401e+01 -4.791583e+01 -1.088234e+01 1.370011e+01 -2.908564e+01 -5.859634e+01 -1.560618e+01 -1.314830e+01 2.035846e+00 -4.139978e-01 1.142767e+00 4.231545e-01 3.570469e-01 4.191019e-01 1.609507e-01 4.247114e-01 1.601816e-01 4.584890e-01 2.559204e-01 4.769811e-01 
6.249883e-01 -1.565477e-02 2.304016e+00 -2.124434e+00 -7.414907e+01 1.192233e-01 -8.759443e-01 -6.503659e-01 -8.310805e-01 -3.936023e-01 -8.120677e-01 -1.729688e-01 -1.007042e+00 -6.475557e-01 -5.224625e-01 -1.598408e+00 -2.257917e+00 5.642862e+00 -1.709792e+00 -9.998419e-01 -8.028350e-01 2.183017e+00 -1.920524e+00 -3.511398e-01 1.705711e+00 -2.162256e+00 -3.403422e+00 2.235274e+00 1.652425e+00 -2.238721e+00 -4.410911e+00 2.999245e+00 -4.523721e-01 -1.577995e+00 -2.492125e+00 9.522992e-01 -2.263126e+00 -2.599225e+00 9.928666e-01 -2.792085e+00 -4.089517e+00 -2.165161e+00 3.193534e+00 -3.420680e+00 -6.091025e+00 -9.026409e-01 1.338580e+00 -1.614513e+00 -4.824052e+00 -5.232503e-01 -1.676993e+00 -2.247441e+00 9.903342e-02 -8.589329e-01 3.918619e-01 1.048847e-02 2.682835e-01 2.743690e-01 1.918481e-01 3.685109e-01 2.054600e-01 4.249573e-01 3.054710e-01 4.450432e-01 
6.887558e-01 -4.541014e-02 2.284590e+00 -1.866896e+00 -7.024629e+01 1.340498e-01 -8.735696e-01 -5.865616e-01 -8.720600e-01 -3.638177e-01 -8.230864e-01 -1.776484e-01 -8.451850e-01 -6.957759e-01 -1.291994e-01 -3.175000e+00 1.894528e+00 2.381864e+00 -1.794396e+00 -2.202659e+00 1.645770e+00 1.536296e+00 -1.609734e+00 -8.156892e-01 1.325912e+00 -4.334053e-01 -1.098203e+00 1.189012e+00 1.565168e-01 -2.384457e+00 3.089719e-01 2.575677e+00 -1.057719e+00 -2.935717e+00 1.603305e+00 2.754674e+00 -1.489427e+00 -2.134141e+00 1.949121e+00 1.233098e+00 -1.563376e+00 1.231335e-03 1.170686e+00 -1.489665e+00 -7.614146e-01 1.822666e+00 -1.035546e-01 -3.259429e+00 1.183408e+00 3.520702e+00 -1.061541e+00 -8.474652e-02 -1.548471e-01 -5.025199e-01 2.791005e-01 -5.404679e-02 2.723080e-01 1.972327e-01 2.338428e-01 3.142158e-01 2.585074e-01 3.817764e-01 3.635616e-01 4.028373e-01 
7.107263e-01 -8.927124e-02 2.286458e+00 -1.781837e+00 -6.619527e+01 2.341219e-01 -8.050889e-01 -5.858933e-01 -8.373732e-01 -4.737178e-01 -6.943318e-01 -4.254947e-01 -4.883562e-01 -6.401265e-01 1.129760e-01 -1.117498e+00 2.580943e-01 2.996026e-01 -2.183523e-01 -4.472087e-01 2.523736e-01 2.484156e-01 -4.125463e-01 -2.773390e-01 4.617721e-01 -1.521360e-01 -6.564733e-01 8.919448e-02 3.853859e-01 -6.594623e-01 -4.027988e-01 5.242855e-01 7.196838e-02 -8.107056e-01 1.639501e-01 7.942162e-01 -1.731353e-01 -6.162170e-01 5.579173e-01 5.589585e-01 -5.905025e-01 -1.452169e-01 6.883821e-01 -3.041278e-01 -7.056948e-01 3.264352e-01 4.825788e-01 -8.798238e-01 -1.984356e-01 1.471131e+00 -2.757329e-01 2.135404e-01 -2.887175e-02 -1.519468e-01 1.408370e-01 -1.318816e-02 1.908109e-01 1.576223e-01 2.111449e-01 2.706443e-01 2.619553e-01 3.441456e-01 3.765310e-01 3.668250e-01 
7.303469e-01 -1.101725e-01 2.195101e+00 -1.551398e+00 -6.162221e+01 2.167949e-01 -7.633228e-01 -5.312834e-01 -7.984691e-01 -4.426421e-01 -6.434989e-01 -4.152503e-01 -4.293923e-01 -5.899311e-01 1.739239e-02 -7.684613e-01 1.447063e-01 -7.362349e-03 -1.973416e-01 -2.331964e-01 1.667071e-01 -2.751753e-02 -2.961345e-01 -9.760459e-02 2.301256e-01 -2.732744e-01 -3.469054e-01 1.119343e-01 1.345342e-01 -3.722504e-01 -1.485833e-01 2.279764e-01 -3.011053e-02 -2.653757e-01 1.578615e-01 2.400876e-01 -1.272283e-01 -1.277606e-01 3.307737e-01 8.169912e-02 -3.012895e-01 9.599082e-02 3.088883e-01 -2.351822e-01 -2.844763e-01 2.305160e-01 1.939736e-01 -2.122001e-01 3.495061e-03 7.085566e-01 -2.207487e-01 3.438884e-01 -4.581763e-02 2.411182e-02 1.082225e-01 4.381611e-02 1.798536e-01 1.505197e-01 2.205578e-01 2.415992e-01 2.823287e-01 3.074968e-01 4.005601e-01 3.252750e-01 
7.130464e-01 -1.408428e-01 2.132566e+00 -1.494101e+00 -5.696108e+01 2.869708e-01 -6.507516e-01 -5.288264e-01 -7.081877e-01 -4.691843e-01 -5.286408e-01 -4.087979e-01 -3.368646e-01 -4.158088e-01 -1.166933e-01 -4.551465e-01 -1.088144e-01 -2.177787e-01 -2.458877e-02 -2.085682e-01 -3.351238e-02 -1.081908e-01 -4.901126e-02 -1.195223e-01 3.910578e-02 -1.313790e-01 -1.355588e-01 -4.745102e-02 6.276403e-02 -1.523712e-01 -1.393646e-01 2.633292e-02 5.558009e-02 -1.038078e-01 -2.912431e-02 8.099934e-02 5.314852e-02 -4.044859e-02 7.742923e-02 6.935636e-02 -5.164233e-02 2.421967e-02 1.335307e-01 -3.121295e-02 -1.634690e-01 1.011363e-01 1.015158e-01 1.597458e-02 -1.768538e-01 3.742444e-01 -2.762870e-02 2.122545e-01 4.554710e-02 9.313070e-02 1.014682e-01 1.011144e-01 1.440908e-01 1.602138e-01 1.903218e-01 2.239222e-01 2.619607e-01 2.788165e-01 3.843758e-01 2.917985e-01 
6.935858e-01 -1.492008e-01 1.983384e+00 -1.288932e+00 -5.183531e+01 2.529612e-01 -5.924976e-01 -4.851686e-01 -6.462799e-01 -4.410724e-01 -4.823673e-01 -3.745615e-01 -3.280851e-01 -3.294468e-01 -1.855973e-01 -3.215246e-01 -9.682335e-02 -3.138336e-01 -5.561511e-02 -1.808254e-01 -4.096612e-02 -1.621396e-01 -3.276491e-02 -1.029129e-01 -2.913890e-02 -1.037659e-01 -4.396643e-02 -7.743051e-02 -1.152880e-02 -5.849852e-02 -4.431168e-02 -5.509622e-02 8.394410e-03 -1.163630e-02 -3.206747e-03 -1.942715e-02 3.013920e-02 1.181168e-02 2.347283e-02 2.572230e-02 5.421779e-03 2.470913e-02 3.378795e-02 4.944042e-02 -5.162756e-02 5.639149e-02 2.068056e-02 1.193658e-01 -7.517990e-02 1.601500e-01 7.064121e-04 1.566365e-01 5.835027e-02 1.375809e-01 9.465244e-02 1.406163e-01 1.311948e-01 1.694935e-01 1.815839e-01 2.099744e-01 2.576850e-01 2.505428e-01 3.794964e-01 2.550483e-01 
6.453478e-01 -1.659951e-01 1.863734e+00 -1.233406e+00 -4.664418e+01 2.976191e-01 -4.721248e-01 -4.731026e-01 -5.444293e-01 -4.454288e-01 -3.783999e-01 -3.394578e-01 -2.707873e-01 -1.645478e-01 -2.936580e-01 -8.531678e-02 -2.347899e-01 -4.487519e-01 3.569382e-02 -1.804708e-01 -1.349581e-01 -1.961910e-01 1.167365e-01 -1.251343e-01 -1.337016e-01 1.117115e-02 8.581964e-02 -1.791910e-01 -4.523727e-02 9.023768e-02 -4.397506e-02 -1.786623e-01 6.453111e-02 7.293648e-02 -1.180026e-01 -9.943347e-02 1.384304e-01 3.253069e-02 -1.281234e-01 6.817147e-02 1.541363e-01 -4.825523e-02 -6.026623e-02 2.247627e-01 -1.403097e-02 -3.815517e-02 -2.363971e-02 2.419533e-01 -2.228326e-01 -5.511493e-02 1.597051e-01 1.951849e-02 1.451622e-01 1.693206e-01 9.232238e-02 1.855644e-01 9.360671e-02 1.820125e-01 1.418067e-01 1.977266e-01 2.221775e-01 2.255431e-01 3.431846e-01 2.244048e-01 
5.948808e-01 -1.629325e-01 1.669247e+00 -1.048166e+00 -4.106994e+01 2.543518e-01 -4.082625e-01 -4.342345e-01 -4.714313e-01 -4.318267e-01 -3.217576e-01 -3.307962e-01 -2.405454e-01 -5.628098e-02 -3.248372e-01 2.991468e-01 -3.542057e-01 -8.965368e-01 1.723652e-01 1.104733e-01 -2.502473e-01 -4.078189e-01 2.353630e-01 -1.955343e-02 -2.613409e-01 7.106019e-02 1.895744e-01 -3.061623e-01 -7.117596e-02 3.816386e-01 -5.831784e-02 -4.726607e-01 1.426582e-01 3.865389e-01 -2.377696e-01 -3.977204e-01 2.498777e-01 2.140654e-01 -2.845218e-01 -2.979012e-02 2.748360e-01 -8.505719e-02 -1.364314e-01 4.400763e-01 1.229939e-02 -2.558498e-01 2.675940e-02 5.815745e-01 -3.385397e-01 -4.185747e-01 2.801235e-01 -1.172512e-02 1.833183e-01 2.198324e-01 7.164721e-02 2.158767e-01 6.443941e-02 1.864994e-01 1.178801e-01 1.840347e-01 2.009296e-01 1.993417e-01 3.172100e-01 1.911205e-01 
5.252971e-01 -1.682840e-01 1.501001e+00 -9.783103e-01 -3.542352e+01 2.810152e-01 -3.014011e-01 -4.135300e-01 -3.751126e-01 -4.759395e-01 -1.956742e-01 -4.332529e-01 -5.436507e-02 4.236070e-02 -2.304907e-01 1.172120e+00 -1.030771e+00 -1.850067e+00 9.842724e-01 1.047259e+00 -7.909139e-01 -8.066845e-01 7.853157e-01 2.771552e-01 -5.387850e-01 4.967940e-01 3.160060e-01 -9.297440e-01 2.355165e-01 1.398831e+00 -4.820702e-01 -1.551001e+00 8.397524e-01 1.497918e+00 -9.378537e-01 -1.313598e+00 9.612810e-01 9.134465e-01 -8.678719e-01 -1.597736e-01 7.007440e-01 -3.570138e-01 -1.202266e-01 1.239658e+00 -1.722695e-01 -1.271087e+00 6.086113e-01 1.944437e+00 -1.223019e+00 -1.749251e+00 9.136646e-01 4.742250e-02 3.239885e-01 4.337617e-01 -2.986510e-02 2.581903e-01 -2.236997e-02 1.713741e-01 6.409532e-02 1.576358e-01 1.587762e-01 1.700375e-01 2.706450e-01 1.610148e-01 
4.534417e-01 -1.562870e-01 1.270743e+00 -7.979631e-01 -2.950219e+01 2.284730e-01 -2.405325e-01 -3.625985e-01 -2.978463e-01 -4.692391e-01 -1.334421e-01 -5.416389e-01 -1.196038e-02 -4.537950e-01 3.442766e-01 -1.559444e+00 6.385573e-01 3.043851e+00 3.840365e+00 2.020794e+00 -5.040592e-01 2.006914e+00 3.870568e+00 2.868857e+00 -6.121981e-01 8.797904e-01 4.039007e+00 3.205603e+00 1.002536e+00 1.539235e-01 2.371704e+00 2.845883e+00 2.760549e+00 8.775574e-01 3.168427e-01 2.290605e+00 3.615782e+00 2.000468e+00 -7.337561e-01 1.692231e+00 4.371431e+00 2.769174e+00 1.326357e-01 3.395818e-01 3.540398e+00 2.902126e+00 2.153807e+00 5.917638e-01 9.262546e-01 1.985478e+00 2.733493e+00 1.420713e+00 2.795922e-01 5.955361e-01 -1.576146e-01 2.547648e-01 -7.840019e-02 1.518590e-01 3.463019e-02 1.333985e-01 1.312971e-01 1.404318e-01 2.328268e-01 1.286850e-01 
3.730036e-01 -1.484794e-01 1.058370e+00 -6.767256e-01 -2.348592e+01 2.340614e-01 -1.668933e-01 -2.844386e-01 -2.546853e-01 -4.858007e-01 -1.140743e-01 -1.019015e+00 2.748813e-01 -2.984324e+00 3.726890e+00 -1.228834e+01 7.756274e+00 2.627135e+01 1.844597e+01 3.834021e+00 2.504068e+00 1.605970e+01 2.088969e+01 1.543937e+01 2.027168e+00 1.453287e+00 2.346371e+01 2.935220e+01 7.717263e+00 -7.127399e+00 1.562067e+01 3.182253e+01 1.459129e+01 -3.758802e+00 6.303263e+00 2.475879e+01 1.874942e+01 6.312406e+00 1.750387e+00 1.139089e+01 2.472537e+01 2.273557e+01 3.917438e+00 -4.864427e+00 2.147673e+01 3.273251e+01 1.209685e+01 -7.171027e+00 9.933129e+00 3.133109e+01 1.327255e+01 1.005744e+01 -6.475316e-01 6.411489e-01 -7.500094e-01 1.895924e-02 -2.025175e-01 5.656365e-02 3.957986e-03 9.006240e-02 1.024800e-01 1.087538e-01 1.873675e-01 9.975905e-02 
2.883606e-01 -1.260588e-01 8.001027e-01 -4.828070e-01 -1.732324e+01 1.689807e-01 -1.140662e-01 -1.992475e-01 -1.774597e-01 -3.867748e-01 -3.287339e-02 -9.313712e-01 4.663870e-01 -2.776543e+00 3.363871e+00 -1.083947e+01 9.279544e+00 2.500026e+01 1.524941e+01 7.131949e-01 3.993150e+00 1.670145e+01 1.942681e+01 1.229368e+01 2.140776e+00 2.950325e+00 2.402798e+01 2.740660e+01 5.555586e+00 -6.410099e+00 1.781127e+01 3.174723e+01 1.121338e+01 -5.096693e+00 8.570432e+00 2.585728e+01 1.605346e+01 3.712730e+00 2.782984e+00 1.303455e+01 2.398180e+01 2.056306e+01 2.474380e+00 -3.144081e+00 2.307750e+01 3.233651e+01 8.316909e+00 -7.239520e+00 1.308084e+01 3.302578e+01 1.018144e+01 8.763879e+00 -1.040277e+00 5.226038e-01 -7.004660e-01 -2.873006e-02 -1.780449e-01 2.265015e-02 3.086050e-03 6.019766e-02 8.085259e-02 7.710924e-02 1.449247e-01 6.848250e-02 
2.027416e-01 -1.035089e-01 5.529256e-01 -2.992808e-01 -1.107155e+01 1.351218e-01 -3.887797e-02 -2.621906e-02 -1.025510e-01 4.788139e-02 -1.152051e-01 4.420568e-01 -2.956112e-01 1.773146e+00 -2.260356e+00 8.257260e+00 -7.777405e+00 -2.103759e+01 -1.130870e+01 -1.121569e+00 -2.983548e+00 -1.382143e+01 -1.473611e+01 -9.625749e+00 -1.197772e+00 -2.984251e+00 -1.863817e+01 -2.091290e+01 -3.506278e+00 4.590096e+00 -1.404775e+01 -2.431499e+01 -7.857610e+00 4.074077e+00 -6.920547e+00 -2.002807e+01 -1.184145e+01 -2.246825e+00 -2.330023e+00 -1.048532e+01 -1.838145e+01 -1.486846e+01 -1.815366e+00 2.140582e+00 -1.816142e+01 -2.412082e+01 -6.165519e+00 5.892507e+00 -1.044570e+01 -2.477743e+01 -7.495558e+00 -5.817866e+00 6.676654e-01 -1.465432e-01 4.849578e-01 1.628253e-01 1.629846e-01 9.768532e-02 7.859482e-02 6.573969e-02 7.522313e-02 5.739669e-02 1.028126e-01 4.258241e-02 
1.096872e-01 -7.400647e-02 2.815443e-01 -1.067271e-01 -4.788725e+00 6.909177e-02 1.123101e-02 6.985929e-02 -3.892884e-02 2.081948e-01 -1.199522e-01 8.197512e-01 -5.136058e-01 3.078571e+00 -4.309600e+00 1.316390e+01 -8.957109e+00 -2.875979e+01 -2.002003e+01 -3.504810e+00 -3.237062e+00 -1.807664e+01 -2.305681e+01 -1.643764e+01 -2.394923e+00 -1.947888e+00 -2.645944e+01 -3.247158e+01 -8.142734e+00 7.965581e+00 -1.808977e+01 -3.583924e+01 -1.550364e+01 4.758996e+00 -7.660678e+00 -2.820487e+01 -2.031096e+01 -6.298195e+00 -2.242122e+00 -1.324419e+01 -2.750089e+01 -2.500029e+01 -3.960873e+00 5.152965e+00 -2.445981e+01 -3.682401e+01 -1.253071e+01 8.394254e+00 -1.192131e+01 -3.596981e+01 -1.407087e+01 -1.089937e+01 8.995004e-01 -5.060417e-01 8.341670e-01 1.408005e-01 2.609180e-01 7.946520e-02 9.145383e-02 4.005870e-02 5.305297e-02 2.662082e-02 5.555892e-02 1.283015e-02 
1.619467e-02 -5.445732e-02 3.223758e-02 3.246087e-02 1.532446e+00 5.566970e-02 7.358324e-02 1.572831e-01 8.046540e-04 1.986987e-01 -1.076762e-01 3.508740e-01 -2.429624e-01 6.223338e-01 -1.103633e+00 2.832223e+00 -1.503009e+00 -5.247412e+00 -6.035938e+00 -2.170534e+00 -2.384703e-02 -3.462855e+00 -6.293902e+00 -4.532342e+00 6.166160e-02 -6.820865e-01 -6.668916e+00 -6.736431e+00 -2.223064e+00 9.418135e-01 -4.072580e+00 -6.702879e+00 -4.685377e+00 -3.990737e-01 -9.770508e-01 -5.180875e+00 -5.860791e+00 -2.923350e+00 5.360164e-01 -2.808562e+00 -7.104418e+00 -5.805774e+00 -6.083282e-01 4.756401e-01 -5.747228e+00 -7.067537e+00 -3.558730e+00 3.293979e-01 -1.852374e+00 -5.971523e+00 -4.401439e+00 -2.957912e+00 -1.649688e-01 -5.726612e-01 2.808140e-01 -1.129807e-01 1.547312e-01 -2.425436e-02 6.693760e-02 -8.977344e-03 2.476265e-02 -8.940173e-03 6.296203e-03 -1.719930e-02 
-8.243744e-02 -2.919845e-02 -2.318745e-01 1.878771e-01 7.800941e+00 5.289631e-03 1.310606e-01 2.235757e-01 7.028861e-02 2.301495e-01 -5.811589e-02 2.228387e-01 -1.449615e-01 -2.278810e-01 7.834225e-02 -1.367237e+00 9.750834e-01 1.755417e+00 -1.160304e+00 -1.132936e+00 7.830590e-01 7.050715e-01 -9.357658e-01 -3.118673e-01 5.812230e-01 -6.552145e-01 -4.901657e-01 9.977984e-01 -2.345419e-01 -1.528341e+00 3.463139e-01 1.650419e+00 -8.938739e-01 -1.606801e+00 9.347112e-01 1.359910e+00 -1.034749e+00 -1.008606e+00 9.854636e-01 9.636768e-02 -8.154392e-01 3.895887e-01 2.544752e-01 -1.342449e+00 1.751388e-03 1.457856e+00 -5.519838e-01 -2.031341e+00 1.082105e+00 2.078629e+00 -9.455376e-01 4.428699e-02 -2.977877e-01 -3.880114e-01 7.925693e-02 -1.764797e-01 8.963371e-02 -7.289850e-02 3.416429e-02 -4.555649e-02 -1.211421e-02 -4.258202e-02 -4.785277e-02 -4.686628e-02 