# vtk DataFile Version 2.0
Comment goes here
ASCII

DATASET STRUCTURED_POINTS
FIELD FieldData 1
TIME 1 1 double
0.01900000
DIMENSIONS    64   64   1

ORIGIN    0.000   0.000   0.000
SPACING   0.03125 0.03125   1.000

POINT_DATA   4096
SCALARS P double
LOOKUP_TABLE default

-2.751858e+01 -1.833317e+02 -3.752343e+01 -1.847981e+02 -3.278372e+01 1.204246e+02 -4.214858e+01 1.105376e+02 -3.767033e+01 9.494469e+01 -2.812520e+01 7.434921e+01 -1.714648e+01 5.638842e+01 -1.194406e+01 4.405425e+01 -9.953102e+00 3.238781e+01 -1.003831e+01 2.323760e+01 -1.514686e+01 1.768683e+01 -2.176674e+01 9.795127e+00 -2.587754e+01 3.690478e+00 -3.629836e+01 1.020193e+00 -4.524281e+01 -8.791344e+00 -4.437600e+01 -2.642859e+01 -4.101547e+01 -3.805770e+01 -4.688555e+01 -4.575127e+01 -5.184102e+01 -5.242486e+01 -5.775190e+01 -5.912529e+01 -6.245143e+01 -6.654459e+01 -6.393473e+01 -8.020429e+01 -5.627402e+01 -9.948250e+01 -4.818501e+01 -1.118444e+02 -4.808124e+01 -1.202578e+02 -4.855928e+01 -1.233336e+02 -6.084036e+01 -1.134159e+02 -7.789131e+01 -1.078360e+02 -8.269198e+01 -1.162122e+02 -7.615408e+01 -1.313637e+02 -6.675866e+01 -1.452345e+02 -5.376978e+01 -1.681846e+02 
-3.966534e+00 -1.227754e+02 -1.121712e+01 -1.238651e+02 -6.875050e+00 1.041308e+02 -1.443960e+01 9.831965e+01 -1.296680e+01 8.956381e+01 -8.972624e+00 7.795326e+01 -4.205055e+00 6.749679e+01 -2.428349e+00 5.977295e+01 -1.852661e+00 5.165185e+01 -1.784792e+00 4.454715e+01 -4.244190e+00 3.922372e+01 -7.252797e+00 3.214578e+01 -8.244750e+00 2.588673e+01 -1.307364e+01 2.203278e+01 -1.730648e+01 1.422181e+01 -1.614383e+01 2.188582e+00 -1.380177e+01 -6.363484e+00 -1.660928e+01 -1.320586e+01 -1.841907e+01 -1.969440e+01 -2.078608e+01 -2.629621e+01 -2.269992e+01 -3.285335e+01 -2.345189e+01 -4.266003e+01 -1.917836e+01 -5.572779e+01 -1.477051e+01 -6.471928e+01 -1.487756e+01 -7.221287e+01 -1.411126e+01 -7.760292e+01 -1.969091e+01 -7.559440e+01 -2.810173e+01 -7.575154e+01 -3.021085e+01 -8.284423e+01 -2.699350e+01 -9.268970e+01 -2.324640e+01 -1.006496e+02 -1.807470e+01 -1.138709e+02 
4.934541e+00 -8.752550e+01 2.991799e+00 -8.954019e+01 4.831732e+00 9.316112e+01 2.129728e+00 9.025070e+01 1.752662e+00 8.624056e+01 1.659264e+00 8.114090e+01 1.696242e+00 7.577072e+01 1.296219e+00 7.042996e+01 1.058623e+00 6.444444e+01 1.027011e+00 5.836949e+01 6.509443e-01 5.239456e+01 3.634822e-01 4.573303e+01 7.911578e-01 3.909470e+01 3.001423e-01 3.315005e+01 -2.283144e-01 2.648771e+01 1.955687e-01 1.905837e+01 7.629303e-01 1.228819e+01 3.890516e-01 5.491391e+00 5.743011e-01 -1.437333e+00 7.057534e-01 -8.459321e+00 8.594423e-01 -1.520010e+01 8.930597e-01 -2.240690e+01 1.852154e+00 -3.024315e+01 2.730566e+00 -3.706390e+01 2.668752e+00 -4.388969e+01 3.430255e+00 -5.075396e+01 3.142080e+00 -5.603756e+01 2.186928e+00 -6.140997e+01 2.109651e+00 -6.740211e+01 2.497485e+00 -7.316749e+01 2.502177e+00 -7.781129e+01 2.537630e+00 -8.332288e+01 
3.605324e+00 -8.757425e+01 2.847448e+00 -9.026580e+01 2.275205e+00 9.341071e+01 1.792611e+00 9.017114e+01 1.539078e+00 8.575314e+01 1.614742e+00 8.045629e+01 1.803441e+00 7.485070e+01 1.757402e+00 6.918930e+01 1.654809e+00 6.324263e+01 1.512949e+00 5.722790e+01 1.138745e+00 5.119389e+01 7.690216e-01 4.484637e+01 6.322887e-01 3.848162e+01 1.313968e-01 3.230967e+01 -2.797358e-01 2.564038e+01 -1.029189e-01 1.850240e+01 1.961300e-01 1.160676e+01 8.052986e-02 4.816574e+00 7.243138e-02 -1.971973e+00 7.005723e-02 -8.816662e+00 1.384164e-01 -1.567991e+01 3.683708e-01 -2.292909e+01 1.165671e+00 -3.049030e+01 1.949742e+00 -3.752019e+01 2.205910e+00 -4.421679e+01 2.448766e+00 -5.047311e+01 1.994433e+00 -5.576054e+01 1.177395e+00 -6.100978e+01 9.188265e-01 -6.671637e+01 1.188382e+00 -7.247163e+01 1.587278e+00 -7.780279e+01 2.271261e+00 -8.318999e+01 
3.394406e+00 -8.745964e+01 2.960052e+00 -9.054297e+01 2.752460e+00 9.377778e+01 2.316387e+00 9.044377e+01 1.985918e+00 8.623591e+01 1.793527e+00 8.130904e+01 1.654712e+00 7.597813e+01 1.422382e+00 7.039780e+01 1.221132e+00 6.448315e+01 1.068567e+00 5.838624e+01 8.560537e-01 5.217043e+01 6.978230e-01 4.570167e+01 6.954432e-01 3.917522e+01 5.030590e-01 3.273117e+01 3.349678e-01 2.602977e+01 4.528926e-01 1.906312e+01 6.419005e-01 1.219126e+01 6.345435e-01 5.320041e+00 7.336436e-01 -1.600665e+00 8.616970e-01 -8.558601e+00 1.023524e+00 -1.549983e+01 1.240345e+00 -2.259521e+01 1.717842e+00 -2.981180e+01 2.176502e+00 -3.672878e+01 2.384449e+00 -4.347413e+01 2.643212e+00 -4.998755e+01 2.571752e+00 -5.593277e+01 2.289511e+00 -6.171950e+01 2.236026e+00 -6.753726e+01 2.372720e+00 -7.314019e+01 2.501017e+00 -7.828818e+01 2.744975e+00 -8.326140e+01 
2.614652e+00 -8.789071e+01 2.524011e+00 -9.138173e+01 2.407002e+00 9.406997e+01 2.004771e+00 9.043865e+01 1.777118e+00 8.593797e+01 1.715992e+00 8.078605e+01 1.719512e+00 7.525161e+01 1.660494e+00 6.949137e+01 1.547405e+00 6.351910e+01 1.381498e+00 5.741791e+01 1.131920e+00 5.121649e+01 8.710575e-01 4.486762e+01 6.524617e-01 3.844709e+01 3.719381e-01 3.198254e+01 1.639355e-01 2.530451e+01 1.611542e-01 1.842986e+01 2.364962e-01 1.156535e+01 2.340184e-01 4.725773e+00 2.523970e-01 -2.119895e+00 3.005365e-01 -9.001714e+00 4.139563e-01 -1.594179e+01 6.465483e-01 -2.301639e+01 1.064370e+00 -3.014522e+01 1.477571e+00 -3.705349e+01 1.701437e+00 -4.368668e+01 1.790078e+00 -4.996771e+01 1.617756e+00 -5.581368e+01 1.327824e+00 -6.151055e+01 1.227668e+00 -6.724583e+01 1.373668e+00 -7.290997e+01 1.672801e+00 -7.832353e+01 2.112764e+00 -8.344465e+01 
2.817564e+00 -8.855344e+01 2.759480e+00 -9.243418e+01 2.723879e+00 9.537271e+01 2.366918e+00 9.145852e+01 2.085364e+00 8.692324e+01 1.880322e+00 8.186394e+01 1.710034e+00 7.642271e+01 1.523577e+00 7.069182e+01 1.341121e+00 6.469782e+01 1.176686e+00 5.851852e+01 1.012355e+00 5.219587e+01 8.803752e-01 4.572612e+01 7.956505e-01 3.917332e+01 6.858255e-01 3.256768e+01 6.130598e-01 2.583455e+01 6.429272e-01 1.897529e+01 7.232974e-01 1.209596e+01 7.773888e-01 5.197920e+00 8.659476e-01 -1.728793e+00 9.826825e-01 -8.679567e+00 1.131217e+00 -1.564908e+01 1.329165e+00 -2.266316e+01 1.605844e+00 -2.968239e+01 1.877246e+00 -3.656504e+01 2.059833e+00 -4.328658e+01 2.198500e+00 -4.978981e+01 2.216718e+00 -5.599507e+01 2.162220e+00 -6.201024e+01 2.171618e+00 -6.789655e+01 2.262421e+00 -7.357670e+01 2.392475e+00 -7.895546e+01 2.579820e+00 -8.401746e+01 
2.151664e+00 -8.918617e+01 2.213483e+00 -9.338584e+01 2.208308e+00 9.574717e+01 1.992745e+00 9.154554e+01 1.834948e+00 8.675541e+01 1.751537e+00 8.148456e+01 1.699725e+00 7.586617e+01 1.620803e+00 6.999458e+01 1.496541e+00 6.391592e+01 1.337150e+00 5.770202e+01 1.139667e+00 5.138176e+01 9.339292e-01 4.495812e+01 7.386396e-01 3.845541e+01 5.438399e-01 3.186826e+01 4.050202e-01 2.516485e+01 3.520555e-01 1.835006e+01 3.602825e-01 1.150170e+01 3.708986e-01 4.640828e+00 4.038159e-01 -2.234610e+00 4.642851e-01 -9.134323e+00 5.689328e-01 -1.607324e+01 7.408431e-01 -2.305109e+01 9.726071e-01 -3.002047e+01 1.202131e+00 -3.685907e+01 1.343951e+00 -4.350394e+01 1.403039e+00 -4.989572e+01 1.362626e+00 -5.602172e+01 1.286467e+00 -6.198429e+01 1.287143e+00 -6.785816e+01 1.406031e+00 -7.361030e+01 1.620317e+00 -7.915422e+01 1.895846e+00 -8.440221e+01 
2.492565e+00 -9.030100e+01 2.520786e+00 -9.489782e+01 2.518501e+00 9.766354e+01 2.299056e+00 9.309767e+01 2.098326e+00 8.813014e+01 1.932189e+00 8.279456e+01 1.783883e+00 7.715033e+01 1.625588e+00 7.124217e+01 1.450463e+00 6.509351e+01 1.290556e+00 5.879160e+01 1.142086e+00 5.236588e+01 1.019749e+00 4.583266e+01 9.247997e-01 3.922258e+01 8.353142e-01 3.253125e+01 7.902828e-01 2.576426e+01 7.866509e-01 1.890866e+01 8.342942e-01 1.202053e+01 8.894272e-01 5.103916e+00 9.714808e-01 -1.833781e+00 1.072336e+00 -8.785175e+00 1.190146e+00 -1.575549e+01 1.340643e+00 -2.272786e+01 1.503579e+00 -2.969043e+01 1.671684e+00 -3.656317e+01 1.788206e+00 -4.331786e+01 1.881941e+00 -4.989060e+01 1.938804e+00 -5.625023e+01 1.973425e+00 -6.243437e+01 2.028458e+00 -6.846639e+01 2.117759e+00 -7.431870e+01 2.232507e+00 -7.994407e+01 2.366949e+00 -8.529958e+01 
1.856242e+00 -9.105219e+01 1.942879e+00 -9.592967e+01 1.979088e+00 9.809744e+01 1.884737e+00 9.325813e+01 1.803559e+00 8.805754e+01 1.751027e+00 8.252940e+01 1.706595e+00 7.672890e+01 1.628720e+00 7.069582e+01 1.486766e+00 6.444243e+01 1.333681e+00 5.808872e+01 1.159904e+00 5.164622e+01 9.885145e-01 4.512668e+01 8.266935e-01 3.854497e+01 6.633885e-01 3.187112e+01 5.617237e-01 2.513558e+01 4.871657e-01 1.830604e+01 4.843557e-01 1.145229e+01 4.897795e-01 4.569409e+00 5.282622e-01 -2.325652e+00 5.839228e-01 -9.232572e+00 6.570979e-01 -1.616696e+01 7.757288e-01 -2.309689e+01 8.889639e-01 -3.002581e+01 1.019973e+00 -3.685853e+01 1.079953e+00 -4.357562e+01 1.122064e+00 -5.008917e+01 1.145379e+00 -5.639471e+01 1.167975e+00 -6.255081e+01 1.227578e+00 -6.859714e+01 1.342976e+00 -7.452328e+01 1.506221e+00 -8.028418e+01 1.692473e+00 -8.581981e+01 
2.242256e+00 -9.242724e+01 2.282257e+00 -9.770205e+01 2.288975e+00 1.003974e+02 2.175819e+00 9.517037e+01 2.061242e+00 8.972000e+01 1.960677e+00 8.403998e+01 1.866345e+00 7.814167e+01 1.746731e+00 7.202478e+01 1.556089e+00 6.564029e+01 1.395295e+00 5.918862e+01 1.252974e+00 5.263975e+01 1.133474e+00 4.601830e+01 1.050206e+00 3.934778e+01 9.450976e-01 3.257345e+01 9.246194e-01 2.577966e+01 8.865847e-01 1.887660e+01 9.371264e-01 1.197552e+01 9.806644e-01 5.028408e+00 1.057387e+00 -1.922662e+00 1.146054e+00 -8.877933e+00 1.217993e+00 -1.585796e+01 1.337954e+00 -2.280667e+01 1.403784e+00 -2.978711e+01 1.519480e+00 -3.668133e+01 1.552308e+00 -4.353713e+01 1.606933e+00 -5.020417e+01 1.684549e+00 -5.667940e+01 1.765733e+00 -6.300960e+01 1.853329e+00 -6.921466e+01 1.950458e+00 -7.528485e+01 2.054122e+00 -8.119607e+01 2.157262e+00 -8.692099e+01 
1.619985e+00 -9.324097e+01 1.695182e+00 -9.877070e+01 1.732714e+00 1.008511e+02 1.731696e+00 9.537000e+01 1.727267e+00 8.970821e+01 1.734295e+00 8.385838e+01 1.742391e+00 7.782730e+01 1.700511e+00 7.160166e+01 1.502660e+00 6.506699e+01 1.346647e+00 5.856529e+01 1.186651e+00 5.197986e+01 1.031014e+00 4.536357e+01 9.164883e-01 3.871495e+01 7.268100e-01 3.194378e+01 6.860483e-01 2.519372e+01 5.624180e-01 1.829053e+01 5.953640e-01 1.143579e+01 5.854739e-01 4.504101e+00 6.315822e-01 -2.397953e+00 6.871249e-01 -9.315541e+00 7.016070e-01 -1.625854e+01 8.105089e-01 -2.315219e+01 7.992573e-01 -3.012281e+01 9.068951e-01 -3.697592e+01 8.524143e-01 -4.386316e+01 8.622590e-01 -5.048854e+01 9.265305e-01 -5.691352e+01 1.010817e+00 -6.322525e+01 1.111267e+00 -6.945509e+01 1.231069e+00 -7.559862e+01 1.366341e+00 -8.163200e+01 1.503440e+00 -8.752347e+01 
2.018694e+00 -9.475141e+01 2.047353e+00 -1.006663e+02 2.043575e+00 1.033717e+02 2.021956e+00 9.750763e+01 1.992053e+00 9.156637e+01 1.972382e+00 8.552195e+01 1.966222e+00 7.936105e+01 1.933399e+00 7.304957e+01 1.664787e+00 6.625354e+01 1.462810e+00 5.969316e+01 1.361117e+00 5.296966e+01 1.201439e+00 4.627230e+01 1.195530e+00 3.955148e+01 9.818187e-01 3.265438e+01 1.057558e+00 2.588902e+01 9.244449e-01 1.884794e+01 1.026563e+00 1.198513e+01 1.061403e+00 4.939685e+00 1.117379e+00 -1.987051e+00 1.239962e+00 -8.972333e+00 1.201554e+00 -1.597274e+01 1.372636e+00 -2.287225e+01 1.278026e+00 -2.996043e+01 1.431492e+00 -3.683937e+01 1.329961e+00 -4.397272e+01 1.304662e+00 -5.070330e+01 1.421010e+00 -5.724582e+01 1.550183e+00 -6.370392e+01 1.669274e+00 -7.009194e+01 1.777148e+00 -7.640203e+01 1.874280e+00 -8.262161e+01 1.957607e+00 -8.873987e+01 
1.408443e+00 -9.558209e+01 1.458862e+00 -1.017283e+02 1.474735e+00 1.037999e+02 1.552669e+00 9.770490e+01 1.621133e+00 9.157719e+01 1.703126e+00 8.539440e+01 1.813667e+00 7.914317e+01 1.914701e+00 7.275540e+01 1.532028e+00 6.565546e+01 1.310411e+00 5.914537e+01 1.246627e+00 5.230243e+01 1.000439e+00 4.567798e+01 1.077319e+00 3.894645e+01 6.541664e-01 3.204012e+01 8.532705e-01 2.536363e+01 5.291444e-01 1.823527e+01 7.018498e-01 1.151113e+01 6.671772e-01 4.364995e+00 6.901629e-01 -2.407815e+00 8.347708e-01 -9.434703e+00 6.531761e-01 -1.635416e+01 9.286608e-01 -2.317617e+01 6.322601e-01 -3.031648e+01 9.097800e-01 -3.706368e+01 6.190545e-01 -4.447684e+01 5.317140e-01 -5.107107e+01 6.743875e-01 -5.753251e+01 8.329685e-01 -6.397467e+01 9.738186e-01 -7.039403e+01 1.101534e+00 -7.677676e+01 1.220077e+00 -8.310905e+01 1.325639e+00 -8.937918e+01 
1.809800e+00 -9.714047e+01 1.816823e+00 -1.036502e+02 1.788024e+00 1.064212e+02 1.846686e+00 9.996166e+01 1.892692e+00 9.354769e+01 1.954293e+00 8.715229e+01 2.070340e+00 8.077503e+01 2.298896e+00 7.443882e+01 1.842446e+00 6.659226e+01 1.268482e+00 6.041613e+01 1.614651e+00 5.315221e+01 1.021619e+00 4.665957e+01 1.524541e+00 3.978335e+01 7.564283e-01 3.269594e+01 1.277154e+00 2.617188e+01 8.501791e-01 1.863058e+01 1.035503e+00 1.220954e+01 1.224775e+00 4.597429e+00 9.946768e-01 -1.880144e+00 1.495503e+00 -9.207583e+00 9.637014e-01 -1.608424e+01 1.568457e+00 -2.286459e+01 1.002235e+00 -3.031557e+01 1.448976e+00 -3.675624e+01 1.158309e+00 -4.497857e+01 7.960093e-01 -5.134646e+01 1.124205e+00 -5.787864e+01 1.340544e+00 -6.445919e+01 1.495812e+00 -7.103947e+01 1.613324e+00 -7.759994e+01 1.703978e+00 -8.413399e+01 1.770444e+00 -9.064365e+01 
1.211801e+00 -9.794883e+01 1.230605e+00 -1.046654e+02 1.210742e+00 1.067762e+02 1.355052e+00 1.001089e+02 1.482392e+00 9.353081e+01 1.625545e+00 8.703623e+01 1.851403e+00 8.069557e+01 2.373466e+00 7.470589e+01 1.873092e+00 6.556136e+01 7.949280e-01 6.020434e+01 1.769596e+00 5.227744e+01 5.349063e-01 4.624808e+01 1.675487e+00 3.924982e+01 2.212863e-01 3.200132e+01 1.188584e+00 2.595563e+01 4.714599e-01 1.776804e+01 6.011031e-01 1.207332e+01 1.129860e+00 3.758478e+00 3.196933e-01 -2.022054e+00 1.482005e+00 -9.787443e+00 1.763821e-01 -1.640912e+01 1.394338e+00 -2.297041e+01 2.746329e-01 -3.083113e+01 1.049512e+00 -3.648566e+01 7.630040e-01 -4.594965e+01 -2.868095e-01 -5.168780e+01 3.691286e-01 -5.814720e+01 6.687518e-01 -6.474064e+01 8.484445e-01 -7.136461e+01 9.783789e-01 -7.799740e+01 1.080775e+00 -8.463495e+01 1.159810e+00 -9.128109e+01 
1.614547e+00 -9.949117e+01 1.593954e+00 -1.065435e+02 1.530722e+00 1.094070e+02 1.656738e+00 1.023994e+02 1.759628e+00 9.553513e+01 1.866958e+00 8.879490e+01 2.025029e+00 8.221042e+01 2.362060e+00 7.587305e+01 1.982575e+00 6.709675e+01 1.221836e+00 6.121895e+01 1.838205e+00 5.347223e+01 9.899624e-01 4.709916e+01 1.778071e+00 4.010328e+01 7.299326e-01 3.280216e+01 1.448790e+00 2.649038e+01 9.316079e-01 1.851754e+01 1.056735e+00 1.242814e+01 1.466979e+00 4.406852e+00 8.992992e-01 -1.776877e+00 1.778334e+00 -9.345133e+00 8.089840e-01 -1.617592e+01 1.750019e+00 -2.287412e+01 8.848708e-01 -3.061573e+01 1.487624e+00 -3.671942e+01 1.241982e+00 -4.565700e+01 3.868987e-01 -5.182318e+01 9.184065e-01 -5.846239e+01 1.192827e+00 -6.521331e+01 1.360946e+00 -7.200255e+01 1.474381e+00 -7.881627e+01 1.551933e+00 -8.565810e+01 1.599027e+00 -9.254175e+01 
1.029125e+00 -1.002431e+02 1.012901e+00 -1.074763e+02 9.516085e-01 1.096444e+02 1.148630e+00 1.024458e+02 1.314948e+00 9.540965e+01 1.470996e+00 8.849559e+01 1.633393e+00 8.166576e+01 1.774138e+00 7.480295e+01 1.397872e+00 6.713668e+01 1.305689e+00 6.039415e+01 1.223658e+00 5.316152e+01 1.063022e+00 4.639242e+01 1.162034e+00 3.941543e+01 7.274922e-01 3.238955e+01 9.912301e-01 2.558566e+01 6.013993e-01 1.833208e+01 8.285795e-01 1.157752e+01 7.397636e-01 4.266392e+00 7.823900e-01 -2.482177e+00 9.043056e-01 -9.660121e+00 6.614968e-01 -1.656859e+01 9.565285e-01 -2.350766e+01 5.174720e-01 -3.070524e+01 8.309187e-01 -3.757061e+01 4.100828e-01 -4.522054e+01 3.149022e-01 -5.196386e+01 4.765895e-01 -5.870344e+01 6.420001e-01 -6.549297e+01 7.760391e-01 -7.232792e+01 8.798954e-01 -7.920792e+01 9.574350e-01 -8.614132e+01 1.008497e+00 -9.314444e+01 
1.435132e+00 -1.017214e+02 1.384168e+00 -1.092589e+02 1.284693e+00 1.122163e+02 1.465083e+00 1.047059e+02 1.610828e+00 9.739522e+01 1.740650e+00 9.023408e+01 1.868568e+00 8.316961e+01 1.971192e+00 7.610626e+01 1.739146e+00 6.857957e+01 1.575917e+00 6.152329e+01 1.557339e+00 5.435814e+01 1.381555e+00 4.733297e+01 1.457781e+00 4.035062e+01 1.176858e+00 3.318771e+01 1.322508e+00 2.628640e+01 1.127102e+00 1.902523e+01 1.242467e+00 1.208570e+01 1.261020e+00 4.885114e+00 1.256523e+00 -2.104192e+00 1.380963e+00 -9.192834e+00 1.219335e+00 -1.629805e+01 1.392226e+00 -2.326134e+01 1.153928e+00 -3.055448e+01 1.299328e+00 -3.754727e+01 1.075352e+00 -4.507830e+01 9.372224e-01 -5.208209e+01 1.042089e+00 -5.899607e+01 1.174307e+00 -6.594461e+01 1.286107e+00 -7.294291e+01 1.369160e+00 -7.999992e+01 1.422886e+00 -8.713123e+01 1.446057e+00 -9.436059e+01 
8.620412e-01 -1.023874e+02 8.101365e-01 -1.100784e+02 7.070512e-01 1.123074e+02 9.459046e-01 1.046310e+02 1.140518e+00 9.716786e+01 1.301601e+00 8.985951e+01 1.427245e+00 8.264351e+01 1.480035e+00 7.543540e+01 1.341483e+00 6.810040e+01 1.275976e+00 6.093181e+01 1.195949e+00 5.378998e+01 1.112368e+00 4.672727e+01 1.070489e+00 3.969736e+01 9.149413e-01 3.262912e+01 9.223238e-01 2.563283e+01 7.909888e-01 1.853162e+01 8.338773e-01 1.151925e+01 7.971794e-01 4.430377e+00 8.252095e-01 -2.588751e+00 8.316176e-01 -9.639013e+00 7.768317e-01 -1.669079e+01 8.029860e-01 -2.371497e+01 6.695210e-01 -3.085646e+01 6.894164e-01 -3.793603e+01 5.296810e-01 -4.518427e+01 5.122800e-01 -5.223453e+01 5.664449e-01 -5.921156e+01 6.499701e-01 -6.620355e+01 7.334400e-01 -7.324615e+01 8.028408e-01 -8.036105e+01 8.512175e-01 -8.757006e+01 8.730680e-01 -9.490031e+01 
1.273697e+00 -1.037648e+02 1.191956e+00 -1.117268e+02 1.056724e+00 1.147724e+02 1.280785e+00 1.068181e+02 1.458697e+00 9.910672e+01 1.601095e+00 9.157782e+01 1.707480e+00 8.416980e+01 1.749910e+00 7.681145e+01 1.654725e+00 6.939812e+01 1.582792e+00 6.210361e+01 1.518378e+00 5.487841e+01 1.442432e+00 4.769962e+01 1.407750e+00 4.058326e+01 1.304115e+00 3.342475e+01 1.307175e+00 2.633846e+01 1.237390e+00 1.917759e+01 1.269619e+00 1.207896e+01 1.268549e+00 4.951557e+00 1.289485e+00 -2.155385e+00 1.308822e+00 -9.255454e+00 1.274524e+00 -1.639405e+01 1.292184e+00 -2.349939e+01 1.209582e+00 -3.071388e+01 1.209585e+00 -3.788995e+01 1.105552e+00 -4.518103e+01 1.071886e+00 -5.236408e+01 1.107965e+00 -5.948704e+01 1.172345e+00 -6.662677e+01 1.237264e+00 -7.382390e+01 1.287433e+00 -8.110601e+01 1.314383e+00 -8.850044e+01 1.311924e+00 -9.603977e+01 
7.125551e-01 -1.043195e+02 6.266615e-01 -1.124066e+02 4.843315e-01 1.146976e+02 7.577487e-01 1.066081e+02 9.766239e-01 9.877570e+01 1.147542e+00 9.113841e+01 1.266547e+00 8.363621e+01 1.314403e+00 7.621058e+01 1.270517e+00 6.881431e+01 1.226393e+00 6.150110e+01 1.168066e+00 5.426392e+01 1.106681e+00 4.708377e+01 1.049385e+00 3.995460e+01 9.667052e-01 3.283166e+01 9.271764e-01 2.574243e+01 8.642067e-01 1.863572e+01 8.552182e-01 1.155314e+01 8.339145e-01 4.465215e+00 8.342681e-01 -2.612790e+00 8.218720e-01 -9.689490e+00 7.920290e-01 -1.678414e+01 7.688262e-01 -2.388016e+01 7.022026e-01 -3.103068e+01 6.660057e-01 -3.818645e+01 5.916289e-01 -4.539141e+01 5.777348e-01 -5.255617e+01 6.026315e-01 -5.969615e+01 6.483259e-01 -6.686063e+01 6.979130e-01 -7.409000e+01 7.382186e-01 -8.141681e+01 7.595250e-01 -8.887251e+01 7.537030e-01 -9.649248e+01 
1.131984e+00 -1.055679e+02 1.021099e+00 -1.138918e+02 8.523436e-01 1.170200e+02 1.112424e+00 1.086891e+02 1.317555e+00 1.006396e+02 1.475058e+00 9.281006e+01 1.582866e+00 8.514144e+01 1.626779e+00 7.757686e+01 1.595093e+00 7.006673e+01 1.554395e+00 6.264691e+01 1.503716e+00 5.531284e+01 1.451968e+00 4.803812e+01 1.407050e+00 4.082147e+01 1.348454e+00 3.361609e+01 1.323864e+00 2.644753e+01 1.288049e+00 1.927113e+01 1.290755e+00 1.211788e+01 1.288167e+00 4.967933e+00 1.296455e+00 -2.178790e+00 1.296424e+00 -9.321662e+00 1.278565e+00 -1.648925e+01 1.264167e+00 -2.366286e+01 1.215898e+00 -3.088957e+01 1.185024e+00 -3.813123e+01 1.126955e+00 -4.541687e+01 1.107508e+00 -5.268911e+01 1.123711e+00 -5.995165e+01 1.158237e+00 -6.724747e+01 1.194475e+00 -7.461756e+01 1.219208e+00 -8.209734e+01 1.222485e+00 -8.972178e+01 1.196093e+00 -9.752989e+01 
5.827240e-01 -1.059900e+02 4.663058e-01 -1.144095e+02 2.890913e-01 1.167624e+02 5.920899e-01 1.083294e+02 8.343531e-01 1.001927e+02 1.022295e+00 9.229043e+01 1.154123e+00 8.456457e+01 1.219063e+00 7.696059e+01 1.211635e+00 6.943246e+01 1.184913e+00 6.200340e+01 1.142058e+00 5.466733e+01 1.092887e+00 4.739872e+01 1.043391e+00 4.019316e+01 9.809394e-01 3.300906e+01 9.420033e-01 2.586336e+01 8.952221e-01 1.871905e+01 8.778702e-01 1.159747e+01 8.580537e-01 4.482529e+00 8.472051e-01 -2.628471e+00 8.296824e-01 -9.735930e+00 7.984528e-01 -1.686581e+01 7.688258e-01 -2.400485e+01 7.135790e-01 -3.119161e+01 6.723315e-01 -3.839851e+01 6.149649e-01 -4.564637e+01 5.923142e-01 -5.289525e+01 6.029063e-01 -6.014934e+01 6.309266e-01 -6.744858e+01 6.611401e-01 -7.483371e+01 6.810146e-01 -8.234148e+01 6.804957e-01 -9.000851e+01 6.507276e-01 -9.787543e+01 
1.011721e+00 -1.070881e+02 8.748963e-01 -1.157097e+02 6.764239e-01 1.189141e+02 9.667226e-01 1.102765e+02 1.197073e+00 1.019549e+02 1.375090e+00 9.388795e+01 1.500389e+00 8.601752e+01 1.562718e+00 7.828669e+01 1.553186e+00 7.063884e+01 1.528665e+00 6.310878e+01 1.490148e+00 5.567936e+01 1.449219e+00 4.832451e+01 1.412301e+00 4.103959e+01 1.361995e+00 3.377691e+01 1.341383e+00 2.656063e+01 1.308868e+00 1.934452e+01 1.309021e+00 1.215749e+01 1.303148e+00 4.976209e+00 1.305373e+00 -2.199519e+00 1.300560e+00 -9.372684e+00 1.278287e+00 -1.657216e+01 1.261573e+00 -2.378149e+01 1.212770e+00 -3.104635e+01 1.181498e+00 -3.833405e+01 1.125584e+00 -4.567349e+01 1.100309e+00 -5.301866e+01 1.107873e+00 -6.037658e+01 1.130361e+00 -6.778963e+01 1.151933e+00 -7.529916e+01 1.160142e+00 -8.294294e+01 1.145206e+00 -9.075931e+01 1.098597e+00 -9.879107e+01 
4.747156e-01 -1.073599e+02 3.322499e-01 -1.160466e+02 1.253964e-01 1.184570e+02 4.534259e-01 1.097515e+02 7.182866e-01 1.013766e+02 9.290702e-01 9.327154e+01 1.087604e+00 8.537744e+01 1.181154e+00 7.763223e+01 1.175769e+00 6.994650e+01 1.152260e+00 6.241504e+01 1.120770e+00 5.499629e+01 1.073704e+00 4.765471e+01 1.043582e+00 4.040286e+01 9.725450e-01 3.315291e+01 9.566156e-01 2.597978e+01 9.020861e-01 1.878222e+01 8.968721e-01 1.163835e+01 8.768725e-01 4.492188e+00 8.618680e-01 -2.642834e+00 8.492429e-01 -9.767676e+00 8.021010e-01 -1.693390e+01 7.876055e-01 -2.408857e+01 7.161511e-01 -3.133009e+01 6.902304e-01 -3.857420e+01 6.138914e-01 -4.590734e+01 5.676862e-01 -5.322510e+01 5.738244e-01 -6.055160e+01 5.993302e-01 -6.794666e+01 6.227049e-01 -7.545277e+01 6.308190e-01 -8.310632e+01 6.144437e-01 -9.094527e+01 5.653467e-01 -9.901285e+01 
9.148175e-01 -1.082921e+02 7.561340e-01 -1.171459e+02 5.325937e-01 1.204152e+02 8.473795e-01 1.115418e+02 1.100694e+00 1.030145e+02 1.303465e+00 9.477314e+01 1.459656e+00 8.675887e+01 1.555542e+00 7.890656e+01 1.533748e+00 7.108818e+01 1.505094e+00 6.347314e+01 1.479983e+00 5.596276e+01 1.434380e+00 4.854716e+01 1.424138e+00 4.122569e+01 1.347464e+00 3.389818e+01 1.360334e+00 2.666900e+01 1.305005e+00 1.939156e+01 1.324276e+00 1.219526e+01 1.315999e+00 4.973434e+00 1.314454e+00 -2.215814e+00 1.320276e+00 -9.407292e+00 1.271817e+00 -1.663879e+01 1.281766e+00 -2.385242e+01 1.199836e+00 -3.117729e+01 1.194701e+00 -3.848825e+01 1.106432e+00 -4.593474e+01 1.054038e+00 -5.333130e+01 1.064891e+00 -6.074069e+01 1.091173e+00 -6.823175e+01 1.110478e+00 -7.584532e+01 1.110543e+00 -8.361673e+01 1.083068e+00 -9.158418e+01 1.020559e+00 -9.979193e+01 
3.907863e-01 -1.083995e+02 2.270893e-01 -1.172871e+02 -4.031453e-03 1.197424e+02 3.431977e-01 1.108354e+02 6.272521e-01 1.022887e+02 8.628368e-01 9.404555e+01 1.062196e+00 8.605076e+01 1.219375e+00 7.823344e+01 1.181910e+00 7.029181e+01 1.100983e+00 6.272975e+01 1.123362e+00 5.522413e+01 1.024391e+00 4.784223e+01 1.074074e+00 4.058537e+01 9.182995e-01 3.323815e+01 9.862231e-01 2.610893e+01 8.815642e-01 1.879427e+01 9.075782e-01 1.169290e+01 9.079975e-01 4.471623e+00 8.584958e-01 -2.644868e+00 9.033618e-01 -9.785324e+00 7.749073e-01 -1.699281e+01 8.437075e-01 -2.410486e+01 6.927269e-01 -3.145610e+01 7.343034e-01 -3.866256e+01 6.119469e-01 -4.620787e+01 4.771340e-01 -5.353585e+01 5.101453e-01 -6.087774e+01 5.573627e-01 -6.833047e+01 5.871352e-01 -7.592396e+01 5.909367e-01 -8.368739e+01 5.637658e-01 -9.165698e+01 4.996654e-01 -9.987680e+01 
8.433163e-01 -1.091549e+02 6.671412e-01 -1.181749e+02 4.234089e-01 1.214887e+02 7.553814e-01 1.124499e+02 1.026224e+00 1.037831e+02 1.252998e+00 9.543382e+01 1.453199e+00 8.735118e+01 1.633479e+00 7.947054e+01 1.566469e+00 7.130801e+01 1.425636e+00 6.375890e+01 1.510942e+00 5.610953e+01 1.356956e+00 4.871226e+01 1.487895e+00 4.137397e+01 1.257113e+00 3.394999e+01 1.406259e+00 2.680134e+01 1.266514e+00 1.935653e+01 1.322411e+00 1.227403e+01 1.354118e+00 4.901550e+00 1.283159e+00 -2.192751e+00 1.394391e+00 -9.447976e+00 1.206675e+00 -1.668904e+01 1.359286e+00 -2.384666e+01 1.143830e+00 -3.130931e+01 1.244425e+00 -3.851048e+01 1.098811e+00 -4.629052e+01 9.202195e-01 -5.361448e+01 9.885971e-01 -6.101525e+01 1.046261e+00 -6.854912e+01 1.076027e+00 -7.623454e+01 1.074430e+00 -8.409765e+01 1.038697e+00 -9.217427e+01 9.640243e-01 -1.005089e+02 
3.330857e-01 -1.090874e+02 1.530374e-01 -1.181089e+02 -9.681203e-02 1.205856e+02 2.613179e-01 1.115457e+02 5.562010e-01 1.028892e+02 8.081155e-01 9.457181e+01 1.049286e+00 8.657827e+01 1.364059e+00 7.895141e+01 1.379949e+00 7.016852e+01 8.059645e-01 6.309600e+01 1.323192e+00 5.519626e+01 7.735093e-01 4.802469e+01 1.275225e+00 4.073840e+01 7.097231e-01 3.318711e+01 1.062912e+00 2.637431e+01 8.662770e-01 1.858082e+01 8.034878e-01 1.192927e+01 1.105165e+00 4.233440e+00 6.634037e-01 -2.500185e+00 1.157626e+00 -9.873415e+00 5.614174e-01 -1.703791e+01 1.029057e+00 -2.397375e+01 5.910551e-01 -3.168421e+01 7.893382e-01 -3.840244e+01 7.839200e-01 -4.682439e+01 1.370710e-01 -5.377912e+01 4.096854e-01 -6.108357e+01 5.220646e-01 -6.857363e+01 5.662940e-01 -7.622787e+01 5.680039e-01 -8.406657e+01 5.322381e-01 -9.212476e+01 4.562097e-01 -1.004471e+02 
7.991003e-01 -1.096595e+02 6.099212e-01 -1.187789e+02 3.513910e-01 1.221063e+02 6.907762e-01 1.129693e+02 9.687252e-01 1.042220e+02 1.206357e+00 9.582260e+01 1.437928e+00 8.776186e+01 1.758369e+00 8.009651e+01 1.779205e+00 7.114008e+01 1.153890e+00 6.406959e+01 1.724190e+00 5.606023e+01 1.130550e+00 4.885850e+01 1.685794e+00 4.151382e+01 1.085943e+00 3.388189e+01 1.476847e+00 2.705589e+01 1.283889e+00 1.914977e+01 1.219470e+00 1.249843e+01 1.571606e+00 4.693340e+00 1.092434e+00 -2.050943e+00 1.654406e+00 -9.506551e+00 1.011418e+00 -1.672225e+01 1.535745e+00 -2.369497e+01 1.072837e+00 -3.150436e+01 1.294912e+00 -3.822624e+01 1.312292e+00 -4.680571e+01 5.988667e-01 -5.378331e+01 9.015818e-01 -6.115344e+01 1.020354e+00 -6.871799e+01 1.062699e+00 -7.645053e+01 1.058973e+00 -8.437091e+01 1.015848e+00 -9.251436e+01 9.313114e-01 -1.009259e+02 
3.031976e-01 -1.094101e+02 1.118773e-01 -1.184979e+02 -1.500635e-01 1.209630e+02 2.085483e-01 1.118544e+02 5.026478e-01 1.031327e+02 7.501118e-01 9.474529e+01 9.706142e-01 8.664670e+01 1.181152e+00 7.878628e+01 1.145082e+00 7.051695e+01 9.666373e-01 6.304357e+01 1.115900e+00 5.536633e+01 9.213343e-01 4.801802e+01 1.102634e+00 4.071181e+01 8.312604e-01 3.329244e+01 1.003175e+00 2.622447e+01 8.546472e-01 1.876082e+01 8.842000e-01 1.177571e+01 9.484206e-01 4.394406e+00 8.155734e-01 -2.612817e+00 9.749873e-01 -9.843441e+00 7.229752e-01 -1.703743e+01 9.170642e-01 -2.412416e+01 6.681376e-01 -3.158238e+01 7.799414e-01 -3.868207e+01 6.560246e-01 -4.651574e+01 3.999751e-01 -5.376517e+01 4.955749e-01 -6.113944e+01 5.556784e-01 -6.866502e+01 5.796184e-01 -7.635441e+01 5.691648e-01 -8.423295e+01 5.231057e-01 -9.233672e+01 4.369154e-01 -1.007110e+02 
7.833273e-01 -1.097963e+02 5.858705e-01 -1.189478e+02 3.190780e-01 1.222505e+02 6.545908e-01 1.130780e+02 9.275760e-01 1.042917e+02 1.155169e+00 9.583599e+01 1.352961e+00 8.765561e+01 1.517796e+00 7.967476e+01 1.478460e+00 7.156821e+01 1.410588e+00 6.389150e+01 1.449113e+00 5.626701e+01 1.363575e+00 4.879414e+01 1.439701e+00 4.144587e+01 1.289701e+00 3.401502e+01 1.390394e+00 2.681485e+01 1.291194e+00 1.941945e+01 1.343734e+00 1.225943e+01 1.355574e+00 4.959472e+00 1.322241e+00 -2.212568e+00 1.385305e+00 -9.427377e+00 1.263036e+00 -1.669939e+01 1.358928e+00 -2.388091e+01 1.207515e+00 -3.131346e+01 1.274774e+00 -3.859475e+01 1.145075e+00 -4.625598e+01 1.007937e+00 -5.367941e+01 1.037692e+00 -6.114001e+01 1.075010e+00 -6.873342e+01 1.088182e+00 -7.648692e+01 1.070083e+00 -8.442882e+01 1.016986e+00 -9.259589e+01 9.238202e-01 -1.010336e+02 
3.015790e-01 -1.093612e+02 1.041714e-01 -1.184475e+02 -1.634026e-01 1.208676e+02 1.857377e-01 1.117569e+02 4.685874e-01 1.030258e+02 6.984874e-01 9.461505e+01 8.835196e-01 8.646618e+01 1.014500e+00 7.851239e+01 1.021900e+00 7.060394e+01 1.014208e+00 6.294284e+01 1.022201e+00 5.540146e+01 9.882887e-01 4.796971e+01 1.002601e+00 4.065087e+01 9.266222e-01 3.332252e+01 9.523742e-01 2.611923e+01 8.934914e-01 1.885507e+01 9.090226e-01 1.169472e+01 8.983064e-01 4.500286e+00 8.823860e-01 -2.652675e+00 8.896788e-01 -9.806963e+00 8.280793e-01 -1.700839e+01 8.465235e-01 -2.417862e+01 7.604848e-01 -3.148311e+01 7.645671e-01 -3.875932e+01 6.754813e-01 -4.621286e+01 6.055676e-01 -5.361268e+01 6.075594e-01 -6.104984e+01 6.191119e-01 -6.859883e+01 6.174752e-01 -7.629787e+01 5.921267e-01 -8.418103e+01 5.360075e-01 -9.228716e+01 4.420026e-01 -1.006624e+02 