# vtk DataFile Version 2.0
Comment goes here
ASCII

DATASET STRUCTURED_POINTS
FIELD FieldData 1
TIME 1 1 double
0.03400000
DIMENSIONS    64   64   1

ORIGIN    0.000   0.000   0.000
SPACING   0.03125 0.03125   1.000

POINT_DATA   4096
SCALARS P double
LOOKUP_TABLE default

-3.430917e+01 -1.968575e+02 -1.591398e+01 -2.008705e+02 -6.422715e-01 1.288895e+02 -1.010074e+01 1.230218e+02 -1.170559e+01 1.179585e+02 -1.620559e+01 1.145316e+02 -2.037425e+01 1.060288e+02 -1.628331e+01 9.335836e+01 -1.220495e+01 7.999076e+01 -2.791918e+00 6.016575e+01 8.402731e+00 4.086370e+01 1.517385e+01 2.991666e+01 9.735115e+00 2.862463e+01 -3.265189e-01 2.406329e+01 -1.636653e+00 1.079000e+01 2.790320e-02 -1.037211e+00 -1.049870e+00 -1.198620e+01 -3.191756e+00 -2.129536e+01 -8.590168e+00 -2.775910e+01 -1.334773e+01 -3.770043e+01 -1.788830e+01 -4.267919e+01 -2.772616e+01 -4.628500e+01 -3.783290e+01 -5.044236e+01 -4.641708e+01 -5.687884e+01 -5.416941e+01 -6.352372e+01 -5.924329e+01 -7.476278e+01 -5.895090e+01 -8.937910e+01 -5.648601e+01 -1.074096e+02 -4.713896e+01 -1.309131e+02 -3.951424e+01 -1.468799e+02 -3.681327e+01 -1.609402e+02 -3.479765e+01 -1.670638e+02 
-1.243403e+01 -1.325941e+02 -2.055300e+00 -1.350524e+02 7.505110e+00 1.106231e+02 -5.336665e-01 1.056219e+02 -1.884155e+00 1.010207e+02 -4.762192e+00 9.733516e+01 -7.552412e+00 9.070369e+01 -5.783942e+00 8.196292e+01 -4.653410e+00 7.315477e+01 -5.774937e-01 6.057521e+01 4.656791e+00 4.796532e+01 8.053549e+00 3.949639e+01 5.104049e+00 3.610493e+01 -1.338549e-01 3.073676e+01 -3.943242e-01 2.047418e+01 9.017205e-01 1.115692e+01 7.936277e-01 2.069968e+00 3.183595e-01 -6.068957e+00 -1.893120e+00 -1.271139e+01 -3.428575e+00 -2.160823e+01 -4.563735e+00 -2.769719e+01 -8.580753e+00 -3.309394e+01 -1.271559e+01 -3.870062e+01 -1.594879e+01 -4.538409e+01 -1.920598e+01 -5.143955e+01 -2.152715e+01 -5.961007e+01 -2.129067e+01 -6.893199e+01 -2.070000e+01 -7.951422e+01 -1.635528e+01 -9.322747e+01 -1.301786e+01 -1.024737e+02 -1.227700e+01 -1.110444e+02 -1.161191e+01 -1.142382e+02 
1.642265e+00 -9.001179e+01 3.814264e+00 -9.181648e+01 6.436777e+00 9.536485e+01 3.408777e+00 9.224581e+01 2.778473e+00 8.837628e+01 1.884333e+00 8.412016e+01 9.867293e-01 7.879820e+01 9.601394e-01 7.291175e+01 4.722847e-01 6.693489e+01 5.674415e-01 5.995393e+01 9.533904e-01 5.269790e+01 1.287049e+00 4.583248e+01 6.399305e-01 3.967286e+01 -2.759860e-01 3.304482e+01 -1.053861e-01 2.545056e+01 4.422845e-01 1.802966e+01 8.982903e-01 1.046262e+01 1.384825e+00 3.080240e+00 1.484173e+00 -4.034444e+00 1.772093e+00 -1.172152e+01 2.161613e+00 -1.874134e+01 1.936026e+00 -2.561094e+01 1.692584e+00 -3.241782e+01 1.616391e+00 -3.924399e+01 1.323245e+00 -4.548543e+01 1.015739e+00 -5.180446e+01 1.061919e+00 -5.786497e+01 8.394216e-01 -6.369758e+01 1.352231e+00 -7.002721e+01 1.703798e+00 -7.519221e+01 1.709222e+00 -8.020763e+01 1.957184e+00 -8.336316e+01 
1.844263e+00 -9.254900e+01 3.528320e+00 -9.576738e+01 4.361509e+00 9.811278e+01 3.632025e+00 9.466309e+01 2.756189e+00 9.045589e+01 1.793853e+00 8.573993e+01 9.918647e-01 8.023187e+01 7.266731e-01 7.412030e+01 5.663249e-01 6.759539e+01 8.490818e-01 6.042642e+01 1.366078e+00 5.309176e+01 1.687875e+00 4.612930e+01 1.354137e+00 3.962030e+01 8.019729e-01 3.283522e+01 7.440582e-01 2.542852e+01 9.764734e-01 1.789910e+01 1.217272e+00 1.032508e+01 1.406293e+00 2.910541e+00 1.428710e+00 -4.366927e+00 1.529531e+00 -1.177865e+01 1.626800e+00 -1.884403e+01 1.400671e+00 -2.569736e+01 1.070099e+00 -3.245701e+01 8.021999e-01 -3.916459e+01 4.553386e-01 -4.562207e+01 1.390258e-01 -5.210717e+01 4.427409e-02 -5.853344e+01 1.326644e-02 -6.490951e+01 4.026239e-01 -7.134694e+01 8.097344e-01 -7.709594e+01 1.058007e+00 -8.238927e+01 1.388868e+00 -8.696498e+01 
2.304204e+00 -8.968709e+01 3.367963e+00 -9.290720e+01 4.136216e+00 9.613623e+01 3.374654e+00 9.274476e+01 2.700722e+00 8.860813e+01 2.037769e+00 8.390685e+01 1.472095e+00 7.855623e+01 1.184172e+00 7.270885e+01 9.184144e-01 6.650931e+01 8.664394e-01 5.984241e+01 9.409141e-01 5.295965e+01 9.544290e-01 4.614099e+01 6.776301e-01 3.946071e+01 3.462527e-01 3.257236e+01 3.599113e-01 2.532476e+01 5.901342e-01 1.799347e+01 8.662074e-01 1.060955e+01 1.134773e+00 3.283607e+00 1.298617e+00 -3.965370e+00 1.468567e+00 -1.127563e+01 1.600963e+00 -1.837482e+01 1.531870e+00 -2.533312e+01 1.393251e+00 -3.218955e+01 1.271648e+00 -3.893081e+01 1.104981e+00 -4.542861e+01 9.652740e-01 -5.180298e+01 9.497270e-01 -5.799794e+01 9.664551e-01 -6.402804e+01 1.201127e+00 -6.997083e+01 1.452457e+00 -7.542294e+01 1.654916e+00 -8.048684e+01 1.943554e+00 -8.496666e+01 
2.055537e+00 -9.291316e+01 3.019279e+00 -9.678941e+01 3.754742e+00 9.879734e+01 3.243312e+00 9.508789e+01 2.599133e+00 9.064164e+01 1.950966e+00 8.561538e+01 1.426519e+00 8.000727e+01 1.135545e+00 7.389609e+01 1.003852e+00 6.737252e+01 1.083232e+00 6.048471e+01 1.263939e+00 5.344785e+01 1.358189e+00 4.648079e+01 1.228878e+00 3.960921e+01 1.013242e+00 3.259857e+01 9.474489e-01 2.533335e+01 1.007473e+00 1.793761e+01 1.110186e+00 1.050719e+01 1.192881e+00 3.133410e+00 1.222214e+00 -4.168243e+00 1.238958e+00 -1.142964e+01 1.205883e+00 -1.854027e+01 1.049111e+00 -2.551014e+01 8.168781e-01 -3.238211e+01 5.879972e-01 -3.915873e+01 3.538299e-01 -4.580888e+01 1.742958e-01 -5.238913e+01 1.157178e-01 -5.888270e+01 1.690955e-01 -6.527408e+01 3.995451e-01 -7.152092e+01 7.055681e-01 -7.740105e+01 1.033212e+00 -8.290382e+01 1.455584e+00 -8.800757e+01 
2.315927e+00 -9.114996e+01 3.002866e+00 -9.520322e+01 3.636885e+00 9.770193e+01 3.123797e+00 9.378476e+01 2.592925e+00 8.928352e+01 2.103687e+00 8.426849e+01 1.697973e+00 7.876188e+01 1.411453e+00 7.283017e+01 1.187878e+00 6.653855e+01 1.071979e+00 5.993754e+01 1.013992e+00 5.315458e+01 9.347626e-01 4.630967e+01 7.787475e-01 3.944187e+01 6.189751e-01 3.243867e+01 6.030900e-01 2.527007e+01 6.951443e-01 1.800432e+01 8.508564e-01 1.070277e+01 1.007163e+00 3.419622e+00 1.128160e+00 -3.826488e+00 1.220180e+00 -1.103853e+01 1.253999e+00 -1.815638e+01 1.204887e+00 -2.516654e+01 1.093021e+00 -3.208404e+01 9.840332e-01 -3.887695e+01 8.702539e-01 -4.551028e+01 8.008214e-01 -5.199578e+01 8.103128e-01 -5.831168e+01 8.850225e-01 -6.445561e+01 1.057160e+00 -7.041606e+01 1.279064e+00 -7.607604e+01 1.533619e+00 -8.142017e+01 1.864964e+00 -8.641681e+01 
1.893093e+00 -9.442120e+01 2.562595e+00 -9.895308e+01 3.169339e+00 1.004207e+02 2.827361e+00 9.614080e+01 2.401916e+00 9.132529e+01 1.985038e+00 8.601845e+01 1.643780e+00 8.025011e+01 1.411442e+00 7.406401e+01 1.269012e+00 6.750763e+01 1.250985e+00 6.068856e+01 1.276349e+00 5.372994e+01 1.271510e+00 4.672746e+01 1.192220e+00 3.971312e+01 1.066070e+00 3.258960e+01 1.012143e+00 2.534769e+01 9.965746e-01 1.800459e+01 1.033799e+00 1.063997e+01 1.055465e+00 3.300083e+00 1.055258e+00 -3.992920e+00 1.021964e+00 -1.122230e+01 9.285556e-01 -1.837608e+01 7.846410e-01 -2.542809e+01 5.745127e-01 -3.241334e+01 3.852034e-01 -3.930049e+01 2.014774e-01 -4.608983e+01 8.994074e-02 -5.278032e+01 7.625395e-02 -5.935258e+01 1.576899e-01 -6.579420e+01 3.443543e-01 -7.207152e+01 6.093387e-01 -7.810452e+01 9.382228e-01 -8.385808e+01 1.355748e+00 -8.930656e+01 
2.073895e+00 -9.332436e+01 2.571248e+00 -9.811432e+01 3.060609e+00 9.998738e+01 2.749976e+00 9.539972e+01 2.404683e+00 9.043715e+01 2.085175e+00 8.508947e+01 1.817158e+00 7.936607e+01 1.595915e+00 7.328808e+01 1.383945e+00 6.686530e+01 1.246852e+00 6.020692e+01 1.130002e+00 5.340464e+01 1.009042e+00 4.649704e+01 8.892726e-01 3.954535e+01 7.552752e-01 3.246178e+01 7.372009e-01 2.530355e+01 7.473380e-01 1.805058e+01 8.432041e-01 1.078125e+01 9.288206e-01 3.523399e+00 1.001277e+00 -3.715841e+00 1.040408e+00 -1.089740e+01 1.004008e+00 -1.804734e+01 9.473847e-01 -2.510158e+01 8.084780e-01 -3.210954e+01 7.133003e-01 -3.899572e+01 6.075164e-01 -4.575444e+01 5.699506e-01 -5.236894e+01 6.123765e-01 -5.880473e+01 7.145625e-01 -6.507088e+01 8.780519e-01 -7.116724e+01 1.090517e+00 -7.705916e+01 1.348937e+00 -8.272787e+01 1.670194e+00 -8.815557e+01 
1.572494e+00 -9.648209e+01 2.059944e+00 -1.016819e+02 2.520968e+00 1.027381e+02 2.361363e+00 9.778271e+01 2.144982e+00 9.250294e+01 1.932422e+00 8.687432e+01 1.758237e+00 8.089809e+01 1.613825e+00 7.458140e+01 1.450276e+00 6.789945e+01 1.401386e+00 6.102811e+01 1.341479e+00 5.404749e+01 1.273583e+00 4.698022e+01 1.200300e+00 3.990433e+01 1.052942e+00 3.268868e+01 1.027793e+00 2.544738e+01 9.456980e-01 1.809296e+01 9.785199e-01 1.075331e+01 9.576858e-01 3.427069e+00 9.386920e-01 -3.869651e+00 8.768969e-01 -1.109140e+01 7.213133e-01 -1.830937e+01 5.898731e-01 -2.542351e+01 3.328505e-01 -3.254888e+01 1.819456e-01 -3.955850e+01 -8.708520e-03 -4.649248e+01 -8.586463e-02 -5.330501e+01 -5.826889e-02 -5.996027e+01 4.619735e-02 -6.648003e+01 2.248026e-01 -7.286561e+01 4.678705e-01 -7.908785e+01 7.698680e-01 -8.511894e+01 1.136716e+00 -9.093102e+01 
1.706074e+00 -9.581252e+01 2.057498e+00 -1.012977e+02 2.392312e+00 1.027768e+02 2.284768e+00 9.749120e+01 2.137233e+00 9.201540e+01 1.998618e+00 8.630034e+01 1.888384e+00 8.032457e+01 1.776963e+00 7.406518e+01 1.553148e+00 6.741684e+01 1.417960e+00 6.061969e+01 1.268919e+00 5.374565e+01 1.096660e+00 4.673343e+01 1.006438e+00 3.975802e+01 7.988802e-01 3.256448e+01 8.278612e-01 2.542064e+01 7.419090e-01 1.811681e+01 8.443447e-01 1.085687e+01 8.794964e-01 3.604589e+00 9.179156e-01 -3.650758e+00 9.349298e-01 -1.080264e+01 7.958969e-01 -1.802616e+01 7.620643e-01 -2.509834e+01 5.143927e-01 -3.225743e+01 4.554129e-01 -3.925318e+01 3.048312e-01 -4.616817e+01 2.728431e-01 -5.292812e+01 3.537058e-01 -5.946431e+01 4.841622e-01 -6.584943e+01 6.569070e-01 -7.211582e+01 8.649302e-01 -7.825818e+01 1.106143e+00 -8.426458e+01 1.385411e+00 -9.012208e+01 
1.166336e+00 -9.880629e+01 1.499683e+00 -1.046568e+02 1.798166e+00 1.055078e+02 1.836612e+00 9.987319e+01 1.825824e+00 9.409403e+01 1.815587e+00 8.811531e+01 1.831772e+00 8.190422e+01 1.829536e+00 7.542470e+01 1.593029e+00 6.847302e+01 1.561472e+00 6.148606e+01 1.440355e+00 5.442633e+01 1.289018e+00 4.725930e+01 1.260577e+00 4.018951e+01 9.522713e-01 3.283018e+01 1.059469e+00 2.563495e+01 8.284293e-01 1.817308e+01 9.585115e-01 1.086833e+01 8.854803e-01 3.512208e+00 8.716031e-01 -3.793910e+00 8.195460e-01 -1.099446e+01 5.225019e-01 -1.832289e+01 4.900750e-01 -2.543587e+01 3.883168e-02 -3.279394e+01 1.810814e-03 -3.990622e+01 -2.915614e-01 -4.706297e+01 -3.590136e-01 -5.399566e+01 -2.823901e-01 -6.069397e+01 -1.438523e-01 -6.728672e+01 4.625085e-02 -7.380832e+01 2.766358e-01 -8.024398e+01 5.417239e-01 -8.657086e+01 8.402109e-01 -9.276681e+01 
1.267051e+00 -9.840784e+01 1.479492e+00 -1.045434e+02 1.646599e+00 1.058684e+02 1.746283e+00 9.991120e+01 1.796513e+00 9.391728e+01 1.847942e+00 8.782774e+01 1.935810e+00 8.160375e+01 2.034045e+00 7.517953e+01 1.765836e+00 6.807254e+01 1.555376e+00 6.116187e+01 1.469341e+00 5.415371e+01 1.105970e+00 4.699796e+01 1.190366e+00 4.010439e+01 6.850770e-01 3.266120e+01 9.384333e-01 2.567038e+01 6.536405e-01 1.812763e+01 8.514875e-01 1.097922e+01 8.759145e-01 3.622712e+00 8.485415e-01 -3.614087e+00 9.568764e-01 -1.072029e+01 5.399153e-01 -1.810216e+01 7.057399e-01 -2.505722e+01 1.373114e-01 -3.256318e+01 2.300035e-01 -3.957143e+01 -3.655457e-02 -4.683919e+01 -1.305612e-01 -5.370402e+01 1.970922e-02 -6.024898e+01 2.011356e-01 -6.672428e+01 4.002543e-01 -7.316841e+01 6.075897e-01 -7.956982e+01 8.213658e-01 -8.591528e+01 1.042412e+00 -9.219657e+01 
7.120190e-01 -1.012175e+02 8.962024e-01 -1.076804e+02 1.016326e+00 1.085217e+02 1.256983e+00 1.022458e+02 1.440029e+00 9.597934e+01 1.625831e+00 8.966862e+01 1.875824e+00 8.326073e+01 2.181252e+00 7.661746e+01 1.788712e+00 6.898294e+01 1.612483e+00 6.213944e+01 1.664579e+00 5.474132e+01 1.120572e+00 4.760221e+01 1.516672e+00 4.055686e+01 5.599382e-01 3.291493e+01 1.225315e+00 2.599794e+01 5.597627e-01 1.805838e+01 9.675196e-01 1.114102e+01 8.581522e-01 3.377779e+00 7.714006e-01 -3.648803e+00 9.570356e-01 -1.096932e+01 1.356917e-01 -1.842075e+01 6.336786e-01 -2.532918e+01 -4.771211e-01 -3.327273e+01 -7.727316e-02 -4.015995e+01 -6.604964e-01 -4.808715e+01 -8.026619e-01 -5.489108e+01 -6.229413e-01 -6.148476e+01 -4.026268e-01 -6.813300e+01 -1.731086e-01 -7.481214e+01 5.249042e-02 -8.148013e+01 2.761121e-01 -8.811189e+01 4.984860e-01 -9.469368e+01 
7.921326e-01 -1.009799e+02 8.645095e-01 -1.077134e+02 8.529583e-01 1.090822e+02 1.154807e+00 1.025021e+02 1.384645e+00 9.601500e+01 1.603501e+00 8.957745e+01 1.892354e+00 8.318678e+01 2.374135e+00 7.692076e+01 2.438070e+00 6.802823e+01 9.852657e-01 6.223586e+01 2.122019e+00 5.414649e+01 4.548462e-01 4.742483e+01 1.741250e+00 4.053713e+01 8.885742e-02 3.245252e+01 1.065130e+00 2.637163e+01 5.706755e-01 1.741117e+01 5.055305e-01 1.167972e+01 1.128418e+00 2.888206e+00 3.385256e-01 -3.213213e+00 1.350124e+00 -1.091078e+01 -1.972088e-01 -1.832287e+01 9.509642e-01 -2.471555e+01 -4.847389e-01 -3.352223e+01 -9.340103e-02 -3.937280e+01 -3.376132e-01 -4.861626e+01 -9.091563e-01 -5.465740e+01 -4.380274e-01 -6.102538e+01 -1.199569e-01 -6.759495e+01 1.317865e-01 -7.423931e+01 3.398226e-01 -8.090901e+01 5.177529e-01 -8.758816e+01 6.703584e-01 -9.427602e+01 
2.380701e-01 -1.035962e+02 2.746522e-01 -1.106211e+02 2.101513e-01 1.115963e+02 6.425669e-01 1.047269e+02 9.890523e-01 9.799732e+01 1.316399e+00 9.141025e+01 1.739286e+00 8.509333e+01 2.570371e+00 7.937772e+01 3.136082e+00 6.821049e+01 6.202515e-01 6.399968e+01 3.160005e+00 5.431262e+01 -5.109782e-02 4.832732e+01 2.585070e+00 4.130224e+01 -2.171356e-01 3.236828e+01 1.294037e+00 2.754147e+01 9.783676e-01 1.662886e+01 9.421976e-02 1.274872e+01 2.102894e+00 1.984765e+00 -3.859137e-01 -2.591884e+00 2.307450e+00 -1.128493e+01 -1.077854e+00 -1.868407e+01 1.285373e+00 -2.431394e+01 -9.213371e-01 -3.486492e+01 -6.627370e-01 -3.900521e+01 2.299479e-01 -5.072650e+01 -2.282268e+00 -5.562711e+01 -1.186924e+00 -6.210167e+01 -6.838820e-01 -6.891865e+01 -3.865220e-01 -7.580871e+01 -1.723881e-01 -8.272615e+01 -3.389929e-04 -8.966126e+01 1.390216e-01 -9.661511e+01 
3.104245e-01 -1.034382e+02 2.442232e-01 -1.107119e+02 5.820859e-02 1.122547e+02 5.463799e-01 1.051045e+02 9.306940e-01 9.815177e+01 1.267163e+00 9.138359e+01 1.627122e+00 8.485769e+01 2.159814e+00 7.867889e+01 2.382060e+00 6.851453e+01 1.126115e+00 6.331958e+01 2.471392e+00 5.445566e+01 4.459436e-01 4.798267e+01 2.122590e+00 4.109246e+01 8.199443e-02 3.246871e+01 1.209204e+00 2.706356e+01 8.872218e-01 1.708133e+01 3.263622e-01 1.229963e+01 1.733430e+00 2.570206e+00 -3.143209e-02 -2.806316e+00 1.964386e+00 -1.090239e+01 -6.286435e-01 -1.841640e+01 1.246679e+00 -2.433980e+01 -5.422633e-01 -3.414198e+01 -3.185059e-01 -3.905129e+01 3.680247e-01 -4.962202e+01 -1.796724e+00 -5.510358e+01 -8.554672e-01 -6.160386e+01 -3.747007e-01 -6.839613e+01 -9.073816e-02 -7.527849e+01 9.561717e-02 -8.221813e+01 2.214253e-01 -8.921530e+01 2.955393e-01 -9.628194e+01 
-2.309243e-01 -1.058565e+02 -3.355828e-01 -1.133870e+02 -5.687743e-01 1.145750e+02 3.275506e-02 1.071510e+02 5.236631e-01 9.992869e+01 9.574375e-01 9.286133e+01 1.383745e+00 8.588987e+01 1.784875e+00 7.881469e+01 1.294781e+00 7.033996e+01 1.621079e+00 6.343538e+01 1.459451e+00 5.548355e+01 1.148521e+00 4.835899e+01 1.498733e+00 4.101585e+01 4.418169e-01 3.330816e+01 1.243009e+00 2.634044e+01 3.252314e-01 1.814237e+01 9.049663e-01 1.140910e+01 6.046011e-01 3.222921e+00 6.455753e-01 -3.553834e+00 8.010911e-01 -1.124059e+01 -1.133469e-01 -1.857259e+01 5.500656e-01 -2.570045e+01 -8.510072e-01 -3.378679e+01 -2.751001e-01 -4.069829e+01 -1.052963e+00 -4.916446e+01 -1.153545e+00 -5.590057e+01 -9.282614e-01 -6.273743e+01 -6.994538e-01 -6.971525e+01 -5.071166e-01 -7.679131e+01 -3.623674e-01 -8.394021e+01 -2.638219e-01 -9.115874e+01 -2.154298e-01 -9.845728e+01 
-1.541952e-01 -1.057160e+02 -3.520030e-01 -1.134699e+02 -6.956085e-01 1.152429e+02 -4.653155e-02 1.075597e+02 4.759388e-01 1.001126e+02 9.202973e-01 9.283956e+01 1.330814e+00 8.565724e+01 1.711767e+00 7.839592e+01 1.636473e+00 7.063679e+01 1.550504e+00 6.316232e+01 1.662005e+00 5.574983e+01 1.214205e+00 4.823724e+01 1.463907e+00 4.113539e+01 7.922034e-01 3.339265e+01 1.171413e+00 2.632114e+01 7.793363e-01 1.854879e+01 9.607915e-01 1.136949e+01 9.918254e-01 3.884539e+00 8.108517e-01 -3.426991e+00 9.946119e-01 -1.060559e+01 3.249828e-01 -1.822544e+01 6.400340e-01 -2.522926e+01 -1.510593e-01 -3.315301e+01 3.619728e-02 -4.030504e+01 -3.196002e-01 -4.806852e+01 -6.271461e-01 -5.525608e+01 -5.056436e-01 -6.218532e+01 -3.435390e-01 -6.918310e+01 -1.977123e-01 -7.627492e+01 -9.582009e-02 -8.345907e+01 -4.731217e-02 -9.074535e+01 -6.140274e-02 -9.815433e+01 
-6.762560e-01 -1.079334e+02 -9.138209e-01 -1.159099e+02 -1.304136e+00 1.173363e+02 -5.597727e-01 1.094046e+02 4.593678e-02 1.017033e+02 5.487559e-01 9.416044e+01 9.643796e-01 8.668866e+01 1.247757e+00 7.917047e+01 1.194281e+00 7.142449e+01 1.311728e+00 6.381845e+01 1.289397e+00 5.623377e+01 1.173089e+00 4.869766e+01 1.180649e+00 4.128119e+01 8.284397e-01 3.368289e+01 9.558041e-01 2.629138e+01 6.400139e-01 1.864431e+01 7.844842e-01 1.123810e+01 6.352660e-01 3.697578e+00 6.340263e-01 -3.705278e+00 5.286818e-01 -1.109991e+01 1.964584e-01 -1.860522e+01 1.594018e-01 -2.594596e+01 -3.823450e-01 -3.363092e+01 -3.770870e-01 -4.104328e+01 -7.725603e-01 -4.869912e+01 -7.711598e-01 -5.603173e+01 -7.242299e-01 -6.321752e+01 -6.507759e-01 -7.042335e+01 -5.726945e-01 -7.770216e+01 -5.171228e-01 -8.507279e+01 -5.034757e-01 -9.255169e+01 -5.493081e-01 -1.001614e+02 
-5.855955e-01 -1.077624e+02 -9.060137e-01 -1.159345e+02 -1.393825e+00 1.179545e+02 -6.087016e-01 1.097958e+02 2.625451e-02 1.018979e+02 5.459520e-01 9.418944e+01 9.690062e-01 8.659214e+01 1.269786e+00 7.902447e+01 1.317860e+00 7.139445e+01 1.365978e+00 6.374848e+01 1.382653e+00 5.624789e+01 1.247085e+00 4.868396e+01 1.246460e+00 4.129658e+01 9.971681e-01 3.373664e+01 1.054881e+00 2.634168e+01 8.798572e-01 1.882596e+01 9.286377e-01 1.140646e+01 8.740939e-01 4.024630e+00 8.048889e-01 -3.395629e+00 7.480864e-01 -1.070036e+01 4.751775e-01 -1.819118e+01 4.185353e-01 -2.552529e+01 5.259168e-02 -3.310484e+01 -1.293084e-02 -4.053005e+01 -2.664565e-01 -4.800829e+01 -3.689033e-01 -5.539648e+01 -3.518736e-01 -6.263673e+01 -3.092685e-01 -6.987233e+01 -2.670011e-01 -7.717731e+01 -2.517781e-01 -8.458817e+01 -2.856450e-01 -9.213354e+01 -3.890310e-01 -9.984519e+01 
-1.084740e+00 -1.097772e+02 -1.444665e+00 -1.181384e+02 -1.980108e+00 1.198099e+02 -1.113566e+00 1.114399e+02 -4.104485e-01 1.033293e+02 1.567684e-01 9.540942e+01 5.977942e-01 8.761010e+01 8.914246e-01 7.986321e+01 9.975485e-01 7.209850e+01 1.094888e+00 6.437026e+01 1.121305e+00 5.671085e+01 1.078232e+00 4.907926e+01 1.040561e+00 4.152470e+01 8.887700e-01 3.392635e+01 8.630767e-01 2.639958e+01 7.230222e-01 1.882548e+01 7.125657e-01 1.131704e+01 6.205805e-01 3.816868e+00 5.526985e-01 -3.661451e+00 4.294434e-01 -1.111048e+01 2.209207e-01 -1.862259e+01 6.561955e-02 -2.609489e+01 -2.313732e-01 -3.368205e+01 -3.727855e-01 -4.120351e+01 -5.963737e-01 -4.876220e+01 -6.497869e-01 -5.623922e+01 -6.514742e-01 -6.364037e+01 -6.416790e-01 -7.104416e+01 -6.360817e-01 -7.851236e+01 -6.548021e-01 -8.608585e+01 -7.197743e-01 -9.379732e+01 -8.541713e-01 -1.016807e+02 
-9.727625e-01 -1.095376e+02 -1.404579e+00 -1.180651e+02 -2.023956e+00 1.203354e+02 -1.122939e+00 1.117757e+02 -3.935113e-01 1.035047e+02 1.926442e-01 9.545728e+01 6.482108e-01 8.756999e+01 9.600095e-01 7.978299e+01 1.100013e+00 7.202955e+01 1.191644e+00 6.430509e+01 1.224471e+00 5.667390e+01 1.179987e+00 4.905719e+01 1.148446e+00 4.152787e+01 1.029241e+00 3.396646e+01 1.004818e+00 2.647250e+01 9.094469e-01 1.896701e+01 8.905108e-01 1.150470e+01 8.311998e-01 4.080943e+00 7.574646e-01 -3.352969e+00 6.633737e-01 -1.074859e+01 4.844101e-01 -1.821860e+01 3.534209e-01 -2.566055e+01 1.195495e-01 -3.318715e+01 -1.679979e-02 -4.067714e+01 -1.959244e-01 -4.816856e+01 -2.877054e-01 -5.563938e+01 -3.106045e-01 -6.305401e+01 -3.200781e-01 -7.047359e+01 -3.397113e-01 -7.796358e+01 -3.910424e-01 -8.557347e+01 -4.968648e-01 -9.334408e+01 -6.814982e-01 -1.013164e+02 
-1.445729e+00 -1.113494e+02 -1.914477e+00 -1.200329e+02 -2.579650e+00 1.219468e+02 -1.607914e+00 1.132164e+02 -8.182871e-01 1.047769e+02 -1.836193e-01 9.656629e+01 3.090222e-01 8.852370e+01 6.517062e-01 8.059115e+01 8.306673e-01 7.270781e+01 9.477753e-01 6.486965e+01 1.000478e+00 5.712449e+01 9.827457e-01 4.940678e+01 9.608841e-01 4.177156e+01 8.627984e-01 3.412324e+01 8.252136e-01 2.653583e+01 7.292218e-01 1.895059e+01 6.836269e-01 1.140478e+01 6.033354e-01 3.895241e+00 5.094465e-01 -3.618550e+00 3.942847e-01 -1.110228e+01 2.105433e-01 -1.864717e+01 5.752332e-02 -2.617728e+01 -1.744320e-01 -3.377587e+01 -3.339795e-01 -4.135361e+01 -5.135437e-01 -4.893396e+01 -6.120475e-01 -5.650594e+01 -6.472804e-01 -6.403803e+01 -6.724103e-01 -7.158435e+01 -7.109177e-01 -7.920639e+01 -7.834737e-01 -8.695233e+01 -9.126929e-01 -9.486280e+01 -1.123694e+00 -1.029791e+02 
-1.306168e+00 -1.110109e+02 -1.835400e+00 -1.198304e+02 -2.571043e+00 1.223426e+02 -1.571952e+00 1.134602e+02 -7.606674e-01 1.048956e+02 -1.082054e-01 9.658900e+01 4.007968e-01 8.848143e+01 7.596925e-01 8.051375e+01 9.460698e-01 7.261542e+01 1.069421e+00 6.477755e+01 1.121626e+00 5.705722e+01 1.101980e+00 4.935871e+01 1.091228e+00 4.176344e+01 9.976405e-01 3.414619e+01 9.805632e-01 2.660698e+01 8.980937e-01 1.907066e+01 8.700480e-01 1.158003e+01 8.069214e-01 4.132588e+00 7.260577e-01 -3.328937e+00 6.355264e-01 -1.075236e+01 4.664677e-01 -1.825509e+01 3.462241e-01 -2.573604e+01 1.341854e-01 -3.329660e+01 -4.756899e-03 -4.083486e+01 -1.746064e-01 -4.837733e+01 -2.852267e-01 -5.592855e+01 -3.289007e-01 -6.344580e+01 -3.652803e-01 -7.098798e+01 -4.209157e-01 -7.861964e+01 -5.181640e-01 -8.639208e+01 -6.803831e-01 -9.434984e+01 -9.331616e-01 -1.025386e+02 
-1.748921e+00 -1.126211e+02 -2.310368e+00 -1.215638e+02 -3.087146e+00 1.237015e+02 -2.027431e+00 1.146887e+02 -1.162708e+00 1.059988e+02 -4.600764e-01 9.757329e+01 1.021411e-01 8.935172e+01 5.197178e-01 8.126975e+01 7.316456e-01 7.325605e+01 8.538177e-01 6.527872e+01 9.286794e-01 5.748949e+01 8.882698e-01 4.966108e+01 9.182348e-01 4.200989e+01 7.961938e-01 3.427120e+01 8.102943e-01 2.666417e+01 7.089997e-01 1.904054e+01 6.714550e-01 1.146744e+01 6.001793e-01 3.967932e+00 4.830103e-01 -3.592797e+00 4.027317e-01 -1.105489e+01 1.840446e-01 -1.867445e+01 9.234157e-02 -2.621006e+01 -1.570272e-01 -3.388711e+01 -2.948545e-01 -4.151204e+01 -4.870148e-01 -4.913780e+01 -6.463111e-01 -5.680503e+01 -6.946755e-01 -6.440319e+01 -7.332095e-01 -7.203374e+01 -7.932005e-01 -7.976756e+01 -8.999912e-01 -8.765062e+01 -1.077254e+00 -9.572318e+01 -1.350255e+00 -1.040292e+02 
-1.576043e+00 -1.121599e+02 -2.186407e+00 -1.212074e+02 -3.020438e+00 1.239328e+02 -1.942135e+00 1.148056e+02 -1.062934e+00 1.060251e+02 -3.469137e-01 9.753471e+01 2.317102e-01 8.927368e+01 6.711183e-01 8.117012e+01 8.757007e-01 7.311394e+01 9.933561e-01 6.514299e+01 1.070551e+00 5.738792e+01 1.010131e+00 4.957455e+01 1.070936e+00 4.199237e+01 9.175626e-01 3.426311e+01 9.754301e-01 2.673447e+01 8.655177e-01 1.912732e+01 8.587386e-01 1.163156e+01 8.030227e-01 4.178372e+00 6.988897e-01 -3.320983e+00 6.555366e-01 -1.070680e+01 4.210760e-01 -1.829627e+01 3.847611e-01 -2.575009e+01 1.167215e-01 -3.342783e+01 1.090737e-02 -4.098892e+01 -1.889935e-01 -4.861514e+01 -3.558671e-01 -5.624445e+01 -3.962293e-01 -6.379337e+01 -4.355123e-01 -7.139829e+01 -5.040252e-01 -7.912793e+01 -6.277307e-01 -8.702515e+01 -8.301783e-01 -9.513053e+01 -1.136351e+00 -1.034903e+02 
-1.983764e+00 -1.135718e+02 -2.619903e+00 -1.227098e+02 -3.488283e+00 1.250277e+02 -2.361275e+00 1.158090e+02 -1.439361e+00 1.069445e+02 -6.790072e-01 9.838398e+01 -3.794082e-02 9.006936e+01 5.099391e-01 8.189676e+01 7.849672e-01 7.367569e+01 7.598236e-01 6.556249e+01 9.450003e-01 5.781149e+01 7.330805e-01 4.979639e+01 9.410265e-01 4.227868e+01 6.698550e-01 3.430823e+01 8.095208e-01 2.682057e+01 7.055620e-01 1.904009e+01 6.314612e-01 1.152573e+01 6.596261e-01 4.023268e+00 4.137031e-01 -3.591499e+00 4.932431e-01 -1.092679e+01 8.923241e-02 -1.874243e+01 1.831986e-01 -2.612549e+01 -1.573143e-01 -3.406592e+01 -2.757045e-01 -4.162419e+01 -4.382309e-01 -4.940712e+01 -8.022631e-01 -5.714831e+01 -8.094211e-01 -6.470565e+01 -8.185220e-01 -7.236454e+01 -8.712350e-01 -8.017536e+01 -9.934082e-01 -8.816284e+01 -1.203838e+00 -9.636028e+01 -1.524356e+00 -1.048116e+02 
-1.772300e+00 -1.129689e+02 -2.445682e+00 -1.221798e+02 -3.357677e+00 1.250624e+02 -2.222964e+00 1.157660e+02 -1.296828e+00 1.068451e+02 -5.330778e-01 9.825307e+01 1.154198e-01 8.993822e+01 6.880130e-01 8.181938e+01 1.022456e+00 7.333637e+01 8.159557e-01 6.543385e+01 1.148324e+00 5.761394e+01 7.804691e-01 4.967581e+01 1.145288e+00 4.225468e+01 7.472605e-01 3.420508e+01 9.614287e-01 2.695439e+01 8.750158e-01 1.897136e+01 7.522752e-01 1.177181e+01 8.901774e-01 4.104435e+00 5.571017e-01 -3.280792e+00 7.912659e-01 -1.060593e+01 2.527038e-01 -1.839716e+01 4.928305e-01 -2.559083e+01 8.979594e-02 -3.372695e+01 -2.777208e-02 -4.098120e+01 -1.555850e-01 -4.905223e+01 -5.940910e-01 -5.658984e+01 -5.353004e-01 -6.404884e+01 -5.236249e-01 -7.167076e+01 -5.746813e-01 -7.946831e+01 -7.069887e-01 -8.745781e+01 -9.358615e-01 -9.567205e+01 -1.281580e+00 -1.041566e+02 
-2.140155e+00 -1.141878e+02 -2.830942e+00 -1.234565e+02 -3.766721e+00 1.258823e+02 -2.598862e+00 1.165280e+02 -1.646382e+00 1.075534e+02 -8.603178e-01 9.893060e+01 -1.816971e-01 9.066865e+01 5.055922e-01 8.287815e+01 1.512099e+00 7.335082e+01 1.530002e-01 6.602006e+01 1.384052e+00 5.789168e+01 2.004928e-01 4.978763e+01 1.129079e+00 4.277490e+01 5.382297e-01 3.385453e+01 5.430514e-01 2.746139e+01 1.146006e+00 1.836989e+01 6.408320e-02 1.205938e+01 1.222299e+00 3.627386e+00 -1.285839e-01 -3.387861e+00 9.368606e-01 -1.073426e+01 -2.542951e-01 -1.903849e+01 2.510092e-01 -2.551370e+01 1.138011e-01 -3.484715e+01 -7.096766e-01 -4.108646e+01 1.941894e-01 -5.031042e+01 -1.474605e+00 -5.746442e+01 -1.037534e+00 -6.484693e+01 -8.993343e-01 -7.253789e+01 -9.166857e-01 -8.041386e+01 -1.045083e+00 -8.847812e+01 -1.279923e+00 -9.676290e+01 -1.635926e+00 -1.053137e+02 
-1.885738e+00 -1.134281e+02 -2.601851e+00 -1.227377e+02 -3.565993e+00 1.256926e+02 -2.403424e+00 1.162952e+02 -1.457472e+00 1.072937e+02 -6.782113e-01 9.866419e+01 -5.538140e-03 9.042555e+01 6.837928e-01 8.270920e+01 1.738044e+00 7.303219e+01 2.929282e-01 6.584442e+01 1.604167e+00 5.769555e+01 3.336901e-01 4.964703e+01 1.330464e+00 4.274100e+01 7.087251e-01 3.376981e+01 7.105753e-01 2.757038e+01 1.395044e+00 1.838101e+01 2.215766e-01 1.228376e+01 1.521916e+00 3.792667e+00 5.725229e-02 -3.073455e+00 1.255293e+00 -1.037616e+01 -1.874723e-02 -1.865724e+01 5.544313e-01 -2.497515e+01 4.498236e-01 -3.439754e+01 -4.379676e-01 -4.042725e+01 6.187829e-01 -4.976288e+01 -1.230154e+00 -5.678143e+01 -7.355166e-01 -6.411103e+01 -5.797309e-01 -7.177463e+01 -5.979537e-01 -7.963072e+01 -7.357027e-01 -8.768335e+01 -9.849847e-01 -9.596690e+01 -1.359456e+00 -1.045288e+02 
-2.210518e+00 -1.144608e+02 -2.933610e+00 -1.237956e+02 -3.904982e+00 1.262348e+02 -2.727511e+00 1.168081e+02 -1.767289e+00 1.077625e+02 -9.762110e-01 9.905625e+01 -3.049430e-01 9.064876e+01 2.934455e-01 8.248143e+01 7.088837e-01 7.372849e+01 4.466273e-01 6.583396e+01 8.796719e-01 5.789365e+01 4.525872e-01 4.986578e+01 8.920200e-01 4.244685e+01 4.899026e-01 3.420833e+01 6.801909e-01 2.703032e+01 6.918092e-01 1.882873e+01 4.411186e-01 1.170406e+01 7.130580e-01 3.875155e+00 2.446431e-01 -3.516998e+00 5.921276e-01 -1.089558e+01 -3.196497e-02 -1.881422e+01 2.489229e-01 -2.596487e+01 -1.072735e-01 -3.431606e+01 -3.271173e-01 -4.148996e+01 -2.965286e-01 -4.977351e+01 -9.383174e-01 -5.732908e+01 -8.301299e-01 -6.485900e+01 -8.120504e-01 -7.258342e+01 -8.781091e-01 -8.049153e+01 -1.035326e+00 -8.859524e+01 -1.295224e+00 -9.692582e+01 -1.677382e+00 -1.055284e+02 
-1.910615e+00 -1.135324e+02 -2.647266e+00 -1.228756e+02 -3.631373e+00 1.258010e+02 -2.473600e+00 1.163639e+02 -1.530659e+00 1.073152e+02 -7.544829e-01 9.860704e+01 -9.724916e-02 9.018088e+01 4.728086e-01 8.192421e+01 7.562148e-01 7.361428e+01 7.566765e-01 6.549317e+01 9.710728e-01 5.773323e+01 7.656396e-01 4.974050e+01 1.023653e+00 4.226399e+01 7.480223e-01 3.432256e+01 9.442200e-01 2.690998e+01 8.467893e-01 1.915992e+01 8.129160e-01 1.173790e+01 8.651851e-01 4.276668e+00 6.457311e-01 -3.256388e+00 7.750131e-01 -1.053256e+01 3.820774e-01 -1.829322e+01 5.478140e-01 -2.560291e+01 2.143852e-01 -3.352005e+01 1.469940e-01 -4.100610e+01 -1.849200e-02 -4.879662e+01 -3.885392e-01 -5.650212e+01 -4.048008e-01 -6.405863e+01 -4.372821e-01 -7.175331e+01 -5.262892e-01 -7.962770e+01 -6.976269e-01 -8.770276e+01 -9.696966e-01 -9.601215e+01 -1.364296e+00 -1.046024e+02 
-2.192354e+00 -1.143871e+02 -2.925714e+00 -1.237230e+02 -3.904234e+00 1.260747e+02 -2.747884e+00 1.166413e+02 -1.807823e+00 1.075769e+02 -1.042463e+00 9.882826e+01 -4.175683e-01 9.033624e+01 7.645912e-02 8.202363e+01 3.433399e-01 7.378837e+01 4.922518e-01 6.566136e+01 6.352054e-01 5.779977e+01 5.973444e-01 4.986669e+01 7.185872e-01 4.221535e+01 5.875036e-01 3.438787e+01 6.812291e-01 2.680362e+01 5.970533e-01 1.912102e+01 5.914458e-01 1.156568e+01 5.603321e-01 4.055050e+00 4.484204e-01 -3.519447e+00 4.390196e-01 -1.095030e+01 2.078756e-01 -1.862696e+01 2.140943e-01 -2.612365e+01 -3.119519e-02 -3.389464e+01 -1.201329e-01 -4.152191e+01 -3.051887e-01 -4.925091e+01 -5.118374e-01 -5.700478e+01 -5.791822e-01 -6.468978e+01 -6.580647e-01 -7.246627e+01 -7.791723e-01 -8.039389e+01 -9.684523e-01 -8.850760e+01 -1.249153e+00 -9.684479e+01 -1.646708e+00 -1.054520e+02 