# vtk DataFile Version 2.0
Comment goes here
ASCII

DATASET STRUCTURED_POINTS
FIELD FieldData 1
TIME 1 1 double
0.05700000
DIMENSIONS    64   64   1

ORIGIN    0.000   0.000   0.000
SPACING   0.03125 0.03125   1.000

POINT_DATA   4096
SCALARS P double
LOOKUP_TABLE default

-3.711235e+01 -2.006409e+02 -2.550290e+01 -2.093540e+02 8.268088e+01 1.285876e+02 -2.355189e+01 1.238079e+02 -3.070754e+01 1.161637e+02 -3.533843e+01 1.072429e+02 -3.951004e+01 9.666455e+01 -3.637179e+01 7.833065e+01 -2.864977e+01 5.878257e+01 -2.104781e+01 4.008966e+01 -1.525441e+01 2.355696e+01 -1.329343e+01 1.063087e+01 -1.409360e+01 5.501024e-01 -1.866578e+01 -4.749600e+00 -2.796993e+01 -6.609837e+00 -3.700072e+01 -1.289024e+01 -4.000310e+01 -2.624090e+01 -3.671582e+01 -4.119284e+01 -3.821967e+01 -4.923591e+01 -4.601580e+01 -5.516654e+01 -5.222696e+01 -6.346698e+01 -5.634040e+01 -7.456780e+01 -5.762450e+01 -8.704929e+01 -5.941273e+01 -9.847576e+01 -6.317232e+01 -1.050443e+02 -7.346587e+01 -1.051570e+02 -8.312164e+01 -1.123582e+02 -8.121180e+01 -1.282614e+02 -7.252993e+01 -1.492952e+02 -5.877652e+01 -1.732484e+02 -4.510949e+01 -1.921571e+02 -3.632486e+01 -2.024400e+02 
-9.046568e+00 -1.300557e+02 -2.036558e+00 -1.370233e+02 7.768521e+01 1.140885e+02 -1.721551e+00 1.095740e+02 -6.453904e+00 1.034096e+02 -9.424333e+00 9.662083e+01 -1.241357e+01 8.920432e+01 -1.147387e+01 7.753464e+01 -8.257910e+00 6.540113e+01 -5.299299e+00 5.375804e+01 -3.092507e+00 4.289231e+01 -2.482716e+00 3.357314e+01 -2.788651e+00 2.514251e+01 -4.490683e+00 1.890747e+01 -8.469771e+00 1.458643e+01 -1.237216e+01 8.022871e+00 -1.323393e+01 -2.206760e+00 -1.069020e+01 -1.324425e+01 -1.087066e+01 -2.045212e+01 -1.446599e+01 -2.652816e+01 -1.710397e+01 -3.391300e+01 -1.872556e+01 -4.265280e+01 -1.895226e+01 -5.206568e+01 -1.938458e+01 -6.101481e+01 -2.068910e+01 -6.737949e+01 -2.560034e+01 -6.990316e+01 -3.043454e+01 -7.601672e+01 -2.926019e+01 -8.627291e+01 -2.511726e+01 -9.862618e+01 -1.856516e+01 -1.124024e+02 -1.197722e+01 -1.234850e+02 -7.650509e+00 -1.303556e+02 
7.230955e+00 -8.847276e+01 9.299714e+00 -9.197699e+01 3.550820e+01 1.008899e+02 8.803845e+00 9.758475e+01 6.819080e+00 9.300387e+01 5.447408e+00 8.769670e+01 4.042556e+00 8.201105e+01 3.428823e+00 7.525216e+01 3.225757e+00 6.834544e+01 2.989841e+00 6.141230e+01 2.829132e+00 5.434664e+01 2.642685e+00 4.722984e+01 2.554483e+00 3.986665e+01 2.483369e+00 3.265051e+01 2.137265e+00 2.576468e+01 1.730044e+00 1.863079e+01 1.688399e+00 1.098443e+01 2.241168e+00 3.229894e+00 2.323687e+00 -3.811019e+00 1.861856e+00 -1.067090e+01 1.682652e+00 -1.771758e+01 1.679847e+00 -2.486381e+01 1.986445e+00 -3.203940e+01 2.342734e+00 -3.910542e+01 2.699124e+00 -4.572392e+01 2.454165e+00 -5.149374e+01 2.089388e+00 -5.766114e+01 2.626067e+00 -6.407613e+01 3.405825e+00 -7.030495e+01 4.556022e+00 -7.643534e+01 5.879823e+00 -8.179940e+01 7.074391e+00 -8.628890e+01 
7.406792e+00 -9.159697e+01 9.798704e+00 -9.500410e+01 1.219237e+01 1.031120e+02 9.426626e+00 9.933979e+01 6.974651e+00 9.446602e+01 5.206452e+00 8.890699e+01 3.865392e+00 8.279651e+01 3.182480e+00 7.591963e+01 2.932857e+00 6.873036e+01 2.777548e+00 6.146805e+01 2.644708e+00 5.416490e+01 2.490911e+00 4.688520e+01 2.379695e+00 3.960005e+01 2.244248e+00 3.247742e+01 1.996264e+00 2.551988e+01 1.781111e+00 1.834360e+01 1.891320e+00 1.078466e+01 2.326429e+00 3.172152e+00 2.461995e+00 -4.035031e+00 2.187583e+00 -1.103723e+01 1.917984e+00 -1.812263e+01 1.762589e+00 -2.531091e+01 1.740329e+00 -3.250681e+01 1.711962e+00 -3.950142e+01 1.543767e+00 -4.602938e+01 1.060750e+00 -5.206641e+01 6.993940e-01 -5.831611e+01 1.076535e+00 -6.488269e+01 2.003874e+00 -7.149246e+01 3.366206e+00 -7.791276e+01 4.915802e+00 -8.363321e+01 6.358774e+00 -8.829853e+01 
7.474075e+00 -9.001428e+01 9.301389e+00 -9.346515e+01 1.149713e+01 1.009483e+02 9.059024e+00 9.733929e+01 7.089258e+00 9.271727e+01 5.622647e+00 8.739614e+01 4.470836e+00 8.154994e+01 3.735509e+00 7.512481e+01 3.279650e+00 6.839713e+01 2.941402e+00 6.149202e+01 2.688778e+00 5.444594e+01 2.474916e+00 4.730854e+01 2.323862e+00 4.008247e+01 2.180336e+00 3.288082e+01 1.996961e+00 2.574837e+01 1.822112e+00 1.851455e+01 1.803881e+00 1.111088e+01 1.950472e+00 3.695236e+00 1.958606e+00 -3.498530e+00 1.796428e+00 -1.058052e+01 1.684868e+00 -1.768077e+01 1.690536e+00 -2.479620e+01 1.828071e+00 -3.187402e+01 2.029171e+00 -3.882169e+01 2.209073e+00 -4.549626e+01 2.243123e+00 -5.183595e+01 2.322456e+00 -5.815750e+01 2.741849e+00 -6.446774e+01 3.404202e+00 -7.061678e+01 4.300123e+00 -7.648995e+01 5.352818e+00 -8.181708e+01 6.448864e+00 -8.643938e+01 
7.072768e+00 -9.321380e+01 8.944341e+00 -9.704404e+01 1.073050e+01 1.025476e+02 8.853712e+00 9.880835e+01 6.915472e+00 9.402587e+01 5.359695e+00 8.849847e+01 4.205512e+00 8.239356e+01 3.453867e+00 7.576438e+01 2.987195e+00 6.880191e+01 2.685530e+00 6.165767e+01 2.462451e+00 5.442415e+01 2.270472e+00 4.716199e+01 2.131142e+00 3.991014e+01 1.991733e+00 3.271363e+01 1.882996e+00 2.555847e+01 1.813545e+00 1.831810e+01 1.886318e+00 1.094514e+01 2.039169e+00 3.555876e+00 2.072270e+00 -3.705365e+00 1.943579e+00 -1.087142e+01 1.756508e+00 -1.803575e+01 1.622351e+00 -2.520438e+01 1.522962e+00 -3.232191e+01 1.447077e+00 -3.928806e+01 1.323052e+00 -4.600561e+01 1.155615e+00 -5.250283e+01 1.143471e+00 -5.898676e+01 1.499750e+00 -6.551054e+01 2.216259e+00 -7.196255e+01 3.232606e+00 -7.816907e+01 4.441081e+00 -8.388173e+01 5.735112e+00 -8.891593e+01 
6.963431e+00 -9.247042e+01 8.443887e+00 -9.672529e+01 1.005413e+01 1.014932e+02 8.448705e+00 9.752546e+01 6.844180e+00 9.280328e+01 5.541501e+00 8.743185e+01 4.541840e+00 8.154164e+01 3.818846e+00 7.520514e+01 3.281755e+00 6.855580e+01 2.875957e+00 6.166352e+01 2.576877e+00 5.461779e+01 2.317496e+00 4.746509e+01 2.143551e+00 4.025572e+01 1.975201e+00 3.303537e+01 1.870923e+00 2.581531e+01 1.784048e+00 1.856217e+01 1.778628e+00 1.124715e+01 1.814440e+00 3.935911e+00 1.781732e+00 -3.303414e+00 1.698315e+00 -1.048378e+01 1.596301e+00 -1.764766e+01 1.591490e+00 -2.478864e+01 1.642268e+00 -3.186228e+01 1.773975e+00 -3.882617e+01 1.918133e+00 -4.561135e+01 2.052724e+00 -5.220896e+01 2.274534e+00 -5.869797e+01 2.667392e+00 -6.507806e+01 3.229093e+00 -7.128439e+01 3.959529e+00 -7.723206e+01 4.837775e+00 -8.279880e+01 5.835733e+00 -8.789170e+01 
6.220365e+00 -9.558120e+01 7.657756e+00 -1.002470e+02 9.064612e+00 1.032746e+02 7.776095e+00 9.900979e+01 6.370310e+00 9.408032e+01 5.145715e+00 8.850893e+01 4.193023e+00 8.240369e+01 3.488408e+00 7.585602e+01 2.948076e+00 6.899647e+01 2.585296e+00 6.190148e+01 2.320174e+00 5.469733e+01 2.078473e+00 4.742954e+01 1.940629e+00 4.016389e+01 1.778563e+00 3.291004e+01 1.760473e+00 2.567230e+01 1.738270e+00 1.841877e+01 1.816014e+00 1.111157e+01 1.879643e+00 3.796409e+00 1.851350e+00 -3.491142e+00 1.757650e+00 -1.073711e+01 1.563399e+00 -1.797715e+01 1.456968e+00 -2.518440e+01 1.321208e+00 -3.231651e+01 1.268728e+00 -3.934289e+01 1.204403e+00 -4.621393e+01 1.165379e+00 -5.296485e+01 1.283219e+00 -5.964404e+01 1.618267e+00 -6.625580e+01 2.183093e+00 -7.274621e+01 2.962737e+00 -7.902299e+01 3.917213e+00 -8.496843e+01 5.005363e+00 -9.049330e+01 
6.010475e+00 -9.537780e+01 7.132111e+00 -1.004919e+02 8.317537e+00 1.031599e+02 7.274394e+00 9.849476e+01 6.153027e+00 9.343376e+01 5.163157e+00 8.789124e+01 4.375841e+00 8.190333e+01 3.760123e+00 7.553259e+01 3.227923e+00 6.890306e+01 2.784232e+00 6.194615e+01 2.479858e+00 5.486453e+01 2.144663e+00 4.765944e+01 1.986782e+00 4.042155e+01 1.770331e+00 3.318288e+01 1.747681e+00 2.590939e+01 1.700300e+00 1.867252e+01 1.734161e+00 1.137923e+01 1.758639e+00 4.100382e+00 1.677277e+00 -3.176546e+00 1.620981e+00 -1.042005e+01 1.451048e+00 -1.765374e+01 1.453323e+00 -2.486698e+01 1.427609e+00 -3.197934e+01 1.545750e+00 -3.902819e+01 1.683812e+00 -4.592937e+01 1.832388e+00 -5.270737e+01 2.100645e+00 -5.936944e+01 2.462809e+00 -6.589081e+01 2.926771e+00 -7.225117e+01 3.512375e+00 -7.841943e+01 4.222947e+00 -8.434765e+01 5.053254e+00 -8.999913e+01 
5.055815e+00 -9.831381e+01 6.080722e+00 -1.037947e+02 7.068387e+00 1.051383e+02 6.310638e+00 1.001266e+02 5.438032e+00 9.479159e+01 4.618880e+00 8.901782e+01 3.943911e+00 8.280968e+01 3.383066e+00 7.620746e+01 2.829091e+00 6.938028e+01 2.468122e+00 6.221514e+01 2.200992e+00 5.500539e+01 1.861989e+00 4.768301e+01 1.782574e+00 4.039206e+01 1.514751e+00 3.309229e+01 1.644987e+00 2.580224e+01 1.615299e+00 1.857869e+01 1.767675e+00 1.128212e+01 1.814502e+00 3.998355e+00 1.710630e+00 -3.339585e+00 1.648271e+00 -1.063997e+01 1.333203e+00 -1.797617e+01 1.311413e+00 -2.526517e+01 1.104816e+00 -3.244073e+01 1.131850e+00 -3.957962e+01 1.109668e+00 -4.656629e+01 1.079897e+00 -5.351928e+01 1.250272e+00 -6.038441e+01 1.542792e+00 -6.713305e+01 1.972333e+00 -7.375657e+01 2.555036e+00 -8.022912e+01 3.278486e+00 -8.650239e+01 4.118251e+00 -9.253482e+01 
4.780634e+00 -9.841296e+01 5.512905e+00 -1.043062e+02 6.226159e+00 1.056865e+02 5.713383e+00 1.002514e+02 5.098628e+00 9.468273e+01 4.508636e+00 8.883639e+01 4.029258e+00 8.265210e+01 3.628454e+00 7.610811e+01 3.176799e+00 6.951935e+01 2.669710e+00 6.230241e+01 2.415405e+00 5.519306e+01 1.896254e+00 4.785372e+01 1.841550e+00 4.057565e+01 1.481483e+00 3.334933e+01 1.635154e+00 2.598218e+01 1.583991e+00 1.884914e+01 1.726905e+00 1.150089e+01 1.792376e+00 4.264953e+00 1.596076e+00 -3.103709e+00 1.603451e+00 -1.038253e+01 1.221254e+00 -1.770751e+01 1.319009e+00 -2.504698e+01 1.154458e+00 -3.218284e+01 1.336304e+00 -3.940284e+01 1.466528e+00 -4.639595e+01 1.557905e+00 -5.335539e+01 1.858028e+00 -6.019013e+01 2.167877e+00 -6.685389e+01 2.520346e+00 -7.339593e+01 2.958760e+00 -7.983491e+01 3.488865e+00 -8.615754e+01 4.100416e+00 -9.234953e+01 
3.696421e+00 -1.011290e+02 4.293326e+00 -1.073403e+02 4.786033e+00 1.077866e+02 4.558113e+00 1.020198e+02 4.201379e+00 9.616142e+01 3.824527e+00 9.006651e+01 3.517399e+00 8.365147e+01 3.232822e+00 7.681700e+01 2.705645e+00 6.999681e+01 2.355444e+00 6.253380e+01 2.119531e+00 5.537154e+01 1.523269e+00 4.788188e+01 1.671940e+00 4.061267e+01 1.068077e+00 3.324385e+01 1.585677e+00 2.590850e+01 1.420739e+00 1.881227e+01 1.817046e+00 1.145889e+01 1.870711e+00 4.238888e+00 1.591706e+00 -3.250766e+00 1.667980e+00 -1.054856e+01 9.664282e-01 -1.806103e+01 1.242333e+00 -2.544328e+01 8.072530e-01 -3.263910e+01 1.054142e+00 -3.998557e+01 1.046970e+00 -4.701814e+01 8.711815e-01 -5.421409e+01 1.111947e+00 -6.123514e+01 1.331182e+00 -6.809317e+01 1.620351e+00 -7.487114e+01 2.022888e+00 -8.158722e+01 2.523734e+00 -8.821676e+01 3.092692e+00 -9.473478e+01 
3.381922e+00 -1.013715e+02 3.695485e+00 -1.079498e+02 3.870295e+00 1.087799e+02 3.888397e+00 1.026086e+02 3.752599e+00 9.647716e+01 3.573275e+00 9.026616e+01 3.475707e+00 8.385450e+01 3.463102e+00 7.695027e+01 3.379566e+00 7.044222e+01 2.479659e+00 6.256478e+01 2.435467e+00 5.565808e+01 1.447371e+00 4.790822e+01 1.686234e+00 4.074073e+01 9.945851e-01 3.348744e+01 1.554824e+00 2.600039e+01 1.367700e+00 1.915070e+01 1.862501e+00 1.160284e+01 1.947956e+00 4.521494e+00 1.508323e+00 -3.152961e+00 1.696949e+00 -1.030711e+01 7.980555e-01 -1.789052e+01 1.239050e+00 -2.528400e+01 7.263429e-01 -3.244038e+01 1.233094e+00 -3.993383e+01 1.225206e+00 -4.701714e+01 1.215193e+00 -5.424295e+01 1.580178e+00 -6.113743e+01 1.790101e+00 -6.785649e+01 2.017276e+00 -7.457219e+01 2.311876e+00 -8.130104e+01 2.655572e+00 -8.801839e+01 3.022040e+00 -9.470939e+01 
2.225851e+00 -1.038537e+02 2.380335e+00 -1.107042e+02 2.318130e+00 1.109104e+02 2.628454e+00 1.044463e+02 2.733635e+00 9.805815e+01 2.746010e+00 9.162872e+01 2.787249e+00 8.500291e+01 2.921333e+00 7.803187e+01 2.851901e+00 7.016406e+01 1.885663e+00 6.302806e+01 2.201779e+00 5.557062e+01 7.605855e-01 4.798272e+01 1.641718e+00 4.084711e+01 2.006117e-01 3.304180e+01 1.487808e+00 2.621228e+01 9.890091e-01 1.885578e+01 2.010536e+00 1.195809e+01 2.074054e+00 4.333804e+00 1.351031e+00 -3.139946e+00 1.953837e+00 -1.050626e+01 1.630507e-01 -1.845121e+01 1.293773e+00 -2.552286e+01 2.147337e-01 -3.308467e+01 1.164997e+00 -4.029799e+01 9.815793e-01 -4.782905e+01 4.224323e-01 -5.520730e+01 9.171552e-01 -6.212418e+01 9.816182e-01 -6.899054e+01 1.141273e+00 -7.594989e+01 1.391872e+00 -8.295033e+01 1.682438e+00 -8.994448e+01 1.974405e+00 -9.691416e+01 
1.901470e+00 -1.041367e+02 1.786268e+00 -1.113106e+02 1.410993e+00 1.121951e+02 1.955668e+00 1.053420e+02 2.233677e+00 9.863073e+01 2.339916e+00 9.198898e+01 2.418928e+00 8.546981e+01 2.875939e+00 7.956551e+01 4.409604e+00 6.955992e+01 1.044179e+00 6.341886e+01 2.441853e+00 5.568994e+01 5.628031e-01 4.747481e+01 9.950179e-01 4.148311e+01 5.119175e-01 3.204084e+01 5.695627e-01 2.718861e+01 5.610265e-01 1.789536e+01 1.648182e+00 1.296118e+01 1.697070e+00 3.708945e+00 1.087879e+00 -2.915021e+00 1.617282e+00 -1.028209e+01 4.516631e-02 -1.921049e+01 7.329328e-01 -2.453097e+01 -4.466143e-01 -3.436339e+01 1.042019e+00 -3.917877e+01 -2.840871e-01 -4.908316e+01 7.143674e-01 -5.567821e+01 1.215302e+00 -6.193403e+01 1.264417e+00 -6.866763e+01 1.419968e+00 -7.564089e+01 1.604509e+00 -8.270516e+01 1.766864e+00 -8.981082e+01 1.877638e+00 -9.695297e+01 
7.191382e-01 -1.063885e+02 4.408837e-01 -1.137952e+02 -1.505594e-01 1.142626e+02 6.900644e-01 1.071454e+02 1.225039e+00 1.002234e+02 1.566799e+00 9.352112e+01 1.888971e+00 8.728631e+01 2.626335e+00 8.224498e+01 4.466425e+00 6.895968e+01 1.201412e+00 6.547468e+01 3.005576e+00 5.520981e+01 5.315545e-01 4.806589e+01 8.441146e-01 4.225631e+01 1.178537e+00 3.096706e+01 3.959551e-01 2.902448e+01 1.683329e+00 1.646651e+01 1.976916e+00 1.551160e+01 3.323635e+00 2.206037e+00 8.118108e-01 -1.528869e+00 2.161177e+00 -1.063731e+01 3.064336e-01 -2.010757e+01 -2.830557e-02 -2.350906e+01 9.474107e-01 -3.614876e+01 5.562046e-01 -3.696735e+01 2.046300e+00 -5.190965e+01 -5.327032e-01 -5.614607e+01 8.571801e-02 -6.228080e+01 3.656927e-01 -6.957782e+01 5.747605e-01 -7.693149e+01 7.156516e-01 -8.426528e+01 8.029676e-01 -9.160595e+01 8.185538e-01 -9.897638e+01 
4.169320e-01 -1.066453e+02 -1.133062e-01 -1.143375e+02 -9.880472e-01 1.157348e+02 8.586445e-02 1.082849e+02 8.289947e-01 1.010993e+02 1.340697e+00 9.417533e+01 1.696384e+00 8.758355e+01 1.951174e+00 8.133261e+01 1.572526e+00 7.055096e+01 1.768666e+00 6.449359e+01 2.137046e+00 5.630771e+01 8.648850e-01 4.805203e+01 1.272115e+00 4.224809e+01 9.050243e-01 3.188260e+01 8.235246e-01 2.803389e+01 1.310028e+00 1.772344e+01 1.831663e+00 1.410348e+01 2.705993e+00 3.564585e+00 8.769149e-01 -2.265357e+00 2.132602e+00 -1.003694e+01 4.713208e-01 -1.967654e+01 3.564719e-01 -2.384489e+01 1.374611e+00 -3.502265e+01 5.963357e-01 -3.762320e+01 2.540697e+00 -5.021717e+01 -6.243467e-01 -5.583157e+01 1.620789e-01 -6.202643e+01 5.931306e-01 -6.928869e+01 8.345745e-01 -7.665582e+01 9.174979e-01 -8.404695e+01 8.839330e-01 -9.149116e+01 7.295773e-01 -9.901776e+01 
-7.570463e-01 -1.086757e+02 -1.440838e+00 -1.165700e+02 -2.509333e+00 1.176806e+02 -1.169035e+00 1.099905e+02 -1.686260e-01 1.025721e+02 6.078247e-01 9.536491e+01 1.242345e+00 8.820713e+01 1.634958e+00 8.065590e+01 1.091862e+00 7.224841e+01 1.343582e+00 6.456858e+01 1.668741e+00 5.656834e+01 5.397006e-01 4.881704e+01 1.640516e+00 4.163710e+01 -3.574365e-01 3.321781e+01 1.532212e+00 2.692474e+01 2.429405e-01 1.845983e+01 1.995663e+00 1.232999e+01 1.475532e+00 3.655513e+00 1.259218e+00 -3.161634e+00 1.707565e+00 -1.106265e+01 -4.058259e-01 -1.901529e+01 9.410465e-01 -2.563467e+01 -8.942497e-01 -3.453151e+01 6.369395e-01 -4.049684e+01 -2.683393e-01 -4.990943e+01 -2.088178e-01 -5.650309e+01 2.961180e-02 -6.342401e+01 4.246818e-02 -7.063634e+01 7.779650e-02 -7.804253e+01 5.394227e-02 -8.555982e+01 -6.820166e-02 -9.316426e+01 -3.220082e-01 -1.008648e+02 
-1.007859e+00 -1.088616e+02 -1.927585e+00 -1.170085e+02 -3.275481e+00 1.191753e+02 -1.741855e+00 1.111637e+02 -5.938081e-01 1.034362e+02 2.729500e-01 9.590923e+01 9.411657e-01 8.838817e+01 1.398806e+00 8.050371e+01 1.913715e+00 7.321287e+01 1.417606e+00 6.490725e+01 2.041275e+00 5.746642e+01 1.124971e+00 4.947642e+01 1.687910e+00 4.191843e+01 1.093182e+00 3.458971e+01 1.683053e+00 2.677156e+01 1.779808e+00 2.007046e+01 2.119315e+00 1.225466e+01 2.486337e+00 5.165365e+00 1.645520e+00 -2.831492e+00 2.111331e+00 -1.010861e+01 8.549151e-01 -1.797065e+01 1.455401e+00 -2.559430e+01 1.034628e+00 -3.261229e+01 1.401703e+00 -4.053022e+01 1.547075e+00 -4.776906e+01 5.409245e-01 -5.562200e+01 6.907285e-01 -6.298093e+01 5.666182e-01 -7.029489e+01 4.548095e-01 -7.774435e+01 3.036967e-01 -8.532253e+01 4.421515e-02 -9.302314e+01 -3.742206e-01 -1.008625e+02 
-2.147759e+00 -1.106830e+02 -3.209105e+00 -1.190021e+02 -4.725931e+00 1.208818e+02 -2.970037e+00 1.126278e+02 -1.611854e+00 1.046282e+02 -5.716626e-01 9.678927e+01 2.010863e-01 8.898234e+01 7.067847e-01 8.109318e+01 9.296938e-01 7.335262e+01 9.317311e-01 6.532920e+01 1.164075e+00 5.753175e+01 8.291341e-01 4.963730e+01 1.162298e+00 4.202711e+01 5.588721e-01 3.424387e+01 1.253450e+00 2.674200e+01 9.327219e-01 1.924894e+01 1.548605e+00 1.175961e+01 1.418148e+00 4.266616e+00 1.284650e+00 -3.377732e+00 1.245896e+00 -1.083039e+01 4.267731e-01 -1.862815e+01 8.052397e-01 -2.612944e+01 -5.403749e-02 -3.383534e+01 5.132110e-01 -4.144431e+01 -8.783651e-03 -4.903549e+01 5.882187e-02 -5.665783e+01 1.072756e-01 -6.408393e+01 -6.708014e-02 -7.152391e+01 -2.723154e-01 -7.907365e+01 -5.226706e-01 -8.675391e+01 -8.773939e-01 -9.457077e+01 -1.396896e+00 -1.025399e+02 
-2.324763e+00 -1.107685e+02 -3.605393e+00 -1.193087e+02 -5.395923e+00 1.223052e+02 -3.466807e+00 1.137687e+02 -1.968676e+00 1.055007e+02 -8.140232e-01 9.741843e+01 6.071147e-02 8.942371e+01 6.927186e-01 8.148408e+01 1.182109e+00 7.382046e+01 1.114700e+00 6.586346e+01 1.493796e+00 5.805920e+01 1.222104e+00 5.022613e+01 1.493863e+00 4.245848e+01 1.297000e+00 3.495107e+01 1.586893e+00 2.723894e+01 1.731300e+00 1.997757e+01 1.868817e+00 1.237838e+01 2.061211e+00 4.973563e+00 1.713481e+00 -2.686516e+00 1.791174e+00 -1.023217e+01 1.226736e+00 -1.786449e+01 1.359213e+00 -2.555979e+01 1.083494e+00 -3.292223e+01 1.138876e+00 -4.065050e+01 1.073300e+00 -4.808313e+01 6.621156e-01 -5.580214e+01 6.101344e-01 -6.346426e+01 4.182188e-01 -7.105712e+01 1.331818e-01 -7.869906e+01 -2.299932e-01 -8.645813e+01 -7.172568e-01 -9.436883e+01 -1.391367e+00 -1.024616e+02 
-3.416149e+00 -1.123921e+02 -4.830018e+00 -1.210724e+02 -6.788293e+00 1.237384e+02 -4.661239e+00 1.150009e+02 -2.989692e+00 1.065200e+02 -1.694792e+00 9.823407e+01 -7.179865e-01 9.008350e+01 -2.659179e-02 8.203027e+01 3.735515e-01 7.408225e+01 5.874336e-01 6.609654e+01 7.965446e-01 5.815762e+01 7.900063e-01 5.025389e+01 9.385149e-01 4.244744e+01 7.952234e-01 3.468760e+01 1.055877e+00 2.701979e+01 1.043088e+00 1.943846e+01 1.274362e+00 1.186925e+01 1.274308e+00 4.311702e+00 1.180350e+00 -3.295953e+00 1.073141e+00 -1.088856e+01 6.766199e-01 -1.857425e+01 6.446276e-01 -2.623018e+01 2.414082e-01 -3.388645e+01 2.875599e-01 -4.156008e+01 4.444669e-02 -4.919497e+01 -2.833642e-02 -5.688256e+01 -8.850300e-02 -6.454445e+01 -2.963229e-01 -7.220785e+01 -6.185206e-01 -7.993547e+01 -1.044602e+00 -8.778078e+01 -1.609857e+00 -9.578207e+01 -2.374821e+00 -1.039736e+02 
-3.505105e+00 -1.123577e+02 -5.115740e+00 -1.212281e+02 -7.321458e+00 1.250521e+02 -5.037543e+00 1.160821e+02 -3.233792e+00 1.073895e+02 -1.823951e+00 9.892291e+01 -7.445844e-01 9.063707e+01 5.199196e-02 8.251266e+01 5.985193e-01 7.456231e+01 8.249387e-01 6.658265e+01 1.133443e+00 5.863989e+01 1.159213e+00 5.074913e+01 1.334542e+00 4.291201e+01 1.324227e+00 3.523087e+01 1.499954e+00 2.754694e+01 1.632320e+00 2.003657e+01 1.736665e+00 1.247616e+01 1.835347e+00 4.944537e+00 1.687583e+00 -2.657276e+00 1.639100e+00 -1.027592e+01 1.335607e+00 -1.791434e+01 1.271792e+00 -2.558796e+01 1.069987e+00 -3.314684e+01 9.831931e-01 -4.080350e+01 8.574443e-01 -4.841760e+01 5.820854e-01 -5.614144e+01 4.177184e-01 -6.390566e+01 1.669980e-01 -7.167082e+01 -2.133918e-01 -7.948311e+01 -7.260609e-01 -8.740731e+01 -1.402635e+00 -9.549696e+01 -2.302425e+00 -1.037981e+02 
-4.536550e+00 -1.137937e+02 -6.269279e+00 -1.227723e+02 -8.639685e+00 1.262108e+02 -6.174695e+00 1.170927e+02 -4.219749e+00 1.082493e+02 -2.684288e+00 9.963738e+01 -1.507158e+00 9.121787e+01 -6.464353e-01 8.296336e+01 -6.816350e-02 7.485617e+01 2.590824e-01 6.676424e+01 5.615244e-01 5.869903e+01 6.656072e-01 5.072874e+01 8.111919e-01 4.279853e+01 8.166271e-01 3.501653e+01 9.526519e-01 2.725464e+01 1.042846e+00 1.962342e+01 1.143886e+00 1.200495e+01 1.207983e+00 4.397146e+00 1.107382e+00 -3.235397e+00 1.021569e+00 -1.090844e+01 7.466767e-01 -1.857945e+01 6.030505e-01 -2.631117e+01 3.535949e-01 -3.396868e+01 2.149613e-01 -4.168715e+01 6.296465e-02 -4.939111e+01 -1.444527e-01 -5.715440e+01 -3.035363e-01 -6.495500e+01 -5.680627e-01 -7.276501e+01 -9.762647e-01 -8.063117e+01 -1.531854e+00 -8.861689e+01 -2.266310e+00 -9.677456e+01 -3.240101e+00 -1.051502e+02 
-4.525902e+00 -1.136288e+02 -6.426579e+00 -1.227664e+02 -9.008690e+00 1.273807e+02 -6.408481e+00 1.180765e+02 -4.339004e+00 1.090686e+02 -2.701243e+00 1.003169e+02 -1.431343e+00 9.178413e+01 -4.873579e-01 8.345244e+01 1.831231e-01 7.533944e+01 5.390018e-01 6.720805e+01 9.194673e-01 5.913525e+01 1.027016e+00 5.116193e+01 1.220887e+00 4.322127e+01 1.251393e+00 3.547862e+01 1.408607e+00 2.772243e+01 1.543871e+00 2.015489e+01 1.635274e+00 1.255965e+01 1.747340e+00 4.995192e+00 1.628508e+00 -2.633997e+00 1.591457e+00 -1.030474e+01 1.330358e+00 -1.796481e+01 1.222229e+00 -2.570014e+01 1.025137e+00 -3.330554e+01 8.720411e-01 -4.101050e+01 7.397469e-01 -4.868357e+01 4.402317e-01 -5.647497e+01 2.187757e-01 -6.432457e+01 -9.577833e-02 -7.218598e+01 -5.589740e-01 -8.010859e+01 -1.184662e+00 -8.815956e+01 -2.008707e+00 -9.639503e+01 -3.093692e+00 -1.048658e+02 
-5.482853e+00 -1.148892e+02 -7.488635e+00 -1.241037e+02 -1.022268e+01 1.282539e+02 -7.461404e+00 1.188518e+02 -5.263588e+00 1.097470e+02 -3.515511e+00 1.008954e+02 -2.151675e+00 9.224797e+01 -1.133637e+00 8.379844e+01 -3.633852e-01 7.562514e+01 -1.976063e-02 6.734627e+01 4.327957e-01 5.913026e+01 5.254156e-01 5.110731e+01 7.208926e-01 4.300995e+01 7.567060e-01 3.529710e+01 8.525050e-01 2.737757e+01 1.025820e+00 1.981244e+01 1.048994e+00 1.213197e+01 1.232526e+00 4.528290e+00 1.043422e+00 -3.161206e+00 1.051732e+00 -1.092131e+01 7.564249e-01 -1.856168e+01 5.994436e-01 -2.645368e+01 4.112834e-01 -3.401858e+01 1.621166e-01 -4.185984e+01 1.069616e-01 -4.954286e+01 -2.862856e-01 -5.741809e+01 -5.001620e-01 -6.533748e+01 -8.306592e-01 -7.321761e+01 -1.319617e+00 -8.116364e+01 -1.972992e+00 -8.925506e+01 -2.835167e+00 -9.754089e+01 -3.974910e+00 -1.060664e+02 
-5.360379e+00 -1.145896e+02 -7.500827e+00 -1.239320e+02 -1.040618e+01 1.292403e+02 -7.538147e+00 1.196943e+02 -5.253648e+00 1.104667e+02 -3.425754e+00 1.015161e+02 -1.978572e+00 9.278514e+01 -8.888249e-01 8.423927e+01 -5.998054e-02 7.610727e+01 3.099878e-01 6.769244e+01 8.216162e-01 5.953091e+01 8.707670e-01 5.146037e+01 1.136871e+00 4.338219e+01 1.109623e+00 3.567391e+01 1.307451e+00 2.775953e+01 1.456255e+00 2.029268e+01 1.546872e+00 1.262155e+01 1.765752e+00 5.127924e+00 1.553302e+00 -2.606201e+00 1.625474e+00 -1.030716e+01 1.266533e+00 -1.800635e+01 1.201489e+00 -2.588646e+01 9.594996e-01 -3.341563e+01 7.757570e-01 -4.126720e+01 6.945491e-01 -4.885934e+01 2.681518e-01 -5.680137e+01 3.861391e-02 -6.471147e+01 -3.417623e-01 -7.258990e+01 -8.797185e-01 -8.056612e+01 -1.587342e+00 -8.870994e+01 -2.517981e+00 -9.706262e+01 -3.744554e+00 -1.056686e+02 
-6.224297e+00 -1.156883e+02 -8.445975e+00 -1.250769e+02 -1.147865e+01 1.298050e+02 -8.479533e+00 1.202031e+02 -6.100615e+00 1.109287e+02 -4.190512e+00 1.019453e+02 -2.657895e+00 9.315938e+01 -1.480056e+00 8.448462e+01 -4.569401e-01 7.642261e+01 -1.830841e-01 6.767191e+01 3.761410e-01 5.947754e+01 4.232909e-01 5.133463e+01 5.925962e-01 4.306589e+01 6.757675e-01 3.554426e+01 7.083243e-01 2.731574e+01 9.886208e-01 2.003693e+01 9.661494e-01 1.220062e+01 1.346277e+00 4.792293e+00 9.878943e-01 -3.140177e+00 1.118251e+00 -1.087652e+01 7.785126e-01 -1.854621e+01 5.693561e-01 -2.668559e+01 4.465078e-01 -3.396909e+01 1.162841e-01 -4.213585e+01 2.098656e-01 -4.956239e+01 -4.295140e-01 -5.777938e+01 -6.933074e-01 -6.568979e+01 -1.100210e+00 -7.352081e+01 -1.638291e+00 -8.150974e+01 -2.345005e+00 -8.969209e+01 -3.291730e+00 -9.808580e+01 -4.553454e+00 -1.067301e+02 
-5.977000e+00 -1.152538e+02 -8.296779e+00 -1.247396e+02 -1.145185e+01 1.305689e+02 -8.381409e+00 1.208598e+02 -5.950942e+00 1.114948e+02 -4.004818e+00 1.024434e+02 -2.439572e+00 9.365118e+01 -1.154740e+00 8.504383e+01 -1.070657e-01 7.665609e+01 2.338759e-01 6.783494e+01 7.040111e-01 5.992449e+01 8.002604e-01 5.139717e+01 8.606288e-01 4.364031e+01 9.053877e-01 3.546332e+01 1.032844e+00 2.787499e+01 1.258697e+00 2.018920e+01 1.448053e+00 1.278427e+01 1.833576e+00 5.333816e+00 1.509372e+00 -2.693714e+00 1.620642e+00 -1.007829e+01 1.197279e+00 -1.838853e+01 1.028161e+00 -2.584920e+01 7.442831e-01 -3.377818e+01 6.844553e-01 -4.138307e+01 6.034785e-01 -4.902820e+01 1.104385e-01 -5.731866e+01 -1.713386e-01 -6.499734e+01 -6.104499e-01 -7.280204e+01 -1.168968e+00 -8.082697e+01 -1.907104e+00 -8.905991e+01 -2.901511e+00 -9.751033e+01 -4.226726e+00 -1.062191e+02 
-6.728531e+00 -1.162041e+02 -9.096963e+00 -1.257077e+02 -1.232979e+01 1.308107e+02 -9.177494e+00 1.210673e+02 -6.695823e+00 1.116623e+02 -4.721799e+00 1.026011e+02 -3.127159e+00 9.397929e+01 -1.677574e+00 8.584100e+01 -4.943657e-01 7.659238e+01 3.784022e-01 6.749281e+01 -3.439030e-01 6.018961e+01 1.091286e+00 5.055562e+01 -3.494682e-01 4.405405e+01 1.007368e+00 3.440671e+01 1.652352e-01 2.817912e+01 7.188934e-01 1.916662e+01 1.065434e+00 1.296026e+01 1.153703e+00 4.938111e+00 1.436276e+00 -3.437642e+00 4.983064e-01 -1.001175e+01 1.544488e+00 -1.982117e+01 -2.186036e-01 -2.573255e+01 5.507841e-01 -3.515567e+01 6.818608e-02 -4.134846e+01 1.221632e-01 -5.005302e+01 -1.984835e-01 -5.870028e+01 -1.264038e+00 -6.565570e+01 -1.459287e+00 -7.353881e+01 -1.896396e+00 -8.166622e+01 -2.603131e+00 -8.995102e+01 -3.601431e+00 -9.842888e+01 -4.946138e+00 -1.071555e+02 
-6.345408e+00 -1.156346e+02 -8.773614e+00 -1.252066e+02 -1.207470e+01 1.313225e+02 -8.888765e+00 1.215094e+02 -6.377073e+00 1.120528e+02 -4.373278e+00 1.029651e+02 -2.748527e+00 9.435354e+01 -1.288327e+00 8.624301e+01 -1.553846e-01 7.691575e+01 8.611713e-01 6.777528e+01 7.661913e-02 6.057245e+01 1.626365e+00 5.079270e+01 1.129800e-01 4.454365e+01 1.569409e+00 3.465389e+01 7.050341e-01 2.875268e+01 1.275333e+00 1.951475e+01 1.677000e+00 1.360527e+01 1.731701e+00 5.468508e+00 2.073916e+00 -2.866298e+00 1.055079e+00 -9.309576e+00 2.267217e+00 -1.933054e+01 3.581280e-01 -2.491642e+01 1.293769e+00 -3.461340e+01 7.302289e-01 -4.044229e+01 8.566652e-01 -4.942111e+01 4.619995e-01 -5.799143e+01 -7.470217e-01 -6.482786e+01 -9.207730e-01 -7.275357e+01 -1.359520e+00 -8.092367e+01 -2.089987e+00 -8.924492e+01 -3.123685e+00 -9.776099e+01 -4.511852e+00 -1.065321e+02 
-6.971615e+00 -1.164456e+02 -9.411037e+00 -1.260097e+02 -1.272789e+01 1.312604e+02 -9.509880e+00 1.214519e+02 -6.964735e+00 1.119912e+02 -4.925793e+00 1.028538e+02 -3.287314e+00 9.400227e+01 -1.964775e+00 8.533236e+01 -9.805291e-01 7.677734e+01 -3.969005e-01 6.773781e+01 1.055669e-02 5.989070e+01 2.575740e-01 5.109184e+01 2.154536e-01 4.348539e+01 3.408407e-01 3.505284e+01 4.376144e-01 2.757672e+01 6.132052e-01 1.971327e+01 8.941568e-01 1.235960e+01 1.173779e+00 4.833473e+00 9.499079e-01 -3.336456e+00 9.113209e-01 -1.062396e+01 6.676942e-01 -1.918071e+01 2.935442e-01 -2.647882e+01 1.390963e-01 -3.459739e+01 2.419411e-02 -4.208712e+01 -4.323143e-02 -4.984665e+01 -5.466300e-01 -5.825080e+01 -9.640266e-01 -6.586000e+01 -1.375478e+00 -7.371334e+01 -1.932285e+00 -8.179808e+01 -2.697666e+00 -9.008631e+01 -3.739903e+00 -9.859016e+01 -5.132103e+00 -1.073528e+02 
-6.448185e+00 -1.157391e+02 -8.909199e+00 -1.253434e+02 -1.224155e+01 1.314969e+02 -9.033597e+00 1.216543e+02 -6.488018e+00 1.121714e+02 -4.439008e+00 1.030101e+02 -2.789105e+00 9.407318e+01 -1.512237e+00 8.526701e+01 -3.896538e-01 7.709743e+01 -3.905019e-02 6.823436e+01 6.638462e-01 6.003141e+01 7.366589e-01 5.181687e+01 9.977172e-01 4.359593e+01 1.082204e+00 3.603104e+01 1.173725e+00 2.786484e+01 1.469729e+00 2.059325e+01 1.472450e+00 1.278694e+01 1.892807e+00 5.406538e+00 1.519840e+00 -2.552523e+00 1.721429e+00 -1.023392e+01 1.360711e+00 -1.795653e+01 1.225250e+00 -2.601895e+01 1.091243e+00 -3.331712e+01 7.867864e-01 -4.144558e+01 8.600973e-01 -4.887789e+01 1.378884e-01 -5.713938e+01 -1.788322e-01 -6.505160e+01 -6.725068e-01 -7.293684e+01 -1.295095e+00 -8.101640e+01 -2.100007e+00 -8.930933e+01 -3.169885e+00 -9.782842e+01 -4.585980e+00 -1.066146e+02 
-6.945077e+00 -1.164167e+02 -9.380622e+00 -1.259851e+02 -1.267514e+01 1.311102e+02 -9.488888e+00 1.212934e+02 -6.957143e+00 1.118121e+02 -4.929913e+00 1.026218e+02 -3.320822e+00 9.365930e+01 -2.092321e+00 8.488907e+01 -1.096745e+00 7.656284e+01 -6.194600e-01 6.796018e+01 1.709109e-02 5.965739e+01 1.557871e-01 5.148354e+01 4.681097e-01 4.328955e+01 4.980956e-01 3.554319e+01 6.833768e-01 2.750228e+01 8.423310e-01 1.999698e+01 9.086415e-01 1.222291e+01 1.132831e+00 4.676108e+00 9.121676e-01 -3.144100e+00 1.002937e+00 -1.090200e+01 6.727209e-01 -1.863228e+01 6.043067e-01 -2.660176e+01 3.724841e-01 -3.413125e+01 1.613691e-01 -4.209188e+01 5.983123e-02 -4.970673e+01 -4.360260e-01 -5.775916e+01 -7.319103e-01 -6.574592e+01 -1.194499e+00 -7.370765e+01 -1.820193e+00 -8.179554e+01 -2.632877e+00 -9.007007e+01 -3.699554e+00 -9.856494e+01 -5.102660e+00 -1.073237e+02 