# vtk DataFile Version 2.0
Comment goes here
ASCII

DATASET STRUCTURED_POINTS
FIELD FieldData 1
TIME 1 1 double
0.03200000
DIMENSIONS    64   64   1

ORIGIN    0.000   0.000   0.000
SPACING   0.03125 0.03125   1.000

POINT_DATA   4096
SCALARS P double
LOOKUP_TABLE default

-3.498799e+01 -2.045715e+02 -3.019414e+01 -1.988343e+02 -6.796150e+00 1.199345e+02 -1.608942e+01 1.144502e+02 -1.692498e+01 1.120836e+02 -1.891558e+01 1.100256e+02 -2.284637e+01 1.079298e+02 -2.201727e+01 9.780501e+01 -1.165691e+01 7.893469e+01 3.911870e+00 5.910867e+01 1.502232e+01 4.340312e+01 2.219434e+01 2.948930e+01 2.505439e+01 2.084237e+01 1.859290e+01 2.247780e+01 1.483080e+00 2.575723e+01 -9.611413e+00 1.586570e+01 -9.199829e+00 1.585037e-01 -9.103706e+00 -1.493422e+01 -6.936410e+00 -3.090378e+01 -8.149691e+00 -4.150898e+01 -1.626542e+01 -4.728187e+01 -2.534052e+01 -5.401645e+01 -3.487293e+01 -5.826443e+01 -4.593849e+01 -6.446008e+01 -5.413470e+01 -7.102022e+01 -6.336496e+01 -7.627706e+01 -6.971040e+01 -8.820399e+01 -6.766735e+01 -1.064182e+02 -6.006255e+01 -1.292763e+02 -4.798466e+01 -1.523481e+02 -3.871316e+01 -1.686674e+02 -3.804735e+01 -1.726662e+02 
-1.118129e+01 -1.356157e+02 -9.175140e+00 -1.320085e+02 5.717868e+00 1.060530e+02 -3.121339e+00 1.014146e+02 -4.316549e+00 9.813364e+01 -5.725118e+00 9.464797e+01 -8.390845e+00 9.138658e+01 -8.792568e+00 8.393203e+01 -4.381358e+00 7.191122e+01 2.702302e+00 5.941908e+01 7.308856e+00 4.914053e+01 1.028957e+01 3.906959e+01 1.210385e+01 3.099293e+01 9.571604e+00 2.838328e+01 1.318839e+00 2.681936e+01 -3.685433e+00 1.816741e+01 -2.587487e+00 7.017570e+00 -2.507495e+00 -3.232498e+00 -1.090376e+00 -1.434504e+01 -1.092367e+00 -2.283748e+01 -4.530835e+00 -2.891259e+01 -8.066800e+00 -3.585561e+01 -1.163874e+01 -4.131193e+01 -1.616991e+01 -4.775807e+01 -1.919163e+01 -5.415745e+01 -2.319783e+01 -5.928989e+01 -2.613806e+01 -6.758152e+01 -2.504946e+01 -7.856804e+01 -2.169953e+01 -9.147928e+01 -1.616363e+01 -1.044434e+02 -1.203264e+01 -1.137556e+02 -1.266676e+01 -1.155082e+02 
2.561102e+00 -9.027870e+01 2.647440e+00 -9.062804e+01 6.518290e+00 9.502275e+01 2.764214e+00 9.192263e+01 2.144388e+00 8.810304e+01 1.699501e+00 8.351045e+01 9.834414e-01 7.864862e+01 4.863604e-01 7.289634e+01 5.693103e-01 6.625565e+01 1.037021e+00 5.937447e+01 1.040790e+00 5.273419e+01 1.066174e+00 4.555422e+01 1.551489e+00 3.813561e+01 1.687197e+00 3.155714e+01 8.478974e-01 2.524335e+01 5.843663e-01 1.777385e+01 1.275174e+00 1.031098e+01 1.215880e+00 3.352880e+00 1.433186e+00 -4.026454e+00 1.618637e+00 -1.114672e+01 1.330835e+00 -1.794020e+01 1.251437e+00 -2.506379e+01 1.256670e+00 -3.176736e+01 9.932187e-01 -3.852799e+01 1.021469e+00 -4.508793e+01 7.350598e-01 -5.107829e+01 5.303233e-01 -5.729360e+01 8.162780e-01 -6.343041e+01 1.153813e+00 -6.940688e+01 1.783818e+00 -7.512903e+01 2.259553e+00 -7.997982e+01 1.958988e+00 -8.280370e+01 
2.080999e+00 -9.185401e+01 2.625888e+00 -9.423693e+01 3.286499e+00 9.681563e+01 2.851553e+00 9.352868e+01 2.159042e+00 8.948525e+01 1.490158e+00 8.483873e+01 8.018063e-01 7.969373e+01 4.475311e-01 7.370537e+01 6.890401e-01 6.690213e+01 1.314053e+00 5.976340e+01 1.791923e+00 5.267747e+01 2.153009e+00 4.546237e+01 2.490509e+00 3.834790e+01 2.345407e+00 3.177834e+01 1.594507e+00 2.527946e+01 1.099354e+00 1.806589e+01 1.185521e+00 1.058986e+01 1.195056e+00 3.230202e+00 1.348012e+00 -4.221555e+00 1.426569e+00 -1.144420e+01 1.200949e+00 -1.838713e+01 9.558905e-01 -2.531732e+01 7.206661e-01 -3.201917e+01 3.728111e-01 -3.864565e+01 9.687880e-02 -4.510794e+01 -2.803467e-01 -5.133784e+01 -5.230816e-01 -5.771793e+01 -3.575940e-01 -6.418328e+01 8.512168e-02 -7.056335e+01 7.508910e-01 -7.659369e+01 1.298828e+00 -8.183517e+01 1.482495e+00 -8.620903e+01 
2.408492e+00 -8.924813e+01 2.832889e+00 -9.202815e+01 3.442779e+00 9.559125e+01 2.832879e+00 9.227012e+01 2.272484e+00 8.816964e+01 1.809340e+00 8.343569e+01 1.357469e+00 7.821551e+01 1.050948e+00 7.240391e+01 9.965003e-01 6.604600e+01 1.106967e+00 5.939613e+01 1.148960e+00 5.263714e+01 1.200781e+00 4.566006e+01 1.336159e+00 3.860285e+01 1.324776e+00 3.174578e+01 1.059505e+00 2.491568e+01 9.481487e-01 1.774991e+01 1.105186e+00 1.051310e+01 1.147416e+00 3.380261e+00 1.221829e+00 -3.804246e+00 1.253635e+00 -1.089147e+01 1.144213e+00 -1.785884e+01 1.051983e+00 -2.482600e+01 9.718025e-01 -3.164387e+01 8.432778e-01 -3.837030e+01 7.738912e-01 -4.492629e+01 6.714500e-01 -5.123812e+01 6.488999e-01 -5.747607e+01 8.224263e-01 -6.358301e+01 1.103775e+00 -6.948370e+01 1.486677e+00 -7.506005e+01 1.820463e+00 -8.008061e+01 2.000473e+00 -8.446092e+01 
1.937660e+00 -9.193735e+01 2.513857e+00 -9.549782e+01 3.134848e+00 9.756992e+01 2.678155e+00 9.398319e+01 2.158980e+00 8.966608e+01 1.674088e+00 8.476089e+01 1.267959e+00 7.932503e+01 1.065010e+00 7.330177e+01 1.141930e+00 6.674648e+01 1.415115e+00 5.988007e+01 1.688044e+00 5.289560e+01 1.898413e+00 4.584020e+01 2.012559e+00 3.882689e+01 1.896218e+00 3.195482e+01 1.566972e+00 2.506475e+01 1.287556e+00 1.791919e+01 1.195172e+00 1.062317e+01 1.146000e+00 3.319047e+00 1.138847e+00 -3.974481e+00 1.088753e+00 -1.115358e+01 9.241604e-01 -1.819344e+01 7.156881e-01 -2.514022e+01 4.840511e-01 -3.196178e+01 2.312584e-01 -3.867579e+01 2.432846e-03 -4.526563e+01 -1.967456e-01 -5.173200e+01 -2.759384e-01 -5.816732e+01 -1.458299e-01 -6.455126e+01 1.660492e-01 -7.078570e+01 6.006115e-01 -7.671734e+01 1.034906e+00 -8.217533e+01 1.420238e+00 -8.715884e+01 
2.233628e+00 -9.045022e+01 2.684757e+00 -9.429855e+01 3.217302e+00 9.704926e+01 2.739157e+00 9.321443e+01 2.292287e+00 8.876637e+01 1.918855e+00 8.378466e+01 1.607564e+00 7.833824e+01 1.389308e+00 7.243283e+01 1.285085e+00 6.611396e+01 1.272056e+00 5.951906e+01 1.266942e+00 5.275358e+01 1.267847e+00 4.584264e+01 1.278239e+00 3.886677e+01 1.224446e+00 3.189834e+01 1.111318e+00 2.490481e+01 1.036948e+00 1.778435e+01 1.056085e+00 1.061610e+01 1.064503e+00 3.466797e+00 1.069939e+00 -3.672803e+00 1.042586e+00 -1.075568e+01 9.526400e-01 -1.777792e+01 8.539274e-01 -2.474340e+01 7.443622e-01 -3.162304e+01 6.440794e-01 -3.839331e+01 5.712006e-01 -4.502232e+01 5.370297e-01 -5.148300e+01 5.809430e-01 -5.779973e+01 7.318335e-01 -6.395413e+01 9.655983e-01 -6.990245e+01 1.257823e+00 -7.557366e+01 1.557024e+00 -8.087765e+01 1.849474e+00 -8.579856e+01 
1.705391e+00 -9.334010e+01 2.214919e+00 -9.769096e+01 2.733713e+00 9.924303e+01 2.427576e+00 9.507158e+01 2.088312e+00 9.036645e+01 1.782788e+00 8.517081e+01 1.549691e+00 7.951760e+01 1.427523e+00 7.341171e+01 1.428199e+00 6.689243e+01 1.542695e+00 6.010843e+01 1.667387e+00 5.317805e+01 1.754526e+00 4.616756e+01 1.770772e+00 3.915038e+01 1.660271e+00 3.213138e+01 1.478780e+00 2.508354e+01 1.283463e+00 1.791237e+01 1.167854e+00 1.067004e+01 1.074565e+00 3.410336e+00 9.950497e-01 -3.827934e+00 8.853980e-01 -1.099404e+01 7.104429e-01 -1.808768e+01 5.130465e-01 -2.509227e+01 2.800358e-01 -3.202251e+01 7.123793e-02 -3.884682e+01 -1.166933e-01 -4.556714e+01 -2.312928e-01 -5.217550e+01 -2.356924e-01 -5.868339e+01 -1.081880e-01 -6.508238e+01 1.394188e-01 -7.132498e+01 4.734435e-01 -7.733180e+01 8.464941e-01 -8.302148e+01 1.243940e+00 -8.836320e+01 
1.964653e+00 -9.248397e+01 2.358503e+00 -9.712419e+01 2.778600e+00 9.926154e+01 2.493244e+00 9.476505e+01 2.207799e+00 8.986826e+01 1.967369e+00 8.457279e+01 1.777725e+00 7.889943e+01 1.632110e+00 7.285482e+01 1.510057e+00 6.644650e+01 1.451203e+00 5.980545e+01 1.396730e+00 5.300903e+01 1.339146e+00 4.608681e+01 1.291325e+00 3.911537e+01 1.193117e+00 3.207101e+01 1.123324e+00 2.501063e+01 1.038463e+00 1.786318e+01 1.023625e+00 1.070262e+01 9.969381e-01 3.547062e+00 9.627695e-01 -3.593548e+00 9.028963e-01 -1.068213e+01 7.824049e-01 -1.775329e+01 6.746330e-01 -2.475311e+01 5.227120e-01 -3.171771e+01 4.279103e-01 -3.856790e+01 3.452052e-01 -4.529890e+01 3.362071e-01 -5.188021e+01 4.138472e-01 -5.829112e+01 5.667650e-01 -6.453643e+01 7.798270e-01 -7.060554e+01 1.035625e+00 -7.646637e+01 1.314562e+00 -8.207906e+01 1.615478e+00 -8.742366e+01 
1.397360e+00 -9.534503e+01 1.813063e+00 -1.004024e+02 2.222764e+00 1.015918e+02 2.094681e+00 9.674083e+01 1.941318e+00 9.156197e+01 1.811460e+00 8.603349e+01 1.728031e+00 8.015393e+01 1.682482e+00 7.391678e+01 1.633526e+00 6.729647e+01 1.680162e+00 6.047830e+01 1.702148e+00 5.353230e+01 1.692683e+00 4.649685e+01 1.656197e+00 3.945913e+01 1.502572e+00 3.232938e+01 1.395845e+00 2.521078e+01 1.208151e+00 1.797451e+01 1.121440e+00 1.073792e+01 1.004323e+00 3.485669e+00 8.957053e-01 -3.743666e+00 7.582509e-01 -1.090715e+01 5.365549e-01 -1.806566e+01 3.512132e-01 -2.512648e+01 7.024612e-02 -3.219430e+01 -1.046331e-01 -3.913705e+01 -2.957231e-01 -4.599993e+01 -3.701923e-01 -5.273200e+01 -3.269229e-01 -5.931463e+01 -1.867306e-01 -6.577282e+01 3.666198e-02 -7.210135e+01 3.224477e-01 -7.826371e+01 6.484002e-01 -8.421512e+01 1.005342e+00 -8.992184e+01 
1.620162e+00 -9.488003e+01 1.926983e+00 -1.002310e+02 2.227780e+00 1.019944e+02 2.139283e+00 9.680601e+01 2.033759e+00 9.140535e+01 1.951988e+00 8.575288e+01 1.903875e+00 7.983248e+01 1.857432e+00 7.361793e+01 1.711891e+00 6.700304e+01 1.638538e+00 6.024669e+01 1.546330e+00 5.337840e+01 1.411721e+00 4.638503e+01 1.350683e+00 3.941850e+01 1.152991e+00 3.226490e+01 1.138090e+00 2.519247e+01 9.925335e-01 1.795721e+01 1.000785e+00 1.079062e+01 9.511815e-01 3.608297e+00 8.888767e-01 -3.555938e+00 8.241399e-01 -1.063865e+01 6.170804e-01 -1.779231e+01 5.324299e-01 -2.481072e+01 2.724780e-01 -3.192677e+01 2.017357e-01 -3.887112e+01 7.152066e-02 -4.574656e+01 6.079905e-02 -5.245318e+01 1.717191e-01 -5.894502e+01 3.435398e-01 -6.528980e+01 5.571057e-01 -7.151160e+01 7.977307e-01 -7.760059e+01 1.055019e+00 -8.353647e+01 1.327475e+00 -8.930263e+01 
1.034437e+00 -9.763774e+01 1.342756e+00 -1.033604e+02 1.625868e+00 1.043792e+02 1.687265e+00 9.884743e+01 1.721516e+00 9.316510e+01 1.772675e+00 8.728154e+01 1.860135e+00 8.116390e+01 1.937825e+00 7.476973e+01 1.806232e+00 6.789299e+01 1.839205e+00 6.098301e+01 1.791192e+00 5.395459e+01 1.662231e+00 4.684387e+01 1.643639e+00 3.982121e+01 1.325653e+00 3.253158e+01 1.360840e+00 2.543254e+01 1.071190e+00 1.804227e+01 1.088837e+00 1.083348e+01 9.498778e-01 3.526804e+00 8.293079e-01 -3.701146e+00 7.128300e-01 -1.085100e+01 3.524692e-01 -1.811990e+01 2.616323e-01 -2.517730e+01 -2.009978e-01 -3.248478e+01 -2.779510e-01 -3.951944e+01 -5.544839e-01 -4.660319e+01 -6.210160e-01 -5.344423e+01 -5.257783e-01 -6.006218e+01 -3.523012e-01 -6.658232e+01 -1.243929e-01 -7.303198e+01 1.387110e-01 -7.939051e+01 4.237859e-01 -8.562779e+01 7.239418e-01 -9.171821e+01 
1.224992e+00 -9.741488e+01 1.429198e+00 -1.034238e+02 1.596394e+00 1.050380e+02 1.704350e+00 9.918119e+01 1.781268e+00 9.326933e+01 1.872939e+00 8.725084e+01 2.007610e+00 8.109206e+01 2.153420e+00 7.473154e+01 1.952822e+00 6.766991e+01 1.800774e+00 6.084240e+01 1.775698e+00 5.381471e+01 1.408325e+00 4.671275e+01 1.510335e+00 3.983521e+01 9.926684e-01 3.241895e+01 1.205538e+00 2.550847e+01 8.813858e-01 1.797649e+01 9.814363e-01 1.093744e+01 9.640277e-01 3.595342e+00 8.062237e-01 -3.535212e+00 8.691719e-01 -1.059701e+01 3.733855e-01 -1.791756e+01 4.970968e-01 -2.481468e+01 -7.899530e-02 -3.229857e+01 -1.665541e-02 -3.922954e+01 -2.480188e-01 -4.644902e+01 -3.328702e-01 -5.323287e+01 -1.523028e-01 -5.972359e+01 7.059421e-02 -6.614726e+01 3.073459e-01 -7.253341e+01 5.443689e-01 -7.886721e+01 7.769456e-01 -8.513175e+01 1.004335e+00 -9.131642e+01 
6.369124e-01 -1.000361e+02 8.281379e-01 -1.063800e+02 9.662664e-01 1.074011e+02 1.216259e+00 1.012259e+02 1.428232e+00 9.505350e+01 1.658426e+00 8.883468e+01 1.962008e+00 8.252251e+01 2.325778e+00 7.598805e+01 2.030732e+00 6.845444e+01 1.910417e+00 6.170260e+01 2.049800e+00 5.431961e+01 1.461881e+00 4.723956e+01 1.869864e+00 4.027237e+01 8.910066e-01 3.264208e+01 1.484453e+00 2.585873e+01 8.015294e-01 1.790578e+01 1.065211e+00 1.111068e+01 9.723612e-01 3.347096e+00 6.924509e-01 -3.587389e+00 8.782178e-01 -1.084672e+01 -4.376525e-02 -1.826902e+01 4.018551e-01 -2.508883e+01 -6.992294e-01 -3.302908e+01 -3.845614e-01 -3.981879e+01 -8.953681e-01 -4.764182e+01 -1.059388e+00 -5.435082e+01 -8.484793e-01 -6.086677e+01 -5.865465e-01 -6.743616e+01 -3.214145e-01 -7.403268e+01 -6.593050e-02 -8.061318e+01 1.801382e-01 -8.714962e+01 4.162524e-01 -9.362636e+01 
8.032940e-01 -9.995103e+01 8.950436e-01 -1.065644e+02 9.150903e-01 1.082087e+02 1.210611e+00 1.017296e+02 1.453475e+00 9.532873e+01 1.701859e+00 8.896825e+01 2.032800e+00 8.265077e+01 2.564317e+00 7.645236e+01 2.592112e+00 6.773004e+01 1.341436e+00 6.197872e+01 2.522817e+00 5.386839e+01 7.378894e-01 4.717643e+01 2.125292e+00 4.038543e+01 3.137210e-01 3.222375e+01 1.380700e+00 2.632339e+01 7.602740e-01 1.726416e+01 6.359736e-01 1.167319e+01 1.317522e+00 2.852616e+00 2.332281e-01 -3.167926e+00 1.367151e+00 -1.076540e+01 -4.199540e-01 -1.820876e+01 8.064672e-01 -2.446358e+01 -7.209724e-01 -3.331725e+01 -3.338587e-01 -3.911256e+01 -4.959376e-01 -4.816579e+01 -1.111023e+00 -5.418023e+01 -5.940124e-01 -6.050485e+01 -2.324900e-01 -6.701265e+01 5.435021e-02 -7.358636e+01 2.918407e-01 -8.017768e+01 4.937276e-01 -8.676898e+01 6.651862e-01 -9.335778e+01 
2.251081e-01 -1.024170e+02 2.937840e-01 -1.093307e+02 2.765796e-01 1.104774e+02 7.014404e-01 1.037058e+02 1.061785e+00 9.706733e+01 1.422081e+00 9.056452e+01 1.894574e+00 8.432173e+01 2.791163e+00 7.867035e+01 3.256284e+00 6.780529e+01 9.981207e-01 6.361332e+01 3.637708e+00 5.394180e+01 1.569226e-01 4.795203e+01 3.082057e+00 4.115921e+01 -1.303567e-01 3.202405e+01 1.706627e+00 2.754904e+01 1.051112e+00 1.638575e+01 2.107620e-01 1.275269e+01 2.300791e+00 1.892716e+00 -6.148529e-01 -2.615486e+00 2.387955e+00 -1.110580e+01 -1.462646e+00 -1.866738e+01 1.217280e+00 -2.402812e+01 -1.329609e+00 -3.473041e+01 -9.158632e-01 -3.881277e+01 -1.165153e-01 -5.018610e+01 -2.501824e+00 -5.513221e+01 -1.368046e+00 -6.152152e+01 -8.349431e-01 -6.823827e+01 -5.076665e-01 -7.503312e+01 -2.641165e-01 -8.185616e+01 -6.466425e-02 -8.869356e+01 1.001067e-01 -9.554434e+01 
3.779482e-01 -1.023925e+02 3.535372e-01 -1.095530e+02 2.254113e-01 1.113422e+02 6.902374e-01 1.042912e+02 1.072018e+00 9.742488e+01 1.424690e+00 9.073165e+01 1.819729e+00 8.427161e+01 2.414590e+00 7.816394e+01 2.622846e+00 6.821129e+01 1.430907e+00 6.307021e+01 2.915125e+00 5.417329e+01 6.391350e-01 4.773660e+01 2.532956e+00 4.097598e+01 1.934239e-01 3.222934e+01 1.540901e+00 2.707077e+01 9.836690e-01 1.690176e+01 4.369114e-01 1.231271e+01 1.913164e+00 2.487495e+00 -1.935052e-01 -2.798588e+00 2.019563e+00 -1.077204e+01 -9.256298e-01 -1.836942e+01 1.162609e+00 -2.409950e+01 -8.793008e-01 -3.400652e+01 -5.301188e-01 -3.886967e+01 7.722782e-02 -4.917441e+01 -1.933237e+00 -5.466954e+01 -9.671384e-01 -6.110539e+01 -4.606502e-01 -6.781521e+01 -1.477304e-01 -7.461483e+01 6.886434e-02 -8.146908e+01 2.247905e-01 -8.837511e+01 3.294341e-01 -9.534302e+01 
-1.815799e-01 -1.046906e+02 -2.341204e-01 -1.121176e+02 -3.974311e-01 1.134540e+02 1.785155e-01 1.061248e+02 6.642109e-01 9.899208e+01 1.109474e+00 9.201048e+01 1.559933e+00 8.512552e+01 1.996728e+00 7.815086e+01 1.618832e+00 6.984069e+01 1.895094e+00 6.301027e+01 1.841226e+00 5.511845e+01 1.421592e+00 4.803361e+01 1.787022e+00 4.078983e+01 7.132459e-01 3.307296e+01 1.437395e+00 2.622223e+01 5.568076e-01 1.801921e+01 9.737190e-01 1.136078e+01 7.527737e-01 3.213749e+00 5.638047e-01 -3.522117e+00 7.583821e-01 -1.110434e+01 -2.616496e-01 -1.845200e+01 3.519209e-01 -2.546570e+01 -1.004111e+00 -3.355735e+01 -5.312170e-01 -4.039769e+01 -1.197578e+00 -4.868428e+01 -1.346464e+00 -5.537795e+01 -1.091617e+00 -6.213814e+01 -8.270647e-01 -6.902943e+01 -6.021596e-01 -7.601498e+01 -4.248514e-01 -8.307106e+01 -2.925490e-01 -9.019401e+01 -2.078404e-01 -9.739359e+01 
-3.135453e-02 -1.046675e+02 -1.690590e-01 -1.123151e+02 -4.336892e-01 1.142975e+02 1.751508e-01 1.067124e+02 6.776233e-01 9.935471e+01 1.118605e+00 9.216528e+01 1.537867e+00 8.506716e+01 1.933478e+00 7.790416e+01 1.880715e+00 7.019196e+01 1.816649e+00 6.284747e+01 1.949931e+00 5.541946e+01 1.460407e+00 4.799321e+01 1.706697e+00 4.092787e+01 9.978931e-01 3.320035e+01 1.345888e+00 2.622220e+01 9.215942e-01 1.840324e+01 1.028463e+00 1.133924e+01 1.051419e+00 3.808608e+00 7.492450e-01 -3.393074e+00 9.228069e-01 -1.055298e+01 1.787223e-01 -1.811878e+01 4.655755e-01 -2.505874e+01 -3.353493e-01 -3.297760e+01 -1.864133e-01 -4.002912e+01 -5.017491e-01 -4.773789e+01 -7.828448e-01 -5.481509e+01 -6.249010e-01 -6.166751e+01 -4.215062e-01 -6.858855e+01 -2.387125e-01 -7.559936e+01 -1.006312e-01 -8.269823e+01 -1.436485e-02 -8.989428e+01 1.303148e-02 -9.720738e+01 
-5.677697e-01 -1.067884e+02 -7.367089e-01 -1.146690e+02 -1.038217e+00 1.162145e+02 -3.364406e-01 1.083760e+02 2.470547e-01 1.007664e+02 7.447615e-01 9.331531e+01 1.169160e+00 8.593810e+01 1.474043e+00 7.851827e+01 1.461934e+00 7.086824e+01 1.583831e+00 6.335716e+01 1.576984e+00 5.583192e+01 1.436778e+00 4.836521e+01 1.424047e+00 4.100691e+01 1.060348e+00 3.345963e+01 1.135667e+00 2.613167e+01 8.079570e-01 1.852429e+01 8.714382e-01 1.118185e+01 7.000681e-01 3.679750e+00 6.059663e-01 -3.659517e+00 4.654717e-01 -1.100439e+01 8.615699e-02 -1.845681e+01 5.542379e-03 -2.574216e+01 -5.257087e-01 -3.337114e+01 -5.636946e-01 -4.070698e+01 -9.188414e-01 -4.826855e+01 -9.317180e-01 -5.551069e+01 -8.648380e-01 -6.261280e+01 -7.579867e-01 -6.973427e+01 -6.442076e-01 -7.692632e+01 -5.511252e-01 -8.420789e+01 -4.966187e-01 -9.159550e+01 -4.960360e-01 -9.911172e+01 
-4.110222e-01 -1.067205e+02 -6.560890e-01 -1.147934e+02 -1.047283e+00 1.169835e+02 -3.181744e-01 1.089222e+02 2.809129e-01 1.011170e+02 7.813768e-01 9.349795e+01 1.197842e+00 8.598824e+01 1.501173e+00 7.850381e+01 1.562997e+00 7.093515e+01 1.619216e+00 6.337502e+01 1.631939e+00 5.591312e+01 1.482382e+00 4.841382e+01 1.456370e+00 4.106916e+01 1.189451e+00 3.355119e+01 1.206685e+00 2.620807e+01 1.004555e+00 1.871216e+01 9.998010e-01 1.135035e+01 9.076492e-01 3.986219e+00 7.781432e-01 -3.371425e+00 6.785774e-01 -1.064019e+01 3.696377e-01 -1.807584e+01 2.761785e-01 -2.535962e+01 -9.335905e-02 -3.289272e+01 -1.784225e-01 -4.024461e+01 -4.094023e-01 -4.766039e+01 -4.943932e-01 -5.495618e+01 -4.520399e-01 -6.211313e+01 -3.729882e-01 -6.926934e+01 -2.913135e-01 -7.649378e+01 -2.346453e-01 -8.382108e+01 -2.234025e-01 -9.127904e+01 -2.754673e-01 -9.889908e+01 
-9.222597e-01 -1.086572e+02 -1.199603e+00 -1.169296e+02 -1.629608e+00 1.186888e+02 -8.214529e-01 1.104102e+02 -1.556947e-01 1.023920e+02 3.919891e-01 9.456531e+01 8.279650e-01 8.685935e+01 1.128441e+00 7.920333e+01 1.251548e+00 7.152565e+01 1.354010e+00 6.388244e+01 1.378418e+00 5.629338e+01 1.321947e+00 4.873148e+01 1.262189e+00 4.123786e+01 1.092157e+00 3.369886e+01 1.029292e+00 2.622896e+01 8.616019e-01 1.870609e+01 7.998636e-01 1.125287e+01 6.674326e-01 3.801218e+00 5.436203e-01 -3.620453e+00 3.770365e-01 -1.101732e+01 1.329019e-01 -1.847153e+01 -5.554547e-02 -2.588690e+01 -3.590702e-01 -3.340942e+01 -5.174777e-01 -4.085772e+01 -7.276211e-01 -4.833410e+01 -7.783076e-01 -5.572270e+01 -7.642535e-01 -6.303744e+01 -7.255674e-01 -7.035663e+01 -6.838310e-01 -7.774035e+01 -6.612668e-01 -8.522850e+01 -6.791081e-01 -9.285344e+01 -7.583125e-01 -1.006492e+02 
-7.515631e-01 -1.085082e+02 -1.095175e+00 -1.169429e+02 -1.602563e+00 1.193445e+02 -7.720578e-01 1.108806e+02 -9.225717e-02 1.027034e+02 4.617902e-01 9.474701e+01 8.991624e-01 8.694665e+01 1.203749e+00 7.923912e+01 1.346109e+00 7.155533e+01 1.436365e+00 6.390366e+01 1.459150e+00 5.632874e+01 1.400547e+00 4.877131e+01 1.344558e+00 4.129127e+01 1.205136e+00 3.377752e+01 1.146584e+00 2.632922e+01 1.021667e+00 1.886062e+01 9.603665e-01 1.144311e+01 8.611241e-01 4.055165e+00 7.429859e-01 -3.329871e+00 6.081261e-01 -1.068151e+01 3.994395e-01 -1.809922e+01 2.396968e-01 -2.548924e+01 -2.007514e-03 -3.296024e+01 -1.466462e-01 -4.038443e+01 -3.132064e-01 -4.780728e+01 -3.880766e-01 -5.519523e+01 -3.885168e-01 -6.252716e+01 -3.653342e-01 -6.986652e+01 -3.454109e-01 -7.727661e+01 -3.518851e-01 -8.480503e+01 -4.067140e-01 -9.249160e+01 -5.318389e-01 -1.003769e+02 
-1.235781e+00 -1.102554e+02 -1.610185e+00 -1.188568e+02 -2.155380e+00 1.208265e+02 -1.256435e+00 1.121849e+02 -5.174974e-01 1.038369e+02 8.513547e-02 9.571911e+01 5.607830e-01 8.776862e+01 8.984225e-01 7.992430e+01 1.081515e+00 7.212303e+01 1.198625e+00 6.436954e+01 1.243154e+00 5.669657e+01 1.211623e+00 4.905049e+01 1.166693e+00 4.147898e+01 1.048017e+00 3.389098e+01 9.781601e-01 2.636167e+01 8.529416e-01 1.882689e+01 7.659316e-01 1.133666e+01 6.458332e-01 3.875772e+00 5.074947e-01 -3.581206e+00 3.510635e-01 -1.101101e+01 1.360344e-01 -1.849665e+01 -4.619554e-02 -2.596600e+01 -2.892132e-01 -3.350100e+01 -4.584545e-01 -4.100544e+01 -6.306780e-01 -4.850920e+01 -7.182192e-01 -5.599318e+01 -7.366574e-01 -6.343825e+01 -7.337363e-01 -7.090079e+01 -7.354313e-01 -7.844068e+01 -7.639126e-01 -8.610481e+01 -8.410782e-01 -9.393328e+01 -9.897693e-01 -1.019674e+02 
-1.044681e+00 -1.099966e+02 -1.475042e+00 -1.187291e+02 -2.085381e+00 1.213355e+02 -1.169742e+00 1.125468e+02 -4.197644e-01 1.040756e+02 1.899918e-01 9.586054e+01 6.712650e-01 8.784069e+01 1.014564e+00 7.995398e+01 1.196151e+00 7.212624e+01 1.312027e+00 6.436426e+01 1.351102e+00 5.670299e+01 1.314414e+00 4.906571e+01 1.278279e+00 4.152245e+01 1.163881e+00 3.395404e+01 1.114754e+00 2.646249e+01 1.005257e+00 1.896371e+01 9.382513e-01 1.151931e+01 8.394138e-01 4.108325e+00 7.184013e-01 -3.304353e+00 5.905758e-01 -1.068287e+01 3.948033e-01 -1.813346e+01 2.484806e-01 -2.556002e+01 2.854382e-02 -3.306538e+01 -1.160798e-01 -4.053699e+01 -2.742963e-01 -4.801204e+01 -3.667792e-01 -5.548068e+01 -3.883413e-01 -6.291604e+01 -3.925298e-01 -7.037915e+01 -4.079262e-01 -7.793252e+01 -4.578963e-01 -8.562583e+01 -5.647743e-01 -9.350286e+01 -7.516794e-01 -1.016090e+02 
-1.499317e+00 -1.115519e+02 -1.956844e+00 -1.204180e+02 -2.601284e+00 1.225814e+02 -1.626942e+00 1.136546e+02 -8.240512e-01 1.050545e+02 -1.636921e-01 9.672104e+01 3.716826e-01 8.859223e+01 7.743992e-01 8.060060e+01 9.831508e-01 7.265919e+01 1.103553e+00 6.477930e+01 1.167150e+00 5.705467e+01 1.109152e+00 4.930362e+01 1.113001e+00 4.171712e+01 9.697791e-01 3.403542e+01 9.523436e-01 2.649369e+01 8.262729e-01 1.890741e+01 7.488098e-01 1.140058e+01 6.446041e-01 3.937605e+00 4.838105e-01 -3.557487e+00 3.646411e-01 -1.096831e+01 1.162769e-01 -1.852711e+01 -5.684184e-03 -2.599654e+01 -2.669724e-01 -3.361912e+01 -4.136105e-01 -4.116399e+01 -5.960019e-01 -4.872390e+01 -7.366649e-01 -5.629520e+01 -7.662816e-01 -6.380584e+01 -7.746208e-01 -7.135495e+01 -7.963265e-01 -7.900939e+01 -8.569961e-01 -8.681380e+01 -9.786972e-01 -9.480826e+01 -1.184041e+00 -1.030368e+02 
-1.281905e+00 -1.111606e+02 -1.784978e+00 -1.201260e+02 -2.482615e+00 1.229128e+02 -1.498749e+00 1.138768e+02 -6.901651e-01 1.051886e+02 -2.499995e-02 9.678978e+01 5.183792e-01 8.861873e+01 9.346482e-01 8.060244e+01 1.130198e+00 7.261004e+01 1.239575e+00 6.473346e+01 1.304438e+00 5.702724e+01 1.219437e+00 4.928197e+01 1.253601e+00 4.175282e+01 1.078250e+00 3.406833e+01 1.104217e+00 2.659708e+01 9.746821e-01 1.901296e+01 9.243574e-01 1.157789e+01 8.447752e-01 4.146214e+00 6.932361e-01 -3.293604e+00 6.178947e-01 -1.063862e+01 3.556821e-01 -1.817602e+01 2.927882e-01 -2.556941e+01 1.702219e-02 -3.320177e+01 -9.619897e-02 -4.068811e+01 -2.784419e-01 -4.825478e+01 -4.241898e-01 -5.579214e+01 -4.417434e-01 -6.326072e+01 -4.466168e-01 -7.078946e+01 -4.736592e-01 -7.844294e+01 -5.485396e-01 -8.626314e+01 -6.928057e-01 -9.429053e+01 -9.285856e-01 -1.025713e+02 
-1.703693e+00 -1.125236e+02 -2.228711e+00 -1.215896e+02 -2.954877e+00 1.239078e+02 -1.923469e+00 1.147722e+02 -1.071674e+00 1.059952e+02 -3.606053e-01 9.752511e+01 2.469437e-01 8.930382e+01 7.714455e-01 8.123342e+01 1.030752e+00 7.306033e+01 1.016343e+00 6.508753e+01 1.197615e+00 5.736822e+01 9.440593e-01 4.944529e+01 1.138767e+00 4.199581e+01 8.256669e-01 3.406457e+01 9.491793e-01 2.667187e+01 8.216368e-01 1.888111e+01 7.012602e-01 1.147636e+01 7.214173e-01 3.965345e+00 4.058833e-01 -3.552976e+00 4.671717e-01 -1.084675e+01 1.310093e-02 -1.860481e+01 9.069799e-02 -2.590206e+01 -2.815828e-01 -3.381991e+01 -3.996364e-01 -4.127527e+01 -5.487679e-01 -4.901534e+01 -8.813475e-01 -5.663496e+01 -8.660898e-01 -6.410983e+01 -8.414679e-01 -7.169146e+01 -8.553631e-01 -7.942507e+01 -9.307337e-01 -8.733609e+01 -1.083626e+00 -9.545832e+01 -1.332935e+00 -1.038358e+02 
-1.454558e+00 -1.119823e+02 -2.014728e+00 -1.211150e+02 -2.781992e+00 1.240333e+02 -1.750264e+00 1.148257e+02 -9.011858e-01 1.059951e+02 -1.929933e-01 9.749342e+01 4.171982e-01 8.926943e+01 9.643472e-01 8.124542e+01 1.269157e+00 7.282853e+01 1.081446e+00 6.504836e+01 1.412999e+00 5.725263e+01 9.777502e-01 4.938610e+01 1.346606e+00 4.203308e+01 8.850314e-01 3.400481e+01 1.101921e+00 2.684085e+01 9.919824e-01 1.884091e+01 8.136950e-01 1.173582e+01 9.700447e-01 4.054779e+00 5.364523e-01 -3.252865e+00 7.789318e-01 -1.053212e+01 1.705486e-01 -1.828868e+01 4.171653e-01 -2.539551e+01 -2.983831e-02 -3.351144e+01 -1.360708e-01 -4.069065e+01 -2.367347e-01 -4.869241e+01 -6.513090e-01 -5.612743e+01 -5.671667e-01 -6.351591e+01 -5.187813e-01 -7.106477e+01 -5.288493e-01 -7.878696e+01 -6.123723e-01 -8.670046e+01 -7.817973e-01 -9.483858e+01 -1.054419e+00 -1.032469e+02 
-1.840192e+00 -1.131550e+02 -2.415432e+00 -1.223552e+02 -3.202585e+00 1.247635e+02 -2.137560e+00 1.154900e+02 -1.260333e+00 1.066011e+02 -5.261238e-01 9.806670e+01 1.211729e-01 8.989453e+01 7.960645e-01 8.219065e+01 1.697182e+00 7.275379e+01 4.418130e-01 6.558851e+01 1.724332e+00 5.745030e+01 3.274604e-01 4.943380e+01 1.435135e+00 4.252791e+01 5.680520e-01 3.359574e+01 7.688281e-01 2.735961e+01 1.222665e+00 1.817226e+01 1.353775e-01 1.204370e+01 1.360181e+00 3.534809e+00 -2.068524e-01 -3.359860e+00 1.009644e+00 -1.063385e+01 -4.421677e-01 -1.893555e+01 2.676291e-01 -2.526036e+01 -1.412712e-01 -3.461534e+01 -7.843604e-01 -4.078726e+01 3.702066e-02 -4.990280e+01 -1.530958e+00 -5.694033e+01 -1.067253e+00 -6.426063e+01 -9.031813e-01 -7.187229e+01 -8.855556e-01 -7.967005e+01 -9.680984e-01 -8.765873e+01 -1.144749e+00 -9.587035e+01 -1.427676e+00 -1.043501e+02 
-1.554771e+00 -1.124503e+02 -2.154695e+00 -1.216842e+02 -2.969681e+00 1.246591e+02 -1.915624e+00 1.153486e+02 -1.050703e+00 1.064358e+02 -3.291061e-01 9.789441e+01 3.067852e-01 8.974183e+01 9.798335e-01 8.210504e+01 1.921901e+00 7.251989e+01 5.739872e-01 6.549086e+01 1.945424e+00 5.732078e+01 4.370945e-01 4.934900e+01 1.635448e+00 4.254414e+01 7.113495e-01 3.354616e+01 9.308501e-01 2.749999e+01 1.454870e+00 1.819641e+01 2.793757e-01 1.227826e+01 1.658070e+00 3.696401e+00 -3.749564e-02 -3.058136e+00 1.335410e+00 -1.028946e+01 -2.206222e-01 -1.858485e+01 5.859848e-01 -2.475055e+01 1.849867e-01 -3.420779e+01 -4.986464e-01 -4.018049e+01 4.638730e-01 -4.940273e+01 -1.267412e+00 -5.631604e+01 -7.422443e-01 -6.358779e+01 -5.592043e-01 -7.117331e+01 -5.407761e-01 -7.895191e+01 -6.310275e-01 -8.692875e+01 -8.207382e-01 -9.513756e+01 -1.121040e+00 -1.036252e+02 
-1.902307e+00 -1.134367e+02 -2.508621e+00 -1.227052e+02 -3.329784e+00 1.251185e+02 -2.258962e+00 1.157707e+02 -1.377993e+00 1.068089e+02 -6.434733e-01 9.818954e+01 -1.018579e-02 8.987187e+01 5.654093e-01 8.180034e+01 9.506694e-01 7.312527e+01 7.036684e-01 6.536596e+01 1.150856e+00 5.745042e+01 6.335165e-01 4.950833e+01 1.105964e+00 4.216952e+01 6.122271e-01 3.396088e+01 8.350493e-01 2.688840e+01 8.092719e-01 1.867039e+01 5.113877e-01 1.166383e+01 8.131239e-01 3.820554e+00 2.277579e-01 -3.475484e+00 6.070125e-01 -1.079711e+01 -1.153896e-01 -1.867573e+01 2.016859e-01 -2.572275e+01 -2.345954e-01 -3.405380e+01 -4.187692e-01 -4.114745e+01 -3.813638e-01 -4.935469e+01 -9.890982e-01 -5.680286e+01 -8.595504e-01 -6.426282e+01 -8.107954e-01 -7.191344e+01 -8.401418e-01 -7.974719e+01 -9.512619e-01 -8.777791e+01 -1.152915e+00 -9.603752e+01 -1.461656e+00 -1.045713e+02 
-1.577638e+00 -1.125582e+02 -2.198382e+00 -1.218273e+02 -3.033856e+00 1.247681e+02 -1.986634e+00 1.154165e+02 -1.127711e+00 1.064550e+02 -4.139048e-01 9.783425e+01 1.976616e-01 8.949659e+01 7.335752e-01 8.133676e+01 9.926739e-01 7.306992e+01 9.949571e-01 6.508148e+01 1.200465e+00 5.734367e+01 9.488770e-01 4.943411e+01 1.193358e+00 4.201813e+01 8.775821e-01 3.410699e+01 1.060382e+00 2.678230e+01 9.469915e-01 1.901379e+01 8.697995e-01 1.169528e+01 9.254013e-01 4.218154e+00 6.396415e-01 -3.223730e+00 7.598268e-01 -1.046281e+01 3.223596e-01 -1.817224e+01 4.768755e-01 -2.540038e+01 1.170456e-01 -3.330136e+01 5.181027e-02 -4.069293e+01 -9.318800e-02 -4.844491e+01 -4.295874e-01 -5.603814e+01 -4.208851e-01 -6.352017e+01 -4.175198e-01 -7.114332e+01 -4.664861e-01 -7.894484e+01 -5.898276e-01 -8.694674e+01 -8.026579e-01 -9.518324e+01 -1.123524e+00 -1.037009e+02 
-1.887887e+00 -1.133645e+02 -2.506287e+00 -1.226350e+02 -3.337104e+00 1.249632e+02 -2.287690e+00 1.156077e+02 -1.428199e+00 1.066260e+02 -7.217381e-01 9.796340e+01 -1.386255e-01 8.955993e+01 3.267697e-01 8.133874e+01 5.779317e-01 7.316916e+01 7.176981e-01 6.514925e+01 8.481939e-01 5.734232e+01 7.851464e-01 4.949050e+01 8.856626e-01 4.190567e+01 7.337538e-01 3.413417e+01 8.043689e-01 2.662634e+01 7.056835e-01 1.897514e+01 6.638665e-01 1.150217e+01 6.183638e-01 4.021659e+00 4.629200e-01 -3.474383e+00 4.299026e-01 -1.085281e+01 1.711558e-01 -1.846553e+01 1.551867e-01 -2.588876e+01 -1.023018e-01 -3.361029e+01 -1.990763e-01 -4.115307e+01 -3.703491e-01 -4.882317e+01 -5.586635e-01 -5.648010e+01 -6.073053e-01 -6.408637e+01 -6.564886e-01 -7.178944e+01 -7.407677e-01 -7.964492e+01 -8.843954e-01 -8.768766e+01 -1.107819e+00 -9.595549e+01 -1.433228e+00 -1.044951e+02 