# vtk DataFile Version 2.0
Comment goes here
ASCII

DATASET STRUCTURED_POINTS
FIELD FieldData 1
TIME 1 1 double
0.06200000
DIMENSIONS    64   64   1

ORIGIN    0.000   0.000   0.000
SPACING   0.03125 0.03125   1.000

POINT_DATA   4096
VECTORS u double

0.680845 0.010633 0.000000 -1.699849 -0.004235 0.000000 0.447556 0.004852 0.000000 -1.499521 -0.004383 0.000000 0.071226 -0.002844 0.000000 -1.305619 -0.006126 0.000000 0.110395 0.003123 0.000000 -1.086622 -0.005840 0.000000 0.080501 0.000961 0.000000 -0.934208 -0.006224 0.000000 0.050700 -0.000441 0.000000 -0.844011 -0.006546 0.000000 0.045532 -0.001396 0.000000 -0.798693 -0.006692 0.000000 0.057455 -0.001783 0.000000 -0.772485 -0.006705 0.000000 0.062951 -0.002073 0.000000 -0.731787 -0.006733 0.000000 0.028577 -0.002295 0.000000 -0.638902 -0.006504 0.000000 -0.074171 -0.002112 0.000000 -0.482212 -0.005072 0.000000 -0.233597 0.000664 0.000000 -0.288291 -0.005055 0.000000 -0.420373 0.001338 0.000000 -0.084404 -0.006224 0.000000 -0.608266 -0.000829 0.000000 0.116916 -0.005236 0.000000 -0.797931 -0.000427 0.000000 0.324642 -0.004457 0.000000 -0.995292 -0.000640 0.000000 0.535558 -0.003773 0.000000 -1.187790 -0.001968 0.000000 0.729410 -0.003661 0.000000 -1.349500 -0.002866 0.000000 0.874626 -0.003562 0.000000 -1.453433 -0.003823 0.000000 0.953130 -0.002901 0.000000 -1.480858 -0.004556 0.000000 0.947930 -0.002002 0.000000 -1.430475 -0.004029 0.000000 0.867218 -0.001549 0.000000 -1.317157 -0.003371 0.000000 0.726115 -0.001925 0.000000 -1.154716 -0.002294 0.000000 0.542722 -0.001297 0.000000 -0.966160 -0.001903 0.000000 0.331194 -0.000925 0.000000 -0.751835 -0.001556 0.000000 0.079285 -0.000790 0.000000 -0.497281 -0.001822 0.000000 -0.220258 -0.000162 0.000000 -0.208627 -0.001974 0.000000 -0.544439 0.000027 0.000000 0.077397 -0.002263 0.000000 -0.854993 -0.000042 0.000000 0.322053 -0.002221 0.000000 -1.119680 -0.000180 0.000000 0.504561 -0.002197 0.000000 -1.328533 -0.000357 0.000000 0.616652 -0.001687 0.000000 -1.483519 -0.001204 0.000000 0.664604 -0.000265 0.000000 -1.604918 -0.003562 0.000000 
-0.372810 0.064108 0.000000 0.399812 0.111264 0.000000 -0.209509 -0.096594 0.000000 0.309928 0.185599 0.000000 0.130949 -0.088576 0.000000 0.221885 -0.020116 0.000000 -0.108337 -0.106212 0.000000 0.081861 0.014684 0.000000 -0.220174 -0.071649 0.000000 -0.000116 0.015310 0.000000 -0.291084 -0.040001 0.000000 -0.040782 0.003609 0.000000 -0.353795 -0.017239 0.000000 -0.055401 -0.004655 0.000000 -0.412805 -0.007677 0.000000 -0.059081 -0.001274 0.000000 -0.461920 -0.015074 0.000000 -0.069324 0.018743 0.000000 -0.484625 -0.040554 0.000000 -0.108345 0.052373 0.000000 -0.464057 -0.071771 0.000000 -0.183394 0.077914 0.000000 -0.407814 -0.090810 0.000000 -0.276002 0.091129 0.000000 -0.334159 -0.095878 0.000000 -0.371542 0.092989 0.000000 -0.260058 -0.093448 0.000000 -0.467394 0.093753 0.000000 -0.182193 -0.097707 0.000000 -0.569408 0.098037 0.000000 -0.094901 -0.099973 0.000000 -0.677731 0.096193 0.000000 -0.003660 -0.091480 0.000000 -0.783002 0.081704 0.000000 0.077607 -0.067298 0.000000 -0.867658 0.054490 0.000000 0.132203 -0.035396 0.000000 -0.921361 0.017309 0.000000 0.152948 0.005838 0.000000 -0.932546 -0.020649 0.000000 0.136565 0.041986 0.000000 -0.906011 -0.052433 0.000000 0.094962 0.071954 0.000000 -0.849796 -0.076984 0.000000 0.032509 0.092169 0.000000 -0.770532 -0.089933 0.000000 -0.034758 0.105891 0.000000 -0.680890 -0.103318 0.000000 -0.106505 0.126025 0.000000 -0.570697 -0.123453 0.000000 -0.195155 0.149829 0.000000 -0.432464 -0.140927 0.000000 -0.299915 0.162112 0.000000 -0.277228 -0.139724 0.000000 -0.399936 0.155373 0.000000 -0.125747 -0.119135 0.000000 -0.474627 0.132399 0.000000 0.005478 -0.088203 0.000000 -0.511739 0.104538 0.000000 0.110577 -0.053292 0.000000 -0.502491 0.077649 0.000000 0.187183 -0.021501 0.000000 -0.443576 0.061298 0.000000 0.247830 -0.008580 0.000000 
1.525666 -0.141349 0.000000 0.720017 -0.167536 0.000000 1.220585 0.094736 0.000000 0.617165 -0.344841 0.000000 0.951984 0.085199 0.000000 0.484497 0.233160 0.000000 1.607122 0.143147 0.000000 0.451990 0.105997 0.000000 2.017685 0.082937 0.000000 0.383493 0.064686 0.000000 2.293977 0.040226 0.000000 0.330598 0.056165 0.000000 2.479104 0.013223 0.000000 0.303393 0.052318 0.000000 2.607865 0.001897 0.000000 0.292062 0.042410 0.000000 2.708964 0.008170 0.000000 0.277195 0.015971 0.000000 2.813772 0.036726 0.000000 0.229718 -0.027072 0.000000 2.947880 0.072937 0.000000 0.141779 -0.061315 0.000000 3.102480 0.093273 0.000000 0.026031 -0.078710 0.000000 3.258543 0.096878 0.000000 -0.092774 -0.080325 0.000000 3.405594 0.095023 0.000000 -0.200551 -0.083101 0.000000 3.547136 0.101588 0.000000 -0.312388 -0.091749 0.000000 3.690128 0.107683 0.000000 -0.428054 -0.095015 0.000000 3.828607 0.103303 0.000000 -0.532851 -0.084928 0.000000 3.947124 0.081790 0.000000 -0.606560 -0.058158 0.000000 4.027395 0.049880 0.000000 -0.641440 -0.023646 0.000000 4.055196 0.006629 0.000000 -0.625216 0.014380 0.000000 4.028602 -0.030564 0.000000 -0.569300 0.040055 0.000000 3.955621 -0.059586 0.000000 -0.485413 0.060528 0.000000 3.844628 -0.081558 0.000000 -0.386605 0.065970 0.000000 3.710412 -0.091545 0.000000 -0.281925 0.070823 0.000000 3.549986 -0.111749 0.000000 -0.157297 0.087860 0.000000 3.348700 -0.140055 0.000000 -0.003152 0.104598 0.000000 3.104894 -0.157209 0.000000 0.167214 0.100048 0.000000 2.841024 -0.153745 0.000000 0.328207 0.074649 0.000000 2.580623 -0.133446 0.000000 0.459176 0.036932 0.000000 2.332523 -0.107296 0.000000 0.552445 -0.009605 0.000000 2.092764 -0.078294 0.000000 0.616923 -0.060119 0.000000 1.833108 -0.060911 0.000000 0.674540 -0.074328 0.000000 
3.545960 0.018631 0.000000 -0.035606 0.416345 0.000000 2.693881 0.006258 0.000000 -0.184723 0.454200 0.000000 1.336094 0.044092 0.000000 -0.106301 -0.675254 0.000000 2.931262 -0.073705 0.000000 0.004207 -0.395879 0.000000 3.767676 -0.003152 0.000000 0.059316 -0.260981 0.000000 4.321767 0.012895 0.000000 0.092218 -0.181519 0.000000 4.738742 0.009967 0.000000 0.115717 -0.133415 0.000000 5.072279 0.003654 0.000000 0.135951 -0.102373 0.000000 5.344786 -0.000207 0.000000 0.158385 -0.086065 0.000000 5.557112 0.006922 0.000000 0.192874 -0.081735 0.000000 5.708817 0.016167 0.000000 0.241742 -0.076685 0.000000 5.814425 0.024939 0.000000 0.292245 -0.064935 0.000000 5.889060 0.022927 0.000000 0.335168 -0.054061 0.000000 5.948338 0.014328 0.000000 0.369040 -0.047788 0.000000 5.988244 0.014131 0.000000 0.404224 -0.044956 0.000000 6.008358 0.015692 0.000000 0.444528 -0.042286 0.000000 6.010064 0.013317 0.000000 0.487028 -0.036813 0.000000 6.002381 0.006411 0.000000 0.523018 -0.025780 0.000000 5.993910 -0.000516 0.000000 0.547287 -0.010492 0.000000 5.986361 -0.010386 0.000000 0.552784 0.005945 0.000000 5.981652 -0.013931 0.000000 0.543910 0.020548 0.000000 5.966838 -0.011933 0.000000 0.527329 0.034009 0.000000 5.941321 -0.006639 0.000000 0.506020 0.044283 0.000000 5.890876 0.001211 0.000000 0.487648 0.057108 0.000000 5.815349 0.001397 0.000000 0.462633 0.077833 0.000000 5.721343 -0.004316 0.000000 0.422694 0.102879 0.000000 5.607467 -0.008253 0.000000 0.373932 0.124147 0.000000 5.459140 -0.005619 0.000000 0.326452 0.141266 0.000000 5.260175 0.001430 0.000000 0.286240 0.159897 0.000000 4.994754 0.011269 0.000000 0.250761 0.186467 0.000000 4.640714 0.013171 0.000000 0.215921 0.238156 0.000000 4.165696 0.003681 0.000000 0.162263 0.298861 0.000000 
3.641728 0.056519 0.000000 0.150139 0.684544 0.000000 2.940686 0.243853 0.000000 -0.058794 1.012947 0.000000 1.863243 0.006777 0.000000 -0.024083 -1.362008 0.000000 3.063656 0.032639 0.000000 -0.042544 -0.730418 0.000000 3.850241 0.027829 0.000000 0.004347 -0.489404 0.000000 4.399981 0.007324 0.000000 0.056604 -0.360810 0.000000 4.812967 -0.010276 0.000000 0.106927 -0.281218 0.000000 5.137460 -0.018337 0.000000 0.155825 -0.230097 0.000000 5.399546 -0.014264 0.000000 0.202535 -0.196355 0.000000 5.605887 0.002237 0.000000 0.248863 -0.178776 0.000000 5.760862 0.024069 0.000000 0.293056 -0.166923 0.000000 5.878723 0.042771 0.000000 0.333447 -0.153345 0.000000 5.968821 0.053954 0.000000 0.364646 -0.139603 0.000000 6.040662 0.061151 0.000000 0.383785 -0.123007 0.000000 6.089847 0.066404 0.000000 0.401035 -0.111863 0.000000 6.121303 0.067379 0.000000 0.420393 -0.096721 0.000000 6.135023 0.060803 0.000000 0.440043 -0.077244 0.000000 6.136630 0.045800 0.000000 0.457429 -0.049687 0.000000 6.131442 0.025611 0.000000 0.470845 -0.016097 0.000000 6.120109 0.001132 0.000000 0.476324 0.019089 0.000000 6.104110 -0.021690 0.000000 0.475466 0.054869 0.000000 6.073801 -0.043006 0.000000 0.471169 0.086045 0.000000 6.029267 -0.060249 0.000000 0.464455 0.116415 0.000000 5.960651 -0.073172 0.000000 0.457760 0.146350 0.000000 5.868409 -0.086735 0.000000 0.446948 0.181866 0.000000 5.753572 -0.100117 0.000000 0.428684 0.218474 0.000000 5.613925 -0.108447 0.000000 0.406083 0.248375 0.000000 5.443306 -0.106264 0.000000 0.383645 0.273614 0.000000 5.231534 -0.093234 0.000000 0.362647 0.302353 0.000000 4.965222 -0.071817 0.000000 0.342424 0.344436 0.000000 4.625845 -0.043454 0.000000 0.309969 0.414899 0.000000 4.199117 -0.007253 0.000000 0.241194 0.545407 0.000000 
3.862287 0.109687 0.000000 0.013195 1.117387 0.000000 3.207953 0.215191 0.000000 -0.042667 1.531643 0.000000 2.348132 0.009381 0.000000 -0.048817 -1.875667 0.000000 3.209051 -0.055244 0.000000 -0.019547 -1.182464 0.000000 3.948153 -0.050043 0.000000 0.025625 -0.810721 0.000000 4.486079 -0.039362 0.000000 0.065756 -0.594504 0.000000 4.890469 -0.040357 0.000000 0.103883 -0.457908 0.000000 5.209454 -0.045243 0.000000 0.142995 -0.364459 0.000000 5.466929 -0.046918 0.000000 0.185227 -0.292405 0.000000 5.665140 -0.039405 0.000000 0.230856 -0.236710 0.000000 5.811818 -0.028026 0.000000 0.277665 -0.194547 0.000000 5.920666 -0.015452 0.000000 0.320403 -0.155034 0.000000 5.998051 -0.008273 0.000000 0.356788 -0.125903 0.000000 6.058152 -0.004811 0.000000 0.387564 -0.096973 0.000000 6.093430 -0.003119 0.000000 0.418565 -0.076412 0.000000 6.113047 -0.003665 0.000000 0.452038 -0.056006 0.000000 6.114681 -0.006333 0.000000 0.486543 -0.038421 0.000000 6.108070 -0.010975 0.000000 0.518365 -0.020592 0.000000 6.098474 -0.013933 0.000000 0.542865 0.000841 0.000000 6.086552 -0.015864 0.000000 0.557193 0.021944 0.000000 6.075021 -0.013073 0.000000 0.559912 0.050856 0.000000 6.050589 -0.007635 0.000000 0.553268 0.078544 0.000000 6.016006 0.000074 0.000000 0.538190 0.112899 0.000000 5.959120 0.007906 0.000000 0.517028 0.149350 0.000000 5.883077 0.012209 0.000000 0.487876 0.192670 0.000000 5.786562 0.013949 0.000000 0.447697 0.242526 0.000000 5.664916 0.014348 0.000000 0.400537 0.294765 0.000000 5.512268 0.016819 0.000000 0.351018 0.353038 0.000000 5.319272 0.022428 0.000000 0.301874 0.426208 0.000000 5.073582 0.031491 0.000000 0.251769 0.525844 0.000000 4.759011 0.045626 0.000000 0.193984 0.664884 0.000000 4.357860 0.072456 0.000000 0.115162 0.856250 0.000000 
4.044629 0.158486 0.000000 0.138290 1.338878 0.000000 3.521927 0.299715 0.000000 0.069288 1.872768 0.000000 2.834920 0.012927 0.000000 0.062599 -2.222927 0.000000 3.451323 0.003368 0.000000 0.024513 -1.469519 0.000000 4.049233 -0.017343 0.000000 0.032162 -1.027331 0.000000 4.529961 -0.032807 0.000000 0.064425 -0.765200 0.000000 4.907236 -0.048403 0.000000 0.108284 -0.600204 0.000000 5.210335 -0.057449 0.000000 0.159444 -0.487572 0.000000 5.459413 -0.056496 0.000000 0.216653 -0.394566 0.000000 5.656794 -0.043392 0.000000 0.269247 -0.325455 0.000000 5.802353 -0.022740 0.000000 0.313675 -0.275771 0.000000 5.916386 0.000033 0.000000 0.347599 -0.230729 0.000000 5.998381 0.017569 0.000000 0.370811 -0.199705 0.000000 6.067305 0.030375 0.000000 0.387720 -0.158284 0.000000 6.110559 0.035403 0.000000 0.401650 -0.131481 0.000000 6.140318 0.033905 0.000000 0.418079 -0.098355 0.000000 6.154025 0.026299 0.000000 0.436408 -0.070633 0.000000 6.157090 0.013977 0.000000 0.454713 -0.040092 0.000000 6.155528 0.001111 0.000000 0.469125 -0.004175 0.000000 6.145386 -0.013196 0.000000 0.477317 0.030620 0.000000 6.134223 -0.024409 0.000000 0.478772 0.079300 0.000000 6.105128 -0.036361 0.000000 0.475565 0.120628 0.000000 6.064696 -0.045172 0.000000 0.469347 0.173301 0.000000 6.000091 -0.052010 0.000000 0.460191 0.222393 0.000000 5.914275 -0.057582 0.000000 0.445951 0.278381 0.000000 5.806526 -0.059938 0.000000 0.424786 0.340120 0.000000 5.672206 -0.061287 0.000000 0.399538 0.401023 0.000000 5.511713 -0.056745 0.000000 0.372655 0.466610 0.000000 5.321508 -0.044091 0.000000 0.345384 0.548043 0.000000 5.092601 -0.021711 0.000000 0.315507 0.659007 0.000000 4.812903 0.014330 0.000000 0.276466 0.816050 0.000000 4.469201 0.071570 0.000000 0.222012 1.040980 0.000000 
4.303191 0.193409 0.000000 0.077391 1.640090 0.000000 3.847750 0.284193 0.000000 0.059646 2.218649 0.000000 3.283645 0.016070 0.000000 0.052818 -2.492070 0.000000 3.724918 -0.017158 0.000000 0.032471 -1.780374 0.000000 4.220347 -0.057692 0.000000 0.040486 -1.291449 0.000000 4.654693 -0.071626 0.000000 0.065925 -0.971780 0.000000 5.008273 -0.084216 0.000000 0.103605 -0.761007 0.000000 5.298956 -0.096403 0.000000 0.151229 -0.613537 0.000000 5.541697 -0.104127 0.000000 0.209227 -0.489787 0.000000 5.726422 -0.091999 0.000000 0.265762 -0.382269 0.000000 5.857153 -0.072454 0.000000 0.310845 -0.308580 0.000000 5.960262 -0.049376 0.000000 0.346681 -0.237029 0.000000 6.026874 -0.031486 0.000000 0.372288 -0.194827 0.000000 6.089543 -0.021719 0.000000 0.394974 -0.140226 0.000000 6.116590 -0.017049 0.000000 0.416592 -0.106171 0.000000 6.138453 -0.020094 0.000000 0.443265 -0.069712 0.000000 6.140981 -0.024661 0.000000 0.473537 -0.041486 0.000000 6.138460 -0.029280 0.000000 0.503624 -0.019031 0.000000 6.135707 -0.028345 0.000000 0.527548 0.010983 0.000000 6.125452 -0.024056 0.000000 0.541854 0.033107 0.000000 6.123581 -0.014528 0.000000 0.544621 0.079950 0.000000 6.097530 -0.004428 0.000000 0.538644 0.118976 0.000000 6.069519 0.006293 0.000000 0.527332 0.177503 0.000000 6.013565 0.017061 0.000000 0.508542 0.235166 0.000000 5.941836 0.026450 0.000000 0.481354 0.300419 0.000000 5.851560 0.035113 0.000000 0.440053 0.376846 0.000000 5.733019 0.039597 0.000000 0.391645 0.455258 0.000000 5.590615 0.043701 0.000000 0.341081 0.543243 0.000000 5.422720 0.049699 0.000000 0.292265 0.655115 0.000000 5.221032 0.061369 0.000000 0.244790 0.805542 0.000000 4.973938 0.084667 0.000000 0.194805 1.008586 0.000000 4.670438 0.126909 0.000000 0.138947 1.280822 0.000000 
4.529464 0.220042 0.000000 0.164987 1.794319 0.000000 4.176364 0.317460 0.000000 0.142449 2.436872 0.000000 3.731408 0.019755 0.000000 0.135743 -2.664199 0.000000 4.037475 0.023715 0.000000 0.091597 -1.964948 0.000000 4.403512 -0.025359 0.000000 0.070136 -1.461678 0.000000 4.758559 -0.058246 0.000000 0.076727 -1.118780 0.000000 5.068132 -0.086083 0.000000 0.107493 -0.890886 0.000000 5.334422 -0.105073 0.000000 0.161111 -0.730313 0.000000 5.563579 -0.114494 0.000000 0.242282 -0.579291 0.000000 5.755499 -0.099928 0.000000 0.310081 -0.456186 0.000000 5.872571 -0.067823 0.000000 0.350260 -0.378880 0.000000 5.980568 -0.035803 0.000000 0.379233 -0.297341 0.000000 6.040677 -0.008038 0.000000 0.384812 -0.262373 0.000000 6.110676 0.007689 0.000000 0.397052 -0.185331 0.000000 6.143518 0.013785 0.000000 0.400342 -0.153343 0.000000 6.169540 0.007233 0.000000 0.413668 -0.100883 0.000000 6.183106 -0.003973 0.000000 0.434363 -0.068113 0.000000 6.181896 -0.016110 0.000000 0.454266 -0.037339 0.000000 6.188269 -0.022813 0.000000 0.474260 0.006080 0.000000 6.174444 -0.027502 0.000000 0.480958 0.032491 0.000000 6.179199 -0.027176 0.000000 0.484296 0.105351 0.000000 6.150177 -0.030384 0.000000 0.476542 0.148640 0.000000 6.121265 -0.033860 0.000000 0.472434 0.229254 0.000000 6.062677 -0.033221 0.000000 0.465320 0.294122 0.000000 5.980887 -0.030394 0.000000 0.449475 0.368657 0.000000 5.883860 -0.018637 0.000000 0.423484 0.458662 0.000000 5.755483 -0.012879 0.000000 0.387879 0.543427 0.000000 5.610135 -0.006181 0.000000 0.350762 0.634505 0.000000 5.453166 0.004725 0.000000 0.317634 0.749731 0.000000 5.276701 0.025764 0.000000 0.286749 0.906101 0.000000 5.069742 0.064316 0.000000 0.253133 1.119550 0.000000 4.822930 0.127429 0.000000 0.212984 1.408227 0.000000 
4.792826 0.241406 0.000000 0.127263 1.993190 0.000000 4.501150 0.306730 0.000000 0.131103 2.663606 0.000000 4.144238 0.022776 0.000000 0.124878 -2.798137 0.000000 4.347577 0.026989 0.000000 0.088385 -2.146411 0.000000 4.624203 -0.036231 0.000000 0.066850 -1.646496 0.000000 4.919958 -0.078217 0.000000 0.066337 -1.281352 0.000000 5.194458 -0.114982 0.000000 0.091484 -1.027298 0.000000 5.444631 -0.150021 0.000000 0.147277 -0.842693 0.000000 5.669000 -0.185298 0.000000 0.249891 -0.681707 0.000000 5.842301 -0.159799 0.000000 0.324986 -0.499342 0.000000 5.930214 -0.112633 0.000000 0.360904 -0.416577 0.000000 6.031439 -0.078349 0.000000 0.390438 -0.297137 0.000000 6.064813 -0.037065 0.000000 0.390253 -0.264826 0.000000 6.145540 -0.033959 0.000000 0.408078 -0.173068 0.000000 6.149319 -0.020339 0.000000 0.407911 -0.132194 0.000000 6.176223 -0.033420 0.000000 0.433011 -0.083277 0.000000 6.176178 -0.045357 0.000000 0.461566 -0.040276 0.000000 6.170652 -0.049183 0.000000 0.495262 -0.025404 0.000000 6.182554 -0.048339 0.000000 0.523106 0.024808 0.000000 6.162362 -0.030754 0.000000 0.534082 0.028352 0.000000 6.190538 -0.017866 0.000000 0.537332 0.108972 0.000000 6.152278 0.003326 0.000000 0.520228 0.147888 0.000000 6.145680 0.010401 0.000000 0.520266 0.236091 0.000000 6.089738 0.024175 0.000000 0.507422 0.316957 0.000000 6.018998 0.042295 0.000000 0.492508 0.397445 0.000000 5.941457 0.061103 0.000000 0.443727 0.505223 0.000000 5.821176 0.075202 0.000000 0.381114 0.600606 0.000000 5.691733 0.080819 0.000000 0.320585 0.700212 0.000000 5.559575 0.082826 0.000000 0.271369 0.831580 0.000000 5.413851 0.092254 0.000000 0.230914 1.012501 0.000000 5.242035 0.118283 0.000000 0.193873 1.255398 0.000000 5.036241 0.167058 0.000000 0.158046 1.574287 0.000000 
5.028371 0.250825 0.000000 0.192642 2.085994 0.000000 4.817374 0.313620 0.000000 0.198778 2.793784 0.000000 4.553974 0.025980 0.000000 0.193067 -2.867538 0.000000 4.668300 0.060208 0.000000 0.148227 -2.241574 0.000000 4.846866 -0.003824 0.000000 0.106109 -1.757433 0.000000 5.063373 -0.057733 0.000000 0.076932 -1.393280 0.000000 5.286362 -0.111229 0.000000 0.070460 -1.141059 0.000000 5.512710 -0.160866 0.000000 0.117584 -0.954682 0.000000 5.710702 -0.217108 0.000000 0.314135 -0.752593 0.000000 5.927222 -0.175023 0.000000 0.388545 -0.544099 0.000000 5.955565 -0.103741 0.000000 0.409624 -0.480105 0.000000 6.084717 -0.065337 0.000000 0.442527 -0.330715 0.000000 6.080724 -0.007853 0.000000 0.388273 -0.343101 0.000000 6.177755 -0.010136 0.000000 0.424552 -0.189110 0.000000 6.186296 0.013952 0.000000 0.379395 -0.180247 0.000000 6.204090 -0.017867 0.000000 0.408290 -0.100837 0.000000 6.229573 -0.032527 0.000000 0.428412 -0.062587 0.000000 6.202828 -0.049806 0.000000 0.457814 -0.049240 0.000000 6.242159 -0.050657 0.000000 0.493778 0.026272 0.000000 6.194373 -0.038478 0.000000 0.484044 0.004315 0.000000 6.249627 -0.030426 0.000000 0.505009 0.143611 0.000000 6.200941 -0.013280 0.000000 0.457132 0.155238 0.000000 6.202258 -0.033897 0.000000 0.478198 0.285197 0.000000 6.155203 -0.020377 0.000000 0.472023 0.364862 0.000000 6.066181 -0.015480 0.000000 0.474604 0.446197 0.000000 5.987256 0.030143 0.000000 0.443502 0.578943 0.000000 5.846428 0.049734 0.000000 0.373074 0.672870 0.000000 5.714586 0.054348 0.000000 0.315104 0.766662 0.000000 5.602828 0.053941 0.000000 0.279511 0.895456 0.000000 5.489744 0.066219 0.000000 0.255779 1.077918 0.000000 5.359873 0.101356 0.000000 0.234668 1.325344 0.000000 5.206728 0.163256 0.000000 0.212661 1.651642 0.000000 
5.282382 0.261425 0.000000 0.167148 2.204188 0.000000 5.123504 0.300595 0.000000 0.189094 2.927005 0.000000 4.931104 0.028487 0.000000 0.184126 -2.912463 0.000000 4.972781 0.071828 0.000000 0.145684 -2.324978 0.000000 5.081136 0.005887 0.000000 0.101513 -1.863002 0.000000 5.240271 -0.049040 0.000000 0.054924 -1.504341 0.000000 5.425045 -0.108509 0.000000 0.014929 -1.253645 0.000000 5.644432 -0.197145 0.000000 0.021832 -1.040686 0.000000 5.866466 -0.381849 0.000000 0.425996 -0.898227 0.000000 6.030490 -0.234208 0.000000 0.382534 -0.527685 0.000000 6.003293 -0.133712 0.000000 0.464686 -0.545729 0.000000 6.151164 -0.111251 0.000000 0.449798 -0.293145 0.000000 6.079296 0.017189 0.000000 0.389208 -0.361856 0.000000 6.249885 -0.070239 0.000000 0.456921 -0.181609 0.000000 6.168905 0.024818 0.000000 0.335491 -0.149988 0.000000 6.231072 -0.062315 0.000000 0.454280 -0.108760 0.000000 6.217698 -0.065479 0.000000 0.404979 -0.013531 0.000000 6.197865 -0.078585 0.000000 0.529518 -0.064735 0.000000 6.255331 -0.084303 0.000000 0.514227 0.072594 0.000000 6.173762 -0.021019 0.000000 0.547118 -0.026902 0.000000 6.301014 -0.038832 0.000000 0.553287 0.157658 0.000000 6.187881 0.051203 0.000000 0.452097 0.146571 0.000000 6.260639 -0.010665 0.000000 0.533753 0.283145 0.000000 6.190154 0.030350 0.000000 0.479734 0.405979 0.000000 6.120271 0.039714 0.000000 0.577676 0.476371 0.000000 6.060125 0.092205 0.000000 0.478461 0.646051 0.000000 5.899983 0.145630 0.000000 0.357874 0.732448 0.000000 5.786622 0.138788 0.000000 0.275704 0.811971 0.000000 5.708302 0.118419 0.000000 0.234249 0.944664 0.000000 5.629620 0.115987 0.000000 0.210291 1.142372 0.000000 5.533838 0.139394 0.000000 0.191250 1.408544 0.000000 5.417713 0.189065 0.000000 0.175121 1.752644 0.000000 
5.512098 0.258797 0.000000 0.219153 2.244873 0.000000 5.417943 0.291674 0.000000 0.247326 2.986184 0.000000 5.303498 0.030948 0.000000 0.243183 -2.909215 0.000000 5.279862 0.098650 0.000000 0.211417 -2.349929 0.000000 5.314340 0.040348 0.000000 0.165205 -1.916568 0.000000 5.396839 -0.011145 0.000000 0.091240 -1.578054 0.000000 5.515539 -0.071234 0.000000 -0.049265 -1.360447 0.000000 5.723268 -0.167769 0.000000 -0.210361 -1.176716 0.000000 5.933760 -0.621273 0.000000 0.692669 -0.916617 0.000000 6.209678 -0.131561 0.000000 0.342682 -0.516902 0.000000 5.993581 -0.185892 0.000000 0.557108 -0.627975 0.000000 6.280259 -0.050449 0.000000 0.540427 -0.258846 0.000000 6.050198 0.052738 0.000000 0.268727 -0.513691 0.000000 6.319156 -0.077850 0.000000 0.612237 -0.108130 0.000000 6.194533 0.135381 0.000000 0.126760 -0.242414 0.000000 6.265802 -0.136656 0.000000 0.561560 -0.087463 0.000000 6.288593 0.016774 0.000000 0.245419 -0.042754 0.000000 6.214290 -0.174345 0.000000 0.600353 -0.106706 0.000000 6.350315 -0.035366 0.000000 0.471854 0.107841 0.000000 6.157710 -0.071369 0.000000 0.507939 -0.122938 0.000000 6.399085 -0.036595 0.000000 0.624488 0.256744 0.000000 6.192878 0.087910 0.000000 0.257399 0.082480 0.000000 6.354883 -0.115553 0.000000 0.596788 0.355681 0.000000 6.258336 0.033643 0.000000 0.298456 0.434746 0.000000 6.221347 -0.113423 0.000000 0.647575 0.506343 0.000000 6.120027 0.129358 0.000000 0.512643 0.739084 0.000000 5.888937 0.170321 0.000000 0.317863 0.786231 0.000000 5.792446 0.136518 0.000000 0.240072 0.844983 0.000000 5.757071 0.095395 0.000000 0.223883 0.974138 0.000000 5.718312 0.090177 0.000000 0.222004 1.173700 0.000000 5.662747 0.120397 0.000000 0.219969 1.441468 0.000000 5.592694 0.179385 0.000000 0.216996 1.786973 0.000000 
5.749617 0.259268 0.000000 0.201956 2.298343 0.000000 5.699016 0.272422 0.000000 0.240827 3.041450 0.000000 5.645068 0.032630 0.000000 0.237636 -2.888828 0.000000 5.561935 0.103594 0.000000 0.220858 -2.359455 0.000000 5.535589 0.052099 0.000000 0.189648 -1.945501 0.000000 5.559253 0.024925 0.000000 0.119023 -1.623042 0.000000 5.635451 0.031996 0.000000 -0.032618 -1.461374 0.000000 5.798513 -0.036049 0.000000 -0.178253 -1.251178 0.000000 6.047065 -1.284880 0.000000 0.668023 -1.174144 0.000000 6.058949 0.115779 0.000000 -0.165067 -0.311588 0.000000 6.031532 -0.348138 0.000000 0.538293 -0.832407 0.000000 6.287683 -0.094571 0.000000 0.232959 -0.063084 0.000000 6.007538 0.288890 0.000000 0.140128 -0.630814 0.000000 6.410799 -0.413749 0.000000 0.746170 -0.056986 0.000000 6.055555 0.510294 0.000000 -0.142773 -0.221256 0.000000 6.274149 -0.497114 0.000000 0.854589 -0.131551 0.000000 6.171093 0.250662 0.000000 -0.076140 0.060772 0.000000 6.189470 -0.433519 0.000000 0.890183 -0.200760 0.000000 6.345310 0.044196 0.000000 0.236181 0.265199 0.000000 6.101898 -0.057104 0.000000 0.602746 -0.268277 0.000000 6.517430 -0.155381 0.000000 0.772456 0.363865 0.000000 6.090352 0.418293 0.000000 0.055822 -0.015434 0.000000 6.421336 -0.350054 0.000000 0.984825 0.379692 0.000000 6.262132 0.328681 0.000000 0.015106 0.442968 0.000000 6.266531 -0.309404 0.000000 1.262002 0.577691 0.000000 6.277448 0.227137 0.000000 0.678283 0.877141 0.000000 5.885953 0.340411 0.000000 0.237226 0.828940 0.000000 5.851110 0.216579 0.000000 0.168980 0.847346 0.000000 5.871150 0.134608 0.000000 0.179276 0.983422 0.000000 5.863701 0.117866 0.000000 0.187959 1.197937 0.000000 5.834454 0.141429 0.000000 0.189845 1.478597 0.000000 5.794261 0.192038 0.000000 0.191393 1.833239 0.000000 
5.965576 0.248235 0.000000 0.245029 2.295474 0.000000 5.967902 0.252802 0.000000 0.288498 3.040133 0.000000 5.980557 0.034139 0.000000 0.286146 -2.826083 0.000000 5.851079 0.115428 0.000000 0.284532 -2.323583 0.000000 5.775031 0.071557 0.000000 0.289495 -1.940232 0.000000 5.735713 0.059481 0.000000 0.312750 -1.654251 0.000000 5.686131 0.080407 0.000000 0.370923 -1.523509 0.000000 5.476082 -0.022133 0.000000 0.363846 -1.425268 0.000000 5.132396 -1.467548 0.000000 -1.111997 -0.928502 0.000000 4.868130 0.701529 0.000000 -0.878015 -0.489484 0.000000 5.288140 -0.889253 0.000000 -0.978793 -0.884126 0.000000 4.965389 0.254885 0.000000 -1.052063 0.021299 0.000000 5.385381 0.145569 0.000000 -0.495179 -0.916951 0.000000 5.185906 -0.683892 0.000000 -0.784706 0.247113 0.000000 5.293006 1.024325 0.000000 -0.286832 -0.461008 0.000000 5.437515 -1.134018 0.000000 -0.443302 0.015593 0.000000 5.262753 0.947502 0.000000 -0.406223 -0.061131 0.000000 5.553055 -1.140668 0.000000 -0.366609 -0.262546 0.000000 5.287195 0.618635 0.000000 -0.564141 0.351253 0.000000 5.561936 -0.437933 0.000000 -0.257313 -0.538470 0.000000 5.403649 -0.206306 0.000000 -0.388025 0.683823 0.000000 5.405527 0.804544 0.000000 -0.083459 -0.248504 0.000000 5.613665 -1.044556 0.000000 0.007207 0.514884 0.000000 5.358112 1.003361 0.000000 -0.101362 0.430348 0.000000 5.840588 -1.360319 0.000000 0.380428 0.495426 0.000000 5.551363 0.713077 0.000000 0.022714 1.130579 0.000000 5.684007 0.611379 0.000000 0.004257 0.821074 0.000000 5.863912 0.204765 0.000000 0.095999 0.824943 0.000000 5.943800 0.085099 0.000000 0.160918 0.981586 0.000000 5.966335 0.081495 0.000000 0.194812 1.202947 0.000000 5.967887 0.118512 0.000000 0.212447 1.481661 0.000000 5.965159 0.177837 0.000000 0.225491 1.831617 0.000000 
6.181619 0.239730 0.000000 0.231653 2.296018 0.000000 6.221547 0.228953 0.000000 0.279034 3.028795 0.000000 6.286669 0.034983 0.000000 0.277597 -2.759349 0.000000 6.110686 0.105207 0.000000 0.289170 -2.283407 0.000000 5.977311 0.047137 0.000000 0.329017 -1.906183 0.000000 5.842960 0.001670 0.000000 0.444089 -1.573459 0.000000 5.601086 -0.026177 0.000000 0.669417 -1.251326 0.000000 5.009353 -0.028972 0.000000 0.711685 -0.907492 0.000000 4.148232 0.190964 0.000000 -2.377046 -0.909878 0.000000 3.797278 -0.118204 0.000000 -0.902250 -0.731599 0.000000 4.229291 -0.247359 0.000000 -2.535221 -0.509655 0.000000 3.511209 -0.021301 0.000000 -1.846209 -0.483077 0.000000 4.447097 -0.267995 0.000000 -1.476250 -0.431339 0.000000 3.210292 -0.124222 0.000000 -2.671263 -0.164086 0.000000 4.358544 0.012420 0.000000 -0.557594 -0.365765 0.000000 3.663052 -0.340643 0.000000 -2.697571 0.043210 0.000000 4.215141 0.213583 0.000000 -0.605703 -0.229529 0.000000 4.057918 -0.473133 0.000000 -2.839955 0.065100 0.000000 3.867820 0.241728 0.000000 -1.275637 -0.009542 0.000000 4.363329 -0.363932 0.000000 -2.258128 -0.109990 0.000000 3.274721 -0.024669 0.000000 -2.300971 0.361987 0.000000 4.426421 0.113727 0.000000 -0.865886 -0.223572 0.000000 3.410465 -0.440720 0.000000 -2.641812 0.635245 0.000000 4.273274 0.437250 0.000000 -0.560815 -0.039508 0.000000 4.134530 -0.791195 0.000000 -3.087599 0.866917 0.000000 4.783215 0.584852 0.000000 -1.364279 0.744496 0.000000 5.803303 0.358867 0.000000 -0.253380 0.649035 0.000000 6.065152 0.124837 0.000000 0.072339 0.767458 0.000000 6.106235 0.069690 0.000000 0.155911 0.960887 0.000000 6.116882 0.083972 0.000000 0.181701 1.196385 0.000000 6.129896 0.123794 0.000000 0.194496 1.481325 0.000000 6.150505 0.178994 0.000000 0.207694 1.832822 0.000000 