# vtk DataFile Version 2.0
Comment goes here
ASCII

DATASET STRUCTURED_POINTS
FIELD FieldData 1
TIME 1 1 double
0.25000000
DIMENSIONS    240   120   1

ORIGIN    0.000   0.000   0.000
SPACING   0.16667 0.16667   1.000

POINT_DATA   28800
SCALARS Omega double
LOOKUP_TABLE default

2.712759e-06 3.455433e-06 4.373818e-06 5.501987e-06 6.878139e-06 8.545439e-06 1.055117e-05 1.294733e-05 1.578928e-05 1.913598e-05 2.304805e-05 2.758736e-05 3.281455e-05 3.878779e-05 4.555975e-05 5.317547e-05 6.166882e-05 7.105960e-05 8.134959e-05 9.251902e-05 1.045226e-04 1.172855e-04 1.306999e-04 1.446209e-04 1.588641e-04 1.732018e-04 1.873629e-04 2.010300e-04 2.138424e-04 2.253949e-04 2.352451e-04 2.429149e-04 2.479025e-04 2.496876e-04 2.477476e-04 2.415658e-04 2.306520e-04 2.145506e-04 1.928631e-04 1.652539e-04 1.314707e-04 9.134351e-05 4.480018e-05 -8.145507e-06 -6.738513e-05 -1.327401e-04 -2.039596e-04 -2.807560e-04 -3.628065e-04 -4.497944e-04 -5.414085e-04 -6.373837e-04 -7.374924e-04 -8.415759e-04 -9.495230e-04 -1.061288e-03 -1.176853e-03 -1.296230e-03 -1.419416e-03 -1.546373e-03 -1.676982e-03 -1.811017e-03 -1.948101e-03 -2.087681e-03 -2.229001e-03 -2.371087e-03 -2.512741e-03 -2.652550e-03 -2.788905e-03 -2.920031e-03 -3.044041e-03 -3.158976e-03 -3.262889e-03 -3.353889e-03 -3.430237e-03 -3.490387e-03 -3.533076e-03 -3.557347e-03 -3.562618e-03 -3.548681e-03 -3.515736e-03 -3.464361e-03 -3.395511e-03 -3.310464e-03 -3.210791e-03 -3.098282e-03 -2.974902e-03 -2.842709e-03 -2.703806e-03 -2.560271e-03 -2.414106e-03 -2.267193e-03 -2.121248e-03 -1.977801e-03 -1.838169e-03 -1.703452e-03 -1.574523e-03 -1.452042e-03 -1.336460e-03 -1.228045e-03 -1.126894e-03 -1.032963e-03 -9.460848e-04 -8.660035e-04 -7.923872e-04 -7.248585e-04 -6.630082e-04 -6.064169e-04 -5.546643e-04 -5.073444e-04 -4.640698e-04 -4.244799e-04 -3.882417e-04 -3.550532e-04 -3.246406e-04 -2.967592e-04 -2.711894e-04 -2.477353e-04 -2.262210e-04 -2.064887e-04 -1.883956e-04 -1.718120e-04 -1.566190e-04 -1.427077e-04 -1.299770e-04 -1.183336e-04 -1.076904e-04 -9.796655e-05 -8.908691e-05 -8.098155e-05 -7.358562e-05 -6.683908e-05 -6.068644e-05 -5.507660e-05 -4.996252e-05 -4.530109e-05 -4.105277e-05 -3.718144e-05 -3.365407e-05 -3.044057e-05 -2.751346e-05 -2.484773e-05 -2.242055e-05 -2.021116e-05 -1.820061e-05 -1.637165e-05 -1.470852e-05 -1.319688e-05 -1.182362e-05 -1.057680e-05 -9.445474e-06 -8.419686e-06 -7.490302e-06 -6.649000e-06 -5.888141e-06 -5.200764e-06 -4.580474e-06 -4.021435e-06 -3.518289e-06 -3.066139e-06 -2.660492e-06 -2.297231e-06 -1.972587e-06 -1.683093e-06 -1.425588e-06 -1.197146e-06 -9.951146e-07 -8.170207e-07 -6.606410e-07 -5.238788e-07 -4.048723e-07 -3.018401e-07 -2.132258e-07 -1.375122e-07 -7.340195e-08 -1.960032e-08 2.496936e-08 6.141359e-08 9.062004e-08 1.135345e-07 1.308817e-07 1.434690e-07 1.518801e-07 1.568016e-07 1.586943e-07 1.581389e-07 1.554885e-07 1.512303e-07 1.456235e-07 1.390722e-07 1.317541e-07 1.240001e-07 1.159179e-07 1.077743e-07 9.961853e-08 9.166193e-08 8.390602e-08 7.651570e-08 6.945503e-08 6.285088e-08 5.663959e-08 5.091803e-08 4.560362e-08 4.077056e-08 3.632508e-08 3.232522e-08 2.867255e-08 2.541469e-08 2.245401e-08 1.983290e-08 1.745930e-08 1.537561e-08 1.350036e-08 1.188243e-08 1.045763e-08 9.291054e-09 8.346853e-09 7.722779e-09 7.431018e-09 7.630686e-09 8.417471e-09 1.006169e-08 1.280474e-08 1.711273e-08 2.347832e-08 3.270271e-08 4.570249e-08 6.383569e-08 8.871450e-08 1.225940e-07 1.681923e-07 2.291627e-07 3.099228e-07 4.162292e-07 5.550159e-07 7.350866e-07 9.669548e-07 1.263658e-06 1.640583e-06 2.116384e-06 
3.510775e-06 4.472103e-06 5.660143e-06 7.118842e-06 8.897445e-06 1.105150e-05 1.364183e-05 1.673516e-05 2.040254e-05 2.471941e-05 2.976332e-05 3.561320e-05 4.234628e-05 5.003650e-05 5.875063e-05 6.854561e-05 7.946409e-05 9.153084e-05 1.047479e-04 1.190900e-04 1.345003e-04 1.508847e-04 1.681086e-04 1.859915e-04 2.043045e-04 2.227664e-04 2.410437e-04 2.587483e-04 2.754421e-04 2.906378e-04 3.038096e-04 3.143990e-04 3.218330e-04 3.255364e-04 3.249584e-04 3.195918e-04 3.090071e-04 2.928762e-04 2.710128e-04 2.433957e-04 2.102099e-04 1.718651e-04 1.290312e-04 8.264452e-05 3.393350e-05 -1.559315e-05 -6.413492e-05 -1.096320e-04 -1.497698e-04 -1.820331e-04 -2.037271e-04 -2.120531e-04 -2.041468e-04 -1.771749e-04 -1.283936e-04 -5.526694e-05 4.445342e-05 1.725881e-04 3.304286e-04 5.185821e-04 7.368566e-04 9.841080e-04 1.258132e-03 1.555543e-03 1.871715e-03 2.200731e-03 2.535417e-03 2.867424e-03 3.187385e-03 3.485167e-03 3.750183e-03 3.971807e-03 4.139814e-03 4.244906e-03 4.279199e-03 4.236748e-03 4.113948e-03 3.909907e-03 3.626614e-03 3.269028e-03 2.844906e-03 2.364541e-03 1.840252e-03 1.285810e-03 7.157128e-04 1.444637e-04 -4.141667e-04 -9.477842e-04 -1.445902e-03 -1.900313e-03 -2.305272e-03 -2.657515e-03 -2.956086e-03 -3.202056e-03 -3.398120e-03 -3.548165e-03 -3.656824e-03 -3.729077e-03 -3.769903e-03 -3.784034e-03 -3.775786e-03 -3.748977e-03 -3.706918e-03 -3.652442e-03 -3.587972e-03 -3.515590e-03 -3.437101e-03 -3.354089e-03 -3.267940e-03 -3.179867e-03 -3.090904e-03 -3.001913e-03 -2.913575e-03 -2.826400e-03 -2.740737e-03 -2.656797e-03 -2.574679e-03 -2.494402e-03 -2.415934e-03 -2.339220e-03 -2.264200e-03 -2.190824e-03 -2.119053e-03 -2.048866e-03 -1.980251e-03 -1.913201e-03 -1.847709e-03 -1.783766e-03 -1.721356e-03 -1.660458e-03 -1.601045e-03 -1.543091e-03 -1.486567e-03 -1.431450e-03 -1.377718e-03 -1.325353e-03 -1.274339e-03 -1.224663e-03 -1.176311e-03 -1.129270e-03 -1.083523e-03 -1.039052e-03 -9.958386e-04 -9.538605e-04 -9.130951e-04 -8.735193e-04 -8.351096e-04 -7.978430e-04 -7.616968e-04 -7.266495e-04 -6.926803e-04 -6.597696e-04 -6.278988e-04 -5.970504e-04 -5.672080e-04 -5.383564e-04 -5.104816e-04 -4.835703e-04 -4.576104e-04 -4.325903e-04 -4.084989e-04 -3.853257e-04 -3.630600e-04 -3.416910e-04 -3.212077e-04 -3.015984e-04 -2.828505e-04 -2.649505e-04 -2.478842e-04 -2.316357e-04 -2.161882e-04 -2.015236e-04 -1.876226e-04 -1.744646e-04 -1.620279e-04 -1.502899e-04 -1.392270e-04 -1.288149e-04 -1.190287e-04 -1.098430e-04 -1.012323e-04 -9.317074e-05 -8.563279e-05 -7.859304e-05 -7.202643e-05 -6.590850e-05 -6.021531e-05 -5.492374e-05 -5.001141e-05 -4.545684e-05 -4.123943e-05 -3.733953e-05 -3.373840e-05 -3.041824e-05 -2.736213e-05 -2.455401e-05 -2.197864e-05 -1.962153e-05 -1.746892e-05 -1.550767e-05 -1.372532e-05 -1.210988e-05 -1.064994e-05 -9.334527e-06 -8.153176e-06 -7.095772e-06 -6.152715e-06 -5.314709e-06 -4.572972e-06 -3.919022e-06 -3.344901e-06 -2.842957e-06 -2.406079e-06 -2.027472e-06 -1.700888e-06 -1.420399e-06 -1.180616e-06 -9.764546e-07 -8.033429e-07 -6.569705e-07 -5.334902e-07 -4.292415e-07 -3.409470e-07 -2.654037e-07 -1.996751e-07 -1.407376e-07 -8.566940e-08 -3.123647e-08 2.592341e-08 8.979514e-08 1.648097e-07 2.564422e-07 3.710458e-07 5.165765e-07 7.024377e-07 9.403487e-07 1.244193e-06 1.631033e-06 2.120943e-06 2.738144e-06 
4.518429e-06 5.755428e-06 7.283442e-06 9.158792e-06 1.144457e-05 1.421181e-05 1.753823e-05 2.150891e-05 2.621437e-05 3.175047e-05 3.821560e-05 4.570961e-05 5.433001e-05 6.416978e-05 7.531256e-05 8.782930e-05 1.017727e-04 1.171726e-04 1.340303e-04 1.523127e-04 1.719469e-04 1.928143e-04 2.147452e-04 2.375134e-04 2.608331e-04 2.843540e-04 3.076621e-04 3.302769e-04 3.516580e-04 3.712073e-04 3.882831e-04 4.022105e-04 4.123059e-04 4.178976e-04 4.183634e-04 4.131619e-04 4.018828e-04 3.842880e-04 3.603716e-04 3.304048e-04 2.949993e-04 2.551480e-04 2.122830e-04 1.683011e-04 1.256080e-04 8.711880e-05 5.627916e-05 3.703375e-05 3.381753e-05 5.148553e-05 9.526822e-05 1.706567e-04 2.833145e-04 4.389117e-04 6.429841e-04 9.007094e-04 1.216708e-03 1.594757e-03 2.037541e-03 2.546316e-03 3.120622e-03 3.757954e-03 4.453484e-03 5.199797e-03 5.986722e-03 6.801234e-03 7.627490e-03 8.447009e-03 9.239015e-03 9.980970e-03 1.064927e-02 1.122013e-02 1.167058e-02 1.197959e-02 1.212918e-02 1.210551e-02 1.189985e-02 1.150936e-02 1.093752e-02 1.019427e-02 9.295773e-03 8.263777e-03 7.124596e-03 5.907846e-03 4.644927e-03 3.367441e-03 2.105625e-03 8.869379e-04 -2.650897e-04 -1.331680e-03 -2.299236e-03 -3.159402e-03 -3.908747e-03 -4.548173e-03 -5.082110e-03 -5.517614e-03 -5.863443e-03 -6.129214e-03 -6.324704e-03 -6.459309e-03 -6.541699e-03 -6.579643e-03 -6.579965e-03 -6.548613e-03 -6.490768e-03 -6.410980e-03 -6.313280e-03 -6.201276e-03 -6.078188e-03 -5.946876e-03 -5.809827e-03 -5.669144e-03 -5.526534e-03 -5.383321e-03 -5.240467e-03 -5.098622e-03 -4.958183e-03 -4.819363e-03 -4.682254e-03 -4.546890e-03 -4.413283e-03 -4.281457e-03 -4.151458e-03 -4.023352e-03 -3.897221e-03 -3.773149e-03 -3.651214e-03 -3.531478e-03 -3.413983e-03 -3.298755e-03 -3.185806e-03 -3.075139e-03 -2.966753e-03 -2.860649e-03 -2.756833e-03 -2.655311e-03 -2.556094e-03 -2.459192e-03 -2.364612e-03 -2.272358e-03 -2.182425e-03 -2.094805e-03 -2.009478e-03 -1.926425e-03 -1.845617e-03 -1.767026e-03 -1.690619e-03 -1.616366e-03 -1.544234e-03 -1.474192e-03 -1.406210e-03 -1.340258e-03 -1.276308e-03 -1.214335e-03 -1.154314e-03 -1.096221e-03 -1.040036e-03 -9.857383e-04 -9.333095e-04 -8.827321e-04 -8.339895e-04 -7.870651e-04 -7.419423e-04 -6.986037e-04 -6.570309e-04 -6.172039e-04 -5.791011e-04 -5.426982e-04 -5.079691e-04 -4.748846e-04 -4.434129e-04 -4.135195e-04 -3.851672e-04 -3.583161e-04 -3.329237e-04 -3.089456e-04 -2.863350e-04 -2.650438e-04 -2.450223e-04 -2.262198e-04 -2.085852e-04 -1.920667e-04 -1.766130e-04 -1.621729e-04 -1.486959e-04 -1.361328e-04 -1.244352e-04 -1.135564e-04 -1.034513e-04 -9.407648e-05 -8.539025e-05 -7.735301e-05 -6.992676e-05 -6.307562e-05 -5.676527e-05 -5.096331e-05 -4.563883e-05 -4.076255e-05 -3.630653e-05 -3.224420e-05 -2.855016e-05 -2.520012e-05 -2.217081e-05 -1.943991e-05 -1.698599e-05 -1.478843e-05 -1.282752e-05 -1.108424e-05 -9.540480e-06 -8.178867e-06 -6.982930e-06 -5.936956e-06 -5.026191e-06 -4.236658e-06 -3.555374e-06 -2.970142e-06 -2.469764e-06 -2.043801e-06 -1.682780e-06 -1.377918e-06 -1.121319e-06 -9.056553e-07 -7.243556e-07 -5.712399e-07 -4.406980e-07 -3.272651e-07 -2.257940e-07 -1.309539e-07 -3.739453e-08 6.085500e-08 1.702331e-07 2.983735e-07 4.539687e-07 6.476509e-07 8.918738e-07 1.201966e-06 1.596024e-06 2.096138e-06 2.728268e-06 3.523619e-06 
5.783499e-06 7.366207e-06 9.320498e-06 1.171812e-05 1.463942e-05 1.817464e-05 2.242246e-05 2.749067e-05 3.349374e-05 4.055260e-05 4.879110e-05 5.833448e-05 6.930468e-05 8.181738e-05 9.597612e-05 1.118679e-04 1.295566e-04 1.490768e-04 1.704273e-04 1.935639e-04 2.183926e-04 2.447622e-04 2.724590e-04 3.011988e-04 3.306240e-04 3.602976e-04 3.897034e-04 4.182437e-04 4.452464e-04 4.699690e-04 4.916157e-04 5.093523e-04 5.223380e-04 5.297543e-04 5.308550e-04 5.250121e-04 5.117845e-04 4.909791e-04 4.627348e-04 4.275919e-04 3.865829e-04 3.412981e-04 2.939705e-04 2.475233e-04 2.056341e-04 1.727495e-04 1.541154e-04 1.557457e-04 1.844068e-04 2.475292e-04 3.531349e-04 5.096798e-04 7.259106e-04 1.010624e-03 1.372440e-03 1.819460e-03 2.358947e-03 2.996884e-03 3.737557e-03 4.583037e-03 5.532704e-03 6.582714e-03 7.725547e-03 8.949576e-03 1.023878e-02 1.157256e-02 1.292579e-02 1.426911e-02 1.556939e-02 1.679065e-02 1.789510e-02 1.884457e-02 1.960210e-02 2.013375e-02 2.041035e-02 2.040935e-02 2.011629e-02 1.952611e-02 1.864387e-02 1.748503e-02 1.607502e-02 1.444827e-02 1.264659e-02 1.071714e-02 8.709987e-03 6.675564e-03 4.662151e-03 2.713608e-03 8.675247e-04 -8.460966e-04 -2.405520e-03 -3.797350e-03 -5.016021e-03 -6.062826e-03 -6.944618e-03 -7.672356e-03 -8.259635e-03 -8.721351e-03 -9.072590e-03 -9.327803e-03 -9.500283e-03 -9.601905e-03 -9.643101e-03 -9.632971e-03 -9.579482e-03 -9.489682e-03 -9.369877e-03 -9.225761e-03 -9.062472e-03 -8.884603e-03 -8.696169e-03 -8.500579e-03 -8.300609e-03 -8.098410e-03 -7.895550e-03 -7.693094e-03 -7.491699e-03 -7.291734e-03 -7.093382e-03 -6.896738e-03 -6.701876e-03 -6.508890e-03 -6.317913e-03 -6.129114e-03 -5.942679e-03 -5.758796e-03 -5.577634e-03 -5.399332e-03 -5.223993e-03 -5.051687e-03 -4.882460e-03 -4.716344e-03 -4.553364e-03 -4.393548e-03 -4.236926e-03 -4.083538e-03 -3.933422e-03 -3.786617e-03 -3.643155e-03 -3.503059e-03 -3.366339e-03 -3.232995e-03 -3.103012e-03 -2.976369e-03 -2.853034e-03 -2.732972e-03 -2.616143e-03 -2.502508e-03 -2.392026e-03 -2.284655e-03 -2.180358e-03 -2.079097e-03 -1.980834e-03 -1.885537e-03 -1.793172e-03 -1.703711e-03 -1.617127e-03 -1.533393e-03 -1.452487e-03 -1.374388e-03 -1.299074e-03 -1.226524e-03 -1.156718e-03 -1.089634e-03 -1.025247e-03 -9.635300e-04 -9.044536e-04 -8.479841e-04 -7.940839e-04 -7.427110e-04 -6.938191e-04 -6.473573e-04 -6.032701e-04 -5.614979e-04 -5.219768e-04 -4.846394e-04 -4.494149e-04 -4.162298e-04 -3.850082e-04 -3.556728e-04 -3.281447e-04 -3.023449e-04 -2.781941e-04 -2.556139e-04 -2.345264e-04 -2.148558e-04 -1.965276e-04 -1.794701e-04 -1.636136e-04 -1.488914e-04 -1.352395e-04 -1.225968e-04 -1.109051e-04 -1.001092e-04 -9.015650e-05 -8.099724e-05 -7.258395e-05 -6.487175e-05 -5.781769e-05 -5.138100e-05 -4.552253e-05 -4.020494e-05 -3.539227e-05 -3.105003e-05 -2.714500e-05 -2.364522e-05 -2.051991e-05 -1.773949e-05 -1.527559e-05 -1.310098e-05 -1.118978e-05 -9.517261e-06 -8.060130e-06 -6.796327e-06 -5.705271e-06 -4.767663e-06 -3.965701e-06 -3.282847e-06 -2.704025e-06 -2.215328e-06 -1.804204e-06 -1.459106e-06 -1.169654e-06 -9.262214e-07 -7.200886e-07 -5.429415e-07 -3.870216e-07 -2.445225e-07 -1.077291e-07 3.171050e-08 1.826633e-07 3.553946e-07 5.614713e-07 8.148318e-07 1.131717e-06 1.531950e-06 2.038885e-06 2.680896e-06 3.491306e-06 4.510049e-06 
7.361875e-06 9.375689e-06 1.186143e-05 1.490997e-05 1.862298e-05 2.311445e-05 2.850885e-05 3.494180e-05 4.255708e-05 5.150611e-05 6.194350e-05 7.402501e-05 8.790159e-05 1.037156e-04 1.215936e-04 1.416406e-04 1.639319e-04 1.885064e-04 2.153573e-04 2.444245e-04 2.755861e-04 3.086497e-04 3.433454e-04 3.793169e-04 4.161177e-04 4.532029e-04 4.899301e-04 5.255555e-04 5.592417e-04 5.900626e-04 6.170239e-04 6.390815e-04 6.551810e-04 6.642961e-04 6.654930e-04 6.579918e-04 6.412583e-04 6.150883e-04 5.797212e-04 5.359387e-04 4.851886e-04 4.296817e-04 3.725080e-04 3.177105e-04 2.703730e-04 2.366505e-04 2.238091e-04 2.401934e-04 2.952032e-04 3.991814e-04 5.633109e-04 7.994067e-04 1.119713e-03 1.536581e-03 2.062143e-03 2.707853e-03 3.484023e-03 4.399219e-03 5.459658e-03 6.668491e-03 8.025106e-03 9.524380e-03 1.115601e-02 1.290390e-02 1.474571e-02 1.665259e-02 1.858921e-02 2.051411e-02 2.238044e-02 2.413710e-02 2.573030e-02 2.710557e-02 2.820999e-02 2.899483e-02 2.941804e-02 2.944695e-02 2.906040e-02 2.825066e-02 2.702451e-02 2.540367e-02 2.342422e-02 2.113519e-02 1.859626e-02 1.587480e-02 1.304234e-02 1.017088e-02 7.329257e-03 4.579842e-03 1.975885e-03 -4.403555e-04 -2.638557e-03 -4.600385e-03 -6.318687e-03 -7.796031e-03 -9.042784e-03 -1.007496e-02 -1.091210e-02 -1.157535e-02 -1.208589e-02 -1.246379e-02 -1.272735e-02 -1.289277e-02 -1.297420e-02 -1.298393e-02 -1.293274e-02 -1.283022e-02 -1.268505e-02 -1.250510e-02 -1.229758e-02 -1.206897e-02 -1.182494e-02 -1.157032e-02 -1.130902e-02 -1.104405e-02 -1.077757e-02 -1.051101e-02 -1.024525e-02 -9.980739e-03 -9.717699e-03 -9.456252e-03 -9.196513e-03 -8.938648e-03 -8.682890e-03 -8.429530e-03 -8.178884e-03 -7.931264e-03 -7.686945e-03 -7.446149e-03 -7.209041e-03 -6.975734e-03 -6.746305e-03 -6.520809e-03 -6.299295e-03 -6.081818e-03 -5.868442e-03 -5.659241e-03 -5.454292e-03 -5.253669e-03 -5.057435e-03 -4.865638e-03 -4.678306e-03 -4.495451e-03 -4.317061e-03 -4.143115e-03 -3.973578e-03 -3.808408e-03 -3.647559e-03 -3.490984e-03 -3.338634e-03 -3.190461e-03 -3.046417e-03 -2.906459e-03 -2.770543e-03 -2.638629e-03 -2.510679e-03 -2.386660e-03 -2.266540e-03 -2.150292e-03 -2.037889e-03 -1.929310e-03 -1.824531e-03 -1.723531e-03 -1.626287e-03 -1.532774e-03 -1.442966e-03 -1.356830e-03 -1.274331e-03 -1.195427e-03 -1.120071e-03 -1.048208e-03 -9.797786e-04 -9.147154e-04 -8.529446e-04 -7.943859e-04 -7.389532e-04 -6.865547e-04 -6.370938e-04 -5.904699e-04 -5.465785e-04 -5.053133e-04 -4.665653e-04 -4.302254e-04 -3.961838e-04 -3.643319e-04 -3.345620e-04 -3.067689e-04 -2.808496e-04 -2.567047e-04 -2.342377e-04 -2.133567e-04 -1.939728e-04 -1.760022e-04 -1.593644e-04 -1.439834e-04 -1.297867e-04 -1.167060e-04 -1.046760e-04 -9.363494e-05 -8.352381e-05 -7.428645e-05 -6.586886e-05 -5.821949e-05 -5.128852e-05 -4.502814e-05 -3.939204e-05 -3.433564e-05 -2.981581e-05 -2.579097e-05 -2.222110e-05 -1.906773e-05 -1.629408e-05 -1.386503e-05 -1.174729e-05 -9.909333e-06 -8.321636e-06 -6.956497e-06 -5.788274e-06 -4.793158e-06 -3.949370e-06 -3.236859e-06 -2.637475e-06 -2.134576e-06 -1.713184e-06 -1.359494e-06 -1.061009e-06 -8.059486e-07 -5.833634e-07 -3.824226e-07 -1.925025e-07 -2.326096e-09 1.999786e-07 4.279277e-07 6.966619e-07 1.024221e-06 1.431567e-06 1.944112e-06 2.591770e-06 3.410734e-06 4.443511e-06 5.740894e-06 
9.320119e-06 1.186860e-05 1.501326e-05 1.886849e-05 2.356225e-05 2.923758e-05 3.605053e-05 4.417058e-05 5.377707e-05 6.505812e-05 7.820521e-05 9.341026e-05 1.108583e-04 1.307224e-04 1.531551e-04 1.782807e-04 2.061863e-04 2.369121e-04 2.704420e-04 3.066934e-04 3.455076e-04 3.866395e-04 4.297491e-04 4.743914e-04 5.200107e-04 5.659312e-04 6.113565e-04 6.553641e-04 6.969136e-04 7.348507e-04 7.679310e-04 7.948407e-04 8.142452e-04 8.248363e-04 8.254130e-04 8.149627e-04 7.927783e-04 7.585721e-04 7.126251e-04 6.559227e-04 5.903191e-04 5.186733e-04 4.450033e-04 3.745930e-04 3.141084e-04 2.716451e-04 2.567801e-04 2.805361e-04 3.553469e-04 4.949178e-04 7.140848e-04 1.028551e-03 1.454614e-03 2.008753e-03 2.707196e-03 3.565327e-03 4.597067e-03 5.814084e-03 7.224990e-03 8.834386e-03 1.064193e-02 1.264132e-02 1.481938e-02 1.715522e-02 1.961958e-02 2.217444e-02 2.477303e-02 2.736020e-02 2.987339e-02 3.224415e-02 3.440015e-02 3.626792e-02 3.777583e-02 3.885767e-02 3.945611e-02 3.952632e-02 3.903903e-02 3.798314e-02 3.636731e-02 3.422053e-02 3.159143e-02 2.854636e-02 2.516622e-02 2.154236e-02 1.777177e-02 1.395191e-02 1.017572e-02 6.527058e-03 3.077076e-03 -1.183018e-04 -3.019605e-03 -5.603769e-03 -7.862918e-03 -9.802218e-03 -1.143714e-02 -1.279042e-02 -1.388912e-02 -1.476197e-02 -1.543731e-02 -1.594158e-02 -1.629855e-02 -1.652897e-02 -1.665079e-02 -1.667951e-02 -1.662874e-02 -1.651067e-02 -1.633641e-02 -1.611624e-02 -1.585963e-02 -1.557515e-02 -1.527038e-02 -1.495171e-02 -1.462429e-02 -1.429203e-02 -1.395764e-02 -1.362287e-02 -1.328868e-02 -1.295555e-02 -1.262366e-02 -1.229309e-02 -1.196398e-02 -1.163658e-02 -1.131125e-02 -1.098843e-02 -1.066861e-02 -1.035225e-02 -1.003976e-02 -9.731453e-03 -9.427557e-03 -9.128222e-03 -8.833544e-03 -8.543596e-03 -8.258450e-03 -7.978190e-03 -7.702921e-03 -7.432761e-03 -7.167838e-03 -6.908274e-03 -6.654171e-03 -6.405612e-03 -6.162647e-03 -5.925299e-03 -5.693565e-03 -5.467422e-03 -5.246832e-03 -5.031749e-03 -4.822119e-03 -4.617888e-03 -4.419003e-03 -4.225410e-03 -4.037056e-03 -3.853891e-03 -3.675868e-03 -3.502944e-03 -3.335077e-03 -3.172232e-03 -3.014377e-03 -2.861485e-03 -2.713532e-03 -2.570498e-03 -2.432364e-03 -2.299110e-03 -2.170716e-03 -2.047159e-03 -1.928413e-03 -1.814443e-03 -1.705212e-03 -1.600672e-03 -1.500767e-03 -1.405435e-03 -1.314600e-03 -1.228180e-03 -1.146082e-03 -1.068206e-03 -9.944402e-04 -9.246682e-04 -8.587649e-04 -7.965998e-04 -7.380373e-04 -6.829384e-04 -6.311610e-04 -5.825621e-04 -5.369977e-04 -4.943256e-04 -4.544043e-04 -4.170960e-04 -3.822655e-04 -3.497826e-04 -3.195211e-04 -2.913605e-04 -2.651850e-04 -2.408852e-04 -2.183562e-04 -1.974994e-04 -1.782205e-04 -1.604309e-04 -1.440459e-04 -1.289856e-04 -1.151733e-04 -1.025361e-04 -9.100373e-05 -8.050905e-05 -7.098692e-05 -6.237460e-05 -5.461114e-05 -4.763759e-05 -4.139670e-05 -3.583307e-05 -3.089310e-05 -2.652512e-05 -2.267950e-05 -1.930869e-05 -1.636746e-05 -1.381288e-05 -1.160457e-05 -9.704612e-06 -8.077763e-06 -6.691289e-06 -5.515154e-06 -4.521715e-06 -3.685881e-06 -2.984690e-06 -2.397431e-06 -1.905096e-06 -1.490469e-06 -1.137440e-06 -8.310674e-07 -5.567381e-07 -3.001914e-07 -4.649518e-08 2.199754e-07 5.167905e-07 8.635451e-07 1.283383e-06 1.803141e-06 2.455175e-06 3.277549e-06 4.316157e-06 5.624897e-06 7.268013e-06 
1.173523e-05 1.494310e-05 1.890011e-05 2.374948e-05 2.965124e-05 3.678390e-05 4.534177e-05 5.553533e-05 6.758662e-05 8.172763e-05 9.819347e-05 1.172184e-04 1.390268e-04 1.638267e-04 1.917985e-04 2.230871e-04 2.577889e-04 2.959424e-04 3.375152e-04 3.823936e-04 4.303703e-04 4.811334e-04 5.342561e-04 5.891849e-04 6.452325e-04 7.015660e-04 7.572046e-04 8.110119e-04 8.617022e-04 9.078435e-04 9.478820e-04 9.801655e-04 1.002999e-03 1.014704e-03 1.013712e-03 9.986768e-04 9.686140e-04 9.230569e-04 8.622475e-04 7.873199e-04 7.005153e-04 6.053678e-04 5.069071e-04 4.118060e-04 3.285310e-04 2.674120e-04 2.407057e-04 2.625552e-04 3.489403e-04 5.175032e-04 7.873636e-04 1.178788e-03 1.712839e-03 2.410861e-03 3.293927e-03 4.382093e-03 5.693611e-03 7.243936e-03 9.044683e-03 1.110241e-02 1.341741e-02 1.598237e-02 1.878118e-02 2.178778e-02 2.496527e-02 2.826536e-02 3.162822e-02 3.498302e-02 3.824899e-02 4.133735e-02 4.415396e-02 4.660276e-02 4.858974e-02 5.002765e-02 5.084056e-02 5.096876e-02 5.037289e-02 4.903746e-02 4.697310e-02 4.421741e-02 4.083408e-02 3.691038e-02 3.255295e-02 2.788223e-02 2.302603e-02 1.811253e-02 1.326353e-02 8.588350e-03 4.178991e-03 1.068249e-04 -3.578908e-03 -6.850860e-03 -9.701738e-03 -1.214123e-02 -1.419217e-02 -1.588633e-02 -1.726039e-02 -1.835247e-02 -1.919941e-02 -1.983494e-02 -2.028875e-02 -2.058637e-02 -2.074953e-02 -2.079688e-02 -2.074480e-02 -2.060810e-02 -2.040051e-02 -2.013492e-02 -1.982340e-02 -1.947696e-02 -1.910533e-02 -1.871674e-02 -1.831769e-02 -1.791300e-02 -1.750592e-02 -1.709836e-02 -1.669128e-02 -1.628498e-02 -1.587950e-02 -1.547483e-02 -1.507111e-02 -1.466868e-02 -1.426806e-02 -1.386992e-02 -1.347499e-02 -1.308391e-02 -1.269725e-02 -1.231543e-02 -1.193873e-02 -1.156733e-02 -1.120132e-02 -1.084080e-02 -1.048584e-02 -1.013656e-02 -9.793130e-03 -9.455720e-03 -9.124528e-03 -8.799738e-03 -8.481510e-03 -8.169968e-03 -7.865190e-03 -7.567216e-03 -7.276049e-03 -6.991665e-03 -6.714023e-03 -6.443072e-03 -6.178753e-03 -5.921010e-03 -5.669783e-03 -5.425018e-03 -5.186658e-03 -4.954653e-03 -4.728953e-03 -4.509514e-03 -4.296296e-03 -4.089265e-03 -3.888394e-03 -3.693661e-03 -3.505049e-03 -3.322545e-03 -3.146140e-03 -2.975821e-03 -2.811578e-03 -2.653394e-03 -2.501248e-03 -2.355110e-03 -2.214942e-03 -2.080695e-03 -1.952309e-03 -1.829711e-03 -1.712816e-03 -1.601525e-03 -1.495729e-03 -1.395302e-03 -1.300110e-03 -1.210007e-03 -1.124838e-03 -1.044439e-03 -9.686391e-04 -8.972630e-04 -8.301309e-04 -7.670614e-04 -7.078719e-04 -6.523815e-04 -6.004106e-04 -5.517842e-04 -5.063305e-04 -4.638847e-04 -4.242866e-04 -3.873842e-04 -3.530313e-04 -3.210900e-04 -2.914285e-04 -2.639231e-04 -2.384558e-04 -2.149158e-04 -1.931972e-04 -1.732003e-04 -1.548292e-04 -1.379927e-04 -1.226029e-04 -1.085752e-04 -9.582758e-05 -8.428047e-05 -7.385633e-05 -6.447978e-05 -5.607720e-05 -4.857705e-05 -4.190973e-05 -3.600783e-05 -3.080628e-05 -2.624253e-05 -2.225676e-05 -1.879207e-05 -1.579471e-05 -1.321406e-05 -1.100297e-05 -9.117533e-06 -7.517370e-06 -6.165284e-06 -5.027433e-06 -4.072872e-06 -3.273632e-06 -2.604116e-06 -2.041117e-06 -1.563043e-06 -1.149887e-06 -7.822549e-07 -4.412878e-07 -1.074588e-07 2.395741e-07 6.224437e-07 1.066308e-06 1.600649e-06 2.259603e-06 3.084117e-06 4.122348e-06 5.432165e-06 7.081534e-06 9.151269e-06 
1.469726e-05 1.871392e-05 2.366697e-05 2.973475e-05 3.711627e-05 4.603290e-05 5.672520e-05 6.945275e-05 8.448858e-05 1.021165e-04 1.226229e-04 1.462908e-04 1.733893e-04 2.041646e-04 2.388272e-04 2.775410e-04 3.204086e-04 3.674598e-04 4.186370e-04 4.737825e-04 5.326259e-04 5.947704e-04 6.596825e-04 7.266776e-04 7.949116e-04 8.633659e-04 9.308436e-04 9.959559e-04 1.057128e-03 1.112594e-03 1.160428e-03 1.198558e-03 1.224836e-03 1.237102e-03 1.233304e-03 1.211624e-03 1.170671e-03 1.109669e-03 1.028708e-03 9.289891e-04 8.131016e-04 6.852739e-04 5.516381e-04 4.204290e-04 3.021781e-04 2.098094e-04 1.587155e-04 1.667100e-04 2.539560e-04 4.427491e-04 7.572767e-04 1.223208e-03 1.867258e-03 2.716545e-03 3.797917e-03 5.137031e-03 6.757378e-03 8.679053e-03 1.091746e-02 1.348178e-02 1.637342e-02 1.958435e-02 2.309551e-02 2.687528e-02 3.087833e-02 3.504475e-02 3.929983e-02 4.355453e-02 4.770677e-02 5.164382e-02 5.524552e-02 5.838868e-02 6.095220e-02 6.282310e-02 6.390255e-02 6.411232e-02 6.340022e-02 6.174497e-02 5.915917e-02 5.569067e-02 5.142142e-02 4.646431e-02 4.095758e-02 3.505749e-02 2.892971e-02 2.274003e-02 1.664533e-02 1.078555e-02 5.277251e-03 2.094131e-04 -4.358367e-03 -8.395289e-03 -1.189663e-02 -1.487934e-02 -1.737675e-02 -1.943278e-02 -2.109658e-02 -2.241793e-02 -2.344380e-02 -2.421618e-02 -2.477120e-02 -2.513916e-02 -2.534544e-02 -2.541157e-02 -2.535658e-02 -2.519788e-02 -2.495201e-02 -2.463485e-02 -2.426147e-02 -2.384582e-02 -2.340022e-02 -2.293501e-02 -2.245821e-02 -2.197560e-02 -2.149080e-02 -2.100574e-02 -2.052110e-02 -2.003685e-02 -1.955271e-02 -1.906849e-02 -1.858429e-02 -1.810059e-02 -1.761818e-02 -1.713803e-02 -1.666117e-02 -1.618852e-02 -1.572084e-02 -1.525865e-02 -1.480228e-02 -1.435190e-02 -1.390758e-02 -1.346941e-02 -1.303747e-02 -1.261193e-02 -1.219302e-02 -1.178099e-02 -1.137615e-02 -1.097876e-02 -1.058905e-02 -1.020721e-02 -9.833349e-03 -9.467520e-03 -9.109733e-03 -8.759965e-03 -8.418167e-03 -8.084285e-03 -7.758258e-03 -7.440028e-03 -7.129537e-03 -6.826730e-03 -6.531554e-03 -6.243960e-03 -5.963899e-03 -5.691333e-03 -5.426224e-03 -5.168548e-03 -4.918285e-03 -4.675427e-03 -4.439970e-03 -4.211916e-03 -3.991272e-03 -3.778043e-03 -3.572233e-03 -3.373839e-03 -3.182854e-03 -2.999255e-03 -2.823014e-03 -2.654082e-03 -2.492399e-03 -2.337888e-03 -2.190453e-03 -2.049982e-03 -1.916345e-03 -1.789396e-03 -1.668973e-03 -1.554900e-03 -1.446987e-03 -1.345032e-03 -1.248827e-03 -1.158153e-03 -1.072787e-03 -9.925058e-04 -9.170804e-04 -8.462864e-04 -7.799001e-04 -7.177038e-04 -6.594841e-04 -6.050365e-04 -5.541627e-04 -5.066747e-04 -4.623921e-04 -4.211457e-04 -3.827737e-04 -3.471249e-04 -3.140552e-04 -2.834298e-04 -2.551201e-04 -2.290047e-04 -2.049671e-04 -1.828965e-04 -1.626855e-04 -1.442306e-04 -1.274309e-04 -1.121881e-04 -9.840581e-05 -8.598984e-05 -7.484757e-05 -6.488846e-05 -5.602391e-05 -4.816765e-05 -4.123592e-05 -3.514782e-05 -2.982567e-05 -2.519523e-05 -2.118610e-05 -1.773184e-05 -1.477027e-05 -1.224344e-05 -1.009785e-05 -8.284196e-06 -6.757500e-06 -5.476640e-06 -4.404390e-06 -3.506730e-06 -2.752807e-06 -2.114022e-06 -1.563910e-06 -1.076997e-06 -6.285944e-07 -1.933729e-07 2.549359e-07 7.452970e-07 1.309794e-06 1.985774e-06 2.816401e-06 3.853222e-06 5.156823e-06 6.799799e-06 8.867392e-06 1.146074e-05 
1.830913e-05 2.331237e-05 2.948001e-05 3.703287e-05 4.621706e-05 5.730557e-05 7.059432e-05 8.640143e-05 1.050602e-04 1.269153e-04 1.523123e-04 1.815899e-04 2.150668e-04 2.530304e-04 2.957209e-04 3.433179e-04 3.959239e-04 4.535500e-04 5.160994e-04 5.833541e-04 6.549603e-04 7.304148e-04 8.090530e-04 8.900333e-04 9.723274e-04 1.054702e-03 1.135709e-03 1.213672e-03 1.286678e-03 1.352574e-03 1.408987e-03 1.453338e-03 1.482918e-03 1.494954e-03 1.486758e-03 1.455877e-03 1.400333e-03 1.318868e-03 1.211265e-03 1.078666e-03 9.239383e-04 7.520061e-04 5.701951e-04 3.884982e-04 2.198242e-04 8.012451e-05 -1.151590e-05 -3.293994e-05 4.098096e-05 2.380727e-04 5.885493e-04 1.124508e-03 1.879388e-03 2.887194e-03 4.181675e-03 5.795213e-03 7.757646e-03 1.009477e-02 1.282674e-02 1.596622e-02 1.951641e-02 2.346896e-02 2.780192e-02 3.247781e-02 3.744198e-02 4.262146e-02 4.792445e-02 5.324080e-02 5.844345e-02 6.339120e-02 6.793275e-02 7.191213e-02 7.517517e-02 7.757720e-02 7.899095e-02 7.931481e-02 7.848019e-02 7.645799e-02 7.326264e-02 6.895414e-02 6.363675e-02 5.745494e-02 5.058611e-02 4.323102e-02 3.560231e-02 2.791230e-02 2.036097e-02 1.312537e-02 6.351287e-03 1.478127e-04 -5.414689e-03 -1.030343e-02 -1.451918e-02 -1.809009e-02 -2.106424e-02 -2.350193e-02 -2.546842e-02 -2.702800e-02 -2.823972e-02 -2.915487e-02 -2.981624e-02 -3.025873e-02 -3.051085e-02 -3.059655e-02 -3.053714e-02 -3.035264e-02 -3.006264e-02 -2.968648e-02 -2.924292e-02 -2.874950e-02 -2.822171e-02 -2.767241e-02 -2.711135e-02 -2.654520e-02 -2.597779e-02 -2.541073e-02 -2.484410e-02 -2.427722e-02 -2.370927e-02 -2.313975e-02 -2.256875e-02 -2.199696e-02 -2.142554e-02 -2.085594e-02 -2.028962e-02 -1.972784e-02 -1.917160e-02 -1.862152e-02 -1.807794e-02 -1.754098e-02 -1.701064e-02 -1.648696e-02 -1.597003e-02 -1.546008e-02 -1.495741e-02 -1.446244e-02 -1.397557e-02 -1.349721e-02 -1.302767e-02 -1.256722e-02 -1.211600e-02 -1.167407e-02 -1.124147e-02 -1.081814e-02 -1.040405e-02 -9.999124e-03 -9.603309e-03 -9.216552e-03 -8.838797e-03 -8.469999e-03 -8.110110e-03 -7.759088e-03 -7.416891e-03 -7.083487e-03 -6.758852e-03 -6.442973e-03 -6.135847e-03 -5.837487e-03 -5.547910e-03 -5.267145e-03 -4.995224e-03 -4.732179e-03 -4.478039e-03 -4.232825e-03 -3.996550e-03 -3.769212e-03 -3.550793e-03 -3.341256e-03 -3.140546e-03 -2.948583e-03 -2.765265e-03 -2.590469e-03 -2.424045e-03 -2.265826e-03 -2.115619e-03 -1.973214e-03 -1.838385e-03 -1.710887e-03 -1.590467e-03 -1.476858e-03 -1.369789e-03 -1.268983e-03 -1.174162e-03 -1.085050e-03 -1.001372e-03 -9.228623e-04 -8.492586e-04 -7.803114e-04 -7.157788e-04 -6.554327e-04 -5.990545e-04 -5.464397e-04 -4.973939e-04 -4.517358e-04 -4.092934e-04 -3.699061e-04 -3.334208e-04 -2.996937e-04 -2.685864e-04 -2.399670e-04 -2.137074e-04 -1.896837e-04 -1.677743e-04 -1.478602e-04 -1.298238e-04 -1.135495e-04 -9.892243e-05 -8.582994e-05 -7.416079e-05 -6.380603e-05 -5.465923e-05 -4.661705e-05 -3.957971e-05 -3.345148e-05 -2.814116e-05 -2.356240e-05 -1.963411e-05 -1.628052e-05 -1.343149e-05 -1.102227e-05 -8.993693e-06 -7.291611e-06 -5.866945e-06 -4.674892e-06 -3.674793e-06 -2.829091e-06 -2.103065e-06 -1.463503e-06 -8.783107e-07 -3.148452e-07 2.606116e-07 8.849200e-07 1.598775e-06 2.449236e-06 3.490599e-06 4.787426e-06 6.415551e-06 8.465573e-06 1.104386e-05 1.427632e-05 