# vtk DataFile Version 2.0
Comment goes here
ASCII

DATASET STRUCTURED_POINTS
FIELD FieldData 1
TIME 1 1 double
0.10000000
DIMENSIONS    240   120   1

ORIGIN    0.000   0.000   0.000
SPACING   0.16667 0.16667   1.000

POINT_DATA   28800
SCALARS Omega double
LOOKUP_TABLE default

-2.803339e-09 -2.918368e-09 -3.081601e-09 -3.187459e-09 -3.342186e-09 -3.427985e-09 -3.560159e-09 -3.610237e-09 -3.699224e-09 -3.690627e-09 -3.705708e-09 -3.603737e-09 -3.498076e-09 -3.248661e-09 -2.949550e-09 -2.467283e-09 -1.861787e-09 -1.013441e-09 6.948825e-11 1.483232e-09 3.289120e-09 5.545763e-09 8.398162e-09 1.184462e-08 1.611824e-08 2.112177e-08 2.716606e-08 3.400865e-08 4.201246e-08 5.073011e-08 6.054367e-08 7.074459e-08 8.171258e-08 9.244599e-08 1.033369e-07 1.131035e-07 1.222203e-07 1.291912e-07 1.346969e-07 1.371289e-07 1.375230e-07 1.342557e-07 1.288388e-07 1.196801e-07 1.088063e-07 9.461998e-08 7.958730e-08 6.198967e-08 4.454193e-08 2.523751e-08 6.752529e-09 -1.339916e-08 -3.295680e-08 -5.511440e-08 -7.851945e-08 -1.074034e-07 -1.419884e-07 -1.880614e-07 -2.482939e-07 -3.307579e-07 -4.415641e-07 -5.918330e-07 -7.918574e-07 -1.056083e-06 -1.398751e-06 -1.836528e-06 -2.385389e-06 -3.060728e-06 -3.875224e-06 -4.836652e-06 -5.946771e-06 -7.197595e-06 -8.571872e-06 -1.003915e-05 -1.155880e-05 -1.307742e-05 -1.453509e-05 -1.586499e-05 -1.700257e-05 -1.788666e-05 -1.846965e-05 -1.871794e-05 -1.862005e-05 -1.818401e-05 -1.744102e-05 -1.643859e-05 -1.523972e-05 -1.391313e-05 -1.253030e-05 -1.115585e-05 -9.845768e-06 -8.640751e-06 -7.567735e-06 -6.637314e-06 -5.848253e-06 -5.188146e-06 -4.638835e-06 -4.178511e-06 -3.785677e-06 -3.441230e-06 -3.129591e-06 -2.840294e-06 -2.566291e-06 -2.305387e-06 -2.056690e-06 -1.822499e-06 -1.604064e-06 -1.404274e-06 -1.223564e-06 -1.063284e-06 -9.221118e-07 -7.996527e-07 -6.933922e-07 -6.020207e-07 -5.228493e-07 -4.545413e-07 -3.949357e-07 -3.431051e-07 -2.975874e-07 -2.578574e-07 -2.229769e-07 -1.926260e-07 -1.661456e-07 -1.432587e-07 -1.234348e-07 -1.063893e-07 -9.167875e-08 -7.903543e-08 -6.811184e-08 -5.869090e-08 -5.052569e-08 -4.345785e-08 -3.732461e-08 -3.201104e-08 -2.741207e-08 -2.343513e-08 -2.001158e-08 -1.705739e-08 -1.452953e-08 -1.234778e-08 -1.049102e-08 -8.882839e-09 -7.521782e-09 -6.335873e-09 -5.339667e-09 -4.465533e-09 -3.739144e-09 -3.096978e-09 -2.571020e-09 -2.102140e-09 -1.724823e-09 -1.385099e-09 -1.117280e-09 -8.733239e-10 -6.856215e-10 -5.124297e-10 -3.831964e-10 -2.622779e-10 -1.757726e-10 -9.350341e-11 -3.834013e-11 1.536020e-11 4.744646e-11 8.009314e-11 9.512303e-11 1.123388e-10 1.147116e-10 1.207121e-10 1.136549e-10 1.116104e-10 9.752049e-11 8.983169e-11 7.052115e-11 5.902163e-11 3.589043e-11 2.198741e-11 -3.835989e-12 -1.905391e-11 -4.665209e-11 -6.235671e-11 -9.095961e-11 -1.065215e-10 -1.354682e-10 -1.504347e-10 -1.791688e-10 -1.932282e-10 -2.212872e-10 -2.342611e-10 -2.612740e-10 -2.730879e-10 -2.987885e-10 -3.094712e-10 -3.336981e-10 -3.433636e-10 -3.660667e-10 -3.749014e-10 -3.961396e-10 -4.044003e-10 -4.243488e-10 -4.323511e-10 -4.512907e-10 -4.594107e-10 -4.777295e-10 -4.863954e-10 -5.045785e-10 -5.142734e-10 -5.329098e-10 -5.441699e-10 -5.639391e-10 -5.773581e-10 -5.990399e-10 -6.152643e-10 -6.397312e-10 -6.594686e-10 -6.876910e-10 -7.117079e-10 -7.447580e-10 -7.738700e-10 -8.129099e-10 -8.479762e-10 -8.942544e-10 -9.361684e-10 -9.910072e-10 -1.040659e-09 -1.105412e-09 -1.163652e-09 -1.239656e-09 -1.307224e-09 -1.395718e-09 -1.473162e-09 -1.575168e-09 -1.662711e-09 -1.778874e-09 -1.876247e-09 -2.006604e-09 -2.112823e-09 -2.256517e-09 -2.369606e-09 -2.524501e-09 -2.641132e-09 
-2.709448e-09 -2.815172e-09 -2.979197e-09 -3.073741e-09 -3.228281e-09 -3.299842e-09 -3.429447e-09 -3.460120e-09 -3.540637e-09 -3.502165e-09 -3.494695e-09 -3.340467e-09 -3.180456e-09 -2.831415e-09 -2.410452e-09 -1.732524e-09 -8.710475e-10 3.564877e-10 1.943941e-09 4.064355e-09 6.802248e-09 1.030702e-08 1.476942e-08 2.028633e-08 2.715210e-08 3.535916e-08 4.527507e-08 5.670881e-08 7.004159e-08 8.480027e-08 1.013057e-07 1.187093e-07 1.372172e-07 1.555574e-07 1.738328e-07 1.903862e-07 2.053317e-07 2.167688e-07 2.250416e-07 2.282267e-07 2.271756e-07 2.201767e-07 2.088507e-07 1.918847e-07 1.718698e-07 1.480471e-07 1.241832e-07 1.003695e-07 8.201509e-08 7.089335e-08 7.528899e-08 1.006713e-07 1.609560e-07 2.693437e-07 4.505303e-07 7.322731e-07 1.158118e-06 1.779979e-06 2.670392e-06 3.915651e-06 5.625613e-06 7.925726e-06 1.096114e-05 1.488480e-05 1.985179e-05 2.600073e-05 3.343551e-05 4.220017e-05 5.224994e-05 6.342684e-05 7.543005e-05 8.780838e-05 9.994815e-05 1.111030e-04 1.204175e-04 1.270057e-04 1.300139e-04 1.287343e-04 1.226809e-04 1.116939e-04 9.597944e-05 7.614604e-05 5.316405e-05 2.830120e-05 2.998842e-06 -2.126744e-05 -4.314223e-05 -6.152776e-05 -7.568896e-05 -8.530972e-05 -9.049552e-05 -9.172018e-05 -8.973591e-05 -8.544923e-05 -7.980091e-05 -7.364541e-05 -6.767113e-05 -6.234254e-05 -5.789520e-05 -5.435257e-05 -5.158023e-05 -4.934521e-05 -4.738373e-05 -4.545645e-05 -4.338779e-05 -4.108768e-05 -3.854854e-05 -3.583418e-05 -3.304908e-05 -3.031585e-05 -2.774274e-05 -2.541149e-05 -2.336097e-05 -2.159340e-05 -2.007537e-05 -1.875552e-05 -1.757275e-05 -1.647287e-05 -1.541305e-05 -1.436950e-05 -1.333437e-05 -1.231466e-05 -1.132495e-05 -1.038308e-05 -9.504134e-06 -8.698004e-06 -7.967561e-06 -7.309524e-06 -6.715946e-06 -6.176620e-06 -5.681271e-06 -5.221208e-06 -4.790325e-06 -4.385124e-06 -4.004397e-06 -3.648256e-06 -3.317439e-06 -3.012385e-06 -2.732999e-06 -2.478272e-06 -2.246624e-06 -2.035907e-06 -1.843969e-06 -1.668650e-06 -1.508215e-06 -1.361165e-06 -1.226450e-06 -1.103162e-06 -9.906374e-07 -8.881897e-07 -7.952037e-07 -7.109808e-07 -6.348497e-07 -5.661008e-07 -5.040790e-07 -4.481516e-07 -3.977641e-07 -3.524026e-07 -3.116302e-07 -2.750301e-07 -2.422550e-07 -2.129449e-07 -1.868146e-07 -1.635373e-07 -1.428791e-07 -1.245422e-07 -1.083417e-07 -9.401053e-08 -8.140936e-08 -7.030200e-08 -6.058649e-08 -5.205650e-08 -4.463749e-08 -3.815223e-08 -3.254464e-08 -2.766671e-08 -2.347345e-08 -1.984627e-08 -1.674554e-08 -1.408139e-08 -1.181539e-08 -9.884561e-09 -8.249188e-09 -6.870100e-09 -5.705588e-09 -4.736199e-09 -3.918939e-09 -3.249387e-09 -2.684926e-09 -2.231327e-09 -1.848429e-09 -1.547682e-09 -1.293359e-09 -1.098793e-09 -9.342040e-10 -8.119438e-10 -7.090589e-10 -6.350623e-10 -5.740126e-10 -5.316368e-10 -4.986226e-10 -4.766877e-10 -4.623596e-10 -4.536171e-10 -4.518394e-10 -4.518126e-10 -4.587438e-10 -4.648430e-10 -4.782457e-10 -4.891502e-10 -5.079050e-10 -5.231096e-10 -5.468662e-10 -5.663903e-10 -5.953285e-10 -6.195207e-10 -6.541972e-10 -6.836064e-10 -7.248430e-10 -7.601399e-10 -8.089515e-10 -8.508804e-10 -9.084231e-10 -9.577415e-10 -1.025248e-09 -1.082680e-09 -1.161394e-09 -1.227558e-09 -1.318650e-09 -1.393965e-09 -1.498409e-09 -1.582975e-09 -1.701380e-09 -1.794798e-09 -1.927179e-09 -2.028337e-09 -2.173824e-09 -2.280610e-09 -2.437054e-09 -2.545987e-09 
-2.848045e-09 -2.974295e-09 -3.171932e-09 -3.288880e-09 -3.479858e-09 -3.573875e-09 -3.739821e-09 -3.788355e-09 -3.897900e-09 -3.861903e-09 -3.859888e-09 -3.669298e-09 -3.456933e-09 -2.984756e-09 -2.386052e-09 -1.406514e-09 -1.174655e-10 1.753118e-09 4.229954e-09 7.601191e-09 1.202037e-08 1.777835e-08 2.517545e-08 3.446569e-08 4.608047e-08 6.015515e-08 7.718531e-08 9.705490e-08 1.202025e-07 1.460899e-07 1.749494e-07 2.056575e-07 2.381251e-07 2.705635e-07 3.025667e-07 3.317620e-07 3.576202e-07 3.774642e-07 3.910304e-07 3.957710e-07 3.921917e-07 3.783443e-07 3.559924e-07 3.241854e-07 2.863529e-07 2.429126e-07 1.994553e-07 1.584820e-07 1.288988e-07 1.172000e-07 1.385305e-07 2.078987e-07 3.530611e-07 6.065607e-07 1.020564e-06 1.660466e-06 2.621341e-06 4.023184e-06 6.027434e-06 8.832273e-06 1.268542e-05 1.787522e-05 2.473292e-05 3.361265e-05 4.487417e-05 5.884501e-05 7.577698e-05 9.579033e-05 1.188076e-04 1.444955e-04 1.721986e-04 2.009150e-04 2.292711e-04 2.555791e-04 2.778944e-04 2.941844e-04 3.024775e-04 3.011146e-04 2.889334e-04 2.655015e-04 2.312225e-04 1.874162e-04 1.362405e-04 8.054237e-05 2.358332e-05 -3.128237e-05 -8.095773e-05 -1.229230e-04 -1.554762e-04 -1.778673e-04 -1.903047e-04 -1.938385e-04 -1.901534e-04 -1.812892e-04 -1.693635e-04 -1.563005e-04 -1.436458e-04 -1.324379e-04 -1.231948e-04 -1.159556e-04 -1.104035e-04 -1.060018e-04 -1.021493e-04 -9.830412e-05 -9.407486e-05 -8.926556e-05 -8.387100e-05 -7.804564e-05 -7.203707e-05 -6.612881e-05 -6.057126e-05 -5.554921e-05 -5.115023e-05 -4.737513e-05 -4.414569e-05 -4.134177e-05 -3.882422e-05 -3.646975e-05 -3.418385e-05 -3.191525e-05 -2.965052e-05 -2.740915e-05 -2.522796e-05 -2.314977e-05 -2.121052e-05 -1.943309e-05 -1.782399e-05 -1.637512e-05 -1.506788e-05 -1.387862e-05 -1.278391e-05 -1.176426e-05 -1.080638e-05 -9.903095e-06 -9.052453e-06 -8.255460e-06 -7.514339e-06 -6.830498e-06 -6.203878e-06 -5.632297e-06 -5.112109e-06 -4.638467e-06 -4.206427e-06 -3.811196e-06 -3.448871e-06 -3.116240e-06 -2.811000e-06 -2.531285e-06 -2.275647e-06 -2.042667e-06 -1.830952e-06 -1.639006e-06 -1.465279e-06 -1.308225e-06 -1.166330e-06 -1.038218e-06 -9.226135e-07 -8.184088e-07 -7.245989e-07 -6.402889e-07 -5.646736e-07 -4.969779e-07 -4.365310e-07 -3.826272e-07 -3.347073e-07 -2.921284e-07 -2.544404e-07 -2.210695e-07 -1.916665e-07 -1.657280e-07 -1.429876e-07 -1.230093e-07 -1.055877e-07 -9.035216e-08 -7.713872e-08 -6.564244e-08 -5.572491e-08 -4.714690e-08 -3.978339e-08 -3.345911e-08 -2.805345e-08 -2.345064e-08 -1.952920e-08 -1.622588e-08 -1.341664e-08 -1.108162e-08 -9.095719e-09 -7.472061e-09 -6.087955e-09 -4.978830e-09 -4.028785e-09 -3.285592e-09 -2.644329e-09 -2.156690e-09 -1.731959e-09 -1.419366e-09 -1.144258e-09 -9.491804e-10 -7.759609e-10 -6.582186e-10 -5.534499e-10 -4.856930e-10 -4.264292e-10 -3.905756e-10 -3.614420e-10 -3.459387e-10 -3.369400e-10 -3.347065e-10 -3.395869e-10 -3.465264e-10 -3.615986e-10 -3.755429e-10 -3.988499e-10 -4.188509e-10 -4.495899e-10 -4.754518e-10 -5.136057e-10 -5.455913e-10 -5.916697e-10 -6.303210e-10 -6.852059e-10 -7.312368e-10 -7.960749e-10 -8.502861e-10 -9.263990e-10 -9.896120e-10 -1.078412e-09 -1.151395e-09 -1.254296e-09 -1.337664e-09 -1.455947e-09 -1.550036e-09 -1.684679e-09 -1.789362e-09 -1.940790e-09 -2.055239e-09 -2.223013e-09 -2.345388e-09 -2.527756e-09 -2.654763e-09 
-2.768619e-09 -2.886724e-09 -3.086976e-09 -3.192625e-09 -3.383647e-09 -3.460243e-09 -3.619073e-09 -3.636773e-09 -3.720736e-09 -3.623246e-09 -3.551023e-09 -3.229741e-09 -2.845910e-09 -2.093157e-09 -1.107361e-09 4.598900e-10 2.565925e-09 5.614765e-09 9.708338e-09 1.531665e-08 2.273437e-08 3.248842e-08 4.508717e-08 6.105913e-08 8.108632e-08 1.055664e-07 1.352219e-07 1.700922e-07 2.107081e-07 2.564490e-07 3.073688e-07 3.618939e-07 4.193751e-07 4.771408e-07 5.338288e-07 5.858192e-07 6.313726e-07 6.664406e-07 6.896028e-07 6.971931e-07 6.890196e-07 6.626827e-07 6.200955e-07 5.608634e-07 4.897151e-07 4.089038e-07 3.267980e-07 2.494784e-07 1.908963e-07 1.641658e-07 1.938461e-07 3.078141e-07 5.523210e-07 9.856188e-07 1.696328e-06 2.799844e-06 4.459825e-06 6.887220e-06 1.036266e-05 1.523504e-05 2.193868e-05 3.098368e-05 4.295616e-05 5.848792e-05 7.822403e-05 1.027588e-04 1.325587e-04 1.678627e-04 2.085661e-04 2.541122e-04 3.033747e-04 3.546056e-04 4.053897e-04 4.527348e-04 4.931771e-04 5.230702e-04 5.388604e-04 5.375289e-04 5.169385e-04 4.762493e-04 4.161280e-04 3.388925e-04 2.483846e-04 1.496982e-04 4.868886e-05 -4.861471e-05 -1.366454e-04 -2.108826e-04 -2.682881e-04 -3.075505e-04 -3.290915e-04 -3.348507e-04 -3.279021e-04 -3.119443e-04 -2.907930e-04 -2.678912e-04 -2.459740e-04 -2.268453e-04 -2.113591e-04 -1.995054e-04 -1.906401e-04 -1.837395e-04 -1.776845e-04 -1.714853e-04 -1.644454e-04 -1.562351e-04 -1.468804e-04 -1.366956e-04 -1.261610e-04 -1.158111e-04 -1.061117e-04 -9.739668e-05 -8.981757e-05 -8.336124e-05 -7.787187e-05 -7.311767e-05 -6.883842e-05 -6.480661e-05 -6.085379e-05 -5.689307e-05 -5.290972e-05 -4.894857e-05 -4.508531e-05 -4.140371e-05 -3.797256e-05 -3.483400e-05 -3.199856e-05 -2.944902e-05 -2.714899e-05 -2.505342e-05 -2.311879e-05 -2.130985e-05 -1.960360e-05 -1.798879e-05 -1.646385e-05 -1.503245e-05 -1.369997e-05 -1.246987e-05 -1.134233e-05 -1.031344e-05 -9.376304e-06 -8.521956e-06 -7.741228e-06 -7.025490e-06 -6.367781e-06 -5.762602e-06 -5.206056e-06 -4.695123e-06 -4.227390e-06 -3.800513e-06 -3.412044e-06 -3.059358e-06 -2.739641e-06 -2.450129e-06 -2.188071e-06 -1.951019e-06 -1.736679e-06 -1.543100e-06 -1.368488e-06 -1.211270e-06 -1.069998e-06 -9.433025e-07 -8.299561e-07 -7.287065e-07 -6.385132e-07 -5.582366e-07 -4.870255e-07 -4.238674e-07 -3.680892e-07 -3.188072e-07 -2.754947e-07 -2.373893e-07 -2.040734e-07 -1.749005e-07 -1.495298e-07 -1.274295e-07 -1.083100e-07 -9.175322e-08 -7.750038e-08 -6.524345e-08 -5.473921e-08 -4.578131e-08 -3.813271e-08 -3.167649e-08 -2.617817e-08 -2.159477e-08 -1.769576e-08 -1.449478e-08 -1.176991e-08 -9.573701e-09 -7.699037e-09 -6.220921e-09 -4.952971e-09 -3.978738e-09 -3.137083e-09 -2.509497e-09 -1.962507e-09 -1.568427e-09 -1.221673e-09 -9.814640e-10 -7.684681e-10 -6.274489e-10 -5.023779e-10 -4.240200e-10 -3.560118e-10 -3.166619e-10 -2.855085e-10 -2.703955e-10 -2.632835e-10 -2.635826e-10 -2.727383e-10 -2.834747e-10 -3.044605e-10 -3.230748e-10 -3.536240e-10 -3.790184e-10 -4.182658e-10 -4.502063e-10 -4.981741e-10 -5.369182e-10 -5.942073e-10 -6.402922e-10 -7.078832e-10 -7.619788e-10 -8.410889e-10 -9.039018e-10 -9.958783e-10 -1.068064e-09 -1.174275e-09 -1.256334e-09 -1.378033e-09 -1.470174e-09 -1.608320e-09 -1.710277e-09 -1.865286e-09 -1.976076e-09 -2.147492e-09 -2.265079e-09 -2.451090e-09 -2.571897e-09 
-2.916560e-09 -3.056996e-09 -3.293679e-09 -3.422753e-09 -3.651516e-09 -3.747707e-09 -3.937599e-09 -3.958112e-09 -4.046183e-09 -3.903652e-09 -3.761533e-09 -3.277970e-09 -2.648657e-09 -1.471673e-09 1.396356e-10 2.674181e-09 6.167986e-09 1.123293e-08 1.813583e-08 2.764448e-08 4.033139e-08 5.712069e-08 7.891667e-08 1.067186e-07 1.416793e-07 1.846527e-07 2.367900e-07 2.984040e-07 3.702134e-07 4.514546e-07 5.418826e-07 6.391280e-07 7.415533e-07 8.449127e-07 9.461340e-07 1.039359e-06 1.120666e-06 1.183526e-06 1.224412e-06 1.237614e-06 1.221630e-06 1.173189e-06 1.094370e-06 9.856564e-07 8.538818e-07 7.042946e-07 5.496902e-07 4.017791e-07 2.821891e-07 2.139194e-07 2.352077e-07 3.924121e-07 7.579749e-07 1.426485e-06 2.537876e-06 4.278166e-06 6.907962e-06 1.076748e-05 1.630727e-05 2.409247e-05 3.482628e-05 4.934068e-05 6.859424e-05 9.362814e-05 1.255126e-04 1.652460e-04 2.136285e-04 2.710992e-04 3.375443e-04 4.121120e-04 4.930178e-04 5.774412e-04 6.614501e-04 7.401272e-04 8.077473e-04 8.582361e-04 8.856410e-04 8.848584e-04 8.522351e-04 7.862671e-04 6.879780e-04 5.611680e-04 4.122194e-04 2.496376e-04 8.322758e-05 -7.690967e-05 -2.214572e-04 -3.428774e-04 -4.361542e-04 -4.991997e-04 -5.328573e-04 -5.405204e-04 -5.274676e-04 -4.999886e-04 -4.645125e-04 -4.267840e-04 -3.912973e-04 -3.609389e-04 -3.369681e-04 -3.191899e-04 -3.063575e-04 -2.966230e-04 -2.880234e-04 -2.788645e-04 -2.679915e-04 -2.549030e-04 -2.397172e-04 -2.230423e-04 -2.057584e-04 -1.888156e-04 -1.730261e-04 -1.589527e-04 -1.468335e-04 -1.366139e-04 -1.279968e-04 -1.205586e-04 -1.138392e-04 -1.074444e-04 -1.010938e-04 -9.465330e-05 -8.811778e-05 -8.158340e-05 -7.519690e-05 -6.911286e-05 -6.345474e-05 -5.829460e-05 -5.364671e-05 -4.947584e-05 -4.571406e-05 -4.228015e-05 -3.909784e-05 -3.610758e-05 -3.327270e-05 -3.057798e-05 -2.802489e-05 -2.562352e-05 -2.338576e-05 -2.131918e-05 -1.942461e-05 -1.769523e-05 -1.611870e-05 -1.467924e-05 -1.336091e-05 -1.214911e-05 -1.103234e-05 -1.000193e-05 -9.051932e-06 -8.177919e-06 -7.376308e-06 -6.643522e-06 -5.975600e-06 -5.368207e-06 -4.816590e-06 -4.316084e-06 -3.862051e-06 -3.450399e-06 -3.077316e-06 -2.739592e-06 -2.434265e-06 -2.158760e-06 -1.910663e-06 -1.687710e-06 -1.487816e-06 -1.308896e-06 -1.149148e-06 -1.006678e-06 -8.799879e-07 -7.674035e-07 -6.677196e-07 -5.794809e-07 -5.017238e-07 -4.331952e-07 -3.731141e-07 -3.204170e-07 -2.744571e-07 -2.343559e-07 -1.995630e-07 -1.693820e-07 -1.433281e-07 -1.208790e-07 -1.015919e-07 -8.510434e-08 -7.099971e-08 -5.905539e-08 -4.887379e-08 -4.034815e-08 -3.309961e-08 -2.711088e-08 -2.202647e-08 -1.789193e-08 -1.438198e-08 -1.158040e-08 -9.198799e-09 -7.338412e-09 -5.752505e-09 -4.543890e-09 -3.509495e-09 -2.742930e-09 -2.083879e-09 -1.610595e-09 -1.202199e-09 -9.191252e-10 -6.749847e-10 -5.125468e-10 -3.741937e-10 -2.867670e-10 -2.156878e-10 -1.743069e-10 -1.458784e-10 -1.328219e-10 -1.318714e-10 -1.367631e-10 -1.543532e-10 -1.714597e-10 -2.026748e-10 -2.290969e-10 -2.715681e-10 -3.060899e-10 -3.590321e-10 -4.014073e-10 -4.650347e-10 -5.155820e-10 -5.907479e-10 -6.500890e-10 -7.380584e-10 -8.069702e-10 -9.092672e-10 -9.885616e-10 -1.106835e-09 -1.197245e-09 -1.333130e-09 -1.435162e-09 -1.590084e-09 -1.703833e-09 -1.878754e-09 -2.003630e-09 -2.198678e-09 -2.333027e-09 -2.546931e-09 -2.687407e-09 
-2.857003e-09 -2.989936e-09 -3.229739e-09 -3.345009e-09 -3.569369e-09 -3.636680e-09 -3.800859e-09 -3.755466e-09 -3.762479e-09 -3.464796e-09 -3.107318e-09 -2.262249e-09 -1.111676e-09 8.791345e-10 3.665653e-09 7.947528e-09 1.392589e-08 2.254288e-08 3.437748e-08 5.069054e-08 7.255904e-08 1.015848e-07 1.393771e-07 1.877585e-07 2.487120e-07 3.239124e-07 4.152603e-07 5.235970e-07 6.499599e-07 7.934085e-07 9.531496e-07 1.125505e-06 1.307057e-06 1.490879e-06 1.670818e-06 1.837141e-06 1.981974e-06 2.094454e-06 2.167195e-06 2.190878e-06 2.161527e-06 2.074291e-06 1.931342e-06 1.734598e-06 1.494305e-06 1.220667e-06 9.336385e-07 6.539472e-07 4.151762e-07 2.554183e-07 2.332953e-07 4.223005e-07 9.328545e-07 1.911992e-06 3.573504e-06 6.205235e-06 1.020785e-05 1.610913e-05 2.460717e-05 3.658387e-05 5.313851e-05 7.558033e-05 1.054241e-04 1.443278e-04 1.940096e-04 2.560928e-04 3.319087e-04 4.222364e-04 5.269986e-04 6.449553e-04 7.733874e-04 9.079073e-04 1.042329e-03 1.168834e-03 1.278257e-03 1.360787e-03 1.406749e-03 1.407761e-03 1.357751e-03 1.254099e-03 1.098306e-03 8.964102e-04 6.587090e-04 3.990030e-04 1.332509e-04 -1.220968e-04 -3.518896e-04 -5.439282e-04 -6.901924e-04 -7.875006e-04 -8.374949e-04 -8.459840e-04 -8.218148e-04 -7.754092e-04 -7.173089e-04 -6.568232e-04 -6.011040e-04 -5.545932e-04 -5.190186e-04 -4.937256e-04 -4.763710e-04 -4.636982e-04 -4.523501e-04 -4.395059e-04 -4.233141e-04 -4.030581e-04 -3.790753e-04 -3.525101e-04 -3.249370e-04 -2.980030e-04 -2.730856e-04 -2.511033e-04 -2.324087e-04 -2.168471e-04 -2.038641e-04 -1.927022e-04 -1.825665e-04 -1.727919e-04 -1.629264e-04 -1.527753e-04 -1.423685e-04 -1.319032e-04 -1.216554e-04 -1.119030e-04 -1.028609e-04 -9.464772e-05 -8.727847e-05 -8.068254e-05 -7.473526e-05 -6.929322e-05 -6.422603e-05 -5.943618e-05 -5.486804e-05 -5.050407e-05 -4.635479e-05 -4.244408e-05 -3.879668e-05 -3.542792e-05 -3.233978e-05 -2.952033e-05 -2.694774e-05 -2.459476e-05 -2.243425e-05 -2.044226e-05 -1.860049e-05 -1.689590e-05 -1.532001e-05 -1.386685e-05 -1.253149e-05 -1.130870e-05 -1.019230e-05 -9.175280e-06 -8.249840e-06 -7.408291e-06 -6.643051e-06 -5.947479e-06 -5.315468e-06 -4.741909e-06 -4.222110e-06 -3.751981e-06 -3.327650e-06 -2.945477e-06 -2.602042e-06 -2.293957e-06 -2.018220e-06 -1.771751e-06 -1.552020e-06 -1.356319e-06 -1.182582e-06 -1.028464e-06 -8.922845e-07 -7.720217e-07 -6.662907e-07 -5.733703e-07 -4.921006e-07 -4.210505e-07 -3.592326e-07 -3.054986e-07 -2.589894e-07 -2.188248e-07 -1.842379e-07 -1.545931e-07 -1.291901e-07 -1.076071e-07 -8.919641e-08 -7.371381e-08 -6.056032e-08 -4.963057e-08 -4.037689e-08 -3.279406e-08 -2.639161e-08 -2.122895e-08 -1.687866e-08 -1.343479e-08 -1.053659e-08 -8.289675e-09 -6.400159e-09 -4.969242e-09 -3.766544e-09 -2.879312e-09 -2.134417e-09 -1.600706e-09 -1.154244e-09 -8.446522e-10 -5.884415e-10 -4.174128e-10 -2.800506e-10 -1.928059e-10 -1.286021e-10 -9.130248e-11 -7.205745e-11 -6.464208e-11 -7.366158e-11 -8.480374e-11 -1.127344e-10 -1.364397e-10 -1.784781e-10 -2.118825e-10 -2.659639e-10 -3.079755e-10 -3.736673e-10 -4.241718e-10 -5.020145e-10 -5.614024e-10 -6.525172e-10 -7.214232e-10 -8.272738e-10 -9.063990e-10 -1.028615e-09 -1.118586e-09 -1.258807e-09 -1.360016e-09 -1.519684e-09 -1.632086e-09 -1.812174e-09 -1.934998e-09 -2.135607e-09 -2.266909e-09 -2.486594e-09 -2.622462e-09 
-3.016813e-09 -3.172465e-09 -3.448868e-09 -3.584011e-09 -3.839421e-09 -3.909713e-09 -4.076606e-09 -3.980443e-09 -3.904073e-09 -3.412685e-09 -2.750489e-09 -1.367620e-09 6.039443e-10 3.900115e-09 8.623168e-09 1.580756e-08 2.596823e-08 4.058935e-08 6.081808e-08 8.874208e-08 1.263396e-07 1.763665e-07 2.416820e-07 3.255284e-07 4.313597e-07 5.622855e-07 7.215444e-07 9.109277e-07 1.132068e-06 1.383770e-06 1.664326e-06 1.967840e-06 2.287812e-06 2.612692e-06 2.930931e-06 3.226047e-06 3.483182e-06 3.683854e-06 3.813794e-06 3.857281e-06 3.805817e-06 3.651658e-06 3.396903e-06 3.045784e-06 2.614134e-06 2.120398e-06 1.596191e-06 1.076831e-06 6.146778e-07 2.711143e-07 1.353318e-07 3.209179e-07 9.934981e-07 2.375986e-06 4.788525e-06 8.665903e-06 1.461113e-05 2.342433e-05 3.616432e-05 5.417745e-05 7.914665e-05 1.130897e-04 1.583526e-04 2.175244e-04 2.933115e-04 3.883060e-04 5.046836e-04 6.437984e-04 8.057081e-04 9.886768e-04 1.188670e-03 1.399016e-03 1.610179e-03 1.809971e-03 1.983975e-03 2.116621e-03 2.192428e-03 2.197836e-03 2.122889e-03 1.963082e-03 1.720517e-03 1.404614e-03 1.031711e-03 6.238599e-04 2.066508e-04 -1.935162e-04 -5.523681e-04 -8.504618e-04 -1.075193e-03 -1.221844e-03 -1.293529e-03 -1.300069e-03 -1.256102e-03 -1.178661e-03 -1.084782e-03 -9.893122e-04 -9.034255e-04 -8.337862e-04 -7.825947e-04 -7.482093e-04 -7.263248e-04 -7.112912e-04 -6.974529e-04 -6.801912e-04 -6.566010e-04 -6.257222e-04 -5.883584e-04 -5.466225e-04 -5.032859e-04 -4.611623e-04 -4.225478e-04 -3.889099e-04 -3.607400e-04 -3.376676e-04 -3.186710e-04 -3.024144e-04 -2.875421e-04 -2.729503e-04 -2.579263e-04 -2.422049e-04 -2.259047e-04 -2.094163e-04 -1.932484e-04 -1.778915e-04 -1.637117e-04 -1.508978e-04 -1.394565e-04 -1.292480e-04 -1.200460e-04 -1.116001e-04 -1.036907e-04 -9.616139e-05 -8.893169e-05 -8.198737e-05 -7.536052e-05 -6.910291e-05 -6.326345e-05 -5.787152e-05 -5.293072e-05 -4.841969e-05 -4.429988e-05 -4.052447e-05 -3.704790e-05 -3.383154e-05 -3.084709e-05 -2.807579e-05 -2.550641e-05 -2.313165e-05 -2.094522e-05 -1.893980e-05 -1.710585e-05 -1.543217e-05 -1.390607e-05 -1.251506e-05 -1.124696e-05 -1.009121e-05 -9.038267e-06 -8.080185e-06 -7.209726e-06 -6.420551e-06 -5.706588e-06 -5.062089e-06 -4.481558e-06 -3.959583e-06 -3.491254e-06 -3.071648e-06 -2.696592e-06 -2.361770e-06 -2.063734e-06 -1.798755e-06 -1.563984e-06 -1.356202e-06 -1.173023e-06 -1.011695e-06 -8.701989e-07 -7.462295e-07 -6.380661e-07 -5.438365e-07 -4.620557e-07 -3.912593e-07 -3.301445e-07 -2.776165e-07 -2.325142e-07 -1.940653e-07 -1.612252e-07 -1.334914e-07 -1.099242e-07 -9.023435e-08 -7.358473e-08 -5.984405e-08 -4.827971e-08 -3.886786e-08 -3.098259e-08 -2.466494e-08 -1.939538e-08 -1.524683e-08 -1.180189e-08 -9.142073e-09 -6.943791e-09 -5.282548e-09 -3.917179e-09 -2.909396e-09 -2.087381e-09 -1.496167e-09 -1.019934e-09 -6.872157e-10 -4.257234e-10 -2.492586e-10 -1.182698e-10 -3.416942e-11 1.860038e-11 4.876327e-11 5.452038e-11 5.288891e-11 2.940296e-11 8.103978e-12 -3.513382e-11 -6.990561e-11 -1.283477e-10 -1.737778e-10 -2.457610e-10 -3.009033e-10 -3.864458e-10 -4.513613e-10 -5.514673e-10 -6.267444e-10 -7.430095e-10 -8.294814e-10 -9.638427e-10 -1.062395e-09 -1.216941e-09 -1.328331e-09 -1.505080e-09 -1.629711e-09 -1.830321e-09 -1.967926e-09 -2.193228e-09 -2.342302e-09 -2.591441e-09 -2.748144e-09 
-2.981558e-09 -3.128398e-09 -3.404366e-09 -3.515892e-09 -3.749314e-09 -3.756599e-09 -3.840874e-09 -3.580042e-09 -3.263513e-09 -2.356564e-09 -1.070812e-09 1.314899e-09 4.786656e-09 1.038285e-08 1.848821e-08 3.066545e-08 4.799435e-08 7.284200e-08 1.073503e-07 1.549832e-07 2.192780e-07 3.049424e-07 4.169881e-07 5.610939e-07 7.432456e-07 9.690610e-07 1.244089e-06 1.571855e-06 1.955037e-06 2.392160e-06 2.879963e-06 3.408931e-06 3.967251e-06 4.535595e-06 5.093036e-06 5.611574e-06 6.064120e-06 6.419051e-06 6.649920e-06 6.729841e-06 6.642138e-06 6.373881e-06 5.926623e-06 5.308321e-06 4.543896e-06 3.665432e-06 2.723550e-06 1.777137e-06 9.081466e-07 2.138959e-07 -1.705133e-07 -7.245908e-08 7.536321e-07 2.639658e-06 6.057825e-06 1.165314e-05 2.031860e-05 3.324632e-05 5.201654e-05 7.865083e-05 1.156856e-04 1.661820e-04 2.337197e-04 3.222818e-04 4.360719e-04 5.791732e-04 7.550939e-04 9.661470e-04 1.212719e-03 1.492477e-03 1.799569e-03 2.124032e-03 2.451404e-03 2.762954e-03 3.036312e-03 3.247065e-03 3.370719e-03 3.385563e-03 3.275408e-03 3.032572e-03 2.659843e-03 2.171696e-03 1.593752e-03 9.608744e-04 3.136853e-04 -3.058593e-04 -8.592490e-04 -1.315812e-03 -1.655969e-03 -1.872888e-03 -1.972337e-03 -1.970767e-03 -1.892182e-03 -1.764162e-03 -1.613957e-03 -1.464983e-03 -1.334459e-03 -1.232170e-03 -1.160633e-03 -1.116234e-03 -1.091217e-03 -1.075905e-03 -1.060883e-03 -1.038685e-03 -1.004838e-03 -9.581655e-04 -9.004077e-04 -8.353995e-04 -7.679575e-04 -7.028313e-04 -6.437962e-04 -5.931521e-04 -5.515327e-04 -5.181248e-04 -4.910691e-04 -4.680360e-04 -4.467366e-04 -4.253631e-04 -4.028140e-04 -3.787589e-04 -3.535149e-04 -3.278339e-04 -3.026359e-04 -2.787740e-04 -2.568603e-04 -2.371854e-04 -2.197229e-04 -2.042011e-04 -1.902121e-04 -1.773229e-04 -1.651681e-04 -1.535020e-04 -1.422142e-04 -1.313084e-04 -1.208633e-04 -1.109845e-04 -1.017652e-04 -9.325883e-05 -8.547042e-05 -7.836085e-05 -7.186190e-05 -6.589340e-05 -6.037961e-05 -5.525913e-05 -5.048943e-05 -4.604496e-05 -4.191237e-05 -3.808415e-05 -3.455319e-05 -3.130948e-05 -2.833845e-05 -2.562217e-05 -2.314018e-05 -2.087235e-05 -1.879938e-05 -1.690475e-05 -1.517386e-05 -1.359465e-05 -1.215623e-05 -1.084895e-05 -9.663480e-06 -8.590866e-06 -7.622418e-06 -6.749582e-06 -5.964485e-06 -5.259342e-06 -4.627408e-06 -4.061886e-06 -3.557154e-06 -3.107340e-06 -2.707737e-06 -2.353255e-06 -2.039901e-06 -1.763293e-06 -1.520024e-06 -1.306395e-06 -1.119493e-06 -9.562804e-07 -8.142546e-07 -6.909947e-07 -5.843305e-07 -4.923990e-07 -4.132983e-07 -3.456530e-07 -2.877871e-07 -2.387350e-07 -1.970224e-07 -1.620126e-07 -1.324206e-07 -1.078599e-07 -8.722817e-08 -7.031764e-08 -5.620299e-08 -4.479454e-08 -3.533601e-08 -2.780827e-08 -2.161159e-08 -1.676306e-08 -1.280275e-08 -9.761179e-09 -7.298461e-09 -5.444960e-09 -3.959840e-09 -2.866331e-09 -2.002246e-09 -1.380955e-09 -9.004538e-10 -5.639293e-10 -3.139156e-10 -1.442438e-10 -2.950237e-11 4.469836e-11 8.108887e-11 1.012432e-10 9.179886e-11 8.083053e-11 4.312225e-11 1.299713e-11 -4.421474e-11 -8.773643e-11 -1.607088e-10 -2.152421e-10 -3.030272e-10 -3.679549e-10 -4.711478e-10 -5.467371e-10 -6.667918e-10 -7.537116e-10 -8.925445e-10 -9.915742e-10 -1.151311e-09 -1.263109e-09 -1.445827e-09 -1.570670e-09 -1.778065e-09 -1.915460e-09 -2.148284e-09 -2.296239e-09 -2.553153e-09 -2.706585e-09 
-3.152662e-09 -3.318574e-09 -3.623992e-09 -3.739308e-09 -3.975381e-09 -3.932241e-09 -3.929287e-09 -3.462226e-09 -2.809274e-09 -1.293766e-09 9.519432e-10 4.907611e-09 1.078397e-08 2.009556e-08 3.372921e-08 5.410164e-08 8.327037e-08 1.250545e-07 1.832989e-07 2.637575e-07 3.726260e-07 5.178903e-07 7.082344e-07 9.534655e-07 1.263907e-06 1.649478e-06 2.119726e-06 2.681233e-06 3.338570e-06 4.089966e-06 4.929669e-06 5.842216e-06 6.806871e-06 7.791234e-06 8.758409e-06 9.660799e-06 1.045028e-05 1.107264e-05 1.148027e-05 1.162687e-05 1.148127e-05 1.102127e-05 1.024689e-05 9.172015e-06 7.836342e-06 6.294477e-06 4.627999e-06 2.933912e-06 1.340842e-06 1.610439e-09 -8.798840e-07 -1.044474e-06 -1.317876e-07 2.345000e-06 7.072852e-06 1.499372e-05 2.741078e-05 4.607310e-05 7.330504e-05 1.120979e-04 1.662211e-04 2.402543e-04 3.395867e-04 4.702673e-04 6.387432e-04 8.513695e-04 1.113735e-03 1.429728e-03 1.800424e-03 2.222844e-03 2.688688e-03 3.183338e-03 3.685178e-03 4.165799e-03 4.590894e-03 4.922591e-03 5.122498e-03 5.156139e-03 4.997365e-03 4.633155e-03 4.066923e-03 3.320603e-03 2.433961e-03 1.461639e-03 4.676017e-04 -4.819799e-04 -1.326474e-03 -2.017880e-03 -2.526074e-03 -2.841398e-03 -2.974309e-03 -2.952159e-03 -2.814013e-03 -2.604182e-03 -2.365893e-03 -2.135720e-03 -1.939882e-03 -1.792432e-03 -1.695693e-03 -1.642293e-03 -1.618505e-03 -1.607939e-03 -1.595091e-03 -1.568037e-03 -1.520019e-03 -1.449811e-03 -1.360959e-03 -1.260319e-03 -1.156167e-03 -1.056433e-03 -9.672454e-04 -8.921403e-04 -8.318326e-04 -7.846378e-04 -7.472125e-04 -7.155337e-04 -6.857733e-04 -6.550078e-04 -6.215706e-04 -5.851133e-04 -5.463643e-04 -5.067377e-04 -4.678709e-04 -4.312255e-04 -3.978066e-04 -3.680437e-04 -3.418209e-04 -3.186173e-04 -2.977042e-04 -2.783395e-04 -2.599221e-04 -2.420743e-04 -2.246570e-04 -2.077251e-04 -1.914515e-04 -1.760427e-04 -1.616701e-04 -1.484271e-04 -1.363175e-04 -1.252682e-04 -1.151584e-04 -1.058510e-04 -9.722146e-05 -8.917358e-05 -8.164568e-05 -7.460553e-05 -6.804050e-05 -6.194590e-05 -5.631535e-05 -5.113554e-05 -4.638412e-05 -4.203234e-05 -3.804728e-05 -3.439672e-05 -3.105049e-05 -2.798319e-05 -2.517296e-05 -2.260200e-05 -2.025426e-05 -1.811539e-05 -1.617129e-05 -1.440817e-05 -1.281249e-05 -1.137088e-05 -1.007089e-05 -8.900362e-06 -7.848592e-06 -6.905007e-06 -6.060615e-06 -5.306273e-06 -4.634356e-06 -4.036895e-06 -3.507338e-06 -3.038775e-06 -2.625567e-06 -2.261831e-06 -1.942735e-06 -1.663392e-06 -1.419659e-06 -1.207582e-06 -1.023588e-06 -8.645646e-07 -7.274164e-07 -6.097650e-07 -5.089237e-07 -4.231366e-07 -3.500803e-07 -2.885058e-07 -2.364233e-07 -1.929785e-07 -1.564933e-07 -1.264067e-07 -1.013323e-07 -8.091588e-08 -6.404006e-08 -5.048926e-08 -3.938815e-08 -3.060892e-08 -2.348711e-08 -1.794730e-08 -1.350237e-08 -1.010612e-08 -7.415238e-09 -5.398394e-09 -3.824731e-09 -2.669383e-09 -1.786293e-09 -1.152307e-09 -6.831811e-10 -3.548159e-10 -1.266901e-10 2.779690e-11 1.189005e-10 1.767114e-10 1.906282e-10 1.950190e-10 1.644959e-10 1.384874e-10 8.032386e-11 3.541042e-11 -4.262363e-11 -1.012481e-10 -1.963504e-10 -2.668125e-10 -3.788710e-10 -4.609930e-10 -5.913681e-10 -6.858050e-10 -8.366683e-10 -9.444412e-10 -1.118413e-09 -1.240595e-09 -1.440427e-09 -1.577827e-09 -1.806024e-09 -1.958717e-09 -2.216823e-09 -2.383149e-09 -2.670149e-09 -2.844324e-09 