# vtk DataFile Version 2.0
Comment goes here
ASCII

DATASET STRUCTURED_POINTS
FIELD FieldData 1
TIME 1 1 double
0.25000000
DIMENSIONS    240   120   1

ORIGIN    0.000   0.000   0.000
SPACING   0.16667 0.16667   1.000

POINT_DATA   28800
VECTORS u double

-0.223581 0.098081 0.000000 -0.219351 0.102681 0.000000 -0.215010 0.107476 0.000000 -0.210551 0.112442 0.000000 -0.205978 0.117611 0.000000 -0.201283 0.122954 0.000000 -0.196471 0.128504 0.000000 -0.191537 0.134230 0.000000 -0.186481 0.140165 0.000000 -0.181302 0.146275 0.000000 -0.175998 0.152593 0.000000 -0.170573 0.159080 0.000000 -0.165017 0.165770 0.000000 -0.159341 0.172620 0.000000 -0.153530 0.179665 0.000000 -0.147600 0.186855 0.000000 -0.141530 0.194225 0.000000 -0.135340 0.201720 0.000000 -0.129005 0.209375 0.000000 -0.122550 0.217129 0.000000 -0.115940 0.225016 0.000000 -0.109207 0.232970 0.000000 -0.102309 0.241021 0.000000 -0.095282 0.249101 0.000000 -0.088074 0.257237 0.000000 -0.080729 0.265355 0.000000 -0.073181 0.273480 0.000000 -0.065481 0.281536 0.000000 -0.057553 0.289540 0.000000 -0.049451 0.297417 0.000000 -0.041087 0.305179 0.000000 -0.032521 0.312750 0.000000 -0.023649 0.320136 0.000000 -0.014539 0.327264 0.000000 -0.005071 0.334132 0.000000 0.004683 0.340672 0.000000 0.014856 0.346876 0.000000 0.025371 0.352682 0.000000 0.036376 0.358075 0.000000 0.047789 0.363003 0.000000 0.059769 0.367447 0.000000 0.072231 0.371363 0.000000 0.085342 0.374729 0.000000 0.099012 0.377516 0.000000 0.113411 0.379698 0.000000 0.128444 0.381261 0.000000 0.144281 0.382177 0.000000 0.160814 0.382449 0.000000 0.178209 0.382050 0.000000 0.196344 0.380999 0.000000 0.215370 0.379269 0.000000 0.235148 0.376896 0.000000 0.255806 0.373855 0.000000 0.277184 0.370195 0.000000 0.299376 0.365896 0.000000 0.322199 0.361017 0.000000 0.345707 0.355543 0.000000 0.369687 0.349542 0.000000 0.394146 0.343000 0.000000 0.418841 0.335995 0.000000 0.443728 0.328515 0.000000 0.468536 0.320642 0.000000 0.493165 0.312367 0.000000 0.517324 0.303777 0.000000 0.540863 0.294861 0.000000 0.563478 0.285709 0.000000 0.584980 0.276312 0.000000 0.605072 0.266761 0.000000 0.623535 0.257044 0.000000 0.640105 0.247256 0.000000 0.654553 0.237380 0.000000 0.666674 0.227512 0.000000 0.676254 0.217633 0.000000 0.683174 0.207836 0.000000 0.687257 0.198099 0.000000 0.688494 0.188513 0.000000 0.686765 0.179052 0.000000 0.682183 0.169802 0.000000 0.674698 0.160733 0.000000 0.664545 0.151926 0.000000 0.651741 0.143346 0.000000 0.636630 0.135067 0.000000 0.619283 0.127051 0.000000 0.600120 0.119365 0.000000 0.579250 0.111966 0.000000 0.557127 0.104914 0.000000 0.533870 0.098163 0.000000 0.509928 0.091764 0.000000 0.485408 0.085671 0.000000 0.460718 0.079927 0.000000 0.435935 0.074484 0.000000 0.411404 0.069378 0.000000 0.387167 0.064562 0.000000 0.363493 0.060064 0.000000 0.340390 0.055840 0.000000 0.318055 0.051911 0.000000 0.296469 0.048235 0.000000 0.275768 0.044827 0.000000 0.255911 0.041649 0.000000 0.236988 0.038710 0.000000 0.218942 0.035979 0.000000 0.201831 0.033456 0.000000 0.185585 0.031118 0.000000 0.170244 0.028960 0.000000 0.155723 0.026963 0.000000 0.142055 0.025122 0.000000 0.129142 0.023419 0.000000 0.117019 0.021848 0.000000 0.105571 0.020396 0.000000 0.094845 0.019055 0.000000 0.084710 0.017817 0.000000 0.075227 0.016670 0.000000 0.066252 0.015612 0.000000 0.057864 0.014631 0.000000 0.049906 0.013725 0.000000 0.042473 0.012883 0.000000 0.035400 0.012106 0.000000 0.028795 0.011382 0.000000 0.022487 0.010715 0.000000 0.016595 0.010091 0.000000 0.010944 0.009517 0.000000 0.005659 0.008980 0.000000 0.000565 0.008485 0.000000 -0.004209 0.008021 0.000000 -0.008837 0.007595 0.000000 -0.013190 0.007195 0.000000 -0.017435 0.006829 0.000000 -0.021447 0.006484 0.000000 -0.025387 0.006170 0.000000 -0.029132 0.005874 0.000000 -0.032836 0.005604 0.000000 -0.036382 0.005351 0.000000 -0.039914 0.005121 0.000000 -0.043323 0.004905 0.000000 -0.046742 0.004711 0.000000 -0.050070 0.004529 0.000000 -0.053428 0.004366 0.000000 -0.056727 0.004213 0.000000 -0.060072 0.004079 0.000000 -0.063386 0.003953 0.000000 -0.066760 0.003844 0.000000 -0.070131 0.003743 0.000000 -0.073570 0.003657 0.000000 -0.077032 0.003578 0.000000 -0.080568 0.003512 0.000000 -0.084150 0.003454 0.000000 -0.087808 0.003408 0.000000 -0.091535 0.003368 0.000000 -0.095336 0.003339 0.000000 -0.099225 0.003317 0.000000 -0.103184 0.003305 0.000000 -0.107247 0.003299 0.000000 -0.111374 0.003303 0.000000 -0.115618 0.003313 0.000000 -0.119917 0.003332 0.000000 -0.124343 0.003356 0.000000 -0.128813 0.003389 0.000000 -0.133415 0.003428 0.000000 -0.138049 0.003475 0.000000 -0.142817 0.003528 0.000000 -0.147603 0.003589 0.000000 -0.152520 0.003655 0.000000 -0.157439 0.003730 0.000000 -0.162483 0.003810 0.000000 -0.167512 0.003899 0.000000 -0.172655 0.003993 0.000000 -0.177766 0.004095 0.000000 -0.182974 0.004204 0.000000 -0.188133 0.004321 0.000000 -0.193369 0.004445 0.000000 -0.198537 0.004578 0.000000 -0.203760 0.004717 0.000000 -0.208897 0.004866 0.000000 -0.214062 0.005022 0.000000 -0.219121 0.005188 0.000000 -0.224182 0.005363 0.000000 -0.229119 0.005547 0.000000 -0.234029 0.005741 0.000000 -0.238796 0.005946 0.000000 -0.243507 0.006161 0.000000 -0.248059 0.006389 0.000000 -0.252528 0.006627 0.000000 -0.256821 0.006879 0.000000 -0.261005 0.007143 0.000000 -0.264999 0.007423 0.000000 -0.268860 0.007715 0.000000 -0.272522 0.008025 0.000000 -0.276028 0.008349 0.000000 -0.279327 0.008692 0.000000 -0.282452 0.009052 0.000000 -0.285365 0.009432 0.000000 -0.288091 0.009831 0.000000 -0.290601 0.010253 0.000000 -0.292915 0.010697 0.000000 -0.295014 0.011165 0.000000 -0.296911 0.011657 0.000000 -0.298596 0.012177 0.000000 -0.300078 0.012723 0.000000 -0.301353 0.013301 0.000000 -0.302426 0.013908 0.000000 -0.303301 0.014550 0.000000 -0.303979 0.015224 0.000000 -0.304468 0.015937 0.000000 -0.304766 0.016685 0.000000 -0.304887 0.017477 0.000000 -0.304826 0.018308 0.000000 -0.304600 0.019187 0.000000 -0.304200 0.020110 0.000000 -0.303648 0.021085 0.000000 -0.302933 0.022108 0.000000 -0.302077 0.023189 0.000000 -0.301068 0.024324 0.000000 -0.299930 0.025522 0.000000 -0.298650 0.026780 0.000000 -0.297250 0.028106 0.000000 -0.295716 0.029498 0.000000 -0.294072 0.030966 0.000000 -0.292302 0.032505 0.000000 -0.290430 0.034127 0.000000 -0.288439 0.035827 0.000000 -0.286351 0.037618 0.000000 -0.284150 0.039495 0.000000 -0.281857 0.041470 0.000000 -0.279454 0.043538 0.000000 -0.276962 0.045714 0.000000 -0.274363 0.047990 0.000000 -0.271677 0.050384 0.000000 -0.268885 0.052886 0.000000 -0.266005 0.055516 0.000000 -0.263020 0.058262 0.000000 -0.259947 0.061145 0.000000 -0.256767 0.064154 0.000000 -0.253497 0.067311 0.000000 -0.250119 0.070601 0.000000 -0.246647 0.074050 0.000000 -0.243065 0.077641 0.000000 -0.239386 0.081400 0.000000 -0.235594 0.085311 0.000000 -0.231702 0.089399 0.000000 -0.227694 0.093647 0.000000 
-0.219124 0.093818 0.000000 -0.214714 0.098303 0.000000 -0.210192 0.102982 0.000000 -0.205548 0.107831 0.000000 -0.200787 0.112881 0.000000 -0.195903 0.118104 0.000000 -0.190900 0.123533 0.000000 -0.185775 0.129137 0.000000 -0.180528 0.134951 0.000000 -0.175160 0.140938 0.000000 -0.169669 0.147133 0.000000 -0.164058 0.153496 0.000000 -0.158322 0.160064 0.000000 -0.152471 0.166790 0.000000 -0.146492 0.173712 0.000000 -0.140401 0.180777 0.000000 -0.134181 0.188022 0.000000 -0.127852 0.195391 0.000000 -0.121391 0.202920 0.000000 -0.114823 0.210545 0.000000 -0.108118 0.218301 0.000000 -0.101307 0.226120 0.000000 -0.094351 0.234035 0.000000 -0.087287 0.241972 0.000000 -0.080066 0.249960 0.000000 -0.072733 0.257922 0.000000 -0.065225 0.265884 0.000000 -0.057594 0.273764 0.000000 -0.049763 0.281583 0.000000 -0.041793 0.289258 0.000000 -0.033592 0.296805 0.000000 -0.025225 0.304140 0.000000 -0.016586 0.311271 0.000000 -0.007747 0.318119 0.000000 0.001415 0.324684 0.000000 0.010823 0.330890 0.000000 0.020616 0.336731 0.000000 0.030712 0.342139 0.000000 0.041265 0.347101 0.000000 0.052189 0.351558 0.000000 0.063651 0.355492 0.000000 0.075562 0.358858 0.000000 0.088097 0.361633 0.000000 0.101164 0.363787 0.000000 0.114944 0.365297 0.000000 0.129337 0.366149 0.000000 0.144525 0.366321 0.000000 0.160400 0.365818 0.000000 0.177136 0.364619 0.000000 0.194612 0.362752 0.000000 0.212988 0.360198 0.000000 0.232127 0.357003 0.000000 0.252163 0.353156 0.000000 0.272939 0.348719 0.000000 0.294557 0.343686 0.000000 0.316834 0.338137 0.000000 0.339830 0.332070 0.000000 0.363333 0.325578 0.000000 0.387355 0.318662 0.000000 0.411653 0.311425 0.000000 0.436188 0.303870 0.000000 0.460685 0.296107 0.000000 0.485051 0.288136 0.000000 0.508989 0.280070 0.000000 0.532354 0.271905 0.000000 0.554838 0.263751 0.000000 0.576250 0.255595 0.000000 0.596293 0.247543 0.000000 0.614745 0.239567 0.000000 0.631338 0.231765 0.000000 0.645841 0.224095 0.000000 0.658046 0.216642 0.000000 0.667733 0.209346 0.000000 0.674783 0.202280 0.000000 0.679012 0.195369 0.000000 0.680411 0.188674 0.000000 0.678853 0.182109 0.000000 0.674454 0.175725 0.000000 0.667154 0.169430 0.000000 0.657195 0.163273 0.000000 0.644585 0.157164 0.000000 0.629674 0.151150 0.000000 0.612528 0.145154 0.000000 0.593572 0.139226 0.000000 0.572908 0.133304 0.000000 0.550999 0.127444 0.000000 0.527957 0.121601 0.000000 0.504238 0.115835 0.000000 0.479942 0.110118 0.000000 0.455483 0.104507 0.000000 0.430933 0.098987 0.000000 0.406640 0.093613 0.000000 0.382638 0.088373 0.000000 0.359203 0.083313 0.000000 0.336334 0.078425 0.000000 0.314233 0.073742 0.000000 0.292874 0.069256 0.000000 0.272396 0.064989 0.000000 0.252753 0.060929 0.000000 0.234037 0.057091 0.000000 0.216189 0.053459 0.000000 0.199268 0.050043 0.000000 0.183202 0.046825 0.000000 0.168031 0.043811 0.000000 0.153672 0.040983 0.000000 0.140156 0.038343 0.000000 0.127386 0.035873 0.000000 0.115397 0.033574 0.000000 0.104075 0.031429 0.000000 0.093466 0.029435 0.000000 0.083441 0.027579 0.000000 0.074059 0.025856 0.000000 0.065181 0.024255 0.000000 0.056879 0.022768 0.000000 0.049005 0.021387 0.000000 0.041647 0.020105 0.000000 0.034647 0.018917 0.000000 0.028107 0.017812 0.000000 0.021863 0.016790 0.000000 0.016028 0.015840 0.000000 0.010432 0.014964 0.000000 0.005197 0.014149 0.000000 0.000151 0.013401 0.000000 -0.004580 0.012705 0.000000 -0.009166 0.012070 0.000000 -0.013480 0.011479 0.000000 -0.017689 0.010944 0.000000 -0.021668 0.010447 0.000000 -0.025576 0.010000 0.000000 -0.029292 0.009587 0.000000 -0.032969 0.009218 0.000000 -0.036490 0.008880 0.000000 -0.039999 0.008582 0.000000 -0.043387 0.008310 0.000000 -0.046785 0.008076 0.000000 -0.050096 0.007864 0.000000 -0.053437 0.007686 0.000000 -0.056721 0.007528 0.000000 -0.060052 0.007402 0.000000 -0.063354 0.007291 0.000000 -0.066717 0.007210 0.000000 -0.070078 0.007142 0.000000 -0.073508 0.007101 0.000000 -0.076962 0.007071 0.000000 -0.080491 0.007066 0.000000 -0.084068 0.007069 0.000000 -0.087721 0.007095 0.000000 -0.091443 0.007127 0.000000 -0.095240 0.007180 0.000000 -0.099125 0.007236 0.000000 -0.103081 0.007312 0.000000 -0.107142 0.007390 0.000000 -0.111266 0.007485 0.000000 -0.115508 0.007580 0.000000 -0.119806 0.007690 0.000000 -0.124230 0.007800 0.000000 -0.128698 0.007922 0.000000 -0.133299 0.008042 0.000000 -0.137932 0.008172 0.000000 -0.142699 0.008301 0.000000 -0.147483 0.008436 0.000000 -0.152399 0.008569 0.000000 -0.157317 0.008707 0.000000 -0.162359 0.008843 0.000000 -0.167388 0.008981 0.000000 -0.172528 0.009116 0.000000 -0.177638 0.009251 0.000000 -0.182844 0.009384 0.000000 -0.188001 0.009515 0.000000 -0.193235 0.009643 0.000000 -0.198402 0.009769 0.000000 -0.203622 0.009892 0.000000 -0.208756 0.010012 0.000000 -0.213918 0.010130 0.000000 -0.218975 0.010244 0.000000 -0.224031 0.010356 0.000000 -0.228965 0.010465 0.000000 -0.233869 0.010574 0.000000 -0.238632 0.010680 0.000000 -0.243337 0.010787 0.000000 -0.247883 0.010893 0.000000 -0.252343 0.011001 0.000000 -0.256629 0.011111 0.000000 -0.260803 0.011225 0.000000 -0.264789 0.011343 0.000000 -0.268638 0.011468 0.000000 -0.272288 0.011600 0.000000 -0.275780 0.011743 0.000000 -0.279065 0.011895 0.000000 -0.282174 0.012061 0.000000 -0.285069 0.012241 0.000000 -0.287776 0.012439 0.000000 -0.290266 0.012654 0.000000 -0.292557 0.012891 0.000000 -0.294632 0.013150 0.000000 -0.296503 0.013434 0.000000 -0.298161 0.013746 0.000000 -0.299613 0.014087 0.000000 -0.300857 0.014459 0.000000 -0.301897 0.014865 0.000000 -0.302737 0.015308 0.000000 -0.303377 0.015788 0.000000 -0.303827 0.016311 0.000000 -0.304084 0.016874 0.000000 -0.304161 0.017485 0.000000 -0.304054 0.018142 0.000000 -0.303780 0.018850 0.000000 -0.303329 0.019609 0.000000 -0.302724 0.020424 0.000000 -0.301953 0.021295 0.000000 -0.301039 0.022228 0.000000 -0.299970 0.023220 0.000000 -0.298768 0.024281 0.000000 -0.297421 0.025405 0.000000 -0.295952 0.026604 0.000000 -0.294345 0.027872 0.000000 -0.292626 0.029220 0.000000 -0.290777 0.030643 0.000000 -0.288823 0.032153 0.000000 -0.286746 0.033743 0.000000 -0.284569 0.035428 0.000000 -0.282275 0.037199 0.000000 -0.279885 0.039072 0.000000 -0.277382 0.041038 0.000000 -0.274785 0.043114 0.000000 -0.272078 0.045291 0.000000 -0.269278 0.047586 0.000000 -0.266369 0.049989 0.000000 -0.263367 0.052520 0.000000 -0.260256 0.055167 0.000000 -0.257051 0.057950 0.000000 -0.253736 0.060858 0.000000 -0.250325 0.063913 0.000000 -0.246802 0.067101 0.000000 -0.243181 0.070445 0.000000 -0.239444 0.073930 0.000000 -0.235607 0.077582 0.000000 -0.231652 0.081384 0.000000 -0.227592 0.085362 0.000000 -0.223412 0.089497 0.000000 
-0.214776 0.089383 0.000000 -0.210188 0.093749 0.000000 -0.205485 0.098309 0.000000 -0.200655 0.103037 0.000000 -0.195708 0.107966 0.000000 -0.190634 0.113067 0.000000 -0.185442 0.118376 0.000000 -0.180125 0.123858 0.000000 -0.174687 0.129550 0.000000 -0.169129 0.135415 0.000000 -0.163450 0.141491 0.000000 -0.157653 0.147733 0.000000 -0.151737 0.154183 0.000000 -0.145710 0.160790 0.000000 -0.139563 0.167596 0.000000 -0.133312 0.174544 0.000000 -0.126942 0.181676 0.000000 -0.120473 0.188930 0.000000 -0.113887 0.196346 0.000000 -0.107208 0.203856 0.000000 -0.100409 0.211500 0.000000 -0.093524 0.219203 0.000000 -0.086513 0.227001 0.000000 -0.079419 0.234817 0.000000 -0.072192 0.242682 0.000000 -0.064879 0.250514 0.000000 -0.057420 0.258340 0.000000 -0.049869 0.266074 0.000000 -0.042150 0.273739 0.000000 -0.034326 0.281245 0.000000 -0.026307 0.288611 0.000000 -0.018159 0.295745 0.000000 -0.009777 0.302658 0.000000 -0.001235 0.309262 0.000000 0.007592 0.315562 0.000000 0.016624 0.321471 0.000000 0.026002 0.326987 0.000000 0.035643 0.332033 0.000000 0.045705 0.336598 0.000000 0.056099 0.340617 0.000000 0.066999 0.344074 0.000000 0.078315 0.346917 0.000000 0.090229 0.349127 0.000000 0.102648 0.350670 0.000000 0.115762 0.351525 0.000000 0.129473 0.351679 0.000000 0.143971 0.351114 0.000000 0.159150 0.349838 0.000000 0.175193 0.347838 0.000000 0.191984 0.345147 0.000000 0.209689 0.341755 0.000000 0.228177 0.337721 0.000000 0.247590 0.333042 0.000000 0.267774 0.327800 0.000000 0.288838 0.322001 0.000000 0.310602 0.315745 0.000000 0.333133 0.309044 0.000000 0.356221 0.302016 0.000000 0.379883 0.294679 0.000000 0.403877 0.287162 0.000000 0.428165 0.279483 0.000000 0.452473 0.271779 0.000000 0.476709 0.264063 0.000000 0.500574 0.256474 0.000000 0.523919 0.249012 0.000000 0.546435 0.241812 0.000000 0.567927 0.234856 0.000000 0.588089 0.228267 0.000000 0.606696 0.222000 0.000000 0.623472 0.216159 0.000000 0.638179 0.210672 0.000000 0.650601 0.205619 0.000000 0.660512 0.200895 0.000000 0.667783 0.196557 0.000000 0.672225 0.192471 0.000000 0.673822 0.188672 0.000000 0.672444 0.185009 0.000000 0.668202 0.181501 0.000000 0.661037 0.177992 0.000000 0.651189 0.174495 0.000000 0.638670 0.170866 0.000000 0.623832 0.167125 0.000000 0.606746 0.163154 0.000000 0.587842 0.158985 0.000000 0.567230 0.154539 0.000000 0.545376 0.149865 0.000000 0.522399 0.144924 0.000000 0.498760 0.139779 0.000000 0.474562 0.134426 0.000000 0.450221 0.128936 0.000000 0.425810 0.123328 0.000000 0.401676 0.117672 0.000000 0.377853 0.111999 0.000000 0.354612 0.106368 0.000000 0.331952 0.100810 0.000000 0.310069 0.095371 0.000000 0.288934 0.090073 0.000000 0.268684 0.084948 0.000000 0.249269 0.080008 0.000000 0.230780 0.075274 0.000000 0.213152 0.070748 0.000000 0.196447 0.066444 0.000000 0.180589 0.062354 0.000000 0.165619 0.058490 0.000000 0.151450 0.054839 0.000000 0.138117 0.051407 0.000000 0.125519 0.048178 0.000000 0.113693 0.045158 0.000000 0.102522 0.042327 0.000000 0.092055 0.039689 0.000000 0.082161 0.037223 0.000000 0.072903 0.034931 0.000000 0.064135 0.032792 0.000000 0.055938 0.030807 0.000000 0.048157 0.028957 0.000000 0.040888 0.027241 0.000000 0.033965 0.025646 0.000000 0.027500 0.024166 0.000000 0.021321 0.022795 0.000000 0.015548 0.021523 0.000000 0.010008 0.020348 0.000000 0.004826 0.019260 0.000000 -0.000173 0.018262 0.000000 -0.004857 0.017338 0.000000 -0.009403 0.016496 0.000000 -0.013678 0.015719 0.000000 -0.017852 0.015016 0.000000 -0.021796 0.014371 0.000000 -0.025674 0.013794 0.000000 -0.029360 0.013266 0.000000 -0.033009 0.012802 0.000000 -0.036504 0.012381 0.000000 -0.039989 0.012018 0.000000 -0.043352 0.011692 0.000000 -0.046729 0.011420 0.000000 -0.050018 0.011180 0.000000 -0.053339 0.010991 0.000000 -0.056604 0.010828 0.000000 -0.059916 0.010712 0.000000 -0.063201 0.010618 0.000000 -0.066547 0.010568 0.000000 -0.069893 0.010534 0.000000 -0.073309 0.010541 0.000000 -0.076749 0.010561 0.000000 -0.080265 0.010618 0.000000 -0.083830 0.010683 0.000000 -0.087472 0.010783 0.000000 -0.091184 0.010887 0.000000 -0.094973 0.011022 0.000000 -0.098850 0.011158 0.000000 -0.102799 0.011322 0.000000 -0.106855 0.011484 0.000000 -0.110975 0.011670 0.000000 -0.115214 0.011852 0.000000 -0.119508 0.012053 0.000000 -0.123932 0.012248 0.000000 -0.128400 0.012459 0.000000 -0.133003 0.012661 0.000000 -0.137638 0.012874 0.000000 -0.142409 0.013079 0.000000 -0.147198 0.013289 0.000000 -0.152120 0.013489 0.000000 -0.157045 0.013690 0.000000 -0.162096 0.013880 0.000000 -0.167133 0.014068 0.000000 -0.172284 0.014243 0.000000 -0.177404 0.014411 0.000000 -0.182622 0.014567 0.000000 -0.187790 0.014713 0.000000 -0.193037 0.014846 0.000000 -0.198216 0.014965 0.000000 -0.203450 0.015071 0.000000 -0.208597 0.015162 0.000000 -0.213772 0.015241 0.000000 -0.218841 0.015302 0.000000 -0.223911 0.015352 0.000000 -0.228855 0.015385 0.000000 -0.233771 0.015408 0.000000 -0.238543 0.015414 0.000000 -0.243258 0.015413 0.000000 -0.247811 0.015396 0.000000 -0.252279 0.015374 0.000000 -0.256569 0.015339 0.000000 -0.260746 0.015303 0.000000 -0.264732 0.015258 0.000000 -0.268581 0.015214 0.000000 -0.272228 0.015167 0.000000 -0.275715 0.015126 0.000000 -0.278991 0.015086 0.000000 -0.282091 0.015056 0.000000 -0.284974 0.015034 0.000000 -0.287665 0.015028 0.000000 -0.290138 0.015035 0.000000 -0.292409 0.015063 0.000000 -0.294461 0.015111 0.000000 -0.296307 0.015186 0.000000 -0.297937 0.015287 0.000000 -0.299358 0.015420 0.000000 -0.300568 0.015585 0.000000 -0.301572 0.015788 0.000000 -0.302373 0.016030 0.000000 -0.302972 0.016314 0.000000 -0.303378 0.016643 0.000000 -0.303588 0.017020 0.000000 -0.303617 0.017447 0.000000 -0.303459 0.017926 0.000000 -0.303130 0.018462 0.000000 -0.302624 0.019054 0.000000 -0.301960 0.019709 0.000000 -0.301128 0.020424 0.000000 -0.300151 0.021206 0.000000 -0.299015 0.022053 0.000000 -0.297745 0.022973 0.000000 -0.296326 0.023963 0.000000 -0.294782 0.025031 0.000000 -0.293099 0.026172 0.000000 -0.291300 0.027398 0.000000 -0.289369 0.028702 0.000000 -0.287329 0.030096 0.000000 -0.285164 0.031573 0.000000 -0.282895 0.033147 0.000000 -0.280506 0.034810 0.000000 -0.278017 0.036577 0.000000 -0.275411 0.038438 0.000000 -0.272709 0.040410 0.000000 -0.269891 0.042483 0.000000 -0.266979 0.044675 0.000000 -0.263951 0.046976 0.000000 -0.260828 0.049403 0.000000 -0.257590 0.051946 0.000000 -0.254255 0.054625 0.000000 -0.250805 0.057428 0.000000 -0.247255 0.060377 0.000000 -0.243587 0.063457 0.000000 -0.239817 0.066692 0.000000 -0.235927 0.070067 0.000000 -0.231932 0.073608 0.000000 -0.227815 0.077296 0.000000 -0.223589 0.081160 0.000000 -0.219239 0.085179 0.000000 
-0.210555 0.084767 0.000000 -0.205790 0.089011 0.000000 -0.200907 0.093449 0.000000 -0.195893 0.098054 0.000000 -0.190760 0.102860 0.000000 -0.185498 0.107838 0.000000 -0.180116 0.113024 0.000000 -0.174608 0.118383 0.000000 -0.168980 0.123955 0.000000 -0.163230 0.129700 0.000000 -0.157363 0.135658 0.000000 -0.151381 0.141784 0.000000 -0.145284 0.148121 0.000000 -0.139079 0.154616 0.000000 -0.132764 0.161313 0.000000 -0.126350 0.168155 0.000000 -0.119830 0.175184 0.000000 -0.113221 0.182336 0.000000 -0.106509 0.189654 0.000000 -0.099720 0.197067 0.000000 -0.092829 0.204617 0.000000 -0.085869 0.212225 0.000000 -0.078808 0.219931 0.000000 -0.071686 0.227650 0.000000 -0.064456 0.235420 0.000000 -0.057170 0.243150 0.000000 -0.049767 0.250873 0.000000 -0.042305 0.258494 0.000000 -0.034709 0.266041 0.000000 -0.027045 0.273415 0.000000 -0.019222 0.280638 0.000000 -0.011312 0.287610 0.000000 -0.003206 0.294347 0.000000 0.005017 0.300750 0.000000 0.013484 0.306825 0.000000 0.022110 0.312480 0.000000 0.031044 0.317712 0.000000 0.040195 0.322437 0.000000 0.049729 0.326645 0.000000 0.059555 0.330263 0.000000 0.069853 0.333277 0.000000 0.080529 0.335628 0.000000 0.091779 0.337300 0.000000 0.103506 0.338254 0.000000 0.115912 0.338472 0.000000 0.128897 0.337940 0.000000 0.142666 0.336644 0.000000 0.157112 0.334595 0.000000 0.172433 0.331785 0.000000 0.188512 0.328255 0.000000 0.205530 0.324004 0.000000 0.223357 0.319102 0.000000 0.242149 0.313559 0.000000 0.261751 0.307471 0.000000 0.282287 0.300858 0.000000 0.303576 0.293842 0.000000 0.325696 0.286451 0.000000 0.348436 0.278828 0.000000 0.371822 0.271006 0.000000 0.395609 0.263144 0.000000 0.419764 0.255274 0.000000 0.444012 0.247563 0.000000 0.468261 0.240036 0.000000 0.492205 0.232860 0.000000 0.515696 0.226044 0.000000 0.538415 0.219744 0.000000 0.560162 0.213941 0.000000 0.580621 0.208773 0.000000 0.599558 0.204184 0.000000 0.616683 0.200282 0.000000 0.631751 0.196965 0.000000 0.644529 0.194309 0.000000 0.654781 0.192164 0.000000 0.662366 0.190567 0.000000 0.667085 0.189330 0.000000 0.668914 0.188455 0.000000 0.667715 0.187729 0.000000 0.663600 0.187131 0.000000 0.656502 0.186443 0.000000 0.646671 0.185639 0.000000 0.634117 0.184521 0.000000 0.619207 0.183075 0.000000 0.602013 0.181144 0.000000 0.582988 0.178742 0.000000 0.562240 0.175771 0.000000 0.540261 0.172275 0.000000 0.517169 0.168217 0.000000 0.493444 0.163672 0.000000 0.469187 0.158656 0.000000 0.444829 0.153259 0.000000 0.420436 0.147533 0.000000 0.396364 0.141569 0.000000 0.372637 0.135437 0.000000 0.349530 0.129214 0.000000 0.327030 0.122968 0.000000 0.305335 0.116760 0.000000 0.284405 0.110641 0.000000 0.264374 0.104654 0.000000 0.245187 0.098833 0.000000 0.226930 0.093207 0.000000 0.209539 0.087791 0.000000 0.193068 0.082606 0.000000 0.177442 0.077654 0.000000 0.162698 0.072950 0.000000 0.148752 0.068485 0.000000 0.135633 0.064274 0.000000 0.123242 0.060298 0.000000 0.111613 0.056570 0.000000 0.100633 0.053066 0.000000 0.090344 0.049796 0.000000 0.080619 0.046732 0.000000 0.071518 0.043883 0.000000 0.062899 0.041219 0.000000 0.054839 0.038746 0.000000 0.047187 0.036438 0.000000 0.040036 0.034297 0.000000 0.033225 0.032304 0.000000 0.026862 0.030456 0.000000 0.020780 0.028742 0.000000 0.015097 0.027153 0.000000 0.009641 0.025686 0.000000 0.004537 0.024329 0.000000 -0.000388 0.023085 0.000000 -0.005005 0.021936 0.000000 -0.009486 0.020890 0.000000 -0.013702 0.019928 0.000000 -0.017820 0.019062 0.000000 -0.021713 0.018269 0.000000 -0.025542 0.017564 0.000000 -0.029185 0.016922 0.000000 -0.032793 0.016363 0.000000 -0.036250 0.015859 0.000000 -0.039699 0.015430 0.000000 -0.043031 0.015051 0.000000 -0.046378 0.014741 0.000000 -0.049640 0.014474 0.000000 -0.052937 0.014272 0.000000 -0.056180 0.014105 0.000000 -0.059473 0.013999 0.000000 -0.062741 0.013922 0.000000 -0.066073 0.013902 0.000000 -0.069406 0.013903 0.000000 -0.072812 0.013958 0.000000 -0.076244 0.014028 0.000000 -0.079754 0.014147 0.000000 -0.083314 0.014276 0.000000 -0.086953 0.014449 0.000000 -0.090664 0.014627 0.000000 -0.094453 0.014846 0.000000 -0.098333 0.015063 0.000000 -0.102286 0.015317 0.000000 -0.106347 0.015565 0.000000 -0.110473 0.015844 0.000000 -0.114721 0.016114 0.000000 -0.119024 0.016408 0.000000 -0.123459 0.016692 0.000000 -0.127939 0.016993 0.000000 -0.132555 0.017280 0.000000 -0.137203 0.017578 0.000000 -0.141990 0.017861 0.000000 -0.146795 0.018147 0.000000 -0.151735 0.018416 0.000000 -0.156678 0.018683 0.000000 -0.161749 0.018930 0.000000 -0.166806 0.019169 0.000000 -0.171979 0.019387 0.000000 -0.177121 0.019589 0.000000 -0.182362 0.019770 0.000000 -0.187554 0.019931 0.000000 -0.192825 0.020069 0.000000 -0.198028 0.020182 0.000000 -0.203287 0.020273 0.000000 -0.208458 0.020334 0.000000 -0.213658 0.020374 0.000000 -0.218752 0.020383 0.000000 -0.223845 0.020370 0.000000 -0.228813 0.020326 0.000000 -0.233752 0.020262 0.000000 -0.238546 0.020167 0.000000 -0.243280 0.020055 0.000000 -0.247852 0.019913 0.000000 -0.252336 0.019759 0.000000 -0.256641 0.019578 0.000000 -0.260831 0.019389 0.000000 -0.264828 0.019178 0.000000 -0.268684 0.018964 0.000000 -0.272335 0.018734 0.000000 -0.275824 0.018506 0.000000 -0.279099 0.018271 0.000000 -0.282194 0.018043 0.000000 -0.285069 0.017815 0.000000 -0.287749 0.017603 0.000000 -0.290207 0.017398 0.000000 -0.292460 0.017214 0.000000 -0.294491 0.017048 0.000000 -0.296311 0.016910 0.000000 -0.297912 0.016796 0.000000 -0.299301 0.016718 0.000000 -0.300477 0.016674 0.000000 -0.301442 0.016670 0.000000 -0.302202 0.016708 0.000000 -0.302755 0.016793 0.000000 -0.303114 0.016927 0.000000 -0.303273 0.017113 0.000000 -0.303249 0.017355 0.000000 -0.303034 0.017654 0.000000 -0.302647 0.018015 0.000000 -0.302079 0.018438 0.000000 -0.301352 0.018929 0.000000 -0.300453 0.019485 0.000000 -0.299407 0.020115 0.000000 -0.298201 0.020814 0.000000 -0.296857 0.021592 0.000000 -0.295362 0.022443 0.000000 -0.293741 0.023377 0.000000 -0.291977 0.024390 0.000000 -0.290095 0.025490 0.000000 -0.288079 0.026672 0.000000 -0.285951 0.027947 0.000000 -0.283694 0.029309 0.000000 -0.281332 0.030770 0.000000 -0.278845 0.032321 0.000000 -0.276257 0.033977 0.000000 -0.273548 0.035730 0.000000 -0.270740 0.037594 0.000000 -0.267812 0.039560 0.000000 -0.264786 0.041645 0.000000 -0.261641 0.043839 0.000000 -0.258397 0.046159 0.000000 -0.255033 0.048594 0.000000 -0.251569 0.051165 0.000000 -0.247985 0.053858 0.000000 -0.244297 0.056695 0.000000 -0.240487 0.059663 0.000000 -0.236570 0.062785 0.000000 -0.232529 0.066045 0.000000 -0.228378 0.069470 0.000000 -0.224100 0.073040 0.000000 -0.219710 0.076785 0.000000 -0.215191 0.080684 0.000000 