# vtk DataFile Version 2.0
Comment goes here
ASCII

DATASET STRUCTURED_POINTS
FIELD FieldData 1
TIME 1 1 double
0.10000000
DIMENSIONS    240   120   1

ORIGIN    0.000   0.000   0.000
SPACING   0.16667 0.16667   1.000

POINT_DATA   28800
VECTORS u double

-0.108299 0.033800 0.000000 -0.106135 0.035505 0.000000 -0.103891 0.037300 0.000000 -0.101557 0.039166 0.000000 -0.099139 0.041128 0.000000 -0.096631 0.043166 0.000000 -0.094035 0.045306 0.000000 -0.091349 0.047525 0.000000 -0.088572 0.049852 0.000000 -0.085706 0.052261 0.000000 -0.082746 0.054782 0.000000 -0.079700 0.057387 0.000000 -0.076558 0.060108 0.000000 -0.073331 0.062915 0.000000 -0.070007 0.065839 0.000000 -0.066603 0.068847 0.000000 -0.063100 0.071973 0.000000 -0.059522 0.075181 0.000000 -0.055843 0.078502 0.000000 -0.052095 0.081901 0.000000 -0.048246 0.085408 0.000000 -0.044333 0.088983 0.000000 -0.040317 0.092658 0.000000 -0.036243 0.096389 0.000000 -0.032064 0.100205 0.000000 -0.027833 0.104063 0.000000 -0.023492 0.107987 0.000000 -0.019104 0.111935 0.000000 -0.014598 0.115925 0.000000 -0.010046 0.119915 0.000000 -0.005368 0.123921 0.000000 -0.000641 0.127899 0.000000 0.004226 0.131859 0.000000 0.009148 0.135763 0.000000 0.014230 0.139612 0.000000 0.019379 0.143371 0.000000 0.024712 0.147037 0.000000 0.030129 0.150579 0.000000 0.035763 0.153986 0.000000 0.041504 0.157234 0.000000 0.047498 0.160309 0.000000 0.053630 0.163191 0.000000 0.060056 0.165860 0.000000 0.066654 0.168308 0.000000 0.073590 0.170509 0.000000 0.080737 0.172464 0.000000 0.088264 0.174143 0.000000 0.096039 0.175558 0.000000 0.104234 0.176677 0.000000 0.112709 0.177520 0.000000 0.121635 0.178054 0.000000 0.130861 0.178308 0.000000 0.140556 0.178249 0.000000 0.150556 0.177914 0.000000 0.161021 0.177270 0.000000 0.171773 0.176359 0.000000 0.182957 0.175151 0.000000 0.194381 0.173693 0.000000 0.206168 0.171955 0.000000 0.218113 0.169987 0.000000 0.230311 0.167762 0.000000 0.242541 0.165331 0.000000 0.254864 0.162669 0.000000 0.267050 0.159826 0.000000 0.279121 0.156780 0.000000 0.290840 0.153582 0.000000 0.302186 0.150208 0.000000 0.312930 0.146710 0.000000 0.323004 0.143067 0.000000 0.332203 0.139327 0.000000 0.340416 0.135470 0.000000 0.347483 0.131544 0.000000 0.353260 0.127531 0.000000 0.357653 0.123476 0.000000 0.360501 0.119361 0.000000 0.361801 0.115231 0.000000 0.361390 0.111070 0.000000 0.359374 0.106921 0.000000 0.355606 0.102768 0.000000 0.350306 0.098654 0.000000 0.343356 0.094562 0.000000 0.335077 0.090533 0.000000 0.325379 0.086553 0.000000 0.314658 0.082658 0.000000 0.302847 0.078834 0.000000 0.290369 0.075114 0.000000 0.277168 0.071485 0.000000 0.263648 0.067973 0.000000 0.249757 0.064566 0.000000 0.235836 0.061287 0.000000 0.221834 0.058121 0.000000 0.208010 0.055087 0.000000 0.194314 0.052171 0.000000 0.180924 0.049386 0.000000 0.167800 0.046719 0.000000 0.155046 0.044180 0.000000 0.142644 0.041755 0.000000 0.130645 0.039452 0.000000 0.119047 0.037259 0.000000 0.107872 0.035180 0.000000 0.097128 0.033204 0.000000 0.086821 0.031334 0.000000 0.076955 0.029561 0.000000 0.067539 0.027885 0.000000 0.058555 0.026299 0.000000 0.050026 0.024800 0.000000 0.041899 0.023385 0.000000 0.034227 0.022049 0.000000 0.026914 0.020788 0.000000 0.020048 0.019599 0.000000 0.013493 0.018479 0.000000 0.007374 0.017422 0.000000 0.001517 0.016428 0.000000 -0.003912 0.015491 0.000000 -0.009124 0.014609 0.000000 -0.013918 0.013778 0.000000 -0.018530 0.012997 0.000000 -0.022738 0.012261 0.000000 -0.026795 0.011570 0.000000 -0.030464 0.010918 0.000000 -0.034009 0.010307 0.000000 -0.037188 0.009730 0.000000 -0.040266 0.009189 0.000000 -0.043002 0.008680 0.000000 -0.045658 0.008202 0.000000 -0.047998 0.007751 0.000000 -0.050276 0.007329 0.000000 -0.052265 0.006931 0.000000 -0.054205 0.006558 0.000000 -0.055884 0.006207 0.000000 -0.057526 0.005878 0.000000 -0.058934 0.005568 0.000000 -0.060317 0.005278 0.000000 -0.061492 0.005005 0.000000 -0.062652 0.004750 0.000000 -0.063631 0.004510 0.000000 -0.064603 0.004285 0.000000 -0.065422 0.004074 0.000000 -0.066240 0.003877 0.000000 -0.066933 0.003692 0.000000 -0.067629 0.003520 0.000000 -0.068229 0.003358 0.000000 -0.068833 0.003208 0.000000 -0.069370 0.003067 0.000000 -0.069911 0.002936 0.000000 -0.070416 0.002814 0.000000 -0.070920 0.002701 0.000000 -0.071418 0.002596 0.000000 -0.071911 0.002499 0.000000 -0.072428 0.002409 0.000000 -0.072934 0.002326 0.000000 -0.073492 0.002250 0.000000 -0.074032 0.002181 0.000000 -0.074650 0.002118 0.000000 -0.075244 0.002061 0.000000 -0.075941 0.002009 0.000000 -0.076606 0.001963 0.000000 -0.077395 0.001922 0.000000 -0.078146 0.001886 0.000000 -0.079037 0.001855 0.000000 -0.079885 0.001829 0.000000 -0.080886 0.001807 0.000000 -0.081841 0.001790 0.000000 -0.082955 0.001777 0.000000 -0.084020 0.001769 0.000000 -0.085247 0.001764 0.000000 -0.086423 0.001764 0.000000 -0.087760 0.001768 0.000000 -0.089045 0.001776 0.000000 -0.090483 0.001788 0.000000 -0.091869 0.001804 0.000000 -0.093399 0.001824 0.000000 -0.094875 0.001848 0.000000 -0.096482 0.001876 0.000000 -0.098034 0.001908 0.000000 -0.099700 0.001944 0.000000 -0.101311 0.001985 0.000000 -0.103018 0.002029 0.000000 -0.104668 0.002079 0.000000 -0.106395 0.002132 0.000000 -0.108063 0.002191 0.000000 -0.109786 0.002254 0.000000 -0.111451 0.002322 0.000000 -0.113149 0.002395 0.000000 -0.114786 0.002474 0.000000 -0.116438 0.002558 0.000000 -0.118027 0.002648 0.000000 -0.119611 0.002743 0.000000 -0.121130 0.002846 0.000000 -0.122627 0.002955 0.000000 -0.124058 0.003071 0.000000 -0.125451 0.003193 0.000000 -0.126778 0.003324 0.000000 -0.128053 0.003462 0.000000 -0.129260 0.003610 0.000000 -0.130405 0.003765 0.000000 -0.131482 0.003930 0.000000 -0.132488 0.004104 0.000000 -0.133427 0.004290 0.000000 -0.134288 0.004484 0.000000 -0.135082 0.004692 0.000000 -0.135794 0.004910 0.000000 -0.136440 0.005142 0.000000 -0.137001 0.005385 0.000000 -0.137498 0.005644 0.000000 -0.137908 0.005916 0.000000 -0.138257 0.006205 0.000000 -0.138517 0.006508 0.000000 -0.138718 0.006830 0.000000 -0.138832 0.007168 0.000000 -0.138889 0.007526 0.000000 -0.138859 0.007902 0.000000 -0.138773 0.008301 0.000000 -0.138602 0.008720 0.000000 -0.138377 0.009164 0.000000 -0.138068 0.009629 0.000000 -0.137707 0.010122 0.000000 -0.137263 0.010638 0.000000 -0.136767 0.011186 0.000000 -0.136190 0.011760 0.000000 -0.135560 0.012368 0.000000 -0.134851 0.013004 0.000000 -0.134089 0.013679 0.000000 -0.133248 0.014384 0.000000 -0.132353 0.015131 0.000000 -0.131379 0.015912 0.000000 -0.130349 0.016740 0.000000 -0.129240 0.017605 0.000000 -0.128074 0.018520 0.000000 -0.126828 0.019476 0.000000 -0.125522 0.020488 0.000000 -0.124135 0.021544 0.000000 -0.122685 0.022661 0.000000 -0.121152 0.023827 0.000000 -0.119554 0.025059 0.000000 -0.117872 0.026344 0.000000 -0.116120 0.027701 0.000000 -0.114282 0.029115 0.000000 -0.112372 0.030607 0.000000 -0.110374 0.032162 0.000000 
-0.106677 0.031626 0.000000 -0.104437 0.033245 0.000000 -0.102115 0.034953 0.000000 -0.099699 0.036731 0.000000 -0.097197 0.038604 0.000000 -0.094602 0.040552 0.000000 -0.091917 0.042601 0.000000 -0.089139 0.044729 0.000000 -0.086269 0.046965 0.000000 -0.083307 0.049282 0.000000 -0.080251 0.051712 0.000000 -0.077106 0.054226 0.000000 -0.073865 0.056857 0.000000 -0.070538 0.059573 0.000000 -0.067114 0.062408 0.000000 -0.063610 0.065328 0.000000 -0.060008 0.068368 0.000000 -0.056333 0.071490 0.000000 -0.052559 0.074729 0.000000 -0.048719 0.078045 0.000000 -0.044781 0.081473 0.000000 -0.040785 0.084969 0.000000 -0.036692 0.088567 0.000000 -0.032548 0.092222 0.000000 -0.028306 0.095965 0.000000 -0.024021 0.099748 0.000000 -0.019636 0.103600 0.000000 -0.015215 0.107473 0.000000 -0.010689 0.111390 0.000000 -0.006131 0.115302 0.000000 -0.001460 0.119229 0.000000 0.003242 0.123122 0.000000 0.008070 0.126995 0.000000 0.012933 0.130801 0.000000 0.017940 0.134548 0.000000 0.022992 0.138192 0.000000 0.028212 0.141735 0.000000 0.033495 0.145137 0.000000 0.038976 0.148393 0.000000 0.044544 0.151471 0.000000 0.050347 0.154359 0.000000 0.056269 0.157035 0.000000 0.062469 0.159479 0.000000 0.068825 0.161679 0.000000 0.075506 0.163613 0.000000 0.082383 0.165278 0.000000 0.089632 0.166648 0.000000 0.097119 0.167732 0.000000 0.105021 0.168504 0.000000 0.113197 0.168982 0.000000 0.121824 0.169140 0.000000 0.130751 0.169009 0.000000 0.140150 0.168561 0.000000 0.149860 0.167838 0.000000 0.160041 0.166813 0.000000 0.170521 0.165538 0.000000 0.181442 0.163989 0.000000 0.192618 0.162222 0.000000 0.204172 0.160217 0.000000 0.215900 0.158037 0.000000 0.227897 0.155662 0.000000 0.239945 0.153160 0.000000 0.252105 0.150511 0.000000 0.264148 0.147787 0.000000 0.276093 0.144966 0.000000 0.287708 0.142121 0.000000 0.298966 0.139227 0.000000 0.309640 0.136357 0.000000 0.319660 0.133478 0.000000 0.328820 0.130660 0.000000 0.337007 0.127862 0.000000 0.344057 0.125146 0.000000 0.349826 0.122462 0.000000 0.354215 0.119864 0.000000 0.357064 0.117288 0.000000 0.358365 0.114781 0.000000 0.357956 0.112271 0.000000 0.355938 0.109794 0.000000 0.352167 0.107276 0.000000 0.346861 0.104746 0.000000 0.339904 0.102138 0.000000 0.331617 0.099477 0.000000 0.321914 0.096712 0.000000 0.311190 0.093869 0.000000 0.299385 0.090919 0.000000 0.286919 0.087891 0.000000 0.273744 0.084778 0.000000 0.260261 0.081610 0.000000 0.246420 0.078402 0.000000 0.232563 0.075177 0.000000 0.218636 0.071962 0.000000 0.204899 0.068774 0.000000 0.191299 0.065642 0.000000 0.178011 0.062572 0.000000 0.164994 0.059587 0.000000 0.152351 0.056688 0.000000 0.140059 0.053889 0.000000 0.128170 0.051185 0.000000 0.116680 0.048582 0.000000 0.105612 0.046079 0.000000 0.094971 0.043671 0.000000 0.084766 0.041364 0.000000 0.074998 0.039148 0.000000 0.065679 0.037034 0.000000 0.056787 0.035006 0.000000 0.048350 0.033081 0.000000 0.040311 0.031239 0.000000 0.032724 0.029498 0.000000 0.025493 0.027836 0.000000 0.018706 0.026271 0.000000 0.012225 0.024779 0.000000 0.006178 0.023375 0.000000 0.000388 0.022038 0.000000 -0.004978 0.020780 0.000000 -0.010129 0.019582 0.000000 -0.014866 0.018453 0.000000 -0.019424 0.017380 0.000000 -0.023581 0.016368 0.000000 -0.027588 0.015409 0.000000 -0.031212 0.014503 0.000000 -0.034712 0.013647 0.000000 -0.037849 0.012839 0.000000 -0.040887 0.012078 0.000000 -0.043586 0.011358 0.000000 -0.046206 0.010683 0.000000 -0.048512 0.010044 0.000000 -0.050757 0.009447 0.000000 -0.052716 0.008881 0.000000 -0.054626 0.008354 0.000000 -0.056278 0.007855 0.000000 -0.057893 0.007391 0.000000 -0.059277 0.006952 0.000000 -0.060635 0.006546 0.000000 -0.061788 0.006162 0.000000 -0.062925 0.005810 0.000000 -0.063884 0.005476 0.000000 -0.064835 0.005172 0.000000 -0.065636 0.004884 0.000000 -0.066435 0.004625 0.000000 -0.067111 0.004379 0.000000 -0.067790 0.004161 0.000000 -0.068375 0.003953 0.000000 -0.068963 0.003772 0.000000 -0.069486 0.003600 0.000000 -0.070013 0.003453 0.000000 -0.070504 0.003313 0.000000 -0.070995 0.003197 0.000000 -0.071481 0.003086 0.000000 -0.071962 0.002999 0.000000 -0.072467 0.002915 0.000000 -0.072962 0.002854 0.000000 -0.073510 0.002795 0.000000 -0.074040 0.002757 0.000000 -0.074649 0.002720 0.000000 -0.075234 0.002702 0.000000 -0.075921 0.002686 0.000000 -0.076579 0.002686 0.000000 -0.077359 0.002688 0.000000 -0.078103 0.002704 0.000000 -0.078986 0.002721 0.000000 -0.079829 0.002750 0.000000 -0.080823 0.002781 0.000000 -0.081772 0.002821 0.000000 -0.082880 0.002864 0.000000 -0.083940 0.002912 0.000000 -0.085162 0.002963 0.000000 -0.086335 0.003018 0.000000 -0.087667 0.003076 0.000000 -0.088948 0.003135 0.000000 -0.090383 0.003197 0.000000 -0.091766 0.003259 0.000000 -0.093293 0.003324 0.000000 -0.094767 0.003386 0.000000 -0.096370 0.003452 0.000000 -0.097921 0.003514 0.000000 -0.099585 0.003580 0.000000 -0.101194 0.003640 0.000000 -0.102899 0.003705 0.000000 -0.104548 0.003764 0.000000 -0.106272 0.003826 0.000000 -0.107939 0.003883 0.000000 -0.109660 0.003944 0.000000 -0.111323 0.003999 0.000000 -0.113019 0.004059 0.000000 -0.114655 0.004114 0.000000 -0.116304 0.004173 0.000000 -0.117890 0.004229 0.000000 -0.119470 0.004290 0.000000 -0.120987 0.004349 0.000000 -0.122480 0.004413 0.000000 -0.123907 0.004477 0.000000 -0.125295 0.004547 0.000000 -0.126617 0.004619 0.000000 -0.127886 0.004697 0.000000 -0.129088 0.004779 0.000000 -0.130225 0.004869 0.000000 -0.131296 0.004964 0.000000 -0.132293 0.005069 0.000000 -0.133224 0.005181 0.000000 -0.134075 0.005303 0.000000 -0.134860 0.005436 0.000000 -0.135560 0.005579 0.000000 -0.136196 0.005735 0.000000 -0.136744 0.005904 0.000000 -0.137229 0.006087 0.000000 -0.137625 0.006283 0.000000 -0.137959 0.006497 0.000000 -0.138204 0.006726 0.000000 -0.138389 0.006974 0.000000 -0.138485 0.007238 0.000000 -0.138523 0.007524 0.000000 -0.138474 0.007828 0.000000 -0.138368 0.008157 0.000000 -0.138176 0.008504 0.000000 -0.137929 0.008879 0.000000 -0.137597 0.009274 0.000000 -0.137210 0.009699 0.000000 -0.136740 0.010147 0.000000 -0.136217 0.010628 0.000000 -0.135611 0.011134 0.000000 -0.134952 0.011674 0.000000 -0.134211 0.012243 0.000000 -0.133415 0.012850 0.000000 -0.132539 0.013488 0.000000 -0.131608 0.014167 0.000000 -0.130595 0.014880 0.000000 -0.129526 0.015639 0.000000 -0.128374 0.016434 0.000000 -0.127164 0.017279 0.000000 -0.125871 0.018164 0.000000 -0.124517 0.019104 0.000000 -0.123079 0.020087 0.000000 -0.121577 0.021129 0.000000 -0.119989 0.022219 0.000000 -0.118333 0.023375 0.000000 -0.116590 0.024581 0.000000 -0.114776 0.025859 0.000000 -0.112872 0.027192 0.000000 -0.110894 0.028602 0.000000 -0.108825 0.030073 0.000000 
-0.105127 0.029412 0.000000 -0.102809 0.030942 0.000000 -0.100405 0.032561 0.000000 -0.097906 0.034248 0.000000 -0.095318 0.036031 0.000000 -0.092634 0.037886 0.000000 -0.089857 0.039843 0.000000 -0.086985 0.041877 0.000000 -0.084019 0.044020 0.000000 -0.080959 0.046243 0.000000 -0.077802 0.048580 0.000000 -0.074555 0.051001 0.000000 -0.071211 0.053540 0.000000 -0.067780 0.056164 0.000000 -0.064252 0.058911 0.000000 -0.060644 0.061741 0.000000 -0.056939 0.064695 0.000000 -0.053161 0.067731 0.000000 -0.049288 0.070889 0.000000 -0.045352 0.074123 0.000000 -0.041322 0.077474 0.000000 -0.037238 0.080894 0.000000 -0.033064 0.084420 0.000000 -0.028846 0.088003 0.000000 -0.024538 0.091678 0.000000 -0.020198 0.095393 0.000000 -0.015768 0.099181 0.000000 -0.011314 0.102987 0.000000 -0.006769 0.106841 0.000000 -0.002207 0.110686 0.000000 0.002453 0.114547 0.000000 0.007125 0.118368 0.000000 0.011906 0.122168 0.000000 0.016701 0.125893 0.000000 0.021622 0.129553 0.000000 0.026565 0.133099 0.000000 0.031656 0.136535 0.000000 0.036787 0.139815 0.000000 0.042097 0.142937 0.000000 0.047471 0.145863 0.000000 0.053062 0.148583 0.000000 0.058750 0.151068 0.000000 0.064701 0.153304 0.000000 0.070788 0.155271 0.000000 0.077189 0.156951 0.000000 0.083772 0.158338 0.000000 0.090719 0.159408 0.000000 0.097895 0.160170 0.000000 0.105484 0.160599 0.000000 0.113345 0.160717 0.000000 0.121661 0.160500 0.000000 0.130282 0.159981 0.000000 0.139385 0.159140 0.000000 0.148809 0.158022 0.000000 0.158721 0.156609 0.000000 0.168948 0.154958 0.000000 0.179640 0.153053 0.000000 0.190609 0.150963 0.000000 0.201982 0.148674 0.000000 0.213557 0.146263 0.000000 0.225431 0.143717 0.000000 0.237387 0.141123 0.000000 0.249487 0.138466 0.000000 0.261500 0.135838 0.000000 0.273448 0.133220 0.000000 0.285093 0.130709 0.000000 0.296411 0.128276 0.000000 0.307167 0.126016 0.000000 0.317290 0.123887 0.000000 0.326565 0.121981 0.000000 0.334878 0.120233 0.000000 0.342054 0.118726 0.000000 0.347944 0.117372 0.000000 0.352443 0.116237 0.000000 0.355379 0.115211 0.000000 0.356741 0.114340 0.000000 0.356359 0.113497 0.000000 0.354335 0.112709 0.000000 0.350517 0.111845 0.000000 0.345131 0.110917 0.000000 0.338055 0.109807 0.000000 0.329625 0.108523 0.000000 0.319754 0.106979 0.000000 0.308856 0.105187 0.000000 0.296868 0.103105 0.000000 0.284235 0.100755 0.000000 0.270902 0.098143 0.000000 0.257292 0.095298 0.000000 0.243349 0.092265 0.000000 0.229425 0.089071 0.000000 0.215461 0.085785 0.000000 0.201720 0.082425 0.000000 0.188142 0.079059 0.000000 0.174898 0.075691 0.000000 0.161943 0.072379 0.000000 0.149372 0.069115 0.000000 0.137163 0.065936 0.000000 0.125359 0.062830 0.000000 0.113960 0.059817 0.000000 0.102979 0.056889 0.000000 0.092431 0.054051 0.000000 0.082314 0.051307 0.000000 0.072640 0.048649 0.000000 0.063412 0.046096 0.000000 0.054616 0.043628 0.000000 0.046272 0.041277 0.000000 0.038329 0.039010 0.000000 0.030836 0.036867 0.000000 0.023698 0.034806 0.000000 0.017001 0.032867 0.000000 0.010606 0.031007 0.000000 0.004642 0.029259 0.000000 -0.001071 0.027583 0.000000 -0.006361 0.026007 0.000000 -0.011444 0.024497 0.000000 -0.016113 0.023073 0.000000 -0.020609 0.021712 0.000000 -0.024704 0.020426 0.000000 -0.028655 0.019201 0.000000 -0.032221 0.018042 0.000000 -0.035669 0.016944 0.000000 -0.038753 0.015905 0.000000 -0.041743 0.014926 0.000000 -0.044393 0.013998 0.000000 -0.046969 0.013128 0.000000 -0.049231 0.012303 0.000000 -0.051436 0.011532 0.000000 -0.053355 0.010800 0.000000 -0.055229 0.010120 0.000000 -0.056844 0.009474 0.000000 -0.058427 0.008877 0.000000 -0.059777 0.008310 0.000000 -0.061105 0.007789 0.000000 -0.062227 0.007295 0.000000 -0.063337 0.006846 0.000000 -0.064267 0.006420 0.000000 -0.065193 0.006037 0.000000 -0.065968 0.005674 0.000000 -0.066744 0.005352 0.000000 -0.067396 0.005047 0.000000 -0.068054 0.004783 0.000000 -0.068617 0.004531 0.000000 -0.069186 0.004319 0.000000 -0.069689 0.004116 0.000000 -0.070198 0.003953 0.000000 -0.070671 0.003796 0.000000 -0.071146 0.003678 0.000000 -0.071615 0.003563 0.000000 -0.072082 0.003485 0.000000 -0.072573 0.003409 0.000000 -0.073054 0.003369 0.000000 -0.073589 0.003328 0.000000 -0.074106 0.003320 0.000000 -0.074705 0.003312 0.000000 -0.075278 0.003333 0.000000 -0.075957 0.003354 0.000000 -0.076604 0.003400 0.000000 -0.077377 0.003446 0.000000 -0.078112 0.003514 0.000000 -0.078990 0.003581 0.000000 -0.079825 0.003665 0.000000 -0.080815 0.003750 0.000000 -0.081758 0.003847 0.000000 -0.082864 0.003945 0.000000 -0.083920 0.004051 0.000000 -0.085141 0.004159 0.000000 -0.086311 0.004269 0.000000 -0.087643 0.004382 0.000000 -0.088923 0.004492 0.000000 -0.090359 0.004606 0.000000 -0.091742 0.004714 0.000000 -0.093271 0.004824 0.000000 -0.094746 0.004926 0.000000 -0.096354 0.005030 0.000000 -0.097906 0.005123 0.000000 -0.099574 0.005218 0.000000 -0.101186 0.005299 0.000000 -0.102895 0.005383 0.000000 -0.104547 0.005452 0.000000 -0.106275 0.005523 0.000000 -0.107945 0.005579 0.000000 -0.109670 0.005638 0.000000 -0.111335 0.005681 0.000000 -0.113034 0.005727 0.000000 -0.114672 0.005758 0.000000 -0.116323 0.005793 0.000000 -0.117910 0.005815 0.000000 -0.119491 0.005840 0.000000 -0.121007 0.005855 0.000000 -0.122499 0.005875 0.000000 -0.123925 0.005886 0.000000 -0.125310 0.005903 0.000000 -0.126628 0.005915 0.000000 -0.127892 0.005933 0.000000 -0.129088 0.005949 0.000000 -0.130220 0.005973 0.000000 -0.131283 0.005998 0.000000 -0.132272 0.006032 0.000000 -0.133193 0.006071 0.000000 -0.134033 0.006120 0.000000 -0.134806 0.006177 0.000000 -0.135494 0.006246 0.000000 -0.136116 0.006326 0.000000 -0.136649 0.006418 0.000000 -0.137118 0.006525 0.000000 -0.137498 0.006646 0.000000 -0.137814 0.006784 0.000000 -0.138041 0.006938 0.000000 -0.138206 0.007111 0.000000 -0.138282 0.007302 0.000000 -0.138298 0.007515 0.000000 -0.138226 0.007747 0.000000 -0.138097 0.008003 0.000000 -0.137880 0.008280 0.000000 -0.137607 0.008584 0.000000 -0.137248 0.008910 0.000000 -0.136833 0.009266 0.000000 -0.136334 0.009645 0.000000 -0.135781 0.010057 0.000000 -0.135143 0.010495 0.000000 -0.134451 0.010968 0.000000 -0.133675 0.011468 0.000000 -0.132845 0.012007 0.000000 -0.131931 0.012576 0.000000 -0.130961 0.013187 0.000000 -0.129907 0.013830 0.000000 -0.128796 0.014519 0.000000 -0.127600 0.015243 0.000000 -0.126344 0.016017 0.000000 -0.125003 0.016829 0.000000 -0.123599 0.017696 0.000000 -0.122109 0.018604 0.000000 -0.120552 0.019571 0.000000 -0.118907 0.020584 0.000000 -0.117192 0.021661 0.000000 -0.115388 0.022787 0.000000 -0.113509 0.023983 0.000000 -0.111539 0.025234 0.000000 -0.109491 0.026560 0.000000 -0.107350 0.027945 0.000000 
-0.103680 0.027085 0.000000 -0.101288 0.028524 0.000000 -0.098808 0.030050 0.000000 -0.096229 0.031643 0.000000 -0.093559 0.033332 0.000000 -0.090789 0.035091 0.000000 -0.087925 0.036953 0.000000 -0.084962 0.038891 0.000000 -0.081903 0.040938 0.000000 -0.078747 0.043065 0.000000 -0.075493 0.045308 0.000000 -0.072146 0.047634 0.000000 -0.068701 0.050082 0.000000 -0.065168 0.052614 0.000000 -0.061537 0.055272 0.000000 -0.057825 0.058015 0.000000 -0.054018 0.060885 0.000000 -0.050139 0.063839 0.000000 -0.046167 0.066920 0.000000 -0.042134 0.070079 0.000000 -0.038011 0.073359 0.000000 -0.033839 0.076710 0.000000 -0.029583 0.080174 0.000000 -0.025290 0.083696 0.000000 -0.020915 0.087317 0.000000 -0.016518 0.090977 0.000000 -0.012042 0.094717 0.000000 -0.007555 0.098474 0.000000 -0.002990 0.102282 0.000000 0.001575 0.106080 0.000000 0.006222 0.109897 0.000000 0.010863 0.113669 0.000000 0.015594 0.117419 0.000000 0.020318 0.121086 0.000000 0.025146 0.124685 0.000000 0.029974 0.128158 0.000000 0.034928 0.131513 0.000000 0.039897 0.134696 0.000000 0.045023 0.137709 0.000000 0.050189 0.140506 0.000000 0.055552 0.143080 0.000000 0.060990 0.145396 0.000000 0.066672 0.147441 0.000000 0.072473 0.149191 0.000000 0.078572 0.150630 0.000000 0.084840 0.151748 0.000000 0.091464 0.152525 0.000000 0.098310 0.152967 0.000000 0.105568 0.153053 0.000000 0.113097 0.152805 0.000000 0.121088 0.152204 0.000000 0.129391 0.151286 0.000000 0.138191 0.150034 0.000000 0.147329 0.148501 0.000000 0.156977 0.146674 0.000000 0.166964 0.144620 0.000000 0.177446 0.142328 0.000000 0.188237 0.139880 0.000000 0.199469 0.137269 0.000000 0.210940 0.134588 0.000000 0.222752 0.131832 0.000000 0.234688 0.129104 0.000000 0.246812 0.126397 0.000000 0.258892 0.123825 0.000000 0.270950 0.121373 0.000000 0.282744 0.119159 0.000000 0.294248 0.117154 0.000000 0.305220 0.115478 0.000000 0.315585 0.114080 0.000000 0.325117 0.113072 0.000000 0.333694 0.112373 0.000000 0.341128 0.112080 0.000000 0.347260 0.112073 0.000000 0.351969 0.112429 0.000000 0.355075 0.112990 0.000000 0.356553 0.113801 0.000000 0.356224 0.114677 0.000000 0.354185 0.115635 0.000000 0.350279 0.116480 0.000000 0.344735 0.117209 0.000000 0.337433 0.117644 0.000000 0.328726 0.117778 0.000000 0.318532 0.117481 0.000000 0.307289 0.116755 0.000000 0.294945 0.115541 0.000000 0.281968 0.113856 0.000000 0.268314 0.111721 0.000000 0.254423 0.109164 0.000000 0.240245 0.106268 0.000000 0.226143 0.103064 0.000000 0.212053 0.099667 0.000000 0.198237 0.096094 0.000000 0.184628 0.092464 0.000000 0.171392 0.088771 0.000000 0.158474 0.085113 0.000000 0.145959 0.081468 0.000000 0.133822 0.077902 0.000000 0.122095 0.074388 0.000000 0.110781 0.070962 0.000000 0.099885 0.067608 0.000000 0.089426 0.064336 0.000000 0.079399 0.061154 0.000000 0.069821 0.058050 0.000000 0.060691 0.055058 0.000000 0.051999 0.052146 0.000000 0.043761 0.049367 0.000000 0.035929 0.046675 0.000000 0.028546 0.044130 0.000000 0.021518 0.041672 0.000000 0.014929 0.039363 0.000000 0.008637 0.037138 0.000000 0.002772 0.035052 0.000000 -0.002847 0.033041 0.000000 -0.008049 0.031152 0.000000 -0.013048 0.029333 0.000000 -0.017637 0.027619 0.000000 -0.022058 0.025971 0.000000 -0.026079 0.024414 0.000000 -0.029961 0.022926 0.000000 -0.033457 0.021517 0.000000 -0.036839 0.020180 0.000000 -0.039859 0.018912 0.000000 -0.042786 0.017717 0.000000 -0.045376 0.016584 0.000000 -0.047894 0.015521 0.000000 -0.050102 0.014511 0.000000 -0.052253 0.013570 0.000000 -0.054122 0.012674 0.000000 -0.055947 0.011844 0.000000 -0.057516 0.011053 0.000000 -0.059053 0.010324 0.000000 -0.060361 0.009630 0.000000 -0.061646 0.008996 0.000000 -0.062728 0.008394 0.000000 -0.063797 0.007850 0.000000 -0.064690 0.007333 0.000000 -0.065579 0.006872 0.000000 -0.066318 0.006435 0.000000 -0.067060 0.006053 0.000000 -0.067679 0.005689 0.000000 -0.068305 0.005381 0.000000 -0.068837 0.005085 0.000000 -0.069376 0.004844 0.000000 -0.069851 0.004612 0.000000 -0.070332 0.004435 0.000000 -0.070778 0.004261 0.000000 -0.071227 0.004142 0.000000 -0.071672 0.004022 0.000000 -0.072115 0.003956 0.000000 -0.072584 0.003888 0.000000 -0.073043 0.003870 0.000000 -0.073557 0.003847 0.000000 -0.074055 0.003872 0.000000 -0.074635 0.003892 0.000000 -0.075191 0.003955 0.000000 -0.075854 0.004012 0.000000 -0.076486 0.004106 0.000000 -0.077245 0.004196 0.000000 -0.077968 0.004317 0.000000 -0.078834 0.004434 0.000000 -0.079659 0.004575 0.000000 -0.080641 0.004715 0.000000 -0.081576 0.004870 0.000000 -0.082676 0.005025 0.000000 -0.083727 0.005189 0.000000 -0.084944 0.005354 0.000000 -0.086112 0.005520 0.000000 -0.087443 0.005688 0.000000 -0.088724 0.005851 0.000000 -0.090162 0.006017 0.000000 -0.091548 0.006171 0.000000 -0.093081 0.006328 0.000000 -0.094561 0.006468 0.000000 -0.096174 0.006612 0.000000 -0.097733 0.006735 0.000000 -0.099408 0.006860 0.000000 -0.101029 0.006961 0.000000 -0.102746 0.007065 0.000000 -0.104408 0.007144 0.000000 -0.106145 0.007224 0.000000 -0.107825 0.007278 0.000000 -0.109559 0.007334 0.000000 -0.111234 0.007364 0.000000 -0.112942 0.007395 0.000000 -0.114589 0.007402 0.000000 -0.116247 0.007411 0.000000 -0.117843 0.007398 0.000000 -0.119430 0.007387 0.000000 -0.120952 0.007357 0.000000 -0.122449 0.007331 0.000000 -0.123879 0.007288 0.000000 -0.125267 0.007250 0.000000 -0.126587 0.007201 0.000000 -0.127851 0.007157 0.000000 -0.129047 0.007106 0.000000 -0.130176 0.007063 0.000000 -0.131236 0.007016 0.000000 -0.132220 0.006979 0.000000 -0.133136 0.006942 0.000000 -0.133969 0.006917 0.000000 -0.134734 0.006897 0.000000 -0.135412 0.006889 0.000000 -0.136023 0.006891 0.000000 -0.136545 0.006906 0.000000 -0.137001 0.006935 0.000000 -0.137366 0.006979 0.000000 -0.137667 0.007040 0.000000 -0.137877 0.007118 0.000000 -0.138025 0.007215 0.000000 -0.138082 0.007331 0.000000 -0.138079 0.007469 0.000000 -0.137986 0.007627 0.000000 -0.137835 0.007810 0.000000 -0.137595 0.008014 0.000000 -0.137299 0.008246 0.000000 -0.136915 0.008501 0.000000 -0.136475 0.008786 0.000000 -0.135949 0.009095 0.000000 -0.135367 0.009436 0.000000 -0.134701 0.009804 0.000000 -0.133978 0.010207 0.000000 -0.133171 0.010637 0.000000 -0.132307 0.011106 0.000000 -0.131359 0.011604 0.000000 -0.130354 0.012144 0.000000 -0.129263 0.012715 0.000000 -0.128113 0.013332 0.000000 -0.126876 0.013983 0.000000 -0.125578 0.014682 0.000000 -0.124193 0.015419 0.000000 -0.122743 0.016209 0.000000 -0.121204 0.017039 0.000000 -0.119597 0.017928 0.000000 -0.117899 0.018860 0.000000 -0.116130 0.019855 0.000000 -0.114267 0.020898 0.000000 -0.112329 0.022010 0.000000 -0.110296 0.023174 0.000000 -0.108183 0.024413 0.000000 -0.105973 0.025708 0.000000 