# vtk DataFile Version 2.0
Comment goes here
ASCII

DATASET STRUCTURED_POINTS
FIELD FieldData 1
TIME 1 1 double
1.15000000
DIMENSIONS    240   120   1

ORIGIN    0.000   0.000   0.000
SPACING   0.16667 0.16667   1.000

POINT_DATA   28800
SCALARS uX double
LOOKUP_TABLE default

-1.244188e-01 -1.216053e-01 -1.186092e-01 -1.154143e-01 -1.120270e-01 -1.084360e-01 -1.046434e-01 -1.006437e-01 -9.643483e-02 -9.201794e-02 -8.738636e-02 -8.254928e-02 -7.749506e-02 -7.224217e-02 -6.677361e-02 -6.111848e-02 -5.525386e-02 -4.922076e-02 -4.298967e-02 -3.661475e-02 -3.005902e-02 -2.339078e-02 -1.656456e-02 -9.663487e-03 -2.632369e-03 4.430511e-03 1.159147e-02 1.873722e-02 2.594671e-02 3.309235e-02 4.026721e-02 4.733068e-02 5.439136e-02 6.129744e-02 6.817419e-02 7.486092e-02 8.150033e-02 8.792557e-02 9.429697e-02 1.004444e-01 1.065454e-01 1.124294e-01 1.182900e-01 1.239589e-01 1.296437e-01 1.351804e-01 1.407879e-01 1.463080e-01 1.519674e-01 1.576138e-01 1.634773e-01 1.694112e-01 1.756435e-01 1.820311e-01 1.887937e-01 1.957887e-01 2.032195e-01 2.109404e-01 2.191293e-01 2.276325e-01 2.365922e-01 2.458425e-01 2.554788e-01 2.653202e-01 2.754055e-01 2.855390e-01 2.956959e-01 3.056712e-01 3.153746e-01 3.246045e-01 3.332106e-01 3.410148e-01 3.478210e-01 3.535007e-01 3.578335e-01 3.607694e-01 3.620892e-01 3.618450e-01 3.598429e-01 3.562489e-01 3.509105e-01 3.441012e-01 3.357132e-01 3.261011e-01 3.151932e-01 3.033834e-01 2.906198e-01 2.772889e-01 2.633415e-01 2.491176e-01 2.345611e-01 2.199420e-01 2.051977e-01 1.905239e-01 1.758593e-01 1.613365e-01 1.469052e-01 1.326541e-01 1.185488e-01 1.046545e-01 9.094984e-02 7.749338e-02 6.426707e-02 5.133583e-02 3.867167e-02 2.635572e-02 1.433788e-02 2.723077e-03 -8.569211e-03 -1.940507e-02 -2.989925e-02 -3.988686e-02 -4.951704e-02 -5.859573e-02 -6.730415e-02 -7.542435e-02 -8.316556e-02 -9.029326e-02 -9.703930e-02 -1.031602e-01 -1.089041e-01 -1.140252e-01 -1.187810e-01 -1.229288e-01 -1.267289e-01 -1.299457e-01 -1.328366e-01 -1.351764e-01 -1.372154e-01 -1.387408e-01 -1.399929e-01 -1.407733e-01 -1.413096e-01 -1.414195e-01 -1.413154e-01 -1.408330e-01 -1.401665e-01 -1.391718e-01 -1.380219e-01 -1.365951e-01 -1.350403e-01 -1.332610e-01 -1.313784e-01 -1.293243e-01 -1.271888e-01 -1.249349e-01 -1.226188e-01 -1.202369e-01 -1.178097e-01 -1.153677e-01 -1.128949e-01 -1.104565e-01 -1.079999e-01 -1.056236e-01 -1.032402e-01 -1.009793e-01 -9.872136e-02 -9.662317e-02 -9.453745e-02 -9.264330e-02 -9.077055e-02 -8.911537e-02 -8.749003e-02 -8.610213e-02 -8.475196e-02 -8.365288e-02 -8.259878e-02 -8.180329e-02 -8.105917e-02 -8.057532e-02 -8.014821e-02 -7.997752e-02 -7.986775e-02 -8.000560e-02 -8.020718e-02 -8.064319e-02 -8.114430e-02 -8.186294e-02 -8.264655e-02 -8.362778e-02 -8.467233e-02 -8.589231e-02 -8.717247e-02 -8.860434e-02 -9.009180e-02 -9.170637e-02 -9.337061e-02 -9.513712e-02 -9.694616e-02 -9.883291e-02 -1.007540e-01 -1.027290e-01 -1.047292e-01 -1.067605e-01 -1.088074e-01 -1.108639e-01 -1.129257e-01 -1.149771e-01 -1.170232e-01 -1.190406e-01 -1.210420e-01 -1.229978e-01 -1.249272e-01 -1.267956e-01 -1.286273e-01 -1.303842e-01 -1.320945e-01 -1.337179e-01 -1.352851e-01 -1.367545e-01 -1.381589e-01 -1.394560e-01 -1.406798e-01 -1.417878e-01 -1.428151e-01 -1.437192e-01 -1.445356e-01 -1.452224e-01 -1.458150e-01 -1.462725e-01 -1.466296e-01 -1.468466e-01 -1.469574e-01 -1.469236e-01 -1.467778e-01 -1.464830e-01 -1.460705e-01 -1.455045e-01 -1.448148e-01 -1.439671e-01 -1.429891e-01 -1.418483e-01 -1.405702e-01 -1.391239e-01 -1.375325e-01 -1.357673e-01 -1.338484e-01 -1.317495e-01 -1.294877e-01 -1.270396e-01 
-1.234385e-01 -1.205656e-01 -1.175048e-01 -1.142373e-01 -1.107711e-01 -1.070920e-01 -1.032038e-01 -9.909825e-02 -9.477493e-02 -9.023230e-02 -8.546551e-02 -8.048118e-02 -7.526960e-02 -6.984700e-02 -6.419837e-02 -5.835105e-02 -5.228417e-02 -4.603762e-02 -3.958398e-02 -3.297705e-02 -2.618192e-02 -1.926748e-02 -1.219017e-02 -5.034793e-03 2.252225e-03 9.569751e-03 1.698296e-02 2.437450e-02 3.182285e-02 3.919519e-02 4.658502e-02 5.384542e-02 6.108651e-02 6.814931e-02 7.516189e-02 8.195577e-02 8.867782e-02 9.515312e-02 1.015475e-01 1.076830e-01 1.137438e-01 1.195520e-01 1.253088e-01 1.308393e-01 1.363596e-01 1.416999e-01 1.470879e-01 1.523607e-01 1.577536e-01 1.631107e-01 1.686701e-01 1.742826e-01 1.801831e-01 1.862272e-01 1.926399e-01 1.992783e-01 2.063500e-01 2.137094e-01 2.215374e-01 2.296810e-01 2.382842e-01 2.471822e-01 2.564715e-01 2.659720e-01 2.757233e-01 2.855301e-01 2.953682e-01 3.050325e-01 3.144332e-01 3.233681e-01 3.316872e-01 3.392115e-01 3.457453e-01 3.511591e-01 3.552335e-01 3.579172e-01 3.589929e-01 3.585124e-01 3.562842e-01 3.524751e-01 3.469358e-01 3.399411e-01 3.313871e-01 3.216300e-01 3.106016e-01 2.986968e-01 2.858660e-01 2.724953e-01 2.585364e-01 2.443269e-01 2.298101e-01 2.152518e-01 2.005881e-01 1.860095e-01 1.714532e-01 1.570469e-01 1.427393e-01 1.286149e-01 1.146393e-01 1.008745e-01 8.729971e-02 7.397177e-02 6.087277e-02 4.806729e-02 3.552659e-02 2.333265e-02 1.143338e-02 -6.424494e-05 -1.124404e-02 -2.196876e-02 -3.235759e-02 -4.224104e-02 -5.177359e-02 -6.075550e-02 -6.937395e-02 -7.740461e-02 -8.506301e-02 -9.210799e-02 -9.877783e-02 -1.048225e-01 -1.104964e-01 -1.155475e-01 -1.202393e-01 -1.243232e-01 -1.280651e-01 -1.312239e-01 -1.340622e-01 -1.363495e-01 -1.383410e-01 -1.398189e-01 -1.410281e-01 -1.417656e-01 -1.422631e-01 -1.423341e-01 -1.421950e-01 -1.416772e-01 -1.409790e-01 -1.399521e-01 -1.387734e-01 -1.373172e-01 -1.357362e-01 -1.339300e-01 -1.320232e-01 -1.299443e-01 -1.277864e-01 -1.255094e-01 -1.231724e-01 -1.207691e-01 -1.183219e-01 -1.158598e-01 -1.133679e-01 -1.109105e-01 -1.084354e-01 -1.060409e-01 -1.036396e-01 -1.013612e-01 -9.908560e-02 -9.697054e-02 -9.486740e-02 -9.295683e-02 -9.106687e-02 -8.939561e-02 -8.775327e-02 -8.634955e-02 -8.498260e-02 -8.386794e-02 -8.279729e-02 -8.198643e-02 -8.122604e-02 -8.072704e-02 -8.028395e-02 -8.009836e-02 -7.997294e-02 -8.009614e-02 -8.028245e-02 -8.070410e-02 -8.119033e-02 -8.189493e-02 -8.266405e-02 -8.363159e-02 -8.466206e-02 -8.586872e-02 -8.713521e-02 -8.855413e-02 -9.002832e-02 -9.163030e-02 -9.328165e-02 -9.503592e-02 -9.683245e-02 -9.870729e-02 -1.006162e-01 -1.025796e-01 -1.045680e-01 -1.065880e-01 -1.086233e-01 -1.106687e-01 -1.127192e-01 -1.147597e-01 -1.167948e-01 -1.188014e-01 -1.207920e-01 -1.227371e-01 -1.246557e-01 -1.265136e-01 -1.283346e-01 -1.300810e-01 -1.317807e-01 -1.333935e-01 -1.349501e-01 -1.364088e-01 -1.378026e-01 -1.390888e-01 -1.403019e-01 -1.413989e-01 -1.424152e-01 -1.433081e-01 -1.441132e-01 -1.447884e-01 -1.453693e-01 -1.458147e-01 -1.461596e-01 -1.463638e-01 -1.464617e-01 -1.464141e-01 -1.462543e-01 -1.459444e-01 -1.455165e-01 -1.449336e-01 -1.442265e-01 -1.433595e-01 -1.423613e-01 -1.411980e-01 -1.398960e-01 -1.384230e-01 -1.368029e-01 -1.350053e-01 -1.330515e-01 -1.309131e-01 -1.286085e-01 -1.261119e-01 
-1.225915e-01 -1.196586e-01 -1.165318e-01 -1.131902e-01 -1.096425e-01 -1.058726e-01 -1.018851e-01 -9.766956e-02 -9.322653e-02 -8.855238e-02 -8.364333e-02 -7.850412e-02 -7.312621e-02 -6.752427e-02 -6.168460e-02 -5.563345e-02 -4.935141e-02 -4.287791e-02 -3.618709e-02 -2.933311e-02 -2.228269e-02 -1.510598e-02 -7.761070e-03 -3.350885e-04 7.224075e-03 1.481181e-02 2.249216e-02 3.014317e-02 3.784274e-02 4.545232e-02 5.306568e-02 6.052921e-02 6.795433e-02 7.517468e-02 8.232086e-02 8.921663e-02 9.601280e-02 1.025266e-01 1.089294e-01 1.150356e-01 1.210364e-01 1.267469e-01 1.323767e-01 1.377449e-01 1.430766e-01 1.481976e-01 1.533449e-01 1.583526e-01 1.634649e-01 1.685246e-01 1.737781e-01 1.790758e-01 1.846602e-01 1.903874e-01 1.964887e-01 2.028226e-01 2.096016e-01 2.166816e-01 2.242473e-01 2.321471e-01 2.405275e-01 2.492244e-01 2.583354e-01 2.676803e-01 2.772980e-01 2.869917e-01 2.967344e-01 3.063181e-01 3.156479e-01 3.245172e-01 3.327687e-01 3.402184e-01 3.466614e-01 3.519644e-01 3.558976e-01 3.584092e-01 3.592722e-01 3.585430e-01 3.560228e-01 3.518894e-01 3.459894e-01 3.386153e-01 3.296617e-01 3.195068e-01 3.080819e-01 2.958048e-01 2.826240e-01 2.689452e-01 2.547151e-01 2.402845e-01 2.255885e-01 2.108992e-01 1.961423e-01 1.815088e-01 1.669264e-01 1.525197e-01 1.382304e-01 1.241392e-01 1.102082e-01 9.649601e-02 8.298165e-02 6.971877e-02 5.669158e-02 4.396129e-02 3.150201e-02 1.939197e-02 7.581756e-03 -3.825641e-03 -1.491176e-02 -2.554312e-02 -3.583680e-02 -4.562651e-02 -5.506447e-02 -6.395355e-02 -7.247844e-02 -8.041710e-02 -8.798246e-02 -9.493572e-02 -1.015125e-01 -1.074655e-01 -1.130465e-01 -1.180066e-01 -1.226064e-01 -1.266008e-01 -1.302526e-01 -1.333242e-01 -1.360749e-01 -1.382777e-01 -1.401844e-01 -1.415806e-01 -1.427078e-01 -1.433662e-01 -1.437845e-01 -1.437792e-01 -1.435636e-01 -1.429723e-01 -1.422007e-01 -1.411031e-01 -1.398542e-01 -1.383305e-01 -1.366824e-01 -1.348118e-01 -1.328412e-01 -1.307010e-01 -1.284825e-01 -1.261476e-01 -1.237534e-01 -1.212954e-01 -1.187945e-01 -1.162814e-01 -1.137393e-01 -1.112344e-01 -1.087129e-01 -1.062748e-01 -1.038309e-01 -1.015128e-01 -9.919874e-02 -9.704791e-02 -9.491049e-02 -9.296827e-02 -9.104828e-02 -8.934956e-02 -8.768146e-02 -8.625446e-02 -8.486601e-02 -8.373217e-02 -8.264416e-02 -8.181809e-02 -8.104428e-02 -8.053379e-02 -8.008097e-02 -7.988730e-02 -7.975548e-02 -7.987363e-02 -8.005643e-02 -8.047560e-02 -8.096077e-02 -8.166496e-02 -8.243497e-02 -8.340364e-02 -8.443641e-02 -8.564524e-02 -8.691494e-02 -8.833656e-02 -8.981439e-02 -9.141917e-02 -9.307415e-02 -9.483093e-02 -9.663069e-02 -9.850745e-02 -1.004189e-01 -1.023834e-01 -1.043734e-01 -1.063935e-01 -1.084294e-01 -1.104737e-01 -1.125237e-01 -1.145620e-01 -1.165954e-01 -1.185988e-01 -1.205865e-01 -1.225274e-01 -1.244421e-01 -1.262947e-01 -1.281108e-01 -1.298511e-01 -1.315450e-01 -1.331509e-01 -1.347009e-01 -1.361521e-01 -1.375386e-01 -1.388166e-01 -1.400217e-01 -1.411099e-01 -1.421177e-01 -1.430012e-01 -1.437972e-01 -1.444625e-01 -1.450336e-01 -1.454684e-01 -1.458029e-01 -1.459957e-01 -1.460822e-01 -1.460222e-01 -1.458500e-01 -1.455264e-01 -1.450845e-01 -1.444861e-01 -1.437629e-01 -1.428779e-01 -1.418609e-01 -1.406763e-01 -1.393515e-01 -1.378528e-01 -1.362050e-01 -1.343759e-01 -1.323877e-01 -1.302104e-01 -1.278631e-01 -1.253181e-01 
-1.218950e-01 -1.189098e-01 -1.157249e-01 -1.123161e-01 -1.086941e-01 -1.048393e-01 -1.007583e-01 -9.643719e-02 -9.187867e-02 -8.707575e-02 -8.202679e-02 -7.673336e-02 -7.118925e-02 -6.540624e-02 -5.937318e-02 -5.311386e-02 -4.661161e-02 -3.990410e-02 -3.296832e-02 -2.585754e-02 -1.854141e-02 -1.109028e-02 -3.465065e-03 4.245636e-03 1.209137e-02 1.996466e-02 2.792751e-02 3.585363e-02 4.381967e-02 5.168135e-02 5.953224e-02 6.721171e-02 7.483243e-02 8.221991e-02 8.950771e-02 9.651072e-02 1.033846e-01 1.099374e-01 1.163473e-01 1.224197e-01 1.283546e-01 1.339588e-01 1.394520e-01 1.446466e-01 1.497788e-01 1.546691e-01 1.595664e-01 1.643009e-01 1.691291e-01 1.738913e-01 1.788455e-01 1.838414e-01 1.891318e-01 1.945733e-01 2.004066e-01 2.064910e-01 2.130468e-01 2.199314e-01 2.273356e-01 2.351086e-01 2.434016e-01 2.520498e-01 2.611537e-01 2.705302e-01 2.802186e-01 2.900162e-01 2.998935e-01 3.096327e-01 3.191332e-01 3.281748e-01 3.365915e-01 3.441831e-01 3.507337e-01 3.560939e-01 3.600227e-01 3.624561e-01 3.631585e-01 3.621817e-01 3.593242e-01 3.547701e-01 3.483700e-01 3.404340e-01 3.308673e-01 3.200733e-01 3.079972e-01 2.950834e-01 2.812930e-01 2.670528e-01 2.523170e-01 2.374471e-01 2.223792e-01 2.073845e-01 1.923851e-01 1.775625e-01 1.628395e-01 1.483271e-01 1.339649e-01 1.198198e-01 1.058561e-01 9.212087e-02 7.859877e-02 6.533485e-02 5.231974e-02 3.960842e-02 2.717961e-02 1.510739e-02 3.343495e-03 -8.010785e-03 -1.903953e-02 -2.960783e-02 -3.983825e-02 -4.955958e-02 -5.893154e-02 -6.774903e-02 -7.620553e-02 -8.406912e-02 -9.156240e-02 -9.843611e-02 -1.049360e-01 -1.108049e-01 -1.163045e-01 -1.211771e-01 -1.256925e-01 -1.295979e-01 -1.331643e-01 -1.361470e-01 -1.388126e-01 -1.409276e-01 -1.427501e-01 -1.440598e-01 -1.451038e-01 -1.456771e-01 -1.460135e-01 -1.459244e-01 -1.456286e-01 -1.449553e-01 -1.441054e-01 -1.429279e-01 -1.416030e-01 -1.400017e-01 -1.382799e-01 -1.363342e-01 -1.342922e-01 -1.320795e-01 -1.297919e-01 -1.273871e-01 -1.249259e-01 -1.224009e-01 -1.198352e-01 -1.172579e-01 -1.146535e-01 -1.120875e-01 -1.095060e-01 -1.070100e-01 -1.045087e-01 -1.021361e-01 -9.976746e-02 -9.756556e-02 -9.537668e-02 -9.338696e-02 -9.141887e-02 -8.967632e-02 -8.796373e-02 -8.649666e-02 -8.506754e-02 -8.389744e-02 -8.277271e-02 -8.191419e-02 -8.110765e-02 -8.056847e-02 -8.008686e-02 -7.986814e-02 -7.971135e-02 -7.980786e-02 -7.996929e-02 -8.036999e-02 -8.083706e-02 -8.152563e-02 -8.228046e-02 -8.323599e-02 -8.425611e-02 -8.545389e-02 -8.671303e-02 -8.812532e-02 -8.959428e-02 -9.119108e-02 -9.283849e-02 -9.458831e-02 -9.638149e-02 -9.825202e-02 -1.001576e-01 -1.021163e-01 -1.041010e-01 -1.061157e-01 -1.081465e-01 -1.101859e-01 -1.122310e-01 -1.142645e-01 -1.162933e-01 -1.182920e-01 -1.202753e-01 -1.222118e-01 -1.241223e-01 -1.259706e-01 -1.277828e-01 -1.295191e-01 -1.312093e-01 -1.328114e-01 -1.343580e-01 -1.358056e-01 -1.371889e-01 -1.384636e-01 -1.396657e-01 -1.407508e-01 -1.417557e-01 -1.426362e-01 -1.434294e-01 -1.440916e-01 -1.446600e-01 -1.450915e-01 -1.454230e-01 -1.456123e-01 -1.456954e-01 -1.456311e-01 -1.454548e-01 -1.451259e-01 -1.446785e-01 -1.440733e-01 -1.433428e-01 -1.424488e-01 -1.414218e-01 -1.402249e-01 -1.388867e-01 -1.373712e-01 -1.357048e-01 -1.338532e-01 -1.318398e-01 -1.296323e-01 -1.272512e-01 -1.246663e-01 
-1.213494e-01 -1.183120e-01 -1.150682e-01 -1.115914e-01 -1.078932e-01 -1.039512e-01 -9.977339e-02 -9.534301e-02 -9.066393e-02 -8.572654e-02 -8.053054e-02 -7.507499e-02 -6.935524e-02 -6.338089e-02 -5.714253e-02 -5.066232e-02 -4.392554e-02 -3.696892e-02 -2.977167e-02 -2.238700e-02 -1.478695e-02 -7.042906e-03 8.817439e-04 8.896126e-03 1.704739e-02 2.522446e-02 3.348725e-02 4.170448e-02 4.995136e-02 5.807728e-02 6.617536e-02 7.407745e-02 8.189712e-02 8.945146e-02 9.687660e-02 1.039785e-01 1.109174e-01 1.174923e-01 1.238881e-01 1.299018e-01 1.357418e-01 1.412078e-01 1.465301e-01 1.515149e-01 1.564107e-01 1.610338e-01 1.656459e-01 1.700752e-01 1.745909e-01 1.790333e-01 1.836727e-01 1.883602e-01 1.933600e-01 1.985312e-01 2.041245e-01 2.100023e-01 2.163936e-01 2.231585e-01 2.304950e-01 2.382540e-01 2.465918e-01 2.553434e-01 2.646118e-01 2.742103e-01 2.841774e-01 2.943024e-01 3.045502e-01 3.146902e-01 3.246105e-01 3.340733e-01 3.428954e-01 3.508560e-01 3.577178e-01 3.633112e-01 3.673724e-01 3.698238e-01 3.704095e-01 3.691808e-01 3.659227e-01 3.608364e-01 3.537693e-01 3.450663e-01 3.346387e-01 3.229377e-01 3.099193e-01 2.960789e-01 2.813866e-01 2.663121e-01 2.508109e-01 2.352718e-01 2.196227e-01 2.041444e-01 1.887443e-01 1.735993e-01 1.586175e-01 1.438976e-01 1.293701e-01 1.150881e-01 1.010149e-01 8.718549e-02 7.359057e-02 6.026515e-02 4.720909e-02 3.446832e-02 2.203020e-02 9.960038e-03 -1.784564e-03 -1.311034e-02 -2.409838e-02 -3.461980e-02 -4.479608e-02 -5.445909e-02 -6.376828e-02 -7.251888e-02 -8.090445e-02 -8.869182e-02 -9.610404e-02 -1.028905e-01 -1.092978e-01 -1.150681e-01 -1.204643e-01 -1.252292e-01 -1.296333e-01 -1.334251e-01 -1.368753e-01 -1.397414e-01 -1.422884e-01 -1.442852e-01 -1.459877e-01 -1.471783e-01 -1.481017e-01 -1.485552e-01 -1.487708e-01 -1.485620e-01 -1.481460e-01 -1.473539e-01 -1.463855e-01 -1.450911e-01 -1.436500e-01 -1.419344e-01 -1.400995e-01 -1.380425e-01 -1.358908e-01 -1.335704e-01 -1.311767e-01 -1.286683e-01 -1.261051e-01 -1.234809e-01 -1.208179e-01 -1.181465e-01 -1.154497e-01 -1.127952e-01 -1.101268e-01 -1.075485e-01 -1.049664e-01 -1.025178e-01 -1.000748e-01 -9.780394e-02 -9.554773e-02 -9.349626e-02 -9.146826e-02 -8.967148e-02 -8.790669e-02 -8.639308e-02 -8.491963e-02 -8.371071e-02 -8.254951e-02 -8.165976e-02 -8.082445e-02 -8.026132e-02 -7.975827e-02 -7.952241e-02 -7.935097e-02 -7.943653e-02 -7.958940e-02 -7.998455e-02 -8.044835e-02 -8.113589e-02 -8.189183e-02 -8.284992e-02 -8.387457e-02 -8.507757e-02 -8.634372e-02 -8.776296e-02 -8.924050e-02 -9.084517e-02 -9.250193e-02 -9.425983e-02 -9.606240e-02 -9.794066e-02 -9.985513e-02 -1.018208e-01 -1.038134e-01 -1.058341e-01 -1.078718e-01 -1.099159e-01 -1.119665e-01 -1.140036e-01 -1.160367e-01 -1.180378e-01 -1.200243e-01 -1.219622e-01 -1.238748e-01 -1.257238e-01 -1.275373e-01 -1.292736e-01 -1.309644e-01 -1.325660e-01 -1.341127e-01 -1.355595e-01 -1.369425e-01 -1.382161e-01 -1.394178e-01 -1.405017e-01 -1.415059e-01 -1.423850e-01 -1.431774e-01 -1.438381e-01 -1.444055e-01 -1.448353e-01 -1.451655e-01 -1.453527e-01 -1.454340e-01 -1.453671e-01 -1.451881e-01 -1.448556e-01 -1.444045e-01 -1.437942e-01 -1.430581e-01 -1.421567e-01 -1.411215e-01 -1.399141e-01 -1.385639e-01 -1.370334e-01 -1.353500e-01 -1.334773e-01 -1.314400e-01 -1.292035e-01 -1.267894e-01 -1.241652e-01 
-1.209697e-01 -1.178890e-01 -1.145954e-01 -1.110587e-01 -1.072923e-01 -1.032704e-01 -9.900268e-02 -9.446865e-02 -8.967442e-02 -8.460636e-02 -7.926672e-02 -7.365063e-02 -6.775623e-02 -6.158948e-02 -5.514406e-02 -4.843894e-02 -4.146285e-02 -3.425000e-02 -2.678334e-02 -1.911455e-02 -1.121959e-02 -3.169560e-03 5.068201e-03 1.340165e-02 2.187417e-02 3.037187e-02 3.895142e-02 4.747697e-02 5.602136e-02 6.442768e-02 7.278802e-02 8.092629e-02 8.895681e-02 9.668738e-02 1.042571e-01 1.114616e-01 1.184666e-01 1.250608e-01 1.314368e-01 1.373816e-01 1.431143e-01 1.484255e-01 1.535585e-01 1.583121e-01 1.629496e-01 1.672820e-01 1.715870e-01 1.756898e-01 1.798758e-01 1.839846e-01 1.883021e-01 1.926806e-01 1.973990e-01 2.023186e-01 2.077036e-01 2.134193e-01 2.197062e-01 2.264274e-01 2.337904e-01 2.416476e-01 2.501628e-01 2.591697e-01 2.687758e-01 2.787886e-01 2.892468e-01 2.999278e-01 3.107913e-01 3.215869e-01 3.321907e-01 3.423378e-01 3.518258e-01 3.604012e-01 3.678021e-01 3.738256e-01 3.781819e-01 3.807672e-01 3.813044e-01 3.798341e-01 3.761316e-01 3.704101e-01 3.625225e-01 3.528497e-01 3.413230e-01 3.284470e-01 3.142057e-01 2.991518e-01 2.832808e-01 2.671090e-01 2.506063e-01 2.341861e-01 2.177767e-01 2.016593e-01 1.857321e-01 1.701544e-01 1.548234e-01 1.398121e-01 1.250465e-01 1.105546e-01 9.630522e-02 8.231318e-02 6.858236e-02 5.513244e-02 4.197855e-02 2.915458e-02 1.665932e-02 4.548500e-03 -7.215789e-03 -1.854637e-02 -2.952677e-02 -4.002880e-02 -5.018135e-02 -5.981054e-02 -6.908615e-02 -7.779198e-02 -8.613373e-02 -9.386347e-02 -1.012177e-01 -1.079306e-01 -1.142631e-01 -1.199436e-01 -1.252492e-01 -1.299110e-01 -1.342126e-01 -1.378928e-01 -1.412333e-01 -1.439831e-01 -1.464162e-01 -1.482941e-01 -1.498798e-01 -1.509492e-01 -1.517533e-01 -1.520836e-01 -1.521781e-01 -1.518448e-01 -1.513072e-01 -1.503903e-01 -1.493010e-01 -1.478829e-01 -1.463225e-01 -1.444851e-01 -1.425331e-01 -1.403566e-01 -1.380902e-01 -1.356532e-01 -1.331474e-01 -1.305257e-01 -1.278532e-01 -1.251197e-01 -1.223504e-01 -1.195742e-01 -1.167747e-01 -1.140204e-01 -1.112534e-01 -1.085805e-01 -1.059043e-01 -1.033670e-01 -1.008352e-01 -9.848172e-02 -9.614244e-02 -9.401493e-02 -9.191023e-02 -9.004427e-02 -8.820970e-02 -8.663403e-02 -8.509811e-02 -8.383439e-02 -8.261830e-02 -8.168105e-02 -8.079848e-02 -8.019504e-02 -7.965224e-02 -7.938297e-02 -7.917897e-02 -7.923760e-02 -7.936460e-02 -7.973872e-02 -8.018269e-02 -8.085439e-02 -8.159577e-02 -8.254245e-02 -8.355697e-02 -8.475216e-02 -8.601175e-02 -8.742600e-02 -8.889969e-02 -9.050145e-02 -9.215632e-02 -9.391272e-02 -9.571470e-02 -9.759236e-02 -9.950703e-02 -1.014726e-01 -1.034658e-01 -1.054866e-01 -1.075251e-01 -1.095694e-01 -1.116209e-01 -1.136583e-01 -1.156923e-01 -1.176939e-01 -1.196814e-01 -1.216200e-01 -1.235339e-01 -1.253840e-01 -1.271991e-01 -1.289369e-01 -1.306299e-01 -1.322336e-01 -1.337831e-01 -1.352326e-01 -1.366191e-01 -1.378962e-01 -1.391019e-01 -1.401899e-01 -1.411989e-01 -1.420827e-01 -1.428804e-01 -1.435463e-01 -1.441195e-01 -1.445549e-01 -1.448911e-01 -1.450839e-01 -1.451714e-01 -1.451100e-01 -1.449369e-01 -1.446093e-01 -1.441632e-01 -1.435566e-01 -1.428241e-01 -1.419246e-01 -1.408907e-01 -1.396821e-01 -1.383297e-01 -1.367938e-01 -1.351031e-01 -1.332191e-01 -1.311677e-01 -1.289118e-01 -1.264745e-01 -1.238204e-01 
-1.207589e-01 -1.176357e-01 -1.142923e-01 -1.106955e-01 -1.068599e-01 -1.027564e-01 -9.839617e-02 -9.375522e-02 -8.884114e-02 -8.363700e-02 -7.814666e-02 -7.236207e-02 -6.628328e-02 -5.991334e-02 -5.324819e-02 -4.630442e-02 -3.907335e-02 -3.158761e-02 -2.383313e-02 -1.586099e-02 -7.650487e-03 7.266324e-04 9.299460e-03 1.797385e-02 2.678960e-02 3.562910e-02 4.454571e-02 5.339818e-02 6.225677e-02 7.095747e-02 7.959096e-02 8.797261e-02 9.621697e-02 1.041221e-01 1.118296e-01 1.191247e-01 1.261780e-01 1.327678e-01 1.390947e-01 1.449358e-01 1.505210e-01 1.556327e-01 1.605275e-01 1.649982e-01 1.693236e-01 1.733112e-01 1.772554e-01 1.809807e-01 1.847898e-01 1.885238e-01 1.924855e-01 1.965309e-01 2.009543e-01 2.056222e-01 2.108125e-01 2.163963e-01 2.226263e-01 2.293703e-01 2.368464e-01 2.449100e-01 2.537328e-01 2.631479e-01 2.732675e-01 2.838929e-01 2.950625e-01 3.065395e-01 3.182762e-01 3.299987e-01 3.415665e-01 3.526814e-01 3.631144e-01 3.725722e-01 3.807572e-01 3.874266e-01 3.922512e-01 3.950970e-01 3.956518e-01 3.939478e-01 3.897385e-01 3.832599e-01 3.743628e-01 3.634845e-01 3.505729e-01 3.362138e-01 3.204180e-01 3.038258e-01 2.864560e-01 2.688975e-01 2.511281e-01 2.336035e-01 2.162413e-01 1.993317e-01 1.827496e-01 1.666383e-01 1.508715e-01 1.354953e-01 1.204231e-01 1.056566e-01 9.116761e-02 7.695029e-02 6.302400e-02 4.939255e-02 3.609081e-02 2.313833e-02 1.055029e-02 -1.632075e-03 -1.343739e-02 -2.479175e-02 -3.577584e-02 -4.627052e-02 -5.640551e-02 -6.600965e-02 -7.525487e-02 -8.392187e-02 -9.221901e-02 -9.989220e-02 -1.071815e-01 -1.138149e-01 -1.200582e-01 -1.256355e-01 -1.308292e-01 -1.353686e-01 -1.395418e-01 -1.430871e-01 -1.462890e-01 -1.488968e-01 -1.511851e-01 -1.529163e-01 -1.543524e-01 -1.552708e-01 -1.559210e-01 -1.560963e-01 -1.560335e-01 -1.555422e-01 -1.548455e-01 -1.537698e-01 -1.525217e-01 -1.509455e-01 -1.492284e-01 -1.472350e-01 -1.451291e-01 -1.427997e-01 -1.403828e-01 -1.377965e-01 -1.351441e-01 -1.323777e-01 -1.295632e-01 -1.266905e-01 -1.237847e-01 -1.208758e-01 -1.179460e-01 -1.150664e-01 -1.121761e-01 -1.093861e-01 -1.065947e-01 -1.039491e-01 -1.013108e-01 -9.885879e-02 -9.642267e-02 -9.420684e-02 -9.201576e-02 -9.007223e-02 -8.816233e-02 -8.652019e-02 -8.492036e-02 -8.360142e-02 -8.233295e-02 -8.135161e-02 -8.042802e-02 -7.979126e-02 -7.921833e-02 -7.892586e-02 -7.870187e-02 -7.874649e-02 -7.886263e-02 -7.923079e-02 -7.967183e-02 -8.034432e-02 -8.108932e-02 -8.204213e-02 -8.306539e-02 -8.427061e-02 -8.554263e-02 -8.696945e-02 -8.845788e-02 -9.007351e-02 -9.174419e-02 -9.351473e-02 -9.533258e-02 -9.722380e-02 -9.915359e-02 -1.011316e-01 -1.031386e-01 -1.051704e-01 -1.072211e-01 -1.092747e-01 -1.113368e-01 -1.133820e-01 -1.154249e-01 -1.174331e-01 -1.194281e-01 -1.213722e-01 -1.232926e-01 -1.251474e-01 -1.269683e-01 -1.287105e-01 -1.304088e-01 -1.320168e-01 -1.335716e-01 -1.350255e-01 -1.364174e-01 -1.376992e-01 -1.389107e-01 -1.400039e-01 -1.410190e-01 -1.419085e-01 -1.427129e-01 -1.433850e-01 -1.439653e-01 -1.444073e-01 -1.447510e-01 -1.449507e-01 -1.450458e-01 -1.449913e-01 -1.448255e-01 -1.445044e-01 -1.440651e-01 -1.434641e-01 -1.427371e-01 -1.418413e-01 -1.408106e-01 -1.396031e-01 -1.382504e-01 -1.367113e-01 -1.350154e-01 -1.331222e-01 -1.310586e-01 -1.287851e-01 -1.263262e-01 -1.236437e-01 
-1.207291e-01 -1.175735e-01 -1.141905e-01 -1.105431e-01 -1.066478e-01 -1.024712e-01 -9.802682e-02 -9.328600e-02 -8.825895e-02 -8.292391e-02 -7.728769e-02 -7.133745e-02 -6.507652e-02 -5.850340e-02 -5.161777e-02 -4.443209e-02 -3.694194e-02 -2.917655e-02 -2.112659e-02 -1.284078e-02 -4.303575e-03 4.414275e-03 1.333648e-02 2.236820e-02 3.154392e-02 4.074339e-02 5.001514e-02 5.921319e-02 6.840392e-02 7.741644e-02 8.633916e-02 9.497846e-02 1.034489e-01 1.115377e-01 1.193892e-01 1.267766e-01 1.338768e-01 1.404552e-01 1.467222e-01 1.524428e-01 1.578601e-01 1.627458e-01 1.673731e-01 1.715265e-01 1.755039e-01 1.791076e-01 1.826528e-01 1.859620e-01 1.893590e-01 1.926861e-01 1.962667e-01 1.999601e-01 2.040800e-01 2.084978e-01 2.135090e-01 2.189902e-01 2.252095e-01 2.320401e-01 2.397129e-01 2.480868e-01 2.573440e-01 2.673168e-01 2.781241e-01 2.895596e-01 3.016630e-01 3.141801e-01 3.270562e-01 3.399879e-01 3.528167e-01 3.652019e-01 3.768846e-01 3.875180e-01 3.967646e-01 4.043248e-01 4.098255e-01 4.130853e-01 4.137541e-01 4.118424e-01 4.070839e-01 3.997316e-01 3.896435e-01 3.773169e-01 3.627333e-01 3.465707e-01 3.288881e-01 3.104260e-01 2.912468e-01 2.720195e-01 2.527438e-01 2.339155e-01 2.154475e-01 1.976270e-01 1.803065e-01 1.635959e-01 1.473458e-01 1.315576e-01 1.161365e-01 1.010438e-01 8.626355e-02 7.176030e-02 5.758008e-02 4.370576e-02 3.020153e-02 1.706943e-02 4.345619e-03 -7.944778e-03 -1.982264e-02 -3.122626e-02 -4.224033e-02 -5.274939e-02 -6.289425e-02 -7.249626e-02 -8.174165e-02 -9.039387e-02 -9.867732e-02 -1.063157e-01 -1.135668e-01 -1.201369e-01 -1.263110e-01 -1.317950e-01 -1.368909e-01 -1.413135e-01 -1.453685e-01 -1.487830e-01 -1.518552e-01 -1.543249e-01 -1.564767e-01 -1.580648e-01 -1.593587e-01 -1.601286e-01 -1.606304e-01 -1.606514e-01 -1.604350e-01 -1.597850e-01 -1.589318e-01 -1.576952e-01 -1.562903e-01 -1.545534e-01 -1.526809e-01 -1.505282e-01 -1.482691e-01 -1.457827e-01 -1.432148e-01 -1.404745e-01 -1.376737e-01 -1.347570e-01 -1.317974e-01 -1.287792e-01 -1.257320e-01 -1.226834e-01 -1.196168e-01 -1.166041e-01 -1.135823e-01 -1.106666e-01 -1.077498e-01 -1.049866e-01 -1.022301e-01 -9.966897e-02 -9.712285e-02 -9.480724e-02 -9.251533e-02 -9.048186e-02 -8.848115e-02 -8.675932e-02 -8.507935e-02 -8.369126e-02 -8.235370e-02 -8.131381e-02 -8.033228e-02 -7.964739e-02 -7.902744e-02 -7.869684e-02 -7.843621e-02 -7.845200e-02 -7.854108e-02 -7.888878e-02 -7.931127e-02 -7.997054e-02 -8.070429e-02 -8.164986e-02 -8.266781e-02 -8.387050e-02 -8.514178e-02 -8.656950e-02 -8.806045e-02 -8.967925e-02 -9.135453e-02 -9.312953e-02 -9.495307e-02 -9.684925e-02 -9.878506e-02 -1.007680e-01 -1.027809e-01 -1.048172e-01 -1.068733e-01 -1.089311e-01 -1.109980e-01 -1.130470e-01 -1.150945e-01 -1.171062e-01 -1.191058e-01 -1.210536e-01 -1.229787e-01 -1.248377e-01 -1.266637e-01 -1.284109e-01 -1.301152e-01 -1.317292e-01 -1.332910e-01 -1.347521e-01 -1.361523e-01 -1.374426e-01 -1.386636e-01 -1.397666e-01 -1.407927e-01 -1.416934e-01 -1.425100e-01 -1.431946e-01 -1.437883e-01 -1.442439e-01 -1.446020e-01 -1.448162e-01 -1.449265e-01 -1.448869e-01 -1.447368e-01 -1.444308e-01 -1.440070e-01 -1.434206e-01 -1.427083e-01 -1.418257e-01 -1.408081e-01 -1.396113e-01 -1.382686e-01 -1.367363e-01 -1.350457e-01 -1.331535e-01 -1.310883e-01 -1.288078e-01 -1.263380e-01 -1.236374e-01 
-1.208863e-01 -1.176999e-01 -1.142784e-01 -1.105810e-01 -1.066258e-01 -1.023755e-01 -9.784503e-02 -9.300187e-02 -8.785779e-02 -8.238701e-02 -7.659821e-02 -7.047458e-02 -6.402173e-02 -5.723441e-02 -5.011507e-02 -4.267293e-02 -3.490689e-02 -2.684375e-02 -1.847805e-02 -9.857244e-03 -9.702116e-04 8.112165e-03 1.740870e-02 2.682275e-02 3.638369e-02 4.596755e-02 5.561798e-02 6.518317e-02 7.472539e-02 8.406587e-02 9.329023e-02 1.021951e-01 1.108942e-01 1.191637e-01 1.271497e-01 1.346132e-01 1.417363e-01 1.482721e-01 1.544401e-01 1.599936e-01 1.651890e-01 1.697882e-01 1.740813e-01 1.778460e-01 1.814003e-01 1.845433e-01 1.876123e-01 1.904301e-01 1.933432e-01 1.961980e-01 1.993394e-01 2.026335e-01 2.064139e-01 2.105607e-01 2.153867e-01 2.207779e-01 2.270178e-01 2.339877e-01 2.419322e-01 2.507155e-01 2.605313e-01 2.712120e-01 2.828847e-01 2.953351e-01 3.086050e-01 3.224208e-01 3.367201e-01 3.511652e-01 3.655769e-01 3.795641e-01 3.928308e-01 4.049669e-01 4.155828e-01 4.243113e-01 4.307191e-01 4.345687e-01 4.354550e-01 4.333645e-01 4.279967e-01 4.196319e-01 4.081269e-01 3.940637e-01 3.774565e-01 3.591124e-01 3.391416e-01 3.184253e-01 2.970704e-01 2.758593e-01 2.548071e-01 2.344689e-01 2.147374e-01 1.959015e-01 1.777714e-01 1.604190e-01 1.436542e-01 1.274277e-01 1.116262e-01 9.616830e-02 8.104913e-02 6.620493e-02 5.171414e-02 3.754030e-02 2.378471e-02 1.043065e-02 -2.458403e-03 -1.487910e-02 -2.684017e-02 -3.830111e-02 -4.934631e-02 -5.987399e-02 -7.002980e-02 -7.963669e-02 -8.888618e-02 -9.753261e-02 -1.058054e-01 -1.134143e-01 -1.206239e-01 -1.271274e-01 -1.332194e-01 -1.385976e-01 -1.435745e-01 -1.478614e-01 -1.517730e-01 -1.550351e-01 -1.579511e-01 -1.602605e-01 -1.622490e-01 -1.636708e-01 -1.647944e-01 -1.653906e-01 -1.657138e-01 -1.655529e-01 -1.651505e-01 -1.643121e-01 -1.632689e-01 -1.618410e-01 -1.602456e-01 -1.583176e-01 -1.562565e-01 -1.539148e-01 -1.514697e-01 -1.487971e-01 -1.460465e-01 -1.431235e-01 -1.401437e-01 -1.370493e-01 -1.339153e-01 -1.307257e-01 -1.275102e-01 -1.242979e-01 -1.210701e-01 -1.179026e-01 -1.147281e-01 -1.116675e-01 -1.086074e-01 -1.057103e-01 -1.028214e-01 -1.001385e-01 -9.747209e-02 -9.504767e-02 -9.264873e-02 -9.052022e-02 -8.842671e-02 -8.662418e-02 -8.486625e-02 -8.341207e-02 -8.201162e-02 -8.092020e-02 -7.989068e-02 -7.916836e-02 -7.851471e-02 -7.815990e-02 -7.787887e-02 -7.788244e-02 -7.796302e-02 -7.830889e-02 -7.873310e-02 -7.939909e-02 -8.014286e-02 -8.110173e-02 -8.213601e-02 -8.335656e-02 -8.464843e-02 -8.609668e-02 -8.761060e-02 -8.925089e-02 -9.094981e-02 -9.274585e-02 -9.459231e-02 -9.650802e-02 -9.846500e-02 -1.004652e-01 -1.024969e-01 -1.045480e-01 -1.066202e-01 -1.086901e-01 -1.107706e-01 -1.128295e-01 -1.148881e-01 -1.169079e-01 -1.189168e-01 -1.208713e-01 -1.228044e-01 -1.246695e-01 -1.265030e-01 -1.282560e-01 -1.299678e-01 -1.315881e-01 -1.331577e-01 -1.346259e-01 -1.360347e-01 -1.373333e-01 -1.385641e-01 -1.396768e-01 -1.407139e-01 -1.416257e-01 -1.424547e-01 -1.431518e-01 -1.437593e-01 -1.442288e-01 -1.446020e-01 -1.448312e-01 -1.449576e-01 -1.449340e-01 -1.448007e-01 -1.445112e-01 -1.441044e-01 -1.435343e-01 -1.428385e-01 -1.419713e-01 -1.409687e-01 -1.397850e-01 -1.384546e-01 -1.369318e-01 -1.352489e-01 -1.333604e-01 -1.312962e-01 -1.290112e-01 -1.265326e-01 -1.238162e-01 