# vtk DataFile Version 2.0
Comment goes here
ASCII

DATASET STRUCTURED_POINTS
FIELD FieldData 1
TIME 1 1 double
0.50000000
DIMENSIONS    240   120   1

ORIGIN    0.000   0.000   0.000
SPACING   0.16667 0.16667   1.000

POINT_DATA   28800
SCALARS uX double
LOOKUP_TABLE default

-9.249357e-02 -9.101507e-02 -8.959309e-02 -8.823043e-02 -8.692395e-02 -8.567602e-02 -8.448269e-02 -8.334573e-02 -8.226014e-02 -8.122682e-02 -8.023946e-02 -7.929777e-02 -7.839379e-02 -7.752569e-02 -7.668349e-02 -7.586344e-02 -7.505316e-02 -7.424658e-02 -7.342861e-02 -7.259049e-02 -7.171413e-02 -7.078780e-02 -6.979024e-02 -6.870659e-02 -6.751239e-02 -6.618969e-02 -6.471096e-02 -6.305537e-02 -6.119277e-02 -5.909990e-02 -5.674458e-02 -5.410189e-02 -5.113853e-02 -4.782889e-02 -4.413968e-02 -4.004589e-02 -3.551556e-02 -3.052579e-02 -2.504752e-02 -1.906163e-02 -1.254365e-02 -5.480108e-03 2.147125e-03 1.034394e-02 1.912027e-02 2.847253e-02 3.840063e-02 4.888969e-02 5.992797e-02 7.148773e-02 8.354413e-02 9.605545e-02 1.089827e-01 1.222697e-01 1.358629e-01 1.496918e-01 1.636886e-01 1.777699e-01 1.918550e-01 2.058498e-01 2.196629e-01 2.331932e-01 2.463420e-01 2.590061e-01 2.710840e-01 2.824759e-01 2.930829e-01 3.028151e-01 3.115822e-01 3.193106e-01 3.259246e-01 3.313731e-01 3.356001e-01 3.385824e-01 3.402879e-01 3.407243e-01 3.398856e-01 3.378116e-01 3.345223e-01 3.300878e-01 3.245519e-01 3.180105e-01 3.105268e-01 3.022160e-01 2.931542e-01 2.834682e-01 2.732404e-01 2.626001e-01 2.516293e-01 2.404521e-01 2.291441e-01 2.178174e-01 2.065369e-01 1.953977e-01 1.844515e-01 1.737734e-01 1.634008e-01 1.533882e-01 1.437588e-01 1.345473e-01 1.257642e-01 1.174260e-01 1.095326e-01 1.020851e-01 9.507515e-02 8.849137e-02 8.231969e-02 7.653925e-02 7.113264e-02 6.607238e-02 6.133980e-02 5.690331e-02 5.274465e-02 4.883026e-02 4.514350e-02 4.165046e-02 3.833702e-02 3.517003e-02 3.213836e-02 2.921045e-02 2.637831e-02 2.361246e-02 2.090798e-02 1.823771e-02 1.559963e-02 1.296900e-02 1.034635e-02 7.709382e-03 5.060833e-03 2.380782e-03 -3.262336e-04 -3.077820e-03 -5.868033e-03 -8.712231e-03 -1.160345e-02 -1.455486e-02 -1.755884e-02 -2.062637e-02 -2.374956e-02 -2.693720e-02 -3.018141e-02 -3.348881e-02 -3.685181e-02 -4.027483e-02 -4.375083e-02 -4.728200e-02 -5.086204e-02 -5.449097e-02 -5.816332e-02 -6.187697e-02 -6.562738e-02 -6.941038e-02 -7.322236e-02 -7.705720e-02 -8.091218e-02 -8.477937e-02 -8.865688e-02 -9.253516e-02 -9.641297e-02 -1.002794e-01 -1.041336e-01 -1.079636e-01 -1.117689e-01 -1.155365e-01 -1.192662e-01 -1.229443e-01 -1.265705e-01 -1.301308e-01 -1.336248e-01 -1.370385e-01 -1.403711e-01 -1.436089e-01 -1.467508e-01 -1.497836e-01 -1.527059e-01 -1.555052e-01 -1.581801e-01 -1.607191e-01 -1.631204e-01 -1.653740e-01 -1.674780e-01 -1.694240e-01 -1.712103e-01 -1.728301e-01 -1.742820e-01 -1.755611e-01 -1.766665e-01 -1.775953e-01 -1.783471e-01 -1.789212e-01 -1.793178e-01 -1.795381e-01 -1.795835e-01 -1.794570e-01 -1.791606e-01 -1.786994e-01 -1.780762e-01 -1.772976e-01 -1.763675e-01 -1.752935e-01 -1.740805e-01 -1.727372e-01 -1.712689e-01 -1.696852e-01 -1.679920e-01 -1.661993e-01 -1.643131e-01 -1.623439e-01 -1.602976e-01 -1.581847e-01 -1.560111e-01 -1.537869e-01 -1.515178e-01 -1.492134e-01 -1.468791e-01 -1.445238e-01 -1.421524e-01 -1.397732e-01 -1.373903e-01 -1.350116e-01 -1.326402e-01 -1.302833e-01 -1.279436e-01 -1.256274e-01 -1.233366e-01 -1.210771e-01 -1.188500e-01 -1.166605e-01 -1.145094e-01 -1.124013e-01 -1.103364e-01 -1.083189e-01 -1.063484e-01 -1.044291e-01 -1.025599e-01 -1.007447e-01 -9.898229e-02 -9.727613e-02 -9.562464e-02 -9.403113e-02 
-8.870859e-02 -8.712197e-02 -8.559455e-02 -8.412999e-02 -8.272581e-02 -8.138535e-02 -8.010541e-02 -7.888881e-02 -7.773140e-02 -7.663520e-02 -7.559479e-02 -7.461102e-02 -7.367686e-02 -7.279159e-02 -7.194614e-02 -7.113779e-02 -7.035501e-02 -6.959262e-02 -6.883622e-02 -6.807775e-02 -6.729962e-02 -6.649054e-02 -6.562947e-02 -6.470171e-02 -6.368271e-02 -6.255428e-02 -6.128856e-02 -5.986406e-02 -5.824997e-02 -5.642200e-02 -5.434705e-02 -5.199876e-02 -4.934269e-02 -4.635148e-02 -4.299052e-02 -3.923278e-02 -3.504490e-02 -3.040176e-02 -2.527284e-02 -1.963670e-02 -1.346742e-02 -6.749142e-03 5.376327e-04 8.401167e-03 1.685269e-02 2.589089e-02 3.551691e-02 4.571801e-02 5.648354e-02 6.778775e-02 7.960674e-02 9.190057e-02 1.046311e-01 1.177435e-01 1.311850e-01 1.448863e-01 1.587800e-01 1.727836e-01 1.868166e-01 2.007853e-01 2.145985e-01 2.281550e-01 2.413561e-01 2.540979e-01 2.662788e-01 2.777979e-01 2.885558e-01 2.984612e-01 3.074231e-01 3.153660e-01 3.222130e-01 3.279112e-01 3.324031e-01 3.356631e-01 3.376576e-01 3.383917e-01 3.378579e-01 3.360931e-01 3.331157e-01 3.289931e-01 3.237675e-01 3.175323e-01 3.103489e-01 3.023304e-01 2.935517e-01 2.841373e-01 2.741687e-01 2.637734e-01 2.530331e-01 2.420702e-01 2.309604e-01 2.198146e-01 2.086981e-01 1.977055e-01 1.868887e-01 1.763232e-01 1.660467e-01 1.561143e-01 1.465500e-01 1.373891e-01 1.286430e-01 1.203292e-01 1.124484e-01 1.050028e-01 9.798496e-02 9.138451e-02 8.518816e-02 7.937613e-02 7.393169e-02 6.882832e-02 6.404796e-02 5.955987e-02 5.534630e-02 5.137440e-02 4.762801e-02 4.407377e-02 4.069794e-02 3.746785e-02 3.437267e-02 3.138119e-02 2.848570e-02 2.565693e-02 2.289022e-02 2.015854e-02 1.746008e-02 1.477016e-02 1.208950e-02 9.395800e-03 6.691950e-03 3.957999e-03 1.198604e-03 -1.603893e-03 -4.443459e-03 -7.335517e-03 -1.027304e-02 -1.326926e-02 -1.631654e-02 -1.942590e-02 -2.258945e-02 -2.581604e-02 -2.909779e-02 -3.244136e-02 -3.583922e-02 -3.929578e-02 -4.280407e-02 -4.636629e-02 -4.997622e-02 -5.363385e-02 -5.733383e-02 -6.107398e-02 -6.484989e-02 -6.865733e-02 -7.249282e-02 -7.635016e-02 -8.022678e-02 -8.411467e-02 -8.801208e-02 -9.190935e-02 -9.580540e-02 -9.968918e-02 -1.035601e-01 -1.074059e-01 -1.112264e-01 -1.150084e-01 -1.187518e-01 -1.224429e-01 -1.260814e-01 -1.296532e-01 -1.331581e-01 -1.365819e-01 -1.399240e-01 -1.431703e-01 -1.463202e-01 -1.493600e-01 -1.522887e-01 -1.550935e-01 -1.577730e-01 -1.603157e-01 -1.627198e-01 -1.649752e-01 -1.670801e-01 -1.690259e-01 -1.708108e-01 -1.724281e-01 -1.738764e-01 -1.751506e-01 -1.762498e-01 -1.771710e-01 -1.779139e-01 -1.784775e-01 -1.788623e-01 -1.790691e-01 -1.790995e-01 -1.789562e-01 -1.786415e-01 -1.781600e-01 -1.775149e-01 -1.767124e-01 -1.757566e-01 -1.746550e-01 -1.734123e-01 -1.720373e-01 -1.705353e-01 -1.689158e-01 -1.671846e-01 -1.653516e-01 -1.634230e-01 -1.614090e-01 -1.593157e-01 -1.571533e-01 -1.549278e-01 -1.526492e-01 -1.503232e-01 -1.479595e-01 -1.455630e-01 -1.431432e-01 -1.407043e-01 -1.382552e-01 -1.357995e-01 -1.333452e-01 -1.308954e-01 -1.284575e-01 -1.260338e-01 -1.236309e-01 -1.212506e-01 -1.188989e-01 -1.165769e-01 -1.142901e-01 -1.120390e-01 -1.098287e-01 -1.076592e-01 -1.055352e-01 -1.034564e-01 -1.014272e-01 -9.944685e-02 -9.751958e-02 -9.564445e-02 -9.382550e-02 -9.206149e-02 -9.035638e-02 
-8.487135e-02 -8.317708e-02 -8.154500e-02 -7.997952e-02 -7.847900e-02 -7.704766e-02 -7.568326e-02 -7.438959e-02 -7.316355e-02 -7.200820e-02 -7.091924e-02 -6.989861e-02 -6.894041e-02 -6.804501e-02 -6.720443e-02 -6.641697e-02 -6.567212e-02 -6.496555e-02 -6.428375e-02 -6.361929e-02 -6.295522e-02 -6.228063e-02 -6.157483e-02 -6.082312e-02 -6.000100e-02 -5.908988e-02 -5.806159e-02 -5.689381e-02 -5.555510e-02 -5.401988e-02 -5.225412e-02 -5.022981e-02 -4.791130e-02 -4.526924e-02 -4.226764e-02 -3.887719e-02 -3.506307e-02 -3.079770e-02 -2.604909e-02 -2.079320e-02 -1.500268e-02 -8.659083e-03 -1.741542e-03 5.760775e-03 1.386035e-02 2.255836e-02 3.185708e-02 4.174611e-02 5.221585e-02 6.324266e-02 7.480361e-02 8.686060e-02 9.937633e-02 1.122976e-01 1.255723e-01 1.391323e-01 1.529108e-01 1.668261e-01 1.807980e-01 1.947334e-01 2.085409e-01 2.221194e-01 2.353700e-01 2.481883e-01 2.604723e-01 2.721198e-01 2.830310e-01 2.931127e-01 3.022733e-01 3.104349e-01 3.175200e-01 3.234727e-01 3.282348e-01 3.317776e-01 3.340666e-01 3.351037e-01 3.348804e-01 3.334307e-01 3.307721e-01 3.269690e-01 3.220629e-01 3.161444e-01 3.092746e-01 3.015639e-01 2.930869e-01 2.839659e-01 2.742821e-01 2.641614e-01 2.536850e-01 2.429740e-01 2.321038e-01 2.211843e-01 2.102805e-01 1.994865e-01 1.888540e-01 1.784583e-01 1.683369e-01 1.585453e-01 1.491072e-01 1.400587e-01 1.314111e-01 1.231827e-01 1.153746e-01 1.079897e-01 1.010209e-01 9.445880e-02 8.829047e-02 8.249712e-02 7.706235e-02 7.196068e-02 6.717431e-02 6.267352e-02 5.844083e-02 5.444434e-02 5.066811e-02 4.707969e-02 4.366553e-02 4.039378e-02 3.725375e-02 3.421501e-02 3.126990e-02 2.838987e-02 2.557028e-02 2.278471e-02 2.003135e-02 1.728604e-02 1.454948e-02 1.179980e-02 9.039863e-03 6.250061e-03 3.435025e-03 5.773571e-04 -2.316930e-03 -5.263069e-03 -8.254052e-03 -1.130297e-02 -1.440220e-02 -1.756270e-02 -2.077654e-02 -2.405256e-02 -2.738287e-02 -3.077412e-02 -3.421874e-02 -3.772119e-02 -4.127445e-02 -4.488079e-02 -4.853392e-02 -5.223389e-02 -5.597533e-02 -5.975610e-02 -6.357178e-02 -6.741816e-02 -7.129177e-02 -7.518642e-02 -7.909956e-02 -8.302318e-02 -8.695555e-02 -9.088701e-02 -9.481650e-02 -9.873295e-02 -1.026358e-01 -1.065128e-01 -1.103638e-01 -1.141755e-01 -1.179478e-01 -1.216670e-01 -1.253329e-01 -1.289313e-01 -1.324620e-01 -1.359106e-01 -1.392767e-01 -1.425461e-01 -1.457181e-01 -1.487790e-01 -1.517277e-01 -1.545514e-01 -1.572486e-01 -1.598076e-01 -1.622268e-01 -1.644959e-01 -1.666130e-01 -1.685694e-01 -1.703634e-01 -1.719880e-01 -1.734417e-01 -1.747196e-01 -1.758205e-01 -1.767414e-01 -1.774819e-01 -1.780411e-01 -1.784191e-01 -1.786170e-01 -1.786361e-01 -1.784792e-01 -1.781485e-01 -1.776487e-01 -1.769828e-01 -1.761571e-01 -1.751755e-01 -1.740457e-01 -1.727724e-01 -1.713643e-01 -1.698266e-01 -1.681690e-01 -1.663972e-01 -1.645212e-01 -1.625470e-01 -1.604850e-01 -1.583411e-01 -1.561258e-01 -1.538448e-01 -1.515083e-01 -1.491218e-01 -1.466951e-01 -1.442332e-01 -1.417452e-01 -1.392358e-01 -1.367135e-01 -1.341820e-01 -1.316494e-01 -1.291187e-01 -1.265971e-01 -1.240872e-01 -1.215955e-01 -1.191239e-01 -1.166782e-01 -1.142598e-01 -1.118741e-01 -1.095218e-01 -1.072081e-01 -1.049331e-01 -1.027017e-01 -1.005138e-01 -9.837400e-02 -9.628198e-02 -9.424218e-02 -9.225410e-02 -9.032216e-02 -8.844565e-02 -8.662903e-02 
-8.098624e-02 -7.918452e-02 -7.744812e-02 -7.578235e-02 -7.418635e-02 -7.266537e-02 -7.121809e-02 -6.984945e-02 -6.855734e-02 -6.734608e-02 -6.621245e-02 -6.515968e-02 -6.418297e-02 -6.328399e-02 -6.245584e-02 -6.169805e-02 -6.100106e-02 -6.036166e-02 -5.976711e-02 -5.921085e-02 -5.867647e-02 -5.815358e-02 -5.762177e-02 -5.706642e-02 -5.646296e-02 -5.579244e-02 -5.502621e-02 -5.414115e-02 -5.310493e-02 -5.189070e-02 -5.046323e-02 -4.879277e-02 -4.684221e-02 -4.458010e-02 -4.196882e-02 -3.897669e-02 -3.556717e-02 -3.171011e-02 -2.737181e-02 -2.252562e-02 -1.714253e-02 -1.120145e-02 -4.680002e-03 2.435221e-03 1.015811e-02 1.849226e-02 2.744126e-02 3.699696e-02 4.715093e-02 5.788160e-02 6.916710e-02 8.097113e-02 9.325736e-02 1.059741e-01 1.190700e-01 1.324781e-01 1.461324e-01 1.599517e-01 1.738564e-01 1.877535e-01 2.015521e-01 2.151506e-01 2.284501e-01 2.413454e-01 2.537340e-01 2.655125e-01 2.765805e-01 2.868427e-01 2.962065e-01 3.045919e-01 3.119200e-01 3.181325e-01 3.231697e-01 3.270003e-01 3.295883e-01 3.309332e-01 3.310251e-01 3.298955e-01 3.275609e-01 3.240836e-01 3.195041e-01 3.139116e-01 3.073660e-01 2.999768e-01 2.918177e-01 2.830100e-01 2.736341e-01 2.638152e-01 2.536335e-01 2.432096e-01 2.326178e-01 2.219675e-01 2.113227e-01 2.007769e-01 1.903810e-01 1.802097e-01 1.703002e-01 1.607073e-01 1.514545e-01 1.425777e-01 1.340881e-01 1.260042e-01 1.183268e-01 1.110595e-01 1.041950e-01 9.772463e-02 9.163567e-02 8.590984e-02 8.053119e-02 7.547478e-02 7.072337e-02 6.624780e-02 6.203119e-02 5.804221e-02 5.426556e-02 5.066935e-02 4.724069e-02 4.394823e-02 4.078195e-02 3.771185e-02 3.473092e-02 3.181096e-02 2.894795e-02 2.611576e-02 2.331312e-02 2.051609e-02 1.772589e-02 1.492078e-02 1.210410e-02 9.256310e-03 6.382458e-03 3.465186e-03 5.108591e-04 -2.495747e-03 -5.547326e-03 -8.656985e-03 -1.181684e-02 -1.503789e-02 -1.831200e-02 -2.164803e-02 -2.503795e-02 -2.848840e-02 -3.199174e-02 -3.555241e-02 -3.916335e-02 -4.282676e-02 -4.653640e-02 -5.029224e-02 -5.408893e-02 -5.792428e-02 -6.179393e-02 -6.569354e-02 -6.961979e-02 -7.356633e-02 -7.753077e-02 -8.150490e-02 -8.548721e-02 -8.946780e-02 -9.344585e-02 -9.741004e-02 -1.013601e-01 -1.052834e-01 -1.091800e-01 -1.130365e-01 -1.168530e-01 -1.206155e-01 -1.243239e-01 -1.279638e-01 -1.315352e-01 -1.350234e-01 -1.384282e-01 -1.417351e-01 -1.449435e-01 -1.480395e-01 -1.510219e-01 -1.538779e-01 -1.566060e-01 -1.591942e-01 -1.616409e-01 -1.639356e-01 -1.660764e-01 -1.680544e-01 -1.698679e-01 -1.715097e-01 -1.729782e-01 -1.742684e-01 -1.753791e-01 -1.763071e-01 -1.770519e-01 -1.776126e-01 -1.779892e-01 -1.781828e-01 -1.781946e-01 -1.780274e-01 -1.776833e-01 -1.771671e-01 -1.764817e-01 -1.756335e-01 -1.746264e-01 -1.734680e-01 -1.721631e-01 -1.707205e-01 -1.691455e-01 -1.674477e-01 -1.656328e-01 -1.637110e-01 -1.616883e-01 -1.595751e-01 -1.573775e-01 -1.551058e-01 -1.527659e-01 -1.503680e-01 -1.479176e-01 -1.454245e-01 -1.428938e-01 -1.403346e-01 -1.377515e-01 -1.351530e-01 -1.325430e-01 -1.299293e-01 -1.273151e-01 -1.247077e-01 -1.221094e-01 -1.195269e-01 -1.169620e-01 -1.144207e-01 -1.119043e-01 -1.094184e-01 -1.069637e-01 -1.045454e-01 -1.021639e-01 -9.982419e-02 -9.752639e-02 -9.527536e-02 -9.307098e-02 -9.091815e-02 -8.881662e-02 -8.677138e-02 -8.478207e-02 -8.285384e-02 
-7.704759e-02 -7.513790e-02 -7.329686e-02 -7.153058e-02 -6.983919e-02 -6.822889e-02 -6.669944e-02 -6.525688e-02 -6.390032e-02 -6.263528e-02 -6.145983e-02 -6.037847e-02 -5.938773e-02 -5.849055e-02 -5.768134e-02 -5.696083e-02 -5.632066e-02 -5.575867e-02 -5.526312e-02 -5.482825e-02 -5.443840e-02 -5.408360e-02 -5.374381e-02 -5.340446e-02 -5.304093e-02 -5.263378e-02 -5.215390e-02 -5.157713e-02 -5.087028e-02 -5.000496e-02 -4.894465e-02 -4.765761e-02 -4.610517e-02 -4.425348e-02 -4.206320e-02 -3.949996e-02 -3.652544e-02 -3.310663e-02 -2.920810e-02 -2.480029e-02 -1.985257e-02 -1.434098e-02 -8.241681e-03 -1.538499e-03 5.783760e-03 1.373130e-02 2.230887e-02 3.151072e-02 4.132952e-02 5.174580e-02 6.273874e-02 7.427388e-02 8.631583e-02 9.881440e-02 1.117191e-01 1.249642e-01 1.384843e-01 1.521989e-01 1.660291e-01 1.798819e-01 1.936666e-01 2.072815e-01 2.206276e-01 2.335986e-01 2.460918e-01 2.580021e-01 2.692284e-01 2.796733e-01 2.892434e-01 2.978559e-01 3.054308e-01 3.119068e-01 3.172232e-01 3.213455e-01 3.242367e-01 3.258934e-01 3.263048e-01 3.255000e-01 3.234947e-01 3.203496e-01 3.161045e-01 3.108472e-01 3.046377e-01 2.975841e-01 2.897601e-01 2.812862e-01 2.722427e-01 2.627536e-01 2.528989e-01 2.427980e-01 2.325247e-01 2.221872e-01 2.118485e-01 2.016009e-01 1.914945e-01 1.816026e-01 1.719615e-01 1.626253e-01 1.536164e-01 1.449703e-01 1.366974e-01 1.288160e-01 1.213266e-01 1.142325e-01 1.075265e-01 1.012001e-01 9.524039e-02 8.962971e-02 8.435216e-02 7.938341e-02 7.470644e-02 7.029286e-02 6.612607e-02 6.217563e-02 5.842662e-02 5.484805e-02 5.142745e-02 4.813440e-02 4.495933e-02 4.187310e-02 3.886915e-02 3.592009e-02 3.302229e-02 3.015037e-02 2.730341e-02 2.445813e-02 2.161605e-02 1.875600e-02 1.588158e-02 1.297372e-02 1.003771e-02 7.056550e-03 4.036839e-03 9.636093e-04 -2.155611e-03 -5.333757e-03 -8.562736e-03 -1.185343e-02 -1.519753e-02 -1.860383e-02 -2.206411e-02 -2.558501e-02 -2.915871e-02 -3.278966e-02 -3.647064e-02 -4.020391e-02 -4.398305e-02 -4.780809e-02 -5.167357e-02 -5.557729e-02 -5.951486e-02 -6.348191e-02 -6.747509e-02 -7.148801e-02 -7.551830e-02 -7.955768e-02 -8.360468e-02 -8.764930e-02 -9.169081e-02 -9.571774e-02 -9.972988e-02 -1.037146e-01 -1.076719e-01 -1.115883e-01 -1.154639e-01 -1.192845e-01 -1.230503e-01 -1.267466e-01 -1.303734e-01 -1.339159e-01 -1.373737e-01 -1.407325e-01 -1.439913e-01 -1.471362e-01 -1.501661e-01 -1.530678e-01 -1.558397e-01 -1.584698e-01 -1.609563e-01 -1.632885e-01 -1.654644e-01 -1.674750e-01 -1.693183e-01 -1.709872e-01 -1.724799e-01 -1.737911e-01 -1.749196e-01 -1.758621e-01 -1.766181e-01 -1.771863e-01 -1.775670e-01 -1.777611e-01 -1.777696e-01 -1.775955e-01 -1.772407e-01 -1.767102e-01 -1.760067e-01 -1.751369e-01 -1.741044e-01 -1.729173e-01 -1.715801e-01 -1.701019e-01 -1.684878e-01 -1.667478e-01 -1.648876e-01 -1.629174e-01 -1.608434e-01 -1.586761e-01 -1.564216e-01 -1.540903e-01 -1.516882e-01 -1.492256e-01 -1.467080e-01 -1.441453e-01 -1.415426e-01 -1.389090e-01 -1.362493e-01 -1.335718e-01 -1.308804e-01 -1.281831e-01 -1.254831e-01 -1.227874e-01 -1.200987e-01 -1.174234e-01 -1.147635e-01 -1.121249e-01 -1.095091e-01 -1.069214e-01 -1.043629e-01 -1.018388e-01 -9.934971e-02 -9.690062e-02 -9.449191e-02 -9.212863e-02 -8.981103e-02 -8.754423e-02 -8.532846e-02 -8.316906e-02 -8.106625e-02 -7.902568e-02 
-7.306017e-02 -7.104170e-02 -6.909523e-02 -6.722789e-02 -6.544064e-02 -6.374086e-02 -6.212931e-02 -6.061337e-02 -5.919328e-02 -5.787599e-02 -5.666083e-02 -5.555383e-02 -5.455279e-02 -5.366220e-02 -5.287773e-02 -5.220158e-02 -5.162656e-02 -5.115179e-02 -5.076650e-02 -5.046596e-02 -5.023513e-02 -5.006470e-02 -4.993489e-02 -4.983127e-02 -4.972900e-02 -4.960827e-02 -4.943924e-02 -4.919677e-02 -4.884648e-02 -4.835840e-02 -4.769443e-02 -4.682072e-02 -4.569671e-02 -4.428603e-02 -4.254725e-02 -4.044321e-02 -3.793348e-02 -3.498212e-02 -3.155167e-02 -2.760960e-02 -2.312346e-02 -1.806641e-02 -1.241299e-02 -6.144317e-03 7.562180e-04 8.297325e-03 1.648500e-02 2.531577e-02 3.478342e-02 4.487052e-02 5.555728e-02 6.681100e-02 7.859726e-02 9.086730e-02 1.035716e-01 1.166453e-01 1.300240e-01 1.436277e-01 1.573781e-01 1.711823e-01 1.849501e-01 1.985791e-01 2.119705e-01 2.250168e-01 2.376150e-01 2.496583e-01 2.610448e-01 2.716749e-01 2.814540e-01 2.902965e-01 2.981214e-01 3.048642e-01 3.104627e-01 3.148798e-01 3.180770e-01 3.200484e-01 3.207821e-01 3.203054e-01 3.186332e-01 3.158248e-01 3.119199e-01 3.070056e-01 3.011416e-01 2.944362e-01 2.869625e-01 2.788414e-01 2.701524e-01 2.610198e-01 2.515222e-01 2.417791e-01 2.318625e-01 2.218800e-01 2.118928e-01 2.019922e-01 1.922263e-01 1.826673e-01 1.733497e-01 1.643264e-01 1.556184e-01 1.472601e-01 1.392609e-01 1.316384e-01 1.243923e-01 1.175255e-01 1.110306e-01 1.048986e-01 9.911676e-02 9.366729e-02 8.853461e-02 8.369449e-02 7.913044e-02 7.481434e-02 7.073032e-02 6.684836e-02 6.315440e-02 5.961796e-02 5.622753e-02 5.295325e-02 4.978653e-02 4.669879e-02 4.368444e-02 4.071660e-02 3.779259e-02 3.488744e-02 3.200114e-02 2.911075e-02 2.621862e-02 2.330384e-02 2.037077e-02 1.740053e-02 1.439909e-02 1.134958e-02 8.259200e-03 5.113049e-03 1.919186e-03 -1.335300e-03 -4.641856e-03 -8.011368e-03 -1.143513e-02 -1.492196e-02 -1.846330e-02 -2.206582e-02 -2.572144e-02 -2.943460e-02 -3.319792e-02 -3.701357e-02 -4.087510e-02 -4.478237e-02 -4.872999e-02 -5.271556e-02 -5.673479e-02 -6.078308e-02 -6.485725e-02 -6.895063e-02 -7.306109e-02 -7.718003e-02 -8.130623e-02 -8.542937e-02 -8.954901e-02 -9.365329e-02 -9.774234e-02 -1.018031e-01 -1.058360e-01 -1.098269e-01 -1.137765e-01 -1.176701e-01 -1.215080e-01 -1.252753e-01 -1.289721e-01 -1.325833e-01 -1.361087e-01 -1.395335e-01 -1.428569e-01 -1.460646e-01 -1.491556e-01 -1.521163e-01 -1.549451e-01 -1.576298e-01 -1.601685e-01 -1.625501e-01 -1.647727e-01 -1.668269e-01 -1.687107e-01 -1.704167e-01 -1.719430e-01 -1.732841e-01 -1.744387e-01 -1.754034e-01 -1.761774e-01 -1.767596e-01 -1.771500e-01 -1.773494e-01 -1.773589e-01 -1.771815e-01 -1.768190e-01 -1.762764e-01 -1.755566e-01 -1.746662e-01 -1.736090e-01 -1.723930e-01 -1.710230e-01 -1.695081e-01 -1.678537e-01 -1.660697e-01 -1.641621e-01 -1.621413e-01 -1.600134e-01 -1.577892e-01 -1.554748e-01 -1.530810e-01 -1.506137e-01 -1.480833e-01 -1.454954e-01 -1.428601e-01 -1.401824e-01 -1.374717e-01 -1.347324e-01 -1.319733e-01 -1.291982e-01 -1.264150e-01 -1.236268e-01 -1.208409e-01 -1.180598e-01 -1.152900e-01 -1.125335e-01 -1.097961e-01 -1.070793e-01 -1.043887e-01 -1.017253e-01 -9.909430e-02 -9.649642e-02 -9.393693e-02 -9.141629e-02 -8.893983e-02 -8.650798e-02 -8.412630e-02 -8.179527e-02 -7.952079e-02 -7.730348e-02 -7.514968e-02 
-6.901834e-02 -6.688958e-02 -6.483627e-02 -6.286643e-02 -6.098209e-02 -5.919169e-02 -5.749724e-02 -5.590733e-02 -5.442362e-02 -5.305444e-02 -5.180059e-02 -5.066961e-02 -4.966086e-02 -4.878035e-02 -4.802527e-02 -4.739928e-02 -4.689661e-02 -4.651767e-02 -4.625288e-02 -4.609847e-02 -4.604029e-02 -4.606958e-02 -4.616697e-02 -4.631803e-02 -4.649784e-02 -4.668597e-02 -4.685192e-02 -4.696930e-02 -4.700249e-02 -4.691965e-02 -4.668096e-02 -4.625014e-02 -4.558458e-02 -4.464501e-02 -4.338782e-02 -4.177265e-02 -3.975688e-02 -3.730126e-02 -3.436631e-02 -3.091622e-02 -2.691677e-02 -2.233800e-02 -1.715296e-02 -1.133987e-02 -4.880914e-03 2.235260e-03 1.001567e-02 1.845919e-02 2.756053e-02 3.730432e-02 4.767165e-02 5.863156e-02 7.015054e-02 8.218120e-02 9.467494e-02 1.075679e-01 1.207965e-01 1.342814e-01 1.479448e-01 1.616940e-01 1.754393e-01 1.890775e-01 2.025102e-01 2.156285e-01 2.283294e-01 2.405038e-01 2.520497e-01 2.628644e-01 2.728527e-01 2.819260e-01 2.900018e-01 2.970124e-01 3.028947e-01 3.076080e-01 3.111130e-01 3.134009e-01 3.144593e-01 3.143134e-01 3.129779e-01 3.105110e-01 3.069526e-01 3.023894e-01 2.968817e-01 2.905378e-01 2.834313e-01 2.756832e-01 2.673731e-01 2.586250e-01 2.495171e-01 2.401681e-01 2.306486e-01 2.210651e-01 2.114768e-01 2.019733e-01 1.926005e-01 1.834289e-01 1.744906e-01 1.658368e-01 1.574868e-01 1.494733e-01 1.418045e-01 1.344966e-01 1.275484e-01 1.209621e-01 1.147294e-01 1.088412e-01 1.032843e-01 9.804078e-02 9.309508e-02 8.842319e-02 8.400880e-02 7.982431e-02 7.585428e-02 7.206941e-02 6.845623e-02 6.498519e-02 6.164547e-02 5.840823e-02 5.526561e-02 5.219006e-02 4.917673e-02 4.619972e-02 4.325706e-02 4.032467e-02 3.740321e-02 3.447053e-02 3.152958e-02 2.856016e-02 2.556716e-02 2.253227e-02 1.946197e-02 1.633982e-02 1.317349e-02 9.948409e-03 6.673068e-03 3.334762e-03 -5.753677e-05 -3.514605e-03 -7.027342e-03 -1.060451e-02 -1.423721e-02 -1.793209e-02 -2.168074e-02 -2.548763e-02 -2.934510e-02 -3.325534e-02 -3.721166e-02 -4.121394e-02 -4.525661e-02 -4.933725e-02 -5.345147e-02 -5.759459e-02 -6.176343e-02 -6.595118e-02 -7.015575e-02 -7.436836e-02 -7.858793e-02 -8.280389e-02 -8.701595e-02 -9.121201e-02 -9.539237e-02 -9.954366e-02 -1.036665e-01 -1.077466e-01 -1.117846e-01 -1.157656e-01 -1.196901e-01 -1.235427e-01 -1.273238e-01 -1.310180e-01 -1.346250e-01 -1.381297e-01 -1.415315e-01 -1.448157e-01 -1.479811e-01 -1.510140e-01 -1.539127e-01 -1.566646e-01 -1.592676e-01 -1.617107e-01 -1.639914e-01 -1.661003e-01 -1.680351e-01 -1.697883e-01 -1.713576e-01 -1.727376e-01 -1.739266e-01 -1.749212e-01 -1.757203e-01 -1.763229e-01 -1.767287e-01 -1.769386e-01 -1.769536e-01 -1.767766e-01 -1.764095e-01 -1.758574e-01 -1.751230e-01 -1.742133e-01 -1.731320e-01 -1.718875e-01 -1.704843e-01 -1.689321e-01 -1.672361e-01 -1.654067e-01 -1.634498e-01 -1.613762e-01 -1.591921e-01 -1.569085e-01 -1.545317e-01 -1.520725e-01 -1.495372e-01 -1.469361e-01 -1.442752e-01 -1.415644e-01 -1.388091e-01 -1.360185e-01 -1.331972e-01 -1.303541e-01 -1.274929e-01 -1.246216e-01 -1.217433e-01 -1.188653e-01 -1.159901e-01 -1.131242e-01 -1.102694e-01 -1.074319e-01 -1.046129e-01 -1.018181e-01 -9.904846e-02 -9.630941e-02 -9.360168e-02 -9.093063e-02 -8.829694e-02 -8.570609e-02 -8.315883e-02 -8.066096e-02 -7.821340e-02 -7.582243e-02 -7.348926e-02 -7.122072e-02 
-6.492752e-02 -6.268669e-02 -6.052465e-02 -5.845051e-02 -5.646726e-02 -5.458462e-02 -5.280575e-02 -5.114072e-02 -4.959250e-02 -4.817108e-02 -4.687871e-02 -4.572470e-02 -4.470994e-02 -4.384224e-02 -4.312033e-02 -4.254961e-02 -4.212571e-02 -4.185062e-02 -4.171591e-02 -4.171907e-02 -4.184671e-02 -4.209088e-02 -4.243246e-02 -4.285725e-02 -4.333998e-02 -4.385974e-02 -4.438506e-02 -4.488831e-02 -4.533230e-02 -4.568322e-02 -4.589916e-02 -4.594123e-02 -4.576437e-02 -4.532622e-02 -4.458055e-02 -4.348364e-02 -4.199029e-02 -4.005782e-02 -3.764440e-02 -3.471090e-02 -3.122111e-02 -2.714196e-02 -2.244493e-02 -1.710543e-02 -1.110440e-02 -4.428047e-03 2.931655e-03 1.097571e-02 1.969970e-02 2.909008e-02 3.912878e-02 4.978637e-02 6.103021e-02 7.281415e-02 8.509046e-02 9.779619e-02 1.108686e-01 1.242288e-01 1.377999e-01 1.514891e-01 1.652072e-01 1.788505e-01 1.923208e-01 2.055079e-01 2.183087e-01 2.306121e-01 2.423154e-01 2.533135e-01 2.635101e-01 2.728133e-01 2.811395e-01 2.884178e-01 2.945835e-01 2.995930e-01 3.034056e-01 3.060102e-01 3.073935e-01 3.075793e-01 3.065819e-01 3.044592e-01 3.012513e-01 2.970456e-01 2.919025e-01 2.859318e-01 2.792072e-01 2.718509e-01 2.639422e-01 2.556058e-01 2.469187e-01 2.379994e-01 2.289165e-01 2.197753e-01 2.106323e-01 2.015754e-01 1.926474e-01 1.839166e-01 1.754124e-01 1.671837e-01 1.592475e-01 1.516345e-01 1.443511e-01 1.374119e-01 1.308146e-01 1.245600e-01 1.186394e-01 1.130424e-01 1.077560e-01 1.027615e-01 9.804355e-02 9.357786e-02 8.934865e-02 8.532840e-02 8.150248e-02 7.784195e-02 7.433442e-02 7.095086e-02 6.768172e-02 6.449878e-02 6.139552e-02 5.834504e-02 5.534383e-02 5.236662e-02 4.941269e-02 4.645856e-02 4.350606e-02 4.053353e-02 3.754504e-02 3.452075e-02 3.146660e-02 2.836456e-02 2.522204e-02 2.202280e-02 1.877535e-02 1.546522e-02 1.210166e-02 8.672011e-03 5.185902e-03 1.632561e-03 -1.978337e-03 -5.655569e-03 -9.389751e-03 -1.318754e-02 -1.704016e-02 -2.095203e-02 -2.491522e-02 -2.893186e-02 -3.299510e-02 -3.710467e-02 -4.125497e-02 -4.544335e-02 -4.966550e-02 -5.391645e-02 -5.819321e-02 -6.248857e-02 -6.680076e-02 -7.112054e-02 -7.544718e-02 -7.976963e-02 -8.408800e-02 -8.838967e-02 -9.267536e-02 -9.693115e-02 -1.011581e-01 -1.053413e-01 -1.094819e-01 -1.135644e-01 -1.175896e-01 -1.215417e-01 -1.254212e-01 -1.292123e-01 -1.329149e-01 -1.365133e-01 -1.400072e-01 -1.433813e-01 -1.466346e-01 -1.497528e-01 -1.527343e-01 -1.555659e-01 -1.582457e-01 -1.607620e-01 -1.631124e-01 -1.652871e-01 -1.672837e-01 -1.690941e-01 -1.707162e-01 -1.721442e-01 -1.733761e-01 -1.744086e-01 -1.752402e-01 -1.758698e-01 -1.762970e-01 -1.765228e-01 -1.765479e-01 -1.763754e-01 -1.760071e-01 -1.754482e-01 -1.747016e-01 -1.737741e-01 -1.726698e-01 -1.713971e-01 -1.699609e-01 -1.683708e-01 -1.666325e-01 -1.647564e-01 -1.627488e-01 -1.606206e-01 -1.583783e-01 -1.560331e-01 -1.535915e-01 -1.510646e-01 -1.484586e-01 -1.457845e-01 -1.430480e-01 -1.402593e-01 -1.374239e-01 -1.345511e-01 -1.316457e-01 -1.287165e-01 -1.257672e-01 -1.228060e-01 -1.198360e-01 -1.168643e-01 -1.138935e-01 -1.109301e-01 -1.079760e-01 -1.050371e-01 -1.021148e-01 -9.921481e-02 -9.633803e-02 -9.348996e-02 -9.067138e-02 -8.788781e-02 -8.513999e-02 -8.243369e-02 -7.976979e-02 -7.715450e-02 -7.458901e-02 -7.208013e-02 -6.962946e-02 -6.724456e-02 
-6.078249e-02 -5.842711e-02 -5.615386e-02 -5.397278e-02 -5.188804e-02 -4.991053e-02 -4.804481e-02 -4.630234e-02 -4.468767e-02 -4.321239e-02 -4.188049e-02 -4.070301e-02 -3.968267e-02 -3.882910e-02 -3.814284e-02 -3.763107e-02 -3.729109e-02 -3.712650e-02 -3.713027e-02 -3.730116e-02 -3.762677e-02 -3.809990e-02 -3.870186e-02 -3.941853e-02 -4.022441e-02 -4.109790e-02 -4.200655e-02 -4.292123e-02 -4.380304e-02 -4.461587e-02 -4.531552e-02 -4.586007e-02 -4.620178e-02 -4.629478e-02 -4.608997e-02 -4.553982e-02 -4.459644e-02 -4.321327e-02 -4.134613e-02 -3.895219e-02 -3.599339e-02 -3.243328e-02 -2.824201e-02 -2.339204e-02 -1.786341e-02 -1.163978e-02 -4.712523e-03 2.921502e-03 1.125837e-02 2.028632e-02 2.998783e-02 4.033492e-02 5.129562e-02 6.282491e-02 7.487589e-02 8.738642e-02 1.002946e-01 1.135221e-01 1.269928e-01 1.406138e-01 1.542968e-01 1.679374e-01 1.814377e-01 1.946864e-01 2.075804e-01 2.200065e-01 2.318616e-01 2.430379e-01 2.534382e-01 2.629672e-01 2.715405e-01 2.790833e-01 2.855299e-01 2.908331e-01 2.949517e-01 2.978717e-01 2.995793e-01 3.000968e-01 2.994388e-01 2.976630e-01 2.948101e-01 2.909685e-01 2.861998e-01 2.806151e-01 2.742891e-01 2.673453e-01 2.598631e-01 2.519679e-01 2.437356e-01 2.352844e-01 2.266804e-01 2.180275e-01 2.093791e-01 2.008205e-01 1.923910e-01 1.841563e-01 1.761422e-01 1.683949e-01 1.609287e-01 1.537718e-01 1.469285e-01 1.404115e-01 1.342170e-01 1.283445e-01 1.227841e-01 1.175247e-01 1.125525e-01 1.078485e-01 1.033971e-01 9.917390e-02 9.516337e-02 9.133828e-02 8.768459e-02 8.417400e-02 8.079498e-02 7.751946e-02 7.433889e-02 7.122617e-02 6.817585e-02 6.516220e-02 6.218278e-02 5.921343e-02 5.625446e-02 5.328342e-02 5.030311e-02 4.729277e-02 4.425735e-02 4.117783e-02 3.806094e-02 3.488930e-02 3.167109e-02 2.839055e-02 2.505691e-02 2.165602e-02 1.819780e-02 1.466979e-02 1.108225e-02 7.424507e-03 3.706817e-03 -7.958353e-05 -3.924761e-03 -7.835414e-03 -1.180226e-02 -1.582978e-02 -1.990964e-02 -2.404398e-02 -2.822562e-02 -3.245431e-02 -3.672420e-02 -4.103259e-02 -4.537504e-02 -4.974646e-02 -5.414383e-02 -5.855974e-02 -6.299252e-02 -6.743262e-02 -7.187952e-02 -7.632180e-02 -8.075983e-02 -8.518057e-02 -8.958506e-02 -9.395892e-02 -9.830353e-02 -1.026035e-01 -1.068603e-01 -1.110579e-01 -1.151974e-01 -1.192625e-01 -1.232541e-01 -1.271555e-01 -1.309672e-01 -1.346728e-01 -1.382720e-01 -1.417493e-01 -1.451034e-01 -1.483197e-01 -1.513965e-01 -1.543204e-01 -1.570889e-01 -1.596903e-01 -1.621218e-01 -1.643734e-01 -1.664422e-01 -1.683202e-01 -1.700047e-01 -1.714899e-01 -1.727734e-01 -1.738517e-01 -1.747232e-01 -1.753867e-01 -1.758415e-01 -1.760888e-01 -1.761290e-01 -1.759654e-01 -1.755995e-01 -1.750369e-01 -1.742803e-01 -1.733371e-01 -1.722111e-01 -1.709111e-01 -1.694421e-01 -1.678141e-01 -1.660328e-01 -1.641092e-01 -1.620496e-01 -1.598654e-01 -1.575632e-01 -1.551545e-01 -1.526461e-01 -1.500493e-01 -1.473707e-01 -1.446213e-01 -1.418070e-01 -1.389384e-01 -1.360208e-01 -1.330639e-01 -1.300725e-01 -1.270553e-01 -1.240164e-01 -1.209637e-01 -1.179005e-01 -1.148338e-01 -1.117663e-01 -1.087043e-01 -1.056498e-01 -1.026086e-01 -9.958217e-02 -9.657604e-02 -9.359125e-02 -9.063325e-02 -8.770291e-02 -8.480577e-02 -8.194276e-02 -7.911975e-02 -7.633792e-02 -7.360368e-02 -7.091865e-02 -6.828999e-02 -6.571990e-02 -6.321644e-02 