# vtk DataFile Version 2.0
Comment goes here
ASCII

DATASET STRUCTURED_POINTS
FIELD FieldData 1
TIME 1 1 double
1.00000000
DIMENSIONS    240   120   1

ORIGIN    0.000   0.000   0.000
SPACING   0.16667 0.16667   1.000

POINT_DATA   28800
SCALARS uX double
LOOKUP_TABLE default

1.684441e-01 1.675429e-01 1.666593e-01 1.657920e-01 1.649477e-01 1.641248e-01 1.633308e-01 1.625635e-01 1.618310e-01 1.611300e-01 1.604694e-01 1.598444e-01 1.592636e-01 1.587204e-01 1.582231e-01 1.577624e-01 1.573453e-01 1.569595e-01 1.566101e-01 1.562808e-01 1.559742e-01 1.556692e-01 1.553653e-01 1.550359e-01 1.546767e-01 1.542553e-01 1.537627e-01 1.531603e-01 1.524344e-01 1.515400e-01 1.504582e-01 1.491380e-01 1.475552e-01 1.456533e-01 1.434031e-01 1.407435e-01 1.376409e-01 1.340307e-01 1.298760e-01 1.251101e-01 1.196945e-01 1.135626e-01 1.066761e-01 9.897135e-02 9.041280e-02 8.094313e-02 7.053305e-02 5.913558e-02 4.673168e-02 3.328941e-02 1.880463e-02 3.265690e-03 -1.331171e-02 -3.091336e-02 -4.949872e-02 -6.902225e-02 -8.941407e-02 -1.105923e-01 -1.324545e-01 -1.548788e-01 -1.777286e-01 -2.008407e-01 -2.240464e-01 -2.471428e-01 -2.699353e-01 -2.921875e-01 -3.136902e-01 -3.341857e-01 -3.534671e-01 -3.712733e-01 -3.874220e-01 -4.016716e-01 -4.138898e-01 -4.238801e-01 -4.315851e-01 -4.368770e-01 -4.397921e-01 -4.402882e-01 -4.385023e-01 -4.344825e-01 -4.284572e-01 -4.205549e-01 -4.110698e-01 -4.001872e-01 -3.882289e-01 -3.754056e-01 -3.620254e-01 -3.482930e-01 -3.344679e-01 -3.207252e-01 -3.072553e-01 -2.941931e-01 -2.816550e-01 -2.697371e-01 -2.584902e-01 -2.479801e-01 -2.382069e-01 -2.292163e-01 -2.209724e-01 -2.135078e-01 -2.067622e-01 -2.007577e-01 -1.954170e-01 -1.907518e-01 -1.866731e-01 -1.831818e-01 -1.801831e-01 -1.776681e-01 -1.755423e-01 -1.737902e-01 -1.723238e-01 -1.711242e-01 -1.701147e-01 -1.692760e-01 -1.685447e-01 -1.679020e-01 -1.672984e-01 -1.667153e-01 -1.661158e-01 -1.654807e-01 -1.647841e-01 -1.640058e-01 -1.631294e-01 -1.621338e-01 -1.610106e-01 -1.597381e-01 -1.583152e-01 -1.567196e-01 -1.549562e-01 -1.530027e-01 -1.508687e-01 -1.485319e-01 -1.460058e-01 -1.432681e-01 -1.403355e-01 -1.371861e-01 -1.338387e-01 -1.302727e-01 -1.265080e-01 -1.225260e-01 -1.183474e-01 -1.139557e-01 -1.093716e-01 -1.045820e-01 -9.960638e-02 -9.443551e-02 -8.908730e-02 -8.355685e-02 -7.785980e-02 -7.199607e-02 -6.597856e-02 -5.981231e-02 -5.350716e-02 -4.707334e-02 -4.051752e-02 -3.385501e-02 -2.708939e-02 -2.024067e-02 -1.330962e-02 -6.320432e-03 7.285463e-04 7.809612e-03 1.492634e-02 2.204832e-02 2.918048e-02 3.629058e-02 4.338434e-02 5.042857e-02 5.742928e-02 6.435325e-02 7.120628e-02 7.795603e-02 8.460768e-02 9.113065e-02 9.752920e-02 1.037753e-01 1.098720e-01 1.157946e-01 1.215450e-01 1.271021e-01 1.324667e-01 1.376220e-01 1.425679e-01 1.472917e-01 1.517927e-01 1.560627e-01 1.601006e-01 1.639025e-01 1.674671e-01 1.707948e-01 1.738844e-01 1.767401e-01 1.793611e-01 1.817551e-01 1.839218e-01 1.858716e-01 1.876051e-01 1.891350e-01 1.904625e-01 1.916020e-01 1.925555e-01 1.933385e-01 1.939535e-01 1.944166e-01 1.947308e-01 1.949122e-01 1.949640e-01 1.949020e-01 1.947295e-01 1.944613e-01 1.941008e-01 1.936616e-01 1.931470e-01 1.925692e-01 1.919311e-01 1.912437e-01 1.905091e-01 1.897370e-01 1.889291e-01 1.880933e-01 1.872313e-01 1.863493e-01 1.854485e-01 1.845339e-01 1.836065e-01 1.826700e-01 1.817252e-01 1.807748e-01 1.798196e-01 1.788614e-01 1.779013e-01 1.769401e-01 1.759795e-01 1.750197e-01 1.740629e-01 1.731089e-01 1.721606e-01 1.712175e-01 1.702833e-01 1.693573e-01 
1.664104e-01 1.654243e-01 1.644566e-01 1.635070e-01 1.625828e-01 1.616833e-01 1.608169e-01 1.599825e-01 1.591894e-01 1.584355e-01 1.577307e-01 1.570718e-01 1.564688e-01 1.559163e-01 1.554242e-01 1.549845e-01 1.546058e-01 1.542769e-01 1.540048e-01 1.537737e-01 1.535880e-01 1.534273e-01 1.532923e-01 1.531567e-01 1.530174e-01 1.528415e-01 1.526211e-01 1.523167e-01 1.519150e-01 1.513697e-01 1.506619e-01 1.497388e-01 1.485757e-01 1.471139e-01 1.453233e-01 1.431400e-01 1.405291e-01 1.374228e-01 1.337826e-01 1.295383e-01 1.246492e-01 1.190450e-01 1.126847e-01 1.055012e-01 9.745544e-02 8.848676e-02 7.856210e-02 6.763122e-02 5.567101e-02 4.264666e-02 2.854979e-02 1.336639e-02 -2.892028e-03 -2.021304e-02 -3.856005e-02 -5.788858e-02 -7.813226e-02 -9.920952e-02 -1.210207e-01 -1.434434e-01 -1.663433e-01 -1.895553e-01 -2.129121e-01 -2.362080e-01 -2.592481e-01 -2.817926e-01 -3.036303e-01 -3.244989e-01 -3.441882e-01 -3.624312e-01 -3.790409e-01 -3.937691e-01 -4.064780e-01 -4.169641e-01 -4.251641e-01 -4.309442e-01 -4.343351e-01 -4.352905e-01 -4.339429e-01 -4.303391e-01 -4.247047e-01 -4.171698e-01 -4.080274e-01 -3.974668e-01 -3.858102e-01 -3.732731e-01 -3.601643e-01 -3.466930e-01 -3.331190e-01 -3.196205e-01 -3.063871e-01 -2.935549e-01 -2.812388e-01 -2.695346e-01 -2.584911e-01 -2.481732e-01 -2.385793e-01 -2.297541e-01 -2.216611e-01 -2.143322e-01 -2.077072e-01 -2.018081e-01 -1.965586e-01 -1.919702e-01 -1.879556e-01 -1.845157e-01 -1.815570e-01 -1.790710e-01 -1.769645e-01 -1.752223e-01 -1.737576e-01 -1.725522e-01 -1.715303e-01 -1.706733e-01 -1.699191e-01 -1.692492e-01 -1.686153e-01 -1.679991e-01 -1.673649e-01 -1.666934e-01 -1.659597e-01 -1.651436e-01 -1.642295e-01 -1.631958e-01 -1.620350e-01 -1.607251e-01 -1.592655e-01 -1.576336e-01 -1.558348e-01 -1.538465e-01 -1.516789e-01 -1.493090e-01 -1.467511e-01 -1.439823e-01 -1.410196e-01 -1.378409e-01 -1.344651e-01 -1.308714e-01 -1.270801e-01 -1.230720e-01 -1.188681e-01 -1.144519e-01 -1.098440e-01 -1.050311e-01 -1.000329e-01 -9.484001e-02 -8.947039e-02 -8.391904e-02 -7.820163e-02 -7.231804e-02 -6.628115e-02 -6.009601e-02 -5.377238e-02 -4.732058e-02 -4.074714e-02 -3.406751e-02 -2.728509e-02 -2.042009e-02 -1.347303e-02 -6.468382e-03 5.958058e-04 7.691509e-03 1.482264e-02 2.195841e-02 2.910414e-02 3.622715e-02 4.333357e-02 5.038980e-02 5.740220e-02 6.433716e-02 7.120083e-02 7.796048e-02 8.462162e-02 9.115328e-02 9.756004e-02 1.038135e-01 1.099170e-01 1.158455e-01 1.216012e-01 1.271626e-01 1.325308e-01 1.376888e-01 1.426364e-01 1.473610e-01 1.518619e-01 1.561308e-01 1.601664e-01 1.639652e-01 1.675255e-01 1.708480e-01 1.739312e-01 1.767795e-01 1.793920e-01 1.817764e-01 1.839324e-01 1.858705e-01 1.875911e-01 1.891071e-01 1.904195e-01 1.915430e-01 1.924793e-01 1.932442e-01 1.938399e-01 1.942827e-01 1.945755e-01 1.947344e-01 1.947626e-01 1.946759e-01 1.944775e-01 1.941823e-01 1.937934e-01 1.933247e-01 1.927792e-01 1.921692e-01 1.914973e-01 1.907746e-01 1.900031e-01 1.891924e-01 1.883442e-01 1.874663e-01 1.865600e-01 1.856318e-01 1.846826e-01 1.837174e-01 1.827371e-01 1.817453e-01 1.807427e-01 1.797320e-01 1.787140e-01 1.776904e-01 1.766622e-01 1.756306e-01 1.745970e-01 1.735619e-01 1.725274e-01 1.714938e-01 1.704640e-01 1.694380e-01 1.684196e-01 1.674087e-01 
1.644122e-01 1.633377e-01 1.622828e-01 1.612479e-01 1.602411e-01 1.592628e-01 1.583223e-01 1.574197e-01 1.565653e-01 1.557585e-01 1.550106e-01 1.543195e-01 1.536968e-01 1.531389e-01 1.526569e-01 1.522445e-01 1.519119e-01 1.516492e-01 1.514650e-01 1.513449e-01 1.512945e-01 1.512943e-01 1.513462e-01 1.514246e-01 1.515269e-01 1.516207e-01 1.516980e-01 1.517192e-01 1.516707e-01 1.515054e-01 1.512035e-01 1.507110e-01 1.500020e-01 1.490157e-01 1.477204e-01 1.460498e-01 1.439670e-01 1.414014e-01 1.383117e-01 1.346248e-01 1.302968e-01 1.252542e-01 1.194523e-01 1.128201e-01 1.053152e-01 9.687248e-02 8.745499e-02 7.700824e-02 6.550493e-02 5.290596e-02 3.919886e-02 2.436539e-02 8.413296e-03 -8.648937e-03 -2.678795e-02 -4.596272e-02 -6.610931e-02 -8.714891e-02 -1.089832e-01 -1.314915e-01 -1.545392e-01 -1.779621e-01 -2.015906e-01 -2.252178e-01 -2.486449e-01 -2.716286e-01 -2.939512e-01 -3.153450e-01 -3.355907e-01 -3.544139e-01 -3.716165e-01 -3.869415e-01 -4.002393e-01 -4.112973e-01 -4.200414e-01 -4.263300e-01 -4.301865e-01 -4.315597e-01 -4.305795e-01 -4.272926e-01 -4.219273e-01 -4.146181e-01 -4.056657e-01 -3.952665e-01 -3.837528e-01 -3.713476e-01 -3.583695e-01 -3.450327e-01 -3.316037e-01 -3.182621e-01 -3.052000e-01 -2.925511e-01 -2.804290e-01 -2.689250e-01 -2.580850e-01 -2.479690e-01 -2.385725e-01 -2.299366e-01 -2.220232e-01 -2.148624e-01 -2.083940e-01 -2.026394e-01 -1.975227e-01 -1.930560e-01 -1.891521e-01 -1.858122e-01 -1.829429e-01 -1.805357e-01 -1.784972e-01 -1.768123e-01 -1.753941e-01 -1.742247e-01 -1.732289e-01 -1.723885e-01 -1.716425e-01 -1.709733e-01 -1.703337e-01 -1.697062e-01 -1.690561e-01 -1.683649e-01 -1.676083e-01 -1.667666e-01 -1.658246e-01 -1.647611e-01 -1.635689e-01 -1.622261e-01 -1.607325e-01 -1.590657e-01 -1.572314e-01 -1.552069e-01 -1.530028e-01 -1.505962e-01 -1.480014e-01 -1.451957e-01 -1.421960e-01 -1.389802e-01 -1.355674e-01 -1.319366e-01 -1.281081e-01 -1.240627e-01 -1.198214e-01 -1.153677e-01 -1.107221e-01 -1.058714e-01 -1.008353e-01 -9.560431e-02 -9.019645e-02 -8.460664e-02 -7.885064e-02 -7.292826e-02 -6.685241e-02 -6.062813e-02 -5.426520e-02 -4.777397e-02 -4.116095e-02 -3.444167e-02 -2.761947e-02 -2.071471e-02 -1.372783e-02 -6.683445e-03 4.204483e-04 7.555670e-03 1.472617e-02 2.190101e-02 2.908550e-02 3.624684e-02 4.339111e-02 5.048459e-02 5.753356e-02 6.450431e-02 7.140285e-02 7.819638e-02 8.489026e-02 9.145343e-02 9.789031e-02 1.041724e-01 1.103030e-01 1.162568e-01 1.220358e-01 1.276187e-01 1.330064e-01 1.381815e-01 1.431441e-01 1.478813e-01 1.523923e-01 1.566688e-01 1.607096e-01 1.645109e-01 1.680711e-01 1.713909e-01 1.744688e-01 1.773093e-01 1.799114e-01 1.822829e-01 1.844235e-01 1.863439e-01 1.880444e-01 1.895382e-01 1.908263e-01 1.919234e-01 1.928315e-01 1.935662e-01 1.941302e-01 1.945396e-01 1.947975e-01 1.949201e-01 1.949106e-01 1.947849e-01 1.945463e-01 1.942097e-01 1.937783e-01 1.932660e-01 1.926757e-01 1.920199e-01 1.913011e-01 1.905302e-01 1.897094e-01 1.888481e-01 1.879479e-01 1.870167e-01 1.860556e-01 1.850709e-01 1.840637e-01 1.830387e-01 1.819966e-01 1.809411e-01 1.798728e-01 1.787943e-01 1.777063e-01 1.766105e-01 1.755079e-01 1.743997e-01 1.732872e-01 1.721713e-01 1.710540e-01 1.699358e-01 1.688197e-01 1.677062e-01 1.665993e-01 1.654995e-01 
1.623790e-01 1.612108e-01 1.600634e-01 1.589382e-01 1.578440e-01 1.567822e-01 1.557633e-01 1.547885e-01 1.538694e-01 1.530068e-01 1.522134e-01 1.514888e-01 1.508462e-01 1.502834e-01 1.498135e-01 1.494318e-01 1.491503e-01 1.489606e-01 1.488731e-01 1.488745e-01 1.489724e-01 1.491479e-01 1.494047e-01 1.497172e-01 1.500842e-01 1.504727e-01 1.508760e-01 1.512531e-01 1.515910e-01 1.518406e-01 1.519825e-01 1.519598e-01 1.517461e-01 1.512778e-01 1.505221e-01 1.494089e-01 1.479000e-01 1.459205e-01 1.434274e-01 1.403430e-01 1.366208e-01 1.321826e-01 1.269805e-01 1.209389e-01 1.140110e-01 1.061272e-01 9.724558e-02 8.730716e-02 7.627920e-02 6.411828e-02 5.080616e-02 3.632068e-02 2.066377e-02 3.840557e-03 -1.412105e-02 -3.318266e-02 -5.328500e-02 -7.435086e-02 -9.628535e-02 -1.189680e-01 -1.422659e-01 -1.660131e-01 -1.900391e-01 -2.141331e-01 -2.380924e-01 -2.616665e-01 -2.846307e-01 -3.067066e-01 -3.276645e-01 -3.472162e-01 -3.651507e-01 -3.811952e-01 -3.951860e-01 -4.068951e-01 -4.162359e-01 -4.230544e-01 -4.273659e-01 -4.291132e-01 -4.284252e-01 -4.253504e-01 -4.201244e-01 -4.128913e-01 -4.039655e-01 -3.935584e-01 -3.820181e-01 -3.695836e-01 -3.565869e-01 -3.432544e-01 -3.298596e-01 -3.165879e-01 -3.036307e-01 -2.911212e-01 -2.791668e-01 -2.678541e-01 -2.572203e-01 -2.473202e-01 -2.381417e-01 -2.297224e-01 -2.220193e-01 -2.150617e-01 -2.087871e-01 -2.032180e-01 -1.982775e-01 -1.939787e-01 -1.902339e-01 -1.870444e-01 -1.843157e-01 -1.820386e-01 -1.801184e-01 -1.785390e-01 -1.772128e-01 -1.761215e-01 -1.751900e-01 -1.744006e-01 -1.736933e-01 -1.730513e-01 -1.724293e-01 -1.718104e-01 -1.711616e-01 -1.704650e-01 -1.696978e-01 -1.688400e-01 -1.678779e-01 -1.667899e-01 -1.655700e-01 -1.641958e-01 -1.626682e-01 -1.609645e-01 -1.590914e-01 -1.570259e-01 -1.547795e-01 -1.523290e-01 -1.496893e-01 -1.468374e-01 -1.437909e-01 -1.405272e-01 -1.370658e-01 -1.333853e-01 -1.295066e-01 -1.254099e-01 -1.211169e-01 -1.166102e-01 -1.119114e-01 -1.070065e-01 -1.019158e-01 -9.662926e-02 -9.116548e-02 -8.551902e-02 -7.970591e-02 -7.372582e-02 -6.759180e-02 -6.130891e-02 -5.488689e-02 -4.833630e-02 -4.166347e-02 -3.488430e-02 -2.800181e-02 -2.103686e-02 -1.398947e-02 -6.884892e-03 2.794052e-04 7.474494e-03 1.470492e-02 2.193891e-02 2.918241e-02 3.640173e-02 4.360360e-02 5.075337e-02 5.785796e-02 6.488272e-02 7.183427e-02 7.867890e-02 8.542248e-02 9.203316e-02 9.851573e-02 1.048410e-01 1.110125e-01 1.170045e-01 1.228190e-01 1.284344e-01 1.338514e-01 1.390526e-01 1.440378e-01 1.487942e-01 1.533207e-01 1.576092e-01 1.616580e-01 1.654636e-01 1.690242e-01 1.723407e-01 1.754114e-01 1.782411e-01 1.808284e-01 1.831819e-01 1.853007e-01 1.871962e-01 1.888685e-01 1.903311e-01 1.915851e-01 1.926455e-01 1.935142e-01 1.942073e-01 1.947274e-01 1.950912e-01 1.953015e-01 1.953750e-01 1.953148e-01 1.951373e-01 1.948455e-01 1.944547e-01 1.939682e-01 1.933999e-01 1.927526e-01 1.920390e-01 1.912616e-01 1.904315e-01 1.895505e-01 1.886281e-01 1.876659e-01 1.866716e-01 1.856464e-01 1.845965e-01 1.835227e-01 1.824297e-01 1.813181e-01 1.801916e-01 1.790503e-01 1.778972e-01 1.767325e-01 1.755582e-01 1.743749e-01 1.731841e-01 1.719869e-01 1.707843e-01 1.695784e-01 1.683700e-01 1.671621e-01 1.659556e-01 1.647549e-01 1.635607e-01 
1.603708e-01 1.591041e-01 1.578596e-01 1.566397e-01 1.554539e-01 1.543049e-01 1.532041e-01 1.521540e-01 1.511678e-01 1.502475e-01 1.494075e-01 1.486491e-01 1.479873e-01 1.474216e-01 1.469670e-01 1.466206e-01 1.463963e-01 1.462874e-01 1.463062e-01 1.464409e-01 1.467008e-01 1.470680e-01 1.475475e-01 1.481146e-01 1.487686e-01 1.494769e-01 1.502328e-01 1.509950e-01 1.517498e-01 1.524472e-01 1.530665e-01 1.535492e-01 1.538672e-01 1.539543e-01 1.537756e-01 1.532583e-01 1.523611e-01 1.510062e-01 1.491470e-01 1.467023e-01 1.436217e-01 1.398232e-01 1.352542e-01 1.298348e-01 1.235133e-01 1.162151e-01 1.078932e-01 9.848299e-02 8.794634e-02 7.623397e-02 6.332224e-02 4.918299e-02 3.381301e-02 1.721163e-02 -5.977961e-04 -1.958214e-02 -3.968561e-02 -6.083534e-02 -8.293826e-02 -1.058768e-01 -1.295175e-01 -1.536949e-01 -1.782352e-01 -2.029249e-01 -2.275539e-01 -2.518653e-01 -2.756223e-01 -2.985358e-01 -3.203595e-01 -3.407903e-01 -3.595971e-01 -3.764894e-01 -3.912822e-01 -4.037296e-01 -4.137267e-01 -4.211052e-01 -4.258693e-01 -4.279548e-01 -4.274912e-01 -4.245298e-01 -4.193196e-01 -4.120171e-01 -4.029602e-01 -3.923790e-01 -3.806491e-01 -3.680282e-01 -3.548719e-01 -3.414194e-01 -3.279582e-01 -3.146770e-01 -3.017697e-01 -2.893645e-01 -2.775617e-01 -2.664384e-01 -2.560210e-01 -2.463549e-01 -2.374183e-01 -2.292433e-01 -2.217809e-01 -2.150592e-01 -2.090132e-01 -2.036668e-01 -1.989422e-01 -1.948542e-01 -1.913136e-01 -1.883220e-01 -1.857824e-01 -1.836845e-01 -1.819304e-01 -1.805029e-01 -1.793119e-01 -1.783387e-01 -1.775075e-01 -1.768012e-01 -1.761608e-01 -1.755710e-01 -1.749881e-01 -1.743968e-01 -1.737660e-01 -1.730784e-01 -1.723128e-01 -1.714496e-01 -1.704758e-01 -1.693702e-01 -1.681274e-01 -1.667251e-01 -1.651650e-01 -1.634245e-01 -1.615111e-01 -1.594021e-01 -1.571095e-01 -1.546104e-01 -1.519200e-01 -1.490154e-01 -1.459145e-01 -1.425944e-01 -1.390750e-01 -1.353347e-01 -1.313946e-01 -1.272347e-01 -1.228771e-01 -1.183040e-01 -1.135375e-01 -1.085632e-01 -1.034019e-01 -9.804324e-02 -9.250613e-02 -8.678489e-02 -8.089587e-02 -7.483856e-02 -6.862622e-02 -6.226389e-02 -5.576140e-02 -4.912942e-02 -4.237425e-02 -3.551208e-02 -2.854574e-02 -2.149654e-02 -1.436423e-02 -7.174597e-03 7.520108e-05 7.355643e-03 1.467157e-02 2.199061e-02 2.931896e-02 3.662231e-02 4.390760e-02 5.113958e-02 5.832530e-02 6.542955e-02 7.245899e-02 7.937939e-02 8.619659e-02 9.287827e-02 9.942910e-02 1.058195e-01 1.120528e-01 1.181029e-01 1.239718e-01 1.296373e-01 1.351001e-01 1.403425e-01 1.453641e-01 1.501520e-01 1.547048e-01 1.590143e-01 1.630788e-01 1.668949e-01 1.704604e-01 1.737765e-01 1.768413e-01 1.796599e-01 1.822310e-01 1.845632e-01 1.866558e-01 1.885205e-01 1.901575e-01 1.915807e-01 1.927911e-01 1.938045e-01 1.946227e-01 1.952624e-01 1.957262e-01 1.960311e-01 1.961803e-01 1.961908e-01 1.960660e-01 1.958222e-01 1.954630e-01 1.950038e-01 1.944479e-01 1.938094e-01 1.930914e-01 1.923066e-01 1.914574e-01 1.905551e-01 1.896015e-01 1.886060e-01 1.875703e-01 1.865019e-01 1.854020e-01 1.842766e-01 1.831264e-01 1.819562e-01 1.807663e-01 1.795602e-01 1.783380e-01 1.771025e-01 1.758539e-01 1.745940e-01 1.733233e-01 1.720434e-01 1.707552e-01 1.694600e-01 1.681597e-01 1.668553e-01 1.655502e-01 1.642454e-01 1.629454e-01 1.616518e-01 
1.583178e-01 1.569459e-01 1.555976e-01 1.542761e-01 1.529920e-01 1.517491e-01 1.505598e-01 1.494283e-01 1.483689e-01 1.473856e-01 1.464943e-01 1.456981e-01 1.450139e-01 1.444433e-01 1.440033e-01 1.436929e-01 1.435284e-01 1.435048e-01 1.436365e-01 1.439135e-01 1.443468e-01 1.449197e-01 1.456391e-01 1.464804e-01 1.474446e-01 1.484984e-01 1.496361e-01 1.508149e-01 1.520217e-01 1.532041e-01 1.543411e-01 1.553711e-01 1.562652e-01 1.569534e-01 1.573994e-01 1.575258e-01 1.572897e-01 1.566083e-01 1.554325e-01 1.536760e-01 1.512852e-01 1.481727e-01 1.442820e-01 1.395275e-01 1.338526e-01 1.271771e-01 1.194479e-01 1.105948e-01 1.005730e-01 8.932737e-02 7.682710e-02 6.303861e-02 4.795125e-02 3.155940e-02 1.387937e-02 -5.059897e-03 -2.520871e-02 -4.649717e-02 -6.883663e-02 -9.211063e-02 -1.161876e-01 -1.409006e-01 -1.660739e-01 -1.914888e-01 -2.169285e-01 -2.421261e-01 -2.668327e-01 -2.907433e-01 -3.135937e-01 -3.350598e-01 -3.548879e-01 -3.727625e-01 -3.884748e-01 -4.017534e-01 -4.124727e-01 -4.204440e-01 -4.256598e-01 -4.280461e-01 -4.277346e-01 -4.247814e-01 -4.194531e-01 -4.119257e-01 -4.025670e-01 -3.916357e-01 -3.795413e-01 -3.665709e-01 -3.531075e-01 -3.394117e-01 -3.257843e-01 -3.124224e-01 -2.995174e-01 -2.871933e-01 -2.755368e-01 -2.646139e-01 -2.544334e-01 -2.450299e-01 -2.363668e-01 -2.284706e-01 -2.212835e-01 -2.148340e-01 -2.090536e-01 -2.039694e-01 -1.995026e-01 -1.956707e-01 -1.923821e-01 -1.896391e-01 -1.873403e-01 -1.854736e-01 -1.839365e-01 -1.827091e-01 -1.816981e-01 -1.808833e-01 -1.801882e-01 -1.795960e-01 -1.790494e-01 -1.785344e-01 -1.780103e-01 -1.774629e-01 -1.768641e-01 -1.761971e-01 -1.754429e-01 -1.745817e-01 -1.736022e-01 -1.724824e-01 -1.712186e-01 -1.697878e-01 -1.681934e-01 -1.664123e-01 -1.644538e-01 -1.622948e-01 -1.599487e-01 -1.573922e-01 -1.546420e-01 -1.516742e-01 -1.485079e-01 -1.451194e-01 -1.415296e-01 -1.377158e-01 -1.337004e-01 -1.294623e-01 -1.250247e-01 -1.203690e-01 -1.155182e-01 -1.104572e-01 -1.052077e-01 -9.975853e-02 -9.412954e-02 -8.831441e-02 -8.233012e-02 -7.617581e-02 -6.986511e-02 -6.340301e-02 -5.679942e-02 -5.006530e-02 -4.320674e-02 -3.624050e-02 -2.916899e-02 -2.201432e-02 -1.477561e-02 -7.479673e-03 -1.228805e-04 7.264041e-03 1.468683e-02 2.211176e-02 2.954599e-02 3.695380e-02 4.434305e-02 5.167706e-02 5.896375e-02 6.616650e-02 7.329275e-02 8.030691e-02 8.721549e-02 9.398491e-02 1.006204e-01 1.070912e-01 1.134010e-01 1.195229e-01 1.254588e-01 1.311862e-01 1.367054e-01 1.419986e-01 1.470650e-01 1.518916e-01 1.564766e-01 1.608121e-01 1.648958e-01 1.687246e-01 1.722959e-01 1.756114e-01 1.786688e-01 1.814738e-01 1.840246e-01 1.863306e-01 1.883909e-01 1.902179e-01 1.918115e-01 1.931865e-01 1.943439e-01 1.953000e-01 1.960568e-01 1.966316e-01 1.970270e-01 1.972610e-01 1.973366e-01 1.972714e-01 1.970690e-01 1.967463e-01 1.963068e-01 1.957664e-01 1.951286e-01 1.944078e-01 1.936070e-01 1.927391e-01 1.918068e-01 1.908212e-01 1.897843e-01 1.887056e-01 1.875863e-01 1.864344e-01 1.852506e-01 1.840411e-01 1.828062e-01 1.815508e-01 1.802747e-01 1.789817e-01 1.776715e-01 1.763467e-01 1.750073e-01 1.736553e-01 1.722908e-01 1.709154e-01 1.695300e-01 1.681358e-01 1.667349e-01 1.653284e-01 1.639196e-01 1.625100e-01 1.611044e-01 1.597048e-01 
1.562795e-01 1.547963e-01 1.533383e-01 1.519094e-01 1.505213e-01 1.491789e-01 1.478959e-01 1.466780e-01 1.455410e-01 1.444906e-01 1.435446e-01 1.427082e-01 1.420002e-01 1.414244e-01 1.410001e-01 1.407284e-01 1.406279e-01 1.406959e-01 1.409488e-01 1.413786e-01 1.419981e-01 1.427924e-01 1.437695e-01 1.449059e-01 1.462034e-01 1.476288e-01 1.491764e-01 1.508030e-01 1.524943e-01 1.541968e-01 1.558876e-01 1.575030e-01 1.590116e-01 1.603406e-01 1.614508e-01 1.622613e-01 1.627257e-01 1.627574e-01 1.623034e-01 1.612733e-01 1.596091e-01 1.572186e-01 1.540406e-01 1.499841e-01 1.449872e-01 1.389636e-01 1.318543e-01 1.235822e-01 1.140960e-01 1.033336e-01 9.125729e-02 7.782589e-02 6.302221e-02 4.683304e-02 2.926875e-02 1.035111e-02 -9.874890e-03 -3.134555e-02 -5.397492e-02 -7.765096e-02 -1.022418e-01 -1.275821e-01 -1.534914e-01 -1.797484e-01 -2.061262e-01 -2.323493e-01 -2.581520e-01 -2.832138e-01 -3.072468e-01 -3.299043e-01 -3.509031e-01 -3.699000e-01 -3.866544e-01 -4.008663e-01 -4.123822e-01 -4.209897e-01 -4.266656e-01 -4.293242e-01 -4.291004e-01 -4.260555e-01 -4.204812e-01 -4.125759e-01 -4.027495e-01 -3.912942e-01 -3.786677e-01 -3.651899e-01 -3.512841e-01 -3.372322e-01 -3.233565e-01 -3.098580e-01 -2.969281e-01 -2.846796e-01 -2.731834e-01 -2.624870e-01 -2.525778e-01 -2.434746e-01 -2.351233e-01 -2.275429e-01 -2.206664e-01 -2.145231e-01 -2.090421e-01 -2.042561e-01 -2.000852e-01 -1.965515e-01 -1.935607e-01 -1.911155e-01 -1.891085e-01 -1.875248e-01 -1.862550e-01 -1.852754e-01 -1.844879e-01 -1.838702e-01 -1.833449e-01 -1.828956e-01 -1.824670e-01 -1.820474e-01 -1.815994e-01 -1.811111e-01 -1.805574e-01 -1.799226e-01 -1.791898e-01 -1.783391e-01 -1.773604e-01 -1.762316e-01 -1.749497e-01 -1.734919e-01 -1.718626e-01 -1.700393e-01 -1.680322e-01 -1.658189e-01 -1.634139e-01 -1.607939e-01 -1.579766e-01 -1.549379e-01 -1.516974e-01 -1.482311e-01 -1.445604e-01 -1.406620e-01 -1.365590e-01 -1.322298e-01 -1.276983e-01 -1.229453e-01 -1.179948e-01 -1.128308e-01 -1.074761e-01 -1.019188e-01 -9.617956e-02 -9.025144e-02 -8.415206e-02 -7.788024e-02 -7.145001e-02 -6.486630e-02 -5.813918e-02 -5.127986e-02 -4.429433e-02 -3.719987e-02 -2.999856e-02 -2.271328e-02 -1.534266e-02 -7.914452e-03 -4.244466e-04 7.095576e-03 1.465195e-02 2.220985e-02 2.977699e-02 3.731651e-02 4.483676e-02 5.229995e-02 5.971438e-02 6.704236e-02 7.429157e-02 8.142546e-02 8.845060e-02 9.533255e-02 1.020765e-01 1.086509e-01 1.150594e-01 1.212742e-01 1.272973e-01 1.331053e-01 1.386985e-01 1.440587e-01 1.491846e-01 1.540631e-01 1.586921e-01 1.630636e-01 1.671749e-01 1.710232e-01 1.746056e-01 1.779240e-01 1.809758e-01 1.837673e-01 1.862966e-01 1.885736e-01 1.905974e-01 1.923809e-01 1.939242e-01 1.952429e-01 1.963379e-01 1.972265e-01 1.979107e-01 1.984086e-01 1.987233e-01 1.988730e-01 1.988615e-01 1.987067e-01 1.984126e-01 1.979966e-01 1.974625e-01 1.968267e-01 1.960928e-01 1.952756e-01 1.943782e-01 1.934140e-01 1.923854e-01 1.913039e-01 1.901714e-01 1.889975e-01 1.877834e-01 1.865370e-01 1.852588e-01 1.839551e-01 1.826260e-01 1.812762e-01 1.799053e-01 1.785170e-01 1.771107e-01 1.756890e-01 1.742516e-01 1.728003e-01 1.713352e-01 1.698576e-01 1.683685e-01 1.668691e-01 1.653612e-01 1.638464e-01 1.623278e-01 1.608074e-01 1.592902e-01 1.577785e-01 
1.541877e-01 1.525853e-01 1.510091e-01 1.494644e-01 1.479635e-01 1.465128e-01 1.451274e-01 1.438143e-01 1.425911e-01 1.414656e-01 1.404572e-01 1.395734e-01 1.388354e-01 1.382493e-01 1.378368e-01 1.376015e-01 1.375647e-01 1.377258e-01 1.381040e-01 1.386931e-01 1.395086e-01 1.405366e-01 1.417875e-01 1.432381e-01 1.448918e-01 1.467150e-01 1.487028e-01 1.508102e-01 1.530233e-01 1.552854e-01 1.575733e-01 1.598190e-01 1.619903e-01 1.640092e-01 1.658348e-01 1.673809e-01 1.685987e-01 1.693959e-01 1.697168e-01 1.694648e-01 1.685787e-01 1.669601e-01 1.645436e-01 1.612318e-01 1.569574e-01 1.516275e-01 1.451764e-01 1.375206e-01 1.286006e-01 1.183477e-01 1.067154e-01 9.365585e-02 7.914282e-02 6.315677e-02 4.569922e-02 2.678627e-02 6.455084e-03 -1.523519e-02 -3.820448e-02 -6.234341e-02 -8.752286e-02 -1.135769e-01 -1.403234e-01 -1.675357e-01 -1.949786e-01 -2.223649e-01 -2.494125e-01 -2.757812e-01 -3.011581e-01 -3.251679e-01 -3.474955e-01 -3.677620e-01 -3.856915e-01 -4.009465e-01 -4.133420e-01 -4.226344e-01 -4.287823e-01 -4.316842e-01 -4.314790e-01 -4.282352e-01 -4.222745e-01 -4.138260e-01 -4.033503e-01 -3.911855e-01 -3.778464e-01 -3.636992e-01 -3.492123e-01 -3.346988e-01 -3.205012e-01 -3.068287e-01 -2.938651e-01 -2.817110e-01 -2.704105e-01 -2.599899e-01 -2.504052e-01 -2.416569e-01 -2.336676e-01 -2.264488e-01 -2.199230e-01 -2.141234e-01 -2.089774e-01 -2.045267e-01 -2.006919e-01 -1.975017e-01 -1.948584e-01 -1.927649e-01 -1.911063e-01 -1.898625e-01 -1.889150e-01 -1.882344e-01 -1.877161e-01 -1.873351e-01 -1.870124e-01 -1.867326e-01 -1.864436e-01 -1.861363e-01 -1.857786e-01 -1.853608e-01 -1.848621e-01 -1.842677e-01 -1.835633e-01 -1.827282e-01 -1.817542e-01 -1.806176e-01 -1.793174e-01 -1.778297e-01 -1.761614e-01 -1.742892e-01 -1.722263e-01 -1.699496e-01 -1.674762e-01 -1.647822e-01 -1.618868e-01 -1.587651e-01 -1.554382e-01 -1.518806e-01 -1.481151e-01 -1.441172e-01 -1.399112e-01 -1.354744e-01 -1.308322e-01 -1.259642e-01 -1.208959e-01 -1.156103e-01 -1.101313e-01 -1.044463e-01 -9.857686e-02 -9.251534e-02 -8.628021e-02 -7.986980e-02 -7.329869e-02 -6.657174e-02 -5.969920e-02 -5.269263e-02 -4.555781e-02 -3.831280e-02 -3.095910e-02 -2.352076e-02 -1.599550e-02 -8.412552e-03 -7.665977e-04 6.908870e-03 1.462143e-02 2.233437e-02 3.005668e-02 3.774956e-02 4.542260e-02 5.303601e-02 6.059927e-02 6.807272e-02 7.546507e-02 8.273788e-02 8.989861e-02 9.691106e-02 1.037810e-01 1.104756e-01 1.169986e-01 1.233212e-01 1.294453e-01 1.353469e-01 1.410259e-01 1.464637e-01 1.516585e-01 1.565973e-01 1.612771e-01 1.656904e-01 1.698336e-01 1.737046e-01 1.772996e-01 1.806214e-01 1.836667e-01 1.864428e-01 1.889471e-01 1.911907e-01 1.931722e-01 1.949057e-01 1.963910e-01 1.976449e-01 1.986681e-01 1.994791e-01 2.000800e-01 2.004899e-01 2.007119e-01 2.007655e-01 2.006544e-01 2.003975e-01 1.999991e-01 1.994772e-01 1.988359e-01 1.980922e-01 1.972499e-01 1.963243e-01 1.953186e-01 1.942465e-01 1.931106e-01 1.919224e-01 1.906840e-01 1.894050e-01 1.880866e-01 1.867365e-01 1.853553e-01 1.839490e-01 1.825176e-01 1.810657e-01 1.795926e-01 1.781018e-01 1.765926e-01 1.750672e-01 1.735252e-01 1.719681e-01 1.703959e-01 1.688098e-01 1.672105e-01 1.655993e-01 1.639779e-01 1.623480e-01 1.607127e-01 1.590743e-01 1.574379e-01 1.558066e-01 
1.521011e-01 1.503722e-01 1.486707e-01 1.470028e-01 1.453819e-01 1.438157e-01 1.423204e-01 1.409052e-01 1.395892e-01 1.383821e-01 1.373057e-01 1.363696e-01 1.355976e-01 1.349983e-01 1.345962e-01 1.343976e-01 1.344264e-01 1.346849e-01 1.351949e-01 1.359526e-01 1.369757e-01 1.382525e-01 1.397949e-01 1.415809e-01 1.436149e-01 1.458633e-01 1.483213e-01 1.509428e-01 1.537127e-01 1.565723e-01 1.594960e-01 1.624131e-01 1.652879e-01 1.680388e-01 1.706212e-01 1.729446e-01 1.749562e-01 1.765590e-01 1.776931e-01 1.782572e-01 1.781855e-01 1.773744e-01 1.757536e-01 1.732198e-01 1.697002e-01 1.650952e-01 1.593326e-01 1.523213e-01 1.439946e-01 1.342753e-01 1.231092e-01 1.104394e-01 9.623180e-02 8.045764e-02 6.311105e-02 4.419910e-02 2.375276e-02 1.822893e-03 -2.151451e-02 -4.615668e-02 -7.197525e-02 -9.880780e-02 -1.264679e-01 -1.547274e-01 -1.833398e-01 -2.120087e-01 -2.404319e-01 -2.682505e-01 -2.951210e-01 -3.206391e-01 -3.444497e-01 -3.661362e-01 -3.853776e-01 -4.017952e-01 -4.151630e-01 -4.252016e-01 -4.318447e-01 -4.349723e-01 -4.347266e-01 -4.311838e-01 -4.247034e-01 -4.155495e-01 -4.042491e-01 -3.911927e-01 -3.769711e-01 -3.620016e-01 -3.468138e-01 -3.317522e-01 -3.171871e-01 -3.033299e-01 -2.903562e-01 -2.783440e-01 -2.673052e-01 -2.572332e-01 -2.480468e-01 -2.397212e-01 -2.321521e-01 -2.253432e-01 -2.192065e-01 -2.137829e-01 -2.090014e-01 -2.049172e-01 -2.014537e-01 -1.986489e-01 -1.964015e-01 -1.947146e-01 -1.934623e-01 -1.926178e-01 -1.920495e-01 -1.917202e-01 -1.915167e-01 -1.914103e-01 -1.913204e-01 -1.912336e-01 -1.911019e-01 -1.909209e-01 -1.906645e-01 -1.903269e-01 -1.898923e-01 -1.893466e-01 -1.886782e-01 -1.878654e-01 -1.869009e-01 -1.857598e-01 -1.844422e-01 -1.829238e-01 -1.812132e-01 -1.792879e-01 -1.771631e-01 -1.748164e-01 -1.722669e-01 -1.694908e-01 -1.665087e-01 -1.632949e-01 -1.598715e-01 -1.562119e-01 -1.523400e-01 -1.482300e-01 -1.439076e-01 -1.393487e-01 -1.345806e-01 -1.295815e-01 -1.243787e-01 -1.189537e-01 -1.133324e-01 -1.075005e-01 -1.014813e-01 -9.526588e-02 -8.887388e-02 -8.230302e-02 -7.556850e-02 -6.867509e-02 -6.163327e-02 -5.445498e-02 -4.714582e-02 -3.972466e-02 -3.219246e-02 -2.457443e-02 -1.686749e-02 -9.102296e-03 -1.272597e-03 6.586537e-03 1.448364e-02 2.238035e-02 3.028655e-02 3.816177e-02 4.601639e-02 5.380896e-02 6.154961e-02 6.919708e-02 7.676056e-02 8.420012e-02 9.152345e-02 9.869307e-02 1.057148e-01 1.125545e-01 1.192160e-01 1.256694e-01 1.319163e-01 1.379320e-01 1.437160e-01 1.492491e-01 1.545292e-01 1.595428e-01 1.642866e-01 1.687529e-01 1.729377e-01 1.768391e-01 1.804529e-01 1.837824e-01 1.868239e-01 1.895854e-01 1.920640e-01 1.942717e-01 1.962070e-01 1.978850e-01 1.993057e-01 2.004866e-01 2.014290e-01 2.021521e-01 2.026586e-01 2.029684e-01 2.030853e-01 2.030294e-01 2.028051e-01 2.024322e-01 2.019153e-01 2.012731e-01 2.005104e-01 1.996446e-01 1.986798e-01 1.976318e-01 1.965043e-01 1.953111e-01 1.940549e-01 1.927477e-01 1.913914e-01 1.899957e-01 1.885619e-01 1.870975e-01 1.856032e-01 1.840847e-01 1.825418e-01 1.809790e-01 1.793953e-01 1.777940e-01 1.761741e-01 1.745377e-01 1.728839e-01 1.712141e-01 1.695281e-01 1.678268e-01 1.661108e-01 1.643813e-01 1.626399e-01 1.608884e-01 1.591298e-01 1.573668e-01 1.556047e-01 1.538469e-01 