# vtk DataFile Version 2.0
Comment goes here
ASCII

DATASET STRUCTURED_POINTS
FIELD FieldData 1
TIME 1 1 double
0.81000000
DIMENSIONS    128   16   1

ORIGIN    0.000   0.000   0.000
SPACING   0.0078125 0.015625   1.000

POINT_DATA   2048
SCALARS fMag double
LOOKUP_TABLE default

0 0 0 0 0 0 0 0 0 0 0 0 0 0 0 0 0 0 0 0 0 0 0 0 0 0 0 0 0 0 0 0 0 0 0 0 0 0 0 0 0 0 0 0 0 0 0 0 0 0 0 0 0 0 0 0 0 0 0 0 0 0 0 0 0 0 0 0 0 0 0 0 0 0 0 0 0 0 0 0 0 0 0 0 0 0 0 0 0 0 0 0 0 0 0 0 0 0 0 0 0 0 0 0 0 0 0 0 0 0 0 0 0 0 0 0 0 0 0 0 0 0 0 0 0 0 0 0 
0 0 0 0 0 0 0 0 0 0 0 0 0 0 0 0 0 0 0 0 0 0 0 0 0 0 0 0 0 0 0 0 0 0 0 0 0 0 0 0 0 0 0 0 0 0 0 0 0 0 0 0 0 0 0 0 0 0 0 0 0 0 0 0 0 0 0 0 0 0 0 0 0 0 0 0 0 0 0 0 0 0 0 0 0 0 0 0 0 0 0 0 0 0 0 0 0 0 0 0 0 0 0 0 0 0 0 0 0 0 0 0 0 0 0 0 0 0 0 0 0 0 0 0 0 0 0 0 
0 0 0 0 0 1.750695e+00 3.108224e+00 1.565246e+00 2.555356e+00 2.047096e+00 3.127440e+00 2.459608e+00 3.560730e+00 4.830478e+00 7.102727e+00 9.362836e+00 1.317199e+01 1.754460e+01 2.162308e+01 2.521583e+01 3.168649e+01 3.197948e+01 3.138350e+01 3.153361e+01 3.095447e+01 3.104515e+01 3.047610e+01 3.045925e+01 2.989349e+01 2.978043e+01 2.927905e+01 2.914055e+01 2.877772e+01 2.863207e+01 2.833828e+01 2.807665e+01 2.776373e+01 2.740634e+01 2.713225e+01 2.676154e+01 2.654944e+01 2.621136e+01 2.607381e+01 2.577442e+01 2.561357e+01 2.524131e+01 2.496064e+01 2.454199e+01 2.423914e+01 2.391533e+01 2.369654e+01 2.350893e+01 2.332832e+01 2.314028e+01 2.285368e+01 2.261103e+01 2.137027e+01 1.944899e+01 1.898136e+01 1.797217e+01 1.581201e+01 1.251583e+01 1.436027e+01 1.765002e+01 1.688940e+01 1.431448e+01 1.824217e+01 1.955465e+01 1.684010e+01 1.606702e+01 1.321253e+01 1.377439e+01 1.609614e+01 1.599113e+01 1.572702e+01 1.546950e+01 1.507316e+01 1.472931e+01 1.438485e+01 1.411683e+01 1.392412e+01 1.369114e+01 1.352452e+01 1.318811e+01 1.297300e+01 1.250962e+01 1.224778e+01 1.170662e+01 1.150714e+01 1.105882e+01 1.102087e+01 1.066221e+01 1.063265e+01 1.021567e+01 1.005561e+01 9.563735e+00 9.288087e+00 8.843686e+00 8.557809e+00 8.279005e+00 7.990300e+00 7.855091e+00 7.490409e+00 7.437391e+00 6.913215e+00 6.858670e+00 6.166282e+00 6.169778e+00 5.460511e+00 5.573874e+00 4.874245e+00 5.000053e+00 4.323881e+00 4.415825e+00 3.810265e+00 3.785614e+00 3.271749e+00 3.090966e+00 2.747090e+00 2.411704e+00 2.244035e+00 2.002092e+00 3.085021e+00 2.413427e-01 0 0 0 0 
0 0 0 0 0 5.151155e+00 9.155568e+00 4.623653e+00 7.524474e+00 6.023063e+00 9.200736e+00 7.237397e+00 1.047660e+01 1.420687e+01 2.088708e+01 2.753332e+01 3.873492e+01 5.159063e+01 6.358201e+01 7.414297e+01 9.316205e+01 9.402330e+01 9.227174e+01 9.271306e+01 9.101116e+01 9.127789e+01 8.960559e+01 8.955616e+01 8.789338e+01 8.756109e+01 8.608745e+01 8.568034e+01 8.461386e+01 8.418574e+01 8.332217e+01 8.255317e+01 8.163338e+01 8.058290e+01 7.977726e+01 7.868764e+01 7.806421e+01 7.707048e+01 7.666617e+01 7.578614e+01 7.531332e+01 7.421910e+01 7.339404e+01 7.216340e+01 7.127318e+01 7.032131e+01 6.967813e+01 6.912665e+01 6.859571e+01 6.804295e+01 6.720043e+01 6.648716e+01 6.478955e+01 6.244419e+01 6.183401e+01 6.022775e+01 5.910890e+01 5.563291e+01 5.499246e+01 5.628228e+01 5.512415e+01 5.104321e+01 5.318331e+01 5.171184e+01 4.860301e+01 4.899771e+01 4.586224e+01 4.535232e+01 4.758577e+01 4.702508e+01 4.624852e+01 4.549135e+01 4.432600e+01 4.331499e+01 4.230217e+01 4.151416e+01 4.094752e+01 4.026252e+01 3.977261e+01 3.878351e+01 3.815103e+01 3.678855e+01 3.601867e+01 3.442745e+01 3.384088e+01 3.252258e+01 3.241095e+01 3.135625e+01 3.126925e+01 3.004301e+01 2.957229e+01 2.812575e+01 2.731513e+01 2.600821e+01 2.516755e+01 2.434765e+01 2.349873e+01 2.310117e+01 2.202887e+01 2.187305e+01 2.033171e+01 2.017138e+01 1.813525e+01 1.814550e+01 1.605951e+01 1.639268e+01 1.433476e+01 1.470434e+01 1.271518e+01 1.298506e+01 1.120347e+01 1.113048e+01 9.618608e+00 9.086467e+00 8.074417e+00 7.086741e+00 6.592402e+00 5.882437e+00 9.072244e+00 7.097938e-01 0 0 0 0 
0 0 0 0 0 3.559194e+00 6.330937e+00 3.203511e+00 5.201815e+00 4.161540e+00 6.356634e+00 5.000867e+00 7.238670e+00 4.828177e+01 6.772284e+01 5.454721e+01 6.386441e+01 6.532798e+01 6.997848e+01 8.169937e+01 8.229216e+01 6.493085e+01 6.372159e+01 6.402634e+01 6.285145e+01 6.303571e+01 6.188121e+01 6.184714e+01 6.069915e+01 6.046975e+01 5.945229e+01 5.917120e+01 5.843484e+01 5.813924e+01 5.754298e+01 5.701203e+01 5.637695e+01 5.565165e+01 5.509539e+01 5.434306e+01 5.391261e+01 5.322649e+01 5.294733e+01 5.233970e+01 5.201323e+01 5.125769e+01 5.068801e+01 4.983826e+01 4.922358e+01 4.856631e+01 4.812220e+01 4.774140e+01 4.737478e+01 4.699310e+01 4.641133e+01 4.591883e+01 4.694096e+01 4.764483e+01 4.613721e+01 4.651518e+01 4.903196e+01 5.133430e+01 4.901910e+01 4.335914e+01 4.366673e+01 4.544653e+01 3.946080e+01 3.525414e+01 3.781136e+01 3.689564e+01 3.979201e+01 3.806816e+01 3.316681e+01 3.247923e+01 3.194293e+01 3.142002e+01 3.061522e+01 2.991702e+01 2.921755e+01 2.867334e+01 2.828202e+01 2.780897e+01 2.747063e+01 2.678756e+01 2.635077e+01 2.540982e+01 2.487813e+01 2.377918e+01 2.337408e+01 2.246359e+01 2.238648e+01 2.165802e+01 2.159791e+01 2.075095e+01 2.042581e+01 1.942668e+01 1.886680e+01 1.796410e+01 1.738348e+01 1.681719e+01 1.623088e+01 1.595633e+01 1.521577e+01 1.510820e+01 1.404367e+01 1.393297e+01 1.252664e+01 1.253371e+01 1.109283e+01 1.132285e+01 9.901237e+00 1.015631e+01 8.782082e+00 8.968239e+00 7.737340e+00 7.686688e+00 6.642101e+00 6.274314e+00 5.574918e+00 4.892068e+00 4.550021e+00 4.060397e+00 6.266070e+00 4.902773e-01 0 0 0 0 
0 0 0 0 0 1.587346e-01 2.835926e-01 1.451038e-01 2.326969e-01 1.855731e-01 2.833385e-01 2.230772e-01 3.227967e-01 5.373083e+01 5.881898e+01 5.525812e+01 5.694745e+01 5.687708e+01 5.520871e+01 5.840412e+01 5.401323e+01 2.887030e+00 2.833349e+00 2.846895e+00 2.794760e+00 2.802967e+00 2.751728e+00 2.750229e+00 2.699261e+00 2.689078e+00 2.643893e+00 2.631409e+00 2.598702e+00 2.585572e+00 2.559086e+00 2.535505e+00 2.507296e+00 2.475083e+00 2.450376e+00 2.416962e+00 2.397843e+00 2.367368e+00 2.354969e+00 2.327978e+00 2.313476e+00 2.279912e+00 2.254603e+00 2.216850e+00 2.189540e+00 2.160336e+00 2.140603e+00 2.123683e+00 2.107393e+00 2.090432e+00 2.064581e+00 2.042700e+00 3.508177e+00 3.671062e+00 1.712093e+00 3.306865e+00 4.614691e+00 6.760953e+00 7.437490e+00 3.743180e+00 4.108627e+00 7.691247e+00 3.724004e+00 2.179497e+00 5.606095e+00 3.136551e+00 6.861920e+00 7.038482e+00 1.700418e+00 1.445278e+00 1.421427e+00 1.398174e+00 1.362380e+00 1.331332e+00 1.300223e+00 1.276023e+00 1.258619e+00 1.237584e+00 1.222538e+00 1.192163e+00 1.172737e+00 1.130890e+00 1.107242e+00 1.058361e+00 1.040341e+00 9.998350e-01 9.964010e-01 9.639862e-01 9.613036e-01 9.236108e-01 9.091361e-01 8.646681e-01 8.397515e-01 7.995741e-01 7.737390e-01 7.485377e-01 7.224562e-01 7.102456e-01 6.773059e-01 6.725311e-01 6.251738e-01 6.202563e-01 5.576734e-01 5.579843e-01 4.938359e-01 5.040469e-01 4.407234e-01 4.520260e-01 3.907839e-01 3.990061e-01 3.441325e-01 3.418173e-01 2.952419e-01 2.788127e-01 2.475905e-01 2.170312e-01 2.016545e-01 1.800526e-01 2.788469e-01 2.182621e-02 0 0 0 0 
0 0 0 0 0 0 0 0 0 0 0 0 0 5.880581e+01 6.419194e+01 6.029992e+01 6.186805e+01 6.228531e+01 5.979557e+01 6.420079e+01 5.866182e+01 0 0 0 0 0 0 0 0 0 0 0 0 0 0 0 0 0 0 0 0 0 0 0 0 0 0 0 0 0 0 0 0 0 0 0 1.656068e-02 1.005886e+00 1.902309e+00 1.024766e+00 1.129849e+00 1.426903e+00 8.683705e-01 1.082483e+00 1.386669e+00 1.023314e+00 1.116270e+00 1.179007e+00 4.851120e-01 8.869265e-01 2.554980e-01 4.926531e-01 2.244170e-02 0 0 0 0 0 0 0 0 0 0 0 0 0 0 0 0 0 0 0 0 0 0 0 0 0 0 0 0 0 0 0 0 0 0 0 0 0 0 0 0 0 0 0 0 0 0 0 0 0 0 0 0 0 0 0 
0 0 0 0 0 0 0 0 0 0 0 0 0 5.786878e+01 5.996535e+01 5.817414e+01 5.899121e+01 5.888253e+01 5.822744e+01 5.973922e+01 5.794260e+01 0 0 0 0 0 0 0 0 0 0 0 0 0 0 0 0 0 0 0 0 0 0 0 0 0 0 0 0 0 0 0 0 0 0 0 1.305587e-03 1.218079e-02 9.592896e-03 2.047983e-02 4.371777e-02 5.299370e-02 3.060755e-02 1.470029e-02 3.333185e-02 2.700066e-02 5.303288e-02 9.521501e-02 7.212349e-02 3.601993e-02 1.690848e-02 2.439170e-04 8.250787e-05 0 0 0 0 0 0 0 0 0 0 0 0 0 0 0 0 0 0 0 0 0 0 0 0 0 0 0 0 0 0 0 0 0 0 0 0 0 0 0 0 0 0 0 0 0 0 0 0 0 0 0 0 0 0 0 
0 0 0 0 0 0 0 0 0 0 0 0 0 6.141991e+01 6.417079e+01 6.201682e+01 6.288165e+01 6.311311e+01 6.173187e+01 6.425855e+01 6.118749e+01 0 0 0 0 0 0 0 0 0 0 0 0 0 0 0 0 0 0 0 0 0 0 0 0 0 0 0 0 0 0 0 0 0 0 0 0 0 0 0 0 0 0 0 0 0 0 0 0 0 0 0 0 0 0 0 0 0 0 0 0 0 0 0 0 0 0 0 0 0 0 0 0 0 0 0 0 0 0 0 0 0 0 0 0 0 0 0 0 0 0 0 0 0 0 0 0 0 0 0 0 0 0 0 0 0 0 0 
0 0 0 0 0 0 0 0 0 0 0 0 0 5.787439e+01 5.996837e+01 5.817939e+01 5.899499e+01 5.888809e+01 5.823091e+01 5.974611e+01 5.794646e+01 0 0 0 0 0 0 0 0 0 0 0 0 0 0 0 0 0 0 0 0 0 0 0 0 0 0 0 0 0 0 0 0 0 0 0 0 0 0 0 0 0 0 0 0 0 0 0 0 0 0 0 0 0 0 0 0 0 0 0 0 0 0 0 0 0 0 0 0 0 0 0 0 0 0 0 0 0 0 0 0 0 0 0 0 0 0 0 0 0 0 0 0 0 0 0 0 0 0 0 0 0 0 0 0 0 0 0 
0 0 0 0 0 0 0 0 0 0 0 0 0 5.882073e+01 6.419567e+01 6.030631e+01 6.187587e+01 6.228713e+01 5.980248e+01 6.421094e+01 5.866323e+01 0 0 0 0 0 0 0 0 0 0 0 0 0 0 0 0 0 0 0 0 0 0 0 0 0 0 0 0 0 0 0 0 0 0 0 0 0 0 0 0 0 0 0 0 0 0 0 0 0 0 0 0 0 0 0 0 0 0 0 0 0 0 0 0 0 0 0 0 0 0 0 0 0 0 0 0 0 0 0 0 0 0 0 0 0 0 0 0 0 0 0 0 0 0 0 0 0 0 0 0 0 0 0 0 0 0 0 
0 0 0 0 0 1.586323e-01 2.829953e-01 1.445787e-01 2.333665e-01 1.866153e-01 2.846488e-01 2.232578e-01 3.234559e-01 5.374775e+01 5.882149e+01 5.527032e+01 5.696146e+01 5.688890e+01 5.521709e+01 5.841946e+01 5.401043e+01 2.885453e+00 2.832654e+00 2.847477e+00 2.796486e+00 2.805851e+00 2.755855e+00 2.755554e+00 2.704572e+00 2.694943e+00 2.649078e+00 2.636252e+00 2.599845e+00 2.585303e+00 2.558458e+00 2.540855e+00 2.516630e+00 2.487605e+00 2.460069e+00 2.425196e+00 2.404078e+00 2.372290e+00 2.355720e+00 2.321818e+00 2.303349e+00 2.266306e+00 2.244930e+00 2.206387e+00 2.184715e+00 2.151030e+00 2.133612e+00 2.105855e+00 2.088770e+00 2.061528e+00 2.038484e+00 2.005954e+00 1.973974e+00 1.939962e+00 1.908656e+00 1.881911e+00 1.852880e+00 1.827770e+00 1.795813e+00 1.772202e+00 1.739629e+00 1.716828e+00 1.679571e+00 1.654773e+00 1.615893e+00 1.591819e+00 1.552078e+00 1.527622e+00 1.487599e+00 1.464792e+00 1.428141e+00 1.407181e+00 1.375734e+00 1.355805e+00 1.327452e+00 1.301660e+00 1.272289e+00 1.241203e+00 1.217095e+00 1.184337e+00 1.164429e+00 1.127363e+00 1.112625e+00 1.075822e+00 1.066474e+00 1.025926e+00 1.014301e+00 9.694249e-01 9.567461e-01 9.130053e-01 8.990526e-01 8.593611e-01 8.430238e-01 8.095102e-01 7.869645e-01 7.596512e-01 7.290766e-01 7.094012e-01 6.675975e-01 6.534208e-01 6.022288e-01 6.012156e-01 5.496446e-01 5.605458e-01 5.031642e-01 5.149484e-01 4.514989e-01 4.604227e-01 3.945686e-01 3.962033e-01 3.364287e-01 3.343895e-01 2.919639e-01 2.822664e-01 2.558316e-01 2.284840e-01 2.123547e-01 1.862408e-01 2.804940e-01 2.182426e-02 0 0 0 0 
0 0 0 0 0 3.556903e+00 6.317543e+00 3.191815e+00 5.216879e+00 4.184931e+00 6.386060e+00 5.004930e+00 7.253526e+00 4.833433e+01 6.770729e+01 5.453357e+01 6.387707e+01 6.526660e+01 7.000036e+01 8.168888e+01 8.227925e+01 6.489536e+01 6.370597e+01 6.403948e+01 6.289036e+01 6.310067e+01 6.197417e+01 6.196706e+01 6.081875e+01 6.060184e+01 5.956906e+01 5.928027e+01 5.846061e+01 5.813325e+01 5.752891e+01 5.713259e+01 5.658721e+01 5.593368e+01 5.531374e+01 5.452855e+01 5.405310e+01 5.333740e+01 5.296433e+01 5.220108e+01 5.178531e+01 5.095145e+01 5.047030e+01 4.960276e+01 4.911500e+01 4.835690e+01 4.796491e+01 4.734028e+01 4.695580e+01 4.634279e+01 4.582422e+01 4.509224e+01 4.437260e+01 4.360732e+01 4.290287e+01 4.230112e+01 4.164790e+01 4.108296e+01 4.036391e+01 3.983272e+01 3.909986e+01 3.858692e+01 3.774877e+01 3.719093e+01 3.631636e+01 3.577485e+01 3.488100e+01 3.433095e+01 3.343087e+01 3.291797e+01 3.209380e+01 3.162248e+01 3.091539e+01 3.046727e+01 2.982976e+01 2.924978e+01 2.858940e+01 2.789035e+01 2.734829e+01 2.661166e+01 2.616403e+01 2.533057e+01 2.499918e+01 2.417173e+01 2.396157e+01 2.305009e+01 2.278882e+01 2.178023e+01 2.149539e+01 2.051250e+01 2.019908e+01 1.930730e+01 1.894028e+01 1.818732e+01 1.768065e+01 1.706691e+01 1.637962e+01 1.593735e+01 1.499759e+01 1.467877e+01 1.352810e+01 1.350511e+01 1.234624e+01 1.259126e+01 1.130239e+01 1.156774e+01 1.014325e+01 1.034484e+01 8.866980e+00 8.905087e+00 7.564124e+00 7.519671e+00 6.568289e+00 6.351768e+00 5.759887e+00 5.149206e+00 4.790334e+00 4.199393e+00 6.303094e+00 4.902335e-01 0 0 0 0 
0 0 0 0 0 5.147840e+00 9.136183e+00 4.606746e+00 7.546290e+00 6.056922e+00 9.243335e+00 7.243281e+00 1.049812e+01 1.426932e+01 2.089572e+01 2.747702e+01 3.872756e+01 5.158998e+01 6.359983e+01 7.416960e+01 9.312039e+01 9.397190e+01 9.224912e+01 9.273210e+01 9.106752e+01 9.137199e+01 8.974022e+01 8.972985e+01 8.806660e+01 8.775241e+01 8.625658e+01 8.583832e+01 8.465119e+01 8.417708e+01 8.330181e+01 8.272782e+01 8.193794e+01 8.099140e+01 8.009355e+01 7.895632e+01 7.826772e+01 7.723114e+01 7.669082e+01 7.558541e+01 7.498324e+01 7.377559e+01 7.307874e+01 7.182234e+01 7.111595e+01 7.001804e+01 6.945035e+01 6.854577e+01 6.798896e+01 6.710121e+01 6.635021e+01 6.529018e+01 6.424801e+01 6.313975e+01 6.211958e+01 6.124815e+01 6.030217e+01 5.948406e+01 5.844277e+01 5.767353e+01 5.661225e+01 5.586944e+01 5.465570e+01 5.384789e+01 5.258142e+01 5.179728e+01 5.050292e+01 4.970642e+01 4.840307e+01 4.766037e+01 4.646696e+01 4.578448e+01 4.476063e+01 4.411174e+01 4.318865e+01 4.234882e+01 4.139260e+01 4.038036e+01 3.959547e+01 3.852882e+01 3.788065e+01 3.667381e+01 3.619395e+01 3.499584e+01 3.469153e+01 3.337177e+01 3.299349e+01 3.153318e+01 3.112079e+01 2.969773e+01 2.924399e+01 2.795288e+01 2.742151e+01 2.633139e+01 2.559779e+01 2.470921e+01 2.371407e+01 2.307370e+01 2.171298e+01 2.125133e+01 1.958526e+01 1.955192e+01 1.787407e+01 1.822883e+01 1.636289e+01 1.674721e+01 1.468512e+01 1.497726e+01 1.283806e+01 1.289358e+01 1.095266e+01 1.088865e+01 9.511701e+00 9.198569e+00 8.342166e+00 7.458979e+00 6.940302e+00 6.083664e+00 9.125852e+00 7.097304e-01 0 0 0 0 
0 0 0 0 0 1.749569e+00 3.101635e+00 1.559510e+00 2.562777e+00 2.058606e+00 3.141924e+00 2.461609e+00 3.568052e+00 4.851714e+00 7.105662e+00 9.343685e+00 1.316947e+01 1.754436e+01 2.162913e+01 2.522488e+01 3.167232e+01 3.196200e+01 3.137580e+01 3.154010e+01 3.097365e+01 3.107717e+01 3.052191e+01 3.051834e+01 2.995242e+01 2.984552e+01 2.933660e+01 2.919430e+01 2.879042e+01 2.862913e+01 2.833136e+01 2.813608e+01 2.786736e+01 2.754533e+01 2.723987e+01 2.685296e+01 2.661869e+01 2.626603e+01 2.608221e+01 2.570614e+01 2.550128e+01 2.509044e+01 2.485338e+01 2.442596e+01 2.418566e+01 2.381217e+01 2.361906e+01 2.331134e+01 2.312193e+01 2.281995e+01 2.256448e+01 2.220390e+01 2.184938e+01 2.147239e+01 2.112537e+01 2.082894e+01 2.050716e+01 2.022887e+01 1.987467e+01 1.961301e+01 1.925201e+01 1.899935e+01 1.858650e+01 1.831173e+01 1.788096e+01 1.761425e+01 1.717400e+01 1.690309e+01 1.645980e+01 1.620719e+01 1.580130e+01 1.556918e+01 1.522097e+01 1.500028e+01 1.468634e+01 1.440070e+01 1.407549e+01 1.373122e+01 1.346428e+01 1.310150e+01 1.288105e+01 1.247060e+01 1.230740e+01 1.189993e+01 1.179644e+01 1.134761e+01 1.121897e+01 1.072237e+01 1.058215e+01 1.009824e+01 9.943961e+00 9.504933e+00 9.324253e+00 8.953575e+00 8.704110e+00 8.401950e+00 8.063525e+00 7.845747e+00 7.382989e+00 7.225973e+00 6.659389e+00 6.648024e+00 6.077469e+00 6.198113e+00 5.563669e+00 5.694424e+00 4.993367e+00 5.092841e+00 4.365649e+00 4.384698e+00 3.724963e+00 3.703364e+00 3.235376e+00 3.129067e+00 2.838111e+00 2.538257e+00 2.362322e+00 2.070512e+00 3.103252e+00 2.413212e-01 0 0 0 0 
0 0 0 0 0 0 0 0 0 0 0 0 0 0 0 0 0 0 0 0 0 0 0 0 0 0 0 0 0 0 0 0 0 0 0 0 0 0 0 0 0 0 0 0 0 0 0 0 0 0 0 0 0 0 0 0 0 0 0 0 0 0 0 0 0 0 0 0 0 0 0 0 0 0 0 0 0 0 0 0 0 0 0 0 0 0 0 0 0 0 0 0 0 0 0 0 0 0 0 0 0 0 0 0 0 0 0 0 0 0 0 0 0 0 0 0 0 0 0 0 0 0 0 0 0 0 0 0 
