# vtk DataFile Version 2.0
Comment goes here
ASCII

DATASET STRUCTURED_POINTS
FIELD FieldData 1
TIME 1 1 double
0.96000000
DIMENSIONS    128   16   1

ORIGIN    0.000   0.000   0.000
SPACING   0.0078125 0.015625   1.000

POINT_DATA   2048
SCALARS fMag double
LOOKUP_TABLE default

0 0 0 0 0 0 0 0 0 0 0 0 0 0 0 0 0 0 0 0 0 0 0 0 0 0 0 0 0 0 0 0 0 0 0 0 0 0 0 0 0 0 0 0 0 0 0 0 0 0 0 0 0 0 0 0 0 0 0 0 0 0 0 0 0 0 0 0 0 0 0 0 0 0 0 0 0 0 0 0 0 0 0 0 0 0 0 0 0 0 0 0 0 0 0 0 0 0 0 0 0 0 0 0 0 0 0 0 0 0 0 0 0 0 0 0 0 0 0 0 0 0 0 0 0 0 0 0 
0 0 0 0 0 0 0 0 0 0 0 0 0 0 0 0 0 0 0 0 0 0 0 0 0 0 0 0 0 0 0 0 0 0 0 0 0 0 0 0 0 0 0 0 0 0 0 0 0 0 0 0 0 0 0 0 0 0 0 0 0 0 0 0 0 0 0 0 0 0 0 0 0 0 0 0 0 0 0 0 0 0 0 0 0 0 0 0 0 0 0 0 0 0 0 0 0 0 0 0 0 0 0 0 0 0 0 0 0 0 0 0 0 0 0 0 0 0 0 0 0 0 0 0 0 0 0 0 
0 0 0 0 0 1.716994e+00 3.120403e+00 1.556943e+00 2.572039e+00 2.024308e+00 3.141631e+00 2.431961e+00 3.562823e+00 4.896880e+00 7.111233e+00 9.334816e+00 1.321113e+01 1.753752e+01 2.161501e+01 2.522716e+01 3.164517e+01 3.194666e+01 3.136487e+01 3.149384e+01 3.092759e+01 3.099436e+01 3.046374e+01 3.044409e+01 2.991322e+01 2.978624e+01 2.929448e+01 2.913244e+01 2.874145e+01 2.856855e+01 2.825857e+01 2.804783e+01 2.776809e+01 2.748071e+01 2.718877e+01 2.683606e+01 2.656023e+01 2.620251e+01 2.597634e+01 2.564759e+01 2.546928e+01 2.515226e+01 2.496101e+01 2.460381e+01 2.437220e+01 2.400603e+01 2.377455e+01 2.343427e+01 2.321194e+01 2.291957e+01 2.273354e+01 2.253210e+01 2.187957e+01 2.168478e+01 2.198162e+01 2.076563e+01 1.878413e+01 1.636068e+01 1.742787e+01 2.090731e+01 2.039681e+01 1.772502e+01 2.220850e+01 2.370511e+01 2.037815e+01 1.919389e+01 1.589577e+01 1.432722e+01 1.595574e+01 1.592395e+01 1.563045e+01 1.543652e+01 1.512514e+01 1.487600e+01 1.458426e+01 1.428972e+01 1.402701e+01 1.368672e+01 1.346733e+01 1.308799e+01 1.290038e+01 1.246959e+01 1.230433e+01 1.184275e+01 1.170606e+01 1.123778e+01 1.112840e+01 1.067794e+01 1.056762e+01 1.011544e+01 9.947019e+00 9.512668e+00 9.304654e+00 8.949531e+00 8.691077e+00 8.415261e+00 8.074857e+00 7.887490e+00 7.447942e+00 7.334120e+00 6.782308e+00 6.753241e+00 6.136527e+00 6.202359e+00 5.542965e+00 5.655748e+00 4.964028e+00 5.060645e+00 4.361445e+00 4.399574e+00 3.776155e+00 3.751332e+00 3.268811e+00 3.114352e+00 2.787532e+00 2.464115e+00 2.298550e+00 1.990801e+00 3.059030e+00 3.362826e-01 0 0 0 0 
0 0 0 0 0 5.048281e+00 9.165197e+00 4.560296e+00 7.556721e+00 5.951861e+00 9.238002e+00 7.149598e+00 1.047525e+01 1.440404e+01 2.092031e+01 2.746167e+01 3.886491e+01 5.159514e+01 6.359256e+01 7.422311e+01 9.311275e+01 9.399993e+01 9.228736e+01 9.266689e+01 9.099994e+01 9.119629e+01 8.963430e+01 8.957637e+01 8.801374e+01 8.763999e+01 8.619258e+01 8.571565e+01 8.456489e+01 8.405602e+01 8.314373e+01 8.252346e+01 8.170017e+01 8.085434e+01 7.999511e+01 7.895701e+01 7.814520e+01 7.709239e+01 7.642672e+01 7.545917e+01 7.493439e+01 7.400139e+01 7.343853e+01 7.238726e+01 7.170566e+01 7.062804e+01 6.994681e+01 6.894541e+01 6.829112e+01 6.743072e+01 6.688329e+01 6.629049e+01 6.539257e+01 6.521801e+01 6.529594e+01 6.354722e+01 6.183450e+01 5.961093e+01 5.831004e+01 5.976573e+01 5.895584e+01 5.495071e+01 5.803605e+01 5.677728e+01 5.336998e+01 5.266027e+01 4.986035e+01 4.655172e+01 4.728051e+01 4.684540e+01 4.598185e+01 4.541128e+01 4.449512e+01 4.376207e+01 4.290372e+01 4.203708e+01 4.126414e+01 4.026289e+01 3.961738e+01 3.850125e+01 3.794923e+01 3.668174e+01 3.619551e+01 3.483749e+01 3.443535e+01 3.305766e+01 3.273592e+01 3.141074e+01 3.108625e+01 2.975605e+01 2.926063e+01 2.798292e+01 2.737101e+01 2.632636e+01 2.556602e+01 2.475463e+01 2.375314e+01 2.320188e+01 2.190869e+01 2.157375e+01 1.995031e+01 1.986473e+01 1.805049e+01 1.824417e+01 1.630459e+01 1.663656e+01 1.460213e+01 1.488672e+01 1.283051e+01 1.294315e+01 1.110996e+01 1.103739e+01 9.618596e+00 9.164620e+00 8.203825e+00 7.253302e+00 6.767009e+00 5.859903e+00 8.998723e+00 9.891874e-01 0 0 0 0 
0 0 0 0 0 3.486314e+00 6.324895e+00 3.140876e+00 5.215938e+00 4.110331e+00 6.380209e+00 4.937076e+00 7.234097e+00 4.868228e+01 6.753801e+01 5.444287e+01 6.401045e+01 6.504687e+01 7.002767e+01 8.158781e+01 8.209583e+01 6.495017e+01 6.376651e+01 6.402877e+01 6.287658e+01 6.301219e+01 6.193258e+01 6.189250e+01 6.081251e+01 6.055419e+01 5.955387e+01 5.922426e+01 5.842899e+01 5.807732e+01 5.744685e+01 5.701819e+01 5.644923e+01 5.586468e+01 5.527088e+01 5.455346e+01 5.399244e+01 5.326485e+01 5.280482e+01 5.213617e+01 5.177350e+01 5.112873e+01 5.073976e+01 5.001327e+01 4.954225e+01 4.879756e+01 4.832680e+01 4.763479e+01 4.718266e+01 4.658809e+01 4.620980e+01 4.580017e+01 4.608201e+01 4.516317e+01 4.334076e+01 4.450063e+01 4.524886e+01 4.643275e+01 4.449939e+01 3.872620e+01 3.867687e+01 4.113659e+01 3.527776e+01 3.121682e+01 3.544721e+01 3.438764e+01 3.726843e+01 3.673160e+01 3.302580e+01 3.236379e+01 3.176714e+01 3.137291e+01 3.073991e+01 3.023341e+01 2.964036e+01 2.904155e+01 2.850751e+01 2.781569e+01 2.736969e+01 2.659850e+01 2.621709e+01 2.534134e+01 2.500539e+01 2.406712e+01 2.378928e+01 2.283744e+01 2.261517e+01 2.169965e+01 2.147549e+01 2.055652e+01 2.021429e+01 1.933159e+01 1.890886e+01 1.818718e+01 1.766188e+01 1.710132e+01 1.640939e+01 1.602852e+01 1.513504e+01 1.490359e+01 1.378197e+01 1.372280e+01 1.246942e+01 1.260325e+01 1.126337e+01 1.149281e+01 1.008753e+01 1.028432e+01 8.864102e+00 8.942147e+00 7.676043e+00 7.626136e+00 6.646276e+00 6.332840e+00 5.669377e+00 5.013136e+00 4.677548e+00 4.050006e+00 6.216702e+00 6.833474e-01 0 0 0 0 
0 0 0 0 0 1.550276e-01 2.801008e-01 1.375235e-01 2.312560e-01 1.827787e-01 2.838381e-01 2.194388e-01 3.216692e-01 5.381486e+01 5.877870e+01 5.525703e+01 5.693051e+01 5.683019e+01 5.517478e+01 5.834574e+01 5.392350e+01 2.896895e+00 2.844015e+00 2.855716e+00 2.804227e+00 2.810262e+00 2.762023e+00 2.760221e+00 2.711980e+00 2.700441e+00 2.655770e+00 2.641052e+00 2.605544e+00 2.589843e+00 2.561695e+00 2.542556e+00 2.517154e+00 2.491053e+00 2.464542e+00 2.432509e+00 2.407462e+00 2.374976e+00 2.354437e+00 2.324585e+00 2.308394e+00 2.279609e+00 2.262245e+00 2.229816e+00 2.208790e+00 2.175551e+00 2.154540e+00 2.123655e+00 2.103476e+00 2.076943e+00 2.060062e+00 2.041784e+00 2.472833e+00 7.512702e-01 2.184598e+00 1.305059e+00 1.458378e+00 2.123730e+00 2.861389e+00 1.374882e+00 2.030985e+00 3.016010e+00 1.717204e+00 3.630271e+00 1.925898e+00 1.244524e+00 3.164674e+00 4.607919e+00 1.692940e+00 1.442343e+00 1.415737e+00 1.398157e+00 1.369932e+00 1.347344e+00 1.320900e+00 1.294194e+00 1.270381e+00 1.239527e+00 1.219638e+00 1.185246e+00 1.168237e+00 1.129186e+00 1.114205e+00 1.072373e+00 1.059987e+00 1.017557e+00 1.007653e+00 9.668504e-01 9.568665e-01 9.159169e-01 9.006705e-01 8.613408e-01 8.425049e-01 8.103492e-01 7.869359e-01 7.619554e-01 7.311078e-01 7.141268e-01 6.742920e-01 6.639653e-01 6.139661e-01 6.113199e-01 5.554641e-01 5.614308e-01 5.017458e-01 5.119938e-01 4.494253e-01 4.582398e-01 3.950332e-01 3.985693e-01 3.422406e-01 3.400734e-01 2.964898e-01 2.825720e-01 2.530836e-01 2.239493e-01 2.090883e-01 1.809037e-01 2.770085e-01 3.044266e-02 0 0 0 0 
0 0 0 0 0 0 0 0 0 0 0 0 0 5.887715e+01 6.413740e+01 6.029751e+01 6.183771e+01 6.223142e+01 5.974350e+01 6.414618e+01 5.856386e+01 0 0 0 0 0 0 0 0 0 0 0 0 0 0 0 0 0 0 0 0 0 0 0 0 0 0 0 0 0 0 0 0 0 0 0 9.826511e-02 9.815982e-01 1.840581e+00 1.297862e+00 1.179658e+00 1.440946e+00 9.154548e-01 9.547466e-01 1.377510e+00 1.017913e+00 9.716554e-01 1.110934e+00 7.270484e-01 5.688852e-01 1.425754e-01 1.118085e-01 8.896939e-03 0 0 0 0 0 0 0 0 0 0 0 0 0 0 0 0 0 0 0 0 0 0 0 0 0 0 0 0 0 0 0 0 0 0 0 0 0 0 0 0 0 0 0 0 0 0 0 0 0 0 0 0 0 0 0 
0 0 0 0 0 0 0 0 0 0 0 0 0 5.790071e+01 5.987830e+01 5.819214e+01 5.891961e+01 5.889157e+01 5.815702e+01 5.975720e+01 5.786681e+01 0 0 0 0 0 0 0 0 0 0 0 0 0 0 0 0 0 0 0 0 0 0 0 0 0 0 0 0 0 0 0 0 0 0 0 1.438942e-03 1.147439e-02 2.411763e-02 1.159036e-02 2.306017e-02 4.298994e-02 2.426809e-02 1.133211e-02 2.949506e-02 2.892772e-02 4.998317e-02 9.330748e-02 8.995671e-02 3.971939e-02 3.107779e-03 2.132500e-03 4.579089e-04 0 0 0 0 0 0 0 0 0 0 0 0 0 0 0 0 0 0 0 0 0 0 0 0 0 0 0 0 0 0 0 0 0 0 0 0 0 0 0 0 0 0 0 0 0 0 0 0 0 0 0 0 0 0 0 
0 0 0 0 0 0 0 0 0 0 0 0 0 6.145404e+01 6.407363e+01 6.202330e+01 6.280254e+01 6.309780e+01 6.165224e+01 6.424581e+01 6.109704e+01 0 0 0 0 0 0 0 0 0 0 0 0 0 0 0 0 0 0 0 0 0 0 0 0 0 0 0 0 0 0 0 0 0 0 0 0 0 0 0 0 0 0 0 0 0 0 0 0 0 0 0 0 0 0 0 0 0 0 0 0 0 0 0 0 0 0 0 0 0 0 0 0 0 0 0 0 0 0 0 0 0 0 0 0 0 0 0 0 0 0 0 0 0 0 0 0 0 0 0 0 0 0 0 0 0 0 0 
0 0 0 0 0 0 0 0 0 0 0 0 0 5.789919e+01 5.987457e+01 5.818744e+01 5.891524e+01 5.888161e+01 5.815390e+01 5.974158e+01 5.786463e+01 0 0 0 0 0 0 0 0 0 0 0 0 0 0 0 0 0 0 0 0 0 0 0 0 0 0 0 0 0 0 0 0 0 0 0 0 0 0 0 0 0 0 0 0 0 0 0 0 0 0 0 0 0 0 0 0 0 0 0 0 0 0 0 0 0 0 0 0 0 0 0 0 0 0 0 0 0 0 0 0 0 0 0 0 0 0 0 0 0 0 0 0 0 0 0 0 0 0 0 0 0 0 0 0 0 0 0 
0 0 0 0 0 0 0 0 0 0 0 0 0 5.888093e+01 6.412149e+01 6.029585e+01 6.182111e+01 6.221300e+01 5.973761e+01 6.410100e+01 5.856989e+01 0 0 0 0 0 0 0 0 0 0 0 0 0 0 0 0 0 0 0 0 0 0 0 0 0 0 0 0 0 0 0 0 0 0 0 0 0 0 0 0 0 0 0 0 0 0 0 0 0 0 0 0 0 0 0 0 0 0 0 0 0 0 0 0 0 0 0 0 0 0 0 0 0 0 0 0 0 0 0 0 0 0 0 0 0 0 0 0 0 0 0 0 0 0 0 0 0 0 0 0 0 0 0 0 0 0 0 
0 0 0 0 0 1.549078e-01 2.799055e-01 1.375727e-01 2.316346e-01 1.831532e-01 2.844228e-01 2.197928e-01 3.220863e-01 5.382000e+01 5.876361e+01 5.525140e+01 5.690721e+01 5.680164e+01 5.516113e+01 5.828741e+01 5.392843e+01 2.896200e+00 2.841105e+00 2.854452e+00 2.799644e+00 2.805558e+00 2.752005e+00 2.751932e+00 2.704650e+00 2.700929e+00 2.659846e+00 2.648974e+00 2.612149e+00 2.594032e+00 2.561626e+00 2.536712e+00 2.508666e+00 2.480204e+00 2.458466e+00 2.428707e+00 2.410811e+00 2.378406e+00 2.360470e+00 2.323749e+00 2.302622e+00 2.263456e+00 2.243170e+00 2.208635e+00 2.191726e+00 2.160709e+00 2.142662e+00 2.112037e+00 2.090027e+00 2.056963e+00 2.028239e+00 1.993308e+00 1.962703e+00 1.932293e+00 1.903831e+00 1.878379e+00 1.850643e+00 1.827259e+00 1.796765e+00 1.771520e+00 1.735642e+00 1.708726e+00 1.668678e+00 1.640905e+00 1.599914e+00 1.575351e+00 1.539439e+00 1.522240e+00 1.490940e+00 1.475372e+00 1.444109e+00 1.424701e+00 1.390377e+00 1.362313e+00 1.324565e+00 1.291435e+00 1.260086e+00 1.230399e+00 1.210952e+00 1.184403e+00 1.173077e+00 1.142709e+00 1.130346e+00 1.089139e+00 1.072279e+00 1.024107e+00 1.007182e+00 9.593098e-01 9.460912e-01 9.055126e-01 8.967802e-01 8.630786e-01 8.496950e-01 8.178952e-01 7.949885e-01 7.674847e-01 7.343343e-01 7.121919e-01 6.686318e-01 6.555727e-01 6.058668e-01 6.042222e-01 5.502449e-01 5.584765e-01 5.015876e-01 5.142102e-01 4.527811e-01 4.620964e-01 3.989841e-01 4.022369e-01 3.438318e-01 3.390488e-01 2.935649e-01 2.810980e-01 2.538559e-01 2.267938e-01 2.111076e-01 1.823181e-01 2.772958e-01 3.038226e-02 0 0 0 0 
0 0 0 0 0 3.483620e+00 6.320476e+00 3.141927e+00 5.224415e+00 4.118744e+00 6.393348e+00 4.945040e+00 7.243481e+00 4.870542e+01 6.749087e+01 5.448156e+01 6.393233e+01 6.504654e+01 6.998304e+01 8.143628e+01 8.209618e+01 6.493439e+01 6.370116e+01 6.400033e+01 6.277391e+01 6.290687e+01 6.170828e+01 6.170693e+01 6.064838e+01 6.056510e+01 5.964508e+01 5.940156e+01 5.857676e+01 5.817096e+01 5.744511e+01 5.688714e+01 5.625894e+01 5.562153e+01 5.513468e+01 5.446823e+01 5.406741e+01 5.334167e+01 5.293996e+01 5.211747e+01 5.164425e+01 5.076689e+01 5.031246e+01 4.953876e+01 4.915994e+01 4.846498e+01 4.806061e+01 4.737440e+01 4.688123e+01 4.614031e+01 4.549667e+01 4.471388e+01 4.402805e+01 4.334653e+01 4.270871e+01 4.213830e+01 4.151673e+01 4.099264e+01 4.030921e+01 3.974340e+01 3.893925e+01 3.833594e+01 3.743827e+01 3.681571e+01 3.589681e+01 3.534615e+01 3.454102e+01 3.415540e+01 3.345359e+01 3.310451e+01 3.240347e+01 3.196827e+01 3.119853e+01 3.056924e+01 2.972269e+01 2.897979e+01 2.827673e+01 2.761103e+01 2.717492e+01 2.657958e+01 2.632562e+01 2.564462e+01 2.536739e+01 2.444319e+01 2.406501e+01 2.298441e+01 2.260468e+01 2.153059e+01 2.123389e+01 2.032326e+01 2.012713e+01 1.937072e+01 1.907028e+01 1.835657e+01 1.784261e+01 1.722543e+01 1.648181e+01 1.598509e+01 1.500801e+01 1.471523e+01 1.360018e+01 1.356350e+01 1.235229e+01 1.253696e+01 1.125986e+01 1.154260e+01 1.016292e+01 1.037095e+01 8.952870e+00 9.024565e+00 7.711850e+00 7.603264e+00 6.580726e+00 6.299830e+00 5.686788e+00 5.077029e+00 4.722832e+00 4.081751e+00 6.223153e+00 6.819929e-01 0 0 0 0 
0 0 0 0 0 5.044380e+00 9.158790e+00 4.561803e+00 7.568987e+00 5.964039e+00 9.257025e+00 7.161131e+00 1.048884e+01 1.440714e+01 2.091800e+01 2.745620e+01 3.887493e+01 5.152975e+01 6.359416e+01 7.412963e+01 9.304477e+01 9.397705e+01 9.219275e+01 9.262572e+01 9.085137e+01 9.104389e+01 8.930976e+01 8.930787e+01 8.777626e+01 8.765577e+01 8.632454e+01 8.597217e+01 8.477868e+01 8.419149e+01 8.314115e+01 8.233380e+01 8.142477e+01 8.050246e+01 7.979798e+01 7.883365e+01 7.825368e+01 7.720354e+01 7.662228e+01 7.543212e+01 7.474736e+01 7.347779e+01 7.282021e+01 7.170061e+01 7.115244e+01 7.014676e+01 6.956161e+01 6.856859e+01 6.785491e+01 6.678270e+01 6.585128e+01 6.471847e+01 6.372600e+01 6.273974e+01 6.181672e+01 6.099124e+01 6.009174e+01 5.933329e+01 5.834427e+01 5.752543e+01 5.636169e+01 5.548858e+01 5.418947e+01 5.328850e+01 5.195865e+01 5.116171e+01 4.999648e+01 4.943839e+01 4.842268e+01 4.791746e+01 4.690284e+01 4.627297e+01 4.515892e+01 4.424814e+01 4.302292e+01 4.194771e+01 4.093016e+01 3.996669e+01 3.933549e+01 3.847386e+01 3.810631e+01 3.712069e+01 3.671945e+01 3.538181e+01 3.483444e+01 3.327040e+01 3.272075e+01 3.116607e+01 3.073658e+01 2.941845e+01 2.913452e+01 2.803959e+01 2.760468e+01 2.657157e+01 2.582764e+01 2.493427e+01 2.385797e+01 2.313902e+01 2.172482e+01 2.130110e+01 1.968716e+01 1.963413e+01 1.788093e+01 1.814823e+01 1.629951e+01 1.670864e+01 1.471127e+01 1.501214e+01 1.295903e+01 1.306248e+01 1.116181e+01 1.100432e+01 9.523736e+00 9.116855e+00 8.229048e+00 7.345802e+00 6.832550e+00 5.905854e+00 9.008063e+00 9.872269e-01 0 0 0 0 
0 0 0 0 0 1.715668e+00 3.118220e+00 1.557449e+00 2.576207e+00 2.028448e+00 3.148100e+00 2.435883e+00 3.567446e+00 4.897938e+00 7.110448e+00 9.332959e+00 1.321455e+01 1.751532e+01 2.161558e+01 2.519542e+01 3.162206e+01 3.193886e+01 3.133270e+01 3.147984e+01 3.087711e+01 3.094258e+01 3.035348e+01 3.035287e+01 2.983253e+01 2.979160e+01 2.933931e+01 2.921958e+01 2.881406e+01 2.861455e+01 2.825768e+01 2.798336e+01 2.767450e+01 2.736113e+01 2.712177e+01 2.679413e+01 2.659708e+01 2.624028e+01 2.604278e+01 2.563840e+01 2.540573e+01 2.497435e+01 2.475092e+01 2.437049e+01 2.418422e+01 2.384249e+01 2.364365e+01 2.330622e+01 2.306371e+01 2.269936e+01 2.238285e+01 2.199790e+01 2.166065e+01 2.132549e+01 2.101184e+01 2.073132e+01 2.042565e+01 2.016791e+01 1.983182e+01 1.955355e+01 1.915808e+01 1.886137e+01 1.841988e+01 1.811369e+01 1.766175e+01 1.739091e+01 1.699490e+01 1.680523e+01 1.646003e+01 1.628832e+01 1.594348e+01 1.572940e+01 1.535076e+01 1.504122e+01 1.462479e+01 1.425936e+01 1.391351e+01 1.358606e+01 1.337153e+01 1.307868e+01 1.295377e+01 1.261878e+01 1.248241e+01 1.202776e+01 1.184171e+01 1.131009e+01 1.112326e+01 1.059479e+01 1.044879e+01 1.000070e+01 9.904166e+00 9.531947e+00 9.384096e+00 9.032890e+00 8.780015e+00 8.476330e+00 8.110495e+00 7.866118e+00 7.385438e+00 7.241435e+00 6.692850e+00 6.674851e+00 6.078885e+00 6.169744e+00 5.541244e+00 5.680258e+00 5.001138e+00 5.103290e+00 4.405146e+00 4.440152e+00 3.793796e+00 3.740103e+00 3.236575e+00 3.098123e+00 2.796116e+00 2.495566e+00 2.320825e+00 2.006422e+00 3.062205e+00 3.356163e-01 0 0 0 0 
0 0 0 0 0 0 0 0 0 0 0 0 0 0 0 0 0 0 0 0 0 0 0 0 0 0 0 0 0 0 0 0 0 0 0 0 0 0 0 0 0 0 0 0 0 0 0 0 0 0 0 0 0 0 0 0 0 0 0 0 0 0 0 0 0 0 0 0 0 0 0 0 0 0 0 0 0 0 0 0 0 0 0 0 0 0 0 0 0 0 0 0 0 0 0 0 0 0 0 0 0 0 0 0 0 0 0 0 0 0 0 0 0 0 0 0 0 0 0 0 0 0 0 0 0 0 0 0 
