# vtk DataFile Version 2.0
Comment goes here
ASCII

DATASET STRUCTURED_POINTS
FIELD FieldData 1
TIME 1 1 double
0.65000000
DIMENSIONS    128   16   1

ORIGIN    0.000   0.000   0.000
SPACING   0.0078125 0.015625   1.000

POINT_DATA   2048
SCALARS fX double
LOOKUP_TABLE default

0 0 0 0 0 0 0 0 0 0 0 0 0 0 0 0 0 0 0 0 0 0 0 0 0 0 0 0 0 0 0 0 0 0 0 0 0 0 0 0 0 0 0 0 0 0 0 0 0 0 0 0 0 0 0 0 0 0 0 0 0 0 0 0 0 0 0 0 0 0 0 0 0 0 0 0 0 0 0 0 0 0 0 0 0 0 0 0 0 0 0 0 0 0 0 0 0 0 0 0 0 0 0 0 0 0 0 0 0 0 0 0 0 0 0 0 0 0 0 0 0 0 0 0 0 0 0 0 
0 0 0 0 0 0 0 0 0 0 0 0 0 0 0 0 0 0 0 0 0 0 0 0 0 0 0 0 0 0 0 0 0 0 0 0 0 0 0 0 0 0 0 0 0 0 0 0 0 0 0 0 0 0 0 0 0 0 0 0 0 0 0 0 0 0 0 0 0 0 0 0 0 0 0 0 0 0 0 0 0 0 0 0 0 0 0 0 0 0 0 0 0 0 0 0 0 0 0 0 0 0 0 0 0 0 0 0 0 0 0 0 0 0 0 0 0 0 0 0 0 0 0 0 0 0 0 0 
0 0 0 0 0 3.764922e-02 2.782396e+00 1.320572e+00 6.107103e-01 9.964026e-01 7.292676e-01 9.502708e-01 -1.143583e+00 -5.071332e+00 -6.678561e+00 -5.360143e+00 -6.378985e+00 -5.846555e+00 -5.718925e+00 -6.590890e+00 -5.064957e+00 -5.581040e-01 9.022812e-01 9.411323e-01 9.491138e-01 9.606516e-01 9.658941e-01 9.519523e-01 9.665264e-01 9.334511e-01 9.629797e-01 9.195446e-01 9.649103e-01 9.182755e-01 9.766004e-01 9.311595e-01 9.973147e-01 9.553155e-01 1.022881e+00 9.862447e-01 1.048129e+00 1.015830e+00 1.066907e+00 1.035991e+00 1.075025e+00 1.042408e+00 1.068799e+00 1.036050e+00 1.052080e+00 1.018673e+00 1.027783e+00 9.974703e-01 9.949825e-01 9.737245e-01 9.599347e-01 1.151788e+00 1.490491e+00 -2.010241e-01 -6.231190e-01 2.798733e+00 3.018981e+00 1.205914e+00 -2.160361e+00 -1.942600e+00 2.440736e+00 -1.432623e-01 -3.111102e+00 6.244937e-01 3.733972e+00 3.544099e+00 3.749698e+00 2.737593e+00 1.233095e+00 1.068869e+00 9.824271e-01 9.681741e-01 9.160637e-01 9.103393e-01 8.599062e-01 8.581671e-01 8.214523e-01 8.249366e-01 8.082857e-01 8.160476e-01 8.192150e-01 8.289871e-01 8.482416e-01 8.536192e-01 8.823606e-01 8.793302e-01 9.109165e-01 8.977817e-01 9.285521e-01 9.053634e-01 9.346310e-01 9.014976e-01 9.301889e-01 8.861378e-01 9.161757e-01 8.625104e-01 8.929462e-01 8.351557e-01 8.636799e-01 8.102305e-01 8.338378e-01 7.959583e-01 8.108360e-01 7.997061e-01 8.009486e-01 8.257699e-01 8.054561e-01 8.722290e-01 8.206417e-01 9.318746e-01 8.391266e-01 9.960616e-01 8.537548e-01 1.059389e+00 8.550295e-01 1.135164e+00 7.388295e-01 1.770238e+00 2.119381e+00 1.397636e-01 0 0 0 0 
0 0 0 0 0 1.107927e-01 8.186877e+00 3.890058e+00 1.798904e+00 2.929658e+00 2.142443e+00 2.791840e+00 -3.366675e+00 -1.492027e+01 -1.964712e+01 -1.576903e+01 -1.876614e+01 -1.720040e+01 -1.682580e+01 -1.939224e+01 -1.490342e+01 -1.642535e+00 2.654769e+00 2.769129e+00 2.792643e+00 2.826636e+00 2.842096e+00 2.801098e+00 2.844001e+00 2.746685e+00 2.833573e+00 2.705754e+00 2.839225e+00 2.701981e+00 2.873574e+00 2.739839e+00 2.934469e+00 2.810862e+00 3.009643e+00 2.901824e+00 3.083894e+00 2.988847e+00 3.139123e+00 3.048149e+00 3.162985e+00 3.067012e+00 3.144646e+00 3.048284e+00 3.095432e+00 2.997135e+00 3.023920e+00 2.934727e+00 2.927391e+00 2.864840e+00 2.824252e+00 3.388695e+00 4.396622e+00 -3.895476e-01 -1.940640e+00 7.283545e+00 7.696780e+00 2.950311e+00 -6.109534e+00 -5.923854e+00 5.972873e+00 -9.411115e-01 -8.016589e+00 2.685091e+00 1.008112e+01 9.451392e+00 1.094113e+01 8.159484e+00 3.632241e+00 3.144479e+00 2.890170e+00 2.848236e+00 2.694924e+00 2.678075e+00 2.529693e+00 2.524564e+00 2.416543e+00 2.426785e+00 2.377796e+00 2.400628e+00 2.409943e+00 2.438686e+00 2.495321e+00 2.511127e+00 2.595665e+00 2.586733e+00 2.679640e+00 2.640987e+00 2.731501e+00 2.663283e+00 2.749386e+00 2.651923e+00 2.736337e+00 2.606768e+00 2.695149e+00 2.537311e+00 2.626866e+00 2.456896e+00 2.540812e+00 2.383602e+00 2.453025e+00 2.341593e+00 2.385306e+00 2.352531e+00 2.356111e+00 2.429066e+00 2.369228e+00 2.565586e+00 2.413777e+00 2.740958e+00 2.468150e+00 2.929869e+00 2.511484e+00 3.116778e+00 2.516653e+00 3.343089e+00 2.182794e+00 5.215624e+00 6.235919e+00 4.110419e-01 0 0 0 0 
0 0 0 0 0 7.655983e-02 5.656777e+00 2.690007e+00 1.243915e+00 2.023230e+00 1.478716e+00 1.926995e+00 -2.327106e+00 -5.334691e+01 -7.070789e+01 -5.964596e+01 -6.619462e+01 -6.466153e+01 -6.012004e+01 -7.289227e+01 -5.085320e+01 -1.135104e+00 1.834287e+00 1.913327e+00 1.929589e+00 1.953097e+00 1.963796e+00 1.935480e+00 1.965135e+00 1.897896e+00 1.957932e+00 1.869608e+00 1.961824e+00 1.866982e+00 1.985535e+00 1.893114e+00 2.027584e+00 1.942163e+00 2.079501e+00 2.004993e+00 2.130786e+00 2.065108e+00 2.168935e+00 2.106074e+00 2.185413e+00 2.119097e+00 2.172730e+00 2.106148e+00 2.138717e+00 2.070797e+00 2.089295e+00 2.027666e+00 2.022589e+00 1.979368e+00 1.951318e+00 2.341292e+00 3.044288e+00 -1.379495e-01 -1.269321e+00 4.619698e+00 4.748224e+00 1.869485e+00 -3.938050e+00 -4.002440e+00 3.603908e+00 -8.759698e-01 -4.707839e+00 2.563679e+00 6.572824e+00 6.110539e+00 7.637548e+00 5.727735e+00 2.517494e+00 2.172434e+00 1.996736e+00 1.967763e+00 1.861840e+00 1.850196e+00 1.747675e+00 1.744125e+00 1.669491e+00 1.676563e+00 1.642717e+00 1.658488e+00 1.664923e+00 1.684778e+00 1.723901e+00 1.734814e+00 1.793212e+00 1.787033e+00 1.851212e+00 1.824502e+00 1.887031e+00 1.839901e+00 1.899389e+00 1.832060e+00 1.890382e+00 1.800878e+00 1.861944e+00 1.752917e+00 1.814796e+00 1.697389e+00 1.755366e+00 1.646768e+00 1.694718e+00 1.617735e+00 1.647908e+00 1.625249e+00 1.627687e+00 1.678057e+00 1.636678e+00 1.772299e+00 1.667396e+00 1.893411e+00 1.704957e+00 2.023963e+00 1.735040e+00 2.153389e+00 1.739300e+00 2.311384e+00 1.512515e+00 3.607114e+00 4.308695e+00 2.839170e-01 0 0 0 0 
0 0 0 0 0 3.416368e-03 2.522959e-01 1.205209e-01 5.572048e-02 8.997407e-02 6.554072e-02 8.542610e-02 -1.040135e-01 -6.025169e+01 -6.579762e+01 -6.171612e+01 -6.396428e+01 -6.360879e+01 -6.180259e+01 -6.554719e+01 -5.992585e+01 -5.067310e-02 8.179950e-02 8.533031e-02 8.605925e-02 8.711311e-02 8.759459e-02 8.633457e-02 8.765984e-02 8.466147e-02 8.733946e-02 8.339823e-02 8.750952e-02 8.327623e-02 8.856120e-02 8.443539e-02 9.042985e-02 8.661643e-02 9.273898e-02 8.941335e-02 9.502162e-02 9.209103e-02 9.672016e-02 9.391579e-02 9.745242e-02 9.449418e-02 9.688407e-02 9.391428e-02 9.536482e-02 9.233533e-02 9.315793e-02 9.040900e-02 9.018062e-02 8.825267e-02 8.700003e-02 1.043853e-01 1.417688e-01 4.994672e-02 1.032965e-01 1.706386e-01 9.046506e-02 1.960876e-01 1.821823e-02 2.174351e-03 1.230351e-01 -3.814965e-02 2.395330e-01 5.443574e-01 2.387854e-01 2.092834e-01 4.709650e-01 3.115003e-01 1.238251e-01 9.682494e-02 8.899328e-02 8.770148e-02 8.297935e-02 8.245936e-02 7.788824e-02 7.772848e-02 7.440074e-02 7.471486e-02 7.320590e-02 7.390844e-02 7.419497e-02 7.507916e-02 7.682178e-02 7.730641e-02 7.990724e-02 7.962976e-02 8.248830e-02 8.129634e-02 8.408218e-02 8.198154e-02 8.463321e-02 8.163374e-02 8.423401e-02 8.024778e-02 8.297106e-02 7.811651e-02 8.087651e-02 7.564894e-02 7.823318e-02 7.339684e-02 7.553073e-02 7.210020e-02 7.343809e-02 7.242425e-02 7.252369e-02 7.476050e-02 7.290668e-02 7.894157e-02 7.426046e-02 8.432748e-02 7.593358e-02 9.015608e-02 7.731125e-02 9.599941e-02 7.767576e-02 1.034582e-01 6.855047e-02 1.617287e-01 1.921566e-01 1.263873e-02 0 0 0 0 
0 0 0 0 0 0 0 0 0 0 0 0 0 -6.587617e+01 -7.161148e+01 -6.745406e+01 -6.958097e+01 -6.958418e+01 -6.722481e+01 -7.174689e+01 -6.524908e+01 0 0 0 0 0 0 0 0 0 0 0 0 0 0 0 0 0 0 0 0 0 0 0 0 0 0 0 0 0 0 0 0 0 0 0 3.606591e-03 -1.383178e-03 5.439329e-02 3.394119e-02 1.629572e-02 6.661663e-02 2.282656e-03 2.040571e-02 5.025309e-02 3.979151e-02 4.264111e-02 4.400491e-02 1.526016e-02 5.670915e-03 2.375634e-02 5.015527e-03 5.574255e-03 0 0 0 0 0 0 0 0 0 0 0 0 0 0 0 0 0 0 0 0 0 0 0 0 0 0 0 0 0 0 0 0 0 0 0 0 0 0 0 0 0 0 0 0 0 0 0 0 0 0 0 0 0 0 0 
0 0 0 0 0 0 0 0 0 0 0 0 0 -6.522572e+01 -6.758299e+01 -6.553070e+01 -6.651768e+01 -6.632606e+01 -6.562677e+01 -6.733519e+01 -6.522466e+01 0 0 0 0 0 0 0 0 0 0 0 0 0 0 0 0 0 0 0 0 0 0 0 0 0 0 0 0 0 0 0 0 0 0 0 -5.621602e-06 -7.558824e-04 -7.035577e-04 -1.811222e-03 -3.744798e-03 -4.382659e-03 -4.812362e-03 -2.953967e-03 -1.010853e-03 -1.794708e-04 7.558221e-04 2.729382e-03 2.153109e-03 -3.666583e-04 -1.090560e-03 -6.415737e-04 9.676961e-05 0 0 0 0 0 0 0 0 0 0 0 0 0 0 0 0 0 0 0 0 0 0 0 0 0 0 0 0 0 0 0 0 0 0 0 0 0 0 0 0 0 0 0 0 0 0 0 0 0 0 0 0 0 0 0 
0 0 0 0 0 0 0 0 0 0 0 0 0 -6.893971e+01 -7.191505e+01 -6.954902e+01 -7.058467e+01 -7.074035e+01 -6.929325e+01 -7.203836e+01 -6.856327e+01 0 0 0 0 0 0 0 0 0 0 0 0 0 0 0 0 0 0 0 0 0 0 0 0 0 0 0 0 0 0 0 0 0 0 0 0 0 0 0 0 0 0 0 0 0 0 0 0 0 0 0 0 0 0 0 0 0 0 0 0 0 0 0 0 0 0 0 0 0 0 0 0 0 0 0 0 0 0 0 0 0 0 0 0 0 0 0 0 0 0 0 0 0 0 0 0 0 0 0 0 0 0 0 0 0 0 0 
0 0 0 0 0 0 0 0 0 0 0 0 0 -6.522541e+01 -6.758131e+01 -6.553896e+01 -6.652807e+01 -6.634350e+01 -6.565095e+01 -6.735725e+01 -6.525785e+01 0 0 0 0 0 0 0 0 0 0 0 0 0 0 0 0 0 0 0 0 0 0 0 0 0 0 0 0 0 0 0 0 0 0 0 0 0 0 0 0 0 0 0 0 0 0 0 0 0 0 0 0 0 0 0 0 0 0 0 0 0 0 0 0 0 0 0 0 0 0 0 0 0 0 0 0 0 0 0 0 0 0 0 0 0 0 0 0 0 0 0 0 0 0 0 0 0 0 0 0 0 0 0 0 0 0 0 
0 0 0 0 0 0 0 0 0 0 0 0 0 -6.587229e+01 -7.159495e+01 -6.747490e+01 -6.959136e+01 -6.962860e+01 -6.727493e+01 -7.180419e+01 -6.534601e+01 0 0 0 0 0 0 0 0 0 0 0 0 0 0 0 0 0 0 0 0 0 0 0 0 0 0 0 0 0 0 0 0 0 0 0 0 0 0 0 0 0 0 0 0 0 0 0 0 0 0 0 0 0 0 0 0 0 0 0 0 0 0 0 0 0 0 0 0 0 0 0 0 0 0 0 0 0 0 0 0 0 0 0 0 0 0 0 0 0 0 0 0 0 0 0 0 0 0 0 0 0 0 0 0 0 0 0 
0 0 0 0 0 3.700168e-03 2.558019e-01 1.283440e-01 6.551592e-02 1.002280e-01 7.543703e-02 9.427098e-02 -9.681477e-02 -6.023407e+01 -6.577151e+01 -6.173811e+01 -6.398808e+01 -6.367866e+01 -6.189357e+01 -6.565778e+01 -6.009566e+01 -5.614997e-02 7.454283e-02 7.837558e-02 7.950350e-02 8.241442e-02 8.452950e-02 8.599562e-02 8.938401e-02 8.899403e-02 9.337558e-02 9.105184e-02 9.596697e-02 9.189438e-02 9.694137e-02 9.154699e-02 9.648477e-02 9.037720e-02 9.511374e-02 8.897765e-02 9.347821e-02 8.795179e-02 9.217485e-02 8.773698e-02 9.158619e-02 8.848545e-02 9.181412e-02 9.012665e-02 9.278805e-02 9.245652e-02 9.433317e-02 9.518991e-02 9.617058e-02 9.798030e-02 9.792609e-02 1.003421e-01 9.921238e-02 1.017202e-01 9.870773e-02 1.025667e-01 9.873310e-02 9.953563e-02 9.507633e-02 9.428088e-02 9.257425e-02 9.052859e-02 8.765771e-02 8.773869e-02 8.707794e-02 8.679984e-02 8.582270e-02 8.608529e-02 8.494209e-02 8.589443e-02 8.617450e-02 8.799612e-02 8.930110e-02 9.107488e-02 9.253792e-02 9.343318e-02 9.435555e-02 9.393087e-02 9.407222e-02 9.238589e-02 9.192138e-02 8.931401e-02 8.859770e-02 8.544410e-02 8.482011e-02 8.143220e-02 8.126367e-02 7.789251e-02 7.854823e-02 7.533602e-02 7.709495e-02 7.406186e-02 7.702545e-02 7.414303e-02 7.817941e-02 7.547698e-02 8.020384e-02 7.776650e-02 8.254700e-02 8.051325e-02 8.452192e-02 8.315363e-02 8.551512e-02 8.525754e-02 8.514358e-02 8.666037e-02 8.336975e-02 8.744762e-02 8.044680e-02 8.790068e-02 7.688123e-02 8.851182e-02 7.341214e-02 9.026274e-02 7.074518e-02 9.606997e-02 6.143962e-02 1.566409e-01 1.901336e-01 1.244890e-02 0 0 0 0 
0 0 0 0 0 8.293852e-02 5.735491e+00 2.865664e+00 1.463898e+00 2.253518e+00 1.700996e+00 2.125654e+00 -2.165409e+00 -5.333509e+01 -7.069501e+01 -5.968332e+01 -6.615164e+01 -6.477382e+01 -6.017132e+01 -7.303775e+01 -5.119703e+01 -1.257844e+00 1.671649e+00 1.757474e+00 1.782669e+00 1.847809e+00 1.895116e+00 1.927881e+00 2.003770e+00 1.994991e+00 2.093207e+00 2.041130e+00 2.151362e+00 2.060137e+00 2.173366e+00 2.052526e+00 2.163317e+00 2.026458e+00 2.132720e+00 1.995185e+00 2.096135e+00 1.972256e+00 2.066986e+00 1.967506e+00 2.053859e+00 1.984348e+00 2.059028e+00 2.021199e+00 2.080906e+00 2.073477e+00 2.115578e+00 2.134807e+00 2.156849e+00 2.197471e+00 2.196323e+00 2.250555e+00 2.225282e+00 2.281576e+00 2.214057e+00 2.300655e+00 2.214702e+00 2.232738e+00 2.132744e+00 2.114936e+00 2.076691e+00 2.030837e+00 1.966475e+00 1.968322e+00 1.953532e+00 1.947318e+00 1.925435e+00 1.931355e+00 1.905742e+00 1.927125e+00 1.933435e+00 1.974321e+00 2.003635e+00 2.043459e+00 2.076330e+00 2.096453e+00 2.117197e+00 2.107704e+00 2.110913e+00 2.073103e+00 2.062707e+00 2.004233e+00 1.988191e+00 1.917473e+00 1.903511e+00 1.827532e+00 1.823772e+00 1.748136e+00 1.762834e+00 1.690738e+00 1.730178e+00 1.662081e+00 1.728543e+00 1.663803e+00 1.754334e+00 1.693616e+00 1.799656e+00 1.744887e+00 1.852165e+00 1.806483e+00 1.896508e+00 1.865823e+00 1.918956e+00 1.913277e+00 1.910929e+00 1.945136e+00 1.871535e+00 1.963229e+00 1.806298e+00 1.973668e+00 1.726264e+00 1.987088e+00 1.647515e+00 2.024597e+00 1.583691e+00 2.145484e+00 1.352781e+00 3.492767e+00 4.263233e+00 2.796522e-01 0 0 0 0 
0 0 0 0 0 1.200283e-01 8.300824e+00 4.144345e+00 2.117371e+00 3.263045e+00 2.464242e+00 3.079441e+00 -3.132582e+00 -1.472989e+01 -1.949801e+01 -1.566637e+01 -1.867518e+01 -1.718787e+01 -1.681955e+01 -1.944960e+01 -1.509953e+01 -1.820158e+00 2.419404e+00 2.543589e+00 2.580029e+00 2.674272e+00 2.742707e+00 2.790100e+00 2.899912e+00 2.887196e+00 3.029335e+00 2.953972e+00 3.113516e+00 2.981510e+00 3.145400e+00 2.970539e+00 3.130905e+00 2.932854e+00 3.086659e+00 2.887621e+00 3.033733e+00 2.854454e+00 2.991565e+00 2.847596e+00 2.972584e+00 2.871986e+00 2.980081e+00 2.925334e+00 3.011754e+00 3.001004e+00 3.061942e+00 3.089776e+00 3.121690e+00 3.180493e+00 3.178849e+00 3.257352e+00 3.220790e+00 3.302279e+00 3.204568e+00 3.329918e+00 3.205521e+00 3.231633e+00 3.086914e+00 3.061146e+00 3.005802e+00 2.939441e+00 2.846294e+00 2.848975e+00 2.827575e+00 2.818588e+00 2.786925e+00 2.795501e+00 2.758437e+00 2.789391e+00 2.798531e+00 2.857714e+00 2.900154e+00 2.957804e+00 3.005394e+00 3.034529e+00 3.064568e+00 3.050837e+00 3.055492e+00 3.000769e+00 2.985728e+00 2.901098e+00 2.877886e+00 2.775535e+00 2.755335e+00 2.645369e+00 2.639931e+00 2.530452e+00 2.551723e+00 2.447362e+00 2.504444e+00 2.405866e+00 2.502059e+00 2.408332e+00 2.539364e+00 2.451456e+00 2.604940e+00 2.525644e+00 2.680927e+00 2.614792e+00 2.745119e+00 2.700707e+00 2.777654e+00 2.769459e+00 2.766113e+00 2.815671e+00 2.709196e+00 2.841968e+00 2.614857e+00 2.857148e+00 2.499003e+00 2.876499e+00 2.384785e+00 2.930339e+00 2.291390e+00 3.102925e+00 1.951539e+00 5.050063e+00 6.170099e+00 4.048675e-01 0 0 0 0 
0 0 0 0 0 4.078996e-02 2.821135e+00 1.407025e+00 7.189888e-01 1.109755e+00 8.386829e-01 1.048058e+00 -1.063988e+00 -5.006597e+00 -6.627862e+00 -5.325240e+00 -6.348060e+00 -5.842290e+00 -5.716797e+00 -6.610383e+00 -5.131605e+00 -6.184639e-01 8.222981e-01 8.644899e-01 8.768628e-01 9.088768e-01 9.321210e-01 9.482149e-01 9.855254e-01 9.811996e-01 1.029504e+00 1.003894e+00 1.058120e+00 1.013267e+00 1.068976e+00 1.009561e+00 1.064073e+00 9.967727e-01 1.049053e+00 9.814129e-01 1.031076e+00 9.701497e-01 1.016754e+00 9.678271e-01 1.010312e+00 9.761236e-01 1.012867e+00 9.942611e-01 1.023636e+00 1.019983e+00 1.040697e+00 1.050159e+00 1.061012e+00 1.081002e+00 1.080452e+00 1.107139e+00 1.094721e+00 1.122423e+00 1.089218e+00 1.131829e+00 1.089552e+00 1.098431e+00 1.049246e+00 1.040491e+00 1.021685e+00 9.991328e-01 9.674765e-01 9.683915e-01 9.611215e-01 9.580699e-01 9.473119e-01 9.502306e-01 9.376363e-01 9.481603e-01 9.512703e-01 9.713896e-01 9.858199e-01 1.005419e+00 1.021602e+00 1.031510e+00 1.041727e+00 1.037064e+00 1.038651e+00 1.020052e+00 1.014943e+00 9.861786e-01 9.782923e-01 9.435060e-01 9.366443e-01 8.992687e-01 8.974229e-01 8.602093e-01 8.674380e-01 8.319605e-01 8.513608e-01 8.178468e-01 8.505407e-01 8.186729e-01 8.632092e-01 8.333170e-01 8.854875e-01 8.585228e-01 9.113088e-01 8.888223e-01 9.331332e-01 9.180385e-01 9.442125e-01 9.414392e-01 9.403274e-01 9.571948e-01 9.210303e-01 9.661868e-01 8.890049e-01 9.713803e-01 8.496196e-01 9.779222e-01 8.106824e-01 9.960049e-01 7.784447e-01 1.053511e+00 6.601980e-01 1.713937e+00 2.096999e+00 1.376641e-01 0 0 0 0 
0 0 0 0 0 0 0 0 0 0 0 0 0 0 0 0 0 0 0 0 0 0 0 0 0 0 0 0 0 0 0 0 0 0 0 0 0 0 0 0 0 0 0 0 0 0 0 0 0 0 0 0 0 0 0 0 0 0 0 0 0 0 0 0 0 0 0 0 0 0 0 0 0 0 0 0 0 0 0 0 0 0 0 0 0 0 0 0 0 0 0 0 0 0 0 0 0 0 0 0 0 0 0 0 0 0 0 0 0 0 0 0 0 0 0 0 0 0 0 0 0 0 0 0 0 0 0 0 
