# vtk DataFile Version 2.0
Comment goes here
ASCII

DATASET STRUCTURED_POINTS
FIELD FieldData 1
TIME 1 1 double
0.15000000
DIMENSIONS    128   16   1

ORIGIN    0.000   0.000   0.000
SPACING   0.0078125 0.015625   1.000

POINT_DATA   2048
SCALARS fY double
LOOKUP_TABLE default

0 0 0 0 0 0 0 0 0 0 0 0 0 0 0 0 0 0 0 0 0 0 0 0 0 0 0 0 0 0 0 0 0 0 0 0 0 0 0 0 0 0 0 0 0 0 0 0 0 0 0 0 0 0 0 0 0 0 0 0 0 0 0 0 0 0 0 0 0 0 0 0 0 0 0 0 0 0 0 0 0 0 0 0 0 0 0 0 0 0 0 0 0 0 0 0 0 0 0 0 0 0 0 0 0 0 0 0 0 0 0 0 0 0 0 0 0 0 0 0 0 0 0 0 0 0 0 0 
0 0 0 0 0 0 0 0 0 0 0 0 0 0 0 0 0 0 0 0 0 0 0 0 0 0 0 0 0 0 0 0 0 0 0 0 0 0 0 0 0 0 0 0 0 0 0 0 0 0 0 0 0 0 0 0 0 0 0 0 0 0 0 0 0 0 0 0 0 0 0 0 0 0 0 0 0 0 0 0 0 0 0 0 0 0 0 0 0 0 0 0 0 0 0 0 0 0 0 0 0 0 0 0 0 0 0 0 0 0 0 0 0 0 0 0 0 0 0 0 0 0 0 0 0 0 0 0 
0 0 0 0 0 1.178669e+00 2.132369e+00 1.678123e+00 2.593035e+00 1.736246e+00 3.069095e+00 2.481245e+00 3.727303e+00 2.134977e+00 -4.381124e+00 -8.508104e+00 -1.341634e+01 -1.844349e+01 -2.319726e+01 -2.795475e+01 -3.538685e+01 -3.674005e+01 -3.623105e+01 -3.647533e+01 -3.606746e+01 -3.608979e+01 -3.476064e+01 -3.277695e+01 -3.018554e+01 -2.885752e+01 -2.867610e+01 -2.962829e+01 -3.105469e+01 -3.250342e+01 -3.345560e+01 -3.298069e+01 -3.171035e+01 -3.047317e+01 -3.029898e+01 -3.043396e+01 -3.035690e+01 -2.894312e+01 -2.703452e+01 -2.558098e+01 -2.569082e+01 -2.743015e+01 -2.975137e+01 -3.137022e+01 -3.214976e+01 -3.205943e+01 -3.064091e+01 -2.779993e+01 -2.378735e+01 -2.053581e+01 -2.016266e+01 -2.281315e+01 -2.623542e+01 -2.798222e+01 -2.866342e+01 -2.697282e+01 -2.287572e+01 -1.913139e+01 -1.841298e+01 -2.098832e+01 -2.051053e+01 -1.838457e+01 -2.069736e+01 -2.435598e+01 -2.616466e+01 -2.741873e+01 -2.625934e+01 -2.411248e+01 -2.242386e+01 -2.029650e+01 -1.772666e+01 -1.575386e+01 -1.549904e+01 -1.736745e+01 -1.973786e+01 -2.101705e+01 -2.045954e+01 -1.866651e+01 -1.658108e+01 -1.521635e+01 -1.502028e+01 -1.532647e+01 -1.499127e+01 -1.363514e+01 -1.198568e+01 -1.021244e+01 -9.403499e+00 -9.122061e+00 -1.001875e+01 -1.120132e+01 -1.235716e+01 -1.231969e+01 -1.219762e+01 -1.108994e+01 -1.015035e+01 -9.614779e+00 -9.833813e+00 -1.015367e+01 -1.116258e+01 -1.196058e+01 -1.122319e+01 -8.897268e+00 -5.652838e+00 -3.676290e+00 -2.915542e+00 -4.535135e+00 -5.919955e+00 -6.987011e+00 -6.133605e+00 -5.663760e+00 -4.343370e+00 -4.018468e+00 -3.004580e+00 -2.838784e+00 -2.171733e+00 -1.815084e+00 -1.550329e+00 -1.425617e+00 -1.977874e+00 2.108004e-01 0 0 0 0 
0 0 0 0 0 3.465679e+00 6.264226e+00 4.925776e+00 7.622206e+00 5.104588e+00 9.023511e+00 7.292993e+00 1.095593e+01 6.271926e+00 -1.289071e+01 -2.503017e+01 -3.946912e+01 -5.426118e+01 -6.824910e+01 -8.225141e+01 -1.041270e+02 -1.081094e+02 -1.066109e+02 -1.073300e+02 -1.061292e+02 -1.061949e+02 -1.022822e+02 -9.644308e+01 -8.881546e+01 -8.490657e+01 -8.437261e+01 -8.717530e+01 -9.137367e+01 -9.563804e+01 -9.844072e+01 -9.704276e+01 -9.330355e+01 -8.966192e+01 -8.914917e+01 -8.954646e+01 -8.931967e+01 -8.515848e+01 -7.954107e+01 -7.526313e+01 -7.558642e+01 -8.070549e+01 -8.753746e+01 -9.230227e+01 -9.459684e+01 -9.433095e+01 -9.015566e+01 -8.179402e+01 -6.998478e+01 -6.041597e+01 -5.931787e+01 -6.711777e+01 -7.764973e+01 -8.331093e+01 -8.409510e+01 -7.929414e+01 -7.106974e+01 -6.324392e+01 -5.830113e+01 -5.929355e+01 -5.691080e+01 -5.178520e+01 -5.260375e+01 -5.867507e+01 -6.666948e+01 -7.446298e+01 -7.567852e+01 -7.158410e+01 -6.603555e+01 -5.971176e+01 -5.214987e+01 -4.634491e+01 -4.559515e+01 -5.109299e+01 -5.806788e+01 -6.183213e+01 -6.019162e+01 -5.491534e+01 -4.877911e+01 -4.476343e+01 -4.418651e+01 -4.508747e+01 -4.410123e+01 -4.011108e+01 -3.525817e+01 -3.004115e+01 -2.766123e+01 -2.683328e+01 -2.947130e+01 -3.295042e+01 -3.635107e+01 -3.624090e+01 -3.588186e+01 -3.262320e+01 -2.985891e+01 -2.828341e+01 -2.892792e+01 -2.986902e+01 -3.283745e+01 -3.518502e+01 -3.301546e+01 -2.617306e+01 -1.662817e+01 -1.081387e+01 -8.576006e+00 -1.333986e+01 -1.741343e+01 -2.055248e+01 -1.804216e+01 -1.666026e+01 -1.277673e+01 -1.182155e+01 -8.840188e+00 -8.353819e+00 -6.394494e+00 -5.352006e+00 -4.591311e+00 -4.224630e+00 -5.826927e+00 6.199567e-01 0 0 0 0 
0 0 0 0 0 2.393463e+00 4.323453e+00 3.397730e+00 5.262981e+00 3.525056e+00 6.231491e+00 5.035372e+00 7.564638e+00 8.685463e+00 -1.279979e+01 -1.222117e+01 -3.367119e+01 -3.300870e+01 -5.489194e+01 -5.368116e+01 -7.663327e+01 -7.470189e+01 -7.366609e+01 -7.416305e+01 -7.333305e+01 -7.337843e+01 -7.067409e+01 -6.663833e+01 -6.136667e+01 -5.866514e+01 -5.829614e+01 -6.023313e+01 -6.313468e+01 -6.608197e+01 -6.801900e+01 -6.705277e+01 -6.446848e+01 -6.195161e+01 -6.159721e+01 -6.187179e+01 -6.171505e+01 -5.883923e+01 -5.495707e+01 -5.200069e+01 -5.222411e+01 -5.576180e+01 -6.048338e+01 -6.377641e+01 -6.536226e+01 -6.517850e+01 -6.229285e+01 -5.651416e+01 -4.835319e+01 -4.174082e+01 -4.098200e+01 -4.637195e+01 -5.396051e+01 -5.804057e+01 -5.532617e+01 -5.190960e+01 -4.904591e+01 -4.429868e+01 -4.040139e+01 -3.505281e+01 -3.273651e+01 -3.165200e+01 -2.695829e+01 -2.808692e+01 -3.648306e+01 -4.411797e+01 -4.806699e+01 -4.877929e+01 -4.550103e+01 -4.125419e+01 -3.602905e+01 -3.201797e+01 -3.149993e+01 -3.529881e+01 -4.011828e+01 -4.271940e+01 -4.158583e+01 -3.793991e+01 -3.369998e+01 -3.092528e+01 -3.052665e+01 -3.114918e+01 -3.046775e+01 -2.771078e+01 -2.435785e+01 -2.075336e+01 -1.910909e+01 -1.853708e+01 -2.035965e+01 -2.276336e+01 -2.511293e+01 -2.503684e+01 -2.478883e+01 -2.253751e+01 -2.062767e+01 -1.953924e+01 -1.998459e+01 -2.063481e+01 -2.268579e+01 -2.430765e+01 -2.280863e+01 -1.808149e+01 -1.148709e+01 -7.470373e+00 -5.924371e+00 -9.215213e+00 -1.202934e+01 -1.419797e+01 -1.246380e+01 -1.150924e+01 -8.826651e+00 -8.167052e+00 -6.107974e+00 -5.772624e+00 -4.420461e+00 -3.703493e+00 -3.186760e+00 -2.933530e+00 -4.029673e+00 4.282184e-01 0 0 0 0 
0 0 0 0 0 1.064527e-01 1.915963e-01 1.500768e-01 2.338101e-01 1.567139e-01 2.770746e-01 2.236239e-01 3.360076e-01 3.529627e+00 -4.356670e+00 4.346303e+00 -7.246959e+00 3.753485e+00 -8.532420e+00 1.697388e+00 -6.860075e+00 -3.332506e+00 -3.286208e+00 -3.308406e+00 -3.271306e+00 -3.273328e+00 -3.152492e+00 -2.972201e+00 -2.736751e+00 -2.616093e+00 -2.599619e+00 -2.686129e+00 -2.815706e+00 -2.947360e+00 -3.033879e+00 -2.990709e+00 -2.875279e+00 -2.762856e+00 -2.747023e+00 -2.759285e+00 -2.752287e+00 -2.623865e+00 -2.450522e+00 -2.318537e+00 -2.328511e+00 -2.486455e+00 -2.697293e+00 -2.844354e+00 -2.915188e+00 -2.906981e+00 -2.778099e+00 -2.520070e+00 -2.155758e+00 -1.860651e+00 -1.826788e+00 -2.067325e+00 -2.496388e+00 -2.677475e+00 9.860189e-01 1.103916e+00 -5.103856e-01 6.988998e-01 -5.309742e-01 3.623582e+00 4.283410e+00 1.879901e+00 5.108227e+00 6.484495e+00 4.181513e+00 3.213636e+00 1.992562e+00 -1.023178e+00 -1.785117e+00 -1.838937e+00 -1.605842e+00 -1.426917e+00 -1.403816e+00 -1.573276e+00 -1.788259e+00 -1.904317e+00 -1.853746e+00 -1.691077e+00 -1.501959e+00 -1.378194e+00 -1.360412e+00 -1.388179e+00 -1.357793e+00 -1.234843e+00 -1.085354e+00 -9.246567e-01 -8.513588e-01 -8.258644e-01 -9.071043e-01 -1.014257e+00 -1.119015e+00 -1.115631e+00 -1.104588e+00 -1.004247e+00 -9.191072e-01 -8.706070e-01 -8.904734e-01 -9.194666e-01 -1.010921e+00 -1.083203e+00 -1.016361e+00 -8.056943e-01 -5.117595e-01 -3.327916e-01 -2.639064e-01 -4.104826e-01 -5.358585e-01 -6.325024e-01 -5.552457e-01 -5.127423e-01 -3.932893e-01 -3.639697e-01 -2.723654e-01 -2.575890e-01 -1.976994e-01 -1.665716e-01 -1.457777e-01 -1.345169e-01 -1.806196e-01 1.906206e-02 0 0 0 0 
0 0 0 0 0 0 0 0 0 0 0 0 0 2.062589e+00 -7.998356e-01 1.914837e+00 -1.888686e+00 1.501367e+00 -2.290030e+00 6.899856e-01 -1.949423e+00 0 0 0 0 0 0 0 0 0 0 0 0 0 0 0 0 0 0 0 0 0 0 0 0 0 0 0 0 0 0 0 0 0 0 0 4.970591e-02 2.508389e-02 8.771501e-01 6.784826e-01 2.952902e-01 8.239244e-01 -7.953663e-02 3.410214e-01 6.050176e-01 1.134726e-01 1.549867e-01 2.780368e-01 1.893078e-01 2.924660e-01 6.369441e-01 2.824695e-01 1.060914e-01 0 0 0 0 0 0 0 0 0 0 0 0 0 0 0 0 0 0 0 0 0 0 0 0 0 0 0 0 0 0 0 0 0 0 0 0 0 0 0 0 0 0 0 0 0 0 0 0 0 0 0 0 0 0 0 
0 0 0 0 0 0 0 0 0 0 0 0 0 1.027044e+00 -6.932592e-01 1.245791e+00 -1.332928e+00 1.186245e+00 -1.406439e+00 6.986341e-01 -9.425037e-01 0 0 0 0 0 0 0 0 0 0 0 0 0 0 0 0 0 0 0 0 0 0 0 0 0 0 0 0 0 0 0 0 0 0 0 -1.073565e-04 -9.298523e-03 -3.364774e-03 -1.372294e-02 -4.621410e-02 -6.112439e-02 -6.181057e-02 -3.013460e-02 -1.463339e-02 -1.779285e-02 -5.139598e-03 2.571345e-02 2.954947e-02 5.108457e-03 -3.425999e-03 -2.025865e-03 1.869061e-03 0 0 0 0 0 0 0 0 0 0 0 0 0 0 0 0 0 0 0 0 0 0 0 0 0 0 0 0 0 0 0 0 0 0 0 0 0 0 0 0 0 0 0 0 0 0 0 0 0 0 0 0 0 0 0 
0 0 0 0 0 0 0 0 0 0 0 0 0 9.501776e-03 -1.975704e-02 -5.317477e-03 9.317814e-05 4.784949e-02 9.765742e-02 1.917766e-01 2.881355e-01 0 0 0 0 0 0 0 0 0 0 0 0 0 0 0 0 0 0 0 0 0 0 0 0 0 0 0 0 0 0 0 0 0 0 0 0 0 0 0 0 0 0 0 0 0 0 0 0 0 0 0 0 0 0 0 0 0 0 0 0 0 0 0 0 0 0 0 0 0 0 0 0 0 0 0 0 0 0 0 0 0 0 0 0 0 0 0 0 0 0 0 0 0 0 0 0 0 0 0 0 0 0 0 0 0 0 0 
0 0 0 0 0 0 0 0 0 0 0 0 0 -1.115357e+00 5.118997e-01 -1.423878e+00 1.101340e+00 -1.340221e+00 1.313979e+00 -6.145527e-01 1.238421e+00 0 0 0 0 0 0 0 0 0 0 0 0 0 0 0 0 0 0 0 0 0 0 0 0 0 0 0 0 0 0 0 0 0 0 0 0 0 0 0 0 0 0 0 0 0 0 0 0 0 0 0 0 0 0 0 0 0 0 0 0 0 0 0 0 0 0 0 0 0 0 0 0 0 0 0 0 0 0 0 0 0 0 0 0 0 0 0 0 0 0 0 0 0 0 0 0 0 0 0 0 0 0 0 0 0 0 0 
0 0 0 0 0 0 0 0 0 0 0 0 0 -2.220347e+00 5.366136e-01 -2.199733e+00 1.578014e+00 -1.768719e+00 2.109111e+00 -5.572488e-01 2.429349e+00 0 0 0 0 0 0 0 0 0 0 0 0 0 0 0 0 0 0 0 0 0 0 0 0 0 0 0 0 0 0 0 0 0 0 0 0 0 0 0 0 0 0 0 0 0 0 0 0 0 0 0 0 0 0 0 0 0 0 0 0 0 0 0 0 0 0 0 0 0 0 0 0 0 0 0 0 0 0 0 0 0 0 0 0 0 0 0 0 0 0 0 0 0 0 0 0 0 0 0 0 0 0 0 0 0 0 0 
0 0 0 0 0 -1.029814e-01 -1.764715e-01 -1.449955e-01 -2.697306e-01 -2.241801e-01 -3.406294e-01 -2.788293e-01 -3.919279e-01 -4.102989e+00 3.660242e+00 -5.027763e+00 6.209650e+00 -4.791617e+00 7.445019e+00 -2.050848e+00 6.494362e+00 3.165625e+00 3.059317e+00 3.024072e+00 2.958822e+00 3.019676e+00 3.016885e+00 3.016266e+00 3.027220e+00 3.144836e+00 3.222554e+00 3.217127e+00 3.146642e+00 3.075966e+00 3.002611e+00 2.895919e+00 2.772954e+00 2.619471e+00 2.509176e+00 2.502518e+00 2.646046e+00 2.763740e+00 2.744449e+00 2.572906e+00 2.406519e+00 2.315828e+00 2.361286e+00 2.456137e+00 2.483490e+00 2.387949e+00 2.249863e+00 2.137893e+00 2.087518e+00 2.105525e+00 2.132343e+00 2.120102e+00 2.070423e+00 2.001603e+00 1.915915e+00 1.875071e+00 1.986099e+00 2.250491e+00 2.498808e+00 2.573882e+00 2.473346e+00 2.241873e+00 1.899584e+00 1.539814e+00 1.267277e+00 1.170007e+00 1.238743e+00 1.421331e+00 1.574507e+00 1.673123e+00 1.710841e+00 1.714544e+00 1.631615e+00 1.516190e+00 1.356501e+00 1.162321e+00 9.551909e-01 8.654044e-01 9.248454e-01 1.089943e+00 1.282088e+00 1.452672e+00 1.581526e+00 1.654347e+00 1.695543e+00 1.608381e+00 1.395904e+00 1.060243e+00 7.714585e-01 5.545208e-01 5.349857e-01 6.209588e-01 8.067506e-01 9.525567e-01 1.071580e+00 1.049711e+00 9.471599e-01 7.891022e-01 6.553350e-01 5.562655e-01 5.107552e-01 5.312669e-01 5.406739e-01 5.692022e-01 5.377954e-01 5.496576e-01 4.929130e-01 5.324148e-01 5.142735e-01 5.163287e-01 3.578462e-01 2.942126e-01 2.731170e-01 3.916042e-01 4.128707e-01 3.468167e-01 1.948269e-01 8.089692e-02 1.397520e-01 -2.260941e-02 0 0 0 0 
0 0 0 0 0 -2.315333e+00 -3.983019e+00 -3.283073e+00 -6.069764e+00 -5.040012e+00 -7.658742e+00 -6.275082e+00 -8.820646e+00 -1.074424e+01 1.096360e+01 1.014461e+01 3.140044e+01 3.036588e+01 5.242467e+01 5.124230e+01 7.443666e+01 7.096674e+01 6.858779e+01 6.779893e+01 6.633864e+01 6.770121e+01 6.763889e+01 6.762503e+01 6.787009e+01 7.050240e+01 7.224198e+01 7.212051e+01 7.054277e+01 6.896095e+01 6.731885e+01 6.493057e+01 6.217732e+01 5.874073e+01 5.627065e+01 5.612152e+01 5.933596e+01 6.197149e+01 6.153945e+01 5.769796e+01 5.397151e+01 5.194005e+01 5.295826e+01 5.508292e+01 5.569554e+01 5.355537e+01 5.046222e+01 4.795358e+01 4.682496e+01 4.722847e+01 4.782934e+01 4.755506e+01 4.644195e+01 4.489981e+01 4.297962e+01 4.206424e+01 4.455205e+01 5.047593e+01 5.603834e+01 5.771994e+01 5.546822e+01 5.028267e+01 4.261293e+01 3.454860e+01 2.843817e+01 2.625696e+01 2.779835e+01 3.189271e+01 3.532712e+01 3.753784e+01 3.838335e+01 3.846627e+01 3.660712e+01 3.401950e+01 3.043868e+01 2.608411e+01 2.143769e+01 1.942370e+01 2.075727e+01 2.446024e+01 2.876998e+01 3.259484e+01 3.548406e+01 3.711658e+01 3.804019e+01 3.608639e+01 3.132201e+01 2.379434e+01 1.731602e+01 1.244800e+01 1.200967e+01 1.393885e+01 1.810712e+01 2.137838e+01 2.404763e+01 2.355673e+01 2.125638e+01 1.770952e+01 1.470842e+01 1.248487e+01 1.146377e+01 1.192454e+01 1.213595e+01 1.277665e+01 1.207228e+01 1.233881e+01 1.106544e+01 1.195194e+01 1.154446e+01 1.158961e+01 8.030676e+00 6.601329e+00 6.125287e+00 8.780379e+00 9.251154e+00 7.749659e+00 4.287546e+00 1.731129e+00 3.112524e+00 -5.079455e-01 0 0 0 0 
0 0 0 0 0 -3.352529e+00 -5.771191e+00 -4.759653e+00 -8.790195e+00 -7.297717e+00 -1.108971e+01 -9.087680e+00 -1.277428e+01 -7.769120e+00 1.157767e+01 2.352650e+01 3.789964e+01 5.333881e+01 6.835723e+01 8.146906e+01 1.010662e+02 1.027053e+02 9.926351e+01 9.812218e+01 9.600943e+01 9.798097e+01 9.789082e+01 9.787078e+01 9.822531e+01 1.020338e+02 1.045506e+02 1.043749e+02 1.020921e+02 9.980354e+01 9.742763e+01 9.397214e+01 8.998842e+01 8.501593e+01 8.144178e+01 8.122599e+01 8.587723e+01 8.969071e+01 8.906556e+01 8.350708e+01 7.811497e+01 7.517538e+01 7.664876e+01 7.972321e+01 8.060965e+01 7.751275e+01 7.303687e+01 6.940668e+01 6.777347e+01 6.835741e+01 6.922691e+01 6.883000e+01 6.721923e+01 6.498755e+01 6.220880e+01 6.088408e+01 6.448422e+01 7.305663e+01 8.110562e+01 8.353891e+01 8.028070e+01 7.277692e+01 6.167794e+01 5.000724e+01 4.116386e+01 3.800698e+01 4.023784e+01 4.616362e+01 5.113413e+01 5.433355e+01 5.555718e+01 5.567716e+01 5.298654e+01 4.924164e+01 4.405913e+01 3.775668e+01 3.103148e+01 2.811648e+01 3.004672e+01 3.540623e+01 4.164400e+01 4.717965e+01 5.136117e+01 5.372380e+01 5.506050e+01 5.223295e+01 4.533752e+01 3.444250e+01 2.506577e+01 1.801941e+01 1.738494e+01 2.017738e+01 2.621064e+01 3.094559e+01 3.480886e+01 3.409824e+01 3.076876e+01 2.563473e+01 2.129087e+01 1.807220e+01 1.659422e+01 1.726130e+01 1.756739e+01 1.849492e+01 1.747547e+01 1.786134e+01 1.601817e+01 1.730138e+01 1.671145e+01 1.677655e+01 1.162441e+01 9.555100e+00 8.865363e+00 1.270760e+01 1.338741e+01 1.120913e+01 6.184710e+00 2.484388e+00 4.499351e+00 -7.353919e-01 0 0 0 0 
0 0 0 0 0 -1.140177e+00 -1.964644e+00 -1.621575e+00 -2.990161e+00 -2.481885e+00 -3.771593e+00 -3.091427e+00 -4.345558e+00 -2.644047e+00 3.934746e+00 7.996990e+00 1.288291e+01 1.813000e+01 2.323402e+01 2.768904e+01 3.434713e+01 3.490421e+01 3.373504e+01 3.334731e+01 3.262960e+01 3.329943e+01 3.326882e+01 3.326201e+01 3.338243e+01 3.467619e+01 3.553122e+01 3.547151e+01 3.469602e+01 3.391856e+01 3.311140e+01 3.193749e+01 3.058405e+01 2.889467e+01 2.768031e+01 2.760699e+01 2.918732e+01 3.048297e+01 3.027056e+01 2.838203e+01 2.654998e+01 2.555116e+01 2.605178e+01 2.709642e+01 2.739760e+01 2.634533e+01 2.482451e+01 2.359099e+01 2.303603e+01 2.323446e+01 2.352991e+01 2.339504e+01 2.284770e+01 2.208935e+01 2.114509e+01 2.069492e+01 2.191827e+01 2.483118e+01 2.756608e+01 2.839286e+01 2.728582e+01 2.473612e+01 2.096460e+01 1.699846e+01 1.399296e+01 1.292003e+01 1.367824e+01 1.569224e+01 1.738152e+01 1.846884e+01 1.888468e+01 1.892544e+01 1.801103e+01 1.673833e+01 1.497695e+01 1.283490e+01 1.054898e+01 9.558181e+00 1.021430e+01 1.203594e+01 1.415611e+01 1.603748e+01 1.745863e+01 1.826157e+01 1.871585e+01 1.775494e+01 1.541141e+01 1.170841e+01 8.521206e+00 6.125933e+00 5.910259e+00 6.859491e+00 8.910278e+00 1.051976e+01 1.183281e+01 1.159123e+01 1.045954e+01 8.714314e+00 7.237776e+00 6.143594e+00 5.641201e+00 5.868023e+00 5.972113e+00 6.287474e+00 5.940978e+00 6.072189e+00 5.445636e+00 5.881850e+00 5.681265e+00 5.703277e+00 3.951582e+00 3.247984e+00 3.013193e+00 4.318830e+00 4.549123e+00 3.806288e+00 2.091991e+00 8.341555e-01 1.526579e+00 -2.500558e-01 0 0 0 0 
0 0 0 0 0 0 0 0 0 0 0 0 0 0 0 0 0 0 0 0 0 0 0 0 0 0 0 0 0 0 0 0 0 0 0 0 0 0 0 0 0 0 0 0 0 0 0 0 0 0 0 0 0 0 0 0 0 0 0 0 0 0 0 0 0 0 0 0 0 0 0 0 0 0 0 0 0 0 0 0 0 0 0 0 0 0 0 0 0 0 0 0 0 0 0 0 0 0 0 0 0 0 0 0 0 0 0 0 0 0 0 0 0 0 0 0 0 0 0 0 0 0 0 0 0 0 0 0 
