# vtk DataFile Version 2.0
Comment goes here
ASCII

DATASET STRUCTURED_POINTS
FIELD FieldData 1
TIME 1 1 double
0.72000000
DIMENSIONS    128   16   1

ORIGIN    0.000   0.000   0.000
SPACING   0.0078125 0.015625   1.000

POINT_DATA   2048
SCALARS fY double
LOOKUP_TABLE default

0 0 0 0 0 0 0 0 0 0 0 0 0 0 0 0 0 0 0 0 0 0 0 0 0 0 0 0 0 0 0 0 0 0 0 0 0 0 0 0 0 0 0 0 0 0 0 0 0 0 0 0 0 0 0 0 0 0 0 0 0 0 0 0 0 0 0 0 0 0 0 0 0 0 0 0 0 0 0 0 0 0 0 0 0 0 0 0 0 0 0 0 0 0 0 0 0 0 0 0 0 0 0 0 0 0 0 0 0 0 0 0 0 0 0 0 0 0 0 0 0 0 0 0 0 0 0 0 
0 0 0 0 0 0 0 0 0 0 0 0 0 0 0 0 0 0 0 0 0 0 0 0 0 0 0 0 0 0 0 0 0 0 0 0 0 0 0 0 0 0 0 0 0 0 0 0 0 0 0 0 0 0 0 0 0 0 0 0 0 0 0 0 0 0 0 0 0 0 0 0 0 0 0 0 0 0 0 0 0 0 0 0 0 0 0 0 0 0 0 0 0 0 0 0 0 0 0 0 0 0 0 0 0 0 0 0 0 0 0 0 0 0 0 0 0 0 0 0 0 0 0 0 0 0 0 0 
0 0 0 0 0 -1.026708e+00 -8.453291e-01 -7.293836e-01 -1.228017e+00 -8.773227e-01 -1.526129e+00 -1.101872e+00 -1.772177e+00 -1.080084e+00 1.957461e+00 4.578129e+00 6.084818e+00 8.472482e+00 1.067405e+01 1.189315e+01 1.599146e+01 1.619382e+01 1.589813e+01 1.592891e+01 1.551733e+01 1.557543e+01 1.522946e+01 1.540041e+01 1.512694e+01 1.529950e+01 1.501641e+01 1.508558e+01 1.472404e+01 1.461276e+01 1.419529e+01 1.402831e+01 1.376981e+01 1.374449e+01 1.373030e+01 1.379299e+01 1.382782e+01 1.374960e+01 1.363680e+01 1.337768e+01 1.318913e+01 1.290480e+01 1.276296e+01 1.256342e+01 1.254648e+01 1.248222e+01 1.253915e+01 1.245846e+01 1.241179e+01 1.223284e+01 1.214096e+01 1.201560e+01 1.132905e+01 1.180994e+01 1.288790e+01 1.154832e+01 9.960444e+00 7.132435e+00 7.820041e+00 1.093564e+01 1.036149e+01 7.186539e+00 1.001037e+01 1.221635e+01 8.679401e+00 9.122685e+00 5.482933e+00 4.508867e+00 7.381128e+00 7.705407e+00 7.647349e+00 7.562280e+00 7.373540e+00 7.138527e+00 6.947656e+00 6.680444e+00 6.581783e+00 6.350553e+00 6.385110e+00 6.204452e+00 6.331281e+00 6.137925e+00 6.228677e+00 5.896231e+00 5.824375e+00 5.376605e+00 5.264135e+00 4.921982e+00 4.885248e+00 4.697263e+00 4.682922e+00 4.632457e+00 4.579712e+00 4.583816e+00 4.348221e+00 4.319057e+00 3.914369e+00 3.953158e+00 3.510421e+00 3.676791e+00 3.225884e+00 3.446297e+00 2.942263e+00 3.125842e+00 2.616430e+00 2.783474e+00 2.364197e+00 2.467637e+00 2.148571e+00 2.142029e+00 1.978504e+00 1.816654e+00 1.757606e+00 1.355481e+00 1.434470e+00 9.079161e-01 1.236868e+00 5.765104e-01 1.272362e+00 4.988813e-01 0 0 0 0 
0 0 0 0 0 -3.020718e+00 -2.495061e+00 -2.158473e+00 -3.618396e+00 -2.581925e+00 -4.489281e+00 -3.241222e+00 -5.212967e+00 -3.177422e+00 5.756909e+00 1.346433e+01 1.789537e+01 2.491655e+01 3.139081e+01 3.497527e+01 4.702510e+01 4.762012e+01 4.675067e+01 4.684118e+01 4.563126e+01 4.580224e+01 4.478522e+01 4.528801e+01 4.448409e+01 4.499154e+01 4.415927e+01 4.436265e+01 4.329966e+01 4.297245e+01 4.174495e+01 4.125397e+01 4.049389e+01 4.041941e+01 4.037768e+01 4.056200e+01 4.066440e+01 4.043442e+01 4.010276e+01 3.934089e+01 3.878649e+01 3.795051e+01 3.753346e+01 3.694674e+01 3.689693e+01 3.670800e+01 3.687541e+01 3.663816e+01 3.650093e+01 3.597476e+01 3.570456e+01 3.533585e+01 3.479066e+01 3.636379e+01 3.780064e+01 3.506722e+01 3.449206e+01 3.213957e+01 3.121251e+01 3.199134e+01 3.061090e+01 2.701185e+01 2.729835e+01 2.779351e+01 2.320528e+01 2.483436e+01 2.076360e+01 1.928440e+01 2.210929e+01 2.266138e+01 2.249061e+01 2.224043e+01 2.168538e+01 2.099428e+01 2.043297e+01 1.964720e+01 1.935708e+01 1.867712e+01 1.877878e+01 1.824752e+01 1.862053e+01 1.805190e+01 1.831877e+01 1.734107e+01 1.712970e+01 1.581279e+01 1.548197e+01 1.447563e+01 1.436753e+01 1.381461e+01 1.377240e+01 1.362397e+01 1.346887e+01 1.348099e+01 1.278821e+01 1.270252e+01 1.151245e+01 1.162660e+01 1.032457e+01 1.081386e+01 9.487664e+00 1.013576e+01 8.653142e+00 9.192763e+00 7.694155e+00 8.185049e+00 6.951474e+00 7.255327e+00 6.316573e+00 6.297152e+00 5.816124e+00 5.340250e+00 5.166850e+00 3.984666e+00 4.217445e+00 2.668602e+00 3.630589e+00 1.683938e+00 3.736461e+00 1.466993e+00 0 0 0 0 
0 0 0 0 0 -2.087063e+00 -1.727747e+00 -1.497392e+00 -2.502624e+00 -1.784243e+00 -3.101329e+00 -2.239104e+00 -3.601227e+00 -3.512424e+00 5.543433e+00 5.423618e+00 1.473102e+01 1.487650e+01 2.386235e+01 2.436712e+01 3.297047e+01 3.288971e+01 3.228925e+01 3.235177e+01 3.151629e+01 3.163445e+01 3.093219e+01 3.127950e+01 3.072438e+01 3.107487e+01 3.050014e+01 3.064060e+01 2.990650e+01 2.968053e+01 2.883279e+01 2.849371e+01 2.796877e+01 2.791733e+01 2.788850e+01 2.801579e+01 2.808651e+01 2.792769e+01 2.769864e+01 2.717249e+01 2.678962e+01 2.621228e+01 2.592426e+01 2.551907e+01 2.548468e+01 2.535420e+01 2.546982e+01 2.530598e+01 2.521120e+01 2.484781e+01 2.466119e+01 2.440650e+01 2.545024e+01 2.330438e+01 2.063031e+01 2.176372e+01 2.262439e+01 2.515892e+01 2.382929e+01 1.946714e+01 1.869605e+01 2.232323e+01 1.692602e+01 1.359459e+01 1.760260e+01 1.505798e+01 1.895565e+01 2.061706e+01 1.577232e+01 1.565275e+01 1.553480e+01 1.536199e+01 1.497861e+01 1.450129e+01 1.411360e+01 1.357089e+01 1.337052e+01 1.290089e+01 1.297112e+01 1.260420e+01 1.286184e+01 1.246910e+01 1.265342e+01 1.197809e+01 1.183208e+01 1.092244e+01 1.069391e+01 9.998772e+00 9.924076e+00 9.542131e+00 9.512958e+00 9.410428e+00 9.303309e+00 9.311698e+00 8.833223e+00 8.774074e+00 7.952119e+00 8.031005e+00 7.131676e+00 7.469646e+00 6.553565e+00 7.001160e+00 5.976947e+00 6.349541e+00 5.314202e+00 5.653091e+00 4.800792e+00 5.010497e+00 4.361888e+00 4.348385e+00 4.016076e+00 3.687438e+00 3.567792e+00 2.751450e+00 2.912465e+00 1.842515e+00 2.504341e+00 1.157532e+00 2.578188e+00 1.013189e+00 0 0 0 0 
0 0 0 0 0 -9.305330e-02 -7.801488e-02 -6.830244e-02 -1.122452e-01 -7.964047e-02 -1.381766e-01 -9.975366e-02 -1.604376e-01 -9.182522e-01 2.024708e+00 -3.803115e+00 3.218772e+00 -1.891791e+00 3.428231e+00 1.064585e+00 1.769991e+00 1.463419e+00 1.436711e+00 1.439494e+00 1.402365e+00 1.407640e+00 1.376436e+00 1.391900e+00 1.367231e+00 1.382828e+00 1.357278e+00 1.363528e+00 1.330883e+00 1.320833e+00 1.283128e+00 1.268046e+00 1.244696e+00 1.242406e+00 1.241122e+00 1.246782e+00 1.249927e+00 1.242865e+00 1.232679e+00 1.209281e+00 1.192253e+00 1.166578e+00 1.153769e+00 1.135749e+00 1.134220e+00 1.128418e+00 1.133562e+00 1.126275e+00 1.122060e+00 1.105895e+00 1.097592e+00 1.086253e+00 1.987576e+00 -2.868817e+00 -6.423422e+00 -2.707506e+00 -3.311007e+00 -9.215139e-01 -5.782419e-01 -2.396814e+00 -2.740690e+00 1.720844e+00 -8.156383e-01 -3.028961e+00 3.171039e+00 -8.889054e-01 3.852107e+00 6.482633e+00 1.103829e+00 6.967840e-01 6.915312e-01 6.838395e-01 6.667757e-01 6.455359e-01 6.282833e-01 6.041349e-01 5.952208e-01 5.743250e-01 5.774547e-01 5.611281e-01 5.725969e-01 5.551177e-01 5.633191e-01 5.332582e-01 5.267539e-01 4.862565e-01 4.760771e-01 4.451240e-01 4.417911e-01 4.247812e-01 4.234782e-01 4.189124e-01 4.141468e-01 4.145258e-01 3.932382e-01 3.906150e-01 3.540391e-01 3.575600e-01 3.175312e-01 3.325766e-01 2.917858e-01 3.116946e-01 2.660682e-01 2.826201e-01 2.364773e-01 2.515164e-01 2.135156e-01 2.228064e-01 1.938854e-01 1.932620e-01 1.784561e-01 1.638418e-01 1.585477e-01 1.222641e-01 1.294898e-01 8.182872e-02 1.106190e-01 5.010443e-02 1.140889e-01 4.507734e-02 0 0 0 0 
0 0 0 0 0 0 0 0 0 0 0 0 0 -1.193022e+00 3.300661e-01 -1.038704e+00 6.888946e-01 -7.019134e-01 7.834513e-01 -1.196935e-01 8.644104e-01 0 0 0 0 0 0 0 0 0 0 0 0 0 0 0 0 0 0 0 0 0 0 0 0 0 0 0 0 0 0 0 0 0 0 0 1.159210e-03 -1.626741e+00 -2.138450e+00 -9.290933e-01 -1.358992e+00 -9.919458e-01 -9.647614e-01 -7.975568e-01 -1.186630e+00 -7.613667e-01 -4.574435e-01 -1.107766e+00 5.662401e-02 -2.356394e-01 1.863993e-01 6.485227e-01 6.050848e-02 0 0 0 0 0 0 0 0 0 0 0 0 0 0 0 0 0 0 0 0 0 0 0 0 0 0 0 0 0 0 0 0 0 0 0 0 0 0 0 0 0 0 0 0 0 0 0 0 0 0 0 0 0 0 0 
0 0 0 0 0 0 0 0 0 0 0 0 0 -5.898891e-01 3.391855e-01 -7.446577e-01 5.695781e-01 -5.676400e-01 5.563747e-01 -1.547641e-01 4.124995e-01 0 0 0 0 0 0 0 0 0 0 0 0 0 0 0 0 0 0 0 0 0 0 0 0 0 0 0 0 0 0 0 0 0 0 0 2.220360e-03 -7.401652e-03 2.545326e-03 2.323775e-02 4.479138e-02 8.135447e-02 5.029876e-02 1.069014e-02 7.015394e-04 1.571078e-02 -3.763622e-03 -6.136460e-02 -3.769913e-02 -4.282909e-04 9.279850e-03 7.410320e-03 8.344558e-04 0 0 0 0 0 0 0 0 0 0 0 0 0 0 0 0 0 0 0 0 0 0 0 0 0 0 0 0 0 0 0 0 0 0 0 0 0 0 0 0 0 0 0 0 0 0 0 0 0 0 0 0 0 0 0 
0 0 0 0 0 0 0 0 0 0 0 0 0 -2.903953e-03 2.652111e-03 1.142019e-03 5.937575e-03 3.174937e-03 8.149132e-03 3.291710e-03 1.062889e-02 0 0 0 0 0 0 0 0 0 0 0 0 0 0 0 0 0 0 0 0 0 0 0 0 0 0 0 0 0 0 0 0 0 0 0 0 0 0 0 0 0 0 0 0 0 0 0 0 0 0 0 0 0 0 0 0 0 0 0 0 0 0 0 0 0 0 0 0 0 0 0 0 0 0 0 0 0 0 0 0 0 0 0 0 0 0 0 0 0 0 0 0 0 0 0 0 0 0 0 0 0 0 0 0 0 0 0 
0 0 0 0 0 0 0 0 0 0 0 0 0 5.915204e-01 -3.280682e-01 7.527064e-01 -5.563231e-01 5.794101e-01 -5.433778e-01 1.654118e-01 -3.991796e-01 0 0 0 0 0 0 0 0 0 0 0 0 0 0 0 0 0 0 0 0 0 0 0 0 0 0 0 0 0 0 0 0 0 0 0 0 0 0 0 0 0 0 0 0 0 0 0 0 0 0 0 0 0 0 0 0 0 0 0 0 0 0 0 0 0 0 0 0 0 0 0 0 0 0 0 0 0 0 0 0 0 0 0 0 0 0 0 0 0 0 0 0 0 0 0 0 0 0 0 0 0 0 0 0 0 0 0 
0 0 0 0 0 0 0 0 0 0 0 0 0 1.195927e+00 -3.180377e-01 1.049209e+00 -6.727237e-01 7.159287e-01 -7.674374e-01 1.257042e-01 -8.509218e-01 0 0 0 0 0 0 0 0 0 0 0 0 0 0 0 0 0 0 0 0 0 0 0 0 0 0 0 0 0 0 0 0 0 0 0 0 0 0 0 0 0 0 0 0 0 0 0 0 0 0 0 0 0 0 0 0 0 0 0 0 0 0 0 0 0 0 0 0 0 0 0 0 0 0 0 0 0 0 0 0 0 0 0 0 0 0 0 0 0 0 0 0 0 0 0 0 0 0 0 0 0 0 0 0 0 0 0 
0 0 0 0 0 9.308260e-02 7.792077e-02 6.909946e-02 1.149297e-01 8.367101e-02 1.416192e-01 1.017451e-01 1.617200e-01 9.628572e-01 -1.988857e+00 3.823758e+00 -3.194906e+00 1.923257e+00 -3.415579e+00 -1.050767e+00 -1.770763e+00 -1.456802e+00 -1.433032e+00 -1.445057e+00 -1.417094e+00 -1.425417e+00 -1.386826e+00 -1.389533e+00 -1.350100e+00 -1.355756e+00 -1.324180e+00 -1.333911e+00 -1.312691e+00 -1.324818e+00 -1.310582e+00 -1.314156e+00 -1.293927e+00 -1.277887e+00 -1.249370e+00 -1.222622e+00 -1.202148e+00 -1.182824e+00 -1.179532e+00 -1.167458e+00 -1.171728e+00 -1.158457e+00 -1.161633e+00 -1.140900e+00 -1.133334e+00 -1.100502e+00 -1.084440e+00 -1.053486e+00 -1.043806e+00 -1.024997e+00 -1.020841e+00 -1.008235e+00 -1.001264e+00 -9.888760e-01 -9.738695e-01 -9.584348e-01 -9.336609e-01 -9.145506e-01 -8.842212e-01 -8.689223e-01 -8.442031e-01 -8.387975e-01 -8.181981e-01 -8.122140e-01 -7.886777e-01 -7.800774e-01 -7.555059e-01 -7.442096e-01 -7.151612e-01 -6.977982e-01 -6.702605e-01 -6.555522e-01 -6.397626e-01 -6.307012e-01 -6.257139e-01 -6.169904e-01 -6.165707e-01 -6.006617e-01 -5.972011e-01 -5.685623e-01 -5.585177e-01 -5.207805e-01 -5.140588e-01 -4.864844e-01 -4.977933e-01 -4.852164e-01 -4.986858e-01 -4.800560e-01 -4.757094e-01 -4.476294e-01 -4.287847e-01 -4.029306e-01 -3.800780e-01 -3.710492e-01 -3.541346e-01 -3.646502e-01 -3.440324e-01 -3.569608e-01 -3.178796e-01 -3.246588e-01 -2.728260e-01 -2.844129e-01 -2.390796e-01 -2.630126e-01 -2.267648e-01 -2.490311e-01 -2.150869e-01 -2.266987e-01 -1.979238e-01 -1.933873e-01 -1.708786e-01 -1.503839e-01 -1.464430e-01 -1.191054e-01 -1.365815e-01 -9.427129e-02 -1.218026e-01 -5.630896e-02 -1.158795e-01 -4.522584e-02 0 0 0 0 
0 0 0 0 0 2.087719e+00 1.725599e+00 1.515213e+00 2.562855e+00 1.874736e+00 3.178617e+00 2.283819e+00 3.630030e+00 3.593145e+00 -5.473844e+00 -5.352689e+00 -1.467370e+01 -1.480541e+01 -2.382655e+01 -2.432800e+01 -3.299025e+01 -3.274090e+01 -3.220652e+01 -3.247684e+01 -3.184752e+01 -3.203422e+01 -3.116580e+01 -3.122626e+01 -3.033910e+01 -3.046606e+01 -2.975585e+01 -2.997459e+01 -2.949743e+01 -2.977019e+01 -2.945016e+01 -2.953063e+01 -2.907587e+01 -2.871524e+01 -2.807412e+01 -2.747264e+01 -2.701233e+01 -2.657779e+01 -2.650370e+01 -2.623217e+01 -2.632810e+01 -2.602964e+01 -2.610099e+01 -2.563480e+01 -2.546468e+01 -2.472655e+01 -2.436548e+01 -2.366966e+01 -2.345207e+01 -2.302931e+01 -2.293591e+01 -2.265260e+01 -2.249592e+01 -2.221747e+01 -2.188012e+01 -2.153318e+01 -2.097626e+01 -2.054670e+01 -1.986493e+01 -1.952104e+01 -1.896541e+01 -1.884390e+01 -1.838091e+01 -1.824642e+01 -1.771748e+01 -1.752422e+01 -1.697206e+01 -1.671824e+01 -1.606553e+01 -1.567538e+01 -1.505666e+01 -1.472616e+01 -1.437141e+01 -1.416779e+01 -1.405571e+01 -1.385964e+01 -1.385016e+01 -1.349260e+01 -1.341478e+01 -1.277122e+01 -1.254550e+01 -1.169760e+01 -1.154661e+01 -1.092718e+01 -1.118138e+01 -1.089898e+01 -1.120180e+01 -1.078347e+01 -1.068598e+01 -1.005535e+01 -9.632033e+00 -9.051321e+00 -8.537841e+00 -8.334924e+00 -7.954746e+00 -8.190723e+00 -7.727309e+00 -8.017530e+00 -7.139482e+00 -7.291783e+00 -6.127694e+00 -6.388332e+00 -5.370741e+00 -5.909138e+00 -5.096014e+00 -5.597254e+00 -4.836044e+00 -5.097885e+00 -4.452548e+00 -4.351138e+00 -3.845905e+00 -3.385164e+00 -3.295898e+00 -2.680560e+00 -3.071712e+00 -2.121931e+00 -2.755584e+00 -1.296960e+00 -2.618437e+00 -1.016530e+00 0 0 0 0 
0 0 0 0 0 3.021667e+00 2.491943e+00 2.184253e+00 3.705577e+00 2.712925e+00 4.601164e+00 3.305953e+00 5.254666e+00 3.231371e+00 -5.709272e+00 -1.340673e+01 -1.786186e+01 -2.490600e+01 -3.137415e+01 -3.493740e+01 -4.687850e+01 -4.740463e+01 -4.663088e+01 -4.702228e+01 -4.611089e+01 -4.638111e+01 -4.512347e+01 -4.521091e+01 -4.392619e+01 -4.410996e+01 -4.308153e+01 -4.339825e+01 -4.270733e+01 -4.310230e+01 -4.263891e+01 -4.275546e+01 -4.209699e+01 -4.157481e+01 -4.064650e+01 -3.977556e+01 -3.910904e+01 -3.847981e+01 -3.837252e+01 -3.797933e+01 -3.811821e+01 -3.768603e+01 -3.778934e+01 -3.711430e+01 -3.686797e+01 -3.579919e+01 -3.527637e+01 -3.426887e+01 -3.395382e+01 -3.334172e+01 -3.320650e+01 -3.279629e+01 -3.256943e+01 -3.216626e+01 -3.167781e+01 -3.117546e+01 -3.036908e+01 -2.974712e+01 -2.875996e+01 -2.826204e+01 -2.745755e+01 -2.728160e+01 -2.661125e+01 -2.641653e+01 -2.565069e+01 -2.537089e+01 -2.457146e+01 -2.420397e+01 -2.325896e+01 -2.269410e+01 -2.179830e+01 -2.131981e+01 -2.080620e+01 -2.051139e+01 -2.034911e+01 -2.006523e+01 -2.005149e+01 -1.953379e+01 -1.942111e+01 -1.848932e+01 -1.816252e+01 -1.693494e+01 -1.671633e+01 -1.581956e+01 -1.618762e+01 -1.577880e+01 -1.621728e+01 -1.561167e+01 -1.547057e+01 -1.455761e+01 -1.394476e+01 -1.310405e+01 -1.236063e+01 -1.206683e+01 -1.151637e+01 -1.185795e+01 -1.118697e+01 -1.160709e+01 -1.033586e+01 -1.055636e+01 -8.871118e+00 -9.248547e+00 -7.775523e+00 -8.555183e+00 -7.378270e+00 -8.104210e+00 -7.002499e+00 -7.381831e+00 -6.447812e+00 -6.301122e+00 -5.569772e+00 -4.902644e+00 -4.773222e+00 -3.882053e+00 -4.447981e+00 -3.073105e+00 -3.994331e+00 -1.885807e+00 -3.794738e+00 -1.471831e+00 0 0 0 0 
0 0 0 0 0 1.027031e+00 8.442650e-01 7.381395e-01 1.257652e+00 9.218596e-01 1.564166e+00 1.123880e+00 1.786355e+00 1.098428e+00 -1.941262e+00 -4.558537e+00 -6.073422e+00 -8.468890e+00 -1.066838e+01 -1.188027e+01 -1.594159e+01 -1.612053e+01 -1.585739e+01 -1.599050e+01 -1.568046e+01 -1.577231e+01 -1.534450e+01 -1.537418e+01 -1.493719e+01 -1.499966e+01 -1.464986e+01 -1.475757e+01 -1.452259e+01 -1.465693e+01 -1.449933e+01 -1.453899e+01 -1.431505e+01 -1.413746e+01 -1.382175e+01 -1.352554e+01 -1.329886e+01 -1.308485e+01 -1.304835e+01 -1.291462e+01 -1.296184e+01 -1.281485e+01 -1.284998e+01 -1.262040e+01 -1.253662e+01 -1.217314e+01 -1.199533e+01 -1.165270e+01 -1.154556e+01 -1.133741e+01 -1.129142e+01 -1.115193e+01 -1.107478e+01 -1.093767e+01 -1.077156e+01 -1.060072e+01 -1.032648e+01 -1.011497e+01 -9.779259e+00 -9.609929e+00 -9.336342e+00 -9.276505e+00 -9.048541e+00 -8.982323e+00 -8.721894e+00 -8.626746e+00 -8.354899e+00 -8.229937e+00 -7.908594e+00 -7.716514e+00 -7.411908e+00 -7.249199e+00 -7.074551e+00 -6.974301e+00 -6.919120e+00 -6.822581e+00 -6.817900e+00 -6.641850e+00 -6.603527e+00 -6.286670e+00 -6.175541e+00 -5.758113e+00 -5.683783e+00 -5.378860e+00 -5.504028e+00 -5.365038e+00 -5.514159e+00 -5.308261e+00 -5.260303e+00 -4.949894e+00 -4.741512e+00 -4.455661e+00 -4.202866e+00 -4.102956e+00 -3.915762e+00 -4.031875e+00 -3.803698e+00 -3.946522e+00 -3.514260e+00 -3.589235e+00 -3.016250e+00 -3.144627e+00 -2.643861e+00 -2.909057e+00 -2.509021e+00 -2.755987e+00 -2.381541e+00 -2.510645e+00 -2.193188e+00 -2.143371e+00 -1.894745e+00 -1.667864e+00 -1.623766e+00 -1.320598e+00 -1.512850e+00 -1.045445e+00 -1.360550e+00 -6.451565e-01 -1.292181e+00 -5.005270e-01 0 0 0 0 
0 0 0 0 0 0 0 0 0 0 0 0 0 0 0 0 0 0 0 0 0 0 0 0 0 0 0 0 0 0 0 0 0 0 0 0 0 0 0 0 0 0 0 0 0 0 0 0 0 0 0 0 0 0 0 0 0 0 0 0 0 0 0 0 0 0 0 0 0 0 0 0 0 0 0 0 0 0 0 0 0 0 0 0 0 0 0 0 0 0 0 0 0 0 0 0 0 0 0 0 0 0 0 0 0 0 0 0 0 0 0 0 0 0 0 0 0 0 0 0 0 0 0 0 0 0 0 0 
