# vtk DataFile Version 2.0
Comment goes here
ASCII

DATASET STRUCTURED_POINTS
FIELD FieldData 1
TIME 1 1 double
0.29000000
DIMENSIONS    128   16   1

ORIGIN    0.000   0.000   0.000
SPACING   0.0078125 0.015625   1.000

POINT_DATA   2048
SCALARS fY double
LOOKUP_TABLE default

0 0 0 0 0 0 0 0 0 0 0 0 0 0 0 0 0 0 0 0 0 0 0 0 0 0 0 0 0 0 0 0 0 0 0 0 0 0 0 0 0 0 0 0 0 0 0 0 0 0 0 0 0 0 0 0 0 0 0 0 0 0 0 0 0 0 0 0 0 0 0 0 0 0 0 0 0 0 0 0 0 0 0 0 0 0 0 0 0 0 0 0 0 0 0 0 0 0 0 0 0 0 0 0 0 0 0 0 0 0 0 0 0 0 0 0 0 0 0 0 0 0 0 0 0 0 0 0 
0 0 0 0 0 0 0 0 0 0 0 0 0 0 0 0 0 0 0 0 0 0 0 0 0 0 0 0 0 0 0 0 0 0 0 0 0 0 0 0 0 0 0 0 0 0 0 0 0 0 0 0 0 0 0 0 0 0 0 0 0 0 0 0 0 0 0 0 0 0 0 0 0 0 0 0 0 0 0 0 0 0 0 0 0 0 0 0 0 0 0 0 0 0 0 0 0 0 0 0 0 0 0 0 0 0 0 0 0 0 0 0 0 0 0 0 0 0 0 0 0 0 0 0 0 0 0 0 
0 0 0 0 0 -5.853543e-01 -1.524465e+00 -1.202982e+00 -2.116203e+00 -1.786395e+00 -2.636013e+00 -2.124319e+00 -2.949312e+00 -1.728472e+00 2.896847e+00 5.480320e+00 9.502211e+00 1.322642e+01 1.667664e+01 2.024099e+01 2.435225e+01 2.481969e+01 2.417646e+01 2.439497e+01 2.444840e+01 2.499657e+01 2.524452e+01 2.534272e+01 2.501218e+01 2.428297e+01 2.334438e+01 2.224163e+01 2.166829e+01 2.151146e+01 2.222820e+01 2.306636e+01 2.393066e+01 2.389774e+01 2.339802e+01 2.237276e+01 2.148982e+01 2.054381e+01 1.981272e+01 1.915820e+01 1.877569e+01 1.864460e+01 1.875563e+01 1.899942e+01 1.915391e+01 1.927276e+01 1.913711e+01 1.886787e+01 1.828986e+01 1.767601e+01 1.686794e+01 1.616144e+01 1.591474e+01 1.492689e+01 1.512833e+01 1.680604e+01 1.656191e+01 1.717204e+01 1.652269e+01 1.622360e+01 1.567443e+01 1.573405e+01 1.654262e+01 1.716617e+01 1.830312e+01 1.644479e+01 1.669910e+01 1.620044e+01 1.415397e+01 1.343072e+01 1.293884e+01 1.276234e+01 1.266828e+01 1.270705e+01 1.239891e+01 1.207737e+01 1.161192e+01 1.160940e+01 1.161794e+01 1.175197e+01 1.138862e+01 1.093772e+01 1.042216e+01 1.029730e+01 1.037506e+01 1.050348e+01 1.055977e+01 1.033522e+01 1.011519e+01 9.524382e+00 9.092927e+00 8.227459e+00 7.683113e+00 6.861306e+00 6.832915e+00 6.722779e+00 7.166979e+00 6.810258e+00 6.226251e+00 4.823943e+00 3.917292e+00 3.490310e+00 3.997466e+00 4.897361e+00 5.784513e+00 6.545211e+00 6.449013e+00 6.077808e+00 4.527844e+00 3.320536e+00 1.599539e+00 1.388126e+00 1.126625e+00 2.272979e+00 2.600391e+00 3.306002e+00 2.745011e+00 2.068600e+00 1.370202e+00 -5.414335e-01 0 0 0 0 
0 0 0 0 0 -1.721933e+00 -4.485247e+00 -3.540043e+00 -6.225635e+00 -5.255818e+00 -7.755859e+00 -6.251769e+00 -8.679417e+00 -5.088878e+00 8.517395e+00 1.611606e+01 2.794426e+01 3.889524e+01 4.904005e+01 5.951888e+01 7.160527e+01 7.297969e+01 7.108889e+01 7.173121e+01 7.188822e+01 7.349954e+01 7.422836e+01 7.451701e+01 7.354534e+01 7.140184e+01 6.864273e+01 6.540109e+01 6.371565e+01 6.325461e+01 6.536167e+01 6.782559e+01 7.036634e+01 7.026959e+01 6.880058e+01 6.578662e+01 6.319102e+01 6.040992e+01 5.826063e+01 5.633637e+01 5.521183e+01 5.482642e+01 5.515285e+01 5.586958e+01 5.632378e+01 5.667320e+01 5.627440e+01 5.548286e+01 5.378355e+01 5.197883e+01 4.960308e+01 4.752586e+01 4.623501e+01 4.430876e+01 4.576800e+01 5.054404e+01 5.141870e+01 5.277752e+01 5.008470e+01 4.789142e+01 4.518766e+01 4.345413e+01 4.469221e+01 4.526896e+01 4.777976e+01 4.629818e+01 4.690460e+01 4.545463e+01 4.152905e+01 3.949694e+01 3.805064e+01 3.753167e+01 3.725509e+01 3.736911e+01 3.646305e+01 3.551758e+01 3.414896e+01 3.414152e+01 3.416663e+01 3.456069e+01 3.349223e+01 3.216638e+01 3.065031e+01 3.028314e+01 3.051179e+01 3.088941e+01 3.105496e+01 3.039471e+01 2.974770e+01 2.801045e+01 2.674172e+01 2.419671e+01 2.259594e+01 2.017917e+01 2.009563e+01 1.977165e+01 2.107778e+01 2.002860e+01 1.831103e+01 1.418668e+01 1.152028e+01 1.026438e+01 1.175576e+01 1.440245e+01 1.701140e+01 1.924871e+01 1.896600e+01 1.787445e+01 1.331650e+01 9.765872e+00 4.704379e+00 4.082552e+00 3.312936e+00 6.683294e+00 7.642907e+00 9.707500e+00 8.022708e+00 6.024691e+00 4.008837e+00 -1.592905e+00 0 0 0 0 
0 0 0 0 0 -1.189586e+00 -3.098960e+00 -2.446215e+00 -4.301137e+00 -3.631328e+00 -5.358816e+00 -4.320286e+00 -5.997782e+00 -7.535975e+00 8.430826e+00 7.767222e+00 2.313893e+01 2.219688e+01 3.822062e+01 3.653836e+01 5.336167e+01 5.040188e+01 4.909631e+01 4.953982e+01 4.964822e+01 5.076079e+01 5.126402e+01 5.146332e+01 5.079238e+01 4.931234e+01 4.740715e+01 4.516881e+01 4.400499e+01 4.368664e+01 4.514163e+01 4.684299e+01 4.859739e+01 4.853059e+01 4.751624e+01 4.543505e+01 4.364274e+01 4.172229e+01 4.023813e+01 3.890931e+01 3.813276e+01 3.786662e+01 3.809203e+01 3.858698e+01 3.890063e+01 3.914193e+01 3.886655e+01 3.831994e+01 3.714648e+01 3.590021e+01 3.425958e+01 3.282507e+01 3.127252e+01 3.385238e+01 3.575776e+01 3.693370e+01 4.037285e+01 3.968450e+01 3.810241e+01 3.359875e+01 3.131328e+01 2.953681e+01 2.782670e+01 2.768502e+01 2.753248e+01 3.087442e+01 2.933993e+01 2.777680e+01 2.853971e+01 2.728030e+01 2.628147e+01 2.592305e+01 2.573204e+01 2.581079e+01 2.518504e+01 2.453207e+01 2.358684e+01 2.358169e+01 2.359903e+01 2.387116e+01 2.313322e+01 2.221753e+01 2.117044e+01 2.091685e+01 2.107476e+01 2.133556e+01 2.144991e+01 2.099393e+01 2.054708e+01 1.934726e+01 1.847100e+01 1.671324e+01 1.560762e+01 1.393836e+01 1.388064e+01 1.365682e+01 1.455888e+01 1.383415e+01 1.264777e+01 9.798884e+00 7.957158e+00 7.089599e+00 8.119660e+00 9.947853e+00 1.174985e+01 1.329527e+01 1.310010e+01 1.234621e+01 9.198144e+00 6.745654e+00 3.249515e+00 2.819972e+00 2.288113e+00 4.615597e+00 5.276828e+00 6.697759e+00 5.517105e+00 4.132806e+00 2.758877e+00 -1.100531e+00 0 0 0 0 
0 0 0 0 0 -5.300662e-02 -1.381770e-01 -1.091532e-01 -1.917048e-01 -1.619051e-01 -2.389694e-01 -1.928359e-01 -2.676781e-01 -3.332487e+00 2.906473e+00 -2.346960e+00 4.726711e+00 -3.142546e+00 5.817110e+00 -2.624667e+00 5.131819e+00 2.241886e+00 2.183882e+00 2.203585e+00 2.208397e+00 2.257820e+00 2.280176e+00 2.289026e+00 2.259215e+00 2.193464e+00 2.108806e+00 2.009353e+00 1.957635e+00 1.943490e+00 2.008154e+00 2.083758e+00 2.161714e+00 2.158747e+00 2.113675e+00 2.021191e+00 1.941542e+00 1.856184e+00 1.790219e+00 1.731149e+00 1.696630e+00 1.684799e+00 1.694818e+00 1.716823e+00 1.730765e+00 1.741493e+00 1.729254e+00 1.704956e+00 1.652793e+00 1.597387e+00 1.524447e+00 1.460660e+00 8.562067e-01 5.743603e+00 6.050644e+00 3.302280e+00 6.334723e+00 3.704443e+00 5.095880e+00 1.989920e+00 1.870488e+00 2.000168e+00 -8.614464e-01 -1.886128e-01 -2.636548e+00 5.136626e-01 -1.594419e+00 -2.156235e+00 1.133860e+00 1.214086e+00 1.169663e+00 1.153722e+00 1.145226e+00 1.148729e+00 1.120896e+00 1.091850e+00 1.049802e+00 1.049572e+00 1.050340e+00 1.062441e+00 1.029610e+00 9.888745e-01 9.422855e-01 9.310024e-01 9.380285e-01 9.496306e-01 9.547199e-01 9.344388e-01 9.145608e-01 8.611863e-01 8.221999e-01 7.439901e-01 6.947906e-01 6.204999e-01 6.179260e-01 6.079535e-01 6.480781e-01 6.158070e-01 5.629934e-01 4.361493e-01 3.541692e-01 3.155299e-01 3.613651e-01 4.427626e-01 5.229612e-01 5.917704e-01 5.831081e-01 5.495676e-01 4.094865e-01 3.003172e-01 1.446748e-01 1.255454e-01 1.018019e-01 2.052827e-01 2.343121e-01 2.962618e-01 2.394077e-01 1.767153e-01 1.202431e-01 -4.905979e-02 0 0 0 0 
0 0 0 0 0 0 0 0 0 0 0 0 0 -1.524457e+00 4.872188e-01 -1.458733e+00 1.257866e+00 -1.257365e+00 1.669120e+00 -5.162179e-01 1.649783e+00 0 0 0 0 0 0 0 0 0 0 0 0 0 0 0 0 0 0 0 0 0 0 0 0 0 0 0 0 0 0 0 0 0 0 0 -9.935676e-02 1.284441e+00 9.307453e-01 1.009914e-01 8.298808e-01 -3.922098e-01 5.572908e-01 5.653234e-02 5.565303e-02 1.538602e-01 -5.787780e-01 2.052462e-01 -7.393364e-01 -5.428546e-01 -7.456170e-01 -6.868258e-01 -3.130135e-02 0 0 0 0 0 0 0 0 0 0 0 0 0 0 0 0 0 0 0 0 0 0 0 0 0 0 0 0 0 0 0 0 0 0 0 0 0 0 0 0 0 0 0 0 0 0 0 0 0 0 0 0 0 0 0 
0 0 0 0 0 0 0 0 0 0 0 0 0 -7.634010e-01 4.449707e-01 -8.617128e-01 9.096096e-01 -8.800531e-01 1.071922e+00 -4.924466e-01 8.520998e-01 0 0 0 0 0 0 0 0 0 0 0 0 0 0 0 0 0 0 0 0 0 0 0 0 0 0 0 0 0 0 0 0 0 0 0 -3.315914e-03 1.134740e-02 -1.802730e-03 -5.587715e-03 1.122997e-02 -1.764118e-02 1.807562e-03 -2.456302e-03 -1.477861e-02 -2.958372e-02 -4.021334e-02 -2.391315e-02 -4.693889e-02 -3.548981e-02 -1.676750e-02 -7.984594e-03 -5.296018e-04 0 0 0 0 0 0 0 0 0 0 0 0 0 0 0 0 0 0 0 0 0 0 0 0 0 0 0 0 0 0 0 0 0 0 0 0 0 0 0 0 0 0 0 0 0 0 0 0 0 0 0 0 0 0 0 
0 0 0 0 0 0 0 0 0 0 0 0 0 6.936336e-02 6.430675e-02 6.561737e-02 6.984282e-02 8.293759e-02 9.494264e-02 1.259407e-01 1.336339e-01 0 0 0 0 0 0 0 0 0 0 0 0 0 0 0 0 0 0 0 0 0 0 0 0 0 0 0 0 0 0 0 0 0 0 0 0 0 0 0 0 0 0 0 0 0 0 0 0 0 0 0 0 0 0 0 0 0 0 0 0 0 0 0 0 0 0 0 0 0 0 0 0 0 0 0 0 0 0 0 0 0 0 0 0 0 0 0 0 0 0 0 0 0 0 0 0 0 0 0 0 0 0 0 0 0 0 0 
0 0 0 0 0 0 0 0 0 0 0 0 0 8.250802e-01 -4.064950e-01 8.952548e-01 -8.389895e-01 9.536346e-01 -9.114886e-01 6.708910e-01 -5.679715e-01 0 0 0 0 0 0 0 0 0 0 0 0 0 0 0 0 0 0 0 0 0 0 0 0 0 0 0 0 0 0 0 0 0 0 0 0 0 0 0 0 0 0 0 0 0 0 0 0 0 0 0 0 0 0 0 0 0 0 0 0 0 0 0 0 0 0 0 0 0 0 0 0 0 0 0 0 0 0 0 0 0 0 0 0 0 0 0 0 0 0 0 0 0 0 0 0 0 0 0 0 0 0 0 0 0 0 0 
0 0 0 0 0 0 0 0 0 0 0 0 0 1.627899e+00 -4.220816e-01 1.504599e+00 -1.196434e+00 1.320517e+00 -1.531143e+00 7.224483e-01 -1.327038e+00 0 0 0 0 0 0 0 0 0 0 0 0 0 0 0 0 0 0 0 0 0 0 0 0 0 0 0 0 0 0 0 0 0 0 0 0 0 0 0 0 0 0 0 0 0 0 0 0 0 0 0 0 0 0 0 0 0 0 0 0 0 0 0 0 0 0 0 0 0 0 0 0 0 0 0 0 0 0 0 0 0 0 0 0 0 0 0 0 0 0 0 0 0 0 0 0 0 0 0 0 0 0 0 0 0 0 0 
0 0 0 0 0 5.297549e-02 1.376321e-01 1.018501e-01 1.712202e-01 1.300483e-01 2.044417e-01 1.621033e-01 2.420033e-01 3.079962e+00 -3.127494e+00 2.084328e+00 -4.909025e+00 2.940084e+00 -5.805259e+00 2.671210e+00 -4.835074e+00 -2.288406e+00 -2.241215e+00 -2.267349e+00 -2.267715e+00 -2.303664e+00 -2.294776e+00 -2.258737e+00 -2.171410e+00 -2.062678e+00 -1.971958e+00 -1.914572e+00 -1.924687e+00 -1.946957e+00 -1.983395e+00 -1.980768e+00 -1.991493e+00 -1.984403e+00 -1.990531e+00 -1.954761e+00 -1.899557e+00 -1.815585e+00 -1.756806e+00 -1.730259e+00 -1.739826e+00 -1.760377e+00 -1.772277e+00 -1.779987e+00 -1.774979e+00 -1.772879e+00 -1.746798e+00 -1.701517e+00 -1.617521e+00 -1.541421e+00 -1.491398e+00 -1.497182e+00 -1.524614e+00 -1.538247e+00 -1.505491e+00 -1.438510e+00 -1.383236e+00 -1.350727e+00 -1.345979e+00 -1.330798e+00 -1.309876e+00 -1.272637e+00 -1.252880e+00 -1.251393e+00 -1.269238e+00 -1.283260e+00 -1.284022e+00 -1.269040e+00 -1.235026e+00 -1.196067e+00 -1.151989e+00 -1.126847e+00 -1.109144e+00 -1.131417e+00 -1.163084e+00 -1.206008e+00 -1.186301e+00 -1.120729e+00 -9.958707e-01 -8.952336e-01 -8.269354e-01 -8.265464e-01 -8.387769e-01 -8.467262e-01 -8.213571e-01 -7.713090e-01 -7.220322e-01 -6.831573e-01 -6.930459e-01 -7.018670e-01 -7.318674e-01 -7.097423e-01 -7.034598e-01 -6.519550e-01 -6.441672e-01 -5.953021e-01 -5.901582e-01 -5.535203e-01 -5.741673e-01 -5.674887e-01 -5.714775e-01 -5.198243e-01 -4.638631e-01 -4.146790e-01 -3.896000e-01 -4.045901e-01 -3.924147e-01 -3.983596e-01 -3.290043e-01 -3.047439e-01 -2.123885e-01 -2.051542e-01 -1.326496e-01 -1.496420e-01 -9.232817e-02 -1.126476e-01 -8.302878e-02 -9.460331e-02 -9.949357e-02 5.020313e-02 0 0 0 0 
0 0 0 0 0 1.188888e+00 3.086728e+00 2.282271e+00 3.841272e+00 2.916009e+00 4.583609e+00 3.630273e+00 5.421312e+00 6.852039e+00 -9.151431e+00 -8.581966e+00 -2.394258e+01 -2.307801e+01 -3.896013e+01 -3.725991e+01 -5.369011e+01 -5.144898e+01 -5.038673e+01 -5.097501e+01 -5.098333e+01 -5.179266e+01 -5.159267e+01 -5.078152e+01 -4.881622e+01 -4.636896e+01 -4.432756e+01 -4.303615e+01 -4.326363e+01 -4.376469e+01 -4.458452e+01 -4.452532e+01 -4.476664e+01 -4.460708e+01 -4.474498e+01 -4.394013e+01 -4.269800e+01 -4.080879e+01 -3.948635e+01 -3.888917e+01 -3.910441e+01 -3.956672e+01 -3.983442e+01 -4.000786e+01 -3.989517e+01 -3.984791e+01 -3.926114e+01 -3.824253e+01 -3.635304e+01 -3.464134e+01 -3.351623e+01 -3.364631e+01 -3.426329e+01 -3.456991e+01 -3.383321e+01 -3.232679e+01 -3.108375e+01 -3.035269e+01 -3.024592e+01 -2.990456e+01 -2.943409e+01 -2.859677e+01 -2.815253e+01 -2.811911e+01 -2.852037e+01 -2.883566e+01 -2.885280e+01 -2.851593e+01 -2.775109e+01 -2.687514e+01 -2.588410e+01 -2.531884e+01 -2.492083e+01 -2.542158e+01 -2.613353e+01 -2.709867e+01 -2.665562e+01 -2.518144e+01 -2.237482e+01 -2.011262e+01 -1.857771e+01 -1.856905e+01 -1.884395e+01 -1.902268e+01 -1.845258e+01 -1.732767e+01 -1.622031e+01 -1.534657e+01 -1.556864e+01 -1.576680e+01 -1.644087e+01 -1.594358e+01 -1.580243e+01 -1.464515e+01 -1.447031e+01 -1.337264e+01 -1.325738e+01 -1.243469e+01 -1.289911e+01 -1.274947e+01 -1.283953e+01 -1.167952e+01 -1.042210e+01 -9.317351e+00 -8.753696e+00 -9.089989e+00 -8.815977e+00 -8.949007e+00 -7.390261e+00 -6.844962e+00 -4.770250e+00 -4.608020e+00 -2.980853e+00 -3.365834e+00 -2.088242e+00 -2.573312e+00 -2.005559e+00 -2.289742e+00 -2.292589e+00 1.126152e+00 0 0 0 0 
0 0 0 0 0 1.720923e+00 4.467541e+00 3.302722e+00 5.559941e+00 4.220291e+00 6.633658e+00 5.252893e+00 7.844903e+00 4.354324e+00 -9.226833e+00 -1.685122e+01 -2.866903e+01 -3.944135e+01 -4.966392e+01 -6.016776e+01 -7.260422e+01 -7.449616e+01 -7.295774e+01 -7.380972e+01 -7.382180e+01 -7.499395e+01 -7.470434e+01 -7.352958e+01 -7.068340e+01 -6.713918e+01 -6.418287e+01 -6.231264e+01 -6.264203e+01 -6.336765e+01 -6.455488e+01 -6.446914e+01 -6.481861e+01 -6.458753e+01 -6.478724e+01 -6.362167e+01 -6.182287e+01 -5.908703e+01 -5.717195e+01 -5.630717e+01 -5.661886e+01 -5.728834e+01 -5.767600e+01 -5.792716e+01 -5.776396e+01 -5.769551e+01 -5.684579e+01 -5.537073e+01 -5.263456e+01 -5.015588e+01 -4.852665e+01 -4.871501e+01 -4.960844e+01 -5.005244e+01 -4.898566e+01 -4.680429e+01 -4.500432e+01 -4.394573e+01 -4.379113e+01 -4.329683e+01 -4.261560e+01 -4.140317e+01 -4.075990e+01 -4.071152e+01 -4.129254e+01 -4.174908e+01 -4.177390e+01 -4.128611e+01 -4.017863e+01 -3.891028e+01 -3.747527e+01 -3.665679e+01 -3.608048e+01 -3.680555e+01 -3.783643e+01 -3.923394e+01 -3.859242e+01 -3.645788e+01 -3.239413e+01 -2.911864e+01 -2.689630e+01 -2.688379e+01 -2.728181e+01 -2.754061e+01 -2.671520e+01 -2.508644e+01 -2.348316e+01 -2.221808e+01 -2.253956e+01 -2.282644e+01 -2.380237e+01 -2.308236e+01 -2.287799e+01 -2.120247e+01 -2.094938e+01 -1.936023e+01 -1.919344e+01 -1.800247e+01 -1.867499e+01 -1.845844e+01 -1.858894e+01 -1.690961e+01 -1.508910e+01 -1.348973e+01 -1.267363e+01 -1.316039e+01 -1.276356e+01 -1.295602e+01 -1.069915e+01 -9.909611e+00 -6.905931e+00 -6.671132e+00 -4.315798e+00 -4.873982e+00 -3.026859e+00 -3.736383e+00 -2.939198e+00 -3.356768e+00 -3.333721e+00 1.629982e+00 0 0 0 0 
0 0 0 0 0 5.850110e-01 1.518446e+00 1.122301e+00 1.889889e+00 1.434331e+00 2.254491e+00 1.784723e+00 2.665594e+00 1.478734e+00 -3.138071e+00 -5.730306e+00 -9.748679e+00 -1.341214e+01 -1.688882e+01 -2.046170e+01 -2.469208e+01 -2.533558e+01 -2.481222e+01 -2.510206e+01 -2.510618e+01 -2.550495e+01 -2.540644e+01 -2.500680e+01 -2.403860e+01 -2.283290e+01 -2.182726e+01 -2.119106e+01 -2.130309e+01 -2.154991e+01 -2.195376e+01 -2.192458e+01 -2.204346e+01 -2.196485e+01 -2.203279e+01 -2.163630e+01 -2.102442e+01 -2.009382e+01 -1.944240e+01 -1.914825e+01 -1.925428e+01 -1.948200e+01 -1.961386e+01 -1.969929e+01 -1.964377e+01 -1.962048e+01 -1.933145e+01 -1.882972e+01 -1.789904e+01 -1.705596e+01 -1.650182e+01 -1.656588e+01 -1.686976e+01 -1.702078e+01 -1.665794e+01 -1.591601e+01 -1.530381e+01 -1.494377e+01 -1.489119e+01 -1.472307e+01 -1.449138e+01 -1.407903e+01 -1.386026e+01 -1.384380e+01 -1.404141e+01 -1.419668e+01 -1.420512e+01 -1.403922e+01 -1.366257e+01 -1.323120e+01 -1.274316e+01 -1.246480e+01 -1.226880e+01 -1.251539e+01 -1.286598e+01 -1.334128e+01 -1.312310e+01 -1.239717e+01 -1.101518e+01 -9.901254e+00 -9.145529e+00 -9.141284e+00 -9.276639e+00 -9.364654e+00 -9.083972e+00 -8.530079e+00 -7.984880e+00 -7.554665e+00 -7.663970e+00 -7.761515e+00 -8.093369e+00 -7.848516e+00 -7.779024e+00 -7.209275e+00 -7.123231e+00 -6.582891e+00 -6.526213e+00 -6.121297e+00 -6.350046e+00 -6.276460e+00 -6.320891e+00 -5.749921e+00 -5.130868e+00 -4.587062e+00 -4.309533e+00 -4.474987e+00 -4.339993e+00 -4.405372e+00 -3.637893e+00 -3.369393e+00 -2.348069e+00 -2.268267e+00 -1.467594e+00 -1.657790e+00 -1.030945e+00 -1.275719e+00 -1.016667e+00 -1.161629e+00 -1.140627e+00 5.540327e-01 0 0 0 0 
0 0 0 0 0 0 0 0 0 0 0 0 0 0 0 0 0 0 0 0 0 0 0 0 0 0 0 0 0 0 0 0 0 0 0 0 0 0 0 0 0 0 0 0 0 0 0 0 0 0 0 0 0 0 0 0 0 0 0 0 0 0 0 0 0 0 0 0 0 0 0 0 0 0 0 0 0 0 0 0 0 0 0 0 0 0 0 0 0 0 0 0 0 0 0 0 0 0 0 0 0 0 0 0 0 0 0 0 0 0 0 0 0 0 0 0 0 0 0 0 0 0 0 0 0 0 0 0 
