# vtk DataFile Version 2.0
Comment goes here
ASCII

DATASET STRUCTURED_POINTS
FIELD FieldData 1
TIME 1 1 double
0.53000000
DIMENSIONS    128   16   1

ORIGIN    0.000   0.000   0.000
SPACING   0.0078125 0.015625   1.000

POINT_DATA   2048
SCALARS Omega double
LOOKUP_TABLE default

5.301588e-06 4.060280e-06 4.633776e-06 5.186546e-06 1.024614e-05 2.120999e-05 -3.056679e-05 -1.732474e-05 -1.417396e-05 -1.089660e-05 -1.554576e-05 -2.887816e-05 -4.688633e-05 6.017340e-06 -2.328932e-05 1.838499e-06 1.328650e-05 -6.235916e-05 1.325134e-05 -7.723855e-05 8.925590e-05 1.528663e-05 -1.937515e-05 -2.513902e-05 2.701083e-05 1.377567e-06 3.319485e-05 7.341800e-06 3.678192e-05 1.493206e-05 4.058293e-05 2.815003e-05 5.139029e-05 5.723026e-05 7.854747e-05 1.143558e-04 1.375040e-04 2.219895e-04 2.616449e-04 4.271899e-04 5.184562e-04 8.089877e-04 9.951505e-04 1.424105e-03 1.676922e-03 2.103365e-03 2.156827e-03 2.117907e-03 1.377422e-03 2.092544e-04 -1.727737e-03 -4.043551e-03 -7.484362e-03 -1.414794e-02 -1.926788e-02 1.352044e-02 7.449373e-02 5.778506e-02 2.017716e-02 5.890901e-02 8.093300e-02 4.762035e-02 -1.401756e-02 1.320229e-02 1.130322e-01 5.609502e-02 -9.844002e-03 7.968596e-02 1.151147e-01 9.145157e-02 7.562759e-02 4.370455e-02 5.128853e-02 5.096418e-02 2.248505e-02 1.363984e-02 1.291330e-02 1.179756e-02 8.773045e-03 5.912839e-03 3.234190e-03 1.611197e-03 4.006158e-04 -1.147384e-05 -3.198381e-04 -2.093174e-04 -2.291892e-04 -4.058565e-05 -3.832412e-05 8.467379e-05 6.596971e-05 1.183978e-04 9.748265e-05 1.050021e-04 9.393983e-05 7.801162e-05 7.726245e-05 5.277967e-05 5.872598e-05 3.181896e-05 4.090909e-05 1.384486e-05 2.672113e-05 1.749143e-07 1.866138e-05 -8.246354e-06 1.622983e-05 -1.116302e-05 1.721699e-05 -1.132759e-05 1.747111e-05 -1.118584e-05 1.829061e-05 -7.169681e-06 2.235840e-05 1.692184e-06 2.819772e-05 1.182757e-05 3.310249e-05 1.723561e-05 3.345824e-05 4.951995e-06 3.734282e-05 1.578457e-05 9.987444e-06 1.705344e-05 1.498146e-05 1.011213e-05 
-6.110905e-03 -2.679796e-03 -3.125185e-04 -4.068917e-02 -1.269535e-01 6.963204e-01 1.141589e+00 4.258924e-01 5.252216e-01 4.346900e-01 5.123328e-01 2.788995e-01 -6.092398e-01 -2.255010e+00 -3.046634e+00 -2.762143e+00 -2.772613e+00 -2.854583e+00 -2.655459e+00 -2.940643e+00 -2.372586e+00 -4.004481e-01 3.145561e-01 5.088196e-01 4.691676e-01 5.029300e-01 4.706653e-01 5.044393e-01 4.778573e-01 5.035928e-01 4.825745e-01 5.010517e-01 4.861838e-01 4.981832e-01 4.891503e-01 4.955074e-01 4.915951e-01 4.932185e-01 4.935303e-01 4.913022e-01 4.949998e-01 4.896781e-01 4.959811e-01 4.882280e-01 4.962588e-01 4.866102e-01 4.953843e-01 4.839858e-01 4.926217e-01 4.791416e-01 4.871832e-01 4.706416e-01 4.712810e-01 4.423040e-01 5.202667e-01 1.016769e+00 7.837963e-01 -4.385616e-01 -5.479022e-02 9.531051e-01 1.336881e+00 3.778886e-01 -1.796592e+00 -1.540651e+00 8.274313e-01 -4.150637e-01 -2.547424e+00 2.262934e-01 1.106096e+00 9.407257e-01 1.661259e+00 -4.297002e-01 -6.730234e-01 4.965743e-01 5.549313e-01 5.004712e-01 4.797436e-01 4.898470e-01 4.829671e-01 4.890555e-01 4.816850e-01 4.860123e-01 4.811472e-01 4.843495e-01 4.819694e-01 4.838181e-01 4.833199e-01 4.836791e-01 4.847041e-01 4.833363e-01 4.860909e-01 4.826559e-01 4.872956e-01 4.819215e-01 4.879948e-01 4.814862e-01 4.878961e-01 4.817318e-01 4.867797e-01 4.828626e-01 4.846417e-01 4.849869e-01 4.815138e-01 4.881380e-01 4.775951e-01 4.922471e-01 4.731346e-01 4.971358e-01 4.685366e-01 5.025554e-01 4.644569e-01 5.081234e-01 4.617319e-01 5.135186e-01 4.614855e-01 5.192776e-01 4.652687e-01 5.282567e-01 4.743187e-01 5.511337e-01 4.842997e-01 8.464429e-01 1.097078e+00 1.195837e-01 -3.154238e-02 -1.241634e-02 -1.062794e-02 -8.647895e-03 
-3.859000e-03 1.776682e-02 3.399633e-02 -2.685345e-01 -1.637501e+00 6.233377e-01 2.699509e+00 4.219599e-01 9.631036e-01 6.113680e-01 8.771254e-01 4.266017e-01 -2.132322e-01 4.838823e-01 1.281796e+00 1.208819e+00 1.050047e+00 1.202157e+00 1.060007e+00 1.318164e+00 3.675938e-01 1.135775e-01 4.428881e-01 7.890297e-01 7.126180e-01 8.018915e-01 6.982908e-01 7.934258e-01 7.019557e-01 7.922712e-01 7.051838e-01 7.839967e-01 7.085704e-01 7.774434e-01 7.164100e-01 7.697886e-01 7.224345e-01 7.573224e-01 7.231343e-01 7.398555e-01 7.241404e-01 7.315777e-01 7.375888e-01 7.346904e-01 7.526397e-01 7.356435e-01 7.564771e-01 7.220283e-01 7.396817e-01 6.962054e-01 7.260139e-01 6.905210e-01 7.304797e-01 6.995343e-01 8.641955e-01 1.315828e+00 3.018500e-01 -1.379050e+00 1.700556e-02 6.776552e-01 2.388315e-01 7.370900e-01 2.551021e-01 -1.221385e-01 1.277171e+00 7.877194e-01 -6.441687e-01 1.276095e+00 4.705040e-01 -1.265457e-01 1.775689e+00 -5.413028e-02 -5.306293e-01 7.318601e-01 7.778827e-01 7.601574e-01 6.925890e-01 7.361232e-01 6.808269e-01 7.224668e-01 6.732620e-01 7.130426e-01 6.781791e-01 7.139203e-01 6.936863e-01 7.148751e-01 7.038680e-01 7.043653e-01 7.040903e-01 6.819954e-01 6.981458e-01 6.613984e-01 7.080965e-01 6.643223e-01 7.319144e-01 6.700966e-01 7.404791e-01 6.667231e-01 7.334506e-01 6.613657e-01 7.151722e-01 6.626475e-01 6.982291e-01 6.816841e-01 6.841915e-01 7.096446e-01 6.643960e-01 7.377686e-01 6.355870e-01 7.620124e-01 6.069101e-01 7.912264e-01 5.887478e-01 8.147968e-01 5.711935e-01 8.255031e-01 5.663057e-01 8.382596e-01 5.752367e-01 8.752824e-01 5.599775e-01 1.608202e+00 1.837108e+00 -1.391642e+00 -5.687462e-01 9.066354e-02 3.548056e-02 -3.547429e-03 
5.319744e-03 4.785921e-02 9.779991e-02 -5.418866e-01 -4.311666e+00 -3.830739e+00 -1.211643e-01 -1.702331e+00 -1.040751e+00 -1.366628e+00 -1.013394e+00 -8.089148e-01 -7.307536e-02 -8.426689e-02 -4.705837e-01 -1.934472e-01 -2.997693e-01 -1.518375e-01 -3.431017e-01 -3.567560e-01 -9.857752e-02 -2.959053e-01 -8.261278e-01 -1.095538e+00 -1.215920e+00 -1.260819e+00 -1.344564e+00 -1.315360e+00 -1.395085e+00 -1.321687e+00 -1.425660e+00 -1.333442e+00 -1.444716e+00 -1.335437e+00 -1.444391e+00 -1.340594e+00 -1.444698e+00 -1.361505e+00 -1.456344e+00 -1.398640e+00 -1.463058e+00 -1.409364e+00 -1.428588e+00 -1.386040e+00 -1.383243e+00 -1.366791e+00 -1.363107e+00 -1.384989e+00 -1.394536e+00 -1.429167e+00 -1.404037e+00 -1.395917e+00 -1.318113e+00 -1.292633e+00 -1.266749e+00 -1.555226e+00 -1.075696e+00 -2.990532e-02 -5.588570e-01 -1.124587e+00 -1.129409e+00 -1.024408e+00 6.700134e-02 -1.956743e-02 -1.160894e+00 -6.585176e-01 6.772142e-01 -1.189320e+00 -1.135331e+00 -9.892008e-01 -2.029883e+00 -5.234385e-01 -4.145031e-01 -1.206265e+00 -1.380828e+00 -1.300765e+00 -1.407489e+00 -1.352185e+00 -1.473093e+00 -1.404262e+00 -1.508496e+00 -1.429144e+00 -1.504158e+00 -1.422745e+00 -1.468980e+00 -1.417788e+00 -1.449029e+00 -1.447769e+00 -1.457617e+00 -1.511532e+00 -1.484374e+00 -1.568203e+00 -1.462996e+00 -1.555583e+00 -1.396915e+00 -1.536876e+00 -1.369706e+00 -1.550070e+00 -1.380880e+00 -1.575400e+00 -1.417932e+00 -1.588145e+00 -1.444423e+00 -1.555561e+00 -1.457417e+00 -1.502747e+00 -1.484391e+00 -1.453858e+00 -1.537855e+00 -1.418559e+00 -1.595295e+00 -1.367481e+00 -1.631390e+00 -1.328456e+00 -1.681573e+00 -1.324443e+00 -1.718958e+00 -1.329465e+00 -1.750425e+00 -1.358062e+00 -1.854743e+00 -1.127499e+00 -2.437862e+00 -5.248255e+00 -1.519722e+00 3.274084e-01 1.532850e-01 2.127873e-02 
1.115834e-03 4.180207e-02 1.483123e-01 -5.888475e-02 -2.783571e+00 -5.594836e+00 -3.913832e+00 -2.651855e+00 -2.603894e+00 -2.473141e+00 -2.471788e+00 -2.353337e+00 -2.554691e+00 -2.403036e+00 -2.392024e+00 -2.417848e+00 -2.426541e+00 -2.451978e+00 -2.395005e+00 -2.433943e+00 -2.460559e+00 -2.464051e+00 -2.238290e+00 -2.431912e+00 -2.403830e+00 -2.582954e+00 -2.552736e+00 -2.644801e+00 -2.621103e+00 -2.654219e+00 -2.663622e+00 -2.659247e+00 -2.691717e+00 -2.654654e+00 -2.702523e+00 -2.651784e+00 -2.711004e+00 -2.660356e+00 -2.725110e+00 -2.680723e+00 -2.733918e+00 -2.682965e+00 -2.712287e+00 -2.661287e+00 -2.680622e+00 -2.641365e+00 -2.663489e+00 -2.645338e+00 -2.679228e+00 -2.663948e+00 -2.676009e+00 -2.624676e+00 -2.602092e+00 -2.532548e+00 -2.462254e+00 -2.220042e+00 -1.939092e+00 -1.890769e+00 -2.324261e+00 -2.108325e+00 -1.654785e+00 -2.311941e+00 -3.111130e+00 -2.897377e+00 -2.046376e+00 -2.824419e+00 -3.200076e+00 -2.625246e+00 -2.272668e+00 -2.050535e+00 -2.385041e+00 -2.791121e+00 -2.935761e+00 -2.597450e+00 -2.611285e+00 -2.614645e+00 -2.664231e+00 -2.645869e+00 -2.703828e+00 -2.674242e+00 -2.728534e+00 -2.686169e+00 -2.727962e+00 -2.677642e+00 -2.706793e+00 -2.671648e+00 -2.696177e+00 -2.691107e+00 -2.705069e+00 -2.734140e+00 -2.726583e+00 -2.772010e+00 -2.714122e+00 -2.762363e+00 -2.668870e+00 -2.749829e+00 -2.647686e+00 -2.761708e+00 -2.649655e+00 -2.784744e+00 -2.666444e+00 -2.801964e+00 -2.673348e+00 -2.790535e+00 -2.669275e+00 -2.767202e+00 -2.674249e+00 -2.747862e+00 -2.698377e+00 -2.738165e+00 -2.728022e+00 -2.716264e+00 -2.747821e+00 -2.699746e+00 -2.784330e+00 -2.704023e+00 -2.819862e+00 -2.713265e+00 -2.852507e+00 -2.748081e+00 -2.858914e+00 -3.256237e+00 -5.382766e+00 -4.608377e+00 -1.172675e+00 2.086041e-01 1.015167e-01 5.599606e-03 
-1.116062e-02 8.952709e-05 4.927488e-02 1.606153e-01 2.668926e-03 -1.755157e+00 -2.298659e+00 -1.079993e+00 -1.218632e+00 -9.799681e-01 -1.063569e+00 -1.176624e+00 -1.979473e+00 -1.685371e+00 -1.347190e+00 -1.346808e+00 -1.351515e+00 -1.346880e+00 -1.350822e+00 -1.348481e+00 -1.661972e+00 -1.768621e+00 -1.200960e+00 -1.073732e+00 -9.926877e-01 -1.078057e+00 -1.029196e+00 -1.091241e+00 -1.050250e+00 -1.094948e+00 -1.065536e+00 -1.094828e+00 -1.076385e+00 -1.092477e+00 -1.083710e+00 -1.089693e+00 -1.088959e+00 -1.087613e+00 -1.092963e+00 -1.086324e+00 -1.095535e+00 -1.084287e+00 -1.095652e+00 -1.081005e+00 -1.094087e+00 -1.077386e+00 -1.092066e+00 -1.074324e+00 -1.091099e+00 -1.071375e+00 -1.089421e+00 -1.067501e+00 -1.092495e+00 -1.067839e+00 -9.420495e-01 -3.164950e-01 -2.072992e+00 -4.262603e+00 -1.967699e+00 -1.282417e+00 -2.222457e+00 -1.298964e+00 -1.388614e+00 -2.134159e+00 -9.481220e-01 -9.266142e-01 -2.614998e+00 -4.786034e-01 -1.595599e+00 -2.411423e+00 2.518044e-02 -1.883926e+00 -2.587757e+00 -1.136412e+00 -9.888493e-01 -1.082291e+00 -1.083997e+00 -1.090106e+00 -1.076911e+00 -1.083749e+00 -1.077484e+00 -1.081078e+00 -1.078888e+00 -1.078080e+00 -1.079406e+00 -1.075816e+00 -1.080181e+00 -1.075448e+00 -1.081690e+00 -1.076486e+00 -1.083811e+00 -1.077398e+00 -1.084007e+00 -1.076616e+00 -1.081685e+00 -1.076596e+00 -1.078885e+00 -1.079043e+00 -1.075281e+00 -1.083523e+00 -1.070707e+00 -1.089254e+00 -1.064348e+00 -1.095027e+00 -1.056704e+00 -1.101225e+00 -1.049301e+00 -1.108105e+00 -1.043407e+00 -1.115309e+00 -1.039408e+00 -1.120936e+00 -1.037586e+00 -1.124533e+00 -1.039444e+00 -1.125291e+00 -1.042256e+00 -1.120267e+00 -1.036222e+00 -1.109870e+00 -9.642418e-01 -1.529705e+00 -2.494685e+00 -8.442825e-01 1.857984e-02 7.687930e-02 4.326691e-03 -1.387383e-02 
-1.235628e-02 -8.014770e-03 3.343879e-04 2.792735e-02 6.975019e-02 -3.086358e-02 -1.844249e-01 -1.091105e-01 -7.356673e-02 -1.244433e-02 4.004566e-02 -2.428123e-01 -1.924763e+00 -1.720661e+00 -8.945378e-01 -8.928271e-01 -8.930143e-01 -8.928240e-01 -8.929863e-01 -8.936635e-01 -1.545974e+00 -1.729208e+00 -5.243845e-01 -1.310946e-01 -7.942824e-02 -8.013541e-02 -7.042269e-02 -6.909301e-02 -6.443408e-02 -6.589038e-02 -6.456252e-02 -6.584728e-02 -6.586932e-02 -6.624107e-02 -6.701694e-02 -6.650985e-02 -6.778012e-02 -6.662880e-02 -6.820357e-02 -6.665943e-02 -6.837241e-02 -6.665441e-02 -6.838259e-02 -6.670082e-02 -6.841477e-02 -6.705118e-02 -6.892163e-02 -6.828494e-02 -7.068203e-02 -7.104238e-02 -7.406911e-02 -7.534667e-02 -7.920665e-02 -7.132329e-02 1.296263e-03 1.771278e-01 -7.827323e-01 -1.658234e+00 -3.196301e-01 2.693536e-02 -5.922683e-01 -3.852759e-01 -2.660723e-01 -6.221410e-01 -5.572563e-01 -8.306209e-02 -6.443407e-01 -1.479898e-01 7.706231e-02 -2.347865e-01 3.054049e-01 -1.123449e-02 -1.802298e-01 2.223576e-02 -2.367961e-02 -6.389478e-02 -6.517544e-02 -6.356427e-02 -6.208865e-02 -6.374624e-02 -6.431379e-02 -6.579192e-02 -6.638393e-02 -6.691824e-02 -6.738463e-02 -6.713359e-02 -6.768690e-02 -6.692905e-02 -6.773822e-02 -6.662241e-02 -6.775756e-02 -6.634464e-02 -6.776781e-02 -6.615409e-02 -6.772076e-02 -6.608120e-02 -6.756374e-02 -6.615102e-02 -6.726226e-02 -6.637345e-02 -6.680915e-02 -6.674807e-02 -6.620536e-02 -6.726482e-02 -6.547109e-02 -6.789940e-02 -6.463534e-02 -6.860682e-02 -6.373295e-02 -6.928940e-02 -6.275457e-02 -6.969892e-02 -6.149067e-02 -6.922402e-02 -5.918316e-02 -6.651296e-02 -5.400049e-02 -5.930588e-02 -4.288268e-02 -4.558786e-02 -2.211519e-02 -8.538940e-02 -1.539424e-01 -7.345986e-03 1.727466e-02 -7.049351e-03 -1.837547e-02 -1.599192e-02 
-8.441580e-03 -7.252315e-03 -6.023045e-03 -3.588858e-03 3.245950e-03 6.540345e-03 -3.794771e-03 -3.850516e-04 1.396944e-02 4.212936e-02 8.000382e-02 -6.165860e-02 -9.750220e-01 -8.783621e-01 -4.471792e-01 -4.462581e-01 -4.462564e-01 -4.462563e-01 -4.462568e-01 -4.466160e-01 -7.616289e-01 -8.520487e-01 -2.487052e-01 -4.850766e-02 -2.458717e-02 -2.037876e-02 -1.392409e-02 -9.216993e-03 -6.509331e-03 -5.098454e-03 -4.530865e-03 -4.178244e-03 -4.230747e-03 -4.133471e-03 -4.328152e-03 -4.245410e-03 -4.437194e-03 -4.316957e-03 -4.470108e-03 -4.318749e-03 -4.429648e-03 -4.274865e-03 -4.367417e-03 -4.278609e-03 -4.451441e-03 -4.606727e-03 -5.110605e-03 -5.849698e-03 -7.056223e-03 -8.666230e-03 -1.058836e-02 -1.267635e-02 -1.484702e-02 -1.629758e-02 -7.818942e-03 3.512005e-02 7.119325e-02 4.030091e-02 6.695992e-02 1.280392e-01 9.903298e-02 7.214222e-02 3.206495e-02 1.395685e-02 6.336533e-02 5.611183e-02 1.828690e-03 3.691348e-02 9.856298e-02 1.084095e-01 1.078181e-01 8.035164e-02 5.080829e-02 2.735732e-02 8.304746e-03 3.572310e-03 3.768285e-03 3.449332e-03 2.340193e-03 8.648542e-04 -5.802922e-04 -1.857168e-03 -2.865611e-03 -3.583719e-03 -4.087551e-03 -4.364690e-03 -4.573600e-03 -4.623602e-03 -4.721998e-03 -4.677315e-03 -4.755956e-03 -4.671382e-03 -4.759569e-03 -4.653218e-03 -4.754221e-03 -4.634486e-03 -4.743255e-03 -4.618655e-03 -4.726721e-03 -4.607527e-03 -4.703376e-03 -4.601472e-03 -4.670508e-03 -4.599006e-03 -4.624217e-03 -4.596964e-03 -4.559877e-03 -4.588150e-03 -4.465218e-03 -4.543999e-03 -4.289101e-03 -4.363246e-03 -3.865531e-03 -3.768456e-03 -2.788347e-03 -2.193751e-03 -3.837077e-04 9.864260e-04 3.620749e-03 5.257456e-03 7.814862e-03 4.958489e-03 2.359915e-03 2.007075e-03 -4.640109e-03 -8.983722e-03 -1.007118e-02 -9.332080e-03 
-7.118394e-06 -3.339465e-06 -7.063808e-07 1.635478e-06 3.490241e-06 4.472258e-06 5.944952e-06 5.499783e-06 5.039673e-06 3.106817e-06 5.891338e-06 9.634463e-06 1.657608e-04 2.344050e-04 4.937785e-07 3.545225e-09 2.402603e-09 3.010744e-09 1.184862e-09 -1.677202e-06 -1.554419e-03 6.843437e-04 1.093966e-04 2.299564e-05 5.173897e-05 5.646620e-05 4.100633e-05 3.656120e-05 3.002349e-05 3.171441e-05 3.247807e-05 3.898791e-05 4.671520e-05 5.900306e-05 7.497700e-05 9.500660e-05 1.212536e-04 1.513556e-04 1.899422e-04 2.315578e-04 2.809801e-04 3.260221e-04 3.640476e-04 3.657283e-04 3.049087e-04 1.174231e-04 -2.646127e-04 -9.437136e-04 -2.007050e-03 -3.517905e-03 -5.447821e-03 -7.641022e-03 -9.902274e-03 -1.200735e-02 -1.328499e-02 -1.061640e-02 -2.373898e-03 2.292684e-03 3.321104e-03 8.622328e-03 1.054860e-02 1.438477e-02 1.890217e-02 2.029327e-02 2.382166e-02 2.457041e-02 2.537828e-02 2.487731e-02 2.327986e-02 2.212335e-02 2.045674e-02 1.984171e-02 1.738715e-02 1.361089e-02 1.119906e-02 1.004719e-02 8.997225e-03 7.701848e-03 6.265080e-03 4.839943e-03 3.544068e-03 2.462460e-03 1.625302e-03 1.021089e-03 6.121704e-04 3.485259e-04 1.887078e-04 9.385174e-05 4.148509e-05 1.191028e-05 -3.225340e-06 -1.132584e-05 -1.489357e-05 -1.575870e-05 -1.532711e-05 -1.342935e-05 -1.176818e-05 -9.323480e-06 -8.060105e-06 -6.368763e-06 -6.202140e-06 -5.493063e-06 -5.968146e-06 -5.427707e-06 -5.539822e-06 -4.477164e-06 -4.021284e-06 -2.807003e-06 -2.335280e-06 -1.468062e-06 -1.048590e-06 -3.094289e-07 5.106484e-07 1.431240e-06 2.676524e-06 3.235631e-06 3.990559e-06 2.966569e-06 2.289909e-06 -6.231491e-07 -2.317343e-06 -6.075542e-06 -7.104740e-06 -9.084579e-06 -1.199300e-05 -1.177967e-05 -1.233052e-05 -9.425101e-06 
8.423065e-03 7.240521e-03 6.016359e-03 3.587126e-03 -3.244480e-03 -6.539502e-03 3.807473e-03 3.961101e-04 -1.395927e-02 -4.212578e-02 -7.999761e-02 6.167180e-02 9.750187e-01 8.783864e-01 4.471792e-01 4.462581e-01 4.462564e-01 4.462563e-01 4.462568e-01 4.466142e-01 7.599828e-01 8.544917e-01 2.487700e-01 4.847333e-02 2.465784e-02 2.047455e-02 1.398088e-02 9.270184e-03 6.537617e-03 5.135711e-03 4.555508e-03 4.221441e-03 4.274227e-03 4.206809e-03 4.419322e-03 4.380779e-03 4.614584e-03 4.556507e-03 4.784468e-03 4.717224e-03 4.940486e-03 4.880494e-03 5.089186e-03 5.020914e-03 5.150440e-03 4.971236e-03 4.838767e-03 4.297661e-03 3.572277e-03 2.315875e-03 6.950597e-04 -1.388456e-03 -3.701747e-03 -6.034065e-03 -8.145974e-03 -9.480903e-03 -9.648504e-03 -8.837134e-03 -7.625701e-03 -5.542403e-03 -3.223129e-03 -2.720592e-04 2.958708e-03 6.087353e-03 8.992319e-03 1.146729e-02 1.389638e-02 1.563823e-02 1.653148e-02 1.728699e-02 1.741900e-02 1.747172e-02 1.709129e-02 1.624397e-02 1.515245e-02 1.392832e-02 1.249138e-02 1.100668e-02 9.533198e-03 8.217499e-03 7.112955e-03 6.244967e-03 5.636104e-03 5.191396e-03 4.953350e-03 4.757074e-03 4.716142e-03 4.618857e-03 4.663515e-03 4.587126e-03 4.667650e-03 4.583287e-03 4.682311e-03 4.584359e-03 4.695168e-03 4.586056e-03 4.701763e-03 4.586975e-03 4.698369e-03 4.586592e-03 4.682214e-03 4.585426e-03 4.652142e-03 4.585587e-03 4.608685e-03 4.587919e-03 4.549230e-03 4.584530e-03 4.459229e-03 4.544413e-03 4.286501e-03 4.366801e-03 3.866546e-03 3.775862e-03 2.794046e-03 2.204825e-03 3.923367e-04 -9.763660e-04 -3.615519e-03 -5.255527e-03 -7.818958e-03 -4.968497e-03 -2.371505e-03 -2.016603e-03 4.623181e-03 8.964098e-03 1.004644e-02 9.310615e-03 
1.232754e-02 7.988360e-03 -3.558757e-04 -2.794750e-02 -6.979187e-02 3.078459e-02 1.845158e-01 1.092330e-01 7.369753e-02 1.256281e-02 -3.994530e-02 2.428897e-01 1.924565e+00 1.720731e+00 8.945336e-01 8.928287e-01 8.930217e-01 8.928355e-01 8.929993e-01 8.936752e-01 1.542562e+00 1.729822e+00 5.244139e-01 1.310463e-01 7.929616e-02 8.013116e-02 7.028689e-02 6.908295e-02 6.432130e-02 6.589220e-02 6.448938e-02 6.584094e-02 6.583720e-02 6.619121e-02 6.703592e-02 6.639477e-02 6.787156e-02 6.644493e-02 6.840153e-02 6.644835e-02 6.873829e-02 6.651444e-02 6.898053e-02 6.669640e-02 6.914329e-02 6.690832e-02 6.905610e-02 6.681163e-02 6.826014e-02 6.577616e-02 6.612445e-02 6.324951e-02 6.249202e-02 5.958667e-02 5.845184e-02 5.658154e-02 5.647248e-02 5.537847e-02 5.541811e-02 5.678660e-02 5.793105e-02 5.936046e-02 5.995582e-02 6.179326e-02 6.481872e-02 6.655931e-02 6.693300e-02 7.094778e-02 7.261195e-02 7.441015e-02 7.571271e-02 7.554481e-02 7.537800e-02 7.542150e-02 7.381872e-02 7.310397e-02 7.123448e-02 7.026265e-02 6.869434e-02 6.783786e-02 6.701413e-02 6.640517e-02 6.636715e-02 6.583009e-02 6.638794e-02 6.568868e-02 6.666774e-02 6.567061e-02 6.697302e-02 6.565278e-02 6.721472e-02 6.563318e-02 6.736421e-02 6.564709e-02 6.740427e-02 6.573636e-02 6.732265e-02 6.593592e-02 6.710708e-02 6.626811e-02 6.674599e-02 6.673743e-02 6.622706e-02 6.733118e-02 6.555441e-02 6.802645e-02 6.475059e-02 6.876910e-02 6.384493e-02 6.945542e-02 6.283413e-02 6.984114e-02 6.151276e-02 6.931969e-02 5.913598e-02 6.655074e-02 5.388904e-02 5.929006e-02 4.272357e-02 4.553723e-02 2.193613e-02 8.541442e-02 1.538489e-01 7.340962e-03 -1.725424e-02 7.060488e-03 1.836173e-02 1.596824e-02 
1.112672e-02 -1.268475e-04 -4.931185e-02 -1.607065e-01 -2.952993e-03 1.754605e+00 2.299868e+00 1.082192e+00 1.221023e+00 9.826197e-01 1.065808e+00 1.178591e+00 1.978106e+00 1.683658e+00 1.347108e+00 1.346838e+00 1.351655e+00 1.347113e+00 1.351105e+00 1.348826e+00 1.660749e+00 1.768601e+00 1.198056e+00 1.072629e+00 9.905480e-01 1.076947e+00 1.027138e+00 1.090414e+00 1.049693e+00 1.095329e+00 1.066869e+00 1.096465e+00 1.080528e+00 1.095606e+00 1.090200e+00 1.092020e+00 1.095325e+00 1.086982e+00 1.098152e+00 1.083317e+00 1.101126e+00 1.082361e+00 1.104074e+00 1.082488e+00 1.105503e+00 1.083090e+00 1.106055e+00 1.084436e+00 1.105585e+00 1.085756e+00 1.104223e+00 1.087002e+00 1.101762e+00 1.086778e+00 1.097493e+00 1.085579e+00 1.093057e+00 1.070464e+00 1.076527e+00 1.072342e+00 1.071235e+00 1.058775e+00 1.039218e+00 1.033089e+00 1.044887e+00 1.042595e+00 1.022951e+00 1.054286e+00 1.060282e+00 1.062047e+00 1.076817e+00 1.056707e+00 1.060254e+00 1.067494e+00 1.068524e+00 1.074338e+00 1.074077e+00 1.077255e+00 1.077267e+00 1.077422e+00 1.079440e+00 1.076705e+00 1.081416e+00 1.076029e+00 1.083252e+00 1.075246e+00 1.084389e+00 1.074301e+00 1.084801e+00 1.073069e+00 1.083856e+00 1.071927e+00 1.082583e+00 1.072726e+00 1.081230e+00 1.074816e+00 1.078578e+00 1.078318e+00 1.075367e+00 1.083655e+00 1.071139e+00 1.089877e+00 1.065630e+00 1.096805e+00 1.059293e+00 1.104302e+00 1.052939e+00 1.112084e+00 1.046993e+00 1.118882e+00 1.042105e+00 1.124103e+00 1.039315e+00 1.126241e+00 1.038522e+00 1.124657e+00 1.039609e+00 1.118995e+00 1.033042e+00 1.108255e+00 9.609425e-01 1.530013e+00 2.493264e+00 8.436511e-01 -1.866254e-02 -7.684363e-02 -4.301470e-03 1.386217e-02 
-1.140723e-03 -4.183878e-02 -1.483986e-01 5.850770e-02 2.783529e+00 5.593771e+00 3.913779e+00 2.652178e+00 2.605482e+00 2.477838e+00 2.477696e+00 2.358141e+00 2.552211e+00 2.401826e+00 2.391936e+00 2.418293e+00 2.425137e+00 2.451658e+00 2.393611e+00 2.433745e+00 2.451917e+00 2.457250e+00 2.241422e+00 2.449535e+00 2.416264e+00 2.587263e+00 2.540981e+00 2.630993e+00 2.605293e+00 2.640165e+00 2.652546e+00 2.656819e+00 2.712816e+00 2.687374e+00 2.752636e+00 2.682362e+00 2.740705e+00 2.649468e+00 2.716484e+00 2.638710e+00 2.724560e+00 2.669736e+00 2.751385e+00 2.698913e+00 2.755661e+00 2.710395e+00 2.749698e+00 2.717314e+00 2.737099e+00 2.722508e+00 2.737588e+00 2.750760e+00 2.758716e+00 2.783332e+00 2.776603e+00 2.810759e+00 2.791883e+00 2.810415e+00 2.779403e+00 2.807220e+00 2.768721e+00 2.783672e+00 2.739399e+00 2.765515e+00 2.770265e+00 2.784330e+00 2.752262e+00 2.775299e+00 2.764059e+00 2.747076e+00 2.755678e+00 2.710503e+00 2.726282e+00 2.707854e+00 2.748916e+00 2.722126e+00 2.770396e+00 2.720618e+00 2.768182e+00 2.705600e+00 2.756393e+00 2.692549e+00 2.746842e+00 2.694666e+00 2.746468e+00 2.707405e+00 2.744026e+00 2.723472e+00 2.736697e+00 2.731862e+00 2.709016e+00 2.729121e+00 2.686194e+00 2.747466e+00 2.679936e+00 2.764640e+00 2.666281e+00 2.776458e+00 2.663170e+00 2.790666e+00 2.662235e+00 2.790527e+00 2.659938e+00 2.781408e+00 2.664222e+00 2.770420e+00 2.683906e+00 2.764328e+00 2.711928e+00 2.750166e+00 2.738936e+00 2.735020e+00 2.766071e+00 2.710799e+00 2.777986e+00 2.690835e+00 2.806516e+00 2.708149e+00 2.847486e+00 2.744032e+00 2.854157e+00 3.258999e+00 5.385497e+00 4.609108e+00 1.171885e+00 -2.091743e-01 -1.015559e-01 -5.605134e-03 
-5.341319e-03 -4.788888e-02 -9.791051e-02 5.414514e-01 4.312205e+00 3.830399e+00 1.179186e-01 1.696943e+00 1.036836e+00 1.366782e+00 1.016620e+00 8.113437e-01 7.351769e-02 8.484578e-02 4.713975e-01 1.945569e-01 2.977858e-01 1.502984e-01 3.387046e-01 3.504767e-01 8.668852e-02 2.926071e-01 8.388545e-01 1.126215e+00 1.240888e+00 1.270658e+00 1.331187e+00 1.295872e+00 1.371081e+00 1.298299e+00 1.403689e+00 1.324482e+00 1.465315e+00 1.377098e+00 1.503962e+00 1.380530e+00 1.472403e+00 1.343681e+00 1.426876e+00 1.337544e+00 1.430985e+00 1.389422e+00 1.464277e+00 1.435457e+00 1.466262e+00 1.452341e+00 1.454299e+00 1.459410e+00 1.433767e+00 1.462252e+00 1.434229e+00 1.498919e+00 1.467615e+00 1.544110e+00 1.499771e+00 1.584586e+00 1.532941e+00 1.624612e+00 1.555074e+00 1.613425e+00 1.556090e+00 1.617574e+00 1.597132e+00 1.653372e+00 1.627558e+00 1.659090e+00 1.655683e+00 1.609831e+00 1.578100e+00 1.552664e+00 1.529044e+00 1.516767e+00 1.530500e+00 1.483713e+00 1.544973e+00 1.487166e+00 1.564403e+00 1.476239e+00 1.553215e+00 1.452152e+00 1.530699e+00 1.434681e+00 1.512999e+00 1.441508e+00 1.510031e+00 1.465336e+00 1.505158e+00 1.494644e+00 1.493778e+00 1.512518e+00 1.453420e+00 1.512724e+00 1.420923e+00 1.540793e+00 1.414021e+00 1.563599e+00 1.398632e+00 1.574289e+00 1.401091e+00 1.583792e+00 1.409651e+00 1.568213e+00 1.419523e+00 1.536259e+00 1.442167e+00 1.499408e+00 1.489420e+00 1.468924e+00 1.549179e+00 1.427858e+00 1.605018e+00 1.388560e+00 1.655225e+00 1.341336e+00 1.673974e+00 1.305597e+00 1.705051e+00 1.324958e+00 1.751021e+00 1.356090e+00 1.856107e+00 1.131447e+00 2.446653e+00 5.250667e+00 1.518283e+00 -3.283599e-01 -1.533962e-01 -2.128417e-02 
3.846242e-03 -1.776924e-02 -3.401634e-02 2.684403e-01 1.637946e+00 -6.228191e-01 -2.702218e+00 -4.267384e-01 -9.675404e-01 -6.146434e-01 -8.787041e-01 -4.284354e-01 2.114892e-01 -4.855300e-01 -1.280426e+00 -1.209680e+00 -1.049038e+00 -1.201817e+00 -1.060008e+00 -1.319232e+00 -3.680683e-01 -1.110705e-01 -4.349074e-01 -7.762339e-01 -7.008002e-01 -7.967081e-01 -7.011696e-01 -7.998046e-01 -7.108826e-01 -8.018202e-01 -7.159044e-01 -7.899997e-01 -7.069476e-01 -7.665939e-01 -7.031531e-01 -7.590602e-01 -7.212415e-01 -7.653853e-01 -7.423684e-01 -7.621077e-01 -7.452419e-01 -7.405202e-01 -7.371684e-01 -7.226825e-01 -7.389692e-01 -7.166662e-01 -7.450186e-01 -7.159539e-01 -7.538164e-01 -7.184227e-01 -7.554490e-01 -7.106130e-01 -7.458390e-01 -7.003165e-01 -7.363014e-01 -6.914066e-01 -7.242423e-01 -6.611568e-01 -6.986055e-01 -6.698112e-01 -6.900071e-01 -6.471133e-01 -6.325855e-01 -6.038301e-01 -6.310014e-01 -6.121001e-01 -5.928605e-01 -6.482892e-01 -6.666993e-01 -6.734591e-01 -6.983418e-01 -6.733878e-01 -6.727863e-01 -6.978076e-01 -6.740654e-01 -7.031186e-01 -6.711030e-01 -7.102637e-01 -6.775037e-01 -7.188703e-01 -6.863638e-01 -7.229637e-01 -6.926277e-01 -7.174242e-01 -6.934336e-01 -7.054094e-01 -6.948918e-01 -6.913388e-01 -6.988254e-01 -6.813707e-01 -7.128458e-01 -6.781443e-01 -7.241060e-01 -6.667007e-01 -7.261063e-01 -6.588579e-01 -7.300356e-01 -6.574101e-01 -7.265627e-01 -6.588461e-01 -7.192989e-01 -6.712462e-01 -7.095894e-01 -6.913735e-01 -6.934751e-01 -7.148298e-01 -6.672720e-01 -7.370734e-01 -6.359982e-01 -7.629214e-01 -6.067055e-01 -7.870514e-01 -5.819233e-01 -8.119132e-01 -5.729770e-01 -8.317568e-01 -5.683261e-01 -8.383383e-01 -5.711001e-01 -8.740506e-01 -5.554172e-01 -1.607163e+00 -1.831426e+00 1.393314e+00 5.680452e-01 -9.109019e-02 -3.554494e-02 3.539623e-03 
6.113955e-03 2.687223e-03 3.265716e-04 4.071411e-02 1.270703e-01 -6.960167e-01 -1.142256e+00 -4.270559e-01 -5.264384e-01 -4.359831e-01 -5.133972e-01 -2.799991e-01 6.084814e-01 2.255408e+00 3.046383e+00 2.761352e+00 2.773492e+00 2.853819e+00 2.656343e+00 2.940412e+00 2.373806e+00 4.022831e-01 -3.130368e-01 -5.079334e-01 -4.678481e-01 -5.022153e-01 -4.699742e-01 -5.043276e-01 -4.781025e-01 -5.041854e-01 -4.837818e-01 -5.021602e-01 -4.882085e-01 -4.993982e-01 -4.917668e-01 -4.964711e-01 -4.946144e-01 -4.937235e-01 -4.967782e-01 -4.913467e-01 -4.982995e-01 -4.894995e-01 -4.992509e-01 -4.882608e-01 -4.997113e-01 -4.877573e-01 -5.000482e-01 -4.884885e-01 -5.011420e-01 -4.912963e-01 -5.040534e-01 -4.967092e-01 -5.090116e-01 -5.043198e-01 -5.163499e-01 -5.130556e-01 -5.180654e-01 -5.063934e-01 -5.149523e-01 -5.131366e-01 -5.129057e-01 -4.998108e-01 -4.830352e-01 -4.748925e-01 -4.795235e-01 -4.729816e-01 -4.601835e-01 -4.740411e-01 -4.786543e-01 -4.799855e-01 -4.876224e-01 -4.705827e-01 -4.689871e-01 -4.747144e-01 -4.751645e-01 -4.794370e-01 -4.780936e-01 -4.836836e-01 -4.829792e-01 -4.876935e-01 -4.865340e-01 -4.891449e-01 -4.878740e-01 -4.884609e-01 -4.879039e-01 -4.867794e-01 -4.876225e-01 -4.848828e-01 -4.875115e-01 -4.831161e-01 -4.876341e-01 -4.816836e-01 -4.878270e-01 -4.807578e-01 -4.878654e-01 -4.805521e-01 -4.875525e-01 -4.812487e-01 -4.866889e-01 -4.829482e-01 -4.850863e-01 -4.856711e-01 -4.825915e-01 -4.893467e-01 -4.791502e-01 -4.938269e-01 -4.748832e-01 -4.988684e-01 -4.701579e-01 -5.041482e-01 -4.656236e-01 -5.092944e-01 -4.621898e-01 -5.141052e-01 -4.611350e-01 -5.192145e-01 -4.641730e-01 -5.276760e-01 -4.727357e-01 -5.503626e-01 -4.826490e-01 -8.465841e-01 -1.095980e+00 -1.192719e-01 3.143189e-02 1.238718e-02 1.063789e-02 8.656470e-03 
