# vtk DataFile Version 2.0
Comment goes here
ASCII

DATASET STRUCTURED_POINTS
FIELD FieldData 1
TIME 1 1 double
0.08000000
DIMENSIONS    128   16   1

ORIGIN    0.000   0.000   0.000
SPACING   0.0078125 0.015625   1.000

POINT_DATA   2048
SCALARS P double
LOOKUP_TABLE default

-2.243038e-01 -2.269251e-01 -2.230751e-01 -2.291446e-01 -2.209541e-01 -2.317476e-01 -2.156557e-01 -2.323639e-01 -2.153645e-01 -2.275652e-01 -2.113095e-01 -2.176647e-01 -2.032030e-01 -2.052513e-01 -1.928092e-01 -1.938065e-01 -1.849738e-01 -1.829427e-01 -1.796286e-01 -1.725049e-01 -1.762096e-01 -1.704238e-01 -1.753001e-01 -1.633730e-01 -1.665903e-01 -1.457965e-01 -1.414961e-01 -1.191704e-01 -1.168221e-01 -9.391770e-02 -9.788756e-02 -8.255259e-02 -9.185317e-02 -8.480229e-02 -9.327285e-02 -8.275379e-02 -8.604551e-02 -6.926179e-02 -6.202748e-02 -4.080806e-02 -3.170389e-02 -1.281847e-02 -6.762586e-03 7.646722e-03 8.230930e-03 1.402687e-02 1.393966e-02 1.891927e-02 2.055839e-02 2.485484e-02 2.603867e-02 2.852538e-02 2.989640e-02 2.773055e-02 2.501050e-02 2.016242e-02 1.159216e-02 6.143870e-03 -5.454865e-03 -7.667789e-03 -1.908026e-02 -1.628403e-02 -2.567200e-02 -2.231016e-02 -3.136914e-02 -2.894213e-02 -4.202103e-02 -4.857217e-02 -5.945436e-02 -7.069615e-02 -8.313194e-02 -8.768934e-02 -9.864161e-02 -9.037228e-02 -9.321830e-02 -8.880360e-02 -9.794120e-02 -1.027968e-01 -1.123076e-01 -1.177360e-01 -1.256592e-01 -1.335025e-01 -1.452257e-01 -1.530322e-01 -1.660963e-01 -1.744702e-01 -1.889307e-01 -2.007161e-01 -2.172454e-01 -2.333070e-01 -2.564935e-01 -2.713637e-01 -2.954407e-01 -3.004512e-01 -3.185338e-01 -3.142354e-01 -3.256185e-01 -3.162407e-01 -3.242630e-01 -3.078791e-01 -3.098602e-01 -2.892924e-01 -2.827621e-01 -2.564502e-01 -2.414120e-01 -2.110420e-01 -1.945448e-01 -1.769566e-01 -1.657546e-01 -1.568056e-01 -1.509543e-01 -1.585720e-01 -1.590131e-01 -1.735425e-01 -1.666170e-01 -1.834808e-01 -1.789510e-01 -2.013611e-01 -1.960435e-01 -2.199816e-01 -2.213026e-01 -2.364592e-01 -2.301350e-01 -2.314588e-01 -2.284005e-01 -2.276019e-01 -2.259441e-01 -2.261777e-01 
-1.998988e-01 -1.987246e-01 -1.978658e-01 -2.005327e-01 -1.961166e-01 -2.051795e-01 -1.929993e-01 -2.104347e-01 -1.954610e-01 -2.022303e-01 -1.942268e-01 -1.948342e-01 -1.892578e-01 -1.802289e-01 -1.847721e-01 -1.759952e-01 -1.914414e-01 -1.811638e-01 -1.969712e-01 -1.695039e-01 -1.903335e-01 -1.763330e-01 -2.014530e-01 -1.846625e-01 -2.020542e-01 -1.705042e-01 -1.676406e-01 -1.518805e-01 -1.604183e-01 -1.380587e-01 -1.384727e-01 -1.084365e-01 -1.042102e-01 -9.515615e-02 -9.553091e-02 -8.866864e-02 -1.035173e-01 -9.434335e-02 -8.492016e-02 -6.401043e-02 -4.848024e-02 -2.786071e-02 -2.109961e-02 -3.127464e-03 8.848484e-04 4.067656e-03 6.804361e-03 7.301300e-03 7.930701e-03 1.032375e-02 7.707359e-03 6.602955e-03 9.126960e-03 -1.031318e-03 1.702763e-03 2.551196e-03 -3.085940e-04 -2.477669e-04 -7.865250e-03 -4.648327e-03 -1.017660e-02 -2.199870e-03 -5.492124e-03 4.278707e-03 -3.182989e-03 4.529371e-03 -3.167529e-03 -1.206749e-02 -2.155036e-02 -4.327723e-02 -5.818465e-02 -7.108549e-02 -8.552938e-02 -7.067999e-02 -7.068610e-02 -6.810051e-02 -8.497622e-02 -9.799067e-02 -1.109643e-01 -1.206567e-01 -1.269309e-01 -1.352472e-01 -1.459805e-01 -1.507265e-01 -1.635753e-01 -1.675833e-01 -1.801317e-01 -1.868801e-01 -1.937501e-01 -2.130046e-01 -2.434363e-01 -2.684536e-01 -2.975057e-01 -3.009013e-01 -3.243289e-01 -3.225729e-01 -3.374054e-01 -3.330983e-01 -3.456227e-01 -3.290793e-01 -3.270777e-01 -2.961770e-01 -2.725250e-01 -2.313795e-01 -2.041206e-01 -1.633961e-01 -1.465763e-01 -1.360710e-01 -1.336982e-01 -1.270256e-01 -1.263381e-01 -1.370047e-01 -1.425586e-01 -1.519860e-01 -1.366597e-01 -1.477697e-01 -1.479440e-01 -1.783162e-01 -1.803406e-01 -2.154718e-01 -2.283310e-01 -2.422374e-01 -2.257218e-01 -2.156362e-01 -2.115212e-01 -2.045613e-01 -2.038035e-01 -1.997051e-01 
-2.218963e-01 -2.212646e-01 -2.218137e-01 -2.249860e-01 -2.247549e-01 -2.336684e-01 -2.073175e-01 -2.507006e-01 -2.307011e-01 -2.432747e-01 -2.245101e-01 -2.260515e-01 -2.107863e-01 -2.006398e-01 -1.821845e-01 -1.831365e-01 -1.722747e-01 -1.796031e-01 -1.624960e-01 -1.166441e-01 -1.248545e-01 -1.462752e-01 -1.636586e-01 -1.547317e-01 -1.837624e-01 -1.399965e-01 -1.238008e-01 -1.435511e-01 -1.815130e-01 -1.592462e-01 -1.595347e-01 -9.733998e-02 -7.210030e-02 -6.485195e-02 -5.898178e-02 -6.064831e-02 -1.126328e-01 -1.163578e-01 -1.002553e-01 -6.761815e-02 -4.906166e-02 -2.674574e-02 -2.269794e-02 1.137940e-02 1.488933e-02 1.040409e-02 1.463134e-02 1.748834e-02 1.254361e-02 6.468741e-03 -6.386790e-03 -3.077038e-04 3.643128e-03 -2.319068e-02 -2.192747e-02 -1.237058e-02 -3.136298e-04 5.656271e-03 3.138002e-04 1.683025e-03 -1.424886e-02 9.280337e-03 6.684338e-03 1.160119e-02 8.038296e-03 4.501653e-02 9.830781e-03 -1.868516e-02 -6.028156e-03 -5.024892e-02 -5.174240e-02 -9.001113e-02 -1.599637e-01 -1.146676e-01 -7.418450e-02 -4.502838e-02 -7.213360e-02 -1.141215e-01 -1.468567e-01 -1.617722e-01 -1.497370e-01 -1.501337e-01 -1.620581e-01 -1.729476e-01 -1.933595e-01 -1.823259e-01 -1.819087e-01 -1.780961e-01 -1.734413e-01 -2.147578e-01 -2.604909e-01 -3.006444e-01 -3.378919e-01 -3.330841e-01 -3.688258e-01 -3.696706e-01 -3.839937e-01 -3.978483e-01 -4.262900e-01 -4.030345e-01 -3.909332e-01 -3.406031e-01 -2.923375e-01 -2.395910e-01 -1.887175e-01 -1.034950e-01 -8.547811e-02 -1.204420e-01 -1.396831e-01 -1.148283e-01 -1.042597e-01 -1.325458e-01 -1.692251e-01 -1.808451e-01 -1.263427e-01 -1.282884e-01 -1.611187e-01 -2.201556e-01 -1.997040e-01 -2.525999e-01 -3.076878e-01 -3.370090e-01 -2.848320e-01 -2.489854e-01 -2.413582e-01 -2.285571e-01 -2.266806e-01 -2.216559e-01 
-1.916692e-01 -1.852311e-01 -1.940860e-01 -1.857405e-01 -1.996350e-01 -1.855096e-01 -1.370584e-01 -2.059361e-01 -2.137520e-01 -2.323410e-01 -1.999320e-01 -1.741996e-01 -1.819334e-01 -1.609091e-01 -1.388310e-01 -1.186836e-01 -1.044687e-01 -9.325099e-02 -1.116430e-01 -3.789593e-02 -1.332012e-01 -9.755117e-02 -6.821891e-02 2.487143e-02 -1.296796e-03 4.140192e-02 3.202480e-02 -7.015957e-02 -1.673080e-01 -1.588024e-01 -1.546018e-01 -6.148589e-02 3.027841e-02 7.687491e-02 1.373274e-01 1.476454e-01 1.147361e-01 9.726553e-02 1.159975e-01 1.390006e-01 1.115313e-01 8.942425e-02 8.093248e-02 1.103535e-01 1.093891e-01 9.534588e-02 1.070166e-01 1.332119e-01 1.291187e-01 8.827142e-02 7.667773e-02 1.028985e-01 9.928990e-02 6.179434e-02 3.222024e-02 2.347890e-02 7.406761e-02 7.620723e-02 1.103812e-01 1.637610e-01 1.148337e-01 2.167643e-01 2.155420e-01 2.174491e-01 2.378657e-01 3.236024e-01 2.292126e-01 1.328938e-01 2.361805e-01 1.760008e-01 2.584520e-01 1.473008e-01 -1.124091e-01 -1.101876e-01 -2.886362e-02 5.863479e-02 4.308732e-02 -3.500599e-02 -1.120415e-01 -1.178005e-01 -6.209084e-02 -2.000050e-02 -2.537369e-02 -5.920685e-02 -9.104134e-02 -5.160839e-02 -1.626057e-02 -8.867574e-03 -4.105718e-02 -1.222980e-01 -1.617530e-01 -1.648266e-01 -1.931206e-01 -1.794054e-01 -2.303093e-01 -2.527257e-01 -2.653770e-01 -3.297451e-01 -3.789178e-01 -3.503204e-01 -3.201908e-01 -2.736910e-01 -2.518878e-01 -2.581098e-01 -2.228578e-01 -9.260174e-02 -8.697785e-02 -2.042423e-01 -2.252185e-01 -1.163428e-01 -2.403397e-02 -3.284717e-02 -9.910700e-02 -1.185039e-01 -2.633267e-02 -2.669430e-02 -1.456993e-01 -2.153021e-01 -1.119756e-01 -1.097429e-01 -2.229935e-01 -2.841785e-01 -2.337583e-01 -1.941908e-01 -1.978450e-01 -1.865877e-01 -1.920660e-01 -1.849382e-01 
-2.007943e-01 -1.993699e-01 -2.090341e-01 -2.023216e-01 -2.149742e-01 -1.986984e-01 -1.667133e-01 -2.097759e-01 -2.378539e-01 -2.606795e-01 -2.392765e-01 -2.179680e-01 -2.460994e-01 -2.453053e-01 -1.569364e-01 -1.418520e-01 3.407654e-02 6.451621e-02 8.776851e-02 1.741647e-01 2.043912e-01 2.619803e-01 2.913943e-01 4.021627e-01 3.833217e-01 3.858843e-01 3.254405e-01 2.351798e-01 1.466584e-01 1.415470e-01 1.386086e-01 1.910576e-01 2.740469e-01 3.463023e-01 4.202678e-01 4.547608e-01 4.894190e-01 4.873054e-01 4.850937e-01 4.784120e-01 4.113281e-01 3.605906e-01 3.359719e-01 3.313600e-01 3.179132e-01 3.126671e-01 3.147940e-01 3.471394e-01 3.420804e-01 3.017331e-01 2.969264e-01 3.209812e-01 3.008601e-01 2.903646e-01 2.416665e-01 2.155084e-01 2.507774e-01 2.464111e-01 2.895012e-01 3.684060e-01 3.143652e-01 4.196882e-01 4.113268e-01 4.255947e-01 4.432440e-01 4.923328e-01 4.219480e-01 3.335537e-01 4.299219e-01 4.092821e-01 4.982496e-01 4.002864e-01 1.592490e-01 8.694791e-02 1.118948e-01 1.742046e-01 1.765663e-01 1.321750e-01 6.666888e-02 7.504371e-02 1.153178e-01 1.648134e-01 1.632619e-01 1.324030e-01 1.077871e-01 1.351383e-01 1.622795e-01 1.550790e-01 8.781737e-02 2.955933e-02 2.011789e-02 5.887483e-02 5.068260e-02 4.966692e-02 1.307876e-02 -2.538075e-02 -4.068035e-02 -1.103804e-01 -1.448613e-01 -1.433025e-01 -1.283481e-01 -1.358733e-01 -1.751649e-01 -2.467581e-01 -2.683665e-01 -2.153175e-01 -2.245549e-01 -3.119219e-01 -2.981630e-01 -1.899499e-01 -7.651605e-02 -4.521424e-02 -6.594743e-02 -8.060197e-02 -3.821288e-02 -4.948344e-02 -1.499742e-01 -1.703138e-01 -7.190652e-02 -1.183211e-02 -7.840222e-02 -1.272343e-01 -1.412008e-01 -1.505614e-01 -1.675505e-01 -1.765846e-01 -1.882771e-01 -1.912599e-01 
-1.739192e-01 -1.730516e-01 -1.811811e-01 -1.778377e-01 -1.842323e-01 -1.789988e-01 -1.786763e-01 -1.823934e-01 -1.995923e-01 -2.056602e-01 -2.080587e-01 -1.965613e-01 -2.174104e-01 -2.102797e-01 -8.692212e-02 -7.707952e-02 6.137592e-02 6.733177e-02 2.062209e-01 1.809477e-01 3.611457e-01 3.226410e-01 3.571333e-01 3.656785e-01 3.738567e-01 3.446246e-01 3.114171e-01 2.790259e-01 2.568662e-01 2.468784e-01 2.489637e-01 2.545873e-01 2.873191e-01 3.242330e-01 3.632607e-01 3.870950e-01 4.291720e-01 4.363938e-01 4.319023e-01 4.193937e-01 3.867049e-01 3.616580e-01 3.471649e-01 3.332322e-01 3.242138e-01 3.262355e-01 3.231873e-01 3.341726e-01 3.315866e-01 3.206471e-01 3.193334e-01 3.242533e-01 3.093202e-01 3.150679e-01 2.917018e-01 2.795230e-01 2.801984e-01 2.825120e-01 2.975786e-01 3.163077e-01 2.966396e-01 3.091286e-01 2.971575e-01 2.996654e-01 2.936605e-01 2.811493e-01 2.590792e-01 2.371892e-01 2.422734e-01 2.627847e-01 2.743557e-01 2.551661e-01 2.062297e-01 1.627142e-01 1.471817e-01 1.554810e-01 1.567109e-01 1.547408e-01 1.336638e-01 1.389067e-01 1.378405e-01 1.526820e-01 1.469057e-01 1.380001e-01 1.257194e-01 1.258092e-01 1.203928e-01 1.076708e-01 6.538212e-02 4.973216e-02 4.359085e-02 6.107694e-02 5.189923e-02 3.947402e-02 2.130637e-02 -3.867016e-03 -2.051999e-02 -5.000874e-02 -6.253819e-02 -7.642658e-02 -8.228339e-02 -1.043970e-01 -1.376110e-01 -1.779376e-01 -2.029639e-01 -2.126174e-01 -2.173863e-01 -2.259082e-01 -2.036475e-01 -1.680942e-01 -1.224367e-01 -9.408967e-02 -7.843575e-02 -7.923963e-02 -8.460756e-02 -9.327552e-02 -1.160535e-01 -1.074690e-01 -8.706368e-02 -5.414536e-02 -6.173141e-02 -7.311470e-02 -1.059082e-01 -1.260690e-01 -1.414796e-01 -1.501134e-01 -1.617481e-01 -1.643768e-01 
-1.987639e-01 -2.005675e-01 -2.090970e-01 -2.100963e-01 -2.173782e-01 -2.192880e-01 -2.237041e-01 -2.311724e-01 -2.409984e-01 -2.467668e-01 -2.556906e-01 -2.554382e-01 -2.708354e-01 -2.702121e-01 -1.205874e-01 -1.150142e-01 4.012304e-02 4.837714e-02 1.995857e-01 2.043146e-01 3.796938e-01 3.637502e-01 3.605737e-01 3.637453e-01 3.515942e-01 3.468146e-01 3.260516e-01 3.143264e-01 2.953742e-01 2.945839e-01 2.919028e-01 3.033978e-01 3.179961e-01 3.361676e-01 3.544068e-01 3.675736e-01 3.796032e-01 3.844824e-01 3.836217e-01 3.819508e-01 3.696099e-01 3.626449e-01 3.522295e-01 3.496924e-01 3.422012e-01 3.436689e-01 3.388697e-01 3.438543e-01 3.386308e-01 3.383478e-01 3.315458e-01 3.354855e-01 3.249058e-01 3.274259e-01 3.148481e-01 3.175937e-01 3.124397e-01 3.247816e-01 3.268693e-01 3.246417e-01 3.202859e-01 3.113909e-01 3.056690e-01 2.974913e-01 2.871388e-01 2.783105e-01 2.562539e-01 2.511316e-01 2.329677e-01 2.429238e-01 2.269376e-01 2.187440e-01 2.035217e-01 1.921537e-01 1.823192e-01 1.814037e-01 1.698594e-01 1.632207e-01 1.456308e-01 1.429585e-01 1.329877e-01 1.336298e-01 1.213186e-01 1.150732e-01 9.996939e-02 9.556886e-02 8.186928e-02 7.276679e-02 5.046064e-02 3.746569e-02 2.045805e-02 1.497766e-02 -8.584790e-04 -1.194818e-02 -2.923269e-02 -4.743293e-02 -6.240134e-02 -8.387632e-02 -9.740316e-02 -1.123587e-01 -1.212235e-01 -1.356308e-01 -1.476933e-01 -1.641719e-01 -1.721478e-01 -1.765002e-01 -1.768400e-01 -1.822742e-01 -1.724282e-01 -1.591044e-01 -1.394694e-01 -1.293323e-01 -1.215503e-01 -1.196530e-01 -1.165771e-01 -1.178668e-01 -1.267468e-01 -1.274587e-01 -1.254680e-01 -1.212175e-01 -1.323408e-01 -1.389006e-01 -1.516213e-01 -1.583463e-01 -1.700901e-01 -1.753529e-01 -1.859182e-01 -1.892908e-01 
-1.763587e-01 -1.771291e-01 -1.862127e-01 -1.862786e-01 -1.950969e-01 -1.952844e-01 -2.043312e-01 -2.058993e-01 -2.172823e-01 -2.196602e-01 -2.319189e-01 -2.341962e-01 -2.491051e-01 -2.546700e-01 -9.212410e-02 -9.473372e-02 6.725520e-02 6.273247e-02 2.304831e-01 2.186213e-01 4.001524e-01 3.804397e-01 3.766536e-01 3.629682e-01 3.569782e-01 3.427322e-01 3.332472e-01 3.207389e-01 3.139309e-01 3.068372e-01 3.068218e-01 3.059582e-01 3.134409e-01 3.183527e-01 3.291863e-01 3.339788e-01 3.434348e-01 3.450720e-01 3.468990e-01 3.447906e-01 3.408231e-01 3.372522e-01 3.336523e-01 3.327338e-01 3.308146e-01 3.338047e-01 3.329738e-01 3.377374e-01 3.362978e-01 3.394553e-01 3.362310e-01 3.398777e-01 3.335754e-01 3.367261e-01 3.288935e-01 3.309694e-01 3.254016e-01 3.305963e-01 3.268049e-01 3.245348e-01 3.194043e-01 3.137052e-01 3.084727e-01 3.020937e-01 2.931805e-01 2.879551e-01 2.756978e-01 2.747282e-01 2.621218e-01 2.622358e-01 2.491159e-01 2.436629e-01 2.310730e-01 2.220713e-01 2.088077e-01 2.025881e-01 1.888619e-01 1.822392e-01 1.656248e-01 1.592613e-01 1.430434e-01 1.368370e-01 1.200694e-01 1.115565e-01 9.416573e-02 8.569287e-02 6.847308e-02 5.921849e-02 4.021937e-02 3.141325e-02 1.633015e-02 9.734285e-03 -3.607758e-03 -1.368517e-02 -2.646654e-02 -3.969058e-02 -5.097355e-02 -6.521740e-02 -7.468247e-02 -8.773371e-02 -9.611072e-02 -1.094173e-01 -1.191561e-01 -1.324160e-01 -1.397160e-01 -1.477086e-01 -1.492280e-01 -1.515997e-01 -1.462443e-01 -1.408217e-01 -1.316172e-01 -1.246186e-01 -1.191524e-01 -1.150595e-01 -1.153401e-01 -1.130843e-01 -1.177327e-01 -1.144428e-01 -1.184061e-01 -1.143503e-01 -1.224234e-01 -1.236322e-01 -1.356022e-01 -1.395879e-01 -1.509453e-01 -1.543255e-01 -1.647373e-01 -1.667358e-01 
-2.070750e-01 -2.090613e-01 -2.177782e-01 -2.197345e-01 -2.284049e-01 -2.309041e-01 -2.398778e-01 -2.432967e-01 -2.544063e-01 -2.573372e-01 -2.715358e-01 -2.729363e-01 -2.907568e-01 -2.910030e-01 -1.253239e-01 -1.214254e-01 4.363431e-02 4.898681e-02 2.176169e-01 2.182408e-01 3.975288e-01 3.861054e-01 3.743266e-01 3.666751e-01 3.548098e-01 3.492618e-01 3.383818e-01 3.343772e-01 3.256349e-01 3.236356e-01 3.184026e-01 3.185902e-01 3.173911e-01 3.194589e-01 3.209556e-01 3.238319e-01 3.256326e-01 3.282344e-01 3.281708e-01 3.302724e-01 3.282677e-01 3.308249e-01 3.291818e-01 3.343207e-01 3.344425e-01 3.421872e-01 3.428826e-01 3.512681e-01 3.505725e-01 3.574896e-01 3.542250e-01 3.596335e-01 3.534448e-01 3.564756e-01 3.477079e-01 3.481700e-01 3.381571e-01 3.365532e-01 3.261221e-01 3.214633e-01 3.106156e-01 3.049059e-01 2.944467e-01 2.897796e-01 2.793060e-01 2.766389e-01 2.664048e-01 2.665525e-01 2.572363e-01 2.591012e-01 2.501546e-01 2.498828e-01 2.400343e-01 2.369872e-01 2.246136e-01 2.187266e-01 2.021714e-01 1.925808e-01 1.722094e-01 1.606567e-01 1.389703e-01 1.267603e-01 1.045431e-01 9.176864e-02 7.009856e-02 5.834338e-02 3.828868e-02 2.715989e-02 8.111360e-03 -2.571029e-03 -1.950777e-02 -2.940509e-02 -4.432430e-02 -5.487873e-02 -6.768232e-02 -7.884409e-02 -8.870413e-02 -9.936895e-02 -1.065659e-01 -1.159549e-01 -1.211438e-01 -1.298149e-01 -1.341531e-01 -1.420934e-01 -1.447787e-01 -1.502837e-01 -1.501634e-01 -1.528626e-01 -1.494406e-01 -1.482450e-01 -1.431255e-01 -1.409908e-01 -1.376255e-01 -1.364395e-01 -1.363310e-01 -1.369580e-01 -1.409548e-01 -1.429022e-01 -1.486891e-01 -1.510486e-01 -1.591515e-01 -1.625316e-01 -1.715213e-01 -1.748881e-01 -1.839428e-01 -1.869019e-01 -1.958498e-01 -1.982552e-01 
-1.858870e-01 -1.862033e-01 -1.952115e-01 -1.954101e-01 -2.047800e-01 -2.053673e-01 -2.152131e-01 -2.168842e-01 -2.283107e-01 -2.307132e-01 -2.458674e-01 -2.483739e-01 -2.661609e-01 -2.671952e-01 -1.069218e-01 -1.025090e-01 5.773859e-02 6.443968e-02 2.289753e-01 2.325769e-01 4.055270e-01 3.983072e-01 3.804780e-01 3.710787e-01 3.562175e-01 3.478395e-01 3.374070e-01 3.300894e-01 3.221695e-01 3.147117e-01 3.097710e-01 3.042382e-01 3.030581e-01 2.995462e-01 3.010999e-01 2.989918e-01 3.008333e-01 2.992511e-01 3.000526e-01 2.992186e-01 2.993226e-01 3.007676e-01 3.028081e-01 3.098746e-01 3.174242e-01 3.299279e-01 3.381007e-01 3.501599e-01 3.545747e-01 3.634481e-01 3.634910e-01 3.698028e-01 3.659404e-01 3.688167e-01 3.613567e-01 3.609402e-01 3.507946e-01 3.463342e-01 3.338215e-01 3.265168e-01 3.140617e-01 3.070522e-01 2.964939e-01 2.915459e-01 2.826826e-01 2.815686e-01 2.767477e-01 2.796548e-01 2.770426e-01 2.815016e-01 2.791467e-01 2.814949e-01 2.754043e-01 2.730114e-01 2.611544e-01 2.531577e-01 2.341797e-01 2.202568e-01 1.949620e-01 1.774011e-01 1.498117e-01 1.324153e-01 1.049529e-01 8.744446e-02 6.176914e-02 4.802124e-02 2.680082e-02 1.609321e-02 -2.403756e-03 -1.141097e-02 -2.673708e-02 -3.464519e-02 -4.742936e-02 -5.650311e-02 -6.764497e-02 -7.742750e-02 -8.461925e-02 -9.247122e-02 -9.595171e-02 -1.023793e-01 -1.034705e-01 -1.091751e-01 -1.106451e-01 -1.177239e-01 -1.206592e-01 -1.284020e-01 -1.310475e-01 -1.359635e-01 -1.354153e-01 -1.352508e-01 -1.321450e-01 -1.285750e-01 -1.252689e-01 -1.205494e-01 -1.212583e-01 -1.195595e-01 -1.263011e-01 -1.272336e-01 -1.363964e-01 -1.370738e-01 -1.465059e-01 -1.475407e-01 -1.568509e-01 -1.582383e-01 -1.667658e-01 -1.679435e-01 -1.764528e-01 -1.771734e-01 
-2.175270e-01 -2.181387e-01 -2.268642e-01 -2.274977e-01 -2.362041e-01 -2.377496e-01 -2.439023e-01 -2.489276e-01 -2.575305e-01 -2.618902e-01 -2.793183e-01 -2.810223e-01 -3.036474e-01 -2.945934e-01 -1.441622e-01 -1.311747e-01 2.704836e-02 5.422917e-02 2.119310e-01 2.377248e-01 3.985079e-01 3.906437e-01 3.728543e-01 3.613296e-01 3.455319e-01 3.415410e-01 3.359489e-01 3.378389e-01 3.338242e-01 3.298923e-01 3.200138e-01 3.101218e-01 2.984797e-01 2.887309e-01 2.830540e-01 2.799727e-01 2.802178e-01 2.814445e-01 2.824867e-01 2.845340e-01 2.836565e-01 2.872292e-01 2.887462e-01 3.014650e-01 3.139651e-01 3.358467e-01 3.498952e-01 3.701191e-01 3.786624e-01 3.929403e-01 3.946319e-01 4.049876e-01 4.018117e-01 4.061165e-01 3.958243e-01 3.919869e-01 3.737219e-01 3.609436e-01 3.377899e-01 3.231712e-01 3.026015e-01 2.922556e-01 2.773425e-01 2.719522e-01 2.610517e-01 2.622284e-01 2.605032e-01 2.686272e-01 2.711337e-01 2.813626e-01 2.855523e-01 2.960660e-01 2.977977e-01 3.032811e-01 2.949928e-01 2.875861e-01 2.645582e-01 2.450498e-01 2.118962e-01 1.862431e-01 1.497049e-01 1.242704e-01 8.783663e-02 6.219813e-02 2.968848e-02 1.215034e-02 -1.182306e-02 -2.425889e-02 -4.447046e-02 -5.419613e-02 -7.068480e-02 -7.923051e-02 -9.362675e-02 -1.038423e-01 -1.154778e-01 -1.240174e-01 -1.276471e-01 -1.306162e-01 -1.288629e-01 -1.304526e-01 -1.273386e-01 -1.303252e-01 -1.301461e-01 -1.363657e-01 -1.383753e-01 -1.465139e-01 -1.479191e-01 -1.522388e-01 -1.488224e-01 -1.479329e-01 -1.435235e-01 -1.418386e-01 -1.368758e-01 -1.329434e-01 -1.324091e-01 -1.343439e-01 -1.427166e-01 -1.495301e-01 -1.609966e-01 -1.675317e-01 -1.783387e-01 -1.826799e-01 -1.912658e-01 -1.929275e-01 -1.999725e-01 -2.011919e-01 -2.085775e-01 -2.094544e-01 
-1.958742e-01 -1.945931e-01 -2.033235e-01 -2.016578e-01 -2.112245e-01 -2.094460e-01 -2.155323e-01 -2.186876e-01 -2.215811e-01 -2.265831e-01 -2.491554e-01 -2.582107e-01 -2.834660e-01 -2.707211e-01 -1.434061e-01 -1.193338e-01 2.191912e-02 6.139441e-02 2.062108e-01 2.561639e-01 4.081652e-01 4.195762e-01 3.808065e-01 3.630381e-01 3.335727e-01 3.309710e-01 3.272664e-01 3.299517e-01 3.190510e-01 3.029739e-01 2.899810e-01 2.793965e-01 2.736611e-01 2.641935e-01 2.662497e-01 2.607517e-01 2.602855e-01 2.545943e-01 2.529960e-01 2.473178e-01 2.409575e-01 2.340516e-01 2.274442e-01 2.432325e-01 2.797947e-01 3.253390e-01 3.600417e-01 3.903599e-01 4.030825e-01 4.151737e-01 4.166193e-01 4.290915e-01 4.264390e-01 4.284722e-01 4.177337e-01 4.178284e-01 4.018261e-01 3.829086e-01 3.519848e-01 3.270865e-01 2.999515e-01 2.845649e-01 2.694892e-01 2.588802e-01 2.406760e-01 2.429270e-01 2.528717e-01 2.695361e-01 2.847256e-01 3.081810e-01 3.325655e-01 3.532297e-01 3.617621e-01 3.694313e-01 3.644000e-01 3.559186e-01 3.284717e-01 2.980949e-01 2.480306e-01 2.040651e-01 1.554165e-01 1.279360e-01 8.313425e-02 4.113777e-02 -3.494529e-03 -1.963538e-02 -3.793009e-02 -4.473117e-02 -6.451350e-02 -7.131427e-02 -8.436527e-02 -8.452458e-02 -9.315431e-02 -1.030527e-01 -1.217889e-01 -1.386884e-01 -1.408327e-01 -1.402712e-01 -1.324763e-01 -1.294776e-01 -1.122076e-01 -1.019251e-01 -9.077762e-02 -9.451812e-02 -1.001062e-01 -1.215618e-01 -1.369488e-01 -1.534214e-01 -1.551342e-01 -1.535281e-01 -1.470947e-01 -1.379322e-01 -1.199281e-01 -9.789831e-02 -9.096816e-02 -9.138288e-02 -1.146708e-01 -1.313690e-01 -1.543497e-01 -1.573179e-01 -1.696980e-01 -1.706157e-01 -1.800289e-01 -1.811138e-01 -1.836488e-01 -1.835601e-01 -1.892241e-01 -1.884235e-01 
-2.267204e-01 -2.248254e-01 -2.363537e-01 -2.322108e-01 -2.513730e-01 -2.418949e-01 -2.219906e-01 -2.469776e-01 -2.304112e-01 -2.451127e-01 -2.768381e-01 -3.071702e-01 -3.370972e-01 -3.251171e-01 -2.070803e-01 -2.271912e-01 -4.740978e-02 6.214252e-02 1.905079e-01 3.607270e-01 3.835421e-01 4.066997e-01 3.553209e-01 3.013369e-01 2.518446e-01 2.551614e-01 2.865542e-01 3.420648e-01 3.794748e-01 3.825267e-01 3.525816e-01 3.041860e-01 2.458933e-01 1.949706e-01 1.779565e-01 1.787693e-01 2.010375e-01 2.181594e-01 2.330617e-01 2.338885e-01 2.183236e-01 1.968511e-01 1.752987e-01 1.964267e-01 2.488534e-01 3.178048e-01 3.679344e-01 4.159623e-01 4.418541e-01 4.589792e-01 4.591422e-01 4.811375e-01 4.908346e-01 5.078889e-01 5.010633e-01 4.914593e-01 4.486456e-01 3.966474e-01 3.332115e-01 2.868813e-01 2.463361e-01 2.285900e-01 2.137622e-01 2.035655e-01 1.779450e-01 1.814099e-01 2.032578e-01 2.374108e-01 2.613389e-01 2.825229e-01 3.084092e-01 3.488655e-01 3.953489e-01 4.436235e-01 4.582905e-01 4.449155e-01 3.961385e-01 3.446304e-01 2.782297e-01 2.208650e-01 1.575666e-01 1.145941e-01 4.816321e-02 -1.521526e-02 -7.071542e-02 -8.460160e-02 -9.846426e-02 -1.051316e-01 -1.247991e-01 -1.260776e-01 -1.360863e-01 -1.358994e-01 -1.571219e-01 -1.809864e-01 -2.071980e-01 -2.224023e-01 -2.094526e-01 -1.890295e-01 -1.617923e-01 -1.424698e-01 -1.186386e-01 -1.148332e-01 -1.184218e-01 -1.292614e-01 -1.403782e-01 -1.677554e-01 -1.808237e-01 -1.863392e-01 -1.654529e-01 -1.470805e-01 -1.415460e-01 -1.478063e-01 -1.273072e-01 -9.629706e-02 -8.099197e-02 -8.779594e-02 -1.161866e-01 -1.419413e-01 -1.705379e-01 -1.930606e-01 -2.144832e-01 -2.230519e-01 -2.276535e-01 -2.175046e-01 -2.171547e-01 -2.159966e-01 -2.202892e-01 -2.192585e-01 
-2.032166e-01 -2.001076e-01 -2.107241e-01 -2.068557e-01 -2.234549e-01 -2.165515e-01 -1.691471e-01 -2.144462e-01 -1.844725e-01 -2.062514e-01 -2.146361e-01 -2.418066e-01 -2.474175e-01 -2.409698e-01 -2.153004e-01 -2.086703e-01 -1.606642e-01 -1.119451e-01 -9.067711e-02 -2.614158e-02 -3.082164e-02 -2.162339e-02 -4.938591e-02 -9.350335e-02 -1.253047e-01 -1.023265e-01 -4.277077e-02 6.482718e-02 1.624955e-01 2.191436e-01 1.899149e-01 1.186888e-01 8.686225e-03 -7.478805e-02 -1.232194e-01 -1.127871e-01 -6.543580e-02 -1.139152e-02 3.505032e-02 6.479889e-02 7.084114e-02 6.775048e-02 6.685082e-02 8.213586e-02 9.454286e-02 1.170330e-01 1.347618e-01 1.654304e-01 1.996499e-01 2.223723e-01 2.340497e-01 2.547755e-01 2.825458e-01 3.106612e-01 3.150633e-01 2.824747e-01 2.197169e-01 1.527478e-01 8.860955e-02 4.813515e-02 1.878104e-02 1.068033e-02 2.752479e-03 5.953000e-03 -6.168307e-04 8.216549e-04 7.066849e-03 2.978964e-02 3.150384e-02 1.684027e-02 -7.772323e-04 2.965713e-02 9.284849e-02 1.678848e-01 1.981343e-01 1.899416e-01 1.483406e-01 1.143935e-01 8.871296e-02 7.130568e-02 3.762782e-02 -6.915854e-03 -5.897478e-02 -9.448485e-02 -1.214760e-01 -1.356269e-01 -1.558821e-01 -1.752007e-01 -1.937898e-01 -1.976622e-01 -2.141357e-01 -2.317087e-01 -2.758217e-01 -3.033417e-01 -3.166862e-01 -2.991503e-01 -2.782056e-01 -2.389713e-01 -2.140636e-01 -1.821651e-01 -1.920132e-01 -2.128490e-01 -2.560313e-01 -2.637877e-01 -2.682218e-01 -2.497984e-01 -2.207247e-01 -1.721803e-01 -1.170880e-01 -7.822759e-02 -7.526971e-02 -1.067096e-01 -1.156371e-01 -1.236857e-01 -1.159402e-01 -1.318347e-01 -1.221652e-01 -1.308170e-01 -1.296609e-01 -1.740894e-01 -1.937214e-01 -2.136069e-01 -2.109551e-01 -1.885669e-01 -1.965885e-01 -1.910512e-01 -1.985977e-01 -1.950162e-01 
-2.250471e-01 -2.266782e-01 -2.279270e-01 -2.318368e-01 -2.300563e-01 -2.379085e-01 -2.041886e-01 -2.357275e-01 -2.153326e-01 -2.326011e-01 -2.154027e-01 -2.215188e-01 -2.072120e-01 -2.059013e-01 -1.904239e-01 -2.001378e-01 -1.857771e-01 -1.824400e-01 -1.872667e-01 -1.921851e-01 -2.172100e-01 -2.173392e-01 -2.201572e-01 -2.150890e-01 -2.153269e-01 -1.879370e-01 -1.575395e-01 -8.931433e-02 -2.915291e-02 2.696126e-02 1.536513e-02 -1.330709e-02 -8.179647e-02 -1.219432e-01 -1.621458e-01 -1.506257e-01 -1.266138e-01 -8.201823e-02 -4.902771e-02 -1.214241e-02 7.170310e-03 3.119513e-02 4.895616e-02 6.025074e-02 3.871234e-02 2.359394e-02 9.596059e-03 1.617953e-02 3.313374e-02 5.228773e-02 6.493714e-02 7.520400e-02 9.109710e-02 1.057050e-01 1.060815e-01 7.880243e-02 3.821947e-02 5.720220e-03 -2.472291e-02 -3.747530e-02 -5.173192e-02 -5.227268e-02 -6.199379e-02 -5.394399e-02 -5.092792e-02 -5.096916e-02 -6.718800e-02 -6.864847e-02 -8.774477e-02 -1.115901e-01 -1.472218e-01 -1.426537e-01 -1.209963e-01 -8.311785e-02 -7.171792e-02 -7.036810e-02 -8.518658e-02 -8.768863e-02 -8.180045e-02 -7.037506e-02 -7.671138e-02 -1.018228e-01 -1.231898e-01 -1.254919e-01 -1.309822e-01 -1.473822e-01 -1.740339e-01 -1.979626e-01 -2.173183e-01 -2.299980e-01 -2.536976e-01 -2.779518e-01 -3.164083e-01 -3.290253e-01 -3.322737e-01 -3.059271e-01 -3.010021e-01 -2.761106e-01 -2.744254e-01 -2.536203e-01 -2.795724e-01 -2.950185e-01 -3.301905e-01 -3.235657e-01 -3.161798e-01 -2.733001e-01 -2.313046e-01 -1.777315e-01 -1.358422e-01 -1.111233e-01 -1.062620e-01 -1.317921e-01 -1.506091e-01 -1.863678e-01 -1.879997e-01 -2.069081e-01 -1.777647e-01 -1.796102e-01 -1.597384e-01 -1.959451e-01 -2.006676e-01 -2.217538e-01 -2.178645e-01 -2.097656e-01 -2.184055e-01 -2.169421e-01 -2.219627e-01 -2.219755e-01 
-2.007193e-01 -2.011565e-01 -2.006153e-01 -2.041648e-01 -1.986977e-01 -2.074554e-01 -1.913910e-01 -2.074756e-01 -1.950067e-01 -2.062859e-01 -1.948086e-01 -1.973685e-01 -1.914700e-01 -1.901147e-01 -1.930340e-01 -1.891841e-01 -1.986006e-01 -1.910291e-01 -2.062953e-01 -2.010460e-01 -2.201367e-01 -2.103842e-01 -2.174165e-01 -1.987671e-01 -1.991656e-01 -1.724437e-01 -1.618916e-01 -1.247637e-01 -1.056516e-01 -7.290690e-02 -7.713088e-02 -7.528295e-02 -1.002440e-01 -1.069972e-01 -1.240635e-01 -1.151842e-01 -1.086823e-01 -8.519470e-02 -6.850607e-02 -4.364409e-02 -2.762275e-02 -6.177928e-03 7.795257e-03 1.991599e-02 1.490633e-02 1.297170e-02 1.055742e-02 1.579993e-02 2.483586e-02 3.537104e-02 4.413090e-02 4.902367e-02 5.557621e-02 5.740685e-02 5.506327e-02 4.166294e-02 2.314358e-02 8.632209e-03 -7.945909e-03 -1.503939e-02 -2.647429e-02 -2.787499e-02 -3.683517e-02 -3.315404e-02 -3.568549e-02 -3.482872e-02 -4.622769e-02 -4.994002e-02 -6.249825e-02 -7.247946e-02 -8.889992e-02 -8.808696e-02 -8.632190e-02 -7.284427e-02 -7.229344e-02 -6.970209e-02 -7.765742e-02 -7.967623e-02 -8.319218e-02 -8.387975e-02 -9.301467e-02 -1.076617e-01 -1.226802e-01 -1.288115e-01 -1.401360e-01 -1.537798e-01 -1.745061e-01 -1.908765e-01 -2.091535e-01 -2.230346e-01 -2.459220e-01 -2.622756e-01 -2.881548e-01 -2.933987e-01 -3.039943e-01 -2.913377e-01 -2.971970e-01 -2.825217e-01 -2.877053e-01 -2.716097e-01 -2.830614e-01 -2.751628e-01 -2.834541e-01 -2.650718e-01 -2.547920e-01 -2.220940e-01 -1.976825e-01 -1.666357e-01 -1.459478e-01 -1.323189e-01 -1.253888e-01 -1.341357e-01 -1.385924e-01 -1.588707e-01 -1.567619e-01 -1.719081e-01 -1.580928e-01 -1.699900e-01 -1.609996e-01 -1.839744e-01 -1.849382e-01 -1.989273e-01 -1.971007e-01 -1.965515e-01 -1.997731e-01 -1.977861e-01 -2.004237e-01 -1.990417e-01 
