# vtk DataFile Version 2.0
Comment goes here
ASCII

DATASET STRUCTURED_POINTS
FIELD FieldData 1
TIME 1 1 double
0.18000000
DIMENSIONS    128   16   1

ORIGIN    0.000   0.000   0.000
SPACING   0.0078125 0.015625   1.000

POINT_DATA   2048
SCALARS P double
LOOKUP_TABLE default

-1.363318e-01 -1.387681e-01 -1.372138e-01 -1.417354e-01 -1.354355e-01 -1.434514e-01 -1.292354e-01 -1.426425e-01 -1.292800e-01 -1.384282e-01 -1.287540e-01 -1.331689e-01 -1.266239e-01 -1.256384e-01 -1.200025e-01 -1.151057e-01 -1.105296e-01 -1.015872e-01 -1.005532e-01 -8.882201e-02 -9.069837e-02 -7.899563e-02 -8.144612e-02 -6.965051e-02 -7.209243e-02 -6.067614e-02 -6.763977e-02 -6.124397e-02 -7.408974e-02 -7.026586e-02 -8.299118e-02 -7.678055e-02 -8.467468e-02 -7.403337e-02 -7.637945e-02 -6.398372e-02 -6.364977e-02 -5.301703e-02 -5.257660e-02 -4.678420e-02 -4.879678e-02 -4.901643e-02 -5.275559e-02 -5.638358e-02 -5.931765e-02 -6.341147e-02 -6.366061e-02 -6.657901e-02 -6.556133e-02 -6.896650e-02 -6.855647e-02 -7.233012e-02 -7.267898e-02 -7.586109e-02 -7.651826e-02 -7.907866e-02 -8.204485e-02 -8.673636e-02 -9.698171e-02 -1.025190e-01 -1.208183e-01 -1.263770e-01 -1.472240e-01 -1.522686e-01 -1.676766e-01 -1.662770e-01 -1.764710e-01 -1.777891e-01 -1.829874e-01 -1.897572e-01 -1.991118e-01 -2.076543e-01 -2.257487e-01 -2.328964e-01 -2.458794e-01 -2.499909e-01 -2.569103e-01 -2.577137e-01 -2.598635e-01 -2.603683e-01 -2.619751e-01 -2.645641e-01 -2.666653e-01 -2.695762e-01 -2.703033e-01 -2.706666e-01 -2.698079e-01 -2.672267e-01 -2.653747e-01 -2.594287e-01 -2.577456e-01 -2.486808e-01 -2.489230e-01 -2.390701e-01 -2.445093e-01 -2.358297e-01 -2.459352e-01 -2.357876e-01 -2.464782e-01 -2.329120e-01 -2.420520e-01 -2.259481e-01 -2.343189e-01 -2.192400e-01 -2.264957e-01 -2.124432e-01 -2.149635e-01 -2.016045e-01 -1.991379e-01 -1.901805e-01 -1.847965e-01 -1.820984e-01 -1.728251e-01 -1.741307e-01 -1.594349e-01 -1.625907e-01 -1.446742e-01 -1.505449e-01 -1.340396e-01 -1.418447e-01 -1.297730e-01 -1.360344e-01 -1.304362e-01 -1.316740e-01 -1.317102e-01 -1.325142e-01 -1.341146e-01 -1.353891e-01 
-1.232623e-01 -1.269079e-01 -1.243392e-01 -1.299926e-01 -1.222008e-01 -1.320184e-01 -1.138570e-01 -1.303167e-01 -1.152100e-01 -1.243822e-01 -1.153168e-01 -1.166842e-01 -1.136576e-01 -1.065954e-01 -1.108509e-01 -9.789145e-02 -1.071525e-01 -9.095221e-02 -1.033368e-01 -8.658332e-02 -9.943469e-02 -8.177235e-02 -8.949503e-02 -6.762411e-02 -6.837910e-02 -4.585838e-02 -5.385983e-02 -4.365035e-02 -6.291551e-02 -5.935501e-02 -7.953295e-02 -7.487742e-02 -8.923158e-02 -7.766601e-02 -8.290032e-02 -6.715789e-02 -6.680122e-02 -5.018802e-02 -4.794595e-02 -3.762118e-02 -4.115406e-02 -4.076079e-02 -4.841550e-02 -5.201208e-02 -5.774070e-02 -6.028250e-02 -6.103557e-02 -6.147811e-02 -6.375180e-02 -7.043513e-02 -7.752233e-02 -8.513301e-02 -8.915708e-02 -8.908375e-02 -8.389184e-02 -7.622813e-02 -7.060925e-02 -6.828954e-02 -7.625719e-02 -8.024207e-02 -1.078496e-01 -1.179906e-01 -1.498747e-01 -1.574345e-01 -1.775461e-01 -1.734110e-01 -1.763260e-01 -1.695749e-01 -1.649441e-01 -1.679203e-01 -1.737999e-01 -1.866364e-01 -2.150758e-01 -2.332745e-01 -2.582147e-01 -2.685427e-01 -2.764269e-01 -2.703392e-01 -2.615077e-01 -2.497540e-01 -2.428490e-01 -2.428280e-01 -2.480974e-01 -2.586989e-01 -2.678083e-01 -2.751505e-01 -2.771787e-01 -2.742520e-01 -2.676076e-01 -2.566313e-01 -2.490790e-01 -2.363492e-01 -2.327427e-01 -2.231866e-01 -2.309187e-01 -2.294822e-01 -2.457668e-01 -2.416896e-01 -2.533779e-01 -2.398914e-01 -2.446971e-01 -2.255891e-01 -2.298415e-01 -2.139000e-01 -2.186630e-01 -2.042749e-01 -2.029025e-01 -1.875058e-01 -1.816416e-01 -1.746256e-01 -1.708320e-01 -1.743979e-01 -1.669577e-01 -1.719270e-01 -1.534315e-01 -1.546336e-01 -1.293482e-01 -1.342012e-01 -1.132491e-01 -1.247809e-01 -1.121265e-01 -1.227429e-01 -1.156325e-01 -1.170482e-01 -1.176118e-01 -1.196174e-01 -1.206262e-01 -1.232498e-01 
-1.368400e-01 -1.375649e-01 -1.405454e-01 -1.422945e-01 -1.422830e-01 -1.465025e-01 -1.148505e-01 -1.486968e-01 -1.314727e-01 -1.428409e-01 -1.346122e-01 -1.391013e-01 -1.350493e-01 -1.293536e-01 -1.238272e-01 -1.213500e-01 -1.136730e-01 -1.039088e-01 -1.061689e-01 -9.055981e-02 -1.005776e-01 -9.188151e-02 -9.573550e-02 -7.698533e-02 -5.903712e-02 -2.701495e-02 -2.765581e-02 -2.725498e-02 -5.479694e-02 -6.212985e-02 -8.828360e-02 -9.415507e-02 -1.126044e-01 -1.024708e-01 -1.034431e-01 -8.791538e-02 -8.364997e-02 -6.142307e-02 -4.687550e-02 -3.218064e-02 -3.391687e-02 -3.964019e-02 -4.882265e-02 -5.820213e-02 -6.591885e-02 -7.415911e-02 -7.085645e-02 -7.069474e-02 -7.196305e-02 -8.655508e-02 -9.866804e-02 -1.157170e-01 -1.237612e-01 -1.230118e-01 -1.036197e-01 -7.735900e-02 -4.162902e-02 -3.791520e-02 -3.736012e-02 -4.557933e-02 -9.240715e-02 -1.054175e-01 -1.682111e-01 -2.086730e-01 -2.360095e-01 -2.064794e-01 -2.186864e-01 -2.066042e-01 -1.601522e-01 -1.753001e-01 -1.570176e-01 -1.810699e-01 -2.636473e-01 -2.904759e-01 -3.224038e-01 -3.376509e-01 -3.412282e-01 -3.207838e-01 -2.875658e-01 -2.546051e-01 -2.337380e-01 -2.324442e-01 -2.433859e-01 -2.677145e-01 -2.886568e-01 -3.067339e-01 -3.137152e-01 -3.095562e-01 -2.929612e-01 -2.722924e-01 -2.565518e-01 -2.361652e-01 -2.265027e-01 -2.136534e-01 -2.262856e-01 -2.349155e-01 -2.666913e-01 -2.697948e-01 -2.886706e-01 -2.736112e-01 -2.771905e-01 -2.470540e-01 -2.483708e-01 -2.256409e-01 -2.340759e-01 -2.161259e-01 -2.140916e-01 -1.892103e-01 -1.828253e-01 -1.739335e-01 -1.769553e-01 -1.865900e-01 -1.870040e-01 -1.956236e-01 -1.734066e-01 -1.664035e-01 -1.303645e-01 -1.309548e-01 -1.055045e-01 -1.224866e-01 -1.107724e-01 -1.266623e-01 -1.229614e-01 -1.161673e-01 -1.254620e-01 -1.251283e-01 -1.317658e-01 -1.319716e-01 
-1.270274e-01 -1.269601e-01 -1.350381e-01 -1.323145e-01 -1.455474e-01 -1.370602e-01 -8.507346e-02 -1.501999e-01 -1.318300e-01 -1.469166e-01 -1.415524e-01 -1.442173e-01 -1.417620e-01 -1.154985e-01 -9.630309e-02 -7.795477e-02 -5.276207e-02 -6.072607e-03 -2.604849e-03 7.646471e-02 6.810490e-02 1.039302e-01 8.917305e-02 1.026146e-01 1.170718e-01 1.526272e-01 1.466142e-01 1.377981e-01 1.095949e-01 1.115774e-01 1.002260e-01 1.006909e-01 8.779595e-02 9.714170e-02 9.168800e-02 8.530168e-02 6.462931e-02 6.916118e-02 8.080720e-02 9.700626e-02 9.655060e-02 9.874867e-02 1.004943e-01 1.020426e-01 8.955613e-02 7.429951e-02 6.624884e-02 6.446348e-02 6.063690e-02 5.916718e-02 5.842590e-02 5.170574e-02 3.392246e-02 2.191437e-02 2.278892e-02 3.312026e-02 7.184147e-02 3.209001e-02 3.694827e-02 9.309204e-02 5.222175e-02 1.326366e-01 7.063199e-02 2.225211e-02 9.382555e-03 1.014752e-01 4.511423e-02 3.246200e-03 1.184447e-01 1.928007e-02 9.983310e-02 4.980123e-02 -1.508426e-01 -1.645817e-01 -1.766463e-01 -1.746614e-01 -1.786460e-01 -1.647650e-01 -1.479101e-01 -1.346602e-01 -1.397757e-01 -1.491404e-01 -1.625995e-01 -1.734285e-01 -1.819622e-01 -1.875871e-01 -1.992364e-01 -1.993114e-01 -1.935505e-01 -1.872508e-01 -1.923654e-01 -1.877315e-01 -1.871872e-01 -1.762095e-01 -1.757837e-01 -1.733163e-01 -1.865331e-01 -1.820092e-01 -1.918746e-01 -1.910773e-01 -1.960074e-01 -1.759938e-01 -1.665882e-01 -1.490501e-01 -1.536828e-01 -1.521026e-01 -1.532911e-01 -1.469268e-01 -1.477361e-01 -1.484575e-01 -1.439544e-01 -1.473029e-01 -1.419223e-01 -1.500832e-01 -1.325358e-01 -1.282989e-01 -1.051782e-01 -1.111076e-01 -9.629273e-02 -1.124670e-01 -9.863467e-02 -1.092284e-01 -1.111450e-01 -9.969754e-02 -1.096544e-01 -1.118001e-01 -1.190837e-01 -1.204158e-01 
-1.429556e-01 -1.400483e-01 -1.523213e-01 -1.461992e-01 -1.651153e-01 -1.524059e-01 -1.308467e-01 -1.704945e-01 -1.709383e-01 -1.772565e-01 -1.859171e-01 -1.792512e-01 -1.917655e-01 -1.566827e-01 -7.159910e-02 -7.779134e-02 7.494845e-02 1.576794e-01 2.451965e-01 4.049456e-01 4.278074e-01 4.711838e-01 4.484886e-01 4.477442e-01 4.337515e-01 4.384830e-01 4.255117e-01 4.160026e-01 4.127865e-01 4.253247e-01 4.419472e-01 4.498720e-01 4.550116e-01 4.505009e-01 4.408634e-01 4.080868e-01 3.731280e-01 3.443154e-01 3.367452e-01 3.331707e-01 3.344822e-01 3.412407e-01 3.551511e-01 3.642607e-01 3.572123e-01 3.422368e-01 3.245438e-01 3.141385e-01 3.080101e-01 3.185019e-01 3.302460e-01 3.360990e-01 3.185061e-01 2.905097e-01 2.549363e-01 2.161222e-01 1.989606e-01 1.280362e-01 1.176692e-01 1.994790e-01 1.956076e-01 3.160386e-01 3.159108e-01 3.253256e-01 3.360306e-01 4.004309e-01 3.521644e-01 2.776514e-01 3.464282e-01 2.350355e-01 2.991649e-01 2.625210e-01 1.214473e-01 1.311669e-01 1.450555e-01 1.622156e-01 1.498366e-01 1.336490e-01 9.682688e-02 6.239985e-02 1.579700e-02 -2.128265e-03 -1.375381e-02 3.790193e-03 1.354925e-02 3.057894e-02 1.761240e-02 1.172964e-02 -1.244911e-02 -3.211662e-02 -6.824061e-02 -8.750214e-02 -1.072223e-01 -1.058187e-01 -9.375185e-02 -7.129134e-02 -4.953144e-02 -3.178039e-02 -2.425226e-02 -3.629516e-02 -4.354837e-02 -5.250385e-02 -4.434888e-02 -4.668144e-02 -4.550561e-02 -6.271807e-02 -7.109429e-02 -9.367289e-02 -1.057054e-01 -1.158112e-01 -1.055548e-01 -9.415679e-02 -8.417967e-02 -8.132991e-02 -8.652053e-02 -9.127511e-02 -1.087592e-01 -1.164771e-01 -1.307120e-01 -1.282756e-01 -1.271813e-01 -1.177327e-01 -1.286195e-01 -1.211827e-01 -1.268221e-01 -1.271676e-01 -1.347474e-01 -1.337126e-01 
-1.322796e-01 -1.339312e-01 -1.389463e-01 -1.407531e-01 -1.457709e-01 -1.485818e-01 -1.491293e-01 -1.614126e-01 -1.631578e-01 -1.733365e-01 -1.763324e-01 -1.833669e-01 -1.873631e-01 -1.921101e-01 -3.487812e-02 -2.343775e-02 1.231547e-01 1.544462e-01 2.931276e-01 3.353758e-01 4.801440e-01 4.966224e-01 4.765657e-01 4.767751e-01 4.529980e-01 4.488863e-01 4.335497e-01 4.351216e-01 4.341722e-01 4.446593e-01 4.510031e-01 4.582727e-01 4.583761e-01 4.532350e-01 4.411073e-01 4.225190e-01 4.001924e-01 3.802161e-01 3.647860e-01 3.572610e-01 3.527787e-01 3.569025e-01 3.594260e-01 3.645230e-01 3.582279e-01 3.533411e-01 3.382392e-01 3.311371e-01 3.215203e-01 3.269259e-01 3.265152e-01 3.297527e-01 3.156723e-01 2.984461e-01 2.653368e-01 2.329786e-01 1.952955e-01 1.626861e-01 1.443823e-01 1.596296e-01 1.633027e-01 1.916976e-01 2.021925e-01 2.166153e-01 2.132940e-01 2.077542e-01 1.876750e-01 1.586502e-01 1.396526e-01 1.172245e-01 1.123498e-01 1.153529e-01 1.120879e-01 1.291375e-01 1.411076e-01 1.540734e-01 1.437738e-01 1.298130e-01 9.487556e-02 6.811529e-02 3.353434e-02 2.420256e-02 1.421611e-02 2.768513e-02 2.987050e-02 4.154297e-02 3.108709e-02 2.634401e-02 2.990190e-03 -1.280588e-02 -3.903349e-02 -5.352159e-02 -6.975615e-02 -7.257272e-02 -6.698523e-02 -5.313546e-02 -3.545976e-02 -2.551631e-02 -1.714933e-02 -2.503580e-02 -2.691736e-02 -4.020741e-02 -3.713816e-02 -4.637114e-02 -4.273091e-02 -5.677888e-02 -6.033395e-02 -7.999654e-02 -8.542533e-02 -9.479453e-02 -8.750763e-02 -8.237160e-02 -7.498608e-02 -7.328292e-02 -7.953028e-02 -8.695924e-02 -1.032107e-01 -1.091553e-01 -1.211364e-01 -1.171361e-01 -1.201507e-01 -1.130445e-01 -1.189948e-01 -1.199764e-01 -1.209996e-01 -1.226924e-01 -1.261026e-01 -1.278055e-01 
-1.464506e-01 -1.457203e-01 -1.538328e-01 -1.537556e-01 -1.610797e-01 -1.629326e-01 -1.666698e-01 -1.740509e-01 -1.792592e-01 -1.851186e-01 -1.923898e-01 -1.968491e-01 -2.055584e-01 -2.111873e-01 -4.588498e-02 -3.914121e-02 1.193675e-01 1.427755e-01 2.929561e-01 3.211677e-01 4.748915e-01 4.782113e-01 4.635551e-01 4.646380e-01 4.516692e-01 4.518067e-01 4.418979e-01 4.410984e-01 4.354305e-01 4.358089e-01 4.334414e-01 4.317559e-01 4.279339e-01 4.216328e-01 4.141462e-01 4.027579e-01 3.921298e-01 3.806747e-01 3.728600e-01 3.656487e-01 3.608347e-01 3.570554e-01 3.537936e-01 3.506502e-01 3.445237e-01 3.388571e-01 3.301649e-01 3.244649e-01 3.161469e-01 3.124619e-01 3.045288e-01 2.992085e-01 2.863008e-01 2.759314e-01 2.584954e-01 2.470480e-01 2.292934e-01 2.239167e-01 2.162346e-01 2.076554e-01 2.081916e-01 1.980662e-01 1.961046e-01 1.853368e-01 1.762353e-01 1.668558e-01 1.484574e-01 1.419226e-01 1.192973e-01 1.195308e-01 1.027756e-01 1.034995e-01 1.032572e-01 1.066874e-01 1.033331e-01 1.044927e-01 9.365171e-02 8.823150e-02 7.042953e-02 6.151030e-02 4.214383e-02 3.656594e-02 2.242440e-02 2.268605e-02 1.217559e-02 1.294897e-02 1.928545e-04 -2.878366e-03 -1.797377e-02 -2.404870e-02 -3.912694e-02 -4.469701e-02 -5.472832e-02 -5.625668e-02 -5.847221e-02 -5.601533e-02 -5.375283e-02 -5.232018e-02 -5.065727e-02 -5.410059e-02 -5.409721e-02 -5.961500e-02 -5.875291e-02 -6.494041e-02 -6.505709e-02 -7.334199e-02 -7.540846e-02 -8.420316e-02 -8.677758e-02 -9.239684e-02 -9.269140e-02 -9.400556e-02 -9.492450e-02 -9.571850e-02 -1.003040e-01 -1.017840e-01 -1.096064e-01 -1.105477e-01 -1.186310e-01 -1.172549e-01 -1.239514e-01 -1.210273e-01 -1.285369e-01 -1.260732e-01 -1.332843e-01 -1.318477e-01 -1.394740e-01 -1.384521e-01 
-1.361902e-01 -1.388573e-01 -1.433085e-01 -1.468930e-01 -1.511808e-01 -1.561505e-01 -1.600406e-01 -1.669862e-01 -1.711938e-01 -1.788758e-01 -1.839284e-01 -1.919241e-01 -1.982396e-01 -2.070458e-01 -3.191554e-02 -3.070696e-02 1.354478e-01 1.439505e-01 3.063990e-01 3.165300e-01 4.818537e-01 4.858006e-01 4.679520e-01 4.703306e-01 4.542597e-01 4.556280e-01 4.431293e-01 4.447426e-01 4.363332e-01 4.380527e-01 4.318075e-01 4.315301e-01 4.245236e-01 4.206534e-01 4.114068e-01 4.044286e-01 3.936502e-01 3.861991e-01 3.763444e-01 3.710562e-01 3.631015e-01 3.602636e-01 3.532374e-01 3.511328e-01 3.427336e-01 3.395831e-01 3.292703e-01 3.254897e-01 3.146030e-01 3.112987e-01 3.000816e-01 2.957453e-01 2.821912e-01 2.752831e-01 2.594394e-01 2.519461e-01 2.370488e-01 2.340922e-01 2.246492e-01 2.192389e-01 2.146111e-01 2.084412e-01 2.046843e-01 1.981648e-01 1.892162e-01 1.826011e-01 1.670550e-01 1.611993e-01 1.430135e-01 1.382551e-01 1.229238e-01 1.198294e-01 1.114701e-01 1.113187e-01 1.030896e-01 1.022787e-01 9.037051e-02 8.622771e-02 7.036850e-02 6.471927e-02 4.849626e-02 4.516940e-02 3.187804e-02 3.156424e-02 2.018019e-02 1.979069e-02 7.566530e-03 4.711405e-03 -8.524041e-03 -1.348843e-02 -2.574153e-02 -3.078865e-02 -3.927391e-02 -4.246090e-02 -4.538615e-02 -4.651657e-02 -4.539947e-02 -4.731611e-02 -4.538323e-02 -5.025399e-02 -4.863703e-02 -5.554860e-02 -5.348207e-02 -6.113721e-02 -5.928649e-02 -6.784764e-02 -6.727970e-02 -7.602407e-02 -7.622051e-02 -8.278198e-02 -8.251160e-02 -8.607394e-02 -8.678911e-02 -8.923703e-02 -9.278126e-02 -9.519801e-02 -1.011520e-01 -1.027099e-01 -1.089781e-01 -1.090053e-01 -1.144393e-01 -1.140134e-01 -1.191058e-01 -1.196864e-01 -1.240590e-01 -1.254299e-01 -1.297623e-01 -1.317626e-01 
-1.486333e-01 -1.486372e-01 -1.562903e-01 -1.572396e-01 -1.644148e-01 -1.668284e-01 -1.733143e-01 -1.775299e-01 -1.845300e-01 -1.892184e-01 -1.975354e-01 -2.026114e-01 -2.125120e-01 -2.189866e-01 -4.410599e-02 -4.126763e-02 1.252433e-01 1.348358e-01 2.976576e-01 3.071942e-01 4.738182e-01 4.745878e-01 4.593120e-01 4.595668e-01 4.468202e-01 4.465588e-01 4.366341e-01 4.358763e-01 4.285074e-01 4.268647e-01 4.209179e-01 4.175160e-01 4.115814e-01 4.060317e-01 3.995087e-01 3.924299e-01 3.856074e-01 3.783297e-01 3.719511e-01 3.655228e-01 3.596455e-01 3.541795e-01 3.482844e-01 3.432201e-01 3.363433e-01 3.308150e-01 3.223875e-01 3.162348e-01 3.065462e-01 3.000572e-01 2.894988e-01 2.826674e-01 2.713543e-01 2.641679e-01 2.526374e-01 2.455981e-01 2.348112e-01 2.282237e-01 2.190609e-01 2.116209e-01 2.034315e-01 1.952216e-01 1.863328e-01 1.779632e-01 1.669378e-01 1.590370e-01 1.458618e-01 1.394151e-01 1.254124e-01 1.207007e-01 1.078635e-01 1.042663e-01 9.348546e-02 9.066889e-02 7.991124e-02 7.727997e-02 6.562921e-02 6.289988e-02 5.033471e-02 4.771512e-02 3.472500e-02 3.257786e-02 1.973164e-02 1.797172e-02 5.313372e-03 3.383125e-03 -9.084606e-03 -1.148407e-02 -2.325581e-02 -2.609442e-02 -3.652975e-02 -3.951400e-02 -4.773176e-02 -5.040177e-02 -5.577884e-02 -5.811935e-02 -6.100515e-02 -6.365918e-02 -6.490166e-02 -6.838990e-02 -6.857284e-02 -7.270787e-02 -7.214169e-02 -7.667428e-02 -7.610872e-02 -8.113994e-02 -8.142753e-02 -8.668246e-02 -8.798775e-02 -9.241852e-02 -9.426807e-02 -9.705305e-02 -9.961748e-02 -1.009585e-01 -1.047927e-01 -1.051598e-01 -1.104224e-01 -1.100248e-01 -1.163073e-01 -1.152739e-01 -1.222334e-01 -1.209099e-01 -1.284238e-01 -1.270777e-01 -1.347077e-01 -1.336845e-01 -1.414297e-01 -1.408363e-01 
-1.373621e-01 -1.400437e-01 -1.447478e-01 -1.482674e-01 -1.528526e-01 -1.576369e-01 -1.618757e-01 -1.684113e-01 -1.729894e-01 -1.799275e-01 -1.854837e-01 -1.924403e-01 -1.995215e-01 -2.071296e-01 -3.311047e-02 -3.125157e-02 1.333899e-01 1.417670e-01 3.016574e-01 3.109214e-01 4.723516e-01 4.760462e-01 4.581625e-01 4.606211e-01 4.451804e-01 4.470760e-01 4.353592e-01 4.375848e-01 4.294155e-01 4.307829e-01 4.236491e-01 4.222080e-01 4.140032e-01 4.094645e-01 4.002646e-01 3.943578e-01 3.853039e-01 3.798376e-01 3.716530e-01 3.674516e-01 3.599086e-01 3.569779e-01 3.496073e-01 3.474197e-01 3.390787e-01 3.360008e-01 3.251184e-01 3.202341e-01 3.071027e-01 3.011222e-01 2.871270e-01 2.813776e-01 2.681637e-01 2.636317e-01 2.521171e-01 2.489835e-01 2.391972e-01 2.363840e-01 2.271928e-01 2.226386e-01 2.132408e-01 2.071628e-01 1.970080e-01 1.897153e-01 1.776877e-01 1.698944e-01 1.565748e-01 1.497426e-01 1.365551e-01 1.310212e-01 1.182675e-01 1.132748e-01 1.005427e-01 9.564943e-02 8.243055e-02 7.852694e-02 6.609614e-02 6.447271e-02 5.334326e-02 5.349039e-02 4.244124e-02 4.235705e-02 2.985541e-02 2.811545e-02 1.415113e-02 1.126156e-02 -2.045854e-03 -4.436964e-03 -1.552857e-02 -1.776760e-02 -2.718996e-02 -3.056871e-02 -3.847267e-02 -4.281661e-02 -4.818166e-02 -5.292206e-02 -5.545624e-02 -6.056345e-02 -6.053650e-02 -6.604803e-02 -6.399122e-02 -6.971509e-02 -6.598686e-02 -7.141554e-02 -6.708528e-02 -7.305397e-02 -7.043585e-02 -7.772873e-02 -7.761699e-02 -8.463431e-02 -8.557150e-02 -9.029140e-02 -9.173528e-02 -9.399953e-02 -9.652314e-02 -9.723572e-02 -1.012827e-01 -1.011360e-01 -1.062969e-01 -1.060443e-01 -1.119556e-01 -1.123996e-01 -1.182601e-01 -1.193773e-01 -1.242695e-01 -1.259083e-01 -1.305735e-01 -1.326818e-01 
-1.490574e-01 -1.484000e-01 -1.569776e-01 -1.568893e-01 -1.648045e-01 -1.664008e-01 -1.707722e-01 -1.771643e-01 -1.827685e-01 -1.867128e-01 -1.950773e-01 -1.968483e-01 -2.079755e-01 -2.087716e-01 -4.609995e-02 -3.693231e-02 1.188588e-01 1.418763e-01 2.873741e-01 3.130801e-01 4.605597e-01 4.619406e-01 4.465561e-01 4.462467e-01 4.326117e-01 4.319564e-01 4.230944e-01 4.239539e-01 4.194222e-01 4.192612e-01 4.153775e-01 4.118152e-01 4.061724e-01 3.988993e-01 3.921856e-01 3.840937e-01 3.781045e-01 3.708100e-01 3.656393e-01 3.595417e-01 3.546785e-01 3.497676e-01 3.450948e-01 3.415721e-01 3.362214e-01 3.314721e-01 3.221516e-01 3.143938e-01 3.017695e-01 2.925014e-01 2.788567e-01 2.705640e-01 2.586955e-01 2.526842e-01 2.432126e-01 2.393612e-01 2.319576e-01 2.282547e-01 2.199531e-01 2.137334e-01 2.037144e-01 1.959621e-01 1.849118e-01 1.759441e-01 1.631989e-01 1.533996e-01 1.398902e-01 1.312521e-01 1.187140e-01 1.119160e-01 9.982908e-02 9.371471e-02 8.053142e-02 7.381533e-02 5.932204e-02 5.402985e-02 4.165495e-02 4.078325e-02 3.149866e-02 3.372683e-02 2.483978e-02 2.646368e-02 1.473862e-02 1.318679e-02 -1.629591e-03 -5.068869e-03 -1.926926e-02 -2.111798e-02 -3.212775e-02 -3.290382e-02 -4.222087e-02 -4.445818e-02 -5.335528e-02 -5.722733e-02 -6.436924e-02 -6.893392e-02 -7.357699e-02 -7.823400e-02 -8.004783e-02 -8.432960e-02 -8.345869e-02 -8.720655e-02 -8.393899e-02 -8.641096e-02 -8.175423e-02 -8.463014e-02 -8.248086e-02 -8.838690e-02 -9.031688e-02 -9.684570e-02 -9.956782e-02 -1.030167e-01 -1.050063e-01 -1.050143e-01 -1.074621e-01 -1.058786e-01 -1.102149e-01 -1.079620e-01 -1.138173e-01 -1.117416e-01 -1.194641e-01 -1.186807e-01 -1.279846e-01 -1.264512e-01 -1.344968e-01 -1.334391e-01 -1.415314e-01 -1.406679e-01 
-1.361676e-01 -1.378065e-01 -1.434035e-01 -1.451802e-01 -1.510620e-01 -1.537338e-01 -1.554457e-01 -1.669360e-01 -1.693478e-01 -1.771398e-01 -1.811314e-01 -1.845076e-01 -1.901045e-01 -1.894521e-01 -3.466337e-02 -2.035905e-02 1.242641e-01 1.550394e-01 2.872086e-01 3.214319e-01 4.544735e-01 4.630071e-01 4.432020e-01 4.431896e-01 4.233640e-01 4.222843e-01 4.120673e-01 4.196723e-01 4.217913e-01 4.306100e-01 4.310121e-01 4.295630e-01 4.198543e-01 4.077307e-01 3.940121e-01 3.819437e-01 3.717196e-01 3.649405e-01 3.593353e-01 3.561989e-01 3.509421e-01 3.500302e-01 3.468855e-01 3.511494e-01 3.491497e-01 3.498096e-01 3.371879e-01 3.283587e-01 3.074418e-01 2.934764e-01 2.701234e-01 2.590163e-01 2.424721e-01 2.395919e-01 2.322891e-01 2.378274e-01 2.376792e-01 2.432487e-01 2.375256e-01 2.329579e-01 2.209917e-01 2.137689e-01 2.016807e-01 1.907570e-01 1.733254e-01 1.585109e-01 1.417166e-01 1.325611e-01 1.231683e-01 1.198872e-01 1.113660e-01 1.062366e-01 9.116479e-02 7.796977e-02 5.465903e-02 4.250218e-02 2.749489e-02 3.043145e-02 2.891552e-02 4.286786e-02 4.312218e-02 5.197893e-02 4.030551e-02 3.511540e-02 1.009090e-02 -1.889305e-03 -2.251544e-02 -2.305557e-02 -2.981736e-02 -2.416341e-02 -3.015252e-02 -3.256165e-02 -4.396643e-02 -5.174306e-02 -6.071520e-02 -6.918672e-02 -7.429147e-02 -8.244232e-02 -8.219255e-02 -8.911481e-02 -8.518079e-02 -9.174809e-02 -8.207885e-02 -8.194209e-02 -6.587433e-02 -6.611566e-02 -5.826921e-02 -7.051099e-02 -7.592067e-02 -9.148134e-02 -9.579561e-02 -1.023042e-01 -1.021864e-01 -1.006493e-01 -1.003824e-01 -9.661897e-02 -1.004046e-01 -9.553683e-02 -1.010591e-01 -9.731790e-02 -1.069393e-01 -1.083774e-01 -1.187906e-01 -1.211207e-01 -1.234547e-01 -1.255154e-01 -1.294954e-01 -1.312563e-01 
-1.482137e-01 -1.454461e-01 -1.584417e-01 -1.529430e-01 -1.733735e-01 -1.620987e-01 -1.428344e-01 -1.809819e-01 -1.782109e-01 -1.799720e-01 -1.882881e-01 -1.822195e-01 -1.970836e-01 -1.598395e-01 -6.252980e-02 -6.216770e-02 9.235054e-02 1.711944e-01 2.481192e-01 3.938075e-01 4.079120e-01 4.387723e-01 4.174558e-01 4.124670e-01 3.878945e-01 3.815113e-01 3.761262e-01 3.874795e-01 3.969098e-01 4.049493e-01 4.103380e-01 4.083421e-01 4.017135e-01 3.843652e-01 3.724272e-01 3.593943e-01 3.548526e-01 3.463244e-01 3.434974e-01 3.375875e-01 3.343140e-01 3.293005e-01 3.286613e-01 3.351186e-01 3.423561e-01 3.443142e-01 3.321993e-01 3.179356e-01 2.954235e-01 2.757772e-01 2.508987e-01 2.377723e-01 2.242502e-01 2.197486e-01 2.126632e-01 2.173023e-01 2.218406e-01 2.289135e-01 2.240232e-01 2.163051e-01 2.028261e-01 1.944144e-01 1.831225e-01 1.729564e-01 1.567400e-01 1.399433e-01 1.206574e-01 1.072490e-01 9.638293e-02 9.016644e-02 8.319822e-02 7.871581e-02 6.402726e-02 4.787109e-02 1.989774e-02 3.207750e-03 -1.248297e-02 -7.451735e-03 -5.807315e-03 1.136600e-02 1.599770e-02 2.913825e-02 1.967599e-02 1.508699e-02 -1.168739e-02 -2.608582e-02 -4.942878e-02 -4.975866e-02 -5.671579e-02 -4.866469e-02 -5.292341e-02 -5.292939e-02 -6.585432e-02 -7.304850e-02 -8.426497e-02 -9.243673e-02 -9.974767e-02 -1.073303e-01 -1.098503e-01 -1.149975e-01 -1.120241e-01 -1.165254e-01 -1.074763e-01 -1.024544e-01 -8.209091e-02 -7.405838e-02 -6.458741e-02 -7.837595e-02 -9.119644e-02 -1.114656e-01 -1.201014e-01 -1.254469e-01 -1.222268e-01 -1.146233e-01 -1.099932e-01 -1.036565e-01 -1.074213e-01 -1.012689e-01 -1.046979e-01 -9.843329e-02 -1.058872e-01 -1.139902e-01 -1.353135e-01 -1.279092e-01 -1.329339e-01 -1.327087e-01 -1.400450e-01 -1.387868e-01 
-1.333358e-01 -1.330141e-01 -1.414530e-01 -1.391018e-01 -1.535964e-01 -1.463438e-01 -9.611054e-02 -1.575591e-01 -1.329652e-01 -1.419363e-01 -1.364201e-01 -1.435394e-01 -1.474931e-01 -1.206921e-01 -9.580189e-02 -6.859926e-02 -3.410644e-02 1.965544e-02 2.409892e-02 9.724563e-02 8.289118e-02 1.168349e-01 1.029277e-01 1.048904e-01 8.610336e-02 9.026567e-02 8.212326e-02 9.352503e-02 8.053360e-02 8.145913e-02 6.902089e-02 7.904792e-02 7.600248e-02 8.681970e-02 8.716173e-02 1.033139e-01 1.076850e-01 1.148307e-01 1.092217e-01 1.089833e-01 1.016012e-01 9.590062e-02 8.730180e-02 8.657038e-02 8.769183e-02 8.761907e-02 8.231097e-02 7.799562e-02 7.520210e-02 7.441831e-02 7.334743e-02 7.584515e-02 7.545082e-02 7.016843e-02 5.518170e-02 4.247623e-02 2.784736e-02 1.940332e-02 3.932675e-03 -2.250989e-03 -1.564510e-02 -1.642196e-02 -2.627365e-02 -2.045452e-02 -2.463579e-02 -2.087009e-02 -3.383269e-02 -4.193419e-02 -6.220370e-02 -7.489103e-02 -9.063821e-02 -9.449461e-02 -1.048873e-01 -1.054624e-01 -1.149248e-01 -1.176767e-01 -1.271800e-01 -1.320466e-01 -1.468627e-01 -1.594067e-01 -1.720775e-01 -1.760894e-01 -1.788359e-01 -1.742608e-01 -1.691824e-01 -1.631293e-01 -1.639052e-01 -1.659295e-01 -1.755503e-01 -1.800038e-01 -1.843073e-01 -1.795222e-01 -1.811243e-01 -1.741198e-01 -1.773691e-01 -1.706898e-01 -1.752614e-01 -1.685984e-01 -1.767036e-01 -1.690573e-01 -1.742796e-01 -1.661189e-01 -1.735954e-01 -1.680486e-01 -1.718559e-01 -1.616674e-01 -1.611550e-01 -1.581691e-01 -1.597388e-01 -1.605654e-01 -1.568852e-01 -1.564835e-01 -1.420452e-01 -1.402665e-01 -1.225982e-01 -1.291730e-01 -1.157439e-01 -1.265380e-01 -1.100515e-01 -1.182877e-01 -1.012107e-01 -1.194634e-01 -1.288956e-01 -1.147561e-01 -1.210882e-01 -1.211851e-01 -1.268333e-01 -1.272141e-01 
-1.411506e-01 -1.415982e-01 -1.445458e-01 -1.462437e-01 -1.464435e-01 -1.506561e-01 -1.189034e-01 -1.502353e-01 -1.296019e-01 -1.384886e-01 -1.303186e-01 -1.382736e-01 -1.383468e-01 -1.338395e-01 -1.251001e-01 -1.190545e-01 -1.076030e-01 -9.423851e-02 -9.284815e-02 -7.282853e-02 -7.806247e-02 -6.673217e-02 -6.936842e-02 -6.173094e-02 -6.581372e-02 -5.629671e-02 -6.402866e-02 -6.143243e-02 -8.356193e-02 -8.842688e-02 -1.065583e-01 -9.645017e-02 -9.665744e-02 -7.480552e-02 -6.705577e-02 -4.371956e-02 -3.702080e-02 -2.567324e-02 -2.910401e-02 -2.752743e-02 -3.272217e-02 -3.785177e-02 -4.627639e-02 -5.592356e-02 -6.159403e-02 -6.810580e-02 -6.623414e-02 -6.558544e-02 -5.478401e-02 -4.747872e-02 -3.394180e-02 -2.828606e-02 -2.273739e-02 -2.997098e-02 -4.265507e-02 -6.291604e-02 -8.479311e-02 -1.031933e-01 -1.210033e-01 -1.269773e-01 -1.387144e-01 -1.392699e-01 -1.503203e-01 -1.435483e-01 -1.459931e-01 -1.360691e-01 -1.438347e-01 -1.473880e-01 -1.672106e-01 -1.803177e-01 -1.990808e-01 -2.051311e-01 -2.140858e-01 -2.079208e-01 -2.057416e-01 -1.998223e-01 -2.049060e-01 -2.149181e-01 -2.355235e-01 -2.599645e-01 -2.798977e-01 -2.934198e-01 -2.941592e-01 -2.871266e-01 -2.684885e-01 -2.527218e-01 -2.416502e-01 -2.423267e-01 -2.505700e-01 -2.583627e-01 -2.637128e-01 -2.566489e-01 -2.537081e-01 -2.390093e-01 -2.393746e-01 -2.239530e-01 -2.287090e-01 -2.131199e-01 -2.241637e-01 -2.085726e-01 -2.201400e-01 -2.038194e-01 -2.206236e-01 -2.131935e-01 -2.337487e-01 -2.249309e-01 -2.330086e-01 -2.163407e-01 -2.095166e-01 -1.930599e-01 -1.831616e-01 -1.771481e-01 -1.643280e-01 -1.669276e-01 -1.509557e-01 -1.608003e-01 -1.424972e-01 -1.567532e-01 -1.371272e-01 -1.496446e-01 -1.290965e-01 -1.395650e-01 -1.355465e-01 -1.266500e-01 -1.334828e-01 -1.317878e-01 -1.372275e-01 -1.367560e-01 
-1.258095e-01 -1.292361e-01 -1.266077e-01 -1.320915e-01 -1.242884e-01 -1.337658e-01 -1.153177e-01 -1.307083e-01 -1.146654e-01 -1.229756e-01 -1.138994e-01 -1.158180e-01 -1.138203e-01 -1.066704e-01 -1.099657e-01 -9.550881e-02 -1.033407e-01 -8.555589e-02 -9.646946e-02 -7.776921e-02 -8.932595e-02 -7.105831e-02 -8.013607e-02 -6.289722e-02 -7.113428e-02 -5.569693e-02 -6.725738e-02 -5.815119e-02 -7.640624e-02 -7.095719e-02 -8.696000e-02 -7.579721e-02 -8.268480e-02 -6.525626e-02 -6.619857e-02 -4.828052e-02 -4.846289e-02 -3.609448e-02 -3.952479e-02 -3.351557e-02 -3.854385e-02 -3.790629e-02 -4.461478e-02 -4.811242e-02 -5.395312e-02 -5.667063e-02 -5.760020e-02 -5.693108e-02 -5.399732e-02 -5.143351e-02 -4.793978e-02 -4.681093e-02 -4.736432e-02 -5.095294e-02 -5.856123e-02 -6.694487e-02 -8.022956e-02 -8.875402e-02 -1.029785e-01 -1.067059e-01 -1.211173e-01 -1.227369e-01 -1.373712e-01 -1.353795e-01 -1.450826e-01 -1.406327e-01 -1.496335e-01 -1.504195e-01 -1.633701e-01 -1.698408e-01 -1.841246e-01 -1.901820e-01 -2.025127e-01 -2.042429e-01 -2.112014e-01 -2.118619e-01 -2.193066e-01 -2.249410e-01 -2.358360e-01 -2.461551e-01 -2.558168e-01 -2.627447e-01 -2.648081e-01 -2.637921e-01 -2.576339e-01 -2.519302e-01 -2.473636e-01 -2.461346e-01 -2.481554e-01 -2.479671e-01 -2.493725e-01 -2.424390e-01 -2.415671e-01 -2.309844e-01 -2.334063e-01 -2.225742e-01 -2.285951e-01 -2.169399e-01 -2.254923e-01 -2.124993e-01 -2.209359e-01 -2.069492e-01 -2.166985e-01 -2.065816e-01 -2.169696e-01 -2.074781e-01 -2.105804e-01 -1.982655e-01 -1.922234e-01 -1.821421e-01 -1.729732e-01 -1.703819e-01 -1.582986e-01 -1.616935e-01 -1.457702e-01 -1.529637e-01 -1.341968e-01 -1.444011e-01 -1.262041e-01 -1.368886e-01 -1.212075e-01 -1.290252e-01 -1.211764e-01 -1.219356e-01 -1.218151e-01 -1.232622e-01 -1.237854e-01 -1.260398e-01 
