# vtk DataFile Version 2.0
Comment goes here
ASCII

DATASET STRUCTURED_POINTS
FIELD FieldData 1
TIME 1 1 double
0.21000000
DIMENSIONS    128   16   1

ORIGIN    0.000   0.000   0.000
SPACING   0.0078125 0.015625   1.000

POINT_DATA   2048
SCALARS P double
LOOKUP_TABLE default

-8.522069e-01 -8.341769e-01 -8.540807e-01 -8.405394e-01 -8.542320e-01 -8.475456e-01 -8.532110e-01 -8.618230e-01 -8.503629e-01 -8.696453e-01 -8.448146e-01 -8.687802e-01 -8.315062e-01 -8.520456e-01 -7.979927e-01 -8.114126e-01 -7.553646e-01 -7.647465e-01 -7.103295e-01 -7.208739e-01 -6.720911e-01 -6.867983e-01 -6.592703e-01 -6.772372e-01 -6.614215e-01 -6.781004e-01 -6.692010e-01 -6.824304e-01 -6.779232e-01 -6.873894e-01 -6.875395e-01 -6.949545e-01 -7.007057e-01 -7.074796e-01 -7.189476e-01 -7.250528e-01 -7.399157e-01 -7.431073e-01 -7.584090e-01 -7.583579e-01 -7.743351e-01 -7.732659e-01 -7.909981e-01 -7.900908e-01 -8.088770e-01 -8.083277e-01 -8.284811e-01 -8.297388e-01 -8.514604e-01 -8.536955e-01 -8.745698e-01 -8.750733e-01 -8.922952e-01 -8.888098e-01 -9.012715e-01 -8.941082e-01 -9.043786e-01 -8.981602e-01 -9.086642e-01 -9.058769e-01 -9.220044e-01 -9.227159e-01 -9.362987e-01 -9.289750e-01 -9.356797e-01 -9.250578e-01 -9.206610e-01 -9.003710e-01 -9.009566e-01 -8.844288e-01 -8.911825e-01 -8.818654e-01 -8.891916e-01 -8.829153e-01 -8.928482e-01 -8.827105e-01 -8.902708e-01 -8.748700e-01 -8.819474e-01 -8.643825e-01 -8.738181e-01 -8.558182e-01 -8.682315e-01 -8.493560e-01 -8.638456e-01 -8.436399e-01 -8.593342e-01 -8.378205e-01 -8.542766e-01 -8.325244e-01 -8.504089e-01 -8.309249e-01 -8.511584e-01 -8.354302e-01 -8.567472e-01 -8.435201e-01 -8.619737e-01 -8.478810e-01 -8.593162e-01 -8.430773e-01 -8.479885e-01 -8.327640e-01 -8.351466e-01 -8.240684e-01 -8.267205e-01 -8.210962e-01 -8.263906e-01 -8.254560e-01 -8.334078e-01 -8.325171e-01 -8.403686e-01 -8.332425e-01 -8.401576e-01 -8.249602e-01 -8.350578e-01 -8.137809e-01 -8.327266e-01 -8.076309e-01 -8.376130e-01 -8.076600e-01 -8.455283e-01 -8.099411e-01 -8.510383e-01 -8.168457e-01 -8.501413e-01 -8.217548e-01 -8.503194e-01 -8.276375e-01 
-7.037271e-01 -6.908495e-01 -7.026059e-01 -6.924941e-01 -6.997614e-01 -6.933025e-01 -6.948982e-01 -7.073316e-01 -6.927942e-01 -7.152565e-01 -6.926186e-01 -7.178478e-01 -6.949133e-01 -7.157035e-01 -6.992595e-01 -7.176203e-01 -7.056916e-01 -7.193743e-01 -7.126758e-01 -7.207915e-01 -7.193244e-01 -7.213402e-01 -7.213052e-01 -7.225589e-01 -7.245668e-01 -7.244445e-01 -7.299039e-01 -7.277401e-01 -7.342400e-01 -7.273938e-01 -7.356293e-01 -7.274815e-01 -7.416413e-01 -7.368135e-01 -7.600954e-01 -7.592698e-01 -7.875883e-01 -7.842057e-01 -8.087359e-01 -7.971833e-01 -8.165392e-01 -8.023530e-01 -8.246243e-01 -8.148751e-01 -8.399663e-01 -8.305505e-01 -8.537628e-01 -8.443323e-01 -8.687001e-01 -8.632758e-01 -8.901592e-01 -8.868307e-01 -9.109133e-01 -9.025396e-01 -9.178532e-01 -9.005674e-01 -9.074157e-01 -8.866687e-01 -8.914856e-01 -8.790222e-01 -8.980983e-01 -8.988260e-01 -9.285212e-01 -9.283879e-01 -9.449523e-01 -9.294586e-01 -9.204822e-01 -8.859005e-01 -8.773275e-01 -8.487170e-01 -8.564133e-01 -8.496274e-01 -8.655064e-01 -8.642274e-01 -8.779017e-01 -8.636160e-01 -8.647023e-01 -8.388292e-01 -8.384162e-01 -8.144453e-01 -8.206270e-01 -8.000282e-01 -8.107513e-01 -7.913087e-01 -8.064329e-01 -7.890220e-01 -8.061216e-01 -7.855633e-01 -7.981292e-01 -7.723393e-01 -7.826665e-01 -7.591377e-01 -7.733036e-01 -7.569522e-01 -7.750754e-01 -7.642751e-01 -7.808476e-01 -7.693265e-01 -7.761700e-01 -7.595856e-01 -7.569286e-01 -7.414610e-01 -7.380797e-01 -7.299377e-01 -7.279000e-01 -7.262013e-01 -7.268264e-01 -7.317232e-01 -7.364419e-01 -7.419628e-01 -7.428623e-01 -7.368181e-01 -7.314362e-01 -7.154350e-01 -7.132340e-01 -6.930109e-01 -7.021696e-01 -6.810907e-01 -7.045316e-01 -6.801466e-01 -7.126477e-01 -6.803855e-01 -7.159242e-01 -6.841084e-01 -7.082942e-01 -6.858944e-01 -7.048918e-01 -6.883365e-01 
-8.497458e-01 -8.321760e-01 -8.553482e-01 -8.369721e-01 -8.543447e-01 -8.309560e-01 -8.550619e-01 -8.744620e-01 -8.576134e-01 -8.898189e-01 -8.644794e-01 -9.065774e-01 -8.798008e-01 -9.073296e-01 -8.235099e-01 -8.298392e-01 -7.664507e-01 -7.646531e-01 -7.028855e-01 -7.066016e-01 -6.277173e-01 -6.441159e-01 -6.329531e-01 -6.557759e-01 -6.434017e-01 -6.605910e-01 -6.558351e-01 -6.705274e-01 -6.637704e-01 -6.664918e-01 -6.609704e-01 -6.624233e-01 -6.657647e-01 -6.736975e-01 -6.954599e-01 -7.152024e-01 -7.470314e-01 -7.612405e-01 -7.823957e-01 -7.775176e-01 -7.848842e-01 -7.743064e-01 -7.901760e-01 -7.910265e-01 -8.129152e-01 -8.114506e-01 -8.269832e-01 -8.226337e-01 -8.413637e-01 -8.461275e-01 -8.738107e-01 -8.854445e-01 -9.117785e-01 -9.139319e-01 -9.228876e-01 -9.038337e-01 -9.080834e-01 -8.896531e-01 -8.695059e-01 -8.558138e-01 -8.974305e-01 -9.432588e-01 -9.785585e-01 -9.561880e-01 -9.852605e-01 -1.003898e+00 -9.325986e-01 -8.536195e-01 -8.504836e-01 -8.196958e-01 -8.555452e-01 -8.669346e-01 -8.701781e-01 -8.953272e-01 -9.262795e-01 -9.190671e-01 -9.151048e-01 -8.814652e-01 -8.733215e-01 -8.456008e-01 -8.503567e-01 -8.316024e-01 -8.462104e-01 -8.309944e-01 -8.541457e-01 -8.433835e-01 -8.695681e-01 -8.516809e-01 -8.670035e-01 -8.353026e-01 -8.442514e-01 -8.145217e-01 -8.312994e-01 -8.141890e-01 -8.410720e-01 -8.342925e-01 -8.630966e-01 -8.548575e-01 -8.676708e-01 -8.457244e-01 -8.418061e-01 -8.202697e-01 -8.194047e-01 -8.097064e-01 -8.122119e-01 -8.121930e-01 -8.204085e-01 -8.321281e-01 -8.496249e-01 -8.641342e-01 -8.719363e-01 -8.612623e-01 -8.507194e-01 -8.244817e-01 -8.194022e-01 -7.913535e-01 -8.041292e-01 -7.799023e-01 -8.161917e-01 -7.886314e-01 -8.371920e-01 -7.886909e-01 -8.536471e-01 -8.132378e-01 -8.423061e-01 -8.153893e-01 -8.434433e-01 -8.234006e-01 
-7.003236e-01 -6.913987e-01 -7.068777e-01 -6.933561e-01 -7.055641e-01 -6.814658e-01 -7.371498e-01 -7.733841e-01 -7.563026e-01 -7.899220e-01 -7.768084e-01 -8.134722e-01 -8.006736e-01 -7.667121e-01 -5.717711e-01 -4.663001e-01 -3.281130e-01 -2.040108e-01 -6.123229e-02 3.660954e-02 2.403331e-01 2.834201e-01 2.684924e-01 2.683974e-01 2.556730e-01 2.592822e-01 2.341132e-01 2.328910e-01 2.125884e-01 2.195962e-01 1.923838e-01 1.911512e-01 1.612525e-01 1.607631e-01 1.214600e-01 1.098652e-01 6.716349e-02 6.187844e-02 2.736727e-02 3.053029e-02 3.607103e-03 7.274123e-03 -2.495979e-02 -2.478361e-02 -5.165605e-02 -4.422782e-02 -6.652209e-02 -6.147565e-02 -9.043537e-02 -9.453539e-02 -1.303421e-01 -1.406131e-01 -1.797681e-01 -1.880220e-01 -2.173949e-01 -2.142245e-01 -2.775506e-01 -3.071901e-01 -2.998808e-01 -3.274369e-01 -4.291171e-01 -5.315457e-01 -5.429789e-01 -3.964239e-01 -4.261446e-01 -5.199930e-01 -3.791164e-01 -2.675386e-01 -3.663469e-01 -3.335244e-01 -4.559347e-01 -4.513258e-01 -3.413763e-01 -3.357414e-01 -3.571186e-01 -3.494869e-01 -3.623194e-01 -3.489859e-01 -3.636678e-01 -3.506479e-01 -3.659828e-01 -3.604898e-01 -3.882140e-01 -3.882965e-01 -4.170724e-01 -4.116989e-01 -4.352057e-01 -4.282866e-01 -4.520794e-01 -4.422012e-01 -4.618255e-01 -4.483024e-01 -4.629650e-01 -4.486337e-01 -4.625826e-01 -4.526643e-01 -4.722094e-01 -4.693942e-01 -4.862926e-01 -4.794391e-01 -4.896038e-01 -4.859748e-01 -4.984757e-01 -4.961388e-01 -5.072318e-01 -5.128737e-01 -5.309862e-01 -5.439529e-01 -5.675373e-01 -5.832030e-01 -6.016941e-01 -5.971422e-01 -5.997998e-01 -5.881302e-01 -6.002041e-01 -5.893810e-01 -6.092586e-01 -5.977177e-01 -6.299217e-01 -6.098411e-01 -6.469570e-01 -6.010370e-01 -6.825457e-01 -6.793930e-01 -6.853686e-01 -6.780723e-01 -6.916110e-01 -6.843367e-01 
-8.501098e-01 -8.461713e-01 -8.831667e-01 -8.771322e-01 -9.183024e-01 -9.117657e-01 -9.960048e-01 -1.012344e+00 -1.058985e+00 -1.059675e+00 -1.121784e+00 -1.113257e+00 -1.184778e+00 -1.110586e+00 -4.629978e-01 -8.595661e-02 3.502444e-01 7.748835e-01 1.241836e+00 1.556120e+00 2.266603e+00 2.295079e+00 2.250597e+00 2.241116e+00 2.199342e+00 2.189248e+00 2.140875e+00 2.123472e+00 2.075230e+00 2.052837e+00 1.994296e+00 1.960965e+00 1.908181e+00 1.885691e+00 1.844393e+00 1.825754e+00 1.792667e+00 1.775595e+00 1.736919e+00 1.705120e+00 1.655976e+00 1.618051e+00 1.573883e+00 1.548898e+00 1.519664e+00 1.501366e+00 1.468183e+00 1.442921e+00 1.404526e+00 1.380400e+00 1.344923e+00 1.323252e+00 1.281774e+00 1.251164e+00 1.198982e+00 1.156085e+00 1.061251e+00 9.857109e-01 9.430603e-01 8.686365e-01 7.810947e-01 7.100183e-01 7.035810e-01 8.220428e-01 7.940469e-01 6.930846e-01 7.213404e-01 7.248025e-01 5.758178e-01 5.720704e-01 4.537357e-01 4.684156e-01 5.834506e-01 6.239709e-01 6.201095e-01 6.175315e-01 5.712465e-01 5.383471e-01 4.806600e-01 4.556497e-01 4.124942e-01 3.908562e-01 3.438211e-01 3.209440e-01 2.831917e-01 2.747076e-01 2.470490e-01 2.317904e-01 1.879446e-01 1.580520e-01 1.103192e-01 8.890960e-02 5.881498e-02 5.708591e-02 4.239520e-02 4.984617e-02 3.075351e-02 2.692454e-02 -1.155342e-02 -3.011133e-02 -8.398472e-02 -1.064750e-01 -1.596561e-01 -1.678165e-01 -2.159618e-01 -2.212490e-01 -2.722899e-01 -2.703877e-01 -3.174198e-01 -3.132613e-01 -3.691471e-01 -3.716216e-01 -4.353216e-01 -4.465468e-01 -5.172861e-01 -5.280467e-01 -5.876782e-01 -5.881295e-01 -6.345755e-01 -6.252086e-01 -6.645704e-01 -6.511450e-01 -7.229381e-01 -7.529426e-01 -7.770165e-01 -7.855549e-01 -8.159399e-01 -8.161323e-01 
-7.057853e-01 -7.127386e-01 -7.432579e-01 -7.514321e-01 -7.866451e-01 -8.006969e-01 -8.473208e-01 -8.581102e-01 -9.043009e-01 -9.090472e-01 -9.601499e-01 -9.592572e-01 -1.012796e+00 -9.998177e-01 -2.205812e-01 -1.301948e-01 5.916456e-01 7.064743e-01 1.430329e+00 1.516879e+00 2.296088e+00 2.313908e+00 2.255499e+00 2.261834e+00 2.204802e+00 2.206393e+00 2.149297e+00 2.145836e+00 2.086607e+00 2.075320e+00 2.011828e+00 1.995081e+00 1.936134e+00 1.924530e+00 1.876449e+00 1.870092e+00 1.829012e+00 1.820538e+00 1.774029e+00 1.752746e+00 1.698026e+00 1.672156e+00 1.623367e+00 1.606432e+00 1.566126e+00 1.550656e+00 1.507046e+00 1.487513e+00 1.442966e+00 1.426304e+00 1.385558e+00 1.371647e+00 1.328178e+00 1.307655e+00 1.254550e+00 1.222958e+00 1.158711e+00 1.122253e+00 1.061255e+00 1.027179e+00 9.853747e-01 9.846161e-01 9.607860e-01 9.757681e-01 9.468021e-01 9.259897e-01 8.615160e-01 8.185757e-01 7.472651e-01 7.248255e-01 6.827383e-01 6.870849e-01 6.856653e-01 7.067407e-01 6.886231e-01 6.836064e-01 6.373932e-01 6.109379e-01 5.583716e-01 5.359657e-01 4.927510e-01 4.744305e-01 4.336163e-01 4.162268e-01 3.822748e-01 3.718123e-01 3.431034e-01 3.278276e-01 2.900039e-01 2.646869e-01 2.240587e-01 2.032199e-01 1.731571e-01 1.648452e-01 1.449474e-01 1.437736e-01 1.228451e-01 1.162812e-01 8.145089e-02 6.334321e-02 1.562951e-02 -4.359654e-03 -5.155872e-02 -6.234378e-02 -1.073783e-01 -1.134478e-01 -1.582845e-01 -1.572223e-01 -1.982114e-01 -1.944568e-01 -2.429472e-01 -2.497378e-01 -3.087986e-01 -3.230326e-01 -3.834892e-01 -3.967202e-01 -4.477780e-01 -4.542244e-01 -4.927987e-01 -4.955562e-01 -5.281156e-01 -5.381588e-01 -5.738650e-01 -5.976843e-01 -6.272463e-01 -6.408465e-01 -6.687487e-01 -6.774210e-01 
-8.551777e-01 -8.568295e-01 -9.033357e-01 -9.041506e-01 -9.550906e-01 -9.563670e-01 -1.013994e+00 -1.016452e+00 -1.074463e+00 -1.074736e+00 -1.135643e+00 -1.133184e+00 -1.196480e+00 -1.191063e+00 -3.388261e-01 -2.488816e-01 5.424660e-01 6.570981e-01 1.454793e+00 1.531088e+00 2.396821e+00 2.386232e+00 2.339160e+00 2.325877e+00 2.278840e+00 2.263548e+00 2.215634e+00 2.197688e+00 2.149046e+00 2.128271e+00 2.078807e+00 2.055633e+00 2.007805e+00 1.984851e+00 1.940102e+00 1.917176e+00 1.874616e+00 1.850349e+00 1.807436e+00 1.779835e+00 1.735856e+00 1.706594e+00 1.663916e+00 1.636026e+00 1.595643e+00 1.568637e+00 1.528160e+00 1.500552e+00 1.459218e+00 1.431527e+00 1.389436e+00 1.361283e+00 1.316818e+00 1.286369e+00 1.238341e+00 1.205118e+00 1.153954e+00 1.119951e+00 1.065272e+00 1.039311e+00 9.943285e-01 9.752853e-01 9.401392e-01 9.248481e-01 8.873339e-01 8.715413e-01 8.274826e-01 8.048833e-01 7.664025e-01 7.425340e-01 7.089453e-01 6.979069e-01 6.624663e-01 6.562916e-01 6.223142e-01 6.111997e-01 5.714605e-01 5.543281e-01 5.116849e-01 4.935138e-01 4.520152e-01 4.340957e-01 3.934174e-01 3.759947e-01 3.373489e-01 3.215713e-01 2.843802e-01 2.678493e-01 2.291475e-01 2.112718e-01 1.725408e-01 1.568605e-01 1.210287e-01 1.096039e-01 7.592282e-02 6.694617e-02 3.139273e-02 2.128954e-02 -1.967720e-02 -3.199480e-02 -7.818619e-02 -9.034254e-02 -1.388283e-01 -1.477032e-01 -1.970630e-01 -2.029759e-01 -2.534476e-01 -2.565495e-01 -3.079122e-01 -3.098892e-01 -3.639835e-01 -3.673407e-01 -4.242342e-01 -4.292766e-01 -4.870961e-01 -4.921100e-01 -5.474658e-01 -5.507869e-01 -6.024679e-01 -6.045701e-01 -6.538979e-01 -6.573061e-01 -7.067278e-01 -7.146741e-01 -7.588655e-01 -7.648783e-01 -8.077947e-01 -8.113115e-01 
-7.095988e-01 -7.206282e-01 -7.561196e-01 -7.673994e-01 -8.055650e-01 -8.177921e-01 -8.593494e-01 -8.720007e-01 -9.156946e-01 -9.291446e-01 -9.744177e-01 -9.907435e-01 -1.036297e+00 -1.059688e+00 -2.033059e-01 -1.935977e-01 6.341866e-01 6.570866e-01 1.482289e+00 1.495707e+00 2.343178e+00 2.329295e+00 2.275173e+00 2.266406e+00 2.211710e+00 2.204558e+00 2.149409e+00 2.141732e+00 2.086228e+00 2.076866e+00 2.021519e+00 2.010596e+00 1.956879e+00 1.945368e+00 1.894176e+00 1.881897e+00 1.832463e+00 1.818136e+00 1.768763e+00 1.751349e+00 1.701700e+00 1.682383e+00 1.633845e+00 1.614421e+00 1.567379e+00 1.547840e+00 1.501310e+00 1.481429e+00 1.435186e+00 1.415363e+00 1.369177e+00 1.348987e+00 1.301650e+00 1.279878e+00 1.230402e+00 1.206686e+00 1.155401e+00 1.130918e+00 1.079508e+00 1.061831e+00 1.016321e+00 1.001382e+00 9.604971e-01 9.473342e-01 9.047243e-01 8.901504e-01 8.456365e-01 8.288051e-01 7.869199e-01 7.722589e-01 7.345299e-01 7.265925e-01 6.908253e-01 6.848496e-01 6.494171e-01 6.402504e-01 6.017947e-01 5.887453e-01 5.490475e-01 5.347969e-01 4.962773e-01 4.819180e-01 4.449014e-01 4.305296e-01 3.952257e-01 3.809758e-01 3.467111e-01 3.314827e-01 2.968345e-01 2.805407e-01 2.461006e-01 2.307432e-01 1.978434e-01 1.847409e-01 1.528078e-01 1.411336e-01 1.076940e-01 9.551801e-02 5.819846e-02 4.489190e-02 3.737364e-03 -8.952677e-03 -5.193663e-02 -6.192759e-02 -1.055287e-01 -1.125124e-01 -1.564102e-01 -1.607992e-01 -2.051326e-01 -2.087612e-01 -2.549444e-01 -2.603111e-01 -3.085421e-01 -3.161068e-01 -3.644715e-01 -3.732140e-01 -4.191375e-01 -4.281607e-01 -4.703813e-01 -4.801796e-01 -5.192907e-01 -5.311663e-01 -5.682643e-01 -5.821260e-01 -6.170831e-01 -6.300598e-01 -6.638931e-01 -6.755914e-01 
-8.572191e-01 -8.603247e-01 -9.091855e-01 -9.116593e-01 -9.634197e-01 -9.659288e-01 -1.020910e+00 -1.023935e+00 -1.080796e+00 -1.084588e+00 -1.142917e+00 -1.149185e+00 -1.207983e+00 -1.221034e+00 -3.205844e-01 -2.904364e-01 5.760945e-01 6.200061e-01 1.489532e+00 1.512221e+00 2.420076e+00 2.395163e+00 2.349139e+00 2.329332e+00 2.282715e+00 2.264508e+00 2.217519e+00 2.199080e+00 2.152016e+00 2.132555e+00 2.085823e+00 2.065075e+00 2.019092e+00 1.997020e+00 1.951905e+00 1.928277e+00 1.883724e+00 1.858228e+00 1.813841e+00 1.786489e+00 1.742220e+00 1.713480e+00 1.669447e+00 1.639890e+00 1.596164e+00 1.566324e+00 1.522915e+00 1.493230e+00 1.450003e+00 1.420632e+00 1.377210e+00 1.348088e+00 1.304099e+00 1.275305e+00 1.230769e+00 1.202797e+00 1.158162e+00 1.131990e+00 1.088023e+00 1.064815e+00 1.022756e+00 1.001826e+00 9.610137e-01 9.411225e-01 9.000378e-01 8.804021e-01 8.386336e-01 8.186473e-01 7.776370e-01 7.586850e-01 7.187020e-01 7.022687e-01 6.628177e-01 6.482815e-01 6.094360e-01 5.953165e-01 5.564192e-01 5.420114e-01 5.032208e-01 4.887172e-01 4.504695e-01 4.359528e-01 3.982367e-01 3.835544e-01 3.461647e-01 3.311852e-01 2.938192e-01 2.784456e-01 2.408019e-01 2.252849e-01 1.873889e-01 1.724015e-01 1.343486e-01 1.203519e-01 8.159281e-02 6.834637e-02 2.770736e-02 1.470928e-02 -2.865861e-02 -4.118093e-02 -8.704991e-02 -9.805077e-02 -1.455217e-01 -1.539657e-01 -2.023105e-01 -2.078548e-01 -2.567851e-01 -2.598345e-01 -3.095959e-01 -3.113465e-01 -3.625416e-01 -3.643727e-01 -4.171922e-01 -4.199255e-01 -4.738005e-01 -4.774485e-01 -5.311838e-01 -5.353823e-01 -5.880719e-01 -5.928421e-01 -6.442393e-01 -6.498601e-01 -6.997609e-01 -7.061119e-01 -7.537516e-01 -7.593594e-01 -8.059219e-01 -8.102055e-01 
-7.101575e-01 -7.215818e-01 -7.573021e-01 -7.689090e-01 -8.071791e-01 -8.197189e-01 -8.612322e-01 -8.741930e-01 -9.176054e-01 -9.314600e-01 -9.761551e-01 -9.931151e-01 -1.037891e+00 -1.062418e+00 -2.040374e-01 -1.953753e-01 6.342901e-01 6.559550e-01 1.483104e+00 1.494665e+00 2.344675e+00 2.328429e+00 2.276488e+00 2.266723e+00 2.213928e+00 2.206614e+00 2.153040e+00 2.145785e+00 2.091957e+00 2.084025e+00 2.030936e+00 2.021940e+00 1.969879e+00 1.959180e+00 1.907940e+00 1.894862e+00 1.843865e+00 1.827838e+00 1.776949e+00 1.758664e+00 1.708542e+00 1.688597e+00 1.638769e+00 1.616888e+00 1.567044e+00 1.544344e+00 1.495787e+00 1.473961e+00 1.426950e+00 1.405653e+00 1.358854e+00 1.337240e+00 1.289984e+00 1.268393e+00 1.221206e+00 1.200615e+00 1.154464e+00 1.136310e+00 1.092330e+00 1.077337e+00 1.035081e+00 1.021041e+00 9.784418e-01 9.637283e-01 9.197881e-01 9.041216e-01 8.592575e-01 8.431842e-01 7.987045e-01 7.834922e-01 7.403766e-01 7.270808e-01 6.858287e-01 6.743215e-01 6.350281e-01 6.244939e-01 5.866832e-01 5.763174e-01 5.398113e-01 5.293474e-01 4.942241e-01 4.834418e-01 4.493834e-01 4.374932e-01 4.035309e-01 3.898958e-01 3.557656e-01 3.409334e-01 3.070942e-01 2.918169e-01 2.582363e-01 2.430861e-01 2.096430e-01 1.950565e-01 1.609805e-01 1.465275e-01 1.100703e-01 9.479695e-02 5.480805e-02 3.931407e-02 -3.303367e-03 -1.702533e-02 -6.064206e-02 -7.107242e-02 -1.145216e-01 -1.207698e-01 -1.631717e-01 -1.656765e-01 -2.076959e-01 -2.087151e-01 -2.517976e-01 -2.539031e-01 -2.989593e-01 -3.039357e-01 -3.505084e-01 -3.583504e-01 -4.041881e-01 -4.138109e-01 -4.573114e-01 -4.689382e-01 -5.102313e-01 -5.243015e-01 -5.633612e-01 -5.787676e-01 -6.149826e-01 -6.289054e-01 -6.634660e-01 -6.757415e-01 
-8.565996e-01 -8.589690e-01 -9.059872e-01 -9.074567e-01 -9.587692e-01 -9.606078e-01 -1.018296e+00 -1.020863e+00 -1.078228e+00 -1.078718e+00 -1.138493e+00 -1.136504e+00 -1.198470e+00 -1.195203e+00 -3.394655e-01 -2.513722e-01 5.426868e-01 6.558267e-01 1.455850e+00 1.530442e+00 2.398751e+00 2.387760e+00 2.340874e+00 2.328698e+00 2.281633e+00 2.267863e+00 2.220620e+00 2.204850e+00 2.157741e+00 2.140653e+00 2.094991e+00 2.076813e+00 2.032199e+00 2.011944e+00 1.967688e+00 1.944598e+00 1.899636e+00 1.872866e+00 1.827200e+00 1.798229e+00 1.753191e+00 1.722686e+00 1.677015e+00 1.643656e+00 1.596555e+00 1.562128e+00 1.516319e+00 1.483920e+00 1.440308e+00 1.409525e+00 1.366262e+00 1.335845e+00 1.292249e+00 1.263130e+00 1.220290e+00 1.193645e+00 1.152439e+00 1.129646e+00 1.091258e+00 1.072534e+00 1.035261e+00 1.017144e+00 9.776195e-01 9.579181e-01 9.155537e-01 8.943278e-01 8.497561e-01 8.278693e-01 7.824537e-01 7.612384e-01 7.161756e-01 6.966356e-01 6.531304e-01 6.361745e-01 5.950933e-01 5.807897e-01 5.421028e-01 5.296491e-01 4.929669e-01 4.818007e-01 4.468493e-01 4.363450e-01 4.024126e-01 3.909963e-01 3.560740e-01 3.422806e-01 3.059451e-01 2.907256e-01 2.540395e-01 2.381884e-01 2.007462e-01 1.846068e-01 1.465309e-01 1.309238e-01 9.178163e-02 7.627252e-02 3.394415e-02 1.714144e-02 -2.953878e-02 -4.644835e-02 -9.559176e-02 -1.095784e-01 -1.589472e-01 -1.683315e-01 -2.168152e-01 -2.203708e-01 -2.667795e-01 -2.649900e-01 -3.107402e-01 -3.067468e-01 -3.542804e-01 -3.512973e-01 -4.023195e-01 -4.026928e-01 -4.574043e-01 -4.611428e-01 -5.168822e-01 -5.218715e-01 -5.765607e-01 -5.828806e-01 -6.371705e-01 -6.454843e-01 -6.989397e-01 -7.096201e-01 -7.559478e-01 -7.634726e-01 -8.075615e-01 -8.120175e-01 
-7.089093e-01 -7.165900e-01 -7.475732e-01 -7.565160e-01 -7.921398e-01 -8.070840e-01 -8.539315e-01 -8.652566e-01 -9.108380e-01 -9.162602e-01 -9.652446e-01 -9.651638e-01 -1.016270e+00 -1.007623e+00 -2.226669e-01 -1.343012e-01 5.924503e-01 7.053039e-01 1.432890e+00 1.513408e+00 2.297689e+00 2.306082e+00 2.255099e+00 2.260566e+00 2.209419e+00 2.211526e+00 2.157442e+00 2.153554e+00 2.097437e+00 2.092481e+00 2.040502e+00 2.035988e+00 1.986403e+00 1.979220e+00 1.930248e+00 1.918654e+00 1.866634e+00 1.846140e+00 1.791097e+00 1.769552e+00 1.720844e+00 1.701376e+00 1.651501e+00 1.622690e+00 1.564835e+00 1.532203e+00 1.480584e+00 1.458195e+00 1.415748e+00 1.396356e+00 1.351626e+00 1.327225e+00 1.277944e+00 1.252628e+00 1.203858e+00 1.180645e+00 1.135096e+00 1.120372e+00 1.085604e+00 1.082135e+00 1.051404e+00 1.044766e+00 1.004445e+00 9.892991e-01 9.423610e-01 9.234147e-01 8.729692e-01 8.525842e-01 8.015881e-01 7.816030e-01 7.311036e-01 7.129618e-01 6.658416e-01 6.520620e-01 6.108117e-01 6.021282e-01 5.656754e-01 5.590592e-01 5.254328e-01 5.196371e-01 4.891823e-01 4.851350e-01 4.579107e-01 4.510498e-01 4.194856e-01 4.042752e-01 3.684435e-01 3.509998e-01 3.180985e-01 3.015502e-01 2.693124e-01 2.526241e-01 2.217188e-01 2.073699e-01 1.781439e-01 1.647278e-01 1.298544e-01 1.090853e-01 6.281432e-02 3.716195e-02 -1.343511e-02 -3.426808e-02 -8.318410e-02 -9.761702e-02 -1.444321e-01 -1.481907e-01 -1.864364e-01 -1.780267e-01 -2.119496e-01 -2.000728e-01 -2.364100e-01 -2.281182e-01 -2.718272e-01 -2.742371e-01 -3.280232e-01 -3.393051e-01 -3.914687e-01 -4.007969e-01 -4.450645e-01 -4.567590e-01 -5.003543e-01 -5.210458e-01 -5.645713e-01 -5.928184e-01 -6.254609e-01 -6.409812e-01 -6.702179e-01 -6.798748e-01 
-8.546557e-01 -8.515175e-01 -8.892792e-01 -8.846716e-01 -9.272740e-01 -9.233106e-01 -1.009200e+00 -1.023226e+00 -1.067312e+00 -1.067770e+00 -1.126670e+00 -1.113498e+00 -1.181542e+00 -1.108503e+00 -4.611944e-01 -8.832786e-02 3.512286e-01 7.747862e-01 1.243882e+00 1.549242e+00 2.266012e+00 2.297156e+00 2.250357e+00 2.245989e+00 2.199010e+00 2.190060e+00 2.142872e+00 2.128006e+00 2.078161e+00 2.063000e+00 2.020967e+00 2.009062e+00 1.969191e+00 1.953854e+00 1.915009e+00 1.895803e+00 1.851571e+00 1.820362e+00 1.771130e+00 1.739676e+00 1.698190e+00 1.669905e+00 1.625144e+00 1.583156e+00 1.525588e+00 1.478266e+00 1.427509e+00 1.393084e+00 1.354148e+00 1.325803e+00 1.285326e+00 1.251620e+00 1.206025e+00 1.173919e+00 1.131179e+00 1.103072e+00 1.063061e+00 1.043893e+00 1.016783e+00 1.013554e+00 9.919395e-01 9.845992e-01 9.501514e-01 9.323491e-01 8.882036e-01 8.635690e-01 8.128954e-01 7.853015e-01 7.325000e-01 7.065937e-01 6.538219e-01 6.291169e-01 5.799958e-01 5.613234e-01 5.189182e-01 5.075819e-01 4.709889e-01 4.629090e-01 4.301258e-01 4.255732e-01 3.973187e-01 3.968771e-01 3.738561e-01 3.715238e-01 3.416229e-01 3.279070e-01 2.907673e-01 2.747794e-01 2.410034e-01 2.244743e-01 1.872743e-01 1.679377e-01 1.315055e-01 1.163295e-01 8.376841e-02 7.050976e-02 3.036743e-02 6.504940e-03 -4.844054e-02 -7.850012e-02 -1.368288e-01 -1.587749e-01 -2.123147e-01 -2.256879e-01 -2.758698e-01 -2.749015e-01 -3.125076e-01 -2.955727e-01 -3.278588e-01 -3.076240e-01 -3.447091e-01 -3.296601e-01 -3.772248e-01 -3.746148e-01 -4.366129e-01 -4.460292e-01 -5.095566e-01 -5.151407e-01 -5.701516e-01 -5.755269e-01 -6.344933e-01 -6.406873e-01 -7.236899e-01 -7.553055e-01 -7.799246e-01 -7.888908e-01 -8.195903e-01 -8.202565e-01 
-7.078664e-01 -6.988077e-01 -7.143743e-01 -7.017322e-01 -7.150038e-01 -6.930902e-01 -7.497306e-01 -7.800890e-01 -7.573818e-01 -7.888705e-01 -7.719554e-01 -8.008112e-01 -7.834279e-01 -7.476769e-01 -5.563155e-01 -4.495068e-01 -3.124725e-01 -1.840406e-01 -4.587117e-02 5.145403e-02 2.443454e-01 2.896774e-01 2.706344e-01 2.653153e-01 2.378080e-01 2.327422e-01 2.086089e-01 2.096048e-01 1.847811e-01 1.876031e-01 1.644795e-01 1.703847e-01 1.445057e-01 1.492796e-01 1.232908e-01 1.296659e-01 1.022662e-01 1.080159e-01 7.976332e-02 8.282339e-02 4.919829e-02 4.648725e-02 9.534745e-03 4.593814e-03 -3.224194e-02 -3.888999e-02 -8.026099e-02 -9.454812e-02 -1.382754e-01 -1.493884e-01 -1.851330e-01 -1.891023e-01 -2.163105e-01 -2.118906e-01 -2.309293e-01 -2.221330e-01 -2.412170e-01 -2.378685e-01 -2.616097e-01 -2.601806e-01 -2.836246e-01 -2.797761e-01 -2.978942e-01 -2.893691e-01 -3.063912e-01 -3.009856e-01 -3.199783e-01 -3.169163e-01 -3.374509e-01 -3.324933e-01 -3.524018e-01 -3.494443e-01 -3.694128e-01 -3.662485e-01 -3.870663e-01 -3.830280e-01 -4.027424e-01 -3.964008e-01 -4.129607e-01 -4.008269e-01 -4.146251e-01 -3.996661e-01 -4.111431e-01 -3.927953e-01 -4.034770e-01 -3.843431e-01 -3.965033e-01 -3.791499e-01 -3.955740e-01 -3.862452e-01 -4.125772e-01 -4.117484e-01 -4.420236e-01 -4.434366e-01 -4.727414e-01 -4.756360e-01 -5.032243e-01 -5.051232e-01 -5.266324e-01 -5.250374e-01 -5.390083e-01 -5.341612e-01 -5.418163e-01 -5.356213e-01 -5.400009e-01 -5.341941e-01 -5.384544e-01 -5.357774e-01 -5.426729e-01 -5.429544e-01 -5.537850e-01 -5.542418e-01 -5.668692e-01 -5.612687e-01 -5.755373e-01 -5.685056e-01 -5.946789e-01 -5.884019e-01 -6.253714e-01 -6.126774e-01 -6.598914e-01 -6.246995e-01 -7.091112e-01 -6.999892e-01 -7.007821e-01 -6.902228e-01 -7.013759e-01 -6.927800e-01 
-8.547319e-01 -8.368454e-01 -8.597540e-01 -8.415009e-01 -8.588452e-01 -8.357244e-01 -8.591345e-01 -8.749059e-01 -8.539338e-01 -8.843348e-01 -8.563903e-01 -8.954026e-01 -8.650235e-01 -8.921485e-01 -8.082235e-01 -8.166150e-01 -7.531951e-01 -7.529020e-01 -6.900615e-01 -6.948601e-01 -6.148600e-01 -6.326795e-01 -6.263108e-01 -6.572620e-01 -6.569761e-01 -6.817854e-01 -6.787912e-01 -6.918253e-01 -6.884924e-01 -6.978640e-01 -6.999060e-01 -7.076454e-01 -7.153439e-01 -7.210701e-01 -7.315304e-01 -7.329783e-01 -7.426978e-01 -7.361887e-01 -7.446915e-01 -7.405699e-01 -7.608381e-01 -7.645587e-01 -7.869566e-01 -7.835077e-01 -7.979380e-01 -7.925077e-01 -8.164783e-01 -8.266636e-01 -8.610381e-01 -8.715804e-01 -8.968671e-01 -8.952716e-01 -9.078189e-01 -8.974593e-01 -9.031986e-01 -8.895308e-01 -8.961801e-01 -8.921125e-01 -9.116160e-01 -9.194674e-01 -9.427665e-01 -9.445521e-01 -9.538143e-01 -9.425352e-01 -9.436801e-01 -9.293734e-01 -9.276007e-01 -9.121798e-01 -9.116047e-01 -8.955751e-01 -8.957409e-01 -8.823490e-01 -8.855831e-01 -8.755391e-01 -8.843988e-01 -8.769306e-01 -8.884420e-01 -8.788777e-01 -8.898057e-01 -8.754760e-01 -8.871124e-01 -8.716280e-01 -8.854518e-01 -8.647343e-01 -8.740500e-01 -8.443106e-01 -8.512861e-01 -8.218676e-01 -8.367911e-01 -8.149589e-01 -8.380988e-01 -8.229094e-01 -8.516601e-01 -8.423325e-01 -8.738717e-01 -8.676625e-01 -8.923872e-01 -8.775628e-01 -8.856427e-01 -8.624701e-01 -8.602276e-01 -8.387897e-01 -8.332255e-01 -8.155395e-01 -8.088452e-01 -8.006731e-01 -8.029852e-01 -8.079816e-01 -8.174162e-01 -8.262457e-01 -8.374884e-01 -8.412543e-01 -8.491507e-01 -8.370261e-01 -8.396396e-01 -8.160912e-01 -8.324653e-01 -8.106436e-01 -8.469529e-01 -8.176918e-01 -8.635589e-01 -8.127594e-01 -8.741520e-01 -8.286464e-01 -8.537151e-01 -8.242095e-01 -8.503664e-01 -8.292089e-01 
-7.069868e-01 -6.938116e-01 -7.053284e-01 -6.950458e-01 -7.021148e-01 -6.952638e-01 -6.962883e-01 -7.072598e-01 -6.912602e-01 -7.123443e-01 -6.887194e-01 -7.124014e-01 -6.885836e-01 -7.081043e-01 -6.920891e-01 -7.099455e-01 -6.992578e-01 -7.125236e-01 -7.072962e-01 -7.148201e-01 -7.150371e-01 -7.171518e-01 -7.205303e-01 -7.248297e-01 -7.314676e-01 -7.342094e-01 -7.411430e-01 -7.390434e-01 -7.465731e-01 -7.420272e-01 -7.531684e-01 -7.476420e-01 -7.627690e-01 -7.563265e-01 -7.747133e-01 -7.667118e-01 -7.860453e-01 -7.742011e-01 -7.933940e-01 -7.817080e-01 -8.055868e-01 -7.968726e-01 -8.221382e-01 -8.113082e-01 -8.340089e-01 -8.232884e-01 -8.498056e-01 -8.458252e-01 -8.762600e-01 -8.731519e-01 -8.992251e-01 -8.908202e-01 -9.096386e-01 -8.963886e-01 -9.099757e-01 -8.941115e-01 -9.059978e-01 -8.936418e-01 -9.102395e-01 -9.043388e-01 -9.236865e-01 -9.169076e-01 -9.308609e-01 -9.183695e-01 -9.259420e-01 -9.090507e-01 -9.112568e-01 -8.912719e-01 -8.926825e-01 -8.732418e-01 -8.765778e-01 -8.607538e-01 -8.668431e-01 -8.535275e-01 -8.617275e-01 -8.480737e-01 -8.560539e-01 -8.396543e-01 -8.471001e-01 -8.282796e-01 -8.367992e-01 -8.173168e-01 -8.277059e-01 -8.060302e-01 -8.154205e-01 -7.900432e-01 -7.990608e-01 -7.738942e-01 -7.864167e-01 -7.646011e-01 -7.805563e-01 -7.628082e-01 -7.817807e-01 -7.687361e-01 -7.889252e-01 -7.786368e-01 -7.940837e-01 -7.804705e-01 -7.856776e-01 -7.684637e-01 -7.661475e-01 -7.505553e-01 -7.451412e-01 -7.332793e-01 -7.269879e-01 -7.216489e-01 -7.196014e-01 -7.216525e-01 -7.233049e-01 -7.269750e-01 -7.293787e-01 -7.285214e-01 -7.298457e-01 -7.195266e-01 -7.209838e-01 -7.030700e-01 -7.139541e-01 -6.942448e-01 -7.181444e-01 -6.932797e-01 -7.244957e-01 -6.908520e-01 -7.249782e-01 -6.916757e-01 -7.145716e-01 -6.911114e-01 -7.092475e-01 -6.920783e-01 
