# vtk DataFile Version 2.0
Comment goes here
ASCII

DATASET STRUCTURED_POINTS
FIELD FieldData 1
TIME 1 1 double
0.62000000
DIMENSIONS    128   16   1

ORIGIN    0.000   0.000   0.000
SPACING   0.0078125 0.015625   1.000

POINT_DATA   2048
SCALARS uMag double
LOOKUP_TABLE default

7.153092e-03 3.280343e-03 5.955598e-03 3.463426e-04 4.292614e-03 2.697955e-03 1.036667e-02 1.715868e-03 4.721338e-03 4.960215e-03 3.713284e-03 1.410276e-02 2.153145e-02 3.714300e-02 4.594354e-02 4.838467e-02 5.279417e-02 5.100323e-02 5.003496e-02 4.430229e-02 3.832324e-02 1.986783e-02 1.419676e-02 4.399853e-03 3.902214e-03 1.800703e-03 4.000364e-04 4.306643e-03 2.218942e-03 5.230283e-03 3.010571e-03 5.478483e-03 3.399631e-03 5.429715e-03 3.629826e-03 5.235383e-03 3.788072e-03 4.973202e-03 3.913565e-03 4.701563e-03 4.024128e-03 4.456607e-03 4.113745e-03 4.249166e-03 4.167981e-03 4.087170e-03 4.193022e-03 3.998266e-03 4.230386e-03 4.040420e-03 4.373948e-03 4.333706e-03 4.816899e-03 5.144769e-03 6.046717e-03 7.401620e-03 9.354296e-03 8.735537e-03 7.751816e-03 9.240136e-03 8.860072e-03 6.079307e-03 2.050816e-03 1.033909e-03 4.882048e-03 2.716421e-03 2.807919e-04 5.231906e-03 7.174424e-03 7.514701e-03 7.336564e-03 4.195347e-03 3.832123e-03 4.998092e-03 3.680446e-03 4.405993e-03 3.229491e-03 4.176317e-03 3.001923e-03 4.063382e-03 2.849893e-03 3.966061e-03 2.766004e-03 3.861060e-03 2.766911e-03 3.732660e-03 2.854718e-03 3.561883e-03 3.013508e-03 3.336634e-03 3.218729e-03 3.057731e-03 3.443217e-03 2.745542e-03 3.667587e-03 2.444906e-03 3.878405e-03 2.208988e-03 4.046216e-03 2.071890e-03 4.116584e-03 2.050169e-03 4.038442e-03 2.165611e-03 3.790592e-03 2.444089e-03 3.378620e-03 2.893090e-03 2.823428e-03 3.488346e-03 2.166440e-03 4.183256e-03 1.487208e-03 4.918322e-03 9.101526e-04 5.618341e-03 6.191347e-04 6.193444e-03 9.203388e-04 6.529058e-03 2.388232e-03 6.348527e-03 6.344485e-03 4.912843e-04 5.408616e-03 2.408741e-03 6.805633e-03 3.937224e-03 
2.990728e-03 1.209637e-03 3.245594e-03 3.555481e-03 3.655550e-03 9.723851e-03 8.185585e-03 6.378809e-03 4.780208e-03 8.625445e-03 9.155336e-03 1.787282e-02 2.378849e-02 2.441065e-02 1.140134e-02 7.133341e-03 2.872684e-03 3.901839e-03 6.915222e-03 1.181221e-02 2.472647e-02 2.435815e-02 1.572999e-02 1.033778e-02 6.374454e-03 4.343264e-03 2.628502e-03 2.155074e-03 1.025300e-03 1.613230e-03 3.671306e-04 1.508535e-03 1.598121e-04 1.410995e-03 2.173095e-04 1.242744e-03 3.209977e-04 1.015213e-03 4.097172e-04 7.874018e-04 5.105228e-04 5.824344e-04 5.953724e-04 3.974583e-04 6.426061e-04 2.810057e-04 7.104402e-04 3.486795e-04 9.228298e-04 7.219689e-04 1.490622e-03 1.610060e-03 2.766508e-03 3.642067e-03 6.026843e-03 8.467105e-03 5.596121e-03 3.596727e-03 1.095330e-03 2.930973e-03 7.816648e-03 1.565395e-02 1.171123e-02 6.318099e-03 3.266364e-03 9.708298e-03 7.157978e-03 1.555761e-02 5.214221e-03 1.441048e-03 7.360111e-03 7.732342e-03 2.414607e-03 7.252787e-04 1.834661e-03 1.049434e-03 1.259404e-03 5.793879e-04 1.039533e-03 4.124376e-04 9.946745e-04 2.760172e-04 9.780435e-04 1.166105e-04 9.103630e-04 1.188709e-04 7.582959e-04 2.608422e-04 5.676446e-04 4.305734e-04 4.221381e-04 6.868472e-04 3.498956e-04 1.004152e-03 3.465061e-04 1.320487e-03 4.097200e-04 1.556134e-03 5.368650e-04 1.673033e-03 6.295045e-04 1.683253e-03 5.972673e-04 1.581671e-03 4.637380e-04 1.346341e-03 4.586624e-04 1.005594e-03 8.538670e-04 6.853892e-04 1.449102e-03 8.246622e-04 2.066418e-03 1.439371e-03 2.592431e-03 2.167860e-03 2.887514e-03 2.874695e-03 2.737711e-03 3.601890e-03 1.709217e-03 4.904950e-03 6.098222e-03 6.580893e-03 2.465496e-03 2.081706e-03 3.239702e-03 4.643362e-04 
1.045816e-02 8.499994e-03 9.023969e-03 6.911424e-03 1.036555e-02 2.548122e-02 9.909879e-03 1.478553e-02 3.323040e-03 1.060412e-02 1.239965e-03 1.078234e-02 1.113191e-02 1.721137e-02 2.090122e-02 2.119706e-02 2.240987e-02 2.284897e-02 2.074436e-02 2.042314e-02 1.779178e-02 9.459387e-03 5.139362e-03 2.737331e-03 5.767810e-03 4.843324e-03 8.148622e-03 6.525612e-03 9.440612e-03 7.378503e-03 1.008273e-02 7.848205e-03 1.033544e-02 8.147566e-03 1.037150e-02 8.434677e-03 1.034396e-02 8.777593e-03 1.027171e-02 9.108452e-03 1.014379e-02 9.418275e-03 1.006141e-02 9.772916e-03 1.009644e-02 1.016108e-02 1.026277e-02 1.059145e-02 1.064733e-02 1.117912e-02 1.143339e-02 1.220099e-02 1.304890e-02 1.436784e-02 1.664456e-02 1.926039e-02 2.233307e-02 2.178282e-02 1.931557e-02 2.118920e-02 2.045128e-02 1.652932e-02 1.138970e-02 8.484434e-03 1.246002e-02 1.369502e-02 5.177501e-03 1.399388e-02 1.597781e-02 1.610438e-02 1.737693e-02 1.250204e-02 1.213905e-02 1.203654e-02 1.194515e-02 1.102451e-02 1.145608e-02 1.044502e-02 1.131557e-02 1.021367e-02 1.136910e-02 1.017889e-02 1.145390e-02 1.020750e-02 1.143688e-02 1.021931e-02 1.125511e-02 1.022578e-02 1.099580e-02 1.035685e-02 1.078506e-02 1.065804e-02 1.060526e-02 1.105437e-02 1.041779e-02 1.145931e-02 1.018032e-02 1.175066e-02 9.886885e-03 1.189144e-02 9.655716e-03 1.194519e-02 9.606912e-03 1.191899e-02 9.760065e-03 1.176054e-02 1.011246e-02 1.147718e-02 1.067107e-02 1.105324e-02 1.134976e-02 1.046415e-02 1.207074e-02 9.799397e-03 1.281927e-02 9.185505e-03 1.360197e-02 8.848109e-03 1.448072e-02 9.232940e-03 1.542567e-02 1.204971e-02 2.451090e-02 1.420933e-02 1.010689e-02 4.482103e-03 1.002661e-02 8.579424e-03 
9.668990e-03 1.292404e-02 1.776166e-02 2.606536e-02 3.640493e-02 1.518984e-02 2.813725e-02 2.048628e-02 2.334006e-02 2.118705e-02 2.110861e-02 2.161591e-02 1.828193e-02 2.385144e-02 2.158321e-02 2.587180e-02 2.251375e-02 2.636599e-02 2.215193e-02 2.499430e-02 2.031137e-02 2.052093e-02 1.998544e-02 2.108203e-02 2.040320e-02 2.129702e-02 2.099010e-02 2.135484e-02 2.148631e-02 2.129918e-02 2.184736e-02 2.119832e-02 2.207944e-02 2.110267e-02 2.221743e-02 2.106012e-02 2.230191e-02 2.109478e-02 2.232619e-02 2.118069e-02 2.229021e-02 2.130269e-02 2.223584e-02 2.147233e-02 2.218781e-02 2.167056e-02 2.215763e-02 2.188394e-02 2.218297e-02 2.213521e-02 2.232692e-02 2.250192e-02 2.273632e-02 2.323597e-02 2.382295e-02 2.499118e-02 2.507943e-02 2.309152e-02 2.193668e-02 2.448254e-02 2.263204e-02 2.602128e-02 2.568808e-02 2.338446e-02 2.638722e-02 2.502967e-02 2.357884e-02 2.582516e-02 2.285747e-02 2.214869e-02 2.494657e-02 2.256156e-02 2.244448e-02 2.302642e-02 2.230392e-02 2.242646e-02 2.206644e-02 2.208909e-02 2.202973e-02 2.192461e-02 2.208617e-02 2.185422e-02 2.215975e-02 2.182123e-02 2.220845e-02 2.179362e-02 2.221923e-02 2.176496e-02 2.221906e-02 2.177379e-02 2.223918e-02 2.184799e-02 2.224712e-02 2.196832e-02 2.221001e-02 2.210874e-02 2.210328e-02 2.223122e-02 2.193346e-02 2.232365e-02 2.174463e-02 2.242508e-02 2.157476e-02 2.256012e-02 2.143413e-02 2.271813e-02 2.132775e-02 2.289989e-02 2.127116e-02 2.307342e-02 2.125712e-02 2.320723e-02 2.127095e-02 2.331171e-02 2.134641e-02 2.339558e-02 2.156901e-02 2.346945e-02 2.215365e-02 2.343718e-02 2.358018e-02 2.308868e-02 3.056287e-02 3.534883e-02 3.773088e-02 1.690125e-02 1.336872e-02 1.020599e-02 
3.279800e-02 3.678228e-02 3.889437e-02 4.921562e-02 5.926223e-02 5.560930e-02 2.760394e-02 3.915409e-02 2.694700e-02 3.415877e-02 2.506376e-02 2.903407e-02 1.845437e-02 2.257526e-02 2.144501e-02 2.233323e-02 2.241861e-02 2.209069e-02 2.267517e-02 2.166750e-02 2.232437e-02 2.038836e-02 2.765610e-02 2.651363e-02 3.094336e-02 2.955882e-02 3.255698e-02 3.117379e-02 3.336629e-02 3.209100e-02 3.373739e-02 3.265351e-02 3.383440e-02 3.302228e-02 3.378303e-02 3.333336e-02 3.371557e-02 3.364772e-02 3.364494e-02 3.390782e-02 3.355476e-02 3.411907e-02 3.353666e-02 3.435730e-02 3.364898e-02 3.462321e-02 3.389059e-02 3.493305e-02 3.432743e-02 3.539299e-02 3.510256e-02 3.623268e-02 3.655854e-02 3.800922e-02 3.958535e-02 4.217672e-02 4.513841e-02 4.018045e-02 3.968215e-02 4.296843e-02 4.026511e-02 4.239999e-02 3.740092e-02 3.602604e-02 3.981772e-02 3.873252e-02 3.177941e-02 4.122077e-02 3.730387e-02 3.695448e-02 4.147987e-02 3.454435e-02 3.541166e-02 3.622476e-02 3.555715e-02 3.504671e-02 3.496272e-02 3.446229e-02 3.476190e-02 3.427185e-02 3.477100e-02 3.427422e-02 3.482163e-02 3.432103e-02 3.477680e-02 3.432969e-02 3.457193e-02 3.431489e-02 3.429636e-02 3.440711e-02 3.408330e-02 3.464910e-02 3.392636e-02 3.496877e-02 3.379260e-02 3.528805e-02 3.363861e-02 3.549492e-02 3.344862e-02 3.555506e-02 3.332505e-02 3.552630e-02 3.337389e-02 3.541360e-02 3.360627e-02 3.516798e-02 3.401956e-02 3.480295e-02 3.462372e-02 3.431914e-02 3.534251e-02 3.371222e-02 3.612074e-02 3.309898e-02 3.696388e-02 3.264503e-02 3.789661e-02 3.260567e-02 3.897086e-02 3.334140e-02 3.994794e-02 3.566555e-02 4.012407e-02 6.959495e-02 5.116424e-02 4.353611e-02 3.469134e-02 3.544975e-02 
3.702007e-02 3.898986e-02 4.068850e-02 4.582049e-02 5.333193e-02 6.458219e-02 5.961922e-02 6.059671e-02 5.531820e-02 5.764661e-02 5.247332e-02 5.424663e-02 4.653112e-02 4.632424e-02 4.608587e-02 4.626610e-02 4.623031e-02 4.618365e-02 4.631425e-02 4.611621e-02 4.629874e-02 4.662650e-02 5.183911e-02 5.184847e-02 5.478675e-02 5.457661e-02 5.673347e-02 5.608263e-02 5.790880e-02 5.687829e-02 5.856398e-02 5.729947e-02 5.887211e-02 5.753625e-02 5.897248e-02 5.773529e-02 5.899194e-02 5.796329e-02 5.895802e-02 5.818064e-02 5.886594e-02 5.838337e-02 5.878552e-02 5.860718e-02 5.875902e-02 5.882021e-02 5.876876e-02 5.898691e-02 5.881814e-02 5.910269e-02 5.891222e-02 5.917568e-02 5.908191e-02 5.929359e-02 5.945510e-02 5.949148e-02 5.882431e-02 5.768078e-02 5.871478e-02 6.060827e-02 5.812574e-02 6.159886e-02 6.433351e-02 6.335713e-02 6.353761e-02 6.545625e-02 6.582481e-02 6.563912e-02 6.484162e-02 6.464433e-02 6.650313e-02 6.728987e-02 6.540367e-02 6.385257e-02 6.279857e-02 6.168490e-02 6.133015e-02 6.043655e-02 6.058440e-02 5.976623e-02 6.024635e-02 5.943445e-02 6.008277e-02 5.926041e-02 5.993497e-02 5.913275e-02 5.972394e-02 5.903743e-02 5.949155e-02 5.906374e-02 5.931438e-02 5.923688e-02 5.917203e-02 5.949739e-02 5.902929e-02 5.977742e-02 5.884889e-02 5.998679e-02 5.861620e-02 6.010040e-02 5.841169e-02 6.016243e-02 5.832281e-02 6.017683e-02 5.836378e-02 6.010761e-02 5.853762e-02 5.996056e-02 5.885680e-02 5.973229e-02 5.927091e-02 5.941148e-02 5.975373e-02 5.907302e-02 6.032789e-02 5.882937e-02 6.103994e-02 5.884792e-02 6.199972e-02 5.931850e-02 6.335473e-02 6.043596e-02 6.697774e-02 6.348784e-02 4.811992e-02 4.456997e-02 3.894597e-02 3.864987e-02 
4.766015e-02 4.954599e-02 4.928816e-02 5.274550e-02 5.391516e-02 5.968643e-02 6.260098e-02 6.383724e-02 6.203524e-02 6.465353e-02 6.274362e-02 6.651102e-02 6.494746e-02 6.347464e-02 6.318198e-02 6.340034e-02 6.335631e-02 6.329698e-02 6.346186e-02 6.320369e-02 6.345495e-02 6.444939e-02 6.481589e-02 6.310005e-02 6.338751e-02 6.248766e-02 6.315153e-02 6.233412e-02 6.321602e-02 6.232131e-02 6.333183e-02 6.236171e-02 6.341720e-02 6.243482e-02 6.345826e-02 6.254615e-02 6.346763e-02 6.269720e-02 6.345312e-02 6.287352e-02 6.342263e-02 6.306601e-02 6.339852e-02 6.327190e-02 6.339894e-02 6.347688e-02 6.342664e-02 6.366128e-02 6.347384e-02 6.379743e-02 6.350256e-02 6.381639e-02 6.338810e-02 6.350956e-02 6.267449e-02 6.204222e-02 6.069162e-02 6.499639e-02 6.494706e-02 6.308277e-02 6.458081e-02 6.338474e-02 6.369898e-02 6.555828e-02 6.203029e-02 6.336068e-02 6.626113e-02 6.198984e-02 6.423150e-02 6.526835e-02 6.122147e-02 6.540804e-02 6.477371e-02 6.390925e-02 6.424889e-02 6.407893e-02 6.421703e-02 6.398132e-02 6.413203e-02 6.384826e-02 6.407783e-02 6.375527e-02 6.403689e-02 6.370192e-02 6.398059e-02 6.367643e-02 6.389461e-02 6.368308e-02 6.378926e-02 6.374393e-02 6.368214e-02 6.386513e-02 6.357312e-02 6.402735e-02 6.345560e-02 6.419900e-02 6.332503e-02 6.434533e-02 6.318902e-02 6.444846e-02 6.307763e-02 6.450851e-02 6.302337e-02 6.452260e-02 6.304138e-02 6.448157e-02 6.313511e-02 6.438262e-02 6.329877e-02 6.422451e-02 6.350765e-02 6.401016e-02 6.373067e-02 6.375978e-02 6.393167e-02 6.349974e-02 6.405704e-02 6.325240e-02 6.403646e-02 6.301708e-02 6.384538e-02 6.271936e-02 6.417566e-02 5.804538e-02 5.392834e-02 5.197218e-02 4.911951e-02 4.926375e-02 
4.713904e-02 4.822454e-02 4.863333e-02 5.095578e-02 5.231727e-02 5.549232e-02 5.701507e-02 5.928511e-02 6.041251e-02 6.228255e-02 6.511563e-02 6.709330e-02 7.426500e-02 7.402193e-02 7.392331e-02 7.400617e-02 7.397574e-02 7.397271e-02 7.401140e-02 7.393440e-02 7.401764e-02 7.414493e-02 6.810603e-02 6.666436e-02 6.380370e-02 6.275393e-02 6.167559e-02 6.066184e-02 6.063035e-02 5.956596e-02 6.013487e-02 5.901165e-02 5.989380e-02 5.875613e-02 5.976061e-02 5.867595e-02 5.966977e-02 5.870168e-02 5.958913e-02 5.878443e-02 5.950510e-02 5.889316e-02 5.942090e-02 5.900855e-02 5.934132e-02 5.910887e-02 5.926169e-02 5.916918e-02 5.916794e-02 5.916111e-02 5.902995e-02 5.904488e-02 5.878906e-02 5.875038e-02 5.830746e-02 5.813292e-02 5.784851e-02 5.971292e-02 5.879018e-02 5.758146e-02 5.940837e-02 5.871683e-02 5.824615e-02 5.966046e-02 5.860697e-02 5.853424e-02 5.877894e-02 5.729057e-02 5.756939e-02 5.750499e-02 5.591642e-02 5.682379e-02 5.768674e-02 5.822401e-02 5.916108e-02 5.923316e-02 5.980768e-02 5.953327e-02 6.004480e-02 5.960261e-02 6.013954e-02 5.961139e-02 6.016769e-02 5.961438e-02 6.014556e-02 5.962959e-02 6.007852e-02 5.967113e-02 5.998029e-02 5.975546e-02 5.986734e-02 5.988595e-02 5.974642e-02 6.004757e-02 5.961913e-02 6.021451e-02 5.948780e-02 6.035812e-02 5.936339e-02 6.046012e-02 5.927070e-02 6.051335e-02 5.923498e-02 6.050952e-02 5.926813e-02 6.043749e-02 5.936968e-02 6.029060e-02 5.952749e-02 6.006477e-02 5.971144e-02 5.975674e-02 5.987567e-02 5.936500e-02 5.995460e-02 5.887682e-02 5.984941e-02 5.825050e-02 5.940846e-02 5.738402e-02 5.838798e-02 5.606214e-02 5.641209e-02 5.348801e-02 5.155709e-02 4.988248e-02 4.818509e-02 4.788641e-02 
5.189211e-02 5.315826e-02 5.291250e-02 5.520502e-02 5.583395e-02 5.869231e-02 6.013348e-02 6.223322e-02 6.348997e-02 6.523213e-02 6.799926e-02 6.959162e-02 7.710397e-02 7.730403e-02 7.716284e-02 7.727102e-02 7.723757e-02 7.721534e-02 7.729490e-02 7.716112e-02 7.731117e-02 7.712140e-02 7.119916e-02 6.999763e-02 6.733362e-02 6.633564e-02 6.532523e-02 6.438027e-02 6.431475e-02 6.338411e-02 6.383877e-02 6.290902e-02 6.362188e-02 6.271484e-02 6.351864e-02 6.267581e-02 6.345800e-02 6.272357e-02 6.340653e-02 6.281672e-02 6.335050e-02 6.292865e-02 6.328747e-02 6.304118e-02 6.321821e-02 6.313702e-02 6.313700e-02 6.319274e-02 6.302381e-02 6.317346e-02 6.283791e-02 6.302815e-02 6.251376e-02 6.269231e-02 6.196772e-02 6.210374e-02 6.120058e-02 6.174158e-02 6.139104e-02 6.141503e-02 6.140090e-02 6.162422e-02 6.138242e-02 6.200470e-02 6.142069e-02 6.189252e-02 6.196755e-02 6.185442e-02 6.187233e-02 6.222659e-02 6.178923e-02 6.254870e-02 6.243873e-02 6.286193e-02 6.297688e-02 6.313820e-02 6.329846e-02 6.328393e-02 6.349699e-02 6.336931e-02 6.362696e-02 6.343206e-02 6.370669e-02 6.349086e-02 6.374113e-02 6.355650e-02 6.373401e-02 6.363749e-02 6.369114e-02 6.373952e-02 6.362027e-02 6.386330e-02 6.353002e-02 6.400232e-02 6.342869e-02 6.414293e-02 6.332516e-02 6.426870e-02 6.323196e-02 6.436601e-02 6.316549e-02 6.442479e-02 6.314020e-02 6.443546e-02 6.316277e-02 6.438858e-02 6.323044e-02 6.427749e-02 6.333093e-02 6.409890e-02 6.343945e-02 6.384830e-02 6.351293e-02 6.351213e-02 6.348485e-02 6.305752e-02 6.326037e-02 6.241533e-02 6.270882e-02 6.144719e-02 6.163808e-02 5.987012e-02 5.968943e-02 5.710914e-02 5.575740e-02 5.435735e-02 5.290160e-02 5.289189e-02 
4.713753e-02 4.822163e-02 4.863215e-02 5.095371e-02 5.231677e-02 5.549096e-02 5.701628e-02 5.928451e-02 6.041462e-02 6.228313e-02 6.511801e-02 6.709385e-02 7.426500e-02 7.402103e-02 7.392274e-02 7.400475e-02 7.397442e-02 7.397065e-02 7.400944e-02 7.393208e-02 7.401561e-02 7.414143e-02 6.810230e-02 6.666421e-02 6.379925e-02 6.275820e-02 6.167113e-02 6.066857e-02 6.062483e-02 5.956896e-02 6.012352e-02 5.900245e-02 5.987439e-02 5.873177e-02 5.973686e-02 5.863628e-02 5.964415e-02 5.864411e-02 5.956084e-02 5.870517e-02 5.946849e-02 5.878429e-02 5.936305e-02 5.886328e-02 5.925348e-02 5.893420e-02 5.914561e-02 5.898331e-02 5.903191e-02 5.899182e-02 5.889755e-02 5.894214e-02 5.872531e-02 5.882494e-02 5.851233e-02 5.866494e-02 5.831121e-02 5.858375e-02 5.825448e-02 5.828531e-02 5.817103e-02 5.821827e-02 5.793274e-02 5.815072e-02 5.782776e-02 5.790722e-02 5.773544e-02 5.767887e-02 5.760446e-02 5.766954e-02 5.758757e-02 5.775351e-02 5.800731e-02 5.810965e-02 5.855638e-02 5.849261e-02 5.902415e-02 5.878308e-02 5.937797e-02 5.899049e-02 5.962970e-02 5.914257e-02 5.979272e-02 5.926519e-02 5.987982e-02 5.938245e-02 5.990481e-02 5.951085e-02 5.987501e-02 5.965360e-02 5.979743e-02 5.981266e-02 5.968915e-02 5.998683e-02 5.956601e-02 6.016111e-02 5.943954e-02 6.031520e-02 5.932687e-02 6.043426e-02 5.925168e-02 6.050743e-02 5.923347e-02 6.052066e-02 5.927861e-02 6.045723e-02 5.938094e-02 6.030613e-02 5.952933e-02 6.007194e-02 5.970783e-02 5.976372e-02 5.987557e-02 5.937650e-02 5.995996e-02 5.889056e-02 5.985662e-02 5.825961e-02 5.941106e-02 5.738335e-02 5.838549e-02 5.605535e-02 5.640969e-02 5.348085e-02 5.155477e-02 4.987681e-02 4.818325e-02 4.788233e-02 
4.765755e-02 4.954074e-02 4.928551e-02 5.274144e-02 5.391342e-02 5.968333e-02 6.260527e-02 6.383797e-02 6.204306e-02 6.465767e-02 6.275216e-02 6.651344e-02 6.494958e-02 6.347254e-02 6.318144e-02 6.339830e-02 6.335432e-02 6.329379e-02 6.345817e-02 6.319814e-02 6.345038e-02 6.443720e-02 6.480258e-02 6.309355e-02 6.337130e-02 6.248933e-02 6.313470e-02 6.234064e-02 6.319741e-02 6.232069e-02 6.330140e-02 6.233611e-02 6.336811e-02 6.237600e-02 6.339399e-02 6.244940e-02 6.338723e-02 6.255035e-02 6.334774e-02 6.266061e-02 6.327222e-02 6.275991e-02 6.316394e-02 6.284220e-02 6.304244e-02 6.291286e-02 6.292151e-02 6.296362e-02 6.279510e-02 6.297713e-02 6.265152e-02 6.293753e-02 6.247714e-02 6.283129e-02 6.226705e-02 6.266545e-02 6.205196e-02 6.247648e-02 6.187344e-02 6.226869e-02 6.171732e-02 6.208851e-02 6.154302e-02 6.194840e-02 6.150018e-02 6.189767e-02 6.154225e-02 6.195617e-02 6.171195e-02 6.211593e-02 6.192073e-02 6.227843e-02 6.220531e-02 6.247581e-02 6.253914e-02 6.266929e-02 6.286634e-02 6.284697e-02 6.315657e-02 6.300001e-02 6.338792e-02 6.312703e-02 6.354986e-02 6.323678e-02 6.364507e-02 6.334847e-02 6.368522e-02 6.347616e-02 6.367041e-02 6.361528e-02 6.360016e-02 6.376772e-02 6.349515e-02 6.393887e-02 6.337407e-02 6.411495e-02 6.324669e-02 6.427540e-02 6.313016e-02 6.440790e-02 6.305060e-02 6.450452e-02 6.302848e-02 6.455063e-02 6.306874e-02 6.452630e-02 6.316371e-02 6.441899e-02 6.330805e-02 6.424364e-02 6.350438e-02 6.402702e-02 6.373128e-02 6.378213e-02 6.393963e-02 6.352361e-02 6.406708e-02 6.326645e-02 6.403772e-02 6.301331e-02 6.383807e-02 6.270664e-02 6.417141e-02 5.803301e-02 5.392568e-02 5.196256e-02 4.911716e-02 4.925667e-02 
3.701679e-02 3.898348e-02 4.068502e-02 4.581594e-02 5.332799e-02 6.458377e-02 5.962498e-02 6.059173e-02 5.532468e-02 5.765036e-02 5.248800e-02 5.425209e-02 4.653249e-02 4.632212e-02 4.608562e-02 4.626230e-02 4.622603e-02 4.617595e-02 4.630611e-02 4.610275e-02 4.628649e-02 4.660930e-02 5.182412e-02 5.185448e-02 5.477709e-02 5.460220e-02 5.673078e-02 5.613101e-02 5.791850e-02 5.692368e-02 5.854681e-02 5.728666e-02 5.880834e-02 5.746856e-02 5.890267e-02 5.763571e-02 5.893274e-02 5.782137e-02 5.891396e-02 5.799899e-02 5.882987e-02 5.811768e-02 5.867027e-02 5.818367e-02 5.850832e-02 5.826253e-02 5.839566e-02 5.834538e-02 5.830364e-02 5.840057e-02 5.822172e-02 5.842574e-02 5.813675e-02 5.839663e-02 5.801888e-02 5.830662e-02 5.788926e-02 5.818767e-02 5.774778e-02 5.803960e-02 5.761633e-02 5.785811e-02 5.742094e-02 5.765566e-02 5.729746e-02 5.748154e-02 5.715691e-02 5.736487e-02 5.718863e-02 5.734457e-02 5.730918e-02 5.736394e-02 5.751685e-02 5.748398e-02 5.784548e-02 5.767122e-02 5.824646e-02 5.790007e-02 5.864562e-02 5.811111e-02 5.896644e-02 5.827093e-02 5.917430e-02 5.838761e-02 5.928243e-02 5.852201e-02 5.934643e-02 5.871548e-02 5.934089e-02 5.890697e-02 5.921907e-02 5.910091e-02 5.905193e-02 5.935017e-02 5.888066e-02 5.961494e-02 5.868661e-02 5.983867e-02 5.848994e-02 6.001464e-02 5.835785e-02 6.015623e-02 5.834084e-02 6.024094e-02 5.843875e-02 6.021285e-02 5.861016e-02 6.001773e-02 5.884493e-02 5.971559e-02 5.922346e-02 5.940968e-02 5.974652e-02 5.911498e-02 6.036102e-02 5.889857e-02 6.109132e-02 5.889774e-02 6.201359e-02 5.930403e-02 6.332954e-02 6.039344e-02 6.697068e-02 6.345780e-02 4.810921e-02 4.455192e-02 3.894114e-02 3.863979e-02 
3.279455e-02 3.677617e-02 3.888787e-02 4.921110e-02 5.925478e-02 5.561338e-02 2.758177e-02 3.912794e-02 2.691488e-02 3.413857e-02 2.505161e-02 2.901867e-02 1.844970e-02 2.256472e-02 2.144010e-02 2.233306e-02 2.241744e-02 2.208979e-02 2.266634e-02 2.165050e-02 2.231060e-02 2.037828e-02 2.766314e-02 2.653908e-02 3.097049e-02 2.959529e-02 3.258654e-02 3.121685e-02 3.339424e-02 3.210516e-02 3.370433e-02 3.257375e-02 3.371315e-02 3.286859e-02 3.363460e-02 3.315669e-02 3.356927e-02 3.345479e-02 3.351199e-02 3.371676e-02 3.342277e-02 3.387015e-02 3.327338e-02 3.391818e-02 3.314612e-02 3.394888e-02 3.309151e-02 3.395442e-02 3.305576e-02 3.389702e-02 3.301460e-02 3.378068e-02 3.294051e-02 3.358058e-02 3.278932e-02 3.330709e-02 3.261616e-02 3.310211e-02 3.261113e-02 3.306039e-02 3.266151e-02 3.315807e-02 3.280690e-02 3.331462e-02 3.288867e-02 3.334638e-02 3.302687e-02 3.334378e-02 3.310131e-02 3.341876e-02 3.328995e-02 3.354193e-02 3.353349e-02 3.359744e-02 3.376221e-02 3.367571e-02 3.400632e-02 3.378243e-02 3.423579e-02 3.387581e-02 3.439080e-02 3.393296e-02 3.444550e-02 3.397253e-02 3.442426e-02 3.407212e-02 3.440144e-02 3.427602e-02 3.433403e-02 3.448762e-02 3.415075e-02 3.469455e-02 3.394045e-02 3.495690e-02 3.374790e-02 3.521773e-02 3.354319e-02 3.539834e-02 3.335555e-02 3.548939e-02 3.327649e-02 3.551393e-02 3.337413e-02 3.544940e-02 3.365125e-02 3.522811e-02 3.405474e-02 3.478569e-02 3.455950e-02 3.421528e-02 3.525092e-02 3.365878e-02 3.611206e-02 3.313427e-02 3.703970e-02 3.274304e-02 3.802112e-02 3.269382e-02 3.905410e-02 3.335081e-02 3.996933e-02 3.563114e-02 4.014431e-02 6.957849e-02 5.114893e-02 4.351278e-02 3.468532e-02 3.543916e-02 
9.674109e-03 1.292149e-02 1.776060e-02 2.605691e-02 3.640952e-02 1.519348e-02 2.817180e-02 2.050920e-02 2.337126e-02 2.122566e-02 2.113403e-02 2.165110e-02 1.829371e-02 2.387093e-02 2.156437e-02 2.588629e-02 2.247137e-02 2.636553e-02 2.210541e-02 2.498236e-02 2.025614e-02 2.051303e-02 1.994540e-02 2.108293e-02 2.035261e-02 2.131372e-02 2.095305e-02 2.140208e-02 2.147549e-02 2.136535e-02 2.185075e-02 2.125725e-02 2.209145e-02 2.114030e-02 2.224942e-02 2.106468e-02 2.234757e-02 2.103711e-02 2.237919e-02 2.104308e-02 2.233489e-02 2.105936e-02 2.222378e-02 2.108461e-02 2.209399e-02 2.115195e-02 2.197455e-02 2.125803e-02 2.186210e-02 2.138367e-02 2.176962e-02 2.152675e-02 2.170724e-02 2.167452e-02 2.167443e-02 2.181192e-02 2.166570e-02 2.188797e-02 2.156852e-02 2.185712e-02 2.144623e-02 2.167593e-02 2.120117e-02 2.147929e-02 2.117699e-02 2.148402e-02 2.117563e-02 2.162588e-02 2.144714e-02 2.177232e-02 2.162549e-02 2.176175e-02 2.169632e-02 2.176801e-02 2.181189e-02 2.175937e-02 2.195146e-02 2.175786e-02 2.209628e-02 2.175282e-02 2.221573e-02 2.173669e-02 2.229240e-02 2.171089e-02 2.232997e-02 2.169710e-02 2.235530e-02 2.171586e-02 2.234725e-02 2.174723e-02 2.228655e-02 2.179204e-02 2.221255e-02 2.188164e-02 2.212950e-02 2.200764e-02 2.201730e-02 2.214288e-02 2.188329e-02 2.228700e-02 2.175115e-02 2.246106e-02 2.163461e-02 2.266280e-02 2.153329e-02 2.285642e-02 2.143847e-02 2.300598e-02 2.133604e-02 2.314362e-02 2.125626e-02 2.328201e-02 2.124563e-02 2.337494e-02 2.131357e-02 2.343261e-02 2.153457e-02 2.346346e-02 2.209023e-02 2.340104e-02 2.349143e-02 2.305140e-02 3.051737e-02 3.538758e-02 3.771042e-02 1.689598e-02 1.336387e-02 1.020859e-02 
1.046392e-02 8.499673e-03 9.024100e-03 6.900981e-03 1.036244e-02 2.549334e-02 9.933449e-03 1.478028e-02 3.324745e-03 1.062938e-02 1.215518e-03 1.080579e-02 1.111661e-02 1.718490e-02 2.090050e-02 2.118113e-02 2.242557e-02 2.283731e-02 2.078239e-02 2.043512e-02 1.784401e-02 9.459343e-03 5.118017e-03 2.698313e-03 5.761908e-03 4.882547e-03 8.160423e-03 6.601250e-03 9.475347e-03 7.457372e-03 1.008529e-02 7.855938e-03 1.028021e-02 8.089564e-03 1.031933e-02 8.348166e-03 1.031936e-02 8.652033e-03 1.028137e-02 8.949000e-03 1.017213e-02 9.159009e-03 9.974424e-03 9.280471e-03 9.781812e-03 9.395597e-03 9.646153e-03 9.477856e-03 9.502758e-03 9.459924e-03 9.303572e-03 9.306243e-03 8.984434e-03 8.950508e-03 8.474990e-03 8.411688e-03 7.909041e-03 8.088936e-03 8.001844e-03 8.257691e-03 8.339269e-03 9.008982e-03 9.240117e-03 9.800180e-03 9.395288e-03 9.739654e-03 9.637121e-03 9.240880e-03 9.016851e-03 8.928523e-03 8.993624e-03 9.152160e-03 9.505739e-03 9.169273e-03 9.916585e-03 9.278517e-03 1.032767e-02 9.432326e-03 1.070647e-02 9.575674e-03 1.098633e-02 9.677177e-03 1.113180e-02 9.750418e-03 1.116253e-02 9.875808e-03 1.115592e-02 1.010807e-02 1.107226e-02 1.035975e-02 1.084790e-02 1.062546e-02 1.058299e-02 1.096907e-02 1.032572e-02 1.132853e-02 1.004642e-02 1.161614e-02 9.777640e-03 1.181868e-02 9.617313e-03 1.195943e-02 9.640517e-03 1.201160e-02 9.854770e-03 1.189627e-02 1.020524e-02 1.153751e-02 1.065202e-02 1.102310e-02 1.126944e-02 1.047235e-02 1.203991e-02 9.867901e-03 1.284779e-02 9.284047e-03 1.366666e-02 8.919862e-03 1.449959e-02 9.235341e-03 1.538049e-02 1.202182e-02 2.447730e-02 1.417233e-02 1.011936e-02 4.504227e-03 1.003904e-02 8.587080e-03 
2.993159e-03 1.199863e-03 3.243704e-03 3.551202e-03 3.651026e-03 9.730327e-03 8.194965e-03 6.375881e-03 4.790168e-03 8.636920e-03 9.164773e-03 1.788865e-02 2.379976e-02 2.443707e-02 1.140357e-02 7.166124e-03 2.876238e-03 3.886047e-03 6.902467e-03 1.179743e-02 2.470246e-02 2.432980e-02 1.572302e-02 1.030857e-02 6.389430e-03 4.321826e-03 2.671742e-03 2.140327e-03 1.098080e-03 1.611057e-03 4.239696e-04 1.536290e-03 8.920640e-05 1.463323e-03 2.012440e-04 1.305568e-03 3.696801e-04 1.088844e-03 4.963751e-04 8.684368e-04 6.146023e-04 7.005109e-04 7.599535e-04 6.003844e-04 9.139285e-04 5.646227e-04 1.060525e-03 6.364667e-04 1.244031e-03 8.601272e-04 1.521704e-03 1.256004e-03 1.940761e-03 1.815724e-03 2.477247e-03 2.407347e-03 2.950191e-03 2.592207e-03 2.571014e-03 2.555244e-03 2.790521e-03 2.617168e-03 2.611026e-03 1.443378e-03 2.072745e-03 1.362028e-03 1.669412e-03 2.177548e-03 1.498199e-03 1.232343e-03 1.189356e-03 8.516840e-04 6.067657e-04 6.773819e-04 3.779309e-04 4.813615e-04 4.739211e-04 3.788303e-04 6.165389e-04 3.020847e-04 7.295005e-04 2.378349e-04 7.763006e-04 1.758287e-04 7.548015e-04 1.198878e-04 6.970704e-04 2.336493e-04 5.874625e-04 4.590315e-04 4.208111e-04 7.165728e-04 2.989293e-04 1.010909e-03 3.132885e-04 1.299185e-03 4.379601e-04 1.520102e-03 5.825379e-04 1.649512e-03 6.489607e-04 1.686630e-03 5.779081e-04 1.610099e-03 4.123241e-04 1.382187e-03 4.472412e-04 1.005808e-03 8.304040e-04 6.986837e-04 1.394706e-03 8.872415e-04 2.037955e-03 1.451242e-03 2.605018e-03 2.131193e-03 2.929201e-03 2.837496e-03 2.767555e-03 3.611718e-03 1.703578e-03 4.941392e-03 6.064210e-03 6.562947e-03 2.485134e-03 2.088342e-03 3.248809e-03 4.761416e-04 
