# vtk DataFile Version 2.0
Comment goes here
ASCII

DATASET STRUCTURED_POINTS
FIELD FieldData 1
TIME 1 1 double
0.49000000
DIMENSIONS    128   16   1

ORIGIN    0.000   0.000   0.000
SPACING   0.0078125 0.015625   1.000

POINT_DATA   2048
SCALARS uMag double
LOOKUP_TABLE default

2.398656e-03 3.350815e-03 1.648968e-03 3.528445e-03 1.124170e-03 6.602685e-03 5.317787e-03 1.669385e-03 3.893702e-03 1.691254e-03 1.187075e-03 8.549904e-03 1.207236e-02 2.074567e-02 2.469638e-02 2.854207e-02 2.772303e-02 2.984226e-02 2.668916e-02 2.546676e-02 2.065569e-02 1.308779e-02 7.415950e-03 3.275027e-03 4.314527e-04 1.149220e-03 2.445553e-03 3.180487e-03 3.573907e-03 4.174732e-03 3.938183e-03 4.692040e-03 3.988365e-03 4.971743e-03 3.934392e-03 5.109248e-03 3.865897e-03 5.137444e-03 3.821326e-03 5.079948e-03 3.825877e-03 4.962526e-03 3.884690e-03 4.798467e-03 3.977873e-03 4.593070e-03 4.078828e-03 4.360148e-03 4.174664e-03 4.130892e-03 4.267953e-03 3.945917e-03 4.366887e-03 3.848999e-03 4.488644e-03 3.847514e-03 4.157275e-03 1.633608e-03 1.755025e-03 2.130167e-03 8.599737e-04 4.544829e-03 7.601521e-03 7.872627e-03 6.161173e-03 6.676164e-03 1.017123e-02 3.838869e-03 3.969496e-03 3.083035e-03 1.088585e-03 5.559126e-03 4.950140e-03 3.039444e-03 3.402811e-03 4.086143e-03 3.729779e-03 4.460999e-03 3.730245e-03 4.366045e-03 3.660417e-03 4.093224e-03 3.655945e-03 3.778231e-03 3.763554e-03 3.499622e-03 3.961793e-03 3.259940e-03 4.167829e-03 3.032151e-03 4.310948e-03 2.832371e-03 4.373571e-03 2.715321e-03 4.356829e-03 2.721956e-03 4.245349e-03 2.859138e-03 4.021333e-03 3.119985e-03 3.690003e-03 3.487227e-03 3.270423e-03 3.914804e-03 2.790650e-03 4.342687e-03 2.311324e-03 4.721612e-03 1.925302e-03 5.001287e-03 1.717154e-03 5.104631e-03 1.734987e-03 4.943694e-03 2.005379e-03 4.467696e-03 2.550286e-03 3.696825e-03 3.378558e-03 2.747335e-03 4.495442e-03 1.926090e-03 6.152800e-03 1.112449e-03 2.290649e-03 1.566208e-03 2.324298e-03 2.795348e-03 
5.930329e-04 1.305730e-03 8.715502e-04 9.505244e-04 4.099274e-03 6.266606e-03 6.331083e-03 1.490481e-03 5.702412e-03 5.157018e-03 7.964944e-03 1.093187e-02 1.283127e-02 1.261785e-02 9.630873e-03 4.285098e-03 5.657116e-03 4.119004e-03 6.382413e-03 7.304339e-03 1.264141e-02 1.359297e-02 9.906044e-03 7.318670e-03 4.647010e-03 3.432650e-03 2.424806e-03 2.091393e-03 1.504536e-03 1.792773e-03 1.020064e-03 1.771992e-03 7.079919e-04 1.805171e-03 5.264093e-04 1.847392e-03 4.246256e-04 1.831845e-03 3.866188e-04 1.755436e-03 4.345005e-04 1.634617e-03 5.444843e-04 1.473826e-03 6.895450e-04 1.286197e-03 8.408328e-04 1.062605e-03 9.544393e-04 8.361567e-04 1.033911e-03 7.931942e-04 1.145687e-03 1.188437e-03 1.591887e-03 3.867267e-03 1.112831e-02 9.974088e-03 4.978584e-03 9.450570e-03 9.157005e-03 1.857655e-02 1.216495e-02 5.216367e-03 6.617616e-03 9.394089e-03 1.044674e-02 1.607119e-02 9.378338e-03 1.292175e-02 8.378702e-03 1.387734e-02 1.748647e-02 1.340029e-02 9.028211e-03 5.602289e-03 4.046488e-03 2.745573e-03 1.855748e-03 1.558022e-03 7.304551e-04 9.417067e-04 1.765904e-04 5.650076e-04 1.960587e-04 4.055265e-04 4.844492e-04 3.321271e-04 7.586168e-04 3.710390e-04 9.062140e-04 5.567865e-04 9.385687e-04 7.031394e-04 9.019728e-04 7.260017e-04 7.995217e-04 6.274672e-04 6.323285e-04 4.664301e-04 4.289695e-04 4.600565e-04 4.193909e-04 7.041235e-04 7.628502e-04 1.047576e-03 1.202582e-03 1.362447e-03 1.584013e-03 1.617864e-03 1.776500e-03 1.754103e-03 1.758976e-03 1.655090e-03 1.560696e-03 1.286467e-03 1.227796e-03 8.811496e-04 9.968333e-04 1.271636e-03 1.525766e-03 2.419005e-03 3.539730e-03 5.067805e-03 1.893088e-03 1.066007e-03 1.228612e-03 6.079381e-04 
3.965474e-03 4.407006e-03 1.173759e-03 3.915752e-03 1.110627e-02 1.517438e-02 1.123218e-02 6.670634e-03 4.054242e-03 4.167428e-03 1.976203e-03 8.007439e-04 4.620755e-03 8.105481e-03 9.499328e-03 1.076062e-02 9.759190e-03 1.109014e-02 9.593272e-03 9.261657e-03 8.172601e-03 2.852720e-03 2.131859e-03 3.470777e-03 2.625878e-03 5.557553e-03 4.352884e-03 6.244217e-03 5.295054e-03 6.433488e-03 5.999932e-03 6.475898e-03 6.554476e-03 6.366509e-03 6.867811e-03 6.167684e-03 7.043601e-03 6.055451e-03 7.171710e-03 6.028038e-03 7.201063e-03 6.049449e-03 7.142026e-03 6.103661e-03 6.980627e-03 6.143083e-03 6.751098e-03 6.196192e-03 6.511661e-03 6.230095e-03 6.185602e-03 6.126493e-03 5.776143e-03 6.130251e-03 6.113567e-03 9.031927e-03 1.536799e-02 3.455921e-03 2.708897e-03 7.971584e-03 7.858416e-03 1.142606e-02 1.894977e-02 1.868519e-02 1.811038e-02 1.929445e-02 2.465276e-02 1.504631e-02 1.985747e-02 1.631260e-02 1.216891e-02 2.015333e-02 2.312931e-02 1.757478e-02 1.153986e-02 7.775558e-03 6.187060e-03 5.087530e-03 5.512187e-03 5.160989e-03 6.100010e-03 6.020504e-03 6.766385e-03 6.891374e-03 7.058174e-03 7.415837e-03 6.899140e-03 7.657877e-03 6.650674e-03 7.956082e-03 6.569352e-03 8.344239e-03 6.576953e-03 8.631551e-03 6.593706e-03 8.729460e-03 6.658890e-03 8.643183e-03 6.800574e-03 8.378891e-03 7.047730e-03 8.030068e-03 7.449777e-03 7.621016e-03 7.930810e-03 7.171677e-03 8.458825e-03 6.755300e-03 8.938506e-03 6.340302e-03 9.194982e-03 6.028456e-03 9.246221e-03 6.013007e-03 9.142950e-03 6.396035e-03 8.830463e-03 7.181193e-03 8.199530e-03 8.398874e-03 7.169154e-03 1.047213e-02 6.450835e-03 1.600812e-02 8.350742e-03 3.545907e-03 3.763887e-03 3.975677e-03 
5.660727e-03 7.307189e-03 1.031377e-02 1.900255e-02 1.101654e-02 2.361551e-02 1.583006e-02 1.188826e-02 1.723834e-02 1.098803e-02 1.736233e-02 1.096653e-02 1.765057e-02 1.339282e-02 1.908917e-02 1.577937e-02 1.877430e-02 1.694411e-02 1.768108e-02 1.749064e-02 1.518935e-02 1.631636e-02 1.315741e-02 1.573059e-02 1.285110e-02 1.543270e-02 1.278408e-02 1.518733e-02 1.284379e-02 1.499552e-02 1.301495e-02 1.481561e-02 1.324451e-02 1.458474e-02 1.344396e-02 1.434392e-02 1.360901e-02 1.414570e-02 1.376446e-02 1.397707e-02 1.387431e-02 1.381893e-02 1.391920e-02 1.365139e-02 1.386359e-02 1.343473e-02 1.368410e-02 1.313311e-02 1.333891e-02 1.265918e-02 1.268512e-02 1.180818e-02 1.148028e-02 1.023246e-02 9.276629e-03 7.282698e-03 6.730278e-03 2.683611e-03 5.879330e-03 3.695203e-03 5.082919e-03 7.916558e-03 7.909220e-03 8.144205e-03 5.186080e-03 9.859822e-03 3.502807e-03 7.388552e-03 4.172750e-03 2.509092e-03 5.152817e-03 3.372780e-03 9.759885e-03 1.085653e-02 9.822357e-03 9.960119e-03 1.089158e-02 1.121044e-02 1.208069e-02 1.223184e-02 1.290083e-02 1.293677e-02 1.342951e-02 1.343132e-02 1.367956e-02 1.377988e-02 1.375541e-02 1.401023e-02 1.378998e-02 1.423569e-02 1.383676e-02 1.449728e-02 1.384294e-02 1.471855e-02 1.380231e-02 1.486872e-02 1.374317e-02 1.495256e-02 1.368120e-02 1.497764e-02 1.362455e-02 1.498405e-02 1.360795e-02 1.495885e-02 1.362912e-02 1.490117e-02 1.369321e-02 1.480273e-02 1.381641e-02 1.462829e-02 1.394827e-02 1.442318e-02 1.412195e-02 1.422738e-02 1.441228e-02 1.406754e-02 1.481474e-02 1.396736e-02 1.530912e-02 1.392736e-02 1.604393e-02 1.383073e-02 1.799677e-02 1.306680e-02 2.310914e-02 1.779109e-02 1.151777e-02 6.539625e-03 
2.513495e-02 2.477757e-02 3.077688e-02 3.282043e-02 3.982455e-02 2.027112e-02 2.177310e-02 2.423229e-02 1.870632e-02 2.253954e-02 1.804941e-02 1.941336e-02 1.765958e-02 1.817622e-02 1.888659e-02 1.859551e-02 1.909803e-02 1.885450e-02 1.878367e-02 1.927161e-02 1.776299e-02 1.957103e-02 1.864545e-02 2.047627e-02 2.026686e-02 2.090312e-02 2.100152e-02 2.094163e-02 2.143666e-02 2.094179e-02 2.183601e-02 2.099612e-02 2.216302e-02 2.097559e-02 2.227546e-02 2.087694e-02 2.225382e-02 2.083927e-02 2.218804e-02 2.084563e-02 2.202878e-02 2.085524e-02 2.177935e-02 2.084217e-02 2.140816e-02 2.073463e-02 2.089735e-02 2.050426e-02 2.020918e-02 2.001732e-02 1.908704e-02 1.892182e-02 1.707427e-02 1.676994e-02 1.359143e-02 1.264514e-02 4.972328e-03 4.483135e-03 6.085194e-03 3.250128e-03 5.022982e-03 7.679330e-03 6.039063e-03 1.709446e-03 2.800201e-03 4.491151e-03 7.194800e-03 3.289953e-03 6.281094e-03 8.987803e-03 2.482033e-03 1.371260e-02 7.370808e-03 4.716037e-03 8.554780e-03 1.157100e-02 1.463989e-02 1.574350e-02 1.782990e-02 1.815772e-02 1.968616e-02 1.981592e-02 2.084258e-02 2.099026e-02 2.139471e-02 2.164575e-02 2.143260e-02 2.194637e-02 2.134520e-02 2.224113e-02 2.138509e-02 2.258164e-02 2.148580e-02 2.281350e-02 2.158112e-02 2.287069e-02 2.171216e-02 2.276644e-02 2.190431e-02 2.250810e-02 2.218678e-02 2.218485e-02 2.260270e-02 2.182315e-02 2.307185e-02 2.144094e-02 2.355912e-02 2.111329e-02 2.396682e-02 2.080365e-02 2.412227e-02 2.059486e-02 2.402876e-02 2.066929e-02 2.372116e-02 2.113513e-02 2.314637e-02 2.203305e-02 2.222593e-02 2.346302e-02 2.099287e-02 2.582420e-02 1.987137e-02 3.427854e-02 4.177647e-02 3.376127e-02 2.825282e-02 2.479103e-02 
3.038930e-02 3.134666e-02 3.422309e-02 3.844711e-02 4.517990e-02 4.757292e-02 4.164550e-02 4.130622e-02 4.039963e-02 3.885575e-02 3.823747e-02 3.569733e-02 3.496271e-02 3.443490e-02 3.482376e-02 3.454663e-02 3.473879e-02 3.468973e-02 3.458597e-02 3.484469e-02 3.439672e-02 3.501724e-02 3.680697e-02 3.916982e-02 3.905336e-02 4.092164e-02 4.015001e-02 4.163219e-02 4.083123e-02 4.191614e-02 4.138639e-02 4.203699e-02 4.183384e-02 4.200428e-02 4.209097e-02 4.185833e-02 4.222582e-02 4.173550e-02 4.229894e-02 4.164061e-02 4.226894e-02 4.154076e-02 4.212761e-02 4.140729e-02 4.183579e-02 4.117073e-02 4.135819e-02 4.077823e-02 4.063426e-02 4.006678e-02 3.941785e-02 3.868042e-02 3.729293e-02 3.623304e-02 3.395889e-02 3.383978e-02 3.421152e-02 2.243576e-02 2.809632e-02 2.627354e-02 2.845223e-02 2.847843e-02 2.896436e-02 3.190678e-02 2.835033e-02 3.404240e-02 3.232015e-02 3.421206e-02 3.762884e-02 3.562732e-02 3.891260e-02 3.746318e-02 4.501976e-02 4.350123e-02 4.201426e-02 4.066160e-02 4.115048e-02 4.051977e-02 4.127424e-02 4.090477e-02 4.164224e-02 4.149938e-02 4.204312e-02 4.209495e-02 4.225088e-02 4.248154e-02 4.217525e-02 4.271099e-02 4.203795e-02 4.299644e-02 4.200990e-02 4.333626e-02 4.203907e-02 4.359622e-02 4.205856e-02 4.371402e-02 4.208810e-02 4.369133e-02 4.214969e-02 4.353199e-02 4.227883e-02 4.330298e-02 4.252166e-02 4.303110e-02 4.283188e-02 4.273056e-02 4.319723e-02 4.245850e-02 4.354786e-02 4.218196e-02 4.376610e-02 4.194190e-02 4.386198e-02 4.187032e-02 4.386195e-02 4.205265e-02 4.374883e-02 4.253305e-02 4.353688e-02 4.340621e-02 4.343084e-02 4.483294e-02 4.426222e-02 4.806139e-02 4.214823e-02 3.579473e-02 3.251966e-02 3.061884e-02 
3.764046e-02 3.840519e-02 3.936022e-02 4.208713e-02 4.390513e-02 4.944665e-02 4.688968e-02 4.613090e-02 4.725876e-02 4.606930e-02 4.734509e-02 4.633537e-02 4.621776e-02 4.558391e-02 4.597732e-02 4.570001e-02 4.588548e-02 4.585430e-02 4.571799e-02 4.601875e-02 4.551819e-02 4.654935e-02 4.680336e-02 4.762820e-02 4.645881e-02 4.766684e-02 4.644911e-02 4.761990e-02 4.655177e-02 4.750343e-02 4.671427e-02 4.736555e-02 4.689345e-02 4.721315e-02 4.704313e-02 4.705754e-02 4.715157e-02 4.692568e-02 4.721712e-02 4.682194e-02 4.722864e-02 4.673805e-02 4.718258e-02 4.666501e-02 4.708060e-02 4.659545e-02 4.694287e-02 4.654041e-02 4.682177e-02 4.653907e-02 4.683375e-02 4.673217e-02 4.731273e-02 4.759920e-02 4.925523e-02 5.094936e-02 5.597696e-02 5.795329e-02 5.125746e-02 5.444921e-02 5.214418e-02 5.062693e-02 5.092797e-02 4.881521e-02 5.144045e-02 4.849101e-02 5.308603e-02 5.060446e-02 5.436510e-02 5.673935e-02 5.274837e-02 5.995623e-02 5.751060e-02 5.154903e-02 4.979074e-02 4.752740e-02 4.738788e-02 4.638810e-02 4.670909e-02 4.624641e-02 4.666472e-02 4.649554e-02 4.681939e-02 4.685908e-02 4.696408e-02 4.719911e-02 4.702540e-02 4.748848e-02 4.703895e-02 4.775598e-02 4.705412e-02 4.799867e-02 4.707936e-02 4.818227e-02 4.711026e-02 4.828273e-02 4.715489e-02 4.829484e-02 4.722568e-02 4.822558e-02 4.733671e-02 4.809826e-02 4.749758e-02 4.793353e-02 4.769577e-02 4.775077e-02 4.791300e-02 4.757337e-02 4.811609e-02 4.741355e-02 4.826620e-02 4.729855e-02 4.835154e-02 4.727117e-02 4.837334e-02 4.735918e-02 4.833547e-02 4.755828e-02 4.825662e-02 4.780203e-02 4.817780e-02 4.781855e-02 4.813486e-02 4.627958e-02 4.272149e-02 4.046391e-02 3.871010e-02 3.794189e-02 
3.739086e-02 3.818548e-02 3.861245e-02 4.044761e-02 4.126725e-02 4.370466e-02 4.376858e-02 4.503197e-02 4.585022e-02 4.701793e-02 4.872854e-02 5.038998e-02 5.229554e-02 5.200625e-02 5.218788e-02 5.202820e-02 5.211247e-02 5.208815e-02 5.204576e-02 5.216508e-02 5.201041e-02 5.234051e-02 4.900648e-02 4.836978e-02 4.610127e-02 4.645473e-02 4.490559e-02 4.554981e-02 4.442599e-02 4.505918e-02 4.429204e-02 4.475995e-02 4.431784e-02 4.454966e-02 4.439775e-02 4.438923e-02 4.448320e-02 4.427408e-02 4.455123e-02 4.419946e-02 4.458509e-02 4.415800e-02 4.458007e-02 4.414525e-02 4.454326e-02 4.416281e-02 4.450133e-02 4.423162e-02 4.451453e-02 4.441137e-02 4.471324e-02 4.486467e-02 4.540686e-02 4.599897e-02 4.730499e-02 4.886123e-02 5.233816e-02 5.464056e-02 5.030257e-02 5.218631e-02 5.096517e-02 5.168118e-02 5.249982e-02 5.119461e-02 5.288778e-02 4.997409e-02 5.190217e-02 4.948205e-02 4.871299e-02 4.866292e-02 4.669039e-02 4.866389e-02 4.802226e-02 4.641283e-02 4.628928e-02 4.539327e-02 4.556488e-02 4.492780e-02 4.517741e-02 4.475902e-02 4.498283e-02 4.478022e-02 4.488081e-02 4.489961e-02 4.479339e-02 4.504539e-02 4.468618e-02 4.519293e-02 4.457959e-02 4.534708e-02 4.450256e-02 4.549507e-02 4.446061e-02 4.560576e-02 4.445068e-02 4.565487e-02 4.447696e-02 4.563351e-02 4.454650e-02 4.554437e-02 4.466517e-02 4.540241e-02 4.483322e-02 4.522604e-02 4.503648e-02 4.503538e-02 4.525210e-02 4.485246e-02 4.544579e-02 4.469474e-02 4.558139e-02 4.458792e-02 4.563875e-02 4.456079e-02 4.560293e-02 4.461606e-02 4.544673e-02 4.469944e-02 4.511276e-02 4.465537e-02 4.447949e-02 4.416110e-02 4.329115e-02 4.244195e-02 4.049330e-02 3.939860e-02 3.808948e-02 3.779398e-02 
4.045727e-02 4.121776e-02 4.143280e-02 4.318054e-02 4.366562e-02 4.596165e-02 4.618204e-02 4.727792e-02 4.840842e-02 4.927749e-02 5.118563e-02 5.268019e-02 5.469155e-02 5.439373e-02 5.461180e-02 5.443559e-02 5.452300e-02 5.452123e-02 5.442911e-02 5.461652e-02 5.436653e-02 5.468108e-02 5.099334e-02 5.051533e-02 4.827810e-02 4.876034e-02 4.723770e-02 4.798349e-02 4.685406e-02 4.757017e-02 4.676113e-02 4.730708e-02 4.679843e-02 4.711803e-02 4.688880e-02 4.697948e-02 4.699315e-02 4.688689e-02 4.709137e-02 4.684018e-02 4.717462e-02 4.684056e-02 4.724531e-02 4.689359e-02 4.731913e-02 4.701231e-02 4.742633e-02 4.722094e-02 4.761521e-02 4.756417e-02 4.796178e-02 4.812289e-02 4.857428e-02 4.901210e-02 4.954087e-02 5.031954e-02 5.084442e-02 5.207772e-02 5.122315e-02 5.202356e-02 5.163518e-02 5.165313e-02 5.205503e-02 5.140201e-02 5.223193e-02 5.122236e-02 5.244053e-02 5.154168e-02 5.199950e-02 5.197138e-02 5.147226e-02 5.189834e-02 5.137760e-02 5.051814e-02 5.014338e-02 4.923072e-02 4.910175e-02 4.836088e-02 4.838947e-02 4.786574e-02 4.793883e-02 4.763554e-02 4.765308e-02 4.757053e-02 4.745444e-02 4.759610e-02 4.729842e-02 4.766771e-02 4.717264e-02 4.776064e-02 4.707919e-02 4.785351e-02 4.701985e-02 4.792407e-02 4.699551e-02 4.795562e-02 4.700951e-02 4.794060e-02 4.706542e-02 4.787860e-02 4.716278e-02 4.777533e-02 4.729653e-02 4.764319e-02 4.745641e-02 4.749811e-02 4.762431e-02 4.735555e-02 4.777592e-02 4.723117e-02 4.788823e-02 4.714229e-02 4.794422e-02 4.709994e-02 4.792733e-02 4.708917e-02 4.780636e-02 4.703907e-02 4.750699e-02 4.678020e-02 4.686212e-02 4.601330e-02 4.556140e-02 4.434416e-02 4.302256e-02 4.203611e-02 4.104296e-02 4.082012e-02 
3.738721e-02 3.818041e-02 3.861048e-02 4.044365e-02 4.126636e-02 4.370151e-02 4.376812e-02 4.503010e-02 4.585068e-02 4.701757e-02 4.873053e-02 5.039097e-02 5.229715e-02 5.200703e-02 5.218894e-02 5.202840e-02 5.211323e-02 5.208745e-02 5.204615e-02 5.216321e-02 5.200998e-02 5.233931e-02 4.901612e-02 4.837729e-02 4.612456e-02 4.647894e-02 4.494970e-02 4.559594e-02 4.448744e-02 4.511738e-02 4.435592e-02 4.481777e-02 4.438153e-02 4.461643e-02 4.448162e-02 4.448681e-02 4.460814e-02 4.441787e-02 4.473327e-02 4.440611e-02 4.484356e-02 4.444978e-02 4.494051e-02 4.455817e-02 4.504923e-02 4.475405e-02 4.520900e-02 4.506305e-02 4.546615e-02 4.552084e-02 4.588800e-02 4.619227e-02 4.656712e-02 4.716126e-02 4.756952e-02 4.845039e-02 4.877239e-02 4.979569e-02 4.936660e-02 5.017949e-02 4.988917e-02 5.023932e-02 5.031163e-02 5.007856e-02 5.038274e-02 4.968943e-02 4.996074e-02 4.921216e-02 4.909784e-02 4.859139e-02 4.827149e-02 4.792949e-02 4.775234e-02 4.712121e-02 4.712935e-02 4.646992e-02 4.659984e-02 4.599645e-02 4.616066e-02 4.568112e-02 4.580369e-02 4.550828e-02 4.551240e-02 4.544093e-02 4.525606e-02 4.543689e-02 4.502139e-02 4.547343e-02 4.481912e-02 4.553844e-02 4.466400e-02 4.561172e-02 4.455922e-02 4.566390e-02 4.450347e-02 4.567364e-02 4.450339e-02 4.563570e-02 4.456719e-02 4.554839e-02 4.468778e-02 4.540918e-02 4.485293e-02 4.523494e-02 4.505598e-02 4.505099e-02 4.527199e-02 4.487080e-02 4.546106e-02 4.471204e-02 4.559178e-02 4.460385e-02 4.564497e-02 4.457424e-02 4.560490e-02 4.462497e-02 4.544326e-02 4.470054e-02 4.510159e-02 4.464579e-02 4.446174e-02 4.414576e-02 4.327600e-02 4.242838e-02 4.048333e-02 3.938857e-02 3.808327e-02 3.778697e-02 
3.763441e-02 3.839561e-02 3.935658e-02 4.207913e-02 4.390289e-02 4.944091e-02 4.688965e-02 4.613028e-02 4.726306e-02 4.607321e-02 4.735399e-02 4.634139e-02 4.622392e-02 4.558551e-02 4.597877e-02 4.570198e-02 4.588669e-02 4.585546e-02 4.572090e-02 4.601574e-02 4.552202e-02 4.653798e-02 4.681454e-02 4.763061e-02 4.649731e-02 4.770632e-02 4.653224e-02 4.770914e-02 4.667526e-02 4.762454e-02 4.684974e-02 4.749378e-02 4.703459e-02 4.736558e-02 4.722746e-02 4.727312e-02 4.741548e-02 4.722828e-02 4.758689e-02 4.723873e-02 4.773572e-02 4.730467e-02 4.786453e-02 4.743658e-02 4.800183e-02 4.765840e-02 4.818147e-02 4.797998e-02 4.842131e-02 4.839741e-02 4.873859e-02 4.891339e-02 4.915566e-02 4.952545e-02 4.966997e-02 5.018821e-02 5.021543e-02 5.076212e-02 5.063592e-02 5.104625e-02 5.093724e-02 5.110590e-02 5.112619e-02 5.109544e-02 5.131670e-02 5.112259e-02 5.139159e-02 5.115295e-02 5.138228e-02 5.104637e-02 5.120624e-02 5.073967e-02 5.089812e-02 5.031436e-02 5.049261e-02 4.982381e-02 5.001803e-02 4.934330e-02 4.952705e-02 4.893817e-02 4.907722e-02 4.865534e-02 4.868912e-02 4.848112e-02 4.833972e-02 4.837942e-02 4.802061e-02 4.833419e-02 4.774808e-02 4.833778e-02 4.753832e-02 4.836907e-02 4.738975e-02 4.839297e-02 4.729579e-02 4.838559e-02 4.726433e-02 4.834493e-02 4.730751e-02 4.826727e-02 4.741211e-02 4.813802e-02 4.756054e-02 4.797357e-02 4.775472e-02 4.780188e-02 4.796992e-02 4.762635e-02 4.815994e-02 4.745967e-02 4.829561e-02 4.733622e-02 4.836713e-02 4.729833e-02 4.837558e-02 4.737358e-02 4.832396e-02 4.755634e-02 4.822958e-02 4.778059e-02 4.813965e-02 4.778941e-02 4.810679e-02 4.625438e-02 4.270498e-02 4.044589e-02 3.870001e-02 3.792918e-02 
3.038316e-02 3.133524e-02 3.422055e-02 3.843668e-02 4.518143e-02 4.756311e-02 4.163966e-02 4.129562e-02 4.039670e-02 3.885082e-02 3.824435e-02 3.570283e-02 3.497129e-02 3.443726e-02 3.482688e-02 3.454814e-02 3.474144e-02 3.468877e-02 3.458898e-02 3.483656e-02 3.439737e-02 3.499247e-02 3.681246e-02 3.915189e-02 3.909607e-02 4.097285e-02 4.029269e-02 4.180758e-02 4.106926e-02 4.213621e-02 4.158053e-02 4.216652e-02 4.193316e-02 4.211012e-02 4.224784e-02 4.208352e-02 4.252633e-02 4.209788e-02 4.276002e-02 4.217479e-02 4.293942e-02 4.228368e-02 4.304057e-02 4.244063e-02 4.314892e-02 4.273704e-02 4.335107e-02 4.318155e-02 4.363111e-02 4.371557e-02 4.397632e-02 4.433373e-02 4.443076e-02 4.505038e-02 4.501112e-02 4.583077e-02 4.567347e-02 4.653617e-02 4.624445e-02 4.697944e-02 4.664679e-02 4.714809e-02 4.690419e-02 4.716513e-02 4.710199e-02 4.707954e-02 4.703025e-02 4.676826e-02 4.674528e-02 4.621061e-02 4.627882e-02 4.555737e-02 4.578796e-02 4.504245e-02 4.542137e-02 4.461257e-02 4.503195e-02 4.416920e-02 4.454305e-02 4.376872e-02 4.409936e-02 4.357302e-02 4.376338e-02 4.351087e-02 4.340776e-02 4.346305e-02 4.301209e-02 4.344569e-02 4.266093e-02 4.350696e-02 4.241942e-02 4.362515e-02 4.226122e-02 4.370307e-02 4.213819e-02 4.368982e-02 4.208575e-02 4.363343e-02 4.218118e-02 4.354606e-02 4.236421e-02 4.332681e-02 4.256613e-02 4.303613e-02 4.288220e-02 4.278698e-02 4.327054e-02 4.252096e-02 4.358927e-02 4.222858e-02 4.379133e-02 4.199044e-02 4.388126e-02 4.191840e-02 4.387616e-02 4.209474e-02 4.375319e-02 4.255153e-02 4.350479e-02 4.336030e-02 4.334573e-02 4.475460e-02 4.420675e-02 4.801087e-02 4.212174e-02 3.576597e-02 3.250641e-02 3.060239e-02 
2.513195e-02 2.476601e-02 3.077539e-02 3.280957e-02 3.982487e-02 2.024196e-02 2.174823e-02 2.418256e-02 1.866712e-02 2.248968e-02 1.801956e-02 1.938374e-02 1.764549e-02 1.816005e-02 1.887137e-02 1.859792e-02 1.909488e-02 1.887072e-02 1.879565e-02 1.928265e-02 1.779367e-02 1.957064e-02 1.868680e-02 2.051064e-02 2.034972e-02 2.101985e-02 2.118436e-02 2.118898e-02 2.170741e-02 2.118980e-02 2.201132e-02 2.107203e-02 2.217315e-02 2.100010e-02 2.232980e-02 2.104986e-02 2.247590e-02 2.118794e-02 2.259243e-02 2.140967e-02 2.265870e-02 2.164723e-02 2.262968e-02 2.189788e-02 2.260585e-02 2.225877e-02 2.268298e-02 2.272300e-02 2.281431e-02 2.320007e-02 2.296749e-02 2.368057e-02 2.319649e-02 2.420429e-02 2.354563e-02 2.479438e-02 2.404404e-02 2.543433e-02 2.460387e-02 2.584257e-02 2.513101e-02 2.610673e-02 2.575815e-02 2.640216e-02 2.632775e-02 2.659524e-02 2.677620e-02 2.659024e-02 2.676220e-02 2.638644e-02 2.650692e-02 2.599313e-02 2.619207e-02 2.536213e-02 2.573169e-02 2.473132e-02 2.518009e-02 2.407624e-02 2.449499e-02 2.349393e-02 2.389167e-02 2.319837e-02 2.345967e-02 2.309483e-02 2.302692e-02 2.301789e-02 2.257013e-02 2.297443e-02 2.219450e-02 2.302155e-02 2.197306e-02 2.313064e-02 2.185802e-02 2.316766e-02 2.178358e-02 2.306195e-02 2.179473e-02 2.288612e-02 2.199121e-02 2.266477e-02 2.229447e-02 2.226853e-02 2.260190e-02 2.180564e-02 2.303125e-02 2.143606e-02 2.353516e-02 2.108437e-02 2.391297e-02 2.076541e-02 2.408392e-02 2.059769e-02 2.403697e-02 2.072090e-02 2.377703e-02 2.122505e-02 2.322853e-02 2.212484e-02 2.227006e-02 2.347624e-02 2.096059e-02 2.576108e-02 1.985021e-02 3.422506e-02 4.174527e-02 3.372617e-02 2.823995e-02 2.477365e-02 
5.667867e-03 7.306883e-03 1.030997e-02 1.900408e-02 1.101278e-02 2.364236e-02 1.584551e-02 1.193242e-02 1.727002e-02 1.104610e-02 1.739586e-02 1.102845e-02 1.768576e-02 1.343784e-02 1.909696e-02 1.581336e-02 1.874754e-02 1.694937e-02 1.762984e-02 1.744342e-02 1.512453e-02 1.620799e-02 1.308967e-02 1.562649e-02 1.280700e-02 1.538023e-02 1.280068e-02 1.522200e-02 1.295285e-02 1.506174e-02 1.316105e-02 1.486283e-02 1.336409e-02 1.466278e-02 1.358443e-02 1.447378e-02 1.380847e-02 1.429452e-02 1.401409e-02 1.414456e-02 1.418595e-02 1.402335e-02 1.430836e-02 1.394378e-02 1.442726e-02 1.394998e-02 1.457619e-02 1.405320e-02 1.472484e-02 1.421567e-02 1.486300e-02 1.441156e-02 1.500052e-02 1.462053e-02 1.512556e-02 1.479626e-02 1.520158e-02 1.484022e-02 1.516866e-02 1.478914e-02 1.502285e-02 1.462100e-02 1.476887e-02 1.448442e-02 1.474272e-02 1.455745e-02 1.476535e-02 1.468127e-02 1.499928e-02 1.475520e-02 1.514777e-02 1.475892e-02 1.515378e-02 1.489318e-02 1.525833e-02 1.497606e-02 1.527413e-02 1.494224e-02 1.516517e-02 1.483957e-02 1.503100e-02 1.476988e-02 1.491436e-02 1.473529e-02 1.474289e-02 1.468747e-02 1.452778e-02 1.462709e-02 1.432001e-02 1.459892e-02 1.414945e-02 1.462719e-02 1.399820e-02 1.467546e-02 1.385952e-02 1.472130e-02 1.375321e-02 1.480025e-02 1.371133e-02 1.490429e-02 1.372608e-02 1.495502e-02 1.373764e-02 1.499381e-02 1.377015e-02 1.501502e-02 1.386479e-02 1.492629e-02 1.395909e-02 1.474156e-02 1.403894e-02 1.450415e-02 1.415688e-02 1.426144e-02 1.438810e-02 1.406067e-02 1.473047e-02 1.394846e-02 1.515325e-02 1.390966e-02 1.587546e-02 1.376201e-02 1.792844e-02 1.304523e-02 2.307191e-02 1.777487e-02 1.150719e-02 6.537709e-03 
3.974202e-03 4.405563e-03 1.171209e-03 3.908841e-03 1.111668e-02 1.518738e-02 1.121278e-02 6.669935e-03 4.047322e-03 4.169265e-03 1.983913e-03 7.876194e-04 4.592481e-03 8.071469e-03 9.504367e-03 1.073653e-02 9.788794e-03 1.107611e-02 9.624836e-03 9.300892e-03 8.203330e-03 2.933424e-03 2.179830e-03 3.396808e-03 2.657381e-03 5.566140e-03 4.481998e-03 6.393486e-03 5.522751e-03 6.597487e-03 6.140826e-03 6.473572e-03 6.527966e-03 6.295712e-03 6.864113e-03 6.195471e-03 7.152124e-03 6.168293e-03 7.373269e-03 6.230094e-03 7.503449e-03 6.325553e-03 7.499613e-03 6.454321e-03 7.470542e-03 6.719835e-03 7.517800e-03 7.122579e-03 7.602618e-03 7.570078e-03 7.708543e-03 8.061689e-03 7.926562e-03 8.688101e-03 8.376523e-03 9.586918e-03 9.214390e-03 1.096433e-02 1.040978e-02 1.208528e-02 1.179419e-02 1.318912e-02 1.356546e-02 1.423268e-02 1.451686e-02 1.443740e-02 1.508913e-02 1.402170e-02 1.420010e-02 1.338807e-02 1.315872e-02 1.265917e-02 1.248950e-02 1.115788e-02 1.130928e-02 9.844921e-03 1.027564e-02 8.825821e-03 9.357580e-03 8.129780e-03 8.696924e-03 7.882503e-03 8.289790e-03 7.900715e-03 7.889514e-03 7.961691e-03 7.443685e-03 8.050109e-03 7.057422e-03 8.221510e-03 6.811769e-03 8.447661e-03 6.667888e-03 8.591343e-03 6.572090e-03 8.581813e-03 6.577875e-03 8.495022e-03 6.790352e-03 8.349620e-03 7.133905e-03 8.006429e-03 7.488597e-03 7.574605e-03 7.967237e-03 7.200590e-03 8.530112e-03 6.791950e-03 8.969532e-03 6.368880e-03 9.211090e-03 6.070812e-03 9.267639e-03 6.063968e-03 9.168210e-03 6.453384e-03 8.840642e-03 7.235465e-03 8.138278e-03 8.396140e-03 7.031861e-03 1.041062e-02 6.374401e-03 1.594773e-02 8.327445e-03 3.553244e-03 3.777530e-03 3.986281e-03 
6.030047e-04 1.302665e-03 8.710924e-04 9.482831e-04 4.103976e-03 6.275375e-03 6.329529e-03 1.480807e-03 5.720426e-03 5.163886e-03 7.996254e-03 1.095479e-02 1.286882e-02 1.266273e-02 9.644943e-03 4.338642e-03 5.659982e-03 4.125040e-03 6.314808e-03 7.328523e-03 1.255997e-02 1.353024e-02 9.851551e-03 7.275345e-03 4.580616e-03 3.398285e-03 2.359894e-03 2.054942e-03 1.465267e-03 1.754176e-03 1.040323e-03 1.778043e-03 7.685175e-04 1.837639e-03 5.496873e-04 1.841776e-03 3.909268e-04 1.780031e-03 2.993266e-04 1.652774e-03 2.716896e-04 1.494557e-03 3.101003e-04 1.307177e-03 3.670376e-04 1.053970e-03 3.830313e-04 7.694730e-04 3.709572e-04 5.980709e-04 4.108437e-04 7.789814e-04 6.811448e-04 1.396092e-03 1.385931e-03 2.430606e-03 2.675580e-03 3.938792e-03 3.111347e-03 4.674318e-03 3.995944e-03 5.334347e-03 5.155799e-03 5.085486e-03 5.457661e-03 5.225049e-03 6.708737e-03 5.973669e-03 6.369240e-03 6.472871e-03 5.913667e-03 6.360253e-03 6.343856e-03 5.236686e-03 5.102795e-03 3.667465e-03 3.693130e-03 2.254301e-03 2.464117e-03 1.232307e-03 1.569224e-03 6.375658e-04 9.620380e-04 3.577886e-04 5.171855e-04 3.336914e-04 3.526279e-04 4.211260e-04 5.438368e-04 5.506623e-04 7.236455e-04 6.961351e-04 8.172018e-04 7.755586e-04 8.506378e-04 7.378144e-04 8.006258e-04 6.175385e-04 6.342311e-04 4.553568e-04 4.681143e-04 3.867725e-04 4.903907e-04 6.766971e-04 7.772304e-04 1.037207e-03 1.206626e-03 1.363268e-03 1.569779e-03 1.628430e-03 1.764922e-03 1.749945e-03 1.765306e-03 1.632691e-03 1.578361e-03 1.264493e-03 1.219275e-03 9.252184e-04 9.062292e-04 1.342395e-03 1.489282e-03 2.441351e-03 3.544991e-03 5.026301e-03 1.886974e-03 1.056306e-03 1.241524e-03 6.140876e-04 
