# vtk DataFile Version 2.0
Comment goes here
ASCII

DATASET STRUCTURED_POINTS
FIELD FieldData 1
TIME 1 1 double
0.12000000
DIMENSIONS    128   16   1

ORIGIN    0.000   0.000   0.000
SPACING   0.0078125 0.015625   1.000

POINT_DATA   2048
SCALARS uMag double
LOOKUP_TABLE default

6.911838e-03 2.890779e-03 5.696270e-03 4.408280e-05 4.052811e-03 2.947670e-03 1.006709e-02 1.911976e-03 4.705649e-03 4.898637e-03 3.238340e-03 1.323687e-02 2.003626e-02 3.525822e-02 4.357491e-02 4.605286e-02 5.030693e-02 4.863949e-02 4.760662e-02 4.210086e-02 3.628959e-02 1.829951e-02 1.308477e-02 3.845126e-03 3.756694e-03 1.568115e-03 9.328084e-05 3.900930e-03 1.835927e-03 5.034011e-03 2.845459e-03 5.332158e-03 3.276219e-03 5.324135e-03 3.551822e-03 5.137504e-03 3.649194e-03 4.743420e-03 3.660466e-03 4.400976e-03 3.595608e-03 3.936231e-03 3.561798e-03 3.644615e-03 3.626072e-03 3.445802e-03 3.556113e-03 3.223487e-03 3.514835e-03 3.252401e-03 3.460991e-03 3.185072e-03 3.305191e-03 3.498973e-03 4.019116e-03 5.193679e-03 7.096873e-03 6.878325e-03 6.458018e-03 8.628496e-03 8.624310e-03 6.390315e-03 2.094502e-03 1.948471e-03 5.073869e-03 2.829139e-03 1.436406e-03 6.173049e-03 7.870676e-03 8.716286e-03 8.541351e-03 5.805621e-03 5.956178e-03 7.786767e-03 6.391177e-03 6.509506e-03 4.782402e-03 5.016441e-03 3.334063e-03 3.801086e-03 2.561962e-03 3.492372e-03 2.274598e-03 3.115421e-03 2.242908e-03 3.178809e-03 2.487274e-03 2.871021e-03 2.559196e-03 2.793671e-03 2.926972e-03 2.482779e-03 3.130129e-03 2.273002e-03 3.394944e-03 1.834061e-03 3.448291e-03 1.720278e-03 3.682156e-03 1.487989e-03 3.721514e-03 1.604110e-03 3.669518e-03 1.726128e-03 3.316383e-03 2.155882e-03 2.854848e-03 2.541382e-03 2.334376e-03 3.157965e-03 1.705657e-03 3.941634e-03 8.078409e-04 4.510194e-03 3.491466e-04 5.364767e-03 2.775034e-04 5.975895e-03 4.538686e-04 6.128044e-03 1.793935e-03 6.054776e-03 5.893601e-03 4.779916e-04 5.710809e-03 2.442184e-03 6.810273e-03 3.634798e-03 
2.796411e-03 1.313845e-03 3.078306e-03 3.747673e-03 3.681399e-03 9.765691e-03 7.947395e-03 6.336088e-03 4.708798e-03 8.419710e-03 8.455685e-03 1.688889e-02 2.275873e-02 2.346502e-02 1.091058e-02 7.051471e-03 2.967017e-03 3.620597e-03 6.962768e-03 1.157017e-02 2.445087e-02 2.374770e-02 1.462097e-02 9.124798e-03 5.118637e-03 3.422210e-03 2.864316e-03 2.010951e-03 1.818367e-03 1.691054e-03 7.547603e-04 1.416401e-03 8.386431e-04 1.632444e-03 7.633302e-04 1.577191e-03 3.213260e-04 1.156805e-03 5.103495e-04 9.719473e-04 5.691810e-04 3.467470e-04 5.622425e-04 2.889881e-04 5.600498e-04 5.671118e-04 5.010049e-04 7.022649e-04 2.888958e-04 8.404381e-05 1.010667e-03 9.305846e-04 2.084484e-03 3.135760e-03 5.858414e-03 9.322107e-03 8.886116e-03 5.888949e-03 5.843502e-03 7.505618e-03 6.527731e-03 1.412272e-02 1.065078e-02 6.851182e-03 4.802126e-03 9.072325e-03 8.487056e-03 1.770481e-02 7.293006e-03 4.272881e-03 5.208807e-03 7.053619e-03 5.304927e-03 3.527630e-03 5.841263e-03 4.649865e-03 4.024744e-03 3.095759e-03 3.178012e-03 1.826781e-03 1.783616e-03 6.802514e-04 1.620291e-03 8.127347e-04 1.272760e-03 3.206882e-04 1.407036e-03 1.253951e-03 1.476097e-03 1.342376e-03 8.373279e-04 1.466988e-03 5.167138e-04 1.699749e-03 1.738943e-04 2.143595e-03 5.280271e-04 1.998717e-03 3.285264e-04 2.261535e-03 5.359865e-04 1.978864e-03 6.585381e-04 1.804359e-03 2.031226e-04 1.721908e-03 7.300280e-04 1.547676e-03 1.236019e-03 9.882341e-04 2.025206e-03 8.523265e-04 2.937790e-03 8.176046e-04 3.319005e-03 1.939221e-03 3.516488e-03 2.651140e-03 3.589277e-03 3.541882e-03 2.287273e-03 5.472344e-03 5.653846e-03 6.425193e-03 2.920459e-03 1.792971e-03 3.157801e-03 1.076614e-04 
9.818218e-03 7.771511e-03 8.464057e-03 6.635981e-03 1.015276e-02 2.524943e-02 9.791110e-03 1.477154e-02 3.140589e-03 1.110309e-02 1.106708e-03 1.017577e-02 9.811345e-03 1.606634e-02 1.907466e-02 1.932558e-02 2.046785e-02 2.098720e-02 1.865464e-02 1.870696e-02 1.562413e-02 8.841555e-03 4.952049e-03 1.476640e-03 5.409440e-03 5.523323e-03 9.388840e-03 7.964799e-03 1.090621e-02 8.106059e-03 1.040082e-02 8.007826e-03 1.047498e-02 8.943532e-03 1.094538e-02 8.989432e-03 1.019051e-02 8.412035e-03 9.491336e-03 8.491076e-03 1.018159e-02 9.776761e-03 1.055978e-02 1.001504e-02 9.786837e-03 1.018239e-02 1.038320e-02 1.092928e-02 1.048180e-02 1.048929e-02 1.034402e-02 1.104512e-02 1.223273e-02 1.337394e-02 1.556707e-02 1.753015e-02 2.050098e-02 2.035127e-02 1.851362e-02 2.071210e-02 1.974081e-02 1.574371e-02 1.077653e-02 7.837564e-03 1.386625e-02 1.661490e-02 7.866911e-03 1.683692e-02 1.873040e-02 1.855300e-02 2.058460e-02 1.513932e-02 1.590307e-02 1.632582e-02 1.633505e-02 1.468178e-02 1.424619e-02 1.241946e-02 1.287528e-02 1.160974e-02 1.273868e-02 1.143353e-02 1.227274e-02 1.036529e-02 1.122934e-02 1.005594e-02 1.146370e-02 1.070964e-02 1.139845e-02 1.093185e-02 1.079820e-02 1.035533e-02 9.793235e-03 1.077627e-02 9.990409e-03 1.139692e-02 9.853268e-03 1.134291e-02 9.111060e-03 1.128077e-02 9.014070e-03 1.160349e-02 9.117238e-03 1.181822e-02 1.005977e-02 1.246203e-02 1.081659e-02 1.170043e-02 1.087394e-02 1.132126e-02 1.231365e-02 1.168008e-02 1.335199e-02 1.024471e-02 1.304823e-02 8.773555e-03 1.322772e-02 8.114122e-03 1.427739e-02 9.159823e-03 1.526555e-02 1.209717e-02 2.431544e-02 1.430273e-02 1.041935e-02 3.788959e-03 9.417645e-03 7.817827e-03 
9.181011e-03 1.228237e-02 1.683351e-02 2.489448e-02 3.556006e-02 1.499482e-02 2.759622e-02 2.030684e-02 2.273064e-02 2.081640e-02 2.085513e-02 2.140141e-02 1.834608e-02 2.350334e-02 2.154346e-02 2.536835e-02 2.215256e-02 2.560398e-02 2.184991e-02 2.464194e-02 2.036729e-02 2.071353e-02 2.050382e-02 2.180275e-02 2.087637e-02 2.129360e-02 2.101864e-02 2.146705e-02 2.197269e-02 2.177957e-02 2.189158e-02 2.090503e-02 2.179753e-02 2.166160e-02 2.289506e-02 2.228859e-02 2.265860e-02 2.119412e-02 2.208240e-02 2.135320e-02 2.262398e-02 2.159377e-02 2.226482e-02 2.124562e-02 2.152505e-02 2.111701e-02 2.130395e-02 2.082655e-02 2.094157e-02 2.095021e-02 2.129474e-02 2.213208e-02 2.315943e-02 2.466581e-02 2.596502e-02 2.748218e-02 2.724966e-02 2.501450e-02 2.409964e-02 2.625532e-02 2.410554e-02 2.713705e-02 2.629250e-02 2.465059e-02 2.762706e-02 2.482294e-02 2.349807e-02 2.479023e-02 2.210615e-02 2.000318e-02 2.288467e-02 2.042038e-02 2.088941e-02 2.136480e-02 2.038957e-02 2.070811e-02 2.144145e-02 2.169051e-02 2.113280e-02 2.064411e-02 2.176939e-02 2.218756e-02 2.221698e-02 2.083685e-02 2.121421e-02 2.123004e-02 2.168988e-02 2.019532e-02 2.037555e-02 2.024850e-02 2.058421e-02 1.958546e-02 1.972726e-02 1.995773e-02 2.042487e-02 2.000118e-02 2.001921e-02 2.080323e-02 2.017448e-02 2.019418e-02 1.993637e-02 2.135077e-02 2.101508e-02 2.232160e-02 2.137929e-02 2.339023e-02 2.115770e-02 2.239607e-02 2.067294e-02 2.256450e-02 2.157364e-02 2.391763e-02 2.142991e-02 2.269479e-02 2.076957e-02 2.232225e-02 2.013336e-02 2.196952e-02 2.045555e-02 2.199178e-02 2.260077e-02 2.288431e-02 3.045485e-02 3.708348e-02 3.735529e-02 1.468643e-02 1.190183e-02 9.373008e-03 
3.205158e-02 3.598193e-02 3.772442e-02 4.751903e-02 5.768483e-02 5.431064e-02 2.660675e-02 3.809650e-02 2.610069e-02 3.387540e-02 2.494382e-02 2.895113e-02 1.853288e-02 2.257810e-02 2.154926e-02 2.254532e-02 2.261899e-02 2.235136e-02 2.297607e-02 2.172091e-02 2.226600e-02 1.998319e-02 2.613180e-02 2.532345e-02 2.986869e-02 2.962948e-02 3.287768e-02 3.156275e-02 3.342363e-02 3.138372e-02 3.286406e-02 3.170980e-02 3.284010e-02 3.211943e-02 3.261068e-02 3.182143e-02 3.197555e-02 3.171610e-02 3.140405e-02 3.162514e-02 3.205183e-02 3.296143e-02 3.276893e-02 3.356572e-02 3.253431e-02 3.392148e-02 3.366185e-02 3.518745e-02 3.424292e-02 3.485012e-02 3.435994e-02 3.568605e-02 3.635566e-02 3.774965e-02 3.958280e-02 4.240058e-02 4.575319e-02 4.094606e-02 4.036311e-02 4.358030e-02 3.994929e-02 4.162135e-02 3.656573e-02 3.546225e-02 4.043140e-02 4.044292e-02 3.393097e-02 4.320074e-02 3.878102e-02 3.793739e-02 4.260827e-02 3.504338e-02 3.542711e-02 3.665180e-02 3.666882e-02 3.633206e-02 3.540214e-02 3.441231e-02 3.480586e-02 3.485119e-02 3.492515e-02 3.403600e-02 3.442926e-02 3.383359e-02 3.386129e-02 3.330319e-02 3.391732e-02 3.472365e-02 3.493169e-02 3.506345e-02 3.429995e-02 3.494000e-02 3.368463e-02 3.494607e-02 3.354147e-02 3.558435e-02 3.355084e-02 3.487399e-02 3.260031e-02 3.504049e-02 3.254972e-02 3.461193e-02 3.197301e-02 3.428687e-02 3.283337e-02 3.434792e-02 3.380382e-02 3.412037e-02 3.401924e-02 3.399567e-02 3.499656e-02 3.354775e-02 3.660996e-02 3.289894e-02 3.654346e-02 3.167204e-02 3.723576e-02 3.153563e-02 3.855423e-02 3.256294e-02 3.905972e-02 3.396182e-02 3.889585e-02 6.886507e-02 4.910526e-02 4.142671e-02 3.326389e-02 3.461388e-02 
3.725505e-02 3.930701e-02 4.066949e-02 4.556990e-02 5.256181e-02 6.392224e-02 5.878007e-02 5.995899e-02 5.456026e-02 5.709526e-02 5.216281e-02 5.399904e-02 4.646918e-02 4.628723e-02 4.606687e-02 4.621304e-02 4.619013e-02 4.611485e-02 4.627109e-02 4.602627e-02 4.622965e-02 4.634589e-02 5.142005e-02 5.157125e-02 5.445203e-02 5.436525e-02 5.697038e-02 5.649461e-02 5.842516e-02 5.694823e-02 5.829374e-02 5.671966e-02 5.824184e-02 5.751220e-02 5.887355e-02 5.772015e-02 5.828743e-02 5.691958e-02 5.760766e-02 5.707621e-02 5.812026e-02 5.792984e-02 5.834264e-02 5.796882e-02 5.767798e-02 5.799595e-02 5.787827e-02 5.823469e-02 5.761683e-02 5.767409e-02 5.729918e-02 5.779526e-02 5.818323e-02 5.877456e-02 5.925780e-02 5.933414e-02 5.844351e-02 5.750556e-02 5.860026e-02 6.025338e-02 5.705276e-02 5.994920e-02 6.241723e-02 6.194712e-02 6.282677e-02 6.455850e-02 6.514043e-02 6.419876e-02 6.288346e-02 6.203104e-02 6.330760e-02 6.425656e-02 6.313573e-02 6.203512e-02 6.143456e-02 6.083885e-02 6.103532e-02 6.026089e-02 6.014134e-02 5.938628e-02 6.035548e-02 5.987814e-02 6.016504e-02 5.859868e-02 5.910908e-02 5.864323e-02 5.934667e-02 5.860960e-02 5.894211e-02 5.881006e-02 5.874350e-02 5.822456e-02 5.778040e-02 5.863112e-02 5.810001e-02 5.894210e-02 5.775238e-02 5.905216e-02 5.731546e-02 5.872093e-02 5.702638e-02 5.925147e-02 5.746706e-02 5.958066e-02 5.813097e-02 6.031359e-02 5.851523e-02 5.954477e-02 5.841314e-02 5.932951e-02 5.966165e-02 6.004225e-02 6.026241e-02 5.888511e-02 5.976416e-02 5.794793e-02 5.996295e-02 5.753311e-02 6.090994e-02 5.813474e-02 6.251811e-02 5.956900e-02 6.620089e-02 6.283248e-02 4.712812e-02 4.434782e-02 3.892679e-02 3.899207e-02 
4.821233e-02 5.023531e-02 4.982232e-02 5.331766e-02 5.416961e-02 6.003565e-02 6.269642e-02 6.403191e-02 6.207302e-02 6.461432e-02 6.267920e-02 6.629559e-02 6.480453e-02 6.343121e-02 6.315743e-02 6.337213e-02 6.332726e-02 6.326719e-02 6.341723e-02 6.315315e-02 6.336874e-02 6.435173e-02 6.496134e-02 6.337794e-02 6.368574e-02 6.274177e-02 6.358126e-02 6.291416e-02 6.391403e-02 6.301542e-02 6.384811e-02 6.274912e-02 6.370608e-02 6.300443e-02 6.394981e-02 6.319412e-02 6.374074e-02 6.288274e-02 6.348030e-02 6.307837e-02 6.358114e-02 6.333042e-02 6.354284e-02 6.341278e-02 6.334883e-02 6.351087e-02 6.323591e-02 6.345581e-02 6.304901e-02 6.336117e-02 6.290821e-02 6.320239e-02 6.273335e-02 6.279380e-02 6.168210e-02 6.060658e-02 5.881542e-02 6.305919e-02 6.306149e-02 6.108195e-02 6.239533e-02 6.103637e-02 6.146057e-02 6.351967e-02 6.040292e-02 6.163246e-02 6.491986e-02 6.054936e-02 6.302023e-02 6.374576e-02 5.978919e-02 6.423269e-02 6.428770e-02 6.347798e-02 6.383341e-02 6.378888e-02 6.437116e-02 6.430374e-02 6.431125e-02 6.394299e-02 6.449356e-02 6.441704e-02 6.455410e-02 6.390238e-02 6.416622e-02 6.408409e-02 6.422662e-02 6.379806e-02 6.373917e-02 6.389659e-02 6.369681e-02 6.373703e-02 6.326084e-02 6.398767e-02 6.331818e-02 6.405616e-02 6.303500e-02 6.433772e-02 6.296063e-02 6.416485e-02 6.278859e-02 6.454412e-02 6.318058e-02 6.481102e-02 6.343535e-02 6.512053e-02 6.358367e-02 6.474774e-02 6.371315e-02 6.458660e-02 6.429740e-02 6.481463e-02 6.440349e-02 6.415643e-02 6.428131e-02 6.368724e-02 6.414998e-02 6.322025e-02 6.401686e-02 6.295331e-02 6.402173e-02 6.301772e-02 6.438945e-02 5.846649e-02 5.430439e-02 5.263079e-02 4.967667e-02 4.995463e-02 
4.787289e-02 4.914171e-02 4.941852e-02 5.190980e-02 5.308075e-02 5.638778e-02 5.773374e-02 6.010463e-02 6.107503e-02 6.294417e-02 6.555061e-02 6.732830e-02 7.423254e-02 7.400130e-02 7.391159e-02 7.397845e-02 7.395536e-02 7.394448e-02 7.398797e-02 7.391471e-02 7.399539e-02 7.413651e-02 6.830601e-02 6.704518e-02 6.435479e-02 6.343235e-02 6.248832e-02 6.156957e-02 6.158210e-02 6.053762e-02 6.104276e-02 5.995061e-02 6.074243e-02 5.973896e-02 6.061104e-02 5.962728e-02 6.041130e-02 5.950014e-02 6.022869e-02 5.954062e-02 6.017395e-02 5.967905e-02 6.008848e-02 5.974839e-02 5.990909e-02 5.977480e-02 5.977052e-02 5.976217e-02 5.960934e-02 5.967358e-02 5.947667e-02 5.961811e-02 5.942687e-02 5.953875e-02 5.914772e-02 5.894842e-02 5.847823e-02 6.012234e-02 5.904462e-02 5.772242e-02 5.937874e-02 5.866556e-02 5.835607e-02 5.968626e-02 5.879580e-02 5.863804e-02 5.912781e-02 5.754947e-02 5.799522e-02 5.775819e-02 5.653662e-02 5.732051e-02 5.799643e-02 5.826193e-02 5.923953e-02 5.933705e-02 6.010055e-02 5.991319e-02 6.051552e-02 6.014353e-02 6.078913e-02 6.034037e-02 6.088020e-02 6.030192e-02 6.079420e-02 6.034139e-02 6.072630e-02 6.035096e-02 6.054804e-02 6.040277e-02 6.036311e-02 6.042291e-02 6.012320e-02 6.057413e-02 6.001385e-02 6.074407e-02 5.988223e-02 6.089987e-02 5.976664e-02 6.096974e-02 5.970983e-02 6.111446e-02 5.982596e-02 6.123680e-02 6.003361e-02 6.131278e-02 6.025461e-02 6.116804e-02 6.046692e-02 6.098240e-02 6.077092e-02 6.078572e-02 6.093775e-02 6.030669e-02 6.089571e-02 5.972110e-02 6.071256e-02 5.905667e-02 6.027488e-02 5.822562e-02 5.927639e-02 5.696403e-02 5.725509e-02 5.445069e-02 5.236454e-02 5.083538e-02 4.894242e-02 4.878283e-02 
5.254191e-02 5.396794e-02 5.361842e-02 5.608267e-02 5.657970e-02 5.958257e-02 6.088719e-02 6.309563e-02 6.423690e-02 6.598810e-02 6.852261e-02 6.993559e-02 7.708092e-02 7.727486e-02 7.713589e-02 7.724476e-02 7.720891e-02 7.719370e-02 7.726464e-02 7.714649e-02 7.728124e-02 7.712349e-02 7.140228e-02 7.033427e-02 6.780538e-02 6.689519e-02 6.595489e-02 6.508986e-02 6.504442e-02 6.418452e-02 6.460932e-02 6.374707e-02 6.439276e-02 6.357912e-02 6.427921e-02 6.352818e-02 6.417112e-02 6.351809e-02 6.407702e-02 6.358986e-02 6.401368e-02 6.368896e-02 6.392707e-02 6.375248e-02 6.378567e-02 6.377114e-02 6.362768e-02 6.374382e-02 6.344843e-02 6.366754e-02 6.326039e-02 6.355878e-02 6.307742e-02 6.344631e-02 6.287395e-02 6.323631e-02 6.247701e-02 6.310360e-02 6.278338e-02 6.279782e-02 6.279817e-02 6.296123e-02 6.277824e-02 6.324159e-02 6.264575e-02 6.284467e-02 6.294384e-02 6.258813e-02 6.268452e-02 6.283047e-02 6.247162e-02 6.302879e-02 6.294641e-02 6.319395e-02 6.336565e-02 6.346748e-02 6.372592e-02 6.369133e-02 6.394950e-02 6.382046e-02 6.413835e-02 6.397854e-02 6.425927e-02 6.406662e-02 6.430361e-02 6.416876e-02 6.427927e-02 6.420302e-02 6.415948e-02 6.426213e-02 6.403041e-02 6.433116e-02 6.388874e-02 6.447519e-02 6.380774e-02 6.464899e-02 6.374649e-02 6.482621e-02 6.368766e-02 6.490604e-02 6.362865e-02 6.497579e-02 6.365781e-02 6.503098e-02 6.376981e-02 6.506378e-02 6.393104e-02 6.498876e-02 6.409802e-02 6.483652e-02 6.425435e-02 6.462517e-02 6.433149e-02 6.428647e-02 6.431298e-02 6.385902e-02 6.412333e-02 6.327039e-02 6.361273e-02 6.233646e-02 6.253641e-02 6.077307e-02 6.051603e-02 5.800716e-02 5.651916e-02 5.520467e-02 5.358007e-02 5.367792e-02 
4.789484e-02 4.916654e-02 4.944138e-02 5.193445e-02 5.310247e-02 5.640700e-02 5.774637e-02 6.010569e-02 6.108437e-02 6.293940e-02 6.553084e-02 6.731132e-02 7.420779e-02 7.399862e-02 7.390615e-02 7.398385e-02 7.395954e-02 7.395651e-02 7.400080e-02 7.393254e-02 7.401378e-02 7.414312e-02 6.827517e-02 6.706446e-02 6.436402e-02 6.348856e-02 6.242657e-02 6.149410e-02 6.140265e-02 6.041224e-02 6.092500e-02 5.990025e-02 6.070891e-02 5.965927e-02 6.056843e-02 5.957541e-02 6.046363e-02 5.958349e-02 6.039687e-02 5.967597e-02 6.034615e-02 5.979725e-02 6.025884e-02 5.984490e-02 6.006940e-02 5.983379e-02 5.989127e-02 5.981355e-02 5.970341e-02 5.973981e-02 5.952762e-02 5.966865e-02 5.941646e-02 5.965867e-02 5.941677e-02 5.974834e-02 5.950324e-02 5.986492e-02 5.958805e-02 5.963879e-02 5.957445e-02 5.957907e-02 5.934539e-02 5.943155e-02 5.916245e-02 5.909738e-02 5.904959e-02 5.885243e-02 5.894218e-02 5.884887e-02 5.890237e-02 5.884326e-02 5.908467e-02 5.891795e-02 5.932390e-02 5.907433e-02 5.957575e-02 5.921665e-02 5.979107e-02 5.940251e-02 6.008370e-02 5.966632e-02 6.033510e-02 5.991638e-02 6.053058e-02 6.011071e-02 6.052786e-02 6.016727e-02 6.039647e-02 6.022723e-02 6.024003e-02 6.035019e-02 6.011555e-02 6.055514e-02 6.005258e-02 6.085902e-02 6.009329e-02 6.114580e-02 6.002640e-02 6.120935e-02 5.987725e-02 6.117583e-02 5.981241e-02 6.116004e-02 5.991917e-02 6.114462e-02 6.013302e-02 6.106224e-02 6.033696e-02 6.081809e-02 6.048903e-02 6.049649e-02 6.067797e-02 6.017653e-02 6.085050e-02 5.976659e-02 6.084331e-02 5.925509e-02 6.048959e-02 5.841204e-02 5.941578e-02 5.703998e-02 5.730427e-02 5.448581e-02 5.239013e-02 5.086044e-02 4.896373e-02 4.880679e-02 
4.825958e-02 5.028850e-02 4.986639e-02 5.336224e-02 5.419612e-02 6.004471e-02 6.265911e-02 6.394826e-02 6.206866e-02 6.462921e-02 6.265467e-02 6.627117e-02 6.475044e-02 6.342869e-02 6.314631e-02 6.336717e-02 6.332570e-02 6.327073e-02 6.343452e-02 6.318205e-02 6.342730e-02 6.432941e-02 6.460938e-02 6.321024e-02 6.367417e-02 6.301975e-02 6.359646e-02 6.277451e-02 6.347003e-02 6.264767e-02 6.365535e-02 6.281551e-02 6.380227e-02 6.282382e-02 6.371366e-02 6.283467e-02 6.367203e-02 6.296130e-02 6.367742e-02 6.312441e-02 6.366569e-02 6.332246e-02 6.365919e-02 6.340851e-02 6.342088e-02 6.335156e-02 6.323678e-02 6.336428e-02 6.302096e-02 6.324432e-02 6.272714e-02 6.301827e-02 6.240677e-02 6.285798e-02 6.235531e-02 6.301044e-02 6.257952e-02 6.314635e-02 6.264538e-02 6.312685e-02 6.270862e-02 6.303551e-02 6.250443e-02 6.270476e-02 6.227625e-02 6.256292e-02 6.239199e-02 6.270043e-02 6.267447e-02 6.296678e-02 6.299062e-02 6.313796e-02 6.301656e-02 6.291211e-02 6.293045e-02 6.287032e-02 6.298166e-02 6.270055e-02 6.290771e-02 6.274019e-02 6.320202e-02 6.296223e-02 6.340731e-02 6.330581e-02 6.384034e-02 6.364984e-02 6.383832e-02 6.363800e-02 6.374085e-02 6.371655e-02 6.353694e-02 6.375384e-02 6.339612e-02 6.397123e-02 6.334414e-02 6.435805e-02 6.357171e-02 6.483361e-02 6.353641e-02 6.481921e-02 6.323692e-02 6.459577e-02 6.292356e-02 6.447038e-02 6.302768e-02 6.457056e-02 6.337819e-02 6.466963e-02 6.365221e-02 6.445337e-02 6.365972e-02 6.407135e-02 6.378325e-02 6.389337e-02 6.417816e-02 6.379658e-02 6.454350e-02 6.383415e-02 6.467581e-02 6.347346e-02 6.425198e-02 6.295027e-02 6.432358e-02 5.846711e-02 5.431600e-02 5.267073e-02 4.971647e-02 5.000674e-02 
3.731176e-02 3.937785e-02 4.073736e-02 4.565125e-02 5.262854e-02 6.398368e-02 5.879797e-02 5.998483e-02 5.470211e-02 5.704719e-02 5.196810e-02 5.386164e-02 4.641642e-02 4.629277e-02 4.605824e-02 4.622368e-02 4.619545e-02 4.614075e-02 4.630434e-02 4.607644e-02 4.630140e-02 4.648701e-02 5.139816e-02 5.171932e-02 5.488850e-02 5.501853e-02 5.684053e-02 5.592995e-02 5.728027e-02 5.617931e-02 5.782986e-02 5.681090e-02 5.836644e-02 5.703677e-02 5.844238e-02 5.730374e-02 5.842247e-02 5.745725e-02 5.855160e-02 5.783702e-02 5.872802e-02 5.833356e-02 5.885418e-02 5.826542e-02 5.821874e-02 5.803079e-02 5.807098e-02 5.813199e-02 5.776359e-02 5.784826e-02 5.738253e-02 5.760019e-02 5.712261e-02 5.745590e-02 5.715341e-02 5.781100e-02 5.768942e-02 5.810477e-02 5.772948e-02 5.818201e-02 5.792150e-02 5.808504e-02 5.742990e-02 5.720481e-02 5.668616e-02 5.681699e-02 5.678014e-02 5.697150e-02 5.719388e-02 5.737485e-02 5.771677e-02 5.751666e-02 5.759268e-02 5.700266e-02 5.715986e-02 5.667275e-02 5.707753e-02 5.634375e-02 5.682513e-02 5.642685e-02 5.761573e-02 5.720825e-02 5.819407e-02 5.790398e-02 5.910644e-02 5.850204e-02 5.892145e-02 5.808421e-02 5.835644e-02 5.786105e-02 5.803377e-02 5.808208e-02 5.791277e-02 5.825797e-02 5.774957e-02 5.917496e-02 5.875167e-02 6.034972e-02 5.861879e-02 5.992768e-02 5.773575e-02 5.931428e-02 5.726648e-02 5.927853e-02 5.751602e-02 5.936254e-02 5.813663e-02 5.962845e-02 5.848089e-02 5.893829e-02 5.821541e-02 5.820726e-02 5.874582e-02 5.840504e-02 5.978774e-02 5.816296e-02 6.061668e-02 5.864350e-02 6.199412e-02 5.894086e-02 6.305572e-02 5.968645e-02 6.615016e-02 6.277489e-02 4.710768e-02 4.437054e-02 3.896118e-02 3.904714e-02 
3.217201e-02 3.611357e-02 3.785226e-02 4.767730e-02 5.783136e-02 5.453001e-02 2.683822e-02 3.850880e-02 2.629145e-02 3.348424e-02 2.445012e-02 2.861602e-02 1.836642e-02 2.252922e-02 2.135733e-02 2.224276e-02 2.233966e-02 2.199048e-02 2.254319e-02 2.146781e-02 2.213624e-02 2.011948e-02 2.717117e-02 2.609911e-02 3.056985e-02 2.919266e-02 3.205511e-02 3.020086e-02 3.219719e-02 3.043292e-02 3.193980e-02 3.086197e-02 3.225533e-02 3.159576e-02 3.284039e-02 3.260769e-02 3.304722e-02 3.298955e-02 3.331591e-02 3.362634e-02 3.362058e-02 3.416870e-02 3.352025e-02 3.384261e-02 3.272356e-02 3.348537e-02 3.253790e-02 3.340065e-02 3.224002e-02 3.307570e-02 3.222371e-02 3.324536e-02 3.269413e-02 3.340551e-02 3.276092e-02 3.328631e-02 3.274462e-02 3.311079e-02 3.264046e-02 3.315033e-02 3.273331e-02 3.314437e-02 3.246121e-02 3.257094e-02 3.182020e-02 3.217177e-02 3.180510e-02 3.209146e-02 3.199246e-02 3.236936e-02 3.229521e-02 3.238944e-02 3.256768e-02 3.251839e-02 3.243079e-02 3.202201e-02 3.229675e-02 3.216616e-02 3.247924e-02 3.252906e-02 3.339806e-02 3.369009e-02 3.425041e-02 3.418424e-02 3.445760e-02 3.413478e-02 3.387095e-02 3.341587e-02 3.263104e-02 3.267842e-02 3.232215e-02 3.324171e-02 3.233613e-02 3.335477e-02 3.227608e-02 3.446324e-02 3.333871e-02 3.543730e-02 3.306059e-02 3.508630e-02 3.246621e-02 3.479703e-02 3.284345e-02 3.508388e-02 3.320689e-02 3.453210e-02 3.344647e-02 3.397017e-02 3.359488e-02 3.264366e-02 3.375548e-02 3.192118e-02 3.502254e-02 3.218185e-02 3.615161e-02 3.119044e-02 3.653330e-02 3.108416e-02 3.795950e-02 3.207829e-02 3.933424e-02 3.474840e-02 3.947280e-02 6.907573e-02 4.923149e-02 4.157496e-02 3.340039e-02 3.474606e-02 
9.251726e-03 1.235519e-02 1.692656e-02 2.501531e-02 3.572044e-02 1.482956e-02 2.739602e-02 1.989576e-02 2.301011e-02 2.072837e-02 2.090049e-02 2.131806e-02 1.807956e-02 2.336967e-02 2.123588e-02 2.519461e-02 2.202432e-02 2.566954e-02 2.173939e-02 2.427908e-02 2.002261e-02 1.989551e-02 1.966859e-02 2.098826e-02 2.069182e-02 2.178383e-02 2.119091e-02 2.147964e-02 2.116546e-02 2.119519e-02 2.184358e-02 2.152974e-02 2.224705e-02 2.109143e-02 2.187637e-02 2.051899e-02 2.151556e-02 2.028889e-02 2.150187e-02 2.025207e-02 2.150999e-02 2.048608e-02 2.166732e-02 2.069503e-02 2.133821e-02 2.048359e-02 2.124879e-02 2.067473e-02 2.097867e-02 2.041714e-02 2.034140e-02 1.986653e-02 1.956480e-02 1.953551e-02 1.957262e-02 2.024880e-02 2.046127e-02 2.093458e-02 2.073772e-02 2.119401e-02 2.101085e-02 2.114007e-02 2.066782e-02 2.052419e-02 2.025508e-02 2.058158e-02 2.077064e-02 2.127491e-02 2.157876e-02 2.190737e-02 2.221509e-02 2.210141e-02 2.192756e-02 2.135008e-02 2.147240e-02 2.115662e-02 2.127171e-02 2.041581e-02 2.054668e-02 2.015154e-02 2.095600e-02 2.021645e-02 2.090978e-02 2.066881e-02 2.192706e-02 2.144874e-02 2.210975e-02 2.150454e-02 2.220381e-02 2.154056e-02 2.203917e-02 2.139205e-02 2.184120e-02 2.145739e-02 2.188636e-02 2.205608e-02 2.256122e-02 2.272120e-02 2.219847e-02 2.237854e-02 2.129832e-02 2.151037e-02 2.023881e-02 2.127377e-02 2.029551e-02 2.189297e-02 2.095004e-02 2.280681e-02 2.151056e-02 2.293176e-02 2.081099e-02 2.282548e-02 2.037253e-02 2.317639e-02 2.107400e-02 2.345398e-02 2.179383e-02 2.438403e-02 2.273789e-02 2.370380e-02 2.341635e-02 2.259831e-02 2.982835e-02 3.741465e-02 3.753533e-02 1.484163e-02 1.202208e-02 9.457910e-03 
9.808823e-03 7.766359e-03 8.480335e-03 6.699073e-03 1.029964e-02 2.525524e-02 9.785874e-03 1.466388e-02 3.937832e-03 1.035784e-02 1.307495e-03 1.047505e-02 9.859859e-03 1.576035e-02 1.923736e-02 1.957921e-02 2.068693e-02 2.118428e-02 1.917587e-02 1.901826e-02 1.663926e-02 8.580349e-03 4.647842e-03 2.424278e-03 6.463768e-03 5.845581e-03 8.931698e-03 6.962672e-03 9.438042e-03 7.156342e-03 9.671557e-03 7.623192e-03 1.020269e-02 8.076752e-03 1.051395e-02 8.593359e-03 1.039156e-02 8.804923e-03 1.055835e-02 9.383719e-03 1.078980e-02 1.008420e-02 1.085003e-02 1.000813e-02 1.005789e-02 9.767612e-03 9.906741e-03 9.869663e-03 9.520040e-03 9.476096e-03 9.162229e-03 9.354913e-03 9.110719e-03 9.265403e-03 9.080056e-03 9.426223e-03 9.358278e-03 9.578855e-03 9.493276e-03 9.671338e-03 9.660897e-03 9.938382e-03 9.721589e-03 9.593569e-03 8.942202e-03 9.020814e-03 9.150464e-03 8.483016e-03 8.564005e-03 8.247703e-03 8.529380e-03 8.239214e-03 8.671528e-03 7.957381e-03 8.799821e-03 7.876819e-03 8.986505e-03 7.973516e-03 9.188924e-03 8.405752e-03 1.037592e-02 9.622633e-03 1.120911e-02 1.035663e-02 1.201713e-02 1.091706e-02 1.171460e-02 1.050284e-02 1.077767e-02 9.979647e-03 1.043718e-02 1.049294e-02 1.029233e-02 1.068519e-02 1.012113e-02 1.188112e-02 1.119335e-02 1.315079e-02 1.081233e-02 1.257676e-02 9.744912e-03 1.195927e-02 9.531771e-03 1.203853e-02 9.960811e-03 1.181490e-02 1.062948e-02 1.181379e-02 1.109176e-02 1.075765e-02 1.090315e-02 1.003917e-02 1.190616e-02 1.008956e-02 1.328223e-02 9.178539e-03 1.385923e-02 9.141452e-03 1.513391e-02 9.333840e-03 1.604278e-02 1.200913e-02 2.430007e-02 1.451772e-02 1.053676e-02 3.779325e-03 9.405168e-03 7.799321e-03 
2.777651e-03 1.316071e-03 3.067306e-03 3.771777e-03 3.694879e-03 9.874684e-03 7.824723e-03 6.180824e-03 4.321749e-03 7.998220e-03 8.263819e-03 1.684253e-02 2.275014e-02 2.363766e-02 1.096393e-02 6.920986e-03 2.772781e-03 3.680889e-03 6.551418e-03 1.122790e-02 2.368093e-02 2.302087e-02 1.468193e-02 9.585338e-03 6.119068e-03 4.071543e-03 2.671429e-03 1.915790e-03 1.131532e-03 1.654466e-03 1.533206e-04 1.705681e-03 7.766683e-04 1.607554e-03 1.135848e-03 1.143743e-03 9.098553e-04 8.509059e-04 8.244275e-04 3.837273e-04 5.197522e-04 2.155350e-04 1.124570e-04 4.119699e-04 2.765090e-04 3.919217e-04 4.218213e-04 2.422388e-04 6.438749e-04 2.118824e-04 7.984914e-04 4.812561e-04 5.322115e-04 5.410566e-04 4.081455e-04 8.967080e-04 7.159602e-04 1.093750e-03 1.154449e-03 8.330231e-04 1.948583e-04 6.257031e-04 1.139173e-03 8.829825e-04 1.754293e-03 1.449177e-03 2.297013e-03 3.530029e-03 3.021233e-03 3.350134e-03 3.284037e-03 3.489558e-03 3.178582e-03 3.264792e-03 2.597903e-03 2.578222e-03 1.472896e-03 1.330542e-03 6.431566e-04 4.339750e-04 8.526403e-04 4.553979e-04 1.477724e-03 8.558149e-04 1.518989e-03 9.437991e-04 1.292914e-03 1.049366e-03 6.804158e-04 6.068477e-04 5.434998e-04 1.022154e-03 6.291215e-04 1.291105e-03 8.674314e-04 1.945132e-03 7.548198e-04 2.364779e-03 3.422172e-04 2.285484e-03 3.346753e-04 2.254324e-03 5.325035e-05 2.287368e-03 7.144082e-04 1.761850e-03 1.123980e-03 1.162153e-03 1.337997e-03 6.454073e-04 1.575102e-03 1.100390e-03 2.553772e-03 1.206106e-03 3.220618e-03 2.026685e-03 3.235974e-03 2.851780e-03 3.243937e-03 3.134940e-03 2.556439e-03 4.493449e-03 5.763496e-03 6.662236e-03 2.780244e-03 1.853376e-03 3.103703e-03 1.015446e-04 
