# vtk DataFile Version 2.0
Comment goes here
ASCII

DATASET STRUCTURED_POINTS
FIELD FieldData 1
TIME 1 1 double
0.30000000
DIMENSIONS    128   16   1

ORIGIN    0.000   0.000   0.000
SPACING   0.0078125 0.015625   1.000

POINT_DATA   2048
SCALARS uMag double
LOOKUP_TABLE default

1.959489e-03 1.397891e-03 1.987183e-03 3.386294e-03 1.521911e-03 8.376066e-03 1.133096e-03 2.643107e-03 8.058195e-04 1.210676e-03 8.571151e-04 1.105282e-04 8.894252e-04 1.755234e-03 3.207822e-03 8.986591e-04 4.487756e-03 1.291521e-03 3.932949e-03 1.631705e-03 2.807775e-03 1.015333e-03 1.187478e-03 6.619669e-04 1.915598e-03 4.949819e-05 2.247795e-03 6.370960e-04 2.362721e-03 1.145377e-03 2.280719e-03 1.495204e-03 2.033591e-03 1.723968e-03 1.772649e-03 1.953460e-03 1.643223e-03 2.217300e-03 1.627642e-03 2.407763e-03 1.620122e-03 2.443738e-03 1.602764e-03 2.371082e-03 1.655710e-03 2.291492e-03 1.821343e-03 2.214054e-03 2.011966e-03 2.088988e-03 2.161606e-03 1.932907e-03 2.273274e-03 1.892165e-03 2.476363e-03 2.637289e-03 4.464869e-03 7.171851e-03 4.409259e-03 7.649057e-03 6.293518e-03 7.945768e-03 8.873867e-03 8.513707e-03 9.289727e-03 7.844634e-03 9.961509e-03 7.136919e-03 7.860961e-03 7.496698e-03 4.606984e-03 7.396084e-03 6.783020e-03 4.559216e-03 4.045339e-03 3.404793e-03 3.257663e-03 2.901571e-03 2.597821e-03 2.306957e-03 2.164518e-03 1.855809e-03 2.055920e-03 1.537786e-03 2.102844e-03 1.258800e-03 2.170786e-03 1.019229e-03 2.227218e-03 8.895336e-04 2.257971e-03 8.929157e-04 2.230672e-03 1.010163e-03 2.093302e-03 1.201466e-03 1.832797e-03 1.474069e-03 1.505308e-03 1.833935e-03 1.149459e-03 2.225480e-03 7.885694e-04 2.579781e-03 4.695925e-04 2.831141e-03 2.469793e-04 2.927672e-03 2.067573e-04 2.860967e-03 4.509722e-04 2.606081e-03 9.625045e-04 2.058597e-03 1.619660e-03 1.156926e-03 2.327095e-03 4.858507e-05 3.004210e-03 1.036618e-03 3.307480e-03 1.667671e-03 2.441496e-03 7.628916e-04 1.017669e-03 3.395292e-05 1.851542e-03 3.924548e-04 
1.811321e-03 1.262730e-03 2.560205e-03 2.894430e-03 5.185951e-03 9.528579e-03 5.814770e-03 2.405727e-03 2.790419e-03 2.833202e-04 4.639166e-03 1.000020e-04 7.973522e-03 2.573677e-03 6.940583e-03 2.237645e-03 6.285300e-03 2.396041e-03 5.676821e-03 3.452067e-03 5.371010e-03 5.193227e-03 2.820710e-03 2.590953e-03 2.235931e-03 1.472926e-03 1.849021e-03 1.070052e-03 1.644528e-03 1.058892e-03 1.375158e-03 1.097516e-03 9.648741e-04 1.081617e-03 5.785130e-04 1.122050e-03 4.218014e-04 1.321638e-03 3.911842e-04 1.490482e-03 3.699300e-04 1.491424e-03 3.924028e-04 1.384929e-03 5.094251e-04 1.265500e-03 7.287227e-04 1.090520e-03 9.581981e-04 9.044128e-04 1.335952e-03 1.435979e-03 2.516366e-03 3.598298e-03 5.919852e-03 1.040134e-02 1.693654e-02 1.339064e-02 7.103298e-03 1.214175e-02 8.040159e-03 9.985623e-03 6.808709e-03 4.143501e-03 7.167445e-03 3.439437e-03 6.285338e-03 7.063125e-03 7.207003e-03 1.159126e-02 5.441277e-03 9.273838e-03 1.395276e-02 1.262337e-02 9.139938e-03 6.246697e-03 4.531939e-03 3.441860e-03 2.365044e-03 1.969696e-03 1.188399e-03 1.149154e-03 7.267467e-04 7.534922e-04 7.683381e-04 4.643203e-04 9.032624e-04 2.220886e-04 9.233600e-04 2.777640e-04 9.325879e-04 2.546209e-04 9.577158e-04 1.526253e-04 8.493754e-04 2.740098e-04 5.864199e-04 4.414937e-04 4.099003e-04 7.575825e-04 4.214746e-04 1.176177e-03 5.664129e-04 1.544782e-03 8.423386e-04 1.723146e-03 1.148005e-03 1.739598e-03 1.237863e-03 1.726313e-03 9.725317e-04 1.641606e-03 6.525595e-04 1.214462e-03 1.018692e-03 6.104458e-04 1.490843e-03 1.492707e-03 1.997142e-03 2.587592e-03 2.609688e-03 3.390477e-03 3.593100e-03 3.492604e-03 2.921816e-03 8.496055e-04 1.927991e-03 4.508332e-04 
2.846740e-03 8.479955e-04 4.362123e-03 1.881049e-03 1.414207e-02 2.433227e-03 1.639566e-02 6.908670e-03 3.303570e-03 4.105235e-03 2.572235e-03 6.623483e-03 4.464355e-03 2.475261e-03 4.246187e-03 2.445382e-03 4.109174e-03 3.247048e-03 3.471134e-03 4.574973e-03 3.587247e-03 5.504858e-03 4.909987e-03 3.405935e-03 2.168488e-03 2.977201e-03 8.075491e-04 2.390220e-03 4.609823e-04 1.761936e-03 4.165920e-04 1.548027e-03 6.845837e-05 1.557387e-03 6.230605e-04 1.281485e-03 8.832431e-04 7.754240e-04 7.574613e-04 4.143270e-04 7.451368e-04 4.106438e-04 9.388487e-04 4.134260e-04 1.015495e-03 4.937090e-04 1.277747e-03 1.009763e-03 1.902065e-03 1.660891e-03 2.745552e-03 3.064807e-03 5.116500e-03 6.774214e-03 1.087645e-02 1.592400e-02 2.294458e-02 1.881729e-02 1.680749e-02 2.044408e-02 2.188591e-02 2.122442e-02 2.549739e-02 2.380519e-02 2.657864e-02 2.365324e-02 2.723987e-02 2.323198e-02 2.604673e-02 2.501765e-02 1.895767e-02 2.397407e-02 2.401886e-02 1.998004e-02 1.425662e-02 1.042316e-02 7.182602e-03 5.559966e-03 3.500263e-03 2.755422e-03 1.420757e-03 1.400027e-03 6.179608e-04 1.371051e-03 4.151516e-04 1.246469e-03 1.805873e-04 1.380672e-03 1.594948e-04 1.761821e-03 1.536511e-04 1.786946e-03 4.061947e-04 1.625373e-03 3.865667e-04 1.635134e-03 6.090711e-04 1.552051e-03 1.084149e-03 1.202498e-03 1.381661e-03 8.406870e-04 1.561322e-03 7.594316e-04 1.881582e-03 6.978756e-04 2.404561e-03 2.071269e-04 2.663883e-03 6.437513e-04 2.377444e-03 1.295979e-03 1.928235e-03 1.266783e-03 2.425333e-03 1.326486e-03 2.826822e-03 2.533700e-03 2.468890e-03 3.403092e-03 2.780086e-03 3.584038e-03 8.749382e-03 1.128849e-02 8.226436e-03 3.465308e-03 3.922754e-03 1.341928e-03 
1.543797e-03 2.569400e-03 9.984002e-04 7.319784e-03 1.380410e-02 1.483256e-02 8.908630e-03 2.392753e-03 4.074508e-03 1.982242e-03 5.013205e-03 3.257030e-03 7.373531e-03 1.852572e-03 6.065427e-03 1.273808e-03 5.125545e-03 1.704596e-03 4.423505e-03 2.881472e-03 3.733160e-03 4.409712e-03 2.357258e-03 2.743322e-03 1.215876e-03 2.321745e-03 1.663738e-03 2.045302e-03 1.933379e-03 1.776252e-03 1.238011e-03 1.995332e-03 4.699309e-04 2.167366e-03 4.926276e-04 1.707697e-03 1.092150e-03 1.384393e-03 9.614193e-04 1.101368e-03 2.953673e-04 9.064935e-04 2.467270e-04 5.966850e-04 2.165856e-04 4.113889e-04 2.119025e-04 3.880184e-04 3.941826e-04 1.363677e-03 1.289753e-03 3.443362e-03 3.480624e-03 6.051064e-03 6.639602e-03 1.101294e-02 1.426718e-02 1.736024e-02 9.444858e-03 1.428500e-02 1.079011e-02 9.676166e-03 1.030881e-02 6.323758e-03 1.170835e-02 5.841281e-03 1.055296e-02 8.139059e-03 1.091675e-02 1.325967e-02 8.796203e-03 1.449129e-02 1.257746e-02 1.144440e-02 7.350488e-03 5.540781e-03 3.773068e-03 2.961975e-03 2.544913e-03 1.704997e-03 2.020796e-03 6.471996e-04 1.120629e-03 6.282719e-04 4.632897e-04 6.219602e-04 8.886117e-04 4.500636e-04 8.832849e-04 6.507085e-04 9.252397e-05 7.725275e-04 4.890038e-04 8.476815e-04 3.885900e-04 1.337176e-03 5.203204e-04 1.467374e-03 1.107803e-03 1.390988e-03 1.404942e-03 1.415268e-03 1.195714e-03 1.614730e-03 5.981064e-04 1.653830e-03 6.344332e-04 9.596941e-04 9.047652e-04 1.033659e-03 1.044180e-03 1.972385e-03 1.370672e-03 1.740992e-03 3.241527e-03 1.535833e-03 4.126592e-03 2.898293e-03 3.348418e-03 4.249135e-03 2.264337e-03 2.245119e-03 3.537787e-03 2.795183e-02 3.549654e-03 8.194734e-03 4.047557e-03 2.840933e-03 
4.965636e-03 2.719011e-03 7.479794e-03 4.933521e-03 4.529939e-03 1.456642e-02 1.364404e-02 1.772573e-03 2.117570e-03 1.862169e-03 2.628714e-03 3.044493e-03 6.270666e-03 4.213625e-03 5.640332e-03 4.847001e-03 5.286658e-03 5.268172e-03 4.822038e-03 5.896153e-03 3.975202e-03 6.999393e-03 3.201035e-03 4.174865e-03 1.901444e-03 2.945729e-03 1.247277e-03 1.957224e-03 1.125950e-03 1.120054e-03 9.651919e-04 1.215308e-03 1.200984e-03 1.394910e-03 1.597314e-03 8.835377e-04 1.774854e-03 2.853849e-04 1.538341e-03 3.916420e-04 1.157182e-03 6.111378e-04 9.441731e-04 5.480225e-04 5.496004e-04 7.376952e-04 2.831523e-04 1.214143e-03 1.191761e-03 2.004688e-03 2.917169e-03 4.152846e-03 6.589219e-03 8.376463e-03 1.313041e-02 1.636379e-02 2.688976e-02 3.235120e-02 2.374730e-02 2.862432e-02 2.648294e-02 2.426152e-02 2.576722e-02 2.144326e-02 2.785713e-02 2.182650e-02 2.591965e-02 2.427886e-02 2.675350e-02 2.937358e-02 2.332599e-02 3.029081e-02 2.564510e-02 1.846553e-02 1.280648e-02 9.658015e-03 6.517933e-03 5.228139e-03 3.142647e-03 2.540699e-03 1.288150e-03 9.407617e-04 3.448454e-04 9.855159e-04 1.668800e-04 9.572440e-04 5.674734e-04 1.068045e-03 8.295465e-04 1.504857e-03 7.466125e-04 1.578016e-03 7.769771e-04 1.390252e-03 8.758084e-04 1.457157e-03 1.267224e-03 1.426542e-03 1.729357e-03 1.124115e-03 2.044799e-03 9.390751e-04 2.206982e-03 1.149432e-03 2.423020e-03 1.249860e-03 2.812555e-03 6.847295e-04 2.946670e-03 3.393799e-04 2.521019e-03 1.076498e-03 1.641419e-03 8.243194e-04 2.048599e-03 1.306844e-03 2.514247e-03 2.928620e-03 2.339410e-03 4.245313e-03 3.617332e-03 4.637016e-03 6.498625e-03 1.731047e-02 1.034272e-02 8.460107e-03 7.080253e-03 3.397373e-03 
7.447901e-03 7.178238e-03 9.247411e-03 1.014762e-02 1.264106e-02 1.034315e-02 1.345731e-02 4.296533e-03 6.643805e-03 3.814913e-03 6.108921e-03 5.947206e-03 6.872832e-03 5.825435e-03 6.372817e-03 5.994233e-03 6.212859e-03 6.198897e-03 6.023136e-03 6.386748e-03 5.823055e-03 6.857837e-03 5.881521e-03 7.048329e-03 5.343491e-03 7.295078e-03 5.279162e-03 7.104797e-03 5.176951e-03 6.752213e-03 5.208918e-03 6.586909e-03 5.532909e-03 6.621318e-03 5.935497e-03 6.541683e-03 6.082182e-03 6.216576e-03 5.999414e-03 5.866009e-03 5.925900e-03 5.682869e-03 5.895932e-03 5.510186e-03 5.723556e-03 5.236446e-03 5.394958e-03 4.946275e-03 5.057371e-03 4.766169e-03 4.857672e-03 5.342823e-03 6.422920e-03 9.540878e-03 1.355241e-02 2.246444e-02 2.674704e-02 1.349400e-02 9.040868e-03 1.056834e-02 1.173894e-02 8.340152e-03 1.254419e-02 6.953947e-03 1.034817e-02 6.436820e-03 9.229104e-03 5.924377e-03 8.769183e-03 6.055760e-03 3.462326e-03 5.913533e-03 1.749251e-02 1.829580e-02 1.258173e-02 9.189351e-03 6.784878e-03 5.681417e-03 4.964697e-03 4.907369e-03 4.886113e-03 5.300361e-03 5.190260e-03 5.739438e-03 5.229947e-03 5.970337e-03 5.232533e-03 6.317178e-03 5.407627e-03 6.673309e-03 5.481151e-03 6.752312e-03 5.424532e-03 6.702137e-03 5.495483e-03 6.708281e-03 5.749071e-03 6.675144e-03 6.020943e-03 6.468723e-03 6.246565e-03 6.155468e-03 6.487705e-03 5.876862e-03 6.841945e-03 5.762065e-03 7.267760e-03 5.693570e-03 7.498681e-03 5.521192e-03 7.342655e-03 5.264696e-03 6.916055e-03 5.256627e-03 6.657080e-03 5.837485e-03 6.496523e-03 6.631508e-03 5.847594e-03 7.191113e-03 4.622727e-03 7.649830e-03 4.806458e-03 1.023028e-02 1.297116e-02 8.524217e-03 8.624237e-03 6.720169e-03 
7.946554e-03 7.502611e-03 8.664781e-03 9.262199e-03 1.044568e-02 1.257727e-02 8.681333e-03 6.900364e-03 9.140671e-03 6.385527e-03 8.706358e-03 7.073389e-03 8.576309e-03 6.367043e-03 6.943647e-03 6.537612e-03 6.747663e-03 6.759932e-03 6.518364e-03 6.978229e-03 6.322075e-03 7.437407e-03 7.193968e-03 8.614292e-03 7.427282e-03 9.029605e-03 7.487984e-03 9.054684e-03 7.493736e-03 8.914820e-03 7.552729e-03 8.762316e-03 7.699765e-03 8.634795e-03 7.869100e-03 8.471823e-03 7.976497e-03 8.255081e-03 8.009533e-03 8.023385e-03 8.004635e-03 7.833412e-03 7.985769e-03 7.663106e-03 7.925770e-03 7.511668e-03 7.863209e-03 7.433683e-03 7.905066e-03 7.577179e-03 8.325301e-03 8.402471e-03 9.933327e-03 1.121126e-02 1.471676e-02 1.854822e-02 2.350271e-02 2.140409e-02 1.404395e-02 1.788538e-02 1.492488e-02 1.436749e-02 1.325123e-02 1.002724e-02 1.450752e-02 1.059429e-02 1.293965e-02 1.439458e-02 1.463830e-02 1.659009e-02 1.390670e-02 1.835414e-02 1.947950e-02 1.467406e-02 1.202615e-02 9.478400e-03 8.760879e-03 7.701176e-03 7.607546e-03 7.229032e-03 7.318501e-03 7.329951e-03 7.341607e-03 7.587839e-03 7.403692e-03 7.835461e-03 7.464374e-03 8.074794e-03 7.548484e-03 8.281588e-03 7.612456e-03 8.390312e-03 7.659572e-03 8.432556e-03 7.749434e-03 8.436135e-03 7.892357e-03 8.389925e-03 8.070463e-03 8.284985e-03 8.262551e-03 8.135423e-03 8.465371e-03 7.985913e-03 8.685680e-03 7.871901e-03 8.892624e-03 7.780816e-03 9.012983e-03 7.701702e-03 9.000380e-03 7.661657e-03 8.897010e-03 7.751803e-03 8.816456e-03 8.037691e-03 8.770023e-03 8.431800e-03 8.706835e-03 8.795043e-03 8.672264e-03 8.970916e-03 8.551945e-03 1.060310e-02 9.426928e-03 8.242158e-03 8.215619e-03 7.262269e-03 
8.002275e-03 8.050915e-03 8.255428e-03 8.603023e-03 8.648856e-03 9.142794e-03 8.439851e-03 8.130531e-03 8.341058e-03 8.171311e-03 8.257182e-03 8.880294e-03 7.052627e-03 6.276993e-03 6.515189e-03 6.311940e-03 6.411556e-03 6.396180e-03 6.326230e-03 6.499652e-03 6.286949e-03 6.670092e-03 7.460157e-03 7.385365e-03 7.033093e-03 7.784688e-03 6.954970e-03 8.047520e-03 6.973287e-03 8.144870e-03 7.064528e-03 8.164020e-03 7.226296e-03 8.146426e-03 7.408125e-03 8.077316e-03 7.549461e-03 7.957382e-03 7.643365e-03 7.832909e-03 7.721768e-03 7.751102e-03 7.801275e-03 7.717522e-03 7.878952e-03 7.739630e-03 7.987132e-03 7.867119e-03 8.218415e-03 8.205430e-03 8.747769e-03 8.968715e-03 9.941600e-03 1.058617e-02 1.248493e-02 1.388758e-02 1.750747e-02 1.795942e-02 1.403026e-02 1.682703e-02 1.482843e-02 1.562840e-02 1.679508e-02 1.459875e-02 1.675333e-02 1.381733e-02 1.565956e-02 1.416080e-02 1.289128e-02 1.368460e-02 1.234621e-02 1.365607e-02 1.318594e-02 1.129995e-02 1.071333e-02 9.634953e-03 9.322146e-03 8.678900e-03 8.438803e-03 8.161748e-03 7.922395e-03 7.970805e-03 7.635201e-03 7.953048e-03 7.455351e-03 8.008236e-03 7.346458e-03 8.103948e-03 7.299802e-03 8.194417e-03 7.282448e-03 8.231759e-03 7.290420e-03 8.219082e-03 7.352777e-03 8.172052e-03 7.476365e-03 8.084136e-03 7.639739e-03 7.948128e-03 7.823759e-03 7.782235e-03 8.021902e-03 7.622518e-03 8.226508e-03 7.501115e-03 8.406507e-03 7.422275e-03 8.507716e-03 7.383876e-03 8.496007e-03 7.413693e-03 8.397685e-03 7.579497e-03 8.283940e-03 7.922807e-03 8.184320e-03 8.380301e-03 8.089046e-03 8.833758e-03 8.047882e-03 9.157565e-03 8.149703e-03 9.143311e-03 8.459561e-03 8.344271e-03 8.116624e-03 7.927518e-03 
8.145003e-03 8.050125e-03 8.438220e-03 8.692844e-03 8.832585e-03 9.284962e-03 8.698417e-03 8.399747e-03 8.827072e-03 8.425601e-03 8.795287e-03 9.051273e-03 7.041233e-03 6.631989e-03 6.932109e-03 6.695262e-03 6.798098e-03 6.817256e-03 6.669706e-03 6.949631e-03 6.598837e-03 7.049250e-03 7.561259e-03 7.539863e-03 7.064052e-03 7.928004e-03 7.049974e-03 8.214306e-03 7.140470e-03 8.326023e-03 7.265251e-03 8.327919e-03 7.416205e-03 8.271529e-03 7.573024e-03 8.177581e-03 7.713404e-03 8.067243e-03 7.837239e-03 7.974017e-03 7.961113e-03 7.931053e-03 8.100820e-03 7.955489e-03 8.267215e-03 8.064148e-03 8.491142e-03 8.297236e-03 8.839807e-03 8.732053e-03 9.425475e-03 9.493658e-03 1.040591e-02 1.073462e-02 1.188919e-02 1.247739e-02 1.363546e-02 1.419202e-02 1.347635e-02 1.409245e-02 1.359046e-02 1.336354e-02 1.371092e-02 1.259787e-02 1.365170e-02 1.231886e-02 1.337858e-02 1.264110e-02 1.290757e-02 1.282099e-02 1.251528e-02 1.260273e-02 1.246281e-02 1.144597e-02 1.116221e-02 1.015698e-02 9.975181e-03 9.191366e-03 9.083211e-03 8.575996e-03 8.476320e-03 8.245520e-03 8.083714e-03 8.104579e-03 7.832011e-03 8.071700e-03 7.672233e-03 8.090190e-03 7.576298e-03 8.118937e-03 7.526621e-03 8.129638e-03 7.519998e-03 8.113497e-03 7.561611e-03 8.066924e-03 7.648856e-03 7.987532e-03 7.773356e-03 7.878531e-03 7.922609e-03 7.750219e-03 8.082867e-03 7.620514e-03 8.238961e-03 7.509884e-03 8.372149e-03 7.435333e-03 8.460492e-03 7.408756e-03 8.488421e-03 7.446631e-03 8.466281e-03 7.575794e-03 8.427593e-03 7.806999e-03 8.400576e-03 8.109612e-03 8.398660e-03 8.417120e-03 8.413517e-03 8.650485e-03 8.402470e-03 8.774579e-03 8.361260e-03 8.194505e-03 8.144266e-03 7.865824e-03 
8.010386e-03 8.056668e-03 8.261824e-03 8.606186e-03 8.653169e-03 9.144155e-03 8.441787e-03 8.128548e-03 8.340401e-03 8.168734e-03 8.256903e-03 8.881837e-03 7.051993e-03 6.278000e-03 6.514594e-03 6.311290e-03 6.409152e-03 6.394348e-03 6.323090e-03 6.499945e-03 6.289064e-03 6.676741e-03 7.463850e-03 7.391108e-03 7.030729e-03 7.783333e-03 6.953478e-03 8.055542e-03 6.990035e-03 8.180148e-03 7.116532e-03 8.237000e-03 7.320354e-03 8.251949e-03 7.535716e-03 8.203938e-03 7.707197e-03 8.113341e-03 7.849823e-03 8.048845e-03 8.012445e-03 8.072160e-03 8.219937e-03 8.189463e-03 8.451835e-03 8.379941e-03 8.706303e-03 8.661572e-03 9.039593e-03 9.096617e-03 9.539941e-03 9.763734e-03 1.029930e-02 1.073605e-02 1.135626e-02 1.199968e-02 1.251693e-02 1.320812e-02 1.291066e-02 1.361040e-02 1.335683e-02 1.359403e-02 1.381594e-02 1.342298e-02 1.391721e-02 1.319980e-02 1.358974e-02 1.294682e-02 1.285275e-02 1.245355e-02 1.217565e-02 1.181828e-02 1.159160e-02 1.095038e-02 1.078955e-02 1.016670e-02 1.003343e-02 9.523166e-03 9.350521e-03 9.029612e-03 8.771165e-03 8.697934e-03 8.317436e-03 8.519792e-03 7.989505e-03 8.454271e-03 7.756820e-03 8.437645e-03 7.588629e-03 8.425457e-03 7.478080e-03 8.395682e-03 7.432677e-03 8.343770e-03 7.460701e-03 8.261799e-03 7.552359e-03 8.142338e-03 7.695321e-03 7.990004e-03 7.873067e-03 7.816487e-03 8.063642e-03 7.639048e-03 8.240826e-03 7.483159e-03 8.387649e-03 7.387576e-03 8.486562e-03 7.366450e-03 8.497393e-03 7.424046e-03 8.418022e-03 7.600696e-03 8.294545e-03 7.921611e-03 8.161760e-03 8.351941e-03 8.052682e-03 8.810416e-03 8.032388e-03 9.160555e-03 8.155474e-03 9.154908e-03 8.467800e-03 8.354895e-03 8.125621e-03 7.935958e-03 
7.963555e-03 7.515382e-03 8.679160e-03 9.271260e-03 1.045693e-02 1.258450e-02 8.686223e-03 6.894264e-03 9.137539e-03 6.377074e-03 8.705249e-03 7.075122e-03 8.575645e-03 6.373663e-03 6.943587e-03 6.532779e-03 6.738134e-03 6.745348e-03 6.505723e-03 6.966660e-03 6.318100e-03 7.438953e-03 7.222915e-03 8.628852e-03 7.446710e-03 9.038310e-03 7.515407e-03 9.092718e-03 7.558306e-03 9.011833e-03 7.686325e-03 8.940212e-03 7.916526e-03 8.883220e-03 8.160652e-03 8.777219e-03 8.344524e-03 8.641659e-03 8.496434e-03 8.561483e-03 8.688207e-03 8.609580e-03 8.954287e-03 8.777700e-03 9.245122e-03 9.009619e-03 9.525859e-03 9.297167e-03 9.831969e-03 9.682407e-03 1.022850e-02 1.020712e-02 1.075750e-02 1.087362e-02 1.139575e-02 1.159853e-02 1.199823e-02 1.215729e-02 1.233511e-02 1.236932e-02 1.250250e-02 1.233267e-02 1.259673e-02 1.225103e-02 1.269720e-02 1.224645e-02 1.270575e-02 1.221504e-02 1.256072e-02 1.199611e-02 1.226686e-02 1.162081e-02 1.187990e-02 1.117937e-02 1.140950e-02 1.068400e-02 1.084307e-02 1.016339e-02 1.022184e-02 9.685911e-03 9.627999e-03 9.312786e-03 9.125090e-03 9.077352e-03 8.749465e-03 8.968223e-03 8.474358e-03 8.913607e-03 8.259909e-03 8.866858e-03 8.102515e-03 8.809141e-03 8.019075e-03 8.747834e-03 8.023038e-03 8.663825e-03 8.090788e-03 8.542848e-03 8.216312e-03 8.391830e-03 8.381512e-03 8.214411e-03 8.559725e-03 8.020474e-03 8.722345e-03 7.838106e-03 8.863996e-03 7.720964e-03 8.978860e-03 7.672360e-03 9.004179e-03 7.679378e-03 8.933799e-03 7.792865e-03 8.833779e-03 8.042609e-03 8.726926e-03 8.385699e-03 8.642964e-03 8.752751e-03 8.648856e-03 8.981587e-03 8.561883e-03 1.062599e-02 9.440668e-03 8.260878e-03 8.233405e-03 7.278825e-03 
7.470664e-03 7.192593e-03 9.263038e-03 1.015280e-02 1.265215e-02 1.035831e-02 1.348643e-02 4.278085e-03 6.638282e-03 3.802391e-03 6.107471e-03 5.944373e-03 6.885693e-03 5.828995e-03 6.370489e-03 5.991752e-03 6.200559e-03 6.181821e-03 5.991633e-03 6.364000e-03 5.813229e-03 6.935295e-03 5.913835e-03 7.051040e-03 5.302183e-03 7.223428e-03 5.195043e-03 7.049792e-03 5.148630e-03 6.811716e-03 5.326192e-03 6.825748e-03 5.841422e-03 6.983897e-03 6.322812e-03 6.888850e-03 6.466897e-03 6.565086e-03 6.451004e-03 6.332749e-03 6.587306e-03 6.468237e-03 7.012127e-03 6.853711e-03 7.425558e-03 7.176920e-03 7.635872e-03 7.420427e-03 7.798256e-03 7.762183e-03 8.091021e-03 8.310500e-03 8.608028e-03 9.078717e-03 9.338662e-03 9.975476e-03 1.009019e-02 1.064487e-02 1.053624e-02 1.095180e-02 1.078749e-02 1.105152e-02 1.104494e-02 1.117183e-02 1.140493e-02 1.138020e-02 1.161848e-02 1.127588e-02 1.133549e-02 1.069072e-02 1.073250e-02 9.973657e-03 1.012910e-02 9.428035e-03 9.662070e-03 8.970846e-03 9.123424e-03 8.435920e-03 8.405946e-03 7.859042e-03 7.635397e-03 7.378339e-03 6.996518e-03 7.167842e-03 6.637953e-03 7.211736e-03 6.401323e-03 7.243589e-03 6.133637e-03 7.202403e-03 5.897544e-03 7.113723e-03 5.766929e-03 7.044303e-03 5.803120e-03 6.951607e-03 5.924554e-03 6.778985e-03 6.125473e-03 6.557656e-03 6.397294e-03 6.299843e-03 6.696217e-03 5.993214e-03 6.918113e-03 5.637099e-03 7.093910e-03 5.457379e-03 7.339068e-03 5.431945e-03 7.365980e-03 5.366751e-03 7.097677e-03 5.458451e-03 6.777910e-03 5.857877e-03 6.341046e-03 6.417594e-03 5.607213e-03 7.036234e-03 4.590503e-03 7.724999e-03 4.912630e-03 1.031191e-02 1.300725e-02 8.555889e-03 8.652009e-03 6.743493e-03 
4.994996e-03 2.725597e-03 7.491758e-03 4.924446e-03 4.563952e-03 1.457782e-02 1.369151e-02 1.734437e-03 2.175232e-03 1.906155e-03 2.700548e-03 3.049372e-03 6.342571e-03 4.252746e-03 5.653118e-03 4.832635e-03 5.247982e-03 5.213964e-03 4.789134e-03 5.863975e-03 4.043694e-03 6.982798e-03 3.103757e-03 4.060570e-03 1.697500e-03 2.727424e-03 1.000995e-03 1.734805e-03 8.228777e-04 1.181526e-03 9.154426e-04 1.621818e-03 1.487745e-03 1.611320e-03 1.946237e-03 9.762552e-04 2.131980e-03 4.733595e-04 1.856664e-03 3.579602e-04 1.627115e-03 9.095858e-04 2.014955e-03 1.140564e-03 2.259743e-03 1.398655e-03 2.263592e-03 1.724836e-03 2.219435e-03 2.073410e-03 2.351961e-03 2.644724e-03 2.782733e-03 3.480160e-03 3.438539e-03 4.438034e-03 4.121218e-03 5.187166e-03 4.563432e-03 5.398185e-03 4.837574e-03 5.377834e-03 5.221814e-03 5.572142e-03 5.842094e-03 5.963915e-03 6.367840e-03 6.013341e-03 6.299479e-03 5.652533e-03 5.794727e-03 5.084563e-03 5.284490e-03 4.471749e-03 4.823360e-03 3.949021e-03 4.283713e-03 3.405837e-03 3.561120e-03 2.887794e-03 2.775784e-03 2.403773e-03 2.186396e-03 2.138458e-03 2.025812e-03 2.230071e-03 1.804404e-03 2.277088e-03 1.474517e-03 2.167817e-03 1.219544e-03 1.963714e-03 1.106942e-03 1.801152e-03 1.206236e-03 1.657397e-03 1.466457e-03 1.479864e-03 1.783547e-03 1.321496e-03 2.145715e-03 1.156184e-03 2.521785e-03 8.331803e-04 2.748838e-03 6.544929e-04 2.700622e-03 7.287622e-04 2.784492e-03 1.155875e-04 2.591533e-03 7.214739e-04 2.005921e-03 1.053493e-03 1.805813e-03 1.739525e-03 1.986900e-03 2.844211e-03 2.629522e-03 3.838223e-03 3.912271e-03 4.594358e-03 6.449308e-03 1.729233e-02 1.043463e-02 8.502918e-03 7.127148e-03 3.428808e-03 
1.560399e-03 2.557632e-03 9.799610e-04 7.308267e-03 1.379859e-02 1.481098e-02 8.942118e-03 2.415588e-03 4.012150e-03 2.061191e-03 4.949764e-03 3.305668e-03 7.319547e-03 1.971557e-03 6.007624e-03 1.389906e-03 5.126381e-03 1.718742e-03 4.511273e-03 2.767812e-03 3.869632e-03 4.610422e-03 2.581841e-03 2.934788e-03 1.446135e-03 2.471132e-03 1.575495e-03 2.179073e-03 1.472187e-03 2.055249e-03 5.604401e-04 2.531677e-03 7.925973e-05 2.450875e-03 7.229199e-04 1.924705e-03 1.446460e-03 1.742782e-03 1.229319e-03 1.543306e-03 8.070185e-04 1.709722e-03 1.408239e-03 1.699688e-03 1.565627e-03 1.716692e-03 1.723963e-03 1.823277e-03 1.870258e-03 1.747824e-03 2.059111e-03 1.703096e-03 2.323193e-03 1.828712e-03 2.520000e-03 1.909869e-03 2.392096e-03 1.796352e-03 2.363033e-03 1.700294e-03 2.203601e-03 1.412123e-03 1.823602e-03 1.621519e-03 1.861738e-03 1.860938e-03 1.839346e-03 1.463792e-03 1.974753e-03 1.420543e-03 1.918311e-03 1.272110e-03 1.663367e-03 1.327196e-03 1.684259e-03 1.371761e-03 1.565358e-03 1.410906e-03 1.306309e-03 1.536935e-03 9.839016e-04 1.324297e-03 8.156814e-04 8.683673e-04 1.084950e-03 8.277873e-04 7.529729e-04 9.484475e-04 3.047679e-04 9.681240e-04 1.863018e-04 9.088030e-04 2.913282e-04 1.038048e-03 4.888548e-04 1.238265e-03 8.253237e-04 1.409832e-03 1.040206e-03 1.556684e-03 1.141575e-03 1.559678e-03 1.230749e-03 1.224455e-03 1.304942e-03 8.811633e-04 7.192723e-04 7.786489e-04 7.371912e-04 4.683921e-04 9.842834e-04 1.496148e-03 1.531815e-03 1.969928e-03 2.649864e-03 2.460548e-03 3.381720e-03 3.267147e-03 3.472563e-03 3.637306e-03 2.890551e-03 1.804515e-03 3.476939e-03 2.788143e-02 3.535496e-03 8.245947e-03 4.081008e-03 2.858248e-03 
2.850256e-03 8.478417e-04 4.358204e-03 1.871015e-03 1.413290e-02 2.441759e-03 1.644293e-02 6.898812e-03 3.295160e-03 4.111591e-03 2.555978e-03 6.643188e-03 4.504446e-03 2.440218e-03 4.256813e-03 2.384796e-03 4.072511e-03 3.178730e-03 3.457328e-03 4.556804e-03 3.650090e-03 5.464368e-03 4.802858e-03 3.328919e-03 2.094012e-03 2.850197e-03 9.011457e-04 2.305350e-03 5.252864e-04 1.843295e-03 3.431519e-04 1.847581e-03 4.465358e-04 1.844427e-03 9.947190e-04 1.473973e-03 1.222272e-03 9.579410e-04 1.067622e-03 5.403880e-04 1.015105e-03 6.162996e-04 1.468453e-03 1.028888e-03 1.802740e-03 1.419617e-03 1.837464e-03 1.626700e-03 1.781156e-03 1.820747e-03 1.888269e-03 2.273491e-03 2.344000e-03 3.167471e-03 3.245316e-03 4.554535e-03 4.529737e-03 6.158036e-03 5.589874e-03 6.955195e-03 6.601347e-03 7.456066e-03 7.728253e-03 8.054403e-03 8.696473e-03 8.546601e-03 9.303022e-03 8.586099e-03 8.817415e-03 8.074394e-03 7.693054e-03 7.102101e-03 6.723457e-03 5.637242e-03 5.364925e-03 4.309384e-03 4.120083e-03 3.179899e-03 2.920850e-03 2.288922e-03 1.883069e-03 1.700888e-03 1.246937e-03 1.549966e-03 1.057034e-03 1.756387e-03 7.732846e-04 1.915525e-03 4.043444e-04 1.935391e-03 1.488170e-04 1.859226e-03 2.119137e-04 1.794798e-03 4.038783e-04 1.706605e-03 6.917604e-04 1.517244e-03 1.007311e-03 1.287131e-03 1.358974e-03 1.021386e-03 1.747622e-03 6.273816e-04 2.027415e-03 4.109655e-04 2.151991e-03 4.743953e-04 2.432522e-03 5.164130e-04 2.431585e-03 1.075653e-03 2.159556e-03 1.379139e-03 2.212520e-03 1.731717e-03 2.421378e-03 2.412935e-03 2.647649e-03 3.076810e-03 3.016654e-03 3.679123e-03 8.636715e-03 1.130501e-02 8.273598e-03 3.500756e-03 3.941438e-03 1.352389e-03 
1.809632e-03 1.262891e-03 2.555340e-03 2.896249e-03 5.177640e-03 9.532406e-03 5.838983e-03 2.394328e-03 2.780579e-03 2.675915e-04 4.615914e-03 1.268745e-04 7.959748e-03 2.609925e-03 6.910631e-03 2.286000e-03 6.288052e-03 2.393665e-03 5.683750e-03 3.419496e-03 5.339668e-03 5.167858e-03 2.824685e-03 2.639609e-03 2.274060e-03 1.543148e-03 1.887750e-03 1.129602e-03 1.623987e-03 1.077429e-03 1.287048e-03 1.046695e-03 8.057794e-04 9.383386e-04 4.451870e-04 9.773823e-04 3.931931e-04 1.211942e-03 3.703649e-04 1.377609e-03 2.493290e-04 1.273197e-03 4.954122e-05 9.955577e-04 1.675836e-04 8.104595e-04 3.278911e-04 7.499883e-04 4.807215e-04 7.917709e-04 7.197315e-04 1.200227e-03 1.285830e-03 2.183720e-03 2.428804e-03 3.767798e-03 4.093853e-03 5.456854e-03 4.327391e-03 5.884186e-03 4.924435e-03 5.832249e-03 6.033008e-03 5.793434e-03 6.669958e-03 6.003307e-03 7.462806e-03 6.507964e-03 7.055478e-03 6.941150e-03 6.534909e-03 6.855661e-03 6.786616e-03 5.830843e-03 5.502341e-03 4.267656e-03 3.940904e-03 2.715086e-03 2.461850e-03 1.482971e-03 1.350946e-03 7.455951e-04 7.700356e-04 4.529903e-04 6.094636e-04 3.995662e-04 5.931063e-04 4.246769e-04 7.015267e-04 4.174975e-04 8.239738e-04 3.395551e-04 8.664814e-04 2.436086e-04 7.749314e-04 2.556638e-04 5.897353e-04 4.543050e-04 4.058312e-04 7.706176e-04 4.228656e-04 1.112291e-03 6.831920e-04 1.438294e-03 9.340560e-04 1.736579e-03 1.076571e-03 1.848282e-03 1.163791e-03 1.750657e-03 1.018147e-03 1.563111e-03 7.134231e-04 1.176618e-03 8.543415e-04 8.051030e-04 1.426528e-03 1.420196e-03 2.118248e-03 2.494800e-03 2.658192e-03 3.451125e-03 3.505926e-03 3.525946e-03 2.951286e-03 8.690193e-04 1.934551e-03 4.474762e-04 
