# vtk DataFile Version 2.0
Comment goes here
ASCII

DATASET STRUCTURED_POINTS
FIELD FieldData 1
TIME 1 1 double
0.14000000
DIMENSIONS    128   16   1

ORIGIN    0.000   0.000   0.000
SPACING   0.0078125 0.015625   1.000

POINT_DATA   2048
SCALARS uX double
LOOKUP_TABLE default

1.823729e-03 2.721957e-03 1.000266e-03 2.960498e-03 4.142195e-04 6.107988e-03 4.457380e-03 7.990981e-04 3.167598e-03 -2.205192e-03 -1.294612e-03 -8.239363e-03 -1.126678e-02 -1.972283e-02 -2.329826e-02 -2.703421e-02 -2.596354e-02 -2.796357e-02 -2.462349e-02 -2.351317e-02 -1.876948e-02 -1.172747e-02 -6.629423e-03 -2.971070e-03 -4.356470e-04 9.279192e-04 2.194764e-03 2.834647e-03 3.348857e-03 3.790339e-03 3.726138e-03 4.170071e-03 3.618804e-03 4.237607e-03 3.370213e-03 4.286405e-03 3.245777e-03 4.368505e-03 3.203534e-03 4.349627e-03 3.219267e-03 4.242101e-03 3.161557e-03 4.018857e-03 3.244457e-03 3.887586e-03 3.372977e-03 3.630900e-03 3.310499e-03 3.231451e-03 3.151897e-03 2.586175e-03 2.540794e-03 1.585493e-03 1.501089e-03 1.752692e-04 -1.127098e-03 -5.184764e-03 -2.217356e-03 -3.367457e-03 -2.954744e-03 -5.162910e-03 -8.057280e-03 -8.896416e-03 -6.647764e-03 -6.280885e-03 -9.921630e-03 -2.850246e-03 -1.647395e-03 -7.860389e-04 2.704705e-03 -9.389640e-04 -5.152055e-04 2.425548e-03 2.706475e-03 3.962614e-03 3.029189e-03 3.824921e-03 3.019916e-03 3.765271e-03 3.062094e-03 3.475329e-03 3.232789e-03 3.435256e-03 3.548820e-03 3.156211e-03 3.649595e-03 2.654414e-03 3.438901e-03 1.966117e-03 3.324556e-03 1.725758e-03 3.456270e-03 1.728846e-03 3.561634e-03 1.833607e-03 3.511759e-03 2.018043e-03 3.203858e-03 2.192285e-03 2.755711e-03 2.465483e-03 2.198063e-03 2.925004e-03 1.760195e-03 3.438583e-03 1.391716e-03 4.020235e-03 1.059566e-03 4.307891e-03 8.943613e-04 4.467929e-03 8.665256e-04 4.400482e-03 1.131373e-03 3.911891e-03 1.765483e-03 3.237481e-03 2.777195e-03 2.630329e-03 4.279151e-03 2.140012e-03 5.933331e-03 1.449554e-04 2.028537e-03 9.709581e-04 1.935443e-03 2.166904e-03 
-3.065851e-04 6.059344e-04 -1.248076e-03 5.583853e-04 -3.093605e-03 4.465271e-03 3.359267e-03 -1.125613e-03 4.031631e-03 -1.349396e-03 3.841143e-03 -1.208205e-03 3.951248e-03 4.614862e-04 5.489667e-03 2.931305e-03 5.222834e-03 3.738712e-03 4.489260e-03 3.998071e-03 2.463299e-03 2.962682e-03 8.378638e-04 1.580936e-03 5.801434e-04 1.116414e-03 6.292575e-04 1.157077e-03 7.413528e-04 1.380393e-03 8.738102e-04 1.487852e-03 6.238652e-04 1.283076e-03 1.089613e-04 1.100188e-03 -7.207544e-05 1.229359e-03 -8.574112e-05 1.175286e-03 -7.907104e-05 9.233364e-04 -3.720480e-04 6.275650e-04 4.056221e-05 1.049660e-03 6.307593e-04 9.822846e-04 5.008422e-04 5.606279e-04 4.119030e-04 1.122320e-04 4.173366e-04 4.387125e-04 7.733789e-04 -3.802724e-04 -3.301495e-03 -8.543190e-03 -3.039516e-03 -5.631134e-03 -5.754676e-03 -5.288952e-03 -5.007809e-03 -5.353932e-03 -5.750476e-03 -3.641387e-03 -7.987288e-03 -3.717968e-03 -7.379678e-03 -9.753331e-03 -6.199852e-03 -1.051997e-02 -1.025481e-02 -6.986061e-03 -5.449693e-03 -2.710584e-03 -2.584286e-03 -7.876346e-04 -1.071493e-03 1.666314e-04 -5.552732e-04 -1.209971e-04 -4.487367e-04 3.091003e-05 1.508712e-04 -1.768556e-04 1.590078e-04 -8.268949e-04 -1.837379e-04 -1.569173e-03 -5.276287e-05 -1.375381e-03 3.508007e-04 -1.423003e-03 2.396865e-04 -1.621074e-03 1.386087e-06 -1.455485e-03 -1.533217e-04 -1.053289e-03 -3.890353e-04 -6.541254e-04 -9.560799e-04 -3.010412e-04 -1.590431e-03 6.636083e-06 -2.019042e-03 8.357616e-04 -2.142096e-03 1.215925e-03 -2.218966e-03 1.372192e-03 -2.441845e-03 1.296175e-03 -2.328118e-03 6.468976e-04 -1.643762e-03 1.593973e-05 -4.610402e-04 -5.826695e-04 1.250021e-03 -1.481475e-03 3.174947e-03 -4.462898e-03 -2.144068e-03 -1.742431e-03 -6.001823e-04 -4.914210e-05 
3.469367e-03 3.416736e-03 6.046868e-04 -1.474137e-03 -8.300859e-03 -7.329075e-03 -4.517307e-03 -6.517485e-03 -3.830810e-03 -4.215511e-03 -2.262632e-03 1.080621e-04 1.848121e-03 6.297611e-03 6.882626e-03 9.492556e-03 8.165383e-03 9.493036e-03 8.209393e-03 6.959116e-03 6.700939e-03 7.591620e-04 4.829298e-04 -4.285739e-03 -3.538640e-03 -6.316635e-03 -5.048605e-03 -6.992409e-03 -5.815706e-03 -6.758864e-03 -5.607464e-03 -5.905066e-03 -5.566791e-03 -6.029672e-03 -6.752668e-03 -6.532580e-03 -7.191075e-03 -6.297329e-03 -7.391965e-03 -6.451925e-03 -7.578188e-03 -6.408675e-03 -7.347867e-03 -6.013326e-03 -6.423166e-03 -4.998888e-03 -5.414238e-03 -4.721920e-03 -5.627463e-03 -5.516715e-03 -5.736433e-03 -5.110459e-03 -3.439007e-03 -1.480112e-03 1.864803e-03 4.018517e-03 9.648582e-03 1.434509e-02 1.125823e-02 1.108737e-02 1.265550e-02 1.366832e-02 1.908253e-02 1.945883e-02 1.702694e-02 1.583180e-02 2.250740e-02 1.151021e-02 9.596328e-03 8.142934e-03 -5.552670e-04 6.052135e-03 1.973672e-03 -1.716313e-03 -5.195972e-03 -5.015663e-03 -6.185071e-03 -4.774504e-03 -6.120434e-03 -5.765783e-03 -7.108939e-03 -7.075346e-03 -7.875040e-03 -7.660119e-03 -7.191174e-03 -7.322579e-03 -6.930536e-03 -8.282631e-03 -7.317526e-03 -8.726532e-03 -6.799964e-03 -8.410693e-03 -6.273962e-03 -8.313194e-03 -6.088501e-03 -8.502450e-03 -6.594906e-03 -8.801257e-03 -6.700377e-03 -8.077598e-03 -6.862950e-03 -7.692813e-03 -7.368488e-03 -7.579170e-03 -8.266940e-03 -7.352908e-03 -8.882225e-03 -6.804741e-03 -8.996122e-03 -5.978634e-03 -8.990155e-03 -5.717037e-03 -9.247131e-03 -6.062915e-03 -9.659968e-03 -7.128328e-03 -9.811933e-03 -7.987965e-03 -8.682999e-03 -8.537187e-03 -7.075971e-03 -9.866317e-03 -5.769439e-03 -1.148465e-02 -6.166020e-03 -4.337544e-04 1.872443e-03 3.680851e-03 
5.424161e-03 3.536138e-03 3.186391e-03 -3.534151e-03 -5.622282e-03 -2.140454e-02 -1.496204e-02 -1.148274e-02 -1.665317e-02 -1.076333e-02 -1.695625e-02 -1.105733e-02 -1.757270e-02 -1.301073e-02 -1.886043e-02 -1.561956e-02 -1.842938e-02 -1.660738e-02 -1.746323e-02 -1.704128e-02 -1.514575e-02 -1.612530e-02 -1.271794e-02 -1.511941e-02 -1.225035e-02 -1.478978e-02 -1.229344e-02 -1.496847e-02 -1.271812e-02 -1.482558e-02 -1.261233e-02 -1.391250e-02 -1.221767e-02 -1.359912e-02 -1.279743e-02 -1.377843e-02 -1.316405e-02 -1.375791e-02 -1.351236e-02 -1.378764e-02 -1.372177e-02 -1.311958e-02 -1.268677e-02 -1.197706e-02 -1.231833e-02 -1.175951e-02 -1.232290e-02 -1.153367e-02 -1.238440e-02 -1.200430e-02 -1.265350e-02 -1.133264e-02 -1.095502e-02 -9.333532e-03 -8.051137e-03 -5.303294e-03 -1.102581e-03 3.834613e-03 -3.012573e-03 -1.700546e-03 -2.048565e-03 -4.352098e-03 -5.894419e-03 -7.371195e-03 -5.278150e-03 -9.047951e-03 -4.087876e-03 -7.655334e-03 -3.979532e-03 -6.550862e-04 -6.441969e-03 -1.755997e-03 -4.852792e-03 -5.972156e-03 -9.575293e-03 -1.022209e-02 -1.143831e-02 -1.093755e-02 -1.240299e-02 -1.294870e-02 -1.363089e-02 -1.354291e-02 -1.411944e-02 -1.447054e-02 -1.408659e-02 -1.378302e-02 -1.346062e-02 -1.386002e-02 -1.306405e-02 -1.325600e-02 -1.266201e-02 -1.355671e-02 -1.272782e-02 -1.334902e-02 -1.210960e-02 -1.303869e-02 -1.222347e-02 -1.360355e-02 -1.234270e-02 -1.347200e-02 -1.254171e-02 -1.363583e-02 -1.252232e-02 -1.384054e-02 -1.272836e-02 -1.370224e-02 -1.299392e-02 -1.431598e-02 -1.327496e-02 -1.377641e-02 -1.331560e-02 -1.355178e-02 -1.313494e-02 -1.379221e-02 -1.358219e-02 -1.390235e-02 -1.455142e-02 -1.388026e-02 -1.456291e-02 -1.336213e-02 -1.462143e-02 -1.283506e-02 -1.586690e-02 -9.461157e-03 -5.203511e-03 9.178231e-04 3.171395e-03 4.713266e-03 
2.432545e-02 2.300058e-02 2.598757e-02 2.378685e-02 3.034779e-02 1.936904e-02 1.920927e-02 2.304616e-02 1.764775e-02 2.183226e-02 1.765531e-02 1.944052e-02 1.767484e-02 1.815330e-02 1.883918e-02 1.849000e-02 1.907073e-02 1.879200e-02 1.859215e-02 1.888120e-02 1.740468e-02 1.899617e-02 1.808932e-02 2.020107e-02 2.019878e-02 2.082390e-02 2.079986e-02 2.073724e-02 2.093005e-02 2.024431e-02 2.045368e-02 1.965537e-02 2.042223e-02 1.993430e-02 2.130381e-02 2.038958e-02 2.145769e-02 2.009608e-02 2.136570e-02 2.021874e-02 2.135631e-02 2.047899e-02 2.153848e-02 2.050823e-02 2.044686e-02 1.915885e-02 1.891402e-02 1.850512e-02 1.859064e-02 1.849901e-02 1.775917e-02 1.739990e-02 1.467834e-02 1.250120e-02 7.214764e-03 3.840226e-03 -6.259774e-03 -1.340273e-02 -4.953458e-03 -5.781967e-03 -5.991050e-03 -1.987021e-03 -3.021510e-03 -1.606348e-03 -2.229942e-03 2.737386e-03 -5.582980e-03 2.351930e-03 -5.717102e-04 -1.968479e-03 6.311799e-03 -8.013316e-04 3.051514e-03 8.755706e-03 1.287460e-02 1.426811e-02 1.630958e-02 1.625273e-02 1.770111e-02 1.773401e-02 1.928379e-02 1.969284e-02 2.057955e-02 2.029890e-02 2.027028e-02 2.055589e-02 2.065041e-02 2.177625e-02 2.153965e-02 2.267561e-02 2.129025e-02 2.215908e-02 2.074328e-02 2.220495e-02 2.095696e-02 2.265484e-02 2.150263e-02 2.271578e-02 2.149334e-02 2.195915e-02 2.145522e-02 2.144878e-02 2.193336e-02 2.127090e-02 2.276114e-02 2.117843e-02 2.322773e-02 2.028323e-02 2.311993e-02 1.970800e-02 2.306169e-02 1.961192e-02 2.349460e-02 1.994208e-02 2.381164e-02 2.118110e-02 2.360009e-02 2.229738e-02 2.255443e-02 2.343517e-02 2.099914e-02 2.550558e-02 1.895413e-02 3.018583e-02 2.770019e-02 2.522672e-02 2.442721e-02 2.341926e-02 
3.036572e-02 3.089737e-02 3.254199e-02 3.592186e-02 4.069282e-02 4.658036e-02 4.086077e-02 4.094271e-02 4.004937e-02 3.917858e-02 3.844052e-02 3.689741e-02 3.503593e-02 3.445146e-02 3.486278e-02 3.456193e-02 3.477126e-02 3.468780e-02 3.458565e-02 3.477003e-02 3.432242e-02 3.479774e-02 3.527098e-02 3.808283e-02 3.791521e-02 4.011086e-02 3.935935e-02 4.122394e-02 4.030285e-02 4.139052e-02 4.028474e-02 4.071346e-02 4.014493e-02 4.076316e-02 4.106925e-02 4.119007e-02 4.145493e-02 4.108804e-02 4.168101e-02 4.121701e-02 4.183931e-02 4.092164e-02 4.119075e-02 4.015689e-02 4.036400e-02 3.935954e-02 3.958748e-02 3.891476e-02 3.949680e-02 3.936313e-02 3.945774e-02 3.866702e-02 3.727225e-02 3.563371e-02 3.290444e-02 3.066919e-02 2.627327e-02 2.426517e-02 2.855750e-02 2.870420e-02 2.908525e-02 2.992298e-02 2.984569e-02 3.206175e-02 2.852901e-02 3.220605e-02 3.035155e-02 3.080066e-02 3.171346e-02 3.138185e-02 3.329060e-02 3.295111e-02 3.633114e-02 3.673882e-02 3.929014e-02 3.899936e-02 4.002388e-02 3.899740e-02 4.034061e-02 4.041818e-02 4.144080e-02 4.143245e-02 4.213714e-02 4.223442e-02 4.183025e-02 4.184076e-02 4.150992e-02 4.250743e-02 4.162450e-02 4.254275e-02 4.118725e-02 4.251827e-02 4.093833e-02 4.239609e-02 4.059646e-02 4.238866e-02 4.094334e-02 4.277507e-02 4.102530e-02 4.223993e-02 4.116102e-02 4.201997e-02 4.142325e-02 4.199574e-02 4.203622e-02 4.176820e-02 4.250851e-02 4.168391e-02 4.270223e-02 4.096615e-02 4.274784e-02 4.075184e-02 4.286478e-02 4.112727e-02 4.332701e-02 4.189522e-02 4.382991e-02 4.254544e-02 4.319764e-02 4.288747e-02 4.236849e-02 4.381985e-02 4.266247e-02 4.486577e-02 3.969774e-02 3.450483e-02 3.208191e-02 3.061428e-02 
3.808197e-02 3.868830e-02 3.926902e-02 4.173828e-02 4.303972e-02 4.906908e-02 4.708315e-02 4.663947e-02 4.765258e-02 4.642530e-02 4.729747e-02 4.627819e-02 4.615455e-02 4.562064e-02 4.601746e-02 4.572005e-02 4.590140e-02 4.585752e-02 4.570072e-02 4.600496e-02 4.549220e-02 4.615319e-02 4.581716e-02 4.711111e-02 4.611736e-02 4.753416e-02 4.640022e-02 4.775917e-02 4.666187e-02 4.767532e-02 4.669472e-02 4.727847e-02 4.664526e-02 4.709073e-02 4.693636e-02 4.709752e-02 4.716299e-02 4.705804e-02 4.732924e-02 4.701570e-02 4.737389e-02 4.671464e-02 4.690812e-02 4.620609e-02 4.660113e-02 4.601578e-02 4.643960e-02 4.590020e-02 4.640530e-02 4.617524e-02 4.669011e-02 4.639492e-02 4.695800e-02 4.710707e-02 4.866789e-02 5.006416e-02 5.574931e-02 6.106171e-02 5.402014e-02 5.578377e-02 5.491454e-02 5.243350e-02 5.139652e-02 5.102107e-02 5.163387e-02 4.840910e-02 5.305569e-02 4.944115e-02 5.249249e-02 5.467956e-02 5.120305e-02 5.559389e-02 5.507897e-02 5.108911e-02 4.995650e-02 4.816726e-02 4.799586e-02 4.688159e-02 4.739890e-02 4.709770e-02 4.751434e-02 4.728340e-02 4.761416e-02 4.775376e-02 4.761232e-02 4.774188e-02 4.740565e-02 4.796415e-02 4.724882e-02 4.792167e-02 4.707784e-02 4.811993e-02 4.704775e-02 4.808811e-02 4.682601e-02 4.798554e-02 4.689179e-02 4.811180e-02 4.700419e-02 4.795305e-02 4.718730e-02 4.785524e-02 4.735433e-02 4.776836e-02 4.762675e-02 4.755349e-02 4.790632e-02 4.759398e-02 4.814985e-02 4.729003e-02 4.827551e-02 4.718662e-02 4.828313e-02 4.736378e-02 4.841115e-02 4.756692e-02 4.855117e-02 4.773495e-02 4.818862e-02 4.766925e-02 4.776174e-02 4.754946e-02 4.818644e-02 4.616173e-02 4.291591e-02 4.072558e-02 3.917647e-02 3.843869e-02 
3.828515e-02 3.896656e-02 3.926195e-02 4.103494e-02 4.174029e-02 4.431702e-02 4.443635e-02 4.560788e-02 4.626190e-02 4.686847e-02 4.837495e-02 4.930609e-02 5.230512e-02 5.204827e-02 5.223007e-02 5.207068e-02 5.215657e-02 5.213517e-02 5.209244e-02 5.222425e-02 5.206643e-02 5.233294e-02 5.039261e-02 4.950021e-02 4.762271e-02 4.765057e-02 4.618025e-02 4.664420e-02 4.548516e-02 4.602358e-02 4.514986e-02 4.558407e-02 4.505297e-02 4.535883e-02 4.517957e-02 4.526590e-02 4.532342e-02 4.518525e-02 4.543500e-02 4.512148e-02 4.546929e-02 4.500093e-02 4.535633e-02 4.483933e-02 4.522074e-02 4.475989e-02 4.516484e-02 4.484690e-02 4.528976e-02 4.517948e-02 4.561403e-02 4.567202e-02 4.617058e-02 4.656845e-02 4.757409e-02 4.878606e-02 5.176666e-02 5.475650e-02 5.111242e-02 5.208055e-02 5.129607e-02 5.187442e-02 5.261362e-02 5.196437e-02 5.314374e-02 5.101960e-02 5.264995e-02 5.086893e-02 4.991400e-02 4.969170e-02 4.920914e-02 5.024938e-02 4.938205e-02 4.759407e-02 4.716036e-02 4.618126e-02 4.633980e-02 4.567352e-02 4.603947e-02 4.568865e-02 4.598549e-02 4.583062e-02 4.593574e-02 4.599883e-02 4.579215e-02 4.607743e-02 4.562872e-02 4.623068e-02 4.549946e-02 4.631995e-02 4.533777e-02 4.636328e-02 4.519358e-02 4.634010e-02 4.507551e-02 4.629257e-02 4.508275e-02 4.625373e-02 4.515517e-02 4.611926e-02 4.530267e-02 4.598705e-02 4.551262e-02 4.585362e-02 4.576926e-02 4.568397e-02 4.601080e-02 4.553164e-02 4.619532e-02 4.534634e-02 4.631068e-02 4.526162e-02 4.636472e-02 4.530804e-02 4.635554e-02 4.540275e-02 4.618422e-02 4.540964e-02 4.566981e-02 4.517958e-02 4.486632e-02 4.462618e-02 4.388301e-02 4.315672e-02 4.147592e-02 4.038432e-02 3.914333e-02 3.875513e-02 
4.131468e-02 4.199988e-02 4.212079e-02 4.382474e-02 4.420436e-02 4.651004e-02 4.671896e-02 4.767229e-02 4.862393e-02 4.891518e-02 5.067835e-02 5.139204e-02 5.471055e-02 5.442420e-02 5.463619e-02 5.446617e-02 5.454664e-02 5.455785e-02 5.445538e-02 5.466969e-02 5.440691e-02 5.477264e-02 5.286768e-02 5.201642e-02 5.013333e-02 5.020961e-02 4.871469e-02 4.921602e-02 4.804721e-02 4.864747e-02 4.779155e-02 4.829665e-02 4.774814e-02 4.807699e-02 4.781739e-02 4.793837e-02 4.792574e-02 4.785957e-02 4.804629e-02 4.782141e-02 4.813509e-02 4.779422e-02 4.817199e-02 4.779848e-02 4.823655e-02 4.792107e-02 4.840279e-02 4.820861e-02 4.872533e-02 4.871917e-02 4.927536e-02 4.949450e-02 5.012141e-02 5.067229e-02 5.141123e-02 5.234102e-02 5.302155e-02 5.434211e-02 5.346329e-02 5.389386e-02 5.346849e-02 5.327638e-02 5.328781e-02 5.269177e-02 5.292157e-02 5.183656e-02 5.268357e-02 5.160981e-02 5.190896e-02 5.162855e-02 5.137198e-02 5.148274e-02 5.131434e-02 5.054426e-02 5.045823e-02 4.969120e-02 4.976363e-02 4.911994e-02 4.928017e-02 4.882474e-02 4.893551e-02 4.866750e-02 4.866520e-02 4.862564e-02 4.844487e-02 4.864206e-02 4.827794e-02 4.872302e-02 4.814127e-02 4.878427e-02 4.800748e-02 4.881793e-02 4.788672e-02 4.879811e-02 4.778578e-02 4.873830e-02 4.774664e-02 4.866349e-02 4.778015e-02 4.856762e-02 4.789775e-02 4.847688e-02 4.806883e-02 4.836875e-02 4.825335e-02 4.822915e-02 4.843505e-02 4.811215e-02 4.859961e-02 4.800471e-02 4.872049e-02 4.794748e-02 4.877282e-02 4.793983e-02 4.873928e-02 4.791724e-02 4.857037e-02 4.780338e-02 4.817841e-02 4.747220e-02 4.751087e-02 4.673752e-02 4.641935e-02 4.525475e-02 4.407973e-02 4.303496e-02 4.205689e-02 4.173798e-02 
3.828663e-02 3.896580e-02 3.925556e-02 4.102643e-02 4.172635e-02 4.430054e-02 4.441682e-02 4.559260e-02 4.625630e-02 4.685961e-02 4.837608e-02 4.929969e-02 5.229640e-02 5.204615e-02 5.222728e-02 5.207549e-02 5.216128e-02 5.214978e-02 5.210948e-02 5.224999e-02 5.209295e-02 5.235232e-02 5.040613e-02 4.951401e-02 4.762615e-02 4.763392e-02 4.615656e-02 4.656966e-02 4.544976e-02 4.598982e-02 4.524110e-02 4.571122e-02 4.528498e-02 4.554191e-02 4.536898e-02 4.537787e-02 4.545502e-02 4.529729e-02 4.559928e-02 4.530326e-02 4.572362e-02 4.535064e-02 4.582756e-02 4.545402e-02 4.595304e-02 4.567588e-02 4.616461e-02 4.602989e-02 4.648162e-02 4.653937e-02 4.695702e-02 4.723773e-02 4.765305e-02 4.821294e-02 4.864469e-02 4.946427e-02 4.979365e-02 5.073927e-02 5.037599e-02 5.102917e-02 5.082016e-02 5.114145e-02 5.118664e-02 5.106003e-02 5.126271e-02 5.073068e-02 5.090788e-02 5.023350e-02 5.011597e-02 4.951406e-02 4.935812e-02 4.878794e-02 4.866215e-02 4.791362e-02 4.798917e-02 4.730458e-02 4.750705e-02 4.689893e-02 4.708306e-02 4.656413e-02 4.663193e-02 4.629604e-02 4.620331e-02 4.611786e-02 4.585621e-02 4.612434e-02 4.569760e-02 4.630427e-02 4.564743e-02 4.649926e-02 4.556321e-02 4.656759e-02 4.540536e-02 4.650719e-02 4.523140e-02 4.637192e-02 4.511619e-02 4.622050e-02 4.514526e-02 4.612131e-02 4.533256e-02 4.605649e-02 4.559515e-02 4.590588e-02 4.577790e-02 4.565966e-02 4.595432e-02 4.546840e-02 4.616392e-02 4.535834e-02 4.632307e-02 4.529318e-02 4.638632e-02 4.528715e-02 4.631092e-02 4.531408e-02 4.608136e-02 4.532997e-02 4.563671e-02 4.519784e-02 4.491984e-02 4.469085e-02 4.393382e-02 4.320103e-02 4.150377e-02 4.040744e-02 3.915522e-02 3.876390e-02 
3.807982e-02 3.868304e-02 3.925684e-02 4.172088e-02 4.300918e-02 4.902339e-02 4.701033e-02 4.659749e-02 4.762749e-02 4.639415e-02 4.729503e-02 4.624432e-02 4.611231e-02 4.559653e-02 4.599674e-02 4.571886e-02 4.590422e-02 4.588302e-02 4.574432e-02 4.606689e-02 4.556206e-02 4.619856e-02 4.584117e-02 4.720158e-02 4.622529e-02 4.761544e-02 4.642468e-02 4.761673e-02 4.655372e-02 4.754286e-02 4.684270e-02 4.758536e-02 4.719298e-02 4.752618e-02 4.732599e-02 4.732327e-02 4.742070e-02 4.728237e-02 4.766988e-02 4.736626e-02 4.788202e-02 4.753162e-02 4.810536e-02 4.770448e-02 4.824790e-02 4.795450e-02 4.852428e-02 4.841390e-02 4.892289e-02 4.899676e-02 4.945544e-02 4.970770e-02 5.003952e-02 5.040255e-02 5.059424e-02 5.108143e-02 5.116381e-02 5.161018e-02 5.145102e-02 5.181107e-02 5.173060e-02 5.184746e-02 5.165804e-02 5.147387e-02 5.151288e-02 5.127318e-02 5.137655e-02 5.097874e-02 5.111656e-02 5.061973e-02 5.075873e-02 5.002378e-02 5.016843e-02 4.956266e-02 4.994873e-02 4.935813e-02 4.973792e-02 4.917356e-02 4.945116e-02 4.880961e-02 4.885346e-02 4.837913e-02 4.829926e-02 4.804663e-02 4.784022e-02 4.806300e-02 4.780499e-02 4.834327e-02 4.779964e-02 4.853919e-02 4.766003e-02 4.851098e-02 4.742137e-02 4.845034e-02 4.727508e-02 4.833364e-02 4.708725e-02 4.808065e-02 4.699723e-02 4.794240e-02 4.717388e-02 4.794746e-02 4.751001e-02 4.787162e-02 4.767478e-02 4.758993e-02 4.781833e-02 4.736598e-02 4.801329e-02 4.729013e-02 4.823169e-02 4.728017e-02 4.839965e-02 4.734511e-02 4.840553e-02 4.740523e-02 4.828499e-02 4.752757e-02 4.810875e-02 4.775795e-02 4.795212e-02 4.775675e-02 4.831014e-02 4.624015e-02 4.295708e-02 4.075302e-02 3.918766e-02 3.844477e-02 
3.035976e-02 3.088760e-02 3.252052e-02 3.589311e-02 4.063535e-02 4.650266e-02 4.075136e-02 4.088503e-02 4.006943e-02 3.917410e-02 3.850581e-02 3.687929e-02 3.496563e-02 3.444891e-02 3.485469e-02 3.457180e-02 3.477013e-02 3.472638e-02 3.464663e-02 3.491401e-02 3.448629e-02 3.501624e-02 3.531958e-02 3.819104e-02 3.792577e-02 4.009970e-02 3.917849e-02 4.061791e-02 3.967442e-02 4.087301e-02 4.052786e-02 4.146973e-02 4.149383e-02 4.178003e-02 4.170431e-02 4.126533e-02 4.149334e-02 4.115854e-02 4.193781e-02 4.141594e-02 4.213759e-02 4.153853e-02 4.223380e-02 4.165732e-02 4.239970e-02 4.217442e-02 4.279914e-02 4.267207e-02 4.307384e-02 4.321150e-02 4.341179e-02 4.371186e-02 4.391479e-02 4.470530e-02 4.482602e-02 4.560434e-02 4.544507e-02 4.598799e-02 4.556960e-02 4.626127e-02 4.613689e-02 4.659132e-02 4.628236e-02 4.655789e-02 4.669616e-02 4.687521e-02 4.682655e-02 4.638538e-02 4.602271e-02 4.506916e-02 4.484963e-02 4.365010e-02 4.366694e-02 4.301893e-02 4.390784e-02 4.352841e-02 4.440074e-02 4.380744e-02 4.420827e-02 4.320519e-02 4.326555e-02 4.249935e-02 4.222779e-02 4.162713e-02 4.128422e-02 4.157499e-02 4.135964e-02 4.237950e-02 4.198274e-02 4.329116e-02 4.219034e-02 4.346675e-02 4.183303e-02 4.312242e-02 4.123927e-02 4.260751e-02 4.067312e-02 4.211523e-02 4.068085e-02 4.214578e-02 4.127138e-02 4.261358e-02 4.220341e-02 4.242695e-02 4.202021e-02 4.147592e-02 4.198578e-02 4.115207e-02 4.260638e-02 4.124544e-02 4.298419e-02 4.111571e-02 4.319219e-02 4.113704e-02 4.309680e-02 4.130606e-02 4.308282e-02 4.199171e-02 4.304259e-02 4.310142e-02 4.280683e-02 4.421902e-02 4.288708e-02 4.501418e-02 3.975922e-02 3.454796e-02 3.209492e-02 3.062094e-02 
2.430745e-02 2.299211e-02 2.599119e-02 2.379889e-02 3.037317e-02 1.941235e-02 1.932489e-02 2.312350e-02 1.782227e-02 2.197115e-02 1.778786e-02 1.954066e-02 1.763158e-02 1.818158e-02 1.891862e-02 1.862344e-02 1.910294e-02 1.881550e-02 1.870791e-02 1.912891e-02 1.759550e-02 1.927553e-02 1.798697e-02 1.990887e-02 1.949622e-02 2.018032e-02 2.004776e-02 1.992090e-02 2.014863e-02 1.992768e-02 2.083949e-02 2.050194e-02 2.178644e-02 2.111181e-02 2.216709e-02 2.077880e-02 2.181433e-02 2.067910e-02 2.205021e-02 2.097530e-02 2.198075e-02 2.090947e-02 2.171565e-02 2.111220e-02 2.209742e-02 2.213156e-02 2.260925e-02 2.259289e-02 2.261528e-02 2.292841e-02 2.250149e-02 2.304663e-02 2.288948e-02 2.449233e-02 2.439913e-02 2.575656e-02 2.497458e-02 2.588109e-02 2.478276e-02 2.559318e-02 2.478072e-02 2.533769e-02 2.504488e-02 2.579271e-02 2.593745e-02 2.614109e-02 2.608105e-02 2.546292e-02 2.470753e-02 2.354456e-02 2.299306e-02 2.231366e-02 2.239316e-02 2.196702e-02 2.297606e-02 2.288834e-02 2.396712e-02 2.332775e-02 2.371049e-02 2.271442e-02 2.298605e-02 2.213192e-02 2.180591e-02 2.107491e-02 2.067523e-02 2.066580e-02 2.028115e-02 2.138473e-02 2.126933e-02 2.287438e-02 2.211012e-02 2.363403e-02 2.208324e-02 2.308022e-02 2.110361e-02 2.215764e-02 2.057478e-02 2.187645e-02 2.122520e-02 2.227666e-02 2.232317e-02 2.288802e-02 2.348353e-02 2.230036e-02 2.307041e-02 2.089419e-02 2.294717e-02 2.054316e-02 2.385796e-02 2.061381e-02 2.404629e-02 2.019672e-02 2.376267e-02 2.000096e-02 2.319273e-02 2.041179e-02 2.289785e-02 2.172593e-02 2.229995e-02 2.324143e-02 2.092717e-02 2.531381e-02 1.882528e-02 3.010252e-02 2.761625e-02 2.517323e-02 2.438294e-02 2.339029e-02 
5.396326e-03 3.526607e-03 3.224621e-03 -3.474846e-03 -5.490393e-03 -2.123019e-02 -1.467213e-02 -1.129543e-02 -1.649607e-02 -1.059873e-02 -1.689278e-02 -1.089785e-02 -1.743840e-02 -1.292239e-02 -1.881218e-02 -1.546324e-02 -1.843909e-02 -1.662647e-02 -1.735697e-02 -1.702407e-02 -1.499360e-02 -1.609321e-02 -1.279354e-02 -1.545784e-02 -1.280528e-02 -1.527294e-02 -1.265386e-02 -1.472056e-02 -1.241780e-02 -1.429491e-02 -1.265786e-02 -1.431425e-02 -1.308375e-02 -1.408859e-02 -1.295251e-02 -1.344463e-02 -1.281072e-02 -1.327745e-02 -1.325032e-02 -1.337968e-02 -1.357116e-02 -1.352600e-02 -1.386182e-02 -1.343654e-02 -1.376096e-02 -1.329796e-02 -1.385921e-02 -1.347816e-02 -1.409690e-02 -1.377592e-02 -1.445253e-02 -1.409859e-02 -1.460546e-02 -1.413892e-02 -1.450301e-02 -1.414587e-02 -1.460852e-02 -1.421878e-02 -1.454218e-02 -1.441371e-02 -1.493033e-02 -1.469194e-02 -1.460586e-02 -1.416158e-02 -1.449499e-02 -1.449692e-02 -1.485388e-02 -1.471894e-02 -1.514125e-02 -1.479420e-02 -1.519475e-02 -1.422478e-02 -1.445380e-02 -1.407336e-02 -1.480633e-02 -1.452569e-02 -1.510317e-02 -1.483148e-02 -1.517884e-02 -1.451205e-02 -1.447713e-02 -1.398585e-02 -1.394306e-02 -1.351125e-02 -1.348426e-02 -1.370399e-02 -1.390834e-02 -1.426406e-02 -1.409026e-02 -1.439827e-02 -1.374716e-02 -1.400837e-02 -1.322308e-02 -1.385383e-02 -1.304131e-02 -1.375591e-02 -1.255398e-02 -1.324023e-02 -1.199872e-02 -1.298816e-02 -1.191996e-02 -1.324992e-02 -1.230459e-02 -1.347405e-02 -1.222254e-02 -1.321616e-02 -1.217486e-02 -1.312205e-02 -1.236776e-02 -1.331526e-02 -1.276057e-02 -1.350495e-02 -1.331114e-02 -1.371099e-02 -1.368679e-02 -1.363282e-02 -1.404130e-02 -1.358998e-02 -1.461939e-02 -1.393573e-02 -1.541032e-02 -1.367184e-02 -1.638368e-02 -9.844441e-03 -5.434571e-03 7.380484e-04 3.067630e-03 4.635748e-03 
3.454244e-03 3.406514e-03 6.263589e-04 -1.446867e-03 -8.230881e-03 -7.253690e-03 -4.429965e-03 -6.451404e-03 -3.854092e-03 -4.208217e-03 -2.300056e-03 1.446967e-04 1.991531e-03 6.358084e-03 6.864148e-03 9.432266e-03 8.128936e-03 9.473771e-03 8.070331e-03 6.711514e-03 6.463903e-03 4.813342e-04 4.008964e-04 -4.273120e-03 -3.339996e-03 -6.065589e-03 -4.676653e-03 -6.183181e-03 -5.017913e-03 -6.159991e-03 -5.884111e-03 -6.673676e-03 -6.990355e-03 -7.038829e-03 -7.311478e-03 -6.372260e-03 -6.979441e-03 -6.137217e-03 -7.416177e-03 -6.385992e-03 -7.512422e-03 -6.353249e-03 -7.396594e-03 -6.425891e-03 -7.594430e-03 -7.161344e-03 -7.991979e-03 -7.620577e-03 -8.085778e-03 -8.124201e-03 -8.240331e-03 -8.610259e-03 -8.931833e-03 -1.037169e-02 -1.079643e-02 -1.236807e-02 -1.231425e-02 -1.374356e-02 -1.294791e-02 -1.411071e-02 -1.374734e-02 -1.450430e-02 -1.453428e-02 -1.502638e-02 -1.529829e-02 -1.503911e-02 -1.534294e-02 -1.359539e-02 -1.274605e-02 -1.095170e-02 -9.931341e-03 -8.816790e-03 -8.608165e-03 -7.718866e-03 -8.867921e-03 -8.410865e-03 -9.761520e-03 -8.896864e-03 -9.584591e-03 -8.270849e-03 -8.669593e-03 -7.645661e-03 -7.465118e-03 -6.665851e-03 -6.343852e-03 -6.593144e-03 -6.282485e-03 -7.654075e-03 -7.263377e-03 -9.125576e-03 -7.813598e-03 -9.647892e-03 -7.507951e-03 -9.128270e-03 -6.563865e-03 -8.291994e-03 -5.863229e-03 -7.755836e-03 -6.146889e-03 -7.904449e-03 -7.073364e-03 -8.479937e-03 -8.322920e-03 -8.016698e-03 -8.022978e-03 -6.621749e-03 -7.987389e-03 -6.204873e-03 -8.947374e-03 -6.326829e-03 -9.383160e-03 -6.064683e-03 -9.475550e-03 -6.020198e-03 -9.175020e-03 -6.356723e-03 -9.001312e-03 -7.429614e-03 -8.567650e-03 -8.760022e-03 -7.497507e-03 -1.022769e-02 -6.002518e-03 -1.169616e-02 -6.274955e-03 -5.415927e-04 1.817668e-03 3.630365e-03 
-3.153422e-04 5.962521e-04 -1.247124e-03 5.565244e-04 -3.092699e-03 4.451146e-03 3.305439e-03 -1.142177e-03 3.976440e-03 -1.387047e-03 3.806363e-03 -1.236845e-03 3.952601e-03 4.591013e-04 5.503956e-03 2.853839e-03 5.282230e-03 3.778254e-03 4.392571e-03 3.891255e-03 2.203789e-03 2.738848e-03 7.801244e-04 1.690483e-03 8.814566e-04 1.433518e-03 9.392265e-04 1.458492e-03 9.782088e-04 1.445425e-03 6.886408e-04 1.242678e-03 1.966708e-04 9.429595e-04 -1.853110e-04 1.005966e-03 -1.840327e-04 1.059139e-03 -3.088566e-04 9.166002e-04 -3.019792e-04 8.927652e-04 -1.919781e-04 6.607285e-04 -4.029179e-04 2.032829e-05 -6.688855e-04 -4.518150e-04 -8.657370e-04 -1.091644e-03 -1.250633e-03 -1.987367e-03 -2.371696e-03 -4.104394e-03 -4.672629e-03 -6.712169e-03 -6.770220e-03 -8.839310e-03 -7.525424e-03 -8.347548e-03 -7.108975e-03 -7.214928e-03 -6.924386e-03 -6.775067e-03 -6.612180e-03 -5.663030e-03 -6.311061e-03 -4.213979e-03 -3.769851e-03 -2.471885e-03 -1.375090e-03 -1.155511e-03 -9.850612e-04 -2.516061e-04 -1.020367e-03 -5.729783e-04 -1.649879e-03 -8.383767e-04 -1.522266e-03 -5.997602e-04 -1.164643e-03 -4.264382e-04 -4.969168e-04 -4.509856e-05 1.529695e-04 2.860905e-05 5.098992e-04 -4.886433e-04 7.975293e-05 -1.447428e-03 -3.207999e-04 -1.993167e-03 -2.743801e-04 -1.757692e-03 2.643999e-04 -1.262723e-03 4.564985e-04 -1.083012e-03 -1.600648e-05 -1.130589e-03 -7.210940e-04 -1.154958e-03 -1.455615e-03 -5.842981e-04 -1.566425e-03 3.062768e-04 -1.775761e-03 7.484981e-04 -2.387199e-03 9.417348e-04 -2.574804e-03 1.244438e-03 -2.424253e-03 1.329775e-03 -1.997336e-03 9.524101e-04 -1.445994e-03 1.597970e-04 -4.075686e-04 -5.035250e-04 1.316078e-03 -1.385259e-03 3.205067e-03 -4.486955e-03 -2.158685e-03 -1.775732e-03 -6.183949e-04 -7.186503e-05 
