# vtk DataFile Version 2.0
Comment goes here
ASCII

DATASET STRUCTURED_POINTS
FIELD FieldData 1
TIME 1 1 double
0.90000000
DIMENSIONS    128   16   1

ORIGIN    0.000   0.000   0.000
SPACING   0.0078125 0.015625   1.000

POINT_DATA   2048
SCALARS uX double
LOOKUP_TABLE default

2.208094e-03 -1.126814e-03 2.232306e-03 -3.122722e-03 1.760846e-03 -8.092994e-03 1.368558e-03 -2.427322e-03 -6.581626e-04 -1.119239e-03 -8.645002e-04 2.106395e-05 -1.076014e-03 -1.991152e-03 -3.493607e-03 -1.184288e-03 -4.796662e-03 -1.583133e-03 -4.234133e-03 -1.900136e-03 -3.063493e-03 8.341004e-04 -1.316530e-03 6.214521e-04 -1.890566e-03 7.801781e-05 -2.058516e-03 -3.542457e-04 -2.020642e-03 -7.435590e-04 -1.874623e-03 -1.095061e-03 -1.681442e-03 -1.402293e-03 -1.485902e-03 -1.652909e-03 -1.318811e-03 -1.833726e-03 -1.198910e-03 -1.936933e-03 -1.135685e-03 -1.962859e-03 -1.131496e-03 -1.918883e-03 -1.181059e-03 -1.813835e-03 -1.266655e-03 -1.650488e-03 -1.352088e-03 -1.416239e-03 -1.369356e-03 -1.062866e-03 -1.185124e-03 -4.653879e-04 -5.193998e-04 8.826149e-04 2.445220e-03 6.382780e-03 3.776140e-03 6.883348e-03 5.723756e-03 7.328287e-03 8.648536e-03 8.490952e-03 9.258070e-03 7.797325e-03 1.012862e-02 7.155083e-03 8.106374e-03 7.688591e-03 4.955694e-03 7.894590e-03 6.385561e-03 3.102295e-03 1.537146e-03 5.833375e-06 -3.330380e-04 -1.020433e-03 -1.060837e-03 -1.293020e-03 -1.402183e-03 -1.266094e-03 -1.620755e-03 -1.122001e-03 -1.797563e-03 -9.459715e-04 -1.942192e-03 -7.905995e-04 -2.039487e-03 -6.947228e-04 -2.068588e-03 -6.858871e-04 -2.010917e-03 -7.777086e-04 -1.854684e-03 -9.696056e-04 -1.600634e-03 -1.249498e-03 -1.266989e-03 -1.595179e-03 -8.896873e-04 -1.970689e-03 -5.155280e-04 -2.323083e-03 -1.965837e-04 -2.588049e-03 1.082925e-05 -2.701324e-03 4.825774e-05 -2.609018e-03 -1.344632e-04 -2.271363e-03 -5.603057e-04 -1.666094e-03 -1.205989e-03 -8.023799e-04 -1.982337e-03 2.525925e-04 -2.697476e-03 1.322358e-03 -2.982817e-03 1.978152e-03 -2.121581e-03 -4.192170e-04 1.282098e-03 2.269886e-04 2.078882e-03 -1.354559e-04 
1.746442e-03 -1.011301e-03 1.818514e-03 -2.647774e-03 1.565117e-03 -9.294925e-03 1.235940e-03 -1.212186e-03 -2.211924e-03 -8.830604e-05 -4.285060e-03 2.675195e-04 -7.616221e-03 -9.880577e-04 -6.724511e-03 -1.678492e-03 -6.116481e-03 -2.137964e-03 -5.502596e-03 -3.060287e-03 -4.506519e-03 -4.776774e-03 -2.700210e-03 -2.418205e-03 -2.071205e-03 -1.364745e-03 -1.626211e-03 -8.607423e-04 -1.246128e-03 -6.902867e-04 -9.102089e-04 -7.099092e-04 -6.156591e-04 -8.181678e-04 -3.640259e-04 -9.425403e-04 -1.653370e-04 -1.042571e-03 -3.265932e-05 -1.098576e-03 2.662578e-05 -1.106779e-03 1.171828e-05 -1.065958e-03 -6.026750e-05 -9.688724e-04 -1.588413e-04 -8.051675e-04 -2.307598e-04 -5.327617e-04 -1.537778e-04 -1.759604e-05 3.530858e-04 1.094153e-03 1.966751e-03 3.940213e-03 7.171641e-03 1.095331e-02 5.112188e-03 8.995002e-03 6.534994e-03 5.971911e-03 5.353637e-03 3.547856e-03 7.035637e-03 3.273538e-03 6.548707e-03 4.781182e-03 8.009938e-03 8.998513e-03 6.202857e-03 1.033917e-02 8.645313e-03 4.906688e-03 3.338332e-03 1.359235e-03 1.159468e-03 1.043069e-04 2.716936e-04 -2.742934e-04 -1.399312e-04 -2.827529e-04 -3.815801e-04 -1.394813e-04 -5.696490e-04 4.498193e-05 -7.265141e-04 2.106287e-04 -8.366485e-04 3.166098e-04 -8.743935e-04 3.388921e-04 -8.168889e-04 2.617461e-04 -6.583399e-04 7.921216e-05 -4.040024e-04 -1.984659e-04 -7.136433e-05 -5.478285e-04 3.074658e-04 -9.306220e-04 6.884910e-04 -1.291366e-03 1.024055e-03 -1.561796e-03 1.256616e-03 -1.682562e-03 1.319051e-03 -1.600140e-03 1.159703e-03 -1.267818e-03 7.493087e-04 -6.546093e-04 1.000216e-04 2.501901e-04 -7.281836e-04 1.403499e-03 -1.618977e-03 2.655403e-03 -2.352934e-03 3.518164e-03 -2.350164e-03 -3.242238e-04 3.040223e-03 4.263662e-04 2.105675e-03 -1.890935e-04 
2.557641e-03 1.040428e-03 3.114801e-03 1.900336e-03 4.692243e-03 -2.343403e-03 2.583410e-03 -7.318998e-04 2.450959e-03 -2.505218e-04 2.623085e-03 -2.110124e-04 3.965232e-03 1.993743e-03 4.322129e-03 2.381096e-03 4.303698e-03 3.276701e-03 3.246517e-03 4.409575e-03 1.632740e-03 4.293153e-03 -4.838150e-04 3.136698e-03 -5.500605e-04 2.709199e-03 -4.889689e-04 2.337860e-03 -3.200281e-04 1.980781e-03 -8.597821e-05 1.614960e-03 1.667753e-04 1.260963e-03 4.194476e-04 9.537743e-04 6.460013e-04 7.009090e-04 8.113447e-04 4.972891e-04 8.856302e-04 3.214078e-04 8.417563e-04 1.518867e-04 6.749140e-04 -3.499051e-05 3.597408e-04 -3.136096e-04 -1.849726e-04 -8.134919e-04 -1.108969e-03 -1.744334e-03 -2.695389e-03 -3.466233e-03 -5.486316e-03 -6.931302e-03 -1.239945e-02 -1.751697e-02 -1.577725e-02 -1.935401e-02 -2.010887e-02 -2.066699e-02 -2.407181e-02 -2.287623e-02 -2.566689e-02 -2.279900e-02 -2.655033e-02 -2.253096e-02 -2.430297e-02 -2.415305e-02 -1.858566e-02 -2.384758e-02 -1.967820e-02 -1.424995e-02 -9.337368e-03 -6.931417e-03 -4.334019e-03 -3.361231e-03 -1.935854e-03 -1.421113e-03 -7.793680e-04 -2.532466e-04 -2.505415e-04 5.128474e-04 -6.111171e-05 1.034252e-03 -4.130674e-05 1.391959e-03 -7.975406e-05 1.617637e-03 -9.890350e-05 1.730470e-03 -4.298261e-05 1.728023e-03 1.037691e-04 1.599651e-03 3.443807e-04 1.352971e-03 6.701545e-04 1.009175e-03 1.056835e-03 6.036228e-04 1.466218e-03 1.914109e-04 1.861513e-03 -1.542434e-04 2.185471e-03 -3.855862e-04 2.353765e-03 -4.571875e-04 2.302787e-03 -3.214630e-04 1.978018e-03 5.311507e-05 1.351375e-03 6.915471e-04 4.028516e-04 1.567013e-03 -9.036426e-04 2.598775e-03 -2.522010e-03 3.597619e-03 -3.802220e-03 3.090429e-03 8.092012e-03 3.013380e-03 3.877833e-03 1.323681e-03 
2.199620e-04 2.356744e-03 1.107186e-03 6.662725e-03 3.584568e-03 1.387457e-02 -1.076338e-03 -7.398912e-04 3.248528e-03 -2.164948e-03 4.744061e-03 -2.281788e-03 6.862087e-03 -1.013495e-03 5.728983e-03 -1.389745e-04 4.830945e-03 5.963742e-04 3.916546e-03 1.817502e-03 2.696229e-03 3.724962e-03 9.001994e-04 2.613860e-03 1.654413e-04 2.134396e-03 -2.365992e-04 1.870971e-03 -4.255829e-04 1.704662e-03 -4.792237e-04 1.560762e-03 -4.532075e-04 1.409476e-03 -3.773245e-04 1.242323e-03 -2.750131e-04 1.051947e-03 -1.711458e-04 8.341574e-04 -9.130229e-05 5.805567e-04 -6.251307e-05 2.772725e-04 -1.087632e-04 -1.022985e-04 -2.749707e-04 -6.224568e-04 -6.561880e-04 -1.406239e-03 -1.436494e-03 -2.689835e-03 -2.979126e-03 -4.960711e-03 -6.051102e-03 -9.510217e-03 -1.278671e-02 -1.736517e-02 -9.583697e-03 -1.433744e-02 -1.070814e-02 -9.796181e-03 -9.754198e-03 -5.961786e-03 -1.123508e-02 -5.333435e-03 -1.024092e-02 -7.432887e-03 -1.035884e-02 -1.224924e-02 -8.316760e-03 -1.401031e-02 -1.017005e-02 -8.171877e-03 -5.103453e-03 -4.237727e-03 -2.604132e-03 -2.254472e-03 -1.331115e-03 -1.120786e-03 -6.690689e-04 -4.184930e-04 -3.200951e-04 3.653712e-05 -1.406408e-04 3.381318e-04 -5.816936e-05 5.482070e-04 -3.471401e-05 7.043908e-04 -4.564798e-05 8.305195e-04 -6.855994e-05 9.317308e-04 -8.850210e-05 1.001304e-03 -9.100978e-05 1.033386e-03 -6.572221e-05 1.023037e-03 -6.871218e-06 9.662626e-04 8.836555e-05 8.633693e-04 2.246638e-04 7.208565e-04 3.990810e-04 5.378676e-04 5.972787e-04 3.160215e-04 8.063170e-04 6.278495e-05 1.008125e-03 -2.133656e-04 1.180645e-03 -4.952717e-04 1.287286e-03 -7.628728e-04 1.262621e-03 -9.496319e-04 1.022621e-03 -7.667732e-04 1.632134e-04 5.529043e-03 3.427526e-03 2.188840e-03 7.681887e-04 1.133985e-03 
-4.594778e-03 -1.345680e-03 -4.451619e-03 7.033886e-04 -3.973601e-03 1.090643e-02 -3.775016e-03 2.997645e-04 -1.924838e-03 -1.408093e-03 -2.580841e-03 -1.851303e-03 -6.318579e-03 -4.212670e-03 -5.642124e-03 -4.810727e-03 -5.243723e-03 -5.221222e-03 -4.777767e-03 -5.895949e-03 -3.995796e-03 -7.008720e-03 -1.552168e-03 -3.976842e-03 -1.065210e-03 -2.578284e-03 -8.837233e-04 -1.719976e-03 -8.967909e-04 -1.152029e-03 -1.005838e-03 -7.290183e-04 -1.134194e-03 -3.997456e-04 -1.249587e-03 -1.568860e-04 -1.320909e-03 1.960271e-05 -1.311159e-03 1.572686e-04 -1.187653e-03 2.985179e-04 -9.139585e-04 4.876728e-04 -4.619532e-04 7.810399e-04 2.397151e-04 1.309977e-03 1.360049e-03 2.315274e-03 3.221910e-03 4.233101e-03 6.467395e-03 7.903665e-03 1.247531e-02 1.548611e-02 2.593952e-02 3.119767e-02 2.316016e-02 2.838073e-02 2.587308e-02 2.401024e-02 2.475981e-02 2.073146e-02 2.686949e-02 2.079815e-02 2.528771e-02 2.326201e-02 2.627261e-02 2.867682e-02 2.278696e-02 3.010199e-02 2.544135e-02 1.815692e-02 1.249771e-02 9.300430e-03 6.229668e-03 4.927293e-03 3.073909e-03 2.540835e-03 1.417917e-03 1.124271e-03 5.421902e-04 2.171938e-04 1.040468e-04 -3.850622e-04 -9.962702e-05 -7.870211e-04 -2.022664e-04 -1.033604e-03 -2.940333e-04 -1.153418e-03 -4.345093e-04 -1.153463e-03 -6.376359e-04 -1.032349e-03 -9.027044e-04 -8.052485e-04 -1.219952e-03 -4.990553e-04 -1.567029e-03 -1.528554e-04 -1.909023e-03 1.777056e-04 -2.212318e-03 4.225832e-04 -2.423248e-03 5.387913e-04 -2.461078e-03 4.870579e-04 -2.263971e-03 2.275635e-04 -1.775112e-03 -2.617995e-04 -9.587220e-04 -9.938240e-04 2.149374e-04 -1.929959e-03 1.773364e-03 -2.985478e-03 3.564894e-03 -3.978192e-03 4.354403e-03 -5.965064e-04 -8.460119e-03 -3.336349e-03 -5.694127e-03 -2.439297e-03 
-7.329132e-03 -6.890287e-03 -8.096905e-03 -9.077819e-03 -1.000179e-02 -9.175976e-03 -5.314738e-03 -3.723307e-03 -6.326982e-03 -3.484722e-03 -5.982832e-03 -3.316808e-03 -6.491218e-03 -5.816641e-03 -6.362014e-03 -5.968137e-03 -6.182685e-03 -6.159286e-03 -5.977287e-03 -6.350260e-03 -5.800792e-03 -6.435705e-03 -4.625902e-03 -6.850731e-03 -4.865506e-03 -6.919983e-03 -4.888110e-03 -6.799961e-03 -4.964596e-03 -6.627807e-03 -5.101307e-03 -6.419696e-03 -5.261937e-03 -6.194954e-03 -5.425178e-03 -5.976623e-03 -5.565413e-03 -5.766427e-03 -5.649493e-03 -5.556031e-03 -5.645003e-03 -5.322584e-03 -5.517779e-03 -5.037055e-03 -5.242384e-03 -4.656455e-03 -4.762562e-03 -4.079041e-03 -3.950574e-03 -3.121071e-03 -2.569110e-03 -1.457515e-03 -1.674654e-04 1.533498e-03 4.173296e-03 7.198282e-03 1.174121e-02 1.350645e-02 8.534395e-03 1.193411e-02 9.244782e-03 9.788613e-03 1.123904e-02 7.248644e-03 1.088870e-02 5.656693e-03 8.382141e-03 5.638869e-03 3.534836e-03 4.374470e-03 2.040269e-03 3.236058e-03 2.923360e-04 -1.084390e-04 -1.789216e-03 -1.865646e-03 -3.086247e-03 -3.127007e-03 -3.974507e-03 -4.077499e-03 -4.539354e-03 -4.814646e-03 -4.878578e-03 -5.387592e-03 -5.054912e-03 -5.821001e-03 -5.127660e-03 -6.141870e-03 -5.150268e-03 -6.365350e-03 -5.169195e-03 -6.505256e-03 -5.223744e-03 -6.559974e-03 -5.328545e-03 -6.520385e-03 -5.490838e-03 -6.389776e-03 -5.709752e-03 -6.181108e-03 -5.973765e-03 -5.916726e-03 -6.261554e-03 -5.632112e-03 -6.552030e-03 -5.375103e-03 -6.807694e-03 -5.175293e-03 -6.969892e-03 -5.061507e-03 -6.992246e-03 -5.065640e-03 -6.832700e-03 -5.210075e-03 -6.467275e-03 -5.517235e-03 -5.884139e-03 -5.984465e-03 -5.081057e-03 -6.598211e-03 -4.126656e-03 -7.302389e-03 -3.148217e-03 -9.764289e-03 -1.148371e-02 -7.913536e-03 -8.153154e-03 -6.601837e-03 
-8.198384e-03 -7.724571e-03 -8.773797e-03 -9.333702e-03 -1.042038e-02 -1.254138e-02 -8.411151e-03 -6.855938e-03 -9.102407e-03 -6.338783e-03 -8.616465e-03 -6.281658e-03 -7.068874e-03 -6.367678e-03 -6.946513e-03 -6.532894e-03 -6.744373e-03 -6.751693e-03 -6.512347e-03 -6.971274e-03 -6.319192e-03 -7.056829e-03 -7.001163e-03 -8.522887e-03 -7.315387e-03 -8.956845e-03 -7.412376e-03 -9.018293e-03 -7.481993e-03 -8.921240e-03 -7.567093e-03 -8.752388e-03 -7.667910e-03 -8.553235e-03 -7.772505e-03 -8.345714e-03 -7.863842e-03 -8.138427e-03 -7.922498e-03 -7.932343e-03 -7.930350e-03 -7.722882e-03 -7.874392e-03 -7.503987e-03 -7.752769e-03 -7.272690e-03 -7.578116e-03 -7.038012e-03 -7.397474e-03 -6.856660e-03 -7.355689e-03 -6.921583e-03 -7.853709e-03 -7.775368e-03 -9.993090e-03 -1.115891e-02 -1.755425e-02 -1.981092e-02 -1.259343e-02 -1.594059e-02 -1.306392e-02 -1.172959e-02 -1.128799e-02 -8.517830e-03 -1.277448e-02 -8.570662e-03 -1.167003e-02 -1.062176e-02 -1.326775e-02 -1.495423e-02 -1.262589e-02 -1.728052e-02 -1.602123e-02 -1.122553e-02 -9.696273e-03 -7.744889e-03 -7.696294e-03 -6.891117e-03 -7.214429e-03 -6.913674e-03 -7.216503e-03 -7.219154e-03 -7.341376e-03 -7.576198e-03 -7.464322e-03 -7.898011e-03 -7.554461e-03 -8.157702e-03 -7.617273e-03 -8.349443e-03 -7.671007e-03 -8.474239e-03 -7.735738e-03 -8.532133e-03 -7.825591e-03 -8.523095e-03 -7.948449e-03 -8.451835e-03 -8.104634e-03 -8.328914e-03 -8.287055e-03 -8.170782e-03 -8.482424e-03 -7.999896e-03 -8.673358e-03 -7.842768e-03 -8.836828e-03 -7.723442e-03 -8.946424e-03 -7.664371e-03 -8.981502e-03 -7.686104e-03 -8.932933e-03 -7.804014e-03 -8.812204e-03 -8.026531e-03 -8.660107e-03 -8.343736e-03 -8.552786e-03 -8.702759e-03 -8.574485e-03 -8.924928e-03 -8.522120e-03 -1.054334e-02 -9.319781e-03 -8.325233e-03 -8.362391e-03 -7.501058e-03 
-8.507133e-03 -8.543193e-03 -8.698404e-03 -9.025566e-03 -9.017139e-03 -9.492279e-03 -8.714206e-03 -8.412655e-03 -8.579203e-03 -8.350632e-03 -8.345949e-03 -8.758981e-03 -6.624504e-03 -6.273378e-03 -6.513912e-03 -6.305480e-03 -6.407024e-03 -6.386618e-03 -6.318709e-03 -6.488130e-03 -6.279593e-03 -6.587739e-03 -7.459684e-03 -7.415682e-03 -7.110237e-03 -7.915964e-03 -7.127082e-03 -8.270486e-03 -7.235968e-03 -8.436415e-03 -7.370839e-03 -8.464629e-03 -7.514337e-03 -8.408112e-03 -7.656910e-03 -8.307947e-03 -7.787912e-03 -8.191157e-03 -7.895541e-03 -8.073952e-03 -7.969854e-03 -7.965136e-03 -8.006191e-03 -7.871092e-03 -8.010359e-03 -7.802121e-03 -8.004763e-03 -7.783751e-03 -8.046799e-03 -7.887866e-03 -8.278334e-03 -8.304482e-03 -9.040038e-03 -9.502367e-03 -1.115457e-02 -1.269584e-02 -1.641901e-02 -1.773739e-02 -1.382620e-02 -1.648471e-02 -1.446934e-02 -1.542367e-02 -1.642840e-02 -1.441914e-02 -1.650555e-02 -1.354863e-02 -1.551787e-02 -1.376525e-02 -1.264658e-02 -1.324183e-02 -1.200949e-02 -1.300462e-02 -1.192354e-02 -1.015715e-02 -9.584380e-03 -8.736122e-03 -8.650030e-03 -8.225271e-03 -8.230444e-03 -8.099001e-03 -8.026345e-03 -8.148118e-03 -7.908551e-03 -8.267531e-03 -7.823952e-03 -8.402573e-03 -7.756766e-03 -8.523718e-03 -7.708654e-03 -8.613309e-03 -7.688460e-03 -8.660355e-03 -7.706192e-03 -8.657533e-03 -7.768207e-03 -8.601555e-03 -7.875876e-03 -8.495144e-03 -8.024320e-03 -8.347518e-03 -8.202159e-03 -8.174715e-03 -8.392720e-03 -7.999488e-03 -8.575904e-03 -7.849090e-03 -8.728435e-03 -7.750474e-03 -8.826462e-03 -7.729161e-03 -8.852765e-03 -7.808095e-03 -8.802781e-03 -8.004392e-03 -8.690714e-03 -8.323527e-03 -8.551490e-03 -8.744453e-03 -8.437580e-03 -9.196851e-03 -8.416000e-03 -9.538034e-03 -8.536102e-03 -9.528409e-03 -8.854320e-03 -8.789306e-03 -8.590725e-03 -8.430768e-03 
-8.708263e-03 -8.607139e-03 -8.981535e-03 -9.211935e-03 -9.326629e-03 -9.745606e-03 -9.132207e-03 -8.787628e-03 -9.158366e-03 -8.677234e-03 -8.954810e-03 -9.126861e-03 -7.044138e-03 -6.632559e-03 -6.934958e-03 -6.695508e-03 -6.800994e-03 -6.816556e-03 -6.672341e-03 -6.947050e-03 -6.600370e-03 -7.044003e-03 -7.605091e-03 -7.627035e-03 -7.214822e-03 -8.130455e-03 -7.306898e-03 -8.512072e-03 -7.474882e-03 -8.682658e-03 -7.637010e-03 -8.701184e-03 -7.787352e-03 -8.633056e-03 -7.929756e-03 -8.527354e-03 -8.065291e-03 -8.417406e-03 -8.192927e-03 -8.325777e-03 -8.312978e-03 -8.269257e-03 -8.431296e-03 -8.264180e-03 -8.564491e-03 -8.333622e-03 -8.747060e-03 -8.517483e-03 -9.040788e-03 -8.885726e-03 -9.545431e-03 -9.552665e-03 -1.040131e-02 -1.067627e-02 -1.174786e-02 -1.242121e-02 -1.360298e-02 -1.456870e-02 -1.388833e-02 -1.451975e-02 -1.412952e-02 -1.388479e-02 -1.429774e-02 -1.324063e-02 -1.425953e-02 -1.286787e-02 -1.396100e-02 -1.300920e-02 -1.339170e-02 -1.312859e-02 -1.282079e-02 -1.278420e-02 -1.244200e-02 -1.142409e-02 -1.109444e-02 -1.014740e-02 -1.000296e-02 -9.309733e-03 -9.267911e-03 -8.847315e-03 -8.799879e-03 -8.633044e-03 -8.499275e-03 -8.563537e-03 -8.299840e-03 -8.568886e-03 -8.164946e-03 -8.603589e-03 -8.077334e-03 -8.637812e-03 -8.031019e-03 -8.652111e-03 -8.025701e-03 -8.634881e-03 -8.062565e-03 -8.581080e-03 -8.140733e-03 -8.491359e-03 -8.254803e-03 -8.371642e-03 -8.394391e-03 -8.233336e-03 -8.545457e-03 -8.093324e-03 -8.691976e-03 -7.972390e-03 -8.817445e-03 -7.892478e-03 -8.907232e-03 -7.874114e-03 -8.952702e-03 -7.934656e-03 -8.956433e-03 -8.085721e-03 -8.935023e-03 -8.326734e-03 -8.915051e-03 -8.632622e-03 -8.917188e-03 -8.939663e-03 -8.931092e-03 -9.162995e-03 -8.911949e-03 -9.273600e-03 -8.878106e-03 -8.722506e-03 -8.693058e-03 -8.423793e-03 
-8.508020e-03 -8.542998e-03 -8.699655e-03 -9.025164e-03 -9.018574e-03 -9.491815e-03 -8.715090e-03 -8.411761e-03 -8.579559e-03 -8.349726e-03 -8.345740e-03 -8.758490e-03 -6.624304e-03 -6.273713e-03 -6.513864e-03 -6.305885e-03 -6.407275e-03 -6.387026e-03 -6.319282e-03 -6.488634e-03 -6.280386e-03 -6.588408e-03 -7.467579e-03 -7.422622e-03 -7.123827e-03 -7.929227e-03 -7.145529e-03 -8.291622e-03 -7.262338e-03 -8.470507e-03 -7.413005e-03 -8.519439e-03 -7.581855e-03 -8.490718e-03 -7.758060e-03 -8.426090e-03 -7.933985e-03 -8.360128e-03 -8.106542e-03 -8.320484e-03 -8.276847e-03 -8.328810e-03 -8.451314e-03 -8.402793e-03 -8.644576e-03 -8.563434e-03 -8.888372e-03 -8.846211e-03 -9.238440e-03 -9.307543e-03 -9.774995e-03 -1.002531e-02 -1.059092e-02 -1.107992e-02 -1.173789e-02 -1.247384e-02 -1.305572e-02 -1.387193e-02 -1.365607e-02 -1.441886e-02 -1.422908e-02 -1.451375e-02 -1.472947e-02 -1.434801e-02 -1.478296e-02 -1.401466e-02 -1.435167e-02 -1.362239e-02 -1.350330e-02 -1.300338e-02 -1.269628e-02 -1.221916e-02 -1.189046e-02 -1.118568e-02 -1.093079e-02 -1.030561e-02 -1.012729e-02 -9.680562e-03 -9.503581e-03 -9.276894e-03 -9.022491e-03 -9.037288e-03 -8.647383e-03 -8.912115e-03 -8.356062e-03 -8.860990e-03 -8.135339e-03 -8.847989e-03 -7.977304e-03 -8.842096e-03 -7.878096e-03 -8.818704e-03 -7.837472e-03 -8.763085e-03 -7.857968e-03 -8.669986e-03 -7.938957e-03 -8.539850e-03 -8.071722e-03 -8.377312e-03 -8.239229e-03 -8.193527e-03 -8.420670e-03 -8.008818e-03 -8.594348e-03 -7.850427e-03 -8.738656e-03 -7.748077e-03 -8.832198e-03 -7.727237e-03 -8.856148e-03 -7.808069e-03 -8.804484e-03 -8.006344e-03 -8.690724e-03 -8.326465e-03 -8.549774e-03 -8.747949e-03 -8.435135e-03 -9.200883e-03 -8.413773e-03 -9.542006e-03 -8.534588e-03 -9.530387e-03 -8.854155e-03 -8.790108e-03 -8.591188e-03 -8.430930e-03 
-8.200508e-03 -7.724545e-03 -8.776507e-03 -9.333650e-03 -1.042346e-02 -1.254291e-02 -8.413368e-03 -6.853685e-03 -9.103719e-03 -6.336994e-03 -8.616162e-03 -6.281166e-03 -7.067828e-03 -6.368701e-03 -6.945833e-03 -6.533670e-03 -6.744283e-03 -6.751557e-03 -6.513540e-03 -6.971120e-03 -6.320757e-03 -7.058202e-03 -7.021227e-03 -8.540210e-03 -7.349681e-03 -8.991547e-03 -7.460082e-03 -9.074070e-03 -7.549990e-03 -9.008635e-03 -7.672032e-03 -8.887650e-03 -7.830734e-03 -8.752025e-03 -8.012296e-03 -8.626060e-03 -8.205864e-03 -8.533691e-03 -8.408664e-03 -8.496982e-03 -8.622830e-03 -8.534035e-03 -8.853912e-03 -8.656680e-03 -9.110336e-03 -8.875390e-03 -9.412128e-03 -9.208578e-03 -9.792389e-03 -9.679333e-03 -1.028620e-02 -1.030332e-02 -1.091069e-02 -1.106621e-02 -1.163476e-02 -1.188926e-02 -1.234177e-02 -1.258438e-02 -1.283138e-02 -1.294179e-02 -1.313951e-02 -1.301238e-02 -1.328222e-02 -1.292166e-02 -1.330092e-02 -1.277566e-02 -1.315776e-02 -1.258963e-02 -1.289840e-02 -1.227484e-02 -1.251842e-02 -1.180836e-02 -1.200170e-02 -1.124251e-02 -1.139134e-02 -1.064602e-02 -1.074858e-02 -1.010906e-02 -1.014397e-02 -9.680175e-03 -9.610151e-03 -9.367358e-03 -9.157954e-03 -9.160613e-03 -8.791312e-03 -9.039402e-03 -8.506463e-03 -8.973434e-03 -8.295730e-03 -8.930503e-03 -8.152108e-03 -8.881808e-03 -8.072583e-03 -8.809838e-03 -8.060146e-03 -8.708300e-03 -8.115242e-03 -8.575559e-03 -8.228709e-03 -8.412017e-03 -8.381574e-03 -8.224081e-03 -8.552287e-03 -8.029246e-03 -8.719879e-03 -7.853184e-03 -8.864047e-03 -7.724718e-03 -8.962785e-03 -7.665442e-03 -8.991810e-03 -7.689896e-03 -8.939078e-03 -7.810978e-03 -8.814584e-03 -8.034820e-03 -8.658672e-03 -8.352736e-03 -8.549384e-03 -8.712626e-03 -8.570794e-03 -8.934724e-03 -8.519143e-03 -1.054615e-02 -9.319645e-03 -8.326379e-03 -8.363699e-03 -7.501465e-03 
-7.331969e-03 -6.888878e-03 -8.101079e-03 -9.075880e-03 -1.000958e-02 -9.174722e-03 -5.317374e-03 -3.719425e-03 -6.328536e-03 -3.480557e-03 -5.980188e-03 -3.313426e-03 -6.489425e-03 -5.817826e-03 -6.361227e-03 -5.969481e-03 -6.183252e-03 -6.160109e-03 -5.979250e-03 -6.351570e-03 -5.803720e-03 -6.440152e-03 -4.652288e-03 -6.869366e-03 -4.904664e-03 -6.951614e-03 -4.926090e-03 -6.840478e-03 -5.006629e-03 -6.695541e-03 -5.183022e-03 -6.551068e-03 -5.422831e-03 -6.405539e-03 -5.671731e-03 -6.261406e-03 -5.907620e-03 -6.154577e-03 -6.137206e-03 -6.121340e-03 -6.371108e-03 -6.190151e-03 -6.618597e-03 -6.363166e-03 -6.870803e-03 -6.629144e-03 -7.142801e-03 -7.006587e-03 -7.483232e-03 -7.526023e-03 -7.943397e-03 -8.204737e-03 -8.547108e-03 -9.016692e-03 -9.262368e-03 -9.873781e-03 -9.987618e-03 -1.061362e-02 -1.060878e-02 -1.115541e-02 -1.111058e-02 -1.145267e-02 -1.144319e-02 -1.149698e-02 -1.155253e-02 -1.133150e-02 -1.139236e-02 -1.095699e-02 -1.100934e-02 -1.038493e-02 -1.047408e-02 -9.707210e-03 -9.812742e-03 -9.040912e-03 -9.159699e-03 -8.427988e-03 -8.510927e-03 -7.906470e-03 -7.892605e-03 -7.498698e-03 -7.318184e-03 -7.201760e-03 -6.802737e-03 -7.019905e-03 -6.378703e-03 -6.945492e-03 -6.051203e-03 -6.934136e-03 -5.809341e-03 -6.936323e-03 -5.640449e-03 -6.901355e-03 -5.539185e-03 -6.809971e-03 -5.529177e-03 -6.671003e-03 -5.627915e-03 -6.489387e-03 -5.823609e-03 -6.256743e-03 -6.074550e-03 -5.969853e-03 -6.342932e-03 -5.656977e-03 -6.599745e-03 -5.364567e-03 -6.822197e-03 -5.153026e-03 -6.978305e-03 -5.050917e-03 -6.999975e-03 -5.065304e-03 -6.838344e-03 -5.219254e-03 -6.467961e-03 -5.526540e-03 -5.875478e-03 -5.993253e-03 -5.070359e-03 -6.610442e-03 -4.118705e-03 -7.318204e-03 -3.142776e-03 -9.769703e-03 -1.148701e-02 -7.914213e-03 -8.155498e-03 -6.601247e-03 
-4.599778e-03 -1.343715e-03 -4.458140e-03 7.074158e-04 -3.985459e-03 1.091497e-02 -3.779834e-03 2.954942e-04 -1.928569e-03 -1.411695e-03 -2.581299e-03 -1.852042e-03 -6.321302e-03 -4.213226e-03 -5.638781e-03 -4.811619e-03 -5.238819e-03 -5.216613e-03 -4.779839e-03 -5.890720e-03 -3.998090e-03 -7.018379e-03 -1.558673e-03 -4.007621e-03 -1.084402e-03 -2.624682e-03 -9.006379e-04 -1.774276e-03 -9.180502e-04 -1.237968e-03 -1.074165e-03 -8.943930e-04 -1.292648e-03 -6.619100e-04 -1.493918e-03 -4.984484e-04 -1.649593e-03 -4.212376e-04 -1.771973e-03 -4.545241e-04 -1.879188e-03 -6.159738e-04 -1.987049e-03 -8.903834e-04 -2.083482e-03 -1.245323e-03 -2.182701e-03 -1.687921e-03 -2.337966e-03 -2.241611e-03 -2.604661e-03 -2.918302e-03 -3.011768e-03 -3.692176e-03 -3.542976e-03 -4.496094e-03 -4.137170e-03 -5.217012e-03 -4.658055e-03 -5.609822e-03 -5.137195e-03 -5.765160e-03 -5.563708e-03 -5.762274e-03 -5.814893e-03 -5.638564e-03 -5.898167e-03 -5.433346e-03 -5.708886e-03 -5.141455e-03 -5.337458e-03 -4.683907e-03 -4.885049e-03 -3.992959e-03 -4.244684e-03 -3.303860e-03 -3.596783e-03 -2.732568e-03 -2.987074e-03 -2.300071e-03 -2.419466e-03 -1.990737e-03 -1.904776e-03 -1.804486e-03 -1.485369e-03 -1.729980e-03 -1.171996e-03 -1.710420e-03 -9.557853e-04 -1.686148e-03 -8.242832e-04 -1.598266e-03 -7.715850e-04 -1.430824e-03 -8.277568e-04 -1.205006e-03 -1.012648e-03 -9.358699e-04 -1.305838e-03 -6.201933e-04 -1.645585e-03 -2.608938e-04 -1.974329e-03 9.817057e-05 -2.245796e-03 3.901615e-04 -2.423268e-03 5.298449e-04 -2.460791e-03 4.755318e-04 -2.266779e-03 2.169245e-04 -1.776915e-03 -2.722158e-04 -9.552532e-04 -9.946580e-04 2.285969e-04 -1.923623e-03 1.786060e-03 -2.980639e-03 3.569885e-03 -3.978769e-03 4.353672e-03 -6.030841e-04 -8.470417e-03 -3.337645e-03 -5.699791e-03 -2.438856e-03 
2.188894e-04 2.360251e-03 1.106751e-03 6.667552e-03 3.585221e-03 1.388346e-02 -1.078625e-03 -7.428101e-04 3.246095e-03 -2.165848e-03 4.738076e-03 -2.275242e-03 6.855269e-03 -9.951119e-04 5.717905e-03 -1.156601e-04 4.829630e-03 6.078475e-04 3.935729e-03 1.808469e-03 2.726260e-03 3.708598e-03 9.472714e-04 2.606289e-03 2.236701e-04 2.136558e-03 -1.765745e-04 1.879797e-03 -3.624201e-04 1.726594e-03 -3.947646e-04 1.611105e-03 -3.242062e-04 1.495707e-03 -1.947023e-04 1.366707e-03 -2.836964e-05 1.237016e-03 1.677407e-04 1.124726e-03 3.875214e-04 1.046787e-03 6.231320e-04 1.007895e-03 8.569442e-04 1.004210e-03 1.081616e-03 1.041907e-03 1.303623e-03 1.126757e-03 1.527246e-03 1.251317e-03 1.740253e-03 1.381951e-03 1.904839e-03 1.457601e-03 1.966146e-03 1.407524e-03 1.953036e-03 1.371420e-03 1.872502e-03 1.320637e-03 1.747615e-03 1.251765e-03 1.663587e-03 1.238699e-03 1.613072e-03 1.236938e-03 1.640433e-03 1.219128e-03 1.682821e-03 1.219573e-03 1.618315e-03 1.290519e-03 1.596690e-03 1.321302e-03 1.493921e-03 1.283015e-03 1.320342e-03 1.207054e-03 1.109208e-03 1.123084e-03 8.914490e-04 1.060038e-03 6.961773e-04 1.034990e-03 5.310219e-04 1.041682e-03 3.916161e-04 1.066147e-03 2.713695e-04 1.088464e-03 1.673823e-04 1.099108e-03 9.209922e-05 1.098549e-03 5.752924e-05 1.082854e-03 6.542187e-05 1.039341e-03 1.074815e-04 9.552501e-04 1.808696e-04 8.304362e-04 2.887337e-04 6.712958e-04 4.369093e-04 4.902743e-04 6.244430e-04 2.859385e-04 8.279786e-04 5.057897e-05 1.025365e-03 -2.090308e-04 1.192633e-03 -4.814275e-04 1.291058e-03 -7.427389e-04 1.260451e-03 -9.246373e-04 1.016361e-03 -7.403682e-04 1.546797e-04 5.536624e-03 3.424575e-03 2.192897e-03 7.662913e-04 1.137219e-03 
2.558722e-03 1.041486e-03 3.117236e-03 1.900317e-03 4.699185e-03 -2.345651e-03 2.582353e-03 -7.293364e-04 2.447847e-03 -2.479908e-04 2.613736e-03 -2.075723e-04 3.954248e-03 2.001691e-03 4.302431e-03 2.397059e-03 4.287901e-03 3.273521e-03 3.266195e-03 4.376124e-03 1.687704e-03 4.268327e-03 -4.385866e-04 3.125894e-03 -5.071259e-04 2.704044e-03 -4.660541e-04 2.324520e-03 -3.148778e-04 1.974757e-03 -6.051648e-05 1.654184e-03 2.502495e-04 1.350750e-03 5.472607e-04 1.063045e-03 8.010542e-04 8.334249e-04 1.017532e-03 7.014498e-04 1.205800e-03 6.945288e-04 1.373092e-03 8.040030e-04 1.501922e-03 1.004260e-03 1.609950e-03 1.315563e-03 1.768375e-03 1.787235e-03 2.071138e-03 2.479422e-03 2.613338e-03 3.447430e-03 3.471830e-03 4.737503e-03 4.673630e-03 6.326977e-03 5.834889e-03 7.311336e-03 7.004929e-03 7.929831e-03 8.117872e-03 8.305659e-03 8.711892e-03 8.265728e-03 8.843699e-03 7.977259e-03 8.213468e-03 7.496215e-03 7.168311e-03 6.617428e-03 6.224012e-03 5.085269e-03 4.751996e-03 3.676770e-03 3.504752e-03 2.706297e-03 2.558912e-03 2.123981e-03 1.832380e-03 1.814811e-03 1.255233e-03 1.706242e-03 8.182169e-04 1.742509e-03 5.037369e-04 1.840256e-03 2.903749e-04 1.924045e-03 1.626885e-04 1.924707e-03 1.167609e-04 1.820272e-03 1.873548e-04 1.629232e-03 3.987748e-04 1.365848e-03 7.335159e-04 1.027273e-03 1.131232e-03 6.184633e-04 1.535575e-03 1.877109e-04 1.901143e-03 -1.926614e-04 2.191281e-03 -4.316401e-04 2.359034e-03 -4.830093e-04 2.311185e-03 -3.315579e-04 1.985503e-03 5.715570e-05 1.353146e-03 6.968484e-04 3.925268e-04 1.572520e-03 -9.162027e-04 2.609481e-03 -2.530836e-03 3.613286e-03 -3.808317e-03 3.100920e-03 8.096704e-03 3.017192e-03 3.879097e-03 1.325692e-03 
1.747311e-03 -1.010715e-03 1.819942e-03 -2.648452e-03 1.568527e-03 -9.298695e-03 1.236782e-03 -1.208342e-03 -2.212068e-03 -8.563812e-05 -4.286018e-03 2.668383e-04 -7.615334e-03 -9.921551e-04 -6.715009e-03 -1.688269e-03 -6.107507e-03 -2.143596e-03 -5.498800e-03 -3.057468e-03 -4.495127e-03 -4.775161e-03 -2.685457e-03 -2.413921e-03 -2.057322e-03 -1.359799e-03 -1.617454e-03 -8.578577e-04 -1.239987e-03 -6.810777e-04 -8.912788e-04 -6.775042e-04 -5.696172e-04 -7.580709e-04 -2.957177e-04 -8.648034e-04 -8.000008e-05 -9.444816e-04 8.119644e-05 -9.588786e-04 1.963173e-04 -8.842608e-04 2.778952e-04 -7.154802e-04 3.365587e-04 -4.522632e-04 4.070445e-04 -6.907098e-05 5.587202e-04 4.843686e-04 8.852118e-04 1.277785e-03 1.487673e-03 2.379712e-03 2.417397e-03 3.787205e-03 3.626417e-03 5.550448e-03 4.331482e-03 5.925519e-03 5.121212e-03 5.934726e-03 6.271324e-03 6.007279e-03 6.744548e-03 5.888916e-03 7.215257e-03 5.950150e-03 6.589200e-03 6.116888e-03 5.827014e-03 5.976117e-03 5.497177e-03 4.296474e-03 3.888869e-03 2.722180e-03 2.581589e-03 1.636082e-03 1.596567e-03 9.697379e-04 8.625171e-04 6.095956e-04 3.038265e-04 4.596706e-04 -1.159078e-04 4.415733e-04 -4.190203e-04 4.768176e-04 -6.183365e-04 4.995526e-04 -7.187772e-04 4.574160e-04 -7.189899e-04 3.276008e-04 -6.050082e-04 1.134867e-04 -3.725808e-04 -1.739950e-04 -4.258195e-05 -5.222461e-04 3.379785e-04 -9.064486e-04 7.165002e-04 -1.275423e-03 1.040925e-03 -1.561548e-03 1.260726e-03 -1.689089e-03 1.322435e-03 -1.603376e-03 1.163485e-03 -1.268816e-03 7.518613e-04 -6.533066e-04 9.972365e-05 2.498993e-04 -7.329284e-04 1.401855e-03 -1.623613e-03 2.654876e-03 -2.354563e-03 3.519233e-03 -2.349695e-03 -3.190335e-04 3.043220e-03 4.286809e-04 2.106760e-03 -1.877055e-04 
