# vtk DataFile Version 2.0
Comment goes here
ASCII

DATASET STRUCTURED_POINTS
FIELD FieldData 1
TIME 1 1 double
0.53000000
DIMENSIONS    128   16   1

ORIGIN    0.000   0.000   0.000
SPACING   0.0078125 0.015625   1.000

POINT_DATA   2048
SCALARS uX double
LOOKUP_TABLE default

5.700415e-03 3.901422e-03 4.469580e-03 2.203691e-03 3.073421e-03 2.257745e-03 9.349042e-03 -4.251135e-04 4.942244e-03 -4.464824e-03 -3.311125e-03 -1.425713e-02 -2.097099e-02 -3.610677e-02 -4.389504e-02 -4.777799e-02 -4.990054e-02 -5.002645e-02 -4.738367e-02 -4.306598e-02 -3.633110e-02 -2.031848e-02 -1.336161e-02 -4.766170e-03 -2.737562e-03 1.755429e-03 1.675037e-03 4.538386e-03 3.498632e-03 5.710437e-03 4.208057e-03 6.150139e-03 4.452616e-03 6.252500e-03 4.542304e-03 6.207555e-03 4.609995e-03 6.085214e-03 4.680300e-03 5.900251e-03 4.747821e-03 5.677644e-03 4.822088e-03 5.454075e-03 4.903851e-03 5.241503e-03 4.971887e-03 5.038362e-03 5.018622e-03 4.868407e-03 5.075048e-03 4.788650e-03 5.192162e-03 4.879492e-03 5.488676e-03 5.422462e-03 5.674684e-03 2.307001e-03 3.635371e-03 3.941364e-03 4.056757e-03 9.302938e-04 -3.566754e-03 -4.585677e-03 -8.756371e-04 -2.191028e-03 -5.946116e-03 1.336603e-03 3.316273e-03 3.925920e-03 6.264495e-03 1.772934e-03 1.433647e-03 3.776866e-03 3.093359e-03 4.528137e-03 3.418811e-03 4.736708e-03 3.518385e-03 4.746425e-03 3.573038e-03 4.647773e-03 3.658447e-03 4.476127e-03 3.787223e-03 4.236482e-03 3.944846e-03 3.937746e-03 4.121711e-03 3.615204e-03 4.320201e-03 3.320985e-03 4.529785e-03 3.092850e-03 4.706464e-03 2.942607e-03 4.788559e-03 2.877456e-03 4.733504e-03 2.922261e-03 4.537342e-03 3.111910e-03 4.217729e-03 3.456357e-03 3.787910e-03 3.922418e-03 3.263494e-03 4.454832e-03 2.691264e-03 4.999190e-03 2.154990e-03 5.497884e-03 1.755085e-03 5.880446e-03 1.598349e-03 6.079063e-03 1.818890e-03 6.059646e-03 2.619930e-03 5.826234e-03 4.347648e-03 5.324239e-03 7.712084e-03 5.224051e-04 4.494604e-03 2.098612e-03 5.422022e-03 3.920473e-03 
1.769641e-03 4.754581e-04 2.383527e-04 -1.474330e-03 -3.040373e-03 -1.837772e-03 7.253413e-03 -2.375813e-03 4.768557e-03 -1.879551e-03 2.045189e-03 -1.683515e-03 -1.251030e-03 -2.009968e-04 2.233603e-03 3.047326e-03 2.545234e-03 4.033332e-03 1.656538e-03 3.317373e-03 -9.688770e-04 -3.447318e-04 -1.265793e-03 6.541861e-04 -3.270414e-04 1.288060e-03 6.967837e-05 1.637100e-03 2.387713e-04 1.833934e-03 2.867812e-04 1.897334e-03 2.879846e-04 1.873240e-03 3.018898e-04 1.781119e-03 3.356180e-04 1.623431e-03 3.805524e-04 1.419202e-03 4.556340e-04 1.233331e-03 5.911022e-04 1.089701e-03 7.370554e-04 9.382976e-04 8.144428e-04 7.291366e-04 7.873743e-04 4.860195e-04 7.173396e-04 2.774452e-04 5.727956e-04 -4.403959e-05 3.972547e-05 -9.476319e-04 -2.599263e-03 -7.845935e-03 -4.384870e-03 -4.368219e-03 -4.505560e-03 -3.663854e-03 -4.184831e-03 -5.168155e-03 -2.869971e-03 -2.822409e-03 -6.679922e-03 -1.712140e-03 -3.767934e-03 -5.118265e-03 -4.527156e-04 -5.060530e-03 -4.962709e-03 -2.199144e-03 -2.425912e-03 -7.063993e-04 -1.561024e-03 -1.295339e-04 -1.181070e-03 7.164729e-05 -9.605882e-04 9.912014e-05 -7.497663e-04 3.747227e-05 -5.173973e-04 -1.227635e-04 -3.098929e-04 -4.030638e-04 -1.452142e-04 -7.610286e-04 1.315583e-05 -1.086315e-03 2.341967e-04 -1.279757e-03 4.761807e-04 -1.386636e-03 5.970486e-04 -1.451539e-03 5.382728e-04 -1.438965e-03 3.155876e-04 -1.280057e-03 -1.103760e-05 -9.272474e-04 -4.177737e-04 -4.267117e-04 -9.153440e-04 1.429170e-04 -1.477655e-03 7.205152e-04 -2.010666e-03 1.273150e-03 -2.402610e-03 1.717244e-03 -2.575269e-03 1.978023e-03 -2.382795e-03 2.034709e-03 -1.645128e-03 1.808974e-03 -8.361504e-05 9.485079e-04 3.111052e-03 -6.616249e-03 -4.970840e-04 -2.040679e-03 1.416712e-03 3.194363e-04 
8.908382e-03 7.342968e-03 4.809680e-03 -2.802753e-05 -8.300761e-03 -1.402406e-02 -4.973191e-03 -1.103990e-02 -3.796059e-03 -6.555545e-03 -5.154915e-04 1.137186e-03 8.589247e-03 1.401907e-02 1.746916e-02 1.968639e-02 1.969827e-02 2.074774e-02 1.851805e-02 1.724389e-02 1.397166e-02 6.620243e-03 1.534366e-03 -2.544638e-03 -4.933653e-03 -6.460725e-03 -7.879307e-03 -8.045983e-03 -9.265846e-03 -8.623381e-03 -9.983588e-03 -8.855379e-03 -1.038439e-02 -8.965281e-03 -1.059148e-02 -9.084436e-03 -1.071440e-02 -9.282887e-03 -1.080233e-02 -9.534879e-03 -1.079971e-02 -9.697582e-03 -1.062677e-02 -9.744035e-03 -1.040274e-02 -9.812243e-03 -1.029477e-02 -1.001244e-02 -1.034935e-02 -1.024556e-02 -1.030746e-02 -1.021469e-02 -9.968516e-03 -9.996031e-03 -9.627732e-03 -1.010116e-02 -8.598582e-03 -3.468333e-03 -4.397913e-03 -5.863651e-03 -4.250618e-03 -1.288764e-03 7.103963e-03 7.518696e-03 3.205173e-03 3.996031e-03 1.082637e-02 -1.738519e-03 -4.256141e-03 -4.862896e-03 -1.110978e-02 -2.204970e-03 -4.336300e-03 -6.282046e-03 -8.420554e-03 -8.286642e-03 -1.000778e-02 -9.302425e-03 -1.089235e-02 -9.920570e-03 -1.130975e-02 -1.027004e-02 -1.137249e-02 -1.045802e-02 -1.122113e-02 -1.066723e-02 -1.106677e-02 -1.104343e-02 -1.099685e-02 -1.155459e-02 -1.094101e-02 -1.199453e-02 -1.070227e-02 -1.216683e-02 -1.032846e-02 -1.223373e-02 -1.011280e-02 -1.234354e-02 -1.014564e-02 -1.244305e-02 -1.037602e-02 -1.239765e-02 -1.066955e-02 -1.209327e-02 -1.099629e-02 -1.161013e-02 -1.143164e-02 -1.107862e-02 -1.199864e-02 -1.057553e-02 -1.259578e-02 -1.009553e-02 -1.311455e-02 -9.768669e-03 -1.357721e-02 -9.730084e-03 -1.389746e-02 -1.002944e-02 -1.405110e-02 -1.085749e-02 -1.404381e-02 -1.252645e-02 -1.338664e-02 -1.596197e-02 -2.814074e-03 1.994934e-03 7.049775e-03 7.872914e-03 
9.425648e-03 8.344407e-03 6.164586e-03 5.724365e-04 -6.160467e-03 -2.061962e-02 -2.600386e-02 -1.971307e-02 -2.439039e-02 -1.979419e-02 -2.308276e-02 -2.016664e-02 -2.171948e-02 -2.238953e-02 -2.513146e-02 -2.568017e-02 -2.546840e-02 -2.672470e-02 -2.452511e-02 -2.608603e-02 -2.176514e-02 -2.251183e-02 -2.001772e-02 -2.249020e-02 -2.039089e-02 -2.260901e-02 -2.085354e-02 -2.257547e-02 -2.125025e-02 -2.243008e-02 -2.158114e-02 -2.225808e-02 -2.185143e-02 -2.209166e-02 -2.205754e-02 -2.196154e-02 -2.221727e-02 -2.188424e-02 -2.233757e-02 -2.184156e-02 -2.239201e-02 -2.177094e-02 -2.234331e-02 -2.164641e-02 -2.221830e-02 -2.149299e-02 -2.205341e-02 -2.131341e-02 -2.182617e-02 -2.101264e-02 -2.136192e-02 -2.037553e-02 -2.041085e-02 -1.920493e-02 -1.871948e-02 -1.713712e-02 -1.486326e-02 -9.924906e-03 -1.375941e-02 -1.460659e-02 -1.384537e-02 -1.758224e-02 -1.843264e-02 -1.886079e-02 -1.946866e-02 -2.144339e-02 -1.783042e-02 -2.112848e-02 -1.857633e-02 -1.567406e-02 -2.156296e-02 -1.677308e-02 -1.838253e-02 -1.928024e-02 -2.028488e-02 -2.055926e-02 -2.106572e-02 -2.118111e-02 -2.153410e-02 -2.152125e-02 -2.180255e-02 -2.169184e-02 -2.192657e-02 -2.177319e-02 -2.196201e-02 -2.185309e-02 -2.198411e-02 -2.199078e-02 -2.202361e-02 -2.217367e-02 -2.205531e-02 -2.233007e-02 -2.200299e-02 -2.239899e-02 -2.187189e-02 -2.244908e-02 -2.175438e-02 -2.254435e-02 -2.167642e-02 -2.267367e-02 -2.162234e-02 -2.279256e-02 -2.155296e-02 -2.285842e-02 -2.147138e-02 -2.289091e-02 -2.142204e-02 -2.292179e-02 -2.143662e-02 -2.295846e-02 -2.150972e-02 -2.297372e-02 -2.164007e-02 -2.298501e-02 -2.188155e-02 -2.301287e-02 -2.226933e-02 -2.303698e-02 -2.291076e-02 -2.300372e-02 -2.410154e-02 -2.248585e-02 -2.707005e-02 -1.168212e-02 -4.810484e-03 3.989435e-03 6.550067e-03 9.247701e-03 
3.558838e-02 3.656936e-02 3.813072e-02 3.990283e-02 4.534528e-02 4.324397e-02 2.876738e-02 3.885154e-02 2.798855e-02 3.481142e-02 2.666242e-02 2.976910e-02 2.229363e-02 2.516740e-02 2.493506e-02 2.530296e-02 2.565798e-02 2.532190e-02 2.562335e-02 2.528646e-02 2.477523e-02 2.445695e-02 2.819963e-02 2.881791e-02 3.143979e-02 3.111696e-02 3.305580e-02 3.220694e-02 3.382395e-02 3.270120e-02 3.418936e-02 3.297867e-02 3.434432e-02 3.315457e-02 3.436127e-02 3.331892e-02 3.433038e-02 3.352328e-02 3.428635e-02 3.373351e-02 3.416085e-02 3.380725e-02 3.386279e-02 3.371574e-02 3.348937e-02 3.358077e-02 3.316661e-02 3.347389e-02 3.287054e-02 3.321917e-02 3.222239e-02 3.236074e-02 3.078201e-02 3.064041e-02 2.834665e-02 2.779820e-02 2.255120e-02 1.409842e-02 1.953438e-02 2.137838e-02 1.968442e-02 2.338364e-02 2.055089e-02 2.140970e-02 2.334118e-02 2.663857e-02 1.764376e-02 2.898360e-02 2.530056e-02 2.352928e-02 3.235566e-02 2.368646e-02 2.524592e-02 2.858285e-02 3.056989e-02 3.123196e-02 3.273103e-02 3.263140e-02 3.395515e-02 3.350392e-02 3.458196e-02 3.401480e-02 3.478095e-02 3.428949e-02 3.472570e-02 3.452219e-02 3.464523e-02 3.487297e-02 3.463843e-02 3.533036e-02 3.464326e-02 3.570873e-02 3.447198e-02 3.582391e-02 3.417268e-02 3.583539e-02 3.402994e-02 3.588803e-02 3.412972e-02 3.593276e-02 3.441868e-02 3.584223e-02 3.476151e-02 3.550763e-02 3.512311e-02 3.500743e-02 3.557245e-02 3.447018e-02 3.613183e-02 3.397696e-02 3.670717e-02 3.353622e-02 3.720144e-02 3.329704e-02 3.764819e-02 3.342880e-02 3.797682e-02 3.405005e-02 3.815736e-02 3.548478e-02 3.806034e-02 3.837479e-02 3.631994e-02 4.972889e-02 3.921773e-02 3.958743e-02 3.557621e-02 3.652186e-02 
4.147276e-02 4.293696e-02 4.477441e-02 4.974801e-02 5.660751e-02 6.652199e-02 6.157828e-02 6.295709e-02 5.914268e-02 5.984733e-02 5.622027e-02 5.562514e-02 5.008366e-02 4.990910e-02 5.001020e-02 4.994123e-02 5.004043e-02 4.997619e-02 4.999564e-02 5.002177e-02 4.986858e-02 5.008228e-02 5.349954e-02 5.558157e-02 5.729218e-02 5.866099e-02 5.955407e-02 6.020909e-02 6.084303e-02 6.090230e-02 6.158372e-02 6.121023e-02 6.201141e-02 6.134168e-02 6.223918e-02 6.143117e-02 6.236707e-02 6.154901e-02 6.243852e-02 6.167905e-02 6.241205e-02 6.171356e-02 6.222569e-02 6.162624e-02 6.195626e-02 6.150262e-02 6.170329e-02 6.138946e-02 6.145320e-02 6.114810e-02 6.092474e-02 6.043744e-02 5.978714e-02 5.904794e-02 5.781346e-02 5.659166e-02 5.391168e-02 5.156294e-02 5.478987e-02 5.539278e-02 5.399555e-02 5.699321e-02 5.830932e-02 5.938897e-02 5.709644e-02 6.122490e-02 6.042777e-02 6.081407e-02 6.130234e-02 6.010852e-02 6.268135e-02 6.267786e-02 6.368914e-02 6.276710e-02 6.328156e-02 6.242179e-02 6.308036e-02 6.232768e-02 6.308367e-02 6.235484e-02 6.308387e-02 6.238561e-02 6.298426e-02 6.239663e-02 6.280497e-02 6.247664e-02 6.266265e-02 6.271082e-02 6.260307e-02 6.306193e-02 6.256294e-02 6.337025e-02 6.238900e-02 6.349037e-02 6.210887e-02 6.354187e-02 6.193258e-02 6.363748e-02 6.192648e-02 6.374085e-02 6.205399e-02 6.375194e-02 6.221815e-02 6.358376e-02 6.239976e-02 6.328988e-02 6.265958e-02 6.296265e-02 6.302493e-02 6.265743e-02 6.343683e-02 6.237261e-02 6.383480e-02 6.220852e-02 6.425740e-02 6.227890e-02 6.467652e-02 6.264701e-02 6.513795e-02 6.347527e-02 6.583187e-02 6.495003e-02 6.745759e-02 6.430370e-02 5.334497e-02 4.798704e-02 4.355968e-02 4.253636e-02 
5.266270e-02 5.414473e-02 5.427928e-02 5.784979e-02 5.933819e-02 6.658437e-02 6.735840e-02 6.788564e-02 6.752113e-02 6.810405e-02 6.757893e-02 6.812941e-02 6.753210e-02 6.740125e-02 6.746887e-02 6.742850e-02 6.751499e-02 6.745866e-02 6.747388e-02 6.749671e-02 6.734478e-02 6.755417e-02 6.731531e-02 6.774662e-02 6.733389e-02 6.781960e-02 6.752706e-02 6.783907e-02 6.774860e-02 6.780729e-02 6.795024e-02 6.776230e-02 6.811477e-02 6.772811e-02 6.823402e-02 6.772157e-02 6.831092e-02 6.774688e-02 6.834528e-02 6.778800e-02 6.832653e-02 6.781442e-02 6.824948e-02 6.781704e-02 6.814269e-02 6.781753e-02 6.805121e-02 6.784325e-02 6.801632e-02 6.791780e-02 6.808945e-02 6.812070e-02 6.846190e-02 6.873956e-02 6.961453e-02 7.041751e-02 7.375196e-02 8.001805e-02 7.482560e-02 7.465138e-02 7.491144e-02 7.255274e-02 7.179049e-02 7.257046e-02 7.077896e-02 6.919446e-02 7.392588e-02 6.869324e-02 7.164742e-02 7.391987e-02 6.825969e-02 7.313628e-02 7.300750e-02 7.025401e-02 6.996233e-02 6.892187e-02 6.910882e-02 6.848297e-02 6.881118e-02 6.835895e-02 6.871577e-02 6.836735e-02 6.866167e-02 6.843413e-02 6.859923e-02 6.855269e-02 6.853612e-02 6.872791e-02 6.847943e-02 6.893622e-02 6.841438e-02 6.912707e-02 6.831489e-02 6.926175e-02 6.819664e-02 6.935611e-02 6.811442e-02 6.943167e-02 6.809838e-02 6.947847e-02 6.814707e-02 6.946802e-02 6.824018e-02 6.937926e-02 6.836929e-02 6.922567e-02 6.853979e-02 6.903800e-02 6.874694e-02 6.884302e-02 6.896293e-02 6.865716e-02 6.915110e-02 6.850641e-02 6.927957e-02 6.840623e-02 6.929651e-02 6.833818e-02 6.915721e-02 6.824993e-02 6.890987e-02 6.798857e-02 6.924948e-02 6.377789e-02 5.933480e-02 5.670541e-02 5.414287e-02 5.381700e-02 
5.238664e-02 5.344445e-02 5.388273e-02 5.635897e-02 5.765850e-02 6.114495e-02 6.224194e-02 6.434600e-02 6.555028e-02 6.704179e-02 6.988530e-02 7.143842e-02 7.794894e-02 7.789086e-02 7.794070e-02 7.789442e-02 7.792661e-02 7.791106e-02 7.790738e-02 7.793606e-02 7.788943e-02 7.795747e-02 7.281055e-02 7.143225e-02 6.846069e-02 6.784322e-02 6.628110e-02 6.592233e-02 6.523352e-02 6.489052e-02 6.477998e-02 6.434075e-02 6.461617e-02 6.405489e-02 6.457589e-02 6.392073e-02 6.457643e-02 6.387949e-02 6.457792e-02 6.389228e-02 6.455741e-02 6.392571e-02 6.450491e-02 6.396326e-02 6.443356e-02 6.400907e-02 6.436820e-02 6.407224e-02 6.432900e-02 6.415773e-02 6.433732e-02 6.429922e-02 6.448931e-02 6.465469e-02 6.507285e-02 6.569866e-02 6.743049e-02 7.034984e-02 6.738447e-02 6.758286e-02 6.820047e-02 6.817908e-02 6.824982e-02 6.877692e-02 6.894970e-02 6.721288e-02 6.864630e-02 6.652121e-02 6.573415e-02 6.604941e-02 6.433410e-02 6.517778e-02 6.531191e-02 6.468741e-02 6.515988e-02 6.468711e-02 6.518791e-02 6.465435e-02 6.515946e-02 6.463850e-02 6.511269e-02 6.465526e-02 6.503948e-02 6.470539e-02 6.494254e-02 6.479862e-02 6.483814e-02 6.493913e-02 6.473532e-02 6.510879e-02 6.462817e-02 6.527135e-02 6.450717e-02 6.539770e-02 6.438839e-02 6.548927e-02 6.430992e-02 6.555213e-02 6.429522e-02 6.557539e-02 6.434509e-02 6.553801e-02 6.444626e-02 6.542661e-02 6.458922e-02 6.525082e-02 6.476860e-02 6.503230e-02 6.496768e-02 6.478941e-02 6.514946e-02 6.453088e-02 6.526336e-02 6.426033e-02 6.524942e-02 6.395756e-02 6.501999e-02 6.355420e-02 6.445593e-02 6.291529e-02 6.338813e-02 6.178134e-02 6.153783e-02 5.918859e-02 5.700516e-02 5.525991e-02 5.352241e-02 5.309467e-02 
5.726503e-02 5.844019e-02 5.838663e-02 6.081001e-02 6.146786e-02 6.460499e-02 6.566479e-02 6.751340e-02 6.895464e-02 7.022837e-02 7.317731e-02 7.466117e-02 8.144708e-02 8.139438e-02 8.143999e-02 8.140023e-02 8.143154e-02 8.141939e-02 8.140869e-02 8.144606e-02 8.138017e-02 8.146853e-02 7.648075e-02 7.511494e-02 7.227655e-02 7.168385e-02 7.015754e-02 6.986294e-02 6.913600e-02 6.890846e-02 6.870310e-02 6.841990e-02 6.856155e-02 6.818036e-02 6.854549e-02 6.807659e-02 6.857033e-02 6.805417e-02 6.860124e-02 6.808869e-02 6.862839e-02 6.816637e-02 6.865250e-02 6.827920e-02 6.868367e-02 6.842899e-02 6.874212e-02 6.862745e-02 6.885368e-02 6.889340e-02 6.904568e-02 6.925361e-02 6.934452e-02 6.974163e-02 6.974856e-02 7.035849e-02 7.020205e-02 7.134080e-02 7.048495e-02 7.077545e-02 7.041906e-02 7.040940e-02 7.019623e-02 7.017742e-02 6.997392e-02 6.954106e-02 7.013368e-02 6.938158e-02 6.948882e-02 6.960658e-02 6.903912e-02 6.959711e-02 6.948581e-02 6.935688e-02 6.942710e-02 6.910559e-02 6.927049e-02 6.890139e-02 6.913163e-02 6.879010e-02 6.903113e-02 6.876073e-02 6.895009e-02 6.879364e-02 6.887170e-02 6.887368e-02 6.878856e-02 6.898726e-02 6.869868e-02 6.911784e-02 6.860275e-02 6.924744e-02 6.850639e-02 6.936203e-02 6.842240e-02 6.945326e-02 6.836720e-02 6.951454e-02 6.835337e-02 6.953710e-02 6.838512e-02 6.951159e-02 6.845997e-02 6.943437e-02 6.857241e-02 6.931061e-02 6.871232e-02 6.915019e-02 6.885982e-02 6.896113e-02 6.898250e-02 6.874478e-02 6.903579e-02 6.848962e-02 6.896158e-02 6.815839e-02 6.868269e-02 6.766787e-02 6.809411e-02 6.685983e-02 6.703486e-02 6.544141e-02 6.516346e-02 6.282753e-02 6.128655e-02 5.977035e-02 5.831240e-02 5.810568e-02 
5.238717e-02 5.344266e-02 5.388279e-02 5.635678e-02 5.765840e-02 6.114302e-02 6.224255e-02 6.434606e-02 6.555199e-02 6.704389e-02 6.988713e-02 7.144029e-02 7.794775e-02 7.789019e-02 7.794025e-02 7.789436e-02 7.792667e-02 7.791179e-02 7.790813e-02 7.793780e-02 7.789093e-02 7.796005e-02 7.281503e-02 7.144071e-02 6.846435e-02 6.784691e-02 6.627814e-02 6.591891e-02 6.523329e-02 6.489057e-02 6.479876e-02 6.435668e-02 6.466694e-02 6.408938e-02 6.465266e-02 6.395723e-02 6.466008e-02 6.390697e-02 6.466804e-02 6.393257e-02 6.468535e-02 6.402829e-02 6.471114e-02 6.417137e-02 6.473944e-02 6.434707e-02 6.478293e-02 6.456134e-02 6.486862e-02 6.483321e-02 6.503080e-02 6.518931e-02 6.529953e-02 6.565377e-02 6.569151e-02 6.624383e-02 6.617775e-02 6.691793e-02 6.643879e-02 6.689246e-02 6.663390e-02 6.686903e-02 6.668279e-02 6.673632e-02 6.665741e-02 6.634789e-02 6.637113e-02 6.594674e-02 6.579822e-02 6.556118e-02 6.538005e-02 6.518154e-02 6.527854e-02 6.491695e-02 6.522799e-02 6.477160e-02 6.520347e-02 6.468636e-02 6.517251e-02 6.464834e-02 6.512670e-02 6.465853e-02 6.506434e-02 6.471862e-02 6.498505e-02 6.482262e-02 6.488618e-02 6.495643e-02 6.476676e-02 6.510170e-02 6.463151e-02 6.524433e-02 6.449919e-02 6.537738e-02 6.439088e-02 6.548683e-02 6.432121e-02 6.555830e-02 6.430397e-02 6.557847e-02 6.434337e-02 6.553446e-02 6.443855e-02 6.542519e-02 6.458715e-02 6.526095e-02 6.477912e-02 6.505551e-02 6.498803e-02 6.481874e-02 6.517254e-02 6.455916e-02 6.528171e-02 6.427769e-02 6.525387e-02 6.395991e-02 6.501431e-02 6.355022e-02 6.444871e-02 6.291089e-02 6.338333e-02 6.177963e-02 6.153708e-02 5.918791e-02 5.700593e-02 5.525912e-02 5.352334e-02 5.309342e-02 
5.266441e-02 5.414148e-02 5.427929e-02 5.784537e-02 5.933752e-02 6.658057e-02 6.736195e-02 6.789058e-02 6.752961e-02 6.811429e-02 6.758738e-02 6.813724e-02 6.753069e-02 6.739856e-02 6.746785e-02 6.742757e-02 6.751467e-02 6.745905e-02 6.747513e-02 6.749878e-02 6.734875e-02 6.755774e-02 6.731927e-02 6.776261e-02 6.733948e-02 6.783069e-02 6.752617e-02 6.784341e-02 6.776108e-02 6.782610e-02 6.800661e-02 6.781890e-02 6.824057e-02 6.782896e-02 6.842002e-02 6.783657e-02 6.852260e-02 6.785643e-02 6.858303e-02 6.793441e-02 6.864957e-02 6.809154e-02 6.873177e-02 6.830295e-02 6.881551e-02 6.854644e-02 6.890961e-02 6.882462e-02 6.903716e-02 6.914876e-02 6.922195e-02 6.952253e-02 6.945803e-02 6.990761e-02 6.969501e-02 7.023144e-02 6.986080e-02 7.038980e-02 6.987027e-02 7.027672e-02 6.974994e-02 6.999272e-02 6.950946e-02 6.964780e-02 6.933975e-02 6.937533e-02 6.918288e-02 6.919683e-02 6.911308e-02 6.907877e-02 6.905792e-02 6.894596e-02 6.903942e-02 6.885132e-02 6.906948e-02 6.877726e-02 6.908853e-02 6.871206e-02 6.907382e-02 6.866377e-02 6.902827e-02 6.865184e-02 6.896225e-02 6.869041e-02 6.888066e-02 6.877542e-02 6.877765e-02 6.888984e-02 6.864882e-02 6.901383e-02 6.849835e-02 6.913863e-02 6.835335e-02 6.926713e-02 6.823770e-02 6.938200e-02 6.815938e-02 6.946465e-02 6.813153e-02 6.950069e-02 6.815740e-02 6.947493e-02 6.823814e-02 6.938859e-02 6.837709e-02 6.925517e-02 6.856982e-02 6.909029e-02 6.879310e-02 6.890438e-02 6.901167e-02 6.871481e-02 6.918881e-02 6.854138e-02 6.928790e-02 6.841020e-02 6.928336e-02 6.832902e-02 6.913984e-02 6.823980e-02 6.889699e-02 6.798627e-02 6.924734e-02 6.377612e-02 5.933774e-02 5.670434e-02 5.414617e-02 5.381511e-02 
4.147504e-02 4.293156e-02 4.477398e-02 4.973955e-02 5.660527e-02 6.651201e-02 6.157607e-02 6.295360e-02 5.914800e-02 5.985917e-02 5.623555e-02 5.563822e-02 5.008151e-02 4.990688e-02 5.001001e-02 4.994042e-02 5.003964e-02 4.997704e-02 4.999733e-02 5.002719e-02 4.987352e-02 5.009344e-02 5.353411e-02 5.565251e-02 5.733380e-02 5.868504e-02 5.951450e-02 6.015917e-02 6.078268e-02 6.085469e-02 6.159244e-02 6.124991e-02 6.219158e-02 6.151666e-02 6.255011e-02 6.159431e-02 6.262437e-02 6.155936e-02 6.258919e-02 6.162308e-02 6.264004e-02 6.187303e-02 6.276309e-02 6.217615e-02 6.283337e-02 6.244358e-02 6.286254e-02 6.270270e-02 6.290649e-02 6.300634e-02 6.306140e-02 6.343060e-02 6.335446e-02 6.391313e-02 6.369136e-02 6.435295e-02 6.398681e-02 6.462537e-02 6.412883e-02 6.468872e-02 6.417149e-02 6.459061e-02 6.412992e-02 6.442175e-02 6.412754e-02 6.422166e-02 6.394390e-02 6.387016e-02 6.370170e-02 6.341531e-02 6.343266e-02 6.298438e-02 6.322906e-02 6.273796e-02 6.323509e-02 6.264515e-02 6.329991e-02 6.257447e-02 6.329407e-02 6.249661e-02 6.322344e-02 6.246402e-02 6.313374e-02 6.253094e-02 6.305042e-02 6.268550e-02 6.293891e-02 6.287860e-02 6.276993e-02 6.305389e-02 6.252253e-02 6.320425e-02 6.228955e-02 6.339948e-02 6.213198e-02 6.358167e-02 6.201858e-02 6.370885e-02 6.198877e-02 6.376725e-02 6.203257e-02 6.370616e-02 6.214734e-02 6.353943e-02 6.236283e-02 6.330993e-02 6.269836e-02 6.305493e-02 6.311069e-02 6.276875e-02 6.353345e-02 6.249245e-02 6.392578e-02 6.227414e-02 6.425728e-02 6.225028e-02 6.462893e-02 6.261203e-02 6.510554e-02 6.345116e-02 6.581646e-02 6.495038e-02 6.746792e-02 6.430585e-02 5.335126e-02 4.798491e-02 4.356445e-02 4.253313e-02 
3.559277e-02 3.656295e-02 3.812754e-02 3.988964e-02 4.533325e-02 4.322117e-02 2.873435e-02 3.880683e-02 2.795091e-02 3.477991e-02 2.664888e-02 2.975616e-02 2.229243e-02 2.516723e-02 2.493430e-02 2.530193e-02 2.564953e-02 2.531394e-02 2.561245e-02 2.528047e-02 2.478079e-02 2.449738e-02 2.829388e-02 2.895254e-02 3.155238e-02 3.118426e-02 3.304077e-02 3.215824e-02 3.374502e-02 3.263474e-02 3.415916e-02 3.301625e-02 3.450469e-02 3.338111e-02 3.467143e-02 3.355886e-02 3.455876e-02 3.360046e-02 3.437267e-02 3.375725e-02 3.435227e-02 3.412837e-02 3.446165e-02 3.452752e-02 3.451984e-02 3.483389e-02 3.453032e-02 3.508369e-02 3.455379e-02 3.534804e-02 3.470776e-02 3.573400e-02 3.502228e-02 3.616824e-02 3.537494e-02 3.654567e-02 3.568531e-02 3.679638e-02 3.589502e-02 3.677773e-02 3.598458e-02 3.672454e-02 3.615654e-02 3.673460e-02 3.628253e-02 3.661095e-02 3.635083e-02 3.631256e-02 3.606156e-02 3.596118e-02 3.582387e-02 3.566606e-02 3.579998e-02 3.541188e-02 3.583805e-02 3.527567e-02 3.586707e-02 3.513488e-02 3.577268e-02 3.497934e-02 3.559710e-02 3.488907e-02 3.541854e-02 3.493770e-02 3.527845e-02 3.510681e-02 3.513029e-02 3.532653e-02 3.493122e-02 3.551650e-02 3.464742e-02 3.566054e-02 3.439848e-02 3.584733e-02 3.426196e-02 3.599491e-02 3.419104e-02 3.604712e-02 3.423643e-02 3.599058e-02 3.438339e-02 3.576518e-02 3.462794e-02 3.539934e-02 3.500776e-02 3.495950e-02 3.554293e-02 3.450517e-02 3.616602e-02 3.403919e-02 3.677473e-02 3.362858e-02 3.729631e-02 3.334709e-02 3.766218e-02 3.338535e-02 3.796447e-02 3.402328e-02 3.818733e-02 3.547979e-02 3.811249e-02 3.838941e-02 3.638241e-02 4.974417e-02 3.924449e-02 3.958956e-02 3.558910e-02 3.651993e-02 
9.430408e-03 8.339367e-03 6.162099e-03 5.627257e-04 -6.172172e-03 -2.063888e-02 -2.603446e-02 -1.976179e-02 -2.443667e-02 -1.985931e-02 -2.312601e-02 -2.022387e-02 -2.172883e-02 -2.242017e-02 -2.511857e-02 -2.569661e-02 -2.543824e-02 -2.672505e-02 -2.448160e-02 -2.607496e-02 -2.169876e-02 -2.247661e-02 -1.995976e-02 -2.248228e-02 -2.035100e-02 -2.259109e-02 -2.080824e-02 -2.254577e-02 -2.123963e-02 -2.242608e-02 -2.164818e-02 -2.231101e-02 -2.203946e-02 -2.221159e-02 -2.234030e-02 -2.206723e-02 -2.249964e-02 -2.190238e-02 -2.258640e-02 -2.181449e-02 -2.268846e-02 -2.184558e-02 -2.279907e-02 -2.193311e-02 -2.286191e-02 -2.203560e-02 -2.288703e-02 -2.216225e-02 -2.290073e-02 -2.232586e-02 -2.294382e-02 -2.254588e-02 -2.302299e-02 -2.277374e-02 -2.308524e-02 -2.293642e-02 -2.307197e-02 -2.292578e-02 -2.290823e-02 -2.282022e-02 -2.266616e-02 -2.253958e-02 -2.231228e-02 -2.225919e-02 -2.222252e-02 -2.222924e-02 -2.216566e-02 -2.230402e-02 -2.239520e-02 -2.234707e-02 -2.252537e-02 -2.229318e-02 -2.249972e-02 -2.231903e-02 -2.258969e-02 -2.235177e-02 -2.266988e-02 -2.233229e-02 -2.268415e-02 -2.226622e-02 -2.264665e-02 -2.219551e-02 -2.258720e-02 -2.215845e-02 -2.252399e-02 -2.215943e-02 -2.244590e-02 -2.218424e-02 -2.234209e-02 -2.221327e-02 -2.220038e-02 -2.224932e-02 -2.206020e-02 -2.233310e-02 -2.194518e-02 -2.244423e-02 -2.183589e-02 -2.256926e-02 -2.174783e-02 -2.270352e-02 -2.167112e-02 -2.281796e-02 -2.160024e-02 -2.291020e-02 -2.155000e-02 -2.298889e-02 -2.153817e-02 -2.305712e-02 -2.156104e-02 -2.309297e-02 -2.161206e-02 -2.309302e-02 -2.170433e-02 -2.305351e-02 -2.186397e-02 -2.301064e-02 -2.219587e-02 -2.301250e-02 -2.282368e-02 -2.297690e-02 -2.401951e-02 -2.247841e-02 -2.701777e-02 -1.167579e-02 -4.783404e-03 3.991458e-03 6.563383e-03 9.246092e-03 
8.911386e-03 7.342314e-03 4.810748e-03 -2.787835e-05 -8.301273e-03 -1.402333e-02 -4.969235e-03 -1.103756e-02 -3.797543e-03 -6.572244e-03 -5.348298e-04 1.112276e-03 8.579287e-03 1.400429e-02 1.747328e-02 1.967582e-02 1.972703e-02 2.075119e-02 1.856559e-02 1.725903e-02 1.402320e-02 6.608885e-03 1.511888e-03 -2.638382e-03 -4.977399e-03 -6.484647e-03 -7.809591e-03 -7.957586e-03 -9.153956e-03 -8.519419e-03 -9.939468e-03 -8.845349e-03 -1.054065e-02 -9.114912e-03 -1.088958e-02 -9.190204e-03 -1.089511e-02 -9.138131e-03 -1.077307e-02 -9.221820e-03 -1.077224e-02 -9.542586e-03 -1.086003e-02 -9.907075e-03 -1.085872e-02 -1.019146e-02 -1.078352e-02 -1.043340e-02 -1.070729e-02 -1.070460e-02 -1.076133e-02 -1.112011e-02 -1.099891e-02 -1.163549e-02 -1.134716e-02 -1.222720e-02 -1.183394e-02 -1.303671e-02 -1.255421e-02 -1.349194e-02 -1.326210e-02 -1.425915e-02 -1.444735e-02 -1.502757e-02 -1.475240e-02 -1.471995e-02 -1.482381e-02 -1.372047e-02 -1.337809e-02 -1.271327e-02 -1.239749e-02 -1.215441e-02 -1.238251e-02 -1.150634e-02 -1.224619e-02 -1.110842e-02 -1.218350e-02 -1.085157e-02 -1.207702e-02 -1.067651e-02 -1.192404e-02 -1.061610e-02 -1.176599e-02 -1.071805e-02 -1.162836e-02 -1.095462e-02 -1.146245e-02 -1.125341e-02 -1.122797e-02 -1.152993e-02 -1.089187e-02 -1.176345e-02 -1.057913e-02 -1.204276e-02 -1.037591e-02 -1.228513e-02 -1.024426e-02 -1.243451e-02 -1.024382e-02 -1.247339e-02 -1.035949e-02 -1.233078e-02 -1.058246e-02 -1.202687e-02 -1.094780e-02 -1.162526e-02 -1.147567e-02 -1.118463e-02 -1.209686e-02 -1.070292e-02 -1.270473e-02 -1.023848e-02 -1.322051e-02 -9.847903e-03 -1.356709e-02 -9.692528e-03 -1.383181e-02 -9.993185e-03 -1.401120e-02 -1.083746e-02 -1.402492e-02 -1.253281e-02 -1.339459e-02 -1.596962e-02 -2.808365e-03 1.994783e-03 7.054927e-03 7.872443e-03 
1.771263e-03 4.746640e-04 2.396271e-04 -1.474619e-03 -3.038098e-03 -1.836161e-03 7.264640e-03 -2.362559e-03 4.784119e-03 -1.869595e-03 2.053887e-03 -1.678530e-03 -1.243951e-03 -1.968093e-04 2.233826e-03 3.048548e-03 2.546617e-03 4.029862e-03 1.660257e-03 3.310326e-03 -9.711264e-04 -3.705476e-04 -1.297396e-03 6.007830e-04 -3.635370e-04 1.265397e-03 8.285083e-05 1.664172e-03 2.771566e-04 1.873672e-03 3.061983e-04 1.903708e-03 2.353695e-04 1.816926e-03 1.966650e-04 1.733731e-03 2.718985e-04 1.657877e-03 3.883132e-04 1.499391e-03 4.485504e-04 1.232119e-03 4.650175e-04 9.423324e-04 4.990826e-04 6.774812e-04 5.276062e-04 4.103094e-04 5.007718e-04 9.663325e-05 3.527093e-04 -3.230782e-04 4.917340e-05 -8.572937e-04 -3.856225e-04 -1.476403e-03 -8.536763e-04 -2.369944e-03 -1.570886e-03 -2.372263e-03 -1.865753e-03 -2.456731e-03 -2.323536e-03 -2.646312e-03 -2.151371e-03 -2.122780e-03 -2.594532e-03 -1.618000e-03 -1.678379e-03 -1.605486e-03 -1.168554e-03 -1.505245e-03 -1.545120e-03 -9.214823e-04 -1.485474e-03 -5.186976e-04 -1.356463e-03 -2.103945e-04 -1.191835e-03 -3.293543e-05 -1.018356e-03 1.433137e-05 -8.397304e-04 -6.787947e-05 -6.610129e-04 -2.585713e-04 -4.674061e-04 -5.173756e-04 -2.456063e-04 -7.888088e-04 1.594156e-05 -1.034941e-03 2.626445e-04 -1.263563e-03 4.393298e-04 -1.430171e-03 5.294919e-04 -1.502087e-03 4.901031e-04 -1.456275e-03 3.214252e-04 -1.250464e-03 3.250153e-05 -8.896005e-04 -3.812279e-04 -4.155321e-04 -9.115468e-04 1.201278e-04 -1.497450e-03 6.861027e-04 -2.041277e-03 1.228007e-03 -2.440083e-03 1.690130e-03 -2.578616e-03 1.988369e-03 -2.373203e-03 2.040835e-03 -1.649995e-03 1.808556e-03 -9.656168e-05 9.438827e-04 3.094914e-03 -6.622377e-03 -4.977829e-04 -2.041675e-03 1.418526e-03 3.187186e-04 
