# vtk DataFile Version 2.0
Comment goes here
ASCII

DATASET STRUCTURED_POINTS
FIELD FieldData 1
TIME 1 1 double
0.11000000
DIMENSIONS    128   16   1

ORIGIN    0.000   0.000   0.000
SPACING   0.0078125 0.015625   1.000

POINT_DATA   2048
SCALARS uY double
LOOKUP_TABLE default

1.782660e-04 1.611501e-04 1.505134e-04 1.427767e-04 1.457055e-04 1.460992e-04 1.527080e-04 1.466189e-04 5.270554e-05 5.066144e-05 -3.087575e-05 -5.870468e-05 -1.127321e-04 -9.924904e-05 -1.052042e-06 -1.242429e-04 -6.076857e-05 -2.115695e-04 -2.035283e-04 -4.345085e-04 -3.735380e-04 -3.783309e-04 -1.424102e-04 2.733105e-04 4.372586e-04 5.484005e-04 5.263400e-04 3.705672e-04 4.212982e-04 3.472698e-04 5.178156e-04 3.809602e-04 3.199426e-04 1.279270e-04 -6.744688e-05 -6.766164e-05 -1.611143e-04 -2.899323e-04 -4.487638e-04 -6.258747e-04 -6.630789e-04 -6.552396e-04 -5.775897e-04 -4.719491e-04 -5.213843e-04 -3.215649e-04 -3.023726e-04 -7.479395e-05 -2.606093e-04 -3.569790e-04 -7.513279e-04 -7.075040e-04 -7.553134e-04 -2.562917e-04 -2.698147e-04 -6.849840e-05 -8.102874e-04 4.072445e-04 -5.761177e-04 -2.308128e-03 -1.425564e-03 -2.787186e-03 -9.215631e-04 -1.549395e-03 -9.666147e-04 -6.628201e-04 -1.370830e-03 -5.975095e-04 -1.838627e-03 -9.096959e-04 -8.752302e-04 4.193589e-04 2.814845e-03 4.127749e-03 4.341777e-03 3.672736e-03 3.108319e-03 2.219404e-03 1.806962e-03 1.341802e-03 1.242637e-03 8.793560e-04 6.349709e-04 4.784772e-04 4.969554e-04 5.829152e-04 4.540218e-04 3.322680e-04 2.271965e-04 3.149207e-04 3.564413e-04 2.278552e-04 2.257910e-04 2.712330e-04 4.235559e-04 1.475871e-04 -1.005575e-05 -1.745996e-04 -2.303003e-04 -2.167406e-04 -1.852222e-04 8.615684e-05 3.282431e-04 3.794755e-04 5.106401e-04 5.653914e-04 4.355695e-04 2.423569e-04 -1.613358e-04 -2.514407e-04 -3.208693e-04 -2.778000e-04 -2.236173e-04 3.486015e-05 1.633710e-04 2.543895e-04 3.632540e-04 2.496732e-04 1.964872e-04 2.537462e-04 1.803072e-04 2.173318e-04 3.404826e-04 3.172175e-04 3.033591e-04 2.680249e-04 2.322250e-04 2.046333e-04 
1.243878e-03 8.389303e-04 3.061766e-03 1.390014e-03 5.046166e-03 -3.393918e-03 -4.009199e-03 4.614868e-03 8.530781e-04 4.875721e-03 4.175978e-03 9.952231e-03 1.396125e-02 1.550414e-02 6.002133e-03 4.733475e-03 1.812833e-03 -1.854918e-03 -4.010542e-03 -8.026951e-03 -1.643885e-02 -1.551405e-02 -8.725206e-03 -4.372609e-03 -2.024733e-03 -1.224604e-03 -4.272953e-04 -8.267461e-04 -1.303547e-05 -2.696260e-04 6.915731e-04 -9.461449e-07 5.537441e-04 -3.253596e-04 -1.883138e-04 -4.375039e-04 1.908520e-04 -3.094899e-04 1.935452e-05 -6.136684e-04 -2.448317e-04 -4.073026e-04 2.229070e-04 2.521384e-04 -6.983750e-05 -1.062017e-04 -1.524542e-04 5.655309e-04 4.589563e-04 3.663184e-04 -6.120289e-04 -8.070490e-04 -1.463245e-03 -2.329832e-03 -5.396378e-03 -1.041318e-02 -1.271616e-02 -2.261734e-03 -2.593030e-03 -6.257313e-03 2.204127e-03 4.894833e-03 4.479695e-03 -6.260576e-03 -3.051413e-03 4.218817e-03 -3.855635e-03 -7.150029e-03 -4.688736e-03 3.264532e-03 4.955926e-03 2.174504e-03 3.804715e-03 7.333462e-03 7.989414e-03 6.892331e-03 5.579275e-03 3.665410e-03 2.426293e-03 1.980940e-03 2.085307e-03 1.546568e-03 5.527687e-04 1.876282e-04 6.305077e-04 1.263993e-03 8.319512e-04 4.398138e-05 5.503612e-05 4.543698e-04 8.140043e-04 -2.224051e-04 -3.379561e-06 2.241218e-04 1.438725e-03 1.616806e-04 1.823163e-04 -5.286736e-04 -5.909921e-06 -7.974050e-04 -7.291960e-04 -4.558257e-04 4.836095e-04 1.134322e-04 5.364514e-04 1.164785e-03 5.595997e-04 7.831068e-04 -8.333814e-04 4.258439e-04 -7.370101e-04 3.162523e-04 -1.465892e-03 5.120872e-04 -1.217659e-03 8.071894e-04 -2.502319e-04 5.838410e-04 -6.698704e-04 -5.006327e-05 7.593783e-06 -3.112932e-03 5.080720e-03 -2.032639e-03 -1.218674e-03 -7.627401e-04 -1.420987e-04 1.068433e-04 
1.870400e-03 1.917205e-03 5.595529e-03 4.410873e-03 1.370986e-02 -1.170916e-02 -1.508553e-02 9.881858e-03 -3.095933e-03 7.431804e-03 -1.047264e-03 1.035684e-02 -5.552736e-06 -5.905775e-03 -1.896821e-03 -1.648147e-03 1.016226e-04 1.455385e-04 2.258119e-03 -4.084831e-04 5.847151e-03 -5.546177e-03 -6.869980e-03 5.300871e-05 -3.732243e-04 1.108432e-03 -6.004125e-05 -7.081545e-04 -8.002292e-04 -9.331110e-04 6.809661e-04 -1.277034e-04 8.924449e-04 -6.853765e-04 -1.256467e-03 -1.289331e-03 1.989905e-04 -4.937023e-04 1.119654e-04 -1.223062e-03 -4.845229e-04 -8.606065e-04 4.486643e-04 3.560456e-04 -8.557407e-04 -1.194727e-03 -1.268255e-03 4.254198e-04 3.019933e-04 -6.248445e-04 -3.236270e-03 -4.488091e-03 -5.971105e-03 -7.636091e-03 -1.144750e-02 -1.460842e-02 -1.198946e-02 7.389178e-03 4.793089e-03 -6.405848e-04 8.449345e-03 5.377427e-03 8.617855e-03 -4.398784e-03 -5.806845e-04 7.403517e-03 -2.458480e-03 -5.272979e-04 -1.139447e-03 2.856966e-03 4.910599e-03 4.814988e-03 5.297544e-03 4.751236e-03 3.545406e-03 2.753574e-03 2.667666e-03 1.292484e-03 4.588394e-04 1.261824e-03 2.517344e-03 1.703558e-03 -4.320908e-04 -8.283608e-04 6.634626e-04 2.424496e-03 1.322584e-03 -5.725681e-04 -5.893234e-04 6.583030e-04 1.533194e-03 -1.014332e-03 -7.640362e-04 5.137131e-04 3.465514e-03 6.160519e-04 2.948284e-04 -1.171133e-03 -3.873556e-04 -2.278383e-03 -1.983711e-03 -7.881605e-04 1.254968e-03 -2.148600e-04 8.281285e-04 2.420037e-03 1.316960e-03 1.530230e-03 -1.797790e-03 9.355132e-04 -1.024057e-03 6.055774e-04 -3.617581e-03 4.516443e-04 -3.063561e-03 1.596304e-03 -5.803556e-04 1.453118e-03 -1.999347e-03 1.125761e-03 -2.149502e-04 -4.598757e-03 1.614647e-02 -8.627218e-03 -6.776424e-03 9.012237e-04 -4.784134e-04 1.081354e-03 
2.129505e-03 4.200441e-03 9.389577e-03 1.285896e-02 2.976762e-02 -2.457109e-03 -1.008895e-02 3.466316e-03 -5.360688e-03 1.248238e-03 -4.652127e-03 -2.352292e-03 -4.987211e-03 4.272412e-03 -1.467087e-03 2.230009e-03 -1.511792e-03 2.122795e-03 -1.125948e-03 3.657957e-04 -6.119755e-03 1.342412e-04 3.419352e-03 4.221942e-03 4.839001e-03 3.801716e-03 3.617036e-03 1.550827e-03 5.146123e-04 -2.037692e-03 7.722005e-04 -2.962146e-04 2.195299e-03 2.300540e-04 -1.020293e-03 -2.057138e-03 3.486426e-04 -6.847483e-04 1.313120e-03 -7.199930e-04 1.465616e-03 -9.554534e-05 1.109717e-03 4.414682e-04 -2.996486e-04 4.309571e-04 1.100384e-03 3.214718e-03 3.300541e-03 2.164240e-03 3.130461e-04 -1.604950e-04 -1.064380e-04 2.341650e-03 3.410511e-03 8.428058e-03 6.499109e-03 1.409550e-03 1.807782e-03 3.772993e-03 6.783235e-04 -4.196956e-03 -4.059059e-03 -1.522576e-03 -3.655092e-03 -7.598310e-03 1.206263e-03 6.409365e-03 2.630677e-03 4.396668e-04 -4.136082e-04 2.466288e-03 -1.693137e-04 -4.783553e-03 -6.914272e-03 -6.502912e-03 -4.267332e-03 -2.346008e-03 -1.082946e-03 2.967567e-04 5.394137e-04 -5.013156e-04 -1.706392e-03 -5.679819e-04 -1.225749e-04 1.054618e-03 1.275276e-04 1.256209e-04 3.813553e-05 3.443370e-04 1.824635e-03 -1.186111e-04 1.250214e-03 1.374663e-03 4.167271e-03 9.155447e-04 1.300635e-03 -2.198754e-03 -2.381394e-03 -5.008739e-03 -1.583710e-03 -6.921092e-05 1.891357e-03 -1.990183e-04 8.319499e-04 2.299619e-03 1.364918e-03 2.139696e-03 -7.361826e-04 1.685928e-03 -1.365173e-03 1.029926e-03 -5.603650e-03 -3.513433e-04 -4.015919e-03 3.069623e-03 -7.237696e-04 4.498623e-03 -4.408247e-04 4.559315e-03 9.698246e-04 -4.497670e-04 1.162578e-02 -4.094956e-02 -2.325387e-02 -2.958687e-03 -3.486293e-03 6.551848e-04 
2.595246e-04 3.903964e-03 6.005499e-03 1.317699e-02 2.317979e-02 2.093587e-02 1.227680e-02 -1.116305e-03 -1.165242e-04 2.908906e-03 -8.562963e-04 5.181319e-03 1.476362e-03 4.111205e-04 -4.181568e-04 4.709725e-04 -6.839344e-04 4.468068e-04 -4.673594e-04 4.520071e-04 -3.447857e-04 -2.568614e-03 -2.839306e-03 2.642220e-05 -1.021396e-03 1.229091e-03 6.437494e-04 1.950815e-03 -3.954663e-04 -1.944340e-03 -1.177804e-03 -7.901489e-04 8.218718e-04 6.744853e-04 4.399813e-05 -1.430137e-03 -1.665253e-04 -9.160073e-04 1.270649e-03 3.859999e-05 2.221890e-03 2.173441e-04 1.469896e-04 -9.739999e-04 -2.284759e-04 8.399570e-04 1.351645e-03 1.039845e-03 3.356570e-04 -9.366184e-04 -1.323415e-03 -2.284362e-03 -3.257849e-03 -2.444243e-03 -2.962977e-03 -2.948345e-03 -3.384583e-03 6.350016e-04 2.159795e-03 1.840412e-03 3.354847e-03 7.555795e-03 2.352259e-03 -3.593630e-03 -3.691255e-03 -1.508037e-04 -2.333355e-04 -3.372709e-03 2.077042e-03 4.249030e-03 4.259211e-03 1.684964e-03 -2.502755e-04 1.187751e-03 -7.132747e-04 -2.218122e-03 -1.734370e-03 5.256218e-04 1.832195e-03 1.394259e-03 -8.827589e-04 -1.443012e-03 -4.528178e-04 1.468301e-03 -4.233557e-04 -1.346732e-03 -1.125541e-03 1.583831e-03 1.601879e-03 6.544164e-05 1.050422e-03 1.763176e-03 3.707070e-03 1.321064e-03 1.318809e-03 2.374481e-04 1.809382e-03 -1.624383e-03 -2.238196e-03 -3.721197e-03 9.760141e-04 6.590809e-04 9.326702e-04 1.453856e-04 2.316027e-04 -1.038800e-04 -4.169027e-05 1.091477e-03 1.254815e-03 1.315013e-03 -1.218635e-03 8.782914e-04 -3.303199e-03 -5.962463e-04 -2.198423e-03 2.094892e-03 -1.491036e-03 3.676527e-03 7.690084e-04 2.816394e-03 -5.063450e-05 2.688455e-03 -8.507440e-03 -4.315676e-02 -1.987283e-02 -7.273546e-03 -5.177511e-03 -1.574291e-03 
2.364051e-05 1.407374e-03 2.163882e-03 4.165860e-03 5.502115e-03 1.570829e-02 1.437688e-02 2.684551e-04 2.966679e-03 3.737120e-03 1.974969e-03 9.547827e-03 5.380566e-03 2.783330e-04 -3.925037e-04 5.810241e-04 -5.427587e-04 5.326149e-04 -4.860231e-04 2.525595e-04 -1.502063e-04 -4.809830e-03 -6.045170e-03 -2.649308e-03 -3.213979e-03 -1.017077e-03 -9.035936e-04 4.656128e-04 -1.517794e-04 -6.870129e-04 -6.189419e-04 -5.971863e-04 1.351128e-04 9.866758e-05 7.148356e-04 -4.593375e-04 1.019067e-04 -6.336098e-04 6.778949e-04 -4.487047e-06 1.135699e-03 -1.119000e-04 -2.129578e-04 -1.071439e-03 -2.404895e-04 -1.240097e-04 -1.628734e-04 -1.442295e-03 -2.347357e-03 -3.404301e-03 -3.905796e-03 -5.528089e-03 -7.767158e-03 -1.050895e-02 -1.437957e-02 -2.003967e-02 -1.403113e-02 1.098830e-02 4.205414e-03 -9.967645e-05 7.545256e-03 3.131383e-03 9.084997e-03 -2.991370e-03 -8.355588e-04 9.209169e-03 -3.514001e-03 -1.248051e-03 2.359367e-03 9.457206e-04 2.731158e-03 2.703612e-03 6.720057e-03 9.821740e-03 7.234115e-03 4.268745e-03 2.793490e-03 2.839065e-03 2.748046e-03 1.724488e-03 -4.254100e-05 -1.050586e-04 6.866699e-04 1.516059e-03 5.096585e-05 -8.030092e-04 -3.953528e-04 1.298834e-03 1.452384e-03 2.930395e-04 6.897249e-04 1.471050e-03 2.595368e-03 5.748521e-04 7.165544e-05 -1.778661e-04 1.080874e-03 -5.836245e-04 -3.936437e-04 -9.864915e-04 1.237240e-03 1.723502e-04 7.448077e-05 1.826380e-04 -3.681638e-07 -6.225791e-04 -4.765930e-04 3.189084e-04 8.010050e-04 6.502257e-04 -8.245979e-04 5.648801e-04 -9.073110e-04 1.362516e-04 -7.975247e-04 6.088447e-04 -1.354243e-03 8.021458e-04 -2.744417e-05 -6.169910e-04 -1.007085e-03 -3.785409e-04 -1.010833e-02 -1.641962e-02 -5.322523e-03 -5.881279e-03 -2.718757e-03 -2.175738e-03 
2.820375e-04 1.631916e-03 2.696978e-03 3.942884e-03 4.641902e-03 5.951716e-03 5.823137e-03 4.194943e-03 3.481040e-03 5.615987e-03 4.179782e-03 1.200874e-02 1.140979e-02 2.212965e-04 -6.779930e-05 1.878811e-04 -1.526998e-04 1.522274e-04 -1.393705e-04 8.601960e-05 -8.313198e-05 -9.277100e-03 -9.326963e-03 -3.823069e-03 -4.574314e-03 -1.894232e-03 -2.340144e-03 -8.379466e-04 -1.237283e-03 -7.319044e-04 -7.174077e-04 -4.824535e-04 -2.062313e-04 -2.590064e-04 -8.689535e-06 -3.942431e-04 8.094188e-05 -3.699434e-04 3.093966e-04 -2.467551e-04 3.701194e-04 -2.666906e-04 1.430438e-05 -4.503172e-04 -2.303228e-04 -4.336832e-04 -4.519978e-04 -8.541966e-04 -1.198336e-03 -1.759549e-03 -2.284711e-03 -2.966243e-03 -3.911602e-03 -4.955261e-03 -6.808235e-03 -8.726275e-03 -6.884980e-03 2.240178e-03 -3.163889e-03 -1.580030e-03 2.089371e-03 -4.695293e-03 1.938822e-03 -6.471208e-04 -9.070050e-04 1.218215e-03 -2.012182e-03 3.193386e-03 1.748656e-03 -2.122122e-04 1.198956e-03 3.610184e-03 7.282236e-03 7.403696e-03 5.745779e-03 4.302760e-03 3.356522e-03 2.831975e-03 2.309674e-03 1.867259e-03 1.220631e-03 1.039393e-03 8.036116e-04 9.538923e-04 5.428294e-04 5.467981e-04 4.863232e-04 7.860526e-04 8.757826e-04 6.695150e-04 9.866021e-04 7.850740e-04 1.253219e-03 5.377726e-04 8.400048e-04 1.276859e-04 6.174469e-04 -3.344430e-04 9.821539e-05 -5.603992e-04 2.943661e-04 -1.340882e-04 2.277796e-04 1.395215e-05 1.199088e-04 5.643882e-05 -8.814314e-07 2.945807e-04 -1.031321e-05 3.910204e-04 -4.896228e-04 3.457455e-04 -8.386415e-04 2.495919e-04 -8.452371e-04 4.276386e-04 -8.358821e-04 2.641254e-04 -8.370744e-04 -7.401066e-04 -1.545294e-03 -2.450703e-03 -3.080835e-03 -6.612676e-03 -3.557412e-03 -3.960102e-03 -2.107673e-03 -1.240798e-03 
3.976463e-05 4.827115e-04 9.096744e-04 1.579723e-03 1.764528e-03 2.712472e-03 2.681144e-03 2.006044e-03 1.861192e-03 2.712277e-03 2.049232e-03 6.119384e-03 5.730143e-03 1.020072e-04 -6.059741e-05 1.281723e-04 -1.093749e-04 1.185641e-04 -1.002634e-04 6.589064e-05 -4.980380e-05 -4.400115e-03 -4.484198e-03 -1.885252e-03 -2.305811e-03 -1.066776e-03 -1.181693e-03 -4.762411e-04 -5.480250e-04 -3.260089e-04 -2.952614e-04 -2.414804e-04 -8.801918e-05 -1.598092e-04 3.840771e-05 -2.082037e-04 1.859264e-05 -2.652499e-04 1.934783e-05 -2.959026e-04 -7.516888e-05 -4.430007e-04 -3.862200e-04 -7.084311e-04 -6.935692e-04 -9.575403e-04 -1.131350e-03 -1.529334e-03 -1.898355e-03 -2.302788e-03 -2.735756e-03 -3.071246e-03 -3.599428e-03 -3.712623e-03 -4.261113e-03 -4.088806e-03 -4.079813e-03 -5.657096e-04 -6.129042e-04 -3.072848e-04 1.391134e-03 1.763123e-04 1.746528e-03 1.641927e-04 3.315304e-04 1.162631e-03 -2.387024e-05 1.175937e-03 1.058387e-03 1.345327e-03 1.690896e-03 1.854213e-03 2.943736e-03 3.356670e-03 3.243979e-03 2.912252e-03 2.584147e-03 2.266604e-03 1.959343e-03 1.620761e-03 1.255773e-03 1.084213e-03 9.354296e-04 9.209834e-04 7.064312e-04 6.577143e-04 6.302162e-04 7.490830e-04 7.968714e-04 6.985198e-04 8.077231e-04 7.037406e-04 8.565716e-04 4.819325e-04 5.311697e-04 1.989031e-04 3.876187e-04 -1.016040e-05 1.862432e-04 -9.922074e-05 2.203270e-04 -9.664511e-06 8.564396e-05 2.591887e-06 -5.724569e-07 -3.965956e-05 -5.224796e-05 6.994772e-05 8.155270e-06 1.553743e-04 -1.409688e-04 1.819116e-04 -1.921853e-04 1.774195e-04 -1.955294e-04 2.058609e-04 -2.448739e-04 9.880034e-05 -2.917018e-04 -3.308339e-04 -7.581890e-04 -1.007839e-03 -1.639910e-03 -2.421408e-03 -1.390472e-03 -1.743157e-03 -8.043525e-04 -6.877680e-04 
-3.669179e-05 -4.444782e-05 -4.720656e-05 -5.061601e-05 -4.851338e-05 -5.057086e-05 -4.472484e-05 -4.910655e-05 -4.237722e-05 -3.546103e-05 -3.762575e-05 -2.291903e-05 -2.316216e-05 -1.349642e-05 -8.761248e-06 -1.311286e-05 -5.602764e-06 -8.272549e-06 7.305165e-06 3.313857e-06 2.893668e-05 -1.013850e-04 3.512360e-05 -5.634414e-05 6.854609e-05 2.421385e-05 1.112963e-04 7.370757e-05 9.778731e-05 4.056386e-05 5.551271e-05 2.137834e-05 4.224509e-05 2.248114e-05 3.653989e-05 -2.999766e-06 8.461303e-06 -5.466807e-05 -4.533008e-05 -1.235184e-04 -1.353418e-04 -2.071657e-04 -2.536001e-04 -2.870996e-04 -3.607055e-04 -3.849453e-04 -5.450195e-04 -6.490670e-04 -9.292992e-04 -1.091107e-03 -1.435528e-03 -1.562007e-03 -1.914593e-03 -1.885767e-03 -2.189919e-03 -1.910521e-03 -2.072640e-03 -1.014609e-03 -1.380479e-03 -1.143913e-03 -4.431064e-04 -1.242096e-03 -1.568686e-04 -6.417714e-04 -3.448980e-04 -2.728185e-06 -1.885109e-04 7.042688e-04 6.558700e-04 9.660821e-04 1.336169e-03 1.743953e-03 2.388491e-03 2.483378e-03 2.557756e-03 2.278434e-03 2.159318e-03 1.828341e-03 1.680032e-03 1.383098e-03 1.232210e-03 1.028819e-03 9.349818e-04 8.563279e-04 7.803982e-04 7.604573e-04 7.207370e-04 7.672977e-04 7.586625e-04 7.713977e-04 7.621624e-04 7.186083e-04 6.734902e-04 5.366059e-04 4.300439e-04 2.664525e-04 1.771989e-04 5.738453e-05 1.896815e-05 -1.149174e-05 1.117613e-05 3.481182e-05 1.516103e-05 4.473732e-05 -3.958852e-06 2.119581e-05 -1.035301e-05 1.107951e-05 -8.472631e-06 -4.105718e-06 -1.776008e-05 3.073534e-05 5.498444e-05 1.374754e-04 1.969155e-04 2.755784e-04 3.124924e-04 3.621194e-04 3.695937e-04 3.387549e-04 2.902114e-04 2.340991e-04 1.527669e-04 1.007161e-04 4.873989e-05 1.697391e-05 -9.227328e-06 -2.583331e-05 
-1.359724e-04 -5.839349e-04 -1.016334e-03 -1.685003e-03 -1.873417e-03 -2.818001e-03 -2.784802e-03 -2.119181e-03 -1.934511e-03 -2.757434e-03 -2.089809e-03 -6.100396e-03 -5.683192e-03 -1.145855e-04 4.856059e-05 -1.386342e-04 9.254042e-05 -1.232527e-04 9.603334e-05 -5.839547e-05 6.475745e-05 4.390741e-03 4.560919e-03 1.733933e-03 2.292678e-03 1.035540e-03 1.297749e-03 6.247885e-04 6.461086e-04 3.046762e-04 2.059233e-04 1.185660e-04 3.552581e-06 9.798887e-05 -5.377204e-05 8.049555e-05 -1.429818e-04 1.778931e-07 -2.607344e-04 -1.208415e-04 -4.163166e-04 -2.917437e-04 -5.658796e-04 -4.043004e-04 -6.257601e-04 -5.044340e-04 -7.881021e-04 -8.127693e-04 -1.177220e-03 -1.255303e-03 -1.586621e-03 -1.611404e-03 -1.850966e-03 -1.704837e-03 -1.774641e-03 -1.406597e-03 -1.286945e-03 -6.894247e-04 -4.476958e-04 -2.562898e-04 2.129187e-04 3.881716e-05 4.392893e-04 1.724724e-04 3.026218e-04 3.502470e-04 2.763035e-04 4.991218e-04 5.846426e-04 7.846424e-04 1.014926e-03 1.115618e-03 1.460113e-03 1.492702e-03 1.695721e-03 1.507091e-03 1.550528e-03 1.260205e-03 1.264746e-03 9.774989e-04 9.659671e-04 7.383910e-04 7.834853e-04 7.013484e-04 7.374526e-04 6.922568e-04 6.802645e-04 7.654934e-04 7.629663e-04 8.750393e-04 7.652146e-04 8.409623e-04 6.216045e-04 6.381679e-04 2.611359e-04 2.725007e-04 -7.461681e-05 8.750608e-05 -1.744064e-04 6.997221e-05 -1.195734e-04 1.171113e-04 -9.739375e-05 3.723792e-05 -1.378266e-04 -5.845830e-05 -7.761941e-05 -8.444441e-05 5.404754e-05 -1.036886e-04 1.494648e-04 -7.347506e-05 3.296509e-04 8.776393e-05 5.903648e-04 3.518151e-04 8.540244e-04 6.960719e-04 1.141081e-03 1.058278e-03 1.390603e-03 1.491916e-03 1.869127e-03 2.540593e-03 1.409228e-03 1.713302e-03 7.390766e-04 6.034068e-04 
-4.232418e-04 -1.770590e-03 -2.828225e-03 -4.068922e-03 -4.759260e-03 -6.058583e-03 -5.906857e-03 -4.341864e-03 -3.575187e-03 -5.682147e-03 -4.295021e-03 -1.201768e-02 -1.139368e-02 -2.368444e-04 3.395001e-05 -2.319880e-04 1.024962e-04 -1.957580e-04 1.184227e-04 -8.974719e-05 1.082121e-04 8.964650e-03 9.391760e-03 3.559246e-03 4.668193e-03 2.062871e-03 2.785842e-03 1.315355e-03 1.547957e-03 7.577876e-04 7.130184e-04 4.444405e-04 2.604005e-04 4.102167e-04 1.715291e-04 4.938037e-04 3.978921e-05 3.300567e-04 -2.550513e-04 5.897065e-05 -5.274147e-04 -1.614078e-04 -5.650634e-04 -5.196465e-05 -1.836292e-04 3.260265e-04 1.578359e-04 2.624130e-04 -1.806351e-04 -3.235722e-04 -7.351258e-04 -8.764788e-04 -1.151371e-03 -1.107048e-03 -1.115120e-03 -8.251844e-04 -5.187297e-04 -1.190357e-04 1.273945e-04 1.269712e-04 3.275576e-04 -5.008015e-06 8.720706e-05 -2.234572e-04 -2.224513e-04 -2.694858e-04 -3.401787e-04 -1.783583e-04 1.034774e-05 2.736089e-04 5.950617e-04 6.975406e-04 1.116745e-03 1.051605e-03 1.303556e-03 9.361421e-04 1.078796e-03 6.863030e-04 8.617261e-04 5.005496e-04 6.199018e-04 2.756730e-04 4.836736e-04 4.432085e-04 6.321633e-04 5.599703e-04 5.630497e-04 7.581972e-04 7.775889e-04 1.099140e-03 9.051845e-04 1.168567e-03 7.130488e-04 8.882713e-04 5.753412e-05 1.604329e-04 -6.418641e-04 -1.115220e-04 -6.616744e-04 7.685217e-05 -3.192406e-04 3.488143e-04 -1.052928e-04 2.095152e-04 -1.785193e-04 -6.760347e-05 -5.299606e-05 -2.523601e-04 3.792867e-05 -5.993324e-04 1.260486e-04 -5.717700e-04 6.718503e-04 -1.001727e-04 1.344594e-03 3.300913e-04 1.694949e-03 8.997241e-04 2.121841e-03 1.742238e-03 2.357546e-03 3.033930e-03 3.253161e-03 6.615744e-03 3.470818e-03 3.830305e-03 1.967164e-03 1.092350e-03 
-2.018995e-04 -1.559817e-03 -2.303335e-03 -4.285460e-03 -5.638909e-03 -1.578562e-02 -1.458350e-02 -6.839606e-04 -3.046732e-03 -3.761714e-03 -2.243397e-03 -9.305523e-03 -4.916948e-03 -2.713553e-04 3.393678e-04 -6.057824e-04 4.563194e-04 -5.629344e-04 4.552147e-04 -2.840578e-04 1.140293e-04 5.423062e-03 6.610076e-03 1.487213e-03 2.329247e-03 7.448263e-04 1.603188e-03 1.080781e-03 9.296068e-04 3.973842e-04 -2.340575e-04 -1.758119e-04 -4.783767e-04 3.470066e-04 -1.420288e-05 6.231872e-04 -1.871684e-04 4.300609e-04 -3.864756e-04 2.561702e-04 -7.780567e-04 -3.724277e-04 -1.102328e-03 -1.499601e-04 -1.488559e-04 7.773782e-04 4.554025e-04 4.279247e-04 -3.951074e-04 -5.865087e-04 -1.069227e-03 -1.287996e-03 -1.621481e-03 -1.563788e-03 -1.437940e-03 -1.018201e-03 -3.528928e-04 2.408114e-04 6.724201e-04 7.170960e-04 1.120783e-03 8.354176e-04 8.197446e-04 2.284454e-04 8.262838e-05 -4.472574e-05 -4.729484e-04 -4.929185e-04 -1.412930e-04 2.772425e-04 4.744150e-04 2.809564e-04 7.365281e-04 8.819233e-04 1.439811e-03 9.465336e-04 9.294454e-04 2.916654e-04 5.486652e-04 1.086193e-04 1.754110e-04 -4.413168e-04 6.627858e-05 3.554679e-04 8.026526e-04 3.907727e-04 1.647362e-04 6.317374e-04 1.047072e-03 1.624573e-03 1.304500e-03 1.652249e-03 1.252319e-03 1.446486e-03 -1.085010e-04 -3.770596e-04 -1.482562e-03 -4.835574e-04 -1.153685e-03 -1.855458e-05 -3.304626e-04 7.524681e-04 -3.021450e-05 1.345900e-04 -6.788161e-04 -3.557502e-04 -3.886106e-04 -2.659716e-04 2.444383e-04 -5.616920e-04 1.021617e-04 -8.547228e-04 5.310657e-04 -4.159153e-04 1.366076e-03 1.714816e-04 1.860533e-03 1.212918e-03 2.704544e-03 2.042956e-03 2.381031e-03 1.350060e-03 9.568947e-03 1.567750e-02 4.836948e-03 5.473143e-03 2.440656e-03 1.940625e-03 
-5.116336e-04 -4.103765e-03 -6.186230e-03 -1.333768e-02 -2.338702e-02 -2.087587e-02 -1.210565e-02 5.984515e-04 4.915127e-06 -2.858896e-03 2.419645e-04 -4.988691e-03 -9.338416e-04 -3.776591e-04 3.084620e-04 -6.402918e-04 4.189582e-04 -6.450818e-04 3.855134e-04 -3.071344e-04 3.465343e-04 1.358114e-03 2.443978e-03 -1.344990e-03 5.083134e-04 -8.566987e-05 1.775719e-03 1.222551e-03 1.181700e-03 5.861960e-04 1.169593e-04 7.207779e-05 -8.394866e-04 2.606068e-04 3.743875e-04 1.997418e-03 8.038586e-04 1.165110e-03 -6.319651e-04 -1.312130e-04 -1.925617e-03 -1.373162e-03 -2.387132e-03 -8.779002e-04 4.597937e-05 2.597091e-03 3.496645e-03 3.297867e-03 1.574425e-03 3.361985e-04 -6.750033e-04 -1.639600e-03 -2.423604e-03 -2.795675e-03 -2.870906e-03 -2.066862e-03 4.129933e-04 2.488891e-03 3.806069e-03 3.673341e-03 3.564264e-03 2.181018e-03 9.433845e-04 -1.818455e-04 -6.142635e-04 -8.536734e-04 -1.972519e-03 -1.967866e-03 -9.957053e-04 8.651227e-05 5.298861e-04 2.818281e-04 1.077417e-03 8.803874e-04 7.712171e-04 -6.790556e-04 -5.216480e-04 -9.677537e-04 -7.428026e-05 -4.067140e-04 -4.264766e-04 -1.875170e-03 -1.047464e-03 4.934299e-05 1.085215e-03 6.194828e-05 -4.860982e-04 2.584012e-04 9.433584e-04 2.317194e-03 2.284459e-03 3.011066e-03 2.352382e-03 2.791869e-03 -1.096778e-04 -1.480102e-03 -3.991473e-03 -2.077114e-03 -2.743000e-03 -7.918434e-05 -2.266804e-04 2.130054e-03 8.471962e-04 1.025252e-03 -9.310194e-04 -3.901931e-04 2.592429e-04 1.086199e-04 -8.966930e-05 -2.953183e-03 -1.578781e-03 -3.018609e-03 9.372411e-04 -1.210729e-04 3.963632e-03 -2.159460e-04 2.825927e-03 -1.078842e-04 3.993371e-03 -4.780770e-04 1.538933e-03 -1.627458e-03 7.442861e-03 4.160865e-02 1.884966e-02 6.524339e-03 4.699830e-03 1.214332e-03 
-2.146572e-03 -4.202640e-03 -9.389428e-03 -1.286391e-02 -2.977438e-02 2.760545e-03 1.098684e-02 -3.196219e-03 5.300066e-03 -1.097226e-03 4.162625e-03 2.033899e-03 4.411733e-03 -5.085354e-03 1.501875e-03 -2.140311e-03 1.215616e-03 -1.503480e-03 2.220910e-03 -2.790367e-04 3.479668e-03 -4.855938e-03 -5.642645e-03 -3.295534e-03 -2.454055e-03 -2.292079e-04 -2.396088e-04 4.946342e-04 -4.583870e-04 1.020472e-03 4.051083e-04 1.595741e-03 -8.844796e-04 3.746159e-04 -1.676767e-04 2.554323e-03 8.835372e-04 1.159612e-03 -1.632426e-03 -1.407418e-03 -3.274791e-03 -2.259575e-03 -3.005244e-03 -1.832174e-03 -6.769359e-04 2.138785e-03 4.279187e-03 4.249799e-03 2.887153e-03 8.226846e-04 -3.660741e-04 -1.956824e-03 -2.816539e-03 -3.697649e-03 -3.920746e-03 -3.135083e-03 2.024474e-04 2.992816e-03 4.980713e-03 4.862389e-03 4.023344e-03 2.103002e-03 4.217338e-06 -7.425164e-04 -1.342472e-03 -1.543673e-03 -2.434565e-03 -2.218832e-03 -1.228804e-03 -1.717902e-04 7.653008e-04 1.028543e-03 1.895102e-03 7.728790e-04 -5.432161e-04 -2.468010e-03 -1.731577e-03 -1.506471e-03 -2.227460e-04 -2.994021e-04 -9.948961e-05 -1.455960e-03 -1.050144e-03 -2.125144e-04 6.232430e-04 5.593790e-05 -2.146323e-04 1.722168e-04 -6.431878e-05 1.445898e-03 1.667147e-03 2.769452e-03 1.471966e-03 2.421778e-03 -5.917951e-05 -8.267528e-04 -3.994788e-03 -2.102467e-03 -2.879071e-03 3.531269e-04 -1.615291e-04 2.424221e-03 1.468865e-03 2.089244e-03 4.980661e-04 3.323178e-04 1.871731e-03 -1.336938e-05 -5.464966e-04 -5.406882e-03 -2.330387e-03 -4.595786e-03 2.121177e-03 2.086809e-04 6.328934e-03 -5.361608e-04 3.504115e-03 -1.958838e-03 3.196153e-03 -2.661702e-03 -7.840415e-04 6.616340e-04 -1.122029e-02 4.077556e-02 2.302479e-02 2.855171e-03 3.414378e-03 -6.836467e-04 
-1.618611e-03 -1.695489e-03 -5.387508e-03 -4.218526e-03 -1.347855e-02 1.202088e-02 1.583468e-02 -9.197614e-03 3.133856e-03 -7.286791e-03 9.863638e-04 -1.075555e-02 -1.015987e-03 5.652301e-03 2.600081e-03 1.637737e-03 9.230217e-05 -1.401782e-05 -2.519037e-03 -1.567574e-03 -8.261679e-03 2.406759e-03 5.208712e-03 1.983268e-03 3.226000e-03 1.810692e-03 1.911695e-03 8.257596e-04 8.209017e-04 1.389754e-03 1.520467e-03 2.053737e-03 5.170820e-04 7.041544e-04 -6.817822e-05 1.263909e-03 2.592618e-04 3.821851e-04 -1.284636e-03 -1.272759e-03 -2.061325e-03 -1.289177e-03 -1.446420e-03 -1.115489e-03 -7.841195e-04 2.288969e-04 1.474852e-03 1.714899e-03 1.593495e-03 5.442974e-04 1.223623e-05 -8.106469e-04 -1.069820e-03 -1.491512e-03 -1.457467e-03 -1.073722e-03 3.809633e-04 1.557452e-03 2.521707e-03 2.264773e-03 1.686533e-03 5.532839e-04 -3.234041e-04 -4.577155e-04 -7.315523e-04 -8.288250e-04 -9.454273e-04 -6.433823e-04 -5.856157e-04 -2.452085e-04 3.797320e-04 9.680992e-04 1.482412e-03 5.783172e-04 -3.614533e-04 -1.350333e-03 -7.057212e-04 -5.305927e-04 1.369982e-04 2.144065e-05 4.042718e-04 2.109693e-05 -3.581463e-05 -1.751015e-04 -2.980281e-05 2.189633e-04 4.105767e-04 3.556003e-04 -3.991794e-04 2.146098e-04 2.401212e-04 9.764952e-04 -1.196425e-04 6.676555e-04 -7.885404e-05 5.192924e-04 -1.170807e-03 -3.563276e-04 -1.126153e-03 5.096766e-04 -2.659191e-04 9.656892e-04 6.971299e-04 1.454029e-03 1.248805e-03 6.967208e-04 1.647566e-03 -3.524956e-04 -2.805528e-04 -3.298507e-03 -6.416847e-04 -2.535275e-03 2.007167e-03 3.469977e-06 4.136675e-03 -1.792942e-04 2.776434e-03 -1.009377e-03 1.785115e-03 -4.343637e-04 -1.146494e-04 4.493828e-03 -1.467574e-02 9.842399e-03 7.507103e-03 -3.112131e-04 8.740266e-04 -7.515452e-04 
-9.523300e-04 -5.830926e-04 -2.816373e-03 -1.162435e-03 -4.789558e-03 3.635409e-03 4.366842e-03 -4.239192e-03 -7.961702e-04 -4.813094e-03 -4.235638e-03 -1.019040e-02 -1.447828e-02 -1.569634e-02 -5.915706e-03 -4.855451e-03 -1.893360e-03 1.697800e-03 3.579317e-03 6.935833e-03 1.540651e-02 1.444869e-02 8.203392e-03 5.422223e-03 3.467892e-03 2.745234e-03 1.574674e-03 1.283787e-03 7.061903e-04 1.102832e-03 7.737356e-04 1.159084e-03 3.591313e-04 5.786595e-04 -9.309187e-05 4.671790e-04 -1.560543e-04 4.667516e-05 -7.382055e-04 -6.324098e-04 -1.029565e-03 -6.201192e-04 -6.798819e-04 -4.024280e-04 -3.687029e-04 -7.290438e-06 3.069587e-04 4.866062e-04 4.099971e-04 -1.800752e-05 -4.785495e-04 -9.477913e-04 -1.302124e-03 -1.589821e-03 -1.846441e-03 -1.872119e-03 -1.785665e-03 -8.414457e-04 -5.311759e-04 -8.894648e-04 -1.216773e-04 -5.077361e-04 -2.428381e-04 -1.031657e-03 -9.993101e-04 -6.930085e-04 -1.391578e-03 -1.189928e-03 -1.133880e-03 -1.338296e-04 6.683980e-04 1.333260e-03 2.183457e-03 2.345156e-03 2.272745e-03 1.716841e-03 1.726681e-03 1.262262e-03 1.260828e-03 8.711444e-04 9.789381e-04 6.987672e-04 5.605909e-04 2.904745e-04 2.769257e-04 4.617947e-04 4.943145e-04 4.597397e-04 8.387475e-05 3.508407e-04 2.229441e-04 5.226395e-04 -1.675069e-05 3.564908e-04 3.057091e-05 4.124176e-04 -3.278896e-04 1.860891e-05 -4.757330e-04 1.960598e-04 -2.412054e-04 3.595747e-04 3.080802e-04 6.848677e-04 7.707253e-04 4.713663e-04 7.458376e-04 -2.821744e-04 -5.652031e-05 -1.321744e-03 -3.156234e-05 -1.121164e-03 8.654482e-04 -3.063400e-04 1.628642e-03 -1.041446e-04 1.408731e-03 -1.567534e-04 7.753369e-04 6.111021e-04 2.278328e-04 3.421484e-03 -4.116270e-03 2.903382e-03 1.877762e-03 1.297497e-03 5.570656e-04 2.412323e-04 
