# vtk DataFile Version 2.0
Comment goes here
ASCII

DATASET STRUCTURED_POINTS
FIELD FieldData 1
TIME 1 1 double
0.06200000
DIMENSIONS    64   64   1

ORIGIN    0.000   0.000   0.000
SPACING   0.03125 0.03125   1.000

POINT_DATA   4096
SCALARS Omega double
LOOKUP_TABLE default

-8.454868e-02 -4.236300e-01 -2.915950e-01 -8.742441e-01 -2.871966e-01 1.515318e-02 -2.194466e-01 -5.444804e-01 -2.410690e-01 -5.803472e-01 -1.668018e-01 -5.513633e-01 -4.011210e-02 -3.815116e-01 1.557428e-01 -5.552821e-02 4.426228e-01 2.379006e-01 7.620236e-01 5.298592e-01 8.588964e-01 6.023686e-01 7.978628e-01 6.285556e-01 6.459474e-01 8.403998e-01 6.603249e-01 8.380154e-01 6.289686e-01 8.125821e-01 5.115919e-01 9.000841e-01 5.094086e-01 9.615820e-01 5.823893e-01 8.336720e-01 5.189713e-01 8.622629e-01 5.418361e-01 9.716348e-01 6.106880e-01 8.461757e-01 5.458327e-01 8.158002e-01 5.082803e-01 8.352883e-01 5.513660e-01 5.472479e-01 3.868517e-01 2.318534e-01 1.422599e-01 -2.635646e-02 -1.159974e-01 -1.687276e-01 -2.893089e-01 -2.685056e-01 -3.604888e-01 -3.453139e-01 -3.589858e-01 -3.994215e-01 -3.210438e-01 -4.358945e-01 -2.629443e-01 -4.007118e-01 
-1.153017e+01 -4.053718e+01 -1.123004e+01 -3.255331e+01 -1.770902e+01 -2.815667e+01 -2.369686e+01 -2.301007e+01 -3.108731e+01 -1.973133e+01 -3.591494e+01 -1.787570e+01 -3.881944e+01 -1.723570e+01 -4.064298e+01 -1.738246e+01 -4.217449e+01 -1.698636e+01 -4.482173e+01 -1.471545e+01 -4.907772e+01 -1.033923e+01 -5.449141e+01 -5.074852e+00 -6.007464e+01 -2.232976e-02 -6.533864e+01 4.735852e+00 -7.036620e+01 9.715324e+00 -7.562810e+01 1.485603e+01 -8.104813e+01 1.963848e+01 -8.559819e+01 2.342375e+01 -8.864717e+01 2.519390e+01 -8.962423e+01 2.475933e+01 -8.828328e+01 2.265081e+01 -8.541270e+01 1.915003e+01 -8.121022e+01 1.475352e+01 -7.615053e+01 1.002979e+01 -7.010746e+01 4.476657e+00 -6.250779e+01 -2.673802e+00 -5.338346e+01 -1.078257e+01 -4.393105e+01 -1.878106e+01 -3.525423e+01 -2.549570e+01 -2.804209e+01 -3.055056e+01 -2.229206e+01 -3.399073e+01 -1.776932e+01 -3.648359e+01 
-6.358418e+01 1.237829e+01 -4.897800e+01 9.232946e+00 -9.464999e+00 7.680803e+00 -5.003748e+01 2.007735e+00 -6.367254e+01 5.169654e-01 -7.337630e+01 -1.090307e-01 -8.134003e+01 -7.224148e-01 -8.825298e+01 -1.608580e+00 -9.465330e+01 -3.167613e+00 -9.936045e+01 -5.485067e+00 -1.017239e+02 -8.189279e+00 -1.018227e+02 -1.090256e+01 -1.010169e+02 -1.332484e+01 -1.011025e+02 -1.511441e+01 -1.007014e+02 -1.721102e+01 -9.924960e+01 -1.965086e+01 -9.780033e+01 -2.220813e+01 -9.672147e+01 -2.423255e+01 -9.521029e+01 -2.550850e+01 -9.479122e+01 -2.585851e+01 -9.561753e+01 -2.533458e+01 -9.565114e+01 -2.432751e+01 -9.591350e+01 -2.294659e+01 -9.655585e+01 -2.089357e+01 -9.583586e+01 -1.805988e+01 -9.468746e+01 -1.419984e+01 -9.385475e+01 -9.823325e+00 -9.285882e+01 -5.618284e+00 -9.107321e+01 -2.319196e+00 -8.776420e+01 2.265631e-01 -8.245052e+01 1.891551e+00 -7.363934e+01 2.056236e+00 
-3.171155e+01 9.615263e+00 -2.665196e+01 1.174586e+01 -3.276824e+01 6.911917e+00 -1.842373e+01 9.507949e+00 -2.680906e+01 7.077222e+00 -3.220890e+01 5.439598e+00 -3.655622e+01 4.355239e+00 -4.025627e+01 3.375591e+00 -4.326373e+01 1.497454e+00 -4.532734e+01 -4.135345e-01 -4.579602e+01 -3.189831e+00 -4.473405e+01 -6.070351e+00 -4.364898e+01 -8.119585e+00 -4.258376e+01 -1.003101e+01 -4.118431e+01 -1.220758e+01 -3.948855e+01 -1.420342e+01 -3.756587e+01 -1.594857e+01 -3.567214e+01 -1.771847e+01 -3.427391e+01 -1.843079e+01 -3.372516e+01 -1.793844e+01 -3.396140e+01 -1.739179e+01 -3.448193e+01 -1.609929e+01 -3.545146e+01 -1.437719e+01 -3.644459e+01 -1.285172e+01 -3.717881e+01 -1.089962e+01 -3.818183e+01 -7.667757e+00 -3.945982e+01 -3.846053e+00 -4.078274e+01 -2.526592e-01 -4.161187e+01 2.581002e+00 -4.133747e+01 4.445619e+00 -3.957220e+01 5.846125e+00 -3.683209e+01 8.140271e+00 
-2.830349e+00 2.299280e+00 -2.977533e+00 -6.346299e+00 -5.375997e+01 -1.784034e-01 5.674351e+00 1.690310e-01 9.618301e-01 9.395176e-02 -4.760458e-01 1.404508e-01 -1.039756e+00 3.958563e-01 -1.510182e+00 5.254518e-01 -1.684886e+00 -4.811898e-01 -1.466807e+00 -4.286379e-01 -1.227097e+00 -2.853697e-01 -1.385099e+00 -3.938034e-01 -1.617597e+00 -2.276906e-01 -1.497387e+00 -7.644456e-02 -1.437446e+00 -3.378047e-01 -1.560283e+00 -3.088255e-01 -1.426405e+00 -3.687561e-02 -1.138325e+00 -3.558638e-01 -1.180977e+00 -4.328018e-01 -1.137797e+00 -2.236935e-01 -8.305155e-01 -6.426983e-01 -9.016193e-01 -7.539062e-01 -9.793706e-01 -4.472969e-01 -6.664240e-01 -7.959551e-01 -5.383348e-01 -1.050375e+00 -3.959031e-01 -8.263985e-01 -3.415662e-01 -3.425374e-01 -4.088769e-01 -5.642657e-02 -5.061225e-01 1.835697e-01 -6.215203e-01 4.976426e-01 -7.922126e-01 9.794773e-01 -1.007968e+00 1.824767e+00 
-2.248293e+00 1.939981e+00 -2.661409e+00 -5.607706e+00 -6.979626e+01 -2.167453e+00 4.948653e+00 -1.177346e+00 2.774938e+00 -4.844965e-01 1.486296e+00 -1.604157e-01 7.195020e-01 5.567730e-01 -5.870486e-02 1.456522e+00 -3.469033e-01 -1.229257e+00 -6.424558e-02 -7.308137e-01 5.442317e-01 2.976064e-01 3.112437e-01 -1.997047e-01 -3.241726e-01 -3.968622e-01 8.739225e-02 4.611108e-01 2.975115e-01 -5.891939e-02 -2.584592e-01 -4.225115e-01 -1.816518e-01 4.363230e-01 3.647940e-01 5.720775e-02 -1.454887e-01 -3.716106e-01 -3.467959e-01 3.693449e-01 3.255195e-01 2.735691e-01 -1.612124e-01 -9.966125e-02 -6.422777e-01 4.203292e-01 3.921618e-02 6.673269e-02 1.870053e-01 -8.716582e-01 1.921977e-01 -1.490856e-01 1.468657e-01 3.704661e-01 -8.760456e-02 4.791108e-01 -3.198708e-01 5.086214e-01 -5.107882e-01 6.761718e-01 -8.096226e-01 9.711414e-01 -1.281704e+00 9.201135e-01 
-2.287824e+00 1.281128e+00 -1.627759e+00 -6.595862e+00 -7.974270e+01 -1.422079e+00 3.890917e+00 -1.402554e+00 2.708160e+00 -9.018288e-01 1.660279e+00 -6.397612e-01 1.084785e+00 4.960011e-01 4.480973e-01 2.945332e+00 -1.682129e+00 -2.061244e+00 3.928252e-01 -5.563813e-01 1.325063e+00 1.273144e+00 6.017945e-02 -5.975554e-01 -3.758913e-01 -7.171552e-01 6.924104e-01 1.615928e+00 -1.556992e-02 -4.437594e-01 -3.196016e-01 -1.085852e+00 3.245485e-01 1.641346e+00 1.273138e-01 -1.618573e-01 -2.288009e-01 -1.158774e+00 -1.833655e-02 1.335096e+00 2.472817e-01 3.305450e-01 -3.339291e-01 -8.322063e-01 -5.323580e-01 1.284766e+00 -6.294707e-02 9.037783e-01 -4.657932e-01 -1.868789e+00 7.316012e-01 2.178380e-02 4.966266e-01 8.069790e-01 -2.054350e-01 6.775590e-01 -5.285419e-01 6.024408e-01 -7.266299e-01 7.008980e-01 -1.006700e+00 9.061772e-01 -1.440199e+00 1.031620e+00 
-2.013395e+00 1.066867e+00 -1.147108e+00 -5.793767e+00 -8.903673e+01 -1.430106e+00 2.126961e+00 -2.050726e+00 2.184912e+00 -1.557468e+00 1.702746e+00 -1.433716e+00 1.066794e+00 -5.665882e-01 7.884961e-01 -3.099113e+00 2.761054e+00 6.671315e+00 2.234790e+00 4.797171e+00 3.038029e+00 3.701803e+00 1.942214e+00 1.590669e+00 -7.321498e-01 1.656840e+00 9.739102e-01 3.007575e+00 2.299295e+00 4.305344e-01 -2.421617e-01 -7.287276e-02 -1.792606e-01 2.970055e+00 2.713137e+00 -1.598039e-01 3.108432e-01 -1.136468e+00 -8.204207e-01 2.632418e+00 2.709908e+00 -3.159933e-01 7.240341e-01 -1.623890e+00 -1.342113e+00 2.887136e+00 1.150195e+00 -1.683201e-01 1.189324e+00 -7.926993e+00 -3.614917e-01 -1.621902e+00 5.441708e-01 1.398494e+00 -3.498396e-01 8.740020e-01 -6.680614e-01 6.812380e-01 -7.518302e-01 8.116933e-01 -9.584240e-01 1.037679e+00 -1.341704e+00 1.221947e+00 
-1.663137e+00 7.762792e-01 -7.838526e-02 -6.225836e+00 -9.420001e+01 -7.690021e-01 1.339368e+00 -1.914515e+00 1.531047e+00 -1.770916e+00 1.230348e+00 -2.587544e+00 8.482986e-01 -6.272419e+00 6.645143e+00 -2.814005e+01 2.104769e+01 4.697626e+01 2.472862e+01 2.788667e+01 3.534228e+01 1.965941e+01 2.060833e+01 3.037471e+01 1.268173e+01 2.759983e+01 2.986086e+01 1.163894e+01 2.387621e+01 2.965986e+01 1.461623e+01 2.819346e+01 2.227223e+01 6.892208e+00 2.736638e+01 2.820680e+01 1.585538e+01 2.679917e+01 1.693698e+01 7.184818e+00 3.050604e+01 2.514631e+01 1.633771e+01 2.364318e+01 1.307894e+01 1.035983e+01 2.994496e+01 1.927329e+01 1.440542e+01 1.852625e+01 1.276963e+01 1.167509e+01 1.017495e+00 2.295571e+00 -1.351346e+00 6.150037e-01 -1.024162e+00 6.105057e-01 -8.687688e-01 8.007427e-01 -9.843667e-01 1.018355e+00 -1.273220e+00 1.193862e+00 
-1.274184e+00 5.929843e-01 5.511322e-01 -5.587039e+00 -9.935438e+01 -6.703535e-01 4.323071e-01 -1.995164e+00 9.031558e-01 -1.972287e+00 1.263512e+00 -3.649516e+00 2.734086e+00 -9.897255e+00 1.095725e+01 -3.296054e+01 4.108405e+01 5.488210e+01 3.524881e+01 4.117352e+01 5.493508e+01 1.862599e+01 4.621665e+01 4.591146e+01 2.928091e+01 5.828477e+01 5.107653e+01 1.487855e+01 5.496172e+01 5.090758e+01 3.458382e+01 6.612284e+01 3.879311e+01 1.313967e+01 6.227528e+01 5.161785e+01 3.773716e+01 6.672882e+01 2.993177e+01 2.033783e+01 6.808880e+01 4.883862e+01 3.976358e+01 6.271781e+01 2.527416e+01 3.237693e+01 7.110535e+01 4.001193e+01 4.271276e+01 9.604096e+01 1.659419e+01 2.223476e+01 -5.177816e+00 3.676084e-01 -3.098512e+00 -3.366024e-01 -1.234515e+00 3.960589e-01 -7.720103e-01 8.054327e-01 -8.210879e-01 1.057091e+00 -1.050532e+00 1.206674e+00 
-8.589414e-01 3.343963e-01 1.436189e+00 -5.494684e+00 -1.014936e+02 -3.080768e-01 1.542518e-01 -1.692701e+00 6.651999e-01 -1.191963e+00 1.372495e+00 -8.918474e-01 2.516193e+00 -8.316432e-01 3.463589e+00 3.930223e+00 -9.185190e+00 -2.334282e+01 -6.225440e-01 -1.425011e+01 -4.867507e+00 -1.105676e+01 1.089700e+00 -8.488810e+00 3.457432e+00 -3.947295e+00 1.711228e+00 -2.987678e+00 4.438919e+00 -6.132399e-01 4.498325e+00 3.867596e+00 3.454409e+00 9.494327e-01 7.229695e+00 4.599270e+00 5.450255e+00 9.288786e+00 2.426076e+00 4.499946e+00 9.852762e+00 8.777466e+00 6.798814e+00 1.418934e+01 1.337249e+00 1.022327e+01 1.367597e+01 1.312331e+01 1.472914e+01 3.384134e+01 -1.597050e+00 9.166748e+00 -3.151139e+00 1.126544e+00 -1.490680e+00 4.216667e-01 -7.118492e-01 6.357513e-01 -5.935733e-01 8.549709e-01 -6.975923e-01 1.040159e+00 -8.619636e-01 1.145500e+00 
-4.660744e-01 1.767751e-01 1.986339e+00 -4.857821e+00 -1.036927e+02 -1.715302e-01 -2.456540e-01 -1.611921e+00 1.820857e-01 -7.350419e-01 6.088452e-01 1.714860e+00 -2.842226e-01 8.895764e+00 -9.950450e+00 3.677102e+01 -3.968026e+01 -6.536251e+01 -3.752443e+01 -4.758228e+01 -5.730297e+01 -2.456063e+01 -4.550871e+01 -5.098422e+01 -2.890435e+01 -6.187552e+01 -5.093967e+01 -1.721869e+01 -5.520612e+01 -5.255195e+01 -3.474587e+01 -6.776943e+01 -3.755058e+01 -1.443424e+01 -6.286005e+01 -5.054240e+01 -3.841394e+01 -6.610292e+01 -2.896067e+01 -2.119123e+01 -6.808965e+01 -4.514149e+01 -4.099969e+01 -5.913372e+01 -2.537744e+01 -3.268639e+01 -6.839592e+01 -3.461946e+01 -4.688835e+01 -9.433847e+01 -1.165466e+01 -1.572441e+01 3.779313e+00 1.825985e+00 1.914668e+00 1.863559e+00 3.050359e-01 1.187308e+00 -2.500784e-01 1.029643e+00 -4.745473e-01 1.081627e+00 -6.083767e-01 1.113864e+00 
-8.378109e-02 -3.007999e-02 2.647803e+00 -4.613797e+00 -1.036057e+02 1.513748e-01 -4.391683e-01 -1.557065e+00 -3.491101e-01 -1.006234e+00 -1.310936e-01 4.186557e-01 -1.107265e+00 4.867442e+00 -8.690717e+00 2.182925e+01 -1.399668e+01 -2.281863e+01 -2.211641e+01 -1.463304e+01 -3.106616e+01 -9.436561e+00 -2.122775e+01 -2.337852e+01 -1.557786e+01 -2.391642e+01 -3.248679e+01 -8.550462e+00 -2.751653e+01 -3.039716e+01 -1.836018e+01 -3.198122e+01 -2.734876e+01 -6.740824e+00 -3.360937e+01 -3.413973e+01 -2.018693e+01 -3.618151e+01 -2.162953e+01 -9.612694e+00 -3.965439e+01 -3.502747e+01 -2.135755e+01 -3.816861e+01 -1.723515e+01 -1.724614e+01 -4.447220e+01 -3.330712e+01 -2.074460e+01 -5.164686e+01 -1.729893e+01 -2.222814e+01 1.057856e+00 -1.370603e+00 1.777373e+00 1.131179e+00 4.293333e-01 1.045774e+00 -1.297488e-01 9.892405e-01 -3.394628e-01 1.040815e+00 -4.053782e-01 1.043355e+00 
2.629173e-01 -1.777319e-01 3.076355e+00 -4.080186e+00 -1.036024e+02 4.006526e-01 -6.858499e-01 -1.360243e+00 -8.733763e-01 -9.638544e-01 -8.055550e-01 -4.023025e-01 -1.273564e+00 -1.172080e+00 -1.396710e+00 -2.471527e+00 -1.049474e+00 2.900711e+00 -1.000288e+00 7.792986e-01 -1.334284e+00 5.630845e-01 -2.135667e+00 2.519451e+00 2.468784e-01 6.495542e-01 -3.192322e-01 -1.007622e+00 -2.792794e+00 1.498935e+00 -9.522201e-02 7.278251e-01 7.518806e-01 -2.320101e+00 -3.373843e+00 4.993994e-01 -4.526461e-01 2.403858e-01 1.674428e+00 -3.220011e+00 -3.489808e+00 -8.307905e-01 -7.353450e-01 -1.300019e+00 2.579822e+00 -5.056152e+00 -2.641791e+00 -2.031824e+00 -2.689889e+00 3.878733e+00 1.443641e-01 -1.556260e+00 -1.925444e-02 -1.600288e+00 4.117768e-01 1.586063e-01 2.442531e-01 7.449941e-01 -1.957572e-02 9.110551e-01 -1.643587e-01 9.990221e-01 -1.778021e-01 9.752731e-01 
5.768778e-01 -3.488902e-01 3.523553e+00 -3.802216e+00 -1.018568e+02 6.251059e-01 -7.283443e-01 -1.380738e+00 -1.097352e+00 -1.120482e+00 -9.115480e-01 -5.467940e-01 -1.037873e+00 -8.756019e-01 -5.376113e-01 -3.819101e+00 2.577055e+00 1.304832e+00 5.466768e-04 -1.579331e-01 -1.017347e+00 -1.773248e+00 4.276931e-01 4.612483e-01 3.587770e-01 6.340057e-01 -8.238223e-01 -1.883421e+00 3.351491e-01 4.258448e-01 4.234106e-01 1.249530e+00 -5.228786e-01 -1.819457e+00 3.301657e-02 1.541244e-01 3.682705e-01 1.426511e+00 -8.273410e-02 -1.350328e+00 -3.794057e-01 -3.922913e-01 3.557544e-01 1.164599e+00 4.952565e-01 -9.925698e-01 -5.524000e-01 -7.946286e-01 -1.802094e-02 3.353412e+00 -4.827848e-01 -6.586704e-02 -3.021532e-01 -8.223537e-01 2.427850e-01 8.810752e-02 1.800901e-01 5.924205e-01 7.937421e-03 8.007227e-01 -6.924640e-02 9.166588e-01 -8.645958e-03 8.853174e-01 
8.501480e-01 -4.969281e-01 3.820086e+00 -3.431582e+00 -1.001991e+02 8.690547e-01 -7.586006e-01 -1.328012e+00 -1.252254e+00 -1.402514e+00 -9.153726e-01 -1.169326e+00 -5.464309e-01 -8.543903e-01 1.419207e-01 -2.822907e-01 1.564516e-02 -1.056415e+00 5.018212e-01 -2.519994e-01 -1.172418e-01 -2.203570e-01 -9.725769e-02 -3.333560e-01 3.075063e-01 1.248725e-01 -4.920637e-02 -1.695171e-01 -3.684623e-01 -3.786818e-01 2.733528e-01 1.883638e-01 2.608933e-01 2.108377e-02 -5.783634e-01 -3.918752e-01 2.099436e-01 1.660534e-01 5.203252e-01 2.473876e-01 -6.659300e-01 -4.341817e-01 1.806046e-01 8.245515e-02 7.887773e-01 6.618508e-01 -8.199113e-01 2.766348e-01 -7.888098e-01 8.443186e-01 1.025354e-01 1.407081e-01 3.095943e-01 -8.679821e-03 1.436904e-01 2.312871e-01 5.183016e-02 5.140979e-01 1.255492e-02 7.116069e-01 3.093362e-02 8.387430e-01 1.605488e-01 7.900596e-01 
1.086085e+00 -6.430474e-01 4.065639e+00 -3.119606e+00 -9.708452e+01 9.824544e-01 -7.188725e-01 -1.333658e+00 -1.275074e+00 -1.579088e+00 -8.187399e-01 -1.537989e+00 -2.931913e-01 -1.127674e+00 3.377155e-01 3.878835e-01 -1.301257e+00 -4.124785e-01 1.010442e+00 8.890238e-01 5.377711e-01 1.390450e+00 5.980468e-02 1.988215e-01 2.826418e-01 4.378850e-01 3.524029e-01 1.104597e+00 -1.725070e-01 -1.438420e-01 3.085157e-01 -8.645340e-02 5.505316e-01 1.118191e+00 -2.818946e-01 -2.198248e-01 3.750717e-01 -4.703104e-01 6.889448e-01 1.053172e+00 -2.439002e-01 -1.895689e-01 4.467026e-01 -6.597646e-01 7.946909e-01 1.398040e+00 -5.286217e-01 7.549898e-01 -3.382293e-01 -1.766877e+00 5.442134e-01 7.438036e-02 5.920816e-01 7.871601e-01 -2.980602e-02 4.664014e-01 -1.207222e-01 4.666489e-01 -3.123208e-02 6.138920e-01 8.299216e-02 7.487041e-01 2.849946e-01 6.897357e-01 
1.283844e+00 -7.722104e-01 4.209721e+00 -2.798583e+00 -9.405358e+01 1.140589e+00 -6.455601e-01 -1.222894e+00 -1.277661e+00 -1.676238e+00 -8.716833e-01 -2.097862e+00 -2.892039e-01 -3.706704e+00 2.262208e+00 -6.049368e+00 -8.745683e-01 7.322735e+00 9.652299e+00 7.587262e+00 8.711046e+00 1.107721e+01 5.620148e+00 9.493184e+00 4.509103e+00 4.499138e+00 8.145266e+00 7.402131e+00 5.349728e+00 8.929846e+00 4.972230e+00 5.220914e+00 7.466781e+00 4.147756e+00 5.454367e+00 8.711290e+00 5.386254e+00 5.417741e+00 6.640489e+00 2.190314e+00 6.198879e+00 8.347023e+00 5.842799e+00 5.188107e+00 5.901296e+00 1.493869e+00 6.802901e+00 7.803240e+00 4.771557e+00 4.702656e+00 5.099382e+00 4.532614e+00 1.167097e+00 1.465639e+00 -3.260385e-01 5.341874e-01 -2.558146e-01 4.531418e-01 -3.245272e-02 5.631411e-01 1.550401e-01 6.775727e-01 4.082119e-01 5.883283e-01 
1.445804e+00 -8.636519e-01 4.258265e+00 -2.403750e+00 -8.973034e+01 1.157219e+00 -6.362921e-01 -1.094977e+00 -1.324856e+00 -1.623717e+00 -9.110189e-01 -2.757678e+00 3.973095e-01 -7.679099e+00 6.644174e+00 -1.591931e+01 4.297707e+00 1.679291e+01 2.466341e+01 1.401736e+01 2.593852e+01 2.371153e+01 1.949012e+01 2.660925e+01 1.504018e+01 1.210509e+01 2.658265e+01 1.869248e+01 2.051040e+01 2.986214e+01 1.690342e+01 1.866004e+01 2.462575e+01 1.063052e+01 2.135447e+01 3.214945e+01 1.831463e+01 2.286927e+01 2.159960e+01 5.625884e+00 2.353485e+01 3.327290e+01 1.984042e+01 2.498390e+01 1.865582e+01 3.403941e+00 2.696395e+01 3.198569e+01 1.813561e+01 3.678037e+01 1.687428e+01 2.113012e+01 8.212156e-02 1.934794e+00 -1.687895e+00 -6.615070e-02 -5.671986e-01 2.172661e-01 -3.840918e-02 4.680520e-01 2.178293e-01 6.090429e-01 5.056544e-01 5.001490e-01 
1.568949e+00 -9.333320e-01 4.240898e+00 -2.088956e+00 -8.551929e+01 1.196452e+00 -5.167810e-01 -9.216608e-01 -1.140165e+00 -1.277942e+00 -5.659457e-01 -1.667678e+00 7.579096e-01 -3.257028e+00 3.394462e+00 -6.500996e+00 3.504530e+00 1.635568e+00 8.679545e+00 -1.983221e-02 1.121816e+01 3.717242e+00 1.005373e+01 8.502866e+00 8.049966e+00 4.277871e+00 1.328076e+01 6.337834e+00 1.197000e+01 1.368741e+01 9.023833e+00 9.794139e+00 1.269432e+01 4.870590e+00 1.311705e+01 1.722984e+01 9.839972e+00 1.393801e+01 1.085800e+01 3.771848e+00 1.447777e+01 1.984959e+01 1.083020e+01 1.720129e+01 8.648812e+00 4.034419e+00 1.638057e+01 2.104047e+01 1.168563e+01 2.953649e+01 8.743459e+00 1.535114e+01 -1.289154e+00 1.818787e+00 -1.351413e+00 1.443943e-01 -3.628987e-01 2.663008e-01 7.288369e-02 4.452463e-01 3.041275e-01 5.519809e-01 5.985428e-01 4.102155e-01 
1.651842e+00 -9.443949e-01 4.116902e+00 -1.679465e+00 -8.019299e+01 1.107396e+00 -4.565104e-01 -7.862601e-01 -1.014381e+00 -7.453548e-01 -6.236091e-01 5.104905e-01 -8.107641e-01 5.378962e+00 -6.039852e+00 1.315817e+01 -3.406120e+00 -1.934455e+01 -2.285860e+01 -1.669433e+01 -2.451541e+01 -2.520894e+01 -1.843211e+01 -2.740657e+01 -1.285480e+01 -1.366602e+01 -2.429779e+01 -1.817394e+01 -1.978103e+01 -2.842342e+01 -1.466535e+01 -1.858187e+01 -2.153216e+01 -9.667915e+00 -2.103603e+01 -2.898260e+01 -1.611917e+01 -2.128829e+01 -1.839931e+01 -4.717487e+00 -2.312500e+01 -2.851540e+01 -1.784832e+01 -2.185371e+01 -1.585493e+01 -2.411409e+00 -2.571414e+01 -2.528636e+01 -1.764907e+01 -3.366777e+01 -1.402780e+01 -1.481608e+01 -1.541439e-01 -2.301745e-02 1.083808e+00 9.882059e-01 4.828513e-01 6.594485e-01 3.127006e-01 5.448315e-01 3.928789e-01 5.418749e-01 6.651962e-01 3.483053e-01 
1.692283e+00 -9.355700e-01 3.960915e+00 -1.410838e+00 -7.495571e+01 1.132372e+00 -4.008950e-01 -6.701454e-01 -1.040751e+00 -7.312160e-01 -9.213525e-01 2.891980e-01 -1.610048e+00 4.263963e+00 -6.367053e+00 9.730749e+00 -2.098464e+00 -9.593771e+00 -1.948280e+01 -8.836192e+00 -2.050329e+01 -1.684838e+01 -1.503144e+01 -1.902586e+01 -1.315758e+01 -8.655136e+00 -2.200584e+01 -1.478440e+01 -1.615257e+01 -2.346494e+01 -1.444685e+01 -1.461364e+01 -2.102564e+01 -9.118419e+00 -1.713850e+01 -2.674971e+01 -1.547786e+01 -1.889499e+01 -1.854463e+01 -5.220319e+00 -1.927747e+01 -2.894634e+01 -1.655757e+01 -2.164082e+01 -1.581233e+01 -3.426927e+00 -2.264170e+01 -2.929595e+01 -1.519456e+01 -3.202143e+01 -1.503862e+01 -1.993488e+01 -3.630529e-01 -1.496406e+00 1.545286e+00 7.976158e-01 6.892419e-01 6.416176e-01 4.033904e-01 5.224907e-01 4.491349e-01 4.948036e-01 7.153302e-01 2.804147e-01 
1.690291e+00 -9.035821e-01 3.730010e+00 -1.089817e+00 -6.883303e+01 1.080392e+00 -4.202874e-01 -5.311377e-01 -1.109694e+00 -6.775472e-01 -1.122974e+00 -5.042046e-01 -1.253082e+00 -7.690636e-01 -1.476327e+00 -1.099702e+00 -1.937727e-01 6.113307e-01 -2.300150e+00 1.613073e-01 -2.653711e+00 -4.050276e-01 -2.036155e+00 -2.759414e-01 -1.618066e+00 -6.380575e-01 -2.681205e+00 -1.500039e+00 -2.074272e+00 -1.516473e+00 -1.653530e+00 -1.254910e+00 -2.576509e+00 -1.824012e+00 -2.195879e+00 -2.584554e+00 -1.779549e+00 -1.855024e+00 -2.152771e+00 -1.916744e+00 -2.435914e+00 -3.604773e+00 -1.825205e+00 -2.666819e+00 -1.511601e+00 -2.398965e+00 -2.571473e+00 -4.645881e+00 -1.739192e+00 -1.932557e+00 -2.529138e+00 -3.074441e+00 -5.033560e-01 -1.145993e+00 4.180912e-01 4.816285e-02 4.379697e-01 3.608040e-01 3.973640e-01 4.284638e-01 4.709925e-01 4.399775e-01 7.329953e-01 2.245766e-01 
1.650587e+00 -8.565263e-01 3.473964e+00 -8.907228e-01 -6.280204e+01 1.058360e+00 -3.693414e-01 -4.170221e-01 -1.056126e+00 -5.888245e-01 -1.084824e+00 -4.920388e-01 -1.025610e+00 -1.086608e+00 -4.586171e-01 -2.369312e+00 9.436873e-01 6.242598e-01 -2.925861e-01 -2.372582e-01 -3.117856e-01 -6.598913e-01 -1.572006e-01 5.470827e-01 -3.496350e-01 -1.723848e-01 -2.490705e-01 -9.713084e-01 2.113998e-01 6.004198e-01 -2.017672e-01 3.202755e-01 -3.435421e-01 -1.215547e+00 3.917171e-01 4.974547e-01 -1.730302e-01 6.128072e-01 -3.225076e-01 -1.269376e+00 4.178355e-01 2.375878e-01 -1.076450e-01 6.326853e-01 -1.555984e-01 -1.437904e+00 5.675058e-01 -1.753044e-01 9.026356e-03 2.376654e+00 -6.347971e-01 2.727500e-01 -4.714496e-01 -6.200738e-01 2.193504e-01 -9.996366e-02 3.890086e-01 2.286761e-01 4.064470e-01 3.454205e-01 4.853922e-01 3.732416e-01 7.381779e-01 1.658770e-01 
1.564691e+00 -8.091616e-01 3.175612e+00 -7.136600e-01 -5.612064e+01 9.785907e-01 -3.246965e-01 -3.954496e-01 -9.512256e-01 -6.691107e-01 -9.019071e-01 -6.944909e-01 -6.632938e-01 -8.835123e-01 -2.079077e-01 -9.517416e-01 2.334642e-01 -3.739693e-01 1.540044e-02 -2.727219e-01 -1.065256e-01 -2.747995e-01 -1.374558e-01 2.047931e-02 -7.978214e-02 -1.793346e-01 -7.357550e-02 -3.426203e-01 -2.020806e-02 1.043706e-01 -1.575122e-02 3.129519e-02 -2.751802e-02 -3.604629e-01 3.083427e-02 1.358650e-01 -2.296658e-02 1.699148e-01 2.391832e-02 -3.508677e-01 4.856257e-02 9.188323e-02 3.190846e-03 2.019060e-01 1.514771e-01 -3.233649e-01 1.092579e-01 2.853550e-01 -2.222389e-01 1.069145e+00 -3.065227e-01 4.436259e-01 -1.600586e-01 -7.368504e-02 8.861533e-02 -1.617439e-02 2.399133e-01 1.539979e-01 3.298412e-01 2.655069e-01 4.438269e-01 3.080895e-01 6.986942e-01 1.152127e-01 
1.452192e+00 -7.457722e-01 2.847791e+00 -5.778379e-01 -4.947967e+01 9.073962e-01 -2.603085e-01 -3.041120e-01 -8.253625e-01 -5.869095e-01 -7.746969e-01 -6.473977e-01 -5.301234e-01 -7.839691e-01 -1.780101e-01 -6.817719e-01 7.638822e-02 -5.035314e-01 -1.107146e-02 -2.761463e-01 -7.994393e-02 -1.293543e-01 -1.278428e-01 -7.987595e-02 -7.575982e-02 -2.066179e-01 -4.619676e-02 -1.417807e-01 -3.790585e-02 4.649664e-03 -2.668263e-02 -7.854370e-02 -8.844024e-04 -1.320492e-01 8.982182e-03 6.557263e-02 -2.518874e-02 1.670640e-02 3.296345e-02 -1.334526e-01 3.542338e-02 8.556846e-02 -1.692262e-03 5.850133e-02 1.080859e-01 -9.815355e-02 7.308801e-02 3.462436e-01 -1.541529e-01 6.013396e-01 -2.308726e-01 4.644225e-01 -1.274147e-01 9.510040e-02 5.193435e-02 3.207566e-02 1.993069e-01 1.233593e-01 3.028544e-01 2.113369e-01 4.190031e-01 2.491472e-01 6.587301e-01 6.894682e-02 
1.298923e+00 -6.794896e-01 2.492458e+00 -4.700088e-01 -4.237091e+01 7.923826e-01 -1.897205e-01 -2.759280e-01 -6.776751e-01 -5.512186e-01 -6.166471e-01 -5.758111e-01 -4.073291e-01 -5.836134e-01 -1.815120e-01 -5.094329e-01 -5.119944e-02 -4.472953e-01 -2.570486e-02 -2.790197e-01 -6.109737e-02 -1.531674e-01 -8.562638e-02 -1.144648e-01 -2.906154e-02 -1.410952e-01 -3.251791e-02 -9.404299e-02 -5.339742e-02 -4.101506e-02 -1.367474e-04 -6.531189e-02 1.501355e-02 -5.838066e-02 -2.964875e-02 1.182041e-02 4.627942e-03 -9.537474e-03 4.851184e-02 -4.030362e-02 -6.871998e-03 4.658044e-02 2.116373e-02 4.520910e-02 8.541357e-02 4.538620e-02 -2.710164e-02 2.600080e-01 -1.521306e-01 3.593007e-01 -1.390923e-01 3.350479e-01 -5.086507e-02 1.702035e-01 4.345024e-02 9.887176e-02 1.422102e-01 1.241492e-01 2.387142e-01 1.754301e-01 3.548902e-01 2.018037e-01 5.801327e-01 3.419394e-02 
1.127762e+00 -5.983318e-01 2.111637e+00 -3.742387e-01 -3.526114e+01 6.895241e-01 -1.292438e-01 -1.991062e-01 -5.417734e-01 -4.583600e-01 -5.012310e-01 -4.922639e-01 -3.313338e-01 -4.858820e-01 -1.598307e-01 -4.184196e-01 -4.976965e-02 -3.949283e-01 -4.144769e-02 -2.480845e-01 -5.970333e-02 -1.270801e-01 -6.370801e-02 -1.139290e-01 -2.955266e-02 -1.190306e-01 -3.431796e-02 -6.322486e-02 -3.819946e-02 -5.170187e-02 -3.541473e-03 -6.299882e-02 3.424468e-03 -2.723630e-02 -1.815273e-02 -4.665533e-03 5.723693e-03 -1.954571e-02 2.968876e-02 -6.695626e-03 -1.216840e-03 3.481299e-02 1.914712e-02 3.380647e-02 5.095300e-02 7.395181e-02 -2.451968e-02 2.116553e-01 -1.005073e-01 2.610763e-01 -1.164168e-01 2.782271e-01 -4.363072e-02 1.818562e-01 3.138718e-02 1.123006e-01 1.146112e-01 1.116371e-01 2.021234e-01 1.414934e-01 3.070084e-01 1.568586e-01 5.054767e-01 4.874564e-03 
9.266760e-01 -5.102392e-01 1.710563e+00 -2.927481e-01 -2.783205e+01 5.542647e-01 -6.762751e-02 -1.530061e-01 -4.002413e-01 -3.734763e-01 -3.754554e-01 -3.921119e-01 -2.505957e-01 -3.718527e-01 -1.327569e-01 -3.310063e-01 -6.065279e-02 -2.963283e-01 -3.706966e-02 -2.101160e-01 -4.055383e-02 -1.304608e-01 -3.740961e-02 -9.874812e-02 -1.333943e-02 -8.634886e-02 -1.930136e-02 -5.656700e-02 -2.583764e-02 -4.229437e-02 9.258492e-04 -4.135933e-02 5.162436e-03 -2.347641e-02 -1.357605e-02 -7.001084e-03 8.525469e-03 -8.623279e-03 2.339433e-02 1.283317e-03 -2.308241e-03 3.006343e-02 1.246923e-02 4.427140e-02 2.225257e-02 7.740211e-02 -4.221262e-02 1.522118e-01 -9.047370e-02 1.909505e-01 -8.127819e-02 2.026929e-01 -2.930609e-02 1.584311e-01 2.164622e-02 1.152559e-01 7.998659e-02 1.048390e-01 1.486167e-01 1.169824e-01 2.364382e-01 1.215504e-01 4.046236e-01 -1.329241e-02 
7.144182e-01 -4.128561e-01 1.293934e+00 -2.206580e-01 -2.038850e+01 4.326508e-01 -1.621872e-02 -8.150292e-02 -2.673670e-01 -2.716537e-01 -2.651787e-01 -2.986412e-01 -1.759514e-01 -2.839960e-01 -8.919480e-02 -2.557298e-01 -3.441246e-02 -2.338702e-01 -2.549858e-02 -1.666619e-01 -2.902226e-02 -1.025748e-01 -2.267179e-02 -7.842418e-02 -9.600107e-03 -6.433520e-02 -1.606850e-02 -4.050708e-02 -1.628385e-02 -3.476854e-02 1.950901e-04 -3.148934e-02 4.892827e-04 -1.472015e-02 -7.610804e-03 -7.990745e-03 6.966978e-03 -6.784265e-03 1.333475e-02 6.618712e-03 -1.080827e-03 2.394677e-02 8.065045e-03 3.784219e-02 7.812749e-03 6.997515e-02 -3.613887e-02 1.196227e-01 -6.771215e-02 1.467358e-01 -7.148371e-02 1.606770e-01 -3.246723e-02 1.348841e-01 8.108773e-03 9.989398e-02 5.341423e-02 8.405531e-02 1.071898e-01 8.609782e-02 1.757946e-01 8.395730e-02 3.072923e-01 -2.846937e-02 
4.842254e-01 -3.087062e-01 8.631191e-01 -1.505937e-01 -1.275833e+01 2.884168e-01 3.172872e-02 -2.583374e-02 -1.336804e-01 -1.722353e-01 -1.494941e-01 -1.999958e-01 -9.649850e-02 -1.918712e-01 -4.338340e-02 -1.752495e-01 -1.231250e-02 -1.553775e-01 -4.763669e-03 -1.171618e-01 -7.009338e-03 -7.800701e-02 -4.562344e-03 -5.511575e-02 2.134061e-03 -4.193690e-02 -3.051653e-03 -2.833254e-02 -6.006438e-03 -2.120826e-02 3.128652e-03 -1.782956e-02 3.224846e-03 -1.027650e-02 -3.079724e-03 -3.758064e-03 5.611932e-03 -6.701058e-04 8.979543e-03 7.137588e-03 -2.038995e-03 2.123661e-02 -3.496071e-04 3.461752e-02 -6.341008e-03 5.458473e-02 -3.931215e-02 8.461150e-02 -6.199083e-02 1.058415e-01 -5.873987e-02 1.137793e-01 -3.379089e-02 9.931064e-02 -7.303828e-03 7.691719e-02 2.204338e-02 6.241438e-02 5.740939e-02 5.838532e-02 1.035369e-01 5.159757e-02 1.954357e-01 -3.609346e-02 
2.494730e-01 -2.015661e-01 4.277579e-01 -9.033951e-02 -5.118668e+00 1.567484e-01 7.672591e-02 4.274382e-02 -3.447725e-03 -6.700349e-02 -3.857412e-02 -1.044918e-01 -1.645989e-02 -1.073425e-01 1.132807e-02 -1.026611e-01 2.467971e-02 -9.452016e-02 1.975035e-02 -7.002862e-02 1.137547e-02 -4.333715e-02 9.591215e-03 -2.832897e-02 9.671104e-03 -1.950810e-02 2.871127e-03 -1.143060e-02 2.807397e-04 -9.132991e-03 4.434929e-03 -7.832876e-03 2.627128e-03 -3.407928e-03 -8.895955e-04 -1.087561e-03 4.002010e-03 7.432085e-04 4.176468e-03 6.739674e-03 -3.290515e-03 1.555150e-02 -3.979299e-03 2.559647e-02 -1.208277e-02 4.101116e-02 -3.631941e-02 6.075482e-02 -5.371619e-02 7.472154e-02 -5.690974e-02 8.030100e-02 -4.143059e-02 6.939583e-02 -2.406208e-02 4.985552e-02 -6.560199e-03 3.378837e-02 1.283140e-02 2.518049e-02 3.655184e-02 1.615115e-02 8.615184e-02 -4.312326e-02 
8.472269e-03 -8.990561e-02 -1.542812e-02 -2.278277e-02 2.582136e+00 1.126050e-02 1.163064e-01 1.050706e-01 1.260599e-01 3.796703e-02 7.369111e-02 -7.086173e-03 6.435235e-02 -2.076247e-02 6.509749e-02 -2.634944e-02 5.939917e-02 -2.696997e-02 4.662049e-02 -1.925749e-02 3.335818e-02 -8.528868e-03 2.524300e-02 -1.470636e-03 2.020310e-02 1.777547e-03 1.253022e-02 3.807650e-03 7.369034e-03 3.807424e-03 7.342398e-03 2.593413e-03 4.914876e-03 2.520381e-03 1.247271e-03 2.993836e-03 2.671399e-03 3.259747e-03 1.491176e-03 5.513578e-03 -5.162363e-03 1.079967e-02 -9.257837e-03 1.683494e-02 -1.826636e-02 2.473273e-02 -3.701475e-02 3.561542e-02 -5.116324e-02 4.384223e-02 -5.383801e-02 4.479240e-02 -4.735026e-02 3.498271e-02 -4.085870e-02 1.893675e-02 -3.642405e-02 3.571860e-03 -3.408199e-02 -7.655270e-03 -3.383241e-02 -1.765279e-02 -2.763617e-02 -4.708999e-02 
-2.300833e-01 1.976081e-02 -4.528039e-01 3.693591e-02 1.027891e+01 -1.227036e-01 1.590057e-01 1.715781e-01 2.537146e-01 1.426310e-01 1.844479e-01 8.749236e-02 1.467387e-01 6.147731e-02 1.241660e-01 4.404583e-02 1.011598e-01 3.206111e-02 7.609495e-02 2.852103e-02 5.460981e-02 2.901014e-02 4.023308e-02 2.802898e-02 2.978635e-02 2.528558e-02 1.945754e-02 2.199108e-02 1.269340e-02 1.743208e-02 9.783239e-03 1.279136e-02 5.878926e-03 9.382272e-03 2.247094e-03 6.390103e-03 1.670975e-03 3.952536e-03 -9.930304e-04 3.323204e-03 -6.881021e-03 4.574654e-03 -1.188940e-02 6.730620e-03 -2.119670e-02 1.027513e-02 -3.679892e-02 1.504101e-02 -4.987084e-02 1.763388e-02 -5.678829e-02 1.507399e-02 -5.734037e-02 4.212655e-03 -5.917723e-02 -1.237040e-02 -6.585389e-02 -2.943551e-02 -7.913382e-02 -4.344929e-02 -1.016817e-01 -5.339591e-02 -1.389889e-01 -5.193628e-02 