# vtk DataFile Version 2.0
Comment goes here
ASCII

DATASET STRUCTURED_POINTS
FIELD FieldData 1
TIME 1 1 double
0.04700000
DIMENSIONS    64   64   1

ORIGIN    0.000   0.000   0.000
SPACING   0.03125 0.03125   1.000

POINT_DATA   4096
SCALARS uX double
LOOKUP_TABLE default

7.711715e-01 -1.349245e+00 4.590247e-01 -1.279882e+00 2.808676e-01 -1.231783e+00 3.773664e-01 -1.147397e+00 3.802660e-01 -1.029574e+00 3.066708e-01 -8.695153e-01 1.767362e-01 -6.853735e-01 3.244789e-02 -5.185441e-01 -8.326014e-02 -3.912874e-01 -1.684122e-01 -2.940727e-01 -2.350919e-01 -2.126224e-01 -2.932639e-01 -1.389327e-01 -3.489732e-01 -6.045812e-02 -4.189977e-01 3.586632e-02 -5.116439e-01 1.555220e-01 -6.392310e-01 3.181311e-01 -8.135389e-01 5.140858e-01 -1.000538e+00 6.892352e-01 -1.144064e+00 7.924711e-01 -1.207477e+00 8.064847e-01 -1.171590e+00 7.202604e-01 -1.052034e+00 5.637969e-01 -8.869503e-01 3.853479e-01 -7.188498e-01 2.146007e-01 -5.731731e-01 6.637175e-02 -4.526194e-01 -7.053549e-02 -3.313569e-01 -2.267406e-01 -1.836744e-01 -4.158833e-01 -1.069798e-02 -6.305495e-01 1.703789e-01 -8.495280e-01 3.393372e-01 -1.065684e+00 4.955615e-01 -1.292548e+00 
-5.974861e-01 3.260785e-01 -1.842331e-01 2.623668e-01 3.125274e-02 2.391351e-01 -1.588991e-01 1.849095e-01 -2.514136e-01 1.254502e-01 -2.798990e-01 4.693909e-02 -2.649032e-01 -4.548084e-02 -2.366790e-01 -1.282597e-01 -2.235230e-01 -1.863390e-01 -2.210105e-01 -2.262866e-01 -2.253167e-01 -2.545561e-01 -2.293259e-01 -2.781059e-01 -2.308530e-01 -3.093808e-01 -2.197270e-01 -3.502178e-01 -1.942804e-01 -4.027622e-01 -1.475187e-01 -4.798360e-01 -7.045869e-02 -5.784994e-01 1.662596e-02 -6.647670e-01 8.816210e-02 -7.163780e-01 1.221491e-01 -7.252623e-01 1.083772e-01 -6.817823e-01 5.624848e-02 -6.050647e-01 -1.297384e-02 -5.215558e-01 -8.044329e-02 -4.399577e-01 -1.285400e-01 -3.692755e-01 -1.559365e-01 -3.058625e-01 -1.815299e-01 -2.319112e-01 -2.219790e-01 -1.397972e-01 -2.741886e-01 -3.508245e-02 -3.253353e-01 7.157035e-02 -3.634751e-01 1.796438e-01 -3.910613e-01 3.111648e-01 
8.741554e-01 5.508694e-01 9.141821e-01 4.934610e-01 6.614867e-01 4.491440e-01 1.047298e+00 4.408274e-01 1.323687e+00 3.776533e-01 1.566271e+00 2.790229e-01 1.799219e+00 1.697319e-01 2.014195e+00 8.413221e-02 2.190417e+00 3.052961e-02 2.314772e+00 1.039029e-03 2.408982e+00 -2.173172e-02 2.484792e+00 -4.057399e-02 2.540101e+00 -5.443157e-02 2.603219e+00 -8.333143e-02 2.678629e+00 -1.310115e-01 2.761968e+00 -2.086016e-01 2.879694e+00 -3.171114e-01 3.010030e+00 -4.259246e-01 3.098610e+00 -4.899956e-01 3.134118e+00 -5.009348e-01 3.107768e+00 -4.558109e-01 3.017437e+00 -3.662966e-01 2.893849e+00 -2.661790e-01 2.771945e+00 -1.868875e-01 2.651713e+00 -1.343600e-01 2.531823e+00 -8.986549e-02 2.401747e+00 -2.597240e-02 2.245766e+00 6.636112e-02 2.061813e+00 1.792575e-01 1.854764e+00 2.947280e-01 1.629468e+00 4.139466e-01 1.367805e+00 5.676857e-01 
2.819870e+00 -1.192029e-01 1.934667e+00 -1.745494e-01 9.488594e-01 -1.511880e-01 2.094690e+00 -1.282653e-01 2.749052e+00 -1.034154e-01 3.182326e+00 -6.118785e-02 3.493967e+00 4.116179e-03 3.743754e+00 8.334609e-02 3.973102e+00 1.575359e-01 4.149547e+00 2.041141e-01 4.294712e+00 2.258094e-01 4.398826e+00 2.394551e-01 4.470493e+00 2.517976e-01 4.536278e+00 2.614828e-01 4.584240e+00 2.748709e-01 4.593710e+00 3.051736e-01 4.588526e+00 3.502397e-01 4.576060e+00 3.902071e-01 4.538876e+00 4.198663e-01 4.518681e+00 4.329596e-01 4.524449e+00 4.171878e-01 4.513082e+00 3.909946e-01 4.497338e+00 3.623227e-01 4.475341e+00 3.206588e-01 4.401291e+00 2.735694e-01 4.281364e+00 2.227378e-01 4.133850e+00 1.707750e-01 3.987973e+00 1.222908e-01 3.834895e+00 7.988351e-02 3.650087e+00 4.365837e-02 3.405904e+00 3.331686e-03 3.078650e+00 -7.894602e-02 
2.812106e+00 -1.047208e-02 2.137002e+00 -9.448524e-02 1.335138e+00 -8.560707e-02 2.222824e+00 -1.024474e-01 2.810971e+00 -8.252262e-02 3.228202e+00 -4.555282e-02 3.545406e+00 1.155930e-02 3.807935e+00 8.911502e-02 4.053381e+00 1.712660e-01 4.217511e+00 2.218203e-01 4.353971e+00 2.427248e-01 4.452304e+00 2.580972e-01 4.508331e+00 2.706310e-01 4.566814e+00 2.738869e-01 4.620207e+00 2.753513e-01 4.630207e+00 2.891999e-01 4.638121e+00 3.064768e-01 4.657525e+00 3.187923e-01 4.638278e+00 3.375505e-01 4.624547e+00 3.526935e-01 4.637743e+00 3.479603e-01 4.611685e+00 3.471276e-01 4.571420e+00 3.444225e-01 4.536581e+00 3.176875e-01 4.451641e+00 2.764473e-01 4.311510e+00 2.232589e-01 4.154599e+00 1.719523e-01 4.003238e+00 1.322720e-01 3.845038e+00 1.044148e-01 3.657882e+00 8.589787e-02 3.418523e+00 6.415164e-02 3.109658e+00 6.415271e-03 
2.900692e+00 -1.060733e-01 2.356202e+00 -1.297744e-01 1.713147e+00 -1.335158e-01 2.359097e+00 -1.175744e-01 2.891518e+00 -9.763006e-02 3.284472e+00 -7.012386e-02 3.584417e+00 -2.580468e-02 3.838133e+00 5.001413e-02 4.096170e+00 1.824973e-01 4.246432e+00 2.306792e-01 4.381921e+00 2.324772e-01 4.474006e+00 2.624098e-01 4.512113e+00 2.830314e-01 4.575942e+00 2.774034e-01 4.632718e+00 3.032410e-01 4.617638e+00 3.357012e-01 4.620638e+00 3.490178e-01 4.647323e+00 3.753811e-01 4.603230e+00 4.064359e-01 4.585013e+00 4.090930e-01 4.617418e+00 3.983879e-01 4.582429e+00 4.010651e-01 4.548282e+00 3.855480e-01 4.543119e+00 3.493976e-01 4.460030e+00 3.187761e-01 4.326182e+00 2.373408e-01 4.163175e+00 1.639136e-01 4.021659e+00 1.123589e-01 3.879167e+00 7.230937e-02 3.710506e+00 3.491912e-02 3.496861e+00 -7.481984e-03 3.226304e+00 -6.192583e-02 
3.012142e+00 -1.120072e-02 2.583800e+00 -4.802585e-02 2.071352e+00 -5.187315e-02 2.549828e+00 -6.525961e-02 2.983050e+00 -6.550708e-02 3.328603e+00 -5.593358e-02 3.608411e+00 -2.870655e-02 3.859228e+00 4.034329e-02 4.163310e+00 2.233373e-01 4.267389e+00 2.695546e-01 4.390239e+00 2.339954e-01 4.500493e+00 2.635599e-01 4.517112e+00 3.010828e-01 4.568966e+00 2.675476e-01 4.658235e+00 2.755909e-01 4.633613e+00 3.178423e-01 4.626830e+00 3.068938e-01 4.699852e+00 3.009197e-01 4.658715e+00 3.471106e-01 4.621218e+00 3.527044e-01 4.683168e+00 3.221541e-01 4.644737e+00 3.579525e-01 4.579866e+00 3.719120e-01 4.590158e+00 3.312581e-01 4.518055e+00 3.196424e-01 4.326298e+00 2.164424e-01 4.158965e+00 1.401990e-01 4.031459e+00 1.030067e-01 3.903483e+00 8.450919e-02 3.748705e+00 7.026777e-02 3.553204e+00 5.091133e-02 3.309220e+00 1.987067e-02 
3.179096e+00 -6.172131e-02 2.829844e+00 -7.723344e-02 2.419582e+00 -8.088208e-02 2.763303e+00 -8.242150e-02 3.115663e+00 -7.972150e-02 3.411278e+00 -8.089534e-02 3.651291e+00 -9.066416e-02 3.879973e+00 -1.043956e-01 4.275145e+00 3.378860e-01 4.298982e+00 3.158682e-01 4.426539e+00 1.624295e-01 4.549109e+00 2.976943e-01 4.505804e+00 3.561656e-01 4.567029e+00 2.073606e-01 4.704058e+00 3.139589e-01 4.613314e+00 4.060875e-01 4.589185e+00 2.885348e-01 4.731674e+00 3.386073e-01 4.629866e+00 4.514867e-01 4.562707e+00 3.688511e-01 4.705904e+00 3.348282e-01 4.632129e+00 4.485086e-01 4.541590e+00 3.980716e-01 4.633949e+00 3.073829e-01 4.571784e+00 4.507045e-01 4.338731e+00 2.122639e-01 4.148098e+00 1.018927e-01 4.050865e+00 6.753409e-02 3.950896e+00 4.819634e-02 3.821454e+00 2.682693e-02 3.654133e+00 -5.238076e-04 3.443031e+00 -3.281678e-02 
3.340398e+00 7.011041e-03 3.067945e+00 -1.043395e-02 2.750000e+00 -1.396704e-02 2.990667e+00 -2.665748e-02 3.252987e+00 -3.876018e-02 3.486516e+00 -6.156172e-02 3.686257e+00 -1.131305e-01 3.897822e+00 -1.534882e-01 4.321506e+00 3.002223e-01 4.281938e+00 2.824299e-01 4.404444e+00 3.894374e-02 4.582326e+00 2.445657e-01 4.496050e+00 3.682955e-01 4.523149e+00 9.883160e-02 4.742783e+00 2.474366e-01 4.613969e+00 4.184683e-01 4.540003e+00 1.872885e-01 4.788070e+00 2.326525e-01 4.662164e+00 4.477274e-01 4.529335e+00 2.973789e-01 4.768623e+00 2.173816e-01 4.683889e+00 4.637074e-01 4.523456e+00 3.943163e-01 4.701489e+00 2.418431e-01 4.706339e+00 7.207202e-01 4.289748e+00 1.762515e-01 4.119108e+00 4.778541e-02 4.070523e+00 4.604014e-02 3.996063e+00 5.429170e-02 3.885015e+00 5.415564e-02 3.739798e+00 4.467084e-02 3.559820e+00 2.744171e-02 
3.527254e+00 -2.610895e-02 3.313327e+00 -3.143861e-02 3.069353e+00 -3.465615e-02 3.226884e+00 -3.856202e-02 3.419627e+00 -3.863232e-02 3.595326e+00 -4.263774e-02 3.717584e+00 -7.153277e-02 3.727394e+00 -1.488791e-01 3.361011e+00 -8.202790e-01 3.548201e+00 -8.237615e-01 3.526114e+00 -6.389111e-01 3.526459e+00 -7.681296e-01 3.711706e+00 -7.842092e-01 3.695111e+00 -6.010051e-01 3.602702e+00 -6.783041e-01 3.758601e+00 -7.132172e-01 3.771947e+00 -5.613598e-01 3.627503e+00 -5.773539e-01 3.755622e+00 -6.327320e-01 3.790500e+00 -5.303331e-01 3.645530e+00 -4.900201e-01 3.751532e+00 -5.516663e-01 3.811003e+00 -4.738788e-01 3.724073e+00 -3.622298e-01 3.843851e+00 -3.630641e-01 3.916881e+00 -1.822152e-01 4.082832e+00 -5.075864e-02 4.107959e+00 5.095792e-03 4.059831e+00 2.227457e-02 3.971960e+00 1.982344e-02 3.853783e+00 6.967731e-03 3.706297e+00 -1.023616e-02 
3.702734e+00 2.772062e-02 3.546474e+00 2.449753e-02 3.372260e+00 2.158540e-02 3.459524e+00 1.523177e-02 3.579477e+00 1.553029e-02 3.682026e+00 2.683429e-02 3.697754e+00 2.689702e-02 3.476424e+00 -1.297511e-01 2.432528e+00 -1.617024e+00 2.766340e+00 -1.760228e+00 2.614102e+00 -1.224220e+00 2.311266e+00 -1.710921e+00 2.735634e+00 -2.051609e+00 2.756009e+00 -1.440246e+00 2.220796e+00 -1.719997e+00 2.657643e+00 -2.133948e+00 2.892309e+00 -1.625707e+00 2.218280e+00 -1.618212e+00 2.576880e+00 -2.100790e+00 2.939122e+00 -1.799201e+00 2.273766e+00 -1.495538e+00 2.490322e+00 -2.017048e+00 2.925359e+00 -1.893544e+00 2.455258e+00 -1.396137e+00 2.467783e+00 -2.152039e+00 3.647897e+00 -6.915109e-01 4.134633e+00 -1.644216e-01 4.181816e+00 -1.322609e-02 4.133068e+00 3.255553e-02 4.055024e+00 4.526215e-02 3.957058e+00 4.448068e-02 3.839804e+00 3.716102e-02 
3.889250e+00 4.550911e-03 3.779861e+00 7.839070e-03 3.663322e+00 5.307978e-03 3.694879e+00 8.855199e-04 3.764697e+00 2.112924e-03 3.834710e+00 1.183375e-02 3.861127e+00 2.480647e-02 3.790729e+00 -5.116934e-03 3.565820e+00 -4.682937e-01 3.556339e+00 -5.701933e-01 3.493886e+00 -4.706662e-01 3.431908e+00 -6.912637e-01 3.567875e+00 -8.356071e-01 3.531924e+00 -6.511090e-01 3.359713e+00 -8.063842e-01 3.535610e+00 -9.650945e-01 3.581102e+00 -7.721185e-01 3.318647e+00 -8.220621e-01 3.488409e+00 -1.014875e+00 3.599214e+00 -8.837279e-01 3.306009e+00 -8.178018e-01 3.432363e+00 -1.053716e+00 3.602195e+00 -9.913019e-01 3.366198e+00 -8.068362e-01 3.407982e+00 -1.115993e+00 3.906130e+00 -4.570548e-01 4.192237e+00 -1.329818e-01 4.231339e+00 -2.267885e-02 4.201561e+00 1.271113e-02 4.146760e+00 2.060990e-02 4.075224e+00 1.735228e-02 3.988865e+00 1.035514e-02 
4.063678e+00 4.816564e-02 4.000407e+00 5.295252e-02 3.938925e+00 5.077817e-02 3.923824e+00 4.009483e-02 3.949060e+00 2.596125e-02 3.993972e+00 1.703545e-03 4.049752e+00 -4.423299e-02 4.160155e+00 -8.957461e-02 4.600390e+00 4.932285e-01 4.471934e+00 4.536461e-01 4.557486e+00 1.761114e-01 4.705902e+00 3.662595e-01 4.576270e+00 4.583653e-01 4.585163e+00 1.644036e-01 4.801339e+00 2.918444e-01 4.659651e+00 4.419386e-01 4.577900e+00 2.002990e-01 4.826379e+00 2.186113e-01 4.707454e+00 4.140379e-01 4.576367e+00 2.642254e-01 4.809474e+00 1.590590e-01 4.742261e+00 3.812113e-01 4.597159e+00 3.213358e-01 4.765231e+00 1.707649e-01 4.795813e+00 6.222572e-01 4.404877e+00 9.556753e-02 4.298931e+00 1.571938e-03 4.291631e+00 1.765547e-02 4.271299e+00 3.724696e-02 4.233726e+00 4.734669e-02 4.184288e+00 5.030912e-02 4.126529e+00 4.952161e-02 
4.241369e+00 3.165393e-02 4.216835e+00 4.009467e-02 4.202144e+00 3.836129e-02 4.148883e+00 2.943010e-02 4.139498e+00 1.812083e-02 4.161417e+00 -3.266860e-05 4.211785e+00 -3.213822e-02 4.325055e+00 -7.118213e-02 4.621771e+00 3.377343e-01 4.590504e+00 3.346187e-01 4.657626e+00 1.873427e-01 4.732309e+00 3.328141e-01 4.640551e+00 3.890197e-01 4.678893e+00 2.085864e-01 4.809284e+00 3.272639e-01 4.689619e+00 4.215981e-01 4.663024e+00 2.551536e-01 4.833119e+00 3.069863e-01 4.714602e+00 4.365412e-01 4.647724e+00 3.167678e-01 4.829941e+00 2.811025e-01 4.742381e+00 4.429698e-01 4.651643e+00 3.796260e-01 4.797714e+00 2.756735e-01 4.753856e+00 5.473822e-01 4.540537e+00 1.902777e-01 4.384906e+00 5.157510e-02 4.359090e+00 2.930569e-02 4.346707e+00 3.033493e-02 4.327569e+00 3.218376e-02 4.301599e+00 3.181654e-02 4.271523e+00 3.077535e-02 
4.407400e+00 6.834790e-02 4.420580e+00 7.792244e-02 4.450621e+00 7.657610e-02 4.365481e+00 6.464471e-02 4.325537e+00 4.912619e-02 4.324974e+00 3.306794e-02 4.362534e+00 3.194805e-02 4.450789e+00 8.837686e-02 4.625352e+00 2.472830e-01 4.649107e+00 3.001074e-01 4.696168e+00 2.688081e-01 4.739663e+00 2.936444e-01 4.701859e+00 3.263464e-01 4.719643e+00 2.876395e-01 4.788609e+00 2.917383e-01 4.739737e+00 3.299081e-01 4.722203e+00 3.081034e-01 4.804964e+00 2.901262e-01 4.760302e+00 3.333101e-01 4.722006e+00 3.344063e-01 4.805846e+00 2.988080e-01 4.777070e+00 3.490278e-01 4.722829e+00 3.758842e-01 4.775761e+00 3.363114e-01 4.751541e+00 3.357905e-01 4.585862e+00 2.016532e-01 4.475790e+00 1.042498e-01 4.436730e+00 6.654798e-02 4.424867e+00 5.822595e-02 4.418001e+00 5.907130e-02 4.411261e+00 6.160210e-02 4.406290e+00 6.437627e-02 
4.572134e+00 5.696095e-02 4.617586e+00 6.885750e-02 4.686304e+00 6.798660e-02 4.571604e+00 5.786953e-02 4.502438e+00 4.374253e-02 4.475190e+00 2.803302e-02 4.487664e+00 2.597693e-02 4.543709e+00 7.963202e-02 4.652274e+00 2.481286e-01 4.703277e+00 2.872177e-01 4.755716e+00 2.699856e-01 4.756197e+00 3.108787e-01 4.720039e+00 3.208669e-01 4.759538e+00 2.875725e-01 4.789952e+00 3.228290e-01 4.735226e+00 3.388106e-01 4.748319e+00 3.066888e-01 4.803739e+00 3.287586e-01 4.743446e+00 3.510756e-01 4.738987e+00 3.277794e-01 4.811883e+00 3.328541e-01 4.759495e+00 3.638507e-01 4.738652e+00 3.533348e-01 4.799545e+00 3.423180e-01 4.744747e+00 3.536746e-01 4.652938e+00 2.243073e-01 4.536043e+00 1.162790e-01 4.499252e+00 6.800067e-02 4.499779e+00 5.239440e-02 4.510259e+00 4.885297e-02 4.524167e+00 4.918381e-02 4.543173e+00 5.162722e-02 
4.725746e+00 8.889431e-02 4.802136e+00 1.023361e-01 4.907759e+00 1.018957e-01 4.768370e+00 9.273861e-02 4.673945e+00 7.968963e-02 4.621545e+00 6.563591e-02 4.607647e+00 6.022390e-02 4.636776e+00 8.143966e-02 4.733758e+00 2.893689e-01 4.755648e+00 2.926553e-01 4.794125e+00 2.634308e-01 4.794368e+00 3.160386e-01 4.754876e+00 3.138366e-01 4.785359e+00 2.684528e-01 4.817204e+00 3.169534e-01 4.764965e+00 3.237411e-01 4.770848e+00 2.767482e-01 4.828209e+00 3.134410e-01 4.775007e+00 3.311323e-01 4.763839e+00 2.944802e-01 4.835773e+00 3.145985e-01 4.791809e+00 3.456707e-01 4.765904e+00 3.212202e-01 4.826822e+00 3.131406e-01 4.790174e+00 3.358678e-01 4.685284e+00 2.071154e-01 4.584978e+00 1.193121e-01 4.564302e+00 8.317531e-02 4.576288e+00 7.239463e-02 4.599680e+00 7.189879e-02 4.630364e+00 7.533491e-02 4.670684e+00 8.089092e-02 
4.875165e+00 8.161212e-02 4.978318e+00 9.687391e-02 5.116116e+00 9.693153e-02 4.951387e+00 9.079288e-02 4.829718e+00 7.991470e-02 4.747349e+00 6.218697e-02 4.701870e+00 3.293494e-02 4.708601e+00 -3.695920e-03 4.813262e+00 3.267661e-01 4.803452e+00 2.730302e-01 4.841766e+00 2.033301e-01 4.828138e+00 3.340589e-01 4.757084e+00 3.160980e-01 4.802569e+00 2.070256e-01 4.842716e+00 3.463571e-01 4.751129e+00 3.548002e-01 4.763205e+00 2.235898e-01 4.851991e+00 3.402738e-01 4.755749e+00 3.775675e-01 4.742492e+00 2.544943e-01 4.862553e+00 3.238729e-01 4.779445e+00 3.933993e-01 4.750603e+00 2.880893e-01 4.872391e+00 2.906759e-01 4.827385e+00 4.762250e-01 4.715613e+00 2.061225e-01 4.605193e+00 9.231812e-02 4.614807e+00 6.753363e-02 4.648103e+00 6.327492e-02 4.688260e+00 6.406639e-02 4.736430e+00 6.714526e-02 4.796826e+00 7.263277e-02 
5.013782e+00 1.098278e-01 5.142252e+00 1.269385e-01 5.310618e+00 1.274419e-01 5.125400e+00 1.247303e-01 4.982429e+00 1.191042e-01 4.876575e+00 1.100652e-01 4.800722e+00 9.263304e-02 4.743165e+00 6.501195e-02 4.675997e+00 -1.257448e-02 4.628469e+00 -1.959847e-02 4.598599e+00 -2.864328e-02 4.600492e+00 -1.139087e-02 4.583188e+00 9.617293e-03 4.563644e+00 -2.934397e-03 4.574626e+00 1.705860e-02 4.559787e+00 3.734025e-02 4.543057e+00 1.886471e-02 4.566070e+00 3.780455e-02 4.556245e+00 6.208043e-02 4.539146e+00 4.469940e-02 4.571981e+00 5.915612e-02 4.572007e+00 9.171893e-02 4.557778e+00 7.740249e-02 4.601611e+00 8.165308e-02 4.641370e+00 1.661296e-01 4.596009e+00 7.580005e-02 4.622157e+00 6.114348e-02 4.673050e+00 6.857392e-02 4.721364e+00 7.621727e-02 4.773389e+00 8.275956e-02 4.835746e+00 8.965087e-02 4.913896e+00 9.821318e-02 
5.146212e+00 1.054717e-01 5.296765e+00 1.236814e-01 5.491805e+00 1.246594e-01 5.285790e+00 1.261377e-01 5.119164e+00 1.291378e-01 4.980887e+00 1.407133e-01 4.845151e+00 1.644912e-01 4.641550e+00 1.720522e-01 4.218359e+00 -6.602248e-01 4.121360e+00 -5.982504e-01 3.933088e+00 -4.712570e-01 3.904425e+00 -7.637409e-01 4.027177e+00 -7.207259e-01 3.876919e+00 -4.788447e-01 3.752396e+00 -7.707307e-01 3.943472e+00 -7.814289e-01 3.896875e+00 -4.916235e-01 3.683810e+00 -7.240757e-01 3.900742e+00 -7.958245e-01 3.933774e+00 -5.286367e-01 3.676057e+00 -6.546261e-01 3.885153e+00 -7.933289e-01 3.980607e+00 -5.739260e-01 3.759544e+00 -5.720167e-01 3.929083e+00 -9.398547e-01 4.276421e+00 -3.119423e-01 4.629146e+00 -2.835319e-02 4.736178e+00 4.937225e-02 4.795191e+00 7.087648e-02 4.857007e+00 7.899996e-02 4.932574e+00 8.525492e-02 5.027086e+00 9.338820e-02 
5.267992e+00 1.302853e-01 5.439241e+00 1.498180e-01 5.659409e+00 1.512034e-01 5.436477e+00 1.543308e-01 5.252352e+00 1.585728e-01 5.095698e+00 1.705905e-01 4.944183e+00 1.939329e-01 4.751258e+00 1.991743e-01 4.462607e+00 -3.205843e-01 4.323364e+00 -3.135200e-01 4.163343e+00 -2.547199e-01 4.126858e+00 -4.836376e-01 4.188343e+00 -4.801972e-01 4.063869e+00 -3.263298e-01 3.971503e+00 -5.579665e-01 4.103651e+00 -5.814839e-01 4.059378e+00 -3.774427e-01 3.900327e+00 -5.685277e-01 4.066434e+00 -6.328372e-01 4.088573e+00 -4.351319e-01 3.889359e+00 -5.496738e-01 4.059333e+00 -6.681847e-01 4.138720e+00 -5.006598e-01 3.961628e+00 -5.143808e-01 4.100219e+00 -8.106116e-01 4.390092e+00 -2.931338e-01 4.695449e+00 -2.855162e-02 4.798112e+00 5.466408e-02 4.863091e+00 8.249866e-02 4.934249e+00 9.522428e-02 5.021817e+00 1.049173e-01 5.131144e+00 1.158372e-01 
5.382147e+00 1.275029e-01 5.571638e+00 1.464579e-01 5.813541e+00 1.482359e-01 5.575926e+00 1.501886e-01 5.377948e+00 1.485727e-01 5.214056e+00 1.416516e-01 5.080926e+00 1.211539e-01 4.994247e+00 7.833919e-02 5.023787e+00 3.528068e-01 4.927791e+00 2.844326e-01 4.909082e+00 2.102796e-01 4.872652e+00 2.982574e-01 4.786525e+00 2.680359e-01 4.791386e+00 1.677788e-01 4.814168e+00 2.605036e-01 4.736336e+00 2.596348e-01 4.727323e+00 1.502702e-01 4.791184e+00 2.217775e-01 4.727856e+00 2.453640e-01 4.711100e+00 1.476236e-01 4.797511e+00 1.789283e-01 4.758654e+00 2.231609e-01 4.746486e+00 1.437715e-01 4.839402e+00 1.370739e-01 4.850308e+00 2.962061e-01 4.793114e+00 1.056676e-01 4.789781e+00 6.887284e-02 4.851083e+00 7.882296e-02 4.923008e+00 8.909703e-02 5.005818e+00 9.639432e-02 5.105964e+00 1.036802e-01 5.229340e+00 1.134331e-01 
5.485868e+00 1.490536e-01 5.692137e+00 1.686900e-01 5.954317e+00 1.708264e-01 5.704704e+00 1.736762e-01 5.495744e+00 1.718667e-01 5.323715e+00 1.622112e-01 5.189978e+00 1.349377e-01 5.114210e+00 8.677736e-02 5.125122e+00 3.559951e-01 5.061454e+00 3.045128e-01 5.040839e+00 2.443205e-01 4.988662e+00 3.484564e-01 4.904085e+00 3.195917e-01 4.920171e+00 2.212860e-01 4.932341e+00 3.375735e-01 4.847376e+00 3.336789e-01 4.851367e+00 2.131771e-01 4.915123e+00 3.129797e-01 4.835250e+00 3.365963e-01 4.828460e+00 2.210570e-01 4.926677e+00 2.801676e-01 4.864304e+00 3.340982e-01 4.855556e+00 2.342504e-01 4.967406e+00 2.400257e-01 4.945990e+00 4.126137e-01 4.900904e+00 1.907880e-01 4.851878e+00 1.041454e-01 4.905431e+00 9.711540e-02 4.981967e+00 1.040462e-01 5.072829e+00 1.122412e-01 5.183099e+00 1.214766e-01 5.318674e+00 1.332501e-01 
5.581093e+00 1.474474e-01 5.801981e+00 1.659883e-01 6.081512e+00 1.684508e-01 5.822100e+00 1.713293e-01 5.604189e+00 1.704678e-01 5.425923e+00 1.670746e-01 5.288084e+00 1.647993e-01 5.195620e+00 1.780590e-01 5.150530e+00 2.681316e-01 5.091862e+00 2.804902e-01 5.051846e+00 2.729812e-01 5.001299e+00 3.024150e-01 4.941346e+00 3.018671e-01 4.928626e+00 2.775676e-01 4.919347e+00 3.051164e-01 4.872546e+00 3.079847e-01 4.865767e+00 2.781102e-01 4.886874e+00 2.981264e-01 4.852472e+00 3.058316e-01 4.849974e+00 2.774806e-01 4.893673e+00 2.850093e-01 4.876003e+00 2.989067e-01 4.879732e+00 2.756531e-01 4.935451e+00 2.696959e-01 4.939455e+00 2.912611e-01 4.927443e+00 2.048573e-01 4.918605e+00 1.445170e-01 4.963772e+00 1.216036e-01 5.038758e+00 1.157590e-01 5.135242e+00 1.170335e-01 5.254545e+00 1.226704e-01 5.401164e+00 1.325825e-01 
5.665992e+00 1.661950e-01 5.900092e+00 1.850478e-01 6.195507e+00 1.878090e-01 5.927440e+00 1.913590e-01 5.701294e+00 1.908821e-01 5.515050e+00 1.880214e-01 5.368358e+00 1.883173e-01 5.260729e+00 2.075686e-01 5.186339e+00 2.660924e-01 5.132951e+00 2.803466e-01 5.086011e+00 2.810970e-01 5.024531e+00 2.969443e-01 4.971971e+00 2.927143e-01 4.954765e+00 2.803732e-01 4.931008e+00 2.950272e-01 4.894306e+00 2.911944e-01 4.890152e+00 2.744630e-01 4.894687e+00 2.862142e-01 4.869916e+00 2.849265e-01 4.874589e+00 2.681559e-01 4.901766e+00 2.744440e-01 4.890775e+00 2.766522e-01 4.903922e+00 2.612329e-01 4.946154e+00 2.600891e-01 4.950361e+00 2.606694e-01 4.961846e+00 2.060936e-01 4.964565e+00 1.580487e-01 5.011098e+00 1.359567e-01 5.089228e+00 1.298673e-01 5.191486e+00 1.318193e-01 5.318587e+00 1.387526e-01 5.474770e+00 1.501071e-01 
5.741870e+00 1.654060e-01 5.987100e+00 1.834094e-01 6.295840e+00 1.864484e-01 6.020282e+00 1.913234e-01 5.786533e+00 1.937418e-01 5.592324e+00 1.965311e-01 5.435882e+00 2.043998e-01 5.314379e+00 2.234641e-01 5.223816e+00 2.523895e-01 5.153631e+00 2.694023e-01 5.095224e+00 2.773954e-01 5.037261e+00 2.857008e-01 4.986992e+00 2.887419e-01 4.957053e+00 2.873895e-01 4.930784e+00 2.905111e-01 4.901777e+00 2.900912e-01 4.889854e+00 2.860353e-01 4.886781e+00 2.862950e-01 4.873865e+00 2.841952e-01 4.875479e+00 2.787816e-01 4.891267e+00 2.761217e-01 4.893911e+00 2.724396e-01 4.907690e+00 2.643015e-01 4.938486e+00 2.537182e-01 4.957641e+00 2.353859e-01 4.977395e+00 2.020441e-01 5.002175e+00 1.694584e-01 5.055246e+00 1.484938e-01 5.136215e+00 1.385424e-01 5.242933e+00 1.365617e-01 5.376586e+00 1.406681e-01 5.541004e+00 1.502706e-01 
5.807449e+00 1.817495e-01 6.062522e+00 1.999551e-01 6.383079e+00 2.032312e-01 6.101073e+00 2.086896e-01 5.860829e+00 2.115724e-01 5.659541e+00 2.146358e-01 5.494851e+00 2.221065e-01 5.363377e+00 2.380397e-01 5.262179e+00 2.592006e-01 5.186006e+00 2.726629e-01 5.121873e+00 2.793992e-01 5.060109e+00 2.841734e-01 5.009380e+00 2.847517e-01 4.975826e+00 2.829774e-01 4.945718e+00 2.831172e-01 4.918429e+00 2.806180e-01 4.905582e+00 2.766446e-01 4.898451e+00 2.750194e-01 4.888171e+00 2.714892e-01 4.890636e+00 2.666335e-01 4.902177e+00 2.633706e-01 4.907450e+00 2.586031e-01 4.923583e+00 2.511806e-01 4.951294e+00 2.416517e-01 4.973282e+00 2.255207e-01 5.001466e+00 1.998511e-01 5.034442e+00 1.745667e-01 5.091707e+00 1.575725e-01 5.176180e+00 1.497317e-01 5.287345e+00 1.492822e-01 5.426738e+00 1.547760e-01 5.598213e+00 1.656363e-01 
5.863609e+00 1.811296e-01 6.126537e+00 1.988026e-01 6.456599e+00 2.022968e-01 6.168669e+00 2.090808e-01 5.922171e+00 2.140098e-01 5.713951e+00 2.195149e-01 5.541420e+00 2.281565e-01 5.401299e+00 2.411166e-01 5.290386e+00 2.554313e-01 5.202484e+00 2.668316e-01 5.130314e+00 2.741835e-01 5.067472e+00 2.791184e-01 5.015274e+00 2.820876e-01 4.976341e+00 2.829375e-01 4.944832e+00 2.828231e-01 4.918519e+00 2.819306e-01 4.902334e+00 2.800924e-01 4.893174e+00 2.774120e-01 4.885866e+00 2.741019e-01 4.886984e+00 2.701556e-01 4.896067e+00 2.649112e-01 4.905781e+00 2.583087e-01 4.922974e+00 2.496804e-01 4.949767e+00 2.368633e-01 4.978613e+00 2.188305e-01 5.012843e+00 1.979796e-01 5.057020e+00 1.781412e-01 5.121536e+00 1.631501e-01 5.210536e+00 1.545806e-01 5.325901e+00 1.523787e-01 5.470214e+00 1.561473e-01 5.647562e+00 1.657375e-01 
5.909515e+00 1.953401e-01 6.179071e+00 2.132198e-01 6.517101e+00 2.168835e-01 6.224714e+00 2.240494e-01 5.973667e+00 2.291205e-01 5.760433e+00 2.342416e-01 5.582341e+00 2.415118e-01 5.436276e+00 2.516324e-01 5.319414e+00 2.623320e-01 5.226600e+00 2.706268e-01 5.150363e+00 2.756091e-01 5.084931e+00 2.782379e-01 5.031288e+00 2.790121e-01 4.990289e+00 2.780979e-01 4.957132e+00 2.763096e-01 4.930741e+00 2.738961e-01 4.913798e+00 2.708441e-01 4.903355e+00 2.672302e-01 4.896605e+00 2.632439e-01 4.897741e+00 2.588238e-01 4.905683e+00 2.534590e-01 4.916280e+00 2.470786e-01 4.934380e+00 2.390727e-01 4.960876e+00 2.279439e-01 4.991611e+00 2.132213e-01 5.030055e+00 1.963968e-01 5.078992e+00 1.808094e-01 5.147071e+00 1.692832e-01 5.239049e+00 1.632609e-01 5.357626e+00 1.629784e-01 5.505814e+00 1.682734e-01 5.687868e+00 1.790817e-01 
5.945667e+00 1.942215e-01 6.219997e+00 2.117717e-01 6.563843e+00 2.155820e-01 6.267253e+00 2.235885e-01 6.011752e+00 2.296663e-01 5.793654e+00 2.355728e-01 5.610325e+00 2.426440e-01 5.458672e+00 2.510584e-01 5.335393e+00 2.594466e-01 5.235578e+00 2.664874e-01 5.154015e+00 2.714779e-01 5.086215e+00 2.747529e-01 5.030755e+00 2.767074e-01 4.987178e+00 2.771866e-01 4.952795e+00 2.764725e-01 4.926053e+00 2.750992e-01 4.907719e+00 2.729128e-01 4.896447e+00 2.696674e-01 4.890415e+00 2.657962e-01 4.891265e+00 2.611416e-01 4.898882e+00 2.550250e-01 4.911339e+00 2.475216e-01 4.930810e+00 2.382028e-01 4.958531e+00 2.260051e-01 4.993018e+00 2.112998e-01 5.035977e+00 1.960598e-01 5.091216e+00 1.822846e-01 5.164604e+00 1.716734e-01 5.260545e+00 1.654613e-01 5.382478e+00 1.643076e-01 5.534055e+00 1.685527e-01 5.719839e+00 1.784855e-01 
5.971649e+00 2.065581e-01 6.249510e+00 2.243489e-01 6.597619e+00 2.282537e-01 6.298647e+00 2.363806e-01 6.040748e+00 2.422768e-01 5.820000e+00 2.474632e-01 5.633768e+00 2.530882e-01 5.479060e+00 2.593295e-01 5.352684e+00 2.652424e-01 5.250122e+00 2.698282e-01 5.166307e+00 2.725984e-01 5.097017e+00 2.738169e-01 5.040629e+00 2.737930e-01 4.996112e+00 2.725223e-01 4.961040e+00 2.703226e-01 4.934118e+00 2.676012e-01 4.915452e+00 2.642760e-01 4.903740e+00 2.602658e-01 4.897777e+00 2.558669e-01 4.898548e+00 2.508959e-01 4.905788e+00 2.449079e-01 4.918465e+00 2.379392e-01 4.938246e+00 2.295953e-01 4.966072e+00 2.192116e-01 5.001529e+00 2.071978e-01 5.046540e+00 1.949120e-01 5.104212e+00 1.841442e-01 5.179688e+00 1.763022e-01 5.277394e+00 1.724362e-01 5.401081e+00 1.731909e-01 5.554670e+00 1.789543e-01 5.742887e+00 1.900455e-01 
5.987625e+00 2.044344e-01 6.267285e+00 2.219999e-01 6.617613e+00 2.259730e-01 6.316413e+00 2.344606e-01 6.056106e+00 2.406941e-01 5.832752e+00 2.460166e-01 5.643721e+00 2.513090e-01 5.485933e+00 2.567209e-01 5.355973e+00 2.617581e-01 5.249669e+00 2.659192e-01 5.162822e+00 2.689038e-01 5.091745e+00 2.707878e-01 5.034117e+00 2.717021e-01 4.988366e+00 2.715655e-01 4.952559e+00 2.704810e-01 4.925290e+00 2.686924e-01 4.906081e+00 2.661139e-01 4.894050e+00 2.626242e-01 4.888320e+00 2.583775e-01 4.889186e+00 2.532188e-01 4.896650e+00 2.468022e-01 4.910357e+00 2.391119e-01 4.931291e+00 2.299539e-01 4.960436e+00 2.190775e-01 4.998178e+00 2.070703e-01 5.046146e+00 1.952356e-01 5.107430e+00 1.849020e-01 5.186180e+00 1.771623e-01 5.286439e+00 1.729513e-01 5.412109e+00 1.730228e-01 5.567390e+00 1.779841e-01 5.757217e+00 1.883722e-01 
5.993532e+00 2.151992e-01 6.273694e+00 2.330352e-01 6.624666e+00 2.370233e-01 6.323255e+00 2.453738e-01 6.062790e+00 2.511927e-01 5.839165e+00 2.556671e-01 5.649714e+00 2.596230e-01 5.491367e+00 2.632800e-01 5.360741e+00 2.663503e-01 5.253829e+00 2.684851e-01 5.166540e+00 2.695074e-01 5.095303e+00 2.695199e-01 5.037722e+00 2.686496e-01 4.992022e+00 2.669015e-01 4.956315e+00 2.644247e-01 4.929247e+00 2.614222e-01 4.910131e+00 2.578609e-01 4.898083e+00 2.537054e-01 4.892393e+00 2.490619e-01 4.893173e+00 2.437950e-01 4.900388e+00 2.376756e-01 4.913946e+00 2.306860e-01 4.934722e+00 2.226712e-01 4.963652e+00 2.135184e-01 5.001487e+00 2.037358e-01 5.049982e+00 1.943143e-01 5.111937e+00 1.864076e-01 5.191181e+00 1.809737e-01 5.291688e+00 1.788272e-01 5.417454e+00 1.806513e-01 5.572815e+00 1.870236e-01 5.762808e+00 1.984644e-01 
5.989290e+00 2.117224e-01 6.268301e+00 2.293719e-01 6.617931e+00 2.333477e-01 6.316439e+00 2.416936e-01 6.055742e+00 2.474815e-01 5.831809e+00 2.518776e-01 5.641917e+00 2.556266e-01 5.482882e+00 2.589892e-01 5.351217e+00 2.618824e-01 5.243112e+00 2.641485e-01 5.154832e+00 2.656832e-01 5.083046e+00 2.665010e-01 5.025176e+00 2.666235e-01 4.979233e+00 2.659968e-01 4.943431e+00 2.646356e-01 4.916387e+00 2.626017e-01 4.897235e+00 2.598316e-01 4.885208e+00 2.562487e-01 4.879721e+00 2.518617e-01 4.880713e+00 2.465595e-01 4.888233e+00 2.401826e-01 4.902409e+00 2.327164e-01 4.923939e+00 2.241471e-01 4.953752e+00 2.145726e-01 4.992844e+00 2.045420e-01 5.042917e+00 1.949676e-01 5.106615e+00 1.868187e-01 5.187321e+00 1.809571e-01 5.288740e+00 1.781755e-01 5.414836e+00 1.792137e-01 5.570026e+00 1.847649e-01 5.759452e+00 1.954850e-01 
5.975061e+00 2.212527e-01 6.251563e+00 2.391880e-01 6.598255e+00 2.430975e-01 6.298798e+00 2.510706e-01 6.040234e+00 2.562764e-01 5.818409e+00 2.597720e-01 5.630506e+00 2.622863e-01 5.473281e+00 2.641369e-01 5.343225e+00 2.653478e-01 5.236572e+00 2.658550e-01 5.149634e+00 2.656320e-01 5.079126e+00 2.647379e-01 5.022448e+00 2.632281e-01 4.977540e+00 2.611107e-01 4.942619e+00 2.584453e-01 4.916310e+00 2.553061e-01 4.897683e+00 2.516741e-01 4.885963e+00 2.475229e-01 4.880612e+00 2.428631e-01 4.881519e+00 2.376113e-01 4.888725e+00 2.316621e-01 4.902440e+00 2.250079e-01 4.923352e+00 2.176489e-01 4.952398e+00 2.097033e-01 4.990707e+00 2.016314e-01 5.040033e+00 1.941656e-01 5.102898e+00 1.881356e-01 5.182529e+00 1.843009e-01 5.282562e+00 1.833633e-01 5.406974e+00 1.859884e-01 5.560232e+00 1.928152e-01 5.747526e+00 2.044602e-01 