# vtk DataFile Version 2.0
Comment goes here
ASCII

DATASET STRUCTURED_POINTS
FIELD FieldData 1
TIME 1 1 double
0.03000000
DIMENSIONS    64   64   1

ORIGIN    0.000   0.000   0.000
SPACING   0.03125 0.03125   1.000

POINT_DATA   4096
SCALARS uX double
LOOKUP_TABLE default

4.243879e-01 -8.687482e-01 3.913787e-01 -8.504954e-01 2.996838e-01 -8.281181e-01 3.548414e-01 -8.128514e-01 3.897832e-01 -7.875002e-01 3.815442e-01 -7.163805e-01 3.090479e-01 -5.873928e-01 1.824961e-01 -4.220566e-01 2.953623e-02 -2.459249e-01 -1.246564e-01 -8.187423e-02 -2.647074e-01 6.527628e-02 -3.898500e-01 1.920349e-01 -4.898787e-01 2.789447e-01 -5.475021e-01 3.186173e-01 -5.625964e-01 3.157643e-01 -5.330574e-01 2.584699e-01 -4.468919e-01 1.447448e-01 -3.179736e-01 1.228209e-02 -2.004180e-01 -7.740416e-02 -1.486131e-01 -9.323314e-02 -1.795636e-01 -2.923399e-02 -2.799920e-01 8.880794e-02 -4.170283e-01 2.204338e-01 -5.511380e-01 3.300096e-01 -6.477901e-01 3.841197e-01 -6.823321e-01 3.652986e-01 -6.444088e-01 2.731845e-01 -5.303273e-01 1.049453e-01 -3.442452e-01 -1.290557e-01 -1.114572e-01 -3.977758e-01 1.354039e-01 -6.711401e-01 3.629004e-01 -9.026829e-01 
-2.943708e-01 3.007608e-01 -2.839969e-01 3.014968e-01 -1.758914e-01 2.786520e-01 -2.596467e-01 2.586795e-01 -3.127238e-01 2.325296e-01 -3.304047e-01 1.795607e-01 -3.058238e-01 9.292728e-02 -2.508621e-01 -1.245211e-02 -1.815648e-01 -1.212373e-01 -1.091233e-01 -2.199665e-01 -4.368491e-02 -3.072897e-01 1.463470e-02 -3.810099e-01 6.375707e-02 -4.319386e-01 8.952054e-02 -4.560498e-01 9.435606e-02 -4.568987e-01 7.883093e-02 -4.294553e-01 3.218448e-02 -3.682812e-01 -4.032421e-02 -2.929438e-01 -1.117943e-01 -2.371469e-01 -1.466746e-01 -2.188159e-01 -1.406966e-01 -2.405685e-01 -9.813738e-02 -2.875269e-01 -3.702061e-02 -3.381060e-01 2.258020e-02 -3.738242e-01 6.324550e-02 -3.779559e-01 7.644755e-02 -3.458604e-01 5.651871e-02 -2.803348e-01 -1.191301e-04 -1.796620e-01 -9.058267e-02 -4.977022e-02 -1.978928e-01 9.322228e-02 -3.025725e-01 2.330371e-01 -3.841114e-01 3.353811e-01 
6.569685e-01 4.058547e-01 4.955784e-01 3.820970e-01 3.728940e-01 3.711538e-01 5.553183e-01 3.566935e-01 6.917365e-01 3.347039e-01 8.191751e-01 2.848247e-01 9.675561e-01 2.028585e-01 1.137896e+00 1.065222e-01 1.313758e+00 8.296113e-03 1.470371e+00 -7.872809e-02 1.603714e+00 -1.585448e-01 1.719048e+00 -2.291651e-01 1.807396e+00 -2.742909e-01 1.861906e+00 -2.939876e-01 1.886746e+00 -2.927259e-01 1.877116e+00 -2.547031e-01 1.825706e+00 -1.761151e-01 1.741609e+00 -8.337142e-02 1.657080e+00 -1.609540e-02 1.614033e+00 1.491473e-03 1.625807e+00 -3.802676e-02 1.677473e+00 -1.125726e-01 1.745755e+00 -1.969524e-01 1.807083e+00 -2.740161e-01 1.834479e+00 -3.202549e-01 1.809606e+00 -3.206004e-01 1.736279e+00 -2.715223e-01 1.614805e+00 -1.694722e-01 1.443291e+00 -2.231656e-02 1.233486e+00 1.469247e-01 1.000903e+00 3.193435e-01 7.597782e-01 4.628998e-01 
1.565117e+00 -1.085840e-01 1.164583e+00 -1.397495e-01 4.995536e-01 -1.236421e-01 1.187126e+00 -1.165216e-01 1.617802e+00 -1.098343e-01 1.914559e+00 -8.746009e-02 2.125968e+00 -4.123908e-02 2.287265e+00 2.119591e-02 2.419622e+00 8.255655e-02 2.508299e+00 1.279336e-01 2.578091e+00 1.565603e-01 2.629715e+00 1.811404e-01 2.657535e+00 2.013359e-01 2.686965e+00 2.069652e-01 2.718071e+00 2.059833e-01 2.737284e+00 2.015838e-01 2.766925e+00 1.761229e-01 2.813709e+00 1.386023e-01 2.847700e+00 1.187676e-01 2.857051e+00 1.161171e-01 2.850430e+00 1.266795e-01 2.813829e+00 1.534237e-01 2.757717e+00 1.776106e-01 2.698531e+00 1.820333e-01 2.628303e+00 1.650170e-01 2.539975e+00 1.270073e-01 2.452154e+00 8.595499e-02 2.374027e+00 4.204435e-02 2.300051e+00 -6.653567e-03 2.213167e+00 -5.778715e-02 2.095650e+00 -1.121083e-01 1.929324e+00 -1.559692e-01 
1.649807e+00 -6.285579e-02 1.309405e+00 -8.371791e-02 7.535340e-01 -7.665900e-02 1.319116e+00 -7.092480e-02 1.691447e+00 -5.891334e-02 1.958201e+00 -3.739574e-02 2.160069e+00 -1.017979e-03 2.325030e+00 4.889063e-02 2.470593e+00 9.389860e-02 2.563896e+00 1.233740e-01 2.639177e+00 1.337780e-01 2.699287e+00 1.424652e-01 2.731378e+00 1.554214e-01 2.761624e+00 1.575565e-01 2.795308e+00 1.567055e-01 2.808783e+00 1.640662e-01 2.822828e+00 1.580932e-01 2.851430e+00 1.402148e-01 2.864239e+00 1.376522e-01 2.862369e+00 1.394807e-01 2.863031e+00 1.374237e-01 2.843692e+00 1.482614e-01 2.806787e+00 1.564970e-01 2.771152e+00 1.439462e-01 2.718116e+00 1.168187e-01 2.630239e+00 7.589117e-02 2.538647e+00 4.202146e-02 2.451192e+00 1.607922e-02 2.360433e+00 -6.014181e-03 2.253745e+00 -2.577663e-02 2.119094e+00 -4.715020e-02 1.945934e+00 -7.055793e-02 
1.700481e+00 -1.173028e-01 1.387713e+00 -1.217442e-01 9.869576e-01 -1.229290e-01 1.390597e+00 -1.094757e-01 1.721449e+00 -9.777267e-02 1.972302e+00 -7.775502e-02 2.163847e+00 -3.997479e-02 2.322395e+00 2.348108e-02 2.478757e+00 9.312625e-02 2.551697e+00 1.383707e-01 2.616531e+00 1.502523e-01 2.676704e+00 1.686322e-01 2.694693e+00 1.955242e-01 2.719327e+00 1.921543e-01 2.763949e+00 1.840570e-01 2.774908e+00 1.930681e-01 2.790502e+00 1.751622e-01 2.836861e+00 1.449446e-01 2.850050e+00 1.479632e-01 2.844498e+00 1.474450e-01 2.854994e+00 1.393856e-01 2.831214e+00 1.656546e-01 2.779290e+00 1.848142e-01 2.744458e+00 1.728738e-01 2.691007e+00 1.569814e-01 2.583503e+00 1.006159e-01 2.488735e+00 5.737813e-02 2.412003e+00 2.232765e-02 2.336361e+00 -1.219277e-02 2.245945e+00 -4.794739e-02 2.125475e+00 -8.302383e-02 1.955647e+00 -1.112987e-01 
1.810388e+00 -5.464975e-02 1.550216e+00 -6.680069e-02 1.220740e+00 -6.817859e-02 1.538718e+00 -6.296579e-02 1.810527e+00 -5.707718e-02 2.025449e+00 -4.550500e-02 2.198419e+00 -1.848454e-02 2.354373e+00 4.411332e-02 2.538074e+00 1.098829e-01 2.598491e+00 1.464754e-01 2.662673e+00 1.322859e-01 2.738914e+00 1.346588e-01 2.751021e+00 1.668809e-01 2.767625e+00 1.552857e-01 2.825253e+00 1.388924e-01 2.826829e+00 1.676915e-01 2.820706e+00 1.604953e-01 2.869465e+00 1.282202e-01 2.872726e+00 1.517792e-01 2.848072e+00 1.582510e-01 2.872674e+00 1.304418e-01 2.865088e+00 1.578569e-01 2.813351e+00 1.777656e-01 2.801574e+00 1.497788e-01 2.772832e+00 1.297543e-01 2.641224e+00 5.781969e-02 2.544046e+00 1.817501e-02 2.470031e+00 -1.402190e-03 2.393685e+00 -1.454158e-02 2.301095e+00 -2.661863e-02 2.182461e+00 -3.976375e-02 2.026255e+00 -5.409789e-02 
1.892175e+00 -9.153608e-02 1.679557e+00 -9.865140e-02 1.436053e+00 -1.000969e-01 1.662016e+00 -9.540948e-02 1.880232e+00 -9.059878e-02 2.062135e+00 -8.349193e-02 2.208719e+00 -6.489046e-02 2.343626e+00 6.619105e-03 2.597493e+00 1.371899e-01 2.588678e+00 1.841043e-01 2.639591e+00 1.253140e-01 2.748275e+00 1.461310e-01 2.720232e+00 2.216080e-01 2.716356e+00 1.693843e-01 2.823474e+00 1.421309e-01 2.802666e+00 2.160037e-01 2.768797e+00 1.751346e-01 2.871221e+00 1.111859e-01 2.866747e+00 1.847185e-01 2.804640e+00 1.765403e-01 2.871042e+00 1.087201e-01 2.868627e+00 1.900163e-01 2.771436e+00 2.167426e-01 2.787416e+00 1.529016e-01 2.798452e+00 2.014518e-01 2.589585e+00 5.503441e-02 2.495619e+00 1.280943e-02 2.441437e+00 -6.067239e-03 2.383215e+00 -2.421741e-02 2.308016e+00 -4.492990e-02 2.207245e+00 -6.631797e-02 2.071598e+00 -8.442882e-02 
2.015689e+00 -4.559878e-02 1.843073e+00 -5.298256e-02 1.650611e+00 -5.439239e-02 1.820016e+00 -5.462925e-02 1.988798e+00 -5.757131e-02 2.132970e+00 -6.494132e-02 2.251172e+00 -7.218632e-02 2.372747e+00 -6.261559e-03 2.690101e+00 1.458182e-01 2.627154e+00 1.950458e-01 2.668345e+00 7.636427e-02 2.825075e+00 9.527057e-02 2.764333e+00 2.160035e-01 2.729260e+00 1.207155e-01 2.893611e+00 7.490773e-02 2.848867e+00 2.145542e-01 2.761992e+00 1.549149e-01 2.916020e+00 5.545164e-02 2.903191e+00 1.982885e-01 2.782932e+00 1.856389e-01 2.899144e+00 5.766535e-02 2.923630e+00 1.957249e-01 2.778485e+00 2.327074e-01 2.842322e+00 1.190578e-01 2.936464e+00 2.556495e-01 2.603300e+00 3.220747e-03 2.527992e+00 -2.960150e-02 2.493692e+00 -2.743450e-02 2.444573e+00 -2.594192e-02 2.375185e+00 -2.882258e-02 2.283322e+00 -3.497788e-02 2.164958e+00 -4.226749e-02 
2.113100e+00 -7.158619e-02 1.983448e+00 -7.717279e-02 1.848141e+00 -7.843888e-02 1.958153e+00 -7.927723e-02 2.080134e+00 -8.227494e-02 2.186633e+00 -9.412811e-02 2.258534e+00 -1.330795e-01 2.267128e+00 -2.422474e-01 2.072720e+00 -4.136993e-01 2.179515e+00 -4.628048e-01 2.191194e+00 -3.863733e-01 2.134955e+00 -3.922488e-01 2.222826e+00 -4.540405e-01 2.261256e+00 -3.963407e-01 2.187635e+00 -3.696681e-01 2.251229e+00 -4.451030e-01 2.309564e+00 -4.171134e-01 2.235523e+00 -3.684323e-01 2.271071e+00 -4.419990e-01 2.333055e+00 -4.315964e-01 2.260388e+00 -3.567989e-01 2.255842e+00 -4.062813e-01 2.315793e+00 -3.995795e-01 2.270313e+00 -3.030250e-01 2.256633e+00 -2.883984e-01 2.403664e+00 -1.252191e-01 2.477315e+00 -5.846070e-02 2.479370e+00 -3.659520e-02 2.448363e+00 -3.507234e-02 2.395834e+00 -4.297641e-02 2.323214e+00 -5.438724e-02 2.228975e+00 -6.505139e-02 
2.239976e+00 -3.516317e-02 2.141394e+00 -3.888678e-02 2.044135e+00 -4.004520e-02 2.114487e+00 -4.291665e-02 2.197511e+00 -4.987008e-02 2.265528e+00 -7.051905e-02 2.281476e+00 -1.467800e-01 2.149280e+00 -4.729642e-01 1.407320e+00 -9.829579e-01 1.680510e+00 -1.201311e+00 1.670047e+00 -9.434621e-01 1.347685e+00 -9.861840e-01 1.592847e+00 -1.309198e+00 1.743632e+00 -1.097923e+00 1.364751e+00 -9.621237e-01 1.530997e+00 -1.318567e+00 1.791037e+00 -1.206969e+00 1.418869e+00 -9.425048e-01 1.476731e+00 -1.293549e+00 1.793566e+00 -1.289430e+00 1.482782e+00 -9.392834e-01 1.405963e+00 -1.238650e+00 1.758617e+00 -1.319923e+00 1.579661e+00 -9.592144e-01 1.373813e+00 -1.084246e+00 2.260204e+00 -3.329771e-01 2.505703e+00 -1.180472e-01 2.538914e+00 -5.392562e-02 2.516750e+00 -3.384660e-02 2.471343e+00 -2.879295e-02 2.409229e+00 -2.968618e-02 2.331559e+00 -3.262394e-02 
2.342137e+00 -5.377964e-02 2.279240e+00 -5.681513e-02 2.224134e+00 -5.780304e-02 2.253458e+00 -6.014715e-02 2.301715e+00 -6.346723e-02 2.346814e+00 -7.212883e-02 2.364404e+00 -1.026160e-01 2.314697e+00 -2.254718e-01 2.060233e+00 -4.296038e-01 2.133495e+00 -5.281766e-01 2.122888e+00 -4.461597e-01 2.006951e+00 -4.778253e-01 2.104331e+00 -6.145614e-01 2.155456e+00 -5.370014e-01 2.009411e+00 -4.967758e-01 2.087424e+00 -6.496090e-01 2.187413e+00 -6.072406e-01 2.036006e+00 -5.124302e-01 2.072535e+00 -6.647054e-01 2.198181e+00 -6.613527e-01 2.060217e+00 -5.231325e-01 2.034251e+00 -6.532312e-01 2.178663e+00 -6.816423e-01 2.093140e+00 -5.190903e-01 2.012156e+00 -5.558996e-01 2.398746e+00 -2.074597e-01 2.529418e+00 -8.695194e-02 2.548792e+00 -4.766088e-02 2.533866e+00 -3.727821e-02 2.502468e+00 -3.827971e-02 2.458756e+00 -4.358172e-02 2.404321e+00 -4.943018e-02 
2.466288e+00 -2.377638e-02 2.428018e+00 -2.469428e-02 2.402033e+00 -2.555683e-02 2.404633e+00 -2.898542e-02 2.428737e+00 -3.431147e-02 2.460242e+00 -4.249188e-02 2.493890e+00 -4.672406e-02 2.554801e+00 2.302044e-02 2.856713e+00 1.895612e-01 2.745733e+00 2.331127e-01 2.761637e+00 1.041010e-01 2.904458e+00 1.146270e-01 2.824699e+00 2.263457e-01 2.776602e+00 1.254859e-01 2.934409e+00 7.361361e-02 2.882811e+00 2.076956e-01 2.789161e+00 1.483925e-01 2.937441e+00 4.693813e-02 2.923306e+00 1.856697e-01 2.803857e+00 1.737133e-01 2.919940e+00 4.274744e-02 2.951353e+00 1.728882e-01 2.818961e+00 2.081983e-01 2.890740e+00 9.663508e-02 2.992435e+00 2.270900e-01 2.685465e+00 -1.591932e-02 2.633220e+00 -4.198475e-02 2.623529e+00 -3.400586e-02 2.607467e+00 -2.647747e-02 2.581900e+00 -2.296905e-02 2.548289e+00 -2.230198e-02 2.508594e+00 -2.293910e-02 
2.566710e+00 -3.723632e-02 2.557793e+00 -3.792098e-02 2.564697e+00 -3.859568e-02 2.537249e+00 -4.160378e-02 2.534678e+00 -4.454240e-02 2.546904e+00 -4.697589e-02 2.571531e+00 -4.175943e-02 2.627673e+00 1.603318e-02 2.842426e+00 1.501938e-01 2.782251e+00 1.926871e-01 2.797936e+00 1.150106e-01 2.892039e+00 1.318079e-01 2.832053e+00 2.134401e-01 2.806431e+00 1.448543e-01 2.917246e+00 1.144498e-01 2.873634e+00 2.095469e-01 2.816056e+00 1.647263e-01 2.926205e+00 9.722724e-02 2.907581e+00 1.973790e-01 2.828204e+00 1.860616e-01 2.918397e+00 9.780443e-02 2.931190e+00 1.963792e-01 2.835421e+00 2.214983e-01 2.889060e+00 1.352444e-01 2.943547e+00 2.126984e-01 2.721776e+00 2.205490e-02 2.655153e+00 -2.013022e-02 2.641308e+00 -2.629439e-02 2.631861e+00 -2.724958e-02 2.619032e+00 -2.912522e-02 2.602410e+00 -3.211686e-02 2.583728e+00 -3.513882e-02 
2.684431e+00 -1.187413e-02 2.695192e+00 -1.058637e-02 2.724832e+00 -1.111836e-02 2.678564e+00 -1.416050e-02 2.658764e+00 -1.693025e-02 2.658806e+00 -1.623604e-02 2.678667e+00 -7.552427e-04 2.731124e+00 5.630175e-02 2.845861e+00 1.211613e-01 2.844527e+00 1.562570e-01 2.861990e+00 1.343847e-01 2.905141e+00 1.320694e-01 2.884042e+00 1.642594e-01 2.877376e+00 1.470235e-01 2.924440e+00 1.255125e-01 2.908852e+00 1.594738e-01 2.886988e+00 1.546555e-01 2.932813e+00 1.218003e-01 2.927429e+00 1.552451e-01 2.896167e+00 1.648584e-01 2.934164e+00 1.291648e-01 2.941083e+00 1.607274e-01 2.901368e+00 1.841728e-01 2.918683e+00 1.504132e-01 2.922167e+00 1.298372e-01 2.804139e+00 4.410060e-02 2.739992e+00 1.685801e-03 2.716803e+00 -1.171686e-02 2.706640e+00 -1.421698e-02 2.698814e+00 -1.387562e-02 2.691174e+00 -1.322916e-02 2.685137e+00 -1.263992e-02 
2.779249e+00 -2.156719e-02 2.814234e+00 -2.024732e-02 2.870306e+00 -2.058308e-02 2.800158e+00 -2.373795e-02 2.757575e+00 -2.602366e-02 2.737450e+00 -2.440091e-02 2.739421e+00 -8.085952e-03 2.772769e+00 4.666825e-02 2.863186e+00 1.214452e-01 2.858342e+00 1.539975e-01 2.874281e+00 1.332018e-01 2.903409e+00 1.407701e-01 2.875217e+00 1.702191e-01 2.873853e+00 1.496590e-01 2.913199e+00 1.380734e-01 2.890123e+00 1.691626e-01 2.876637e+00 1.569299e-01 2.920297e+00 1.329201e-01 2.906663e+00 1.649559e-01 2.883838e+00 1.654660e-01 2.923641e+00 1.373949e-01 2.921578e+00 1.697921e-01 2.888800e+00 1.824843e-01 2.911901e+00 1.506802e-01 2.910534e+00 1.405978e-01 2.810400e+00 5.325912e-02 2.749467e+00 7.354125e-03 2.732920e+00 -9.836046e-03 2.732844e+00 -1.580377e-02 2.737922e+00 -1.847248e-02 2.745930e+00 -2.026174e-02 2.758438e+00 -2.140824e-02 
2.888165e+00 2.055066e-04 2.938897e+00 3.288791e-03 3.012913e+00 3.107666e-03 2.928409e+00 2.836393e-04 2.871774e+00 -2.141187e-03 2.838608e+00 -1.405455e-03 2.827715e+00 1.106017e-02 2.845045e+00 5.409578e-02 2.926396e+00 1.296155e-01 2.908557e+00 1.519718e-01 2.920987e+00 1.246887e-01 2.947786e+00 1.347985e-01 2.917769e+00 1.610331e-01 2.913727e+00 1.358796e-01 2.950721e+00 1.275245e-01 2.927311e+00 1.586458e-01 2.910613e+00 1.436436e-01 2.952290e+00 1.224035e-01 2.939979e+00 1.560017e-01 2.915151e+00 1.535203e-01 2.954269e+00 1.260231e-01 2.955231e+00 1.594333e-01 2.922952e+00 1.667543e-01 2.947491e+00 1.327714e-01 2.952747e+00 1.324336e-01 2.857520e+00 4.793368e-02 2.809196e+00 1.141968e-02 2.799098e+00 -1.433234e-03 2.803632e+00 -4.769341e-03 2.814607e+00 -4.744056e-03 2.830770e+00 -3.625714e-03 2.854004e+00 -1.988523e-03 
2.974988e+00 -6.616588e-03 3.045745e+00 -3.512883e-03 3.141309e+00 -3.493908e-03 3.036789e+00 -6.640200e-03 2.959708e+00 -9.899055e-03 2.905526e+00 -1.266142e-02 2.872194e+00 -1.026531e-02 2.868978e+00 2.427445e-02 2.982529e+00 1.461840e-01 2.916882e+00 1.631495e-01 2.924086e+00 1.008800e-01 2.966708e+00 1.326439e-01 2.904951e+00 1.816968e-01 2.891776e+00 1.230081e-01 2.958455e+00 1.200718e-01 2.911593e+00 1.843828e-01 2.876089e+00 1.413503e-01 2.953463e+00 1.079490e-01 2.928122e+00 1.805430e-01 2.877488e+00 1.594817e-01 2.950386e+00 1.059758e-01 2.951780e+00 1.803336e-01 2.891108e+00 1.797666e-01 2.946932e+00 1.179467e-01 2.985830e+00 1.863076e-01 2.839704e+00 3.598082e-02 2.802777e+00 1.258522e-03 2.810962e+00 -6.099555e-03 2.829313e+00 -7.843508e-03 2.853175e+00 -8.448733e-03 2.883416e+00 -8.624694e-03 2.922686e+00 -8.150813e-03 
3.073522e+00 1.223150e-02 3.156822e+00 1.690662e-02 3.266570e+00 1.708305e-02 3.150679e+00 1.452316e-02 3.061900e+00 1.108831e-02 2.995121e+00 5.699978e-03 2.944969e+00 -4.304230e-03 2.906689e+00 -1.532449e-02 2.877682e+00 -2.087521e-02 2.851140e+00 -2.206588e-02 2.832729e+00 -3.095582e-02 2.828151e+00 -2.682130e-02 2.813898e+00 -1.614963e-02 2.801191e+00 -2.518443e-02 2.807854e+00 -2.628467e-02 2.800651e+00 -1.212515e-02 2.788465e+00 -1.873906e-02 2.801757e+00 -2.539514e-02 2.801917e+00 -8.367619e-03 2.789700e+00 -9.879165e-03 2.805503e+00 -1.971341e-02 2.814558e+00 -9.603419e-05 2.803901e+00 3.994476e-03 2.822337e+00 -4.825350e-03 2.852304e+00 2.273086e-02 2.825479e+00 -7.953921e-03 2.845168e+00 -6.397581e-03 2.869415e+00 -2.144993e-03 2.894849e+00 1.033983e-03 2.924758e+00 3.541918e-03 2.962182e+00 5.957383e-03 3.010396e+00 8.729105e-03 
3.150783e+00 7.654948e-03 3.250583e+00 1.241472e-02 3.377985e+00 1.278575e-02 3.245634e+00 1.043873e-02 3.139263e+00 7.401502e-03 3.051261e+00 9.650408e-04 2.965740e+00 -2.370423e-02 2.839999e+00 -1.334712e-01 2.462284e+00 -4.345821e-01 2.535803e+00 -4.902069e-01 2.455339e+00 -3.565258e-01 2.311047e+00 -4.276627e-01 2.420726e+00 -5.383638e-01 2.423220e+00 -4.105726e-01 2.253042e+00 -4.015050e-01 2.350408e+00 -5.463600e-01 2.424901e+00 -4.567311e-01 2.248468e+00 -3.780318e-01 2.309540e+00 -5.373846e-01 2.429743e+00 -4.936871e-01 2.274609e+00 -3.646270e-01 2.285987e+00 -5.192897e-01 2.440035e+00 -5.150795e-01 2.340000e+00 -3.669654e-01 2.297020e+00 -4.867407e-01 2.676958e+00 -1.349307e-01 2.829591e+00 -3.560393e-02 2.883120e+00 -8.745504e-03 2.920894e+00 -1.070482e-03 2.961531e+00 1.434821e-03 3.010819e+00 2.854464e-03 3.072534e+00 4.676466e-03 
3.237864e+00 2.402925e-02 3.347528e+00 3.010357e-02 3.486046e+00 3.061903e-02 3.345020e+00 2.903615e-02 3.229879e+00 2.678842e-02 3.133355e+00 2.220897e-02 3.041338e+00 4.745273e-03 2.920875e+00 -7.731124e-02 2.635005e+00 -2.984363e-01 2.658018e+00 -3.507245e-01 2.584069e+00 -2.615407e-01 2.468754e+00 -3.222985e-01 2.541735e+00 -4.139986e-01 2.535990e+00 -3.222849e-01 2.403046e+00 -3.200436e-01 2.474986e+00 -4.361105e-01 2.528462e+00 -3.696063e-01 2.390210e+00 -3.120006e-01 2.438452e+00 -4.391293e-01 2.531559e+00 -4.067956e-01 2.409593e+00 -3.093557e-01 2.421485e+00 -4.343529e-01 2.546324e+00 -4.328030e-01 2.469208e+00 -3.167639e-01 2.438559e+00 -4.085907e-01 2.752820e+00 -1.203260e-01 2.886933e+00 -3.016555e-02 2.940367e+00 -2.287670e-03 2.981530e+00 7.638894e-03 3.026840e+00 1.233673e-02 3.082024e+00 1.578453e-02 3.150990e+00 1.944543e-02 
3.304454e+00 2.113315e-02 3.427617e+00 2.716994e-02 3.580559e+00 2.784695e-02 3.427423e+00 2.635882e-02 3.301068e+00 2.457311e-02 3.197432e+00 2.209084e-02 3.112910e+00 1.963070e-02 3.052790e+00 3.380641e-02 3.096864e+00 1.176910e-01 3.000294e+00 1.191966e-01 2.975444e+00 6.661914e-02 2.987565e+00 8.645932e-02 2.926178e+00 1.165488e-01 2.900528e+00 7.071991e-02 2.938739e+00 6.682431e-02 2.900481e+00 1.097329e-01 2.866974e+00 7.696492e-02 2.916782e+00 5.109562e-02 2.901312e+00 9.987924e-02 2.864387e+00 8.256341e-02 2.914630e+00 4.103775e-02 2.923933e+00 8.976278e-02 2.889682e+00 8.671005e-02 2.937194e+00 4.557819e-02 2.984929e+00 1.069563e-01 2.910891e+00 1.362546e-02 2.924661e+00 5.350371e-03 2.962567e+00 8.702691e-03 3.007118e+00 1.128303e-02 3.060136e+00 1.288202e-02 3.124981e+00 1.454683e-02 3.205116e+00 1.709834e-02 
3.379353e+00 3.534464e-02 3.510084e+00 4.232648e-02 3.671544e+00 4.312602e-02 3.512377e+00 4.201207e-02 3.380319e+00 4.024379e-02 3.272245e+00 3.738205e-02 3.186668e+00 3.462586e-02 3.131955e+00 5.110551e-02 3.182760e+00 1.478991e-01 3.090911e+00 1.549034e-01 3.068046e+00 1.004341e-01 3.081551e+00 1.267082e-01 3.013312e+00 1.635243e-01 2.989285e+00 1.116335e-01 3.033765e+00 1.106782e-01 2.986589e+00 1.628620e-01 2.951395e+00 1.238561e-01 3.011278e+00 9.700146e-02 2.987987e+00 1.571482e-01 2.946274e+00 1.353455e-01 3.008509e+00 8.907526e-02 3.013692e+00 1.504071e-01 2.971152e+00 1.456876e-01 3.028119e+00 9.402937e-02 3.075836e+00 1.623961e-01 2.980810e+00 4.078153e-02 2.978954e+00 1.871008e-02 3.014899e+00 1.814132e-02 3.061456e+00 2.050242e-02 3.118040e+00 2.311948e-02 3.187532e+00 2.615154e-02 3.273342e+00 3.008023e-02 
3.434474e+00 3.362472e-02 3.576096e+00 4.058122e-02 3.749212e+00 4.152115e-02 3.580929e+00 4.100751e-02 3.440497e+00 4.099351e-02 3.326063e+00 4.257030e-02 3.237011e+00 4.925067e-02 3.177298e+00 7.202366e-02 3.162680e+00 1.132269e-01 3.105964e+00 1.280776e-01 3.074268e+00 1.162285e-01 3.057912e+00 1.247051e-01 3.016258e+00 1.404500e-01 2.995101e+00 1.270637e-01 3.000759e+00 1.238710e-01 2.975751e+00 1.419235e-01 2.958525e+00 1.325094e-01 2.977315e+00 1.199958e-01 2.967618e+00 1.387167e-01 2.953963e+00 1.348112e-01 2.979876e+00 1.161452e-01 2.986131e+00 1.335033e-01 2.977217e+00 1.342031e-01 3.005834e+00 1.121818e-01 3.027992e+00 1.134743e-01 2.999040e+00 6.130435e-02 3.003426e+00 3.757315e-02 3.035935e+00 2.872408e-02 3.084383e+00 2.562887e-02 3.146464e+00 2.503762e-02 3.223547e+00 2.612943e-02 3.318371e+00 2.890429e-02 
3.496714e+00 4.594354e-02 3.643864e+00 5.355479e-02 3.823211e+00 5.459485e-02 3.650810e+00 5.427096e-02 3.506343e+00 5.419609e-02 3.388096e+00 5.554570e-02 3.295186e+00 6.184495e-02 3.229407e+00 8.166796e-02 3.196767e+00 1.119382e-01 3.145185e+00 1.237942e-01 3.111215e+00 1.168993e-01 3.086566e+00 1.222035e-01 3.048970e+00 1.316599e-01 3.029028e+00 1.229322e-01 3.025599e+00 1.205894e-01 3.003480e+00 1.311169e-01 2.990944e+00 1.248377e-01 3.000991e+00 1.169797e-01 2.992236e+00 1.277901e-01 2.985517e+00 1.248705e-01 3.004414e+00 1.134001e-01 3.009293e+00 1.230454e-01 3.008530e+00 1.223174e-01 3.032727e+00 1.072738e-01 3.050178e+00 1.021223e-01 3.039025e+00 6.541514e-02 3.047760e+00 4.483627e-02 3.081324e+00 3.649168e-02 3.131504e+00 3.396710e-02 3.196215e+00 3.428237e-02 3.276723e+00 3.644786e-02 3.375721e+00 4.029031e-02 
3.539760e+00 4.486376e-02 3.695512e+00 5.248286e-02 3.884069e+00 5.364273e-02 3.704396e+00 5.399462e-02 3.552885e+00 5.539056e-02 3.428015e+00 5.915568e-02 3.328284e+00 6.763741e-02 3.252739e+00 8.372270e-02 3.199398e+00 1.018149e-01 3.148167e+00 1.133501e-01 3.108104e+00 1.160339e-01 3.075441e+00 1.203098e-01 3.042507e+00 1.260513e-01 3.020139e+00 1.250802e-01 3.006935e+00 1.243100e-01 2.989923e+00 1.282413e-01 2.979425e+00 1.268580e-01 2.979527e+00 1.231573e-01 2.974926e+00 1.257962e-01 2.973471e+00 1.245917e-01 2.983553e+00 1.188234e-01 2.990276e+00 1.193255e-01 2.996915e+00 1.164118e-01 3.014635e+00 1.052036e-01 3.030989e+00 9.205701e-02 3.038589e+00 6.968939e-02 3.057723e+00 5.289742e-02 3.094901e+00 4.303330e-02 3.148496e+00 3.801606e-02 3.217981e+00 3.620625e-02 3.304594e+00 3.683036e-02 3.410766e+00 3.968300e-02 
3.589036e+00 5.552302e-02 3.748444e+00 6.360036e-02 3.941153e+00 6.483681e-02 3.758852e+00 6.526328e-02 3.604612e+00 6.646392e-02 3.476809e+00 6.966649e-02 3.373659e+00 7.682537e-02 3.293599e+00 8.970157e-02 3.234018e+00 1.036178e-01 3.181115e+00 1.125515e-01 3.138891e+00 1.150049e-01 3.103689e+00 1.178538e-01 3.071021e+00 1.212889e-01 3.047966e+00 1.203806e-01 3.032317e+00 1.194676e-01 3.015861e+00 1.214210e-01 3.005799e+00 1.200939e-01 3.003608e+00 1.172921e-01 2.999432e+00 1.183432e-01 2.999237e+00 1.170107e-01 3.007494e+00 1.127370e-01 3.014382e+00 1.120186e-01 3.023074e+00 1.088097e-01 3.040094e+00 9.965944e-02 3.056946e+00 8.803597e-02 3.070478e+00 7.063513e-02 3.093458e+00 5.696910e-02 3.132553e+00 4.882503e-02 3.187718e+00 4.500388e-02 3.259034e+00 4.424932e-02 3.347910e+00 4.586601e-02 3.456824e+00 4.961304e-02 
3.619545e+00 5.457817e-02 3.785515e+00 6.265389e-02 3.985225e+00 6.398578e-02 3.797068e+00 6.485939e-02 3.636953e+00 6.686334e-02 3.503225e+00 7.094566e-02 3.393722e+00 7.808458e-02 3.306066e+00 8.843649e-02 3.236894e+00 9.894969e-02 3.179249e+00 1.072211e-01 3.132217e+00 1.120673e-01 3.093199e+00 1.158091e-01 3.059988e+00 1.191600e-01 3.034631e+00 1.203597e-01 3.015706e+00 1.206791e-01 2.999799e+00 1.216772e-01 2.989276e+00 1.212908e-01 2.984357e+00 1.196830e-01 2.981193e+00 1.190554e-01 2.981921e+00 1.174206e-01 2.988138e+00 1.139532e-01 2.996110e+00 1.108507e-01 3.007088e+00 1.060245e-01 3.023704e+00 9.729830e-02 3.042948e+00 8.573701e-02 3.064298e+00 7.224067e-02 3.094427e+00 6.063051e-02 3.138214e+00 5.242335e-02 3.197315e+00 4.754863e-02 3.272891e+00 4.554366e-02 3.366688e+00 4.607883e-02 3.481188e+00 4.905809e-02 
3.655678e+00 6.379828e-02 3.823534e+00 7.219558e-02 4.025448e+00 7.357796e-02 3.836051e+00 7.442892e-02 3.674558e+00 7.610631e-02 3.539203e+00 7.943416e-02 3.427720e+00 8.516049e-02 3.337646e+00 9.322919e-02 3.265767e+00 1.013115e-01 3.206470e+00 1.075700e-01 3.158068e+00 1.111812e-01 3.118013e+00 1.136847e-01 3.084541e+00 1.156708e-01 3.058695e+00 1.161332e-01 3.039033e+00 1.159172e-01 3.023159e+00 1.160657e-01 3.012542e+00 1.153074e-01 3.006972e+00 1.137258e-01 3.003891e+00 1.127058e-01 3.004804e+00 1.109806e-01 3.010534e+00 1.079518e-01 3.018668e+00 1.049225e-01 3.030280e+00 1.004858e-01 3.047038e+00 9.311489e-02 3.067129e+00 8.350544e-02 3.090901e+00 7.264070e-02 3.123196e+00 6.332201e-02 3.168356e+00 5.685404e-02 3.228438e+00 5.332854e-02 3.304961e+00 5.243973e-02 3.399859e+00 5.392532e-02 3.515703e+00 5.769032e-02 
3.673316e+00 6.258355e-02 3.845869e+00 7.093332e-02 4.052747e+00 7.238358e-02 3.858845e+00 7.342137e-02 3.692768e+00 7.541882e-02 3.552732e+00 7.895403e-02 3.436318e+00 8.432487e-02 3.340872e+00 9.118358e-02 3.263293e+00 9.811342e-02 3.199690e+00 1.040887e-01 3.147650e+00 1.085064e-01 3.104916e+00 1.118237e-01 3.069934e+00 1.143796e-01 3.042373e+00 1.158296e-01 3.021094e+00 1.164561e-01 3.004734e+00 1.167774e-01 2.993474e+00 1.163818e-01 2.986947e+00 1.152045e-01 2.983997e+00 1.137924e-01 2.985080e+00 1.117050e-01 2.990480e+00 1.085308e-01 2.999328e+00 1.046154e-01 3.012178e+00 9.937496e-02 3.029971e+00 9.205277e-02 3.052470e+00 8.306774e-02 3.080582e+00 7.357710e-02 3.117537e+00 6.513315e-02 3.166639e+00 5.869899e-02 3.230216e+00 5.462124e-02 3.310247e+00 5.294242e-02 3.408924e+00 5.365461e-02 3.528894e+00 5.681695e-02 
3.696221e+00 7.059215e-02 3.868944e+00 7.916155e-02 4.076153e+00 8.063394e-02 3.882421e+00 8.157951e-02 3.716402e+00 8.318326e-02 3.576215e+00 8.594123e-02 3.459397e+00 9.007269e-02 3.363301e+00 9.526090e-02 3.284941e+00 1.004335e-01 3.220793e+00 1.047848e-01 3.168382e+00 1.078721e-01 3.125486e+00 1.100009e-01 3.090574e+00 1.114471e-01 3.063020e+00 1.120480e-01 3.041694e+00 1.120229e-01 3.025449e+00 1.117383e-01 3.014212e+00 1.109468e-01 3.007549e+00 1.096047e-01 3.004616e+00 1.080549e-01 3.005687e+00 1.059923e-01 3.010903e+00 1.031115e-01 3.019745e+00 9.959004e-02 3.032718e+00 9.500824e-02 3.050574e+00 8.885448e-02 3.073434e+00 8.147879e-02 3.102386e+00 7.383116e-02 3.140128e+00 6.715205e-02 3.189642e+00 6.225269e-02 3.253311e+00 5.946857e-02 3.333269e+00 5.887423e-02 3.431838e+00 6.048130e-02 3.551753e+00 6.434389e-02 
3.700771e+00 6.881143e-02 3.876430e+00 7.726786e-02 4.086681e+00 7.877875e-02 3.889834e+00 7.972911e-02 3.720630e+00 8.140664e-02 3.577203e+00 8.416951e-02 3.457026e+00 8.806650e-02 3.357420e+00 9.277772e-02 3.275534e+00 9.760862e-02 3.208374e+00 1.020005e-01 3.153458e+00 1.055928e-01 3.108671e+00 1.083955e-01 3.072432e+00 1.104949e-01 3.043704e+00 1.118222e-01 3.021419e+00 1.124552e-01 3.004634e+00 1.125634e-01 2.992927e+00 1.120713e-01 2.985843e+00 1.109413e-01 2.982868e+00 1.092950e-01 2.984006e+00 1.070005e-01 2.989311e+00 1.038697e-01 2.998683e+00 9.990188e-02 3.012530e+00 9.491274e-02 3.031511e+00 8.872487e-02 3.056213e+00 8.166175e-02 3.087847e+00 7.449000e-02 3.128585e+00 6.806610e-02 3.180921e+00 6.303982e-02 3.247194e+00 5.980721e-02 3.329683e+00 5.859589e-02 3.430841e+00 5.957053e-02 3.553465e+00 6.290460e-02 
3.710442e+00 7.584692e-02 3.884566e+00 8.444279e-02 4.093299e+00 8.594606e-02 3.898087e+00 8.676530e-02 3.730445e+00 8.803568e-02 3.588397e+00 9.007146e-02 3.469378e+00 9.291246e-02 3.370703e+00 9.630494e-02 3.289569e+00 9.972374e-02 3.223107e+00 1.027364e-01 3.168864e+00 1.050751e-01 3.124750e+00 1.067469e-01 3.089170e+00 1.078327e-01 3.060995e+00 1.083189e-01 3.039155e+00 1.082821e-01 3.022751e+00 1.078525e-01 3.011294e+00 1.069909e-01 3.004321e+00 1.056732e-01 3.001399e+00 1.039708e-01 3.002490e+00 1.017814e-01 3.007625e+00 9.896124e-02 3.016803e+00 9.548953e-02 3.030425e+00 9.123500e-02 3.049117e+00 8.609879e-02 3.073565e+00 8.036482e-02 3.105004e+00 7.465923e-02 3.145413e+00 6.969037e-02 3.197125e+00 6.600962e-02 3.262457e+00 6.396739e-02 3.343746e+00 6.377370e-02 3.443527e+00 6.558039e-02 3.564668e+00 6.954223e-02 
3.701782e+00 7.328189e-02 3.877135e+00 8.168762e-02 4.087051e+00 8.319930e-02 3.890165e+00 8.392489e-02 3.720806e+00 8.518258e-02 3.577026e+00 8.722359e-02 3.456213e+00 9.002713e-02 3.355668e+00 9.336793e-02 3.272666e+00 9.686526e-02 3.204532e+00 1.001732e-01 3.148886e+00 1.030412e-01 3.103691e+00 1.053695e-01 3.067314e+00 1.071304e-01 3.038497e+00 1.082851e-01 3.016162e+00 1.088442e-01 2.999441e+00 1.088550e-01 2.987743e+00 1.083019e-01 2.980598e+00 1.071664e-01 2.977654e+00 1.054652e-01 2.978808e+00 1.031435e-01 2.984091e+00 1.001185e-01 2.993632e+00 9.636242e-02 3.007837e+00 9.183924e-02 3.027345e+00 8.658073e-02 3.052986e+00 8.086158e-02 3.086005e+00 7.518406e-02 3.128172e+00 7.010428e-02 3.181585e+00 6.610393e-02 3.248470e+00 6.355702e-02 3.331185e+00 6.275347e-02 3.432310e+00 6.394174e-02 3.554747e+00 6.736531e-02 
3.698284e+00 7.958983e-02 3.870366e+00 8.807031e-02 4.076900e+00 8.954413e-02 3.883179e+00 9.012262e-02 3.716948e+00 9.098625e-02 3.576119e+00 9.236178e-02 3.458017e+00 9.424331e-02 3.359911e+00 9.646415e-02 3.279075e+00 9.874185e-02 3.212872e+00 1.008182e-01 3.158948e+00 1.025128e-01 3.115281e+00 1.037604e-01 3.080239e+00 1.045561e-01 3.052536e+00 1.048919e-01 3.031102e+00 1.047910e-01 3.015082e+00 1.042964e-01 3.003874e+00 1.034030e-01 2.997019e+00 1.020984e-01 2.994191e+00 1.003874e-01 2.995283e+00 9.822400e-02 3.000327e+00 9.554340e-02 3.009478e+00 9.232153e-02 3.023139e+00 8.854000e-02 3.041936e+00 8.424715e-02 3.066713e+00 7.968259e-02 3.098696e+00 7.526326e-02 3.139564e+00 7.145508e-02 3.191325e+00 6.866760e-02 3.256178e+00 6.722380e-02 3.336499e+00 6.737694e-02 3.434917e+00 6.934464e-02 3.554395e+00 7.333999e-02 