# vtk DataFile Version 2.0
Comment goes here
ASCII

DATASET STRUCTURED_POINTS
FIELD FieldData 1
TIME 1 1 double
0.03900000
DIMENSIONS    64   64   1

ORIGIN    0.000   0.000   0.000
SPACING   0.03125 0.03125   1.000

POINT_DATA   4096
SCALARS Omega double
LOOKUP_TABLE default

-3.235231e-01 -2.146117e-01 -2.994321e-01 -1.965199e-01 -3.322697e-01 -2.810290e-01 -2.825113e-01 -3.174092e-01 -2.683947e-01 -3.718397e-01 -1.930800e-01 -3.911014e-01 -6.434416e-02 -3.104222e-01 1.458962e-01 -5.097098e-02 5.463737e-01 9.376819e-02 7.024249e-01 1.663639e-01 7.884098e-01 1.790122e-01 8.186748e-01 1.393879e-01 9.057334e-01 1.202384e-01 9.214449e-01 1.077854e-01 8.258634e-01 2.043909e-01 6.944504e-01 3.600451e-01 6.241750e-01 4.245353e-01 6.208597e-01 4.493623e-01 6.028235e-01 4.919869e-01 4.989684e-01 5.608483e-01 4.006221e-01 6.506666e-01 3.515101e-01 7.024135e-01 3.559700e-01 6.637844e-01 3.419276e-01 6.046925e-01 1.663339e-01 4.331020e-01 -1.997093e-01 2.168340e-01 -4.708986e-01 7.869923e-02 -6.019363e-01 3.474528e-02 -6.642956e-01 3.705734e-02 -6.726858e-01 4.616059e-02 -6.781371e-01 7.500578e-02 -7.144937e-01 9.990389e-02 
4.809165e+00 -2.896793e+01 -3.988369e+00 -2.364799e+01 -6.909075e+00 -2.088784e+01 -9.426831e+00 -1.913219e+01 -1.273629e+01 -1.773178e+01 -1.524071e+01 -1.683640e+01 -1.707481e+01 -1.620200e+01 -1.937593e+01 -1.441500e+01 -2.387674e+01 -1.019715e+01 -2.998759e+01 -4.370223e+00 -3.680234e+01 1.747070e+00 -4.291575e+01 6.593079e+00 -4.709425e+01 9.555607e+00 -4.966182e+01 1.106226e+01 -5.040720e+01 1.055952e+01 -4.936602e+01 8.908177e+00 -4.786064e+01 7.256232e+00 -4.640680e+01 5.826433e+00 -4.526119e+01 5.123163e+00 -4.515291e+01 5.888662e+00 -4.652117e+01 7.909851e+00 -4.890128e+01 1.067440e+01 -5.153509e+01 1.303878e+01 -5.275845e+01 1.352686e+01 -5.122751e+01 1.137244e+01 -4.690299e+01 7.213777e+00 -4.113673e+01 2.111387e+00 -3.496307e+01 -3.417437e+00 -2.867803e+01 -9.114615e+00 -2.217425e+01 -1.510430e+01 -1.529617e+01 -2.127157e+01 -8.148317e+00 -2.999581e+01 
-5.013047e+01 9.141735e+00 -2.757570e+01 6.195269e+00 -5.945124e+00 5.320825e+00 -2.904825e+01 4.320457e+00 -3.871769e+01 3.874796e+00 -4.543609e+01 3.609937e+00 -5.104060e+01 3.303798e+00 -5.586513e+01 1.600726e+00 -5.942392e+01 -1.733886e+00 -5.984400e+01 -5.170452e+00 -5.890373e+01 -8.426308e+00 -5.811695e+01 -1.056525e+01 -5.830879e+01 -1.155591e+01 -5.867751e+01 -1.227031e+01 -5.897129e+01 -1.237324e+01 -5.995700e+01 -1.184727e+01 -6.120197e+01 -1.111597e+01 -6.249717e+01 -1.016998e+01 -6.345337e+01 -9.616449e+00 -6.323475e+01 -1.013844e+01 -6.191171e+01 -1.145631e+01 -6.008099e+01 -1.305809e+01 -5.812719e+01 -1.423711e+01 -5.660724e+01 -1.407935e+01 -5.564213e+01 -1.210276e+01 -5.450801e+01 -8.746085e+00 -5.380324e+01 -5.575772e+00 -5.345358e+01 -2.902564e+00 -5.288754e+01 -5.640558e-01 -5.185093e+01 1.893978e+00 -5.001682e+01 4.261163e+00 -4.585094e+01 9.386267e+00 
-2.716381e+01 9.862312e+00 -1.454722e+01 8.182594e+00 -1.850249e+01 6.311999e+00 -1.258115e+01 6.786937e+00 -1.776594e+01 5.805368e+00 -2.118082e+01 5.071871e+00 -2.399766e+01 4.567543e+00 -2.622950e+01 3.349136e+00 -2.710714e+01 3.386870e-01 -2.620224e+01 -2.580065e+00 -2.439385e+01 -5.243757e+00 -2.279276e+01 -7.102098e+00 -2.188728e+01 -7.909381e+00 -2.140311e+01 -8.424376e+00 -2.134000e+01 -8.180029e+00 -2.195641e+01 -7.391472e+00 -2.281354e+01 -6.564320e+00 -2.376618e+01 -5.876765e+00 -2.454002e+01 -5.696789e+00 -2.463631e+01 -6.360253e+00 -2.385109e+01 -7.466593e+00 -2.253279e+01 -8.808004e+00 -2.106612e+01 -9.882802e+00 -2.005505e+01 -1.001294e+01 -1.976772e+01 -8.954998e+00 -1.986639e+01 -6.228999e+00 -2.055519e+01 -3.461459e+00 -2.146775e+01 -9.816049e-01 -2.232140e+01 1.311444e+00 -2.303241e+01 3.611809e+00 -2.339483e+01 5.910729e+00 -2.274407e+01 1.024565e+01 
-7.188533e-01 9.476560e-01 -1.368525e+00 -1.853428e+00 -3.274970e+01 5.359248e-01 1.015650e+00 -1.083203e-01 2.418614e-03 -7.750107e-02 -3.325691e-01 -4.370970e-02 -4.823282e-01 4.950215e-02 -7.120151e-01 3.111332e-01 -5.126799e-01 -2.465700e-01 -5.199602e-01 -1.316234e-01 -5.866622e-01 -9.845620e-02 -4.688576e-01 -2.204692e-02 -3.598285e-01 -2.948029e-02 -3.408727e-01 -1.905147e-01 -3.881385e-01 -2.930269e-01 -3.765055e-01 -2.850733e-01 -3.022223e-01 -1.512727e-01 -2.570414e-01 -5.884565e-02 -3.177508e-01 -8.058133e-02 -4.709633e-01 -1.281123e-01 -5.431636e-01 -9.513908e-02 -5.349517e-01 2.101231e-02 -4.661523e-01 1.003666e-01 -5.047807e-01 1.255049e-02 -4.341715e-01 -5.016538e-01 -1.831625e-01 -2.258503e-01 -2.337124e-01 -1.559374e-01 -2.173771e-01 -1.258756e-01 -1.763774e-01 -5.366323e-02 -1.581711e-01 5.685720e-02 -1.830718e-01 1.828238e-01 -3.120987e-01 5.116921e-01 
-4.551211e-01 2.556199e-01 -1.010536e+00 -1.575095e+00 -4.198667e+01 -3.273792e-01 1.143022e+00 -3.502858e-01 6.434342e-01 -2.171649e-01 3.730088e-01 -1.722703e-01 2.368556e-01 1.752829e-02 -2.867656e-01 9.480651e-01 2.157416e-01 -3.467969e-01 2.229541e-01 -3.671202e-02 -3.147829e-02 8.524890e-02 1.393447e-01 2.738119e-01 2.067964e-01 2.722926e-01 1.064824e-01 -2.495550e-02 -7.065113e-02 -1.343484e-01 -1.050385e-01 -9.219380e-02 5.907936e-02 1.864457e-01 1.897293e-01 2.591845e-01 1.535234e-01 3.871438e-02 -6.089853e-02 -1.446306e-01 -9.326043e-02 -1.085374e-01 -2.918025e-04 1.759932e-01 1.458278e-01 4.041998e-01 -7.422149e-02 4.980105e-01 -2.816660e-01 -1.220854e+00 5.687031e-01 1.502142e-01 -2.433140e-02 1.786849e-01 -1.266439e-01 1.094743e-01 -1.265695e-01 9.171766e-02 -1.444725e-01 1.080169e-01 -2.139786e-01 1.446526e-01 -3.862613e-01 3.807470e-01 
-5.436713e-01 2.557322e-01 -8.447924e-01 -1.872851e+00 -4.896031e+01 -4.863057e-01 9.567917e-01 -3.359147e-01 6.647758e-01 -2.758002e-01 4.329599e-01 -2.618802e-01 3.079414e-01 7.980123e-03 -7.097706e-01 8.219194e-01 5.821496e+00 4.745123e+00 3.132122e+00 3.746592e+00 2.098824e+00 4.104456e+00 2.426730e+00 3.654676e+00 3.149945e+00 2.848076e+00 3.556762e+00 2.575335e+00 2.962163e+00 2.829654e+00 2.396533e+00 3.391506e+00 2.267166e+00 3.364202e+00 2.939185e+00 2.738350e+00 3.556361e+00 2.225431e+00 3.148613e+00 2.414235e+00 2.551638e+00 2.904901e+00 2.087253e+00 3.093448e+00 2.486988e+00 2.767399e+00 2.790359e+00 2.395816e+00 3.154732e+00 3.731860e-01 1.088960e+00 4.703426e-01 -8.311948e-02 2.294681e-01 -1.899090e-01 1.288357e-01 -1.768512e-01 1.064368e-01 -1.946879e-01 1.258086e-01 -2.618840e-01 1.849185e-01 -4.025534e-01 3.093744e-01 
-4.498343e-01 2.959790e-01 -5.166697e-01 -1.736148e+00 -5.422839e+01 -5.386575e-01 5.637634e-01 -4.350818e-01 5.520802e-01 -3.886710e-01 4.414219e-01 -5.756414e-01 5.919436e-01 -1.048973e+00 1.788654e-01 -5.202261e-01 3.157103e+01 2.742931e+01 2.073443e+01 2.254409e+01 1.621928e+01 2.519540e+01 1.836186e+01 2.139423e+01 2.390188e+01 1.745506e+01 2.701615e+01 1.991273e+01 2.305152e+01 2.370169e+01 1.927307e+01 2.770915e+01 1.851578e+01 2.406414e+01 2.346972e+01 1.929040e+01 2.818006e+01 1.900502e+01 2.498200e+01 2.298140e+01 2.055838e+01 2.683171e+01 1.747378e+01 2.448203e+01 2.060473e+01 1.990672e+01 2.584726e+01 1.741253e+01 3.025717e+01 3.317116e+01 4.298989e+00 2.445175e+00 -1.039912e+00 2.481049e-01 -3.761822e-01 1.351403e-01 -1.877959e-01 1.377662e-01 -1.725114e-01 1.694519e-01 -2.322625e-01 2.262938e-01 -3.500450e-01 3.080225e-01 
-4.140940e-01 2.958538e-01 -3.018953e-01 -1.935417e+00 -5.812126e+01 -5.669472e-01 3.575318e-01 -4.167303e-01 4.880852e-01 -4.191177e-01 5.080004e-01 -7.453690e-01 9.616701e-01 -1.984916e+00 1.798642e+00 4.112018e-01 2.917812e+01 2.216751e+01 1.995705e+01 1.943554e+01 1.710296e+01 2.335531e+01 1.866382e+01 2.036822e+01 2.429759e+01 1.698223e+01 2.790236e+01 1.950616e+01 2.417786e+01 2.387448e+01 2.043090e+01 2.839328e+01 1.914265e+01 2.518395e+01 2.423827e+01 2.038879e+01 2.936615e+01 1.989968e+01 2.654171e+01 2.435430e+01 2.191976e+01 2.871546e+01 1.843969e+01 2.689638e+01 2.147598e+01 2.206395e+01 2.750685e+01 2.106785e+01 3.645605e+01 3.820282e+01 7.745942e-01 2.625681e+00 -1.251750e+00 3.524693e-01 -4.371846e-01 1.544393e-01 -2.135738e-01 1.461729e-01 -1.912666e-01 1.767122e-01 -2.406944e-01 2.299145e-01 -3.306269e-01 2.846405e-01 
-2.873840e-01 2.956464e-01 -2.919493e-02 -1.875805e+00 -6.077069e+01 -5.036083e-01 1.200427e-01 -4.034302e-01 3.230550e-01 -2.902956e-01 3.299913e-01 -1.373398e-01 2.661822e-01 1.951933e-01 9.767564e-01 -1.891991e+00 -2.478043e+01 -2.134159e+01 -1.400681e+01 -1.812332e+01 -1.169580e+01 -1.975872e+01 -1.282961e+01 -1.661097e+01 -1.688100e+01 -1.342505e+01 -1.927733e+01 -1.462028e+01 -1.645522e+01 -1.716018e+01 -1.386314e+01 -1.986066e+01 -1.293520e+01 -1.736008e+01 -1.638576e+01 -1.380308e+01 -1.976500e+01 -1.313007e+01 -1.779631e+01 -1.580194e+01 -1.463652e+01 -1.829672e+01 -1.228668e+01 -1.677569e+01 -1.416453e+01 -1.314343e+01 -1.786258e+01 -1.236521e+01 -2.228097e+01 -2.169205e+01 -1.085055e+00 -7.528381e-01 2.954806e-01 1.557806e-01 4.379748e-02 1.761126e-01 -6.449095e-02 1.778484e-01 -1.216338e-01 2.040045e-01 -1.793944e-01 2.481049e-01 -2.455894e-01 2.944932e-01 
-2.237239e-01 2.790312e-01 1.510724e-01 -1.935909e+00 -6.260168e+01 -5.376809e-01 -4.139473e-02 -3.723969e-01 1.834338e-01 -1.956195e-01 1.166547e-01 2.011839e-01 -3.581305e-01 1.115249e+00 -7.022471e-01 9.420930e-01 -3.424512e+01 -2.875814e+01 -2.347824e+01 -2.410003e+01 -1.866920e+01 -2.761498e+01 -2.099212e+01 -2.378157e+01 -2.738485e+01 -1.964334e+01 -3.125150e+01 -2.259019e+01 -2.691686e+01 -2.720525e+01 -2.262580e+01 -3.208534e+01 -2.151871e+01 -2.805954e+01 -2.721861e+01 -2.259318e+01 -3.285968e+01 -2.220934e+01 -2.940032e+01 -2.700892e+01 -2.429546e+01 -3.173092e+01 -2.054503e+01 -2.921077e+01 -2.410470e+01 -2.388707e+01 -3.057821e+01 -2.133725e+01 -3.743501e+01 -4.140758e+01 -3.357620e+00 -2.597310e+00 1.274084e+00 -1.921650e-02 2.823534e-01 1.341488e-01 -8.495171e-03 1.655920e-01 -1.057795e-01 1.982544e-01 -1.630012e-01 2.412229e-01 -2.091979e-01 2.836888e-01 
-1.072229e-01 2.665824e-01 3.561482e-01 -1.905618e+00 -6.343647e+01 -4.254827e-01 -1.747288e-01 -3.686099e-01 3.275437e-02 -2.306060e-01 1.107333e-02 1.236232e-02 -2.512807e-01 4.394396e-01 -3.486498e-01 5.229793e-01 -8.018853e+00 -5.222982e+00 -6.075015e+00 -4.577776e+00 -4.639178e+00 -5.795354e+00 -5.312851e+00 -5.345640e+00 -6.892389e+00 -4.536207e+00 -7.888138e+00 -5.238889e+00 -6.801683e+00 -6.456847e+00 -5.640225e+00 -7.800110e+00 -5.451103e+00 -7.172280e+00 -6.966597e+00 -5.907047e+00 -8.408191e+00 -5.723293e+00 -7.462493e+00 -6.890903e+00 -6.123665e+00 -8.214889e+00 -5.179545e+00 -7.926461e+00 -6.256103e+00 -6.928100e+00 -7.740075e+00 -6.290540e+00 -9.494058e+00 -9.547324e+00 -1.866235e+00 -1.535185e+00 3.866127e-01 -1.659827e-01 1.412048e-01 7.766107e-02 8.907354e-04 1.557594e-01 -6.422891e-02 2.020950e-01 -1.031928e-01 2.451244e-01 -1.250839e-01 2.850491e-01 
-4.810623e-02 2.476994e-01 4.892926e-01 -1.906630e+00 -6.379324e+01 -4.464584e-01 -2.791436e-01 -3.621254e-01 -6.168119e-02 -2.248982e-01 -6.423813e-02 -6.253317e-02 -1.990698e-01 2.683242e-02 -6.696200e-02 -9.304318e-01 2.914363e-01 5.277903e-01 -2.680550e-01 2.769789e-01 -9.376765e-02 7.880484e-02 -1.827515e-01 -1.388571e-01 -2.049026e-01 -1.653208e-01 -1.718398e-01 8.769393e-02 -7.238748e-02 1.321726e-01 -2.500264e-02 4.330035e-02 -9.304664e-02 -2.732275e-01 -1.853614e-01 -3.374724e-01 -2.109368e-01 -9.909130e-02 -6.002588e-02 7.400634e-02 2.572796e-05 1.670853e-02 1.025708e-02 -2.953695e-01 -1.092001e-01 -5.512937e-01 1.450836e-02 -6.236406e-01 -1.138069e-01 1.378515e+00 -3.429426e-01 -3.153798e-01 1.209040e-01 -1.205453e-01 8.674482e-02 5.506095e-02 -1.753430e-04 1.375659e-01 -5.379296e-02 1.890635e-01 -8.251138e-02 2.337095e-01 -8.813492e-02 2.742436e-01 
4.464257e-02 2.286113e-01 6.364931e-01 -1.875864e+00 -6.329754e+01 -3.298941e-01 -3.367566e-01 -3.649661e-01 -1.451684e-01 -2.815026e-01 -8.149732e-02 -1.919546e-01 -8.843625e-02 -7.728036e-02 -1.417473e-01 -1.393718e-01 3.918136e-01 -7.562817e-03 1.245700e-01 1.376103e-01 9.033073e-03 1.138410e-01 1.509558e-02 9.071699e-02 2.378248e-02 5.123875e-02 2.422596e-02 4.316069e-02 5.075054e-02 6.707878e-02 5.431917e-02 8.695036e-02 5.585579e-02 7.013142e-02 2.946568e-02 1.708478e-02 4.029079e-03 -1.589588e-02 5.376727e-02 3.067574e-02 8.624471e-02 5.987741e-02 1.127892e-01 6.855501e-02 9.906601e-02 2.292072e-02 1.345446e-02 1.270955e-01 -2.584806e-01 1.413837e-02 2.110854e-01 5.593981e-02 4.199115e-02 4.993382e-02 -6.557453e-04 9.202922e-02 -1.794966e-02 1.420852e-01 -2.983481e-02 1.879926e-01 -3.316282e-02 2.303528e-01 -1.743382e-02 2.682136e-01 
8.868337e-02 2.087788e-01 7.257098e-01 -1.846665e+00 -6.253118e+01 -3.394785e-01 -3.873766e-01 -3.752862e-01 -1.784734e-01 -3.135517e-01 -7.853681e-02 -2.949306e-01 -1.628916e-02 -2.239208e-01 -2.313218e-01 -6.806800e-01 3.620790e+00 4.221904e+00 2.466528e+00 3.404143e+00 1.772265e+00 3.184949e+00 2.248523e+00 2.576028e+00 2.822487e+00 2.290912e+00 2.864866e+00 2.668842e+00 2.369364e+00 2.949650e+00 2.024532e+00 3.044227e+00 2.211350e+00 2.515384e+00 2.785139e+00 2.067594e+00 3.043540e+00 2.275122e+00 2.602273e+00 2.617943e+00 2.173014e+00 2.775820e+00 2.119741e+00 2.354933e+00 2.566966e+00 1.861762e+00 2.933342e+00 1.968388e+00 2.884816e+00 3.243024e+00 1.167135e+00 4.873871e-01 -8.625124e-02 1.212748e-01 -7.221471e-02 1.053996e-01 -3.847732e-02 1.376998e-01 -2.701524e-02 1.781925e-01 -1.644426e-02 2.188785e-01 1.201980e-02 2.566093e-01 
1.570860e-01 1.858495e-01 8.222869e-01 -1.791050e+00 -6.099846e+01 -2.375634e-01 -4.026124e-01 -3.635400e-01 -2.279359e-01 -3.572592e-01 -8.731709e-02 -5.005956e-01 1.481605e-01 -9.078162e-01 4.061497e-01 -3.425572e+00 1.479369e+01 1.616603e+01 1.123672e+01 1.291024e+01 8.901687e+00 1.274908e+01 1.096246e+01 1.049266e+01 1.383097e+01 9.818265e+00 1.425732e+01 1.229264e+01 1.188646e+01 1.399237e+01 1.021665e+01 1.464203e+01 1.104265e+01 1.204411e+01 1.396291e+01 1.019708e+01 1.535648e+01 1.180084e+01 1.302864e+01 1.380084e+01 1.074080e+01 1.475126e+01 1.035109e+01 1.244051e+01 1.247004e+01 9.967713e+00 1.482263e+01 1.020005e+01 1.613595e+01 2.158599e+01 3.882025e+00 2.030645e+00 -6.308431e-01 1.972812e-01 -2.028750e-01 1.139958e-01 -4.821623e-02 1.378038e-01 -1.647629e-03 1.748081e-01 2.608645e-02 2.122483e-01 6.786913e-02 2.462260e-01 
1.847692e-01 1.657270e-01 8.717590e-01 -1.732469e+00 -5.932873e+01 -2.437635e-01 -4.196943e-01 -3.601554e-01 -2.262215e-01 -3.526351e-01 -4.010239e-02 -5.225594e-01 3.407130e-01 -1.137592e+00 1.122606e+00 -2.581529e+00 9.895500e+00 9.225602e+00 8.193293e+00 7.581706e+00 6.892902e+00 8.153615e+00 8.253759e+00 6.888726e+00 1.040121e+01 6.648696e+00 1.091934e+01 8.660103e+00 9.241716e+00 1.019602e+01 7.984724e+00 1.094604e+01 8.493304e+00 9.176192e+00 1.071560e+01 7.873902e+00 1.187134e+01 9.164857e+00 1.014541e+01 1.088749e+01 8.347139e+00 1.182168e+01 7.929790e+00 1.023075e+01 9.488002e+00 8.378351e+00 1.131988e+01 8.893103e+00 1.347931e+01 1.807467e+01 2.011665e+00 1.938274e+00 -6.635872e-01 2.875548e-01 -2.101710e-01 1.383861e-01 -4.751007e-02 1.391349e-01 5.878396e-03 1.671168e-01 3.991062e-02 2.010241e-01 8.820251e-02 2.338433e-01 
2.315932e-01 1.423092e-01 9.229400e-01 -1.637547e+00 -5.697160e+01 -1.652752e-01 -4.133860e-01 -3.030676e-01 -2.647328e-01 -2.327718e-01 -1.383117e-01 -1.119969e-01 -6.240035e-02 9.530969e-02 2.664952e-01 2.010829e+00 -1.322318e+01 -1.496558e+01 -9.191460e+00 -1.199909e+01 -7.409207e+00 -1.168684e+01 -9.192974e+00 -9.588127e+00 -1.166548e+01 -8.848569e+00 -1.201801e+01 -1.070911e+01 -9.906431e+00 -1.198591e+01 -8.509938e+00 -1.246078e+01 -9.183900e+00 -1.027342e+01 -1.169103e+01 -8.643233e+00 -1.289248e+01 -9.790948e+00 -1.091600e+01 -1.134329e+01 -8.982677e+00 -1.204743e+01 -8.651986e+00 -1.015252e+01 -1.044288e+01 -7.947278e+00 -1.244189e+01 -8.236902e+00 -1.402300e+01 -1.732648e+01 -2.879631e+00 -1.007196e+00 2.957812e-01 1.204195e-01 1.130697e-01 1.400596e-01 5.307023e-02 1.440895e-01 5.374828e-02 1.649893e-01 7.950081e-02 1.932420e-01 1.302820e-01 2.210675e-01 
2.443716e-01 1.243047e-01 9.365447e-01 -1.553047e+00 -5.455924e+01 -1.695330e-01 -4.222651e-01 -2.885199e-01 -2.880466e-01 -1.935147e-01 -2.193290e-01 1.712058e-02 -3.357507e-01 5.097612e-01 -7.168982e-01 3.132033e+00 -1.329971e+01 -1.413726e+01 -1.077614e+01 -1.141290e+01 -8.536086e+00 -1.152377e+01 -1.053046e+01 -9.654654e+00 -1.330503e+01 -9.130629e+00 -1.376695e+01 -1.153054e+01 -1.150862e+01 -1.325114e+01 -9.886518e+00 -1.401828e+01 -1.070838e+01 -1.166544e+01 -1.356683e+01 -9.938432e+00 -1.493526e+01 -1.148139e+01 -1.264498e+01 -1.346148e+01 -1.038778e+01 -1.450654e+01 -9.995500e+00 -1.238209e+01 -1.207444e+01 -1.003605e+01 -1.438061e+01 -1.018874e+01 -1.588409e+01 -2.143041e+01 -3.781298e+00 -1.954973e+00 6.379036e-01 -1.064490e-02 2.150196e-01 1.031410e-01 8.260054e-02 1.279430e-01 6.637293e-02 1.521717e-01 8.951839e-02 1.802190e-01 1.411819e-01 2.075876e-01 
2.710796e-01 1.031501e-01 9.491606e-01 -1.452648e+00 -5.156865e+01 -1.025475e-01 -4.061444e-01 -2.561508e-01 -3.143747e-01 -1.917652e-01 -2.544819e-01 -9.510535e-02 -2.883096e-01 2.838201e-02 -3.393873e-01 7.798698e-02 -1.947003e+00 -1.332610e+00 -1.968580e+00 -1.214210e+00 -1.505198e+00 -1.517716e+00 -1.852916e+00 -1.428716e+00 -2.308731e+00 -1.367166e+00 -2.381032e+00 -1.661734e+00 -1.983561e+00 -1.998008e+00 -1.680508e+00 -2.274195e+00 -1.858992e+00 -2.088896e+00 -2.373469e+00 -1.815066e+00 -2.592781e+00 -1.949519e+00 -2.147366e+00 -2.270869e+00 -1.726646e+00 -2.565939e+00 -1.662709e+00 -2.427096e+00 -2.071517e+00 -2.152972e+00 -2.328991e+00 -2.184028e+00 -2.646245e+00 -3.021545e+00 -9.921408e-01 -5.925802e-01 1.552409e-01 -6.116755e-02 1.186771e-01 6.069384e-02 8.497366e-02 1.093107e-01 8.649089e-02 1.405817e-01 1.138511e-01 1.682982e-01 1.673599e-01 1.925678e-01 
2.702409e-01 8.717369e-02 9.324671e-01 -1.360457e+00 -4.856220e+01 -1.032445e-01 -3.985490e-01 -2.430657e-01 -3.128420e-01 -1.803947e-01 -2.563754e-01 -1.178041e-01 -2.416096e-01 -1.431636e-01 -8.385642e-02 -7.018117e-01 3.072376e-01 2.181276e-01 -1.507105e-01 6.607675e-02 -6.725809e-02 -4.238194e-02 -1.428155e-01 -1.268478e-01 -1.314324e-01 -1.005247e-01 -3.780654e-02 4.253990e-02 2.228847e-02 6.842714e-02 2.295365e-02 8.576678e-03 -7.421428e-02 -1.318150e-01 -1.200446e-01 -1.421214e-01 -6.219066e-02 -1.068011e-02 4.039146e-02 6.509840e-02 6.067475e-02 3.157051e-02 3.133759e-03 -1.196757e-01 -7.954813e-02 -2.287073e-01 4.504702e-02 -2.334632e-01 9.147587e-02 7.623671e-01 -3.822959e-01 -6.748133e-02 3.852766e-02 -3.795088e-02 9.324673e-02 4.611102e-02 8.418306e-02 9.423190e-02 8.895536e-02 1.265478e-01 1.160659e-01 1.543272e-01 1.684096e-01 1.782749e-01 
2.793268e-01 6.942292e-02 9.119976e-01 -1.256943e+00 -4.508415e+01 -5.210274e-02 -3.680031e-01 -2.214225e-01 -3.073497e-01 -1.835689e-01 -2.403339e-01 -1.514680e-01 -1.841847e-01 -1.732162e-01 -4.830556e-02 -3.851419e-01 1.551428e-01 -5.942858e-02 -2.091115e-02 -3.795420e-02 -2.739214e-02 -7.986138e-02 -6.307213e-02 -1.017581e-01 -5.326444e-02 -7.407736e-02 -2.797869e-03 -1.278338e-03 3.263346e-02 2.284269e-02 2.828620e-02 2.305280e-04 -2.007929e-02 -5.537909e-02 -4.750126e-02 -5.860932e-02 -1.895455e-02 3.831922e-03 3.664855e-02 5.181849e-02 5.022098e-02 4.641625e-02 2.213802e-02 -1.440591e-02 -2.074699e-02 -5.561470e-02 1.467931e-02 1.320545e-03 -3.476088e-02 3.810203e-01 -1.407658e-01 7.077603e-02 1.146860e-02 2.355989e-02 5.889501e-02 5.421810e-02 7.485661e-02 8.792526e-02 9.350750e-02 1.163580e-01 1.262622e-01 1.415405e-01 1.797538e-01 1.623550e-01 
2.666538e-01 5.603415e-02 8.701391e-01 -1.162627e+00 -4.159923e+01 -4.937269e-02 -3.443200e-01 -2.100333e-01 -2.853765e-01 -1.775735e-01 -2.162470e-01 -1.587432e-01 -1.453904e-01 -1.841258e-01 -1.879824e-02 -2.768510e-01 6.749060e-02 -8.199404e-02 -8.760280e-03 -4.434769e-02 -2.022093e-02 -6.970900e-02 -4.668944e-02 -8.308841e-02 -4.109040e-02 -5.961246e-02 -5.565965e-03 -8.886304e-03 2.317870e-02 1.019159e-02 2.021073e-02 -6.895342e-03 -1.427204e-02 -4.215365e-02 -3.369482e-02 -4.000554e-02 -1.283211e-02 5.204846e-03 2.691864e-02 3.790337e-02 3.767911e-02 3.283965e-02 1.640331e-02 -6.732891e-03 -1.164202e-02 -2.217181e-02 7.380366e-03 4.025071e-02 -3.311016e-02 2.447117e-01 -1.017999e-01 1.021377e-01 -8.766508e-03 4.511519e-02 4.199487e-02 5.553507e-02 6.596377e-02 8.025097e-02 8.787014e-02 1.050275e-01 1.205493e-01 1.283924e-01 1.716519e-01 1.480735e-01 
2.612939e-01 4.226904e-02 8.218881e-01 -1.052540e+00 -3.773802e+01 -1.361345e-02 -3.059787e-01 -1.886070e-01 -2.656414e-01 -1.691480e-01 -1.969131e-01 -1.550279e-01 -1.280212e-01 -1.630906e-01 -4.231462e-02 -1.910007e-01 5.968472e-03 -1.070587e-01 -1.202940e-02 -6.780988e-02 -1.900455e-02 -6.782134e-02 -3.021346e-02 -6.562916e-02 -2.685299e-02 -4.681199e-02 -9.097936e-03 -1.790586e-02 7.716175e-03 -5.416005e-03 8.862457e-03 -1.245264e-02 -5.689510e-03 -2.644200e-02 -1.612409e-02 -2.188372e-02 -7.295098e-03 2.887812e-03 1.323553e-02 2.159541e-02 2.202001e-02 2.119728e-02 1.394443e-02 6.759972e-03 -2.311411e-03 9.499300e-03 -6.193499e-03 5.386454e-02 -3.759521e-02 1.449793e-01 -4.407129e-02 9.706585e-02 1.059765e-03 6.293154e-02 3.552821e-02 6.313982e-02 6.068336e-02 7.799926e-02 8.648716e-02 9.681997e-02 1.210754e-01 1.160993e-01 1.711627e-01 1.322515e-01 
2.390891e-01 3.178747e-02 7.595899e-01 -9.562504e-01 -3.386676e+01 -7.360921e-03 -2.719828e-01 -1.745633e-01 -2.357588e-01 -1.585574e-01 -1.710433e-01 -1.473397e-01 -1.063352e-01 -1.500737e-01 -3.721293e-02 -1.560007e-01 -7.994218e-03 -9.866734e-02 -1.198879e-02 -6.485333e-02 -1.545740e-02 -6.011061e-02 -2.333968e-02 -5.560136e-02 -2.125551e-02 -3.984023e-02 -8.206387e-03 -1.834468e-02 4.863031e-03 -8.558556e-03 6.084088e-03 -1.299193e-02 -4.255651e-03 -2.096659e-02 -1.158317e-02 -1.556685e-02 -4.964506e-03 3.078082e-03 9.954291e-03 1.664125e-02 1.642195e-02 1.680115e-02 1.015064e-02 9.355877e-03 -1.801592e-03 1.671831e-02 -7.173807e-03 5.209718e-02 -2.882067e-02 1.070783e-01 -3.483908e-02 8.880319e-02 -4.216787e-03 6.443261e-02 2.591171e-02 6.137242e-02 5.101507e-02 7.149471e-02 7.665007e-02 8.679338e-02 1.094914e-01 1.036711e-01 1.557479e-01 1.182028e-01 
2.223649e-01 2.175023e-02 6.893082e-01 -8.402093e-01 -2.970766e+01 1.687876e-02 -2.308534e-01 -1.509549e-01 -2.106056e-01 -1.423565e-01 -1.531878e-01 -1.318834e-01 -9.858657e-02 -1.282152e-01 -4.875780e-02 -1.238501e-01 -2.394192e-02 -9.275227e-02 -1.744788e-02 -6.756497e-02 -1.566184e-02 -5.664756e-02 -1.741026e-02 -4.770437e-02 -1.534670e-02 -3.471264e-02 -8.030079e-03 -2.044022e-02 -9.948373e-05 -1.286838e-02 2.079033e-03 -1.294393e-02 -1.923785e-03 -1.453262e-02 -5.545671e-03 -9.426069e-03 -2.544280e-03 2.036559e-03 5.289239e-03 1.112052e-02 9.628010e-03 1.384338e-02 6.796319e-03 1.418498e-02 -1.201461e-03 2.350420e-02 -8.815160e-03 4.699682e-02 -2.117228e-02 7.694931e-02 -1.694907e-02 7.389752e-02 2.960000e-03 6.276687e-02 2.512333e-02 6.067978e-02 4.725688e-02 6.714230e-02 7.195555e-02 7.829506e-02 1.033896e-01 9.141169e-02 1.463454e-01 1.026224e-01 
1.930776e-01 1.373766e-02 6.112535e-01 -7.420339e-01 -2.553189e+01 2.690950e-02 -1.904333e-01 -1.326310e-01 -1.778130e-01 -1.269344e-01 -1.278241e-01 -1.174703e-01 -8.093159e-02 -1.118161e-01 -4.105197e-02 -1.038389e-01 -2.176526e-02 -7.988283e-02 -1.459058e-02 -5.922760e-02 -1.225200e-02 -4.865442e-02 -1.322107e-02 -4.015843e-02 -1.173070e-02 -2.931676e-02 -6.275962e-03 -1.820709e-02 -2.741816e-04 -1.213843e-02 1.426606e-03 -1.155231e-02 -1.451291e-03 -1.163838e-02 -4.000907e-03 -6.874652e-03 -1.729982e-03 2.078601e-03 3.936060e-03 9.131290e-03 6.924483e-03 1.186417e-02 4.424072e-03 1.379607e-02 -1.952262e-03 2.271641e-02 -8.451964e-03 4.092839e-02 -1.709881e-02 6.148194e-02 -1.491921e-02 6.321272e-02 -3.446366e-04 5.664971e-02 1.804152e-02 5.473832e-02 3.771410e-02 5.923410e-02 5.999536e-02 6.800336e-02 8.800104e-02 7.896407e-02 1.257442e-01 8.852463e-02 
1.677495e-01 6.553487e-03 5.247913e-01 -6.228050e-01 -2.115344e+01 4.345302e-02 -1.481854e-01 -1.071104e-01 -1.494483e-01 -1.068647e-01 -1.087602e-01 -9.864146e-02 -7.133165e-02 -9.216595e-02 -4.123672e-02 -8.400165e-02 -2.425278e-02 -6.853065e-02 -1.566093e-02 -5.348909e-02 -1.156273e-02 -4.309253e-02 -1.032036e-02 -3.444404e-02 -8.651979e-03 -2.551470e-02 -5.243404e-03 -1.728896e-02 -1.461325e-03 -1.216484e-02 1.771250e-04 -1.013088e-02 -7.358516e-04 -8.507753e-03 -1.911817e-03 -4.465092e-03 -8.478155e-04 1.671042e-03 2.056001e-03 7.010720e-03 3.705366e-03 1.048157e-02 2.111278e-03 1.416008e-02 -2.346891e-03 2.192238e-02 -7.435085e-03 3.448697e-02 -1.186351e-02 4.764381e-02 -8.094714e-03 5.121488e-02 2.688269e-03 4.927788e-02 1.679241e-02 4.881096e-02 3.312691e-02 5.197248e-02 5.253655e-02 5.816703e-02 7.708993e-02 6.617977e-02 1.097765e-01 7.298228e-02 
1.337546e-01 1.566865e-04 4.356294e-01 -5.232620e-01 -1.675082e+01 5.750222e-02 -1.033004e-01 -8.469458e-02 -1.152047e-01 -8.808560e-02 -8.314598e-02 -8.128257e-02 -5.335941e-02 -7.522204e-02 -3.015534e-02 -6.761760e-02 -1.714702e-02 -5.539052e-02 -1.045452e-02 -4.341403e-02 -7.439578e-03 -3.469598e-02 -6.705490e-03 -2.744321e-02 -5.716695e-03 -2.027035e-02 -3.384447e-03 -1.390338e-02 -7.352590e-04 -9.916573e-03 3.480535e-04 -8.142436e-03 -4.264680e-04 -6.529013e-03 -1.350014e-03 -3.145712e-03 -6.413311e-04 1.647362e-03 1.325065e-03 5.839508e-03 2.250484e-03 8.828158e-03 6.472490e-04 1.227560e-02 -3.137488e-03 1.877753e-02 -7.418608e-03 2.844624e-02 -1.084282e-02 3.809347e-02 -8.627772e-03 4.175850e-02 -7.542598e-04 4.098155e-02 1.031749e-02 4.054136e-02 2.359470e-02 4.257889e-02 3.950668e-02 4.706766e-02 5.951863e-02 5.323381e-02 8.595800e-02 5.849688e-02 
1.023254e-01 -5.210549e-03 3.385189e-01 -4.034206e-01 -1.222868e+01 6.902828e-02 -6.032594e-02 -5.804604e-02 -8.420816e-02 -6.624403e-02 -6.162237e-02 -6.146424e-02 -4.002763e-02 -5.674360e-02 -2.351407e-02 -5.101408e-02 -1.354528e-02 -4.294320e-02 -7.995252e-03 -3.460292e-02 -5.221244e-03 -2.767722e-02 -4.191869e-03 -2.170783e-02 -3.406038e-03 -1.617461e-02 -2.059713e-03 -1.144784e-02 -5.254915e-04 -8.228071e-03 2.247898e-04 -6.319765e-03 -6.611329e-05 -4.572945e-03 -5.966556e-04 -1.939719e-03 -4.038058e-04 1.448058e-03 4.005877e-04 4.649957e-03 6.101951e-04 7.424583e-03 -7.212434e-04 1.069170e-02 -3.492285e-03 1.572954e-02 -6.552046e-03 2.243778e-02 -8.395811e-03 2.892040e-02 -6.306788e-03 3.198968e-02 -6.232297e-04 3.220635e-02 7.456092e-03 3.211028e-02 1.746718e-02 3.324681e-02 2.971164e-02 3.591538e-02 4.513765e-02 3.977145e-02 6.536142e-02 4.283778e-02 
6.588924e-02 -1.088247e-02 2.427752e-01 -3.030283e-01 -7.674649e+00 8.733706e-02 -1.218769e-02 -3.231097e-02 -4.929503e-02 -4.535377e-02 -3.573136e-02 -4.271281e-02 -2.135548e-02 -3.965308e-02 -1.066290e-02 -3.569285e-02 -4.608647e-03 -3.006423e-02 -1.655533e-03 -2.415086e-02 -6.239101e-04 -1.914274e-02 -7.039827e-04 -1.481400e-02 -7.897316e-04 -1.086024e-02 -3.021636e-04 -7.571983e-03 4.393999e-04 -5.405697e-03 6.864653e-04 -4.152976e-03 2.310471e-04 -2.946583e-03 -3.528129e-04 -1.067499e-03 -4.048625e-04 1.346419e-03 -6.406141e-05 3.637282e-03 -2.487631e-04 5.683684e-03 -1.666575e-03 8.178010e-03 -4.212411e-03 1.195480e-02 -7.000424e-03 1.681406e-02 -8.848024e-03 2.135384e-02 -7.959873e-03 2.353965e-02 -4.330245e-03 2.346859e-02 1.173870e-03 2.283057e-02 8.069848e-03 2.289602e-02 1.641048e-02 2.406963e-02 2.673138e-02 2.621031e-02 4.009632e-02 2.778594e-02 
3.070364e-02 -1.536096e-02 1.400808e-01 -1.842338e-01 -3.082770e+00 9.549660e-02 3.112440e-02 -5.351417e-03 -1.633835e-02 -2.285482e-02 -1.200003e-02 -2.269754e-02 -5.069835e-03 -2.176742e-02 -1.373908e-04 -2.012081e-02 2.327314e-03 -1.740511e-02 3.113793e-03 -1.424149e-02 2.894125e-03 -1.129770e-02 2.145272e-03 -8.642889e-03 1.468554e-03 -6.239360e-03 1.206593e-03 -4.271894e-03 1.209130e-03 -2.959533e-03 1.052635e-03 -2.163950e-03 5.593331e-04 -1.403658e-03 -2.988542e-05 -2.770397e-04 -3.899680e-04 1.172997e-03 -5.969131e-04 2.635205e-03 -1.157461e-03 4.058855e-03 -2.500949e-03 5.800406e-03 -4.574696e-03 8.249404e-03 -6.781421e-03 1.121756e-02 -8.246254e-03 1.383611e-02 -7.977345e-03 1.492190e-02 -6.088417e-03 1.444718e-02 -3.112833e-03 1.332032e-02 5.937746e-04 1.237489e-02 4.944921e-03 1.199703e-02 1.011422e-02 1.220856e-02 1.660546e-02 1.200721e-02 
-5.970348e-03 -2.108282e-02 4.213949e-02 -8.333740e-02 1.548394e+00 1.183812e-01 8.142618e-02 2.285402e-02 1.830193e-02 -7.391731e-04 1.345740e-02 -3.318870e-03 1.347804e-02 -4.716186e-03 1.300810e-02 -5.320933e-03 1.156741e-02 -4.919131e-03 9.579087e-03 -3.951090e-03 7.418033e-03 -2.910056e-03 5.353310e-03 -1.904944e-03 3.733812e-03 -9.694209e-04 2.719938e-03 -2.756136e-04 2.116372e-03 1.285396e-05 1.546883e-03 3.877976e-06 8.320050e-04 4.205736e-05 1.071989e-04 3.907520e-04 -4.360372e-04 9.918092e-04 -8.993571e-04 1.614677e-03 -1.686809e-03 2.226503e-03 -3.131154e-03 3.073625e-03 -5.194512e-03 4.387857e-03 -7.439885e-03 5.973171e-03 -9.242440e-03 7.169644e-03 -9.970155e-03 7.155193e-03 -9.710528e-03 5.815318e-03 -8.969043e-03 3.740103e-03 -8.217240e-03 1.570438e-03 -7.784133e-03 -3.295031e-04 -7.857199e-03 -1.860219e-03 -8.438703e-03 -3.615169e-03 
-4.266063e-02 -2.542006e-02 -6.148562e-02 3.353522e-02 6.136926e+00 1.241545e-01 1.243332e-01 4.932582e-02 5.220568e-02 2.169566e-02 3.842339e-02 1.646155e-02 3.138497e-02 1.268378e-02 2.547291e-02 9.711825e-03 2.020897e-02 7.646819e-03 1.561948e-02 6.276194e-03 1.173211e-02 5.306945e-03 8.536374e-03 4.589995e-03 6.078695e-03 4.024499e-03 4.335105e-03 3.467274e-03 3.110797e-03 2.802576e-03 2.120039e-03 2.067418e-03 1.183809e-03 1.429027e-03 3.026410e-04 1.016283e-03 -4.739287e-04 7.905419e-04 -1.238935e-03 6.186751e-04 -2.244902e-03 4.599017e-04 -3.708403e-03 4.094529e-04 -5.626737e-03 5.396374e-04 -7.748039e-03 6.797606e-04 -9.712221e-03 3.906115e-04 -1.125050e-02 -8.462299e-04 -1.256424e-02 -3.139599e-03 -1.412535e-02 -6.170940e-03 -1.645260e-02 -9.525036e-03 -2.006010e-02 -1.290214e-02 -2.546363e-02 -1.614591e-02 -3.316750e-02 -1.939653e-02 