# vtk DataFile Version 2.0
Comment goes here
ASCII

DATASET STRUCTURED_POINTS
FIELD FieldData 1
TIME 1 1 double
0.08900000
DIMENSIONS    64   64   1

ORIGIN    0.000   0.000   0.000
SPACING   0.03125 0.03125   1.000

POINT_DATA   4096
SCALARS Omega double
LOOKUP_TABLE default

-1.713376e+00 -9.545086e+00 -4.334112e+00 -7.648471e-01 6.432790e-01 -3.302364e-01 6.865044e-01 -9.325365e-01 7.798690e-01 -4.592532e-01 2.226256e+00 4.707343e+00 7.532491e+00 5.642733e+00 7.751418e+01 4.001440e+01 -7.017004e+01 3.351242e+01 5.332904e+01 -2.532035e+01 3.133821e-01 7.312883e-01 1.010014e+00 4.598391e+00 6.851628e-01 2.721753e+00 3.248774e+00 2.332943e-01 3.503019e+00 5.324504e-01 2.028347e+00 1.911295e+00 8.969257e-01 1.792619e+00 9.567806e-01 1.315501e+00 1.334896e+00 6.198121e-01 1.363665e+00 5.545561e-01 1.316982e+00 1.624034e+00 8.810471e-01 2.003597e+00 7.006888e-01 1.757833e+00 7.994507e-01 9.484879e-01 4.427410e-01 1.057420e-01 -3.873594e-01 2.717861e-01 -6.990445e-01 2.640173e-01 -9.671305e-01 1.243058e-01 -1.125579e+00 8.098904e-02 -1.153535e+00 1.002996e-01 -1.624316e+00 -4.959064e-01 2.944373e+00 6.751664e+00 
-2.360859e+01 -5.653470e+01 -3.105398e+01 -4.757345e+01 -2.636124e+01 -4.694324e+01 -3.155592e+01 -4.010307e+01 -3.836396e+01 -3.180755e+01 -4.192846e+01 -1.770940e+01 -3.745360e+01 -1.539699e+01 -8.745288e+01 -1.408538e+01 -9.761194e+00 5.912991e+00 -5.222849e+01 4.396162e+01 -4.140490e+01 1.190055e+01 -8.527968e+01 -5.728721e-02 -1.053210e+02 -4.449072e+00 -1.116719e+02 -4.051528e+00 -1.136233e+02 -5.726924e-01 -1.166041e+02 3.684331e+00 -1.185427e+02 7.940701e+00 -1.193550e+02 9.917232e+00 -1.186853e+02 1.054859e+01 -1.163657e+02 9.782272e+00 -1.147167e+02 8.394852e+00 -1.128616e+02 7.208931e+00 -1.099211e+02 4.506966e+00 -1.048336e+02 7.438289e-01 -9.787940e+01 -4.157300e+00 -9.003001e+01 -9.692673e+00 -8.223003e+01 -1.505239e+01 -7.514917e+01 -1.957177e+01 -6.821384e+01 -2.425110e+01 -6.054965e+01 -2.977772e+01 -5.202110e+01 -3.652387e+01 -3.891075e+01 -4.006554e+01 
-9.660031e+01 8.557886e+00 -7.014242e+01 1.354426e+01 -1.904854e+01 1.871356e+01 -8.685552e+01 3.396930e+00 -1.029433e+02 3.541026e+00 -1.116163e+02 4.664872e+00 -1.236300e+02 -2.361267e+01 -2.239718e+02 1.034102e+01 5.370415e+01 3.589499e+01 -1.672892e+02 2.613566e+01 -1.149864e+02 -7.123098e+00 -1.405494e+02 -2.926730e+01 -1.534110e+02 -3.960468e+01 -1.568343e+02 -4.320798e+01 -1.556270e+02 -4.405758e+01 -1.547229e+02 -4.330551e+01 -1.546338e+02 -4.208267e+01 -1.537003e+02 -4.213126e+01 -1.524986e+02 -4.196175e+01 -1.515447e+02 -4.148387e+01 -1.510163e+02 -4.168891e+01 -1.510720e+02 -4.106618e+01 -1.509648e+02 -3.988367e+01 -1.499313e+02 -3.826685e+01 -1.472918e+02 -3.632570e+01 -1.448077e+02 -3.176955e+01 -1.404354e+02 -2.663726e+01 -1.350703e+02 -2.226417e+01 -1.291480e+02 -1.813314e+01 -1.226823e+02 -1.404958e+01 -1.146823e+02 -1.018735e+01 -1.027146e+02 4.577291e+00 
-5.130529e+01 6.451997e+00 -3.872858e+01 1.283900e+01 -4.841211e+01 9.980715e+00 -2.925075e+01 2.255183e+01 -4.345379e+01 1.839257e+01 -5.043084e+01 1.448765e+01 -5.847283e+01 1.860731e+00 -9.301087e+01 1.249092e+01 3.840148e+00 1.767429e+01 -7.644330e+01 3.047665e+00 -5.809115e+01 -7.839666e+00 -6.164742e+01 -1.676000e+01 -6.416215e+01 -2.204441e+01 -6.468552e+01 -2.440810e+01 -6.372281e+01 -2.530762e+01 -6.267016e+01 -2.540953e+01 -6.146597e+01 -2.634506e+01 -6.054794e+01 -2.658898e+01 -5.937344e+01 -2.599893e+01 -5.930449e+01 -2.541655e+01 -5.924795e+01 -2.337477e+01 -5.889584e+01 -2.349484e+01 -5.919820e+01 -2.299440e+01 -5.943553e+01 -2.144690e+01 -6.020298e+01 -1.951130e+01 -5.948039e+01 -1.730242e+01 -5.901360e+01 -1.403435e+01 -5.789931e+01 -1.008192e+01 -5.628581e+01 -7.104514e+00 -5.458298e+01 -4.612616e+00 -5.318472e+01 -9.984392e-01 -4.887995e+01 3.835481e-01 
-5.475728e+00 2.422433e+00 -4.965980e+00 -1.947025e+01 -8.121016e+01 -9.643807e+00 1.937388e+01 3.675929e+00 4.970153e+00 1.532563e+00 2.280925e-01 5.737443e-02 -5.858802e-01 3.690452e+00 -2.753239e+00 8.196209e+00 -6.391677e+00 -2.695381e+00 -4.843629e+00 -3.326426e+00 -3.494213e+00 2.054024e-01 -2.781943e+00 4.553330e-01 -3.530228e+00 1.940987e-01 -3.507212e+00 -7.000620e-01 -3.526682e+00 -9.523799e-01 -3.484914e+00 -1.126231e+00 -2.658284e+00 -1.545355e+00 -2.304789e+00 -1.157845e+00 -2.022817e+00 -1.543469e+00 -1.767558e+00 -1.654983e+00 -2.007650e+00 -9.585814e-01 -1.887023e+00 -1.105638e+00 -1.410963e+00 -1.226265e+00 -9.701495e-01 -2.465897e+00 -9.810468e-01 -4.896513e+00 -4.964748e-01 -2.468275e+00 -3.880173e-01 -6.410288e-01 -3.486026e-01 4.649414e-01 -7.399622e-01 1.090375e+00 -1.446211e+00 1.712155e+00 -2.392276e+00 3.465097e+00 -4.893672e+00 4.776856e+00 
-4.776090e+00 4.228717e+00 -4.252394e+00 -1.832473e+01 -1.021102e+02 -9.712848e+00 1.360568e+01 -3.973320e+00 8.386326e+00 -2.614858e+00 5.335241e+00 -4.625883e+00 5.663782e+00 -2.841133e+00 4.069774e+00 9.188759e+00 -5.716902e+00 -4.831864e+00 2.609886e+00 -7.790772e-01 3.129708e+00 5.297979e+00 2.356593e+00 2.779387e+00 1.127096e+00 2.420005e+00 8.462292e-01 7.041292e-01 4.770203e-01 1.491481e+00 -9.097639e-02 1.563324e+00 4.533839e-01 -9.021773e-02 6.979369e-01 6.691421e-01 5.992255e-01 -2.347272e-01 8.671625e-01 1.253896e-01 1.693547e-01 2.324817e+00 -5.092057e-01 1.540828e+00 8.731076e-03 1.152013e+00 3.461094e-01 -9.444658e-01 -6.449191e-01 -1.297517e+00 -5.620824e-01 -3.164906e+00 1.780059e+00 2.419685e+00 1.151064e+00 3.426102e+00 -1.001971e+00 2.182468e+00 -2.110332e+00 2.137936e+00 -2.659078e+00 2.907958e+00 -3.749224e+00 4.627823e+00 
-4.160956e+00 1.699999e+00 -8.009893e-01 -1.817384e+01 -1.181993e+02 -5.502238e+00 9.666955e+00 -4.879159e+00 7.139366e+00 -3.660279e+00 3.890136e+00 -9.380639e+00 5.631643e+00 -2.683084e+01 1.470925e+01 -1.831604e+01 -4.443124e+00 -7.812344e+01 -4.341724e+02 -4.327930e+02 -7.280070e+01 3.260588e+00 4.184522e+00 1.974711e+01 1.326270e+01 1.852786e+01 1.209314e+01 1.610048e+01 7.966483e+00 1.398765e+01 1.013999e+01 1.204184e+01 1.256624e+01 9.320815e+00 1.201254e+01 9.910397e+00 1.156703e+01 8.726245e+00 8.974412e+00 8.981317e+00 8.189106e+00 7.763905e+00 1.125510e+01 5.606090e+00 1.259037e+01 3.038196e+00 1.447309e+01 -1.778724e+00 7.956956e+00 -3.197235e+00 5.057197e+00 -1.324888e+01 -3.727747e+00 2.745741e-01 3.558360e-01 5.216642e+00 -1.688282e+00 2.637892e+00 -2.988231e+00 2.053026e+00 -3.477772e+00 2.686732e+00 -4.296404e+00 3.215802e+00 
-4.035327e+00 5.634467e-01 -4.146709e-01 -1.508031e+01 -1.294574e+02 -3.837049e+00 4.762215e+00 -4.898754e+00 4.009595e+00 -3.877193e+00 3.249759e+00 -1.463147e+01 1.315291e+01 -4.787242e+01 3.004566e+01 -4.630860e+01 -2.457645e+01 -3.947051e+02 -1.128617e+03 -7.651639e+02 6.946380e+01 1.697573e+01 3.997422e+01 6.126449e+01 5.782446e+01 6.110291e+01 5.611375e+01 6.211796e+01 4.560554e+01 5.025785e+01 6.388174e+01 5.419085e+01 6.202495e+01 5.734744e+01 5.789861e+01 6.243077e+01 5.850579e+01 6.024472e+01 4.722334e+01 5.537432e+01 5.927586e+01 4.451825e+01 6.472829e+01 5.454709e+01 6.274317e+01 5.990732e+01 5.799190e+01 5.509992e+01 2.948162e+01 5.915184e+01 3.744728e+01 7.559687e+01 1.832454e+01 2.633399e+01 -2.722482e+00 2.248947e+00 -5.440203e+00 1.186037e-01 -3.784894e+00 1.900802e+00 -3.281499e+00 3.271078e+00 -3.959912e+00 3.701220e+00 
-2.678524e+00 -1.077964e+00 1.864345e+00 -1.387283e+01 -1.382815e+02 -2.127911e+00 3.967805e+00 -3.900710e+00 3.871144e+00 -2.645264e+00 5.330581e+00 -3.985339e+00 1.058826e+01 -1.366994e+01 1.946978e+01 -2.147723e+01 -6.302820e+01 -5.347361e+02 -4.958507e+02 3.194488e+02 5.051658e+02 8.499957e+01 7.788713e+01 3.913247e+01 4.970122e+01 3.136876e+01 5.098109e+01 3.964461e+01 4.376015e+01 4.039987e+01 5.451663e+01 4.769661e+01 5.836512e+01 4.799299e+01 5.382306e+01 5.651634e+01 5.584246e+01 5.789822e+01 4.580585e+01 5.971397e+01 5.088026e+01 5.742031e+01 6.094578e+01 6.091451e+01 6.027063e+01 6.665339e+01 6.758145e+01 6.185830e+01 3.960954e+01 1.650824e+02 4.704744e+01 1.298272e+02 -7.222496e+00 1.295135e+01 -1.350122e+01 -7.194533e+00 -7.927155e+00 -3.419726e+00 -3.869300e+00 9.491900e-01 -3.039697e+00 2.927701e+00 -3.440560e+00 3.087088e+00 
-1.864572e+00 -1.921654e+00 2.555424e+00 -1.157864e+01 -1.446398e+02 -1.689561e+00 3.168982e+00 -4.433434e+00 3.676731e+00 -1.093304e+00 3.902213e+00 1.322193e+01 -5.565247e+00 4.123839e+01 -2.066863e+01 3.841973e+01 -4.245512e+01 -1.435106e+02 6.795824e+02 1.163774e+03 4.512620e+02 8.430551e+01 1.111697e+01 -4.508694e+01 -4.498856e+01 -5.801803e+01 -4.346710e+01 -5.341485e+01 -3.379208e+01 -4.561536e+01 -4.662473e+01 -4.755695e+01 -4.800951e+01 -4.319813e+01 -4.371296e+01 -4.528627e+01 -4.444466e+01 -3.954006e+01 -3.661691e+01 -3.606088e+01 -4.254672e+01 -3.122584e+01 -4.976272e+01 -3.171611e+01 -4.741932e+01 -3.271282e+01 -4.228347e+01 -1.792576e+01 -2.915342e+01 -6.581750e+01 -1.926488e+01 -2.127772e+01 -1.757452e+00 5.842007e+00 1.704452e+00 5.624874e+00 1.679706e-01 3.411125e+00 -1.262952e+00 3.072338e+00 -2.208388e+00 3.439112e+00 -2.856599e+00 2.842481e+00 
-4.905846e-01 -2.832034e+00 3.970960e+00 -1.004167e+01 -1.485312e+02 -5.501753e-01 2.899077e+00 -3.804810e+00 2.203897e+00 -2.717457e+00 1.408418e+00 9.838815e+00 -9.488386e+00 4.086035e+01 -2.692093e+01 3.334364e+01 -8.918193e+00 1.060310e+02 4.791680e+02 5.022529e+02 5.452757e+01 1.240413e+01 -3.519546e+01 -4.319142e+01 -6.041318e+01 -5.393944e+01 -6.047964e+01 -5.893580e+01 -5.116873e+01 -5.211019e+01 -6.920686e+01 -5.649371e+01 -6.833932e+01 -6.033191e+01 -6.415087e+01 -6.732301e+01 -6.551543e+01 -6.683864e+01 -5.369069e+01 -6.598239e+01 -6.493198e+01 -5.525406e+01 -7.365176e+01 -6.404273e+01 -7.328094e+01 -6.772732e+01 -7.613339e+01 -7.049406e+01 -4.110203e+01 -1.324965e+02 -5.180020e+01 -1.280775e+02 -1.927519e+00 -1.093718e+01 8.516429e+00 1.155848e+01 4.145878e+00 8.250859e+00 -9.647308e-02 4.730002e+00 -1.877404e+00 3.617851e+00 -2.240626e+00 2.277667e+00 
5.525134e-01 -3.310757e+00 4.528409e+00 -7.661956e+00 -1.509832e+02 4.849232e-01 1.803372e+00 -2.563960e+00 -5.758135e-02 -3.382496e+00 -1.042859e+00 -1.182796e+00 -3.961897e+00 4.903503e+00 -9.875573e+00 4.456649e+00 -4.722282e+00 1.060302e+01 -2.277248e+01 -6.144913e+00 -1.390977e+01 1.294009e+00 -1.354463e+01 -7.022508e-01 -1.358536e+01 -5.467415e+00 -1.334311e+01 -8.751396e+00 -1.143216e+01 -1.030176e+01 -1.480290e+01 -1.006758e+01 -1.681186e+01 -1.192235e+01 -1.563215e+01 -1.676786e+01 -1.509577e+01 -1.860026e+01 -1.194483e+01 -2.005118e+01 -1.361604e+01 -1.804157e+01 -1.675243e+01 -2.137635e+01 -1.649979e+01 -2.494916e+01 -1.701407e+01 -2.443945e+01 -7.940537e+00 -1.759732e+01 -1.936527e+01 -3.940395e+01 -1.240452e+01 -2.339402e+01 -1.630884e+00 -1.494874e+00 1.857426e+00 4.846739e+00 3.293350e-01 4.522212e+00 -1.157001e+00 3.634417e+00 -1.452910e+00 1.801666e+00 
1.808299e+00 -3.531837e+00 5.262570e+00 -5.868047e+00 -1.513603e+02 1.475869e+00 1.411392e+00 -1.754381e+00 -1.439060e+00 -3.319203e+00 -2.921787e+00 -3.144511e+00 -3.127300e+00 -7.236509e+00 -3.175666e-01 -9.502748e+00 1.524546e+00 1.664853e+00 -6.491047e-01 2.342957e+00 -1.303903e+00 3.212252e-01 -1.866758e+00 6.049721e-01 -9.851662e-01 -3.760206e-01 -1.035786e+00 4.090338e-01 -2.734168e-01 -7.607324e-01 2.799613e-01 -8.552793e-02 -9.984953e-01 1.009047e+00 -6.937688e-01 -1.136216e+00 -3.018174e-01 -8.377418e-01 1.217464e-01 -1.869754e+00 1.307768e+00 -3.136341e+00 2.244721e-01 -1.241812e+00 -7.556563e-01 -2.387824e+00 -1.224998e+00 -1.021180e+00 1.063783e+00 2.551521e+00 -3.713970e-01 5.137235e+00 4.194139e-01 -4.741161e+00 -3.406329e-01 -2.485208e+00 6.511072e-01 2.583007e+00 3.483732e-02 3.849023e+00 -8.717727e-01 3.355460e+00 -6.954298e-01 1.223051e+00 
2.746237e+00 -3.688228e+00 5.676816e+00 -4.216666e+00 -1.511659e+02 2.321361e+00 1.076744e+00 -1.696185e+00 -1.619447e+00 -5.616963e+00 -2.113692e+00 -7.458553e+00 -6.975154e-01 -6.656381e+00 -1.950003e-01 -3.819032e+00 2.657818e+00 -1.871265e-01 -1.661939e+00 5.247470e-01 1.274271e+00 1.831223e+00 -9.826811e-01 2.614512e+00 7.540920e-01 4.289567e-01 3.558441e-01 7.718931e-01 8.714958e-01 5.927925e-01 7.859621e-01 2.008179e+00 -3.157618e-01 1.141871e+00 3.663570e-01 -1.155537e+00 6.125199e-01 -4.819066e-01 9.668626e-01 -7.485126e-01 1.699064e+00 3.969977e-01 7.030616e-01 2.105645e+00 -6.179550e-02 2.589518e-01 -3.674161e-02 -1.164054e-01 4.811792e-01 1.385327e+00 -2.637922e-01 1.207411e+00 5.496478e-01 -6.125532e-01 8.549586e-01 5.103973e-01 -2.656192e-01 1.673875e+00 -7.672379e-01 2.548317e+00 -8.479779e-01 2.520969e+00 -6.124969e-02 4.893193e-01 
3.787160e+00 -3.660913e+00 5.968604e+00 -2.377898e+00 -1.490840e+02 2.915537e+00 8.074641e-01 -2.254591e-01 -2.043747e+00 -5.039713e+00 -2.279055e+00 -1.158387e+01 1.121323e+00 -1.504306e+01 4.395788e-01 -8.550374e+00 4.263234e+00 -1.298155e+01 -1.517299e+00 6.040221e+00 -1.545720e+02 -3.042715e+02 -1.447508e+02 -6.514134e-02 -4.281091e+00 1.315924e+01 7.966532e+00 1.324143e+01 8.235684e+00 9.500580e+00 7.487116e+00 6.122513e+00 8.797742e+00 8.604793e+00 9.171503e+00 8.855601e+00 8.341716e+00 8.713724e+00 8.695895e+00 5.788999e+00 8.533601e+00 3.045424e+00 9.540190e+00 3.871561e+00 1.011569e+01 6.256789e+00 9.360111e+00 7.260159e+00 8.738993e+00 6.100908e+00 2.857559e+00 3.168662e+00 4.765350e+00 4.324693e+00 2.762578e+00 3.464582e+00 -5.993362e-01 1.906502e+00 -1.265113e+00 1.888574e+00 -7.624890e-01 1.782651e+00 6.537702e-01 -3.048241e-01 
4.529914e+00 -3.384090e+00 6.076913e+00 -8.850394e-01 -1.465768e+02 3.248478e+00 7.101789e-01 5.534262e-01 -2.176628e+00 -4.084233e+00 -1.725823e+00 -1.270932e+01 4.118948e+00 -2.093080e+01 4.861085e+00 -1.755250e+01 1.147444e+01 -2.809173e+01 7.810931e+00 -1.653334e+02 -6.192330e+02 -5.639612e+02 7.144838e+01 1.470211e+02 1.682361e+01 4.895826e+01 3.118253e+01 3.707219e+01 2.839616e+01 2.910461e+01 2.666503e+01 1.475210e+01 3.509519e+01 2.849296e+01 3.485873e+01 3.998299e+01 3.064205e+01 4.006957e+01 3.087887e+01 3.235502e+01 2.730281e+01 1.754475e+01 3.484925e+01 1.834794e+01 3.789276e+01 3.884152e+01 3.216814e+01 5.186412e+01 3.004599e+01 4.148152e+01 7.161346e+00 4.011527e+01 2.656092e+01 4.539492e+01 5.317669e+00 5.748990e+00 -4.354970e+00 -9.493623e-01 -2.409075e+00 4.017422e-01 -5.900556e-01 9.744760e-01 1.347087e+00 -9.546550e-01 
5.274079e+00 -3.024988e+00 6.177245e+00 1.818691e-01 -1.426930e+02 3.098588e+00 1.273229e+00 4.936984e-01 -1.029973e+00 -1.879987e+00 -1.426431e+00 -2.429521e+00 9.780339e-01 -4.485560e+00 5.115022e+00 -6.684315e+00 8.573563e+00 -1.071660e+01 1.169550e+01 -3.357856e+02 -6.060180e+02 4.878041e+01 6.429073e+02 2.838797e+02 5.000484e+01 4.420391e+01 2.261163e+01 1.352603e+01 1.775878e+01 1.312682e+01 1.710729e+01 7.102646e+00 2.231240e+01 1.588376e+01 2.373105e+01 2.672624e+01 1.957864e+01 2.864675e+01 1.941926e+01 2.586476e+01 1.588038e+01 1.712873e+01 2.075420e+01 1.822724e+01 2.571252e+01 3.502715e+01 2.202414e+01 5.130418e+01 1.543959e+01 4.319503e+01 4.644198e+00 5.036464e+01 2.058900e+01 4.636395e+01 -3.017697e-01 4.304420e+00 -5.342082e+00 -2.172796e+00 -2.214435e+00 -4.805555e-01 -6.283195e-02 2.683127e-01 2.151875e+00 -1.571470e+00 
5.649699e+00 -2.577012e+00 6.151038e+00 8.637798e-01 -1.382435e+02 2.625300e+00 1.899696e+00 1.138754e-01 -1.515989e-01 -2.837056e-02 -3.013797e+00 7.890901e+00 -7.095260e+00 1.437040e+01 -3.119969e+00 1.016065e+01 -8.342566e+00 2.184485e+01 -1.042887e-01 -1.728952e+02 -2.279766e+01 5.696382e+02 5.397013e+02 1.364106e+02 2.237672e+01 -1.687037e+01 -2.310623e+01 -3.788469e+01 -2.464691e+01 -2.934012e+01 -2.226320e+01 -1.498480e+01 -3.140612e+01 -2.554434e+01 -3.187628e+01 -3.512297e+01 -2.690404e+01 -3.384596e+01 -2.706202e+01 -2.604171e+01 -2.335789e+01 -1.208096e+01 -3.082155e+01 -1.108784e+01 -3.586829e+01 -2.583807e+01 -3.195578e+01 -3.871100e+01 -2.382118e+01 -2.577870e+01 -1.202277e+01 -3.307956e+01 -2.088408e+01 -2.377722e+01 -2.500931e+00 2.112540e+00 1.864628e+00 3.175584e+00 9.582358e-01 1.696806e+00 9.910421e-01 4.713473e-01 2.804695e+00 -1.827029e+00 
5.972169e+00 -2.163715e+00 6.059581e+00 1.727887e+00 -1.323905e+02 2.814196e+00 1.665319e+00 5.191604e-01 -5.953484e-01 -1.116173e+00 -3.543542e+00 2.068261e+00 -6.726362e+00 6.152939e+00 -6.080517e+00 7.091987e+00 -1.279398e+01 1.552845e+01 -5.787941e+00 4.040876e-01 1.133434e+02 2.565898e+02 1.054313e+02 2.726004e+00 -8.385791e+00 -2.393098e+01 -2.639245e+01 -2.857336e+01 -2.621883e+01 -2.393512e+01 -2.490251e+01 -1.363746e+01 -3.179056e+01 -2.518418e+01 -3.143575e+01 -3.595676e+01 -2.817406e+01 -3.749722e+01 -2.803693e+01 -3.148797e+01 -2.435157e+01 -1.870463e+01 -3.158521e+01 -1.900109e+01 -3.521819e+01 -3.977602e+01 -3.029086e+01 -5.391346e+01 -2.802550e+01 -4.415631e+01 -5.996167e+00 -4.474262e+01 -2.740631e+01 -4.988323e+01 -4.946541e+00 -3.053872e+00 4.080104e+00 4.621601e+00 2.212146e+00 2.770951e+00 1.578996e+00 5.635303e-01 3.352388e+00 -2.018902e+00 
6.116205e+00 -1.513245e+00 5.778466e+00 2.769174e+00 -1.259206e+02 3.065892e+00 1.117599e+00 1.451696e+00 -1.292808e+00 -1.142086e+00 -3.236310e+00 -3.621593e+00 -3.291760e+00 -4.978175e+00 -3.350419e+00 -2.857670e+00 -5.191754e+00 -1.926257e+00 -2.629373e+00 2.314571e+00 -7.061885e+00 -7.197396e-01 -5.332159e+00 -5.564597e-02 -5.061351e+00 -7.630340e-01 -4.479302e+00 -1.837933e+00 -4.278542e+00 -2.123350e+00 -3.911697e+00 -3.101887e+00 -4.562577e+00 -3.877698e+00 -5.175710e+00 -4.815609e+00 -4.270779e+00 -6.269376e+00 -4.009993e+00 -5.901768e+00 -3.307308e+00 -6.364205e+00 -3.716320e+00 -7.454140e+00 -4.671981e+00 -9.358493e+00 -4.270038e+00 -9.813811e+00 -4.314673e+00 -8.515219e+00 3.985156e-01 -6.410329e+00 -6.587108e+00 -1.314028e+01 -3.569767e+00 -4.699037e+00 8.265454e-01 9.355952e-01 1.543295e+00 1.640503e+00 1.919860e+00 2.428391e-01 3.843606e+00 -2.053410e+00 
6.150735e+00 -9.364069e-01 5.605032e+00 3.215793e+00 -1.186415e+02 3.104610e+00 1.107220e+00 1.481185e+00 -1.290327e+00 -9.625871e-01 -3.055349e+00 -3.051459e+00 -2.544449e+00 -4.663558e+00 -1.697722e+00 -3.724539e+00 -1.797030e+00 -4.916651e+00 3.808493e-01 4.368052e-01 3.130491e-01 3.259272e-02 -7.614272e-01 -1.312866e+00 -9.057315e-01 -5.578002e-02 -6.362090e-01 1.850585e-01 -8.402290e-01 -1.624935e-01 -3.186961e-01 -1.876292e+00 3.757881e-01 -8.692024e-01 -1.141717e-01 7.545106e-01 -1.129982e-01 4.076327e-01 -3.272643e-01 2.233948e-01 -1.945146e-01 -2.008967e+00 7.273228e-01 -2.799763e+00 5.637541e-01 1.844318e-01 -2.365235e-01 1.897777e+00 -4.869777e-01 1.080065e+00 6.625423e-01 2.873826e+00 -3.351591e-01 2.251254e-01 -1.744022e+00 -2.738641e+00 5.711493e-02 -4.868970e-01 1.276600e+00 7.579980e-01 2.134250e+00 -1.481759e-01 4.193083e+00 -2.054850e+00 
5.992713e+00 -5.549923e-01 5.352752e+00 3.481480e+00 -1.109017e+02 3.043727e+00 1.073269e+00 1.220160e+00 -9.447421e-01 -1.544901e+00 -2.370821e+00 -3.120396e+00 -2.332922e+00 -3.243487e+00 -1.647134e+00 -3.129727e+00 -7.933864e-01 -2.673576e+00 1.373393e-02 -1.322450e+00 1.137771e-01 -5.662994e-01 -1.921482e-02 -6.986938e-01 -3.146044e-01 -3.134587e-01 -3.064316e-01 -1.999177e-01 -3.596123e-01 -4.391351e-01 -4.295108e-02 -9.573667e-01 1.644630e-01 -4.179658e-01 -1.023932e-01 2.972448e-01 -5.779986e-02 2.884841e-01 -1.328713e-01 6.442776e-02 8.692458e-02 -7.550772e-01 4.250381e-01 -5.953587e-01 1.806893e-03 9.712262e-01 -4.285555e-01 1.719023e+00 -3.301762e-01 1.477396e+00 -6.805282e-02 1.959267e+00 -2.361277e-01 1.111316e+00 -5.444132e-01 -6.566595e-01 2.740438e-02 -4.456808e-01 8.879960e-01 8.485167e-02 2.045620e+00 -6.620321e-01 4.268883e+00 -2.109646e+00 
5.776196e+00 -2.500048e-01 5.088655e+00 3.626571e+00 -1.024132e+02 2.846165e+00 1.102465e+00 1.313396e+00 -7.095592e-01 -1.266772e+00 -2.020475e+00 -2.841760e+00 -2.078653e+00 -2.943755e+00 -1.568688e+00 -2.805749e+00 -8.146699e-01 -2.294921e+00 -2.466568e-01 -1.840351e+00 -9.986084e-04 -7.167482e-01 5.256696e-03 -3.771377e-01 -2.541687e-01 -3.284708e-01 -2.786447e-01 -3.095800e-01 -2.581113e-01 -4.666396e-01 -1.312627e-02 -6.100889e-01 8.884068e-02 -2.034602e-01 -8.388870e-02 1.324590e-01 -6.420404e-02 1.316037e-01 -7.980866e-02 -6.565614e-02 1.067901e-01 -4.091213e-01 2.747793e-01 -3.320780e-02 -7.092589e-02 8.902910e-01 -2.992435e-01 1.229869e+00 -2.502726e-01 1.431234e+00 -1.336906e-01 1.287834e+00 -2.804224e-01 1.101175e+00 -3.138487e-01 5.335964e-02 2.856693e-02 -2.899547e-01 7.680866e-01 -2.165157e-01 2.034278e+00 -9.946375e-01 4.297832e+00 -2.111637e+00 
5.400945e+00 -1.066725e-01 4.756996e+00 3.554274e+00 -9.352139e+01 2.529741e+00 1.143762e+00 1.157925e+00 -4.673281e-01 -1.094971e+00 -1.739162e+00 -2.366122e+00 -1.936108e+00 -2.544736e+00 -1.461977e+00 -2.385894e+00 -8.743927e-01 -1.951529e+00 -4.625794e-01 -1.638666e+00 -2.752238e-01 -9.663884e-01 -1.170370e-01 -5.777304e-01 -1.931509e-01 -4.206947e-01 -1.815853e-01 -3.769843e-01 -1.288952e-01 -4.082787e-01 -5.533991e-03 -3.916135e-01 3.547051e-03 -1.768854e-01 -9.140950e-02 -2.965753e-03 -4.253624e-02 1.594904e-02 1.362010e-02 -4.910188e-02 1.244486e-01 -7.706273e-02 1.231820e-01 2.284270e-01 -1.491844e-01 7.001698e-01 -2.854538e-01 8.941267e-01 -2.133024e-01 1.007394e+00 -1.849896e-01 9.103074e-01 -1.630411e-01 9.112213e-01 -2.454385e-02 4.337076e-01 2.060522e-01 3.605492e-02 7.442231e-01 -2.512309e-01 1.945050e+00 -1.167044e+00 4.128508e+00 -2.071422e+00 
4.990619e+00 1.428264e-02 4.373701e+00 3.482975e+00 -8.396487e+01 2.213799e+00 1.106612e+00 1.102730e+00 -3.024516e-01 -9.279692e-01 -1.485646e+00 -2.107576e+00 -1.741742e+00 -2.287900e+00 -1.343064e+00 -2.142216e+00 -8.507539e-01 -1.756491e+00 -4.504934e-01 -1.502752e+00 -3.273167e-01 -9.861207e-01 -1.643393e-01 -5.573376e-01 -1.605463e-01 -4.064091e-01 -1.485622e-01 -3.647755e-01 -1.008878e-01 -3.458186e-01 -1.787156e-02 -2.802932e-01 -7.103632e-03 -1.320842e-01 -6.028104e-02 -3.239997e-02 -3.086789e-02 -1.843778e-02 1.693759e-02 -3.058543e-02 8.259154e-02 3.227896e-02 6.014080e-02 2.785749e-01 -1.234365e-01 5.742583e-01 -2.096541e-01 7.253839e-01 -2.026370e-01 8.527752e-01 -1.542221e-01 7.430255e-01 -1.781658e-01 7.391421e-01 -1.468211e-02 4.970035e-01 2.083055e-01 1.460025e-01 6.927035e-01 -2.693445e-01 1.857741e+00 -1.240910e+00 3.929260e+00 -1.974069e+00 
4.470157e+00 8.434484e-02 3.919211e+00 3.293575e+00 -7.403030e+01 1.839307e+00 1.031321e+00 1.003762e+00 -2.030265e-01 -7.303405e-01 -1.266512e+00 -1.782643e+00 -1.533831e+00 -1.985679e+00 -1.226044e+00 -1.826072e+00 -8.256645e-01 -1.536162e+00 -5.170828e-01 -1.277645e+00 -3.624617e-01 -9.289133e-01 -2.117504e-01 -6.250385e-01 -1.550633e-01 -4.474977e-01 -1.068297e-01 -3.595903e-01 -5.700425e-02 -3.014448e-01 -1.225907e-02 -2.303924e-01 -1.717502e-02 -1.321886e-01 -4.682044e-02 -5.460576e-02 -1.696408e-02 -1.716316e-02 2.817766e-02 2.055393e-02 5.618887e-02 1.093462e-01 7.478096e-03 2.753875e-01 -1.274863e-01 4.572167e-01 -1.968822e-01 5.720510e-01 -1.809083e-01 6.439457e-01 -1.480087e-01 6.121127e-01 -1.014995e-01 6.107838e-01 5.983823e-02 4.840802e-01 2.646091e-01 2.267215e-01 6.826277e-01 -2.194393e-01 1.737983e+00 -1.193545e+00 3.604856e+00 -1.798336e+00 
3.919057e+00 1.287549e-01 3.432263e+00 3.064502e+00 -6.360233e+01 1.467691e+00 9.397486e-01 8.912160e-01 -1.052733e-01 -5.937356e-01 -1.037895e+00 -1.524668e+00 -1.307554e+00 -1.726038e+00 -1.060688e+00 -1.589190e+00 -7.252155e-01 -1.341012e+00 -4.505663e-01 -1.114642e+00 -3.317730e-01 -8.440543e-01 -2.042623e-01 -5.745363e-01 -1.301937e-01 -4.061086e-01 -8.381509e-02 -3.137050e-01 -4.515734e-02 -2.444799e-01 -1.429203e-02 -1.748915e-01 -1.259244e-02 -1.025773e-01 -2.778886e-02 -4.841744e-02 -9.944201e-03 -1.265227e-02 1.791491e-02 3.701075e-02 2.777338e-02 1.268265e-01 -1.288310e-02 2.541153e-01 -1.051031e-01 3.836910e-01 -1.587063e-01 4.789176e-01 -1.638998e-01 5.389227e-01 -1.320215e-01 5.174763e-01 -1.062996e-01 5.042490e-01 2.900209e-02 4.258892e-01 2.206473e-01 2.243814e-01 6.020451e-01 -2.054670e-01 1.569239e+00 -1.124304e+00 3.234772e+00 -1.604463e+00 
3.290946e+00 1.600719e-01 2.878737e+00 2.776601e+00 -5.283771e+01 1.067047e+00 7.928784e-01 7.506425e-01 -6.745412e-02 -4.647825e-01 -8.327718e-01 -1.245791e+00 -1.077092e+00 -1.427539e+00 -9.016149e-01 -1.313445e+00 -6.364920e-01 -1.118756e+00 -4.238404e-01 -9.256131e-01 -2.967287e-01 -7.200224e-01 -1.885070e-01 -5.275975e-01 -1.168938e-01 -3.831889e-01 -6.377467e-02 -2.864695e-01 -2.569619e-02 -2.143238e-01 -4.752600e-03 -1.517202e-01 -7.126886e-03 -9.237380e-02 -1.755655e-02 -4.098396e-02 -5.389427e-03 2.557046e-03 1.254599e-02 5.550649e-02 1.059833e-02 1.283285e-01 -3.013414e-02 2.174680e-01 -1.016488e-01 3.093617e-01 -1.470101e-01 3.820947e-01 -1.471598e-01 4.248664e-01 -1.208382e-01 4.282416e-01 -7.082523e-02 4.204131e-01 4.482207e-02 3.644081e-01 2.093749e-01 2.106344e-01 5.378640e-01 -1.701171e-01 1.371181e+00 -9.829946e-01 2.775809e+00 -1.350492e+00 
2.642574e+00 1.467372e-01 2.313165e+00 2.430262e+00 -4.176857e+01 6.548698e-01 6.669837e-01 6.073360e-01 -3.275907e-03 -3.465733e-01 -6.078408e-01 -9.838750e-01 -8.244115e-01 -1.152676e+00 -6.993462e-01 -1.068342e+00 -4.920032e-01 -9.130888e-01 -3.227045e-01 -7.584508e-01 -2.289203e-01 -5.988881e-01 -1.465189e-01 -4.411447e-01 -8.447212e-02 -3.166672e-01 -4.167042e-02 -2.286599e-01 -1.410757e-02 -1.621980e-01 -5.531856e-05 -1.087275e-01 -6.180625e-04 -6.363688e-02 -7.523166e-03 -2.516595e-02 -2.776696e-03 1.183964e-02 4.287402e-03 5.944040e-02 -3.531521e-03 1.207855e-01 -3.631994e-02 1.895446e-01 -8.851705e-02 2.586577e-01 -1.258139e-01 3.157693e-01 -1.338249e-01 3.500445e-01 -1.160263e-01 3.530546e-01 -8.286090e-02 3.435643e-01 5.329383e-03 3.008738e-01 1.420443e-01 1.787511e-01 4.192314e-01 -1.483886e-01 1.121703e+00 -8.396782e-01 2.273305e+00 -1.110137e+00 
1.939024e+00 1.358293e-01 1.689649e+00 2.059443e+00 -3.041789e+01 2.201655e-01 4.877250e-01 4.272697e-01 8.165641e-03 -2.565027e-01 -4.115514e-01 -7.200358e-01 -5.782483e-01 -8.567252e-01 -5.036070e-01 -8.009761e-01 -3.591445e-01 -6.887795e-01 -2.392603e-01 -5.725911e-01 -1.619036e-01 -4.562433e-01 -1.008053e-01 -3.460997e-01 -5.517124e-02 -2.536110e-01 -2.079792e-02 -1.825904e-01 1.435094e-03 -1.278323e-01 1.037727e-02 -8.414887e-02 6.773621e-03 -4.666130e-02 -1.075446e-03 -1.244235e-02 -1.311041e-03 2.112685e-02 -4.946213e-04 5.966068e-02 -1.181192e-02 1.043576e-01 -4.214174e-02 1.530940e-01 -8.529319e-02 2.032600e-01 -1.172299e-01 2.459234e-01 -1.238173e-01 2.725510e-01 -1.095611e-01 2.810411e-01 -7.449349e-02 2.753562e-01 -6.076841e-03 2.418525e-01 9.749044e-02 1.479787e-01 3.101909e-01 -1.109121e-01 8.489182e-01 -6.485717e-01 1.708220e+00 -8.284003e-01 
1.232482e+00 7.637730e-02 1.070660e+00 1.636643e+00 -1.895024e+01 -2.234775e-01 3.396164e-01 2.611040e-01 5.511970e-02 -1.510619e-01 -1.865357e-01 -4.524860e-01 -3.072877e-01 -5.692063e-01 -2.766205e-01 -5.473769e-01 -1.895089e-01 -4.765518e-01 -1.166455e-01 -3.998758e-01 -7.544932e-02 -3.207501e-01 -4.220492e-02 -2.417824e-01 -1.527459e-02 -1.727355e-01 4.314010e-03 -1.180934e-01 1.538832e-02 -7.606868e-02 1.775685e-02 -4.415427e-02 1.245500e-02 -1.865462e-02 4.061408e-03 4.408122e-03 -5.905273e-04 2.865814e-02 -5.259307e-03 5.776273e-02 -1.830314e-02 9.127322e-02 -4.369752e-02 1.267941e-01 -7.759907e-02 1.627571e-01 -1.050871e-01 1.934671e-01 -1.160458e-01 2.125991e-01 -1.110144e-01 2.174205e-01 -9.209938e-02 2.113292e-01 -4.870260e-02 1.855522e-01 2.062500e-02 1.159359e-01 1.669318e-01 -7.561452e-02 5.416075e-01 -4.622043e-01 1.118612e+00 -5.741307e-01 
4.888232e-01 3.670892e-02 4.067318e-01 1.218354e+00 -7.261999e+00 -6.874189e-01 1.454955e-01 5.810819e-02 5.590066e-02 -7.895773e-02 5.733236e-03 -1.965192e-01 -5.066111e-02 -2.754380e-01 -5.832755e-02 -2.819511e-01 -2.956914e-02 -2.515416e-01 -3.578968e-03 -2.126425e-01 8.973170e-03 -1.707704e-01 1.766264e-02 -1.284524e-01 2.466428e-02 -8.995127e-02 3.040801e-02 -5.823349e-02 3.252780e-02 -3.341767e-02 2.895002e-02 -1.427130e-02 1.984759e-02 1.704539e-03 8.922298e-03 1.690821e-02 7.425846e-04 3.288130e-02 -7.391635e-03 5.108786e-02 -2.179033e-02 7.147321e-02 -4.560517e-02 9.359686e-02 -7.540602e-02 1.168427e-01 -1.001932e-01 1.371904e-01 -1.117761e-01 1.501940e-01 -1.110031e-01 1.544531e-01 -9.897562e-02 1.499240e-01 -7.527550e-02 1.313350e-01 -4.094881e-02 8.588982e-02 3.197322e-02 -2.973209e-02 2.227521e-01 -2.454878e-01 4.928112e-01 -2.876669e-01 
-2.377995e-01 -4.387858e-02 -2.356005e-01 7.646217e-01 4.354764e+00 -1.144445e+00 -1.496683e-02 -1.180184e-01 9.472968e-02 2.230347e-02 2.319000e-01 7.592352e-02 2.297089e-01 1.879104e-02 1.799288e-01 -2.465097e-02 1.504394e-01 -3.755990e-02 1.275334e-01 -3.815878e-02 1.020806e-01 -3.107697e-02 8.162017e-02 -1.837856e-02 6.714158e-02 -4.120530e-03 5.668699e-02 8.398038e-03 4.724215e-02 1.772221e-02 3.655361e-02 2.372104e-02 2.405250e-02 2.784089e-02 1.127970e-02 3.217174e-02 5.094885e-04 3.822002e-02 -1.008616e-02 4.678297e-02 -2.466421e-02 5.732011e-02 -4.537210e-02 6.910377e-02 -7.028724e-02 8.159074e-02 -9.271558e-02 9.219880e-02 -1.074396e-01 9.791523e-02 -1.149259e-01 9.750576e-02 -1.175422e-01 9.184256e-02 -1.166118e-01 7.893102e-02 -1.178991e-01 5.538457e-02 -1.184763e-01 1.207309e-02 -1.079070e-01 -4.233370e-02 -1.315539e-01 -3.270886e-02 
-9.834354e-01 -8.562256e-02 -9.057626e-01 3.436367e-01 1.613031e+01 -1.617291e+00 -2.120354e-01 -3.272824e-01 9.467875e-02 8.978272e-02 4.232731e-01 3.264809e-01 4.887210e-01 3.075759e-01 4.056995e-01 2.363764e-01 3.207515e-01 1.843470e-01 2.514043e-01 1.469674e-01 1.926221e-01 1.195349e-01 1.460182e-01 1.000860e-01 1.110972e-01 8.616499e-02 8.564134e-02 7.531595e-02 6.589943e-02 6.590371e-02 4.843042e-02 5.724598e-02 3.158894e-02 4.968347e-02 1.592045e-02 4.382396e-02 2.536400e-03 3.984479e-02 -1.020346e-02 3.770803e-02 -2.565813e-02 3.714201e-02 -4.573409e-02 3.808068e-02 -6.898875e-02 4.030874e-02 -9.064662e-02 4.213928e-02 -1.071325e-01 4.161835e-02 -1.196673e-01 3.820893e-02 -1.318481e-01 3.246558e-02 -1.498707e-01 2.530954e-02 -1.851209e-01 2.376447e-02 -2.597922e-01 5.613720e-02 -4.352025e-01 1.740512e-01 -7.644452e-01 2.499173e-01 