# vtk DataFile Version 2.0
Comment goes here
ASCII

DATASET STRUCTURED_POINTS
FIELD FieldData 1
TIME 1 1 double
0.06600000
DIMENSIONS    64   64   1

ORIGIN    0.000   0.000   0.000
SPACING   0.03125 0.03125   1.000

POINT_DATA   4096
VECTORS u double

0.541673 -0.012961 0.000000 -1.668347 0.004377 0.000000 0.331461 0.004646 0.000000 -1.496408 -0.003533 0.000000 -0.042050 -0.003119 0.000000 -1.321300 -0.003487 0.000000 0.054920 0.008176 0.000000 -1.142787 -0.003059 0.000000 0.099002 0.004987 0.000000 -1.065824 -0.005542 0.000000 0.155584 0.002492 0.000000 -1.048638 -0.008928 0.000000 0.211634 -0.000981 0.000000 -1.030324 -0.012752 0.000000 0.225739 -0.004371 0.000000 -0.959566 -0.014768 0.000000 0.168627 0.000748 0.000000 -0.820994 -0.014025 0.000000 0.050612 0.005433 0.000000 -0.644534 -0.007297 0.000000 -0.104676 0.005748 0.000000 -0.456732 -0.005391 0.000000 -0.272007 0.010854 0.000000 -0.265009 -0.008264 0.000000 -0.452181 0.012557 0.000000 -0.066180 -0.006761 0.000000 -0.642016 0.013130 0.000000 0.138490 -0.004084 0.000000 -0.835702 0.007661 0.000000 0.339658 -0.006765 0.000000 -1.014504 0.003881 0.000000 0.518538 -0.007095 0.000000 -1.156656 0.005107 0.000000 0.653601 -0.008099 0.000000 -1.251886 0.007875 0.000000 0.742267 -0.005327 0.000000 -1.310196 0.008459 0.000000 0.794496 -0.002391 0.000000 -1.336302 0.004322 0.000000 0.814452 -0.002155 0.000000 -1.332897 -0.000202 0.000000 0.802702 -0.000797 0.000000 -1.293844 0.001425 0.000000 0.742611 -0.000113 0.000000 -1.204922 0.007926 0.000000 0.624160 0.005751 0.000000 -1.066186 0.015744 0.000000 0.442256 0.012505 0.000000 -0.871209 0.019020 0.000000 0.195386 0.017077 0.000000 -0.626181 0.007409 0.000000 -0.102307 0.013350 0.000000 -0.357971 0.000611 0.000000 -0.419413 0.007024 0.000000 -0.092208 -0.002312 0.000000 -0.727289 0.002656 0.000000 0.151180 -0.003471 0.000000 -1.015085 0.000618 0.000000 0.366212 -0.004199 0.000000 -1.281963 0.000281 0.000000 0.543182 -0.004536 0.000000 -1.517719 -0.000288 0.000000 0.660890 -0.004357 0.000000 -1.693476 0.002735 0.000000 
-0.304070 -0.021421 0.000000 0.390698 0.101657 0.000000 -0.141724 -0.084528 0.000000 0.316469 0.183372 0.000000 0.219364 -0.077819 0.000000 0.226858 -0.053416 0.000000 -0.063507 -0.086904 0.000000 0.096142 -0.028166 0.000000 -0.211812 -0.032327 0.000000 0.046610 -0.034149 0.000000 -0.325358 0.000248 0.000000 0.036543 -0.032783 0.000000 -0.419346 0.002382 0.000000 0.020982 -0.010370 0.000000 -0.480942 -0.021583 0.000000 -0.035030 0.024870 0.000000 -0.498121 -0.059916 0.000000 -0.133664 0.052809 0.000000 -0.480297 -0.080622 0.000000 -0.239538 0.067045 0.000000 -0.426000 -0.084929 0.000000 -0.343901 0.071896 0.000000 -0.360337 -0.090120 0.000000 -0.441710 0.081633 0.000000 -0.281881 -0.094620 0.000000 -0.541112 0.085664 0.000000 -0.193109 -0.098519 0.000000 -0.644808 0.086364 0.000000 -0.098561 -0.092982 0.000000 -0.748188 0.081767 0.000000 -0.019708 -0.080340 0.000000 -0.840993 0.064656 0.000000 0.034336 -0.060582 0.000000 -0.908480 0.043176 0.000000 0.065141 -0.041321 0.000000 -0.951089 0.025152 0.000000 0.085048 -0.025320 0.000000 -0.974645 0.007974 0.000000 0.092009 -0.006707 0.000000 -0.985396 -0.006228 0.000000 0.084334 0.010826 0.000000 -0.983797 -0.023308 0.000000 0.057723 0.031131 0.000000 -0.952167 -0.046431 0.000000 0.007178 0.052180 0.000000 -0.883124 -0.071887 0.000000 -0.055817 0.074593 0.000000 -0.769671 -0.103077 0.000000 -0.143115 0.103719 0.000000 -0.612549 -0.131842 0.000000 -0.254814 0.139607 0.000000 -0.425299 -0.138334 0.000000 -0.366188 0.155144 0.000000 -0.230159 -0.131943 0.000000 -0.472057 0.152643 0.000000 -0.046838 -0.118127 0.000000 -0.561820 0.142986 0.000000 0.119298 -0.102720 0.000000 -0.628840 0.132137 0.000000 0.269902 -0.083108 0.000000 -0.660821 0.116014 0.000000 0.395016 -0.052664 0.000000 -0.632015 0.085051 0.000000 0.460875 0.065181 0.000000 
1.687127 0.057216 0.000000 0.604676 -0.157970 0.000000 1.333388 0.078874 0.000000 0.508155 -0.364621 0.000000 1.015098 0.086492 0.000000 0.384876 0.279384 0.000000 1.719778 0.138892 0.000000 0.377134 0.145246 0.000000 2.114985 0.054519 0.000000 0.347728 0.108004 0.000000 2.357903 0.012559 0.000000 0.336201 0.085060 0.000000 2.532193 0.014581 0.000000 0.338704 0.048845 0.000000 2.702648 0.051641 0.000000 0.337055 0.002411 0.000000 2.904484 0.099382 0.000000 0.309526 -0.031849 0.000000 3.132525 0.111307 0.000000 0.231482 -0.061594 0.000000 3.316545 0.110111 0.000000 0.132961 -0.071054 0.000000 3.485883 0.108664 0.000000 0.012333 -0.086720 0.000000 3.637053 0.111958 0.000000 -0.109921 -0.095534 0.000000 3.774308 0.116825 0.000000 -0.232143 -0.098632 0.000000 3.903300 0.111041 0.000000 -0.344846 -0.085617 0.000000 4.038599 0.096686 0.000000 -0.431300 -0.061139 0.000000 4.159380 0.072595 0.000000 -0.489414 -0.038904 0.000000 4.241776 0.050484 0.000000 -0.520036 -0.025234 0.000000 4.277368 0.032016 0.000000 -0.527106 -0.009352 0.000000 4.278660 0.015072 0.000000 -0.506947 0.005521 0.000000 4.271486 -0.001801 0.000000 -0.467820 0.025813 0.000000 4.247099 -0.030205 0.000000 -0.406577 0.050432 0.000000 4.178863 -0.061117 0.000000 -0.328477 0.068746 0.000000 4.039472 -0.097709 0.000000 -0.239003 0.099802 0.000000 3.829428 -0.138101 0.000000 -0.125944 0.128776 0.000000 3.580011 -0.179841 0.000000 0.007791 0.124725 0.000000 3.281743 -0.194529 0.000000 0.153574 0.112893 0.000000 2.980916 -0.185632 0.000000 0.297101 0.092419 0.000000 2.694371 -0.169608 0.000000 0.434521 0.067638 0.000000 2.410847 -0.154803 0.000000 0.562643 0.032261 0.000000 2.116756 -0.129650 0.000000 0.679406 -0.029094 0.000000 1.799773 -0.070216 0.000000 0.747275 -0.325210 0.000000 
3.682886 0.121178 0.000000 -0.089346 0.455397 0.000000 2.842338 0.011993 0.000000 -0.315740 0.501661 0.000000 1.432989 0.045460 0.000000 -0.236127 -0.758096 0.000000 3.147368 -0.079163 0.000000 -0.138895 -0.423373 0.000000 4.025161 -0.002921 0.000000 -0.129686 -0.277067 0.000000 4.624932 0.011775 0.000000 -0.145608 -0.207072 0.000000 5.099929 -0.000122 0.000000 -0.132512 -0.180826 0.000000 5.505504 -0.019933 0.000000 -0.033583 -0.176966 0.000000 5.840797 -0.032386 0.000000 0.193885 -0.175233 0.000000 6.116369 -0.002578 0.000000 0.344764 -0.116975 0.000000 6.247610 0.013592 0.000000 0.422662 -0.097441 0.000000 6.370386 0.030507 0.000000 0.469986 -0.069537 0.000000 6.450249 0.027634 0.000000 0.509330 -0.051590 0.000000 6.478445 0.023703 0.000000 0.556536 -0.042628 0.000000 6.478587 0.019722 0.000000 0.603111 -0.053532 0.000000 6.491236 0.006114 0.000000 0.642998 -0.056126 0.000000 6.535518 -0.002469 0.000000 0.666923 -0.039220 0.000000 6.585705 -0.010699 0.000000 0.680544 -0.010440 0.000000 6.589307 -0.018250 0.000000 0.695165 0.006682 0.000000 6.562088 -0.026866 0.000000 0.722708 0.000946 0.000000 6.534164 -0.028301 0.000000 0.754385 0.001079 0.000000 6.521417 -0.030112 0.000000 0.776731 0.021806 0.000000 6.516707 -0.025920 0.000000 0.775014 0.067504 0.000000 6.456275 -0.014881 0.000000 0.728554 0.106966 0.000000 6.334764 -0.009340 0.000000 0.644687 0.117575 0.000000 6.125166 0.005872 0.000000 0.513740 0.159935 0.000000 5.916530 0.009361 0.000000 0.381569 0.168884 0.000000 5.715022 0.009116 0.000000 0.275041 0.168417 0.000000 5.502161 0.005565 0.000000 0.200184 0.180804 0.000000 5.250144 0.004016 0.000000 0.138114 0.210984 0.000000 4.925944 -0.000749 0.000000 0.071362 0.264319 0.000000 4.487158 0.017181 0.000000 -0.003567 0.177827 0.000000 
3.806506 0.142995 0.000000 0.078546 0.682578 0.000000 3.103828 0.305268 0.000000 -0.185207 1.044727 0.000000 1.992101 0.006878 0.000000 -0.150090 -1.434995 0.000000 3.246799 0.041661 0.000000 -0.197639 -0.732547 0.000000 4.067118 0.045310 0.000000 -0.189095 -0.491767 0.000000 4.650143 0.028482 0.000000 -0.190827 -0.389937 0.000000 5.114698 0.001484 0.000000 -0.183528 -0.356730 0.000000 5.529005 -0.047288 0.000000 -0.088739 -0.332882 0.000000 5.874158 -0.128087 0.000000 0.266356 -0.307421 0.000000 6.197869 -0.039572 0.000000 0.426395 -0.192834 0.000000 6.324344 0.032213 0.000000 0.463502 -0.193831 0.000000 6.471085 0.061339 0.000000 0.496208 -0.166582 0.000000 6.555570 0.072615 0.000000 0.532608 -0.123730 0.000000 6.582245 0.069619 0.000000 0.574225 -0.098774 0.000000 6.589940 0.064467 0.000000 0.604204 -0.098265 0.000000 6.617590 0.056798 0.000000 0.607146 -0.105422 0.000000 6.681962 0.048670 0.000000 0.604721 -0.089091 0.000000 6.725888 0.036863 0.000000 0.627869 -0.028837 0.000000 6.704014 0.017395 0.000000 0.647699 0.017866 0.000000 6.659346 -0.012471 0.000000 0.676402 0.033445 0.000000 6.629523 -0.033478 0.000000 0.684296 0.038560 0.000000 6.628720 -0.052550 0.000000 0.686548 0.055142 0.000000 6.626445 -0.059401 0.000000 0.714954 0.129178 0.000000 6.525164 -0.051249 0.000000 0.725208 0.221313 0.000000 6.358111 -0.054234 0.000000 0.691443 0.338373 0.000000 6.189828 -0.048894 0.000000 0.577652 0.333361 0.000000 5.930723 -0.062358 0.000000 0.420202 0.314401 0.000000 5.691666 -0.079104 0.000000 0.315514 0.305280 0.000000 5.466798 -0.094750 0.000000 0.265136 0.319656 0.000000 5.209593 -0.092734 0.000000 0.236873 0.356461 0.000000 4.885059 -0.062897 0.000000 0.194625 0.409693 0.000000 4.475141 0.004713 0.000000 0.124533 0.479062 0.000000 
4.088426 0.167165 0.000000 -0.081503 1.158075 0.000000 3.412074 0.275746 0.000000 -0.147266 1.613388 0.000000 2.510715 0.010343 0.000000 -0.154677 -2.012794 0.000000 3.409320 -0.031614 0.000000 -0.153989 -1.243692 0.000000 4.186806 -0.011464 0.000000 -0.147085 -0.860092 0.000000 4.753329 0.013507 0.000000 -0.169634 -0.671628 0.000000 5.194360 -0.007421 0.000000 -0.226532 -0.595132 0.000000 5.615882 -0.114722 0.000000 -0.279442 -0.522119 0.000000 6.037361 -0.387481 0.000000 0.383135 -0.498943 0.000000 6.318314 -0.162617 0.000000 0.476418 -0.243450 0.000000 6.348625 -0.023515 0.000000 0.464577 -0.244182 0.000000 6.500832 -0.002198 0.000000 0.475122 -0.154023 0.000000 6.590955 -0.008766 0.000000 0.504048 -0.078265 0.000000 6.614401 -0.017914 0.000000 0.563204 -0.050323 0.000000 6.606931 -0.010258 0.000000 0.631369 -0.081181 0.000000 6.605610 0.003172 0.000000 0.668046 -0.120499 0.000000 6.655533 -0.000043 0.000000 0.655769 -0.083145 0.000000 6.720683 -0.033848 0.000000 0.665986 0.011435 0.000000 6.703658 -0.038079 0.000000 0.689425 0.051349 0.000000 6.657298 -0.055570 0.000000 0.753681 0.030770 0.000000 6.615618 -0.036195 0.000000 0.794732 0.001882 0.000000 6.605975 -0.032364 0.000000 0.793123 0.024081 0.000000 6.648521 -0.054326 0.000000 0.795988 0.168784 0.000000 6.602131 -0.025134 0.000000 0.784466 0.274019 0.000000 6.478220 0.024424 0.000000 0.783518 0.285857 0.000000 6.147380 0.119664 0.000000 0.557745 0.419040 0.000000 5.912243 0.166811 0.000000 0.374578 0.407941 0.000000 5.731017 0.113804 0.000000 0.253595 0.393285 0.000000 5.554287 0.055943 0.000000 0.184020 0.438009 0.000000 5.334783 0.032280 0.000000 0.128669 0.535518 0.000000 5.040452 0.041499 0.000000 0.066051 0.674237 0.000000 4.640726 0.087273 0.000000 -0.011969 0.846461 0.000000 
4.283181 0.212529 0.000000 0.050726 1.358930 0.000000 3.745106 0.371032 0.000000 -0.017853 1.946086 0.000000 3.027492 0.014289 0.000000 -0.025428 -2.333599 0.000000 3.641743 0.040972 0.000000 -0.083267 -1.510033 0.000000 4.244482 0.038406 0.000000 -0.105249 -1.058290 0.000000 4.719602 0.051030 0.000000 -0.148742 -0.830968 0.000000 5.102058 0.058383 0.000000 -0.302780 -0.778252 0.000000 5.527943 0.005622 0.000000 -0.534880 -0.754361 0.000000 6.010942 -0.790664 0.000000 0.523318 -0.588374 0.000000 6.352654 -0.132854 0.000000 0.572605 -0.223145 0.000000 6.285496 0.044053 0.000000 0.413831 -0.346038 0.000000 6.512862 0.050794 0.000000 0.392673 -0.256705 0.000000 6.589752 0.043690 0.000000 0.476837 -0.147177 0.000000 6.593577 0.010462 0.000000 0.568243 -0.091303 0.000000 6.579161 -0.003698 0.000000 0.638078 -0.096945 0.000000 6.586640 0.020121 0.000000 0.607255 -0.155345 0.000000 6.701143 0.060948 0.000000 0.493016 -0.154240 0.000000 6.786541 0.026645 0.000000 0.584009 -0.011812 0.000000 6.717927 -0.006044 0.000000 0.628134 0.064226 0.000000 6.651734 -0.076727 0.000000 0.724828 0.075125 0.000000 6.610583 -0.074528 0.000000 0.714201 0.048203 0.000000 6.642131 -0.050942 0.000000 0.585833 0.012596 0.000000 6.760077 -0.062265 0.000000 0.632662 0.175568 0.000000 6.658888 -0.039727 0.000000 0.761399 0.345224 0.000000 6.419424 -0.053286 0.000000 1.020224 0.669213 0.000000 6.253108 0.176879 0.000000 0.627729 0.568497 0.000000 5.868431 0.120808 0.000000 0.280462 0.495627 0.000000 5.697086 0.041879 0.000000 0.208754 0.482010 0.000000 5.552926 -0.025175 0.000000 0.205383 0.539160 0.000000 5.354063 -0.037383 0.000000 0.196429 0.650792 0.000000 5.087933 -0.000279 0.000000 0.167575 0.809419 0.000000 4.742304 0.082733 0.000000 0.119698 1.031362 0.000000 
4.580515 0.236138 0.000000 -0.011679 1.696150 0.000000 4.103855 0.344324 0.000000 -0.011708 2.331001 0.000000 3.507234 0.017917 0.000000 -0.019134 -2.627045 0.000000 3.942169 0.026225 0.000000 -0.043102 -1.846431 0.000000 4.437642 0.010519 0.000000 -0.042157 -1.335211 0.000000 4.860983 0.057000 0.000000 -0.042703 -1.054084 0.000000 5.190577 0.146618 0.000000 -0.073112 -1.021017 0.000000 5.425796 0.117378 0.000000 -0.135491 -1.005118 0.000000 5.676599 -1.445680 0.000000 -0.219545 -0.840656 0.000000 5.745271 -0.211905 0.000000 -0.293195 -0.176291 0.000000 5.888983 0.135260 0.000000 -0.202455 -0.471547 0.000000 6.078786 0.018959 0.000000 -0.137511 -0.230913 0.000000 6.187693 -0.092930 0.000000 -0.035331 -0.082091 0.000000 6.235831 -0.109320 0.000000 0.081938 -0.035908 0.000000 6.264069 -0.080093 0.000000 0.181915 -0.088660 0.000000 6.268670 0.033995 0.000000 0.224186 -0.235002 0.000000 6.316841 0.114196 0.000000 0.187397 -0.168543 0.000000 6.382968 -0.124841 0.000000 0.271599 0.080049 0.000000 6.339627 -0.082203 0.000000 0.336320 0.117542 0.000000 6.310892 -0.152265 0.000000 0.446512 0.071921 0.000000 6.288293 -0.025567 0.000000 0.487923 -0.029665 0.000000 6.287954 0.096003 0.000000 0.427695 -0.093865 0.000000 6.402967 -0.101155 0.000000 0.495454 0.269974 0.000000 6.389460 -0.153871 0.000000 0.706683 0.513483 0.000000 6.363082 -0.234400 0.000000 1.395818 0.452173 0.000000 6.002760 0.512158 0.000000 0.529275 0.803717 0.000000 5.782517 0.514078 0.000000 0.156360 0.579286 0.000000 5.750814 0.185511 0.000000 0.123446 0.537445 0.000000 5.670706 0.059314 0.000000 0.130349 0.636872 0.000000 5.509244 0.041234 0.000000 0.114934 0.801647 0.000000 5.276652 0.070352 0.000000 0.079511 1.019866 0.000000 4.970222 0.135150 0.000000 0.033649 1.305584 0.000000 
4.820716 0.257857 0.000000 0.087793 1.835590 0.000000 4.452854 0.371061 0.000000 0.086286 2.542708 0.000000 3.982891 0.021715 0.000000 0.079051 -2.768535 0.000000 4.266361 0.064941 0.000000 0.047703 -2.005505 0.000000 4.608549 0.037461 0.000000 0.062312 -1.481631 0.000000 4.903036 0.051576 0.000000 0.168043 -1.160562 0.000000 5.028062 0.088792 0.000000 0.405161 -1.013472 0.000000 4.745275 0.068001 0.000000 0.580776 -1.005165 0.000000 3.977796 -0.706610 0.000000 -1.963082 -0.657045 0.000000 3.645064 -0.059204 0.000000 -2.208198 -0.366857 0.000000 4.099842 -0.046687 0.000000 -1.993692 -0.535841 0.000000 3.826829 -0.014150 0.000000 -1.893788 -0.365612 0.000000 3.852793 -0.058490 0.000000 -1.957387 -0.195316 0.000000 4.058888 -0.106807 0.000000 -2.077311 -0.119541 0.000000 4.263079 -0.103676 0.000000 -2.165890 -0.101545 0.000000 4.347298 -0.022150 0.000000 -2.077693 -0.203516 0.000000 4.141645 0.097737 0.000000 -1.803358 -0.220367 0.000000 3.928899 -0.057557 0.000000 -1.856797 0.031530 0.000000 4.099971 -0.070765 0.000000 -1.865909 0.092961 0.000000 4.280284 -0.186919 0.000000 -2.012091 0.097725 0.000000 4.366550 -0.115939 0.000000 -1.960884 0.048542 0.000000 4.259351 0.009286 0.000000 -1.687599 -0.102417 0.000000 3.935451 -0.130024 0.000000 -1.655266 0.189075 0.000000 4.097187 -0.250956 0.000000 -1.752183 0.371602 0.000000 4.510826 -0.742422 0.000000 -2.157966 1.029535 0.000000 5.106806 1.043423 0.000000 -0.962590 0.788740 0.000000 5.717735 0.493723 0.000000 -0.170205 0.527330 0.000000 5.835741 0.074793 0.000000 0.090467 0.562118 0.000000 5.742760 -0.032078 0.000000 0.158418 0.700622 0.000000 5.582121 -0.021968 0.000000 0.167652 0.883384 0.000000 5.378731 0.035143 0.000000 0.152430 1.115848 0.000000 5.127740 0.128596 0.000000 0.123026 1.421069 0.000000 
5.113649 0.271371 0.000000 0.054654 2.064012 0.000000 4.804598 0.345831 0.000000 0.085512 2.800964 0.000000 4.424066 0.025152 0.000000 0.078807 -2.910515 0.000000 4.601264 0.057573 0.000000 0.058889 -2.188619 0.000000 4.842527 -0.004090 0.000000 0.079138 -1.629698 0.000000 5.051922 -0.048731 0.000000 0.191189 -1.179111 0.000000 5.095762 -0.090501 0.000000 0.443230 -0.738231 0.000000 4.775660 -0.058237 0.000000 0.632999 -0.237639 0.000000 4.175770 1.098178 0.000000 -1.423213 -0.507924 0.000000 3.710526 0.033211 0.000000 -1.760288 -0.631069 0.000000 3.994554 -0.079246 0.000000 -1.712449 -0.198534 0.000000 3.665922 -0.080945 0.000000 -1.721170 -0.256877 0.000000 3.602273 -0.029331 0.000000 -1.891708 -0.288186 0.000000 3.751678 0.010604 0.000000 -2.131294 -0.240098 0.000000 3.938881 0.008487 0.000000 -2.331290 -0.172880 0.000000 4.024965 -0.054202 0.000000 -2.312103 -0.029349 0.000000 3.786857 -0.160140 0.000000 -2.039251 0.044204 0.000000 3.512954 -0.071402 0.000000 -2.147536 -0.091024 0.000000 3.693937 -0.073092 0.000000 -2.219785 -0.062770 0.000000 3.902816 -0.006083 0.000000 -2.474923 -0.014346 0.000000 4.017695 -0.076774 0.000000 -2.501968 0.077534 0.000000 3.912874 -0.177281 0.000000 -2.217267 0.230035 0.000000 3.467799 -0.133487 0.000000 -2.254271 0.108237 0.000000 3.588447 -0.056954 0.000000 -2.519510 0.099845 0.000000 4.028349 0.171382 0.000000 -3.610556 -0.143807 0.000000 5.103086 -0.683218 0.000000 -1.516301 0.192788 0.000000 5.930126 -0.278307 0.000000 -0.283745 0.461281 0.000000 6.019677 -0.075161 0.000000 0.058207 0.630426 0.000000 5.905327 -0.008637 0.000000 0.120472 0.797510 0.000000 5.755086 0.032001 0.000000 0.116199 1.005038 0.000000 5.579925 0.085574 0.000000 0.094836 1.270857 0.000000 5.368534 0.164554 0.000000 0.070118 1.612609 0.000000 
5.362982 0.273321 0.000000 0.130745 2.144641 0.000000 5.140467 0.340203 0.000000 0.160971 2.923240 0.000000 4.859496 0.028419 0.000000 0.154844 -2.945733 0.000000 4.940853 0.084859 0.000000 0.115458 -2.246768 0.000000 5.080747 0.017212 0.000000 0.076618 -1.691026 0.000000 5.238530 -0.060475 0.000000 0.046426 -1.204403 0.000000 5.370379 -0.163248 0.000000 0.006409 -0.693369 0.000000 5.500907 -0.121768 0.000000 -0.045669 -0.405275 0.000000 5.839851 1.349601 0.000000 0.470462 -0.191801 0.000000 5.865108 0.277871 0.000000 0.355836 -0.650885 0.000000 5.828675 -0.094526 0.000000 0.258625 -0.207210 0.000000 5.951927 -0.005429 0.000000 0.178455 -0.301963 0.000000 5.974002 0.112049 0.000000 0.112740 -0.344721 0.000000 5.973023 0.132779 0.000000 0.058167 -0.306744 0.000000 5.989743 0.096321 0.000000 0.017204 -0.187630 0.000000 5.989926 -0.041337 0.000000 -0.019142 0.034592 0.000000 5.998604 -0.175115 0.000000 -0.091123 0.053535 0.000000 6.030052 0.050729 0.000000 -0.127697 -0.149453 0.000000 6.021318 0.001483 0.000000 -0.171074 -0.115919 0.000000 6.037364 0.068219 0.000000 -0.185465 -0.017154 0.000000 6.038038 -0.088895 0.000000 -0.204525 0.153364 0.000000 6.017819 -0.275415 0.000000 -0.245025 0.342657 0.000000 6.025990 -0.093020 0.000000 -0.275193 0.068427 0.000000 6.022408 0.014283 0.000000 -0.230642 -0.068300 0.000000 6.048167 0.348625 0.000000 0.025149 -0.045201 0.000000 5.850238 -1.050833 0.000000 -0.252603 -0.038300 0.000000 5.922854 -0.738832 0.000000 -0.096646 0.437780 0.000000 5.962788 -0.267159 0.000000 0.055116 0.676468 0.000000 5.918106 -0.094344 0.000000 0.124297 0.850862 0.000000 5.825067 -0.017695 0.000000 0.146503 1.058546 0.000000 5.700224 0.056506 0.000000 0.146441 1.327239 0.000000 5.546369 0.153314 0.000000 0.136846 1.675954 0.000000 
5.640735 0.277471 0.000000 0.109596 2.286527 0.000000 5.469797 0.315605 0.000000 0.155738 3.081935 0.000000 5.262425 0.031279 0.000000 0.150393 -2.991872 0.000000 5.277268 0.096959 0.000000 0.114966 -2.328513 0.000000 5.355362 0.034749 0.000000 0.064369 -1.787481 0.000000 5.477713 -0.018540 0.000000 -0.024366 -1.310960 0.000000 5.643820 -0.050484 0.000000 -0.228196 -0.868759 0.000000 5.956780 -0.006158 0.000000 -0.476637 -0.576582 0.000000 6.310847 0.582048 0.000000 0.591025 -0.533182 0.000000 6.655212 0.147836 0.000000 0.727908 -0.594636 0.000000 6.531524 0.017965 0.000000 0.556260 -0.321786 0.000000 6.697839 -0.000775 0.000000 0.506418 -0.278952 0.000000 6.737245 0.036384 0.000000 0.570497 -0.287207 0.000000 6.705791 0.065177 0.000000 0.643443 -0.256818 0.000000 6.662353 0.049450 0.000000 0.693786 -0.173064 0.000000 6.651807 -0.017856 0.000000 0.645615 -0.038027 0.000000 6.762470 -0.088158 0.000000 0.506544 0.012755 0.000000 6.856510 -0.034828 0.000000 0.588861 -0.082290 0.000000 6.784377 -0.029715 0.000000 0.620251 -0.078817 0.000000 6.723791 0.008308 0.000000 0.710311 -0.015020 0.000000 6.696641 -0.057714 0.000000 0.688832 0.097753 0.000000 6.748491 -0.136781 0.000000 0.532115 0.221864 0.000000 6.910172 -0.103319 0.000000 0.573615 0.111819 0.000000 6.846947 -0.101505 0.000000 0.738738 0.074086 0.000000 6.656868 -0.084409 0.000000 1.246952 0.054122 0.000000 6.451886 -0.405465 0.000000 0.532418 0.120172 0.000000 6.137543 -0.434264 0.000000 0.118771 0.421347 0.000000 6.080139 -0.226922 0.000000 0.077072 0.675108 0.000000 6.050271 -0.077819 0.000000 0.099286 0.890549 0.000000 5.988261 0.009795 0.000000 0.109344 1.129881 0.000000 5.896765 0.085637 0.000000 0.107201 1.424712 0.000000 5.780327 0.174149 0.000000 0.102718 1.795996 0.000000 
5.883262 0.266443 0.000000 0.171817 2.315580 0.000000 5.782571 0.294061 0.000000 0.217449 3.130612 0.000000 5.658407 0.033764 0.000000 0.212826 -2.960575 0.000000 5.612924 0.120285 0.000000 0.171192 -2.324863 0.000000 5.630687 0.067810 0.000000 0.108066 -1.813377 0.000000 5.714567 0.028260 0.000000 0.024484 -1.370510 0.000000 5.867934 0.040581 0.000000 -0.085014 -1.006330 0.000000 6.127305 0.126673 0.000000 -0.142942 -0.759341 0.000000 6.401111 0.281940 0.000000 0.391906 -0.536167 0.000000 6.630064 0.140987 0.000000 0.559543 -0.527197 0.000000 6.607229 0.077122 0.000000 0.529709 -0.373525 0.000000 6.696702 0.044413 0.000000 0.518169 -0.341369 0.000000 6.758948 0.047970 0.000000 0.544548 -0.313267 0.000000 6.752087 0.059833 0.000000 0.587144 -0.263306 0.000000 6.722010 0.045978 0.000000 0.614759 -0.177083 0.000000 6.718100 0.006834 0.000000 0.597769 -0.076071 0.000000 6.784454 -0.036045 0.000000 0.554554 -0.040505 0.000000 6.856541 -0.031588 0.000000 0.581400 -0.077320 0.000000 6.830655 -0.029907 0.000000 0.600601 -0.055332 0.000000 6.775183 -0.021840 0.000000 0.647320 0.009996 0.000000 6.749785 -0.067415 0.000000 0.650963 0.101513 0.000000 6.779081 -0.118698 0.000000 0.620148 0.180977 0.000000 6.862205 -0.134520 0.000000 0.674825 0.131652 0.000000 6.818596 -0.150840 0.000000 0.749049 0.121779 0.000000 6.688193 -0.159589 0.000000 0.832612 0.159781 0.000000 6.529047 -0.336300 0.000000 0.596839 0.276042 0.000000 6.275508 -0.325185 0.000000 0.282685 0.495184 0.000000 6.154243 -0.225461 0.000000 0.155704 0.706335 0.000000 6.114300 -0.116557 0.000000 0.137069 0.912872 0.000000 6.079846 -0.027753 0.000000 0.144661 1.150042 0.000000 6.029470 0.058649 0.000000 0.152081 1.443676 0.000000 5.963043 0.157796 0.000000 0.157802 1.815546 0.000000 
6.140181 0.263456 0.000000 0.157182 2.387218 0.000000 6.084443 0.269973 0.000000 0.209760 3.206099 0.000000 6.023388 0.035902 0.000000 0.206034 -2.946389 0.000000 5.935485 0.138594 0.000000 0.170831 -2.346277 0.000000 5.913466 0.097875 0.000000 0.109945 -1.871361 0.000000 5.962137 0.065043 0.000000 0.023831 -1.464327 0.000000 6.082046 0.059014 0.000000 -0.069984 -1.128130 0.000000 6.272313 0.051770 0.000000 -0.042735 -0.850388 0.000000 6.403671 0.047200 0.000000 0.336654 -0.762134 0.000000 6.713276 -0.019801 0.000000 0.575715 -0.571802 0.000000 6.720898 0.047800 0.000000 0.527701 -0.411259 0.000000 6.776007 0.010765 0.000000 0.543218 -0.341197 0.000000 6.814865 0.010005 0.000000 0.575524 -0.280346 0.000000 6.789859 0.022581 0.000000 0.603829 -0.226741 0.000000 6.752566 0.021835 0.000000 0.611396 -0.169153 0.000000 6.753669 -0.000866 0.000000 0.593498 -0.104380 0.000000 6.812562 -0.044944 0.000000 0.583006 -0.059332 0.000000 6.866825 -0.061674 0.000000 0.620302 -0.056403 0.000000 6.845432 -0.048916 0.000000 0.641920 -0.023346 0.000000 6.784984 -0.038411 0.000000 0.660161 0.010379 0.000000 6.770423 -0.061356 0.000000 0.653311 0.068457 0.000000 6.808636 -0.105966 0.000000 0.640082 0.138741 0.000000 6.878981 -0.157996 0.000000 0.698086 0.155428 0.000000 6.856784 -0.175730 0.000000 0.754551 0.204489 0.000000 6.722962 -0.167972 0.000000 0.789217 0.213267 0.000000 6.577476 -0.169692 0.000000 0.590092 0.373711 0.000000 6.367749 -0.120109 0.000000 0.318053 0.542612 0.000000 6.267415 -0.099942 0.000000 0.173440 0.715052 0.000000 6.247372 -0.059184 0.000000 0.130430 0.925003 0.000000 6.238245 0.002203 0.000000 0.124752 1.180257 0.000000 6.216598 0.078216 0.000000 0.128029 1.491139 0.000000 6.182537 0.168428 0.000000 0.135999 1.875778 0.000000 
6.368441 0.245260 0.000000 0.212391 2.371319 0.000000 6.369895 0.241483 0.000000 0.265861 3.191666 0.000000 6.380434 0.037490 0.000000 0.263086 -2.872672 0.000000 6.246156 0.155488 0.000000 0.240043 -2.302843 0.000000 6.173449 0.128696 0.000000 0.196718 -1.862048 0.000000 6.165619 0.114375 0.000000 0.125563 -1.490419 0.000000 6.228234 0.134396 0.000000 0.003697 -1.196596 0.000000 6.377123 0.099423 0.000000 -0.067637 -0.890699 0.000000 6.483447 -0.097449 0.000000 0.303020 -0.845771 0.000000 6.766535 -0.098074 0.000000 0.566523 -0.534819 0.000000 6.729312 0.125136 0.000000 0.433443 -0.428633 0.000000 6.769209 0.028896 0.000000 0.481764 -0.380228 0.000000 6.827325 0.015663 0.000000 0.546727 -0.288260 0.000000 6.796066 0.031528 0.000000 0.574637 -0.226013 0.000000 6.760088 0.038410 0.000000 0.560216 -0.178187 0.000000 6.761228 0.024732 0.000000 0.523144 -0.134964 0.000000 6.817098 -0.025553 0.000000 0.519535 -0.094768 0.000000 6.874252 -0.068884 0.000000 0.597977 -0.055926 0.000000 6.859427 -0.051525 0.000000 0.631689 0.005116 0.000000 6.782477 -0.040081 0.000000 0.616027 0.024557 0.000000 6.772818 -0.060566 0.000000 0.589710 0.063301 0.000000 6.806994 -0.105468 0.000000 0.555033 0.110632 0.000000 6.875411 -0.192523 0.000000 0.641775 0.153848 0.000000 6.885113 -0.207306 0.000000 0.731892 0.255601 0.000000 6.732808 -0.194255 0.000000 0.817691 0.305267 0.000000 6.661760 -0.137175 0.000000 0.646192 0.485769 0.000000 6.407611 -0.053145 0.000000 0.289663 0.595518 0.000000 6.326163 -0.080848 0.000000 0.172724 0.726379 0.000000 6.335595 -0.073546 0.000000 0.154948 0.921998 0.000000 6.350548 -0.022076 0.000000 0.160962 1.171690 0.000000 6.358239 0.055372 0.000000 0.171592 1.477737 0.000000 6.362795 0.149827 0.000000 0.185850 1.857902 0.000000 
6.601464 0.236914 0.000000 0.203292 2.385764 0.000000 6.641991 0.216503 0.000000 0.257762 3.195560 0.000000 6.707570 0.038677 0.000000 0.255892 -2.812111 0.000000 6.541080 0.161637 0.000000 0.243180 -2.273569 0.000000 6.436258 0.141200 0.000000 0.222235 -1.863531 0.000000 6.391420 0.136199 0.000000 0.202431 -1.526941 0.000000 6.395533 0.180880 0.000000 0.184042 -1.277020 0.000000 6.420720 0.123104 0.000000 0.135839 -0.956711 0.000000 6.471708 -0.323458 0.000000 0.078152 -1.045223 0.000000 6.445954 -0.283304 0.000000 -0.003800 -0.534579 0.000000 6.466192 0.180880 0.000000 0.024281 -0.451155 0.000000 6.511610 -0.037556 0.000000 0.070027 -0.399314 0.000000 6.534800 -0.054959 0.000000 0.124176 -0.249087 0.000000 6.527756 -0.005329 0.000000 0.173668 -0.190763 0.000000 6.515243 0.036257 0.000000 0.212234 -0.170294 0.000000 6.513194 0.036206 0.000000 0.235209 -0.160250 0.000000 6.531794 -0.041335 0.000000 0.250345 -0.116486 0.000000 6.561066 -0.140117 0.000000 0.296177 -0.041578 0.000000 6.551112 -0.082627 0.000000 0.330152 0.053604 0.000000 6.514260 -0.022750 0.000000 0.349600 0.020038 0.000000 6.509122 -0.035039 0.000000 0.369211 0.034281 0.000000 6.519707 -0.071290 0.000000 0.369264 0.070324 0.000000 6.560862 -0.244738 0.000000 0.416555 0.145726 0.000000 6.583017 -0.265847 0.000000 0.468324 0.356795 0.000000 6.533495 -0.253772 0.000000 0.612523 0.284315 0.000000 6.493278 0.001807 0.000000 0.431997 0.627859 0.000000 6.393733 0.236420 0.000000 0.204638 0.624060 0.000000 6.420812 0.016997 0.000000 0.148881 0.705620 0.000000 6.469117 -0.041407 0.000000 0.144362 0.910049 0.000000 6.504894 -0.003811 0.000000 0.149477 1.172566 0.000000 6.533945 0.067586 0.000000 0.158185 1.486583 0.000000 6.564419 0.154170 0.000000 0.173163 1.870131 0.000000 