# vtk DataFile Version 2.0
Comment goes here
ASCII

DATASET STRUCTURED_POINTS
FIELD FieldData 1
TIME 1 1 double
0.06300000
DIMENSIONS    64   64   1

ORIGIN    0.000   0.000   0.000
SPACING   0.03125 0.03125   1.000

POINT_DATA   4096
SCALARS uX double
LOOKUP_TABLE default

6.394641e-01 -1.689029e+00 4.034457e-01 -1.478508e+00 1.038172e-02 -1.280082e+00 6.295528e-02 -1.079325e+00 6.367048e-02 -9.637331e-01 7.057745e-02 -9.044951e-01 9.197456e-02 -8.759336e-01 1.188676e-01 -8.436410e-01 1.159053e-01 -7.679277e-01 5.464367e-02 -6.371998e-01 -7.448608e-02 -4.588437e-01 -2.458013e-01 -2.626739e-01 -4.273279e-01 -7.085791e-02 -6.053381e-01 1.175117e-01 -7.873310e-01 3.135869e-01 -9.755929e-01 5.151783e-01 -1.159151e+00 7.026422e-01 -1.313815e+00 8.421493e-01 -1.409246e+00 9.078990e-01 -1.427063e+00 8.984518e-01 -1.383770e+00 8.395728e-01 -1.303211e+00 7.422930e-01 -1.184167e+00 5.953434e-01 -1.018601e+00 3.874426e-01 -8.031980e-01 1.237976e-01 -5.484437e-01 -1.794579e-01 -2.731863e-01 -5.035659e-01 5.203480e-03 -8.216018e-01 2.604234e-01 -1.111728e+00 4.707848e-01 -1.352241e+00 6.106751e-01 -1.530431e+00 6.719853e-01 -1.654032e+00 
-3.461600e-01 4.237739e-01 -1.950728e-01 3.334295e-01 1.610324e-01 2.369388e-01 -8.432740e-02 1.036758e-01 -2.059108e-01 3.942542e-02 -2.926024e-01 1.049904e-02 -3.683287e-01 -6.519735e-03 -4.397888e-01 -3.482151e-02 -4.922353e-01 -9.115398e-02 -5.077062e-01 -1.673783e-01 -4.695471e-01 -2.642606e-01 -4.021261e-01 -3.631800e-01 -3.248065e-01 -4.575662e-01 -2.448643e-01 -5.495372e-01 -1.590724e-01 -6.482649e-01 -7.504331e-02 -7.529923e-01 3.809518e-03 -8.508080e-01 6.944062e-02 -9.225758e-01 1.111892e-01 -9.558977e-01 1.174012e-01 -9.556211e-01 9.526793e-02 -9.355746e-01 5.762400e-02 -8.978151e-01 7.010757e-03 -8.303557e-01 -5.368769e-02 -7.229256e-01 -1.290206e-01 -5.820095e-01 -2.198981e-01 -4.200119e-01 -3.102006e-01 -2.493350e-01 -4.004789e-01 -8.595284e-02 -4.781486e-01 6.123343e-02 -5.301635e-01 1.828938e-01 -5.360367e-01 2.691137e-01 -4.821727e-01 3.233291e-01 
1.554956e+00 6.520611e-01 1.237443e+00 5.330012e-01 9.656018e-01 3.971062e-01 1.634357e+00 3.609817e-01 2.028925e+00 3.032701e-01 2.289240e+00 2.631923e-01 2.476598e+00 2.600613e-01 2.627943e+00 2.879903e-01 2.784327e+00 3.047850e-01 2.955143e+00 2.622277e-01 3.115922e+00 1.694730e-01 3.285963e+00 4.455196e-02 3.439571e+00 -7.049051e-02 3.566484e+00 -1.786544e-01 3.681605e+00 -2.833259e-01 3.816473e+00 -3.845006e-01 3.960707e+00 -4.815173e-01 4.086495e+00 -5.528800e-01 4.151813e+00 -5.739252e-01 4.152240e+00 -5.387799e-01 4.120143e+00 -4.767589e-01 4.075053e+00 -4.048701e-01 4.000362e+00 -3.250518e-01 3.860348e+00 -2.335893e-01 3.656287e+00 -1.251485e-01 3.418390e+00 -1.510317e-03 3.137407e+00 1.386857e-01 2.850812e+00 2.828974e-01 2.576753e+00 4.196382e-01 2.314044e+00 5.295438e-01 2.062969e+00 6.077153e-01 1.801572e+00 6.616393e-01 
3.553365e+00 -1.327124e-01 2.725775e+00 -3.022939e-01 1.358030e+00 -2.174219e-01 2.965660e+00 -1.304893e-01 3.802674e+00 -1.117992e-01 4.370748e+00 -1.102240e-01 4.817851e+00 -9.043334e-02 5.211354e+00 -1.138475e-02 5.561659e+00 1.758987e-01 5.826629e+00 3.024300e-01 5.958464e+00 3.768933e-01 6.069076e+00 4.239585e-01 6.147616e+00 4.580687e-01 6.181094e+00 4.931439e-01 6.185998e+00 5.343837e-01 6.193883e+00 5.765078e-01 6.219568e+00 6.140428e-01 6.252083e+00 6.402970e-01 6.249911e+00 6.556834e-01 6.230612e+00 6.742584e-01 6.214312e+00 6.925167e-01 6.207647e+00 7.081851e-01 6.203416e+00 7.028918e-01 6.148507e+00 6.550583e-01 6.032607e+00 5.705008e-01 5.829456e+00 4.535731e-01 5.627520e+00 3.336638e-01 5.436082e+00 2.367068e-01 5.234799e+00 1.694489e-01 4.990606e+00 1.227226e-01 4.662472e+00 8.528451e-02 4.208764e+00 3.574743e-02 
3.656118e+00 4.688583e-02 2.969873e+00 -1.752567e-01 1.893081e+00 -1.371451e-01 3.086160e+00 -1.771944e-01 3.866473e+00 -1.647284e-01 4.419265e+00 -1.570195e-01 4.856638e+00 -1.430654e-01 5.250022e+00 -6.271224e-02 5.602686e+00 2.503385e-01 5.893476e+00 3.908894e-01 6.018749e+00 4.274399e-01 6.153955e+00 4.520092e-01 6.243695e+00 4.821900e-01 6.273342e+00 5.147046e-01 6.281462e+00 5.448737e-01 6.302491e+00 5.477617e-01 6.351902e+00 5.459100e-01 6.398004e+00 5.681874e-01 6.379796e+00 5.880913e-01 6.343056e+00 6.176249e-01 6.315910e+00 6.241877e-01 6.312656e+00 6.234757e-01 6.314131e+00 6.413115e-01 6.225235e+00 6.527082e-01 6.064747e+00 6.223350e-01 5.892644e+00 5.118000e-01 5.642155e+00 3.690295e-01 5.418920e+00 2.787432e-01 5.206949e+00 2.354350e-01 4.959974e+00 2.140729e-01 4.640861e+00 1.865397e-01 4.230015e+00 1.240235e-01 
3.896481e+00 -9.273209e-02 3.250136e+00 -1.481051e-01 2.386317e+00 -1.545228e-01 3.240642e+00 -1.422206e-01 3.972219e+00 -1.294964e-01 4.506825e+00 -1.411942e-01 4.924206e+00 -1.790766e-01 5.320808e+00 -2.232253e-01 5.751749e+00 3.471380e-01 5.989446e+00 4.257948e-01 6.042263e+00 4.285745e-01 6.178465e+00 4.291640e-01 6.276681e+00 4.540665e-01 6.303057e+00 5.014236e-01 6.295640e+00 5.691763e-01 6.288404e+00 6.066496e-01 6.316589e+00 6.013746e-01 6.380558e+00 6.111102e-01 6.368949e+00 6.340715e-01 6.330243e+00 6.959775e-01 6.292741e+00 7.322840e-01 6.280230e+00 7.296122e-01 6.320470e+00 7.209604e-01 6.284316e+00 7.086228e-01 6.166644e+00 6.903085e-01 5.849804e+00 4.913750e-01 5.627610e+00 3.249011e-01 5.456095e+00 2.197687e-01 5.285823e+00 1.602806e-01 5.070587e+00 1.152747e-01 4.780723e+00 6.579377e-02 4.394156e+00 -3.645256e-03 
4.082517e+00 3.678033e-02 3.567096e+00 -2.738121e-02 2.880717e+00 -3.413636e-02 3.474505e+00 -7.941396e-02 4.047811e+00 -9.586850e-02 4.498545e+00 -1.302963e-01 4.859643e+00 -2.563103e-01 5.255383e+00 -4.708184e-01 5.751011e+00 4.953965e-01 6.019576e+00 5.262123e-01 5.991136e+00 4.093945e-01 6.182209e+00 3.495824e-01 6.290011e+00 4.302975e-01 6.291657e+00 5.048068e-01 6.273757e+00 5.868885e-01 6.272849e+00 5.625329e-01 6.345431e+00 4.466882e-01 6.461000e+00 5.095809e-01 6.403285e+00 5.613969e-01 6.346572e+00 6.666977e-01 6.300108e+00 6.652063e-01 6.310947e+00 5.531776e-01 6.429447e+00 5.527552e-01 6.361047e+00 6.812971e-01 6.134666e+00 9.440423e-01 5.932959e+00 5.353789e-01 5.582896e+00 2.386212e-01 5.430339e+00 1.849356e-01 5.290208e+00 1.840297e-01 5.096126e+00 1.779770e-01 4.837356e+00 1.549049e-01 4.505310e+00 1.114432e-01 
4.353897e+00 -2.072366e-02 3.902302e+00 -2.692099e-02 3.337072e+00 -3.366364e-02 3.755798e+00 -4.914004e-02 4.225150e+00 -4.591986e-02 4.624157e+00 -4.984080e-02 4.938079e+00 -8.884062e-02 5.175794e+00 -1.473037e-01 5.427045e+00 -1.709917e-01 5.511617e+00 -2.250226e-01 5.647199e+00 -1.486437e-01 5.807301e+00 -1.129946e-01 5.920822e+00 -2.174183e-02 5.962158e+00 7.699415e-02 5.982866e+00 1.769027e-01 5.983568e+00 2.143635e-01 6.004748e+00 1.731215e-01 6.084765e+00 2.391882e-01 6.049130e+00 3.034602e-01 6.020118e+00 4.154446e-01 5.997012e+00 4.537515e-01 5.985452e+00 3.996079e-01 6.095611e+00 4.267154e-01 6.104573e+00 6.228727e-01 6.076244e+00 1.229632e+00 5.690231e+00 4.298128e-01 5.511980e+00 1.311368e-01 5.481616e+00 1.093617e-01 5.396137e+00 1.151078e-01 5.235747e+00 1.023180e-01 5.009655e+00 7.231782e-02 4.717067e+00 2.969994e-02 
4.585286e+00 7.376014e-02 4.235980e+00 6.550713e-02 3.792030e+00 5.894487e-02 4.069373e+00 3.380743e-02 4.398748e+00 4.605854e-02 4.680907e+00 1.285143e-01 4.812282e+00 3.084149e-01 4.579555e+00 4.629130e-01 3.774320e+00 -1.827691e+00 3.620795e+00 -2.054811e+00 3.972903e+00 -1.903502e+00 3.774518e+00 -1.730738e+00 3.714592e+00 -1.793464e+00 3.908018e+00 -1.887892e+00 4.118358e+00 -2.015791e+00 4.224537e+00 -1.941274e+00 4.104666e+00 -1.671349e+00 3.825429e+00 -1.679935e+00 3.951120e+00 -1.708818e+00 4.108637e+00 -1.889677e+00 4.212460e+00 -1.869033e+00 4.153220e+00 -1.630833e+00 3.832598e+00 -1.524234e+00 3.920122e+00 -1.628413e+00 4.304286e+00 -2.004221e+00 4.933456e+00 -8.449033e-01 5.477511e+00 -1.438205e-01 5.561103e+00 8.029437e-02 5.465251e+00 1.409583e-01 5.310101e+00 1.510365e-01 5.114347e+00 1.386946e-01 4.874566e+00 1.114557e-01 
4.858145e+00 4.137940e-02 4.567935e+00 6.195187e-02 4.211794e+00 5.588574e-02 4.384276e+00 4.169837e-02 4.616917e+00 6.171658e-02 4.818665e+00 1.552917e-01 4.871094e+00 3.593349e-01 4.586000e+00 5.262517e-01 3.919821e+00 -1.403697e+00 3.615549e+00 -1.711126e+00 3.849210e+00 -1.700721e+00 3.593257e+00 -1.623274e+00 3.456580e+00 -1.774219e+00 3.601491e+00 -1.968020e+00 3.800876e+00 -2.195019e+00 3.912105e+00 -2.178478e+00 3.773310e+00 -1.900111e+00 3.424593e+00 -1.947220e+00 3.553335e+00 -2.030375e+00 3.737448e+00 -2.317114e+00 3.870552e+00 -2.370105e+00 3.824566e+00 -2.126426e+00 3.395849e+00 -2.059765e+00 3.435923e+00 -2.309939e+00 3.842660e+00 -3.255676e+00 4.949526e+00 -1.299038e+00 5.659515e+00 -2.441520e-01 5.718138e+00 4.441986e-02 5.608724e+00 1.014194e-01 5.466771e+00 1.010301e-01 5.299379e+00 8.367767e-02 5.098158e+00 6.051610e-02 
5.098790e+00 1.133404e-01 4.889854e+00 1.333946e-01 4.628180e+00 1.278362e-01 4.711696e+00 9.517485e-02 4.851486e+00 6.486128e-02 5.005321e+00 4.215034e-02 5.131498e+00 1.176159e-02 5.249056e+00 -3.511070e-02 5.579998e+00 4.000380e-01 5.567808e+00 2.976953e-01 5.568228e+00 2.147428e-01 5.660496e+00 1.233161e-01 5.699315e+00 7.143004e-02 5.699674e+00 2.230753e-02 5.716360e+00 -7.181468e-03 5.720031e+00 -4.015149e-02 5.718347e+00 -1.022799e-01 5.752400e+00 -1.345347e-01 5.747615e+00 -1.685304e-01 5.759422e+00 -1.782046e-01 5.762729e+00 -1.964682e-01 5.741958e+00 -2.311328e-01 5.747019e+00 -2.574973e-01 5.747956e+00 -2.088691e-01 5.772061e+00 1.908154e-02 5.590794e+00 -2.165324e-01 5.659101e+00 -7.386053e-02 5.684198e+00 5.405280e-02 5.634599e+00 1.131283e-01 5.542495e+00 1.329897e-01 5.421106e+00 1.330474e-01 5.273140e+00 1.232164e-01 
5.359790e+00 9.202205e-02 5.202060e+00 1.267189e-01 5.011621e+00 1.218759e-01 5.029146e+00 9.247421e-02 5.108097e+00 5.212660e-02 5.226300e+00 -1.977718e-02 5.379121e+00 -1.877029e-01 5.661621e+00 -4.227947e-01 6.048871e+00 5.701691e-01 6.305683e+00 6.659355e-01 6.212290e+00 5.315451e-01 6.352479e+00 4.463985e-01 6.426478e+00 5.107391e-01 6.393860e+00 5.715842e-01 6.346466e+00 6.395656e-01 6.327300e+00 5.995898e-01 6.394342e+00 4.603785e-01 6.520931e+00 5.146218e-01 6.460623e+00 5.577606e-01 6.406858e+00 6.612278e-01 6.371815e+00 6.516503e-01 6.399783e+00 5.151113e-01 6.559301e+00 5.054382e-01 6.528159e+00 6.666799e-01 6.349292e+00 1.137369e+00 6.109411e+00 4.459934e-01 5.834594e+00 1.000147e-01 5.787128e+00 7.033960e-02 5.755109e+00 8.961860e-02 5.692546e+00 9.809354e-02 5.603206e+00 9.574423e-02 5.491532e+00 9.016403e-02 
5.594198e+00 1.509414e-01 5.502350e+00 1.857023e-01 5.390187e+00 1.815172e-01 5.351002e+00 1.460379e-01 5.372964e+00 9.428169e-02 5.454252e+00 2.550073e-02 5.595325e+00 -6.510632e-02 5.833046e+00 -1.209275e-01 6.116000e+00 3.777856e-01 6.302719e+00 5.170452e-01 6.287705e+00 4.941561e-01 6.370676e+00 4.707073e-01 6.440367e+00 4.944576e-01 6.436335e+00 5.293791e-01 6.403994e+00 5.626823e-01 6.394972e+00 5.466712e-01 6.441802e+00 4.997607e-01 6.522986e+00 5.184608e-01 6.505297e+00 5.401360e-01 6.456995e+00 5.949840e-01 6.429368e+00 6.038133e-01 6.447696e+00 5.756652e-01 6.529113e+00 6.073256e-01 6.499129e+00 6.811084e-01 6.374976e+00 7.583726e-01 6.201649e+00 5.164703e-01 5.964918e+00 2.408016e-01 5.861472e+00 1.393580e-01 5.824105e+00 1.264406e-01 5.787524e+00 1.333844e-01 5.735987e+00 1.391678e-01 5.670488e+00 1.425074e-01 
5.836833e+00 1.361060e-01 5.789195e+00 1.777362e-01 5.737543e+00 1.743654e-01 5.655362e+00 1.439453e-01 5.636690e+00 9.355104e-02 5.682941e+00 2.247377e-02 5.792360e+00 -5.528573e-02 5.970257e+00 -3.751561e-02 6.119209e+00 3.429440e-01 6.379214e+00 5.248803e-01 6.385347e+00 4.888336e-01 6.444581e+00 4.904449e-01 6.485427e+00 5.211779e-01 6.466273e+00 5.465166e-01 6.425901e+00 5.601818e-01 6.422619e+00 5.444081e-01 6.467832e+00 5.249329e-01 6.526343e+00 5.590995e-01 6.511143e+00 5.813729e-01 6.457778e+00 6.099889e-01 6.441653e+00 6.079744e-01 6.471301e+00 5.915129e-01 6.540352e+00 6.344646e-01 6.523184e+00 6.855548e-01 6.401371e+00 7.153830e-01 6.249055e+00 5.144150e-01 6.049547e+00 2.721237e-01 5.963878e+00 1.526296e-01 5.945843e+00 1.185662e-01 5.933824e+00 1.139765e-01 5.910206e+00 1.159703e-01 5.876355e+00 1.211979e-01 
6.057689e+00 1.881794e-01 6.063656e+00 2.313107e-01 6.078789e+00 2.287949e-01 5.953028e+00 2.078252e-01 5.886667e+00 1.705479e-01 5.880601e+00 1.102057e-01 5.936954e+00 6.305689e-03 6.076089e+00 -6.928259e-02 6.195713e+00 3.297966e-01 6.435756e+00 5.084460e-01 6.401736e+00 4.088353e-01 6.452653e+00 4.371246e-01 6.498573e+00 4.996118e-01 6.477836e+00 5.259661e-01 6.436113e+00 5.150399e-01 6.438795e+00 4.816385e-01 6.484581e+00 4.584129e-01 6.539286e+00 5.380046e-01 6.529605e+00 5.687620e-01 6.459938e+00 5.706203e-01 6.453549e+00 5.479729e-01 6.480841e+00 5.079548e-01 6.548457e+00 5.821002e-01 6.554205e+00 6.596643e-01 6.420331e+00 7.656888e-01 6.329886e+00 5.470731e-01 6.089732e+00 2.461606e-01 6.027905e+00 1.555986e-01 6.035950e+00 1.431484e-01 6.045960e+00 1.486412e-01 6.049926e+00 1.572731e-01 6.052274e+00 1.682851e-01 
6.278543e+00 1.787390e-01 6.322592e+00 2.238852e-01 6.390139e+00 2.222095e-01 6.231450e+00 2.102520e-01 6.132070e+00 1.910678e-01 6.089729e+00 1.707340e-01 6.094187e+00 1.489675e-01 6.120922e+00 1.089512e-01 6.165767e+00 6.257308e-02 6.153555e+00 1.526409e-02 6.172910e+00 4.012981e-02 6.210425e+00 7.455257e-02 6.234336e+00 1.205100e-01 6.229000e+00 1.633725e-01 6.213191e+00 1.977830e-01 6.209219e+00 2.183028e-01 6.222393e+00 2.251163e-01 6.250152e+00 2.682928e-01 6.244939e+00 2.973973e-01 6.211111e+00 3.205389e-01 6.206313e+00 3.380637e-01 6.213306e+00 3.343566e-01 6.251808e+00 3.751959e-01 6.271245e+00 4.178037e-01 6.235838e+00 5.591730e-01 6.172821e+00 3.590993e-01 6.088625e+00 1.781420e-01 6.117818e+00 1.364593e-01 6.158518e+00 1.330891e-01 6.188435e+00 1.369615e-01 6.213826e+00 1.437129e-01 6.242034e+00 1.554056e-01 
6.480957e+00 2.253952e-01 6.569545e+00 2.705574e-01 6.694341e+00 2.697390e-01 6.501130e+00 2.695368e-01 6.362795e+00 2.779544e-01 6.263767e+00 3.277634e-01 6.157787e+00 4.622429e-01 5.948808e+00 5.242206e-01 5.802508e+00 -3.606809e-01 5.239214e+00 -8.317896e-01 5.302189e+00 -6.631194e-01 5.226611e+00 -7.590581e-01 5.166731e+00 -8.865016e-01 5.225689e+00 -8.958599e-01 5.314048e+00 -8.138462e-01 5.302873e+00 -7.115880e-01 5.226309e+00 -6.684909e-01 5.149044e+00 -8.323513e-01 5.167188e+00 -8.563978e-01 5.300221e+00 -7.946385e-01 5.291593e+00 -6.994058e-01 5.237173e+00 -6.026674e-01 5.140684e+00 -7.610469e-01 5.144232e+00 -9.072772e-01 5.399226e+00 -1.140314e+00 5.569498e+00 -6.360211e-01 6.050492e+00 -5.997360e-02 6.228718e+00 1.192524e-01 6.276129e+00 1.605435e-01 6.309199e+00 1.730729e-01 6.351612e+00 1.834253e-01 6.407910e+00 1.985676e-01 
6.677775e+00 2.197417e-01 6.799553e+00 2.632368e-01 6.969695e+00 2.632872e-01 6.747046e+00 2.659484e-01 6.575870e+00 2.754267e-01 6.436782e+00 3.199611e-01 6.288390e+00 4.306013e-01 6.075597e+00 4.930536e-01 5.945395e+00 -4.606201e-02 5.514309e+00 -3.793872e-01 5.478804e+00 -3.224356e-01 5.389860e+00 -4.439346e-01 5.317868e+00 -5.984069e-01 5.341983e+00 -6.578362e-01 5.402368e+00 -6.328514e-01 5.384967e+00 -5.775036e-01 5.310391e+00 -5.660286e-01 5.236621e+00 -7.381468e-01 5.250407e+00 -7.886499e-01 5.377526e+00 -7.618479e-01 5.377732e+00 -7.053608e-01 5.335466e+00 -6.464127e-01 5.249744e+00 -8.322839e-01 5.253608e+00 -1.005685e+00 5.497195e+00 -1.265017e+00 5.678407e+00 -7.549200e-01 6.168009e+00 -1.097018e-01 6.345580e+00 1.050716e-01 6.396348e+00 1.551365e-01 6.440487e+00 1.673785e-01 6.499993e+00 1.763039e-01 6.578162e+00 1.914213e-01 
6.858370e+00 2.599851e-01 7.018477e+00 3.012693e-01 7.237004e+00 3.021985e-01 6.985601e+00 3.038370e-01 6.786894e+00 2.961574e-01 6.631028e+00 2.741249e-01 6.517760e+00 2.153796e-01 6.473361e+00 1.615726e-01 6.441981e+00 4.480134e-01 6.532075e+00 5.509698e-01 6.431475e+00 4.385941e-01 6.425000e+00 4.304874e-01 6.423245e+00 4.358650e-01 6.388604e+00 4.118517e-01 6.354078e+00 3.693754e-01 6.346760e+00 3.273842e-01 6.356030e+00 2.924561e-01 6.378667e+00 3.187424e-01 6.374520e+00 3.099708e-01 6.346094e+00 2.830985e-01 6.356364e+00 2.491515e-01 6.373750e+00 1.983760e-01 6.419221e+00 2.083131e-01 6.449085e+00 2.293916e-01 6.426087e+00 3.583628e-01 6.391607e+00 1.917125e-01 6.351907e+00 1.219685e-01 6.404207e+00 1.529783e-01 6.469347e+00 1.807911e-01 6.539171e+00 1.969670e-01 6.622801e+00 2.108351e-01 6.727461e+00 2.295671e-01 
7.030163e+00 2.557598e-01 7.219286e+00 2.938740e-01 7.476401e+00 2.956307e-01 7.203294e+00 3.006190e-01 6.984746e+00 2.946900e-01 6.814763e+00 2.678199e-01 6.703839e+00 1.917162e-01 6.680738e+00 1.255971e-01 6.640446e+00 4.115164e-01 6.770275e+00 5.661053e-01 6.695094e+00 4.778104e-01 6.679239e+00 4.991591e-01 6.671864e+00 5.504279e-01 6.629373e+00 5.634054e-01 6.579396e+00 5.378458e-01 6.568775e+00 4.979656e-01 6.589100e+00 4.733753e-01 6.613500e+00 5.415238e-01 6.604826e+00 5.574505e-01 6.554546e+00 5.366841e-01 6.563629e+00 4.961568e-01 6.593663e+00 4.395863e-01 6.651420e+00 4.930606e-01 6.677096e+00 5.597641e-01 6.598895e+00 6.732459e-01 6.604196e+00 4.783143e-01 6.473339e+00 2.259357e-01 6.492239e+00 1.783151e-01 6.566349e+00 1.847077e-01 6.651857e+00 1.951951e-01 6.752502e+00 2.071797e-01 6.876438e+00 2.254493e-01 
7.187531e+00 2.901646e-01 7.409482e+00 3.243182e-01 7.707058e+00 3.267984e-01 7.415363e+00 3.312025e-01 7.180893e+00 3.250860e-01 6.999335e+00 3.096989e-01 6.874443e+00 2.904358e-01 6.806920e+00 2.969915e-01 6.756949e+00 4.013490e-01 6.783743e+00 4.783214e-01 6.737292e+00 4.797502e-01 6.711904e+00 4.965950e-01 6.691582e+00 5.159978e-01 6.655886e+00 5.208353e-01 6.617099e+00 5.127213e-01 6.602240e+00 4.972613e-01 6.608888e+00 4.913034e-01 6.620100e+00 5.126204e-01 6.613733e+00 5.149448e-01 6.588129e+00 5.073411e-01 6.589817e+00 4.919952e-01 6.610704e+00 4.784656e-01 6.643524e+00 5.035745e-01 6.657220e+00 5.204746e-01 6.631242e+00 5.223723e-01 6.625300e+00 4.332078e-01 6.574137e+00 3.014276e-01 6.587555e+00 2.409872e-01 6.652485e+00 2.263302e-01 6.745312e+00 2.291067e-01 6.862286e+00 2.403233e-01 7.007674e+00 2.597226e-01 
7.333866e+00 2.866300e-01 7.580747e+00 3.171149e-01 7.910539e+00 3.203454e-01 7.603033e+00 3.280903e-01 7.353983e+00 3.256073e-01 7.157615e+00 3.157509e-01 7.013995e+00 3.115342e-01 6.913741e+00 3.396556e-01 6.831959e+00 3.982037e-01 6.834407e+00 4.677055e-01 6.800593e+00 4.865327e-01 6.761643e+00 5.068639e-01 6.725310e+00 5.218029e-01 6.686257e+00 5.240159e-01 6.649143e+00 5.164272e-01 6.631715e+00 5.064578e-01 6.629766e+00 5.083244e-01 6.628426e+00 5.221941e-01 6.621177e+00 5.208749e-01 6.605358e+00 5.109165e-01 6.609876e+00 4.961313e-01 6.630100e+00 4.898150e-01 6.654116e+00 5.049944e-01 6.665891e+00 5.063241e-01 6.657269e+00 4.798460e-01 6.668275e+00 4.232195e-01 6.648687e+00 3.255720e-01 6.669964e+00 2.621594e-01 6.740369e+00 2.368216e-01 6.843175e+00 2.324758e-01 6.973461e+00 2.400483e-01 7.134818e+00 2.577187e-01 
7.467491e+00 3.170692e-01 7.741505e+00 3.442432e-01 8.104704e+00 3.481543e-01 7.782368e+00 3.593284e-01 7.518868e+00 3.635587e-01 7.305981e+00 3.646580e-01 7.140629e+00 3.711859e-01 7.015482e+00 3.913973e-01 6.922357e+00 4.265582e-01 6.875650e+00 4.616425e-01 6.827071e+00 4.823622e-01 6.782937e+00 4.978155e-01 6.743086e+00 5.055606e-01 6.704431e+00 5.057849e-01 6.670049e+00 5.019172e-01 6.649565e+00 4.971973e-01 6.641315e+00 4.969342e-01 6.637173e+00 4.988759e-01 6.631071e+00 4.942372e-01 6.622304e+00 4.870930e-01 6.625112e+00 4.793802e-01 6.639666e+00 4.759704e-01 6.659269e+00 4.760281e-01 6.675568e+00 4.619488e-01 6.685227e+00 4.319986e-01 6.697905e+00 3.923887e-01 6.706183e+00 3.366336e-01 6.742997e+00 2.922992e-01 6.818179e+00 2.692702e-01 6.927601e+00 2.636570e-01 7.069639e+00 2.707745e-01 7.247471e+00 2.887246e-01 
7.588326e+00 3.142993e-01 7.882895e+00 3.380630e-01 8.272254e+00 3.426320e-01 7.936891e+00 3.570747e-01 7.660566e+00 3.655957e-01 7.432977e+00 3.718594e-01 7.250081e+00 3.836067e-01 7.105587e+00 4.045998e-01 6.996193e+00 4.333638e-01 6.932223e+00 4.640459e-01 6.876452e+00 4.862344e-01 6.823681e+00 5.023104e-01 6.775522e+00 5.101280e-01 6.732206e+00 5.108818e-01 6.695565e+00 5.080210e-01 6.671425e+00 5.051197e-01 6.657673e+00 5.054127e-01 6.648488e+00 5.056691e-01 6.641371e+00 5.002683e-01 6.635782e+00 4.920562e-01 6.640355e+00 4.834569e-01 6.654735e+00 4.777340e-01 6.673445e+00 4.717536e-01 6.692439e+00 4.533895e-01 6.710933e+00 4.234465e-01 6.735617e+00 3.866966e-01 6.760775e+00 3.405405e-01 6.809044e+00 3.003761e-01 6.892161e+00 2.758876e-01 7.010020e+00 2.671949e-01 7.162413e+00 2.717151e-01 7.352843e+00 2.878759e-01 
7.697657e+00 3.414461e-01 8.013886e+00 3.629384e-01 8.430018e+00 3.681149e-01 8.081572e+00 3.861364e-01 7.792424e+00 3.995316e-01 7.550421e+00 4.097037e-01 7.351584e+00 4.213315e-01 7.191781e+00 4.365249e-01 7.068165e+00 4.554398e-01 6.978727e+00 4.727705e-01 6.906074e+00 4.866660e-01 6.845044e+00 4.962428e-01 6.792847e+00 5.000233e-01 6.747732e+00 4.992937e-01 6.710401e+00 4.964856e-01 6.683874e+00 4.932711e-01 6.667209e+00 4.905738e-01 6.656875e+00 4.867237e-01 6.650047e+00 4.801293e-01 6.646364e+00 4.725432e-01 6.650476e+00 4.648664e-01 6.663368e+00 4.571839e-01 6.682733e+00 4.461064e-01 6.706053e+00 4.264383e-01 6.732118e+00 4.005365e-01 6.762652e+00 3.718749e-01 6.801498e+00 3.411612e-01 6.862485e+00 3.143228e-01 6.954293e+00 2.972103e-01 7.080096e+00 2.918846e-01 7.242397e+00 2.980993e-01 7.445727e+00 3.152444e-01 
7.793011e+00 3.390061e-01 8.125247e+00 3.576964e-01 8.561613e+00 3.634245e-01 8.202430e+00 3.842355e-01 7.902763e+00 4.010322e-01 7.649078e+00 4.142880e-01 7.437526e+00 4.278422e-01 7.264918e+00 4.431276e-01 7.129171e+00 4.605550e-01 7.028120e+00 4.767443e-01 6.946825e+00 4.902072e-01 6.878339e+00 4.997110e-01 6.819915e+00 5.039816e-01 6.770392e+00 5.040637e-01 6.729985e+00 5.020272e-01 6.700252e+00 4.993756e-01 6.680120e+00 4.965841e-01 6.667027e+00 4.922729e-01 6.659332e+00 4.853378e-01 6.656766e+00 4.769387e-01 6.662092e+00 4.678322e-01 6.675803e+00 4.577539e-01 6.696334e+00 4.440060e-01 6.722580e+00 4.234504e-01 6.754408e+00 3.981501e-01 6.793760e+00 3.701920e-01 6.843157e+00 3.416877e-01 6.913393e+00 3.167541e-01 7.012830e+00 2.998997e-01 7.145947e+00 2.936192e-01 7.316363e+00 2.985310e-01 7.529269e+00 3.144612e-01 
7.877519e+00 3.627943e-01 8.226303e+00 3.800512e-01 8.683053e+00 3.862721e-01 8.313074e+00 4.094557e-01 8.003196e+00 4.288092e-01 7.738709e+00 4.430258e-01 7.515862e+00 4.549952e-01 7.331919e+00 4.662653e-01 7.183968e+00 4.772970e-01 7.067511e+00 4.862501e-01 6.973725e+00 4.930066e-01 6.897191e+00 4.969581e-01 6.834057e+00 4.975114e-01 6.781877e+00 4.953758e-01 6.739870e+00 4.917825e-01 6.708412e+00 4.874330e-01 6.686672e+00 4.823736e-01 6.672767e+00 4.759905e-01 6.665015e+00 4.680884e-01 6.663074e+00 4.593220e-01 6.668609e+00 4.497760e-01 6.682527e+00 4.386491e-01 6.704434e+00 4.241850e-01 6.733635e+00 4.053270e-01 6.769899e+00 3.839175e-01 6.814662e+00 3.619869e-01 6.872528e+00 3.415278e-01 6.951699e+00 3.247693e-01 7.059026e+00 3.143990e-01 7.199624e+00 3.125304e-01 7.378340e+00 3.202817e-01 7.601267e+00 3.379386e-01 
7.947396e+00 3.600659e-01 8.307562e+00 3.752526e-01 8.778666e+00 3.818972e-01 8.400580e+00 4.071632e-01 8.082969e+00 4.288440e-01 7.810183e+00 4.448510e-01 7.578600e+00 4.578167e-01 7.385874e+00 4.693222e-01 7.229337e+00 4.800457e-01 7.104845e+00 4.888226e-01 7.004268e+00 4.954680e-01 6.921911e+00 4.995389e-01 6.853988e+00 5.006064e-01 6.798175e+00 4.991773e-01 6.753431e+00 4.961925e-01 6.719533e+00 4.922047e-01 6.695551e+00 4.872039e-01 6.679977e+00 4.807283e-01 6.671617e+00 4.725975e-01 6.670176e+00 4.631875e-01 6.676654e+00 4.525060e-01 6.691662e+00 4.398947e-01 6.715076e+00 4.241940e-01 6.746805e+00 4.049525e-01 6.787255e+00 3.836221e-01 6.838146e+00 3.617933e-01 6.903061e+00 3.416166e-01 6.988927e+00 3.252018e-01 7.102254e+00 3.148261e-01 7.248536e+00 3.125043e-01 7.433199e+00 3.195622e-01 7.662873e+00 3.364594e-01 
8.006729e+00 3.805613e-01 8.378556e+00 3.950084e-01 8.863854e+00 4.020075e-01 8.477832e+00 4.285338e-01 8.152877e+00 4.512784e-01 7.872594e+00 4.671005e-01 7.633206e+00 4.783158e-01 7.432345e+00 4.866129e-01 7.266954e+00 4.927934e-01 7.132668e+00 4.966439e-01 7.023610e+00 4.984212e-01 6.935012e+00 4.981574e-01 6.862978e+00 4.958392e-01 6.804650e+00 4.918684e-01 6.758360e+00 4.867987e-01 6.723257e+00 4.808888e-01 6.698320e+00 4.740742e-01 6.682205e+00 4.661507e-01 6.673757e+00 4.571265e-01 6.672633e+00 4.471865e-01 6.679504e+00 4.361785e-01 6.695077e+00 4.235421e-01 6.719636e+00 4.086592e-01 6.753324e+00 3.916358e-01 6.796696e+00 3.737535e-01 6.851587e+00 3.565716e-01 6.922037e+00 3.417953e-01 7.013971e+00 3.309328e-01 7.133234e+00 3.255764e-01 7.285399e+00 3.273024e-01 7.476377e+00 3.373633e-01 7.713332e+00 3.562679e-01 
8.051138e+00 3.770952e-01 8.429661e+00 3.902105e-01 8.923461e+00 3.974880e-01 8.532224e+00 4.253700e-01 8.202416e+00 4.495325e-01 7.916993e+00 4.663694e-01 7.672235e+00 4.781863e-01 7.465940e+00 4.867786e-01 7.295192e+00 4.930942e-01 7.155865e+00 4.971704e-01 7.042358e+00 4.992429e-01 6.949890e+00 4.994197e-01 6.874635e+00 4.977445e-01 6.813791e+00 4.945054e-01 6.765566e+00 4.900872e-01 6.728856e+00 4.846570e-01 6.702567e+00 4.781373e-01 6.685509e+00 4.703548e-01 6.676746e+00 4.612655e-01 6.675966e+00 4.509341e-01 6.683589e+00 4.392120e-01 6.700158e+00 4.257102e-01 6.726048e+00 4.101096e-01 6.761702e+00 3.926825e-01 6.808024e+00 3.745205e-01 6.866951e+00 3.570032e-01 6.941957e+00 3.418202e-01 7.038302e+00 3.305413e-01 7.161577e+00 3.247185e-01 7.317443e+00 3.258912e-01 7.512076e+00 3.353636e-01 7.752976e+00 3.536885e-01 
8.085125e+00 3.946806e-01 8.470502e+00 4.076809e-01 8.972462e+00 4.151617e-01 8.576348e+00 4.434565e-01 8.242031e+00 4.676981e-01 7.952085e+00 4.837445e-01 7.702595e+00 4.937669e-01 7.491262e+00 4.996375e-01 7.315042e+00 5.024874e-01 7.169949e+00 5.028528e-01 7.051317e+00 5.012382e-01 6.954870e+00 4.979958e-01 6.876875e+00 4.933761e-01 6.814339e+00 4.876737e-01 6.765131e+00 4.811526e-01 6.727788e+00 4.739002e-01 6.701065e+00 4.658515e-01 6.683783e+00 4.569154e-01 6.675033e+00 4.470879e-01 6.674478e+00 4.363885e-01 6.682421e+00 4.246863e-01 6.699418e+00 4.117401e-01 6.726005e+00 3.974664e-01 6.762799e+00 3.822733e-01 6.810878e+00 3.671518e-01 6.872318e+00 3.533693e-01 6.950677e+00 3.422980e-01 7.050768e+00 3.351955e-01 7.177851e+00 3.333030e-01 7.337552e+00 3.378845e-01 7.536222e+00 3.500822e-01 7.781622e+00 3.703552e-01 
8.104102e+00 3.901960e-01 8.491422e+00 4.025602e-01 8.996032e+00 4.101635e-01 8.597716e+00 4.391294e-01 8.261403e+00 4.640120e-01 7.969305e+00 4.805141e-01 7.717549e+00 4.908768e-01 7.503893e+00 4.970547e-01 7.325339e+00 5.002611e-01 7.178003e+00 5.011202e-01 7.057332e+00 5.001276e-01 6.959075e+00 4.976390e-01 6.879550e+00 4.938915e-01 6.815805e+00 4.891001e-01 6.765669e+00 4.834260e-01 6.727579e+00 4.768906e-01 6.700262e+00 4.694024e-01 6.682614e+00 4.608514e-01 6.673835e+00 4.511833e-01 6.673612e+00 4.403644e-01 6.682147e+00 4.282849e-01 6.699911e+00 4.148109e-01 6.727472e+00 3.999940e-01 6.765590e+00 3.842923e-01 6.815505e+00 3.686173e-01 6.879297e+00 3.541560e-01 6.960203e+00 3.422757e-01 7.062650e+00 3.343054e-01 7.191701e+00 3.315473e-01 7.352959e+00 3.353064e-01 7.552872e+00 3.467780e-01 7.799365e+00 3.664603e-01 
8.112679e+00 4.054209e-01 8.502068e+00 4.182564e-01 9.008902e+00 4.259053e-01 8.608779e+00 4.545803e-01 8.270724e+00 4.787698e-01 7.976926e+00 4.940272e-01 7.723378e+00 5.025298e-01 7.507732e+00 5.062901e-01 7.326923e+00 5.066725e-01 7.177186e+00 5.045645e-01 7.054367e+00 5.006353e-01 6.954480e+00 4.953723e-01 6.873933e+00 4.891171e-01 6.809711e+00 4.821202e-01 6.759466e+00 4.745323e-01 6.721437e+00 4.663781e-01 6.694227e+00 4.575967e-01 6.676710e+00 4.481188e-01 6.668089e+00 4.379128e-01 6.668040e+00 4.269568e-01 6.676720e+00 4.151924e-01 6.694599e+00 4.025824e-01 6.722331e+00 3.892687e-01 6.760805e+00 3.757228e-01 6.811392e+00 3.627689e-01 6.876269e+00 3.514605e-01 6.958673e+00 3.429465e-01 7.062814e+00 3.383486e-01 7.193563e+00 3.387806e-01 7.356457e+00 3.453715e-01 7.557976e+00 3.591780e-01 7.806128e+00 3.806050e-01 
8.106281e+00 3.996889e-01 8.492792e+00 4.125298e-01 8.996399e+00 4.201411e-01 8.597158e+00 4.488401e-01 8.259965e+00 4.729684e-01 7.966949e+00 4.882170e-01 7.714166e+00 4.968524e-01 7.499228e+00 5.009253e-01 7.319018e+00 5.018258e-01 7.169757e+00 5.004531e-01 7.047308e+00 4.974478e-01 6.947690e+00 4.932589e-01 6.867344e+00 4.881769e-01 6.803291e+00 4.823773e-01 6.753195e+00 4.759303e-01 6.715279e+00 4.687986e-01 6.688161e+00 4.608783e-01 6.670770e+00 4.520609e-01 6.662381e+00 4.422690e-01 6.662690e+00 4.314476e-01 6.671817e+00 4.195488e-01 6.690190e+00 4.065887e-01 6.718465e+00 3.927695e-01 6.757587e+00 3.785836e-01 6.808979e+00 3.648290e-01 6.874768e+00 3.525348e-01 6.957984e+00 3.428716e-01 7.062586e+00 3.370365e-01 7.193275e+00 3.362340e-01 7.355511e+00 3.416785e-01 7.555768e+00 3.545116e-01 7.802089e+00 3.752279e-01 
8.089436e+00 4.131160e-01 8.473244e+00 4.269856e-01 8.973189e+00 4.344831e-01 8.575184e+00 4.622363e-01 8.238989e+00 4.849756e-01 7.947067e+00 4.985629e-01 7.695418e+00 5.052297e-01 7.481515e+00 5.070537e-01 7.302145e+00 5.055188e-01 7.153546e+00 5.016609e-01 7.031723e+00 4.962230e-01 6.932807e+00 4.897266e-01 6.853291e+00 4.825185e-01 6.790170e+00 4.748103e-01 6.741023e+00 4.666971e-01 6.703964e+00 4.581742e-01 6.677540e+00 4.491784e-01 6.660655e+00 4.396393e-01 6.652585e+00 4.295104e-01 6.653024e+00 4.187673e-01 6.662077e+00 4.074072e-01 6.680182e+00 3.954976e-01 6.708052e+00 3.832656e-01 6.746725e+00 3.711735e-01 6.797716e+00 3.599303e-01 6.863212e+00 3.504340e-01 6.946230e+00 3.436871e-01 7.050606e+00 3.407258e-01 7.180916e+00 3.426125e-01 7.342536e+00 3.504342e-01 7.541890e+00 3.652299e-01 7.786973e+00 3.874519e-01 