# vtk DataFile Version 2.0
Comment goes here
ASCII

DATASET STRUCTURED_POINTS
FIELD FieldData 1
TIME 1 1 double
0.03900000
DIMENSIONS    64   64   1

ORIGIN    0.000   0.000   0.000
SPACING   0.03125 0.03125   1.000

POINT_DATA   4096
SCALARS uX double
LOOKUP_TABLE default

7.427324e-01 -1.225666e+00 4.653833e-01 -1.083213e+00 2.311104e-01 -9.798324e-01 2.637483e-01 -8.983162e-01 2.761950e-01 -8.391487e-01 2.782922e-01 -7.942197e-01 2.739819e-01 -7.427652e-01 2.380802e-01 -6.417490e-01 1.315427e-01 -4.668120e-01 -4.816215e-02 -2.417890e-01 -2.629396e-01 -1.106160e-02 -4.599633e-01 1.766113e-01 -5.981010e-01 3.009386e-01 -6.795740e-01 3.664855e-01 -7.031353e-01 3.685692e-01 -6.716872e-01 3.280370e-01 -6.172994e-01 2.750873e-01 -5.624726e-01 2.263475e-01 -5.257854e-01 2.047078e-01 -5.321916e-01 2.318024e-01 -5.889748e-01 3.024342e-01 -6.776995e-01 3.914880e-01 -7.670887e-01 4.579853e-01 -8.097458e-01 4.557974e-01 -7.714592e-01 3.603803e-01 -6.532829e-01 1.902103e-01 -4.814701e-01 -1.775140e-02 -2.846121e-01 -2.419721e-01 -8.028222e-02 -4.733824e-01 1.257666e-01 -7.130913e-01 3.309040e-01 -9.575007e-01 5.299179e-01 -1.206759e+00 
-4.813929e-01 3.262086e-01 -2.017195e-01 2.482686e-01 1.292031e-02 2.055118e-01 -1.232114e-01 1.662758e-01 -2.079927e-01 1.415123e-01 -2.658101e-01 1.243669e-01 -3.119116e-01 1.028079e-01 -3.392812e-01 4.922188e-02 -3.277364e-01 -4.478510e-02 -2.652684e-01 -1.609935e-01 -1.777511e-01 -2.789184e-01 -9.598519e-02 -3.730244e-01 -4.365814e-02 -4.344220e-01 -1.580176e-02 -4.693585e-01 -9.658719e-03 -4.756115e-01 -2.913206e-02 -4.592128e-01 -6.039917e-02 -4.336779e-01 -9.185598e-02 -4.068731e-01 -1.128036e-01 -3.925155e-01 -1.081024e-01 -4.040928e-01 -7.566029e-02 -4.392554e-01 -2.627796e-02 -4.848536e-01 2.467786e-02 -5.178795e-01 5.388799e-02 -5.126078e-01 4.775672e-02 -4.573465e-01 1.112058e-02 -3.630202e-01 -4.877894e-02 -2.547390e-01 -1.207653e-01 -1.441400e-01 -1.938478e-01 -3.302345e-02 -2.638436e-01 8.207608e-02 -3.265097e-01 1.978288e-01 -3.769429e-01 3.220215e-01 
6.850745e-01 5.194221e-01 6.903807e-01 4.134123e-01 5.303950e-01 3.378143e-01 8.623114e-01 3.090945e-01 1.077721e+00 2.767603e-01 1.234697e+00 2.556527e-01 1.357772e+00 2.459465e-01 1.484960e+00 2.208636e-01 1.658175e+00 1.457949e-01 1.841890e+00 2.908303e-02 2.026619e+00 -9.846542e-02 2.193192e+00 -2.042521e-01 2.317515e+00 -2.675204e-01 2.394282e+00 -2.912664e-01 2.419068e+00 -2.689789e-01 2.401926e+00 -2.221576e-01 2.373372e+00 -1.804636e-01 2.346586e+00 -1.509947e-01 2.323575e+00 -1.395670e-01 2.314436e+00 -1.569352e-01 2.334109e+00 -2.014039e-01 2.379386e+00 -2.665732e-01 2.431802e+00 -3.259602e-01 2.447777e+00 -3.450872e-01 2.389840e+00 -3.124263e-01 2.253545e+00 -2.414913e-01 2.079534e+00 -1.417392e-01 1.898464e+00 -2.521817e-02 1.712332e+00 1.000719e-01 1.512416e+00 2.334937e-01 1.290021e+00 3.749253e-01 1.034751e+00 5.378028e-01 
2.270705e+00 -1.602343e-01 1.586636e+00 -1.713114e-01 7.333230e-01 -1.311108e-01 1.641138e+00 -1.184667e-01 2.183980e+00 -1.091883e-01 2.560930e+00 -9.843722e-02 2.857429e+00 -7.314663e-02 3.111015e+00 -7.810434e-03 3.338165e+00 8.719346e-02 3.451156e+00 1.655153e-01 3.509994e+00 2.253272e-01 3.564646e+00 2.544965e-01 3.626137e+00 2.612633e-01 3.674610e+00 2.677333e-01 3.701821e+00 2.742743e-01 3.728753e+00 2.737361e-01 3.763119e+00 2.616413e-01 3.802843e+00 2.420507e-01 3.827973e+00 2.342544e-01 3.816342e+00 2.528298e-01 3.776418e+00 2.877172e-01 3.727354e+00 3.196909e-01 3.681167e+00 3.338027e-01 3.631181e+00 3.180010e-01 3.559465e+00 2.583579e-01 3.440446e+00 1.668074e-01 3.324357e+00 8.892786e-02 3.220349e+00 3.518611e-02 3.108192e+00 -2.504238e-03 2.969576e+00 -3.749261e-02 2.787099e+00 -7.784084e-02 2.540060e+00 -1.457245e-01 
2.270745e+00 -7.475120e-02 1.740598e+00 -1.097855e-01 1.062366e+00 -9.140693e-02 1.774526e+00 -9.982587e-02 2.252034e+00 -8.962956e-02 2.596259e+00 -7.514316e-02 2.870129e+00 -4.806185e-02 3.114159e+00 2.320344e-02 3.376207e+00 1.415547e-01 3.494345e+00 1.989068e-01 3.558802e+00 2.292956e-01 3.630911e+00 2.283148e-01 3.705251e+00 2.160600e-01 3.753949e+00 2.228628e-01 3.766498e+00 2.401610e-01 3.773851e+00 2.515032e-01 3.796834e+00 2.399951e-01 3.836829e+00 2.211541e-01 3.863990e+00 2.212013e-01 3.849964e+00 2.469849e-01 3.814708e+00 2.764864e-01 3.781300e+00 2.872335e-01 3.762825e+00 2.824330e-01 3.735249e+00 2.734777e-01 3.663262e+00 2.469579e-01 3.508301e+00 1.381636e-01 3.361252e+00 6.580686e-02 3.243142e+00 3.052721e-02 3.121443e+00 1.376588e-02 2.975180e+00 2.312440e-03 2.788181e+00 -1.298808e-02 2.546224e+00 -5.146860e-02 
2.349291e+00 -1.379801e-01 1.906286e+00 -1.391255e-01 1.367884e+00 -1.411206e-01 1.891468e+00 -1.230449e-01 2.321837e+00 -1.143431e-01 2.649151e+00 -1.074279e-01 2.909789e+00 -8.575325e-02 3.140677e+00 -1.391087e-02 3.436273e+00 1.428968e-01 3.513982e+00 1.956071e-01 3.557108e+00 2.397247e-01 3.615431e+00 2.454696e-01 3.687140e+00 2.368435e-01 3.740242e+00 2.497667e-01 3.752134e+00 2.762258e-01 3.755423e+00 2.956043e-01 3.775046e+00 2.791626e-01 3.822128e+00 2.472342e-01 3.859536e+00 2.386609e-01 3.846344e+00 2.677946e-01 3.802100e+00 3.075300e-01 3.756483e+00 3.246533e-01 3.737640e+00 3.193060e-01 3.723800e+00 3.117078e-01 3.667978e+00 2.809005e-01 3.471537e+00 1.504493e-01 3.337317e+00 6.971728e-02 3.242350e+00 2.491779e-02 3.142243e+00 -6.586534e-03 3.016058e+00 -3.688138e-02 2.850661e+00 -7.107882e-02 2.633203e+00 -1.121834e-01 
2.441791e+00 -5.675451e-02 2.092859e+00 -7.654040e-02 1.671706e+00 -7.886960e-02 2.063633e+00 -8.128507e-02 2.409045e+00 -8.390113e-02 2.681059e+00 -9.077512e-02 2.897670e+00 -1.018783e-01 3.103920e+00 -7.147575e-02 3.530470e+00 2.411563e-01 3.548907e+00 2.367343e-01 3.560683e+00 2.553635e-01 3.633141e+00 2.111612e-01 3.737751e+00 1.692283e-01 3.805415e+00 2.015329e-01 3.789789e+00 2.524016e-01 3.764435e+00 2.918094e-01 3.773746e+00 2.458639e-01 3.842662e+00 1.909177e-01 3.902246e+00 1.977640e-01 3.870758e+00 2.587108e-01 3.808597e+00 3.132527e-01 3.760000e+00 2.950880e-01 3.777201e+00 2.520432e-01 3.818330e+00 2.526726e-01 3.801781e+00 4.052328e-01 3.477951e+00 8.268012e-02 3.330852e+00 8.766851e-03 3.257592e+00 -4.381675e-04 3.167939e+00 -1.615200e-03 3.048183e+00 -6.034762e-03 2.892495e+00 -1.734171e-02 2.693855e+00 -3.938148e-02 
2.576023e+00 -9.713180e-02 2.288599e+00 -1.048760e-01 1.953621e+00 -1.073118e-01 2.238692e+00 -1.040245e-01 2.521351e+00 -1.053177e-01 2.756203e+00 -1.175423e-01 2.942509e+00 -1.459325e-01 3.105492e+00 -1.369008e-01 3.356382e+00 -9.283159e-03 3.383137e+00 -8.096936e-03 3.421180e+00 2.981304e-02 3.471858e+00 2.101838e-02 3.547388e+00 1.102699e-02 3.603483e+00 4.539856e-02 3.601655e+00 9.009047e-02 3.592446e+00 1.235064e-01 3.598926e+00 9.245358e-02 3.651324e+00 5.423773e-02 3.699564e+00 6.123481e-02 3.681176e+00 1.132609e-01 3.635729e+00 1.624523e-01 3.594951e+00 1.600592e-01 3.604537e+00 1.403705e-01 3.652456e+00 1.796695e-01 3.692804e+00 3.484093e-01 3.360900e+00 4.086015e-02 3.301612e+00 -9.513707e-03 3.267772e+00 -1.456515e-02 3.202404e+00 -2.188455e-02 3.104036e+00 -3.667704e-02 2.971208e+00 -5.754055e-02 2.798451e+00 -8.130546e-02 
2.709374e+00 -3.886741e-02 2.486474e+00 -5.068625e-02 2.233072e+00 -5.304109e-02 2.435458e+00 -5.724394e-02 2.645164e+00 -6.319563e-02 2.816988e+00 -7.696723e-02 2.913378e+00 -1.305440e-01 2.844279e+00 -3.566162e-01 2.133138e+00 -1.078195e+00 2.328164e+00 -1.159790e+00 2.486211e+00 -1.225121e+00 2.464313e+00 -1.128288e+00 2.326253e+00 -1.025764e+00 2.258316e+00 -1.084466e+00 2.377674e+00 -1.213649e+00 2.509223e+00 -1.320116e+00 2.537507e+00 -1.231622e+00 2.402826e+00 -1.090562e+00 2.279917e+00 -1.065168e+00 2.357042e+00 -1.168535e+00 2.498193e+00 -1.261040e+00 2.580774e+00 -1.191305e+00 2.488966e+00 -1.040928e+00 2.338997e+00 -9.772206e-01 2.338901e+00 -1.110880e+00 3.037729e+00 -3.648778e-01 3.290086e+00 -1.173202e-01 3.304031e+00 -4.103566e-02 3.248365e+00 -1.663178e-02 3.158872e+00 -1.133426e-02 3.040905e+00 -1.606511e-02 2.892646e+00 -2.741581e-02 
2.859654e+00 -6.687328e-02 2.684534e+00 -7.202444e-02 2.491869e+00 -7.418612e-02 2.625783e+00 -7.537246e-02 2.779714e+00 -7.640364e-02 2.907110e+00 -8.127293e-02 2.957693e+00 -1.189777e-01 2.825624e+00 -3.528067e-01 2.040835e+00 -1.123931e+00 2.189447e+00 -1.229084e+00 2.334859e+00 -1.336572e+00 2.288615e+00 -1.246833e+00 2.105345e+00 -1.142537e+00 2.003047e+00 -1.227467e+00 2.132578e+00 -1.400071e+00 2.286630e+00 -1.546733e+00 2.322171e+00 -1.450827e+00 2.153486e+00 -1.287124e+00 1.993109e+00 -1.265861e+00 2.080998e+00 -1.409692e+00 2.254181e+00 -1.544201e+00 2.361027e+00 -1.474922e+00 2.246291e+00 -1.303587e+00 2.043902e+00 -1.248812e+00 2.008549e+00 -1.472145e+00 2.997296e+00 -4.606130e-01 3.313497e+00 -1.417547e-01 3.340178e+00 -5.338035e-02 3.297858e+00 -3.219300e-02 3.226259e+00 -3.358313e-02 3.130362e+00 -4.391315e-02 3.008875e+00 -5.682017e-02 
3.006431e+00 -2.059228e-02 2.880124e+00 -2.556755e-02 2.747545e+00 -2.755515e-02 2.827696e+00 -3.343218e-02 2.933477e+00 -4.081870e-02 3.035316e+00 -5.074804e-02 3.114933e+00 -6.447464e-02 3.176813e+00 -6.051475e-02 3.351607e+00 1.065083e-02 3.315728e+00 -3.086283e-02 3.336375e+00 -5.813806e-02 3.361113e+00 -9.810332e-02 3.393563e+00 -1.295234e-01 3.417265e+00 -1.416709e-01 3.422539e+00 -1.485509e-01 3.428290e+00 -1.538866e-01 3.429921e+00 -1.726616e-01 3.442186e+00 -1.880334e-01 3.454121e+00 -1.908942e-01 3.452944e+00 -1.826856e-01 3.446043e+00 -1.770464e-01 3.435964e+00 -1.797314e-01 3.431973e+00 -1.815956e-01 3.441656e+00 -1.486376e-01 3.460732e+00 -7.770561e-02 3.380480e+00 -1.141150e-01 3.404272e+00 -6.636377e-02 3.393832e+00 -3.231328e-02 3.354910e+00 -1.504715e-02 3.294855e+00 -8.764930e-03 3.216303e+00 -9.531834e-03 3.119921e+00 -1.450366e-02 
3.157285e+00 -4.046529e-02 3.069702e+00 -4.213165e-02 2.983566e+00 -4.386490e-02 3.017790e+00 -4.964646e-02 3.083652e+00 -5.762008e-02 3.159289e+00 -7.132770e-02 3.238017e+00 -8.965893e-02 3.354781e+00 -6.459826e-02 3.755841e+00 2.783035e-01 3.713662e+00 2.732374e-01 3.675953e+00 2.854572e-01 3.720895e+00 2.301227e-01 3.812481e+00 1.822216e-01 3.867897e+00 2.183648e-01 3.832398e+00 2.763093e-01 3.790369e+00 3.203713e-01 3.790976e+00 2.658154e-01 3.863395e+00 2.003258e-01 3.927501e+00 2.039530e-01 3.891904e+00 2.682320e-01 3.827422e+00 3.232589e-01 3.785232e+00 2.947351e-01 3.824488e+00 2.409552e-01 3.898629e+00 2.511345e-01 3.918385e+00 4.480852e-01 3.564500e+00 5.702432e-02 3.457038e+00 -2.028128e-02 3.436615e+00 -2.374043e-02 3.409775e+00 -2.113765e-02 3.367435e+00 -2.289573e-02 3.310251e+00 -2.841551e-02 3.239443e+00 -3.512932e-02 
3.305045e+00 -1.613989e-03 3.255964e+00 -1.573214e-03 3.215896e+00 -3.062624e-03 3.212729e+00 -1.028720e-02 3.243877e+00 -1.962953e-02 3.295797e+00 -3.008798e-02 3.366568e+00 -3.135719e-02 3.479270e+00 1.744540e-02 3.733149e+00 2.047627e-01 3.751028e+00 2.372287e-01 3.741408e+00 2.488245e-01 3.780406e+00 2.194532e-01 3.845332e+00 1.918918e-01 3.882818e+00 2.095200e-01 3.863580e+00 2.460452e-01 3.837545e+00 2.719975e-01 3.843943e+00 2.461584e-01 3.893180e+00 2.084821e-01 3.931634e+00 2.093860e-01 3.908709e+00 2.487940e-01 3.865016e+00 2.851572e-01 3.840869e+00 2.779446e-01 3.867029e+00 2.544562e-01 3.902266e+00 2.623042e-01 3.882708e+00 3.037655e-01 3.668011e+00 1.013837e-01 3.546993e+00 1.840361e-02 3.506026e+00 -6.533192e-04 3.478504e+00 -1.098057e-03 3.445747e+00 9.728766e-04 3.404766e+00 1.392641e-03 3.356774e+00 1.155325e-04 
3.449367e+00 -1.576867e-02 3.432283e+00 -1.400193e-02 3.429375e+00 -1.519676e-02 3.393018e+00 -2.237038e-02 3.393137e+00 -3.127261e-02 3.419683e+00 -4.027653e-02 3.470364e+00 -3.570605e-02 3.559937e+00 2.280187e-02 3.755552e+00 1.981352e-01 3.782769e+00 2.347098e-01 3.773432e+00 2.441798e-01 3.805944e+00 2.219747e-01 3.857040e+00 2.055599e-01 3.881185e+00 2.250274e-01 3.860970e+00 2.579832e-01 3.838920e+00 2.780541e-01 3.848868e+00 2.567464e-01 3.892037e+00 2.276775e-01 3.921050e+00 2.312241e-01 3.897927e+00 2.627259e-01 3.859903e+00 2.900419e-01 3.843286e+00 2.824361e-01 3.868080e+00 2.630519e-01 3.895698e+00 2.697086e-01 3.869286e+00 2.821962e-01 3.696863e+00 1.182858e-01 3.585613e+00 3.367872e-02 3.551695e+00 4.780550e-03 3.536671e+00 -3.969812e-03 3.520208e+00 -7.872201e-03 3.498733e+00 -1.125425e-02 3.473793e+00 -1.422598e-02 
3.591521e+00 1.796720e-02 3.605268e+00 2.209171e-02 3.638665e+00 2.119078e-02 3.573572e+00 1.474779e-02 3.544626e+00 5.856788e-03 3.543214e+00 -5.847337e-03 3.566094e+00 -1.601652e-02 3.627617e+00 -1.712267e-03 3.825026e+00 2.277623e-01 3.826354e+00 2.314787e-01 3.807311e+00 2.274295e-01 3.840773e+00 1.954277e-01 3.892279e+00 1.814019e-01 3.910571e+00 2.116857e-01 3.883142e+00 2.434690e-01 3.858459e+00 2.567315e-01 3.870942e+00 2.241648e-01 3.917701e+00 1.961591e-01 3.944763e+00 2.144498e-01 3.915475e+00 2.507199e-01 3.876324e+00 2.737635e-01 3.864698e+00 2.522080e-01 3.895808e+00 2.247328e-01 3.933077e+00 2.385306e-01 3.922599e+00 3.314883e-01 3.732032e+00 9.803553e-02 3.631200e+00 2.575301e-02 3.613643e+00 1.149644e-02 3.608509e+00 1.119001e-02 3.602714e+00 1.324325e-02 3.595864e+00 1.493721e-02 3.590637e+00 1.623936e-02 
3.725557e+00 8.051052e-03 3.765913e+00 1.334159e-02 3.829755e+00 1.276393e-02 3.738533e+00 7.456848e-03 3.683493e+00 7.173963e-04 3.656835e+00 -8.274930e-03 3.652396e+00 -2.001853e-02 3.669324e+00 -2.223285e-02 3.715577e+00 2.584331e-02 3.717517e+00 2.783902e-02 3.712436e+00 4.044361e-02 3.720454e+00 3.835615e-02 3.739340e+00 3.950135e-02 3.749037e+00 5.687981e-02 3.738768e+00 7.644993e-02 3.727379e+00 8.955739e-02 3.729512e+00 8.115028e-02 3.749178e+00 7.209704e-02 3.763331e+00 8.215163e-02 3.752457e+00 1.024096e-01 3.735164e+00 1.193024e-01 3.728086e+00 1.162716e-01 3.741587e+00 1.082917e-01 3.764370e+00 1.204500e-01 3.778785e+00 1.761735e-01 3.673674e+00 5.007101e-02 3.649804e+00 1.681604e-02 3.657817e+00 1.000756e-02 3.667398e+00 8.341685e-03 3.676319e+00 7.310429e-03 3.686551e+00 6.423620e-03 3.701370e+00 6.350446e-03 
3.858105e+00 3.782431e-02 3.923310e+00 4.548117e-02 4.016230e+00 4.521556e-02 3.902386e+00 4.214168e-02 3.823012e+00 3.889101e-02 3.766703e+00 3.614842e-02 3.712191e+00 2.675918e-02 3.605836e+00 -3.065280e-02 3.212865e+00 -5.343296e-01 3.227542e+00 -5.647950e-01 3.264918e+00 -5.557151e-01 3.198887e+00 -4.966952e-01 3.109491e+00 -4.838368e-01 3.094475e+00 -5.532403e-01 3.160228e+00 -6.109171e-01 3.207059e+00 -6.223979e-01 3.176990e+00 -5.507636e-01 3.091081e+00 -4.987102e-01 3.054712e+00 -5.370118e-01 3.121177e+00 -5.947629e-01 3.194195e+00 -6.112424e-01 3.205897e+00 -5.408563e-01 3.145242e+00 -4.678132e-01 3.086061e+00 -4.939624e-01 3.117927e+00 -6.626194e-01 3.476883e+00 -1.899020e-01 3.674187e+00 -3.413274e-02 3.721473e+00 8.323163e-03 3.741068e+00 2.138598e-02 3.758973e+00 2.669693e-02 3.781635e+00 3.000515e-02 3.813056e+00 3.331172e-02 
3.979571e+00 3.097159e-02 4.066930e+00 3.941603e-02 4.185046e+00 3.947184e-02 4.049888e+00 3.777078e-02 3.948451e+00 3.740300e-02 3.869365e+00 4.070475e-02 3.790748e+00 4.324414e-02 3.664765e+00 1.244994e-03 3.327745e+00 -4.130992e-01 3.301363e+00 -4.507383e-01 3.318303e+00 -4.591422e-01 3.248767e+00 -4.180387e-01 3.157159e+00 -4.151520e-01 3.133451e+00 -4.879132e-01 3.188164e+00 -5.515186e-01 3.229803e+00 -5.712881e-01 3.200002e+00 -5.101002e-01 3.116180e+00 -4.654855e-01 3.078900e+00 -5.077326e-01 3.141961e+00 -5.713883e-01 3.214326e+00 -5.968798e-01 3.229180e+00 -5.371825e-01 3.173249e+00 -4.738936e-01 3.117249e+00 -5.051683e-01 3.145656e+00 -6.750014e-01 3.516459e+00 -2.016717e-01 3.718197e+00 -3.688561e-02 3.770993e+00 8.030307e-03 3.799351e+00 1.992887e-02 3.829062e+00 2.304085e-02 3.866259e+00 2.440376e-02 3.914819e+00 2.657598e-02 
4.099876e+00 5.725843e-02 4.207347e+00 6.719916e-02 4.348881e+00 6.753059e-02 4.197402e+00 6.593284e-02 4.080633e+00 6.363669e-02 3.991581e+00 6.050342e-02 3.923289e+00 5.486226e-02 3.879400e+00 4.689651e-02 3.944110e+00 1.760931e-01 3.882791e+00 1.562192e-01 3.845364e+00 1.384449e-01 3.840079e+00 1.123925e-01 3.845852e+00 9.986364e-02 3.839819e+00 1.077161e-01 3.818293e+00 1.121437e-01 3.802970e+00 1.092833e-01 3.803038e+00 8.873462e-02 3.818292e+00 7.429522e-02 3.827386e+00 8.046294e-02 3.816865e+00 8.999080e-02 3.806102e+00 9.180400e-02 3.807144e+00 7.548709e-02 3.825260e+00 5.852012e-02 3.852031e+00 6.836157e-02 3.871100e+00 1.339281e-01 3.805990e+00 2.897374e-02 3.809276e+00 2.409871e-02 3.837250e+00 3.291398e-02 3.868986e+00 3.894095e-02 3.907014e+00 4.276701e-02 3.955309e+00 4.626262e-02 4.017947e+00 5.075045e-02 
4.207253e+00 5.243217e-02 4.333141e+00 6.266526e-02 4.495517e+00 6.329722e-02 4.327682e+00 6.227421e-02 4.194922e+00 6.047403e-02 4.092629e+00 5.671679e-02 4.018745e+00 4.808579e-02 3.986214e+00 3.997029e-02 4.078975e+00 2.314324e-01 4.027476e+00 2.286119e-01 3.974959e+00 2.216013e-01 3.973164e+00 1.977445e-01 3.988719e+00 1.920505e-01 3.982337e+00 2.200534e-01 3.947530e+00 2.421241e-01 3.920620e+00 2.471789e-01 3.924620e+00 2.178244e-01 3.954290e+00 1.970647e-01 3.969541e+00 2.141824e-01 3.946560e+00 2.384605e-01 3.921932e+00 2.472628e-01 3.921391e+00 2.190750e-01 3.952631e+00 1.893846e-01 3.992003e+00 2.003869e-01 4.005342e+00 2.997287e-01 3.890368e+00 9.845695e-02 3.854188e+00 4.792043e-02 3.882031e+00 4.127323e-02 3.921821e+00 4.100214e-02 3.970538e+00 4.145439e-02 4.031504e+00 4.287492e-02 4.108763e+00 4.621909e-02 
4.313638e+00 7.570726e-02 4.455682e+00 8.697030e-02 4.636862e+00 8.785431e-02 4.457253e+00 8.749011e-02 4.313642e+00 8.665657e-02 4.202960e+00 8.631058e-02 4.124105e+00 8.947290e-02 4.082231e+00 1.080861e-01 4.096624e+00 1.835254e-01 4.062718e+00 2.010785e-01 4.024668e+00 2.053131e-01 4.011460e+00 1.979934e-01 4.009224e+00 1.955950e-01 3.998343e+00 2.066365e-01 3.974974e+00 2.182482e-01 3.956652e+00 2.219911e-01 3.956093e+00 2.105910e-01 3.969317e+00 1.999331e-01 3.975944e+00 2.044883e-01 3.964754e+00 2.154327e-01 3.952701e+00 2.203875e-01 3.954488e+00 2.096415e-01 3.973413e+00 1.959008e-01 3.993648e+00 1.966559e-01 3.997403e+00 2.069381e-01 3.948732e+00 1.218566e-01 3.928461e+00 7.998905e-02 3.948913e+00 6.525347e-02 3.988619e+00 6.087050e-02 4.042740e+00 6.069303e-02 4.112494e+00 6.308686e-02 4.201228e+00 6.795027e-02 
4.405919e+00 7.219345e-02 4.563118e+00 8.347874e-02 4.761385e+00 8.463456e-02 4.568917e+00 8.471390e-02 4.412477e+00 8.468215e-02 4.289800e+00 8.603537e-02 4.199504e+00 9.321974e-02 4.142804e+00 1.187333e-01 4.124033e+00 1.730345e-01 4.090517e+00 1.947162e-01 4.051590e+00 2.016042e-01 4.030983e+00 1.998768e-01 4.018867e+00 2.011747e-01 4.001578e+00 2.106343e-01 3.978315e+00 2.203100e-01 3.961187e+00 2.233767e-01 3.958931e+00 2.163028e-01 3.966395e+00 2.094681e-01 3.968847e+00 2.120173e-01 3.959971e+00 2.183738e-01 3.952422e+00 2.197637e-01 3.956906e+00 2.104339e-01 3.974199e+00 1.990114e-01 3.991188e+00 1.953976e-01 3.994869e+00 1.880240e-01 3.973047e+00 1.298821e-01 3.963615e+00 9.054378e-02 3.988734e+00 7.170440e-02 4.035264e+00 6.345901e-02 4.098354e+00 6.050115e-02 4.178795e+00 6.104069e-02 4.279777e+00 6.482534e-02 
4.497249e+00 9.275797e-02 4.667205e+00 1.048889e-01 4.880349e+00 1.062734e-01 4.678724e+00 1.073462e-01 4.513281e+00 1.086766e-01 4.381628e+00 1.121321e-01 4.281433e+00 1.212325e-01 4.210603e+00 1.413951e-01 4.166052e+00 1.692702e-01 4.125061e+00 1.857405e-01 4.086767e+00 1.938696e-01 4.060001e+00 1.957382e-01 4.040275e+00 1.970685e-01 4.020714e+00 2.012081e-01 4.000598e+00 2.059185e-01 3.985770e+00 2.076905e-01 3.980432e+00 2.046103e-01 3.981564e+00 2.005792e-01 3.981455e+00 2.000400e-01 3.977006e+00 2.016962e-01 3.974407e+00 2.013996e-01 3.979389e+00 1.959974e-01 3.992083e+00 1.877011e-01 4.005266e+00 1.788386e-01 4.012914e+00 1.626515e-01 4.009863e+00 1.300659e-01 4.015910e+00 1.034519e-01 4.045059e+00 8.764508e-02 4.094467e+00 7.993115e-02 4.162397e+00 7.756173e-02 4.249922e+00 7.911387e-02 4.360060e+00 8.414482e-02 
4.573754e+00 8.998376e-02 4.755923e+00 1.020573e-01 4.982802e+00 1.036814e-01 4.770737e+00 1.052002e-01 4.594551e+00 1.073290e-01 4.452082e+00 1.120815e-01 4.340654e+00 1.225847e-01 4.257399e+00 1.421485e-01 4.198819e+00 1.660139e-01 4.150097e+00 1.825155e-01 4.106962e+00 1.919305e-01 4.074305e+00 1.962490e-01 4.048540e+00 1.995800e-01 4.024778e+00 2.042134e-01 4.002909e+00 2.087447e-01 3.987052e+00 2.106820e-01 3.979778e+00 2.089384e-01 3.978115e+00 2.061052e-01 3.976395e+00 2.050522e-01 3.972897e+00 2.049533e-01 3.972317e+00 2.029048e-01 3.978782e+00 1.968266e-01 3.991826e+00 1.879210e-01 4.006034e+00 1.770610e-01 4.017685e+00 1.594408e-01 4.025806e+00 1.319027e-01 4.041447e+00 1.074765e-01 4.077230e+00 9.095257e-02 4.133286e+00 8.150217e-02 4.208887e+00 7.739552e-02 4.305266e+00 7.758227e-02 4.425426e+00 8.173571e-02 
4.649218e+00 1.079880e-01 4.841172e+00 1.207787e-01 5.079472e+00 1.225988e-01 4.860136e+00 1.248936e-01 4.676525e+00 1.276704e-01 4.526123e+00 1.325312e-01 4.405884e+00 1.412971e-01 4.312322e+00 1.548579e-01 4.241243e+00 1.693966e-01 4.184153e+00 1.806095e-01 4.136812e+00 1.879341e-01 4.099451e+00 1.917630e-01 4.069511e+00 1.940287e-01 4.044033e+00 1.962481e-01 4.022490e+00 1.982932e-01 4.006613e+00 1.990348e-01 3.997402e+00 1.977719e-01 3.993093e+00 1.954382e-01 3.990578e+00 1.934552e-01 3.988872e+00 1.918013e-01 3.990296e+00 1.890936e-01 3.997090e+00 1.839247e-01 4.009111e+00 1.759978e-01 4.023722e+00 1.650621e-01 4.039303e+00 1.495158e-01 4.055853e+00 1.306604e-01 4.080906e+00 1.136469e-01 4.122407e+00 1.013862e-01 4.182680e+00 9.426765e-02 4.262897e+00 9.173001e-02 4.365062e+00 9.325216e-02 4.492378e+00 9.863861e-02 
4.709469e+00 1.054640e-01 4.910927e+00 1.181869e-01 5.159884e+00 1.202077e-01 4.932156e+00 1.228595e-01 4.739806e+00 1.261636e-01 4.580499e+00 1.316643e-01 4.451190e+00 1.407606e-01 4.348470e+00 1.537091e-01 4.268465e+00 1.673991e-01 4.204290e+00 1.786832e-01 4.151560e+00 1.867534e-01 4.109274e+00 1.918907e-01 4.074973e+00 1.954471e-01 4.046248e+00 1.984856e-01 4.022637e+00 2.009454e-01 4.005216e+00 2.020490e-01 3.994387e+00 2.013396e-01 3.988510e+00 1.994346e-01 3.985229e+00 1.972658e-01 3.983965e+00 1.948113e-01 3.986498e+00 1.910781e-01 3.994467e+00 1.850410e-01 4.007677e+00 1.763543e-01 4.024348e+00 1.647442e-01 4.043762e+00 1.493778e-01 4.066860e+00 1.316447e-01 4.098853e+00 1.152997e-01 4.146459e+00 1.027624e-01 4.212699e+00 9.474883e-02 4.299341e+00 9.113613e-02 4.408649e+00 9.170224e-02 4.543902e+00 9.641840e-02 
4.768508e+00 1.210594e-01 4.977081e+00 1.343682e-01 5.234333e+00 1.365438e-01 5.001128e+00 1.396057e-01 4.803121e+00 1.429057e-01 4.637721e+00 1.475786e-01 4.501821e+00 1.543871e-01 4.391960e+00 1.631459e-01 4.304313e+00 1.719546e-01 4.233835e+00 1.793515e-01 4.176668e+00 1.847960e-01 4.130678e+00 1.882309e-01 4.093565e+00 1.902791e-01 4.063352e+00 1.916206e-01 4.039204e+00 1.924373e-01 4.021214e+00 1.924144e-01 4.009235e+00 1.912599e-01 4.002165e+00 1.891680e-01 3.998594e+00 1.865946e-01 3.998105e+00 1.836151e-01 4.001588e+00 1.797083e-01 4.010011e+00 1.741459e-01 4.023481e+00 1.664282e-01 4.041372e+00 1.563252e-01 4.063695e+00 1.439413e-01 4.091645e+00 1.308611e-01 4.129337e+00 1.190994e-01 4.181631e+00 1.101388e-01 4.251788e+00 1.047018e-01 4.342358e+00 1.029963e-01 4.456154e+00 1.050691e-01 4.596723e+00 1.110212e-01 
4.812170e+00 1.183949e-01 5.027702e+00 1.316301e-01 5.292723e+00 1.339610e-01 5.053099e+00 1.372460e-01 4.848396e+00 1.408250e-01 4.676218e+00 1.457845e-01 4.533549e+00 1.526933e-01 4.417068e+00 1.612681e-01 4.323139e+00 1.700162e-01 4.247204e+00 1.777131e-01 4.185512e+00 1.837932e-01 4.135625e+00 1.881482e-01 4.095234e+00 1.911744e-01 4.062485e+00 1.933280e-01 4.036494e+00 1.947261e-01 4.017080e+00 1.951391e-01 4.003870e+00 1.943533e-01 3.995834e+00 1.924847e-01 3.991844e+00 1.898277e-01 3.991612e+00 1.864173e-01 3.995835e+00 1.818640e-01 4.005272e+00 1.756275e-01 4.020074e+00 1.673361e-01 4.039998e+00 1.568819e-01 4.065422e+00 1.445311e-01 4.097776e+00 1.315982e-01 4.140402e+00 1.198015e-01 4.197546e+00 1.104630e-01 4.272539e+00 1.043609e-01 4.368171e+00 1.018723e-01 4.487428e+00 1.032164e-01 4.633940e+00 1.086266e-01 
4.854423e+00 1.318098e-01 5.074592e+00 1.455032e-01 5.345011e+00 1.479417e-01 5.101756e+00 1.513392e-01 4.893287e+00 1.545499e-01 4.717042e+00 1.584126e-01 4.570014e+00 1.632739e-01 4.448914e+00 1.688935e-01 4.350234e+00 1.744106e-01 4.270096e+00 1.791662e-01 4.205090e+00 1.828201e-01 4.152585e+00 1.852568e-01 4.110302e+00 1.866611e-01 4.076432e+00 1.873210e-01 4.049845e+00 1.873771e-01 4.029924e+00 1.867496e-01 4.016085e+00 1.853087e-01 4.007511e+00 1.830691e-01 4.003422e+00 1.801631e-01 4.003567e+00 1.766129e-01 4.008310e+00 1.721886e-01 4.018179e+00 1.665239e-01 4.033500e+00 1.593427e-01 4.054504e+00 1.506510e-01 4.081879e+00 1.408945e-01 4.117141e+00 1.311610e-01 4.163183e+00 1.225939e-01 4.223514e+00 1.161096e-01 4.301367e+00 1.123526e-01 4.399805e+00 1.117423e-01 4.522119e+00 1.145837e-01 4.672138e+00 1.211704e-01 
4.881276e+00 1.287078e-01 5.105966e+00 1.423044e-01 5.381388e+00 1.448481e-01 5.133674e+00 1.483425e-01 4.920550e+00 1.516779e-01 4.739635e+00 1.556939e-01 4.587996e+00 1.606728e-01 4.462431e+00 1.663901e-01 4.359533e+00 1.721537e-01 4.275615e+00 1.773714e-01 4.207357e+00 1.816857e-01 4.152073e+00 1.849397e-01 4.107478e+00 1.872089e-01 4.071782e+00 1.886570e-01 4.043804e+00 1.893528e-01 4.022806e+00 1.892150e-01 4.008115e+00 1.881304e-01 3.998948e+00 1.860901e-01 3.994633e+00 1.831699e-01 3.994967e+00 1.793718e-01 4.000251e+00 1.745229e-01 4.010946e+00 1.683639e-01 4.027424e+00 1.607269e-01 4.050082e+00 1.516963e-01 4.079762e+00 1.417283e-01 4.118026e+00 1.317561e-01 4.167458e+00 1.228246e-01 4.231267e+00 1.158145e-01 4.312624e+00 1.114006e-01 4.414655e+00 1.100843e-01 4.540733e+00 1.122725e-01 4.694746e+00 1.183533e-01 
4.906542e+00 1.402415e-01 5.133494e+00 1.541817e-01 5.411567e+00 1.567821e-01 5.162106e+00 1.601932e-01 4.947153e+00 1.630034e-01 4.764202e+00 1.659245e-01 4.610322e+00 1.691884e-01 4.482339e+00 1.726819e-01 4.376945e+00 1.760288e-01 4.290745e+00 1.789024e-01 4.220615e+00 1.810980e-01 4.163888e+00 1.825190e-01 4.118298e+00 1.832039e-01 4.082030e+00 1.832602e-01 4.053760e+00 1.827545e-01 4.032549e+00 1.816602e-01 4.017627e+00 1.799101e-01 4.008289e+00 1.774789e-01 4.003990e+00 1.743896e-01 4.004534e+00 1.706325e-01 4.010100e+00 1.661005e-01 4.021071e+00 1.606350e-01 4.037908e+00 1.541548e-01 4.061210e+00 1.467948e-01 4.091960e+00 1.389949e-01 4.131746e+00 1.314962e-01 4.182947e+00 1.250726e-01 4.248457e+00 1.203968e-01 4.331339e+00 1.180272e-01 4.434805e+00 1.184271e-01 4.562374e+00 1.220037e-01 4.718065e+00 1.291508e-01 
4.916462e+00 1.364684e-01 5.145553e+00 1.502671e-01 5.425929e+00 1.529198e-01 5.173965e+00 1.563239e-01 4.956376e+00 1.591796e-01 4.770811e+00 1.622296e-01 4.614370e+00 1.656907e-01 4.483908e+00 1.694707e-01 4.376162e+00 1.732540e-01 4.287818e+00 1.767292e-01 4.215804e+00 1.796666e-01 4.157456e+00 1.819265e-01 4.110515e+00 1.834764e-01 4.073168e+00 1.843427e-01 4.044062e+00 1.845311e-01 4.022205e+00 1.839883e-01 4.006796e+00 1.826393e-01 3.997146e+00 1.804455e-01 3.992758e+00 1.774088e-01 3.993459e+00 1.735148e-01 3.999411e+00 1.686886e-01 4.010983e+00 1.628343e-01 4.028662e+00 1.559379e-01 4.053118e+00 1.481751e-01 4.085394e+00 1.399759e-01 4.127065e+00 1.320122e-01 4.180362e+00 1.250207e-01 4.248013e+00 1.196769e-01 4.333003e+00 1.165727e-01 4.438536e+00 1.162292e-01 4.568154e+00 1.191248e-01 4.725901e+00 1.257259e-01 
4.924661e+00 1.464579e-01 5.153680e+00 1.605008e-01 5.434036e+00 1.631574e-01 5.182233e+00 1.663545e-01 4.964774e+00 1.686342e-01 4.779188e+00 1.706706e-01 4.622549e+00 1.726872e-01 4.491714e+00 1.746861e-01 4.383469e+00 1.765240e-01 4.294629e+00 1.780440e-01 4.222231e+00 1.791267e-01 4.163657e+00 1.797007e-01 4.116666e+00 1.797544e-01 4.079426e+00 1.793128e-01 4.050509e+00 1.783912e-01 4.028832e+00 1.769667e-01 4.013548e+00 1.749946e-01 4.003992e+00 1.724429e-01 3.999714e+00 1.693009e-01 4.000542e+00 1.655531e-01 4.006593e+00 1.611561e-01 4.018210e+00 1.560667e-01 4.035920e+00 1.503142e-01 4.060480e+00 1.440796e-01 4.092995e+00 1.377370e-01 4.135041e+00 1.318228e-01 4.188744e+00 1.269136e-01 4.256688e+00 1.235522e-01 4.341782e+00 1.222368e-01 4.447248e+00 1.234302e-01 4.576697e+00 1.275757e-01 4.734252e+00 1.351146e-01 
4.917611e+00 1.418103e-01 5.146392e+00 1.556449e-01 5.426371e+00 1.583000e-01 5.174031e+00 1.614060e-01 4.955954e+00 1.636986e-01 4.769788e+00 1.658921e-01 4.612589e+00 1.682062e-01 4.481191e+00 1.706495e-01 4.372378e+00 1.730910e-01 4.282988e+00 1.753624e-01 4.210082e+00 1.773104e-01 4.151053e+00 1.788165e-01 4.103675e+00 1.798093e-01 4.066123e+00 1.802504e-01 4.036965e+00 1.801020e-01 4.015101e+00 1.793080e-01 3.999681e+00 1.778062e-01 3.990054e+00 1.755525e-01 3.985796e+00 1.725273e-01 3.986753e+00 1.687166e-01 3.993041e+00 1.640982e-01 4.005004e+00 1.586660e-01 4.023184e+00 1.524880e-01 4.048363e+00 1.457678e-01 4.081654e+00 1.388747e-01 4.124604e+00 1.323200e-01 4.179246e+00 1.266724e-01 4.248054e+00 1.224927e-01 4.333859e+00 1.203169e-01 4.439843e+00 1.206600e-01 4.569607e+00 1.240262e-01 4.727276e+00 1.309197e-01 
4.908756e+00 1.506036e-01 5.135126e+00 1.645956e-01 5.412431e+00 1.672011e-01 5.162193e+00 1.700160e-01 4.946237e+00 1.717239e-01 4.762075e+00 1.729891e-01 4.606695e+00 1.740506e-01 4.476899e+00 1.749866e-01 4.369469e+00 1.757716e-01 4.281290e+00 1.763405e-01 4.209471e+00 1.766264e-01 4.151443e+00 1.765758e-01 4.104996e+00 1.761587e-01 4.068302e+00 1.753618e-01 4.039900e+00 1.741705e-01 4.018656e+00 1.725563e-01 4.003701e+00 1.704818e-01 3.994397e+00 1.679163e-01 3.990337e+00 1.648421e-01 3.991368e+00 1.612487e-01 3.997589e+00 1.571290e-01 4.009330e+00 1.524986e-01 4.027149e+00 1.474373e-01 4.051857e+00 1.421312e-01 4.084590e+00 1.368911e-01 4.126882e+00 1.321301e-01 4.180706e+00 1.283058e-01 4.248458e+00 1.258797e-01 4.332920e+00 1.253065e-01 4.437270e+00 1.270373e-01 4.565138e+00 1.315265e-01 4.720697e+00 1.392368e-01 