# vtk DataFile Version 2.0
Comment goes here
ASCII

DATASET STRUCTURED_POINTS
FIELD FieldData 1
TIME 1 1 double
0.09000000
DIMENSIONS    128   16   1

ORIGIN    0.000   0.000   0.000
SPACING   0.0078125 0.015625   1.000

POINT_DATA   2048
SCALARS fMag double
LOOKUP_TABLE default

0 0 0 0 0 0 0 0 0 0 0 0 0 0 0 0 0 0 0 0 0 0 0 0 0 0 0 0 0 0 0 0 0 0 0 0 0 0 0 0 0 0 0 0 0 0 0 0 0 0 0 0 0 0 0 0 0 0 0 0 0 0 0 0 0 0 0 0 0 0 0 0 0 0 0 0 0 0 0 0 0 0 0 0 0 0 0 0 0 0 0 0 0 0 0 0 0 0 0 0 0 0 0 0 0 0 0 0 0 0 0 0 0 0 0 0 0 0 0 0 0 0 0 0 0 0 0 0 
0 0 0 0 0 0 0 0 0 0 0 0 0 0 0 0 0 0 0 0 0 0 0 0 0 0 0 0 0 0 0 0 0 0 0 0 0 0 0 0 0 0 0 0 0 0 0 0 0 0 0 0 0 0 0 0 0 0 0 0 0 0 0 0 0 0 0 0 0 0 0 0 0 0 0 0 0 0 0 0 0 0 0 0 0 0 0 0 0 0 0 0 0 0 0 0 0 0 0 0 0 0 0 0 0 0 0 0 0 0 0 0 0 0 0 0 0 0 0 0 0 0 0 0 0 0 0 0 
0 0 0 0 0 1.012253e+00 1.961139e+00 1.804291e+00 2.206589e+00 1.842131e+00 2.025133e+00 2.814573e+00 1.622866e+00 3.418967e+00 6.544923e+00 7.997697e+00 1.176468e+01 1.484525e+01 1.899715e+01 2.298321e+01 2.735697e+01 2.839226e+01 2.640153e+01 2.348359e+01 2.187618e+01 2.322722e+01 2.439654e+01 2.486047e+01 2.343635e+01 2.008886e+01 1.836925e+01 1.962112e+01 2.188727e+01 2.339435e+01 2.300587e+01 2.196426e+01 2.310998e+01 2.450068e+01 2.527342e+01 2.511915e+01 2.375205e+01 2.149212e+01 2.021226e+01 1.988926e+01 2.002868e+01 1.978217e+01 2.017928e+01 2.169914e+01 2.165649e+01 2.113177e+01 2.119437e+01 1.978403e+01 1.798616e+01 1.743115e+01 1.741619e+01 1.607957e+01 1.361054e+01 1.291023e+01 1.377729e+01 1.523617e+01 1.833664e+01 2.091800e+01 2.064596e+01 1.880002e+01 1.638499e+01 1.417586e+01 1.193793e+01 1.115928e+01 1.167372e+01 1.226267e+01 1.587300e+01 1.960755e+01 1.901952e+01 1.728884e+01 1.602960e+01 1.402990e+01 1.312579e+01 1.245528e+01 1.116944e+01 1.105773e+01 1.077788e+01 1.093672e+01 1.185010e+01 1.139669e+01 1.104714e+01 1.252962e+01 1.312902e+01 1.240468e+01 1.057346e+01 9.639684e+00 9.672429e+00 9.531582e+00 9.671988e+00 1.029213e+01 1.147869e+01 1.119825e+01 9.514182e+00 7.804230e+00 7.071893e+00 6.651211e+00 7.491018e+00 7.427266e+00 8.098010e+00 9.137501e+00 1.092010e+01 9.470667e+00 7.353305e+00 6.344287e+00 7.203452e+00 4.660677e+00 2.177226e+00 1.750206e+00 2.095659e+00 1.953143e+00 1.254806e+00 3.927272e+00 5.877356e+00 5.168270e+00 2.503662e+00 2.738109e+00 4.540831e-01 3.342448e+00 2.591208e+00 6.759868e-01 0 0 0 0 
0 0 0 0 0 2.977675e+00 5.766625e+00 5.304823e+00 6.491123e+00 5.420767e+00 5.960038e+00 8.281325e+00 4.778398e+00 1.005432e+01 1.924627e+01 2.351898e+01 3.459730e+01 4.365543e+01 5.586304e+01 6.758120e+01 8.043778e+01 8.348096e+01 7.762935e+01 6.905197e+01 6.432678e+01 6.829845e+01 7.173581e+01 7.309949e+01 6.891307e+01 5.907235e+01 5.401682e+01 5.769708e+01 6.435932e+01 6.878962e+01 6.764752e+01 6.458563e+01 6.795383e+01 7.204211e+01 7.431353e+01 7.385997e+01 6.984122e+01 6.319771e+01 5.943527e+01 5.848575e+01 5.889568e+01 5.817093e+01 5.933821e+01 6.380649e+01 6.368111e+01 6.213847e+01 6.232269e+01 5.817646e+01 5.289072e+01 5.125893e+01 5.121499e+01 4.728505e+01 4.020016e+01 3.898693e+01 4.159098e+01 4.586778e+01 5.580259e+01 6.251864e+01 6.182434e+01 5.778711e+01 5.060706e+01 4.386197e+01 3.742313e+01 3.497611e+01 3.679949e+01 3.884828e+01 4.741902e+01 5.709310e+01 5.570380e+01 5.084050e+01 4.713836e+01 4.125862e+01 3.860078e+01 3.662944e+01 3.284810e+01 3.251942e+01 3.169665e+01 3.216431e+01 3.485065e+01 3.351696e+01 3.248848e+01 3.684735e+01 3.860988e+01 3.648003e+01 3.109531e+01 2.834961e+01 2.844592e+01 2.803174e+01 2.844464e+01 3.026834e+01 3.375780e+01 3.293322e+01 2.798071e+01 2.295210e+01 2.079844e+01 1.956162e+01 2.203176e+01 2.184405e+01 2.381625e+01 2.687291e+01 3.211437e+01 2.785147e+01 2.162524e+01 1.865816e+01 2.118557e+01 1.370665e+01 6.402967e+00 5.148158e+00 6.164515e+00 5.744839e+00 3.690978e+00 1.154993e+01 1.728515e+01 1.519787e+01 7.360328e+00 8.057728e+00 1.388957e+00 9.788170e+00 7.601352e+00 1.988887e+00 0 0 0 0 
0 0 0 0 0 2.057076e+00 3.982647e+00 3.663420e+00 4.484354e+00 3.745762e+00 4.118768e+00 5.721926e+00 3.303266e+00 3.725316e+01 4.868751e+01 4.457942e+01 5.671146e+01 5.622499e+01 6.293479e+01 6.318660e+01 6.170232e+01 5.765268e+01 5.361232e+01 4.768976e+01 4.442699e+01 4.716949e+01 4.954300e+01 5.048458e+01 4.759382e+01 4.079860e+01 3.730752e+01 3.984884e+01 4.444942e+01 4.750857e+01 4.671991e+01 4.460569e+01 4.693154e+01 4.975457e+01 5.132293e+01 5.100972e+01 4.823477e+01 4.364733e+01 4.104929e+01 4.039363e+01 4.067673e+01 4.017625e+01 4.098222e+01 4.406779e+01 4.398123e+01 4.291595e+01 4.304324e+01 4.018009e+01 3.652995e+01 3.540306e+01 3.537274e+01 3.265873e+01 2.792991e+01 2.740142e+01 2.792746e+01 3.068510e+01 3.706256e+01 3.908545e+01 3.807892e+01 3.612570e+01 3.185756e+01 2.618355e+01 2.058077e+01 1.911182e+01 2.028474e+01 2.285051e+01 2.791633e+01 3.506997e+01 3.726041e+01 3.511410e+01 3.255754e+01 2.849690e+01 2.666161e+01 2.530025e+01 2.268853e+01 2.246145e+01 2.189325e+01 2.221654e+01 2.407210e+01 2.315079e+01 2.244016e+01 2.545043e+01 2.666770e+01 2.519677e+01 2.147782e+01 1.958155e+01 1.964808e+01 1.936202e+01 1.964720e+01 2.090681e+01 2.331699e+01 2.274752e+01 1.932684e+01 1.585361e+01 1.436609e+01 1.351197e+01 1.521830e+01 1.508854e+01 1.645057e+01 1.856166e+01 2.218152e+01 1.923696e+01 1.493676e+01 1.288754e+01 1.463359e+01 9.467385e+00 4.422589e+00 3.556369e+00 4.258580e+00 3.968437e+00 2.549752e+00 7.977787e+00 1.193928e+01 1.049663e+01 5.082566e+00 5.568123e+00 9.859509e-01 6.740861e+00 5.241104e+00 1.374174e+00 0 0 0 0 
0 0 0 0 0 9.165321e-02 1.771617e-01 1.628879e-01 1.998196e-01 1.671261e-01 1.838620e-01 2.551738e-01 1.477339e-01 4.458262e+01 4.884737e+01 4.529242e+01 4.774152e+01 4.671609e+01 4.671354e+01 4.750361e+01 4.343396e+01 2.563973e+00 2.384495e+00 2.121368e+00 1.976389e+00 2.098263e+00 2.203727e+00 2.245553e+00 2.117100e+00 1.815118e+00 1.659937e+00 1.772883e+00 1.977377e+00 2.113312e+00 2.078255e+00 1.984321e+00 2.087693e+00 2.213146e+00 2.282818e+00 2.268893e+00 2.145594e+00 1.941738e+00 1.826281e+00 1.797144e+00 1.809734e+00 1.787483e+00 1.823286e+00 1.960444e+00 1.956601e+00 1.909247e+00 1.914926e+00 1.787662e+00 1.625389e+00 1.575285e+00 1.573942e+00 1.453252e+00 1.335181e+00 1.046371e+00 8.527474e-01 3.774880e-01 1.194984e+00 3.217497e+00 3.349837e+00 3.741350e+00 2.630702e+00 3.686238e+00 4.982175e+00 4.563534e+00 5.606404e+00 3.527529e+00 3.934399e+00 4.703972e+00 6.677658e-01 1.562436e+00 1.448782e+00 1.268186e+00 1.186624e+00 1.126098e+00 1.009873e+00 9.997477e-01 9.744821e-01 9.889404e-01 1.071552e+00 1.030514e+00 9.988222e-01 1.132697e+00 1.186845e+00 1.121419e+00 9.559730e-01 8.716238e-01 8.745860e-01 8.618573e-01 8.745478e-01 9.306047e-01 1.037874e+00 1.012547e+00 8.603097e-01 7.057358e-01 6.395342e-01 6.015609e-01 6.775546e-01 6.717510e-01 7.323281e-01 8.262484e-01 9.872501e-01 8.561530e-01 6.648351e-01 5.736660e-01 6.514681e-01 4.214092e-01 1.968483e-01 1.584170e-01 1.897240e-01 1.767417e-01 1.135801e-01 3.551248e-01 5.314809e-01 4.670289e-01 2.259004e-01 2.485043e-01 5.099169e-02 2.951426e-01 2.309602e-01 6.127365e-02 0 0 0 0 
0 0 0 0 0 0 0 0 0 0 0 0 0 4.823691e+01 5.240510e+01 4.956387e+01 5.142109e+01 5.121275e+01 4.972802e+01 5.207713e+01 4.715026e+01 0 0 0 0 0 0 0 0 0 0 0 0 0 0 0 0 0 0 0 0 0 0 0 0 0 0 0 0 0 0 0 0 0 0 0 5.926449e-03 3.214940e-01 5.669494e-01 1.944522e-01 7.774645e-01 6.638695e-01 1.271750e-01 5.095931e-01 1.256306e-01 1.378169e-01 1.969435e-01 8.384285e-01 1.671666e-01 5.509942e-01 1.919422e-01 1.566182e+00 4.812511e-01 0 0 0 0 0 0 0 0 0 0 0 0 0 0 0 0 0 0 0 0 0 0 0 0 0 0 0 0 0 0 0 0 0 0 0 0 0 0 0 0 0 0 0 0 0 0 0 0 0 0 0 0 0 0 0 
0 0 0 0 0 0 0 0 0 0 0 0 0 4.877850e+01 5.074750e+01 4.886733e+01 4.985927e+01 4.938119e+01 4.914201e+01 5.005035e+01 4.863508e+01 0 0 0 0 0 0 0 0 0 0 0 0 0 0 0 0 0 0 0 0 0 0 0 0 0 0 0 0 0 0 0 0 0 0 0 6.084538e-04 1.105006e-02 1.391864e-02 1.880016e-03 4.063788e-03 2.378332e-02 5.709281e-02 5.420156e-02 6.157740e-02 6.834076e-02 9.062876e-02 1.143936e-01 9.353539e-02 9.278891e-02 5.627985e-02 4.323283e-03 4.241337e-03 0 0 0 0 0 0 0 0 0 0 0 0 0 0 0 0 0 0 0 0 0 0 0 0 0 0 0 0 0 0 0 0 0 0 0 0 0 0 0 0 0 0 0 0 0 0 0 0 0 0 0 0 0 0 0 
0 0 0 0 0 0 0 0 0 0 0 0 0 5.110616e+01 5.329775e+01 5.148691e+01 5.230593e+01 5.235289e+01 5.132969e+01 5.333582e+01 5.077449e+01 0 0 0 0 0 0 0 0 0 0 0 0 0 0 0 0 0 0 0 0 0 0 0 0 0 0 0 0 0 0 0 0 0 0 0 0 0 0 0 0 0 0 0 0 0 0 0 0 0 0 0 0 0 0 0 0 0 0 0 0 0 0 0 0 0 0 0 0 0 0 0 0 0 0 0 0 0 0 0 0 0 0 0 0 0 0 0 0 0 0 0 0 0 0 0 0 0 0 0 0 0 0 0 0 0 0 0 
0 0 0 0 0 0 0 0 0 0 0 0 0 4.905667e+01 5.081336e+01 4.929528e+01 5.007088e+01 5.001423e+01 4.945418e+01 5.092160e+01 4.930534e+01 0 0 0 0 0 0 0 0 0 0 0 0 0 0 0 0 0 0 0 0 0 0 0 0 0 0 0 0 0 0 0 0 0 0 0 0 0 0 0 0 0 0 0 0 0 0 0 0 0 0 0 0 0 0 0 0 0 0 0 0 0 0 0 0 0 0 0 0 0 0 0 0 0 0 0 0 0 0 0 0 0 0 0 0 0 0 0 0 0 0 0 0 0 0 0 0 0 0 0 0 0 0 0 0 0 0 0 
0 0 0 0 0 0 0 0 0 0 0 0 0 4.903034e+01 5.272088e+01 5.003973e+01 5.167995e+01 5.157732e+01 4.982590e+01 5.339323e+01 4.830475e+01 0 0 0 0 0 0 0 0 0 0 0 0 0 0 0 0 0 0 0 0 0 0 0 0 0 0 0 0 0 0 0 0 0 0 0 0 0 0 0 0 0 0 0 0 0 0 0 0 0 0 0 0 0 0 0 0 0 0 0 0 0 0 0 0 0 0 0 0 0 0 0 0 0 0 0 0 0 0 0 0 0 0 0 0 0 0 0 0 0 0 0 0 0 0 0 0 0 0 0 0 0 0 0 0 0 0 0 
0 0 0 0 0 9.233197e-02 1.629854e-01 1.260261e-01 2.997078e-01 2.147833e-01 2.367114e-01 2.140023e-01 2.892991e-01 4.510826e+01 4.863047e+01 4.635840e+01 4.847189e+01 4.844512e+01 4.672506e+01 4.974132e+01 4.543240e+01 2.149669e+00 2.167339e+00 2.405549e+00 2.584553e+00 2.550276e+00 2.330239e+00 2.165683e+00 2.109090e+00 2.145620e+00 2.298425e+00 2.453242e+00 2.437935e+00 2.267260e+00 2.169652e+00 2.097251e+00 1.967309e+00 1.859919e+00 1.899755e+00 1.884966e+00 1.851915e+00 1.869131e+00 1.955719e+00 2.023960e+00 2.108044e+00 2.131760e+00 1.945155e+00 1.689529e+00 1.559702e+00 1.473226e+00 1.245320e+00 1.044931e+00 9.958445e-01 1.127153e+00 1.392283e+00 1.659503e+00 1.789586e+00 1.797136e+00 1.759917e+00 1.783184e+00 1.759625e+00 1.666742e+00 1.613524e+00 1.679626e+00 1.859130e+00 1.967542e+00 1.894635e+00 1.663910e+00 1.457702e+00 1.356117e+00 1.256512e+00 1.116171e+00 1.021983e+00 9.665609e-01 9.108409e-01 9.698767e-01 1.193981e+00 1.453813e+00 1.577603e+00 1.546472e+00 1.310296e+00 9.583614e-01 7.263108e-01 8.150672e-01 9.549458e-01 9.456664e-01 8.976117e-01 9.866295e-01 1.070057e+00 1.076371e+00 1.132334e+00 1.140690e+00 9.760484e-01 7.112950e-01 6.299067e-01 6.330402e-01 5.942116e-01 5.232937e-01 5.617014e-01 4.769476e-01 3.200120e-01 2.456238e-01 4.006858e-01 5.166182e-01 5.568771e-01 5.551631e-01 6.116071e-01 6.446865e-01 5.775266e-01 5.261752e-01 4.520466e-01 4.144946e-01 3.080267e-01 2.758841e-01 2.302736e-01 2.008225e-01 1.597092e-01 1.610111e-01 1.912683e-01 3.872390e-01 4.520457e-01 3.646567e-01 2.029609e-01 5.610665e-02 0 0 0 0 
0 0 0 0 0 2.072298e+00 3.663951e+00 2.828312e+00 6.725384e+00 4.818215e+00 5.307833e+00 4.793862e+00 6.484083e+00 4.055086e+01 4.994135e+01 4.429008e+01 5.612874e+01 5.135584e+01 5.907506e+01 6.180845e+01 6.512490e+01 4.832636e+01 4.872413e+01 5.408646e+01 5.811608e+01 5.734446e+01 5.239136e+01 4.868706e+01 4.741341e+01 4.823565e+01 5.167481e+01 5.516012e+01 5.481558e+01 5.097318e+01 4.877602e+01 4.714655e+01 4.422259e+01 4.180619e+01 4.270252e+01 4.236974e+01 4.162608e+01 4.201353e+01 4.396196e+01 4.549729e+01 4.738948e+01 4.792326e+01 4.372433e+01 3.797345e+01 3.505273e+01 3.310797e+01 2.798287e+01 2.347732e+01 2.237391e+01 2.532578e+01 3.128724e+01 3.729722e+01 4.022361e+01 4.039357e+01 3.955622e+01 4.007947e+01 3.954912e+01 3.745949e+01 3.626265e+01 3.774997e+01 4.178836e+01 4.422744e+01 4.258713e+01 3.739679e+01 3.275853e+01 3.047374e+01 2.823404e+01 2.507889e+01 2.296142e+01 2.171558e+01 2.046288e+01 2.178977e+01 2.682841e+01 3.267117e+01 3.545508e+01 3.475500e+01 2.944421e+01 2.153189e+01 1.631630e+01 1.831123e+01 2.145477e+01 2.124616e+01 2.016618e+01 2.216728e+01 2.404231e+01 2.418386e+01 2.544152e+01 2.562928e+01 2.192892e+01 1.597845e+01 1.414937e+01 1.421979e+01 1.334732e+01 1.175377e+01 1.261704e+01 1.071366e+01 7.188386e+00 5.518075e+00 9.002503e+00 1.160678e+01 1.251169e+01 1.247379e+01 1.374283e+01 1.448579e+01 1.297580e+01 1.182146e+01 1.015496e+01 9.310933e+00 6.918386e+00 6.195758e+00 5.171150e+00 4.510913e+00 3.588925e+00 3.621749e+00 4.313376e+00 8.754889e+00 1.032851e+01 8.415425e+00 4.641483e+00 1.258502e+00 0 0 0 0 
0 0 0 0 0 2.999707e+00 5.305170e+00 4.094008e+00 9.734855e+00 6.973892e+00 7.681985e+00 6.936907e+00 9.383615e+00 1.092807e+01 1.658152e+01 1.953707e+01 3.144015e+01 4.314459e+01 5.405598e+01 6.153401e+01 7.000140e+01 6.997384e+01 7.054992e+01 7.831609e+01 8.415213e+01 8.303461e+01 7.586115e+01 7.049628e+01 6.865176e+01 6.984257e+01 7.482330e+01 7.987107e+01 7.937208e+01 7.380712e+01 7.062503e+01 6.826518e+01 6.403075e+01 6.053139e+01 6.182942e+01 6.134749e+01 6.027054e+01 6.083167e+01 6.365336e+01 6.587674e+01 6.861701e+01 6.939004e+01 6.330924e+01 5.498123e+01 5.075167e+01 4.793558e+01 4.051432e+01 3.399039e+01 3.239273e+01 3.666686e+01 4.529900e+01 5.400178e+01 5.823954e+01 5.848569e+01 5.727309e+01 5.803078e+01 5.726268e+01 5.423662e+01 5.250354e+01 5.465743e+01 6.050555e+01 6.403768e+01 6.166227e+01 5.414607e+01 4.742950e+01 4.412097e+01 4.087789e+01 3.630937e+01 3.324338e+01 3.143950e+01 2.962565e+01 3.154684e+01 3.884265e+01 4.730302e+01 5.133423e+01 5.032048e+01 4.263041e+01 3.117368e+01 2.362209e+01 2.651054e+01 3.106194e+01 3.075988e+01 2.919621e+01 3.209367e+01 3.480849e+01 3.501335e+01 3.683425e+01 3.710610e+01 3.174842e+01 2.313283e+01 2.048459e+01 2.058653e+01 1.932336e+01 1.701619e+01 1.826611e+01 1.551061e+01 1.040692e+01 7.988908e+00 1.303378e+01 1.680413e+01 1.811435e+01 1.805964e+01 1.989717e+01 2.097274e+01 1.878632e+01 1.711493e+01 1.470193e+01 1.347986e+01 1.001583e+01 8.969497e+00 7.486114e+00 6.530597e+00 5.196188e+00 5.244617e+00 6.248954e+00 1.268913e+01 1.499735e+01 1.224033e+01 6.740594e+00 1.821523e+00 0 0 0 0 
0 0 0 0 0 1.019741e+00 1.804205e+00 1.391722e+00 3.309180e+00 2.370461e+00 2.610863e+00 2.357047e+00 3.188831e+00 3.715344e+00 5.638709e+00 6.643552e+00 1.069094e+01 1.467160e+01 1.838261e+01 2.092623e+01 2.380656e+01 2.379715e+01 2.399313e+01 2.663518e+01 2.862061e+01 2.824043e+01 2.580003e+01 2.397491e+01 2.334744e+01 2.375254e+01 2.544691e+01 2.716419e+01 2.699444e+01 2.510120e+01 2.401866e+01 2.321588e+01 2.177547e+01 2.058512e+01 2.102666e+01 2.086272e+01 2.049638e+01 2.068727e+01 2.164712e+01 2.240341e+01 2.333557e+01 2.359854e+01 2.153007e+01 1.869731e+01 1.725864e+01 1.630084e+01 1.377677e+01 1.155799e+01 1.101466e+01 1.246823e+01 1.540404e+01 1.836406e+01 1.980552e+01 1.988925e+01 1.947679e+01 1.973449e+01 1.947318e+01 1.844387e+01 1.785442e+01 1.858708e+01 2.057632e+01 2.177778e+01 2.096978e+01 1.841320e+01 1.612867e+01 1.500335e+01 1.390036e+01 1.234665e+01 1.130395e+01 1.069048e+01 1.007361e+01 1.072694e+01 1.320822e+01 1.608567e+01 1.745675e+01 1.711196e+01 1.449650e+01 1.060016e+01 8.032101e+00 9.014378e+00 1.056212e+01 1.045939e+01 9.927649e+00 1.091302e+01 1.183623e+01 1.190586e+01 1.252507e+01 1.261751e+01 1.079555e+01 7.865679e+00 6.965119e+00 6.999786e+00 6.570250e+00 5.785705e+00 6.210766e+00 5.273899e+00 3.538543e+00 2.716457e+00 4.431966e+00 5.713968e+00 6.159538e+00 6.141008e+00 6.765942e+00 7.131645e+00 6.388051e+00 5.819645e+00 4.999013e+00 4.583426e+00 3.405471e+00 3.049623e+00 2.545238e+00 2.220506e+00 1.766972e+00 1.783879e+00 2.126846e+00 4.321479e+00 5.120887e+00 4.189562e+00 2.302072e+00 6.191283e-01 0 0 0 0 
0 0 0 0 0 0 0 0 0 0 0 0 0 0 0 0 0 0 0 0 0 0 0 0 0 0 0 0 0 0 0 0 0 0 0 0 0 0 0 0 0 0 0 0 0 0 0 0 0 0 0 0 0 0 0 0 0 0 0 0 0 0 0 0 0 0 0 0 0 0 0 0 0 0 0 0 0 0 0 0 0 0 0 0 0 0 0 0 0 0 0 0 0 0 0 0 0 0 0 0 0 0 0 0 0 0 0 0 0 0 0 0 0 0 0 0 0 0 0 0 0 0 0 0 0 0 0 0 
