# vtk DataFile Version 2.0
Comment goes here
ASCII

DATASET STRUCTURED_POINTS
FIELD FieldData 1
TIME 1 1 double
0.22000000
DIMENSIONS    128   16   1

ORIGIN    0.000   0.000   0.000
SPACING   0.0078125 0.015625   1.000

POINT_DATA   2048
SCALARS fMag double
LOOKUP_TABLE default

0 0 0 0 0 0 0 0 0 0 0 0 0 0 0 0 0 0 0 0 0 0 0 0 0 0 0 0 0 0 0 0 0 0 0 0 0 0 0 0 0 0 0 0 0 0 0 0 0 0 0 0 0 0 0 0 0 0 0 0 0 0 0 0 0 0 0 0 0 0 0 0 0 0 0 0 0 0 0 0 0 0 0 0 0 0 0 0 0 0 0 0 0 0 0 0 0 0 0 0 0 0 0 0 0 0 0 0 0 0 0 0 0 0 0 0 0 0 0 0 0 0 0 0 0 0 0 0 
0 0 0 0 0 0 0 0 0 0 0 0 0 0 0 0 0 0 0 0 0 0 0 0 0 0 0 0 0 0 0 0 0 0 0 0 0 0 0 0 0 0 0 0 0 0 0 0 0 0 0 0 0 0 0 0 0 0 0 0 0 0 0 0 0 0 0 0 0 0 0 0 0 0 0 0 0 0 0 0 0 0 0 0 0 0 0 0 0 0 0 0 0 0 0 0 0 0 0 0 0 0 0 0 0 0 0 0 0 0 0 0 0 0 0 0 0 0 0 0 0 0 0 0 0 0 0 0 
0 0 0 0 0 1.997883e+00 1.459696e+00 1.132817e+00 1.499960e+00 1.246197e+00 1.874343e+00 1.262813e+00 1.865877e+00 2.661062e+00 3.816015e+00 5.196952e+00 6.598143e+00 9.055622e+00 1.118291e+01 1.269497e+01 1.672404e+01 1.666377e+01 1.624930e+01 1.598697e+01 1.496816e+01 1.433326e+01 1.347539e+01 1.384359e+01 1.462341e+01 1.637625e+01 1.742667e+01 1.801489e+01 1.727841e+01 1.628080e+01 1.488919e+01 1.413188e+01 1.384757e+01 1.398595e+01 1.409409e+01 1.408758e+01 1.388209e+01 1.328568e+01 1.280664e+01 1.238301e+01 1.245791e+01 1.264333e+01 1.337196e+01 1.384314e+01 1.405991e+01 1.340320e+01 1.268110e+01 1.203999e+01 1.184690e+01 1.173043e+01 1.171316e+01 1.169587e+01 1.292183e+01 1.694198e+01 1.806477e+01 1.819802e+01 1.939879e+01 1.848686e+01 1.746037e+01 1.772620e+01 1.758866e+01 1.918742e+01 2.094165e+01 2.039386e+01 1.959929e+01 1.952570e+01 1.762298e+01 1.401036e+01 8.498389e+00 6.811014e+00 6.565447e+00 6.483114e+00 6.337082e+00 5.874563e+00 5.278388e+00 4.607003e+00 4.762099e+00 5.609823e+00 7.345708e+00 8.434237e+00 8.783553e+00 7.579156e+00 6.295166e+00 4.930293e+00 4.655884e+00 4.596955e+00 5.102179e+00 5.228782e+00 5.601887e+00 5.783496e+00 5.901206e+00 5.669617e+00 5.340627e+00 5.068959e+00 4.580049e+00 4.376427e+00 3.689649e+00 3.186886e+00 2.118301e+00 2.004456e+00 1.820578e+00 2.792376e+00 3.109948e+00 3.824274e+00 3.263069e+00 3.107485e+00 2.297959e+00 2.253682e+00 1.889842e+00 1.946239e+00 1.695129e+00 1.800783e+00 2.210307e+00 2.705944e+00 3.240972e+00 2.680526e+00 2.230410e+00 1.212326e+00 2.159978e+00 5.385216e-01 0 0 0 0 
0 0 0 0 0 5.878023e+00 4.309706e+00 3.327833e+00 4.418824e+00 3.666690e+00 5.513556e+00 3.714656e+00 5.488536e+00 7.826504e+00 1.122306e+01 1.528414e+01 1.940487e+01 2.663128e+01 3.288709e+01 3.733304e+01 4.917923e+01 4.900180e+01 4.778319e+01 4.701189e+01 4.401665e+01 4.215001e+01 3.962786e+01 4.071069e+01 4.300357e+01 4.815737e+01 5.124575e+01 5.297514e+01 5.080985e+01 4.787679e+01 4.378513e+01 4.155848e+01 4.072250e+01 4.112932e+01 4.144726e+01 4.142814e+01 4.082392e+01 3.907035e+01 3.766182e+01 3.641621e+01 3.663649e+01 3.718169e+01 3.932416e+01 4.070958e+01 4.134696e+01 3.941602e+01 3.729279e+01 3.540765e+01 3.483988e+01 3.449739e+01 3.444662e+01 3.439577e+01 3.752666e+01 4.533875e+01 4.681478e+01 4.822377e+01 4.898485e+01 4.485762e+01 4.008556e+01 3.774362e+01 3.698597e+01 3.978266e+01 4.168752e+01 4.006981e+01 3.539197e+01 3.123472e+01 3.158101e+01 3.371197e+01 2.384427e+01 2.003108e+01 1.930883e+01 1.906665e+01 1.863716e+01 1.727701e+01 1.552370e+01 1.354933e+01 1.400553e+01 1.649855e+01 2.160361e+01 2.480472e+01 2.583195e+01 2.229022e+01 1.851429e+01 1.450033e+01 1.369331e+01 1.351994e+01 1.500564e+01 1.537789e+01 1.647504e+01 1.700910e+01 1.735522e+01 1.667411e+01 1.570665e+01 1.490771e+01 1.346996e+01 1.287118e+01 1.085153e+01 9.372938e+00 6.230241e+00 5.895444e+00 5.354547e+00 8.212531e+00 9.146362e+00 1.124683e+01 9.595888e+00 9.137950e+00 6.756515e+00 6.625970e+00 5.555579e+00 5.721437e+00 4.982738e+00 5.293430e+00 6.498051e+00 7.956052e+00 9.530230e+00 7.882346e+00 6.553796e+00 3.557461e+00 6.348922e+00 1.583563e+00 0 0 0 0 
0 0 0 0 0 4.061209e+00 2.984951e+00 2.296867e+00 3.055823e+00 2.533475e+00 3.808911e+00 2.566169e+00 3.791570e+00 2.499734e+01 3.824600e+01 2.781335e+01 3.021813e+01 3.379609e+01 3.343384e+01 4.351386e+01 4.431537e+01 3.384388e+01 3.300230e+01 3.246965e+01 3.040129e+01 2.911222e+01 2.737052e+01 2.811843e+01 2.970192e+01 3.326117e+01 3.539397e+01 3.658822e+01 3.509293e+01 3.306743e+01 3.024171e+01 2.870399e+01 2.812664e+01 2.840757e+01 2.862714e+01 2.861393e+01 2.819665e+01 2.698564e+01 2.601288e+01 2.515265e+01 2.530480e+01 2.568133e+01 2.716098e+01 2.811778e+01 2.855796e+01 2.722441e+01 2.575807e+01 2.445613e+01 2.406401e+01 2.382746e+01 2.379240e+01 2.375729e+01 2.523738e+01 2.214859e+01 1.928006e+01 2.222373e+01 1.871187e+01 1.537838e+01 1.070506e+01 7.940334e+00 9.255156e+00 9.399444e+00 1.101950e+01 1.297557e+01 1.033923e+01 1.157727e+01 1.808749e+01 2.022080e+01 1.585022e+01 1.383599e+01 1.333708e+01 1.316979e+01 1.287313e+01 1.193369e+01 1.072265e+01 9.358974e+00 9.674115e+00 1.139605e+01 1.492218e+01 1.713315e+01 1.784264e+01 1.539645e+01 1.278845e+01 1.001595e+01 9.458537e+00 9.338753e+00 1.036489e+01 1.062197e+01 1.137973e+01 1.174859e+01 1.198764e+01 1.151717e+01 1.084896e+01 1.029714e+01 9.304103e+00 8.890552e+00 7.495594e+00 6.474306e+00 4.303560e+00 4.072317e+00 3.698649e+00 5.672706e+00 6.317656e+00 7.768331e+00 6.627768e+00 6.311280e+00 4.666055e+00 4.575725e+00 3.836213e+00 3.950773e+00 3.440442e+00 3.655028e+00 4.487197e+00 5.494441e+00 6.582092e+00 5.444038e+00 4.524064e+00 2.453375e+00 4.383651e+00 1.093701e+00 0 0 0 0 
0 0 0 0 0 1.810692e-01 1.349408e-01 1.018518e-01 1.369584e-01 1.129826e-01 1.696977e-01 1.143267e-01 1.689108e-01 2.749907e+01 2.999737e+01 2.827728e+01 2.852278e+01 2.888018e+01 2.759420e+01 2.944759e+01 2.745466e+01 1.505844e+00 1.468419e+00 1.444734e+00 1.352793e+00 1.295478e+00 1.218049e+00 1.251336e+00 1.321759e+00 1.480045e+00 1.574881e+00 1.627975e+00 1.561495e+00 1.471437e+00 1.345775e+00 1.277395e+00 1.251714e+00 1.264203e+00 1.273967e+00 1.273379e+00 1.254820e+00 1.200967e+00 1.157702e+00 1.119445e+00 1.126217e+00 1.142966e+00 1.208781e+00 1.251337e+00 1.270912e+00 1.211601e+00 1.146383e+00 1.088469e+00 1.071026e+00 1.060503e+00 1.058943e+00 1.057383e+00 5.734353e-01 7.933303e+00 1.088062e+01 8.554576e+00 1.177636e+01 1.145291e+01 1.210087e+01 1.304939e+01 1.194015e+01 1.186320e+01 1.224865e+01 1.022299e+01 9.439409e+00 8.545175e+00 6.558552e+00 2.648310e+00 1.475059e+00 6.159215e-01 5.937063e-01 5.862539e-01 5.730473e-01 5.312414e-01 4.773344e-01 4.166486e-01 4.306853e-01 5.073241e-01 6.642744e-01 7.626679e-01 7.942394e-01 6.853914e-01 5.693270e-01 4.459200e-01 4.211083e-01 4.157684e-01 4.614293e-01 4.728624e-01 5.065767e-01 5.229904e-01 5.336244e-01 5.126794e-01 4.829451e-01 4.583841e-01 4.141936e-01 3.957935e-01 3.337137e-01 2.882534e-01 1.916202e-01 1.813285e-01 1.646803e-01 2.525500e-01 2.812427e-01 3.457772e-01 2.949493e-01 2.808150e-01 2.074987e-01 2.034373e-01 1.704754e-01 1.755744e-01 1.528334e-01 1.623814e-01 1.994530e-01 2.443332e-01 2.928334e-01 2.422184e-01 2.006788e-01 1.082394e-01 1.947075e-01 4.865996e-02 0 0 0 0 
0 0 0 0 0 0 0 0 0 0 0 0 0 3.000851e+01 3.296722e+01 3.070023e+01 3.117944e+01 3.170313e+01 3.009550e+01 3.262577e+01 3.018228e+01 0 0 0 0 0 0 0 0 0 0 0 0 0 0 0 0 0 0 0 0 0 0 0 0 0 0 0 0 0 0 0 0 0 0 0 7.312992e-02 1.423719e+00 9.701622e-01 2.979123e-01 6.124109e-01 3.863409e-01 5.084354e-01 1.018487e+00 1.451096e+00 1.525369e+00 1.886507e+00 2.360592e+00 2.381384e+00 2.385544e+00 3.941925e+00 3.650054e+00 1.069468e+00 0 0 0 0 0 0 0 0 0 0 0 0 0 0 0 0 0 0 0 0 0 0 0 0 0 0 0 0 0 0 0 0 0 0 0 0 0 0 0 0 0 0 0 0 0 0 0 0 0 0 0 0 0 0 0 
0 0 0 0 0 0 0 0 0 0 0 0 0 2.909673e+01 3.008923e+01 2.925792e+01 2.956985e+01 2.957688e+01 2.919862e+01 2.992106e+01 2.910598e+01 0 0 0 0 0 0 0 0 0 0 0 0 0 0 0 0 0 0 0 0 0 0 0 0 0 0 0 0 0 0 0 0 0 0 0 3.120377e-04 3.223833e-03 4.322099e-02 5.660770e-02 5.338154e-02 7.338204e-02 6.627679e-02 6.582653e-02 6.121565e-02 4.410120e-02 2.784605e-02 1.409809e-02 1.529674e-02 6.351502e-02 1.484165e-02 4.418804e-02 1.631580e-02 0 0 0 0 0 0 0 0 0 0 0 0 0 0 0 0 0 0 0 0 0 0 0 0 0 0 0 0 0 0 0 0 0 0 0 0 0 0 0 0 0 0 0 0 0 0 0 0 0 0 0 0 0 0 0 
0 0 0 0 0 0 0 0 0 0 0 0 0 3.109263e+01 3.255875e+01 3.144229e+01 3.183724e+01 3.202885e+01 3.129634e+01 3.260673e+01 3.117557e+01 0 0 0 0 0 0 0 0 0 0 0 0 0 0 0 0 0 0 0 0 0 0 0 0 0 0 0 0 0 0 0 0 0 0 0 0 0 0 0 0 0 0 0 0 0 0 0 0 0 0 0 0 0 0 0 0 0 0 0 0 0 0 0 0 0 0 0 0 0 0 0 0 0 0 0 0 0 0 0 0 0 0 0 0 0 0 0 0 0 0 0 0 0 0 0 0 0 0 0 0 0 0 0 0 0 0 0 
0 0 0 0 0 0 0 0 0 0 0 0 0 2.903012e+01 3.004627e+01 2.925467e+01 2.960030e+01 2.964948e+01 2.931154e+01 3.008173e+01 2.928337e+01 0 0 0 0 0 0 0 0 0 0 0 0 0 0 0 0 0 0 0 0 0 0 0 0 0 0 0 0 0 0 0 0 0 0 0 0 0 0 0 0 0 0 0 0 0 0 0 0 0 0 0 0 0 0 0 0 0 0 0 0 0 0 0 0 0 0 0 0 0 0 0 0 0 0 0 0 0 0 0 0 0 0 0 0 0 0 0 0 0 0 0 0 0 0 0 0 0 0 0 0 0 0 0 0 0 0 0 
0 0 0 0 0 0 0 0 0 0 0 0 0 2.988327e+01 3.285776e+01 3.069177e+01 3.121236e+01 3.182609e+01 3.026091e+01 3.288213e+01 3.042554e+01 0 0 0 0 0 0 0 0 0 0 0 0 0 0 0 0 0 0 0 0 0 0 0 0 0 0 0 0 0 0 0 0 0 0 0 0 0 0 0 0 0 0 0 0 0 0 0 0 0 0 0 0 0 0 0 0 0 0 0 0 0 0 0 0 0 0 0 0 0 0 0 0 0 0 0 0 0 0 0 0 0 0 0 0 0 0 0 0 0 0 0 0 0 0 0 0 0 0 0 0 0 0 0 0 0 0 0 
0 0 0 0 0 1.833015e-01 1.504197e-01 4.768196e-02 1.014539e-01 6.142787e-02 1.391383e-01 1.136547e-01 1.757151e-01 2.720669e+01 2.983381e+01 2.818221e+01 2.859990e+01 2.902826e+01 2.802440e+01 2.994426e+01 2.821104e+01 1.576530e+00 1.539400e+00 1.495603e+00 1.411134e+00 1.413391e+00 1.406019e+00 1.443937e+00 1.411308e+00 1.401027e+00 1.341438e+00 1.336737e+00 1.309450e+00 1.309844e+00 1.265698e+00 1.237834e+00 1.205358e+00 1.215219e+00 1.247110e+00 1.292878e+00 1.332141e+00 1.344740e+00 1.353206e+00 1.340755e+00 1.336007e+00 1.289153e+00 1.231378e+00 1.135001e+00 1.085163e+00 1.073451e+00 1.128106e+00 1.156018e+00 1.167199e+00 1.135645e+00 1.111643e+00 1.089940e+00 1.085150e+00 1.057157e+00 9.983530e-01 9.298054e-01 8.702561e-01 8.451196e-01 8.231095e-01 8.233472e-01 8.210342e-01 8.553392e-01 8.833829e-01 9.186360e-01 8.864886e-01 8.161883e-01 7.084462e-01 6.528754e-01 6.505022e-01 7.226043e-01 8.033685e-01 8.528204e-01 8.380173e-01 7.874634e-01 7.397489e-01 6.989873e-01 6.850588e-01 6.611482e-01 6.389111e-01 5.695585e-01 5.210421e-01 4.610941e-01 4.425076e-01 4.109655e-01 4.380454e-01 4.575701e-01 5.050958e-01 5.129981e-01 5.065327e-01 4.354373e-01 3.578707e-01 3.108193e-01 3.167664e-01 3.687484e-01 4.170167e-01 4.739647e-01 4.591483e-01 4.568288e-01 4.043504e-01 4.014600e-01 3.317133e-01 3.237169e-01 2.666631e-01 2.941787e-01 2.747293e-01 3.204243e-01 2.918508e-01 2.896668e-01 2.407643e-01 2.445297e-01 2.415088e-01 2.231473e-01 1.653542e-01 4.550395e-02 2.957687e-02 8.656328e-02 1.223951e-03 3.544708e-02 1.751981e-01 4.771747e-02 0 0 0 0 
0 0 0 0 0 4.111313e+00 3.332166e+00 1.057722e+00 2.248301e+00 1.373111e+00 3.122434e+00 2.550893e+00 3.944026e+00 2.477381e+01 3.817536e+01 2.784770e+01 3.057626e+01 3.425170e+01 3.409788e+01 4.363760e+01 4.481450e+01 3.543390e+01 3.459893e+01 3.361412e+01 3.171364e+01 3.176380e+01 3.159754e+01 3.244975e+01 3.171553e+01 3.148411e+01 3.014392e+01 3.003814e+01 2.942459e+01 2.943353e+01 2.844105e+01 2.781457e+01 2.708456e+01 2.730635e+01 2.802339e+01 2.905261e+01 2.993538e+01 3.021863e+01 3.040890e+01 3.012879e+01 3.002196e+01 2.896826e+01 2.766921e+01 2.550221e+01 2.438172e+01 2.411843e+01 2.534718e+01 2.597469e+01 2.622611e+01 2.551677e+01 2.497717e+01 2.448933e+01 2.438168e+01 2.375242e+01 2.243045e+01 2.088972e+01 1.955115e+01 1.898617e+01 1.849143e+01 1.849673e+01 1.844471e+01 1.921568e+01 1.984598e+01 2.063837e+01 1.991583e+01 1.833584e+01 1.591467e+01 1.466585e+01 1.461260e+01 1.623305e+01 1.804798e+01 1.915949e+01 1.882684e+01 1.769053e+01 1.661825e+01 1.570212e+01 1.538907e+01 1.485167e+01 1.435195e+01 1.279352e+01 1.170342e+01 1.035660e+01 9.939081e+00 9.230624e+00 9.839153e+00 1.027793e+01 1.134596e+01 1.152365e+01 1.137859e+01 9.781707e+00 8.038988e+00 6.982187e+00 7.115789e+00 8.283194e+00 9.367481e+00 1.064650e+01 1.031330e+01 1.026102e+01 9.081905e+00 9.016991e+00 7.450432e+00 7.271152e+00 5.990314e+00 6.609202e+00 6.173355e+00 7.201150e+00 6.560576e+00 6.512520e+00 5.415361e+00 5.500587e+00 5.432773e+00 5.020078e+00 3.721710e+00 1.028278e+00 6.600950e-01 1.938808e+00 2.103243e-02 7.993327e-01 3.945311e+00 1.072503e+00 0 0 0 0 
0 0 0 0 0 5.950550e+00 4.812259e+00 1.528527e+00 3.247183e+00 1.986198e+00 4.519709e+00 3.692493e+00 5.709154e+00 7.358344e+00 1.097590e+01 1.543371e+01 1.963246e+01 2.656732e+01 3.272214e+01 3.756490e+01 5.058437e+01 5.130430e+01 5.009524e+01 4.866925e+01 4.591706e+01 4.598954e+01 4.574867e+01 4.698257e+01 4.591929e+01 4.558414e+01 4.364347e+01 4.349027e+01 4.260186e+01 4.261483e+01 4.117776e+01 4.027064e+01 3.921363e+01 3.953481e+01 4.057306e+01 4.206340e+01 4.334162e+01 4.375175e+01 4.402725e+01 4.362162e+01 4.346690e+01 4.194111e+01 4.006010e+01 3.692233e+01 3.529988e+01 3.491867e+01 3.669784e+01 3.760644e+01 3.797050e+01 3.694343e+01 3.616211e+01 3.545575e+01 3.529990e+01 3.438878e+01 3.247463e+01 3.024382e+01 2.830568e+01 2.748764e+01 2.677131e+01 2.677896e+01 2.670364e+01 2.781990e+01 2.873251e+01 2.987981e+01 2.883365e+01 2.654603e+01 2.304054e+01 2.123244e+01 2.115536e+01 2.350158e+01 2.612931e+01 2.773866e+01 2.725704e+01 2.561177e+01 2.405926e+01 2.273282e+01 2.227955e+01 2.150146e+01 2.077795e+01 1.852160e+01 1.694334e+01 1.499343e+01 1.438898e+01 1.336333e+01 1.424439e+01 1.487967e+01 1.642602e+01 1.668331e+01 1.647334e+01 1.416151e+01 1.163842e+01 1.010847e+01 1.030189e+01 1.199193e+01 1.356170e+01 1.541334e+01 1.493087e+01 1.485513e+01 1.314800e+01 1.305402e+01 1.078609e+01 1.052662e+01 8.672495e+00 9.568689e+00 8.937962e+00 1.042629e+01 9.499222e+00 9.429905e+00 7.841841e+00 7.965390e+00 7.867224e+00 7.269686e+00 5.389943e+00 1.490235e+00 9.545612e-01 2.805457e+00 3.113535e-02 1.158184e+00 5.714293e+00 1.552866e+00 0 0 0 0 
0 0 0 0 0 2.022538e+00 1.630513e+00 5.184882e-01 1.100335e+00 6.745157e-01 1.536414e+00 1.255255e+00 1.940844e+00 2.501878e+00 3.731988e+00 5.247812e+00 6.675528e+00 9.033854e+00 1.112680e+01 1.277384e+01 1.720200e+01 1.744693e+01 1.703572e+01 1.655073e+01 1.561455e+01 1.563913e+01 1.555715e+01 1.597676e+01 1.561506e+01 1.550105e+01 1.484098e+01 1.478887e+01 1.448672e+01 1.449114e+01 1.400241e+01 1.369390e+01 1.333443e+01 1.344368e+01 1.379678e+01 1.430366e+01 1.473838e+01 1.487787e+01 1.497155e+01 1.483358e+01 1.478095e+01 1.426200e+01 1.362227e+01 1.255511e+01 1.200333e+01 1.187368e+01 1.247876e+01 1.278777e+01 1.291159e+01 1.256230e+01 1.229658e+01 1.205636e+01 1.200336e+01 1.169351e+01 1.104254e+01 1.028390e+01 9.624784e+00 9.346593e+00 9.102987e+00 9.105585e+00 9.079967e+00 9.459562e+00 9.769910e+00 1.016008e+01 9.804310e+00 9.026373e+00 7.834323e+00 7.219467e+00 7.193268e+00 7.991127e+00 8.884693e+00 9.431985e+00 9.268210e+00 8.708701e+00 8.180761e+00 7.729684e+00 7.575539e+00 7.310939e+00 7.064906e+00 6.297635e+00 5.760964e+00 5.097933e+00 4.892406e+00 4.543676e+00 4.843280e+00 5.059311e+00 5.585158e+00 5.672663e+00 5.601291e+00 4.815240e+00 3.957298e+00 3.437101e+00 3.502871e+00 4.077482e+00 4.611240e+00 5.240807e+00 5.076710e+00 5.050937e+00 4.470442e+00 4.438490e+00 3.667370e+00 3.579189e+00 2.948844e+00 3.253666e+00 3.039335e+00 3.545559e+00 3.230497e+00 3.207052e+00 2.667244e+00 2.709332e+00 2.675960e+00 2.472756e+00 1.833588e+00 5.074612e-01 3.240431e-01 9.532119e-01 1.133209e-02 3.942981e-01 1.944181e+00 5.280808e-01 0 0 0 0 
0 0 0 0 0 0 0 0 0 0 0 0 0 0 0 0 0 0 0 0 0 0 0 0 0 0 0 0 0 0 0 0 0 0 0 0 0 0 0 0 0 0 0 0 0 0 0 0 0 0 0 0 0 0 0 0 0 0 0 0 0 0 0 0 0 0 0 0 0 0 0 0 0 0 0 0 0 0 0 0 0 0 0 0 0 0 0 0 0 0 0 0 0 0 0 0 0 0 0 0 0 0 0 0 0 0 0 0 0 0 0 0 0 0 0 0 0 0 0 0 0 0 0 0 0 0 0 0 
