# vtk DataFile Version 2.0
Comment goes here
ASCII

DATASET STRUCTURED_POINTS
FIELD FieldData 1
TIME 1 1 double
0.90000000
DIMENSIONS    128   16   1

ORIGIN    0.000   0.000   0.000
SPACING   0.0078125 0.015625   1.000

POINT_DATA   2048
SCALARS fMag double
LOOKUP_TABLE default

0 0 0 0 0 0 0 0 0 0 0 0 0 0 0 0 0 0 0 0 0 0 0 0 0 0 0 0 0 0 0 0 0 0 0 0 0 0 0 0 0 0 0 0 0 0 0 0 0 0 0 0 0 0 0 0 0 0 0 0 0 0 0 0 0 0 0 0 0 0 0 0 0 0 0 0 0 0 0 0 0 0 0 0 0 0 0 0 0 0 0 0 0 0 0 0 0 0 0 0 0 0 0 0 0 0 0 0 0 0 0 0 0 0 0 0 0 0 0 0 0 0 0 0 0 0 0 0 
0 0 0 0 0 0 0 0 0 0 0 0 0 0 0 0 0 0 0 0 0 0 0 0 0 0 0 0 0 0 0 0 0 0 0 0 0 0 0 0 0 0 0 0 0 0 0 0 0 0 0 0 0 0 0 0 0 0 0 0 0 0 0 0 0 0 0 0 0 0 0 0 0 0 0 0 0 0 0 0 0 0 0 0 0 0 0 0 0 0 0 0 0 0 0 0 0 0 0 0 0 0 0 0 0 0 0 0 0 0 0 0 0 0 0 0 0 0 0 0 0 0 0 0 0 0 0 0 
0 0 0 0 0 1.166430e+00 3.436944e+00 2.078549e+00 2.780295e+00 2.347117e+00 3.420132e+00 2.775829e+00 4.008200e+00 5.550940e+00 8.149029e+00 1.040668e+01 1.534949e+01 2.013683e+01 2.485168e+01 2.944107e+01 3.606273e+01 3.662067e+01 3.592767e+01 3.608325e+01 3.544580e+01 3.547673e+01 3.491729e+01 3.483275e+01 3.433919e+01 3.413849e+01 3.370872e+01 3.342370e+01 3.307690e+01 3.274898e+01 3.248293e+01 3.212447e+01 3.190298e+01 3.150308e+01 3.127702e+01 3.082747e+01 3.057710e+01 3.011890e+01 2.988369e+01 2.948339e+01 2.928456e+01 2.893862e+01 2.872384e+01 2.837715e+01 2.809992e+01 2.774371e+01 2.743352e+01 2.712876e+01 2.686296e+01 2.667674e+01 2.649873e+01 2.643312e+01 2.638485e+01 2.753918e+01 2.807377e+01 2.756465e+01 2.798568e+01 2.853348e+01 2.838497e+01 2.904497e+01 2.918926e+01 2.950263e+01 2.995478e+01 2.998452e+01 3.003181e+01 3.033477e+01 2.978921e+01 2.650530e+01 2.112963e+01 1.823908e+01 1.777156e+01 1.745152e+01 1.713482e+01 1.678410e+01 1.643009e+01 1.607233e+01 1.572457e+01 1.539183e+01 1.507938e+01 1.476123e+01 1.446947e+01 1.411569e+01 1.381232e+01 1.339077e+01 1.309499e+01 1.264545e+01 1.241642e+01 1.197553e+01 1.181145e+01 1.135714e+01 1.120654e+01 1.071322e+01 1.053094e+01 1.000779e+01 9.783982e+00 9.289669e+00 9.043177e+00 8.639863e+00 8.360107e+00 8.061272e+00 7.697734e+00 7.485472e+00 6.997510e+00 6.868228e+00 6.257460e+00 6.213018e+00 5.499498e+00 5.530830e+00 4.765806e+00 4.865779e+00 4.110284e+00 4.223424e+00 3.509011e+00 3.548743e+00 2.927008e+00 2.827314e+00 2.354872e+00 2.481949e+00 2.952573e+00 2.320080e-01 0 0 0 0 
0 0 0 0 0 3.431840e+00 1.011112e+01 6.117538e+00 8.181442e+00 6.905636e+00 1.006320e+01 8.169876e+00 1.179486e+01 1.632614e+01 2.396296e+01 3.060216e+01 4.513742e+01 5.921193e+01 7.307318e+01 8.656265e+01 1.060237e+02 1.076637e+02 1.056273e+02 1.060846e+02 1.042115e+02 1.043024e+02 1.026584e+02 1.024099e+02 1.009594e+02 1.003695e+02 9.910645e+01 9.826878e+01 9.724952e+01 9.628580e+01 9.550386e+01 9.445037e+01 9.379942e+01 9.262415e+01 9.195976e+01 9.063852e+01 8.990264e+01 8.855594e+01 8.786462e+01 8.668807e+01 8.610364e+01 8.508683e+01 8.445555e+01 8.343650e+01 8.262163e+01 8.157460e+01 8.066285e+01 7.976705e+01 7.898578e+01 7.843840e+01 7.791516e+01 7.772232e+01 7.749692e+01 8.000801e+01 8.096939e+01 7.989566e+01 7.983322e+01 7.990932e+01 7.884852e+01 7.902560e+01 7.794887e+01 7.732840e+01 7.613558e+01 7.439996e+01 7.221426e+01 6.997354e+01 6.778681e+01 6.668999e+01 5.993858e+01 5.363427e+01 5.225967e+01 5.131877e+01 5.038764e+01 4.935653e+01 4.831570e+01 4.726384e+01 4.624135e+01 4.526305e+01 4.434438e+01 4.340898e+01 4.255111e+01 4.151094e+01 4.061895e+01 3.937948e+01 3.850978e+01 3.718799e+01 3.651454e+01 3.521814e+01 3.473567e+01 3.339976e+01 3.295687e+01 3.150618e+01 3.097011e+01 2.943166e+01 2.877345e+01 2.731974e+01 2.659485e+01 2.540875e+01 2.458609e+01 2.370729e+01 2.263831e+01 2.201417e+01 2.057935e+01 2.019927e+01 1.840327e+01 1.827265e+01 1.617433e+01 1.626642e+01 1.401636e+01 1.431010e+01 1.208773e+01 1.241987e+01 1.031779e+01 1.043316e+01 8.601426e+00 8.300312e+00 6.890173e+00 7.265472e+00 8.673988e+00 6.824702e-01 0 0 0 0 
0 0 0 0 0 2.371134e+00 6.985527e+00 4.227761e+00 5.653384e+00 4.771261e+00 6.953160e+00 5.646154e+00 8.150317e+00 5.504036e+01 7.356297e+01 6.224918e+01 7.564119e+01 7.410267e+01 8.259073e+01 9.217189e+01 9.240523e+01 7.434819e+01 7.294241e+01 7.325816e+01 7.196506e+01 7.202788e+01 7.089291e+01 7.072140e+01 6.971996e+01 6.931273e+01 6.844069e+01 6.786237e+01 6.715866e+01 6.649333e+01 6.595348e+01 6.522617e+01 6.477676e+01 6.396535e+01 6.350666e+01 6.259447e+01 6.208641e+01 6.115663e+01 6.067932e+01 5.986699e+01 5.946348e+01 5.876142e+01 5.832556e+01 5.762195e+01 5.705932e+01 5.633639e+01 5.570688e+01 5.508835e+01 5.454892e+01 5.417097e+01 5.380970e+01 5.367655e+01 5.338479e+01 5.101946e+01 4.721435e+01 4.683374e+01 4.460102e+01 4.213796e+01 4.064791e+01 3.838643e+01 3.649424e+01 3.470450e+01 3.222984e+01 3.069842e+01 2.844643e+01 2.661948e+01 2.704229e+01 3.410486e+01 3.790476e+01 3.704340e+01 3.609411e+01 3.544437e+01 3.480135e+01 3.408929e+01 3.337051e+01 3.264412e+01 3.193800e+01 3.126240e+01 3.062796e+01 2.998198e+01 2.938953e+01 2.867119e+01 2.805517e+01 2.719919e+01 2.659856e+01 2.568570e+01 2.522061e+01 2.432526e+01 2.399205e+01 2.306939e+01 2.276350e+01 2.176155e+01 2.139128e+01 2.032868e+01 1.987405e+01 1.886996e+01 1.836928e+01 1.755003e+01 1.698184e+01 1.637486e+01 1.563658e+01 1.520552e+01 1.421458e+01 1.395212e+01 1.271170e+01 1.262152e+01 1.117222e+01 1.123580e+01 9.681567e+00 9.884316e+00 8.349042e+00 8.578167e+00 7.125726e+00 7.204698e+00 5.937905e+00 5.726081e+00 4.742034e+00 5.002030e+00 5.986755e+00 4.714670e-01 0 0 0 0 
0 0 0 0 0 1.057240e-01 3.113535e-01 1.887717e-01 2.522370e-01 2.127418e-01 3.100975e-01 2.521075e-01 3.636573e-01 6.164480e+01 6.743379e+01 6.328218e+01 6.579610e+01 6.526061e+01 6.376366e+01 6.719024e+01 6.166898e+01 3.305119e+00 3.242747e+00 3.256771e+00 3.199398e+00 3.202196e+00 3.151826e+00 3.144214e+00 3.099759e+00 3.081679e+00 3.042963e+00 3.017290e+00 2.986047e+00 2.956513e+00 2.932546e+00 2.900260e+00 2.880309e+00 2.844289e+00 2.823925e+00 2.783425e+00 2.760868e+00 2.719582e+00 2.698387e+00 2.662313e+00 2.644393e+00 2.613212e+00 2.593854e+00 2.562603e+00 2.537614e+00 2.505503e+00 2.477543e+00 2.450068e+00 2.426108e+00 2.409320e+00 2.393273e+00 2.387360e+00 2.269102e+00 3.040894e+00 9.619091e+00 9.208384e+00 1.065677e+01 1.291470e+01 1.279888e+01 1.450072e+01 1.460714e+01 1.491499e+01 1.557340e+01 1.462537e+01 1.443092e+01 1.384228e+01 1.219677e+01 8.428352e+00 2.192255e+00 1.648211e+00 1.605999e+00 1.577115e+00 1.548527e+00 1.516870e+00 1.484910e+00 1.452613e+00 1.421214e+00 1.391173e+00 1.362960e+00 1.334236e+00 1.307888e+00 1.275944e+00 1.248548e+00 1.210480e+00 1.183767e+00 1.143166e+00 1.122479e+00 1.082653e+00 1.067829e+00 1.026780e+00 1.013167e+00 9.685839e-01 9.521033e-01 9.048138e-01 8.845781e-01 8.398871e-01 8.176035e-01 7.811386e-01 7.558567e-01 7.288445e-01 6.960025e-01 6.768277e-01 6.327479e-01 6.210809e-01 5.658946e-01 5.618909e-01 4.973897e-01 5.002127e-01 4.310088e-01 4.399992e-01 3.715972e-01 3.817228e-01 3.169431e-01 3.202767e-01 2.634874e-01 2.530837e-01 2.067340e-01 2.185077e-01 2.653403e-01 2.100480e-02 0 0 0 0 
0 0 0 0 0 0 0 0 0 0 0 0 0 6.728297e+01 7.319599e+01 6.896470e+01 7.114857e+01 7.119291e+01 6.878034e+01 7.342312e+01 6.678608e+01 0 0 0 0 0 0 0 0 0 0 0 0 0 0 0 0 0 0 0 0 0 0 0 0 0 0 0 0 0 0 0 0 0 0 0 4.008225e-03 1.586527e+00 3.768060e+00 3.347900e+00 3.124669e+00 3.193438e+00 2.452274e+00 2.310572e+00 1.542921e+00 1.009846e+00 5.773107e-01 5.023597e-01 7.367573e-01 1.140282e+00 2.832918e+00 2.138842e+00 1.497036e-01 0 0 0 0 0 0 0 0 0 0 0 0 0 0 0 0 0 0 0 0 0 0 0 0 0 0 0 0 0 0 0 0 0 0 0 0 0 0 0 0 0 0 0 0 0 0 0 0 0 0 0 0 0 0 0 
0 0 0 0 0 0 0 0 0 0 0 0 0 6.662093e+01 6.907642e+01 6.695762e+01 6.800312e+01 6.778572e+01 6.710399e+01 6.880865e+01 6.669331e+01 0 0 0 0 0 0 0 0 0 0 0 0 0 0 0 0 0 0 0 0 0 0 0 0 0 0 0 0 0 0 0 0 0 0 0 0 2.779832e-02 6.879929e-02 5.538684e-02 3.882992e-02 3.165569e-02 1.004245e-02 9.663695e-04 1.718122e-02 2.738507e-02 3.065267e-02 3.868978e-02 2.664021e-02 1.234536e-02 4.026661e-02 4.225703e-02 7.807003e-03 0 0 0 0 0 0 0 0 0 0 0 0 0 0 0 0 0 0 0 0 0 0 0 0 0 0 0 0 0 0 0 0 0 0 0 0 0 0 0 0 0 0 0 0 0 0 0 0 0 0 0 0 0 0 0 
0 0 0 0 0 0 0 0 0 0 0 0 0 7.038316e+01 7.349095e+01 7.103187e+01 7.213140e+01 7.226935e+01 7.081554e+01 7.359434e+01 7.007291e+01 0 0 0 0 0 0 0 0 0 0 0 0 0 0 0 0 0 0 0 0 0 0 0 0 0 0 0 0 0 0 0 0 0 0 0 0 0 0 0 0 0 0 0 0 0 0 0 0 0 0 0 0 0 0 0 0 0 0 0 0 0 0 0 0 0 0 0 0 0 0 0 0 0 0 0 0 0 0 0 0 0 0 0 0 0 0 0 0 0 0 0 0 0 0 0 0 0 0 0 0 0 0 0 0 0 0 0 
0 0 0 0 0 0 0 0 0 0 0 0 0 6.662094e+01 6.907416e+01 6.695826e+01 6.800120e+01 6.778614e+01 6.710426e+01 6.880720e+01 6.669697e+01 0 0 0 0 0 0 0 0 0 0 0 0 0 0 0 0 0 0 0 0 0 0 0 0 0 0 0 0 0 0 0 0 0 0 0 0 0 0 0 0 0 0 0 0 0 0 0 0 0 0 0 0 0 0 0 0 0 0 0 0 0 0 0 0 0 0 0 0 0 0 0 0 0 0 0 0 0 0 0 0 0 0 0 0 0 0 0 0 0 0 0 0 0 0 0 0 0 0 0 0 0 0 0 0 0 0 0 
0 0 0 0 0 0 0 0 0 0 0 0 0 6.728203e+01 7.318709e+01 6.897084e+01 7.113687e+01 7.120004e+01 6.877853e+01 7.341772e+01 6.681017e+01 0 0 0 0 0 0 0 0 0 0 0 0 0 0 0 0 0 0 0 0 0 0 0 0 0 0 0 0 0 0 0 0 0 0 0 0 0 0 0 0 0 0 0 0 0 0 0 0 0 0 0 0 0 0 0 0 0 0 0 0 0 0 0 0 0 0 0 0 0 0 0 0 0 0 0 0 0 0 0 0 0 0 0 0 0 0 0 0 0 0 0 0 0 0 0 0 0 0 0 0 0 0 0 0 0 0 0 
0 0 0 0 0 1.056548e-01 3.112984e-01 1.887432e-01 2.523937e-01 2.130547e-01 3.104081e-01 2.520200e-01 3.632224e-01 6.164138e+01 6.742449e+01 6.328789e+01 6.578318e+01 6.526776e+01 6.375688e+01 6.718669e+01 6.169674e+01 3.304248e+00 3.242254e+00 3.256381e+00 3.198773e+00 3.200981e+00 3.149673e+00 3.141995e+00 3.097590e+00 3.081306e+00 3.043633e+00 3.020063e+00 2.988351e+00 2.959116e+00 2.932532e+00 2.899401e+00 2.875919e+00 2.839197e+00 2.816306e+00 2.777597e+00 2.755147e+00 2.716853e+00 2.694212e+00 2.657172e+00 2.633690e+00 2.598628e+00 2.573539e+00 2.539276e+00 2.510662e+00 2.475655e+00 2.443290e+00 2.407911e+00 2.373757e+00 2.339745e+00 2.306120e+00 2.273782e+00 2.240109e+00 2.206927e+00 2.170831e+00 2.134544e+00 2.094992e+00 2.055652e+00 2.015601e+00 1.978524e+00 1.942381e+00 1.910320e+00 1.876459e+00 1.846233e+00 1.810359e+00 1.779055e+00 1.739652e+00 1.708371e+00 1.668603e+00 1.641446e+00 1.605019e+00 1.583329e+00 1.549390e+00 1.528617e+00 1.492782e+00 1.467696e+00 1.428754e+00 1.399587e+00 1.362310e+00 1.332505e+00 1.301086e+00 1.271065e+00 1.246026e+00 1.213432e+00 1.192142e+00 1.152901e+00 1.132535e+00 1.086755e+00 1.069127e+00 1.021076e+00 1.007444e+00 9.596520e-01 9.479687e-01 9.014598e-01 8.878154e-01 8.433225e-01 8.242157e-01 7.843213e-01 7.581748e-01 7.262525e-01 6.921920e-01 6.707453e-01 6.275787e-01 6.161085e-01 5.620482e-01 5.593050e-01 4.965903e-01 5.024069e-01 4.345649e-01 4.450074e-01 3.749041e-01 3.846906e-01 3.173115e-01 3.205783e-01 2.615560e-01 2.519329e-01 2.045685e-01 2.184139e-01 2.651310e-01 2.141072e-02 0 0 0 0 
0 0 0 0 0 2.369583e+00 6.984280e+00 4.227158e+00 5.656911e+00 4.778264e+00 6.960090e+00 5.644124e+00 8.140446e+00 5.502571e+01 7.357126e+01 6.228708e+01 7.558152e+01 7.416678e+01 8.254345e+01 9.214436e+01 9.248045e+01 7.432870e+01 7.293144e+01 7.324948e+01 7.195107e+01 7.200055e+01 7.084441e+01 7.067141e+01 6.967106e+01 6.930427e+01 6.845571e+01 6.792479e+01 6.721052e+01 6.655195e+01 6.595315e+01 6.520682e+01 6.467789e+01 6.385070e+01 6.333511e+01 6.246325e+01 6.195761e+01 6.109518e+01 6.058530e+01 5.975122e+01 5.922243e+01 5.843295e+01 5.786803e+01 5.709661e+01 5.645236e+01 5.566425e+01 5.493558e+01 5.413914e+01 5.337025e+01 5.260463e+01 5.184769e+01 5.111981e+01 5.036184e+01 4.961499e+01 4.880256e+01 4.798590e+01 4.709573e+01 4.621043e+01 4.530912e+01 4.447481e+01 4.366150e+01 4.294012e+01 4.217822e+01 4.149815e+01 4.069101e+01 3.998676e+01 3.910028e+01 3.839658e+01 3.750200e+01 3.689112e+01 3.607175e+01 3.558391e+01 3.482060e+01 3.435341e+01 3.354752e+01 3.298335e+01 3.210767e+01 3.145175e+01 3.061356e+01 2.994331e+01 2.923688e+01 2.856178e+01 2.799877e+01 2.726582e+01 2.678708e+01 2.590471e+01 2.544679e+01 2.441752e+01 2.402121e+01 2.294107e+01 2.263470e+01 2.156061e+01 2.129818e+01 2.025314e+01 1.994671e+01 1.894712e+01 1.851790e+01 1.762164e+01 1.703407e+01 1.631681e+01 1.555118e+01 1.506910e+01 1.409867e+01 1.384061e+01 1.262544e+01 1.256352e+01 1.115428e+01 1.128504e+01 9.761313e+00 9.996630e+00 8.423074e+00 8.644555e+00 7.133714e+00 7.211215e+00 5.894364e+00 5.700320e+00 4.694405e+00 5.000835e+00 5.982407e+00 4.805738e-01 0 0 0 0 
0 0 0 0 0 3.429596e+00 1.010931e+01 6.116674e+00 8.186550e+00 6.915768e+00 1.007322e+01 8.166920e+00 1.178054e+01 1.628697e+01 2.394197e+01 3.060105e+01 4.512315e+01 5.918972e+01 7.310013e+01 8.648021e+01 1.060103e+02 1.076355e+02 1.056115e+02 1.060721e+02 1.041912e+02 1.042628e+02 1.025881e+02 1.023375e+02 1.008885e+02 1.003573e+02 9.912819e+01 9.835919e+01 9.732462e+01 9.637070e+01 9.550338e+01 9.442236e+01 9.365623e+01 9.245809e+01 9.171129e+01 9.044847e+01 8.971610e+01 8.846695e+01 8.772844e+01 8.652038e+01 8.575451e+01 8.461106e+01 8.379287e+01 8.267560e+01 8.174252e+01 8.060109e+01 7.954574e+01 7.839227e+01 7.727868e+01 7.616985e+01 7.507359e+01 7.401943e+01 7.292168e+01 7.184007e+01 7.066346e+01 6.948076e+01 6.819160e+01 6.690949e+01 6.560421e+01 6.439598e+01 6.321816e+01 6.217348e+01 6.107012e+01 6.008527e+01 5.891641e+01 5.789656e+01 5.661282e+01 5.559379e+01 5.429833e+01 5.341372e+01 5.222722e+01 5.152079e+01 5.041547e+01 4.973895e+01 4.857200e+01 4.775506e+01 4.648707e+01 4.553727e+01 4.432358e+01 4.335305e+01 4.233014e+01 4.135258e+01 4.053735e+01 3.947603e+01 3.878281e+01 3.750514e+01 3.684207e+01 3.535172e+01 3.477789e+01 3.321392e+01 3.277034e+01 3.121520e+01 3.083528e+01 2.932225e+01 2.887864e+01 2.743144e+01 2.681004e+01 2.551246e+01 2.466174e+01 2.362330e+01 2.251472e+01 2.181671e+01 2.041159e+01 2.003787e+01 1.827842e+01 1.818870e+01 1.614836e+01 1.633769e+01 1.413178e+01 1.447265e+01 1.219484e+01 1.251591e+01 1.032929e+01 1.044253e+01 8.538349e+00 8.263039e+00 6.821474e+00 7.263975e+00 8.667784e+00 6.956517e-01 0 0 0 0 
0 0 0 0 0 1.165667e+00 3.436328e+00 2.078259e+00 2.782032e+00 2.350559e+00 3.423533e+00 2.774816e+00 4.003320e+00 5.537614e+00 8.141896e+00 1.040632e+01 1.534464e+01 2.012929e+01 2.486085e+01 2.941302e+01 3.605818e+01 3.661109e+01 3.592229e+01 3.607900e+01 3.543893e+01 3.546326e+01 3.489339e+01 3.480811e+01 3.431508e+01 3.413431e+01 3.371612e+01 3.345446e+01 3.310245e+01 3.277787e+01 3.248276e+01 3.211493e+01 3.185426e+01 3.144659e+01 3.119249e+01 3.076281e+01 3.051363e+01 3.008862e+01 2.983735e+01 2.942634e+01 2.916577e+01 2.877674e+01 2.849838e+01 2.811827e+01 2.780081e+01 2.741249e+01 2.705345e+01 2.666103e+01 2.628218e+01 2.590496e+01 2.553202e+01 2.517340e+01 2.479995e+01 2.443200e+01 2.403174e+01 2.362940e+01 2.319085e+01 2.275471e+01 2.231069e+01 2.189969e+01 2.149904e+01 2.114368e+01 2.076835e+01 2.043335e+01 2.003576e+01 1.968886e+01 1.925220e+01 1.890558e+01 1.846494e+01 1.816405e+01 1.776048e+01 1.752021e+01 1.714426e+01 1.691416e+01 1.651726e+01 1.623941e+01 1.580815e+01 1.548511e+01 1.507233e+01 1.474224e+01 1.439435e+01 1.406187e+01 1.378461e+01 1.342364e+01 1.318787e+01 1.275333e+01 1.252782e+01 1.202096e+01 1.182580e+01 1.129393e+01 1.114309e+01 1.061424e+01 1.048506e+01 9.970567e+00 9.819741e+00 9.327647e+00 9.116355e+00 8.675141e+00 8.385851e+00 8.032737e+00 7.655736e+00 7.418356e+00 6.940494e+00 6.813373e+00 6.215026e+00 6.184486e+00 5.490669e+00 5.555060e+00 4.805034e+00 4.921027e+00 4.146675e+00 4.256046e+00 3.512884e+00 3.551897e+00 2.905541e+00 2.814652e+00 2.331638e+00 2.481554e+00 2.950507e+00 2.364886e-01 0 0 0 0 
0 0 0 0 0 0 0 0 0 0 0 0 0 0 0 0 0 0 0 0 0 0 0 0 0 0 0 0 0 0 0 0 0 0 0 0 0 0 0 0 0 0 0 0 0 0 0 0 0 0 0 0 0 0 0 0 0 0 0 0 0 0 0 0 0 0 0 0 0 0 0 0 0 0 0 0 0 0 0 0 0 0 0 0 0 0 0 0 0 0 0 0 0 0 0 0 0 0 0 0 0 0 0 0 0 0 0 0 0 0 0 0 0 0 0 0 0 0 0 0 0 0 0 0 0 0 0 0 
