# vtk DataFile Version 2.0
Comment goes here
ASCII

DATASET STRUCTURED_POINTS
FIELD FieldData 1
TIME 1 1 double
0.98000000
DIMENSIONS    128   16   1

ORIGIN    0.000   0.000   0.000
SPACING   0.0078125 0.015625   1.000

POINT_DATA   2048
SCALARS fMag double
LOOKUP_TABLE default

0 0 0 0 0 0 0 0 0 0 0 0 0 0 0 0 0 0 0 0 0 0 0 0 0 0 0 0 0 0 0 0 0 0 0 0 0 0 0 0 0 0 0 0 0 0 0 0 0 0 0 0 0 0 0 0 0 0 0 0 0 0 0 0 0 0 0 0 0 0 0 0 0 0 0 0 0 0 0 0 0 0 0 0 0 0 0 0 0 0 0 0 0 0 0 0 0 0 0 0 0 0 0 0 0 0 0 0 0 0 0 0 0 0 0 0 0 0 0 0 0 0 0 0 0 0 0 0 
0 0 0 0 0 0 0 0 0 0 0 0 0 0 0 0 0 0 0 0 0 0 0 0 0 0 0 0 0 0 0 0 0 0 0 0 0 0 0 0 0 0 0 0 0 0 0 0 0 0 0 0 0 0 0 0 0 0 0 0 0 0 0 0 0 0 0 0 0 0 0 0 0 0 0 0 0 0 0 0 0 0 0 0 0 0 0 0 0 0 0 0 0 0 0 0 0 0 0 0 0 0 0 0 0 0 0 0 0 0 0 0 0 0 0 0 0 0 0 0 0 0 0 0 0 0 0 0 
0 0 0 0 0 1.672999e+00 5.464232e-01 1.171212e+00 4.664100e-01 5.479714e-01 5.258999e-01 5.904631e-01 8.955862e-01 1.004513e+00 1.338061e+00 1.372245e+00 2.980618e+00 3.444496e+00 4.400935e+00 5.762064e+00 5.824077e+00 6.219169e+00 6.066570e+00 6.078921e+00 6.037865e+00 5.956825e+00 5.984301e+00 5.828628e+00 5.892698e+00 5.675526e+00 5.755978e+00 5.515969e+00 5.608448e+00 5.382337e+00 5.479117e+00 5.291340e+00 5.370946e+00 5.213442e+00 5.241274e+00 5.107931e+00 5.081437e+00 4.981537e+00 4.908189e+00 4.845729e+00 4.744519e+00 4.725774e+00 4.611186e+00 4.619982e+00 4.495838e+00 4.515137e+00 4.387440e+00 4.388801e+00 4.249275e+00 4.206801e+00 4.069264e+00 3.986860e+00 4.077187e+00 3.314238e+00 2.677737e+00 2.982109e+00 2.606842e+00 2.510187e+00 2.756281e+00 2.088195e+00 1.934872e+00 2.232969e+00 1.747377e+00 2.246675e+00 2.759845e+00 2.442564e+00 1.250169e+00 2.103424e+00 3.944951e+00 3.916377e+00 3.626773e+00 3.419688e+00 3.288263e+00 3.216923e+00 3.069388e+00 3.099535e+00 2.913352e+00 2.999192e+00 2.767249e+00 2.870092e+00 2.599979e+00 2.697460e+00 2.429291e+00 2.519242e+00 2.292955e+00 2.358713e+00 2.201632e+00 2.224577e+00 2.144476e+00 2.081355e+00 2.056650e+00 1.881606e+00 1.922561e+00 1.662955e+00 1.795415e+00 1.492261e+00 1.717673e+00 1.388640e+00 1.651462e+00 1.284043e+00 1.517100e+00 1.137504e+00 1.315035e+00 9.873431e-01 1.103925e+00 8.985053e-01 9.394604e-01 8.778292e-01 7.835432e-01 8.440337e-01 5.847185e-01 7.668747e-01 3.674225e-01 6.608388e-01 1.795190e-01 5.430469e-01 1.766961e-01 7.865338e-01 2.620133e-01 7.164278e-01 0 0 0 0 
0 0 0 0 0 4.920302e+00 1.612103e+00 3.455981e+00 1.371319e+00 1.614129e+00 1.547578e+00 1.737620e+00 2.634645e+00 2.954843e+00 3.935415e+00 4.036013e+00 8.766436e+00 1.013078e+01 1.294363e+01 1.694654e+01 1.712878e+01 1.829058e+01 1.784165e+01 1.787793e+01 1.775716e+01 1.751886e+01 1.759970e+01 1.714196e+01 1.733045e+01 1.669186e+01 1.692852e+01 1.622275e+01 1.649476e+01 1.582982e+01 1.611445e+01 1.556221e+01 1.579631e+01 1.533308e+01 1.541491e+01 1.502274e+01 1.494481e+01 1.465099e+01 1.443528e+01 1.425159e+01 1.395396e+01 1.389884e+01 1.356187e+01 1.358775e+01 1.322267e+01 1.327944e+01 1.290391e+01 1.290792e+01 1.249759e+01 1.237268e+01 1.196818e+01 1.172584e+01 1.208206e+01 1.072901e+01 1.022485e+01 1.075508e+01 9.745003e+00 9.542089e+00 9.916186e+00 8.698290e+00 9.051367e+00 8.819781e+00 8.711536e+00 9.349249e+00 9.579561e+00 1.094340e+01 1.199160e+01 1.381025e+01 1.275053e+01 1.151841e+01 1.066665e+01 1.005755e+01 9.671020e+00 9.461209e+00 9.027332e+00 9.116033e+00 8.568510e+00 8.821013e+00 8.138891e+00 8.441378e+00 7.646956e+00 7.933634e+00 7.144880e+00 7.409377e+00 6.743772e+00 6.937106e+00 6.475047e+00 6.542487e+00 6.306872e+00 6.121236e+00 6.048599e+00 5.533837e+00 5.654357e+00 4.890908e+00 5.280560e+00 4.388991e+00 5.051973e+00 4.084196e+00 4.857100e+00 3.776298e+00 4.461545e+00 3.344820e+00 3.866684e+00 2.902594e+00 3.245212e+00 2.640844e+00 2.761147e+00 2.579892e+00 2.302622e+00 2.480780e+00 1.718324e+00 2.254484e+00 1.079893e+00 1.942945e+00 5.262012e-01 1.589059e+00 5.068161e-01 2.278568e+00 7.868263e-01 2.107858e+00 0 0 0 0 
0 0 0 0 0 3.398599e+00 1.115988e+00 2.392692e+00 9.470330e-01 1.116159e+00 1.069396e+00 1.200742e+00 1.820176e+00 9.078992e+00 7.297058e+00 1.070184e+01 1.673726e+01 1.216723e+01 1.802444e+01 1.410240e+01 1.423720e+01 1.263383e+01 1.232367e+01 1.234871e+01 1.226529e+01 1.210070e+01 1.215656e+01 1.184043e+01 1.197065e+01 1.152961e+01 1.169311e+01 1.120566e+01 1.139356e+01 1.093429e+01 1.113089e+01 1.074945e+01 1.091114e+01 1.059117e+01 1.064768e+01 1.037679e+01 1.032295e+01 1.012000e+01 9.971010e+00 9.844132e+00 9.638556e+00 9.600493e+00 9.367747e+00 9.385636e+00 9.133478e+00 9.172699e+00 8.913315e+00 8.916090e+00 8.632669e+00 8.546391e+00 8.267000e+00 8.099604e+00 8.402020e+00 9.268985e+00 9.352420e+00 8.467179e+00 9.821464e+00 9.298567e+00 9.168264e+00 9.897685e+00 9.753627e+00 9.858128e+00 1.075029e+01 1.037210e+01 1.172148e+01 1.184024e+01 1.237914e+01 1.126608e+01 7.482621e+00 7.956212e+00 7.367912e+00 6.947164e+00 6.680167e+00 6.535243e+00 6.235564e+00 6.296851e+00 5.918681e+00 6.093114e+00 5.621965e+00 5.830913e+00 5.282173e+00 5.480183e+00 4.935336e+00 5.118008e+00 4.658210e+00 4.791722e+00 4.472524e+00 4.519086e+00 4.356322e+00 4.228099e+00 4.177937e+00 3.822396e+00 3.905678e+00 3.378366e+00 3.647553e+00 3.031724e+00 3.489686e+00 2.821172e+00 3.355011e+00 2.608363e+00 3.081597e+00 2.310083e+00 2.670426e+00 2.004332e+00 2.240867e+00 1.823302e+00 1.906328e+00 1.781131e+00 1.589625e+00 1.712808e+00 1.186250e+00 1.556804e+00 7.455750e-01 1.341766e+00 3.626078e-01 1.093711e+00 3.447816e-01 1.557297e+00 5.514185e-01 1.456367e+00 0 0 0 0 
0 0 0 0 0 1.512963e-01 5.030859e-02 1.079239e-01 4.212443e-02 5.000144e-02 4.771811e-02 5.358476e-02 8.111785e-02 1.101251e+01 1.198828e+01 1.135330e+01 1.244474e+01 1.176445e+01 1.205083e+01 1.255785e+01 1.074116e+01 5.624184e-01 5.485947e-01 5.497042e-01 5.459878e-01 5.386658e-01 5.411560e-01 5.270945e-01 5.328986e-01 5.132789e-01 5.205641e-01 4.988757e-01 5.072440e-01 4.868055e-01 4.955572e-01 4.785787e-01 4.857734e-01 4.715287e-01 4.740411e-01 4.619803e-01 4.595822e-01 4.505469e-01 4.439149e-01 4.382674e-01 4.291184e-01 4.274256e-01 4.170680e-01 4.178664e-01 4.066444e-01 4.083922e-01 3.968477e-01 3.969724e-01 3.843570e-01 3.805168e-01 3.680799e-01 3.606282e-01 3.980729e-01 3.295424e+00 2.616295e+00 2.354935e-01 2.611783e+00 1.655774e+00 1.047876e+00 2.510600e+00 1.218346e+00 1.544858e+00 1.690078e+00 6.857942e-01 1.297034e+00 1.533906e+00 1.843065e+00 3.019011e+00 3.144176e+00 3.541597e-01 3.280345e-01 3.092970e-01 2.974095e-01 2.909578e-01 2.776201e-01 2.803531e-01 2.635231e-01 2.712941e-01 2.503229e-01 2.596277e-01 2.351971e-01 2.440101e-01 2.197468e-01 2.278729e-01 2.073924e-01 2.133285e-01 1.991086e-01 2.011763e-01 1.939260e-01 1.882180e-01 1.859877e-01 1.701653e-01 1.738816e-01 1.504136e-01 1.624078e-01 1.349939e-01 1.553864e-01 1.256152e-01 1.493730e-01 1.161074e-01 1.371526e-01 1.027665e-01 1.187765e-01 8.908111e-02 9.958028e-02 8.096337e-02 8.464149e-02 7.906843e-02 7.054618e-02 7.606142e-02 5.264415e-02 6.919402e-02 3.310491e-02 5.965967e-02 1.592565e-02 4.769891e-02 1.473365e-02 6.527574e-02 2.660067e-02 6.493685e-02 0 0 0 0 
0 0 0 0 0 0 0 0 0 0 0 0 0 1.179821e+01 1.255083e+01 1.211566e+01 1.305832e+01 1.249139e+01 1.267008e+01 1.293998e+01 1.136806e+01 0 0 0 0 0 0 0 0 0 0 0 0 0 0 0 0 0 0 0 0 0 0 0 0 0 0 0 0 0 0 0 0 0 0 0 5.269754e-04 1.223326e+00 8.065812e-01 8.321225e-01 2.749690e-01 6.873925e-01 1.049543e+00 8.327632e-01 1.351792e+00 1.268161e+00 1.244859e+00 1.463326e+00 1.333895e+00 1.037239e+00 1.030353e+00 2.320860e+00 1.748386e+00 2.108169e-05 0 0 0 0 0 0 0 0 0 0 0 0 0 0 0 0 0 0 0 0 0 0 0 0 0 0 0 0 0 0 0 0 0 0 0 0 0 0 0 0 0 0 0 0 0 0 0 0 0 0 0 0 0 0 
0 0 0 0 0 0 0 0 0 0 0 0 0 1.230784e+01 1.294286e+01 1.235863e+01 1.278388e+01 1.253461e+01 1.258282e+01 1.276749e+01 1.239558e+01 0 0 0 0 0 0 0 0 0 0 0 0 0 0 0 0 0 0 0 0 0 0 0 0 0 0 0 0 0 0 0 0 0 0 0 0 1.480333e-02 6.921393e-03 5.676196e-02 6.037144e-02 6.623853e-02 7.057562e-02 6.202486e-02 5.994874e-02 4.558071e-02 2.756073e-02 1.023108e-02 1.001904e-02 4.794420e-02 5.626173e-02 2.465337e-03 1.754620e-02 0 0 0 0 0 0 0 0 0 0 0 0 0 0 0 0 0 0 0 0 0 0 0 0 0 0 0 0 0 0 0 0 0 0 0 0 0 0 0 0 0 0 0 0 0 0 0 0 0 0 0 0 0 0 0 
0 0 0 0 0 0 0 0 0 0 0 0 0 1.255907e+01 1.317569e+01 1.264320e+01 1.306940e+01 1.285362e+01 1.283031e+01 1.310637e+01 1.253702e+01 0 0 0 0 0 0 0 0 0 0 0 0 0 0 0 0 0 0 0 0 0 0 0 0 0 0 0 0 0 0 0 0 0 0 0 0 0 0 0 0 0 0 0 0 0 0 0 0 0 0 0 0 0 0 0 0 0 0 0 0 0 0 0 0 0 0 0 0 0 0 0 0 0 0 0 0 0 0 0 0 0 0 0 0 0 0 0 0 0 0 0 0 0 0 0 0 0 0 0 0 0 0 0 0 0 0 0 
0 0 0 0 0 0 0 0 0 0 0 0 0 1.230780e+01 1.294488e+01 1.235914e+01 1.278389e+01 1.253644e+01 1.258030e+01 1.276992e+01 1.239128e+01 0 0 0 0 0 0 0 0 0 0 0 0 0 0 0 0 0 0 0 0 0 0 0 0 0 0 0 0 0 0 0 0 0 0 0 0 0 0 0 0 0 0 0 0 0 0 0 0 0 0 0 0 0 0 0 0 0 0 0 0 0 0 0 0 0 0 0 0 0 0 0 0 0 0 0 0 0 0 0 0 0 0 0 0 0 0 0 0 0 0 0 0 0 0 0 0 0 0 0 0 0 0 0 0 0 0 0 
0 0 0 0 0 0 0 0 0 0 0 0 0 1.179164e+01 1.255953e+01 1.211317e+01 1.306038e+01 1.249905e+01 1.266244e+01 1.295516e+01 1.135848e+01 0 0 0 0 0 0 0 0 0 0 0 0 0 0 0 0 0 0 0 0 0 0 0 0 0 0 0 0 0 0 0 0 0 0 0 0 0 0 0 0 0 0 0 0 0 0 0 0 0 0 0 0 0 0 0 0 0 0 0 0 0 0 0 0 0 0 0 0 0 0 0 0 0 0 0 0 0 0 0 0 0 0 0 0 0 0 0 0 0 0 0 0 0 0 0 0 0 0 0 0 0 0 0 0 0 0 0 
0 0 0 0 0 1.514018e-01 5.029616e-02 1.078335e-01 4.251021e-02 4.997490e-02 4.778757e-02 5.344798e-02 8.137572e-02 1.100950e+01 1.200062e+01 1.135038e+01 1.244875e+01 1.177376e+01 1.204248e+01 1.257493e+01 1.072280e+01 5.624552e-01 5.498073e-01 5.491878e-01 5.463432e-01 5.364397e-01 5.393261e-01 5.231162e-01 5.309090e-01 5.111336e-01 5.209812e-01 4.991135e-01 5.088043e-01 4.878354e-01 4.963611e-01 4.784290e-01 4.843132e-01 4.703298e-01 4.716419e-01 4.605098e-01 4.554404e-01 4.474137e-01 4.382459e-01 4.356325e-01 4.251076e-01 4.279183e-01 4.167991e-01 4.222689e-01 4.087016e-01 4.119620e-01 3.950420e-01 3.953397e-01 3.790150e-01 3.787274e-01 3.670227e-01 3.673469e-01 3.615199e-01 3.603889e-01 3.573906e-01 3.508561e-01 3.488444e-01 3.378084e-01 3.374696e-01 3.248534e-01 3.275367e-01 3.158538e-01 3.212494e-01 3.100263e-01 3.145185e-01 3.032940e-01 3.053571e-01 2.961626e-01 2.954698e-01 2.899036e-01 2.863247e-01 2.844628e-01 2.767748e-01 2.771117e-01 2.641989e-01 2.668097e-01 2.506253e-01 2.565222e-01 2.392310e-01 2.480513e-01 2.308993e-01 2.396469e-01 2.214599e-01 2.258822e-01 2.079002e-01 2.080543e-01 1.949820e-01 1.921360e-01 1.876263e-01 1.816661e-01 1.857563e-01 1.725006e-01 1.803799e-01 1.558141e-01 1.658692e-01 1.332083e-01 1.485519e-01 1.149648e-01 1.380291e-01 1.082769e-01 1.343569e-01 1.063984e-01 1.258443e-01 9.849689e-02 1.063369e-01 8.410106e-02 8.107316e-02 7.177847e-02 6.098058e-02 6.877809e-02 4.806922e-02 6.877715e-02 3.474904e-02 6.335922e-02 1.876129e-02 4.995860e-02 1.494677e-02 6.472091e-02 2.658531e-02 6.532294e-02 0 0 0 0 
0 0 0 0 0 3.400969e+00 1.115742e+00 2.390663e+00 9.558170e-01 1.115582e+00 1.070972e+00 1.197670e+00 1.825948e+00 9.045296e+00 7.318382e+00 1.067319e+01 1.675595e+01 1.218844e+01 1.799518e+01 1.418502e+01 1.424208e+01 1.263472e+01 1.235098e+01 1.233714e+01 1.227327e+01 1.205065e+01 1.211537e+01 1.175095e+01 1.192583e+01 1.148130e+01 1.170238e+01 1.121092e+01 1.142856e+01 1.095741e+01 1.114897e+01 1.074614e+01 1.087841e+01 1.056433e+01 1.059388e+01 1.034385e+01 1.022998e+01 1.004968e+01 9.843685e+00 9.784939e+00 9.548424e+00 9.611505e+00 9.361635e+00 9.484455e+00 9.179609e+00 9.252824e+00 8.872702e+00 8.879392e+00 8.512686e+00 8.506247e+00 8.243345e+00 8.250651e+00 8.119779e+00 8.094381e+00 8.027030e+00 7.880222e+00 7.835014e+00 7.587073e+00 7.579437e+00 7.296007e+00 7.356267e+00 7.093829e+00 7.215040e+00 6.962961e+00 7.063903e+00 6.811817e+00 6.858204e+00 6.651723e+00 6.636189e+00 6.511183e+00 6.430790e+00 6.388956e+00 6.216228e+00 6.223755e+00 5.933654e+00 5.992253e+00 5.628687e+00 5.761127e+00 5.372763e+00 5.570929e+00 5.185773e+00 5.382378e+00 4.974045e+00 5.073535e+00 4.669839e+00 4.673439e+00 4.379970e+00 4.316101e+00 4.214825e+00 4.080890e+00 4.172627e+00 3.874719e+00 4.051486e+00 3.499532e+00 3.725209e+00 2.991586e+00 3.336213e+00 2.582082e+00 3.100408e+00 2.432736e+00 3.019112e+00 2.391980e+00 2.829530e+00 2.216171e+00 2.392964e+00 1.894141e+00 1.826499e+00 1.617722e+00 1.375067e+00 1.549427e+00 1.083666e+00 1.547519e+00 7.825412e-01 1.424894e+00 4.265875e-01 1.144853e+00 3.525575e-01 1.545846e+00 5.499783e-01 1.465012e+00 0 0 0 0 
0 0 0 0 0 4.923732e+00 1.611756e+00 3.453043e+00 1.384065e+00 1.613298e+00 1.549863e+00 1.733172e+00 2.642995e+00 2.941271e+00 3.942757e+00 4.039122e+00 8.756016e+00 1.015499e+01 1.292766e+01 1.696365e+01 1.717774e+01 1.829188e+01 1.788120e+01 1.786118e+01 1.776872e+01 1.744638e+01 1.754006e+01 1.701239e+01 1.726554e+01 1.662189e+01 1.694192e+01 1.623035e+01 1.654542e+01 1.586329e+01 1.614063e+01 1.555744e+01 1.574894e+01 1.529425e+01 1.533705e+01 1.497508e+01 1.481023e+01 1.454919e+01 1.425095e+01 1.416590e+01 1.382346e+01 1.391477e+01 1.355300e+01 1.373080e+01 1.328944e+01 1.339543e+01 1.284510e+01 1.285478e+01 1.232389e+01 1.231457e+01 1.193396e+01 1.194454e+01 1.175508e+01 1.171831e+01 1.162080e+01 1.140826e+01 1.134281e+01 1.098384e+01 1.097278e+01 1.056244e+01 1.064967e+01 1.026973e+01 1.044522e+01 1.008028e+01 1.022642e+01 9.861481e+00 9.928648e+00 9.629730e+00 9.607249e+00 9.426279e+00 9.309891e+00 9.249323e+00 8.999249e+00 9.010137e+00 8.590133e+00 8.674958e+00 8.148605e+00 8.340338e+00 7.778100e+00 8.065003e+00 7.507428e+00 7.792089e+00 7.200979e+00 7.345053e+00 6.760666e+00 6.765912e+00 6.341088e+00 6.248639e+00 6.102023e+00 5.908106e+00 6.040882e+00 5.609552e+00 5.865408e+00 5.066287e+00 5.392960e+00 4.330874e+00 4.829796e+00 3.738094e+00 4.488556e+00 3.522105e+00 4.371163e+00 3.463466e+00 4.097113e+00 3.209366e+00 3.465491e+00 2.743491e+00 2.645657e+00 2.343405e+00 1.992078e+00 2.244304e+00 1.569855e+00 2.241063e+00 1.133419e+00 2.063299e+00 6.188980e-01 1.663197e+00 5.188191e-01 2.262284e+00 7.844583e-01 2.120366e+00 0 0 0 0 
0 0 0 0 0 1.674166e+00 5.463095e-01 1.170213e+00 4.707581e-01 5.476913e-01 5.266787e-01 5.889507e-01 8.984231e-01 9.998948e-01 1.340555e+00 1.373300e+00 2.977070e+00 3.452724e+00 4.395501e+00 5.767883e+00 5.840734e+00 6.219620e+00 6.080025e+00 6.073230e+00 6.041796e+00 5.932175e+00 5.964013e+00 5.784559e+00 5.870612e+00 5.651719e+00 5.760519e+00 5.518543e+00 5.625670e+00 5.393717e+00 5.488022e+00 5.289723e+00 5.354850e+00 5.200250e+00 5.214811e+00 5.091738e+00 5.035688e+00 4.946929e+00 4.845516e+00 4.816589e+00 4.700143e+00 4.731183e+00 4.608162e+00 4.668611e+00 4.518530e+00 4.554566e+00 4.367438e+00 4.370731e+00 4.190215e+00 4.187050e+00 4.057638e+00 4.061240e+00 3.996821e+00 3.984320e+00 3.951166e+00 3.878894e+00 3.856636e+00 3.734576e+00 3.730812e+00 3.591284e+00 3.620944e+00 3.491755e+00 3.551425e+00 3.427342e+00 3.477038e+00 3.352958e+00 3.375801e+00 3.274170e+00 3.266529e+00 3.205000e+00 3.165426e+00 3.144830e+00 3.059796e+00 3.063493e+00 2.920679e+00 2.949515e+00 2.770543e+00 2.835733e+00 2.644568e+00 2.742125e+00 2.552554e+00 2.649358e+00 2.448394e+00 2.497401e+00 2.298727e+00 2.300527e+00 2.156101e+00 2.124674e+00 2.074825e+00 2.008883e+00 2.054012e+00 1.907334e+00 1.994302e+00 1.722569e+00 1.833621e+00 1.472496e+00 1.642135e+00 1.270977e+00 1.526176e+00 1.197645e+00 1.486408e+00 1.177884e+00 1.393426e+00 1.091692e+00 1.178864e+00 9.334513e-01 9.002318e-01 7.974619e-01 6.779912e-01 7.636550e-01 5.342585e-01 7.623210e-01 3.856265e-01 7.017643e-01 2.110718e-01 5.683023e-01 1.811300e-01 7.811453e-01 2.610701e-01 7.206773e-01 0 0 0 0 
0 0 0 0 0 0 0 0 0 0 0 0 0 0 0 0 0 0 0 0 0 0 0 0 0 0 0 0 0 0 0 0 0 0 0 0 0 0 0 0 0 0 0 0 0 0 0 0 0 0 0 0 0 0 0 0 0 0 0 0 0 0 0 0 0 0 0 0 0 0 0 0 0 0 0 0 0 0 0 0 0 0 0 0 0 0 0 0 0 0 0 0 0 0 0 0 0 0 0 0 0 0 0 0 0 0 0 0 0 0 0 0 0 0 0 0 0 0 0 0 0 0 0 0 0 0 0 0 
