# vtk DataFile Version 2.0
Comment goes here
ASCII

DATASET STRUCTURED_POINTS
FIELD FieldData 1
TIME 1 1 double
0.49000000
DIMENSIONS    128   16   1

ORIGIN    0.000   0.000   0.000
SPACING   0.0078125 0.015625   1.000

POINT_DATA   2048
SCALARS fMag double
LOOKUP_TABLE default

0 0 0 0 0 0 0 0 0 0 0 0 0 0 0 0 0 0 0 0 0 0 0 0 0 0 0 0 0 0 0 0 0 0 0 0 0 0 0 0 0 0 0 0 0 0 0 0 0 0 0 0 0 0 0 0 0 0 0 0 0 0 0 0 0 0 0 0 0 0 0 0 0 0 0 0 0 0 0 0 0 0 0 0 0 0 0 0 0 0 0 0 0 0 0 0 0 0 0 0 0 0 0 0 0 0 0 0 0 0 0 0 0 0 0 0 0 0 0 0 0 0 0 0 0 0 0 0 
0 0 0 0 0 0 0 0 0 0 0 0 0 0 0 0 0 0 0 0 0 0 0 0 0 0 0 0 0 0 0 0 0 0 0 0 0 0 0 0 0 0 0 0 0 0 0 0 0 0 0 0 0 0 0 0 0 0 0 0 0 0 0 0 0 0 0 0 0 0 0 0 0 0 0 0 0 0 0 0 0 0 0 0 0 0 0 0 0 0 0 0 0 0 0 0 0 0 0 0 0 0 0 0 0 0 0 0 0 0 0 0 0 0 0 0 0 0 0 0 0 0 0 0 0 0 0 0 
0 0 0 0 0 1.122773e+00 2.454257e+00 1.938702e+00 1.925752e+00 1.756280e+00 2.408186e+00 2.082138e+00 2.975342e+00 4.030102e+00 5.804161e+00 7.150618e+00 1.120077e+01 1.441920e+01 1.786088e+01 2.150155e+01 2.561564e+01 2.623912e+01 2.580146e+01 2.595716e+01 2.557169e+01 2.554428e+01 2.518697e+01 2.494609e+01 2.452437e+01 2.409193e+01 2.376013e+01 2.345334e+01 2.343870e+01 2.332168e+01 2.341482e+01 2.320520e+01 2.311448e+01 2.267901e+01 2.237192e+01 2.181920e+01 2.145795e+01 2.102111e+01 2.084536e+01 2.072792e+01 2.078707e+01 2.081220e+01 2.076054e+01 2.057501e+01 2.026153e+01 1.994324e+01 1.958819e+01 1.929440e+01 1.894652e+01 1.863542e+01 1.828061e+01 1.798896e+01 1.771018e+01 1.758160e+01 1.812436e+01 1.850457e+01 1.876357e+01 1.917688e+01 1.893304e+01 1.855886e+01 1.800316e+01 1.732156e+01 1.695516e+01 1.710341e+01 1.747540e+01 1.804844e+01 1.856644e+01 1.792227e+01 1.602949e+01 1.433114e+01 1.365515e+01 1.303333e+01 1.251367e+01 1.215597e+01 1.189514e+01 1.184683e+01 1.170001e+01 1.166933e+01 1.137349e+01 1.119644e+01 1.078529e+01 1.055678e+01 1.013912e+01 9.832422e+00 9.373299e+00 8.997282e+00 8.681825e+00 8.454041e+00 8.427487e+00 8.296213e+00 8.374248e+00 8.123390e+00 8.111181e+00 7.603892e+00 7.394813e+00 6.691931e+00 6.476928e+00 5.938969e+00 5.982715e+00 5.746972e+00 5.870402e+00 5.651383e+00 5.496291e+00 5.149319e+00 4.726211e+00 4.445538e+00 3.926124e+00 3.836294e+00 3.289697e+00 3.440610e+00 2.915845e+00 3.185831e+00 2.504637e+00 2.618798e+00 1.800349e+00 1.868696e+00 1.292102e+00 1.854541e+00 1.617437e+00 5.701267e-01 0 0 0 0 
0 0 0 0 0 3.302885e+00 7.216452e+00 5.699312e+00 5.665262e+00 5.167946e+00 7.086119e+00 6.128167e+00 8.755076e+00 1.185381e+01 1.706851e+01 2.102848e+01 3.293954e+01 4.240291e+01 5.252230e+01 6.322525e+01 7.531926e+01 7.715209e+01 7.586563e+01 7.632328e+01 7.519016e+01 7.510956e+01 7.405920e+01 7.335110e+01 7.211140e+01 7.084023e+01 6.986488e+01 6.896308e+01 6.892006e+01 6.857609e+01 6.884993e+01 6.823376e+01 6.796710e+01 6.668696e+01 6.578422e+01 6.415935e+01 6.309739e+01 6.181315e+01 6.129648e+01 6.095121e+01 6.112508e+01 6.119898e+01 6.104710e+01 6.050165e+01 5.958009e+01 5.864435e+01 5.760058e+01 5.673684e+01 5.571412e+01 5.479949e+01 5.375638e+01 5.289891e+01 5.210716e+01 5.200670e+01 5.340556e+01 5.415929e+01 5.486764e+01 5.569285e+01 5.502662e+01 5.392184e+01 5.171862e+01 4.946525e+01 4.803341e+01 4.762221e+01 4.821138e+01 4.943808e+01 5.012600e+01 4.957618e+01 4.643801e+01 4.214444e+01 4.015685e+01 3.832848e+01 3.680050e+01 3.574870e+01 3.498177e+01 3.483971e+01 3.440799e+01 3.431779e+01 3.344787e+01 3.292725e+01 3.171826e+01 3.104630e+01 2.981813e+01 2.891625e+01 2.756612e+01 2.646041e+01 2.553275e+01 2.486293e+01 2.478487e+01 2.439886e+01 2.462836e+01 2.389068e+01 2.385477e+01 2.236296e+01 2.174807e+01 1.968096e+01 1.904859e+01 1.746638e+01 1.759489e+01 1.690143e+01 1.726427e+01 1.662003e+01 1.616388e+01 1.514341e+01 1.389919e+01 1.307381e+01 1.154643e+01 1.128242e+01 9.675089e+00 1.011909e+01 8.575815e+00 9.369763e+00 7.365913e+00 7.700463e+00 5.289795e+00 5.479932e+00 3.747103e+00 5.399868e+00 4.737322e+00 1.677328e+00 0 0 0 0 
0 0 0 0 0 2.281790e+00 4.983875e+00 3.935511e+00 3.913948e+00 3.570970e+00 4.896352e+00 4.235129e+00 6.049609e+00 3.945450e+01 4.948908e+01 4.475690e+01 5.659063e+01 5.288132e+01 6.160928e+01 6.514767e+01 6.500101e+01 5.328285e+01 5.239458e+01 5.271057e+01 5.192816e+01 5.187249e+01 5.114721e+01 5.065827e+01 4.980225e+01 4.892453e+01 4.825105e+01 4.762837e+01 4.759868e+01 4.736119e+01 4.755029e+01 4.712484e+01 4.694072e+01 4.605677e+01 4.543342e+01 4.431142e+01 4.357811e+01 4.269130e+01 4.233452e+01 4.209610e+01 4.221615e+01 4.226718e+01 4.216231e+01 4.178565e+01 4.114928e+01 4.050312e+01 3.978235e+01 3.918590e+01 3.847966e+01 3.784805e+01 3.712773e+01 3.653559e+01 3.598081e+01 3.535128e+01 3.385855e+01 3.364079e+01 3.387120e+01 3.320982e+01 3.261761e+01 3.094643e+01 2.871310e+01 2.655203e+01 2.472564e+01 2.378691e+01 2.370110e+01 2.364913e+01 2.392642e+01 2.684973e+01 2.960659e+01 2.910871e+01 2.773606e+01 2.647334e+01 2.541809e+01 2.469168e+01 2.416202e+01 2.406391e+01 2.376575e+01 2.370345e+01 2.310265e+01 2.274308e+01 2.190809e+01 2.144399e+01 2.059574e+01 1.997284e+01 1.904035e+01 1.827667e+01 1.763596e+01 1.717335e+01 1.711944e+01 1.685284e+01 1.701136e+01 1.650188e+01 1.647708e+01 1.544670e+01 1.502198e+01 1.359419e+01 1.315738e+01 1.206446e+01 1.215316e+01 1.167411e+01 1.192464e+01 1.147960e+01 1.116451e+01 1.045963e+01 9.600276e+00 9.030205e+00 7.975310e+00 7.793028e+00 6.682904e+00 6.989668e+00 5.923713e+00 6.472077e+00 5.087740e+00 5.318241e+00 3.651374e+00 3.777439e+00 2.562564e+00 3.703584e+00 3.262734e+00 1.158862e+00 0 0 0 0 
0 0 0 0 0 1.016778e-01 2.216802e-01 1.749011e-01 1.744369e-01 1.593041e-01 2.184190e-01 1.891007e-01 2.698756e-01 4.453827e+01 4.865796e+01 4.568370e+01 4.795009e+01 4.721609e+01 4.649445e+01 4.882949e+01 4.444959e+01 2.369874e+00 2.330417e+00 2.344451e+00 2.309689e+00 2.307212e+00 2.274984e+00 2.253259e+00 2.215222e+00 2.176228e+00 2.146304e+00 2.118641e+00 2.117326e+00 2.106777e+00 2.115184e+00 2.096283e+00 2.088103e+00 2.048826e+00 2.021126e+00 1.971264e+00 1.938675e+00 1.899260e+00 1.883403e+00 1.872805e+00 1.878139e+00 1.880407e+00 1.875746e+00 1.859004e+00 1.830722e+00 1.802000e+00 1.769964e+00 1.743451e+00 1.712059e+00 1.683982e+00 1.651961e+00 1.625636e+00 1.573818e+00 3.765823e-01 3.268940e+00 3.661399e+00 3.859549e+00 5.278167e+00 4.950146e+00 6.078742e+00 6.275781e+00 6.674083e+00 7.320666e+00 7.232992e+00 7.721743e+00 7.890214e+00 7.568726e+00 6.489361e+00 2.210465e+00 1.295405e+00 1.234359e+00 1.178196e+00 1.131262e+00 1.098950e+00 1.075390e+00 1.071027e+00 1.057764e+00 1.054993e+00 1.028266e+00 1.012270e+00 9.751211e-01 9.544730e-01 9.167309e-01 8.890171e-01 8.475239e-01 8.135465e-01 7.850363e-01 7.644540e-01 7.620575e-01 7.501979e-01 7.572546e-01 7.345861e-01 7.334822e-01 6.876283e-01 6.687227e-01 6.051692e-01 5.857185e-01 5.370561e-01 5.409858e-01 5.196439e-01 5.307760e-01 5.109518e-01 4.969217e-01 4.655394e-01 4.273003e-01 4.019327e-01 3.549994e-01 3.469059e-01 2.975129e-01 3.111893e-01 2.637438e-01 2.881453e-01 2.264628e-01 2.365763e-01 1.619286e-01 1.662028e-01 1.075626e-01 1.582597e-01 1.428493e-01 5.166088e-02 0 0 0 0 
0 0 0 0 0 0 0 0 0 0 0 0 0 4.852524e+01 5.256162e+01 4.974011e+01 5.163205e+01 5.132485e+01 4.995540e+01 5.295969e+01 4.793418e+01 0 0 0 0 0 0 0 0 0 0 0 0 0 0 0 0 0 0 0 0 0 0 0 0 0 0 0 0 0 0 0 0 0 0 0 1.046745e-02 5.950690e-01 1.866497e+00 1.576148e+00 1.556953e+00 1.866176e+00 1.366673e+00 1.569499e+00 1.149421e+00 9.662853e-01 8.417732e-01 3.816107e-01 5.614835e-01 1.869596e-01 4.586411e-01 8.823137e-01 8.794574e-01 0 0 0 0 0 0 0 0 0 0 0 0 0 0 0 0 0 0 0 0 0 0 0 0 0 0 0 0 0 0 0 0 0 0 0 0 0 0 0 0 0 0 0 0 0 0 0 0 0 0 0 0 0 0 0 
0 0 0 0 0 0 0 0 0 0 0 0 0 4.841435e+01 5.028261e+01 4.864591e+01 4.952748e+01 4.925518e+01 4.885226e+01 5.001871e+01 4.847838e+01 0 0 0 0 0 0 0 0 0 0 0 0 0 0 0 0 0 0 0 0 0 0 0 0 0 0 0 0 0 0 0 0 0 0 0 4.303520e-04 2.393905e-02 6.338642e-02 5.699724e-02 5.144453e-02 4.943286e-02 2.770118e-02 2.049915e-02 2.140142e-03 1.020484e-02 2.132266e-02 3.401324e-02 2.826241e-02 4.682709e-02 5.412344e-02 9.854208e-03 8.614798e-03 0 0 0 0 0 0 0 0 0 0 0 0 0 0 0 0 0 0 0 0 0 0 0 0 0 0 0 0 0 0 0 0 0 0 0 0 0 0 0 0 0 0 0 0 0 0 0 0 0 0 0 0 0 0 0 
0 0 0 0 0 0 0 0 0 0 0 0 0 5.090012e+01 5.314821e+01 5.133716e+01 5.224732e+01 5.221105e+01 5.128741e+01 5.316392e+01 5.063626e+01 0 0 0 0 0 0 0 0 0 0 0 0 0 0 0 0 0 0 0 0 0 0 0 0 0 0 0 0 0 0 0 0 0 0 0 0 0 0 0 0 0 0 0 0 0 0 0 0 0 0 0 0 0 0 0 0 0 0 0 0 0 0 0 0 0 0 0 0 0 0 0 0 0 0 0 0 0 0 0 0 0 0 0 0 0 0 0 0 0 0 0 0 0 0 0 0 0 0 0 0 0 0 0 0 0 0 0 
0 0 0 0 0 0 0 0 0 0 0 0 0 4.843175e+01 5.029925e+01 4.865619e+01 4.953229e+01 4.925947e+01 4.884541e+01 5.001748e+01 4.846550e+01 0 0 0 0 0 0 0 0 0 0 0 0 0 0 0 0 0 0 0 0 0 0 0 0 0 0 0 0 0 0 0 0 0 0 0 0 0 0 0 0 0 0 0 0 0 0 0 0 0 0 0 0 0 0 0 0 0 0 0 0 0 0 0 0 0 0 0 0 0 0 0 0 0 0 0 0 0 0 0 0 0 0 0 0 0 0 0 0 0 0 0 0 0 0 0 0 0 0 0 0 0 0 0 0 0 0 0 
0 0 0 0 0 0 0 0 0 0 0 0 0 4.854090e+01 5.259609e+01 4.974952e+01 5.164263e+01 5.133329e+01 4.994637e+01 5.295634e+01 4.792744e+01 0 0 0 0 0 0 0 0 0 0 0 0 0 0 0 0 0 0 0 0 0 0 0 0 0 0 0 0 0 0 0 0 0 0 0 0 0 0 0 0 0 0 0 0 0 0 0 0 0 0 0 0 0 0 0 0 0 0 0 0 0 0 0 0 0 0 0 0 0 0 0 0 0 0 0 0 0 0 0 0 0 0 0 0 0 0 0 0 0 0 0 0 0 0 0 0 0 0 0 0 0 0 0 0 0 0 0 
0 0 0 0 0 1.020395e-01 2.204744e-01 1.732332e-01 1.828331e-01 1.645023e-01 2.237245e-01 1.892134e-01 2.717008e-01 4.459360e+01 4.871684e+01 4.571099e+01 4.796270e+01 4.722949e+01 4.644965e+01 4.881875e+01 4.437555e+01 2.364500e+00 2.329291e+00 2.346650e+00 2.312886e+00 2.300062e+00 2.255655e+00 2.226127e+00 2.197819e+00 2.178673e+00 2.170589e+00 2.150374e+00 2.142035e+00 2.114112e+00 2.107549e+00 2.082482e+00 2.078436e+00 2.050437e+00 2.034711e+00 1.995779e+00 1.966455e+00 1.923548e+00 1.889181e+00 1.852506e+00 1.825269e+00 1.809268e+00 1.800440e+00 1.801692e+00 1.792015e+00 1.781471e+00 1.751363e+00 1.725107e+00 1.686893e+00 1.658219e+00 1.621658e+00 1.593732e+00 1.563717e+00 1.542973e+00 1.526216e+00 1.512413e+00 1.500564e+00 1.480425e+00 1.462724e+00 1.435476e+00 1.416596e+00 1.388055e+00 1.365722e+00 1.331638e+00 1.303595e+00 1.270893e+00 1.244615e+00 1.216400e+00 1.187336e+00 1.162699e+00 1.139406e+00 1.134675e+00 1.126890e+00 1.132823e+00 1.114413e+00 1.100188e+00 1.054677e+00 1.023007e+00 9.720050e-01 9.460963e-01 9.086086e-01 8.953322e-01 8.769797e-01 8.783010e-01 8.795681e-01 8.813437e-01 8.771893e-01 8.498939e-01 8.244175e-01 7.700298e-01 7.379682e-01 6.747980e-01 6.520921e-01 5.997516e-01 6.044718e-01 5.787708e-01 6.054158e-01 5.850751e-01 5.938512e-01 5.488946e-01 5.234712e-01 4.684573e-01 4.345637e-01 4.018442e-01 3.759550e-01 3.724581e-01 3.498985e-01 3.664117e-01 3.301590e-01 3.419454e-01 2.747827e-01 2.785273e-01 2.067249e-01 2.287754e-01 1.750569e-01 1.991797e-01 1.427688e-01 1.799790e-01 1.502029e-01 5.168957e-02 0 0 0 0 
0 0 0 0 0 2.289904e+00 4.956674e+00 3.897561e+00 4.102328e+00 3.687832e+00 5.015643e+00 4.237672e+00 6.090633e+00 3.938580e+01 4.939893e+01 4.470263e+01 5.653432e+01 5.286516e+01 6.148661e+01 6.517899e+01 6.510482e+01 5.316186e+01 5.236922e+01 5.276006e+01 5.200009e+01 5.171151e+01 5.071209e+01 5.004749e+01 4.941041e+01 4.897947e+01 4.879748e+01 4.834243e+01 4.815468e+01 4.752616e+01 4.737840e+01 4.681419e+01 4.672310e+01 4.609301e+01 4.573912e+01 4.486308e+01 4.420321e+01 4.323781e+01 4.246451e+01 4.163940e+01 4.102656e+01 4.066659e+01 4.046796e+01 4.049609e+01 4.027836e+01 4.004115e+01 3.936377e+01 3.877309e+01 3.791342e+01 3.726842e+01 3.644601e+01 3.581786e+01 3.514275e+01 3.467616e+01 3.429928e+01 3.398883e+01 3.372234e+01 3.326938e+01 3.287129e+01 3.225851e+01 3.183392e+01 3.119209e+01 3.068988e+01 2.992346e+01 2.929286e+01 2.855755e+01 2.796670e+01 2.733231e+01 2.667881e+01 2.612493e+01 2.560120e+01 2.549481e+01 2.531980e+01 2.545316e+01 2.503927e+01 2.471949e+01 2.369644e+01 2.298453e+01 2.183818e+01 2.125586e+01 2.041339e+01 2.011505e+01 1.970267e+01 1.973243e+01 1.976093e+01 1.980084e+01 1.970743e+01 1.909380e+01 1.852117e+01 1.729864e+01 1.657804e+01 1.515836e+01 1.464810e+01 1.347208e+01 1.357827e+01 1.300107e+01 1.360016e+01 1.314355e+01 1.334124e+01 1.233174e+01 1.176084e+01 1.052541e+01 9.764008e+00 9.029124e+00 8.447296e+00 8.368422e+00 7.861122e+00 8.231452e+00 7.416426e+00 7.680717e+00 6.171713e+00 6.256011e+00 4.644377e+00 5.142910e+00 3.946217e+00 4.518561e+00 3.355234e+00 4.197723e+00 3.428997e+00 1.159502e+00 0 0 0 0 
0 0 0 0 0 3.314629e+00 7.177043e+00 5.644247e+00 5.937932e+00 5.337155e+00 7.258850e+00 6.131850e+00 8.814473e+00 1.189553e+01 1.700370e+01 2.091167e+01 3.278522e+01 4.230205e+01 5.241240e+01 6.310989e+01 7.519044e+01 7.697686e+01 7.582889e+01 7.639495e+01 7.529433e+01 7.487641e+01 7.342902e+01 7.246651e+01 7.154389e+01 7.091978e+01 7.065620e+01 6.999716e+01 6.972524e+01 6.881498e+01 6.860096e+01 6.778386e+01 6.765193e+01 6.673944e+01 6.622692e+01 6.495825e+01 6.400264e+01 6.260460e+01 6.148473e+01 6.028985e+01 5.940236e+01 5.888108e+01 5.859343e+01 5.863416e+01 5.831885e+01 5.797533e+01 5.699439e+01 5.613903e+01 5.489413e+01 5.396010e+01 5.276917e+01 5.185955e+01 5.088194e+01 5.020629e+01 4.966055e+01 4.921098e+01 4.882510e+01 4.816919e+01 4.759274e+01 4.670540e+01 4.609058e+01 4.516120e+01 4.443399e+01 4.332421e+01 4.241109e+01 4.134637e+01 4.049082e+01 3.957224e+01 3.862599e+01 3.782398e+01 3.706565e+01 3.691159e+01 3.665817e+01 3.685127e+01 3.625197e+01 3.578896e+01 3.430765e+01 3.327687e+01 3.161708e+01 3.077394e+01 2.955416e+01 2.912221e+01 2.852515e+01 2.856826e+01 2.860953e+01 2.866732e+01 2.853206e+01 2.764357e+01 2.681445e+01 2.504435e+01 2.400100e+01 2.194548e+01 2.120672e+01 1.950406e+01 1.965784e+01 1.882223e+01 1.968969e+01 1.902873e+01 1.931508e+01 1.785366e+01 1.702720e+01 1.523870e+01 1.413637e+01 1.307247e+01 1.223007e+01 1.211580e+01 1.138122e+01 1.191721e+01 1.073709e+01 1.111959e+01 8.934862e+00 9.056951e+00 6.724041e+00 7.446603e+00 5.716636e+00 6.552977e+00 4.895145e+00 6.116767e+00 4.978300e+00 1.678254e+00 0 0 0 0 
0 0 0 0 0 1.126765e+00 2.440843e+00 1.919919e+00 2.018437e+00 1.813825e+00 2.466931e+00 2.083392e+00 2.995541e+00 4.044271e+00 5.782118e+00 7.110901e+00 1.114830e+01 1.438491e+01 1.782351e+01 2.146232e+01 2.557183e+01 2.617951e+01 2.578896e+01 2.598154e+01 2.560712e+01 2.546496e+01 2.497259e+01 2.464515e+01 2.433130e+01 2.411898e+01 2.402931e+01 2.380511e+01 2.371259e+01 2.340293e+01 2.333012e+01 2.305215e+01 2.300727e+01 2.269686e+01 2.252252e+01 2.209096e+01 2.176589e+01 2.129033e+01 2.090940e+01 2.050296e+01 2.020107e+01 2.002376e+01 1.992591e+01 1.993976e+01 1.983250e+01 1.971566e+01 1.938199e+01 1.909104e+01 1.866759e+01 1.834989e+01 1.794482e+01 1.763542e+01 1.730291e+01 1.707310e+01 1.688748e+01 1.673457e+01 1.660332e+01 1.638023e+01 1.618417e+01 1.588237e+01 1.567326e+01 1.535716e+01 1.510983e+01 1.473239e+01 1.442183e+01 1.405972e+01 1.376874e+01 1.345633e+01 1.313451e+01 1.286176e+01 1.260385e+01 1.255145e+01 1.246527e+01 1.253094e+01 1.232712e+01 1.216966e+01 1.166589e+01 1.131535e+01 1.075090e+01 1.046418e+01 1.004938e+01 9.902494e+00 9.699469e+00 9.714138e+00 9.728175e+00 9.747827e+00 9.701825e+00 9.399661e+00 9.117698e+00 8.515731e+00 8.160925e+00 7.461925e+00 7.210703e+00 6.631730e+00 6.684038e+00 6.399931e+00 6.694954e+00 6.470253e+00 6.567684e+00 6.070818e+00 5.789830e+00 5.181746e+00 4.806930e+00 4.445196e+00 4.158728e+00 4.119833e+00 3.869996e+00 4.052168e+00 3.650820e+00 3.780823e+00 3.037932e+00 3.079467e+00 2.286389e+00 2.532469e+00 1.945476e+00 2.233596e+00 1.682679e+00 2.099021e+00 1.699506e+00 5.704413e-01 0 0 0 0 
0 0 0 0 0 0 0 0 0 0 0 0 0 0 0 0 0 0 0 0 0 0 0 0 0 0 0 0 0 0 0 0 0 0 0 0 0 0 0 0 0 0 0 0 0 0 0 0 0 0 0 0 0 0 0 0 0 0 0 0 0 0 0 0 0 0 0 0 0 0 0 0 0 0 0 0 0 0 0 0 0 0 0 0 0 0 0 0 0 0 0 0 0 0 0 0 0 0 0 0 0 0 0 0 0 0 0 0 0 0 0 0 0 0 0 0 0 0 0 0 0 0 0 0 0 0 0 0 
