# vtk DataFile Version 2.0
Comment goes here
ASCII

DATASET STRUCTURED_POINTS
FIELD FieldData 1
TIME 1 1 double
0.83000000
DIMENSIONS    128   16   1

ORIGIN    0.000   0.000   0.000
SPACING   0.0078125 0.015625   1.000

POINT_DATA   2048
SCALARS fX double
LOOKUP_TABLE default

0 0 0 0 0 0 0 0 0 0 0 0 0 0 0 0 0 0 0 0 0 0 0 0 0 0 0 0 0 0 0 0 0 0 0 0 0 0 0 0 0 0 0 0 0 0 0 0 0 0 0 0 0 0 0 0 0 0 0 0 0 0 0 0 0 0 0 0 0 0 0 0 0 0 0 0 0 0 0 0 0 0 0 0 0 0 0 0 0 0 0 0 0 0 0 0 0 0 0 0 0 0 0 0 0 0 0 0 0 0 0 0 0 0 0 0 0 0 0 0 0 0 0 0 0 0 0 0 
0 0 0 0 0 0 0 0 0 0 0 0 0 0 0 0 0 0 0 0 0 0 0 0 0 0 0 0 0 0 0 0 0 0 0 0 0 0 0 0 0 0 0 0 0 0 0 0 0 0 0 0 0 0 0 0 0 0 0 0 0 0 0 0 0 0 0 0 0 0 0 0 0 0 0 0 0 0 0 0 0 0 0 0 0 0 0 0 0 0 0 0 0 0 0 0 0 0 0 0 0 0 0 0 0 0 0 0 0 0 0 0 0 0 0 0 0 0 0 0 0 0 0 0 0 0 0 0 
0 0 0 0 0 -1.712710e+00 3.901609e-01 1.193646e+00 -1.608499e-01 3.381233e-01 -6.568398e-02 2.506697e-01 -6.719468e-01 -9.462045e-01 -1.123494e+00 -1.126413e+00 -1.791832e+00 -1.153067e+00 -1.709966e+00 -1.345602e+00 -5.391890e-01 -6.413165e-01 1.747055e-01 4.980602e-02 1.590098e-01 5.507660e-02 1.563920e-01 5.907150e-02 1.516078e-01 6.269381e-02 1.459559e-01 6.781722e-02 1.405762e-01 7.478730e-02 1.360937e-01 8.355113e-02 1.328042e-01 9.387458e-02 1.307969e-01 1.050992e-01 1.295675e-01 1.164190e-01 1.281465e-01 1.270489e-01 1.261390e-01 1.367620e-01 1.244635e-01 1.463277e-01 1.248640e-01 1.569627e-01 1.293342e-01 1.703258e-01 1.404509e-01 1.872438e-01 1.587042e-01 1.721665e-01 1.133835e+00 1.240652e+00 -8.173306e-01 -1.059082e-01 1.151603e+00 7.533950e-01 1.227702e+00 1.499552e+00 1.575511e+00 2.066638e+00 2.174432e+00 2.819404e+00 2.770164e+00 3.394213e+00 2.423355e+00 -2.024200e+00 -1.110662e+00 1.057013e+00 2.119093e-01 2.409357e-01 2.048768e-01 2.094890e-01 1.937113e-01 1.880249e-01 1.870656e-01 1.769767e-01 1.844633e-01 1.730583e-01 1.844737e-01 1.733887e-01 1.851488e-01 1.748706e-01 1.853099e-01 1.752137e-01 1.846318e-01 1.734208e-01 1.837512e-01 1.697215e-01 1.834961e-01 1.644049e-01 1.842115e-01 1.572262e-01 1.857395e-01 1.480126e-01 1.876622e-01 1.373824e-01 1.899024e-01 1.264936e-01 1.923384e-01 1.169245e-01 1.944053e-01 1.098632e-01 1.947909e-01 1.067400e-01 1.921730e-01 1.090759e-01 1.856578e-01 1.183307e-01 1.745460e-01 1.348708e-01 1.586799e-01 1.574458e-01 1.414135e-01 1.824516e-01 2.153776e-01 5.790593e-01 -2.790156e-01 -1.741586e-01 0 0 0 0 
0 0 0 0 0 -5.038081e+00 1.139660e+00 3.497424e+00 -4.810473e-01 9.917992e-01 -1.944030e-01 7.367372e-01 -1.976499e+00 -2.783016e+00 -3.304448e+00 -3.313046e+00 -5.270382e+00 -3.391523e+00 -5.029593e+00 -3.957632e+00 -1.585534e+00 -1.885897e+00 5.143435e-01 1.468803e-01 4.680343e-01 1.622548e-01 4.602134e-01 1.738966e-01 4.460428e-01 1.844685e-01 4.293531e-01 1.994920e-01 4.134999e-01 2.199835e-01 4.003172e-01 2.457770e-01 3.906642e-01 2.761695e-01 3.847883e-01 3.092114e-01 3.811928e-01 3.425233e-01 3.770194e-01 3.737909e-01 3.711064e-01 4.023474e-01 3.661609e-01 4.304631e-01 3.673179e-01 4.617240e-01 3.804479e-01 5.010139e-01 4.131337e-01 5.507665e-01 4.668174e-01 5.064156e-01 3.429724e+00 3.776227e+00 -2.883919e+00 -3.060906e-01 3.947572e+00 1.946180e+00 2.655269e+00 2.851715e+00 2.363088e+00 2.772603e+00 1.937143e+00 2.741143e+00 8.868867e-01 1.632087e+00 -1.000367e-01 -9.133181e+00 -3.352318e+00 3.109077e+00 6.233125e-01 7.086795e-01 6.025949e-01 6.161431e-01 5.697264e-01 5.530000e-01 5.501831e-01 5.205164e-01 5.425477e-01 5.090130e-01 5.426006e-01 5.100073e-01 5.446062e-01 5.143836e-01 5.450940e-01 5.154025e-01 5.431054e-01 5.101289e-01 5.405108e-01 4.992386e-01 5.397478e-01 4.835854e-01 5.418357e-01 4.624557e-01 5.463204e-01 4.353536e-01 5.519860e-01 4.041140e-01 5.586234e-01 3.721617e-01 5.658906e-01 3.441490e-01 5.721300e-01 3.235621e-01 5.734604e-01 3.145732e-01 5.659420e-01 3.215950e-01 5.468747e-01 3.488440e-01 5.141271e-01 3.973229e-01 4.671719e-01 4.633165e-01 4.159607e-01 5.369548e-01 6.376268e-01 1.710283e+00 -8.172019e-01 -5.120943e-01 0 0 0 0 
0 0 0 0 0 -3.480432e+00 7.834138e-01 2.409428e+00 -3.361443e-01 6.837936e-01 -1.348741e-01 5.086517e-01 -1.365371e+00 -8.523945e+00 -6.743255e+00 -1.047978e+01 -1.530104e+01 -1.070405e+01 -1.480864e+01 -1.077475e+01 -3.994530e+00 -1.302539e+00 3.555310e-01 1.016488e-01 3.234721e-01 1.122071e-01 3.180108e-01 1.201965e-01 3.081741e-01 1.274594e-01 2.966134e-01 1.378150e-01 2.856479e-01 1.519654e-01 2.765424e-01 1.697909e-01 2.698851e-01 1.907990e-01 2.658399e-01 2.136368e-01 2.633662e-01 2.366561e-01 2.604862e-01 2.582559e-01 2.563977e-01 2.779761e-01 2.529729e-01 2.973881e-01 2.537620e-01 3.189729e-01 2.628231e-01 3.461062e-01 2.853961e-01 3.804702e-01 3.224773e-01 3.498317e-01 2.440556e+00 2.188553e+00 -2.575050e+00 3.497744e-03 2.748071e+00 8.532734e-01 9.183857e-01 4.639527e-01 -1.921373e-01 -5.906563e-01 -1.823432e+00 -1.713265e+00 -4.058455e+00 -3.675366e+00 -4.587608e+00 -8.239648e+00 -1.781767e+00 2.148003e+00 4.305821e-01 4.895478e-01 4.162549e-01 4.256052e-01 3.935368e-01 3.819821e-01 3.800384e-01 3.595491e-01 3.747732e-01 3.516134e-01 3.748206e-01 3.523111e-01 3.762156e-01 3.553427e-01 3.765593e-01 3.560512e-01 3.751884e-01 3.524083e-01 3.733941e-01 3.448809e-01 3.728609e-01 3.340605e-01 3.742953e-01 3.194573e-01 3.773884e-01 3.007346e-01 3.813072e-01 2.791683e-01 3.859156e-01 2.571327e-01 3.909852e-01 2.378465e-01 3.953727e-01 2.237139e-01 3.963868e-01 2.176001e-01 3.912813e-01 2.225240e-01 3.781565e-01 2.413605e-01 3.555039e-01 2.747660e-01 3.229285e-01 3.201561e-01 2.873468e-01 3.710668e-01 4.424636e-01 1.184866e+00 -5.628250e-01 -3.536668e-01 0 0 0 0 
0 0 0 0 0 -1.550610e-01 3.391495e-02 1.056498e-01 -1.594699e-02 3.011774e-02 -6.155094e-03 2.258420e-02 -6.081933e-02 -1.071550e+01 -1.181275e+01 -1.110594e+01 -1.217164e+01 -1.148346e+01 -1.171518e+01 -1.198473e+01 -1.033864e+01 -5.795851e-02 1.589294e-02 4.574425e-03 1.444754e-02 5.028893e-03 1.418940e-02 5.371364e-03 1.373916e-02 5.684679e-03 1.321622e-02 6.140207e-03 1.272420e-02 6.769214e-03 1.231888e-02 7.565095e-03 1.202514e-02 8.504155e-03 1.184847e-02 9.524571e-03 1.174083e-02 1.055180e-02 1.161332e-02 1.151396e-02 1.143023e-02 1.239068e-02 1.127555e-02 1.325273e-02 1.130813e-02 1.421159e-02 1.170941e-02 1.541811e-02 1.271327e-02 1.694751e-02 1.436409e-02 1.558252e-02 1.442470e-01 -6.144104e-01 -8.732095e-01 -2.176257e-02 -3.491164e-01 -5.923430e-01 -7.162006e-01 -1.069394e+00 -1.085982e+00 -1.357359e+00 -1.545199e+00 -1.539896e+00 -2.011180e+00 -1.562446e+00 -1.775645e+00 -1.033310e+00 5.018197e-01 9.603297e-02 1.917891e-02 2.180392e-02 1.853680e-02 1.895104e-02 1.752168e-02 1.700695e-02 1.692094e-02 1.600942e-02 1.668879e-02 1.565868e-02 1.669366e-02 1.569252e-02 1.675822e-02 1.582971e-02 1.677526e-02 1.586245e-02 1.671491e-02 1.570021e-02 1.663446e-02 1.536382e-02 1.660915e-02 1.488001e-02 1.667103e-02 1.422782e-02 1.680757e-02 1.339372e-02 1.698341e-02 1.243662e-02 1.719458e-02 1.146448e-02 1.743294e-02 1.062193e-02 1.764802e-02 1.001496e-02 1.771733e-02 9.766953e-03 1.751229e-02 1.000487e-02 1.693957e-02 1.084717e-02 1.592280e-02 1.231391e-02 1.443659e-02 1.428538e-02 1.279960e-02 1.656359e-02 2.021448e-02 5.364183e-02 -2.463866e-02 -1.573110e-02 0 0 0 0 
0 0 0 0 0 0 0 0 0 0 0 0 0 -1.156982e+01 -1.231753e+01 -1.189834e+01 -1.278858e+01 -1.223237e+01 -1.238974e+01 -1.262894e+01 -1.110292e+01 0 0 0 0 0 0 0 0 0 0 0 0 0 0 0 0 0 0 0 0 0 0 0 0 0 0 0 0 0 0 0 0 0 0 0 -4.195952e-04 -2.684498e-01 -3.658593e-01 -2.247291e-01 -3.001592e-01 -2.523953e-01 -2.069063e-01 -1.814635e-01 -1.068803e-01 -6.113244e-02 4.130462e-02 9.613999e-02 1.663324e-01 3.571777e-01 2.941117e-01 9.507952e-02 3.879714e-02 9.421359e-05 0 0 0 0 0 0 0 0 0 0 0 0 0 0 0 0 0 0 0 0 0 0 0 0 0 0 0 0 0 0 0 0 0 0 0 0 0 0 0 0 0 0 0 0 0 0 0 0 0 0 0 0 0 0 
0 0 0 0 0 0 0 0 0 0 0 0 0 -1.212069e+01 -1.264398e+01 -1.216928e+01 -1.250665e+01 -1.234344e+01 -1.231311e+01 -1.259208e+01 -1.212908e+01 0 0 0 0 0 0 0 0 0 0 0 0 0 0 0 0 0 0 0 0 0 0 0 0 0 0 0 0 0 0 0 0 0 0 0 0 -1.061930e-03 -1.111592e-03 7.136925e-04 1.059330e-03 4.364658e-04 1.133846e-04 -2.801397e-04 -6.117948e-04 -3.947665e-04 3.609766e-04 1.032274e-03 2.335593e-03 6.383698e-03 5.540025e-03 -2.276822e-03 -3.133451e-03 0 0 0 0 0 0 0 0 0 0 0 0 0 0 0 0 0 0 0 0 0 0 0 0 0 0 0 0 0 0 0 0 0 0 0 0 0 0 0 0 0 0 0 0 0 0 0 0 0 0 0 0 0 0 0 
0 0 0 0 0 0 0 0 0 0 0 0 0 -1.236219e+01 -1.285577e+01 -1.243841e+01 -1.277521e+01 -1.264445e+01 -1.254701e+01 -1.291413e+01 -1.225736e+01 0 0 0 0 0 0 0 0 0 0 0 0 0 0 0 0 0 0 0 0 0 0 0 0 0 0 0 0 0 0 0 0 0 0 0 0 0 0 0 0 0 0 0 0 0 0 0 0 0 0 0 0 0 0 0 0 0 0 0 0 0 0 0 0 0 0 0 0 0 0 0 0 0 0 0 0 0 0 0 0 0 0 0 0 0 0 0 0 0 0 0 0 0 0 0 0 0 0 0 0 0 0 0 0 0 0 0 
0 0 0 0 0 0 0 0 0 0 0 0 0 -1.212019e+01 -1.264599e+01 -1.217045e+01 -1.250804e+01 -1.234702e+01 -1.231367e+01 -1.259814e+01 -1.213052e+01 0 0 0 0 0 0 0 0 0 0 0 0 0 0 0 0 0 0 0 0 0 0 0 0 0 0 0 0 0 0 0 0 0 0 0 0 0 0 0 0 0 0 0 0 0 0 0 0 0 0 0 0 0 0 0 0 0 0 0 0 0 0 0 0 0 0 0 0 0 0 0 0 0 0 0 0 0 0 0 0 0 0 0 0 0 0 0 0 0 0 0 0 0 0 0 0 0 0 0 0 0 0 0 0 0 0 0 
0 0 0 0 0 0 0 0 0 0 0 0 0 -1.156429e+01 -1.232573e+01 -1.189747e+01 -1.279175e+01 -1.224130e+01 -1.238910e+01 -1.264720e+01 -1.110945e+01 0 0 0 0 0 0 0 0 0 0 0 0 0 0 0 0 0 0 0 0 0 0 0 0 0 0 0 0 0 0 0 0 0 0 0 0 0 0 0 0 0 0 0 0 0 0 0 0 0 0 0 0 0 0 0 0 0 0 0 0 0 0 0 0 0 0 0 0 0 0 0 0 0 0 0 0 0 0 0 0 0 0 0 0 0 0 0 0 0 0 0 0 0 0 0 0 0 0 0 0 0 0 0 0 0 0 0 
0 0 0 0 0 -1.551912e-01 3.395962e-02 1.059404e-01 -1.590756e-02 3.026037e-02 -6.316062e-03 2.235904e-02 -6.163379e-02 -1.070817e+01 -1.182407e+01 -1.110685e+01 -1.217694e+01 -1.149433e+01 -1.171071e+01 -1.200137e+01 -1.033505e+01 -5.934876e-02 1.407569e-02 2.773508e-03 1.283257e-02 3.500009e-03 1.300983e-02 4.260342e-03 1.304444e-02 4.956580e-03 1.286576e-02 5.585015e-03 1.240530e-02 6.033505e-03 1.160828e-02 6.261591e-03 1.056450e-02 6.392355e-03 9.498609e-03 6.614495e-03 8.610812e-03 7.015189e-03 7.947254e-03 7.528901e-03 7.428050e-03 8.023016e-03 6.972834e-03 8.430116e-03 6.608077e-03 8.804244e-03 6.451526e-03 9.260185e-03 6.625598e-03 9.906761e-03 7.218971e-03 1.085582e-02 8.368875e-03 1.228123e-02 8.446924e-03 1.213866e-02 1.040694e-02 1.306979e-02 1.181095e-02 1.423484e-02 1.308716e-02 1.516203e-02 1.420649e-02 1.548328e-02 1.474486e-02 1.437685e-02 1.390936e-02 1.076460e-02 1.155507e-02 1.154729e-02 1.176877e-02 1.152412e-02 1.213793e-02 1.172131e-02 1.262080e-02 1.210838e-02 1.301936e-02 1.249302e-02 1.317053e-02 1.272648e-02 1.304986e-02 1.279728e-02 1.279407e-02 1.280610e-02 1.260489e-02 1.284710e-02 1.261122e-02 1.290650e-02 1.280513e-02 1.287005e-02 1.311268e-02 1.264388e-02 1.351715e-02 1.224250e-02 1.406524e-02 1.174460e-02 1.477704e-02 1.119996e-02 1.557212e-02 1.060940e-02 1.630044e-02 9.997412e-03 1.682724e-02 9.472624e-03 1.705823e-02 9.184532e-03 1.688207e-02 9.241880e-03 1.615584e-02 9.716119e-03 1.479620e-02 1.069064e-02 1.291123e-02 1.224770e-02 1.107784e-02 1.444027e-02 1.876688e-02 5.187989e-02 -2.489731e-02 -1.560113e-02 0 0 0 0 
0 0 0 0 0 -3.483355e+00 7.844180e-01 2.415954e+00 -3.352656e-01 6.869882e-01 -1.384983e-01 5.035812e-01 -1.383681e+00 -8.495442e+00 -6.768122e+00 -1.046343e+01 -1.530971e+01 -1.073393e+01 -1.477977e+01 -1.086811e+01 -4.046217e+00 -1.333841e+00 3.146665e-01 6.116815e-02 2.871804e-01 7.785554e-02 2.915106e-01 9.524271e-02 2.925693e-01 1.111111e-01 2.887444e-01 1.253483e-01 2.784829e-01 1.354369e-01 2.605690e-01 1.404993e-01 2.370555e-01 1.433429e-01 2.130340e-01 1.482476e-01 1.930400e-01 1.572017e-01 1.781314e-01 1.687473e-01 1.665139e-01 1.799011e-01 1.563690e-01 1.891282e-01 1.482681e-01 1.976159e-01 1.448343e-01 2.079202e-01 1.487992e-01 2.224768e-01 1.621452e-01 2.437952e-01 1.879569e-01 2.757836e-01 1.896834e-01 2.725542e-01 2.336625e-01 2.934391e-01 2.651713e-01 3.195918e-01 2.938261e-01 3.404196e-01 3.189732e-01 3.476521e-01 3.310816e-01 3.228278e-01 3.123353e-01 2.417289e-01 2.594743e-01 2.592996e-01 2.642708e-01 2.587763e-01 2.725539e-01 2.631950e-01 2.833859e-01 2.718744e-01 2.923245e-01 2.805012e-01 2.957120e-01 2.857387e-01 2.930010e-01 2.873284e-01 2.872586e-01 2.875272e-01 2.830105e-01 2.884464e-01 2.831495e-01 2.897774e-01 2.875009e-01 2.889606e-01 2.944114e-01 2.838928e-01 3.035052e-01 2.748927e-01 3.158162e-01 2.637009e-01 3.317590e-01 2.513905e-01 3.494757e-01 2.379289e-01 3.655548e-01 2.238346e-01 3.769612e-01 2.115644e-01 3.816305e-01 2.045680e-01 3.771882e-01 2.054510e-01 3.606149e-01 2.160218e-01 3.302491e-01 2.383547e-01 2.887059e-01 2.744107e-01 2.486911e-01 3.233879e-01 4.099805e-01 1.145356e+00 -5.686046e-01 -3.507483e-01 0 0 0 0 
0 0 0 0 0 -5.042313e+00 1.141114e+00 3.506871e+00 -4.797768e-01 9.964216e-01 -1.996520e-01 7.293933e-01 -2.003011e+00 -2.792976e+00 -3.343893e+00 -3.340331e+00 -5.312867e+00 -3.445025e+00 -5.070396e+00 -4.035615e+00 -1.646228e+00 -1.931232e+00 4.551711e-01 8.826813e-02 4.154896e-01 1.125205e-01 4.218470e-01 1.377708e-01 4.234512e-01 1.608022e-01 4.179617e-01 1.814446e-01 4.031265e-01 1.960539e-01 3.771891e-01 2.033674e-01 3.431304e-01 2.074604e-01 3.083337e-01 2.145396e-01 2.793745e-01 2.274908e-01 2.577898e-01 2.442074e-01 2.409823e-01 2.603691e-01 2.263155e-01 2.737485e-01 2.146111e-01 2.860579e-01 2.096608e-01 3.009917e-01 2.154149e-01 3.220740e-01 2.347407e-01 3.529376e-01 2.721047e-01 3.992408e-01 2.745975e-01 3.945586e-01 3.382555e-01 4.247866e-01 3.838645e-01 4.626444e-01 4.253462e-01 4.927978e-01 4.617535e-01 5.032728e-01 4.792873e-01 4.673411e-01 4.521529e-01 3.499417e-01 3.756297e-01 3.753769e-01 3.825728e-01 3.746184e-01 3.945622e-01 3.810129e-01 4.102404e-01 3.935745e-01 4.231775e-01 4.060605e-01 4.280798e-01 4.136414e-01 4.241548e-01 4.159427e-01 4.158422e-01 4.162306e-01 4.096924e-01 4.175610e-01 4.098928e-01 4.194871e-01 4.161915e-01 4.183051e-01 4.261964e-01 4.109713e-01 4.393641e-01 3.979456e-01 4.571871e-01 3.817409e-01 4.802563e-01 3.638993e-01 5.058693e-01 3.443607e-01 5.290762e-01 3.238676e-01 5.454814e-01 3.059813e-01 5.521095e-01 2.957189e-01 5.455549e-01 2.968944e-01 5.214950e-01 3.121774e-01 4.775780e-01 3.446220e-01 4.176368e-01 3.970958e-01 3.600023e-01 4.679324e-01 5.906083e-01 1.653100e+00 -8.255615e-01 -5.078692e-01 0 0 0 0 
0 0 0 0 0 -1.714149e+00 3.906554e-01 1.196858e+00 -1.604188e-01 3.396939e-01 -6.746980e-02 2.481711e-01 -6.809634e-01 -9.495941e-01 -1.136909e+00 -1.135694e+00 -1.806282e+00 -1.171265e+00 -1.723850e+00 -1.372128e+00 -5.598364e-01 -6.567401e-01 1.545804e-01 2.987348e-02 1.411418e-01 3.816501e-02 1.433463e-01 4.678844e-02 1.439263e-01 5.464766e-02 1.420830e-01 6.168132e-02 1.370488e-01 6.665050e-02 1.282283e-01 6.912971e-02 1.166395e-01 7.050987e-02 1.047983e-01 7.290647e-02 9.494529e-02 7.730439e-02 8.760571e-02 8.298910e-02 8.189645e-02 8.849108e-02 7.691934e-02 9.305045e-02 7.295101e-02 9.724616e-02 7.127801e-02 1.023316e-01 7.324124e-02 1.095040e-01 7.981448e-02 1.199982e-01 9.251665e-02 1.357384e-01 9.336096e-02 1.341430e-01 1.149999e-01 1.444173e-01 1.305042e-01 1.572875e-01 1.446072e-01 1.675403e-01 1.569868e-01 1.711040e-01 1.629505e-01 1.588901e-01 1.537269e-01 1.189774e-01 1.277105e-01 1.276245e-01 1.300708e-01 1.273663e-01 1.341462e-01 1.295392e-01 1.394753e-01 1.338085e-01 1.438724e-01 1.380523e-01 1.455383e-01 1.406291e-01 1.442037e-01 1.414115e-01 1.413777e-01 1.415095e-01 1.392868e-01 1.419616e-01 1.393545e-01 1.426161e-01 1.414957e-01 1.422145e-01 1.448978e-01 1.397224e-01 1.493760e-01 1.352954e-01 1.554361e-01 1.297846e-01 1.632744e-01 1.237087e-01 1.719657e-01 1.170412e-01 1.798219e-01 1.100304e-01 1.853474e-01 1.038895e-01 1.875372e-01 1.003355e-01 1.852488e-01 1.006854e-01 1.770360e-01 1.058718e-01 1.621250e-01 1.169579e-01 1.418421e-01 1.349328e-01 1.223891e-01 1.589848e-01 1.993947e-01 5.596241e-01 -2.818542e-01 -1.727221e-01 0 0 0 0 
0 0 0 0 0 0 0 0 0 0 0 0 0 0 0 0 0 0 0 0 0 0 0 0 0 0 0 0 0 0 0 0 0 0 0 0 0 0 0 0 0 0 0 0 0 0 0 0 0 0 0 0 0 0 0 0 0 0 0 0 0 0 0 0 0 0 0 0 0 0 0 0 0 0 0 0 0 0 0 0 0 0 0 0 0 0 0 0 0 0 0 0 0 0 0 0 0 0 0 0 0 0 0 0 0 0 0 0 0 0 0 0 0 0 0 0 0 0 0 0 0 0 0 0 0 0 0 0 
