# vtk DataFile Version 2.0
Comment goes here
ASCII

DATASET STRUCTURED_POINTS
FIELD FieldData 1
TIME 1 1 double
0.65000000
DIMENSIONS    128   16   1

ORIGIN    0.000   0.000   0.000
SPACING   0.0078125 0.015625   1.000

POINT_DATA   2048
SCALARS fY double
LOOKUP_TABLE default

0 0 0 0 0 0 0 0 0 0 0 0 0 0 0 0 0 0 0 0 0 0 0 0 0 0 0 0 0 0 0 0 0 0 0 0 0 0 0 0 0 0 0 0 0 0 0 0 0 0 0 0 0 0 0 0 0 0 0 0 0 0 0 0 0 0 0 0 0 0 0 0 0 0 0 0 0 0 0 0 0 0 0 0 0 0 0 0 0 0 0 0 0 0 0 0 0 0 0 0 0 0 0 0 0 0 0 0 0 0 0 0 0 0 0 0 0 0 0 0 0 0 0 0 0 0 0 0 
0 0 0 0 0 0 0 0 0 0 0 0 0 0 0 0 0 0 0 0 0 0 0 0 0 0 0 0 0 0 0 0 0 0 0 0 0 0 0 0 0 0 0 0 0 0 0 0 0 0 0 0 0 0 0 0 0 0 0 0 0 0 0 0 0 0 0 0 0 0 0 0 0 0 0 0 0 0 0 0 0 0 0 0 0 0 0 0 0 0 0 0 0 0 0 0 0 0 0 0 0 0 0 0 0 0 0 0 0 0 0 0 0 0 0 0 0 0 0 0 0 0 0 0 0 0 0 0 
0 0 0 0 0 1.120232e+00 1.995650e+00 1.557747e+00 2.722484e+00 2.110993e+00 3.350370e+00 2.594772e+00 3.852455e+00 2.216745e+00 -4.538911e+00 -8.872189e+00 -1.396485e+01 -1.926461e+01 -2.419479e+01 -2.864931e+01 -3.566494e+01 -3.662205e+01 -3.596357e+01 -3.616363e+01 -3.550339e+01 -3.546470e+01 -3.478536e+01 -3.462825e+01 -3.412670e+01 -3.403984e+01 -3.377351e+01 -3.367045e+01 -3.342817e+01 -3.312671e+01 -3.279588e+01 -3.231906e+01 -3.194632e+01 -3.139210e+01 -3.106821e+01 -3.060073e+01 -3.044902e+01 -3.012714e+01 -3.003483e+01 -2.968614e+01 -2.948299e+01 -2.905942e+01 -2.877275e+01 -2.834825e+01 -2.803139e+01 -2.765200e+01 -2.735535e+01 -2.708973e+01 -2.688424e+01 -2.675858e+01 -2.660565e+01 -2.652567e+01 -2.644313e+01 -2.754458e+01 -2.828590e+01 -2.785856e+01 -2.828645e+01 -2.894976e+01 -2.905449e+01 -2.957330e+01 -2.961624e+01 -2.991406e+01 -3.018800e+01 -3.016864e+01 -3.008976e+01 -3.022395e+01 -2.963563e+01 -2.560457e+01 -2.010461e+01 -1.806350e+01 -1.769462e+01 -1.731874e+01 -1.699299e+01 -1.665567e+01 -1.632094e+01 -1.596739e+01 -1.564480e+01 -1.535519e+01 -1.512633e+01 -1.486538e+01 -1.461189e+01 -1.423421e+01 -1.390652e+01 -1.343622e+01 -1.310937e+01 -1.260913e+01 -1.234992e+01 -1.189748e+01 -1.177021e+01 -1.138753e+01 -1.130999e+01 -1.086617e+01 -1.066399e+01 -1.008678e+01 -9.767447e+00 -9.215865e+00 -8.913474e+00 -8.499372e+00 -8.184481e+00 -7.889556e+00 -7.532837e+00 -7.385294e+00 -6.948472e+00 -6.857014e+00 -6.230908e+00 -6.152568e+00 -5.418444e+00 -5.440034e+00 -4.702265e+00 -4.795581e+00 -4.071106e+00 -4.153726e+00 -3.484328e+00 -3.475252e+00 -2.909756e+00 -2.677990e+00 -2.288501e+00 -1.681234e+00 -1.955930e+00 2.007557e-01 0 0 0 0 
0 0 0 0 0 3.293907e+00 5.862823e+00 4.572619e+00 8.003241e+00 6.206857e+00 9.850792e+00 7.626818e+00 1.132390e+01 6.512293e+00 -1.335487e+01 -2.610126e+01 -4.108293e+01 -5.667746e+01 -7.118473e+01 -8.429548e+01 -1.049456e+02 -1.077622e+02 -1.058237e+02 -1.064125e+02 -1.044688e+02 -1.043548e+02 -1.023550e+02 -1.018925e+02 -1.004161e+02 -1.001605e+02 -9.937656e+01 -9.907321e+01 -9.836006e+01 -9.747268e+01 -9.649887e+01 -9.509529e+01 -9.399812e+01 -9.236674e+01 -9.141338e+01 -9.003737e+01 -8.959081e+01 -8.864336e+01 -8.837166e+01 -8.734537e+01 -8.674742e+01 -8.550075e+01 -8.465700e+01 -8.340764e+01 -8.247503e+01 -8.135844e+01 -8.048534e+01 -7.970359e+01 -7.909880e+01 -7.872898e+01 -7.827886e+01 -7.804345e+01 -7.763788e+01 -7.958491e+01 -8.124362e+01 -8.052486e+01 -8.041268e+01 -8.083386e+01 -8.007312e+01 -7.979823e+01 -7.864308e+01 -7.781369e+01 -7.620580e+01 -7.456704e+01 -7.217898e+01 -7.023419e+01 -6.752290e+01 -6.255873e+01 -5.633082e+01 -5.314101e+01 -5.205552e+01 -5.094948e+01 -4.999095e+01 -4.899840e+01 -4.801349e+01 -4.697319e+01 -4.602404e+01 -4.517190e+01 -4.449852e+01 -4.373071e+01 -4.298486e+01 -4.187361e+01 -4.090946e+01 -3.952572e+01 -3.856408e+01 -3.709227e+01 -3.632966e+01 -3.499852e+01 -3.462413e+01 -3.349829e+01 -3.327023e+01 -3.196458e+01 -3.136984e+01 -2.967181e+01 -2.873243e+01 -2.710985e+01 -2.622029e+01 -2.500215e+01 -2.407577e+01 -2.320817e+01 -2.215867e+01 -2.172456e+01 -2.043938e+01 -2.017023e+01 -1.832825e+01 -1.809773e+01 -1.593816e+01 -1.600173e+01 -1.383169e+01 -1.410647e+01 -1.197585e+01 -1.221945e+01 -1.025129e+01 -1.022587e+01 -8.565101e+00 -7.889612e+00 -6.760569e+00 -4.974185e+00 -5.761736e+00 5.904185e-01 0 0 0 0 
0 0 0 0 0 2.274859e+00 4.046527e+00 3.154215e+00 5.526331e+00 4.286492e+00 6.802941e+00 5.265927e+00 7.818755e+00 9.278207e+00 -1.285095e+01 -1.217350e+01 -3.386325e+01 -3.307105e+01 -5.511585e+01 -5.380804e+01 -7.629488e+01 -7.446195e+01 -7.312200e+01 -7.352894e+01 -7.218540e+01 -7.210659e+01 -7.072436e+01 -7.040470e+01 -6.938431e+01 -6.920763e+01 -6.866583e+01 -6.845618e+01 -6.796330e+01 -6.734998e+01 -6.667693e+01 -6.570683e+01 -6.494853e+01 -6.382100e+01 -6.316209e+01 -6.221107e+01 -6.190244e+01 -6.124763e+01 -6.105986e+01 -6.035057e+01 -5.993733e+01 -5.907576e+01 -5.849264e+01 -5.762922e+01 -5.698470e+01 -5.621305e+01 -5.560966e+01 -5.506941e+01 -5.465144e+01 -5.439587e+01 -5.408479e+01 -5.392210e+01 -5.343435e+01 -5.039183e+01 -4.698752e+01 -4.679974e+01 -4.499227e+01 -4.246276e+01 -4.051989e+01 -3.835877e+01 -3.617131e+01 -3.404362e+01 -3.138445e+01 -2.941545e+01 -2.735054e+01 -2.554163e+01 -2.323548e+01 -2.683384e+01 -3.421994e+01 -3.671391e+01 -3.596383e+01 -3.519956e+01 -3.453725e+01 -3.385142e+01 -3.317090e+01 -3.245209e+01 -3.179627e+01 -3.120747e+01 -3.074221e+01 -3.021169e+01 -2.969635e+01 -2.892854e+01 -2.826237e+01 -2.730630e+01 -2.664187e+01 -2.562497e+01 -2.509807e+01 -2.417838e+01 -2.391972e+01 -2.314189e+01 -2.298436e+01 -2.208233e+01 -2.167146e+01 -2.049837e+01 -1.984939e+01 -1.872846e+01 -1.811390e+01 -1.727237e+01 -1.663235e+01 -1.603296e+01 -1.530786e+01 -1.500791e+01 -1.411997e+01 -1.393397e+01 -1.266138e+01 -1.250209e+01 -1.101016e+01 -1.105411e+01 -9.555075e+00 -9.745036e+00 -8.273387e+00 -8.441944e+00 -7.082736e+00 -7.065794e+00 -5.919800e+00 -5.456193e+00 -4.684301e+00 -3.450195e+00 -3.984326e+00 4.078170e-01 0 0 0 0 
0 0 0 0 0 1.011839e-01 1.793533e-01 1.393431e-01 2.455739e-01 1.906276e-01 3.025200e-01 2.338805e-01 3.473077e-01 3.675959e+00 -4.321483e+00 4.699352e+00 -6.897085e+00 4.377448e+00 -7.935213e+00 2.158169e+00 -5.855857e+00 -3.321800e+00 -3.261908e+00 -3.280081e+00 -3.220029e+00 -3.216498e+00 -3.154735e+00 -3.140452e+00 -3.094869e+00 -3.086979e+00 -3.062780e+00 -3.053417e+00 -3.031402e+00 -3.004001e+00 -2.973936e+00 -2.930596e+00 -2.896723e+00 -2.846353e+00 -2.816921e+00 -2.774442e+00 -2.760656e+00 -2.731410e+00 -2.723023e+00 -2.691348e+00 -2.672895e+00 -2.634423e+00 -2.608385e+00 -2.569834e+00 -2.541055e+00 -2.506604e+00 -2.479663e+00 -2.455543e+00 -2.436881e+00 -2.425471e+00 -2.411581e+00 -2.404316e+00 -2.235568e+00 2.988057e+00 9.534292e+00 9.444980e+00 1.026679e+01 1.261970e+01 1.310168e+01 1.405662e+01 1.448210e+01 1.488352e+01 1.496563e+01 1.462801e+01 1.382649e+01 1.316594e+01 1.178202e+01 7.590357e+00 1.672218e+00 -1.636391e+00 -1.602924e+00 -1.568828e+00 -1.539285e+00 -1.508692e+00 -1.478340e+00 -1.446279e+00 -1.417030e+00 -1.390770e+00 -1.370021e+00 -1.346360e+00 -1.323379e+00 -1.289137e+00 -1.259431e+00 -1.216797e+00 -1.187171e+00 -1.141829e+00 -1.118337e+00 -1.077336e+00 -1.065806e+00 -1.031136e+00 -1.024119e+00 -9.839186e-01 -9.656116e-01 -9.133361e-01 -8.844161e-01 -8.344699e-01 -8.070834e-01 -7.695879e-01 -7.410615e-01 -7.143501e-01 -6.820244e-01 -6.686480e-01 -6.290601e-01 -6.207578e-01 -5.640326e-01 -5.569261e-01 -4.904472e-01 -4.924129e-01 -4.256487e-01 -4.341466e-01 -3.686411e-01 -3.762201e-01 -3.157783e-01 -3.151808e-01 -2.644552e-01 -2.445716e-01 -2.122334e-01 -1.572446e-01 -1.785204e-01 1.815424e-02 0 0 0 0 
0 0 0 0 0 0 0 0 0 0 0 0 0 2.142261e+00 -6.391043e-01 2.156428e+00 -1.629576e+00 1.816010e+00 -2.041297e+00 8.306251e-01 -2.023695e+00 0 0 0 0 0 0 0 0 0 0 0 0 0 0 0 0 0 0 0 0 0 0 0 0 0 0 0 0 0 0 0 0 0 0 0 4.037136e-03 1.360906e+00 3.629148e+00 3.645227e+00 3.180084e+00 3.234051e+00 2.617648e+00 2.190250e+00 1.608690e+00 9.952175e-01 2.896409e-01 -4.051573e-01 -9.567251e-01 -1.337325e+00 -2.936265e+00 -2.598332e+00 -3.514204e-01 0 0 0 0 0 0 0 0 0 0 0 0 0 0 0 0 0 0 0 0 0 0 0 0 0 0 0 0 0 0 0 0 0 0 0 0 0 0 0 0 0 0 0 0 0 0 0 0 0 0 0 0 0 0 0 
0 0 0 0 0 0 0 0 0 0 0 0 0 1.035640e+00 -6.324509e-01 1.352202e+00 -1.219676e+00 1.324630e+00 -1.314988e+00 7.586804e-01 -9.973774e-01 0 0 0 0 0 0 0 0 0 0 0 0 0 0 0 0 0 0 0 0 0 0 0 0 0 0 0 0 0 0 0 0 0 0 0 0 2.134166e-02 6.505350e-02 6.680629e-02 4.725101e-02 3.569646e-02 1.470523e-02 -2.107865e-04 -1.788686e-02 -3.229364e-02 -4.264451e-02 -5.022493e-02 -4.452739e-02 -3.465685e-02 -6.649447e-02 -6.837530e-02 -1.737360e-02 0 0 0 0 0 0 0 0 0 0 0 0 0 0 0 0 0 0 0 0 0 0 0 0 0 0 0 0 0 0 0 0 0 0 0 0 0 0 0 0 0 0 0 0 0 0 0 0 0 0 0 0 0 0 0 
0 0 0 0 0 0 0 0 0 0 0 0 0 -5.863416e-03 -7.678857e-04 -1.621972e-03 6.084373e-04 3.717371e-04 -1.289346e-03 -3.871632e-04 -6.080367e-03 0 0 0 0 0 0 0 0 0 0 0 0 0 0 0 0 0 0 0 0 0 0 0 0 0 0 0 0 0 0 0 0 0 0 0 0 0 0 0 0 0 0 0 0 0 0 0 0 0 0 0 0 0 0 0 0 0 0 0 0 0 0 0 0 0 0 0 0 0 0 0 0 0 0 0 0 0 0 0 0 0 0 0 0 0 0 0 0 0 0 0 0 0 0 0 0 0 0 0 0 0 0 0 0 0 0 0 
0 0 0 0 0 0 0 0 0 0 0 0 0 -1.044690e+00 6.359195e-01 -1.353856e+00 1.225181e+00 -1.320660e+00 1.316626e+00 -7.508939e-01 9.937892e-01 0 0 0 0 0 0 0 0 0 0 0 0 0 0 0 0 0 0 0 0 0 0 0 0 0 0 0 0 0 0 0 0 0 0 0 0 0 0 0 0 0 0 0 0 0 0 0 0 0 0 0 0 0 0 0 0 0 0 0 0 0 0 0 0 0 0 0 0 0 0 0 0 0 0 0 0 0 0 0 0 0 0 0 0 0 0 0 0 0 0 0 0 0 0 0 0 0 0 0 0 0 0 0 0 0 0 0 
0 0 0 0 0 0 0 0 0 0 0 0 0 -2.147121e+00 6.487559e-01 -2.150540e+00 1.643889e+00 -1.804255e+00 2.051294e+00 -8.213845e-01 2.029661e+00 0 0 0 0 0 0 0 0 0 0 0 0 0 0 0 0 0 0 0 0 0 0 0 0 0 0 0 0 0 0 0 0 0 0 0 0 0 0 0 0 0 0 0 0 0 0 0 0 0 0 0 0 0 0 0 0 0 0 0 0 0 0 0 0 0 0 0 0 0 0 0 0 0 0 0 0 0 0 0 0 0 0 0 0 0 0 0 0 0 0 0 0 0 0 0 0 0 0 0 0 0 0 0 0 0 0 0 
0 0 0 0 0 -1.010918e-01 -1.787499e-01 -1.369151e-01 -2.412434e-01 -1.855430e-01 -2.987738e-01 -2.321074e-01 -3.469358e-01 -3.660226e+00 4.356198e+00 -4.692255e+00 6.926149e+00 -4.366590e+00 7.945364e+00 -2.115342e+00 5.905146e+00 3.326663e+00 3.263925e+00 3.277715e+00 3.219465e+00 3.222928e+00 3.173034e+00 3.165611e+00 3.117922e+00 3.095117e+00 3.049627e+00 3.019978e+00 2.985724e+00 2.957029e+00 2.933318e+00 2.904963e+00 2.888977e+00 2.860985e+00 2.844735e+00 2.805966e+00 2.775864e+00 2.725527e+00 2.692459e+00 2.650939e+00 2.629619e+00 2.601298e+00 2.584402e+00 2.557827e+00 2.534911e+00 2.503040e+00 2.470168e+00 2.430170e+00 2.387828e+00 2.344424e+00 2.303868e+00 2.268874e+00 2.236688e+00 2.205745e+00 2.171505e+00 2.136208e+00 2.099381e+00 2.062904e+00 2.024161e+00 1.982863e+00 1.938109e+00 1.895433e+00 1.854809e+00 1.823169e+00 1.792650e+00 1.770478e+00 1.742342e+00 1.721606e+00 1.689937e+00 1.666389e+00 1.627156e+00 1.596184e+00 1.548849e+00 1.515801e+00 1.474084e+00 1.451231e+00 1.420347e+00 1.399698e+00 1.368836e+00 1.341931e+00 1.311589e+00 1.279070e+00 1.247979e+00 1.204694e+00 1.172500e+00 1.125659e+00 1.105168e+00 1.065996e+00 1.058789e+00 1.020764e+00 1.012771e+00 9.664285e-01 9.514527e-01 9.011064e-01 8.816689e-01 8.337150e-01 8.111653e-01 7.736283e-01 7.516913e-01 7.276951e-01 6.971209e-01 6.765943e-01 6.299007e-01 6.168321e-01 5.628704e-01 5.612255e-01 4.976869e-01 4.974798e-01 4.232000e-01 4.248849e-01 3.534463e-01 3.605459e-01 2.995914e-01 3.012138e-01 2.501467e-01 2.336180e-01 2.044304e-01 1.551908e-01 1.780312e-01 -1.854222e-02 0 0 0 0 
0 0 0 0 0 -2.272786e+00 -4.032950e+00 -3.099640e+00 -5.429039e+00 -4.172318e+00 -6.718844e+00 -5.226150e+00 -7.810492e+00 -9.214832e+00 1.291516e+01 1.223263e+01 3.392162e+01 3.311711e+01 5.516178e+01 5.387041e+01 7.638087e+01 7.457072e+01 7.316710e+01 7.347595e+01 7.217275e+01 7.225049e+01 7.113393e+01 7.096782e+01 6.990035e+01 6.938986e+01 6.837147e+01 6.770779e+01 6.694090e+01 6.629858e+01 6.576774e+01 6.513305e+01 6.477518e+01 6.414858e+01 6.378482e+01 6.291691e+01 6.224294e+01 6.111588e+01 6.037546e+01 5.944571e+01 5.896828e+01 5.833403e+01 5.795565e+01 5.736048e+01 5.684726e+01 5.613341e+01 5.539719e+01 5.450128e+01 5.355288e+01 5.258058e+01 5.167212e+01 5.088817e+01 5.016713e+01 4.947389e+01 4.870679e+01 4.791593e+01 4.709083e+01 4.627348e+01 4.540536e+01 4.447991e+01 4.347703e+01 4.252062e+01 4.161020e+01 4.090107e+01 4.021707e+01 3.972011e+01 3.908948e+01 3.862469e+01 3.791481e+01 3.738697e+01 3.650746e+01 3.581311e+01 3.475187e+01 3.401096e+01 3.307556e+01 3.256315e+01 3.187057e+01 3.140756e+01 3.071547e+01 3.011218e+01 2.943171e+01 2.870255e+01 2.800528e+01 2.703467e+01 2.631265e+01 2.526219e+01 2.480263e+01 2.392405e+01 2.376239e+01 2.290938e+01 2.272997e+01 2.169019e+01 2.135403e+01 2.022421e+01 1.978790e+01 1.871161e+01 1.820550e+01 1.736298e+01 1.687073e+01 1.633223e+01 1.564641e+01 1.518596e+01 1.413861e+01 1.384567e+01 1.263514e+01 1.259849e+01 1.117265e+01 1.116789e+01 9.500256e+00 9.537381e+00 7.932577e+00 8.090413e+00 6.719688e+00 6.752541e+00 5.598775e+00 5.210260e+00 4.508376e+00 3.403006e+00 3.972961e+00 -4.165360e-01 0 0 0 0 
0 0 0 0 0 -3.290905e+00 -5.843162e+00 -4.493600e+00 -7.862383e+00 -6.041573e+00 -9.729053e+00 -7.569244e+00 -1.131196e+01 -6.493138e+00 1.336754e+01 2.613860e+01 4.108102e+01 5.666611e+01 7.122159e+01 8.435435e+01 1.051320e+02 1.079196e+02 1.058889e+02 1.063358e+02 1.044505e+02 1.045630e+02 1.029476e+02 1.027072e+02 1.011628e+02 1.004242e+02 9.895068e+01 9.799043e+01 9.688082e+01 9.595147e+01 9.518341e+01 9.426511e+01 9.374733e+01 9.284073e+01 9.231442e+01 9.105865e+01 9.008348e+01 8.845272e+01 8.738138e+01 8.603609e+01 8.534526e+01 8.442753e+01 8.388002e+01 8.301882e+01 8.227619e+01 8.124325e+01 8.017795e+01 7.888155e+01 7.750920e+01 7.610225e+01 7.478767e+01 7.365326e+01 7.260988e+01 7.160671e+01 7.049666e+01 6.935222e+01 6.815823e+01 6.697542e+01 6.571916e+01 6.437992e+01 6.292862e+01 6.154454e+01 6.022704e+01 5.920080e+01 5.821093e+01 5.749174e+01 5.657912e+01 5.590647e+01 5.487912e+01 5.411522e+01 5.284238e+01 5.183750e+01 5.030162e+01 4.922932e+01 4.787553e+01 4.713394e+01 4.613157e+01 4.546145e+01 4.445978e+01 4.358664e+01 4.260179e+01 4.154647e+01 4.053729e+01 3.913252e+01 3.808753e+01 3.656717e+01 3.590204e+01 3.463042e+01 3.439643e+01 3.316179e+01 3.290208e+01 3.139705e+01 3.091045e+01 2.927504e+01 2.864345e+01 2.708550e+01 2.635288e+01 2.513329e+01 2.442079e+01 2.364131e+01 2.264866e+01 2.198222e+01 2.046631e+01 2.004236e+01 1.829023e+01 1.823724e+01 1.617336e+01 1.616645e+01 1.375237e+01 1.380594e+01 1.148258e+01 1.171067e+01 9.725828e+00 9.772478e+00 8.100438e+00 7.533595e+00 6.505711e+00 4.905600e+00 5.745186e+00 -6.030423e-01 0 0 0 0 
0 0 0 0 0 -1.119211e+00 -1.988962e+00 -1.530875e+00 -2.674587e+00 -2.054798e+00 -3.308983e+00 -2.575202e+00 -3.848406e+00 -2.210246e+00 4.543207e+00 8.884866e+00 1.396418e+01 1.926074e+01 2.420731e+01 2.866930e+01 3.572827e+01 3.667550e+01 3.598573e+01 3.613758e+01 3.549717e+01 3.553542e+01 3.498667e+01 3.490503e+01 3.438035e+01 3.412942e+01 3.362884e+01 3.330262e+01 3.292564e+01 3.260993e+01 3.234899e+01 3.203703e+01 3.186112e+01 3.155313e+01 3.137433e+01 3.094771e+01 3.061640e+01 3.006236e+01 2.969838e+01 2.924131e+01 2.900660e+01 2.869479e+01 2.850877e+01 2.821616e+01 2.796385e+01 2.761288e+01 2.725093e+01 2.681044e+01 2.634415e+01 2.586610e+01 2.541943e+01 2.503396e+01 2.467944e+01 2.433857e+01 2.396138e+01 2.357250e+01 2.316678e+01 2.276485e+01 2.233797e+01 2.188287e+01 2.138970e+01 2.091936e+01 2.047164e+01 2.012290e+01 1.978652e+01 1.954211e+01 1.923197e+01 1.900338e+01 1.865425e+01 1.839465e+01 1.796208e+01 1.762057e+01 1.709859e+01 1.673417e+01 1.627406e+01 1.602202e+01 1.568134e+01 1.545359e+01 1.511314e+01 1.481639e+01 1.448166e+01 1.412299e+01 1.377999e+01 1.330255e+01 1.294738e+01 1.243064e+01 1.220457e+01 1.177236e+01 1.169283e+01 1.127317e+01 1.118488e+01 1.067329e+01 1.050787e+01 9.951932e+00 9.737218e+00 9.207597e+00 8.958547e+00 8.543946e+00 8.301744e+00 8.036772e+00 7.699372e+00 7.472848e+00 6.957599e+00 6.813523e+00 6.217964e+00 6.199984e+00 5.498402e+00 5.496039e+00 4.675319e+00 4.693443e+00 3.903446e+00 3.980799e+00 3.305732e+00 3.321152e+00 2.751809e+00 2.556953e+00 2.201765e+00 1.657785e+00 1.950256e+00 -2.050485e-01 0 0 0 0 
0 0 0 0 0 0 0 0 0 0 0 0 0 0 0 0 0 0 0 0 0 0 0 0 0 0 0 0 0 0 0 0 0 0 0 0 0 0 0 0 0 0 0 0 0 0 0 0 0 0 0 0 0 0 0 0 0 0 0 0 0 0 0 0 0 0 0 0 0 0 0 0 0 0 0 0 0 0 0 0 0 0 0 0 0 0 0 0 0 0 0 0 0 0 0 0 0 0 0 0 0 0 0 0 0 0 0 0 0 0 0 0 0 0 0 0 0 0 0 0 0 0 0 0 0 0 0 0 
