# vtk DataFile Version 2.0
Comment goes here
ASCII

DATASET STRUCTURED_POINTS
FIELD FieldData 1
TIME 1 1 double
0.78000000
DIMENSIONS    128   16   1

ORIGIN    0.000   0.000   0.000
SPACING   0.0078125 0.015625   1.000

POINT_DATA   2048
SCALARS fY double
LOOKUP_TABLE default

0 0 0 0 0 0 0 0 0 0 0 0 0 0 0 0 0 0 0 0 0 0 0 0 0 0 0 0 0 0 0 0 0 0 0 0 0 0 0 0 0 0 0 0 0 0 0 0 0 0 0 0 0 0 0 0 0 0 0 0 0 0 0 0 0 0 0 0 0 0 0 0 0 0 0 0 0 0 0 0 0 0 0 0 0 0 0 0 0 0 0 0 0 0 0 0 0 0 0 0 0 0 0 0 0 0 0 0 0 0 0 0 0 0 0 0 0 0 0 0 0 0 0 0 0 0 0 0 
0 0 0 0 0 0 0 0 0 0 0 0 0 0 0 0 0 0 0 0 0 0 0 0 0 0 0 0 0 0 0 0 0 0 0 0 0 0 0 0 0 0 0 0 0 0 0 0 0 0 0 0 0 0 0 0 0 0 0 0 0 0 0 0 0 0 0 0 0 0 0 0 0 0 0 0 0 0 0 0 0 0 0 0 0 0 0 0 0 0 0 0 0 0 0 0 0 0 0 0 0 0 0 0 0 0 0 0 0 0 0 0 0 0 0 0 0 0 0 0 0 0 0 0 0 0 0 0 
0 0 0 0 0 2.565246e-01 -4.335392e-01 -2.737036e-01 -4.515223e-01 -4.428256e-01 -5.376800e-01 -5.262434e-01 -6.326158e-01 -3.231385e-01 7.247613e-01 7.829369e-01 2.340061e+00 3.221917e+00 4.023890e+00 5.560670e+00 5.768986e+00 6.145512e+00 6.021602e+00 6.037615e+00 6.006263e+00 5.929047e+00 5.950345e+00 5.788490e+00 5.851451e+00 5.644234e+00 5.727838e+00 5.489225e+00 5.570836e+00 5.345094e+00 5.438031e+00 5.260097e+00 5.336295e+00 5.184018e+00 5.199602e+00 5.065341e+00 5.027791e+00 4.938187e+00 4.868099e+00 4.816039e+00 4.700606e+00 4.663157e+00 4.517437e+00 4.501616e+00 4.353316e+00 4.355278e+00 4.231574e+00 4.261728e+00 4.188016e+00 4.206596e+00 4.123075e+00 4.033592e+00 3.847023e+00 2.794290e+00 2.486308e+00 2.774256e+00 2.266775e+00 2.248394e+00 2.141627e+00 1.485651e+00 1.537701e+00 1.042501e+00 5.901533e-01 4.341069e-01 -1.292075e-01 -4.728630e-01 -1.901487e-01 1.910529e+00 3.911982e+00 3.614920e+00 3.560659e+00 3.435586e+00 3.384390e+00 3.355289e+00 3.201348e+00 3.171057e+00 2.899329e+00 2.895995e+00 2.609208e+00 2.702778e+00 2.473615e+00 2.641147e+00 2.452218e+00 2.613543e+00 2.433783e+00 2.513100e+00 2.322437e+00 2.284119e+00 2.128907e+00 2.014947e+00 1.958844e+00 1.782327e+00 1.829153e+00 1.598473e+00 1.765459e+00 1.509971e+00 1.763056e+00 1.444694e+00 1.680306e+00 1.272602e+00 1.450216e+00 1.039900e+00 1.204884e+00 9.082120e-01 1.055764e+00 8.958582e-01 9.498765e-01 9.102063e-01 8.022347e-01 8.580745e-01 5.572359e-01 7.253477e-01 3.058007e-01 6.270887e-01 1.536370e-01 5.469519e-01 4.567633e-02 3.806649e-01 -1.433436e-01 -6.592953e-01 0 0 0 0 
0 0 0 0 0 7.544346e-01 -1.276487e+00 -8.075839e-01 -1.330014e+00 -1.303608e+00 -1.582357e+00 -1.548620e+00 -1.861458e+00 -9.511579e-01 2.131267e+00 2.302559e+00 6.882430e+00 9.476126e+00 1.183467e+01 1.635414e+01 1.696672e+01 1.807391e+01 1.770942e+01 1.775647e+01 1.766425e+01 1.743719e+01 1.749986e+01 1.702393e+01 1.720916e+01 1.659984e+01 1.684578e+01 1.614410e+01 1.638415e+01 1.572030e+01 1.599362e+01 1.547033e+01 1.569440e+01 1.524655e+01 1.529236e+01 1.489749e+01 1.478705e+01 1.452352e+01 1.431740e+01 1.416430e+01 1.382483e+01 1.371471e+01 1.328617e+01 1.323966e+01 1.280353e+01 1.280932e+01 1.244552e+01 1.253421e+01 1.231743e+01 1.237207e+01 1.212644e+01 1.186328e+01 1.140520e+01 9.459500e+00 9.486885e+00 9.903606e+00 8.692955e+00 8.967587e+00 9.107264e+00 8.471438e+00 9.278954e+00 8.941470e+00 9.325227e+00 9.807706e+00 9.934191e+00 1.106478e+01 1.179080e+01 1.229277e+01 1.237336e+01 1.063181e+01 1.047221e+01 1.010431e+01 9.953722e+00 9.868137e+00 9.415424e+00 9.326368e+00 8.527259e+00 8.517495e+00 7.674076e+00 7.949293e+00 7.275311e+00 7.768015e+00 7.212321e+00 7.686735e+00 7.157978e+00 7.391190e+00 6.830364e+00 6.717626e+00 6.261095e+00 5.925937e+00 5.760952e+00 5.241852e+00 5.379640e+00 4.701260e+00 5.192460e+00 4.441080e+00 5.185452e+00 4.249064e+00 4.941939e+00 3.742654e+00 4.264843e+00 3.057763e+00 3.542743e+00 2.669884e+00 3.103615e+00 2.633101e+00 2.791870e+00 2.675176e+00 2.357717e+00 2.522146e+00 1.637632e+00 2.132421e+00 8.987589e-01 1.843724e+00 4.499001e-01 1.600683e+00 9.986102e-02 1.073854e+00 -4.399810e-01 -1.939765e+00 0 0 0 0 
0 0 0 0 0 5.211075e-01 -8.824084e-01 -5.590920e-01 -9.196902e-01 -9.010491e-01 -1.093484e+00 -1.070131e+00 -1.286216e+00 -2.179466e+00 2.306584e+00 1.985631e+00 5.940697e+00 5.282360e+00 9.757349e+00 8.412411e+00 1.354182e+01 1.248414e+01 1.223235e+01 1.226482e+01 1.220112e+01 1.204430e+01 1.208760e+01 1.175891e+01 1.188688e+01 1.146606e+01 1.163596e+01 1.115134e+01 1.131716e+01 1.085864e+01 1.104743e+01 1.068599e+01 1.084075e+01 1.053140e+01 1.056303e+01 1.029028e+01 1.021399e+01 1.003196e+01 9.889590e+00 9.783844e+00 9.549375e+00 9.473318e+00 9.177332e+00 9.145211e+00 8.843979e+00 8.847980e+00 8.596700e+00 8.657964e+00 8.508231e+00 8.545976e+00 8.376313e+00 8.194537e+00 7.951772e+00 9.192446e+00 9.249157e+00 8.329373e+00 9.556103e+00 9.164771e+00 9.418659e+00 1.034759e+01 1.030965e+01 1.056770e+01 1.131153e+01 1.083868e+01 1.163188e+01 1.118927e+01 1.116040e+01 9.372930e+00 7.038231e+00 7.343857e+00 7.233602e+00 6.979459e+00 6.875434e+00 6.816318e+00 6.503629e+00 6.442131e+00 5.890183e+00 5.883459e+00 5.300896e+00 5.491010e+00 5.025463e+00 5.365786e+00 4.981926e+00 5.309596e+00 4.944329e+00 5.105386e+00 4.717965e+00 4.640073e+00 4.324708e+00 4.093204e+00 3.979250e+00 3.620711e+00 3.715920e+00 3.247367e+00 3.586699e+00 3.067705e+00 3.581888e+00 2.935057e+00 3.413616e+00 2.585126e+00 2.945732e+00 2.111802e+00 2.446676e+00 1.843599e+00 2.143084e+00 1.817974e+00 1.927593e+00 1.846977e+00 1.627740e+00 1.741415e+00 1.130578e+00 1.472524e+00 6.205073e-01 1.273250e+00 3.098155e-01 1.101808e+00 5.227075e-02 7.196047e-01 -3.128274e-01 -1.340228e+00 0 0 0 0 
0 0 0 0 0 2.319755e-02 -3.946033e-02 -2.521171e-02 -4.119856e-02 -4.026668e-02 -4.880656e-02 -4.775432e-02 -5.737335e-02 -1.394973e+00 7.814342e-01 9.677115e-01 1.166725e+00 -7.222382e-01 1.519059e+00 -2.351792e+00 1.825409e+00 5.557495e-01 5.445323e-01 5.459717e-01 5.431343e-01 5.361571e-01 5.380893e-01 5.234683e-01 5.291723e-01 5.104517e-01 5.180215e-01 4.964588e-01 5.038440e-01 4.834385e-01 4.918425e-01 4.757538e-01 4.826406e-01 4.688687e-01 4.702742e-01 4.581308e-01 4.547335e-01 4.466297e-01 4.402927e-01 4.355861e-01 4.251511e-01 4.217670e-01 4.085943e-01 4.071663e-01 3.937595e-01 3.939392e-01 3.827549e-01 3.854829e-01 3.788180e-01 3.804985e-01 3.729460e-01 3.648542e-01 3.949356e-01 3.614316e+00 2.480109e+00 1.694154e-01 2.767457e+00 1.444629e+00 1.348762e+00 2.314024e+00 1.095690e+00 1.304970e+00 1.176138e+00 -8.142983e-02 1.068805e-01 -1.456119e+00 -2.055244e+00 -3.438746e+00 -3.059677e+00 3.269662e-01 3.220551e-01 3.107347e-01 3.061013e-01 3.034697e-01 2.895530e-01 2.868192e-01 2.622535e-01 2.619591e-01 2.360277e-01 2.444947e-01 2.237680e-01 2.389176e-01 2.218225e-01 2.364041e-01 2.201333e-01 2.272957e-01 2.100384e-01 2.065656e-01 1.925200e-01 1.822138e-01 1.771427e-01 1.611862e-01 1.654335e-01 1.445810e-01 1.596986e-01 1.365960e-01 1.594917e-01 1.306865e-01 1.519830e-01 1.150734e-01 1.311051e-01 9.393904e-02 1.088172e-01 8.192753e-02 9.523258e-02 8.073143e-02 8.559912e-02 8.200736e-02 7.225816e-02 7.734369e-02 5.018229e-02 6.545044e-02 2.754909e-02 5.661417e-02 1.355250e-02 4.807643e-02 -1.913940e-03 2.641571e-02 -1.619010e-02 -5.975841e-02 0 0 0 0 
0 0 0 0 0 0 0 0 0 0 0 0 0 -3.997352e-01 1.062361e-01 -3.161179e-01 3.502144e-01 -3.973002e-01 4.698013e-01 -3.592560e-01 1.499942e-01 0 0 0 0 0 0 0 0 0 0 0 0 0 0 0 0 0 0 0 0 0 0 0 0 0 0 0 0 0 0 0 0 0 0 0 1.337309e-03 1.096648e+00 2.004517e-01 -1.107161e+00 -4.343760e-01 -1.081313e+00 -1.179611e+00 -1.113193e+00 -1.532690e+00 -1.405495e+00 -1.422759e+00 -1.549699e+00 -1.444060e+00 -1.049431e+00 -1.172906e+00 -2.429568e+00 -1.654598e+00 0 0 0 0 0 0 0 0 0 0 0 0 0 0 0 0 0 0 0 0 0 0 0 0 0 0 0 0 0 0 0 0 0 0 0 0 0 0 0 0 0 0 0 0 0 0 0 0 0 0 0 0 0 0 0 
0 0 0 0 0 0 0 0 0 0 0 0 0 -2.155876e-01 8.387196e-02 -1.011341e-01 2.110341e-01 -2.308841e-01 2.582716e-01 -2.832908e-01 6.905067e-02 0 0 0 0 0 0 0 0 0 0 0 0 0 0 0 0 0 0 0 0 0 0 0 0 0 0 0 0 0 0 0 0 0 0 0 0 9.568750e-03 -3.107621e-02 -7.655382e-02 -7.190974e-02 -8.036373e-02 -7.535120e-02 -6.541228e-02 -5.998000e-02 -4.173002e-02 -2.244054e-02 -3.186774e-03 1.754522e-02 5.831942e-02 6.179450e-02 -1.317521e-04 -1.807224e-02 0 0 0 0 0 0 0 0 0 0 0 0 0 0 0 0 0 0 0 0 0 0 0 0 0 0 0 0 0 0 0 0 0 0 0 0 0 0 0 0 0 0 0 0 0 0 0 0 0 0 0 0 0 0 0 
0 0 0 0 0 0 0 0 0 0 0 0 0 4.727787e-03 2.216875e-03 3.892721e-03 2.181285e-03 3.778417e-03 4.427580e-03 4.001611e-03 8.949351e-03 0 0 0 0 0 0 0 0 0 0 0 0 0 0 0 0 0 0 0 0 0 0 0 0 0 0 0 0 0 0 0 0 0 0 0 0 0 0 0 0 0 0 0 0 0 0 0 0 0 0 0 0 0 0 0 0 0 0 0 0 0 0 0 0 0 0 0 0 0 0 0 0 0 0 0 0 0 0 0 0 0 0 0 0 0 0 0 0 0 0 0 0 0 0 0 0 0 0 0 0 0 0 0 0 0 0 0 
0 0 0 0 0 0 0 0 0 0 0 0 0 2.204640e-01 -8.504015e-02 1.088615e-01 -2.129175e-01 2.413611e-01 -2.543709e-01 2.927189e-01 -5.006023e-02 0 0 0 0 0 0 0 0 0 0 0 0 0 0 0 0 0 0 0 0 0 0 0 0 0 0 0 0 0 0 0 0 0 0 0 0 0 0 0 0 0 0 0 0 0 0 0 0 0 0 0 0 0 0 0 0 0 0 0 0 0 0 0 0 0 0 0 0 0 0 0 0 0 0 0 0 0 0 0 0 0 0 0 0 0 0 0 0 0 0 0 0 0 0 0 0 0 0 0 0 0 0 0 0 0 0 0 
0 0 0 0 0 0 0 0 0 0 0 0 0 4.054277e-01 -1.081251e-01 3.211979e-01 -3.549790e-01 4.035095e-01 -4.690931e-01 3.673552e-01 -1.320358e-01 0 0 0 0 0 0 0 0 0 0 0 0 0 0 0 0 0 0 0 0 0 0 0 0 0 0 0 0 0 0 0 0 0 0 0 0 0 0 0 0 0 0 0 0 0 0 0 0 0 0 0 0 0 0 0 0 0 0 0 0 0 0 0 0 0 0 0 0 0 0 0 0 0 0 0 0 0 0 0 0 0 0 0 0 0 0 0 0 0 0 0 0 0 0 0 0 0 0 0 0 0 0 0 0 0 0 0 
0 0 0 0 0 -2.316497e-02 3.923472e-02 2.438588e-02 3.951393e-02 3.833587e-02 4.741909e-02 4.707860e-02 5.695833e-02 1.377207e+00 -7.955198e-01 -9.603885e-01 -1.193990e+00 7.469834e-01 -1.547196e+00 2.372151e+00 -1.810619e+00 -5.582530e-01 -5.478941e-01 -5.458620e-01 -5.419671e-01 -5.324093e-01 -5.366717e-01 -5.218040e-01 -5.296113e-01 -5.089026e-01 -5.174518e-01 -4.949672e-01 -5.043325e-01 -4.833798e-01 -4.917700e-01 -4.741881e-01 -4.807413e-01 -4.681119e-01 -4.706723e-01 -4.604172e-01 -4.549317e-01 -4.456387e-01 -4.348982e-01 -4.317915e-01 -4.218486e-01 -4.259497e-01 -4.158430e-01 -4.223883e-01 -4.104042e-01 -4.160665e-01 -4.011407e-01 -4.017528e-01 -3.833490e-01 -3.793899e-01 -3.636520e-01 -3.606946e-01 -3.530208e-01 -3.516980e-01 -3.506503e-01 -3.474765e-01 -3.504370e-01 -3.440327e-01 -3.475078e-01 -3.350635e-01 -3.346790e-01 -3.164796e-01 -3.155646e-01 -3.000637e-01 -3.043093e-01 -2.961413e-01 -3.038458e-01 -3.016244e-01 -3.079470e-01 -3.073417e-01 -3.047878e-01 -2.993672e-01 -2.848378e-01 -2.779918e-01 -2.599339e-01 -2.613536e-01 -2.475150e-01 -2.584616e-01 -2.463760e-01 -2.591784e-01 -2.433015e-01 -2.509409e-01 -2.291569e-01 -2.284755e-01 -2.049499e-01 -2.014643e-01 -1.881961e-01 -1.886117e-01 -1.886686e-01 -1.861465e-01 -1.914366e-01 -1.777396e-01 -1.846707e-01 -1.593686e-01 -1.688947e-01 -1.361292e-01 -1.515549e-01 -1.187567e-01 -1.423847e-01 -1.136356e-01 -1.394818e-01 -1.111946e-01 -1.283490e-01 -9.964553e-02 -1.056680e-01 -8.462801e-02 -8.162847e-02 -7.395814e-02 -6.141557e-02 -6.980499e-02 -4.754706e-02 -6.955067e-02 -3.359738e-02 -6.144815e-02 -1.341523e-02 -4.454748e-02 7.017367e-03 -2.308818e-02 1.740128e-02 6.028147e-02 0 0 0 0 
0 0 0 0 0 -5.203753e-01 8.773554e-01 5.405686e-01 8.818800e-01 8.577044e-01 1.062334e+00 1.054962e+00 1.276896e+00 2.141800e+00 -2.335244e+00 -2.013157e+00 -5.971951e+00 -5.302220e+00 -9.791315e+00 -8.429716e+00 -1.356739e+01 -1.254050e+01 -1.230798e+01 -1.226242e+01 -1.217494e+01 -1.196010e+01 -1.205572e+01 -1.172147e+01 -1.189667e+01 -1.143117e+01 -1.162307e+01 -1.111776e+01 -1.132809e+01 -1.085731e+01 -1.104582e+01 -1.065087e+01 -1.079816e+01 -1.051451e+01 -1.057210e+01 -1.034178e+01 -1.021856e+01 -1.000980e+01 -9.768478e+00 -9.698650e+00 -9.475212e+00 -9.567277e+00 -9.340157e+00 -9.487137e+00 -9.217860e+00 -9.345033e+00 -9.009710e+00 -9.023463e+00 -8.610050e+00 -8.521133e+00 -8.167633e+00 -8.101222e+00 -7.928865e+00 -7.899160e+00 -7.875624e+00 -7.804312e+00 -7.870793e+00 -7.726896e+00 -7.804931e+00 -7.525360e+00 -7.516709e+00 -7.107891e+00 -7.087345e+00 -6.739183e+00 -6.834584e+00 -6.651160e+00 -6.824273e+00 -6.774416e+00 -6.916479e+00 -6.902900e+00 -6.845532e+00 -6.723765e+00 -6.397350e+00 -6.243539e+00 -5.837862e+00 -5.869703e+00 -5.558832e+00 -5.804690e+00 -5.533245e+00 -5.820859e+00 -5.464334e+00 -5.636050e+00 -5.146926e+00 -5.131773e+00 -4.603578e+00 -4.525419e+00 -4.227552e+00 -4.236950e+00 -4.238228e+00 -4.181520e+00 -4.300207e+00 -3.992383e+00 -4.147858e+00 -3.579361e+00 -3.793159e+00 -3.057186e+00 -3.403658e+00 -2.667241e+00 -3.198228e+00 -2.553077e+00 -3.134198e+00 -2.499679e+00 -2.885730e+00 -2.241938e+00 -2.377833e+00 -1.905898e+00 -1.838766e+00 -1.666541e+00 -1.384512e+00 -1.572304e+00 -1.071568e+00 -1.564695e+00 -7.563856e-01 -1.381875e+00 -3.068322e-01 -1.022907e+00 6.083796e-02 -6.468260e-01 3.392602e-01 1.351944e+00 0 0 0 0 
0 0 0 0 0 -7.533744e-01 1.269176e+00 7.807736e-01 1.275282e+00 1.240863e+00 1.537264e+00 1.526662e+00 1.847966e+00 9.264370e-01 -2.145131e+00 -2.338601e+00 -6.862412e+00 -9.506571e+00 -1.181087e+01 -1.638572e+01 -1.705494e+01 -1.815553e+01 -1.781894e+01 -1.775301e+01 -1.762635e+01 -1.731529e+01 -1.745369e+01 -1.696970e+01 -1.722331e+01 -1.654931e+01 -1.682710e+01 -1.609548e+01 -1.639997e+01 -1.571837e+01 -1.599130e+01 -1.541950e+01 -1.563277e+01 -1.522212e+01 -1.530552e+01 -1.497208e+01 -1.479369e+01 -1.449147e+01 -1.414207e+01 -1.404097e+01 -1.371747e+01 -1.385074e+01 -1.352190e+01 -1.373468e+01 -1.334482e+01 -1.352893e+01 -1.304345e+01 -1.306337e+01 -1.246485e+01 -1.233612e+01 -1.182435e+01 -1.172821e+01 -1.147869e+01 -1.143568e+01 -1.140161e+01 -1.129836e+01 -1.139460e+01 -1.118627e+01 -1.129924e+01 -1.089448e+01 -1.088195e+01 -1.029009e+01 -1.026035e+01 -9.756307e+00 -9.894432e+00 -9.628894e+00 -9.879529e+00 -9.807360e+00 -1.001304e+01 -9.993386e+00 -9.910332e+00 -9.734042e+00 -9.261467e+00 -9.038783e+00 -8.451457e+00 -8.497541e+00 -8.047476e+00 -8.403406e+00 -8.010433e+00 -8.426832e+00 -7.910706e+00 -8.159333e+00 -7.451261e+00 -7.429364e+00 -6.664739e+00 -6.551620e+00 -6.120431e+00 -6.134052e+00 -6.135902e+00 -6.053790e+00 -6.225581e+00 -5.779894e+00 -6.004926e+00 -5.181855e+00 -5.491331e+00 -4.425843e+00 -4.927435e+00 -3.861377e+00 -4.630168e+00 -3.696319e+00 -4.537768e+00 -3.619376e+00 -4.178459e+00 -3.246661e+00 -3.443558e+00 -2.760492e+00 -2.663365e+00 -2.414046e+00 -2.005668e+00 -2.277375e+00 -1.552248e+00 -2.265878e+00 -1.095480e+00 -2.000996e+00 -4.456063e-01 -1.486549e+00 6.350287e-02 -9.689888e-01 4.780522e-01 1.956718e+00 0 0 0 0 
0 0 0 0 0 -2.561641e-01 4.310550e-01 2.645909e-01 4.329165e-01 4.214944e-01 5.223494e-01 5.187784e-01 6.280285e-01 3.147328e-01 -7.294764e-01 -7.951922e-01 -2.333254e+00 -3.232270e+00 -4.015801e+00 -5.571417e+00 -5.798996e+00 -6.173279e+00 -6.058856e+00 -6.036446e+00 -5.993383e+00 -5.887597e+00 -5.934642e+00 -5.770042e+00 -5.856252e+00 -5.627038e+00 -5.721477e+00 -5.472681e+00 -5.576208e+00 -5.344437e+00 -5.437244e+00 -5.242820e+00 -5.315348e+00 -5.175724e+00 -5.204093e+00 -5.090718e+00 -5.030065e+00 -4.927302e+00 -4.808493e+00 -4.774111e+00 -4.664102e+00 -4.709411e+00 -4.597588e+00 -4.669931e+00 -4.537361e+00 -4.599959e+00 -4.434883e+00 -4.441655e+00 -4.238146e+00 -4.194379e+00 -4.020370e+00 -3.987683e+00 -3.902842e+00 -3.888221e+00 -3.876635e+00 -3.841528e+00 -3.874249e+00 -3.803407e+00 -3.841815e+00 -3.704186e+00 -3.699924e+00 -3.498678e+00 -3.488566e+00 -3.317188e+00 -3.364157e+00 -3.273875e+00 -3.359102e+00 -3.334568e+00 -3.404508e+00 -3.397827e+00 -3.369587e+00 -3.309645e+00 -3.148956e+00 -3.073235e+00 -2.873528e+00 -2.889191e+00 -2.736159e+00 -2.857177e+00 -2.723564e+00 -2.865151e+00 -2.689673e+00 -2.774225e+00 -2.533493e+00 -2.526066e+00 -2.266111e+00 -2.227666e+00 -2.081075e+00 -2.085714e+00 -2.086343e+00 -2.058416e+00 -2.116811e+00 -1.965251e+00 -2.041739e+00 -1.761863e+00 -1.867067e+00 -1.504786e+00 -1.675333e+00 -1.312893e+00 -1.574325e+00 -1.256877e+00 -1.543052e+00 -1.230892e+00 -1.421078e+00 -1.104369e+00 -1.171393e+00 -9.392219e-01 -9.062273e-01 -8.214634e-01 -6.825718e-01 -7.748762e-01 -5.282264e-01 -7.707337e-01 -3.726913e-01 -6.805691e-01 -1.521894e-01 -5.081896e-01 9.682276e-03 -3.452510e-01 1.561933e-01 6.650557e-01 0 0 0 0 
0 0 0 0 0 0 0 0 0 0 0 0 0 0 0 0 0 0 0 0 0 0 0 0 0 0 0 0 0 0 0 0 0 0 0 0 0 0 0 0 0 0 0 0 0 0 0 0 0 0 0 0 0 0 0 0 0 0 0 0 0 0 0 0 0 0 0 0 0 0 0 0 0 0 0 0 0 0 0 0 0 0 0 0 0 0 0 0 0 0 0 0 0 0 0 0 0 0 0 0 0 0 0 0 0 0 0 0 0 0 0 0 0 0 0 0 0 0 0 0 0 0 0 0 0 0 0 0 
