# vtk DataFile Version 2.0
Comment goes here
ASCII

DATASET STRUCTURED_POINTS
FIELD FieldData 1
TIME 1 1 double
0.89000000
DIMENSIONS    128   16   1

ORIGIN    0.000   0.000   0.000
SPACING   0.0078125 0.015625   1.000

POINT_DATA   2048
SCALARS Omega double
LOOKUP_TABLE default

1.985591e-05 1.602527e-05 9.284852e-06 -2.037371e-06 -1.723648e-06 2.860319e-05 -3.466840e-06 -1.378016e-05 6.381183e-06 -2.074294e-06 -1.817315e-06 -1.952049e-05 -4.993237e-07 5.308702e-05 6.743848e-05 -1.063798e-04 1.278807e-04 -1.167196e-04 9.614712e-05 8.850468e-05 -2.977411e-04 -1.139612e-04 6.749925e-05 -1.274229e-05 -4.260874e-05 -9.213428e-05 -1.093164e-04 -1.459877e-04 -1.798678e-04 -2.186129e-04 -2.734208e-04 -3.265328e-04 -4.111960e-04 -4.922819e-04 -6.180253e-04 -7.397596e-04 -9.176620e-04 -1.088860e-03 -1.324700e-03 -1.543264e-03 -1.828360e-03 -2.071706e-03 -2.374946e-03 -2.599384e-03 -2.877219e-03 -3.046509e-03 -3.292125e-03 -3.449550e-03 -3.789621e-03 -4.163987e-03 -4.930530e-03 -5.868255e-03 -7.911655e-03 -1.354476e-02 -2.811555e-02 -3.669426e-02 1.821974e-02 5.374835e-02 -1.471508e-02 -3.135242e-02 -1.224176e-03 -2.285835e-02 -3.374596e-02 -4.304974e-02 -5.718328e-02 -5.626451e-02 -6.953955e-02 -6.545180e-02 -2.753625e-02 4.288947e-02 4.636218e-02 -3.925882e-02 -2.335320e-02 6.997364e-02 8.403782e-02 5.756064e-02 3.140839e-02 1.594153e-02 7.776097e-03 2.988625e-03 5.100313e-04 -1.031229e-03 -1.469507e-03 -1.804643e-03 -1.516594e-03 -1.482266e-03 -1.018263e-03 -9.436486e-04 -5.153236e-04 -5.067366e-04 -1.713105e-04 -2.350312e-04 1.389506e-05 -9.324026e-05 9.039688e-05 -2.855976e-05 1.065573e-04 -2.278815e-06 9.425144e-05 7.016792e-06 7.034119e-05 9.633608e-06 4.297672e-05 1.022922e-05 1.706923e-05 1.144126e-05 -3.708263e-06 1.558040e-05 -1.678623e-05 2.391841e-05 -2.142807e-05 3.577675e-05 -1.965461e-05 4.797358e-05 -1.604155e-05 5.543778e-05 -1.718697e-05 5.100657e-05 -3.475512e-05 1.698131e-05 -1.019767e-04 -3.082103e-05 -1.310434e-04 2.210219e-05 8.456052e-05 5.194721e-05 3.042520e-05 2.432668e-05 
-5.395931e-03 -7.485500e-03 -3.887133e-03 3.587074e-02 9.544487e-03 -9.641188e-01 -6.786845e-01 -1.574609e-01 -4.868191e-01 -2.993641e-01 -3.992847e-01 -4.251356e-02 3.795433e-01 1.220293e+00 1.693432e+00 1.701964e+00 1.487111e+00 1.693432e+00 1.515126e+00 1.614176e+00 1.390999e+00 3.095520e-01 -1.217303e-01 -3.538641e-01 -3.337332e-01 -3.695986e-01 -3.307638e-01 -3.701389e-01 -3.344507e-01 -3.712843e-01 -3.378016e-01 -3.707502e-01 -3.409635e-01 -3.689523e-01 -3.441086e-01 -3.662366e-01 -3.472403e-01 -3.629066e-01 -3.502582e-01 -3.591835e-01 -3.529408e-01 -3.551825e-01 -3.549212e-01 -3.508613e-01 -3.556789e-01 -3.459580e-01 -3.545059e-01 -3.399044e-01 -3.503983e-01 -3.316629e-01 -3.416114e-01 -3.194599e-01 -3.295960e-01 -3.219688e-01 -3.327082e-01 -6.294904e-02 1.066045e+00 1.471316e+00 3.120284e-01 3.512498e-01 6.740665e-01 4.271400e-01 7.860674e-01 7.698615e-01 7.325495e-01 1.107987e+00 1.043495e+00 1.258673e+00 1.489979e+00 1.220579e+00 -3.168513e-01 -2.611245e+00 -2.211586e+00 -7.172169e-01 -3.486429e-01 -2.164220e-01 -2.548270e-01 -2.921667e-01 -3.145776e-01 -3.280827e-01 -3.341460e-01 -3.413193e-01 -3.425781e-01 -3.471258e-01 -3.467529e-01 -3.496438e-01 -3.491510e-01 -3.506319e-01 -3.506726e-01 -3.510813e-01 -3.515300e-01 -3.515359e-01 -3.516994e-01 -3.523339e-01 -3.511087e-01 -3.536315e-01 -3.497456e-01 -3.555237e-01 -3.476255e-01 -3.580517e-01 -3.448129e-01 -3.611252e-01 -3.415249e-01 -3.644698e-01 -3.380945e-01 -3.676995e-01 -3.349433e-01 -3.702912e-01 -3.326039e-01 -3.716217e-01 -3.316154e-01 -3.709979e-01 -3.324197e-01 -3.676583e-01 -3.350666e-01 -3.607360e-01 -3.386929e-01 -3.491308e-01 -3.398778e-01 -3.305340e-01 -3.241386e-01 -3.605344e-01 -7.336495e-01 -3.376389e-01 -4.872392e-02 -2.808664e-02 -1.456424e-02 -6.613456e-03 
-6.038091e-03 -1.413379e-02 1.853197e-02 3.660694e-01 9.562866e-01 -1.990141e+00 -1.381052e+00 2.339172e-01 -8.525920e-01 -2.871027e-01 -6.185061e-01 -6.139952e-02 -4.941255e-01 -3.547860e-01 -1.028339e+00 -8.059940e-01 -8.773041e-01 -7.775147e-01 -8.892332e-01 -8.668877e-01 -4.246661e-01 -5.726648e-01 -2.812992e-01 -5.022055e-01 -4.809897e-01 -5.330793e-01 -4.611143e-01 -5.285182e-01 -4.489550e-01 -5.295876e-01 -4.418872e-01 -5.302200e-01 -4.395824e-01 -5.296987e-01 -4.413006e-01 -5.256247e-01 -4.446914e-01 -5.171216e-01 -4.496543e-01 -5.060331e-01 -4.575315e-01 -4.951814e-01 -4.685928e-01 -4.850897e-01 -4.804083e-01 -4.753697e-01 -4.914411e-01 -4.668258e-01 -5.011887e-01 -4.618999e-01 -5.124095e-01 -4.668032e-01 -5.349179e-01 -5.106098e-01 -5.560197e-01 -1.543433e-02 1.859513e+00 2.390173e+00 2.640259e-01 6.273221e-01 1.028888e+00 2.669230e-01 7.272783e-01 4.995219e-01 1.765753e-01 4.254748e-01 4.850099e-03 1.789506e-02 -1.723555e-01 -1.632467e-01 3.082724e-01 -3.793998e-01 -1.031793e-01 -2.295955e-03 -5.399035e-01 -4.283272e-01 -3.637333e-01 -4.230647e-01 -3.992450e-01 -4.525683e-01 -4.220766e-01 -4.614683e-01 -4.368713e-01 -4.601194e-01 -4.475796e-01 -4.527307e-01 -4.569054e-01 -4.440384e-01 -4.668859e-01 -4.371026e-01 -4.755224e-01 -4.321207e-01 -4.805341e-01 -4.299989e-01 -4.799998e-01 -4.306696e-01 -4.732718e-01 -4.364588e-01 -4.625377e-01 -4.490152e-01 -4.477875e-01 -4.667166e-01 -4.291211e-01 -4.874690e-01 -4.076691e-01 -5.085081e-01 -3.856355e-01 -5.271517e-01 -3.664820e-01 -5.406891e-01 -3.548357e-01 -5.470617e-01 -3.546588e-01 -5.418568e-01 -3.667004e-01 -5.208902e-01 -3.913062e-01 -4.809911e-01 -4.217061e-01 -4.141705e-01 -4.244272e-01 -4.050124e-01 -1.601988e+00 2.133330e-01 7.887787e-01 -1.477737e-03 -5.385828e-02 -1.444468e-02 
-1.488907e-03 -2.812152e-02 2.853795e-02 8.468213e-01 3.047391e+00 1.224045e+00 1.457550e-01 1.322087e+00 6.469947e-01 9.206517e-01 6.412410e-01 4.825056e-01 4.036246e-01 1.906661e-01 4.730673e-01 2.600551e-01 3.745218e-01 2.296916e-01 3.813048e-01 3.907891e-01 1.781657e-01 6.093113e-01 4.681125e-01 7.803338e-01 7.421195e-01 8.723286e-01 8.162426e-01 8.855671e-01 8.647829e-01 8.820712e-01 9.008025e-01 8.716343e-01 9.239775e-01 8.572525e-01 9.365805e-01 8.474877e-01 9.448205e-01 8.463046e-01 9.476968e-01 8.492648e-01 9.392589e-01 8.485236e-01 9.158367e-01 8.420700e-01 8.806458e-01 8.289048e-01 8.324976e-01 8.015018e-01 7.635408e-01 7.419170e-01 6.478972e-01 6.113652e-01 4.435620e-01 3.660664e-01 8.186096e-02 -2.761093e-01 -1.343218e+00 -1.543330e+00 -8.530918e-01 -1.026493e+00 -1.292840e+00 -9.005412e-01 -1.204071e+00 -1.027368e+00 -8.843916e-01 -1.009317e+00 -7.048924e-01 -7.215589e-01 -4.592026e-01 -2.646633e-01 1.761328e-02 1.432364e+00 1.698373e+00 9.506962e-01 8.246524e-01 5.807092e-01 7.673310e-01 6.831743e-01 8.583290e-01 7.707275e-01 9.009080e-01 8.307367e-01 9.167003e-01 8.811968e-01 9.200622e-01 9.281891e-01 9.147919e-01 9.671338e-01 8.998176e-01 9.954924e-01 8.824833e-01 1.016766e+00 8.697682e-01 1.031076e+00 8.673208e-01 1.039949e+00 8.773892e-01 1.037253e+00 8.939382e-01 1.018376e+00 9.176618e-01 9.873990e-01 9.500330e-01 9.485455e-01 9.903281e-01 9.073549e-01 1.035273e+00 8.682906e-01 1.078654e+00 8.353439e-01 1.110862e+00 8.103645e-01 1.123763e+00 8.022025e-01 1.116479e+00 8.190081e-01 1.083315e+00 8.636028e-01 1.020498e+00 9.387201e-01 9.136220e-01 1.005931e+00 1.799606e-01 3.213867e+00 2.715619e+00 1.336037e-01 -8.925434e-02 -1.645835e-02 
6.050812e-03 -1.084629e-02 3.431817e-02 6.502846e-01 2.645924e+00 4.405738e+00 1.969499e+00 1.220015e+00 1.924190e+00 1.503548e+00 1.777641e+00 1.449581e+00 1.787564e+00 1.586313e+00 1.731283e+00 1.611008e+00 1.728385e+00 1.657756e+00 1.679472e+00 1.685797e+00 1.672560e+00 1.646498e+00 1.556447e+00 1.778847e+00 1.598610e+00 1.817066e+00 1.663109e+00 1.834202e+00 1.706351e+00 1.831696e+00 1.738869e+00 1.819881e+00 1.762433e+00 1.802167e+00 1.779005e+00 1.785307e+00 1.792593e+00 1.772572e+00 1.801852e+00 1.761138e+00 1.801666e+00 1.745557e+00 1.788088e+00 1.723981e+00 1.761434e+00 1.694518e+00 1.718190e+00 1.649480e+00 1.648724e+00 1.571796e+00 1.527857e+00 1.425717e+00 1.311545e+00 1.157945e+00 9.111345e-01 5.681549e-01 -1.375200e-01 -6.245741e-01 6.490396e-03 2.052664e-01 1.188202e-01 4.747426e-01 3.767268e-01 4.951438e-01 6.153953e-01 5.529452e-01 7.131953e-01 7.495914e-01 6.673631e-01 7.504759e-01 3.194676e-01 -8.495945e-01 -1.397780e+00 -2.277282e-01 1.053513e+00 1.227014e+00 1.473606e+00 1.447494e+00 1.616203e+00 1.582315e+00 1.697897e+00 1.668762e+00 1.740636e+00 1.730545e+00 1.762510e+00 1.779145e+00 1.771197e+00 1.815653e+00 1.768439e+00 1.841515e+00 1.760334e+00 1.861250e+00 1.752175e+00 1.876368e+00 1.748174e+00 1.888587e+00 1.750295e+00 1.893966e+00 1.754748e+00 1.889372e+00 1.762466e+00 1.877255e+00 1.775383e+00 1.859622e+00 1.794231e+00 1.839141e+00 1.818186e+00 1.817430e+00 1.844662e+00 1.795604e+00 1.868692e+00 1.773348e+00 1.886211e+00 1.755583e+00 1.897721e+00 1.747874e+00 1.899960e+00 1.755435e+00 1.891732e+00 1.795382e+00 1.874094e+00 2.030608e+00 2.771069e+00 3.615730e+00 1.813061e+00 -7.195199e-02 -9.586521e-02 -1.230344e-02 
6.031947e-03 1.579240e-03 -2.309650e-02 7.417027e-03 5.271679e-01 2.418114e+00 1.263709e+00 2.615849e-01 9.445783e-01 6.205993e-01 9.510352e-01 9.696204e-01 1.050749e+00 9.506108e-01 8.664274e-01 8.606345e-01 8.682047e-01 8.632080e-01 8.649168e-01 8.680499e-01 9.968839e-01 9.747148e-01 8.886553e-01 8.187505e-01 7.342912e-01 8.316710e-01 7.685639e-01 8.466873e-01 7.806505e-01 8.476895e-01 7.871859e-01 8.440489e-01 7.922144e-01 8.381468e-01 7.967723e-01 8.310675e-01 8.009511e-01 8.231425e-01 8.041705e-01 8.140985e-01 8.053701e-01 8.032628e-01 8.031779e-01 7.896982e-01 7.958878e-01 7.717200e-01 7.807315e-01 7.461165e-01 7.531656e-01 7.075046e-01 7.061462e-01 6.470611e-01 6.186080e-01 5.128625e-01 5.013134e-01 1.285854e+00 4.607196e+00 5.431375e+00 2.062675e+00 2.079465e+00 2.721523e+00 1.612355e+00 2.251765e+00 1.932218e+00 1.587145e+00 1.904419e+00 1.364962e+00 1.420496e+00 1.254206e+00 1.199429e+00 1.565149e+00 1.705084e+00 2.855579e+00 2.116144e+00 4.520602e-01 5.241183e-01 6.537661e-01 6.754330e-01 7.074049e-01 7.195624e-01 7.426044e-01 7.540572e-01 7.680389e-01 7.776145e-01 7.845848e-01 7.932106e-01 7.950186e-01 8.033063e-01 8.010561e-01 8.100393e-01 8.038973e-01 8.150666e-01 8.043683e-01 8.194766e-01 8.030974e-01 8.238807e-01 8.005996e-01 8.283728e-01 7.970528e-01 8.329002e-01 7.928378e-01 8.374016e-01 7.885859e-01 8.414855e-01 7.850056e-01 8.446543e-01 7.828191e-01 8.462164e-01 7.828123e-01 8.454187e-01 7.856999e-01 8.416177e-01 7.923901e-01 8.350018e-01 8.043889e-01 8.274238e-01 8.245939e-01 8.251010e-01 8.601941e-01 8.442287e-01 9.267992e-01 9.874427e-01 1.695922e+00 1.010658e+00 9.454560e-02 -8.634466e-02 -2.864262e-02 2.093549e-04 
2.490539e-03 7.079596e-03 5.324827e-03 -8.688417e-03 2.089174e-04 1.562516e-01 1.515876e-01 4.864023e-02 8.488776e-02 8.903422e-02 2.292970e-01 6.706025e-01 1.029782e+00 7.807632e-01 5.551512e-01 5.546097e-01 5.549181e-01 5.547104e-01 5.547892e-01 5.556930e-01 9.653158e-01 1.059478e+00 3.317297e-01 2.891237e-02 2.409097e-02 5.940933e-02 6.879833e-02 7.996459e-02 7.801242e-02 8.357430e-02 7.988114e-02 8.333739e-02 7.977676e-02 8.204600e-02 7.918853e-02 8.047402e-02 7.837380e-02 7.864266e-02 7.715425e-02 7.630954e-02 7.519302e-02 7.312148e-02 7.206473e-02 6.863312e-02 6.723324e-02 6.225080e-02 5.998726e-02 5.321614e-02 4.961803e-02 4.134476e-02 3.755239e-02 3.125332e-02 2.894276e-02 1.567719e-02 6.594786e-02 7.029456e-01 3.057816e+00 4.061600e+00 1.547519e+00 8.830554e-01 1.455441e+00 8.770982e-01 1.190543e+00 1.108748e+00 1.017710e+00 1.377653e+00 1.282598e+00 1.465465e+00 1.989495e+00 1.613925e+00 9.060224e-01 2.372437e+00 4.177037e+00 2.400329e+00 1.741871e-01 2.588895e-02 8.199996e-02 8.818775e-02 7.978062e-02 7.372123e-02 7.025617e-02 6.970670e-02 6.933890e-02 7.070060e-02 7.132865e-02 7.309649e-02 7.387560e-02 7.540989e-02 7.603139e-02 7.716119e-02 7.753253e-02 7.833221e-02 7.842152e-02 7.908104e-02 7.883957e-02 7.958631e-02 7.892851e-02 7.999331e-02 7.879404e-02 8.039944e-02 7.851037e-02 8.085205e-02 7.814088e-02 8.135553e-02 7.774681e-02 8.189103e-02 7.740322e-02 8.243555e-02 7.723362e-02 8.301396e-02 7.747320e-02 8.381265e-02 7.861936e-02 8.541055e-02 8.170839e-02 8.917550e-02 8.869119e-02 9.753229e-02 1.015326e-01 1.109341e-01 1.192399e-01 1.522601e-01 1.957417e-01 5.107063e-02 -3.312458e-02 -2.207451e-02 -7.715632e-03 -1.433902e-03 
-3.760094e-04 1.306283e-03 2.637022e-03 1.427459e-03 -2.579394e-03 -1.758455e-03 5.314090e-03 5.088731e-03 1.170354e-02 2.695401e-02 9.193006e-02 3.274111e-01 5.014755e-01 3.880077e-01 2.768593e-01 2.767124e-01 2.767122e-01 2.767121e-01 2.767130e-01 2.771424e-01 4.934761e-01 5.372296e-01 1.120344e-01 -5.013061e-02 -4.194558e-02 -2.222411e-02 -1.179669e-02 -6.717798e-03 -4.018689e-03 -2.504582e-03 -1.849848e-03 -1.598764e-03 -1.650171e-03 -1.856999e-03 -2.137215e-03 -2.551538e-03 -2.958572e-03 -3.552762e-03 -4.117295e-03 -4.929701e-03 -5.703885e-03 -6.756202e-03 -7.742974e-03 -8.974773e-03 -1.006248e-02 -1.125722e-02 -1.211898e-02 -1.273989e-02 -1.253929e-02 -1.119570e-02 -7.567708e-03 -2.365794e-04 1.224853e-02 2.701523e-02 3.819919e-02 8.580517e-02 3.386129e-01 7.603579e-01 7.732102e-01 6.103130e-01 6.534660e-01 5.664962e-01 4.977396e-01 4.390383e-01 3.438478e-01 3.029783e-01 2.267720e-01 1.812117e-01 1.750578e-01 6.819219e-02 6.482608e-02 3.034128e-01 4.087471e-01 2.164016e-01 6.232878e-02 5.641818e-02 4.771452e-02 3.053915e-02 1.596158e-02 6.208567e-03 -2.017871e-04 -3.984358e-03 -6.212772e-03 -7.087664e-03 -7.313280e-03 -6.935960e-03 -6.394667e-03 -5.667807e-03 -4.988139e-03 -4.323862e-03 -3.756681e-03 -3.283660e-03 -2.880262e-03 -2.593074e-03 -2.325058e-03 -2.173978e-03 -1.997845e-03 -1.930107e-03 -1.812723e-03 -1.785223e-03 -1.708861e-03 -1.688701e-03 -1.648173e-03 -1.609375e-03 -1.606436e-03 -1.525224e-03 -1.560219e-03 -1.407253e-03 -1.464913e-03 -1.189614e-03 -1.213690e-03 -7.146934e-04 -5.683212e-04 3.469558e-04 9.152831e-04 2.533110e-03 3.814902e-03 6.281898e-03 8.005214e-03 1.008341e-02 9.941580e-03 1.109285e-02 9.644617e-03 -1.995960e-03 -4.702930e-03 -2.600413e-03 -1.988356e-03 -1.347489e-03 
-1.154013e-05 -8.920284e-06 -9.155425e-06 -7.312385e-06 -7.407933e-06 -7.040078e-06 -7.621178e-06 -1.005070e-05 -1.232065e-05 -1.359120e-05 -2.375036e-05 -6.084569e-05 -1.198392e-04 1.254672e-04 1.740677e-07 6.065931e-10 8.144479e-10 6.837615e-10 2.014403e-09 7.231286e-07 3.752980e-04 -3.379312e-03 1.232149e-04 5.681624e-04 3.163430e-04 1.362814e-04 7.103272e-06 -8.877311e-05 -1.804758e-04 -2.693797e-04 -3.678125e-04 -4.845179e-04 -6.257355e-04 -8.069872e-04 -1.029469e-03 -1.315889e-03 -1.661939e-03 -2.095925e-03 -2.604095e-03 -3.213156e-03 -3.891048e-03 -4.647679e-03 -5.419962e-03 -6.178352e-03 -6.815178e-03 -7.230945e-03 -7.253291e-03 -6.659760e-03 -5.159089e-03 -2.302453e-03 2.449124e-03 9.962928e-03 2.112976e-02 3.637896e-02 5.377028e-02 7.114429e-02 9.698965e-02 1.422881e-01 1.733531e-01 1.727784e-01 1.683726e-01 1.552484e-01 1.368911e-01 1.203027e-01 1.038596e-01 9.258422e-02 8.479336e-02 8.314052e-02 8.845470e-02 9.334328e-02 1.051353e-01 1.198093e-01 1.132824e-01 8.943674e-02 7.202937e-02 5.838136e-02 4.282713e-02 2.880048e-02 1.773994e-02 9.548381e-03 3.654574e-03 -2.927895e-04 -2.772508e-03 -4.086082e-03 -4.617508e-03 -4.592719e-03 -4.255794e-03 -3.743244e-03 -3.174765e-03 -2.616820e-03 -2.106716e-03 -1.669173e-03 -1.300208e-03 -1.005575e-03 -7.675473e-04 -5.856977e-04 -4.421271e-04 -3.353750e-04 -2.519402e-04 -1.906801e-04 -1.428208e-04 -1.076411e-04 -7.997359e-05 -5.940938e-05 -4.304951e-05 -3.074984e-05 -2.079170e-05 -1.334560e-05 -7.156350e-06 -2.815594e-06 8.780044e-07 2.816761e-06 4.397196e-06 3.982098e-06 3.437887e-06 6.440167e-07 -1.566475e-06 -5.913123e-06 -7.833599e-06 -1.139897e-05 -9.897137e-06 -1.130630e-05 -9.334903e-06 -1.253096e-05 -1.499004e-05 -1.278109e-05 -1.431521e-05 -1.103810e-05 
3.516143e-04 -1.325174e-03 -2.654323e-03 -1.439696e-03 2.570978e-03 1.748278e-03 -5.322681e-03 -5.103794e-03 -1.172698e-02 -2.698256e-02 -9.198587e-02 -3.275250e-01 -5.014571e-01 -3.880592e-01 -2.768593e-01 -2.767124e-01 -2.767122e-01 -2.767121e-01 -2.767130e-01 -2.771435e-01 -4.940444e-01 -5.465373e-01 -1.122666e-01 5.123651e-02 4.257430e-02 2.250426e-02 1.182282e-02 6.580454e-03 3.707647e-03 2.043920e-03 1.200919e-03 7.441809e-04 5.216780e-04 3.934716e-04 2.365522e-04 1.014028e-04 -1.825011e-04 -4.492869e-04 -9.246030e-04 -1.369756e-03 -2.042834e-03 -2.654959e-03 -3.463565e-03 -4.139868e-03 -4.908815e-03 -5.406231e-03 -5.798867e-03 -5.688427e-03 -5.158464e-03 -3.777009e-03 -1.521658e-03 2.047251e-03 7.049259e-03 1.375493e-02 2.191912e-02 3.070298e-02 3.962820e-02 4.867790e-02 5.634694e-02 5.954401e-02 5.882993e-02 5.550489e-02 5.079444e-02 4.633068e-02 4.291151e-02 4.153259e-02 4.247444e-02 4.587629e-02 5.144062e-02 5.770328e-02 6.294081e-02 6.488946e-02 6.236858e-02 5.643873e-02 4.826913e-02 3.838710e-02 2.828557e-02 1.929880e-02 1.184523e-02 6.129575e-03 1.945505e-03 -7.819155e-04 -2.440894e-03 -3.164459e-03 -3.344324e-03 -3.052313e-03 -2.603814e-03 -1.977838e-03 -1.410911e-03 -8.024072e-04 -3.403458e-04 1.290555e-04 4.347507e-04 7.594992e-04 9.323093e-04 1.145210e-03 1.228059e-03 1.362414e-03 1.395048e-03 1.472371e-03 1.486117e-03 1.515390e-03 1.533950e-03 1.514142e-03 1.554471e-03 1.476020e-03 1.545583e-03 1.387091e-03 1.473384e-03 1.188515e-03 1.235686e-03 7.248631e-04 5.951431e-04 -3.340965e-04 -8.934752e-04 -2.527900e-03 -3.808356e-03 -6.293631e-03 -8.018292e-03 -1.010952e-02 -9.956824e-03 -1.111632e-02 -9.662015e-03 1.963344e-03 4.661206e-03 2.567575e-03 1.954096e-03 1.322509e-03 
-2.521838e-03 -7.101989e-03 -5.339831e-03 8.687203e-03 -2.227922e-04 -1.563447e-01 -1.515571e-01 -4.857190e-02 -8.495041e-02 -8.904569e-02 -2.293873e-01 -6.707274e-01 -1.029896e+00 -7.805288e-01 -5.551534e-01 -5.546115e-01 -5.549204e-01 -5.547159e-01 -5.547904e-01 -5.556964e-01 -9.636955e-01 -1.065149e+00 -3.317587e-01 -2.824999e-02 -2.382979e-02 -5.937748e-02 -6.895892e-02 -8.023026e-02 -7.843440e-02 -8.411650e-02 -8.061928e-02 -8.427806e-02 -8.101716e-02 -8.365578e-02 -8.127971e-02 -8.321726e-02 -8.189010e-02 -8.325305e-02 -8.298269e-02 -8.388201e-02 -8.462354e-02 -8.518794e-02 -8.685660e-02 -8.720922e-02 -8.965948e-02 -8.987571e-02 -9.287310e-02 -9.293759e-02 -9.613158e-02 -9.589651e-02 -9.879708e-02 -9.796540e-02 -9.998270e-02 -9.821878e-02 -9.892112e-02 -9.619577e-02 -9.563819e-02 -9.283256e-02 -9.454093e-02 -9.339161e-02 -9.442934e-02 -9.508818e-02 -9.609198e-02 -9.611334e-02 -9.600727e-02 -9.401065e-02 -9.155635e-02 -8.745698e-02 -8.217550e-02 -7.701715e-02 -7.201358e-02 -7.048085e-02 -6.837590e-02 -6.895649e-02 -7.146193e-02 -7.558689e-02 -7.948538e-02 -8.318178e-02 -8.571710e-02 -8.753073e-02 -8.838798e-02 -8.846832e-02 -8.824539e-02 -8.724082e-02 -8.665218e-02 -8.517573e-02 -8.470885e-02 -8.316406e-02 -8.301365e-02 -8.161586e-02 -8.174930e-02 -8.061381e-02 -8.086602e-02 -8.008711e-02 -8.023351e-02 -7.992696e-02 -7.972602e-02 -8.003794e-02 -7.925505e-02 -8.034717e-02 -7.877507e-02 -8.079662e-02 -7.827859e-02 -8.133405e-02 -7.779110e-02 -8.190921e-02 -7.737340e-02 -8.248495e-02 -7.714261e-02 -8.308232e-02 -7.733482e-02 -8.389026e-02 -7.844931e-02 -8.549479e-02 -8.152798e-02 -8.927531e-02 -8.852761e-02 -9.766804e-02 -1.014108e-01 -1.111142e-01 -1.191104e-01 -1.525532e-01 -1.955634e-01 -5.100351e-02 3.306361e-02 2.202054e-02 7.655431e-03 1.394616e-03 
-6.072481e-03 -1.605881e-03 2.309327e-02 -7.417789e-03 -5.274284e-01 -2.419422e+00 -1.263767e+00 -2.608016e-01 -9.454908e-01 -6.206223e-01 -9.519732e-01 -9.697119e-01 -1.050423e+00 -9.507660e-01 -8.664884e-01 -8.606738e-01 -8.682480e-01 -8.633315e-01 -8.649414e-01 -8.682090e-01 -9.951597e-01 -9.818365e-01 -8.889045e-01 -8.188471e-01 -7.342152e-01 -8.324802e-01 -7.690045e-01 -8.480482e-01 -7.817471e-01 -8.497632e-01 -7.891339e-01 -8.471578e-01 -7.954873e-01 -8.430184e-01 -8.020264e-01 -8.385423e-01 -8.090194e-01 -8.345075e-01 -8.165858e-01 -8.316130e-01 -8.248537e-01 -8.305262e-01 -8.339999e-01 -8.318830e-01 -8.443420e-01 -8.364091e-01 -8.562974e-01 -8.445022e-01 -8.697932e-01 -8.558070e-01 -8.840846e-01 -8.689246e-01 -8.970112e-01 -8.803868e-01 -9.043262e-01 -8.842341e-01 -8.994079e-01 -8.792116e-01 -9.127055e-01 -8.976196e-01 -9.113802e-01 -9.051300e-01 -9.103948e-01 -9.037456e-01 -9.107182e-01 -9.024081e-01 -9.097577e-01 -9.084142e-01 -9.120594e-01 -9.214688e-01 -9.290152e-01 -9.507343e-01 -9.389641e-01 -9.260860e-01 -9.134838e-01 -9.038341e-01 -8.936890e-01 -8.855602e-01 -8.762626e-01 -8.682972e-01 -8.608971e-01 -8.528726e-01 -8.482229e-01 -8.401475e-01 -8.383914e-01 -8.305086e-01 -8.310985e-01 -8.240282e-01 -8.257232e-01 -8.203887e-01 -8.213144e-01 -8.190571e-01 -8.171341e-01 -8.196961e-01 -8.127235e-01 -8.219375e-01 -8.078559e-01 -8.255798e-01 -8.026792e-01 -8.302892e-01 -7.972915e-01 -8.353881e-01 -7.919860e-01 -8.402373e-01 -7.873862e-01 -8.441759e-01 -7.842527e-01 -8.464035e-01 -7.833060e-01 -8.460665e-01 -7.853791e-01 -8.426939e-01 -7.914919e-01 -8.363775e-01 -8.029640e-01 -8.289524e-01 -8.228169e-01 -8.268062e-01 -8.581716e-01 -8.461059e-01 -9.244429e-01 -9.914332e-01 -1.692988e+00 -1.009075e+00 -9.450583e-02 8.645420e-02 2.857863e-02 -2.799349e-04 
-6.106465e-03 1.082005e-02 -3.424518e-02 -6.499453e-01 -2.645502e+00 -4.408088e+00 -1.970175e+00 -1.218509e+00 -1.925507e+00 -1.503342e+00 -1.779348e+00 -1.449325e+00 -1.788251e+00 -1.585326e+00 -1.732364e+00 -1.610230e+00 -1.728977e+00 -1.657289e+00 -1.679705e+00 -1.686003e+00 -1.670929e+00 -1.648436e+00 -1.554550e+00 -1.781856e+00 -1.599361e+00 -1.820628e+00 -1.664916e+00 -1.837683e+00 -1.710508e+00 -1.835203e+00 -1.744758e+00 -1.824024e+00 -1.773424e+00 -1.812073e+00 -1.798235e+00 -1.801866e+00 -1.818758e+00 -1.795861e+00 -1.836251e+00 -1.796194e+00 -1.851876e+00 -1.803765e+00 -1.866184e+00 -1.818396e+00 -1.881547e+00 -1.843514e+00 -1.903658e+00 -1.880950e+00 -1.933272e+00 -1.928682e+00 -1.971746e+00 -1.986787e+00 -2.019018e+00 -2.050020e+00 -2.069364e+00 -2.109473e+00 -2.111521e+00 -2.152470e+00 -2.162827e+00 -2.200634e+00 -2.187593e+00 -2.216472e+00 -2.195468e+00 -2.206872e+00 -2.193333e+00 -2.186820e+00 -2.183602e+00 -2.166809e+00 -2.173783e+00 -2.150301e+00 -2.175247e+00 -2.148662e+00 -2.163827e+00 -2.086127e+00 -2.101273e+00 -2.020576e+00 -2.042520e+00 -1.966150e+00 -1.991189e+00 -1.924696e+00 -1.947619e+00 -1.895395e+00 -1.909030e+00 -1.875601e+00 -1.874008e+00 -1.864479e+00 -1.844264e+00 -1.863502e+00 -1.822122e+00 -1.869913e+00 -1.803921e+00 -1.877267e+00 -1.788200e+00 -1.883425e+00 -1.775526e+00 -1.885575e+00 -1.767052e+00 -1.885237e+00 -1.767404e+00 -1.882854e+00 -1.774707e+00 -1.874149e+00 -1.786287e+00 -1.858971e+00 -1.802500e+00 -1.839794e+00 -1.823324e+00 -1.818414e+00 -1.845478e+00 -1.795299e+00 -1.866346e+00 -1.774762e+00 -1.884600e+00 -1.759271e+00 -1.895684e+00 -1.752284e+00 -1.898291e+00 -1.760819e+00 -1.888765e+00 -1.798380e+00 -1.868059e+00 -2.036550e+00 -2.762136e+00 -3.614786e+00 -1.817326e+00 7.327378e-02 9.622018e-02 1.223078e-02 
1.419113e-03 2.808266e-02 -2.851921e-02 -8.463683e-01 -3.045896e+00 -1.224194e+00 -1.464478e-01 -1.321727e+00 -6.466978e-01 -9.202709e-01 -6.415876e-01 -4.820713e-01 -4.044956e-01 -1.899815e-01 -4.739604e-01 -2.597797e-01 -3.741524e-01 -2.312510e-01 -3.782693e-01 -3.947780e-01 -1.743312e-01 -6.063287e-01 -4.657578e-01 -7.844643e-01 -7.434575e-01 -8.761187e-01 -8.183612e-01 -8.880297e-01 -8.691566e-01 -8.829615e-01 -9.061234e-01 -8.712986e-01 -9.346617e-01 -8.622953e-01 -9.564830e-01 -8.579439e-01 -9.707966e-01 -8.603115e-01 -9.795058e-01 -8.710293e-01 -9.844052e-01 -8.899416e-01 -9.862995e-01 -9.153408e-01 -9.884878e-01 -9.508919e-01 -9.991002e-01 -9.984499e-01 -1.019533e+00 -1.055458e+00 -1.053375e+00 -1.124786e+00 -1.104997e+00 -1.205812e+00 -1.175065e+00 -1.299015e+00 -1.263277e+00 -1.391439e+00 -1.320963e+00 -1.424102e+00 -1.364512e+00 -1.429982e+00 -1.379752e+00 -1.417355e+00 -1.374580e+00 -1.386846e+00 -1.359521e+00 -1.334010e+00 -1.330434e+00 -1.261204e+00 -1.273181e+00 -1.160037e+00 -1.202165e+00 -1.103662e+00 -1.161825e+00 -1.057776e+00 -1.123645e+00 -1.021393e+00 -1.088772e+00 -9.994760e-01 -1.057085e+00 -9.893037e-01 -1.024173e+00 -9.863724e-01 -9.891614e-01 -9.897746e-01 -9.565713e-01 -1.002232e+00 -9.320209e-01 -1.020235e+00 -9.121916e-01 -1.034735e+00 -8.965131e-01 -1.042840e+00 -8.868778e-01 -1.040735e+00 -8.855742e-01 -1.031050e+00 -8.994235e-01 -1.015168e+00 -9.252394e-01 -9.880657e-01 -9.580469e-01 -9.511345e-01 -9.967053e-01 -9.100007e-01 -1.039085e+00 -8.696890e-01 -1.078059e+00 -8.334648e-01 -1.107417e+00 -8.099995e-01 -1.123025e+00 -8.045706e-01 -1.116582e+00 -8.221053e-01 -1.085144e+00 -8.678462e-01 -1.021306e+00 -9.389276e-01 -9.106123e-01 -1.003961e+00 -1.737183e-01 -3.217054e+00 -2.722467e+00 -1.316129e-01 8.989246e-02 1.643614e-02 
6.015400e-03 1.411588e-02 -1.856494e-02 -3.659617e-01 -9.554222e-01 1.991699e+00 1.381133e+00 -2.346369e-01 8.537867e-01 2.872541e-01 6.192591e-01 6.122772e-02 4.959355e-01 3.535926e-01 1.030061e+00 8.040275e-01 8.793319e-01 7.756727e-01 8.893054e-01 8.671685e-01 4.267000e-01 5.656320e-01 2.815527e-01 5.012744e-01 4.806814e-01 5.324767e-01 4.607925e-01 5.289895e-01 4.484398e-01 5.314574e-01 4.418087e-01 5.336257e-01 4.386136e-01 5.327454e-01 4.383752e-01 5.288162e-01 4.413571e-01 5.218892e-01 4.468035e-01 5.121594e-01 4.539453e-01 5.004133e-01 4.623777e-01 4.879390e-01 4.709013e-01 4.741053e-01 4.766797e-01 4.586469e-01 4.789863e-01 4.422355e-01 4.757674e-01 4.226003e-01 4.634726e-01 3.967804e-01 4.378032e-01 3.580398e-01 3.902482e-01 3.066577e-01 3.759444e-01 3.144904e-01 3.571355e-01 3.212546e-01 3.499870e-01 3.252546e-01 3.528685e-01 3.370573e-01 3.587041e-01 3.687146e-01 3.778361e-01 4.223791e-01 4.331481e-01 5.166828e-01 4.944889e-01 5.233244e-01 4.816707e-01 5.119014e-01 4.687709e-01 5.020219e-01 4.606017e-01 4.909586e-01 4.567531e-01 4.794277e-01 4.580525e-01 4.685575e-01 4.636941e-01 4.581686e-01 4.709125e-01 4.469844e-01 4.766440e-01 4.360690e-01 4.810596e-01 4.285245e-01 4.836061e-01 4.254187e-01 4.830962e-01 4.280915e-01 4.783923e-01 4.355732e-01 4.670390e-01 4.471287e-01 4.502871e-01 4.639536e-01 4.303347e-01 4.847918e-01 4.083910e-01 5.066708e-01 3.862834e-01 5.265762e-01 3.677340e-01 5.419305e-01 3.562061e-01 5.482883e-01 3.542832e-01 5.424605e-01 3.652831e-01 5.214316e-01 3.886424e-01 4.812893e-01 4.188408e-01 4.160674e-01 4.221440e-01 4.103239e-01 1.599909e+00 -2.160170e-01 -7.905530e-01 2.606713e-03 5.416523e-02 1.445446e-02 
5.424956e-03 7.505658e-03 3.884747e-03 -3.588700e-02 -9.389936e-03 9.647913e-01 6.787803e-01 1.571049e-01 4.872624e-01 2.993756e-01 3.996272e-01 4.239424e-02 -3.785814e-01 -1.221023e+00 -1.691411e+00 -1.703648e+00 -1.485195e+00 -1.693185e+00 -1.515603e+00 -1.610045e+00 -1.393476e+00 -3.139001e-01 1.215365e-01 3.540704e-01 3.337705e-01 3.697518e-01 3.307902e-01 3.704590e-01 3.346040e-01 3.718490e-01 3.381246e-01 3.716127e-01 3.414606e-01 3.701668e-01 3.447726e-01 3.678834e-01 3.481180e-01 3.651424e-01 3.514987e-01 3.623112e-01 3.548980e-01 3.597567e-01 3.583332e-01 3.578556e-01 3.618708e-01 3.569562e-01 3.655722e-01 3.572504e-01 3.693177e-01 3.585140e-01 3.724849e-01 3.597627e-01 3.736779e-01 3.588620e-01 3.690910e-01 3.489197e-01 3.546135e-01 3.392525e-01 3.587361e-01 3.483810e-01 3.587192e-01 3.518410e-01 3.540592e-01 3.478475e-01 3.512848e-01 3.457092e-01 3.505704e-01 3.543555e-01 3.673644e-01 3.978605e-01 4.312483e-01 4.681546e-01 4.612677e-01 4.490535e-01 4.264568e-01 4.124185e-01 3.949938e-01 3.889787e-01 3.773701e-01 3.752429e-01 3.675682e-01 3.668010e-01 3.623991e-01 3.613890e-01 3.598546e-01 3.576957e-01 3.586600e-01 3.550598e-01 3.580026e-01 3.532267e-01 3.573721e-01 3.521710e-01 3.564480e-01 3.519651e-01 3.550265e-01 3.526857e-01 3.529783e-01 3.543571e-01 3.502530e-01 3.569115e-01 3.469108e-01 3.601618e-01 3.431413e-01 3.637909e-01 3.392598e-01 3.673483e-01 3.357006e-01 3.702635e-01 3.329852e-01 3.718751e-01 3.316530e-01 3.714643e-01 3.321376e-01 3.682701e-01 3.344998e-01 3.614471e-01 3.378801e-01 3.499242e-01 3.388657e-01 3.314482e-01 3.227594e-01 3.622393e-01 7.315768e-01 3.369900e-01 4.911269e-02 2.837795e-02 1.465588e-02 6.653185e-03 
