# vtk DataFile Version 2.0
Comment goes here
ASCII

DATASET STRUCTURED_POINTS
FIELD FieldData 1
TIME 1 1 double
0.75000000
DIMENSIONS    128   16   1

ORIGIN    0.000   0.000   0.000
SPACING   0.0078125 0.015625   1.000

POINT_DATA   2048
SCALARS P double
LOOKUP_TABLE default

1.050168e+00 1.033262e+00 1.052862e+00 1.041941e+00 1.052216e+00 1.050802e+00 1.047865e+00 1.065644e+00 1.046266e+00 1.072580e+00 1.042137e+00 1.070200e+00 1.028721e+00 1.049658e+00 9.911764e-01 1.002599e+00 9.430858e-01 9.476583e-01 8.922269e-01 8.959518e-01 8.479777e-01 8.562841e-01 8.299946e-01 8.418400e-01 8.277804e-01 8.383582e-01 8.322823e-01 8.398745e-01 8.395930e-01 8.436647e-01 8.477207e-01 8.483059e-01 8.556768e-01 8.533127e-01 8.633595e-01 8.589055e-01 8.711127e-01 8.653495e-01 8.790192e-01 8.723895e-01 8.866636e-01 8.794253e-01 8.936435e-01 8.861660e-01 9.000911e-01 8.928537e-01 9.065026e-01 8.998009e-01 9.131233e-01 9.068479e-01 9.196186e-01 9.133488e-01 9.253238e-01 9.185485e-01 9.295588e-01 9.216135e-01 9.312355e-01 9.206154e-01 9.275576e-01 9.180393e-01 9.264651e-01 9.148874e-01 9.237364e-01 9.118759e-01 9.207186e-01 9.086181e-01 9.179134e-01 9.059817e-01 9.165688e-01 9.060748e-01 9.187803e-01 9.125624e-01 9.323823e-01 9.263137e-01 9.426122e-01 9.330965e-01 9.488130e-01 9.375348e-01 9.537195e-01 9.410710e-01 9.580574e-01 9.440105e-01 9.620328e-01 9.465847e-01 9.659301e-01 9.491560e-01 9.700029e-01 9.519563e-01 9.742088e-01 9.549238e-01 9.782108e-01 9.578498e-01 9.816707e-01 9.607085e-01 9.845636e-01 9.637891e-01 9.871306e-01 9.674314e-01 9.895548e-01 9.716919e-01 9.917700e-01 9.762879e-01 9.935988e-01 9.808616e-01 9.950920e-01 9.852822e-01 9.966825e-01 9.896156e-01 9.989237e-01 9.937753e-01 1.002100e+00 9.973448e-01 1.006216e+00 9.998649e-01 1.011308e+00 1.001227e+00 1.017584e+00 1.001769e+00 1.025161e+00 1.002155e+00 1.033662e+00 1.003655e+00 1.041984e+00 1.009895e+00 1.043880e+00 1.016193e+00 1.046473e+00 1.024284e+00 
8.933160e-01 8.812940e-01 8.923793e-01 8.845916e-01 8.878742e-01 8.866293e-01 8.773389e-01 8.987930e-01 8.751968e-01 9.028695e-01 8.759316e-01 9.016025e-01 8.783616e-01 8.939198e-01 8.819160e-01 8.913973e-01 8.877689e-01 8.902577e-01 8.938755e-01 8.892757e-01 8.979210e-01 8.872516e-01 8.955169e-01 8.864526e-01 8.958830e-01 8.864292e-01 8.980884e-01 8.872835e-01 9.014508e-01 8.886559e-01 9.050084e-01 8.899765e-01 9.080823e-01 8.911211e-01 9.107408e-01 8.926691e-01 9.136960e-01 8.953571e-01 9.173138e-01 8.989921e-01 9.209109e-01 9.025585e-01 9.236535e-01 9.055165e-01 9.256401e-01 9.082926e-01 9.276801e-01 9.115874e-01 9.303796e-01 9.154539e-01 9.333161e-01 9.187924e-01 9.350840e-01 9.200084e-01 9.342236e-01 9.174502e-01 9.284853e-01 9.071068e-01 9.116327e-01 8.929360e-01 9.017211e-01 8.812763e-01 8.906223e-01 8.714077e-01 8.810035e-01 8.630090e-01 8.746687e-01 8.589045e-01 8.730395e-01 8.605685e-01 8.761568e-01 8.669052e-01 8.880107e-01 8.802081e-01 8.973340e-01 8.853575e-01 9.013795e-01 8.876439e-01 9.037994e-01 8.890520e-01 9.055047e-01 8.895957e-01 9.062701e-01 8.890555e-01 9.061263e-01 8.877121e-01 9.054825e-01 8.861640e-01 9.048952e-01 8.850477e-01 9.046479e-01 8.844633e-01 9.042816e-01 8.838820e-01 9.031120e-01 8.830702e-01 9.011709e-01 8.824860e-01 8.989330e-01 8.825275e-01 8.966224e-01 8.831413e-01 8.941552e-01 8.839084e-01 8.913829e-01 8.845102e-01 8.886773e-01 8.850863e-01 8.866737e-01 8.854869e-01 8.854437e-01 8.850147e-01 8.848668e-01 8.832896e-01 8.853385e-01 8.805763e-01 8.874399e-01 8.772257e-01 8.912752e-01 8.735000e-01 8.963617e-01 8.701560e-01 9.014397e-01 8.709874e-01 8.956442e-01 8.734133e-01 8.935217e-01 8.771410e-01 
1.052073e+00 1.033770e+00 1.059428e+00 1.041496e+00 1.059438e+00 1.038438e+00 1.042100e+00 1.081360e+00 1.051287e+00 1.091239e+00 1.060802e+00 1.106638e+00 1.077149e+00 1.102878e+00 1.012425e+00 1.018630e+00 9.488290e-01 9.415236e-01 8.793157e-01 8.722419e-01 7.957721e-01 8.062270e-01 7.986594e-01 8.200779e-01 8.143030e-01 8.283535e-01 8.265655e-01 8.352764e-01 8.378043e-01 8.417619e-01 8.478294e-01 8.473531e-01 8.561385e-01 8.520162e-01 8.632021e-01 8.569466e-01 8.706749e-01 8.637883e-01 8.795411e-01 8.723088e-01 8.884819e-01 8.804728e-01 8.957540e-01 8.872020e-01 9.015212e-01 8.934487e-01 9.074658e-01 9.008907e-01 9.151531e-01 9.102624e-01 9.244381e-01 9.203759e-01 9.338367e-01 9.303030e-01 9.439180e-01 9.425299e-01 9.575828e-01 9.307201e-01 9.187939e-01 9.222777e-01 9.337505e-01 9.141580e-01 9.235041e-01 9.107651e-01 9.160770e-01 9.016003e-01 9.058488e-01 8.881827e-01 8.943148e-01 8.723152e-01 8.647103e-01 8.779461e-01 9.451970e-01 9.551905e-01 9.604394e-01 9.428623e-01 9.541673e-01 9.394790e-01 9.549107e-01 9.414160e-01 9.591272e-01 9.449308e-01 9.636030e-01 9.476315e-01 9.670265e-01 9.491237e-01 9.696628e-01 9.503095e-01 9.727277e-01 9.526796e-01 9.771841e-01 9.565734e-01 9.821174e-01 9.605293e-01 9.857266e-01 9.635821e-01 9.878545e-01 9.665736e-01 9.895394e-01 9.704674e-01 9.913723e-01 9.754109e-01 9.932320e-01 9.806989e-01 9.945680e-01 9.856924e-01 9.958164e-01 9.908194e-01 9.979906e-01 9.958927e-01 1.000843e+00 9.995621e-01 1.003889e+00 1.001317e+00 1.008001e+00 1.001905e+00 1.014399e+00 1.001641e+00 1.023233e+00 9.998474e-01 1.034103e+00 9.941052e-01 1.054779e+00 1.009657e+00 1.042383e+00 1.012521e+00 1.044176e+00 1.022420e+00 
8.961367e-01 8.846049e-01 9.065435e-01 8.894851e-01 9.117639e-01 8.807690e-01 9.058375e-01 9.793871e-01 9.478753e-01 9.890577e-01 9.728488e-01 1.007723e+00 9.940837e-01 9.425028e-01 7.304053e-01 6.079755e-01 4.496435e-01 2.865587e-01 1.445012e-01 -4.373412e-03 -1.943259e-01 -2.652413e-01 -2.413295e-01 -2.468054e-01 -2.205538e-01 -2.266496e-01 -1.984435e-01 -2.051362e-01 -1.754247e-01 -1.827402e-01 -1.521404e-01 -1.600257e-01 -1.290598e-01 -1.372717e-01 -1.062025e-01 -1.142601e-01 -8.312585e-02 -9.056235e-02 -5.955484e-02 -6.632849e-02 -3.597631e-02 -4.228842e-02 -1.296249e-02 -1.882952e-02 9.585061e-03 4.424389e-03 3.231119e-02 2.812886e-02 5.588342e-02 5.270086e-02 8.044282e-02 7.801010e-02 1.058027e-01 1.042339e-01 1.327571e-01 1.332432e-01 1.606589e-01 7.355380e-02 5.410628e-03 1.700429e-02 2.375117e-02 -3.549570e-02 -2.862264e-02 -6.252493e-02 -6.266693e-02 -9.264512e-02 -9.298007e-02 -1.167789e-01 -1.004332e-01 -1.182635e-01 -1.051699e-01 2.012377e-02 2.615331e-01 3.478737e-01 3.671424e-01 3.585823e-01 3.811203e-01 3.738863e-01 3.987109e-01 3.922986e-01 4.183607e-01 4.119914e-01 4.385644e-01 4.317664e-01 4.585617e-01 4.512230e-01 4.782439e-01 4.705304e-01 4.979566e-01 4.901808e-01 5.180278e-01 5.103273e-01 5.381613e-01 5.304983e-01 5.577431e-01 5.503822e-01 5.767462e-01 5.703172e-01 5.955776e-01 5.907025e-01 6.145192e-01 6.116524e-01 6.336023e-01 6.329344e-01 6.526776e-01 6.542734e-01 6.719054e-01 6.757101e-01 6.916289e-01 6.970433e-01 7.117671e-01 7.176792e-01 7.321862e-01 7.373477e-01 7.532646e-01 7.562399e-01 7.755506e-01 7.743636e-01 7.994236e-01 7.911243e-01 8.261638e-01 8.007821e-01 8.835231e-01 8.705813e-01 8.806522e-01 8.680713e-01 8.857408e-01 8.753277e-01 
1.056149e+00 1.048761e+00 1.095365e+00 1.084054e+00 1.139296e+00 1.123085e+00 1.197310e+00 1.236634e+00 1.283497e+00 1.286022e+00 1.353641e+00 1.337500e+00 1.417417e+00 1.321553e+00 5.894155e-01 2.079221e-01 -3.416458e-01 -8.291248e-01 -1.356379e+00 -1.767821e+00 -2.505174e+00 -2.560943e+00 -2.503139e+00 -2.501689e+00 -2.446589e+00 -2.438323e+00 -2.386171e+00 -2.373456e+00 -2.324118e+00 -2.307495e+00 -2.260419e+00 -2.239982e+00 -2.194800e+00 -2.171064e+00 -2.127903e+00 -2.102126e+00 -2.061500e+00 -2.035012e+00 -1.996691e+00 -1.969730e+00 -1.932349e+00 -1.904535e+00 -1.866890e+00 -1.838621e+00 -1.800600e+00 -1.773134e+00 -1.735333e+00 -1.710067e+00 -1.673031e+00 -1.650760e+00 -1.614412e+00 -1.595214e+00 -1.559665e+00 -1.544707e+00 -1.512490e+00 -1.505876e+00 -1.485264e+00 -1.559445e+00 -1.614926e+00 -1.596655e+00 -1.580448e+00 -1.607841e+00 -1.572733e+00 -1.571017e+00 -1.528549e+00 -1.512233e+00 -1.458733e+00 -1.425663e+00 -1.349533e+00 -1.303330e+00 -1.211551e+00 -1.052773e+00 -8.290675e-01 -7.354412e-01 -6.888072e-01 -6.664994e-01 -6.197089e-01 -6.004190e-01 -5.537747e-01 -5.362860e-01 -4.893439e-01 -4.721650e-01 -4.243722e-01 -4.066261e-01 -3.582026e-01 -3.397816e-01 -2.914530e-01 -2.727671e-01 -2.254932e-01 -2.071187e-01 -1.613456e-01 -1.431331e-01 -9.811094e-02 -7.927786e-02 -3.396090e-02 -1.446731e-02 3.139216e-02 5.063592e-02 9.707640e-02 1.152072e-01 1.626589e-01 1.791474e-01 2.283910e-01 2.430961e-01 2.949411e-01 3.075520e-01 3.620238e-01 3.719074e-01 4.287814e-01 4.360922e-01 4.955674e-01 5.011515e-01 5.629636e-01 5.673739e-01 6.302700e-01 6.339610e-01 6.965411e-01 7.006800e-01 7.621340e-01 7.682238e-01 8.291737e-01 8.342335e-01 9.189016e-01 9.453348e-01 9.752362e-01 9.806725e-01 1.017424e+00 1.014730e+00 
8.988396e-01 9.054589e-01 9.413182e-01 9.489920e-01 9.895574e-01 1.003314e+00 1.052732e+00 1.070033e+00 1.119124e+00 1.128470e+00 1.181968e+00 1.183978e+00 1.240189e+00 1.231435e+00 3.256075e-01 2.265317e-01 -6.131158e-01 -7.488948e-01 -1.583163e+00 -1.689901e+00 -2.584976e+00 -2.601465e+00 -2.536944e+00 -2.544033e+00 -2.480686e+00 -2.482945e+00 -2.421673e+00 -2.420288e+00 -2.361457e+00 -2.356538e+00 -2.299981e+00 -2.291456e+00 -2.237009e+00 -2.225219e+00 -2.173009e+00 -2.158919e+00 -2.109302e+00 -2.093961e+00 -2.046693e+00 -2.030346e+00 -1.984296e+00 -1.966737e+00 -1.920895e+00 -1.902480e+00 -1.856681e+00 -1.838409e+00 -1.793022e+00 -1.775953e+00 -1.731306e+00 -1.715959e+00 -1.671858e+00 -1.658077e+00 -1.614358e+00 -1.602549e+00 -1.560600e+00 -1.552885e+00 -1.516179e+00 -1.519341e+00 -1.477646e+00 -1.454076e+00 -1.399241e+00 -1.372967e+00 -1.304673e+00 -1.271952e+00 -1.198429e+00 -1.161099e+00 -1.085398e+00 -1.046978e+00 -9.713511e-01 -9.373394e-01 -8.608168e-01 -8.242987e-01 -7.792120e-01 -7.743894e-01 -7.396388e-01 -7.306969e-01 -6.902511e-01 -6.784373e-01 -6.355942e-01 -6.224008e-01 -5.782602e-01 -5.636281e-01 -5.185053e-01 -5.022642e-01 -4.567072e-01 -4.390216e-01 -3.937981e-01 -3.751285e-01 -3.310897e-01 -3.119817e-01 -2.695047e-01 -2.499505e-01 -2.084375e-01 -1.879627e-01 -1.465323e-01 -1.252401e-01 -8.357843e-02 -6.231400e-02 -2.024873e-02 1.544874e-04 4.309348e-02 6.206368e-02 1.066048e-01 1.239005e-01 1.707583e-01 1.860736e-01 2.353176e-01 2.481926e-01 2.996230e-01 3.102812e-01 3.639098e-01 3.731886e-01 4.285738e-01 4.371800e-01 4.930439e-01 5.016868e-01 5.565565e-01 5.665742e-01 6.192535e-01 6.325564e-01 6.820420e-01 7.006445e-01 7.469684e-01 7.746750e-01 8.090145e-01 8.237575e-01 8.565862e-01 8.653652e-01 
1.058163e+00 1.058591e+00 1.112282e+00 1.111940e+00 1.169512e+00 1.170570e+00 1.232486e+00 1.238054e+00 1.300866e+00 1.303163e+00 1.369996e+00 1.368657e+00 1.438784e+00 1.435778e+00 4.526287e-01 3.562560e-01 -5.594944e-01 -6.905583e-01 -1.606551e+00 -1.699533e+00 -2.688634e+00 -2.677098e+00 -2.621559e+00 -2.609032e+00 -2.554814e+00 -2.540635e+00 -2.488176e+00 -2.472009e+00 -2.421487e+00 -2.403097e+00 -2.354489e+00 -2.333799e+00 -2.287020e+00 -2.264208e+00 -2.219192e+00 -2.194684e+00 -2.151336e+00 -2.125618e+00 -2.083646e+00 -2.057057e+00 -2.015938e+00 -1.988727e+00 -1.947958e+00 -1.920493e+00 -1.879782e+00 -1.852563e+00 -1.811776e+00 -1.785248e+00 -1.744224e+00 -1.718552e+00 -1.676924e+00 -1.651856e+00 -1.609008e+00 -1.583823e+00 -1.538740e+00 -1.511728e+00 -1.461980e+00 -1.428430e+00 -1.363022e+00 -1.326781e+00 -1.269369e+00 -1.234140e+00 -1.177965e+00 -1.147213e+00 -1.092145e+00 -1.064357e+00 -1.011611e+00 -9.867315e-01 -9.362250e-01 -9.144835e-01 -8.654578e-01 -8.451822e-01 -7.983167e-01 -7.824803e-01 -7.348947e-01 -7.168260e-01 -6.687773e-01 -6.501926e-01 -6.019130e-01 -5.833044e-01 -5.348489e-01 -5.161715e-01 -4.675525e-01 -4.486653e-01 -4.000150e-01 -3.808777e-01 -3.324233e-01 -3.131141e-01 -2.650718e-01 -2.457120e-01 -1.981145e-01 -1.787430e-01 -1.313408e-01 -1.119587e-01 -6.437360e-02 -4.515726e-02 2.928706e-03 2.159214e-02 7.047918e-02 8.816051e-02 1.382089e-01 1.545486e-01 2.061519e-01 2.208981e-01 2.743764e-01 2.873376e-01 3.427958e-01 3.538634e-01 4.112369e-01 4.205483e-01 4.796731e-01 4.875994e-01 5.481019e-01 5.550923e-01 6.163472e-01 6.228988e-01 6.842104e-01 6.909005e-01 7.517082e-01 7.590535e-01 8.190369e-01 8.272421e-01 8.862142e-01 8.958742e-01 9.480011e-01 9.540270e-01 1.004354e+00 1.007031e+00 
9.006049e-01 9.124721e-01 9.529884e-01 9.652896e-01 1.008266e+00 1.022161e+00 1.068193e+00 1.083717e+00 1.131957e+00 1.148673e+00 1.198903e+00 1.218662e+00 1.270060e+00 1.297305e+00 3.052492e-01 2.943124e-01 -6.646767e-01 -6.917582e-01 -1.647531e+00 -1.663592e+00 -2.646538e+00 -2.628924e+00 -2.567681e+00 -2.557341e+00 -2.496602e+00 -2.489185e+00 -2.429594e+00 -2.422689e+00 -2.364659e+00 -2.356885e+00 -2.300610e+00 -2.291241e+00 -2.236791e+00 -2.225597e+00 -2.172986e+00 -2.160092e+00 -2.109247e+00 -2.094923e+00 -2.045592e+00 -2.030075e+00 -1.981830e+00 -1.965339e+00 -1.917760e+00 -1.900606e+00 -1.853413e+00 -1.835989e+00 -1.789013e+00 -1.771657e+00 -1.724704e+00 -1.707543e+00 -1.660285e+00 -1.643161e+00 -1.595108e+00 -1.577572e+00 -1.527953e+00 -1.508984e+00 -1.456096e+00 -1.433126e+00 -1.372653e+00 -1.348983e+00 -1.294379e+00 -1.271603e+00 -1.218190e+00 -1.197450e+00 -1.144091e+00 -1.124377e+00 -1.071387e+00 -1.051714e+00 -9.986926e-01 -9.780504e-01 -9.255834e-01 -9.035543e-01 -8.451004e-01 -8.257565e-01 -7.743041e-01 -7.576651e-01 -7.090657e-01 -6.932909e-01 -6.459601e-01 -6.302306e-01 -5.835554e-01 -5.674037e-01 -5.211965e-01 -5.043686e-01 -4.586829e-01 -4.410957e-01 -3.960813e-01 -3.777664e-01 -3.335404e-01 -3.145821e-01 -2.711117e-01 -2.515934e-01 -2.086513e-01 -1.886961e-01 -1.459535e-01 -1.258325e-01 -8.295909e-02 -6.308452e-02 -1.972845e-02 -5.338763e-04 4.370411e-02 6.184872e-02 1.073654e-01 1.241851e-01 1.712712e-01 1.865777e-01 2.353166e-01 2.490535e-01 2.993362e-01 3.116929e-01 3.632532e-01 3.746662e-01 4.270175e-01 4.380633e-01 4.904717e-01 5.018035e-01 5.533968e-01 5.657059e-01 6.156227e-01 6.294834e-01 6.769802e-01 6.925329e-01 7.370693e-01 7.535583e-01 7.946618e-01 8.092904e-01 8.486393e-01 8.613881e-01 
1.058929e+00 1.061247e+00 1.116741e+00 1.118677e+00 1.176732e+00 1.179430e+00 1.240277e+00 1.244563e+00 1.307655e+00 1.312900e+00 1.378368e+00 1.386067e+00 1.453220e+00 1.467916e+00 4.326356e-01 3.989563e-01 -5.979899e-01 -6.486738e-01 -1.647924e+00 -1.675447e+00 -2.718641e+00 -2.690340e+00 -2.636498e+00 -2.615141e+00 -2.562023e+00 -2.543218e+00 -2.491360e+00 -2.472822e+00 -2.422513e+00 -2.403066e+00 -2.354404e+00 -2.333503e+00 -2.286464e+00 -2.263974e+00 -2.218463e+00 -2.194502e+00 -2.150338e+00 -2.125141e+00 -2.082035e+00 -2.055854e+00 -2.013436e+00 -1.986533e+00 -1.944437e+00 -1.917100e+00 -1.875015e+00 -1.847532e+00 -1.805181e+00 -1.777752e+00 -1.734828e+00 -1.707491e+00 -1.663617e+00 -1.636226e+00 -1.590943e+00 -1.563182e+00 -1.515953e+00 -1.487371e+00 -1.437593e+00 -1.407809e+00 -1.355121e+00 -1.324925e+00 -1.272078e+00 -1.242549e+00 -1.189869e+00 -1.161848e+00 -1.109555e+00 -1.083247e+00 -1.031571e+00 -1.007017e+00 -9.560170e-01 -9.331676e-01 -8.828347e-01 -8.615289e-01 -8.115609e-01 -7.916180e-01 -7.419734e-01 -7.226615e-01 -6.731626e-01 -6.541858e-01 -6.047827e-01 -5.859743e-01 -5.366840e-01 -5.179100e-01 -4.688045e-01 -4.499673e-01 -4.011450e-01 -3.821819e-01 -3.337083e-01 -3.145809e-01 -2.664386e-01 -2.471417e-01 -1.992201e-01 -1.798175e-01 -1.319368e-01 -1.125969e-01 -6.453380e-02 -4.552589e-02 2.987667e-03 2.134283e-02 7.062692e-02 8.801479e-02 1.384199e-01 1.545658e-01 2.064120e-01 2.210910e-01 2.745950e-01 2.876484e-01 3.428818e-01 3.542622e-01 4.111554e-01 4.209784e-01 4.793372e-01 4.878873e-01 5.473897e-01 5.550633e-01 6.152555e-01 6.224765e-01 6.828081e-01 6.899443e-01 7.498395e-01 7.571133e-01 8.160105e-01 8.233842e-01 8.806541e-01 8.877222e-01 9.424646e-01 9.479508e-01 1.001450e+00 1.005102e+00 
9.006982e-01 9.125494e-01 9.530806e-01 9.653696e-01 1.008361e+00 1.022244e+00 1.068293e+00 1.083798e+00 1.132054e+00 1.148746e+00 1.198990e+00 1.218716e+00 1.270129e+00 1.297343e+00 3.053499e-01 2.944051e-01 -6.645223e-01 -6.915705e-01 -1.647291e+00 -1.663285e+00 -2.646179e+00 -2.628516e+00 -2.567312e+00 -2.556932e+00 -2.496234e+00 -2.488787e+00 -2.429228e+00 -2.422321e+00 -2.364320e+00 -2.356590e+00 -2.300317e+00 -2.291023e+00 -2.236518e+00 -2.225426e+00 -2.172697e+00 -2.159918e+00 -2.108862e+00 -2.094602e+00 -2.044913e+00 -2.029352e+00 -1.980600e+00 -1.963935e+00 -1.915733e+00 -1.898262e+00 -1.850360e+00 -1.832433e+00 -1.784640e+00 -1.766493e+00 -1.718543e+00 -1.700200e+00 -1.651747e+00 -1.633086e+00 -1.583791e+00 -1.564627e+00 -1.514184e+00 -1.494313e+00 -1.442491e+00 -1.421805e+00 -1.368674e+00 -1.347660e+00 -1.294608e+00 -1.273741e+00 -1.220802e+00 -1.200377e+00 -1.147432e+00 -1.127420e+00 -1.074426e+00 -1.054694e+00 -1.001618e+00 -9.821113e-01 -9.290231e-01 -9.099431e-01 -8.568101e-01 -8.387095e-01 -7.869030e-01 -7.698360e-01 -7.193828e-01 -7.029024e-01 -6.535282e-01 -6.371309e-01 -5.886691e-01 -5.720136e-01 -5.245068e-01 -5.074249e-01 -4.610112e-01 -4.433963e-01 -3.981226e-01 -3.798239e-01 -3.355423e-01 -3.164009e-01 -2.728462e-01 -2.528705e-01 -2.098149e-01 -1.892950e-01 -1.465617e-01 -1.259629e-01 -8.328476e-02 -6.306567e-02 -2.001590e-02 -5.500764e-04 4.339967e-02 6.181875e-02 1.071481e-01 1.242441e-01 1.712259e-01 1.867493e-01 2.354184e-01 2.492598e-01 2.994596e-01 3.117686e-01 3.632069e-01 3.744481e-01 4.267014e-01 4.375742e-01 4.900153e-01 5.012714e-01 5.530345e-01 5.653374e-01 6.154648e-01 6.293222e-01 6.769904e-01 6.925165e-01 7.371543e-01 7.536062e-01 7.947625e-01 8.093594e-01 8.487372e-01 8.614630e-01 
1.058364e+00 1.058760e+00 1.112487e+00 1.112123e+00 1.169734e+00 1.170770e+00 1.232729e+00 1.238250e+00 1.301098e+00 1.303319e+00 1.370191e+00 1.368742e+00 1.438932e+00 1.435791e+00 4.528086e-01 3.563400e-01 -5.592503e-01 -6.902190e-01 -1.606166e+00 -1.698877e+00 -2.687935e+00 -2.676259e+00 -2.620792e+00 -2.608136e+00 -2.553981e+00 -2.539698e+00 -2.487279e+00 -2.471076e+00 -2.420590e+00 -2.402264e+00 -2.353640e+00 -2.333071e+00 -2.286158e+00 -2.263508e+00 -2.218224e+00 -2.193880e+00 -2.150056e+00 -2.124369e+00 -2.081604e+00 -2.054785e+00 -2.012537e+00 -1.984785e+00 -1.942606e+00 -1.914250e+00 -1.871898e+00 -1.843348e+00 -1.800660e+00 -1.772177e+00 -1.728868e+00 -1.700454e+00 -1.656158e+00 -1.627714e+00 -1.582153e+00 -1.553615e+00 -1.506654e+00 -1.478045e+00 -1.429721e+00 -1.401190e+00 -1.351716e+00 -1.323510e+00 -1.273289e+00 -1.245739e+00 -1.195035e+00 -1.168419e+00 -1.117406e+00 -1.091902e+00 -1.040678e+00 -1.016372e+00 -9.650086e-01 -9.419528e-01 -8.905609e-01 -8.687909e-01 -8.174779e-01 -7.969942e-01 -7.459661e-01 -7.265831e-01 -6.758300e-01 -6.571261e-01 -6.065305e-01 -5.880579e-01 -5.376433e-01 -5.191631e-01 -4.691773e-01 -4.506401e-01 -4.013837e-01 -3.827489e-01 -3.343256e-01 -3.154005e-01 -2.676006e-01 -2.481119e-01 -2.005849e-01 -1.804773e-01 -1.330121e-01 -1.126369e-01 -6.516798e-02 -4.508540e-02 2.575330e-03 2.188052e-02 7.015958e-02 8.835289e-02 1.378346e-01 1.546862e-01 2.059086e-01 2.211551e-01 2.743983e-01 2.877334e-01 3.430205e-01 3.542510e-01 4.114406e-01 4.206374e-01 4.795186e-01 4.871064e-01 5.474240e-01 5.540858e-01 6.154167e-01 6.218352e-01 6.834904e-01 6.901831e-01 7.514119e-01 7.587654e-01 8.190926e-01 8.272572e-01 8.864258e-01 8.960059e-01 9.482293e-01 9.541853e-01 1.004566e+00 1.007194e+00 
8.991047e-01 9.056893e-01 9.415786e-01 9.492338e-01 9.898391e-01 1.003577e+00 1.053051e+00 1.070302e+00 1.119452e+00 1.128729e+00 1.182262e+00 1.184130e+00 1.240354e+00 1.231444e+00 3.258232e-01 2.266464e-01 -6.127828e-01 -7.484250e-01 -1.582571e+00 -1.688919e+00 -2.583886e+00 -2.600176e+00 -2.535791e+00 -2.542756e+00 -2.479576e+00 -2.481669e+00 -2.420471e+00 -2.419015e+00 -2.360359e+00 -2.355644e+00 -2.299210e+00 -2.290921e+00 -2.236328e+00 -2.224898e+00 -2.172472e+00 -2.158980e+00 -2.108925e+00 -2.094014e+00 -2.045695e+00 -2.029296e+00 -1.981586e+00 -1.963555e+00 -1.915729e+00 -1.896545e+00 -1.848692e+00 -1.829321e+00 -1.781775e+00 -1.762744e+00 -1.715180e+00 -1.696137e+00 -1.647851e+00 -1.628391e+00 -1.579074e+00 -1.559106e+00 -1.508766e+00 -1.488423e+00 -1.437393e+00 -1.417040e+00 -1.365692e+00 -1.345438e+00 -1.293799e+00 -1.273651e+00 -1.221670e+00 -1.201681e+00 -1.149319e+00 -1.129545e+00 -1.076675e+00 -1.057097e+00 -1.003693e+00 -9.845157e-01 -9.309328e-01 -9.125910e-01 -8.593005e-01 -8.422277e-01 -7.899571e-01 -7.742501e-01 -7.230385e-01 -7.078662e-01 -6.571150e-01 -6.414154e-01 -5.909957e-01 -5.745089e-01 -5.251504e-01 -5.082409e-01 -4.609112e-01 -4.438721e-01 -3.989312e-01 -3.812835e-01 -3.380072e-01 -3.186501e-01 -2.759217e-01 -2.543277e-01 -2.118658e-01 -1.889206e-01 -1.472656e-01 -1.243537e-01 -8.357810e-02 -6.152036e-02 -2.089023e-02 2.079829e-05 4.176376e-02 6.156249e-02 1.056131e-01 1.239843e-01 1.707220e-01 1.868991e-01 2.361248e-01 2.494722e-01 3.007580e-01 3.111612e-01 3.641718e-01 3.724431e-01 4.271071e-01 4.348009e-01 4.907377e-01 4.992635e-01 5.550275e-01 5.652936e-01 6.189257e-01 6.323235e-01 6.824455e-01 7.009170e-01 7.474601e-01 7.749915e-01 8.093899e-01 8.240256e-01 8.568878e-01 8.656035e-01 
1.056493e+00 1.049067e+00 1.095715e+00 1.084411e+00 1.139725e+00 1.123569e+00 1.197932e+00 1.237175e+00 1.284046e+00 1.286430e+00 1.354025e+00 1.337654e+00 1.417522e+00 1.321384e+00 5.896243e-01 2.073542e-01 -3.414828e-01 -8.287282e-01 -1.356334e+00 -1.766088e+00 -2.504169e+00 -2.559435e+00 -2.501693e+00 -2.499914e+00 -2.444933e+00 -2.436323e+00 -2.384201e+00 -2.371319e+00 -2.322202e+00 -2.305827e+00 -2.258948e+00 -2.238828e+00 -2.193504e+00 -2.170245e+00 -2.126849e+00 -2.101837e+00 -2.060656e+00 -2.034652e+00 -1.994920e+00 -1.967724e+00 -1.928052e+00 -1.899363e+00 -1.858903e+00 -1.829248e+00 -1.788215e+00 -1.758791e+00 -1.717717e+00 -1.689173e+00 -1.647710e+00 -1.619576e+00 -1.576874e+00 -1.548670e+00 -1.504423e+00 -1.476133e+00 -1.430464e+00 -1.402421e+00 -1.355902e+00 -1.328774e+00 -1.282045e+00 -1.255595e+00 -1.208065e+00 -1.182505e+00 -1.134224e+00 -1.109407e+00 -1.060419e+00 -1.036464e+00 -9.865787e-01 -9.634165e-01 -9.125034e-01 -8.901808e-01 -8.385625e-01 -8.172914e-01 -7.650249e-01 -7.455587e-01 -6.942862e-01 -6.771282e-01 -6.265679e-01 -6.105121e-01 -5.597327e-01 -5.433764e-01 -4.921418e-01 -4.751885e-01 -4.244136e-01 -4.074001e-01 -3.583275e-01 -3.417064e-01 -2.948183e-01 -2.780253e-01 -2.324222e-01 -2.140409e-01 -1.683428e-01 -1.476497e-01 -1.016117e-01 -7.967736e-02 -3.417045e-02 -1.265601e-02 3.203543e-02 5.225113e-02 9.686213e-02 1.155938e-01 1.615303e-01 1.790134e-01 2.276300e-01 2.436093e-01 2.952565e-01 3.088286e-01 3.632071e-01 3.735572e-01 4.301859e-01 4.370559e-01 4.956919e-01 4.999017e-01 5.607709e-01 5.639896e-01 6.270216e-01 6.306182e-01 6.944380e-01 6.989887e-01 7.617663e-01 7.680784e-01 8.299395e-01 8.349401e-01 9.198432e-01 9.459425e-01 9.758198e-01 9.810770e-01 1.017835e+00 1.015049e+00 
8.964463e-01 8.849115e-01 9.068681e-01 8.898517e-01 9.121728e-01 8.812888e-01 9.064540e-01 9.799109e-01 9.482274e-01 9.891992e-01 9.728239e-01 1.007502e+00 9.937607e-01 9.419255e-01 7.300660e-01 6.071784e-01 4.491601e-01 2.859271e-01 1.438676e-01 -4.511942e-03 -1.946899e-01 -2.654306e-01 -2.411208e-01 -2.463890e-01 -2.197953e-01 -2.257851e-01 -1.974333e-01 -2.041547e-01 -1.744280e-01 -1.818515e-01 -1.514071e-01 -1.595686e-01 -1.289348e-01 -1.374544e-01 -1.066872e-01 -1.149030e-01 -8.401077e-02 -9.153056e-02 -6.083234e-02 -6.767903e-02 -3.766369e-02 -4.397317e-02 -1.489644e-02 -2.058599e-02 7.709850e-03 2.892584e-03 3.069912e-02 2.675880e-02 5.406609e-02 5.057451e-02 7.719875e-02 7.370791e-02 9.963322e-02 9.583148e-02 1.211201e-01 1.167711e-01 1.415432e-01 1.365248e-01 1.608085e-01 1.558149e-01 1.806489e-01 1.753251e-01 2.006332e-01 1.954744e-01 2.212729e-01 2.164000e-01 2.427591e-01 2.383248e-01 2.652840e-01 2.616582e-01 2.892818e-01 2.868618e-01 3.157050e-01 3.137345e-01 3.419520e-01 3.393783e-01 3.670264e-01 3.636241e-01 3.905234e-01 3.860534e-01 4.122926e-01 4.069194e-01 4.330047e-01 4.271614e-01 4.536931e-01 4.477282e-01 4.749806e-01 4.688270e-01 4.965062e-01 4.897689e-01 5.173336e-01 5.098795e-01 5.371266e-01 5.295008e-01 5.565615e-01 5.495529e-01 5.762856e-01 5.704255e-01 5.962887e-01 5.918668e-01 6.160960e-01 6.132277e-01 6.351562e-01 6.340637e-01 6.535287e-01 6.545414e-01 6.718171e-01 6.750490e-01 6.907232e-01 6.958533e-01 7.106981e-01 7.167468e-01 7.316286e-01 7.370261e-01 7.531561e-01 7.561652e-01 7.754785e-01 7.743071e-01 7.994366e-01 7.913126e-01 8.265382e-01 8.014466e-01 8.842302e-01 8.711524e-01 8.811303e-01 8.684636e-01 8.860968e-01 8.756421e-01 
1.052263e+00 1.033963e+00 1.059634e+00 1.041721e+00 1.059675e+00 1.038719e+00 1.042386e+00 1.081590e+00 1.051366e+00 1.091185e+00 1.060618e+00 1.106393e+00 1.076854e+00 1.102518e+00 1.012093e+00 1.018087e+00 9.483777e-01 9.408579e-01 8.786891e-01 8.715076e-01 7.951098e-01 8.054513e-01 7.982873e-01 8.197540e-01 8.143912e-01 8.283716e-01 8.267635e-01 8.353769e-01 8.381138e-01 8.421633e-01 8.482984e-01 8.477970e-01 8.563093e-01 8.522652e-01 8.632345e-01 8.574595e-01 8.709370e-01 8.645272e-01 8.795453e-01 8.724871e-01 8.875025e-01 8.795580e-01 8.936617e-01 8.853421e-01 8.988048e-01 8.912200e-01 9.047016e-01 8.983114e-01 9.115927e-01 9.056153e-01 9.179545e-01 9.115203e-01 9.226787e-01 9.153144e-01 9.253878e-01 9.168910e-01 9.262879e-01 9.168213e-01 9.259477e-01 9.160878e-01 9.257308e-01 9.150372e-01 9.251293e-01 9.139896e-01 9.245277e-01 9.132107e-01 9.242286e-01 9.130126e-01 9.247106e-01 9.142830e-01 9.272587e-01 9.183671e-01 9.333753e-01 9.253648e-01 9.409334e-01 9.327107e-01 9.486303e-01 9.391989e-01 9.548009e-01 9.431121e-01 9.584367e-01 9.445515e-01 9.607754e-01 9.455495e-01 9.641310e-01 9.482719e-01 9.698109e-01 9.529335e-01 9.765059e-01 9.573334e-01 9.814054e-01 9.593950e-01 9.834918e-01 9.599985e-01 9.847044e-01 9.617491e-01 9.869779e-01 9.658156e-01 9.904061e-01 9.715743e-01 9.937137e-01 9.772543e-01 9.953076e-01 9.816364e-01 9.952251e-01 9.852197e-01 9.949433e-01 9.891051e-01 9.961130e-01 9.940174e-01 9.995942e-01 9.993240e-01 1.004637e+00 1.003043e+00 1.009877e+00 1.003832e+00 1.015569e+00 1.002518e+00 1.023384e+00 9.999977e-01 1.033913e+00 9.942067e-01 1.054855e+00 1.009824e+00 1.042547e+00 1.012701e+00 1.044358e+00 1.022601e+00 
8.934238e-01 8.814048e-01 8.924909e-01 8.847100e-01 8.879921e-01 8.867522e-01 8.774494e-01 8.988758e-01 8.752225e-01 9.028343e-01 8.758466e-01 9.014722e-01 8.782208e-01 8.937277e-01 8.817310e-01 8.911368e-01 8.875351e-01 8.899332e-01 8.935934e-01 8.889033e-01 8.976236e-01 8.869039e-01 8.953283e-01 8.862723e-01 8.958720e-01 8.863803e-01 8.981173e-01 8.872623e-01 9.015017e-01 8.887229e-01 9.050746e-01 8.900146e-01 9.079706e-01 8.910171e-01 9.104794e-01 8.925561e-01 9.133791e-01 8.951711e-01 9.167063e-01 8.983760e-01 9.196723e-01 9.012326e-01 9.216494e-01 9.034339e-01 9.229429e-01 9.055350e-01 9.243527e-01 9.079896e-01 9.259682e-01 9.102249e-01 9.269303e-01 9.111871e-01 9.263450e-01 9.100983e-01 9.236178e-01 9.065409e-01 9.185349e-01 9.006347e-01 9.114654e-01 8.935326e-01 9.045514e-01 8.865508e-01 8.979591e-01 8.804092e-01 8.923895e-01 8.756764e-01 8.885006e-01 8.729770e-01 8.867805e-01 8.727727e-01 8.876454e-01 8.751608e-01 8.912223e-01 8.795918e-01 8.957385e-01 8.838431e-01 8.998473e-01 8.870545e-01 9.026979e-01 8.885022e-01 9.038838e-01 8.882643e-01 9.039778e-01 8.872975e-01 9.040777e-01 8.866864e-01 9.048719e-01 8.866946e-01 9.059005e-01 8.865249e-01 9.059954e-01 8.853589e-01 9.046607e-01 8.835648e-01 9.026430e-01 8.822888e-01 9.008037e-01 8.821488e-01 8.992776e-01 8.829380e-01 8.975643e-01 8.838563e-01 8.950066e-01 8.842766e-01 8.916709e-01 8.843134e-01 8.883442e-01 8.843953e-01 8.859403e-01 8.847409e-01 8.849560e-01 8.849150e-01 8.851564e-01 8.839663e-01 8.860801e-01 8.813594e-01 8.879318e-01 8.776229e-01 8.913778e-01 8.736105e-01 8.963173e-01 8.702206e-01 9.014837e-01 8.710887e-01 8.957429e-01 8.735258e-01 8.936291e-01 8.772508e-01 
