# vtk DataFile Version 2.0
Comment goes here
ASCII

DATASET STRUCTURED_POINTS
FIELD FieldData 1
TIME 1 1 double
0.74000000
DIMENSIONS    128   16   1

ORIGIN    0.000   0.000   0.000
SPACING   0.0078125 0.015625   1.000

POINT_DATA   2048
SCALARS P double
LOOKUP_TABLE default

7.651500e-01 7.560111e-01 7.673084e-01 7.632504e-01 7.659227e-01 7.701234e-01 7.597786e-01 7.797479e-01 7.600484e-01 7.828077e-01 7.584375e-01 7.791572e-01 7.495250e-01 7.622468e-01 7.223207e-01 7.268075e-01 6.871589e-01 6.848492e-01 6.499553e-01 6.454768e-01 6.173662e-01 6.166030e-01 6.032159e-01 6.056386e-01 6.007359e-01 6.023715e-01 6.031221e-01 6.027286e-01 6.075041e-01 6.048987e-01 6.124201e-01 6.078357e-01 6.170078e-01 6.109631e-01 6.209720e-01 6.142013e-01 6.244949e-01 6.177203e-01 6.278707e-01 6.216017e-01 6.312578e-01 6.257452e-01 6.346611e-01 6.299144e-01 6.379656e-01 6.337972e-01 6.410108e-01 6.371520e-01 6.437841e-01 6.400290e-01 6.465519e-01 6.427318e-01 6.495898e-01 6.453310e-01 6.525687e-01 6.470546e-01 6.541110e-01 6.460607e-01 6.519934e-01 6.422713e-01 6.506135e-01 6.401763e-01 6.498431e-01 6.401308e-01 6.513584e-01 6.419873e-01 6.544541e-01 6.452123e-01 6.586810e-01 6.498648e-01 6.636696e-01 6.569985e-01 6.710320e-01 6.658701e-01 6.780166e-01 6.709312e-01 6.823059e-01 6.746045e-01 6.855262e-01 6.775651e-01 6.883115e-01 6.800937e-01 6.910766e-01 6.823798e-01 6.940667e-01 6.845160e-01 6.973739e-01 6.865680e-01 7.010043e-01 6.886147e-01 7.048790e-01 6.907154e-01 7.088044e-01 6.928785e-01 7.125083e-01 6.951348e-01 7.157947e-01 6.976340e-01 7.185988e-01 7.005560e-01 7.209005e-01 7.040099e-01 7.227346e-01 7.080530e-01 7.242375e-01 7.126514e-01 7.255578e-01 7.175454e-01 7.267581e-01 7.222581e-01 7.279251e-01 7.263340e-01 7.293904e-01 7.295730e-01 7.317653e-01 7.319840e-01 7.356057e-01 7.335171e-01 7.410447e-01 7.341574e-01 7.478434e-01 7.345907e-01 7.554699e-01 7.371161e-01 7.583297e-01 7.417992e-01 7.615727e-01 7.484857e-01 
6.595179e-01 6.536767e-01 6.591331e-01 6.572135e-01 6.547730e-01 6.596347e-01 6.430979e-01 6.664355e-01 6.433880e-01 6.662746e-01 6.452334e-01 6.619306e-01 6.472075e-01 6.520190e-01 6.483385e-01 6.453111e-01 6.502713e-01 6.405153e-01 6.518163e-01 6.366085e-01 6.512751e-01 6.328322e-01 6.463058e-01 6.308947e-01 6.446061e-01 6.299020e-01 6.446890e-01 6.297309e-01 6.459086e-01 6.303626e-01 6.475394e-01 6.312092e-01 6.486946e-01 6.318525e-01 6.492420e-01 6.325364e-01 6.495021e-01 6.334532e-01 6.496227e-01 6.346011e-01 6.497713e-01 6.360531e-01 6.501621e-01 6.377852e-01 6.508079e-01 6.395572e-01 6.514912e-01 6.409081e-01 6.517757e-01 6.414209e-01 6.516500e-01 6.415441e-01 6.518741e-01 6.418459e-01 6.521500e-01 6.408424e-01 6.495222e-01 6.344299e-01 6.395482e-01 6.220682e-01 6.316297e-01 6.142449e-01 6.246830e-01 6.097539e-01 6.217546e-01 6.077160e-01 6.208760e-01 6.067378e-01 6.210443e-01 6.076497e-01 6.228717e-01 6.154145e-01 6.324327e-01 6.292587e-01 6.434330e-01 6.361084e-01 6.483938e-01 6.391517e-01 6.498251e-01 6.398663e-01 6.497539e-01 6.400196e-01 6.500169e-01 6.405314e-01 6.508921e-01 6.408981e-01 6.517180e-01 6.405902e-01 6.523298e-01 6.399091e-01 6.531456e-01 6.394645e-01 6.544056e-01 6.394390e-01 6.556688e-01 6.394039e-01 6.561740e-01 6.391611e-01 6.558955e-01 6.392805e-01 6.552295e-01 6.400809e-01 6.541466e-01 6.415001e-01 6.527679e-01 6.436432e-01 6.513746e-01 6.462513e-01 6.498491e-01 6.485740e-01 6.480385e-01 6.500364e-01 6.463398e-01 6.506299e-01 6.457092e-01 6.507048e-01 6.470900e-01 6.502728e-01 6.504986e-01 6.485718e-01 6.551539e-01 6.454592e-01 6.606801e-01 6.430131e-01 6.585349e-01 6.456103e-01 6.586027e-01 6.494610e-01 
7.682197e-01 7.567698e-01 7.745642e-01 7.641254e-01 7.754722e-01 7.646596e-01 7.470162e-01 7.928576e-01 7.636587e-01 7.959801e-01 7.725389e-01 8.050712e-01 7.854175e-01 7.988952e-01 7.382763e-01 7.397411e-01 6.909106e-01 6.794043e-01 6.402160e-01 6.239860e-01 5.795945e-01 5.794982e-01 5.786682e-01 5.895183e-01 5.905464e-01 5.950407e-01 5.990466e-01 5.992201e-01 6.064948e-01 6.036247e-01 6.132486e-01 6.076905e-01 6.183480e-01 6.108972e-01 6.220789e-01 6.140072e-01 6.252794e-01 6.173441e-01 6.280814e-01 6.207904e-01 6.307643e-01 6.246494e-01 6.338991e-01 6.291452e-01 6.376663e-01 6.340537e-01 6.417405e-01 6.385293e-01 6.451112e-01 6.416166e-01 6.477832e-01 6.447204e-01 6.523859e-01 6.506478e-01 6.606164e-01 6.594358e-01 6.700054e-01 6.576745e-01 6.485248e-01 6.347571e-01 6.471676e-01 6.309747e-01 6.389476e-01 6.313759e-01 6.427110e-01 6.346138e-01 6.465471e-01 6.361309e-01 6.512276e-01 6.356410e-01 6.498291e-01 6.487341e-01 6.736183e-01 6.842283e-01 6.923011e-01 6.797985e-01 6.898721e-01 6.789693e-01 6.884902e-01 6.782449e-01 6.877339e-01 6.790152e-01 6.897402e-01 6.821712e-01 6.939024e-01 6.856394e-01 6.978714e-01 6.876635e-01 7.010211e-01 6.888344e-01 7.044919e-01 6.906181e-01 7.091344e-01 6.934293e-01 7.141133e-01 6.960449e-01 7.176651e-01 6.977388e-01 7.198557e-01 6.998206e-01 7.217832e-01 7.029696e-01 7.232709e-01 7.069221e-01 7.244393e-01 7.120543e-01 7.258340e-01 7.180639e-01 7.269835e-01 7.235776e-01 7.272428e-01 7.276588e-01 7.271181e-01 7.305720e-01 7.282829e-01 7.332768e-01 7.324761e-01 7.358259e-01 7.394973e-01 7.359453e-01 7.476877e-01 7.316780e-01 7.660426e-01 7.334765e-01 7.581320e-01 7.382282e-01 7.612475e-01 7.470827e-01 
6.649705e-01 6.565803e-01 6.752319e-01 6.617255e-01 6.837484e-01 6.576169e-01 6.412693e-01 7.285358e-01 6.969958e-01 7.310409e-01 7.179219e-01 7.428004e-01 7.348712e-01 6.866999e-01 5.433528e-01 4.502700e-01 3.366137e-01 2.024419e-01 1.146729e-01 -2.491662e-02 -1.321295e-01 -2.015066e-01 -1.774112e-01 -1.860186e-01 -1.616687e-01 -1.703859e-01 -1.456661e-01 -1.544308e-01 -1.294976e-01 -1.381480e-01 -1.134453e-01 -1.219644e-01 -9.794815e-02 -1.061025e-01 -8.287895e-02 -9.025059e-02 -6.787592e-02 -7.424311e-02 -5.280987e-02 -5.808183e-02 -3.752701e-02 -4.163085e-02 -2.179185e-02 -2.480565e-02 -5.560148e-03 -7.704445e-03 1.102737e-02 9.303243e-03 2.756972e-02 2.585100e-02 4.402933e-02 4.246528e-02 6.142508e-02 6.036801e-02 8.060401e-02 7.999005e-02 9.850132e-02 6.679435e-02 1.986269e-02 -1.075029e-02 1.964618e-02 -8.006625e-03 7.221430e-04 -6.130780e-03 7.504048e-03 -1.424904e-03 1.296865e-02 3.012762e-03 3.330932e-02 5.031459e-03 4.201343e-02 8.192271e-02 1.708773e-01 2.442368e-01 2.596556e-01 2.518197e-01 2.694263e-01 2.627818e-01 2.809119e-01 2.750201e-01 2.933254e-01 2.884457e-01 3.071959e-01 3.031742e-01 3.222475e-01 3.184168e-01 3.376316e-01 3.335281e-01 3.531083e-01 3.486924e-01 3.690409e-01 3.643690e-01 3.856494e-01 3.806307e-01 4.025108e-01 3.969481e-01 4.188451e-01 4.129571e-01 4.345307e-01 4.290340e-01 4.498515e-01 4.453636e-01 4.646979e-01 4.618347e-01 4.791296e-01 4.785978e-01 4.934289e-01 4.956061e-01 5.075898e-01 5.124521e-01 5.215831e-01 5.288703e-01 5.357791e-01 5.449594e-01 5.509186e-01 5.609834e-01 5.677151e-01 5.768081e-01 5.862267e-01 5.913930e-01 6.065788e-01 6.034576e-01 6.563133e-01 6.392648e-01 6.500165e-01 6.410167e-01 6.555618e-01 6.482924e-01 
7.737361e-01 7.667449e-01 8.032818e-01 7.916507e-01 8.372862e-01 8.179955e-01 8.513060e-01 9.024436e-01 9.305351e-01 9.359133e-01 9.825582e-01 9.706083e-01 1.028606e+00 9.488359e-01 4.359792e-01 1.945765e-01 -2.398939e-01 -5.933085e-01 -9.701275e-01 -1.314927e+00 -1.783638e+00 -1.841662e+00 -1.794345e+00 -1.797931e+00 -1.755449e+00 -1.751156e+00 -1.712840e+00 -1.703392e+00 -1.669112e+00 -1.656021e+00 -1.624903e+00 -1.608502e+00 -1.579355e+00 -1.560289e+00 -1.532665e+00 -1.512016e+00 -1.485482e+00 -1.463897e+00 -1.437759e+00 -1.415785e+00 -1.389677e+00 -1.368025e+00 -1.341810e+00 -1.320990e+00 -1.294496e+00 -1.274720e+00 -1.247681e+00 -1.228791e+00 -1.200777e+00 -1.182747e+00 -1.154393e+00 -1.138624e+00 -1.111986e+00 -1.100213e+00 -1.076914e+00 -1.069818e+00 -1.053540e+00 -1.074354e+00 -1.108922e+00 -1.119711e+00 -1.077499e+00 -1.082697e+00 -1.055079e+00 -1.043240e+00 -1.013565e+00 -1.000345e+00 -9.670127e-01 -9.511777e-01 -8.976162e-01 -8.979737e-01 -8.280877e-01 -7.646740e-01 -6.570532e-01 -5.683411e-01 -5.340924e-01 -5.140813e-01 -4.784775e-01 -4.629948e-01 -4.249618e-01 -4.118546e-01 -3.727630e-01 -3.622313e-01 -3.235680e-01 -3.149075e-01 -2.764350e-01 -2.676893e-01 -2.288219e-01 -2.187137e-01 -1.799772e-01 -1.684625e-01 -1.309997e-01 -1.183752e-01 -8.284188e-02 -6.893070e-02 -3.492520e-02 -1.906197e-02 1.418416e-02 3.179998e-02 6.417227e-02 8.226998e-02 1.137961e-01 1.316011e-01 1.631601e-01 1.800067e-01 2.122207e-01 2.271229e-01 2.606657e-01 2.732764e-01 3.092907e-01 3.198280e-01 3.591336e-01 3.676906e-01 4.101342e-01 4.165526e-01 4.610607e-01 4.653568e-01 5.105285e-01 5.138736e-01 5.590075e-01 5.641383e-01 6.090105e-01 6.177867e-01 6.801465e-01 6.920963e-01 7.148530e-01 7.176432e-01 7.452657e-01 7.422547e-01 
6.660840e-01 6.709793e-01 6.966123e-01 7.020998e-01 7.304240e-01 7.400078e-01 7.711820e-01 7.904129e-01 8.212985e-01 8.336172e-01 8.680919e-01 8.743020e-01 9.111772e-01 9.090470e-01 2.483013e-01 1.790438e-01 -4.334327e-01 -5.358456e-01 -1.138376e+00 -1.224721e+00 -1.867924e+00 -1.881997e+00 -1.832706e+00 -1.839027e+00 -1.791645e+00 -1.793373e+00 -1.748685e+00 -1.746773e+00 -1.705256e+00 -1.700324e+00 -1.661574e+00 -1.653670e+00 -1.616887e+00 -1.606450e+00 -1.571295e+00 -1.559181e+00 -1.525279e+00 -1.512061e+00 -1.478827e+00 -1.465001e+00 -1.432093e+00 -1.418256e+00 -1.385505e+00 -1.372071e+00 -1.339273e+00 -1.326396e+00 -1.293280e+00 -1.280777e+00 -1.246963e+00 -1.234705e+00 -1.200579e+00 -1.189429e+00 -1.156344e+00 -1.147259e+00 -1.115990e+00 -1.108843e+00 -1.079798e+00 -1.075038e+00 -1.044271e+00 -1.026579e+00 -9.817889e-01 -9.654367e-01 -9.188886e-01 -9.012010e-01 -8.571864e-01 -8.376182e-01 -7.935324e-01 -7.729539e-01 -7.262685e-01 -7.111224e-01 -6.592148e-01 -6.465505e-01 -6.080524e-01 -5.962949e-01 -5.690997e-01 -5.600624e-01 -5.284675e-01 -5.189966e-01 -4.838292e-01 -4.741609e-01 -4.373048e-01 -4.284342e-01 -3.915647e-01 -3.833235e-01 -3.466381e-01 -3.376755e-01 -3.009860e-01 -2.903471e-01 -2.542250e-01 -2.418519e-01 -2.072760e-01 -1.933673e-01 -1.608896e-01 -1.453109e-01 -1.146103e-01 -9.690925e-02 -6.731719e-02 -4.775168e-02 -1.920381e-02 1.103206e-03 2.881466e-02 4.906110e-02 7.680077e-02 9.625354e-02 1.247027e-01 1.424131e-01 1.722636e-01 1.878061e-01 2.200344e-01 2.334801e-01 2.687212e-01 2.801392e-01 3.181788e-01 3.275596e-01 3.673734e-01 3.749688e-01 4.151907e-01 4.222489e-01 4.619311e-01 4.710054e-01 5.091445e-01 5.226965e-01 5.580986e-01 5.778129e-01 6.015304e-01 6.122751e-01 6.355909e-01 6.420761e-01 
7.738451e-01 7.737456e-01 8.123447e-01 8.120283e-01 8.523948e-01 8.541014e-01 8.948436e-01 9.031381e-01 9.452216e-01 9.503094e-01 9.963323e-01 9.980568e-01 1.047332e+00 1.047917e+00 3.350420e-01 2.699233e-01 -3.966668e-01 -4.920618e-01 -1.153410e+00 -1.226510e+00 -1.935815e+00 -1.928952e+00 -1.885815e+00 -1.878185e+00 -1.837058e+00 -1.827566e+00 -1.788894e+00 -1.777185e+00 -1.741055e+00 -1.727114e+00 -1.693276e+00 -1.677207e+00 -1.645232e+00 -1.627336e+00 -1.596821e+00 -1.577558e+00 -1.548096e+00 -1.527926e+00 -1.499100e+00 -1.478464e+00 -1.449925e+00 -1.429236e+00 -1.400708e+00 -1.380289e+00 -1.351532e+00 -1.331581e+00 -1.302385e+00 -1.282989e+00 -1.253190e+00 -1.234408e+00 -1.203996e+00 -1.185953e+00 -1.154938e+00 -1.137487e+00 -1.105338e+00 -1.087580e+00 -1.052720e+00 -1.032435e+00 -9.895190e-01 -9.633695e-01 -9.256470e-01 -9.022006e-01 -8.633593e-01 -8.437449e-01 -8.048978e-01 -7.864982e-01 -7.483869e-01 -7.299711e-01 -6.935835e-01 -6.755837e-01 -6.394435e-01 -6.263429e-01 -5.921029e-01 -5.862063e-01 -5.507978e-01 -5.406172e-01 -5.041575e-01 -4.926018e-01 -4.550631e-01 -4.432950e-01 -4.050836e-01 -3.936143e-01 -3.551986e-01 -3.439707e-01 -3.055803e-01 -2.941455e-01 -2.559264e-01 -2.438582e-01 -2.060889e-01 -1.931801e-01 -1.561981e-01 -1.423793e-01 -1.063687e-01 -9.159074e-02 -5.646887e-02 -4.072905e-02 -6.256389e-03 1.020496e-02 4.424735e-02 6.093277e-02 9.484623e-02 1.112332e-01 1.454776e-01 1.610566e-01 1.961053e-01 2.103980e-01 2.467169e-01 2.594317e-01 2.974572e-01 3.085059e-01 3.484679e-01 3.578755e-01 3.996513e-01 4.075369e-01 4.506696e-01 4.573243e-01 5.011941e-01 5.071793e-01 5.512334e-01 5.572589e-01 6.010534e-01 6.074395e-01 6.506400e-01 6.568603e-01 6.949452e-01 6.986241e-01 7.353355e-01 7.367084e-01 
6.666907e-01 6.760167e-01 7.042471e-01 7.142880e-01 7.437221e-01 7.556153e-01 7.865169e-01 8.008376e-01 8.331630e-01 8.486844e-01 8.827933e-01 9.003079e-01 9.360944e-01 9.584247e-01 2.335821e-01 2.267820e-01 -4.726098e-01 -4.929190e-01 -1.188583e+00 -1.201867e+00 -1.917059e+00 -1.905053e+00 -1.858175e+00 -1.851091e+00 -1.805558e+00 -1.800087e+00 -1.756348e+00 -1.750715e+00 -1.708997e+00 -1.702304e+00 -1.662558e+00 -1.654403e+00 -1.616390e+00 -1.606750e+00 -1.570185e+00 -1.559296e+00 -1.523865e+00 -1.512056e+00 -1.477422e+00 -1.465036e+00 -1.430888e+00 -1.418242e+00 -1.384310e+00 -1.371641e+00 -1.337696e+00 -1.325144e+00 -1.291002e+00 -1.278627e+00 -1.244177e+00 -1.232023e+00 -1.197276e+00 -1.185413e+00 -1.150397e+00 -1.138747e+00 -1.103186e+00 -1.091292e+00 -1.054322e+00 -1.041288e+00 -1.001063e+00 -9.843441e-01 -9.465465e-01 -9.307509e-01 -8.929349e-01 -8.790742e-01 -8.410002e-01 -8.280107e-01 -7.901241e-01 -7.769860e-01 -7.389997e-01 -7.251795e-01 -6.871182e-01 -6.710895e-01 -6.288543e-01 -6.189894e-01 -5.807091e-01 -5.708882e-01 -5.338627e-01 -5.240269e-01 -4.871516e-01 -4.772773e-01 -4.403753e-01 -4.304369e-01 -3.937030e-01 -3.834972e-01 -3.471479e-01 -3.363018e-01 -3.005540e-01 -2.887215e-01 -2.538533e-01 -2.408298e-01 -2.071106e-01 -1.928050e-01 -1.603611e-01 -1.447489e-01 -1.134942e-01 -9.664845e-02 -6.634615e-02 -4.854351e-02 -1.890321e-02 -6.179113e-04 2.874127e-02 4.697667e-02 7.654082e-02 9.419117e-02 1.244528e-01 1.410323e-01 1.724451e-01 1.876341e-01 2.205608e-01 2.342427e-01 2.688199e-01 2.810463e-01 3.170731e-01 3.280599e-01 3.650006e-01 3.751732e-01 4.122737e-01 4.222967e-01 4.587334e-01 4.693620e-01 5.042875e-01 5.159339e-01 5.485359e-01 5.607554e-01 5.903331e-01 6.012693e-01 6.292989e-01 6.390202e-01 
7.738422e-01 7.755877e-01 8.149799e-01 8.169552e-01 8.574753e-01 8.608299e-01 9.025540e-01 9.081208e-01 9.515504e-01 9.579583e-01 1.003762e+00 1.011652e+00 1.059701e+00 1.072129e+00 3.209958e-01 2.981878e-01 -4.247824e-01 -4.616327e-01 -1.184670e+00 -1.206249e+00 -1.960175e+00 -1.940722e+00 -1.898882e+00 -1.884289e+00 -1.843997e+00 -1.830839e+00 -1.792467e+00 -1.778965e+00 -1.742631e+00 -1.727953e+00 -1.693549e+00 -1.677411e+00 -1.644679e+00 -1.627133e+00 -1.595750e+00 -1.577058e+00 -1.546682e+00 -1.527194e+00 -1.497480e+00 -1.477545e+00 -1.448149e+00 -1.428063e+00 -1.398667e+00 -1.378647e+00 -1.348976e+00 -1.329163e+00 -1.299003e+00 -1.279473e+00 -1.248675e+00 -1.229451e+00 -1.197908e+00 -1.178935e+00 -1.146509e+00 -1.127596e+00 -1.094044e+00 -1.074849e+00 -1.039849e+00 -1.019988e+00 -9.834055e-01 -9.628398e-01 -9.261269e-01 -9.061169e-01 -8.692373e-01 -8.503538e-01 -8.134460e-01 -7.956294e-01 -7.588538e-01 -7.420206e-01 -7.054269e-01 -6.897667e-01 -6.532146e-01 -6.391440e-01 -6.024390e-01 -5.901462e-01 -5.532193e-01 -5.413648e-01 -5.040263e-01 -4.923148e-01 -4.545343e-01 -4.428925e-01 -4.047769e-01 -3.931289e-01 -3.548824e-01 -3.430963e-01 -3.049673e-01 -2.928648e-01 -2.551023e-01 -2.424950e-01 -2.053110e-01 -1.920396e-01 -1.555725e-01 -1.415400e-01 -1.058272e-01 -9.102697e-02 -5.599558e-02 -4.053717e-02 -6.013005e-03 9.871899e-03 4.415466e-02 6.013553e-02 9.451829e-02 1.102034e-01 1.450684e-01 1.600495e-01 1.957761e-01 2.096866e-01 2.466091e-01 2.591821e-01 2.975391e-01 3.086410e-01 3.485146e-01 3.581497e-01 3.994196e-01 4.077227e-01 4.500702e-01 4.572969e-01 5.002653e-01 5.067499e-01 5.498163e-01 5.558491e-01 5.984637e-01 6.041092e-01 6.456766e-01 6.506408e-01 6.903588e-01 6.940490e-01 7.327394e-01 7.351831e-01 
6.666254e-01 6.759398e-01 7.041618e-01 7.141991e-01 7.436266e-01 7.555205e-01 7.864190e-01 8.007453e-01 8.330767e-01 8.486097e-01 8.827380e-01 9.002663e-01 9.360750e-01 9.583998e-01 2.335823e-01 2.267520e-01 -4.726636e-01 -4.930046e-01 -1.188779e+00 -1.202064e+00 -1.917462e+00 -1.905388e+00 -1.858574e+00 -1.851384e+00 -1.805892e+00 -1.800291e+00 -1.756586e+00 -1.750811e+00 -1.709098e+00 -1.702243e+00 -1.662454e+00 -1.654143e+00 -1.616037e+00 -1.606257e+00 -1.569536e+00 -1.558554e+00 -1.522945e+00 -1.511168e+00 -1.476380e+00 -1.464169e+00 -1.429857e+00 -1.417453e+00 -1.383264e+00 -1.370801e+00 -1.336441e+00 -1.323977e+00 -1.289254e+00 -1.276830e+00 -1.241707e+00 -1.229380e+00 -1.193904e+00 -1.181650e+00 -1.145815e+00 -1.133470e+00 -1.097173e+00 -1.084459e+00 -1.047534e+00 -1.034152e+00 -9.965880e-01 -9.824479e-01 -9.448702e-01 -9.306495e-01 -8.931244e-01 -8.792810e-01 -8.417987e-01 -8.283841e-01 -7.908717e-01 -7.777491e-01 -7.399905e-01 -7.270524e-01 -6.888415e-01 -6.762247e-01 -6.374449e-01 -6.259884e-01 -5.875105e-01 -5.768678e-01 -5.387491e-01 -5.286158e-01 -4.907319e-01 -4.807543e-01 -4.430278e-01 -4.328358e-01 -3.953726e-01 -3.846935e-01 -3.478133e-01 -3.364675e-01 -3.005498e-01 -2.883425e-01 -2.536497e-01 -2.403409e-01 -2.069724e-01 -1.923685e-01 -1.603023e-01 -1.443651e-01 -1.135022e-01 -9.640678e-02 -6.655467e-02 -4.861904e-02 -1.940843e-02 -1.015762e-03 2.804781e-02 4.641195e-02 7.583121e-02 9.362207e-02 1.238820e-01 1.406087e-01 1.721325e-01 1.874353e-01 2.205128e-01 2.342251e-01 2.689406e-01 2.811142e-01 3.172676e-01 3.281618e-01 3.652431e-01 3.753359e-01 4.126070e-01 4.225751e-01 4.591540e-01 4.696859e-01 5.046458e-01 5.161500e-01 5.487228e-01 5.608396e-01 5.903860e-01 6.012643e-01 6.292738e-01 6.389671e-01 
7.736778e-01 7.735545e-01 8.121391e-01 8.118062e-01 8.521548e-01 8.538518e-01 8.945823e-01 9.028906e-01 9.449969e-01 9.501227e-01 9.961964e-01 9.979748e-01 1.047290e+00 1.047917e+00 3.352415e-01 2.699680e-01 -3.964603e-01 -4.920199e-01 -1.153462e+00 -1.226564e+00 -1.936314e+00 -1.929303e+00 -1.886367e+00 -1.878535e+00 -1.837570e+00 -1.827836e+00 -1.789289e+00 -1.777303e+00 -1.741199e+00 -1.726918e+00 -1.692980e+00 -1.676559e+00 -1.644360e+00 -1.626124e+00 -1.595236e+00 -1.575709e+00 -1.545810e+00 -1.525605e+00 -1.496372e+00 -1.475961e+00 -1.446980e+00 -1.426625e+00 -1.397460e+00 -1.377280e+00 -1.347557e+00 -1.327575e+00 -1.297046e+00 -1.277291e+00 -1.245926e+00 -1.226487e+00 -1.194374e+00 -1.175239e+00 -1.142386e+00 -1.123400e+00 -1.089754e+00 -1.070700e+00 -1.036183e+00 -1.016898e+00 -9.815719e-01 -9.621767e-01 -9.263743e-01 -9.073055e-01 -8.713340e-01 -8.529948e-01 -8.169991e-01 -7.996089e-01 -7.635427e-01 -7.471437e-01 -7.107932e-01 -6.953351e-01 -6.584823e-01 -6.440037e-01 -6.066451e-01 -5.932757e-01 -5.555291e-01 -5.431901e-01 -5.050968e-01 -4.935265e-01 -4.550744e-01 -4.438627e-01 -4.050236e-01 -3.937242e-01 -3.546507e-01 -3.430204e-01 -3.041553e-01 -2.921381e-01 -2.539845e-01 -2.414747e-01 -2.043225e-01 -1.910764e-01 -1.549756e-01 -1.407544e-01 -1.056311e-01 -9.037001e-02 -5.612714e-02 -4.002209e-02 -6.510749e-03 1.012082e-02 4.327738e-02 6.012163e-02 9.344415e-02 1.100606e-01 1.440280e-01 1.598787e-01 1.949461e-01 2.095419e-01 2.461135e-01 2.590781e-01 2.974394e-01 3.085767e-01 3.488439e-01 3.581668e-01 4.002056e-01 4.079034e-01 4.512940e-01 4.577552e-01 5.019139e-01 5.077366e-01 5.520142e-01 5.577962e-01 6.016116e-01 6.076916e-01 6.508279e-01 6.568812e-01 6.949321e-01 6.985271e-01 7.352222e-01 7.365529e-01 
6.658079e-01 6.707015e-01 6.963169e-01 7.018080e-01 7.301058e-01 7.396899e-01 7.708327e-01 7.900756e-01 8.209611e-01 8.333318e-01 8.679065e-01 8.742418e-01 9.112348e-01 9.091389e-01 2.485956e-01 1.791554e-01 -4.332394e-01 -5.358784e-01 -1.138708e+00 -1.225205e+00 -1.869179e+00 -1.883231e+00 -1.834151e+00 -1.840095e+00 -1.792764e+00 -1.794057e+00 -1.749569e+00 -1.747265e+00 -1.705816e+00 -1.700306e+00 -1.661445e+00 -1.653024e+00 -1.616022e+00 -1.605027e+00 -1.569244e+00 -1.556546e+00 -1.521921e+00 -1.508732e+00 -1.475174e+00 -1.462175e+00 -1.429103e+00 -1.416400e+00 -1.383140e+00 -1.370654e+00 -1.336648e+00 -1.324103e+00 -1.288945e+00 -1.276248e+00 -1.240260e+00 -1.227862e+00 -1.191680e+00 -1.179689e+00 -1.143450e+00 -1.131528e+00 -1.095167e+00 -1.082834e+00 -1.046025e+00 -1.032682e+00 -9.952368e-01 -9.809469e-01 -9.433225e-01 -9.288318e-01 -8.916398e-01 -8.776030e-01 -8.410048e-01 -8.277124e-01 -7.914374e-01 -7.787607e-01 -7.420542e-01 -7.294497e-01 -6.915561e-01 -6.789945e-01 -6.401999e-01 -6.285436e-01 -5.896357e-01 -5.793850e-01 -5.406648e-01 -5.316461e-01 -4.930609e-01 -4.844595e-01 -4.454835e-01 -4.361289e-01 -3.966581e-01 -3.862242e-01 -3.472949e-01 -3.362283e-01 -2.990914e-01 -2.874699e-01 -2.525544e-01 -2.397350e-01 -2.068054e-01 -1.920565e-01 -1.607633e-01 -1.438020e-01 -1.140995e-01 -9.548345e-02 -6.755761e-02 -4.795747e-02 -2.115334e-02 -7.119358e-04 2.604611e-02 4.671723e-02 7.405230e-02 9.394656e-02 1.225123e-01 1.408255e-01 1.713000e-01 1.873839e-01 2.202740e-01 2.338106e-01 2.694629e-01 2.805483e-01 3.188666e-01 3.277575e-01 3.679286e-01 3.752381e-01 4.162049e-01 4.233644e-01 4.637911e-01 4.725904e-01 5.106562e-01 5.234412e-01 5.585099e-01 5.778945e-01 6.014649e-01 6.120965e-01 6.353636e-01 6.418191e-01 
7.733385e-01 7.663443e-01 8.028553e-01 7.911926e-01 8.367535e-01 8.173783e-01 8.505541e-01 9.017327e-01 9.299228e-01 9.354310e-01 9.823226e-01 9.705693e-01 1.028809e+00 9.489933e-01 4.373101e-01 1.948847e-01 -2.384199e-01 -5.928282e-01 -9.694477e-01 -1.314163e+00 -1.784136e+00 -1.842126e+00 -1.795580e+00 -1.798819e+00 -1.756722e+00 -1.751995e+00 -1.714126e+00 -1.704233e+00 -1.670097e+00 -1.656214e+00 -1.624895e+00 -1.607699e+00 -1.578142e+00 -1.558166e+00 -1.529551e+00 -1.507919e+00 -1.480258e+00 -1.458496e+00 -1.431776e+00 -1.410687e+00 -1.384243e+00 -1.363887e+00 -1.336918e+00 -1.317145e+00 -1.288969e+00 -1.269374e+00 -1.239454e+00 -1.219892e+00 -1.188620e+00 -1.169693e+00 -1.137871e+00 -1.119759e+00 -1.087541e+00 -1.069884e+00 -1.037208e+00 -1.019506e+00 -9.860088e-01 -9.676042e-01 -9.331210e-01 -9.141575e-01 -8.789472e-01 -8.602318e-01 -8.253481e-01 -8.076079e-01 -7.733004e-01 -7.569685e-01 -7.229059e-01 -7.078125e-01 -6.730222e-01 -6.583594e-01 -6.219469e-01 -6.074249e-01 -5.698469e-01 -5.564658e-01 -5.186002e-01 -5.073579e-01 -4.693755e-01 -4.598998e-01 -4.216368e-01 -4.128466e-01 -3.735664e-01 -3.640110e-01 -3.235242e-01 -3.129253e-01 -2.725216e-01 -2.616359e-01 -2.228634e-01 -2.119447e-01 -1.752675e-01 -1.635908e-01 -1.286324e-01 -1.153098e-01 -8.159232e-02 -6.624510e-02 -3.374725e-02 -1.702341e-02 1.389203e-02 3.127667e-02 6.129603e-02 7.940012e-02 1.097044e-01 1.279957e-01 1.591162e-01 1.765469e-01 2.090578e-01 2.248277e-01 2.593721e-01 2.728149e-01 3.098808e-01 3.206597e-01 3.606417e-01 3.688378e-01 4.116955e-01 4.174535e-01 4.623607e-01 4.661567e-01 5.121348e-01 5.154156e-01 5.612988e-01 5.658330e-01 6.103600e-01 6.179290e-01 6.798052e-01 6.916669e-01 7.144242e-01 7.172124e-01 7.448538e-01 7.418521e-01 
6.643661e-01 6.560753e-01 6.747400e-01 6.612785e-01 6.832455e-01 6.571144e-01 6.406506e-01 7.281806e-01 6.969109e-01 7.313360e-01 7.184967e-01 7.437023e-01 7.359582e-01 6.879770e-01 5.450840e-01 4.517563e-01 3.385932e-01 2.041415e-01 1.165280e-01 -2.307506e-02 -1.307892e-01 -2.003068e-01 -1.765988e-01 -1.857742e-01 -1.618735e-01 -1.710845e-01 -1.465470e-01 -1.555322e-01 -1.305548e-01 -1.392167e-01 -1.142502e-01 -1.225097e-01 -9.805048e-02 -1.058636e-01 -8.229903e-02 -8.943155e-02 -6.679964e-02 -7.288861e-02 -5.116250e-02 -5.611654e-02 -3.541735e-02 -3.940984e-02 -1.981820e-02 -2.308315e-02 -4.559222e-03 -7.406004e-03 1.018036e-02 7.537777e-03 2.465677e-02 2.226486e-02 3.949697e-02 3.723344e-02 5.484878e-02 5.237703e-02 7.046775e-02 6.738481e-02 8.582672e-02 8.170055e-02 1.003313e-01 9.515409e-02 1.147901e-01 1.091861e-01 1.296888e-01 1.241852e-01 1.455858e-01 1.403177e-01 1.624989e-01 1.575761e-01 1.801532e-01 1.755863e-01 1.978737e-01 1.939791e-01 2.156520e-01 2.126538e-01 2.337709e-01 2.310413e-01 2.517733e-01 2.494716e-01 2.698261e-01 2.677832e-01 2.875064e-01 2.852535e-01 3.042694e-01 3.016316e-01 3.204169e-01 3.175306e-01 3.366890e-01 3.335074e-01 3.532794e-01 3.494507e-01 3.697826e-01 3.649883e-01 3.857670e-01 3.799932e-01 4.012120e-01 3.949370e-01 4.166315e-01 4.104541e-01 4.321664e-01 4.264660e-01 4.474583e-01 4.428470e-01 4.625504e-01 4.597894e-01 4.776096e-01 4.772702e-01 4.926544e-01 4.950957e-01 5.076988e-01 5.129296e-01 5.226761e-01 5.302708e-01 5.375625e-01 5.467649e-01 5.526817e-01 5.623123e-01 5.684386e-01 5.766614e-01 5.852218e-01 5.896556e-01 6.043168e-01 6.009354e-01 6.537942e-01 6.374215e-01 6.485771e-01 6.399358e-01 6.546806e-01 6.476003e-01 
7.677649e-01 7.563968e-01 7.742265e-01 7.638371e-01 7.751895e-01 7.644262e-01 7.467914e-01 7.928316e-01 7.638439e-01 7.963951e-01 7.730903e-01 8.057139e-01 7.861232e-01 7.996518e-01 7.392815e-01 7.407165e-01 6.921911e-01 6.806699e-01 6.418163e-01 6.257130e-01 5.815589e-01 5.813528e-01 5.804834e-01 5.906314e-01 5.913398e-01 5.951605e-01 5.992065e-01 5.989851e-01 6.063833e-01 6.031078e-01 6.129088e-01 6.072217e-01 6.181629e-01 6.105869e-01 6.216302e-01 6.132734e-01 6.242986e-01 6.166474e-01 6.276132e-01 6.213648e-01 6.316859e-01 6.267386e-01 6.358167e-01 6.318286e-01 6.393002e-01 6.356518e-01 6.413659e-01 6.376821e-01 6.424731e-01 6.391319e-01 6.442277e-01 6.411448e-01 6.470045e-01 6.434875e-01 6.501833e-01 6.453378e-01 6.524523e-01 6.452521e-01 6.525024e-01 6.430749e-01 6.516205e-01 6.411960e-01 6.516036e-01 6.412991e-01 6.537080e-01 6.439470e-01 6.579186e-01 6.486821e-01 6.630689e-01 6.538756e-01 6.672644e-01 6.583358e-01 6.706066e-01 6.627634e-01 6.744171e-01 6.675482e-01 6.789716e-01 6.730773e-01 6.842897e-01 6.786108e-01 6.889650e-01 6.821422e-01 6.915110e-01 6.831882e-01 6.929621e-01 6.837290e-01 6.955838e-01 6.854942e-01 7.000106e-01 6.881777e-01 7.050637e-01 6.905615e-01 7.093615e-01 6.919524e-01 7.125735e-01 6.932509e-01 7.158544e-01 6.958356e-01 7.193530e-01 6.991619e-01 7.218890e-01 7.026923e-01 7.235243e-01 7.069626e-01 7.247653e-01 7.120662e-01 7.257593e-01 7.177524e-01 7.266621e-01 7.234859e-01 7.274072e-01 7.283565e-01 7.280169e-01 7.318865e-01 7.293768e-01 7.342023e-01 7.323336e-01 7.347788e-01 7.371504e-01 7.331921e-01 7.446881e-01 7.291749e-01 7.638760e-01 7.319127e-01 7.569395e-01 7.373421e-01 7.605475e-01 7.465388e-01 
6.592430e-01 6.534603e-01 6.589385e-01 6.570643e-01 6.546358e-01 6.595527e-01 6.430409e-01 6.664829e-01 6.435174e-01 6.665223e-01 6.455404e-01 6.623078e-01 6.476209e-01 6.524910e-01 6.488745e-01 6.458856e-01 6.509140e-01 6.411760e-01 6.525607e-01 6.373641e-01 6.521126e-01 6.335948e-01 6.470426e-01 6.313341e-01 6.449269e-01 6.299242e-01 6.447281e-01 6.295745e-01 6.458049e-01 6.300696e-01 6.473188e-01 6.309100e-01 6.484979e-01 6.315876e-01 6.489121e-01 6.320916e-01 6.489354e-01 6.329916e-01 6.491898e-01 6.345535e-01 6.497573e-01 6.364502e-01 6.503411e-01 6.381791e-01 6.505819e-01 6.391890e-01 6.500899e-01 6.391438e-01 6.489958e-01 6.384635e-01 6.479439e-01 6.376192e-01 6.470902e-01 6.364498e-01 6.459676e-01 6.342908e-01 6.436085e-01 6.302041e-01 6.393606e-01 6.245128e-01 6.346822e-01 6.194134e-01 6.308939e-01 6.161441e-01 6.290291e-01 6.150999e-01 6.291048e-01 6.160643e-01 6.305574e-01 6.184973e-01 6.327273e-01 6.221772e-01 6.358779e-01 6.268047e-01 6.396602e-01 6.311672e-01 6.431857e-01 6.350162e-01 6.462156e-01 6.380300e-01 6.483224e-01 6.395925e-01 6.491903e-01 6.397100e-01 6.494301e-01 6.392839e-01 6.500443e-01 6.390965e-01 6.513553e-01 6.391403e-01 6.529236e-01 6.390250e-01 6.541559e-01 6.385300e-01 6.548186e-01 6.380410e-01 6.552588e-01 6.381633e-01 6.555053e-01 6.387973e-01 6.551174e-01 6.398001e-01 6.541350e-01 6.413873e-01 6.528167e-01 6.435628e-01 6.513052e-01 6.460928e-01 6.497175e-01 6.485351e-01 6.481113e-01 6.503165e-01 6.466914e-01 6.511357e-01 6.461028e-01 6.510205e-01 6.469601e-01 6.497895e-01 6.494846e-01 6.474021e-01 6.538641e-01 6.443774e-01 6.597093e-01 6.422563e-01 6.579018e-01 6.451206e-01 6.581924e-01 6.491413e-01 
