# vtk DataFile Version 2.0
Comment goes here
ASCII

DATASET STRUCTURED_POINTS
FIELD FieldData 1
TIME 1 1 double
0.11000000
DIMENSIONS    128   16   1

ORIGIN    0.000   0.000   0.000
SPACING   0.0078125 0.015625   1.000

POINT_DATA   2048
SCALARS P double
LOOKUP_TABLE default

-8.279759e-01 -8.102724e-01 -8.296378e-01 -8.168855e-01 -8.299637e-01 -8.242133e-01 -8.290510e-01 -8.382062e-01 -8.254647e-01 -8.459468e-01 -8.211918e-01 -8.480872e-01 -8.116182e-01 -8.363691e-01 -7.824052e-01 -8.000984e-01 -7.425257e-01 -7.555844e-01 -6.977393e-01 -7.100376e-01 -6.548420e-01 -6.692049e-01 -6.381255e-01 -6.592269e-01 -6.441090e-01 -6.661560e-01 -6.581649e-01 -6.753814e-01 -6.712367e-01 -6.824428e-01 -6.815787e-01 -6.885885e-01 -6.925075e-01 -6.985022e-01 -7.103736e-01 -7.184901e-01 -7.366302e-01 -7.449333e-01 -7.666030e-01 -7.725938e-01 -7.976351e-01 -8.037048e-01 -8.304516e-01 -8.339082e-01 -8.580413e-01 -8.581031e-01 -8.802457e-01 -8.794773e-01 -9.007682e-01 -8.986290e-01 -9.166451e-01 -9.120148e-01 -9.273265e-01 -9.213306e-01 -9.342855e-01 -9.254084e-01 -9.312046e-01 -9.128332e-01 -9.106889e-01 -8.970877e-01 -8.973336e-01 -8.867617e-01 -8.923384e-01 -8.819950e-01 -8.857923e-01 -8.736075e-01 -8.743707e-01 -8.640351e-01 -8.707894e-01 -8.642049e-01 -8.772496e-01 -8.769776e-01 -8.949239e-01 -8.902448e-01 -9.048799e-01 -8.944372e-01 -9.074898e-01 -8.936614e-01 -9.067835e-01 -8.905019e-01 -9.055835e-01 -8.886341e-01 -9.054136e-01 -8.878507e-01 -9.067454e-01 -8.896753e-01 -9.101889e-01 -8.935050e-01 -9.159045e-01 -9.018286e-01 -9.245064e-01 -9.069550e-01 -9.215431e-01 -8.999699e-01 -9.116925e-01 -8.932250e-01 -9.049108e-01 -8.926747e-01 -9.073152e-01 -9.011657e-01 -9.140897e-01 -9.099043e-01 -9.181641e-01 -9.124165e-01 -9.126818e-01 -9.045950e-01 -9.022729e-01 -8.943975e-01 -8.903726e-01 -8.775880e-01 -8.715345e-01 -8.538625e-01 -8.502669e-01 -8.290565e-01 -8.342696e-01 -8.123632e-01 -8.320010e-01 -8.064187e-01 -8.365978e-01 -8.058852e-01 -8.397225e-01 -7.982248e-01 -8.359140e-01 -7.981852e-01 -8.296661e-01 -7.995903e-01 -8.271704e-01 -8.040322e-01 
-6.799328e-01 -6.661875e-01 -6.785784e-01 -6.678463e-01 -6.755070e-01 -6.677303e-01 -6.686182e-01 -6.768404e-01 -6.591730e-01 -6.785055e-01 -6.573135e-01 -6.822475e-01 -6.630947e-01 -6.862574e-01 -6.747340e-01 -6.972677e-01 -6.889659e-01 -7.054347e-01 -6.979675e-01 -7.064970e-01 -6.966407e-01 -6.939665e-01 -6.904654e-01 -6.970030e-01 -7.021706e-01 -7.077495e-01 -7.120545e-01 -7.158960e-01 -7.267194e-01 -7.303281e-01 -7.450234e-01 -7.429248e-01 -7.559540e-01 -7.484645e-01 -7.663176e-01 -7.626993e-01 -7.861984e-01 -7.836607e-01 -8.078064e-01 -7.997200e-01 -8.286786e-01 -8.282449e-01 -8.664413e-01 -8.654606e-01 -8.934870e-01 -8.791628e-01 -8.969563e-01 -8.847369e-01 -9.128297e-01 -9.110784e-01 -9.385841e-01 -9.302099e-01 -9.501512e-01 -9.390513e-01 -9.579828e-01 -9.450955e-01 -9.498685e-01 -9.129217e-01 -8.950370e-01 -8.626340e-01 -8.528105e-01 -8.339052e-01 -8.432599e-01 -8.335317e-01 -8.437874e-01 -8.336119e-01 -8.423059e-01 -8.366118e-01 -8.485459e-01 -8.379356e-01 -8.441785e-01 -8.314735e-01 -8.449512e-01 -8.390776e-01 -8.595768e-01 -8.519541e-01 -8.684607e-01 -8.526116e-01 -8.620238e-01 -8.379970e-01 -8.465807e-01 -8.250417e-01 -8.427362e-01 -8.294299e-01 -8.524481e-01 -8.385911e-01 -8.578647e-01 -8.359811e-01 -8.499603e-01 -8.333374e-01 -8.534309e-01 -8.362294e-01 -8.480252e-01 -8.271504e-01 -8.373587e-01 -8.214435e-01 -8.284596e-01 -8.159246e-01 -8.271432e-01 -8.248101e-01 -8.359305e-01 -8.347245e-01 -8.391805e-01 -8.332664e-01 -8.214948e-01 -8.099608e-01 -8.012004e-01 -7.987218e-01 -7.889044e-01 -7.758457e-01 -7.582840e-01 -7.370230e-01 -7.209721e-01 -7.023999e-01 -7.013446e-01 -6.858494e-01 -7.018041e-01 -6.827913e-01 -7.121386e-01 -6.894439e-01 -7.173476e-01 -6.750872e-01 -7.062002e-01 -6.672896e-01 -6.897521e-01 -6.637501e-01 -6.824694e-01 -6.641303e-01 
-8.309069e-01 -8.140673e-01 -8.366234e-01 -8.196268e-01 -8.360677e-01 -8.141170e-01 -8.354002e-01 -8.469234e-01 -8.191623e-01 -8.458574e-01 -8.167810e-01 -8.577407e-01 -8.355940e-01 -8.709864e-01 -7.954831e-01 -8.128889e-01 -7.542415e-01 -7.591505e-01 -6.961878e-01 -7.024257e-01 -5.955688e-01 -5.888179e-01 -5.714897e-01 -6.117958e-01 -6.202093e-01 -6.529877e-01 -6.376951e-01 -6.484653e-01 -6.474408e-01 -6.735552e-01 -6.957428e-01 -7.155973e-01 -7.171608e-01 -7.080959e-01 -7.128201e-01 -7.206189e-01 -7.460293e-01 -7.629036e-01 -7.753508e-01 -7.554642e-01 -7.685980e-01 -7.818494e-01 -8.394007e-01 -8.653088e-01 -8.902568e-01 -8.608421e-01 -8.484199e-01 -8.340016e-01 -8.713398e-01 -8.969135e-01 -9.343590e-01 -9.344562e-01 -9.513205e-01 -9.584015e-01 -1.000551e+00 -1.021850e+00 -1.024899e+00 -9.396159e-01 -8.864268e-01 -8.682608e-01 -8.381176e-01 -8.219910e-01 -8.433440e-01 -8.394848e-01 -8.646038e-01 -8.662664e-01 -8.598843e-01 -8.613056e-01 -8.678770e-01 -8.301661e-01 -8.190696e-01 -8.384695e-01 -8.782383e-01 -8.780084e-01 -9.020935e-01 -9.052832e-01 -9.268044e-01 -9.093667e-01 -9.086496e-01 -8.731867e-01 -8.760568e-01 -8.530596e-01 -8.754492e-01 -8.688672e-01 -9.079661e-01 -9.116509e-01 -9.413973e-01 -9.043458e-01 -9.022142e-01 -8.833422e-01 -9.206345e-01 -9.085487e-01 -9.201781e-01 -8.950351e-01 -9.166355e-01 -9.030681e-01 -9.044342e-01 -8.838279e-01 -9.081301e-01 -9.165975e-01 -9.328706e-01 -9.282148e-01 -9.450333e-01 -9.460376e-01 -9.281147e-01 -9.051346e-01 -8.988799e-01 -9.056652e-01 -8.995828e-01 -8.793453e-01 -8.580555e-01 -8.265102e-01 -8.020492e-01 -7.789872e-01 -7.793435e-01 -7.746312e-01 -8.107070e-01 -7.882049e-01 -8.415821e-01 -8.338755e-01 -8.646781e-01 -7.896590e-01 -8.499962e-01 -8.032600e-01 -8.290329e-01 -7.994560e-01 -8.259087e-01 -8.054037e-01 
-6.797029e-01 -6.720822e-01 -6.894241e-01 -6.784746e-01 -6.933879e-01 -6.744657e-01 -7.328838e-01 -7.563395e-01 -7.291225e-01 -7.450898e-01 -7.126251e-01 -7.312861e-01 -7.267496e-01 -7.005536e-01 -5.281838e-01 -4.434926e-01 -3.147000e-01 -1.920343e-01 -4.695465e-02 5.800191e-02 3.150489e-01 3.970039e-01 3.717743e-01 3.139358e-01 2.255444e-01 1.735312e-01 1.741988e-01 2.227489e-01 2.344959e-01 2.381994e-01 1.806678e-01 1.605371e-01 1.542435e-01 1.976778e-01 1.937668e-01 1.843956e-01 1.154389e-01 6.736220e-02 3.876899e-02 8.777339e-02 8.357589e-02 6.207349e-02 -4.301068e-02 -1.148531e-01 -1.642269e-01 -1.186106e-01 -9.290077e-02 -8.334226e-02 -1.516617e-01 -2.012457e-01 -2.556389e-01 -2.491864e-01 -2.616106e-01 -2.794242e-01 -3.532392e-01 -3.780486e-01 -3.464978e-01 -1.131513e-01 -1.830721e-02 -5.302371e-02 7.823079e-03 4.830454e-02 3.865059e-02 9.090909e-02 4.343237e-02 4.195221e-02 8.835385e-02 8.293361e-02 6.273273e-02 1.002889e-01 2.760660e-02 -1.463115e-01 -3.152412e-01 -3.390992e-01 -3.778826e-01 -3.985529e-01 -4.338469e-01 -4.169865e-01 -4.107355e-01 -3.783932e-01 -3.938412e-01 -3.865573e-01 -4.030729e-01 -3.896116e-01 -4.334364e-01 -4.699653e-01 -5.092434e-01 -4.562806e-01 -4.156224e-01 -3.938164e-01 -4.535897e-01 -4.737068e-01 -4.932802e-01 -4.967663e-01 -5.499072e-01 -5.613829e-01 -5.493288e-01 -5.227947e-01 -5.582535e-01 -5.762197e-01 -5.710932e-01 -5.458436e-01 -5.862768e-01 -6.328465e-01 -6.558230e-01 -6.481619e-01 -6.535365e-01 -6.553200e-01 -6.499768e-01 -6.206022e-01 -6.218428e-01 -6.078420e-01 -5.993937e-01 -5.817137e-01 -5.767056e-01 -5.935678e-01 -6.435467e-01 -6.020573e-01 -6.447151e-01 -6.649287e-01 -6.572013e-01 -5.580359e-01 -6.500044e-01 -6.519465e-01 -6.599183e-01 -6.537398e-01 -6.687105e-01 -6.622609e-01 
-8.309878e-01 -8.303523e-01 -8.688137e-01 -8.670742e-01 -9.110053e-01 -9.113298e-01 -1.000095e+00 -1.012917e+00 -1.058105e+00 -1.045998e+00 -1.085191e+00 -1.060604e+00 -1.133598e+00 -1.068976e+00 -4.390274e-01 -6.077878e-02 3.935292e-01 8.190003e-01 1.301803e+00 1.617635e+00 2.363839e+00 2.401284e+00 2.335448e+00 2.269290e+00 2.157864e+00 2.093691e+00 2.061281e+00 2.100839e+00 2.102899e+00 2.113872e+00 2.059330e+00 2.033585e+00 2.010105e+00 2.022679e+00 2.001075e+00 1.968433e+00 1.888456e+00 1.818395e+00 1.766691e+00 1.765989e+00 1.742016e+00 1.698438e+00 1.607999e+00 1.519865e+00 1.454826e+00 1.439818e+00 1.419366e+00 1.383774e+00 1.317197e+00 1.266056e+00 1.219022e+00 1.206373e+00 1.187243e+00 1.161254e+00 1.108155e+00 1.104070e+00 1.135353e+00 1.302156e+00 1.322774e+00 1.248471e+00 1.259682e+00 1.270561e+00 1.264104e+00 1.301453e+00 1.242909e+00 1.222403e+00 1.229489e+00 1.200726e+00 1.146633e+00 1.111265e+00 9.626714e-01 7.811506e-01 6.167737e-01 5.869164e-01 5.437121e-01 5.181431e-01 4.736632e-01 4.674794e-01 4.435652e-01 4.332891e-01 3.866194e-01 3.630220e-01 3.402618e-01 3.465974e-01 3.114893e-01 2.708519e-01 2.286562e-01 2.437410e-01 2.556014e-01 2.564124e-01 1.957304e-01 1.507883e-01 1.015644e-01 5.796786e-02 -1.792396e-02 -5.377326e-02 -7.546530e-02 -7.282129e-02 -1.204908e-01 -1.320374e-01 -1.414275e-01 -1.189618e-01 -1.854325e-01 -2.444860e-01 -3.374300e-01 -3.597474e-01 -4.113018e-01 -3.976412e-01 -4.332137e-01 -4.138200e-01 -4.785672e-01 -4.909577e-01 -5.497611e-01 -5.438686e-01 -5.768137e-01 -5.852386e-01 -6.427817e-01 -6.001324e-01 -6.281180e-01 -6.370840e-01 -6.372092e-01 -5.906854e-01 -6.756893e-01 -7.183980e-01 -7.460759e-01 -7.601989e-01 -7.921779e-01 -7.959307e-01 
-6.847731e-01 -6.920415e-01 -7.238623e-01 -7.324370e-01 -7.694023e-01 -7.838189e-01 -8.326346e-01 -8.424372e-01 -8.903673e-01 -8.895502e-01 -9.317707e-01 -9.247522e-01 -9.748649e-01 -9.655604e-01 -1.824034e-01 -9.438803e-02 6.304025e-01 7.493980e-01 1.472753e+00 1.567832e+00 2.336046e+00 2.358575e+00 2.285375e+00 2.279015e+00 2.200756e+00 2.188009e+00 2.131737e+00 2.148283e+00 2.112500e+00 2.126154e+00 2.079847e+00 2.076649e+00 2.031425e+00 2.026862e+00 1.980442e+00 1.961997e+00 1.899799e+00 1.868477e+00 1.808918e+00 1.785053e+00 1.733185e+00 1.704539e+00 1.645410e+00 1.605259e+00 1.544214e+00 1.509922e+00 1.453078e+00 1.419283e+00 1.367287e+00 1.343889e+00 1.300045e+00 1.281534e+00 1.241897e+00 1.223908e+00 1.185427e+00 1.181916e+00 1.156136e+00 1.152238e+00 1.084119e+00 1.043346e+00 9.877550e-01 9.727376e-01 9.426840e-01 9.388794e-01 8.934735e-01 8.826263e-01 8.454587e-01 8.398203e-01 7.988895e-01 7.726481e-01 6.952344e-01 6.666274e-01 6.293124e-01 6.299641e-01 6.038817e-01 5.988128e-01 5.667847e-01 5.586872e-01 5.240292e-01 5.071715e-01 4.656268e-01 4.479665e-01 4.206813e-01 4.175947e-01 3.918113e-01 3.767330e-01 3.459998e-01 3.343917e-01 3.092954e-01 2.979509e-01 2.608649e-01 2.325401e-01 1.863567e-01 1.515221e-01 1.010729e-01 7.486553e-02 3.671992e-02 2.282250e-02 -1.351767e-02 -1.956021e-02 -4.693415e-02 -4.757372e-02 -9.570200e-02 -1.220126e-01 -1.927415e-01 -2.136248e-01 -2.631317e-01 -2.552647e-01 -2.967016e-01 -2.938375e-01 -3.499636e-01 -3.606411e-01 -4.159346e-01 -4.168324e-01 -4.553301e-01 -4.523185e-01 -4.875213e-01 -4.725665e-01 -4.916768e-01 -4.864004e-01 -5.058520e-01 -5.089455e-01 -5.465667e-01 -5.725363e-01 -6.031419e-01 -6.176386e-01 -6.463705e-01 -6.554431e-01 
-8.352455e-01 -8.377704e-01 -8.841377e-01 -8.858708e-01 -9.369295e-01 -9.387000e-01 -9.962031e-01 -9.974655e-01 -1.053911e+00 -1.051565e+00 -1.108405e+00 -1.104177e+00 -1.165122e+00 -1.162576e+00 -3.045484e-01 -2.132591e-01 5.817465e-01 7.015578e-01 1.496925e+00 1.583229e+00 2.435010e+00 2.441658e+00 2.378933e+00 2.367323e+00 2.305263e+00 2.289616e+00 2.239193e+00 2.232144e+00 2.189602e+00 2.180277e+00 2.135308e+00 2.119520e+00 2.075773e+00 2.057423e+00 2.011748e+00 1.984647e+00 1.932235e+00 1.898160e+00 1.846411e+00 1.814240e+00 1.763796e+00 1.726393e+00 1.670933e+00 1.628977e+00 1.575855e+00 1.539731e+00 1.491860e+00 1.457063e+00 1.409085e+00 1.376437e+00 1.332402e+00 1.305269e+00 1.265528e+00 1.240594e+00 1.200761e+00 1.178827e+00 1.142120e+00 1.117305e+00 1.070406e+00 1.050210e+00 1.004298e+00 9.905909e-01 9.530831e-01 9.390669e-01 9.008285e-01 8.888015e-01 8.503097e-01 8.409710e-01 8.005402e-01 7.823401e-01 7.357545e-01 7.115116e-01 6.672169e-01 6.486758e-01 6.065894e-01 5.884270e-01 5.474873e-01 5.312307e-01 4.925130e-01 4.760474e-01 4.368580e-01 4.200307e-01 3.838704e-01 3.695418e-01 3.333822e-01 3.160484e-01 2.796095e-01 2.653271e-01 2.308992e-01 2.140071e-01 1.716322e-01 1.480153e-01 1.020464e-01 7.697430e-02 2.855706e-02 6.865293e-03 -3.714966e-02 -5.211277e-02 -9.655090e-02 -1.083692e-01 -1.518479e-01 -1.606690e-01 -2.120851e-01 -2.265486e-01 -2.833778e-01 -2.930551e-01 -3.458247e-01 -3.472777e-01 -3.974137e-01 -3.960743e-01 -4.481335e-01 -4.483348e-01 -4.987702e-01 -4.966382e-01 -5.426354e-01 -5.392518e-01 -5.840243e-01 -5.763089e-01 -6.161952e-01 -6.122581e-01 -6.503978e-01 -6.470374e-01 -6.920262e-01 -6.983374e-01 -7.402332e-01 -7.462044e-01 -7.878735e-01 -7.919803e-01 
-6.872071e-01 -6.968739e-01 -7.326355e-01 -7.426120e-01 -7.814495e-01 -7.922392e-01 -8.346332e-01 -8.455289e-01 -8.897897e-01 -9.012054e-01 -9.460225e-01 -9.609984e-01 -1.006203e+00 -1.030497e+00 -1.680164e-01 -1.571907e-01 6.733604e-01 6.995214e-01 1.523747e+00 1.542198e+00 2.383244e+00 2.375816e+00 2.316626e+00 2.309867e+00 2.251162e+00 2.245260e+00 2.190079e+00 2.186754e+00 2.134749e+00 2.130166e+00 2.078008e+00 2.069193e+00 2.016489e+00 2.003437e+00 1.949593e+00 1.931479e+00 1.875649e+00 1.853204e+00 1.797271e+00 1.772762e+00 1.717597e+00 1.690736e+00 1.635311e+00 1.606276e+00 1.551448e+00 1.522953e+00 1.470375e+00 1.443797e+00 1.394316e+00 1.371053e+00 1.324978e+00 1.304956e+00 1.261849e+00 1.244890e+00 1.204098e+00 1.190535e+00 1.151523e+00 1.138798e+00 1.098432e+00 1.087951e+00 1.046390e+00 1.037756e+00 9.980777e-01 9.891094e-01 9.489424e-01 9.389628e-01 8.968065e-01 8.846422e-01 8.397480e-01 8.225369e-01 7.765259e-01 7.543114e-01 7.040543e-01 6.868130e-01 6.437375e-01 6.289634e-01 5.887055e-01 5.742235e-01 5.353108e-01 5.200105e-01 4.821210e-01 4.668941e-01 4.315811e-01 4.174449e-01 3.833980e-01 3.680929e-01 3.337775e-01 3.175148e-01 2.823942e-01 2.642700e-01 2.262354e-01 2.049933e-01 1.641384e-01 1.417546e-01 9.961906e-02 7.933918e-02 3.819205e-02 2.184703e-02 -1.857180e-02 -3.104617e-02 -7.135781e-02 -8.127858e-02 -1.248716e-01 -1.350611e-01 -1.819387e-01 -1.897095e-01 -2.355949e-01 -2.388575e-01 -2.837280e-01 -2.855419e-01 -3.307430e-01 -3.326691e-01 -3.762777e-01 -3.770084e-01 -4.169086e-01 -4.167789e-01 -4.531559e-01 -4.525953e-01 -4.851609e-01 -4.871167e-01 -5.185325e-01 -5.245038e-01 -5.572249e-01 -5.675807e-01 -6.001181e-01 -6.108162e-01 -6.434777e-01 -6.535255e-01 
-8.335016e-01 -8.359975e-01 -8.839271e-01 -8.858167e-01 -9.370809e-01 -9.387900e-01 -9.936344e-01 -9.955288e-01 -1.052581e+00 -1.055092e+00 -1.113825e+00 -1.118791e+00 -1.178104e+00 -1.190033e+00 -2.841232e-01 -2.509113e-01 6.192220e-01 6.680455e-01 1.538243e+00 1.568012e+00 2.472364e+00 2.457477e+00 2.404212e+00 2.391038e+00 2.338767e+00 2.325289e+00 2.274687e+00 2.260322e+00 2.210888e+00 2.194223e+00 2.144792e+00 2.124558e+00 2.074448e+00 2.050204e+00 1.999115e+00 1.970956e+00 1.919076e+00 1.887871e+00 1.836023e+00 1.802997e+00 1.751460e+00 1.716605e+00 1.664809e+00 1.628576e+00 1.577449e+00 1.542023e+00 1.493153e+00 1.459988e+00 1.413724e+00 1.383266e+00 1.339361e+00 1.311716e+00 1.270011e+00 1.245353e+00 1.205439e+00 1.183750e+00 1.145160e+00 1.125861e+00 1.087086e+00 1.069966e+00 1.030732e+00 1.014659e+00 9.749182e-01 9.586325e-01 9.177598e-01 9.012342e-01 8.593243e-01 8.425770e-01 8.000197e-01 7.824440e-01 7.396743e-01 7.216226e-01 6.790110e-01 6.613319e-01 6.192153e-01 6.014878e-01 5.596709e-01 5.417924e-01 5.003327e-01 4.822062e-01 4.414192e-01 4.236657e-01 3.842674e-01 3.672083e-01 3.286102e-01 3.112609e-01 2.722971e-01 2.541328e-01 2.137396e-01 1.938505e-01 1.509976e-01 1.297741e-01 8.514823e-02 6.397515e-02 1.818436e-02 -1.458364e-03 -4.756347e-02 -6.439668e-02 -1.105274e-01 -1.237784e-01 -1.695823e-01 -1.791591e-01 -2.257790e-01 -2.328798e-01 -2.806499e-01 -2.851495e-01 -3.335676e-01 -3.354674e-01 -3.838805e-01 -3.834945e-01 -4.314798e-01 -4.295154e-01 -4.765906e-01 -4.738639e-01 -5.202327e-01 -5.175251e-01 -5.630288e-01 -5.603479e-01 -6.043597e-01 -6.026069e-01 -6.459386e-01 -6.461512e-01 -6.901539e-01 -6.931401e-01 -7.368855e-01 -7.406406e-01 -7.847306e-01 -7.880300e-01 
-6.828512e-01 -6.921480e-01 -7.278851e-01 -7.372565e-01 -7.760692e-01 -7.861031e-01 -8.288311e-01 -8.391144e-01 -8.849365e-01 -8.964321e-01 -9.445766e-01 -9.586823e-01 -1.007011e+00 -1.027426e+00 -1.663902e-01 -1.536153e-01 6.802780e-01 7.057864e-01 1.538307e+00 1.552800e+00 2.408324e+00 2.394583e+00 2.343090e+00 2.335268e+00 2.284010e+00 2.278085e+00 2.225404e+00 2.217550e+00 2.162639e+00 2.151713e+00 2.095289e+00 2.080865e+00 2.023055e+00 2.004824e+00 1.946936e+00 1.926232e+00 1.869241e+00 1.846595e+00 1.790803e+00 1.766813e+00 1.712460e+00 1.686661e+00 1.631517e+00 1.602750e+00 1.547518e+00 1.519311e+00 1.467618e+00 1.442653e+00 1.394453e+00 1.371627e+00 1.325065e+00 1.304225e+00 1.260263e+00 1.243022e+00 1.202113e+00 1.188788e+00 1.150824e+00 1.141099e+00 1.104875e+00 1.097291e+00 1.060488e+00 1.051686e+00 1.011716e+00 9.997239e-01 9.558694e-01 9.407109e-01 8.945972e-01 8.787106e-01 8.335835e-01 8.192720e-01 7.763570e-01 7.624829e-01 7.195949e-01 7.052566e-01 6.623640e-01 6.465714e-01 6.040010e-01 5.875981e-01 5.457347e-01 5.284370e-01 4.879977e-01 4.711432e-01 4.330490e-01 4.169036e-01 3.807327e-01 3.643577e-01 3.286070e-01 3.113052e-01 2.745940e-01 2.547167e-01 2.153596e-01 1.932956e-01 1.516084e-01 1.286930e-01 8.579563e-02 6.412021e-02 2.101123e-02 2.474978e-03 -3.953697e-02 -5.317351e-02 -9.287027e-02 -1.007837e-01 -1.398279e-01 -1.446477e-01 -1.847797e-01 -1.877968e-01 -2.301502e-01 -2.323060e-01 -2.752267e-01 -2.754773e-01 -3.174441e-01 -3.158488e-01 -3.562357e-01 -3.554612e-01 -3.960222e-01 -3.970571e-01 -4.357646e-01 -4.378054e-01 -4.731860e-01 -4.763748e-01 -5.099498e-01 -5.173230e-01 -5.511611e-01 -5.620910e-01 -5.952551e-01 -6.061214e-01 -6.391175e-01 -6.490495e-01 
-8.251575e-01 -8.268279e-01 -8.728280e-01 -8.731742e-01 -9.236798e-01 -9.238820e-01 -9.815446e-01 -9.823261e-01 -1.042099e+00 -1.042137e+00 -1.107184e+00 -1.103527e+00 -1.170580e+00 -1.159842e+00 -3.011573e-01 -2.079036e-01 5.939940e-01 7.104935e-01 1.519165e+00 1.594802e+00 2.474711e+00 2.465622e+00 2.418482e+00 2.411936e+00 2.366773e+00 2.357808e+00 2.309042e+00 2.293018e+00 2.241357e+00 2.222425e+00 2.171273e+00 2.148348e+00 2.093072e+00 2.062560e+00 2.005313e+00 1.972613e+00 1.917968e+00 1.884739e+00 1.831677e+00 1.797827e+00 1.747473e+00 1.713367e+00 1.661519e+00 1.622269e+00 1.566786e+00 1.526240e+00 1.474978e+00 1.441654e+00 1.398097e+00 1.369411e+00 1.326269e+00 1.297410e+00 1.255374e+00 1.231058e+00 1.192935e+00 1.173802e+00 1.139330e+00 1.125783e+00 1.094814e+00 1.084654e+00 1.052083e+00 1.038294e+00 9.991716e-01 9.808903e-01 9.368233e-01 9.157535e-01 8.692539e-01 8.481221e-01 8.029395e-01 7.854584e-01 7.436633e-01 7.281964e-01 6.871063e-01 6.721405e-01 6.307748e-01 6.139071e-01 5.709999e-01 5.518978e-01 5.064418e-01 4.841756e-01 4.389302e-01 4.189669e-01 3.786854e-01 3.628345e-01 3.264618e-01 3.111953e-01 2.739620e-01 2.555550e-01 2.133192e-01 1.888709e-01 1.427922e-01 1.184220e-01 7.270825e-02 4.951420e-02 2.947249e-03 -1.976325e-02 -6.911271e-02 -9.090665e-02 -1.401396e-01 -1.551920e-01 -1.987505e-01 -2.042898e-01 -2.447777e-01 -2.450149e-01 -2.857360e-01 -2.850509e-01 -3.317303e-01 -3.328200e-01 -3.812015e-01 -3.789386e-01 -4.247793e-01 -4.173854e-01 -4.602875e-01 -4.538377e-01 -5.012134e-01 -4.991510e-01 -5.478937e-01 -5.466397e-01 -5.915332e-01 -5.878142e-01 -6.309405e-01 -6.314919e-01 -6.782357e-01 -6.859495e-01 -7.291127e-01 -7.355473e-01 -7.779059e-01 -7.817775e-01 
-6.733008e-01 -6.793831e-01 -7.105539e-01 -7.169750e-01 -7.524284e-01 -7.634015e-01 -8.097452e-01 -8.155173e-01 -8.659750e-01 -8.719662e-01 -9.320409e-01 -9.306446e-01 -9.914832e-01 -9.709468e-01 -1.889530e-01 -9.240428e-02 6.417515e-01 7.616026e-01 1.504919e+00 1.584323e+00 2.388009e+00 2.388173e+00 2.344743e+00 2.352063e+00 2.314938e+00 2.324295e+00 2.277354e+00 2.269544e+00 2.208869e+00 2.193301e+00 2.132108e+00 2.113314e+00 2.045160e+00 2.016412e+00 1.950587e+00 1.925160e+00 1.865799e+00 1.840574e+00 1.783960e+00 1.762336e+00 1.717719e+00 1.697623e+00 1.639946e+00 1.597336e+00 1.527190e+00 1.488543e+00 1.437915e+00 1.418976e+00 1.379483e+00 1.357701e+00 1.306796e+00 1.278687e+00 1.232065e+00 1.213268e+00 1.172678e+00 1.160860e+00 1.128764e+00 1.127875e+00 1.105073e+00 1.113822e+00 1.092125e+00 1.091045e+00 1.053646e+00 1.038540e+00 9.845015e-01 9.544074e-01 8.913539e-01 8.625332e-01 8.122703e-01 8.054074e-01 7.743253e-01 7.723876e-01 7.369853e-01 7.295119e-01 6.854968e-01 6.653112e-01 6.188916e-01 6.017075e-01 5.540279e-01 5.293840e-01 4.827133e-01 4.631693e-01 4.239834e-01 4.095850e-01 3.773023e-01 3.626475e-01 3.309846e-01 3.192388e-01 2.876774e-01 2.644927e-01 2.225510e-01 1.943244e-01 1.473244e-01 1.155122e-01 6.785835e-02 3.719104e-02 -1.311539e-02 -4.088514e-02 -8.936245e-02 -1.074555e-01 -1.398853e-01 -1.352726e-01 -1.628080e-01 -1.570929e-01 -1.859467e-01 -1.804462e-01 -2.258827e-01 -2.311095e-01 -2.781617e-01 -2.766149e-01 -3.178489e-01 -3.020665e-01 -3.322141e-01 -3.259808e-01 -3.753124e-01 -3.807262e-01 -4.276600e-01 -4.317345e-01 -4.638537e-01 -4.561240e-01 -4.836010e-01 -4.948812e-01 -5.336393e-01 -5.596482e-01 -5.913446e-01 -6.058578e-01 -6.352837e-01 -6.438899e-01 
-8.152158e-01 -8.125245e-01 -8.490672e-01 -8.431501e-01 -8.823806e-01 -8.746117e-01 -9.549761e-01 -9.622200e-01 -1.009113e+00 -1.018977e+00 -1.099276e+00 -1.101959e+00 -1.181396e+00 -1.109009e+00 -4.325674e-01 -5.405986e-02 4.137483e-01 8.397379e-01 1.315284e+00 1.603560e+00 2.329793e+00 2.364905e+00 2.326214e+00 2.345043e+00 2.327838e+00 2.337429e+00 2.286552e+00 2.252261e+00 2.188312e+00 2.174600e+00 2.143805e+00 2.134608e+00 2.069538e+00 2.013615e+00 1.932424e+00 1.888164e+00 1.835478e+00 1.802266e+00 1.745285e+00 1.708183e+00 1.670658e+00 1.653602e+00 1.612794e+00 1.562909e+00 1.478294e+00 1.400307e+00 1.329000e+00 1.301695e+00 1.287922e+00 1.283160e+00 1.243212e+00 1.198025e+00 1.145076e+00 1.119437e+00 1.086111e+00 1.069547e+00 1.039991e+00 1.041152e+00 1.037798e+00 1.059535e+00 1.050252e+00 1.040590e+00 9.949721e-01 9.681394e-01 9.146905e-01 8.846023e-01 8.264230e-01 7.922682e-01 7.385272e-01 7.236747e-01 6.878137e-01 6.773797e-01 6.404499e-01 6.369339e-01 6.047915e-01 5.958870e-01 5.585253e-01 5.412144e-01 4.815240e-01 4.353223e-01 3.671696e-01 3.382454e-01 3.026025e-01 3.036072e-01 2.896085e-01 2.948193e-01 2.775791e-01 2.683967e-01 2.154610e-01 1.610806e-01 9.450843e-02 6.464099e-02 2.641993e-02 8.690463e-03 -2.812516e-02 -5.232007e-02 -1.145819e-01 -1.637075e-01 -2.360023e-01 -2.611830e-01 -2.937074e-01 -2.832315e-01 -3.050662e-01 -2.804109e-01 -2.918550e-01 -2.771255e-01 -3.353761e-01 -3.538395e-01 -4.168428e-01 -4.189770e-01 -4.615101e-01 -4.287685e-01 -4.408297e-01 -4.157342e-01 -4.700091e-01 -4.800691e-01 -5.504053e-01 -5.619090e-01 -6.011759e-01 -5.730528e-01 -5.965030e-01 -5.808868e-01 -6.586421e-01 -6.991185e-01 -7.298910e-01 -7.439871e-01 -7.773333e-01 -7.802992e-01 
-6.669121e-01 -6.582831e-01 -6.748730e-01 -6.615110e-01 -6.740984e-01 -6.505865e-01 -7.063857e-01 -7.346690e-01 -7.152286e-01 -7.554247e-01 -7.614790e-01 -8.104048e-01 -8.040644e-01 -7.757502e-01 -5.764728e-01 -4.607284e-01 -3.098309e-01 -1.754559e-01 -2.868852e-02 7.248420e-02 2.701521e-01 3.162895e-01 3.059432e-01 3.228172e-01 3.205980e-01 3.175208e-01 2.735337e-01 2.408051e-01 2.081765e-01 2.342641e-01 2.586797e-01 2.969674e-01 2.723343e-01 2.453901e-01 1.771924e-01 1.531745e-01 1.154182e-01 1.075810e-01 5.656978e-02 3.032528e-02 -1.817625e-02 -1.484638e-02 -3.065654e-02 -2.458301e-02 -8.294776e-02 -1.397460e-01 -2.244687e-01 -2.397835e-01 -2.407209e-01 -1.970835e-01 -2.014036e-01 -2.060492e-01 -2.405658e-01 -2.328431e-01 -2.431746e-01 -2.323476e-01 -2.528988e-01 -2.362816e-01 -2.329761e-01 -2.075301e-01 -2.207468e-01 -2.286820e-01 -2.676973e-01 -2.721757e-01 -2.815010e-01 -2.525031e-01 -2.469291e-01 -2.328654e-01 -2.593723e-01 -2.779817e-01 -3.288204e-01 -3.532116e-01 -3.897540e-01 -3.825026e-01 -3.813088e-01 -3.460242e-01 -3.474852e-01 -3.407922e-01 -3.816727e-01 -4.087234e-01 -4.655988e-01 -4.733365e-01 -4.848257e-01 -4.474289e-01 -4.329447e-01 -3.876452e-01 -3.837930e-01 -3.829027e-01 -4.518835e-01 -5.073587e-01 -5.728759e-01 -5.697498e-01 -5.648184e-01 -5.257616e-01 -5.141210e-01 -4.915337e-01 -5.206724e-01 -5.529793e-01 -6.048668e-01 -6.175216e-01 -6.376064e-01 -6.419057e-01 -6.480418e-01 -6.220220e-01 -6.033829e-01 -5.933265e-01 -6.129166e-01 -6.315965e-01 -6.558547e-01 -6.607308e-01 -6.604072e-01 -6.374732e-01 -6.124702e-01 -5.737332e-01 -5.726854e-01 -5.664242e-01 -6.068640e-01 -6.082064e-01 -6.373323e-01 -6.006592e-01 -6.159682e-01 -5.505907e-01 -6.296448e-01 -6.311720e-01 -6.431779e-01 -6.383699e-01 -6.552694e-01 -6.489574e-01 
-8.216287e-01 -8.049467e-01 -8.280463e-01 -8.112560e-01 -8.288410e-01 -8.082926e-01 -8.338479e-01 -8.544052e-01 -8.345297e-01 -8.685332e-01 -8.469943e-01 -8.947375e-01 -8.671506e-01 -8.998073e-01 -8.113207e-01 -8.197937e-01 -7.497543e-01 -7.554242e-01 -6.912338e-01 -6.977233e-01 -6.095074e-01 -6.274479e-01 -6.145331e-01 -6.392651e-01 -6.357486e-01 -6.701705e-01 -6.825703e-01 -7.109632e-01 -7.059478e-01 -6.949968e-01 -6.650665e-01 -6.465098e-01 -6.401070e-01 -6.486146e-01 -6.743605e-01 -6.905387e-01 -7.123674e-01 -7.220959e-01 -7.536203e-01 -7.759234e-01 -8.195336e-01 -8.291889e-01 -8.424102e-01 -8.265449e-01 -8.473695e-01 -8.666487e-01 -9.187983e-01 -9.338424e-01 -9.487810e-01 -9.234143e-01 -9.197179e-01 -9.058536e-01 -9.182196e-01 -9.052079e-01 -9.081686e-01 -8.955736e-01 -9.073423e-01 -8.989254e-01 -9.063944e-01 -9.042443e-01 -9.231647e-01 -9.292999e-01 -9.475536e-01 -9.390210e-01 -9.264852e-01 -8.857954e-01 -8.575898e-01 -8.278800e-01 -8.337127e-01 -8.479133e-01 -8.902692e-01 -9.127181e-01 -9.419866e-01 -9.389283e-01 -9.373152e-01 -9.036680e-01 -9.015809e-01 -8.875769e-01 -9.069381e-01 -9.026723e-01 -9.310050e-01 -9.198813e-01 -9.293767e-01 -8.964035e-01 -8.970772e-01 -8.596804e-01 -8.698973e-01 -8.646896e-01 -9.180467e-01 -9.331029e-01 -9.746422e-01 -9.538086e-01 -9.504571e-01 -9.039429e-01 -8.944765e-01 -8.586068e-01 -8.686435e-01 -8.653541e-01 -8.890201e-01 -8.847511e-01 -9.061104e-01 -9.164953e-01 -9.295236e-01 -9.201358e-01 -9.169555e-01 -9.135612e-01 -9.116346e-01 -9.095841e-01 -9.089155e-01 -9.034994e-01 -8.947330e-01 -8.855400e-01 -8.774107e-01 -8.466742e-01 -8.342808e-01 -8.071024e-01 -8.258322e-01 -8.029947e-01 -8.375470e-01 -8.064063e-01 -8.425960e-01 -7.763883e-01 -8.316673e-01 -7.875389e-01 -8.153363e-01 -7.875553e-01 -8.152344e-01 -7.954314e-01 
-6.754593e-01 -6.619202e-01 -6.746938e-01 -6.643810e-01 -6.729359e-01 -6.667093e-01 -6.702555e-01 -6.831411e-01 -6.695133e-01 -6.920069e-01 -6.720666e-01 -6.991587e-01 -6.786421e-01 -7.016391e-01 -6.869006e-01 -7.056504e-01 -6.939927e-01 -7.083814e-01 -7.016058e-01 -7.078414e-01 -7.030200e-01 -7.033296e-01 -7.024866e-01 -7.064308e-01 -7.128468e-01 -7.217202e-01 -7.322792e-01 -7.357810e-01 -7.405358e-01 -7.313112e-01 -7.316187e-01 -7.194003e-01 -7.276605e-01 -7.220726e-01 -7.440532e-01 -7.442567e-01 -7.708431e-01 -7.707933e-01 -8.017580e-01 -8.047261e-01 -8.417364e-01 -8.419979e-01 -8.698805e-01 -8.594878e-01 -8.856674e-01 -8.827587e-01 -9.171743e-01 -9.145457e-01 -9.385016e-01 -9.225173e-01 -9.349292e-01 -9.169930e-01 -9.305035e-01 -9.129982e-01 -9.225503e-01 -9.039033e-01 -9.124025e-01 -8.937118e-01 -8.996444e-01 -8.853979e-01 -8.953334e-01 -8.841956e-01 -8.934488e-01 -8.781482e-01 -8.773520e-01 -8.522722e-01 -8.468351e-01 -8.270499e-01 -8.353861e-01 -8.331474e-01 -8.563266e-01 -8.574042e-01 -8.767630e-01 -8.688165e-01 -8.779953e-01 -8.579099e-01 -8.661016e-01 -8.505403e-01 -8.645533e-01 -8.494122e-01 -8.658805e-01 -8.485622e-01 -8.609105e-01 -8.375485e-01 -8.482554e-01 -8.240975e-01 -8.393564e-01 -8.267896e-01 -8.550547e-01 -8.475649e-01 -8.705577e-01 -8.522123e-01 -8.588211e-01 -8.311810e-01 -8.332552e-01 -8.105350e-01 -8.172450e-01 -8.068706e-01 -8.178656e-01 -8.122737e-01 -8.235549e-01 -8.250074e-01 -8.299044e-01 -8.249233e-01 -8.213496e-01 -8.168130e-01 -8.087363e-01 -8.024149e-01 -7.933353e-01 -7.844632e-01 -7.726303e-01 -7.611650e-01 -7.527441e-01 -7.318633e-01 -7.246710e-01 -7.014219e-01 -7.104446e-01 -6.864891e-01 -7.090379e-01 -6.817033e-01 -7.094308e-01 -6.674036e-01 -6.976873e-01 -6.603896e-01 -6.832345e-01 -6.580903e-01 -6.772503e-01 -6.593107e-01 
