# vtk DataFile Version 2.0
Comment goes here
ASCII

DATASET STRUCTURED_POINTS
FIELD FieldData 1
TIME 1 1 double
0.10000000
DIMENSIONS    128   16   1

ORIGIN    0.000   0.000   0.000
SPACING   0.0078125 0.015625   1.000

POINT_DATA   2048
SCALARS uMag double
LOOKUP_TABLE default

1.498981e-03 2.121216e-03 1.477254e-03 4.093880e-03 9.792896e-04 9.013204e-03 6.338313e-04 3.360658e-03 1.162703e-03 1.683746e-03 8.266136e-04 2.079830e-04 2.468162e-05 6.807269e-04 1.604929e-03 4.508375e-04 2.829388e-03 2.387502e-04 2.369440e-03 3.496463e-04 2.011414e-03 1.521776e-03 1.225800e-03 4.052514e-04 2.559090e-03 5.602911e-04 3.018174e-03 1.172894e-03 3.088624e-03 1.778365e-03 2.997532e-03 1.892273e-03 2.800652e-03 2.173125e-03 2.645610e-03 2.691038e-03 2.790024e-03 3.173057e-03 2.732020e-03 3.203004e-03 2.405825e-03 2.976744e-03 2.338142e-03 2.890420e-03 2.461521e-03 2.974395e-03 2.726109e-03 2.865994e-03 2.695877e-03 2.848359e-03 2.945534e-03 2.906765e-03 2.740631e-03 2.629383e-03 2.266950e-03 2.451117e-03 2.631283e-03 2.910793e-03 2.307142e-03 3.921739e-03 3.251246e-03 4.071527e-03 4.279789e-03 4.928754e-03 5.042331e-03 5.689579e-03 6.525889e-03 6.871209e-03 7.982885e-03 7.664813e-03 6.178555e-03 7.934170e-03 1.063179e-02 1.030822e-02 9.483879e-03 7.341890e-03 5.732752e-03 4.144296e-03 3.146371e-03 2.536827e-03 2.169646e-03 2.046438e-03 2.301980e-03 2.015555e-03 2.521195e-03 1.643892e-03 2.451189e-03 1.408568e-03 2.672626e-03 1.419993e-03 2.709672e-03 1.426742e-03 2.898691e-03 1.948692e-03 2.911634e-03 2.081533e-03 2.443355e-03 2.386874e-03 2.122322e-03 2.495810e-03 1.434208e-03 2.816909e-03 1.257382e-03 3.240554e-03 8.781539e-04 3.485882e-03 8.789678e-04 3.600305e-03 7.820152e-04 3.359336e-03 1.227480e-03 3.395947e-03 1.497920e-03 2.515491e-03 2.270614e-03 1.345137e-03 3.010331e-03 6.876789e-04 4.062369e-03 8.196478e-04 4.607847e-03 1.442189e-03 3.266708e-03 8.464488e-04 1.052798e-03 3.415871e-04 1.552986e-03 1.022830e-03 
1.529160e-03 1.992742e-03 2.267419e-03 3.564773e-03 5.023229e-03 9.989623e-03 5.680450e-03 2.798758e-03 3.189128e-03 7.886224e-04 4.855915e-03 8.247387e-04 7.704563e-03 2.092824e-03 6.933375e-03 2.779292e-03 6.562695e-03 2.828023e-03 5.640627e-03 3.203757e-03 4.892986e-03 5.164689e-03 3.514131e-03 3.889764e-03 3.209451e-03 2.035379e-03 2.655449e-03 1.504520e-03 2.315813e-03 2.007768e-03 2.215085e-03 1.628383e-03 1.791108e-03 1.495546e-03 9.718779e-04 1.507659e-03 1.484754e-03 2.382716e-03 1.541346e-03 2.270292e-03 8.967948e-04 1.863410e-03 1.344486e-03 2.279672e-03 1.752628e-03 2.303016e-03 1.707452e-03 1.568007e-03 1.373052e-03 1.973615e-03 2.575311e-03 3.139503e-03 3.317581e-03 3.885827e-03 4.748709e-03 6.524745e-03 6.009659e-03 3.266400e-03 3.349544e-03 4.892818e-03 1.552541e-03 3.369776e-03 3.711344e-03 3.899733e-03 4.135299e-03 5.725501e-03 5.179070e-03 6.379468e-03 6.689493e-03 5.600606e-03 7.490552e-03 5.369095e-03 8.131165e-03 1.120468e-02 1.078763e-02 1.010028e-02 8.063330e-03 6.447743e-03 4.401632e-03 3.664316e-03 2.560303e-03 2.545704e-03 1.964255e-03 1.992745e-03 1.701208e-03 9.393483e-04 1.249535e-03 1.135016e-03 1.841853e-03 7.668711e-04 1.671887e-03 3.790626e-04 1.745631e-03 9.973919e-04 1.912891e-03 1.240756e-03 1.144228e-03 1.287058e-03 1.108898e-03 1.719729e-03 3.101203e-05 1.388691e-03 6.606602e-04 1.777602e-03 1.323130e-03 2.610774e-03 5.755674e-04 2.942121e-03 7.920589e-04 2.044038e-03 5.510636e-04 2.508067e-03 8.558605e-04 1.790515e-03 1.652813e-03 7.088097e-04 1.983916e-03 5.898520e-04 3.575252e-03 1.767421e-03 4.319641e-03 4.146466e-03 3.521790e-03 4.378292e-03 3.392286e-03 5.022537e-04 1.794148e-03 1.071896e-03 
2.503919e-03 1.340319e-04 3.930362e-03 1.252439e-03 1.383830e-02 2.457865e-03 1.592858e-02 6.730237e-03 3.562761e-03 3.627537e-03 2.330616e-03 6.356643e-03 3.563464e-03 1.783719e-03 3.528331e-03 1.133076e-03 2.580806e-03 2.603054e-03 1.388730e-03 3.231375e-03 4.149950e-03 3.946535e-03 3.654247e-03 1.735527e-03 3.041689e-03 2.179512e-03 1.511924e-03 2.006706e-03 1.250029e-03 1.288639e-03 1.624679e-03 2.601877e-03 1.630081e-03 2.605805e-03 6.602891e-04 1.358689e-03 1.866025e-03 8.821578e-04 9.683712e-04 1.474050e-03 9.615482e-04 9.282851e-04 1.227134e-03 9.454135e-04 1.142537e-03 1.572966e-03 2.714899e-03 1.312693e-03 5.639352e-04 3.793656e-04 3.286483e-03 5.890733e-03 7.258677e-03 8.394429e-03 1.001313e-02 1.147401e-02 1.216075e-02 1.231378e-02 1.095080e-02 1.275338e-02 1.401287e-02 1.291772e-02 1.495322e-02 1.506619e-02 1.675332e-02 1.709764e-02 1.756094e-02 1.624708e-02 1.656821e-02 1.631438e-02 1.597626e-02 1.681588e-02 1.815486e-02 1.472497e-02 1.031546e-02 7.930256e-03 5.665869e-03 4.540276e-03 2.287715e-03 1.643062e-03 7.523127e-04 1.469804e-03 8.991309e-04 1.351377e-03 1.071640e-03 9.480628e-04 1.911636e-04 2.226085e-03 1.022022e-03 1.125180e-03 8.971662e-04 1.759609e-03 1.478958e-03 2.393798e-03 3.615036e-04 2.133406e-03 4.172502e-04 1.546812e-03 7.161880e-04 2.662910e-03 1.148075e-03 8.911941e-04 1.889227e-03 1.536795e-03 2.920098e-03 2.056374e-03 2.224712e-03 1.452746e-03 2.346600e-03 1.621768e-03 2.316140e-03 3.474580e-04 2.820523e-03 1.900861e-03 3.481311e-03 2.042395e-03 8.081332e-04 2.606829e-03 3.946552e-03 3.253685e-03 5.065184e-03 5.295273e-03 8.164503e-03 1.347509e-02 9.252474e-03 4.242171e-03 3.981420e-03 1.244486e-03 
1.754696e-03 2.239313e-03 1.073311e-03 7.866234e-03 1.277967e-02 1.495294e-02 8.765945e-03 2.549600e-03 4.406042e-03 1.398171e-03 4.856492e-03 2.677697e-03 7.263443e-03 1.861719e-03 5.932139e-03 1.743875e-03 5.255202e-03 2.396821e-03 4.019319e-03 1.866524e-03 2.886527e-03 5.236895e-03 3.689281e-03 2.984150e-03 8.974311e-04 1.939869e-03 8.300512e-04 1.630039e-03 1.606627e-03 2.978543e-03 2.190388e-03 3.661772e-03 9.825216e-04 1.922835e-03 8.577419e-04 1.875497e-03 1.933636e-03 2.862000e-03 1.784344e-03 1.523839e-03 5.160420e-04 1.012144e-03 1.429222e-03 2.283320e-03 2.851569e-03 2.389716e-03 2.626093e-03 1.095548e-03 2.351182e-03 3.941822e-03 2.898786e-03 2.931101e-03 4.414639e-03 6.246110e-03 7.114435e-03 9.121950e-03 9.165419e-03 1.025493e-02 9.046935e-03 1.094915e-02 8.281786e-03 7.217078e-03 7.026074e-03 7.232037e-03 8.381656e-03 6.180128e-03 7.838544e-03 7.854245e-03 6.797181e-03 7.024166e-03 5.537845e-03 8.756460e-03 9.330033e-03 6.318367e-03 4.023367e-03 2.649593e-03 2.464422e-03 1.600980e-03 1.624385e-03 7.686491e-04 3.948645e-04 1.116849e-03 1.060373e-03 2.424597e-03 1.398027e-03 5.135450e-04 5.730412e-04 1.987210e-03 1.268796e-03 1.344140e-03 1.576674e-03 1.876309e-03 1.629518e-03 3.363384e-03 2.698865e-03 2.298359e-03 4.449844e-04 2.827768e-03 1.578163e-03 2.756481e-03 7.090239e-04 1.722992e-03 4.100688e-04 2.186682e-03 3.009206e-03 2.335829e-03 3.394368e-03 1.194695e-03 4.116423e-04 1.558825e-03 2.402189e-03 1.524316e-03 2.397027e-03 2.064199e-03 4.306689e-03 3.144531e-03 3.558575e-03 3.662118e-03 5.489996e-03 2.863991e-03 5.932774e-03 4.214958e-04 3.855088e-03 3.064458e-02 3.858757e-03 1.132256e-02 5.520981e-03 3.456095e-03 
5.463411e-03 3.103303e-03 8.357580e-03 6.548651e-03 6.051469e-03 1.400934e-02 1.318314e-02 1.810701e-03 3.014716e-03 2.615498e-03 3.493579e-03 3.115425e-03 6.563994e-03 4.437756e-03 5.871265e-03 4.962907e-03 5.345981e-03 5.369625e-03 4.585585e-03 5.986434e-03 4.326758e-03 6.876695e-03 2.333738e-03 3.640061e-03 1.418764e-03 3.214999e-03 1.394533e-03 2.598392e-03 1.881553e-03 2.513568e-03 2.200885e-03 2.686005e-03 2.375522e-03 2.435213e-03 2.785041e-03 3.139369e-03 2.551232e-03 8.124653e-04 2.721327e-03 2.042309e-03 2.151005e-03 2.711173e-03 2.397256e-03 2.060480e-03 6.703939e-04 2.904049e-04 5.539838e-04 4.441179e-04 5.303534e-04 2.445754e-03 4.765076e-03 6.153363e-03 7.813406e-03 1.020565e-02 1.437196e-02 1.807283e-02 2.160456e-02 1.948984e-02 1.752445e-02 1.856191e-02 1.760895e-02 1.791565e-02 1.823159e-02 1.744598e-02 1.826551e-02 1.785731e-02 1.905585e-02 1.751683e-02 1.553069e-02 1.854231e-02 1.785290e-02 2.378263e-02 2.122296e-02 1.313170e-02 8.876474e-03 6.287838e-03 3.938705e-03 3.154729e-03 1.424815e-03 6.831534e-04 1.328096e-03 8.959115e-04 1.409928e-03 1.856764e-03 1.152580e-03 2.033462e-03 2.012397e-03 2.305831e-03 1.050559e-03 1.572421e-03 1.368853e-03 2.855778e-03 2.979807e-03 1.769296e-03 2.322385e-03 2.118939e-03 1.743727e-03 2.174858e-03 2.245712e-03 1.525728e-03 3.532139e-03 2.191671e-03 3.458400e-03 1.665349e-03 4.609778e-03 1.083245e-03 3.955100e-03 1.735522e-03 3.716445e-03 2.164901e-03 5.135057e-03 4.312053e-04 2.887915e-03 8.741693e-04 2.026468e-03 2.875004e-03 3.602633e-03 2.655088e-03 2.962734e-03 4.198798e-03 3.776736e-03 6.927234e-03 5.381463e-03 1.904626e-02 1.364077e-02 1.097596e-02 8.271228e-03 3.909079e-03 
7.080351e-03 6.553871e-03 9.008284e-03 1.006971e-02 1.331543e-02 1.051992e-02 1.293544e-02 4.818754e-03 7.033356e-03 4.418165e-03 6.510477e-03 5.530904e-03 6.847859e-03 5.843439e-03 6.403702e-03 5.998813e-03 6.224571e-03 6.188773e-03 5.949810e-03 6.201414e-03 5.688801e-03 6.314511e-03 5.013992e-03 6.510804e-03 5.069985e-03 6.660371e-03 5.120960e-03 6.615383e-03 5.100471e-03 7.052039e-03 5.763287e-03 7.584065e-03 6.383676e-03 6.893704e-03 5.962315e-03 6.984495e-03 6.899481e-03 7.067882e-03 6.697196e-03 6.100915e-03 5.516063e-03 6.010138e-03 6.470422e-03 6.552422e-03 6.759667e-03 6.051810e-03 6.218541e-03 5.476062e-03 5.855835e-03 5.407862e-03 4.585434e-03 4.678341e-03 7.486841e-03 1.165846e-02 1.370617e-02 1.330384e-02 7.480530e-03 9.467702e-03 1.003727e-02 1.181174e-02 1.110324e-02 1.279129e-02 1.404782e-02 1.543052e-02 1.873420e-02 1.817538e-02 2.026248e-02 1.946231e-02 2.115677e-02 2.224496e-02 2.108535e-02 2.620450e-02 2.997270e-02 2.734263e-02 1.829918e-02 1.311654e-02 9.239403e-03 7.025660e-03 4.333924e-03 3.625964e-03 3.286655e-03 3.857252e-03 4.245504e-03 4.731752e-03 4.476698e-03 5.428133e-03 4.828762e-03 5.874576e-03 5.115513e-03 6.144460e-03 5.196399e-03 6.553549e-03 6.263912e-03 7.722281e-03 6.357794e-03 6.898000e-03 5.610150e-03 7.170982e-03 6.468157e-03 6.772897e-03 6.227910e-03 6.261688e-03 6.752683e-03 6.581854e-03 6.876205e-03 6.096867e-03 7.301036e-03 4.997386e-03 6.613726e-03 4.037197e-03 7.637749e-03 5.768870e-03 7.362954e-03 5.746433e-03 7.382065e-03 5.923748e-03 7.038803e-03 7.115788e-03 5.963915e-03 7.856209e-03 5.115506e-03 8.579169e-03 4.933169e-03 1.099337e-02 1.396108e-02 8.292640e-03 8.342091e-03 6.101400e-03 
7.593311e-03 6.884107e-03 8.222998e-03 8.610256e-03 1.022063e-02 1.206962e-02 8.400586e-03 6.769609e-03 8.969736e-03 6.339104e-03 8.645021e-03 6.790216e-03 8.368844e-03 6.421589e-03 6.987289e-03 6.573187e-03 6.780165e-03 6.780749e-03 6.520355e-03 6.905575e-03 6.293463e-03 7.090848e-03 6.641587e-03 8.143966e-03 7.053087e-03 8.212110e-03 7.025088e-03 8.259466e-03 6.984744e-03 8.688982e-03 7.459881e-03 8.694354e-03 7.642990e-03 8.185113e-03 7.410208e-03 8.137712e-03 7.958738e-03 8.325828e-03 7.961042e-03 7.700446e-03 7.308172e-03 7.358089e-03 7.755626e-03 7.672357e-03 8.056696e-03 7.478533e-03 7.674197e-03 6.964421e-03 7.445719e-03 7.325820e-03 7.937809e-03 8.193041e-03 9.520928e-03 1.088349e-02 1.190047e-02 1.156252e-02 1.202884e-02 9.813349e-03 9.883909e-03 8.494609e-03 7.938083e-03 9.139814e-03 6.786646e-03 7.731655e-03 6.567514e-03 5.821576e-03 7.409901e-03 4.667479e-03 6.405349e-03 5.066027e-03 4.597970e-03 9.676246e-03 2.005062e-02 2.457552e-02 1.953165e-02 1.565440e-02 1.257372e-02 1.013816e-02 8.369916e-03 7.325300e-03 6.859228e-03 6.724757e-03 6.741376e-03 6.938818e-03 6.745652e-03 7.028835e-03 6.683512e-03 7.295763e-03 7.031560e-03 7.683082e-03 7.104689e-03 7.783705e-03 7.509672e-03 8.504043e-03 7.812751e-03 8.176414e-03 7.416588e-03 8.247070e-03 7.911041e-03 7.984250e-03 7.622600e-03 7.602827e-03 7.986882e-03 7.626560e-03 7.950796e-03 7.449645e-03 8.493771e-03 7.054333e-03 8.084418e-03 6.325467e-03 8.505338e-03 7.378820e-03 8.468409e-03 7.429128e-03 8.653994e-03 7.473935e-03 8.506108e-03 8.438162e-03 8.471197e-03 8.742056e-03 8.556737e-03 8.655774e-03 8.133701e-03 1.016050e-02 9.029917e-03 7.558312e-03 7.774047e-03 6.684870e-03 
7.717848e-03 7.485696e-03 7.875532e-03 7.951382e-03 8.251454e-03 8.544606e-03 7.993449e-03 7.600001e-03 7.853710e-03 7.663160e-03 7.872101e-03 8.532926e-03 6.975058e-03 6.255173e-03 6.507868e-03 6.271139e-03 6.383790e-03 6.327969e-03 6.268854e-03 6.384604e-03 6.193730e-03 6.489858e-03 7.081031e-03 6.892027e-03 6.554072e-03 7.179029e-03 6.492331e-03 7.485991e-03 6.553631e-03 7.740516e-03 6.765224e-03 7.869550e-03 6.967292e-03 7.795979e-03 7.089163e-03 7.733823e-03 7.304164e-03 7.671554e-03 7.373457e-03 7.487212e-03 7.350787e-03 7.435057e-03 7.558889e-03 7.532748e-03 7.756371e-03 7.599424e-03 7.889624e-03 7.786173e-03 8.211320e-03 8.388178e-03 8.994779e-03 9.644943e-03 1.075848e-02 1.195434e-02 1.295679e-02 1.312342e-02 1.262781e-02 1.148710e-02 1.223986e-02 1.282788e-02 1.206612e-02 1.348209e-02 1.328684e-02 1.357020e-02 1.481710e-02 1.442274e-02 1.600992e-02 1.602377e-02 1.678500e-02 1.804163e-02 1.617770e-02 2.039669e-02 2.268652e-02 1.894954e-02 1.653452e-02 1.375481e-02 1.193287e-02 1.010420e-02 8.928808e-03 8.057504e-03 7.448151e-03 7.246456e-03 6.864613e-03 7.064294e-03 6.624292e-03 7.108150e-03 6.537339e-03 7.235120e-03 6.560758e-03 7.395752e-03 6.636493e-03 7.564551e-03 6.820195e-03 7.764648e-03 6.946608e-03 7.698518e-03 6.976501e-03 7.636691e-03 7.162078e-03 7.472970e-03 7.277494e-03 7.279653e-03 7.484096e-03 7.133447e-03 7.623128e-03 6.898370e-03 7.768047e-03 6.637405e-03 7.761473e-03 6.517023e-03 7.887076e-03 6.835170e-03 7.918805e-03 7.103293e-03 7.880366e-03 7.449521e-03 7.716319e-03 7.967592e-03 7.570823e-03 8.418358e-03 7.562936e-03 8.738194e-03 7.703879e-03 8.637223e-03 8.087869e-03 7.796913e-03 7.812992e-03 7.422909e-03 
7.908285e-03 7.579211e-03 8.129424e-03 8.137882e-03 8.463696e-03 8.720634e-03 8.261789e-03 7.848445e-03 8.287431e-03 7.825392e-03 8.304012e-03 8.727667e-03 7.067046e-03 6.649717e-03 6.951557e-03 6.706095e-03 6.809818e-03 6.814369e-03 6.667940e-03 6.920534e-03 6.575719e-03 6.986465e-03 7.284924e-03 7.181415e-03 6.711430e-03 7.517687e-03 6.762383e-03 7.861015e-03 6.897681e-03 8.047050e-03 7.066236e-03 8.065425e-03 7.225194e-03 7.986782e-03 7.375639e-03 7.916478e-03 7.567543e-03 7.859699e-03 7.714082e-03 7.775050e-03 7.820973e-03 7.749203e-03 8.012890e-03 7.839103e-03 8.271293e-03 8.052665e-03 8.612904e-03 8.436053e-03 9.123169e-03 9.150216e-03 1.001303e-02 1.036137e-02 1.150194e-02 1.222738e-02 1.350917e-02 1.405317e-02 1.474333e-02 1.459305e-02 1.487691e-02 1.500315e-02 1.517148e-02 1.536540e-02 1.558822e-02 1.561192e-02 1.605353e-02 1.594089e-02 1.655247e-02 1.656568e-02 1.711541e-02 1.767707e-02 1.796992e-02 1.867074e-02 1.875353e-02 1.702684e-02 1.600752e-02 1.407863e-02 1.298669e-02 1.140259e-02 1.060555e-02 9.583886e-03 9.108636e-03 8.579020e-03 8.262333e-03 8.087139e-03 7.750302e-03 7.817851e-03 7.401316e-03 7.683364e-03 7.208963e-03 7.655485e-03 7.144179e-03 7.701021e-03 7.205602e-03 7.779024e-03 7.272552e-03 7.723471e-03 7.306512e-03 7.636306e-03 7.411915e-03 7.489713e-03 7.518302e-03 7.357271e-03 7.690918e-03 7.217797e-03 7.797390e-03 7.041257e-03 7.913529e-03 6.889330e-03 7.970160e-03 6.849313e-03 8.061025e-03 7.035143e-03 8.095820e-03 7.232160e-03 8.094201e-03 7.470317e-03 8.029351e-03 7.794327e-03 7.996312e-03 8.068197e-03 8.025260e-03 8.258923e-03 8.029790e-03 8.311723e-03 8.028109e-03 7.730803e-03 7.887294e-03 7.439599e-03 
7.682369e-03 7.444170e-03 7.846240e-03 7.920494e-03 8.235048e-03 8.522490e-03 7.992289e-03 7.565525e-03 7.830139e-03 7.601778e-03 7.840086e-03 8.469502e-03 6.891975e-03 6.236098e-03 6.482227e-03 6.264452e-03 6.372396e-03 6.339833e-03 6.282624e-03 6.439945e-03 6.246901e-03 6.570541e-03 7.085649e-03 6.957573e-03 6.509209e-03 7.311050e-03 6.577170e-03 7.712209e-03 6.695880e-03 7.882572e-03 6.850356e-03 7.927919e-03 7.021779e-03 7.871801e-03 7.187952e-03 7.759978e-03 7.366209e-03 7.702628e-03 7.593871e-03 7.712400e-03 7.817920e-03 7.790506e-03 8.028845e-03 7.898591e-03 8.279961e-03 8.173776e-03 8.665652e-03 8.618350e-03 9.168011e-03 9.273105e-03 9.872426e-03 1.023261e-02 1.094605e-02 1.153150e-02 1.221935e-02 1.276220e-02 1.316192e-02 1.351143e-02 1.380997e-02 1.434722e-02 1.449554e-02 1.509641e-02 1.535197e-02 1.587408e-02 1.632223e-02 1.664479e-02 1.699908e-02 1.719813e-02 1.725693e-02 1.750502e-02 1.719546e-02 1.725650e-02 1.686041e-02 1.571306e-02 1.489108e-02 1.353528e-02 1.266222e-02 1.148205e-02 1.074109e-02 9.998805e-03 9.444962e-03 9.107177e-03 8.597755e-03 8.610930e-03 8.008449e-03 8.274714e-03 7.521058e-03 8.016937e-03 7.131518e-03 7.837148e-03 6.956961e-03 7.834468e-03 6.959439e-03 7.820372e-03 6.987814e-03 7.706036e-03 7.053635e-03 7.577273e-03 7.186246e-03 7.411609e-03 7.388649e-03 7.316619e-03 7.636411e-03 7.122133e-03 7.768352e-03 6.915686e-03 7.871660e-03 6.760194e-03 7.939241e-03 6.767096e-03 7.978256e-03 6.935988e-03 7.981863e-03 7.228884e-03 7.888800e-03 7.589106e-03 7.701430e-03 7.986451e-03 7.504882e-03 8.377188e-03 7.494399e-03 8.721677e-03 7.678033e-03 8.578853e-03 8.065366e-03 7.738096e-03 7.779806e-03 7.371040e-03 
7.503932e-03 6.788955e-03 8.149242e-03 8.539551e-03 1.017771e-02 1.202834e-02 8.415542e-03 6.711303e-03 8.926596e-03 6.209169e-03 8.564742e-03 6.605101e-03 8.205239e-03 6.371690e-03 6.942997e-03 6.547897e-03 6.750601e-03 6.770636e-03 6.529215e-03 7.011529e-03 6.352483e-03 7.343863e-03 6.647692e-03 8.024875e-03 6.664354e-03 8.394674e-03 7.223289e-03 8.885348e-03 7.461252e-03 8.839048e-03 7.473617e-03 8.597160e-03 7.608533e-03 8.528257e-03 7.946599e-03 8.427169e-03 8.128133e-03 8.292000e-03 8.408265e-03 8.414507e-03 8.778995e-03 8.496476e-03 8.797253e-03 8.338865e-03 8.977512e-03 8.818185e-03 9.768477e-03 9.531822e-03 1.029949e-02 1.005508e-02 1.084433e-02 1.097231e-02 1.191903e-02 1.229037e-02 1.315432e-02 1.351252e-02 1.416502e-02 1.450215e-02 1.493640e-02 1.508234e-02 1.509594e-02 1.505579e-02 1.531006e-02 1.565662e-02 1.617561e-02 1.630958e-02 1.644723e-02 1.612768e-02 1.605916e-02 1.564020e-02 1.555658e-02 1.514008e-02 1.525316e-02 1.469687e-02 1.466799e-02 1.369662e-02 1.324330e-02 1.197501e-02 1.142564e-02 1.054305e-02 1.028182e-02 9.846856e-03 9.692161e-03 9.553078e-03 9.181828e-03 9.106535e-03 8.442077e-03 8.553535e-03 7.733057e-03 8.151536e-03 7.485015e-03 8.280124e-03 7.671896e-03 8.367485e-03 7.645198e-03 8.170542e-03 7.689897e-03 8.046616e-03 7.698845e-03 7.725217e-03 7.937522e-03 7.937644e-03 8.450085e-03 7.739074e-03 8.407457e-03 7.312718e-03 8.370928e-03 7.048560e-03 8.506935e-03 7.242189e-03 8.657865e-03 7.412186e-03 8.687634e-03 7.638405e-03 8.626157e-03 7.904394e-03 8.307083e-03 8.130835e-03 8.135518e-03 8.496810e-03 8.365182e-03 8.946048e-03 8.400366e-03 1.013286e-02 9.053071e-03 7.456926e-03 7.700478e-03 6.572396e-03 
6.964110e-03 6.437764e-03 8.927394e-03 1.001119e-02 1.329237e-02 1.049017e-02 1.302124e-02 4.740137e-03 6.967274e-03 4.149637e-03 6.325229e-03 5.270307e-03 6.579739e-03 5.787473e-03 6.321568e-03 5.952852e-03 6.158815e-03 6.138702e-03 5.968298e-03 6.366579e-03 5.878228e-03 6.660729e-03 4.515283e-03 6.395735e-03 4.575216e-03 7.112491e-03 5.795804e-03 7.798863e-03 5.761420e-03 7.479512e-03 6.044804e-03 7.476575e-03 6.276943e-03 7.200050e-03 6.267003e-03 6.514434e-03 6.265484e-03 6.502126e-03 6.851817e-03 6.633197e-03 7.230148e-03 6.957661e-03 7.375072e-03 6.709625e-03 7.390084e-03 7.209379e-03 7.898231e-03 7.505423e-03 8.245788e-03 7.996764e-03 8.465823e-03 8.719855e-03 9.579830e-03 1.019490e-02 1.075362e-02 1.136880e-02 1.152414e-02 1.198917e-02 1.208930e-02 1.303426e-02 1.299917e-02 1.329637e-02 1.337331e-02 1.431267e-02 1.471930e-02 1.533053e-02 1.527721e-02 1.494321e-02 1.443830e-02 1.390202e-02 1.354873e-02 1.308762e-02 1.337359e-02 1.318368e-02 1.331715e-02 1.251663e-02 1.207550e-02 1.067977e-02 9.762227e-03 9.114531e-03 8.846776e-03 8.532997e-03 8.287183e-03 8.556505e-03 7.979770e-03 8.263839e-03 7.223582e-03 7.700824e-03 6.017529e-03 6.745013e-03 5.750305e-03 7.252266e-03 6.056144e-03 7.311822e-03 6.017622e-03 6.858982e-03 5.977623e-03 6.714118e-03 6.190161e-03 6.288795e-03 6.573177e-03 6.844271e-03 7.333494e-03 6.148644e-03 7.273833e-03 5.847355e-03 7.428307e-03 5.417001e-03 7.469416e-03 5.405729e-03 7.379265e-03 5.602033e-03 7.604112e-03 6.187211e-03 7.376147e-03 6.736650e-03 6.878907e-03 7.247998e-03 5.727004e-03 7.527604e-03 4.889881e-03 8.511646e-03 4.380490e-03 1.056006e-02 1.397935e-02 8.156529e-03 8.244527e-03 5.945557e-03 
5.213740e-03 2.992376e-03 8.271399e-03 6.598714e-03 5.947568e-03 1.399267e-02 1.320941e-02 1.452813e-03 2.906358e-03 2.436603e-03 3.321545e-03 3.018875e-03 6.364481e-03 4.254239e-03 5.786816e-03 4.968958e-03 5.403846e-03 5.390935e-03 4.986639e-03 5.880823e-03 3.898914e-03 6.490265e-03 1.734196e-03 4.314933e-03 2.875146e-03 4.596308e-03 3.232217e-03 3.112461e-03 1.783177e-03 2.414764e-03 2.447857e-03 2.791986e-03 2.857821e-03 1.657872e-03 2.397853e-03 1.119478e-04 1.116468e-03 1.428566e-03 1.615374e-03 7.559039e-04 1.624246e-03 9.305231e-04 2.867232e-03 2.017042e-03 3.272667e-03 2.210143e-03 2.222538e-03 1.417039e-03 2.370686e-03 2.482426e-03 3.031354e-03 3.300837e-03 4.173214e-03 4.186588e-03 4.263760e-03 4.673458e-03 4.140859e-03 4.243796e-03 3.753082e-03 5.278864e-03 6.228848e-03 7.317512e-03 7.414330e-03 7.770303e-03 7.294520e-03 7.394324e-03 7.911548e-03 7.799018e-03 7.864895e-03 7.150151e-03 7.317930e-03 6.545168e-03 7.196586e-03 6.354005e-03 6.267548e-03 4.731524e-03 5.060611e-03 4.472963e-03 4.188865e-03 3.714208e-03 3.973760e-03 3.161681e-03 3.417073e-03 3.078173e-03 2.779424e-03 3.442756e-03 3.075423e-03 4.438003e-03 3.131582e-03 3.314119e-03 2.903320e-03 3.498635e-03 2.249798e-03 2.815518e-03 2.466625e-03 2.290333e-03 2.240088e-03 2.195695e-03 3.136767e-03 2.405560e-03 3.371269e-03 2.674178e-03 3.419147e-03 6.636680e-04 3.763225e-03 1.561101e-03 4.642806e-03 1.446028e-03 4.131588e-03 6.882784e-04 3.314888e-03 9.529690e-04 3.658946e-03 2.250874e-03 3.008271e-03 3.604348e-03 2.730759e-03 5.528827e-03 1.215012e-03 5.073914e-03 3.938839e-03 5.320683e-03 5.670619e-03 1.839995e-02 1.295135e-02 1.078121e-02 7.890062e-03 3.654253e-03 
1.549881e-03 2.408897e-03 1.247202e-03 7.992166e-03 1.278547e-02 1.508319e-02 8.694521e-03 2.852637e-03 4.138184e-03 1.515079e-03 4.800329e-03 2.891142e-03 7.162039e-03 1.545121e-03 6.061898e-03 1.392886e-03 5.354139e-03 1.976698e-03 4.841254e-03 3.755283e-03 3.878940e-03 5.397668e-03 2.492207e-03 1.999356e-03 6.290397e-04 2.606312e-03 4.941091e-04 2.875490e-03 1.821622e-03 2.989382e-03 4.225461e-04 2.359418e-03 2.672152e-03 3.164505e-03 3.997936e-03 2.859329e-03 1.771200e-03 3.104583e-03 2.206996e-03 2.875209e-03 2.724439e-03 2.977746e-03 1.959753e-03 1.414508e-03 1.347622e-03 2.282077e-03 2.889836e-03 2.405781e-03 3.038665e-03 2.013833e-03 2.591709e-03 2.416541e-03 3.622793e-03 3.096851e-03 3.893028e-03 3.649275e-03 4.358391e-03 4.303119e-03 4.465917e-03 4.585972e-03 3.418988e-03 2.025416e-03 1.745965e-03 2.097706e-03 2.957025e-03 3.048526e-03 3.274734e-03 2.798051e-03 2.619653e-03 1.385267e-03 1.271967e-03 6.406727e-04 1.208960e-03 1.979372e-03 2.612270e-03 2.827318e-03 2.495174e-03 2.344222e-03 8.754309e-04 5.680353e-04 5.524469e-04 1.205006e-03 1.603571e-03 1.587249e-03 1.790393e-03 1.238334e-03 7.769608e-04 1.519570e-03 1.670137e-03 5.851366e-04 1.197413e-03 2.449636e-04 7.127364e-04 9.921611e-04 1.393691e-03 8.550657e-04 7.530329e-04 2.057380e-03 8.684503e-04 1.551698e-03 4.484306e-04 2.049688e-03 2.118402e-03 1.795632e-03 8.550641e-04 1.812450e-03 4.604792e-04 5.101035e-04 1.060129e-03 1.541114e-03 1.351362e-03 3.263634e-04 3.276354e-03 1.732359e-03 3.394117e-03 1.762653e-03 3.637743e-03 5.306147e-03 1.742726e-03 5.110271e-03 2.652898e-03 2.756706e-03 4.317910e-03 3.144868e-02 4.045895e-03 1.087391e-02 5.166698e-03 3.248193e-03 
2.429062e-03 1.806367e-04 3.923326e-03 1.302561e-03 1.386840e-02 2.409513e-03 1.594095e-02 6.720210e-03 3.401681e-03 3.457698e-03 2.395485e-03 6.204228e-03 3.509068e-03 1.540539e-03 3.205780e-03 1.163288e-03 2.908179e-03 1.990065e-03 2.734669e-03 3.370524e-03 2.712059e-03 4.884066e-03 5.428452e-03 2.503475e-03 2.686784e-03 2.390339e-03 4.086328e-04 2.691421e-03 3.507101e-04 2.484371e-03 5.848912e-04 2.432580e-03 1.861206e-03 2.356937e-03 2.294754e-03 7.274145e-04 2.788278e-04 7.327000e-04 1.029328e-03 3.323835e-04 1.274165e-03 1.670475e-03 2.136126e-03 1.063612e-03 1.664405e-03 2.274782e-03 1.884819e-03 8.845798e-04 1.756729e-03 1.433405e-03 1.818144e-03 2.182681e-03 2.857082e-03 3.689103e-03 3.901367e-03 4.860749e-03 4.610933e-03 5.117452e-03 4.682007e-03 6.787113e-03 6.974547e-03 7.629182e-03 7.507094e-03 8.474208e-03 8.468648e-03 8.966441e-03 8.929723e-03 8.809880e-03 8.523583e-03 8.360706e-03 8.121422e-03 7.580972e-03 7.390445e-03 6.492404e-03 6.289328e-03 5.372965e-03 5.279065e-03 3.814763e-03 3.329793e-03 2.580817e-03 2.209365e-03 1.971744e-03 1.450193e-03 2.037676e-03 1.711553e-03 2.320975e-03 1.617894e-03 2.060572e-03 9.924464e-05 1.166188e-03 4.691668e-04 1.685186e-03 9.932128e-04 1.462695e-03 7.439213e-04 9.784758e-04 6.429966e-04 1.591351e-03 4.961341e-04 8.887917e-04 1.680974e-03 5.246265e-04 1.879166e-03 1.354301e-03 2.155544e-03 1.452534e-03 2.398449e-03 7.157604e-04 2.364776e-03 1.608068e-03 1.847173e-03 8.633374e-04 2.834470e-03 1.378856e-03 2.711369e-03 1.679643e-03 2.776245e-03 4.001616e-03 1.324875e-03 4.386652e-03 2.884817e-03 4.024776e-03 8.510401e-03 1.395262e-02 8.982223e-03 3.819118e-03 3.794174e-03 1.065072e-03 
1.483440e-03 1.997417e-03 2.241904e-03 3.553657e-03 5.017368e-03 9.988386e-03 5.689483e-03 2.770641e-03 3.226612e-03 9.193860e-04 4.886373e-03 9.312478e-04 7.570456e-03 2.155732e-03 6.902523e-03 2.523836e-03 6.411293e-03 2.803958e-03 6.006765e-03 3.812774e-03 5.670755e-03 5.365231e-03 3.359428e-03 2.954383e-03 2.662238e-03 1.791405e-03 2.410448e-03 1.482071e-03 2.333602e-03 1.401183e-03 1.643056e-03 9.252116e-04 1.690483e-03 1.610068e-03 2.033534e-03 2.253470e-03 1.812713e-03 2.258091e-03 1.448812e-03 2.407543e-03 1.360934e-03 2.087466e-03 9.256726e-04 1.224300e-03 3.330701e-04 1.419484e-03 1.048583e-03 1.387278e-03 5.497040e-04 5.327812e-04 4.430556e-04 1.262222e-03 1.521584e-03 2.462948e-03 2.560861e-03 3.540167e-03 3.435707e-03 3.963498e-03 3.522962e-03 5.054075e-03 5.627516e-03 6.974151e-03 7.234968e-03 7.616610e-03 7.541339e-03 7.666499e-03 8.342478e-03 8.845864e-03 9.894696e-03 1.066666e-02 1.122631e-02 1.075761e-02 9.918305e-03 7.446729e-03 6.196669e-03 4.274960e-03 3.939174e-03 2.712073e-03 2.498746e-03 1.568887e-03 1.289630e-03 7.274904e-04 1.145632e-03 8.713937e-04 1.453629e-03 8.477867e-04 1.321028e-03 5.839725e-04 1.201042e-03 2.526453e-04 1.287773e-03 2.900309e-04 1.688044e-03 7.872405e-04 1.577447e-03 1.082255e-03 1.383117e-03 1.459473e-03 6.819078e-04 1.376026e-03 6.844941e-04 1.922437e-03 2.705497e-04 2.546340e-03 6.537337e-04 2.241614e-03 9.538823e-04 2.144931e-03 6.991019e-04 2.583113e-03 4.789734e-04 2.317802e-03 9.104950e-04 1.451473e-03 1.253750e-03 7.801863e-04 1.570319e-03 1.936305e-03 2.574216e-03 2.463835e-03 3.869608e-03 2.639679e-03 4.556834e-03 4.297486e-03 3.046450e-03 5.417651e-04 1.689646e-03 1.124618e-03 
