# vtk DataFile Version 2.0
Comment goes here
ASCII

DATASET STRUCTURED_POINTS
FIELD FieldData 1
TIME 1 1 double
0.23000000
DIMENSIONS    128   16   1

ORIGIN    0.000   0.000   0.000
SPACING   0.0078125 0.015625   1.000

POINT_DATA   2048
SCALARS uX double
LOOKUP_TABLE default

5.399680e-03 3.521138e-03 4.192154e-03 1.874237e-03 2.859243e-03 1.991719e-03 9.170832e-03 -6.531855e-04 4.830655e-03 -4.600605e-03 -3.313350e-03 -1.428164e-02 -2.089159e-02 -3.622180e-02 -4.400489e-02 -4.795739e-02 -5.008159e-02 -5.021812e-02 -4.756522e-02 -4.323066e-02 -3.647527e-02 -2.036862e-02 -1.348076e-02 -4.911465e-03 -2.977912e-03 1.548210e-03 1.402846e-03 4.360265e-03 3.213975e-03 5.522845e-03 3.823374e-03 5.865733e-03 3.932018e-03 5.894133e-03 3.978585e-03 5.888041e-03 4.119554e-03 5.849114e-03 4.276413e-03 5.687817e-03 4.375739e-03 5.417143e-03 4.467665e-03 5.124685e-03 4.569901e-03 4.827436e-03 4.660335e-03 4.532441e-03 4.689911e-03 4.205674e-03 4.530711e-03 3.609638e-03 3.701271e-03 2.046260e-03 1.068284e-03 -2.215496e-03 -6.252085e-03 -1.071906e-02 -6.440738e-03 -7.601329e-03 -7.752848e-03 -7.288587e-03 -8.075577e-03 -7.861800e-03 -6.911529e-03 -7.781051e-03 -6.694159e-03 -4.642309e-03 -3.532962e-03 1.410402e-03 8.641889e-03 1.686246e-02 1.465761e-02 1.148535e-02 7.895214e-03 7.092291e-03 4.781442e-03 5.264158e-03 3.544279e-03 4.491473e-03 3.189464e-03 4.180988e-03 3.236025e-03 4.000285e-03 3.437779e-03 3.795759e-03 3.674761e-03 3.553447e-03 3.938445e-03 3.316073e-03 4.210057e-03 3.098000e-03 4.453967e-03 2.903232e-03 4.599049e-03 2.744779e-03 4.650722e-03 2.722457e-03 4.626743e-03 2.848992e-03 4.475466e-03 3.105846e-03 4.186470e-03 3.494780e-03 3.768970e-03 3.973670e-03 3.222734e-03 4.473963e-03 2.614092e-03 4.989989e-03 2.043854e-03 5.427512e-03 1.583230e-03 5.742212e-03 1.391684e-03 5.906748e-03 1.608401e-03 5.865390e-03 2.402771e-03 5.600885e-03 4.128629e-03 5.070530e-03 7.501328e-03 1.829261e-04 4.288271e-03 1.808588e-03 5.189217e-03 3.568967e-03 
1.384608e-03 3.992291e-05 -6.873738e-05 -1.778708e-03 -3.176045e-03 -2.020804e-03 7.123742e-03 -2.559533e-03 4.663930e-03 -2.035225e-03 1.965219e-03 -1.787597e-03 -1.247807e-03 -2.252019e-04 2.280749e-03 3.061373e-03 2.614993e-03 4.066475e-03 1.717717e-03 3.322335e-03 -9.735120e-04 -4.393734e-04 -1.455433e-03 3.747367e-04 -6.593106e-04 1.052858e-03 -1.223290e-04 1.633148e-03 1.955698e-04 1.902767e-03 8.880225e-05 1.718633e-03 -2.304840e-04 1.478245e-03 -3.313324e-04 1.457083e-03 -1.467408e-04 1.471724e-03 5.615243e-05 1.322347e-03 1.606004e-04 1.076492e-03 3.169610e-04 8.478272e-04 4.770316e-04 5.908951e-04 5.894828e-04 2.416058e-04 4.570398e-04 -3.037350e-04 -2.516751e-05 -1.291867e-03 -1.453685e-03 -3.628124e-03 -5.563345e-03 -1.026370e-02 -1.714477e-02 -2.380705e-02 -1.657290e-02 -1.668274e-02 -1.524318e-02 -1.290326e-02 -1.255059e-02 -1.063287e-02 -8.560510e-03 -8.350599e-03 -6.272606e-03 -4.743034e-03 -4.438695e-03 -2.497402e-03 -1.735187e-03 3.479389e-03 2.811184e-03 1.777752e-03 1.463468e-04 3.591187e-04 -9.096361e-04 1.525591e-04 -9.938993e-04 2.070935e-04 -8.089468e-04 1.987653e-04 -6.443991e-04 1.756668e-05 -4.754193e-04 -2.550907e-04 -3.008336e-04 -5.671000e-04 -9.833513e-05 -8.683764e-04 1.191526e-04 -1.109245e-03 3.927563e-04 -1.285896e-03 5.060795e-04 -1.557530e-03 4.334143e-04 -1.666490e-03 4.098777e-04 -1.485139e-03 3.375427e-04 -1.172807e-03 9.271587e-05 -7.537372e-04 -2.907994e-04 -2.119893e-04 -8.058654e-04 2.808733e-04 -1.469442e-03 7.791983e-04 -2.102409e-03 1.196579e-03 -2.600898e-03 1.584388e-03 -2.738110e-03 1.919409e-03 -2.445906e-03 2.015525e-03 -1.706589e-03 1.719754e-03 -1.982854e-04 7.720689e-04 2.957277e-03 -6.929629e-03 -7.047156e-04 -2.373424e-03 1.110965e-03 -1.091281e-04 
8.709981e-03 7.134314e-03 4.809908e-03 5.015391e-05 -7.903482e-03 -1.373867e-02 -4.670256e-03 -1.078952e-02 -3.537566e-03 -6.332569e-03 -3.287968e-04 1.308095e-03 8.761143e-03 1.429703e-02 1.777062e-02 1.997007e-02 2.004869e-02 2.103257e-02 1.883689e-02 1.748696e-02 1.420320e-02 6.699537e-03 1.501175e-03 -2.678776e-03 -4.996986e-03 -6.258720e-03 -7.428867e-03 -7.231375e-03 -8.376838e-03 -7.602771e-03 -9.340708e-03 -8.275862e-03 -1.027889e-02 -8.741923e-03 -1.065706e-02 -8.655067e-03 -1.046543e-02 -8.540489e-03 -1.033503e-02 -8.673245e-03 -1.024045e-02 -8.796258e-03 -9.925503e-03 -8.791304e-03 -9.465476e-03 -8.703706e-03 -8.823926e-03 -8.377244e-03 -7.910642e-03 -7.561244e-03 -6.121159e-03 -5.222594e-03 -2.008030e-03 3.411695e-04 6.264281e-03 1.145204e-02 2.262380e-02 2.910817e-02 2.356055e-02 2.255895e-02 2.348486e-02 1.982862e-02 2.101873e-02 1.822707e-02 1.521990e-02 1.432858e-02 9.129044e-03 3.327033e-03 -2.910639e-03 -1.187881e-02 -2.636162e-02 -3.953035e-02 -3.853025e-02 -2.893532e-02 -2.505483e-02 -1.889449e-02 -1.788025e-02 -1.410300e-02 -1.427206e-02 -1.171014e-02 -1.238896e-02 -1.070194e-02 -1.152291e-02 -1.054396e-02 -1.114471e-02 -1.072767e-02 -1.089954e-02 -1.101333e-02 -1.062539e-02 -1.130436e-02 -1.034088e-02 -1.155524e-02 -1.006227e-02 -1.183914e-02 -9.989720e-03 -1.227109e-02 -1.016638e-02 -1.258912e-02 -1.021163e-02 -1.242184e-02 -1.011851e-02 -1.206329e-02 -1.024679e-02 -1.167756e-02 -1.060332e-02 -1.116662e-02 -1.100718e-02 -1.062136e-02 -1.164679e-02 -1.028917e-02 -1.257329e-02 -1.016123e-02 -1.328635e-02 -9.796704e-03 -1.349456e-02 -9.421339e-03 -1.352135e-02 -9.573789e-03 -1.363435e-02 -1.048630e-02 -1.373628e-02 -1.229580e-02 -1.316629e-02 -1.574630e-02 -2.635136e-03 1.970203e-03 6.951890e-03 7.635246e-03 
9.235112e-03 8.175861e-03 6.110120e-03 5.768380e-04 -5.962084e-03 -2.049657e-02 -2.585557e-02 -1.954590e-02 -2.425289e-02 -1.958805e-02 -2.292762e-02 -1.999200e-02 -2.165875e-02 -2.234399e-02 -2.512647e-02 -2.568734e-02 -2.548909e-02 -2.675959e-02 -2.453631e-02 -2.609758e-02 -2.170483e-02 -2.242224e-02 -1.986531e-02 -2.230258e-02 -2.006798e-02 -2.215765e-02 -2.026750e-02 -2.185685e-02 -2.047711e-02 -2.158936e-02 -2.081371e-02 -2.140445e-02 -2.108269e-02 -2.116852e-02 -2.123425e-02 -2.086318e-02 -2.126566e-02 -2.067616e-02 -2.136054e-02 -2.053650e-02 -2.128267e-02 -2.028294e-02 -2.105790e-02 -1.999146e-02 -2.070654e-02 -1.964745e-02 -2.019178e-02 -1.905731e-02 -1.926853e-02 -1.810175e-02 -1.775768e-02 -1.616965e-02 -1.464063e-02 -1.219314e-02 -8.797368e-03 -4.346960e-03 3.075346e-03 9.421610e-03 2.189611e-03 1.614734e-03 -2.156034e-04 -4.260221e-03 -4.789599e-03 -8.223888e-03 -1.043661e-02 -1.183325e-02 -1.457981e-02 -1.630553e-02 -1.686154e-02 -1.773000e-02 -1.618957e-02 -1.673314e-02 -1.867974e-02 -1.939472e-02 -2.118833e-02 -2.075200e-02 -2.157496e-02 -2.120314e-02 -2.165576e-02 -2.138368e-02 -2.174567e-02 -2.157766e-02 -2.183247e-02 -2.178660e-02 -2.197548e-02 -2.196978e-02 -2.204307e-02 -2.209485e-02 -2.200399e-02 -2.218999e-02 -2.192934e-02 -2.233280e-02 -2.200345e-02 -2.261979e-02 -2.203983e-02 -2.279237e-02 -2.202934e-02 -2.303410e-02 -2.205920e-02 -2.317847e-02 -2.194688e-02 -2.321487e-02 -2.184953e-02 -2.328834e-02 -2.185224e-02 -2.336173e-02 -2.174559e-02 -2.322055e-02 -2.165797e-02 -2.331960e-02 -2.195113e-02 -2.351508e-02 -2.213097e-02 -2.340477e-02 -2.216343e-02 -2.320738e-02 -2.240649e-02 -2.314469e-02 -2.298969e-02 -2.306393e-02 -2.416878e-02 -2.250740e-02 -2.710546e-02 -1.140444e-02 -4.737635e-03 3.991426e-03 6.404354e-03 9.062458e-03 
3.543545e-02 3.643342e-02 3.788281e-02 3.961301e-02 4.488276e-02 4.286501e-02 2.843441e-02 3.858548e-02 2.775183e-02 3.465878e-02 2.659500e-02 2.976038e-02 2.233495e-02 2.514668e-02 2.492625e-02 2.529403e-02 2.563473e-02 2.531647e-02 2.562919e-02 2.532702e-02 2.485387e-02 2.463289e-02 2.847533e-02 2.917744e-02 3.175544e-02 3.117382e-02 3.286502e-02 3.166409e-02 3.318329e-02 3.196037e-02 3.379242e-02 3.273732e-02 3.453516e-02 3.334226e-02 3.473246e-02 3.332104e-02 3.433116e-02 3.314087e-02 3.392852e-02 3.313131e-02 3.359464e-02 3.305442e-02 3.297753e-02 3.269401e-02 3.209846e-02 3.205390e-02 3.084805e-02 3.096445e-02 2.911186e-02 2.902503e-02 2.600942e-02 2.500937e-02 1.980746e-02 1.663004e-02 7.414297e-03 -3.108786e-04 -1.826305e-02 -2.855315e-02 -1.773417e-02 -1.499933e-02 -1.329949e-02 -5.576117e-03 -5.498099e-03 9.578911e-04 4.937931e-03 8.176252e-03 1.416933e-02 1.979531e-02 2.364180e-02 2.986862e-02 3.449515e-02 4.258546e-02 4.429522e-02 4.086162e-02 4.054058e-02 3.696571e-02 3.737617e-02 3.514158e-02 3.589014e-02 3.424491e-02 3.499408e-02 3.388828e-02 3.459287e-02 3.400304e-02 3.441216e-02 3.428535e-02 3.428551e-02 3.459963e-02 3.412151e-02 3.487808e-02 3.393037e-02 3.505098e-02 3.363502e-02 3.516975e-02 3.358015e-02 3.553238e-02 3.382180e-02 3.573964e-02 3.386104e-02 3.545674e-02 3.378844e-02 3.503834e-02 3.393839e-02 3.459789e-02 3.427649e-02 3.404069e-02 3.471853e-02 3.358831e-02 3.542259e-02 3.326313e-02 3.625861e-02 3.313021e-02 3.694916e-02 3.291228e-02 3.721519e-02 3.277619e-02 3.728386e-02 3.327690e-02 3.745601e-02 3.484617e-02 3.750448e-02 3.793336e-02 3.588619e-02 4.945585e-02 3.883378e-02 3.935376e-02 3.533144e-02 3.638882e-02 
4.158931e-02 4.305228e-02 4.472186e-02 4.961118e-02 5.620974e-02 6.621213e-02 6.126204e-02 6.265620e-02 5.887380e-02 5.957929e-02 5.604427e-02 5.548898e-02 5.007493e-02 4.990116e-02 4.999941e-02 4.993150e-02 5.002537e-02 4.996653e-02 4.998072e-02 5.002272e-02 4.986230e-02 5.010921e-02 5.355151e-02 5.564515e-02 5.725849e-02 5.840023e-02 5.909768e-02 5.947295e-02 6.004745e-02 5.999975e-02 6.093965e-02 6.057862e-02 6.169888e-02 6.091976e-02 6.202636e-02 6.084866e-02 6.193467e-02 6.076451e-02 6.188044e-02 6.081538e-02 6.177173e-02 6.081176e-02 6.150585e-02 6.075788e-02 6.118582e-02 6.074488e-02 6.088114e-02 6.074905e-02 6.064759e-02 6.087437e-02 6.049243e-02 6.085454e-02 5.995978e-02 6.030246e-02 5.894295e-02 5.903855e-02 5.640461e-02 5.508674e-02 5.731832e-02 5.517492e-02 5.400169e-02 5.437295e-02 5.134474e-02 5.124144e-02 4.793127e-02 4.676515e-02 4.429078e-02 4.195251e-02 3.846840e-02 3.748048e-02 3.298524e-02 2.359711e-02 2.886905e-02 3.846622e-02 4.684044e-02 5.044807e-02 5.466386e-02 5.579693e-02 5.823405e-02 5.834246e-02 5.993763e-02 5.976354e-02 6.086631e-02 6.076356e-02 6.144637e-02 6.150008e-02 6.174362e-02 6.203840e-02 6.180837e-02 6.243867e-02 6.175438e-02 6.275821e-02 6.171163e-02 6.311366e-02 6.174270e-02 6.347710e-02 6.188006e-02 6.378142e-02 6.194605e-02 6.374223e-02 6.186075e-02 6.352821e-02 6.190713e-02 6.330648e-02 6.213626e-02 6.301612e-02 6.236185e-02 6.262195e-02 6.274186e-02 6.246048e-02 6.345104e-02 6.246638e-02 6.398630e-02 6.223273e-02 6.417107e-02 6.201254e-02 6.435365e-02 6.225982e-02 6.476598e-02 6.312689e-02 6.552462e-02 6.468113e-02 6.718951e-02 6.391196e-02 5.303846e-02 4.785090e-02 4.354591e-02 4.265325e-02 
5.312410e-02 5.461027e-02 5.463783e-02 5.816501e-02 5.950211e-02 6.676669e-02 6.748641e-02 6.799719e-02 6.760529e-02 6.814725e-02 6.760475e-02 6.812739e-02 6.753261e-02 6.740228e-02 6.746947e-02 6.742650e-02 6.751155e-02 6.745274e-02 6.746975e-02 6.748677e-02 6.733756e-02 6.753199e-02 6.734327e-02 6.775628e-02 6.735457e-02 6.775871e-02 6.746755e-02 6.766808e-02 6.762179e-02 6.758273e-02 6.784333e-02 6.754563e-02 6.804083e-02 6.750132e-02 6.815195e-02 6.742114e-02 6.815301e-02 6.736271e-02 6.810978e-02 6.731628e-02 6.796657e-02 6.724153e-02 6.775766e-02 6.717710e-02 6.752659e-02 6.715576e-02 6.735055e-02 6.721690e-02 6.733259e-02 6.756407e-02 6.784777e-02 6.861803e-02 6.963770e-02 7.158168e-02 7.495945e-02 7.989957e-02 8.982681e-02 9.705249e-02 8.800123e-02 8.730145e-02 8.534961e-02 8.185049e-02 8.184632e-02 7.947398e-02 7.795007e-02 7.795002e-02 7.611944e-02 7.552106e-02 7.599791e-02 7.511661e-02 7.625050e-02 7.384572e-02 7.292578e-02 7.178956e-02 7.116363e-02 7.084537e-02 7.080271e-02 7.009702e-02 7.017498e-02 6.949242e-02 6.967606e-02 6.916160e-02 6.931757e-02 6.903949e-02 6.908831e-02 6.905185e-02 6.890619e-02 6.913185e-02 6.873202e-02 6.924748e-02 6.857572e-02 6.939988e-02 6.850511e-02 6.960609e-02 6.846298e-02 6.975453e-02 6.844085e-02 6.987737e-02 6.846233e-02 6.989943e-02 6.846739e-02 6.981382e-02 6.851990e-02 6.968724e-02 6.866097e-02 6.953267e-02 6.882194e-02 6.930018e-02 6.902561e-02 6.915889e-02 6.935109e-02 6.906157e-02 6.957412e-02 6.887937e-02 6.962677e-02 6.869491e-02 6.957621e-02 6.858861e-02 6.940499e-02 6.848751e-02 6.915075e-02 6.822055e-02 6.948155e-02 6.393029e-02 5.957967e-02 5.703698e-02 5.454971e-02 5.429238e-02 
5.284442e-02 5.392452e-02 5.430350e-02 5.679193e-02 5.801008e-02 6.151735e-02 6.256756e-02 6.467277e-02 6.582543e-02 6.727264e-02 7.003077e-02 7.151227e-02 7.793517e-02 7.787287e-02 7.792444e-02 7.787402e-02 7.790670e-02 7.788626e-02 7.788249e-02 7.790409e-02 7.785717e-02 7.791243e-02 7.281748e-02 7.144786e-02 6.852699e-02 6.787002e-02 6.634523e-02 6.590923e-02 6.528632e-02 6.486244e-02 6.487367e-02 6.434516e-02 6.477097e-02 6.408447e-02 6.475779e-02 6.393259e-02 6.473967e-02 6.386447e-02 6.472031e-02 6.387415e-02 6.468997e-02 6.393897e-02 6.464820e-02 6.405342e-02 6.461387e-02 6.421790e-02 6.460631e-02 6.441929e-02 6.463648e-02 6.464988e-02 6.473384e-02 6.493846e-02 6.506245e-02 6.560403e-02 6.630541e-02 6.770599e-02 7.040083e-02 7.281660e-02 6.947745e-02 7.152977e-02 7.154749e-02 7.138254e-02 7.265153e-02 7.261373e-02 7.369919e-02 7.444876e-02 7.523075e-02 7.597858e-02 7.777765e-02 7.616174e-02 7.713186e-02 8.063479e-02 7.881177e-02 7.260772e-02 6.946357e-02 6.701511e-02 6.642994e-02 6.519843e-02 6.540424e-02 6.465855e-02 6.508639e-02 6.459779e-02 6.499035e-02 6.471994e-02 6.495383e-02 6.491255e-02 6.491306e-02 6.512672e-02 6.484984e-02 6.534211e-02 6.477708e-02 6.555342e-02 6.472140e-02 6.575778e-02 6.469269e-02 6.592776e-02 6.469315e-02 6.603790e-02 6.471483e-02 6.605438e-02 6.475658e-02 6.598560e-02 6.484754e-02 6.585507e-02 6.499696e-02 6.567361e-02 6.518418e-02 6.545540e-02 6.540709e-02 6.524745e-02 6.564541e-02 6.503813e-02 6.579182e-02 6.477176e-02 6.575926e-02 6.444028e-02 6.550171e-02 6.402030e-02 6.492554e-02 6.337610e-02 6.384857e-02 6.222621e-02 6.197666e-02 5.959968e-02 5.743372e-02 5.571248e-02 5.398012e-02 5.357953e-02 
5.778822e-02 5.898656e-02 5.889750e-02 6.134788e-02 6.195678e-02 6.512142e-02 6.614105e-02 6.799147e-02 6.937074e-02 7.058884e-02 7.341340e-02 7.479930e-02 8.144287e-02 8.138507e-02 8.143519e-02 8.138972e-02 8.142486e-02 8.140400e-02 8.139724e-02 8.141997e-02 8.135853e-02 8.142329e-02 7.649578e-02 7.514328e-02 7.238142e-02 7.177832e-02 7.032367e-02 6.998884e-02 6.934222e-02 6.905362e-02 6.894479e-02 6.857823e-02 6.882692e-02 6.833932e-02 6.881952e-02 6.822823e-02 6.884298e-02 6.820111e-02 6.887075e-02 6.824258e-02 6.890074e-02 6.835201e-02 6.895139e-02 6.854119e-02 6.905120e-02 6.882265e-02 6.923206e-02 6.921454e-02 6.954154e-02 6.976479e-02 7.006901e-02 7.058276e-02 7.099313e-02 7.193097e-02 7.263943e-02 7.416085e-02 7.509057e-02 7.692966e-02 7.603542e-02 7.685961e-02 7.621104e-02 7.596584e-02 7.544227e-02 7.491025e-02 7.417956e-02 7.369415e-02 7.290006e-02 7.213533e-02 7.168137e-02 7.042463e-02 7.019006e-02 6.953998e-02 6.922238e-02 6.868675e-02 6.900511e-02 6.894083e-02 6.939728e-02 6.924854e-02 6.964587e-02 6.941706e-02 6.971263e-02 6.948637e-02 6.965699e-02 6.952383e-02 6.954262e-02 6.956956e-02 6.940458e-02 6.963949e-02 6.926467e-02 6.973670e-02 6.914064e-02 6.985533e-02 6.904541e-02 6.997854e-02 6.897580e-02 7.007627e-02 6.893040e-02 7.013585e-02 6.892280e-02 7.015312e-02 6.895999e-02 7.012162e-02 6.904055e-02 7.003917e-02 6.915843e-02 6.990962e-02 6.929905e-02 6.974302e-02 6.945267e-02 6.956465e-02 6.959815e-02 6.937030e-02 6.967145e-02 6.912647e-02 6.960233e-02 6.879610e-02 6.932330e-02 6.830551e-02 6.873325e-02 6.748929e-02 6.765856e-02 6.603901e-02 6.575136e-02 6.337645e-02 6.183885e-02 6.031551e-02 5.885000e-02 5.865150e-02 
5.283689e-02 5.391638e-02 5.429650e-02 5.678474e-02 5.800316e-02 6.151074e-02 6.256195e-02 6.466752e-02 6.582177e-02 6.726962e-02 7.002882e-02 7.150907e-02 7.793102e-02 7.786775e-02 7.792256e-02 7.787041e-02 7.790669e-02 7.788240e-02 7.788251e-02 7.789681e-02 7.785436e-02 7.789801e-02 7.277946e-02 7.141423e-02 6.849058e-02 6.787083e-02 6.636470e-02 6.597910e-02 6.537073e-02 6.497867e-02 6.497937e-02 6.445849e-02 6.486593e-02 6.418217e-02 6.485045e-02 6.403645e-02 6.485240e-02 6.397841e-02 6.485448e-02 6.400923e-02 6.487325e-02 6.413173e-02 6.491652e-02 6.433286e-02 6.498565e-02 6.458495e-02 6.505851e-02 6.483939e-02 6.511364e-02 6.507385e-02 6.517414e-02 6.532489e-02 6.531781e-02 6.569499e-02 6.568894e-02 6.636858e-02 6.641099e-02 6.736310e-02 6.699085e-02 6.790095e-02 6.778773e-02 6.834774e-02 6.849040e-02 6.884458e-02 6.908421e-02 6.930833e-02 6.955470e-02 6.954004e-02 6.980796e-02 6.942934e-02 6.954183e-02 6.923987e-02 6.905059e-02 6.793927e-02 6.775595e-02 6.674958e-02 6.685558e-02 6.600939e-02 6.630312e-02 6.559730e-02 6.594918e-02 6.539008e-02 6.569511e-02 6.531611e-02 6.548741e-02 6.533144e-02 6.530401e-02 6.540961e-02 6.513630e-02 6.553090e-02 6.499213e-02 6.568340e-02 6.488410e-02 6.584160e-02 6.480060e-02 6.595173e-02 6.472408e-02 6.599912e-02 6.470241e-02 6.602065e-02 6.476879e-02 6.599843e-02 6.489253e-02 6.590179e-02 6.505515e-02 6.573640e-02 6.524301e-02 6.551636e-02 6.544216e-02 6.527680e-02 6.563845e-02 6.504052e-02 6.577400e-02 6.478053e-02 6.575699e-02 6.446412e-02 6.550857e-02 6.404016e-02 6.492695e-02 6.337960e-02 6.383671e-02 6.221347e-02 6.196111e-02 5.958374e-02 5.742055e-02 5.569921e-02 5.397063e-02 5.356945e-02 
5.311002e-02 5.459412e-02 5.462315e-02 5.815026e-02 5.948735e-02 6.675503e-02 6.747993e-02 6.799677e-02 6.761106e-02 6.816202e-02 6.761641e-02 6.813869e-02 6.751539e-02 6.738676e-02 6.746408e-02 6.742332e-02 6.751629e-02 6.745747e-02 6.747809e-02 6.749067e-02 6.734513e-02 6.751491e-02 6.726330e-02 6.769016e-02 6.729803e-02 6.778639e-02 6.754391e-02 6.784911e-02 6.784271e-02 6.787272e-02 6.813494e-02 6.788043e-02 6.837613e-02 6.787281e-02 6.855755e-02 6.789780e-02 6.870241e-02 6.795853e-02 6.880533e-02 6.808640e-02 6.893036e-02 6.832599e-02 6.911755e-02 6.870507e-02 6.940409e-02 6.919514e-02 6.973228e-02 6.972410e-02 7.007734e-02 7.026871e-02 7.046082e-02 7.087908e-02 7.094205e-02 7.154328e-02 7.146490e-02 7.219328e-02 7.195391e-02 7.268902e-02 7.223480e-02 7.278227e-02 7.217296e-02 7.244752e-02 7.180271e-02 7.183337e-02 7.123672e-02 7.108592e-02 7.057108e-02 7.029183e-02 6.997723e-02 6.963807e-02 6.957471e-02 6.927324e-02 6.930974e-02 6.891455e-02 6.914842e-02 6.879235e-02 6.917952e-02 6.883216e-02 6.926256e-02 6.890483e-02 6.930188e-02 6.898345e-02 6.929360e-02 6.906665e-02 6.920766e-02 6.912893e-02 6.906127e-02 6.920215e-02 6.890158e-02 6.931702e-02 6.876615e-02 6.947550e-02 6.866260e-02 6.963932e-02 6.857317e-02 6.973902e-02 6.845117e-02 6.975270e-02 6.838701e-02 6.979080e-02 6.846252e-02 6.982187e-02 6.859711e-02 6.976797e-02 6.875249e-02 6.962256e-02 6.891464e-02 6.941968e-02 6.910624e-02 6.921977e-02 6.933215e-02 6.906214e-02 6.954313e-02 6.890857e-02 6.963626e-02 6.874688e-02 6.957857e-02 6.860934e-02 6.939274e-02 6.848882e-02 6.912315e-02 6.819714e-02 6.945202e-02 6.389989e-02 5.955712e-02 5.701278e-02 5.453386e-02 5.427360e-02 
4.157229e-02 4.303146e-02 4.470197e-02 4.959027e-02 5.618414e-02 6.618985e-02 6.123853e-02 6.263191e-02 5.885443e-02 5.956861e-02 5.604127e-02 5.547740e-02 5.005673e-02 4.988933e-02 4.999847e-02 4.992966e-02 5.003339e-02 4.996779e-02 4.999200e-02 5.001435e-02 4.986301e-02 5.004947e-02 5.331589e-02 5.534687e-02 5.693714e-02 5.826777e-02 5.912274e-02 5.977831e-02 6.048306e-02 6.056065e-02 6.140077e-02 6.097868e-02 6.195842e-02 6.114050e-02 6.223847e-02 6.116963e-02 6.230617e-02 6.112611e-02 6.226969e-02 6.119586e-02 6.233142e-02 6.147163e-02 6.249448e-02 6.190981e-02 6.279394e-02 6.249542e-02 6.310658e-02 6.298109e-02 6.323109e-02 6.329315e-02 6.333222e-02 6.371912e-02 6.366537e-02 6.430476e-02 6.410821e-02 6.489236e-02 6.458727e-02 6.543770e-02 6.509358e-02 6.588133e-02 6.548967e-02 6.616346e-02 6.586094e-02 6.634526e-02 6.618276e-02 6.641791e-02 6.629338e-02 6.628132e-02 6.627317e-02 6.601695e-02 6.608900e-02 6.556913e-02 6.562950e-02 6.480745e-02 6.507842e-02 6.422624e-02 6.471766e-02 6.382904e-02 6.441416e-02 6.352948e-02 6.410967e-02 6.327985e-02 6.377537e-02 6.309122e-02 6.340657e-02 6.298517e-02 6.306808e-02 6.297613e-02 6.272605e-02 6.301953e-02 6.242054e-02 6.318445e-02 6.228335e-02 6.349489e-02 6.219939e-02 6.358737e-02 6.185288e-02 6.342102e-02 6.166559e-02 6.350429e-02 6.188110e-02 6.362515e-02 6.211930e-02 6.351306e-02 6.236792e-02 6.329247e-02 6.264795e-02 6.291169e-02 6.290621e-02 6.252299e-02 6.331431e-02 6.234130e-02 6.382809e-02 6.221144e-02 6.418110e-02 6.215185e-02 6.444505e-02 6.238123e-02 6.481470e-02 6.313824e-02 6.545776e-02 6.459175e-02 6.712607e-02 6.384783e-02 5.299904e-02 4.781119e-02 4.352531e-02 4.262844e-02 
3.541620e-02 3.640550e-02 3.785028e-02 3.957567e-02 4.482515e-02 4.280411e-02 2.833317e-02 3.847110e-02 2.760341e-02 3.451916e-02 2.646196e-02 2.966422e-02 2.230105e-02 2.519560e-02 2.498817e-02 2.534515e-02 2.568517e-02 2.536454e-02 2.565528e-02 2.538164e-02 2.483873e-02 2.461819e-02 2.833043e-02 2.894955e-02 3.145976e-02 3.107403e-02 3.294578e-02 3.207939e-02 3.376324e-02 3.268365e-02 3.435448e-02 3.313446e-02 3.470678e-02 3.342689e-02 3.480942e-02 3.351573e-02 3.464227e-02 3.353540e-02 3.450537e-02 3.380138e-02 3.463031e-02 3.437138e-02 3.493636e-02 3.505407e-02 3.536325e-02 3.588791e-02 3.590124e-02 3.663756e-02 3.627365e-02 3.724364e-02 3.675152e-02 3.806139e-02 3.758904e-02 3.917008e-02 3.865131e-02 4.027669e-02 3.960906e-02 4.104383e-02 4.002482e-02 4.098982e-02 3.988337e-02 4.036849e-02 3.927582e-02 3.937671e-02 3.833901e-02 3.810203e-02 3.719852e-02 3.665266e-02 3.600237e-02 3.516649e-02 3.471270e-02 3.374000e-02 3.383510e-02 3.323245e-02 3.388486e-02 3.348166e-02 3.436668e-02 3.389962e-02 3.477698e-02 3.428809e-02 3.500105e-02 3.448041e-02 3.492114e-02 3.452913e-02 3.472944e-02 3.467443e-02 3.459155e-02 3.488353e-02 3.434887e-02 3.498533e-02 3.402247e-02 3.512129e-02 3.390662e-02 3.544649e-02 3.386602e-02 3.546946e-02 3.352530e-02 3.519316e-02 3.342355e-02 3.517349e-02 3.376065e-02 3.511961e-02 3.411165e-02 3.478225e-02 3.453967e-02 3.441667e-02 3.508392e-02 3.384494e-02 3.550692e-02 3.322245e-02 3.605660e-02 3.289760e-02 3.671382e-02 3.276590e-02 3.718473e-02 3.289817e-02 3.750238e-02 3.350972e-02 3.766035e-02 3.490009e-02 3.751266e-02 3.783296e-02 3.587138e-02 4.939012e-02 3.881282e-02 3.931285e-02 3.531753e-02 3.636146e-02 
9.232242e-03 8.158518e-03 6.086219e-03 5.426606e-04 -6.012869e-03 -2.055845e-02 -2.595876e-02 -1.965561e-02 -2.441171e-02 -1.974507e-02 -2.311312e-02 -2.012472e-02 -2.177301e-02 -2.239105e-02 -2.517472e-02 -2.568311e-02 -2.549838e-02 -2.669444e-02 -2.450861e-02 -2.598599e-02 -2.165305e-02 -2.228903e-02 -1.962648e-02 -2.202097e-02 -1.984436e-02 -2.205186e-02 -2.030240e-02 -2.204746e-02 -2.078779e-02 -2.198545e-02 -2.124385e-02 -2.189276e-02 -2.160340e-02 -2.174541e-02 -2.188248e-02 -2.165377e-02 -2.212537e-02 -2.155886e-02 -2.224333e-02 -2.148228e-02 -2.234792e-02 -2.151392e-02 -2.250229e-02 -2.173898e-02 -2.281409e-02 -2.213462e-02 -2.313448e-02 -2.253002e-02 -2.337467e-02 -2.286082e-02 -2.356498e-02 -2.325859e-02 -2.383875e-02 -2.365550e-02 -2.400623e-02 -2.388461e-02 -2.401465e-02 -2.392196e-02 -2.395669e-02 -2.384478e-02 -2.362079e-02 -2.355389e-02 -2.327614e-02 -2.321035e-02 -2.303618e-02 -2.295510e-02 -2.282340e-02 -2.278389e-02 -2.283659e-02 -2.288722e-02 -2.316774e-02 -2.315981e-02 -2.327855e-02 -2.291093e-02 -2.305618e-02 -2.261325e-02 -2.288216e-02 -2.241088e-02 -2.275366e-02 -2.224044e-02 -2.264406e-02 -2.215406e-02 -2.260997e-02 -2.215115e-02 -2.252917e-02 -2.211319e-02 -2.239319e-02 -2.210012e-02 -2.227605e-02 -2.218458e-02 -2.222843e-02 -2.238217e-02 -2.223890e-02 -2.263675e-02 -2.224288e-02 -2.278625e-02 -2.204856e-02 -2.277827e-02 -2.187660e-02 -2.295664e-02 -2.193103e-02 -2.322701e-02 -2.196802e-02 -2.338365e-02 -2.193610e-02 -2.343144e-02 -2.184957e-02 -2.341376e-02 -2.180687e-02 -2.342420e-02 -2.189120e-02 -2.350469e-02 -2.206730e-02 -2.348298e-02 -2.218334e-02 -2.331705e-02 -2.235055e-02 -2.314405e-02 -2.287416e-02 -2.303539e-02 -2.402978e-02 -2.245481e-02 -2.699774e-02 -1.136880e-02 -4.682127e-03 4.006050e-03 6.425057e-03 9.059331e-03 
8.715391e-03 7.131245e-03 4.805421e-03 4.035298e-05 -7.910858e-03 -1.374873e-02 -4.676504e-03 -1.078273e-02 -3.536371e-03 -6.326303e-03 -3.503277e-04 1.300144e-03 8.702642e-03 1.422497e-02 1.765017e-02 1.992516e-02 1.995934e-02 2.100690e-02 1.879782e-02 1.745421e-02 1.423730e-02 6.764398e-03 1.770523e-03 -2.309894e-03 -4.575269e-03 -6.044184e-03 -7.420859e-03 -7.561825e-03 -8.891335e-03 -8.256595e-03 -9.853578e-03 -8.649366e-03 -1.043990e-02 -8.818237e-03 -1.069339e-02 -8.800345e-03 -1.062692e-02 -8.690689e-03 -1.046209e-02 -8.775955e-03 -1.045886e-02 -9.149646e-03 -1.058361e-02 -9.688240e-03 -1.084897e-02 -1.042252e-02 -1.120154e-02 -1.109618e-02 -1.141720e-02 -1.169410e-02 -1.184903e-02 -1.272111e-02 -1.296359e-02 -1.442691e-02 -1.476290e-02 -1.663949e-02 -1.688997e-02 -1.873438e-02 -1.798287e-02 -1.907487e-02 -1.835046e-02 -1.877969e-02 -1.811313e-02 -1.810088e-02 -1.725262e-02 -1.673933e-02 -1.569426e-02 -1.426433e-02 -1.315803e-02 -1.092945e-02 -9.804357e-03 -7.499949e-03 -8.016536e-03 -7.218400e-03 -8.883945e-03 -8.407141e-03 -1.032451e-02 -9.563510e-03 -1.132372e-02 -1.031207e-02 -1.178716e-02 -1.066259e-02 -1.179624e-02 -1.080191e-02 -1.157421e-02 -1.096164e-02 -1.132529e-02 -1.118020e-02 -1.098266e-02 -1.135974e-02 -1.060548e-02 -1.162916e-02 -1.044741e-02 -1.208771e-02 -1.036842e-02 -1.222878e-02 -9.954819e-03 -1.201549e-02 -9.772802e-03 -1.208416e-02 -1.009690e-02 -1.214125e-02 -1.044824e-02 -1.187517e-02 -1.085465e-02 -1.151269e-02 -1.135460e-02 -1.093216e-02 -1.178229e-02 -1.031313e-02 -1.236812e-02 -9.971532e-03 -1.304951e-02 -9.721522e-03 -1.346336e-02 -9.581090e-03 -1.365232e-02 -9.765128e-03 -1.371672e-02 -1.050990e-02 -1.364291e-02 -1.218117e-02 -1.307849e-02 -1.567265e-02 -2.576318e-03 2.005898e-03 6.975406e-03 7.644596e-03 
1.387245e-03 3.873896e-05 -6.930105e-05 -1.781235e-03 -3.173998e-03 -2.016561e-03 7.142630e-03 -2.529681e-03 4.707360e-03 -1.984142e-03 2.012516e-03 -1.745730e-03 -1.236165e-03 -2.331942e-04 2.257685e-03 3.041157e-03 2.582463e-03 4.022246e-03 1.671599e-03 3.260927e-03 -1.023328e-03 -4.808047e-04 -1.434988e-03 4.323836e-04 -5.594281e-04 1.085475e-03 -1.559852e-04 1.469252e-03 -3.609853e-05 1.608206e-03 -1.425796e-04 1.555295e-03 -2.955029e-04 1.446478e-03 -3.428892e-04 1.410204e-03 -2.130155e-04 1.367479e-03 -9.507787e-05 1.139499e-03 -1.142711e-04 7.039600e-04 -2.396951e-04 1.663020e-04 -4.535595e-04 -5.142970e-04 -8.336306e-04 -1.305418e-03 -1.360516e-03 -2.287277e-03 -2.302678e-03 -3.779228e-03 -3.990224e-03 -6.091795e-03 -6.596445e-03 -9.172537e-03 -9.637503e-03 -1.205907e-02 -1.045810e-02 -1.123651e-02 -9.664892e-03 -9.211645e-03 -7.649154e-03 -6.640219e-03 -4.781999e-03 -3.463532e-03 -1.611668e-03 4.176683e-04 1.891779e-03 4.363792e-03 5.426697e-03 7.710332e-03 6.868325e-03 7.044924e-03 5.041915e-03 4.904811e-03 2.781841e-03 2.965349e-03 1.129872e-03 1.626913e-03 1.979312e-04 8.393742e-04 -1.581773e-04 3.670406e-04 -2.319811e-04 -5.350245e-05 -2.095477e-04 -4.511158e-04 -6.006104e-05 -7.505886e-04 1.766149e-04 -1.017592e-03 3.312335e-04 -1.327821e-03 4.233801e-04 -1.470132e-03 5.764407e-04 -1.422934e-03 5.791591e-04 -1.363624e-03 3.552608e-04 -1.185029e-03 4.046036e-05 -8.129921e-04 -3.950327e-04 -3.757793e-04 -9.538335e-04 1.857209e-04 -1.480922e-03 7.945543e-04 -2.022353e-03 1.274531e-03 -2.498925e-03 1.644579e-03 -2.701409e-03 1.873908e-03 -2.523926e-03 1.909382e-03 -1.780599e-03 1.696414e-03 -1.886930e-04 8.152465e-04 2.974690e-03 -6.902661e-03 -6.851740e-04 -2.360145e-03 1.119780e-03 -1.056548e-04 
