# vtk DataFile Version 2.0
Comment goes here
ASCII

DATASET STRUCTURED_POINTS
FIELD FieldData 1
TIME 1 1 double
0.69000000
DIMENSIONS    128   16   1

ORIGIN    0.000   0.000   0.000
SPACING   0.0078125 0.015625   1.000

POINT_DATA   2048
SCALARS uX double
LOOKUP_TABLE default

-2.554075e-03 -3.466375e-03 -1.815938e-03 -3.660245e-03 -1.305988e-03 -6.764114e-03 -5.451149e-03 -1.752005e-03 -4.009345e-03 1.636521e-03 1.123852e-03 8.587280e-03 1.214821e-02 2.100861e-02 2.492451e-02 2.883011e-02 2.802713e-02 3.008998e-02 2.697771e-02 2.564195e-02 2.079457e-02 1.310620e-02 7.378681e-03 3.166596e-03 3.448962e-04 -1.289041e-03 -2.522252e-03 -3.323501e-03 -3.636767e-03 -4.323795e-03 -4.001540e-03 -4.850822e-03 -4.061990e-03 -5.132685e-03 -4.020456e-03 -5.261141e-03 -3.971078e-03 -5.277000e-03 -3.957217e-03 -5.204653e-03 -3.994493e-03 -5.063548e-03 -4.079793e-03 -4.870129e-03 -4.194111e-03 -4.633443e-03 -4.300214e-03 -4.346491e-03 -4.334694e-03 -3.965997e-03 -4.175145e-03 -3.353946e-03 -3.549488e-03 -2.136512e-03 -1.773272e-03 8.305930e-04 3.011516e-03 5.907323e-03 2.806972e-03 4.467764e-03 4.138050e-03 4.558835e-03 5.382132e-03 5.878063e-03 5.886391e-03 7.003222e-03 6.629345e-03 6.104470e-03 5.272329e-03 1.753830e-03 -2.708775e-03 -9.286538e-03 -8.131478e-03 -6.886106e-03 -4.834388e-03 -4.685915e-03 -3.334430e-03 -4.043989e-03 -3.017035e-03 -3.852384e-03 -3.088306e-03 -3.719882e-03 -3.302481e-03 -3.549787e-03 -3.571174e-03 -3.337948e-03 -3.851574e-03 -3.109196e-03 -4.108376e-03 -2.894606e-03 -4.307238e-03 -2.728782e-03 -4.421148e-03 -2.648119e-03 -4.431198e-03 -2.680542e-03 -4.322038e-03 -2.836209e-03 -4.085033e-03 -3.109063e-03 -3.728898e-03 -3.481614e-03 -3.284949e-03 -3.923620e-03 -2.802917e-03 -4.385944e-03 -2.340991e-03 -4.798522e-03 -1.961741e-03 -5.082582e-03 -1.735034e-03 -5.166620e-03 -1.731455e-03 -4.993279e-03 -2.004218e-03 -4.525857e-03 -2.573925e-03 -3.770143e-03 -3.429346e-03 -2.825270e-03 -4.569850e-03 -2.004978e-03 -6.258402e-03 -1.205263e-03 -2.424137e-03 -1.664397e-03 -2.470536e-03 -2.902144e-03 
-3.163017e-04 -1.127105e-03 7.362968e-04 -8.830094e-04 2.556030e-03 -4.778059e-03 -4.062782e-03 3.793520e-04 -4.728982e-03 8.524172e-04 -4.205865e-03 1.061516e-03 -4.204404e-03 -7.071667e-04 -5.814415e-03 -3.179769e-03 -5.631327e-03 -4.120366e-03 -4.703080e-03 -4.272256e-03 -2.423081e-03 -3.062451e-03 -1.202079e-03 -2.227916e-03 -1.352665e-03 -1.947666e-03 -1.282428e-03 -1.837185e-03 -1.111177e-03 -1.844560e-03 -9.148151e-04 -1.903617e-03 -7.305425e-04 -1.952159e-03 -5.803749e-04 -1.960813e-03 -4.955493e-04 -1.927065e-03 -4.912989e-04 -1.844524e-03 -5.571650e-04 -1.710389e-03 -6.759817e-04 -1.531744e-03 -8.211564e-04 -1.311979e-03 -9.502390e-04 -1.038463e-03 -9.779556e-04 -6.182770e-04 -6.804274e-04 2.408836e-04 4.491439e-04 2.241560e-03 3.599903e-03 7.251458e-03 1.132136e-02 1.467968e-02 9.624295e-03 1.161599e-02 1.035939e-02 8.940148e-03 9.317797e-03 7.938339e-03 6.744732e-03 6.435056e-03 4.669730e-03 3.667861e-03 2.789870e-03 1.125195e-03 2.064467e-03 -8.890731e-04 3.671761e-04 -1.239769e-03 -1.428498e-03 -2.008762e-03 -9.870786e-04 -1.787901e-03 -6.212115e-04 -1.445117e-03 -4.288422e-04 -1.052284e-03 -3.880568e-04 -6.520374e-04 -4.690072e-04 -2.692741e-04 -6.237524e-04 8.150106e-05 -8.012483e-04 3.792897e-04 -9.531701e-04 6.055101e-04 -1.033388e-03 7.354924e-04 -1.020180e-03 7.370811e-04 -8.981978e-04 6.058596e-04 -6.480359e-04 3.522257e-04 -2.813712e-04 -1.653368e-05 1.645048e-04 -4.691709e-04 6.511570e-04 -9.428666e-04 1.131495e-03 -1.363057e-03 1.541281e-03 -1.654412e-03 1.801440e-03 -1.755932e-03 1.822325e-03 -1.617294e-03 1.546264e-03 -1.176341e-03 9.600242e-04 -4.053462e-04 4.235740e-05 6.360619e-04 -1.289999e-03 1.750639e-03 -3.490081e-03 3.200113e-03 1.727274e-03 1.005151e-03 2.631040e-05 -6.576870e-04 
-3.958660e-03 -3.904779e-03 -1.165382e-03 1.111904e-03 7.788945e-03 7.228499e-03 4.682612e-03 6.500487e-03 3.897797e-03 3.947241e-03 1.891623e-03 -9.364043e-04 -3.057888e-03 -7.691425e-03 -8.362016e-03 -1.100644e-02 -9.855468e-03 -1.116177e-02 -9.855325e-03 -8.318648e-03 -8.006205e-03 -1.707572e-03 -1.472635e-03 3.333900e-03 2.549983e-03 5.503283e-03 4.417453e-03 6.269561e-03 5.424245e-03 6.438509e-03 6.049139e-03 6.359459e-03 6.491022e-03 6.227499e-03 6.829095e-03 6.111786e-03 7.043280e-03 6.009213e-03 7.116470e-03 5.936226e-03 7.069667e-03 5.901535e-03 6.907264e-03 5.872352e-03 6.609018e-03 5.775202e-03 6.102222e-03 5.453572e-03 5.229111e-03 4.680460e-03 3.760520e-03 3.115718e-03 1.220722e-03 2.071029e-05 -3.556164e-03 -6.464553e-03 -1.332124e-02 -1.625696e-02 -1.415823e-02 -1.515674e-02 -1.666777e-02 -1.537977e-02 -1.766509e-02 -1.672244e-02 -1.629165e-02 -1.676320e-02 -1.442696e-02 -1.277018e-02 -9.012191e-03 -3.344643e-03 4.881155e-03 1.497131e-02 1.672187e-02 1.273217e-02 1.219401e-02 8.638982e-03 9.372604e-03 7.110972e-03 8.312839e-03 6.737470e-03 7.856618e-03 6.849485e-03 7.584487e-03 7.153351e-03 7.322884e-03 7.510818e-03 7.040237e-03 7.868290e-03 6.756332e-03 8.184479e-03 6.508606e-03 8.444091e-03 6.354134e-03 8.623528e-03 6.304485e-03 8.669758e-03 6.367779e-03 8.582376e-03 6.581310e-03 8.375169e-03 6.927448e-03 8.029954e-03 7.353962e-03 7.568150e-03 7.836825e-03 7.065552e-03 8.348709e-03 6.600262e-03 8.830037e-03 6.241210e-03 9.193180e-03 6.027948e-03 9.317163e-03 5.991850e-03 9.135619e-03 6.233478e-03 8.655092e-03 6.838220e-03 7.848880e-03 7.840069e-03 6.737935e-03 9.406108e-03 5.706652e-03 1.194522e-02 6.948243e-03 8.459140e-04 -1.870348e-03 -3.976318e-03 
-5.613130e-03 -3.449786e-03 -2.829439e-03 4.288455e-03 6.458673e-03 2.134560e-02 1.545820e-02 1.195928e-02 1.729242e-02 1.100541e-02 1.732321e-02 1.100628e-02 1.784796e-02 1.332725e-02 1.925791e-02 1.593653e-02 1.890501e-02 1.707837e-02 1.775299e-02 1.745391e-02 1.524906e-02 1.640293e-02 1.320159e-02 1.575255e-02 1.288688e-02 1.547648e-02 1.283860e-02 1.526827e-02 1.294009e-02 1.507404e-02 1.311552e-02 1.486351e-02 1.332439e-02 1.463970e-02 1.353998e-02 1.440184e-02 1.372367e-02 1.414096e-02 1.384593e-02 1.386066e-02 1.389117e-02 1.356042e-02 1.383327e-02 1.321677e-02 1.362605e-02 1.277253e-02 1.318065e-02 1.210254e-02 1.232812e-02 1.098007e-02 1.077128e-02 8.985579e-03 7.917553e-03 5.246166e-03 2.480607e-03 -2.243256e-03 -7.879141e-03 -1.203214e-02 -6.035485e-03 -7.731077e-03 -6.129747e-03 -3.242664e-03 -3.568405e-03 -1.028148e-03 5.170170e-04 1.065031e-03 3.086742e-03 3.447173e-03 3.510821e-03 3.303311e-03 6.415974e-04 3.968410e-05 -1.010851e-03 2.030032e-03 6.839614e-03 7.718386e-03 1.032582e-02 1.045974e-02 1.209078e-02 1.199340e-02 1.300909e-02 1.290015e-02 1.347231e-02 1.346796e-02 1.367525e-02 1.384272e-02 1.372884e-02 1.410773e-02 1.369919e-02 1.430688e-02 1.362827e-02 1.447055e-02 1.355080e-02 1.461218e-02 1.347895e-02 1.472557e-02 1.342050e-02 1.481528e-02 1.339324e-02 1.488288e-02 1.339778e-02 1.491159e-02 1.342554e-02 1.489226e-02 1.348259e-02 1.482985e-02 1.357928e-02 1.472771e-02 1.371934e-02 1.458582e-02 1.389869e-02 1.439592e-02 1.410017e-02 1.415162e-02 1.432203e-02 1.387857e-02 1.458774e-02 1.360817e-02 1.493230e-02 1.336267e-02 1.551782e-02 1.317559e-02 1.706143e-02 1.124388e-02 4.791669e-03 -1.016740e-03 -3.644909e-03 -4.893434e-03 
-2.499757e-02 -2.347839e-02 -2.621639e-02 -2.399796e-02 -3.002904e-02 -1.973378e-02 -2.020772e-02 -2.417717e-02 -1.872042e-02 -2.257481e-02 -1.812374e-02 -1.947229e-02 -1.775019e-02 -1.822809e-02 -1.898937e-02 -1.868170e-02 -1.918752e-02 -1.896103e-02 -1.887195e-02 -1.937767e-02 -1.785073e-02 -1.959743e-02 -1.873578e-02 -2.051556e-02 -2.036451e-02 -2.097167e-02 -2.113898e-02 -2.104372e-02 -2.158416e-02 -2.098047e-02 -2.185717e-02 -2.087650e-02 -2.202370e-02 -2.080419e-02 -2.211141e-02 -2.076916e-02 -2.208241e-02 -2.073083e-02 -2.191111e-02 -2.067652e-02 -2.160697e-02 -2.058532e-02 -2.115219e-02 -2.038586e-02 -2.048283e-02 -1.994391e-02 -1.944380e-02 -1.899767e-02 -1.772232e-02 -1.712096e-02 -1.478610e-02 -1.357786e-02 -9.554509e-03 -6.827736e-03 4.109603e-04 6.742226e-03 1.997431e-02 2.469403e-02 1.796756e-02 1.876965e-02 1.830526e-02 1.321880e-02 1.479284e-02 1.037840e-02 8.515853e-03 7.106701e-03 3.429260e-03 2.084918e-03 -4.830939e-04 -2.390344e-03 -3.262501e-03 -6.899720e-03 -6.616513e-03 -9.126847e-03 -1.463002e-02 -1.470965e-02 -1.785053e-02 -1.748131e-02 -1.973446e-02 -1.920442e-02 -2.081714e-02 -2.034974e-02 -2.139888e-02 -2.116130e-02 -2.165085e-02 -2.176055e-02 -2.170554e-02 -2.222159e-02 -2.166085e-02 -2.256850e-02 -2.159108e-02 -2.282094e-02 -2.156965e-02 -2.297651e-02 -2.161583e-02 -2.299623e-02 -2.174071e-02 -2.288745e-02 -2.198177e-02 -2.266954e-02 -2.232350e-02 -2.233065e-02 -2.271850e-02 -2.189754e-02 -2.314734e-02 -2.144869e-02 -2.358555e-02 -2.106209e-02 -2.397438e-02 -2.080456e-02 -2.422575e-02 -2.071428e-02 -2.421833e-02 -2.082390e-02 -2.388355e-02 -2.123982e-02 -2.322498e-02 -2.207368e-02 -2.222507e-02 -2.345286e-02 -2.095201e-02 -2.582586e-02 -1.988632e-02 -3.137858e-02 -3.005698e-02 -2.691819e-02 -2.589399e-02 -2.431648e-02 
-3.029194e-02 -3.106572e-02 -3.296693e-02 -3.683783e-02 -4.147965e-02 -4.675327e-02 -4.128534e-02 -4.121085e-02 -4.039918e-02 -3.880310e-02 -3.816806e-02 -3.571004e-02 -3.505806e-02 -3.453390e-02 -3.494040e-02 -3.465030e-02 -3.484893e-02 -3.479570e-02 -3.469240e-02 -3.495039e-02 -3.450198e-02 -3.505361e-02 -3.683826e-02 -3.914558e-02 -3.909574e-02 -4.096259e-02 -4.023843e-02 -4.172447e-02 -4.094655e-02 -4.199398e-02 -4.143094e-02 -4.202182e-02 -4.178632e-02 -4.195671e-02 -4.205228e-02 -4.185613e-02 -4.220619e-02 -4.172114e-02 -4.222778e-02 -4.156112e-02 -4.211956e-02 -4.137152e-02 -4.186231e-02 -4.110420e-02 -4.140196e-02 -4.065945e-02 -4.061969e-02 -3.984326e-02 -3.929260e-02 -3.835357e-02 -3.707262e-02 -3.570640e-02 -3.331304e-02 -3.097836e-02 -2.673222e-02 -2.232660e-02 -1.539887e-02 -1.209870e-02 -1.667348e-02 -1.620901e-02 -1.597753e-02 -1.816363e-02 -1.593205e-02 -1.708231e-02 -1.544280e-02 -1.447969e-02 -1.309220e-02 -1.158383e-02 -9.120816e-03 -7.630831e-03 -6.880565e-03 -1.217171e-03 3.363820e-04 -8.459630e-03 -1.910727e-02 -2.383319e-02 -2.973156e-02 -3.171105e-02 -3.536748e-02 -3.615541e-02 -3.847037e-02 -3.880320e-02 -4.017203e-02 -4.045803e-02 -4.105899e-02 -4.153682e-02 -4.147511e-02 -4.227406e-02 -4.163034e-02 -4.279014e-02 -4.165920e-02 -4.315896e-02 -4.166344e-02 -4.341198e-02 -4.168637e-02 -4.353850e-02 -4.175411e-02 -4.355262e-02 -4.190565e-02 -4.347041e-02 -4.213713e-02 -4.328031e-02 -4.241890e-02 -4.299681e-02 -4.274215e-02 -4.267172e-02 -4.309575e-02 -4.235681e-02 -4.344431e-02 -4.209631e-02 -4.373119e-02 -4.191537e-02 -4.387717e-02 -4.184058e-02 -4.384881e-02 -4.196320e-02 -4.368413e-02 -4.239169e-02 -4.344814e-02 -4.323834e-02 -4.334293e-02 -4.466720e-02 -4.390832e-02 -4.594636e-02 -3.970794e-02 -3.448887e-02 -3.192357e-02 -3.048523e-02 
-3.774786e-02 -3.848614e-02 -3.920997e-02 -4.190672e-02 -4.349921e-02 -4.935178e-02 -4.689119e-02 -4.604872e-02 -4.721410e-02 -4.582052e-02 -4.700682e-02 -4.584200e-02 -4.621313e-02 -4.569067e-02 -4.610118e-02 -4.581293e-02 -4.600470e-02 -4.597280e-02 -4.583353e-02 -4.613820e-02 -4.563065e-02 -4.622919e-02 -4.623883e-02 -4.742303e-02 -4.643011e-02 -4.773817e-02 -4.655506e-02 -4.775423e-02 -4.669064e-02 -4.764236e-02 -4.683927e-02 -4.747808e-02 -4.698605e-02 -4.729881e-02 -4.710874e-02 -4.711724e-02 -4.717848e-02 -4.693027e-02 -4.717018e-02 -4.673043e-02 -4.706574e-02 -4.650289e-02 -4.684629e-02 -4.622136e-02 -4.649213e-02 -4.585472e-02 -4.599451e-02 -4.539039e-02 -4.539950e-02 -4.490878e-02 -4.492844e-02 -4.475447e-02 -4.524790e-02 -4.593835e-02 -4.821851e-02 -5.137933e-02 -5.805682e-02 -5.991601e-02 -5.254391e-02 -5.327294e-02 -5.174609e-02 -4.907074e-02 -5.024513e-02 -4.843376e-02 -4.818450e-02 -4.844897e-02 -4.753102e-02 -4.804725e-02 -4.826340e-02 -4.895829e-02 -5.093662e-02 -5.082371e-02 -5.356033e-02 -5.071310e-02 -4.777107e-02 -4.661297e-02 -4.636771e-02 -4.575150e-02 -4.627285e-02 -4.589735e-02 -4.655032e-02 -4.636173e-02 -4.684579e-02 -4.686214e-02 -4.704223e-02 -4.730293e-02 -4.713122e-02 -4.766427e-02 -4.714336e-02 -4.794863e-02 -4.711793e-02 -4.816326e-02 -4.709194e-02 -4.831056e-02 -4.709007e-02 -4.838708e-02 -4.712891e-02 -4.839433e-02 -4.722052e-02 -4.833635e-02 -4.736389e-02 -4.821663e-02 -4.754783e-02 -4.804776e-02 -4.775993e-02 -4.785383e-02 -4.798400e-02 -4.766280e-02 -4.819630e-02 -4.750157e-02 -4.836713e-02 -4.739277e-02 -4.846682e-02 -4.735838e-02 -4.848362e-02 -4.742526e-02 -4.843275e-02 -4.760272e-02 -4.834732e-02 -4.782847e-02 -4.826175e-02 -4.781219e-02 -4.810630e-02 -4.602406e-02 -4.237342e-02 -4.030255e-02 -3.868681e-02 -3.806191e-02 
-3.756856e-02 -3.839846e-02 -3.873089e-02 -4.060520e-02 -4.132626e-02 -4.384809e-02 -4.390071e-02 -4.515736e-02 -4.595524e-02 -4.708194e-02 -4.874208e-02 -5.038409e-02 -5.238091e-02 -5.211251e-02 -5.230111e-02 -5.213569e-02 -5.222444e-02 -5.219730e-02 -5.215639e-02 -5.227552e-02 -5.212003e-02 -5.234352e-02 -4.895516e-02 -4.842862e-02 -4.622630e-02 -4.661223e-02 -4.509585e-02 -4.574900e-02 -4.464739e-02 -4.527380e-02 -4.451901e-02 -4.497146e-02 -4.453869e-02 -4.475717e-02 -4.461553e-02 -4.459563e-02 -4.469420e-02 -4.446906e-02 -4.474105e-02 -4.436787e-02 -4.473807e-02 -4.428392e-02 -4.467653e-02 -4.420789e-02 -4.455747e-02 -4.413579e-02 -4.440209e-02 -4.408949e-02 -4.428544e-02 -4.417291e-02 -4.442130e-02 -4.469351e-02 -4.533616e-02 -4.640417e-02 -4.826051e-02 -5.116200e-02 -5.563525e-02 -5.783735e-02 -5.302642e-02 -5.348011e-02 -5.304966e-02 -5.183618e-02 -5.303737e-02 -5.249078e-02 -5.323136e-02 -5.396352e-02 -5.446656e-02 -5.501042e-02 -5.607347e-02 -5.571539e-02 -5.484248e-02 -5.699104e-02 -5.935372e-02 -5.379724e-02 -4.913241e-02 -4.654291e-02 -4.546367e-02 -4.435070e-02 -4.440494e-02 -4.387879e-02 -4.423240e-02 -4.403961e-02 -4.431525e-02 -4.439129e-02 -4.441651e-02 -4.476246e-02 -4.446910e-02 -4.509325e-02 -4.447366e-02 -4.536495e-02 -4.445395e-02 -4.557237e-02 -4.443788e-02 -4.571186e-02 -4.444721e-02 -4.577919e-02 -4.449768e-02 -4.577503e-02 -4.459956e-02 -4.570399e-02 -4.475232e-02 -4.557314e-02 -4.494569e-02 -4.539701e-02 -4.516476e-02 -4.519931e-02 -4.539003e-02 -4.500861e-02 -4.559625e-02 -4.485336e-02 -4.575348e-02 -4.475697e-02 -4.583073e-02 -4.473482e-02 -4.580318e-02 -4.478678e-02 -4.564713e-02 -4.486530e-02 -4.531084e-02 -4.481788e-02 -4.466907e-02 -4.431538e-02 -4.344734e-02 -4.254943e-02 -4.059701e-02 -3.954772e-02 -3.824604e-02 -3.800817e-02 
-4.073357e-02 -4.152955e-02 -4.169823e-02 -4.348370e-02 -4.391317e-02 -4.624590e-02 -4.641110e-02 -4.751238e-02 -4.861170e-02 -4.945333e-02 -5.134418e-02 -5.280017e-02 -5.481073e-02 -5.450470e-02 -5.473127e-02 -5.454927e-02 -5.464088e-02 -5.463822e-02 -5.454495e-02 -5.473583e-02 -5.448106e-02 -5.480122e-02 -5.112821e-02 -5.067714e-02 -4.846083e-02 -4.896981e-02 -4.746905e-02 -4.823151e-02 -4.712205e-02 -4.784220e-02 -4.705183e-02 -4.759183e-02 -4.710267e-02 -4.741030e-02 -4.720269e-02 -4.727828e-02 -4.731590e-02 -4.719363e-02 -4.742517e-02 -4.716069e-02 -4.752789e-02 -4.718947e-02 -4.763764e-02 -4.730041e-02 -4.779034e-02 -4.753448e-02 -4.805560e-02 -4.796944e-02 -4.855482e-02 -4.874412e-02 -4.948567e-02 -5.008576e-02 -5.113382e-02 -5.229913e-02 -5.379236e-02 -5.563921e-02 -5.751156e-02 -5.955481e-02 -5.923833e-02 -5.958414e-02 -5.926809e-02 -5.852861e-02 -5.815749e-02 -5.723350e-02 -5.661821e-02 -5.592982e-02 -5.535652e-02 -5.474574e-02 -5.467320e-02 -5.402679e-02 -5.434542e-02 -5.412514e-02 -5.448306e-02 -5.289028e-02 -5.219216e-02 -5.095858e-02 -5.058752e-02 -4.961909e-02 -4.947979e-02 -4.878168e-02 -4.875319e-02 -4.832529e-02 -4.827363e-02 -4.811761e-02 -4.794128e-02 -4.805924e-02 -4.769654e-02 -4.808229e-02 -4.750976e-02 -4.814134e-02 -4.736987e-02 -4.820497e-02 -4.727510e-02 -4.825055e-02 -4.722748e-02 -4.826287e-02 -4.722993e-02 -4.823401e-02 -4.728369e-02 -4.816250e-02 -4.738543e-02 -4.805214e-02 -4.752585e-02 -4.791192e-02 -4.769048e-02 -4.775650e-02 -4.786179e-02 -4.760556e-02 -4.802062e-02 -4.748024e-02 -4.814666e-02 -4.739767e-02 -4.821928e-02 -4.736386e-02 -4.821667e-02 -4.736024e-02 -4.810552e-02 -4.731590e-02 -4.781127e-02 -4.706179e-02 -4.716466e-02 -4.629762e-02 -4.585293e-02 -4.463121e-02 -4.329969e-02 -4.233153e-02 -4.131973e-02 -4.112809e-02 
-3.756931e-02 -3.839917e-02 -3.873147e-02 -4.060610e-02 -4.132664e-02 -4.384922e-02 -4.390106e-02 -4.515701e-02 -4.595528e-02 -4.708053e-02 -4.874153e-02 -5.038270e-02 -5.238071e-02 -5.211249e-02 -5.230099e-02 -5.213594e-02 -5.222444e-02 -5.219789e-02 -5.215661e-02 -5.227639e-02 -5.212061e-02 -5.234424e-02 -4.895831e-02 -4.843536e-02 -4.623442e-02 -4.662431e-02 -4.511320e-02 -4.576782e-02 -4.467832e-02 -4.530203e-02 -4.456919e-02 -4.501462e-02 -4.461548e-02 -4.482460e-02 -4.473222e-02 -4.470808e-02 -4.487836e-02 -4.466354e-02 -4.503473e-02 -4.469493e-02 -4.519699e-02 -4.481172e-02 -4.537977e-02 -4.503521e-02 -4.562169e-02 -4.540593e-02 -4.599123e-02 -4.599041e-02 -4.658757e-02 -4.688118e-02 -4.753570e-02 -4.819341e-02 -4.897111e-02 -5.003106e-02 -5.095089e-02 -5.233251e-02 -5.318029e-02 -5.445187e-02 -5.431802e-02 -5.503705e-02 -5.493869e-02 -5.516617e-02 -5.524401e-02 -5.531614e-02 -5.544568e-02 -5.551073e-02 -5.566966e-02 -5.558847e-02 -5.576359e-02 -5.539851e-02 -5.536189e-02 -5.471997e-02 -5.457648e-02 -5.290453e-02 -5.207373e-02 -5.043997e-02 -4.980972e-02 -4.849320e-02 -4.813317e-02 -4.718565e-02 -4.697719e-02 -4.639704e-02 -4.619444e-02 -4.597460e-02 -4.565786e-02 -4.578922e-02 -4.527869e-02 -4.574444e-02 -4.500548e-02 -4.577342e-02 -4.481274e-02 -4.582673e-02 -4.468691e-02 -4.586659e-02 -4.462302e-02 -4.586905e-02 -4.462223e-02 -4.582248e-02 -4.468622e-02 -4.572536e-02 -4.481284e-02 -4.558327e-02 -4.499036e-02 -4.540463e-02 -4.519631e-02 -4.520392e-02 -4.540582e-02 -4.500746e-02 -4.559624e-02 -4.484765e-02 -4.574315e-02 -4.475285e-02 -4.581976e-02 -4.473925e-02 -4.579734e-02 -4.479876e-02 -4.564342e-02 -4.487885e-02 -4.530621e-02 -4.483058e-02 -4.466418e-02 -4.432623e-02 -4.344334e-02 -4.255488e-02 -4.059666e-02 -3.954991e-02 -3.824666e-02 -3.800913e-02 
-3.775019e-02 -3.848701e-02 -3.921203e-02 -4.190850e-02 -4.350100e-02 -4.935491e-02 -4.689176e-02 -4.604504e-02 -4.721352e-02 -4.581448e-02 -4.700491e-02 -4.583691e-02 -4.621212e-02 -4.569062e-02 -4.610140e-02 -4.581351e-02 -4.600469e-02 -4.597452e-02 -4.583369e-02 -4.614094e-02 -4.563217e-02 -4.623181e-02 -4.625568e-02 -4.744574e-02 -4.646655e-02 -4.778112e-02 -4.661941e-02 -4.782176e-02 -4.679320e-02 -4.774256e-02 -4.699518e-02 -4.762661e-02 -4.721539e-02 -4.752006e-02 -4.744419e-02 -4.745889e-02 -4.768169e-02 -4.747276e-02 -4.793145e-02 -4.758048e-02 -4.820108e-02 -4.779959e-02 -4.851337e-02 -4.815704e-02 -4.891184e-02 -4.869492e-02 -4.946265e-02 -4.946956e-02 -5.024136e-02 -5.053056e-02 -5.130464e-02 -5.189695e-02 -5.266563e-02 -5.352852e-02 -5.424653e-02 -5.525942e-02 -5.580389e-02 -5.673294e-02 -5.691556e-02 -5.745717e-02 -5.736475e-02 -5.751793e-02 -5.728457e-02 -5.717106e-02 -5.692562e-02 -5.665344e-02 -5.650476e-02 -5.611977e-02 -5.612347e-02 -5.560950e-02 -5.571184e-02 -5.501512e-02 -5.502606e-02 -5.394074e-02 -5.379491e-02 -5.260640e-02 -5.244733e-02 -5.133475e-02 -5.120811e-02 -5.029178e-02 -5.017581e-02 -4.953021e-02 -4.936457e-02 -4.903168e-02 -4.874597e-02 -4.874212e-02 -4.827778e-02 -4.859958e-02 -4.792711e-02 -4.855162e-02 -4.767312e-02 -4.855026e-02 -4.749767e-02 -4.855270e-02 -4.739055e-02 -4.853120e-02 -4.735065e-02 -4.847137e-02 -4.737929e-02 -4.837005e-02 -4.747625e-02 -4.823145e-02 -4.763069e-02 -4.805877e-02 -4.781754e-02 -4.785966e-02 -4.801157e-02 -4.765878e-02 -4.819458e-02 -4.749039e-02 -4.834676e-02 -4.738595e-02 -4.844629e-02 -4.736904e-02 -4.847382e-02 -4.745104e-02 -4.842726e-02 -4.763183e-02 -4.833979e-02 -4.785670e-02 -4.825276e-02 -4.783781e-02 -4.809657e-02 -4.603047e-02 -4.237282e-02 -4.030406e-02 -3.868873e-02 -3.806255e-02 
-3.029527e-02 -3.106592e-02 -3.296867e-02 -3.684027e-02 -4.147978e-02 -4.676159e-02 -4.128941e-02 -4.121132e-02 -4.040148e-02 -3.879645e-02 -3.816325e-02 -3.570116e-02 -3.505676e-02 -3.453355e-02 -3.493994e-02 -3.465082e-02 -3.484862e-02 -3.479780e-02 -3.469262e-02 -3.495471e-02 -3.450592e-02 -3.506044e-02 -3.682989e-02 -3.915430e-02 -3.909255e-02 -4.098616e-02 -4.026848e-02 -4.176725e-02 -4.101497e-02 -4.205553e-02 -4.155101e-02 -4.211238e-02 -4.196078e-02 -4.207111e-02 -4.228418e-02 -4.203255e-02 -4.257192e-02 -4.207359e-02 -4.284639e-02 -4.221072e-02 -4.310029e-02 -4.244295e-02 -4.334659e-02 -4.278331e-02 -4.362419e-02 -4.326840e-02 -4.401652e-02 -4.397212e-02 -4.462020e-02 -4.493246e-02 -4.546295e-02 -4.611806e-02 -4.652616e-02 -4.747374e-02 -4.775301e-02 -4.887134e-02 -4.897559e-02 -5.008127e-02 -5.001212e-02 -5.096129e-02 -5.080196e-02 -5.152663e-02 -5.138620e-02 -5.185490e-02 -5.179866e-02 -5.198991e-02 -5.202380e-02 -5.190548e-02 -5.199397e-02 -5.152914e-02 -5.163523e-02 -5.080812e-02 -5.084629e-02 -4.957331e-02 -4.951022e-02 -4.806253e-02 -4.800307e-02 -4.661963e-02 -4.660125e-02 -4.544943e-02 -4.542682e-02 -4.461289e-02 -4.449760e-02 -4.409028e-02 -4.378248e-02 -4.380964e-02 -4.322151e-02 -4.368827e-02 -4.278795e-02 -4.368281e-02 -4.248086e-02 -4.373402e-02 -4.226715e-02 -4.376573e-02 -4.212876e-02 -4.374218e-02 -4.207621e-02 -4.364856e-02 -4.212038e-02 -4.348954e-02 -4.228008e-02 -4.328646e-02 -4.254591e-02 -4.302955e-02 -4.285269e-02 -4.270196e-02 -4.314970e-02 -4.235189e-02 -4.342926e-02 -4.205583e-02 -4.366803e-02 -4.187461e-02 -4.382705e-02 -4.185564e-02 -4.384780e-02 -4.201939e-02 -4.368855e-02 -4.243690e-02 -4.343322e-02 -4.327432e-02 -4.332575e-02 -4.470542e-02 -4.388960e-02 -4.595716e-02 -3.971753e-02 -3.448724e-02 -3.192837e-02 -3.048401e-02 
-2.500471e-02 -2.347715e-02 -2.622048e-02 -2.399934e-02 -3.003102e-02 -1.974207e-02 -2.022376e-02 -2.419745e-02 -1.873907e-02 -2.258867e-02 -1.813307e-02 -1.947682e-02 -1.775968e-02 -1.823186e-02 -1.899667e-02 -1.868322e-02 -1.918765e-02 -1.896546e-02 -1.887129e-02 -1.938746e-02 -1.785896e-02 -1.957468e-02 -1.873085e-02 -2.050165e-02 -2.037584e-02 -2.099200e-02 -2.121121e-02 -2.111032e-02 -2.172716e-02 -2.109517e-02 -2.208825e-02 -2.104979e-02 -2.234160e-02 -2.101840e-02 -2.250875e-02 -2.105745e-02 -2.264358e-02 -2.122073e-02 -2.277010e-02 -2.149666e-02 -2.287409e-02 -2.185799e-02 -2.296502e-02 -2.229751e-02 -2.307852e-02 -2.283641e-02 -2.330005e-02 -2.354340e-02 -2.372660e-02 -2.444198e-02 -2.436615e-02 -2.547862e-02 -2.518684e-02 -2.660536e-02 -2.614987e-02 -2.772886e-02 -2.710480e-02 -2.861344e-02 -2.774460e-02 -2.896566e-02 -2.810603e-02 -2.892765e-02 -2.818329e-02 -2.861426e-02 -2.802981e-02 -2.809816e-02 -2.774379e-02 -2.741969e-02 -2.733861e-02 -2.663097e-02 -2.680664e-02 -2.579964e-02 -2.624389e-02 -2.513670e-02 -2.568261e-02 -2.448761e-02 -2.505141e-02 -2.389182e-02 -2.442058e-02 -2.343763e-02 -2.384476e-02 -2.315419e-02 -2.334175e-02 -2.303382e-02 -2.291176e-02 -2.302776e-02 -2.252963e-02 -2.307709e-02 -2.221080e-02 -2.316968e-02 -2.199490e-02 -2.326285e-02 -2.186653e-02 -2.328236e-02 -2.182005e-02 -2.320081e-02 -2.187839e-02 -2.301234e-02 -2.205643e-02 -2.273347e-02 -2.237440e-02 -2.240231e-02 -2.281155e-02 -2.201564e-02 -2.326997e-02 -2.156103e-02 -2.366969e-02 -2.111329e-02 -2.398808e-02 -2.078425e-02 -2.418197e-02 -2.066311e-02 -2.418788e-02 -2.081624e-02 -2.390993e-02 -2.126064e-02 -2.325076e-02 -2.206177e-02 -2.222276e-02 -2.342170e-02 -2.095140e-02 -2.580257e-02 -1.989113e-02 -3.137932e-02 -3.008546e-02 -2.691100e-02 -2.590648e-02 -2.431257e-02 
-5.618964e-03 -3.446069e-03 -2.834422e-03 4.288849e-03 6.453207e-03 2.134471e-02 1.544923e-02 1.193398e-02 1.727984e-02 1.096934e-02 1.730964e-02 1.096773e-02 1.784590e-02 1.329533e-02 1.926543e-02 1.590997e-02 1.892001e-02 1.706347e-02 1.776543e-02 1.745515e-02 1.526467e-02 1.642159e-02 1.320944e-02 1.578422e-02 1.289182e-02 1.551939e-02 1.284948e-02 1.532023e-02 1.295765e-02 1.513555e-02 1.314937e-02 1.494667e-02 1.338377e-02 1.475430e-02 1.363817e-02 1.458153e-02 1.391190e-02 1.445726e-02 1.419778e-02 1.438847e-02 1.447719e-02 1.437549e-02 1.474165e-02 1.442299e-02 1.499338e-02 1.454207e-02 1.525373e-02 1.475597e-02 1.554807e-02 1.506428e-02 1.586628e-02 1.542707e-02 1.617516e-02 1.579047e-02 1.643021e-02 1.607741e-02 1.656683e-02 1.622114e-02 1.663001e-02 1.630132e-02 1.653290e-02 1.621050e-02 1.632042e-02 1.598189e-02 1.607689e-02 1.574078e-02 1.588475e-02 1.562261e-02 1.585592e-02 1.568694e-02 1.602423e-02 1.586608e-02 1.610640e-02 1.570767e-02 1.586493e-02 1.537157e-02 1.551154e-02 1.502121e-02 1.516709e-02 1.473270e-02 1.487378e-02 1.452949e-02 1.463735e-02 1.441287e-02 1.444896e-02 1.436683e-02 1.428764e-02 1.437095e-02 1.414635e-02 1.442113e-02 1.402744e-02 1.450145e-02 1.391532e-02 1.458371e-02 1.380119e-02 1.465568e-02 1.369171e-02 1.471171e-02 1.359702e-02 1.475184e-02 1.353583e-02 1.478043e-02 1.351870e-02 1.478268e-02 1.353390e-02 1.473558e-02 1.357955e-02 1.464268e-02 1.367487e-02 1.451708e-02 1.382935e-02 1.436263e-02 1.404100e-02 1.417822e-02 1.429215e-02 1.395196e-02 1.456443e-02 1.369469e-02 1.489966e-02 1.345274e-02 1.547940e-02 1.326308e-02 1.701746e-02 1.127577e-02 4.777902e-03 -1.001057e-03 -3.653627e-03 -4.885139e-03 
-3.960347e-03 -3.901681e-03 -1.168568e-03 1.113490e-03 7.783509e-03 7.232989e-03 4.687076e-03 6.501218e-03 3.903381e-03 3.936991e-03 1.890260e-03 -9.537565e-04 -3.051461e-03 -7.702303e-03 -8.349593e-03 -1.101411e-02 -9.853210e-03 -1.114724e-02 -9.873968e-03 -8.274267e-03 -8.041787e-03 -1.695365e-03 -1.523675e-03 3.331559e-03 2.495979e-03 5.507455e-03 4.391538e-03 6.284421e-03 5.422758e-03 6.456995e-03 6.077125e-03 6.383096e-03 6.533395e-03 6.225888e-03 6.860159e-03 6.099311e-03 7.122875e-03 6.084942e-03 7.341786e-03 6.182146e-03 7.493613e-03 6.366207e-03 7.580054e-03 6.628883e-03 7.633761e-03 6.991615e-03 7.747619e-03 7.532319e-03 8.043196e-03 8.300880e-03 8.578640e-03 9.300830e-03 9.410471e-03 1.058384e-02 1.061875e-02 1.216749e-02 1.210549e-02 1.374174e-02 1.311911e-02 1.446818e-02 1.400243e-02 1.491600e-02 1.465361e-02 1.518749e-02 1.494055e-02 1.505260e-02 1.479747e-02 1.418218e-02 1.391465e-02 1.247564e-02 1.218366e-02 1.024749e-02 1.063248e-02 9.230541e-03 1.000416e-02 8.691073e-03 9.559332e-03 8.280417e-03 9.112991e-03 7.996704e-03 8.665927e-03 7.860483e-03 8.235624e-03 7.871911e-03 7.833385e-03 7.988671e-03 7.445059e-03 8.154666e-03 7.096929e-03 8.358830e-03 6.838541e-03 8.555901e-03 6.660901e-03 8.666209e-03 6.563693e-03 8.657903e-03 6.575853e-03 8.522261e-03 6.718436e-03 8.274734e-03 7.017934e-03 7.953782e-03 7.458433e-03 7.556023e-03 7.944360e-03 7.069033e-03 8.397897e-03 6.569714e-03 8.798675e-03 6.171310e-03 9.103138e-03 5.961387e-03 9.245909e-03 6.001791e-03 9.129199e-03 6.298312e-03 8.653122e-03 6.886757e-03 7.819679e-03 7.875653e-03 6.707512e-03 9.443868e-03 5.678014e-03 1.197261e-02 6.957274e-03 8.547600e-04 -1.870356e-03 -3.970993e-03 
-3.173102e-04 -1.125503e-03 7.347276e-04 -8.826262e-04 2.553626e-03 -4.777815e-03 -4.058919e-03 3.862020e-04 -4.722893e-03 8.571255e-04 -4.202871e-03 1.064718e-03 -4.203814e-03 -7.006987e-04 -5.817276e-03 -3.171706e-03 -5.638058e-03 -4.110515e-03 -4.708118e-03 -4.257526e-03 -2.432895e-03 -3.037992e-03 -1.218130e-03 -2.222726e-03 -1.367823e-03 -1.940650e-03 -1.280484e-03 -1.820517e-03 -1.090123e-03 -1.817408e-03 -8.707145e-04 -1.864011e-03 -6.671405e-04 -1.909980e-03 -5.043625e-04 -1.907895e-03 -3.801306e-04 -1.821536e-03 -2.932400e-04 -1.647700e-03 -2.470800e-04 -1.393145e-03 -2.245319e-04 -1.055134e-03 -1.837532e-04 -6.107974e-04 -4.540169e-05 -2.496699e-06 2.967790e-04 8.363213e-04 9.446611e-04 1.980115e-03 2.013830e-03 3.531407e-03 3.595122e-03 5.529105e-03 5.590154e-03 7.522779e-03 6.220417e-03 7.423497e-03 6.414505e-03 6.706890e-03 5.939023e-03 5.774319e-03 4.989061e-03 4.625263e-03 4.020191e-03 3.272827e-03 3.204441e-03 2.080689e-03 2.399082e-03 6.418767e-04 1.386590e-03 1.590459e-04 9.567850e-04 -2.803296e-04 5.669404e-04 -5.961995e-04 2.793885e-04 -6.894384e-04 6.196091e-05 -6.023486e-04 -1.330791e-04 -3.923137e-04 -3.301544e-04 -1.198813e-04 -5.391072e-04 1.620997e-04 -7.376539e-04 4.263078e-04 -8.865767e-04 6.368443e-04 -9.681484e-04 7.470487e-04 -9.653928e-04 7.328534e-04 -8.545886e-04 5.880911e-04 -6.212159e-04 3.246196e-04 -2.606696e-04 -3.003519e-05 2.013302e-04 -4.555080e-04 6.974755e-04 -9.233898e-04 1.160187e-03 -1.360293e-03 1.539766e-03 -1.673065e-03 1.775575e-03 -1.780548e-03 1.800426e-03 -1.619978e-03 1.545902e-03 -1.163799e-03 9.602453e-04 -4.025037e-04 3.330826e-05 6.319205e-04 -1.296083e-03 1.747191e-03 -3.491001e-03 3.210328e-03 1.731500e-03 1.008659e-03 2.606698e-05 -6.549358e-04 
