# vtk DataFile Version 2.0
Comment goes here
ASCII

DATASET STRUCTURED_POINTS
FIELD FieldData 1
TIME 1 1 double
0.77000000
DIMENSIONS    128   16   1

ORIGIN    0.000   0.000   0.000
SPACING   0.0078125 0.015625   1.000

POINT_DATA   2048
SCALARS uY double
LOOKUP_TABLE default

-1.676607e-06 -2.713316e-06 -1.044784e-06 -1.055392e-06 -1.113639e-06 5.153291e-07 -4.136381e-07 1.262447e-06 7.071424e-07 2.428394e-06 2.429692e-06 1.881881e-06 4.018167e-06 -1.633858e-06 8.248102e-06 -4.587082e-06 8.440228e-06 -6.511215e-06 3.324849e-06 -6.855022e-06 -4.673316e-06 -1.174687e-05 -8.978032e-06 -1.441991e-05 -2.169765e-05 -1.978730e-05 -3.795485e-05 -2.439798e-05 -5.738957e-05 -3.103176e-05 -8.237334e-05 -4.292364e-05 -1.132894e-04 -6.297082e-05 -1.531722e-04 -9.879687e-05 -2.081534e-04 -1.579854e-04 -2.847401e-04 -2.529354e-04 -3.986224e-04 -4.028164e-04 -5.666436e-04 -6.237563e-04 -8.064982e-04 -9.385323e-04 -1.146958e-03 -1.377566e-03 -1.620091e-03 -1.965631e-03 -2.245090e-03 -2.691783e-03 -2.974588e-03 -3.395255e-03 -3.526536e-03 -3.656477e-03 -3.614463e-03 -2.156664e-03 4.813999e-04 4.673192e-04 1.941264e-03 2.869866e-03 3.456915e-03 4.073076e-03 4.510086e-03 4.682918e-03 4.845640e-03 4.273235e-03 3.849817e-03 2.598435e-03 2.634348e-03 2.438393e-03 1.064607e-03 2.905900e-04 -2.937922e-04 -3.975643e-04 -7.487319e-04 -5.926947e-04 -8.075118e-04 -5.180180e-04 -6.965074e-04 -3.805264e-04 -5.494504e-04 -2.582982e-04 -4.146470e-04 -1.726633e-04 -3.069665e-04 -1.237829e-04 -2.245470e-04 -9.692857e-05 -1.539620e-04 -7.620553e-05 -9.016697e-05 -5.978153e-05 -3.919526e-05 -5.208947e-05 -6.697486e-06 -5.410535e-05 8.323091e-06 -6.064966e-05 1.327027e-05 -6.179727e-05 1.919680e-05 -4.977916e-05 2.805072e-05 -3.204050e-05 2.991703e-05 -1.865610e-05 2.214471e-05 -1.046044e-05 7.848047e-06 -5.949564e-06 -7.107240e-06 4.865516e-08 -1.623092e-05 7.751413e-06 -2.147771e-05 1.112760e-05 -2.558510e-05 8.122786e-06 -2.573741e-05 3.304042e-08 -2.008991e-05 -1.317986e-05 -1.006013e-05 -7.838296e-06 -3.936746e-06 -4.785748e-06 
-7.601927e-04 -1.090701e-03 -2.902001e-03 -1.470068e-03 -3.024030e-03 6.208654e-03 1.422775e-03 -5.551946e-03 -3.318507e-03 -8.663867e-03 -9.454699e-03 -1.821060e-02 -2.349698e-02 -2.497005e-02 -1.150905e-02 -7.205332e-03 -2.866545e-03 2.640995e-03 6.661270e-03 1.194648e-02 2.500988e-02 2.471395e-02 1.584998e-02 1.050649e-02 6.353453e-03 4.379447e-03 2.589446e-03 1.871706e-03 9.720828e-04 8.343284e-04 2.581171e-04 4.233768e-04 -6.894031e-05 2.712616e-04 -2.268555e-04 2.142756e-04 -3.067230e-04 1.835109e-04 -3.433208e-04 1.463548e-04 -3.635075e-04 7.652563e-05 -3.909440e-04 -4.119101e-05 -4.465363e-04 -2.269353e-04 -5.674034e-04 -5.222002e-04 -8.170815e-04 -1.008850e-03 -1.313164e-03 -1.854056e-03 -2.270619e-03 -3.386931e-03 -4.376853e-03 -7.863218e-03 -1.121141e-02 -3.075428e-03 4.713916e-03 -1.765125e-03 -6.281419e-04 2.172843e-03 7.578334e-04 1.570620e-03 1.550866e-03 1.783605e-03 3.773016e-03 4.500275e-03 6.827424e-03 1.197804e-02 2.214998e-02 1.298042e-02 -8.685515e-03 -1.326280e-02 -8.090602e-03 -4.495048e-03 -2.411307e-03 -1.179562e-03 -6.819063e-04 -7.150832e-05 -1.234207e-04 3.018193e-04 1.099037e-05 4.000628e-04 -1.109321e-05 3.995074e-04 -8.445493e-05 3.675144e-04 -1.598315e-04 3.352586e-04 -2.060493e-04 3.105454e-04 -2.162251e-04 2.779930e-04 -1.962857e-04 2.209003e-04 -1.488285e-04 1.312035e-04 -7.349661e-05 8.894085e-06 3.073452e-05 -1.345947e-04 1.674273e-04 -2.802299e-04 3.273192e-04 -4.204996e-04 4.811223e-04 -5.487407e-04 6.008842e-04 -6.463061e-04 6.624243e-04 -6.855389e-04 6.502780e-04 -6.209160e-04 5.556433e-04 -3.914484e-04 3.604871e-04 1.182784e-04 4.866976e-05 1.228015e-03 -3.435022e-04 4.159545e-03 -4.622542e-03 -5.457968e-04 1.616044e-03 1.271395e-03 1.235658e-03 3.039574e-04 
-1.365170e-03 -3.096881e-03 -6.092042e-03 -6.371376e-03 -8.855918e-03 2.053131e-02 1.024555e-02 -8.960348e-03 2.153604e-03 -8.488544e-03 4.190539e-04 -1.068473e-02 1.852398e-03 8.240461e-03 5.787696e-03 1.488714e-03 1.518336e-03 -9.381078e-04 -2.559796e-03 -4.118154e-03 -9.625971e-03 1.803229e-03 5.017210e-03 2.385796e-03 2.438799e-03 1.044660e-03 1.177460e-03 5.388754e-04 4.832050e-04 3.427679e-04 4.653676e-05 2.841397e-04 -2.459080e-04 2.755979e-04 -4.553138e-04 2.514608e-04 -6.163035e-04 1.977085e-04 -7.204385e-04 1.071412e-04 -8.083073e-04 -7.103365e-05 -9.318569e-04 -3.583935e-04 -1.129375e-03 -8.011441e-04 -1.498204e-03 -1.513078e-03 -2.208822e-03 -2.718853e-03 -3.592217e-03 -4.884530e-03 -6.275054e-03 -8.930383e-03 -1.189543e-02 -1.888704e-02 -2.546079e-02 -7.542077e-03 1.153291e-02 1.601171e-03 2.850426e-03 7.520780e-03 5.835595e-03 8.310369e-03 9.218361e-03 1.070073e-02 1.273337e-02 1.333927e-02 1.584966e-02 1.458768e-02 2.265390e-02 1.862948e-02 -2.373791e-03 -1.258730e-02 -1.126148e-02 -8.326357e-03 -5.769149e-03 -4.106347e-03 -3.134538e-03 -2.128371e-03 -1.843540e-03 -1.070465e-03 -1.187433e-03 -4.775461e-04 -8.783309e-04 -1.309143e-04 -7.615034e-04 7.339043e-05 -7.352083e-04 2.151617e-04 -7.032114e-04 3.292404e-04 -6.424350e-04 3.812557e-04 -5.587713e-04 3.488115e-04 -4.369891e-04 2.306078e-04 -2.655495e-04 2.519825e-05 -4.652416e-05 -2.457288e-04 2.395386e-04 -5.253100e-04 5.861894e-04 -8.018596e-04 9.237143e-04 -1.065385e-03 1.203168e-03 -1.272087e-03 1.373474e-03 -1.377828e-03 1.407746e-03 -1.287787e-03 1.310463e-03 -9.050872e-04 1.035084e-03 -7.315281e-05 4.857436e-04 1.795202e-03 -7.226034e-04 7.340141e-03 -1.595905e-02 4.580071e-04 8.867797e-03 2.286025e-03 2.971489e-03 -1.877969e-04 
-1.759359e-03 -7.948933e-03 -1.596739e-02 -2.460538e-02 -3.579205e-02 9.175115e-03 8.764598e-03 -3.576402e-03 6.422926e-03 -1.514258e-03 6.507566e-03 2.272607e-03 5.577694e-03 -6.266347e-03 6.101226e-04 -2.367963e-03 7.022261e-04 -8.000572e-04 1.127190e-03 6.990274e-04 3.098629e-03 -3.460250e-03 -4.218854e-03 -2.747501e-03 -2.008599e-03 -1.532735e-03 -1.075944e-03 -9.154410e-04 -7.237681e-04 -4.850192e-04 -6.504605e-04 -1.471225e-04 -6.924982e-04 1.300953e-04 -7.805555e-04 3.074981e-04 -8.793459e-04 4.264165e-04 -8.824586e-04 5.292861e-04 -8.129882e-04 5.529842e-04 -7.050321e-04 5.409270e-04 -5.112933e-04 5.451027e-04 -2.357708e-04 5.982169e-04 1.392812e-04 7.646443e-04 6.447537e-04 1.127514e-03 1.380095e-03 1.932671e-03 2.864667e-03 4.622394e-03 6.804774e-03 4.428452e-05 -2.588940e-03 1.113203e-03 4.077354e-04 -2.732862e-03 -1.673674e-03 -4.051164e-03 -3.784037e-03 -5.865206e-03 -6.492982e-03 -8.550876e-03 -9.053916e-03 -1.106568e-02 -1.762730e-02 -1.279055e-02 6.777087e-03 1.312635e-02 9.959077e-03 7.035638e-03 4.758167e-03 3.590420e-03 2.346687e-03 1.980089e-03 1.161014e-03 1.256035e-03 5.196580e-04 9.187319e-04 8.322818e-05 7.566915e-04 -2.766206e-04 6.619188e-04 -5.778590e-04 6.523858e-04 -7.305285e-04 7.275814e-04 -7.614865e-04 7.651274e-04 -7.304081e-04 7.002984e-04 -6.236974e-04 5.243402e-04 -4.309597e-04 2.174968e-04 -1.706489e-04 -1.943575e-04 2.067042e-04 -5.995724e-04 7.072096e-04 -1.000765e-03 1.195750e-03 -1.408118e-03 1.601221e-03 -1.760622e-03 1.839239e-03 -2.020837e-03 1.874369e-03 -2.051061e-03 1.739381e-03 -1.776912e-03 1.321980e-03 -1.206327e-03 3.574055e-04 -9.618325e-05 -2.065389e-03 3.113714e-03 -1.510899e-02 3.208291e-02 3.645503e-02 1.611838e-02 1.135750e-02 2.976951e-03 
-2.131578e-03 -9.435806e-03 -1.697911e-02 -2.791075e-02 -3.927777e-02 -2.409441e-02 -8.035778e-03 -7.796555e-04 5.279509e-04 -3.545939e-03 4.921780e-05 -5.696085e-03 -1.896172e-03 -1.446893e-04 1.387992e-04 -3.952599e-04 2.189780e-04 -2.450474e-04 2.083068e-04 1.419457e-05 5.536625e-05 2.716123e-03 3.495561e-03 1.155435e-03 1.956259e-03 5.622730e-05 1.175814e-03 -2.834283e-04 6.975202e-04 -2.913602e-04 3.310875e-04 -1.589451e-04 2.792564e-05 2.279029e-05 -2.333267e-04 1.720837e-04 -4.560177e-04 2.926645e-04 -5.758476e-04 4.009782e-04 -6.138972e-04 4.437931e-04 -5.978188e-04 4.475532e-04 -4.966751e-04 4.490788e-04 -3.139420e-04 4.767501e-04 -3.143314e-05 5.915398e-04 3.940037e-04 8.872875e-04 1.083307e-03 1.577283e-03 2.329451e-03 3.082907e-03 4.726032e-03 3.332529e-03 -2.103792e-03 -4.123872e-03 -1.428485e-03 -1.828602e-03 -1.163548e-04 -2.616114e-04 1.019935e-03 1.308733e-03 3.082699e-03 3.983172e-03 5.323071e-03 7.138094e-03 1.415607e-02 7.839803e-03 -9.003357e-03 -1.300993e-02 -8.991425e-03 -6.021588e-03 -4.528616e-03 -3.240319e-03 -2.602329e-03 -1.784051e-03 -1.552123e-03 -9.252076e-04 -9.982671e-04 -4.206346e-04 -7.560500e-04 -1.187915e-04 -7.031104e-04 5.890732e-05 -7.422997e-04 2.081351e-04 -7.511275e-04 3.713665e-04 -7.170778e-04 4.819198e-04 -6.663612e-04 5.029327e-04 -5.803346e-04 4.323451e-04 -4.460030e-04 2.580177e-04 -2.711166e-04 -7.449879e-07 -1.478789e-05 -2.643617e-04 3.325505e-04 -5.357249e-04 6.786699e-04 -8.243531e-04 9.771964e-04 -1.089368e-03 1.173223e-03 -1.305742e-03 1.247973e-03 -1.378535e-03 1.233344e-03 -1.266764e-03 1.077110e-03 -1.026297e-03 7.284728e-04 -6.862363e-04 2.806906e-04 -5.064624e-04 9.544550e-03 5.052607e-02 3.880353e-02 2.097511e-02 1.213915e-02 4.127126e-03 
-1.183930e-03 -4.186237e-03 -8.083802e-03 -1.148147e-02 -1.658430e-02 -2.138139e-02 -1.104116e-02 -1.880226e-03 -4.375544e-03 -5.724709e-03 -5.072905e-03 -1.088690e-02 -5.680495e-03 -8.056425e-05 1.675275e-04 -4.242840e-04 2.518336e-04 -2.721773e-04 2.426815e-04 -4.262323e-06 4.022952e-05 7.297141e-03 8.605644e-03 3.985104e-03 3.833834e-03 1.457854e-03 1.816461e-03 4.637318e-04 8.368570e-04 6.757198e-05 2.986368e-04 -5.813052e-05 -4.276195e-05 -7.291070e-05 -2.953468e-04 -6.612052e-05 -5.069196e-04 -8.404434e-05 -6.973772e-04 -1.621506e-04 -9.009902e-04 -3.508436e-04 -1.170870e-03 -7.091842e-04 -1.587079e-03 -1.339251e-03 -2.303727e-03 -2.442186e-03 -3.612875e-03 -4.419595e-03 -6.089542e-03 -8.085691e-03 -1.084921e-02 -1.506184e-02 -2.069544e-02 -3.202432e-02 -4.430838e-02 -1.569255e-02 1.927113e-02 7.577009e-03 6.471406e-03 1.192225e-02 8.285176e-03 1.093751e-02 1.039205e-02 1.141960e-02 1.280184e-02 1.140030e-02 1.403035e-02 1.214783e-02 1.423420e-02 1.580445e-02 7.721167e-03 -3.529392e-04 -3.640714e-03 -2.477750e-03 -1.143158e-03 -3.868154e-04 -1.370974e-04 1.668208e-04 6.750620e-05 3.033351e-04 4.848326e-05 3.159650e-04 -4.330494e-05 2.982963e-04 -1.523589e-04 2.824992e-04 -2.500632e-04 2.852557e-04 -3.124073e-04 3.047241e-04 -3.365387e-04 3.164490e-04 -3.293802e-04 2.996114e-04 -2.912903e-04 2.439251e-04 -2.217051e-04 1.454636e-04 -1.213351e-04 1.263356e-05 1.456151e-05 -1.335081e-04 1.800759e-04 -2.826891e-04 3.477470e-04 -4.246145e-04 4.940001e-04 -5.363489e-04 5.995164e-04 -5.862719e-04 6.610531e-04 -5.197918e-04 7.006388e-04 -2.655917e-04 7.782117e-04 2.942547e-04 1.120305e-03 1.412019e-03 2.489420e-03 2.927845e-03 1.396763e-02 2.522493e-02 1.439519e-02 1.141886e-02 5.815808e-03 3.172677e-03 
-1.007114e-03 -3.245210e-03 -5.567524e-03 -7.302059e-03 -8.720076e-03 -9.117693e-03 -7.664471e-03 -7.142205e-03 -6.757317e-03 -1.001756e-02 -9.453854e-03 -1.676801e-02 -1.307015e-02 -9.289760e-05 2.949092e-05 -9.986686e-05 6.652398e-05 -6.998531e-05 8.087535e-05 -1.228526e-05 1.123115e-04 1.470580e-02 1.606687e-02 7.765839e-03 7.340117e-03 3.391984e-03 3.687738e-03 1.554979e-03 1.892337e-03 7.082008e-04 9.380980e-04 3.254019e-04 3.866707e-04 1.547583e-04 3.351946e-05 6.694919e-05 -2.202887e-04 -7.037928e-06 -4.267170e-04 -1.145030e-04 -6.327992e-04 -3.053706e-04 -8.936454e-04 -6.360927e-04 -1.283615e-03 -1.193039e-03 -1.927980e-03 -2.130360e-03 -3.048435e-03 -3.736529e-03 -5.055405e-03 -6.555115e-03 -8.669172e-03 -1.146981e-02 -1.522021e-02 -2.177925e-02 -3.066528e-02 -1.723858e-02 1.032788e-02 8.241996e-03 4.278692e-03 6.931400e-03 4.081863e-03 4.302940e-03 2.889919e-03 1.393254e-03 1.480822e-03 -1.944393e-03 -2.895297e-04 1.859278e-04 -9.527168e-03 -1.900930e-03 2.267951e-02 2.553697e-02 1.487018e-02 9.842695e-03 7.100860e-03 5.503697e-03 3.991998e-03 3.205369e-03 2.230766e-03 1.911032e-03 1.213341e-03 1.172043e-03 6.054624e-04 7.475025e-04 2.325567e-04 5.063885e-04 4.140973e-06 3.772805e-04 -1.245092e-04 3.134100e-04 -1.843449e-04 2.743536e-04 -1.980527e-04 2.320005e-04 -1.768381e-04 1.712792e-04 -1.260441e-04 8.617601e-05 -4.870845e-05 -1.885736e-05 5.559047e-05 -1.310428e-04 1.806265e-04 -2.423997e-04 3.080512e-04 -3.439316e-04 4.218405e-04 -4.171218e-04 5.125161e-04 -4.327279e-04 5.877833e-04 -3.383140e-04 6.857759e-04 -4.750062e-05 8.969955e-04 6.071369e-04 1.440983e-03 1.979536e-03 2.762629e-03 4.569198e-03 5.902549e-03 1.038830e-02 7.452640e-03 6.671190e-03 3.730163e-03 1.756077e-03 
-3.990224e-04 -1.176277e-03 -2.192079e-03 -3.025642e-03 -3.541108e-03 -4.305695e-03 -3.616299e-03 -3.561131e-03 -3.502026e-03 -4.833884e-03 -4.651268e-03 -8.188515e-03 -6.300940e-03 -4.336806e-05 3.071951e-05 -7.255486e-05 5.456233e-05 -5.733492e-05 5.628194e-05 -1.679487e-05 5.511466e-05 7.418866e-03 8.041910e-03 3.691477e-03 3.408656e-03 1.493338e-03 1.557350e-03 6.046953e-04 6.841147e-04 2.002566e-04 2.307580e-04 2.424056e-06 -4.310696e-05 -1.189096e-04 -2.487129e-04 -2.317167e-04 -4.442186e-04 -3.806803e-04 -6.704865e-04 -6.069893e-04 -9.710720e-04 -9.599639e-04 -1.402382e-03 -1.503059e-03 -2.040306e-03 -2.320051e-03 -2.985671e-03 -3.517134e-03 -4.361279e-03 -5.210049e-03 -6.283719e-03 -7.460597e-03 -8.742097e-03 -1.002422e-02 -1.119068e-02 -1.198400e-02 -1.295905e-02 -1.092518e-02 -3.645390e-03 -8.470551e-04 1.937766e-03 4.614843e-03 5.837482e-03 7.233046e-03 7.875663e-03 8.190798e-03 8.564884e-03 7.982797e-03 8.027314e-03 7.316059e-03 6.312187e-03 6.544697e-03 6.386888e-03 4.770427e-03 3.024167e-03 2.712480e-03 2.180194e-03 2.084660e-03 1.582009e-03 1.514896e-03 1.060157e-03 1.049483e-03 6.496453e-04 6.969643e-04 3.514311e-04 4.496984e-04 1.512625e-04 2.884159e-04 2.798599e-05 1.905699e-04 -3.870960e-05 1.344263e-04 -6.660599e-05 1.004235e-04 -6.964817e-05 7.377428e-05 -5.681665e-05 4.543737e-05 -3.308176e-05 1.153842e-05 -7.922055e-07 -2.727062e-05 3.895649e-05 -6.752486e-05 8.340501e-05 -1.057562e-04 1.272031e-04 -1.372721e-04 1.659728e-04 -1.535636e-04 1.993108e-04 -1.403972e-04 2.357276e-04 -7.322659e-05 3.012321e-04 9.047783e-05 4.558355e-04 4.281481e-04 8.232835e-04 1.074408e-03 1.604356e-03 2.197674e-03 2.941190e-03 4.143002e-03 2.877127e-03 2.873635e-03 1.433631e-03 9.005211e-04 
-4.702454e-06 2.529623e-06 -3.207159e-06 2.696980e-06 -2.545747e-06 3.189342e-06 -2.549731e-06 3.615420e-06 -2.708605e-06 3.579075e-06 -3.130476e-06 3.206789e-06 -3.786655e-06 3.859396e-07 9.055123e-08 1.212968e-07 -1.644145e-09 -1.887429e-08 -1.395140e-07 5.064627e-08 -4.400409e-07 -2.527761e-05 -3.173220e-05 -1.145536e-05 -2.827042e-05 -1.173454e-05 -3.779940e-05 -1.813106e-05 -5.502850e-05 -3.099060e-05 -8.075850e-05 -5.360289e-05 -1.177092e-04 -9.172309e-05 -1.716279e-04 -1.549565e-04 -2.526064e-04 -2.576834e-04 -3.769497e-04 -4.219501e-04 -5.709504e-04 -6.803227e-04 -8.727116e-04 -1.077077e-03 -1.334047e-03 -1.670085e-03 -2.020585e-03 -2.526587e-03 -3.001370e-03 -3.703743e-03 -4.315561e-03 -5.191557e-03 -5.878199e-03 -6.757362e-03 -7.239349e-03 -7.614064e-03 -7.214092e-03 -5.729183e-03 -2.128418e-03 -1.149251e-03 1.402743e-04 9.749233e-04 1.199253e-03 1.481831e-03 1.375882e-03 1.221123e-03 1.166935e-03 9.754674e-04 1.094181e-03 1.733074e-03 1.884925e-03 3.514051e-03 5.966453e-03 6.852903e-03 6.416655e-03 6.187129e-03 5.301666e-03 4.867367e-03 3.937658e-03 3.545257e-03 2.738022e-03 2.452967e-03 1.814418e-03 1.630591e-03 1.159449e-03 1.047283e-03 7.230527e-04 6.504487e-04 4.475944e-04 3.896447e-04 2.834905e-04 2.239451e-04 1.913224e-04 1.211509e-04 1.409851e-04 5.749620e-05 1.117917e-04 1.758292e-05 9.185147e-05 -6.850727e-06 7.609598e-05 -1.933094e-05 6.327751e-05 -2.209362e-05 5.199370e-05 -1.916921e-05 3.964568e-05 -1.456343e-05 2.544181e-05 -9.924820e-06 1.068755e-05 -5.348856e-06 -2.249784e-06 -1.853658e-07 -1.135685e-05 5.057631e-06 -1.665943e-05 8.562287e-06 -1.894033e-05 9.278282e-06 -1.832906e-05 7.574303e-06 -1.506327e-05 4.532886e-06 -1.086704e-05 3.276950e-06 -7.215967e-06 2.705357e-06 
3.900366e-04 1.182150e-03 2.186217e-03 3.031837e-03 3.536772e-03 4.313149e-03 3.611598e-03 3.569983e-03 3.497330e-03 4.842661e-03 4.645674e-03 8.196190e-03 6.292986e-03 4.398816e-05 -3.047247e-05 7.231820e-05 -5.425624e-05 5.636361e-05 -5.628885e-05 1.577588e-05 -5.637396e-05 -7.501505e-03 -8.146609e-03 -3.751564e-03 -3.510778e-03 -1.563661e-03 -1.689684e-03 -7.037480e-04 -8.684408e-04 -3.482209e-04 -4.923204e-04 -2.281751e-04 -3.288401e-04 -2.276115e-04 -2.812196e-04 -3.010319e-04 -3.149092e-04 -4.360973e-04 -4.252536e-04 -6.393427e-04 -6.246863e-04 -9.295356e-04 -9.350132e-04 -1.332296e-03 -1.382666e-03 -1.875355e-03 -1.990990e-03 -2.574949e-03 -2.760235e-03 -3.408360e-03 -3.632272e-03 -4.269265e-03 -4.434477e-03 -4.904406e-03 -4.810568e-03 -4.871371e-03 -4.228491e-03 -3.648733e-03 -2.025182e-03 -1.073217e-03 2.960596e-04 1.258728e-03 2.149532e-03 2.827014e-03 3.300516e-03 3.637552e-03 3.791088e-03 3.876166e-03 3.777454e-03 3.800878e-03 3.494316e-03 3.575190e-03 3.175226e-03 3.119779e-03 2.523944e-03 2.523940e-03 1.944689e-03 1.958385e-03 1.414715e-03 1.426675e-03 9.618020e-04 9.672033e-04 6.154738e-04 6.023860e-04 3.810218e-04 3.317436e-04 2.420257e-04 1.405269e-04 1.727044e-04 1.201885e-05 1.485512e-04 -6.733080e-05 1.481164e-04 -1.093259e-04 1.528034e-04 -1.240229e-04 1.489333e-04 -1.181774e-04 1.297978e-04 -9.497376e-05 9.515776e-05 -5.621883e-05 4.852300e-05 -5.775969e-06 -6.617240e-06 4.789752e-05 -6.748008e-05 9.452818e-05 -1.292873e-04 1.240224e-04 -1.879490e-04 1.227953e-04 -2.468421e-04 6.803438e-05 -3.277828e-04 -8.353996e-05 -4.908030e-04 -4.128111e-04 -8.612311e-04 -1.056379e-03 -1.640194e-03 -2.181834e-03 -2.970243e-03 -4.132669e-03 -2.897938e-03 -2.865726e-03 -1.447496e-03 -8.941008e-04 
1.001905e-03 3.249017e-03 5.564511e-03 7.306205e-03 8.717670e-03 9.124302e-03 7.659749e-03 7.150940e-03 6.752742e-03 1.002626e-02 9.448270e-03 1.677490e-02 1.306156e-02 9.343157e-05 -2.942332e-05 9.959256e-05 -6.634466e-05 6.910829e-05 -8.072312e-05 1.172483e-05 -1.125600e-04 -1.474363e-02 -1.610525e-02 -7.782190e-03 -7.378793e-03 -3.408733e-03 -3.745121e-03 -1.576058e-03 -1.978276e-03 -7.412555e-04 -1.066158e-03 -3.843372e-04 -5.714758e-04 -2.595217e-04 -2.961201e-04 -2.534778e-04 -1.544931e-04 -3.148207e-04 -1.117722e-04 -4.268939e-04 -1.613786e-04 -5.912277e-04 -3.026073e-04 -8.120227e-04 -5.375986e-04 -1.102881e-03 -8.759348e-04 -1.478268e-03 -1.315886e-03 -1.929033e-03 -1.819982e-03 -2.394988e-03 -2.283816e-03 -2.730848e-03 -2.504147e-03 -2.693163e-03 -2.203836e-03 -2.040792e-03 -1.210877e-03 -9.572029e-04 -3.717476e-04 -1.032787e-04 1.597892e-04 3.615208e-04 4.011685e-04 5.701567e-04 5.104444e-04 7.688638e-04 7.094080e-04 1.200212e-03 1.213443e-03 1.912774e-03 2.030040e-03 2.657167e-03 2.420114e-03 2.810412e-03 2.316217e-03 2.520954e-03 1.935505e-03 2.026332e-03 1.492063e-03 1.501297e-03 1.107832e-03 1.030613e-03 8.249263e-04 6.410150e-04 6.381509e-04 3.297081e-04 5.245666e-04 9.389325e-05 4.663967e-04 -6.480697e-05 4.421768e-04 -1.547407e-04 4.220378e-04 -1.913223e-04 3.793483e-04 -1.857977e-04 3.024025e-04 -1.404871e-04 1.947066e-04 -5.438476e-05 6.815951e-05 6.670555e-05 -7.035323e-05 1.989284e-04 -2.200918e-04 3.156576e-04 -3.679885e-04 3.981282e-04 -4.979571e-04 4.200066e-04 -6.074249e-04 3.376756e-04 -7.238221e-04 6.433744e-05 -9.427674e-04 -5.792426e-04 -1.490802e-03 -1.951521e-03 -2.809891e-03 -4.548656e-03 -5.936287e-03 -1.038655e-02 -7.472222e-03 -6.667265e-03 -3.739939e-03 -1.752068e-03 
1.182218e-03 4.188852e-03 8.084485e-03 1.148430e-02 1.658811e-02 2.138830e-02 1.103397e-02 1.894086e-03 4.373976e-03 5.737295e-03 5.069647e-03 1.089720e-02 5.668505e-03 7.944342e-05 -1.675800e-04 4.235193e-04 -2.500393e-04 2.684566e-04 -2.396227e-04 -1.627379e-07 -4.153332e-05 -7.334810e-03 -8.638143e-03 -4.010545e-03 -3.878231e-03 -1.489939e-03 -1.885143e-03 -5.014415e-04 -9.381851e-04 -1.186068e-04 -4.490143e-04 -2.193256e-05 -1.721901e-04 -5.450536e-05 -4.514905e-06 -1.449401e-04 8.994405e-05 -2.592221e-04 1.227556e-04 -3.879305e-04 8.826192e-05 -5.332355e-04 -9.357835e-06 -6.876037e-04 -1.595186e-04 -8.552268e-04 -3.642130e-04 -1.047968e-03 -6.193434e-04 -1.262725e-03 -8.999412e-04 -1.468016e-03 -1.146569e-03 -1.586566e-03 -1.248418e-03 -1.485269e-03 -1.053800e-03 -9.929942e-04 -3.631223e-04 -2.450961e-04 2.763305e-04 5.610829e-04 8.727620e-04 1.176469e-03 1.297771e-03 1.567940e-03 1.506890e-03 1.742784e-03 1.490203e-03 1.717429e-03 1.304520e-03 1.499242e-03 7.570608e-04 1.032028e-03 4.010436e-04 7.826950e-04 1.887694e-04 5.738457e-04 4.728824e-05 3.879233e-04 -1.458044e-05 2.306591e-04 -4.951354e-06 9.106072e-05 5.365212e-05 -4.108695e-05 1.346377e-04 -1.736863e-04 2.169280e-04 -2.922162e-04 3.015806e-04 -3.691930e-04 3.825599e-04 -3.974786e-04 4.342534e-04 -3.861488e-04 4.303248e-04 -3.415735e-04 3.629356e-04 -2.589281e-04 2.433781e-04 -1.299768e-04 9.373004e-05 4.331788e-05 -7.439165e-05 2.285843e-04 -2.619674e-04 3.909997e-04 -4.467385e-04 5.127484e-04 -5.986280e-04 5.671959e-04 -6.999424e-04 5.155664e-04 -7.555535e-04 2.866488e-04 -8.358899e-04 -2.573061e-04 -1.179660e-03 -1.374918e-03 -2.543151e-03 -2.898678e-03 -1.400403e-02 -2.522756e-02 -1.441035e-02 -1.141408e-02 -5.820998e-03 -3.169577e-03 
2.140555e-03 9.436411e-03 1.698645e-02 2.790748e-02 3.928994e-02 2.410459e-02 8.020169e-03 7.939079e-04 -5.286823e-04 3.563287e-03 -4.967626e-05 5.702876e-03 1.881828e-03 1.429949e-04 -1.394088e-04 3.935966e-04 -2.180097e-04 2.397600e-04 -2.068276e-04 -2.112260e-05 -5.467343e-05 -2.720240e-03 -3.452340e-03 -1.162103e-03 -1.951692e-03 -7.251496e-05 -1.190355e-03 2.955371e-04 -7.177103e-04 3.286718e-04 -3.848937e-04 2.050618e-04 -1.082817e-04 5.427277e-05 1.361419e-04 -9.083744e-05 3.282218e-04 -2.001974e-04 4.745616e-04 -2.812841e-04 5.266721e-04 -3.660618e-04 5.144057e-04 -3.875117e-04 5.106264e-04 -3.403150e-04 4.968234e-04 -2.740477e-04 4.565971e-04 -2.158749e-04 3.835111e-04 -1.908075e-04 2.685402e-04 -2.082750e-04 1.362054e-04 -2.077779e-04 7.381363e-05 -5.970772e-05 2.575283e-04 1.016196e-04 2.600357e-04 2.735108e-04 2.572068e-04 3.399848e-04 1.691171e-04 3.288603e-04 4.902154e-05 3.499785e-04 -1.815753e-05 4.499154e-04 2.411855e-05 5.674689e-04 -1.811421e-04 4.632805e-04 -2.037204e-04 5.144205e-04 -1.882280e-04 4.703593e-04 -1.855993e-04 3.867432e-04 -9.722471e-05 3.110459e-04 5.543605e-05 1.976611e-04 2.296155e-04 3.938370e-05 3.834316e-04 -1.938714e-04 4.752671e-04 -4.427730e-04 5.782657e-04 -5.890845e-04 7.169820e-04 -6.238355e-04 8.160397e-04 -5.992028e-04 7.938914e-04 -5.429555e-04 6.353776e-04 -4.306222e-04 3.781028e-04 -2.173271e-04 9.972639e-05 1.313368e-04 -1.805293e-04 5.088497e-04 -5.331549e-04 8.199583e-04 -8.965909e-04 1.082883e-03 -1.182149e-03 1.267148e-03 -1.342570e-03 1.354594e-03 -1.327351e-03 1.313094e-03 -1.150062e-03 1.104121e-03 -8.182656e-04 7.525301e-04 -3.756120e-04 5.761160e-04 -9.597748e-03 -5.061969e-02 -3.880083e-02 -2.096290e-02 -1.212131e-02 -4.121995e-03 
1.771829e-03 7.945890e-03 1.597368e-02 2.459729e-02 3.579576e-02 -9.164694e-03 -8.776507e-03 3.581386e-03 -6.425511e-03 1.531914e-03 -6.504228e-03 -2.263569e-03 -5.577956e-03 6.280522e-03 -6.100920e-04 2.379220e-03 -6.957131e-04 7.873744e-04 -1.104753e-03 -7.187063e-04 -3.017517e-03 3.499118e-03 4.288915e-03 2.750771e-03 2.024229e-03 1.514309e-03 1.068456e-03 9.322063e-04 7.167645e-04 5.376637e-04 6.105910e-04 2.197962e-04 6.372139e-04 1.605495e-06 7.298344e-04 -1.442416e-04 8.175056e-04 -2.105884e-04 8.927138e-04 -2.252542e-04 8.805564e-04 -2.426851e-04 8.191045e-04 -1.738344e-04 8.081482e-04 -1.210063e-05 8.206210e-04 1.751972e-04 8.316321e-04 3.502789e-04 8.236340e-04 4.688097e-04 7.614935e-04 4.881313e-04 6.314727e-04 4.276618e-04 4.661049e-04 2.785965e-04 1.532815e-04 7.358648e-05 -5.453327e-05 -8.195826e-05 -2.089822e-04 -1.667332e-04 -3.869405e-04 -2.388888e-04 -5.374173e-04 -2.043160e-04 -5.741544e-04 -6.635360e-05 -5.599687e-04 7.380751e-05 -4.584852e-04 2.609749e-04 -4.148255e-04 2.896162e-04 -4.384598e-04 2.018347e-04 -4.439887e-04 1.153487e-04 -3.043266e-04 7.453575e-05 -7.063181e-05 -3.673556e-06 1.871535e-04 -1.389574e-04 4.075050e-04 -3.795606e-04 5.304833e-04 -6.484253e-04 6.572451e-04 -7.851469e-04 8.229985e-04 -7.783543e-04 9.272590e-04 -6.976773e-04 8.629873e-04 -5.781270e-04 6.141665e-04 -3.846870e-04 2.353216e-04 -5.662189e-05 -1.636496e-04 4.525072e-04 -5.525799e-04 9.921995e-04 -1.026135e-03 1.425955e-03 -1.494895e-03 1.773352e-03 -1.833147e-03 1.983997e-03 -1.971961e-03 2.025220e-03 -1.830673e-03 1.836389e-03 -1.387742e-03 1.297271e-03 -4.570558e-04 1.630151e-04 1.944883e-03 -3.042169e-03 1.506374e-02 -3.224224e-02 -3.644611e-02 -1.611313e-02 -1.132917e-02 -2.976114e-03 
1.368226e-03 3.092914e-03 6.091978e-03 6.367794e-03 8.849371e-03 -2.052701e-02 -1.024659e-02 8.961097e-03 -2.155261e-03 8.500378e-03 -4.138824e-04 1.069722e-02 -1.849859e-03 -8.246865e-03 -5.762477e-03 -1.497997e-03 -1.487553e-03 9.226124e-04 2.579909e-03 4.115091e-03 9.622588e-03 -1.826732e-03 -5.017723e-03 -2.412947e-03 -2.472908e-03 -1.091400e-03 -1.245476e-03 -5.849047e-04 -5.817715e-04 -3.909178e-04 -1.960363e-04 -3.478395e-04 4.246071e-05 -3.540131e-04 1.904716e-04 -3.781259e-04 2.595894e-04 -4.015578e-04 2.644912e-04 -4.324824e-04 1.848575e-04 -4.941885e-04 4.191341e-05 -5.548909e-04 -1.190105e-04 -6.133425e-04 -3.005348e-04 -6.923157e-04 -4.975273e-04 -7.884263e-04 -6.829235e-04 -8.729130e-04 -8.047163e-04 -8.798373e-04 -7.690079e-04 -7.024782e-04 -4.798146e-04 -3.499597e-04 -8.360687e-05 1.649635e-04 4.476810e-04 6.449633e-04 8.443445e-04 9.892284e-04 1.009398e-03 1.091695e-03 9.219343e-04 9.747119e-04 6.644251e-04 7.756067e-04 4.023664e-04 8.160963e-04 6.752813e-04 1.116047e-03 6.696681e-04 1.003298e-03 4.535996e-04 7.472363e-04 2.436909e-04 5.054260e-04 1.510079e-04 3.236435e-04 1.625551e-04 1.649990e-04 2.346420e-04 8.310539e-06 3.219460e-04 -1.728444e-04 3.852634e-04 -3.465013e-04 4.535392e-04 -4.435537e-04 5.303020e-04 -4.553780e-04 5.629682e-04 -4.091327e-04 4.978003e-04 -3.183367e-04 3.244729e-04 -1.669710e-04 6.986194e-05 6.998244e-05 -2.128435e-04 4.031345e-04 -5.024498e-04 7.554796e-04 -8.256593e-04 1.049344e-03 -1.132910e-03 1.266758e-03 -1.355019e-03 1.361069e-03 -1.445062e-03 1.282129e-03 -1.358397e-03 9.385558e-04 -1.083187e-03 1.205644e-04 -5.550066e-04 -1.762147e-03 6.410584e-04 -7.318929e-03 1.591469e-02 -5.524412e-04 -8.875757e-03 -2.294774e-03 -2.963956e-03 1.821827e-04 
7.590297e-04 1.085674e-03 2.901086e-03 1.467966e-03 3.020417e-03 -6.207662e-03 -1.422759e-03 5.552977e-03 3.318531e-03 8.668806e-03 9.458735e-03 1.821553e-02 2.350237e-02 2.496469e-02 1.154439e-02 7.197964e-03 2.894939e-03 -2.621776e-03 -6.654516e-03 -1.188612e-02 -2.498130e-02 -2.472731e-02 -1.582431e-02 -1.050484e-02 -6.345044e-03 -4.374168e-03 -2.601920e-03 -1.854715e-03 -1.003675e-03 -8.013819e-04 -3.106318e-04 -3.738650e-04 -2.174269e-06 -2.050143e-04 1.387739e-04 -1.412429e-04 1.977069e-04 -1.195642e-04 2.080024e-04 -1.211040e-04 1.757310e-04 -1.460155e-04 1.070309e-04 -1.918991e-04 7.536945e-06 -2.692810e-04 -1.344166e-04 -4.029134e-04 -3.392504e-04 -6.198796e-04 -6.301408e-04 -9.419558e-04 -1.022345e-03 -1.355450e-03 -1.473117e-03 -1.713449e-03 -1.732219e-03 -1.236763e-03 -3.511807e-04 -6.149922e-04 -9.455993e-05 1.796376e-04 3.218072e-04 6.008714e-04 7.835792e-04 1.022574e-03 1.385665e-03 1.650203e-03 2.019584e-03 2.286843e-03 2.572673e-03 1.915226e-03 3.689778e-05 -3.607824e-04 -7.806620e-04 -4.086904e-04 -5.573979e-04 -1.147512e-04 -2.864848e-04 8.355354e-05 -1.005760e-04 1.604290e-04 2.228481e-05 1.506924e-04 1.093248e-04 8.694326e-05 1.726277e-04 -8.105530e-06 2.175283e-04 -1.044070e-04 2.572761e-04 -1.703736e-04 2.923004e-04 -1.963375e-04 3.029989e-04 -1.883389e-04 2.680830e-04 -1.503835e-04 1.821184e-04 -7.676160e-05 5.693915e-05 4.126701e-05 -8.662704e-05 2.016339e-04 -2.374202e-04 3.748353e-04 -3.947365e-04 5.267402e-04 -5.387087e-04 6.366771e-04 -6.381766e-04 6.805365e-04 -6.637547e-04 6.264305e-04 -5.905874e-04 4.139510e-04 -4.070624e-04 -8.822024e-05 -1.049457e-04 -1.204511e-03 2.870975e-04 -4.153844e-03 4.581331e-03 5.111768e-04 -1.634182e-03 -1.285785e-03 -1.240336e-03 -3.126284e-04 
