# vtk DataFile Version 2.0
Comment goes here
ASCII

DATASET STRUCTURED_POINTS
FIELD FieldData 1
TIME 1 1 double
0.12000000
DIMENSIONS    128   16   1

ORIGIN    0.000   0.000   0.000
SPACING   0.0078125 0.015625   1.000

POINT_DATA   2048
SCALARS uY double
LOOKUP_TABLE default

-2.181011e-05 -4.433086e-05 -4.928858e-05 -6.593008e-05 -6.587192e-05 -6.103282e-05 -3.301048e-05 4.978610e-05 1.042637e-04 1.206191e-04 1.200229e-04 4.064265e-05 3.368519e-05 9.052549e-05 1.313378e-04 2.070200e-04 1.778397e-04 2.083190e-04 8.646713e-05 7.448794e-05 -1.768132e-05 1.094985e-04 7.244425e-05 2.293532e-04 4.084902e-05 -1.792221e-04 -3.905048e-04 -4.717091e-04 -4.299953e-04 -1.837580e-04 -1.669976e-04 -1.403073e-04 -2.871595e-04 -2.399377e-04 -2.052764e-04 -2.698678e-05 1.528385e-04 6.815626e-05 1.745330e-04 1.366935e-04 3.527740e-04 3.750312e-04 5.663923e-04 5.094503e-04 7.453976e-04 8.902639e-04 1.246567e-03 1.280608e-03 1.489042e-03 1.539468e-03 1.901100e-03 2.272525e-03 2.823007e-03 3.297964e-03 3.809495e-03 3.842987e-03 3.343192e-03 3.008087e-05 -3.214464e-03 -3.776249e-03 -5.538343e-03 -5.679497e-03 -5.940319e-03 -6.501371e-03 -6.611334e-03 -6.641935e-03 -7.770682e-03 -7.436941e-03 -7.816749e-03 -6.780427e-03 -4.220450e-03 5.763113e-04 6.248673e-03 8.428825e-03 8.635714e-03 7.274033e-03 5.933535e-03 4.373020e-03 3.417953e-03 2.278467e-03 1.728233e-03 1.113253e-03 1.052094e-03 8.190965e-04 8.984405e-04 7.957281e-04 7.932103e-04 5.124999e-04 2.601604e-04 -4.559809e-06 -1.162844e-05 8.337160e-06 -1.325143e-05 -5.930724e-05 -1.278430e-04 -1.891357e-05 -5.033526e-05 1.351898e-04 9.232781e-05 2.268060e-04 1.833488e-05 2.044322e-05 -1.073672e-04 1.305591e-04 2.204728e-04 4.235074e-04 3.023220e-04 2.778488e-04 4.874404e-05 -6.792766e-05 -1.032841e-04 -1.108673e-04 -1.667135e-04 -3.270168e-04 -2.861153e-04 -2.296837e-04 -3.048196e-04 -3.907030e-04 -3.416579e-04 -6.522956e-04 -4.716962e-04 -2.753568e-04 -7.799359e-05 -6.725488e-05 -1.956637e-06 -2.073595e-05 2.355457e-07 -2.348604e-05 
7.103518e-04 1.192554e-03 2.820562e-03 1.567811e-03 2.835890e-03 -6.121453e-03 -1.040439e-03 5.560150e-03 3.215538e-03 8.195260e-03 8.777036e-03 1.697996e-02 2.229151e-02 2.403664e-02 1.117516e-02 7.089162e-03 2.787964e-03 -2.284377e-03 -6.643981e-03 -1.153955e-02 -2.429784e-02 -2.367309e-02 -1.482976e-02 -9.112611e-03 -5.345544e-03 -4.185206e-03 -3.046860e-03 -2.736646e-03 -1.687727e-03 -8.424925e-04 -1.611845e-04 -4.405043e-04 -5.666772e-04 -8.562553e-04 -3.507317e-04 -9.383659e-05 6.202942e-04 -1.751111e-04 1.225364e-04 -4.432591e-04 1.919440e-04 1.408178e-07 5.387511e-04 -1.214228e-04 2.463048e-04 2.747362e-04 1.016067e-03 7.081793e-04 8.013972e-04 4.625811e-04 9.043773e-04 1.751300e-03 2.973288e-03 4.918932e-03 7.364712e-03 1.278714e-02 1.528103e-02 8.581446e-04 -7.235534e-03 -5.494901e-04 -3.882361e-03 -3.499953e-03 -1.926505e-03 -6.147594e-03 -4.564412e-03 -4.492303e-03 -1.108275e-02 -1.090644e-02 -1.535105e-02 -2.575253e-02 -2.787185e-02 -8.307589e-03 1.431551e-02 1.871285e-02 1.528636e-02 1.170942e-02 8.593509e-03 6.228657e-03 4.610452e-03 2.600804e-03 1.524458e-03 7.084000e-04 9.671924e-04 4.901739e-04 5.730276e-04 3.963483e-04 1.062876e-03 4.786874e-04 2.256901e-04 -5.442022e-04 2.759344e-04 1.056541e-04 3.357020e-04 -4.711794e-04 -4.731422e-05 -2.779442e-04 -3.063720e-05 -1.134981e-04 3.276143e-04 4.508175e-04 5.947343e-05 -6.691459e-05 -4.199998e-04 4.051482e-04 4.395816e-05 9.738842e-04 -1.612026e-04 8.605449e-04 -6.791367e-04 4.256392e-04 -7.398419e-04 8.614077e-04 -8.537137e-04 -1.245047e-04 -1.250873e-03 2.629014e-04 -9.516974e-04 -4.573778e-04 -1.934088e-04 -2.524936e-03 -6.535211e-04 -4.208829e-03 5.792685e-03 2.344141e-04 -1.931863e-03 -1.160134e-03 -1.260709e-03 -1.729111e-04 
9.709350e-04 2.973074e-03 5.587877e-03 6.276058e-03 8.258719e-03 -2.028138e-02 -9.245087e-03 9.172260e-03 -2.098291e-03 8.086527e-03 -7.090959e-04 9.895861e-03 -2.031236e-03 -8.026931e-03 -5.049287e-03 -6.888652e-04 -8.920996e-04 1.613192e-03 2.610076e-03 3.331350e-03 8.476851e-03 -2.062039e-03 -4.745091e-03 -5.794835e-04 -7.940070e-04 -1.042642e-03 -2.232906e-03 -2.503557e-03 -2.053908e-03 -1.752233e-04 6.198638e-04 2.002788e-05 -6.792903e-04 -1.198326e-03 -5.019383e-04 1.953285e-04 1.474418e-03 -2.336984e-04 3.774023e-04 -3.795309e-04 7.728567e-04 5.762446e-04 1.308530e-03 -1.014023e-04 5.605807e-04 1.365500e-03 3.120501e-03 2.433056e-03 2.134846e-03 1.348891e-03 2.260958e-03 4.245775e-03 6.496084e-03 9.222327e-03 1.251448e-02 2.129426e-02 2.595515e-02 1.742329e-03 -1.363329e-02 -5.301113e-03 -1.110466e-02 -1.034338e-02 -7.674361e-03 -1.212407e-02 -8.789585e-03 -8.089489e-03 -1.372451e-02 -9.079508e-03 -1.041684e-02 -1.376549e-02 -1.733620e-02 -8.292603e-03 1.124790e-02 1.578651e-02 1.103962e-02 7.060408e-03 4.784760e-03 4.114191e-03 3.828471e-03 1.925516e-03 6.444545e-04 -6.362772e-05 7.464989e-04 2.129583e-04 5.576973e-04 8.971006e-04 2.386252e-03 1.152979e-03 9.943863e-05 -1.514793e-03 5.396500e-04 7.031382e-04 1.185409e-03 -7.575099e-04 -5.959633e-05 -7.223551e-04 -2.776401e-04 -5.751545e-04 7.163036e-04 1.077230e-03 4.251148e-04 -3.161123e-04 -1.106222e-03 3.940162e-04 -3.946390e-05 1.713038e-03 -4.965765e-04 1.510158e-03 -1.536260e-03 6.854455e-04 -1.222325e-03 2.351135e-03 -1.626627e-03 -6.351661e-04 -2.991853e-03 9.244867e-04 -1.934685e-03 2.117843e-04 1.632620e-04 -4.119782e-03 -1.128331e-03 -6.600827e-03 1.929669e-02 -1.421799e-03 -9.869176e-03 -1.566901e-03 -2.984112e-03 3.402654e-04 
2.012415e-03 8.151262e-03 1.540415e-02 2.404664e-02 3.498169e-02 -9.439356e-03 -8.685661e-03 3.570320e-03 -5.937184e-03 2.129694e-03 -5.844271e-03 -2.139059e-03 -5.406196e-03 6.519143e-03 -7.672507e-04 2.554292e-03 -6.239681e-04 2.989737e-04 -1.202157e-03 -1.564772e-04 -3.430239e-03 3.766526e-03 4.868862e-03 3.682222e-03 2.740209e-03 9.769427e-04 5.850123e-04 -1.072788e-04 -9.880071e-04 -2.503468e-04 2.361701e-04 2.390773e-04 8.074048e-04 2.465151e-04 2.878508e-04 -1.209506e-03 -1.631583e-04 -1.817212e-03 8.054749e-04 6.987156e-04 1.992690e-03 2.869789e-04 2.176141e-04 -1.838859e-03 -4.409143e-04 1.876656e-04 2.185972e-03 -2.716593e-04 -1.093237e-03 -2.919829e-03 -1.890182e-03 -1.332961e-03 -8.934030e-04 -3.345564e-03 -7.283927e-03 -1.158521e-02 -1.344373e-02 -4.913251e-04 7.229908e-03 2.719855e-03 3.093571e-03 4.158006e-03 3.318304e-03 7.942597e-03 6.108582e-03 7.192052e-03 9.119706e-03 9.830750e-03 9.106763e-03 1.421679e-02 1.547385e-02 3.588168e-03 -1.164648e-02 -1.115300e-02 -7.118448e-03 -5.706068e-03 -3.975765e-03 -2.951119e-03 -1.097198e-03 -8.186971e-04 -6.608165e-04 -1.736134e-03 -1.700210e-03 -2.137099e-03 2.714761e-05 1.197765e-03 2.203268e-03 1.320940e-04 -4.867164e-04 -2.464385e-03 -1.618978e-04 -1.189923e-04 2.000538e-03 -1.595076e-04 3.879087e-04 -1.741252e-03 -6.376050e-04 -1.483421e-03 5.382699e-04 1.132776e-03 1.863045e-03 1.269780e-03 -3.460649e-04 5.320881e-04 -6.421959e-04 1.658870e-03 -9.770950e-04 2.002237e-03 -1.500020e-03 2.041232e-03 -9.898125e-04 3.427788e-03 -2.593720e-03 -5.274315e-04 -4.382796e-03 7.745075e-04 -1.503955e-03 2.432700e-03 1.317680e-03 -7.219160e-04 9.114310e-04 -3.939377e-03 1.501233e-02 -3.598334e-02 -3.685528e-02 -1.347247e-02 -9.858210e-03 -1.701871e-03 
1.378418e-03 8.407093e-03 1.564085e-02 2.691410e-02 4.058328e-02 2.479490e-02 7.195423e-03 5.625603e-04 -7.725076e-04 3.658457e-03 -1.723665e-04 5.724115e-03 1.889553e-03 -1.895299e-05 -3.006650e-04 2.448899e-04 -2.618318e-04 1.297808e-04 -2.718841e-04 6.384850e-05 2.419703e-04 -9.537088e-04 -2.209202e-03 -1.502993e-03 -2.857012e-03 -3.907479e-04 -3.008077e-04 1.768696e-03 -8.543967e-04 -9.724636e-04 -2.044124e-03 -2.622993e-04 1.207921e-03 1.632221e-03 7.752381e-04 -2.080873e-03 -2.189395e-03 -2.038451e-03 1.007433e-03 1.681958e-03 2.375363e-03 2.051344e-04 -1.848507e-04 -1.015161e-03 6.676255e-04 2.742854e-04 1.358343e-03 -4.339767e-04 2.904852e-04 1.935920e-04 2.159771e-03 2.836142e-03 4.051598e-03 4.412061e-03 4.771275e-03 5.552781e-03 5.609943e-03 1.519615e-03 -2.517835e-03 -2.365203e-03 -2.918202e-03 -1.800633e-03 -3.192264e-03 -4.033929e-03 -4.617265e-03 -4.467519e-03 -8.056285e-03 -7.213583e-03 -8.286700e-03 -1.169138e-02 -1.395853e-02 -9.553768e-04 1.138054e-02 1.060681e-02 8.246736e-03 6.546978e-03 4.884248e-03 2.695829e-03 1.927067e-03 2.464554e-03 2.803618e-03 1.012227e-03 -7.336587e-04 -1.398823e-03 7.485114e-04 1.085653e-03 4.075089e-04 -1.129802e-03 -9.914971e-05 -1.012640e-03 -4.979296e-04 -1.369455e-03 1.256257e-03 5.891339e-04 9.224674e-04 -1.460532e-03 -1.016957e-04 -1.170318e-03 2.040133e-05 7.045664e-05 2.057549e-03 2.443325e-03 1.264869e-03 6.745855e-04 -8.757556e-04 3.568997e-04 -9.159052e-04 1.152115e-03 -4.010584e-04 2.317821e-03 -5.568302e-04 1.423664e-03 -2.415996e-03 2.359052e-04 -3.011270e-03 -9.032084e-04 -1.042196e-03 1.239687e-03 -7.265248e-04 1.688067e-03 2.853411e-04 -7.035955e-04 -9.368336e-03 -4.951522e-02 -3.676958e-02 -1.962865e-02 -1.175050e-02 -4.400779e-03 
7.980653e-04 3.688340e-03 7.498169e-03 1.076664e-02 1.660720e-02 2.201354e-02 1.214482e-02 2.347342e-03 3.479149e-03 4.875700e-03 3.770528e-03 1.069578e-02 6.157701e-03 -4.346701e-05 -2.650525e-04 3.453530e-04 -2.769259e-04 1.633604e-04 -2.688009e-04 2.604522e-05 1.444365e-04 -4.994133e-03 -7.061645e-03 -4.322727e-03 -4.594924e-03 -1.680163e-03 -1.308813e-03 5.773300e-04 -5.862174e-04 -7.653420e-04 -1.419505e-03 -3.654023e-04 5.879547e-04 8.038599e-04 5.872844e-04 -1.029625e-03 -1.003394e-03 -7.533068e-04 7.626356e-04 7.986152e-04 1.301994e-03 1.140687e-04 3.741776e-04 1.339934e-04 1.157408e-03 3.173616e-04 7.445868e-04 1.711894e-04 1.263663e-03 1.651199e-03 2.757729e-03 3.168486e-03 4.315936e-03 7.397319e-03 1.261479e-02 2.336884e-02 3.019366e-02 -5.935249e-05 -1.642543e-02 -3.550643e-03 -1.050275e-02 -7.974662e-03 -5.479225e-03 -1.186240e-02 -7.658483e-03 -7.299193e-03 -1.305358e-02 -6.184861e-03 -8.428166e-03 -8.977887e-03 -9.529872e-03 -1.181951e-02 1.585479e-03 8.774336e-03 8.008925e-03 7.044025e-03 5.222965e-03 3.438334e-03 2.091529e-03 2.028052e-03 2.084943e-03 1.074019e-03 9.150900e-05 -4.036122e-04 4.041543e-04 -5.135929e-05 -5.066400e-04 -1.072497e-03 1.235016e-04 -1.692891e-04 -1.917095e-04 -1.154390e-03 2.338444e-04 1.162727e-04 5.986007e-04 -5.491012e-04 3.189899e-04 -3.239124e-04 3.175698e-05 -2.146353e-04 8.471639e-04 1.394410e-03 9.961496e-04 6.568924e-04 -4.128171e-04 1.431312e-04 -4.951458e-04 5.760777e-04 -1.450716e-04 1.276597e-03 -5.914279e-04 8.359438e-05 -1.370073e-03 4.136523e-04 -1.233800e-03 -1.099663e-03 -1.009384e-03 -9.211937e-04 -1.874448e-03 -6.038039e-04 -1.414827e-03 -2.409380e-03 -1.363192e-02 -2.483136e-02 -1.356472e-02 -1.144467e-02 -5.986602e-03 -3.627928e-03 
7.555904e-04 2.983082e-03 5.391843e-03 7.143356e-03 8.820200e-03 9.355788e-03 7.583925e-03 6.795110e-03 5.615716e-03 8.931124e-03 8.046549e-03 1.701692e-02 1.460616e-02 1.130279e-04 -4.846131e-05 8.925102e-05 -6.295119e-05 7.202439e-05 -4.616695e-05 5.733552e-05 7.170780e-06 -1.179328e-02 -1.396826e-02 -7.547763e-03 -7.418212e-03 -3.832060e-03 -3.923205e-03 -1.738501e-03 -2.171392e-03 -1.046688e-03 -1.323998e-03 -5.411981e-04 -4.467118e-04 -1.962463e-04 -1.791640e-04 -4.943462e-04 -2.679570e-04 -4.068149e-04 2.156909e-04 2.840853e-05 4.676247e-04 -5.388452e-05 2.669436e-04 -2.091384e-04 2.606235e-04 -2.702990e-04 8.092741e-05 -5.759187e-04 -3.850549e-04 -1.025032e-03 -1.131740e-03 -1.919197e-03 -2.294542e-03 -2.263004e-03 -8.368719e-04 2.527202e-03 4.976373e-03 -1.005263e-03 5.375127e-04 6.483774e-03 8.130453e-04 1.839118e-03 2.646475e-03 7.945439e-04 1.682965e-03 1.619174e-03 6.815004e-05 2.717876e-03 -2.479561e-03 -2.894704e-04 7.556490e-03 -4.272241e-03 -1.248285e-02 -5.998888e-03 -7.896646e-04 1.130285e-03 1.789134e-03 1.653792e-03 1.528495e-03 1.217833e-03 1.139035e-03 6.152739e-04 4.671359e-04 6.220950e-05 3.259000e-04 -4.621493e-06 1.320867e-04 -3.255353e-04 5.900708e-05 -3.809525e-04 2.595188e-05 -4.313139e-04 2.279276e-04 -1.992851e-04 2.737093e-04 -2.885068e-04 2.156769e-04 -1.413295e-04 2.630989e-04 1.751304e-04 4.739419e-04 5.845321e-04 3.371762e-04 4.932866e-04 -6.903656e-05 4.347579e-04 -2.598096e-04 5.240317e-04 -3.536227e-04 5.913719e-04 -5.908053e-04 2.810307e-04 -9.822154e-04 -9.606935e-05 -1.211320e-03 -6.157654e-04 -1.274715e-03 -1.025760e-03 -1.713165e-03 -2.074389e-03 -2.567664e-03 -4.355874e-03 -5.316553e-03 -9.877284e-03 -7.017285e-03 -6.680217e-03 -3.868199e-03 -2.064849e-03 
3.030487e-04 1.059825e-03 2.124709e-03 2.946710e-03 3.516585e-03 4.307915e-03 3.510776e-03 3.323703e-03 2.865253e-03 4.267684e-03 3.911250e-03 8.545488e-03 7.332217e-03 5.860090e-05 -4.489500e-05 6.544489e-05 -5.668851e-05 5.218883e-05 -4.038142e-05 3.785952e-05 4.262514e-06 -5.618119e-03 -6.789415e-03 -3.543366e-03 -3.548955e-03 -1.777892e-03 -1.804930e-03 -7.524031e-04 -9.105786e-04 -4.215520e-04 -5.187221e-04 -1.971890e-04 -1.057099e-04 -1.250597e-05 6.222097e-05 -8.120859e-05 7.286574e-05 2.057714e-05 3.399257e-04 2.608352e-04 5.350886e-04 3.374701e-04 5.930987e-04 4.323634e-04 7.437321e-04 5.499648e-04 8.311839e-04 6.776706e-04 9.782591e-04 8.910823e-04 1.106907e-03 9.733951e-04 1.160005e-03 1.319434e-03 2.222360e-03 2.955656e-03 3.771762e-03 1.110884e-03 -1.386292e-03 -1.427250e-03 -4.013440e-03 -4.194336e-03 -4.963634e-03 -5.826946e-03 -6.068621e-03 -6.077323e-03 -7.179684e-03 -6.377299e-03 -7.208858e-03 -6.081853e-03 -3.799085e-03 -2.032548e-03 2.668861e-03 5.480684e-03 6.386338e-03 5.952006e-03 5.255543e-03 4.255703e-03 3.491694e-03 2.723730e-03 2.256082e-03 1.627135e-03 1.290966e-03 8.273702e-04 7.352772e-04 3.810995e-04 3.276224e-04 4.586796e-05 1.722658e-04 -3.771131e-05 8.372950e-05 -1.278273e-04 1.104229e-04 -2.653256e-05 1.659442e-04 -1.190634e-05 1.749883e-04 7.194823e-05 1.929765e-04 1.945872e-04 2.751052e-04 3.802287e-04 2.390169e-04 3.302921e-04 3.333137e-05 2.440109e-04 -7.696429e-05 2.416616e-04 -1.326404e-04 2.247545e-04 -2.706147e-04 1.564441e-05 -4.554431e-04 -1.667315e-04 -5.639196e-04 -4.720378e-04 -6.879085e-04 -7.040972e-04 -9.936285e-04 -1.114231e-03 -1.516302e-03 -2.126575e-03 -2.794235e-03 -4.076629e-03 -2.794628e-03 -2.966097e-03 -1.509460e-03 -1.055014e-03 
1.097957e-05 2.965292e-06 2.585601e-05 1.519557e-05 3.641534e-05 1.600198e-05 3.729223e-05 1.195263e-06 2.614007e-05 -4.762948e-06 3.089200e-05 -5.331674e-06 4.397958e-05 1.376952e-05 6.369753e-06 1.028462e-05 8.724795e-06 1.317803e-05 1.454609e-05 2.099577e-05 2.225321e-05 1.735414e-04 2.147190e-06 9.651022e-05 -4.248524e-05 5.497139e-05 -5.439652e-05 1.351362e-05 -1.066214e-04 -7.540920e-05 -1.439445e-04 -9.875805e-05 -8.718534e-05 -6.598903e-05 -4.466318e-05 -7.811768e-05 -3.065477e-05 -5.114797e-05 3.532062e-05 1.243825e-05 8.105195e-05 1.379380e-05 5.875786e-05 -2.911877e-05 2.238735e-06 -1.211790e-04 -1.239997e-04 -2.794637e-04 -3.182036e-04 -4.856127e-04 -5.642848e-04 -7.203770e-04 -7.608166e-04 -7.214985e-04 -4.098708e-04 1.380144e-05 5.299110e-04 3.810480e-04 3.227882e-04 8.641665e-04 6.014401e-05 3.359105e-04 -9.208545e-07 -6.002715e-05 -2.641305e-04 -2.277861e-04 -6.679879e-04 -4.793652e-04 -9.020268e-04 -8.132098e-04 1.921115e-04 -2.773546e-04 1.219498e-04 7.155127e-04 1.225133e-03 1.255744e-03 1.373534e-03 1.123509e-03 1.110568e-03 8.211016e-04 7.970441e-04 5.336180e-04 5.003021e-04 2.935471e-04 2.750297e-04 1.253209e-04 7.945493e-05 -2.585534e-05 -5.485196e-05 -8.361463e-05 -1.009391e-04 -7.187069e-05 -7.491504e-05 7.467389e-07 -1.852644e-05 7.545337e-05 4.915714e-05 1.696719e-04 1.251381e-04 2.521060e-04 1.767807e-04 2.835703e-04 1.530825e-04 2.319746e-04 9.508833e-05 1.744956e-04 6.003747e-05 1.235103e-04 2.586914e-05 4.781728e-05 -4.244202e-05 -8.013208e-05 -1.429750e-04 -2.100056e-04 -1.916803e-04 -2.704903e-04 -1.701398e-04 -2.393772e-04 -1.178642e-04 -1.664691e-04 -4.946025e-05 -1.158807e-04 -3.033155e-05 -7.404445e-05 -1.819471e-05 -4.229815e-05 -4.476472e-06 -1.676993e-05 
-3.023072e-04 -1.059882e-03 -2.084992e-03 -2.910954e-03 -3.451477e-03 -4.270054e-03 -3.462933e-03 -3.373066e-03 -2.916974e-03 -4.353717e-03 -3.967597e-03 -8.602534e-03 -7.319681e-03 -5.450012e-05 2.860734e-05 -7.236993e-05 5.126673e-05 -5.471942e-05 4.815630e-05 -1.233369e-05 4.049610e-05 6.064370e-03 6.824170e-03 3.733255e-03 3.468721e-03 2.017847e-03 1.893824e-03 1.036444e-03 8.731445e-04 3.584468e-04 2.889656e-04 1.156897e-04 1.691824e-04 1.743772e-04 1.566468e-04 1.755945e-04 1.117254e-04 2.287957e-04 1.909475e-04 3.649420e-04 2.984951e-04 4.622478e-04 4.072324e-04 6.021185e-04 5.368424e-04 6.886258e-04 6.097528e-04 7.627300e-04 7.300448e-04 8.790747e-04 8.443987e-04 9.192587e-04 8.582525e-04 8.696983e-04 7.978953e-04 6.649883e-04 3.772200e-04 -1.462685e-04 -9.130037e-04 -1.285868e-03 -2.117840e-03 -2.423652e-03 -2.994920e-03 -3.263282e-03 -3.568311e-03 -3.609832e-03 -3.707615e-03 -3.429052e-03 -3.069700e-03 -2.493407e-03 -1.397914e-03 -5.988148e-04 8.041111e-04 1.374194e-03 2.103359e-03 2.064852e-03 2.295300e-03 1.972317e-03 1.952189e-03 1.571362e-03 1.482803e-03 1.178899e-03 1.021327e-03 7.822962e-04 5.848037e-04 4.561166e-04 2.175656e-04 2.045303e-04 -5.874831e-06 1.572868e-04 -6.969045e-05 1.535141e-04 -1.127612e-04 1.920452e-04 -6.538642e-05 2.582423e-04 3.053288e-06 3.185294e-04 1.034454e-04 3.535929e-04 1.784020e-04 3.127047e-04 1.658512e-04 1.531410e-04 9.767964e-05 1.051640e-05 1.220828e-04 -3.161828e-05 2.068040e-04 -5.591643e-05 2.379406e-04 -1.542767e-04 1.490361e-04 -2.498161e-04 1.673847e-04 -1.308529e-04 3.644833e-04 2.471842e-04 8.010784e-04 9.358059e-04 1.556969e-03 1.933787e-03 2.724804e-03 3.910830e-03 2.723060e-03 2.856699e-03 1.469499e-03 1.004129e-03 
-7.313712e-04 -2.947099e-03 -5.322879e-03 -7.067201e-03 -8.708640e-03 -9.261318e-03 -7.461270e-03 -6.828230e-03 -5.627306e-03 -8.962429e-03 -8.018607e-03 -1.699339e-02 -1.444959e-02 -1.079370e-04 3.629713e-05 -9.398766e-05 6.653525e-05 -6.536691e-05 6.823292e-05 -1.726077e-05 7.686059e-05 1.239149e-02 1.410343e-02 7.670541e-03 7.231164e-03 3.956159e-03 3.982936e-03 1.957891e-03 1.899189e-03 6.333228e-04 6.593664e-04 1.184095e-04 3.281282e-04 2.422775e-04 2.019665e-04 1.795192e-04 -3.678620e-06 1.552323e-04 -6.750379e-05 2.411261e-04 -3.891556e-05 2.515363e-04 -2.142007e-05 3.367303e-04 9.656247e-06 2.770808e-04 -7.610482e-05 1.881956e-04 -5.293445e-05 2.164644e-04 4.134321e-05 2.391578e-04 9.782871e-05 2.891284e-04 2.317835e-04 3.021811e-04 1.661294e-04 9.725493e-05 -1.009251e-04 -9.278970e-05 -3.226924e-04 -3.690959e-04 -5.571204e-04 -6.739921e-04 -6.915233e-04 -7.615151e-04 -6.428185e-04 -6.162749e-04 -2.810603e-04 -3.057026e-04 2.516077e-04 1.898965e-04 7.495000e-04 5.692614e-04 9.194692e-04 5.848494e-04 8.527820e-04 5.185231e-04 6.384496e-04 3.143529e-04 4.052542e-04 2.960151e-04 2.810773e-04 2.672370e-04 1.301746e-04 2.075054e-04 -2.014629e-04 -8.576233e-05 -5.094795e-04 -5.381344e-05 -5.073876e-04 5.122469e-05 -4.934333e-04 1.972777e-04 -3.515654e-04 3.651208e-04 -1.475901e-04 5.299534e-04 8.624906e-05 5.344930e-04 1.824996e-04 3.162188e-04 1.072818e-04 -5.017046e-06 1.678831e-04 -1.114346e-04 3.765895e-04 -1.779572e-04 5.421105e-04 -2.865585e-04 6.349520e-04 -4.331781e-04 4.892644e-04 -6.013192e-04 5.469650e-04 -2.914823e-04 8.117740e-04 3.800137e-04 1.412829e-03 1.830306e-03 2.665265e-03 4.159104e-03 5.284636e-03 9.769550e-03 6.974694e-03 6.620628e-03 3.852217e-03 2.054543e-03 
-7.904734e-04 -3.628281e-03 -7.403862e-03 -1.059538e-02 -1.637049e-02 -2.161896e-02 -1.177046e-02 -2.598920e-03 -3.908865e-03 -5.222914e-03 -4.122388e-03 -1.046033e-02 -5.825530e-03 -8.661647e-05 1.622883e-04 -4.137728e-04 2.621725e-04 -2.605394e-04 1.829173e-04 -3.407790e-05 -4.612035e-05 6.457285e-03 7.574478e-03 3.404477e-03 3.431865e-03 1.969485e-03 2.590616e-03 1.275249e-03 8.129387e-04 -6.151562e-04 -7.558124e-04 -7.713379e-04 1.799974e-05 5.917977e-04 3.791127e-04 2.203964e-04 -3.522550e-04 9.567901e-05 -8.123636e-05 6.117495e-04 4.266003e-05 3.969229e-04 1.156630e-04 9.578631e-04 5.266160e-04 8.398086e-04 1.561744e-04 6.274897e-04 4.502929e-04 1.117449e-03 9.526642e-04 1.255304e-03 1.007164e-03 1.337997e-03 1.159706e-03 9.968548e-04 4.324681e-04 -1.726982e-04 -7.026949e-04 -8.599338e-04 -1.125627e-03 -1.419212e-03 -1.830746e-03 -2.298099e-03 -2.460805e-03 -2.873963e-03 -2.832317e-03 -2.724084e-03 -2.027136e-03 -1.753207e-03 -7.506296e-04 -2.241205e-04 8.615478e-04 5.645095e-04 8.549489e-04 4.377408e-04 1.008367e-03 7.102193e-04 8.430451e-04 3.764202e-04 6.998254e-04 7.843065e-04 6.944499e-04 4.992908e-04 1.986010e-04 2.714658e-04 -4.332337e-04 -4.239799e-04 -7.973799e-04 2.018095e-04 -2.855134e-04 2.844373e-04 -6.837219e-04 3.123902e-04 -3.714785e-04 5.615861e-04 -2.906635e-04 6.719445e-04 1.198019e-04 8.212132e-04 4.355341e-04 7.233087e-04 3.180074e-04 -9.062287e-05 -2.068270e-04 -6.258509e-04 8.107341e-05 -3.778667e-04 7.629642e-04 -4.189728e-05 1.230496e-03 -3.376672e-04 3.274760e-04 -1.195359e-03 1.854140e-04 -8.322440e-04 4.553541e-04 -6.316856e-05 1.273659e-03 1.591110e-03 2.824442e-03 2.053461e-03 1.313408e-02 2.454805e-02 1.335920e-02 1.132758e-02 5.910224e-03 3.607903e-03 
-1.370048e-03 -8.315947e-03 -1.554318e-02 -2.669661e-02 -4.032066e-02 -2.425203e-02 -6.684088e-03 -1.042371e-03 2.405611e-04 -3.716694e-03 -3.370316e-05 -5.380152e-03 -1.242036e-03 -1.440829e-04 1.596953e-04 -3.646836e-04 2.291620e-04 -2.156581e-04 1.539411e-04 -6.132669e-05 -1.298906e-04 3.250506e-03 3.658344e-03 6.202805e-04 1.165176e-03 1.064321e-04 2.051747e-03 4.904997e-04 4.103886e-04 -1.501465e-03 -1.716303e-03 -1.927641e-03 -2.037276e-04 9.672488e-04 5.044479e-04 3.274812e-04 -3.545384e-04 -1.563659e-06 -6.620779e-04 5.592037e-04 -1.827023e-04 2.460215e-04 -1.979988e-04 1.006146e-03 1.923213e-04 6.124959e-04 -4.949071e-04 9.748753e-05 -2.778023e-04 5.747286e-04 4.494511e-04 7.842420e-04 3.748642e-04 1.055578e-03 1.233247e-03 1.028164e-03 3.191630e-04 -1.440862e-04 -2.934148e-04 -2.946086e-04 -3.378184e-04 -7.057856e-04 -1.249793e-03 -1.812998e-03 -1.431658e-03 -1.558259e-03 -8.920697e-04 -2.493500e-04 9.091185e-04 5.455401e-04 8.911775e-04 4.933573e-04 1.225151e-03 4.317865e-04 5.546085e-04 -3.928492e-04 4.881383e-04 2.520844e-04 2.811363e-04 -7.183425e-04 -3.172698e-04 8.895318e-05 2.205091e-04 5.882851e-04 9.628528e-04 1.445936e-03 -3.065851e-04 -1.074932e-03 -2.015217e-03 -4.038079e-04 -1.132794e-03 4.800501e-05 -1.246288e-03 3.900973e-04 -9.949919e-04 6.504967e-04 -3.790991e-04 1.612494e-03 6.368511e-04 1.714025e-03 8.160797e-04 5.545606e-04 -6.585245e-04 -1.150906e-03 -1.113617e-04 -3.332436e-04 1.099730e-03 -2.968919e-04 1.355636e-03 -7.313748e-04 2.049496e-03 -9.042796e-04 5.108734e-04 -2.825942e-03 6.203911e-04 -1.759424e-03 5.158932e-04 -2.351140e-03 -1.419492e-04 -1.363543e-03 1.155952e-03 7.603976e-04 9.430506e-03 4.966089e-02 3.656007e-02 1.959240e-02 1.167292e-02 4.425820e-03 
-2.008107e-03 -8.151601e-03 -1.546084e-02 -2.412245e-02 -3.512635e-02 9.277147e-03 8.588687e-03 -3.683850e-03 6.285282e-03 -1.248716e-03 6.499029e-03 1.946161e-03 5.425252e-03 -6.240738e-03 5.432170e-04 -2.436308e-03 9.703355e-04 -6.224130e-04 8.914178e-04 6.151306e-04 3.026254e-03 -2.596770e-03 -3.213589e-03 -1.789196e-03 -2.203848e-03 -2.077080e-03 -1.532611e-03 -1.502767e-03 -1.257187e-03 -7.047798e-04 -1.449989e-03 -1.340962e-03 -1.249025e-03 3.798746e-05 -9.223449e-04 2.894632e-04 -1.685627e-04 3.153517e-04 -1.317001e-03 7.308675e-05 -5.268419e-04 4.530983e-04 -3.866692e-04 4.614893e-04 -5.490599e-04 3.233270e-04 -3.475269e-04 2.264742e-04 -4.193832e-04 -1.339988e-04 -2.174526e-04 -4.787051e-06 -2.676262e-04 1.694596e-04 6.512808e-04 4.888303e-04 1.843024e-04 3.013346e-04 4.785833e-04 5.735920e-05 -2.934069e-04 -9.435347e-04 -1.412036e-03 -1.793387e-03 -8.763108e-04 -2.943631e-04 9.977248e-04 1.728448e-03 2.567039e-03 1.324762e-03 6.022295e-04 -1.016509e-03 -8.354896e-04 -1.070047e-03 -1.995958e-04 -9.406530e-04 -1.527189e-04 -2.744988e-04 -1.726375e-04 -1.098074e-03 -1.168914e-03 -8.977724e-04 -4.665708e-04 8.966886e-04 1.972182e-03 2.917059e-03 8.724786e-04 -4.417249e-06 -1.893717e-03 -9.921015e-04 -2.256325e-03 -3.978086e-04 -1.309955e-03 3.890470e-04 -1.488756e-03 4.713643e-04 -1.561441e-04 2.086166e-03 8.919748e-04 1.637826e-03 4.411088e-04 -7.249372e-04 -1.702169e-03 -1.904859e-03 1.224054e-03 8.264474e-04 3.050541e-03 -1.823361e-04 1.770981e-03 -2.413498e-03 1.616988e-03 -2.240546e-03 1.396746e-03 -3.105085e-03 1.939366e-03 -1.530979e-03 1.068065e-03 -3.015994e-03 -1.901735e-03 -2.666764e-03 -2.834011e-03 4.455764e-03 -1.356694e-02 3.683567e-02 3.704004e-02 1.366567e-02 9.926325e-03 1.778269e-03 
-9.926293e-04 -3.058863e-03 -5.730853e-03 -6.516833e-03 -8.595687e-03 1.973761e-02 8.780279e-03 -8.914837e-03 2.777048e-03 -7.243294e-03 1.366096e-03 -1.033306e-02 1.338124e-03 7.958077e-03 5.544598e-03 1.549747e-03 1.772699e-03 -6.539670e-04 -2.336145e-03 -3.885384e-03 -9.338193e-03 1.954395e-03 5.384944e-03 3.150286e-03 2.487362e-03 2.490545e-04 -9.874863e-05 -7.689447e-04 -3.084222e-05 7.792989e-04 5.805634e-04 3.066223e-04 -6.764206e-04 -5.350459e-04 -1.023808e-03 2.132213e-04 2.017475e-04 5.234725e-04 -6.107476e-04 -1.642795e-05 -2.002683e-04 6.373302e-04 2.930620e-05 2.011192e-04 -2.869392e-04 4.527908e-04 5.050891e-04 8.115237e-04 4.101455e-04 2.344316e-04 2.043095e-04 2.904953e-04 3.256428e-04 2.775060e-04 4.896144e-04 3.658634e-04 3.248689e-04 3.652319e-04 1.199773e-04 -5.271950e-04 -1.172133e-03 -1.596704e-03 -1.725082e-03 -1.645617e-03 -9.899723e-04 -2.292046e-04 6.808789e-04 1.085912e-03 1.369655e-03 7.392254e-04 4.299210e-04 -5.364856e-04 -2.939546e-04 -7.296674e-05 8.241548e-04 4.015133e-04 5.054571e-04 1.093635e-04 1.859212e-04 -2.521207e-04 -5.769703e-04 -7.554779e-04 -4.374914e-04 5.538309e-04 1.163359e-03 1.770270e-03 9.274030e-04 8.588666e-04 -5.753697e-04 -6.133023e-04 -1.675183e-03 -3.697422e-04 -7.477769e-04 1.962383e-04 -9.848211e-04 2.332851e-04 -6.513733e-05 1.085120e-03 3.064946e-04 5.697565e-04 -1.647925e-04 -9.042766e-04 -9.441324e-04 -8.777983e-04 1.469399e-03 8.976717e-04 2.450567e-03 -1.554929e-04 1.232844e-03 -2.028063e-03 6.300976e-04 -1.894711e-03 1.552281e-03 -1.269482e-03 2.007994e-03 -3.567303e-04 1.412966e-03 -5.964485e-04 -4.945283e-04 2.982990e-04 -1.891696e-03 6.683733e-03 -1.819481e-02 1.950269e-03 1.015862e-02 1.721337e-03 3.081803e-03 -3.146294e-04 
-7.228404e-04 -1.252140e-03 -2.897567e-03 -1.696992e-03 -2.984174e-03 5.900578e-03 8.888814e-04 -5.349625e-03 -2.816443e-03 -7.772220e-03 -8.392363e-03 -1.699832e-02 -2.245740e-02 -2.392278e-02 -1.091198e-02 -6.574108e-03 -2.398108e-03 2.894472e-03 6.697200e-03 1.147753e-02 2.399048e-02 2.366326e-02 1.494885e-02 1.010705e-02 5.888352e-03 3.699630e-03 1.681087e-03 9.804177e-04 4.261386e-04 7.238557e-04 2.718540e-04 2.620947e-04 -4.802235e-04 -3.550921e-04 -6.562223e-04 -1.572533e-05 -1.138584e-04 1.239562e-04 -3.291813e-04 -7.754426e-05 -1.916194e-04 2.118490e-04 -2.491606e-05 7.501517e-05 -7.297960e-05 2.883115e-04 3.942729e-04 5.780921e-04 5.206343e-04 5.610981e-04 7.230730e-04 1.037939e-03 1.414201e-03 1.764611e-03 2.200355e-03 2.359729e-03 2.278688e-03 8.893590e-04 -4.221278e-04 -6.308722e-04 -1.621940e-03 -1.847385e-03 -2.024611e-03 -2.549729e-03 -2.629637e-03 -2.796226e-03 -3.553942e-03 -3.923473e-03 -4.504902e-03 -4.941324e-03 -3.972067e-03 -1.531396e-03 1.647224e-03 2.954381e-03 3.747374e-03 3.233119e-03 2.870199e-03 2.058966e-03 1.740133e-03 1.103832e-03 7.564244e-04 3.805608e-04 4.315674e-04 6.348478e-04 7.283928e-04 8.832174e-04 5.864618e-04 6.179464e-04 -8.645078e-05 -1.439299e-04 -6.870031e-04 -1.202546e-04 -4.292542e-04 5.331912e-05 -4.710266e-04 1.690585e-04 -1.006727e-04 4.533008e-04 7.319270e-05 2.727192e-04 -8.259314e-05 -2.702319e-04 -1.705896e-04 -1.631175e-04 7.452651e-04 3.521945e-04 1.098069e-03 -1.051541e-04 6.593567e-04 -9.010190e-04 3.279079e-04 -9.967793e-04 6.443881e-04 -7.466004e-04 6.430534e-04 -4.512745e-04 3.009885e-04 -2.670702e-04 -3.649856e-04 5.683784e-04 -8.599823e-04 3.803242e-03 -5.625804e-03 -2.102964e-04 2.034765e-03 1.189238e-03 1.308674e-03 1.678088e-04 
