# vtk DataFile Version 2.0
Comment goes here
ASCII

DATASET STRUCTURED_POINTS
FIELD FieldData 1
TIME 1 1 double
0.27000000
DIMENSIONS    128   16   1

ORIGIN    0.000   0.000   0.000
SPACING   0.0078125 0.015625   1.000

POINT_DATA   2048
SCALARS uY double
LOOKUP_TABLE default

1.261879e-05 1.278880e-05 9.030726e-06 1.057110e-05 5.743691e-06 8.555558e-06 5.328763e-07 -1.130445e-06 -1.332203e-05 -1.843347e-05 -2.704851e-05 -3.058690e-05 -3.397017e-05 -4.104621e-05 -3.489861e-05 -4.734892e-05 -3.572244e-05 -5.217618e-05 -4.094640e-05 -5.977381e-05 -4.931305e-05 -6.151709e-05 -3.889892e-05 -6.297385e-05 -4.751467e-05 -6.436570e-05 -3.978460e-05 -2.622650e-05 5.641405e-06 3.146932e-05 2.405580e-05 3.187829e-05 -2.103297e-05 -9.128430e-06 -7.789616e-05 -4.345748e-05 -1.406741e-04 -1.248207e-04 -2.654206e-04 -2.534930e-04 -4.053918e-04 -3.943317e-04 -5.595845e-04 -5.883937e-04 -7.963760e-04 -8.842699e-04 -1.114998e-03 -1.268606e-03 -1.515863e-03 -1.735618e-03 -1.963555e-03 -2.177528e-03 -2.301645e-03 -2.396474e-03 -2.419550e-03 -2.401069e-03 -2.722470e-03 -1.264525e-03 7.100167e-04 4.273596e-04 2.048719e-03 2.205800e-03 2.747918e-03 3.239749e-03 3.303773e-03 3.228355e-03 3.375226e-03 2.451861e-03 2.172483e-03 1.466481e-03 1.924856e-03 2.233971e-03 1.610521e-03 1.150983e-03 7.752274e-04 6.939085e-04 2.528436e-04 2.013990e-04 -2.603570e-04 -2.179815e-04 -5.877266e-04 -4.013975e-04 -6.320881e-04 -3.660397e-04 -5.212227e-04 -2.719788e-04 -3.899951e-04 -1.753020e-04 -2.315434e-04 -6.041068e-05 -8.627623e-05 2.299334e-06 -7.895802e-06 1.095562e-05 2.526432e-05 -3.457384e-06 3.639213e-05 -2.281869e-05 4.699901e-05 -1.651701e-05 6.918220e-05 -1.168824e-05 5.212519e-05 -4.635544e-05 -2.594975e-06 -8.597990e-05 -4.780237e-05 -1.087596e-04 -8.218769e-05 -1.084708e-04 -8.233122e-05 -7.343940e-05 -6.236914e-05 -4.544568e-05 -5.675671e-05 -2.415411e-05 -3.019384e-05 2.822526e-05 2.457520e-05 7.166031e-05 4.603647e-05 6.413474e-05 3.432621e-05 3.545274e-05 2.325684e-05 2.369117e-05 1.723300e-05 1.683301e-05 
-7.242608e-04 -1.089283e-03 -2.914740e-03 -1.493785e-03 -3.024538e-03 6.207638e-03 1.362793e-03 -5.614913e-03 -3.422023e-03 -8.789964e-03 -9.592796e-03 -1.832098e-02 -2.350994e-02 -2.489565e-02 -1.151972e-02 -7.207468e-03 -2.874515e-03 2.584495e-03 6.625902e-03 1.185066e-02 2.488200e-02 2.468129e-02 1.590860e-02 1.057603e-02 6.416867e-03 4.397334e-03 2.626101e-03 1.914550e-03 1.101191e-03 9.779381e-04 4.486646e-04 5.578666e-04 6.188653e-05 3.232960e-04 -1.553674e-04 2.609355e-04 -2.307917e-04 2.020786e-04 -3.334601e-04 1.251389e-04 -3.720129e-04 8.968141e-05 -3.513162e-04 2.443741e-05 -4.178728e-04 -1.772264e-04 -5.768282e-04 -4.805927e-04 -8.063983e-04 -8.683222e-04 -1.094564e-03 -1.332391e-03 -1.461871e-03 -2.212893e-03 -3.101405e-03 -7.209382e-03 -1.121392e-02 -1.049740e-03 5.563316e-03 -1.140860e-03 1.555257e-03 1.227735e-03 1.735627e-04 2.697421e-03 1.051610e-03 1.553457e-03 5.092282e-03 4.244533e-03 6.820178e-03 1.347419e-02 1.888097e-02 6.641842e-03 -1.052970e-02 -1.268698e-02 -7.808167e-03 -4.214969e-03 -2.109539e-03 -8.395006e-04 -4.451355e-04 2.824289e-05 -1.691263e-04 1.696359e-04 -1.580358e-04 2.405840e-04 -1.503449e-04 2.818878e-04 -1.956108e-04 2.863485e-04 -1.929419e-04 3.571376e-04 -1.489579e-04 3.714398e-04 -1.613499e-04 2.981061e-04 -1.868761e-04 2.256375e-04 -1.071609e-04 1.933883e-04 2.557485e-05 1.091091e-04 1.219533e-04 -8.050038e-05 1.823792e-04 -3.049625e-04 2.678184e-04 -4.861859e-04 3.943013e-04 -6.460330e-04 4.817364e-04 -7.405323e-04 5.932015e-04 -6.997967e-04 6.613389e-04 -5.864657e-04 5.922231e-04 -3.514264e-04 4.097203e-04 1.728723e-04 1.160959e-04 1.280695e-03 -2.732429e-04 4.203885e-03 -4.497688e-03 -5.247014e-04 1.582560e-03 1.288141e-03 1.278248e-03 3.623487e-04 
-1.331176e-03 -3.189107e-03 -6.243829e-03 -6.581430e-03 -8.945811e-03 2.055484e-02 1.018865e-02 -8.980922e-03 2.082458e-03 -8.574708e-03 3.008396e-04 -1.080128e-02 1.762563e-03 8.162448e-03 5.702673e-03 1.449192e-03 1.475971e-03 -9.309923e-04 -2.532458e-03 -4.069371e-03 -9.536336e-03 1.905620e-03 5.092045e-03 2.392310e-03 2.356811e-03 9.020861e-04 1.081156e-03 5.430459e-04 6.907421e-04 6.561166e-04 4.220843e-04 5.360759e-04 -8.082941e-05 2.775802e-04 -4.284031e-04 3.066886e-04 -4.714394e-04 2.153225e-04 -7.766929e-04 -2.953609e-05 -8.872045e-04 -5.969633e-05 -7.634245e-04 -1.510388e-04 -1.013834e-03 -7.591184e-04 -1.592666e-03 -1.638461e-03 -2.406007e-03 -2.801477e-03 -3.580310e-03 -4.511450e-03 -5.486701e-03 -7.684843e-03 -1.032008e-02 -1.754299e-02 -2.345361e-02 -2.395981e-03 1.204937e-02 2.164649e-03 7.541915e-03 6.977264e-03 5.760922e-03 1.055216e-02 8.710957e-03 1.047661e-02 1.450477e-02 1.210837e-02 1.397076e-02 1.485160e-02 1.868466e-02 1.220085e-02 -4.918027e-03 -1.364553e-02 -1.227764e-02 -8.890819e-03 -6.126343e-03 -4.145617e-03 -3.180039e-03 -2.284424e-03 -2.159933e-03 -1.416595e-03 -1.475253e-03 -6.604828e-04 -1.001739e-03 -2.614208e-04 -9.492202e-04 -8.793033e-05 -7.863062e-04 2.839741e-04 -5.826378e-04 4.263184e-04 -5.940551e-04 3.155245e-04 -6.755464e-04 2.356412e-04 -4.480917e-04 3.104467e-04 -5.122433e-05 2.905637e-04 1.981641e-04 -1.181219e-04 2.352810e-04 -6.381659e-04 4.336303e-04 -8.932967e-04 8.527806e-04 -1.166526e-03 1.012153e-03 -1.459875e-03 1.245827e-03 -1.348422e-03 1.532610e-03 -1.116435e-03 1.435121e-03 -8.480601e-04 1.052891e-03 -4.767963e-05 5.515118e-04 1.870923e-03 -5.899215e-04 7.438314e-03 -1.567230e-02 5.370036e-04 8.892514e-03 2.442663e-03 3.124620e-03 -5.150694e-05 
-1.755703e-03 -8.248796e-03 -1.642473e-02 -2.520871e-02 -3.612698e-02 9.278038e-03 8.788447e-03 -3.554907e-03 6.365892e-03 -1.570665e-03 6.449223e-03 2.221090e-03 5.548778e-03 -6.238328e-03 6.000287e-04 -2.402852e-03 6.602407e-04 -7.971702e-04 1.175735e-03 8.341808e-04 3.256203e-03 -3.303885e-03 -4.258737e-03 -3.060286e-03 -2.515721e-03 -2.096451e-03 -1.469722e-03 -1.079465e-03 -5.286987e-04 -9.327238e-05 -1.304018e-04 1.657068e-04 -4.907118e-04 1.117891e-04 -7.154125e-04 4.340329e-04 -5.705047e-04 4.981824e-04 -1.012755e-03 2.469093e-04 -9.520437e-04 6.843448e-04 -2.214231e-04 1.132087e-03 -2.339465e-04 5.513024e-04 -6.580014e-04 4.315410e-05 -6.518532e-04 2.790828e-04 2.336709e-04 1.335309e-03 1.857568e-03 3.045794e-03 4.015973e-03 6.618490e-03 9.289246e-03 8.524745e-04 -4.003912e-03 -1.861779e-03 -3.340963e-03 -5.093481e-03 -4.017343e-03 -6.815045e-03 -4.014256e-03 -4.874134e-03 -5.638071e-03 -6.548355e-03 -6.643510e-03 -1.132830e-02 -1.541110e-02 -8.466820e-03 7.390732e-03 1.117312e-02 8.630784e-03 6.568683e-03 5.010542e-03 4.201072e-03 2.820900e-03 2.055364e-03 8.462306e-04 9.294004e-04 3.313337e-04 9.863551e-04 1.828044e-04 8.132651e-04 -3.660924e-04 6.871085e-04 -3.340271e-04 1.106873e-03 -2.650627e-04 1.086750e-03 -5.648323e-04 7.024429e-04 -9.413303e-04 4.410981e-04 -7.757692e-04 5.327283e-04 -1.240267e-04 7.075341e-04 2.975673e-04 -4.606204e-06 2.301270e-05 -1.045203e-03 2.176176e-04 -1.257465e-03 1.104116e-03 -1.481514e-03 1.331254e-03 -2.109538e-03 1.576620e-03 -1.927156e-03 2.257745e-03 -1.534601e-03 2.112007e-03 -1.683951e-03 1.216767e-03 -1.338110e-03 3.503714e-04 -1.856652e-06 -1.881393e-03 3.204704e-03 -1.502095e-02 3.208440e-02 3.678191e-02 1.661926e-02 1.178279e-02 3.231071e-03 
-2.136256e-03 -9.777311e-03 -1.752419e-02 -2.858863e-02 -3.975146e-02 -2.408563e-02 -8.013872e-03 -7.992346e-04 4.355722e-04 -3.613955e-03 2.701795e-05 -5.636418e-03 -1.770116e-03 -1.148416e-04 1.543673e-04 -3.765185e-04 2.305393e-04 -2.349519e-04 2.122734e-04 2.174070e-05 8.037607e-05 2.669614e-03 3.232425e-03 7.043270e-04 1.394822e-03 -4.917612e-04 7.969168e-04 -5.165903e-04 6.856882e-04 -2.116352e-04 5.466249e-04 -5.948177e-05 1.622941e-04 6.546672e-05 -7.653521e-05 3.179126e-04 -1.782578e-04 4.103535e-04 -5.919916e-04 2.907455e-04 -6.193933e-04 6.643322e-04 -1.812448e-04 9.612174e-04 -3.323756e-04 3.808907e-04 -8.612524e-04 -1.816407e-04 -1.005484e-03 -1.027230e-04 -3.519264e-04 5.526565e-04 6.935173e-04 1.363177e-03 1.445104e-03 1.107021e-03 5.523691e-04 -1.493517e-04 -9.839565e-05 -1.726706e-04 2.723301e-04 -5.745970e-04 8.453451e-04 7.720622e-04 2.596323e-03 2.722656e-03 5.604717e-03 5.627807e-03 6.162014e-03 7.888787e-03 1.240909e-02 2.586534e-03 -1.152806e-02 -1.236884e-02 -8.253708e-03 -5.526806e-03 -3.725472e-03 -2.410379e-03 -1.975903e-03 -1.497526e-03 -1.591499e-03 -9.332180e-04 -9.451689e-04 -1.495822e-04 -5.241178e-04 1.331166e-04 -5.361648e-04 3.924850e-04 -2.725747e-04 8.122667e-04 -2.035221e-04 8.194970e-04 -4.240409e-04 5.860338e-04 -6.954079e-04 3.894819e-04 -7.041047e-04 3.791135e-04 -3.104648e-04 5.431987e-04 -3.527709e-06 5.675927e-05 -2.818210e-04 -7.297570e-04 -1.681682e-04 -8.290964e-04 5.452828e-04 -8.690907e-04 8.108662e-04 -1.320114e-03 9.811162e-04 -1.224377e-03 1.579627e-03 -9.132685e-04 1.591339e-03 -1.161608e-03 9.827021e-04 -1.180921e-03 6.645654e-04 -6.638326e-04 3.274843e-04 -5.544710e-04 9.262209e-03 5.043904e-02 3.928639e-02 2.156327e-02 1.267254e-02 4.400159e-03 
-1.189773e-03 -4.394006e-03 -8.428621e-03 -1.189715e-02 -1.696890e-02 -2.156897e-02 -1.116811e-02 -2.032607e-03 -4.578370e-03 -5.948128e-03 -5.287370e-03 -1.106207e-02 -5.751517e-03 -7.060872e-05 1.708455e-04 -4.170924e-04 2.512763e-04 -2.606093e-04 2.447448e-04 1.250619e-05 3.405935e-05 7.269336e-03 8.567906e-03 3.886843e-03 3.744700e-03 1.350735e-03 1.776131e-03 4.066252e-04 8.366841e-04 3.587605e-05 3.532625e-04 -3.303391e-05 8.242925e-05 3.842356e-05 -1.048537e-04 6.838906e-05 -3.233523e-04 6.320487e-05 -5.400981e-04 -6.453712e-06 -7.079882e-04 -7.855735e-05 -8.884637e-04 -3.560647e-04 -1.355014e-03 -1.096537e-03 -2.222525e-03 -2.279124e-03 -3.503332e-03 -4.023131e-03 -5.463029e-03 -6.919889e-03 -8.980790e-03 -1.227951e-02 -1.652458e-02 -2.661721e-02 -3.465662e-02 -2.663079e-03 1.720443e-02 2.740542e-03 1.021978e-02 8.872326e-03 6.591778e-03 1.200729e-02 8.267091e-03 9.657282e-03 1.321631e-02 8.961512e-03 1.121484e-02 1.213964e-02 1.028347e-02 1.229270e-02 7.037938e-03 -4.038687e-03 -6.625435e-03 -4.453435e-03 -2.779817e-03 -1.478177e-03 -1.064580e-03 -4.767751e-04 -5.302855e-04 -7.515149e-05 -2.788470e-04 1.716256e-04 -1.775855e-04 2.948658e-04 -1.252010e-04 4.483027e-04 -5.498350e-05 5.367999e-04 -9.581376e-05 5.087820e-04 -1.863238e-04 4.305212e-04 -2.611286e-04 3.262761e-04 -3.096144e-04 2.177921e-04 -2.327906e-04 1.624835e-04 -1.223929e-04 -3.553258e-05 -1.325760e-04 -3.217137e-04 -3.368810e-05 -4.385719e-04 2.287767e-04 -4.723450e-04 4.432831e-04 -5.685727e-04 5.762047e-04 -5.290590e-04 7.900123e-04 -3.339045e-04 8.746407e-04 -1.539668e-04 8.285235e-04 2.999267e-04 1.130272e-03 1.418499e-03 2.473481e-03 2.870088e-03 1.377339e-02 2.522617e-02 1.473415e-02 1.177255e-02 6.150082e-03 3.328283e-03 
-1.016251e-03 -3.336858e-03 -5.712521e-03 -7.484738e-03 -8.901765e-03 -9.243809e-03 -7.790495e-03 -7.292070e-03 -6.962599e-03 -1.027610e-02 -9.730454e-03 -1.702514e-02 -1.319768e-02 -9.359904e-05 2.949580e-05 -1.005617e-04 6.038435e-05 -7.456939e-05 6.442928e-05 -2.364391e-05 7.937378e-05 1.467432e-02 1.610042e-02 7.778474e-03 7.365016e-03 3.376432e-03 3.701896e-03 1.546981e-03 1.939767e-03 7.380053e-04 1.028373e-03 3.827685e-04 4.969887e-04 2.332694e-04 1.625695e-04 1.708205e-04 -7.867621e-05 1.128159e-04 -2.990623e-04 2.141362e-05 -4.825525e-04 -9.464696e-05 -6.828975e-04 -3.545414e-04 -1.067434e-03 -9.106762e-04 -1.723755e-03 -1.800136e-03 -2.712045e-03 -3.107796e-03 -4.144647e-03 -4.969965e-03 -6.158448e-03 -7.580771e-03 -9.366469e-03 -1.315038e-02 -1.647869e-02 -2.221995e-03 6.773605e-03 -1.432028e-03 2.696091e-03 1.698355e-03 -2.565116e-04 1.330215e-03 -6.772954e-04 -8.690349e-04 -3.509645e-04 -3.389735e-03 -5.064046e-04 -5.362573e-04 -1.009984e-02 2.388648e-03 2.392296e-02 1.924861e-02 1.014959e-02 7.113693e-03 5.099453e-03 4.202127e-03 2.936285e-03 2.448135e-03 1.546555e-03 1.410924e-03 7.717522e-04 8.912789e-04 3.697008e-04 6.374181e-04 1.553484e-04 5.356026e-04 6.197356e-05 5.005926e-04 -8.934404e-06 4.397956e-04 -9.235662e-05 3.464078e-04 -1.629416e-04 2.505458e-04 -1.785852e-04 1.720495e-04 -1.257253e-04 9.456858e-05 -6.412903e-05 -5.774974e-05 -3.670041e-05 -2.388561e-04 5.072271e-05 -3.396318e-04 2.189649e-04 -3.934407e-04 3.720582e-04 -4.326902e-04 5.158493e-04 -3.709820e-04 6.856747e-04 -2.062858e-04 8.150575e-04 6.186190e-05 9.798267e-04 6.647166e-04 1.483728e-03 2.001337e-03 2.762450e-03 4.546349e-03 5.859989e-03 1.039953e-02 7.571028e-03 6.790505e-03 3.846838e-03 1.801003e-03 
-4.017946e-04 -1.204337e-03 -2.235112e-03 -3.084435e-03 -3.607441e-03 -4.367728e-03 -3.690337e-03 -3.663178e-03 -3.644583e-03 -5.021943e-03 -4.859819e-03 -8.390269e-03 -6.414499e-03 -4.625867e-05 2.792525e-05 -7.479801e-05 4.861803e-05 -6.062810e-05 4.563180e-05 -2.376935e-05 3.592095e-05 7.407482e-03 8.096707e-03 3.722007e-03 3.467355e-03 1.511989e-03 1.604164e-03 6.178775e-04 7.358151e-04 2.262569e-04 3.031831e-04 5.482146e-05 5.604841e-05 -3.383662e-05 -1.246655e-04 -1.179019e-04 -3.045065e-04 -2.391158e-04 -5.171388e-04 -4.313452e-04 -7.916617e-04 -7.303995e-04 -1.180352e-03 -1.208102e-03 -1.768232e-03 -1.953956e-03 -2.642968e-03 -3.045320e-03 -3.884244e-03 -4.533350e-03 -5.496668e-03 -6.293402e-03 -7.207425e-03 -7.786229e-03 -8.339100e-03 -8.169912e-03 -8.172218e-03 -4.447021e-03 2.254308e-04 2.952616e-04 2.993346e-03 3.460925e-03 4.106850e-03 4.968282e-03 5.028877e-03 5.180197e-03 5.676013e-03 5.000187e-03 5.308780e-03 5.127669e-03 4.366540e-03 5.318935e-03 5.547812e-03 3.698494e-03 2.573285e-03 2.335067e-03 1.896744e-03 1.751485e-03 1.227740e-03 1.134292e-03 6.579494e-04 6.832417e-04 3.004186e-04 4.290252e-04 1.186381e-04 3.069581e-04 4.303547e-05 2.584517e-04 1.828192e-05 2.306394e-04 -2.384505e-07 1.941561e-04 -2.412589e-05 1.452490e-04 -4.919811e-05 8.844911e-05 -6.708465e-05 3.193147e-05 -6.501867e-05 -1.813802e-05 -4.918357e-05 -7.472490e-05 -3.019177e-05 -1.292220e-04 1.125996e-05 -1.551125e-04 7.986066e-05 -1.548431e-04 1.539737e-04 -1.374714e-04 2.260035e-04 -8.424368e-05 3.068637e-04 1.679147e-05 3.952362e-04 1.818872e-04 5.391347e-04 4.967832e-04 8.789274e-04 1.109868e-03 1.620507e-03 2.195578e-03 2.925668e-03 4.137121e-03 2.903441e-03 2.894342e-03 1.461946e-03 9.057786e-04 
-4.036109e-06 -1.754463e-06 -6.918806e-06 -4.955296e-06 -9.607319e-06 -7.292485e-06 -1.244185e-05 -8.922261e-06 -1.443919e-05 -9.238106e-06 -1.405163e-05 -8.210593e-06 -1.353114e-05 -4.655291e-06 -4.825488e-06 -6.091508e-06 -8.083923e-06 -8.693511e-06 -1.276921e-05 -1.258386e-05 -1.839462e-05 -7.920431e-05 -6.179599e-05 -7.037963e-05 -6.067011e-05 -6.652203e-05 -5.441798e-05 -4.829382e-05 -3.848186e-05 -2.344141e-05 -2.702101e-05 -8.908872e-06 -3.335900e-05 -1.330152e-05 -6.157189e-05 -4.444422e-05 -1.229714e-04 -1.195209e-04 -2.337544e-04 -2.532671e-04 -4.030611e-04 -4.598141e-04 -6.535147e-04 -7.733914e-04 -1.024816e-03 -1.235656e-03 -1.556666e-03 -1.885221e-03 -2.287738e-03 -2.742873e-03 -3.202093e-03 -3.712348e-03 -4.109946e-03 -4.473516e-03 -4.618657e-03 -4.535318e-03 -4.192463e-03 -2.837210e-03 -1.201506e-03 -1.579517e-03 -4.433999e-04 -7.415605e-04 -5.370965e-04 -5.448090e-04 -6.234398e-04 -6.771669e-04 -5.320308e-04 -5.247912e-04 -7.826914e-05 8.490481e-04 1.259854e-03 3.421005e-03 5.857090e-03 6.223199e-03 5.971408e-03 5.622847e-03 4.801140e-03 4.310201e-03 3.391436e-03 2.993470e-03 2.207843e-03 1.974634e-03 1.385667e-03 1.288140e-03 8.742731e-04 8.508461e-04 5.738517e-04 5.761654e-04 4.036876e-04 3.973010e-04 2.995174e-04 2.650302e-04 2.213389e-04 1.558159e-04 1.528444e-04 6.386987e-05 9.256406e-05 -6.350602e-06 4.830620e-05 -4.696974e-05 2.292293e-05 -6.407478e-05 6.580495e-06 -6.745100e-05 -1.670826e-06 -5.524058e-05 2.134848e-06 -2.988613e-05 1.389905e-05 2.064305e-06 3.118186e-05 3.666869e-05 4.850197e-05 6.214075e-05 5.488983e-05 7.229919e-05 5.306048e-05 7.407599e-05 4.887128e-05 6.698784e-05 3.694326e-05 4.721900e-05 1.964959e-05 2.584754e-05 7.317595e-06 1.164135e-05 1.160814e-07 3.219010e-06 
3.914471e-04 1.199906e-03 2.219559e-03 3.073926e-03 3.586079e-03 4.352388e-03 3.662310e-03 3.646087e-03 3.613686e-03 5.009028e-03 4.833919e-03 8.385853e-03 6.392758e-03 3.960608e-05 -3.421930e-05 6.691404e-05 -5.936647e-05 4.873241e-05 -6.413254e-05 5.148469e-06 -6.801081e-05 -7.580357e-03 -8.237572e-03 -3.888705e-03 -3.618360e-03 -1.684258e-03 -1.758941e-03 -7.738079e-04 -8.835222e-04 -3.608268e-04 -4.560457e-04 -1.903585e-04 -2.527488e-04 -1.464941e-04 -1.711775e-04 -1.802992e-04 -1.799364e-04 -2.869323e-04 -2.799983e-04 -4.717173e-04 -4.709155e-04 -7.360615e-04 -7.594972e-04 -1.092315e-03 -1.151181e-03 -1.542554e-03 -1.645560e-03 -2.088940e-03 -2.240275e-03 -2.710718e-03 -2.871816e-03 -3.279112e-03 -3.335702e-03 -3.516931e-03 -3.310188e-03 -3.114673e-03 -2.502387e-03 -1.878382e-03 -6.961839e-04 -3.185815e-04 6.956358e-04 9.946757e-04 1.593362e-03 1.855012e-03 2.146553e-03 2.274775e-03 2.414847e-03 2.452003e-03 2.474369e-03 2.639354e-03 2.562406e-03 2.853347e-03 2.710721e-03 2.714046e-03 2.283658e-03 2.237943e-03 1.695167e-03 1.629844e-03 1.085600e-03 1.053246e-03 6.028349e-04 6.181665e-04 3.074612e-04 3.435525e-04 1.723648e-04 1.829393e-04 1.357025e-04 8.824130e-05 1.468111e-04 2.377499e-05 1.672328e-04 -2.958638e-05 1.745426e-04 -8.178192e-05 1.542380e-04 -1.330813e-04 1.079771e-04 -1.689563e-04 5.484472e-05 -1.655799e-04 1.670384e-05 -1.164450e-04 -1.286701e-05 -4.678876e-05 -4.859070e-05 2.611139e-05 -8.778783e-05 9.547647e-05 -1.229200e-04 1.514111e-04 -1.530076e-04 1.727996e-04 -1.930098e-04 1.258339e-04 -2.687353e-04 -2.497015e-05 -4.253168e-04 -3.468700e-04 -7.823906e-04 -9.810195e-04 -1.553951e-03 -2.112178e-03 -2.897911e-03 -4.095767e-03 -2.896513e-03 -2.876796e-03 -1.465926e-03 -9.018133e-04 
1.003349e-03 3.326460e-03 5.698028e-03 7.471398e-03 8.883068e-03 9.226354e-03 7.762161e-03 7.268750e-03 6.923771e-03 1.025146e-02 9.700002e-03 1.701789e-02 1.318379e-02 8.588226e-05 -3.502913e-05 9.300176e-05 -7.084519e-05 6.233442e-05 -8.662209e-05 -8.227817e-07 -1.256701e-04 -1.483141e-02 -1.623119e-02 -7.961275e-03 -7.529063e-03 -3.568701e-03 -3.846065e-03 -1.667060e-03 -1.997558e-03 -7.442174e-04 -1.013472e-03 -3.285975e-04 -4.814296e-04 -1.596019e-04 -1.613791e-04 -9.410227e-05 1.808290e-05 -1.318211e-04 4.772732e-05 -2.589169e-04 -2.656695e-05 -4.311330e-04 -1.826461e-04 -6.474626e-04 -3.952235e-04 -8.622417e-04 -6.119943e-04 -1.069004e-03 -8.715785e-04 -1.338235e-03 -1.207238e-03 -1.636777e-03 -1.501936e-03 -1.800930e-03 -1.591271e-03 -1.715497e-03 -1.383871e-03 -1.330409e-03 -8.354067e-04 -8.884292e-04 -4.873744e-04 -5.449977e-04 -3.652391e-04 -3.525747e-04 -3.185850e-04 -2.131277e-04 -2.058380e-04 6.580819e-05 1.335936e-04 7.098387e-04 8.744220e-04 1.658056e-03 1.874660e-03 2.431870e-03 2.242598e-03 2.542255e-03 2.072024e-03 2.204963e-03 1.627617e-03 1.665098e-03 1.137327e-03 1.142746e-03 7.948818e-04 7.653335e-04 6.181972e-04 4.897296e-04 5.359177e-04 2.870132e-04 5.254339e-04 1.438166e-04 5.336985e-04 2.235682e-05 5.161763e-04 -8.759554e-05 4.490853e-04 -1.988897e-04 3.083247e-04 -2.962417e-04 1.523967e-04 -2.779529e-04 7.776993e-05 -1.218803e-04 2.036728e-05 4.389629e-05 -1.005885e-04 1.778181e-04 -2.456507e-04 3.079609e-04 -3.657893e-04 4.267474e-04 -4.530770e-04 4.814505e-04 -5.443865e-04 3.922954e-04 -6.720754e-04 1.164940e-04 -8.641942e-04 -4.811868e-04 -1.355323e-03 -1.817061e-03 -2.667504e-03 -4.445919e-03 -5.840669e-03 -1.037644e-02 -7.576434e-03 -6.789704e-03 -3.858301e-03 -1.807970e-03 
1.175717e-03 4.380969e-03 8.415807e-03 1.188153e-02 1.695065e-02 2.154143e-02 1.112456e-02 1.990932e-03 4.514640e-03 5.914887e-03 5.256706e-03 1.108580e-02 5.766007e-03 7.808602e-05 -1.694796e-04 4.202591e-04 -2.488343e-04 2.595628e-04 -2.409521e-04 -2.591580e-05 -4.847619e-05 -7.384583e-03 -8.707758e-03 -4.134351e-03 -3.975541e-03 -1.619244e-03 -1.970902e-03 -5.797018e-04 -9.359673e-04 -8.557902e-05 -3.595987e-04 6.085970e-05 -7.427226e-05 5.247596e-05 1.404415e-04 4.132370e-05 2.964603e-04 -3.949641e-05 2.962263e-04 -2.229120e-04 2.026372e-04 -4.184070e-04 1.820565e-05 -6.650673e-04 -2.006099e-04 -8.310662e-04 -3.342618e-04 -9.004297e-04 -4.715064e-04 -1.027670e-03 -7.007131e-04 -1.197118e-03 -8.850747e-04 -1.208778e-03 -8.788490e-04 -1.039355e-03 -6.444767e-04 -5.187803e-04 7.683748e-05 1.458446e-04 6.246326e-04 7.296468e-04 9.610288e-04 1.106643e-03 1.131542e-03 1.269533e-03 1.178347e-03 1.304045e-03 1.071394e-03 1.292505e-03 9.573106e-04 1.161435e-03 5.441865e-04 8.009486e-04 2.239772e-04 5.714249e-04 2.500583e-05 3.751243e-04 -1.293522e-04 1.495224e-04 -2.672963e-04 -5.126522e-05 -2.427013e-04 -9.971618e-05 -7.151632e-05 -1.176230e-04 1.131114e-04 -1.382127e-04 2.929932e-04 -1.816048e-04 4.259471e-04 -2.264504e-04 5.103321e-04 -2.914710e-04 4.796271e-04 -4.027475e-04 3.226149e-04 -5.185475e-04 1.226193e-04 -4.908848e-04 5.370566e-05 -2.368434e-04 3.227506e-05 2.450620e-05 -9.358776e-05 2.222722e-04 -2.725818e-04 3.999147e-04 -4.225826e-04 5.785766e-04 -4.973030e-04 7.012983e-04 -5.617119e-04 6.368319e-04 -6.459148e-04 3.964928e-04 -6.962091e-04 -9.424306e-05 -9.839517e-04 -1.193411e-03 -2.372740e-03 -2.802463e-03 -1.381986e-02 -2.525765e-02 -1.476478e-02 -1.179306e-02 -6.170050e-03 -3.343556e-03 
2.120983e-03 9.759180e-03 1.751946e-02 2.857461e-02 3.975219e-02 2.407994e-02 7.990938e-03 7.569059e-04 -5.530623e-04 3.508887e-03 -1.009770e-04 5.671862e-03 1.845984e-03 1.325573e-04 -1.480667e-04 3.919286e-04 -2.084562e-04 2.579075e-04 -1.832427e-04 -2.560271e-05 -1.073470e-04 -2.730565e-03 -3.359478e-03 -1.076931e-03 -1.834081e-03 -8.928097e-05 -1.251347e-03 2.005455e-04 -6.626973e-04 4.698452e-04 -1.760769e-04 3.398442e-04 -3.749943e-05 1.112044e-04 3.161865e-04 2.517615e-04 7.341614e-04 1.675882e-04 6.902739e-04 -1.449835e-04 5.844780e-04 -3.176341e-04 3.926463e-04 -6.413408e-04 8.688739e-05 -6.839781e-04 2.800198e-04 -2.188931e-04 5.852311e-04 -5.699072e-05 3.492896e-04 -3.471893e-04 -2.288277e-05 -4.605429e-04 -1.553993e-04 -4.686839e-04 -2.085933e-04 -1.842231e-04 3.098507e-04 3.537746e-04 6.015751e-04 5.278040e-04 4.302592e-04 4.116136e-04 2.161936e-04 3.543654e-04 1.085879e-04 3.246849e-04 -1.592017e-06 4.638469e-04 7.298987e-05 5.023809e-04 -2.917824e-04 1.636845e-04 -5.242122e-04 2.556415e-04 -1.994642e-04 5.980233e-04 1.070425e-05 3.876269e-04 -2.958356e-04 -1.344290e-05 -1.939762e-04 6.375151e-05 1.924841e-04 3.298062e-07 3.495037e-04 -1.406022e-04 6.701745e-04 -1.165664e-04 9.502591e-04 -2.192451e-04 1.052956e-03 -2.973308e-04 1.078773e-03 -4.893070e-04 6.097601e-04 -1.032099e-03 -5.434929e-05 -1.032057e-03 7.764433e-05 -1.856660e-04 2.842442e-04 3.119427e-04 -1.343934e-04 4.504736e-04 -6.439705e-04 7.256596e-04 -9.374942e-04 1.147276e-03 -1.004981e-03 1.526848e-03 -1.105839e-03 1.459944e-03 -1.330351e-03 1.299565e-03 -1.022574e-03 1.419998e-03 -3.198166e-04 1.226652e-03 -4.411629e-05 6.454923e-04 -9.452149e-03 -5.065163e-02 -3.938287e-02 -2.163582e-02 -1.270834e-02 -4.434456e-03 
1.757512e-03 8.245902e-03 1.643699e-02 2.521584e-02 3.615341e-02 -9.231207e-03 -8.752334e-03 3.562018e-03 -6.463021e-03 1.432631e-03 -6.569455e-03 -2.266099e-03 -5.534744e-03 6.269357e-03 -6.259015e-04 2.397290e-03 -6.570418e-04 8.275909e-04 -1.105317e-03 -8.921716e-04 -3.285364e-03 3.227667e-03 4.194944e-03 2.752214e-03 2.091763e-03 1.461857e-03 9.487935e-04 7.736816e-04 7.248989e-04 6.441466e-04 7.780944e-04 2.981297e-04 6.321188e-04 -2.414994e-05 8.619176e-04 1.930793e-04 1.209476e-03 9.560489e-05 1.001766e-03 -2.195573e-04 7.939029e-04 -3.126416e-04 5.960117e-04 -5.268792e-04 2.729335e-04 -4.184872e-04 6.161790e-04 3.514680e-04 1.147634e-03 7.077326e-04 9.385535e-04 3.963923e-04 4.867989e-04 1.948695e-04 3.101015e-04 1.411374e-04 1.999155e-04 1.503267e-04 2.796043e-04 4.614431e-04 4.294548e-04 3.685132e-04 1.206755e-04 6.081990e-05 -1.225380e-04 4.719239e-05 -2.045547e-04 6.824548e-05 -2.526100e-04 2.080550e-04 -2.777080e-04 1.511610e-04 -5.667201e-04 -1.489979e-04 -8.588911e-04 -3.219986e-05 -3.764754e-04 5.103758e-04 -3.542062e-05 2.742082e-04 -4.201365e-04 -2.017615e-04 -2.689337e-04 -8.474973e-05 1.858478e-04 -1.967319e-04 2.982095e-04 -3.958932e-04 7.330087e-04 -2.215691e-04 1.168341e-03 -2.888584e-04 1.279164e-03 -2.980325e-04 1.379829e-03 -4.128397e-04 7.686992e-04 -1.079041e-03 -1.259722e-04 -9.744902e-04 7.635078e-05 2.048998e-04 2.647527e-04 7.906269e-04 -4.681033e-04 8.569859e-04 -1.264876e-03 1.172898e-03 -1.692418e-03 1.672172e-03 -1.820890e-03 2.062752e-03 -1.944131e-03 1.863119e-03 -2.140051e-03 1.523105e-03 -1.481030e-03 1.517003e-03 6.080010e-05 7.022013e-04 2.280959e-03 -2.994050e-03 1.492430e-02 -3.227816e-02 -3.684781e-02 -1.667025e-02 -1.179514e-02 -3.249403e-03 
1.349532e-03 3.206047e-03 6.260538e-03 6.602427e-03 8.965789e-03 -2.050916e-02 -1.015320e-02 9.010457e-03 -2.109648e-03 8.516070e-03 -3.841667e-04 1.073104e-02 -1.845377e-03 -8.268196e-03 -5.785984e-03 -1.548145e-03 -1.538086e-03 8.436026e-04 2.463249e-03 3.932747e-03 9.391230e-03 -2.032367e-03 -5.115124e-03 -2.525992e-03 -2.517925e-03 -1.186891e-03 -1.309889e-03 -6.732993e-04 -5.716799e-04 -3.636148e-04 -1.192174e-04 -3.075006e-04 8.433762e-05 -3.263048e-04 2.911277e-04 -2.114936e-04 4.340806e-04 -2.797564e-04 3.025950e-04 -4.333066e-04 1.287196e-04 -5.209211e-04 -2.861318e-05 -6.165339e-04 -2.389493e-04 -6.153807e-04 -2.147987e-04 -3.794051e-04 -1.121319e-04 -3.024800e-04 -2.825390e-04 -4.669635e-04 -4.942259e-04 -5.324879e-04 -4.552288e-04 -3.449376e-04 -1.965273e-04 -1.039988e-04 1.119534e-04 3.401482e-04 5.693607e-04 6.464391e-04 7.489912e-04 7.503473e-04 7.794917e-04 7.961095e-04 6.518959e-04 6.677582e-04 4.623445e-04 6.130914e-04 3.961308e-04 8.262846e-04 6.906778e-04 1.017936e-03 6.015493e-04 9.509986e-04 5.568003e-04 9.006674e-04 4.125553e-04 5.330691e-04 6.218729e-05 1.544529e-04 1.880682e-05 4.854622e-05 1.479999e-04 -1.019457e-04 1.962981e-04 -2.435997e-04 4.418617e-04 -1.514452e-04 7.120989e-04 -1.813798e-04 7.787806e-04 -1.881198e-04 8.246203e-04 -2.158065e-04 5.280530e-04 -4.558447e-04 1.008973e-04 -3.158445e-04 9.931512e-05 2.557160e-04 2.193748e-05 5.673022e-04 -4.760155e-04 6.546698e-04 -9.920881e-04 8.569442e-04 -1.313622e-03 1.104681e-03 -1.489871e-03 1.231766e-03 -1.599189e-03 1.052758e-03 -1.632654e-03 6.759584e-04 -1.225251e-03 1.420435e-04 -3.683503e-04 -1.525429e-03 8.095047e-04 -7.223723e-03 1.575057e-02 -5.268409e-04 -8.867013e-03 -2.419591e-03 -3.101137e-03 6.951841e-05 
7.457705e-04 1.109260e-03 2.930686e-03 1.512004e-03 3.035993e-03 -6.187060e-03 -1.354833e-03 5.620455e-03 3.402723e-03 8.758523e-03 9.541519e-03 1.826804e-02 2.344402e-02 2.482620e-02 1.148870e-02 7.122991e-03 2.841959e-03 -2.658726e-03 -6.697195e-03 -1.192249e-02 -2.497771e-02 -2.480274e-02 -1.595174e-02 -1.067974e-02 -6.486027e-03 -4.513548e-03 -2.680070e-03 -1.923706e-03 -1.002827e-03 -7.965144e-04 -2.585632e-04 -3.360722e-04 6.337126e-05 -1.549893e-04 2.170820e-04 -6.391186e-05 2.745199e-04 -7.005551e-05 2.256065e-04 -1.211886e-04 1.378074e-04 -1.715687e-04 5.364232e-05 -2.101201e-04 -3.935764e-05 -2.392320e-04 -1.021454e-04 -2.558748e-04 -1.875293e-04 -3.646205e-04 -3.906098e-04 -5.952204e-04 -6.787568e-04 -9.003544e-04 -1.058058e-03 -1.260683e-03 -1.472236e-03 -8.838866e-04 -1.818156e-04 -5.584635e-04 6.114774e-05 1.759544e-05 1.964665e-04 4.754666e-04 5.456848e-04 7.040046e-04 1.119011e-03 1.204317e-03 1.593175e-03 1.998704e-03 2.230685e-03 1.582086e-03 2.364453e-04 5.642762e-05 -2.257929e-04 1.128725e-04 -8.595421e-05 2.228319e-04 -7.136614e-05 1.481163e-04 -1.341914e-04 5.311756e-05 -1.016146e-04 2.145219e-05 -1.876787e-06 -1.030041e-05 9.849296e-05 -3.934556e-05 2.479798e-04 -8.330729e-06 3.930508e-04 -1.847737e-05 4.439538e-04 -4.790724e-05 4.351331e-04 -9.026004e-05 3.138904e-04 -1.530038e-04 1.587647e-04 -8.412342e-05 8.829031e-05 1.026228e-04 -2.120256e-05 2.391396e-04 -2.493332e-04 3.151240e-04 -4.898646e-04 4.125655e-04 -6.602088e-04 5.169279e-04 -7.545281e-04 5.661552e-04 -7.803810e-04 4.999505e-04 -7.138719e-04 3.066076e-04 -4.638764e-04 -8.586656e-05 -3.793618e-05 -1.100971e-03 3.904162e-04 -4.043364e-03 4.587740e-03 5.982606e-04 -1.537780e-03 -1.246872e-03 -1.248348e-03 -3.357434e-04 
