# vtk DataFile Version 2.0
Comment goes here
ASCII

DATASET STRUCTURED_POINTS
FIELD FieldData 1
TIME 1 1 double
0.44000000
DIMENSIONS    128   16   1

ORIGIN    0.000   0.000   0.000
SPACING   0.0078125 0.015625   1.000

POINT_DATA   2048
SCALARS fMag double
LOOKUP_TABLE default

0 0 0 0 0 0 0 0 0 0 0 0 0 0 0 0 0 0 0 0 0 0 0 0 0 0 0 0 0 0 0 0 0 0 0 0 0 0 0 0 0 0 0 0 0 0 0 0 0 0 0 0 0 0 0 0 0 0 0 0 0 0 0 0 0 0 0 0 0 0 0 0 0 0 0 0 0 0 0 0 0 0 0 0 0 0 0 0 0 0 0 0 0 0 0 0 0 0 0 0 0 0 0 0 0 0 0 0 0 0 0 0 0 0 0 0 0 0 0 0 0 0 0 0 0 0 0 0 
0 0 0 0 0 0 0 0 0 0 0 0 0 0 0 0 0 0 0 0 0 0 0 0 0 0 0 0 0 0 0 0 0 0 0 0 0 0 0 0 0 0 0 0 0 0 0 0 0 0 0 0 0 0 0 0 0 0 0 0 0 0 0 0 0 0 0 0 0 0 0 0 0 0 0 0 0 0 0 0 0 0 0 0 0 0 0 0 0 0 0 0 0 0 0 0 0 0 0 0 0 0 0 0 0 0 0 0 0 0 0 0 0 0 0 0 0 0 0 0 0 0 0 0 0 0 0 0 
0 0 0 0 0 1.109064e+00 2.475831e+00 1.919802e+00 1.969309e+00 1.784956e+00 2.422954e+00 2.071445e+00 2.954629e+00 4.031674e+00 5.804376e+00 7.090922e+00 1.111515e+01 1.429472e+01 1.772458e+01 2.126532e+01 2.533474e+01 2.589069e+01 2.542188e+01 2.558827e+01 2.524536e+01 2.523022e+01 2.486188e+01 2.462883e+01 2.429420e+01 2.401055e+01 2.381068e+01 2.353151e+01 2.340590e+01 2.308051e+01 2.292889e+01 2.254269e+01 2.238418e+01 2.205566e+01 2.195521e+01 2.169223e+01 2.153813e+01 2.125377e+01 2.102235e+01 2.077276e+01 2.052179e+01 2.032151e+01 2.003555e+01 1.983756e+01 1.949141e+01 1.924913e+01 1.887308e+01 1.864320e+01 1.836181e+01 1.820355e+01 1.804665e+01 1.790118e+01 1.767595e+01 1.675508e+01 1.645169e+01 1.630995e+01 1.577906e+01 1.499883e+01 1.471871e+01 1.431285e+01 1.460616e+01 1.475534e+01 1.252316e+01 1.156280e+01 1.209803e+01 1.268324e+01 1.381367e+01 1.392356e+01 1.374283e+01 1.370654e+01 1.328857e+01 1.307778e+01 1.262818e+01 1.241707e+01 1.204043e+01 1.188395e+01 1.157404e+01 1.141079e+01 1.109847e+01 1.089563e+01 1.061337e+01 1.041096e+01 1.017176e+01 9.938193e+00 9.722941e+00 9.438292e+00 9.259007e+00 8.909474e+00 8.746971e+00 8.317774e+00 8.188446e+00 7.713641e+00 7.648396e+00 7.175452e+00 7.176387e+00 6.717852e+00 6.724599e+00 6.256441e+00 6.215673e+00 5.785610e+00 5.695296e+00 5.353565e+00 5.184301e+00 4.944161e+00 4.649494e+00 4.502539e+00 4.047274e+00 4.002146e+00 3.430699e+00 3.525699e+00 2.887657e+00 3.090071e+00 2.408342e+00 2.636640e+00 1.947999e+00 2.107601e+00 1.495284e+00 1.902640e+00 1.623421e+00 5.273051e-01 0 0 0 0 
0 0 0 0 0 3.261625e+00 7.283555e+00 5.647975e+00 5.790855e+00 5.247279e+00 7.123209e+00 6.088215e+00 8.686374e+00 1.185812e+01 1.707543e+01 2.085971e+01 3.269740e+01 4.205210e+01 5.214364e+01 6.256287e+01 7.453858e+01 7.617462e+01 7.479486e+01 7.528457e+01 7.427539e+01 7.423088e+01 7.314689e+01 7.246105e+01 7.147627e+01 7.064149e+01 7.005329e+01 6.923170e+01 6.886201e+01 6.790440e+01 6.745817e+01 6.632162e+01 6.585513e+01 6.488837e+01 6.459276e+01 6.381888e+01 6.336538e+01 6.252859e+01 6.184759e+01 6.111311e+01 6.037458e+01 5.978522e+01 5.894374e+01 5.836111e+01 5.734253e+01 5.662960e+01 5.552303e+01 5.484659e+01 5.401858e+01 5.355291e+01 5.309122e+01 5.266316e+01 5.230493e+01 5.106455e+01 5.041298e+01 4.920607e+01 4.850504e+01 4.776619e+01 4.734012e+01 4.595034e+01 4.552597e+01 4.498930e+01 4.387633e+01 4.354997e+01 4.323420e+01 4.273624e+01 4.184819e+01 4.133934e+01 4.062980e+01 4.032103e+01 3.909127e+01 3.847112e+01 3.714834e+01 3.652723e+01 3.541915e+01 3.495879e+01 3.404705e+01 3.356679e+01 3.264796e+01 3.205120e+01 3.122082e+01 3.062534e+01 2.992165e+01 2.923449e+01 2.860123e+01 2.776377e+01 2.723631e+01 2.620797e+01 2.572988e+01 2.446720e+01 2.408671e+01 2.268991e+01 2.249799e+01 2.110675e+01 2.110957e+01 1.976081e+01 1.978080e+01 1.840381e+01 1.828405e+01 1.701917e+01 1.675363e+01 1.574854e+01 1.525067e+01 1.454432e+01 1.367743e+01 1.324504e+01 1.190562e+01 1.177267e+01 1.009148e+01 1.037073e+01 8.493811e+00 9.089252e+00 7.084345e+00 7.756975e+00 5.734627e+00 6.213896e+00 4.446039e+00 5.642060e+00 4.791586e+00 1.550555e+00 0 0 0 0 
0 0 0 0 0 2.252833e+00 5.031996e+00 3.902109e+00 3.999482e+00 3.623342e+00 4.918896e+00 4.203413e+00 5.998382e+00 3.925706e+01 4.928320e+01 4.443051e+01 5.604704e+01 5.245066e+01 6.087671e+01 6.438248e+01 6.444080e+01 5.263058e+01 5.167707e+01 5.201549e+01 5.131810e+01 5.128735e+01 5.053828e+01 5.006433e+01 4.938381e+01 4.880693e+01 4.840046e+01 4.783269e+01 4.757721e+01 4.691545e+01 4.660708e+01 4.582167e+01 4.549930e+01 4.483125e+01 4.462697e+01 4.409220e+01 4.377882e+01 4.320059e+01 4.273002e+01 4.222249e+01 4.171215e+01 4.130490e+01 4.072343e+01 4.032083e+01 3.961699e+01 3.912436e+01 3.835974e+01 3.789232e+01 3.732019e+01 3.699841e+01 3.667940e+01 3.638362e+01 3.639770e+01 3.677652e+01 3.657570e+01 3.561034e+01 3.552175e+01 3.436164e+01 3.432338e+01 3.423253e+01 3.363739e+01 3.315883e+01 3.465450e+01 3.416295e+01 3.261412e+01 3.153782e+01 2.983367e+01 2.963862e+01 2.832434e+01 2.785579e+01 2.700612e+01 2.657764e+01 2.566371e+01 2.523459e+01 2.446901e+01 2.415096e+01 2.352105e+01 2.318924e+01 2.255444e+01 2.214216e+01 2.156847e+01 2.115705e+01 2.067089e+01 2.019613e+01 1.975862e+01 1.918002e+01 1.881561e+01 1.810512e+01 1.777481e+01 1.690243e+01 1.663956e+01 1.567456e+01 1.554197e+01 1.458085e+01 1.458283e+01 1.365111e+01 1.366498e+01 1.271380e+01 1.263114e+01 1.175741e+01 1.157404e+01 1.087977e+01 1.053584e+01 1.004789e+01 9.448975e+00 9.150223e+00 8.224810e+00 8.132861e+00 6.971344e+00 7.164159e+00 5.867506e+00 6.278863e+00 4.894043e+00 5.359234e+00 3.963767e+00 4.299601e+00 3.094477e+00 3.919703e+00 3.317989e+00 1.070891e+00 0 0 0 0 
0 0 0 0 0 1.002725e-01 2.242716e-01 1.739360e-01 1.779359e-01 1.610196e-01 2.186419e-01 1.866424e-01 2.666372e-01 4.426591e+01 4.839596e+01 4.536218e+01 4.760818e+01 4.682294e+01 4.609638e+01 4.830932e+01 4.406274e+01 2.346654e+00 2.304085e+00 2.319194e+00 2.288066e+00 2.286697e+00 2.253266e+00 2.232112e+00 2.201740e+00 2.175990e+00 2.157848e+00 2.132503e+00 2.121098e+00 2.091558e+00 2.077793e+00 2.042738e+00 2.028350e+00 1.998537e+00 1.989420e+00 1.965557e+00 1.951573e+00 1.925772e+00 1.904774e+00 1.882128e+00 1.859356e+00 1.841185e+00 1.815241e+00 1.797278e+00 1.765875e+00 1.743897e+00 1.709785e+00 1.688933e+00 1.663410e+00 1.649056e+00 1.634825e+00 1.621630e+00 1.733447e+00 1.682989e+00 1.369671e+00 1.312544e+00 1.442674e+00 5.127726e-01 5.428050e-01 8.646699e-01 7.486654e-01 1.032600e+00 1.566643e+00 8.680656e-01 1.018281e-01 1.218819e-01 3.388110e-01 2.519226e-01 9.482378e-01 1.241297e+00 1.203409e+00 1.184305e+00 1.143557e+00 1.124426e+00 1.090298e+00 1.076120e+00 1.048042e+00 1.033253e+00 1.004959e+00 9.865809e-01 9.610114e-01 9.426718e-01 9.210034e-01 8.998391e-01 8.803376e-01 8.545431e-01 8.382978e-01 8.066244e-01 7.918986e-01 7.530123e-01 7.412939e-01 6.982859e-01 6.923787e-01 6.495539e-01 6.496516e-01 6.081483e-01 6.087836e-01 5.664237e-01 5.627612e-01 5.238568e-01 5.157031e-01 4.847892e-01 4.694713e-01 4.477363e-01 4.210407e-01 4.077180e-01 3.664614e-01 3.623395e-01 3.105631e-01 3.191287e-01 2.613519e-01 2.796818e-01 2.180410e-01 2.388985e-01 1.771390e-01 1.933058e-01 1.437209e-01 1.802804e-01 1.498229e-01 4.764201e-02 0 0 0 0 
0 0 0 0 0 0 0 0 0 0 0 0 0 4.823348e+01 5.224895e+01 4.941275e+01 5.127282e+01 5.095003e+01 4.958186e+01 5.251781e+01 4.760639e+01 0 0 0 0 0 0 0 0 0 0 0 0 0 0 0 0 0 0 0 0 0 0 0 0 0 0 0 0 0 0 0 0 0 0 0 1.574023e-02 4.438789e-01 7.517301e-01 7.426909e-01 8.195701e-01 9.689042e-01 8.711056e-01 1.027197e+00 9.479523e-01 8.672611e-01 1.095213e+00 8.918362e-01 1.029795e+00 9.013292e-01 1.016862e+00 1.038965e+00 3.588436e-01 0 0 0 0 0 0 0 0 0 0 0 0 0 0 0 0 0 0 0 0 0 0 0 0 0 0 0 0 0 0 0 0 0 0 0 0 0 0 0 0 0 0 0 0 0 0 0 0 0 0 0 0 0 0 0 
0 0 0 0 0 0 0 0 0 0 0 0 0 4.810552e+01 4.991714e+01 4.832496e+01 4.917136e+01 4.892373e+01 4.850001e+01 4.969150e+01 4.813750e+01 0 0 0 0 0 0 0 0 0 0 0 0 0 0 0 0 0 0 0 0 0 0 0 0 0 0 0 0 0 0 0 0 0 0 0 1.885944e-02 9.727978e-02 7.049823e-02 1.543257e-01 3.796995e-02 3.154720e-01 2.287963e-01 5.550540e-02 2.573547e-01 3.527124e-01 3.548618e-02 2.256558e-01 1.355105e-01 7.772548e-02 2.810985e-01 3.150831e-01 7.278776e-02 0 0 0 0 0 0 0 0 0 0 0 0 0 0 0 0 0 0 0 0 0 0 0 0 0 0 0 0 0 0 0 0 0 0 0 0 0 0 0 0 0 0 0 0 0 0 0 0 0 0 0 0 0 0 0 
0 0 0 0 0 0 0 0 0 0 0 0 0 5.058910e+01 5.276523e+01 5.101265e+01 5.187974e+01 5.187933e+01 5.092927e+01 5.284682e+01 5.029552e+01 0 0 0 0 0 0 0 0 0 0 0 0 0 0 0 0 0 0 0 0 0 0 0 0 0 0 0 0 0 0 0 0 0 0 0 1.040017e-01 7.004245e-01 9.005796e-01 8.063499e-01 8.943082e-01 1.079540e+00 1.213108e+00 1.109822e+00 1.183534e+00 1.018858e+00 1.172667e+00 1.177910e+00 1.085392e+00 1.046380e+00 1.078387e+00 7.719806e-01 7.916330e-02 0 0 0 0 0 0 0 0 0 0 0 0 0 0 0 0 0 0 0 0 0 0 0 0 0 0 0 0 0 0 0 0 0 0 0 0 0 0 0 0 0 0 0 0 0 0 0 0 0 0 0 0 0 0 0 
0 0 0 0 0 0 0 0 0 0 0 0 0 4.810621e+01 4.992141e+01 4.832913e+01 4.917600e+01 4.893401e+01 4.850032e+01 4.970701e+01 4.813535e+01 0 0 0 0 0 0 0 0 0 0 0 0 0 0 0 0 0 0 0 0 0 0 0 0 0 0 0 0 0 0 0 0 0 0 0 1.574126e-02 1.214649e-01 1.351082e-01 4.568388e-02 1.995157e-01 5.525546e-01 5.147886e-01 3.108868e-01 2.129750e-01 1.261560e-01 4.393284e-01 5.736315e-01 5.926567e-01 4.726716e-01 1.474246e-01 6.719992e-02 1.238611e-02 0 0 0 0 0 0 0 0 0 0 0 0 0 0 0 0 0 0 0 0 0 0 0 0 0 0 0 0 0 0 0 0 0 0 0 0 0 0 0 0 0 0 0 0 0 0 0 0 0 0 0 0 0 0 0 
0 0 0 0 0 0 0 0 0 0 0 0 0 4.822562e+01 5.226720e+01 4.940093e+01 5.129028e+01 5.095675e+01 4.957378e+01 5.256912e+01 4.758186e+01 0 0 0 0 0 0 0 0 0 0 0 0 0 0 0 0 0 0 0 0 0 0 0 0 0 0 0 0 0 0 0 0 0 0 0 1.878533e-02 1.304845e-01 1.894978e-01 2.451214e-01 1.913455e-01 2.628288e-02 5.804204e-02 1.220423e-01 1.903815e-01 1.996892e-01 5.851838e-02 3.701828e-02 8.727217e-02 5.661721e-02 8.464473e-02 8.207279e-02 8.114408e-03 0 0 0 0 0 0 0 0 0 0 0 0 0 0 0 0 0 0 0 0 0 0 0 0 0 0 0 0 0 0 0 0 0 0 0 0 0 0 0 0 0 0 0 0 0 0 0 0 0 0 0 0 0 0 0 
0 0 0 0 0 1.003014e-01 2.250932e-01 1.749866e-01 1.767857e-01 1.604355e-01 2.170236e-01 1.862487e-01 2.653087e-01 4.425580e+01 4.841542e+01 4.536402e+01 4.764355e+01 4.685844e+01 4.609949e+01 4.838168e+01 4.402283e+01 2.342937e+00 2.300249e+00 2.314615e+00 2.288429e+00 2.289894e+00 2.263035e+00 2.242028e+00 2.212241e+00 2.181528e+00 2.163456e+00 2.136725e+00 2.127203e+00 2.095604e+00 2.082096e+00 2.045246e+00 2.031066e+00 1.998366e+00 1.988079e+00 1.963434e+00 1.953746e+00 1.929817e+00 1.909196e+00 1.879740e+00 1.851266e+00 1.826136e+00 1.799823e+00 1.783325e+00 1.761070e+00 1.751082e+00 1.728562e+00 1.713485e+00 1.680562e+00 1.656011e+00 1.621761e+00 1.600170e+00 1.574305e+00 1.555081e+00 1.532649e+00 1.510532e+00 1.490674e+00 1.467788e+00 1.452515e+00 1.430074e+00 1.413915e+00 1.384604e+00 1.360233e+00 1.325995e+00 1.301731e+00 1.275611e+00 1.258428e+00 1.241984e+00 1.227301e+00 1.214898e+00 1.194887e+00 1.177540e+00 1.145697e+00 1.123075e+00 1.087218e+00 1.069310e+00 1.038993e+00 1.029302e+00 1.005029e+00 9.968633e-01 9.709190e-01 9.541537e-01 9.230164e-01 8.975808e-01 8.686729e-01 8.412874e-01 8.224184e-01 7.962183e-01 7.867972e-01 7.553987e-01 7.474140e-01 7.067987e-01 7.010083e-01 6.583143e-01 6.579114e-01 6.153094e-01 6.140471e-01 5.696125e-01 5.636500e-01 5.241701e-01 5.168695e-01 4.887025e-01 4.742728e-01 4.512411e-01 4.200956e-01 4.036380e-01 3.617434e-01 3.596602e-01 3.101870e-01 3.192508e-01 2.611923e-01 2.781917e-01 2.176090e-01 2.394603e-01 1.813485e-01 1.991805e-01 1.510101e-01 1.841325e-01 1.511037e-01 4.713901e-02 0 0 0 0 
0 0 0 0 0 2.253490e+00 5.050332e+00 3.925469e+00 3.973624e+00 3.610220e+00 4.882551e+00 4.194522e+00 5.968485e+00 3.927226e+01 4.936033e+01 4.431715e+01 5.616871e+01 5.236443e+01 6.089167e+01 6.458753e+01 6.444357e+01 5.254735e+01 5.159114e+01 5.191289e+01 5.132618e+01 5.135889e+01 5.075708e+01 5.028644e+01 4.961903e+01 4.893101e+01 4.852613e+01 4.792733e+01 4.771405e+01 4.700614e+01 4.670354e+01 4.587789e+01 4.556016e+01 4.482741e+01 4.459689e+01 4.404456e+01 4.382744e+01 4.329113e+01 4.282901e+01 4.216882e+01 4.153068e+01 4.096745e+01 4.037774e+01 4.000798e+01 3.950919e+01 3.928535e+01 3.878060e+01 3.844266e+01 3.770469e+01 3.715435e+01 3.638656e+01 3.590254e+01 3.532269e+01 3.489171e+01 3.438879e+01 3.389294e+01 3.344770e+01 3.293460e+01 3.259216e+01 3.208900e+01 3.172667e+01 3.106943e+01 3.052298e+01 2.975519e+01 2.921107e+01 2.862531e+01 2.823997e+01 2.787119e+01 2.754192e+01 2.726376e+01 2.681498e+01 2.642593e+01 2.571176e+01 2.520437e+01 2.440012e+01 2.399841e+01 2.331834e+01 2.310092e+01 2.255636e+01 2.237313e+01 2.179104e+01 2.141490e+01 2.071628e+01 2.014566e+01 1.949706e+01 1.888272e+01 1.845940e+01 1.787167e+01 1.766037e+01 1.695598e+01 1.677688e+01 1.586558e+01 1.573562e+01 1.477746e+01 1.476823e+01 1.381187e+01 1.378318e+01 1.278545e+01 1.265121e+01 1.176458e+01 1.160037e+01 1.096779e+01 1.064382e+01 1.012678e+01 9.428025e+00 9.058896e+00 8.119136e+00 8.072932e+00 6.963055e+00 7.167000e+00 5.863968e+00 6.245407e+00 4.884294e+00 5.371782e+00 4.058228e+00 4.431603e+00 3.258941e+00 4.006246e+00 3.346936e+00 1.059574e+00 0 0 0 0 
0 0 0 0 0 3.262578e+00 7.310072e+00 5.681734e+00 5.753413e+00 5.228282e+00 7.070592e+00 6.075330e+00 8.643076e+00 1.182492e+01 1.706093e+01 2.081746e+01 3.268468e+01 4.220169e+01 5.219090e+01 6.276733e+01 7.458352e+01 7.605419e+01 7.467051e+01 7.513608e+01 7.428707e+01 7.433438e+01 7.346350e+01 7.278245e+01 7.181663e+01 7.082104e+01 7.023515e+01 6.936867e+01 6.906005e+01 6.803566e+01 6.759778e+01 6.640299e+01 6.594320e+01 6.488282e+01 6.454923e+01 6.374992e+01 6.343571e+01 6.265958e+01 6.199083e+01 6.103541e+01 6.011193e+01 5.929684e+01 5.844344e+01 5.790833e+01 5.718650e+01 5.686256e+01 5.613210e+01 5.564303e+01 5.457505e+01 5.377858e+01 5.266742e+01 5.196694e+01 5.112775e+01 5.050403e+01 4.977617e+01 4.905855e+01 4.841418e+01 4.767159e+01 4.717598e+01 4.644778e+01 4.592338e+01 4.497217e+01 4.418128e+01 4.307007e+01 4.228256e+01 4.143477e+01 4.087706e+01 4.034332e+01 3.986675e+01 3.946416e+01 3.881463e+01 3.825154e+01 3.721789e+01 3.648352e+01 3.531947e+01 3.473805e+01 3.375372e+01 3.343902e+01 3.265081e+01 3.238560e+01 3.154305e+01 3.099862e+01 2.998740e+01 2.916148e+01 2.822267e+01 2.733347e+01 2.672075e+01 2.587007e+01 2.556424e+01 2.454470e+01 2.428548e+01 2.296642e+01 2.277830e+01 2.139135e+01 2.137793e+01 1.999353e+01 1.995191e+01 1.850756e+01 1.831314e+01 1.702958e+01 1.679178e+01 1.587601e+01 1.540702e+01 1.465857e+01 1.364717e+01 1.311291e+01 1.175271e+01 1.168597e+01 1.007952e+01 1.037487e+01 8.488702e+00 9.040821e+00 7.070219e+00 7.775122e+00 5.871358e+00 6.405009e+00 4.684320e+00 5.767330e+00 4.833537e+00 1.534165e+00 0 0 0 0 
0 0 0 0 0 1.109390e+00 2.484833e+00 1.931252e+00 1.956575e+00 1.778497e+00 2.405064e+00 2.067058e+00 2.939900e+00 4.020373e+00 5.799447e+00 7.076561e+00 1.111083e+01 1.434555e+01 1.774063e+01 2.133477e+01 2.535000e+01 2.584977e+01 2.537963e+01 2.553781e+01 2.524932e+01 2.526538e+01 2.496945e+01 2.473803e+01 2.440985e+01 2.407156e+01 2.387248e+01 2.357806e+01 2.347320e+01 2.312512e+01 2.297633e+01 2.257034e+01 2.241411e+01 2.205378e+01 2.194042e+01 2.166879e+01 2.156202e+01 2.129827e+01 2.107101e+01 2.074633e+01 2.043252e+01 2.015552e+01 1.986552e+01 1.968367e+01 1.943838e+01 1.932829e+01 1.908006e+01 1.891386e+01 1.855092e+01 1.828025e+01 1.790262e+01 1.766457e+01 1.737937e+01 1.716740e+01 1.692003e+01 1.667614e+01 1.645715e+01 1.620478e+01 1.603633e+01 1.578885e+01 1.561063e+01 1.528734e+01 1.501854e+01 1.464087e+01 1.437321e+01 1.408507e+01 1.389552e+01 1.371411e+01 1.355213e+01 1.341530e+01 1.319454e+01 1.300315e+01 1.265183e+01 1.240222e+01 1.200657e+01 1.180895e+01 1.147437e+01 1.136740e+01 1.109948e+01 1.100933e+01 1.072293e+01 1.053787e+01 1.019414e+01 9.913402e+00 9.594281e+00 9.292039e+00 9.083764e+00 8.794617e+00 8.690667e+00 8.344121e+00 8.256011e+00 7.807633e+00 7.743683e+00 7.272200e+00 7.267618e+00 6.796969e+00 6.782778e+00 6.291722e+00 6.225575e+00 5.789169e+00 5.708285e+00 5.396920e+00 5.237477e+00 4.983029e+00 4.639240e+00 4.457650e+00 3.995319e+00 3.972698e+00 3.426653e+00 3.527118e+00 2.885926e+00 3.073606e+00 2.403534e+00 2.642801e+00 1.994478e+00 2.172587e+00 1.576390e+00 1.945219e+00 1.637705e+00 5.217299e-01 0 0 0 0 
0 0 0 0 0 0 0 0 0 0 0 0 0 0 0 0 0 0 0 0 0 0 0 0 0 0 0 0 0 0 0 0 0 0 0 0 0 0 0 0 0 0 0 0 0 0 0 0 0 0 0 0 0 0 0 0 0 0 0 0 0 0 0 0 0 0 0 0 0 0 0 0 0 0 0 0 0 0 0 0 0 0 0 0 0 0 0 0 0 0 0 0 0 0 0 0 0 0 0 0 0 0 0 0 0 0 0 0 0 0 0 0 0 0 0 0 0 0 0 0 0 0 0 0 0 0 0 0 
