# vtk DataFile Version 2.0
Comment goes here
ASCII

DATASET STRUCTURED_POINTS
FIELD FieldData 1
TIME 1 1 double
0.21000000
DIMENSIONS    128   16   1

ORIGIN    0.000   0.000   0.000
SPACING   0.0078125 0.015625   1.000

POINT_DATA   2048
SCALARS fMag double
LOOKUP_TABLE default

0 0 0 0 0 0 0 0 0 0 0 0 0 0 0 0 0 0 0 0 0 0 0 0 0 0 0 0 0 0 0 0 0 0 0 0 0 0 0 0 0 0 0 0 0 0 0 0 0 0 0 0 0 0 0 0 0 0 0 0 0 0 0 0 0 0 0 0 0 0 0 0 0 0 0 0 0 0 0 0 0 0 0 0 0 0 0 0 0 0 0 0 0 0 0 0 0 0 0 0 0 0 0 0 0 0 0 0 0 0 0 0 0 0 0 0 0 0 0 0 0 0 0 0 0 0 0 0 
0 0 0 0 0 0 0 0 0 0 0 0 0 0 0 0 0 0 0 0 0 0 0 0 0 0 0 0 0 0 0 0 0 0 0 0 0 0 0 0 0 0 0 0 0 0 0 0 0 0 0 0 0 0 0 0 0 0 0 0 0 0 0 0 0 0 0 0 0 0 0 0 0 0 0 0 0 0 0 0 0 0 0 0 0 0 0 0 0 0 0 0 0 0 0 0 0 0 0 0 0 0 0 0 0 0 0 0 0 0 0 0 0 0 0 0 0 0 0 0 0 0 0 0 0 0 0 0 
0 0 0 0 0 1.764687e+00 3.157140e+00 1.607710e+00 2.643245e+00 2.107899e+00 3.237657e+00 2.558440e+00 3.580412e+00 4.833241e+00 7.071752e+00 9.255920e+00 1.303257e+01 1.727282e+01 2.139730e+01 2.504999e+01 3.181906e+01 3.240377e+01 3.176229e+01 3.145592e+01 3.014726e+01 2.983880e+01 2.929002e+01 2.961007e+01 2.924568e+01 2.919934e+01 2.853868e+01 2.836654e+01 2.813635e+01 2.841889e+01 2.860162e+01 2.872071e+01 2.842307e+01 2.776302e+01 2.709679e+01 2.653750e+01 2.648169e+01 2.644505e+01 2.650113e+01 2.586801e+01 2.520699e+01 2.439636e+01 2.412132e+01 2.385322e+01 2.394874e+01 2.373678e+01 2.359349e+01 2.316641e+01 2.287278e+01 2.255082e+01 2.248503e+01 2.237403e+01 2.242170e+01 2.282145e+01 2.201352e+01 1.948938e+01 2.085778e+01 2.335685e+01 2.250855e+01 2.118312e+01 1.936034e+01 1.869992e+01 2.242091e+01 2.279315e+01 2.050521e+01 1.862412e+01 1.569984e+01 1.568553e+01 1.664443e+01 1.687490e+01 1.652139e+01 1.601435e+01 1.512046e+01 1.457028e+01 1.423857e+01 1.422267e+01 1.410031e+01 1.357154e+01 1.300756e+01 1.255665e+01 1.249940e+01 1.252666e+01 1.270250e+01 1.215360e+01 1.173350e+01 1.110721e+01 1.106610e+01 1.102914e+01 1.131287e+01 1.080427e+01 1.015669e+01 9.114347e+00 8.684235e+00 8.678076e+00 9.077230e+00 9.165853e+00 8.759272e+00 8.094665e+00 7.256215e+00 6.958121e+00 6.359116e+00 6.198161e+00 5.520247e+00 5.725675e+00 5.449439e+00 5.926795e+00 5.301226e+00 5.128087e+00 4.139124e+00 4.226141e+00 3.870705e+00 4.206159e+00 3.875461e+00 3.512703e+00 2.651246e+00 1.846649e+00 1.246173e+00 1.478342e+00 2.898222e+00 2.050260e-01 0 0 0 0 
0 0 0 0 0 5.192306e+00 9.299414e+00 4.748424e+00 7.782934e+00 6.201997e+00 9.525072e+00 7.528319e+00 1.053474e+01 1.421496e+01 2.079578e+01 2.721876e+01 3.832491e+01 5.079161e+01 6.291830e+01 7.365545e+01 9.355149e+01 9.527017e+01 9.338489e+01 9.248450e+01 8.863861e+01 8.773224e+01 8.611946e+01 8.706027e+01 8.598934e+01 8.585316e+01 8.391127e+01 8.340528e+01 8.272862e+01 8.355902e+01 8.409612e+01 8.444612e+01 8.357122e+01 8.163119e+01 7.967287e+01 7.802899e+01 7.786497e+01 7.775733e+01 7.792219e+01 7.606120e+01 7.411815e+01 7.173531e+01 7.092683e+01 7.013873e+01 7.041950e+01 6.979640e+01 6.937515e+01 6.811967e+01 6.725648e+01 6.631000e+01 6.611657e+01 6.579024e+01 6.578931e+01 6.630215e+01 6.525223e+01 6.142384e+01 6.129937e+01 6.152065e+01 6.080097e+01 6.017050e+01 5.875310e+01 5.797207e+01 5.986134e+01 5.859771e+01 5.587091e+01 5.330207e+01 4.951336e+01 4.896664e+01 4.916117e+01 4.962352e+01 4.858413e+01 4.709336e+01 4.446508e+01 4.284745e+01 4.187208e+01 4.182534e+01 4.146555e+01 3.991086e+01 3.825254e+01 3.692675e+01 3.675844e+01 3.683864e+01 3.735571e+01 3.574173e+01 3.450645e+01 3.266488e+01 3.254398e+01 3.243525e+01 3.326947e+01 3.177385e+01 2.986959e+01 2.680430e+01 2.553948e+01 2.552134e+01 2.669501e+01 2.695563e+01 2.576009e+01 2.380566e+01 2.134017e+01 2.046364e+01 1.870222e+01 1.822895e+01 1.623536e+01 1.683948e+01 1.602700e+01 1.743062e+01 1.559058e+01 1.508106e+01 1.217197e+01 1.242741e+01 1.138151e+01 1.236748e+01 1.139440e+01 1.032698e+01 7.792316e+00 5.424634e+00 3.656174e+00 4.341349e+00 8.522750e+00 6.029938e-01 0 0 0 0 
0 0 0 0 0 3.587620e+00 6.430288e+00 3.289639e+00 5.380330e+00 4.285189e+00 6.580754e+00 5.201939e+00 7.278947e+00 4.806398e+01 6.693220e+01 5.409667e+01 6.315579e+01 6.482682e+01 6.965159e+01 8.137316e+01 8.228433e+01 6.579163e+01 6.449006e+01 6.386844e+01 6.121337e+01 6.058770e+01 5.947427e+01 6.012391e+01 5.938454e+01 5.929052e+01 5.794975e+01 5.760038e+01 5.713316e+01 5.770647e+01 5.807730e+01 5.831894e+01 5.771485e+01 5.637539e+01 5.502323e+01 5.388823e+01 5.377501e+01 5.370070e+01 5.381455e+01 5.252961e+01 5.118797e+01 4.954266e+01 4.898443e+01 4.844025e+01 4.863411e+01 4.820384e+01 4.791296e+01 4.704602e+01 4.644999e+01 4.579641e+01 4.566284e+01 4.543749e+01 4.493024e+01 4.285809e+01 4.270450e+01 4.330576e+01 3.982199e+01 3.409100e+01 3.488675e+01 3.740147e+01 3.940099e+01 4.017015e+01 3.414761e+01 3.165755e+01 3.357145e+01 3.434132e+01 3.547480e+01 3.511499e+01 3.403357e+01 3.427369e+01 3.355590e+01 3.252639e+01 3.071128e+01 2.959414e+01 2.892053e+01 2.888824e+01 2.863977e+01 2.756610e+01 2.642083e+01 2.550522e+01 2.538899e+01 2.544440e+01 2.580152e+01 2.468687e+01 2.383374e+01 2.256187e+01 2.247837e+01 2.240326e+01 2.297936e+01 2.194638e+01 2.063117e+01 1.851402e+01 1.764044e+01 1.762789e+01 1.843847e+01 1.861847e+01 1.779278e+01 1.644289e+01 1.474009e+01 1.413472e+01 1.291819e+01 1.259134e+01 1.121438e+01 1.163165e+01 1.107041e+01 1.203978e+01 1.076871e+01 1.041661e+01 8.406956e+00 8.583163e+00 7.860457e+00 8.541204e+00 7.868830e+00 7.131265e+00 5.379954e+00 3.743867e+00 2.521150e+00 2.995566e+00 5.886461e+00 4.165110e-01 0 0 0 0 
0 0 0 0 0 1.600005e-01 2.880133e-01 1.489240e-01 2.406415e-01 1.910912e-01 2.933389e-01 2.320599e-01 3.246204e-01 5.359841e+01 5.851071e+01 5.498529e+01 5.659711e+01 5.656017e+01 5.501351e+01 5.821505e+01 5.395694e+01 2.925232e+00 2.867453e+00 2.839859e+00 2.722016e+00 2.694262e+00 2.644840e+00 2.673707e+00 2.640882e+00 2.636709e+00 2.577161e+00 2.561642e+00 2.540883e+00 2.566337e+00 2.582805e+00 2.593532e+00 2.566699e+00 2.507214e+00 2.447152e+00 2.396744e+00 2.391722e+00 2.388426e+00 2.393486e+00 2.336411e+00 2.276809e+00 2.203715e+00 2.178916e+00 2.154738e+00 2.163348e+00 2.144226e+00 2.131298e+00 2.092772e+00 2.066288e+00 2.037240e+00 2.031302e+00 2.021284e+00 1.597362e+00 5.296816e-01 6.865955e-01 1.398523e+00 4.275800e-01 3.327766e+00 2.861623e+00 1.153674e+00 6.345649e-01 1.258638e+00 2.332960e+00 3.351670e+00 1.247609e+00 5.834327e-01 2.206249e+00 2.146259e+00 1.530786e+00 1.525073e+00 1.493154e+00 1.447376e+00 1.366654e+00 1.316976e+00 1.287015e+00 1.285577e+00 1.274527e+00 1.226782e+00 1.175841e+00 1.135122e+00 1.129956e+00 1.132424e+00 1.148314e+00 1.098736e+00 1.060786e+00 1.004206e+00 1.000490e+00 9.971446e-01 1.022763e+00 9.767979e-01 9.182815e-01 8.240637e-01 7.851925e-01 7.846292e-01 8.206852e-01 8.286950e-01 7.919643e-01 7.318935e-01 6.561383e-01 6.292091e-01 5.750842e-01 5.605467e-01 4.992674e-01 5.178384e-01 4.928446e-01 5.359626e-01 4.793494e-01 4.636353e-01 3.741051e-01 3.818904e-01 3.496484e-01 3.798795e-01 3.498865e-01 3.169847e-01 2.388837e-01 1.658824e-01 1.111488e-01 1.325589e-01 2.619333e-01 1.854327e-02 0 0 0 0 
0 0 0 0 0 0 0 0 0 0 0 0 0 5.852011e+01 6.380525e+01 5.995866e+01 6.149260e+01 6.189886e+01 5.949509e+01 6.379773e+01 5.841808e+01 0 0 0 0 0 0 0 0 0 0 0 0 0 0 0 0 0 0 0 0 0 0 0 0 0 0 0 0 0 0 0 0 0 0 0 4.721939e-02 1.757708e-01 8.592136e-02 1.657776e-01 2.541863e-02 7.271901e-02 1.841054e-01 3.342925e-01 5.027699e-01 4.075381e-01 2.007866e-01 2.759406e-01 5.101099e-01 6.190570e-01 7.162481e-01 4.679747e-01 2.743190e-02 0 0 0 0 0 0 0 0 0 0 0 0 0 0 0 0 0 0 0 0 0 0 0 0 0 0 0 0 0 0 0 0 0 0 0 0 0 0 0 0 0 0 0 0 0 0 0 0 0 0 0 0 0 0 0 
0 0 0 0 0 0 0 0 0 0 0 0 0 5.760816e+01 5.963314e+01 5.788081e+01 5.865280e+01 5.854565e+01 5.788502e+01 5.934614e+01 5.756404e+01 0 0 0 0 0 0 0 0 0 0 0 0 0 0 0 0 0 0 0 0 0 0 0 0 0 0 0 0 0 0 0 0 0 0 0 9.078211e-02 3.598699e-01 2.745401e-01 9.629243e-02 1.979547e-01 6.863227e-01 5.070850e-01 1.786777e-01 1.616565e-02 3.969904e-02 5.219052e-01 6.239394e-01 1.652946e-01 2.093709e-02 9.739274e-02 9.292256e-02 1.069669e-02 0 0 0 0 0 0 0 0 0 0 0 0 0 0 0 0 0 0 0 0 0 0 0 0 0 0 0 0 0 0 0 0 0 0 0 0 0 0 0 0 0 0 0 0 0 0 0 0 0 0 0 0 0 0 0 
0 0 0 0 0 0 0 0 0 0 0 0 0 6.109500e+01 6.380170e+01 6.167172e+01 6.252939e+01 6.273167e+01 6.139301e+01 6.382047e+01 6.083717e+01 0 0 0 0 0 0 0 0 0 0 0 0 0 0 0 0 0 0 0 0 0 0 0 0 0 0 0 0 0 0 0 0 0 0 0 1.408831e-02 5.131488e-02 1.573345e-01 3.553416e-01 3.063405e-01 1.325003e-01 2.582386e-01 3.439093e-01 4.300183e-01 4.169006e-01 2.575198e-01 2.150786e-01 2.906388e-01 3.230484e-01 3.046669e-01 1.879926e-01 6.713099e-03 0 0 0 0 0 0 0 0 0 0 0 0 0 0 0 0 0 0 0 0 0 0 0 0 0 0 0 0 0 0 0 0 0 0 0 0 0 0 0 0 0 0 0 0 0 0 0 0 0 0 0 0 0 0 0 
0 0 0 0 0 0 0 0 0 0 0 0 0 5.760961e+01 5.961898e+01 5.790420e+01 5.864861e+01 5.857620e+01 5.786065e+01 5.935014e+01 5.751249e+01 0 0 0 0 0 0 0 0 0 0 0 0 0 0 0 0 0 0 0 0 0 0 0 0 0 0 0 0 0 0 0 0 0 0 0 2.038585e-02 9.236198e-02 6.208779e-02 4.254646e-01 1.236796e-01 3.812978e-01 1.868270e-01 7.810034e-02 4.273735e-01 4.645205e-01 1.998468e-01 3.385452e-01 6.250761e-03 2.041675e-01 4.438030e-01 2.947510e-01 1.113287e-02 0 0 0 0 0 0 0 0 0 0 0 0 0 0 0 0 0 0 0 0 0 0 0 0 0 0 0 0 0 0 0 0 0 0 0 0 0 0 0 0 0 0 0 0 0 0 0 0 0 0 0 0 0 0 0 
0 0 0 0 0 0 0 0 0 0 0 0 0 5.853118e+01 6.379740e+01 6.002241e+01 6.155713e+01 6.199349e+01 5.951705e+01 6.382006e+01 5.840178e+01 0 0 0 0 0 0 0 0 0 0 0 0 0 0 0 0 0 0 0 0 0 0 0 0 0 0 0 0 0 0 0 0 0 0 0 4.349353e-02 1.900140e-01 1.594890e-01 8.493888e-04 1.178486e-01 2.881075e-01 2.312041e-01 1.183770e-01 3.064458e-03 2.543041e-02 1.759639e-01 1.922769e-01 1.722875e-02 3.843071e-02 6.556061e-02 4.295647e-02 1.622747e-03 0 0 0 0 0 0 0 0 0 0 0 0 0 0 0 0 0 0 0 0 0 0 0 0 0 0 0 0 0 0 0 0 0 0 0 0 0 0 0 0 0 0 0 0 0 0 0 0 0 0 0 0 0 0 0 
0 0 0 0 0 1.590679e-01 2.772067e-01 1.343431e-01 2.223132e-01 1.768968e-01 2.829670e-01 2.245740e-01 3.315767e-01 5.353877e+01 5.845416e+01 5.510899e+01 5.671007e+01 5.678882e+01 5.495582e+01 5.821680e+01 5.356435e+01 2.886007e+00 2.807389e+00 2.789215e+00 2.720627e+00 2.725035e+00 2.675617e+00 2.682060e+00 2.647285e+00 2.659564e+00 2.630898e+00 2.627088e+00 2.591229e+00 2.580392e+00 2.561792e+00 2.558421e+00 2.540947e+00 2.508482e+00 2.462005e+00 2.399944e+00 2.347509e+00 2.286939e+00 2.250665e+00 2.210515e+00 2.187963e+00 2.141950e+00 2.123872e+00 2.104716e+00 2.117327e+00 2.127138e+00 2.154375e+00 2.150942e+00 2.136184e+00 2.087105e+00 2.026659e+00 1.959643e+00 1.913279e+00 1.884135e+00 1.864638e+00 1.841584e+00 1.810228e+00 1.792911e+00 1.768526e+00 1.739698e+00 1.687651e+00 1.638490e+00 1.581550e+00 1.562556e+00 1.541727e+00 1.538658e+00 1.524237e+00 1.526232e+00 1.508682e+00 1.497115e+00 1.455373e+00 1.414814e+00 1.360081e+00 1.317397e+00 1.279080e+00 1.260174e+00 1.263361e+00 1.283195e+00 1.299114e+00 1.270710e+00 1.228925e+00 1.162688e+00 1.130765e+00 1.092456e+00 1.080369e+00 1.025208e+00 9.908047e-01 9.303671e-01 9.201339e-01 8.962522e-01 9.074854e-01 8.843415e-01 8.630719e-01 8.070834e-01 7.623176e-01 7.234148e-01 6.976675e-01 7.016955e-01 6.965005e-01 7.099374e-01 6.657498e-01 6.528287e-01 5.745600e-01 5.607319e-01 5.069075e-01 5.503459e-01 5.149337e-01 5.233617e-01 4.267898e-01 3.947247e-01 3.267567e-01 3.438154e-01 3.233136e-01 3.125880e-01 2.578488e-01 1.965326e-01 1.726227e-01 1.573355e-01 2.698124e-01 1.911371e-02 0 0 0 0 
0 0 0 0 0 3.566687e+00 6.187156e+00 2.962896e+00 4.969043e+00 3.966559e+00 6.348005e+00 5.034053e+00 7.435287e+00 4.817291e+01 6.727995e+01 5.442884e+01 6.371075e+01 6.530012e+01 6.966777e+01 8.173839e+01 8.246798e+01 6.490797e+01 6.313690e+01 6.272743e+01 6.118208e+01 6.128073e+01 6.016730e+01 6.031201e+01 5.952871e+01 5.980514e+01 5.915966e+01 5.907391e+01 5.826658e+01 5.802263e+01 5.760393e+01 5.752812e+01 5.713474e+01 5.640373e+01 5.535742e+01 5.396010e+01 5.277971e+01 5.141612e+01 5.059957e+01 4.969575e+01 4.918813e+01 4.815247e+01 4.774560e+01 4.731448e+01 4.759829e+01 4.781910e+01 4.843214e+01 4.835493e+01 4.802284e+01 4.691843e+01 4.555809e+01 4.405016e+01 4.300686e+01 4.235114e+01 4.191247e+01 4.139380e+01 4.068827e+01 4.029865e+01 3.975000e+01 3.910145e+01 3.793054e+01 3.682470e+01 3.554390e+01 3.511666e+01 3.464816e+01 3.457913e+01 3.425479e+01 3.429973e+01 3.390508e+01 3.364497e+01 3.270630e+01 3.179416e+01 3.056345e+01 2.960361e+01 2.874209e+01 2.831697e+01 2.838861e+01 2.883462e+01 2.919249e+01 2.855368e+01 2.761415e+01 2.612477e+01 2.540701e+01 2.454570e+01 2.427396e+01 2.303396e+01 2.226067e+01 2.090236e+01 2.067250e+01 2.013597e+01 2.038872e+01 1.986879e+01 1.939090e+01 1.813293e+01 1.712681e+01 1.625268e+01 1.567391e+01 1.576421e+01 1.564723e+01 1.594886e+01 1.495550e+01 1.466496e+01 1.290609e+01 1.259539e+01 1.138644e+01 1.236304e+01 1.156827e+01 1.175880e+01 9.590917e+00 8.871696e+00 7.346751e+00 7.731537e+00 7.272367e+00 7.032872e+00 5.805474e+00 4.432172e+00 3.898936e+00 3.552176e+00 6.063467e+00 4.293304e-01 0 0 0 0 
0 0 0 0 0 5.162004e+00 8.947325e+00 4.275588e+00 7.187603e+00 5.740759e+00 9.188172e+00 7.285331e+00 1.076110e+01 1.453946e+01 2.086788e+01 2.725872e+01 3.848927e+01 5.131682e+01 6.368949e+01 7.443799e+01 9.347341e+01 9.399021e+01 9.142487e+01 9.083175e+01 8.859329e+01 8.873602e+01 8.712321e+01 8.733271e+01 8.619815e+01 8.659850e+01 8.566362e+01 8.553943e+01 8.437017e+01 8.401686e+01 8.341046e+01 8.330068e+01 8.273094e+01 8.167220e+01 8.015681e+01 7.813303e+01 7.642349e+01 7.444860e+01 7.326602e+01 7.195703e+01 7.122185e+01 6.972196e+01 6.913272e+01 6.850836e+01 6.891938e+01 6.923916e+01 7.012699e+01 7.001519e+01 6.953427e+01 6.793486e+01 6.596481e+01 6.378106e+01 6.227017e+01 6.132059e+01 6.068532e+01 5.993421e+01 5.891250e+01 5.834827e+01 5.755374e+01 5.661456e+01 5.491893e+01 5.331757e+01 5.146286e+01 5.084417e+01 5.016575e+01 5.006578e+01 4.959613e+01 4.966121e+01 4.908976e+01 4.871312e+01 4.735391e+01 4.603309e+01 4.425103e+01 4.286115e+01 4.161370e+01 4.099812e+01 4.110185e+01 4.174768e+01 4.226586e+01 4.134082e+01 3.998040e+01 3.782378e+01 3.678448e+01 3.553733e+01 3.514387e+01 3.334843e+01 3.222878e+01 3.026213e+01 2.992935e+01 2.915257e+01 2.951859e+01 2.876586e+01 2.807397e+01 2.625266e+01 2.479593e+01 2.353035e+01 2.269234e+01 2.282303e+01 2.265359e+01 2.309023e+01 2.165190e+01 2.123119e+01 1.868462e+01 1.823480e+01 1.648456e+01 1.789865e+01 1.674821e+01 1.702435e+01 1.388617e+01 1.284519e+01 1.063793e+01 1.119541e+01 1.053099e+01 1.018463e+01 8.408235e+00 6.421074e+00 5.650070e+00 5.147189e+00 8.779014e+00 6.215544e-01 0 0 0 0 
0 0 0 0 0 1.754385e+00 3.037376e+00 1.447036e+00 2.440873e+00 1.951097e+00 3.123133e+00 2.475853e+00 3.657389e+00 4.943536e+00 7.096251e+00 9.269513e+00 1.308847e+01 1.745150e+01 2.165965e+01 2.531620e+01 3.179245e+01 3.196824e+01 3.109535e+01 3.089353e+01 3.013184e+01 3.018032e+01 2.963153e+01 2.970276e+01 2.931672e+01 2.945292e+01 2.913485e+01 2.909261e+01 2.869481e+01 2.857462e+01 2.836832e+01 2.833098e+01 2.813716e+01 2.777695e+01 2.726140e+01 2.657288e+01 2.599129e+01 2.531942e+01 2.491711e+01 2.447179e+01 2.422169e+01 2.371144e+01 2.351099e+01 2.329860e+01 2.343842e+01 2.354720e+01 2.384923e+01 2.381120e+01 2.364761e+01 2.310354e+01 2.243337e+01 2.169054e+01 2.117659e+01 2.085358e+01 2.063749e+01 2.038200e+01 2.003445e+01 1.984253e+01 1.957226e+01 1.925280e+01 1.867604e+01 1.813136e+01 1.750050e+01 1.729006e+01 1.705931e+01 1.702531e+01 1.686557e+01 1.688772e+01 1.669336e+01 1.656526e+01 1.610298e+01 1.565374e+01 1.504766e+01 1.457494e+01 1.415069e+01 1.394133e+01 1.397660e+01 1.419626e+01 1.437248e+01 1.405786e+01 1.359517e+01 1.286170e+01 1.250823e+01 1.208408e+01 1.195027e+01 1.133968e+01 1.095891e+01 1.029013e+01 1.017698e+01 9.912849e+00 1.003735e+01 9.781407e+00 9.546137e+00 8.926822e+00 8.431439e+00 8.001085e+00 7.716095e+00 7.760510e+00 7.702862e+00 7.851305e+00 7.362148e+00 7.219065e+00 6.353091e+00 6.200136e+00 5.605036e+00 6.085956e+00 5.694869e+00 5.788909e+00 4.722046e+00 4.368224e+00 3.617936e+00 3.807685e+00 3.581939e+00 3.464345e+00 2.860609e+00 2.185435e+00 1.923757e+00 1.752349e+00 2.985359e+00 2.113377e-01 0 0 0 0 
0 0 0 0 0 0 0 0 0 0 0 0 0 0 0 0 0 0 0 0 0 0 0 0 0 0 0 0 0 0 0 0 0 0 0 0 0 0 0 0 0 0 0 0 0 0 0 0 0 0 0 0 0 0 0 0 0 0 0 0 0 0 0 0 0 0 0 0 0 0 0 0 0 0 0 0 0 0 0 0 0 0 0 0 0 0 0 0 0 0 0 0 0 0 0 0 0 0 0 0 0 0 0 0 0 0 0 0 0 0 0 0 0 0 0 0 0 0 0 0 0 0 0 0 0 0 0 0 
