# vtk DataFile Version 2.0
Comment goes here
ASCII

DATASET STRUCTURED_POINTS
FIELD FieldData 1
TIME 1 1 double
0.82000000
DIMENSIONS    128   16   1

ORIGIN    0.000   0.000   0.000
SPACING   0.0078125 0.015625   1.000

POINT_DATA   2048
SCALARS fMag double
LOOKUP_TABLE default

0 0 0 0 0 0 0 0 0 0 0 0 0 0 0 0 0 0 0 0 0 0 0 0 0 0 0 0 0 0 0 0 0 0 0 0 0 0 0 0 0 0 0 0 0 0 0 0 0 0 0 0 0 0 0 0 0 0 0 0 0 0 0 0 0 0 0 0 0 0 0 0 0 0 0 0 0 0 0 0 0 0 0 0 0 0 0 0 0 0 0 0 0 0 0 0 0 0 0 0 0 0 0 0 0 0 0 0 0 0 0 0 0 0 0 0 0 0 0 0 0 0 0 0 0 0 0 0 
0 0 0 0 0 0 0 0 0 0 0 0 0 0 0 0 0 0 0 0 0 0 0 0 0 0 0 0 0 0 0 0 0 0 0 0 0 0 0 0 0 0 0 0 0 0 0 0 0 0 0 0 0 0 0 0 0 0 0 0 0 0 0 0 0 0 0 0 0 0 0 0 0 0 0 0 0 0 0 0 0 0 0 0 0 0 0 0 0 0 0 0 0 0 0 0 0 0 0 0 0 0 0 0 0 0 0 0 0 0 0 0 0 0 0 0 0 0 0 0 0 0 0 0 0 0 0 0 
0 0 0 0 0 2.031386e+00 1.589162e+00 8.275449e-01 1.392235e+00 9.694508e-01 1.672359e+00 1.197506e+00 1.820784e+00 2.436180e+00 3.595582e+00 5.044127e+00 6.472233e+00 8.793105e+00 1.085577e+01 1.219304e+01 1.616257e+01 1.617489e+01 1.583006e+01 1.596508e+01 1.556097e+01 1.571663e+01 1.529121e+01 1.544894e+01 1.503062e+01 1.516605e+01 1.477991e+01 1.486999e+01 1.453885e+01 1.456818e+01 1.430276e+01 1.425541e+01 1.405665e+01 1.393357e+01 1.380703e+01 1.362284e+01 1.356727e+01 1.333853e+01 1.334095e+01 1.307397e+01 1.310212e+01 1.279876e+01 1.283319e+01 1.252385e+01 1.257137e+01 1.229687e+01 1.235972e+01 1.214275e+01 1.220134e+01 1.204652e+01 1.208242e+01 1.201819e+01 1.251498e+01 1.457202e+01 1.444833e+01 1.328273e+01 1.452420e+01 1.734550e+01 1.688913e+01 1.641326e+01 1.505278e+01 1.384574e+01 1.920097e+01 1.955708e+01 1.818863e+01 1.622196e+01 1.311918e+01 1.210009e+01 9.903044e+00 8.084873e+00 7.689205e+00 7.622555e+00 7.395699e+00 7.303207e+00 7.108794e+00 6.986014e+00 6.840753e+00 6.679765e+00 6.583737e+00 6.382448e+00 6.331107e+00 6.094253e+00 6.069015e+00 5.804507e+00 5.786481e+00 5.516507e+00 5.487723e+00 5.235757e+00 5.176682e+00 4.968034e+00 4.861068e+00 4.714498e+00 4.543516e+00 4.474550e+00 4.231373e+00 4.241839e+00 3.914449e+00 3.991485e+00 3.584460e+00 3.718831e+00 3.256406e+00 3.434250e+00 2.954523e+00 3.155546e+00 2.695680e+00 2.873239e+00 2.455995e+00 2.556815e+00 2.216109e+00 2.205097e+00 1.981552e+00 1.840676e+00 1.768858e+00 1.490529e+00 1.573210e+00 1.160046e+00 1.341760e+00 8.330573e-01 2.051184e+00 5.425843e-01 0 0 0 0 
0 0 0 0 0 5.976625e+00 4.691134e+00 2.436788e+00 4.104810e+00 2.853401e+00 4.919537e+00 3.522630e+00 5.355983e+00 7.165105e+00 1.057473e+01 1.483471e+01 1.903465e+01 2.585943e+01 3.192523e+01 3.585722e+01 4.752835e+01 4.756427e+01 4.655040e+01 4.694747e+01 4.575955e+01 4.621742e+01 4.496686e+01 4.543079e+01 4.420097e+01 4.459924e+01 4.346391e+01 4.372875e+01 4.275508e+01 4.284126e+01 4.206080e+01 4.192154e+01 4.133708e+01 4.097518e+01 4.060311e+01 4.006159e+01 3.989822e+01 3.922571e+01 3.923287e+01 3.844792e+01 3.853071e+01 3.763876e+01 3.773999e+01 3.683040e+01 3.697010e+01 3.616290e+01 3.634765e+01 3.570961e+01 3.588180e+01 3.542650e+01 3.553204e+01 3.534315e+01 3.654034e+01 4.048672e+01 3.994334e+01 3.953342e+01 4.092284e+01 4.218971e+01 4.051870e+01 4.040896e+01 3.944478e+01 3.870047e+01 4.221659e+01 3.814576e+01 3.651395e+01 3.458660e+01 3.171182e+01 3.141734e+01 2.799822e+01 2.377744e+01 2.261389e+01 2.241789e+01 2.175077e+01 2.147877e+01 2.090705e+01 2.054598e+01 2.011880e+01 1.964537e+01 1.936297e+01 1.877102e+01 1.862003e+01 1.792347e+01 1.784923e+01 1.707132e+01 1.701827e+01 1.622425e+01 1.613955e+01 1.539849e+01 1.522471e+01 1.461105e+01 1.429646e+01 1.386539e+01 1.336258e+01 1.315979e+01 1.244469e+01 1.247553e+01 1.151276e+01 1.173937e+01 1.054234e+01 1.093750e+01 9.577408e+00 1.010030e+01 8.689162e+00 9.280090e+00 7.927214e+00 8.449041e+00 7.221456e+00 7.517617e+00 6.515218e+00 6.482633e+00 5.825052e+00 5.410807e+00 5.199839e+00 4.381660e+00 4.625373e+00 3.410294e+00 3.939566e+00 2.441275e+00 6.028630e+00 1.595508e+00 0 0 0 0 
0 0 0 0 0 4.129350e+00 3.248738e+00 1.684707e+00 2.840280e+00 1.972015e+00 3.398613e+00 2.433552e+00 3.700044e+00 2.476402e+01 3.762682e+01 2.743468e+01 2.964319e+01 3.324075e+01 3.297272e+01 4.218509e+01 4.333151e+01 3.285106e+01 3.215088e+01 3.242513e+01 3.160488e+01 3.192119e+01 3.105767e+01 3.137815e+01 3.052890e+01 3.080397e+01 3.001993e+01 3.020282e+01 2.953038e+01 2.958987e+01 2.905085e+01 2.895465e+01 2.855100e+01 2.830106e+01 2.804411e+01 2.767014e+01 2.755733e+01 2.709291e+01 2.709788e+01 2.655580e+01 2.661299e+01 2.599701e+01 2.606692e+01 2.543873e+01 2.553519e+01 2.497769e+01 2.510526e+01 2.466458e+01 2.478346e+01 2.446898e+01 2.454185e+01 2.441140e+01 2.482298e+01 2.142566e+01 1.824560e+01 1.955146e+01 1.842805e+01 1.385724e+01 1.295495e+01 1.313161e+01 1.412755e+01 1.462962e+01 8.091202e+00 8.423969e+00 1.121423e+01 1.270671e+01 1.155230e+01 1.355147e+01 1.688645e+01 1.642368e+01 1.562003e+01 1.548466e+01 1.502389e+01 1.483602e+01 1.444114e+01 1.419176e+01 1.389670e+01 1.356971e+01 1.337466e+01 1.296580e+01 1.286150e+01 1.238038e+01 1.232910e+01 1.179177e+01 1.175512e+01 1.120666e+01 1.114813e+01 1.063624e+01 1.051619e+01 1.009230e+01 9.874998e+00 9.577249e+00 9.229962e+00 9.089907e+00 8.596006e+00 8.617343e+00 7.952374e+00 8.108923e+00 7.282110e+00 7.555046e+00 6.615545e+00 6.976655e+00 6.001810e+00 6.409844e+00 5.475175e+00 5.835435e+00 4.987280e+00 5.191676e+00 4.499105e+00 4.476502e+00 4.022226e+00 3.736129e+00 3.590528e+00 3.025577e+00 3.194181e+00 2.354908e+00 2.717997e+00 1.682028e+00 4.162257e+00 1.101951e+00 0 0 0 0 
0 0 0 0 0 1.841110e-01 1.467657e-01 7.546373e-02 1.277048e-01 8.806456e-02 1.514346e-01 1.084281e-01 1.648446e-01 2.682842e+01 2.926498e+01 2.765089e+01 2.789181e+01 2.827081e+01 2.711099e+01 2.893003e+01 2.722015e+01 1.461680e+00 1.430541e+00 1.442747e+00 1.406302e+00 1.420395e+00 1.382025e+00 1.396297e+00 1.358548e+00 1.370789e+00 1.335926e+00 1.344058e+00 1.314148e+00 1.316787e+00 1.292808e+00 1.288525e+00 1.270568e+00 1.259451e+00 1.248023e+00 1.231395e+00 1.226381e+00 1.205733e+00 1.205959e+00 1.181856e+00 1.184404e+00 1.157010e+00 1.160120e+00 1.132177e+00 1.136464e+00 1.111660e+00 1.117327e+00 1.097716e+00 1.102996e+00 1.088999e+00 1.092236e+00 1.086431e+00 7.884160e-01 5.464553e+00 8.997211e+00 8.632552e+00 9.729987e+00 1.244386e+01 1.243028e+01 1.238941e+01 1.184183e+01 1.048482e+01 1.483239e+01 1.387021e+01 1.192405e+01 8.786961e+00 6.782458e+00 5.832015e+00 1.389669e+00 7.311096e-01 6.953472e-01 6.893230e-01 6.688185e-01 6.604583e-01 6.428849e-01 6.317867e-01 6.186557e-01 6.041033e-01 5.954225e-01 5.772259e-01 5.725837e-01 5.511690e-01 5.488841e-01 5.249648e-01 5.233288e-01 4.989104e-01 4.962996e-01 4.735071e-01 4.681585e-01 4.492843e-01 4.396107e-01 4.263554e-01 4.109007e-01 4.046707e-01 3.826940e-01 3.836517e-01 3.540599e-01 3.610350e-01 3.242311e-01 3.363784e-01 2.945425e-01 3.106003e-01 2.671708e-01 2.853004e-01 2.436414e-01 2.596331e-01 2.218183e-01 2.308741e-01 1.999959e-01 1.989652e-01 1.787256e-01 1.659982e-01 1.595472e-01 1.344450e-01 1.420179e-01 1.046606e-01 1.201908e-01 7.380984e-02 1.848113e-01 4.902682e-02 0 0 0 0 
0 0 0 0 0 0 0 0 0 0 0 0 0 2.946491e+01 3.229329e+01 3.016568e+01 3.058278e+01 3.115517e+01 2.957980e+01 3.207492e+01 2.968922e+01 0 0 0 0 0 0 0 0 0 0 0 0 0 0 0 0 0 0 0 0 0 0 0 0 0 0 0 0 0 0 0 0 0 0 0 1.774389e-01 1.421786e+00 1.973392e+00 1.418643e+00 1.233494e+00 1.067637e+00 7.714100e-01 4.526988e-01 4.630601e-01 5.258841e-01 4.960321e-01 8.306576e-01 1.574040e+00 1.631281e+00 2.189945e+00 2.266280e+00 8.729170e-01 0 0 0 0 0 0 0 0 0 0 0 0 0 0 0 0 0 0 0 0 0 0 0 0 0 0 0 0 0 0 0 0 0 0 0 0 0 0 0 0 0 0 0 0 0 0 0 0 0 0 0 0 0 0 0 
0 0 0 0 0 0 0 0 0 0 0 0 0 2.852780e+01 2.950309e+01 2.868392e+01 2.899002e+01 2.900758e+01 2.864523e+01 2.938131e+01 2.858847e+01 0 0 0 0 0 0 0 0 0 0 0 0 0 0 0 0 0 0 0 0 0 0 0 0 0 0 0 0 0 0 0 0 0 0 0 1.628262e-01 7.539133e-01 7.040479e-01 1.534464e-01 4.560358e-01 3.845046e-01 3.987556e-01 6.819692e-01 7.243244e-01 9.028153e-01 8.223060e-01 3.754632e-01 5.923166e-01 6.188341e-01 3.072220e-01 1.816567e-01 6.398930e-02 0 0 0 0 0 0 0 0 0 0 0 0 0 0 0 0 0 0 0 0 0 0 0 0 0 0 0 0 0 0 0 0 0 0 0 0 0 0 0 0 0 0 0 0 0 0 0 0 0 0 0 0 0 0 0 
0 0 0 0 0 0 0 0 0 0 0 0 0 3.056558e+01 3.196417e+01 3.088491e+01 3.122452e+01 3.142942e+01 3.066968e+01 3.196606e+01 3.052723e+01 0 0 0 0 0 0 0 0 0 0 0 0 0 0 0 0 0 0 0 0 0 0 0 0 0 0 0 0 0 0 0 0 0 0 0 1.369526e-01 6.091694e-01 6.296405e-01 4.351024e-01 4.351318e-01 3.351016e-01 2.613301e-01 1.502575e-01 7.653521e-02 7.477682e-02 6.220666e-02 1.271847e-01 2.762958e-01 3.780970e-01 4.311401e-01 2.899525e-01 1.090219e-02 0 0 0 0 0 0 0 0 0 0 0 0 0 0 0 0 0 0 0 0 0 0 0 0 0 0 0 0 0 0 0 0 0 0 0 0 0 0 0 0 0 0 0 0 0 0 0 0 0 0 0 0 0 0 0 
0 0 0 0 0 0 0 0 0 0 0 0 0 2.852471e+01 2.950109e+01 2.868387e+01 2.898585e+01 2.901084e+01 2.864057e+01 2.938520e+01 2.858817e+01 0 0 0 0 0 0 0 0 0 0 0 0 0 0 0 0 0 0 0 0 0 0 0 0 0 0 0 0 0 0 0 0 0 0 0 3.237907e-01 9.955868e-01 1.000424e+00 6.646348e-01 9.249214e-01 1.007127e+00 1.123406e+00 1.060846e+00 8.521594e-01 8.935551e-01 1.273085e+00 1.254304e+00 8.968867e-01 9.913888e-01 8.493834e-01 3.660361e-01 1.058749e-02 0 0 0 0 0 0 0 0 0 0 0 0 0 0 0 0 0 0 0 0 0 0 0 0 0 0 0 0 0 0 0 0 0 0 0 0 0 0 0 0 0 0 0 0 0 0 0 0 0 0 0 0 0 0 0 
0 0 0 0 0 0 0 0 0 0 0 0 0 2.944569e+01 3.229528e+01 3.016298e+01 3.056406e+01 3.117317e+01 2.955261e+01 3.208931e+01 2.970284e+01 0 0 0 0 0 0 0 0 0 0 0 0 0 0 0 0 0 0 0 0 0 0 0 0 0 0 0 0 0 0 0 0 0 0 0 1.750495e-01 5.604824e-01 6.371774e-01 5.529467e-01 6.517258e-01 6.188490e-01 6.505236e-01 5.934460e-01 5.344473e-01 5.302808e-01 6.166358e-01 5.565894e-01 3.319295e-01 3.802177e-01 3.921872e-01 1.970966e-01 2.283323e-04 0 0 0 0 0 0 0 0 0 0 0 0 0 0 0 0 0 0 0 0 0 0 0 0 0 0 0 0 0 0 0 0 0 0 0 0 0 0 0 0 0 0 0 0 0 0 0 0 0 0 0 0 0 0 0 
0 0 0 0 0 1.839303e-01 1.468874e-01 7.536215e-02 1.278863e-01 8.800223e-02 1.516056e-01 1.083141e-01 1.651688e-01 2.680855e+01 2.926998e+01 2.765458e+01 2.787688e+01 2.829339e+01 2.707762e+01 2.895197e+01 2.723106e+01 1.459789e+00 1.431727e+00 1.440899e+00 1.407780e+00 1.419164e+00 1.383937e+00 1.395969e+00 1.360089e+00 1.370608e+00 1.336046e+00 1.343563e+00 1.312179e+00 1.315590e+00 1.289040e+00 1.288049e+00 1.267293e+00 1.261382e+00 1.246005e+00 1.234668e+00 1.223451e+00 1.206248e+00 1.197597e+00 1.175491e+00 1.169587e+00 1.145650e+00 1.143079e+00 1.119389e+00 1.118533e+00 1.094616e+00 1.091742e+00 1.066061e+00 1.058614e+00 1.032232e+00 1.020983e+00 9.966646e-01 9.827150e-01 9.617239e-01 9.451751e-01 9.290947e-01 9.088907e-01 8.953960e-01 8.718701e-01 8.614607e-01 8.361777e-01 8.284730e-01 8.022245e-01 7.965860e-01 7.725307e-01 7.688120e-01 7.469800e-01 7.437321e-01 7.243494e-01 7.186003e-01 6.997953e-01 6.900288e-01 6.734835e-01 6.605635e-01 6.485720e-01 6.330826e-01 6.262855e-01 6.077751e-01 6.049495e-01 5.820476e-01 5.808090e-01 5.534178e-01 5.530000e-01 5.237573e-01 5.243983e-01 4.966566e-01 4.977965e-01 4.737822e-01 4.726085e-01 4.524328e-01 4.452459e-01 4.295234e-01 4.146429e-01 4.052517e-01 3.828123e-01 3.817939e-01 3.527628e-01 3.602298e-01 3.246090e-01 3.383067e-01 2.970023e-01 3.145747e-01 2.700978e-01 2.884702e-01 2.441618e-01 2.601167e-01 2.201413e-01 2.301390e-01 1.983149e-01 1.990997e-01 1.789853e-01 1.678867e-01 1.611286e-01 1.361811e-01 1.429790e-01 1.053225e-01 1.204714e-01 7.356420e-02 1.849219e-01 4.862976e-02 0 0 0 0 
0 0 0 0 0 4.125300e+00 3.251565e+00 1.682251e+00 2.844452e+00 1.970625e+00 3.402445e+00 2.430956e+00 3.707259e+00 2.466947e+01 3.769096e+01 2.740984e+01 2.957584e+01 3.334943e+01 3.280595e+01 4.225599e+01 4.344351e+01 3.280867e+01 3.217776e+01 3.238390e+01 3.163851e+01 3.189393e+01 3.110107e+01 3.137114e+01 3.056382e+01 3.080008e+01 3.002267e+01 3.019165e+01 2.948595e+01 2.956272e+01 2.896587e+01 2.894369e+01 2.847713e+01 2.834432e+01 2.799866e+01 2.774374e+01 2.749154e+01 2.710467e+01 2.691009e+01 2.641295e+01 2.628010e+01 2.574181e+01 2.568393e+01 2.515123e+01 2.513194e+01 2.459422e+01 2.452962e+01 2.395232e+01 2.378495e+01 2.319196e+01 2.293912e+01 2.239254e+01 2.207900e+01 2.160722e+01 2.123522e+01 2.087379e+01 2.041961e+01 2.011627e+01 1.958741e+01 1.935341e+01 1.878509e+01 1.861188e+01 1.802192e+01 1.789518e+01 1.735458e+01 1.727103e+01 1.678045e+01 1.670751e+01 1.627200e+01 1.614286e+01 1.572036e+01 1.550092e+01 1.512918e+01 1.483884e+01 1.456939e+01 1.422127e+01 1.406850e+01 1.365248e+01 1.358892e+01 1.307424e+01 1.304636e+01 1.243089e+01 1.242151e+01 1.176455e+01 1.177905e+01 1.115593e+01 1.118170e+01 1.064239e+01 1.061619e+01 1.016311e+01 1.000174e+01 9.648609e+00 9.314251e+00 9.103211e+00 8.598908e+00 8.575836e+00 7.923416e+00 8.090958e+00 7.290641e+00 7.598324e+00 6.670670e+00 7.065732e+00 6.067280e+00 6.480712e+00 5.486490e+00 5.845900e+00 4.949221e+00 5.174809e+00 4.461032e+00 4.479278e+00 4.027865e+00 3.778427e+00 3.625975e+00 3.064544e+00 3.215762e+00 2.369734e+00 2.723662e+00 1.675956e+00 4.164454e+00 1.093014e+00 0 0 0 0 
0 0 0 0 0 5.970764e+00 4.695251e+00 2.433185e+00 4.110874e+00 2.851392e+00 4.925082e+00 3.518863e+00 5.366412e+00 7.118220e+00 1.057837e+01 1.485914e+01 1.897321e+01 2.586064e+01 3.192038e+01 3.573188e+01 4.760196e+01 4.750291e+01 4.658938e+01 4.688785e+01 4.580835e+01 4.617806e+01 4.502981e+01 4.542074e+01 4.425161e+01 4.459365e+01 4.346790e+01 4.371256e+01 4.269071e+01 4.280189e+01 4.193768e+01 4.190560e+01 4.123006e+01 4.103777e+01 4.053728e+01 4.016816e+01 3.980298e+01 3.924279e+01 3.896102e+01 3.824114e+01 3.804876e+01 3.726929e+01 3.718546e+01 3.641412e+01 3.638618e+01 3.560758e+01 3.551404e+01 3.467815e+01 3.443582e+01 3.357722e+01 3.321115e+01 3.241976e+01 3.196578e+01 3.128269e+01 3.074407e+01 3.022076e+01 2.956313e+01 2.912392e+01 2.835818e+01 2.801935e+01 2.719648e+01 2.694569e+01 2.609148e+01 2.590798e+01 2.512526e+01 2.500430e+01 2.429402e+01 2.418843e+01 2.355790e+01 2.337094e+01 2.275924e+01 2.244154e+01 2.190333e+01 2.148297e+01 2.109285e+01 2.058882e+01 2.036762e+01 1.976527e+01 1.967323e+01 1.892805e+01 1.888768e+01 1.799658e+01 1.798301e+01 1.703188e+01 1.705289e+01 1.615079e+01 1.618814e+01 1.540740e+01 1.536950e+01 1.471359e+01 1.447998e+01 1.396875e+01 1.348466e+01 1.317911e+01 1.244895e+01 1.241550e+01 1.147089e+01 1.171340e+01 1.055470e+01 1.100014e+01 9.657182e+00 1.022921e+01 8.783874e+00 9.382603e+00 7.943500e+00 8.464091e+00 7.166258e+00 7.493107e+00 6.460019e+00 6.486590e+00 5.833167e+00 5.472011e+00 5.251137e+00 4.438068e+00 4.656616e+00 3.431748e+00 3.947605e+00 2.432342e+00 6.031736e+00 1.582566e+00 0 0 0 0 
0 0 0 0 0 2.029395e+00 1.590573e+00 8.262973e-01 1.394309e+00 9.687691e-01 1.674243e+00 1.196221e+00 1.824321e+00 2.420237e+00 3.596830e+00 5.052456e+00 6.451365e+00 8.793551e+00 1.085415e+01 1.215044e+01 1.618762e+01 1.615403e+01 1.584335e+01 1.594484e+01 1.557762e+01 1.570329e+01 1.531267e+01 1.544557e+01 1.504788e+01 1.516417e+01 1.478127e+01 1.486447e+01 1.451694e+01 1.455476e+01 1.426085e+01 1.424996e+01 1.402022e+01 1.395483e+01 1.378463e+01 1.365909e+01 1.353489e+01 1.334436e+01 1.324853e+01 1.300368e+01 1.293824e+01 1.267313e+01 1.264461e+01 1.238228e+01 1.237277e+01 1.210797e+01 1.207616e+01 1.179189e+01 1.170948e+01 1.141749e+01 1.129300e+01 1.102388e+01 1.086949e+01 1.063720e+01 1.045403e+01 1.027606e+01 1.005242e+01 9.903052e+00 9.642636e+00 9.527407e+00 9.247565e+00 9.162276e+00 8.871787e+00 8.809385e+00 8.543213e+00 8.502081e+00 8.260552e+00 8.224651e+00 8.010248e+00 7.946677e+00 7.738677e+00 7.630646e+00 7.447635e+00 7.304689e+00 7.172030e+00 7.000631e+00 6.925405e+00 6.720569e+00 6.689262e+00 6.435859e+00 6.422124e+00 6.119110e+00 6.114498e+00 5.791086e+00 5.798243e+00 5.491515e+00 5.504237e+00 5.238784e+00 5.225920e+00 5.002914e+00 4.923490e+00 4.749668e+00 4.585056e+00 4.481152e+00 4.232852e+00 4.221454e+00 3.900233e+00 3.982667e+00 3.588668e+00 3.740126e+00 3.283514e+00 3.478057e+00 2.986692e+00 3.190361e+00 2.701172e+00 2.878307e+00 2.437178e+00 2.548437e+00 2.197302e+00 2.206412e+00 1.984287e+00 1.861471e+00 1.786291e+00 1.509705e+00 1.583833e+00 1.167336e+00 1.344414e+00 8.299497e-01 2.052205e+00 5.381816e-01 0 0 0 0 
0 0 0 0 0 0 0 0 0 0 0 0 0 0 0 0 0 0 0 0 0 0 0 0 0 0 0 0 0 0 0 0 0 0 0 0 0 0 0 0 0 0 0 0 0 0 0 0 0 0 0 0 0 0 0 0 0 0 0 0 0 0 0 0 0 0 0 0 0 0 0 0 0 0 0 0 0 0 0 0 0 0 0 0 0 0 0 0 0 0 0 0 0 0 0 0 0 0 0 0 0 0 0 0 0 0 0 0 0 0 0 0 0 0 0 0 0 0 0 0 0 0 0 0 0 0 0 0 
