# vtk DataFile Version 2.0
Comment goes here
ASCII

DATASET STRUCTURED_POINTS
FIELD FieldData 1
TIME 1 1 double
0.04000000
DIMENSIONS    128   16   1

ORIGIN    0.000   0.000   0.000
SPACING   0.0078125 0.015625   1.000

POINT_DATA   2048
SCALARS fX double
LOOKUP_TABLE default

0 0 0 0 0 0 0 0 0 0 0 0 0 0 0 0 0 0 0 0 0 0 0 0 0 0 0 0 0 0 0 0 0 0 0 0 0 0 0 0 0 0 0 0 0 0 0 0 0 0 0 0 0 0 0 0 0 0 0 0 0 0 0 0 0 0 0 0 0 0 0 0 0 0 0 0 0 0 0 0 0 0 0 0 0 0 0 0 0 0 0 0 0 0 0 0 0 0 0 0 0 0 0 0 0 0 0 0 0 0 0 0 0 0 0 0 0 0 0 0 0 0 0 0 0 0 0 0 
0 0 0 0 0 0 0 0 0 0 0 0 0 0 0 0 0 0 0 0 0 0 0 0 0 0 0 0 0 0 0 0 0 0 0 0 0 0 0 0 0 0 0 0 0 0 0 0 0 0 0 0 0 0 0 0 0 0 0 0 0 0 0 0 0 0 0 0 0 0 0 0 0 0 0 0 0 0 0 0 0 0 0 0 0 0 0 0 0 0 0 0 0 0 0 0 0 0 0 0 0 0 0 0 0 0 0 0 0 0 0 0 0 0 0 0 0 0 0 0 0 0 0 0 0 0 0 0 
0 0 0 0 0 -1.055915e+00 -2.298251e+00 -3.877144e+00 1.752963e+00 8.224082e+00 7.095992e+00 2.738466e+00 -4.736876e+00 -1.091112e+01 -1.039185e+01 -5.556042e+00 -1.101161e+00 6.030919e+00 7.136767e+00 8.680559e-01 -7.342707e+00 -1.747328e+01 -1.917287e+01 -4.613741e+00 1.220317e+01 1.106631e+01 -2.911539e+00 -1.116581e+01 -7.125185e+00 9.193806e-01 3.921001e+00 2.084779e+00 -4.771493e-01 -8.777033e-01 1.578213e+00 1.661659e+00 -2.093428e+00 -1.519996e+00 4.378702e+00 5.084796e+00 -7.079028e-01 -3.458472e+00 -5.779184e-01 5.902029e+00 9.474369e+00 2.682646e+00 2.212379e+00 8.530723e+00 3.785207e-01 2.031111e-01 5.127465e+00 -1.192957e+00 4.773381e-01 3.463729e+00 -1.137659e+00 -1.816096e+00 -3.701543e-01 -1.547574e+00 2.138887e+00 2.897050e+00 1.273795e+00 -1.462339e+00 -6.431591e+00 -3.142972e+00 8.832893e-01 1.344162e+00 3.681022e+00 3.858310e+00 3.653649e+00 5.912770e+00 3.513885e+00 -1.404324e+00 -2.205809e+00 -2.766973e+00 -2.496144e+00 2.099480e+00 1.303135e+00 2.458040e+00 2.004051e+00 -2.853760e+00 8.563534e-01 -4.329127e+00 -1.287042e+01 -5.168017e+00 -6.024346e-01 -3.152625e+00 3.825110e+00 5.228896e+00 2.426935e+00 6.911105e+00 4.010204e+00 -5.313877e-01 3.509878e+00 3.931036e+00 9.884106e-01 5.915906e+00 9.240584e+00 2.082451e+00 -1.702620e+00 4.434822e+00 4.216289e+00 -7.803108e+00 -1.224439e+01 2.520498e-01 1.010965e+01 -1.981531e-01 -1.684820e+01 -1.460600e+01 7.313264e+00 2.111357e+01 8.837933e+00 -1.624362e+01 -2.507476e+01 -6.178432e+00 2.107724e+01 3.052077e+01 1.443388e+01 -1.072027e+01 -2.192105e+01 -9.775493e+00 1.332531e+01 2.433653e+01 1.264963e+01 8.120125e-01 0 0 0 0 
0 0 0 0 0 -3.105138e+00 -6.756357e+00 -1.140116e+01 5.154088e+00 2.418713e+01 2.086950e+01 8.052938e+00 -1.393237e+01 -3.209361e+01 -3.056756e+01 -1.634331e+01 -3.239148e+00 1.774192e+01 2.099523e+01 2.553438e+00 -2.160324e+01 -5.140844e+01 -5.640915e+01 -1.357461e+01 3.590376e+01 3.255977e+01 -8.564105e+00 -3.284933e+01 -2.096251e+01 2.704526e+00 1.153524e+01 6.133228e+00 -1.403675e+00 -2.582015e+00 4.643134e+00 4.888665e+00 -6.158439e+00 -4.471567e+00 1.288173e+01 1.495899e+01 -2.082993e+00 -1.017517e+01 -1.700463e+00 1.736350e+01 2.787319e+01 7.892147e+00 6.508385e+00 2.509593e+01 1.112787e+00 5.960698e-01 1.508303e+01 -3.509329e+00 1.404782e+00 1.018992e+01 -3.346539e+00 -5.342570e+00 -9.740274e-01 -3.960525e+00 7.010057e+00 9.140694e+00 3.339603e+00 -6.161396e+00 -1.972830e+01 -8.700150e+00 3.747011e+00 5.027969e+00 9.800173e+00 9.813524e+00 1.059090e+01 1.776424e+01 1.099999e+01 -3.669310e+00 -6.466318e+00 -8.139863e+00 -7.343193e+00 6.176036e+00 3.833674e+00 7.231007e+00 5.895619e+00 -8.394474e+00 2.519327e+00 -1.273384e+01 -3.785872e+01 -1.520213e+01 -1.772926e+00 -9.274541e+00 1.125116e+01 1.538116e+01 7.140087e+00 2.033105e+01 1.179742e+01 -1.562929e+00 1.032341e+01 1.156215e+01 2.907353e+00 1.740220e+01 2.718099e+01 6.125847e+00 -5.006949e+00 1.304557e+01 1.240299e+01 -2.294818e+01 -3.600939e+01 7.445954e-01 2.973815e+01 -5.806552e-01 -4.955768e+01 -4.296451e+01 2.150676e+01 6.209990e+01 2.599661e+01 -4.777492e+01 -7.375346e+01 -1.817832e+01 6.198998e+01 8.977566e+01 4.246165e+01 -3.153317e+01 -6.447741e+01 -2.875139e+01 3.920177e+01 7.159260e+01 3.720883e+01 2.387626e+00 0 0 0 0 
0 0 0 0 0 -2.144658e+00 -4.665454e+00 -7.874371e+00 3.559409e+00 1.670680e+01 1.441525e+01 5.561964e+00 -9.624075e+00 -4.385972e+01 -5.242743e+01 -4.481652e+01 -3.409809e+01 -2.350048e+01 -3.097439e+01 -4.143992e+01 -4.089428e+01 -3.551874e+01 -3.897395e+01 -9.379089e+00 2.480665e+01 2.249664e+01 -5.916087e+00 -2.269516e+01 -1.448296e+01 1.868398e+00 7.969456e+00 4.237315e+00 -9.697422e-01 -1.783806e+00 3.207927e+00 3.377578e+00 -4.254619e+00 -3.089249e+00 8.899706e+00 1.033484e+01 -1.439292e+00 -7.030125e+00 -1.174949e+00 1.199620e+01 1.925720e+01 5.452536e+00 4.496390e+00 1.733790e+01 7.684194e-01 4.111020e-01 1.041981e+01 -2.424402e+00 9.707747e-01 7.039971e+00 -2.311881e+00 -3.690960e+00 -6.201756e-01 -2.643117e+00 4.826311e+00 6.015256e+00 1.312512e+00 -6.115642e+00 -1.484895e+01 -6.330635e+00 2.290395e+00 3.003889e+00 5.112364e+00 5.024037e+00 6.561402e+00 1.186530e+01 7.145263e+00 -2.936577e+00 -4.543298e+00 -5.623502e+00 -5.073139e+00 4.266675e+00 2.648587e+00 4.995591e+00 4.073099e+00 -5.799063e+00 1.740555e+00 -8.796536e+00 -2.615341e+01 -1.050200e+01 -1.225176e+00 -6.407486e+00 7.772230e+00 1.062565e+01 4.933061e+00 1.404589e+01 8.150465e+00 -1.079617e+00 7.131087e+00 7.986786e+00 2.008404e+00 1.202191e+01 1.877684e+01 4.231957e+00 -3.458221e+00 9.012282e+00 8.568495e+00 -1.585060e+01 -2.487205e+01 5.159210e-01 2.054374e+01 -4.000510e-01 -3.423436e+01 -2.968083e+01 1.485459e+01 4.289656e+01 1.795867e+01 -3.300070e+01 -5.094780e+01 -1.255995e+01 4.281914e+01 6.201744e+01 2.933510e+01 -2.178322e+01 -4.454007e+01 -1.986022e+01 2.708362e+01 4.946020e+01 2.570424e+01 1.648958e+00 0 0 0 0 
0 0 0 0 0 -9.543555e-02 -2.073470e-01 -3.503551e-01 1.582843e-01 7.437475e-01 6.417449e-01 2.474917e-01 -4.285833e-01 -4.692117e+01 -4.972069e+01 -4.512373e+01 -4.355763e+01 -4.362776e+01 -4.243480e+01 -5.306973e+01 -5.148293e+01 -1.583585e+00 -1.737674e+00 -4.182171e-01 1.106067e+00 1.003174e+00 -2.635216e-01 -1.011633e+00 -6.456396e-01 8.325251e-02 3.552155e-01 1.888651e-01 -4.321652e-02 -7.949436e-02 1.430051e-01 1.505718e-01 -1.896076e-01 -1.376785e-01 3.966756e-01 4.606416e-01 -6.420210e-02 -3.134273e-01 -5.240416e-02 5.347272e-01 8.583861e-01 2.430357e-01 2.003840e-01 7.726994e-01 3.415312e-02 1.814334e-02 4.642461e-01 -1.080305e-01 4.333045e-02 3.137784e-01 -1.030018e-01 -1.644861e-01 -8.856024e-02 -8.841372e-01 -9.124433e-01 -9.307319e-01 -1.403837e+00 -2.053785e+00 -2.226567e+00 -1.401814e+00 -1.254324e+00 -1.270195e+00 -1.542041e+00 -1.352989e+00 -7.125060e-01 -2.639672e-01 -5.932266e-01 -8.549765e-01 -3.079271e-01 -2.506111e-01 -2.260905e-01 1.901193e-01 1.180486e-01 2.226234e-01 1.815314e-01 -2.583488e-01 7.758149e-02 -3.918250e-01 -1.165107e+00 -4.678839e-01 -5.468455e-02 -2.855699e-01 3.461812e-01 4.733868e-01 2.199087e-01 6.259542e-01 3.632524e-01 -4.807568e-02 3.175588e-01 3.556671e-01 8.946175e-02 5.356109e-01 8.364318e-01 1.885607e-01 -1.538929e-01 4.015375e-01 3.817971e-01 -7.055253e-01 -1.107057e+00 2.337534e-02 9.152393e-01 -1.754891e-02 -1.524882e+00 -1.322316e+00 6.610893e-01 1.910224e+00 7.999868e-01 -1.469389e+00 -2.269095e+00 -5.600587e-01 1.906397e+00 2.762554e+00 1.307335e+00 -9.703184e-01 -1.983719e+00 -8.843193e-01 1.207160e+00 2.204136e+00 1.145045e+00 7.334462e-02 0 0 0 0 
0 0 0 0 0 0 0 0 0 0 0 0 0 -4.793306e+01 -5.120693e+01 -4.874867e+01 -4.850399e+01 -4.978278e+01 -4.849732e+01 -5.630244e+01 -5.121687e+01 0 0 0 0 0 0 0 0 0 0 0 0 0 0 0 0 0 0 0 0 0 0 0 0 0 0 0 0 0 0 0 0 0 0 0 -7.356169e-02 -6.702139e-01 -8.860909e-01 -6.986515e-01 -6.453121e-01 -6.479355e-01 -6.845783e-01 -6.315181e-01 -6.721034e-01 -5.718714e-01 -5.305173e-01 -4.263706e-01 -3.366273e-01 -2.727795e-01 -2.366468e-01 -1.693076e-01 -2.321036e-02 0 0 0 0 0 0 0 0 0 0 0 0 0 0 0 0 0 0 0 0 0 0 0 0 0 0 0 0 0 0 0 0 0 0 0 0 0 0 0 0 0 0 0 0 0 0 0 0 0 0 0 0 0 0 0 
0 0 0 0 0 0 0 0 0 0 0 0 0 -4.884375e+01 -5.012635e+01 -4.892784e+01 -4.920151e+01 -4.963592e+01 -4.919100e+01 -5.148238e+01 -5.042308e+01 0 0 0 0 0 0 0 0 0 0 0 0 0 0 0 0 0 0 0 0 0 0 0 0 0 0 0 0 0 0 0 0 0 0 0 -2.399143e-04 -6.673147e-03 -4.576026e-03 2.072895e-02 2.215372e-02 2.720817e-03 4.847148e-03 1.329682e-02 3.412666e-02 4.761234e-02 3.368359e-02 2.023586e-02 2.323579e-02 2.725863e-02 4.074025e-02 3.333123e-02 4.540290e-03 0 0 0 0 0 0 0 0 0 0 0 0 0 0 0 0 0 0 0 0 0 0 0 0 0 0 0 0 0 0 0 0 0 0 0 0 0 0 0 0 0 0 0 0 0 0 0 0 0 0 0 0 0 0 0 
0 0 0 0 0 0 0 0 0 0 0 0 0 -5.030459e+01 -5.222329e+01 -5.092814e+01 -5.146504e+01 -5.221687e+01 -5.116925e+01 -5.395597e+01 -5.144486e+01 0 0 0 0 0 0 0 0 0 0 0 0 0 0 0 0 0 0 0 0 0 0 0 0 0 0 0 0 0 0 0 0 0 0 0 1.325227e-03 1.189129e-02 1.651899e-02 1.702340e-02 1.622017e-02 1.316156e-02 1.248955e-02 1.023582e-02 1.644096e-02 1.974159e-02 1.917521e-02 1.601871e-02 1.364276e-02 1.183106e-02 1.104869e-02 7.994861e-03 1.036737e-03 0 0 0 0 0 0 0 0 0 0 0 0 0 0 0 0 0 0 0 0 0 0 0 0 0 0 0 0 0 0 0 0 0 0 0 0 0 0 0 0 0 0 0 0 0 0 0 0 0 0 0 0 0 0 0 
0 0 0 0 0 0 0 0 0 0 0 0 0 -4.855770e+01 -5.039120e+01 -4.882046e+01 -4.977024e+01 -4.962163e+01 -4.942358e+01 -5.057276e+01 -4.928211e+01 0 0 0 0 0 0 0 0 0 0 0 0 0 0 0 0 0 0 0 0 0 0 0 0 0 0 0 0 0 0 0 0 0 0 0 7.710327e-05 6.191443e-04 -4.300316e-04 -5.883828e-03 -5.986085e-03 -1.481074e-03 -3.601240e-03 -8.020830e-03 -1.420691e-02 -1.743566e-02 -1.458673e-02 -1.069076e-02 -1.148176e-02 -1.268676e-02 -1.793687e-02 -1.461606e-02 -2.043313e-03 0 0 0 0 0 0 0 0 0 0 0 0 0 0 0 0 0 0 0 0 0 0 0 0 0 0 0 0 0 0 0 0 0 0 0 0 0 0 0 0 0 0 0 0 0 0 0 0 0 0 0 0 0 0 0 
0 0 0 0 0 0 0 0 0 0 0 0 0 -4.736798e+01 -5.173735e+01 -4.896221e+01 -5.109201e+01 -5.136544e+01 -5.007150e+01 -5.348835e+01 -4.840147e+01 0 0 0 0 0 0 0 0 0 0 0 0 0 0 0 0 0 0 0 0 0 0 0 0 0 0 0 0 0 0 0 0 0 0 0 -1.841712e-04 -1.701600e-03 -3.017443e-03 -5.869880e-03 -5.281578e-03 -1.185256e-03 -9.946808e-04 -1.798512e-03 -5.415654e-03 -7.971083e-03 -4.815141e-03 -1.915295e-03 -1.921485e-03 -2.281294e-03 -3.983771e-03 -3.357854e-03 -4.668475e-04 0 0 0 0 0 0 0 0 0 0 0 0 0 0 0 0 0 0 0 0 0 0 0 0 0 0 0 0 0 0 0 0 0 0 0 0 0 0 0 0 0 0 0 0 0 0 0 0 0 0 0 0 0 0 0 
0 0 0 0 0 -4.508565e-02 1.493685e-01 9.290604e-02 3.613908e-02 9.217270e-02 3.992294e-02 1.212147e-01 -2.319429e-02 -4.403677e+01 -4.815260e+01 -4.504719e+01 -4.772413e+01 -4.748237e+01 -4.730996e+01 -4.972078e+01 -4.522896e+01 -2.780514e-01 8.089276e-03 7.961487e-03 -1.143568e-01 -2.212225e-01 -1.591920e-01 -1.436690e-02 2.958080e-02 -7.025902e-02 -2.481136e-01 -2.673878e-01 -1.131288e-01 -3.184639e-03 2.348149e-02 -3.436424e-02 -9.048975e-02 -2.500590e-03 9.729790e-02 1.001665e-01 9.577190e-02 1.048059e-01 1.115380e-01 8.561535e-02 3.427403e-02 -1.867796e-02 -1.822728e-02 -4.397281e-02 -8.140115e-02 -2.505044e-02 5.527705e-02 1.810417e-01 2.745583e-01 2.414821e-01 9.099563e-02 -7.251292e-02 -2.657550e-01 -4.092319e-01 -4.518191e-01 -4.213105e-01 -2.829310e-01 -1.213495e-01 6.132904e-02 2.262444e-01 3.255342e-01 3.402808e-01 2.839789e-01 1.741535e-01 4.082373e-02 -3.267628e-02 -2.524053e-02 7.424612e-02 2.011803e-01 3.136002e-01 3.817106e-01 3.789697e-01 3.093497e-01 1.556029e-01 3.120320e-03 -1.792144e-01 -2.813441e-01 -2.498758e-01 -1.883775e-01 -6.565979e-02 9.453622e-02 1.831424e-01 2.018865e-01 1.868202e-01 1.102955e-01 1.019890e-01 1.870395e-01 2.898019e-01 4.011142e-01 4.899187e-01 5.101613e-01 4.868216e-01 4.446384e-01 3.448007e-01 2.437246e-01 2.429662e-01 2.767472e-01 1.852381e-01 5.264487e-03 -9.450646e-02 -5.066977e-02 -1.697035e-02 -1.387432e-01 -3.885967e-01 -4.532548e-01 -2.904527e-01 -1.156047e-03 1.573478e-01 1.290630e-01 1.223671e-01 1.733652e-01 2.742825e-01 2.895594e-01 1.801730e-01 6.771228e-02 1.352285e-01 2.515712e-01 3.820801e-01 2.341842e-01 4.973482e-04 0 0 0 0 
0 0 0 0 0 -1.013178e+00 3.347735e+00 2.078949e+00 8.125626e-01 2.074819e+00 9.009937e-01 2.725008e+00 -5.193660e-01 -3.365512e+01 -4.420382e+01 -4.045531e+01 -4.867833e+01 -4.786170e+01 -4.772561e+01 -5.558110e+01 -3.655398e+01 -6.235108e+00 1.816993e-01 1.785387e-01 -2.565181e+00 -4.962273e+00 -3.570910e+00 -3.223124e-01 6.636704e-01 -1.575856e+00 -5.566242e+00 -5.998844e+00 -2.537824e+00 -7.138859e-02 5.267720e-01 -7.708314e-01 -2.029877e+00 -5.604775e-02 2.182676e+00 2.247013e+00 2.148440e+00 2.351101e+00 2.502166e+00 1.920654e+00 7.688482e-01 -4.191836e-01 -4.090804e-01 -9.867835e-01 -1.826483e+00 -5.620615e-01 1.240379e+00 4.062521e+00 6.160860e+00 5.418457e+00 2.041771e+00 -1.627106e+00 -5.963454e+00 -9.182818e+00 -1.013816e+01 -9.453709e+00 -6.348778e+00 -2.723028e+00 1.376354e+00 5.077123e+00 7.305316e+00 7.636535e+00 6.373087e+00 3.908287e+00 9.161623e-01 -7.332552e-01 -5.663918e-01 1.666305e+00 4.515094e+00 7.038001e+00 8.566249e+00 8.504994e+00 6.943009e+00 3.492405e+00 7.003628e-02 -4.022396e+00 -6.314995e+00 -5.609266e+00 -4.228916e+00 -1.474000e+00 2.122095e+00 4.111227e+00 4.531959e+00 4.193649e+00 2.475833e+00 2.289092e+00 4.197791e+00 6.503774e+00 9.002588e+00 1.099603e+01 1.145024e+01 1.092653e+01 9.979246e+00 7.738603e+00 5.470564e+00 5.454434e+00 6.213040e+00 4.158476e+00 1.181554e-01 -2.121927e+00 -1.137806e+00 -3.811763e-01 -3.115709e+00 -8.726946e+00 -1.017868e+01 -6.522459e+00 -2.693412e-02 3.532351e+00 2.897698e+00 2.747547e+00 3.892538e+00 6.157967e+00 6.501226e+00 4.044813e+00 1.517057e+00 3.025890e+00 5.612819e+00 8.537345e+00 5.244474e+00 1.117609e-02 0 0 0 0 
0 0 0 0 0 -1.466927e+00 4.844745e+00 3.007751e+00 1.176577e+00 3.004905e+00 1.305474e+00 3.945657e+00 -7.514898e-01 -8.661767e+00 -8.766506e+00 -6.435653e+00 -1.276913e+01 -1.248694e+01 -1.623778e+01 -2.302073e+01 -1.929903e+01 -9.024097e+00 2.630512e-01 2.584018e-01 -3.712802e+00 -7.182303e+00 -5.168483e+00 -4.665208e-01 9.606196e-01 -2.280831e+00 -8.056672e+00 -8.682878e+00 -3.673254e+00 -1.033147e-01 7.624541e-01 -1.115688e+00 -2.938029e+00 -8.111146e-02 3.159208e+00 3.252327e+00 3.109654e+00 3.402987e+00 3.621650e+00 2.779970e+00 1.112828e+00 -6.067734e-01 -5.921518e-01 -1.428360e+00 -2.643761e+00 -8.135560e-01 1.795417e+00 5.880410e+00 8.917676e+00 7.843017e+00 2.955383e+00 -2.355186e+00 -8.631969e+00 -1.329188e+01 -1.467464e+01 -1.368394e+01 -9.189692e+00 -3.941519e+00 1.992281e+00 7.349094e+00 1.057440e+01 1.105391e+01 9.225080e+00 5.657247e+00 1.326148e+00 -1.061373e+00 -8.198405e-01 2.412003e+00 6.535671e+00 1.018759e+01 1.239966e+01 1.231106e+01 1.005018e+01 5.055365e+00 1.013804e-01 -5.822554e+00 -9.141256e+00 -8.119832e+00 -6.121716e+00 -2.133739e+00 3.071872e+00 5.951311e+00 6.560342e+00 6.070587e+00 3.583927e+00 3.313536e+00 6.076386e+00 9.414251e+00 1.303149e+01 1.591712e+01 1.657458e+01 1.581653e+01 1.444517e+01 1.120181e+01 7.918894e+00 7.895772e+00 8.993982e+00 6.019759e+00 1.710330e-01 -3.071756e+00 -1.647151e+00 -5.518377e-01 -4.510520e+00 -1.263383e+01 -1.473540e+01 -9.442335e+00 -3.923880e-02 5.113387e+00 4.194752e+00 3.977437e+00 5.634942e+00 8.914325e+00 9.411298e+00 5.855233e+00 2.195302e+00 4.377726e+00 8.116213e+00 1.234837e+01 7.588584e+00 1.618116e-02 0 0 0 0 
0 0 0 0 0 -4.988343e-01 1.646378e+00 1.021708e+00 4.001531e-01 1.022259e+00 4.444030e-01 1.341864e+00 -2.553181e-01 -2.944595e+00 -2.980169e+00 -2.187735e+00 -4.340877e+00 -4.244944e+00 -5.519624e+00 -7.824923e+00 -6.559462e+00 -3.067040e+00 8.944111e-02 8.782458e-02 -1.261978e+00 -2.441252e+00 -1.756764e+00 -1.585753e-01 3.265300e-01 -7.752339e-01 -2.738544e+00 -2.951422e+00 -1.248559e+00 -3.511077e-02 2.591636e-01 -3.792206e-01 -9.986418e-01 -2.756431e-02 1.073831e+00 1.105480e+00 1.056986e+00 1.156692e+00 1.231022e+00 9.449320e-01 3.782534e-01 -2.062677e-01 -2.012987e-01 -4.855491e-01 -8.986788e-01 -2.765449e-01 6.103146e-01 1.998932e+00 3.031374e+00 2.666041e+00 1.004607e+00 -8.005923e-01 -2.934270e+00 -4.518289e+00 -4.988296e+00 -4.651547e+00 -3.123845e+00 -1.339841e+00 6.772558e-01 2.498215e+00 3.594614e+00 3.757652e+00 3.135972e+00 1.923113e+00 4.508094e-01 -3.607945e-01 -2.786892e-01 8.199439e-01 2.221758e+00 3.463184e+00 4.215120e+00 4.185032e+00 3.416525e+00 1.718563e+00 3.446442e-02 -1.979373e+00 -3.107605e+00 -2.760442e+00 -2.081178e+00 -7.253990e-01 1.044313e+00 2.023226e+00 2.230269e+00 2.063758e+00 1.218390e+00 1.126433e+00 2.065634e+00 3.200280e+00 4.430012e+00 5.411014e+00 5.634501e+00 5.376818e+00 4.910566e+00 3.808009e+00 2.692054e+00 2.684304e+00 3.057689e+00 2.046521e+00 5.814206e-02 -1.044335e+00 -5.600144e-01 -1.876317e-01 -1.533554e+00 -4.295483e+00 -5.009974e+00 -3.210329e+00 -1.346072e-02 1.738383e+00 1.426117e+00 1.352258e+00 1.915770e+00 3.030640e+00 3.199632e+00 1.990593e+00 7.459567e-01 1.487065e+00 2.754965e+00 4.193109e+00 2.578295e+00 5.502412e-03 0 0 0 0 
0 0 0 0 0 0 0 0 0 0 0 0 0 0 0 0 0 0 0 0 0 0 0 0 0 0 0 0 0 0 0 0 0 0 0 0 0 0 0 0 0 0 0 0 0 0 0 0 0 0 0 0 0 0 0 0 0 0 0 0 0 0 0 0 0 0 0 0 0 0 0 0 0 0 0 0 0 0 0 0 0 0 0 0 0 0 0 0 0 0 0 0 0 0 0 0 0 0 0 0 0 0 0 0 0 0 0 0 0 0 0 0 0 0 0 0 0 0 0 0 0 0 0 0 0 0 0 0 
