# vtk DataFile Version 2.0
Comment goes here
ASCII

DATASET STRUCTURED_POINTS
FIELD FieldData 1
TIME 1 1 double
0.44000000
DIMENSIONS    128   16   1

ORIGIN    0.000   0.000   0.000
SPACING   0.0078125 0.015625   1.000

POINT_DATA   2048
SCALARS fX double
LOOKUP_TABLE default

0 0 0 0 0 0 0 0 0 0 0 0 0 0 0 0 0 0 0 0 0 0 0 0 0 0 0 0 0 0 0 0 0 0 0 0 0 0 0 0 0 0 0 0 0 0 0 0 0 0 0 0 0 0 0 0 0 0 0 0 0 0 0 0 0 0 0 0 0 0 0 0 0 0 0 0 0 0 0 0 0 0 0 0 0 0 0 0 0 0 0 0 0 0 0 0 0 0 0 0 0 0 0 0 0 0 0 0 0 0 0 0 0 0 0 0 0 0 0 0 0 0 0 0 0 0 0 0 
0 0 0 0 0 0 0 0 0 0 0 0 0 0 0 0 0 0 0 0 0 0 0 0 0 0 0 0 0 0 0 0 0 0 0 0 0 0 0 0 0 0 0 0 0 0 0 0 0 0 0 0 0 0 0 0 0 0 0 0 0 0 0 0 0 0 0 0 0 0 0 0 0 0 0 0 0 0 0 0 0 0 0 0 0 0 0 0 0 0 0 0 0 0 0 0 0 0 0 0 0 0 0 0 0 0 0 0 0 0 0 0 0 0 0 0 0 0 0 0 0 0 0 0 0 0 0 0 
0 0 0 0 0 -1.001985e+00 1.985774e+00 1.560553e+00 3.074919e-01 8.586753e-01 4.407603e-01 7.791124e-01 -1.078265e+00 -3.712711e+00 -4.859400e+00 -4.012632e+00 -5.062008e+00 -4.365248e+00 -4.601918e+00 -4.942465e+00 -3.520665e+00 -7.157023e-01 6.834275e-01 6.386294e-01 7.141487e-01 6.648790e-01 7.564329e-01 7.058283e-01 7.981143e-01 7.227643e-01 8.042774e-01 7.243989e-01 8.144271e-01 7.475734e-01 8.310970e-01 7.606680e-01 8.204486e-01 7.566530e-01 8.095386e-01 7.664486e-01 8.097099e-01 7.712018e-01 7.954061e-01 7.593293e-01 7.809430e-01 7.600920e-01 7.873244e-01 7.680672e-01 7.827246e-01 7.551154e-01 7.675923e-01 7.522633e-01 7.651553e-01 7.493031e-01 7.377507e-01 8.186266e-01 1.215215e+00 1.294923e+00 6.286771e-01 8.306312e-01 6.926017e-01 9.569351e-01 1.317231e+00 1.031435e+00 5.129833e-01 1.952083e+00 2.672666e+00 1.022352e+00 3.450505e-01 -4.061019e-02 4.008890e-01 8.311368e-01 6.483014e-01 6.749624e-01 6.794511e-01 6.754319e-01 6.562689e-01 6.542074e-01 6.388844e-01 6.454712e-01 6.374806e-01 6.303897e-01 6.227165e-01 6.157108e-01 6.240217e-01 6.182454e-01 6.248894e-01 6.086957e-01 6.113360e-01 5.954418e-01 6.055314e-01 5.919018e-01 6.002438e-01 5.766863e-01 5.880708e-01 5.640723e-01 5.848844e-01 5.557940e-01 5.878985e-01 5.570994e-01 5.971037e-01 5.511965e-01 5.957927e-01 5.517151e-01 6.119003e-01 5.667646e-01 6.184853e-01 5.671895e-01 6.108001e-01 5.781694e-01 6.169890e-01 6.084000e-01 6.158693e-01 6.280259e-01 5.955774e-01 6.557793e-01 5.871484e-01 7.079946e-01 5.808603e-01 7.724494e-01 5.564090e-01 1.428115e+00 1.150906e+00 -2.481266e-02 0 0 0 0 
0 0 0 0 0 -2.946708e+00 5.843146e+00 4.592435e+00 9.035394e-01 2.523177e+00 1.293849e+00 2.289247e+00 -3.173191e+00 -1.092214e+01 -1.429461e+01 -1.180372e+01 -1.489057e+01 -1.284106e+01 -1.353794e+01 -1.454027e+01 -1.035817e+01 -2.105818e+00 2.010721e+00 1.878979e+00 2.101215e+00 1.956288e+00 2.225670e+00 2.076777e+00 2.348283e+00 2.126567e+00 2.366362e+00 2.131319e+00 2.396163e+00 2.199444e+00 2.445156e+00 2.237928e+00 2.413795e+00 2.226096e+00 2.381685e+00 2.254912e+00 2.382187e+00 2.268896e+00 2.340100e+00 2.233961e+00 2.297540e+00 2.236192e+00 2.316293e+00 2.259631e+00 2.302731e+00 2.221495e+00 2.258176e+00 2.213069e+00 2.250977e+00 2.204336e+00 2.170345e+00 2.408276e+00 3.547206e+00 3.642958e+00 1.717108e+00 2.520932e+00 1.783528e+00 1.992821e+00 3.173208e+00 2.601241e+00 1.243502e+00 5.441187e+00 5.719356e+00 3.913318e-01 -3.047724e-01 -9.027846e-01 7.671903e-01 2.193626e+00 1.866875e+00 1.985567e+00 1.998757e+00 1.986927e+00 1.930543e+00 1.924474e+00 1.879390e+00 1.898764e+00 1.875252e+00 1.854389e+00 1.831810e+00 1.811196e+00 1.835636e+00 1.818638e+00 1.838174e+00 1.790531e+00 1.798290e+00 1.751528e+00 1.781202e+00 1.741103e+00 1.765638e+00 1.696338e+00 1.729828e+00 1.659236e+00 1.720466e+00 1.634907e+00 1.729364e+00 1.638792e+00 1.756499e+00 1.621501e+00 1.752724e+00 1.623118e+00 1.800198e+00 1.667480e+00 1.819649e+00 1.668797e+00 1.797077e+00 1.701093e+00 1.815230e+00 1.789917e+00 1.811787e+00 1.847457e+00 1.751887e+00 1.928877e+00 1.726939e+00 2.082504e+00 1.709132e+00 2.274902e+00 1.647099e+00 4.212721e+00 3.389198e+00 -7.296227e-02 0 0 0 0 
0 0 0 0 0 -2.035313e+00 4.037476e+00 3.173507e+00 6.237156e-01 1.741770e+00 8.925225e-01 1.580220e+00 -2.192790e+00 -3.861310e+01 -4.843162e+01 -4.361607e+01 -5.061093e+01 -4.705417e+01 -4.651986e+01 -5.222361e+01 -3.455014e+01 -1.455003e+00 1.389231e+00 1.298237e+00 1.451807e+00 1.351690e+00 1.537819e+00 1.434943e+00 1.622526e+00 1.469326e+00 1.634991e+00 1.472581e+00 1.655551e+00 1.519622e+00 1.689376e+00 1.546191e+00 1.667692e+00 1.538006e+00 1.645502e+00 1.557914e+00 1.645847e+00 1.567575e+00 1.616767e+00 1.543436e+00 1.587357e+00 1.544971e+00 1.600305e+00 1.561153e+00 1.590920e+00 1.534790e+00 1.560120e+00 1.528952e+00 1.555132e+00 1.522907e+00 1.499420e+00 1.663802e+00 2.429109e+00 2.442234e+00 1.157163e+00 1.792852e+00 1.106304e+00 1.133360e+00 2.017527e+00 1.643630e+00 7.418058e-01 3.534129e+00 2.718863e+00 -1.100518e+00 -7.734429e-01 -9.199693e-01 3.348802e-01 1.351712e+00 1.272622e+00 1.371731e+00 1.380837e+00 1.372661e+00 1.333703e+00 1.329507e+00 1.298358e+00 1.311740e+00 1.295494e+00 1.281079e+00 1.265478e+00 1.251235e+00 1.268115e+00 1.256369e+00 1.269861e+00 1.236944e+00 1.242301e+00 1.209993e+00 1.230489e+00 1.202784e+00 1.219733e+00 1.171856e+00 1.194992e+00 1.146227e+00 1.188531e+00 1.129430e+00 1.194694e+00 1.132136e+00 1.213466e+00 1.120227e+00 1.210898e+00 1.121388e+00 1.243739e+00 1.152080e+00 1.257215e+00 1.153022e+00 1.241639e+00 1.175332e+00 1.254154e+00 1.236644e+00 1.251704e+00 1.276301e+00 1.210222e+00 1.332442e+00 1.192912e+00 1.438587e+00 1.180944e+00 1.572856e+00 1.142885e+00 2.915972e+00 2.343142e+00 -5.039144e-02 0 0 0 0 
0 0 0 0 0 -9.058979e-02 1.801031e-01 1.416250e-01 2.766812e-02 7.726896e-02 3.943365e-02 7.008525e-02 -9.786399e-02 -4.415783e+01 -4.829875e+01 -4.530231e+01 -4.736122e+01 -4.671935e+01 -4.574558e+01 -4.823364e+01 -4.381114e+01 -6.488764e-02 6.193781e-02 5.788821e-02 6.474109e-02 6.028115e-02 6.858208e-02 6.399441e-02 7.235646e-02 6.552271e-02 7.290560e-02 6.566073e-02 7.381480e-02 6.775103e-02 7.531650e-02 6.893048e-02 7.434569e-02 6.856321e-02 7.335504e-02 6.945027e-02 7.337014e-02 6.988094e-02 7.207323e-02 6.880423e-02 7.076093e-02 6.887100e-02 7.133561e-02 6.958943e-02 7.091355e-02 6.841028e-02 6.953620e-02 6.814575e-02 6.931027e-02 6.787330e-02 6.682576e-02 7.415274e-02 9.989331e-02 1.477840e-01 1.439735e-01 1.267637e-01 4.809041e-02 2.571039e-01 3.365351e-01 1.891969e-01 9.302485e-02 7.607540e-02 -1.836022e-01 -2.317740e-01 1.010082e-01 1.136550e-01 3.365544e-02 1.659537e-03 5.812754e-02 6.112698e-02 6.153108e-02 6.116590e-02 5.942848e-02 5.924087e-02 5.785188e-02 5.844783e-02 5.772316e-02 5.708043e-02 5.638445e-02 5.574914e-02 5.650025e-02 5.597614e-02 5.657632e-02 5.510880e-02 5.534658e-02 5.390619e-02 5.481864e-02 5.358349e-02 5.433819e-02 5.220468e-02 5.323563e-02 5.106328e-02 5.294912e-02 5.031761e-02 5.322767e-02 5.044374e-02 5.407106e-02 4.992215e-02 5.396662e-02 4.998518e-02 5.544111e-02 5.136399e-02 5.605137e-02 5.141421e-02 5.536175e-02 5.240786e-02 5.591288e-02 5.512689e-02 5.578542e-02 5.687015e-02 5.391148e-02 5.934440e-02 5.312140e-02 6.407729e-02 5.267305e-02 7.040355e-02 5.219492e-02 1.313658e-01 1.048493e-01 -2.241824e-03 0 0 0 0 
0 0 0 0 0 0 0 0 0 0 0 0 0 -4.821170e+01 -5.224715e+01 -4.938991e+01 -5.125881e+01 -5.093231e+01 -4.955751e+01 -5.251296e+01 -4.758313e+01 0 0 0 0 0 0 0 0 0 0 0 0 0 0 0 0 0 0 0 0 0 0 0 0 0 0 0 0 0 0 0 0 0 0 0 4.802694e-03 7.071036e-02 1.024209e-01 6.409601e-02 6.065473e-02 1.547788e-01 1.822686e-01 1.470798e-01 1.325954e-01 8.534981e-02 1.643955e-01 2.385989e-01 2.302713e-01 1.873998e-01 1.207181e-01 6.117505e-02 1.106114e-02 0 0 0 0 0 0 0 0 0 0 0 0 0 0 0 0 0 0 0 0 0 0 0 0 0 0 0 0 0 0 0 0 0 0 0 0 0 0 0 0 0 0 0 0 0 0 0 0 0 0 0 0 0 0 0 
0 0 0 0 0 0 0 0 0 0 0 0 0 -4.810039e+01 -4.991536e+01 -4.831690e+01 -4.916381e+01 -4.891464e+01 -4.849042e+01 -4.968753e+01 -4.813184e+01 0 0 0 0 0 0 0 0 0 0 0 0 0 0 0 0 0 0 0 0 0 0 0 0 0 0 0 0 0 0 0 0 0 0 0 4.157826e-05 4.252234e-03 1.264751e-02 3.511243e-02 1.783852e-02 -3.513113e-02 -2.710900e-02 4.746037e-03 2.615877e-02 3.657620e-02 -1.461752e-02 -4.359230e-02 -3.668801e-02 -2.376266e-02 2.140845e-02 2.642208e-02 4.942594e-03 0 0 0 0 0 0 0 0 0 0 0 0 0 0 0 0 0 0 0 0 0 0 0 0 0 0 0 0 0 0 0 0 0 0 0 0 0 0 0 0 0 0 0 0 0 0 0 0 0 0 0 0 0 0 0 
0 0 0 0 0 0 0 0 0 0 0 0 0 -5.058910e+01 -5.276523e+01 -5.101265e+01 -5.187974e+01 -5.187933e+01 -5.092927e+01 -5.284682e+01 -5.029552e+01 0 0 0 0 0 0 0 0 0 0 0 0 0 0 0 0 0 0 0 0 0 0 0 0 0 0 0 0 0 0 0 0 0 0 0 -2.753219e-03 -1.849669e-02 -2.194044e-02 -1.189994e-02 -1.906918e-02 -4.244739e-02 -4.725452e-02 -3.799456e-02 -3.591963e-02 -2.738914e-02 -4.761598e-02 -5.773140e-02 -5.532550e-02 -5.134722e-02 -4.330455e-02 -2.872374e-02 -2.847050e-03 0 0 0 0 0 0 0 0 0 0 0 0 0 0 0 0 0 0 0 0 0 0 0 0 0 0 0 0 0 0 0 0 0 0 0 0 0 0 0 0 0 0 0 0 0 0 0 0 0 0 0 0 0 0 0 
0 0 0 0 0 0 0 0 0 0 0 0 0 -4.810113e+01 -4.991960e+01 -4.832096e+01 -4.916828e+01 -4.892463e+01 -4.849061e+01 -4.970290e+01 -4.813000e+01 0 0 0 0 0 0 0 0 0 0 0 0 0 0 0 0 0 0 0 0 0 0 0 0 0 0 0 0 0 0 0 0 0 0 0 -7.383008e-04 -5.421383e-03 -7.031867e-03 -6.385455e-03 -8.387086e-03 -1.220308e-02 -1.244415e-02 -9.950559e-03 -9.514821e-03 -7.880772e-03 -1.243434e-02 -1.385211e-02 -1.434030e-02 -1.246081e-02 -7.595820e-03 -5.001280e-03 -6.687661e-04 0 0 0 0 0 0 0 0 0 0 0 0 0 0 0 0 0 0 0 0 0 0 0 0 0 0 0 0 0 0 0 0 0 0 0 0 0 0 0 0 0 0 0 0 0 0 0 0 0 0 0 0 0 0 0 
0 0 0 0 0 0 0 0 0 0 0 0 0 -4.820403e+01 -5.226536e+01 -4.937804e+01 -5.127614e+01 -5.093864e+01 -4.954959e+01 -5.256412e+01 -4.755964e+01 0 0 0 0 0 0 0 0 0 0 0 0 0 0 0 0 0 0 0 0 0 0 0 0 0 0 0 0 0 0 0 0 0 0 0 2.909667e-05 2.019194e-04 3.763640e-04 7.432145e-04 5.782466e-04 -3.493754e-05 4.183518e-04 1.082722e-03 1.706042e-03 1.785010e-03 3.930742e-04 -5.881362e-04 -1.345906e-03 -8.261691e-04 1.475639e-03 1.406378e-03 1.390925e-04 0 0 0 0 0 0 0 0 0 0 0 0 0 0 0 0 0 0 0 0 0 0 0 0 0 0 0 0 0 0 0 0 0 0 0 0 0 0 0 0 0 0 0 0 0 0 0 0 0 0 0 0 0 0 0 
0 0 0 0 0 -9.049242e-02 1.812449e-01 1.432583e-01 3.058815e-02 7.988216e-02 4.234146e-02 7.236155e-02 -9.554946e-02 -4.414930e+01 -4.831857e+01 -4.530378e+01 -4.739213e+01 -4.675092e+01 -4.573646e+01 -4.830410e+01 -4.376976e+01 -6.460823e-02 6.021958e-02 5.643258e-02 6.353230e-02 5.952017e-02 6.680216e-02 6.146207e-02 6.883288e-02 6.251704e-02 7.025476e-02 6.348444e-02 7.098416e-02 6.394063e-02 7.101477e-02 6.460081e-02 7.126761e-02 6.581707e-02 7.151637e-02 6.699100e-02 7.146453e-02 6.817622e-02 7.162536e-02 6.958573e-02 7.175362e-02 7.045796e-02 7.131629e-02 7.076200e-02 7.055901e-02 7.048070e-02 6.906283e-02 6.947347e-02 6.748951e-02 6.897828e-02 6.672806e-02 6.875088e-02 6.538133e-02 6.770172e-02 6.490158e-02 6.849712e-02 6.629882e-02 6.837544e-02 6.383569e-02 6.585709e-02 6.289271e-02 6.577970e-02 6.398183e-02 6.300643e-02 5.981458e-02 5.786311e-02 5.649986e-02 5.805526e-02 5.739504e-02 5.762101e-02 5.709017e-02 5.689634e-02 5.671143e-02 5.618103e-02 5.660938e-02 5.579737e-02 5.653584e-02 5.534394e-02 5.621410e-02 5.479806e-02 5.578243e-02 5.451278e-02 5.569835e-02 5.454321e-02 5.565306e-02 5.456075e-02 5.587610e-02 5.490292e-02 5.633909e-02 5.487709e-02 5.631184e-02 5.415741e-02 5.602654e-02 5.328922e-02 5.597086e-02 5.248073e-02 5.591697e-02 5.162515e-02 5.592298e-02 5.107257e-02 5.604654e-02 5.112401e-02 5.660805e-02 5.227580e-02 5.739811e-02 5.401412e-02 5.755507e-02 5.587669e-02 5.693700e-02 5.837004e-02 5.622971e-02 6.173425e-02 5.492474e-02 6.522119e-02 5.300433e-02 7.107626e-02 5.263270e-02 1.326975e-01 1.048839e-01 -2.362915e-03 0 0 0 0 
0 0 0 0 0 -2.033134e+00 4.062976e+00 3.209941e+00 6.891454e-01 1.800420e+00 9.578471e-01 1.631395e+00 -2.140724e+00 -3.863448e+01 -4.850624e+01 -4.349497e+01 -5.072221e+01 -4.694362e+01 -4.645146e+01 -5.243306e+01 -3.437642e+01 -1.448913e+00 1.350543e+00 1.265469e+00 1.424599e+00 1.334540e+00 1.497831e+00 1.378095e+00 1.543452e+00 1.401886e+00 1.575517e+00 1.423758e+00 1.592051e+00 1.434149e+00 1.592880e+00 1.449067e+00 1.598639e+00 1.476396e+00 1.604241e+00 1.502723e+00 1.603062e+00 1.529286e+00 1.606662e+00 1.560904e+00 1.609562e+00 1.580503e+00 1.599795e+00 1.587377e+00 1.582866e+00 1.581133e+00 1.549371e+00 1.558612e+00 1.514160e+00 1.547590e+00 1.497156e+00 1.542562e+00 1.466992e+00 1.519067e+00 1.456259e+00 1.536943e+00 1.487631e+00 1.534237e+00 1.432380e+00 1.477751e+00 1.411245e+00 1.476051e+00 1.435727e+00 1.413871e+00 1.342264e+00 1.298496e+00 1.267917e+00 1.302837e+00 1.288031e+00 1.293111e+00 1.281207e+00 1.276866e+00 1.272728e+00 1.260836e+00 1.270462e+00 1.252245e+00 1.268831e+00 1.242084e+00 1.261626e+00 1.229852e+00 1.251964e+00 1.223485e+00 1.250121e+00 1.224219e+00 1.249158e+00 1.224666e+00 1.254211e+00 1.232387e+00 1.264633e+00 1.231832e+00 1.264034e+00 1.215679e+00 1.257613e+00 1.196148e+00 1.256290e+00 1.177888e+00 1.254936e+00 1.158495e+00 1.254857e+00 1.145840e+00 1.257371e+00 1.146729e+00 1.269743e+00 1.172395e+00 1.287391e+00 1.211424e+00 1.291056e+00 1.253512e+00 1.277591e+00 1.310013e+00 1.262316e+00 1.386149e+00 1.233458e+00 1.464336e+00 1.188456e+00 1.588055e+00 1.152837e+00 2.945923e+00 2.343901e+00 -5.311276e-02 0 0 0 0 
0 0 0 0 0 -2.943556e+00 5.880027e+00 4.645118e+00 9.982235e-01 2.608074e+00 1.388424e+00 2.363347e+00 -3.097793e+00 -1.088113e+01 -1.428455e+01 -1.170856e+01 -1.490420e+01 -1.278166e+01 -1.350902e+01 -1.460814e+01 -1.031094e+01 -2.097048e+00 1.954686e+00 1.831520e+00 2.061811e+00 1.931444e+00 2.167776e+00 1.994485e+00 2.233825e+00 2.028952e+00 2.280278e+00 2.060652e+00 2.304253e+00 2.075733e+00 2.305490e+00 2.097353e+00 2.313846e+00 2.136919e+00 2.321961e+00 2.175023e+00 2.320249e+00 2.213464e+00 2.325459e+00 2.259228e+00 2.329662e+00 2.287603e+00 2.315537e+00 2.297567e+00 2.291049e+00 2.288546e+00 2.242585e+00 2.255967e+00 2.191642e+00 2.240037e+00 2.167050e+00 2.232778e+00 2.123402e+00 2.198781e+00 2.107875e+00 2.224664e+00 2.153290e+00 2.220752e+00 2.073320e+00 2.138996e+00 2.042735e+00 2.136545e+00 2.078182e+00 2.046553e+00 1.942910e+00 1.879561e+00 1.835302e+00 1.885852e+00 1.864423e+00 1.871778e+00 1.854550e+00 1.848269e+00 1.842282e+00 1.825071e+00 1.839008e+00 1.812641e+00 1.836651e+00 1.797936e+00 1.826227e+00 1.780235e+00 1.812247e+00 1.771027e+00 1.809591e+00 1.772104e+00 1.808210e+00 1.772764e+00 1.815536e+00 1.783951e+00 1.830630e+00 1.783153e+00 1.829768e+00 1.759772e+00 1.820469e+00 1.731488e+00 1.818533e+00 1.705027e+00 1.816537e+00 1.676906e+00 1.816369e+00 1.658525e+00 1.819941e+00 1.659744e+00 1.837792e+00 1.696850e+00 1.863316e+00 1.753349e+00 1.868659e+00 1.814343e+00 1.849271e+00 1.896268e+00 1.827312e+00 2.006636e+00 1.785649e+00 2.119797e+00 1.720024e+00 2.296929e+00 1.661538e+00 4.256093e+00 3.390293e+00 -7.690236e-02 0 0 0 0 
0 0 0 0 0 -1.000914e+00 1.998296e+00 1.578435e+00 3.396663e-01 8.875357e-01 4.729184e-01 8.043131e-01 -1.052619e+00 -3.698756e+00 -4.855973e+00 -3.980280e+00 -5.066644e+00 -4.345068e+00 -4.592100e+00 -4.965550e+00 -3.504629e+00 -7.127430e-01 6.643635e-01 6.224839e-01 7.007441e-01 6.564249e-01 7.367473e-01 6.778520e-01 7.592059e-01 6.895829e-01 7.750160e-01 7.003785e-01 7.831862e-01 7.055242e-01 7.836243e-01 7.128862e-01 7.864753e-01 7.263404e-01 7.892362e-01 7.392911e-01 7.886525e-01 7.523542e-01 7.904222e-01 7.679095e-01 7.918536e-01 7.775585e-01 7.870578e-01 7.809519e-01 7.787415e-01 7.778937e-01 7.622771e-01 7.668292e-01 7.449715e-01 7.614250e-01 7.366221e-01 7.589668e-01 7.217917e-01 7.474161e-01 7.165174e-01 7.562179e-01 7.319576e-01 7.548910e-01 7.047758e-01 7.271027e-01 6.943822e-01 7.262742e-01 7.064372e-01 6.956894e-01 6.604599e-01 6.389284e-01 6.238848e-01 6.410707e-01 6.337871e-01 6.362887e-01 6.304331e-01 6.282994e-01 6.262655e-01 6.204163e-01 6.251555e-01 6.161931e-01 6.243567e-01 6.111960e-01 6.208150e-01 6.051810e-01 6.160658e-01 6.020553e-01 6.151684e-01 6.024276e-01 6.147055e-01 6.026584e-01 6.172017e-01 6.064669e-01 6.223367e-01 6.061986e-01 6.220451e-01 5.982500e-01 6.188817e-01 5.886293e-01 6.182147e-01 5.796200e-01 6.175182e-01 5.700370e-01 6.174351e-01 5.637574e-01 6.186174e-01 5.641390e-01 6.246573e-01 5.767302e-01 6.333238e-01 5.959387e-01 6.351576e-01 6.167085e-01 6.286169e-01 6.446252e-01 6.212256e-01 6.822219e-01 6.071156e-01 7.206815e-01 5.845724e-01 7.799500e-01 5.613330e-01 1.442867e+00 1.151276e+00 -2.615251e-02 0 0 0 0 
0 0 0 0 0 0 0 0 0 0 0 0 0 0 0 0 0 0 0 0 0 0 0 0 0 0 0 0 0 0 0 0 0 0 0 0 0 0 0 0 0 0 0 0 0 0 0 0 0 0 0 0 0 0 0 0 0 0 0 0 0 0 0 0 0 0 0 0 0 0 0 0 0 0 0 0 0 0 0 0 0 0 0 0 0 0 0 0 0 0 0 0 0 0 0 0 0 0 0 0 0 0 0 0 0 0 0 0 0 0 0 0 0 0 0 0 0 0 0 0 0 0 0 0 0 0 0 0 
