# vtk DataFile Version 2.0
Comment goes here
ASCII

DATASET STRUCTURED_POINTS
FIELD FieldData 1
TIME 1 1 double
0.26000000
DIMENSIONS    128   16   1

ORIGIN    0.000   0.000   0.000
SPACING   0.0078125 0.015625   1.000

POINT_DATA   2048
SCALARS fX double
LOOKUP_TABLE default

0 0 0 0 0 0 0 0 0 0 0 0 0 0 0 0 0 0 0 0 0 0 0 0 0 0 0 0 0 0 0 0 0 0 0 0 0 0 0 0 0 0 0 0 0 0 0 0 0 0 0 0 0 0 0 0 0 0 0 0 0 0 0 0 0 0 0 0 0 0 0 0 0 0 0 0 0 0 0 0 0 0 0 0 0 0 0 0 0 0 0 0 0 0 0 0 0 0 0 0 0 0 0 0 0 0 0 0 0 0 0 0 0 0 0 0 0 0 0 0 0 0 0 0 0 0 0 0 
0 0 0 0 0 0 0 0 0 0 0 0 0 0 0 0 0 0 0 0 0 0 0 0 0 0 0 0 0 0 0 0 0 0 0 0 0 0 0 0 0 0 0 0 0 0 0 0 0 0 0 0 0 0 0 0 0 0 0 0 0 0 0 0 0 0 0 0 0 0 0 0 0 0 0 0 0 0 0 0 0 0 0 0 0 0 0 0 0 0 0 0 0 0 0 0 0 0 0 0 0 0 0 0 0 0 0 0 0 0 0 0 0 0 0 0 0 0 0 0 0 0 0 0 0 0 0 0 
0 0 0 0 0 1.106372e+00 2.621438e+00 7.399664e-01 8.223777e-01 8.480363e-01 8.320187e-01 8.833223e-01 -6.163603e-01 -4.389963e+00 -5.896250e+00 -4.633353e+00 -5.252474e+00 -5.169844e+00 -4.740095e+00 -5.898342e+00 -4.943579e+00 -3.021685e-01 7.976050e-01 1.031169e+00 9.378736e-01 8.386146e-01 6.347212e-01 7.498077e-01 9.000219e-01 1.091765e+00 1.025305e+00 8.624485e-01 7.407185e-01 8.308405e-01 1.059876e+00 1.152655e+00 1.134892e+00 9.540243e-01 9.158712e-01 9.094476e-01 1.134764e+00 1.259302e+00 1.408609e+00 1.309379e+00 1.188653e+00 9.701955e-01 1.024423e+00 1.204383e+00 1.367767e+00 1.257786e+00 9.936950e-01 8.382179e-01 8.634438e-01 1.077007e+00 1.085942e+00 6.869285e-01 -2.103636e+00 -2.323621e+00 1.556112e+00 1.259579e+00 -2.749814e+00 -2.643358e+00 1.002433e+00 2.505618e+00 3.057592e+00 -8.167288e-01 -4.025755e+00 -1.768510e-01 2.767033e+00 4.030094e+00 3.827733e+00 3.362559e+00 2.654021e+00 1.073875e+00 7.820041e-01 8.318832e-01 9.584270e-01 8.587953e-01 7.290080e-01 5.817157e-01 6.519808e-01 7.714464e-01 8.189254e-01 6.784068e-01 5.560886e-01 6.229930e-01 8.015087e-01 8.839547e-01 8.122662e-01 6.914477e-01 6.631177e-01 6.624481e-01 7.461650e-01 8.140740e-01 8.595685e-01 6.983557e-01 5.569035e-01 5.220336e-01 6.951228e-01 7.101685e-01 5.590606e-01 3.466166e-01 3.528979e-01 4.696419e-01 5.264470e-01 5.129672e-01 4.251648e-01 4.463334e-01 4.110624e-01 5.490627e-01 4.991409e-01 6.007835e-01 4.763602e-01 6.649951e-01 5.266322e-01 6.186871e-01 3.837152e-01 6.907999e-01 6.714115e-01 9.604931e-01 3.811302e-01 1.058841e+00 2.128517e+00 2.734970e-01 0 0 0 0 
0 0 0 0 0 3.252972e+00 7.702754e+00 2.167366e+00 2.415720e+00 2.493470e+00 2.445805e+00 2.596067e+00 -1.815312e+00 -1.291550e+01 -1.734553e+01 -1.363105e+01 -1.545232e+01 -1.520995e+01 -1.394608e+01 -1.735438e+01 -1.454537e+01 -8.889902e-01 2.346985e+00 3.034104e+00 2.759504e+00 2.467435e+00 1.867492e+00 2.206119e+00 2.648114e+00 3.212304e+00 3.016778e+00 2.537620e+00 2.179482e+00 2.444662e+00 3.118541e+00 3.391522e+00 3.339253e+00 2.807060e+00 2.694786e+00 2.675858e+00 3.338747e+00 3.705130e+00 4.144388e+00 3.852404e+00 3.497203e+00 2.854449e+00 3.013975e+00 3.543412e+00 4.024091e+00 3.700506e+00 2.923540e+00 2.466122e+00 2.540340e+00 3.168623e+00 3.194857e+00 2.020843e+00 -6.242209e+00 -7.024491e+00 4.233683e+00 3.036605e+00 -7.286798e+00 -4.594162e+00 5.024635e+00 7.724588e+00 8.655251e+00 -2.766117e+00 -8.506341e+00 3.801570e+00 9.984933e+00 1.263048e+01 1.116101e+01 9.714896e+00 7.818558e+00 3.159158e+00 2.300510e+00 2.447245e+00 2.819502e+00 2.526401e+00 2.144583e+00 1.711267e+00 1.917953e+00 2.269385e+00 2.409042e+00 1.995659e+00 1.635829e+00 1.832641e+00 2.357774e+00 2.600299e+00 2.389418e+00 2.034005e+00 1.950671e+00 1.948703e+00 2.194978e+00 2.394745e+00 2.528596e+00 2.054396e+00 1.638313e+00 1.535758e+00 2.044935e+00 2.089200e+00 1.644683e+00 1.019779e+00 1.038232e+00 1.381606e+00 1.548649e+00 1.508964e+00 1.250638e+00 1.312872e+00 1.209085e+00 1.615007e+00 1.468175e+00 1.767213e+00 1.401319e+00 1.956320e+00 1.549509e+00 1.820485e+00 1.129630e+00 2.033229e+00 1.976610e+00 2.827589e+00 1.124274e+00 3.116756e+00 6.261356e+00 8.044989e-01 0 0 0 0 
0 0 0 0 0 2.246501e+00 5.317172e+00 1.492760e+00 1.667205e+00 1.722019e+00 1.688824e+00 1.792313e+00 -1.255146e+00 -4.814776e+01 -6.656533e+01 -5.345406e+01 -5.693787e+01 -5.832411e+01 -5.128600e+01 -6.629458e+01 -4.858426e+01 -6.142025e-01 1.621725e+00 2.096439e+00 1.906659e+00 1.704846e+00 1.290307e+00 1.524283e+00 1.829685e+00 2.219521e+00 2.084432e+00 1.753368e+00 1.505929e+00 1.689160e+00 2.154766e+00 2.343379e+00 2.307262e+00 1.939534e+00 1.861952e+00 1.848860e+00 2.306850e+00 2.559977e+00 2.863456e+00 2.661703e+00 2.416285e+00 1.972185e+00 2.082394e+00 2.448177e+00 2.780276e+00 2.556703e+00 2.019897e+00 1.703869e+00 1.755147e+00 2.189214e+00 2.207313e+00 1.396138e+00 -4.275848e+00 -4.305812e+00 3.603472e+00 2.476140e+00 -3.664365e+00 -1.078625e-01 5.930153e+00 6.637155e+00 6.845412e+00 -1.235008e+00 -2.557259e+00 6.601784e+00 9.145901e+00 1.009507e+01 8.341467e+00 7.097956e+00 5.492819e+00 2.182553e+00 1.589336e+00 1.690711e+00 1.947883e+00 1.745390e+00 1.481602e+00 1.182235e+00 1.325016e+00 1.567802e+00 1.664276e+00 1.378684e+00 1.130094e+00 1.266060e+00 1.628842e+00 1.796386e+00 1.650703e+00 1.405167e+00 1.347598e+00 1.346240e+00 1.516380e+00 1.654387e+00 1.746867e+00 1.419288e+00 1.131852e+00 1.061013e+00 1.412776e+00 1.443358e+00 1.136265e+00 7.045746e-01 7.173112e-01 9.545036e-01 1.069874e+00 1.042443e+00 8.639623e-01 9.069374e-01 8.352224e-01 1.115635e+00 1.014208e+00 1.220814e+00 9.680977e-01 1.351562e+00 1.070622e+00 1.257910e+00 7.808125e-01 1.405178e+00 1.366265e+00 1.954443e+00 7.782021e-01 2.154143e+00 4.325571e+00 5.557603e-01 0 0 0 0 
0 0 0 0 0 9.990052e-02 2.358555e-01 6.536073e-02 7.386261e-02 7.658450e-02 7.503812e-02 7.956858e-02 -5.619459e-02 -5.374758e+01 -5.860249e+01 -5.499165e+01 -5.661609e+01 -5.671509e+01 -5.486516e+01 -5.833384e+01 -5.380004e+01 -2.738084e-02 7.234537e-02 9.350365e-02 8.502849e-02 7.602603e-02 5.753613e-02 6.797137e-02 8.159337e-02 9.898139e-02 9.295926e-02 7.819712e-02 6.716587e-02 7.533896e-02 9.610134e-02 1.045124e-01 1.029010e-01 8.649886e-02 8.303706e-02 8.244976e-02 1.028669e-01 1.141495e-01 1.276774e-01 1.186779e-01 1.077348e-01 8.793135e-02 9.284273e-02 1.091478e-01 1.239524e-01 1.139834e-01 9.005277e-02 7.596453e-02 7.825085e-02 9.759806e-02 9.839818e-02 6.222382e-02 -1.140300e-01 6.606018e-01 1.296872e+00 1.019723e+00 1.167149e+00 2.129344e+00 2.196223e+00 1.677082e+00 1.513877e+00 9.417931e-01 2.162169e+00 2.829868e+00 2.095421e+00 1.626339e+00 1.140388e+00 8.490397e-01 3.471240e-01 9.727015e-02 7.083049e-02 7.534845e-02 8.680820e-02 7.778353e-02 6.602652e-02 5.268371e-02 5.904429e-02 6.986273e-02 7.415998e-02 6.143178e-02 5.035404e-02 5.641249e-02 7.257702e-02 8.004190e-02 7.355096e-02 6.260993e-02 6.004522e-02 5.998497e-02 6.756690e-02 7.371626e-02 7.783956e-02 6.324774e-02 5.044309e-02 4.728924e-02 6.296362e-02 6.432687e-02 5.064274e-02 3.141219e-02 3.197672e-02 4.253943e-02 4.767275e-02 4.644656e-02 3.848901e-02 4.039923e-02 3.719996e-02 4.969083e-02 4.517410e-02 5.438475e-02 4.313895e-02 6.023736e-02 4.774490e-02 5.611223e-02 3.489761e-02 6.274931e-02 6.106667e-02 8.734767e-02 3.505790e-02 9.622841e-02 1.927316e-01 2.475845e-02 0 0 0 0 
0 0 0 0 0 0 0 0 0 0 0 0 0 -5.890600e+01 -6.413874e+01 -6.031056e+01 -6.185710e+01 -6.224314e+01 -5.978154e+01 -6.413885e+01 -5.859545e+01 0 0 0 0 0 0 0 0 0 0 0 0 0 0 0 0 0 0 0 0 0 0 0 0 0 0 0 0 0 0 0 0 0 0 0 1.913509e-02 2.334444e-01 3.326206e-01 3.006360e-01 2.728840e-01 2.481233e-01 2.474084e-01 2.268806e-01 2.399744e-01 2.123511e-01 1.977416e-01 1.518728e-01 1.229981e-01 9.688627e-02 1.116971e-01 9.209468e-02 1.782990e-02 0 0 0 0 0 0 0 0 0 0 0 0 0 0 0 0 0 0 0 0 0 0 0 0 0 0 0 0 0 0 0 0 0 0 0 0 0 0 0 0 0 0 0 0 0 0 0 0 0 0 0 0 0 0 0 
0 0 0 0 0 0 0 0 0 0 0 0 0 -5.794109e+01 -5.992524e+01 -5.822508e+01 -5.897349e+01 -5.893518e+01 -5.823196e+01 -5.981860e+01 -5.795440e+01 0 0 0 0 0 0 0 0 0 0 0 0 0 0 0 0 0 0 0 0 0 0 0 0 0 0 0 0 0 0 0 0 0 0 0 -7.977189e-03 -6.821117e-02 -8.589542e-02 -5.635270e-02 -5.587070e-02 -7.560063e-02 -8.075922e-02 -6.903541e-02 -6.342219e-02 -4.515525e-02 -7.512395e-02 -8.652492e-02 -7.091864e-02 -5.796524e-02 -4.613587e-02 -3.118161e-02 -3.923731e-03 0 0 0 0 0 0 0 0 0 0 0 0 0 0 0 0 0 0 0 0 0 0 0 0 0 0 0 0 0 0 0 0 0 0 0 0 0 0 0 0 0 0 0 0 0 0 0 0 0 0 0 0 0 0 0 
0 0 0 0 0 0 0 0 0 0 0 0 0 -6.151815e+01 -6.411710e+01 -6.208069e+01 -6.285163e+01 -6.315235e+01 -6.171573e+01 -6.430453e+01 -6.117742e+01 0 0 0 0 0 0 0 0 0 0 0 0 0 0 0 0 0 0 0 0 0 0 0 0 0 0 0 0 0 0 0 0 0 0 0 -4.321605e-03 -4.005203e-02 -5.263870e-02 -4.024475e-02 -3.856284e-02 -4.357361e-02 -4.667624e-02 -4.299861e-02 -4.299988e-02 -3.463288e-02 -4.169256e-02 -4.052082e-02 -3.363075e-02 -2.884209e-02 -2.926989e-02 -2.212642e-02 -3.198740e-03 0 0 0 0 0 0 0 0 0 0 0 0 0 0 0 0 0 0 0 0 0 0 0 0 0 0 0 0 0 0 0 0 0 0 0 0 0 0 0 0 0 0 0 0 0 0 0 0 0 0 0 0 0 0 0 
0 0 0 0 0 0 0 0 0 0 0 0 0 -5.796938e+01 -5.995003e+01 -5.825424e+01 -5.898886e+01 -5.896015e+01 -5.824166e+01 -5.984889e+01 -5.798812e+01 0 0 0 0 0 0 0 0 0 0 0 0 0 0 0 0 0 0 0 0 0 0 0 0 0 0 0 0 0 0 0 0 0 0 0 -1.927294e-04 -1.600265e-03 -2.103993e-03 -1.847027e-03 -3.133679e-03 -6.394600e-03 -7.787668e-03 -7.837522e-03 -7.407085e-03 -5.751432e-03 -1.112728e-02 -1.326036e-02 -1.225605e-02 -1.085442e-02 -9.058893e-03 -6.338220e-03 -8.164606e-04 0 0 0 0 0 0 0 0 0 0 0 0 0 0 0 0 0 0 0 0 0 0 0 0 0 0 0 0 0 0 0 0 0 0 0 0 0 0 0 0 0 0 0 0 0 0 0 0 0 0 0 0 0 0 0 
0 0 0 0 0 0 0 0 0 0 0 0 0 -5.893625e+01 -6.416048e+01 -6.032015e+01 -6.183311e+01 -6.224481e+01 -5.976572e+01 -6.419941e+01 -5.868403e+01 0 0 0 0 0 0 0 0 0 0 0 0 0 0 0 0 0 0 0 0 0 0 0 0 0 0 0 0 0 0 0 0 0 0 0 2.614260e-04 2.338802e-03 2.990302e-03 2.017961e-03 1.204408e-03 -1.421589e-04 -1.006266e-03 -1.858128e-03 -1.679870e-03 -1.212801e-03 -3.457892e-03 -4.632702e-03 -5.121362e-03 -5.204780e-03 -5.421693e-03 -4.066730e-03 -5.295912e-04 0 0 0 0 0 0 0 0 0 0 0 0 0 0 0 0 0 0 0 0 0 0 0 0 0 0 0 0 0 0 0 0 0 0 0 0 0 0 0 0 0 0 0 0 0 0 0 0 0 0 0 0 0 0 0 
0 0 0 0 0 9.856536e-02 2.283433e-01 5.376151e-02 6.808325e-02 8.030000e-02 8.021838e-02 7.882149e-02 -6.418602e-02 -5.383128e+01 -5.872414e+01 -5.509834e+01 -5.664637e+01 -5.675142e+01 -5.477495e+01 -5.844011e+01 -5.394220e+01 -1.153553e-02 6.812428e-02 7.881875e-02 8.386054e-02 1.007699e-01 9.411002e-02 8.467468e-02 6.539912e-02 6.701022e-02 7.851719e-02 9.608360e-02 1.007222e-01 9.287357e-02 8.404182e-02 8.076516e-02 9.095472e-02 9.720616e-02 1.047642e-01 9.814593e-02 9.676606e-02 8.999469e-02 9.809997e-02 1.006706e-01 1.105018e-01 1.079176e-01 1.075700e-01 9.923950e-02 1.045128e-01 1.136588e-01 1.268710e-01 1.276188e-01 1.227776e-01 1.160878e-01 1.158556e-01 1.189034e-01 1.193579e-01 1.159493e-01 1.061167e-01 1.036618e-01 1.014078e-01 1.025034e-01 9.859374e-02 9.434163e-02 8.678020e-02 8.338008e-02 8.534282e-02 9.004833e-02 9.421961e-02 9.133228e-02 8.714442e-02 8.232705e-02 8.543130e-02 8.855226e-02 8.577349e-02 7.948182e-02 7.401988e-02 7.363791e-02 7.686180e-02 8.176474e-02 8.094229e-02 7.586594e-02 6.839796e-02 6.578401e-02 6.777679e-02 6.960938e-02 6.935403e-02 6.720800e-02 6.855383e-02 6.616496e-02 6.443249e-02 5.788354e-02 5.831793e-02 5.573824e-02 5.909983e-02 5.598190e-02 5.956658e-02 5.747108e-02 5.911040e-02 5.467042e-02 5.767794e-02 5.963780e-02 6.205352e-02 5.831955e-02 5.163431e-02 4.955926e-02 4.620615e-02 5.160452e-02 4.641808e-02 5.181656e-02 3.985576e-02 4.543058e-02 3.202957e-02 4.773848e-02 4.078264e-02 6.333749e-02 5.036566e-02 6.644104e-02 4.500263e-02 7.031843e-02 4.198542e-02 1.196598e-01 2.061450e-01 2.595689e-02 0 0 0 0 
0 0 0 0 0 2.216478e+00 5.148330e+00 1.232135e+00 1.537322e+00 1.805397e+00 1.805140e+00 1.775502e+00 -1.434700e+00 -4.831167e+01 -6.663111e+01 -5.337705e+01 -5.664336e+01 -5.805899e+01 -5.090405e+01 -6.619774e+01 -4.885768e+01 -2.589162e-01 1.527153e+00 1.767168e+00 1.880414e+00 2.259662e+00 2.110413e+00 1.898826e+00 1.466569e+00 1.502639e+00 1.760609e+00 2.154445e+00 2.258433e+00 2.082452e+00 1.884382e+00 1.810938e+00 2.039482e+00 2.179684e+00 2.349219e+00 2.200877e+00 2.169986e+00 2.018227e+00 2.200074e+00 2.257794e+00 2.478330e+00 2.420438e+00 2.412686e+00 2.225906e+00 2.344228e+00 2.549406e+00 2.845754e+00 2.862556e+00 2.754008e+00 2.604004e+00 2.598856e+00 2.667265e+00 2.677478e+00 2.601046e+00 2.380539e+00 2.325518e+00 2.274996e+00 2.299592e+00 2.211906e+00 2.116535e+00 1.946957e+00 1.870722e+00 1.914812e+00 2.020407e+00 2.114018e+00 2.049237e+00 1.955306e+00 1.847253e+00 1.916968e+00 1.987025e+00 1.924708e+00 1.783551e+00 1.661015e+00 1.652465e+00 1.724838e+00 1.834868e+00 1.816423e+00 1.702529e+00 1.534948e+00 1.476304e+00 1.521028e+00 1.562172e+00 1.556453e+00 1.508330e+00 1.538555e+00 1.484967e+00 1.446076e+00 1.299081e+00 1.308795e+00 1.250861e+00 1.326254e+00 1.256228e+00 1.336660e+00 1.289586e+00 1.326362e+00 1.226667e+00 1.294184e+00 1.338202e+00 1.392521e+00 1.308759e+00 1.158830e+00 1.112346e+00 1.037207e+00 1.158474e+00 1.042160e+00 1.163349e+00 8.948041e-01 1.019806e+00 7.186684e-01 1.070925e+00 9.142932e-01 1.420045e+00 1.128063e+00 1.488161e+00 1.005544e+00 1.572082e+00 9.338668e-01 2.680183e+00 4.626654e+00 5.826597e-01 0 0 0 0 
0 0 0 0 0 3.209499e+00 7.458291e+00 1.790029e+00 2.227668e+00 2.614160e+00 2.614188e+00 2.571722e+00 -2.075270e+00 -1.318595e+01 -1.752195e+01 -1.364070e+01 -1.523653e+01 -1.483223e+01 -1.333973e+01 -1.655637e+01 -1.371841e+01 -3.747914e-01 2.210131e+00 2.557556e+00 2.721505e+00 3.270409e+00 3.054425e+00 2.748193e+00 2.122582e+00 2.174770e+00 2.548116e+00 3.118095e+00 3.268591e+00 3.013897e+00 2.727223e+00 2.620937e+00 2.951721e+00 3.154641e+00 3.400023e+00 3.185344e+00 3.140649e+00 2.921028e+00 3.184239e+00 3.267797e+00 3.586999e+00 3.503226e+00 3.492018e+00 3.221697e+00 3.392963e+00 3.689939e+00 4.118865e+00 4.143191e+00 3.986092e+00 3.768992e+00 3.761558e+00 3.860583e+00 3.875369e+00 3.764749e+00 3.445604e+00 3.365979e+00 3.292864e+00 3.328470e+00 3.201558e+00 3.063522e+00 2.818086e+00 2.707754e+00 2.771583e+00 2.924432e+00 3.059935e+00 2.966167e+00 2.830215e+00 2.673822e+00 2.774748e+00 2.876160e+00 2.785967e+00 2.581652e+00 2.404292e+00 2.391921e+00 2.496687e+00 2.655956e+00 2.629259e+00 2.464404e+00 2.221834e+00 2.136951e+00 2.201689e+00 2.261251e+00 2.252975e+00 2.183326e+00 2.227082e+00 2.149520e+00 2.093223e+00 1.880441e+00 1.894493e+00 1.810623e+00 1.919742e+00 1.818366e+00 1.934787e+00 1.866635e+00 1.919867e+00 1.775543e+00 1.873280e+00 1.937006e+00 2.015659e+00 1.894422e+00 1.677425e+00 1.610161e+00 1.501424e+00 1.676989e+00 1.508645e+00 1.684076e+00 1.295325e+00 1.476238e+00 1.040240e+00 1.550061e+00 1.323202e+00 2.055173e+00 1.632306e+00 2.153380e+00 1.454411e+00 2.274071e+00 1.349650e+00 3.878250e+00 6.697190e+00 8.434369e-01 0 0 0 0 
0 0 0 0 0 1.091586e+00 2.538304e+00 6.116560e-01 7.584293e-01 8.890630e-01 8.892665e-01 8.750413e-01 -7.047564e-01 -4.481931e+00 -5.956242e+00 -4.636640e+00 -5.179113e+00 -5.041442e+00 -4.533984e+00 -5.627120e+00 -4.662539e+00 -1.274107e-01 7.511024e-01 8.692070e-01 9.249520e-01 1.111517e+00 1.038122e+00 9.340417e-01 7.214116e-01 7.391419e-01 8.660235e-01 1.059734e+00 1.110880e+00 1.024319e+00 9.268833e-01 8.907636e-01 1.003194e+00 1.072163e+00 1.155568e+00 1.082613e+00 1.067429e+00 9.927961e-01 1.082265e+00 1.110674e+00 1.219172e+00 1.190706e+00 1.186902e+00 1.095031e+00 1.153248e+00 1.254193e+00 1.399982e+00 1.408253e+00 1.354862e+00 1.281077e+00 1.278557e+00 1.312221e+00 1.317249e+00 1.279653e+00 1.171182e+00 1.144123e+00 1.119276e+00 1.131381e+00 1.088245e+00 1.041328e+00 9.579088e-01 9.204114e-01 9.421148e-01 9.940733e-01 1.040136e+00 1.008262e+00 9.620536e-01 9.088968e-01 9.432116e-01 9.776876e-01 9.470328e-01 8.775830e-01 8.172965e-01 8.130940e-01 8.487108e-01 9.028522e-01 8.937784e-01 8.377413e-01 7.552839e-01 7.264312e-01 7.484386e-01 7.686880e-01 7.658762e-01 7.422045e-01 7.570815e-01 7.307181e-01 7.115791e-01 6.392433e-01 6.440157e-01 6.155003e-01 6.525878e-01 6.181197e-01 6.576940e-01 6.345206e-01 6.526145e-01 6.035467e-01 6.367738e-01 6.584412e-01 6.851916e-01 6.439829e-01 5.702293e-01 5.473741e-01 5.104237e-01 5.701196e-01 5.129027e-01 5.725430e-01 4.403763e-01 5.018627e-01 3.536015e-01 5.268749e-01 4.496914e-01 6.984650e-01 5.546090e-01 7.316606e-01 4.938692e-01 7.723070e-01 4.577685e-01 1.317727e+00 2.276682e+00 2.867341e-01 0 0 0 0 
0 0 0 0 0 0 0 0 0 0 0 0 0 0 0 0 0 0 0 0 0 0 0 0 0 0 0 0 0 0 0 0 0 0 0 0 0 0 0 0 0 0 0 0 0 0 0 0 0 0 0 0 0 0 0 0 0 0 0 0 0 0 0 0 0 0 0 0 0 0 0 0 0 0 0 0 0 0 0 0 0 0 0 0 0 0 0 0 0 0 0 0 0 0 0 0 0 0 0 0 0 0 0 0 0 0 0 0 0 0 0 0 0 0 0 0 0 0 0 0 0 0 0 0 0 0 0 0 
