# vtk DataFile Version 2.0
Comment goes here
ASCII

DATASET STRUCTURED_POINTS
FIELD FieldData 1
TIME 1 1 double
0.23000000
DIMENSIONS    128   16   1

ORIGIN    0.000   0.000   0.000
SPACING   0.0078125 0.015625   1.000

POINT_DATA   2048
SCALARS fY double
LOOKUP_TABLE default

0 0 0 0 0 0 0 0 0 0 0 0 0 0 0 0 0 0 0 0 0 0 0 0 0 0 0 0 0 0 0 0 0 0 0 0 0 0 0 0 0 0 0 0 0 0 0 0 0 0 0 0 0 0 0 0 0 0 0 0 0 0 0 0 0 0 0 0 0 0 0 0 0 0 0 0 0 0 0 0 0 0 0 0 0 0 0 0 0 0 0 0 0 0 0 0 0 0 0 0 0 0 0 0 0 0 0 0 0 0 0 0 0 0 0 0 0 0 0 0 0 0 0 0 0 0 0 0 
0 0 0 0 0 0 0 0 0 0 0 0 0 0 0 0 0 0 0 0 0 0 0 0 0 0 0 0 0 0 0 0 0 0 0 0 0 0 0 0 0 0 0 0 0 0 0 0 0 0 0 0 0 0 0 0 0 0 0 0 0 0 0 0 0 0 0 0 0 0 0 0 0 0 0 0 0 0 0 0 0 0 0 0 0 0 0 0 0 0 0 0 0 0 0 0 0 0 0 0 0 0 0 0 0 0 0 0 0 0 0 0 0 0 0 0 0 0 0 0 0 0 0 0 0 0 0 0 
0 0 0 0 0 -3.483937e-01 3.594706e-01 1.696232e-01 3.093450e-01 2.934995e-01 3.929675e-01 3.970255e-01 4.964146e-01 2.016302e-01 -8.667162e-01 -9.613324e-01 -2.490949e+00 -3.325500e+00 -4.060060e+00 -5.542741e+00 -5.930322e+00 -6.484042e+00 -6.465294e+00 -6.363500e+00 -6.124059e+00 -5.742659e+00 -5.529187e+00 -5.470632e+00 -5.928210e+00 -6.011214e+00 -6.217049e+00 -5.863760e+00 -5.669755e+00 -5.336547e+00 -5.541848e+00 -5.450410e+00 -5.471933e+00 -5.164633e+00 -4.994014e+00 -4.900572e+00 -5.023875e+00 -5.143010e+00 -5.090780e+00 -4.849044e+00 -4.425258e+00 -4.367934e+00 -4.384499e+00 -4.746635e+00 -4.763524e+00 -4.610613e+00 -4.031429e+00 -3.893170e+00 -3.864106e+00 -4.180120e+00 -4.126326e+00 -3.822478e+00 -2.992207e+00 -1.106967e+00 -1.449102e+00 -3.716776e+00 -2.093803e+00 1.479255e+00 1.254045e+00 -1.253332e-01 -2.292752e+00 -3.414446e+00 1.483741e+00 3.259853e+00 1.442356e+00 -2.206092e-01 -3.483823e+00 -4.058810e+00 -3.804350e+00 -3.857013e+00 -3.879624e+00 -3.636714e+00 -3.338414e+00 -2.999960e+00 -2.572333e+00 -2.281840e+00 -2.229891e+00 -2.555697e+00 -2.805121e+00 -3.151945e+00 -2.941129e+00 -2.742179e+00 -2.338298e+00 -2.247501e+00 -2.130347e+00 -2.432489e+00 -2.572399e+00 -2.681932e+00 -2.514680e+00 -2.000186e+00 -1.487262e+00 -1.106285e+00 -1.309916e+00 -1.485705e+00 -2.018993e+00 -1.788610e+00 -1.828395e+00 -1.331419e+00 -1.518393e+00 -1.248407e+00 -1.604420e+00 -1.336332e+00 -1.526652e+00 -1.161225e+00 -1.177243e+00 -9.385986e-01 -9.185787e-01 -9.182722e-01 -8.370548e-01 -8.505915e-01 -4.546424e-01 -5.666545e-01 -1.533364e-01 -6.087602e-01 -2.256641e-01 -6.688127e-01 -1.720048e-01 -4.540505e-01 8.901237e-02 6.295013e-01 0 0 0 0 
0 0 0 0 0 -1.024841e+00 1.055247e+00 4.951392e-01 9.071665e-01 8.618373e-01 1.154742e+00 1.166817e+00 1.459208e+00 5.922420e-01 -2.549747e+00 -2.827841e+00 -7.326860e+00 -9.781558e+00 -1.194234e+01 -1.630387e+01 -1.744405e+01 -1.907305e+01 -1.901796e+01 -1.871854e+01 -1.801420e+01 -1.689219e+01 -1.626422e+01 -1.609192e+01 -1.743785e+01 -1.768196e+01 -1.828740e+01 -1.724809e+01 -1.667737e+01 -1.569718e+01 -1.630110e+01 -1.603214e+01 -1.609547e+01 -1.519154e+01 -1.468965e+01 -1.441480e+01 -1.477752e+01 -1.512797e+01 -1.497432e+01 -1.426323e+01 -1.301659e+01 -1.284795e+01 -1.289666e+01 -1.396189e+01 -1.401156e+01 -1.356176e+01 -1.185807e+01 -1.145138e+01 -1.136591e+01 -1.229551e+01 -1.213729e+01 -1.124350e+01 -9.318740e+00 -6.330513e+00 -6.295048e+00 -7.976458e+00 -7.120503e+00 -5.002455e+00 -4.834117e+00 -5.373537e+00 -6.848709e+00 -7.704688e+00 -5.003475e+00 -3.988718e+00 -4.473186e+00 -5.077443e+00 -7.466877e+00 -9.057426e+00 -1.101054e+01 -1.134500e+01 -1.141151e+01 -1.069699e+01 -9.819539e+00 -8.823990e+00 -7.566137e+00 -6.711670e+00 -6.558868e+00 -7.517200e+00 -8.250873e+00 -9.271063e+00 -8.650974e+00 -8.065789e+00 -6.877847e+00 -6.610805e+00 -6.266259e+00 -7.155051e+00 -7.566608e+00 -7.888823e+00 -7.396876e+00 -5.883476e+00 -4.374783e+00 -3.254133e+00 -3.853013e+00 -4.370039e+00 -5.938586e+00 -5.260910e+00 -5.377958e+00 -3.916250e+00 -4.466324e+00 -3.672384e+00 -4.719791e+00 -3.931520e+00 -4.491610e+00 -3.417079e+00 -3.464417e+00 -2.762689e+00 -2.703879e+00 -2.702959e+00 -2.463958e+00 -2.503578e+00 -1.338617e+00 -1.667732e+00 -4.517195e-01 -1.791216e+00 -6.656110e-01 -1.974670e+00 -5.379802e-01 -1.377961e+00 2.448122e-01 1.850975e+00 0 0 0 0 
0 0 0 0 0 -7.079910e-01 7.279418e-01 3.402026e-01 6.253376e-01 5.946440e-01 7.971402e-01 8.055496e-01 1.007554e+00 1.980790e+00 -2.519401e+00 -2.126096e+00 -6.145448e+00 -5.473121e+00 -9.958576e+00 -8.678155e+00 -1.372853e+01 -1.317598e+01 -1.313796e+01 -1.293112e+01 -1.244455e+01 -1.166939e+01 -1.123556e+01 -1.111650e+01 -1.204627e+01 -1.221488e+01 -1.263312e+01 -1.191509e+01 -1.152081e+01 -1.084365e+01 -1.126086e+01 -1.107506e+01 -1.111882e+01 -1.049437e+01 -1.014766e+01 -9.957789e+00 -1.020838e+01 -1.045047e+01 -1.034432e+01 -9.853085e+00 -8.991857e+00 -8.875342e+00 -8.908988e+00 -9.644862e+00 -9.679169e+00 -9.368443e+00 -8.191501e+00 -7.910552e+00 -7.851518e+00 -8.493719e+00 -8.384424e+00 -7.766979e+00 -7.291220e+00 -1.025658e+01 -1.072559e+01 -8.491473e+00 -1.049769e+01 -1.361560e+01 -1.343314e+01 -1.208000e+01 -1.049526e+01 -9.113687e+00 -1.438326e+01 -1.513890e+01 -1.216707e+01 -9.787831e+00 -7.366567e+00 -7.686347e+00 -8.003441e+00 -7.837057e+00 -7.883005e+00 -7.389406e+00 -6.783250e+00 -6.095519e+00 -5.226587e+00 -4.636321e+00 -4.530766e+00 -5.192780e+00 -5.699605e+00 -6.404367e+00 -5.976015e+00 -5.571776e+00 -4.751168e+00 -4.566711e+00 -4.328725e+00 -4.942732e+00 -5.227046e+00 -5.449647e+00 -5.109816e+00 -4.064336e+00 -3.022150e+00 -2.247990e+00 -2.661652e+00 -3.018793e+00 -4.102305e+00 -3.634156e+00 -3.715025e+00 -2.705331e+00 -3.085373e+00 -2.537017e+00 -3.260673e+00 -2.716276e+00 -3.103321e+00 -2.361203e+00 -2.394012e+00 -1.909368e+00 -1.868780e+00 -1.868135e+00 -1.702982e+00 -1.730257e+00 -9.253549e-01 -1.152533e+00 -3.123825e-01 -1.237658e+00 -4.606934e-01 -1.367689e+00 -3.871643e-01 -9.724464e-01 1.608713e-01 1.278334e+00 0 0 0 0 
0 0 0 0 0 -3.154399e-02 3.216506e-02 1.468668e-02 2.751603e-02 2.630620e-02 3.536610e-02 3.575781e-02 4.476114e-02 1.185014e+00 -7.416183e-01 -8.790124e-01 -1.131489e+00 7.914795e-01 -1.512666e+00 2.328801e+00 -1.865872e+00 -5.869814e-01 -5.852952e-01 -5.760814e-01 -5.544039e-01 -5.198581e-01 -5.005259e-01 -4.952153e-01 -5.366295e-01 -5.441343e-01 -5.627633e-01 -5.307627e-01 -5.131923e-01 -4.830201e-01 -5.016094e-01 -4.933321e-01 -4.952847e-01 -4.674664e-01 -4.520196e-01 -4.435623e-01 -4.547289e-01 -4.655142e-01 -4.607840e-01 -4.388983e-01 -4.005240e-01 -3.953302e-01 -3.968276e-01 -4.296094e-01 -4.311364e-01 -4.172937e-01 -3.648613e-01 -3.523455e-01 -3.497181e-01 -3.783321e-01 -3.734648e-01 -3.459573e-01 -9.708118e-01 -5.027108e+00 -5.865402e+00 -4.320365e+00 -5.617474e+00 -7.217076e+00 -7.212401e+00 -6.440487e+00 -5.471535e+00 -4.457952e+00 -7.432605e+00 -7.268919e+00 -5.395772e+00 -3.930464e+00 -2.064314e+00 -1.674074e+00 -6.710543e-01 -3.490691e-01 -3.511160e-01 -3.291276e-01 -3.021247e-01 -2.714895e-01 -2.327826e-01 -2.064904e-01 -2.017888e-01 -2.312765e-01 -2.538530e-01 -2.852490e-01 -2.661704e-01 -2.481661e-01 -2.116194e-01 -2.034070e-01 -1.928129e-01 -2.201705e-01 -2.328372e-01 -2.427562e-01 -2.276208e-01 -1.810459e-01 -1.346285e-01 -1.001412e-01 -1.185560e-01 -1.344585e-01 -1.827114e-01 -1.618561e-01 -1.654611e-01 -1.205001e-01 -1.374411e-01 -1.130408e-01 -1.453016e-01 -1.210884e-01 -1.383627e-01 -1.053491e-01 -1.068379e-01 -8.527845e-02 -8.348011e-02 -8.344906e-02 -7.607966e-02 -7.727040e-02 -4.138020e-02 -5.145500e-02 -1.399945e-02 -5.520155e-02 -2.074651e-02 -6.183184e-02 -2.118893e-02 -4.853546e-02 5.071478e-03 5.685969e-02 0 0 0 0 
0 0 0 0 0 0 0 0 0 0 0 0 0 1.351625e-01 -8.051747e-02 2.865205e-01 -3.388776e-01 3.955159e-01 -4.911434e-01 3.807115e-01 -3.246544e-01 0 0 0 0 0 0 0 0 0 0 0 0 0 0 0 0 0 0 0 0 0 0 0 0 0 0 0 0 0 0 0 0 0 0 0 -1.283254e-01 -7.442305e-01 -8.412200e-01 -5.001816e-01 -4.738393e-01 -5.345205e-01 -4.138560e-01 -5.869527e-02 7.349139e-02 1.190933e-01 3.212447e-02 4.856058e-02 4.229657e-01 5.766849e-01 7.835128e-01 6.576660e-01 1.095232e-01 0 0 0 0 0 0 0 0 0 0 0 0 0 0 0 0 0 0 0 0 0 0 0 0 0 0 0 0 0 0 0 0 0 0 0 0 0 0 0 0 0 0 0 0 0 0 0 0 0 0 0 0 0 0 0 
0 0 0 0 0 0 0 0 0 0 0 0 0 4.536422e-02 -8.750614e-02 6.559803e-02 -2.220582e-01 2.109873e-01 -2.782936e-01 2.707209e-01 -1.798738e-01 0 0 0 0 0 0 0 0 0 0 0 0 0 0 0 0 0 0 0 0 0 0 0 0 0 0 0 0 0 0 0 0 0 0 0 -1.094099e-01 -6.917219e-01 -8.090511e-01 -4.413097e-01 -3.155460e-01 -3.218434e-01 -3.942898e-01 -3.300979e-01 -3.182133e-01 -2.079771e-01 -2.670554e-01 -3.498702e-01 -2.464326e-01 -2.682860e-01 -4.463157e-01 -3.115674e-01 -1.635990e-02 0 0 0 0 0 0 0 0 0 0 0 0 0 0 0 0 0 0 0 0 0 0 0 0 0 0 0 0 0 0 0 0 0 0 0 0 0 0 0 0 0 0 0 0 0 0 0 0 0 0 0 0 0 0 0 
0 0 0 0 0 0 0 0 0 0 0 0 0 -2.804563e-02 -1.772781e-02 -3.501351e-02 -2.799318e-02 -3.746604e-02 -3.317112e-02 -2.845025e-02 -2.937760e-02 0 0 0 0 0 0 0 0 0 0 0 0 0 0 0 0 0 0 0 0 0 0 0 0 0 0 0 0 0 0 0 0 0 0 0 -7.678135e-02 -5.186700e-01 -6.563624e-01 -5.647791e-01 -5.849466e-01 -5.902474e-01 -6.644252e-01 -6.385479e-01 -6.506228e-01 -5.631223e-01 -6.588286e-01 -6.238697e-01 -5.059604e-01 -4.664182e-01 -4.806772e-01 -3.478563e-01 -3.490605e-02 0 0 0 0 0 0 0 0 0 0 0 0 0 0 0 0 0 0 0 0 0 0 0 0 0 0 0 0 0 0 0 0 0 0 0 0 0 0 0 0 0 0 0 0 0 0 0 0 0 0 0 0 0 0 0 
0 0 0 0 0 0 0 0 0 0 0 0 0 -9.389576e-02 3.514211e-02 -1.465751e-01 1.475556e-01 -3.275920e-01 1.915691e-01 -4.062966e-01 1.153456e-01 0 0 0 0 0 0 0 0 0 0 0 0 0 0 0 0 0 0 0 0 0 0 0 0 0 0 0 0 0 0 0 0 0 0 0 -1.708523e-01 -1.098299e+00 -1.346601e+00 -1.057681e+00 -1.113917e+00 -1.215915e+00 -1.401812e+00 -1.345510e+00 -1.331556e+00 -1.121667e+00 -1.380856e+00 -1.372707e+00 -1.173791e+00 -1.102081e+00 -1.085191e+00 -7.592382e-01 -6.852106e-02 0 0 0 0 0 0 0 0 0 0 0 0 0 0 0 0 0 0 0 0 0 0 0 0 0 0 0 0 0 0 0 0 0 0 0 0 0 0 0 0 0 0 0 0 0 0 0 0 0 0 0 0 0 0 0 
0 0 0 0 0 0 0 0 0 0 0 0 0 -2.186363e-01 3.279249e-02 -3.748705e-01 2.625429e-01 -5.163227e-01 3.878940e-01 -4.898918e-01 2.808917e-01 0 0 0 0 0 0 0 0 0 0 0 0 0 0 0 0 0 0 0 0 0 0 0 0 0 0 0 0 0 0 0 0 0 0 0 -8.127978e-02 -5.211938e-01 -6.438325e-01 -5.226041e-01 -5.171572e-01 -4.961742e-01 -5.852405e-01 -5.870541e-01 -6.048720e-01 -5.201215e-01 -5.577682e-01 -5.258598e-01 -4.814708e-01 -4.801009e-01 -5.151438e-01 -3.669588e-01 -3.330231e-02 0 0 0 0 0 0 0 0 0 0 0 0 0 0 0 0 0 0 0 0 0 0 0 0 0 0 0 0 0 0 0 0 0 0 0 0 0 0 0 0 0 0 0 0 0 0 0 0 0 0 0 0 0 0 0 
0 0 0 0 0 3.154036e-02 -3.353646e-02 -2.145539e-02 -3.813817e-02 -3.772291e-02 -4.525471e-02 -4.283605e-02 -5.082227e-02 -1.269545e+00 7.229023e-01 8.039282e-01 1.010886e+00 -9.714084e-01 1.293214e+00 -2.609436e+00 1.355013e+00 5.476357e-01 5.397597e-01 5.560189e-01 5.733482e-01 5.765406e-01 5.886136e-01 5.680900e-01 5.589667e-01 5.239205e-01 5.277862e-01 5.070308e-01 5.256094e-01 5.104711e-01 5.173802e-01 4.948756e-01 4.909066e-01 4.643194e-01 4.598426e-01 4.574563e-01 4.791007e-01 5.011549e-01 4.981662e-01 4.687499e-01 4.127548e-01 3.807058e-01 3.758581e-01 4.242926e-01 4.605525e-01 4.905908e-01 4.625300e-01 4.253519e-01 3.820657e-01 3.911946e-01 4.149151e-01 4.485627e-01 4.396542e-01 4.032177e-01 3.613430e-01 3.481425e-01 3.735633e-01 4.065781e-01 4.281863e-01 3.976978e-01 3.579445e-01 3.033104e-01 2.860178e-01 2.847023e-01 3.273404e-01 3.600812e-01 3.882543e-01 3.766184e-01 3.623229e-01 3.502801e-01 3.576438e-01 3.705475e-01 3.644878e-01 3.303388e-01 2.718526e-01 2.405812e-01 2.220079e-01 2.505121e-01 2.637643e-01 2.806801e-01 2.478049e-01 2.222804e-01 1.699787e-01 1.703591e-01 1.818773e-01 2.240118e-01 2.447314e-01 2.545003e-01 2.368708e-01 2.182120e-01 2.203632e-01 2.118868e-01 2.199306e-01 1.844588e-01 1.722821e-01 1.253924e-01 1.380849e-01 1.099604e-01 1.341406e-01 9.514046e-02 1.047531e-01 7.377617e-02 1.067574e-01 1.063885e-01 1.332253e-01 1.129255e-01 9.231587e-02 7.250608e-02 7.096488e-02 1.063472e-01 1.012066e-01 1.158417e-01 4.555942e-02 3.010400e-02 -3.548284e-02 7.856786e-03 -1.385765e-02 3.844719e-02 -2.581025e-03 -5.610469e-02 0 0 0 0 
0 0 0 0 0 7.079092e-01 -7.587466e-01 -4.921513e-01 -8.638031e-01 -8.509694e-01 -1.019150e+00 -9.644653e-01 -1.143626e+00 -2.031445e+00 2.336357e+00 1.967717e+00 5.878889e+00 5.185766e+00 9.641046e+00 8.255490e+00 1.329716e+01 1.229284e+01 1.211583e+01 1.248054e+01 1.286950e+01 1.294123e+01 1.321236e+01 1.275202e+01 1.254743e+01 1.176116e+01 1.184810e+01 1.138242e+01 1.179948e+01 1.145977e+01 1.161482e+01 1.110968e+01 1.102053e+01 1.042370e+01 1.032316e+01 1.026954e+01 1.075526e+01 1.125028e+01 1.118323e+01 1.052297e+01 9.266299e+00 8.546951e+00 8.438180e+00 9.525456e+00 1.033934e+01 1.101357e+01 1.038379e+01 9.549328e+00 8.577701e+00 8.782594e+00 9.315009e+00 1.007017e+01 9.870190e+00 9.052375e+00 8.112380e+00 7.816088e+00 8.386756e+00 9.127800e+00 9.612859e+00 8.928579e+00 8.036247e+00 6.809865e+00 6.421695e+00 6.392139e+00 7.349245e+00 8.084190e+00 8.716522e+00 8.455282e+00 8.134388e+00 7.864023e+00 8.029293e+00 8.318969e+00 8.182963e+00 7.416369e+00 6.103557e+00 5.401566e+00 4.984635e+00 5.624599e+00 5.922112e+00 6.301819e+00 5.563734e+00 4.990640e+00 3.816233e+00 3.824662e+00 4.083154e+00 5.028883e+00 5.493998e+00 5.713216e+00 5.317347e+00 4.898548e+00 4.946962e+00 4.756812e+00 4.937571e+00 4.141421e+00 3.868137e+00 2.815439e+00 3.100384e+00 2.468722e+00 3.011269e+00 2.135077e+00 2.350334e+00 1.654011e+00 2.393710e+00 2.384776e+00 2.986576e+00 2.530237e+00 2.067429e+00 1.622512e+00 1.588165e+00 2.383429e+00 2.268813e+00 2.598303e+00 1.021310e+00 6.741174e-01 -8.020614e-01 1.558416e-01 -3.994302e-01 7.467017e-01 -1.043173e-01 -1.261340e+00 0 0 0 0 
0 0 0 0 0 1.024722e+00 -1.099845e+00 -7.150971e-01 -1.252368e+00 -1.232898e+00 -1.476125e+00 -1.396865e+00 -1.656185e+00 -8.194318e-01 2.393774e+00 2.614791e+00 7.118080e+00 9.889245e+00 1.218988e+01 1.659712e+01 1.699343e+01 1.779466e+01 1.753836e+01 1.806624e+01 1.862927e+01 1.873313e+01 1.912563e+01 1.845935e+01 1.816326e+01 1.702517e+01 1.715107e+01 1.647703e+01 1.708076e+01 1.658902e+01 1.681346e+01 1.608224e+01 1.595319e+01 1.508922e+01 1.494368e+01 1.486604e+01 1.556911e+01 1.628569e+01 1.618864e+01 1.523288e+01 1.341384e+01 1.237255e+01 1.221511e+01 1.378902e+01 1.496716e+01 1.594314e+01 1.503153e+01 1.382360e+01 1.241712e+01 1.271371e+01 1.348440e+01 1.457752e+01 1.428802e+01 1.310421e+01 1.174350e+01 1.131460e+01 1.214069e+01 1.321339e+01 1.391555e+01 1.292503e+01 1.163333e+01 9.858066e+00 9.296164e+00 9.253373e+00 1.063885e+01 1.170273e+01 1.261805e+01 1.223988e+01 1.177536e+01 1.138398e+01 1.162321e+01 1.204254e+01 1.184567e+01 1.073597e+01 8.835598e+00 7.819412e+00 7.215874e+00 8.142294e+00 8.572973e+00 9.122622e+00 8.054164e+00 7.224539e+00 5.524412e+00 5.536587e+00 5.910756e+00 7.279740e+00 7.953027e+00 8.270342e+00 7.697263e+00 7.091035e+00 7.161149e+00 6.885926e+00 7.147636e+00 5.995182e+00 5.599598e+00 4.075712e+00 4.488196e+00 3.573738e+00 4.359050e+00 3.090517e+00 3.401983e+00 2.393763e+00 3.464363e+00 3.451264e+00 4.322253e+00 3.661504e+00 2.991514e+00 2.347407e+00 2.297751e+00 3.449208e+00 3.283491e+00 3.760695e+00 1.478063e+00 9.754128e-01 -1.162450e+00 2.203779e-01 -6.006392e-01 1.051362e+00 -1.627817e-01 -1.826363e+00 0 0 0 0 
0 0 0 0 0 3.483533e-01 -3.746343e-01 -2.444012e-01 -4.267027e-01 -4.196513e-01 -5.022294e-01 -4.752359e-01 -5.633809e-01 -2.788667e-01 8.136949e-01 8.889064e-01 2.419972e+00 3.362109e+00 4.144210e+00 5.642417e+00 5.777118e+00 6.049451e+00 5.962291e+00 6.141717e+00 6.333122e+00 6.368436e+00 6.501888e+00 6.275422e+00 6.174788e+00 5.787936e+00 5.830758e+00 5.601640e+00 5.806885e+00 5.639727e+00 5.716020e+00 5.467440e+00 5.423561e+00 5.129845e+00 5.080360e+00 5.053959e+00 5.292958e+00 5.536563e+00 5.503572e+00 5.178662e+00 4.560292e+00 4.206305e+00 4.152787e+00 4.687861e+00 5.088374e+00 5.420160e+00 5.110264e+00 4.699628e+00 4.221484e+00 4.322310e+00 4.584308e+00 4.955907e+00 4.857490e+00 4.455050e+00 3.992462e+00 3.846658e+00 4.127499e+00 4.492167e+00 4.730873e+00 4.394152e+00 3.955028e+00 3.351511e+00 3.160487e+00 3.145937e+00 3.616941e+00 3.978617e+00 4.289780e+00 4.161211e+00 4.003295e+00 3.870237e+00 3.951563e+00 4.094122e+00 4.027195e+00 3.649935e+00 3.003893e+00 2.658427e+00 2.453247e+00 2.768207e+00 2.914625e+00 3.101483e+00 2.738235e+00 2.456179e+00 1.878159e+00 1.882284e+00 2.009479e+00 2.474869e+00 2.703761e+00 2.811627e+00 2.616787e+00 2.410699e+00 2.434550e+00 2.341000e+00 2.429996e+00 2.038220e+00 1.903743e+00 1.385665e+00 1.525897e+00 1.214976e+00 1.481922e+00 1.050581e+00 1.156402e+00 8.135284e-01 1.177410e+00 1.172876e+00 1.468902e+00 1.244192e+00 1.016401e+00 7.974011e-01 7.805506e-01 1.172126e+00 1.115884e+00 1.278234e+00 5.023120e-01 3.313994e-01 -3.958710e-01 7.239311e-02 -2.150667e-01 3.431070e-01 -6.104534e-02 -6.211285e-01 0 0 0 0 
0 0 0 0 0 0 0 0 0 0 0 0 0 0 0 0 0 0 0 0 0 0 0 0 0 0 0 0 0 0 0 0 0 0 0 0 0 0 0 0 0 0 0 0 0 0 0 0 0 0 0 0 0 0 0 0 0 0 0 0 0 0 0 0 0 0 0 0 0 0 0 0 0 0 0 0 0 0 0 0 0 0 0 0 0 0 0 0 0 0 0 0 0 0 0 0 0 0 0 0 0 0 0 0 0 0 0 0 0 0 0 0 0 0 0 0 0 0 0 0 0 0 0 0 0 0 0 0 
