# vtk DataFile Version 2.0
Comment goes here
ASCII

DATASET STRUCTURED_POINTS
FIELD FieldData 1
TIME 1 1 double
0.85000000
DIMENSIONS    128   16   1

ORIGIN    0.000   0.000   0.000
SPACING   0.0078125 0.015625   1.000

POINT_DATA   2048
SCALARS fY double
LOOKUP_TABLE default

0 0 0 0 0 0 0 0 0 0 0 0 0 0 0 0 0 0 0 0 0 0 0 0 0 0 0 0 0 0 0 0 0 0 0 0 0 0 0 0 0 0 0 0 0 0 0 0 0 0 0 0 0 0 0 0 0 0 0 0 0 0 0 0 0 0 0 0 0 0 0 0 0 0 0 0 0 0 0 0 0 0 0 0 0 0 0 0 0 0 0 0 0 0 0 0 0 0 0 0 0 0 0 0 0 0 0 0 0 0 0 0 0 0 0 0 0 0 0 0 0 0 0 0 0 0 0 0 
0 0 0 0 0 0 0 0 0 0 0 0 0 0 0 0 0 0 0 0 0 0 0 0 0 0 0 0 0 0 0 0 0 0 0 0 0 0 0 0 0 0 0 0 0 0 0 0 0 0 0 0 0 0 0 0 0 0 0 0 0 0 0 0 0 0 0 0 0 0 0 0 0 0 0 0 0 0 0 0 0 0 0 0 0 0 0 0 0 0 0 0 0 0 0 0 0 0 0 0 0 0 0 0 0 0 0 0 0 0 0 0 0 0 0 0 0 0 0 0 0 0 0 0 0 0 0 0 
0 0 0 0 0 1.122783e+00 2.007452e+00 1.551928e+00 2.715911e+00 2.091729e+00 3.345845e+00 2.595030e+00 3.869182e+00 2.229871e+00 -4.485700e+00 -8.776024e+00 -1.386766e+01 -1.908528e+01 -2.405334e+01 -2.843802e+01 -3.545334e+01 -3.638546e+01 -3.567916e+01 -3.584042e+01 -3.519442e+01 -3.523279e+01 -3.465625e+01 -3.458556e+01 -3.407815e+01 -3.390913e+01 -3.346564e+01 -3.321551e+01 -3.283589e+01 -3.253228e+01 -3.220851e+01 -3.186748e+01 -3.158131e+01 -3.121882e+01 -3.095457e+01 -3.057817e+01 -3.031665e+01 -2.993157e+01 -2.966966e+01 -2.928407e+01 -2.902443e+01 -2.864156e+01 -2.839928e+01 -2.802784e+01 -2.781845e+01 -2.745137e+01 -2.727585e+01 -2.690459e+01 -2.676779e+01 -2.640387e+01 -2.632864e+01 -2.602841e+01 -2.612720e+01 -2.710472e+01 -2.737200e+01 -2.605692e+01 -2.678145e+01 -2.871002e+01 -2.828379e+01 -2.733679e+01 -2.609540e+01 -2.488356e+01 -2.601494e+01 -2.638115e+01 -2.577782e+01 -2.448353e+01 -2.309243e+01 -2.182917e+01 -1.974481e+01 -1.853627e+01 -1.791941e+01 -1.774702e+01 -1.712579e+01 -1.701645e+01 -1.642184e+01 -1.632402e+01 -1.577383e+01 -1.562928e+01 -1.512923e+01 -1.490061e+01 -1.447206e+01 -1.415279e+01 -1.381091e+01 -1.340545e+01 -1.315826e+01 -1.268617e+01 -1.252388e+01 -1.199511e+01 -1.188582e+01 -1.131627e+01 -1.122787e+01 -1.063874e+01 -1.053614e+01 -9.959098e+00 -9.821386e+00 -9.295270e+00 -9.097676e+00 -8.651079e+00 -8.373615e+00 -8.033232e+00 -7.655140e+00 -7.422837e+00 -6.923324e+00 -6.797391e+00 -6.181767e+00 -6.153848e+00 -5.441639e+00 -5.493795e+00 -4.729516e+00 -4.829509e+00 -4.057327e+00 -4.139280e+00 -3.411171e+00 -3.401385e+00 -2.791824e+00 -2.593322e+00 -2.212521e+00 -1.664923e+00 -1.952256e+00 2.155305e-01 0 0 0 0 
0 0 0 0 0 3.301405e+00 5.897536e+00 4.555509e+00 7.983897e+00 6.150145e+00 9.837389e+00 7.627441e+00 1.137291e+01 6.550703e+00 -1.319848e+01 -2.581848e+01 -4.079705e+01 -5.614977e+01 -7.076842e+01 -8.367353e+01 -1.043227e+02 -1.070658e+02 -1.049865e+02 -1.054611e+02 -1.035593e+02 -1.036722e+02 -1.019749e+02 -1.017668e+02 -1.002732e+02 -9.977569e+01 -9.847030e+01 -9.773403e+01 -9.661665e+01 -9.572296e+01 -9.476996e+01 -9.376611e+01 -9.292378e+01 -9.185677e+01 -9.107898e+01 -8.997104e+01 -8.920127e+01 -8.806781e+01 -8.729692e+01 -8.616196e+01 -8.539777e+01 -8.427085e+01 -8.355775e+01 -8.246453e+01 -8.184824e+01 -8.076786e+01 -8.025128e+01 -7.915866e+01 -7.875605e+01 -7.768504e+01 -7.746368e+01 -7.658017e+01 -7.674872e+01 -7.826396e+01 -7.935377e+01 -7.813148e+01 -7.863198e+01 -7.919641e+01 -7.783031e+01 -7.636144e+01 -7.478026e+01 -7.320799e+01 -7.346782e+01 -7.210254e+01 -6.999304e+01 -6.707791e+01 -6.445540e+01 -6.189780e+01 -5.718639e+01 -5.453217e+01 -5.271698e+01 -5.220971e+01 -5.038170e+01 -5.005993e+01 -4.831031e+01 -4.802252e+01 -4.640370e+01 -4.597843e+01 -4.450721e+01 -4.383458e+01 -4.257375e+01 -4.163438e+01 -4.062850e+01 -3.943551e+01 -3.870819e+01 -3.731915e+01 -3.684159e+01 -3.528583e+01 -3.496424e+01 -3.328859e+01 -3.302854e+01 -3.129538e+01 -3.099362e+01 -2.929612e+01 -2.889111e+01 -2.734350e+01 -2.676230e+01 -2.544861e+01 -2.463238e+01 -2.363108e+01 -2.251871e+01 -2.183526e+01 -2.036563e+01 -1.999503e+01 -1.818384e+01 -1.810159e+01 -1.600641e+01 -1.615984e+01 -1.391176e+01 -1.420614e+01 -1.193515e+01 -1.217678e+01 -1.003593e+01 -1.000847e+01 -8.218222e+00 -7.640896e+00 -6.538426e+00 -4.927827e+00 -5.751483e+00 6.338665e-01 0 0 0 0 
0 0 0 0 0 2.280036e+00 4.070505e+00 3.142399e+00 5.512963e+00 4.247293e+00 6.793638e+00 5.266291e+00 7.852520e+00 9.296168e+00 -1.272999e+01 -1.204744e+01 -3.362522e+01 -3.283280e+01 -5.476219e+01 -5.346793e+01 -7.587941e+01 -7.398067e+01 -7.254342e+01 -7.287139e+01 -7.155682e+01 -7.163478e+01 -7.046168e+01 -7.031782e+01 -6.928551e+01 -6.894165e+01 -6.803945e+01 -6.753058e+01 -6.675833e+01 -6.614065e+01 -6.548201e+01 -6.478820e+01 -6.420604e+01 -6.346857e+01 -6.293101e+01 -6.216527e+01 -6.163327e+01 -6.084989e+01 -6.031711e+01 -5.953272e+01 -5.900458e+01 -5.822576e+01 -5.773293e+01 -5.697741e+01 -5.655150e+01 -5.580486e+01 -5.544787e+01 -5.469279e+01 -5.441456e+01 -5.367444e+01 -5.352149e+01 -5.291095e+01 -5.280087e+01 -4.948127e+01 -4.804560e+01 -4.826984e+01 -4.711335e+01 -4.230540e+01 -4.104169e+01 -4.034558e+01 -4.034867e+01 -4.068116e+01 -3.720341e+01 -3.377901e+01 -3.195143e+01 -3.229053e+01 -3.193250e+01 -3.290753e+01 -3.536625e+01 -3.767517e+01 -3.642089e+01 -3.607037e+01 -3.480723e+01 -3.458488e+01 -3.337595e+01 -3.317711e+01 -3.205860e+01 -3.176478e+01 -3.074829e+01 -3.028357e+01 -2.941245e+01 -2.876340e+01 -2.806842e+01 -2.724412e+01 -2.674158e+01 -2.578182e+01 -2.545184e+01 -2.437691e+01 -2.415471e+01 -2.299698e+01 -2.281733e+01 -2.161993e+01 -2.141149e+01 -2.023878e+01 -1.995902e+01 -1.888990e+01 -1.848841e+01 -1.758089e+01 -1.701699e+01 -1.632525e+01 -1.555672e+01 -1.508452e+01 -1.406913e+01 -1.381303e+01 -1.256168e+01 -1.250480e+01 -1.105732e+01 -1.116332e+01 -9.610340e+00 -9.813823e+00 -8.245192e+00 -8.412380e+00 -6.933889e+00 -6.915562e+00 -5.680180e+00 -5.284540e+00 -4.531497e+00 -3.418956e+00 -3.977513e+00 4.378255e-01 0 0 0 0 
0 0 0 0 0 1.014140e-01 1.804208e-01 1.388178e-01 2.449771e-01 1.888758e-01 3.020941e-01 2.338797e-01 3.487882e-01 3.691427e+00 -4.283713e+00 4.662015e+00 -6.823898e+00 4.289032e+00 -7.863578e+00 2.044295e+00 -5.943864e+00 -3.300307e+00 -3.236067e+00 -3.250709e+00 -3.191950e+00 -3.195421e+00 -3.142999e+00 -3.136570e+00 -3.090452e+00 -3.075092e+00 -3.034794e+00 -3.012063e+00 -2.977571e+00 -2.949978e+00 -2.920560e+00 -2.889566e+00 -2.863564e+00 -2.830620e+00 -2.806610e+00 -2.772406e+00 -2.748644e+00 -2.713655e+00 -2.689861e+00 -2.654829e+00 -2.631244e+00 -2.596464e+00 -2.574457e+00 -2.540721e+00 -2.521704e+00 -2.488368e+00 -2.472430e+00 -2.438721e+00 -2.426303e+00 -2.393267e+00 -2.386444e+00 -2.359197e+00 -2.165333e+00 3.317811e+00 7.137392e+00 7.741716e+00 8.690792e+00 1.184054e+01 1.168835e+01 1.191045e+01 1.148703e+01 1.059702e+01 1.259033e+01 1.261396e+01 1.216865e+01 9.577791e+00 8.491563e+00 6.504163e+00 1.975363e+00 -1.679274e+00 -1.623315e+00 -1.607676e+00 -1.551324e+00 -1.541402e+00 -1.487478e+00 -1.478611e+00 -1.428732e+00 -1.415634e+00 -1.370313e+00 -1.349594e+00 -1.310756e+00 -1.281812e+00 -1.250825e+00 -1.214062e+00 -1.191651e+00 -1.148847e+00 -1.134128e+00 -1.086194e+00 -1.076283e+00 -1.024669e+00 -1.016662e+00 -9.632932e-01 -9.540121e-01 -9.017569e-01 -8.893016e-01 -8.416705e-01 -8.237881e-01 -7.833583e-01 -7.582288e-01 -7.274061e-01 -6.931446e-01 -6.720935e-01 -6.268223e-01 -6.153932e-01 -5.596085e-01 -5.570582e-01 -4.925512e-01 -4.972747e-01 -4.280992e-01 -4.371945e-01 -3.673645e-01 -3.748812e-01 -3.091278e-01 -3.084743e-01 -2.537828e-01 -2.369663e-01 -2.055928e-01 -1.560526e-01 -1.782854e-01 1.948954e-02 0 0 0 0 
0 0 0 0 0 0 0 0 0 0 0 0 0 2.147517e+00 -6.357164e-01 2.137529e+00 -1.627228e+00 1.780570e+00 -2.049567e+00 7.942786e-01 -2.063977e+00 0 0 0 0 0 0 0 0 0 0 0 0 0 0 0 0 0 0 0 0 0 0 0 0 0 0 0 0 0 0 0 0 0 0 0 2.672394e-02 2.079244e+00 3.857598e+00 3.661044e+00 3.340449e+00 3.440826e+00 2.939965e+00 2.615423e+00 2.288749e+00 1.793975e+00 1.835184e+00 9.016351e-01 2.868442e-01 -3.509038e-01 -1.027024e+00 -1.011277e+00 -4.185217e-01 0 0 0 0 0 0 0 0 0 0 0 0 0 0 0 0 0 0 0 0 0 0 0 0 0 0 0 0 0 0 0 0 0 0 0 0 0 0 0 0 0 0 0 0 0 0 0 0 0 0 0 0 0 0 0 
0 0 0 0 0 0 0 0 0 0 0 0 0 1.043226e+00 -6.228125e-01 1.340964e+00 -1.207654e+00 1.299453e+00 -1.311022e+00 7.321076e-01 -1.015941e+00 0 0 0 0 0 0 0 0 0 0 0 0 0 0 0 0 0 0 0 0 0 0 0 0 0 0 0 0 0 0 0 0 0 0 0 8.897653e-02 9.481686e-01 1.335869e+00 2.604670e-01 -2.310140e-01 -2.006750e-02 -4.479155e-02 -4.512793e-01 -6.692588e-01 -1.000776e+00 -7.010882e-01 -1.067790e-01 -1.820234e-01 -1.964557e-01 -2.044118e-01 -2.693220e-01 -2.283015e-01 0 0 0 0 0 0 0 0 0 0 0 0 0 0 0 0 0 0 0 0 0 0 0 0 0 0 0 0 0 0 0 0 0 0 0 0 0 0 0 0 0 0 0 0 0 0 0 0 0 0 0 0 0 0 0 
0 0 0 0 0 0 0 0 0 0 0 0 0 7.954627e-04 1.752911e-03 -1.113101e-03 2.247037e-03 -1.460869e-03 6.148439e-05 1.088279e-03 -4.147770e-03 0 0 0 0 0 0 0 0 0 0 0 0 0 0 0 0 0 0 0 0 0 0 0 0 0 0 0 0 0 0 0 0 0 0 0 2.714661e-01 1.558852e+00 1.944445e+00 1.630601e+00 1.667550e+00 1.613385e+00 1.726897e+00 1.467229e+00 1.365810e+00 1.179777e+00 1.222086e+00 1.150450e+00 7.654865e-01 6.293605e-01 6.894866e-01 5.022565e-01 7.868351e-02 0 0 0 0 0 0 0 0 0 0 0 0 0 0 0 0 0 0 0 0 0 0 0 0 0 0 0 0 0 0 0 0 0 0 0 0 0 0 0 0 0 0 0 0 0 0 0 0 0 0 0 0 0 0 0 
0 0 0 0 0 0 0 0 0 0 0 0 0 -1.042027e+00 6.329019e-01 -1.352491e+00 1.226601e+00 -1.316507e+00 1.325012e+00 -7.376307e-01 1.009440e+00 0 0 0 0 0 0 0 0 0 0 0 0 0 0 0 0 0 0 0 0 0 0 0 0 0 0 0 0 0 0 0 0 0 0 0 2.738934e-01 1.459030e+00 1.734003e+00 1.431783e+00 1.713029e+00 1.953251e+00 2.197596e+00 1.955215e+00 1.835664e+00 1.650062e+00 2.282481e+00 2.420404e+00 2.237622e+00 2.143029e+00 1.719331e+00 9.958852e-01 1.504028e-02 0 0 0 0 0 0 0 0 0 0 0 0 0 0 0 0 0 0 0 0 0 0 0 0 0 0 0 0 0 0 0 0 0 0 0 0 0 0 0 0 0 0 0 0 0 0 0 0 0 0 0 0 0 0 0 
0 0 0 0 0 0 0 0 0 0 0 0 0 -2.145634e+00 6.438187e-01 -2.146633e+00 1.642440e+00 -1.795077e+00 2.059437e+00 -7.998072e-01 2.053353e+00 0 0 0 0 0 0 0 0 0 0 0 0 0 0 0 0 0 0 0 0 0 0 0 0 0 0 0 0 0 0 0 0 0 0 0 7.869717e-02 4.089478e-01 4.690506e-01 3.375995e-01 4.276342e-01 5.385235e-01 6.694620e-01 6.526623e-01 6.626929e-01 6.292756e-01 8.649888e-01 9.331096e-01 9.081279e-01 9.420481e-01 9.135495e-01 5.786502e-01 2.661341e-02 0 0 0 0 0 0 0 0 0 0 0 0 0 0 0 0 0 0 0 0 0 0 0 0 0 0 0 0 0 0 0 0 0 0 0 0 0 0 0 0 0 0 0 0 0 0 0 0 0 0 0 0 0 0 0 
0 0 0 0 0 -1.016658e-01 -1.802925e-01 -1.389637e-01 -2.450314e-01 -1.890746e-01 -3.023040e-01 -2.340391e-01 -3.489973e-01 -3.694581e+00 4.297502e+00 -4.702326e+00 6.895452e+00 -4.371509e+00 7.940920e+00 -2.089556e+00 5.913979e+00 3.299915e+00 3.238782e+00 3.251111e+00 3.194403e+00 3.193739e+00 3.142867e+00 3.132065e+00 3.088599e+00 3.070413e+00 3.034906e+00 3.010611e+00 2.980704e+00 2.950065e+00 2.923219e+00 2.887894e+00 2.863193e+00 2.825755e+00 2.802608e+00 2.765442e+00 2.742780e+00 2.706291e+00 2.681658e+00 2.645460e+00 2.618113e+00 2.583054e+00 2.553478e+00 2.519858e+00 2.488561e+00 2.455923e+00 2.422849e+00 2.389603e+00 2.354709e+00 2.320255e+00 2.284503e+00 2.248278e+00 2.211393e+00 2.172579e+00 2.134759e+00 2.095802e+00 2.057916e+00 2.019605e+00 1.983370e+00 1.948773e+00 1.914774e+00 1.883091e+00 1.848698e+00 1.818132e+00 1.783131e+00 1.754454e+00 1.719364e+00 1.694330e+00 1.660856e+00 1.639144e+00 1.605095e+00 1.584415e+00 1.548843e+00 1.527094e+00 1.490223e+00 1.466002e+00 1.429436e+00 1.402994e+00 1.369517e+00 1.340621e+00 1.311005e+00 1.278291e+00 1.253003e+00 1.216025e+00 1.194951e+00 1.153190e+00 1.135690e+00 1.089908e+00 1.075202e+00 1.026449e+00 1.013059e+00 9.636964e-01 9.507258e-01 9.034856e-01 8.884842e-01 8.451480e-01 8.252967e-01 7.876934e-01 7.600497e-01 7.295396e-01 6.926222e-01 6.716372e-01 6.255838e-01 6.147347e-01 5.593578e-01 5.576044e-01 4.944231e-01 4.994028e-01 4.306577e-01 4.383366e-01 3.684465e-01 3.745463e-01 3.092951e-01 3.075259e-01 2.539123e-01 2.367291e-01 2.066604e-01 1.563631e-01 1.785481e-01 -1.933101e-02 0 0 0 0 
0 0 0 0 0 -2.285706e+00 -4.067765e+00 -3.145883e+00 -5.514260e+00 -4.251736e+00 -6.798299e+00 -5.269812e+00 -7.857177e+00 -9.295698e+00 1.272642e+01 1.204196e+01 3.363800e+01 3.281633e+01 5.478172e+01 5.346019e+01 7.587963e+01 7.397232e+01 7.260453e+01 7.288067e+01 7.161190e+01 7.159724e+01 7.045876e+01 7.021701e+01 6.924406e+01 6.883697e+01 6.804208e+01 6.749822e+01 6.682868e+01 6.614284e+01 6.554182e+01 6.475107e+01 6.419809e+01 6.335997e+01 6.284174e+01 6.200964e+01 6.150222e+01 6.068519e+01 6.013360e+01 5.932302e+01 5.871061e+01 5.792546e+01 5.726310e+01 5.651013e+01 5.580917e+01 5.507814e+01 5.433736e+01 5.359266e+01 5.281105e+01 5.203925e+01 5.123836e+01 5.042681e+01 4.960049e+01 4.873088e+01 4.788353e+01 4.701065e+01 4.616175e+01 4.530328e+01 4.449132e+01 4.371601e+01 4.295411e+01 4.224404e+01 4.147326e+01 4.078819e+01 4.000374e+01 3.936097e+01 3.857444e+01 3.801328e+01 3.726293e+01 3.677620e+01 3.601289e+01 3.554925e+01 3.475171e+01 3.426407e+01 3.343733e+01 3.289424e+01 3.207427e+01 3.148137e+01 3.073061e+01 3.008270e+01 2.941853e+01 2.868501e+01 2.811793e+01 2.728876e+01 2.681618e+01 2.587969e+01 2.548722e+01 2.446040e+01 2.413052e+01 2.303683e+01 2.273635e+01 2.162874e+01 2.133753e+01 2.027734e+01 1.994050e+01 1.896780e+01 1.852222e+01 1.767820e+01 1.705796e+01 1.637329e+01 1.554519e+01 1.507450e+01 1.404156e+01 1.379847e+01 1.255622e+01 1.251717e+01 1.109938e+01 1.121106e+01 9.667669e+00 9.839311e+00 8.269284e+00 8.404650e+00 6.937422e+00 6.894068e+00 5.682919e+00 5.279135e+00 4.555669e+00 3.426268e+00 3.983549e+00 -4.342627e-01 0 0 0 0 
0 0 0 0 0 -3.309616e+00 -5.893607e+00 -4.560606e+00 -7.985795e+00 -6.156572e+00 -9.844124e+00 -7.632525e+00 -1.137965e+01 -6.548215e+00 1.317179e+01 2.586805e+01 4.071055e+01 5.623980e+01 7.068409e+01 8.370707e+01 1.043746e+02 1.070538e+02 1.050750e+02 1.054746e+02 1.036390e+02 1.036179e+02 1.019707e+02 1.016210e+02 1.002132e+02 9.962424e+01 9.847414e+01 9.768724e+01 9.671849e+01 9.572618e+01 9.485658e+01 9.371248e+01 9.291237e+01 9.169972e+01 9.094989e+01 8.974592e+01 8.901172e+01 8.782955e+01 8.703143e+01 8.585855e+01 8.497243e+01 8.383633e+01 8.287792e+01 8.178837e+01 8.077409e+01 7.971629e+01 7.864438e+01 7.756678e+01 7.643577e+01 7.531894e+01 7.416003e+01 7.298567e+01 7.178993e+01 7.053153e+01 6.930534e+01 6.804220e+01 6.681376e+01 6.557144e+01 6.439645e+01 6.327446e+01 6.217188e+01 6.114431e+01 6.002886e+01 5.903745e+01 5.790221e+01 5.697200e+01 5.583375e+01 5.502164e+01 5.393572e+01 5.323131e+01 5.212661e+01 5.145562e+01 5.030138e+01 4.959562e+01 4.839910e+01 4.761309e+01 4.642634e+01 4.556826e+01 4.448167e+01 4.354396e+01 4.258269e+01 4.152107e+01 4.070033e+01 3.950029e+01 3.881630e+01 3.746091e+01 3.689288e+01 3.540672e+01 3.492925e+01 3.334623e+01 3.291128e+01 3.130807e+01 3.088651e+01 2.935187e+01 2.886426e+01 2.745623e+01 2.681123e+01 2.558947e+01 2.469171e+01 2.370065e+01 2.250209e+01 2.182082e+01 2.032577e+01 1.997400e+01 1.817598e+01 1.811953e+01 1.606729e+01 1.622893e+01 1.399472e+01 1.424299e+01 1.196998e+01 1.216554e+01 1.004099e+01 9.977308e+00 8.222144e+00 7.633051e+00 6.573468e+00 4.938498e+00 5.760255e+00 -6.287081e-01 0 0 0 0 
0 0 0 0 0 -1.125576e+00 -2.006134e+00 -1.553686e+00 -2.716566e+00 -2.093911e+00 -3.348129e+00 -2.596752e+00 -3.871466e+00 -2.229023e+00 4.476616e+00 8.792852e+00 1.383823e+01 1.911581e+01 2.402464e+01 2.844935e+01 3.547098e+01 3.638143e+01 3.570927e+01 3.584503e+01 3.522153e+01 3.521436e+01 3.465483e+01 3.453601e+01 3.405779e+01 3.385768e+01 3.346696e+01 3.319963e+01 3.287052e+01 3.253341e+01 3.223798e+01 3.184930e+01 3.157748e+01 3.116550e+01 3.091076e+01 3.050172e+01 3.025229e+01 2.985065e+01 2.957949e+01 2.918099e+01 2.887993e+01 2.849393e+01 2.816830e+01 2.779810e+01 2.745348e+01 2.709407e+01 2.672987e+01 2.636372e+01 2.597943e+01 2.559995e+01 2.520617e+01 2.480713e+01 2.440083e+01 2.397323e+01 2.355657e+01 2.312735e+01 2.270992e+01 2.228777e+01 2.188849e+01 2.150722e+01 2.113255e+01 2.078335e+01 2.040430e+01 2.006739e+01 1.968161e+01 1.936549e+01 1.897867e+01 1.870269e+01 1.833364e+01 1.809425e+01 1.771882e+01 1.749078e+01 1.709851e+01 1.685865e+01 1.645199e+01 1.618485e+01 1.578151e+01 1.548988e+01 1.512057e+01 1.480187e+01 1.447516e+01 1.411435e+01 1.383540e+01 1.342755e+01 1.319508e+01 1.273441e+01 1.254135e+01 1.203622e+01 1.187393e+01 1.133585e+01 1.118800e+01 1.064303e+01 1.049970e+01 9.978018e+00 9.812238e+00 9.333577e+00 9.114303e+00 8.698967e+00 8.393798e+00 8.056904e+00 7.649514e+00 7.417956e+00 6.909803e+00 6.790268e+00 6.179114e+00 6.159961e+00 5.462341e+00 5.517279e+00 4.757707e+00 4.842021e+00 4.069143e+00 4.135432e+00 3.412862e+00 3.390765e+00 2.793137e+00 2.590646e+00 2.224460e+00 1.668593e+00 1.955255e+00 -2.137763e-01 0 0 0 0 
0 0 0 0 0 0 0 0 0 0 0 0 0 0 0 0 0 0 0 0 0 0 0 0 0 0 0 0 0 0 0 0 0 0 0 0 0 0 0 0 0 0 0 0 0 0 0 0 0 0 0 0 0 0 0 0 0 0 0 0 0 0 0 0 0 0 0 0 0 0 0 0 0 0 0 0 0 0 0 0 0 0 0 0 0 0 0 0 0 0 0 0 0 0 0 0 0 0 0 0 0 0 0 0 0 0 0 0 0 0 0 0 0 0 0 0 0 0 0 0 0 0 0 0 0 0 0 0 
