# vtk DataFile Version 2.0
Comment goes here
ASCII

DATASET STRUCTURED_POINTS
FIELD FieldData 1
TIME 1 1 double
0.22000000
DIMENSIONS    128   16   1

ORIGIN    0.000   0.000   0.000
SPACING   0.0078125 0.015625   1.000

POINT_DATA   2048
SCALARS fY double
LOOKUP_TABLE default

0 0 0 0 0 0 0 0 0 0 0 0 0 0 0 0 0 0 0 0 0 0 0 0 0 0 0 0 0 0 0 0 0 0 0 0 0 0 0 0 0 0 0 0 0 0 0 0 0 0 0 0 0 0 0 0 0 0 0 0 0 0 0 0 0 0 0 0 0 0 0 0 0 0 0 0 0 0 0 0 0 0 0 0 0 0 0 0 0 0 0 0 0 0 0 0 0 0 0 0 0 0 0 0 0 0 0 0 0 0 0 0 0 0 0 0 0 0 0 0 0 0 0 0 0 0 0 0 
0 0 0 0 0 0 0 0 0 0 0 0 0 0 0 0 0 0 0 0 0 0 0 0 0 0 0 0 0 0 0 0 0 0 0 0 0 0 0 0 0 0 0 0 0 0 0 0 0 0 0 0 0 0 0 0 0 0 0 0 0 0 0 0 0 0 0 0 0 0 0 0 0 0 0 0 0 0 0 0 0 0 0 0 0 0 0 0 0 0 0 0 0 0 0 0 0 0 0 0 0 0 0 0 0 0 0 0 0 0 0 0 0 0 0 0 0 0 0 0 0 0 0 0 0 0 0 0 
0 0 0 0 0 -1.038717e+00 -8.779307e-01 -7.531456e-01 -1.308668e+00 -1.046604e+00 -1.734138e+00 -1.245675e+00 -1.860225e+00 -1.106340e+00 1.875757e+00 4.343977e+00 5.817602e+00 8.085569e+00 1.032176e+01 1.155743e+01 1.563849e+01 1.580477e+01 1.537616e+01 1.544624e+01 1.516466e+01 1.546881e+01 1.514008e+01 1.515016e+01 1.456509e+01 1.444492e+01 1.385455e+01 1.380497e+01 1.352861e+01 1.373855e+01 1.375196e+01 1.394978e+01 1.379574e+01 1.350062e+01 1.309506e+01 1.281071e+01 1.279136e+01 1.277272e+01 1.284623e+01 1.254261e+01 1.221794e+01 1.157537e+01 1.144916e+01 1.143426e+01 1.178172e+01 1.182735e+01 1.203845e+01 1.192124e+01 1.193195e+01 1.167165e+01 1.140973e+01 1.093141e+01 1.086685e+01 1.196691e+01 1.160156e+01 9.382604e+00 1.160225e+01 1.566748e+01 1.455705e+01 1.235155e+01 9.784567e+00 8.523235e+00 1.317435e+01 1.423056e+01 1.133325e+01 9.680703e+00 7.086909e+00 7.658544e+00 8.681850e+00 8.396549e+00 7.601519e+00 7.241766e+00 7.098074e+00 7.187659e+00 7.025361e+00 6.743402e+00 6.566788e+00 6.590406e+00 6.997404e+00 7.042706e+00 6.972854e+00 6.429497e+00 6.233302e+00 5.859950e+00 5.894099e+00 5.469239e+00 5.247736e+00 4.797388e+00 4.867131e+00 5.021020e+00 5.369759e+00 5.336155e+00 4.927796e+00 4.421216e+00 3.799698e+00 3.806611e+00 3.812114e+00 4.162248e+00 3.754004e+00 3.745615e+00 3.048834e+00 3.178689e+00 2.833664e+00 3.162785e+00 2.821941e+00 3.106795e+00 2.679497e+00 2.682487e+00 2.218733e+00 2.136278e+00 2.211222e+00 2.388892e+00 2.370516e+00 1.676114e+00 1.159622e+00 1.764470e-01 4.908005e-01 1.708834e-01 1.161178e+00 4.783460e-01 0 0 0 0 
0 0 0 0 0 -3.056057e+00 -2.591058e+00 -2.228487e+00 -3.855648e+00 -3.079841e+00 -5.101132e+00 -3.664227e+00 -5.471991e+00 -3.254708e+00 5.516589e+00 1.277570e+01 1.710954e+01 2.377881e+01 3.035492e+01 3.398812e+01 4.598726e+01 4.647615e+01 4.521597e+01 4.542207e+01 4.459435e+01 4.548884e+01 4.452251e+01 4.455228e+01 4.283217e+01 4.247892e+01 4.074312e+01 4.059734e+01 3.978473e+01 4.040199e+01 4.044136e+01 4.102299e+01 4.057003e+01 3.970228e+01 3.850975e+01 3.767370e+01 3.761681e+01 3.756202e+01 3.777821e+01 3.688550e+01 3.593084e+01 3.404147e+01 3.367038e+01 3.362657e+01 3.464824e+01 3.478240e+01 3.540312e+01 3.505845e+01 3.508990e+01 3.432448e+01 3.355430e+01 3.214777e+01 3.165395e+01 3.340712e+01 3.408052e+01 3.311872e+01 3.463749e+01 3.642775e+01 3.495842e+01 3.313675e+01 3.104653e+01 2.946560e+01 3.074810e+01 2.960235e+01 2.664306e+01 2.614203e+01 2.537596e+01 2.654842e+01 2.584079e+01 2.469394e+01 2.235596e+01 2.129802e+01 2.087544e+01 2.113886e+01 2.066157e+01 1.983240e+01 1.931302e+01 1.938248e+01 2.057942e+01 2.071267e+01 2.050725e+01 1.890936e+01 1.833239e+01 1.723439e+01 1.733478e+01 1.608525e+01 1.543378e+01 1.410925e+01 1.431429e+01 1.476683e+01 1.579235e+01 1.569351e+01 1.449262e+01 1.300279e+01 1.117505e+01 1.119547e+01 1.121172e+01 1.224154e+01 1.104095e+01 1.101627e+01 8.966939e+00 9.348726e+00 8.333777e+00 9.301445e+00 8.298647e+00 9.136006e+00 7.878856e+00 7.887312e+00 6.522996e+00 6.280360e+00 6.500779e+00 7.023345e+00 6.969530e+00 4.927794e+00 3.408991e+00 5.172438e-01 1.436961e+00 4.918835e-01 3.409870e+00 1.406621e+00 0 0 0 0 
0 0 0 0 0 -2.111484e+00 -1.794111e+00 -1.545816e+00 -2.666529e+00 -2.128197e+00 -3.523998e+00 -2.531324e+00 -3.780179e+00 -3.651839e+00 5.150372e+00 5.006874e+00 1.407658e+01 1.426825e+01 2.312641e+01 2.376512e+01 3.243403e+01 3.209967e+01 3.122939e+01 3.137175e+01 3.080021e+01 3.141805e+01 3.075081e+01 3.077143e+01 2.958359e+01 2.933967e+01 2.814093e+01 2.804025e+01 2.747904e+01 2.790531e+01 2.793249e+01 2.833414e+01 2.802130e+01 2.742202e+01 2.659842e+01 2.602104e+01 2.598176e+01 2.594393e+01 2.609326e+01 2.547675e+01 2.481744e+01 2.351260e+01 2.325632e+01 2.322607e+01 2.393167e+01 2.402432e+01 2.445299e+01 2.421494e+01 2.423665e+01 2.370801e+01 2.317608e+01 2.220465e+01 2.108931e+01 1.810677e+01 1.886520e+01 2.267975e+01 2.004629e+01 1.428203e+01 1.417864e+01 1.633777e+01 1.834875e+01 1.922405e+01 1.163046e+01 8.546077e+00 1.082818e+01 1.366777e+01 1.763523e+01 1.880528e+01 1.777079e+01 1.705666e+01 1.544185e+01 1.471115e+01 1.441926e+01 1.460120e+01 1.427153e+01 1.369883e+01 1.334010e+01 1.338808e+01 1.421482e+01 1.430687e+01 1.416499e+01 1.306134e+01 1.266283e+01 1.190442e+01 1.197374e+01 1.111065e+01 1.066065e+01 9.745725e+00 9.887318e+00 1.019988e+01 1.090818e+01 1.083990e+01 1.001046e+01 8.981402e+00 7.718994e+00 7.733148e+00 7.744399e+00 8.455756e+00 7.626511e+00 7.609455e+00 6.193876e+00 6.457531e+00 5.756364e+00 6.424627e+00 5.731782e+00 6.309979e+00 5.441404e+00 5.447079e+00 4.504506e+00 4.336845e+00 4.489098e+00 4.850069e+00 4.813008e+00 3.402966e+00 2.353982e+00 3.564576e-01 9.894080e-01 3.345793e-01 2.352797e+00 9.714996e-01 0 0 0 0 
0 0 0 0 0 -9.414319e-02 -8.098345e-02 -7.047418e-02 -1.195490e-01 -9.495957e-02 -1.570042e-01 -1.127723e-01 -1.684133e-01 -1.070610e+00 1.852751e+00 -3.754602e+00 3.019325e+00 -1.761413e+00 3.381202e+00 1.259758e+00 1.962052e+00 1.428280e+00 1.389579e+00 1.395917e+00 1.370524e+00 1.398025e+00 1.368380e+00 1.369314e+00 1.316508e+00 1.305668e+00 1.252362e+00 1.247886e+00 1.222923e+00 1.241877e+00 1.243081e+00 1.260938e+00 1.247020e+00 1.220367e+00 1.183732e+00 1.158054e+00 1.156310e+00 1.154630e+00 1.161276e+00 1.133860e+00 1.104535e+00 1.046498e+00 1.035101e+00 1.033755e+00 1.065143e+00 1.069263e+00 1.088329e+00 1.077737e+00 1.078698e+00 1.055178e+00 1.031515e+00 9.882951e-01 2.789745e-01 -3.532082e+00 -3.919464e+00 -1.562201e+00 -3.454083e+00 -6.558265e+00 -6.184697e+00 -4.432403e+00 -3.004278e+00 -1.921708e+00 -5.736567e+00 -6.272721e+00 -3.955200e+00 -2.260068e+00 -8.732803e-02 2.689468e-01 6.264536e-01 7.592713e-01 6.874092e-01 6.548926e-01 6.419006e-01 6.499944e-01 6.353209e-01 6.098360e-01 5.938707e-01 5.960075e-01 6.328056e-01 6.369050e-01 6.305917e-01 5.814761e-01 5.637396e-01 5.299816e-01 5.330615e-01 4.946378e-01 4.746025e-01 4.338652e-01 4.401595e-01 4.540676e-01 4.855846e-01 4.825430e-01 4.456314e-01 3.998237e-01 3.436425e-01 3.442840e-01 3.447924e-01 3.764685e-01 3.395611e-01 3.388003e-01 2.757712e-01 2.874939e-01 2.562516e-01 2.859667e-01 2.550769e-01 2.807677e-01 2.420442e-01 2.422551e-01 2.002436e-01 1.927632e-01 1.995420e-01 2.156160e-01 2.139944e-01 1.512855e-01 1.046127e-01 1.566079e-02 4.324729e-02 1.357920e-02 1.041048e-01 4.322422e-02 0 0 0 0 
0 0 0 0 0 0 0 0 0 0 0 0 0 -1.114540e+00 3.357365e-01 -9.772171e-01 6.767769e-01 -6.382043e-01 7.792566e-01 -6.777031e-02 8.711583e-01 0 0 0 0 0 0 0 0 0 0 0 0 0 0 0 0 0 0 0 0 0 0 0 0 0 0 0 0 0 0 0 0 0 0 0 -1.411755e-01 -7.554444e-01 -8.071722e-01 -4.763242e-01 -6.129715e-01 -7.399600e-01 -5.455874e-01 -2.411224e-01 -5.980633e-02 -3.919129e-02 -2.923255e-01 -1.943037e-01 1.791883e-01 3.456966e-01 5.326568e-01 3.830028e-01 2.954667e-02 0 0 0 0 0 0 0 0 0 0 0 0 0 0 0 0 0 0 0 0 0 0 0 0 0 0 0 0 0 0 0 0 0 0 0 0 0 0 0 0 0 0 0 0 0 0 0 0 0 0 0 0 0 0 0 
0 0 0 0 0 0 0 0 0 0 0 0 0 -5.598609e-01 3.168772e-01 -7.156977e-01 5.373784e-01 -5.317842e-01 5.393907e-01 -1.226035e-01 4.036814e-01 0 0 0 0 0 0 0 0 0 0 0 0 0 0 0 0 0 0 0 0 0 0 0 0 0 0 0 0 0 0 0 0 0 0 0 -1.353688e-01 -6.579744e-01 -6.577989e-01 -1.832706e-01 -2.443794e-01 -5.429452e-01 -5.163871e-01 -2.794012e-01 -9.468820e-02 2.347893e-02 -3.979560e-01 -5.659670e-01 -2.521954e-01 -1.699328e-01 -1.503945e-01 -6.530025e-02 7.855970e-03 0 0 0 0 0 0 0 0 0 0 0 0 0 0 0 0 0 0 0 0 0 0 0 0 0 0 0 0 0 0 0 0 0 0 0 0 0 0 0 0 0 0 0 0 0 0 0 0 0 0 0 0 0 0 0 
0 0 0 0 0 0 0 0 0 0 0 0 0 3.501217e-02 1.775523e-02 1.609071e-02 5.230241e-03 3.664065e-03 -3.034621e-03 -6.117326e-03 -1.542659e-02 0 0 0 0 0 0 0 0 0 0 0 0 0 0 0 0 0 0 0 0 0 0 0 0 0 0 0 0 0 0 0 0 0 0 0 -1.048012e-01 -5.444864e-01 -6.215773e-01 -4.390418e-01 -5.101570e-01 -5.941907e-01 -6.565879e-01 -5.765207e-01 -5.245669e-01 -4.508316e-01 -6.114320e-01 -6.247377e-01 -5.082743e-01 -4.651051e-01 -4.090302e-01 -2.687358e-01 -1.722285e-02 0 0 0 0 0 0 0 0 0 0 0 0 0 0 0 0 0 0 0 0 0 0 0 0 0 0 0 0 0 0 0 0 0 0 0 0 0 0 0 0 0 0 0 0 0 0 0 0 0 0 0 0 0 0 0 
0 0 0 0 0 0 0 0 0 0 0 0 0 5.929255e-01 -3.197284e-01 7.208677e-01 -5.458233e-01 5.281458e-01 -5.416343e-01 1.087664e-01 -4.303495e-01 0 0 0 0 0 0 0 0 0 0 0 0 0 0 0 0 0 0 0 0 0 0 0 0 0 0 0 0 0 0 0 0 0 0 0 -1.626946e-01 -8.244049e-01 -8.709059e-01 -4.411847e-01 -6.989859e-01 -1.114322e+00 -1.139163e+00 -8.817899e-01 -6.641411e-01 -5.225806e-01 -1.057547e+00 -1.166872e+00 -8.578714e-01 -7.141069e-01 -5.157149e-01 -3.204624e-01 -1.869914e-02 0 0 0 0 0 0 0 0 0 0 0 0 0 0 0 0 0 0 0 0 0 0 0 0 0 0 0 0 0 0 0 0 0 0 0 0 0 0 0 0 0 0 0 0 0 0 0 0 0 0 0 0 0 0 0 
0 0 0 0 0 0 0 0 0 0 0 0 0 1.165274e+00 -3.405383e-01 9.827268e-01 -6.833579e-01 6.349489e-01 -7.708998e-01 4.943606e-02 -8.476744e-01 0 0 0 0 0 0 0 0 0 0 0 0 0 0 0 0 0 0 0 0 0 0 0 0 0 0 0 0 0 0 0 0 0 0 0 -7.532444e-02 -3.810919e-01 -4.056644e-01 -2.149292e-01 -2.853713e-01 -4.031370e-01 -4.153422e-01 -3.285177e-01 -2.655179e-01 -2.124691e-01 -3.450217e-01 -3.608081e-01 -2.545406e-01 -2.311444e-01 -2.232370e-01 -1.464853e-01 -8.562869e-03 0 0 0 0 0 0 0 0 0 0 0 0 0 0 0 0 0 0 0 0 0 0 0 0 0 0 0 0 0 0 0 0 0 0 0 0 0 0 0 0 0 0 0 0 0 0 0 0 0 0 0 0 0 0 0 
0 0 0 0 0 9.344106e-02 7.347442e-02 5.370423e-02 9.487098e-02 6.601376e-02 1.400227e-01 1.145706e-01 1.822472e-01 8.771623e-01 -1.926555e+00 3.686922e+00 -3.075117e+00 1.762340e+00 -3.266266e+00 -1.264203e+00 -1.784697e+00 -1.413325e+00 -1.402211e+00 -1.418444e+00 -1.376231e+00 -1.359574e+00 -1.301080e+00 -1.308101e+00 -1.291105e+00 -1.331307e+00 -1.322364e+00 -1.326324e+00 -1.269415e+00 -1.243711e+00 -1.214965e+00 -1.245697e+00 -1.275833e+00 -1.295226e+00 -1.258641e+00 -1.194018e+00 -1.139704e+00 -1.114210e+00 -1.134917e+00 -1.152866e+00 -1.170922e+00 -1.148978e+00 -1.131977e+00 -1.089027e+00 -1.079395e+00 -1.067955e+00 -1.083612e+00 -1.072407e+00 -1.063197e+00 -1.024292e+00 -9.956041e-01 -9.642255e-01 -9.457016e-01 -9.230204e-01 -9.039691e-01 -8.882608e-01 -8.671369e-01 -8.516261e-01 -8.227958e-01 -8.131404e-01 -8.087516e-01 -8.376997e-01 -8.459644e-01 -8.543287e-01 -8.203903e-01 -7.913469e-01 -7.482538e-01 -7.384127e-01 -7.245181e-01 -7.230520e-01 -6.983458e-01 -6.704292e-01 -6.396658e-01 -6.341400e-01 -6.530010e-01 -6.687866e-01 -6.766724e-01 -6.459085e-01 -6.164143e-01 -5.650272e-01 -5.482103e-01 -5.186407e-01 -5.315294e-01 -5.221701e-01 -5.371080e-01 -5.011807e-01 -4.730908e-01 -4.221469e-01 -4.241743e-01 -4.336336e-01 -4.524388e-01 -4.409410e-01 -4.034633e-01 -3.679348e-01 -3.470813e-01 -3.799580e-01 -3.849565e-01 -4.179244e-01 -3.864543e-01 -3.819178e-01 -3.113764e-01 -3.065469e-01 -2.548134e-01 -2.858093e-01 -2.524024e-01 -2.596897e-01 -2.025811e-01 -1.958518e-01 -1.657168e-01 -1.773554e-01 -1.610253e-01 -1.300943e-01 -1.131582e-01 -9.060598e-02 -1.366225e-01 -1.355066e-01 -1.817317e-01 -1.013533e-01 -1.319685e-01 -4.506749e-02 0 0 0 0 
0 0 0 0 0 2.095744e+00 1.625399e+00 1.169089e+00 2.112303e+00 1.478173e+00 3.142711e+00 2.571720e+00 4.090713e+00 3.742224e+00 -5.112200e+00 -5.052478e+00 -1.414951e+01 -1.428671e+01 -2.311268e+01 -2.365538e+01 -3.219716e+01 -3.176329e+01 -3.151362e+01 -3.187853e+01 -3.092867e+01 -3.055370e+01 -2.923770e+01 -2.939509e+01 -2.901256e+01 -2.991626e+01 -2.971500e+01 -2.980400e+01 -2.852440e+01 -2.794646e+01 -2.730027e+01 -2.799140e+01 -2.866905e+01 -2.910523e+01 -2.828276e+01 -2.682961e+01 -2.560854e+01 -2.503530e+01 -2.550069e+01 -2.590418e+01 -2.631003e+01 -2.581655e+01 -2.543428e+01 -2.446862e+01 -2.425206e+01 -2.399486e+01 -2.434687e+01 -2.409499e+01 -2.388800e+01 -2.301350e+01 -2.236863e+01 -2.166336e+01 -2.124699e+01 -2.073722e+01 -2.030899e+01 -1.995592e+01 -1.948108e+01 -1.913245e+01 -1.848440e+01 -1.826736e+01 -1.816869e+01 -1.881924e+01 -1.900496e+01 -1.919296e+01 -1.843021e+01 -1.777750e+01 -1.680912e+01 -1.658800e+01 -1.627582e+01 -1.624295e+01 -1.568784e+01 -1.506050e+01 -1.436931e+01 -1.424514e+01 -1.466889e+01 -1.502360e+01 -1.520073e+01 -1.450932e+01 -1.384654e+01 -1.269180e+01 -1.231391e+01 -1.164953e+01 -1.193914e+01 -1.172894e+01 -1.206471e+01 -1.125771e+01 -1.062675e+01 -9.482569e+00 -9.528302e+00 -9.740907e+00 -1.016355e+01 -9.905320e+00 -9.063204e+00 -8.265093e+00 -7.796432e+00 -8.534630e+00 -8.646689e+00 -9.387071e+00 -8.679922e+00 -8.578035e+00 -6.993607e+00 -6.885437e+00 -5.724071e+00 -6.421142e+00 -5.671734e+00 -5.836436e+00 -4.555051e+00 -4.404791e+00 -3.728951e+00 -3.991054e+00 -3.624582e+00 -2.929364e+00 -2.548407e+00 -2.040657e+00 -3.072468e+00 -3.047845e+00 -4.099906e+00 -2.305823e+00 -2.978586e+00 -1.012968e+00 0 0 0 0 
0 0 0 0 0 3.033279e+00 2.346797e+00 1.683077e+00 3.053302e+00 2.138821e+00 4.549170e+00 3.722711e+00 5.921509e+00 3.842240e+00 -4.992121e+00 -1.263663e+01 -1.711567e+01 -2.381144e+01 -3.032796e+01 -3.347474e+01 -4.518436e+01 -4.598906e+01 -4.562760e+01 -4.615596e+01 -4.478039e+01 -4.423733e+01 -4.233157e+01 -4.255935e+01 -4.200535e+01 -4.331384e+01 -4.302237e+01 -4.315125e+01 -4.129838e+01 -4.046155e+01 -3.952591e+01 -4.052670e+01 -4.150793e+01 -4.213955e+01 -4.094866e+01 -3.884449e+01 -3.707644e+01 -3.624638e+01 -3.692021e+01 -3.750444e+01 -3.809206e+01 -3.737750e+01 -3.682398e+01 -3.542573e+01 -3.511214e+01 -3.473974e+01 -3.524943e+01 -3.488473e+01 -3.458504e+01 -3.331884e+01 -3.238511e+01 -3.136396e+01 -3.076110e+01 -3.002302e+01 -2.940297e+01 -2.889177e+01 -2.820424e+01 -2.769945e+01 -2.676113e+01 -2.644687e+01 -2.630400e+01 -2.724590e+01 -2.751481e+01 -2.778701e+01 -2.668264e+01 -2.573760e+01 -2.433554e+01 -2.401541e+01 -2.356344e+01 -2.351586e+01 -2.271217e+01 -2.180389e+01 -2.080318e+01 -2.062340e+01 -2.123690e+01 -2.175045e+01 -2.200690e+01 -2.100581e+01 -2.004623e+01 -1.837435e+01 -1.782722e+01 -1.686534e+01 -1.728464e+01 -1.698033e+01 -1.746650e+01 -1.629818e+01 -1.538471e+01 -1.372828e+01 -1.379454e+01 -1.410237e+01 -1.471431e+01 -1.434046e+01 -1.312123e+01 -1.196577e+01 -1.128721e+01 -1.235585e+01 -1.251803e+01 -1.358986e+01 -1.256603e+01 -1.241853e+01 -1.012473e+01 -9.968202e+00 -8.287029e+00 -9.296412e+00 -8.211720e+00 -8.450422e+00 -6.595674e+00 -6.378364e+00 -5.400198e+00 -5.779824e+00 -5.249355e+00 -4.242754e+00 -3.691093e+00 -2.955709e+00 -4.449033e+00 -4.413498e+00 -5.940089e+00 -3.345628e+00 -4.315822e+00 -1.466672e+00 0 0 0 0 
0 0 0 0 0 1.030976e+00 7.948729e-01 5.676929e-01 1.035870e+00 7.266623e-01 1.546482e+00 1.265561e+00 2.013043e+00 1.306085e+00 -1.697443e+00 -4.296708e+00 -5.819702e+00 -8.096685e+00 -1.031260e+01 -1.138284e+01 -1.536540e+01 -1.563909e+01 -1.551619e+01 -1.569587e+01 -1.522795e+01 -1.504320e+01 -1.439495e+01 -1.447236e+01 -1.428390e+01 -1.472889e+01 -1.462974e+01 -1.467357e+01 -1.404340e+01 -1.375879e+01 -1.344060e+01 -1.378099e+01 -1.411471e+01 -1.432954e+01 -1.392454e+01 -1.320889e+01 -1.260760e+01 -1.232529e+01 -1.255444e+01 -1.275312e+01 -1.295296e+01 -1.270993e+01 -1.252167e+01 -1.204613e+01 -1.193948e+01 -1.181283e+01 -1.198617e+01 -1.186215e+01 -1.176023e+01 -1.132963e+01 -1.101209e+01 -1.066483e+01 -1.045981e+01 -1.020881e+01 -9.997949e+00 -9.824105e+00 -9.590292e+00 -9.418627e+00 -9.099529e+00 -8.992656e+00 -8.944067e+00 -9.264366e+00 -9.355808e+00 -9.448376e+00 -9.072822e+00 -8.751451e+00 -8.274679e+00 -8.165821e+00 -8.012136e+00 -7.995963e+00 -7.722677e+00 -7.413814e+00 -7.073534e+00 -7.012401e+00 -7.221011e+00 -7.395644e+00 -7.482840e+00 -7.142407e+00 -6.816100e+00 -6.247578e+00 -6.061525e+00 -5.734448e+00 -5.877029e+00 -5.773562e+00 -5.938898e+00 -5.541651e+00 -5.231058e+00 -4.667861e+00 -4.690414e+00 -4.795096e+00 -5.003194e+00 -4.876086e+00 -4.461493e+00 -4.068608e+00 -3.837857e+00 -4.201177e+00 -4.256293e+00 -4.620716e+00 -4.272565e+00 -4.222414e+00 -3.442495e+00 -3.389312e+00 -2.817771e+00 -3.161080e+00 -2.792388e+00 -2.873675e+00 -2.243204e+00 -2.169425e+00 -1.836963e+00 -1.966125e+00 -1.785799e+00 -1.443485e+00 -1.255845e+00 -1.005658e+00 -1.513188e+00 -1.501160e+00 -2.021915e+00 -1.141158e+00 -1.469205e+00 -4.987722e-01 0 0 0 0 
0 0 0 0 0 0 0 0 0 0 0 0 0 0 0 0 0 0 0 0 0 0 0 0 0 0 0 0 0 0 0 0 0 0 0 0 0 0 0 0 0 0 0 0 0 0 0 0 0 0 0 0 0 0 0 0 0 0 0 0 0 0 0 0 0 0 0 0 0 0 0 0 0 0 0 0 0 0 0 0 0 0 0 0 0 0 0 0 0 0 0 0 0 0 0 0 0 0 0 0 0 0 0 0 0 0 0 0 0 0 0 0 0 0 0 0 0 0 0 0 0 0 0 0 0 0 0 0 
