# vtk DataFile Version 2.0
Comment goes here
ASCII

DATASET STRUCTURED_POINTS
FIELD FieldData 1
TIME 1 1 double
0.98000000
DIMENSIONS    128   16   1

ORIGIN    0.000   0.000   0.000
SPACING   0.0078125 0.015625   1.000

POINT_DATA   2048
SCALARS Omega double
LOOKUP_TABLE default

-1.055781e-05 -9.898942e-06 -5.014289e-06 2.366349e-06 -2.482468e-05 -1.449138e-04 -4.312504e-05 3.075375e-06 -8.074364e-05 -1.245707e-05 -1.255256e-05 6.958826e-05 -8.759682e-05 8.520165e-05 -2.581671e-04 2.056605e-04 -2.066700e-04 4.408224e-06 2.047239e-05 -2.467572e-04 4.423483e-04 5.257293e-04 -1.176109e-04 -1.213366e-04 -1.536080e-04 -1.348925e-04 -1.640849e-04 -2.049166e-04 -2.101305e-04 -2.786929e-04 -2.831416e-04 -3.723185e-04 -3.968238e-04 -5.042245e-04 -5.658279e-04 -6.947703e-04 -8.040873e-04 -9.621592e-04 -1.119996e-03 -1.312788e-03 -1.506154e-03 -1.729176e-03 -1.924576e-03 -2.160842e-03 -2.307394e-03 -2.549736e-03 -2.635066e-03 -2.997664e-03 -3.256616e-03 -4.311112e-03 -5.687375e-03 -8.857963e-03 -1.337868e-02 -2.377408e-02 -4.608070e-02 -7.884448e-02 -6.851870e-02 -6.599640e-02 -1.154212e-01 -1.223603e-01 -5.845299e-02 -4.818561e-02 -8.443383e-02 -9.693416e-02 -1.418048e-01 -1.518343e-01 -1.040681e-01 -4.276245e-02 4.326487e-02 1.490600e-01 2.342328e-01 2.383527e-01 1.910832e-01 1.651309e-01 1.295267e-01 7.415588e-02 4.031524e-02 2.282624e-02 1.280130e-02 6.763407e-03 2.847000e-03 8.549186e-04 -5.993660e-04 -9.417445e-04 -1.477201e-03 -1.208144e-03 -1.430064e-03 -9.816810e-04 -1.117568e-03 -6.724173e-04 -7.954885e-04 -4.223766e-04 -5.430496e-04 -2.570539e-04 -3.665471e-04 -1.592881e-04 -2.479161e-04 -1.048207e-04 -1.662891e-04 -7.395511e-05 -1.066899e-04 -5.404583e-05 -6.038108e-05 -3.929295e-05 -2.376405e-05 -2.853069e-05 3.439398e-06 -2.274246e-05 2.038322e-05 -2.307526e-05 2.680766e-05 -2.966694e-05 2.458406e-05 -4.039496e-05 1.824656e-05 -5.083162e-05 1.404369e-05 -5.456704e-05 2.272793e-05 -3.157556e-05 8.726422e-05 2.197008e-05 1.332299e-04 -2.739757e-05 -8.756931e-05 -4.490245e-05 -1.904976e-05 -1.365071e-05 
-4.082154e-03 -6.873946e-03 -9.580378e-03 2.794126e-02 1.163320e-01 -6.806536e-01 -1.160084e+00 -4.870931e-01 -5.744144e-01 -4.700931e-01 -5.348784e-01 -2.809463e-01 6.254138e-01 2.273587e+00 3.058736e+00 2.789440e+00 2.810472e+00 2.904752e+00 2.723743e+00 3.008123e+00 2.452022e+00 4.336513e-01 -3.164192e-01 -5.082319e-01 -4.682175e-01 -5.008993e-01 -4.690645e-01 -5.042565e-01 -4.776613e-01 -5.055094e-01 -4.840164e-01 -5.044575e-01 -4.889068e-01 -5.022484e-01 -4.925332e-01 -4.996241e-01 -4.949177e-01 -4.970010e-01 -4.960767e-01 -4.944949e-01 -4.959357e-01 -4.920302e-01 -4.942270e-01 -4.892195e-01 -4.905160e-01 -4.852182e-01 -4.840304e-01 -4.787142e-01 -4.736042e-01 -4.681627e-01 -4.579912e-01 -4.526257e-01 -4.408202e-01 -4.584344e-01 -4.889342e-01 -3.548637e-01 7.908267e-01 1.286559e+00 -8.883405e-02 -6.302081e-01 6.371308e-01 1.070618e+00 1.338664e-01 -6.054640e-01 -1.313960e+00 6.345748e-02 1.600004e+00 9.540516e-01 -3.112320e-01 -1.011984e+00 -1.161917e+00 -2.303494e+00 -2.677108e+00 -1.246351e+00 -3.203449e-01 -3.229773e-01 -3.990861e-01 -4.530157e-01 -4.638369e-01 -4.820495e-01 -4.827458e-01 -4.909511e-01 -4.914929e-01 -4.929126e-01 -4.961070e-01 -4.922879e-01 -4.988161e-01 -4.908922e-01 -5.005081e-01 -4.895171e-01 -5.015149e-01 -4.885442e-01 -5.018974e-01 -4.881747e-01 -5.016262e-01 -4.884872e-01 -5.006749e-01 -4.895505e-01 -4.989063e-01 -4.915339e-01 -4.961778e-01 -4.945134e-01 -4.924747e-01 -4.984744e-01 -4.878689e-01 -5.032704e-01 -4.826033e-01 -5.085552e-01 -4.770759e-01 -5.137860e-01 -4.718284e-01 -5.182297e-01 -4.674070e-01 -5.210045e-01 -4.641248e-01 -5.211782e-01 -4.613752e-01 -5.180688e-01 -4.549088e-01 -5.111685e-01 -4.155713e-01 -7.033218e-01 -1.056885e+00 -2.576954e-01 -4.024326e-02 -2.772937e-02 -1.168764e-02 -5.126522e-03 
-1.649808e-03 -1.821061e-02 -3.459759e-02 2.463574e-01 1.602248e+00 -5.572603e-01 -2.697665e+00 -5.137143e-01 -1.031912e+00 -6.322156e-01 -8.642668e-01 -3.778849e-01 2.179891e-01 -5.013321e-01 -1.297527e+00 -1.217072e+00 -1.068880e+00 -1.216770e+00 -1.091097e+00 -1.334967e+00 -3.670080e-01 -1.056333e-01 -5.008309e-01 -8.150111e-01 -7.358373e-01 -8.128504e-01 -7.126036e-01 -8.016659e-01 -7.064651e-01 -7.972116e-01 -7.054964e-01 -7.929341e-01 -7.069755e-01 -7.876228e-01 -7.096203e-01 -7.814111e-01 -7.125620e-01 -7.743081e-01 -7.154410e-01 -7.665316e-01 -7.183951e-01 -7.584442e-01 -7.213972e-01 -7.502980e-01 -7.246709e-01 -7.417750e-01 -7.277460e-01 -7.319400e-01 -7.298694e-01 -7.203507e-01 -7.301220e-01 -7.074349e-01 -7.339194e-01 -7.291496e-01 -8.088932e-01 -4.738232e-01 1.567782e+00 3.124824e+00 1.369131e+00 -8.885191e-02 3.506914e-01 8.523353e-01 4.791973e-01 4.127883e-01 -1.664511e-01 3.616024e-01 6.039404e-01 9.564239e-02 -6.450466e-01 -9.701034e-01 -7.191022e-01 -2.626824e+00 -3.523873e+00 -1.999629e+00 -6.794138e-01 -5.218573e-01 -5.531806e-01 -6.375669e-01 -6.433547e-01 -6.851120e-01 -6.783794e-01 -7.022300e-01 -6.966132e-01 -7.062580e-01 -7.074651e-01 -7.043838e-01 -7.155015e-01 -6.999840e-01 -7.226221e-01 -6.941364e-01 -7.291899e-01 -6.876153e-01 -7.349257e-01 -6.813397e-01 -7.392365e-01 -6.766426e-01 -7.415132e-01 -6.748491e-01 -7.401474e-01 -6.774171e-01 -7.336958e-01 -6.856802e-01 -7.212707e-01 -7.001770e-01 -7.026101e-01 -7.207276e-01 -6.785430e-01 -7.458362e-01 -6.509853e-01 -7.731626e-01 -6.232581e-01 -7.992551e-01 -5.988302e-01 -8.197745e-01 -5.810709e-01 -8.308555e-01 -5.705945e-01 -8.303458e-01 -5.566743e-01 -8.264820e-01 -4.596453e-01 -1.373780e+00 -1.794307e+00 1.062509e+00 4.695787e-01 -1.246964e-01 -5.720674e-02 -6.796333e-03 
6.955012e-03 -3.638552e-02 -9.737521e-02 4.902537e-01 4.176753e+00 3.823147e+00 1.686431e-01 1.744360e+00 1.065016e+00 1.383314e+00 1.020434e+00 7.996930e-01 4.859874e-02 5.664888e-02 4.663806e-01 1.748224e-01 2.840493e-01 1.327236e-01 3.195708e-01 3.420596e-01 6.880864e-02 2.943886e-01 8.275631e-01 1.112992e+00 1.215335e+00 1.260210e+00 1.325252e+00 1.307848e+00 1.390876e+00 1.322661e+00 1.431274e+00 1.323470e+00 1.456248e+00 1.320258e+00 1.470186e+00 1.317268e+00 1.475203e+00 1.316768e+00 1.471941e+00 1.318343e+00 1.458973e+00 1.319992e+00 1.434099e+00 1.318035e+00 1.393360e+00 1.307270e+00 1.332164e+00 1.280063e+00 1.241570e+00 1.220790e+00 1.103662e+00 1.101403e+00 8.870828e-01 8.860162e-01 5.617795e-01 3.759256e-01 -9.562950e-01 -1.347160e+00 -5.334851e-01 1.987195e-01 -6.472355e-01 -8.045012e-01 -3.122661e-01 1.078322e-01 6.495020e-01 7.304944e-03 -5.395474e-01 7.878236e-02 1.248237e+00 1.659731e+00 2.022550e+00 3.549181e+00 4.358402e+00 2.843724e+00 1.705162e+00 1.478502e+00 1.473234e+00 1.461265e+00 1.463287e+00 1.454154e+00 1.465281e+00 1.455022e+00 1.473233e+00 1.459533e+00 1.480454e+00 1.465911e+00 1.482684e+00 1.473995e+00 1.478799e+00 1.485585e+00 1.469744e+00 1.501170e+00 1.456978e+00 1.519723e+00 1.442476e+00 1.538059e+00 1.428388e+00 1.552825e+00 1.418955e+00 1.560927e+00 1.417786e+00 1.558861e+00 1.427703e+00 1.544764e+00 1.450216e+00 1.517984e+00 1.484840e+00 1.480451e+00 1.529049e+00 1.435417e+00 1.577359e+00 1.388478e+00 1.624252e+00 1.347529e+00 1.663512e+00 1.319582e+00 1.690859e+00 1.308015e+00 1.710567e+00 1.297026e+00 1.767505e+00 9.670236e-01 2.390108e+00 5.298211e+00 1.670565e+00 -2.462328e-01 -1.149699e-01 -1.205044e-03 
1.343403e-02 -1.048762e-02 -5.645196e-02 3.074085e-01 2.908503e+00 5.420397e+00 3.791958e+00 2.683948e+00 2.610754e+00 2.453708e+00 2.438228e+00 2.270971e+00 2.584714e+00 2.429401e+00 2.402931e+00 2.423838e+00 2.438773e+00 2.460057e+00 2.407493e+00 2.443871e+00 2.458577e+00 2.470211e+00 2.322157e+00 2.491898e+00 2.444032e+00 2.607118e+00 2.558552e+00 2.654546e+00 2.626915e+00 2.665128e+00 2.671373e+00 2.659657e+00 2.701259e+00 2.648446e+00 2.720114e+00 2.636560e+00 2.729210e+00 2.626457e+00 2.728736e+00 2.617774e+00 2.717151e+00 2.608557e+00 2.691793e+00 2.594830e+00 2.648342e+00 2.570208e+00 2.580898e+00 2.524805e+00 2.478213e+00 2.440064e+00 2.317968e+00 2.282118e+00 2.056151e+00 1.983815e+00 1.586252e+00 1.356271e+00 6.051849e-01 -1.431062e-01 -4.392387e-01 2.667994e-01 1.012660e+00 1.200078e+00 1.110554e+00 7.199099e-01 7.901933e-01 1.409829e+00 2.320033e+00 1.989136e+00 1.493947e+00 1.511919e+00 1.439900e+00 6.535066e-01 4.299551e-01 1.596067e+00 2.408509e+00 2.537237e+00 2.519485e+00 2.581542e+00 2.583972e+00 2.632734e+00 2.641708e+00 2.664516e+00 2.685391e+00 2.682334e+00 2.716388e+00 2.692593e+00 2.735254e+00 2.699860e+00 2.743541e+00 2.708237e+00 2.743341e+00 2.719823e+00 2.736460e+00 2.734963e+00 2.724815e+00 2.751882e+00 2.710458e+00 2.768447e+00 2.696446e+00 2.782924e+00 2.685277e+00 2.792899e+00 2.679254e+00 2.796782e+00 2.679949e+00 2.793460e+00 2.688047e+00 2.783088e+00 2.703274e+00 2.766312e+00 2.723804e+00 2.745154e+00 2.748048e+00 2.723457e+00 2.774007e+00 2.705856e+00 2.800481e+00 2.699567e+00 2.830439e+00 2.721069e+00 2.866000e+00 3.262423e+00 5.583761e+00 4.707989e+00 8.779921e-01 -3.401547e-01 -1.053083e-01 -1.289926e-03 
9.272044e-03 9.201847e-03 -2.058127e-02 -8.892360e-02 1.512954e-01 1.920373e+00 2.259626e+00 8.941820e-01 1.111177e+00 9.368893e-01 1.101246e+00 1.270447e+00 1.972674e+00 1.634629e+00 1.347360e+00 1.347120e+00 1.352335e+00 1.347600e+00 1.351630e+00 1.350088e+00 1.716144e+00 1.800102e+00 1.122782e+00 1.031658e+00 9.889391e-01 1.082338e+00 1.038591e+00 1.100732e+00 1.057502e+00 1.102147e+00 1.068568e+00 1.097935e+00 1.076086e+00 1.091732e+00 1.081151e+00 1.085173e+00 1.083745e+00 1.078730e+00 1.083569e+00 1.072096e+00 1.079984e+00 1.064526e+00 1.071857e+00 1.054574e+00 1.057548e+00 1.039740e+00 1.034480e+00 1.016128e+00 9.983346e-01 9.777352e-01 9.423736e-01 9.162075e-01 8.500894e-01 7.768452e-01 6.328610e-01 1.110538e+00 4.335040e+00 7.057712e+00 5.117243e+00 2.330058e+00 2.237981e+00 2.630663e+00 2.375516e+00 2.302962e+00 1.788499e+00 1.673301e+00 1.631624e+00 1.225195e+00 8.644459e-01 4.968507e-01 6.421171e-01 -5.382722e-01 -1.434960e+00 -3.937111e-01 5.927274e-01 9.297696e-01 9.249735e-01 9.534555e-01 9.523978e-01 9.876760e-01 9.965977e-01 1.017915e+00 1.032069e+00 1.037410e+00 1.057523e+00 1.048973e+00 1.074514e+00 1.055670e+00 1.085001e+00 1.059953e+00 1.090607e+00 1.063499e+00 1.092477e+00 1.067331e+00 1.091465e+00 1.071852e+00 1.088299e+00 1.077194e+00 1.083408e+00 1.083541e+00 1.077065e+00 1.090793e+00 1.069672e+00 1.098712e+00 1.061662e+00 1.106897e+00 1.053659e+00 1.114752e+00 1.046482e+00 1.121533e+00 1.041182e+00 1.126552e+00 1.039138e+00 1.129676e+00 1.042336e+00 1.132498e+00 1.054231e+00 1.141813e+00 1.081027e+00 1.176453e+00 1.111497e+00 1.616880e+00 2.415623e+00 7.933301e-01 -1.194122e-01 -1.154292e-01 -2.071028e-02 4.468972e-03 
3.557023e-03 9.356743e-03 1.106762e-02 -6.715359e-03 -4.019473e-02 4.769053e-02 1.533099e-01 5.257300e-02 5.165988e-02 6.018789e-02 1.274542e-01 5.645221e-01 1.858251e+00 1.556417e+00 8.936412e-01 8.928351e-01 8.930469e-01 8.928535e-01 8.930223e-01 8.946268e-01 1.712850e+00 1.826037e+00 2.280651e-01 -4.104173e-02 -4.071875e-03 3.613911e-02 4.786739e-02 5.657359e-02 5.724579e-02 6.027247e-02 5.938674e-02 6.005478e-02 5.938111e-02 5.881840e-02 5.879017e-02 5.742240e-02 5.789945e-02 5.591972e-02 5.655197e-02 5.406040e-02 5.441679e-02 5.145000e-02 5.105302e-02 4.759267e-02 4.596862e-02 4.197272e-02 3.877214e-02 3.434016e-02 2.966203e-02 2.568504e-02 2.158183e-02 2.254084e-02 2.315322e-02 2.014917e-02 4.426282e-02 5.532936e-01 2.531544e+00 4.465483e+00 2.997130e+00 9.452771e-01 1.307657e+00 1.871803e+00 1.428581e+00 1.329742e+00 1.286401e+00 1.180169e+00 1.523081e+00 1.608171e+00 1.538842e+00 9.400769e-01 9.425828e-01 2.392660e+00 2.989156e+00 1.356697e+00 7.484777e-02 5.375870e-02 7.211614e-02 5.983121e-02 4.444313e-02 3.623517e-02 3.336040e-02 3.274719e-02 3.562232e-02 3.691810e-02 4.153124e-02 4.245634e-02 4.717209e-02 4.714908e-02 5.142932e-02 5.056614e-02 5.429122e-02 5.289869e-02 5.606528e-02 5.446940e-02 5.707793e-02 5.555880e-02 5.758130e-02 5.637506e-02 5.773074e-02 5.706797e-02 5.761500e-02 5.773051e-02 5.729142e-02 5.841985e-02 5.680484e-02 5.917070e-02 5.621935e-02 6.001192e-02 5.565194e-02 6.101126e-02 5.534248e-02 6.237768e-02 5.579065e-02 6.467738e-02 5.802087e-02 6.922118e-02 6.393320e-02 7.844517e-02 7.550448e-02 9.236802e-02 8.468237e-02 1.375307e-01 1.708226e-01 -2.616485e-03 -4.736872e-02 -1.778859e-02 -4.480838e-03 2.678399e-05 
4.259216e-04 2.126738e-03 3.999424e-03 3.784419e-03 -1.455888e-03 -7.150316e-03 2.340909e-04 2.301094e-03 8.230062e-03 1.772484e-02 4.863076e-02 2.692059e-01 9.176366e-01 7.715926e-01 4.466270e-01 4.462569e-01 4.462564e-01 4.462563e-01 4.462583e-01 4.471452e-01 8.624509e-01 9.203265e-01 5.762872e-02 -7.860615e-02 -4.855459e-02 -2.560903e-02 -1.490126e-02 -9.920969e-03 -6.877103e-03 -5.372076e-03 -4.469286e-03 -4.292437e-03 -4.146318e-03 -4.433178e-03 -4.527190e-03 -4.994702e-03 -5.212482e-03 -5.817546e-03 -6.194058e-03 -6.980609e-03 -7.597143e-03 -8.619544e-03 -9.529981e-03 -1.076474e-02 -1.187591e-02 -1.304884e-02 -1.387593e-02 -1.411334e-02 -1.328708e-02 -1.038037e-02 -4.464951e-03 6.557415e-03 2.168051e-02 3.833656e-02 8.584617e-02 3.669386e-01 1.010011e+00 1.117331e+00 -2.428170e-01 -7.711013e-01 3.034117e-01 7.842425e-01 4.807387e-01 3.318403e-01 5.630733e-01 8.211945e-01 1.272608e+00 1.121933e+00 4.326740e-01 4.909995e-01 8.557499e-01 1.136368e+00 9.255295e-01 4.053540e-01 2.412970e-01 1.642414e-01 1.065771e-01 6.128895e-02 3.001251e-02 9.772429e-03 -2.367820e-03 -9.365036e-03 -1.268302e-02 -1.401753e-02 -1.387378e-02 -1.322835e-02 -1.207658e-02 -1.101707e-02 -9.818321e-03 -8.895276e-03 -7.939176e-03 -7.277346e-03 -6.589537e-03 -6.163148e-03 -5.687133e-03 -5.435007e-03 -5.105209e-03 -4.970896e-03 -4.736639e-03 -4.676916e-03 -4.506066e-03 -4.488190e-03 -4.363976e-03 -4.360085e-03 -4.275712e-03 -4.256752e-03 -4.207659e-03 -4.135094e-03 -4.105726e-03 -3.916406e-03 -3.856237e-03 -3.434696e-03 -3.220675e-03 -2.361238e-03 -1.765279e-03 -1.696037e-04 1.070764e-03 3.586889e-03 5.245161e-03 7.543757e-03 6.726954e-03 6.762420e-03 4.294319e-03 -4.103225e-03 -3.250148e-03 -1.028720e-03 -1.035249e-03 -5.412520e-04 
1.473037e-06 8.106805e-07 1.732956e-06 -1.069766e-06 -4.497479e-06 -8.949940e-06 -1.090386e-05 -8.014518e-06 -7.152608e-06 1.734527e-07 3.446844e-05 9.154819e-05 -2.146938e-04 1.900734e-04 2.080029e-07 -4.758889e-10 9.043141e-12 -2.212890e-09 -2.425548e-08 -1.159535e-05 -5.372764e-03 9.256377e-04 9.791153e-04 1.607886e-04 -3.229709e-05 -1.018473e-04 -1.238851e-04 -1.717253e-04 -2.062357e-04 -2.583305e-04 -3.146079e-04 -3.938691e-04 -4.916721e-04 -6.234232e-04 -7.877014e-04 -1.003683e-03 -1.268857e-03 -1.610129e-03 -2.019530e-03 -2.530045e-03 -3.121018e-03 -3.818305e-03 -4.574437e-03 -5.374070e-03 -6.117132e-03 -6.681356e-03 -6.872333e-03 -6.352973e-03 -4.757914e-03 -1.326393e-03 4.642542e-03 1.393338e-02 2.506800e-02 4.415860e-02 1.517705e-01 5.838984e-01 1.369823e+00 1.205488e+00 1.373223e-01 -1.286231e-01 1.055764e-01 4.794796e-02 -1.989552e-01 -2.975304e-01 -5.999714e-02 9.497567e-02 6.934931e-02 -3.338564e-02 -7.695675e-02 8.325450e-05 4.437565e-01 1.220722e+00 9.942272e-01 3.418862e-01 2.392308e-01 1.867413e-01 1.264298e-01 7.876733e-02 4.573140e-02 2.397118e-02 1.004462e-02 1.598878e-03 -3.219493e-03 -5.611810e-03 -6.539741e-03 -6.547825e-03 -6.094805e-03 -5.388662e-03 -4.627057e-03 -3.870064e-03 -3.187860e-03 -2.586804e-03 -2.078676e-03 -1.657210e-03 -1.310242e-03 -1.033588e-03 -8.075142e-04 -6.328759e-04 -4.896271e-04 -3.822709e-04 -2.934083e-04 -2.288777e-04 -1.750094e-04 -1.370738e-04 -1.053871e-04 -8.351494e-05 -6.557799e-05 -5.302575e-05 -4.329374e-05 -3.585007e-05 -3.072556e-05 -2.586901e-05 -2.307577e-05 -1.933303e-05 -1.748935e-05 -1.400524e-05 -1.255968e-05 -9.157465e-06 -8.864230e-06 -6.608833e-06 -9.706095e-06 -9.439506e-06 -1.177546e-05 -7.972690e-06 -4.363814e-06 -4.496132e-06 -6.887178e-07 -1.452217e-06 
-4.151224e-04 -2.116774e-03 -3.989694e-03 -3.784772e-03 1.437969e-03 7.129373e-03 -2.743210e-04 -2.333529e-03 -8.250111e-03 -1.772646e-02 -4.855862e-02 -2.691389e-01 -9.189313e-01 -7.704429e-01 -4.466257e-01 -4.462569e-01 -4.462564e-01 -4.462563e-01 -4.462584e-01 -4.471735e-01 -8.756963e-01 -9.202987e-01 -5.574730e-02 7.898478e-02 4.854118e-02 2.543266e-02 1.469629e-02 9.611773e-03 6.519049e-03 4.901622e-03 3.906983e-03 3.562184e-03 3.240292e-03 3.251733e-03 3.032180e-03 3.050496e-03 2.739657e-03 2.632352e-03 2.161292e-03 1.865220e-03 1.204385e-03 6.917898e-04 -1.490192e-04 -8.391731e-04 -1.757237e-03 -2.449005e-03 -3.178361e-03 -3.515336e-03 -3.646738e-03 -3.212220e-03 -2.534626e-03 -2.597576e-03 -8.686820e-03 -2.290650e-02 3.122861e-02 4.486806e-01 1.137346e+00 7.767446e-01 -2.305774e-01 -1.333701e-01 3.275190e-01 3.572921e-01 1.115775e-01 -9.622149e-02 8.294619e-02 5.197087e-01 5.118717e-01 -5.920121e-02 -1.943891e-01 -2.587121e-01 -6.323052e-01 -7.272443e-01 -2.200725e-01 2.675394e-01 2.584336e-01 1.673191e-01 1.015539e-01 6.000152e-02 3.343419e-02 1.646573e-02 6.063018e-03 8.953493e-05 -2.955549e-03 -4.147087e-03 -4.218182e-03 -3.658320e-03 -2.792720e-03 -1.811486e-03 -8.514101e-04 5.096351e-05 8.209530e-04 1.513815e-03 2.044303e-03 2.539822e-03 2.864595e-03 3.214176e-03 3.385465e-03 3.638096e-03 3.703889e-03 3.893453e-03 3.892899e-03 4.037146e-03 4.001867e-03 4.104513e-03 4.059824e-03 4.111492e-03 4.073998e-03 4.048698e-03 4.016638e-03 3.859472e-03 3.791046e-03 3.392184e-03 3.169569e-03 2.327429e-03 1.725461e-03 1.448958e-04 -1.097810e-03 -3.599203e-03 -5.258881e-03 -7.547353e-03 -6.745783e-03 -6.778386e-03 -4.315050e-03 4.101974e-03 3.261096e-03 1.034080e-03 1.046605e-03 5.473846e-04 
-3.518362e-03 -9.316537e-03 -1.103107e-02 6.724046e-03 4.024765e-02 -4.734322e-02 -1.534644e-01 -5.299222e-02 -5.155123e-02 -6.032694e-02 -1.272711e-01 -5.644508e-01 -1.858991e+00 -1.555703e+00 -8.936402e-01 -8.928333e-01 -8.930509e-01 -8.928497e-01 -8.930267e-01 -8.946476e-01 -1.722257e+00 -1.822326e+00 -2.264550e-01 4.103507e-02 3.818373e-03 -3.641855e-02 -4.821607e-02 -5.695051e-02 -5.774431e-02 -6.082668e-02 -6.012382e-02 -6.092965e-02 -6.055044e-02 -6.026443e-02 -6.073050e-02 -5.983992e-02 -6.115834e-02 -5.994877e-02 -6.197751e-02 -6.070650e-02 -6.328940e-02 -6.221833e-02 -6.522406e-02 -6.459795e-02 -6.791782e-02 -6.793525e-02 -7.149199e-02 -7.234983e-02 -7.624914e-02 -7.845306e-02 -8.352182e-02 -8.921459e-02 -1.019616e-01 -1.276792e-01 -1.497607e-01 -2.241673e-02 2.698286e-01 1.492748e-01 -2.335561e-01 -1.922715e-01 -5.713153e-02 -2.078389e-03 -4.523703e-02 -1.291964e-01 -9.043591e-02 1.864606e-02 -1.947350e-02 -2.501661e-01 -2.295509e-01 -1.444694e-01 -3.278435e-01 -4.913758e-01 -2.545989e-01 3.716567e-02 4.831149e-02 -3.191724e-03 -3.923870e-02 -5.963284e-02 -7.119811e-02 -7.670437e-02 -7.900026e-02 -7.852962e-02 -7.730584e-02 -7.486665e-02 -7.281426e-02 -7.014554e-02 -6.834976e-02 -6.603683e-02 -6.483297e-02 -6.295503e-02 -6.236367e-02 -6.082634e-02 -6.074507e-02 -5.944326e-02 -5.971625e-02 -5.860945e-02 -5.904220e-02 -5.818301e-02 -5.854035e-02 -5.807403e-02 -5.808244e-02 -5.822754e-02 -5.758919e-02 -5.860613e-02 -5.702759e-02 -5.918008e-02 -5.641576e-02 -5.993308e-02 -5.584509e-02 -6.089931e-02 -5.553893e-02 -6.226213e-02 -5.598782e-02 -6.456786e-02 -5.820965e-02 -6.911023e-02 -6.409803e-02 -7.831005e-02 -7.562567e-02 -9.219392e-02 -8.481701e-02 -1.372800e-01 -1.710261e-01 2.530771e-03 4.741927e-02 1.782989e-02 4.537157e-03 1.142652e-05 
-9.195328e-03 -9.120724e-03 2.062947e-02 8.899784e-02 -1.499592e-01 -1.915523e+00 -2.259732e+00 -8.989722e-01 -1.108905e+00 -9.388250e-01 -1.099358e+00 -1.272289e+00 -1.976069e+00 -1.632288e+00 -1.347354e+00 -1.347072e+00 -1.352437e+00 -1.347505e+00 -1.351742e+00 -1.350142e+00 -1.725560e+00 -1.792151e+00 -1.122275e+00 -1.031467e+00 -9.910350e-01 -1.082353e+00 -1.041235e+00 -1.101225e+00 -1.060765e+00 -1.103565e+00 -1.072723e+00 -1.100835e+00 -1.081720e+00 -1.096820e+00 -1.089342e+00 -1.093335e+00 -1.096126e+00 -1.091340e+00 -1.102409e+00 -1.091514e+00 -1.108705e+00 -1.094447e+00 -1.115737e+00 -1.100766e+00 -1.124460e+00 -1.111133e+00 -1.135938e+00 -1.126268e+00 -1.151376e+00 -1.147109e+00 -1.172225e+00 -1.174960e+00 -1.200619e+00 -1.213538e+00 -1.245082e+00 -1.268917e+00 -1.285235e+00 -1.278113e+00 -1.266321e+00 -1.258243e+00 -1.245613e+00 -1.241397e+00 -1.260100e+00 -1.259785e+00 -1.281514e+00 -1.267249e+00 -1.259764e+00 -1.245600e+00 -1.239042e+00 -1.236552e+00 -1.228704e+00 -1.236359e+00 -1.231343e+00 -1.220414e+00 -1.220994e+00 -1.214782e+00 -1.207499e+00 -1.189939e+00 -1.180291e+00 -1.160304e+00 -1.153357e+00 -1.134419e+00 -1.131539e+00 -1.114815e+00 -1.115610e+00 -1.101239e+00 -1.104675e+00 -1.092460e+00 -1.097387e+00 -1.087162e+00 -1.092476e+00 -1.084347e+00 -1.088885e+00 -1.083364e+00 -1.085755e+00 -1.083915e+00 -1.082449e+00 -1.085941e+00 -1.078487e+00 -1.089442e+00 -1.073595e+00 -1.094346e+00 -1.067692e+00 -1.100392e+00 -1.060981e+00 -1.107155e+00 -1.053994e+00 -1.113994e+00 -1.047549e+00 -1.120129e+00 -1.042750e+00 -1.124813e+00 -1.040992e+00 -1.127791e+00 -1.044303e+00 -1.130559e+00 -1.056191e+00 -1.139806e+00 -1.082902e+00 -1.174283e+00 -1.113445e+00 -1.612935e+00 -2.418139e+00 -7.951654e-01 1.193363e-01 1.152345e-01 2.077241e-02 -4.374306e-03 
-1.333941e-02 1.053447e-02 5.623868e-02 -3.080568e-01 -2.904961e+00 -5.414386e+00 -3.791051e+00 -2.690762e+00 -2.607173e+00 -2.456693e+00 -2.435269e+00 -2.273689e+00 -2.584129e+00 -2.429733e+00 -2.401368e+00 -2.424989e+00 -2.438168e+00 -2.460610e+00 -2.407518e+00 -2.444481e+00 -2.462724e+00 -2.464274e+00 -2.327019e+00 -2.490679e+00 -2.450607e+00 -2.608132e+00 -2.565526e+00 -2.658604e+00 -2.633172e+00 -2.673631e+00 -2.677714e+00 -2.675207e+00 -2.709555e+00 -2.673726e+00 -2.733569e+00 -2.674349e+00 -2.751705e+00 -2.678906e+00 -2.765455e+00 -2.689216e+00 -2.777633e+00 -2.707077e+00 -2.791404e+00 -2.734499e+00 -2.810539e+00 -2.773107e+00 -2.837833e+00 -2.823827e+00 -2.876379e+00 -2.888463e+00 -2.929453e+00 -2.968316e+00 -2.998977e+00 -3.062124e+00 -3.082599e+00 -3.168658e+00 -3.180836e+00 -3.224255e+00 -3.142798e+00 -3.203863e+00 -3.159439e+00 -3.195259e+00 -3.152034e+00 -3.161798e+00 -3.142003e+00 -3.143135e+00 -3.103511e+00 -3.059574e+00 -3.042485e+00 -3.023783e+00 -3.001599e+00 -2.976417e+00 -3.022654e+00 -2.993107e+00 -3.002204e+00 -2.928126e+00 -2.943410e+00 -2.860762e+00 -2.889650e+00 -2.806755e+00 -2.846849e+00 -2.769038e+00 -2.814407e+00 -2.746292e+00 -2.789141e+00 -2.736045e+00 -2.768580e+00 -2.735939e+00 -2.750474e+00 -2.742970e+00 -2.733395e+00 -2.754664e+00 -2.716765e+00 -2.768115e+00 -2.700532e+00 -2.781340e+00 -2.686322e+00 -2.793020e+00 -2.675752e+00 -2.801724e+00 -2.670415e+00 -2.805945e+00 -2.670685e+00 -2.803757e+00 -2.676727e+00 -2.794937e+00 -2.688939e+00 -2.780005e+00 -2.706851e+00 -2.760580e+00 -2.729610e+00 -2.738760e+00 -2.754886e+00 -2.717116e+00 -2.780716e+00 -2.700024e+00 -2.806127e+00 -2.694103e+00 -2.834874e+00 -2.716576e+00 -2.870112e+00 -3.256054e+00 -5.587667e+00 -4.711810e+00 -8.740085e-01 3.379935e-01 1.046961e-01 1.358074e-03 
-6.864828e-03 3.640242e-02 9.702696e-02 -4.916198e-01 -4.175000e+00 -3.826519e+00 -1.674930e-01 -1.742457e+00 -1.065166e+00 -1.382884e+00 -1.020433e+00 -7.992230e-01 -4.427027e-02 -5.908789e-02 -4.673756e-01 -1.724162e-01 -2.878076e-01 -1.273471e-01 -3.258841e-01 -3.339602e-01 -6.866136e-02 -2.979497e-01 -8.340083e-01 -1.111769e+00 -1.220791e+00 -1.262154e+00 -1.329669e+00 -1.313342e+00 -1.392441e+00 -1.332912e+00 -1.430636e+00 -1.341378e+00 -1.455063e+00 -1.348634e+00 -1.471130e+00 -1.358842e+00 -1.480920e+00 -1.372377e+00 -1.486022e+00 -1.390282e+00 -1.489687e+00 -1.413929e+00 -1.495293e+00 -1.445086e+00 -1.506643e+00 -1.484925e+00 -1.525763e+00 -1.533507e+00 -1.555041e+00 -1.592335e+00 -1.597644e+00 -1.663098e+00 -1.656633e+00 -1.747481e+00 -1.732838e+00 -1.842054e+00 -1.817808e+00 -1.927975e+00 -1.847905e+00 -1.927987e+00 -1.849336e+00 -1.916878e+00 -1.819902e+00 -1.860071e+00 -1.773850e+00 -1.797590e+00 -1.749294e+00 -1.726303e+00 -1.686298e+00 -1.634757e+00 -1.622479e+00 -1.550954e+00 -1.564463e+00 -1.515098e+00 -1.566240e+00 -1.500003e+00 -1.562168e+00 -1.482291e+00 -1.554198e+00 -1.467847e+00 -1.544443e+00 -1.459257e+00 -1.533145e+00 -1.457530e+00 -1.519503e+00 -1.463155e+00 -1.503778e+00 -1.476288e+00 -1.485790e+00 -1.495078e+00 -1.465835e+00 -1.517351e+00 -1.444972e+00 -1.539403e+00 -1.424752e+00 -1.558204e+00 -1.409005e+00 -1.571307e+00 -1.401327e+00 -1.576076e+00 -1.404877e+00 -1.570071e+00 -1.420459e+00 -1.550783e+00 -1.447815e+00 -1.518882e+00 -1.486165e+00 -1.476879e+00 -1.532614e+00 -1.429531e+00 -1.583030e+00 -1.382625e+00 -1.630679e+00 -1.342314e+00 -1.669288e+00 -1.315404e+00 -1.694758e+00 -1.304548e+00 -1.712409e+00 -1.295289e+00 -1.768410e+00 -9.681931e-01 -2.389710e+00 -5.299388e+00 -1.664151e+00 2.433834e-01 1.140814e-01 1.225723e-03 
1.692864e-03 1.823550e-02 3.453666e-02 -2.469105e-01 -1.603120e+00 5.499427e-01 2.697382e+00 5.199496e-01 1.029166e+00 6.347938e-01 8.624989e-01 3.796423e-01 -2.256489e-01 5.067686e-01 1.295879e+00 1.219132e+00 1.066545e+00 1.218707e+00 1.089533e+00 1.333414e+00 3.577072e-01 1.147966e-01 5.015335e-01 8.151046e-01 7.357106e-01 8.121363e-01 7.139157e-01 8.001915e-01 7.097948e-01 7.949244e-01 7.109250e-01 7.892499e-01 7.144834e-01 7.820699e-01 7.192628e-01 7.736297e-01 7.248666e-01 7.650400e-01 7.310066e-01 7.568316e-01 7.369488e-01 7.491968e-01 7.420976e-01 7.421048e-01 7.459486e-01 7.357140e-01 7.488026e-01 7.305782e-01 7.508438e-01 7.265583e-01 7.515531e-01 7.227158e-01 7.492703e-01 7.161690e-01 7.411937e-01 7.094239e-01 7.409720e-01 6.849326e-01 6.956543e-01 6.704028e-01 7.041998e-01 6.706389e-01 7.207126e-01 6.893475e-01 7.452578e-01 7.222082e-01 7.339687e-01 7.191942e-01 7.403806e-01 7.712258e-01 7.667286e-01 8.046701e-01 8.224675e-01 8.398862e-01 8.018558e-01 8.047191e-01 7.643896e-01 7.757901e-01 7.379791e-01 7.560857e-01 7.218841e-01 7.429461e-01 7.136724e-01 7.333441e-01 7.112017e-01 7.248646e-01 7.126445e-01 7.158993e-01 7.168948e-01 7.061699e-01 7.230113e-01 6.960430e-01 7.299219e-01 6.868199e-01 7.363995e-01 6.798621e-01 7.404213e-01 6.764964e-01 7.400832e-01 6.780973e-01 7.337919e-01 6.858015e-01 7.210427e-01 7.004587e-01 7.020850e-01 7.214343e-01 6.778094e-01 7.470192e-01 6.502991e-01 7.743269e-01 6.224381e-01 7.998263e-01 5.981713e-01 8.197428e-01 5.809328e-01 8.302221e-01 5.713485e-01 8.293143e-01 5.584072e-01 8.247087e-01 4.622494e-01 1.368576e+00 1.798601e+00 -1.061089e+00 -4.680118e-01 1.232388e-01 5.683894e-02 6.810793e-03 
4.071200e-03 6.869171e-03 9.596480e-03 -2.798511e-02 -1.169856e-01 6.779789e-01 1.159781e+00 4.892797e-01 5.732165e-01 4.710253e-01 5.341946e-01 2.816752e-01 -6.289284e-01 -2.268066e+00 -3.061255e+00 -2.789487e+00 -2.808523e+00 -2.909167e+00 -2.719075e+00 -3.011672e+00 -2.457813e+00 -4.267993e-01 3.180140e-01 5.080394e-01 4.687105e-01 5.007224e-01 4.699658e-01 5.041293e-01 4.788921e-01 5.055664e-01 4.856719e-01 5.048367e-01 4.911556e-01 5.030916e-01 4.956804e-01 5.010720e-01 4.994183e-01 4.993362e-01 5.025148e-01 4.982943e-01 5.051700e-01 4.982662e-01 5.076760e-01 4.995447e-01 5.104410e-01 5.024159e-01 5.139340e-01 5.070827e-01 5.184360e-01 5.133074e-01 5.234763e-01 5.197977e-01 5.273860e-01 5.241124e-01 5.272963e-01 5.241350e-01 5.287448e-01 5.234252e-01 5.201384e-01 5.253857e-01 5.298897e-01 5.291318e-01 5.402823e-01 5.384066e-01 5.474436e-01 5.352415e-01 5.361700e-01 5.454354e-01 5.774024e-01 6.098694e-01 6.247256e-01 6.361484e-01 6.353539e-01 6.152811e-01 5.866876e-01 5.628767e-01 5.443428e-01 5.309579e-01 5.206607e-01 5.132370e-01 5.079264e-01 5.039241e-01 5.015273e-01 4.991292e-01 4.984921e-01 4.965705e-01 4.972387e-01 4.950346e-01 4.969347e-01 4.939229e-01 4.971021e-01 4.930154e-01 4.974093e-01 4.923332e-01 4.975639e-01 4.920464e-01 4.972716e-01 4.924010e-01 4.962525e-01 4.936393e-01 4.942880e-01 4.959301e-01 4.912717e-01 4.993083e-01 4.872511e-01 5.036274e-01 4.824542e-01 5.085320e-01 4.772889e-01 5.134596e-01 4.722967e-01 5.176668e-01 4.680466e-01 5.202650e-01 4.648748e-01 5.203065e-01 4.622086e-01 5.170912e-01 4.558187e-01 5.100748e-01 4.167812e-01 7.015536e-01 1.058995e+00 2.583973e-01 3.977776e-02 2.741070e-02 1.161564e-02 5.110912e-03 
