# vtk DataFile Version 2.0
Comment goes here
ASCII

DATASET STRUCTURED_POINTS
FIELD FieldData 1
TIME 1 1 double
0.31000000
DIMENSIONS    128   16   1

ORIGIN    0.000   0.000   0.000
SPACING   0.0078125 0.015625   1.000

POINT_DATA   2048
SCALARS Omega double
LOOKUP_TABLE default

1.361239e-05 5.812372e-06 -1.653954e-06 -1.501148e-05 -3.398312e-05 -1.703152e-05 -2.149590e-05 -1.250031e-05 -1.259757e-05 -1.717351e-05 -3.109675e-05 -4.794828e-05 -8.205221e-05 5.297442e-05 -8.266768e-05 -8.848980e-05 3.051126e-05 -1.814727e-04 1.296711e-04 -7.560607e-05 -3.649085e-04 1.408823e-04 3.113097e-05 -7.033225e-05 -5.289973e-05 -5.734767e-05 7.070731e-06 -3.085423e-05 3.011147e-05 -3.841774e-05 4.124375e-05 -2.468825e-05 8.055105e-05 9.290508e-07 1.183323e-04 3.484064e-05 1.793199e-04 1.276434e-04 3.020021e-04 2.848072e-04 4.918824e-04 5.807162e-04 8.693719e-04 1.159724e-03 1.586484e-03 2.166356e-03 2.728853e-03 3.464705e-03 3.670586e-03 3.537336e-03 1.580526e-03 -2.334010e-03 -1.081437e-02 -2.363442e-02 -3.492535e-02 -2.262136e-02 8.191540e-03 -1.088642e-02 -7.420409e-02 -5.105925e-02 4.162359e-02 5.514240e-02 -1.952077e-03 -3.898798e-02 -9.285819e-03 9.829501e-02 1.697800e-01 1.298237e-01 8.888658e-02 9.590704e-02 1.272284e-01 1.541733e-01 1.352187e-01 1.053933e-01 8.755966e-02 6.531730e-02 4.192381e-02 2.222214e-02 9.199858e-03 1.419112e-03 -1.905397e-03 -3.095071e-03 -2.827043e-03 -2.348403e-03 -1.677420e-03 -1.201744e-03 -7.999743e-04 -4.964810e-04 -3.457580e-04 -1.676684e-04 -1.882457e-04 -4.287840e-05 -1.171984e-04 4.025847e-05 -8.281577e-05 5.117192e-05 -8.259737e-05 5.097291e-05 -6.430758e-05 4.661858e-05 -4.525557e-05 4.158174e-05 -2.505713e-05 2.484622e-05 -1.848614e-05 6.610455e-06 -8.761819e-06 -3.846269e-06 -8.092768e-07 -1.367953e-05 1.441186e-06 -2.425477e-05 -2.528094e-06 -3.546910e-05 -5.561382e-06 -2.638732e-05 1.316640e-05 -3.239002e-06 4.265734e-05 5.473585e-05 1.256164e-04 1.283792e-04 1.622647e-04 1.314168e-04 8.975050e-05 6.317495e-05 4.265439e-05 2.555223e-05 
-9.357422e-03 -9.120213e-03 5.384859e-04 2.824229e-04 -1.884787e-01 -4.520277e-01 7.797600e-01 5.019795e-01 1.214332e-01 2.637446e-01 2.185279e-01 3.962340e-01 -3.718241e-01 -1.679632e+00 -2.205040e+00 -1.738115e+00 -2.121383e+00 -1.938173e+00 -1.923545e+00 -2.231050e+00 -1.672801e+00 -1.502783e-01 3.322120e-01 2.621163e-01 2.209426e-01 2.138722e-01 2.219117e-01 2.156806e-01 2.299100e-01 2.146488e-01 2.329325e-01 2.108587e-01 2.354336e-01 2.107856e-01 2.388244e-01 2.098018e-01 2.363134e-01 2.076353e-01 2.359375e-01 2.113488e-01 2.344073e-01 2.116843e-01 2.287802e-01 2.151480e-01 2.276587e-01 2.205860e-01 2.238637e-01 2.237066e-01 2.216901e-01 2.283006e-01 2.207086e-01 2.255943e-01 2.087062e-01 2.150684e-01 2.647340e-01 4.122099e-01 3.301808e-01 2.521967e-01 4.089517e-01 4.434899e-01 3.022483e-01 3.122811e-01 3.623894e-01 2.595890e-01 5.067199e-01 6.199152e-01 4.285381e-01 4.281041e-01 1.617903e-01 1.347358e-01 4.228910e-01 6.936101e-01 6.221371e-01 3.482413e-01 2.959874e-01 2.876708e-01 2.742214e-01 2.471619e-01 2.415614e-01 2.272645e-01 2.288881e-01 2.183969e-01 2.247957e-01 2.206747e-01 2.269797e-01 2.216924e-01 2.258541e-01 2.220570e-01 2.260077e-01 2.224958e-01 2.262211e-01 2.214383e-01 2.257945e-01 2.205053e-01 2.279489e-01 2.198631e-01 2.284551e-01 2.180579e-01 2.317369e-01 2.188389e-01 2.328067e-01 2.157925e-01 2.323514e-01 2.179702e-01 2.345650e-01 2.194517e-01 2.295778e-01 2.204257e-01 2.262054e-01 2.272512e-01 2.209443e-01 2.329446e-01 2.125364e-01 2.416321e-01 2.050833e-01 2.538210e-01 1.985284e-01 2.709311e-01 1.936188e-01 3.037428e-01 1.814937e-01 6.152839e-01 5.591998e-01 -2.057290e-01 -5.998379e-02 -2.532946e-02 -1.691073e-02 -1.058278e-02 
-1.939387e-02 -5.923052e-03 7.470888e-02 1.768764e-01 -1.038758e+00 -2.243001e+00 2.169765e+00 1.181211e+00 2.769902e-01 5.642220e-01 4.267275e-01 5.577024e-01 -1.103488e+00 2.712596e-01 4.522093e-01 7.021326e-01 3.326231e-01 7.429022e-01 3.439842e-01 7.876031e-01 -8.140535e-02 -6.813192e-01 3.541023e-01 5.201425e-01 4.159597e-01 4.601503e-01 4.109406e-01 4.491821e-01 4.318451e-01 4.443910e-01 4.460859e-01 4.274234e-01 4.492060e-01 4.144249e-01 4.624262e-01 4.116908e-01 4.646844e-01 3.996847e-01 4.608401e-01 4.002679e-01 4.603795e-01 4.024435e-01 4.519017e-01 4.107826e-01 4.460701e-01 4.161096e-01 4.265353e-01 4.138500e-01 4.152408e-01 4.277657e-01 4.194923e-01 4.352557e-01 4.207710e-01 4.564088e-01 5.502723e-01 6.879743e-01 3.541835e-01 3.176651e-01 7.471887e-01 5.442311e-01 -3.918321e-02 6.032555e-02 7.458535e-01 9.345170e-01 8.450878e-01 2.243186e-01 -2.867948e-01 4.837512e-01 9.426623e-01 9.145356e-01 9.555061e-01 1.004857e+00 7.325767e-01 3.667409e-01 3.734622e-01 4.042367e-01 4.202789e-01 4.028154e-01 4.197793e-01 4.131909e-01 4.166654e-01 4.089967e-01 4.140652e-01 4.288506e-01 4.232711e-01 4.358041e-01 4.138323e-01 4.330901e-01 4.095081e-01 4.322343e-01 4.114946e-01 4.282662e-01 4.140784e-01 4.200635e-01 4.257246e-01 4.105008e-01 4.378346e-01 4.029280e-01 4.626346e-01 3.996592e-01 4.748066e-01 3.748286e-01 4.706343e-01 3.640230e-01 4.770948e-01 3.689438e-01 4.760847e-01 3.833033e-01 4.660919e-01 4.019365e-01 4.314486e-01 4.232142e-01 3.943421e-01 4.676375e-01 3.562728e-01 5.187536e-01 3.051739e-01 5.835278e-01 2.478647e-01 6.994131e-01 1.195576e-01 1.674006e+00 3.906690e-01 -1.534649e+00 4.780837e-01 1.806329e-01 -6.628449e-03 -2.408407e-02 
-2.814362e-02 -1.184903e-04 1.911429e-01 5.763311e-01 -1.759653e+00 -4.141958e+00 -3.732256e-02 -6.401195e-01 -6.417559e-01 -7.175379e-01 -5.904534e-01 -5.039591e-01 5.618848e-01 2.108516e-01 1.871918e-02 1.404219e-01 1.428234e-01 1.632762e-01 8.603331e-02 8.828856e-02 1.702827e-01 4.964961e-01 -5.647752e-01 -5.064450e-01 -7.443809e-01 -6.075471e-01 -8.101053e-01 -6.736329e-01 -8.238077e-01 -6.926304e-01 -8.110520e-01 -7.196223e-01 -8.233563e-01 -7.602993e-01 -8.118618e-01 -7.622721e-01 -7.873858e-01 -7.807314e-01 -7.967216e-01 -8.056696e-01 -7.876424e-01 -7.991190e-01 -7.706893e-01 -7.965058e-01 -7.791143e-01 -8.157381e-01 -8.061927e-01 -8.392265e-01 -8.241156e-01 -8.356175e-01 -8.252780e-01 -8.375425e-01 -8.320015e-01 -8.553562e-01 -8.992890e-01 -1.009962e+00 -8.784031e-01 -8.688218e-01 -1.180252e+00 -1.053962e+00 -6.494588e-01 -7.964663e-01 -1.187914e+00 -1.262595e+00 -1.294124e+00 -9.532872e-01 -6.086552e-01 -1.179769e+00 -1.325380e+00 -1.445379e+00 -1.498783e+00 -1.459314e+00 -1.260168e+00 -1.029491e+00 -1.001506e+00 -9.892687e-01 -9.582527e-01 -9.265872e-01 -9.115342e-01 -8.766531e-01 -8.971495e-01 -8.498163e-01 -8.800866e-01 -8.018810e-01 -8.622482e-01 -7.796685e-01 -8.757701e-01 -7.840767e-01 -8.865169e-01 -7.867280e-01 -8.811079e-01 -7.894357e-01 -8.690440e-01 -8.062977e-01 -8.495702e-01 -8.307930e-01 -8.159870e-01 -8.412809e-01 -7.654747e-01 -8.591824e-01 -7.349194e-01 -9.114956e-01 -7.408711e-01 -9.622735e-01 -7.363221e-01 -9.607842e-01 -6.996521e-01 -9.265194e-01 -7.030099e-01 -9.227728e-01 -7.661639e-01 -9.005469e-01 -8.142598e-01 -8.302437e-01 -8.735639e-01 -7.626356e-01 -9.772401e-01 -6.853651e-01 -1.110135e+00 -5.687365e-01 -1.394863e+00 2.176382e-02 -3.563721e+00 -3.337245e+00 1.827545e+00 6.584963e-01 5.490923e-02 -2.988600e-02 
-3.308597e-02 -3.352229e-03 1.751213e-01 6.476776e-01 -3.339566e-01 -1.696356e+00 -3.007591e+00 -2.334701e+00 -1.117713e+00 -1.542139e+00 -1.090296e+00 -1.364880e+00 -1.284673e+00 -1.368862e+00 -1.091863e+00 -1.326328e+00 -1.155030e+00 -1.309296e+00 -1.183832e+00 -1.239406e+00 -1.282875e+00 -1.333368e+00 -1.216019e+00 -1.138834e+00 -1.347922e+00 -1.266393e+00 -1.442243e+00 -1.330787e+00 -1.484978e+00 -1.347464e+00 -1.488688e+00 -1.356899e+00 -1.506297e+00 -1.387465e+00 -1.510494e+00 -1.387059e+00 -1.484950e+00 -1.392698e+00 -1.490630e+00 -1.422962e+00 -1.480239e+00 -1.418839e+00 -1.450326e+00 -1.427873e+00 -1.454242e+00 -1.458613e+00 -1.462007e+00 -1.484924e+00 -1.472050e+00 -1.504201e+00 -1.487275e+00 -1.528551e+00 -1.519818e+00 -1.584430e+00 -1.599969e+00 -1.628954e+00 -1.618003e+00 -1.633299e+00 -1.574494e+00 -1.682743e+00 -1.854775e+00 -1.820691e+00 -1.668673e+00 -1.751973e+00 -1.625139e+00 -1.864722e+00 -1.965289e+00 -1.907476e+00 -1.953200e+00 -1.926365e+00 -1.881767e+00 -2.064366e+00 -2.013939e+00 -1.907074e+00 -1.767693e+00 -1.670687e+00 -1.629011e+00 -1.575791e+00 -1.583647e+00 -1.537007e+00 -1.562283e+00 -1.494745e+00 -1.533781e+00 -1.459725e+00 -1.521610e+00 -1.438447e+00 -1.521916e+00 -1.436413e+00 -1.527238e+00 -1.436228e+00 -1.523067e+00 -1.432755e+00 -1.511952e+00 -1.440594e+00 -1.504567e+00 -1.456155e+00 -1.481118e+00 -1.458766e+00 -1.455071e+00 -1.476322e+00 -1.434517e+00 -1.504443e+00 -1.433686e+00 -1.550203e+00 -1.435339e+00 -1.556825e+00 -1.389840e+00 -1.538069e+00 -1.378989e+00 -1.559864e+00 -1.404302e+00 -1.562865e+00 -1.409770e+00 -1.540635e+00 -1.427497e+00 -1.527830e+00 -1.476462e+00 -1.512879e+00 -1.535504e+00 -1.483589e+00 -1.609161e+00 -1.975582e+00 -4.520508e+00 -1.689690e+00 1.492001e+00 4.030812e-01 -1.178661e-02 -4.572759e-02 
-3.528413e-02 -3.172696e-02 -2.759717e-04 1.850412e-01 6.395213e-01 8.378573e-01 -1.628668e+00 -1.109962e+00 -3.441816e-01 -5.422929e-01 -2.479148e-01 -4.532141e-01 -1.474015e+00 -1.117639e+00 -7.793043e-01 -7.883420e-01 -7.847330e-01 -7.849683e-01 -7.890799e-01 -7.810719e-01 -1.144454e+00 -1.294497e+00 -4.095803e-01 -3.791281e-01 -4.298668e-01 -4.213752e-01 -4.488056e-01 -4.267406e-01 -4.646660e-01 -4.285635e-01 -4.708604e-01 -4.247508e-01 -4.765375e-01 -4.284054e-01 -4.833315e-01 -4.283658e-01 -4.777784e-01 -4.257963e-01 -4.781083e-01 -4.352939e-01 -4.763231e-01 -4.368713e-01 -4.668183e-01 -4.454241e-01 -4.687170e-01 -4.599122e-01 -4.677896e-01 -4.723772e-01 -4.738978e-01 -4.927711e-01 -4.899665e-01 -5.119642e-01 -5.034370e-01 -4.954603e-01 -3.568656e-01 -2.027447e-01 -6.622567e-01 -8.274703e-01 -2.030913e-01 -3.122894e-01 -8.834860e-01 -8.575458e-01 -1.539191e-01 -3.349873e-02 -3.202011e-02 -4.988400e-01 -1.019433e+00 -2.623969e-01 1.838975e-01 -6.089564e-04 1.554827e-01 4.953548e-01 2.258179e-01 -3.987691e-01 -5.340559e-01 -5.132599e-01 -5.107126e-01 -4.989851e-01 -5.108617e-01 -4.956491e-01 -4.995747e-01 -4.743886e-01 -4.827957e-01 -4.653980e-01 -4.774149e-01 -4.567580e-01 -4.695570e-01 -4.510525e-01 -4.669584e-01 -4.481152e-01 -4.655040e-01 -4.438630e-01 -4.628718e-01 -4.414870e-01 -4.653374e-01 -4.410625e-01 -4.636762e-01 -4.385824e-01 -4.667266e-01 -4.422841e-01 -4.655416e-01 -4.396119e-01 -4.622156e-01 -4.478230e-01 -4.641036e-01 -4.527423e-01 -4.505715e-01 -4.550733e-01 -4.423442e-01 -4.694638e-01 -4.329884e-01 -4.795209e-01 -4.176998e-01 -4.920785e-01 -4.047391e-01 -5.070121e-01 -3.902891e-01 -5.175580e-01 -3.603245e-01 -5.179351e-01 -2.653858e-01 -1.019566e+00 -1.240186e+00 3.792165e-01 3.204458e-01 1.130761e-02 -4.880012e-02 -4.135745e-02 
-2.516540e-02 -2.211559e-02 -2.081750e-02 -6.854249e-03 6.439841e-02 1.674649e-01 -3.744614e-02 -4.859030e-02 2.946088e-02 5.962414e-02 2.213988e-01 2.765151e-01 -1.350079e+00 -1.303480e+00 -5.483270e-01 -5.473130e-01 -5.471596e-01 -5.471780e-01 -5.473314e-01 -5.478566e-01 -1.152952e+00 -1.185107e+00 7.739808e-02 3.867339e-02 -8.053298e-03 5.890450e-04 7.320508e-03 1.529490e-02 1.360251e-02 1.807379e-02 1.410767e-02 1.813310e-02 1.331589e-02 1.730264e-02 1.238487e-02 1.662980e-02 1.210509e-02 1.604943e-02 1.156271e-02 1.477156e-02 1.093337e-02 1.345861e-02 1.022488e-02 1.118136e-02 8.255778e-03 7.618743e-03 5.261436e-03 2.964625e-03 1.276875e-03 -1.105214e-03 1.316885e-03 5.910965e-03 2.406700e-02 6.687838e-02 1.825792e-01 3.428352e-01 3.669160e-01 3.226038e-01 3.681083e-01 2.816433e-01 2.665873e-01 3.690750e-01 3.098809e-01 3.167822e-01 3.438634e-01 3.363914e-01 3.958171e-01 4.259832e-01 3.160037e-01 1.951509e-01 3.649819e-01 6.372715e-01 6.792106e-01 4.238183e-01 1.655733e-01 7.402287e-02 3.790040e-02 1.863815e-02 6.119075e-03 1.747015e-03 -4.065767e-05 1.884428e-03 2.963504e-03 5.430821e-03 6.564271e-03 8.735103e-03 9.448987e-03 1.099206e-02 1.114999e-02 1.242331e-02 1.218626e-02 1.351541e-02 1.282908e-02 1.423946e-02 1.296204e-02 1.477985e-02 1.311286e-02 1.528342e-02 1.291244e-02 1.544643e-02 1.288408e-02 1.586450e-02 1.301526e-02 1.574368e-02 1.296345e-02 1.559687e-02 1.362113e-02 1.541600e-02 1.424419e-02 1.468062e-02 1.521451e-02 1.409822e-02 1.678431e-02 1.363384e-02 1.923060e-02 1.446185e-02 2.455809e-02 1.946914e-02 3.648441e-02 3.200784e-02 6.293644e-02 2.380032e-02 2.816628e-02 7.298294e-02 -4.628863e-03 -3.673116e-02 -3.500610e-02 -2.924021e-02 
-1.246714e-02 -1.152648e-02 -1.163362e-02 -1.283706e-02 -1.120810e-02 -2.866153e-03 -7.043124e-03 -7.883988e-03 5.138618e-03 3.613770e-02 1.184793e-01 1.671419e-01 -6.859551e-01 -6.527138e-01 -2.750439e-01 -2.743297e-01 -2.743284e-01 -2.743282e-01 -2.743289e-01 -2.747205e-01 -5.622879e-01 -5.775913e-01 2.854723e-02 -1.045688e-02 -3.274836e-02 -2.571492e-02 -1.791585e-02 -1.337450e-02 -1.138378e-02 -1.013313e-02 -9.895167e-03 -9.597026e-03 -9.824087e-03 -9.749285e-03 -1.002231e-02 -9.973807e-03 -1.021807e-02 -1.019102e-02 -1.042538e-02 -1.044995e-02 -1.070378e-02 -1.081986e-02 -1.113829e-02 -1.140891e-02 -1.185637e-02 -1.233661e-02 -1.289162e-02 -1.335249e-02 -1.328344e-02 -1.199799e-02 -7.991216e-03 3.334257e-04 1.676812e-02 5.357144e-02 1.416203e-01 2.366737e-01 2.159066e-01 2.681614e-01 4.084072e-01 8.418418e-02 -2.651018e-01 -8.919762e-03 2.916923e-01 4.320945e-01 3.555420e-01 -2.438202e-01 -3.818988e-01 1.604618e-01 2.973187e-01 3.306485e-01 3.936963e-01 2.855342e-01 2.426657e-01 1.887026e-01 1.179471e-01 6.733534e-02 3.370619e-02 1.175001e-02 -1.798140e-03 -9.282992e-03 -1.292536e-02 -1.423234e-02 -1.435471e-02 -1.394898e-02 -1.336133e-02 -1.279911e-02 -1.226951e-02 -1.186183e-02 -1.149458e-02 -1.123325e-02 -1.099235e-02 -1.081949e-02 -1.066737e-02 -1.054216e-02 -1.045842e-02 -1.035384e-02 -1.032840e-02 -1.022496e-02 -1.024837e-02 -1.013157e-02 -1.019846e-02 -1.006221e-02 -1.016595e-02 -1.000761e-02 -1.014029e-02 -9.964658e-03 -1.011437e-02 -9.927267e-03 -1.007365e-02 -9.882658e-03 -9.997825e-03 -9.803823e-03 -9.825790e-03 -9.567508e-03 -9.319155e-03 -8.762212e-03 -7.848235e-03 -6.609933e-03 -4.811448e-03 -3.263360e-03 -1.103850e-03 -1.998354e-04 -1.780745e-04 -8.273274e-03 -1.617733e-02 -1.676575e-02 -1.520541e-02 -1.367364e-02 
-2.601851e-06 -1.380095e-06 -4.268407e-07 2.062588e-07 9.254008e-07 9.478443e-07 8.963589e-07 1.486597e-06 2.699681e-06 4.501907e-06 -1.128216e-06 -4.002385e-05 1.259500e-04 5.624871e-04 1.009361e-06 3.199776e-09 -6.966723e-10 1.954019e-09 4.850199e-09 4.127693e-06 3.120735e-03 -2.267569e-03 -2.024659e-04 -5.031125e-05 -7.172896e-05 -6.334738e-05 -3.913786e-05 -3.045351e-05 -2.602913e-05 -2.990063e-05 -3.402610e-05 -4.198610e-05 -5.082925e-05 -6.341364e-05 -7.799276e-05 -9.763788e-05 -1.209432e-04 -1.529371e-04 -1.913850e-04 -2.435752e-04 -3.061055e-04 -3.903580e-04 -4.944558e-04 -6.351265e-04 -8.117802e-04 -1.036454e-03 -1.283197e-03 -1.481186e-03 -1.414157e-03 -6.328780e-04 1.633701e-03 6.674114e-03 1.755204e-02 4.180704e-02 7.506464e-02 2.483939e-02 -1.869544e-01 -1.566238e-01 1.087346e-01 2.794642e-02 -1.247528e-01 -1.005614e-02 1.137750e-01 1.308477e-01 1.052596e-01 -1.903413e-02 1.883702e-02 2.397744e-01 1.701124e-01 2.039902e-02 1.774697e-01 4.082274e-01 3.488672e-01 1.536441e-01 7.245242e-02 5.067648e-02 3.425959e-02 2.024116e-02 1.027049e-02 4.014979e-03 4.840487e-04 -1.225557e-03 -1.871055e-03 -1.958586e-03 -1.797480e-03 -1.557952e-03 -1.305314e-03 -1.084260e-03 -8.884544e-04 -7.326698e-04 -5.972650e-04 -4.914393e-04 -3.985640e-04 -3.269691e-04 -2.647102e-04 -2.174852e-04 -1.765143e-04 -1.450473e-04 -1.176754e-04 -9.634584e-05 -7.823182e-05 -6.398878e-05 -5.227812e-05 -4.289295e-05 -3.564708e-05 -2.974263e-05 -2.542839e-05 -2.137407e-05 -1.828293e-05 -1.497330e-05 -1.280421e-05 -1.046791e-05 -9.253862e-06 -7.580826e-06 -7.074106e-06 -6.802279e-06 -9.136296e-06 -1.324312e-05 -2.061307e-05 -2.859761e-05 -3.648841e-05 -3.993848e-05 -3.928008e-05 -3.407082e-05 -2.493898e-05 -1.721428e-05 -9.656048e-06 -5.583643e-06 
1.245992e-02 1.152322e-02 1.163332e-02 1.284105e-02 1.121675e-02 2.872004e-03 7.045840e-03 7.885488e-03 -5.132766e-03 -3.612993e-02 -1.184943e-01 -1.672730e-01 6.861193e-01 6.537176e-01 2.750457e-01 2.743297e-01 2.743283e-01 2.743282e-01 2.743289e-01 2.747290e-01 5.687100e-01 5.725575e-01 -2.900112e-02 1.035007e-02 3.260987e-02 2.558277e-02 1.781510e-02 1.328179e-02 1.128455e-02 1.001868e-02 9.752317e-03 9.427156e-03 9.605626e-03 9.489119e-03 9.687540e-03 9.574124e-03 9.704202e-03 9.568813e-03 9.626536e-03 9.472906e-03 9.457499e-03 9.280535e-03 9.179731e-03 8.957959e-03 8.737215e-03 8.418119e-03 8.012210e-03 7.537878e-03 6.972228e-03 6.569809e-03 6.367455e-03 6.804928e-03 9.405261e-03 2.427628e-02 6.651559e-02 6.399157e-02 -9.121810e-02 -3.702113e-02 2.198705e-01 -4.855832e-02 -3.769053e-01 -1.345451e-01 1.456777e-01 2.689295e-01 2.044856e-01 -3.003015e-01 -3.875711e-01 7.516183e-02 1.803675e-01 2.347521e-01 2.558215e-01 1.584965e-01 1.212513e-01 6.383404e-02 4.845380e-02 4.303107e-02 3.239481e-02 2.266762e-02 1.572920e-02 1.127658e-02 8.717844e-03 7.517791e-03 7.151237e-03 7.243893e-03 7.535604e-03 7.887288e-03 8.235037e-03 8.539081e-03 8.812357e-03 9.024742e-03 9.225254e-03 9.358346e-03 9.509737e-03 9.579511e-03 9.703730e-03 9.721437e-03 9.835326e-03 9.808366e-03 9.925200e-03 9.859277e-03 9.986960e-03 9.884961e-03 1.002599e-02 9.892557e-03 1.004551e-02 9.887333e-03 1.004536e-02 9.872652e-03 1.002262e-02 9.845613e-03 9.961133e-03 9.778561e-03 9.798319e-03 9.549611e-03 9.297966e-03 8.745875e-03 7.822384e-03 6.577511e-03 4.758002e-03 3.191515e-03 1.009215e-03 1.012175e-04 7.909558e-05 8.182370e-03 1.610985e-02 1.671994e-02 1.517959e-02 1.365902e-02 
2.515759e-02 2.211522e-02 2.082833e-02 6.894104e-03 -6.433407e-02 -1.675431e-01 3.745456e-02 4.862152e-02 -2.944614e-02 -5.961816e-02 -2.214192e-01 -2.766610e-01 1.350384e+00 1.304760e+00 5.483159e-01 5.472988e-01 5.471299e-01 5.471523e-01 5.473086e-01 5.478426e-01 1.159415e+00 1.181483e+00 -7.762638e-02 -3.882341e-02 7.896850e-03 -6.138762e-04 -7.556858e-03 -1.556200e-02 -1.412576e-02 -1.843413e-02 -1.465847e-02 -1.854183e-02 -1.419876e-02 -1.819529e-02 -1.380254e-02 -1.788066e-02 -1.380179e-02 -1.788701e-02 -1.438520e-02 -1.813109e-02 -1.511491e-02 -1.829320e-02 -1.616574e-02 -1.895925e-02 -1.792386e-02 -2.014477e-02 -2.020918e-02 -2.204079e-02 -2.346779e-02 -2.520588e-02 -2.815938e-02 -3.021789e-02 -3.421960e-02 -2.890291e-02 -1.354577e-03 1.476524e-02 -7.414138e-02 -5.606494e-02 6.333970e-02 -6.974991e-02 -1.961441e-01 -1.028779e-01 -8.564121e-04 6.101181e-02 1.701119e-02 -1.918352e-01 -2.258622e-01 -7.355223e-04 5.195768e-02 4.853667e-02 8.450770e-02 7.991982e-02 2.687605e-02 -2.304765e-02 -9.782315e-03 -7.782508e-03 -1.348583e-02 -1.869987e-02 -2.184090e-02 -2.352648e-02 -2.382040e-02 -2.346584e-02 -2.250129e-02 -2.156484e-02 -2.033490e-02 -1.947075e-02 -1.831859e-02 -1.797934e-02 -1.693611e-02 -1.704337e-02 -1.572869e-02 -1.637150e-02 -1.485871e-02 -1.624015e-02 -1.431855e-02 -1.622669e-02 -1.371611e-02 -1.618327e-02 -1.330826e-02 -1.632043e-02 -1.317413e-02 -1.638882e-02 -1.313632e-02 -1.627810e-02 -1.328620e-02 -1.596530e-02 -1.364036e-02 -1.547329e-02 -1.436321e-02 -1.488319e-02 -1.537447e-02 -1.406834e-02 -1.677250e-02 -1.355839e-02 -1.932939e-02 -1.450315e-02 -2.470975e-02 -1.946203e-02 -3.650697e-02 -3.196684e-02 -6.313928e-02 -2.399182e-02 -2.838554e-02 -7.317196e-02 4.511686e-03 3.665763e-02 3.497093e-02 2.922271e-02 
3.528419e-02 3.173516e-02 3.295995e-04 -1.848407e-01 -6.393518e-01 -8.395220e-01 1.628967e+00 1.110651e+00 3.444846e-01 5.422713e-01 2.474590e-01 4.523177e-01 1.474323e+00 1.118658e+00 7.789989e-01 7.880504e-01 7.840956e-01 7.844198e-01 7.885699e-01 7.805317e-01 1.151880e+00 1.293805e+00 4.087445e-01 3.771489e-01 4.306758e-01 4.247491e-01 4.494209e-01 4.267389e-01 4.618812e-01 4.293924e-01 4.707727e-01 4.280012e-01 4.737119e-01 4.263717e-01 4.770665e-01 4.289687e-01 4.791442e-01 4.291997e-01 4.736969e-01 4.278820e-01 4.708169e-01 4.338177e-01 4.680286e-01 4.353516e-01 4.580715e-01 4.352490e-01 4.494619e-01 4.362956e-01 4.401452e-01 4.346352e-01 4.268169e-01 4.266186e-01 4.114211e-01 4.172961e-01 4.002517e-01 4.183127e-01 4.120648e-01 4.233895e-01 3.881747e-01 4.060454e-01 4.093851e-01 4.231101e-01 4.004927e-01 4.036643e-01 3.933921e-01 4.224656e-01 4.197056e-01 4.158966e-01 4.000815e-01 4.071751e-01 4.012103e-01 4.078667e-01 4.052468e-01 4.131022e-01 4.120224e-01 4.113553e-01 4.112841e-01 4.124282e-01 4.180125e-01 4.190844e-01 4.260166e-01 4.255325e-01 4.328361e-01 4.300466e-01 4.393225e-01 4.363517e-01 4.475732e-01 4.389127e-01 4.505629e-01 4.389132e-01 4.567779e-01 4.413358e-01 4.614326e-01 4.378135e-01 4.617530e-01 4.352458e-01 4.658228e-01 4.365051e-01 4.682389e-01 4.353788e-01 4.659574e-01 4.358218e-01 4.632442e-01 4.394776e-01 4.586831e-01 4.467223e-01 4.531582e-01 4.563590e-01 4.426012e-01 4.654269e-01 4.304034e-01 4.794388e-01 4.191882e-01 4.939405e-01 4.044598e-01 5.064948e-01 3.882001e-01 5.175844e-01 3.607008e-01 5.197464e-01 2.634125e-01 1.017335e+00 1.237616e+00 -3.798838e-01 -3.204763e-01 -1.144727e-02 4.875483e-02 4.135210e-02 
3.308961e-02 3.343993e-03 -1.750634e-01 -6.472347e-01 3.346206e-01 1.692408e+00 3.007148e+00 2.333006e+00 1.116691e+00 1.542935e+00 1.091131e+00 1.366203e+00 1.287554e+00 1.370991e+00 1.092344e+00 1.327523e+00 1.154787e+00 1.310478e+00 1.182849e+00 1.239228e+00 1.289615e+00 1.344930e+00 1.221998e+00 1.120855e+00 1.332572e+00 1.249265e+00 1.437447e+00 1.331848e+00 1.498581e+00 1.369391e+00 1.506971e+00 1.369407e+00 1.490925e+00 1.372985e+00 1.490282e+00 1.403035e+00 1.499917e+00 1.419829e+00 1.482114e+00 1.419952e+00 1.467006e+00 1.431244e+00 1.461543e+00 1.439315e+00 1.450089e+00 1.440948e+00 1.440120e+00 1.444615e+00 1.438468e+00 1.450148e+00 1.427520e+00 1.432479e+00 1.407082e+00 1.425502e+00 1.407873e+00 1.421922e+00 1.396219e+00 1.404712e+00 1.372374e+00 1.408440e+00 1.407279e+00 1.413047e+00 1.374634e+00 1.374691e+00 1.347540e+00 1.386125e+00 1.364755e+00 1.358081e+00 1.315511e+00 1.321741e+00 1.292332e+00 1.327773e+00 1.318616e+00 1.357905e+00 1.346685e+00 1.364678e+00 1.363115e+00 1.376267e+00 1.396707e+00 1.398594e+00 1.428198e+00 1.403906e+00 1.446726e+00 1.405783e+00 1.469048e+00 1.420621e+00 1.496829e+00 1.425890e+00 1.502487e+00 1.421352e+00 1.500231e+00 1.427458e+00 1.503012e+00 1.432911e+00 1.487904e+00 1.437672e+00 1.472367e+00 1.457684e+00 1.467565e+00 1.485739e+00 1.454077e+00 1.505790e+00 1.430769e+00 1.518737e+00 1.411264e+00 1.539335e+00 1.408385e+00 1.557674e+00 1.396216e+00 1.547024e+00 1.384661e+00 1.541656e+00 1.406187e+00 1.549448e+00 1.442147e+00 1.534247e+00 1.471291e+00 1.504257e+00 1.526879e+00 1.485084e+00 1.610454e+00 1.981246e+00 4.513258e+00 1.692788e+00 -1.487334e+00 -4.031272e-01 1.164512e-02 4.572393e-02 
2.812374e-02 6.972894e-05 -1.912006e-01 -5.761206e-01 1.760461e+00 4.140118e+00 3.581894e-02 6.356400e-01 6.394151e-01 7.189039e-01 5.929796e-01 5.078594e-01 -5.612584e-01 -2.104278e-01 -1.913192e-02 -1.367747e-01 -1.447994e-01 -1.628363e-01 -8.629762e-02 -8.647401e-02 -1.528684e-01 -4.856075e-01 5.759959e-01 4.831273e-01 7.176578e-01 5.705209e-01 8.002694e-01 6.738822e-01 8.517157e-01 7.229529e-01 8.384114e-01 7.279292e-01 8.042244e-01 7.395255e-01 7.927752e-01 7.805662e-01 8.003280e-01 8.063948e-01 7.847645e-01 8.093824e-01 7.659663e-01 8.091116e-01 7.612996e-01 8.143310e-01 7.656872e-01 8.122740e-01 7.672926e-01 8.080788e-01 7.815173e-01 8.109704e-01 7.885064e-01 7.903271e-01 7.807575e-01 7.842569e-01 7.991948e-01 7.906590e-01 7.928579e-01 7.677314e-01 7.707920e-01 7.612152e-01 7.721985e-01 7.559087e-01 7.420076e-01 7.254033e-01 7.112486e-01 7.028329e-01 6.862307e-01 6.836687e-01 6.547107e-01 6.597463e-01 6.298224e-01 6.608973e-01 6.538929e-01 7.106653e-01 7.005310e-01 7.324029e-01 7.239383e-01 7.443784e-01 7.602147e-01 7.661444e-01 7.962420e-01 7.653339e-01 8.168321e-01 7.638668e-01 8.430114e-01 7.757996e-01 8.708978e-01 7.807139e-01 8.763841e-01 7.756649e-01 8.592801e-01 7.798998e-01 8.531438e-01 7.987784e-01 8.297177e-01 8.139412e-01 7.946201e-01 8.427772e-01 7.801031e-01 8.909933e-01 7.641058e-01 9.226942e-01 7.333383e-01 9.347494e-01 7.132469e-01 9.491782e-01 7.216380e-01 9.534364e-01 7.291050e-01 9.134192e-01 7.421540e-01 8.675446e-01 8.043577e-01 8.391580e-01 8.970013e-01 7.742218e-01 9.744853e-01 6.719261e-01 1.095438e+00 5.663608e-01 1.401968e+00 -7.177435e-03 3.558952e+00 3.343672e+00 -1.820325e+00 -6.585195e-01 -5.515107e-02 2.983021e-02 
1.938286e-02 5.892204e-03 -7.478058e-02 -1.769411e-01 1.039057e+00 2.244168e+00 -2.170847e+00 -1.183821e+00 -2.782114e-01 -5.636577e-01 -4.253473e-01 -5.560317e-01 1.099851e+00 -2.714461e-01 -4.554448e-01 -7.008205e-01 -3.289441e-01 -7.449232e-01 -3.397380e-01 -7.902914e-01 8.660038e-02 6.834839e-01 -3.462597e-01 -5.265508e-01 -4.272452e-01 -4.792855e-01 -4.156405e-01 -4.502604e-01 -4.181676e-01 -4.354286e-01 -4.363846e-01 -4.302753e-01 -4.544071e-01 -4.223048e-01 -4.644632e-01 -4.090726e-01 -4.659236e-01 -3.993921e-01 -4.667973e-01 -3.972339e-01 -4.722558e-01 -4.063675e-01 -4.727650e-01 -4.089945e-01 -4.613192e-01 -4.134521e-01 -4.533673e-01 -4.215479e-01 -4.411418e-01 -4.256632e-01 -4.292095e-01 -4.341104e-01 -4.249876e-01 -4.408524e-01 -4.176405e-01 -4.412462e-01 -4.190509e-01 -4.480774e-01 -4.198725e-01 -4.583322e-01 -4.452914e-01 -4.631242e-01 -4.438682e-01 -4.602027e-01 -4.538560e-01 -4.910101e-01 -4.877367e-01 -4.813089e-01 -4.725447e-01 -4.694662e-01 -4.745034e-01 -4.740649e-01 -4.774285e-01 -4.566146e-01 -4.598534e-01 -4.433764e-01 -4.512574e-01 -4.397967e-01 -4.415013e-01 -4.337940e-01 -4.289491e-01 -4.343313e-01 -4.204213e-01 -4.341624e-01 -4.111804e-01 -4.334045e-01 -4.055361e-01 -4.324229e-01 -4.035031e-01 -4.331331e-01 -4.153748e-01 -4.338392e-01 -4.221738e-01 -4.216101e-01 -4.310235e-01 -4.117832e-01 -4.498406e-01 -4.012567e-01 -4.595201e-01 -3.799818e-01 -4.644214e-01 -3.665927e-01 -4.747835e-01 -3.645339e-01 -4.789160e-01 -3.661332e-01 -4.709548e-01 -3.749753e-01 -4.566183e-01 -4.005422e-01 -4.374013e-01 -4.355709e-01 -4.001252e-01 -4.664853e-01 -3.472760e-01 -5.136126e-01 -3.038353e-01 -5.885173e-01 -2.539995e-01 -7.023193e-01 -1.143066e-01 -1.665412e+00 -3.891483e-01 1.537582e+00 -4.755382e-01 -1.807104e-01 6.514867e-03 2.405742e-02 
9.373099e-03 9.120270e-03 -5.664483e-04 -3.638956e-04 1.884347e-01 4.526930e-01 -7.800205e-01 -5.024329e-01 -1.216194e-01 -2.637323e-01 -2.183698e-01 -3.961344e-01 3.704442e-01 1.680421e+00 2.205439e+00 1.736228e+00 2.126687e+00 1.935293e+00 1.927859e+00 2.234423e+00 1.662283e+00 1.489296e-01 -3.305255e-01 -2.615983e-01 -2.218237e-01 -2.165206e-01 -2.223864e-01 -2.162383e-01 -2.282229e-01 -2.153227e-01 -2.327136e-01 -2.132033e-01 -2.348171e-01 -2.112290e-01 -2.369718e-01 -2.113056e-01 -2.383341e-01 -2.109060e-01 -2.364072e-01 -2.105125e-01 -2.357467e-01 -2.140453e-01 -2.348607e-01 -2.156772e-01 -2.302926e-01 -2.168033e-01 -2.263593e-01 -2.187667e-01 -2.223732e-01 -2.205444e-01 -2.189399e-01 -2.236663e-01 -2.213467e-01 -2.348875e-01 -2.341413e-01 -2.500560e-01 -2.430207e-01 -2.557247e-01 -2.494491e-01 -2.633576e-01 -2.472967e-01 -2.408292e-01 -2.208707e-01 -2.201556e-01 -2.137664e-01 -2.213881e-01 -2.042599e-01 -1.846871e-01 -1.600280e-01 -1.481041e-01 -1.454321e-01 -1.551151e-01 -1.656628e-01 -1.752432e-01 -1.867847e-01 -1.958763e-01 -2.087968e-01 -2.144723e-01 -2.226070e-01 -2.225552e-01 -2.257141e-01 -2.234175e-01 -2.243444e-01 -2.221452e-01 -2.229850e-01 -2.226058e-01 -2.236671e-01 -2.224385e-01 -2.231834e-01 -2.218380e-01 -2.253591e-01 -2.225206e-01 -2.271691e-01 -2.201099e-01 -2.276290e-01 -2.181036e-01 -2.305048e-01 -2.175584e-01 -2.326181e-01 -2.153712e-01 -2.327437e-01 -2.140431e-01 -2.330290e-01 -2.145379e-01 -2.322744e-01 -2.168467e-01 -2.304881e-01 -2.207533e-01 -2.259601e-01 -2.255051e-01 -2.200725e-01 -2.334177e-01 -2.134654e-01 -2.424144e-01 -2.047011e-01 -2.534048e-01 -1.976411e-01 -2.711187e-01 -1.940337e-01 -3.045296e-01 -1.802504e-01 -6.136778e-01 -5.576934e-01 2.062363e-01 6.015024e-02 2.537808e-02 1.695331e-02 1.061446e-02 
