# vtk DataFile Version 2.0
Comment goes here
ASCII

DATASET STRUCTURED_POINTS
FIELD FieldData 1
TIME 1 1 double
0.73000000
DIMENSIONS    128   16   1

ORIGIN    0.000   0.000   0.000
SPACING   0.0078125 0.015625   1.000

POINT_DATA   2048
SCALARS P double
LOOKUP_TABLE default

1.803471e-01 1.819549e-01 1.812989e-01 1.851979e-01 1.798507e-01 1.876943e-01 1.744538e-01 1.886080e-01 1.766332e-01 1.867970e-01 1.782588e-01 1.833767e-01 1.772806e-01 1.764106e-01 1.705545e-01 1.659352e-01 1.617602e-01 1.528592e-01 1.525538e-01 1.409723e-01 1.443118e-01 1.344213e-01 1.398998e-01 1.315523e-01 1.386063e-01 1.303393e-01 1.385523e-01 1.300473e-01 1.387963e-01 1.302690e-01 1.388408e-01 1.307638e-01 1.384954e-01 1.314450e-01 1.378130e-01 1.323218e-01 1.369639e-01 1.333876e-01 1.360972e-01 1.345321e-01 1.352605e-01 1.355397e-01 1.344310e-01 1.362098e-01 1.336523e-01 1.365156e-01 1.331095e-01 1.365898e-01 1.329846e-01 1.365232e-01 1.332722e-01 1.362910e-01 1.338723e-01 1.359960e-01 1.349398e-01 1.362554e-01 1.372707e-01 1.386736e-01 1.424453e-01 1.403980e-01 1.460735e-01 1.442083e-01 1.518342e-01 1.476590e-01 1.561519e-01 1.505562e-01 1.623466e-01 1.594454e-01 1.666836e-01 1.618525e-01 1.649014e-01 1.603475e-01 1.615618e-01 1.575692e-01 1.599786e-01 1.575884e-01 1.598583e-01 1.584827e-01 1.602197e-01 1.595613e-01 1.607688e-01 1.605521e-01 1.614330e-01 1.613076e-01 1.622288e-01 1.617603e-01 1.632149e-01 1.619032e-01 1.644398e-01 1.617801e-01 1.659229e-01 1.614892e-01 1.676312e-01 1.611338e-01 1.694191e-01 1.607732e-01 1.710535e-01 1.604962e-01 1.723594e-01 1.605099e-01 1.732691e-01 1.610458e-01 1.737107e-01 1.622017e-01 1.735603e-01 1.639382e-01 1.727572e-01 1.661742e-01 1.714006e-01 1.687933e-01 1.697175e-01 1.715749e-01 1.680015e-01 1.741843e-01 1.666039e-01 1.762348e-01 1.659350e-01 1.773754e-01 1.664322e-01 1.773954e-01 1.684892e-01 1.763714e-01 1.723756e-01 1.743079e-01 1.752699e-01 1.757000e-01 1.780928e-01 1.785774e-01 
1.650650e-01 1.674522e-01 1.655804e-01 1.701238e-01 1.631883e-01 1.722875e-01 1.550745e-01 1.713979e-01 1.580166e-01 1.674831e-01 1.605914e-01 1.620220e-01 1.615607e-01 1.537771e-01 1.599493e-01 1.455786e-01 1.575167e-01 1.391241e-01 1.543345e-01 1.340905e-01 1.499803e-01 1.304846e-01 1.449195e-01 1.283265e-01 1.420451e-01 1.270209e-01 1.404304e-01 1.264676e-01 1.394464e-01 1.265026e-01 1.386304e-01 1.269281e-01 1.376675e-01 1.275172e-01 1.363846e-01 1.281322e-01 1.348541e-01 1.288057e-01 1.333581e-01 1.296673e-01 1.321757e-01 1.306336e-01 1.312219e-01 1.312936e-01 1.302665e-01 1.314094e-01 1.293826e-01 1.311441e-01 1.288771e-01 1.308073e-01 1.289331e-01 1.305456e-01 1.295547e-01 1.306410e-01 1.311234e-01 1.320736e-01 1.348428e-01 1.370792e-01 1.441426e-01 1.419363e-01 1.495154e-01 1.449417e-01 1.543168e-01 1.489942e-01 1.594428e-01 1.519738e-01 1.620495e-01 1.542934e-01 1.617837e-01 1.557365e-01 1.611646e-01 1.572087e-01 1.576295e-01 1.537364e-01 1.552657e-01 1.525126e-01 1.540129e-01 1.521533e-01 1.533300e-01 1.521609e-01 1.529358e-01 1.522673e-01 1.527665e-01 1.523439e-01 1.528689e-01 1.523314e-01 1.533512e-01 1.522303e-01 1.542368e-01 1.519544e-01 1.554042e-01 1.514769e-01 1.567690e-01 1.508818e-01 1.582058e-01 1.502869e-01 1.595766e-01 1.498726e-01 1.607344e-01 1.498148e-01 1.615254e-01 1.502473e-01 1.617467e-01 1.511673e-01 1.612416e-01 1.526547e-01 1.601427e-01 1.548206e-01 1.586088e-01 1.574928e-01 1.567143e-01 1.602815e-01 1.546163e-01 1.628062e-01 1.527593e-01 1.648254e-01 1.517134e-01 1.659678e-01 1.518930e-01 1.657927e-01 1.537049e-01 1.640016e-01 1.576408e-01 1.595622e-01 1.604852e-01 1.616965e-01 1.631012e-01 1.645156e-01 
1.829375e-01 1.822359e-01 1.860637e-01 1.866647e-01 1.876305e-01 1.908048e-01 1.590960e-01 1.940252e-01 1.775759e-01 1.898791e-01 1.829698e-01 1.895412e-01 1.877019e-01 1.834303e-01 1.760929e-01 1.719606e-01 1.635931e-01 1.515906e-01 1.513898e-01 1.318246e-01 1.369879e-01 1.259296e-01 1.330503e-01 1.279460e-01 1.360787e-01 1.284107e-01 1.377531e-01 1.288264e-01 1.388292e-01 1.296072e-01 1.394395e-01 1.307365e-01 1.394474e-01 1.318646e-01 1.386136e-01 1.327220e-01 1.370868e-01 1.334700e-01 1.355122e-01 1.346245e-01 1.345999e-01 1.362415e-01 1.341466e-01 1.374656e-01 1.334732e-01 1.376780e-01 1.325240e-01 1.370662e-01 1.317706e-01 1.360680e-01 1.313288e-01 1.344168e-01 1.304469e-01 1.312583e-01 1.279998e-01 1.251873e-01 1.236288e-01 1.401371e-01 1.485129e-01 1.309473e-01 1.360998e-01 1.446281e-01 1.572531e-01 1.501806e-01 1.491490e-01 1.270268e-01 1.728366e-01 1.909535e-01 1.957362e-01 1.830761e-01 1.735673e-01 1.681794e-01 1.536070e-01 1.458522e-01 1.528124e-01 1.537538e-01 1.577280e-01 1.579435e-01 1.601610e-01 1.601442e-01 1.612632e-01 1.612973e-01 1.617826e-01 1.618982e-01 1.622457e-01 1.622086e-01 1.630973e-01 1.624279e-01 1.644752e-01 1.623759e-01 1.661192e-01 1.619241e-01 1.679236e-01 1.611878e-01 1.697856e-01 1.603832e-01 1.716564e-01 1.598471e-01 1.734064e-01 1.597813e-01 1.747734e-01 1.602615e-01 1.753518e-01 1.611448e-01 1.748688e-01 1.626780e-01 1.737312e-01 1.652803e-01 1.722057e-01 1.686927e-01 1.701569e-01 1.722239e-01 1.675544e-01 1.753538e-01 1.650377e-01 1.780055e-01 1.634879e-01 1.797066e-01 1.633080e-01 1.796799e-01 1.648616e-01 1.786538e-01 1.742392e-01 1.672416e-01 1.753603e-01 1.727332e-01 1.791991e-01 1.776000e-01 
1.707595e-01 1.684445e-01 1.770844e-01 1.719965e-01 1.854566e-01 1.735977e-01 1.226936e-01 1.904436e-01 1.718893e-01 1.858172e-01 1.815515e-01 1.870180e-01 1.881360e-01 1.619994e-01 1.413440e-01 1.135219e-01 8.831966e-02 3.378561e-02 3.405206e-02 -4.227663e-02 -2.750962e-02 -6.819366e-02 -5.284268e-02 -6.249357e-02 -4.906652e-02 -5.810487e-02 -4.554141e-02 -5.369969e-02 -4.203119e-02 -4.912415e-02 -3.855471e-02 -4.441136e-02 -3.520771e-02 -3.972991e-02 -3.212214e-02 -3.521275e-02 -2.926622e-02 -3.082535e-02 -2.639605e-02 -2.639628e-02 -2.322978e-02 -2.191076e-02 -1.979697e-02 -1.767629e-02 -1.632633e-02 -1.393512e-02 -1.287544e-02 -1.063678e-02 -9.371546e-03 -7.601579e-03 -5.913680e-03 -4.902510e-03 -2.951320e-03 -2.864313e-03 -1.231610e-03 -2.299254e-03 3.064922e-03 7.584032e-02 1.086336e-01 8.199542e-02 1.093766e-01 1.563646e-01 1.737605e-01 1.778836e-01 1.680196e-01 1.331741e-01 2.773180e-01 2.947251e-01 2.728545e-01 2.189233e-01 1.624815e-01 1.446689e-01 6.827260e-02 3.703617e-02 4.295878e-02 4.336470e-02 4.899584e-02 4.952478e-02 5.449420e-02 5.495154e-02 5.947525e-02 5.996411e-02 6.416146e-02 6.471400e-02 6.876876e-02 6.927713e-02 7.350117e-02 7.372626e-02 7.843973e-02 7.802827e-02 8.349363e-02 8.218436e-02 8.862117e-02 8.625753e-02 9.377899e-02 9.035510e-02 9.892205e-02 9.461264e-02 1.039641e-01 9.910362e-02 1.087608e-01 1.038521e-01 1.131448e-01 1.088188e-01 1.170080e-01 1.141119e-01 1.205089e-01 1.198950e-01 1.237589e-01 1.260642e-01 1.267362e-01 1.323233e-01 1.294687e-01 1.384128e-01 1.322409e-01 1.442238e-01 1.354213e-01 1.495484e-01 1.391894e-01 1.542917e-01 1.435713e-01 1.628715e-01 1.651194e-01 1.522586e-01 1.609849e-01 1.588966e-01 1.655710e-01 1.639974e-01 
1.878448e-01 1.831075e-01 1.964875e-01 1.880462e-01 2.073854e-01 1.909660e-01 1.719229e-01 2.140979e-01 2.145781e-01 2.194174e-01 2.291302e-01 2.248616e-01 2.401779e-01 2.061185e-01 1.066912e-01 9.730125e-02 -5.504312e-02 -1.412456e-01 -2.236922e-01 -3.681120e-01 -3.953234e-01 -4.315872e-01 -4.140426e-01 -4.206349e-01 -4.078051e-01 -4.087353e-01 -3.994227e-01 -3.964690e-01 -3.899136e-01 -3.843218e-01 -3.796682e-01 -3.723866e-01 -3.687026e-01 -3.604228e-01 -3.568579e-01 -3.482349e-01 -3.442730e-01 -3.360211e-01 -3.315033e-01 -3.243092e-01 -3.191400e-01 -3.131600e-01 -3.068564e-01 -3.017087e-01 -2.938709e-01 -2.892719e-01 -2.800252e-01 -2.758541e-01 -2.656960e-01 -2.615530e-01 -2.508870e-01 -2.456299e-01 -2.346074e-01 -2.265286e-01 -2.152829e-01 -2.020071e-01 -1.864647e-01 -1.114291e-01 -7.892696e-02 -7.967076e-02 -5.009213e-02 -1.254262e-02 -9.354749e-03 1.442090e-03 -6.789151e-03 -2.190464e-02 7.680892e-02 4.720231e-02 1.628571e-02 -3.595923e-02 -7.400741e-02 -8.696100e-02 -1.414637e-01 -1.589429e-01 -1.495960e-01 -1.464434e-01 -1.359334e-01 -1.333485e-01 -1.223770e-01 -1.203121e-01 -1.088516e-01 -1.072150e-01 -9.539453e-02 -9.410858e-02 -8.213983e-02 -8.106766e-02 -6.930058e-02 -6.818440e-02 -5.689744e-02 -5.518063e-02 -4.465372e-02 -4.181634e-02 -3.248654e-02 -2.812860e-02 -2.035521e-02 -1.425289e-02 -8.318077e-03 -4.585424e-04 3.633498e-03 1.310868e-02 1.564306e-02 2.641782e-02 2.804066e-02 3.964048e-02 4.105253e-02 5.255001e-02 5.430659e-02 6.472012e-02 6.761314e-02 7.632355e-02 8.122763e-02 8.786967e-02 9.535182e-02 9.964002e-02 1.095866e-01 1.114645e-01 1.233201e-01 1.236197e-01 1.364040e-01 1.369760e-01 1.486119e-01 1.555971e-01 1.712539e-01 1.647216e-01 1.730743e-01 1.713731e-01 1.803436e-01 1.773972e-01 
1.702596e-01 1.709482e-01 1.772200e-01 1.777306e-01 1.837143e-01 1.845974e-01 1.863832e-01 1.992217e-01 2.013087e-01 2.108718e-01 2.143884e-01 2.215986e-01 2.259948e-01 2.306747e-01 6.712846e-02 5.365920e-02 -9.793813e-02 -1.282942e-01 -2.694716e-01 -3.025416e-01 -4.491196e-01 -4.558021e-01 -4.405381e-01 -4.436328e-01 -4.302855e-01 -4.307453e-01 -4.196938e-01 -4.178523e-01 -4.089015e-01 -4.052485e-01 -3.978607e-01 -3.929520e-01 -3.864024e-01 -3.807403e-01 -3.743116e-01 -3.684418e-01 -3.616614e-01 -3.561965e-01 -3.488844e-01 -3.443962e-01 -3.364532e-01 -3.330777e-01 -3.241637e-01 -3.215878e-01 -3.114723e-01 -3.094232e-01 -2.983164e-01 -2.966517e-01 -2.850676e-01 -2.835209e-01 -2.718936e-01 -2.698271e-01 -2.583930e-01 -2.551161e-01 -2.440857e-01 -2.391535e-01 -2.283275e-01 -2.193956e-01 -2.163015e-01 -2.158465e-01 -2.118664e-01 -2.139469e-01 -2.157165e-01 -2.173185e-01 -2.180747e-01 -2.175751e-01 -2.147206e-01 -2.318706e-01 -2.323950e-01 -2.364476e-01 -2.259947e-01 -2.261197e-01 -2.099100e-01 -1.998035e-01 -1.828511e-01 -1.765070e-01 -1.621473e-01 -1.580705e-01 -1.449032e-01 -1.420381e-01 -1.293415e-01 -1.271884e-01 -1.147174e-01 -1.129729e-01 -1.007614e-01 -9.913514e-02 -8.744988e-02 -8.557353e-02 -7.469497e-02 -7.199509e-02 -6.221644e-02 -5.818490e-02 -4.989839e-02 -4.415316e-02 -3.767080e-02 -3.001226e-02 -2.553575e-02 -1.598189e-02 -1.344372e-02 -2.189806e-03 -1.239852e-03 1.132538e-02 1.135339e-02 2.467037e-02 2.452147e-02 3.765448e-02 3.798237e-02 4.994933e-02 5.158119e-02 6.169736e-02 6.548596e-02 7.332119e-02 7.981072e-02 8.508501e-02 9.420474e-02 9.691566e-02 1.081642e-01 1.090424e-01 1.215692e-01 1.219949e-01 1.343873e-01 1.364025e-01 1.473751e-01 1.511920e-01 1.556405e-01 1.576906e-01 1.631395e-01 1.642763e-01 
1.862767e-01 1.847365e-01 1.945136e-01 1.932944e-01 2.021362e-01 2.026657e-01 2.079189e-01 2.145130e-01 2.212143e-01 2.258423e-01 2.349425e-01 2.377675e-01 2.487274e-01 2.513792e-01 8.112636e-02 7.122131e-02 -9.170000e-02 -1.156009e-01 -2.703109e-01 -2.955822e-01 -4.555192e-01 -4.557773e-01 -4.418661e-01 -4.416606e-01 -4.296616e-01 -4.280103e-01 -4.180367e-01 -4.147055e-01 -4.065547e-01 -4.017067e-01 -3.949832e-01 -3.889614e-01 -3.831737e-01 -3.763867e-01 -3.710453e-01 -3.639248e-01 -3.586264e-01 -3.515885e-01 -3.460404e-01 -3.394198e-01 -3.333989e-01 -3.273553e-01 -3.206611e-01 -3.151792e-01 -3.077102e-01 -3.027018e-01 -2.945301e-01 -2.898709e-01 -2.812162e-01 -2.767198e-01 -2.678683e-01 -2.633122e-01 -2.546034e-01 -2.499622e-01 -2.418907e-01 -2.378206e-01 -2.312718e-01 -2.298943e-01 -2.278962e-01 -2.273651e-01 -2.252035e-01 -2.230775e-01 -2.176964e-01 -2.149441e-01 -2.096411e-01 -2.070672e-01 -2.011667e-01 -1.968714e-01 -1.863546e-01 -1.838944e-01 -1.724334e-01 -1.724285e-01 -1.625067e-01 -1.618738e-01 -1.518902e-01 -1.505451e-01 -1.401900e-01 -1.385659e-01 -1.278100e-01 -1.261414e-01 -1.150521e-01 -1.134055e-01 -1.021212e-01 -1.004509e-01 -8.916825e-02 -8.733860e-02 -7.630345e-02 -7.409972e-02 -6.356681e-02 -6.070559e-02 -5.092667e-02 -4.713271e-02 -3.834961e-02 -3.341121e-02 -2.580201e-02 -1.961305e-02 -1.325421e-02 -5.840122e-03 -6.589914e-04 7.820421e-03 1.205881e-02 2.131061e-02 2.499234e-02 3.460277e-02 3.819292e-02 4.763228e-02 5.161046e-02 6.033824e-02 6.519328e-02 7.277438e-02 7.892957e-02 8.507524e-02 9.277190e-02 9.735458e-02 1.065633e-01 1.096623e-01 1.201082e-01 1.220700e-01 1.332943e-01 1.346308e-01 1.460982e-01 1.471885e-01 1.586986e-01 1.583624e-01 1.686323e-01 1.677415e-01 1.776993e-01 1.763672e-01 
1.697711e-01 1.722911e-01 1.781769e-01 1.813407e-01 1.867995e-01 1.912644e-01 1.961418e-01 2.027959e-01 2.079025e-01 2.152069e-01 2.213062e-01 2.286793e-01 2.363941e-01 2.438346e-01 6.386583e-02 6.287557e-02 -1.094682e-01 -1.157613e-01 -2.856861e-01 -2.912368e-01 -4.659705e-01 -4.638756e-01 -4.494731e-01 -4.481399e-01 -4.352707e-01 -4.336278e-01 -4.223383e-01 -4.198849e-01 -4.100507e-01 -4.066825e-01 -3.980181e-01 -3.938751e-01 -3.859977e-01 -3.813544e-01 -3.738632e-01 -3.690561e-01 -3.616000e-01 -3.569620e-01 -3.492695e-01 -3.450623e-01 -3.369336e-01 -3.332843e-01 -3.245819e-01 -3.214844e-01 -3.121809e-01 -3.095570e-01 -2.997702e-01 -2.974956e-01 -2.874562e-01 -2.853521e-01 -2.753421e-01 -2.731982e-01 -2.635410e-01 -2.612331e-01 -2.523566e-01 -2.500171e-01 -2.425800e-01 -2.405206e-01 -2.333861e-01 -2.300521e-01 -2.236815e-01 -2.211327e-01 -2.162627e-01 -2.129062e-01 -2.073715e-01 -2.055314e-01 -1.981358e-01 -1.994263e-01 -1.906051e-01 -1.919187e-01 -1.823971e-01 -1.813181e-01 -1.731383e-01 -1.741180e-01 -1.640017e-01 -1.631073e-01 -1.520997e-01 -1.506127e-01 -1.392131e-01 -1.376050e-01 -1.260473e-01 -1.244242e-01 -1.128861e-01 -1.111709e-01 -9.985460e-02 -9.786126e-02 -8.701330e-02 -8.448439e-02 -7.437160e-02 -7.100902e-02 -6.189448e-02 -5.742063e-02 -4.953632e-02 -4.374261e-02 -3.724026e-02 -3.002833e-02 -2.494351e-02 -1.635714e-02 -1.257898e-02 -2.814133e-03 -7.521457e-05 1.052936e-02 1.264245e-02 2.362994e-02 2.562119e-02 3.644388e-02 3.884178e-02 4.894455e-02 5.225915e-02 6.117818e-02 6.582456e-02 7.325028e-02 7.945093e-02 8.526806e-02 9.297672e-02 9.730447e-02 1.062019e-01 1.094169e-01 1.189465e-01 1.215976e-01 1.310377e-01 1.336474e-01 1.422822e-01 1.449700e-01 1.522072e-01 1.546650e-01 1.612353e-01 1.635703e-01 
1.857564e-01 1.852971e-01 1.945986e-01 1.947987e-01 2.034573e-01 2.050211e-01 2.129394e-01 2.163850e-01 2.249210e-01 2.286600e-01 2.387497e-01 2.422964e-01 2.544445e-01 2.580607e-01 7.855712e-02 7.415622e-02 -9.856754e-02 -1.081991e-01 -2.791327e-01 -2.866418e-01 -4.641800e-01 -4.603887e-01 -4.470451e-01 -4.442560e-01 -4.325663e-01 -4.295427e-01 -4.195466e-01 -4.156739e-01 -4.072341e-01 -4.023441e-01 -3.951817e-01 -3.893876e-01 -3.831480e-01 -3.767214e-01 -3.710328e-01 -3.643051e-01 -3.588176e-01 -3.521037e-01 -3.465151e-01 -3.400638e-01 -3.341399e-01 -3.281144e-01 -3.217107e-01 -3.161948e-01 -3.092736e-01 -3.042863e-01 -2.969132e-01 -2.924154e-01 -2.847294e-01 -2.806312e-01 -2.728101e-01 -2.690028e-01 -2.612393e-01 -2.576442e-01 -2.501062e-01 -2.466664e-01 -2.393745e-01 -2.357094e-01 -2.283668e-01 -2.244697e-01 -2.168132e-01 -2.133026e-01 -2.062336e-01 -2.030564e-01 -1.961616e-01 -1.933587e-01 -1.856339e-01 -1.836624e-01 -1.767590e-01 -1.748937e-01 -1.681684e-01 -1.678358e-01 -1.600256e-01 -1.585155e-01 -1.494262e-01 -1.478599e-01 -1.379456e-01 -1.364152e-01 -1.259164e-01 -1.244583e-01 -1.135572e-01 -1.121306e-01 -1.010100e-01 -9.950146e-02 -8.837030e-02 -8.661078e-02 -7.570659e-02 -7.349139e-02 -6.306550e-02 -6.017952e-02 -5.047212e-02 -4.671877e-02 -3.792537e-02 -3.315500e-02 -2.539213e-02 -1.953257e-02 -1.281794e-02 -5.906652e-03 -1.536690e-04 7.646851e-03 1.263323e-02 2.105029e-02 2.557145e-02 3.425366e-02 3.868981e-02 4.724030e-02 5.199773e-02 6.001430e-02 6.546697e-02 7.259597e-02 7.903399e-02 8.502624e-02 9.261109e-02 9.736073e-02 1.060926e-01 1.096462e-01 1.193577e-01 1.218838e-01 1.322741e-01 1.339821e-01 1.446940e-01 1.457024e-01 1.564086e-01 1.566312e-01 1.669587e-01 1.666397e-01 1.766359e-01 1.760568e-01 
1.697782e-01 1.722955e-01 1.781776e-01 1.813384e-01 1.867911e-01 1.912573e-01 1.961207e-01 2.027842e-01 2.078669e-01 2.151933e-01 2.212622e-01 2.286683e-01 2.363482e-01 2.438273e-01 6.382666e-02 6.280265e-02 -1.094628e-01 -1.158747e-01 -2.856341e-01 -2.912785e-01 -4.659322e-01 -4.636860e-01 -4.494434e-01 -4.479594e-01 -4.352884e-01 -4.334788e-01 -4.224253e-01 -4.197614e-01 -4.101807e-01 -4.065350e-01 -3.981244e-01 -3.936486e-01 -3.860481e-01 -3.810777e-01 -3.739298e-01 -3.688530e-01 -3.618081e-01 -3.569493e-01 -3.496771e-01 -3.452425e-01 -3.374792e-01 -3.335802e-01 -3.251997e-01 -3.218950e-01 -3.129324e-01 -3.102324e-01 -3.008444e-01 -2.986784e-01 -2.890569e-01 -2.872399e-01 -2.775557e-01 -2.758307e-01 -2.662391e-01 -2.643537e-01 -2.549794e-01 -2.526901e-01 -2.434853e-01 -2.402641e-01 -2.312451e-01 -2.281487e-01 -2.196319e-01 -2.166780e-01 -2.083963e-01 -2.058081e-01 -1.976803e-01 -1.956362e-01 -1.878934e-01 -1.863929e-01 -1.791458e-01 -1.782177e-01 -1.705160e-01 -1.706518e-01 -1.645934e-01 -1.644461e-01 -1.562193e-01 -1.556188e-01 -1.459773e-01 -1.452071e-01 -1.346462e-01 -1.338712e-01 -1.227419e-01 -1.219546e-01 -1.105410e-01 -1.095956e-01 -9.818883e-02 -9.685668e-02 -8.577914e-02 -8.378912e-02 -7.339010e-02 -7.047497e-02 -6.109664e-02 -5.701502e-02 -4.892558e-02 -4.347758e-02 -3.681207e-02 -2.987288e-02 -2.462182e-02 -1.622074e-02 -1.227058e-02 -2.641676e-03 2.345205e-04 1.070369e-02 1.288783e-02 2.373489e-02 2.575401e-02 3.648539e-02 3.891432e-02 4.900733e-02 5.234464e-02 6.130475e-02 6.591813e-02 7.339629e-02 7.949082e-02 8.537580e-02 9.294609e-02 9.738686e-02 1.061530e-01 1.095123e-01 1.189208e-01 1.217064e-01 1.310388e-01 1.337404e-01 1.422944e-01 1.450251e-01 1.522211e-01 1.546950e-01 1.612468e-01 1.635846e-01 
1.862968e-01 1.847633e-01 1.945227e-01 1.933139e-01 2.021313e-01 2.026833e-01 2.078938e-01 2.145321e-01 2.211551e-01 2.258682e-01 2.348600e-01 2.378039e-01 2.486349e-01 2.514109e-01 8.093710e-02 7.089450e-02 -9.167284e-02 -1.164480e-01 -2.700259e-01 -2.964847e-01 -4.555555e-01 -4.554913e-01 -4.419009e-01 -4.413661e-01 -4.297708e-01 -4.277604e-01 -4.182735e-01 -4.145101e-01 -4.068899e-01 -4.014984e-01 -3.953118e-01 -3.886576e-01 -3.834505e-01 -3.760595e-01 -3.714205e-01 -3.638277e-01 -3.593587e-01 -3.519747e-01 -3.472807e-01 -3.403470e-01 -3.350971e-01 -3.287567e-01 -3.227935e-01 -3.171687e-01 -3.105330e-01 -3.057242e-01 -2.985946e-01 -2.946203e-01 -2.871943e-01 -2.839307e-01 -2.763738e-01 -2.736322e-01 -2.661484e-01 -2.638303e-01 -2.567473e-01 -2.549761e-01 -2.487703e-01 -2.478805e-01 -2.416532e-01 -2.385592e-01 -2.322359e-01 -2.283934e-01 -2.223474e-01 -2.185419e-01 -2.117330e-01 -2.077847e-01 -2.002663e-01 -1.964695e-01 -1.880682e-01 -1.849255e-01 -1.766730e-01 -1.730161e-01 -1.631894e-01 -1.604367e-01 -1.504781e-01 -1.483360e-01 -1.379005e-01 -1.363185e-01 -1.253466e-01 -1.242614e-01 -1.128159e-01 -1.120626e-01 -1.002686e-01 -9.959875e-02 -8.766827e-02 -8.679805e-02 -7.501899e-02 -7.365317e-02 -6.237315e-02 -6.024904e-02 -4.983109e-02 -4.671683e-02 -3.744733e-02 -3.313318e-02 -2.514661e-02 -1.946561e-02 -1.274279e-02 -5.683061e-03 -1.397500e-04 8.074069e-03 1.260142e-02 2.159084e-02 2.542919e-02 3.477204e-02 3.842786e-02 4.769940e-02 5.173950e-02 6.046016e-02 6.534985e-02 7.302370e-02 7.909889e-02 8.536122e-02 9.283413e-02 9.756432e-02 1.064892e-01 1.098238e-01 1.200036e-01 1.222586e-01 1.332403e-01 1.348467e-01 1.461052e-01 1.473741e-01 1.587398e-01 1.584723e-01 1.686707e-01 1.678083e-01 1.777293e-01 1.764084e-01 
1.702885e-01 1.709481e-01 1.772333e-01 1.777169e-01 1.837036e-01 1.845757e-01 1.863266e-01 1.991751e-01 2.011781e-01 2.108140e-01 2.142296e-01 2.215603e-01 2.258361e-01 2.306583e-01 6.685945e-02 5.333948e-02 -9.792901e-02 -1.290826e-01 -2.690749e-01 -3.033048e-01 -4.489147e-01 -4.551820e-01 -4.402951e-01 -4.429987e-01 -4.302505e-01 -4.303206e-01 -4.200596e-01 -4.176778e-01 -4.095571e-01 -4.050246e-01 -3.983072e-01 -3.921567e-01 -3.862647e-01 -3.794147e-01 -3.740088e-01 -3.673640e-01 -3.620534e-01 -3.561483e-01 -3.503531e-01 -3.452446e-01 -3.383515e-01 -3.339679e-01 -3.257703e-01 -3.222159e-01 -3.129691e-01 -3.104758e-01 -3.007205e-01 -2.994045e-01 -2.895199e-01 -2.890195e-01 -2.790438e-01 -2.787509e-01 -2.687331e-01 -2.682573e-01 -2.585914e-01 -2.580915e-01 -2.495454e-01 -2.495548e-01 -2.418984e-01 -2.401615e-01 -2.328208e-01 -2.297036e-01 -2.226251e-01 -2.189068e-01 -2.115307e-01 -2.075844e-01 -1.999121e-01 -1.962376e-01 -1.884358e-01 -1.856221e-01 -1.782884e-01 -1.757097e-01 -1.672463e-01 -1.652421e-01 -1.559662e-01 -1.545144e-01 -1.442437e-01 -1.435239e-01 -1.323919e-01 -1.324748e-01 -1.206355e-01 -1.212621e-01 -1.088078e-01 -1.095438e-01 -9.675752e-02 -9.716817e-02 -8.446483e-02 -8.408081e-02 -7.202762e-02 -7.052451e-02 -5.980988e-02 -5.691978e-02 -4.808475e-02 -4.348220e-02 -3.669065e-02 -2.990816e-02 -2.494366e-02 -1.579323e-02 -1.257707e-02 -1.535772e-03 -4.793798e-05 1.213339e-02 1.228236e-02 2.496140e-02 2.471086e-02 3.744021e-02 3.790708e-02 4.996755e-02 5.185715e-02 6.225442e-02 6.601366e-02 7.399007e-02 7.999776e-02 8.535658e-02 9.390366e-02 9.700941e-02 1.078519e-01 1.093269e-01 1.214771e-01 1.224386e-01 1.344532e-01 1.367695e-01 1.474500e-01 1.513058e-01 1.556981e-01 1.577434e-01 1.631824e-01 1.642962e-01 
1.878894e-01 1.831325e-01 1.965176e-01 1.880642e-01 2.074015e-01 1.909837e-01 1.719363e-01 2.141177e-01 2.144360e-01 2.194597e-01 2.289242e-01 2.249898e-01 2.399526e-01 2.066776e-01 1.051042e-01 9.729995e-02 -5.515636e-02 -1.446969e-01 -2.208998e-01 -3.747064e-01 -3.951862e-01 -4.310253e-01 -4.138889e-01 -4.199095e-01 -4.078483e-01 -4.082154e-01 -3.999526e-01 -3.962797e-01 -3.908438e-01 -3.841357e-01 -3.803950e-01 -3.715591e-01 -3.687515e-01 -3.590185e-01 -3.567708e-01 -3.472743e-01 -3.451736e-01 -3.365461e-01 -3.339279e-01 -3.261950e-01 -3.223197e-01 -3.153728e-01 -3.099853e-01 -3.039858e-01 -2.973755e-01 -2.926919e-01 -2.854801e-01 -2.823609e-01 -2.749319e-01 -2.729968e-01 -2.652780e-01 -2.637874e-01 -2.557186e-01 -2.541321e-01 -2.460692e-01 -2.444029e-01 -2.371750e-01 -2.358619e-01 -2.292851e-01 -2.267261e-01 -2.205130e-01 -2.168029e-01 -2.106591e-01 -2.063480e-01 -1.996329e-01 -1.950381e-01 -1.877523e-01 -1.831137e-01 -1.759493e-01 -1.722474e-01 -1.655654e-01 -1.619237e-01 -1.538982e-01 -1.509453e-01 -1.416905e-01 -1.393942e-01 -1.289520e-01 -1.276706e-01 -1.163174e-01 -1.161978e-01 -1.040969e-01 -1.048368e-01 -9.200106e-02 -9.309928e-02 -7.975576e-02 -8.075403e-02 -6.727498e-02 -6.768987e-02 -5.464057e-02 -5.418210e-02 -4.230619e-02 -4.074451e-02 -3.063172e-02 -2.762695e-02 -1.942629e-02 -1.438558e-02 -7.807753e-03 -4.272209e-04 4.553942e-03 1.378068e-02 1.703195e-02 2.732885e-02 2.912805e-02 3.992096e-02 4.121177e-02 5.221964e-02 5.415437e-02 6.473822e-02 6.793993e-02 7.706331e-02 8.188048e-02 8.874379e-02 9.553852e-02 9.996760e-02 1.091186e-01 1.115497e-01 1.228483e-01 1.239671e-01 1.362444e-01 1.375576e-01 1.486944e-01 1.560846e-01 1.714860e-01 1.648331e-01 1.731749e-01 1.714364e-01 1.804092e-01 1.774358e-01 
1.708167e-01 1.684145e-01 1.771432e-01 1.719509e-01 1.855363e-01 1.735226e-01 1.228583e-01 1.903735e-01 1.719212e-01 1.857177e-01 1.814696e-01 1.868558e-01 1.879501e-01 1.622144e-01 1.404439e-01 1.136060e-01 8.792521e-02 3.265041e-02 3.477674e-02 -4.457806e-02 -2.757529e-02 -6.822805e-02 -5.303721e-02 -6.237572e-02 -4.906249e-02 -5.776995e-02 -4.528449e-02 -5.321633e-02 -4.164816e-02 -4.872813e-02 -3.834775e-02 -4.442599e-02 -3.537144e-02 -4.015498e-02 -3.241125e-02 -3.565116e-02 -2.920693e-02 -3.085828e-02 -2.577406e-02 -2.605158e-02 -2.238327e-02 -2.158879e-02 -1.916792e-02 -1.754105e-02 -1.594910e-02 -1.368661e-02 -1.236440e-02 -9.705416e-03 -8.197825e-03 -5.559255e-03 -3.639573e-03 -1.490062e-03 9.776695e-04 2.323564e-03 5.546359e-03 6.030153e-03 1.012987e-02 9.315611e-03 1.495686e-02 1.424499e-02 2.119861e-02 1.995916e-02 2.761079e-02 2.501534e-02 3.342881e-02 2.991514e-02 3.901683e-02 3.561172e-02 4.416288e-02 4.032977e-02 4.711695e-02 4.410497e-02 5.041966e-02 4.742750e-02 5.286978e-02 5.054989e-02 5.545523e-02 5.397175e-02 5.845523e-02 5.781839e-02 6.196042e-02 6.199748e-02 6.585524e-02 6.627410e-02 7.002622e-02 7.049404e-02 7.440348e-02 7.455102e-02 7.895321e-02 7.849897e-02 8.376494e-02 8.249566e-02 8.888668e-02 8.663005e-02 9.417291e-02 9.077845e-02 9.924497e-02 9.479007e-02 1.039330e-01 9.890511e-02 1.084185e-01 1.035130e-01 1.128381e-01 1.087511e-01 1.170147e-01 1.143623e-01 1.206029e-01 1.201024e-01 1.236198e-01 1.260354e-01 1.263857e-01 1.322138e-01 1.291872e-01 1.384408e-01 1.321294e-01 1.442925e-01 1.353200e-01 1.495161e-01 1.390654e-01 1.542072e-01 1.435203e-01 1.628049e-01 1.653842e-01 1.521924e-01 1.610875e-01 1.588622e-01 1.656418e-01 1.639720e-01 
1.829798e-01 1.822319e-01 1.861136e-01 1.866574e-01 1.877054e-01 1.907863e-01 1.592399e-01 1.940351e-01 1.776977e-01 1.898912e-01 1.830201e-01 1.895106e-01 1.876658e-01 1.835282e-01 1.757871e-01 1.720627e-01 1.633462e-01 1.513233e-01 1.513614e-01 1.311075e-01 1.365895e-01 1.257184e-01 1.325738e-01 1.277004e-01 1.359274e-01 1.284669e-01 1.381523e-01 1.292038e-01 1.395774e-01 1.298420e-01 1.398114e-01 1.300486e-01 1.388947e-01 1.302441e-01 1.376804e-01 1.311665e-01 1.369111e-01 1.329916e-01 1.365617e-01 1.349872e-01 1.358905e-01 1.361876e-01 1.345118e-01 1.364105e-01 1.328860e-01 1.362780e-01 1.320213e-01 1.366730e-01 1.325454e-01 1.376369e-01 1.339609e-01 1.384148e-01 1.354259e-01 1.385185e-01 1.368108e-01 1.385366e-01 1.389892e-01 1.393880e-01 1.426324e-01 1.417317e-01 1.473393e-01 1.448761e-01 1.520476e-01 1.475386e-01 1.557541e-01 1.499953e-01 1.590033e-01 1.533975e-01 1.615999e-01 1.560215e-01 1.623825e-01 1.574655e-01 1.622473e-01 1.578094e-01 1.611316e-01 1.578512e-01 1.600195e-01 1.582631e-01 1.595088e-01 1.593206e-01 1.598044e-01 1.607441e-01 1.605518e-01 1.619275e-01 1.614477e-01 1.625516e-01 1.623766e-01 1.624431e-01 1.633708e-01 1.618553e-01 1.648255e-01 1.613121e-01 1.670215e-01 1.610989e-01 1.696671e-01 1.608264e-01 1.717658e-01 1.599800e-01 1.728981e-01 1.591459e-01 1.736393e-01 1.593479e-01 1.744390e-01 1.609334e-01 1.748642e-01 1.631986e-01 1.739979e-01 1.655359e-01 1.719009e-01 1.682441e-01 1.694065e-01 1.716150e-01 1.671668e-01 1.752506e-01 1.652425e-01 1.781033e-01 1.636978e-01 1.795245e-01 1.632900e-01 1.792811e-01 1.647642e-01 1.783274e-01 1.743368e-01 1.671646e-01 1.754135e-01 1.727052e-01 1.792439e-01 1.775911e-01 
1.650896e-01 1.674358e-01 1.656078e-01 1.701042e-01 1.632243e-01 1.722612e-01 1.551264e-01 1.713762e-01 1.580597e-01 1.674594e-01 1.605959e-01 1.619885e-01 1.615130e-01 1.537676e-01 1.598500e-01 1.455788e-01 1.573971e-01 1.390943e-01 1.542123e-01 1.340106e-01 1.498394e-01 1.303590e-01 1.447710e-01 1.282158e-01 1.420280e-01 1.270443e-01 1.406347e-01 1.266234e-01 1.397940e-01 1.266056e-01 1.388466e-01 1.266861e-01 1.375558e-01 1.269419e-01 1.361699e-01 1.276265e-01 1.349905e-01 1.287800e-01 1.340436e-01 1.300604e-01 1.330619e-01 1.310050e-01 1.319006e-01 1.314693e-01 1.307793e-01 1.317044e-01 1.301954e-01 1.321381e-01 1.305087e-01 1.328795e-01 1.315912e-01 1.337031e-01 1.331523e-01 1.345208e-01 1.352359e-01 1.357337e-01 1.383478e-01 1.378976e-01 1.427833e-01 1.407869e-01 1.473954e-01 1.437520e-01 1.515949e-01 1.464339e-01 1.549100e-01 1.486408e-01 1.571083e-01 1.506251e-01 1.582181e-01 1.521877e-01 1.583082e-01 1.530803e-01 1.573785e-01 1.528566e-01 1.558728e-01 1.523595e-01 1.543831e-01 1.520533e-01 1.532998e-01 1.521260e-01 1.527678e-01 1.524504e-01 1.526593e-01 1.527267e-01 1.528445e-01 1.527657e-01 1.532695e-01 1.524657e-01 1.539388e-01 1.519205e-01 1.549823e-01 1.513582e-01 1.564616e-01 1.509244e-01 1.581712e-01 1.505014e-01 1.596096e-01 1.499469e-01 1.605192e-01 1.495813e-01 1.610634e-01 1.498995e-01 1.613647e-01 1.510803e-01 1.612015e-01 1.528422e-01 1.602079e-01 1.549078e-01 1.584617e-01 1.573113e-01 1.564017e-01 1.600354e-01 1.544443e-01 1.627469e-01 1.528181e-01 1.648425e-01 1.517851e-01 1.658797e-01 1.518861e-01 1.656194e-01 1.536731e-01 1.638549e-01 1.576684e-01 1.595157e-01 1.605140e-01 1.616699e-01 1.631270e-01 1.644976e-01 
