# vtk DataFile Version 2.0
Comment goes here
ASCII

DATASET STRUCTURED_POINTS
FIELD FieldData 1
TIME 1 1 double
1.00000000
DIMENSIONS    128   16   1

ORIGIN    0.000   0.000   0.000
SPACING   0.0078125 0.015625   1.000

POINT_DATA   2048
SCALARS P double
LOOKUP_TABLE default

-1.048088e+00 -1.031240e+00 -1.050528e+00 -1.039442e+00 -1.049635e+00 -1.047657e+00 -1.045103e+00 -1.061948e+00 -1.043155e+00 -1.068381e+00 -1.038627e+00 -1.065522e+00 -1.024892e+00 -1.044573e+00 -9.872856e-01 -9.974415e-01 -9.391140e-01 -9.425060e-01 -8.881027e-01 -8.906962e-01 -8.435394e-01 -8.506948e-01 -8.250096e-01 -8.357743e-01 -8.219428e-01 -8.316300e-01 -8.252205e-01 -8.321974e-01 -8.309547e-01 -8.348944e-01 -8.374774e-01 -8.386132e-01 -8.440800e-01 -8.428757e-01 -8.504884e-01 -8.474713e-01 -8.566305e-01 -8.522890e-01 -8.625139e-01 -8.572354e-01 -8.681634e-01 -8.622137e-01 -8.736084e-01 -8.671422e-01 -8.788969e-01 -8.719761e-01 -8.840874e-01 -8.766828e-01 -8.891954e-01 -8.811830e-01 -8.941343e-01 -8.853047e-01 -8.986824e-01 -8.887212e-01 -9.023950e-01 -8.907076e-01 -9.042659e-01 -8.894350e-01 -9.022067e-01 -8.891098e-01 -9.026608e-01 -8.876173e-01 -9.008093e-01 -8.887490e-01 -9.023741e-01 -8.923121e-01 -9.033872e-01 -8.917548e-01 -9.038851e-01 -8.956328e-01 -9.101938e-01 -9.038232e-01 -9.207815e-01 -9.150486e-01 -9.289642e-01 -9.212339e-01 -9.342921e-01 -9.255931e-01 -9.388719e-01 -9.292821e-01 -9.434420e-01 -9.326788e-01 -9.481954e-01 -9.358908e-01 -9.531135e-01 -9.389735e-01 -9.581141e-01 -9.420159e-01 -9.631038e-01 -9.451453e-01 -9.679778e-01 -9.484903e-01 -9.726116e-01 -9.521498e-01 -9.768694e-01 -9.561882e-01 -9.806452e-01 -9.606467e-01 -9.839076e-01 -9.655410e-01 -9.867142e-01 -9.708291e-01 -9.891888e-01 -9.763731e-01 -9.914987e-01 -9.819365e-01 -9.938594e-01 -9.872273e-01 -9.965491e-01 -9.919550e-01 -9.998920e-01 -9.958620e-01 -1.004195e+00 -9.987377e-01 -1.009669e+00 -1.000467e+00 -1.016381e+00 -1.001160e+00 -1.024214e+00 -1.001374e+00 -1.032772e+00 -1.002551e+00 -1.041065e+00 -1.008650e+00 -1.042426e+00 -1.014780e+00 -1.044670e+00 -1.022615e+00 
-8.927879e-01 -8.812981e-01 -8.916506e-01 -8.841700e-01 -8.869749e-01 -8.855823e-01 -8.763851e-01 -8.972164e-01 -8.738726e-01 -9.007562e-01 -8.741556e-01 -8.989296e-01 -8.761543e-01 -8.906247e-01 -8.792618e-01 -8.874803e-01 -8.845794e-01 -8.857474e-01 -8.900987e-01 -8.841699e-01 -8.934973e-01 -8.815482e-01 -8.904999e-01 -8.802984e-01 -8.901781e-01 -8.797469e-01 -8.911965e-01 -8.796265e-01 -8.928466e-01 -8.798469e-01 -8.947392e-01 -8.803660e-01 -8.966279e-01 -8.811006e-01 -8.983414e-01 -8.819726e-01 -8.998367e-01 -8.829603e-01 -9.011734e-01 -8.840755e-01 -9.024497e-01 -8.853001e-01 -9.036997e-01 -8.865456e-01 -9.049208e-01 -8.877449e-01 -9.061368e-01 -8.888636e-01 -9.073579e-01 -8.898332e-01 -9.084767e-01 -8.903927e-01 -9.090879e-01 -8.898545e-01 -9.082117e-01 -8.865145e-01 -9.034376e-01 -8.760150e-01 -8.893909e-01 -8.650590e-01 -8.803190e-01 -8.564378e-01 -8.707713e-01 -8.504744e-01 -8.642197e-01 -8.473502e-01 -8.593162e-01 -8.435701e-01 -8.569813e-01 -8.464054e-01 -8.625687e-01 -8.545669e-01 -8.755655e-01 -8.696183e-01 -8.851440e-01 -8.758697e-01 -8.889650e-01 -8.783464e-01 -8.906061e-01 -8.791686e-01 -8.915333e-01 -8.791916e-01 -8.922989e-01 -8.787629e-01 -8.930623e-01 -8.780613e-01 -8.938455e-01 -8.772602e-01 -8.946086e-01 -8.765121e-01 -8.952430e-01 -8.759416e-01 -8.956161e-01 -8.756465e-01 -8.955931e-01 -8.757204e-01 -8.951001e-01 -8.762498e-01 -8.941116e-01 -8.772476e-01 -8.926521e-01 -8.786546e-01 -8.908151e-01 -8.803221e-01 -8.887635e-01 -8.820394e-01 -8.867492e-01 -8.835390e-01 -8.850669e-01 -8.845182e-01 -8.840488e-01 -8.846957e-01 -8.840160e-01 -8.838295e-01 -8.852277e-01 -8.817775e-01 -8.878302e-01 -8.785579e-01 -8.918150e-01 -8.745434e-01 -8.969323e-01 -8.708240e-01 -9.020655e-01 -8.714835e-01 -8.956733e-01 -8.738861e-01 -8.932303e-01 -8.774364e-01 
-1.050038e+00 -1.032071e+00 -1.057193e+00 -1.039387e+00 -1.056962e+00 -1.035747e+00 -1.040067e+00 -1.077646e+00 -1.048322e+00 -1.086964e+00 -1.057055e+00 -1.101689e+00 -1.072634e+00 -1.096888e+00 -1.008463e+00 -1.013050e+00 -9.447689e-01 -9.363816e-01 -8.750801e-01 -8.672972e-01 -7.915092e-01 -8.006248e-01 -7.940480e-01 -8.144120e-01 -8.091463e-01 -8.224284e-01 -8.200390e-01 -8.281631e-01 -8.289629e-01 -8.331340e-01 -8.368975e-01 -8.379919e-01 -8.441927e-01 -8.428552e-01 -8.508726e-01 -8.476755e-01 -8.570220e-01 -8.524886e-01 -8.628551e-01 -8.574154e-01 -8.686308e-01 -8.625141e-01 -8.744085e-01 -8.676490e-01 -8.801353e-01 -8.727354e-01 -8.858590e-01 -8.778438e-01 -8.917541e-01 -8.832080e-01 -8.980831e-01 -8.891706e-01 -9.051622e-01 -8.963657e-01 -9.136920e-01 -9.061954e-01 -9.236681e-01 -8.859969e-01 -8.926432e-01 -8.934688e-01 -9.118248e-01 -8.747647e-01 -8.845756e-01 -8.765775e-01 -9.023735e-01 -9.076913e-01 -9.020895e-01 -8.695582e-01 -8.748989e-01 -8.734959e-01 -8.886316e-01 -8.893891e-01 -9.305636e-01 -9.373147e-01 -9.424136e-01 -9.308097e-01 -9.389717e-01 -9.298512e-01 -9.399209e-01 -9.313572e-01 -9.430953e-01 -9.338387e-01 -9.474291e-01 -9.365956e-01 -9.523499e-01 -9.393438e-01 -9.575766e-01 -9.421136e-01 -9.629391e-01 -9.450001e-01 -9.682127e-01 -9.480917e-01 -9.731914e-01 -9.514687e-01 -9.776827e-01 -9.552705e-01 -9.816175e-01 -9.596653e-01 -9.849599e-01 -9.646789e-01 -9.876892e-01 -9.702364e-01 -9.898700e-01 -9.761554e-01 -9.916695e-01 -9.822201e-01 -9.934148e-01 -9.881334e-01 -9.954583e-01 -9.935065e-01 -9.981896e-01 -9.979567e-01 -1.001991e+00 -1.001104e+00 -1.007198e+00 -1.002636e+00 -1.014035e+00 -1.002235e+00 -1.022615e+00 -9.995889e-01 -1.033167e+00 -9.928447e-01 -1.054854e+00 -1.008607e+00 -1.040636e+00 -1.011353e+00 -1.042304e+00 -1.021022e+00 
-8.955512e-01 -8.852535e-01 -9.058006e-01 -8.900402e-01 -9.107411e-01 -8.812218e-01 -9.065418e-01 -9.783641e-01 -9.474847e-01 -9.879663e-01 -9.720121e-01 -1.006278e+00 -9.927623e-01 -9.396235e-01 -7.327167e-01 -6.087433e-01 -4.534500e-01 -2.911989e-01 -1.496081e-01 -3.178997e-03 1.870330e-01 2.580999e-01 2.332192e-01 2.394815e-01 2.127005e-01 2.194820e-01 1.912833e-01 1.986357e-01 1.695324e-01 1.772686e-01 1.476913e-01 1.555499e-01 1.258981e-01 1.336224e-01 1.042671e-01 1.116035e-01 8.281018e-02 8.954055e-02 6.145597e-02 6.743121e-02 4.009431e-02 4.527142e-02 1.868461e-02 2.312297e-02 -2.793343e-03 1.033006e-03 -2.440674e-02 -2.101951e-02 -4.630489e-02 -4.315325e-02 -6.871513e-02 -6.565434e-02 -9.198382e-02 -8.917423e-02 -1.168494e-01 -1.153091e-01 -1.407324e-01 -4.066538e-02 -2.468700e-02 -4.161870e-02 -5.338893e-02 3.510762e-02 1.304329e-02 1.660147e-02 -3.897184e-02 -6.408049e-02 -1.480275e-02 2.795373e-02 8.221743e-03 -3.607425e-02 -8.919204e-02 -1.268230e-01 -2.727991e-01 -3.305955e-01 -3.511685e-01 -3.424182e-01 -3.646724e-01 -3.585323e-01 -3.817762e-01 -3.768792e-01 -4.008381e-01 -3.963303e-01 -4.209914e-01 -4.163297e-01 -4.417563e-01 -4.366086e-01 -4.628557e-01 -4.571018e-01 -4.840985e-01 -4.778214e-01 -5.053166e-01 -4.987687e-01 -5.264256e-01 -5.199202e-01 -5.473556e-01 -5.413095e-01 -5.680707e-01 -5.629767e-01 -5.885562e-01 -5.849088e-01 -6.088080e-01 -6.070498e-01 -6.288655e-01 -6.293094e-01 -6.488090e-01 -6.515841e-01 -6.687997e-01 -6.737164e-01 -6.890259e-01 -6.955090e-01 -7.096785e-01 -7.167621e-01 -7.309545e-01 -7.372725e-01 -7.530344e-01 -7.568659e-01 -7.760934e-01 -7.753031e-01 -8.004393e-01 -7.919453e-01 -8.272740e-01 -8.005417e-01 -8.871981e-01 -8.724639e-01 -8.800573e-01 -8.693188e-01 -8.852086e-01 -8.761863e-01 
-1.054302e+00 -1.047846e+00 -1.093408e+00 -1.083307e+00 -1.137286e+00 -1.122760e+00 -1.196716e+00 -1.235148e+00 -1.282443e+00 -1.284452e+00 -1.352563e+00 -1.335624e+00 -1.416120e+00 -1.318399e+00 -5.993060e-01 -2.174354e-01 3.246830e-01 8.058633e-01 1.332557e+00 1.733519e+00 2.470475e+00 2.524801e+00 2.467842e+00 2.466044e+00 2.411743e+00 2.403363e+00 2.351333e+00 2.338657e+00 2.288879e+00 2.273016e+00 2.225502e+00 2.207021e+00 2.161676e+00 2.140836e+00 2.097512e+00 2.074516e+00 2.033128e+00 2.008221e+00 1.968744e+00 1.942221e+00 1.904624e+00 1.876740e+00 1.840878e+00 1.811868e+00 1.777549e+00 1.747840e+00 1.714884e+00 1.685181e+00 1.653432e+00 1.624827e+00 1.594177e+00 1.568215e+00 1.538805e+00 1.517846e+00 1.490555e+00 1.478404e+00 1.458538e+00 1.534219e+00 1.542432e+00 1.523164e+00 1.508389e+00 1.549422e+00 1.496249e+00 1.476348e+00 1.406221e+00 1.368644e+00 1.372397e+00 1.339258e+00 1.267867e+00 1.179312e+00 1.091114e+00 1.019175e+00 8.571431e-01 7.836246e-01 7.256549e-01 7.075979e-01 6.515290e-01 6.363131e-01 5.811840e-01 5.671990e-01 5.128113e-01 4.990765e-01 4.455328e-01 4.313357e-01 3.788780e-01 3.636880e-01 3.126462e-01 2.960867e-01 2.467498e-01 2.285165e-01 1.810312e-01 1.610012e-01 1.152741e-01 9.361723e-02 4.927452e-02 2.648168e-02 -1.703952e-02 -4.023299e-02 -8.373041e-02 -1.064677e-01 -1.508710e-01 -1.722278e-01 -2.184855e-01 -2.375994e-01 -2.865209e-01 -3.026746e-01 -3.548157e-01 -3.675780e-01 -4.232217e-01 -4.325178e-01 -4.915484e-01 -4.977111e-01 -5.596160e-01 -5.634095e-01 -6.272718e-01 -6.298783e-01 -6.944847e-01 -6.974511e-01 -7.615147e-01 -7.662203e-01 -8.294428e-01 -8.323883e-01 -9.206477e-01 -9.456541e-01 -9.737389e-01 -9.802681e-01 -1.015719e+00 -1.013935e+00 
-8.987706e-01 -9.063831e-01 -9.412996e-01 -9.501302e-01 -9.897774e-01 -1.004862e+00 -1.053369e+00 -1.071198e+00 -1.119907e+00 -1.129497e+00 -1.182877e+00 -1.184858e+00 -1.241110e+00 -1.231978e+00 -3.354566e-01 -2.369540e-01 5.949142e-01 7.287820e-01 1.556685e+00 1.661005e+00 2.549813e+00 2.565275e+00 2.501452e+00 2.508178e+00 2.445373e+00 2.447608e+00 2.386312e+00 2.385129e+00 2.325773e+00 2.321691e+00 2.264546e+00 2.257834e+00 2.202966e+00 2.193753e+00 2.141098e+00 2.129527e+00 2.079019e+00 2.065296e+00 2.016888e+00 2.001270e+00 1.954898e+00 1.937621e+00 1.893116e+00 1.874402e+00 1.831559e+00 1.811751e+00 1.770374e+00 1.749984e+00 1.709907e+00 1.689647e+00 1.650749e+00 1.631512e+00 1.593821e+00 1.576809e+00 1.540777e+00 1.527699e+00 1.494671e+00 1.491820e+00 1.445083e+00 1.422373e+00 1.375135e+00 1.352537e+00 1.285092e+00 1.261202e+00 1.195377e+00 1.175322e+00 1.114248e+00 1.074225e+00 9.990676e-01 9.670030e-01 9.063846e-01 8.832255e-01 8.282827e-01 8.243070e-01 7.779179e-01 7.719759e-01 7.222025e-01 7.139555e-01 6.627896e-01 6.529416e-01 6.015677e-01 5.902355e-01 5.394496e-01 5.264807e-01 4.768691e-01 4.620364e-01 4.140721e-01 3.971936e-01 3.511870e-01 3.321445e-01 2.881885e-01 2.670283e-01 2.249764e-01 2.019693e-01 1.614274e-01 1.371139e-01 9.749491e-02 7.262826e-02 3.313897e-02 8.576579e-03 -3.168462e-02 -5.504517e-02 -9.697301e-02 -1.183137e-01 -1.626570e-01 -1.813226e-01 -2.285682e-01 -2.442105e-01 -2.945338e-01 -3.071857e-01 -3.603529e-01 -3.704661e-01 -4.258310e-01 -4.342930e-01 -4.908043e-01 -4.989068e-01 -5.552027e-01 -5.646184e-01 -6.191131e-01 -6.317749e-01 -6.828059e-01 -7.007131e-01 -7.478600e-01 -7.755558e-01 -8.092796e-01 -8.246075e-01 -8.565970e-01 -8.662135e-01 
-1.056590e+00 -1.057551e+00 -1.110671e+00 -1.110915e+00 -1.167962e+00 -1.169535e+00 -1.231124e+00 -1.236849e+00 -1.299606e+00 -1.301865e+00 -1.368796e+00 -1.367277e+00 -1.437608e+00 -1.434293e+00 -4.608916e-01 -3.652289e-01 5.422537e-01 6.713305e-01 1.580425e+00 1.671026e+00 2.653334e+00 2.640795e+00 2.586077e+00 2.572911e+00 2.519423e+00 2.504895e+00 2.452972e+00 2.436751e+00 2.386586e+00 2.368532e+00 2.320212e+00 2.300292e+00 2.253811e+00 2.232059e+00 2.187349e+00 2.163866e+00 2.120824e+00 2.095773e+00 2.054275e+00 2.027867e+00 1.987762e+00 1.960232e+00 1.921323e+00 1.892935e+00 1.854990e+00 1.826054e+00 1.788810e+00 1.759671e+00 1.722822e+00 1.693807e+00 1.656974e+00 1.628225e+00 1.590884e+00 1.562020e+00 1.523296e+00 1.492611e+00 1.450726e+00 1.413688e+00 1.358493e+00 1.317796e+00 1.264510e+00 1.232482e+00 1.177230e+00 1.149661e+00 1.093764e+00 1.071418e+00 1.016995e+00 9.991771e-01 9.443089e-01 9.299373e-01 8.788316e-01 8.636885e-01 8.163045e-01 8.068496e-01 7.571023e-01 7.438102e-01 6.919186e-01 6.771685e-01 6.245123e-01 6.090971e-01 5.563888e-01 5.404464e-01 4.881233e-01 4.715414e-01 4.199104e-01 4.025143e-01 3.517977e-01 3.334436e-01 2.837668e-01 2.643884e-01 2.157518e-01 1.954057e-01 1.476610e-01 1.265583e-01 7.940314e-02 5.791364e-02 1.091384e-02 -1.046544e-02 -5.784943e-02 -7.854956e-02 -1.269065e-01 -1.463468e-01 -1.962439e-01 -2.139038e-01 -2.658083e-01 -2.812949e-01 -3.355058e-01 -3.486192e-01 -4.052220e-01 -4.159970e-01 -4.748282e-01 -4.835495e-01 -5.441991e-01 -5.513841e-01 -6.132303e-01 -6.195688e-01 -6.818605e-01 -6.881034e-01 -7.500861e-01 -7.568589e-01 -8.179396e-01 -8.255509e-01 -8.853159e-01 -8.946577e-01 -9.467560e-01 -9.529480e-01 -1.002900e+00 -1.005982e+00 
-9.006083e-01 -9.132958e-01 -9.530672e-01 -9.662624e-01 -1.008473e+00 -1.023259e+00 -1.068561e+00 -1.084858e+00 -1.132459e+00 -1.149872e+00 -1.199502e+00 -1.219978e+00 -1.270707e+00 -1.298864e+00 -3.146219e-01 -3.045279e-01 6.466751e-01 6.728992e-01 1.620924e+00 1.636337e+00 2.611238e+00 2.593618e+00 2.532618e+00 2.522179e+00 2.461765e+00 2.454319e+00 2.394986e+00 2.388224e+00 2.330347e+00 2.322999e+00 2.266825e+00 2.258215e+00 2.203863e+00 2.193665e+00 2.141152e+00 2.129262e+00 2.078531e+00 2.064988e+00 2.015929e+00 2.000864e+00 1.953323e+00 1.936919e+00 1.890702e+00 1.873178e+00 1.828061e+00 1.809674e+00 1.765412e+00 1.746442e+00 1.702769e+00 1.683488e+00 1.640098e+00 1.620705e+00 1.577226e+00 1.557712e+00 1.513618e+00 1.493488e+00 1.447858e+00 1.426413e+00 1.376943e+00 1.356067e+00 1.303504e+00 1.283408e+00 1.229081e+00 1.210656e+00 1.154089e+00 1.137067e+00 1.079798e+00 1.063987e+00 1.007853e+00 9.913013e-01 9.373384e-01 9.208972e-01 8.661176e-01 8.500650e-01 7.976985e-01 7.839646e-01 7.324931e-01 7.193993e-01 6.685072e-01 6.552077e-01 6.049676e-01 5.909603e-01 5.415800e-01 5.265231e-01 4.782293e-01 4.618881e-01 4.148659e-01 3.971097e-01 3.514538e-01 3.322659e-01 2.879442e-01 2.674401e-01 2.242742e-01 2.027133e-01 1.603781e-01 1.381602e-01 9.620689e-02 7.384232e-02 3.173358e-02 9.791447e-03 -3.304217e-02 -5.399734e-02 -9.808839e-02 -1.175693e-01 -1.633381e-01 -1.810036e-01 -2.286884e-01 -2.444053e-01 -2.940092e-01 -3.078930e-01 -3.591506e-01 -3.715787e-01 -4.239559e-01 -4.355473e-01 -4.882733e-01 -4.998218e-01 -5.519565e-01 -5.643088e-01 -6.148410e-01 -6.286966e-01 -6.766778e-01 -6.922911e-01 -7.370037e-01 -7.537594e-01 -7.946331e-01 -8.097661e-01 -8.486144e-01 -8.620537e-01 
-1.057322e+00 -1.060089e+00 -1.115118e+00 -1.117532e+00 -1.175144e+00 -1.178277e+00 -1.238769e+00 -1.243386e+00 -1.306229e+00 -1.311758e+00 -1.377013e+00 -1.385073e+00 -1.451914e+00 -1.467289e+00 -4.406297e-01 -4.076801e-01 5.808299e-01 6.305938e-01 1.621691e+00 1.648307e+00 2.683299e+00 2.654535e+00 2.601446e+00 2.579463e+00 2.527234e+00 2.507848e+00 2.456887e+00 2.437911e+00 2.388458e+00 2.368779e+00 2.320946e+00 2.300037e+00 2.253829e+00 2.231496e+00 2.186834e+00 2.163076e+00 2.119819e+00 2.094743e+00 2.052698e+00 2.026479e+00 1.985416e+00 1.958260e+00 1.917920e+00 1.890054e+00 1.850156e+00 1.821804e+00 1.782044e+00 1.753409e+00 1.713453e+00 1.684686e+00 1.644164e+00 1.615335e+00 1.573851e+00 1.544949e+00 1.502119e+00 1.473147e+00 1.428755e+00 1.401134e+00 1.355484e+00 1.330083e+00 1.283113e+00 1.257897e+00 1.208869e+00 1.185695e+00 1.133820e+00 1.112349e+00 1.059021e+00 1.037618e+00 9.833027e-01 9.619962e-01 9.077660e-01 8.853014e-01 8.323263e-01 8.133668e-01 7.614672e-01 7.441265e-01 6.924903e-01 6.756425e-01 6.240943e-01 6.072472e-01 5.558870e-01 5.387592e-01 4.877594e-01 4.701503e-01 4.196754e-01 4.014421e-01 3.516105e-01 3.326788e-01 2.835348e-01 2.639167e-01 2.154082e-01 1.952152e-01 1.471796e-01 1.266282e-01 7.879384e-02 5.819975e-02 1.020506e-02 -1.003755e-02 -5.861097e-02 -7.806547e-02 -1.276511e-01 -1.458882e-01 -1.968873e-01 -2.135397e-01 -2.662699e-01 -2.810824e-01 -3.357281e-01 -3.485951e-01 -4.051688e-01 -4.161568e-01 -4.744809e-01 -4.838313e-01 -5.435456e-01 -5.516502e-01 -6.122436e-01 -6.195840e-01 -6.804438e-01 -6.874918e-01 -7.479584e-01 -7.550499e-01 -8.144465e-01 -8.216561e-01 -8.792265e-01 -8.862727e-01 -9.409933e-01 -9.466685e-01 -9.999006e-01 -1.003905e+00 
-9.005869e-01 -9.133132e-01 -9.530495e-01 -9.662759e-01 -1.008454e+00 -1.023271e+00 -1.068535e+00 -1.084869e+00 -1.132430e+00 -1.149880e+00 -1.199472e+00 -1.219985e+00 -1.270677e+00 -1.298873e+00 -3.146368e-01 -3.044658e-01 6.466280e-01 6.729735e-01 1.620902e+00 1.636297e+00 2.611320e+00 2.593326e+00 2.532704e+00 2.521863e+00 2.461865e+00 2.453973e+00 2.395101e+00 2.387836e+00 2.330451e+00 2.322544e+00 2.266859e+00 2.257658e+00 2.203759e+00 2.192993e+00 2.140849e+00 2.128479e+00 2.077964e+00 2.064078e+00 2.014984e+00 1.999740e+00 1.951811e+00 1.935402e+00 1.888365e+00 1.871010e+00 1.824593e+00 1.806505e+00 1.760426e+00 1.741783e+00 1.695729e+00 1.676637e+00 1.630241e+00 1.610719e+00 1.563547e+00 1.543510e+00 1.495034e+00 1.474262e+00 1.423780e+00 1.402389e+00 1.351562e+00 1.332319e+00 1.281284e+00 1.263985e+00 1.213637e+00 1.197645e+00 1.146957e+00 1.131097e+00 1.079909e+00 1.065189e+00 1.013667e+00 9.983641e-01 9.454129e-01 9.285502e-01 8.733846e-01 8.577642e-01 8.045818e-01 7.897570e-01 7.378468e-01 7.233021e-01 6.723953e-01 6.576676e-01 6.077342e-01 5.924297e-01 5.435498e-01 5.273492e-01 4.796348e-01 4.623099e-01 4.158515e-01 3.972858e-01 3.521095e-01 3.323140e-01 2.883415e-01 2.674556e-01 2.244757e-01 2.027622e-01 1.604292e-01 1.382654e-01 9.612722e-02 7.398819e-02 3.153797e-02 9.957868e-03 -3.331789e-02 -5.381688e-02 -9.838974e-02 -1.173759e-01 -1.636174e-01 -1.808152e-01 -2.289264e-01 -2.442563e-01 -2.942028e-01 -3.078088e-01 -3.592930e-01 -3.715607e-01 -4.240327e-01 -4.355785e-01 -4.882791e-01 -4.998870e-01 -5.519061e-01 -5.643961e-01 -6.147602e-01 -6.287915e-01 -6.765939e-01 -6.923743e-01 -7.369347e-01 -7.538152e-01 -7.945857e-01 -8.098032e-01 -8.485833e-01 -8.620785e-01 
-1.056555e+00 -1.057590e+00 -1.110645e+00 -1.110945e+00 -1.167934e+00 -1.169562e+00 -1.231077e+00 -1.236876e+00 -1.299559e+00 -1.301884e+00 -1.368752e+00 -1.367288e+00 -1.437568e+00 -1.434304e+00 -4.610666e-01 -3.647901e-01 5.417998e-01 6.720997e-01 1.579971e+00 1.671528e+00 2.653502e+00 2.640130e+00 2.586244e+00 2.572186e+00 2.519587e+00 2.504092e+00 2.453123e+00 2.435845e+00 2.386666e+00 2.367464e+00 2.320099e+00 2.298980e+00 2.253353e+00 2.230451e+00 2.186406e+00 2.161935e+00 2.119232e+00 2.093440e+00 2.051771e+00 2.024909e+00 1.983921e+00 1.956241e+00 1.915591e+00 1.887345e+00 1.846710e+00 1.818132e+00 1.777194e+00 1.748458e+00 1.706871e+00 1.678066e+00 1.635436e+00 1.606576e+00 1.562474e+00 1.533519e+00 1.487452e+00 1.458291e+00 1.409594e+00 1.380003e+00 1.330955e+00 1.304405e+00 1.253458e+00 1.227816e+00 1.176991e+00 1.152860e+00 1.102451e+00 1.078887e+00 1.027525e+00 1.006012e+00 9.569258e-01 9.376666e-01 8.895909e-01 8.741471e-01 8.251613e-01 8.084048e-01 7.582520e-01 7.413472e-01 6.906637e-01 6.737000e-01 6.228686e-01 6.057311e-01 5.550373e-01 5.375377e-01 4.872068e-01 4.691484e-01 4.193583e-01 4.005873e-01 3.514634e-01 3.319077e-01 2.835050e-01 2.632020e-01 2.154722e-01 1.945662e-01 1.473263e-01 1.260641e-01 7.899659e-02 5.772096e-02 1.040516e-02 -1.044731e-02 -5.847596e-02 -7.840218e-02 -1.276119e-01 -1.461145e-01 -1.969450e-01 -2.136110e-01 -2.664289e-01 -2.809899e-01 -3.360203e-01 -3.483752e-01 -4.056307e-01 -4.158659e-01 -4.751236e-01 -4.835358e-01 -5.443587e-01 -5.514574e-01 -6.132484e-01 -6.197032e-01 -6.817696e-01 -6.882785e-01 -7.499376e-01 -7.570491e-01 -8.177861e-01 -8.257197e-01 -8.851896e-01 -8.947733e-01 -9.466711e-01 -9.530272e-01 -1.002845e+00 -1.006037e+00 
-8.987305e-01 -9.064212e-01 -9.412680e-01 -9.501612e-01 -9.897368e-01 -1.004898e+00 -1.053281e+00 -1.071236e+00 -1.119815e+00 -1.129517e+00 -1.182778e+00 -1.184861e+00 -1.241010e+00 -1.231982e+00 -3.355496e-01 -2.365323e-01 5.945437e-01 7.295116e-01 1.556304e+00 1.661435e+00 2.550070e+00 2.564475e+00 2.501674e+00 2.507259e+00 2.445666e+00 2.446611e+00 2.386758e+00 2.384067e+00 2.326318e+00 2.320460e+00 2.264932e+00 2.256220e+00 2.202889e+00 2.191714e+00 2.140452e+00 2.127243e+00 2.077772e+00 2.062918e+00 2.014818e+00 1.998614e+00 1.951385e+00 1.934103e+00 1.887336e+00 1.869292e+00 1.822700e+00 1.804200e+00 1.757563e+00 1.738820e+00 1.691854e+00 1.672875e+00 1.625196e+00 1.605889e+00 1.557142e+00 1.537450e+00 1.487398e+00 1.467386e+00 1.415926e+00 1.395725e+00 1.344017e+00 1.325262e+00 1.272706e+00 1.254404e+00 1.201902e+00 1.184213e+00 1.132185e+00 1.114955e+00 1.063059e+00 1.046992e+00 9.963275e-01 9.814400e-01 9.310652e-01 9.183268e-01 8.679029e-01 8.543696e-01 8.031346e-01 7.892769e-01 7.380104e-01 7.238767e-01 6.730854e-01 6.585138e-01 6.085748e-01 5.932568e-01 5.444329e-01 5.280045e-01 4.805096e-01 4.626689e-01 4.166703e-01 3.972518e-01 3.528677e-01 3.319082e-01 2.891300e-01 2.668107e-01 2.253992e-01 2.020251e-01 1.615020e-01 1.374916e-01 9.719658e-02 7.314662e-02 3.240873e-02 9.102049e-03 -3.272961e-02 -5.449947e-02 -9.806791e-02 -1.176611e-01 -1.635712e-01 -1.806202e-01 -2.292955e-01 -2.436618e-01 -2.951415e-01 -3.069278e-01 -3.608374e-01 -3.704799e-01 -4.260833e-01 -4.344473e-01 -4.907624e-01 -4.991501e-01 -5.549474e-01 -5.649376e-01 -6.187616e-01 -6.321371e-01 -6.824826e-01 -7.010254e-01 -7.476256e-01 -7.756893e-01 -8.091581e-01 -8.246923e-01 -8.565305e-01 -8.662688e-01 
-1.054272e+00 -1.047897e+00 -1.093400e+00 -1.083346e+00 -1.137300e+00 -1.122799e+00 -1.196548e+00 -1.235228e+00 -1.282347e+00 -1.284482e+00 -1.352468e+00 -1.335628e+00 -1.416043e+00 -1.318416e+00 -5.993989e-01 -2.161248e-01 3.227194e-01 8.096805e-01 1.329255e+00 1.737993e+00 2.471078e+00 2.523690e+00 2.468190e+00 2.464743e+00 2.412102e+00 2.401941e+00 2.351816e+00 2.337139e+00 2.289426e+00 2.271264e+00 2.225785e+00 2.204736e+00 2.161297e+00 2.137933e+00 2.096318e+00 2.071189e+00 2.031049e+00 2.004616e+00 1.965454e+00 1.938040e+00 1.899269e+00 1.871161e+00 1.832319e+00 1.803868e+00 1.764646e+00 1.736205e+00 1.696387e+00 1.668203e+00 1.627491e+00 1.599578e+00 1.557550e+00 1.529836e+00 1.486133e+00 1.458646e+00 1.413110e+00 1.386101e+00 1.338784e+00 1.312562e+00 1.264686e+00 1.240136e+00 1.190937e+00 1.167462e+00 1.118056e+00 1.095382e+00 1.046106e+00 1.024172e+00 9.749366e-01 9.548210e-01 9.064601e-01 8.877569e-01 8.393631e-01 8.230519e-01 7.738510e-01 7.572882e-01 7.074721e-01 6.913574e-01 6.412741e-01 6.253725e-01 5.752961e-01 5.593518e-01 5.095552e-01 4.932475e-01 4.439323e-01 4.269124e-01 3.782706e-01 3.602537e-01 3.124703e-01 2.933018e-01 2.465499e-01 2.262815e-01 1.806246e-01 1.594308e-01 1.146878e-01 9.283742e-02 4.857440e-02 2.641880e-02 -1.798666e-02 -3.991443e-02 -8.506660e-02 -1.060130e-01 -1.524868e-01 -1.716749e-01 -2.200661e-01 -2.368708e-01 -2.877947e-01 -3.018605e-01 -3.558005e-01 -3.669508e-01 -4.240189e-01 -4.322535e-01 -4.921661e-01 -4.977786e-01 -5.599199e-01 -5.636368e-01 -6.271907e-01 -6.302054e-01 -6.941356e-01 -6.978718e-01 -7.610562e-01 -7.667004e-01 -8.290452e-01 -8.328095e-01 -9.203612e-01 -9.458344e-01 -9.736130e-01 -9.803798e-01 -1.015655e+00 -1.014007e+00 
-8.955633e-01 -8.852732e-01 -9.058256e-01 -8.900428e-01 -9.107975e-01 -8.812014e-01 -9.063649e-01 -9.783997e-01 -9.474026e-01 -9.879515e-01 -9.719094e-01 -1.006255e+00 -9.926315e-01 -9.396257e-01 -7.325587e-01 -6.083838e-01 -4.539037e-01 -2.899970e-01 -1.506028e-01 -1.672162e-03 1.872082e-01 2.582141e-01 2.332371e-01 2.395790e-01 2.126634e-01 2.195595e-01 1.911280e-01 1.987121e-01 1.692741e-01 1.774177e-01 1.474476e-01 1.558810e-01 1.257843e-01 1.341488e-01 1.042578e-01 1.122067e-01 8.280447e-02 9.008634e-02 6.140624e-02 6.790845e-02 4.010508e-02 4.582019e-02 1.890119e-02 2.388064e-02 -2.293233e-03 2.066785e-03 -2.360460e-02 -1.966349e-02 -4.509874e-02 -4.125075e-02 -6.671026e-02 -6.257301e-02 -8.833756e-02 -8.358489e-02 -1.099492e-01 -1.043764e-01 -1.316859e-01 -1.253762e-01 -1.524989e-01 -1.450304e-01 -1.731534e-01 -1.655316e-01 -1.934352e-01 -1.864463e-01 -2.139515e-01 -2.081901e-01 -2.356552e-01 -2.302567e-01 -2.569287e-01 -2.526824e-01 -2.794739e-01 -2.746539e-01 -3.018598e-01 -2.988390e-01 -3.257510e-01 -3.228471e-01 -3.491826e-01 -3.462222e-01 -3.721360e-01 -3.689764e-01 -3.947475e-01 -3.912029e-01 -4.171159e-01 -4.129812e-01 -4.392775e-01 -4.344114e-01 -4.612390e-01 -4.556114e-01 -4.830212e-01 -4.767443e-01 -5.046566e-01 -4.979559e-01 -5.261243e-01 -5.193296e-01 -5.473390e-01 -5.408767e-01 -5.681865e-01 -5.625910e-01 -5.886476e-01 -5.845285e-01 -6.088213e-01 -6.067320e-01 -6.288382e-01 -6.291445e-01 -6.487975e-01 -6.515665e-01 -6.687739e-01 -6.737532e-01 -6.889298e-01 -6.955214e-01 -7.095139e-01 -7.167333e-01 -7.307886e-01 -7.372441e-01 -7.529286e-01 -7.568456e-01 -7.760537e-01 -7.752865e-01 -8.004543e-01 -7.919346e-01 -8.273274e-01 -8.005604e-01 -8.872299e-01 -8.725422e-01 -8.800881e-01 -8.693736e-01 -8.852213e-01 -8.762224e-01 
-1.050057e+00 -1.032087e+00 -1.057212e+00 -1.039391e+00 -1.056992e+00 -1.035731e+00 -1.040015e+00 -1.077654e+00 -1.048306e+00 -1.086971e+00 -1.057032e+00 -1.101726e+00 -1.072593e+00 -1.096974e+00 -1.008387e+00 -1.013057e+00 -9.448549e-01 -9.361262e-01 -8.753419e-01 -8.668628e-01 -7.914418e-01 -8.004317e-01 -7.940837e-01 -8.140301e-01 -8.093639e-01 -8.219847e-01 -8.205765e-01 -8.277132e-01 -8.297923e-01 -8.325673e-01 -8.377377e-01 -8.370597e-01 -8.447440e-01 -8.415639e-01 -8.511692e-01 -8.463787e-01 -8.572743e-01 -8.515745e-01 -8.631092e-01 -8.569283e-01 -8.685147e-01 -8.621118e-01 -8.734350e-01 -8.670146e-01 -8.780507e-01 -8.717250e-01 -8.826463e-01 -8.763476e-01 -8.873139e-01 -8.806719e-01 -8.917496e-01 -8.842585e-01 -8.955486e-01 -8.867949e-01 -8.984810e-01 -8.882891e-01 -9.006156e-01 -8.891332e-01 -9.017281e-01 -8.894079e-01 -9.027171e-01 -8.899795e-01 -9.033820e-01 -8.911866e-01 -9.045704e-01 -8.933790e-01 -9.067346e-01 -8.962132e-01 -9.096748e-01 -9.005616e-01 -9.146164e-01 -9.061009e-01 -9.205903e-01 -9.129395e-01 -9.269416e-01 -9.189628e-01 -9.326100e-01 -9.240163e-01 -9.378640e-01 -9.283769e-01 -9.430572e-01 -9.322581e-01 -9.483033e-01 -9.357036e-01 -9.535469e-01 -9.387641e-01 -9.586961e-01 -9.415713e-01 -9.637312e-01 -9.444286e-01 -9.687044e-01 -9.476321e-01 -9.735356e-01 -9.513157e-01 -9.779847e-01 -9.554265e-01 -9.817257e-01 -9.598854e-01 -9.846784e-01 -9.648276e-01 -9.870670e-01 -9.703984e-01 -9.891674e-01 -9.765140e-01 -9.911268e-01 -9.827439e-01 -9.929904e-01 -9.885748e-01 -9.950307e-01 -9.936884e-01 -9.977575e-01 -9.978937e-01 -1.001716e+00 -1.000955e+00 -1.007194e+00 -1.002446e+00 -1.014240e+00 -1.001997e+00 -1.022923e+00 -9.993201e-01 -1.033458e+00 -9.926407e-01 -1.055050e+00 -1.008618e+00 -1.040725e+00 -1.011378e+00 -1.042341e+00 -1.021046e+00 
-8.927987e-01 -8.813017e-01 -8.916572e-01 -8.841683e-01 -8.869759e-01 -8.855735e-01 -8.763669e-01 -8.972101e-01 -8.738527e-01 -9.007499e-01 -8.741307e-01 -8.989289e-01 -8.761212e-01 -8.906299e-01 -8.792178e-01 -8.874836e-01 -8.845404e-01 -8.857235e-01 -8.900826e-01 -8.840878e-01 -8.935044e-01 -8.813633e-01 -8.905343e-01 -8.800323e-01 -8.902789e-01 -8.794446e-01 -8.914073e-01 -8.792998e-01 -8.931454e-01 -8.794414e-01 -8.950043e-01 -8.797752e-01 -8.967271e-01 -8.803140e-01 -8.982625e-01 -8.811073e-01 -8.996262e-01 -8.821363e-01 -9.008024e-01 -8.832650e-01 -9.017139e-01 -8.843071e-01 -9.023291e-01 -8.851560e-01 -9.027096e-01 -8.857822e-01 -9.029455e-01 -8.861456e-01 -9.030075e-01 -8.860380e-01 -9.026351e-01 -8.850943e-01 -9.014327e-01 -8.829286e-01 -8.989817e-01 -8.792489e-01 -8.949332e-01 -8.740414e-01 -8.892295e-01 -8.683229e-01 -8.835076e-01 -8.631784e-01 -8.781371e-01 -8.592037e-01 -8.739100e-01 -8.567886e-01 -8.713352e-01 -8.560330e-01 -8.708521e-01 -8.576553e-01 -8.730442e-01 -8.614083e-01 -8.771849e-01 -8.665410e-01 -8.814844e-01 -8.707422e-01 -8.848469e-01 -8.736487e-01 -8.873481e-01 -8.754645e-01 -8.892993e-01 -8.764498e-01 -8.909099e-01 -8.767857e-01 -8.922662e-01 -8.766343e-01 -8.933916e-01 -8.761817e-01 -8.943021e-01 -8.756718e-01 -8.950112e-01 -8.753279e-01 -8.954569e-01 -8.752829e-01 -8.955024e-01 -8.755711e-01 -8.949891e-01 -8.761954e-01 -8.938849e-01 -8.772169e-01 -8.923152e-01 -8.786651e-01 -8.904609e-01 -8.804317e-01 -8.884802e-01 -8.822275e-01 -8.865212e-01 -8.837037e-01 -8.848492e-01 -8.845851e-01 -8.838415e-01 -8.846665e-01 -8.838811e-01 -8.837623e-01 -8.852097e-01 -8.816912e-01 -8.879045e-01 -8.784519e-01 -8.919375e-01 -8.744267e-01 -8.970512e-01 -8.707349e-01 -9.021510e-01 -8.714787e-01 -8.957147e-01 -8.738918e-01 -8.932505e-01 -8.774431e-01 
