# vtk DataFile Version 2.0
Comment goes here
ASCII

DATASET STRUCTURED_POINTS
FIELD FieldData 1
TIME 1 1 double
0.68000000
DIMENSIONS    128   16   1

ORIGIN    0.000   0.000   0.000
SPACING   0.0078125 0.015625   1.000

POINT_DATA   2048
SCALARS uMag double
LOOKUP_TABLE default

6.108725e-03 4.268643e-03 4.943815e-03 2.564071e-03 3.651118e-03 2.568751e-03 9.970593e-03 2.529940e-04 5.670576e-03 3.877687e-03 2.790175e-03 1.391094e-02 2.072327e-02 3.587051e-02 4.369062e-02 4.771697e-02 4.996514e-02 5.021909e-02 4.774359e-02 4.340709e-02 3.676334e-02 2.054527e-02 1.340534e-02 4.780960e-03 2.641416e-03 1.844016e-03 1.811038e-03 4.692730e-03 3.632953e-03 5.930809e-03 4.337189e-03 6.456768e-03 4.582097e-03 6.647163e-03 4.654541e-03 6.659848e-03 4.681430e-03 6.566215e-03 4.720854e-03 6.403503e-03 4.797324e-03 6.193302e-03 4.916140e-03 5.952189e-03 5.073867e-03 5.700804e-03 5.263873e-03 5.467992e-03 5.471765e-03 5.283836e-03 5.654928e-03 5.138536e-03 5.675755e-03 4.842663e-03 5.115470e-03 3.780131e-03 3.290439e-03 2.328544e-03 1.766270e-03 1.383578e-03 1.963143e-03 3.199014e-03 4.187276e-03 4.391999e-03 6.191044e-03 3.622136e-03 4.500201e-03 4.027781e-03 5.548534e-03 8.530524e-03 8.905411e-03 1.061618e-02 9.147931e-03 7.322251e-03 5.124460e-03 5.127346e-03 3.988290e-03 4.657410e-03 3.734958e-03 4.579053e-03 3.736083e-03 4.566978e-03 3.832376e-03 4.519816e-03 3.973824e-03 4.410450e-03 4.146827e-03 4.241334e-03 4.344782e-03 4.028295e-03 4.555901e-03 3.795768e-03 4.759351e-03 3.575090e-03 4.925798e-03 3.402020e-03 5.021513e-03 3.312969e-03 5.014081e-03 3.339671e-03 4.878351e-03 3.502614e-03 4.603012e-03 3.805945e-03 4.195638e-03 4.233242e-03 3.685053e-03 4.744811e-03 3.121070e-03 5.279096e-03 2.573340e-03 5.758150e-03 2.128254e-03 6.095516e-03 1.885707e-03 6.207328e-03 1.966179e-03 6.030313e-03 2.550268e-03 5.550779e-03 4.021147e-03 4.887879e-03 7.622836e-03 1.460397e-03 4.984541e-03 2.817052e-03 5.856789e-03 4.388104e-03 
2.096559e-03 1.332573e-03 1.763987e-03 1.910258e-03 2.765122e-03 6.588848e-03 7.921631e-03 4.734404e-03 6.662555e-03 8.615416e-03 1.029043e-02 1.800632e-02 2.198939e-02 2.297618e-02 1.206887e-02 7.049372e-03 3.720309e-03 4.742433e-03 7.097830e-03 1.151756e-02 2.288343e-02 2.331813e-02 1.583003e-02 1.075905e-02 6.673224e-03 4.656271e-03 2.927296e-03 2.560278e-03 1.362426e-03 2.154777e-03 6.961809e-04 2.179591e-03 4.040860e-04 2.214716e-03 2.977100e-04 2.191604e-03 3.218848e-04 2.111436e-03 4.302647e-04 1.986535e-03 5.938429e-04 1.822001e-03 8.002983e-04 1.618062e-03 1.040500e-03 1.374738e-03 1.301817e-03 1.104413e-03 1.569229e-03 9.838724e-04 1.898835e-03 1.747302e-03 2.824662e-03 4.279768e-03 6.458966e-03 1.139953e-02 1.472839e-02 1.591184e-02 1.216742e-02 1.144757e-02 1.014660e-02 1.147030e-02 1.157465e-02 8.154462e-03 4.446969e-03 1.242485e-02 4.373868e-03 1.369743e-02 1.460718e-02 1.305779e-02 1.039415e-02 1.315724e-02 1.344706e-02 1.229790e-02 7.477064e-03 4.898093e-03 2.576788e-03 2.142059e-03 8.747228e-04 1.157362e-03 3.799163e-04 7.268505e-04 3.270648e-04 4.596015e-04 2.718945e-04 2.652798e-04 1.611743e-04 2.300230e-04 4.715010e-05 4.048117e-04 1.874994e-04 6.364371e-04 3.697051e-04 8.603700e-04 5.287333e-04 1.040088e-03 6.279886e-04 1.143631e-03 6.341648e-04 1.143423e-03 5.328155e-04 1.023033e-03 3.696016e-04 7.928289e-04 4.166175e-04 5.433671e-04 8.037077e-04 5.791759e-04 1.313090e-03 9.509125e-04 1.827020e-03 1.377487e-03 2.252025e-03 1.714485e-03 2.492528e-03 1.883342e-03 2.447825e-03 1.879074e-03 1.978475e-03 1.997429e-03 8.636822e-04 3.626601e-03 4.558610e-03 6.047493e-03 1.362488e-03 1.506264e-03 2.479793e-03 8.130720e-04 
8.757746e-03 7.877312e-03 6.357821e-03 6.425706e-03 8.108243e-03 2.506806e-02 5.132405e-03 1.235354e-02 4.091509e-03 9.026674e-03 6.296328e-04 6.799635e-03 9.235704e-03 1.578418e-02 1.873416e-02 1.990154e-02 2.005291e-02 2.110576e-02 1.899992e-02 1.833490e-02 1.620615e-02 6.815129e-03 2.832710e-03 2.974118e-03 4.846447e-03 6.387637e-03 7.683373e-03 7.942863e-03 9.156377e-03 8.527263e-03 9.982723e-03 8.701149e-03 1.048834e-02 8.733119e-03 1.080558e-02 8.747208e-03 1.098185e-02 8.793879e-03 1.102470e-02 8.881758e-03 1.093568e-02 9.008896e-03 1.072553e-02 9.155137e-03 1.039232e-02 9.269441e-03 9.926147e-03 9.287555e-03 9.342447e-03 9.198542e-03 8.817236e-03 9.297148e-03 9.178368e-03 1.108784e-02 1.352411e-02 1.931243e-02 2.116179e-02 6.425190e-03 1.162062e-02 5.281560e-03 6.072003e-03 9.015865e-03 1.119917e-02 9.183096e-03 1.039391e-02 4.304710e-03 1.375889e-02 1.928007e-02 2.246242e-02 2.397891e-02 2.732901e-02 2.929112e-02 2.865823e-02 2.509896e-02 2.113746e-02 1.662359e-02 1.510979e-02 1.295445e-02 1.290402e-02 1.156394e-02 1.209490e-02 1.103789e-02 1.178719e-02 1.087452e-02 1.163813e-02 1.089750e-02 1.151391e-02 1.104108e-02 1.136443e-02 1.126926e-02 1.117096e-02 1.154248e-02 1.094012e-02 1.182519e-02 1.070473e-02 1.208094e-02 1.050961e-02 1.227428e-02 1.040537e-02 1.237056e-02 1.043117e-02 1.233779e-02 1.060993e-02 1.215538e-02 1.093740e-02 1.182064e-02 1.138961e-02 1.136631e-02 1.192738e-02 1.084118e-02 1.248522e-02 1.030990e-02 1.298866e-02 9.859016e-03 1.336524e-02 9.601481e-03 1.356756e-02 9.696792e-03 1.358289e-02 1.048538e-02 1.347671e-02 1.360817e-02 1.763594e-02 1.734300e-02 9.103128e-03 3.930523e-03 7.770309e-03 7.557610e-03 
9.265213e-03 1.192609e-02 1.709944e-02 2.706707e-02 2.902867e-02 2.379849e-02 2.616657e-02 2.014941e-02 2.513812e-02 1.996057e-02 2.384710e-02 1.995694e-02 2.224747e-02 2.301181e-02 2.528919e-02 2.576833e-02 2.565059e-02 2.681790e-02 2.473296e-02 2.629222e-02 2.197743e-02 2.274055e-02 2.061579e-02 2.290575e-02 2.067318e-02 2.285353e-02 2.094192e-02 2.271749e-02 2.127598e-02 2.251249e-02 2.159968e-02 2.227001e-02 2.188015e-02 2.202361e-02 2.209552e-02 2.179861e-02 2.222609e-02 2.160760e-02 2.224952e-02 2.144645e-02 2.214528e-02 2.129534e-02 2.189181e-02 2.111130e-02 2.144834e-02 2.081225e-02 2.073883e-02 2.025863e-02 1.962184e-02 1.921465e-02 1.783163e-02 1.727467e-02 1.486972e-02 1.377833e-02 1.008328e-02 9.073709e-03 6.685572e-03 5.262043e-03 4.145176e-03 4.696573e-04 4.630972e-03 6.323561e-03 9.078218e-03 9.343375e-03 1.092352e-02 1.265528e-02 1.650799e-02 2.308642e-02 2.352612e-02 2.469109e-02 2.458321e-02 2.710294e-02 2.761582e-02 2.837303e-02 2.616665e-02 2.488415e-02 2.406995e-02 2.350384e-02 2.339179e-02 2.291635e-02 2.314380e-02 2.259254e-02 2.303934e-02 2.238735e-02 2.297911e-02 2.226609e-02 2.292073e-02 2.222036e-02 2.284352e-02 2.224239e-02 2.273641e-02 2.231647e-02 2.259813e-02 2.242685e-02 2.243578e-02 2.256065e-02 2.226052e-02 2.270842e-02 2.208645e-02 2.286395e-02 2.192692e-02 2.301830e-02 2.179541e-02 2.315880e-02 2.169954e-02 2.327045e-02 2.164194e-02 2.334161e-02 2.162494e-02 2.335755e-02 2.165016e-02 2.330828e-02 2.172733e-02 2.319605e-02 2.188234e-02 2.303900e-02 2.217677e-02 2.286593e-02 2.276228e-02 2.270085e-02 2.413932e-02 2.254648e-02 3.015716e-02 2.111043e-02 3.716861e-02 2.135041e-02 1.530483e-02 9.972832e-03 
3.587287e-02 3.800176e-02 4.300488e-02 5.030191e-02 6.050884e-02 4.622501e-02 2.885825e-02 3.947432e-02 2.841551e-02 3.520559e-02 2.671660e-02 2.985106e-02 2.240516e-02 2.522023e-02 2.501173e-02 2.534632e-02 2.572720e-02 2.538618e-02 2.567829e-02 2.539678e-02 2.481849e-02 2.478438e-02 2.878690e-02 2.926806e-02 3.185213e-02 3.138580e-02 3.327893e-02 3.235046e-02 3.401565e-02 3.278367e-02 3.440808e-02 3.297247e-02 3.460670e-02 3.305629e-02 3.467590e-02 3.309543e-02 3.463618e-02 3.310494e-02 3.447835e-02 3.306946e-02 3.417946e-02 3.296233e-02 3.370721e-02 3.272630e-02 3.298387e-02 3.224151e-02 3.185993e-02 3.129441e-02 3.006793e-02 2.951232e-02 2.711931e-02 2.621985e-02 2.206218e-02 2.010499e-02 1.289889e-02 8.000583e-03 5.786866e-03 1.063784e-02 6.122739e-03 5.391683e-03 3.153668e-03 2.729748e-03 8.028596e-03 1.163564e-02 1.551683e-02 1.899453e-02 2.004886e-02 2.895309e-02 3.534515e-02 4.023529e-02 4.461385e-02 4.949674e-02 5.204246e-02 4.723157e-02 4.366135e-02 4.039423e-02 3.906136e-02 3.763865e-02 3.715061e-02 3.644561e-02 3.626741e-02 3.589205e-02 3.580161e-02 3.563245e-02 3.551135e-02 3.553625e-02 3.529603e-02 3.554771e-02 3.511133e-02 3.563338e-02 3.493177e-02 3.575770e-02 3.475159e-02 3.589062e-02 3.459020e-02 3.600130e-02 3.447962e-02 3.605903e-02 3.445884e-02 3.603214e-02 3.455708e-02 3.589160e-02 3.478993e-02 3.562080e-02 3.515117e-02 3.522222e-02 3.561949e-02 3.473530e-02 3.615898e-02 3.421773e-02 3.670518e-02 3.374227e-02 3.718134e-02 3.340002e-02 3.751129e-02 3.330621e-02 3.764608e-02 3.362901e-02 3.757667e-02 3.470193e-02 3.733243e-02 3.751648e-02 3.716190e-02 6.403199e-02 5.801089e-02 4.752928e-02 3.900145e-02 3.719517e-02 
4.167427e-02 4.361861e-02 4.641450e-02 5.231479e-02 6.089850e-02 6.893350e-02 6.146845e-02 6.291106e-02 5.900609e-02 5.933280e-02 5.582508e-02 5.485543e-02 5.034054e-02 4.997611e-02 5.008188e-02 5.001295e-02 5.011562e-02 5.005803e-02 5.006901e-02 5.011919e-02 4.994034e-02 5.054429e-02 5.537430e-02 5.668159e-02 5.849712e-02 5.939108e-02 6.021576e-02 6.064218e-02 6.125257e-02 6.116023e-02 6.190854e-02 6.132154e-02 6.233185e-02 6.132516e-02 6.258763e-02 6.127109e-02 6.269704e-02 6.120049e-02 6.265347e-02 6.111407e-02 6.243892e-02 6.099075e-02 6.202845e-02 6.077563e-02 6.136550e-02 6.035739e-02 6.034552e-02 5.955553e-02 5.879939e-02 5.811120e-02 5.649423e-02 5.573254e-02 5.325552e-02 5.252338e-02 5.008397e-02 5.162323e-02 4.659258e-02 3.219280e-02 3.685082e-02 3.796039e-02 3.809451e-02 3.847599e-02 3.959868e-02 3.957344e-02 3.923583e-02 4.115637e-02 4.097766e-02 4.108138e-02 3.839067e-02 3.658144e-02 3.661783e-02 3.267018e-02 3.389733e-02 4.157773e-02 4.709190e-02 5.072847e-02 5.386763e-02 5.585644e-02 5.785561e-02 5.881784e-02 6.017202e-02 6.050610e-02 6.149947e-02 6.148253e-02 6.224171e-02 6.208405e-02 6.262817e-02 6.250317e-02 6.279016e-02 6.284069e-02 6.280275e-02 6.313622e-02 6.271828e-02 6.340205e-02 6.258606e-02 6.363358e-02 6.245190e-02 6.381665e-02 6.235871e-02 6.393148e-02 6.233746e-02 6.395601e-02 6.240810e-02 6.387451e-02 6.257456e-02 6.368382e-02 6.283232e-02 6.340682e-02 6.316763e-02 6.308011e-02 6.354699e-02 6.275187e-02 6.393031e-02 6.248707e-02 6.428488e-02 6.237663e-02 6.461996e-02 6.256297e-02 6.503957e-02 6.328519e-02 6.586939e-02 6.492202e-02 6.879230e-02 6.883502e-02 5.542950e-02 4.945490e-02 4.399773e-02 4.278704e-02 
5.286339e-02 5.463012e-02 5.501474e-02 5.896532e-02 6.066603e-02 6.777023e-02 6.764113e-02 6.781433e-02 6.738818e-02 6.827862e-02 6.797496e-02 6.939833e-02 6.839364e-02 6.747190e-02 6.755228e-02 6.750392e-02 6.759947e-02 6.754411e-02 6.755583e-02 6.759343e-02 6.742386e-02 6.885502e-02 6.930089e-02 6.861553e-02 6.809528e-02 6.826936e-02 6.793000e-02 6.810888e-02 6.801301e-02 6.795308e-02 6.815577e-02 6.779406e-02 6.829153e-02 6.764259e-02 6.838193e-02 6.750562e-02 6.839783e-02 6.738088e-02 6.831338e-02 6.725490e-02 6.810542e-02 6.710367e-02 6.775264e-02 6.689145e-02 6.723437e-02 6.657408e-02 6.654173e-02 6.612306e-02 6.571904e-02 6.559645e-02 6.498248e-02 6.532402e-02 6.502005e-02 6.636034e-02 6.779379e-02 7.163562e-02 7.619532e-02 7.871874e-02 7.695729e-02 7.440294e-02 7.082892e-02 7.019699e-02 6.886039e-02 6.742293e-02 6.536481e-02 6.315582e-02 6.174751e-02 6.118539e-02 6.115533e-02 6.033026e-02 5.930666e-02 5.732997e-02 5.839133e-02 6.210558e-02 6.353027e-02 6.476614e-02 6.585943e-02 6.649225e-02 6.726535e-02 6.751525e-02 6.809762e-02 6.811863e-02 6.857059e-02 6.847858e-02 6.881351e-02 6.871111e-02 6.890655e-02 6.888800e-02 6.890070e-02 6.904719e-02 6.883043e-02 6.920193e-02 6.872307e-02 6.935116e-02 6.860391e-02 6.948575e-02 6.849688e-02 6.959242e-02 6.842350e-02 6.965710e-02 6.840006e-02 6.966716e-02 6.843650e-02 6.961502e-02 6.853451e-02 6.950138e-02 6.868830e-02 6.933780e-02 6.888399e-02 6.914441e-02 6.909855e-02 6.894776e-02 6.930305e-02 6.877935e-02 6.946678e-02 6.867231e-02 6.956229e-02 6.865042e-02 6.956506e-02 6.867996e-02 6.944723e-02 6.849186e-02 6.937333e-02 6.462324e-02 5.968976e-02 5.722377e-02 5.432491e-02 5.406299e-02 
5.229167e-02 5.362637e-02 5.406120e-02 5.679560e-02 5.799743e-02 6.158662e-02 6.235384e-02 6.471994e-02 6.582760e-02 6.800997e-02 7.069814e-02 7.316544e-02 7.820888e-02 7.795953e-02 7.802319e-02 7.796514e-02 7.800642e-02 7.798355e-02 7.798535e-02 7.800801e-02 7.796664e-02 7.828801e-02 7.191813e-02 7.083154e-02 6.753257e-02 6.731510e-02 6.568782e-02 6.557116e-02 6.489346e-02 6.463269e-02 6.458419e-02 6.409343e-02 6.449307e-02 6.376942e-02 6.448360e-02 6.357380e-02 6.448081e-02 6.346095e-02 6.444106e-02 6.340152e-02 6.433938e-02 6.337255e-02 6.416413e-02 6.335366e-02 6.391580e-02 6.333115e-02 6.361631e-02 6.331791e-02 6.333700e-02 6.339849e-02 6.325633e-02 6.380693e-02 6.374463e-02 6.501744e-02 6.548118e-02 6.791871e-02 6.921426e-02 7.219232e-02 7.169513e-02 7.125713e-02 7.124956e-02 7.287268e-02 7.263521e-02 7.230184e-02 7.300985e-02 7.179862e-02 7.407532e-02 7.397990e-02 7.342049e-02 7.211855e-02 7.080760e-02 7.212193e-02 7.129932e-02 6.794201e-02 6.571167e-02 6.444642e-02 6.403273e-02 6.351660e-02 6.373609e-02 6.345505e-02 6.389647e-02 6.367929e-02 6.414873e-02 6.396313e-02 6.435586e-02 6.423516e-02 6.448025e-02 6.448292e-02 6.452427e-02 6.470974e-02 6.450495e-02 6.491770e-02 6.444486e-02 6.510375e-02 6.436888e-02 6.525985e-02 6.430156e-02 6.537485e-02 6.426487e-02 6.543692e-02 6.427552e-02 6.543639e-02 6.434308e-02 6.536882e-02 6.446849e-02 6.523754e-02 6.464383e-02 6.505511e-02 6.485178e-02 6.484101e-02 6.506444e-02 6.461720e-02 6.524312e-02 6.440036e-02 6.533479e-02 6.418578e-02 6.525880e-02 6.391381e-02 6.487005e-02 6.340242e-02 6.388473e-02 6.224898e-02 6.180351e-02 5.946016e-02 5.687636e-02 5.525659e-02 5.329111e-02 5.307246e-02 
5.719479e-02 5.860023e-02 5.850365e-02 6.116400e-02 6.173689e-02 6.508130e-02 6.595319e-02 6.809788e-02 6.950917e-02 7.142404e-02 7.417651e-02 7.639261e-02 8.155200e-02 8.146743e-02 8.152996e-02 8.147621e-02 8.151805e-02 8.149854e-02 8.149236e-02 8.152557e-02 8.146202e-02 8.153179e-02 7.485125e-02 7.408077e-02 7.089796e-02 7.082820e-02 6.927779e-02 6.929947e-02 6.861593e-02 6.852687e-02 6.838511e-02 6.811160e-02 6.834492e-02 6.788407e-02 6.838114e-02 6.777242e-02 6.843791e-02 6.774633e-02 6.849013e-02 6.779454e-02 6.853388e-02 6.791806e-02 6.858517e-02 6.813161e-02 6.868424e-02 6.847186e-02 6.890651e-02 6.901391e-02 6.938009e-02 6.989224e-02 7.029939e-02 7.130394e-02 7.188981e-02 7.341760e-02 7.417576e-02 7.582735e-02 7.587596e-02 7.761997e-02 7.693495e-02 7.650981e-02 7.644528e-02 7.743279e-02 7.683780e-02 7.716876e-02 7.691645e-02 7.640130e-02 7.698699e-02 7.733349e-02 7.652933e-02 7.678770e-02 7.702528e-02 7.681126e-02 7.537534e-02 7.302950e-02 7.187326e-02 7.073834e-02 7.033731e-02 6.964056e-02 6.957478e-02 6.909160e-02 6.919367e-02 6.884277e-02 6.899495e-02 6.875718e-02 6.887141e-02 6.876288e-02 6.877002e-02 6.882262e-02 6.866862e-02 6.891510e-02 6.856235e-02 6.902474e-02 6.845600e-02 6.913729e-02 6.835949e-02 6.923852e-02 6.828478e-02 6.931473e-02 6.824342e-02 6.935402e-02 6.824451e-02 6.934799e-02 6.829279e-02 6.929309e-02 6.838711e-02 6.919169e-02 6.851945e-02 6.905208e-02 6.867443e-02 6.888680e-02 6.882862e-02 6.870821e-02 6.894867e-02 6.851912e-02 6.898524e-02 6.829371e-02 6.885601e-02 6.793984e-02 6.840848e-02 6.723508e-02 6.735671e-02 6.576007e-02 6.522494e-02 6.293011e-02 6.112040e-02 5.974568e-02 5.812492e-02 5.811273e-02 
5.228985e-02 5.362781e-02 5.405908e-02 5.679639e-02 5.799470e-02 6.158709e-02 6.235187e-02 6.472347e-02 6.582520e-02 6.801379e-02 7.069620e-02 7.316900e-02 7.820841e-02 7.795961e-02 7.802348e-02 7.796503e-02 7.800667e-02 7.798333e-02 7.798539e-02 7.800776e-02 7.796631e-02 7.830200e-02 7.192816e-02 7.085048e-02 6.754782e-02 6.734287e-02 6.570830e-02 6.561777e-02 6.492167e-02 6.470853e-02 6.462570e-02 6.420960e-02 6.455854e-02 6.394031e-02 6.459316e-02 6.382089e-02 6.466773e-02 6.381604e-02 6.475568e-02 6.391281e-02 6.485576e-02 6.411462e-02 6.499050e-02 6.444248e-02 6.520863e-02 6.494047e-02 6.559138e-02 6.568667e-02 6.626399e-02 6.680701e-02 6.740449e-02 6.847885e-02 6.923266e-02 7.090940e-02 7.196939e-02 7.405328e-02 7.424257e-02 7.514494e-02 7.393127e-02 7.343280e-02 7.302147e-02 7.304607e-02 7.247575e-02 7.241688e-02 7.222148e-02 7.244288e-02 7.308520e-02 7.377806e-02 7.352449e-02 7.361051e-02 7.436733e-02 7.535502e-02 7.432241e-02 7.188721e-02 7.097331e-02 6.926463e-02 6.875991e-02 6.744084e-02 6.726812e-02 6.625085e-02 6.631409e-02 6.554064e-02 6.571606e-02 6.516109e-02 6.533078e-02 6.499784e-02 6.506171e-02 6.497155e-02 6.485200e-02 6.502867e-02 6.467427e-02 6.513180e-02 6.452046e-02 6.525175e-02 6.439372e-02 6.536374e-02 6.430299e-02 6.544624e-02 6.425878e-02 6.548206e-02 6.427053e-02 6.546013e-02 6.434350e-02 6.537632e-02 6.447591e-02 6.523421e-02 6.465723e-02 6.504503e-02 6.486803e-02 6.482723e-02 6.508042e-02 6.460234e-02 6.525668e-02 6.438671e-02 6.534529e-02 6.417510e-02 6.526620e-02 6.390649e-02 6.487422e-02 6.339821e-02 6.388575e-02 6.224764e-02 6.180178e-02 5.946258e-02 5.687402e-02 5.525978e-02 5.328913e-02 5.307485e-02 
5.285853e-02 5.463328e-02 5.500925e-02 5.896595e-02 6.065767e-02 6.776654e-02 6.763495e-02 6.782657e-02 6.737793e-02 6.829011e-02 6.796662e-02 6.940805e-02 6.839293e-02 6.747237e-02 6.755290e-02 6.750326e-02 6.760072e-02 6.754315e-02 6.755642e-02 6.759342e-02 6.742206e-02 6.887709e-02 6.931676e-02 6.866259e-02 6.813650e-02 6.834804e-02 6.799508e-02 6.823834e-02 6.810907e-02 6.815623e-02 6.829776e-02 6.809721e-02 6.850587e-02 6.808009e-02 6.871543e-02 6.812697e-02 6.892440e-02 6.825658e-02 6.914126e-02 6.848743e-02 6.938859e-02 6.884466e-02 6.970764e-02 6.936665e-02 7.016163e-02 7.010923e-02 7.083757e-02 7.115076e-02 7.185035e-02 7.259764e-02 7.334411e-02 7.458538e-02 7.549293e-02 7.729566e-02 7.858746e-02 8.115699e-02 8.269911e-02 8.344279e-02 8.052329e-02 8.085690e-02 8.046457e-02 8.042583e-02 7.852436e-02 7.795166e-02 7.717987e-02 7.762535e-02 7.687754e-02 7.415539e-02 7.223972e-02 7.077173e-02 6.965394e-02 6.898343e-02 6.985521e-02 7.069944e-02 7.119197e-02 7.093333e-02 7.104301e-02 7.042030e-02 7.052620e-02 6.985187e-02 7.002572e-02 6.943043e-02 6.963287e-02 6.918512e-02 6.933840e-02 6.908667e-02 6.910900e-02 6.909406e-02 6.891649e-02 6.917048e-02 6.874657e-02 6.928638e-02 6.859681e-02 6.941627e-02 6.847200e-02 6.953744e-02 6.838100e-02 6.962950e-02 6.833346e-02 6.967612e-02 6.833880e-02 6.966723e-02 6.840301e-02 6.959914e-02 6.852571e-02 6.947506e-02 6.869813e-02 6.930539e-02 6.890387e-02 6.910942e-02 6.912106e-02 6.891369e-02 6.932319e-02 6.874952e-02 6.948286e-02 6.864937e-02 6.957397e-02 6.863446e-02 6.957196e-02 6.866983e-02 6.944935e-02 6.848622e-02 6.937059e-02 6.463022e-02 5.968388e-02 5.723122e-02 5.431955e-02 5.406835e-02 
4.167047e-02 4.362307e-02 4.640899e-02 5.231528e-02 6.088398e-02 6.893086e-02 6.146490e-02 6.292342e-02 5.899810e-02 5.934368e-02 5.581946e-02 5.486653e-02 5.033895e-02 4.997671e-02 5.008273e-02 5.001242e-02 5.011701e-02 5.005711e-02 5.006972e-02 5.011895e-02 4.993856e-02 5.055878e-02 5.539931e-02 5.669998e-02 5.853267e-02 5.943057e-02 6.025602e-02 6.073370e-02 6.130299e-02 6.133365e-02 6.197612e-02 6.159787e-02 6.242785e-02 6.172966e-02 6.275321e-02 6.185031e-02 6.300872e-02 6.201781e-02 6.322363e-02 6.226006e-02 6.342819e-02 6.260315e-02 6.366990e-02 6.308679e-02 6.401619e-02 6.375963e-02 6.454265e-02 6.467613e-02 6.533524e-02 6.589858e-02 6.648029e-02 6.748029e-02 6.804617e-02 6.945150e-02 7.009572e-02 7.193524e-02 7.280153e-02 7.374349e-02 7.168344e-02 7.217051e-02 7.114203e-02 7.145780e-02 7.023323e-02 7.008003e-02 6.940482e-02 6.941089e-02 6.899052e-02 6.790753e-02 6.747352e-02 6.707039e-02 6.660073e-02 6.566810e-02 6.636062e-02 6.650204e-02 6.696747e-02 6.616277e-02 6.642045e-02 6.530635e-02 6.563453e-02 6.448972e-02 6.492275e-02 6.388885e-02 6.436165e-02 6.352519e-02 6.392766e-02 6.335793e-02 6.357427e-02 6.333444e-02 6.326416e-02 6.340860e-02 6.298413e-02 6.354669e-02 6.273700e-02 6.371351e-02 6.253130e-02 6.387460e-02 6.238094e-02 6.399457e-02 6.229802e-02 6.404402e-02 6.229941e-02 6.400745e-02 6.239805e-02 6.387852e-02 6.259667e-02 6.366133e-02 6.288133e-02 6.336788e-02 6.322566e-02 6.303123e-02 6.360075e-02 6.270055e-02 6.397119e-02 6.244120e-02 6.431465e-02 6.234518e-02 6.464106e-02 6.254516e-02 6.505099e-02 6.327781e-02 6.586959e-02 6.492002e-02 6.877464e-02 6.885512e-02 5.541944e-02 4.947201e-02 4.399308e-02 4.279614e-02 
3.586695e-02 3.801053e-02 4.300112e-02 5.030211e-02 6.049820e-02 4.624759e-02 2.886094e-02 3.945911e-02 2.842534e-02 3.519000e-02 2.672099e-02 2.984275e-02 2.239095e-02 2.522377e-02 2.501180e-02 2.534295e-02 2.573422e-02 2.538127e-02 2.568465e-02 2.540029e-02 2.480960e-02 2.483348e-02 2.881086e-02 2.932325e-02 3.188558e-02 3.146660e-02 3.332202e-02 3.249336e-02 3.407792e-02 3.302443e-02 3.449748e-02 3.333542e-02 3.473097e-02 3.357255e-02 3.487455e-02 3.382221e-02 3.498646e-02 3.411466e-02 3.509148e-02 3.445638e-02 3.521251e-02 3.485820e-02 3.538715e-02 3.534795e-02 3.566619e-02 3.595804e-02 3.609344e-02 3.671582e-02 3.670671e-02 3.764271e-02 3.752430e-02 3.873215e-02 3.852327e-02 3.992676e-02 3.960136e-02 4.107012e-02 4.052890e-02 4.181600e-02 4.067432e-02 4.166258e-02 4.048432e-02 4.113748e-02 3.977623e-02 4.005865e-02 3.885453e-02 3.884664e-02 3.791683e-02 3.736220e-02 3.659585e-02 3.591840e-02 3.553430e-02 3.493486e-02 3.504106e-02 3.463718e-02 3.500572e-02 3.449123e-02 3.501442e-02 3.440644e-02 3.503186e-02 3.438809e-02 3.505094e-02 3.445207e-02 3.506363e-02 3.459504e-02 3.504440e-02 3.479674e-02 3.497315e-02 3.503539e-02 3.484565e-02 3.529192e-02 3.468259e-02 3.555277e-02 3.451628e-02 3.579227e-02 3.437943e-02 3.597829e-02 3.430621e-02 3.607337e-02 3.432357e-02 3.604656e-02 3.445965e-02 3.588636e-02 3.473113e-02 3.559480e-02 3.513508e-02 3.518882e-02 3.564077e-02 3.469652e-02 3.619541e-02 3.417498e-02 3.673966e-02 3.370103e-02 3.720189e-02 3.336854e-02 3.751905e-02 3.329521e-02 3.764316e-02 3.363747e-02 3.756081e-02 3.472624e-02 3.730191e-02 3.754919e-02 3.710715e-02 6.404951e-02 5.798598e-02 4.754775e-02 3.899369e-02 3.720871e-02 
9.266672e-03 1.193050e-02 1.710614e-02 2.705919e-02 2.902090e-02 2.377453e-02 2.614146e-02 2.018825e-02 2.509764e-02 2.000320e-02 2.380397e-02 1.999775e-02 2.220164e-02 2.305458e-02 2.525842e-02 2.579694e-02 2.563128e-02 2.683700e-02 2.472729e-02 2.630033e-02 2.198345e-02 2.273820e-02 2.067291e-02 2.289378e-02 2.074695e-02 2.285567e-02 2.103032e-02 2.275023e-02 2.138618e-02 2.259122e-02 2.174391e-02 2.240652e-02 2.207543e-02 2.223293e-02 2.237521e-02 2.210439e-02 2.264172e-02 2.204072e-02 2.287109e-02 2.205361e-02 2.306732e-02 2.215282e-02 2.324742e-02 2.235022e-02 2.343815e-02 2.265591e-02 2.366631e-02 2.307401e-02 2.395640e-02 2.360076e-02 2.431990e-02 2.421258e-02 2.474144e-02 2.485040e-02 2.515872e-02 2.540520e-02 2.546987e-02 2.568422e-02 2.538170e-02 2.554218e-02 2.517759e-02 2.518084e-02 2.480560e-02 2.463706e-02 2.431574e-02 2.399027e-02 2.368276e-02 2.321709e-02 2.306920e-02 2.264002e-02 2.266612e-02 2.222432e-02 2.249041e-02 2.207765e-02 2.239416e-02 2.192498e-02 2.231160e-02 2.183724e-02 2.227903e-02 2.182324e-02 2.228419e-02 2.186893e-02 2.230826e-02 2.195503e-02 2.232981e-02 2.206298e-02 2.233373e-02 2.217942e-02 2.231266e-02 2.229624e-02 2.226819e-02 2.241297e-02 2.220333e-02 2.253078e-02 2.212109e-02 2.265152e-02 2.202674e-02 2.277545e-02 2.192698e-02 2.290111e-02 2.183256e-02 2.302719e-02 2.175349e-02 2.314675e-02 2.169699e-02 2.324562e-02 2.166623e-02 2.330420e-02 2.166085e-02 2.330952e-02 2.168769e-02 2.325376e-02 2.176197e-02 2.314129e-02 2.191700e-02 2.298895e-02 2.221581e-02 2.282101e-02 2.280550e-02 2.266139e-02 2.418342e-02 2.251413e-02 3.019267e-02 2.108214e-02 3.716209e-02 2.133718e-02 1.531231e-02 9.976195e-03 
8.759376e-03 7.880678e-03 6.363775e-03 6.439010e-03 8.092552e-03 2.505371e-02 5.115357e-03 1.236938e-02 4.079392e-03 9.044599e-03 6.122592e-04 6.819229e-03 9.261987e-03 1.578474e-02 1.872921e-02 1.991866e-02 2.002520e-02 2.114648e-02 1.896041e-02 1.837114e-02 1.618143e-02 6.830646e-03 2.750403e-03 3.028026e-03 4.871427e-03 6.375746e-03 7.708527e-03 7.946478e-03 9.176990e-03 8.575295e-03 9.994362e-03 8.800753e-03 1.048072e-02 8.888482e-03 1.079231e-02 8.978066e-03 1.100080e-02 9.121144e-03 1.112791e-02 9.328614e-03 1.119037e-02 9.606117e-03 1.122133e-02 9.970590e-03 1.127083e-02 1.044061e-02 1.138770e-02 1.103006e-02 1.162472e-02 1.175627e-02 1.203344e-02 1.263207e-02 1.265527e-02 1.366592e-02 1.350021e-02 1.482648e-02 1.444891e-02 1.585441e-02 1.474606e-02 1.590528e-02 1.491284e-02 1.582662e-02 1.457709e-02 1.504761e-02 1.417527e-02 1.436252e-02 1.416880e-02 1.341247e-02 1.318386e-02 1.203214e-02 1.217204e-02 1.105273e-02 1.167831e-02 1.091463e-02 1.194741e-02 1.101674e-02 1.215024e-02 1.102439e-02 1.218910e-02 1.097780e-02 1.211908e-02 1.095879e-02 1.199336e-02 1.101112e-02 1.182423e-02 1.113892e-02 1.160930e-02 1.132904e-02 1.134971e-02 1.156265e-02 1.106579e-02 1.182373e-02 1.078743e-02 1.208364e-02 1.054567e-02 1.230744e-02 1.037568e-02 1.245441e-02 1.030785e-02 1.248929e-02 1.037428e-02 1.239471e-02 1.059383e-02 1.216442e-02 1.096292e-02 1.180471e-02 1.144876e-02 1.133183e-02 1.199656e-02 1.079214e-02 1.254809e-02 1.025364e-02 1.303564e-02 9.805987e-03 1.340081e-02 9.564650e-03 1.359649e-02 9.677870e-03 1.360369e-02 1.048418e-02 1.348663e-02 1.361904e-02 1.762305e-02 1.735936e-02 9.097787e-03 3.914591e-03 7.772825e-03 7.555565e-03 
2.097683e-03 1.339712e-03 1.763125e-03 1.922781e-03 2.762334e-03 6.579786e-03 7.911789e-03 4.745554e-03 6.650632e-03 8.623452e-03 1.028121e-02 1.801544e-02 2.198446e-02 2.295886e-02 1.211240e-02 7.016697e-03 3.743791e-03 4.765180e-03 7.060527e-03 1.153683e-02 2.286271e-02 2.339876e-02 1.574362e-02 1.084704e-02 6.572755e-03 4.753233e-03 2.812380e-03 2.624230e-03 1.245514e-03 2.147948e-03 6.017075e-04 2.114741e-03 3.504097e-04 2.103334e-03 2.607751e-04 2.027359e-03 2.312972e-04 1.879562e-03 2.218222e-04 1.667976e-03 2.212847e-04 1.396452e-03 2.244295e-04 1.060436e-03 2.260909e-04 6.673583e-04 2.758123e-04 4.153704e-04 5.058544e-04 8.987086e-04 1.005391e-03 1.819049e-03 1.828422e-03 3.037090e-03 2.968677e-03 4.443509e-03 4.162389e-03 5.615344e-03 4.215395e-03 5.340667e-03 3.931030e-03 4.861726e-03 3.329792e-03 3.612929e-03 2.175043e-03 1.825309e-03 1.630716e-03 2.094764e-03 2.028577e-03 2.494139e-03 1.664761e-03 2.770918e-03 2.172604e-03 2.809028e-03 1.898627e-03 2.370009e-03 1.279894e-03 1.851548e-03 7.697577e-04 1.405115e-03 4.943908e-04 1.024383e-03 4.302809e-04 6.831923e-04 4.500578e-04 3.795888e-04 4.707655e-04 2.055393e-04 4.922696e-04 3.654540e-04 5.402098e-04 6.233771e-04 6.161811e-04 8.679769e-04 6.927457e-04 1.061945e-03 7.317116e-04 1.171874e-03 7.027672e-04 1.171175e-03 5.905256e-04 1.051879e-03 4.386350e-04 8.353081e-04 4.819117e-04 6.179958e-04 8.505319e-04 6.523374e-04 1.348789e-03 9.938433e-04 1.852458e-03 1.404126e-03 2.267329e-03 1.732944e-03 2.501883e-03 1.895138e-03 2.454688e-03 1.889194e-03 1.983406e-03 2.011847e-03 8.722098e-04 3.638901e-03 4.570206e-03 6.055507e-03 1.357475e-03 1.504285e-03 2.480450e-03 8.090458e-04 
