# vtk DataFile Version 2.0
Comment goes here
ASCII

DATASET STRUCTURED_POINTS
FIELD FieldData 1
TIME 1 1 double
0.09000000
DIMENSIONS    128   16   1

ORIGIN    0.000   0.000   0.000
SPACING   0.0078125 0.015625   1.000

POINT_DATA   2048
SCALARS uX double
LOOKUP_TABLE default

-2.403621e-03 -3.679670e-03 -1.608662e-03 -3.791688e-03 -9.696259e-04 -6.931355e-03 -4.895000e-03 -1.633852e-03 -3.208874e-03 2.071546e-03 2.222525e-03 9.776061e-03 1.428559e-02 2.326666e-02 2.770678e-02 3.158600e-02 3.097719e-02 3.298442e-02 2.978503e-02 2.851689e-02 2.295601e-02 1.525152e-02 8.777989e-03 4.491677e-03 7.205237e-04 -4.644080e-04 -2.420674e-03 -3.108159e-03 -3.456783e-03 -4.018621e-03 -4.239399e-03 -4.563987e-03 -4.497061e-03 -5.191628e-03 -4.318762e-03 -5.219209e-03 -4.032386e-03 -5.102506e-03 -4.032326e-03 -5.043298e-03 -3.947457e-03 -4.885282e-03 -3.656412e-03 -4.556636e-03 -3.493550e-03 -4.506958e-03 -3.982736e-03 -4.664985e-03 -4.329740e-03 -4.376346e-03 -4.396715e-03 -4.279021e-03 -4.928357e-03 -4.592876e-03 -5.447537e-03 -4.409256e-03 -4.840308e-03 -4.068418e-03 -5.876442e-03 -2.911402e-03 2.825944e-04 6.127784e-04 -2.607438e-03 -2.746409e-03 -1.961896e-03 1.954410e-03 4.413677e-03 1.086911e-03 -6.623282e-04 -1.187080e-03 4.706556e-04 2.694190e-03 3.297197e-03 1.861412e-03 1.411496e-03 -9.771775e-04 -1.719331e-03 -2.865149e-03 -2.316281e-03 -2.554536e-03 -2.735701e-03 -3.449734e-03 -3.823543e-03 -3.331772e-03 -3.191529e-03 -2.683260e-03 -3.733326e-03 -3.171856e-03 -3.938807e-03 -2.454318e-03 -3.554359e-03 -2.770808e-03 -4.197448e-03 -3.083622e-03 -3.679797e-03 -2.811869e-03 -3.766686e-03 -2.868959e-03 -3.519874e-03 -2.922805e-03 -3.295164e-03 -3.840283e-03 -2.852291e-03 -3.672756e-03 -2.513404e-03 -4.250374e-03 -2.284191e-03 -4.627966e-03 -1.473905e-03 -4.844202e-03 -1.776228e-03 -4.625921e-03 -1.594654e-03 -4.786625e-03 -1.964146e-03 -3.914665e-03 -2.562797e-03 -3.312604e-03 -3.488412e-03 -2.296700e-03 -4.747743e-03 -1.704649e-03 -6.493833e-03 -4.800367e-04 -1.689313e-03 -1.328996e-03 -2.134314e-03 -3.001240e-03 
-2.507715e-04 -1.405389e-03 8.586966e-04 -1.054960e-03 2.914661e-03 -4.945799e-03 -3.549557e-03 3.976087e-04 -4.044894e-03 9.778164e-04 -3.451511e-03 1.685099e-03 -3.056902e-03 1.306439e-04 -4.982032e-03 -2.693254e-03 -4.847537e-03 -3.668259e-03 -4.139736e-03 -3.534933e-03 -2.161309e-03 -2.459624e-03 -1.983750e-04 -7.619376e-04 -1.246832e-03 -8.845282e-04 -1.428125e-03 -2.168065e-03 -8.201276e-04 -1.321608e-03 -1.083913e-03 -1.050469e-03 -1.360926e-03 -2.420289e-03 -1.251182e-03 -2.460663e-03 -5.718911e-04 -1.772171e-03 -5.301334e-04 -1.718084e-03 -8.368104e-04 -2.037262e-03 -4.762914e-04 -1.294826e-03 4.383832e-04 -8.397047e-04 -5.439476e-04 -1.418407e-03 -1.075559e-03 -4.988554e-04 1.057420e-04 8.232485e-04 5.414173e-04 1.486990e-03 1.410016e-03 4.513894e-03 5.970452e-03 8.446011e-03 6.661732e-03 6.242559e-03 4.652191e-03 3.490257e-03 2.213924e-03 2.079736e-03 1.810662e-03 7.024097e-04 -4.392694e-04 -2.125132e-03 -3.171922e-03 -3.699881e-03 -3.974035e-03 -4.392516e-03 -3.129391e-03 -2.815739e-03 -6.992859e-04 -2.092580e-03 -2.054095e-03 -2.448694e-03 -5.155994e-04 2.969225e-04 2.072958e-04 -1.042330e-03 -1.756042e-03 -5.711598e-04 5.197006e-04 1.209345e-03 -5.942285e-04 -6.911407e-04 -1.232004e-03 1.195821e-03 4.351582e-04 6.742724e-04 -1.457669e-03 -4.495149e-04 1.258740e-05 7.529977e-04 -1.332493e-05 5.575503e-04 -3.700780e-04 4.624447e-04 -2.042962e-04 -1.083178e-03 5.706282e-04 -3.526900e-05 7.609620e-04 -1.082543e-03 4.098733e-04 -1.539112e-03 2.329468e-03 -1.551577e-03 1.340486e-03 -1.128703e-03 1.845391e-03 -1.818323e-03 1.581483e-03 -3.027575e-04 1.071194e-03 -8.320102e-05 -1.542832e-04 1.128681e-03 -1.522275e-03 1.847657e-03 -4.129202e-03 3.854381e-03 2.672074e-03 1.248119e-03 2.764606e-04 -8.538952e-04 
-4.348984e-03 -4.607411e-03 -1.360814e-03 8.674906e-04 8.514303e-03 7.604416e-03 5.336785e-03 6.933914e-03 4.215065e-03 4.002205e-03 1.942439e-03 -1.270659e-03 -4.087099e-03 -8.548699e-03 -9.544158e-03 -1.200258e-02 -1.084899e-02 -1.211774e-02 -1.115528e-02 -9.838635e-03 -9.220782e-03 -3.474431e-03 -1.850794e-03 3.862097e-03 2.740624e-03 6.806525e-03 4.587341e-03 6.871881e-03 5.676333e-03 6.922298e-03 6.430992e-03 6.972667e-03 6.533039e-03 6.170986e-03 7.305842e-03 5.841556e-03 7.648954e-03 5.766056e-03 7.320721e-03 6.175053e-03 7.746834e-03 6.904064e-03 8.278489e-03 6.657905e-03 7.855639e-03 7.041960e-03 7.266084e-03 7.988877e-03 6.945148e-03 7.383198e-03 6.447480e-03 6.853713e-03 6.869934e-03 7.200706e-03 6.188799e-03 5.243095e-03 3.247654e-03 3.650380e-03 5.320006e-03 2.241240e-03 -3.680952e-03 -2.644667e-03 2.593285e-03 4.402183e-03 2.194724e-03 -2.878524e-03 -6.944695e-03 -3.112713e-04 3.043627e-03 3.636153e-03 9.996965e-04 -3.158579e-03 -2.265496e-03 -1.817273e-03 5.063093e-04 1.541196e-03 3.724672e-03 4.107526e-03 5.646147e-03 5.245573e-03 6.400684e-03 6.260825e-03 6.987650e-03 7.208170e-03 7.192325e-03 7.674985e-03 6.975332e-03 7.999621e-03 7.162942e-03 8.730783e-03 7.393832e-03 8.827756e-03 6.839695e-03 8.259607e-03 7.109792e-03 8.824766e-03 8.100654e-03 9.436791e-03 7.557050e-03 7.821606e-03 7.232419e-03 7.673603e-03 8.219023e-03 7.979517e-03 8.126698e-03 6.603415e-03 7.995679e-03 6.331973e-03 8.856757e-03 6.943277e-03 9.401344e-03 6.674762e-03 9.613601e-03 6.618041e-03 9.421338e-03 7.230566e-03 9.370562e-03 8.252529e-03 8.719938e-03 8.982876e-03 6.917261e-03 1.035309e-02 5.598615e-03 1.257896e-02 8.308668e-03 5.783854e-04 -2.023506e-03 -4.736819e-03 
-5.827688e-03 -3.805923e-03 -2.920316e-03 4.355422e-03 7.229066e-03 2.226240e-02 1.597982e-02 1.297041e-02 1.752964e-02 1.189642e-02 1.781366e-02 1.135193e-02 1.762107e-02 1.351156e-02 1.927644e-02 1.642195e-02 1.895747e-02 1.765935e-02 1.813426e-02 1.767499e-02 1.592216e-02 1.658914e-02 1.259506e-02 1.541885e-02 1.387846e-02 1.618126e-02 1.392173e-02 1.761814e-02 1.300315e-02 1.508403e-02 1.410891e-02 1.407550e-02 1.489339e-02 1.578851e-02 1.581227e-02 1.539910e-02 1.494937e-02 1.381769e-02 1.456363e-02 1.431306e-02 1.582175e-02 1.608396e-02 1.569741e-02 1.436599e-02 1.303932e-02 1.389135e-02 1.410855e-02 1.630905e-02 1.465327e-02 1.380829e-02 1.165954e-02 1.087559e-02 1.214966e-02 1.161746e-02 1.263285e-02 8.313980e-03 7.485558e-03 4.278215e-03 6.872088e-03 8.091465e-03 1.139913e-02 1.045451e-02 8.499096e-03 8.132153e-03 8.768991e-03 1.318268e-02 1.295557e-02 1.140208e-02 8.726837e-03 1.010372e-02 1.147154e-02 1.356763e-02 1.265946e-02 1.165619e-02 1.047464e-02 1.313892e-02 1.577144e-02 1.577021e-02 1.406795e-02 1.098480e-02 1.308541e-02 1.485335e-02 1.755271e-02 1.508757e-02 1.286059e-02 1.217176e-02 1.474609e-02 1.679197e-02 1.617901e-02 1.394600e-02 1.279414e-02 1.520189e-02 1.596315e-02 1.694814e-02 1.322332e-02 1.505053e-02 1.449191e-02 1.603593e-02 1.489893e-02 1.413330e-02 1.442067e-02 1.673683e-02 1.424424e-02 1.453600e-02 1.410871e-02 1.466969e-02 1.504807e-02 1.498859e-02 1.237817e-02 1.551356e-02 1.528367e-02 1.433062e-02 1.460001e-02 1.584433e-02 1.471058e-02 1.385152e-02 1.528181e-02 1.524046e-02 1.641583e-02 1.430166e-02 1.619602e-02 1.466511e-02 1.849766e-02 1.145570e-02 5.180219e-03 -1.563286e-03 -3.865657e-03 -5.369855e-03 
-2.552388e-02 -2.385124e-02 -2.702500e-02 -2.481198e-02 -3.150725e-02 -2.069524e-02 -2.169827e-02 -2.509500e-02 -1.988913e-02 -2.305068e-02 -1.876151e-02 -1.972067e-02 -1.750364e-02 -1.814524e-02 -1.896007e-02 -1.868829e-02 -1.942632e-02 -1.906763e-02 -1.869271e-02 -1.893846e-02 -1.736302e-02 -1.845646e-02 -1.960566e-02 -2.220608e-02 -2.097962e-02 -2.302236e-02 -2.174370e-02 -2.145122e-02 -2.295570e-02 -2.269320e-02 -2.290796e-02 -2.327947e-02 -2.232850e-02 -2.133045e-02 -2.251808e-02 -2.111018e-02 -2.328196e-02 -2.187035e-02 -2.300058e-02 -2.194141e-02 -2.263470e-02 -2.159837e-02 -2.318105e-02 -2.205776e-02 -2.400574e-02 -2.243958e-02 -2.235308e-02 -2.163529e-02 -2.101017e-02 -2.146387e-02 -2.092045e-02 -2.089546e-02 -1.885621e-02 -1.783120e-02 -1.372451e-02 -1.251713e-02 -8.722619e-03 -1.045269e-02 -1.072934e-02 -1.063197e-02 -7.427243e-03 -9.769623e-03 -1.367977e-02 -1.619266e-02 -1.452436e-02 -1.215497e-02 -1.199852e-02 -1.468722e-02 -1.904669e-02 -1.744993e-02 -1.512232e-02 -1.135366e-02 -1.494724e-02 -1.732933e-02 -2.031568e-02 -1.973061e-02 -2.004435e-02 -2.026833e-02 -2.243114e-02 -2.366580e-02 -2.339908e-02 -2.230649e-02 -2.135546e-02 -2.302547e-02 -2.411713e-02 -2.499947e-02 -2.276315e-02 -2.262179e-02 -2.216871e-02 -2.492430e-02 -2.436179e-02 -2.424306e-02 -2.199673e-02 -2.253852e-02 -2.384822e-02 -2.425669e-02 -2.425865e-02 -2.446960e-02 -2.330583e-02 -2.366658e-02 -2.311101e-02 -2.210502e-02 -2.428845e-02 -2.378727e-02 -2.415800e-02 -2.219887e-02 -2.343485e-02 -2.175646e-02 -2.587853e-02 -2.223761e-02 -2.484385e-02 -2.260662e-02 -2.544947e-02 -2.169004e-02 -2.519819e-02 -2.348675e-02 -2.486538e-02 -2.385783e-02 -2.359135e-02 -2.527170e-02 -2.190686e-02 -2.710557e-02 -2.009151e-02 -3.321796e-02 -3.255479e-02 -2.806159e-02 -2.680394e-02 -2.467655e-02 
-2.983319e-02 -3.036433e-02 -3.277020e-02 -3.671616e-02 -4.236990e-02 -4.736055e-02 -4.207290e-02 -4.201773e-02 -4.103113e-02 -3.948444e-02 -3.889575e-02 -3.596372e-02 -3.495265e-02 -3.445047e-02 -3.481682e-02 -3.450150e-02 -3.471354e-02 -3.467645e-02 -3.459706e-02 -3.473398e-02 -3.433227e-02 -3.464333e-02 -3.653270e-02 -3.954624e-02 -3.966641e-02 -4.213538e-02 -4.081317e-02 -4.320840e-02 -4.117714e-02 -4.246969e-02 -4.214232e-02 -4.226686e-02 -4.250578e-02 -4.259912e-02 -4.332100e-02 -4.225361e-02 -4.317509e-02 -4.157832e-02 -4.285344e-02 -4.203641e-02 -4.364937e-02 -4.322313e-02 -4.397224e-02 -4.241405e-02 -4.268494e-02 -4.250759e-02 -4.284786e-02 -4.417646e-02 -4.291503e-02 -4.290488e-02 -4.134609e-02 -4.143137e-02 -4.167157e-02 -4.191170e-02 -4.154340e-02 -4.014949e-02 -3.975590e-02 -3.934849e-02 -3.878465e-02 -3.961202e-02 -4.001321e-02 -3.813386e-02 -3.512508e-02 -3.441602e-02 -3.364717e-02 -3.565263e-02 -3.410617e-02 -3.044098e-02 -2.797675e-02 -2.802692e-02 -2.811448e-02 -2.759398e-02 -2.935993e-02 -3.100346e-02 -3.318855e-02 -3.567560e-02 -3.855865e-02 -3.930708e-02 -3.967325e-02 -3.864979e-02 -4.024839e-02 -4.144330e-02 -4.293852e-02 -4.244217e-02 -4.133426e-02 -4.167062e-02 -4.225494e-02 -4.398940e-02 -4.314827e-02 -4.322678e-02 -4.195394e-02 -4.385306e-02 -4.315912e-02 -4.430626e-02 -4.220957e-02 -4.385060e-02 -4.335318e-02 -4.468178e-02 -4.320554e-02 -4.292867e-02 -4.279959e-02 -4.396563e-02 -4.328736e-02 -4.319236e-02 -4.318105e-02 -4.246763e-02 -4.356979e-02 -4.242608e-02 -4.293715e-02 -4.300898e-02 -4.453750e-02 -4.235856e-02 -4.435923e-02 -4.303616e-02 -4.430029e-02 -4.261912e-02 -4.449205e-02 -4.397566e-02 -4.464009e-02 -4.431989e-02 -4.373287e-02 -4.589088e-02 -4.451505e-02 -4.663334e-02 -4.077830e-02 -3.409029e-02 -3.164423e-02 -2.969724e-02 
-3.695257e-02 -3.742624e-02 -3.839349e-02 -4.093752e-02 -4.301853e-02 -4.881489e-02 -4.644389e-02 -4.573128e-02 -4.686315e-02 -4.564999e-02 -4.691390e-02 -4.568844e-02 -4.614948e-02 -4.563812e-02 -4.603347e-02 -4.574554e-02 -4.593526e-02 -4.589504e-02 -4.572786e-02 -4.601680e-02 -4.548612e-02 -4.612873e-02 -4.560647e-02 -4.692753e-02 -4.614486e-02 -4.748907e-02 -4.622657e-02 -4.801528e-02 -4.599156e-02 -4.707188e-02 -4.644480e-02 -4.657064e-02 -4.680352e-02 -4.696342e-02 -4.720030e-02 -4.667806e-02 -4.699959e-02 -4.608916e-02 -4.694504e-02 -4.626310e-02 -4.739224e-02 -4.688891e-02 -4.733354e-02 -4.637960e-02 -4.635336e-02 -4.628177e-02 -4.654187e-02 -4.713079e-02 -4.653593e-02 -4.635354e-02 -4.546434e-02 -4.556324e-02 -4.586861e-02 -4.648442e-02 -4.714707e-02 -4.726909e-02 -4.734577e-02 -4.669629e-02 -4.699619e-02 -4.727294e-02 -4.829628e-02 -4.801504e-02 -4.817731e-02 -4.780171e-02 -4.859812e-02 -4.971918e-02 -4.931408e-02 -5.055901e-02 -4.927115e-02 -5.014290e-02 -5.135017e-02 -5.233697e-02 -5.017641e-02 -4.703229e-02 -4.615394e-02 -4.591065e-02 -4.691790e-02 -4.643195e-02 -4.613225e-02 -4.494855e-02 -4.587820e-02 -4.653335e-02 -4.749842e-02 -4.688879e-02 -4.601056e-02 -4.616254e-02 -4.673985e-02 -4.793687e-02 -4.728816e-02 -4.712039e-02 -4.621114e-02 -4.764192e-02 -4.737461e-02 -4.829403e-02 -4.654490e-02 -4.767961e-02 -4.704961e-02 -4.796209e-02 -4.724408e-02 -4.723591e-02 -4.714485e-02 -4.796729e-02 -4.715115e-02 -4.705153e-02 -4.722128e-02 -4.696623e-02 -4.766515e-02 -4.695911e-02 -4.689951e-02 -4.707643e-02 -4.801062e-02 -4.669687e-02 -4.782228e-02 -4.730550e-02 -4.781679e-02 -4.679885e-02 -4.784703e-02 -4.750348e-02 -4.796283e-02 -4.743960e-02 -4.758904e-02 -4.757859e-02 -4.773465e-02 -4.522960e-02 -4.166852e-02 -3.914927e-02 -3.783661e-02 -3.698556e-02 
-3.668614e-02 -3.723826e-02 -3.778651e-02 -3.941863e-02 -4.040460e-02 -4.280285e-02 -4.299595e-02 -4.420555e-02 -4.510054e-02 -4.623792e-02 -4.812535e-02 -4.994331e-02 -5.232172e-02 -5.205711e-02 -5.223365e-02 -5.207164e-02 -5.215256e-02 -5.213168e-02 -5.208541e-02 -5.220574e-02 -5.204247e-02 -5.228660e-02 -4.859649e-02 -4.811660e-02 -4.570706e-02 -4.622086e-02 -4.444163e-02 -4.526214e-02 -4.384462e-02 -4.450979e-02 -4.372968e-02 -4.403653e-02 -4.379451e-02 -4.380791e-02 -4.395318e-02 -4.360181e-02 -4.403260e-02 -4.345843e-02 -4.411639e-02 -4.354074e-02 -4.427650e-02 -4.374377e-02 -4.431101e-02 -4.378465e-02 -4.414187e-02 -4.394239e-02 -4.412987e-02 -4.426583e-02 -4.416254e-02 -4.433965e-02 -4.423189e-02 -4.461128e-02 -4.494180e-02 -4.564943e-02 -4.644689e-02 -4.747643e-02 -4.865388e-02 -4.913465e-02 -4.862853e-02 -4.883979e-02 -4.866150e-02 -4.883387e-02 -4.803995e-02 -4.780845e-02 -4.794373e-02 -4.787616e-02 -4.777221e-02 -4.724344e-02 -4.612626e-02 -4.625946e-02 -4.640926e-02 -4.658365e-02 -4.587616e-02 -4.471185e-02 -4.406755e-02 -4.350826e-02 -4.363004e-02 -4.323389e-02 -4.340857e-02 -4.303128e-02 -4.341161e-02 -4.342425e-02 -4.368752e-02 -4.371485e-02 -4.352887e-02 -4.386437e-02 -4.364582e-02 -4.432409e-02 -4.375191e-02 -4.443637e-02 -4.364941e-02 -4.465764e-02 -4.381086e-02 -4.482223e-02 -4.378028e-02 -4.479826e-02 -4.396002e-02 -4.479994e-02 -4.403575e-02 -4.456234e-02 -4.407599e-02 -4.452490e-02 -4.418093e-02 -4.425791e-02 -4.427257e-02 -4.403906e-02 -4.439434e-02 -4.391561e-02 -4.442663e-02 -4.388016e-02 -4.469192e-02 -4.379544e-02 -4.473115e-02 -4.387693e-02 -4.468075e-02 -4.385897e-02 -4.452463e-02 -4.397557e-02 -4.417658e-02 -4.382154e-02 -4.347316e-02 -4.328622e-02 -4.236024e-02 -4.137166e-02 -3.960719e-02 -3.833608e-02 -3.733485e-02 -3.686205e-02 
-3.985570e-02 -4.043004e-02 -4.076386e-02 -4.234434e-02 -4.293575e-02 -4.515781e-02 -4.540060e-02 -4.647065e-02 -4.760205e-02 -4.848203e-02 -5.057495e-02 -5.230067e-02 -5.477367e-02 -5.447901e-02 -5.468912e-02 -5.451773e-02 -5.459534e-02 -5.459911e-02 -5.449379e-02 -5.468828e-02 -5.442555e-02 -5.475031e-02 -5.083335e-02 -5.034719e-02 -4.800688e-02 -4.851586e-02 -4.686845e-02 -4.765720e-02 -4.636892e-02 -4.706401e-02 -4.627468e-02 -4.667816e-02 -4.633597e-02 -4.645504e-02 -4.644412e-02 -4.628591e-02 -4.656269e-02 -4.620800e-02 -4.671027e-02 -4.624372e-02 -4.682334e-02 -4.633301e-02 -4.685338e-02 -4.642385e-02 -4.683731e-02 -4.661239e-02 -4.691844e-02 -4.690274e-02 -4.708076e-02 -4.721070e-02 -4.745129e-02 -4.782803e-02 -4.840334e-02 -4.909586e-02 -5.016462e-02 -5.126944e-02 -5.305791e-02 -5.349873e-02 -5.235945e-02 -5.187764e-02 -5.077910e-02 -5.086920e-02 -5.039843e-02 -5.016953e-02 -4.982319e-02 -4.865436e-02 -4.815674e-02 -4.811326e-02 -4.795946e-02 -4.815403e-02 -4.746825e-02 -4.618238e-02 -4.645709e-02 -4.707023e-02 -4.715692e-02 -4.707248e-02 -4.725680e-02 -4.688693e-02 -4.702023e-02 -4.660597e-02 -4.684012e-02 -4.665887e-02 -4.679081e-02 -4.669795e-02 -4.656951e-02 -4.674007e-02 -4.652697e-02 -4.694817e-02 -4.648968e-02 -4.701817e-02 -4.641261e-02 -4.718296e-02 -4.648878e-02 -4.730305e-02 -4.648161e-02 -4.729618e-02 -4.658089e-02 -4.725248e-02 -4.664217e-02 -4.713018e-02 -4.670894e-02 -4.708002e-02 -4.678438e-02 -4.687988e-02 -4.686338e-02 -4.671927e-02 -4.693940e-02 -4.659473e-02 -4.696484e-02 -4.650396e-02 -4.709916e-02 -4.642166e-02 -4.712966e-02 -4.643975e-02 -4.709107e-02 -4.636946e-02 -4.693410e-02 -4.628814e-02 -4.660093e-02 -4.595480e-02 -4.595238e-02 -4.516432e-02 -4.474112e-02 -4.343144e-02 -4.227043e-02 -4.116214e-02 -4.040048e-02 -4.003370e-02 
-3.669658e-02 -3.725902e-02 -3.780087e-02 -3.944403e-02 -4.042029e-02 -4.283160e-02 -4.300948e-02 -4.423120e-02 -4.511602e-02 -4.628042e-02 -4.812790e-02 -5.000418e-02 -5.235725e-02 -5.210511e-02 -5.227517e-02 -5.213306e-02 -5.220311e-02 -5.220118e-02 -5.213927e-02 -5.228391e-02 -5.210897e-02 -5.235274e-02 -4.877389e-02 -4.818308e-02 -4.578648e-02 -4.614357e-02 -4.444138e-02 -4.509277e-02 -4.384509e-02 -4.446654e-02 -4.367862e-02 -4.407178e-02 -4.369642e-02 -4.378410e-02 -4.378849e-02 -4.363863e-02 -4.397636e-02 -4.365405e-02 -4.420975e-02 -4.370571e-02 -4.431620e-02 -4.374576e-02 -4.436806e-02 -4.386116e-02 -4.439106e-02 -4.400875e-02 -4.434017e-02 -4.411969e-02 -4.422925e-02 -4.418874e-02 -4.417164e-02 -4.429737e-02 -4.418282e-02 -4.430235e-02 -4.392678e-02 -4.377756e-02 -4.284376e-02 -4.297393e-02 -4.387912e-02 -4.448671e-02 -4.518455e-02 -4.563982e-02 -4.596063e-02 -4.663335e-02 -4.699718e-02 -4.798580e-02 -4.815141e-02 -4.919930e-02 -4.910477e-02 -4.928009e-02 -4.981948e-02 -5.107028e-02 -5.040478e-02 -4.892740e-02 -4.829856e-02 -4.719536e-02 -4.690340e-02 -4.594631e-02 -4.581988e-02 -4.514331e-02 -4.517378e-02 -4.480064e-02 -4.470527e-02 -4.458477e-02 -4.435041e-02 -4.457441e-02 -4.415553e-02 -4.461945e-02 -4.397257e-02 -4.467502e-02 -4.390425e-02 -4.480870e-02 -4.389694e-02 -4.486318e-02 -4.391518e-02 -4.490111e-02 -4.401238e-02 -4.484989e-02 -4.406006e-02 -4.474506e-02 -4.417347e-02 -4.463219e-02 -4.430195e-02 -4.444382e-02 -4.441622e-02 -4.422355e-02 -4.448861e-02 -4.402550e-02 -4.458303e-02 -4.385474e-02 -4.464615e-02 -4.376492e-02 -4.470445e-02 -4.379299e-02 -4.465279e-02 -4.381473e-02 -4.444228e-02 -4.385099e-02 -4.406877e-02 -4.376644e-02 -4.345138e-02 -4.324065e-02 -4.232660e-02 -4.135528e-02 -3.959435e-02 -3.833939e-02 -3.733703e-02 -3.687649e-02 
-3.699728e-02 -3.748663e-02 -3.844471e-02 -4.100502e-02 -4.307324e-02 -4.889105e-02 -4.648938e-02 -4.579895e-02 -4.691888e-02 -4.570093e-02 -4.684081e-02 -4.584465e-02 -4.618028e-02 -4.570329e-02 -4.607545e-02 -4.582479e-02 -4.599194e-02 -4.597748e-02 -4.583197e-02 -4.614506e-02 -4.566824e-02 -4.624036e-02 -4.632272e-02 -4.744538e-02 -4.633084e-02 -4.746001e-02 -4.615593e-02 -4.728385e-02 -4.614740e-02 -4.724520e-02 -4.651211e-02 -4.716441e-02 -4.671409e-02 -4.676743e-02 -4.668282e-02 -4.656764e-02 -4.704758e-02 -4.691131e-02 -4.765087e-02 -4.704960e-02 -4.762394e-02 -4.681161e-02 -4.759457e-02 -4.711633e-02 -4.796937e-02 -4.757408e-02 -4.800807e-02 -4.764022e-02 -4.782796e-02 -4.785934e-02 -4.812886e-02 -4.844869e-02 -4.851792e-02 -4.863522e-02 -4.844119e-02 -4.870530e-02 -4.838983e-02 -4.861282e-02 -4.922312e-02 -4.914716e-02 -4.966877e-02 -4.886378e-02 -4.795469e-02 -4.834051e-02 -4.867936e-02 -5.006631e-02 -4.964115e-02 -4.908168e-02 -4.820718e-02 -4.913301e-02 -5.017561e-02 -5.191607e-02 -5.160313e-02 -5.043478e-02 -5.074450e-02 -4.996766e-02 -5.004742e-02 -4.883587e-02 -4.877626e-02 -4.800490e-02 -4.833930e-02 -4.789275e-02 -4.782334e-02 -4.754622e-02 -4.746331e-02 -4.769890e-02 -4.733502e-02 -4.755518e-02 -4.689430e-02 -4.758103e-02 -4.704177e-02 -4.794420e-02 -4.697786e-02 -4.786384e-02 -4.703276e-02 -4.810210e-02 -4.730207e-02 -4.790102e-02 -4.706110e-02 -4.777533e-02 -4.727968e-02 -4.783142e-02 -4.744698e-02 -4.759087e-02 -4.756046e-02 -4.736273e-02 -4.746505e-02 -4.712971e-02 -4.764102e-02 -4.693185e-02 -4.765221e-02 -4.677671e-02 -4.776610e-02 -4.695766e-02 -4.789262e-02 -4.701546e-02 -4.778091e-02 -4.711168e-02 -4.756938e-02 -4.735399e-02 -4.765475e-02 -4.740529e-02 -4.759739e-02 -4.520405e-02 -4.165445e-02 -3.918320e-02 -3.786593e-02 -3.703855e-02 
-2.988192e-02 -3.043320e-02 -3.282368e-02 -3.679755e-02 -4.242989e-02 -4.747018e-02 -4.210937e-02 -4.200964e-02 -4.111482e-02 -3.964528e-02 -3.879107e-02 -3.623487e-02 -3.502909e-02 -3.454760e-02 -3.492535e-02 -3.469847e-02 -3.487565e-02 -3.487211e-02 -3.471910e-02 -3.505172e-02 -3.459077e-02 -3.532099e-02 -3.761726e-02 -4.010139e-02 -3.986303e-02 -4.158940e-02 -4.063103e-02 -4.222895e-02 -4.124071e-02 -4.240121e-02 -4.187989e-02 -4.254048e-02 -4.229017e-02 -4.222583e-02 -4.238663e-02 -4.217260e-02 -4.281405e-02 -4.266357e-02 -4.368599e-02 -4.285533e-02 -4.359283e-02 -4.262568e-02 -4.366233e-02 -4.286634e-02 -4.383932e-02 -4.311160e-02 -4.372858e-02 -4.317189e-02 -4.315369e-02 -4.287427e-02 -4.270438e-02 -4.311655e-02 -4.309193e-02 -4.337386e-02 -4.287716e-02 -4.316681e-02 -4.312953e-02 -4.376034e-02 -4.390543e-02 -4.393008e-02 -4.356902e-02 -4.371785e-02 -4.373468e-02 -4.482034e-02 -4.476784e-02 -4.569983e-02 -4.536538e-02 -4.601603e-02 -4.633793e-02 -4.792528e-02 -4.840218e-02 -4.851720e-02 -4.803116e-02 -4.741429e-02 -4.809081e-02 -4.743327e-02 -4.754119e-02 -4.576595e-02 -4.549575e-02 -4.442245e-02 -4.512665e-02 -4.457681e-02 -4.428709e-02 -4.370132e-02 -4.355587e-02 -4.398469e-02 -4.358608e-02 -4.398617e-02 -4.293351e-02 -4.372406e-02 -4.289256e-02 -4.423560e-02 -4.296986e-02 -4.410458e-02 -4.280248e-02 -4.430181e-02 -4.318896e-02 -4.419246e-02 -4.299760e-02 -4.404495e-02 -4.329520e-02 -4.401102e-02 -4.358362e-02 -4.377921e-02 -4.382650e-02 -4.331159e-02 -4.373720e-02 -4.303162e-02 -4.401382e-02 -4.247744e-02 -4.381662e-02 -4.228898e-02 -4.431980e-02 -4.267726e-02 -4.436228e-02 -4.266023e-02 -4.408024e-02 -4.320855e-02 -4.402499e-02 -4.435849e-02 -4.397589e-02 -4.575157e-02 -4.433942e-02 -4.661639e-02 -4.076070e-02 -3.413451e-02 -3.167815e-02 -2.975985e-02 
-2.564929e-02 -2.397330e-02 -2.713996e-02 -2.493804e-02 -3.164500e-02 -2.086205e-02 -2.186706e-02 -2.512341e-02 -2.015116e-02 -2.352853e-02 -1.920084e-02 -1.998251e-02 -1.779340e-02 -1.833233e-02 -1.894097e-02 -1.867486e-02 -1.911686e-02 -1.884655e-02 -1.875470e-02 -1.945748e-02 -1.831928e-02 -2.021912e-02 -1.960417e-02 -2.149431e-02 -2.113665e-02 -2.199162e-02 -2.191678e-02 -2.224254e-02 -2.247494e-02 -2.144180e-02 -2.210023e-02 -2.118316e-02 -2.232739e-02 -2.181703e-02 -2.314111e-02 -2.247168e-02 -2.305947e-02 -2.217453e-02 -2.288193e-02 -2.236709e-02 -2.345868e-02 -2.345620e-02 -2.425353e-02 -2.328329e-02 -2.350449e-02 -2.263506e-02 -2.362411e-02 -2.346219e-02 -2.390942e-02 -2.321627e-02 -2.278190e-02 -2.281933e-02 -2.328925e-02 -2.430864e-02 -2.445934e-02 -2.461976e-02 -2.383156e-02 -2.426724e-02 -2.394315e-02 -2.548938e-02 -2.498176e-02 -2.580454e-02 -2.489141e-02 -2.530559e-02 -2.462389e-02 -2.516920e-02 -2.524790e-02 -2.525493e-02 -2.545561e-02 -2.571409e-02 -2.618458e-02 -2.598028e-02 -2.611952e-02 -2.553992e-02 -2.550474e-02 -2.467624e-02 -2.485435e-02 -2.419424e-02 -2.448452e-02 -2.387473e-02 -2.444113e-02 -2.409861e-02 -2.416311e-02 -2.370114e-02 -2.360838e-02 -2.371060e-02 -2.375767e-02 -2.456150e-02 -2.398335e-02 -2.417201e-02 -2.302216e-02 -2.383192e-02 -2.328881e-02 -2.402893e-02 -2.274228e-02 -2.343083e-02 -2.257258e-02 -2.395120e-02 -2.357949e-02 -2.394383e-02 -2.372386e-02 -2.325891e-02 -2.410144e-02 -2.325463e-02 -2.460516e-02 -2.269885e-02 -2.524630e-02 -2.252843e-02 -2.532291e-02 -2.184041e-02 -2.508274e-02 -2.195469e-02 -2.555416e-02 -2.214265e-02 -2.481752e-02 -2.239107e-02 -2.412864e-02 -2.385192e-02 -2.398377e-02 -2.579313e-02 -2.224931e-02 -2.785606e-02 -2.060202e-02 -3.362276e-02 -3.283270e-02 -2.829182e-02 -2.697580e-02 -2.482957e-02 
-5.955201e-03 -3.898124e-03 -3.005492e-03 4.306649e-03 7.161474e-03 2.225044e-02 1.588675e-02 1.290682e-02 1.748217e-02 1.180577e-02 1.746517e-02 1.163893e-02 1.780964e-02 1.373935e-02 1.968257e-02 1.650340e-02 1.949549e-02 1.763599e-02 1.822999e-02 1.769163e-02 1.554604e-02 1.632850e-02 1.414768e-02 1.678184e-02 1.410817e-02 1.628108e-02 1.364232e-02 1.591071e-02 1.358602e-02 1.617946e-02 1.446564e-02 1.627330e-02 1.472718e-02 1.518260e-02 1.421694e-02 1.452677e-02 1.487323e-02 1.537159e-02 1.626919e-02 1.547592e-02 1.577934e-02 1.440126e-02 1.542067e-02 1.495288e-02 1.633738e-02 1.590417e-02 1.627259e-02 1.560918e-02 1.546836e-02 1.557609e-02 1.583409e-02 1.639014e-02 1.620014e-02 1.580491e-02 1.507045e-02 1.508676e-02 1.571191e-02 1.633480e-02 1.685061e-02 1.557224e-02 1.464209e-02 1.380832e-02 1.455894e-02 1.525549e-02 1.541584e-02 1.500656e-02 1.405802e-02 1.418424e-02 1.452289e-02 1.553364e-02 1.553142e-02 1.481718e-02 1.439881e-02 1.431108e-02 1.572468e-02 1.584867e-02 1.641125e-02 1.481066e-02 1.467270e-02 1.394683e-02 1.489102e-02 1.462077e-02 1.442227e-02 1.408679e-02 1.418069e-02 1.478029e-02 1.441958e-02 1.437865e-02 1.357312e-02 1.442241e-02 1.438808e-02 1.550756e-02 1.448159e-02 1.528430e-02 1.473584e-02 1.605827e-02 1.543077e-02 1.560800e-02 1.441446e-02 1.546387e-02 1.464481e-02 1.595845e-02 1.469126e-02 1.572725e-02 1.456735e-02 1.552137e-02 1.388852e-02 1.531067e-02 1.416431e-02 1.503900e-02 1.401001e-02 1.468633e-02 1.441367e-02 1.501769e-02 1.502139e-02 1.461872e-02 1.513262e-02 1.402816e-02 1.514101e-02 1.378684e-02 1.611761e-02 1.370326e-02 1.769966e-02 1.092519e-02 4.784595e-03 -1.846200e-03 -4.080556e-03 -5.529061e-03 
-4.409779e-03 -4.651658e-03 -1.404615e-03 8.549084e-04 8.493983e-03 7.641776e-03 5.316306e-03 6.813032e-03 4.277072e-03 4.232210e-03 1.985948e-03 -1.074648e-03 -3.939120e-03 -8.526183e-03 -9.604635e-03 -1.223842e-02 -1.120359e-02 -1.258708e-02 -1.126981e-02 -9.538364e-03 -8.614130e-03 -2.088309e-03 -1.095939e-03 3.960499e-03 2.996600e-03 6.030605e-03 4.603655e-03 6.780163e-03 5.577864e-03 6.506216e-03 5.907077e-03 6.360959e-03 6.332396e-03 6.247810e-03 6.858239e-03 6.384922e-03 7.193609e-03 6.483596e-03 7.759191e-03 6.626964e-03 7.992413e-03 6.963125e-03 8.452890e-03 7.053366e-03 8.167063e-03 6.901670e-03 8.021119e-03 7.341135e-03 7.607711e-03 6.990669e-03 6.554972e-03 6.873861e-03 6.852648e-03 7.641303e-03 7.054358e-03 7.440678e-03 6.799239e-03 7.839611e-03 7.666590e-03 8.983047e-03 8.410403e-03 9.247868e-03 8.974667e-03 1.004803e-02 9.874992e-03 1.058193e-02 1.074830e-02 1.081426e-02 1.141769e-02 1.203868e-02 1.268947e-02 1.212755e-02 1.213058e-02 1.125621e-02 1.181687e-02 1.068742e-02 1.097438e-02 9.268739e-03 9.373430e-03 8.302713e-03 9.091740e-03 8.572785e-03 8.325924e-03 7.876975e-03 7.627000e-03 8.213657e-03 7.739547e-03 8.689552e-03 7.458960e-03 8.433226e-03 7.068889e-03 8.680921e-03 7.343443e-03 8.746174e-03 7.078672e-03 8.646308e-03 7.288722e-03 8.862358e-03 7.654390e-03 8.746820e-03 7.889991e-03 8.303145e-03 8.264564e-03 8.151215e-03 8.653875e-03 7.486713e-03 8.898167e-03 7.158225e-03 9.182847e-03 6.384988e-03 8.922372e-03 6.301512e-03 9.561623e-03 6.597978e-03 9.217892e-03 6.639495e-03 8.607186e-03 7.566911e-03 8.335620e-03 9.020844e-03 7.041715e-03 1.035520e-02 5.520806e-03 1.250067e-02 8.220436e-03 4.924308e-04 -2.100516e-03 -4.804209e-03 
-2.762511e-04 -1.426395e-03 8.406263e-04 -1.061375e-03 2.911735e-03 -4.932497e-03 -3.537062e-03 3.586328e-04 -4.012157e-03 1.137408e-03 -3.294992e-03 1.639473e-03 -3.120837e-03 -5.189700e-05 -5.133737e-03 -2.658073e-03 -5.068306e-03 -3.576308e-03 -4.091420e-03 -3.386981e-03 -1.640168e-03 -1.684995e-03 -4.317683e-04 -1.322071e-03 -1.124557e-03 -1.319238e-03 -1.216444e-03 -1.399158e-03 -1.069218e-03 -1.925292e-03 -1.467862e-03 -2.213322e-03 -1.380495e-03 -1.964491e-03 -7.364592e-04 -1.629204e-03 -6.603439e-04 -1.893376e-03 -8.448644e-04 -1.763364e-03 -3.371149e-04 -9.402653e-04 2.641032e-04 -9.284799e-04 -1.656393e-04 -1.216124e-03 -1.984535e-04 -5.965887e-04 6.705635e-06 -4.086194e-04 -5.531189e-04 -4.630399e-04 -4.108514e-04 4.973483e-04 2.731786e-04 8.250297e-04 -1.925920e-04 3.277360e-04 -5.944362e-04 1.131707e-03 1.327132e-03 2.741678e-03 2.180640e-03 2.380151e-03 1.952681e-03 2.492135e-03 3.413097e-03 3.607930e-03 4.060167e-03 3.723642e-03 4.308730e-03 3.942191e-03 4.335405e-03 3.074829e-03 2.737685e-03 1.086848e-03 1.096937e-03 2.904257e-04 7.646494e-04 1.876386e-04 3.689598e-04 -1.742777e-05 -8.294074e-06 9.273535e-06 -1.993158e-04 1.020612e-04 -3.368099e-04 6.089842e-04 -1.216085e-04 6.673592e-04 -6.249599e-04 3.406558e-04 -5.580337e-04 4.826862e-04 -6.719837e-04 1.593473e-04 -8.025712e-04 4.919458e-04 -5.211203e-05 3.907655e-04 7.532469e-05 -3.089959e-04 4.400077e-04 -3.853191e-04 8.515778e-04 -8.973235e-04 1.435729e-03 -1.191966e-03 1.680931e-03 -1.610296e-03 1.650299e-03 -1.510989e-03 1.847815e-03 -1.491001e-03 1.274927e-03 -1.045063e-03 6.458495e-04 -5.287910e-06 1.001277e-04 1.218529e-03 -1.565796e-03 2.122649e-03 -3.934549e-03 3.910767e-03 2.695908e-03 1.231012e-03 2.562771e-04 -8.821866e-04 
