# vtk DataFile Version 2.0
Comment goes here
ASCII

DATASET STRUCTURED_POINTS
FIELD FieldData 1
TIME 1 1 double
0.92000000
DIMENSIONS    128   16   1

ORIGIN    0.000   0.000   0.000
SPACING   0.0078125 0.015625   1.000

POINT_DATA   2048
SCALARS uX double
LOOKUP_TABLE default

7.678303e-03 3.783470e-03 6.516476e-03 8.914615e-04 4.924568e-03 -2.055352e-03 1.102567e-02 -1.101568e-03 5.340212e-03 -4.391540e-03 -3.175544e-03 -1.365083e-02 -2.117448e-02 -3.702808e-02 -4.596802e-02 -4.847053e-02 -5.290516e-02 -5.115791e-02 -5.009359e-02 -4.435548e-02 -3.824228e-02 -1.956448e-02 -1.372290e-02 -3.925238e-03 -3.276508e-03 2.347843e-03 1.096373e-03 4.909733e-03 2.945226e-03 5.884879e-03 3.726638e-03 6.175201e-03 4.069248e-03 6.166743e-03 4.239317e-03 6.027042e-03 4.345195e-03 5.831971e-03 4.426399e-03 5.618169e-03 4.492705e-03 5.403471e-03 4.541819e-03 5.194848e-03 4.567196e-03 4.990666e-03 4.558244e-03 4.777640e-03 4.489875e-03 4.517895e-03 4.293990e-03 4.115571e-03 3.797272e-03 3.352947e-03 2.611230e-03 1.670691e-03 -6.552520e-04 -2.272722e-03 4.298353e-04 3.713766e-04 -1.452072e-03 -2.183404e-03 1.325562e-03 1.918534e-03 3.882879e-03 9.196367e-04 -1.465096e-03 7.942210e-04 4.042663e-03 7.252673e-03 8.737316e-03 1.125575e-02 1.144461e-02 8.519052e-03 6.190444e-03 5.523089e-03 4.278579e-03 4.619551e-03 3.547156e-03 4.392031e-03 3.275319e-03 4.380278e-03 3.196948e-03 4.391269e-03 3.217426e-03 4.350587e-03 3.308676e-03 4.233903e-03 3.462597e-03 4.040885e-03 3.671936e-03 3.786255e-03 3.921843e-03 3.495442e-03 4.187043e-03 3.201628e-03 4.432990e-03 2.943769e-03 4.619919e-03 2.763695e-03 4.707811e-03 2.701563e-03 4.661426e-03 2.790009e-03 4.455953e-03 3.048291e-03 4.082791e-03 3.477713e-03 3.555519e-03 4.058637e-03 2.915730e-03 4.750086e-03 2.239571e-03 5.492244e-03 1.647933e-03 6.211480e-03 1.329891e-03 6.822177e-03 1.600355e-03 7.204495e-03 3.040804e-03 7.062666e-03 6.987036e-03 1.180065e-03 5.991834e-03 2.982071e-03 7.336365e-03 4.449981e-03 
3.301310e-03 2.353284e-04 1.811774e-03 -2.708101e-03 -1.476978e-03 -7.033882e-03 8.675903e-03 -2.419438e-03 4.059494e-03 -1.256033e-03 -1.959230e-05 -8.760275e-04 -5.365994e-03 -8.298737e-05 -1.256820e-03 2.737086e-03 -4.843559e-04 3.408310e-03 -9.421045e-04 2.094032e-03 -2.951129e-03 -2.712705e-03 -2.133481e-03 -2.816674e-04 -8.470629e-04 9.844816e-04 -2.134029e-04 1.644208e-03 1.219223e-04 1.963681e-03 3.126932e-04 2.080973e-03 4.438917e-04 2.076281e-03 5.579671e-04 1.998912e-03 6.734540e-04 1.883233e-03 7.953089e-04 1.753784e-03 9.208473e-04 1.627487e-03 1.044327e-03 1.512318e-03 1.156194e-03 1.404428e-03 1.237386e-03 1.277455e-03 1.232548e-03 1.049107e-03 9.869427e-04 4.999496e-04 9.663257e-05 -9.242882e-04 -2.451102e-03 -4.784362e-03 -9.808911e-03 -1.402025e-02 -9.937361e-03 -8.399840e-03 -7.684721e-03 -8.480713e-03 -4.992449e-03 -5.001220e-03 -2.127690e-03 -3.718170e-03 -3.660316e-03 -1.489708e-03 2.249752e-03 5.392344e-03 7.343042e-03 1.265877e-02 1.389892e-02 8.804572e-03 5.081721e-03 3.061746e-03 1.467021e-03 1.160075e-03 1.208815e-04 5.888957e-04 -3.727486e-04 4.762167e-04 -5.198596e-04 4.759668e-04 -5.116180e-04 4.515870e-04 -4.162574e-04 3.545063e-04 -2.553981e-04 1.767810e-04 -3.879710e-05 -6.835569e-05 2.200218e-04 -3.544936e-04 4.969816e-04 -6.485125e-04 7.572206e-04 -9.111464e-04 9.608464e-04 -1.099695e-03 1.067434e-03 -1.171770e-03 1.042125e-03 -1.091283e-03 8.594103e-04 -8.361956e-04 5.091526e-04 -4.012189e-04 2.929569e-06 1.985091e-04 -6.203210e-04 9.287972e-04 -1.288284e-03 1.737753e-03 -1.892466e-03 2.559979e-03 -2.275028e-03 3.312437e-03 -2.193380e-03 3.830886e-03 -1.198232e-03 3.529117e-03 2.099993e-03 -5.916970e-03 2.031748e-03 -1.108055e-03 3.251720e-03 6.885780e-04 
1.086207e-02 8.318430e-03 7.213215e-03 1.570388e-03 -4.648104e-03 -1.496936e-02 -3.023787e-03 -1.105682e-02 -1.907617e-03 -6.247130e-03 1.569668e-03 1.559070e-03 1.166006e-02 1.596935e-02 2.093982e-02 2.199890e-02 2.323823e-02 2.367414e-02 2.149496e-02 2.077998e-02 1.597621e-02 9.897063e-03 1.995259e-03 -1.090224e-04 -4.576283e-03 -4.268040e-03 -7.512424e-03 -6.060338e-03 -8.906194e-03 -6.850625e-03 -9.588044e-03 -7.232862e-03 -9.912319e-03 -7.464805e-03 -1.003439e-02 -7.654330e-03 -1.002519e-02 -7.836885e-03 -9.919859e-03 -8.015795e-03 -9.737940e-03 -8.175174e-03 -9.484992e-03 -8.285676e-03 -9.149723e-03 -8.297866e-03 -8.685355e-03 -8.126911e-03 -7.988785e-03 -7.627517e-03 -6.850774e-03 -6.530197e-03 -4.862783e-03 -4.350343e-03 -1.278683e-03 -9.436903e-05 6.079142e-03 7.807053e-03 4.216670e-03 2.391188e-03 6.026925e-03 5.336619e-03 -2.093235e-04 -3.120617e-03 -6.450796e-03 -3.873958e-03 -6.353452e-04 -7.670832e-03 -1.445330e-02 -2.310885e-02 -2.665740e-02 -3.386395e-02 -3.414153e-02 -2.674315e-02 -2.192070e-02 -1.795621e-02 -1.637866e-02 -1.373923e-02 -1.370310e-02 -1.152393e-02 -1.239852e-02 -1.036906e-02 -1.175286e-02 -9.797017e-03 -1.140001e-02 -9.571267e-03 -1.115820e-02 -9.571092e-03 -1.093503e-02 -9.724896e-03 -1.068684e-02 -9.983036e-03 -1.039975e-02 -1.030351e-02 -1.008447e-02 -1.065070e-02 -9.771083e-03 -1.098649e-02 -9.497455e-03 -1.126876e-02 -9.304985e-03 -1.145297e-02 -9.230303e-03 -1.149842e-02 -9.306076e-03 -1.137992e-02 -9.554363e-03 -1.108957e-02 -9.980773e-03 -1.064361e-02 -1.057172e-02 -1.008108e-02 -1.129436e-02 -9.469298e-03 -1.211300e-02 -8.907224e-03 -1.300410e-02 -8.530997e-03 -1.397251e-02 -8.557713e-03 -1.497985e-02 -9.483394e-03 -1.531759e-02 -1.356965e-02 2.521699e-03 4.154180e-03 9.757999e-03 8.994231e-03 
9.643333e-03 9.755521e-03 6.756272e-03 4.411354e-03 -4.108724e-03 -1.205005e-02 -2.681125e-02 -2.032802e-02 -2.256942e-02 -2.126939e-02 -2.026330e-02 -2.168358e-02 -1.764848e-02 -2.328987e-02 -2.182801e-02 -2.603535e-02 -2.278896e-02 -2.659967e-02 -2.243045e-02 -2.519340e-02 -2.038065e-02 -2.037023e-02 -1.971606e-02 -2.099639e-02 -2.044708e-02 -2.129125e-02 -2.109363e-02 -2.134483e-02 -2.160358e-02 -2.126357e-02 -2.196976e-02 -2.113149e-02 -2.220434e-02 -2.100128e-02 -2.231787e-02 -2.089875e-02 -2.231611e-02 -2.082804e-02 -2.220016e-02 -2.077794e-02 -2.196765e-02 -2.072103e-02 -2.161013e-02 -2.061170e-02 -2.110664e-02 -2.037884e-02 -2.040639e-02 -1.991253e-02 -1.939972e-02 -1.903621e-02 -1.785930e-02 -1.743541e-02 -1.532042e-02 -1.450138e-02 -1.081595e-02 -8.727910e-03 -1.425752e-03 3.040043e-03 5.963328e-04 -2.951875e-03 -4.796340e-03 -6.032482e-03 -8.433005e-03 -1.035045e-02 -1.302869e-02 -1.581980e-02 -1.726235e-02 -2.103026e-02 -2.330594e-02 -2.720161e-02 -2.849481e-02 -3.407595e-02 -3.603545e-02 -3.321079e-02 -3.045110e-02 -2.807504e-02 -2.697223e-02 -2.529436e-02 -2.513189e-02 -2.371499e-02 -2.411730e-02 -2.279627e-02 -2.354196e-02 -2.225824e-02 -2.319795e-02 -2.195148e-02 -2.297398e-02 -2.179275e-02 -2.280962e-02 -2.173175e-02 -2.267080e-02 -2.173865e-02 -2.253596e-02 -2.179652e-02 -2.239224e-02 -2.189726e-02 -2.223372e-02 -2.203529e-02 -2.205878e-02 -2.220376e-02 -2.187037e-02 -2.239302e-02 -2.167412e-02 -2.259112e-02 -2.148080e-02 -2.278627e-02 -2.130442e-02 -2.296800e-02 -2.116131e-02 -2.312890e-02 -2.107078e-02 -2.326456e-02 -2.105820e-02 -2.337605e-02 -2.116450e-02 -2.347072e-02 -2.146366e-02 -2.354685e-02 -2.210861e-02 -2.351984e-02 -2.346626e-02 -2.287684e-02 -2.715127e-02 -8.647181e-03 -2.406149e-03 5.444328e-03 7.206899e-03 1.001084e-02 
3.290817e-02 3.582715e-02 3.528716e-02 4.016204e-02 4.229492e-02 4.964135e-02 2.643436e-02 3.900113e-02 2.683282e-02 3.384608e-02 2.499297e-02 2.843773e-02 1.836731e-02 2.253609e-02 2.143611e-02 2.231132e-02 2.240798e-02 2.208385e-02 2.264909e-02 2.166477e-02 2.228163e-02 2.016950e-02 2.729692e-02 2.648586e-02 3.070844e-02 2.953509e-02 3.232128e-02 3.106562e-02 3.309520e-02 3.185191e-02 3.343474e-02 3.227229e-02 3.353851e-02 3.250718e-02 3.350346e-02 3.263576e-02 3.337307e-02 3.268076e-02 3.316108e-02 3.263564e-02 3.286057e-02 3.247177e-02 3.243870e-02 3.213828e-02 3.182712e-02 3.154618e-02 3.089280e-02 3.053472e-02 2.939516e-02 2.881015e-02 2.688557e-02 2.580633e-02 2.249446e-02 2.042232e-02 1.446853e-02 1.008362e-02 -2.489239e-03 -1.013336e-02 -4.575808e-03 9.093350e-04 2.300054e-03 3.894927e-03 1.045139e-02 1.415765e-02 2.019746e-02 2.226979e-02 2.340856e-02 3.174592e-02 3.869946e-02 4.860275e-02 5.201334e-02 6.411781e-02 6.645428e-02 5.922431e-02 5.181814e-02 4.744361e-02 4.379191e-02 4.144981e-02 3.965505e-02 3.818965e-02 3.744283e-02 3.638974e-02 3.622346e-02 3.540053e-02 3.550949e-02 3.488657e-02 3.504842e-02 3.467033e-02 3.470421e-02 3.464802e-02 3.440525e-02 3.475103e-02 3.411975e-02 3.492550e-02 3.384609e-02 3.512862e-02 3.360483e-02 3.531892e-02 3.342538e-02 3.545472e-02 3.334080e-02 3.549494e-02 3.337977e-02 3.540474e-02 3.356723e-02 3.516618e-02 3.391917e-02 3.477918e-02 3.443809e-02 3.426858e-02 3.511164e-02 3.368493e-02 3.591395e-02 3.311410e-02 3.682354e-02 3.268835e-02 3.783480e-02 3.260911e-02 3.894621e-02 3.323324e-02 3.996236e-02 3.544787e-02 3.910741e-02 4.926372e-02 3.428847e-02 3.771742e-02 3.233908e-02 3.520884e-02 
3.701505e-02 3.883904e-02 3.993458e-02 4.443829e-02 5.045433e-02 6.073004e-02 5.824105e-02 6.051646e-02 5.513922e-02 5.735640e-02 5.224279e-02 5.302894e-02 4.605260e-02 4.629227e-02 4.606115e-02 4.623509e-02 4.620179e-02 4.615607e-02 4.628088e-02 4.608924e-02 4.626160e-02 4.609947e-02 5.105823e-02 5.165027e-02 5.454639e-02 5.452821e-02 5.662739e-02 5.601307e-02 5.783599e-02 5.672356e-02 5.850294e-02 5.704260e-02 5.883677e-02 5.718035e-02 5.895477e-02 5.724049e-02 5.891819e-02 5.726240e-02 5.875625e-02 5.725094e-02 5.848072e-02 5.718819e-02 5.808963e-02 5.704052e-02 5.756857e-02 5.675748e-02 5.688199e-02 5.626704e-02 5.596582e-02 5.546641e-02 5.470335e-02 5.418113e-02 5.286133e-02 5.205436e-02 4.987417e-02 4.788509e-02 4.314589e-02 3.832522e-02 3.976392e-02 4.260456e-02 4.397377e-02 4.522753e-02 4.489344e-02 4.673009e-02 4.586477e-02 4.991581e-02 4.914011e-02 5.108739e-02 4.857921e-02 4.873132e-02 4.838542e-02 4.672995e-02 4.861696e-02 5.429946e-02 5.722237e-02 5.847995e-02 5.949938e-02 5.937191e-02 6.010067e-02 5.933690e-02 6.015232e-02 5.907808e-02 6.005495e-02 5.885161e-02 5.993015e-02 5.873210e-02 5.980035e-02 5.872760e-02 5.965738e-02 5.882114e-02 5.948982e-02 5.898939e-02 5.929196e-02 5.920756e-02 5.906968e-02 5.945353e-02 5.884089e-02 5.970294e-02 5.862912e-02 5.992787e-02 5.846163e-02 6.009774e-02 5.836394e-02 6.018368e-02 5.836135e-02 6.016665e-02 5.847436e-02 6.003980e-02 5.871518e-02 5.981412e-02 5.908661e-02 5.951960e-02 5.958388e-02 5.921236e-02 6.020808e-02 5.898152e-02 6.098084e-02 5.895392e-02 6.197241e-02 5.931055e-02 6.335151e-02 6.034040e-02 6.574857e-02 5.826384e-02 4.595848e-02 4.291702e-02 3.846550e-02 3.848150e-02 
4.765579e-02 4.948738e-02 4.899190e-02 5.230849e-02 5.316669e-02 5.907801e-02 6.218178e-02 6.355762e-02 6.181362e-02 6.404808e-02 6.216712e-02 6.410571e-02 6.314452e-02 6.344238e-02 6.315778e-02 6.337205e-02 6.332949e-02 6.327245e-02 6.342978e-02 6.318028e-02 6.341829e-02 6.318173e-02 6.312356e-02 6.258786e-02 6.295299e-02 6.236249e-02 6.306248e-02 6.227975e-02 6.322852e-02 6.223428e-02 6.336866e-02 6.220291e-02 6.345110e-02 6.218299e-02 6.346322e-02 6.217326e-02 6.340025e-02 6.216796e-02 6.326096e-02 6.215729e-02 6.304744e-02 6.212931e-02 6.276706e-02 6.207513e-02 6.243871e-02 6.199918e-02 6.210715e-02 6.194182e-02 6.187753e-02 6.202802e-02 6.199380e-02 6.257164e-02 6.301708e-02 6.430308e-02 6.624361e-02 6.909242e-02 7.579979e-02 8.275885e-02 8.105833e-02 7.848552e-02 7.449636e-02 7.540903e-02 7.251200e-02 7.290841e-02 6.856474e-02 6.802208e-02 6.541047e-02 6.590432e-02 6.445654e-02 6.309026e-02 6.310382e-02 5.916135e-02 5.705926e-02 6.136732e-02 6.447344e-02 6.608741e-02 6.684628e-02 6.677284e-02 6.690432e-02 6.621901e-02 6.632808e-02 6.544485e-02 6.569684e-02 6.479474e-02 6.517324e-02 6.434789e-02 6.476804e-02 6.409047e-02 6.444984e-02 6.398315e-02 6.418503e-02 6.398544e-02 6.394978e-02 6.406212e-02 6.373285e-02 6.418354e-02 6.353421e-02 6.432337e-02 6.336153e-02 6.445691e-02 6.322711e-02 6.456111e-02 6.314424e-02 6.461609e-02 6.312515e-02 6.460764e-02 6.317758e-02 6.452911e-02 6.330160e-02 6.438259e-02 6.348667e-02 6.417829e-02 6.370874e-02 6.393283e-02 6.392658e-02 6.366475e-02 6.407597e-02 6.338496e-02 6.407199e-02 6.308165e-02 6.387709e-02 6.265290e-02 6.407063e-02 5.725287e-02 5.351483e-02 5.155917e-02 4.899090e-02 4.923315e-02 
4.693960e-02 4.804900e-02 4.839322e-02 5.074042e-02 5.202436e-02 5.523967e-02 5.678490e-02 5.912460e-02 6.025660e-02 6.206964e-02 6.492053e-02 6.643794e-02 7.383670e-02 7.399420e-02 7.389635e-02 7.397900e-02 7.394785e-02 7.394641e-02 7.398222e-02 7.390879e-02 7.398761e-02 7.386631e-02 6.768814e-02 6.650555e-02 6.364097e-02 6.264205e-02 6.157482e-02 6.052889e-02 6.054570e-02 5.938847e-02 6.005890e-02 5.878380e-02 5.982962e-02 5.847650e-02 5.970498e-02 5.833836e-02 5.960732e-02 5.829859e-02 5.950036e-02 5.831588e-02 5.937061e-02 5.836419e-02 5.921747e-02 5.842679e-02 5.904881e-02 5.849483e-02 5.887998e-02 5.856958e-02 5.873697e-02 5.866957e-02 5.866714e-02 5.884942e-02 5.877254e-02 5.925202e-02 5.930077e-02 6.041921e-02 6.210945e-02 6.722696e-02 6.663273e-02 6.622480e-02 6.647148e-02 6.861908e-02 6.787296e-02 6.905795e-02 6.861668e-02 6.874903e-02 7.035567e-02 7.076717e-02 7.104848e-02 7.051876e-02 7.041391e-02 7.169713e-02 7.031143e-02 6.729457e-02 6.492148e-02 6.352420e-02 6.272045e-02 6.167235e-02 6.157827e-02 6.061898e-02 6.094882e-02 6.000545e-02 6.058240e-02 5.965992e-02 6.035064e-02 5.949354e-02 6.018217e-02 5.945344e-02 6.003579e-02 5.950345e-02 5.988940e-02 5.961587e-02 5.973455e-02 5.976730e-02 5.957336e-02 5.993638e-02 5.941581e-02 6.010218e-02 5.927658e-02 6.024363e-02 5.917212e-02 6.034035e-02 5.911766e-02 6.037441e-02 5.912456e-02 6.033234e-02 5.919695e-02 6.020623e-02 5.932809e-02 5.999332e-02 5.949626e-02 5.969320e-02 5.965986e-02 5.930225e-02 5.975095e-02 5.880379e-02 5.966463e-02 5.815232e-02 5.924115e-02 5.724712e-02 5.822840e-02 5.587386e-02 5.621865e-02 5.316832e-02 5.132497e-02 4.961811e-02 4.797948e-02 4.769452e-02 
5.175512e-02 5.305701e-02 5.277883e-02 5.513507e-02 5.572417e-02 5.866350e-02 6.006541e-02 6.222274e-02 6.344984e-02 6.522948e-02 6.797502e-02 6.958356e-02 7.707771e-02 7.727632e-02 7.713666e-02 7.724445e-02 7.721047e-02 7.719019e-02 7.726581e-02 7.713684e-02 7.727996e-02 7.709671e-02 7.118950e-02 6.998027e-02 6.733994e-02 6.630952e-02 6.533731e-02 6.433530e-02 6.433270e-02 6.331885e-02 6.386989e-02 6.282774e-02 6.367469e-02 6.262301e-02 6.359784e-02 6.257867e-02 6.356507e-02 6.263016e-02 6.354518e-02 6.274569e-02 6.353189e-02 6.291164e-02 6.353446e-02 6.312620e-02 6.357337e-02 6.339733e-02 6.367848e-02 6.374229e-02 6.388713e-02 6.418570e-02 6.423776e-02 6.475165e-02 6.475197e-02 6.543950e-02 6.536011e-02 6.611455e-02 6.597632e-02 6.841743e-02 6.709414e-02 6.711961e-02 6.727030e-02 6.919121e-02 6.766868e-02 6.917371e-02 6.793253e-02 6.827032e-02 6.917709e-02 6.992093e-02 6.875187e-02 6.909598e-02 7.003872e-02 6.897387e-02 6.604695e-02 6.430018e-02 6.339135e-02 6.306866e-02 6.309480e-02 6.298364e-02 6.331175e-02 6.312343e-02 6.356494e-02 6.325637e-02 6.373551e-02 6.335142e-02 6.381701e-02 6.342932e-02 6.382738e-02 6.351251e-02 6.378433e-02 6.361347e-02 6.370183e-02 6.373487e-02 6.359196e-02 6.387213e-02 6.346708e-02 6.401564e-02 6.334073e-02 6.415254e-02 6.322734e-02 6.426810e-02 6.314103e-02 6.434745e-02 6.309382e-02 6.437721e-02 6.309341e-02 6.434685e-02 6.314041e-02 6.424919e-02 6.322521e-02 6.407931e-02 6.332410e-02 6.383107e-02 6.339474e-02 6.349062e-02 6.337079e-02 6.302575e-02 6.315622e-02 6.236895e-02 6.261805e-02 6.138505e-02 6.156038e-02 5.979393e-02 5.961601e-02 5.701833e-02 5.566276e-02 5.425209e-02 5.278112e-02 5.277953e-02 
4.693945e-02 4.805335e-02 4.839385e-02 5.074204e-02 5.202534e-02 5.523796e-02 5.678503e-02 5.912511e-02 6.025578e-02 6.207071e-02 6.491974e-02 6.643870e-02 7.383680e-02 7.399443e-02 7.389647e-02 7.397888e-02 7.394820e-02 7.394588e-02 7.398264e-02 7.390819e-02 7.398767e-02 7.386594e-02 6.770259e-02 6.651882e-02 6.366411e-02 6.267508e-02 6.160419e-02 6.059000e-02 6.058175e-02 5.948611e-02 6.010614e-02 5.892688e-02 5.989810e-02 5.867544e-02 5.981104e-02 5.860602e-02 5.977396e-02 5.865155e-02 5.975718e-02 5.877549e-02 5.975350e-02 5.895802e-02 5.976794e-02 5.918892e-02 5.981175e-02 5.946445e-02 5.990018e-02 5.978789e-02 6.005485e-02 6.017656e-02 6.031659e-02 6.068482e-02 6.078607e-02 6.147798e-02 6.177270e-02 6.309068e-02 6.384171e-02 6.458955e-02 6.261803e-02 6.254595e-02 6.123215e-02 6.084282e-02 5.967241e-02 5.953697e-02 5.899986e-02 5.921102e-02 5.879100e-02 5.870527e-02 5.860548e-02 5.948116e-02 5.992307e-02 6.016705e-02 5.909632e-02 5.798506e-02 5.813954e-02 5.775563e-02 5.828183e-02 5.795834e-02 5.868479e-02 5.827067e-02 5.910215e-02 5.856591e-02 5.943114e-02 5.881210e-02 5.964685e-02 5.901895e-02 5.975634e-02 5.920641e-02 5.977694e-02 5.939071e-02 5.972793e-02 5.957968e-02 5.962887e-02 5.977271e-02 5.950000e-02 5.996210e-02 5.936249e-02 6.013481e-02 5.923766e-02 6.027441e-02 5.914561e-02 6.036364e-02 5.910342e-02 6.038711e-02 5.912264e-02 6.033326e-02 5.920652e-02 6.019584e-02 5.934699e-02 5.997356e-02 5.952121e-02 5.966753e-02 5.968707e-02 5.927518e-02 5.977634e-02 5.877985e-02 5.968428e-02 5.813528e-02 5.925193e-02 5.723916e-02 5.822930e-02 5.587517e-02 5.621246e-02 5.317658e-02 5.132225e-02 4.962743e-02 4.797837e-02 4.770159e-02 
4.765376e-02 4.949783e-02 4.899142e-02 5.231331e-02 5.316670e-02 5.907039e-02 6.218131e-02 6.356532e-02 6.180910e-02 6.405611e-02 6.216228e-02 6.411144e-02 6.314353e-02 6.344441e-02 6.315739e-02 6.337220e-02 6.333117e-02 6.327022e-02 6.343243e-02 6.317811e-02 6.341711e-02 6.318143e-02 6.315415e-02 6.263230e-02 6.300836e-02 6.245772e-02 6.314213e-02 6.244197e-02 6.333767e-02 6.248338e-02 6.352146e-02 6.256248e-02 6.367457e-02 6.268252e-02 6.379996e-02 6.285070e-02 6.391029e-02 6.307341e-02 6.402328e-02 6.335645e-02 6.416063e-02 6.370763e-02 6.434785e-02 6.413817e-02 6.461354e-02 6.466425e-02 6.499056e-02 6.531132e-02 6.552075e-02 6.612471e-02 6.626946e-02 6.719335e-02 6.735533e-02 6.869517e-02 6.904765e-02 7.115905e-02 7.191826e-02 7.195760e-02 6.873246e-02 6.962442e-02 6.873775e-02 6.788996e-02 6.594258e-02 6.483792e-02 6.399069e-02 6.475069e-02 6.305469e-02 6.011881e-02 5.763014e-02 5.574755e-02 5.191616e-02 5.098942e-02 5.220902e-02 5.409310e-02 5.550292e-02 5.678017e-02 5.803888e-02 5.883380e-02 5.996686e-02 6.034587e-02 6.135877e-02 6.141562e-02 6.231293e-02 6.215898e-02 6.292990e-02 6.268167e-02 6.329669e-02 6.306720e-02 6.348253e-02 6.337416e-02 6.353992e-02 6.363839e-02 6.350925e-02 6.387796e-02 6.342389e-02 6.409751e-02 6.331307e-02 6.429218e-02 6.320324e-02 6.445093e-02 6.311782e-02 6.456033e-02 6.307671e-02 6.460812e-02 6.309437e-02 6.458589e-02 6.317813e-02 6.449182e-02 6.332647e-02 6.433177e-02 6.352739e-02 6.411948e-02 6.375642e-02 6.387394e-02 6.397223e-02 6.361386e-02 6.411143e-02 6.334863e-02 6.409090e-02 6.306328e-02 6.387723e-02 6.265174e-02 6.405584e-02 5.727255e-02 5.350924e-02 5.157938e-02 4.898719e-02 4.924848e-02 
3.701437e-02 3.885112e-02 3.993679e-02 4.444277e-02 5.045977e-02 6.071518e-02 5.824093e-02 6.052303e-02 5.513459e-02 5.736340e-02 5.223867e-02 5.303443e-02 4.605149e-02 4.629409e-02 4.606079e-02 4.623490e-02 4.620348e-02 4.615327e-02 4.628358e-02 4.608640e-02 4.626048e-02 4.609937e-02 5.112066e-02 5.166662e-02 5.462822e-02 5.459578e-02 5.671399e-02 5.616239e-02 5.792519e-02 5.697952e-02 5.860386e-02 5.742853e-02 5.897785e-02 5.772528e-02 5.918583e-02 5.798124e-02 5.931206e-02 5.825000e-02 5.940983e-02 5.855511e-02 5.951863e-02 5.891274e-02 5.967539e-02 5.933869e-02 5.991410e-02 5.985143e-02 6.026941e-02 6.047642e-02 6.077869e-02 6.125082e-02 6.148917e-02 6.222868e-02 6.245187e-02 6.345264e-02 6.367577e-02 6.494564e-02 6.517451e-02 6.537613e-02 6.361591e-02 6.405180e-02 6.313404e-02 6.259883e-02 6.131951e-02 6.045447e-02 5.953485e-02 5.918343e-02 5.773218e-02 5.584489e-02 5.427706e-02 5.303474e-02 5.076083e-02 5.003118e-02 5.103717e-02 5.218326e-02 5.351454e-02 5.416799e-02 5.549370e-02 5.569294e-02 5.698731e-02 5.677398e-02 5.803278e-02 5.750008e-02 5.871401e-02 5.798252e-02 5.911634e-02 5.831954e-02 5.931050e-02 5.858631e-02 5.935269e-02 5.883215e-02 5.928339e-02 5.908041e-02 5.913500e-02 5.933761e-02 5.893910e-02 5.959641e-02 5.872790e-02 5.984004e-02 5.853450e-02 6.004366e-02 5.838938e-02 6.018055e-02 5.832224e-02 6.022833e-02 5.835627e-02 6.017097e-02 5.850645e-02 6.000615e-02 5.877853e-02 5.974760e-02 5.916981e-02 5.943186e-02 5.967552e-02 5.911993e-02 6.029450e-02 5.890060e-02 6.104784e-02 5.889784e-02 6.200481e-02 5.928686e-02 6.333887e-02 6.035436e-02 6.568911e-02 5.831192e-02 4.595569e-02 4.295703e-02 3.846374e-02 3.850356e-02 
3.290331e-02 3.584893e-02 3.528565e-02 4.018539e-02 4.229828e-02 4.967065e-02 2.642437e-02 3.901079e-02 2.682710e-02 3.385511e-02 2.498782e-02 2.844845e-02 1.835686e-02 2.254332e-02 2.143198e-02 2.231194e-02 2.241471e-02 2.207287e-02 2.266683e-02 2.165774e-02 2.226976e-02 2.023906e-02 2.734441e-02 2.654731e-02 3.078089e-02 2.964369e-02 3.240200e-02 3.126148e-02 3.318095e-02 3.216609e-02 3.353412e-02 3.273379e-02 3.368166e-02 3.315336e-02 3.374404e-02 3.351489e-02 3.379159e-02 3.386017e-02 3.386800e-02 3.420851e-02 3.400633e-02 3.457914e-02 3.423922e-02 3.499593e-02 3.459461e-02 3.548750e-02 3.509697e-02 3.608610e-02 3.576368e-02 3.682136e-02 3.660208e-02 3.770821e-02 3.758590e-02 3.870030e-02 3.858924e-02 3.959855e-02 3.928840e-02 3.994008e-02 3.907410e-02 3.944813e-02 3.845840e-02 3.842556e-02 3.717990e-02 3.688336e-02 3.561060e-02 3.518422e-02 3.383431e-02 3.295388e-02 3.155042e-02 3.070115e-02 2.957960e-02 2.920805e-02 2.905343e-02 2.932577e-02 2.974703e-02 3.012877e-02 3.082348e-02 3.106129e-02 3.186456e-02 3.187514e-02 3.270728e-02 3.251475e-02 3.331814e-02 3.300573e-02 3.371408e-02 3.339731e-02 3.392673e-02 3.373805e-02 3.399226e-02 3.406261e-02 3.394262e-02 3.438377e-02 3.381028e-02 3.469973e-02 3.363310e-02 3.499513e-02 3.345305e-02 3.524505e-02 3.331436e-02 3.541597e-02 3.325766e-02 3.547348e-02 3.332150e-02 3.539050e-02 3.353417e-02 3.514991e-02 3.391061e-02 3.475465e-02 3.445018e-02 3.423098e-02 3.513670e-02 3.363737e-02 3.594645e-02 3.306650e-02 3.685456e-02 3.265229e-02 3.785246e-02 3.259538e-02 3.893373e-02 3.324862e-02 3.990455e-02 3.550015e-02 3.899934e-02 4.932817e-02 3.427320e-02 3.776884e-02 3.233145e-02 3.523849e-02 
9.635569e-03 9.765375e-03 6.751573e-03 4.428078e-03 -4.110022e-03 -1.201025e-02 -2.681213e-02 -2.034232e-02 -2.255203e-02 -2.129740e-02 -2.023363e-02 -2.172587e-02 -1.760240e-02 -2.334821e-02 -2.176837e-02 -2.610766e-02 -2.272441e-02 -2.666599e-02 -2.238517e-02 -2.523325e-02 -2.034852e-02 -2.040871e-02 -1.974212e-02 -2.102257e-02 -2.050336e-02 -2.133386e-02 -2.117295e-02 -2.142218e-02 -2.170856e-02 -2.138963e-02 -2.211125e-02 -2.131926e-02 -2.240544e-02 -2.126732e-02 -2.261566e-02 -2.126572e-02 -2.276311e-02 -2.133026e-02 -2.286651e-02 -2.146684e-02 -2.294517e-02 -2.167862e-02 -2.302146e-02 -2.196698e-02 -2.311871e-02 -2.233083e-02 -2.325984e-02 -2.276626e-02 -2.346263e-02 -2.326425e-02 -2.373386e-02 -2.380544e-02 -2.405615e-02 -2.433946e-02 -2.436022e-02 -2.474896e-02 -2.450228e-02 -2.478242e-02 -2.420753e-02 -2.449241e-02 -2.379739e-02 -2.389609e-02 -2.317221e-02 -2.317805e-02 -2.242827e-02 -2.236082e-02 -2.149539e-02 -2.128187e-02 -2.057222e-02 -2.040061e-02 -1.981585e-02 -1.974364e-02 -1.972408e-02 -1.974770e-02 -1.997164e-02 -1.996707e-02 -2.039381e-02 -2.029295e-02 -2.085505e-02 -2.061901e-02 -2.126791e-02 -2.089832e-02 -2.159636e-02 -2.112287e-02 -2.183426e-02 -2.130256e-02 -2.198949e-02 -2.145302e-02 -2.207547e-02 -2.158883e-02 -2.210387e-02 -2.172005e-02 -2.208411e-02 -2.185413e-02 -2.202509e-02 -2.199519e-02 -2.193537e-02 -2.214476e-02 -2.182338e-02 -2.230088e-02 -2.169656e-02 -2.245985e-02 -2.156345e-02 -2.261764e-02 -2.143240e-02 -2.276936e-02 -2.131252e-02 -2.291114e-02 -2.121510e-02 -2.303979e-02 -2.115576e-02 -2.315528e-02 -2.115971e-02 -2.326093e-02 -2.126809e-02 -2.336243e-02 -2.155697e-02 -2.345489e-02 -2.218143e-02 -2.344905e-02 -2.351311e-02 -2.283037e-02 -2.716974e-02 -8.643807e-03 -2.429221e-03 5.446059e-03 7.193353e-03 1.001703e-02 
1.085402e-02 8.317265e-03 7.205872e-03 1.571319e-03 -4.656680e-03 -1.496172e-02 -3.018582e-03 -1.106175e-02 -1.894542e-03 -6.258735e-03 1.591197e-03 1.542333e-03 1.169504e-02 1.595369e-02 2.097882e-02 2.199713e-02 2.324365e-02 2.373165e-02 2.142523e-02 2.089523e-02 1.586984e-02 9.936458e-03 1.889634e-03 -6.187906e-05 -4.667285e-03 -4.250857e-03 -7.578617e-03 -6.096050e-03 -8.943531e-03 -6.951307e-03 -9.596932e-03 -7.404080e-03 -9.906922e-03 -7.713535e-03 -1.004292e-02 -7.988525e-03 -1.008973e-02 -8.270084e-03 -1.009451e-02 -8.568486e-03 -1.009109e-02 -8.890313e-03 -1.011357e-02 -9.245427e-03 -1.019429e-02 -9.649770e-03 -1.036832e-02 -1.012952e-02 -1.067480e-02 -1.072285e-02 -1.116134e-02 -1.147908e-02 -1.186869e-02 -1.242550e-02 -1.277115e-02 -1.348704e-02 -1.364689e-02 -1.433746e-02 -1.375920e-02 -1.421211e-02 -1.356718e-02 -1.382644e-02 -1.260026e-02 -1.262150e-02 -1.145757e-02 -1.140531e-02 -1.051414e-02 -9.629791e-03 -8.407239e-03 -7.244040e-03 -6.461022e-03 -5.704820e-03 -5.855492e-03 -5.949128e-03 -6.932087e-03 -6.938041e-03 -8.224731e-03 -7.844228e-03 -9.276056e-03 -8.483733e-03 -1.000818e-02 -8.895089e-03 -1.046043e-02 -9.168193e-03 -1.069059e-02 -9.384612e-03 -1.074720e-02 -9.603904e-03 -1.067021e-02 -9.859942e-03 -1.048920e-02 -1.015926e-02 -1.023258e-02 -1.049191e-02 -9.935054e-03 -1.083390e-02 -9.637248e-03 -1.115187e-02 -9.383779e-03 -1.140411e-02 -9.216699e-03 -1.154846e-02 -9.176617e-03 -1.155077e-02 -9.293661e-03 -1.138738e-02 -9.583794e-03 -1.105462e-02 -1.004575e-02 -1.057078e-02 -1.065998e-02 -9.982670e-03 -1.139498e-02 -9.363470e-03 -1.221210e-02 -8.811786e-03 -1.308612e-02 -8.460750e-03 -1.401819e-02 -8.521156e-03 -1.497202e-02 -9.488393e-03 -1.524814e-02 -1.360858e-02 2.508499e-03 4.124305e-03 9.746428e-03 8.984765e-03 
3.297829e-03 2.323609e-04 1.808447e-03 -2.713745e-03 -1.481561e-03 -7.047566e-03 8.682065e-03 -2.418311e-03 4.062275e-03 -1.256223e-03 -1.870332e-05 -8.734196e-04 -5.374208e-03 -7.281022e-05 -1.275050e-03 2.759157e-03 -5.170924e-04 3.436837e-03 -9.850854e-04 2.121101e-03 -3.030546e-03 -2.658353e-03 -2.191449e-03 -2.595242e-04 -8.956901e-04 9.806169e-04 -2.539062e-04 1.609559e-03 8.810357e-05 1.892964e-03 2.829823e-04 1.969067e-03 4.100549e-04 1.915850e-03 5.054460e-04 1.780548e-03 5.807433e-04 1.593633e-03 6.342412e-04 1.374685e-03 6.550184e-04 1.130132e-03 6.233397e-04 8.525413e-04 5.124251e-04 5.181651e-04 2.837913e-04 8.150080e-05 -1.200243e-04 -5.309079e-04 -7.835349e-04 -1.422043e-03 -1.805370e-03 -2.690774e-03 -3.209639e-03 -4.298283e-03 -4.748100e-03 -5.974138e-03 -5.295530e-03 -5.801886e-03 -4.746480e-03 -5.097878e-03 -3.374147e-03 -3.468651e-03 -1.645007e-03 -1.379391e-03 1.856010e-04 1.178218e-03 2.904687e-03 4.225008e-03 5.270893e-03 6.316632e-03 6.585237e-03 6.172672e-03 5.329591e-03 4.833694e-03 3.690162e-03 3.512802e-03 2.301521e-03 2.525675e-03 1.308394e-03 1.849950e-03 6.621834e-04 1.380105e-03 2.863567e-04 1.019430e-03 1.168833e-04 6.986200e-04 1.042045e-04 3.774584e-04 2.094380e-04 4.281011e-05 3.961802e-04 -2.989288e-04 6.247138e-04 -6.263569e-04 8.512866e-04 -9.076644e-04 1.029964e-03 -1.104119e-03 1.117264e-03 -1.176546e-03 1.074684e-03 -1.092379e-03 8.754849e-04 -8.302824e-04 5.100209e-04 -3.865548e-04 -8.809766e-06 2.226952e-04 -6.405262e-04 9.599505e-04 -1.313632e-03 1.770605e-03 -1.918302e-03 2.588528e-03 -2.295431e-03 3.331050e-03 -2.200364e-03 3.835423e-03 -1.183972e-03 3.515409e-03 2.138735e-03 -5.931601e-03 2.028745e-03 -1.120803e-03 3.247457e-03 6.834921e-04 
