# vtk DataFile Version 2.0
Comment goes here
ASCII

DATASET STRUCTURED_POINTS
FIELD FieldData 1
TIME 1 1 double
0.82000000
DIMENSIONS    128   16   1

ORIGIN    0.000   0.000   0.000
SPACING   0.0078125 0.015625   1.000

POINT_DATA   2048
SCALARS uX double
LOOKUP_TABLE default

7.594497e-03 3.700160e-03 6.428890e-03 8.052766e-04 4.829641e-03 -2.147712e-03 1.092369e-02 -1.198934e-03 5.245668e-03 -4.480548e-03 -3.255845e-03 -1.371836e-02 -2.122023e-02 -3.704121e-02 -4.594686e-02 -4.844920e-02 -5.286992e-02 -5.112234e-02 -5.007069e-02 -4.433215e-02 -3.824934e-02 -1.960743e-02 -1.378912e-02 -4.000284e-03 -3.368244e-03 2.259789e-03 9.919719e-04 4.815622e-03 2.835308e-03 5.788308e-03 3.616180e-03 6.077379e-03 3.961080e-03 6.066744e-03 4.134796e-03 5.923608e-03 4.245433e-03 5.724777e-03 4.332777e-03 5.507841e-03 4.407019e-03 5.291679e-03 4.466350e-03 5.084459e-03 4.504404e-03 4.885673e-03 4.510911e-03 4.683876e-03 4.462740e-03 4.445410e-03 4.296334e-03 4.081330e-03 3.846615e-03 3.385863e-03 2.743461e-03 1.822052e-03 -3.885766e-04 -1.865616e-03 9.304115e-04 6.467662e-04 -1.217269e-03 -1.851297e-03 1.749002e-03 2.412730e-03 4.193774e-03 1.277190e-03 -1.095057e-03 1.548298e-03 4.577382e-03 7.586855e-03 8.827546e-03 1.071980e-02 1.048217e-02 7.840155e-03 5.802956e-03 5.303541e-03 4.104388e-03 4.538761e-03 3.443392e-03 4.344245e-03 3.193361e-03 4.327252e-03 3.120863e-03 4.321900e-03 3.142717e-03 4.264164e-03 3.234693e-03 4.134333e-03 3.389444e-03 3.933329e-03 3.598562e-03 3.674669e-03 3.846372e-03 3.382594e-03 4.108218e-03 3.090027e-03 4.350234e-03 2.835146e-03 4.532418e-03 2.658460e-03 4.614791e-03 2.599855e-03 4.563217e-03 2.692476e-03 4.353652e-03 2.955092e-03 3.977067e-03 3.387563e-03 3.446596e-03 3.969527e-03 2.804385e-03 4.660440e-03 2.127511e-03 5.400965e-03 1.537341e-03 6.117421e-03 1.222615e-03 6.724219e-03 1.497495e-03 7.101935e-03 2.942450e-03 6.956148e-03 6.891273e-03 1.077808e-03 5.901530e-03 2.890055e-03 7.251659e-03 4.364891e-03 
3.244629e-03 1.787785e-04 1.752021e-03 -2.767710e-03 -1.545604e-03 -7.103656e-03 8.599408e-03 -2.497510e-03 3.987011e-03 -1.336379e-03 -8.948408e-05 -9.594531e-04 -5.433203e-03 -1.745484e-04 -1.337489e-03 2.641514e-03 -5.719580e-04 3.316683e-03 -1.035368e-03 2.010777e-03 -3.043673e-03 -2.783751e-03 -2.221103e-03 -3.502432e-04 -9.355232e-04 9.160676e-04 -3.041018e-04 1.574280e-03 3.047309e-05 1.892821e-03 2.237497e-04 2.008117e-03 3.572483e-04 1.996607e-03 4.719291e-04 1.908868e-03 5.870601e-04 1.781377e-03 7.087196e-04 1.640543e-03 8.345949e-04 1.502356e-03 9.566967e-04 1.373617e-03 1.063492e-03 1.248975e-03 1.133423e-03 1.102571e-03 1.114748e-03 8.604605e-04 8.628831e-04 3.184737e-04 -3.029418e-06 -1.042588e-03 -2.439983e-03 -4.705957e-03 -9.470421e-03 -1.322967e-02 -8.941658e-03 -7.830715e-03 -7.165835e-03 -7.952650e-03 -4.324128e-03 -4.158510e-03 -1.581316e-03 -3.150933e-03 -3.358271e-03 -7.715635e-04 2.746702e-03 5.680174e-03 7.482870e-03 1.206317e-02 1.253179e-02 7.695976e-03 4.456402e-03 2.677307e-03 1.192473e-03 1.010184e-03 -3.585399e-05 5.092487e-04 -4.806956e-04 4.118779e-04 -6.024815e-04 4.072703e-04 -5.801799e-04 3.720680e-04 -4.754187e-04 2.657876e-04 -3.079036e-04 8.296473e-05 -8.801046e-05 -1.637446e-04 1.700838e-04 -4.496263e-04 4.445310e-04 -7.395605e-04 7.029216e-04 -9.959930e-04 9.025159e-04 -1.179741e-03 1.002749e-03 -1.248230e-03 9.705856e-04 -1.163737e-03 7.832634e-04 -9.027170e-04 4.303804e-04 -4.629579e-04 -7.836132e-05 1.391960e-04 -7.034773e-04 8.691480e-04 -1.373025e-03 1.675579e-03 -1.976344e-03 2.494378e-03 -2.355634e-03 3.242215e-03 -2.268682e-03 3.755584e-03 -1.267688e-03 3.447646e-03 2.033613e-03 -5.992768e-03 1.968984e-03 -1.172321e-03 3.194283e-03 6.306499e-04 
1.080548e-02 8.263789e-03 7.153738e-03 1.514988e-03 -4.718932e-03 -1.503596e-02 -3.094130e-03 -1.112465e-02 -1.982237e-03 -6.320857e-03 1.485427e-03 1.472581e-03 1.155345e-02 1.585351e-02 2.080596e-02 2.186674e-02 2.310103e-02 2.353402e-02 2.136448e-02 2.064653e-02 1.585483e-02 9.799507e-03 1.903109e-03 -1.818844e-04 -4.660295e-03 -4.331776e-03 -7.595279e-03 -6.121434e-03 -8.986008e-03 -6.908953e-03 -9.658125e-03 -7.290968e-03 -9.974468e-03 -7.532640e-03 -1.009335e-02 -7.737994e-03 -1.008306e-02 -7.937744e-03 -9.976486e-03 -8.129599e-03 -9.793485e-03 -8.299272e-03 -9.546124e-03 -8.420732e-03 -9.227949e-03 -8.450571e-03 -8.800502e-03 -8.309533e-03 -8.159667e-03 -7.849928e-03 -7.094639e-03 -6.808822e-03 -5.205046e-03 -4.718989e-03 -1.769758e-03 -6.190678e-04 5.379086e-03 6.932367e-03 3.024809e-03 1.645912e-03 5.202654e-03 4.362303e-03 -1.499744e-03 -4.541221e-03 -7.558855e-03 -4.992605e-03 -1.611334e-03 -9.307229e-03 -1.553191e-02 -2.362263e-02 -2.660892e-02 -3.224651e-02 -3.173275e-02 -2.466922e-02 -2.082189e-02 -1.701735e-02 -1.592795e-02 -1.331908e-02 -1.354911e-02 -1.136594e-02 -1.237123e-02 -1.033999e-02 -1.176971e-02 -9.834612e-03 -1.143089e-02 -9.646744e-03 -1.119038e-02 -9.665600e-03 -1.096348e-02 -9.827813e-03 -1.071161e-02 -1.008927e-02 -1.042529e-02 -1.041177e-02 -1.011226e-02 -1.075330e-02 -9.797439e-03 -1.107928e-02 -9.526800e-03 -1.135500e-02 -9.343062e-03 -1.153468e-02 -9.279860e-03 -1.157416e-02 -9.363245e-03 -1.144412e-02 -9.615613e-03 -1.114337e-02 -1.004721e-02 -1.068998e-02 -1.064301e-02 -1.012466e-02 -1.137136e-02 -9.513850e-03 -1.219153e-02 -8.952888e-03 -1.308005e-02 -8.579509e-03 -1.404197e-02 -8.609654e-03 -1.504149e-02 -9.543534e-03 -1.537281e-02 -1.363900e-02 2.464458e-03 4.094790e-03 9.703017e-03 8.938447e-03 
9.626506e-03 9.742214e-03 6.743614e-03 4.404744e-03 -4.115393e-03 -1.205077e-02 -2.680002e-02 -2.031444e-02 -2.256181e-02 -2.125165e-02 -2.025399e-02 -2.165899e-02 -1.763219e-02 -2.324981e-02 -2.179792e-02 -2.599103e-02 -2.275100e-02 -2.655918e-02 -2.238637e-02 -2.516051e-02 -2.033862e-02 -2.034802e-02 -1.968949e-02 -2.098087e-02 -2.042885e-02 -2.127949e-02 -2.108028e-02 -2.133600e-02 -2.159135e-02 -2.125702e-02 -2.195433e-02 -2.112836e-02 -2.218575e-02 -2.100528e-02 -2.229857e-02 -2.091279e-02 -2.229868e-02 -2.085383e-02 -2.218865e-02 -2.081471e-02 -2.196959e-02 -2.076844e-02 -2.163860e-02 -2.067261e-02 -2.117991e-02 -2.046352e-02 -2.055129e-02 -2.004358e-02 -1.965326e-02 -1.925585e-02 -1.827855e-02 -1.782592e-02 -1.600905e-02 -1.521881e-02 -1.197057e-02 -1.006546e-02 -3.443424e-03 3.143995e-04 -2.412469e-03 -5.465467e-03 -7.185684e-03 -8.342027e-03 -1.057292e-02 -1.271409e-02 -1.489099e-02 -1.771525e-02 -1.870328e-02 -2.249192e-02 -2.458799e-02 -2.805560e-02 -2.940470e-02 -3.436277e-02 -3.573574e-02 -3.263535e-02 -3.022246e-02 -2.780382e-02 -2.687591e-02 -2.516921e-02 -2.508112e-02 -2.366334e-02 -2.408232e-02 -2.278338e-02 -2.350955e-02 -2.226688e-02 -2.316572e-02 -2.197200e-02 -2.294180e-02 -2.181878e-02 -2.277667e-02 -2.176145e-02 -2.263580e-02 -2.177234e-02 -2.249946e-02 -2.183433e-02 -2.235477e-02 -2.193575e-02 -2.219430e-02 -2.207179e-02 -2.201960e-02 -2.223758e-02 -2.183480e-02 -2.242281e-02 -2.164486e-02 -2.261481e-02 -2.145787e-02 -2.280117e-02 -2.128763e-02 -2.297392e-02 -2.115179e-02 -2.312631e-02 -2.106844e-02 -2.325492e-02 -2.106223e-02 -2.336079e-02 -2.117237e-02 -2.344998e-02 -2.147297e-02 -2.352190e-02 -2.211712e-02 -2.349201e-02 -2.347260e-02 -2.284994e-02 -2.715219e-02 -8.644472e-03 -2.414728e-03 5.437044e-03 7.192381e-03 9.997068e-03 
3.288821e-02 3.580882e-02 3.527453e-02 4.015143e-02 4.230276e-02 4.965004e-02 2.645321e-02 3.901828e-02 2.685063e-02 3.386445e-02 2.501130e-02 2.845487e-02 1.838711e-02 2.254681e-02 2.144965e-02 2.232135e-02 2.241816e-02 2.209505e-02 2.265819e-02 2.167668e-02 2.229388e-02 2.017981e-02 2.731890e-02 2.649547e-02 3.073956e-02 2.954673e-02 3.235940e-02 3.108044e-02 3.313542e-02 3.186762e-02 3.347056e-02 3.229085e-02 3.357273e-02 3.253899e-02 3.354198e-02 3.268825e-02 3.341958e-02 3.275795e-02 3.321710e-02 3.273862e-02 3.292820e-02 3.260679e-02 3.252852e-02 3.231930e-02 3.195964e-02 3.179949e-02 3.110660e-02 3.090320e-02 2.974685e-02 2.935522e-02 2.746681e-02 2.663781e-02 2.347402e-02 2.175101e-02 1.616654e-02 1.230832e-02 5.552604e-04 -5.935316e-03 1.789164e-04 4.725768e-03 6.034586e-03 7.512543e-03 1.409376e-02 1.808389e-02 2.334834e-02 2.542826e-02 2.581881e-02 3.460032e-02 4.089807e-02 5.005858e-02 5.310679e-02 6.366111e-02 6.463960e-02 5.728501e-02 5.084009e-02 4.653490e-02 4.339260e-02 4.100560e-02 3.950761e-02 3.797539e-02 3.740273e-02 3.629009e-02 3.622147e-02 3.536194e-02 3.551996e-02 3.488441e-02 3.505943e-02 3.468738e-02 3.471123e-02 3.467329e-02 3.440910e-02 3.477844e-02 3.412498e-02 3.495353e-02 3.385363e-02 3.515042e-02 3.361041e-02 3.533152e-02 3.343244e-02 3.546280e-02 3.335375e-02 3.550216e-02 3.340005e-02 3.541099e-02 3.359019e-02 3.516670e-02 3.394072e-02 3.477519e-02 3.445896e-02 3.426296e-02 3.513183e-02 3.368181e-02 3.593551e-02 3.311652e-02 3.684370e-02 3.269572e-02 3.785076e-02 3.262202e-02 3.895515e-02 3.325083e-02 3.996380e-02 3.547273e-02 3.910469e-02 4.928230e-02 3.428123e-02 3.771353e-02 3.232112e-02 3.519232e-02 
3.701655e-02 3.884124e-02 3.993841e-02 4.444154e-02 5.046749e-02 6.074317e-02 5.825190e-02 6.052934e-02 5.515571e-02 5.737232e-02 5.226091e-02 5.304575e-02 4.606670e-02 4.630486e-02 4.607497e-02 4.624768e-02 4.621490e-02 4.616883e-02 4.629356e-02 4.610206e-02 4.627468e-02 4.611234e-02 5.107937e-02 5.166416e-02 5.457271e-02 5.454228e-02 5.665684e-02 5.602859e-02 5.786498e-02 5.674056e-02 5.852660e-02 5.706464e-02 5.885776e-02 5.721706e-02 5.897907e-02 5.729966e-02 5.895095e-02 5.734962e-02 5.880305e-02 5.736924e-02 5.855077e-02 5.734465e-02 5.820186e-02 5.725025e-02 5.775310e-02 5.704983e-02 5.718774e-02 5.669259e-02 5.646345e-02 5.610518e-02 5.550246e-02 5.517365e-02 5.414995e-02 5.365003e-02 5.198275e-02 5.054225e-02 4.677210e-02 4.317499e-02 4.458509e-02 4.688003e-02 4.799917e-02 4.925500e-02 4.829756e-02 5.044972e-02 4.909438e-02 5.319754e-02 5.236575e-02 5.382220e-02 5.172136e-02 5.145213e-02 5.157024e-02 5.015775e-02 5.242825e-02 5.704906e-02 5.917621e-02 5.983581e-02 6.054980e-02 6.008263e-02 6.068797e-02 5.973332e-02 6.049382e-02 5.931982e-02 6.025799e-02 5.901626e-02 6.005376e-02 5.885728e-02 5.987543e-02 5.882865e-02 5.970065e-02 5.890606e-02 5.951188e-02 5.906345e-02 5.930207e-02 5.927473e-02 5.907284e-02 5.951096e-02 5.883703e-02 5.974934e-02 5.862324e-02 5.996660e-02 5.845942e-02 6.013085e-02 5.836860e-02 6.021050e-02 5.837079e-02 6.018354e-02 5.848642e-02 6.004769e-02 5.873084e-02 5.981519e-02 5.910571e-02 5.951730e-02 5.960674e-02 5.920951e-02 6.023150e-02 5.897814e-02 6.100170e-02 5.895120e-02 6.198778e-02 5.930879e-02 6.336026e-02 6.034269e-02 6.574999e-02 5.827846e-02 4.596204e-02 4.292450e-02 3.846645e-02 3.848512e-02 
4.766341e-02 4.949406e-02 4.899895e-02 5.231202e-02 5.317208e-02 5.907995e-02 6.218322e-02 6.355700e-02 6.181967e-02 6.405010e-02 6.217727e-02 6.411205e-02 6.315933e-02 6.345611e-02 6.317263e-02 6.338586e-02 6.334374e-02 6.328655e-02 6.344367e-02 6.319446e-02 6.343240e-02 6.319572e-02 6.313328e-02 6.259575e-02 6.296121e-02 6.236762e-02 6.307065e-02 6.228489e-02 6.323639e-02 6.224181e-02 6.337539e-02 6.221591e-02 6.345753e-02 6.220564e-02 6.347168e-02 6.220955e-02 6.341360e-02 6.222116e-02 6.328305e-02 6.222963e-02 6.308400e-02 6.222307e-02 6.282623e-02 6.219332e-02 6.252984e-02 6.214506e-02 6.223800e-02 6.211534e-02 6.204594e-02 6.221612e-02 6.217046e-02 6.272650e-02 6.310735e-02 6.428937e-02 6.600420e-02 6.858187e-02 7.461805e-02 8.066431e-02 7.855446e-02 7.656252e-02 7.304567e-02 7.429072e-02 7.177918e-02 7.212655e-02 6.833671e-02 6.778638e-02 6.569088e-02 6.627381e-02 6.496143e-02 6.391813e-02 6.384369e-02 6.016815e-02 5.856165e-02 6.260299e-02 6.517570e-02 6.648167e-02 6.706914e-02 6.685240e-02 6.695426e-02 6.620397e-02 6.632402e-02 6.541769e-02 6.568022e-02 6.478049e-02 6.515600e-02 6.434959e-02 6.475195e-02 6.410418e-02 6.443379e-02 6.400456e-02 6.416795e-02 6.401130e-02 6.393179e-02 6.408979e-02 6.371448e-02 6.421006e-02 6.351578e-02 6.434678e-02 6.334455e-02 6.447659e-02 6.321347e-02 6.457658e-02 6.313516e-02 6.462660e-02 6.312041e-02 6.461234e-02 6.317659e-02 6.452826e-02 6.330417e-02 6.437717e-02 6.349230e-02 6.416986e-02 6.371652e-02 6.392285e-02 6.393491e-02 6.365404e-02 6.408317e-02 6.337437e-02 6.407670e-02 6.307181e-02 6.387871e-02 6.264455e-02 6.406837e-02 5.725326e-02 5.351560e-02 5.156341e-02 4.899575e-02 4.924024e-02 
4.698438e-02 4.809302e-02 4.843546e-02 5.077925e-02 5.206093e-02 5.527235e-02 5.681444e-02 5.915054e-02 6.028078e-02 6.209022e-02 6.493931e-02 6.645382e-02 7.385021e-02 7.400711e-02 7.390984e-02 7.399194e-02 7.396119e-02 7.395940e-02 7.399542e-02 7.392182e-02 7.400076e-02 7.387935e-02 6.770565e-02 6.652241e-02 6.366376e-02 6.266368e-02 6.160257e-02 6.055579e-02 6.057686e-02 5.942075e-02 6.009158e-02 5.882215e-02 5.986315e-02 5.852265e-02 5.974003e-02 5.839426e-02 5.964542e-02 5.836585e-02 5.954393e-02 5.839559e-02 5.942321e-02 5.845748e-02 5.928402e-02 5.853501e-02 5.913472e-02 5.861896e-02 5.898886e-02 5.870750e-02 5.886479e-02 5.880911e-02 5.879067e-02 5.895379e-02 5.882534e-02 5.922786e-02 5.912686e-02 6.005824e-02 6.128441e-02 6.544393e-02 6.479299e-02 6.479026e-02 6.503404e-02 6.696773e-02 6.652075e-02 6.736128e-02 6.730444e-02 6.740627e-02 6.894426e-02 6.950661e-02 6.960860e-02 6.953433e-02 6.930726e-02 7.084015e-02 6.923165e-02 6.630289e-02 6.444915e-02 6.310644e-02 6.255465e-02 6.151498e-02 6.155076e-02 6.058525e-02 6.097784e-02 6.002952e-02 6.062940e-02 5.971086e-02 6.039902e-02 5.955652e-02 6.022548e-02 5.952086e-02 6.007226e-02 5.957145e-02 5.991957e-02 5.968258e-02 5.976011e-02 5.983164e-02 5.959609e-02 5.999717e-02 5.943717e-02 6.015862e-02 5.929840e-02 6.029563e-02 5.919616e-02 6.038788e-02 5.914495e-02 6.041717e-02 5.915518e-02 6.037008e-02 5.923068e-02 6.023945e-02 5.936483e-02 6.002314e-02 5.953567e-02 5.972106e-02 5.970128e-02 5.932947e-02 5.979312e-02 5.883123e-02 5.970612e-02 5.818071e-02 5.928073e-02 5.727705e-02 5.826569e-02 5.590641e-02 5.625469e-02 5.320557e-02 5.136359e-02 4.965996e-02 4.802229e-02 4.773956e-02 
5.179514e-02 5.309494e-02 5.281638e-02 5.516762e-02 5.575553e-02 5.868871e-02 6.008976e-02 6.224063e-02 6.346934e-02 6.524250e-02 6.799094e-02 6.959466e-02 7.709220e-02 7.729016e-02 7.715117e-02 7.725840e-02 7.722477e-02 7.720430e-02 7.727989e-02 7.715101e-02 7.729392e-02 7.711078e-02 7.120122e-02 6.999351e-02 6.735209e-02 6.632394e-02 6.535120e-02 6.435181e-02 6.434784e-02 6.333732e-02 6.388471e-02 6.284767e-02 6.368757e-02 6.264391e-02 6.360747e-02 6.259984e-02 6.357036e-02 6.265026e-02 6.354496e-02 6.276224e-02 6.352450e-02 6.292049e-02 6.351703e-02 6.312094e-02 6.354062e-02 6.336830e-02 6.362088e-02 6.367492e-02 6.378830e-02 6.405832e-02 6.407190e-02 6.453398e-02 6.448390e-02 6.509577e-02 6.495778e-02 6.562618e-02 6.541051e-02 6.750968e-02 6.629670e-02 6.637953e-02 6.622255e-02 6.802107e-02 6.646091e-02 6.776198e-02 6.668040e-02 6.682509e-02 6.762937e-02 6.815420e-02 6.705838e-02 6.742087e-02 6.795088e-02 6.725443e-02 6.492458e-02 6.351921e-02 6.287600e-02 6.270808e-02 6.285957e-02 6.282047e-02 6.320843e-02 6.305296e-02 6.352067e-02 6.323097e-02 6.371719e-02 6.335015e-02 6.381023e-02 6.344249e-02 6.382594e-02 6.353492e-02 6.378548e-02 6.364191e-02 6.370451e-02 6.376718e-02 6.359606e-02 6.390659e-02 6.347285e-02 6.405076e-02 6.334858e-02 6.418706e-02 6.323779e-02 6.430109e-02 6.315453e-02 6.437819e-02 6.311056e-02 6.440516e-02 6.311329e-02 6.437186e-02 6.316328e-02 6.427163e-02 6.325089e-02 6.409993e-02 6.335223e-02 6.385076e-02 6.342469e-02 6.351021e-02 6.340170e-02 6.304589e-02 6.318711e-02 6.239007e-02 6.264805e-02 6.140753e-02 6.158926e-02 5.981866e-02 5.964498e-02 5.704743e-02 5.569533e-02 5.428662e-02 5.281869e-02 5.281804e-02 
4.698417e-02 4.809714e-02 4.843608e-02 5.078080e-02 5.206195e-02 5.527081e-02 5.681474e-02 5.915075e-02 6.028019e-02 6.209088e-02 6.493872e-02 6.645433e-02 7.385041e-02 7.400741e-02 7.391005e-02 7.399193e-02 7.396161e-02 7.395903e-02 7.399586e-02 7.392139e-02 7.400076e-02 7.387902e-02 6.771765e-02 6.653497e-02 6.368215e-02 6.269452e-02 6.162521e-02 6.061214e-02 6.060430e-02 5.950951e-02 6.012799e-02 5.894997e-02 5.991698e-02 5.869687e-02 5.982507e-02 5.862444e-02 5.978128e-02 5.866495e-02 5.975562e-02 5.878080e-02 5.973997e-02 5.894999e-02 5.973719e-02 5.915919e-02 5.975534e-02 5.940047e-02 5.980462e-02 5.967079e-02 5.989821e-02 5.997672e-02 6.006223e-02 6.035384e-02 6.037247e-02 6.093428e-02 6.109020e-02 6.216768e-02 6.266440e-02 6.328968e-02 6.148047e-02 6.148075e-02 6.032774e-02 6.008163e-02 5.898797e-02 5.888712e-02 5.833858e-02 5.842380e-02 5.797610e-02 5.782667e-02 5.766219e-02 5.830117e-02 5.856845e-02 5.863255e-02 5.784582e-02 5.718917e-02 5.754355e-02 5.735603e-02 5.800057e-02 5.777020e-02 5.856230e-02 5.819125e-02 5.905360e-02 5.854067e-02 5.941530e-02 5.881495e-02 5.964540e-02 5.903770e-02 5.976146e-02 5.923474e-02 5.978516e-02 5.942486e-02 5.973811e-02 5.961754e-02 5.964112e-02 5.981284e-02 5.951480e-02 6.000328e-02 5.938030e-02 6.017587e-02 5.925878e-02 6.031438e-02 5.917020e-02 6.040167e-02 5.913116e-02 6.042239e-02 5.915313e-02 6.036575e-02 5.923968e-02 6.022621e-02 5.938282e-02 6.000278e-02 5.955927e-02 5.969620e-02 5.972620e-02 5.930367e-02 5.981541e-02 5.880882e-02 5.972241e-02 5.816547e-02 5.928859e-02 5.727127e-02 5.826440e-02 5.590966e-02 5.624697e-02 5.321440e-02 5.136025e-02 4.966912e-02 4.802096e-02 4.774633e-02 
4.766151e-02 4.950393e-02 4.899863e-02 5.231677e-02 5.317234e-02 5.907354e-02 6.218337e-02 6.356313e-02 6.181611e-02 6.405656e-02 6.217323e-02 6.411679e-02 6.315858e-02 6.345802e-02 6.317244e-02 6.338611e-02 6.334562e-02 6.328468e-02 6.344634e-02 6.319296e-02 6.343093e-02 6.319596e-02 6.315960e-02 6.263922e-02 6.300782e-02 6.245861e-02 6.313728e-02 6.243747e-02 6.332837e-02 6.247296e-02 6.350641e-02 6.254504e-02 6.365180e-02 6.265654e-02 6.376721e-02 6.281411e-02 6.386449e-02 6.302282e-02 6.396028e-02 6.328700e-02 6.407465e-02 6.361152e-02 6.423012e-02 6.400394e-02 6.445213e-02 6.447673e-02 6.477000e-02 6.505138e-02 6.522185e-02 6.576845e-02 6.586787e-02 6.671077e-02 6.682202e-02 6.805104e-02 6.834915e-02 7.030719e-02 7.106053e-02 7.120558e-02 6.794854e-02 6.890476e-02 6.806320e-02 6.714310e-02 6.505465e-02 6.393733e-02 6.303769e-02 6.391041e-02 6.238495e-02 5.937659e-02 5.700537e-02 5.518823e-02 5.190596e-02 5.102262e-02 5.218691e-02 5.415899e-02 5.554501e-02 5.685778e-02 5.808828e-02 5.889604e-02 5.999965e-02 6.038394e-02 6.136914e-02 6.143281e-02 6.230555e-02 6.216333e-02 6.291204e-02 6.268031e-02 6.327415e-02 6.306429e-02 6.345837e-02 6.337142e-02 6.351607e-02 6.363692e-02 6.348738e-02 6.387805e-02 6.340507e-02 6.409895e-02 6.329799e-02 6.429422e-02 6.319199e-02 6.445273e-02 6.311034e-02 6.456100e-02 6.307216e-02 6.460656e-02 6.309195e-02 6.458207e-02 6.317776e-02 6.448648e-02 6.332820e-02 6.432584e-02 6.353072e-02 6.411308e-02 6.375978e-02 6.386687e-02 6.397448e-02 6.360667e-02 6.411206e-02 6.334224e-02 6.408989e-02 6.305866e-02 6.387438e-02 6.264873e-02 6.405036e-02 5.727272e-02 5.350881e-02 5.158252e-02 4.899186e-02 4.925466e-02 
3.701635e-02 3.885241e-02 3.994081e-02 4.444575e-02 5.047300e-02 6.073016e-02 5.825220e-02 6.053414e-02 5.515182e-02 5.737737e-02 5.225723e-02 5.304989e-02 4.606580e-02 4.630673e-02 4.607487e-02 4.624779e-02 4.621692e-02 4.616669e-02 4.629652e-02 4.610031e-02 4.627347e-02 4.611314e-02 5.113341e-02 5.168082e-02 5.463875e-02 5.460792e-02 5.672381e-02 5.617086e-02 5.793205e-02 5.698116e-02 5.860508e-02 5.742098e-02 5.897036e-02 5.770682e-02 5.916798e-02 5.795106e-02 5.928077e-02 5.820505e-02 5.936150e-02 5.849312e-02 5.944880e-02 5.882622e-02 5.957278e-02 5.921368e-02 5.976323e-02 5.966952e-02 6.005118e-02 6.021673e-02 6.047425e-02 6.089154e-02 6.107660e-02 6.174386e-02 6.191020e-02 6.282640e-02 6.300702e-02 6.420676e-02 6.447526e-02 6.472140e-02 6.288696e-02 6.333698e-02 6.241382e-02 6.185142e-02 6.055202e-02 5.971069e-02 5.883616e-02 5.859267e-02 5.730554e-02 5.545066e-02 5.402320e-02 5.289315e-02 5.090336e-02 5.012431e-02 5.106569e-02 5.220655e-02 5.348522e-02 5.414393e-02 5.543559e-02 5.564409e-02 5.691393e-02 5.671240e-02 5.795297e-02 5.743860e-02 5.863902e-02 5.793191e-02 5.905327e-02 5.828448e-02 5.926140e-02 5.856477e-02 5.931316e-02 5.881865e-02 5.925115e-02 5.907418e-02 5.911078e-02 5.933742e-02 5.892270e-02 5.960136e-02 5.871940e-02 5.984795e-02 5.853224e-02 6.005294e-02 5.839355e-02 6.018992e-02 5.832967e-02 6.023371e-02 5.836442e-02 6.017277e-02 5.851657e-02 6.000678e-02 5.879246e-02 5.975024e-02 5.918772e-02 5.943508e-02 5.969212e-02 5.912082e-02 6.030741e-02 5.890035e-02 6.105671e-02 5.889869e-02 6.201106e-02 5.929258e-02 6.334220e-02 6.036397e-02 6.568503e-02 5.832646e-02 4.595989e-02 4.296201e-02 3.846518e-02 3.850562e-02 
3.288494e-02 3.582896e-02 3.527354e-02 4.017302e-02 4.230557e-02 4.967737e-02 2.644205e-02 3.903034e-02 2.684317e-02 3.387534e-02 2.500486e-02 2.846608e-02 1.837722e-02 2.255340e-02 2.144616e-02 2.232242e-02 2.242617e-02 2.208533e-02 2.267665e-02 2.167211e-02 2.228085e-02 2.025347e-02 2.735789e-02 2.655736e-02 3.079636e-02 2.965298e-02 3.242310e-02 3.126976e-02 3.320456e-02 3.216941e-02 3.355641e-02 3.272893e-02 3.369834e-02 3.313852e-02 3.375316e-02 3.349054e-02 3.379002e-02 3.382510e-02 3.385316e-02 3.416407e-02 3.397583e-02 3.452151e-02 3.418291e-02 3.491469e-02 3.449886e-02 3.536854e-02 3.494613e-02 3.591520e-02 3.554616e-02 3.658646e-02 3.630537e-02 3.739245e-02 3.719605e-02 3.828960e-02 3.809908e-02 3.909038e-02 3.871084e-02 3.937533e-02 3.846294e-02 3.886180e-02 3.785397e-02 3.783386e-02 3.659509e-02 3.631537e-02 3.509768e-02 3.469879e-02 3.345834e-02 3.259951e-02 3.133563e-02 3.053233e-02 2.957018e-02 2.922799e-02 2.914514e-02 2.941949e-02 2.985704e-02 3.022721e-02 3.091228e-02 3.113724e-02 3.191890e-02 3.192255e-02 3.272963e-02 3.254240e-02 3.332172e-02 3.302561e-02 3.370972e-02 3.341661e-02 3.392031e-02 3.375674e-02 3.398207e-02 3.407662e-02 3.392986e-02 3.439538e-02 3.379928e-02 3.471043e-02 3.362584e-02 3.500629e-02 3.345101e-02 3.525584e-02 3.331612e-02 3.542591e-02 3.326423e-02 3.548216e-02 3.332967e-02 3.539340e-02 3.354170e-02 3.514831e-02 3.392029e-02 3.475219e-02 3.446524e-02 3.423204e-02 3.515794e-02 3.364005e-02 3.596693e-02 3.306688e-02 3.687103e-02 3.265203e-02 3.786428e-02 3.259746e-02 3.894291e-02 3.325835e-02 3.991158e-02 3.551658e-02 3.900116e-02 4.934529e-02 3.427289e-02 3.776127e-02 3.231652e-02 3.521972e-02 
9.620569e-03 9.750483e-03 6.739363e-03 4.419569e-03 -4.117825e-03 -1.201507e-02 -2.680348e-02 -2.032373e-02 -2.254902e-02 -2.127401e-02 -2.022951e-02 -2.169680e-02 -1.759205e-02 -2.330588e-02 -2.174296e-02 -2.606220e-02 -2.269190e-02 -2.662337e-02 -2.234897e-02 -2.519893e-02 -2.031409e-02 -2.038983e-02 -1.971690e-02 -2.101097e-02 -2.048073e-02 -2.132517e-02 -2.115105e-02 -2.141404e-02 -2.168478e-02 -2.137987e-02 -2.208369e-02 -2.130673e-02 -2.237279e-02 -2.125130e-02 -2.257780e-02 -2.124575e-02 -2.271942e-02 -2.130462e-02 -2.281616e-02 -2.143422e-02 -2.288721e-02 -2.163544e-02 -2.295238e-02 -2.190726e-02 -2.303377e-02 -2.224753e-02 -2.315342e-02 -2.265237e-02 -2.333006e-02 -2.311370e-02 -2.356924e-02 -2.361105e-02 -2.385236e-02 -2.409713e-02 -2.411371e-02 -2.446378e-02 -2.422351e-02 -2.448860e-02 -2.392461e-02 -2.419623e-02 -2.351613e-02 -2.361035e-02 -2.290091e-02 -2.291906e-02 -2.219010e-02 -2.215189e-02 -2.133064e-02 -2.114516e-02 -2.047834e-02 -2.032807e-02 -1.979625e-02 -1.972114e-02 -1.969915e-02 -1.973791e-02 -1.996418e-02 -1.997407e-02 -2.039859e-02 -2.030542e-02 -2.086248e-02 -2.062812e-02 -2.127278e-02 -2.090281e-02 -2.159938e-02 -2.112513e-02 -2.183713e-02 -2.130457e-02 -2.199293e-02 -2.145475e-02 -2.207757e-02 -2.158904e-02 -2.210388e-02 -2.171970e-02 -2.208306e-02 -2.185356e-02 -2.202381e-02 -2.199477e-02 -2.193492e-02 -2.214406e-02 -2.182397e-02 -2.229975e-02 -2.169900e-02 -2.245816e-02 -2.156635e-02 -2.261372e-02 -2.143422e-02 -2.276348e-02 -2.131344e-02 -2.290447e-02 -2.121574e-02 -2.303399e-02 -2.115635e-02 -2.314983e-02 -2.115818e-02 -2.325446e-02 -2.126398e-02 -2.335532e-02 -2.155060e-02 -2.344774e-02 -2.217360e-02 -2.344319e-02 -2.350332e-02 -2.282532e-02 -2.715436e-02 -8.646951e-03 -2.430785e-03 5.435959e-03 7.182639e-03 1.000136e-02 
1.079847e-02 8.262270e-03 7.146997e-03 1.515808e-03 -4.727336e-03 -1.502902e-02 -3.089531e-03 -1.112886e-02 -1.970687e-03 -6.330622e-03 1.504484e-03 1.458247e-03 1.158400e-02 1.584013e-02 2.084050e-02 2.186525e-02 2.310209e-02 2.358933e-02 2.129314e-02 2.075533e-02 1.575419e-02 9.829119e-03 1.806767e-03 -1.422178e-04 -4.736847e-03 -4.320959e-03 -7.646662e-03 -6.161632e-03 -9.010231e-03 -7.011547e-03 -9.659885e-03 -7.457873e-03 -9.962926e-03 -7.760765e-03 -1.009129e-02 -8.030977e-03 -1.012876e-02 -8.307403e-03 -1.012319e-02 -8.602876e-03 -1.010906e-02 -8.918854e-03 -1.011339e-02 -9.258973e-03 -1.016589e-02 -9.636288e-03 -1.030038e-02 -1.007744e-02 -1.056053e-02 -1.062313e-02 -1.099244e-02 -1.131708e-02 -1.163324e-02 -1.218673e-02 -1.245880e-02 -1.316000e-02 -1.325405e-02 -1.392940e-02 -1.330511e-02 -1.377012e-02 -1.311371e-02 -1.335538e-02 -1.214119e-02 -1.213971e-02 -1.104409e-02 -1.097659e-02 -1.018430e-02 -9.288574e-03 -8.212699e-03 -7.125448e-03 -6.504458e-03 -5.850658e-03 -6.115649e-03 -6.199694e-03 -7.183253e-03 -7.138898e-03 -8.406643e-03 -7.974493e-03 -9.391477e-03 -8.560184e-03 -1.007666e-02 -8.944286e-03 -1.050564e-02 -9.211879e-03 -1.072812e-02 -9.433896e-03 -1.078444e-02 -9.659306e-03 -1.070525e-02 -9.916391e-03 -1.052279e-02 -1.021769e-02 -1.026891e-02 -1.055228e-02 -9.976180e-03 -1.089626e-02 -9.684909e-03 -1.121436e-02 -9.436848e-03 -1.146565e-02 -9.276392e-03 -1.160833e-02 -9.239304e-03 -1.160410e-02 -9.356297e-03 -1.143531e-02 -9.648435e-03 -1.110102e-02 -1.011517e-02 -1.062056e-02 -1.073474e-02 -1.003440e-02 -1.146793e-02 -9.413504e-03 -1.227998e-02 -8.861950e-03 -1.314829e-02 -8.513946e-03 -1.407658e-02 -8.582521e-03 -1.502704e-02 -9.556941e-03 -1.529637e-02 -1.368287e-02 2.451824e-03 4.064735e-03 9.693041e-03 8.928615e-03 
3.241755e-03 1.757535e-04 1.749156e-03 -2.772905e-03 -1.549637e-03 -7.115947e-03 8.605725e-03 -2.498049e-03 3.990239e-03 -1.337708e-03 -8.825395e-05 -9.575136e-04 -5.440751e-03 -1.648346e-04 -1.356442e-03 2.663433e-03 -6.048498e-04 3.342962e-03 -1.075749e-03 2.034121e-03 -3.118375e-03 -2.731209e-03 -2.273674e-03 -3.292302e-04 -9.773486e-04 9.112503e-04 -3.380795e-04 1.539423e-03 2.372687e-06 1.823137e-03 1.979407e-04 1.900281e-03 3.279549e-04 1.847617e-03 4.272082e-04 1.711294e-03 5.075204e-04 1.522646e-03 5.669025e-04 1.300671e-03 5.943791e-04 1.054229e-03 5.733442e-04 7.791621e-04 4.787035e-04 4.543344e-04 2.738056e-04 3.681748e-05 -9.721461e-05 -5.424177e-04 -7.121397e-04 -1.375600e-03 -1.658612e-03 -2.549000e-03 -2.947660e-03 -4.008696e-03 -4.323907e-03 -5.495095e-03 -4.731865e-03 -5.264571e-03 -4.172205e-03 -4.519708e-03 -2.825413e-03 -2.886103e-03 -1.176238e-03 -8.711669e-04 5.354540e-04 1.533544e-03 3.039186e-03 4.253766e-03 5.103679e-03 5.997019e-03 6.066599e-03 5.660648e-03 4.811016e-03 4.389406e-03 3.276327e-03 3.183602e-03 1.999408e-03 2.291036e-03 1.092476e-03 1.676747e-03 5.046206e-04 1.241797e-03 1.665009e-04 8.995707e-04 2.130605e-05 5.897818e-04 2.582027e-05 2.775461e-04 1.419010e-04 -5.092638e-05 3.332716e-04 -3.880638e-04 5.625306e-04 -7.116500e-04 7.873026e-04 -9.888898e-04 9.633067e-04 -1.181436e-03 1.046643e-03 -1.250076e-03 1.001146e-03 -1.160469e-03 8.002219e-04 -8.937300e-04 4.322603e-04 -4.477467e-04 -9.013767e-05 1.608049e-04 -7.251955e-04 8.969940e-04 -1.397989e-03 1.707252e-03 -1.999822e-03 2.523418e-03 -2.372819e-03 3.262407e-03 -2.273838e-03 3.760952e-03 -1.254024e-03 3.435917e-03 2.071176e-03 -6.009658e-03 1.965675e-03 -1.185228e-03 3.190736e-03 6.253410e-04 
