# vtk DataFile Version 2.0
Comment goes here
ASCII

DATASET STRUCTURED_POINTS
FIELD FieldData 1
TIME 1 1 double
0.54000000
DIMENSIONS    128   16   1

ORIGIN    0.000   0.000   0.000
SPACING   0.0078125 0.015625   1.000

POINT_DATA   2048
SCALARS uY double
LOOKUP_TABLE default

4.406943e-06 -6.547802e-06 4.955766e-06 -7.648160e-06 7.205145e-06 -8.941026e-06 1.245832e-05 -8.710499e-06 8.366456e-06 -5.200989e-06 4.494710e-06 8.267998e-07 -3.554200e-07 1.426857e-05 -9.191686e-06 2.166446e-05 -8.503618e-06 2.303348e-05 1.864387e-06 2.343384e-05 1.348441e-05 3.252863e-05 1.226032e-05 3.085779e-05 2.313584e-05 3.252077e-05 4.104813e-05 3.688413e-05 6.460984e-05 4.390784e-05 9.547561e-05 6.019144e-05 1.396834e-04 9.056933e-05 1.971304e-04 1.356247e-04 2.690801e-04 2.028642e-04 3.668397e-04 3.105376e-04 5.107657e-04 4.812710e-04 7.214950e-04 7.371521e-04 1.024618e-03 1.111205e-03 1.460368e-03 1.648391e-03 2.077530e-03 2.391423e-03 2.906506e-03 3.319083e-03 3.849822e-03 4.164712e-03 4.469123e-03 4.166957e-03 3.287017e-03 -2.095284e-06 -1.843004e-03 -1.926390e-03 -3.270009e-03 -4.719114e-03 -6.058783e-03 -5.605607e-03 -5.520603e-03 -4.778730e-03 -6.825829e-03 -7.658312e-03 -6.911917e-03 -5.673448e-03 -3.673563e-03 -2.085351e-03 1.125976e-03 2.260163e-03 2.983686e-03 2.892102e-03 2.789195e-03 2.522373e-03 2.141387e-03 1.919790e-03 1.475578e-03 1.359722e-03 9.488584e-04 9.275877e-04 5.878189e-04 6.255418e-04 3.622208e-04 4.215365e-04 2.252552e-04 2.797650e-04 1.391772e-04 1.794223e-04 8.662346e-05 1.138586e-04 5.853509e-05 7.445004e-05 4.289215e-05 4.927984e-05 2.989479e-05 3.099727e-05 1.792973e-05 1.945254e-05 9.526256e-06 1.349549e-05 3.328498e-06 9.663620e-06 -3.808227e-07 8.522176e-06 5.146711e-07 9.136162e-06 3.651256e-06 7.654667e-06 5.778511e-06 3.027858e-06 7.237040e-06 -1.947369e-06 9.331307e-06 -6.222688e-06 1.044892e-05 -9.736752e-06 1.156515e-05 -9.651735e-06 1.464708e-05 -6.408238e-06 7.352925e-06 -6.872691e-06 5.129154e-06 -6.378576e-06 
-6.455737e-04 8.278498e-04 -1.570286e-04 6.696303e-04 -3.082194e-03 -3.967228e-03 5.529612e-03 1.466944e-03 3.321352e-03 4.889611e-03 6.677564e-03 1.075278e-02 1.229191e-02 1.251968e-02 7.559260e-03 2.880853e-03 9.064740e-04 -1.271734e-03 -4.569532e-03 -6.150378e-03 -1.224408e-02 -1.296381e-02 -9.711814e-03 -6.854279e-03 -4.371663e-03 -2.778884e-03 -1.982112e-03 -1.055350e-03 -9.491886e-04 -3.190577e-04 -4.708532e-04 -2.892725e-05 -2.216310e-04 5.492604e-05 -6.452310e-05 4.402048e-05 5.577231e-05 -4.242059e-06 1.617229e-04 -5.156499e-05 2.691173e-04 -6.531095e-05 3.904441e-04 -1.971856e-05 5.430836e-04 1.255112e-04 7.801105e-04 4.600796e-04 1.229258e-03 1.175347e-03 2.156388e-03 2.649112e-03 4.079465e-03 5.675278e-03 8.272875e-03 1.153073e-02 1.005456e-02 -2.604808e-03 -3.593785e-03 7.724237e-03 4.399218e-03 -9.332713e-03 -1.398795e-02 -6.705855e-03 5.364245e-03 1.253344e-02 -1.070492e-02 -2.772769e-02 -2.456487e-02 -1.557654e-02 -3.984238e-03 1.393726e-03 7.960818e-03 9.861516e-03 7.205747e-03 4.997779e-03 3.250065e-03 2.261083e-03 1.461178e-03 1.003781e-03 6.454697e-04 3.791222e-04 2.893846e-04 5.908800e-05 1.584898e-04 -9.615487e-05 1.261383e-04 -1.570232e-04 1.144899e-04 -1.621449e-04 8.322035e-05 -1.228997e-04 2.690335e-05 -3.918317e-05 -5.050455e-05 7.604457e-05 -1.478096e-04 2.005132e-04 -2.577904e-04 3.140987e-04 -3.604993e-04 4.041118e-04 -4.307243e-04 4.558157e-04 -4.508386e-04 4.508555e-04 -4.088356e-04 3.745699e-04 -2.996745e-04 2.179471e-04 -1.257365e-04 -1.501227e-05 1.030161e-04 -3.107949e-04 3.546124e-04 -6.555352e-04 5.688752e-04 -1.028965e-03 6.684629e-04 -1.388571e-03 6.119991e-04 -1.484618e-03 2.135431e-03 4.263811e-03 -7.239097e-04 -1.776676e-04 -1.498416e-03 -1.313360e-04 
-1.489147e-03 1.942809e-03 3.375499e-04 4.047368e-03 -7.540031e-03 -1.279016e-02 1.142630e-02 -1.249316e-03 7.260952e-04 6.451040e-04 9.400673e-05 3.875087e-05 -3.136024e-03 -3.176375e-03 -4.880100e-03 4.944689e-04 -1.808478e-03 1.949257e-03 -2.274701e-04 4.505479e-03 2.379961e-03 2.701265e-03 1.594360e-03 -4.198144e-04 3.269138e-04 8.090524e-06 7.373840e-05 2.988680e-04 -4.633896e-05 4.393293e-04 -5.907138e-05 4.621780e-04 7.293321e-06 4.084021e-04 1.356448e-04 3.205575e-04 3.127873e-04 2.320728e-04 5.201686e-04 1.825856e-04 7.720435e-04 2.346455e-04 1.088142e-03 4.248649e-04 1.482259e-03 8.084377e-04 2.032326e-03 1.521813e-03 2.939524e-03 2.866544e-03 4.621792e-03 5.412148e-03 7.864762e-03 1.034642e-02 1.456301e-02 1.925264e-02 1.766804e-02 -2.899178e-03 -1.247294e-02 -6.929129e-03 -6.259849e-03 -7.631033e-03 -1.175891e-02 -1.089155e-02 -9.592564e-03 -5.669203e-03 -1.358804e-02 -1.581501e-02 -1.402932e-02 -1.241738e-02 -1.370148e-02 -9.815067e-03 6.872584e-03 1.251718e-02 1.036473e-02 7.888197e-03 5.660783e-03 4.347329e-03 3.205036e-03 2.460652e-03 1.948960e-03 1.351500e-03 1.300722e-03 6.637328e-04 9.764026e-04 2.515694e-04 8.065900e-04 2.494767e-05 6.676761e-04 -8.235246e-05 4.913065e-04 -8.282748e-05 2.884703e-04 3.743761e-05 7.187190e-05 2.398548e-04 -1.722460e-04 4.661285e-04 -4.364834e-04 6.737217e-04 -6.798500e-04 8.422613e-04 -8.470186e-04 9.442467e-04 -9.069799e-04 9.366840e-04 -8.409009e-04 7.837916e-04 -6.449924e-04 4.595693e-04 -3.218877e-04 -2.243559e-05 1.267701e-04 -6.293441e-04 6.536483e-04 -1.346192e-03 1.161177e-03 -2.163457e-03 1.576435e-03 -2.997981e-03 2.125960e-03 -3.552316e-03 6.081507e-03 1.129796e-02 -5.250189e-03 -3.769526e-03 -4.101896e-03 -1.107080e-03 
-1.711607e-04 6.893997e-03 1.033895e-02 1.951223e-02 9.532491e-03 -1.168673e-02 3.459987e-03 -6.494832e-05 -1.718553e-03 1.275981e-03 -2.780690e-03 1.295571e-03 -1.026882e-03 2.173022e-03 1.172556e-03 6.102844e-05 9.446564e-04 -1.073821e-03 1.210271e-03 -2.402609e-03 6.206089e-04 -2.053885e-04 2.395306e-04 1.059786e-03 -1.615591e-04 8.740936e-04 -5.797696e-04 9.111831e-04 -6.967999e-04 9.410457e-04 -6.686850e-04 8.655615e-04 -5.548056e-04 6.866860e-04 -3.834650e-04 4.420267e-04 -1.764276e-04 1.484363e-04 1.159332e-05 -1.708296e-04 1.885608e-04 -4.477423e-04 3.376610e-04 -7.190621e-04 3.519770e-04 -1.063025e-03 1.362498e-04 -1.550621e-03 -3.889240e-04 -2.244819e-03 -1.338990e-03 -3.388326e-03 -3.147751e-03 -5.692277e-03 -6.740878e-03 -9.810278e-03 -7.650628e-03 2.898699e-03 5.017397e-03 1.284984e-03 2.720172e-05 6.843524e-03 7.879814e-03 7.514917e-03 2.010488e-03 4.558626e-04 8.893504e-03 1.567122e-02 1.321752e-02 1.017022e-02 8.489683e-03 3.621655e-03 -6.872940e-03 -1.029993e-02 -7.651169e-03 -5.596724e-03 -3.978396e-03 -2.916655e-03 -2.104304e-03 -1.645352e-03 -1.004663e-03 -1.098230e-03 -3.306740e-04 -9.086190e-04 1.261705e-04 -8.208545e-04 4.359680e-04 -7.420214e-04 5.615238e-04 -6.654312e-04 4.798482e-04 -5.294098e-04 2.895889e-04 -2.406517e-04 5.344374e-05 1.513627e-04 -2.603151e-04 5.485319e-04 -6.394645e-04 8.972350e-04 -1.008897e-03 1.185455e-03 -1.265188e-03 1.387347e-03 -1.357413e-03 1.435568e-03 -1.263894e-03 1.271000e-03 -9.843900e-04 8.565596e-04 -5.061084e-04 2.399370e-04 2.120968e-04 -4.965887e-04 1.146406e-03 -1.310583e-03 2.183528e-03 -2.194697e-03 3.181341e-03 -3.083136e-03 4.036349e-03 -4.111806e-03 4.728159e-03 4.429456e-03 -2.363607e-02 -1.753282e-02 -1.071924e-02 -3.844286e-03 
9.609925e-04 6.638153e-03 1.502883e-02 2.242926e-02 2.914385e-02 5.839507e-03 -8.966999e-03 2.294810e-03 -9.950634e-04 1.223859e-03 4.234777e-04 8.758246e-04 7.329306e-04 -3.882357e-04 2.727623e-04 -3.394222e-04 4.044788e-04 -4.470298e-04 4.527373e-04 -4.399161e-04 3.412463e-04 -1.864612e-03 1.327173e-04 -8.245724e-04 1.415515e-05 1.490368e-04 -1.943964e-04 6.161987e-04 -3.735809e-04 8.256436e-04 -4.616666e-04 8.603463e-04 -4.578126e-04 7.755238e-04 -3.734629e-04 6.220696e-04 -2.230645e-04 4.237619e-04 -4.555150e-05 2.073045e-04 1.704394e-04 3.758564e-05 4.247255e-04 -8.376708e-05 6.644480e-04 -1.601756e-04 8.708037e-04 -1.420082e-04 1.093381e-03 1.174580e-04 1.468268e-03 7.952280e-04 2.091720e-03 2.046272e-03 3.039566e-03 3.758653e-03 1.648704e-03 -1.971480e-03 -1.717081e-03 4.157178e-03 1.330736e-03 -3.772446e-03 -6.325561e-03 -3.670361e-03 1.892394e-03 3.680071e-03 -6.355746e-03 -1.356753e-02 -1.196146e-02 -8.013336e-03 -4.668797e-03 6.741838e-05 7.078050e-03 8.629817e-03 5.900013e-03 4.275834e-03 2.820480e-03 2.190215e-03 1.553788e-03 1.144844e-03 1.015831e-03 5.084298e-04 7.893757e-04 8.152746e-05 7.276975e-04 -1.759275e-04 7.333189e-04 -3.103953e-04 6.999827e-04 -3.733397e-04 5.689170e-04 -3.493238e-04 3.870764e-04 -1.859509e-04 1.873822e-04 7.221878e-05 -6.329038e-05 3.473429e-04 -3.600256e-04 5.997151e-04 -6.526032e-04 8.166077e-04 -8.688218e-04 9.795583e-04 -9.708097e-04 1.039487e-03 -9.479691e-04 9.504273e-04 -8.042507e-04 6.879598e-04 -5.306117e-04 2.864617e-04 -1.040699e-04 -2.000506e-04 4.481452e-04 -7.414645e-04 1.020309e-03 -1.315067e-03 1.450907e-03 -1.746913e-03 1.562985e-03 -1.218579e-03 -1.141792e-03 -1.154515e-02 -2.740734e-02 -2.127866e-02 -1.202067e-02 -5.651746e-03 
7.812285e-04 3.209326e-03 8.165272e-03 1.000895e-02 1.789863e-02 1.079947e-02 -3.654061e-03 3.348998e-03 1.014188e-03 1.761942e-03 2.661020e-03 2.261504e-03 2.219747e-03 -2.952088e-04 2.813431e-04 -2.871529e-04 3.980534e-04 -4.351656e-04 4.157314e-04 -4.560142e-04 2.473795e-04 -1.338917e-03 -1.364792e-03 -2.529962e-03 -1.342067e-03 -1.045428e-03 -8.819930e-04 -2.059133e-04 -6.365485e-04 2.441987e-04 -4.783336e-04 4.580539e-04 -3.448115e-04 5.327338e-04 -1.990684e-04 5.356978e-04 -2.144482e-05 5.130273e-04 1.968574e-04 5.055092e-04 4.733598e-04 5.619920e-04 8.309387e-04 7.341444e-04 1.303952e-03 1.105289e-03 1.978542e-03 1.841491e-03 3.056110e-03 3.281962e-03 4.975236e-03 6.110772e-03 8.677690e-03 1.192910e-02 1.671861e-02 2.378890e-02 2.197816e-02 2.625989e-04 -1.431814e-02 -1.202307e-02 -8.947623e-03 -6.361959e-03 -1.030641e-02 -1.075045e-02 -1.121947e-02 -1.000423e-02 -9.022063e-03 -1.024205e-02 -7.973857e-03 -8.852796e-03 -1.199821e-02 -1.046375e-02 -5.213606e-04 6.438088e-03 6.352703e-03 5.367651e-03 3.751356e-03 2.925774e-03 2.108298e-03 1.567417e-03 1.248529e-03 7.861488e-04 8.056478e-04 3.248694e-04 5.902317e-04 5.772106e-05 4.859348e-04 -8.682176e-05 4.131057e-04 -1.496793e-04 3.284841e-04 -1.443024e-04 2.247973e-04 -7.236659e-05 1.046653e-04 4.703597e-05 -3.581252e-05 1.846770e-04 -1.883827e-04 3.189160e-04 -3.325168e-04 4.322701e-04 -4.416311e-04 5.086725e-04 -4.956053e-04 5.271001e-04 -4.876629e-04 4.678575e-04 -4.197143e-04 3.231388e-04 -2.982373e-04 9.951029e-05 -1.444807e-04 -1.917414e-04 -1.008944e-05 -5.360305e-04 1.192644e-05 -8.879336e-04 -1.999994e-04 -1.039980e-03 -7.283326e-04 -1.443684e-04 -4.302435e-03 -1.330986e-02 -1.361351e-02 -9.892250e-03 -6.023027e-03 -2.979182e-03 
4.151827e-04 1.879737e-03 4.119450e-03 4.990467e-03 6.701340e-03 5.475493e-03 2.640960e-03 3.810392e-03 2.716880e-03 4.660581e-03 5.473863e-03 8.613153e-03 6.000770e-03 -1.448141e-04 4.473554e-05 -1.497900e-04 1.214611e-04 -1.339482e-04 1.562720e-04 -7.130505e-05 1.484284e-04 -3.619382e-03 -6.143340e-03 -5.984694e-03 -4.069158e-03 -3.062002e-03 -2.171715e-03 -1.379173e-03 -1.168010e-03 -4.592819e-04 -6.305619e-04 1.207516e-05 -3.252392e-04 2.338047e-04 -1.171864e-04 3.279937e-04 6.462765e-05 3.684192e-04 2.555850e-04 4.049613e-04 4.782167e-04 4.779507e-04 7.466720e-04 6.180004e-04 1.070005e-03 8.571534e-04 1.467891e-03 1.245668e-03 1.991131e-03 1.878239e-03 2.762371e-03 2.950320e-03 4.089435e-03 5.029148e-03 7.134098e-03 9.558470e-03 8.666231e-03 3.136566e-04 -5.167154e-03 -1.767572e-03 -8.006350e-04 -2.100026e-03 -5.382376e-03 -1.383024e-03 -4.455986e-04 3.699577e-04 -7.319804e-04 -7.178947e-03 -4.750061e-03 -3.520593e-03 1.203263e-03 2.209684e-03 -6.674240e-03 -8.830826e-03 -5.392634e-03 -2.517002e-03 -1.078966e-03 -1.795501e-04 1.994551e-04 3.889409e-04 4.900754e-04 3.845903e-04 4.831274e-04 2.325097e-04 4.182050e-04 8.476600e-05 3.578333e-04 -1.702624e-05 2.994785e-04 -6.906274e-05 2.302397e-04 -7.159259e-05 1.483052e-04 -2.553963e-05 5.527376e-05 5.588157e-05 -4.977209e-05 1.522967e-04 -1.612015e-04 2.460652e-04 -2.646587e-04 3.233227e-04 -3.419870e-04 3.703359e-04 -3.800453e-04 3.709073e-04 -3.736526e-04 3.103990e-04 -3.251509e-04 1.801226e-04 -2.438913e-04 -2.029927e-05 -1.514638e-04 -2.884901e-04 -9.272793e-05 -6.228599e-04 -1.403577e-04 -1.013125e-03 -3.898518e-04 -1.420669e-03 -9.651977e-04 -1.857040e-03 -2.916412e-03 -4.878956e-03 -5.564033e-03 -4.653094e-03 -3.186462e-03 -1.691645e-03 
2.594403e-04 7.569816e-04 1.780990e-03 2.040604e-03 2.678500e-03 2.502185e-03 1.148044e-03 1.938628e-03 1.319968e-03 2.280241e-03 2.837551e-03 4.518696e-03 3.387891e-03 -7.021638e-05 4.282412e-05 -8.825402e-05 8.691801e-05 -9.422092e-05 9.694213e-05 -6.265116e-05 7.377516e-05 -1.642588e-03 -2.927574e-03 -2.897142e-03 -1.910228e-03 -1.469615e-03 -9.976460e-04 -6.450501e-04 -4.930164e-04 -1.701990e-04 -1.960314e-04 1.014269e-04 2.322083e-06 2.686561e-04 1.709131e-04 3.970280e-04 3.522923e-04 5.322001e-04 5.760001e-04 7.117040e-04 8.682416e-04 9.724285e-04 1.256313e-03 1.354078e-03 1.771828e-03 1.903411e-03 2.455598e-03 2.678681e-03 3.363520e-03 3.753843e-03 4.572339e-03 5.213368e-03 6.172281e-03 7.153366e-03 8.331853e-03 9.061434e-03 5.886904e-03 -5.043826e-03 -9.899517e-03 -5.800640e-03 -4.985440e-03 -6.612301e-03 -9.274971e-03 -7.988003e-03 -6.551774e-03 -5.727732e-03 -8.478845e-03 -1.229225e-02 -9.624612e-03 -7.836790e-03 -8.760262e-03 -5.836002e-03 3.904734e-04 3.514518e-03 4.735777e-03 5.144743e-03 4.827218e-03 4.440700e-03 3.773746e-03 3.261951e-03 2.659670e-03 2.214723e-03 1.783397e-03 1.433723e-03 1.172120e-03 8.986570e-04 7.697888e-04 5.503165e-04 5.083747e-04 3.328118e-04 3.337190e-04 2.055738e-04 2.106391e-04 1.411679e-04 1.178575e-04 1.185916e-04 4.253605e-05 1.206098e-04 -2.101910e-05 1.339202e-04 -7.292625e-05 1.482655e-04 -1.103133e-04 1.551916e-04 -1.305285e-04 1.470303e-04 -1.333093e-04 1.174388e-04 -1.216305e-04 6.225550e-05 -1.028259e-04 -2.073408e-05 -9.097320e-05 -1.329193e-04 -1.089661e-04 -2.747889e-04 -1.881886e-04 -4.459186e-04 -3.676027e-04 -6.611911e-04 -7.083670e-04 -1.045326e-03 -1.426222e-03 -2.301727e-03 -2.160050e-03 -1.960273e-03 -1.229688e-03 -7.148751e-04 
-4.362055e-07 1.464169e-06 -1.720764e-07 9.964926e-07 4.825008e-07 -2.060574e-07 1.280849e-06 -1.797399e-06 3.099984e-06 -3.263868e-06 4.640949e-06 -4.414938e-06 5.083228e-06 8.210042e-08 5.099119e-08 2.459823e-07 -9.496126e-08 2.731415e-07 -9.972661e-08 -5.148913e-08 9.609405e-08 2.521743e-05 5.519292e-05 2.306415e-05 5.833239e-05 2.593023e-05 7.090394e-05 3.429510e-05 9.056113e-05 4.967644e-05 1.189631e-04 7.517221e-05 1.591856e-04 1.141528e-04 2.146517e-04 1.704041e-04 2.903883e-04 2.502443e-04 3.944246e-04 3.634693e-04 5.371192e-04 5.218758e-04 7.285566e-04 7.373247e-04 9.779252e-04 1.022626e-03 1.295745e-03 1.394314e-03 1.699919e-03 1.881753e-03 2.231389e-03 2.545658e-03 2.984444e-03 3.538170e-03 4.148593e-03 4.308773e-03 1.733400e-03 -3.643049e-03 -5.625924e-03 -3.472772e-03 -3.806617e-03 -4.053724e-03 -4.714690e-03 -3.673514e-03 -1.749287e-03 -2.170420e-03 -4.179566e-03 -5.497636e-03 -3.513591e-03 -2.789982e-03 -1.200933e-03 -2.698753e-04 -2.466329e-04 1.086153e-03 1.890374e-03 1.985159e-03 1.903427e-03 1.792227e-03 1.506769e-03 1.385640e-03 1.048004e-03 9.753846e-04 6.596961e-04 6.463275e-04 3.809389e-04 4.125846e-04 2.021648e-04 2.572255e-04 9.646199e-05 1.564679e-04 3.786244e-05 9.172466e-05 8.456455e-06 5.135290e-05 -3.336998e-06 2.700680e-05 -6.014894e-06 1.208766e-05 -5.196168e-06 2.418700e-06 -3.370771e-06 -3.870063e-06 -1.080149e-06 -7.836449e-06 1.363461e-06 -1.040991e-05 3.923020e-06 -1.186828e-05 6.739228e-06 -1.250647e-05 9.293887e-06 -1.298695e-05 1.082280e-05 -1.348102e-05 1.123679e-05 -1.331980e-05 1.074351e-05 -1.201910e-05 9.104237e-06 -9.414094e-06 6.411409e-06 -5.374272e-06 3.198616e-06 -1.113272e-06 9.216023e-07 7.030563e-07 -1.554336e-07 1.394290e-06 
-2.592682e-04 -7.554151e-04 -1.780168e-03 -2.040599e-03 -2.676551e-03 -2.505781e-03 -1.145768e-03 -1.947931e-03 -1.311564e-03 -2.295561e-03 -2.824043e-03 -4.538952e-03 -3.370565e-03 7.037090e-05 -4.293779e-05 8.957072e-05 -8.789438e-05 9.656585e-05 -9.795846e-05 6.418410e-05 -7.311057e-05 1.716722e-03 3.070271e-03 2.976096e-03 2.068273e-03 1.565344e-03 1.194736e-03 7.757667e-04 7.499818e-04 3.587626e-04 5.396000e-04 1.770033e-04 4.647704e-04 1.430398e-04 4.695432e-04 2.059197e-04 5.301659e-04 3.424819e-04 6.452207e-04 5.490209e-04 8.267229e-04 8.335045e-04 1.092863e-03 1.210777e-03 1.466203e-03 1.703232e-03 1.976408e-03 2.344442e-03 2.667917e-03 3.191810e-03 3.621015e-03 4.354191e-03 4.995489e-03 6.092007e-03 7.185579e-03 8.042888e-03 3.959295e-03 -6.553325e-03 -8.923870e-03 -4.712683e-03 -5.521702e-03 -7.577283e-03 -9.681008e-03 -8.367500e-03 -5.132789e-03 -5.202768e-03 -1.039475e-02 -1.312669e-02 -9.826513e-03 -9.326548e-03 -8.882605e-03 -2.895411e-03 5.247450e-03 7.202949e-03 6.641891e-03 5.901986e-03 4.985193e-03 4.405278e-03 3.571706e-03 3.188457e-03 2.438571e-03 2.250204e-03 1.587816e-03 1.565223e-03 9.869613e-04 1.084417e-03 5.862759e-04 7.519350e-04 3.337251e-04 5.179825e-04 1.853773e-04 3.464163e-04 1.093763e-04 2.148572e-04 8.278302e-05 1.098040e-04 8.724559e-05 2.359676e-05 1.078819e-04 -4.647075e-05 1.332585e-04 -9.932091e-05 1.547742e-04 -1.322321e-04 1.660458e-04 -1.418513e-04 1.643939e-04 -1.241520e-04 1.514933e-04 -7.649185e-05 1.328507e-04 1.436799e-06 1.204030e-04 1.100304e-04 1.364984e-04 2.507186e-04 2.128018e-04 4.236641e-04 3.874608e-04 6.437556e-04 7.212912e-04 1.036011e-03 1.430226e-03 2.301102e-03 2.161342e-03 1.962224e-03 1.229962e-03 7.171295e-04 
-4.176690e-04 -1.874246e-03 -4.121054e-03 -4.985405e-03 -6.701004e-03 -5.474471e-03 -2.642485e-03 -3.814430e-03 -2.709660e-03 -4.669450e-03 -5.462089e-03 -8.626307e-03 -5.986309e-03 1.450442e-04 -4.459734e-05 1.508670e-04 -1.222158e-04 1.359018e-04 -1.571382e-04 7.272411e-05 -1.479614e-04 3.664515e-03 6.225254e-03 6.014945e-03 4.158183e-03 3.092777e-03 2.284899e-03 1.419059e-03 1.313179e-03 5.162822e-04 8.184124e-04 8.043781e-05 5.775015e-04 -8.115037e-05 4.570225e-04 -9.207807e-05 3.896265e-04 -1.818352e-05 3.576052e-04 1.149430e-04 3.683678e-04 2.975997e-04 4.312486e-04 5.238232e-04 5.584127e-04 8.008412e-04 7.725759e-04 1.150532e-03 1.109495e-03 1.620994e-03 1.640081e-03 2.309145e-03 2.487063e-03 3.398479e-03 3.931138e-03 4.908450e-03 2.673037e-03 -3.551122e-03 -5.433281e-03 -3.479647e-03 -3.469248e-03 -3.707993e-03 -4.318301e-03 -3.836906e-03 -2.498341e-03 -2.875782e-03 -4.387055e-03 -5.307705e-03 -3.075009e-03 -3.640123e-03 -4.150429e-03 -1.362899e-03 3.324499e-03 4.104955e-03 3.469043e-03 2.861786e-03 2.190633e-03 1.902462e-03 1.288393e-03 1.273839e-03 6.505377e-04 8.682139e-04 2.180818e-04 6.171699e-04 -5.035824e-05 4.667280e-04 -1.921360e-04 3.684177e-04 -2.435283e-04 2.827289e-04 -2.334141e-04 1.887760e-04 -1.763088e-04 8.479320e-05 -8.173350e-05 -2.617682e-05 3.451094e-05 -1.405016e-04 1.536720e-04 -2.492373e-04 2.604352e-04 -3.368667e-04 3.419594e-04 -3.894132e-04 3.840031e-04 -3.948537e-04 3.815244e-04 -3.365794e-04 3.403567e-04 -2.052201e-04 2.670364e-04 -5.276586e-06 1.778353e-04 2.590444e-04 1.188749e-04 5.915493e-04 1.662230e-04 9.835291e-04 4.119017e-04 1.395696e-03 9.797816e-04 1.845143e-03 2.918877e-03 4.886818e-03 5.561548e-03 4.659608e-03 3.183639e-03 1.697541e-03 
-7.828246e-04 -3.203315e-03 -8.165526e-03 -1.000068e-02 -1.789483e-02 -1.079513e-02 3.634055e-03 -3.357202e-03 -1.002318e-03 -1.784409e-03 -2.641870e-03 -2.302271e-03 -2.185113e-03 2.945291e-04 -2.800327e-04 2.891372e-04 -4.023202e-04 4.448717e-04 -4.232322e-04 4.669220e-04 -2.448001e-04 1.382794e-03 1.422229e-03 2.547215e-03 1.421468e-03 1.068633e-03 9.938777e-04 2.424659e-04 7.830768e-04 -1.893276e-04 6.664952e-04 -3.636702e-04 5.989978e-04 -3.703188e-04 5.429506e-04 -2.824908e-04 4.817608e-04 -1.398300e-04 4.287839e-04 4.849145e-05 4.123096e-04 2.805244e-04 4.482135e-04 5.445474e-04 5.436659e-04 8.354626e-04 7.085403e-04 1.147348e-03 9.396597e-04 1.462762e-03 1.217449e-03 1.737743e-03 1.460899e-03 1.824724e-03 1.436989e-03 1.369031e-03 5.119314e-04 -5.948619e-04 -1.277724e-03 -1.399316e-03 -1.909419e-03 -2.543786e-03 -2.792029e-03 -3.020331e-03 -2.685308e-03 -3.089152e-03 -3.385281e-03 -4.052530e-03 -3.256660e-03 -3.183388e-03 -1.995036e-03 -1.205629e-03 3.684210e-04 8.050345e-04 1.299306e-03 1.388439e-03 1.346132e-03 1.427738e-03 1.052195e-03 1.264827e-03 6.669815e-04 1.060692e-03 3.129143e-04 8.819016e-04 4.688279e-05 7.439778e-04 -1.178884e-04 6.289503e-04 -1.960943e-04 5.070430e-04 -2.080369e-04 3.638890e-04 -1.597932e-04 2.063242e-04 -5.707496e-05 4.045646e-05 7.993447e-05 -1.292699e-04 2.261847e-04 -2.912195e-04 3.605211e-04 -4.251033e-04 4.646913e-04 -5.134269e-04 5.168426e-04 -5.423759e-04 5.081306e-04 -4.901339e-04 4.454129e-04 -3.459913e-04 3.321886e-04 -1.238931e-04 1.796946e-04 1.596086e-04 4.194795e-05 4.999406e-04 1.993314e-05 8.532834e-04 2.282664e-04 1.008849e-03 7.488946e-04 1.320685e-04 4.280753e-03 1.333378e-02 1.360872e-02 9.904321e-03 6.020946e-03 2.986643e-03 
-9.655470e-04 -6.628046e-03 -1.503366e-02 -2.240947e-02 -2.914683e-02 -5.838650e-03 8.946262e-03 -2.300972e-03 1.012906e-03 -1.240741e-03 -4.025782e-04 -9.014556e-04 -7.064521e-04 3.871394e-04 -2.706881e-04 3.412738e-04 -4.087269e-04 4.556903e-04 -4.589858e-04 4.517042e-04 -3.341363e-04 1.904230e-03 -1.443736e-04 8.175714e-04 -5.258289e-06 -1.724178e-04 2.432026e-04 -6.385056e-04 4.337301e-04 -8.908162e-04 5.010518e-04 -9.380904e-04 5.328082e-04 -8.154969e-04 4.869367e-04 -6.570266e-04 3.238086e-04 -5.139346e-04 1.048409e-04 -3.482340e-04 -7.530047e-05 -1.475531e-04 -2.174074e-04 2.147577e-05 -3.399128e-04 1.542904e-04 -4.153036e-04 2.382572e-04 -4.707781e-04 2.511040e-04 -4.786419e-04 2.591000e-04 -3.728732e-04 2.993358e-04 -1.896347e-04 2.663014e-04 -4.145717e-05 1.880180e-04 5.356970e-05 -5.513826e-05 1.006393e-04 -2.459398e-04 1.976198e-04 -2.671676e-04 3.437883e-04 -2.507219e-04 3.754671e-04 -3.968047e-04 3.223893e-04 -2.852583e-04 4.871620e-04 -1.700737e-04 2.176346e-04 -2.143515e-04 6.697637e-06 -1.376315e-04 -1.827301e-04 -7.550020e-07 -3.528858e-04 1.565577e-04 -5.328567e-04 2.819940e-04 -7.036507e-04 3.926669e-04 -7.965535e-04 5.025791e-04 -7.908958e-04 5.732309e-04 -7.159487e-04 5.395086e-04 -6.136383e-04 3.852539e-04 -4.546797e-04 1.761352e-04 -2.030344e-04 -5.781182e-05 1.020266e-04 -3.238854e-04 3.992762e-04 -6.067577e-04 6.622976e-04 -8.405505e-04 8.801035e-04 -9.946341e-04 9.796017e-04 -1.070554e-03 9.423681e-04 -9.871102e-04 8.182626e-04 -7.023790e-04 5.762098e-04 -2.948485e-04 1.483428e-04 1.628085e-04 -4.176896e-04 6.933347e-04 -9.748550e-04 1.270127e-03 -1.408828e-03 1.684642e-03 -1.535136e-03 1.175627e-03 1.127363e-03 1.163966e-02 2.737700e-02 2.128696e-02 1.201371e-02 5.661342e-03 
1.672201e-04 -6.892665e-03 -1.034475e-02 -1.950480e-02 -9.538005e-03 1.166523e-02 -3.429101e-03 4.837110e-05 1.739612e-03 -1.284778e-03 2.795844e-03 -1.296067e-03 1.023934e-03 -2.208631e-03 -1.153437e-03 -7.341250e-05 -9.565077e-04 1.108870e-03 -1.257322e-03 2.469948e-03 -6.921540e-04 2.101382e-04 -2.725020e-04 -1.060634e-03 1.308519e-04 -8.934816e-04 5.916748e-04 -9.305670e-04 7.170169e-04 -1.031960e-03 6.531793e-04 -9.945997e-04 5.831388e-04 -7.902359e-04 4.525496e-04 -5.781601e-04 1.943758e-04 -4.142849e-04 -1.140278e-04 -2.357685e-04 -3.522303e-04 -2.738202e-05 -5.365429e-04 1.158387e-04 -6.998142e-04 1.913159e-04 -8.132625e-04 1.778377e-04 -9.323797e-04 4.156283e-05 -1.025233e-03 -1.080370e-04 -9.749068e-04 -1.595996e-04 -7.337758e-04 -9.774452e-05 -3.471684e-04 5.433160e-05 1.200171e-04 6.621340e-05 4.701376e-04 1.144815e-04 7.828862e-04 4.563466e-05 8.546949e-04 -1.161733e-04 8.719134e-04 -1.330894e-04 7.991189e-04 -2.367018e-04 5.420006e-04 -4.081886e-04 1.241060e-04 -5.413481e-04 -1.610090e-04 -3.966073e-04 -2.960145e-04 -1.064189e-04 -4.080201e-04 1.806923e-04 -5.776318e-04 3.831228e-04 -7.732201e-04 5.363140e-04 -8.867985e-04 6.697731e-04 -8.811472e-04 7.403733e-04 -7.865807e-04 6.689903e-04 -6.560471e-04 4.363820e-04 -4.503682e-04 1.351044e-04 -1.189489e-04 -1.897995e-04 2.833491e-04 -5.499190e-04 6.670392e-04 -9.261424e-04 9.959387e-04 -1.223192e-03 1.256732e-03 -1.399641e-03 1.342367e-03 -1.461870e-03 1.224530e-03 -1.294986e-03 9.724240e-04 -8.416611e-04 5.371248e-04 -2.149730e-04 -1.816183e-04 4.823882e-04 -1.130331e-03 1.279236e-03 -2.142892e-03 2.161650e-03 -3.142409e-03 3.016970e-03 -4.009786e-03 4.050048e-03 -4.684485e-03 -4.345471e-03 2.359925e-02 1.752058e-02 1.071344e-02 3.843501e-03 
1.491993e-03 -1.953329e-03 -3.354460e-04 -4.061453e-03 7.545852e-03 1.276318e-02 -1.137157e-02 1.221144e-03 -7.075686e-04 -6.656159e-04 -8.126318e-05 -6.117209e-05 3.147880e-03 3.230958e-03 4.827814e-03 -4.365245e-04 1.769099e-03 -1.907049e-03 2.281821e-04 -4.470769e-03 -2.348334e-03 -2.616304e-03 -1.591532e-03 4.727042e-04 -3.118790e-04 4.457944e-05 -1.520082e-05 -2.374703e-04 1.450937e-04 -3.916590e-04 1.945696e-04 -4.026516e-04 2.158557e-04 -2.918849e-04 1.957836e-04 -1.453657e-04 1.155541e-04 3.614546e-06 2.107745e-05 1.783281e-04 -2.482855e-05 3.821177e-04 -1.876953e-05 5.753783e-04 3.391401e-05 7.560536e-04 1.444881e-04 9.090683e-04 2.788138e-04 1.003871e-03 4.184241e-04 1.039746e-03 5.356947e-04 9.545490e-04 4.977526e-04 5.533398e-04 -4.067606e-05 -6.158336e-04 -1.005740e-03 -1.250180e-03 -1.286764e-03 -1.547216e-03 -1.338644e-03 -1.754381e-03 -1.259381e-03 -1.817368e-03 -1.104822e-03 -1.547668e-03 -6.549154e-04 -1.184434e-03 -4.842470e-04 -6.820860e-04 3.145378e-04 8.445294e-05 5.646619e-04 4.048005e-04 5.200192e-04 5.679475e-04 3.347855e-04 6.372597e-04 8.188413e-05 6.463784e-04 -1.662374e-04 6.378981e-04 -3.380790e-04 6.277362e-04 -4.118815e-04 5.912860e-04 -4.025694e-04 4.889446e-04 -3.375535e-04 3.081724e-04 -2.087429e-04 8.754806e-05 -2.554001e-06 -1.476297e-04 2.486675e-04 -3.954198e-04 4.932001e-04 -6.391380e-04 7.025102e-04 -8.262250e-04 8.582821e-04 -9.263272e-04 9.045752e-04 -9.287573e-04 8.223421e-04 -7.744096e-04 6.373278e-04 -4.334682e-04 3.331361e-04 4.995898e-05 -1.128733e-04 6.368091e-04 -6.419083e-04 1.340169e-03 -1.138202e-03 2.149516e-03 -1.553944e-03 2.966727e-03 -2.106847e-03 3.520436e-03 -6.014875e-03 -1.129551e-02 5.243844e-03 3.750362e-03 4.105373e-03 1.096403e-03 
6.506686e-04 -8.370644e-04 1.627074e-04 -6.818624e-04 3.092010e-03 3.952259e-03 -5.498208e-03 -1.482133e-03 -3.307472e-03 -4.897692e-03 -6.669971e-03 -1.075498e-02 -1.228844e-02 -1.247786e-02 -7.619964e-03 -2.832707e-03 -9.390171e-04 1.250426e-03 4.608120e-03 6.048286e-03 1.223429e-02 1.303597e-02 9.682160e-03 6.885452e-03 4.355798e-03 2.793169e-03 1.988622e-03 1.052125e-03 9.775985e-04 2.924592e-04 5.218888e-04 -1.512721e-05 3.075041e-04 -1.058225e-04 1.884244e-04 -1.024618e-04 9.951564e-05 -5.876930e-05 3.113443e-05 1.408638e-05 -2.796476e-06 1.146537e-04 7.872999e-06 2.418156e-04 7.875002e-05 4.133671e-04 2.402372e-04 6.616691e-04 5.298902e-04 1.030793e-03 9.925653e-04 1.553648e-03 1.620426e-03 2.131409e-03 2.183862e-03 2.281196e-03 1.831850e-03 5.585811e-04 1.507233e-05 1.874575e-04 -5.484017e-04 -1.819955e-03 -2.336665e-03 -2.176332e-03 -1.805639e-03 -1.860548e-03 -3.703079e-03 -5.314493e-03 -4.637784e-03 -4.125548e-03 -1.883600e-03 -9.477790e-04 9.778076e-04 1.369029e-03 1.794756e-03 1.604354e-03 1.440124e-03 1.271376e-03 8.750580e-04 9.007082e-04 3.830070e-04 6.235695e-04 3.345044e-05 4.505825e-04 -1.718934e-04 3.525751e-04 -2.609629e-04 2.867387e-04 -2.701142e-04 2.158133e-04 -2.287311e-04 1.230585e-04 -1.481620e-04 1.436879e-05 -3.356968e-05 -1.018668e-04 9.875507e-05 -2.217891e-04 2.262639e-04 -3.358538e-04 3.329953e-04 -4.237022e-04 4.062023e-04 -4.691275e-04 4.267024e-04 -4.601735e-04 3.857992e-04 -3.770742e-04 2.863802e-04 -2.117646e-04 1.249102e-04 2.233653e-05 -9.595717e-05 3.104770e-04 -3.423894e-04 6.463172e-04 -5.509447e-04 1.012109e-03 -6.489984e-04 1.365257e-03 -5.933217e-04 1.462855e-03 -2.098818e-03 -4.279903e-03 7.329106e-04 1.658645e-04 1.504848e-03 1.220851e-04 
