# vtk DataFile Version 2.0
Comment goes here
ASCII

DATASET STRUCTURED_POINTS
FIELD FieldData 1
TIME 1 1 double
0.69000000
DIMENSIONS    128   16   1

ORIGIN    0.000   0.000   0.000
SPACING   0.0078125 0.015625   1.000

POINT_DATA   2048
SCALARS uY double
LOOKUP_TABLE default

-1.695193e-06 5.322008e-06 -2.578185e-06 7.163600e-06 -4.522124e-06 9.110807e-06 -9.648857e-06 8.899574e-06 -7.702859e-06 6.625755e-06 -5.806649e-06 2.831339e-06 -2.948077e-06 -7.652966e-06 6.371115e-06 -1.801403e-05 1.445450e-05 -2.845675e-05 1.806299e-05 -3.585834e-05 1.491408e-05 -4.644570e-05 2.821679e-05 -5.139000e-05 2.439544e-05 -5.377162e-05 1.223644e-05 -5.065462e-05 -9.966185e-06 -4.423663e-05 -4.448973e-05 -3.732670e-05 -9.253245e-05 -3.485510e-05 -1.557699e-04 -4.496744e-05 -2.366818e-04 -7.832702e-05 -3.375110e-04 -1.459379e-04 -4.613691e-04 -2.627446e-04 -6.198735e-04 -4.529839e-04 -8.361335e-04 -7.469525e-04 -1.139901e-03 -1.172382e-03 -1.557137e-03 -1.740310e-03 -2.093211e-03 -2.420092e-03 -2.691780e-03 -3.071353e-03 -3.174165e-03 -3.381857e-03 -2.635035e-03 -5.136934e-04 1.224833e-03 8.522251e-04 1.643014e-03 2.123476e-03 3.199092e-03 2.857200e-03 3.183785e-03 2.125725e-03 2.724116e-03 2.754947e-03 2.472273e-03 2.524862e-03 2.231934e-03 2.351246e-03 8.308944e-04 3.765700e-04 -1.897034e-04 5.382836e-05 -2.787753e-04 -3.445671e-05 -2.633894e-04 -6.006014e-05 -2.082176e-04 -7.931524e-05 -1.508743e-04 -1.005381e-04 -9.405542e-05 -1.168260e-04 -3.838171e-05 -1.258561e-04 9.408840e-06 -1.310369e-04 4.156931e-05 -1.327922e-04 5.772438e-05 -1.264451e-04 6.195815e-05 -1.087912e-04 5.779535e-05 -8.202126e-05 4.578439e-05 -5.288991e-05 2.681176e-05 -2.638732e-05 5.077760e-06 -5.013584e-06 -1.444059e-05 1.095981e-05 -2.707343e-05 2.174968e-05 -3.161988e-05 2.680340e-05 -2.902755e-05 2.656919e-05 -2.196501e-05 2.113131e-05 -1.395671e-05 1.236153e-05 -6.793107e-06 3.098591e-06 -1.723266e-06 -3.259362e-06 1.479177e-06 -3.636926e-06 1.368011e-06 9.467067e-07 5.856783e-07 3.021295e-06 -1.038257e-06 4.052066e-06 
5.474762e-04 -7.672304e-04 1.438111e-04 -5.729524e-04 3.011430e-03 4.075767e-03 -5.052878e-03 -1.407945e-03 -3.376617e-03 -5.072287e-03 -6.874699e-03 -1.089333e-02 -1.222405e-02 -1.249806e-02 -7.703983e-03 -3.049703e-03 -1.201003e-03 9.627719e-04 4.422639e-03 5.976498e-03 1.224920e-02 1.319408e-02 9.886844e-03 6.916815e-03 4.476802e-03 2.787915e-03 2.084518e-03 1.052071e-03 1.052611e-03 3.167751e-04 5.633566e-04 3.528581e-05 2.897083e-04 -3.267449e-05 9.593152e-05 -1.308516e-06 -7.005380e-05 6.836624e-05 -2.220917e-04 1.405395e-04 -3.586277e-04 1.862841e-04 -4.823529e-04 1.701029e-04 -6.112331e-04 4.765473e-05 -7.838858e-04 -2.407518e-04 -1.073984e-03 -7.971082e-04 -1.635425e-03 -1.847278e-03 -2.839918e-03 -4.059819e-03 -6.016211e-03 -9.196503e-03 -8.292817e-03 9.957389e-04 3.798594e-03 -4.330070e-03 -3.537727e-03 4.237521e-03 8.068818e-03 3.210849e-03 -3.845565e-03 -1.032833e-02 4.456144e-03 1.609440e-02 1.493934e-02 1.022917e-02 3.296568e-03 4.094055e-04 -4.160767e-03 -5.762762e-03 -4.057457e-03 -1.780492e-03 -9.150645e-04 8.841820e-05 8.716812e-06 5.821942e-04 2.044787e-04 6.293761e-04 1.765013e-04 5.338004e-04 1.072011e-04 4.067018e-04 6.099171e-05 2.817082e-04 5.164677e-05 1.608066e-04 7.313682e-05 4.134640e-05 1.183553e-04 -7.409028e-05 1.812255e-04 -1.808089e-04 2.545763e-04 -2.746851e-04 3.271381e-04 -3.524876e-04 3.851574e-04 -4.071494e-04 4.156811e-04 -4.287757e-04 4.057431e-04 -4.041261e-04 3.460076e-04 -3.209369e-04 2.289601e-04 -1.740695e-04 5.056541e-05 3.220134e-05 -1.859201e-04 2.820913e-04 -4.628577e-04 5.533479e-04 -7.351476e-04 8.231898e-04 -9.113668e-04 1.105393e-03 -7.803939e-04 1.668733e-03 -7.215431e-04 -3.691155e-03 5.334608e-04 1.047026e-04 1.255303e-03 9.243165e-05 
9.002992e-04 -2.188283e-03 -6.201567e-04 -3.871554e-03 7.501549e-03 1.304559e-02 -1.043670e-02 1.331295e-03 -1.023811e-03 -1.091271e-03 -5.284887e-04 -1.205492e-04 3.347373e-03 3.169144e-03 4.853465e-03 -3.554460e-04 1.859914e-03 -1.855345e-03 3.522406e-04 -4.519211e-03 -2.329825e-03 -2.364461e-03 -1.445146e-03 2.868592e-04 -4.183024e-04 -2.165090e-04 -1.057424e-04 -4.520330e-04 1.038921e-04 -5.307200e-04 1.664999e-04 -5.048938e-04 1.093430e-04 -4.044645e-04 -4.016058e-05 -2.631828e-04 -2.584535e-04 -1.195950e-04 -5.188748e-04 -2.805565e-06 -7.899734e-04 5.271741e-05 -1.068056e-03 -1.870010e-05 -1.390297e-03 -3.070647e-04 -1.838249e-03 -9.391000e-04 -2.565702e-03 -2.125112e-03 -3.878205e-03 -4.296625e-03 -6.451102e-03 -8.522647e-03 -1.214055e-02 -1.644955e-02 -1.488302e-02 3.409441e-04 9.453808e-03 4.793720e-03 4.368402e-03 5.238397e-03 8.661909e-03 6.640385e-03 7.373119e-03 4.934469e-03 1.088695e-02 1.217446e-02 1.021866e-02 8.060286e-03 7.547757e-03 6.246679e-03 -1.788791e-03 -6.154373e-03 -6.405017e-03 -4.199233e-03 -3.331353e-03 -1.856362e-03 -1.893520e-03 -8.063434e-04 -1.244146e-03 -2.961263e-04 -9.184464e-04 -4.376615e-05 -7.236442e-04 6.928010e-05 -5.672979e-04 9.682828e-05 -4.098468e-04 5.173198e-05 -2.458611e-04 -5.632511e-05 -6.863721e-05 -2.056066e-04 1.238443e-04 -3.747979e-04 3.278099e-04 -5.444665e-04 5.250760e-04 -7.019181e-04 6.896841e-04 -8.234441e-04 7.967670e-04 -8.855530e-04 8.148906e-04 -8.571690e-04 7.263863e-04 -7.063649e-04 5.149776e-04 -4.197728e-04 1.717700e-04 -1.135914e-06 -3.011116e-04 5.192486e-04 -8.784532e-04 1.110851e-03 -1.487921e-03 1.759957e-03 -2.004151e-03 2.575316e-03 -2.141820e-03 4.316131e-03 -2.768366e-03 -1.005549e-02 4.596008e-03 3.553186e-03 3.363473e-03 7.010309e-04 
3.730234e-04 -6.458932e-03 -1.002234e-02 -1.879423e-02 -9.477273e-03 1.037338e-02 -3.607569e-03 1.720721e-04 1.727915e-03 -1.075669e-03 2.839452e-03 -1.082697e-03 1.124045e-03 -2.147255e-03 -1.173561e-03 -9.121082e-05 -9.759067e-04 1.090081e-03 -1.276926e-03 2.464301e-03 -6.331044e-04 2.657361e-04 -1.065497e-04 -1.114968e-03 2.194438e-04 -1.010692e-03 6.553554e-04 -1.051182e-03 8.241413e-04 -1.057402e-03 8.071065e-04 -9.530326e-04 6.561767e-04 -7.319420e-04 4.053211e-04 -4.288433e-04 8.355157e-05 -9.341670e-05 -2.602887e-04 2.549734e-04 -5.414740e-04 6.046640e-04 -7.076376e-04 9.082198e-04 -7.400150e-04 1.131732e-03 -6.121523e-04 1.292672e-03 -2.577088e-04 1.503421e-03 4.585198e-04 1.985727e-03 1.777719e-03 3.245617e-03 4.505335e-03 6.511332e-03 6.471753e-03 -1.815397e-03 -3.204278e-03 -1.530364e-03 7.967272e-04 -4.703440e-03 -4.760640e-03 -5.181824e-03 -1.416041e-03 -1.182506e-03 -6.416746e-03 -1.191039e-02 -9.840739e-03 -7.244596e-03 -6.343411e-03 -3.579477e-03 3.374245e-03 7.770186e-03 6.074796e-03 4.969238e-03 2.847944e-03 2.756224e-03 1.225111e-03 1.727262e-03 3.805464e-04 1.201115e-03 -7.314118e-05 9.081451e-04 -3.001834e-04 7.155942e-04 -3.712462e-04 5.643228e-04 -3.277821e-04 3.948505e-04 -2.202000e-04 1.761530e-04 -5.720096e-05 -8.041950e-05 1.595658e-04 -3.563122e-04 4.249997e-04 -6.292707e-04 7.058767e-04 -8.916269e-04 9.584342e-04 -1.108422e-03 1.143960e-03 -1.248862e-03 1.208239e-03 -1.266752e-03 1.129827e-03 -1.104994e-03 8.826540e-04 -7.399426e-04 4.499637e-04 -1.684878e-04 -1.772355e-04 5.666740e-04 -9.789742e-04 1.430707e-03 -1.875665e-03 2.363691e-03 -2.805181e-03 3.233763e-03 -3.797761e-03 3.625321e-03 -5.789896e-03 -5.963729e-03 2.295740e-02 1.787228e-02 1.093467e-02 4.266393e-03 
-1.988600e-03 -7.773005e-03 -1.606231e-02 -2.240592e-02 -2.639105e-02 -4.447945e-03 8.517122e-03 -2.340462e-03 9.772693e-04 -1.102657e-03 -3.999966e-04 -1.050294e-03 -1.085108e-03 3.904486e-04 -2.775789e-04 3.366322e-04 -4.153401e-04 4.502565e-04 -4.661103e-04 4.454095e-04 -3.389329e-04 1.594659e-03 -3.019185e-04 8.392170e-04 9.537385e-05 -1.582650e-04 3.205618e-04 -6.617959e-04 5.063955e-04 -8.692787e-04 5.732554e-04 -8.776375e-04 5.178259e-04 -7.429863e-04 3.575199e-04 -5.198095e-04 1.174069e-04 -2.608310e-04 -1.600235e-04 6.030387e-06 -4.064439e-04 2.586076e-04 -5.812392e-04 4.480851e-04 -6.732362e-04 5.305535e-04 -6.738331e-04 4.894233e-04 -5.619484e-04 3.537889e-04 -3.067284e-04 1.645382e-04 7.881325e-05 -1.345573e-04 3.008531e-04 -1.386726e-03 -1.584359e-04 5.661011e-04 1.303661e-03 -3.343069e-03 -1.375743e-03 1.493854e-03 3.759262e-03 2.304076e-03 -1.143999e-03 -2.188492e-03 4.234022e-03 1.015589e-02 9.003302e-03 6.164964e-03 4.801150e-03 2.109019e-03 -4.980533e-03 -7.911156e-03 -6.673849e-03 -4.561198e-03 -3.712416e-03 -2.281467e-03 -2.215652e-03 -1.097242e-03 -1.447263e-03 -4.668229e-04 -1.038404e-03 -1.314212e-04 -7.987252e-04 4.089256e-05 -6.273626e-04 1.226393e-04 -4.774000e-04 1.291919e-04 -3.427281e-04 6.428585e-05 -2.024984e-04 -5.417849e-05 -3.845904e-05 -2.088818e-04 1.583660e-04 -3.813487e-04 3.710557e-04 -5.644310e-04 5.727038e-04 -7.318509e-04 7.368959e-04 -8.603213e-04 8.259783e-04 -9.171196e-04 8.249453e-04 -8.599872e-04 7.135178e-04 -6.706466e-04 4.769304e-04 -3.456205e-04 1.035264e-04 8.354939e-05 -3.961717e-04 5.833305e-04 -9.618012e-04 1.080794e-03 -1.499853e-03 1.413536e-03 -1.746376e-03 1.265292e-03 1.001718e-03 1.411856e-02 2.904272e-02 2.028919e-02 1.108258e-02 4.575743e-03 
-1.268563e-03 -3.921024e-03 -8.821724e-03 -1.081050e-02 -1.763862e-02 -9.127807e-03 5.343294e-03 -2.894978e-03 -1.531349e-03 -2.389911e-03 -3.483632e-03 -2.027448e-03 -1.541254e-03 3.003064e-04 -2.867560e-04 2.851664e-04 -4.096085e-04 4.393184e-04 -4.295127e-04 4.628310e-04 -2.433275e-04 2.186365e-03 1.949198e-03 2.273439e-03 1.203344e-03 6.810255e-04 7.806369e-04 -1.064853e-05 6.305353e-04 -3.287320e-04 5.205298e-04 -4.498702e-04 3.858272e-04 -4.551670e-04 2.090009e-04 -3.986616e-04 -9.683395e-06 -3.260926e-04 -2.626597e-04 -2.807229e-04 -5.433453e-04 -3.137362e-04 -8.673341e-04 -4.996642e-04 -1.289377e-03 -9.509697e-04 -1.927583e-03 -1.852166e-03 -3.018929e-03 -3.539964e-03 -5.041171e-03 -6.683886e-03 -8.989944e-03 -1.282841e-02 -1.727466e-02 -2.364976e-02 -1.985295e-02 -2.011064e-03 1.197785e-02 9.331295e-03 6.771618e-03 5.690859e-03 7.534297e-03 6.971105e-03 7.559626e-03 7.889870e-03 6.224439e-03 6.345436e-03 3.743783e-03 4.243955e-03 3.485249e-03 3.712028e-03 4.413579e-03 2.138933e-03 8.602885e-04 1.287699e-03 1.247840e-03 1.492826e-03 9.890615e-04 1.181939e-03 6.019726e-04 8.599943e-04 3.002218e-04 6.119584e-04 1.040351e-04 4.350640e-04 -4.754399e-06 3.086166e-04 -5.003967e-05 2.081106e-04 -5.271215e-05 1.139426e-04 -2.239496e-05 1.633409e-05 3.695778e-05 -8.706313e-05 1.203858e-04 -1.931774e-04 2.165714e-04 -2.968505e-04 3.107031e-04 -3.872774e-04 3.862731e-04 -4.515494e-04 4.263881e-04 -4.752892e-04 4.193668e-04 -4.438186e-04 3.556350e-04 -3.510703e-04 2.313152e-04 -2.008688e-04 5.205675e-05 -9.280951e-06 -1.518730e-04 2.061929e-04 -2.945537e-04 4.463031e-04 -1.550822e-04 8.002729e-04 8.474631e-04 1.627711e-03 5.233104e-03 1.390476e-02 1.374731e-02 9.309306e-03 5.678635e-03 2.432025e-03 
-7.926226e-04 -2.346764e-03 -4.433293e-03 -5.202614e-03 -6.498015e-03 -5.103067e-03 -2.612229e-03 -4.096662e-03 -3.848629e-03 -5.568119e-03 -6.604252e-03 -7.279784e-03 -3.461156e-03 1.591167e-04 -4.633396e-05 1.529727e-04 -1.232487e-04 1.355095e-04 -1.563079e-04 7.120034e-05 -1.356739e-04 6.279111e-03 7.876559e-03 5.400677e-03 3.676303e-03 2.201561e-03 1.759417e-03 8.377713e-04 9.556109e-04 2.001544e-04 5.628752e-04 -8.896993e-05 3.218070e-04 -1.990755e-04 1.251378e-04 -2.210662e-04 -7.042262e-05 -2.147291e-04 -2.815535e-04 -2.278597e-04 -5.184242e-04 -3.103189e-04 -8.043883e-04 -5.274639e-04 -1.191419e-03 -9.704263e-04 -1.776009e-03 -1.772523e-03 -2.725004e-03 -3.138395e-03 -4.316262e-03 -5.384318e-03 -6.993099e-03 -9.045647e-03 -1.150131e-02 -1.336956e-02 -9.621411e-03 -2.835237e-03 2.796461e-03 -8.678860e-04 -2.771378e-03 -8.750231e-04 1.166909e-03 -2.022130e-03 -1.790439e-03 -3.035036e-03 -2.782925e-03 2.570309e-03 1.454673e-03 1.661824e-03 -3.989148e-03 -2.228398e-03 1.223983e-02 1.734797e-02 1.360829e-02 1.042206e-02 7.796717e-03 6.263134e-03 4.574379e-03 3.796358e-03 2.632709e-03 2.302685e-03 1.477700e-03 1.403418e-03 8.051570e-04 8.606499e-04 4.263936e-04 5.274450e-04 2.250010e-04 3.119987e-04 1.294653e-04 1.590765e-04 9.937775e-05 3.874497e-05 1.121153e-04 -6.368389e-05 1.528164e-04 -1.539978e-04 2.076369e-04 -2.330922e-04 2.627086e-04 -2.965048e-04 3.046669e-04 -3.367945e-04 3.208115e-04 -3.442832e-04 3.020217e-04 -3.092759e-04 2.419295e-04 -2.268037e-04 1.396850e-04 -9.684970e-05 5.950349e-06 7.881944e-05 -1.220240e-04 3.124023e-04 -1.509445e-04 6.594504e-04 1.179236e-04 1.265268e-03 1.033636e-03 2.429046e-03 3.547320e-03 5.680767e-03 6.023353e-03 4.688378e-03 3.081233e-03 1.335622e-03 
-4.062273e-04 -9.717438e-04 -1.959671e-03 -2.214149e-03 -2.766730e-03 -2.485013e-03 -1.276199e-03 -2.207002e-03 -1.962598e-03 -2.751664e-03 -3.380358e-03 -3.495247e-03 -1.740011e-03 7.939136e-05 -4.425127e-05 9.034162e-05 -8.874045e-05 9.554256e-05 -9.748357e-05 6.295922e-05 -6.543562e-05 3.327095e-03 4.171667e-03 2.638504e-03 1.734513e-03 9.519179e-04 7.343266e-04 2.965973e-04 3.427433e-04 7.933775e-06 1.469621e-04 -1.306301e-04 3.465084e-06 -2.112488e-04 -1.440107e-04 -2.832818e-04 -3.213635e-04 -3.845807e-04 -5.481427e-04 -5.549883e-04 -8.503575e-04 -8.451614e-04 -1.271384e-03 -1.324663e-03 -1.881336e-03 -2.088090e-03 -2.782614e-03 -3.254650e-03 -4.103087e-03 -4.945854e-03 -5.951279e-03 -7.199814e-03 -8.280892e-03 -9.796103e-03 -1.061981e-02 -1.088138e-02 -6.696588e-03 8.368141e-04 4.651065e-03 1.075559e-03 -7.250538e-05 2.595882e-03 3.740285e-03 1.693589e-03 2.041569e-03 2.220716e-03 3.559869e-03 6.912064e-03 3.640880e-03 4.122366e-04 8.359567e-05 2.016417e-03 5.340466e-03 6.376585e-03 5.845075e-03 5.540989e-03 4.651466e-03 4.173467e-03 3.313037e-03 2.886889e-03 2.195201e-03 1.889180e-03 1.388509e-03 1.187467e-03 8.532784e-04 7.210103e-04 5.184277e-04 4.211761e-04 3.183171e-04 2.309317e-04 2.035101e-04 1.091486e-04 1.414502e-04 2.898405e-05 1.122004e-04 -2.599476e-05 1.032677e-04 -6.537079e-05 1.056999e-04 -9.428555e-05 1.123839e-04 -1.144207e-04 1.174073e-04 -1.251128e-04 1.158814e-04 -1.243439e-04 1.042707e-04 -1.098551e-04 8.055283e-05 -8.045959e-05 4.576510e-05 -3.568733e-05 7.644541e-06 2.739452e-05 -1.135943e-05 1.235860e-04 3.981296e-05 2.971696e-04 2.574117e-04 6.436513e-04 7.697678e-04 1.304140e-03 1.665980e-03 2.534478e-03 2.299008e-03 1.964244e-03 1.200697e-03 5.742987e-04 
1.505791e-06 -1.155463e-06 7.506564e-07 2.801135e-07 -5.826309e-09 2.120833e-06 -9.991023e-07 3.210410e-06 -2.591295e-06 4.012655e-06 -3.697891e-06 4.696148e-06 -4.602758e-06 1.472529e-08 -2.747065e-08 -1.610683e-07 -4.207545e-08 -3.325358e-07 -1.428222e-07 -3.474534e-07 -4.970967e-07 -4.045336e-05 6.013789e-06 -3.124342e-05 4.552431e-07 -2.982074e-05 -1.555702e-05 -2.765760e-05 -4.077767e-05 -2.634012e-05 -7.718652e-05 -3.005167e-05 -1.271940e-04 -4.574756e-05 -1.945391e-04 -8.393749e-05 -2.855840e-04 -1.595619e-04 -4.111922e-04 -2.935768e-04 -5.901580e-04 -5.164392e-04 -8.545394e-04 -8.722481e-04 -1.253756e-03 -1.419773e-03 -1.853183e-03 -2.225300e-03 -2.719567e-03 -3.336220e-03 -3.876407e-03 -4.713003e-03 -5.206745e-03 -6.101425e-03 -6.047462e-03 -5.273125e-03 -2.463476e-03 -3.048188e-04 1.713722e-03 -1.062307e-04 -8.171548e-04 3.355712e-04 -4.422107e-04 -1.740880e-03 -2.712604e-03 -2.515641e-03 -2.141446e-03 -1.265114e-03 -1.591451e-03 -3.514154e-03 -5.636652e-03 1.366688e-04 7.986777e-03 8.944955e-03 8.124666e-03 7.883073e-03 6.803846e-03 6.106169e-03 5.037464e-03 4.311418e-03 3.487445e-03 2.873886e-03 2.328009e-03 1.835271e-03 1.528873e-03 1.129109e-03 1.003808e-03 6.687308e-04 6.664749e-04 3.783063e-04 4.490671e-04 2.013797e-04 3.055952e-04 9.946725e-05 2.075834e-04 4.660691e-05 1.379287e-04 2.443492e-05 8.621335e-05 1.950439e-05 4.650353e-05 2.264163e-05 1.614176e-05 2.814836e-05 -5.737662e-06 3.286795e-05 -1.942206e-05 3.520915e-05 -2.571651e-05 3.443882e-05 -2.604539e-05 3.059679e-05 -2.231050e-05 2.421225e-05 -1.649068e-05 1.644036e-05 -1.010242e-05 8.773942e-06 -4.223360e-06 2.629068e-06 4.703353e-07 -1.202142e-06 3.214850e-06 -2.821439e-06 3.242095e-06 -2.767517e-06 2.387864e-06 -2.155070e-06 
4.078644e-04 9.706630e-04 1.959814e-03 2.216592e-03 2.765566e-03 2.492699e-03 1.273350e-03 2.218023e-03 1.954959e-03 2.766373e-03 3.369144e-03 3.512746e-03 1.723218e-03 -7.922733e-05 4.424712e-05 -9.088217e-05 8.912557e-05 -9.704929e-05 9.809597e-05 -6.475535e-05 6.476488e-05 -3.429465e-03 -4.183858e-03 -2.729292e-03 -1.764137e-03 -1.048004e-03 -8.075244e-04 -4.022654e-04 -4.833001e-04 -1.316236e-04 -3.839359e-04 -2.985635e-05 -3.731088e-04 -2.157857e-05 -4.055175e-04 -8.243301e-05 -4.728148e-04 -2.097713e-04 -5.834864e-04 -4.125262e-04 -7.568538e-04 -7.093936e-04 -1.022857e-03 -1.129152e-03 -1.421128e-03 -1.707404e-03 -1.994414e-03 -2.475466e-03 -2.772064e-03 -3.437934e-03 -3.742345e-03 -4.545755e-03 -4.850968e-03 -5.779615e-03 -6.027777e-03 -5.759333e-03 -2.549637e-03 1.195789e-03 2.185794e-03 -2.456380e-04 -5.032785e-05 2.538697e-03 2.686097e-03 1.480175e-03 3.354332e-04 1.387632e-03 4.829159e-03 6.116714e-03 3.403773e-03 1.230269e-03 -5.116596e-04 2.488914e-04 1.320498e-03 1.674038e-03 2.272016e-03 2.922023e-03 2.810350e-03 2.713086e-03 2.376735e-03 2.037289e-03 1.775554e-03 1.361840e-03 1.256613e-03 8.252275e-04 8.756058e-04 4.468122e-04 6.161355e-04 2.032697e-04 4.413479e-04 6.162611e-05 3.167717e-04 -6.830968e-06 2.189593e-04 -2.344893e-05 1.350674e-04 -4.760459e-06 5.929251e-05 3.475623e-05 -9.962198e-06 8.193742e-05 -7.091391e-05 1.259823e-04 -1.190201e-04 1.587041e-04 -1.488570e-04 1.742202e-04 -1.561089e-04 1.686975e-04 -1.394898e-04 1.405332e-04 -1.021206e-04 9.007339e-05 -5.485096e-05 1.587508e-05 -2.345605e-05 -9.433531e-05 -6.152772e-05 -2.818430e-04 -2.671098e-04 -6.394355e-04 -7.695374e-04 -1.306901e-03 -1.659221e-03 -2.540323e-03 -2.293292e-03 -1.969526e-03 -1.197173e-03 -5.778698e-04 
7.955938e-04 2.343027e-03 4.434993e-03 5.201498e-03 6.498797e-03 5.110151e-03 2.612617e-03 4.104365e-03 3.841971e-03 5.577843e-03 6.594983e-03 7.291391e-03 3.449093e-03 -1.589580e-04 4.632873e-05 -1.533355e-04 1.235091e-04 -1.368014e-04 1.567156e-04 -7.299524e-05 1.347707e-04 -6.362429e-03 -7.837589e-03 -5.469265e-03 -3.646481e-03 -2.267656e-03 -1.755275e-03 -8.918830e-04 -9.950456e-04 -2.364133e-04 -6.677740e-04 7.025800e-05 -5.154239e-04 1.865889e-04 -4.335245e-04 1.851763e-04 -3.850552e-04 1.010080e-04 -3.626450e-04 -4.718070e-05 -3.726179e-04 -2.522264e-04 -4.338996e-04 -5.208796e-04 -5.764807e-04 -8.700844e-04 -8.334538e-04 -1.317093e-03 -1.227640e-03 -1.866501e-03 -1.761930e-03 -2.512337e-03 -2.449331e-03 -3.351918e-03 -3.517465e-03 -4.179232e-03 -2.101005e-03 1.168197e-03 2.323279e-03 1.234221e-03 9.288507e-04 1.163820e-03 8.461812e-04 2.734894e-04 -3.791263e-04 -1.584524e-05 4.293720e-04 5.129618e-04 -1.418072e-03 -1.190855e-03 -7.651473e-04 3.304672e-04 6.061483e-04 1.304758e-03 2.021211e-03 2.654017e-03 2.670309e-03 2.587860e-03 2.426150e-03 2.023359e-03 1.958693e-03 1.390831e-03 1.510259e-03 8.536175e-04 1.155825e-03 4.586299e-04 8.941967e-04 1.994194e-04 6.942997e-04 4.980586e-05 5.236474e-04 -1.392540e-05 3.647887e-04 -7.739083e-06 2.123804e-04 5.237859e-05 6.583210e-05 1.454697e-04 -7.404882e-05 2.470803e-04 -2.013664e-04 3.367904e-04 -3.027924e-04 3.989632e-04 -3.629318e-04 4.211705e-04 -3.691318e-04 3.931334e-04 -3.164248e-04 3.085852e-04 -2.075281e-04 1.685927e-04 -5.861456e-05 -2.464678e-05 8.690043e-05 -2.798931e-04 1.327829e-04 -6.480571e-04 -1.217322e-04 -1.269478e-03 -1.025136e-03 -2.440491e-03 -3.530091e-03 -5.692855e-03 -6.013151e-03 -4.695781e-03 -3.075889e-03 -1.341032e-03 
1.269566e-03 3.916383e-03 8.821279e-03 1.080567e-02 1.763896e-02 9.142293e-03 -5.335163e-03 2.905347e-03 1.520497e-03 2.409527e-03 3.469284e-03 2.057374e-03 1.513089e-03 -2.995032e-04 2.851360e-04 -2.847482e-04 4.106414e-04 -4.435340e-04 4.353593e-04 -4.728618e-04 2.444224e-04 -2.273850e-03 -1.883255e-03 -2.356169e-03 -1.156091e-03 -7.687161e-04 -7.629219e-04 -6.647156e-05 -6.610875e-04 2.715873e-04 -6.237515e-04 4.165328e-04 -5.861103e-04 4.392564e-04 -5.316740e-04 3.747515e-04 -4.652554e-04 2.439062e-04 -3.987288e-04 6.574821e-05 -3.436851e-04 -1.438464e-04 -3.175548e-04 -3.797265e-04 -3.438805e-04 -6.430393e-04 -4.425624e-04 -9.287612e-04 -6.129242e-04 -1.207944e-03 -8.198860e-04 -1.421698e-03 -9.922862e-04 -1.486102e-03 -1.045706e-03 -1.316248e-03 -7.224150e-04 -4.255621e-04 -1.712230e-05 -1.094364e-04 1.067421e-04 5.947602e-04 6.708811e-04 9.175977e-04 7.055882e-04 1.070037e-03 1.153869e-03 1.722887e-03 1.131658e-03 1.386540e-03 6.912507e-04 9.368161e-04 3.777538e-04 6.849850e-04 4.873411e-04 6.674906e-04 5.445097e-04 4.823990e-04 5.265985e-04 2.426477e-04 4.941630e-04 1.175575e-05 4.723766e-04 -1.700159e-04 4.672125e-04 -2.847280e-04 4.657985e-04 -3.340169e-04 4.440504e-04 -3.307317e-04 3.822815e-04 -2.816313e-04 2.808210e-04 -1.853606e-04 1.512348e-04 -4.673857e-05 5.221569e-06 1.167381e-04 -1.494215e-04 2.784372e-04 -3.006408e-04 4.164383e-04 -4.267294e-04 5.141712e-04 -5.046580e-04 5.580277e-04 -5.155732e-04 5.357413e-04 -4.517644e-04 4.401441e-04 -3.130501e-04 2.778299e-04 -1.116934e-04 6.473242e-05 1.145680e-04 -1.769086e-04 2.774805e-04 -4.419236e-04 1.538677e-04 -8.129454e-04 -8.340287e-04 -1.646271e-03 -5.196245e-03 -1.392467e-02 -1.373702e-02 -9.318861e-03 -5.675621e-03 -2.437974e-03 
1.988115e-03 7.764593e-03 1.606335e-02 2.238618e-02 2.639967e-02 4.477395e-03 -8.515090e-03 2.352698e-03 -9.915517e-04 1.116878e-03 3.852801e-04 1.066402e-03 1.068447e-03 -3.895983e-04 2.764795e-04 -3.357016e-04 4.165481e-04 -4.540113e-04 4.721517e-04 -4.548936e-04 3.434079e-04 -1.672872e-03 3.969020e-04 -9.476581e-04 6.938094e-06 4.127571e-05 -2.174014e-04 5.763132e-04 -4.288153e-04 8.342255e-04 -5.563857e-04 9.167092e-04 -5.804065e-04 8.795765e-04 -5.111934e-04 7.553403e-04 -3.801719e-04 5.622220e-04 -2.174689e-04 3.410774e-04 -2.271774e-05 1.426741e-04 1.892920e-04 -1.952770e-05 3.764665e-04 -1.571423e-04 4.905846e-04 -2.836565e-04 5.159395e-04 -3.717834e-04 4.840913e-04 -3.870042e-04 4.163730e-04 -3.258063e-04 3.301528e-04 -1.814731e-04 2.334263e-04 3.027192e-05 2.723615e-04 2.985721e-04 1.967277e-04 3.917557e-04 4.414642e-05 4.213609e-04 -1.451905e-04 3.417937e-04 -3.247779e-04 4.175877e-04 -2.777519e-04 4.815998e-04 -2.548199e-04 4.258366e-04 -2.357067e-04 2.250050e-04 -1.939896e-04 8.523516e-05 1.058323e-05 1.470174e-06 2.439773e-04 -1.261252e-04 4.192327e-04 -3.014931e-04 5.431737e-04 -4.555176e-04 6.479571e-04 -5.377193e-04 7.293524e-04 -5.423967e-04 7.419129e-04 -5.056370e-04 6.402943e-04 -4.294521e-04 4.514213e-04 -2.754043e-04 2.209016e-04 -3.230709e-05 -2.486560e-05 2.672356e-04 -2.908724e-04 5.547175e-04 -5.700421e-04 7.929542e-04 -8.119342e-04 9.603989e-04 -9.654648e-04 1.037223e-03 -9.856553e-04 9.936083e-04 -8.646810e-04 7.973133e-04 -5.935042e-04 4.585837e-04 -1.729701e-04 -6.086731e-06 3.620050e-04 -5.514345e-04 9.575461e-04 -1.094903e-03 1.510588e-03 -1.460162e-03 1.780355e-03 -1.314302e-03 -9.266788e-04 -1.415296e-02 -2.903382e-02 -2.028735e-02 -1.108556e-02 -4.580570e-03 
-3.747501e-04 6.457120e-03 1.002477e-02 1.878094e-02 9.482870e-03 -1.033753e-02 3.577409e-03 -1.520174e-04 -1.744886e-03 1.087260e-03 -2.853244e-03 1.088643e-03 -1.125708e-03 2.172487e-03 1.155821e-03 1.036569e-04 9.721114e-04 -1.095138e-03 1.319000e-03 -2.524522e-03 7.782775e-04 -3.350899e-04 2.132518e-04 9.853131e-04 -9.647683e-05 8.697750e-04 -5.172402e-04 9.467228e-04 -6.979895e-04 1.009383e-03 -7.328132e-04 9.907921e-04 -6.523783e-04 8.887343e-04 -4.837102e-04 7.150045e-04 -2.664869e-04 4.789786e-04 -3.349435e-05 2.282880e-04 2.268452e-04 2.756549e-05 5.050396e-04 -1.086531e-04 7.527174e-04 -1.991368e-04 9.118136e-04 -2.653875e-04 9.670443e-04 -2.741612e-04 9.654558e-04 -1.857930e-04 9.301397e-04 -2.531138e-05 8.199641e-04 9.655675e-05 5.213440e-04 1.984346e-06 -4.004541e-05 -7.159580e-05 -4.129941e-04 -1.435413e-05 -6.509721e-04 1.394606e-04 -6.765645e-04 3.939071e-04 -5.566366e-04 5.407743e-04 -4.520234e-04 5.416587e-04 -4.453868e-04 3.356189e-04 -4.244442e-04 1.755049e-04 -2.740854e-04 1.659108e-05 -5.640694e-05 -1.264207e-04 1.892062e-04 -2.952775e-04 3.821925e-04 -4.963911e-04 5.260427e-04 -6.526043e-04 6.548459e-04 -7.096545e-04 7.578290e-04 -6.679431e-04 7.720636e-04 -5.812002e-04 6.360776e-04 -4.534044e-04 3.881459e-04 -2.318708e-04 9.049665e-05 9.888812e-05 -2.214048e-04 4.953307e-04 -5.543713e-04 8.638482e-04 -8.979208e-04 1.153341e-03 -1.180963e-03 1.332776e-03 -1.331521e-03 1.373063e-03 -1.286188e-03 1.232152e-03 -1.034243e-03 8.651712e-04 -5.651322e-04 2.865398e-04 1.154866e-04 -4.841741e-04 9.540364e-04 -1.398095e-03 1.881315e-03 -2.384334e-03 2.822427e-03 -3.292833e-03 3.839267e-03 -3.683488e-03 5.837846e-03 5.937641e-03 -2.295399e-02 -1.785423e-02 -1.094168e-02 -4.263300e-03 
-9.031347e-04 2.196383e-03 6.188955e-04 3.882377e-03 -7.505415e-03 -1.301857e-02 1.039932e-02 -1.306212e-03 1.006650e-03 1.113108e-03 5.145061e-04 1.470744e-04 -3.371074e-03 -3.187156e-03 -4.843342e-03 3.259963e-04 -1.822190e-03 1.794158e-03 -2.918890e-04 4.458891e-03 2.326668e-03 2.246285e-03 1.541218e-03 -4.067167e-04 4.993107e-04 8.772874e-05 1.690946e-04 3.367866e-04 -7.591947e-05 4.387311e-04 -2.032456e-04 4.455124e-04 -2.363257e-04 3.816693e-04 -2.044609e-04 2.620802e-04 -1.399056e-04 9.586159e-05 -6.849691e-05 -9.435333e-05 4.055547e-06 -2.811597e-04 6.414208e-05 -4.595814e-04 8.283725e-05 -6.377983e-04 3.277702e-05 -8.177733e-04 -8.270548e-05 -9.646448e-04 -2.139566e-04 -1.018170e-03 -2.934468e-04 -9.186738e-04 -2.613814e-04 -6.206936e-04 8.955477e-06 7.408837e-05 4.441163e-04 5.293800e-04 5.212544e-04 8.081051e-04 4.902386e-04 9.517275e-04 3.918616e-04 1.004729e-03 2.217813e-04 7.506742e-04 -9.862787e-05 5.328383e-04 -1.705975e-05 6.186385e-04 1.733580e-04 6.406443e-04 3.562821e-04 5.818124e-04 4.430098e-04 3.965229e-04 4.814983e-04 1.691682e-04 4.969775e-04 -5.677362e-05 5.073303e-04 -2.316067e-04 5.255152e-04 -3.273153e-04 5.385477e-04 -3.453891e-04 5.095897e-04 -3.115956e-04 4.053778e-04 -2.311673e-04 2.385270e-04 -8.602644e-05 3.700070e-05 1.249008e-04 -1.791918e-04 3.738885e-04 -4.047551e-04 6.088806e-04 -6.244033e-04 7.929760e-04 -7.950515e-04 8.985254e-04 -8.710908e-04 9.008056e-04 -8.129019e-04 7.733936e-04 -6.070507e-04 4.947596e-04 -2.481729e-04 7.510304e-05 2.529186e-04 -4.636258e-04 8.536941e-04 -1.083824e-03 1.483032e-03 -1.764322e-03 2.009826e-03 -2.602418e-03 2.160534e-03 -4.341547e-03 2.772159e-03 1.005845e-02 -4.592654e-03 -3.540472e-03 -3.368349e-03 -6.939289e-04 
-5.488642e-04 7.746964e-04 -1.461345e-04 5.849630e-04 -3.017596e-03 -4.060899e-03 5.030679e-03 1.423121e-03 3.364153e-03 5.082937e-03 6.866957e-03 1.090165e-02 1.221713e-02 1.248064e-02 7.756560e-03 3.008587e-03 1.257817e-03 -9.907570e-04 -4.385589e-03 -5.960682e-03 -1.221589e-02 -1.328873e-02 -9.787205e-03 -6.999204e-03 -4.383211e-03 -2.864318e-03 -2.004709e-03 -1.104616e-03 -9.993429e-04 -3.301739e-04 -5.541747e-04 3.307254e-06 -3.412523e-04 1.301909e-04 -2.232939e-04 1.531731e-04 -1.462103e-04 1.183740e-04 -8.998478e-05 5.041754e-05 -4.753058e-05 -3.866309e-05 -2.504271e-05 -1.524230e-04 -4.240667e-05 -3.062344e-04 -1.266869e-04 -5.195015e-04 -3.030730e-04 -8.078084e-04 -5.909477e-04 -1.181673e-03 -9.997518e-04 -1.619619e-03 -1.468770e-03 -1.913640e-03 -1.482529e-03 -9.122033e-04 -3.066022e-04 -6.936032e-04 -3.297306e-04 2.416041e-04 5.810488e-04 4.437568e-04 2.301056e-04 1.296565e-04 1.091011e-03 2.272326e-03 1.906348e-03 2.160495e-03 1.004930e-03 1.073277e-03 4.371749e-05 1.362426e-04 -1.655164e-04 1.652295e-04 9.440601e-05 2.707469e-04 2.969226e-04 2.628484e-04 3.927798e-04 1.686340e-04 4.207040e-04 5.090512e-05 4.197063e-04 -4.542762e-05 4.042691e-04 -1.027248e-04 3.679414e-04 -1.217290e-04 3.002922e-04 -1.030809e-04 2.034290e-04 -4.317123e-05 8.728697e-05 5.509101e-05 -3.867472e-05 1.765484e-04 -1.677825e-04 2.967587e-04 -2.891454e-04 3.937841e-04 -3.827406e-04 4.501156e-04 -4.259860e-04 4.513812e-04 -3.998580e-04 3.853042e-04 -2.953235e-04 2.446631e-04 -1.116233e-04 3.427997e-05 1.410900e-04 -2.307510e-04 4.361954e-04 -5.242970e-04 7.245635e-04 -8.174778e-04 9.118606e-04 -1.116731e-03 7.874245e-04 -1.682642e-03 7.231470e-04 3.692907e-03 -5.285549e-04 -1.009272e-04 -1.255747e-03 -8.734824e-05 
