# vtk DataFile Version 2.0
Comment goes here
ASCII

DATASET STRUCTURED_POINTS
FIELD FieldData 1
TIME 1 1 double
0.96000000
DIMENSIONS    128   16   1

ORIGIN    0.000   0.000   0.000
SPACING   0.0078125 0.015625   1.000

POINT_DATA   2048
SCALARS fMag double
LOOKUP_TABLE default

0 0 0 0 0 0 0 0 0 0 0 0 0 0 0 0 0 0 0 0 0 0 0 0 0 0 0 0 0 0 0 0 0 0 0 0 0 0 0 0 0 0 0 0 0 0 0 0 0 0 0 0 0 0 0 0 0 0 0 0 0 0 0 0 0 0 0 0 0 0 0 0 0 0 0 0 0 0 0 0 0 0 0 0 0 0 0 0 0 0 0 0 0 0 0 0 0 0 0 0 0 0 0 0 0 0 0 0 0 0 0 0 0 0 0 0 0 0 0 0 0 0 0 0 0 0 0 0 
0 0 0 0 0 0 0 0 0 0 0 0 0 0 0 0 0 0 0 0 0 0 0 0 0 0 0 0 0 0 0 0 0 0 0 0 0 0 0 0 0 0 0 0 0 0 0 0 0 0 0 0 0 0 0 0 0 0 0 0 0 0 0 0 0 0 0 0 0 0 0 0 0 0 0 0 0 0 0 0 0 0 0 0 0 0 0 0 0 0 0 0 0 0 0 0 0 0 0 0 0 0 0 0 0 0 0 0 0 0 0 0 0 0 0 0 0 0 0 0 0 0 0 0 0 0 0 0 
0 0 0 0 0 1.720998e+00 3.123259e+00 1.554228e+00 2.582032e+00 2.027189e+00 3.151805e+00 2.436877e+00 3.572229e+00 4.919473e+00 7.139631e+00 9.354099e+00 1.325735e+01 1.756016e+01 2.168959e+01 2.525370e+01 3.173135e+01 3.204640e+01 3.144295e+01 3.158990e+01 3.098372e+01 3.106851e+01 3.049520e+01 3.051340e+01 2.995938e+01 2.989120e+01 2.938309e+01 2.926503e+01 2.883713e+01 2.867313e+01 2.831482e+01 2.809834e+01 2.779532e+01 2.751683e+01 2.724735e+01 2.691438e+01 2.668237e+01 2.631587e+01 2.611459e+01 2.572559e+01 2.555283e+01 2.515652e+01 2.499848e+01 2.459838e+01 2.445796e+01 2.409157e+01 2.397589e+01 2.363498e+01 2.349547e+01 2.317046e+01 2.301113e+01 2.274804e+01 2.270868e+01 2.287200e+01 2.243040e+01 2.435827e+01 2.457182e+01 2.042274e+01 2.232350e+01 2.399616e+01 2.207659e+01 2.541029e+01 2.520483e+01 2.491733e+01 2.781725e+01 2.521172e+01 1.884409e+01 1.646873e+01 1.658542e+01 1.635911e+01 1.598078e+01 1.572228e+01 1.532166e+01 1.500736e+01 1.464122e+01 1.432916e+01 1.403647e+01 1.373207e+01 1.351026e+01 1.318081e+01 1.298433e+01 1.258485e+01 1.239319e+01 1.193714e+01 1.176514e+01 1.128747e+01 1.115210e+01 1.069332e+01 1.057930e+01 1.012966e+01 9.980206e+00 9.553236e+00 9.367217e+00 9.006272e+00 8.756014e+00 8.458926e+00 8.114444e+00 7.900550e+00 7.456327e+00 7.328821e+00 6.787074e+00 6.763296e+00 6.163335e+00 6.235540e+00 5.581863e+00 5.690669e+00 4.990927e+00 5.078448e+00 4.368574e+00 4.405638e+00 3.777687e+00 3.761120e+00 3.275931e+00 3.132351e+00 2.799702e+00 2.482835e+00 2.305526e+00 1.997459e+00 3.062347e+00 3.336344e-01 0 0 0 0 
0 0 0 0 0 5.060062e+00 9.173592e+00 4.552508e+00 7.586223e+00 5.960319e+00 9.267858e+00 7.163948e+00 1.050278e+01 1.447048e+01 2.100392e+01 2.751844e+01 3.900089e+01 5.166169e+01 6.381197e+01 7.430112e+01 9.336654e+01 9.429371e+01 9.251740e+01 9.294980e+01 9.116525e+01 9.141463e+01 8.972694e+01 8.978039e+01 8.814961e+01 8.794891e+01 8.645340e+01 8.610594e+01 8.484658e+01 8.436392e+01 8.330939e+01 8.267224e+01 8.178044e+01 8.096077e+01 8.016766e+01 7.918764e+01 7.850478e+01 7.742609e+01 7.683369e+01 7.568878e+01 7.518032e+01 7.401392e+01 7.354880e+01 7.237129e+01 7.195806e+01 7.087980e+01 7.053935e+01 6.953614e+01 6.912557e+01 6.816916e+01 6.770031e+01 6.692609e+01 6.686424e+01 6.827486e+01 6.760355e+01 6.774858e+01 6.883888e+01 6.512985e+01 6.622016e+01 6.665103e+01 6.313407e+01 6.541260e+01 6.310206e+01 6.067554e+01 6.104537e+01 6.172925e+01 5.475698e+01 5.073892e+01 4.896002e+01 4.812576e+01 4.701259e+01 4.625199e+01 4.507325e+01 4.414849e+01 4.307123e+01 4.215303e+01 4.129189e+01 4.039624e+01 3.974365e+01 3.877430e+01 3.819622e+01 3.702085e+01 3.645695e+01 3.511518e+01 3.460915e+01 3.320384e+01 3.280561e+01 3.145595e+01 3.112055e+01 2.979783e+01 2.935822e+01 2.810222e+01 2.755502e+01 2.649325e+01 2.575703e+01 2.488307e+01 2.386959e+01 2.324030e+01 2.193336e+01 2.155817e+01 1.996435e+01 1.989432e+01 1.812935e+01 1.834178e+01 1.641899e+01 1.673925e+01 1.468121e+01 1.493904e+01 1.285141e+01 1.296091e+01 1.111438e+01 1.106611e+01 9.639471e+00 9.217522e+00 8.239613e+00 7.308419e+00 6.787691e+00 5.879603e+00 9.008486e+00 9.813947e-01 0 0 0 0 
0 0 0 0 0 3.494455e+00 6.330691e+00 3.135592e+00 5.236370e+00 4.116167e+00 6.400800e+00 4.946936e+00 7.253050e+00 4.890586e+01 6.769413e+01 5.462019e+01 6.408104e+01 6.525733e+01 7.014141e+01 8.169505e+01 8.245750e+01 6.515330e+01 6.392559e+01 6.422437e+01 6.299088e+01 6.316313e+01 6.199663e+01 6.203351e+01 6.090641e+01 6.076769e+01 5.973413e+01 5.949401e+01 5.862369e+01 5.829015e+01 5.756138e+01 5.712106e+01 5.650477e+01 5.593830e+01 5.539020e+01 5.471290e+01 5.424099e+01 5.349551e+01 5.308610e+01 5.229486e+01 5.194348e+01 5.113740e+01 5.081597e+01 5.000224e+01 4.971667e+01 4.897154e+01 4.873629e+01 4.804304e+01 4.775933e+01 4.709843e+01 4.677445e+01 4.623946e+01 4.564118e+01 4.320729e+01 4.318591e+01 4.019921e+01 3.849465e+01 4.352062e+01 3.949453e+01 3.519934e+01 3.737548e+01 3.173653e+01 2.989287e+01 3.020980e+01 2.365441e+01 3.270931e+01 3.543888e+01 3.392644e+01 3.334261e+01 3.324845e+01 3.247930e+01 3.195376e+01 3.113933e+01 3.050037e+01 2.975606e+01 2.912163e+01 2.852664e+01 2.790780e+01 2.745691e+01 2.678714e+01 2.638773e+01 2.557563e+01 2.518602e+01 2.425897e+01 2.390935e+01 2.293843e+01 2.266331e+01 2.173087e+01 2.149917e+01 2.058537e+01 2.028168e+01 1.941399e+01 1.903597e+01 1.830246e+01 1.779383e+01 1.719005e+01 1.648984e+01 1.605506e+01 1.515208e+01 1.489284e+01 1.379167e+01 1.374325e+01 1.252391e+01 1.267067e+01 1.134239e+01 1.156373e+01 1.014214e+01 1.032043e+01 8.878507e+00 8.954381e+00 7.679061e+00 7.645937e+00 6.660663e+00 6.369365e+00 5.694094e+00 5.051236e+00 4.691913e+00 4.063670e+00 6.223450e+00 6.779627e-01 0 0 0 0 
0 0 0 0 0 1.553910e-01 2.803581e-01 1.373126e-01 2.321795e-01 1.830367e-01 2.847466e-01 2.198644e-01 3.224969e-01 5.397799e+01 5.891801e+01 5.540857e+01 5.706330e+01 5.696777e+01 5.532282e+01 5.845952e+01 5.412489e+01 2.905992e+00 2.851143e+00 2.864472e+00 2.809345e+00 2.817012e+00 2.764888e+00 2.766521e+00 2.716175e+00 2.709977e+00 2.663823e+00 2.653103e+00 2.614246e+00 2.599356e+00 2.566822e+00 2.547163e+00 2.519650e+00 2.494356e+00 2.469886e+00 2.439642e+00 2.418571e+00 2.385283e+00 2.367003e+00 2.331674e+00 2.315985e+00 2.279998e+00 2.265648e+00 2.229323e+00 2.216576e+00 2.183319e+00 2.172820e+00 2.141883e+00 2.129223e+00 2.099732e+00 2.085275e+00 2.061404e+00 1.263147e+00 4.679872e+00 4.892247e+00 4.827783e+00 9.174930e+00 3.760225e+00 6.040174e+00 1.004158e+01 5.219034e+00 9.709843e+00 9.990260e+00 6.190546e+00 1.117036e+01 6.834557e+00 1.028033e+00 8.368294e-01 7.983928e-01 1.481794e+00 1.447491e+00 1.424053e+00 1.387734e+00 1.359239e+00 1.326049e+00 1.297756e+00 1.271225e+00 1.243628e+00 1.223522e+00 1.193654e+00 1.175843e+00 1.139631e+00 1.122258e+00 1.080926e+00 1.065339e+00 1.022058e+00 1.009797e+00 9.682381e-01 9.579174e-01 9.171966e-01 9.036691e-01 8.650076e-01 8.481651e-01 8.154828e-01 7.928135e-01 7.659075e-01 7.346920e-01 7.153102e-01 6.750526e-01 6.634878e-01 6.144006e-01 6.122325e-01 5.578921e-01 5.644339e-01 5.052639e-01 5.151497e-01 4.518524e-01 4.598415e-01 3.956666e-01 3.991048e-01 3.423654e-01 3.409462e-01 2.971222e-01 2.841937e-01 2.541835e-01 2.256529e-01 2.097479e-01 1.815264e-01 2.773100e-01 3.020243e-02 0 0 0 0 
0 0 0 0 0 0 0 0 0 0 0 0 0 5.905376e+01 6.428776e+01 6.046373e+01 6.198465e+01 6.238510e+01 5.990908e+01 6.427553e+01 5.877378e+01 0 0 0 0 0 0 0 0 0 0 0 0 0 0 0 0 0 0 0 0 0 0 0 0 0 0 0 0 0 0 0 0 0 0 0 2.277305e-01 2.549648e+00 2.846999e+00 1.609916e+00 2.988380e+00 2.021343e+00 1.455111e+00 2.289495e+00 1.313561e+00 1.407718e+00 1.569390e+00 6.831741e-01 1.062702e+00 1.945083e-01 6.904719e-01 1.910972e-01 1.674184e-01 0 0 0 0 0 0 0 0 0 0 0 0 0 0 0 0 0 0 0 0 0 0 0 0 0 0 0 0 0 0 0 0 0 0 0 0 0 0 0 0 0 0 0 0 0 0 0 0 0 0 0 0 0 0 0 
0 0 0 0 0 0 0 0 0 0 0 0 0 5.805347e+01 6.003016e+01 5.834193e+01 5.907295e+01 5.903738e+01 5.831579e+01 5.989895e+01 5.803285e+01 0 0 0 0 0 0 0 0 0 0 0 0 0 0 0 0 0 0 0 0 0 0 0 0 0 0 0 0 0 0 0 0 0 0 0 4.606361e-03 7.864733e-02 1.037881e-01 7.437628e-02 8.390237e-02 6.604687e-02 1.353277e-01 2.102887e-02 4.623942e-03 3.932719e-02 1.590107e-01 2.662858e-01 3.799056e-01 2.942698e-01 2.383395e-02 1.065196e-01 1.738938e-02 0 0 0 0 0 0 0 0 0 0 0 0 0 0 0 0 0 0 0 0 0 0 0 0 0 0 0 0 0 0 0 0 0 0 0 0 0 0 0 0 0 0 0 0 0 0 0 0 0 0 0 0 0 0 0 
0 0 0 0 0 0 0 0 0 0 0 0 0 6.161921e+01 6.423590e+01 6.218556e+01 6.296521e+01 6.325695e+01 6.181969e+01 6.440186e+01 6.127265e+01 0 0 0 0 0 0 0 0 0 0 0 0 0 0 0 0 0 0 0 0 0 0 0 0 0 0 0 0 0 0 0 0 0 0 0 0 0 0 0 0 0 0 0 0 0 0 0 0 0 0 0 0 0 0 0 0 0 0 0 0 0 0 0 0 0 0 0 0 0 0 0 0 0 0 0 0 0 0 0 0 0 0 0 0 0 0 0 0 0 0 0 0 0 0 0 0 0 0 0 0 0 0 0 0 0 0 0 
0 0 0 0 0 0 0 0 0 0 0 0 0 5.805172e+01 6.003040e+01 5.833928e+01 5.907046e+01 5.903382e+01 5.830989e+01 5.989434e+01 5.802363e+01 0 0 0 0 0 0 0 0 0 0 0 0 0 0 0 0 0 0 0 0 0 0 0 0 0 0 0 0 0 0 0 0 0 0 0 0 0 0 0 0 0 0 0 0 0 0 0 0 0 0 0 0 0 0 0 0 0 0 0 0 0 0 0 0 0 0 0 0 0 0 0 0 0 0 0 0 0 0 0 0 0 0 0 0 0 0 0 0 0 0 0 0 0 0 0 0 0 0 0 0 0 0 0 0 0 0 0 
0 0 0 0 0 0 0 0 0 0 0 0 0 5.904649e+01 6.429337e+01 6.045462e+01 6.198182e+01 6.237721e+01 5.989307e+01 6.426975e+01 5.874309e+01 0 0 0 0 0 0 0 0 0 0 0 0 0 0 0 0 0 0 0 0 0 0 0 0 0 0 0 0 0 0 0 0 0 0 0 0 0 0 0 0 0 0 0 0 0 0 0 0 0 0 0 0 0 0 0 0 0 0 0 0 0 0 0 0 0 0 0 0 0 0 0 0 0 0 0 0 0 0 0 0 0 0 0 0 0 0 0 0 0 0 0 0 0 0 0 0 0 0 0 0 0 0 0 0 0 0 0 
0 0 0 0 0 1.552343e-01 2.800732e-01 1.372147e-01 2.322415e-01 1.832145e-01 2.851784e-01 2.201845e-01 3.230608e-01 5.397509e+01 5.892481e+01 5.540185e+01 5.705897e+01 5.695922e+01 5.530572e+01 5.845052e+01 5.409010e+01 2.904307e+00 2.849488e+00 2.862496e+00 2.807734e+00 2.813209e+00 2.759517e+00 2.758865e+00 2.710976e+00 2.706666e+00 2.665236e+00 2.654830e+00 2.618481e+00 2.601519e+00 2.569392e+00 2.545066e+00 2.516055e+00 2.486822e+00 2.462877e+00 2.431924e+00 2.412562e+00 2.380675e+00 2.363608e+00 2.329342e+00 2.310171e+00 2.272662e+00 2.251950e+00 2.215347e+00 2.194720e+00 2.159694e+00 2.138352e+00 2.106001e+00 2.084298e+00 2.053194e+00 2.027379e+00 1.994849e+00 1.964817e+00 1.932671e+00 1.899949e+00 1.869667e+00 1.835962e+00 1.809665e+00 1.776735e+00 1.752551e+00 1.719315e+00 1.695586e+00 1.659639e+00 1.634788e+00 1.595359e+00 1.571177e+00 1.535186e+00 1.515544e+00 1.484159e+00 1.466446e+00 1.436699e+00 1.417381e+00 1.386493e+00 1.360813e+00 1.327408e+00 1.296977e+00 1.267808e+00 1.238075e+00 1.216895e+00 1.187669e+00 1.172804e+00 1.140332e+00 1.126462e+00 1.086710e+00 1.071787e+00 1.027462e+00 1.012989e+00 9.674402e-01 9.538107e-01 9.118392e-01 8.997447e-01 8.631086e-01 8.473820e-01 8.152239e-01 7.934679e-01 7.682233e-01 7.376884e-01 7.174678e-01 6.748795e-01 6.610083e-01 6.096240e-01 6.055072e-01 5.499040e-01 5.571754e-01 5.007851e-01 5.143926e-01 4.544126e-01 4.646497e-01 4.017695e-01 4.045183e-01 3.451114e-01 3.396301e-01 2.934438e-01 2.809785e-01 2.535116e-01 2.268668e-01 2.112429e-01 1.823269e-01 2.778072e-01 3.035263e-02 0 0 0 0 
0 0 0 0 0 3.490935e+00 6.324258e+00 3.133382e+00 5.237765e+00 4.120160e+00 6.410487e+00 4.954111e+00 7.265705e+00 4.889237e+01 6.771556e+01 5.458710e+01 6.408521e+01 6.523044e+01 7.010770e+01 8.169053e+01 8.237701e+01 6.511580e+01 6.388876e+01 6.418034e+01 6.295496e+01 6.307808e+01 6.187643e+01 6.186213e+01 6.079002e+01 6.069357e+01 5.976581e+01 5.953273e+01 5.871860e+01 5.833869e+01 5.761908e+01 5.707426e+01 5.642445e+01 5.576978e+01 5.523348e+01 5.454029e+01 5.410663e+01 5.339248e+01 5.301025e+01 5.224276e+01 5.181335e+01 5.097312e+01 5.050914e+01 4.968913e+01 4.922702e+01 4.844224e+01 4.796407e+01 4.723918e+01 4.675288e+01 4.605588e+01 4.547742e+01 4.474842e+01 4.407544e+01 4.335503e+01 4.262176e+01 4.194306e+01 4.118773e+01 4.059834e+01 3.986032e+01 3.931826e+01 3.857333e+01 3.804143e+01 3.723566e+01 3.667859e+01 3.579469e+01 3.525256e+01 3.444566e+01 3.400528e+01 3.330156e+01 3.290437e+01 3.223733e+01 3.180416e+01 3.111147e+01 3.053566e+01 2.978649e+01 2.910413e+01 2.844997e+01 2.778325e+01 2.730825e+01 2.665290e+01 2.631956e+01 2.559134e+01 2.528030e+01 2.438871e+01 2.405398e+01 2.305966e+01 2.273494e+01 2.171297e+01 2.140705e+01 2.046518e+01 2.019364e+01 1.937139e+01 1.901840e+01 1.829665e+01 1.780851e+01 1.724202e+01 1.655708e+01 1.610349e+01 1.514822e+01 1.483721e+01 1.368450e+01 1.359234e+01 1.234463e+01 1.250777e+01 1.124186e+01 1.154671e+01 1.019957e+01 1.042829e+01 9.015438e+00 9.075825e+00 7.740618e+00 7.616347e+00 6.578022e+00 6.297124e+00 5.678975e+00 5.078453e+00 4.725448e+00 4.081668e+00 6.234612e+00 6.813334e-01 0 0 0 0 
0 0 0 0 0 5.054964e+00 9.164269e+00 4.549306e+00 7.588242e+00 5.966100e+00 9.281879e+00 7.174331e+00 1.052110e+01 1.447440e+01 2.101008e+01 2.753199e+01 3.898007e+01 5.166939e+01 6.376717e+01 7.429577e+01 9.333256e+01 9.423950e+01 9.246417e+01 9.288615e+01 9.111332e+01 9.129161e+01 8.955305e+01 8.953244e+01 8.798120e+01 8.784166e+01 8.649923e+01 8.616196e+01 8.498392e+01 8.443419e+01 8.339290e+01 8.260455e+01 8.166427e+01 8.071699e+01 7.994096e+01 7.893792e+01 7.831043e+01 7.727707e+01 7.672397e+01 7.561342e+01 7.499206e+01 7.377622e+01 7.310482e+01 7.191821e+01 7.124950e+01 7.011386e+01 6.942190e+01 6.837290e+01 6.766918e+01 6.666052e+01 6.582344e+01 6.476846e+01 6.379458e+01 6.275203e+01 6.169089e+01 6.070871e+01 5.961563e+01 5.876268e+01 5.769465e+01 5.691018e+01 5.583213e+01 5.506237e+01 5.389626e+01 5.309006e+01 5.181085e+01 5.102627e+01 4.985847e+01 4.922113e+01 4.820265e+01 4.762780e+01 4.666240e+01 4.603546e+01 4.503293e+01 4.419956e+01 4.311527e+01 4.212770e+01 4.118090e+01 4.021597e+01 3.952849e+01 3.857999e+01 3.809755e+01 3.704358e+01 3.659341e+01 3.530296e+01 3.481848e+01 3.337931e+01 3.290929e+01 3.143004e+01 3.098722e+01 2.962387e+01 2.923079e+01 2.804056e+01 2.752960e+01 2.648484e+01 2.577828e+01 2.495830e+01 2.396692e+01 2.331040e+01 2.192776e+01 2.147765e+01 1.980922e+01 1.967587e+01 1.786985e+01 1.810597e+01 1.627346e+01 1.671460e+01 1.476434e+01 1.509516e+01 1.304961e+01 1.313669e+01 1.120347e+01 1.102327e+01 9.519826e+00 9.112931e+00 8.217717e+00 7.347808e+00 6.836230e+00 5.905664e+00 9.024644e+00 9.862737e-01 0 0 0 0 
0 0 0 0 0 1.719264e+00 3.120084e+00 1.553138e+00 2.582719e+00 2.029154e+00 3.156571e+00 2.440405e+00 3.578455e+00 4.920808e+00 7.141725e+00 9.358698e+00 1.325027e+01 1.756275e+01 2.167435e+01 2.525186e+01 3.171982e+01 3.202801e+01 3.142490e+01 3.156830e+01 3.096609e+01 3.102673e+01 3.043613e+01 3.042917e+01 2.990216e+01 2.985476e+01 2.939866e+01 2.928407e+01 2.888380e+01 2.869702e+01 2.834321e+01 2.807536e+01 2.775588e+01 2.743403e+01 2.717035e+01 2.682956e+01 2.661636e+01 2.626526e+01 2.607734e+01 2.570000e+01 2.548888e+01 2.507576e+01 2.484763e+01 2.444443e+01 2.421720e+01 2.383131e+01 2.359618e+01 2.323973e+01 2.300060e+01 2.265784e+01 2.237339e+01 2.201489e+01 2.168396e+01 2.132968e+01 2.096908e+01 2.063531e+01 2.026386e+01 1.997401e+01 1.961106e+01 1.934448e+01 1.897812e+01 1.871653e+01 1.832024e+01 1.804626e+01 1.761152e+01 1.734488e+01 1.694800e+01 1.673139e+01 1.638525e+01 1.618988e+01 1.586176e+01 1.564869e+01 1.530795e+01 1.502471e+01 1.465619e+01 1.432054e+01 1.399874e+01 1.367079e+01 1.343713e+01 1.311476e+01 1.295079e+01 1.259257e+01 1.243957e+01 1.200096e+01 1.183629e+01 1.134711e+01 1.118734e+01 1.068452e+01 1.053398e+01 1.007053e+01 9.936890e+00 9.532278e+00 9.358573e+00 9.003414e+00 8.763239e+00 8.484500e+00 8.147532e+00 7.924377e+00 7.454427e+00 7.301452e+00 6.734341e+00 6.689038e+00 6.075120e+00 6.155380e+00 5.532391e+00 5.682286e+00 5.019182e+00 5.131517e+00 4.435946e+00 4.465387e+00 3.807962e+00 3.746549e+00 3.235247e+00 3.096786e+00 2.792254e+00 2.496222e+00 2.322025e+00 2.006322e+00 3.067840e+00 3.352929e-01 0 0 0 0 
0 0 0 0 0 0 0 0 0 0 0 0 0 0 0 0 0 0 0 0 0 0 0 0 0 0 0 0 0 0 0 0 0 0 0 0 0 0 0 0 0 0 0 0 0 0 0 0 0 0 0 0 0 0 0 0 0 0 0 0 0 0 0 0 0 0 0 0 0 0 0 0 0 0 0 0 0 0 0 0 0 0 0 0 0 0 0 0 0 0 0 0 0 0 0 0 0 0 0 0 0 0 0 0 0 0 0 0 0 0 0 0 0 0 0 0 0 0 0 0 0 0 0 0 0 0 0 0 
