# vtk DataFile Version 2.0
Comment goes here
ASCII

DATASET STRUCTURED_POINTS
FIELD FieldData 1
TIME 1 1 double
0.53000000
DIMENSIONS    128   16   1

ORIGIN    0.000   0.000   0.000
SPACING   0.0078125 0.015625   1.000

POINT_DATA   2048
SCALARS fMag double
LOOKUP_TABLE default

0 0 0 0 0 0 0 0 0 0 0 0 0 0 0 0 0 0 0 0 0 0 0 0 0 0 0 0 0 0 0 0 0 0 0 0 0 0 0 0 0 0 0 0 0 0 0 0 0 0 0 0 0 0 0 0 0 0 0 0 0 0 0 0 0 0 0 0 0 0 0 0 0 0 0 0 0 0 0 0 0 0 0 0 0 0 0 0 0 0 0 0 0 0 0 0 0 0 0 0 0 0 0 0 0 0 0 0 0 0 0 0 0 0 0 0 0 0 0 0 0 0 0 0 0 0 0 0 
0 0 0 0 0 0 0 0 0 0 0 0 0 0 0 0 0 0 0 0 0 0 0 0 0 0 0 0 0 0 0 0 0 0 0 0 0 0 0 0 0 0 0 0 0 0 0 0 0 0 0 0 0 0 0 0 0 0 0 0 0 0 0 0 0 0 0 0 0 0 0 0 0 0 0 0 0 0 0 0 0 0 0 0 0 0 0 0 0 0 0 0 0 0 0 0 0 0 0 0 0 0 0 0 0 0 0 0 0 0 0 0 0 0 0 0 0 0 0 0 0 0 0 0 0 0 0 0 
0 0 0 0 0 1.730325e+00 5.403200e-01 1.196531e+00 4.585919e-01 5.333820e-01 5.211244e-01 5.472174e-01 8.778884e-01 1.001610e+00 1.356901e+00 1.357064e+00 2.932319e+00 3.399066e+00 4.338973e+00 5.678419e+00 5.796584e+00 6.175697e+00 5.993782e+00 5.895373e+00 5.764816e+00 5.617496e+00 5.713099e+00 5.692698e+00 5.974047e+00 5.916079e+00 6.090511e+00 5.784899e+00 5.720959e+00 5.278946e+00 5.225288e+00 4.977658e+00 5.077945e+00 4.978117e+00 5.058194e+00 5.028660e+00 5.111641e+00 5.167423e+00 5.126890e+00 5.042969e+00 4.735203e+00 4.531768e+00 4.145033e+00 4.040948e+00 3.813146e+00 3.963654e+00 3.971299e+00 4.245369e+00 4.234981e+00 4.278556e+00 3.990034e+00 3.713059e+00 3.909484e+00 1.822732e+00 2.545884e+00 4.559474e+00 1.684029e+00 4.951094e+00 6.464432e+00 9.784805e-01 4.375959e+00 4.605501e+00 1.797568e+00 4.664697e+00 4.470400e+00 4.798891e+00 5.696409e+00 5.610927e+00 4.234638e+00 4.121012e+00 4.151528e+00 4.016308e+00 3.655646e+00 3.308651e+00 2.837067e+00 2.624468e+00 2.366853e+00 2.525147e+00 2.564587e+00 2.912977e+00 2.894754e+00 3.044040e+00 2.815176e+00 2.810538e+00 2.553364e+00 2.497582e+00 2.308148e+00 2.272326e+00 2.255273e+00 2.222594e+00 2.252376e+00 2.034167e+00 2.022034e+00 1.674364e+00 1.759222e+00 1.437540e+00 1.682455e+00 1.388261e+00 1.662679e+00 1.303809e+00 1.532192e+00 1.199747e+00 1.404449e+00 1.096664e+00 1.135425e+00 8.556931e-01 8.305223e-01 7.977278e-01 7.714554e-01 9.259809e-01 7.443293e-01 9.902471e-01 6.287481e-01 9.062442e-01 3.819205e-01 6.464728e-01 2.896886e-01 7.070993e-01 2.648160e-01 6.539286e-01 0 0 0 0 
0 0 0 0 0 5.089915e+00 1.581978e+00 3.505152e+00 1.349496e+00 1.565993e+00 1.531889e+00 1.608407e+00 2.581630e+00 2.945759e+00 3.991249e+00 3.991636e+00 8.625032e+00 9.997898e+00 1.276267e+01 1.670287e+01 1.705061e+01 1.816596e+01 1.763099e+01 1.734152e+01 1.695750e+01 1.652409e+01 1.680526e+01 1.674518e+01 1.757273e+01 1.740213e+01 1.791519e+01 1.701611e+01 1.682800e+01 1.552774e+01 1.536990e+01 1.464148e+01 1.493652e+01 1.464289e+01 1.487847e+01 1.479162e+01 1.503573e+01 1.519982e+01 1.508058e+01 1.483370e+01 1.392834e+01 1.332991e+01 1.219227e+01 1.188608e+01 1.121597e+01 1.165869e+01 1.168118e+01 1.248738e+01 1.245684e+01 1.258504e+01 1.173636e+01 1.092160e+01 1.196180e+01 5.757056e+00 5.760614e+00 1.073884e+01 8.491394e+00 1.074734e+01 1.545139e+01 8.866414e+00 1.122283e+01 1.088523e+01 1.164887e+01 1.082085e+01 6.718549e+00 1.819707e+01 1.292268e+01 1.195325e+01 1.214204e+01 1.212166e+01 1.221144e+01 1.181369e+01 1.075276e+01 9.732079e+00 8.344892e+00 7.719526e+00 6.961749e+00 7.427346e+00 7.543357e+00 8.568144e+00 8.514563e+00 8.953720e+00 8.280580e+00 8.266985e+00 7.510585e+00 7.346546e+00 6.789390e+00 6.684037e+00 6.633877e+00 6.537735e+00 6.625296e+00 5.983385e+00 5.947642e+00 4.924937e+00 5.174491e+00 4.228291e+00 4.948702e+00 4.083449e+00 4.890752e+00 3.835387e+00 4.507385e+00 3.529834e+00 4.132234e+00 3.227229e+00 3.341472e+00 2.518904e+00 2.444964e+00 2.348493e+00 2.271128e+00 2.725379e+00 2.190795e+00 2.913707e+00 1.850102e+00 2.666248e+00 1.124848e+00 1.908630e+00 8.577155e-01 2.107363e+00 7.697054e-01 1.922798e+00 0 0 0 0 
0 0 0 0 0 3.516249e+00 1.089280e+00 2.414400e+00 9.325349e-01 1.080376e+00 1.057762e+00 1.110508e+00 1.783090e+00 9.081702e+00 7.406941e+00 1.064971e+01 1.650765e+01 1.194259e+01 1.758935e+01 1.365275e+01 1.390691e+01 1.254931e+01 1.217982e+01 1.197986e+01 1.171457e+01 1.141513e+01 1.160935e+01 1.156781e+01 1.213947e+01 1.202157e+01 1.237598e+01 1.175484e+01 1.162487e+01 1.072660e+01 1.061756e+01 1.011436e+01 1.031818e+01 1.011535e+01 1.027812e+01 1.021812e+01 1.038677e+01 1.050013e+01 1.041775e+01 1.024720e+01 9.621730e+00 9.208309e+00 8.422385e+00 8.210854e+00 7.747928e+00 8.053758e+00 8.069299e+00 8.626244e+00 8.605151e+00 8.693723e+00 8.107454e+00 7.544584e+00 9.380396e+00 9.396410e+00 7.381579e+00 1.011021e+01 1.401456e+01 8.450273e+00 1.242628e+01 1.498715e+01 8.852260e+00 1.380557e+01 1.416183e+01 7.665676e+00 1.368998e+01 1.592785e+01 7.765344e+00 6.064500e+00 8.245671e+00 8.373639e+00 8.435659e+00 8.160890e+00 7.427974e+00 6.722873e+00 5.764577e+00 5.332566e+00 4.809084e+00 5.130712e+00 5.210853e+00 5.918785e+00 5.881781e+00 6.185173e+00 5.720189e+00 5.710822e+00 5.188330e+00 5.075031e+00 4.690172e+00 4.617403e+00 4.582752e+00 4.516327e+00 4.576795e+00 4.133331e+00 4.108613e+00 3.402102e+00 3.574470e+00 2.920837e+00 3.418502e+00 2.820833e+00 3.378576e+00 2.649640e+00 3.113965e+00 2.438825e+00 2.855100e+00 2.230079e+00 2.309110e+00 1.740999e+00 1.689968e+00 1.623322e+00 1.569837e+00 1.883500e+00 1.514079e+00 2.013255e+00 1.278381e+00 1.842131e+00 7.777504e-01 1.321911e+00 5.957383e-01 1.469308e+00 5.273584e-01 1.327935e+00 0 0 0 0 
0 0 0 0 0 1.566591e-01 4.762162e-02 1.057782e-01 4.163050e-02 4.776522e-02 4.699796e-02 4.931821e-02 7.934818e-02 1.091477e+01 1.193808e+01 1.122563e+01 1.230812e+01 1.160277e+01 1.186775e+01 1.229699e+01 1.055847e+01 5.590537e-01 5.426100e-01 5.337034e-01 5.218864e-01 5.085393e-01 5.171859e-01 5.153269e-01 5.407868e-01 5.355245e-01 5.513081e-01 5.236241e-01 5.178298e-01 4.778048e-01 4.729463e-01 4.505293e-01 4.596138e-01 4.505806e-01 4.578356e-01 4.551653e-01 4.626814e-01 4.677315e-01 4.640600e-01 4.564601e-01 4.285891e-01 4.101685e-01 3.751505e-01 3.657244e-01 3.450995e-01 3.587229e-01 3.594157e-01 3.842292e-01 3.832911e-01 3.872395e-01 3.611243e-01 3.360448e-01 1.823813e+00 7.218793e+00 5.058271e+00 4.734132e+00 8.534483e+00 3.077332e+00 5.449532e+00 8.155870e+00 2.011157e+00 6.948123e+00 4.615911e+00 1.701680e+00 5.681258e+00 1.726526e+00 1.144104e+00 9.878773e-01 2.102292e-01 3.729859e-01 3.757498e-01 3.635096e-01 3.308558e-01 2.994456e-01 2.567533e-01 2.375079e-01 2.141881e-01 2.285125e-01 2.320825e-01 2.636185e-01 2.619726e-01 2.754921e-01 2.547859e-01 2.543747e-01 2.311088e-01 2.260670e-01 2.089304e-01 2.056910e-01 2.041476e-01 2.011863e-01 2.038747e-01 1.841137e-01 1.830058e-01 1.515287e-01 1.592004e-01 1.300861e-01 1.522549e-01 1.256451e-01 1.505035e-01 1.180624e-01 1.387725e-01 1.087384e-01 1.273153e-01 9.951473e-02 1.030634e-01 7.778821e-02 7.552714e-02 7.255755e-02 7.016454e-02 8.410213e-02 6.761400e-02 8.979489e-02 5.702697e-02 8.212695e-02 3.482284e-02 5.975379e-02 2.769440e-02 6.903316e-02 2.247480e-02 5.906560e-02 0 0 0 0 
0 0 0 0 0 0 0 0 0 0 0 0 0 1.172231e+01 1.245348e+01 1.202106e+01 1.290203e+01 1.235499e+01 1.247339e+01 1.275570e+01 1.117343e+01 0 0 0 0 0 0 0 0 0 0 0 0 0 0 0 0 0 0 0 0 0 0 0 0 0 0 0 0 0 0 0 0 0 0 0 2.531257e-01 1.356454e+00 1.194438e+00 6.129374e-01 1.147090e+00 6.982716e-01 1.039800e-01 6.946349e-01 1.666618e-01 2.327921e-01 1.439836e-02 5.747136e-02 2.451921e-02 6.073905e-01 6.142861e-01 9.269412e-01 1.705512e-01 0 0 0 0 0 0 0 0 0 0 0 0 0 0 0 0 0 0 0 0 0 0 0 0 0 0 0 0 0 0 0 0 0 0 0 0 0 0 0 0 0 0 0 0 0 0 0 0 0 0 0 0 0 0 0 
0 0 0 0 0 0 0 0 0 0 0 0 0 1.223849e+01 1.274784e+01 1.228217e+01 1.260723e+01 1.246067e+01 1.241255e+01 1.271939e+01 1.223190e+01 0 0 0 0 0 0 0 0 0 0 0 0 0 0 0 0 0 0 0 0 0 0 0 0 0 0 0 0 0 0 0 0 0 0 0 8.693600e-03 7.000692e-02 5.296827e-02 6.756308e-02 1.452286e-02 1.319864e-01 1.305728e-01 2.694571e-02 3.022469e-02 2.167425e-02 1.929821e-02 4.373156e-02 1.718692e-01 1.000306e-01 1.533523e-01 1.981519e-01 2.872239e-02 0 0 0 0 0 0 0 0 0 0 0 0 0 0 0 0 0 0 0 0 0 0 0 0 0 0 0 0 0 0 0 0 0 0 0 0 0 0 0 0 0 0 0 0 0 0 0 0 0 0 0 0 0 0 0 
0 0 0 0 0 0 0 0 0 0 0 0 0 1.249695e+01 1.297347e+01 1.256471e+01 1.288312e+01 1.276891e+01 1.264396e+01 1.304590e+01 1.235256e+01 0 0 0 0 0 0 0 0 0 0 0 0 0 0 0 0 0 0 0 0 0 0 0 0 0 0 0 0 0 0 0 0 0 0 0 0 0 0 0 0 0 0 0 0 0 0 0 0 0 0 0 0 0 0 0 0 0 0 0 0 0 0 0 0 0 0 0 0 0 0 0 0 0 0 0 0 0 0 0 0 0 0 0 0 0 0 0 0 0 0 0 0 0 0 0 0 0 0 0 0 0 0 0 0 0 0 0 
0 0 0 0 0 0 0 0 0 0 0 0 0 1.223497e+01 1.274808e+01 1.227975e+01 1.260885e+01 1.246102e+01 1.241636e+01 1.272745e+01 1.223907e+01 0 0 0 0 0 0 0 0 0 0 0 0 0 0 0 0 0 0 0 0 0 0 0 0 0 0 0 0 0 0 0 0 0 0 0 0 0 0 0 0 0 0 0 0 0 0 0 0 0 0 0 0 0 0 0 0 0 0 0 0 0 0 0 0 0 0 0 0 0 0 0 0 0 0 0 0 0 0 0 0 0 0 0 0 0 0 0 0 0 0 0 0 0 0 0 0 0 0 0 0 0 0 0 0 0 0 0 
0 0 0 0 0 0 0 0 0 0 0 0 0 1.170733e+01 1.245251e+01 1.200746e+01 1.290856e+01 1.234336e+01 1.248447e+01 1.275949e+01 1.118329e+01 0 0 0 0 0 0 0 0 0 0 0 0 0 0 0 0 0 0 0 0 0 0 0 0 0 0 0 0 0 0 0 0 0 0 0 0 0 0 0 0 0 0 0 0 0 0 0 0 0 0 0 0 0 0 0 0 0 0 0 0 0 0 0 0 0 0 0 0 0 0 0 0 0 0 0 0 0 0 0 0 0 0 0 0 0 0 0 0 0 0 0 0 0 0 0 0 0 0 0 0 0 0 0 0 0 0 0 
0 0 0 0 0 1.563484e-01 4.954859e-02 1.098597e-01 3.755169e-02 4.766717e-02 4.164791e-02 4.974818e-02 7.656292e-02 1.090696e+01 1.194795e+01 1.121402e+01 1.231135e+01 1.158517e+01 1.187920e+01 1.230945e+01 1.057035e+01 5.561996e-01 5.394950e-01 5.391223e-01 5.421688e-01 5.432898e-01 5.555637e-01 5.415292e-01 5.391334e-01 4.973203e-01 4.799041e-01 4.372209e-01 4.440123e-01 4.403990e-01 4.806816e-01 4.952313e-01 5.237443e-01 5.132524e-01 4.982393e-01 4.539762e-01 4.137066e-01 3.826255e-01 3.753005e-01 3.948300e-01 4.158097e-01 4.423846e-01 4.419268e-01 4.440276e-01 4.214966e-01 4.152559e-01 3.941419e-01 3.946562e-01 3.804370e-01 3.803082e-01 3.660988e-01 3.653448e-01 3.610890e-01 3.654456e-01 3.658942e-01 3.616516e-01 3.580621e-01 3.445456e-01 3.382167e-01 3.188023e-01 3.148722e-01 3.081254e-01 3.294416e-01 3.432812e-01 3.725209e-01 3.748249e-01 3.769405e-01 3.508530e-01 3.237367e-01 2.850966e-01 2.571051e-01 2.436286e-01 2.457289e-01 2.708770e-01 2.942368e-01 3.305560e-01 3.359414e-01 3.399493e-01 2.990420e-01 2.715329e-01 2.211969e-01 2.098540e-01 1.877623e-01 2.019311e-01 2.033213e-01 2.274572e-01 2.340135e-01 2.376598e-01 2.215600e-01 1.913485e-01 1.695383e-01 1.413055e-01 1.515617e-01 1.466317e-01 1.855169e-01 1.791884e-01 2.071468e-01 1.689214e-01 1.741388e-01 1.227261e-01 1.307018e-01 9.334079e-02 1.144574e-01 9.991793e-02 1.270317e-01 1.207948e-01 1.208929e-01 1.010828e-01 7.239083e-02 6.392229e-02 3.645471e-02 5.443453e-02 2.683565e-02 6.108366e-02 2.451192e-02 6.137846e-02 2.461046e-02 6.952747e-02 2.421399e-02 5.902693e-02 0 0 0 0 
0 0 0 0 0 3.509279e+00 1.132697e+00 2.506024e+00 8.434734e-01 1.078649e+00 9.380179e-01 1.120155e+00 1.720581e+00 9.023541e+00 7.349589e+00 1.063116e+01 1.655769e+01 1.190649e+01 1.766864e+01 1.371747e+01 1.402162e+01 1.248523e+01 1.210984e+01 1.210137e+01 1.216972e+01 1.219494e+01 1.247057e+01 1.215582e+01 1.210224e+01 1.116411e+01 1.077337e+01 9.815543e+00 9.968099e+00 9.887031e+00 1.079116e+01 1.111770e+01 1.175755e+01 1.152201e+01 1.118501e+01 1.019143e+01 9.287601e+00 8.589893e+00 8.425487e+00 8.863924e+00 9.334842e+00 9.931415e+00 9.921205e+00 9.968405e+00 9.462751e+00 9.322704e+00 8.848798e+00 8.860346e+00 8.541162e+00 8.538250e+00 8.219262e+00 8.202314e+00 8.106761e+00 8.204534e+00 8.214600e+00 8.119380e+00 8.038817e+00 7.735442e+00 7.593396e+00 7.157618e+00 7.069414e+00 6.917967e+00 7.396474e+00 7.707129e+00 8.363435e+00 8.415125e+00 8.462565e+00 7.876911e+00 7.268209e+00 6.400728e+00 5.772372e+00 5.469824e+00 5.516987e+00 6.081615e+00 6.606031e+00 7.421405e+00 7.542342e+00 7.632318e+00 6.714037e+00 6.096468e+00 4.966344e+00 4.711619e+00 4.215491e+00 4.533437e+00 4.564508e+00 5.106185e+00 5.253298e+00 5.335090e+00 4.973592e+00 4.295459e+00 3.805843e+00 3.172169e+00 3.402641e+00 3.292104e+00 4.165302e+00 4.023279e+00 4.650889e+00 3.792479e+00 3.909272e+00 2.754353e+00 2.932804e+00 2.093100e+00 2.566410e+00 2.239165e+00 2.847152e+00 2.706656e+00 2.708580e+00 2.263693e+00 1.619847e+00 1.430266e+00 8.143563e-01 1.219215e+00 6.003705e-01 1.369652e+00 5.458460e-01 1.357451e+00 4.914967e-01 1.469601e+00 5.613994e-01 1.327063e+00 0 0 0 0 
0 0 0 0 0 5.079827e+00 1.644867e+00 3.637785e+00 1.221218e+00 1.563613e+00 1.358640e+00 1.622371e+00 2.491148e+00 2.900738e+00 4.015371e+00 4.058562e+00 8.720004e+00 1.001873e+01 1.276544e+01 1.675926e+01 1.700565e+01 1.807319e+01 1.752969e+01 1.751740e+01 1.761632e+01 1.765285e+01 1.805186e+01 1.759633e+01 1.751882e+01 1.616092e+01 1.559535e+01 1.420891e+01 1.442978e+01 1.431244e+01 1.562120e+01 1.609387e+01 1.702004e+01 1.667908e+01 1.619124e+01 1.475298e+01 1.344466e+01 1.243467e+01 1.219669e+01 1.283137e+01 1.351305e+01 1.437664e+01 1.436187e+01 1.443021e+01 1.369827e+01 1.349555e+01 1.280955e+01 1.282627e+01 1.236423e+01 1.236001e+01 1.189825e+01 1.187371e+01 1.173539e+01 1.187691e+01 1.189148e+01 1.175365e+01 1.163703e+01 1.119789e+01 1.099227e+01 1.036146e+01 1.023378e+01 1.001455e+01 1.070723e+01 1.115692e+01 1.210695e+01 1.218177e+01 1.225043e+01 1.140264e+01 1.052150e+01 9.265740e+00 8.356150e+00 7.918181e+00 7.986458e+00 8.803824e+00 9.562962e+00 1.074330e+01 1.091837e+01 1.104862e+01 9.719345e+00 8.825357e+00 7.189375e+00 6.820616e+00 6.102382e+00 6.562601e+00 6.607545e+00 7.391630e+00 7.604570e+00 7.722954e+00 7.199638e+00 6.218005e+00 5.509246e+00 4.591981e+00 4.925667e+00 4.765690e+00 6.029784e+00 5.824205e+00 6.732717e+00 5.490023e+00 5.659005e+00 3.986972e+00 4.245143e+00 3.029351e+00 3.714320e+00 3.240390e+00 4.120327e+00 3.916824e+00 3.919539e+00 3.275485e+00 2.343529e+00 2.069229e+00 1.177829e+00 1.764209e+00 8.685626e-01 1.982276e+00 7.890367e-01 1.959836e+00 6.974254e-01 2.104856e+00 8.177379e-01 1.921534e+00 0 0 0 0 
0 0 0 0 0 1.726896e+00 5.617183e-01 1.241621e+00 4.152965e-01 5.326304e-01 4.622697e-01 5.519642e-01 8.471298e-01 9.862994e-01 1.365098e+00 1.379816e+00 2.964607e+00 3.406150e+00 4.339914e+00 5.697588e+00 5.781298e+00 6.144159e+00 5.959338e+00 5.955149e+00 5.988772e+00 6.001199e+00 6.136861e+00 5.982033e+00 5.955706e+00 5.494134e+00 5.301889e+00 4.830592e+00 4.905689e+00 4.865803e+00 5.310717e+00 5.471397e+00 5.786236e+00 5.670318e+00 5.504475e+00 5.015523e+00 4.570762e+00 4.227406e+00 4.146504e+00 4.362276e+00 4.594016e+00 4.887606e+00 4.882596e+00 4.905832e+00 4.657015e+00 4.588104e+00 4.354899e+00 4.360582e+00 4.203508e+00 4.202070e+00 4.045087e+00 4.036742e+00 3.989714e+00 4.037825e+00 4.042778e+00 3.995922e+00 3.956278e+00 3.806991e+00 3.737092e+00 3.522645e+00 3.479242e+00 3.404713e+00 3.640196e+00 3.793072e+00 4.116039e+00 4.141470e+00 4.164806e+00 3.876586e+00 3.577032e+00 3.150109e+00 2.840882e+00 2.691986e+00 2.715200e+00 2.993086e+00 3.251168e+00 3.652447e+00 3.711972e+00 3.756253e+00 3.304350e+00 3.000422e+00 2.444228e+00 2.318852e+00 2.074653e+00 2.231096e+00 2.246358e+00 2.512902e+00 2.585286e+00 2.625524e+00 2.447606e+00 2.113895e+00 1.872941e+00 1.561117e+00 1.674588e+00 1.620218e+00 2.049999e+00 1.980114e+00 2.288974e+00 1.866465e+00 1.923872e+00 1.355345e+00 1.443041e+00 1.029592e+00 1.262368e+00 1.101143e+00 1.400207e+00 1.330963e+00 1.331852e+00 1.112874e+00 7.960732e-01 7.028859e-01 3.999275e-01 5.994280e-01 2.950278e-01 6.737076e-01 2.677026e-01 6.637635e-01 2.305827e-01 7.047933e-01 2.805479e-01 6.534982e-01 0 0 0 0 
0 0 0 0 0 0 0 0 0 0 0 0 0 0 0 0 0 0 0 0 0 0 0 0 0 0 0 0 0 0 0 0 0 0 0 0 0 0 0 0 0 0 0 0 0 0 0 0 0 0 0 0 0 0 0 0 0 0 0 0 0 0 0 0 0 0 0 0 0 0 0 0 0 0 0 0 0 0 0 0 0 0 0 0 0 0 0 0 0 0 0 0 0 0 0 0 0 0 0 0 0 0 0 0 0 0 0 0 0 0 0 0 0 0 0 0 0 0 0 0 0 0 0 0 0 0 0 0 
