# vtk DataFile Version 2.0
Comment goes here
ASCII

DATASET STRUCTURED_POINTS
FIELD FieldData 1
TIME 1 1 double
1.00000000
DIMENSIONS    128   16   1

ORIGIN    0.000   0.000   0.000
SPACING   0.0078125 0.015625   1.000

POINT_DATA   2048
SCALARS fMag double
LOOKUP_TABLE default

0 0 0 0 0 0 0 0 0 0 0 0 0 0 0 0 0 0 0 0 0 0 0 0 0 0 0 0 0 0 0 0 0 0 0 0 0 0 0 0 0 0 0 0 0 0 0 0 0 0 0 0 0 0 0 0 0 0 0 0 0 0 0 0 0 0 0 0 0 0 0 0 0 0 0 0 0 0 0 0 0 0 0 0 0 0 0 0 0 0 0 0 0 0 0 0 0 0 0 0 0 0 0 0 0 0 0 0 0 0 0 0 0 0 0 0 0 0 0 0 0 0 0 0 0 0 0 0 
0 0 0 0 0 0 0 0 0 0 0 0 0 0 0 0 0 0 0 0 0 0 0 0 0 0 0 0 0 0 0 0 0 0 0 0 0 0 0 0 0 0 0 0 0 0 0 0 0 0 0 0 0 0 0 0 0 0 0 0 0 0 0 0 0 0 0 0 0 0 0 0 0 0 0 0 0 0 0 0 0 0 0 0 0 0 0 0 0 0 0 0 0 0 0 0 0 0 0 0 0 0 0 0 0 0 0 0 0 0 0 0 0 0 0 0 0 0 0 0 0 0 0 0 0 0 0 0 
0 0 0 0 0 1.180151e+00 3.432036e+00 2.086380e+00 2.802812e+00 2.368744e+00 3.449772e+00 2.806854e+00 4.040611e+00 5.477820e+00 7.912113e+00 1.009114e+01 1.492954e+01 1.957940e+01 2.423390e+01 2.865737e+01 3.519928e+01 3.571853e+01 3.503956e+01 3.516424e+01 3.452514e+01 3.452792e+01 3.396636e+01 3.388059e+01 3.340049e+01 3.323051e+01 3.281489e+01 3.256065e+01 3.218929e+01 3.185773e+01 3.151921e+01 3.114014e+01 3.084911e+01 3.047137e+01 3.023630e+01 2.987046e+01 2.964805e+01 2.925997e+01 2.900017e+01 2.857801e+01 2.827819e+01 2.785279e+01 2.755208e+01 2.717627e+01 2.691764e+01 2.660684e+01 2.636774e+01 2.606104e+01 2.577601e+01 2.542252e+01 2.508816e+01 2.472538e+01 2.422864e+01 2.325110e+01 2.303222e+01 2.408382e+01 2.373179e+01 2.138801e+01 2.155799e+01 2.219740e+01 2.194747e+01 2.290395e+01 2.345159e+01 2.376958e+01 2.446235e+01 2.303380e+01 1.969244e+01 1.886100e+01 1.871413e+01 1.846588e+01 1.801164e+01 1.774939e+01 1.729930e+01 1.702791e+01 1.658982e+01 1.631756e+01 1.591019e+01 1.563096e+01 1.525522e+01 1.494388e+01 1.459861e+01 1.424183e+01 1.393298e+01 1.352209e+01 1.325662e+01 1.280526e+01 1.260174e+01 1.212259e+01 1.196022e+01 1.143989e+01 1.128817e+01 1.074519e+01 1.059647e+01 1.006656e+01 9.904430e+00 9.417080e+00 9.211027e+00 8.783698e+00 8.496658e+00 8.148607e+00 7.760054e+00 7.511636e+00 7.011625e+00 6.878871e+00 6.281104e+00 6.266966e+00 5.575603e+00 5.634943e+00 4.861845e+00 4.960702e+00 4.168101e+00 4.269389e+00 3.517883e+00 3.557923e+00 2.917396e+00 2.832424e+00 2.355862e+00 2.484451e+00 2.953029e+00 2.382072e-01 0 0 0 0 
0 0 0 0 0 3.472222e+00 1.009688e+01 6.140879e+00 8.247779e+00 6.969246e+00 1.015037e+01 8.261124e+00 1.189026e+01 1.611129e+01 2.326621e+01 2.967416e+01 4.390256e+01 5.757306e+01 7.125716e+01 8.425916e+01 1.034862e+02 1.050125e+02 1.030173e+02 1.033838e+02 1.015057e+02 1.015140e+02 9.986372e+01 9.961167e+01 9.820069e+01 9.770109e+01 9.647955e+01 9.573235e+01 9.464089e+01 9.366643e+01 9.267148e+01 9.155738e+01 9.070201e+01 8.959182e+01 8.890094e+01 8.782568e+01 8.717201e+01 8.603138e+01 8.526776e+01 8.402693e+01 8.314568e+01 8.189530e+01 8.101141e+01 7.990676e+01 7.914656e+01 7.823298e+01 7.753018e+01 7.662863e+01 7.579080e+01 7.475170e+01 7.376887e+01 7.270246e+01 7.171266e+01 7.075082e+01 7.009728e+01 7.027028e+01 7.024177e+01 6.716169e+01 6.678276e+01 6.645918e+01 6.498885e+01 6.505053e+01 6.420927e+01 6.317918e+01 6.323481e+01 6.246886e+01 5.785081e+01 5.657492e+01 5.510798e+01 5.430108e+01 5.296564e+01 5.219460e+01 5.087129e+01 5.007338e+01 4.878533e+01 4.798484e+01 4.678708e+01 4.596608e+01 4.486131e+01 4.394590e+01 4.293072e+01 4.188173e+01 4.097362e+01 3.976550e+01 3.898496e+01 3.765784e+01 3.705944e+01 3.565056e+01 3.517313e+01 3.364311e+01 3.319694e+01 3.160022e+01 3.116283e+01 2.960450e+01 2.912764e+01 2.769440e+01 2.708840e+01 2.583165e+01 2.498756e+01 2.396401e+01 2.282147e+01 2.209100e+01 2.062076e+01 2.023048e+01 1.847274e+01 1.843127e+01 1.639814e+01 1.657262e+01 1.429885e+01 1.458932e+01 1.225783e+01 1.255512e+01 1.034394e+01 1.046019e+01 8.573103e+00 8.315089e+00 6.892230e+00 7.271988e+00 8.675056e+00 7.007078e-01 0 0 0 0 
0 0 0 0 0 2.399041e+00 6.975788e+00 4.244034e+00 5.699260e+00 4.815201e+00 7.013380e+00 5.709183e+00 8.216250e+00 5.403103e+01 7.193370e+01 6.100682e+01 7.389013e+01 7.254235e+01 8.065541e+01 9.007575e+01 9.044208e+01 7.251789e+01 7.114050e+01 7.139356e+01 7.009708e+01 7.010284e+01 6.896355e+01 6.878954e+01 6.781541e+01 6.747049e+01 6.662713e+01 6.611125e+01 6.535769e+01 6.468493e+01 6.399799e+01 6.322882e+01 6.263826e+01 6.187178e+01 6.139479e+01 6.065241e+01 6.020110e+01 5.941358e+01 5.888635e+01 5.802963e+01 5.742118e+01 5.655786e+01 5.594757e+01 5.518486e+01 5.465997e+01 5.402917e+01 5.354391e+01 5.292142e+01 5.234291e+01 5.162543e+01 5.094681e+01 5.021046e+01 4.972769e+01 4.956947e+01 4.888435e+01 4.611026e+01 4.619156e+01 4.839244e+01 4.630089e+01 4.401870e+01 4.369878e+01 4.096343e+01 3.893735e+01 3.811317e+01 3.509498e+01 3.804752e+01 4.015714e+01 3.906498e+01 3.797358e+01 3.750389e+01 3.658168e+01 3.604922e+01 3.513538e+01 3.458436e+01 3.369484e+01 3.314203e+01 3.231486e+01 3.174788e+01 3.098491e+01 3.035274e+01 2.965164e+01 2.892721e+01 2.830006e+01 2.746574e+01 2.692669e+01 2.601017e+01 2.559691e+01 2.462391e+01 2.429418e+01 2.323748e+01 2.292932e+01 2.182652e+01 2.152440e+01 2.044807e+01 2.011867e+01 1.912871e+01 1.871013e+01 1.784208e+01 1.725909e+01 1.655212e+01 1.576304e+01 1.525854e+01 1.424314e+01 1.397364e+01 1.275965e+01 1.273106e+01 1.132680e+01 1.144730e+01 9.876707e+00 1.007721e+01 8.466571e+00 8.671622e+00 7.143811e+00 7.223377e+00 5.918315e+00 5.736167e+00 4.743041e+00 5.006124e+00 5.987361e+00 4.840670e-01 0 0 0 0 
0 0 0 0 0 1.069699e-01 3.109443e-01 1.895342e-01 2.542932e-01 2.146986e-01 3.127791e-01 2.549138e-01 3.666021e-01 6.046658e+01 6.608306e+01 6.206857e+01 6.448285e+01 6.399445e+01 6.251232e+01 6.585801e+01 6.051810e+01 3.223883e+00 3.162766e+00 3.174008e+00 3.116482e+00 3.116749e+00 3.066185e+00 3.058464e+00 3.015220e+00 2.999906e+00 2.962461e+00 2.939557e+00 2.906098e+00 2.876229e+00 2.845728e+00 2.811580e+00 2.785358e+00 2.751327e+00 2.730148e+00 2.697186e+00 2.677146e+00 2.642176e+00 2.618762e+00 2.580716e+00 2.553693e+00 2.515349e+00 2.488243e+00 2.454365e+00 2.431050e+00 2.403029e+00 2.381473e+00 2.353819e+00 2.328120e+00 2.296245e+00 2.266096e+00 2.233381e+00 2.082339e+00 1.009896e+00 9.027183e-01 8.394712e-01 2.094150e+00 1.995560e+00 3.899964e-01 1.503299e+00 2.777062e-01 2.166736e+00 2.893006e+00 1.585280e+00 4.793995e+00 2.436216e+00 1.968175e+00 3.408848e-01 1.406498e+00 1.668687e+00 1.627689e+00 1.604016e+00 1.563386e+00 1.538886e+00 1.499333e+00 1.474751e+00 1.437967e+00 1.412754e+00 1.378823e+00 1.350712e+00 1.319531e+00 1.287317e+00 1.259426e+00 1.222325e+00 1.198352e+00 1.157592e+00 1.139213e+00 1.095936e+00 1.081269e+00 1.034261e+00 1.020549e+00 9.714793e-01 9.580297e-01 9.101284e-01 8.954619e-01 8.513979e-01 8.327647e-01 7.941259e-01 7.681835e-01 7.367200e-01 7.016173e-01 6.791735e-01 6.340066e-01 6.220280e-01 5.680211e-01 5.667614e-01 5.042693e-01 5.096288e-01 4.397004e-01 4.485925e-01 3.768375e-01 3.858916e-01 3.177551e-01 3.211113e-01 2.626085e-01 2.535017e-01 2.066735e-01 2.185869e-01 2.653339e-01 2.156642e-02 0 0 0 0 
0 0 0 0 0 0 0 0 0 0 0 0 0 6.603711e+01 7.177832e+01 6.768032e+01 6.976899e+01 6.985483e+01 6.746917e+01 7.202396e+01 6.556585e+01 0 0 0 0 0 0 0 0 0 0 0 0 0 0 0 0 0 0 0 0 0 0 0 0 0 0 0 0 0 0 0 0 0 0 0 1.687792e-01 1.132560e+00 9.747510e-01 7.227450e-01 1.603841e+00 6.443411e-01 9.309965e-01 1.205169e+00 5.582198e-01 1.061649e+00 1.264188e+00 5.445233e-01 1.254145e+00 6.276009e-01 1.173996e-01 1.120477e+00 1.870272e-01 0 0 0 0 0 0 0 0 0 0 0 0 0 0 0 0 0 0 0 0 0 0 0 0 0 0 0 0 0 0 0 0 0 0 0 0 0 0 0 0 0 0 0 0 0 0 0 0 0 0 0 0 0 0 0 
0 0 0 0 0 0 0 0 0 0 0 0 0 6.539243e+01 6.778944e+01 6.571826e+01 6.673128e+01 6.652851e+01 6.585414e+01 6.753459e+01 6.546258e+01 0 0 0 0 0 0 0 0 0 0 0 0 0 0 0 0 0 0 0 0 0 0 0 0 0 0 0 0 0 0 0 0 0 0 0 6.304692e-03 4.501057e-02 2.587567e-02 3.734286e-03 5.138400e-02 3.226078e-02 5.767819e-02 6.952979e-05 3.095024e-02 9.395634e-02 2.110754e-01 2.642561e-01 2.888840e-01 2.008661e-01 8.784100e-02 8.149443e-02 1.245555e-02 0 0 0 0 0 0 0 0 0 0 0 0 0 0 0 0 0 0 0 0 0 0 0 0 0 0 0 0 0 0 0 0 0 0 0 0 0 0 0 0 0 0 0 0 0 0 0 0 0 0 0 0 0 0 0 
0 0 0 0 0 0 0 0 0 0 0 0 0 6.910248e+01 7.212648e+01 6.973119e+01 7.078628e+01 7.094260e+01 6.949996e+01 7.224827e+01 6.878351e+01 0 0 0 0 0 0 0 0 0 0 0 0 0 0 0 0 0 0 0 0 0 0 0 0 0 0 0 0 0 0 0 0 0 0 0 0 0 0 0 0 0 0 0 0 0 0 0 0 0 0 0 0 0 0 0 0 0 0 0 0 0 0 0 0 0 0 0 0 0 0 0 0 0 0 0 0 0 0 0 0 0 0 0 0 0 0 0 0 0 0 0 0 0 0 0 0 0 0 0 0 0 0 0 0 0 0 0 
0 0 0 0 0 0 0 0 0 0 0 0 0 6.539438e+01 6.779349e+01 6.571994e+01 6.673414e+01 6.653145e+01 6.585374e+01 6.754009e+01 6.545862e+01 0 0 0 0 0 0 0 0 0 0 0 0 0 0 0 0 0 0 0 0 0 0 0 0 0 0 0 0 0 0 0 0 0 0 0 0 0 0 0 0 0 0 0 0 0 0 0 0 0 0 0 0 0 0 0 0 0 0 0 0 0 0 0 0 0 0 0 0 0 0 0 0 0 0 0 0 0 0 0 0 0 0 0 0 0 0 0 0 0 0 0 0 0 0 0 0 0 0 0 0 0 0 0 0 0 0 0 
0 0 0 0 0 0 0 0 0 0 0 0 0 6.604002e+01 7.179210e+01 6.767760e+01 6.978459e+01 6.985659e+01 6.747145e+01 7.204448e+01 6.554079e+01 0 0 0 0 0 0 0 0 0 0 0 0 0 0 0 0 0 0 0 0 0 0 0 0 0 0 0 0 0 0 0 0 0 0 0 0 0 0 0 0 0 0 0 0 0 0 0 0 0 0 0 0 0 0 0 0 0 0 0 0 0 0 0 0 0 0 0 0 0 0 0 0 0 0 0 0 0 0 0 0 0 0 0 0 0 0 0 0 0 0 0 0 0 0 0 0 0 0 0 0 0 0 0 0 0 0 0 
0 0 0 0 0 1.069991e-01 3.106475e-01 1.891083e-01 2.543598e-01 2.147717e-01 3.128779e-01 2.547203e-01 3.666582e-01 6.047157e+01 6.609688e+01 6.206743e+01 6.450044e+01 6.399883e+01 6.251638e+01 6.588160e+01 6.048933e+01 3.222317e+00 3.162607e+00 3.175150e+00 3.120571e+00 3.120952e+00 3.071066e+00 3.059855e+00 3.015107e+00 2.995190e+00 2.957707e+00 2.932823e+00 2.903101e+00 2.874764e+00 2.850367e+00 2.818027e+00 2.794655e+00 2.757098e+00 2.732066e+00 2.692037e+00 2.667540e+00 2.629768e+00 2.606814e+00 2.572142e+00 2.549158e+00 2.516685e+00 2.491608e+00 2.458996e+00 2.429541e+00 2.395548e+00 2.362861e+00 2.329599e+00 2.297232e+00 2.267220e+00 2.237394e+00 2.210253e+00 2.181343e+00 2.153702e+00 2.122555e+00 2.091510e+00 2.056085e+00 2.021130e+00 1.983433e+00 1.949647e+00 1.916281e+00 1.888783e+00 1.860330e+00 1.836704e+00 1.807975e+00 1.782516e+00 1.748238e+00 1.717469e+00 1.677251e+00 1.645674e+00 1.606113e+00 1.580485e+00 1.546346e+00 1.526926e+00 1.495788e+00 1.475904e+00 1.442312e+00 1.416622e+00 1.380678e+00 1.349647e+00 1.314802e+00 1.279874e+00 1.249846e+00 1.213566e+00 1.191320e+00 1.153747e+00 1.137600e+00 1.096748e+00 1.084077e+00 1.038813e+00 1.025637e+00 9.749019e-01 9.583389e-01 9.058139e-01 8.872690e-01 8.401598e-01 8.215757e-01 7.851772e-01 7.637416e-01 7.365718e-01 7.048590e-01 6.839521e-01 6.384216e-01 6.240242e-01 5.656668e-01 5.600199e-01 4.948553e-01 5.009999e-01 4.342262e-01 4.472941e-01 3.788342e-01 3.899749e-01 3.224384e-01 3.249967e-01 2.647491e-01 2.537929e-01 2.058741e-01 2.182032e-01 2.652734e-01 2.156198e-02 0 0 0 0 
0 0 0 0 0 2.399693e+00 6.969152e+00 4.234381e+00 5.700706e+00 4.816863e+00 7.015652e+00 5.704898e+00 8.217605e+00 5.405142e+01 7.194705e+01 6.096141e+01 7.396798e+01 7.249044e+01 8.070802e+01 9.015435e+01 9.036538e+01 7.248240e+01 7.113674e+01 7.141913e+01 7.018911e+01 7.019747e+01 6.907347e+01 6.882088e+01 6.781289e+01 6.736424e+01 6.652002e+01 6.595952e+01 6.529013e+01 6.465184e+01 6.410233e+01 6.337390e+01 6.284751e+01 6.200161e+01 6.143784e+01 6.053637e+01 5.998471e+01 5.913414e+01 5.861726e+01 5.783659e+01 5.731907e+01 5.658797e+01 5.602337e+01 5.528918e+01 5.462604e+01 5.386082e+01 5.312496e+01 5.237623e+01 5.164763e+01 5.097210e+01 5.030073e+01 4.968986e+01 4.903915e+01 4.841705e+01 4.771604e+01 4.701737e+01 4.622013e+01 4.543355e+01 4.458525e+01 4.382501e+01 4.307421e+01 4.245550e+01 4.181530e+01 4.128373e+01 4.063738e+01 4.006460e+01 3.929345e+01 3.860127e+01 3.769655e+01 3.698623e+01 3.609640e+01 3.551995e+01 3.475213e+01 3.431537e+01 3.361511e+01 3.316796e+01 3.241256e+01 3.183483e+01 3.102660e+01 3.032876e+01 2.954529e+01 2.875983e+01 2.808465e+01 2.726881e+01 2.676857e+01 2.592371e+01 2.556064e+01 2.464216e+01 2.435730e+01 2.333979e+01 2.304369e+01 2.190344e+01 2.153133e+01 2.035109e+01 1.993451e+01 1.887614e+01 1.845867e+01 1.764098e+01 1.715929e+01 1.654881e+01 1.583592e+01 1.536595e+01 1.434236e+01 1.401852e+01 1.270677e+01 1.257960e+01 1.111531e+01 1.125343e+01 9.753720e+00 1.004804e+01 8.511420e+00 8.763364e+00 7.249022e+00 7.310665e+00 5.966411e+00 5.742674e+00 4.725045e+00 4.997199e+00 5.985928e+00 4.839675e-01 0 0 0 0 
0 0 0 0 0 3.473164e+00 1.008728e+01 6.126884e+00 8.249860e+00 6.971658e+00 1.015368e+01 8.254936e+00 1.189224e+01 1.613577e+01 2.327526e+01 2.966148e+01 4.389979e+01 5.761290e+01 7.122674e+01 8.432746e+01 1.034492e+02 1.049611e+02 1.030118e+02 1.034208e+02 1.016390e+02 1.016511e+02 1.000229e+02 9.965706e+01 9.819703e+01 9.754720e+01 9.632441e+01 9.551256e+01 9.454300e+01 9.361848e+01 9.282257e+01 9.176749e+01 9.100505e+01 8.977983e+01 8.896328e+01 8.765758e+01 8.685858e+01 8.562664e+01 8.487800e+01 8.374732e+01 8.299778e+01 8.193892e+01 8.112120e+01 8.005786e+01 7.909742e+01 7.798917e+01 7.692343e+01 7.583907e+01 7.478384e+01 7.380550e+01 7.283319e+01 7.194849e+01 7.100611e+01 7.010515e+01 6.908993e+01 6.807811e+01 6.692354e+01 6.578441e+01 6.455591e+01 6.345494e+01 6.236765e+01 6.147166e+01 6.054455e+01 5.977476e+01 5.883875e+01 5.800929e+01 5.689256e+01 5.589020e+01 5.458007e+01 5.355146e+01 5.226291e+01 5.142817e+01 5.031632e+01 4.968386e+01 4.866988e+01 4.802238e+01 4.692856e+01 4.609198e+01 4.492167e+01 4.391118e+01 4.277672e+01 4.163935e+01 4.066170e+01 3.948035e+01 3.875601e+01 3.753265e+01 3.700692e+01 3.567699e+01 3.526452e+01 3.379125e+01 3.336254e+01 3.171160e+01 3.117287e+01 2.946409e+01 2.886099e+01 2.732869e+01 2.672431e+01 2.554048e+01 2.484307e+01 2.395921e+01 2.292700e+01 2.224652e+01 2.076442e+01 2.029547e+01 1.839617e+01 1.821198e+01 1.609194e+01 1.629194e+01 1.412079e+01 1.454709e+01 1.232276e+01 1.268794e+01 1.049626e+01 1.058656e+01 8.642736e+00 8.324503e+00 6.866166e+00 7.258990e+00 8.672963e+00 7.005638e-01 0 0 0 0 
0 0 0 0 0 1.180471e+00 3.428776e+00 2.081611e+00 2.803514e+00 2.369566e+00 3.450902e+00 2.804758e+00 4.041298e+00 5.486149e+00 7.915186e+00 1.008682e+01 1.492859e+01 1.959295e+01 2.422357e+01 2.868062e+01 3.518668e+01 3.570100e+01 3.503766e+01 3.517680e+01 3.457048e+01 3.457455e+01 3.402054e+01 3.389603e+01 3.339925e+01 3.317814e+01 3.276209e+01 3.248586e+01 3.215598e+01 3.184141e+01 3.157060e+01 3.121161e+01 3.095220e+01 3.053532e+01 3.025750e+01 2.981325e+01 2.954140e+01 2.912226e+01 2.886756e+01 2.848288e+01 2.822787e+01 2.786763e+01 2.758943e+01 2.722768e+01 2.690093e+01 2.652390e+01 2.616133e+01 2.579243e+01 2.543345e+01 2.510062e+01 2.476985e+01 2.446888e+01 2.414830e+01 2.384181e+01 2.349645e+01 2.315225e+01 2.275949e+01 2.237199e+01 2.195409e+01 2.157958e+01 2.120972e+01 2.090494e+01 2.058958e+01 2.032773e+01 2.000934e+01 1.972720e+01 1.934735e+01 1.900640e+01 1.856077e+01 1.821090e+01 1.777262e+01 1.748871e+01 1.711054e+01 1.689543e+01 1.655055e+01 1.633033e+01 1.595831e+01 1.567378e+01 1.527574e+01 1.493207e+01 1.454623e+01 1.415940e+01 1.382690e+01 1.342511e+01 1.317876e+01 1.276268e+01 1.258388e+01 1.213158e+01 1.199130e+01 1.149027e+01 1.134448e+01 1.078306e+01 1.059988e+01 1.001881e+01 9.813750e+00 9.292719e+00 9.087216e+00 8.684681e+00 8.447527e+00 8.146978e+00 7.795942e+00 7.564524e+00 7.060481e+00 6.900973e+00 6.255068e+00 6.192402e+00 5.471485e+00 5.539502e+00 4.801299e+00 4.946345e+00 4.190177e+00 4.314553e+00 3.569676e+00 3.600894e+00 2.941074e+00 2.835621e+00 2.346995e+00 2.479994e+00 2.952308e+00 2.381583e-01 0 0 0 0 
0 0 0 0 0 0 0 0 0 0 0 0 0 0 0 0 0 0 0 0 0 0 0 0 0 0 0 0 0 0 0 0 0 0 0 0 0 0 0 0 0 0 0 0 0 0 0 0 0 0 0 0 0 0 0 0 0 0 0 0 0 0 0 0 0 0 0 0 0 0 0 0 0 0 0 0 0 0 0 0 0 0 0 0 0 0 0 0 0 0 0 0 0 0 0 0 0 0 0 0 0 0 0 0 0 0 0 0 0 0 0 0 0 0 0 0 0 0 0 0 0 0 0 0 0 0 0 0 
