# vtk DataFile Version 2.0
Comment goes here
ASCII

DATASET STRUCTURED_POINTS
FIELD FieldData 1
TIME 1 1 double
0.06000000
DIMENSIONS    128   16   1

ORIGIN    0.000   0.000   0.000
SPACING   0.0078125 0.015625   1.000

POINT_DATA   2048
SCALARS fX double
LOOKUP_TABLE default

0 0 0 0 0 0 0 0 0 0 0 0 0 0 0 0 0 0 0 0 0 0 0 0 0 0 0 0 0 0 0 0 0 0 0 0 0 0 0 0 0 0 0 0 0 0 0 0 0 0 0 0 0 0 0 0 0 0 0 0 0 0 0 0 0 0 0 0 0 0 0 0 0 0 0 0 0 0 0 0 0 0 0 0 0 0 0 0 0 0 0 0 0 0 0 0 0 0 0 0 0 0 0 0 0 0 0 0 0 0 0 0 0 0 0 0 0 0 0 0 0 0 0 0 0 0 0 0 
0 0 0 0 0 0 0 0 0 0 0 0 0 0 0 0 0 0 0 0 0 0 0 0 0 0 0 0 0 0 0 0 0 0 0 0 0 0 0 0 0 0 0 0 0 0 0 0 0 0 0 0 0 0 0 0 0 0 0 0 0 0 0 0 0 0 0 0 0 0 0 0 0 0 0 0 0 0 0 0 0 0 0 0 0 0 0 0 0 0 0 0 0 0 0 0 0 0 0 0 0 0 0 0 0 0 0 0 0 0 0 0 0 0 0 0 0 0 0 0 0 0 0 0 0 0 0 0 
0 0 0 0 0 1.010920e+00 1.487580e+00 -1.992612e-01 1.372161e+00 1.775970e+00 1.383263e-01 -3.013903e-01 -4.030611e-01 -2.123921e+00 -3.619980e+00 -6.331714e+00 -9.756276e+00 -9.889090e+00 -8.109807e+00 -5.872491e+00 -5.046658e+00 -5.181882e+00 -2.734599e+00 5.611374e+00 5.851563e+00 -1.474619e+00 -5.443589e-01 2.052392e+00 -5.640060e+00 -7.393076e+00 1.607669e+00 1.057770e+00 -8.879436e-01 7.891454e+00 5.730633e+00 -3.981977e+00 5.772761e-01 -9.624763e-01 -1.043977e+01 -5.007972e+00 3.005393e-01 -8.348232e-01 5.180053e+00 7.704022e+00 5.284759e+00 5.753613e+00 1.649777e+00 -2.431308e+00 -1.890883e+00 4.040680e-01 4.629642e+00 7.225406e+00 7.649259e+00 5.150393e+00 7.355617e-01 -2.780765e+00 -4.501780e+00 -3.229466e-01 1.171210e+00 -3.105134e-01 7.455016e+00 5.989944e+00 -2.469209e+00 7.356044e-01 -2.656886e+00 -5.552136e+00 1.291063e+00 -1.309805e-01 1.502522e+00 8.358001e+00 2.154515e+00 -4.441937e+00 -2.001380e+00 1.634554e+00 4.228986e+00 4.234588e+00 1.942036e+00 1.103250e-01 -8.394695e-01 -6.405852e-01 1.258753e+00 9.273351e-01 2.544222e-01 -7.105538e-01 -1.737172e+00 2.033850e+00 3.174657e+00 2.290103e+00 5.231255e+00 1.191461e+00 -2.730164e+00 3.736325e+00 4.120147e-02 -5.142149e+00 2.605497e+00 -2.511342e+00 -9.057440e+00 2.733258e+00 7.499792e+00 3.683572e-01 1.331705e+00 3.126010e+00 -1.883261e+00 -1.696980e+00 3.725424e+00 4.073534e+00 -3.362564e-01 -3.551851e+00 -5.256640e+00 -3.491737e+00 2.964415e+00 7.438051e+00 3.026297e+00 -3.329833e+00 -3.363204e+00 1.013844e+00 1.245096e+00 -2.114441e+00 -3.584929e+00 -1.838915e-01 2.809687e+00 3.963934e+00 3.389432e+00 3.087754e-01 0 0 0 0 
0 0 0 0 0 2.972353e+00 4.367189e+00 -5.969035e-01 4.031729e+00 5.223039e+00 4.063888e-01 -8.873700e-01 -1.186912e+00 -6.248994e+00 -1.064924e+01 -1.862674e+01 -2.870092e+01 -2.909349e+01 -2.386021e+01 -1.727806e+01 -1.484872e+01 -1.524663e+01 -8.045875e+00 1.651022e+01 1.721672e+01 -4.339230e+00 -1.601319e+00 6.039831e+00 -1.659444e+01 -2.175329e+01 4.728612e+00 3.111447e+00 -2.612331e+00 2.321808e+01 1.686038e+01 -1.171640e+01 1.697855e+00 -2.832893e+00 -3.071774e+01 -1.473506e+01 8.851216e-01 -2.455155e+00 1.524170e+01 2.266777e+01 1.554810e+01 1.692533e+01 4.851568e+00 -7.154417e+00 -5.563864e+00 1.188184e+00 1.362026e+01 2.125828e+01 2.250583e+01 1.515310e+01 2.164065e+00 -8.181471e+00 -1.333199e+01 -7.599854e-01 5.966183e+00 3.124876e+00 2.440544e+01 2.001438e+01 -3.407261e+00 5.000574e+00 -5.372160e+00 -1.259723e+01 6.500582e+00 3.446578e+00 1.024935e+01 2.804925e+01 7.590357e+00 -1.253085e+01 -5.855504e+00 4.807785e+00 1.244001e+01 1.245702e+01 5.713015e+00 3.245926e-01 -2.469228e+00 -1.884008e+00 3.703410e+00 2.728305e+00 7.486058e-01 -2.090130e+00 -5.110325e+00 5.982489e+00 9.338411e+00 6.736566e+00 1.538850e+01 3.505230e+00 -8.030524e+00 1.099201e+01 1.216281e-01 -1.512665e+01 7.664935e+00 -7.386617e+00 -2.664354e+01 8.039318e+00 2.206071e+01 1.083823e+00 3.917162e+00 9.194755e+00 -5.539828e+00 -4.991704e+00 1.095840e+01 1.198235e+01 -9.888069e-01 -1.044706e+01 -1.546132e+01 -1.027005e+01 8.721362e+00 2.188227e+01 8.904315e+00 -9.793956e+00 -9.892059e+00 2.983070e+00 3.663658e+00 -6.218086e+00 -1.054304e+01 -5.379562e-01 8.266563e+00 1.166076e+01 9.970671e+00 9.083829e-01 0 0 0 0 
0 0 0 0 0 2.052719e+00 3.012771e+00 -4.175699e-01 2.782991e+00 3.607661e+00 2.804966e-01 -6.134074e-01 -8.205653e-01 -4.688071e+01 -6.347439e+01 -5.272295e+01 -6.116680e+01 -6.121541e+01 -4.887595e+01 -6.218450e+01 -5.001089e+01 -1.053454e+01 -5.559175e+00 1.140756e+01 1.189561e+01 -2.998382e+00 -1.106251e+00 4.173700e+00 -1.146566e+01 -1.503059e+01 3.266409e+00 2.149429e+00 -1.804843e+00 1.604191e+01 1.164914e+01 -8.095478e+00 1.172798e+00 -1.957852e+00 -2.122460e+01 -1.018113e+01 6.119779e-01 -1.695817e+00 1.053135e+01 1.566224e+01 1.074225e+01 1.169272e+01 3.350910e+00 -4.943671e+00 -3.844468e+00 8.206251e-01 9.410077e+00 1.468776e+01 1.554995e+01 1.046949e+01 1.495159e+00 -5.652748e+00 -9.226697e+00 -2.074851e-01 5.751255e+00 4.676393e+00 1.857758e+01 1.534979e+01 2.096713e-01 5.431383e+00 -2.166930e+00 -6.243974e+00 6.208301e+00 4.688160e+00 1.082177e+01 2.159671e+01 5.986445e+00 -8.310862e+00 -4.019660e+00 3.321148e+00 8.593916e+00 8.605924e+00 3.946863e+00 2.242668e-01 -1.705736e+00 -1.301361e+00 2.558739e+00 1.885009e+00 5.172531e-01 -1.443902e+00 -3.530479e+00 4.132731e+00 6.451154e+00 4.653805e+00 1.063092e+01 2.421716e+00 -5.547452e+00 7.594183e+00 8.423230e-02 -1.045015e+01 5.295442e+00 -5.102517e+00 -1.840618e+01 5.553377e+00 1.523982e+01 7.488624e-01 2.705995e+00 6.351642e+00 -3.827079e+00 -3.448342e+00 7.570219e+00 8.277569e+00 -6.829376e-01 -7.216597e+00 -1.068032e+01 -7.094233e+00 6.025557e+00 1.511809e+01 6.152392e+00 -6.765411e+00 -6.833153e+00 2.061149e+00 2.531481e+00 -4.294776e+00 -7.282263e+00 -3.701914e-01 5.711539e+00 8.055788e+00 6.888168e+00 6.275791e-01 0 0 0 0 
0 0 0 0 0 9.128659e-02 1.331613e-01 -1.992766e-02 1.234227e-01 1.605909e-01 1.243406e-02 -2.742770e-02 -3.671468e-02 -5.345088e+01 -5.833151e+01 -5.637807e+01 -5.900094e+01 -5.958767e+01 -5.618431e+01 -5.926906e+01 -5.419017e+01 -4.697908e-01 -2.478981e-01 5.087113e-01 5.304502e-01 -1.337710e-01 -4.929105e-02 1.862615e-01 -5.112802e-01 -6.703763e-01 1.454664e-01 9.575274e-02 -8.045534e-02 7.152822e-01 5.193936e-01 -3.610513e-01 5.221978e-02 -8.743457e-02 -9.466227e-01 -4.540457e-01 2.739552e-02 -7.548503e-02 4.697045e-01 6.984942e-01 4.789040e-01 5.210094e-01 1.491193e-01 -2.205619e-01 -1.714858e-01 3.650942e-02 4.194589e-01 6.548828e-01 6.933870e-01 4.667823e-01 6.665551e-02 -2.520418e-01 -3.761010e-01 3.508619e-01 1.053150e+00 1.305348e+00 1.775642e+00 1.396655e+00 1.197501e+00 1.173413e+00 5.068735e-01 8.110425e-01 1.002956e+00 1.111821e+00 2.095754e+00 1.880115e+00 5.191924e-01 -1.986522e-01 -1.601352e-01 1.479162e-01 3.828899e-01 3.834900e-01 1.758849e-01 9.999251e-03 -7.597690e-02 -5.793824e-02 1.140815e-01 8.403927e-02 2.306958e-02 -6.432613e-02 -1.573261e-01 1.840916e-01 2.873997e-01 2.073419e-01 4.736717e-01 1.079477e-01 -2.470920e-01 3.384975e-01 3.805722e-03 -4.656502e-01 2.360035e-01 -2.272415e-01 -8.200762e-01 2.473180e-01 6.788997e-01 3.339664e-02 1.205383e-01 2.828977e-01 -1.705118e-01 -1.536183e-01 3.372401e-01 3.687489e-01 -3.038708e-02 -3.213912e-01 -4.756438e-01 -3.159180e-01 2.686103e-01 6.738669e-01 2.743745e-01 -3.012877e-01 -3.042985e-01 9.192265e-02 1.129188e-01 -1.911304e-01 -3.241541e-01 -1.612663e-02 2.546630e-01 3.589664e-01 3.069290e-01 2.797162e-02 0 0 0 0 
0 0 0 0 0 0 0 0 0 0 0 0 0 -5.886766e+01 -6.411855e+01 -6.052034e+01 -6.249547e+01 -6.281024e+01 -6.007991e+01 -6.445666e+01 -5.932206e+01 0 0 0 0 0 0 0 0 0 0 0 0 0 0 0 0 0 0 0 0 0 0 0 0 0 0 0 0 0 0 0 0 0 0 0 2.055420e-02 1.234061e-01 1.042727e-01 7.927134e-02 1.648298e-01 7.722860e-02 5.067240e-02 7.077228e-03 -3.911684e-02 1.993930e-02 2.176656e-02 2.456535e-02 4.322308e-02 -1.296379e-02 -3.025782e-02 2.284158e-02 5.421598e-03 0 0 0 0 0 0 0 0 0 0 0 0 0 0 0 0 0 0 0 0 0 0 0 0 0 0 0 0 0 0 0 0 0 0 0 0 0 0 0 0 0 0 0 0 0 0 0 0 0 0 0 0 0 0 0 
0 0 0 0 0 0 0 0 0 0 0 0 0 -5.838016e+01 -6.014020e+01 -5.894430e+01 -5.951366e+01 -5.980817e+01 -5.876580e+01 -6.042834e+01 -5.840498e+01 0 0 0 0 0 0 0 0 0 0 0 0 0 0 0 0 0 0 0 0 0 0 0 0 0 0 0 0 0 0 0 0 0 0 0 1.676818e-04 2.097854e-03 7.404553e-03 1.492607e-02 1.634454e-02 5.933989e-03 8.947213e-04 7.826146e-05 2.353827e-03 1.001762e-02 1.759289e-02 2.334603e-02 2.240537e-02 1.239051e-02 1.152956e-03 -4.530358e-04 2.075194e-05 0 0 0 0 0 0 0 0 0 0 0 0 0 0 0 0 0 0 0 0 0 0 0 0 0 0 0 0 0 0 0 0 0 0 0 0 0 0 0 0 0 0 0 0 0 0 0 0 0 0 0 0 0 0 0 
0 0 0 0 0 0 0 0 0 0 0 0 0 -6.140606e+01 -6.405915e+01 -6.201986e+01 -6.290652e+01 -6.319522e+01 -6.195101e+01 -6.441532e+01 -6.168198e+01 0 0 0 0 0 0 0 0 0 0 0 0 0 0 0 0 0 0 0 0 0 0 0 0 0 0 0 0 0 0 0 0 0 0 0 0 0 0 0 0 0 0 0 0 0 0 0 0 0 0 0 0 0 0 0 0 0 0 0 0 0 0 0 0 0 0 0 0 0 0 0 0 0 0 0 0 0 0 0 0 0 0 0 0 0 0 0 0 0 0 0 0 0 0 0 0 0 0 0 0 0 0 0 0 0 0 0 
0 0 0 0 0 0 0 0 0 0 0 0 0 -5.850225e+01 -5.997549e+01 -5.877458e+01 -5.897431e+01 -5.948184e+01 -5.830029e+01 -6.051280e+01 -5.839859e+01 0 0 0 0 0 0 0 0 0 0 0 0 0 0 0 0 0 0 0 0 0 0 0 0 0 0 0 0 0 0 0 0 0 0 0 0 0 0 0 0 0 0 0 0 0 0 0 0 0 0 0 0 0 0 0 0 0 0 0 0 0 0 0 0 0 0 0 0 0 0 0 0 0 0 0 0 0 0 0 0 0 0 0 0 0 0 0 0 0 0 0 0 0 0 0 0 0 0 0 0 0 0 0 0 0 0 0 
0 0 0 0 0 0 0 0 0 0 0 0 0 -5.859595e+01 -6.374848e+01 -5.977885e+01 -6.103427e+01 -6.190652e+01 -5.958244e+01 -6.481702e+01 -5.983583e+01 0 0 0 0 0 0 0 0 0 0 0 0 0 0 0 0 0 0 0 0 0 0 0 0 0 0 0 0 0 0 0 0 0 0 0 0 0 0 0 0 0 0 0 0 0 0 0 0 0 0 0 0 0 0 0 0 0 0 0 0 0 0 0 0 0 0 0 0 0 0 0 0 0 0 0 0 0 0 0 0 0 0 0 0 0 0 0 0 0 0 0 0 0 0 0 0 0 0 0 0 0 0 0 0 0 0 0 
0 0 0 0 0 1.096235e-01 2.589052e-01 1.464906e-01 1.348105e-01 4.335076e-02 -6.653186e-02 -1.295495e-01 -2.885065e-01 -5.484394e+01 -5.863732e+01 -5.538146e+01 -5.565031e+01 -5.638925e+01 -5.327267e+01 -5.981686e+01 -5.527993e+01 3.021225e-01 1.331484e-01 -1.813273e-01 -4.428189e-01 -5.102419e-01 -3.833568e-01 -1.669696e-01 9.671816e-02 3.139527e-01 3.151582e-01 9.059242e-02 -1.623270e-01 -4.528184e-01 -6.967596e-01 -6.516058e-01 -3.882132e-01 -6.925551e-02 2.948007e-01 5.426859e-01 5.512120e-01 4.278087e-01 2.374776e-01 8.697989e-03 -4.703725e-02 9.179615e-02 3.155795e-01 5.503217e-01 6.701643e-01 6.351961e-01 4.477855e-01 1.750209e-01 -6.963822e-02 -2.284495e-01 -2.424526e-01 -1.583580e-01 -4.539995e-02 2.432843e-03 -9.282722e-02 -2.993204e-01 -4.908763e-01 -5.385342e-01 -4.137298e-01 -1.504677e-01 1.437411e-01 3.700557e-01 4.451193e-01 3.818976e-01 2.947148e-01 3.045109e-01 4.167955e-01 5.368724e-01 5.641878e-01 4.615813e-01 2.827380e-01 1.055686e-01 -2.853885e-02 -1.183984e-01 -1.427720e-01 -1.028978e-01 1.752542e-02 1.531561e-01 2.294068e-01 2.488756e-01 1.976994e-01 8.610781e-02 -2.688927e-02 -1.309337e-01 -1.016802e-01 6.725149e-02 1.692851e-01 2.313712e-01 2.706498e-01 1.873964e-01 2.108594e-01 4.144605e-01 5.359177e-01 6.007256e-01 6.144242e-01 4.428573e-01 2.284475e-01 1.283105e-01 1.179170e-01 1.021558e-01 5.995818e-02 2.055978e-02 -1.562433e-02 6.221466e-03 4.566277e-02 -1.544006e-02 -1.794718e-01 -2.994335e-01 -3.568768e-01 -2.824485e-01 -1.423815e-01 7.899050e-02 2.337828e-01 2.962124e-01 1.965581e-01 1.299400e-01 5.720904e-02 1.311439e-01 2.219417e-01 2.239210e-02 0 0 0 0 
0 0 0 0 0 2.465293e+00 5.838672e+00 3.320821e+00 3.039387e+00 9.759018e-01 -1.491994e+00 -2.905739e+00 -6.475468e+00 -4.679256e+01 -6.486750e+01 -5.118189e+01 -5.158906e+01 -5.518531e+01 -4.832109e+01 -6.652279e+01 -5.358250e+01 6.772804e+00 2.985650e+00 -4.065961e+00 -9.929302e+00 -1.144098e+01 -8.596100e+00 -3.743682e+00 2.169302e+00 7.041064e+00 7.068379e+00 2.031938e+00 -3.640585e+00 -1.015460e+01 -1.562556e+01 -1.461302e+01 -8.705265e+00 -1.553009e+00 6.611150e+00 1.217121e+01 1.236284e+01 9.594388e+00 5.325279e+00 1.949864e-01 -1.054739e+00 2.059226e+00 7.079165e+00 1.234488e+01 1.503243e+01 1.424806e+01 1.004501e+01 3.926511e+00 -1.561908e+00 -5.124324e+00 -5.438446e+00 -3.552419e+00 -1.018530e+00 5.462905e-02 -2.082702e+00 -6.715415e+00 -1.101232e+01 -1.208095e+01 -9.281480e+00 -3.375837e+00 3.223761e+00 8.299491e+00 9.983738e+00 8.567208e+00 6.612708e+00 6.834125e+00 9.355312e+00 1.205099e+01 1.266401e+01 1.036050e+01 6.346016e+00 2.369408e+00 -6.405169e-01 -2.657199e+00 -3.204069e+00 -2.309011e+00 3.933560e-01 3.436927e+00 5.148234e+00 5.584886e+00 4.436012e+00 1.931994e+00 -6.033579e-01 -2.938115e+00 -2.281616e+00 1.509579e+00 3.799406e+00 5.192416e+00 6.073635e+00 4.205450e+00 4.732692e+00 9.302651e+00 1.202797e+01 1.348274e+01 1.379092e+01 9.940218e+00 5.127898e+00 2.880076e+00 2.646789e+00 2.293035e+00 1.345890e+00 4.614581e-01 -3.508030e-01 1.397427e-01 1.025415e+00 -3.466293e-01 -4.029955e+00 -6.723015e+00 -8.013162e+00 -6.342486e+00 -3.197909e+00 1.770818e+00 5.246384e+00 6.647902e+00 4.408725e+00 2.912691e+00 1.280310e+00 2.941201e+00 4.981487e+00 5.024708e-01 0 0 0 0 
0 0 0 0 0 3.569824e+00 8.458700e+00 4.815358e+00 4.403074e+00 1.413391e+00 -2.159385e+00 -4.205661e+00 -9.373474e+00 -1.814915e+01 -2.053325e+01 -1.459456e+01 -1.185821e+01 -7.645522e+00 -1.746782e+00 -2.304685e+00 4.253313e-01 9.801778e+00 4.321116e+00 -5.884637e+00 -1.437057e+01 -1.655837e+01 -1.244107e+01 -5.418121e+00 3.139758e+00 1.019079e+01 1.023039e+01 2.940950e+00 -5.269164e+00 -1.469691e+01 -2.261525e+01 -2.114978e+01 -1.259913e+01 -2.247677e+00 9.568459e+00 1.761591e+01 1.789338e+01 1.388627e+01 7.707300e+00 2.821894e-01 -1.526518e+00 2.980520e+00 1.024634e+01 1.786789e+01 2.175763e+01 2.062234e+01 1.453913e+01 5.683309e+00 -2.260636e+00 -7.416838e+00 -7.871495e+00 -5.141774e+00 -1.474242e+00 7.908372e-02 -3.014587e+00 -9.720103e+00 -1.593938e+01 -1.748600e+01 -1.343411e+01 -4.886295e+00 4.665881e+00 1.201220e+01 1.445008e+01 1.240023e+01 9.571599e+00 9.892501e+00 1.354226e+01 1.744449e+01 1.833186e+01 1.499730e+01 9.186093e+00 3.429789e+00 -9.271633e-01 -3.846334e+00 -4.637899e+00 -3.342248e+00 5.693974e-01 4.974915e+00 7.452062e+00 8.084050e+00 6.420954e+00 2.796459e+00 -8.733402e-01 -4.252859e+00 -3.302576e+00 2.185204e+00 5.499735e+00 7.516041e+00 8.791541e+00 6.087382e+00 6.850742e+00 1.346597e+01 1.741077e+01 1.951664e+01 1.996293e+01 1.438892e+01 7.422929e+00 4.169058e+00 3.831365e+00 3.319294e+00 1.948260e+00 6.679768e-01 -5.078300e-01 2.023087e-01 1.484458e+00 -5.017789e-01 -5.833950e+00 -9.732390e+00 -1.160014e+01 -9.181736e+00 -4.629644e+00 2.562787e+00 7.594122e+00 9.622946e+00 6.381031e+00 4.215263e+00 1.852347e+00 4.256911e+00 7.210896e+00 7.273153e-01 0 0 0 0 
0 0 0 0 0 1.214155e+00 2.878933e+00 1.641027e+00 1.498498e+00 4.808396e-01 -7.339229e-01 -1.429471e+00 -3.186512e+00 -6.169926e+00 -6.980409e+00 -4.961307e+00 -4.030963e+00 -2.598783e+00 -5.936245e-01 -7.832683e-01 1.442372e-01 3.331096e+00 1.468614e+00 -2.000003e+00 -4.884083e+00 -5.627628e+00 -4.228324e+00 -1.841408e+00 1.067174e+00 3.463676e+00 3.477172e+00 9.996050e-01 -1.790906e+00 -4.995130e+00 -7.686448e+00 -7.188375e+00 -4.282077e+00 -7.639237e-01 3.252110e+00 5.987388e+00 6.081747e+00 4.719691e+00 2.619499e+00 9.590098e-02 -5.188166e-01 1.013090e+00 3.482758e+00 6.073332e+00 7.395363e+00 7.009484e+00 4.941909e+00 1.931820e+00 -7.683670e-01 -2.520963e+00 -2.675502e+00 -1.747713e+00 -5.011115e-01 2.688751e-02 -1.024712e+00 -3.304008e+00 -5.417940e+00 -5.943585e+00 -4.566359e+00 -1.660926e+00 1.585861e+00 4.082769e+00 4.911457e+00 4.214914e+00 3.253606e+00 3.362887e+00 4.603743e+00 5.930376e+00 6.232029e+00 5.098382e+00 3.122814e+00 1.165950e+00 -3.151853e-01 -1.307533e+00 -1.576602e+00 -1.136135e+00 1.935668e-01 1.691145e+00 2.533236e+00 2.748040e+00 2.182642e+00 9.505729e-01 -2.968715e-01 -1.445678e+00 -1.122640e+00 7.428763e-01 1.869615e+00 2.554996e+00 2.988556e+00 2.069329e+00 2.328909e+00 4.577776e+00 5.918719e+00 6.634629e+00 6.786435e+00 4.891560e+00 2.523479e+00 1.417292e+00 1.302493e+00 1.128415e+00 6.623284e-01 2.270784e-01 -1.726513e-01 6.878755e-02 5.047060e-01 -1.705896e-01 -1.983466e+00 -3.308808e+00 -3.943853e+00 -3.121699e+00 -1.574116e+00 8.709600e-01 2.581520e+00 3.271256e+00 2.168864e+00 1.432512e+00 6.292455e-01 1.446854e+00 2.451350e+00 2.472366e-01 0 0 0 0 
0 0 0 0 0 0 0 0 0 0 0 0 0 0 0 0 0 0 0 0 0 0 0 0 0 0 0 0 0 0 0 0 0 0 0 0 0 0 0 0 0 0 0 0 0 0 0 0 0 0 0 0 0 0 0 0 0 0 0 0 0 0 0 0 0 0 0 0 0 0 0 0 0 0 0 0 0 0 0 0 0 0 0 0 0 0 0 0 0 0 0 0 0 0 0 0 0 0 0 0 0 0 0 0 0 0 0 0 0 0 0 0 0 0 0 0 0 0 0 0 0 0 0 0 0 0 0 0 
