# vtk DataFile Version 2.0
Comment goes here
ASCII

DATASET STRUCTURED_POINTS
FIELD FieldData 1
TIME 1 1 double
0.26000000
DIMENSIONS    128   16   1

ORIGIN    0.000   0.000   0.000
SPACING   0.0078125 0.015625   1.000

POINT_DATA   2048
SCALARS fX double
LOOKUP_TABLE default

0 0 0 0 0 0 0 0 0 0 0 0 0 0 0 0 0 0 0 0 0 0 0 0 0 0 0 0 0 0 0 0 0 0 0 0 0 0 0 0 0 0 0 0 0 0 0 0 0 0 0 0 0 0 0 0 0 0 0 0 0 0 0 0 0 0 0 0 0 0 0 0 0 0 0 0 0 0 0 0 0 0 0 0 0 0 0 0 0 0 0 0 0 0 0 0 0 0 0 0 0 0 0 0 0 0 0 0 0 0 0 0 0 0 0 0 0 0 0 0 0 0 0 0 0 0 0 0 
0 0 0 0 0 0 0 0 0 0 0 0 0 0 0 0 0 0 0 0 0 0 0 0 0 0 0 0 0 0 0 0 0 0 0 0 0 0 0 0 0 0 0 0 0 0 0 0 0 0 0 0 0 0 0 0 0 0 0 0 0 0 0 0 0 0 0 0 0 0 0 0 0 0 0 0 0 0 0 0 0 0 0 0 0 0 0 0 0 0 0 0 0 0 0 0 0 0 0 0 0 0 0 0 0 0 0 0 0 0 0 0 0 0 0 0 0 0 0 0 0 0 0 0 0 0 0 0 
0 0 0 0 0 1.085600e+00 2.540822e+00 5.780283e-01 6.715975e-01 7.494388e-01 7.275167e-01 7.238450e-01 -8.188998e-01 -4.557388e+00 -6.038436e+00 -4.735749e+00 -5.312719e+00 -5.177334e+00 -4.651561e+00 -5.691836e+00 -4.649328e+00 -9.569249e-02 7.772595e-01 8.546496e-01 8.113465e-01 9.221992e-01 9.299153e-01 1.002463e+00 8.677438e-01 7.901056e-01 7.321503e-01 7.495785e-01 7.535767e-01 7.946483e-01 8.616823e-01 8.618143e-01 9.261750e-01 9.559228e-01 1.013465e+00 9.655214e-01 1.059156e+00 1.083267e+00 1.183498e+00 1.230364e+00 1.378492e+00 1.373380e+00 1.402508e+00 1.371796e+00 1.383773e+00 1.374700e+00 1.472552e+00 1.536569e+00 1.593971e+00 1.648642e+00 1.636525e+00 1.282541e+00 1.887294e-01 1.127358e+00 -4.316214e-01 -2.729961e+00 4.253116e+00 3.126386e+00 -3.973765e+00 1.083612e+00 -6.161871e-01 -3.564896e+00 1.502826e+00 -2.457326e+00 -1.273345e+00 7.753572e+00 4.875273e+00 -7.142143e-02 6.295962e-01 1.211437e+00 1.241251e+00 1.140175e+00 1.149058e+00 1.091203e+00 1.089076e+00 9.847673e-01 8.908186e-01 7.533192e-01 7.065189e-01 6.444968e-01 6.750817e-01 6.923116e-01 7.221260e-01 6.577520e-01 5.921686e-01 4.775103e-01 4.168378e-01 3.362193e-01 3.380992e-01 3.168430e-01 3.428898e-01 2.840827e-01 2.342819e-01 1.399651e-01 1.614632e-01 1.787561e-01 2.376448e-01 2.329908e-01 1.960645e-01 1.409006e-01 1.221954e-01 1.632171e-01 1.251414e-01 1.509079e-01 5.974362e-02 1.193141e-01 4.413650e-02 2.062648e-01 1.134476e-01 2.825622e-01 1.767587e-01 4.139703e-01 2.930438e-01 5.623714e-01 4.290361e-01 7.359303e-01 3.547164e-01 1.192298e+00 2.214032e+00 2.790688e-01 0 0 0 0 
0 0 0 0 0 3.191899e+00 7.465774e+00 1.691256e+00 1.972358e+00 2.203516e+00 2.138457e+00 2.127021e+00 -2.410996e+00 -1.340788e+01 -1.776370e+01 -1.393223e+01 -1.562955e+01 -1.523198e+01 -1.368561e+01 -1.674669e+01 -1.367946e+01 -2.814659e-01 2.287091e+00 2.514733e+00 2.387255e+00 2.713419e+00 2.736100e+00 2.949540e+00 2.553147e+00 2.324696e+00 2.154196e+00 2.205506e+00 2.217291e+00 2.338174e+00 2.535413e+00 2.535796e+00 2.725152e+00 2.812652e+00 2.981935e+00 2.840848e+00 3.116316e+00 3.187224e+00 3.482093e+00 3.619944e+00 4.055728e+00 4.040654e+00 4.126327e+00 4.035931e+00 4.071144e+00 4.044442e+00 4.332364e+00 4.520754e+00 4.689714e+00 4.850593e+00 4.814931e+00 3.773411e+00 4.598138e-01 3.426619e+00 7.660872e-01 -4.940728e+00 1.454242e+01 1.177053e+01 -8.233511e+00 5.499788e+00 8.473305e-01 -6.621623e+00 7.068827e+00 -3.389684e+00 1.829499e+00 2.605035e+01 1.560438e+01 3.671227e-01 1.887885e+00 3.563843e+00 3.651576e+00 3.354265e+00 3.380400e+00 3.210173e+00 3.203873e+00 2.896962e+00 2.620546e+00 2.216031e+00 2.078353e+00 1.895911e+00 1.985905e+00 2.036597e+00 2.124302e+00 1.934916e+00 1.741970e+00 1.404680e+00 1.226203e+00 9.890705e-01 9.946246e-01 9.321164e-01 1.008774e+00 8.358086e-01 6.893239e-01 4.119100e-01 4.751504e-01 5.260305e-01 6.992447e-01 6.855502e-01 5.768952e-01 4.146100e-01 3.595443e-01 4.801672e-01 3.681215e-01 4.438728e-01 1.756957e-01 3.509143e-01 1.297984e-01 6.067634e-01 3.338330e-01 8.313961e-01 5.203743e-01 1.218306e+00 8.628963e-01 1.655441e+00 1.263666e+00 2.167094e+00 1.046544e+00 3.509308e+00 6.512952e+00 8.208956e-01 0 0 0 0 
0 0 0 0 0 2.204324e+00 5.153536e+00 1.163970e+00 1.361002e+00 1.521748e+00 1.476526e+00 1.468318e+00 -1.666610e+00 -4.804116e+01 -6.649941e+01 -5.332511e+01 -5.657967e+01 -5.796527e+01 -5.080542e+01 -6.610602e+01 -4.883664e+01 -1.944332e-01 1.580327e+00 1.737584e+00 1.649472e+00 1.874834e+00 1.890493e+00 2.037960e+00 1.764071e+00 1.606217e+00 1.488422e+00 1.523888e+00 1.532041e+00 1.615583e+00 1.751867e+00 1.752129e+00 1.882957e+00 1.943401e+00 2.060355e+00 1.962861e+00 2.153177e+00 2.202154e+00 2.405873e+00 2.501098e+00 2.802176e+00 2.791744e+00 2.850924e+00 2.788450e+00 2.812767e+00 2.794315e+00 2.993259e+00 3.123441e+00 3.240214e+00 3.351383e+00 3.326737e+00 2.607110e+00 2.980153e-01 2.676205e+00 1.961750e+00 -1.382829e+00 1.157329e+01 9.828154e+00 -3.343703e+00 5.500550e+00 2.301991e+00 -1.943146e+00 6.699468e+00 5.480643e-02 4.890998e+00 2.006062e+01 1.150809e+01 6.247211e-01 1.332627e+00 2.462137e+00 2.522761e+00 2.317376e+00 2.335434e+00 2.217816e+00 2.213443e+00 2.001384e+00 1.810400e+00 1.530927e+00 1.435811e+00 1.309776e+00 1.371959e+00 1.406982e+00 1.467573e+00 1.336729e+00 1.203423e+00 9.704095e-01 8.471111e-01 6.833003e-01 6.871489e-01 6.439759e-01 6.969516e-01 5.774727e-01 4.762816e-01 2.846501e-01 3.283392e-01 3.634941e-01 4.831488e-01 4.736862e-01 3.986087e-01 2.864903e-01 2.484288e-01 3.317359e-01 2.543112e-01 3.066212e-01 1.213531e-01 2.423921e-01 8.965212e-02 4.191761e-01 2.306770e-01 5.744536e-01 3.596929e-01 8.419160e-01 5.965383e-01 1.144191e+00 8.737573e-01 1.498194e+00 7.244890e-01 2.425317e+00 4.499402e+00 5.670909e-01 0 0 0 0 
0 0 0 0 0 9.802495e-02 2.285845e-01 5.074244e-02 6.024159e-02 6.767163e-02 6.558634e-02 6.514248e-02 -7.451358e-02 -5.380568e+01 -5.871751e+01 -5.499742e+01 -5.652988e+01 -5.652295e+01 -5.454393e+01 -5.810885e+01 -5.373408e+01 -8.659766e-03 7.049542e-02 7.750061e-02 7.356291e-02 8.361334e-02 8.430887e-02 9.088322e-02 7.866782e-02 7.162628e-02 6.637589e-02 6.796127e-02 6.832744e-02 7.205770e-02 7.813606e-02 7.814705e-02 8.397986e-02 8.667210e-02 9.188490e-02 8.753423e-02 9.601746e-02 9.819725e-02 1.072774e-01 1.115186e-01 1.249391e-01 1.244697e-01 1.271051e-01 1.243150e-01 1.253963e-01 1.245727e-01 1.334462e-01 1.392556e-01 1.444712e-01 1.494316e-01 1.483312e-01 1.162398e-01 5.089638e-02 5.224822e-01 8.707471e-01 8.657818e-01 1.410006e+00 1.234051e+00 9.733735e-01 1.176240e+00 8.719629e-01 1.179880e+00 1.193134e+00 1.004454e+00 1.818893e+00 1.744882e+00 7.408892e-01 1.999094e-01 7.816265e-02 1.097305e-01 1.124357e-01 1.032865e-01 1.040919e-01 9.884654e-02 9.864644e-02 8.918902e-02 8.067308e-02 6.821594e-02 6.397695e-02 5.836198e-02 6.113555e-02 6.269696e-02 6.539686e-02 5.956457e-02 5.362208e-02 4.323930e-02 3.774559e-02 3.044910e-02 3.062355e-02 2.870241e-02 3.106734e-02 2.574682e-02 2.123959e-02 1.270528e-02 1.465198e-02 1.621965e-02 2.154903e-02 2.112692e-02 1.777799e-02 1.278090e-02 1.107991e-02 1.478578e-02 1.133107e-02 1.365630e-02 5.400996e-03 1.079195e-02 3.990170e-03 1.867748e-02 1.029162e-02 2.561971e-02 1.607726e-02 3.758030e-02 2.668579e-02 5.112125e-02 3.912722e-02 6.703009e-02 3.266099e-02 1.083069e-01 2.004819e-01 2.526411e-02 0 0 0 0 
0 0 0 0 0 0 0 0 0 0 0 0 0 -5.884737e+01 -6.411537e+01 -6.022372e+01 -6.176223e+01 -6.212467e+01 -5.967964e+01 -6.406100e+01 -5.861892e+01 0 0 0 0 0 0 0 0 0 0 0 0 0 0 0 0 0 0 0 0 0 0 0 0 0 0 0 0 0 0 0 0 0 0 0 2.404355e-02 1.457986e-01 1.055474e-01 3.818696e-02 1.276112e-01 4.273276e-02 4.925869e-02 9.024021e-02 3.430438e-02 7.058937e-02 6.925574e-02 3.213575e-02 4.806936e-02 -9.519565e-03 -4.121079e-02 1.012021e-02 3.404878e-03 0 0 0 0 0 0 0 0 0 0 0 0 0 0 0 0 0 0 0 0 0 0 0 0 0 0 0 0 0 0 0 0 0 0 0 0 0 0 0 0 0 0 0 0 0 0 0 0 0 0 0 0 0 0 0 
0 0 0 0 0 0 0 0 0 0 0 0 0 -5.793730e+01 -5.992919e+01 -5.821117e+01 -5.895214e+01 -5.889846e+01 -5.819250e+01 -5.978131e+01 -5.795101e+01 0 0 0 0 0 0 0 0 0 0 0 0 0 0 0 0 0 0 0 0 0 0 0 0 0 0 0 0 0 0 0 0 0 0 0 7.805880e-05 2.599300e-04 -1.158150e-03 3.431339e-04 1.590180e-03 -7.308434e-03 -8.072426e-03 -1.625094e-03 8.145716e-04 4.289793e-03 9.588587e-03 1.484654e-02 1.733014e-02 9.441051e-03 -3.117135e-03 -3.612303e-03 -4.192153e-04 0 0 0 0 0 0 0 0 0 0 0 0 0 0 0 0 0 0 0 0 0 0 0 0 0 0 0 0 0 0 0 0 0 0 0 0 0 0 0 0 0 0 0 0 0 0 0 0 0 0 0 0 0 0 0 
0 0 0 0 0 0 0 0 0 0 0 0 0 -6.147756e+01 -6.408614e+01 -6.204312e+01 -6.282003e+01 -6.312090e+01 -6.168917e+01 -6.427946e+01 -6.115792e+01 0 0 0 0 0 0 0 0 0 0 0 0 0 0 0 0 0 0 0 0 0 0 0 0 0 0 0 0 0 0 0 0 0 0 0 0 0 0 0 0 0 0 0 0 0 0 0 0 0 0 0 0 0 0 0 0 0 0 0 0 0 0 0 0 0 0 0 0 0 0 0 0 0 0 0 0 0 0 0 0 0 0 0 0 0 0 0 0 0 0 0 0 0 0 0 0 0 0 0 0 0 0 0 0 0 0 0 
0 0 0 0 0 0 0 0 0 0 0 0 0 -5.797200e+01 -5.994893e+01 -5.827206e+01 -5.900608e+01 -5.899423e+01 -5.827310e+01 -5.987422e+01 -5.799683e+01 0 0 0 0 0 0 0 0 0 0 0 0 0 0 0 0 0 0 0 0 0 0 0 0 0 0 0 0 0 0 0 0 0 0 0 0 0 0 0 0 0 0 0 0 0 0 0 0 0 0 0 0 0 0 0 0 0 0 0 0 0 0 0 0 0 0 0 0 0 0 0 0 0 0 0 0 0 0 0 0 0 0 0 0 0 0 0 0 0 0 0 0 0 0 0 0 0 0 0 0 0 0 0 0 0 0 0 
0 0 0 0 0 0 0 0 0 0 0 0 0 -5.889327e+01 -6.411959e+01 -6.031940e+01 -6.184213e+01 -6.229934e+01 -5.980642e+01 -6.427910e+01 -5.868273e+01 0 0 0 0 0 0 0 0 0 0 0 0 0 0 0 0 0 0 0 0 0 0 0 0 0 0 0 0 0 0 0 0 0 0 0 0 0 0 0 0 0 0 0 0 0 0 0 0 0 0 0 0 0 0 0 0 0 0 0 0 0 0 0 0 0 0 0 0 0 0 0 0 0 0 0 0 0 0 0 0 0 0 0 0 0 0 0 0 0 0 0 0 0 0 0 0 0 0 0 0 0 0 0 0 0 0 0 
0 0 0 0 0 9.833641e-02 2.336596e-01 6.304415e-02 7.691009e-02 8.766908e-02 8.832973e-02 8.950185e-02 -5.192825e-02 -5.380557e+01 -5.865772e+01 -5.514035e+01 -5.671416e+01 -5.695099e+01 -5.501903e+01 -5.877804e+01 -5.418082e+01 -1.743187e-02 6.717862e-02 7.618182e-02 7.339129e-02 8.390679e-02 7.913986e-02 8.231175e-02 7.810469e-02 8.234304e-02 8.323376e-02 8.972040e-02 9.535009e-02 9.596024e-02 9.410803e-02 8.791037e-02 8.737575e-02 8.429652e-02 9.284854e-02 9.597026e-02 1.047268e-01 1.048076e-01 1.130104e-01 1.097770e-01 1.113907e-01 1.060643e-01 1.073884e-01 1.025994e-01 1.077956e-01 1.128149e-01 1.227944e-01 1.287844e-01 1.352462e-01 1.367129e-01 1.392697e-01 1.421146e-01 1.429276e-01 1.443220e-01 1.480081e-01 1.503875e-01 1.524508e-01 1.529382e-01 1.462602e-01 1.452438e-01 1.384803e-01 1.326861e-01 1.306974e-01 1.299127e-01 1.280834e-01 1.256164e-01 1.147068e-01 1.035623e-01 9.501750e-02 8.984792e-02 8.779553e-02 8.751324e-02 8.900662e-02 8.897981e-02 8.904010e-02 8.764261e-02 8.512201e-02 7.934334e-02 7.278185e-02 6.663062e-02 6.441076e-02 6.201387e-02 6.116527e-02 5.752819e-02 5.400050e-02 4.558769e-02 3.952059e-02 3.102762e-02 2.898896e-02 2.579675e-02 2.837641e-02 2.486017e-02 2.455215e-02 1.830921e-02 1.681027e-02 1.214164e-02 1.210084e-02 8.567369e-03 7.239843e-03 6.312435e-03 6.028052e-03 1.008955e-02 1.053274e-02 1.770042e-02 1.451925e-02 2.264935e-02 1.502953e-02 2.593883e-02 1.766119e-02 3.406314e-02 2.339834e-02 4.107336e-02 2.680051e-02 4.553539e-02 2.823643e-02 5.420290e-02 2.192169e-02 1.006971e-01 1.979538e-01 2.518651e-02 0 0 0 0 
0 0 0 0 0 2.211327e+00 5.267439e+00 1.440119e+00 1.735300e+00 1.970820e+00 1.987285e+00 2.015360e+00 -1.159387e+00 -4.816444e+01 -6.660222e+01 -5.329543e+01 -5.667044e+01 -5.818709e+01 -5.113143e+01 -6.650735e+01 -4.884987e+01 -3.910813e-01 1.505937e+00 1.708028e+00 1.645700e+00 1.881647e+00 1.774835e+00 1.845997e+00 1.751605e+00 1.846490e+00 1.866377e+00 2.011664e+00 2.137862e+00 2.151615e+00 2.110102e+00 1.971245e+00 1.959288e+00 1.890198e+00 2.082001e+00 2.152004e+00 2.348432e+00 2.350412e+00 2.534497e+00 2.462098e+00 2.498344e+00 2.378946e+00 2.408704e+00 2.301378e+00 2.417989e+00 2.530588e+00 2.754370e+00 2.888668e+00 3.033536e+00 3.066449e+00 3.123885e+00 3.187819e+00 3.206199e+00 3.237584e+00 3.320367e+00 3.373806e+00 3.420164e+00 3.431139e+00 3.281368e+00 3.258591e+00 3.106899e+00 2.976931e+00 2.932357e+00 2.914765e+00 2.873758e+00 2.818421e+00 2.573685e+00 2.323669e+00 2.131988e+00 2.016028e+00 1.970026e+00 1.963733e+00 1.997289e+00 1.996718e+00 1.998114e+00 1.966797e+00 1.910273e+00 1.780626e+00 1.633376e+00 1.495332e+00 1.445492e+00 1.391701e+00 1.372651e+00 1.291055e+00 1.211920e+00 1.023138e+00 8.869874e-01 6.963384e-01 6.505358e-01 5.788397e-01 6.366672e-01 5.576902e-01 5.507219e-01 4.105449e-01 3.768820e-01 2.720471e-01 2.711702e-01 1.918426e-01 1.621188e-01 1.413614e-01 1.350569e-01 2.263448e-01 2.364042e-01 3.973738e-01 3.260596e-01 5.085712e-01 3.374247e-01 5.821635e-01 3.960594e-01 7.638324e-01 5.239335e-01 9.201588e-01 5.989368e-01 1.018848e+00 6.291125e-01 1.210315e+00 4.834825e-01 2.254349e+00 4.442731e+00 5.653617e-01 0 0 0 0 
0 0 0 0 0 3.202039e+00 7.630650e+00 2.091001e+00 2.514212e+00 2.853622e+00 2.877872e+00 2.918960e+00 -1.676696e+00 -1.278060e+01 -1.723613e+01 -1.344887e+01 -1.519007e+01 -1.487891e+01 -1.352724e+01 -1.685484e+01 -1.401752e+01 -5.660602e-01 2.179423e+00 2.471960e+00 2.381815e+00 2.723340e+00 2.568771e+00 2.671772e+00 2.535146e+00 2.672434e+00 2.701194e+00 2.911426e+00 3.094061e+00 3.113984e+00 3.053908e+00 2.852970e+00 2.835672e+00 2.735668e+00 3.013272e+00 3.114589e+00 3.398897e+00 3.401806e+00 3.668268e+00 3.563512e+00 3.615986e+00 3.443192e+00 3.486278e+00 3.330962e+00 3.499756e+00 3.662731e+00 3.986612e+00 4.180975e+00 4.390635e+00 4.438276e+00 4.521429e+00 4.613997e+00 4.640637e+00 4.686090e+00 4.805933e+00 4.883297e+00 4.950415e+00 4.966310e+00 4.749540e+00 4.716579e+00 4.497027e+00 4.308916e+00 4.244409e+00 4.218949e+00 4.159602e+00 4.079510e+00 3.725277e+00 3.363400e+00 3.085961e+00 2.918123e+00 2.851550e+00 2.842451e+00 2.891035e+00 2.890216e+00 2.892248e+00 2.846927e+00 2.765119e+00 2.577465e+00 2.364320e+00 2.164502e+00 2.092352e+00 2.014490e+00 1.986913e+00 1.868809e+00 1.754270e+00 1.481012e+00 1.283935e+00 1.007957e+00 9.416448e-01 8.378500e-01 9.215390e-01 8.072028e-01 7.971020e-01 5.941765e-01 5.454434e-01 3.936788e-01 3.924193e-01 2.775847e-01 2.345767e-01 2.045445e-01 1.954384e-01 3.276135e-01 3.422033e-01 5.752361e-01 4.720283e-01 7.362289e-01 4.884574e-01 8.426955e-01 5.732233e-01 1.105495e+00 7.580983e-01 1.331525e+00 8.663235e-01 1.474010e+00 9.094824e-01 1.750385e+00 6.976875e-01 3.261784e+00 6.430937e+00 8.183955e-01 0 0 0 0 
0 0 0 0 0 1.089049e+00 2.596871e+00 7.139267e-01 8.558226e-01 9.704711e-01 9.789164e-01 9.931018e-01 -5.692377e-01 -4.344107e+00 -5.859069e+00 -4.571424e+00 -5.163319e+00 -5.057306e+00 -4.597711e+00 -5.728538e+00 -4.764164e+00 -1.924108e-01 7.406644e-01 8.401143e-01 8.095070e-01 9.255997e-01 8.730760e-01 9.080877e-01 8.616459e-01 9.082868e-01 9.180511e-01 9.894818e-01 1.051549e+00 1.058329e+00 1.037913e+00 9.696354e-01 9.637599e-01 9.297664e-01 1.024120e+00 1.058555e+00 1.155191e+00 1.156201e+00 1.246782e+00 1.211192e+00 1.229033e+00 1.170311e+00 1.184962e+00 1.132183e+00 1.189562e+00 1.244958e+00 1.355036e+00 1.421092e+00 1.492346e+00 1.508540e+00 1.536814e+00 1.568293e+00 1.577365e+00 1.592828e+00 1.633575e+00 1.659878e+00 1.682701e+00 1.688109e+00 1.614432e+00 1.603232e+00 1.528609e+00 1.464671e+00 1.442749e+00 1.434096e+00 1.413928e+00 1.386705e+00 1.266299e+00 1.143294e+00 1.048991e+00 9.919433e-01 9.693195e-01 9.662316e-01 9.827524e-01 9.824777e-01 9.831736e-01 9.677731e-01 9.399686e-01 8.761821e-01 8.037263e-01 7.358004e-01 7.112711e-01 6.848026e-01 6.754273e-01 6.352827e-01 5.963506e-01 5.034615e-01 4.364682e-01 3.426464e-01 3.200979e-01 2.848070e-01 3.132482e-01 2.743727e-01 2.709322e-01 2.019409e-01 1.853716e-01 1.337733e-01 1.333499e-01 9.430949e-02 7.969783e-02 6.949554e-02 6.640957e-02 1.113583e-01 1.163319e-01 1.955628e-01 1.604879e-01 2.503070e-01 1.660622e-01 2.864708e-01 1.948251e-01 3.757260e-01 2.575632e-01 4.524396e-01 2.941872e-01 5.006976e-01 3.086063e-01 5.942731e-01 2.361267e-01 1.108132e+00 2.186160e+00 2.782204e-01 0 0 0 0 
0 0 0 0 0 0 0 0 0 0 0 0 0 0 0 0 0 0 0 0 0 0 0 0 0 0 0 0 0 0 0 0 0 0 0 0 0 0 0 0 0 0 0 0 0 0 0 0 0 0 0 0 0 0 0 0 0 0 0 0 0 0 0 0 0 0 0 0 0 0 0 0 0 0 0 0 0 0 0 0 0 0 0 0 0 0 0 0 0 0 0 0 0 0 0 0 0 0 0 0 0 0 0 0 0 0 0 0 0 0 0 0 0 0 0 0 0 0 0 0 0 0 0 0 0 0 0 0 
