# vtk DataFile Version 2.0
Comment goes here
ASCII

DATASET STRUCTURED_POINTS
FIELD FieldData 1
TIME 1 1 double
0.68000000
DIMENSIONS    128   16   1

ORIGIN    0.000   0.000   0.000
SPACING   0.0078125 0.015625   1.000

POINT_DATA   2048
SCALARS fX double
LOOKUP_TABLE default

0 0 0 0 0 0 0 0 0 0 0 0 0 0 0 0 0 0 0 0 0 0 0 0 0 0 0 0 0 0 0 0 0 0 0 0 0 0 0 0 0 0 0 0 0 0 0 0 0 0 0 0 0 0 0 0 0 0 0 0 0 0 0 0 0 0 0 0 0 0 0 0 0 0 0 0 0 0 0 0 0 0 0 0 0 0 0 0 0 0 0 0 0 0 0 0 0 0 0 0 0 0 0 0 0 0 0 0 0 0 0 0 0 0 0 0 0 0 0 0 0 0 0 0 0 0 0 0 
0 0 0 0 0 0 0 0 0 0 0 0 0 0 0 0 0 0 0 0 0 0 0 0 0 0 0 0 0 0 0 0 0 0 0 0 0 0 0 0 0 0 0 0 0 0 0 0 0 0 0 0 0 0 0 0 0 0 0 0 0 0 0 0 0 0 0 0 0 0 0 0 0 0 0 0 0 0 0 0 0 0 0 0 0 0 0 0 0 0 0 0 0 0 0 0 0 0 0 0 0 0 0 0 0 0 0 0 0 0 0 0 0 0 0 0 0 0 0 0 0 0 0 0 0 0 0 0 
0 0 0 0 0 1.638891e+00 -3.344543e-01 -1.119880e+00 1.788196e-01 -3.247471e-01 7.141426e-02 -2.696209e-01 6.464016e-01 9.836449e-01 1.132650e+00 1.103006e+00 1.842473e+00 1.158630e+00 1.737681e+00 1.429405e+00 5.656376e-01 6.343284e-01 -1.433849e-01 -4.230299e-02 -1.419498e-01 -3.804342e-02 -1.271113e-01 -2.174297e-02 -1.062503e-01 -4.944537e-03 -8.500117e-02 6.681614e-03 -6.857713e-02 8.770999e-03 -6.108911e-02 3.688806e-04 -6.169391e-02 -1.583813e-02 -6.541641e-02 -3.335930e-02 -6.658119e-02 -4.552508e-02 -6.284964e-02 -5.044541e-02 -5.611193e-02 -5.144507e-02 -5.021004e-02 -5.309451e-02 -4.776601e-02 -5.838562e-02 -4.855995e-02 -6.767799e-02 -5.036189e-02 -7.910929e-02 -6.406870e-02 -5.260719e-01 -6.504674e-01 1.576647e+00 -8.336675e-01 -4.077207e+00 2.874062e+00 5.735160e-01 -5.419368e+00 1.092025e+00 -2.181155e+00 -3.919490e+00 1.599997e+00 -5.281260e+00 -2.712139e+00 4.956786e+00 -1.060196e+00 -5.255571e+00 -2.605793e+00 -3.732532e-01 -2.470622e-01 -2.078528e-01 -2.103873e-01 -1.963544e-01 -1.866968e-01 -1.896050e-01 -1.733214e-01 -1.895825e-01 -1.711734e-01 -1.972550e-01 -1.799545e-01 -2.105635e-01 -1.949583e-01 -2.261239e-01 -2.105085e-01 -2.396275e-01 -2.237832e-01 -2.472386e-01 -2.334602e-01 -2.478992e-01 -2.393463e-01 -2.414199e-01 -2.426084e-01 -2.293978e-01 -2.442209e-01 -2.129178e-01 -2.443607e-01 -1.927168e-01 -2.410158e-01 -1.683445e-01 -2.333276e-01 -1.425607e-01 -2.222925e-01 -1.206778e-01 -2.123339e-01 -1.101479e-01 -2.063026e-01 -1.140854e-01 -2.021157e-01 -1.304981e-01 -1.945811e-01 -1.546954e-01 -1.792488e-01 -1.815558e-01 -1.555222e-01 -1.963073e-01 -2.164511e-01 -7.105923e-01 1.916150e-01 2.758269e-01 0 0 0 0 
0 0 0 0 0 4.819977e+00 -9.901413e-01 -3.304981e+00 5.190989e-01 -9.576466e-01 2.089318e-01 -7.935080e-01 1.901180e+00 2.893240e+00 3.331499e+00 3.244275e+00 5.419055e+00 3.407793e+00 5.110850e+00 4.204417e+00 1.664086e+00 1.866148e+00 -4.211879e-01 -1.239562e-01 -4.170795e-01 -1.115528e-01 -3.735699e-01 -6.374011e-02 -3.123390e-01 -1.444165e-02 -2.499327e-01 1.968257e-02 -2.016757e-01 2.580103e-02 -1.796619e-01 1.096879e-03 -1.814248e-01 -4.654524e-02 -1.923476e-01 -9.805327e-02 -1.957532e-01 -1.338220e-01 -1.847738e-01 -1.482964e-01 -1.649710e-01 -1.512540e-01 -1.476375e-01 -1.561326e-01 -1.404772e-01 -1.717226e-01 -1.428372e-01 -1.990741e-01 -1.481529e-01 -2.327057e-01 -1.884698e-01 -1.547277e+00 -1.992840e+00 5.167166e+00 7.489131e-01 -8.129610e+00 1.030436e+01 4.859057e+00 -1.143340e+01 6.307211e+00 -2.094496e+00 -6.619741e+00 8.297606e+00 -1.009752e+01 -3.093308e+00 1.662045e+01 -9.823134e-01 -1.400578e+01 -7.577334e+00 -1.097822e+00 -7.266536e-01 -6.113183e-01 -6.187669e-01 -5.774921e-01 -5.490903e-01 -5.576463e-01 -5.097597e-01 -5.575891e-01 -5.034491e-01 -5.801593e-01 -5.292757e-01 -6.192974e-01 -5.733959e-01 -6.650516e-01 -6.191167e-01 -7.047513e-01 -6.581421e-01 -7.271208e-01 -6.865906e-01 -7.290564e-01 -7.039015e-01 -7.100081e-01 -7.135117e-01 -6.746724e-01 -7.182814e-01 -6.262266e-01 -7.187113e-01 -5.668174e-01 -7.088605e-01 -4.950952e-01 -6.861807e-01 -4.191576e-01 -6.535919e-01 -3.546319e-01 -6.241177e-01 -3.234687e-01 -6.061931e-01 -3.348918e-01 -5.937689e-01 -3.831213e-01 -5.716549e-01 -4.544355e-01 -5.268096e-01 -5.337377e-01 -4.570677e-01 -5.755762e-01 -6.258716e-01 -2.074168e+00 5.704889e-01 8.115353e-01 0 0 0 0 
0 0 0 0 0 3.329296e+00 -6.870749e-01 -2.288378e+00 3.552561e-01 -6.627172e-01 1.437832e-01 -5.483667e-01 1.313254e+00 9.011151e+00 6.996266e+00 1.034319e+01 1.565438e+01 1.078662e+01 1.498589e+01 1.135802e+01 4.008295e+00 1.289287e+00 -2.906807e-01 -8.539864e-02 -2.878973e-01 -7.689142e-02 -2.579073e-01 -4.392731e-02 -2.156721e-01 -9.926690e-03 -1.726087e-01 1.361080e-02 -1.392986e-01 1.782419e-02 -1.240971e-01 7.634622e-04 -1.253070e-01 -3.213331e-02 -1.328396e-01 -6.770085e-02 -1.351822e-01 -9.240211e-02 -1.275961e-01 -1.024018e-01 -1.139239e-01 -1.044532e-01 -1.019628e-01 -1.078364e-01 -9.703038e-02 -1.186188e-01 -9.867265e-02 -1.375222e-01 -1.023521e-01 -1.607584e-01 -1.302027e-01 -1.068796e+00 -1.397862e+00 4.009294e+00 2.487947e+00 -3.306967e+00 8.254790e+00 5.244230e+00 -5.150561e+00 6.203851e+00 1.009073e+00 -1.639505e+00 7.748383e+00 -3.897150e+00 7.506469e-01 1.253928e+01 4.740007e-01 -8.831255e+00 -5.183696e+00 -7.583379e-01 -5.019416e-01 -4.222664e-01 -4.274086e-01 -3.988970e-01 -3.792797e-01 -3.851910e-01 -3.521161e-01 -3.851558e-01 -3.477604e-01 -4.007484e-01 -3.656002e-01 -4.277811e-01 -3.960724e-01 -4.593805e-01 -4.276470e-01 -4.867953e-01 -4.545956e-01 -5.022394e-01 -4.742401e-01 -5.035728e-01 -4.861972e-01 -4.904192e-01 -4.928433e-01 -4.660221e-01 -4.961510e-01 -4.325697e-01 -4.964570e-01 -3.915351e-01 -4.896463e-01 -3.419735e-01 -4.739474e-01 -2.894692e-01 -4.513721e-01 -2.448179e-01 -4.309232e-01 -2.231983e-01 -4.184519e-01 -2.310124e-01 -4.098165e-01 -2.643064e-01 -3.945636e-01 -3.136379e-01 -3.637075e-01 -3.685622e-01 -3.155531e-01 -3.967122e-01 -4.271170e-01 -1.425087e+00 3.974205e-01 5.607098e-01 0 0 0 0 
0 0 0 0 0 1.482098e-01 -3.138786e-02 -1.032765e-01 1.497679e-02 -2.981779e-02 6.265706e-03 -2.447963e-02 5.847577e-02 1.095834e+01 1.195980e+01 1.129546e+01 1.237298e+01 1.171507e+01 1.191443e+01 1.231509e+01 1.052476e+01 5.746730e-02 -1.287779e-02 -3.745462e-03 -1.276769e-02 -3.382009e-03 -1.144870e-02 -1.930164e-03 -9.583430e-03 -4.295731e-04 -7.677142e-03 6.098404e-04 -6.199952e-03 7.941560e-04 -5.524270e-03 3.546361e-05 -5.576181e-03 -1.426204e-03 -5.908417e-03 -3.006886e-03 -6.010246e-03 -4.105178e-03 -5.671934e-03 -4.550794e-03 -5.064864e-03 -4.644275e-03 -4.535351e-03 -4.798276e-03 -4.319165e-03 -5.281831e-03 -4.395356e-03 -6.126135e-03 -4.561140e-03 -7.162030e-03 -5.801607e-03 -4.759168e-02 -4.566254e-02 4.549701e-01 9.188212e-01 7.327106e-01 8.343119e-01 9.615835e-01 8.431096e-01 9.829075e-01 8.931227e-01 1.040274e+00 1.025351e+00 8.962854e-01 1.129982e+00 8.677082e-01 3.693266e-01 -1.284777e-01 -2.195811e-01 -3.376919e-02 -2.235023e-02 -1.880084e-02 -1.902907e-02 -1.775934e-02 -1.688617e-02 -1.714970e-02 -1.567775e-02 -1.714924e-02 -1.548466e-02 -1.784405e-02 -1.627902e-02 -1.904720e-02 -1.763481e-02 -2.045278e-02 -1.903887e-02 -2.167145e-02 -2.023665e-02 -2.235716e-02 -2.110973e-02 -2.241561e-02 -2.164202e-02 -2.183097e-02 -2.193990e-02 -2.074751e-02 -2.209050e-02 -1.926098e-02 -2.210642e-02 -1.743449e-02 -2.180157e-02 -1.522284e-02 -2.109427e-02 -1.287231e-02 -2.007270e-02 -1.086387e-02 -1.913949e-02 -9.877479e-03 -1.856138e-02 -1.020599e-02 -1.816334e-02 -1.168319e-02 -1.748989e-02 -1.389775e-02 -1.614667e-02 -1.638040e-02 -1.400766e-02 -1.744333e-02 -1.769644e-02 -6.151147e-02 1.854662e-02 2.500145e-02 0 0 0 0 
0 0 0 0 0 0 0 0 0 0 0 0 0 1.182414e+01 1.255742e+01 1.210240e+01 1.304349e+01 1.246820e+01 1.262331e+01 1.293753e+01 1.131527e+01 0 0 0 0 0 0 0 0 0 0 0 0 0 0 0 0 0 0 0 0 0 0 0 0 0 0 0 0 0 0 0 0 0 0 0 9.487097e-03 3.388253e-02 1.221687e-02 -1.050119e-02 1.098600e-02 1.438784e-03 -2.140692e-02 -2.731527e-03 -2.547050e-02 -1.654782e-02 -2.119661e-02 -1.604313e-02 9.186682e-03 2.786335e-04 -3.054304e-02 -5.497627e-02 -8.459558e-03 0 0 0 0 0 0 0 0 0 0 0 0 0 0 0 0 0 0 0 0 0 0 0 0 0 0 0 0 0 0 0 0 0 0 0 0 0 0 0 0 0 0 0 0 0 0 0 0 0 0 0 0 0 0 0 
0 0 0 0 0 0 0 0 0 0 0 0 0 1.231798e+01 1.293381e+01 1.236527e+01 1.277284e+01 1.253794e+01 1.256981e+01 1.277307e+01 1.238674e+01 0 0 0 0 0 0 0 0 0 0 0 0 0 0 0 0 0 0 0 0 0 0 0 0 0 0 0 0 0 0 0 0 0 0 0 -3.393296e-04 -2.313313e-03 -1.237752e-03 2.223712e-03 1.164134e-03 -1.455186e-03 -1.049719e-03 3.024987e-03 3.821794e-03 3.925165e-03 4.226689e-03 6.780938e-03 1.102122e-02 8.184177e-03 -3.751799e-03 -7.548801e-03 -1.033558e-03 0 0 0 0 0 0 0 0 0 0 0 0 0 0 0 0 0 0 0 0 0 0 0 0 0 0 0 0 0 0 0 0 0 0 0 0 0 0 0 0 0 0 0 0 0 0 0 0 0 0 0 0 0 0 0 
0 0 0 0 0 0 0 0 0 0 0 0 0 1.258014e+01 1.317364e+01 1.265558e+01 1.306630e+01 1.286406e+01 1.282639e+01 1.312511e+01 1.253855e+01 0 0 0 0 0 0 0 0 0 0 0 0 0 0 0 0 0 0 0 0 0 0 0 0 0 0 0 0 0 0 0 0 0 0 0 0 0 0 0 0 0 0 0 0 0 0 0 0 0 0 0 0 0 0 0 0 0 0 0 0 0 0 0 0 0 0 0 0 0 0 0 0 0 0 0 0 0 0 0 0 0 0 0 0 0 0 0 0 0 0 0 0 0 0 0 0 0 0 0 0 0 0 0 0 0 0 0 
0 0 0 0 0 0 0 0 0 0 0 0 0 1.232373e+01 1.293805e+01 1.237460e+01 1.278229e+01 1.255209e+01 1.258502e+01 1.279302e+01 1.240901e+01 0 0 0 0 0 0 0 0 0 0 0 0 0 0 0 0 0 0 0 0 0 0 0 0 0 0 0 0 0 0 0 0 0 0 0 0 0 0 0 0 0 0 0 0 0 0 0 0 0 0 0 0 0 0 0 0 0 0 0 0 0 0 0 0 0 0 0 0 0 0 0 0 0 0 0 0 0 0 0 0 0 0 0 0 0 0 0 0 0 0 0 0 0 0 0 0 0 0 0 0 0 0 0 0 0 0 0 
0 0 0 0 0 0 0 0 0 0 0 0 0 1.183142e+01 1.255658e+01 1.211562e+01 1.305871e+01 1.248893e+01 1.265927e+01 1.297402e+01 1.137750e+01 0 0 0 0 0 0 0 0 0 0 0 0 0 0 0 0 0 0 0 0 0 0 0 0 0 0 0 0 0 0 0 0 0 0 0 0 0 0 0 0 0 0 0 0 0 0 0 0 0 0 0 0 0 0 0 0 0 0 0 0 0 0 0 0 0 0 0 0 0 0 0 0 0 0 0 0 0 0 0 0 0 0 0 0 0 0 0 0 0 0 0 0 0 0 0 0 0 0 0 0 0 0 0 0 0 0 0 
0 0 0 0 0 1.481096e-01 -3.226001e-02 -1.051280e-01 1.247546e-02 -3.232090e-02 3.705286e-03 -2.668975e-02 5.634941e-02 1.096410e+01 1.196247e+01 1.131834e+01 1.239923e+01 1.175383e+01 1.195521e+01 1.237532e+01 1.059257e+01 5.958612e-02 -1.085506e-02 -2.098773e-03 -1.136197e-02 -2.835226e-03 -1.157061e-02 -3.100513e-03 -1.157428e-02 -3.329089e-03 -1.119951e-02 -3.358542e-03 -1.022826e-02 -2.964136e-03 -8.541812e-03 -2.085187e-03 -6.290630e-03 -9.543420e-04 -3.903250e-03 -3.965864e-05 -1.942235e-03 2.152141e-04 -8.064246e-04 -3.269882e-04 -5.395565e-04 -1.462159e-03 -8.885539e-04 -2.830087e-03 -1.551029e-03 -4.197154e-03 -2.403050e-03 -5.569854e-03 -3.532856e-03 -7.133061e-03 -5.132687e-03 -9.057173e-03 -7.301739e-03 -1.084699e-02 -8.846712e-03 -1.453222e-02 -1.003253e-02 -1.295007e-02 -1.450909e-02 -1.245978e-02 -1.289123e-02 -1.466458e-02 -1.055152e-02 -1.426781e-02 -1.302185e-02 -1.061251e-02 -1.433274e-02 -1.489183e-02 -1.605759e-02 -1.514426e-02 -1.656070e-02 -1.651396e-02 -1.801791e-02 -1.858653e-02 -1.987750e-02 -2.069518e-02 -2.146220e-02 -2.221708e-02 -2.230171e-02 -2.285813e-02 -2.228295e-02 -2.266513e-02 -2.159394e-02 -2.189317e-02 -2.057689e-02 -2.082427e-02 -1.958036e-02 -1.971601e-02 -1.889781e-02 -1.874470e-02 -1.868572e-02 -1.793180e-02 -1.891376e-02 -1.720022e-02 -1.949191e-02 -1.652296e-02 -2.036978e-02 -1.595870e-02 -2.146376e-02 -1.550696e-02 -2.254624e-02 -1.511449e-02 -2.331868e-02 -1.470513e-02 -2.343732e-02 -1.424223e-02 -2.266129e-02 -1.382825e-02 -2.091918e-02 -1.366853e-02 -1.830848e-02 -1.400429e-02 -1.510977e-02 -1.499574e-02 -1.175039e-02 -1.543107e-02 -1.517856e-02 -6.041125e-02 1.944737e-02 2.519388e-02 0 0 0 0 
0 0 0 0 0 3.327043e+00 -7.066934e-01 -2.330010e+00 2.990553e-01 -7.189338e-01 8.629263e-02 -5.979862e-01 1.265525e+00 9.011174e+00 6.951624e+00 1.035889e+01 1.566252e+01 1.079643e+01 1.504503e+01 1.142967e+01 4.216570e+00 1.336936e+00 -2.452068e-01 -4.839812e-02 -2.563186e-01 -6.462828e-02 -2.606701e-01 -7.023917e-02 -2.604276e-01 -7.507751e-02 -2.517509e-01 -7.554459e-02 -2.297892e-01 -6.660004e-02 -1.918753e-01 -4.686340e-02 -1.413510e-01 -2.152419e-02 -8.779342e-02 -1.051381e-03 -4.380443e-02 4.628587e-03 -1.831940e-02 -7.550116e-03 -1.231144e-02 -3.300919e-02 -2.010067e-02 -6.367605e-02 -3.491703e-02 -9.432040e-02 -5.399683e-02 -1.251061e-01 -7.933554e-02 -1.601906e-01 -1.152569e-01 -2.034031e-01 -1.639827e-01 -2.436172e-01 -1.987044e-01 -3.264124e-01 -2.253616e-01 -2.908922e-01 -3.259024e-01 -2.798633e-01 -2.895432e-01 -3.293543e-01 -2.369642e-01 -3.204055e-01 -2.924060e-01 -2.382796e-01 -3.218242e-01 -3.343727e-01 -3.605518e-01 -3.400405e-01 -3.718563e-01 -3.708106e-01 -4.045954e-01 -4.173723e-01 -4.463749e-01 -4.647501e-01 -4.819871e-01 -4.989574e-01 -5.008718e-01 -5.133899e-01 -5.004894e-01 -5.090962e-01 -4.850596e-01 -4.918035e-01 -4.622638e-01 -4.678397e-01 -4.399208e-01 -4.429772e-01 -4.246065e-01 -4.211577e-01 -4.198200e-01 -4.028574e-01 -4.248797e-01 -3.863589e-01 -4.377924e-01 -3.710860e-01 -4.574689e-01 -3.584126e-01 -4.820911e-01 -3.483964e-01 -5.066058e-01 -3.398899e-01 -5.243484e-01 -3.311712e-01 -5.275530e-01 -3.213272e-01 -5.106482e-01 -3.124813e-01 -4.718063e-01 -3.090054e-01 -4.130217e-01 -3.160955e-01 -3.404710e-01 -3.374822e-01 -2.648714e-01 -3.515022e-01 -3.706312e-01 -1.400537e+00 4.175642e-01 5.650279e-01 0 0 0 0 
0 0 0 0 0 4.816714e+00 -1.018551e+00 -3.365264e+00 4.377312e-01 -1.039031e+00 1.257063e-01 -8.653373e-01 1.832090e+00 2.856539e+00 3.279003e+00 3.219009e+00 5.393298e+00 3.401847e+00 5.146173e+00 4.224698e+00 1.719693e+00 1.935146e+00 -3.553438e-01 -7.038618e-02 -3.713611e-01 -9.380385e-02 -3.775758e-01 -1.018386e-01 -3.771423e-01 -1.087681e-01 -3.645150e-01 -1.093949e-01 -3.326836e-01 -9.642391e-02 -2.777860e-01 -6.785217e-02 -2.046512e-01 -3.118352e-02 -1.271313e-01 -1.562880e-03 -6.346220e-02 6.648765e-03 -2.657373e-02 -1.098265e-02 -1.787236e-02 -4.783061e-02 -2.913640e-02 -9.221284e-02 -5.057020e-02 -1.365617e-01 -7.817783e-02 -1.811189e-01 -1.148516e-01 -2.319046e-01 -1.668524e-01 -2.944630e-01 -2.373955e-01 -3.526849e-01 -2.876677e-01 -4.725546e-01 -3.262657e-01 -4.211354e-01 -4.718187e-01 -4.051646e-01 -4.191756e-01 -4.768057e-01 -3.430492e-01 -4.638411e-01 -4.233022e-01 -3.449397e-01 -4.658848e-01 -4.840492e-01 -5.219478e-01 -4.922540e-01 -5.383148e-01 -5.368018e-01 -5.857139e-01 -6.042127e-01 -6.462018e-01 -6.728063e-01 -6.977630e-01 -7.223349e-01 -7.251098e-01 -7.432377e-01 -7.245662e-01 -7.370322e-01 -7.022398e-01 -7.120090e-01 -6.692501e-01 -6.773275e-01 -6.369140e-01 -6.413411e-01 -6.147474e-01 -6.097519e-01 -6.078121e-01 -5.832476e-01 -6.151212e-01 -5.593456e-01 -6.337966e-01 -5.372193e-01 -6.622723e-01 -5.188717e-01 -6.979310e-01 -5.044043e-01 -7.334725e-01 -4.921675e-01 -7.592585e-01 -4.796662e-01 -7.640349e-01 -4.655552e-01 -7.396949e-01 -4.528637e-01 -6.835357e-01 -4.478599e-01 -5.983951e-01 -4.580099e-01 -4.931833e-01 -4.887478e-01 -3.836997e-01 -5.101216e-01 -5.441134e-01 -2.038667e+00 5.996291e-01 8.177857e-01 0 0 0 0 
0 0 0 0 0 1.637781e+00 -3.441174e-01 -1.140382e+00 1.511514e-01 -3.524180e-01 4.311899e-02 -2.940409e-01 6.229141e-01 9.711704e-01 1.114806e+00 1.094420e+00 1.833721e+00 1.156617e+00 1.749702e+00 1.436313e+00 5.845539e-01 6.577958e-01 -1.209921e-01 -2.408683e-02 -1.264045e-01 -3.201080e-02 -1.284763e-01 -3.469991e-02 -1.282890e-01 -3.701963e-02 -1.239637e-01 -3.720883e-02 -1.131226e-01 -3.278800e-02 -9.445258e-02 -2.307396e-02 -6.959075e-02 -1.061366e-02 -4.324117e-02 -5.511576e-04 -2.160000e-02 2.235392e-03 -9.060749e-03 -3.759526e-03 -6.100485e-03 -1.628357e-02 -9.924283e-03 -3.136688e-02 -1.720421e-02 -4.643844e-02 -2.658404e-02 -6.158268e-02 -3.904887e-02 -7.884711e-02 -5.672822e-02 -1.001171e-01 -8.071448e-02 -1.199148e-01 -9.781008e-02 -1.606744e-01 -1.109366e-01 -1.431933e-01 -1.604254e-01 -1.377611e-01 -1.425236e-01 -1.621160e-01 -1.166365e-01 -1.577034e-01 -1.439180e-01 -1.172726e-01 -1.583934e-01 -1.645683e-01 -1.774537e-01 -1.673578e-01 -1.830192e-01 -1.825052e-01 -1.991365e-01 -2.054269e-01 -2.197044e-01 -2.287514e-01 -2.372381e-01 -2.455946e-01 -2.465398e-01 -2.527060e-01 -2.463597e-01 -2.506011e-01 -2.387742e-01 -2.420986e-01 -2.275632e-01 -2.303121e-01 -2.165735e-01 -2.180800e-01 -2.090386e-01 -2.073389e-01 -2.066777e-01 -1.983220e-01 -2.091553e-01 -1.901869e-01 -2.154961e-01 -1.826562e-01 -2.251731e-01 -1.764178e-01 -2.373036e-01 -1.715148e-01 -2.494129e-01 -1.673921e-01 -2.582288e-01 -1.632001e-01 -2.599192e-01 -1.584703e-01 -2.517080e-01 -1.542107e-01 -2.326486e-01 -1.525230e-01 -2.036819e-01 -1.559186e-01 -1.678220e-01 -1.662613e-01 -1.305786e-01 -1.740504e-01 -1.886608e-01 -6.985413e-01 2.015122e-01 2.779517e-01 0 0 0 0 
0 0 0 0 0 0 0 0 0 0 0 0 0 0 0 0 0 0 0 0 0 0 0 0 0 0 0 0 0 0 0 0 0 0 0 0 0 0 0 0 0 0 0 0 0 0 0 0 0 0 0 0 0 0 0 0 0 0 0 0 0 0 0 0 0 0 0 0 0 0 0 0 0 0 0 0 0 0 0 0 0 0 0 0 0 0 0 0 0 0 0 0 0 0 0 0 0 0 0 0 0 0 0 0 0 0 0 0 0 0 0 0 0 0 0 0 0 0 0 0 0 0 0 0 0 0 0 0 
