# vtk DataFile Version 2.0
Comment goes here
ASCII

DATASET STRUCTURED_POINTS
FIELD FieldData 1
TIME 1 1 double
0.47000000
DIMENSIONS    128   16   1

ORIGIN    0.000   0.000   0.000
SPACING   0.0078125 0.015625   1.000

POINT_DATA   2048
SCALARS fX double
LOOKUP_TABLE default

0 0 0 0 0 0 0 0 0 0 0 0 0 0 0 0 0 0 0 0 0 0 0 0 0 0 0 0 0 0 0 0 0 0 0 0 0 0 0 0 0 0 0 0 0 0 0 0 0 0 0 0 0 0 0 0 0 0 0 0 0 0 0 0 0 0 0 0 0 0 0 0 0 0 0 0 0 0 0 0 0 0 0 0 0 0 0 0 0 0 0 0 0 0 0 0 0 0 0 0 0 0 0 0 0 0 0 0 0 0 0 0 0 0 0 0 0 0 0 0 0 0 0 0 0 0 0 0 
0 0 0 0 0 0 0 0 0 0 0 0 0 0 0 0 0 0 0 0 0 0 0 0 0 0 0 0 0 0 0 0 0 0 0 0 0 0 0 0 0 0 0 0 0 0 0 0 0 0 0 0 0 0 0 0 0 0 0 0 0 0 0 0 0 0 0 0 0 0 0 0 0 0 0 0 0 0 0 0 0 0 0 0 0 0 0 0 0 0 0 0 0 0 0 0 0 0 0 0 0 0 0 0 0 0 0 0 0 0 0 0 0 0 0 0 0 0 0 0 0 0 0 0 0 0 0 0 
0 0 0 0 0 1.690774e+00 1.393668e+00 -2.520147e-01 6.171620e-01 3.483792e-01 5.771270e-01 3.608958e-01 -3.741577e-02 -2.140342e+00 -2.968861e+00 -2.203682e+00 -2.101446e+00 -2.456726e+00 -1.796069e+00 -2.665244e+00 -2.574515e+00 3.185264e-01 4.219096e-01 5.492350e-01 4.609853e-01 5.879249e-01 5.130360e-01 6.307190e-01 5.667676e-01 6.660681e-01 6.125388e-01 6.869477e-01 6.450980e-01 6.934343e-01 6.636605e-01 6.854572e-01 6.642485e-01 6.630602e-01 6.542254e-01 6.426520e-01 6.519801e-01 6.402083e-01 6.651002e-01 6.517087e-01 6.842261e-01 6.654092e-01 6.976535e-01 6.745503e-01 6.987074e-01 6.757118e-01 6.868593e-01 6.699393e-01 6.680221e-01 6.620893e-01 6.422296e-01 1.535766e-01 -6.291796e-01 1.544325e+00 -6.721807e-01 -4.310161e+00 4.092317e+00 2.004443e+00 -6.017592e+00 1.116717e+00 -1.908606e+00 -4.798937e+00 1.715481e+00 -5.209633e+00 -2.809200e+00 7.768671e+00 1.916306e+00 -3.837623e+00 -1.571697e+00 2.624650e-01 4.036654e-01 3.817646e-01 4.133112e-01 3.818837e-01 4.084362e-01 3.744481e-01 3.924725e-01 3.556769e-01 3.667935e-01 3.261998e-01 3.327734e-01 2.887232e-01 2.946891e-01 2.501776e-01 2.590894e-01 2.170381e-01 2.300336e-01 1.923440e-01 2.089436e-01 1.787207e-01 1.962340e-01 1.748351e-01 1.889266e-01 1.767358e-01 1.806732e-01 1.805462e-01 1.703891e-01 1.886765e-01 1.625020e-01 2.057940e-01 1.627190e-01 2.356490e-01 1.727532e-01 2.739146e-01 1.869645e-01 3.100070e-01 1.992110e-01 3.388716e-01 2.133859e-01 3.639093e-01 2.356566e-01 3.850414e-01 2.632002e-01 4.003725e-01 2.901628e-01 4.337938e-01 1.644693e-01 3.645212e-01 1.522827e+00 3.236585e-01 0 0 0 0 
0 0 0 0 0 4.971576e+00 4.085716e+00 -7.608601e-01 1.806168e+00 1.022890e+00 1.696937e+00 1.061101e+00 -1.106210e-01 -6.296131e+00 -8.732929e+00 -6.482590e+00 -6.182013e+00 -7.227415e+00 -5.283895e+00 -7.840569e+00 -7.573063e+00 9.377074e-01 1.241766e+00 1.616193e+00 1.356437e+00 1.729762e+00 1.509367e+00 1.855511e+00 1.667334e+00 1.959435e+00 1.801951e+00 2.020850e+00 1.897745e+00 2.039955e+00 1.952383e+00 2.016526e+00 1.954148e+00 1.950668e+00 1.924682e+00 1.890629e+00 1.918063e+00 1.883409e+00 1.956619e+00 1.917197e+00 2.012838e+00 1.957465e+00 2.052307e+00 1.984329e+00 2.055385e+00 1.987727e+00 2.020518e+00 1.970738e+00 1.965097e+00 1.947635e+00 1.889203e+00 4.517247e-01 -1.957547e+00 4.941198e+00 1.218639e+00 -8.482707e+00 1.435735e+01 9.444242e+00 -1.275513e+01 6.640342e+00 -1.249129e+00 -8.642553e+00 8.904216e+00 -9.525959e+00 -1.732049e+00 2.609799e+01 7.732785e+00 -1.002231e+01 -4.545921e+00 7.720851e-01 1.187444e+00 1.123023e+00 1.215814e+00 1.123354e+00 1.201448e+00 1.101457e+00 1.154467e+00 1.046226e+00 1.078922e+00 9.595124e-01 9.788494e-01 8.492767e-01 8.668305e-01 7.359081e-01 7.621331e-01 6.384537e-01 6.766933e-01 5.658480e-01 6.146885e-01 5.258062e-01 5.773312e-01 5.143967e-01 5.558518e-01 5.199897e-01 5.315590e-01 5.311714e-01 5.012632e-01 5.550306e-01 4.780050e-01 6.053209e-01 4.786020e-01 6.931144e-01 5.081303e-01 8.057281e-01 5.500372e-01 9.120501e-01 5.862737e-01 9.972015e-01 6.282624e-01 1.071140e+00 6.940546e-01 1.133541e+00 7.752066e-01 1.178623e+00 8.542696e-01 1.276481e+00 4.859200e-01 1.076719e+00 4.481955e+00 9.522044e-01 0 0 0 0 
0 0 0 0 0 3.433530e+00 2.815790e+00 -5.350890e-01 1.243256e+00 7.057184e-01 1.171933e+00 7.327901e-01 -7.669084e-02 -2.405746e+01 -3.668307e+01 -2.659039e+01 -2.534923e+01 -2.930516e+01 -2.227987e+01 -3.394935e+01 -2.772577e+01 6.481480e-01 8.581737e-01 1.116783e+00 9.372597e-01 1.195123e+00 1.042819e+00 1.281929e+00 1.151903e+00 1.353695e+00 1.244889e+00 1.396120e+00 1.311075e+00 1.409329e+00 1.348838e+00 1.393161e+00 1.350074e+00 1.347676e+00 1.329726e+00 1.306198e+00 1.325146e+00 1.301194e+00 1.351763e+00 1.324516e+00 1.390581e+00 1.352318e+00 1.417834e+00 1.370863e+00 1.419949e+00 1.373202e+00 1.395855e+00 1.361462e+00 1.357564e+00 1.345496e+00 1.305124e+00 3.120462e-01 -1.377838e+00 3.856351e+00 2.875356e+00 -3.286851e+00 1.146892e+01 8.697625e+00 -5.702378e+00 6.721837e+00 1.678375e+00 -2.574620e+00 8.435527e+00 -3.235742e+00 2.788419e+00 1.986453e+01 6.451993e+00 -6.188610e+00 -3.093418e+00 5.333863e-01 8.203300e-01 7.758272e-01 8.399270e-01 7.760459e-01 8.299890e-01 7.609079e-01 7.975235e-01 7.227453e-01 7.453309e-01 6.628396e-01 6.761982e-01 5.866885e-01 5.988174e-01 5.083786e-01 5.265005e-01 4.410683e-01 4.674912e-01 3.909271e-01 4.246728e-01 3.632809e-01 3.988796e-01 3.554087e-01 3.840488e-01 3.592734e-01 3.672596e-01 3.669850e-01 3.463091e-01 3.834400e-01 3.302138e-01 4.181517e-01 3.306061e-01 4.787883e-01 3.510106e-01 5.566099e-01 3.800111e-01 6.301340e-01 4.051471e-01 6.890768e-01 4.342955e-01 7.402952e-01 4.798825e-01 7.835190e-01 5.360074e-01 8.146554e-01 5.905051e-01 8.820381e-01 3.367127e-01 7.459803e-01 3.097424e+00 6.578723e-01 0 0 0 0 
0 0 0 0 0 1.527280e-01 1.237423e-01 -2.624356e-02 5.424964e-02 3.120797e-02 5.212243e-02 3.258533e-02 -3.485565e-03 -2.639425e+01 -2.878798e+01 -2.696861e+01 -2.726700e+01 -2.774341e+01 -2.642562e+01 -2.838294e+01 -2.670059e+01 2.896696e-02 3.831763e-02 4.982560e-02 4.180753e-02 5.328624e-02 4.648802e-02 5.713711e-02 5.133695e-02 6.032735e-02 5.547688e-02 6.221696e-02 5.842796e-02 6.280845e-02 6.011468e-02 6.209252e-02 6.017415e-02 6.006910e-02 5.926976e-02 5.822040e-02 5.906387e-02 5.799359e-02 6.024504e-02 5.902753e-02 6.196937e-02 6.026211e-02 6.318004e-02 6.108514e-02 6.327148e-02 6.118712e-02 6.219625e-02 6.066296e-02 6.048905e-02 5.995021e-02 5.815000e-02 1.389818e-02 -2.978195e-02 5.573012e-01 1.040442e+00 8.940883e-01 1.272848e+00 1.275228e+00 1.043226e+00 1.234320e+00 1.005832e+00 1.280750e+00 1.253277e+00 1.063505e+00 1.723603e+00 1.515141e+00 5.916958e-01 -2.736653e-02 -1.228625e-01 2.376627e-02 3.655105e-02 3.456861e-02 3.742369e-02 3.457590e-02 3.697762e-02 3.389853e-02 3.552858e-02 3.219650e-02 3.320225e-02 2.952707e-02 3.012225e-02 2.613498e-02 2.667593e-02 2.264813e-02 2.345677e-02 1.965277e-02 2.083148e-02 1.742306e-02 1.892790e-02 1.619535e-02 1.778235e-02 1.584712e-02 1.712356e-02 1.601952e-02 1.637377e-02 1.635980e-02 1.543492e-02 1.708592e-02 1.471075e-02 1.862475e-02 1.472313e-02 2.132284e-02 1.563364e-02 2.479639e-02 1.693840e-02 2.809091e-02 1.808440e-02 3.074692e-02 1.941896e-02 3.306429e-02 2.148451e-02 3.501940e-02 2.400102e-02 3.640467e-02 2.639830e-02 3.935090e-02 1.526199e-02 3.378240e-02 1.382961e-01 2.932638e-02 0 0 0 0 
0 0 0 0 0 0 0 0 0 0 0 0 0 -2.901060e+01 -3.179218e+01 -2.971258e+01 -3.006824e+01 -3.067857e+01 -2.905032e+01 -3.156638e+01 -2.916324e+01 0 0 0 0 0 0 0 0 0 0 0 0 0 0 0 0 0 0 0 0 0 0 0 0 0 0 0 0 0 0 0 0 0 0 0 1.951128e-02 9.637722e-02 5.492693e-02 1.129269e-02 7.137951e-02 1.312433e-02 4.078308e-03 3.869016e-02 -8.449369e-03 1.853086e-02 1.701888e-02 -1.962416e-03 3.280483e-02 -5.651319e-03 -4.642975e-02 -3.022720e-02 -4.666301e-03 0 0 0 0 0 0 0 0 0 0 0 0 0 0 0 0 0 0 0 0 0 0 0 0 0 0 0 0 0 0 0 0 0 0 0 0 0 0 0 0 0 0 0 0 0 0 0 0 0 0 0 0 0 0 0 
0 0 0 0 0 0 0 0 0 0 0 0 0 -2.811527e+01 -2.894653e+01 -2.826081e+01 -2.845255e+01 -2.858728e+01 -2.811287e+01 -2.898473e+01 -2.805573e+01 0 0 0 0 0 0 0 0 0 0 0 0 0 0 0 0 0 0 0 0 0 0 0 0 0 0 0 0 0 0 0 0 0 0 0 -1.769391e-04 -1.446267e-03 -9.792800e-04 2.898598e-03 2.426390e-03 -4.277936e-03 -3.984764e-03 2.582140e-03 4.616130e-03 6.777316e-03 1.053304e-02 1.511621e-02 2.047021e-02 1.442422e-02 -2.612201e-03 -6.779377e-03 -9.976901e-04 0 0 0 0 0 0 0 0 0 0 0 0 0 0 0 0 0 0 0 0 0 0 0 0 0 0 0 0 0 0 0 0 0 0 0 0 0 0 0 0 0 0 0 0 0 0 0 0 0 0 0 0 0 0 0 
0 0 0 0 0 0 0 0 0 0 0 0 0 -3.015286e+01 -3.138418e+01 -3.045295e+01 -3.066576e+01 -3.098181e+01 -3.010593e+01 -3.152379e+01 -2.994220e+01 0 0 0 0 0 0 0 0 0 0 0 0 0 0 0 0 0 0 0 0 0 0 0 0 0 0 0 0 0 0 0 0 0 0 0 0 0 0 0 0 0 0 0 0 0 0 0 0 0 0 0 0 0 0 0 0 0 0 0 0 0 0 0 0 0 0 0 0 0 0 0 0 0 0 0 0 0 0 0 0 0 0 0 0 0 0 0 0 0 0 0 0 0 0 0 0 0 0 0 0 0 0 0 0 0 0 0 
0 0 0 0 0 0 0 0 0 0 0 0 0 -2.810809e+01 -2.893975e+01 -2.824716e+01 -2.843867e+01 -2.856534e+01 -2.809029e+01 -2.895040e+01 -2.801879e+01 0 0 0 0 0 0 0 0 0 0 0 0 0 0 0 0 0 0 0 0 0 0 0 0 0 0 0 0 0 0 0 0 0 0 0 0 0 0 0 0 0 0 0 0 0 0 0 0 0 0 0 0 0 0 0 0 0 0 0 0 0 0 0 0 0 0 0 0 0 0 0 0 0 0 0 0 0 0 0 0 0 0 0 0 0 0 0 0 0 0 0 0 0 0 0 0 0 0 0 0 0 0 0 0 0 0 0 
0 0 0 0 0 0 0 0 0 0 0 0 0 -2.901134e+01 -3.178762e+01 -2.970139e+01 -3.005165e+01 -3.065537e+01 -2.900124e+01 -3.151929e+01 -2.905200e+01 0 0 0 0 0 0 0 0 0 0 0 0 0 0 0 0 0 0 0 0 0 0 0 0 0 0 0 0 0 0 0 0 0 0 0 0 0 0 0 0 0 0 0 0 0 0 0 0 0 0 0 0 0 0 0 0 0 0 0 0 0 0 0 0 0 0 0 0 0 0 0 0 0 0 0 0 0 0 0 0 0 0 0 0 0 0 0 0 0 0 0 0 0 0 0 0 0 0 0 0 0 0 0 0 0 0 0 
0 0 0 0 0 1.523262e-01 1.216509e-01 -3.068076e-02 4.844235e-02 2.563377e-02 4.706106e-02 2.880418e-02 -6.124246e-03 -2.638207e+01 -2.876503e+01 -2.693563e+01 -2.723171e+01 -2.769307e+01 -2.637858e+01 -2.829585e+01 -2.658812e+01 3.084913e-02 3.986845e-02 5.066233e-02 4.166808e-02 5.143726e-02 4.289603e-02 5.133087e-02 4.373734e-02 5.080131e-02 4.477507e-02 5.053769e-02 4.658810e-02 5.131968e-02 4.974434e-02 5.350835e-02 5.391847e-02 5.635552e-02 5.795912e-02 5.880794e-02 6.102487e-02 6.036003e-02 6.272348e-02 6.066356e-02 6.283864e-02 5.975075e-02 6.180964e-02 5.833087e-02 6.042787e-02 5.709803e-02 5.925580e-02 5.638969e-02 5.837575e-02 5.581023e-02 5.701017e-02 5.421281e-02 5.425992e-02 5.157909e-02 5.196742e-02 4.722304e-02 5.012384e-02 4.845715e-02 4.489765e-02 4.824473e-02 4.730059e-02 4.650206e-02 5.065633e-02 4.836662e-02 4.912837e-02 5.271637e-02 4.849221e-02 4.665883e-02 4.471208e-02 4.360177e-02 4.167031e-02 4.007946e-02 3.821780e-02 3.638998e-02 3.456029e-02 3.265783e-02 3.104742e-02 2.932459e-02 2.832842e-02 2.700124e-02 2.683058e-02 2.574656e-02 2.623737e-02 2.507465e-02 2.598927e-02 2.453944e-02 2.570002e-02 2.396798e-02 2.518867e-02 2.334076e-02 2.447416e-02 2.289443e-02 2.374456e-02 2.290565e-02 2.314208e-02 2.346583e-02 2.254891e-02 2.425748e-02 2.150285e-02 2.483927e-02 1.996289e-02 2.547462e-02 1.862991e-02 2.674429e-02 1.820507e-02 2.884092e-02 1.883370e-02 3.131410e-02 2.023650e-02 3.357815e-02 2.226842e-02 3.551990e-02 2.516074e-02 3.757789e-02 2.851524e-02 4.142699e-02 1.808843e-02 3.529482e-02 1.394468e-01 2.956480e-02 0 0 0 0 
0 0 0 0 0 3.424492e+00 2.768769e+00 -6.348074e-01 1.112801e+00 5.805304e-01 1.058271e+00 6.478761e-01 -1.359538e-01 -2.414188e+01 -3.678586e+01 -2.658411e+01 -2.539678e+01 -2.928401e+01 -2.224884e+01 -3.377919e+01 -2.720146e+01 6.904939e-01 8.930677e-01 1.135635e+00 9.341957e-01 1.153687e+00 9.622653e-01 1.151688e+00 9.813928e-01 1.139937e+00 1.004733e+00 1.134020e+00 1.045375e+00 1.151528e+00 1.116145e+00 1.200601e+00 1.209778e+00 1.264447e+00 1.300423e+00 1.319449e+00 1.369207e+00 1.354302e+00 1.407368e+00 1.361198e+00 1.410052e+00 1.340834e+00 1.387083e+00 1.309073e+00 1.356165e+00 1.281473e+00 1.329914e+00 1.265600e+00 1.310164e+00 1.252577e+00 1.279491e+00 1.216702e+00 1.217752e+00 1.157585e+00 1.166313e+00 1.059834e+00 1.124970e+00 1.087571e+00 1.007706e+00 1.082849e+00 1.061676e+00 1.043760e+00 1.137025e+00 1.085644e+00 1.102775e+00 1.183323e+00 1.088526e+00 1.047383e+00 1.003705e+00 9.787938e-01 9.354583e-01 8.997591e-01 8.579801e-01 8.169547e-01 7.758799e-01 7.331719e-01 6.970098e-01 6.583315e-01 6.359608e-01 6.061623e-01 6.023206e-01 5.779738e-01 5.889697e-01 5.628477e-01 5.833506e-01 5.507755e-01 5.768014e-01 5.378838e-01 5.652591e-01 5.237408e-01 5.491521e-01 5.136702e-01 5.327527e-01 5.139253e-01 5.192857e-01 5.265895e-01 5.060861e-01 5.445050e-01 4.827205e-01 5.576751e-01 4.482136e-01 5.719337e-01 4.182132e-01 6.002677e-01 4.083526e-01 6.469025e-01 4.218604e-01 7.016761e-01 4.525385e-01 7.516281e-01 4.973301e-01 7.946163e-01 5.618906e-01 8.409546e-01 6.379615e-01 9.286530e-01 4.001329e-01 7.797870e-01 3.123219e+00 6.632304e-01 0 0 0 0 
0 0 0 0 0 4.958488e+00 4.017631e+00 -9.052382e-01 1.617301e+00 8.416562e-01 1.532392e+00 9.381726e-01 -1.964161e-01 -6.327391e+00 -8.746554e+00 -6.453535e+00 -6.136531e+00 -7.136099e+00 -5.182494e+00 -7.742274e+00 -7.475906e+00 9.990302e-01 1.292298e+00 1.643499e+00 1.352019e+00 1.669798e+00 1.392780e+00 1.667002e+00 1.420530e+00 1.650027e+00 1.454328e+00 1.641463e+00 1.513146e+00 1.666794e+00 1.615570e+00 1.737816e+00 1.751093e+00 1.830220e+00 1.882294e+00 1.909828e+00 1.981854e+00 1.960283e+00 2.037102e+00 1.970286e+00 2.041012e+00 1.940840e+00 2.007797e+00 1.894892e+00 1.963067e+00 1.854958e+00 1.925080e+00 1.831987e+00 1.896493e+00 1.813133e+00 1.852087e+00 1.761196e+00 1.762715e+00 1.675622e+00 1.688258e+00 1.534129e+00 1.628421e+00 1.574288e+00 1.458688e+00 1.567465e+00 1.536820e+00 1.510888e+00 1.645899e+00 1.571525e+00 1.596332e+00 1.712931e+00 1.575714e+00 1.516160e+00 1.452938e+00 1.416880e+00 1.354155e+00 1.302480e+00 1.242005e+00 1.182619e+00 1.123160e+00 1.061337e+00 1.008987e+00 9.529960e-01 9.206106e-01 8.774736e-01 8.719096e-01 8.366626e-01 8.525746e-01 8.147556e-01 8.444279e-01 7.972657e-01 8.349332e-01 7.785878e-01 8.182087e-01 7.580987e-01 7.948756e-01 7.435077e-01 7.711308e-01 7.438778e-01 7.516508e-01 7.622328e-01 7.325730e-01 7.882035e-01 6.987791e-01 8.072962e-01 6.488437e-01 8.279356e-01 6.053962e-01 8.689086e-01 5.910400e-01 9.363064e-01 6.104401e-01 1.015406e+00 6.546427e-01 1.087494e+00 7.192733e-01 1.149570e+00 8.126362e-01 1.216684e+00 9.229498e-01 1.343962e+00 5.777184e-01 1.125620e+00 4.519286e+00 9.599623e-01 0 0 0 0 
0 0 0 0 0 1.686323e+00 1.370513e+00 -3.011116e-01 5.529431e-01 2.867595e-01 5.211821e-01 3.191007e-01 -6.658650e-02 -2.150969e+00 -2.973492e+00 -2.193803e+00 -2.085980e+00 -2.425678e+00 -1.761588e+00 -2.631815e+00 -2.541470e+00 3.393854e-01 4.390987e-01 5.585265e-01 4.594913e-01 5.675478e-01 4.734106e-01 5.666454e-01 4.828742e-01 5.608911e-01 4.943700e-01 5.579798e-01 5.143589e-01 5.665857e-01 5.491689e-01 5.907234e-01 5.952336e-01 6.221290e-01 6.398295e-01 6.491864e-01 6.736715e-01 6.663409e-01 6.924575e-01 6.697517e-01 6.937992e-01 6.597565e-01 6.825234e-01 6.441498e-01 6.673289e-01 6.305832e-01 6.544222e-01 6.227772e-01 6.447043e-01 6.163655e-01 6.296058e-01 5.987069e-01 5.992225e-01 5.696158e-01 5.739128e-01 5.215177e-01 5.535757e-01 5.351743e-01 4.958792e-01 5.328603e-01 5.224447e-01 5.136303e-01 5.595301e-01 5.342479e-01 5.426850e-01 5.823249e-01 5.356798e-01 5.154352e-01 4.939448e-01 4.816882e-01 4.603666e-01 4.428008e-01 4.222429e-01 4.020547e-01 3.818406e-01 3.608228e-01 3.430243e-01 3.239891e-01 3.129782e-01 2.983125e-01 2.964196e-01 2.844354e-01 2.898422e-01 2.769826e-01 2.870666e-01 2.710296e-01 2.838318e-01 2.646720e-01 2.781383e-01 2.576987e-01 2.701976e-01 2.527319e-01 2.621226e-01 2.528582e-01 2.555072e-01 2.591092e-01 2.490358e-01 2.679560e-01 2.375615e-01 2.744603e-01 2.205929e-01 2.814765e-01 2.058129e-01 2.953852e-01 2.008925e-01 3.182449e-01 2.074134e-01 3.450442e-01 2.223407e-01 3.694440e-01 2.442116e-01 3.904737e-01 2.759064e-01 4.133072e-01 3.135035e-01 4.567362e-01 1.956739e-01 3.811278e-01 1.535514e+00 3.262967e-01 0 0 0 0 
0 0 0 0 0 0 0 0 0 0 0 0 0 0 0 0 0 0 0 0 0 0 0 0 0 0 0 0 0 0 0 0 0 0 0 0 0 0 0 0 0 0 0 0 0 0 0 0 0 0 0 0 0 0 0 0 0 0 0 0 0 0 0 0 0 0 0 0 0 0 0 0 0 0 0 0 0 0 0 0 0 0 0 0 0 0 0 0 0 0 0 0 0 0 0 0 0 0 0 0 0 0 0 0 0 0 0 0 0 0 0 0 0 0 0 0 0 0 0 0 0 0 0 0 0 0 0 0 
