# vtk DataFile Version 2.0
Comment goes here
ASCII

DATASET STRUCTURED_POINTS
FIELD FieldData 1
TIME 1 1 double
0.69000000
DIMENSIONS    128   16   1

ORIGIN    0.000   0.000   0.000
SPACING   0.0078125 0.015625   1.000

POINT_DATA   2048
SCALARS fY double
LOOKUP_TABLE default

0 0 0 0 0 0 0 0 0 0 0 0 0 0 0 0 0 0 0 0 0 0 0 0 0 0 0 0 0 0 0 0 0 0 0 0 0 0 0 0 0 0 0 0 0 0 0 0 0 0 0 0 0 0 0 0 0 0 0 0 0 0 0 0 0 0 0 0 0 0 0 0 0 0 0 0 0 0 0 0 0 0 0 0 0 0 0 0 0 0 0 0 0 0 0 0 0 0 0 0 0 0 0 0 0 0 0 0 0 0 0 0 0 0 0 0 0 0 0 0 0 0 0 0 0 0 0 0 
0 0 0 0 0 0 0 0 0 0 0 0 0 0 0 0 0 0 0 0 0 0 0 0 0 0 0 0 0 0 0 0 0 0 0 0 0 0 0 0 0 0 0 0 0 0 0 0 0 0 0 0 0 0 0 0 0 0 0 0 0 0 0 0 0 0 0 0 0 0 0 0 0 0 0 0 0 0 0 0 0 0 0 0 0 0 0 0 0 0 0 0 0 0 0 0 0 0 0 0 0 0 0 0 0 0 0 0 0 0 0 0 0 0 0 0 0 0 0 0 0 0 0 0 0 0 0 0 
0 0 0 0 0 -5.698845e-01 -1.507758e+00 -1.137019e+00 -1.969828e+00 -1.570081e+00 -2.406576e+00 -1.926254e+00 -2.787731e+00 -1.585802e+00 3.107876e+00 5.752547e+00 9.784300e+00 1.351883e+01 1.700763e+01 2.064346e+01 2.506677e+01 2.583669e+01 2.535931e+01 2.543673e+01 2.505320e+01 2.500184e+01 2.469716e+01 2.451463e+01 2.423893e+01 2.394182e+01 2.371515e+01 2.339297e+01 2.324139e+01 2.292556e+01 2.280448e+01 2.248200e+01 2.233766e+01 2.199636e+01 2.180619e+01 2.148075e+01 2.127824e+01 2.100333e+01 2.078163e+01 2.053109e+01 2.027073e+01 2.003621e+01 1.975600e+01 1.955322e+01 1.929308e+01 1.913259e+01 1.888224e+01 1.868283e+01 1.836298e+01 1.806766e+01 1.771305e+01 1.739735e+01 1.689860e+01 1.673618e+01 1.769952e+01 1.667314e+01 1.636180e+01 1.810125e+01 1.645736e+01 1.582622e+01 1.755366e+01 1.564505e+01 1.712038e+01 1.770155e+01 1.555296e+01 1.665583e+01 1.704617e+01 1.557755e+01 1.401991e+01 1.371830e+01 1.331844e+01 1.307733e+01 1.266361e+01 1.245729e+01 1.207719e+01 1.193319e+01 1.159010e+01 1.148280e+01 1.116400e+01 1.103863e+01 1.068742e+01 1.046290e+01 1.008244e+01 9.808113e+00 9.514738e+00 9.263548e+00 9.100354e+00 8.839564e+00 8.738494e+00 8.368704e+00 8.252346e+00 7.774760e+00 7.702896e+00 7.223201e+00 7.225051e+00 6.752850e+00 6.756823e+00 6.273064e+00 6.204559e+00 5.714905e+00 5.561319e+00 5.183285e+00 5.023235e+00 4.838164e+00 4.603147e+00 4.516150e+00 4.087516e+00 4.044972e+00 3.427566e+00 3.461180e+00 2.764344e+00 2.931674e+00 2.256576e+00 2.485068e+00 1.846077e+00 1.987319e+00 1.469335e+00 1.325524e+00 1.149992e+00 -5.546278e-01 0 0 0 0 
0 0 0 0 0 -1.676419e+00 -4.436017e+00 -3.345909e+00 -5.795061e+00 -4.619611e+00 -7.081049e+00 -5.669236e+00 -8.204203e+00 -4.669295e+00 9.138021e+00 1.691663e+01 2.877376e+01 3.975500e+01 5.001321e+01 6.070206e+01 7.370560e+01 7.596916e+01 7.456594e+01 7.479350e+01 7.366607e+01 7.351509e+01 7.261944e+01 7.208286e+01 7.127240e+01 7.039904e+01 6.973272e+01 6.878567e+01 6.834008e+01 6.741168e+01 6.705578e+01 6.610780e+01 6.568348e+01 6.468015e+01 6.412111e+01 6.316440e+01 6.256905e+01 6.176087e+01 6.110913e+01 6.037257e+01 5.960717e+01 5.891770e+01 5.809392e+01 5.749777e+01 5.673300e+01 5.626118e+01 5.552517e+01 5.493891e+01 5.399856e+01 5.313031e+01 5.208777e+01 5.115958e+01 5.001797e+01 4.901096e+01 4.986290e+01 4.955708e+01 4.908410e+01 4.957372e+01 4.831470e+01 4.725788e+01 4.843808e+01 4.602285e+01 4.707678e+01 4.697508e+01 4.557747e+01 4.580767e+01 4.439338e+01 4.321043e+01 4.109457e+01 4.034249e+01 3.916679e+01 3.845783e+01 3.724138e+01 3.663471e+01 3.551707e+01 3.509365e+01 3.408478e+01 3.376926e+01 3.283181e+01 3.246312e+01 3.143035e+01 3.077012e+01 2.965130e+01 2.884462e+01 2.798190e+01 2.724327e+01 2.676339e+01 2.599655e+01 2.569937e+01 2.461200e+01 2.426986e+01 2.286545e+01 2.265412e+01 2.124343e+01 2.124881e+01 1.986007e+01 1.987162e+01 1.844880e+01 1.824718e+01 1.680696e+01 1.635517e+01 1.524325e+01 1.477251e+01 1.422821e+01 1.353713e+01 1.328139e+01 1.202101e+01 1.189608e+01 1.008054e+01 1.017956e+01 8.130230e+00 8.622268e+00 6.636324e+00 7.307141e+00 5.424379e+00 5.829373e+00 4.270844e+00 3.839165e+00 3.361298e+00 -1.631733e+00 0 0 0 0 
0 0 0 0 0 -1.158139e+00 -3.064908e+00 -2.312054e+00 -4.003686e+00 -3.191868e+00 -4.892688e+00 -3.917902e+00 -5.669537e+00 -7.124431e+00 9.022522e+00 8.410224e+00 2.395712e+01 2.304411e+01 3.915829e+01 3.749987e+01 5.430404e+01 5.246606e+01 5.149718e+01 5.165429e+01 5.087581e+01 5.077155e+01 5.015310e+01 4.978259e+01 4.922297e+01 4.861992e+01 4.815983e+01 4.750591e+01 4.719823e+01 4.655718e+01 4.631143e+01 4.565685e+01 4.536385e+01 4.467104e+01 4.428501e+01 4.362438e+01 4.321327e+01 4.265519e+01 4.220515e+01 4.169652e+01 4.116799e+01 4.069188e+01 4.012303e+01 3.971137e+01 3.918325e+01 3.885744e+01 3.834919e+01 3.794435e+01 3.729498e+01 3.669540e+01 3.597545e+01 3.533447e+01 3.519872e+01 3.483231e+01 3.285380e+01 3.362205e+01 3.413718e+01 3.100710e+01 3.275413e+01 3.215329e+01 2.869616e+01 3.053859e+01 2.764733e+01 2.599049e+01 2.839097e+01 2.621909e+01 2.588346e+01 2.733933e+01 2.821862e+01 2.786425e+01 2.705229e+01 2.656268e+01 2.572257e+01 2.530359e+01 2.453171e+01 2.423928e+01 2.354251e+01 2.332459e+01 2.267713e+01 2.242248e+01 2.170918e+01 2.125318e+01 2.048044e+01 1.992331e+01 1.932745e+01 1.881731e+01 1.848588e+01 1.795627e+01 1.775103e+01 1.700004e+01 1.676375e+01 1.579377e+01 1.564780e+01 1.467345e+01 1.467714e+01 1.371788e+01 1.372581e+01 1.274297e+01 1.260364e+01 1.160878e+01 1.129665e+01 1.052856e+01 1.020340e+01 9.827429e+00 9.350133e+00 9.173537e+00 8.303081e+00 8.216879e+00 6.962957e+00 7.031427e+00 5.615926e+00 5.955752e+00 4.583770e+00 5.046553e+00 3.744383e+00 4.019085e+00 2.925536e+00 2.623132e+00 2.311652e+00 -1.127362e+00 0 0 0 0 
0 0 0 0 0 -5.160448e-02 -1.366494e-01 -1.031636e-01 -1.784527e-01 -1.423384e-01 -2.182145e-01 -1.749201e-01 -2.530651e-01 -3.153466e+00 3.075563e+00 -2.247809e+00 4.901733e+00 -3.085993e+00 5.786651e+00 -2.723881e+00 4.712445e+00 2.333589e+00 2.290549e+00 2.297528e+00 2.262939e+00 2.258305e+00 2.230824e+00 2.214361e+00 2.189494e+00 2.162703e+00 2.142260e+00 2.113208e+00 2.099538e+00 2.071056e+00 2.060138e+00 2.031053e+00 2.018033e+00 1.987245e+00 1.970090e+00 1.940730e+00 1.922459e+00 1.897655e+00 1.877653e+00 1.855046e+00 1.831555e+00 1.810393e+00 1.785109e+00 1.766811e+00 1.743337e+00 1.728854e+00 1.706262e+00 1.688265e+00 1.659398e+00 1.632743e+00 1.600736e+00 1.572240e+00 2.088240e+00 2.399180e+00 6.607857e-01 5.106147e-01 8.965599e-01 -5.274813e-01 3.284501e-01 3.334764e-01 -2.488618e+00 -2.731929e-01 -2.995521e+00 -3.428911e+00 -2.345468e+00 -3.527157e+00 -1.722519e+00 -1.487754e+00 1.004307e+00 1.240056e+00 1.203946e+00 1.182169e+00 1.144805e+00 1.126169e+00 1.091835e+00 1.078826e+00 1.047829e+00 1.038133e+00 1.009326e+00 9.979948e-01 9.662562e-01 9.459673e-01 9.115828e-01 8.867954e-01 8.602814e-01 8.375867e-01 8.228414e-01 7.992819e-01 7.901538e-01 7.567443e-01 7.462335e-01 7.030745e-01 6.965795e-01 6.532155e-01 6.533725e-01 6.106689e-01 6.110062e-01 5.672420e-01 5.610214e-01 5.167159e-01 5.028087e-01 4.686010e-01 4.541226e-01 4.373839e-01 4.161494e-01 4.083019e-01 3.695816e-01 3.657677e-01 3.099779e-01 3.130455e-01 2.500396e-01 2.651578e-01 2.040223e-01 2.244791e-01 1.660812e-01 1.770305e-01 1.240266e-01 1.094918e-01 1.003462e-01 -5.025714e-02 0 0 0 0 
0 0 0 0 0 0 0 0 0 0 0 0 0 -1.584871e+00 4.489625e-01 -1.510434e+00 1.212779e+00 -1.336292e+00 1.547024e+00 -7.060982e-01 1.348289e+00 0 0 0 0 0 0 0 0 0 0 0 0 0 0 0 0 0 0 0 0 0 0 0 0 0 0 0 0 0 0 0 0 0 0 0 -2.869797e-03 -2.298418e-01 -6.896743e-02 -1.987231e-01 -5.384731e-01 -9.144993e-02 -5.790740e-01 -3.561855e-01 -2.905104e-01 -4.632832e-01 -7.891271e-01 -2.467055e-01 -7.789923e-01 -6.591181e-01 -4.014217e-01 -1.360996e+00 -1.568678e-01 0 0 0 0 0 0 0 0 0 0 0 0 0 0 0 0 0 0 0 0 0 0 0 0 0 0 0 0 0 0 0 0 0 0 0 0 0 0 0 0 0 0 0 0 0 0 0 0 0 0 0 0 0 0 0 
0 0 0 0 0 0 0 0 0 0 0 0 0 -7.901887e-01 4.299795e-01 -8.901811e-01 8.709929e-01 -9.430823e-01 9.609939e-01 -6.267627e-01 6.443073e-01 0 0 0 0 0 0 0 0 0 0 0 0 0 0 0 0 0 0 0 0 0 0 0 0 0 0 0 0 0 0 0 0 0 0 0 -1.175916e-02 -7.149483e-02 -3.932620e-02 2.877090e-02 -2.015881e-02 -2.934366e-02 -1.073744e-02 3.197334e-02 9.842163e-03 -2.929827e-02 -1.026707e-01 -1.008286e-01 -6.706595e-02 -6.471638e-02 -1.426493e-01 -1.667964e-01 -1.720848e-02 0 0 0 0 0 0 0 0 0 0 0 0 0 0 0 0 0 0 0 0 0 0 0 0 0 0 0 0 0 0 0 0 0 0 0 0 0 0 0 0 0 0 0 0 0 0 0 0 0 0 0 0 0 0 0 
0 0 0 0 0 0 0 0 0 0 0 0 0 1.835845e-03 -3.915002e-04 2.186057e-04 -1.617506e-03 -1.512048e-03 -3.741064e-03 -4.129304e-03 -5.912935e-03 0 0 0 0 0 0 0 0 0 0 0 0 0 0 0 0 0 0 0 0 0 0 0 0 0 0 0 0 0 0 0 0 0 0 0 0 0 0 0 0 0 0 0 0 0 0 0 0 0 0 0 0 0 0 0 0 0 0 0 0 0 0 0 0 0 0 0 0 0 0 0 0 0 0 0 0 0 0 0 0 0 0 0 0 0 0 0 0 0 0 0 0 0 0 0 0 0 0 0 0 0 0 0 0 0 0 0 
0 0 0 0 0 0 0 0 0 0 0 0 0 7.947317e-01 -4.265973e-01 8.932149e-01 -8.710215e-01 9.443397e-01 -9.704911e-01 6.223762e-01 -6.608768e-01 0 0 0 0 0 0 0 0 0 0 0 0 0 0 0 0 0 0 0 0 0 0 0 0 0 0 0 0 0 0 0 0 0 0 0 0 0 0 0 0 0 0 0 0 0 0 0 0 0 0 0 0 0 0 0 0 0 0 0 0 0 0 0 0 0 0 0 0 0 0 0 0 0 0 0 0 0 0 0 0 0 0 0 0 0 0 0 0 0 0 0 0 0 0 0 0 0 0 0 0 0 0 0 0 0 0 0 
0 0 0 0 0 0 0 0 0 0 0 0 0 1.587751e+00 -4.475881e-01 1.511448e+00 -1.212424e+00 1.336819e+00 -1.551504e+00 7.057416e-01 -1.353223e+00 0 0 0 0 0 0 0 0 0 0 0 0 0 0 0 0 0 0 0 0 0 0 0 0 0 0 0 0 0 0 0 0 0 0 0 0 0 0 0 0 0 0 0 0 0 0 0 0 0 0 0 0 0 0 0 0 0 0 0 0 0 0 0 0 0 0 0 0 0 0 0 0 0 0 0 0 0 0 0 0 0 0 0 0 0 0 0 0 0 0 0 0 0 0 0 0 0 0 0 0 0 0 0 0 0 0 0 
0 0 0 0 0 5.161779e-02 1.362442e-01 1.022458e-01 1.771299e-01 1.416398e-01 2.186141e-01 1.764315e-01 2.544453e-01 3.143676e+00 -3.047502e+00 2.252517e+00 -4.877557e+00 3.102898e+00 -5.798045e+00 2.765157e+00 -4.743129e+00 -2.333374e+00 -2.287640e+00 -2.292860e+00 -2.255301e+00 -2.248838e+00 -2.219371e+00 -2.203570e+00 -2.181673e+00 -2.158544e+00 -2.141695e+00 -2.113772e+00 -2.103407e+00 -2.076766e+00 -2.070568e+00 -2.040637e+00 -2.027497e+00 -1.989673e+00 -1.967848e+00 -1.929105e+00 -1.907955e+00 -1.882023e+00 -1.871572e+00 -1.860290e+00 -1.850153e+00 -1.835465e+00 -1.809849e+00 -1.783451e+00 -1.745363e+00 -1.716421e+00 -1.681551e+00 -1.664015e+00 -1.642288e+00 -1.633665e+00 -1.615605e+00 -1.602997e+00 -1.581358e+00 -1.561343e+00 -1.535827e+00 -1.509072e+00 -1.483262e+00 -1.455348e+00 -1.433648e+00 -1.407491e+00 -1.388988e+00 -1.366103e+00 -1.352379e+00 -1.332610e+00 -1.320033e+00 -1.299601e+00 -1.283211e+00 -1.260723e+00 -1.236551e+00 -1.210709e+00 -1.180169e+00 -1.157761e+00 -1.127572e+00 -1.111882e+00 -1.083394e+00 -1.074716e+00 -1.049832e+00 -1.044641e+00 -1.017382e+00 -1.005564e+00 -9.721101e-01 -9.515873e-01 -9.158590e-01 -8.896435e-01 -8.605945e-01 -8.373675e-01 -8.233462e-01 -8.021253e-01 -7.957235e-01 -7.655409e-01 -7.572650e-01 -7.129387e-01 -7.008517e-01 -6.495774e-01 -6.440301e-01 -6.005079e-01 -6.048456e-01 -5.682939e-01 -5.713426e-01 -5.365417e-01 -5.283330e-01 -4.915918e-01 -4.655313e-01 -4.327995e-01 -3.983176e-01 -3.847970e-01 -3.492368e-01 -3.556340e-01 -3.140195e-01 -3.300733e-01 -2.738054e-01 -2.868632e-01 -2.172838e-01 -2.277273e-01 -1.613485e-01 -1.676384e-01 -1.134722e-01 -1.020995e-01 -9.779538e-02 5.040675e-02 0 0 0 0 
0 0 0 0 0 1.158437e+00 3.055801e+00 2.291434e+00 3.973997e+00 3.176209e+00 4.901691e+00 3.951893e+00 5.700598e+00 7.119227e+00 -9.010338e+00 -8.407295e+00 -2.393971e+01 -2.303420e+01 -3.914552e+01 -3.747625e+01 -5.430667e+01 -5.246121e+01 -5.143170e+01 -5.154924e+01 -5.070393e+01 -5.055852e+01 -4.989541e+01 -4.953979e+01 -4.904701e+01 -4.852642e+01 -4.814718e+01 -4.751866e+01 -4.728533e+01 -4.668570e+01 -4.654615e+01 -4.587253e+01 -4.557683e+01 -4.472568e+01 -4.423458e+01 -4.336287e+01 -4.288699e+01 -4.230357e+01 -4.206845e+01 -4.181462e+01 -4.158656e+01 -4.125610e+01 -4.067973e+01 -4.008585e+01 -3.922893e+01 -3.857782e+01 -3.779337e+01 -3.739887e+01 -3.691012e+01 -3.671613e+01 -3.630990e+01 -3.602631e+01 -3.553956e+01 -3.508938e+01 -3.451549e+01 -3.391372e+01 -3.333324e+01 -3.270546e+01 -3.221743e+01 -3.162920e+01 -3.121309e+01 -3.069846e+01 -3.038984e+01 -2.994531e+01 -2.966249e+01 -2.920308e+01 -2.883454e+01 -2.832890e+01 -2.778538e+01 -2.720435e+01 -2.651769e+01 -2.601388e+01 -2.533514e+01 -2.498239e+01 -2.434195e+01 -2.414688e+01 -2.358751e+01 -2.347088e+01 -2.285818e+01 -2.259259e+01 -2.184073e+01 -2.137948e+01 -2.057653e+01 -1.998730e+01 -1.933447e+01 -1.881238e+01 -1.849722e+01 -1.802017e+01 -1.787620e+01 -1.719773e+01 -1.701166e+01 -1.601543e+01 -1.574381e+01 -1.459170e+01 -1.446720e+01 -1.348957e+01 -1.358738e+01 -1.276659e+01 -1.283555e+01 -1.205419e+01 -1.187013e+01 -1.104511e+01 -1.045968e+01 -9.724482e+00 -8.949521e+00 -8.645499e+00 -7.846077e+00 -7.989212e+00 -7.053764e+00 -7.413923e+00 -6.149734e+00 -6.443307e+00 -4.881635e+00 -5.119496e+00 -3.638093e+00 -3.808081e+00 -2.688405e+00 -2.456992e+00 -2.254288e+00 1.130715e+00 0 0 0 0 
0 0 0 0 0 1.676850e+00 4.422831e+00 3.316057e+00 5.752085e+00 4.596948e+00 7.094090e+00 5.718456e+00 8.249186e+00 4.696466e+00 -9.150359e+00 -1.690951e+01 -2.877455e+01 -3.974954e+01 -4.997351e+01 -6.074541e+01 -7.369262e+01 -7.596214e+01 -7.447112e+01 -7.464136e+01 -7.341715e+01 -7.320658e+01 -7.224626e+01 -7.173124e+01 -7.101760e+01 -7.026365e+01 -6.971442e+01 -6.880415e+01 -6.846622e+01 -6.759782e+01 -6.739570e+01 -6.642015e+01 -6.599191e+01 -6.475928e+01 -6.404808e+01 -6.278570e+01 -6.209655e+01 -6.125168e+01 -6.091120e+01 -6.054362e+01 -6.021335e+01 -5.973481e+01 -5.890013e+01 -5.804010e+01 -5.679917e+01 -5.585628e+01 -5.472029e+01 -5.414902e+01 -5.344126e+01 -5.316034e+01 -5.257208e+01 -5.216141e+01 -5.145657e+01 -5.080467e+01 -4.997363e+01 -4.910224e+01 -4.826167e+01 -4.735262e+01 -4.664593e+01 -4.579414e+01 -4.519161e+01 -4.444642e+01 -4.399953e+01 -4.335585e+01 -4.294633e+01 -4.228111e+01 -4.174745e+01 -4.101530e+01 -4.022829e+01 -3.938697e+01 -3.839269e+01 -3.766319e+01 -3.668039e+01 -3.616963e+01 -3.524230e+01 -3.495985e+01 -3.414994e+01 -3.398107e+01 -3.309395e+01 -3.270941e+01 -3.162082e+01 -3.095298e+01 -2.979043e+01 -2.893727e+01 -2.799207e+01 -2.723612e+01 -2.677981e+01 -2.608908e+01 -2.588060e+01 -2.489823e+01 -2.462881e+01 -2.318639e+01 -2.279313e+01 -2.112508e+01 -2.094486e+01 -1.952950e+01 -1.967121e+01 -1.848298e+01 -1.858295e+01 -1.745183e+01 -1.718545e+01 -1.599110e+01 -1.514353e+01 -1.407918e+01 -1.295713e+01 -1.251691e+01 -1.135939e+01 -1.156647e+01 -1.021202e+01 -1.073332e+01 -8.903035e+00 -9.328120e+00 -7.067548e+00 -7.412740e+00 -5.270503e+00 -5.523886e+00 -3.927527e+00 -3.598614e+00 -3.278233e+00 1.636585e+00 0 0 0 0 
0 0 0 0 0 5.700312e-01 1.503274e+00 1.126868e+00 1.955218e+00 1.562379e+00 2.411013e+00 1.942995e+00 2.803033e+00 1.595049e+00 -3.112062e+00 -5.750114e+00 -9.784560e+00 -1.351696e+01 -1.699412e+01 -2.065821e+01 -2.506236e+01 -2.583430e+01 -2.532706e+01 -2.538498e+01 -2.496852e+01 -2.489690e+01 -2.457022e+01 -2.439502e+01 -2.415226e+01 -2.389577e+01 -2.370893e+01 -2.339926e+01 -2.328430e+01 -2.298888e+01 -2.292012e+01 -2.258826e+01 -2.244258e+01 -2.202327e+01 -2.178135e+01 -2.135194e+01 -2.111752e+01 -2.083013e+01 -2.071432e+01 -2.058929e+01 -2.047695e+01 -2.031417e+01 -2.003025e+01 -1.973771e+01 -1.931560e+01 -1.899488e+01 -1.860848e+01 -1.841416e+01 -1.817343e+01 -1.807787e+01 -1.787778e+01 -1.773810e+01 -1.749836e+01 -1.727663e+01 -1.699397e+01 -1.669759e+01 -1.641169e+01 -1.610250e+01 -1.586215e+01 -1.557244e+01 -1.536751e+01 -1.511406e+01 -1.496207e+01 -1.474315e+01 -1.460387e+01 -1.437762e+01 -1.419612e+01 -1.394712e+01 -1.367945e+01 -1.339332e+01 -1.305517e+01 -1.280707e+01 -1.247282e+01 -1.229912e+01 -1.198374e+01 -1.188769e+01 -1.161226e+01 -1.155483e+01 -1.125315e+01 -1.112239e+01 -1.075220e+01 -1.052509e+01 -1.012975e+01 -9.839618e+00 -9.518194e+00 -9.261115e+00 -9.105936e+00 -8.871029e+00 -8.800124e+00 -8.466041e+00 -8.374409e+00 -7.883897e+00 -7.750165e+00 -7.182956e+00 -7.121690e+00 -6.640445e+00 -6.688675e+00 -6.284688e+00 -6.318735e+00 -5.934181e+00 -5.843646e+00 -5.437584e+00 -5.149388e+00 -4.787494e+00 -4.405930e+00 -4.256208e+00 -3.862552e+00 -3.932893e+00 -3.472272e+00 -3.649467e+00 -3.027107e+00 -3.171675e+00 -2.403197e+00 -2.520971e+00 -1.793759e+00 -1.883443e+00 -1.352594e+00 -1.243722e+00 -1.121741e+00 5.562764e-01 0 0 0 0 
0 0 0 0 0 0 0 0 0 0 0 0 0 0 0 0 0 0 0 0 0 0 0 0 0 0 0 0 0 0 0 0 0 0 0 0 0 0 0 0 0 0 0 0 0 0 0 0 0 0 0 0 0 0 0 0 0 0 0 0 0 0 0 0 0 0 0 0 0 0 0 0 0 0 0 0 0 0 0 0 0 0 0 0 0 0 0 0 0 0 0 0 0 0 0 0 0 0 0 0 0 0 0 0 0 0 0 0 0 0 0 0 0 0 0 0 0 0 0 0 0 0 0 0 0 0 0 0 
