# vtk DataFile Version 2.0
Comment goes here
ASCII

DATASET STRUCTURED_POINTS
FIELD FieldData 1
TIME 1 1 double
0.61000000
DIMENSIONS    128   16   1

ORIGIN    0.000   0.000   0.000
SPACING   0.0078125 0.015625   1.000

POINT_DATA   2048
SCALARS Omega double
LOOKUP_TABLE default

-1.397472e-05 -7.031513e-06 1.085073e-06 2.549331e-06 -1.839084e-05 -2.960903e-05 -4.265387e-05 -2.646658e-06 -3.717479e-05 -1.621356e-05 -3.476085e-05 -2.230486e-05 -6.672418e-05 8.692212e-05 -3.795185e-05 -7.089456e-06 4.459580e-05 -8.661194e-05 1.157546e-04 -3.722692e-05 -9.784190e-05 1.607510e-04 5.211156e-05 -2.879617e-05 -1.686907e-05 -3.791754e-05 -3.725444e-06 -3.460238e-05 6.055973e-06 -3.146569e-05 1.548502e-05 -2.526233e-05 3.146578e-05 -8.860040e-06 6.419076e-05 2.795274e-05 1.263198e-04 1.037059e-04 2.425756e-04 2.554887e-04 4.540254e-04 5.266193e-04 7.800753e-04 8.913373e-04 1.105994e-03 1.111330e-03 1.041781e-03 6.644110e-04 1.854082e-05 -8.914562e-04 -2.038128e-03 -3.178473e-03 -5.092298e-03 -8.379197e-03 -1.103586e-02 -1.539921e-03 2.857232e-03 -2.099620e-02 3.027763e-02 6.145566e-02 -7.265348e-02 -3.547483e-02 9.820940e-02 2.633625e-02 6.879733e-02 9.631241e-02 3.398800e-02 1.233421e-01 4.828876e-02 -1.119603e-01 -4.421576e-02 7.416111e-02 6.583767e-02 1.463332e-02 5.858324e-03 9.942066e-03 1.159910e-02 9.581722e-03 7.272544e-03 4.639238e-03 2.756999e-03 1.216695e-03 3.091525e-04 -1.835225e-04 -4.520287e-04 -3.905518e-04 -4.534803e-04 -2.163882e-04 -2.908412e-04 -3.888872e-05 -1.688321e-04 5.911367e-05 -1.047561e-04 9.837997e-05 -7.172835e-05 1.079953e-04 -5.240896e-05 1.032116e-04 -3.971119e-05 9.034338e-05 -3.151291e-05 7.154414e-05 -2.726596e-05 4.911354e-05 -2.546416e-05 2.564345e-05 -2.422668e-05 3.633507e-06 -2.269605e-05 -1.553653e-05 -1.983277e-05 -2.993434e-05 -1.302405e-05 -3.657794e-05 3.811882e-07 -3.350750e-05 2.060323e-05 -2.243660e-05 4.465750e-05 -1.042248e-05 5.835065e-05 -6.571808e-05 7.712449e-05 6.567650e-05 -2.039112e-06 -1.993436e-05 -1.926003e-05 -1.752948e-05 
-5.783577e-03 -4.413129e-03 6.012905e-03 7.264067e-03 -1.788415e-01 -4.420904e-01 7.900331e-01 5.135255e-01 1.283053e-01 2.681178e-01 2.161390e-01 3.877764e-01 -3.881112e-01 -1.688610e+00 -2.210586e+00 -1.747006e+00 -2.129026e+00 -1.944344e+00 -1.934304e+00 -2.237308e+00 -1.680092e+00 -1.659342e-01 3.222320e-01 2.585563e-01 2.232534e-01 2.213860e-01 2.300469e-01 2.252348e-01 2.374241e-01 2.246439e-01 2.418835e-01 2.230958e-01 2.448997e-01 2.216475e-01 2.467763e-01 2.207564e-01 2.475462e-01 2.206512e-01 2.472400e-01 2.214542e-01 2.459284e-01 2.232393e-01 2.438963e-01 2.259255e-01 2.413697e-01 2.292692e-01 2.385431e-01 2.328548e-01 2.358590e-01 2.368193e-01 2.346910e-01 2.415923e-01 2.329650e-01 2.449905e-01 2.942587e-01 5.602070e-01 9.035664e-01 7.553591e-01 1.880871e-01 4.081374e-01 8.928688e-01 6.292811e-01 4.565313e-01 5.728146e-01 5.855015e-01 4.460459e-01 5.790130e-01 6.688063e-01 4.305524e-01 7.547452e-01 4.913563e-01 4.912250e-01 8.027384e-01 4.385940e-01 2.648604e-01 2.298172e-01 2.527609e-01 2.385412e-01 2.503109e-01 2.349708e-01 2.444746e-01 2.324350e-01 2.402139e-01 2.318107e-01 2.373884e-01 2.321430e-01 2.354835e-01 2.324669e-01 2.342638e-01 2.322797e-01 2.337730e-01 2.314452e-01 2.340461e-01 2.301273e-01 2.350896e-01 2.285354e-01 2.367051e-01 2.270015e-01 2.385330e-01 2.258112e-01 2.401350e-01 2.252234e-01 2.410099e-01 2.255175e-01 2.406504e-01 2.269912e-01 2.386871e-01 2.299643e-01 2.349226e-01 2.347243e-01 2.294022e-01 2.415129e-01 2.225579e-01 2.506767e-01 2.153508e-01 2.630250e-01 2.093373e-01 2.812503e-01 2.061336e-01 3.155266e-01 1.936956e-01 6.217253e-01 5.660808e-01 -1.887558e-01 -4.974979e-02 -2.152870e-02 -1.560721e-02 -8.616474e-03 
-7.885323e-03 5.594718e-03 8.345550e-02 1.800924e-01 -1.045969e+00 -2.243899e+00 2.178256e+00 1.192779e+00 2.814177e-01 5.684777e-01 4.250912e-01 5.550865e-01 -1.112007e+00 2.705976e-01 4.541636e-01 6.962776e-01 3.292852e-01 7.405911e-01 3.396162e-01 7.920985e-01 -8.236775e-02 -6.914972e-01 3.415127e-01 5.123096e-01 4.118295e-01 4.690914e-01 4.181953e-01 4.624537e-01 4.338484e-01 4.513752e-01 4.462004e-01 4.383615e-01 4.561018e-01 4.239453e-01 4.621241e-01 4.123307e-01 4.701906e-01 4.101535e-01 4.785958e-01 4.099217e-01 4.774014e-01 4.071800e-01 4.682997e-01 4.060558e-01 4.562743e-01 4.101011e-01 4.464385e-01 4.209220e-01 4.386651e-01 4.304990e-01 4.242111e-01 4.267968e-01 3.960084e-01 4.245938e-01 5.297899e-01 9.445892e-01 1.187513e+00 9.505571e-01 8.677213e-02 2.597586e-01 1.322469e+00 8.122014e-01 1.413656e-01 5.891347e-01 5.096283e-01 2.321736e-01 6.547044e-01 3.044213e-01 2.375439e-01 1.705810e+00 9.967633e-01 5.090751e-01 1.000931e+00 4.955834e-01 4.004992e-01 3.659833e-01 4.232488e-01 3.922382e-01 4.320375e-01 4.097807e-01 4.355600e-01 4.231909e-01 4.312482e-01 4.326252e-01 4.252413e-01 4.387762e-01 4.168136e-01 4.384461e-01 4.109500e-01 4.379746e-01 4.136978e-01 4.358785e-01 4.206374e-01 4.285170e-01 4.300665e-01 4.165990e-01 4.413126e-01 4.025716e-01 4.538740e-01 3.890345e-01 4.662244e-01 3.794617e-01 4.778106e-01 3.757505e-01 4.822596e-01 3.756793e-01 4.770226e-01 3.848238e-01 4.628153e-01 4.015151e-01 4.341690e-01 4.270001e-01 3.995948e-01 4.694265e-01 3.613635e-01 5.214047e-01 3.125054e-01 5.851700e-01 2.532928e-01 7.005004e-01 1.253410e-01 1.668045e+00 3.908973e-01 -1.515583e+00 4.824908e-01 1.849523e-01 -1.688652e-03 -1.556187e-02 
-6.349761e-03 1.849619e-02 1.989398e-01 5.625577e-01 -1.812467e+00 -4.168306e+00 -4.182845e-02 -6.488014e-01 -6.475694e-01 -7.256473e-01 -5.957647e-01 -5.061054e-01 5.701051e-01 2.115704e-01 1.939683e-02 1.408995e-01 1.446481e-01 1.654184e-01 9.325716e-02 9.264896e-02 1.725148e-01 5.016774e-01 -5.825600e-01 -5.228283e-01 -7.652404e-01 -6.097394e-01 -8.115242e-01 -6.626605e-01 -8.294746e-01 -7.013394e-01 -8.333694e-01 -7.342933e-01 -8.306636e-01 -7.691571e-01 -8.292199e-01 -7.979353e-01 -8.126095e-01 -8.033669e-01 -7.864652e-01 -8.087041e-01 -7.806577e-01 -8.277345e-01 -7.924231e-01 -8.481560e-01 -8.095032e-01 -8.591447e-01 -8.200923e-01 -8.550826e-01 -8.294206e-01 -8.606989e-01 -8.703024e-01 -9.103236e-01 -9.589288e-01 -1.010423e+00 -1.138529e+00 -1.393303e+00 -1.701390e+00 -1.469826e+00 -9.950156e-01 -1.060756e+00 -1.738699e+00 -1.437987e+00 -9.907109e-01 -1.337693e+00 -1.252754e+00 -1.142927e+00 -1.371706e+00 -1.233097e+00 -1.181638e+00 -1.921844e+00 -1.542236e+00 -1.238052e+00 -1.347703e+00 -1.153286e+00 -1.028904e+00 -1.006294e+00 -9.719611e-01 -9.536604e-01 -9.232176e-01 -8.872078e-01 -8.875435e-01 -8.418160e-01 -8.803280e-01 -8.143338e-01 -8.813564e-01 -7.983491e-01 -8.926228e-01 -7.998395e-01 -9.003392e-01 -7.983083e-01 -8.879269e-01 -7.976398e-01 -8.686664e-01 -8.097490e-01 -8.474185e-01 -8.340174e-01 -8.246261e-01 -8.656604e-01 -7.991146e-01 -8.990133e-01 -7.721997e-01 -9.255095e-01 -7.419524e-01 -9.413003e-01 -7.236393e-01 -9.547234e-01 -7.223440e-01 -9.512528e-01 -7.348444e-01 -9.373838e-01 -7.777340e-01 -9.103977e-01 -8.287828e-01 -8.474490e-01 -8.870293e-01 -7.739107e-01 -9.822985e-01 -7.012782e-01 -1.127421e+00 -5.936002e-01 -1.410629e+00 5.416404e-03 -3.567068e+00 -3.360855e+00 1.789165e+00 6.500641e-01 6.180459e-02 -1.243122e-02 
-2.788862e-03 2.185599e-02 1.864268e-01 6.341691e-01 -3.834039e-01 -1.717216e+00 -3.010380e+00 -2.349195e+00 -1.121812e+00 -1.551672e+00 -1.093081e+00 -1.370015e+00 -1.284440e+00 -1.366965e+00 -1.090937e+00 -1.325465e+00 -1.153214e+00 -1.307676e+00 -1.180692e+00 -1.236709e+00 -1.276941e+00 -1.333128e+00 -1.225157e+00 -1.145173e+00 -1.360689e+00 -1.272269e+00 -1.443485e+00 -1.324682e+00 -1.482937e+00 -1.355317e+00 -1.503564e+00 -1.377377e+00 -1.513341e+00 -1.399462e+00 -1.519269e+00 -1.417951e+00 -1.510590e+00 -1.421962e+00 -1.491622e+00 -1.428209e+00 -1.483422e+00 -1.446609e+00 -1.485142e+00 -1.468728e+00 -1.489589e+00 -1.487309e+00 -1.490460e+00 -1.498581e+00 -1.493884e+00 -1.520282e+00 -1.525648e+00 -1.578051e+00 -1.604906e+00 -1.690032e+00 -1.763689e+00 -1.816258e+00 -1.659276e+00 -1.764943e+00 -1.959508e+00 -1.786533e+00 -1.688153e+00 -1.739665e+00 -1.817953e+00 -1.875973e+00 -1.832338e+00 -1.895553e+00 -1.887106e+00 -1.947901e+00 -1.722588e+00 -1.949859e+00 -1.663938e+00 -1.887372e+00 -2.051076e+00 -1.753086e+00 -1.743281e+00 -1.652648e+00 -1.655387e+00 -1.581328e+00 -1.593810e+00 -1.521506e+00 -1.554487e+00 -1.484232e+00 -1.539088e+00 -1.462735e+00 -1.531390e+00 -1.450318e+00 -1.532559e+00 -1.449696e+00 -1.533348e+00 -1.445913e+00 -1.522665e+00 -1.441472e+00 -1.509618e+00 -1.445157e+00 -1.497318e+00 -1.457225e+00 -1.485299e+00 -1.475491e+00 -1.471525e+00 -1.496908e+00 -1.455520e+00 -1.516187e+00 -1.434406e+00 -1.531240e+00 -1.417321e+00 -1.548434e+00 -1.406923e+00 -1.558301e+00 -1.400733e+00 -1.565787e+00 -1.410732e+00 -1.569111e+00 -1.422885e+00 -1.552368e+00 -1.438557e+00 -1.532977e+00 -1.479679e+00 -1.520544e+00 -1.549102e+00 -1.500390e+00 -1.622899e+00 -1.977658e+00 -4.520868e+00 -1.739295e+00 1.447414e+00 3.964265e-01 2.626823e-03 -1.905257e-02 
-5.391735e-03 -4.699528e-03 1.984033e-02 1.941888e-01 6.369024e-01 8.419044e-01 -1.618845e+00 -1.104956e+00 -3.347792e-01 -5.372020e-01 -2.432684e-01 -4.566299e-01 -1.484715e+00 -1.121541e+00 -7.789647e-01 -7.879336e-01 -7.840917e-01 -7.842946e-01 -7.883199e-01 -7.802482e-01 -1.149357e+00 -1.301357e+00 -4.081796e-01 -3.725130e-01 -4.230069e-01 -4.156101e-01 -4.397020e-01 -4.173237e-01 -4.514414e-01 -4.198135e-01 -4.612984e-01 -4.211884e-01 -4.679555e-01 -4.221007e-01 -4.719324e-01 -4.230744e-01 -4.730182e-01 -4.241717e-01 -4.717479e-01 -4.265803e-01 -4.694210e-01 -4.310869e-01 -4.667607e-01 -4.376430e-01 -4.645265e-01 -4.465815e-01 -4.640284e-01 -4.584463e-01 -4.673579e-01 -4.744988e-01 -4.771716e-01 -4.980245e-01 -4.997261e-01 -4.944555e-01 -2.526803e-01 2.999086e-01 4.535366e-01 1.384112e-01 -5.488108e-01 -9.229555e-01 7.247211e-01 1.645610e-01 -1.112241e+00 1.126686e-01 -2.289638e-01 -8.480697e-01 3.452064e-01 -5.985102e-01 -7.430675e-01 1.354137e+00 1.322453e-01 -2.594189e-01 6.190079e-01 -2.597911e-01 -5.523672e-01 -5.019255e-01 -5.047482e-01 -4.674369e-01 -4.857342e-01 -4.567930e-01 -4.748240e-01 -4.501639e-01 -4.670227e-01 -4.460643e-01 -4.609676e-01 -4.432312e-01 -4.566732e-01 -4.410932e-01 -4.538137e-01 -4.385452e-01 -4.519735e-01 -4.355677e-01 -4.513831e-01 -4.328046e-01 -4.519435e-01 -4.306279e-01 -4.531552e-01 -4.295324e-01 -4.542400e-01 -4.298413e-01 -4.544293e-01 -4.316166e-01 -4.527666e-01 -4.350207e-01 -4.489476e-01 -4.406031e-01 -4.426749e-01 -4.481554e-01 -4.337590e-01 -4.580414e-01 -4.230150e-01 -4.699997e-01 -4.103133e-01 -4.826729e-01 -3.959681e-01 -4.951245e-01 -3.790171e-01 -5.042569e-01 -3.496667e-01 -5.062451e-01 -2.558618e-01 -1.003986e+00 -1.232130e+00 3.629714e-01 3.150958e-01 2.205501e-02 -2.659142e-02 -1.288428e-02 
-6.735661e-03 -3.967991e-03 -3.404575e-03 9.116373e-03 7.874098e-02 1.824788e-01 -2.001812e-02 -3.071008e-02 4.615239e-02 7.181198e-02 2.266308e-01 2.728586e-01 -1.361785e+00 -1.309118e+00 -5.483228e-01 -5.472951e-01 -5.471317e-01 -5.471492e-01 -5.472999e-01 -5.478309e-01 -1.158271e+00 -1.191085e+00 7.556568e-02 4.228008e-02 -1.177327e-04 1.155850e-02 2.034725e-02 2.929733e-02 2.829982e-02 3.275969e-02 2.904843e-02 3.281802e-02 2.839402e-02 3.220302e-02 2.770127e-02 3.156819e-02 2.724935e-02 3.097496e-02 2.699003e-02 3.031364e-02 2.676270e-02 2.937689e-02 2.625818e-02 2.778688e-02 2.493724e-02 2.494560e-02 2.214589e-02 2.047847e-02 1.805461e-02 1.587019e-02 1.596159e-02 1.651916e-02 2.509502e-02 6.139112e-02 2.143609e-01 4.340445e-01 2.372153e-01 4.042001e-01 6.660343e-01 2.670283e-02 4.118516e-01 4.144973e-01 9.399351e-02 7.589924e-01 4.188495e-01 5.912135e-02 7.905561e-01 4.396522e-01 6.776001e-02 5.809700e-01 -2.608697e-01 4.798883e-01 1.328145e+00 3.455215e-01 5.149494e-02 3.599241e-02 3.456905e-02 3.250817e-02 2.738862e-02 2.707351e-02 2.509413e-02 2.595056e-02 2.522348e-02 2.620918e-02 2.607151e-02 2.689605e-02 2.697901e-02 2.761909e-02 2.766684e-02 2.825600e-02 2.807159e-02 2.880701e-02 2.823260e-02 2.929233e-02 2.821002e-02 2.972188e-02 2.807344e-02 3.008064e-02 2.789381e-02 3.034614e-02 2.774103e-02 3.049502e-02 2.769098e-02 3.050073e-02 2.781559e-02 3.033536e-02 2.817724e-02 2.998549e-02 2.884441e-02 2.949276e-02 2.994729e-02 2.907050e-02 3.183863e-02 2.934523e-02 3.542873e-02 3.177194e-02 4.266331e-02 3.874164e-02 5.615936e-02 5.204722e-02 8.216871e-02 4.236802e-02 4.340733e-02 8.400555e-02 8.159223e-03 -2.093009e-02 -1.727491e-02 -1.083429e-02 
-5.836300e-03 -4.418597e-03 -3.611307e-03 -3.771703e-03 -1.077013e-03 8.475149e-03 5.614923e-03 5.416171e-03 1.758159e-02 4.556634e-02 1.226717e-01 1.646991e-01 -6.948848e-01 -6.572853e-01 -2.750525e-01 -2.743297e-01 -2.743284e-01 -2.743282e-01 -2.743289e-01 -2.747277e-01 -5.676650e-01 -5.819391e-01 2.711992e-02 -8.394005e-03 -2.798304e-02 -1.906256e-02 -1.012006e-02 -4.942799e-03 -2.593814e-03 -1.109819e-03 -6.969382e-04 -2.749007e-04 -4.070286e-04 -2.866123e-04 -5.159549e-04 -4.574714e-04 -6.609735e-04 -6.145204e-04 -7.840037e-04 -7.713503e-04 -9.550262e-04 -1.056218e-03 -1.374667e-03 -1.757636e-03 -2.421326e-03 -3.303134e-03 -4.454740e-03 -5.745328e-03 -6.831790e-03 -7.191982e-03 -5.780010e-03 -1.603668e-03 6.699489e-03 2.167254e-02 5.277018e-02 1.064788e-01 1.509392e-01 1.993801e-01 2.076926e-01 1.047839e-01 7.975800e-02 1.330036e-01 1.662078e-01 1.471008e-01 8.239000e-02 3.984165e-02 6.714052e-02 1.168952e-01 7.865994e-02 5.642066e-03 -4.140385e-02 1.586903e-01 2.611071e-01 9.998652e-02 3.759199e-02 2.431456e-02 1.622956e-02 9.539953e-03 4.798200e-03 1.869723e-03 2.108915e-05 -1.067331e-03 -1.655986e-03 -1.942853e-03 -1.981816e-03 -1.955859e-03 -1.807439e-03 -1.704161e-03 -1.533556e-03 -1.439088e-03 -1.303055e-03 -1.231253e-03 -1.141061e-03 -1.081196e-03 -1.035397e-03 -9.730114e-04 -9.691930e-04 -8.929109e-04 -9.300348e-04 -8.322305e-04 -9.087642e-04 -7.847242e-04 -8.966036e-04 -7.448126e-04 -8.839998e-04 -7.060635e-04 -8.577225e-04 -6.547897e-04 -7.889047e-04 -5.478166e-04 -5.969260e-04 -2.556687e-04 -6.988691e-05 5.395430e-04 1.245133e-03 2.424073e-03 4.010911e-03 5.939175e-03 8.229763e-03 9.988334e-03 1.188394e-02 1.209357e-02 1.087183e-02 1.430830e-03 -7.230711e-03 -8.501821e-03 -7.749070e-03 -6.887048e-03 
-5.458921e-06 -7.675312e-06 -8.253947e-06 -8.233344e-06 -6.724828e-06 -4.281776e-06 -1.352749e-06 1.956467e-06 5.584080e-06 9.519807e-06 1.421475e-05 -4.849467e-06 -2.593222e-04 1.181658e-04 2.507769e-07 3.694639e-10 -5.531999e-10 2.378247e-10 3.921874e-10 5.488279e-07 4.240106e-04 -1.571752e-03 -7.441286e-05 -2.508703e-05 -5.009405e-05 -4.630186e-05 -2.913034e-05 -1.616631e-05 -4.930037e-06 3.030715e-06 9.802534e-06 1.603103e-05 2.239951e-05 2.994581e-05 3.846385e-05 4.803629e-05 5.804659e-05 6.578871e-05 6.923513e-05 5.849385e-05 2.499779e-05 -5.725584e-05 -2.127968e-04 -4.917786e-04 -9.335760e-04 -1.590530e-03 -2.461437e-03 -3.496185e-03 -4.502396e-03 -5.139456e-03 -4.858839e-03 -2.981576e-03 1.131482e-03 7.853346e-03 1.735325e-02 2.917077e-02 3.967797e-02 4.606142e-02 4.818716e-02 4.256922e-02 3.134780e-02 3.299596e-02 4.953044e-02 5.467535e-02 5.189706e-02 5.387031e-02 5.457833e-02 5.403509e-02 3.937931e-02 1.922933e-02 2.211046e-02 4.545261e-02 5.071416e-02 3.591108e-02 2.684770e-02 2.030185e-02 1.437446e-02 9.543403e-03 5.951289e-03 3.418467e-03 1.674663e-03 5.459926e-04 -1.417418e-04 -5.140503e-04 -6.761084e-04 -7.128219e-04 -6.716066e-04 -6.019956e-04 -5.137254e-04 -4.338712e-04 -3.547152e-04 -2.920094e-04 -2.334548e-04 -1.893815e-04 -1.487165e-04 -1.187166e-04 -9.132400e-05 -7.148482e-05 -5.403078e-05 -4.181715e-05 -3.182422e-05 -2.512978e-05 -2.025314e-05 -1.700772e-05 -1.512512e-05 -1.366615e-05 -1.333054e-05 -1.268726e-05 -1.303840e-05 -1.259539e-05 -1.291345e-05 -1.203084e-05 -1.165881e-05 -9.847093e-06 -8.550286e-06 -5.950839e-06 -4.257420e-06 -1.756078e-06 -7.266703e-07 7.386455e-07 5.608647e-07 2.142394e-06 1.976200e-06 4.069856e-06 4.372876e-06 2.259421e-06 1.688145e-07 -3.269376e-06 
5.824576e-03 4.400290e-03 3.589771e-03 3.749774e-03 1.059316e-03 -8.487673e-03 -5.622158e-03 -5.423003e-03 -1.757403e-02 -4.555560e-02 -1.226613e-01 -1.647812e-01 6.944037e-01 6.577170e-01 2.750533e-01 2.743297e-01 2.743284e-01 2.743282e-01 2.743289e-01 2.747285e-01 5.683204e-01 5.784157e-01 -2.736610e-02 8.339739e-03 2.788873e-02 1.896908e-02 1.004979e-02 4.891563e-03 2.554821e-03 1.080620e-03 6.698719e-04 2.536793e-04 3.840329e-04 2.706765e-04 4.972453e-04 4.477473e-04 6.439326e-04 6.000928e-04 7.399403e-04 6.899366e-04 7.605658e-04 6.781441e-04 6.298321e-04 4.287716e-04 1.368160e-04 -3.463805e-04 -1.053396e-03 -1.954562e-03 -3.087063e-03 -4.202539e-03 -5.241594e-03 -5.721434e-03 -5.565469e-03 -4.351395e-03 -2.389480e-03 2.556246e-04 2.581873e-03 4.130916e-03 4.859082e-03 5.787976e-03 6.225412e-03 7.647652e-03 1.067363e-02 1.330999e-02 1.567797e-02 1.834580e-02 2.026911e-02 2.213345e-02 2.296186e-02 2.288321e-02 2.348643e-02 2.402832e-02 2.257258e-02 1.955611e-02 1.627253e-02 1.272776e-02 9.396627e-03 6.510994e-03 4.231998e-03 2.517850e-03 1.324033e-03 5.579698e-04 1.224526e-04 -7.268215e-05 -1.136767e-04 -5.972954e-05 4.071324e-05 1.558706e-04 2.755076e-04 3.736973e-04 4.752863e-04 5.355775e-04 6.194748e-04 6.409447e-04 7.183322e-04 7.032979e-04 7.852963e-04 7.343840e-04 8.290739e-04 7.419830e-04 8.544688e-04 7.320495e-04 8.641527e-04 7.096877e-04 8.585507e-04 6.773358e-04 8.318350e-04 6.270774e-04 7.596925e-04 5.195286e-04 5.650784e-04 2.287933e-04 3.932978e-05 -5.603130e-04 -1.268882e-03 -2.433895e-03 -4.023985e-03 -5.936809e-03 -8.233853e-03 -9.979051e-03 -1.188544e-02 -1.207259e-02 -1.087308e-02 -1.423251e-03 7.250036e-03 8.515855e-03 7.755474e-03 6.882624e-03 
6.724154e-03 3.943814e-03 3.375297e-03 -9.134678e-03 -7.872760e-02 -1.825560e-01 2.001340e-02 3.057961e-02 -4.620186e-02 -7.191454e-02 -2.266596e-01 -2.730240e-01 1.361310e+00 1.309591e+00 5.483238e-01 5.472984e-01 5.471292e-01 5.471494e-01 5.472974e-01 5.478242e-01 1.159447e+00 1.189077e+00 -7.547982e-02 -4.224170e-02 -4.881362e-06 -1.164038e-02 -2.051788e-02 -2.941515e-02 -2.853749e-02 -3.295607e-02 -2.939544e-02 -3.312162e-02 -2.888692e-02 -3.263626e-02 -2.837844e-02 -3.216544e-02 -2.815533e-02 -3.180263e-02 -2.820554e-02 -3.152040e-02 -2.847740e-02 -3.131317e-02 -2.896979e-02 -3.127306e-02 -2.980802e-02 -3.165671e-02 -3.128346e-02 -3.285991e-02 -3.373204e-02 -3.516381e-02 -3.715236e-02 -3.827059e-02 -4.080382e-02 -4.115069e-02 -4.347731e-02 -4.271093e-02 -4.448677e-02 -4.333838e-02 -4.482142e-02 -4.207842e-02 -4.331515e-02 -4.000140e-02 -3.759155e-02 -3.526520e-02 -3.313495e-02 -2.953093e-02 -2.940068e-02 -2.537261e-02 -2.553434e-02 -2.453156e-02 -2.341764e-02 -2.226089e-02 -2.263112e-02 -2.417008e-02 -2.537278e-02 -2.721784e-02 -2.842764e-02 -2.999725e-02 -3.074015e-02 -3.165282e-02 -3.179788e-02 -3.209022e-02 -3.179456e-02 -3.174326e-02 -3.122386e-02 -3.113257e-02 -3.049822e-02 -3.059313e-02 -2.981937e-02 -3.025194e-02 -2.923738e-02 -3.011421e-02 -2.874260e-02 -3.013899e-02 -2.832209e-02 -3.027490e-02 -2.797840e-02 -3.046805e-02 -2.772787e-02 -3.066111e-02 -2.759582e-02 -3.079101e-02 -2.761154e-02 -3.079284e-02 -2.780750e-02 -3.061130e-02 -2.822207e-02 -3.021913e-02 -2.891382e-02 -2.966052e-02 -3.001541e-02 -2.915670e-02 -3.188693e-02 -2.934727e-02 -3.545059e-02 -3.169757e-02 -4.266134e-02 -3.861064e-02 -5.614978e-02 -5.188958e-02 -8.217222e-02 -4.211280e-02 -4.351748e-02 -8.411800e-02 -8.141092e-03 2.097640e-02 1.730480e-02 1.083914e-02 
5.384276e-03 4.672513e-03 -1.985625e-02 -1.940958e-01 -6.366789e-01 -8.433334e-01 1.618949e+00 1.103644e+00 3.335724e-01 5.352957e-01 2.419166e-01 4.544669e-01 1.483339e+00 1.122926e+00 7.789591e-01 7.880104e-01 7.840336e-01 7.842977e-01 7.882509e-01 7.800498e-01 1.150559e+00 1.301685e+00 4.093170e-01 3.732751e-01 4.230692e-01 4.162336e-01 4.396579e-01 4.180131e-01 4.509646e-01 4.198799e-01 4.595908e-01 4.201220e-01 4.644378e-01 4.195764e-01 4.664797e-01 4.197096e-01 4.671406e-01 4.212405e-01 4.662253e-01 4.230936e-01 4.631855e-01 4.253069e-01 4.591060e-01 4.283620e-01 4.542948e-01 4.313627e-01 4.482213e-01 4.331294e-01 4.405098e-01 4.328800e-01 4.315840e-01 4.310946e-01 4.231983e-01 4.296576e-01 4.181235e-01 4.312419e-01 4.174516e-01 4.296414e-01 4.088097e-01 4.254502e-01 4.102342e-01 4.234313e-01 4.137791e-01 4.238668e-01 4.144616e-01 4.279352e-01 4.145727e-01 4.336501e-01 4.181674e-01 4.320190e-01 4.249979e-01 4.332798e-01 4.319084e-01 4.283294e-01 4.277991e-01 4.248423e-01 4.273936e-01 4.243013e-01 4.289091e-01 4.256412e-01 4.316611e-01 4.276371e-01 4.347588e-01 4.296430e-01 4.382332e-01 4.312010e-01 4.416408e-01 4.318482e-01 4.453379e-01 4.322324e-01 4.495409e-01 4.320278e-01 4.532470e-01 4.308368e-01 4.559020e-01 4.290243e-01 4.573413e-01 4.274528e-01 4.576959e-01 4.270045e-01 4.567684e-01 4.282709e-01 4.541688e-01 4.313039e-01 4.488251e-01 4.359131e-01 4.410905e-01 4.438170e-01 4.325220e-01 4.553420e-01 4.225335e-01 4.688465e-01 4.106687e-01 4.830447e-01 3.969118e-01 4.962701e-01 3.799443e-01 5.057775e-01 3.506445e-01 5.081404e-01 2.568080e-01 1.006295e+00 1.232130e+00 -3.636476e-01 -3.153509e-01 -2.201227e-02 2.665936e-02 1.290869e-02 
2.775108e-03 -2.190129e-02 -1.864739e-01 -6.339663e-01 3.844676e-01 1.714466e+00 3.011087e+00 2.348838e+00 1.121691e+00 1.549367e+00 1.090013e+00 1.366539e+00 1.283678e+00 1.367836e+00 1.090141e+00 1.325699e+00 1.152617e+00 1.308387e+00 1.179964e+00 1.237078e+00 1.281131e+00 1.339047e+00 1.222698e+00 1.133796e+00 1.351074e+00 1.263797e+00 1.444576e+00 1.329856e+00 1.493809e+00 1.364956e+00 1.511288e+00 1.380103e+00 1.506487e+00 1.385071e+00 1.493826e+00 1.397938e+00 1.493834e+00 1.423830e+00 1.493004e+00 1.434695e+00 1.474068e+00 1.434171e+00 1.459306e+00 1.442328e+00 1.456057e+00 1.453086e+00 1.453377e+00 1.455187e+00 1.441020e+00 1.442061e+00 1.418371e+00 1.421326e+00 1.397646e+00 1.408598e+00 1.392363e+00 1.411399e+00 1.394983e+00 1.405398e+00 1.374886e+00 1.387402e+00 1.365149e+00 1.375687e+00 1.356219e+00 1.370134e+00 1.352232e+00 1.376898e+00 1.356443e+00 1.387207e+00 1.359053e+00 1.387747e+00 1.363632e+00 1.394180e+00 1.380696e+00 1.405383e+00 1.393761e+00 1.411377e+00 1.406356e+00 1.413578e+00 1.425736e+00 1.422536e+00 1.451090e+00 1.427139e+00 1.469804e+00 1.427367e+00 1.486938e+00 1.425417e+00 1.494704e+00 1.419096e+00 1.501938e+00 1.426698e+00 1.516054e+00 1.441031e+00 1.519595e+00 1.449660e+00 1.507901e+00 1.454393e+00 1.487070e+00 1.464375e+00 1.468967e+00 1.485743e+00 1.456931e+00 1.515605e+00 1.448144e+00 1.538568e+00 1.423203e+00 1.537016e+00 1.392999e+00 1.541671e+00 1.393533e+00 1.560910e+00 1.409645e+00 1.568053e+00 1.425522e+00 1.556604e+00 1.441731e+00 1.532476e+00 1.475389e+00 1.516355e+00 1.546100e+00 1.502120e+00 1.627493e+00 1.986408e+00 4.525061e+00 1.739605e+00 -1.447369e+00 -3.965177e-01 -2.606848e-03 1.907668e-02 
6.329400e-03 -1.854049e-02 -1.990199e-01 -5.625121e-01 1.813614e+00 4.167721e+00 4.261136e-02 6.515965e-01 6.507248e-01 7.271413e-01 5.946174e-01 5.058981e-01 -5.686114e-01 -2.111622e-01 -2.047902e-02 -1.407283e-01 -1.485578e-01 -1.646754e-01 -9.243238e-02 -8.673192e-02 -1.619936e-01 -5.031093e-01 5.755032e-01 5.028124e-01 7.496189e-01 5.942269e-01 8.128747e-01 6.681519e-01 8.471918e-01 7.152218e-01 8.492068e-01 7.400338e-01 8.281026e-01 7.514910e-01 8.020077e-01 7.729683e-01 7.990769e-01 8.104418e-01 7.988180e-01 8.228407e-01 7.757895e-01 8.158175e-01 7.620441e-01 8.194352e-01 7.680118e-01 8.262517e-01 7.774554e-01 8.212443e-01 7.745784e-01 7.956220e-01 7.567380e-01 7.600086e-01 7.387609e-01 7.350026e-01 7.360766e-01 7.274267e-01 7.358625e-01 7.166614e-01 7.240975e-01 6.978835e-01 7.021632e-01 6.874213e-01 6.863303e-01 6.794181e-01 6.796972e-01 6.829540e-01 6.850339e-01 6.871198e-01 6.819901e-01 6.939988e-01 6.802704e-01 7.126348e-01 6.935111e-01 7.456946e-01 7.264198e-01 7.660860e-01 7.486360e-01 7.721774e-01 7.769197e-01 7.842217e-01 8.123083e-01 7.881508e-01 8.370569e-01 7.851790e-01 8.583089e-01 7.794571e-01 8.645016e-01 7.686530e-01 8.683643e-01 7.798671e-01 8.809196e-01 8.029530e-01 8.775577e-01 8.197654e-01 8.525135e-01 8.323406e-01 8.158256e-01 8.528262e-01 7.857866e-01 8.884847e-01 7.682014e-01 9.331616e-01 7.598163e-01 9.624885e-01 7.332305e-01 9.492298e-01 7.047819e-01 9.367510e-01 7.268522e-01 9.369526e-01 7.772222e-01 9.118229e-01 8.317950e-01 8.530832e-01 8.892442e-01 7.700810e-01 9.728863e-01 6.907635e-01 1.119950e+00 5.914542e-01 1.415168e+00 2.335943e-03 3.573150e+00 3.363034e+00 -1.788177e+00 -6.501907e-01 -6.186879e-02 1.242260e-02 
7.867076e-03 -5.607244e-03 -8.347824e-02 -1.801443e-01 1.046256e+00 2.245291e+00 -2.178288e+00 -1.190236e+00 -2.786961e-01 -5.655471e-01 -4.239342e-01 -5.535166e-01 1.111490e+00 -2.671995e-01 -4.535589e-01 -6.967842e-01 -3.289541e-01 -7.433370e-01 -3.377810e-01 -7.928826e-01 8.505517e-02 6.907882e-01 -3.441849e-01 -5.208124e-01 -4.180065e-01 -4.761873e-01 -4.178455e-01 -4.618636e-01 -4.268387e-01 -4.470632e-01 -4.385388e-01 -4.359807e-01 -4.534160e-01 -4.289301e-01 -4.668319e-01 -4.195330e-01 -4.699425e-01 -4.065008e-01 -4.700935e-01 -4.040109e-01 -4.760962e-01 -4.098914e-01 -4.771204e-01 -4.133812e-01 -4.698057e-01 -4.163836e-01 -4.600768e-01 -4.235117e-01 -4.541374e-01 -4.376548e-01 -4.541568e-01 -4.555554e-01 -4.566561e-01 -4.710248e-01 -4.582370e-01 -4.833810e-01 -4.637629e-01 -4.912298e-01 -4.611047e-01 -4.962391e-01 -4.732298e-01 -4.945512e-01 -4.813050e-01 -4.978522e-01 -4.838711e-01 -5.000366e-01 -4.811756e-01 -5.012277e-01 -4.833251e-01 -4.896393e-01 -4.832955e-01 -4.759565e-01 -4.846414e-01 -4.553021e-01 -4.655451e-01 -4.417433e-01 -4.555210e-01 -4.381845e-01 -4.451736e-01 -4.345123e-01 -4.326537e-01 -4.343196e-01 -4.238617e-01 -4.367144e-01 -4.167931e-01 -4.399897e-01 -4.158327e-01 -4.445617e-01 -4.168112e-01 -4.407769e-01 -4.158717e-01 -4.318106e-01 -4.210717e-01 -4.237666e-01 -4.338739e-01 -4.161595e-01 -4.502507e-01 -4.053745e-01 -4.633728e-01 -3.897883e-01 -4.707136e-01 -3.725822e-01 -4.728349e-01 -3.632199e-01 -4.785436e-01 -3.720196e-01 -4.817820e-01 -3.849603e-01 -4.643684e-01 -3.983406e-01 -4.338549e-01 -4.250553e-01 -3.990118e-01 -4.678018e-01 -3.618426e-01 -5.243265e-01 -3.173319e-01 -5.910152e-01 -2.573616e-01 -7.035537e-01 -1.247383e-01 -1.667920e+00 -3.887601e-01 1.517182e+00 -4.817034e-01 -1.849823e-01 1.633597e-03 1.553226e-02 
5.758216e-03 4.403275e-03 -6.012017e-03 -7.292930e-03 1.787657e-01 4.426537e-01 -7.902217e-01 -5.129085e-01 -1.277314e-01 -2.671992e-01 -2.155956e-01 -3.871615e-01 3.877680e-01 1.690802e+00 2.211310e+00 1.745624e+00 2.131986e+00 1.941613e+00 1.937026e+00 2.238698e+00 1.674258e+00 1.657864e-01 -3.221187e-01 -2.592138e-01 -2.235777e-01 -2.221544e-01 -2.300690e-01 -2.258050e-01 -2.370158e-01 -2.248889e-01 -2.409673e-01 -2.230182e-01 -2.434683e-01 -2.213244e-01 -2.449216e-01 -2.202894e-01 -2.455011e-01 -2.201136e-01 -2.452741e-01 -2.207919e-01 -2.442321e-01 -2.221483e-01 -2.423689e-01 -2.239491e-01 -2.398163e-01 -2.260583e-01 -2.369862e-01 -2.286327e-01 -2.346936e-01 -2.321156e-01 -2.338576e-01 -2.368187e-01 -2.350867e-01 -2.431605e-01 -2.398379e-01 -2.523264e-01 -2.474102e-01 -2.597794e-01 -2.446443e-01 -2.535310e-01 -2.502625e-01 -2.547161e-01 -2.394241e-01 -2.480235e-01 -2.384956e-01 -2.415647e-01 -2.331530e-01 -2.321368e-01 -2.200161e-01 -2.282038e-01 -2.222164e-01 -2.195657e-01 -2.238042e-01 -2.211156e-01 -2.234818e-01 -2.194003e-01 -2.246782e-01 -2.223826e-01 -2.281156e-01 -2.260851e-01 -2.306271e-01 -2.286888e-01 -2.316790e-01 -2.300756e-01 -2.319123e-01 -2.307432e-01 -2.321457e-01 -2.310312e-01 -2.328139e-01 -2.309616e-01 -2.340005e-01 -2.304458e-01 -2.355945e-01 -2.294207e-01 -2.373852e-01 -2.279404e-01 -2.391195e-01 -2.262002e-01 -2.405435e-01 -2.245451e-01 -2.414192e-01 -2.234309e-01 -2.414980e-01 -2.233615e-01 -2.405344e-01 -2.248030e-01 -2.382721e-01 -2.280974e-01 -2.345172e-01 -2.334630e-01 -2.292512e-01 -2.409999e-01 -2.227521e-01 -2.508566e-01 -2.158283e-01 -2.637190e-01 -2.099316e-01 -2.821807e-01 -2.066500e-01 -3.164665e-01 -1.939601e-01 -6.228314e-01 -5.658945e-01 1.892206e-01 4.992425e-02 2.149567e-02 1.556251e-02 8.580457e-03 
