# vtk DataFile Version 2.0
Comment goes here
ASCII

DATASET STRUCTURED_POINTS
FIELD FieldData 1
TIME 1 1 double
0.05000000
DIMENSIONS    128   16   1

ORIGIN    0.000   0.000   0.000
SPACING   0.0078125 0.015625   1.000

POINT_DATA   2048
SCALARS P double
LOOKUP_TABLE default

9.901370e-01 9.835979e-01 9.959543e-01 9.948704e-01 9.976458e-01 1.004157e+00 9.926277e-01 1.013478e+00 9.799099e-01 1.005559e+00 9.587960e-01 9.908024e-01 9.344431e-01 9.616623e-01 8.915712e-01 9.109675e-01 8.403562e-01 8.539077e-01 7.845214e-01 7.969000e-01 7.325002e-01 7.425003e-01 6.995507e-01 7.168896e-01 7.002990e-01 7.168949e-01 7.090948e-01 7.231745e-01 7.270572e-01 7.291961e-01 7.340141e-01 7.355539e-01 7.459324e-01 7.326902e-01 7.422034e-01 7.229146e-01 7.211247e-01 6.928537e-01 7.078505e-01 6.782186e-01 6.920039e-01 6.777853e-01 6.955653e-01 6.784676e-01 7.112871e-01 7.037540e-01 7.441124e-01 7.609544e-01 8.110441e-01 8.331406e-01 8.929838e-01 9.163331e-01 9.715696e-01 9.828149e-01 1.015312e+00 1.007261e+00 1.023310e+00 1.010649e+00 1.028472e+00 1.026971e+00 1.052451e+00 1.060682e+00 1.091209e+00 1.091293e+00 1.120782e+00 1.104273e+00 1.118614e+00 1.107638e+00 1.140643e+00 1.138942e+00 1.176374e+00 1.177734e+00 1.210388e+00 1.200530e+00 1.219458e+00 1.202052e+00 1.219508e+00 1.202584e+00 1.204865e+00 1.174189e+00 1.169370e+00 1.133445e+00 1.125821e+00 1.097246e+00 1.105065e+00 1.099753e+00 1.124444e+00 1.121377e+00 1.155473e+00 1.149950e+00 1.180043e+00 1.188432e+00 1.221006e+00 1.222820e+00 1.262443e+00 1.260252e+00 1.280890e+00 1.256969e+00 1.265820e+00 1.226735e+00 1.225761e+00 1.189556e+00 1.183894e+00 1.148935e+00 1.145310e+00 1.115644e+00 1.096269e+00 1.063232e+00 1.042126e+00 1.023478e+00 1.013112e+00 1.004320e+00 1.003077e+00 9.926851e-01 9.893117e-01 9.673617e-01 9.693628e-01 9.490911e-01 9.655718e-01 9.445433e-01 9.698645e-01 9.445372e-01 9.760329e-01 9.517278e-01 9.785837e-01 9.603539e-01 9.834473e-01 9.714548e-01 
8.457643e-01 8.377743e-01 8.469825e-01 8.430392e-01 8.446752e-01 8.454582e-01 8.343707e-01 8.531566e-01 8.203702e-01 8.392068e-01 8.000475e-01 8.240326e-01 7.867905e-01 7.958700e-01 7.746243e-01 7.785073e-01 7.704817e-01 7.700484e-01 7.685189e-01 7.690801e-01 7.719017e-01 7.619094e-01 7.578198e-01 7.641923e-01 7.817778e-01 7.821508e-01 7.786881e-01 7.691725e-01 7.747732e-01 7.531269e-01 7.655091e-01 7.745308e-01 8.135508e-01 8.073360e-01 8.377302e-01 8.184479e-01 8.002601e-01 7.480563e-01 7.592748e-01 7.023274e-01 7.040995e-01 6.922768e-01 7.047744e-01 6.802300e-01 7.184234e-01 6.949629e-01 7.255152e-01 7.375722e-01 7.716128e-01 7.831721e-01 8.507363e-01 8.847021e-01 9.671679e-01 9.978499e-01 1.042962e+00 1.032288e+00 1.036309e+00 9.995458e-01 9.972096e-01 9.894472e-01 1.009311e+00 1.018164e+00 1.054625e+00 1.073521e+00 1.121938e+00 1.091511e+00 1.078478e+00 1.060018e+00 1.106995e+00 1.101976e+00 1.133640e+00 1.150182e+00 1.208948e+00 1.198817e+00 1.191264e+00 1.149900e+00 1.173199e+00 1.168115e+00 1.152123e+00 1.100031e+00 1.092181e+00 1.051221e+00 1.027196e+00 9.900811e-01 1.000398e+00 1.006312e+00 1.040426e+00 1.044273e+00 1.074632e+00 1.061610e+00 1.095405e+00 1.113637e+00 1.136445e+00 1.142528e+00 1.183611e+00 1.187361e+00 1.199981e+00 1.167337e+00 1.165508e+00 1.105620e+00 1.090755e+00 1.059858e+00 1.061906e+00 1.040665e+00 1.059813e+00 1.032325e+00 9.954809e-01 9.415172e-01 9.006151e-01 8.821665e-01 8.673723e-01 8.715992e-01 8.790775e-01 8.800856e-01 8.684845e-01 8.345679e-01 8.240995e-01 8.087361e-01 8.362032e-01 8.318336e-01 8.645282e-01 8.383482e-01 8.622953e-01 8.299400e-01 8.491204e-01 8.284643e-01 8.451040e-01 8.320175e-01 
1.000497e+00 9.923173e-01 1.009584e+00 1.003228e+00 1.013872e+00 1.005996e+00 1.008383e+00 1.051437e+00 1.001431e+00 1.027960e+00 9.748615e-01 1.034426e+00 9.831302e-01 1.010183e+00 9.037329e-01 9.080832e-01 8.267712e-01 8.254493e-01 7.486271e-01 7.814804e-01 6.997635e-01 6.919242e-01 6.368458e-01 6.978813e-01 7.573801e-01 7.697769e-01 7.106366e-01 7.140683e-01 7.320648e-01 6.778671e-01 6.694073e-01 7.465207e-01 8.235957e-01 8.104400e-01 9.014005e-01 9.222034e-01 8.011953e-01 7.145692e-01 7.770368e-01 6.445667e-01 6.099752e-01 6.802414e-01 6.583518e-01 6.037300e-01 6.962386e-01 6.408738e-01 6.476511e-01 6.966053e-01 6.827661e-01 6.696258e-01 7.689988e-01 8.480291e-01 1.008564e+00 1.099210e+00 1.160048e+00 1.138526e+00 1.097646e+00 1.004832e+00 9.670780e-01 9.326604e-01 9.467761e-01 1.021921e+00 1.081043e+00 1.135452e+00 1.245682e+00 1.154926e+00 1.029991e+00 9.896852e-01 1.065195e+00 1.079634e+00 1.168834e+00 1.266527e+00 1.372064e+00 1.342320e+00 1.265263e+00 1.164834e+00 1.209468e+00 1.254329e+00 1.230491e+00 1.167932e+00 1.154653e+00 1.081802e+00 1.020370e+00 9.310322e-01 9.419413e-01 1.020872e+00 1.067096e+00 1.092164e+00 1.185385e+00 1.105701e+00 1.110506e+00 1.209184e+00 1.201491e+00 1.179892e+00 1.299399e+00 1.340293e+00 1.312825e+00 1.262268e+00 1.262538e+00 1.150282e+00 1.120415e+00 1.100281e+00 1.104050e+00 1.100113e+00 1.208157e+00 1.215393e+00 1.136123e+00 1.013040e+00 9.390515e-01 9.312315e-01 9.175135e-01 9.437291e-01 9.894928e-01 1.027919e+00 1.008255e+00 9.352570e-01 9.027270e-01 9.014545e-01 9.698636e-01 9.919305e-01 1.036938e+00 9.877443e-01 1.021408e+00 9.770428e-01 9.960681e-01 9.725618e-01 9.934232e-01 9.801857e-01 
8.535448e-01 8.477162e-01 8.674938e-01 8.595571e-01 8.807492e-01 8.657091e-01 9.032700e-01 9.691584e-01 9.174755e-01 9.201070e-01 8.827295e-01 9.280020e-01 9.115400e-01 8.662996e-01 6.308748e-01 4.535678e-01 2.849799e-01 1.167008e-01 -1.429911e-03 -2.768767e-02 -1.594846e-01 -3.445960e-01 -4.472051e-01 -4.328480e-01 -2.797317e-01 -3.349098e-01 -4.442444e-01 -4.047010e-01 -2.640825e-01 -3.307524e-01 -3.533530e-01 -1.949346e-01 -1.251856e-01 -2.470098e-01 -8.709212e-02 -9.201329e-03 -2.895271e-01 -3.864314e-01 -1.622148e-01 -3.759954e-01 -4.326631e-01 -1.700738e-01 -2.419845e-01 -3.471999e-01 -1.273138e-01 -2.104791e-01 -2.444963e-01 -1.449759e-01 -2.527553e-01 -3.333354e-01 -2.036944e-01 -9.297306e-02 1.587802e-01 2.985159e-01 3.705878e-01 3.231814e-01 2.350533e-01 8.858713e-02 5.180763e-02 -1.828299e-02 -2.952677e-03 2.473449e-01 3.203612e-01 3.616195e-01 4.861268e-01 2.857198e-01 5.144617e-02 -4.397527e-02 1.897632e-02 1.379491e-01 4.927561e-01 7.284225e-01 8.057666e-01 6.983798e-01 5.713733e-01 4.259674e-01 4.361709e-01 5.289456e-01 6.114752e-01 6.922788e-01 6.867016e-01 5.428805e-01 4.883925e-01 2.978413e-01 2.786309e-01 5.004197e-01 5.280960e-01 5.840971e-01 9.019487e-01 6.944587e-01 5.562253e-01 8.165162e-01 7.364568e-01 6.146121e-01 9.054158e-01 1.005709e+00 8.890757e-01 8.683897e-01 9.139339e-01 8.252289e-01 8.282320e-01 8.260005e-01 7.729853e-01 7.592310e-01 9.362277e-01 1.023439e+00 8.975416e-01 6.855208e-01 5.776769e-01 5.372388e-01 4.921754e-01 4.680513e-01 5.422123e-01 6.411576e-01 6.843594e-01 6.596198e-01 6.872357e-01 7.603679e-01 8.794659e-01 9.037762e-01 9.014444e-01 8.064807e-01 8.470248e-01 8.318031e-01 8.374704e-01 8.281066e-01 8.421390e-01 8.356596e-01 
1.002794e+00 1.005901e+00 1.042396e+00 1.044079e+00 1.088235e+00 1.089494e+00 1.158591e+00 1.195005e+00 1.218207e+00 1.201126e+00 1.244253e+00 1.231854e+00 1.305945e+00 1.225343e+00 4.936596e-01 1.289758e-01 -4.749481e-01 -8.613332e-01 -1.392924e+00 -1.688726e+00 -2.466081e+00 -2.655903e+00 -2.671133e+00 -2.729619e+00 -2.589429e+00 -2.666017e+00 -2.682199e+00 -2.625460e+00 -2.436986e+00 -2.427668e+00 -2.404716e+00 -2.302965e+00 -2.287408e+00 -2.414521e+00 -2.314168e+00 -2.247911e+00 -2.401021e+00 -2.406168e+00 -2.182916e+00 -2.262098e+00 -2.246942e+00 -2.005527e+00 -2.022527e+00 -2.062388e+00 -1.868434e+00 -1.880200e+00 -1.882597e+00 -1.805129e+00 -1.867508e+00 -1.919318e+00 -1.827873e+00 -1.765268e+00 -1.599837e+00 -1.520699e+00 -1.453968e+00 -1.465644e+00 -1.474373e+00 -1.515473e+00 -1.465502e+00 -1.470682e+00 -1.420688e+00 -1.187935e+00 -1.124973e+00 -1.109941e+00 -1.063431e+00 -1.175142e+00 -1.234336e+00 -1.295079e+00 -1.265850e+00 -1.116365e+00 -7.342434e-01 -5.672285e-01 -5.618889e-01 -6.515805e-01 -6.619948e-01 -7.049323e-01 -7.179713e-01 -6.606110e-01 -4.853840e-01 -2.947940e-01 -2.482727e-01 -3.360052e-01 -2.861660e-01 -4.040885e-01 -4.041078e-01 -2.266706e-01 -1.991954e-01 -1.493564e-01 1.790429e-01 4.677221e-02 -8.004554e-02 1.231647e-01 8.384604e-02 -1.987346e-02 2.284038e-01 3.060097e-01 2.455076e-01 2.924567e-01 3.828077e-01 4.212482e-01 4.940881e-01 5.063267e-01 4.573963e-01 4.312958e-01 5.156588e-01 5.917268e-01 5.504652e-01 4.282442e-01 3.968367e-01 3.289196e-01 3.040022e-01 2.249245e-01 2.836616e-01 3.541863e-01 4.802765e-01 5.597973e-01 6.925044e-01 7.913868e-01 8.975005e-01 8.942312e-01 8.785142e-01 8.183465e-01 8.675257e-01 8.993489e-01 9.223842e-01 9.363835e-01 9.644747e-01 9.708515e-01 
8.510565e-01 8.584786e-01 8.907184e-01 8.990559e-01 9.355978e-01 9.485995e-01 9.929895e-01 1.002039e+00 1.045844e+00 1.044933e+00 1.094304e+00 1.082609e+00 1.143397e+00 1.127395e+00 2.201852e-01 1.072312e-01 -7.434269e-01 -8.710409e-01 -1.712036e+00 -1.791309e+00 -2.709572e+00 -2.737466e+00 -2.696579e+00 -2.735205e+00 -2.677975e+00 -2.707430e+00 -2.648639e+00 -2.627534e+00 -2.526405e+00 -2.494467e+00 -2.438411e+00 -2.428626e+00 -2.411053e+00 -2.447989e+00 -2.414644e+00 -2.404370e+00 -2.376424e+00 -2.350615e+00 -2.262286e+00 -2.236173e+00 -2.176616e+00 -2.110645e+00 -2.064420e+00 -2.044895e+00 -1.966982e+00 -1.940425e+00 -1.898493e+00 -1.877263e+00 -1.846633e+00 -1.838640e+00 -1.784277e+00 -1.766650e+00 -1.701411e+00 -1.681457e+00 -1.620021e+00 -1.594696e+00 -1.531086e+00 -1.484850e+00 -1.402380e+00 -1.360983e+00 -1.284541e+00 -1.217902e+00 -1.148249e+00 -1.126938e+00 -1.111681e+00 -1.106328e+00 -1.033598e+00 -1.049479e+00 -1.020769e+00 -9.560561e-01 -8.168273e-01 -7.935155e-01 -7.900961e-01 -8.094227e-01 -7.521166e-01 -7.302321e-01 -7.187325e-01 -7.088769e-01 -6.023696e-01 -5.065847e-01 -4.491193e-01 -4.543696e-01 -3.809356e-01 -3.869960e-01 -3.533792e-01 -3.101153e-01 -2.660931e-01 -2.429118e-01 -1.128671e-01 -1.120424e-01 -1.130112e-01 -6.565844e-02 -3.580670e-02 -4.450635e-02 3.728025e-02 6.064404e-02 8.989657e-02 1.339411e-01 1.937823e-01 2.511204e-01 3.112297e-01 3.195684e-01 3.211159e-01 3.078052e-01 3.077507e-01 3.159219e-01 3.364146e-01 3.187858e-01 3.361577e-01 2.927077e-01 3.002841e-01 2.546556e-01 2.847463e-01 2.994431e-01 3.909977e-01 4.604968e-01 5.654628e-01 6.129727e-01 6.679296e-01 6.639004e-01 6.804082e-01 6.769585e-01 7.136777e-01 7.387805e-01 7.690487e-01 7.831157e-01 8.121174e-01 8.212115e-01 
9.998177e-01 1.006845e+00 1.050150e+00 1.056321e+00 1.103315e+00 1.109522e+00 1.160751e+00 1.167341e+00 1.218252e+00 1.218554e+00 1.274758e+00 1.271810e+00 1.335887e+00 1.330828e+00 3.438182e-01 2.515973e-01 -6.753600e-01 -7.963179e-01 -1.720450e+00 -1.815364e+00 -2.813037e+00 -2.841025e+00 -2.771061e+00 -2.796930e+00 -2.720955e+00 -2.738526e+00 -2.671189e+00 -2.667671e+00 -2.589955e+00 -2.579871e+00 -2.519992e+00 -2.505578e+00 -2.455512e+00 -2.456094e+00 -2.405650e+00 -2.390131e+00 -2.352159e+00 -2.334479e+00 -2.268179e+00 -2.246855e+00 -2.191775e+00 -2.145293e+00 -2.093460e+00 -2.066922e+00 -2.001731e+00 -1.977932e+00 -1.929643e+00 -1.901946e+00 -1.859010e+00 -1.838024e+00 -1.776945e+00 -1.745697e+00 -1.672255e+00 -1.636108e+00 -1.567885e+00 -1.533746e+00 -1.468760e+00 -1.424757e+00 -1.352029e+00 -1.310532e+00 -1.227424e+00 -1.187495e+00 -1.104901e+00 -1.072178e+00 -1.021785e+00 -1.008920e+00 -9.660313e-01 -9.631374e-01 -9.090934e-01 -8.711096e-01 -8.034613e-01 -7.771797e-01 -7.356648e-01 -7.290221e-01 -6.878563e-01 -6.746179e-01 -6.296906e-01 -6.019726e-01 -5.341071e-01 -4.927562e-01 -4.331776e-01 -4.205227e-01 -3.635558e-01 -3.542524e-01 -3.023864e-01 -2.680112e-01 -2.074671e-01 -1.813522e-01 -9.967716e-02 -8.632898e-02 -4.579316e-02 -1.100970e-02 3.284323e-02 4.860694e-02 1.143343e-01 1.414184e-01 1.856752e-01 2.135418e-01 2.629333e-01 2.870682e-01 3.307551e-01 3.439681e-01 3.714850e-01 3.751808e-01 4.047486e-01 4.072100e-01 4.276893e-01 4.096606e-01 4.301041e-01 4.107203e-01 4.387218e-01 4.273506e-01 4.743396e-01 4.881631e-01 5.543670e-01 5.821496e-01 6.535636e-01 6.813200e-01 7.429589e-01 7.556000e-01 8.002626e-01 8.048872e-01 8.489220e-01 8.601571e-01 9.004424e-01 9.108517e-01 9.504743e-01 9.590425e-01 
8.456044e-01 8.558966e-01 8.930116e-01 9.027676e-01 9.424494e-01 9.520114e-01 9.949727e-01 1.003582e+00 1.049418e+00 1.057172e+00 1.106224e+00 1.115494e+00 1.167190e+00 1.183613e+00 1.891864e-01 1.661585e-01 -7.942873e-01 -8.329956e-01 -1.786688e+00 -1.816673e+00 -2.791926e+00 -2.798068e+00 -2.733020e+00 -2.742211e+00 -2.676913e+00 -2.682412e+00 -2.617131e+00 -2.614068e+00 -2.548282e+00 -2.540750e+00 -2.482532e+00 -2.475474e+00 -2.424040e+00 -2.417742e+00 -2.365850e+00 -2.351185e+00 -2.296703e+00 -2.274792e+00 -2.214044e+00 -2.187823e+00 -2.129073e+00 -2.099428e+00 -2.043542e+00 -2.018613e+00 -1.962752e+00 -1.940089e+00 -1.888568e+00 -1.868183e+00 -1.818201e+00 -1.799442e+00 -1.745744e+00 -1.725039e+00 -1.666469e+00 -1.641618e+00 -1.578066e+00 -1.546613e+00 -1.476764e+00 -1.436826e+00 -1.361019e+00 -1.322981e+00 -1.247866e+00 -1.217084e+00 -1.149101e+00 -1.127229e+00 -1.071105e+00 -1.049725e+00 -9.969062e-01 -9.781998e-01 -9.266763e-01 -9.073715e-01 -8.577166e-01 -8.418561e-01 -7.997941e-01 -7.874916e-01 -7.410050e-01 -7.230740e-01 -6.741743e-01 -6.513264e-01 -5.915630e-01 -5.613256e-01 -5.024261e-01 -4.805557e-01 -4.224323e-01 -4.030351e-01 -3.495145e-01 -3.271384e-01 -2.734348e-01 -2.527854e-01 -1.954279e-01 -1.765118e-01 -1.311217e-01 -1.094554e-01 -6.457634e-02 -4.634116e-02 1.705518e-03 2.294366e-02 6.699088e-02 9.135256e-02 1.353762e-01 1.587186e-01 1.988553e-01 2.133357e-01 2.443716e-01 2.510203e-01 2.782917e-01 2.807514e-01 3.089691e-01 3.052309e-01 3.349902e-01 3.273944e-01 3.602835e-01 3.556454e-01 3.965749e-01 4.037321e-01 4.556820e-01 4.736360e-01 5.288690e-01 5.471055e-01 5.955759e-01 6.085022e-01 6.493231e-01 6.611524e-01 6.997934e-01 7.137598e-01 7.501906e-01 7.631585e-01 7.985394e-01 8.099733e-01 
9.928813e-01 1.001072e+00 1.046558e+00 1.053648e+00 1.101346e+00 1.107698e+00 1.157940e+00 1.163761e+00 1.216296e+00 1.221607e+00 1.277649e+00 1.284967e+00 1.344498e+00 1.358710e+00 3.124894e-01 2.740219e-01 -7.297761e-01 -7.918424e-01 -1.790966e+00 -1.841675e+00 -2.872503e+00 -2.883658e+00 -2.806366e+00 -2.815634e+00 -2.740179e+00 -2.743744e+00 -2.672147e+00 -2.669472e+00 -2.602302e+00 -2.595761e+00 -2.534858e+00 -2.525175e+00 -2.467877e+00 -2.454570e+00 -2.396744e+00 -2.376305e+00 -2.317283e+00 -2.291501e+00 -2.230028e+00 -2.201700e+00 -2.142761e+00 -2.113572e+00 -2.058175e+00 -2.032347e+00 -1.977972e+00 -1.953486e+00 -1.900500e+00 -1.875843e+00 -1.822789e+00 -1.798555e+00 -1.742838e+00 -1.717528e+00 -1.658317e+00 -1.630093e+00 -1.566624e+00 -1.533379e+00 -1.464185e+00 -1.425234e+00 -1.350642e+00 -1.309870e+00 -1.234980e+00 -1.198575e+00 -1.129348e+00 -1.099675e+00 -1.038932e+00 -1.015291e+00 -9.606952e-01 -9.411849e-01 -8.897703e-01 -8.718717e-01 -8.232091e-01 -8.070207e-01 -7.606265e-01 -7.451785e-01 -6.971621e-01 -6.779082e-01 -6.250780e-01 -6.005731e-01 -5.425276e-01 -5.161583e-01 -4.578015e-01 -4.347148e-01 -3.774604e-01 -3.557142e-01 -2.998750e-01 -2.769123e-01 -2.214153e-01 -1.994314e-01 -1.439267e-01 -1.223796e-01 -7.105839e-02 -4.762296e-02 2.802060e-03 2.488317e-02 7.558589e-02 9.767916e-02 1.456975e-01 1.671572e-01 2.134172e-01 2.321361e-01 2.748505e-01 2.885354e-01 3.268555e-01 3.350577e-01 3.705514e-01 3.737415e-01 4.074998e-01 4.062229e-01 4.414798e-01 4.397632e-01 4.790332e-01 4.798173e-01 5.243730e-01 5.304028e-01 5.803424e-01 5.911364e-01 6.438796e-01 6.564839e-01 7.083988e-01 7.201481e-01 7.693640e-01 7.805070e-01 8.278209e-01 8.393990e-01 8.844360e-01 8.953121e-01 9.392133e-01 9.487731e-01 
8.387816e-01 8.495196e-01 8.871805e-01 8.969863e-01 9.369526e-01 9.461057e-01 9.892536e-01 9.970446e-01 1.043547e+00 1.050475e+00 1.101505e+00 1.109171e+00 1.163876e+00 1.177033e+00 1.800674e-01 1.518842e-01 -8.094377e-01 -8.568573e-01 -1.809993e+00 -1.851168e+00 -2.821271e+00 -2.833729e+00 -2.758259e+00 -2.764967e+00 -2.690552e+00 -2.691577e+00 -2.621898e+00 -2.620503e+00 -2.557766e+00 -2.554862e+00 -2.497624e+00 -2.492154e+00 -2.435824e+00 -2.422790e+00 -2.360882e+00 -2.337351e+00 -2.271037e+00 -2.241284e+00 -2.175056e+00 -2.145178e+00 -2.083779e+00 -2.057896e+00 -2.003713e+00 -1.983178e+00 -1.932093e+00 -1.913287e+00 -1.863388e+00 -1.846441e+00 -1.798141e+00 -1.782921e+00 -1.734494e+00 -1.719529e+00 -1.668082e+00 -1.648185e+00 -1.587779e+00 -1.557610e+00 -1.486283e+00 -1.447618e+00 -1.369336e+00 -1.328126e+00 -1.251140e+00 -1.215572e+00 -1.147831e+00 -1.120288e+00 -1.060814e+00 -1.038426e+00 -9.852192e-01 -9.688062e-01 -9.222704e-01 -9.109204e-01 -8.684866e-01 -8.583939e-01 -8.165939e-01 -8.058367e-01 -7.620464e-01 -7.452376e-01 -6.927357e-01 -6.667976e-01 -6.068659e-01 -5.791452e-01 -5.191665e-01 -4.937442e-01 -4.356244e-01 -4.125798e-01 -3.582941e-01 -3.379904e-01 -2.884959e-01 -2.703446e-01 -2.231972e-01 -2.041238e-01 -1.581925e-01 -1.374891e-01 -9.230089e-02 -7.286053e-02 -2.988492e-02 -1.125536e-02 3.168665e-02 5.293670e-02 9.659352e-02 1.173107e-01 1.583307e-01 1.748298e-01 2.140118e-01 2.260496e-01 2.618038e-01 2.665841e-01 3.001459e-01 3.009404e-01 3.367355e-01 3.377269e-01 3.762856e-01 3.772924e-01 4.171397e-01 4.207513e-01 4.640447e-01 4.725092e-01 5.181934e-01 5.295289e-01 5.750604e-01 5.880893e-01 6.313443e-01 6.455157e-01 6.861914e-01 7.015610e-01 7.395193e-01 7.535347e-01 7.900926e-01 8.022968e-01 
9.859122e-01 9.941931e-01 1.038516e+00 1.045076e+00 1.092153e+00 1.097821e+00 1.148075e+00 1.153046e+00 1.202351e+00 1.202598e+00 1.258559e+00 1.256568e+00 1.319260e+00 1.317900e+00 3.221883e-01 2.211514e-01 -7.084948e-01 -8.514916e-01 -1.780093e+00 -1.899390e+00 -2.890682e+00 -2.924452e+00 -2.841908e+00 -2.849802e+00 -2.766786e+00 -2.758490e+00 -2.680354e+00 -2.669028e+00 -2.605049e+00 -2.599154e+00 -2.547869e+00 -2.544845e+00 -2.496853e+00 -2.483685e+00 -2.421149e+00 -2.388638e+00 -2.313581e+00 -2.268514e+00 -2.191927e+00 -2.149852e+00 -2.083023e+00 -2.054241e+00 -2.005357e+00 -1.988318e+00 -1.943296e+00 -1.924171e+00 -1.872316e+00 -1.848319e+00 -1.795528e+00 -1.774049e+00 -1.727019e+00 -1.715000e+00 -1.673068e+00 -1.661202e+00 -1.608368e+00 -1.578772e+00 -1.503976e+00 -1.454541e+00 -1.362442e+00 -1.303731e+00 -1.213485e+00 -1.167368e+00 -1.097118e+00 -1.067751e+00 -1.009397e+00 -9.862610e-01 -9.330813e-01 -9.167794e-01 -8.724722e-01 -8.655599e-01 -8.291968e-01 -8.257003e-01 -7.893565e-01 -7.830500e-01 -7.409517e-01 -7.214636e-01 -6.623342e-01 -6.274972e-01 -5.596528e-01 -5.276756e-01 -4.648860e-01 -4.391369e-01 -3.803431e-01 -3.563812e-01 -3.008613e-01 -2.805287e-01 -2.314790e-01 -2.157966e-01 -1.696972e-01 -1.492503e-01 -1.002925e-01 -7.523344e-02 -2.293330e-02 -1.578035e-06 4.752618e-02 6.721148e-02 1.152863e-01 1.387691e-01 1.890469e-01 2.115223e-01 2.566587e-01 2.726098e-01 3.154624e-01 3.262889e-01 3.633438e-01 3.650820e-01 3.991836e-01 3.985496e-01 4.385619e-01 4.427502e-01 4.881986e-01 4.901576e-01 5.318868e-01 5.320498e-01 5.760468e-01 5.816673e-01 6.302674e-01 6.383811e-01 6.880543e-01 6.979174e-01 7.484982e-01 7.619948e-01 8.140855e-01 8.305517e-01 8.757786e-01 8.895805e-01 9.323882e-01 9.431506e-01 
8.331175e-01 8.421631e-01 8.758549e-01 8.845925e-01 9.213331e-01 9.329112e-01 9.755521e-01 9.805349e-01 1.023011e+00 1.022711e+00 1.079139e+00 1.066166e+00 1.134609e+00 1.106218e+00 1.937351e-01 7.198089e-02 -7.803863e-01 -9.384416e-01 -1.790410e+00 -1.932666e+00 -2.837068e+00 -2.891752e+00 -2.802282e+00 -2.806218e+00 -2.707987e+00 -2.691479e+00 -2.608574e+00 -2.605209e+00 -2.551291e+00 -2.557242e+00 -2.519350e+00 -2.535459e+00 -2.500172e+00 -2.492137e+00 -2.415533e+00 -2.366027e+00 -2.269915e+00 -2.207939e+00 -2.117255e+00 -2.067240e+00 -1.993635e+00 -1.966106e+00 -1.930105e+00 -1.928435e+00 -1.889774e+00 -1.874304e+00 -1.824378e+00 -1.811399e+00 -1.771686e+00 -1.765892e+00 -1.734314e+00 -1.745835e+00 -1.725258e+00 -1.731683e+00 -1.682280e+00 -1.646294e+00 -1.557619e+00 -1.496414e+00 -1.382649e+00 -1.305517e+00 -1.194863e+00 -1.144982e+00 -1.081406e+00 -1.059672e+00 -1.004841e+00 -9.781653e-01 -9.229520e-01 -9.124804e-01 -8.812135e-01 -8.930336e-01 -8.716937e-01 -8.750554e-01 -8.440138e-01 -8.563501e-01 -8.421403e-01 -8.387639e-01 -7.775312e-01 -7.191197e-01 -6.294906e-01 -5.879617e-01 -5.192819e-01 -4.899887e-01 -4.239716e-01 -3.958267e-01 -3.369451e-01 -3.210685e-01 -2.855593e-01 -2.822041e-01 -2.497919e-01 -2.333928e-01 -1.888115e-01 -1.574986e-01 -1.061243e-01 -8.728742e-02 -5.809804e-02 -5.580229e-02 -1.695854e-02 1.379353e-02 7.048983e-02 1.033228e-01 1.420306e-01 1.615203e-01 2.152081e-01 2.438206e-01 2.831154e-01 2.771294e-01 2.983314e-01 2.869268e-01 3.266375e-01 3.369403e-01 3.870710e-01 3.833650e-01 4.134999e-01 4.045743e-01 4.434329e-01 4.503362e-01 4.966448e-01 5.057887e-01 5.568770e-01 5.722105e-01 6.191071e-01 6.354007e-01 6.786582e-01 7.056353e-01 7.398596e-01 7.567564e-01 7.891790e-01 8.007726e-01 
9.826197e-01 9.879339e-01 1.026329e+00 1.029038e+00 1.073847e+00 1.074856e+00 1.140946e+00 1.164357e+00 1.177130e+00 1.160847e+00 1.211614e+00 1.191983e+00 1.269739e+00 1.177488e+00 4.787143e-01 9.888430e-02 -4.807122e-01 -9.526102e-01 -1.539588e+00 -1.959223e+00 -2.833156e+00 -2.921975e+00 -2.871790e+00 -2.844339e+00 -2.740432e+00 -2.672356e+00 -2.551728e+00 -2.492540e+00 -2.434490e+00 -2.439434e+00 -2.434654e+00 -2.486075e+00 -2.515979e+00 -2.540953e+00 -2.473888e+00 -2.411511e+00 -2.282926e+00 -2.160575e+00 -2.025550e+00 -1.929995e+00 -1.825254e+00 -1.806322e+00 -1.815872e+00 -1.859112e+00 -1.868558e+00 -1.871510e+00 -1.798833e+00 -1.742234e+00 -1.656461e+00 -1.606258e+00 -1.568261e+00 -1.602124e+00 -1.636443e+00 -1.710429e+00 -1.716088e+00 -1.706924e+00 -1.613895e+00 -1.514006e+00 -1.332006e+00 -1.173240e+00 -1.002554e+00 -9.310453e-01 -8.879122e-01 -8.986509e-01 -8.712165e-01 -8.526418e-01 -7.911710e-01 -7.678855e-01 -7.299116e-01 -7.510739e-01 -7.559117e-01 -7.963207e-01 -8.011301e-01 -8.415586e-01 -8.363464e-01 -8.151883e-01 -7.182731e-01 -6.143197e-01 -4.928951e-01 -4.435974e-01 -3.808928e-01 -3.724929e-01 -3.202290e-01 -2.905654e-01 -2.272170e-01 -2.052084e-01 -1.725700e-01 -1.982173e-01 -1.827753e-01 -1.623734e-01 -1.195618e-01 -7.131398e-02 1.204722e-02 4.010838e-02 7.039278e-02 6.896424e-02 1.121958e-01 1.505446e-01 2.267390e-01 2.703113e-01 3.114263e-01 3.256794e-01 3.777377e-01 3.940452e-01 4.164071e-01 3.939530e-01 3.976976e-01 3.735273e-01 4.166630e-01 4.490871e-01 5.319826e-01 5.360880e-01 5.544594e-01 5.220967e-01 5.477840e-01 5.572310e-01 6.145465e-01 6.207859e-01 6.638562e-01 6.598284e-01 7.076533e-01 7.270845e-01 8.206871e-01 8.596662e-01 8.874419e-01 9.056615e-01 9.378916e-01 9.476236e-01 
8.321868e-01 8.305480e-01 8.535045e-01 8.487182e-01 8.724553e-01 8.606919e-01 8.982990e-01 9.503823e-01 8.850013e-01 8.845002e-01 8.453929e-01 8.802702e-01 8.612209e-01 8.324949e-01 6.155767e-01 5.050037e-01 3.441493e-01 1.970505e-01 1.251280e-02 -1.583750e-01 -4.271035e-01 -5.330605e-01 -5.641635e-01 -5.604270e-01 -5.234877e-01 -4.674699e-01 -3.608115e-01 -2.701699e-01 -2.110317e-01 -2.170354e-01 -2.318464e-01 -3.000259e-01 -3.763416e-01 -4.563881e-01 -4.624803e-01 -4.783767e-01 -4.059975e-01 -3.266882e-01 -2.171068e-01 -1.508004e-01 -6.002103e-02 -8.439010e-02 -1.107631e-01 -1.848272e-01 -2.243328e-01 -2.599736e-01 -1.723634e-01 -7.962674e-02 6.783831e-02 1.681116e-01 2.404622e-01 2.225390e-01 1.825346e-01 7.068687e-02 5.919682e-03 -5.894601e-02 -2.890699e-02 3.181652e-02 1.773380e-01 3.141431e-01 4.470637e-01 4.922430e-01 5.082917e-01 4.611851e-01 4.498015e-01 4.228781e-01 4.578177e-01 4.760531e-01 5.270793e-01 5.188529e-01 5.100525e-01 4.361095e-01 3.983549e-01 3.608972e-01 4.062134e-01 4.550413e-01 5.458671e-01 5.958494e-01 6.523706e-01 6.503126e-01 6.541983e-01 6.052261e-01 5.887324e-01 5.769513e-01 5.966896e-01 6.051965e-01 6.354702e-01 5.960718e-01 6.043872e-01 6.162067e-01 6.439467e-01 6.702861e-01 7.557756e-01 7.834270e-01 8.368900e-01 8.564882e-01 8.982632e-01 9.003772e-01 9.400830e-01 9.365621e-01 9.528627e-01 9.229014e-01 8.994346e-01 8.340038e-01 7.887751e-01 7.494327e-01 7.229777e-01 6.996721e-01 6.984698e-01 7.190971e-01 7.656164e-01 7.772809e-01 7.674699e-01 7.272477e-01 7.063149e-01 6.961343e-01 7.160686e-01 6.970724e-01 6.850597e-01 6.341862e-01 6.523121e-01 6.485839e-01 7.632636e-01 7.702911e-01 7.874601e-01 7.884813e-01 8.097207e-01 8.096510e-01 
9.832598e-01 9.783739e-01 9.987994e-01 9.944834e-01 1.008165e+00 1.001837e+00 1.007535e+00 1.044510e+00 9.919760e-01 1.010499e+00 9.557023e-01 1.004647e+00 9.597908e-01 9.993847e-01 9.127693e-01 9.393114e-01 8.724330e-01 8.821683e-01 8.051664e-01 8.019319e-01 6.888819e-01 6.777878e-01 6.274378e-01 6.334327e-01 6.110042e-01 6.389031e-01 6.708758e-01 7.332930e-01 7.660604e-01 7.791670e-01 7.787574e-01 7.614559e-01 7.308415e-01 6.825683e-01 6.523852e-01 6.047535e-01 6.098175e-01 6.094092e-01 6.489261e-01 6.550044e-01 6.963364e-01 6.708481e-01 6.841238e-01 6.547736e-01 6.578982e-01 6.389335e-01 7.041272e-01 7.653567e-01 8.792736e-01 9.526323e-01 1.030386e+00 1.051474e+00 1.073882e+00 1.034378e+00 1.013203e+00 9.600516e-01 9.609203e-01 9.655668e-01 1.015144e+00 1.051866e+00 1.098835e+00 1.111885e+00 1.138142e+00 1.117490e+00 1.122944e+00 1.092140e+00 1.110425e+00 1.113479e+00 1.161162e+00 1.169369e+00 1.191579e+00 1.152944e+00 1.148619e+00 1.144047e+00 1.209694e+00 1.243140e+00 1.288304e+00 1.266548e+00 1.262642e+00 1.229831e+00 1.216311e+00 1.166893e+00 1.140059e+00 1.108625e+00 1.107634e+00 1.102109e+00 1.135161e+00 1.122788e+00 1.151345e+00 1.154514e+00 1.183935e+00 1.183963e+00 1.238595e+00 1.253567e+00 1.317418e+00 1.343033e+00 1.383012e+00 1.359477e+00 1.369046e+00 1.330962e+00 1.338342e+00 1.292595e+00 1.250608e+00 1.168431e+00 1.124278e+00 1.092377e+00 1.076820e+00 1.062781e+00 1.044670e+00 1.033336e+00 1.032780e+00 1.034808e+00 1.031586e+00 1.012207e+00 9.950906e-01 9.712306e-01 9.713592e-01 9.418299e-01 9.289155e-01 8.789849e-01 8.952479e-01 8.724607e-01 9.451029e-01 9.205921e-01 9.517887e-01 9.382580e-01 9.661571e-01 9.585636e-01 
8.357543e-01 8.297946e-01 8.405540e-01 8.378540e-01 8.405043e-01 8.418883e-01 8.314043e-01 8.492035e-01 8.152728e-01 8.319798e-01 7.903617e-01 8.138174e-01 7.767042e-01 7.952524e-01 7.752942e-01 7.910909e-01 7.798509e-01 7.870247e-01 7.774780e-01 7.760545e-01 7.654165e-01 7.544569e-01 7.395946e-01 7.322277e-01 7.292235e-01 7.324033e-01 7.481757e-01 7.623803e-01 7.821839e-01 7.794977e-01 7.885216e-01 7.743786e-01 7.757542e-01 7.461083e-01 7.422127e-01 7.071213e-01 7.127056e-01 6.891399e-01 7.112187e-01 6.921912e-01 7.166894e-01 6.943692e-01 7.179686e-01 6.991600e-01 7.249441e-01 7.143842e-01 7.619853e-01 7.844579e-01 8.526880e-01 8.830086e-01 9.428149e-01 9.580392e-01 9.980126e-01 9.889691e-01 1.004614e+00 9.814407e-01 9.954162e-01 9.883437e-01 1.015656e+00 1.021457e+00 1.051599e+00 1.055743e+00 1.086252e+00 1.079891e+00 1.101144e+00 1.081845e+00 1.099703e+00 1.090001e+00 1.121955e+00 1.117134e+00 1.142339e+00 1.124597e+00 1.142258e+00 1.134423e+00 1.170111e+00 1.169394e+00 1.192545e+00 1.168945e+00 1.167548e+00 1.136782e+00 1.131139e+00 1.096187e+00 1.085185e+00 1.057222e+00 1.059776e+00 1.047714e+00 1.070458e+00 1.064075e+00 1.090903e+00 1.088667e+00 1.117834e+00 1.117663e+00 1.153494e+00 1.159037e+00 1.201373e+00 1.207548e+00 1.234067e+00 1.212001e+00 1.217618e+00 1.181497e+00 1.180160e+00 1.140820e+00 1.117739e+00 1.066206e+00 1.041085e+00 1.009166e+00 9.894180e-01 9.664563e-01 9.448644e-01 9.259759e-01 9.120326e-01 9.034360e-01 8.970570e-01 8.830192e-01 8.721839e-01 8.490024e-01 8.447864e-01 8.198017e-01 8.212204e-01 7.914951e-01 8.092716e-01 7.861016e-01 8.212004e-01 7.978632e-01 8.238982e-01 8.086634e-01 8.293448e-01 8.195508e-01 
