# vtk DataFile Version 2.0
Comment goes here
ASCII

DATASET STRUCTURED_POINTS
FIELD FieldData 1
TIME 1 1 double
0.48000000
DIMENSIONS    128   16   1

ORIGIN    0.000   0.000   0.000
SPACING   0.0078125 0.015625   1.000

POINT_DATA   2048
SCALARS P double
LOOKUP_TABLE default

-1.756460e-01 -1.777985e-01 -1.763832e-01 -1.807755e-01 -1.747587e-01 -1.829516e-01 -1.693054e-01 -1.834749e-01 -1.711405e-01 -1.814043e-01 -1.725146e-01 -1.778637e-01 -1.716869e-01 -1.716203e-01 -1.659870e-01 -1.618819e-01 -1.572986e-01 -1.487432e-01 -1.475760e-01 -1.359989e-01 -1.381336e-01 -1.276418e-01 -1.326211e-01 -1.243172e-01 -1.314177e-01 -1.232835e-01 -1.316723e-01 -1.229959e-01 -1.318284e-01 -1.227512e-01 -1.315125e-01 -1.228069e-01 -1.311224e-01 -1.234366e-01 -1.306089e-01 -1.241775e-01 -1.295920e-01 -1.247927e-01 -1.284828e-01 -1.258373e-01 -1.280078e-01 -1.273816e-01 -1.277940e-01 -1.283823e-01 -1.269624e-01 -1.283367e-01 -1.259571e-01 -1.282945e-01 -1.261226e-01 -1.291717e-01 -1.275574e-01 -1.301829e-01 -1.288855e-01 -1.301194e-01 -1.294968e-01 -1.295809e-01 -1.307337e-01 -1.306578e-01 -1.325938e-01 -1.335797e-01 -1.416290e-01 -1.343067e-01 -1.451401e-01 -1.438861e-01 -1.474805e-01 -1.505507e-01 -1.570311e-01 -1.535738e-01 -1.681819e-01 -1.613085e-01 -1.687259e-01 -1.682308e-01 -1.767640e-01 -1.755124e-01 -1.803332e-01 -1.796081e-01 -1.821573e-01 -1.821126e-01 -1.827579e-01 -1.831781e-01 -1.826914e-01 -1.838235e-01 -1.833746e-01 -1.851078e-01 -1.851481e-01 -1.863174e-01 -1.866459e-01 -1.859794e-01 -1.869487e-01 -1.841396e-01 -1.868693e-01 -1.821260e-01 -1.874028e-01 -1.805582e-01 -1.883109e-01 -1.791050e-01 -1.889940e-01 -1.777405e-01 -1.893339e-01 -1.766415e-01 -1.888993e-01 -1.753181e-01 -1.868488e-01 -1.735086e-01 -1.834951e-01 -1.723867e-01 -1.803684e-01 -1.731549e-01 -1.779964e-01 -1.750455e-01 -1.751919e-01 -1.762607e-01 -1.712157e-01 -1.763517e-01 -1.672286e-01 -1.761976e-01 -1.648222e-01 -1.760622e-01 -1.644064e-01 -1.752252e-01 -1.657727e-01 -1.733690e-01 -1.691874e-01 -1.707584e-01 -1.712757e-01 -1.719075e-01 -1.736606e-01 -1.746180e-01 
-1.604628e-01 -1.632677e-01 -1.608459e-01 -1.657733e-01 -1.584089e-01 -1.676346e-01 -1.502147e-01 -1.662290e-01 -1.526757e-01 -1.620561e-01 -1.550817e-01 -1.565499e-01 -1.561819e-01 -1.487204e-01 -1.552695e-01 -1.410008e-01 -1.528780e-01 -1.344166e-01 -1.491501e-01 -1.285360e-01 -1.436285e-01 -1.236248e-01 -1.381139e-01 -1.221213e-01 -1.366013e-01 -1.222174e-01 -1.359252e-01 -1.214331e-01 -1.337143e-01 -1.193913e-01 -1.311285e-01 -1.187062e-01 -1.303319e-01 -1.200833e-01 -1.302427e-01 -1.213566e-01 -1.287967e-01 -1.213110e-01 -1.265650e-01 -1.219041e-01 -1.261272e-01 -1.241514e-01 -1.262080e-01 -1.247136e-01 -1.237548e-01 -1.225114e-01 -1.206393e-01 -1.214724e-01 -1.213823e-01 -1.247013e-01 -1.261013e-01 -1.288813e-01 -1.291830e-01 -1.286954e-01 -1.277290e-01 -1.251077e-01 -1.258977e-01 -1.248551e-01 -1.274277e-01 -1.264346e-01 -1.381832e-01 -1.309652e-01 -1.423792e-01 -1.380787e-01 -1.386496e-01 -1.382273e-01 -1.413313e-01 -1.347979e-01 -1.492744e-01 -1.428397e-01 -1.566318e-01 -1.576167e-01 -1.689776e-01 -1.688556e-01 -1.748036e-01 -1.741100e-01 -1.761810e-01 -1.751639e-01 -1.744298e-01 -1.737223e-01 -1.722858e-01 -1.736270e-01 -1.737934e-01 -1.771195e-01 -1.780993e-01 -1.803660e-01 -1.802949e-01 -1.794327e-01 -1.788052e-01 -1.754699e-01 -1.768747e-01 -1.726956e-01 -1.776683e-01 -1.721741e-01 -1.795827e-01 -1.712672e-01 -1.799305e-01 -1.688389e-01 -1.787162e-01 -1.663662e-01 -1.774913e-01 -1.650488e-01 -1.758101e-01 -1.636208e-01 -1.724598e-01 -1.623000e-01 -1.688345e-01 -1.625313e-01 -1.656335e-01 -1.637489e-01 -1.620833e-01 -1.646687e-01 -1.577216e-01 -1.648453e-01 -1.536838e-01 -1.651385e-01 -1.513846e-01 -1.652979e-01 -1.508293e-01 -1.643580e-01 -1.520164e-01 -1.616884e-01 -1.552975e-01 -1.564004e-01 -1.568897e-01 -1.580544e-01 -1.588310e-01 -1.605412e-01 
-1.781247e-01 -1.781787e-01 -1.810292e-01 -1.823086e-01 -1.822958e-01 -1.860911e-01 -1.544286e-01 -1.881679e-01 -1.715732e-01 -1.840275e-01 -1.770293e-01 -1.840125e-01 -1.822285e-01 -1.782989e-01 -1.703381e-01 -1.673431e-01 -1.578634e-01 -1.462409e-01 -1.452556e-01 -1.248359e-01 -1.288417e-01 -1.179601e-01 -1.254102e-01 -1.220785e-01 -1.322868e-01 -1.261735e-01 -1.363987e-01 -1.261499e-01 -1.345020e-01 -1.220996e-01 -1.309455e-01 -1.209775e-01 -1.316026e-01 -1.244729e-01 -1.338322e-01 -1.272994e-01 -1.326192e-01 -1.265283e-01 -1.291680e-01 -1.269887e-01 -1.298048e-01 -1.314862e-01 -1.315005e-01 -1.320846e-01 -1.268087e-01 -1.262653e-01 -1.200927e-01 -1.232984e-01 -1.219448e-01 -1.304996e-01 -1.326233e-01 -1.397650e-01 -1.384607e-01 -1.376808e-01 -1.317584e-01 -1.249500e-01 -1.273039e-01 -1.196541e-01 -9.759381e-02 -1.391106e-01 -1.636702e-01 -9.852348e-02 -1.561670e-01 -1.662559e-01 -1.260551e-01 -1.768623e-01 -1.555979e-01 -1.355253e-01 -2.119400e-01 -1.610841e-01 -1.347877e-01 -1.692202e-01 -2.023384e-01 -1.999386e-01 -1.997925e-01 -1.969204e-01 -1.945702e-01 -1.914757e-01 -1.865192e-01 -1.840059e-01 -1.797373e-01 -1.818455e-01 -1.824951e-01 -1.892582e-01 -1.918374e-01 -1.965614e-01 -1.960291e-01 -1.947941e-01 -1.918846e-01 -1.869527e-01 -1.871823e-01 -1.827824e-01 -1.892588e-01 -1.842827e-01 -1.939894e-01 -1.846125e-01 -1.949132e-01 -1.807928e-01 -1.923377e-01 -1.766119e-01 -1.909838e-01 -1.757261e-01 -1.904720e-01 -1.748125e-01 -1.871035e-01 -1.731980e-01 -1.830478e-01 -1.735734e-01 -1.795293e-01 -1.752223e-01 -1.755360e-01 -1.766549e-01 -1.704032e-01 -1.772548e-01 -1.657448e-01 -1.785516e-01 -1.634207e-01 -1.796636e-01 -1.626589e-01 -1.787952e-01 -1.630947e-01 -1.760178e-01 -1.726293e-01 -1.639022e-01 -1.710038e-01 -1.690031e-01 -1.745555e-01 -1.737246e-01 
-1.655687e-01 -1.642562e-01 -1.721734e-01 -1.684566e-01 -1.818662e-01 -1.723528e-01 -1.210705e-01 -1.862697e-01 -1.678848e-01 -1.814568e-01 -1.776187e-01 -1.827865e-01 -1.852934e-01 -1.586653e-01 -1.370482e-01 -1.113444e-01 -8.443606e-02 -2.937843e-02 -3.042705e-02 4.955430e-02 3.419799e-02 7.600135e-02 6.097973e-02 7.018891e-02 5.597727e-02 6.433293e-02 5.136500e-02 5.986142e-02 4.866306e-02 5.681281e-02 4.648436e-02 5.284579e-02 4.290423e-02 4.751555e-02 3.898560e-02 4.277796e-02 3.646848e-02 3.952138e-02 3.472183e-02 3.583686e-02 3.128901e-02 3.055377e-02 2.701605e-02 2.621420e-02 2.434222e-02 2.356835e-02 2.184976e-02 1.958605e-02 1.619504e-02 1.207944e-02 7.622794e-03 4.201749e-03 1.157814e-03 9.446532e-04 -3.164165e-04 1.838653e-03 -1.950463e-02 -1.470590e-02 7.470837e-02 -1.786216e-02 -5.963899e-02 1.523388e-01 1.564623e-02 -2.727847e-02 1.179230e-01 -5.734566e-02 2.771376e-02 7.849687e-02 -1.198006e-01 4.153211e-02 1.380744e-01 3.420821e-02 -6.830076e-02 -7.336691e-02 -7.625570e-02 -7.632259e-02 -7.846975e-02 -7.872513e-02 -8.011549e-02 -8.049756e-02 -8.226658e-02 -8.396335e-02 -8.757117e-02 -9.051004e-02 -9.488586e-02 -9.674982e-02 -1.001611e-01 -9.966484e-02 -1.025020e-01 -1.005251e-01 -1.048277e-01 -1.029092e-01 -1.098109e-01 -1.075747e-01 -1.159160e-01 -1.119645e-01 -1.205712e-01 -1.147128e-01 -1.234865e-01 -1.168973e-01 -1.261379e-01 -1.197682e-01 -1.283962e-01 -1.222452e-01 -1.290553e-01 -1.242532e-01 -1.290941e-01 -1.269916e-01 -1.292891e-01 -1.305417e-01 -1.297105e-01 -1.346494e-01 -1.303635e-01 -1.390132e-01 -1.316996e-01 -1.437713e-01 -1.341168e-01 -1.483205e-01 -1.372234e-01 -1.519998e-01 -1.402750e-01 -1.586811e-01 -1.661480e-01 -1.508372e-01 -1.562700e-01 -1.550964e-01 -1.603372e-01 -1.597678e-01 
-1.833888e-01 -1.800750e-01 -1.927760e-01 -1.864397e-01 -2.061211e-01 -1.933987e-01 -1.733959e-01 -2.143728e-01 -2.147693e-01 -2.193043e-01 -2.292360e-01 -2.244727e-01 -2.412737e-01 -2.064735e-01 -1.026196e-01 -9.892961e-02 5.735347e-02 1.444179e-01 2.247123e-01 3.768528e-01 4.029264e-01 4.404364e-01 4.238923e-01 4.326478e-01 4.213800e-01 4.241055e-01 4.149071e-01 4.111165e-01 4.020941e-01 3.940827e-01 3.875637e-01 3.800165e-01 3.772951e-01 3.708102e-01 3.689249e-01 3.614847e-01 3.575115e-01 3.489663e-01 3.438078e-01 3.375416e-01 3.334781e-01 3.296158e-01 3.232477e-01 3.172166e-01 3.057140e-01 2.977868e-01 2.852684e-01 2.805781e-01 2.726068e-01 2.730886e-01 2.683239e-01 2.677175e-01 2.592756e-01 2.514507e-01 2.377043e-01 2.237798e-01 1.963922e-01 1.829597e-01 2.553789e-01 2.120132e-01 1.920685e-01 3.474591e-01 2.705520e-01 2.386796e-01 3.535762e-01 2.224203e-01 2.927244e-01 3.236934e-01 1.939423e-01 3.086746e-01 3.569673e-01 2.823550e-01 1.897190e-01 1.763762e-01 1.589361e-01 1.512918e-01 1.347788e-01 1.269937e-01 1.095018e-01 1.028308e-01 8.679241e-02 8.552179e-02 7.451162e-02 7.885647e-02 6.960227e-02 7.314954e-02 6.044070e-02 5.940295e-02 4.355669e-02 4.008472e-02 2.612176e-02 2.425145e-02 1.503471e-02 1.365108e-02 6.438192e-03 1.826518e-03 -5.429716e-03 -1.367631e-02 -1.960593e-02 -2.878662e-02 -3.108893e-02 -3.982372e-02 -4.014859e-02 -5.017800e-02 -5.064996e-02 -6.098002e-02 -6.111837e-02 -7.020088e-02 -7.106155e-02 -7.894753e-02 -8.205592e-02 -8.881171e-02 -9.512055e-02 -1.001626e-01 -1.088002e-01 -1.110158e-01 -1.212946e-01 -1.218331e-01 -1.334560e-01 -1.342328e-01 -1.451860e-01 -1.525308e-01 -1.726494e-01 -1.647984e-01 -1.693964e-01 -1.685503e-01 -1.757815e-01 -1.740546e-01 
-1.668714e-01 -1.684817e-01 -1.742658e-01 -1.760153e-01 -1.819560e-01 -1.848159e-01 -1.866608e-01 -1.993431e-01 -2.017854e-01 -2.107971e-01 -2.149971e-01 -2.212308e-01 -2.273114e-01 -2.300771e-01 -6.586007e-02 -5.224844e-02 1.012679e-01 1.319754e-01 2.754249e-01 3.086982e-01 4.594680e-01 4.639819e-01 4.508705e-01 4.543589e-01 4.430011e-01 4.442608e-01 4.337131e-01 4.309193e-01 4.203447e-01 4.146385e-01 4.059930e-01 4.006715e-01 3.949455e-01 3.904035e-01 3.853009e-01 3.800333e-01 3.732916e-01 3.672674e-01 3.595191e-01 3.553279e-01 3.482446e-01 3.459833e-01 3.370615e-01 3.333344e-01 3.205447e-01 3.155713e-01 3.020409e-01 2.996306e-01 2.895020e-01 2.910109e-01 2.832011e-01 2.838340e-01 2.730808e-01 2.682067e-01 2.532046e-01 2.441198e-01 2.280209e-01 2.199868e-01 2.170285e-01 2.224279e-01 2.207470e-01 2.247868e-01 2.240849e-01 2.203467e-01 2.157502e-01 2.086151e-01 2.048408e-01 1.994281e-01 1.962650e-01 1.998245e-01 1.920282e-01 1.929979e-01 1.767474e-01 1.741359e-01 1.614738e-01 1.578352e-01 1.438019e-01 1.389963e-01 1.233081e-01 1.188365e-01 1.038873e-01 1.031947e-01 9.194401e-02 9.522425e-02 8.535289e-02 8.773169e-02 7.542484e-02 7.396206e-02 5.962073e-02 5.587717e-02 4.346834e-02 4.044382e-02 3.228308e-02 2.910850e-02 2.319429e-02 1.701110e-02 1.172699e-02 2.171699e-03 -1.601551e-03 -1.244325e-02 -1.313358e-02 -2.405990e-02 -2.306795e-02 -3.513901e-02 -3.426955e-02 -4.648036e-02 -4.561219e-02 -5.651846e-02 -5.663539e-02 -6.600012e-02 -6.839287e-02 -7.607953e-02 -8.157547e-02 -8.711055e-02 -9.512806e-02 -9.779292e-02 -1.077740e-01 -1.085697e-01 -1.201830e-01 -1.206228e-01 -1.327019e-01 -1.349532e-01 -1.466302e-01 -1.497360e-01 -1.528732e-01 -1.552347e-01 -1.597633e-01 -1.616037e-01 
-1.834895e-01 -1.829837e-01 -1.920721e-01 -1.920841e-01 -2.004445e-01 -2.022975e-01 -2.072272e-01 -2.144826e-01 -2.209561e-01 -2.260557e-01 -2.350813e-01 -2.382870e-01 -2.495267e-01 -2.523162e-01 -7.953095e-02 -7.025467e-02 9.508329e-02 1.193223e-01 2.758185e-01 3.023285e-01 4.644934e-01 4.652224e-01 4.512203e-01 4.519986e-01 4.397789e-01 4.389858e-01 4.284604e-01 4.254585e-01 4.163592e-01 4.115161e-01 4.039783e-01 3.982402e-01 3.921512e-01 3.859881e-01 3.805614e-01 3.740170e-01 3.684463e-01 3.617825e-01 3.558473e-01 3.496864e-01 3.433793e-01 3.377991e-01 3.305218e-01 3.249801e-01 3.164132e-01 3.110270e-01 3.019636e-01 2.974937e-01 2.889159e-01 2.854872e-01 2.772373e-01 2.737322e-01 2.648214e-01 2.603410e-01 2.506690e-01 2.460240e-01 2.367720e-01 2.347250e-01 2.240884e-01 2.199615e-01 2.152088e-01 2.085013e-01 2.013671e-01 1.992079e-01 1.829588e-01 1.847336e-01 1.715753e-01 1.666874e-01 1.635998e-01 1.584888e-01 1.575763e-01 1.571447e-01 1.541339e-01 1.521525e-01 1.440199e-01 1.407238e-01 1.298593e-01 1.262304e-01 1.139224e-01 1.108293e-01 9.828757e-02 9.658744e-02 8.470356e-02 8.426831e-02 7.273572e-02 7.227101e-02 6.041254e-02 5.892869e-02 4.697038e-02 4.451201e-02 3.351084e-02 3.051668e-02 2.120508e-02 1.743116e-02 9.613250e-03 4.429625e-03 -2.196259e-03 -8.885782e-03 -1.422226e-02 -2.191487e-02 -2.582806e-02 -3.407238e-02 -3.703512e-02 -4.568956e-02 -4.836403e-02 -5.695728e-02 -5.976569e-02 -6.773812e-02 -7.125907e-02 -7.830022e-02 -8.313031e-02 -8.903415e-02 -9.552318e-02 -1.000859e-01 -1.081442e-01 -1.112553e-01 -1.206148e-01 -1.225994e-01 -1.329296e-01 -1.343065e-01 -1.451558e-01 -1.463058e-01 -1.574913e-01 -1.571126e-01 -1.664095e-01 -1.659837e-01 -1.749717e-01 -1.744355e-01 
-1.676673e-01 -1.708363e-01 -1.762547e-01 -1.802199e-01 -1.853617e-01 -1.907029e-01 -1.953922e-01 -2.027565e-01 -2.076710e-01 -2.157488e-01 -2.214991e-01 -2.300968e-01 -2.370684e-01 -2.468058e-01 -6.264998e-02 -6.261966e-02 1.125613e-01 1.189364e-01 2.906404e-01 2.972599e-01 4.726655e-01 4.728474e-01 4.573432e-01 4.574537e-01 4.439756e-01 4.432421e-01 4.313956e-01 4.293387e-01 4.188192e-01 4.155450e-01 4.063018e-01 4.023251e-01 3.941710e-01 3.898249e-01 3.821886e-01 3.775986e-01 3.699013e-01 3.653290e-01 3.573456e-01 3.532219e-01 3.448606e-01 3.412630e-01 3.321474e-01 3.287759e-01 3.187326e-01 3.156252e-01 3.051487e-01 3.026868e-01 2.924008e-01 2.905688e-01 2.804507e-01 2.785114e-01 2.680903e-01 2.654394e-01 2.548078e-01 2.518421e-01 2.419560e-01 2.399211e-01 2.311182e-01 2.292801e-01 2.215861e-01 2.195781e-01 2.106984e-01 2.102501e-01 2.004748e-01 1.996197e-01 1.906392e-01 1.886412e-01 1.811109e-01 1.774341e-01 1.698831e-01 1.656000e-01 1.596321e-01 1.567087e-01 1.478437e-01 1.450270e-01 1.343658e-01 1.317338e-01 1.199799e-01 1.178238e-01 1.057565e-01 1.044542e-01 9.272074e-02 9.209849e-02 8.068318e-02 7.986960e-02 6.852492e-02 6.678462e-02 5.578690e-02 5.300927e-02 4.313316e-02 3.947535e-02 3.128766e-02 2.655409e-02 2.002947e-02 1.382964e-02 8.783077e-03 1.063702e-03 -2.559319e-03 -1.146505e-02 -1.378652e-02 -2.349900e-02 -2.499539e-02 -3.518211e-02 -3.641581e-02 -4.649561e-02 -4.791217e-02 -5.728187e-02 -5.945115e-02 -6.775393e-02 -7.126480e-02 -7.829455e-02 -8.347587e-02 -8.906738e-02 -9.582294e-02 -9.994659e-02 -1.079318e-01 -1.109326e-01 -1.196636e-01 -1.221237e-01 -1.309284e-01 -1.333996e-01 -1.415088e-01 -1.441003e-01 -1.506887e-01 -1.533315e-01 -1.592613e-01 -1.620432e-01 
-1.836458e-01 -1.839996e-01 -1.926099e-01 -1.937621e-01 -2.018530e-01 -2.044113e-01 -2.118628e-01 -2.162133e-01 -2.242747e-01 -2.290208e-01 -2.384778e-01 -2.435090e-01 -2.545473e-01 -2.608664e-01 -7.696849e-02 -7.377717e-02 1.018069e-01 1.114322e-01 2.839239e-01 2.926899e-01 4.702402e-01 4.693377e-01 4.541170e-01 4.530864e-01 4.400896e-01 4.383010e-01 4.272590e-01 4.243239e-01 4.149447e-01 4.107960e-01 4.027715e-01 3.976094e-01 3.905979e-01 3.847268e-01 3.783212e-01 3.720496e-01 3.658587e-01 3.595144e-01 3.532568e-01 3.471433e-01 3.406024e-01 3.348739e-01 3.278387e-01 3.224998e-01 3.148634e-01 3.099186e-01 3.017794e-01 2.972697e-01 2.888148e-01 2.846839e-01 2.760052e-01 2.720632e-01 2.631760e-01 2.592803e-01 2.502803e-01 2.464799e-01 2.375358e-01 2.339011e-01 2.251099e-01 2.215827e-01 2.130620e-01 2.090591e-01 2.003324e-01 1.974033e-01 1.880197e-01 1.854560e-01 1.767957e-01 1.736659e-01 1.664613e-01 1.628247e-01 1.553758e-01 1.520985e-01 1.449818e-01 1.421094e-01 1.336173e-01 1.309523e-01 1.212219e-01 1.188350e-01 1.081141e-01 1.060656e-01 9.469924e-02 9.304218e-02 8.141861e-02 8.006142e-02 6.845758e-02 6.708578e-02 5.568582e-02 5.393158e-02 4.300195e-02 4.063551e-02 3.055233e-02 2.744843e-02 1.852100e-02 1.453986e-02 6.895196e-03 1.911516e-03 -4.460517e-03 -1.046127e-02 -1.568228e-02 -2.261036e-02 -2.695107e-02 -3.462927e-02 -3.844567e-02 -4.652846e-02 -5.013285e-02 -5.811008e-02 -6.180548e-02 -6.921321e-02 -7.342409e-02 -8.000975e-02 -8.521253e-02 -9.084781e-02 -9.731881e-02 -1.018662e-01 -1.095724e-01 -1.129545e-01 -1.216837e-01 -1.240171e-01 -1.335017e-01 -1.350353e-01 -1.449526e-01 -1.458572e-01 -1.558267e-01 -1.560733e-01 -1.655650e-01 -1.655652e-01 -1.747164e-01 -1.747364e-01 
-1.677621e-01 -1.708553e-01 -1.762585e-01 -1.801470e-01 -1.852814e-01 -1.905321e-01 -1.952252e-01 -2.024810e-01 -2.074416e-01 -2.154167e-01 -2.212885e-01 -2.297611e-01 -2.369167e-01 -2.464741e-01 -6.261171e-02 -6.247121e-02 1.123842e-01 1.188270e-01 2.900716e-01 2.967668e-01 4.714077e-01 4.716762e-01 4.556589e-01 4.556250e-01 4.417104e-01 4.409681e-01 4.290532e-01 4.273217e-01 4.170594e-01 4.141599e-01 4.050667e-01 4.011034e-01 3.928047e-01 3.881523e-01 3.802964e-01 3.753384e-01 3.675844e-01 3.627413e-01 3.548883e-01 3.505240e-01 3.423888e-01 3.386559e-01 3.300395e-01 3.268723e-01 3.175964e-01 3.148298e-01 3.049125e-01 3.024616e-01 2.921095e-01 2.898852e-01 2.793435e-01 2.772490e-01 2.667890e-01 2.647730e-01 2.546689e-01 2.527419e-01 2.431609e-01 2.412044e-01 2.319502e-01 2.296024e-01 2.204282e-01 2.177030e-01 2.085905e-01 2.059772e-01 1.973671e-01 1.950755e-01 1.872206e-01 1.849358e-01 1.772714e-01 1.743583e-01 1.660849e-01 1.626095e-01 1.536864e-01 1.505207e-01 1.409743e-01 1.386619e-01 1.285586e-01 1.269377e-01 1.160000e-01 1.146488e-01 1.028734e-01 1.016581e-01 8.950372e-02 8.846599e-02 7.649563e-02 7.543237e-02 6.394353e-02 6.236877e-02 5.161550e-02 4.917554e-02 3.956492e-02 3.605593e-02 2.794330e-02 2.321190e-02 1.681795e-02 1.081343e-02 6.223860e-03 -9.940860e-04 -3.977132e-03 -1.246736e-02 -1.451202e-02 -2.434298e-02 -2.607603e-02 -3.670506e-02 -3.825767e-02 -4.862054e-02 -5.004106e-02 -5.930237e-02 -6.116814e-02 -6.923368e-02 -7.254799e-02 -7.958096e-02 -8.483465e-02 -9.059890e-02 -9.747458e-02 -1.016742e-01 -1.096054e-01 -1.124797e-01 -1.210301e-01 -1.233055e-01 -1.319392e-01 -1.342217e-01 -1.421742e-01 -1.445991e-01 -1.510851e-01 -1.536047e-01 -1.594769e-01 -1.621678e-01 
-1.837183e-01 -1.830703e-01 -1.921319e-01 -1.920043e-01 -2.003493e-01 -2.020411e-01 -2.069664e-01 -2.140216e-01 -2.205471e-01 -2.254596e-01 -2.346667e-01 -2.376304e-01 -2.491628e-01 -2.515055e-01 -7.919253e-02 -6.978042e-02 9.516461e-02 1.193490e-01 2.752317e-01 3.014913e-01 4.626060e-01 4.625935e-01 4.481859e-01 4.481237e-01 4.354844e-01 4.343354e-01 4.239576e-01 4.213774e-01 4.129539e-01 4.087042e-01 4.015626e-01 3.957596e-01 3.894557e-01 3.826418e-01 3.768237e-01 3.695130e-01 3.638289e-01 3.565883e-01 3.508763e-01 3.441928e-01 3.382632e-01 3.323663e-01 3.260012e-01 3.208462e-01 3.137475e-01 3.090796e-01 3.011161e-01 2.967904e-01 2.880884e-01 2.840146e-01 2.748428e-01 2.710324e-01 2.617825e-01 2.582768e-01 2.492712e-01 2.460355e-01 2.373590e-01 2.340393e-01 2.253001e-01 2.213592e-01 2.122269e-01 2.077321e-01 1.986006e-01 1.942047e-01 1.859030e-01 1.823239e-01 1.750903e-01 1.721411e-01 1.649824e-01 1.616320e-01 1.534696e-01 1.494703e-01 1.403346e-01 1.367328e-01 1.273365e-01 1.250195e-01 1.154324e-01 1.140464e-01 1.035341e-01 1.023160e-01 9.057362e-02 8.932542e-02 7.685533e-02 7.583330e-02 6.342244e-02 6.261428e-02 5.060777e-02 4.950175e-02 3.809658e-02 3.632307e-02 2.592061e-02 2.326627e-02 1.421448e-02 1.052781e-02 3.096176e-03 -1.628468e-03 -7.261352e-03 -1.293112e-02 -1.695503e-02 -2.382603e-02 -2.717171e-02 -3.566451e-02 -3.908681e-02 -4.863725e-02 -5.196056e-02 -6.117641e-02 -6.406171e-02 -7.191440e-02 -7.490972e-02 -8.155303e-02 -8.602288e-02 -9.193992e-02 -9.852396e-02 -1.033665e-01 -1.115687e-01 -1.147540e-01 -1.239227e-01 -1.256074e-01 -1.355398e-01 -1.365450e-01 -1.470615e-01 -1.478464e-01 -1.587529e-01 -1.580552e-01 -1.671853e-01 -1.665273e-01 -1.754225e-01 -1.747140e-01 
-1.670363e-01 -1.684829e-01 -1.742496e-01 -1.758211e-01 -1.817258e-01 -1.843300e-01 -1.860618e-01 -1.983241e-01 -2.007733e-01 -2.095891e-01 -2.142049e-01 -2.201940e-01 -2.267724e-01 -2.287739e-01 -6.533754e-02 -5.150512e-02 1.014418e-01 1.321509e-01 2.749078e-01 3.083966e-01 4.575011e-01 4.618092e-01 4.464343e-01 4.480253e-01 4.341902e-01 4.346291e-01 4.240467e-01 4.233694e-01 4.152970e-01 4.123576e-01 4.049114e-01 3.994633e-01 3.924254e-01 3.859324e-01 3.792188e-01 3.722126e-01 3.652040e-01 3.586352e-01 3.516450e-01 3.464302e-01 3.393155e-01 3.357119e-01 3.283071e-01 3.260047e-01 3.174227e-01 3.153372e-01 3.051530e-01 3.030698e-01 2.916707e-01 2.894421e-01 2.773915e-01 2.753469e-01 2.637494e-01 2.623251e-01 2.520762e-01 2.516573e-01 2.431612e-01 2.427322e-01 2.340284e-01 2.311050e-01 2.205290e-01 2.151373e-01 2.040194e-01 1.984067e-01 1.899502e-01 1.874729e-01 1.830113e-01 1.829778e-01 1.783737e-01 1.759674e-01 1.671338e-01 1.609778e-01 1.489956e-01 1.434144e-01 1.329194e-01 1.317586e-01 1.233228e-01 1.244011e-01 1.142916e-01 1.142820e-01 1.009626e-01 9.966797e-02 8.484004e-02 8.420037e-02 7.048381e-02 7.111557e-02 5.846557e-02 5.847168e-02 4.633406e-02 4.504723e-02 3.428078e-02 3.153396e-02 2.261421e-02 1.808716e-02 1.148202e-02 5.432666e-03 2.092712e-03 -4.390394e-03 -4.058898e-03 -1.186199e-02 -1.112038e-02 -2.324233e-02 -2.468522e-02 -4.001520e-02 -4.169175e-02 -5.568092e-02 -5.479481e-02 -6.432567e-02 -6.187439e-02 -6.904973e-02 -7.020465e-02 -7.818439e-02 -8.478187e-02 -9.190060e-02 -1.011664e-01 -1.044825e-01 -1.141110e-01 -1.139512e-01 -1.244782e-01 -1.241460e-01 -1.356936e-01 -1.372743e-01 -1.483219e-01 -1.508420e-01 -1.537090e-01 -1.557473e-01 -1.601703e-01 -1.618057e-01 
-1.836349e-01 -1.801455e-01 -1.928389e-01 -1.863212e-01 -2.059731e-01 -1.930021e-01 -1.728671e-01 -2.133319e-01 -2.135901e-01 -2.179722e-01 -2.282437e-01 -2.235206e-01 -2.406791e-01 -2.058163e-01 -1.011236e-01 -9.763595e-02 5.905467e-02 1.460603e-01 2.259057e-01 3.785481e-01 4.006933e-01 4.362105e-01 4.182279e-01 4.236482e-01 4.099598e-01 4.112273e-01 4.025183e-01 4.013850e-01 3.960176e-01 3.916046e-01 3.868777e-01 3.791160e-01 3.747619e-01 3.656355e-01 3.615933e-01 3.517062e-01 3.472124e-01 3.377476e-01 3.333351e-01 3.254993e-01 3.210927e-01 3.152734e-01 3.107300e-01 3.065863e-01 3.007159e-01 2.968674e-01 2.890391e-01 2.852581e-01 2.758325e-01 2.718857e-01 2.613796e-01 2.576593e-01 2.473555e-01 2.444348e-01 2.354183e-01 2.338751e-01 2.267340e-01 2.253494e-01 2.177634e-01 2.133383e-01 2.024643e-01 1.958304e-01 1.837842e-01 1.761635e-01 1.682786e-01 1.644397e-01 1.614765e-01 1.619147e-01 1.579186e-01 1.557900e-01 1.470358e-01 1.393807e-01 1.265624e-01 1.197953e-01 1.095396e-01 1.085653e-01 1.013935e-01 1.032112e-01 9.401931e-02 9.425742e-02 8.092372e-02 7.942096e-02 6.406584e-02 6.349206e-02 4.941126e-02 5.069720e-02 3.762313e-02 3.841228e-02 2.548235e-02 2.514936e-02 1.343074e-02 1.195265e-02 1.966416e-03 -9.967764e-04 -8.743283e-03 -1.288682e-02 -1.720602e-02 -2.118313e-02 -2.145654e-02 -2.656257e-02 -2.693901e-02 -3.737360e-02 -4.105789e-02 -5.564892e-02 -5.976457e-02 -7.280691e-02 -7.327630e-02 -8.089216e-02 -7.862659e-02 -8.381669e-02 -8.535704e-02 -9.247435e-02 -1.000599e-01 -1.069624e-01 -1.169306e-01 -1.197464e-01 -1.292788e-01 -1.283996e-01 -1.384501e-01 -1.382159e-01 -1.484657e-01 -1.549710e-01 -1.744544e-01 -1.658848e-01 -1.703065e-01 -1.691030e-01 -1.762710e-01 -1.743190e-01 
-1.655602e-01 -1.642175e-01 -1.722684e-01 -1.685263e-01 -1.821030e-01 -1.725961e-01 -1.215550e-01 -1.866543e-01 -1.682442e-01 -1.815271e-01 -1.775407e-01 -1.825606e-01 -1.851198e-01 -1.588834e-01 -1.371534e-01 -1.122161e-01 -8.494894e-02 -3.094258e-02 -3.146426e-02 4.751920e-02 3.283064e-02 7.380151e-02 6.041613e-02 7.013455e-02 5.753772e-02 6.633294e-02 5.387234e-02 6.164657e-02 4.969446e-02 5.675469e-02 4.615449e-02 5.255548e-02 4.327339e-02 4.833891e-02 4.022900e-02 4.388151e-02 3.709465e-02 3.920370e-02 3.349387e-02 3.406856e-02 2.943751e-02 2.881567e-02 2.516483e-02 2.382884e-02 2.126881e-02 1.993882e-02 1.829232e-02 1.714464e-02 1.579152e-02 1.483430e-02 1.310126e-02 1.213701e-02 9.269223e-03 8.156182e-03 3.663252e-03 2.347976e-03 -3.875426e-03 -4.714481e-03 -1.126461e-02 -1.022872e-02 -1.739366e-02 -1.321357e-02 -2.076318e-02 -1.773832e-02 -2.514735e-02 -2.456809e-02 -3.454047e-02 -3.383009e-02 -4.548864e-02 -4.339858e-02 -5.182233e-02 -4.968828e-02 -5.648127e-02 -5.485831e-02 -6.135645e-02 -6.207777e-02 -6.889593e-02 -7.086424e-02 -7.646725e-02 -7.801992e-02 -8.188427e-02 -8.285908e-02 -8.595554e-02 -8.718934e-02 -9.086696e-02 -9.250718e-02 -9.674898e-02 -9.764758e-02 -1.020858e-01 -1.016594e-01 -1.065918e-01 -1.046056e-01 -1.101779e-01 -1.064893e-01 -1.129101e-01 -1.079157e-01 -1.157428e-01 -1.105054e-01 -1.200136e-01 -1.146858e-01 -1.241497e-01 -1.177669e-01 -1.255510e-01 -1.190646e-01 -1.255657e-01 -1.214472e-01 -1.273440e-01 -1.272721e-01 -1.315281e-01 -1.346448e-01 -1.344771e-01 -1.393510e-01 -1.339286e-01 -1.413111e-01 -1.324161e-01 -1.434798e-01 -1.330478e-01 -1.471318e-01 -1.358785e-01 -1.506478e-01 -1.388188e-01 -1.572631e-01 -1.652284e-01 -1.499968e-01 -1.558515e-01 -1.547175e-01 -1.601902e-01 -1.596077e-01 
-1.781481e-01 -1.782138e-01 -1.812059e-01 -1.825061e-01 -1.826985e-01 -1.865792e-01 -1.552852e-01 -1.891819e-01 -1.727681e-01 -1.849266e-01 -1.777491e-01 -1.843698e-01 -1.827326e-01 -1.788540e-01 -1.712150e-01 -1.683489e-01 -1.591509e-01 -1.477321e-01 -1.472534e-01 -1.272405e-01 -1.314005e-01 -1.196582e-01 -1.243071e-01 -1.182330e-01 -1.249697e-01 -1.175296e-01 -1.273490e-01 -1.196803e-01 -1.310276e-01 -1.221981e-01 -1.323677e-01 -1.223375e-01 -1.311315e-01 -1.219541e-01 -1.293989e-01 -1.215578e-01 -1.269335e-01 -1.213382e-01 -1.252612e-01 -1.226862e-01 -1.251658e-01 -1.254512e-01 -1.265594e-01 -1.288652e-01 -1.278113e-01 -1.303953e-01 -1.271385e-01 -1.296125e-01 -1.252223e-01 -1.273077e-01 -1.229164e-01 -1.248973e-01 -1.221744e-01 -1.244535e-01 -1.247194e-01 -1.277683e-01 -1.316977e-01 -1.341499e-01 -1.389696e-01 -1.372992e-01 -1.416013e-01 -1.348011e-01 -1.392885e-01 -1.332000e-01 -1.401628e-01 -1.390878e-01 -1.521620e-01 -1.530470e-01 -1.675601e-01 -1.647429e-01 -1.724552e-01 -1.660451e-01 -1.691354e-01 -1.638165e-01 -1.678464e-01 -1.686608e-01 -1.746412e-01 -1.785068e-01 -1.816676e-01 -1.840303e-01 -1.826486e-01 -1.832452e-01 -1.798934e-01 -1.812553e-01 -1.795625e-01 -1.822628e-01 -1.820437e-01 -1.831721e-01 -1.835419e-01 -1.820220e-01 -1.841052e-01 -1.796874e-01 -1.840477e-01 -1.763760e-01 -1.835312e-01 -1.732452e-01 -1.844461e-01 -1.736292e-01 -1.894276e-01 -1.775729e-01 -1.932766e-01 -1.768572e-01 -1.884364e-01 -1.694563e-01 -1.789774e-01 -1.640165e-01 -1.746687e-01 -1.682472e-01 -1.781947e-01 -1.775697e-01 -1.795377e-01 -1.803632e-01 -1.720797e-01 -1.764289e-01 -1.624001e-01 -1.737685e-01 -1.582778e-01 -1.752674e-01 -1.590510e-01 -1.757356e-01 -1.603011e-01 -1.737004e-01 -1.711241e-01 -1.628435e-01 -1.704080e-01 -1.685839e-01 -1.743756e-01 -1.735974e-01 
-1.604200e-01 -1.632419e-01 -1.608990e-01 -1.658444e-01 -1.585740e-01 -1.678387e-01 -1.505563e-01 -1.666462e-01 -1.531567e-01 -1.624639e-01 -1.553965e-01 -1.567983e-01 -1.564175e-01 -1.490910e-01 -1.556679e-01 -1.416004e-01 -1.534147e-01 -1.352021e-01 -1.498058e-01 -1.294960e-01 -1.441845e-01 -1.240262e-01 -1.372250e-01 -1.202908e-01 -1.333289e-01 -1.185099e-01 -1.320101e-01 -1.185462e-01 -1.319390e-01 -1.190077e-01 -1.312575e-01 -1.188517e-01 -1.298049e-01 -1.187864e-01 -1.282251e-01 -1.188188e-01 -1.262828e-01 -1.189435e-01 -1.247010e-01 -1.198782e-01 -1.240504e-01 -1.215748e-01 -1.241372e-01 -1.232997e-01 -1.239904e-01 -1.238848e-01 -1.231047e-01 -1.235578e-01 -1.222589e-01 -1.230016e-01 -1.218736e-01 -1.225301e-01 -1.222340e-01 -1.225381e-01 -1.237926e-01 -1.238910e-01 -1.273647e-01 -1.268303e-01 -1.316747e-01 -1.288268e-01 -1.345767e-01 -1.290445e-01 -1.351040e-01 -1.296257e-01 -1.364930e-01 -1.332547e-01 -1.431604e-01 -1.408082e-01 -1.523278e-01 -1.489435e-01 -1.580023e-01 -1.539036e-01 -1.601314e-01 -1.569961e-01 -1.622569e-01 -1.620326e-01 -1.667396e-01 -1.681459e-01 -1.705897e-01 -1.717460e-01 -1.716289e-01 -1.724491e-01 -1.712969e-01 -1.726151e-01 -1.720977e-01 -1.736129e-01 -1.737336e-01 -1.738012e-01 -1.744777e-01 -1.724829e-01 -1.746353e-01 -1.705056e-01 -1.747158e-01 -1.682617e-01 -1.747394e-01 -1.661518e-01 -1.751972e-01 -1.654239e-01 -1.769313e-01 -1.660976e-01 -1.777456e-01 -1.649223e-01 -1.745031e-01 -1.611009e-01 -1.689015e-01 -1.583953e-01 -1.652642e-01 -1.601798e-01 -1.648215e-01 -1.643886e-01 -1.633782e-01 -1.659028e-01 -1.581940e-01 -1.643841e-01 -1.522440e-01 -1.631376e-01 -1.492049e-01 -1.633740e-01 -1.491837e-01 -1.629233e-01 -1.507085e-01 -1.605799e-01 -1.545134e-01 -1.558078e-01 -1.565051e-01 -1.577564e-01 -1.586622e-01 -1.604089e-01 
