# vtk DataFile Version 2.0
Comment goes here
ASCII

DATASET STRUCTURED_POINTS
FIELD FieldData 1
TIME 1 1 double
0.12000000
DIMENSIONS    128   16   1

ORIGIN    0.000   0.000   0.000
SPACING   0.0078125 0.015625   1.000

POINT_DATA   2048
SCALARS P double
LOOKUP_TABLE default

-5.248065e-01 -5.154655e-01 -5.277606e-01 -5.195664e-01 -5.301271e-01 -5.235450e-01 -5.330042e-01 -5.315621e-01 -5.278186e-01 -5.347575e-01 -5.206650e-01 -5.333486e-01 -5.087653e-01 -5.245421e-01 -4.894361e-01 -5.031800e-01 -4.663051e-01 -4.809411e-01 -4.430982e-01 -4.588871e-01 -4.224346e-01 -4.390280e-01 -4.162778e-01 -4.335447e-01 -4.185274e-01 -4.321407e-01 -4.204427e-01 -4.302020e-01 -4.214313e-01 -4.305738e-01 -4.258141e-01 -4.341527e-01 -4.322218e-01 -4.357950e-01 -4.322599e-01 -4.293291e-01 -4.245972e-01 -4.158579e-01 -4.108104e-01 -3.957224e-01 -3.895357e-01 -3.724841e-01 -3.706938e-01 -3.583142e-01 -3.671303e-01 -3.634336e-01 -3.773806e-01 -3.714008e-01 -3.788857e-01 -3.630162e-01 -3.615365e-01 -3.412872e-01 -3.384597e-01 -3.196363e-01 -3.161330e-01 -2.985289e-01 -2.945379e-01 -2.794392e-01 -2.803241e-01 -2.709840e-01 -2.729065e-01 -2.774745e-01 -2.766915e-01 -2.686752e-01 -2.710712e-01 -2.556862e-01 -2.541803e-01 -2.495834e-01 -2.456976e-01 -2.477664e-01 -2.558519e-01 -2.553266e-01 -2.653671e-01 -2.693979e-01 -2.836321e-01 -2.852834e-01 -2.985136e-01 -2.970444e-01 -3.102158e-01 -3.072806e-01 -3.236051e-01 -3.226726e-01 -3.421636e-01 -3.400043e-01 -3.586950e-01 -3.565825e-01 -3.784832e-01 -3.803520e-01 -4.032331e-01 -4.045690e-01 -4.223562e-01 -4.184339e-01 -4.262020e-01 -4.188437e-01 -4.235547e-01 -4.221876e-01 -4.284532e-01 -4.344690e-01 -4.419214e-01 -4.522120e-01 -4.566343e-01 -4.666218e-01 -4.654992e-01 -4.724821e-01 -4.668503e-01 -4.703891e-01 -4.624721e-01 -4.636640e-01 -4.620678e-01 -4.663471e-01 -4.744252e-01 -4.799957e-01 -4.956536e-01 -4.912822e-01 -5.073046e-01 -4.929794e-01 -5.108744e-01 -4.877591e-01 -5.094804e-01 -4.828107e-01 -5.096400e-01 -4.842961e-01 -5.146868e-01 -4.959287e-01 -5.182392e-01 -5.039507e-01 -5.214937e-01 -5.103014e-01 
-4.462389e-01 -4.361561e-01 -4.472648e-01 -4.375371e-01 -4.487763e-01 -4.386919e-01 -4.525707e-01 -4.498158e-01 -4.488027e-01 -4.553843e-01 -4.472082e-01 -4.590388e-01 -4.439419e-01 -4.606921e-01 -4.448777e-01 -4.618855e-01 -4.461687e-01 -4.639183e-01 -4.499688e-01 -4.627050e-01 -4.508191e-01 -4.627623e-01 -4.589149e-01 -4.780424e-01 -4.780095e-01 -4.874159e-01 -4.764220e-01 -4.713066e-01 -4.577977e-01 -4.589789e-01 -4.561573e-01 -4.651087e-01 -4.669290e-01 -4.651768e-01 -4.561079e-01 -4.457791e-01 -4.416782e-01 -4.394031e-01 -4.486668e-01 -4.434439e-01 -4.460393e-01 -4.299705e-01 -4.237051e-01 -4.004353e-01 -4.012921e-01 -3.925669e-01 -4.040009e-01 -3.950237e-01 -3.992717e-01 -3.790322e-01 -3.772777e-01 -3.602736e-01 -3.657968e-01 -3.524033e-01 -3.493031e-01 -3.227408e-01 -3.033616e-01 -2.670862e-01 -2.529133e-01 -2.393949e-01 -2.417905e-01 -2.561432e-01 -2.692165e-01 -2.730501e-01 -2.841017e-01 -2.688477e-01 -2.643371e-01 -2.537644e-01 -2.440341e-01 -2.392131e-01 -2.379227e-01 -2.322748e-01 -2.426535e-01 -2.513469e-01 -2.715388e-01 -2.756835e-01 -2.877000e-01 -2.829837e-01 -2.906214e-01 -2.839438e-01 -2.997759e-01 -3.013523e-01 -3.229629e-01 -3.198507e-01 -3.360783e-01 -3.335811e-01 -3.593145e-01 -3.665264e-01 -3.912915e-01 -3.883358e-01 -3.961583e-01 -3.787896e-01 -3.746076e-01 -3.613964e-01 -3.677538e-01 -3.731271e-01 -3.866532e-01 -3.984773e-01 -4.060815e-01 -4.128620e-01 -4.099134e-01 -4.117697e-01 -4.042507e-01 -4.111483e-01 -4.073675e-01 -4.124909e-01 -4.025822e-01 -4.040734e-01 -4.045854e-01 -4.138939e-01 -4.291659e-01 -4.447820e-01 -4.639419e-01 -4.539952e-01 -4.584733e-01 -4.312457e-01 -4.385544e-01 -4.090690e-01 -4.296050e-01 -4.043564e-01 -4.347994e-01 -4.108843e-01 -4.453135e-01 -4.256488e-01 -4.452904e-01 -4.308436e-01 -4.455061e-01 -4.339999e-01 
-5.248545e-01 -5.167065e-01 -5.279599e-01 -5.189026e-01 -5.285378e-01 -5.157570e-01 -5.512375e-01 -5.457726e-01 -5.357081e-01 -5.523731e-01 -5.451227e-01 -5.633020e-01 -5.394416e-01 -5.683051e-01 -5.122887e-01 -5.151072e-01 -4.729834e-01 -4.897889e-01 -4.455393e-01 -4.556498e-01 -3.898371e-01 -4.082744e-01 -4.040983e-01 -4.474468e-01 -4.594153e-01 -4.817670e-01 -4.628320e-01 -4.398170e-01 -4.072482e-01 -4.067260e-01 -4.047935e-01 -4.305298e-01 -4.395085e-01 -4.336349e-01 -4.109258e-01 -3.948522e-01 -3.909476e-01 -4.070974e-01 -4.386150e-01 -4.440323e-01 -4.538249e-01 -4.434383e-01 -4.306863e-01 -3.921464e-01 -3.857917e-01 -3.787364e-01 -3.953803e-01 -3.950938e-01 -4.036662e-01 -3.767184e-01 -3.695036e-01 -3.575380e-01 -3.809096e-01 -3.855327e-01 -3.913781e-01 -3.613687e-01 -3.143062e-01 -2.574023e-01 -2.476190e-01 -1.826195e-01 -1.880418e-01 -3.080732e-01 -2.997748e-01 -2.969091e-01 -3.615859e-01 -2.852286e-01 -2.796713e-01 -2.765602e-01 -1.930153e-01 -2.223001e-01 -2.666096e-01 -2.285080e-01 -2.236347e-01 -2.552235e-01 -2.946764e-01 -3.012510e-01 -3.102490e-01 -3.072719e-01 -3.159056e-01 -3.058851e-01 -3.207319e-01 -3.280003e-01 -3.574424e-01 -3.481358e-01 -3.543909e-01 -3.515774e-01 -3.994284e-01 -4.286216e-01 -4.627397e-01 -4.517755e-01 -4.482002e-01 -4.109334e-01 -3.877876e-01 -3.616999e-01 -3.729365e-01 -3.914221e-01 -4.190364e-01 -4.451069e-01 -4.610353e-01 -4.708348e-01 -4.628575e-01 -4.557511e-01 -4.349055e-01 -4.425731e-01 -4.460438e-01 -4.621708e-01 -4.432103e-01 -4.403372e-01 -4.463464e-01 -4.657689e-01 -4.900585e-01 -5.380942e-01 -5.776009e-01 -5.575224e-01 -5.423013e-01 -4.976607e-01 -4.922955e-01 -4.487659e-01 -4.723188e-01 -4.537753e-01 -4.927232e-01 -4.615930e-01 -5.220307e-01 -5.066775e-01 -5.207525e-01 -5.082584e-01 -5.215777e-01 -5.124003e-01 
-4.448413e-01 -4.389998e-01 -4.451526e-01 -4.385689e-01 -4.404982e-01 -4.323541e-01 -5.037565e-01 -4.831878e-01 -4.678590e-01 -4.877412e-01 -5.070720e-01 -5.143604e-01 -5.028475e-01 -5.197186e-01 -4.088568e-01 -3.316515e-01 -2.501214e-01 -2.189513e-01 -1.379511e-01 -1.025318e-01 4.009095e-02 5.871940e-02 6.065375e-02 3.091940e-02 -7.053535e-03 -3.911596e-02 -5.443000e-02 -2.474830e-02 -1.914395e-03 6.045864e-03 4.137453e-03 -1.249877e-02 -2.088957e-02 3.834497e-03 1.650444e-02 1.965196e-02 3.480687e-03 -1.924604e-02 -4.554666e-02 -2.395969e-02 -2.380564e-02 -3.241673e-02 -4.420673e-02 -2.426063e-02 -2.723877e-02 -1.509291e-02 -2.003251e-02 -2.402496e-02 -3.546406e-02 2.401887e-03 3.716768e-02 6.735966e-02 5.821354e-02 4.954912e-02 2.882483e-02 3.368611e-02 7.214027e-02 1.084536e-01 2.997999e-02 1.574857e-01 1.747570e-01 -1.183351e-01 4.096858e-03 8.618504e-02 -9.235138e-02 1.184934e-01 6.574625e-02 7.658263e-03 1.949002e-01 4.376352e-02 -1.132609e-01 -1.477079e-02 5.247652e-02 2.598556e-02 1.413333e-03 2.386719e-02 2.420294e-02 -1.835012e-03 -5.671763e-02 -7.361644e-02 -8.563565e-02 -8.935767e-02 -1.112351e-01 -9.334490e-02 -8.581748e-02 -1.025986e-01 -1.876572e-01 -2.519395e-01 -2.812164e-01 -2.638908e-01 -2.622927e-01 -2.462665e-01 -2.338254e-01 -2.116510e-01 -2.179920e-01 -2.239756e-01 -2.319274e-01 -2.436287e-01 -2.665682e-01 -2.840355e-01 -2.975715e-01 -2.953432e-01 -2.771377e-01 -2.746551e-01 -3.003314e-01 -3.364807e-01 -3.312599e-01 -3.110667e-01 -3.310042e-01 -3.312883e-01 -3.299117e-01 -3.794092e-01 -4.395754e-01 -4.115336e-01 -4.023721e-01 -3.814119e-01 -3.926532e-01 -3.542352e-01 -3.768461e-01 -3.834756e-01 -4.063486e-01 -3.603806e-01 -4.426508e-01 -4.493411e-01 -4.453759e-01 -4.392922e-01 -4.436194e-01 -4.379354e-01 
-5.256827e-01 -5.265837e-01 -5.387117e-01 -5.406563e-01 -5.514624e-01 -5.577705e-01 -6.190673e-01 -6.022797e-01 -6.152816e-01 -6.223177e-01 -6.696351e-01 -6.630544e-01 -6.931851e-01 -6.863991e-01 -3.363336e-01 -9.485362e-02 9.147769e-02 2.666377e-01 5.103476e-01 6.002233e-01 1.057527e+00 1.071621e+00 1.067032e+00 1.065745e+00 1.029054e+00 1.001835e+00 9.482346e-01 9.404467e-01 9.160240e-01 9.169825e-01 9.049863e-01 9.148984e-01 9.094284e-01 9.288088e-01 9.042344e-01 8.839543e-01 8.491469e-01 8.439789e-01 8.464110e-01 8.836569e-01 8.887002e-01 8.670511e-01 8.246879e-01 7.989948e-01 7.759386e-01 7.855096e-01 7.937109e-01 7.954269e-01 7.878471e-01 8.080751e-01 8.389205e-01 8.718908e-01 8.907957e-01 8.971913e-01 8.757837e-01 8.506749e-01 8.283107e-01 8.087246e-01 6.928480e-01 7.377796e-01 7.588240e-01 5.800128e-01 6.919332e-01 7.767961e-01 6.315218e-01 7.613290e-01 6.624938e-01 5.785759e-01 6.516667e-01 5.081294e-01 3.819295e-01 4.400431e-01 4.943645e-01 4.997576e-01 5.045009e-01 5.332978e-01 5.218755e-01 4.739512e-01 3.898706e-01 3.417754e-01 3.187555e-01 3.121857e-01 2.978753e-01 2.944760e-01 2.818068e-01 2.412104e-01 1.694835e-01 1.137925e-01 9.429835e-02 8.748248e-02 5.948732e-02 1.912570e-02 -1.787975e-02 -3.260452e-02 -4.225083e-02 -2.995401e-02 -1.881724e-02 -5.362413e-03 -3.055767e-02 -4.873229e-02 -9.562388e-02 -1.127367e-01 -1.372289e-01 -1.323950e-01 -1.769602e-01 -2.064722e-01 -2.447843e-01 -2.282814e-01 -2.641617e-01 -2.408572e-01 -2.281965e-01 -2.249650e-01 -2.709853e-01 -2.630690e-01 -3.015708e-01 -3.322401e-01 -3.830990e-01 -3.880683e-01 -4.141238e-01 -4.384301e-01 -4.454178e-01 -4.223447e-01 -4.724408e-01 -4.944630e-01 -4.975929e-01 -5.026819e-01 -5.120561e-01 -5.139201e-01 
-4.482108e-01 -4.493546e-01 -4.652723e-01 -4.669389e-01 -4.856339e-01 -4.899888e-01 -5.175407e-01 -5.117934e-01 -5.389942e-01 -5.341398e-01 -5.690839e-01 -5.592286e-01 -5.935128e-01 -5.763465e-01 -2.049974e-01 -1.491433e-01 2.063058e-01 2.570469e-01 6.251883e-01 6.515481e-01 1.063987e+00 1.055289e+00 1.047437e+00 1.049214e+00 1.030816e+00 1.019861e+00 9.818040e-01 9.646327e-01 9.322473e-01 9.303162e-01 9.150049e-01 9.284123e-01 9.193992e-01 9.249128e-01 8.965205e-01 8.847528e-01 8.597058e-01 8.661823e-01 8.679750e-01 8.856969e-01 8.806754e-01 8.726345e-01 8.431120e-01 8.230507e-01 8.035629e-01 8.089856e-01 8.113467e-01 8.190341e-01 8.160664e-01 8.217725e-01 8.271828e-01 8.421146e-01 8.532391e-01 8.613070e-01 8.478446e-01 8.271474e-01 7.878241e-01 7.531310e-01 7.009179e-01 6.738445e-01 6.643520e-01 6.749193e-01 6.825357e-01 7.022569e-01 6.831603e-01 6.729847e-01 6.282311e-01 6.039192e-01 5.576239e-01 5.351668e-01 5.114591e-01 5.121403e-01 5.078486e-01 5.191348e-01 5.186125e-01 5.249105e-01 5.030644e-01 4.756679e-01 4.259598e-01 3.933142e-01 3.661154e-01 3.546328e-01 3.371404e-01 3.196718e-01 2.918734e-01 2.613748e-01 2.279879e-01 2.040844e-01 1.847057e-01 1.650196e-01 1.328203e-01 9.607565e-02 5.674713e-02 3.560420e-02 2.065176e-02 2.694423e-02 2.504109e-02 3.398909e-02 1.356611e-02 4.854329e-03 -3.314646e-02 -4.760257e-02 -8.336429e-02 -8.403756e-02 -1.175759e-01 -1.249464e-01 -1.656036e-01 -1.624280e-01 -1.925195e-01 -1.773043e-01 -1.855763e-01 -1.658212e-01 -1.899115e-01 -1.935408e-01 -2.374596e-01 -2.616822e-01 -3.058154e-01 -3.204623e-01 -3.451412e-01 -3.557475e-01 -3.686489e-01 -3.683687e-01 -3.862080e-01 -3.957746e-01 -4.121567e-01 -4.166564e-01 -4.313861e-01 -4.334339e-01 
-5.302136e-01 -5.324847e-01 -5.531162e-01 -5.544813e-01 -5.783171e-01 -5.786218e-01 -6.087009e-01 -6.057071e-01 -6.350378e-01 -6.320112e-01 -6.646000e-01 -6.588211e-01 -6.914413e-01 -6.820983e-01 -2.649786e-01 -2.121238e-01 1.755185e-01 2.309706e-01 6.287087e-01 6.627371e-01 1.100257e+00 1.102929e+00 1.078883e+00 1.077962e+00 1.050486e+00 1.045219e+00 1.015411e+00 1.010961e+00 9.851817e-01 9.838008e-01 9.625996e-01 9.639974e-01 9.449730e-01 9.461299e-01 9.252215e-01 9.221533e-01 9.019363e-01 9.007788e-01 8.861857e-01 8.878477e-01 8.738789e-01 8.693590e-01 8.515669e-01 8.457244e-01 8.316150e-01 8.310238e-01 8.232176e-01 8.244402e-01 8.180871e-01 8.210281e-01 8.177170e-01 8.202348e-01 8.135889e-01 8.090372e-01 7.922919e-01 7.767493e-01 7.501310e-01 7.245859e-01 6.962059e-01 6.824891e-01 6.546720e-01 6.555838e-01 6.371934e-01 6.326693e-01 6.228056e-01 6.086229e-01 5.891292e-01 5.822827e-01 5.509381e-01 5.464213e-01 5.238723e-01 5.213751e-01 5.025075e-01 4.986050e-01 4.801395e-01 4.735091e-01 4.491835e-01 4.310653e-01 3.979394e-01 3.762525e-01 3.477244e-01 3.293476e-01 3.032850e-01 2.839476e-01 2.564477e-01 2.321504e-01 2.000536e-01 1.747849e-01 1.467617e-01 1.259028e-01 9.803293e-02 7.704365e-02 4.969631e-02 3.473941e-02 1.233264e-02 4.637515e-03 -1.545360e-02 -2.098872e-02 -4.651901e-02 -5.469591e-02 -8.530585e-02 -9.324316e-02 -1.242549e-01 -1.290778e-01 -1.619177e-01 -1.671276e-01 -1.999676e-01 -1.996356e-01 -2.300015e-01 -2.270370e-01 -2.526513e-01 -2.514459e-01 -2.822309e-01 -2.849114e-01 -3.180577e-01 -3.266661e-01 -3.598927e-01 -3.678885e-01 -3.962367e-01 -4.042330e-01 -4.285105e-01 -4.324975e-01 -4.573477e-01 -4.639006e-01 -4.840118e-01 -4.890098e-01 -5.077158e-01 -5.111708e-01 
-4.511299e-01 -4.535289e-01 -4.729456e-01 -4.747061e-01 -4.960460e-01 -4.971306e-01 -5.209768e-01 -5.204888e-01 -5.457993e-01 -5.449698e-01 -5.712972e-01 -5.711914e-01 -5.966732e-01 -5.998004e-01 -1.882937e-01 -1.779356e-01 2.242948e-01 2.369047e-01 6.416037e-01 6.467409e-01 1.063733e+00 1.055660e+00 1.037181e+00 1.031114e+00 1.010034e+00 1.003946e+00 9.802096e-01 9.750176e-01 9.520139e-01 9.499946e-01 9.296357e-01 9.303055e-01 9.112837e-01 9.114748e-01 8.914382e-01 8.897989e-01 8.707840e-01 8.699539e-01 8.540947e-01 8.535014e-01 8.382444e-01 8.352636e-01 8.197376e-01 8.166051e-01 8.044855e-01 8.048639e-01 7.969526e-01 7.985146e-01 7.913365e-01 7.921249e-01 7.848468e-01 7.845968e-01 7.756409e-01 7.721838e-01 7.578811e-01 7.487191e-01 7.283025e-01 7.145560e-01 6.930559e-01 6.856309e-01 6.639185e-01 6.614977e-01 6.439847e-01 6.375339e-01 6.197895e-01 6.109271e-01 5.890851e-01 5.812742e-01 5.578229e-01 5.531205e-01 5.316121e-01 5.272164e-01 5.065538e-01 5.016691e-01 4.816136e-01 4.734137e-01 4.498151e-01 4.353971e-01 4.080440e-01 3.905865e-01 3.645685e-01 3.474467e-01 3.227254e-01 3.043826e-01 2.790057e-01 2.589766e-01 2.332175e-01 2.136017e-01 1.887836e-01 1.699089e-01 1.439145e-01 1.250405e-01 9.850819e-02 8.333823e-02 5.930691e-02 4.978606e-02 2.702890e-02 2.057221e-02 -4.661657e-03 -1.074461e-02 -3.916531e-02 -4.434260e-02 -7.425267e-02 -7.724540e-02 -1.081962e-01 -1.103168e-01 -1.420621e-01 -1.421591e-01 -1.721602e-01 -1.701853e-01 -1.973102e-01 -1.954475e-01 -2.234104e-01 -2.257152e-01 -2.556748e-01 -2.625419e-01 -2.920146e-01 -3.001036e-01 -3.260045e-01 -3.337074e-01 -3.558600e-01 -3.619989e-01 -3.821691e-01 -3.879938e-01 -4.068052e-01 -4.113616e-01 -4.294840e-01 -4.328040e-01 
-5.334051e-01 -5.358977e-01 -5.586256e-01 -5.600812e-01 -5.850514e-01 -5.853339e-01 -6.128428e-01 -6.117254e-01 -6.401896e-01 -6.385373e-01 -6.674828e-01 -6.663844e-01 -6.948983e-01 -6.969652e-01 -2.544315e-01 -2.346385e-01 1.908686e-01 2.164030e-01 6.435831e-01 6.591948e-01 1.102914e+00 1.099213e+00 1.074661e+00 1.070986e+00 1.045550e+00 1.041642e+00 1.016226e+00 1.012997e+00 9.889470e-01 9.868807e-01 9.644666e-01 9.630724e-01 9.416807e-01 9.399089e-01 9.188431e-01 9.158029e-01 8.950912e-01 8.910267e-01 8.712549e-01 8.666506e-01 8.483615e-01 8.437921e-01 8.278695e-01 8.248846e-01 8.124371e-01 8.115007e-01 8.015762e-01 8.008160e-01 7.908734e-01 7.885825e-01 7.774564e-01 7.735100e-01 7.610981e-01 7.558712e-01 7.418372e-01 7.352068e-01 7.191030e-01 7.113544e-01 6.932361e-01 6.854224e-01 6.652978e-01 6.583263e-01 6.374109e-01 6.284979e-01 6.077421e-01 5.987823e-01 5.776047e-01 5.706316e-01 5.488633e-01 5.433444e-01 5.221159e-01 5.153506e-01 4.927420e-01 4.840030e-01 4.604884e-01 4.491005e-01 4.238636e-01 4.091417e-01 3.823611e-01 3.655161e-01 3.387939e-01 3.209910e-01 2.945506e-01 2.759177e-01 2.494493e-01 2.300618e-01 2.034644e-01 1.842607e-01 1.581329e-01 1.398386e-01 1.135367e-01 9.611565e-02 6.934866e-02 5.373586e-02 2.697879e-02 1.398575e-02 -1.295294e-02 -2.344257e-02 -5.106083e-02 -5.910863e-02 -8.729759e-02 -9.285941e-02 -1.215727e-01 -1.253677e-01 -1.554063e-01 -1.586362e-01 -1.900385e-01 -1.929029e-01 -2.247071e-01 -2.269435e-01 -2.576561e-01 -2.595061e-01 -2.895688e-01 -2.922134e-01 -3.221693e-01 -3.269464e-01 -3.568391e-01 -3.633330e-01 -3.921263e-01 -3.989401e-01 -4.253912e-01 -4.313375e-01 -4.554283e-01 -4.609192e-01 -4.828883e-01 -4.874771e-01 -5.085224e-01 -5.120559e-01 
-4.533940e-01 -4.559112e-01 -4.755559e-01 -4.775846e-01 -4.993099e-01 -5.007589e-01 -5.249880e-01 -5.247709e-01 -5.499693e-01 -5.489362e-01 -5.742251e-01 -5.740580e-01 -5.985428e-01 -6.026097e-01 -1.884258e-01 -1.786299e-01 2.234033e-01 2.367794e-01 6.387400e-01 6.456019e-01 1.056619e+00 1.051144e+00 1.028986e+00 1.023299e+00 9.998684e-01 9.950303e-01 9.720832e-01 9.697725e-01 9.485106e-01 9.483375e-01 9.281624e-01 9.287668e-01 9.091433e-01 9.094184e-01 8.895905e-01 8.875214e-01 8.660034e-01 8.601567e-01 8.368590e-01 8.284472e-01 8.064390e-01 7.995747e-01 7.833439e-01 7.824912e-01 7.745315e-01 7.791735e-01 7.748904e-01 7.781567e-01 7.701025e-01 7.670321e-01 7.533778e-01 7.466182e-01 7.322575e-01 7.272672e-01 7.152036e-01 7.131071e-01 7.022125e-01 7.010182e-01 6.883068e-01 6.855615e-01 6.682157e-01 6.615571e-01 6.391409e-01 6.288722e-01 6.048510e-01 5.961924e-01 5.750792e-01 5.709953e-01 5.525701e-01 5.496016e-01 5.300323e-01 5.246375e-01 5.031212e-01 4.950425e-01 4.720264e-01 4.609475e-01 4.364465e-01 4.223010e-01 3.969449e-01 3.811744e-01 3.564888e-01 3.399564e-01 3.158146e-01 2.984615e-01 2.744115e-01 2.564537e-01 2.330296e-01 2.163912e-01 1.946018e-01 1.795005e-01 1.571570e-01 1.413422e-01 1.154506e-01 9.847308e-02 7.026870e-02 5.527358e-02 2.666626e-02 1.556548e-02 -1.163681e-02 -1.721949e-02 -4.284884e-02 -4.386327e-02 -6.971589e-02 -6.978176e-02 -9.912618e-02 -1.006049e-01 -1.335918e-01 -1.371569e-01 -1.715930e-01 -1.741223e-01 -2.052438e-01 -2.050548e-01 -2.322541e-01 -2.316550e-01 -2.575959e-01 -2.604627e-01 -2.876175e-01 -2.955823e-01 -3.234217e-01 -3.329283e-01 -3.573075e-01 -3.648751e-01 -3.849939e-01 -3.909575e-01 -4.093950e-01 -4.138554e-01 -4.317607e-01 -4.350528e-01 
-5.352963e-01 -5.379840e-01 -5.593974e-01 -5.614981e-01 -5.864628e-01 -5.876325e-01 -6.188551e-01 -6.161435e-01 -6.456455e-01 -6.410724e-01 -6.700824e-01 -6.635763e-01 -6.934557e-01 -6.859256e-01 -2.632174e-01 -2.120117e-01 1.765609e-01 2.348342e-01 6.319934e-01 6.667452e-01 1.099231e+00 1.098835e+00 1.073499e+00 1.068317e+00 1.041347e+00 1.035217e+00 1.008827e+00 1.004894e+00 9.815047e-01 9.807191e-01 9.595519e-01 9.595633e-01 9.385934e-01 9.374549e-01 9.161220e-01 9.121323e-01 8.885828e-01 8.796722e-01 8.525521e-01 8.393822e-01 8.132388e-01 8.024217e-01 7.839339e-01 7.819501e-01 7.749731e-01 7.811805e-01 7.793021e-01 7.833871e-01 7.745148e-01 7.674919e-01 7.489595e-01 7.370503e-01 7.202192e-01 7.148103e-01 7.052814e-01 7.064203e-01 6.999401e-01 7.022886e-01 6.926885e-01 6.906400e-01 6.731478e-01 6.633052e-01 6.367173e-01 6.214126e-01 5.933287e-01 5.826042e-01 5.617460e-01 5.597863e-01 5.444940e-01 5.435226e-01 5.245245e-01 5.176320e-01 4.940774e-01 4.836118e-01 4.583229e-01 4.449187e-01 4.180560e-01 4.018855e-01 3.750416e-01 3.583766e-01 3.325682e-01 3.148271e-01 2.892481e-01 2.710179e-01 2.459864e-01 2.277545e-01 2.042619e-01 1.882196e-01 1.665636e-01 1.509780e-01 1.274081e-01 1.098138e-01 8.172734e-02 6.221310e-02 3.187196e-02 1.404720e-02 -1.774738e-02 -3.294477e-02 -6.308759e-02 -7.118208e-02 -9.713708e-02 -9.744548e-02 -1.206583e-01 -1.186157e-01 -1.457018e-01 -1.461519e-01 -1.799641e-01 -1.870737e-01 -2.262908e-01 -2.327606e-01 -2.668063e-01 -2.669869e-01 -2.941549e-01 -2.914107e-01 -3.180016e-01 -3.206112e-01 -3.513150e-01 -3.618893e-01 -3.961057e-01 -4.064835e-01 -4.351915e-01 -4.414540e-01 -4.638636e-01 -4.701559e-01 -4.891652e-01 -4.939473e-01 -5.124007e-01 -5.159272e-01 
-4.535674e-01 -4.550505e-01 -4.718737e-01 -4.745584e-01 -4.950491e-01 -5.012558e-01 -5.319259e-01 -5.285194e-01 -5.571086e-01 -5.491752e-01 -5.771326e-01 -5.636490e-01 -5.922604e-01 -5.756772e-01 -1.954071e-01 -1.450417e-01 2.084823e-01 2.630011e-01 6.257091e-01 6.575820e-01 1.052338e+00 1.052773e+00 1.026399e+00 1.016979e+00 9.842847e-01 9.740285e-01 9.470868e-01 9.492268e-01 9.321073e-01 9.392227e-01 9.213750e-01 9.263403e-01 9.091381e-01 9.175575e-01 9.038805e-01 9.071153e-01 8.834534e-01 8.677400e-01 8.247255e-01 7.920458e-01 7.453343e-01 7.167288e-01 6.898176e-01 6.933142e-01 7.078931e-01 7.442796e-01 7.734155e-01 7.982302e-01 7.966166e-01 7.790974e-01 7.394927e-01 7.043896e-01 6.726096e-01 6.615862e-01 6.562729e-01 6.692077e-01 6.797767e-01 7.009473e-01 7.083015e-01 7.196777e-01 7.084447e-01 6.963392e-01 6.551524e-01 6.201916e-01 5.718407e-01 5.515233e-01 5.320279e-01 5.455051e-01 5.474324e-01 5.603665e-01 5.459401e-01 5.405832e-01 5.164311e-01 5.064181e-01 4.803792e-01 4.666864e-01 4.387630e-01 4.191241e-01 3.896631e-01 3.721277e-01 3.492804e-01 3.335729e-01 3.118177e-01 2.945912e-01 2.697303e-01 2.461483e-01 2.210239e-01 2.064936e-01 1.964864e-01 1.941628e-01 1.874468e-01 1.764880e-01 1.462954e-01 1.149312e-01 7.491310e-02 4.679512e-02 5.105366e-03 -1.713592e-02 -4.697641e-02 -4.826159e-02 -6.391215e-02 -4.628673e-02 -5.500547e-02 -4.269982e-02 -6.983392e-02 -6.797812e-02 -1.109793e-01 -1.305044e-01 -1.884275e-01 -2.021920e-01 -2.397395e-01 -2.319909e-01 -2.477718e-01 -2.287661e-01 -2.408008e-01 -2.331384e-01 -2.600987e-01 -2.821616e-01 -3.285340e-01 -3.537628e-01 -3.835993e-01 -3.912659e-01 -4.011377e-01 -4.069003e-01 -4.202395e-01 -4.232383e-01 -4.370134e-01 -4.386660e-01 
-5.326456e-01 -5.344819e-01 -5.486084e-01 -5.527790e-01 -5.671695e-01 -5.779557e-01 -6.446013e-01 -6.321060e-01 -6.560498e-01 -6.494321e-01 -6.715599e-01 -6.577714e-01 -6.785636e-01 -6.529948e-01 -3.147109e-01 -9.307011e-02 8.312700e-02 2.897152e-01 5.433243e-01 6.396655e-01 1.087727e+00 1.078106e+00 1.051279e+00 1.031165e+00 9.985641e-01 9.806757e-01 9.448211e-01 9.331988e-01 9.111762e-01 9.190072e-01 9.084782e-01 9.188412e-01 9.011738e-01 9.043927e-01 8.870456e-01 8.872536e-01 8.659256e-01 8.523288e-01 8.059014e-01 7.651180e-01 7.124999e-01 6.780416e-01 6.472056e-01 6.486156e-01 6.648335e-01 7.076331e-01 7.504819e-01 7.883932e-01 7.894784e-01 7.586415e-01 6.975079e-01 6.425397e-01 6.048716e-01 6.017833e-01 6.133768e-01 6.409381e-01 6.640393e-01 6.939118e-01 7.073546e-01 7.208434e-01 7.083010e-01 6.866817e-01 6.299087e-01 5.771671e-01 5.163726e-01 4.925370e-01 4.782478e-01 5.054609e-01 5.264933e-01 5.540151e-01 5.417644e-01 5.269868e-01 4.922415e-01 4.778108e-01 4.509092e-01 4.349317e-01 4.003138e-01 3.758486e-01 3.475763e-01 3.348023e-01 3.123430e-01 2.916597e-01 2.643502e-01 2.440345e-01 2.172969e-01 1.959805e-01 1.786307e-01 1.746992e-01 1.694084e-01 1.604371e-01 1.418066e-01 1.201403e-01 8.468930e-02 5.382928e-02 2.140590e-02 -1.542329e-03 -4.582953e-02 -8.034485e-02 -1.230535e-01 -1.361243e-01 -1.566439e-01 -1.368471e-01 -1.329599e-01 -1.068971e-01 -1.164817e-01 -9.782740e-02 -1.358512e-01 -1.704867e-01 -2.508919e-01 -2.812272e-01 -3.239406e-01 -3.113033e-01 -3.132786e-01 -2.767328e-01 -2.860207e-01 -2.807149e-01 -3.160353e-01 -3.578792e-01 -4.265452e-01 -4.488544e-01 -4.815858e-01 -4.715434e-01 -4.875149e-01 -5.012402e-01 -5.043293e-01 -5.080135e-01 -5.179626e-01 -5.197360e-01 
-4.472295e-01 -4.421656e-01 -4.494637e-01 -4.440154e-01 -4.471566e-01 -4.408917e-01 -5.116741e-01 -4.889239e-01 -4.840288e-01 -4.839501e-01 -4.694672e-01 -4.718803e-01 -4.508219e-01 -4.395780e-01 -3.350186e-01 -2.946067e-01 -2.284546e-01 -1.830149e-01 -9.605753e-02 -9.025138e-02 4.126374e-02 3.876910e-02 4.458737e-02 4.029520e-02 4.848272e-02 4.484168e-02 2.678067e-02 -2.145139e-03 -2.399558e-02 -2.933303e-02 -2.651113e-02 -1.817224e-02 -2.928741e-02 -4.358038e-02 -6.448844e-02 -6.932447e-02 -6.777303e-02 -4.227156e-02 -2.832264e-02 -2.083733e-03 1.361760e-02 4.092408e-02 4.242739e-02 4.429275e-02 1.481281e-02 -1.704747e-03 -2.293523e-02 -1.568148e-02 -2.428089e-02 -2.127888e-02 -3.289175e-02 -2.253399e-02 -1.153598e-02 2.663955e-02 5.445606e-02 8.144217e-02 8.359401e-02 8.743182e-02 7.443430e-02 6.896987e-02 5.318338e-02 4.447525e-02 2.921661e-02 2.805222e-02 2.612167e-02 3.787663e-02 4.004747e-02 5.005065e-02 5.532926e-02 6.677464e-02 5.604724e-02 3.889227e-02 9.541355e-03 2.722019e-04 -1.385983e-02 -1.873651e-02 -4.254989e-02 -4.724175e-02 -5.551434e-02 -4.722117e-02 -6.462210e-02 -7.752078e-02 -1.068073e-01 -1.151552e-01 -1.327054e-01 -1.231153e-01 -1.216720e-01 -1.082579e-01 -1.312946e-01 -1.655758e-01 -2.250436e-01 -2.579002e-01 -2.788113e-01 -2.658025e-01 -2.512938e-01 -2.312472e-01 -2.337681e-01 -2.498239e-01 -2.840832e-01 -3.175883e-01 -3.487226e-01 -3.687804e-01 -3.700890e-01 -3.550924e-01 -3.259399e-01 -2.936412e-01 -2.763682e-01 -2.820432e-01 -3.044365e-01 -3.205928e-01 -3.358492e-01 -3.330379e-01 -3.370143e-01 -3.216636e-01 -3.522613e-01 -3.633263e-01 -4.027791e-01 -4.139608e-01 -4.576808e-01 -4.213749e-01 -4.438452e-01 -3.979430e-01 -4.391619e-01 -4.415761e-01 -4.422364e-01 -4.371964e-01 -4.438683e-01 -4.388964e-01 
-5.261933e-01 -5.184354e-01 -5.299578e-01 -5.207543e-01 -5.297191e-01 -5.156256e-01 -5.475134e-01 -5.365932e-01 -5.279302e-01 -5.357983e-01 -5.159037e-01 -5.349064e-01 -5.100158e-01 -5.307628e-01 -4.796928e-01 -4.933363e-01 -4.581994e-01 -4.694472e-01 -4.291271e-01 -4.509888e-01 -3.969400e-01 -4.149598e-01 -3.964139e-01 -4.040154e-01 -3.791287e-01 -3.847420e-01 -3.817559e-01 -4.113585e-01 -4.220283e-01 -4.415947e-01 -4.387262e-01 -4.455219e-01 -4.504100e-01 -4.703876e-01 -4.843947e-01 -4.918267e-01 -4.827445e-01 -4.512755e-01 -4.129547e-01 -3.598237e-01 -3.155169e-01 -2.652562e-01 -2.495878e-01 -2.473271e-01 -2.932153e-01 -3.367416e-01 -3.943637e-01 -4.131169e-01 -4.295200e-01 -4.026896e-01 -3.764789e-01 -3.247261e-01 -2.930175e-01 -2.515814e-01 -2.379735e-01 -2.276230e-01 -2.452350e-01 -2.589612e-01 -2.857814e-01 -2.995904e-01 -3.131439e-01 -3.082396e-01 -2.913898e-01 -2.572096e-01 -2.257267e-01 -1.987595e-01 -1.950472e-01 -2.056911e-01 -2.241296e-01 -2.354070e-01 -2.475389e-01 -2.563361e-01 -2.720454e-01 -2.762032e-01 -2.860975e-01 -2.858279e-01 -2.995120e-01 -2.929292e-01 -2.977923e-01 -2.880615e-01 -3.058062e-01 -3.095881e-01 -3.349982e-01 -3.348894e-01 -3.499739e-01 -3.328205e-01 -3.376935e-01 -3.302953e-01 -3.662373e-01 -3.987700e-01 -4.576204e-01 -4.797545e-01 -4.905881e-01 -4.642489e-01 -4.439898e-01 -4.172029e-01 -4.035913e-01 -4.019881e-01 -4.178291e-01 -4.469299e-01 -4.738032e-01 -5.116977e-01 -5.261486e-01 -5.342027e-01 -5.105734e-01 -4.971450e-01 -4.658372e-01 -4.493570e-01 -4.267400e-01 -4.230642e-01 -4.233017e-01 -4.313475e-01 -4.520346e-01 -4.633991e-01 -5.046253e-01 -5.159683e-01 -5.493461e-01 -5.256768e-01 -5.404883e-01 -4.861226e-01 -5.070730e-01 -4.663874e-01 -5.134516e-01 -4.999951e-01 -5.169588e-01 -5.063155e-01 -5.211860e-01 -5.128961e-01 
-4.465301e-01 -4.364900e-01 -4.475811e-01 -4.375512e-01 -4.482775e-01 -4.370359e-01 -4.492174e-01 -4.433778e-01 -4.408547e-01 -4.441152e-01 -4.322487e-01 -4.429935e-01 -4.267772e-01 -4.419296e-01 -4.269241e-01 -4.468739e-01 -4.327345e-01 -4.528617e-01 -4.402979e-01 -4.588921e-01 -4.486960e-01 -4.620751e-01 -4.506207e-01 -4.586568e-01 -4.462776e-01 -4.524088e-01 -4.473354e-01 -4.596257e-01 -4.606850e-01 -4.705280e-01 -4.694651e-01 -4.744194e-01 -4.756441e-01 -4.812293e-01 -4.838746e-01 -4.812384e-01 -4.749334e-01 -4.554711e-01 -4.374713e-01 -4.061643e-01 -3.858706e-01 -3.554130e-01 -3.483651e-01 -3.379612e-01 -3.581570e-01 -3.684102e-01 -3.964618e-01 -3.978854e-01 -4.072940e-01 -3.853782e-01 -3.727014e-01 -3.383767e-01 -3.232147e-01 -2.950904e-01 -2.877956e-01 -2.721280e-01 -2.756742e-01 -2.705422e-01 -2.790345e-01 -2.780722e-01 -2.834179e-01 -2.775896e-01 -2.710212e-01 -2.528193e-01 -2.402692e-01 -2.246002e-01 -2.228316e-01 -2.235108e-01 -2.322341e-01 -2.355204e-01 -2.428314e-01 -2.442315e-01 -2.544933e-01 -2.563607e-01 -2.676799e-01 -2.672831e-01 -2.789417e-01 -2.741813e-01 -2.837291e-01 -2.784480e-01 -2.941516e-01 -2.932743e-01 -3.124896e-01 -3.101621e-01 -3.261230e-01 -3.183758e-01 -3.328854e-01 -3.313778e-01 -3.573067e-01 -3.684068e-01 -3.981631e-01 -4.031380e-01 -4.120942e-01 -3.997647e-01 -3.965124e-01 -3.865998e-01 -3.845718e-01 -3.853448e-01 -3.927483e-01 -4.067231e-01 -4.170761e-01 -4.350972e-01 -4.393923e-01 -4.459574e-01 -4.344722e-01 -4.315922e-01 -4.155146e-01 -4.075621e-01 -3.952458e-01 -3.928059e-01 -3.959326e-01 -3.996044e-01 -4.162489e-01 -4.182980e-01 -4.429621e-01 -4.377289e-01 -4.606416e-01 -4.365600e-01 -4.535971e-01 -4.182952e-01 -4.414566e-01 -4.128589e-01 -4.443901e-01 -4.253341e-01 -4.446273e-01 -4.305799e-01 -4.453935e-01 -4.341128e-01 
