# vtk DataFile Version 2.0
Comment goes here
ASCII

DATASET STRUCTURED_POINTS
FIELD FieldData 1
TIME 1 1 double
0.21000000
DIMENSIONS    128   16   1

ORIGIN    0.000   0.000   0.000
SPACING   0.0078125 0.015625   1.000

POINT_DATA   2048
SCALARS uMag double
LOOKUP_TABLE default

5.915236e-03 1.425191e-03 5.230559e-03 1.559379e-03 3.996396e-03 6.465532e-03 7.585086e-03 2.177928e-03 2.990031e-03 3.177944e-03 2.099285e-03 7.812004e-03 1.289101e-02 2.301008e-02 2.935358e-02 2.941373e-02 3.438328e-02 3.131838e-02 3.235856e-02 2.741494e-02 2.448675e-02 1.072941e-02 8.728559e-03 1.689615e-03 3.043364e-03 1.566797e-03 5.918775e-04 2.836143e-03 6.003063e-04 3.181589e-03 1.138614e-03 3.041960e-03 1.404813e-03 2.785418e-03 1.667413e-03 2.588448e-03 1.929951e-03 2.384084e-03 2.067631e-03 2.139257e-03 2.106910e-03 1.960839e-03 2.137853e-03 1.885954e-03 2.134860e-03 1.867162e-03 2.066983e-03 1.846852e-03 1.920265e-03 1.827445e-03 1.768588e-03 1.878472e-03 1.801509e-03 2.343306e-03 2.624427e-03 3.957428e-03 4.764525e-03 5.347424e-03 4.154547e-03 4.983626e-03 5.482780e-03 5.254525e-03 5.216626e-03 5.096454e-03 5.073221e-03 4.787054e-03 4.754738e-03 5.041351e-03 3.916543e-03 5.038732e-03 3.697974e-03 3.716710e-03 4.728162e-03 3.975678e-03 3.779334e-03 3.210861e-03 2.782589e-03 2.483731e-03 1.914434e-03 2.067812e-03 1.397291e-03 1.912845e-03 1.048647e-03 1.871445e-03 7.636143e-04 1.880386e-03 6.806136e-04 1.888632e-03 7.383746e-04 1.867422e-03 8.316061e-04 1.756002e-03 1.032653e-03 1.552721e-03 1.335095e-03 1.293075e-03 1.629499e-03 9.385866e-04 1.886095e-03 5.602997e-04 2.113263e-03 2.609213e-04 2.310566e-03 1.496008e-04 2.444828e-03 2.267821e-04 2.394113e-03 4.342733e-04 2.040505e-03 7.744583e-04 1.477115e-03 1.415281e-03 8.542548e-04 2.271028e-03 5.880616e-05 3.114446e-03 7.718378e-04 3.961947e-03 1.140427e-03 4.793126e-03 3.751273e-04 5.166533e-03 2.753928e-03 2.383975e-04 4.404084e-03 1.902054e-03 5.722062e-03 2.497948e-03 
3.106384e-03 9.822448e-04 3.632775e-03 3.676901e-03 4.906293e-03 1.082175e-02 7.459519e-03 5.130017e-03 1.563781e-03 5.192413e-03 5.341144e-03 1.081222e-02 1.711119e-02 1.648114e-02 8.039278e-03 5.132343e-03 4.427673e-03 2.162907e-03 5.439963e-03 7.773643e-03 1.718858e-02 1.628150e-02 9.477384e-03 5.946751e-03 3.853945e-03 2.568239e-03 1.749679e-03 1.401455e-03 5.776507e-04 1.085018e-03 3.133147e-04 7.982106e-04 3.127641e-04 6.201877e-04 1.663175e-04 6.472790e-04 4.947636e-04 5.496035e-04 6.351056e-04 2.425768e-04 5.454281e-04 1.944710e-04 6.622141e-04 2.525173e-04 8.275112e-04 3.129762e-04 8.492226e-04 3.738706e-04 7.647126e-04 5.294315e-04 9.827885e-04 1.278320e-03 2.253764e-03 3.695207e-03 5.613918e-03 7.953341e-03 7.962952e-03 6.938261e-03 4.548090e-03 5.643222e-03 6.218307e-03 3.832631e-03 2.280206e-03 1.925484e-03 9.317748e-04 5.113119e-04 1.481134e-03 7.848319e-04 1.275426e-03 2.667772e-03 2.796879e-03 1.872550e-03 1.256361e-03 4.019194e-03 3.275443e-03 3.187203e-03 2.100342e-03 2.000848e-03 1.153843e-03 1.200736e-03 8.257969e-04 9.132570e-04 7.918041e-04 6.389560e-04 9.840825e-04 1.219782e-04 9.749246e-04 2.291792e-04 7.745273e-04 4.341149e-04 4.861024e-04 3.870934e-04 3.810770e-04 2.809692e-04 3.088508e-04 3.962498e-04 4.618133e-04 7.300166e-04 5.917521e-04 1.157084e-03 7.072612e-04 1.494419e-03 8.921966e-04 1.518894e-03 1.155247e-03 1.334172e-03 1.179118e-03 1.254817e-03 7.329537e-04 1.183921e-03 6.664420e-04 6.059082e-04 1.080425e-03 1.073178e-03 1.359168e-03 1.969302e-03 2.186327e-03 2.630991e-03 2.892285e-03 3.653613e-03 2.513043e-03 5.161256e-03 4.917194e-03 4.284142e-03 3.543191e-03 1.400073e-03 3.290707e-03 2.415252e-04 
8.084822e-03 5.716037e-03 8.287972e-03 4.676642e-03 1.350241e-02 1.608060e-02 1.594088e-02 1.222181e-02 2.820739e-03 8.672688e-03 2.439186e-03 1.052015e-02 9.140514e-03 1.216204e-02 1.519732e-02 1.452944e-02 1.635675e-02 1.608625e-02 1.497234e-02 1.516319e-02 1.314913e-02 8.753532e-03 5.450871e-03 2.488712e-03 4.666944e-03 2.084220e-03 5.101087e-03 2.242620e-03 5.143050e-03 2.629614e-03 5.725863e-03 3.615973e-03 6.170223e-03 4.190642e-03 5.865303e-03 4.149406e-03 5.296751e-03 4.164136e-03 5.278889e-03 4.805589e-03 5.569065e-03 5.224429e-03 5.366687e-03 5.053000e-03 4.962173e-03 4.884561e-03 4.976023e-03 5.269558e-03 5.567071e-03 6.015431e-03 6.526479e-03 7.012000e-03 8.006072e-03 9.067776e-03 1.104949e-02 1.236779e-02 1.321224e-02 1.412609e-02 1.279135e-02 1.301860e-02 1.419410e-02 1.402962e-02 1.229438e-02 1.247927e-02 1.280548e-02 1.263844e-02 1.306224e-02 1.368553e-02 1.412946e-02 1.487161e-02 1.405822e-02 1.133092e-02 1.257004e-02 1.167340e-02 1.069711e-02 9.255552e-03 8.606497e-03 7.093604e-03 6.834313e-03 5.579907e-03 6.269279e-03 5.428107e-03 6.683055e-03 5.649422e-03 7.129894e-03 5.612909e-03 7.092933e-03 5.202389e-03 6.406970e-03 4.466800e-03 5.743644e-03 4.530651e-03 5.905436e-03 5.207193e-03 5.894231e-03 5.506391e-03 5.424213e-03 5.779913e-03 5.239111e-03 6.489959e-03 5.244010e-03 7.100160e-03 4.938786e-03 7.094105e-03 4.351476e-03 6.758153e-03 4.069311e-03 6.838099e-03 4.692423e-03 7.158646e-03 5.631448e-03 6.608466e-03 6.132378e-03 5.294460e-03 6.223813e-03 4.786538e-03 7.599659e-03 4.484617e-03 9.557247e-03 3.811907e-03 1.071259e-02 5.623486e-03 1.970803e-02 9.179998e-03 9.557103e-03 4.272727e-03 8.223756e-03 6.046283e-03 
6.154180e-03 8.316074e-03 1.070124e-02 1.484641e-02 3.005454e-02 3.276536e-03 2.011614e-02 1.328592e-02 1.278729e-02 1.437673e-02 1.053091e-02 1.496971e-02 8.319493e-03 1.565099e-02 9.937296e-03 1.619950e-02 1.103117e-02 1.598078e-02 1.144894e-02 1.437877e-02 1.113257e-02 1.113158e-02 1.263518e-02 1.165966e-02 1.262201e-02 1.180618e-02 1.297535e-02 1.189338e-02 1.346011e-02 1.209902e-02 1.402411e-02 1.229592e-02 1.418207e-02 1.231816e-02 1.400931e-02 1.221338e-02 1.383500e-02 1.216591e-02 1.392992e-02 1.247949e-02 1.392181e-02 1.270173e-02 1.370705e-02 1.276938e-02 1.341249e-02 1.288587e-02 1.341911e-02 1.340218e-02 1.369353e-02 1.413854e-02 1.423894e-02 1.496169e-02 1.504006e-02 1.655615e-02 1.725536e-02 1.954696e-02 1.956894e-02 1.989547e-02 1.767751e-02 1.737957e-02 1.890173e-02 1.758357e-02 1.573314e-02 1.626535e-02 1.540357e-02 1.550403e-02 1.551883e-02 1.646526e-02 1.425591e-02 1.923919e-02 1.584677e-02 1.541850e-02 1.655251e-02 1.456338e-02 1.505508e-02 1.371275e-02 1.455497e-02 1.321247e-02 1.384400e-02 1.268629e-02 1.351333e-02 1.271076e-02 1.369172e-02 1.287304e-02 1.369245e-02 1.290296e-02 1.374848e-02 1.275785e-02 1.341018e-02 1.238109e-02 1.293841e-02 1.241924e-02 1.329161e-02 1.276635e-02 1.345687e-02 1.296528e-02 1.319921e-02 1.291423e-02 1.325817e-02 1.326872e-02 1.342944e-02 1.364781e-02 1.330490e-02 1.380168e-02 1.298322e-02 1.372566e-02 1.265508e-02 1.396882e-02 1.258760e-02 1.429926e-02 1.256806e-02 1.438565e-02 1.283979e-02 1.433220e-02 1.213557e-02 1.475672e-02 1.204007e-02 1.521967e-02 1.274025e-02 1.492423e-02 1.365441e-02 1.422350e-02 1.971145e-02 3.753567e-02 2.282901e-02 6.556822e-03 6.230711e-03 6.625153e-03 
1.708039e-02 2.125798e-02 1.956548e-02 2.833396e-02 3.309397e-02 4.250266e-02 1.860440e-02 2.390778e-02 1.509869e-02 2.009222e-02 1.378002e-02 1.706511e-02 7.552328e-03 1.134383e-02 9.770805e-03 1.084763e-02 1.065040e-02 1.043530e-02 1.103652e-02 9.721657e-03 1.133431e-02 8.416388e-03 1.649375e-02 1.425981e-02 1.868343e-02 1.660858e-02 1.907191e-02 1.741764e-02 1.901896e-02 1.822965e-02 1.946609e-02 1.929166e-02 1.985952e-02 1.989623e-02 1.964988e-02 1.987036e-02 1.917308e-02 1.987372e-02 1.924656e-02 2.043033e-02 1.966847e-02 2.078218e-02 1.965001e-02 2.059400e-02 1.949988e-02 2.043165e-02 1.983174e-02 2.092205e-02 2.085350e-02 2.193856e-02 2.230854e-02 2.340771e-02 2.429487e-02 2.579652e-02 2.803925e-02 3.105342e-02 3.349768e-02 3.254389e-02 3.065213e-02 2.858816e-02 3.296865e-02 2.982862e-02 2.610763e-02 2.907762e-02 2.723008e-02 2.656509e-02 2.912498e-02 2.813182e-02 2.645478e-02 3.374101e-02 2.759881e-02 2.741045e-02 2.865022e-02 2.598704e-02 2.498382e-02 2.391001e-02 2.270530e-02 2.206922e-02 2.098423e-02 2.068541e-02 2.036501e-02 2.061015e-02 2.073717e-02 2.081114e-02 2.120517e-02 2.077830e-02 2.112709e-02 2.042532e-02 2.055089e-02 1.971111e-02 1.998248e-02 1.963345e-02 2.005312e-02 2.014177e-02 1.994855e-02 2.033988e-02 1.957951e-02 2.055263e-02 1.947040e-02 2.106271e-02 1.942611e-02 2.147841e-02 1.914285e-02 2.137431e-02 1.868001e-02 2.097708e-02 1.855603e-02 2.093803e-02 1.932432e-02 2.118565e-02 2.028792e-02 2.062610e-02 2.070756e-02 1.924036e-02 2.119245e-02 1.870372e-02 2.288150e-02 1.880776e-02 2.502204e-02 1.851601e-02 2.646902e-02 1.885095e-02 2.771365e-02 5.068597e-02 2.480295e-02 2.229713e-02 1.676423e-02 1.992478e-02 
1.842058e-02 1.983736e-02 1.971880e-02 2.208403e-02 2.527196e-02 3.508153e-02 3.552594e-02 3.459880e-02 2.995953e-02 3.317855e-02 2.851544e-02 3.198012e-02 2.502777e-02 2.505627e-02 2.458203e-02 2.493758e-02 2.478426e-02 2.477441e-02 2.494304e-02 2.460416e-02 2.501965e-02 2.517978e-02 2.994441e-02 2.814220e-02 3.117304e-02 2.948715e-02 3.176237e-02 3.002259e-02 3.214983e-02 3.062178e-02 3.270472e-02 3.134287e-02 3.309904e-02 3.169507e-02 3.290569e-02 3.159180e-02 3.252890e-02 3.164783e-02 3.254527e-02 3.213416e-02 3.276483e-02 3.242426e-02 3.257784e-02 3.228497e-02 3.223593e-02 3.221163e-02 3.228321e-02 3.257622e-02 3.272589e-02 3.322853e-02 3.345549e-02 3.402178e-02 3.434852e-02 3.542381e-02 3.650939e-02 3.761410e-02 3.689843e-02 3.766800e-02 3.970168e-02 3.750749e-02 3.873095e-02 3.922636e-02 3.786257e-02 3.984432e-02 3.915578e-02 3.913690e-02 3.976740e-02 4.002174e-02 3.810440e-02 3.968210e-02 3.670780e-02 3.839923e-02 3.980405e-02 3.781052e-02 3.713909e-02 3.563241e-02 3.531682e-02 3.400489e-02 3.381862e-02 3.285427e-02 3.328267e-02 3.257619e-02 3.348755e-02 3.269906e-02 3.369852e-02 3.269348e-02 3.362582e-02 3.224861e-02 3.299286e-02 3.158685e-02 3.243928e-02 3.163670e-02 3.259667e-02 3.212948e-02 3.267632e-02 3.234394e-02 3.226789e-02 3.248537e-02 3.212582e-02 3.303135e-02 3.221077e-02 3.350671e-02 3.201614e-02 3.352651e-02 3.152489e-02 3.332534e-02 3.126375e-02 3.338251e-02 3.164349e-02 3.363229e-02 3.210884e-02 3.343963e-02 3.221794e-02 3.258168e-02 3.232869e-02 3.209299e-02 3.338324e-02 3.224197e-02 3.490785e-02 3.229024e-02 3.620946e-02 3.221107e-02 3.954281e-02 3.351027e-02 2.135717e-02 2.202608e-02 1.874131e-02 1.982197e-02 
2.491065e-02 2.635328e-02 2.542620e-02 2.716906e-02 2.707937e-02 2.949359e-02 3.383367e-02 3.526278e-02 3.277417e-02 3.610043e-02 3.343423e-02 3.785995e-02 3.665132e-02 3.531859e-02 3.478264e-02 3.516762e-02 3.500805e-02 3.496805e-02 3.520584e-02 3.478049e-02 3.532437e-02 3.600038e-02 3.626323e-02 3.389759e-02 3.498447e-02 3.333727e-02 3.467460e-02 3.316953e-02 3.463500e-02 3.325396e-02 3.471558e-02 3.344719e-02 3.477278e-02 3.360777e-02 3.469107e-02 3.369982e-02 3.457978e-02 3.385138e-02 3.455114e-02 3.408790e-02 3.454614e-02 3.427321e-02 3.446780e-02 3.436156e-02 3.436318e-02 3.445793e-02 3.436515e-02 3.461487e-02 3.440554e-02 3.472228e-02 3.435726e-02 3.451514e-02 3.384500e-02 3.364121e-02 3.241391e-02 3.110467e-02 2.984115e-02 3.146697e-02 3.234047e-02 3.429212e-02 3.052117e-02 3.282380e-02 3.499799e-02 3.306033e-02 3.376915e-02 3.522621e-02 3.220441e-02 3.455768e-02 3.420823e-02 2.945316e-02 3.265046e-02 3.419852e-02 3.186548e-02 3.493789e-02 3.431480e-02 3.521236e-02 3.487134e-02 3.500398e-02 3.484500e-02 3.472263e-02 3.482785e-02 3.454305e-02 3.490286e-02 3.449491e-02 3.492422e-02 3.443691e-02 3.489026e-02 3.425002e-02 3.465904e-02 3.405676e-02 3.442948e-02 3.409850e-02 3.441224e-02 3.428539e-02 3.438786e-02 3.446327e-02 3.419511e-02 3.461282e-02 3.407438e-02 3.488870e-02 3.403314e-02 3.512744e-02 3.391128e-02 3.522261e-02 3.372390e-02 3.521811e-02 3.362724e-02 3.521971e-02 3.370362e-02 3.518777e-02 3.383475e-02 3.504265e-02 3.398218e-02 3.471229e-02 3.408016e-02 3.434746e-02 3.430854e-02 3.409262e-02 3.451366e-02 3.380776e-02 3.442804e-02 3.345442e-02 3.455681e-02 2.959683e-02 2.769177e-02 2.728105e-02 2.560490e-02 2.631447e-02 
2.454949e-02 2.521579e-02 2.533564e-02 2.657141e-02 2.734240e-02 2.902895e-02 3.042949e-02 3.196046e-02 3.249970e-02 3.381471e-02 3.539900e-02 3.658392e-02 4.200350e-02 4.190066e-02 4.169085e-02 4.187299e-02 4.178865e-02 4.180677e-02 4.186532e-02 4.172708e-02 4.189803e-02 4.189303e-02 3.750228e-02 3.675495e-02 3.524008e-02 3.421425e-02 3.403905e-02 3.279161e-02 3.340962e-02 3.209479e-02 3.312182e-02 3.181920e-02 3.296655e-02 3.172130e-02 3.280574e-02 3.168926e-02 3.264874e-02 3.173903e-02 3.254856e-02 3.186378e-02 3.247738e-02 3.197424e-02 3.237060e-02 3.202680e-02 3.225006e-02 3.206593e-02 3.217643e-02 3.212337e-02 3.213684e-02 3.214245e-02 3.203737e-02 3.196581e-02 3.164277e-02 3.127688e-02 3.055558e-02 2.968689e-02 2.925809e-02 2.920257e-02 2.811502e-02 2.992111e-02 2.848968e-02 2.927668e-02 2.963584e-02 2.855384e-02 2.939859e-02 3.035979e-02 2.901932e-02 3.002275e-02 3.112237e-02 2.934643e-02 3.173511e-02 3.011184e-02 2.858909e-02 3.093895e-02 3.110533e-02 3.192913e-02 3.206227e-02 3.214683e-02 3.239823e-02 3.213098e-02 3.257186e-02 3.210255e-02 3.272021e-02 3.209733e-02 3.281273e-02 3.207239e-02 3.281539e-02 3.200021e-02 3.271196e-02 3.193928e-02 3.258906e-02 3.199853e-02 3.252055e-02 3.215616e-02 3.243604e-02 3.233236e-02 3.229291e-02 3.252525e-02 3.216592e-02 3.275825e-02 3.206242e-02 3.295469e-02 3.193270e-02 3.304675e-02 3.179066e-02 3.305024e-02 3.172412e-02 3.301497e-02 3.178744e-02 3.291961e-02 3.191653e-02 3.268540e-02 3.204284e-02 3.228884e-02 3.216330e-02 3.181686e-02 3.228261e-02 3.126900e-02 3.219969e-02 3.050479e-02 3.160513e-02 2.942344e-02 3.025320e-02 2.776849e-02 2.699300e-02 2.601998e-02 2.511667e-02 2.505488e-02 
2.742478e-02 2.828876e-02 2.790418e-02 2.919748e-02 2.949186e-02 3.100991e-02 3.224061e-02 3.375354e-02 3.422981e-02 3.559829e-02 3.694763e-02 3.781369e-02 4.332395e-02 4.369832e-02 4.342440e-02 4.364026e-02 4.355210e-02 4.353442e-02 4.366710e-02 4.342645e-02 4.372549e-02 4.334990e-02 3.920078e-02 3.865886e-02 3.731282e-02 3.629798e-02 3.622465e-02 3.500860e-02 3.563654e-02 3.439435e-02 3.534349e-02 3.416163e-02 3.518301e-02 3.411398e-02 3.505904e-02 3.415254e-02 3.495190e-02 3.424664e-02 3.486544e-02 3.436916e-02 3.478374e-02 3.447788e-02 3.468503e-02 3.454639e-02 3.456626e-02 3.456997e-02 3.442958e-02 3.453689e-02 3.424954e-02 3.440785e-02 3.397199e-02 3.411115e-02 3.348717e-02 3.351670e-02 3.263680e-02 3.253836e-02 3.157887e-02 3.194493e-02 3.127437e-02 3.227492e-02 3.159643e-02 3.234729e-02 3.205962e-02 3.255327e-02 3.251988e-02 3.315360e-02 3.272731e-02 3.303497e-02 3.305103e-02 3.286787e-02 3.317369e-02 3.299776e-02 3.253726e-02 3.346940e-02 3.334163e-02 3.398696e-02 3.391455e-02 3.425991e-02 3.428687e-02 3.439095e-02 3.453762e-02 3.444984e-02 3.471371e-02 3.448374e-02 3.482968e-02 3.450927e-02 3.489516e-02 3.453316e-02 3.490863e-02 3.457892e-02 3.488595e-02 3.466838e-02 3.484422e-02 3.479356e-02 3.477113e-02 3.493654e-02 3.466309e-02 3.509438e-02 3.455211e-02 3.526567e-02 3.444918e-02 3.541290e-02 3.434148e-02 3.550048e-02 3.424022e-02 3.552389e-02 3.418248e-02 3.549373e-02 3.419058e-02 3.540143e-02 3.424912e-02 3.522793e-02 3.432628e-02 3.495623e-02 3.437662e-02 3.458080e-02 3.433681e-02 3.406725e-02 3.407618e-02 3.331389e-02 3.342215e-02 3.215862e-02 3.217327e-02 3.029820e-02 2.971689e-02 2.892622e-02 2.805376e-02 2.821209e-02 
2.455589e-02 2.522092e-02 2.534337e-02 2.657738e-02 2.735205e-02 2.903439e-02 3.043869e-02 3.196256e-02 3.249724e-02 3.380050e-02 3.538520e-02 3.656453e-02 4.199351e-02 4.189217e-02 4.168355e-02 4.186543e-02 4.178440e-02 4.179995e-02 4.186575e-02 4.172118e-02 4.189941e-02 4.188920e-02 3.746306e-02 3.671500e-02 3.520110e-02 3.419658e-02 3.404016e-02 3.279329e-02 3.340328e-02 3.206630e-02 3.307480e-02 3.175498e-02 3.288752e-02 3.164190e-02 3.271912e-02 3.161748e-02 3.256678e-02 3.167376e-02 3.245712e-02 3.178204e-02 3.236590e-02 3.188492e-02 3.226677e-02 3.195127e-02 3.215118e-02 3.196454e-02 3.201210e-02 3.191364e-02 3.183448e-02 3.178223e-02 3.160368e-02 3.156767e-02 3.129449e-02 3.123041e-02 3.084221e-02 3.075076e-02 3.028736e-02 3.034722e-02 2.981486e-02 3.012846e-02 2.967186e-02 2.988580e-02 2.962019e-02 2.964886e-02 2.956637e-02 2.976556e-02 2.967040e-02 2.987001e-02 3.009543e-02 3.004984e-02 3.034605e-02 3.025954e-02 3.023440e-02 3.059669e-02 3.070516e-02 3.099133e-02 3.121392e-02 3.129007e-02 3.163914e-02 3.148468e-02 3.195499e-02 3.157542e-02 3.216846e-02 3.161848e-02 3.232684e-02 3.167478e-02 3.246026e-02 3.177156e-02 3.256664e-02 3.190377e-02 3.260969e-02 3.204410e-02 3.256839e-02 3.218403e-02 3.245555e-02 3.233542e-02 3.230907e-02 3.252202e-02 3.216938e-02 3.273480e-02 3.204477e-02 3.292032e-02 3.191221e-02 3.302119e-02 3.178136e-02 3.302978e-02 3.170620e-02 3.297595e-02 3.173105e-02 3.285030e-02 3.184551e-02 3.263028e-02 3.201877e-02 3.231311e-02 3.221943e-02 3.189344e-02 3.234821e-02 3.132000e-02 3.222117e-02 3.051596e-02 3.160693e-02 2.943461e-02 3.025985e-02 2.777699e-02 2.700079e-02 2.602558e-02 2.512305e-02 2.505953e-02 
2.492008e-02 2.636061e-02 2.543774e-02 2.717790e-02 2.709398e-02 2.949934e-02 3.385036e-02 3.526319e-02 3.275393e-02 3.605568e-02 3.339144e-02 3.781511e-02 3.661989e-02 3.530377e-02 3.476751e-02 3.515951e-02 3.500187e-02 3.496451e-02 3.521001e-02 3.477679e-02 3.531856e-02 3.600811e-02 3.618852e-02 3.380010e-02 3.488296e-02 3.327834e-02 3.465858e-02 3.314127e-02 3.458062e-02 3.314811e-02 3.458201e-02 3.328206e-02 3.457570e-02 3.341172e-02 3.447970e-02 3.351257e-02 3.435845e-02 3.365258e-02 3.427815e-02 3.382802e-02 3.420779e-02 3.396645e-02 3.410181e-02 3.403428e-02 3.396133e-02 3.403129e-02 3.378602e-02 3.395062e-02 3.355693e-02 3.375939e-02 3.326153e-02 3.351764e-02 3.295868e-02 3.324086e-02 3.264396e-02 3.296301e-02 3.233016e-02 3.270344e-02 3.209478e-02 3.256636e-02 3.200447e-02 3.245764e-02 3.201036e-02 3.243721e-02 3.207575e-02 3.255940e-02 3.221373e-02 3.264991e-02 3.232932e-02 3.267693e-02 3.238614e-02 3.273864e-02 3.247735e-02 3.291382e-02 3.272292e-02 3.311688e-02 3.303830e-02 3.330224e-02 3.336971e-02 3.348355e-02 3.366068e-02 3.357138e-02 3.387390e-02 3.361833e-02 3.404776e-02 3.369968e-02 3.421954e-02 3.383914e-02 3.441342e-02 3.403587e-02 3.452948e-02 3.420520e-02 3.451389e-02 3.434192e-02 3.440684e-02 3.446432e-02 3.425639e-02 3.463726e-02 3.411244e-02 3.485455e-02 3.399704e-02 3.505428e-02 3.385495e-02 3.515397e-02 3.369033e-02 3.516246e-02 3.358283e-02 3.513565e-02 3.358692e-02 3.506186e-02 3.370688e-02 3.492983e-02 3.390915e-02 3.474312e-02 3.418562e-02 3.451074e-02 3.445551e-02 3.421317e-02 3.457337e-02 3.383610e-02 3.443521e-02 3.348572e-02 3.457348e-02 2.961088e-02 2.770523e-02 2.728795e-02 2.561413e-02 2.632018e-02 
1.843364e-02 1.984988e-02 1.973964e-02 2.210730e-02 2.530911e-02 3.511347e-02 3.558402e-02 3.466043e-02 2.994948e-02 3.310051e-02 2.841843e-02 3.188589e-02 2.499535e-02 2.504272e-02 2.455863e-02 2.491641e-02 2.476465e-02 2.475250e-02 2.495695e-02 2.460081e-02 2.506063e-02 2.516482e-02 2.970812e-02 2.779804e-02 3.090722e-02 2.943999e-02 3.195279e-02 3.022597e-02 3.228080e-02 3.057069e-02 3.253567e-02 3.106590e-02 3.276936e-02 3.136064e-02 3.258828e-02 3.136290e-02 3.232722e-02 3.152681e-02 3.230206e-02 3.182826e-02 3.228975e-02 3.203115e-02 3.223893e-02 3.216839e-02 3.216403e-02 3.218404e-02 3.202111e-02 3.206034e-02 3.174742e-02 3.174026e-02 3.141495e-02 3.147959e-02 3.122485e-02 3.131598e-02 3.110597e-02 3.119814e-02 3.094245e-02 3.095259e-02 3.065377e-02 3.068999e-02 3.035345e-02 3.028348e-02 2.995320e-02 2.994599e-02 2.981602e-02 3.011957e-02 3.013845e-02 3.043316e-02 3.028507e-02 3.040695e-02 3.015253e-02 3.029462e-02 3.018086e-02 3.045028e-02 3.044372e-02 3.069848e-02 3.089304e-02 3.104522e-02 3.148178e-02 3.142828e-02 3.190811e-02 3.139896e-02 3.197892e-02 3.122713e-02 3.206325e-02 3.123769e-02 3.233075e-02 3.151893e-02 3.277124e-02 3.194172e-02 3.304599e-02 3.219505e-02 3.297083e-02 3.226555e-02 3.266034e-02 3.230701e-02 3.233858e-02 3.252963e-02 3.215228e-02 3.294051e-02 3.209043e-02 3.334656e-02 3.191714e-02 3.349550e-02 3.159302e-02 3.338489e-02 3.134412e-02 3.333589e-02 3.139686e-02 3.325292e-02 3.164718e-02 3.302932e-02 3.203460e-02 3.278834e-02 3.278046e-02 3.262804e-02 3.378802e-02 3.243542e-02 3.486978e-02 3.216152e-02 3.612072e-02 3.224521e-02 3.958564e-02 3.353858e-02 2.139352e-02 2.203657e-02 1.875506e-02 1.982864e-02 
1.709041e-02 2.127261e-02 1.958718e-02 2.837598e-02 3.313439e-02 4.258762e-02 1.866075e-02 2.401435e-02 1.514089e-02 2.004368e-02 1.370235e-02 1.702393e-02 7.553282e-03 1.137350e-02 9.798572e-03 1.085145e-02 1.063609e-02 1.043049e-02 1.107308e-02 9.695687e-03 1.120543e-02 8.153695e-03 1.609753e-02 1.358511e-02 1.816639e-02 1.638400e-02 1.920454e-02 1.764634e-02 1.926917e-02 1.820624e-02 1.928276e-02 1.889553e-02 1.942292e-02 1.934233e-02 1.910643e-02 1.933462e-02 1.873383e-02 1.945485e-02 1.870154e-02 1.969218e-02 1.867818e-02 1.980357e-02 1.872155e-02 1.990876e-02 1.879776e-02 1.985045e-02 1.878600e-02 1.959919e-02 1.862827e-02 1.920669e-02 1.851368e-02 1.896664e-02 1.860414e-02 1.893805e-02 1.877244e-02 1.893685e-02 1.888141e-02 1.889864e-02 1.888659e-02 1.884582e-02 1.874733e-02 1.855362e-02 1.824778e-02 1.813553e-02 1.804860e-02 1.825807e-02 1.833056e-02 1.855429e-02 1.836810e-02 1.851945e-02 1.813132e-02 1.840118e-02 1.801707e-02 1.861202e-02 1.836486e-02 1.906544e-02 1.901508e-02 1.973043e-02 1.984094e-02 2.025697e-02 2.031933e-02 2.011875e-02 2.017095e-02 1.971986e-02 2.003127e-02 1.957557e-02 2.022849e-02 1.986233e-02 2.060317e-02 2.025264e-02 2.075920e-02 2.044932e-02 2.052342e-02 2.043456e-02 2.000135e-02 2.044265e-02 1.955902e-02 2.066825e-02 1.939652e-02 2.114174e-02 1.939591e-02 2.161118e-02 1.930428e-02 2.177200e-02 1.910461e-02 2.151698e-02 1.900579e-02 2.127603e-02 1.932259e-02 2.095168e-02 1.986565e-02 2.036978e-02 2.058773e-02 1.980289e-02 2.179102e-02 1.933912e-02 2.331809e-02 1.875825e-02 2.485616e-02 1.820189e-02 2.624105e-02 1.879363e-02 2.770638e-02 5.068011e-02 2.485686e-02 2.230432e-02 1.677512e-02 1.992541e-02 
6.152564e-03 8.325650e-03 1.072430e-02 1.488600e-02 3.010802e-02 3.229555e-03 2.013402e-02 1.321110e-02 1.286954e-02 1.421206e-02 1.048234e-02 1.479822e-02 8.101834e-03 1.556844e-02 9.844794e-03 1.611648e-02 1.099654e-02 1.599810e-02 1.147161e-02 1.443125e-02 1.149523e-02 1.094639e-02 1.240298e-02 1.170321e-02 1.279387e-02 1.199166e-02 1.320759e-02 1.208255e-02 1.347529e-02 1.208886e-02 1.386297e-02 1.225866e-02 1.409285e-02 1.235902e-02 1.405039e-02 1.234493e-02 1.400949e-02 1.242166e-02 1.406467e-02 1.265631e-02 1.404531e-02 1.283832e-02 1.391743e-02 1.293591e-02 1.370147e-02 1.298263e-02 1.346180e-02 1.299168e-02 1.316630e-02 1.283592e-02 1.274936e-02 1.269384e-02 1.245518e-02 1.262182e-02 1.230675e-02 1.267263e-02 1.223057e-02 1.262809e-02 1.210795e-02 1.258296e-02 1.204245e-02 1.251754e-02 1.204928e-02 1.257183e-02 1.226250e-02 1.295257e-02 1.268057e-02 1.314332e-02 1.272179e-02 1.301837e-02 1.256605e-02 1.274466e-02 1.251580e-02 1.261312e-02 1.243428e-02 1.245045e-02 1.236484e-02 1.229280e-02 1.235276e-02 1.220017e-02 1.241595e-02 1.207819e-02 1.248754e-02 1.200978e-02 1.253181e-02 1.207169e-02 1.271052e-02 1.224839e-02 1.307007e-02 1.246627e-02 1.329302e-02 1.262108e-02 1.334482e-02 1.274827e-02 1.332092e-02 1.274377e-02 1.326921e-02 1.277995e-02 1.324017e-02 1.293310e-02 1.318245e-02 1.312467e-02 1.294347e-02 1.320899e-02 1.262329e-02 1.321480e-02 1.232253e-02 1.337569e-02 1.214503e-02 1.365688e-02 1.210447e-02 1.397737e-02 1.205026e-02 1.445210e-02 1.210719e-02 1.488866e-02 1.241998e-02 1.506256e-02 1.295227e-02 1.493686e-02 1.363006e-02 1.429349e-02 1.981263e-02 3.748195e-02 2.284948e-02 6.562430e-03 6.217623e-03 6.616669e-03 
8.079007e-03 5.712572e-03 8.289747e-03 4.680027e-03 1.353245e-02 1.610553e-02 1.594472e-02 1.222374e-02 2.918998e-03 8.506094e-03 2.582567e-03 1.055990e-02 9.200806e-03 1.214529e-02 1.520482e-02 1.450455e-02 1.633474e-02 1.598477e-02 1.480973e-02 1.501105e-02 1.290479e-02 9.070318e-03 5.740688e-03 2.686510e-03 4.131163e-03 1.598316e-03 5.248017e-03 2.511127e-03 5.479451e-03 2.832481e-03 5.657132e-03 3.461329e-03 5.926844e-03 3.970126e-03 5.652605e-03 4.027658e-03 5.297090e-03 4.255097e-03 5.280518e-03 4.676838e-03 5.270100e-03 4.966976e-03 5.265966e-03 5.200450e-03 5.244635e-03 5.252663e-03 5.147241e-03 5.113089e-03 4.904610e-03 4.782116e-03 4.654812e-03 4.588458e-03 4.623746e-03 4.547045e-03 4.655461e-03 4.485115e-03 4.554816e-03 4.272775e-03 4.349450e-03 3.988559e-03 3.772944e-03 3.382415e-03 3.007068e-03 2.733406e-03 2.706604e-03 2.757922e-03 3.002204e-03 2.855877e-03 2.856181e-03 2.548151e-03 2.431818e-03 2.406493e-03 2.354459e-03 2.763839e-03 2.987380e-03 3.456112e-03 3.923407e-03 4.233252e-03 4.911179e-03 4.775255e-03 5.529933e-03 4.666290e-03 5.550453e-03 4.310062e-03 5.525919e-03 4.205815e-03 5.802895e-03 4.508981e-03 6.286556e-03 4.964124e-03 6.531735e-03 5.248705e-03 6.334201e-03 5.347661e-03 5.837911e-03 5.409499e-03 5.381376e-03 5.689426e-03 5.157588e-03 6.242369e-03 5.055498e-03 6.787400e-03 4.800283e-03 6.984286e-03 4.419648e-03 6.790124e-03 4.186636e-03 6.678653e-03 4.426252e-03 6.509775e-03 4.967728e-03 6.102627e-03 5.626239e-03 5.700802e-03 6.717464e-03 5.243644e-03 8.143720e-03 4.431201e-03 9.477541e-03 3.563085e-03 1.053416e-02 5.491006e-03 1.978911e-02 9.159006e-03 9.524623e-03 4.263014e-03 8.209409e-03 6.043005e-03 
3.106492e-03 9.857445e-04 3.635348e-03 3.682027e-03 4.906038e-03 1.084993e-02 7.456867e-03 5.106026e-03 1.514336e-03 5.118721e-03 5.275117e-03 1.078190e-02 1.710342e-02 1.646318e-02 7.980284e-03 5.036804e-03 4.380916e-03 2.278334e-03 5.539438e-03 7.990314e-03 1.735545e-02 1.641394e-02 9.499961e-03 5.851057e-03 3.625830e-03 2.368774e-03 1.644455e-03 1.265581e-03 6.844432e-04 1.100634e-03 2.663343e-04 9.222625e-04 2.675315e-04 7.683395e-04 3.566763e-04 7.207908e-04 6.543788e-04 5.722566e-04 7.957263e-04 3.814769e-04 8.633715e-04 3.062594e-04 8.860788e-04 2.988037e-04 8.558224e-04 3.255381e-04 8.537585e-04 4.469323e-04 9.070076e-04 6.638004e-04 8.996514e-04 8.088411e-04 8.092882e-04 8.788802e-04 7.855894e-04 1.057052e-03 9.363033e-04 1.020154e-03 1.078260e-03 1.564346e-03 1.486309e-03 1.624130e-03 2.266739e-03 2.223449e-03 2.678428e-03 2.766389e-03 2.867347e-03 3.182649e-03 3.090282e-03 3.293392e-03 3.444982e-03 3.509128e-03 3.812983e-03 3.010695e-03 2.982603e-03 2.044084e-03 1.808107e-03 1.042195e-03 8.417070e-04 4.913349e-04 6.000919e-04 4.322436e-04 5.676748e-04 4.178959e-04 4.529290e-04 4.313015e-04 5.782207e-04 3.541788e-04 7.563169e-04 1.623624e-04 7.487874e-04 1.332418e-04 5.236649e-04 3.606479e-04 2.411909e-04 4.882574e-04 4.131854e-04 6.914615e-04 6.575435e-04 1.077795e-03 7.820424e-04 1.440768e-03 8.894093e-04 1.584598e-03 1.042486e-03 1.452685e-03 1.092202e-03 1.255451e-03 8.727693e-04 9.828148e-04 6.584902e-04 7.700621e-04 8.166828e-04 1.136720e-03 1.507691e-03 1.761155e-03 2.367392e-03 2.608660e-03 2.838312e-03 3.787816e-03 2.434352e-03 5.173201e-03 4.947662e-03 4.273048e-03 3.530789e-03 1.390416e-03 3.285445e-03 2.353793e-04 
