# vtk DataFile Version 2.0
Comment goes here
ASCII

DATASET STRUCTURED_POINTS
FIELD FieldData 1
TIME 1 1 double
0.99000000
DIMENSIONS    128   16   1

ORIGIN    0.000   0.000   0.000
SPACING   0.0078125 0.015625   1.000

POINT_DATA   2048
SCALARS uX double
LOOKUP_TABLE default

-1.932048e-03 -2.865721e-03 -1.165137e-03 -3.016857e-03 -5.943828e-04 -6.037478e-03 -4.704204e-03 -1.055177e-03 -3.310017e-03 2.280634e-03 1.728085e-03 9.092783e-03 1.255014e-02 2.121063e-02 2.499735e-02 2.892096e-02 2.800707e-02 3.016124e-02 2.702684e-02 2.579233e-02 2.108062e-02 1.360000e-02 7.930775e-03 3.835471e-03 1.013032e-03 -5.512114e-04 -1.802703e-03 -2.560432e-03 -2.886923e-03 -3.554447e-03 -3.226084e-03 -4.084853e-03 -3.261443e-03 -4.376909e-03 -3.196475e-03 -4.520681e-03 -3.127055e-03 -4.553954e-03 -3.097056e-03 -4.496540e-03 -3.121281e-03 -4.363484e-03 -3.197369e-03 -4.170057e-03 -3.311723e-03 -3.930778e-03 -3.439948e-03 -3.653842e-03 -3.541702e-03 -3.330289e-03 -3.547042e-03 -2.913868e-03 -3.323638e-03 -2.268643e-03 -2.540673e-03 -8.366528e-04 -2.079316e-04 5.524942e-04 -9.045961e-05 4.108648e-03 -1.793064e-03 2.850656e-04 6.405839e-03 2.388842e-03 4.872600e-03 7.669509e-03 1.352671e-03 5.231650e-03 1.207011e-03 -8.615614e-03 -4.682875e-03 -2.319179e-03 -1.775954e-03 -3.390247e-03 -2.426736e-03 -3.497276e-03 -2.512648e-03 -3.440239e-03 -2.607628e-03 -3.318807e-03 -2.734292e-03 -3.140873e-03 -2.897642e-03 -2.921297e-03 -3.091419e-03 -2.680544e-03 -3.298489e-03 -2.441888e-03 -3.493133e-03 -2.230167e-03 -3.644727e-03 -2.071529e-03 -3.723584e-03 -1.993063e-03 -3.706523e-03 -2.019484e-03 -3.579713e-03 -2.166572e-03 -3.339674e-03 -2.433813e-03 -2.993927e-03 -2.801139e-03 -2.563840e-03 -3.230750e-03 -2.089174e-03 -3.672178e-03 -1.628411e-03 -4.064911e-03 -1.252235e-03 -4.339960e-03 -1.032526e-03 -4.424455e-03 -1.032348e-03 -4.253021e-03 -1.297999e-03 -3.785677e-03 -1.852198e-03 -3.032319e-03 -2.690861e-03 -2.095670e-03 -3.816399e-03 -1.287357e-03 -5.492829e-03 -5.294130e-04 -1.753750e-03 -1.054901e-03 -1.845563e-03 -2.312711e-03 
1.507807e-04 -6.763451e-04 1.239635e-03 -3.792738e-04 3.157907e-03 -4.158601e-03 -3.407623e-03 1.001007e-03 -4.070871e-03 1.497087e-03 -3.528317e-03 1.746909e-03 -3.472891e-03 5.203947e-05 -5.058800e-03 -2.366951e-03 -4.883647e-03 -3.294281e-03 -3.966965e-03 -3.459989e-03 -1.734172e-03 -2.288454e-03 -5.688142e-04 -1.525335e-03 -7.433615e-04 -1.282361e-03 -6.768051e-04 -1.196283e-03 -4.951655e-04 -1.219626e-03 -2.720632e-04 -1.289630e-03 -5.793510e-05 -1.358986e-03 1.130797e-04 -1.394772e-03 2.175237e-04 -1.379246e-03 2.477677e-04 -1.298935e-03 2.113644e-04 -1.154994e-03 1.157404e-04 -9.604214e-04 -2.353673e-05 -7.272838e-04 -1.766736e-04 -4.501549e-04 -2.724478e-04 -6.901435e-05 -1.586909e-04 5.792610e-04 4.814541e-04 1.905274e-03 2.430735e-03 5.112236e-03 7.132913e-03 7.267004e-03 3.353355e-03 8.406163e-03 4.075309e-03 3.864098e-03 7.825617e-03 2.266197e-03 3.785841e-03 6.574376e-03 4.870581e-05 4.939118e-03 4.610274e-03 1.377513e-04 5.166421e-03 3.553273e-03 2.590102e-03 3.252388e-04 1.135891e-03 -1.463951e-04 8.079330e-04 -2.334970e-04 6.317818e-04 -1.525250e-04 4.999342e-04 3.077182e-05 3.589997e-04 2.709142e-04 1.912445e-04 5.358825e-04 8.038753e-06 7.981551e-04 -1.710122e-04 1.027986e-03 -3.160343e-04 1.201596e-03 -3.944904e-04 1.292153e-03 -3.816749e-04 1.275771e-03 -2.602412e-04 1.136454e-03 -2.411992e-05 8.758711e-04 3.223515e-04 5.122081e-04 7.555886e-04 7.973896e-05 1.236787e-03 -3.705766e-04 1.707387e-03 -7.800925e-04 2.096999e-03 -1.075169e-03 2.336392e-03 -1.181562e-03 2.355292e-03 -1.033994e-03 2.099414e-03 -5.842479e-04 1.531683e-03 1.786673e-04 6.280918e-04 1.205472e-03 -6.859668e-04 2.303765e-03 -2.862983e-03 3.737965e-03 2.252579e-03 1.462383e-03 4.943889e-04 -2.196818e-04 
-3.533908e-03 -3.495719e-03 -7.072517e-04 1.547253e-03 8.341371e-03 7.687416e-03 5.165211e-03 6.999804e-03 4.382614e-03 4.478917e-03 2.405299e-03 -3.349736e-04 -2.452101e-03 -6.944277e-03 -7.592867e-03 -1.022000e-02 -9.046912e-03 -1.035266e-02 -9.101503e-03 -7.524851e-03 -7.359985e-03 -1.090685e-03 -9.489942e-04 3.865093e-03 3.013659e-03 5.982459e-03 4.865054e-03 6.707680e-03 5.876423e-03 6.849081e-03 6.534335e-03 6.758435e-03 7.007834e-03 6.596919e-03 7.350063e-03 6.445365e-03 7.566890e-03 6.338753e-03 7.664628e-03 6.308568e-03 7.660272e-03 6.352192e-03 7.545810e-03 6.430649e-03 7.305802e-03 6.481575e-03 6.907387e-03 6.420372e-03 6.310326e-03 6.150854e-03 5.429462e-03 5.500420e-03 4.041553e-03 4.126101e-03 1.569886e-03 1.004784e-03 -3.568251e-03 -2.167712e-03 -3.729138e-03 -8.665387e-03 -2.084283e-03 -3.121463e-03 -1.475531e-02 -6.067722e-03 -1.076179e-02 -1.488085e-02 -3.170853e-03 -1.027168e-02 -2.587493e-03 1.138625e-02 6.959395e-03 2.841547e-03 5.078369e-03 5.663874e-03 6.896772e-03 6.266361e-03 7.414361e-03 6.602766e-03 7.697875e-03 6.912786e-03 7.815057e-03 7.230991e-03 7.802748e-03 7.560164e-03 7.687532e-03 7.896886e-03 7.511751e-03 8.227094e-03 7.306433e-03 8.520194e-03 7.113218e-03 8.758358e-03 6.976932e-03 8.913925e-03 6.927313e-03 8.961434e-03 6.986383e-03 8.881273e-03 7.164066e-03 8.673593e-03 7.464645e-03 8.351516e-03 7.865742e-03 7.940377e-03 8.335567e-03 7.487277e-03 8.817874e-03 7.039681e-03 9.244709e-03 6.672311e-03 9.554090e-03 6.457466e-03 9.667080e-03 6.458102e-03 9.518140e-03 6.733482e-03 9.051090e-03 7.328276e-03 8.239037e-03 8.308451e-03 7.128713e-03 9.853571e-03 6.109102e-03 1.239459e-02 7.380865e-03 1.246811e-03 -1.460566e-03 -3.575165e-03 
-5.476553e-03 -3.319382e-03 -2.702419e-03 4.353495e-03 6.517758e-03 2.121746e-02 1.531485e-02 1.185766e-02 1.712634e-02 1.087846e-02 1.712534e-02 1.082034e-02 1.758755e-02 1.304157e-02 1.897657e-02 1.559822e-02 1.863081e-02 1.673422e-02 1.748311e-02 1.713658e-02 1.501703e-02 1.614024e-02 1.303997e-02 1.556336e-02 1.275796e-02 1.530647e-02 1.272000e-02 1.509457e-02 1.282132e-02 1.489423e-02 1.299767e-02 1.468765e-02 1.320335e-02 1.447247e-02 1.340601e-02 1.425608e-02 1.357891e-02 1.404486e-02 1.370384e-02 1.384951e-02 1.376837e-02 1.366731e-02 1.375151e-02 1.347448e-02 1.362571e-02 1.322323e-02 1.334385e-02 1.283081e-02 1.282313e-02 1.216038e-02 1.189256e-02 1.095031e-02 1.018769e-02 8.668446e-03 6.873527e-03 4.048388e-03 8.689066e-04 1.121497e-03 6.219343e-03 2.000156e-03 5.157727e-03 7.344492e-03 4.717394e-03 1.036162e-02 1.000035e-02 7.174879e-03 1.319168e-02 8.202816e-03 7.085691e-03 8.480351e-03 4.192508e-03 7.000176e-03 9.074423e-03 1.104566e-02 1.161227e-02 1.217772e-02 1.276593e-02 1.280727e-02 1.345706e-02 1.317998e-02 1.384558e-02 1.342353e-02 1.404600e-02 1.360683e-02 1.412330e-02 1.376763e-02 1.411988e-02 1.392212e-02 1.406176e-02 1.407162e-02 1.397171e-02 1.421746e-02 1.386959e-02 1.435573e-02 1.376762e-02 1.448142e-02 1.367406e-02 1.458867e-02 1.359579e-02 1.467250e-02 1.354251e-02 1.472714e-02 1.351915e-02 1.474494e-02 1.353267e-02 1.472179e-02 1.358510e-02 1.464988e-02 1.367774e-02 1.453008e-02 1.381418e-02 1.436405e-02 1.399065e-02 1.415508e-02 1.420394e-02 1.391293e-02 1.445417e-02 1.365367e-02 1.477473e-02 1.340966e-02 1.533553e-02 1.321859e-02 1.684963e-02 1.126740e-02 4.783913e-03 -9.182616e-04 -3.552071e-03 -4.754667e-03 
-2.486562e-02 -2.332104e-02 -2.613240e-02 -2.392271e-02 -3.009889e-02 -1.978919e-02 -2.030240e-02 -2.424350e-02 -1.879398e-02 -2.263002e-02 -1.815134e-02 -1.948966e-02 -1.770068e-02 -1.819724e-02 -1.893553e-02 -1.863105e-02 -1.913329e-02 -1.890764e-02 -1.881474e-02 -1.932974e-02 -1.781857e-02 -1.954345e-02 -1.875791e-02 -2.055073e-02 -2.042384e-02 -2.104345e-02 -2.123537e-02 -2.112579e-02 -2.172260e-02 -2.106810e-02 -2.206132e-02 -2.097467e-02 -2.229338e-02 -2.088894e-02 -2.242477e-02 -2.083142e-02 -2.244675e-02 -2.080331e-02 -2.236095e-02 -2.081270e-02 -2.217848e-02 -2.083745e-02 -2.187695e-02 -2.081739e-02 -2.141003e-02 -2.065818e-02 -2.068644e-02 -2.021472e-02 -1.955691e-02 -1.926544e-02 -1.772909e-02 -1.737733e-02 -1.457160e-02 -1.365866e-02 -8.612103e-03 -5.849851e-03 2.521640e-03 -6.316499e-04 -4.284107e-03 7.727761e-04 -3.955395e-03 -7.754382e-03 8.906879e-04 -9.958138e-03 -7.724756e-03 -2.653662e-03 -1.507895e-02 -5.775282e-03 -8.557441e-03 -1.466407e-02 -9.399629e-03 -9.464566e-03 -1.463894e-02 -1.682852e-02 -1.874408e-02 -1.893484e-02 -2.030590e-02 -2.016811e-02 -2.118096e-02 -2.097441e-02 -2.163004e-02 -2.154561e-02 -2.182355e-02 -2.198588e-02 -2.185918e-02 -2.234878e-02 -2.181293e-02 -2.265385e-02 -2.172809e-02 -2.289208e-02 -2.164750e-02 -2.306028e-02 -2.161275e-02 -2.314176e-02 -2.165014e-02 -2.311948e-02 -2.177947e-02 -2.298019e-02 -2.200852e-02 -2.272918e-02 -2.233882e-02 -2.238299e-02 -2.274609e-02 -2.196974e-02 -2.319734e-02 -2.153813e-02 -2.363701e-02 -2.113735e-02 -2.399809e-02 -2.084217e-02 -2.421870e-02 -2.072434e-02 -2.421883e-02 -2.084762e-02 -2.393101e-02 -2.127883e-02 -2.329889e-02 -2.209146e-02 -2.230674e-02 -2.344604e-02 -2.104905e-02 -2.580263e-02 -2.000328e-02 -3.134979e-02 -3.005810e-02 -2.677658e-02 -2.578440e-02 -2.414184e-02 
-3.024849e-02 -3.099305e-02 -3.295014e-02 -3.677923e-02 -4.151527e-02 -4.665492e-02 -4.121527e-02 -4.116470e-02 -4.033448e-02 -3.877302e-02 -3.810693e-02 -3.567680e-02 -3.499375e-02 -3.448118e-02 -3.487852e-02 -3.459497e-02 -3.478924e-02 -3.473901e-02 -3.463442e-02 -3.489290e-02 -3.444839e-02 -3.499594e-02 -3.679511e-02 -3.909714e-02 -3.905609e-02 -4.089532e-02 -4.020250e-02 -4.162738e-02 -4.092030e-02 -4.187250e-02 -4.143310e-02 -4.188903e-02 -4.181642e-02 -4.180429e-02 -4.209243e-02 -4.168700e-02 -4.225917e-02 -4.156906e-02 -4.231606e-02 -4.147454e-02 -4.226624e-02 -4.139512e-02 -4.208762e-02 -4.128383e-02 -4.174009e-02 -4.105706e-02 -4.114874e-02 -4.058211e-02 -4.019222e-02 -3.965894e-02 -3.864195e-02 -3.792942e-02 -3.604754e-02 -3.474690e-02 -3.154421e-02 -2.896375e-02 -2.470779e-02 -2.476553e-02 -2.773423e-02 -2.806445e-02 -2.648007e-02 -2.994557e-02 -2.982050e-02 -2.905687e-02 -3.158641e-02 -3.024578e-02 -3.075857e-02 -3.196074e-02 -3.118181e-02 -3.062374e-02 -3.176635e-02 -3.196264e-02 -3.363437e-02 -3.568514e-02 -3.735573e-02 -3.811874e-02 -3.954838e-02 -3.973374e-02 -4.089523e-02 -4.078091e-02 -4.165081e-02 -4.148806e-02 -4.203335e-02 -4.200291e-02 -4.218075e-02 -4.241079e-02 -4.218974e-02 -4.275138e-02 -4.211950e-02 -4.303088e-02 -4.202046e-02 -4.325272e-02 -4.193656e-02 -4.340716e-02 -4.189630e-02 -4.348221e-02 -4.191987e-02 -4.346730e-02 -4.201831e-02 -4.336265e-02 -4.219887e-02 -4.317528e-02 -4.245010e-02 -4.291883e-02 -4.275488e-02 -4.262181e-02 -4.307934e-02 -4.231277e-02 -4.338197e-02 -4.204058e-02 -4.362518e-02 -4.185472e-02 -4.376011e-02 -4.180425e-02 -4.375264e-02 -4.194989e-02 -4.359457e-02 -4.237094e-02 -4.334998e-02 -4.320316e-02 -4.323736e-02 -4.461767e-02 -4.378433e-02 -4.586594e-02 -3.964322e-02 -3.439333e-02 -3.186220e-02 -3.040138e-02 
-3.767253e-02 -3.837954e-02 -3.913384e-02 -4.178034e-02 -4.340481e-02 -4.917814e-02 -4.673713e-02 -4.590307e-02 -4.706685e-02 -4.569532e-02 -4.688454e-02 -4.575073e-02 -4.614707e-02 -4.563476e-02 -4.603625e-02 -4.575361e-02 -4.594121e-02 -4.591163e-02 -4.577219e-02 -4.607664e-02 -4.557411e-02 -4.616657e-02 -4.614891e-02 -4.729843e-02 -4.631734e-02 -4.757626e-02 -4.643583e-02 -4.756709e-02 -4.657631e-02 -4.743957e-02 -4.673951e-02 -4.726917e-02 -4.690533e-02 -4.709153e-02 -4.704866e-02 -4.692521e-02 -4.714648e-02 -4.677857e-02 -4.718185e-02 -4.665395e-02 -4.714290e-02 -4.654306e-02 -4.701815e-02 -4.642632e-02 -4.679973e-02 -4.627954e-02 -4.649144e-02 -4.609070e-02 -4.613503e-02 -4.590221e-02 -4.587385e-02 -4.590795e-02 -4.612002e-02 -4.672004e-02 -4.809508e-02 -5.026815e-02 -5.402461e-02 -5.191795e-02 -4.705234e-02 -5.105034e-02 -4.800146e-02 -4.549275e-02 -4.917506e-02 -4.301565e-02 -4.426879e-02 -4.767352e-02 -4.151604e-02 -4.761235e-02 -4.898016e-02 -4.783351e-02 -5.241905e-02 -5.044682e-02 -4.789831e-02 -4.600894e-02 -4.630947e-02 -4.576742e-02 -4.641461e-02 -4.603087e-02 -4.671252e-02 -4.640328e-02 -4.698578e-02 -4.676892e-02 -4.716480e-02 -4.709528e-02 -4.724764e-02 -4.738101e-02 -4.725653e-02 -4.762875e-02 -4.721897e-02 -4.783717e-02 -4.716316e-02 -4.800290e-02 -4.711473e-02 -4.811972e-02 -4.709334e-02 -4.818121e-02 -4.711244e-02 -4.818319e-02 -4.717957e-02 -4.812600e-02 -4.729667e-02 -4.801529e-02 -4.745736e-02 -4.786213e-02 -4.764879e-02 -4.768425e-02 -4.785071e-02 -4.750338e-02 -4.803898e-02 -4.734692e-02 -4.818929e-02 -4.724318e-02 -4.827902e-02 -4.721819e-02 -4.829545e-02 -4.729249e-02 -4.824386e-02 -4.746891e-02 -4.815414e-02 -4.768800e-02 -4.806176e-02 -4.766252e-02 -4.789768e-02 -4.587055e-02 -4.223681e-02 -4.017498e-02 -3.859047e-02 -3.795411e-02 
-3.763922e-02 -3.844425e-02 -3.879684e-02 -4.062979e-02 -4.136678e-02 -4.384049e-02 -4.389535e-02 -4.513345e-02 -4.592182e-02 -4.704401e-02 -4.868931e-02 -5.033320e-02 -5.231986e-02 -5.205564e-02 -5.224046e-02 -5.207832e-02 -5.216464e-02 -5.213922e-02 -5.209758e-02 -5.221679e-02 -5.206226e-02 -5.228429e-02 -4.890130e-02 -4.836470e-02 -4.618436e-02 -4.654538e-02 -4.506703e-02 -4.567796e-02 -4.463211e-02 -4.519809e-02 -4.451739e-02 -4.489171e-02 -4.454856e-02 -4.467416e-02 -4.463342e-02 -4.451393e-02 -4.471960e-02 -4.439962e-02 -4.477746e-02 -4.432657e-02 -4.479164e-02 -4.428876e-02 -4.475555e-02 -4.427746e-02 -4.467292e-02 -4.428746e-02 -4.456593e-02 -4.433359e-02 -4.449819e-02 -4.448800e-02 -4.462590e-02 -4.495654e-02 -4.530748e-02 -4.623964e-02 -4.737092e-02 -4.952494e-02 -5.184277e-02 -5.206925e-02 -4.944248e-02 -5.043917e-02 -4.978058e-02 -4.833906e-02 -5.008635e-02 -5.015725e-02 -4.901272e-02 -5.077138e-02 -4.907381e-02 -4.893299e-02 -4.838387e-02 -4.586932e-02 -4.627184e-02 -4.745595e-02 -4.724266e-02 -4.538519e-02 -4.549975e-02 -4.464964e-02 -4.502249e-02 -4.445544e-02 -4.489020e-02 -4.451388e-02 -4.488662e-02 -4.468262e-02 -4.489530e-02 -4.488797e-02 -4.487457e-02 -4.509751e-02 -4.482112e-02 -4.529506e-02 -4.474770e-02 -4.546896e-02 -4.467339e-02 -4.560907e-02 -4.461776e-02 -4.570513e-02 -4.459680e-02 -4.574808e-02 -4.462163e-02 -4.573219e-02 -4.469786e-02 -4.565755e-02 -4.482529e-02 -4.553079e-02 -4.499627e-02 -4.536508e-02 -4.519608e-02 -4.517987e-02 -4.540295e-02 -4.499896e-02 -4.559082e-02 -4.484988e-02 -4.573269e-02 -4.475899e-02 -4.580202e-02 -4.474422e-02 -4.577386e-02 -4.480210e-02 -4.561883e-02 -4.488096e-02 -4.528271e-02 -4.482964e-02 -4.464243e-02 -4.432337e-02 -4.343024e-02 -4.256337e-02 -4.061601e-02 -3.957860e-02 -3.829789e-02 -3.805506e-02 
-4.074090e-02 -4.151478e-02 -4.169890e-02 -4.344712e-02 -4.388655e-02 -4.618022e-02 -4.634890e-02 -4.743591e-02 -4.853192e-02 -4.937491e-02 -5.126401e-02 -5.273005e-02 -5.474715e-02 -5.444604e-02 -5.466781e-02 -5.448926e-02 -5.457829e-02 -5.457685e-02 -5.448355e-02 -5.467377e-02 -5.442088e-02 -5.473906e-02 -5.104880e-02 -5.058153e-02 -4.837153e-02 -4.885429e-02 -4.737799e-02 -4.810429e-02 -4.703281e-02 -4.770739e-02 -4.696489e-02 -4.745131e-02 -4.701651e-02 -4.726508e-02 -4.711433e-02 -4.712907e-02 -4.722103e-02 -4.704073e-02 -4.731786e-02 -4.700292e-02 -4.739933e-02 -4.702117e-02 -4.747299e-02 -4.710568e-02 -4.756248e-02 -4.727759e-02 -4.771457e-02 -4.758031e-02 -4.801055e-02 -4.809512e-02 -4.857891e-02 -4.895359e-02 -4.959153e-02 -5.031328e-02 -5.118591e-02 -5.223176e-02 -5.314574e-02 -5.377195e-02 -5.315677e-02 -5.347137e-02 -5.274958e-02 -5.243396e-02 -5.301260e-02 -5.255728e-02 -5.210227e-02 -5.250998e-02 -5.139862e-02 -5.151902e-02 -5.074118e-02 -4.929642e-02 -4.970143e-02 -5.001128e-02 -5.026301e-02 -4.928640e-02 -4.936524e-02 -4.851858e-02 -4.869282e-02 -4.800341e-02 -4.824368e-02 -4.773251e-02 -4.795930e-02 -4.763394e-02 -4.776568e-02 -4.764130e-02 -4.761527e-02 -4.770831e-02 -4.748579e-02 -4.780377e-02 -4.737199e-02 -4.790546e-02 -4.727798e-02 -4.799617e-02 -4.721162e-02 -4.806181e-02 -4.718065e-02 -4.809136e-02 -4.719059e-02 -4.807789e-02 -4.724382e-02 -4.801992e-02 -4.733893e-02 -4.792211e-02 -4.746983e-02 -4.779476e-02 -4.762500e-02 -4.765265e-02 -4.778787e-02 -4.751370e-02 -4.793876e-02 -4.739735e-02 -4.805755e-02 -4.732087e-02 -4.812509e-02 -4.729153e-02 -4.812046e-02 -4.729100e-02 -4.800937e-02 -4.724743e-02 -4.771565e-02 -4.699198e-02 -4.707139e-02 -4.622893e-02 -4.577132e-02 -4.457564e-02 -4.325294e-02 -4.229936e-02 -4.130822e-02 -4.111435e-02 
-3.763866e-02 -3.844557e-02 -3.879590e-02 -4.063083e-02 -4.136550e-02 -4.384132e-02 -4.389440e-02 -4.513520e-02 -4.592090e-02 -4.704543e-02 -4.868863e-02 -5.033394e-02 -5.231970e-02 -5.205536e-02 -5.224033e-02 -5.207790e-02 -5.216450e-02 -5.213867e-02 -5.209730e-02 -5.221626e-02 -5.206165e-02 -5.228378e-02 -4.890266e-02 -4.837084e-02 -4.618752e-02 -4.656097e-02 -4.507281e-02 -4.570607e-02 -4.464186e-02 -4.524072e-02 -4.453374e-02 -4.495187e-02 -4.457855e-02 -4.475854e-02 -4.468986e-02 -4.463387e-02 -4.482173e-02 -4.457174e-02 -4.495031e-02 -4.457322e-02 -4.506850e-02 -4.464506e-02 -4.518623e-02 -4.480040e-02 -4.533013e-02 -4.506157e-02 -4.554630e-02 -4.546586e-02 -4.590300e-02 -4.607037e-02 -4.649060e-02 -4.694912e-02 -4.740204e-02 -4.815460e-02 -4.865393e-02 -4.959195e-02 -4.997328e-02 -5.069120e-02 -5.042914e-02 -5.093820e-02 -5.066743e-02 -5.083326e-02 -5.071116e-02 -5.091775e-02 -5.050328e-02 -5.069267e-02 -5.021346e-02 -4.999423e-02 -4.968827e-02 -4.906830e-02 -4.896897e-02 -4.845555e-02 -4.840741e-02 -4.752511e-02 -4.756804e-02 -4.669103e-02 -4.683388e-02 -4.607478e-02 -4.627037e-02 -4.569060e-02 -4.585754e-02 -4.549447e-02 -4.554745e-02 -4.543126e-02 -4.530027e-02 -4.545312e-02 -4.509312e-02 -4.552313e-02 -4.491939e-02 -4.561341e-02 -4.478227e-02 -4.570062e-02 -4.468867e-02 -4.576458e-02 -4.464513e-02 -4.578802e-02 -4.465541e-02 -4.575903e-02 -4.472047e-02 -4.567391e-02 -4.483828e-02 -4.553907e-02 -4.500279e-02 -4.536903e-02 -4.519988e-02 -4.518257e-02 -4.540679e-02 -4.500193e-02 -4.559508e-02 -4.485175e-02 -4.573567e-02 -4.475825e-02 -4.580353e-02 -4.474158e-02 -4.577534e-02 -4.479923e-02 -4.562179e-02 -4.487897e-02 -4.528710e-02 -4.482819e-02 -4.464712e-02 -4.432244e-02 -4.343399e-02 -4.256520e-02 -4.061748e-02 -3.958056e-02 -3.829802e-02 -3.805673e-02 
-3.767017e-02 -3.838285e-02 -3.913089e-02 -4.178258e-02 -4.340051e-02 -4.917901e-02 -4.673383e-02 -4.590875e-02 -4.706264e-02 -4.570008e-02 -4.688103e-02 -4.575410e-02 -4.614668e-02 -4.563485e-02 -4.603632e-02 -4.575285e-02 -4.594170e-02 -4.591027e-02 -4.577209e-02 -4.607581e-02 -4.557127e-02 -4.616580e-02 -4.615474e-02 -4.731690e-02 -4.633120e-02 -4.761805e-02 -4.645946e-02 -4.763837e-02 -4.661352e-02 -4.754533e-02 -4.679715e-02 -4.741705e-02 -4.699915e-02 -4.729684e-02 -4.720591e-02 -4.721244e-02 -4.740731e-02 -4.718271e-02 -4.759757e-02 -4.721996e-02 -4.777946e-02 -4.733777e-02 -4.796954e-02 -4.755306e-02 -4.819607e-02 -4.788613e-02 -4.849803e-02 -4.836042e-02 -4.891917e-02 -4.899731e-02 -4.949787e-02 -4.980474e-02 -5.024383e-02 -5.074658e-02 -5.109452e-02 -5.169387e-02 -5.186510e-02 -5.239180e-02 -5.228397e-02 -5.262281e-02 -5.240444e-02 -5.258660e-02 -5.228914e-02 -5.240569e-02 -5.206294e-02 -5.204126e-02 -5.179608e-02 -5.157395e-02 -5.144652e-02 -5.106691e-02 -5.107928e-02 -5.056912e-02 -5.070720e-02 -4.997627e-02 -5.017031e-02 -4.935111e-02 -4.959819e-02 -4.881129e-02 -4.908131e-02 -4.841783e-02 -4.865006e-02 -4.817394e-02 -4.829616e-02 -4.805394e-02 -4.800122e-02 -4.802393e-02 -4.775080e-02 -4.805251e-02 -4.754126e-02 -4.811395e-02 -4.737559e-02 -4.818434e-02 -4.725880e-02 -4.824179e-02 -4.719503e-02 -4.826608e-02 -4.718548e-02 -4.824206e-02 -4.722991e-02 -4.816346e-02 -4.732707e-02 -4.803573e-02 -4.747401e-02 -4.787290e-02 -4.765890e-02 -4.769136e-02 -4.785987e-02 -4.751027e-02 -4.804841e-02 -4.735141e-02 -4.819605e-02 -4.724268e-02 -4.828311e-02 -4.721407e-02 -4.829966e-02 -4.728765e-02 -4.825102e-02 -4.746493e-02 -4.816425e-02 -4.768341e-02 -4.807309e-02 -4.765624e-02 -4.790784e-02 -4.587801e-02 -4.223865e-02 -4.018066e-02 -3.858908e-02 -3.795850e-02 
-3.024593e-02 -3.099695e-02 -3.294713e-02 -3.678198e-02 -4.150968e-02 -4.665603e-02 -4.121226e-02 -4.117077e-02 -4.033190e-02 -3.877714e-02 -3.810478e-02 -3.567868e-02 -3.499315e-02 -3.448098e-02 -3.487828e-02 -3.459367e-02 -3.478930e-02 -3.473687e-02 -3.463424e-02 -3.489130e-02 -3.444597e-02 -3.499339e-02 -3.679782e-02 -3.910328e-02 -3.905970e-02 -4.092867e-02 -4.021088e-02 -4.170048e-02 -4.093390e-02 -4.198253e-02 -4.144648e-02 -4.203340e-02 -4.184365e-02 -4.199764e-02 -4.216704e-02 -4.195845e-02 -4.243808e-02 -4.196320e-02 -4.265915e-02 -4.202486e-02 -4.283254e-02 -4.216155e-02 -4.298688e-02 -4.239576e-02 -4.315799e-02 -4.274744e-02 -4.339144e-02 -4.323430e-02 -4.372564e-02 -4.385815e-02 -4.418710e-02 -4.460906e-02 -4.478016e-02 -4.544619e-02 -4.546395e-02 -4.627895e-02 -4.613018e-02 -4.695579e-02 -4.665140e-02 -4.735623e-02 -4.699831e-02 -4.756500e-02 -4.709274e-02 -4.750844e-02 -4.708231e-02 -4.718457e-02 -4.694082e-02 -4.673372e-02 -4.663116e-02 -4.624264e-02 -4.626363e-02 -4.557618e-02 -4.578294e-02 -4.489593e-02 -4.523320e-02 -4.424482e-02 -4.466840e-02 -4.371118e-02 -4.416014e-02 -4.335164e-02 -4.373150e-02 -4.315696e-02 -4.336230e-02 -4.309156e-02 -4.303155e-02 -4.311340e-02 -4.272430e-02 -4.318898e-02 -4.245250e-02 -4.329989e-02 -4.223408e-02 -4.341910e-02 -4.208320e-02 -4.351932e-02 -4.200920e-02 -4.356628e-02 -4.200978e-02 -4.353078e-02 -4.208249e-02 -4.339823e-02 -4.222769e-02 -4.318312e-02 -4.245659e-02 -4.291768e-02 -4.275636e-02 -4.262416e-02 -4.308928e-02 -4.232804e-02 -4.340064e-02 -4.205346e-02 -4.363267e-02 -4.185121e-02 -4.375599e-02 -4.179159e-02 -4.374750e-02 -4.193946e-02 -4.359982e-02 -4.236965e-02 -4.336358e-02 -4.320284e-02 -4.325122e-02 -4.461454e-02 -4.379392e-02 -4.587884e-02 -3.964562e-02 -3.440179e-02 -3.186052e-02 -3.040697e-02 
-2.485983e-02 -2.332806e-02 -2.612965e-02 -2.393034e-02 -3.009774e-02 -1.979778e-02 -2.030329e-02 -2.424195e-02 -1.879825e-02 -2.262727e-02 -1.815356e-02 -1.948729e-02 -1.769673e-02 -1.820084e-02 -1.893647e-02 -1.862882e-02 -1.913679e-02 -1.890179e-02 -1.882009e-02 -1.932989e-02 -1.780505e-02 -1.957130e-02 -1.874485e-02 -2.058329e-02 -2.041203e-02 -2.110596e-02 -2.123325e-02 -2.123416e-02 -2.173125e-02 -2.121823e-02 -2.207102e-02 -2.116251e-02 -2.231778e-02 -2.113151e-02 -2.249862e-02 -2.116241e-02 -2.263036e-02 -2.127267e-02 -2.271141e-02 -2.144844e-02 -2.274154e-02 -2.169095e-02 -2.275326e-02 -2.201075e-02 -2.278268e-02 -2.241579e-02 -2.287165e-02 -2.291058e-02 -2.304632e-02 -2.347959e-02 -2.331790e-02 -2.410150e-02 -2.368419e-02 -2.474123e-02 -2.412119e-02 -2.534623e-02 -2.456382e-02 -2.580859e-02 -2.487185e-02 -2.604520e-02 -2.509087e-02 -2.595978e-02 -2.530297e-02 -2.577719e-02 -2.522428e-02 -2.552148e-02 -2.502745e-02 -2.501603e-02 -2.488543e-02 -2.434516e-02 -2.466864e-02 -2.393865e-02 -2.445184e-02 -2.350296e-02 -2.414732e-02 -2.311633e-02 -2.380861e-02 -2.282639e-02 -2.348540e-02 -2.267094e-02 -2.319423e-02 -2.263284e-02 -2.291665e-02 -2.267780e-02 -2.264216e-02 -2.276793e-02 -2.236741e-02 -2.287560e-02 -2.212130e-02 -2.299046e-02 -2.193648e-02 -2.308765e-02 -2.183757e-02 -2.314049e-02 -2.184041e-02 -2.311195e-02 -2.194242e-02 -2.297145e-02 -2.213732e-02 -2.270735e-02 -2.241887e-02 -2.234668e-02 -2.279271e-02 -2.194098e-02 -2.323092e-02 -2.152956e-02 -2.367223e-02 -2.115757e-02 -2.403301e-02 -2.086752e-02 -2.422501e-02 -2.073436e-02 -2.419605e-02 -2.085187e-02 -2.389418e-02 -2.129295e-02 -2.326545e-02 -2.212573e-02 -2.227656e-02 -2.348975e-02 -2.101444e-02 -2.584900e-02 -1.996655e-02 -3.136774e-02 -3.004001e-02 -2.678910e-02 -2.577414e-02 -2.415039e-02 
-5.470187e-03 -3.323306e-03 -2.703243e-03 4.349897e-03 6.507731e-03 2.121302e-02 1.530177e-02 1.187067e-02 1.710695e-02 1.089330e-02 1.710145e-02 1.083584e-02 1.755902e-02 1.305947e-02 1.895278e-02 1.561327e-02 1.861730e-02 1.673802e-02 1.748828e-02 1.712567e-02 1.503769e-02 1.613234e-02 1.307287e-02 1.555262e-02 1.279741e-02 1.530603e-02 1.276681e-02 1.511224e-02 1.287625e-02 1.492945e-02 1.306009e-02 1.473967e-02 1.328274e-02 1.454924e-02 1.352239e-02 1.437277e-02 1.376532e-02 1.422552e-02 1.399660e-02 1.411379e-02 1.420454e-02 1.404840e-02 1.439125e-02 1.404069e-02 1.456227e-02 1.409723e-02 1.472758e-02 1.421891e-02 1.489275e-02 1.439410e-02 1.505629e-02 1.460180e-02 1.520630e-02 1.480665e-02 1.531640e-02 1.496026e-02 1.535165e-02 1.501999e-02 1.533363e-02 1.495708e-02 1.523742e-02 1.493787e-02 1.493497e-02 1.475877e-02 1.482552e-02 1.454528e-02 1.486261e-02 1.459663e-02 1.492980e-02 1.487529e-02 1.508168e-02 1.476837e-02 1.502387e-02 1.464470e-02 1.493072e-02 1.449261e-02 1.480119e-02 1.435357e-02 1.466690e-02 1.425960e-02 1.454126e-02 1.421451e-02 1.441936e-02 1.421124e-02 1.429578e-02 1.423967e-02 1.416610e-02 1.429262e-02 1.403650e-02 1.436891e-02 1.391382e-02 1.446184e-02 1.380196e-02 1.456318e-02 1.370286e-02 1.465940e-02 1.361467e-02 1.473655e-02 1.353889e-02 1.478405e-02 1.348238e-02 1.480117e-02 1.346183e-02 1.479130e-02 1.348678e-02 1.474868e-02 1.355851e-02 1.466556e-02 1.367227e-02 1.453111e-02 1.382155e-02 1.434657e-02 1.401033e-02 1.412373e-02 1.423891e-02 1.387334e-02 1.450632e-02 1.360932e-02 1.483899e-02 1.335813e-02 1.540332e-02 1.316221e-02 1.690958e-02 1.125797e-02 4.816084e-03 -9.257029e-04 -3.536407e-03 -4.760011e-03 
-3.530053e-03 -3.497361e-03 -7.069873e-04 1.547625e-03 8.336451e-03 7.689330e-03 5.159492e-03 7.003480e-03 4.375980e-03 4.482987e-03 2.396048e-03 -3.310552e-04 -2.464791e-03 -6.937692e-03 -7.597166e-03 -1.023043e-02 -9.033925e-03 -1.038548e-02 -9.067723e-03 -7.566715e-03 -7.335825e-03 -1.108201e-03 -9.316311e-04 3.845241e-03 3.024192e-03 5.981688e-03 4.874485e-03 6.737376e-03 5.881934e-03 6.898904e-03 6.520584e-03 6.816060e-03 6.980696e-03 6.668829e-03 7.333650e-03 6.550808e-03 7.607036e-03 6.508115e-03 7.797012e-03 6.540877e-03 7.897662e-03 6.656622e-03 7.937393e-03 6.867535e-03 7.951861e-03 7.181371e-03 7.989636e-03 7.605126e-03 8.094299e-03 8.134032e-03 8.310150e-03 8.773496e-03 8.688216e-03 9.537256e-03 9.274535e-03 1.043666e-02 1.004876e-02 1.135209e-02 1.066357e-02 1.218861e-02 1.127405e-02 1.227880e-02 1.243349e-02 1.260776e-02 1.246717e-02 1.282617e-02 1.183027e-02 1.175158e-02 1.118615e-02 9.650361e-03 1.018644e-02 9.122993e-03 9.851828e-03 8.544388e-03 9.461334e-03 8.134129e-03 9.113368e-03 7.892465e-03 8.808551e-03 7.819913e-03 8.533592e-03 7.880060e-03 8.256692e-03 8.030271e-03 7.964296e-03 8.228548e-03 7.655143e-03 8.444198e-03 7.363252e-03 8.664025e-03 7.127165e-03 8.859442e-03 6.977069e-03 8.999633e-03 6.933728e-03 9.043049e-03 6.998680e-03 8.955011e-03 7.169707e-03 8.721058e-03 7.444593e-03 8.367354e-03 7.833052e-03 7.945812e-03 8.309496e-03 7.495791e-03 8.813168e-03 7.062428e-03 9.259714e-03 6.687947e-03 9.559987e-03 6.447356e-03 9.662319e-03 6.433138e-03 9.515564e-03 6.710046e-03 9.064657e-03 7.317433e-03 8.264118e-03 8.301318e-03 7.152364e-03 9.848029e-03 6.125347e-03 1.239149e-02 7.394345e-03 1.243702e-03 -1.452619e-03 -3.578003e-03 
1.524556e-04 -6.767907e-04 1.240230e-03 -3.779258e-04 3.158029e-03 -4.154755e-03 -3.407527e-03 9.991476e-04 -4.069130e-03 1.495114e-03 -3.524629e-03 1.743895e-03 -3.463027e-03 4.444528e-05 -5.048785e-03 -2.375324e-03 -4.872574e-03 -3.299836e-03 -3.956692e-03 -3.460643e-03 -1.718083e-03 -2.302371e-03 -5.629410e-04 -1.530329e-03 -7.401482e-04 -1.275438e-03 -6.725982e-04 -1.174276e-03 -4.900312e-04 -1.185851e-03 -2.707905e-04 -1.247315e-03 -5.677824e-05 -1.303746e-03 1.254507e-04 -1.316467e-03 2.610171e-04 -1.263156e-03 3.389669e-04 -1.140835e-03 3.588427e-04 -9.458721e-04 3.419750e-04 -6.729593e-04 3.208850e-04 -3.152925e-04 3.418431e-04 1.406339e-04 4.598122e-04 7.143518e-04 7.395823e-04 1.437125e-03 1.245975e-03 2.331314e-03 1.996538e-03 3.363066e-03 2.884746e-03 4.197645e-03 2.935109e-03 4.558999e-03 3.040123e-03 3.660788e-03 3.816973e-03 3.378080e-03 3.157203e-03 3.724226e-03 2.467850e-03 3.007474e-03 2.843543e-03 1.434957e-03 2.414387e-03 1.252863e-03 1.963177e-03 6.001462e-04 1.562036e-03 3.046497e-04 1.282291e-03 1.721644e-04 1.044397e-03 1.743359e-04 8.239002e-04 2.776616e-04 5.982335e-04 4.490574e-04 3.610017e-04 6.559925e-04 1.184358e-04 8.700239e-04 -1.039569e-04 1.068978e-03 -2.751028e-04 1.224973e-03 -3.666947e-04 1.309483e-03 -3.571807e-04 1.292348e-03 -2.376077e-04 1.151982e-03 -7.243194e-06 8.842756e-04 3.270820e-04 5.120925e-04 7.533710e-04 7.899643e-05 1.235149e-03 -3.671256e-04 1.711555e-03 -7.692989e-04 2.105694e-03 -1.065994e-03 2.338270e-03 -1.181525e-03 2.349564e-03 -1.038820e-03 2.091258e-03 -5.869705e-04 1.527036e-03 1.832139e-04 6.257382e-04 1.214922e-03 -6.905649e-04 2.317822e-03 -2.869562e-03 3.734371e-03 2.253944e-03 1.460219e-03 4.969131e-04 -2.211496e-04 
