# vtk DataFile Version 2.0
Comment goes here
ASCII

DATASET STRUCTURED_POINTS
FIELD FieldData 1
TIME 1 1 double
0.37000000
DIMENSIONS    128   16   1

ORIGIN    0.000   0.000   0.000
SPACING   0.0078125 0.015625   1.000

POINT_DATA   2048
SCALARS uX double
LOOKUP_TABLE default

-7.743652e-03 -3.839679e-03 -6.614858e-03 -8.969101e-04 -5.079070e-03 2.178718e-03 -1.121706e-02 8.378729e-04 -5.654099e-03 4.172067e-03 2.993422e-03 1.353892e-02 2.102467e-02 3.665883e-02 4.548532e-02 4.796378e-02 5.256658e-02 5.076301e-02 5.000886e-02 4.422210e-02 3.834036e-02 1.973887e-02 1.398980e-02 4.128622e-03 3.574191e-03 -2.171029e-03 -8.277356e-04 -4.795617e-03 -2.763230e-03 -5.837274e-03 -3.634654e-03 -6.141679e-03 -4.023826e-03 -6.089994e-03 -4.217130e-03 -5.900260e-03 -4.362019e-03 -5.680048e-03 -4.497750e-03 -5.462519e-03 -4.622929e-03 -5.267488e-03 -4.736119e-03 -5.101719e-03 -4.813771e-03 -4.937006e-03 -4.823350e-03 -4.764153e-03 -4.786846e-03 -4.633306e-03 -4.764128e-03 -4.581732e-03 -4.752339e-03 -4.580928e-03 -4.731659e-03 -4.624175e-03 -4.236067e-03 -3.895663e-03 -3.566364e-03 -1.648044e-03 -6.294913e-03 -5.529772e-03 -7.365936e-04 -4.055546e-03 -2.506532e-03 -7.404366e-04 -4.729955e-03 -3.264627e-03 -4.652788e-03 -1.111887e-02 -9.047066e-03 -7.484257e-03 -6.961986e-03 -6.399165e-03 -5.163232e-03 -5.123370e-03 -4.139485e-03 -4.634471e-03 -3.694596e-03 -4.507647e-03 -3.522017e-03 -4.490081e-03 -3.455619e-03 -4.437569e-03 -3.430242e-03 -4.311448e-03 -3.463331e-03 -4.134716e-03 -3.580564e-03 -3.915443e-03 -3.757817e-03 -3.641856e-03 -3.965275e-03 -3.343999e-03 -4.200806e-03 -3.077304e-03 -4.439042e-03 -2.862892e-03 -4.607425e-03 -2.704733e-03 -4.648480e-03 -2.645722e-03 -4.554700e-03 -2.744213e-03 -4.320979e-03 -3.018477e-03 -3.934818e-03 -3.461227e-03 -3.414342e-03 -4.059321e-03 -2.806278e-03 -4.755971e-03 -2.147832e-03 -5.436782e-03 -1.506486e-03 -6.000890e-03 -1.069471e-03 -6.387497e-03 -1.167443e-03 -6.498169e-03 -2.400394e-03 -6.220206e-03 -6.569917e-03 -1.712082e-03 -6.129830e-03 -3.352068e-03 -7.429560e-03 -4.604877e-03 
-3.447831e-03 -2.754316e-04 -1.840144e-03 2.842122e-03 1.476283e-03 7.382741e-03 -8.711306e-03 2.353656e-03 -4.222351e-03 1.319757e-03 5.313886e-05 1.148810e-03 5.429610e-03 2.856789e-04 1.390872e-03 -2.567640e-03 6.682157e-04 -3.320650e-03 1.114949e-03 -2.066567e-03 3.115849e-03 2.648555e-03 2.138391e-03 1.789471e-04 9.313226e-04 -1.004258e-03 3.611317e-04 -1.642420e-03 -3.311122e-05 -2.001902e-03 -3.121077e-04 -2.097043e-03 -4.571938e-04 -1.981942e-03 -5.362226e-04 -1.783665e-03 -6.404179e-04 -1.588548e-03 -7.575684e-04 -1.385201e-03 -8.710990e-04 -1.241075e-03 -1.048336e-03 -1.195385e-03 -1.214746e-03 -1.094813e-03 -1.184605e-03 -8.010968e-04 -9.129485e-04 -3.898745e-04 -5.547254e-04 -1.353067e-05 -1.364308e-04 4.489362e-04 6.498629e-04 1.586853e-03 3.465056e-03 4.464063e-03 2.168452e-03 5.842921e-03 1.126797e-03 9.709134e-04 5.576060e-03 3.775300e-04 1.309002e-03 3.347369e-03 -2.483953e-03 2.175232e-05 -7.813532e-04 -7.036216e-03 -4.314910e-03 -4.033137e-03 -4.327440e-03 -3.023321e-03 -2.192078e-03 -1.677454e-03 -9.778245e-04 -1.062515e-03 -3.334902e-04 -8.026123e-04 -7.798339e-06 -6.822211e-04 1.754640e-04 -5.458881e-04 2.916574e-04 -3.639986e-04 3.001817e-04 -1.976240e-04 1.453019e-04 -4.285587e-05 -8.301104e-05 2.021637e-04 -2.923904e-04 5.190797e-04 -5.132293e-04 8.002426e-04 -7.670706e-04 1.005266e-03 -9.625119e-04 1.170206e-03 -1.006757e-03 1.254316e-03 -9.134053e-04 1.181358e-03 -6.700702e-04 9.352866e-04 -2.858301e-04 4.764410e-04 1.874529e-04 -1.875175e-04 7.400109e-04 -9.450789e-04 1.405048e-03 -1.640301e-03 2.129848e-03 -2.235839e-03 2.663232e-03 -2.762467e-03 2.697097e-03 -3.095374e-03 1.754065e-03 -2.822861e-03 -1.919917e-03 5.053475e-03 -2.317085e-03 5.568345e-04 -3.521689e-03 -9.671836e-04 
-1.046253e-02 -7.939571e-03 -6.918292e-03 -1.253724e-03 4.915871e-03 1.535866e-02 3.390561e-03 1.166564e-02 2.415319e-03 6.790146e-03 -1.125084e-03 -1.152481e-03 -1.124622e-02 -1.549710e-02 -2.035676e-02 -2.146672e-02 -2.272701e-02 -2.320994e-02 -2.108754e-02 -2.049025e-02 -1.565762e-02 -9.707992e-03 -1.742854e-03 3.046611e-04 4.914492e-03 4.588793e-03 7.875471e-03 6.375459e-03 9.088715e-03 7.041053e-03 9.587151e-03 7.431334e-03 9.920282e-03 7.841951e-03 1.017438e-02 8.221052e-03 1.025815e-02 8.502852e-03 1.024969e-02 8.798507e-03 1.019803e-02 8.961340e-03 9.902919e-03 8.882906e-03 9.517047e-03 8.917690e-03 9.466660e-03 9.373027e-03 9.809508e-03 9.991537e-03 1.001525e-02 1.020019e-02 9.710655e-03 1.002328e-02 9.223415e-03 9.864629e-03 7.938475e-03 8.323188e-03 7.029399e-03 4.734340e-03 1.159330e-02 1.120451e-02 2.221108e-03 8.956034e-03 5.844321e-03 3.064205e-03 1.083198e-02 7.929529e-03 1.153243e-02 2.212366e-02 1.999256e-02 1.677014e-02 1.708765e-02 1.452150e-02 1.402323e-02 1.190313e-02 1.233805e-02 1.066591e-02 1.164664e-02 1.005880e-02 1.134031e-02 9.793729e-03 1.127166e-02 9.821624e-03 1.132929e-02 1.000416e-02 1.130049e-02 1.012364e-02 1.101240e-02 1.017210e-02 1.065045e-02 1.039593e-02 1.040428e-02 1.078022e-02 1.016189e-02 1.110827e-02 9.818092e-03 1.132244e-02 9.518474e-03 1.155503e-02 9.429491e-03 1.176447e-02 9.479586e-03 1.182097e-02 9.680005e-03 1.171700e-02 1.000049e-02 1.134465e-02 1.033883e-02 1.069369e-02 1.074304e-02 9.963050e-03 1.139200e-02 9.414669e-03 1.231769e-02 9.005995e-03 1.319446e-02 8.547859e-03 1.384711e-02 8.248194e-03 1.441473e-02 8.983799e-03 1.494540e-02 1.428021e-02 -1.537673e-03 -3.297416e-03 -9.089536e-03 -8.458548e-03 
-9.468895e-03 -9.334113e-03 -6.232917e-03 -3.776237e-03 4.662305e-03 1.154476e-02 2.679611e-02 2.051190e-02 2.272065e-02 2.126102e-02 2.021601e-02 2.136625e-02 1.763972e-02 2.311611e-02 2.176033e-02 2.590331e-02 2.268332e-02 2.655464e-02 2.235805e-02 2.520500e-02 2.034058e-02 2.046232e-02 2.000607e-02 2.133978e-02 2.070698e-02 2.167446e-02 2.124040e-02 2.169128e-02 2.161700e-02 2.155043e-02 2.191323e-02 2.141789e-02 2.219197e-02 2.134918e-02 2.243163e-02 2.131735e-02 2.257828e-02 2.129565e-02 2.264218e-02 2.132052e-02 2.263431e-02 2.133132e-02 2.247720e-02 2.127785e-02 2.222122e-02 2.126349e-02 2.200474e-02 2.136132e-02 2.181098e-02 2.142086e-02 2.137747e-02 2.112922e-02 2.044122e-02 2.031417e-02 1.888370e-02 1.856973e-02 1.530354e-02 1.546637e-02 1.870190e-02 1.625861e-02 1.853266e-02 2.152805e-02 1.691082e-02 2.320762e-02 2.197149e-02 2.108703e-02 2.518604e-02 2.388161e-02 2.261722e-02 2.758802e-02 2.470108e-02 2.575068e-02 2.724185e-02 2.483916e-02 2.519515e-02 2.321806e-02 2.402884e-02 2.243847e-02 2.341316e-02 2.202338e-02 2.304999e-02 2.181373e-02 2.285398e-02 2.175535e-02 2.275170e-02 2.176737e-02 2.264850e-02 2.176469e-02 2.248258e-02 2.174701e-02 2.231095e-02 2.179403e-02 2.218952e-02 2.190365e-02 2.206756e-02 2.200684e-02 2.190208e-02 2.209890e-02 2.173509e-02 2.224065e-02 2.161619e-02 2.242606e-02 2.150847e-02 2.260910e-02 2.140299e-02 2.278478e-02 2.129282e-02 2.291359e-02 2.115707e-02 2.298151e-02 2.103236e-02 2.303392e-02 2.101070e-02 2.313682e-02 2.115700e-02 2.324536e-02 2.143444e-02 2.324437e-02 2.194400e-02 2.309580e-02 2.318597e-02 2.258614e-02 2.711296e-02 1.002951e-02 2.152011e-03 -5.044530e-03 -7.277000e-03 -9.726969e-03 
-3.311955e-02 -3.579498e-02 -3.505905e-02 -3.978948e-02 -4.178017e-02 -4.950196e-02 -2.646722e-02 -3.961062e-02 -2.724782e-02 -3.415610e-02 -2.506971e-02 -2.828082e-02 -1.840731e-02 -2.257380e-02 -2.148378e-02 -2.234070e-02 -2.244460e-02 -2.211737e-02 -2.267821e-02 -2.167860e-02 -2.228499e-02 -2.023567e-02 -2.777243e-02 -2.681428e-02 -3.129235e-02 -2.992578e-02 -3.286526e-02 -3.138490e-02 -3.342905e-02 -3.202636e-02 -3.357986e-02 -3.246704e-02 -3.369433e-02 -3.291868e-02 -3.379813e-02 -3.330434e-02 -3.378202e-02 -3.355311e-02 -3.371312e-02 -3.376851e-02 -3.362639e-02 -3.380682e-02 -3.331419e-02 -3.355846e-02 -3.290100e-02 -3.335420e-02 -3.276160e-02 -3.345940e-02 -3.288863e-02 -3.355351e-02 -3.264998e-02 -3.294670e-02 -3.147108e-02 -3.143578e-02 -2.927386e-02 -2.872198e-02 -2.364819e-02 -2.363490e-02 -2.799611e-02 -2.245518e-02 -3.046800e-02 -3.302574e-02 -2.308487e-02 -3.482844e-02 -3.189960e-02 -2.849380e-02 -3.972790e-02 -3.433409e-02 -3.636148e-02 -4.748262e-02 -4.258208e-02 -4.301452e-02 -4.406688e-02 -4.116726e-02 -3.934278e-02 -3.777740e-02 -3.680147e-02 -3.611694e-02 -3.565053e-02 -3.524236e-02 -3.510495e-02 -3.480910e-02 -3.492609e-02 -3.471924e-02 -3.494883e-02 -3.480749e-02 -3.493417e-02 -3.484187e-02 -3.469268e-02 -3.480248e-02 -3.439592e-02 -3.492992e-02 -3.422564e-02 -3.521232e-02 -3.407312e-02 -3.544183e-02 -3.382980e-02 -3.555733e-02 -3.362816e-02 -3.568231e-02 -3.362367e-02 -3.577916e-02 -3.374870e-02 -3.573086e-02 -3.401870e-02 -3.553547e-02 -3.440123e-02 -3.508972e-02 -3.479407e-02 -3.438967e-02 -3.524616e-02 -3.363972e-02 -3.593310e-02 -3.310421e-02 -3.688404e-02 -3.276621e-02 -3.779350e-02 -3.251433e-02 -3.850815e-02 -3.274628e-02 -3.914908e-02 -3.488620e-02 -3.906139e-02 -4.936982e-02 -3.541491e-02 -3.827102e-02 -3.302147e-02 -3.549314e-02 
-3.724650e-02 -3.925454e-02 -4.042735e-02 -4.508633e-02 -5.091618e-02 -6.051317e-02 -5.826185e-02 -6.058362e-02 -5.504735e-02 -5.686603e-02 -5.173122e-02 -5.201076e-02 -4.608224e-02 -4.634450e-02 -4.611611e-02 -4.629470e-02 -4.626694e-02 -4.622819e-02 -4.635667e-02 -4.617503e-02 -4.634157e-02 -4.620607e-02 -5.241045e-02 -5.266903e-02 -5.584342e-02 -5.553703e-02 -5.757517e-02 -5.681938e-02 -5.840433e-02 -5.732422e-02 -5.882117e-02 -5.761016e-02 -5.913159e-02 -5.788768e-02 -5.937344e-02 -5.813037e-02 -5.947587e-02 -5.829666e-02 -5.948887e-02 -5.846618e-02 -5.944327e-02 -5.853014e-02 -5.919201e-02 -5.840907e-02 -5.884411e-02 -5.834970e-02 -5.869132e-02 -5.853838e-02 -5.871706e-02 -5.869932e-02 -5.841093e-02 -5.824331e-02 -5.728635e-02 -5.690936e-02 -5.525709e-02 -5.453113e-02 -5.171597e-02 -5.229675e-02 -5.731716e-02 -5.524231e-02 -5.462033e-02 -5.934493e-02 -5.670574e-02 -5.952414e-02 -5.930320e-02 -5.856058e-02 -5.943624e-02 -5.974587e-02 -5.764171e-02 -5.866918e-02 -5.669100e-02 -5.912215e-02 -6.193012e-02 -6.040092e-02 -6.092400e-02 -5.964875e-02 -6.037029e-02 -5.933971e-02 -6.014551e-02 -5.914770e-02 -6.002876e-02 -5.906291e-02 -6.002905e-02 -5.913079e-02 -6.009762e-02 -5.927413e-02 -6.008753e-02 -5.934877e-02 -5.988216e-02 -5.936183e-02 -5.961933e-02 -5.949752e-02 -5.943862e-02 -5.975314e-02 -5.925916e-02 -5.997661e-02 -5.900354e-02 -6.013019e-02 -5.877280e-02 -6.031200e-02 -5.868498e-02 -6.049481e-02 -5.868750e-02 -6.058374e-02 -5.878345e-02 -6.056820e-02 -5.895114e-02 -6.036873e-02 -5.912526e-02 -5.998037e-02 -5.935568e-02 -5.955035e-02 -5.979042e-02 -5.927503e-02 -6.048062e-02 -5.914539e-02 -6.124233e-02 -5.908209e-02 -6.206856e-02 -5.934173e-02 -6.334310e-02 -6.049797e-02 -6.587119e-02 -5.876620e-02 -4.572370e-02 -4.297232e-02 -3.847088e-02 -3.867846e-02 
-4.771377e-02 -4.972446e-02 -4.927909e-02 -5.277267e-02 -5.361936e-02 -5.941124e-02 -6.215562e-02 -6.310511e-02 -6.134935e-02 -6.354786e-02 -6.181582e-02 -6.376743e-02 -6.320004e-02 -6.349759e-02 -6.322181e-02 -6.343229e-02 -6.339734e-02 -6.334120e-02 -6.350211e-02 -6.325918e-02 -6.349523e-02 -6.327910e-02 -6.351637e-02 -6.300282e-02 -6.336487e-02 -6.280834e-02 -6.336937e-02 -6.267056e-02 -6.340771e-02 -6.257087e-02 -6.346210e-02 -6.253846e-02 -6.353395e-02 -6.257609e-02 -6.360088e-02 -6.265460e-02 -6.363045e-02 -6.274437e-02 -6.361447e-02 -6.283826e-02 -6.355194e-02 -6.291005e-02 -6.342964e-02 -6.295578e-02 -6.329228e-02 -6.303534e-02 -6.321924e-02 -6.319481e-02 -6.322952e-02 -6.339891e-02 -6.328275e-02 -6.360610e-02 -6.345209e-02 -6.395514e-02 -6.414909e-02 -6.526966e-02 -6.797110e-02 -6.866290e-02 -6.372136e-02 -6.899419e-02 -6.335472e-02 -6.259074e-02 -6.740411e-02 -6.058454e-02 -6.156206e-02 -6.484814e-02 -5.742734e-02 -6.261916e-02 -6.236580e-02 -5.727951e-02 -6.076515e-02 -6.006589e-02 -5.883366e-02 -6.089239e-02 -6.188067e-02 -6.263484e-02 -6.327835e-02 -6.328089e-02 -6.381412e-02 -6.349741e-02 -6.400887e-02 -6.357289e-02 -6.407918e-02 -6.363174e-02 -6.409301e-02 -6.369875e-02 -6.404569e-02 -6.376165e-02 -6.392913e-02 -6.383048e-02 -6.377749e-02 -6.393854e-02 -6.362675e-02 -6.408381e-02 -6.347332e-02 -6.423056e-02 -6.331464e-02 -6.436247e-02 -6.318133e-02 -6.448662e-02 -6.310726e-02 -6.458798e-02 -6.309280e-02 -6.463516e-02 -6.313507e-02 -6.460974e-02 -6.322629e-02 -6.449500e-02 -6.335468e-02 -6.430071e-02 -6.352827e-02 -6.407352e-02 -6.376426e-02 -6.386870e-02 -6.404292e-02 -6.369743e-02 -6.427607e-02 -6.354113e-02 -6.436490e-02 -6.336971e-02 -6.419234e-02 -6.290493e-02 -6.380955e-02 -5.744227e-02 -5.325636e-02 -5.159865e-02 -4.889110e-02 -4.932330e-02 
-4.679097e-02 -4.812429e-02 -4.845271e-02 -5.097036e-02 -5.217342e-02 -5.540644e-02 -5.677064e-02 -5.927583e-02 -6.039424e-02 -6.270866e-02 -6.547521e-02 -6.749670e-02 -7.391806e-02 -7.404970e-02 -7.396688e-02 -7.403808e-02 -7.401889e-02 -7.400969e-02 -7.405611e-02 -7.397539e-02 -7.406528e-02 -7.392592e-02 -6.669025e-02 -6.587864e-02 -6.276078e-02 -6.216834e-02 -6.100015e-02 -6.026355e-02 -6.015414e-02 -5.924861e-02 -5.975136e-02 -5.872246e-02 -5.957378e-02 -5.848195e-02 -5.949912e-02 -5.840222e-02 -5.945178e-02 -5.840719e-02 -5.939876e-02 -5.845895e-02 -5.932727e-02 -5.852653e-02 -5.922948e-02 -5.860009e-02 -5.913241e-02 -5.870846e-02 -5.908349e-02 -5.887731e-02 -5.910409e-02 -5.910323e-02 -5.920849e-02 -5.942064e-02 -5.951651e-02 -6.000325e-02 -6.031915e-02 -6.128955e-02 -6.266632e-02 -6.310556e-02 -5.911512e-02 -6.239552e-02 -6.045113e-02 -5.863048e-02 -6.126579e-02 -5.925269e-02 -5.910623e-02 -6.096701e-02 -5.810736e-02 -5.913672e-02 -5.925447e-02 -5.698160e-02 -5.886632e-02 -5.793483e-02 -5.647502e-02 -5.736611e-02 -5.808758e-02 -5.830914e-02 -5.897084e-02 -5.868290e-02 -5.937302e-02 -5.884663e-02 -5.956714e-02 -5.893839e-02 -5.966350e-02 -5.902469e-02 -5.970204e-02 -5.912253e-02 -5.968176e-02 -5.922530e-02 -5.959918e-02 -5.933770e-02 -5.947722e-02 -5.947722e-02 -5.934148e-02 -5.963875e-02 -5.919690e-02 -5.979709e-02 -5.905060e-02 -5.993752e-02 -5.893021e-02 -6.005783e-02 -5.886330e-02 -6.014236e-02 -5.885592e-02 -6.016627e-02 -5.890885e-02 -6.011363e-02 -5.901712e-02 -5.997352e-02 -5.916932e-02 -5.975186e-02 -5.935896e-02 -5.947679e-02 -5.957637e-02 -5.917605e-02 -5.977325e-02 -5.883371e-02 -5.982825e-02 -5.837251e-02 -5.954061e-02 -5.762844e-02 -5.855764e-02 -5.623413e-02 -5.627889e-02 -5.329018e-02 -5.106653e-02 -4.951942e-02 -4.768518e-02 -4.761197e-02 
-5.154029e-02 -5.304030e-02 -5.274827e-02 -5.527499e-02 -5.582808e-02 -5.887547e-02 -6.018967e-02 -6.255192e-02 -6.384831e-02 -6.615944e-02 -6.882946e-02 -7.094872e-02 -7.716445e-02 -7.733243e-02 -7.720862e-02 -7.730299e-02 -7.728009e-02 -7.725138e-02 -7.733590e-02 -7.719943e-02 -7.735314e-02 -7.714861e-02 -6.981541e-02 -6.897271e-02 -6.598688e-02 -6.541618e-02 -6.435573e-02 -6.370833e-02 -6.362335e-02 -6.287020e-02 -6.330223e-02 -6.247067e-02 -6.317042e-02 -6.230705e-02 -6.311887e-02 -6.227311e-02 -6.309020e-02 -6.231093e-02 -6.305984e-02 -6.239180e-02 -6.302334e-02 -6.250217e-02 -6.298672e-02 -6.263842e-02 -6.296492e-02 -6.280622e-02 -6.297864e-02 -6.301680e-02 -6.305258e-02 -6.329342e-02 -6.323225e-02 -6.369655e-02 -6.360247e-02 -6.431786e-02 -6.421577e-02 -6.515640e-02 -6.493398e-02 -6.597170e-02 -6.460983e-02 -6.582976e-02 -6.447570e-02 -6.447413e-02 -6.473174e-02 -6.442353e-02 -6.387757e-02 -6.447005e-02 -6.299666e-02 -6.322091e-02 -6.232039e-02 -6.143796e-02 -6.165260e-02 -6.174871e-02 -6.153640e-02 -6.189689e-02 -6.213401e-02 -6.234191e-02 -6.263939e-02 -6.262143e-02 -6.296539e-02 -6.278306e-02 -6.315240e-02 -6.287843e-02 -6.324634e-02 -6.295314e-02 -6.327929e-02 -6.303220e-02 -6.326461e-02 -6.312396e-02 -6.320915e-02 -6.323201e-02 -6.312312e-02 -6.335714e-02 -6.301726e-02 -6.349177e-02 -6.289945e-02 -6.362291e-02 -6.278216e-02 -6.374186e-02 -6.268534e-02 -6.384172e-02 -6.262564e-02 -6.390925e-02 -6.260993e-02 -6.392876e-02 -6.264081e-02 -6.389124e-02 -6.271835e-02 -6.379414e-02 -6.283480e-02 -6.363884e-02 -6.297291e-02 -6.343166e-02 -6.310532e-02 -6.317689e-02 -6.318144e-02 -6.285186e-02 -6.310173e-02 -6.236979e-02 -6.268758e-02 -6.152526e-02 -6.163171e-02 -5.991639e-02 -5.945613e-02 -5.698707e-02 -5.532555e-02 -5.409081e-02 -5.244060e-02 -5.263426e-02 
-4.679638e-02 -4.812986e-02 -4.845765e-02 -5.097459e-02 -5.217830e-02 -5.540954e-02 -5.677498e-02 -5.927926e-02 -6.039703e-02 -6.271101e-02 -6.547747e-02 -6.749810e-02 -7.391961e-02 -7.404903e-02 -7.396580e-02 -7.403427e-02 -7.401463e-02 -7.400251e-02 -7.404892e-02 -7.396539e-02 -7.405647e-02 -7.391494e-02 -6.668195e-02 -6.586327e-02 -6.275277e-02 -6.215042e-02 -6.099613e-02 -6.025232e-02 -6.016223e-02 -5.925193e-02 -5.977167e-02 -5.873988e-02 -5.959992e-02 -5.850873e-02 -5.952063e-02 -5.843087e-02 -5.946092e-02 -5.843641e-02 -5.939683e-02 -5.849668e-02 -5.933389e-02 -5.860437e-02 -5.928654e-02 -5.875170e-02 -5.926067e-02 -5.892526e-02 -5.925717e-02 -5.911455e-02 -5.928211e-02 -5.932841e-02 -5.937228e-02 -5.962219e-02 -5.960273e-02 -6.006835e-02 -6.000767e-02 -6.064053e-02 -6.042839e-02 -6.106099e-02 -6.025758e-02 -6.093424e-02 -6.032561e-02 -6.042606e-02 -6.027090e-02 -6.026654e-02 -5.997941e-02 -6.025471e-02 -5.977134e-02 -5.987197e-02 -5.971613e-02 -5.941835e-02 -5.950534e-02 -5.916482e-02 -5.913105e-02 -5.897221e-02 -5.923625e-02 -5.899680e-02 -5.942813e-02 -5.902992e-02 -5.956969e-02 -5.902867e-02 -5.963651e-02 -5.901311e-02 -5.965441e-02 -5.902524e-02 -5.964916e-02 -5.908405e-02 -5.961969e-02 -5.918420e-02 -5.955905e-02 -5.931909e-02 -5.946927e-02 -5.948062e-02 -5.935350e-02 -5.964918e-02 -5.921169e-02 -5.980283e-02 -5.906135e-02 -5.993962e-02 -5.893992e-02 -6.005911e-02 -5.887067e-02 -6.013906e-02 -5.885454e-02 -6.015138e-02 -5.889392e-02 -6.009021e-02 -5.900313e-02 -5.996429e-02 -5.917826e-02 -5.976803e-02 -5.938632e-02 -5.949942e-02 -5.959540e-02 -5.918061e-02 -5.977064e-02 -5.882286e-02 -5.981915e-02 -5.836553e-02 -5.953996e-02 -5.763306e-02 -5.856656e-02 -5.624636e-02 -5.629009e-02 -5.330230e-02 -5.107521e-02 -4.952901e-02 -4.769177e-02 -4.761929e-02 
-4.772350e-02 -4.973597e-02 -4.928789e-02 -5.278084e-02 -5.362781e-02 -5.941459e-02 -6.216354e-02 -6.311486e-02 -6.135358e-02 -6.355470e-02 -6.181941e-02 -6.377171e-02 -6.320674e-02 -6.350100e-02 -6.322258e-02 -6.342822e-02 -6.339136e-02 -6.332879e-02 -6.348968e-02 -6.323765e-02 -6.347646e-02 -6.324924e-02 -6.350193e-02 -6.297414e-02 -6.335454e-02 -6.278115e-02 -6.337178e-02 -6.266257e-02 -6.343852e-02 -6.259392e-02 -6.351844e-02 -6.259049e-02 -6.360584e-02 -6.265321e-02 -6.367390e-02 -6.274766e-02 -6.369374e-02 -6.285413e-02 -6.367195e-02 -6.297871e-02 -6.364039e-02 -6.314318e-02 -6.363273e-02 -6.335008e-02 -6.365184e-02 -6.357470e-02 -6.368187e-02 -6.379023e-02 -6.371183e-02 -6.399179e-02 -6.376704e-02 -6.422757e-02 -6.391022e-02 -6.454926e-02 -6.415483e-02 -6.491219e-02 -6.438583e-02 -6.514230e-02 -6.442628e-02 -6.509432e-02 -6.438622e-02 -6.489274e-02 -6.429031e-02 -6.474780e-02 -6.417342e-02 -6.458586e-02 -6.401654e-02 -6.427405e-02 -6.377860e-02 -6.387785e-02 -6.355844e-02 -6.360162e-02 -6.344660e-02 -6.347123e-02 -6.351781e-02 -6.346794e-02 -6.366157e-02 -6.348303e-02 -6.377032e-02 -6.346061e-02 -6.381096e-02 -6.341957e-02 -6.381398e-02 -6.341552e-02 -6.381373e-02 -6.347179e-02 -6.380238e-02 -6.357603e-02 -6.376517e-02 -6.371869e-02 -6.370026e-02 -6.389045e-02 -6.360635e-02 -6.406599e-02 -6.347277e-02 -6.421620e-02 -6.331574e-02 -6.434982e-02 -6.318729e-02 -6.447846e-02 -6.311307e-02 -6.457466e-02 -6.308435e-02 -6.460200e-02 -6.310229e-02 -6.456119e-02 -6.319612e-02 -6.447381e-02 -6.336841e-02 -6.432791e-02 -6.357806e-02 -6.411468e-02 -6.380012e-02 -6.387677e-02 -6.403821e-02 -6.367719e-02 -6.426042e-02 -6.352972e-02 -6.436561e-02 -6.337874e-02 -6.420949e-02 -6.292580e-02 -6.383175e-02 -5.746663e-02 -5.327145e-02 -5.161792e-02 -4.890269e-02 -4.933839e-02 
-3.725888e-02 -3.926837e-02 -4.043927e-02 -4.509664e-02 -5.093060e-02 -6.051823e-02 -5.827740e-02 -6.059751e-02 -5.505205e-02 -5.687183e-02 -5.173954e-02 -5.202072e-02 -4.609865e-02 -4.634609e-02 -4.611521e-02 -4.628479e-02 -4.625420e-02 -4.620572e-02 -4.633173e-02 -4.614011e-02 -4.631044e-02 -4.616870e-02 -5.238625e-02 -5.261518e-02 -5.580788e-02 -5.544469e-02 -5.752964e-02 -5.674933e-02 -5.842439e-02 -5.733121e-02 -5.890488e-02 -5.767875e-02 -5.925020e-02 -5.799611e-02 -5.946748e-02 -5.821969e-02 -5.949821e-02 -5.835223e-02 -5.940768e-02 -5.845661e-02 -5.930413e-02 -5.863817e-02 -5.929516e-02 -5.891523e-02 -5.935564e-02 -5.920638e-02 -5.940955e-02 -5.941522e-02 -5.936296e-02 -5.946792e-02 -5.923402e-02 -5.949793e-02 -5.922673e-02 -5.970642e-02 -5.945858e-02 -6.007117e-02 -5.972745e-02 -6.025832e-02 -5.972815e-02 -6.011714e-02 -5.961670e-02 -5.997188e-02 -5.959425e-02 -6.003765e-02 -5.984719e-02 -6.024385e-02 -6.009295e-02 -6.024102e-02 -5.999659e-02 -5.990937e-02 -5.970199e-02 -5.946964e-02 -5.950906e-02 -5.930559e-02 -5.965002e-02 -5.938020e-02 -5.990072e-02 -5.940260e-02 -5.998928e-02 -5.923993e-02 -5.988897e-02 -5.900057e-02 -5.976386e-02 -5.889461e-02 -5.974123e-02 -5.895588e-02 -5.974237e-02 -5.909319e-02 -5.970138e-02 -5.929300e-02 -5.963326e-02 -5.956237e-02 -5.953623e-02 -5.983065e-02 -5.932457e-02 -5.999190e-02 -5.901943e-02 -6.012987e-02 -5.880388e-02 -6.033692e-02 -5.873024e-02 -6.051998e-02 -5.870147e-02 -6.053473e-02 -5.867980e-02 -6.041427e-02 -5.881979e-02 -6.030276e-02 -5.916879e-02 -6.011064e-02 -5.954337e-02 -5.972049e-02 -5.989819e-02 -5.928036e-02 -6.041026e-02 -5.903766e-02 -6.115413e-02 -5.903143e-02 -6.206186e-02 -5.937289e-02 -6.339986e-02 -6.056563e-02 -6.592430e-02 -5.881690e-02 -4.575220e-02 -4.300171e-02 -3.848728e-02 -3.869778e-02 
-3.313286e-02 -3.581442e-02 -3.507153e-02 -3.980745e-02 -4.179658e-02 -4.952349e-02 -2.648395e-02 -3.961739e-02 -2.725529e-02 -3.415750e-02 -2.508696e-02 -2.830122e-02 -1.843183e-02 -2.258625e-02 -2.149349e-02 -2.234822e-02 -2.245410e-02 -2.212782e-02 -2.269776e-02 -2.169064e-02 -2.231078e-02 -2.021558e-02 -2.778073e-02 -2.675899e-02 -3.125949e-02 -2.980080e-02 -3.278504e-02 -3.126812e-02 -3.341320e-02 -3.201188e-02 -3.365440e-02 -3.255197e-02 -3.383457e-02 -3.307091e-02 -3.392511e-02 -3.344160e-02 -3.384171e-02 -3.366452e-02 -3.367217e-02 -3.382050e-02 -3.354303e-02 -3.403526e-02 -3.357155e-02 -3.432791e-02 -3.371069e-02 -3.460751e-02 -3.386115e-02 -3.476329e-02 -3.388735e-02 -3.469833e-02 -3.378882e-02 -3.457622e-02 -3.380773e-02 -3.465923e-02 -3.409892e-02 -3.495208e-02 -3.443205e-02 -3.507892e-02 -3.442008e-02 -3.483330e-02 -3.418500e-02 -3.449416e-02 -3.417614e-02 -3.450975e-02 -3.435252e-02 -3.475768e-02 -3.447411e-02 -3.462772e-02 -3.422162e-02 -3.405703e-02 -3.371781e-02 -3.365260e-02 -3.355461e-02 -3.368913e-02 -3.389330e-02 -3.403718e-02 -3.435301e-02 -3.426804e-02 -3.456920e-02 -3.421569e-02 -3.452120e-02 -3.403479e-02 -3.443105e-02 -3.400004e-02 -3.446060e-02 -3.415013e-02 -3.450835e-02 -3.436941e-02 -3.449570e-02 -3.464617e-02 -3.445012e-02 -3.498995e-02 -3.437154e-02 -3.530848e-02 -3.415547e-02 -3.546965e-02 -3.384037e-02 -3.558209e-02 -3.366094e-02 -3.575836e-02 -3.368372e-02 -3.587706e-02 -3.378280e-02 -3.574820e-02 -3.390126e-02 -3.541644e-02 -3.424027e-02 -3.508434e-02 -3.485871e-02 -3.463960e-02 -3.549166e-02 -3.392853e-02 -3.605922e-02 -3.316216e-02 -3.677149e-02 -3.266991e-02 -3.765923e-02 -3.248761e-02 -3.848266e-02 -3.282630e-02 -3.921320e-02 -3.501455e-02 -3.911522e-02 -4.944740e-02 -3.544840e-02 -3.831441e-02 -3.304025e-02 -3.551993e-02 
-9.470711e-03 -9.345041e-03 -6.236379e-03 -3.788093e-03 4.656744e-03 1.152454e-02 2.678625e-02 2.051474e-02 2.269451e-02 2.125556e-02 2.017708e-02 2.135123e-02 1.758846e-02 2.308748e-02 2.169151e-02 2.586963e-02 2.260277e-02 2.652374e-02 2.226753e-02 2.518169e-02 2.026184e-02 2.045870e-02 1.995829e-02 2.134100e-02 2.068435e-02 2.167388e-02 2.124678e-02 2.171774e-02 2.167902e-02 2.161181e-02 2.200810e-02 2.149320e-02 2.230080e-02 2.143559e-02 2.253486e-02 2.139650e-02 2.265749e-02 2.136142e-02 2.268255e-02 2.135286e-02 2.266261e-02 2.142769e-02 2.266286e-02 2.159886e-02 2.268165e-02 2.181867e-02 2.268541e-02 2.202842e-02 2.263244e-02 2.217745e-02 2.253196e-02 2.231524e-02 2.248161e-02 2.252072e-02 2.253068e-02 2.276000e-02 2.257351e-02 2.285280e-02 2.247832e-02 2.273507e-02 2.232533e-02 2.264335e-02 2.209358e-02 2.251161e-02 2.210294e-02 2.242377e-02 2.219221e-02 2.241039e-02 2.217226e-02 2.236059e-02 2.214425e-02 2.209075e-02 2.206354e-02 2.194685e-02 2.210864e-02 2.192398e-02 2.220989e-02 2.189735e-02 2.224616e-02 2.179697e-02 2.220109e-02 2.166364e-02 2.214928e-02 2.159345e-02 2.215263e-02 2.159924e-02 2.216805e-02 2.163186e-02 2.216101e-02 2.168756e-02 2.214017e-02 2.178056e-02 2.210791e-02 2.188552e-02 2.201349e-02 2.195059e-02 2.185203e-02 2.202475e-02 2.171017e-02 2.216719e-02 2.160666e-02 2.233886e-02 2.148552e-02 2.247526e-02 2.132773e-02 2.259570e-02 2.120985e-02 2.276382e-02 2.116074e-02 2.292591e-02 2.111236e-02 2.300959e-02 2.106626e-02 2.304986e-02 2.113577e-02 2.311739e-02 2.140948e-02 2.315537e-02 2.195733e-02 2.304870e-02 2.322154e-02 2.255756e-02 2.714550e-02 1.001452e-02 2.161387e-03 -5.059488e-03 -7.275650e-03 -9.739405e-03 
-1.045874e-02 -7.942030e-03 -6.915914e-03 -1.255348e-03 4.920312e-03 1.535796e-02 3.391618e-03 1.166497e-02 2.398248e-03 6.781981e-03 -1.141864e-03 -1.147956e-03 -1.126298e-02 -1.550207e-02 -2.039316e-02 -2.147605e-02 -2.276699e-02 -2.321791e-02 -2.111255e-02 -2.049776e-02 -1.565703e-02 -9.734098e-03 -1.754963e-03 2.582356e-04 4.874553e-03 4.483072e-03 7.804561e-03 6.283232e-03 9.091457e-03 7.038042e-03 9.669631e-03 7.497566e-03 1.004776e-02 7.942568e-03 1.026476e-02 8.269117e-03 1.024708e-02 8.472858e-03 1.008471e-02 8.630389e-03 9.915100e-03 8.872220e-03 9.873133e-03 9.218055e-03 9.922566e-03 9.565877e-03 9.964299e-03 9.784254e-03 9.852351e-03 9.746310e-03 9.574831e-03 9.603265e-03 9.390389e-03 9.643520e-03 9.505825e-03 9.940449e-03 9.773853e-03 1.023178e-02 9.815721e-03 1.028904e-02 9.676358e-03 9.971361e-03 1.030776e-02 1.036217e-02 1.063249e-02 1.100036e-02 1.064563e-02 1.057962e-02 1.027335e-02 9.298762e-03 9.435703e-03 8.966037e-03 9.417591e-03 9.163150e-03 1.001369e-02 9.648105e-03 1.064033e-02 9.907483e-03 1.092261e-02 9.816570e-03 1.088519e-02 9.579716e-03 1.078570e-02 9.504210e-03 1.080152e-02 9.636237e-03 1.082314e-02 9.852584e-03 1.076510e-02 1.014176e-02 1.065940e-02 1.052051e-02 1.051365e-02 1.089473e-02 1.021815e-02 1.111877e-02 9.808772e-03 1.130261e-02 9.537120e-03 1.156577e-02 9.477445e-03 1.177795e-02 9.498804e-03 1.173681e-02 9.544210e-03 1.148413e-02 9.821699e-03 1.122218e-02 1.039128e-02 1.083095e-02 1.098541e-02 1.014961e-02 1.152295e-02 9.379442e-03 1.221201e-02 8.826086e-03 1.307107e-02 8.450816e-03 1.383435e-02 8.264860e-03 1.448659e-02 9.052852e-03 1.500367e-02 1.431365e-02 -1.510720e-03 -3.289119e-03 -9.079689e-03 -8.458967e-03 
-3.445323e-03 -2.756789e-04 -1.839076e-03 2.842805e-03 1.477680e-03 7.388021e-03 -8.711673e-03 2.348596e-03 -4.227625e-03 1.313867e-03 5.172077e-05 1.152662e-03 5.435293e-03 2.927221e-04 1.395806e-03 -2.560786e-03 6.748763e-04 -3.318947e-03 1.127412e-03 -2.071530e-03 3.130021e-03 2.638732e-03 2.140679e-03 1.590696e-04 9.167046e-04 -1.050924e-03 3.272920e-04 -1.689340e-03 -4.330491e-05 -2.011692e-03 -2.856277e-04 -2.070117e-03 -4.055825e-04 -1.935678e-03 -4.950841e-04 -1.754366e-03 -6.340575e-04 -1.583366e-03 -8.005048e-04 -1.417098e-03 -9.427461e-04 -1.226062e-03 -1.014012e-03 -1.012565e-03 -1.020778e-03 -8.048667e-04 -9.894936e-04 -6.505172e-04 -9.897368e-04 -6.168797e-04 -1.054462e-03 -6.541881e-04 -1.079561e-03 -6.037669e-04 -9.472422e-04 -3.915287e-04 -7.294711e-04 -6.893286e-05 -8.561496e-04 -1.547107e-04 -8.964947e-04 -7.762885e-04 -6.692760e-04 -1.023070e-03 -1.072884e-03 -8.393466e-04 -1.411886e-03 -1.325498e-03 -1.324722e-03 -1.941210e-03 -1.691270e-03 -2.124167e-03 -1.858178e-03 -1.725191e-03 -1.139336e-03 -1.137025e-03 -5.164209e-04 -8.255066e-04 -1.738130e-04 -7.621379e-04 -4.739604e-05 -7.874924e-04 6.610061e-06 -7.348988e-04 6.858196e-05 -5.733407e-04 8.912812e-05 -3.547975e-04 2.738451e-05 -8.742125e-05 -9.451896e-05 2.336495e-04 -2.607046e-04 5.561438e-04 -5.009850e-04 8.034331e-04 -7.776115e-04 1.000954e-03 -9.614185e-04 1.180477e-03 -9.923912e-04 1.269650e-03 -9.066473e-04 1.163066e-03 -7.201141e-04 8.632238e-04 -3.511464e-04 4.481222e-04 2.108877e-04 -1.163269e-04 8.341114e-04 -8.587062e-04 1.452880e-03 -1.641653e-03 2.086659e-03 -2.294623e-03 2.611211e-03 -2.793045e-03 2.687083e-03 -3.080346e-03 1.780095e-03 -2.784075e-03 -1.899560e-03 5.070760e-03 -2.304153e-03 5.623300e-04 -3.516030e-03 -9.662755e-04 
