# vtk DataFile Version 2.0
Comment goes here
ASCII

DATASET STRUCTURED_POINTS
FIELD FieldData 1
TIME 1 1 double
0.32000000
DIMENSIONS    128   16   1

ORIGIN    0.000   0.000   0.000
SPACING   0.0078125 0.015625   1.000

POINT_DATA   2048
SCALARS uY double
LOOKUP_TABLE default

1.330056e-05 1.071477e-05 8.882110e-06 7.917561e-06 4.745933e-06 2.569246e-06 -2.820809e-06 -1.601566e-05 -2.277628e-05 -3.195077e-05 -2.559633e-05 -2.992265e-05 -2.318509e-05 -3.490599e-05 -2.800598e-05 -3.675227e-05 -3.377359e-05 -2.950414e-05 -3.597744e-05 -1.965806e-05 -3.412894e-05 -4.497801e-06 -2.178835e-05 2.872423e-05 -2.143977e-06 5.476396e-05 1.667301e-05 8.278042e-05 4.231202e-05 1.048423e-04 4.430745e-05 8.562423e-05 1.252265e-05 5.401113e-05 4.486865e-06 6.918527e-05 3.321285e-05 7.013776e-05 -9.200292e-07 -1.211918e-05 -8.304696e-05 -7.824353e-05 -8.878497e-05 -4.715057e-05 1.796238e-06 5.563967e-05 1.317240e-04 1.547769e-04 2.251429e-04 2.063106e-04 2.846810e-04 2.463446e-04 3.345421e-04 2.396004e-04 3.055487e-04 1.718391e-04 4.948725e-04 6.300262e-07 3.048747e-04 -4.704315e-04 -1.108080e-03 -3.889738e-06 -1.260235e-03 -1.413691e-03 -3.203171e-04 -1.416732e-03 -1.139930e-03 -1.465442e-05 -1.161798e-03 -3.707559e-04 1.394769e-04 -5.592004e-04 3.500074e-04 5.576961e-04 7.450409e-04 7.088551e-04 7.277494e-04 6.664964e-04 5.618003e-04 4.490260e-04 2.931391e-04 2.011076e-04 7.586060e-05 5.346970e-05 -1.841970e-05 1.620120e-05 -2.133907e-05 4.659523e-05 2.029951e-05 7.925158e-05 2.869624e-05 5.286219e-05 -1.168426e-05 3.380203e-06 -4.479285e-05 -3.093622e-05 -6.356952e-05 -4.755980e-05 -5.473394e-05 -2.991247e-05 -2.191155e-05 -7.675378e-06 -1.119796e-05 -1.861119e-05 -2.784462e-05 -3.714713e-05 -4.278321e-05 -5.928735e-05 -8.066610e-05 -1.154542e-04 -1.333794e-04 -1.384069e-04 -1.112973e-04 -7.883033e-05 -3.299976e-05 -4.376771e-06 2.753140e-05 3.890984e-05 5.370440e-05 4.665631e-05 4.840866e-05 3.553776e-05 3.878943e-05 2.674605e-05 2.869347e-05 2.001862e-05 1.981665e-05 1.439412e-05 
6.753240e-04 1.185828e-03 2.902660e-03 1.625258e-03 2.994976e-03 -6.092059e-03 -1.016330e-03 5.559439e-03 3.117362e-03 8.287651e-03 8.996816e-03 1.768076e-02 2.297604e-02 2.437995e-02 1.121919e-02 6.826257e-03 2.574746e-03 -2.778513e-03 -6.772036e-03 -1.171399e-02 -2.446845e-02 -2.413088e-02 -1.540356e-02 -1.018666e-02 -6.111483e-03 -4.188738e-03 -2.458319e-03 -1.730969e-03 -8.933240e-04 -6.764903e-04 -1.954712e-04 -2.534364e-04 9.081475e-05 -1.223193e-04 1.960680e-04 -7.696666e-05 2.416686e-04 -8.343978e-05 1.969966e-04 -1.595587e-04 1.082076e-04 -1.736998e-04 1.249040e-04 -7.454197e-05 2.034169e-04 3.187965e-05 2.226037e-04 1.247329e-05 7.796491e-05 -1.881271e-04 -2.493087e-04 -5.918623e-04 -8.857753e-04 -1.462849e-03 -2.150932e-03 -2.024607e-03 -6.902256e-04 5.219631e-03 9.390681e-03 -6.795098e-03 -6.205262e-03 1.498380e-02 2.978563e-03 -2.593151e-03 7.493978e-03 -6.165261e-03 -4.593521e-03 3.999220e-04 -1.664250e-02 -5.765520e-03 1.043171e-02 2.437181e-03 -1.561012e-03 3.357206e-04 6.687259e-04 8.287007e-04 6.330197e-04 7.464804e-04 5.299940e-04 5.417424e-04 3.228690e-04 2.801235e-04 1.557927e-04 8.401172e-05 1.032399e-04 -1.947345e-05 1.558577e-04 -3.610286e-05 2.708003e-04 -5.572457e-05 3.111384e-04 -1.533037e-04 2.681299e-04 -2.340679e-04 2.446669e-04 -2.241750e-04 2.099779e-04 -1.819058e-04 1.117147e-04 -1.188236e-04 -3.341146e-05 -2.083878e-06 -1.758421e-04 1.831693e-04 -2.926003e-04 4.032180e-04 -4.269202e-04 5.342842e-04 -6.510073e-04 5.146278e-04 -8.669628e-04 4.893168e-04 -8.826002e-04 4.726660e-04 -7.481131e-04 2.820303e-04 -5.519896e-04 -2.490283e-04 -2.734920e-04 -1.405094e-03 2.334057e-04 -3.932449e-03 5.925119e-03 9.630472e-04 -1.899826e-03 -1.374912e-03 -1.490513e-03 -3.139187e-04 
9.039048e-04 2.979615e-03 5.869353e-03 6.626299e-03 8.788224e-03 -2.025395e-02 -9.243280e-03 9.126735e-03 -2.429199e-03 7.996656e-03 -8.047967e-04 1.063944e-02 -1.509394e-03 -8.073153e-03 -5.641046e-03 -1.505008e-03 -1.446298e-03 9.148569e-04 2.465049e-03 3.951514e-03 9.310138e-03 -1.774969e-03 -4.895846e-03 -2.522422e-03 -2.459939e-03 -1.199697e-03 -1.278526e-03 -6.706844e-04 -5.582949e-04 -2.989941e-04 -2.186897e-05 -1.391088e-04 2.140436e-04 -1.985055e-04 2.988418e-04 -1.805511e-04 4.338424e-04 -1.753547e-04 3.368420e-04 -3.894785e-04 1.118659e-04 -3.947931e-04 2.206894e-04 -9.725669e-05 4.453563e-04 1.823272e-04 5.032069e-04 1.327952e-04 1.438184e-04 -3.048036e-04 -4.306937e-04 -7.216141e-04 -8.481738e-04 -9.050764e-04 -8.556720e-04 1.450875e-03 2.182188e-03 1.096146e-03 7.215328e-03 -4.589978e-03 -7.385926e-03 1.327989e-02 -1.391235e-03 -5.516096e-03 9.265953e-03 -6.519468e-03 -2.641823e-03 7.126345e-03 -1.256213e-02 -2.789451e-03 9.659020e-03 -9.163215e-04 -1.627455e-03 5.082676e-04 5.995879e-05 3.913770e-04 -3.227910e-05 3.839457e-04 7.487148e-05 3.111859e-04 2.500688e-05 9.560764e-05 -4.043594e-05 -9.013696e-05 1.249698e-05 -2.126076e-04 1.837114e-04 -1.634962e-04 5.253215e-04 -1.274537e-04 6.159218e-04 -3.922852e-04 4.556891e-04 -5.661534e-04 4.937202e-04 -4.319685e-04 5.142013e-04 -3.155648e-04 3.003300e-04 -2.497291e-04 -6.731886e-05 -7.636510e-05 -3.864766e-04 3.191828e-04 -5.390233e-04 9.001404e-04 -7.035299e-04 1.214360e-03 -1.236797e-03 1.034791e-03 -1.847515e-03 9.528012e-04 -1.882436e-03 1.017917e-03 -1.665623e-03 6.890958e-04 -1.400074e-03 -1.482867e-04 -7.941584e-04 -1.935344e-03 8.145302e-04 -6.625800e-03 1.898306e-02 1.590940e-04 -9.831966e-03 -2.465439e-03 -3.614544e-03 -3.855452e-05 
1.977064e-03 8.388056e-03 1.619556e-02 2.527789e-02 3.600950e-02 -9.339723e-03 -8.712255e-03 3.352747e-03 -6.459117e-03 1.430833e-03 -6.344647e-03 -2.055474e-03 -5.306530e-03 6.232894e-03 -6.347707e-04 2.338383e-03 -7.244925e-04 7.416067e-04 -1.126680e-03 -8.564776e-04 -3.162031e-03 3.284736e-03 4.252169e-03 2.801511e-03 2.134465e-03 1.500041e-03 9.495610e-04 7.626625e-04 6.408289e-04 6.352072e-04 8.351963e-04 4.924272e-04 7.946282e-04 6.814743e-05 7.256362e-04 -1.498201e-05 9.616878e-04 -7.678435e-05 7.043958e-04 -6.291001e-04 2.434315e-04 -6.914665e-04 5.130311e-04 -1.087214e-04 1.013080e-03 4.665919e-04 1.228587e-03 4.439848e-04 6.485453e-04 -2.798734e-04 -1.148006e-04 -5.293265e-04 2.165963e-04 4.070798e-04 1.390390e-03 1.008621e-03 4.592688e-04 -2.256466e-03 -4.245238e-03 4.300465e-03 3.906539e-03 -9.097548e-03 -1.808805e-03 1.336024e-03 -6.530999e-03 3.955378e-03 1.557847e-03 -6.115778e-04 9.448767e-03 3.835658e-03 -5.886310e-03 -1.288004e-03 6.082318e-04 1.357747e-04 -4.579619e-04 7.871591e-05 -1.922746e-04 4.527024e-04 5.855694e-05 4.437870e-04 -7.799467e-06 1.126378e-04 -1.077973e-04 -1.498303e-04 3.882266e-05 -3.202453e-04 3.728392e-04 -1.671551e-04 1.062189e-03 -3.802385e-05 1.188458e-03 -6.417481e-04 7.514258e-04 -1.028099e-03 8.625876e-04 -7.442546e-04 9.677511e-04 -5.934248e-04 5.829866e-04 -6.240489e-04 -7.827866e-05 -4.531617e-04 -5.543218e-04 2.377428e-04 -5.448498e-04 1.412915e-03 -5.329989e-04 2.001708e-03 -1.412790e-03 1.559891e-03 -2.512501e-03 1.512470e-03 -2.368306e-03 2.037821e-03 -1.787433e-03 2.060079e-03 -1.133220e-03 1.760279e-03 1.722206e-04 7.107316e-04 2.362089e-03 -3.423880e-03 1.416438e-02 -3.449566e-02 -3.742321e-02 -1.569852e-02 -1.106054e-02 -2.405244e-03 
1.369382e-03 8.588740e-03 1.621732e-02 2.804346e-02 4.124510e-02 2.489339e-02 7.356352e-03 6.158177e-04 -5.635868e-04 3.388183e-03 4.134782e-05 5.454643e-03 1.678855e-03 1.232000e-04 -1.551118e-04 3.828417e-04 -2.216458e-04 2.316551e-04 -2.097368e-04 -4.064558e-05 -9.309610e-05 -2.835832e-03 -3.427056e-03 -8.661409e-04 -1.702383e-03 1.218000e-04 -1.165116e-03 3.012952e-04 -6.854282e-04 4.730842e-04 -1.465364e-04 4.489692e-04 7.865689e-05 1.445513e-04 2.337218e-04 4.827330e-05 5.443185e-04 -6.701839e-05 4.430843e-04 -5.186445e-04 2.047466e-04 -6.191894e-04 4.124254e-04 -2.895629e-04 7.250906e-04 2.141878e-05 7.940206e-04 -1.040986e-04 2.354011e-04 -7.974130e-04 -5.653712e-04 -1.296002e-03 -8.088134e-04 -1.348624e-03 -9.339239e-04 -1.891752e-03 -8.919486e-05 4.300504e-03 4.636772e-03 -1.992103e-03 -3.096766e-04 6.565896e-03 2.242374e-03 6.653103e-05 2.491589e-03 -1.400554e-03 -1.092050e-03 -7.267377e-05 -6.223041e-03 -1.584691e-03 3.685296e-03 3.141818e-03 -1.348378e-03 -1.153879e-03 -1.370081e-03 -5.458280e-04 -7.430432e-04 4.755723e-06 -3.288002e-04 1.486093e-04 -2.267356e-04 -1.778268e-05 -1.873632e-04 -1.562639e-04 3.372071e-05 -2.392360e-04 3.709770e-04 -1.417800e-04 9.080212e-04 -8.398989e-05 1.026336e-03 -5.599503e-04 7.203779e-04 -8.813173e-04 7.815281e-04 -7.421071e-04 8.202577e-04 -6.914737e-04 5.159146e-04 -7.448345e-04 4.000738e-05 -6.222633e-04 -2.770458e-04 -8.468204e-05 -2.206721e-04 8.137168e-04 -1.866975e-04 1.272588e-03 -8.174746e-04 1.014517e-03 -1.618991e-03 1.015964e-03 -1.600986e-03 1.398561e-03 -1.340181e-03 1.423009e-03 -1.112069e-03 1.255872e-03 -6.762207e-04 8.358222e-04 -4.197096e-04 6.211669e-04 -9.536425e-03 -4.914372e-02 -3.763619e-02 -2.134285e-02 -1.246145e-02 -4.778399e-03 
7.559965e-04 3.570484e-03 7.433980e-03 1.101822e-02 1.672793e-02 2.214513e-02 1.242025e-02 2.527088e-03 3.869667e-03 5.105983e-03 4.394149e-03 1.101884e-02 6.427918e-03 8.223021e-05 -1.780293e-04 4.088317e-04 -2.584364e-04 2.486101e-04 -2.380839e-04 -1.846119e-05 -1.995594e-05 -6.572446e-03 -8.154740e-03 -4.015718e-03 -3.923300e-03 -1.635561e-03 -1.984057e-03 -5.668427e-04 -9.356432e-04 -5.767232e-05 -3.282689e-04 1.249501e-04 -2.602818e-06 1.140984e-04 1.991089e-04 6.069056e-05 3.402905e-04 -3.404746e-05 3.628979e-04 -1.625417e-04 3.683278e-04 -1.997234e-04 4.268191e-04 -1.389879e-04 4.888653e-04 -7.112436e-05 4.719415e-04 -9.402304e-05 2.915301e-04 -2.552544e-04 -1.785688e-05 -4.621835e-04 -3.996349e-04 -6.580563e-04 -1.001537e-04 3.151189e-03 4.352396e-03 -3.999252e-03 5.115514e-03 -2.826913e-03 -1.240423e-02 1.261355e-02 -3.464549e-03 -9.900823e-03 1.143888e-02 -8.613648e-03 -3.633980e-03 1.062964e-02 -1.279701e-02 -2.172231e-03 9.133561e-03 -3.852345e-03 -1.953431e-03 2.532375e-03 1.316790e-03 1.658939e-03 6.134253e-04 9.752526e-04 3.505041e-04 6.013519e-04 2.083228e-04 3.189821e-04 1.581597e-04 1.319004e-04 2.253716e-04 1.968579e-05 3.627485e-04 -5.019477e-05 5.166951e-04 -1.324594e-04 5.747203e-04 -3.007203e-04 5.253292e-04 -4.300583e-04 4.906603e-04 -4.621365e-04 4.199753e-04 -4.635588e-04 2.679718e-04 -4.305836e-04 8.008351e-05 -3.058793e-04 -6.741469e-05 -4.676432e-05 -1.367864e-04 2.836643e-04 -2.354825e-04 4.895893e-04 -4.703648e-04 5.235090e-04 -7.247666e-04 5.122452e-04 -8.424665e-04 4.473032e-04 -9.175998e-04 1.488613e-04 -1.067741e-03 -4.718781e-04 -1.418329e-03 -1.411948e-03 -2.352452e-03 -1.592661e-03 -1.354718e-02 -2.493200e-02 -1.389852e-02 -1.162357e-02 -5.889382e-03 -3.541548e-03 
6.798102e-04 2.842905e-03 5.239333e-03 7.114119e-03 8.817812e-03 9.352186e-03 7.616653e-03 6.749036e-03 5.672453e-03 9.060570e-03 8.492726e-03 1.760307e-02 1.500606e-02 1.132561e-04 -3.117852e-05 1.006122e-04 -6.251141e-05 6.952632e-05 -6.841160e-05 1.408457e-05 -7.065305e-05 -1.244461e-02 -1.451609e-02 -7.847761e-03 -7.482403e-03 -3.917115e-03 -4.030695e-03 -1.907657e-03 -2.115663e-03 -8.474620e-04 -1.042151e-03 -3.407787e-04 -4.551955e-04 -1.449723e-04 -1.254592e-04 -8.350626e-05 7.025695e-05 -9.771684e-05 1.494774e-04 -1.596741e-04 1.794266e-04 -1.795958e-04 2.349192e-04 -1.363716e-04 2.908722e-04 -9.148632e-05 2.851775e-04 -1.201949e-04 1.571779e-04 -2.654352e-04 -9.680188e-05 -4.980176e-04 -4.184851e-04 -6.190986e-04 -4.975647e-06 2.005223e-03 2.269551e-03 -5.277817e-03 3.681492e-04 2.063636e-03 -5.554317e-03 2.916861e-03 -1.733231e-04 -3.278472e-03 3.351410e-03 -3.046604e-03 -3.321448e-03 1.524889e-03 -5.143107e-03 -1.900011e-04 1.320124e-03 -5.095940e-03 1.192757e-04 4.083371e-03 2.760806e-03 2.627289e-03 1.497244e-03 1.538528e-03 8.789192e-04 9.240636e-04 5.272828e-04 5.220412e-04 3.460654e-04 2.653388e-04 3.004177e-04 1.091490e-04 3.415515e-04 1.749358e-05 4.171760e-04 -6.771851e-05 4.387977e-04 -1.944073e-04 3.956737e-04 -2.951421e-04 3.542017e-04 -3.268820e-04 2.912216e-04 -3.261094e-04 1.771667e-04 -2.943657e-04 3.682994e-05 -1.979800e-04 -8.160563e-05 -1.821595e-05 -1.612007e-04 1.999748e-04 -2.611577e-04 3.396827e-04 -4.451713e-04 3.559577e-04 -6.520094e-04 3.193604e-04 -7.892738e-04 2.109275e-04 -9.286597e-04 -1.115768e-04 -1.185771e-03 -7.798078e-04 -1.685857e-03 -1.990246e-03 -2.674567e-03 -4.027156e-03 -5.382562e-03 -9.727308e-03 -7.006050e-03 -6.568319e-03 -3.764544e-03 -2.022281e-03 
2.655642e-04 1.002116e-03 2.026252e-03 2.890031e-03 3.453870e-03 4.265956e-03 3.474932e-03 3.276678e-03 2.876079e-03 4.364588e-03 4.202372e-03 8.960984e-03 7.634060e-03 5.590912e-05 -3.224472e-05 7.107098e-05 -5.364304e-05 5.424864e-05 -5.038209e-05 1.649741e-05 -3.248660e-05 -6.006123e-03 -7.026426e-03 -3.709943e-03 -3.559197e-03 -1.869960e-03 -1.885628e-03 -9.010796e-04 -9.489028e-04 -3.803345e-04 -4.334141e-04 -1.276706e-04 -1.546892e-04 -2.342542e-05 -7.707666e-07 8.402125e-06 8.483566e-05 1.882039e-06 1.232376e-04 -2.273488e-05 1.391979e-04 -4.009912e-05 1.518500e-04 -4.207682e-05 1.592798e-04 -4.379255e-05 1.424903e-04 -7.721859e-05 6.506822e-05 -1.974025e-04 -1.336019e-04 -4.848706e-04 -5.103071e-04 -9.571893e-04 -8.847677e-04 -1.119534e-03 -3.370269e-04 -7.814541e-04 6.362104e-04 -1.577569e-04 -2.073919e-03 1.458266e-03 3.153100e-04 -5.669458e-04 1.049640e-03 -1.244364e-03 -1.576715e-03 -6.530005e-04 -3.148651e-03 -7.854214e-04 7.231209e-04 -6.038903e-04 4.876355e-04 1.335318e-03 1.183173e-03 1.250104e-03 9.163966e-04 9.671102e-04 6.713373e-04 6.868315e-04 4.685262e-04 4.527968e-04 3.341041e-04 2.829753e-04 2.681594e-04 1.683588e-04 2.490203e-04 8.808468e-05 2.476653e-04 1.952180e-05 2.354592e-04 -5.139105e-05 2.030320e-04 -1.134221e-04 1.604443e-04 -1.544439e-04 1.094297e-04 -1.724390e-04 5.166217e-05 -1.633116e-04 -4.839462e-06 -1.226776e-04 -5.188771e-05 -5.351885e-05 -8.896495e-05 2.590286e-05 -1.301701e-04 8.446684e-05 -1.883621e-04 1.051572e-04 -2.549245e-04 8.774903e-05 -3.214300e-04 1.475474e-05 -4.154298e-04 -1.591227e-04 -5.907544e-04 -4.843978e-04 -9.267187e-04 -1.027624e-03 -1.565169e-03 -1.940723e-03 -2.770473e-03 -3.939643e-03 -2.739446e-03 -2.847476e-03 -1.449732e-03 -1.009909e-03 
-6.169716e-06 -6.563762e-06 -9.469216e-06 -9.820862e-06 -1.303790e-05 -1.291849e-05 -1.667241e-05 -1.513574e-05 -1.741319e-05 -1.397015e-05 -1.323333e-05 -1.000189e-05 -8.913637e-06 -1.915665e-06 4.729706e-07 -1.127032e-06 9.639243e-07 -1.170019e-07 1.955713e-06 1.284962e-06 3.809646e-06 1.986515e-05 -2.636106e-05 2.009417e-05 -2.231546e-05 2.624391e-05 -1.463629e-05 3.578522e-05 -1.590570e-06 4.530605e-05 1.019478e-05 4.832460e-05 1.858443e-05 4.955108e-05 3.224157e-05 5.604757e-05 4.779384e-05 5.405981e-05 4.587579e-05 3.274246e-05 3.172114e-05 1.301806e-05 3.107680e-05 1.477282e-05 5.162146e-05 3.223198e-05 7.734967e-05 3.971622e-05 7.852421e-05 4.488906e-06 2.681717e-05 -1.000994e-04 -8.625602e-05 -2.601907e-04 -1.757400e-04 -3.523673e-04 -1.501894e-04 -8.426518e-04 -4.770859e-04 -2.165233e-04 -1.121304e-03 -3.417231e-04 -8.365578e-04 -9.606947e-04 -4.636609e-04 -9.479974e-04 -9.546830e-04 -3.646102e-04 -8.731636e-04 -3.376010e-04 -1.962084e-04 -5.524263e-04 3.196424e-04 7.012401e-04 8.822917e-04 9.776513e-04 8.942881e-04 8.873843e-04 7.321039e-04 6.835248e-04 5.344808e-04 4.815098e-04 3.710701e-04 3.305797e-04 2.646822e-04 2.351990e-04 2.045571e-04 1.768718e-04 1.673544e-04 1.303270e-04 1.277178e-04 7.630030e-05 7.624783e-05 1.756939e-05 2.274702e-05 -3.441454e-05 -2.228237e-05 -6.975990e-05 -4.907523e-05 -8.242789e-05 -5.705206e-05 -7.930449e-05 -5.629921e-05 -7.064371e-05 -5.166101e-05 -5.767038e-05 -4.266141e-05 -4.317225e-05 -3.469428e-05 -3.246261e-05 -2.677036e-05 -1.688324e-05 -7.379008e-06 9.230733e-06 1.858223e-05 3.295837e-05 3.577797e-05 4.232629e-05 3.712531e-05 3.559282e-05 2.535822e-05 2.086963e-05 1.182719e-05 9.095788e-06 2.865904e-06 1.750512e-06 -2.474449e-06 -2.976029e-06 
-2.796753e-04 -1.017387e-03 -2.046300e-03 -2.911965e-03 -3.481198e-03 -4.294191e-03 -3.510723e-03 -3.307004e-03 -2.909814e-03 -4.387995e-03 -4.224305e-03 -8.973239e-03 -7.646174e-03 -5.920596e-05 3.124895e-05 -7.460660e-05 5.264560e-05 -5.642890e-05 5.085741e-05 -1.544131e-05 3.601284e-05 6.072961e-03 6.982190e-03 3.768674e-03 3.517327e-03 1.931062e-03 1.852710e-03 9.743954e-04 9.403417e-04 4.700190e-04 4.497211e-04 2.233289e-04 1.895475e-04 1.223375e-04 6.650928e-05 1.060875e-04 1.617939e-05 1.112031e-04 -2.513182e-05 9.248452e-05 -7.297431e-05 6.326564e-05 -1.012651e-04 4.961168e-05 -9.720823e-05 5.149707e-05 -7.554900e-05 4.460102e-05 -7.015398e-05 -3.613992e-06 -1.074571e-04 -1.060629e-04 -1.868729e-04 -2.419037e-04 -2.612045e-04 -3.258630e-04 -2.407140e-04 -3.005306e-04 -2.350586e-04 -2.254999e-04 -4.984457e-04 -1.943540e-04 -4.175842e-04 -5.107348e-04 -4.331130e-04 -6.912041e-04 -7.038559e-04 -6.044049e-04 -6.976911e-04 -4.387285e-04 -1.259028e-04 -1.677367e-04 2.202534e-04 2.465218e-04 4.667704e-04 4.156554e-04 5.106659e-04 4.235192e-04 4.411821e-04 3.521899e-04 3.236372e-04 2.663318e-04 2.111616e-04 2.102182e-04 1.300136e-04 1.898646e-04 7.456823e-05 1.890959e-04 3.065318e-05 1.878931e-04 -1.641417e-05 1.670983e-04 -7.374402e-05 1.223643e-04 -1.320112e-04 6.361059e-05 -1.705879e-04 1.203905e-05 -1.671433e-04 -2.097856e-05 -1.259939e-04 -5.266534e-05 -7.517899e-05 -9.992776e-05 -2.380928e-05 -1.461850e-04 4.375494e-05 -1.657865e-04 1.279434e-04 -1.554457e-04 2.176640e-04 -1.029162e-04 3.232687e-04 1.882790e-05 4.630128e-04 2.326829e-04 6.654410e-04 5.695462e-04 9.975813e-04 1.093013e-03 1.606612e-03 1.972310e-03 2.782894e-03 3.949738e-03 2.738051e-03 2.846171e-03 1.441176e-03 1.001160e-03 
-6.937184e-04 -2.857406e-03 -5.257275e-03 -7.134402e-03 -8.843473e-03 -9.381226e-03 -7.661064e-03 -6.792087e-03 -5.726054e-03 -9.099105e-03 -8.521812e-03 -1.761044e-02 -1.500618e-02 -1.184241e-04 3.047032e-05 -1.038294e-04 6.243561e-05 -7.132810e-05 6.894282e-05 -1.519099e-05 7.207306e-05 1.246960e-02 1.445518e-02 7.884947e-03 7.427971e-03 3.959500e-03 3.982559e-03 1.980584e-03 2.118238e-03 9.646237e-04 1.076890e-03 4.456063e-04 4.726636e-04 2.247236e-04 1.844699e-04 2.320070e-04 9.800293e-05 2.863099e-04 -5.259344e-06 2.226835e-04 -1.659905e-04 1.233798e-04 -2.555421e-04 1.005936e-04 -2.214379e-04 1.605053e-04 -1.100469e-04 2.211135e-04 -4.213275e-05 1.755808e-04 -7.906203e-05 4.112019e-05 -1.572734e-04 -9.344022e-05 -2.004916e-04 -1.751010e-04 -2.044962e-04 -2.287814e-04 -2.504433e-04 -2.349196e-04 -3.930099e-04 -3.759723e-04 -5.081273e-04 -6.238183e-04 -5.522004e-04 -6.803687e-04 -5.250017e-04 -5.197213e-04 -3.188108e-04 -3.362406e-04 6.538640e-07 -1.809630e-04 2.162493e-04 2.271740e-05 3.526268e-04 1.571211e-04 4.264107e-04 2.434432e-04 4.157342e-04 2.399799e-04 2.911277e-04 1.762712e-04 1.390829e-04 1.624286e-04 4.155530e-05 2.148785e-04 -2.069760e-05 2.929993e-04 -6.892119e-05 3.617883e-04 -1.329116e-04 3.684955e-04 -2.327064e-04 3.053394e-04 -3.406969e-04 1.932010e-04 -4.071799e-04 9.715767e-05 -3.495560e-04 6.705795e-05 -1.853607e-04 1.752597e-05 -4.630613e-05 -1.401410e-04 4.062282e-05 -3.212418e-04 1.801238e-04 -4.107676e-04 3.760082e-04 -4.403715e-04 5.525642e-04 -3.952911e-04 7.482738e-04 -1.827967e-04 1.001096e-03 2.351766e-04 1.320929e-03 9.289468e-04 1.812470e-03 2.093147e-03 2.732117e-03 4.056987e-03 5.388004e-03 9.728045e-03 6.997394e-03 6.561328e-03 3.753015e-03 2.011808e-03 
-7.686331e-04 -3.585414e-03 -7.448888e-03 -1.104143e-02 -1.675015e-02 -2.218902e-02 -1.249687e-02 -2.592051e-03 -3.940604e-03 -5.146042e-03 -4.415135e-03 -1.099228e-02 -6.390157e-03 -8.078563e-05 1.710232e-04 -4.188467e-04 2.515409e-04 -2.583135e-04 2.325000e-04 5.971899e-06 1.202353e-05 6.645345e-03 8.112529e-03 4.080940e-03 3.865802e-03 1.663990e-03 1.894435e-03 6.258858e-04 9.264638e-04 1.900130e-04 3.714988e-04 -1.622756e-05 -8.689708e-06 -6.045953e-05 -1.457689e-04 1.278002e-04 -7.949189e-05 3.228221e-04 -1.398196e-04 2.556437e-04 -3.557897e-04 1.103890e-04 -4.764087e-04 8.268770e-05 -4.241043e-04 1.680201e-04 -2.639636e-04 2.531989e-04 -1.759432e-04 1.757852e-04 -2.428603e-04 -9.991564e-06 -3.308451e-04 -1.328384e-04 -2.876300e-04 -9.036436e-05 -8.339427e-05 8.190124e-05 1.529974e-04 1.181072e-04 5.010906e-05 1.254635e-04 -6.049402e-05 -3.158600e-04 -2.130729e-04 -5.610576e-04 -3.985333e-04 -5.067713e-04 -3.601217e-04 -4.392540e-04 3.698930e-05 -3.147124e-04 6.902815e-05 -3.121890e-04 6.271750e-05 -2.677152e-04 1.265642e-04 -1.366577e-04 1.729643e-04 -6.920042e-05 7.567111e-05 -8.119867e-05 -5.490446e-05 -9.752902e-06 -1.086629e-04 1.385250e-04 -1.400607e-04 2.982606e-04 -1.685278e-04 4.399414e-04 -2.236091e-04 4.853066e-04 -3.445157e-04 4.172992e-04 -5.017151e-04 2.554780e-04 -6.176749e-04 1.241576e-04 -5.363770e-04 1.168267e-04 -2.860872e-04 7.933427e-05 -1.012089e-04 -1.514718e-04 -2.372215e-05 -4.268209e-04 1.510040e-04 -5.390516e-04 4.214628e-04 -5.903667e-04 6.236341e-04 -5.821941e-04 8.178304e-04 -3.783812e-04 1.040416e-03 3.896682e-05 1.266956e-03 6.828289e-04 1.591603e-03 1.533113e-03 2.392288e-03 1.574491e-03 1.349792e-02 2.490299e-02 1.387111e-02 1.160576e-02 5.873699e-03 3.528859e-03 
-1.378705e-03 -8.597716e-03 -1.621882e-02 -2.805075e-02 -4.123364e-02 -2.489418e-02 -7.428612e-03 -7.388929e-04 3.565697e-04 -3.547587e-03 -1.000681e-04 -5.347181e-03 -1.542676e-03 -1.280139e-04 1.448300e-04 -3.836027e-04 2.208417e-04 -2.307813e-04 2.066588e-04 3.185067e-05 3.843536e-05 2.755740e-03 3.362945e-03 9.526589e-04 1.642826e-03 -1.771217e-04 9.379251e-04 -2.736475e-04 7.753464e-04 -9.859494e-05 3.944443e-04 -2.827050e-04 -3.085549e-04 -4.552522e-04 -4.504128e-04 2.508811e-04 2.209673e-04 9.957450e-04 1.776163e-04 5.529629e-04 -6.365201e-04 -7.681246e-05 -1.018470e-03 -1.534488e-04 -7.808327e-04 2.717840e-04 -1.121484e-04 7.776161e-04 2.002342e-04 5.402510e-04 -2.399061e-04 -1.780467e-04 -7.913312e-04 -6.444591e-04 -8.443051e-04 -5.090902e-04 -3.437732e-04 8.479906e-05 4.518640e-04 5.988234e-04 6.603082e-04 4.856695e-04 6.170476e-05 -5.343649e-04 -4.492923e-04 -7.772238e-04 -2.998647e-04 -3.181758e-04 2.024657e-04 1.033385e-04 7.434419e-04 -8.148840e-06 1.799462e-04 -7.798077e-04 -3.979063e-04 -9.180673e-04 -8.674191e-05 -3.158303e-04 3.744892e-04 -5.178278e-05 1.208766e-04 -3.214050e-04 -2.963133e-04 -2.418836e-04 -3.037107e-04 1.201624e-04 -2.902050e-04 4.707045e-04 -2.369840e-04 8.604686e-04 -2.541903e-04 9.515395e-04 -5.193053e-04 7.971597e-04 -8.735195e-04 3.705534e-04 -1.280509e-03 1.107908e-05 -1.062865e-03 2.938649e-04 -1.942682e-04 5.337839e-04 2.005832e-04 -1.411264e-04 -3.542450e-05 -9.869405e-04 2.270961e-04 -1.074346e-03 9.137074e-04 -1.221576e-03 1.101078e-03 -1.539015e-03 1.296605e-03 -1.339560e-03 1.646521e-03 -9.681424e-04 1.591422e-03 -7.620824e-04 1.092289e-03 -5.955318e-04 4.262523e-04 -7.644429e-04 9.381575e-03 4.905093e-02 3.757352e-02 2.130693e-02 1.243720e-02 4.763384e-03 
-1.968470e-03 -8.376256e-03 -1.617716e-02 -2.525174e-02 -3.596548e-02 9.412867e-03 8.727459e-03 -3.466583e-03 6.201207e-03 -1.681465e-03 6.237451e-03 2.117935e-03 5.420204e-03 -6.188729e-03 6.174763e-04 -2.374306e-03 7.304864e-04 -7.190157e-04 1.138650e-03 7.863582e-04 2.901832e-03 -3.478923e-03 -4.350119e-03 -2.705301e-03 -2.159187e-03 -1.516930e-03 -1.127082e-03 -6.509361e-04 -4.056631e-04 -6.225168e-05 -4.326979e-04 -2.438640e-04 -1.090189e-03 -5.216893e-04 -1.104583e-03 3.376879e-04 -7.342393e-05 1.234282e-03 -2.176992e-05 5.600518e-04 -1.020273e-03 -3.407228e-04 -1.454454e-03 -4.894162e-04 -1.064145e-03 8.462753e-05 -9.074918e-05 7.927369e-04 3.700272e-04 4.811983e-04 -2.283722e-04 -4.843202e-04 -9.855630e-04 -1.080983e-03 -1.061182e-03 -8.401619e-04 -4.039343e-04 1.163166e-05 6.525200e-04 9.406169e-04 1.196514e-03 5.747047e-04 2.236461e-04 -6.030297e-04 -6.672648e-04 -8.911197e-04 -3.317187e-04 -3.925398e-04 4.338130e-04 2.804027e-04 7.773958e-04 6.321560e-05 2.644464e-05 -1.062726e-03 -7.979503e-04 -1.257275e-03 -3.168044e-04 -3.956977e-04 3.838532e-04 -2.574490e-05 6.980471e-05 -4.351043e-04 -5.083397e-04 -3.988783e-04 -5.248041e-04 3.803425e-05 -4.970132e-04 4.769614e-04 -3.929967e-04 9.829897e-04 -3.829557e-04 1.089882e-03 -6.844777e-04 9.123649e-04 -1.040537e-03 4.087971e-04 -1.473026e-03 -5.267037e-05 -1.109336e-03 3.223106e-04 1.153765e-04 6.247527e-04 6.739281e-04 -3.342503e-04 3.476242e-04 -1.528889e-03 6.601609e-04 -1.715520e-03 1.498083e-03 -1.988531e-03 1.615058e-03 -2.468389e-03 1.732981e-03 -2.172786e-03 2.042015e-03 -1.611879e-03 1.647454e-03 -1.218262e-03 3.185644e-04 -4.170608e-04 -2.306901e-03 3.327931e-03 -1.423587e-02 3.444051e-02 3.740179e-02 1.569074e-02 1.106101e-02 2.409740e-03 
-8.838376e-04 -2.959910e-03 -5.851528e-03 -6.600184e-03 -8.764476e-03 2.030903e-02 9.285533e-03 -9.168637e-03 2.313553e-03 -8.135751e-03 7.269699e-04 -1.067624e-02 1.499259e-03 8.001394e-03 5.588346e-03 1.404306e-03 1.364153e-03 -9.854039e-04 -2.546697e-03 -4.034972e-03 -9.425786e-03 1.708013e-03 4.819775e-03 2.607016e-03 2.460617e-03 1.304060e-03 1.285686e-03 8.611820e-04 7.369881e-04 6.738755e-04 2.454333e-04 3.606035e-04 -2.825965e-04 1.225872e-04 -4.328457e-04 3.805437e-04 -1.099778e-04 6.555534e-04 -1.353657e-04 3.160058e-04 -5.593378e-04 -1.170856e-04 -7.332404e-04 -2.174589e-04 -5.118351e-04 3.665734e-05 -2.037932e-05 3.528607e-04 2.392889e-04 2.267571e-04 2.454720e-05 -1.955224e-04 -2.886239e-04 -4.825985e-04 -3.621872e-04 -4.640546e-04 -2.102678e-04 -2.643768e-04 7.407840e-06 9.148230e-05 1.825966e-04 -2.944427e-04 -3.260750e-04 -6.470983e-04 -6.172076e-04 -5.741586e-04 -2.226849e-04 -2.158663e-04 3.210645e-04 1.628966e-04 3.336866e-04 3.131325e-05 1.503451e-04 -3.576293e-04 -1.467676e-04 -4.161115e-04 4.003634e-05 -7.481060e-05 2.789352e-04 4.687604e-05 7.850885e-05 -1.531834e-04 -2.499476e-04 -1.666390e-04 -3.353971e-04 3.398813e-05 -3.577604e-04 2.758677e-04 -3.300544e-04 5.328108e-04 -3.544838e-04 5.932459e-04 -5.046085e-04 5.129112e-04 -6.388577e-04 3.000020e-04 -7.509145e-04 8.344243e-05 -5.061284e-04 1.711968e-04 1.105750e-04 1.929594e-04 4.717781e-04 -3.265852e-04 4.751034e-04 -9.596083e-04 7.092230e-04 -1.195922e-03 1.134180e-03 -1.398337e-03 1.280259e-03 -1.559834e-03 1.433916e-03 -1.234910e-03 1.670584e-03 -5.717711e-04 1.593711e-03 3.710487e-04 1.030522e-03 2.107362e-03 -7.003095e-04 6.689624e-03 -1.889982e-02 -1.204704e-04 9.876121e-03 2.496714e-03 3.644010e-03 6.073793e-05 
-6.532918e-04 -1.167100e-03 -2.888451e-03 -1.609657e-03 -2.988690e-03 6.104212e-03 1.018686e-03 -5.589625e-03 -3.171459e-03 -8.356881e-03 -9.051838e-03 -1.773462e-02 -2.301898e-02 -2.444058e-02 -1.125671e-02 -6.875057e-03 -2.648567e-03 2.762923e-03 6.674400e-03 1.171123e-02 2.440593e-02 2.409109e-02 1.534121e-02 1.022269e-02 6.097469e-03 4.287667e-03 2.492332e-03 1.896278e-03 9.880383e-04 8.980579e-04 2.938875e-04 4.261886e-04 -7.040595e-05 2.179188e-04 -1.939247e-04 2.216393e-04 -1.567496e-04 2.424452e-04 -1.937577e-04 1.062090e-04 -3.324805e-04 -6.324880e-05 -3.897943e-04 -1.145056e-04 -2.914184e-04 -3.364818e-05 -1.051475e-04 5.666523e-05 2.495841e-06 1.861367e-05 -2.818191e-05 -9.805921e-05 -8.511341e-05 -1.589497e-04 -3.381240e-05 -1.195341e-05 3.767750e-04 4.984209e-04 9.836812e-04 1.767192e-05 -1.159224e-04 1.062639e-03 1.051266e-04 -5.633583e-04 -1.922861e-05 -1.480319e-03 -1.472817e-03 -1.219826e-03 -2.142314e-03 -1.164802e-03 1.399994e-04 -2.339429e-04 1.001664e-04 3.205440e-05 3.027312e-04 2.039719e-04 4.039955e-04 2.799179e-04 3.676509e-04 2.094162e-04 1.752504e-04 6.333877e-05 -3.447314e-05 2.688533e-06 -1.400616e-04 6.014944e-05 -1.701286e-04 1.739542e-04 -1.667001e-04 2.797131e-04 -1.921544e-04 3.003383e-04 -2.656253e-04 2.471373e-04 -3.304350e-04 1.533875e-04 -3.456594e-04 6.801664e-05 -2.305965e-04 4.951855e-05 -4.714547e-06 -6.790662e-06 1.652844e-04 -2.164784e-04 2.425168e-04 -4.730518e-04 3.500058e-04 -6.470002e-04 4.835292e-04 -7.724613e-04 5.573593e-04 -8.101560e-04 6.276029e-04 -6.399028e-04 6.923641e-04 -2.671450e-04 6.352128e-04 3.574990e-04 4.077732e-04 1.521544e-03 -1.187457e-04 4.020692e-03 -5.834026e-03 -9.080696e-04 1.954113e-03 1.411778e-03 1.525127e-03 3.388758e-04 
