# vtk DataFile Version 2.0
Comment goes here
ASCII

DATASET STRUCTURED_POINTS
FIELD FieldData 1
TIME 1 1 double
0.28000000
DIMENSIONS    128   16   1

ORIGIN    0.000   0.000   0.000
SPACING   0.0078125 0.015625   1.000

POINT_DATA   2048
SCALARS uY double
LOOKUP_TABLE default

-2.053568e-05 -1.022022e-05 -1.695260e-05 -7.706846e-06 -1.399376e-05 -3.189876e-06 -9.642744e-06 8.752145e-06 7.719383e-06 2.128314e-05 1.503300e-05 2.127292e-05 1.426516e-05 1.969218e-05 1.957287e-05 2.415141e-05 3.158581e-05 2.645906e-05 4.190620e-05 2.376105e-05 5.150405e-05 2.595663e-05 6.238419e-05 2.249646e-05 6.732044e-05 1.243829e-05 4.782505e-05 -3.196975e-05 1.051334e-06 -7.409341e-05 -1.268427e-05 -5.284819e-05 2.056602e-05 -2.948971e-05 2.172826e-06 -6.727298e-05 -6.953265e-05 -1.072337e-04 -9.612569e-05 -7.827069e-05 -8.165270e-05 -4.738628e-05 -1.078443e-04 -8.378500e-05 -1.878386e-04 -1.567418e-04 -2.843156e-04 -2.244085e-04 -3.185859e-04 -1.849005e-04 -2.153751e-04 -4.095204e-05 -1.069713e-04 5.650563e-06 -2.235581e-04 -1.975047e-04 -5.401671e-04 2.156358e-04 -1.015065e-03 -6.232841e-04 7.788059e-04 -2.201959e-03 -2.573871e-04 5.942307e-04 -1.821502e-03 6.650923e-04 -2.687497e-04 -1.632677e-03 9.769844e-04 -3.524170e-04 -6.633119e-04 7.191323e-04 8.319874e-04 1.044813e-03 1.071702e-03 1.311649e-03 1.194925e-03 1.124538e-03 8.961798e-04 7.244283e-04 5.579884e-04 4.253875e-04 3.630513e-04 2.778843e-04 2.726285e-04 2.031508e-04 2.128606e-04 1.389048e-04 1.338874e-04 4.404900e-05 2.919610e-05 -4.516204e-05 -3.343671e-05 -6.243394e-05 -9.071863e-06 1.000067e-05 8.019363e-05 8.226794e-05 9.131913e-05 3.646657e-05 1.595476e-05 -1.518888e-05 1.702313e-05 3.671753e-05 8.621490e-05 8.958082e-05 9.849793e-05 4.957454e-05 2.585659e-05 -1.675965e-05 -1.445502e-06 8.681277e-08 4.790564e-05 6.291107e-05 9.883625e-05 8.839261e-05 7.920094e-05 2.733474e-05 -1.016906e-05 -4.239366e-05 -5.095101e-05 -4.478318e-05 -4.978561e-05 -2.817418e-05 -3.644273e-05 -1.843482e-05 -2.649749e-05 -1.316509e-05 
-1.147270e-04 -1.185256e-03 -1.737370e-03 -1.322785e-03 -1.198795e-05 6.336710e-03 -2.358682e-03 -4.355804e-03 -4.208426e-03 -8.539324e-03 -1.010235e-02 -1.795728e-02 -2.187016e-02 -2.285182e-02 -1.178338e-02 -6.225541e-03 -2.446469e-03 2.230575e-03 6.822033e-03 1.095959e-02 2.281745e-02 2.333428e-02 1.588617e-02 1.088827e-02 6.789419e-03 4.542636e-03 2.911175e-03 1.798695e-03 1.216279e-03 6.590783e-04 5.319911e-04 2.964489e-04 2.923721e-04 1.735663e-04 7.492322e-05 2.761655e-05 -1.957288e-04 -9.463174e-05 -3.240907e-04 -2.203352e-05 -2.676407e-04 1.748427e-04 -1.629498e-04 2.634076e-04 -1.823023e-04 2.048794e-04 -3.146540e-04 3.271766e-05 -4.353720e-04 -7.383450e-05 -3.948135e-04 -1.099718e-04 -4.213932e-04 -5.322455e-04 -1.209416e-03 -2.675349e-03 -2.091390e-03 -3.705720e-03 -1.203865e-02 5.333437e-03 8.930480e-03 -2.242274e-02 -5.819594e-03 3.643965e-03 -1.238039e-02 9.677730e-03 6.208174e-03 8.160838e-04 2.875439e-02 1.050504e-02 -1.471927e-02 -5.350269e-03 2.628461e-03 1.690604e-03 8.460588e-04 9.259834e-04 8.494898e-04 8.008847e-04 5.565246e-04 4.432921e-04 1.810374e-04 2.296595e-04 3.304097e-06 2.310532e-04 -3.423000e-05 2.952057e-04 -7.398371e-05 2.977506e-04 -1.640195e-04 2.177831e-04 -2.625997e-04 1.161294e-04 -2.860567e-04 5.299185e-05 -1.833097e-04 7.580345e-05 4.483080e-05 6.116574e-05 1.619648e-04 -1.655276e-04 1.495906e-04 -4.055387e-04 2.880555e-04 -4.058454e-04 5.719261e-04 -3.492743e-04 7.059534e-04 -4.561665e-04 5.541053e-04 -6.019763e-04 3.834266e-04 -5.049632e-04 3.233206e-04 -1.478281e-04 2.416223e-04 2.628273e-04 -5.353966e-05 6.566133e-04 -5.118145e-04 1.399169e-03 -7.670325e-04 3.479854e-03 -3.485976e-03 -2.767706e-03 1.238407e-03 8.167232e-04 1.563024e-03 2.678344e-04 
-2.260283e-04 -3.372665e-03 -4.269145e-03 -6.582299e-03 -9.026345e-04 2.077750e-02 -3.204057e-04 -4.731522e-03 6.672624e-04 -5.916030e-03 -7.485933e-05 -6.746951e-03 3.174185e-03 7.015385e-03 6.527522e-03 7.097711e-04 2.133438e-03 -1.653342e-03 -1.303465e-03 -5.239717e-03 -7.241097e-03 -1.730167e-04 2.248274e-03 1.881637e-03 1.372700e-03 6.971717e-04 6.051721e-04 -4.213877e-05 1.233875e-04 -2.855340e-04 1.002830e-04 6.263785e-05 3.732083e-04 3.032780e-04 1.179330e-04 -2.583456e-05 -5.750868e-04 -4.188773e-04 -8.579451e-04 -2.190827e-04 -6.147646e-04 2.840583e-04 -2.999265e-04 4.858588e-04 -3.322530e-04 2.580997e-04 -8.410897e-04 -5.148001e-04 -1.599141e-03 -1.265549e-03 -2.002663e-03 -1.722875e-03 -2.373461e-03 -2.786186e-03 -4.328424e-03 -7.032651e-03 -3.560839e-03 5.755104e-03 -7.086156e-03 4.240411e-04 1.201964e-02 -1.447313e-02 3.802597e-03 1.026100e-02 -1.169490e-02 1.115837e-02 3.445570e-03 -9.873380e-03 1.529645e-02 1.424597e-04 -1.041602e-02 3.504619e-03 5.517605e-03 2.853934e-03 1.737290e-03 1.490978e-03 1.190123e-03 8.388774e-04 4.005714e-04 1.778943e-04 -1.880009e-04 4.999784e-05 -2.421736e-04 3.326843e-04 -1.354867e-04 5.856272e-04 -1.470143e-04 6.499220e-04 -3.044415e-04 4.844680e-04 -5.354865e-04 2.569650e-04 -6.161796e-04 8.667057e-05 -4.379397e-04 2.035643e-04 1.799609e-04 3.128434e-04 3.998783e-04 -3.473387e-04 7.993657e-05 -1.048566e-03 3.569541e-04 -8.764483e-04 1.193672e-03 -5.367840e-04 1.594420e-03 -8.329141e-04 1.076047e-03 -1.399194e-03 5.931835e-04 -1.227756e-03 6.298590e-04 -3.241910e-04 6.957363e-04 5.811083e-04 1.092635e-04 1.162894e-03 -1.032361e-03 2.504602e-03 -1.988318e-03 7.003068e-03 -1.182100e-02 -6.054185e-03 8.327739e-03 3.691361e-03 4.073354e-03 4.238422e-04 
-8.804949e-04 -9.251953e-03 -1.649648e-02 -2.748304e-02 -2.829843e-02 1.240105e-02 3.116666e-03 -2.056196e-03 5.120997e-03 -1.526311e-03 5.845134e-03 6.509268e-04 4.075607e-03 -5.285849e-03 -3.046238e-04 -1.516772e-03 -1.283869e-04 2.330557e-04 -1.216040e-04 1.996453e-03 1.374070e-03 -1.808523e-03 -2.506158e-03 -2.015245e-03 -8.952507e-04 -1.317631e-03 -4.368082e-04 -1.559788e-03 -6.398551e-04 -1.520929e-03 -9.427004e-05 -2.743119e-04 9.696681e-04 5.202293e-04 5.226607e-04 -3.209709e-04 -1.011632e-03 -1.148114e-03 -1.498984e-03 -5.111687e-04 -7.574738e-04 6.780526e-04 2.627060e-05 1.429423e-03 2.654267e-04 1.318261e-03 -5.439453e-04 1.086398e-04 -1.679230e-03 -4.855470e-04 -1.288370e-03 5.935881e-04 5.034840e-04 2.386928e-03 2.257887e-03 3.720609e-03 1.431988e-03 -6.737449e-05 4.561166e-03 -4.540551e-03 -6.285514e-03 9.527428e-03 1.450689e-03 -3.481654e-03 8.590797e-03 -5.931327e-03 -1.817809e-03 1.319195e-03 -1.316725e-02 -5.371232e-03 6.056923e-03 -3.928249e-04 -2.719659e-03 -1.325327e-03 5.846045e-04 7.232434e-04 9.810771e-04 2.670305e-04 -2.443293e-04 -7.199977e-04 -1.147889e-03 -6.332924e-04 -9.105057e-04 1.820854e-04 -5.226462e-04 7.636841e-04 -4.166344e-04 1.010892e-03 -6.016873e-04 7.328193e-04 -1.088563e-03 2.901119e-04 -1.293350e-03 4.394544e-05 -9.314074e-04 5.015369e-04 3.864749e-04 9.884374e-04 7.043514e-04 -3.931652e-04 -3.284626e-04 -1.808931e-03 1.254710e-04 -1.208166e-03 1.904403e-03 -2.797733e-04 2.708869e-03 -9.450624e-04 1.483799e-03 -2.451167e-03 3.824083e-04 -2.340252e-03 7.333325e-04 -7.112499e-04 1.266998e-03 6.472931e-04 3.035283e-04 7.609149e-04 -1.927420e-03 1.380950e-03 -3.979231e-03 4.124765e-03 -1.286702e-02 1.635836e-02 3.708576e-02 2.139238e-02 1.412306e-02 4.622861e-03 
-2.447871e-03 -1.083840e-02 -2.083730e-02 -3.179797e-02 -4.121637e-02 -1.749033e-02 3.654605e-04 -1.881837e-03 1.027228e-03 -2.821736e-03 -8.462060e-05 -4.138845e-03 -1.747200e-03 1.501205e-04 -7.683496e-05 -3.597373e-05 -1.171077e-04 1.378031e-04 -1.657112e-04 2.873608e-04 -2.210839e-04 2.715835e-03 2.021944e-03 1.546006e-03 1.417717e-03 1.620773e-04 8.252097e-04 -8.118738e-04 2.277608e-04 -1.157518e-03 4.731635e-04 -3.424598e-04 1.159957e-03 2.056738e-04 6.816608e-04 -5.039069e-04 -5.729836e-04 -1.061631e-03 -9.962147e-04 -4.909503e-04 -4.847614e-04 4.077441e-04 -2.241227e-06 1.076164e-03 1.594038e-04 1.042508e-03 -4.985706e-04 1.674989e-04 -1.348939e-03 -2.033336e-04 -9.949379e-04 5.999774e-04 4.418811e-04 1.857591e-03 1.776103e-03 1.910683e-03 3.259266e-04 -4.775632e-03 -6.296662e-03 1.555972e-03 4.355029e-05 -8.926895e-03 -2.514512e-03 8.598709e-05 -2.198577e-03 3.391191e-03 2.686974e-03 1.913886e-03 1.040574e-02 3.834068e-03 -5.589020e-03 -5.384230e-03 1.847272e-04 2.109439e-04 1.443561e-03 9.856179e-04 1.392932e-03 5.867834e-04 2.430223e-04 -2.790308e-04 -6.546801e-04 -3.224339e-04 -6.472299e-04 1.996604e-04 -5.000133e-04 5.786815e-04 -4.735463e-04 7.931978e-04 -6.032790e-04 6.180766e-04 -9.887718e-04 2.993446e-04 -1.145809e-03 1.838693e-04 -8.212196e-04 5.778457e-04 1.493655e-04 9.450837e-04 3.784056e-04 -6.522651e-05 -3.573260e-04 -1.059907e-03 1.222592e-05 -6.413412e-04 1.320040e-03 -6.929744e-06 1.905535e-03 -5.490416e-04 1.054700e-03 -1.754324e-03 2.502168e-04 -1.777931e-03 5.837572e-04 -6.966149e-04 1.088726e-03 1.668108e-04 5.338710e-04 5.781331e-05 -7.375488e-04 6.292492e-05 -1.120890e-03 4.143116e-04 6.568715e-03 4.000033e-02 4.217886e-02 2.605447e-02 1.492801e-02 5.721718e-03 
-1.453219e-03 -5.091622e-03 -1.066195e-02 -1.405026e-02 -2.162253e-02 -1.919673e-02 -3.683420e-03 -3.077355e-03 -3.750975e-03 -5.158027e-03 -5.423166e-03 -8.249816e-03 -4.585297e-03 1.329155e-04 -6.552085e-05 -8.550497e-05 -9.386785e-05 1.082729e-04 -1.247956e-04 2.840208e-04 -1.375186e-04 6.045620e-03 6.678125e-03 4.189892e-03 3.377853e-03 1.601035e-03 1.770515e-03 3.810705e-04 9.367320e-04 -1.647663e-04 6.502835e-04 -1.881978e-04 5.659993e-04 -1.589598e-04 2.579769e-04 -3.634536e-04 -1.817500e-04 -4.561088e-04 -4.102177e-04 -2.763315e-04 -4.005506e-04 -4.774860e-05 -4.157430e-04 1.073642e-04 -5.461118e-04 -5.819944e-05 -9.878051e-04 -5.956677e-04 -1.636608e-03 -1.354077e-03 -2.440303e-03 -2.624887e-03 -3.926791e-03 -5.382262e-03 -7.936488e-03 -1.221289e-02 -4.949578e-03 1.194554e-02 -4.266752e-03 -5.328289e-04 1.537067e-02 -1.210217e-02 5.929335e-03 1.293237e-02 -1.408532e-02 1.187330e-02 1.361616e-03 -1.365208e-02 1.195410e-02 -3.417299e-03 -8.549085e-03 7.815091e-03 8.851527e-03 3.219009e-03 2.214614e-03 1.405902e-03 1.534381e-03 9.870612e-04 8.108720e-04 5.131720e-04 2.245227e-04 3.085265e-04 -6.300905e-05 3.225455e-04 -2.165226e-04 3.790054e-04 -3.105807e-04 4.321924e-04 -3.958135e-04 3.880968e-04 -5.166148e-04 2.929240e-04 -5.368326e-04 2.715480e-04 -3.703910e-04 3.359764e-04 -9.232999e-05 3.245599e-04 4.134732e-05 3.096542e-05 2.180122e-05 -2.390663e-04 2.211250e-04 -2.525426e-04 5.794547e-04 -2.139079e-04 7.462476e-04 -3.946645e-04 5.961477e-04 -6.833051e-04 3.884493e-04 -6.644769e-04 4.217403e-04 -3.166109e-04 5.146866e-04 1.041913e-04 4.713661e-04 5.124604e-04 6.256948e-04 1.294487e-03 1.965303e-03 2.661259e-03 1.175664e-02 2.417075e-02 1.765310e-02 1.320554e-02 7.457434e-03 3.676611e-03 
-1.071357e-03 -3.473000e-03 -6.252464e-03 -7.835165e-03 -9.564608e-03 -8.897353e-03 -6.450270e-03 -7.024093e-03 -6.624939e-03 -9.775162e-03 -1.013269e-02 -1.527107e-02 -1.044417e-02 5.065858e-05 -2.713395e-06 4.017694e-05 -2.719224e-05 4.763579e-05 -3.777990e-05 4.228609e-05 -5.299011e-07 1.299158e-02 1.480901e-02 8.394023e-03 7.095749e-03 3.753274e-03 3.577489e-03 1.623997e-03 1.868578e-03 6.125979e-04 1.069422e-03 2.275561e-04 6.783141e-04 5.202353e-05 3.238938e-04 -1.381322e-04 -3.480131e-05 -2.436126e-04 -2.457473e-04 -1.726022e-04 -2.963260e-04 -3.292265e-05 -3.296329e-04 3.251396e-05 -4.612252e-04 -1.022608e-04 -7.779170e-04 -4.805610e-04 -1.260592e-03 -1.084302e-03 -1.974706e-03 -2.171292e-03 -3.352697e-03 -4.336164e-03 -6.225877e-03 -8.188276e-03 -4.991080e-03 5.215180e-03 -5.160880e-04 -2.534812e-03 7.072999e-03 -3.963581e-03 -2.438503e-03 3.932214e-03 -3.810603e-03 3.796348e-03 4.451327e-03 1.004653e-03 8.832030e-03 3.056404e-03 -1.014544e-03 3.119422e-03 4.030977e-03 9.980281e-04 7.375394e-04 5.471162e-04 8.503594e-04 5.981776e-04 5.745814e-04 4.067260e-04 2.384270e-04 2.910450e-04 2.948428e-05 2.907426e-04 -9.082379e-05 3.226615e-04 -1.789791e-04 3.350437e-04 -2.646847e-04 2.931453e-04 -3.456101e-04 2.309354e-04 -3.528313e-04 2.056692e-04 -2.455719e-04 2.295955e-04 -5.918683e-05 2.057648e-04 4.929705e-05 2.202976e-05 7.381264e-05 -1.618385e-04 2.130325e-04 -1.914946e-04 4.444817e-04 -1.871043e-04 5.584275e-04 -3.038880e-04 4.727033e-04 -4.577361e-04 3.651276e-04 -4.112369e-04 3.949334e-04 -1.266733e-04 4.970626e-04 2.813723e-04 6.132769e-04 8.433657e-04 1.007418e-03 1.962394e-03 2.290906e-03 4.204397e-03 5.740195e-03 9.879946e-03 8.384186e-03 7.124501e-03 4.326217e-03 1.988474e-03 
-4.712742e-04 -1.314273e-03 -2.564972e-03 -3.252342e-03 -3.933987e-03 -4.240263e-03 -3.057426e-03 -3.624120e-03 -3.441778e-03 -4.826737e-03 -5.150595e-03 -7.548087e-03 -5.160764e-03 2.752878e-05 -3.624267e-06 1.566424e-05 -1.561093e-05 2.939822e-05 -1.809155e-05 3.597198e-05 7.163060e-06 6.685485e-03 7.605928e-03 4.096001e-03 3.416045e-03 1.733810e-03 1.636963e-03 7.154041e-04 8.197165e-04 2.396448e-04 4.299934e-04 3.092942e-05 2.184340e-04 -7.472516e-05 4.927304e-05 -1.570657e-04 -1.068252e-04 -2.069421e-04 -2.275178e-04 -2.191663e-04 -3.191504e-04 -2.332502e-04 -4.263478e-04 -2.954464e-04 -5.859700e-04 -4.527919e-04 -8.285653e-04 -7.258552e-04 -1.163475e-03 -1.133913e-03 -1.641905e-03 -1.762562e-03 -2.359788e-03 -2.581109e-03 -3.104309e-03 -2.943656e-03 -2.611851e-03 -2.729287e-04 -7.871278e-04 6.527728e-05 2.478136e-03 -2.185102e-03 -9.161296e-04 1.516277e-03 -1.113949e-03 2.199546e-03 2.175363e-03 1.670576e-03 5.249445e-03 1.987407e-03 -6.245026e-04 2.059957e-04 1.545275e-03 1.145952e-03 1.303110e-03 1.135535e-03 1.230186e-03 9.992114e-04 9.386443e-04 7.551386e-04 6.218504e-04 5.459152e-04 3.698870e-04 4.053258e-04 1.884278e-04 3.153181e-04 6.124742e-05 2.536723e-04 -2.859617e-05 2.015340e-04 -8.756815e-05 1.612786e-04 -1.017296e-04 1.443307e-04 -6.594525e-05 1.433229e-04 -3.068717e-06 1.272749e-04 4.770770e-05 7.375410e-05 8.275907e-05 1.621633e-05 1.358937e-04 -1.642441e-05 1.975909e-04 -4.447688e-05 2.240070e-04 -9.355144e-05 2.029955e-04 -1.378944e-04 1.757263e-04 -1.180528e-04 1.887321e-04 -1.425513e-05 2.471331e-04 1.671161e-04 3.753774e-04 4.677486e-04 7.002873e-04 1.038909e-03 1.448182e-03 2.100495e-03 2.803212e-03 4.079386e-03 3.201048e-03 2.999889e-03 1.658904e-03 9.342074e-04 
1.037227e-05 5.060135e-06 1.158843e-05 6.911547e-06 1.280824e-05 8.504311e-06 1.395094e-05 9.315767e-06 1.286146e-05 7.964060e-06 9.243626e-06 4.892333e-06 6.262963e-06 7.775930e-06 6.554341e-06 7.145139e-06 8.505944e-06 8.105452e-06 1.265172e-05 1.134478e-05 1.911183e-05 1.621609e-05 5.040579e-05 2.034631e-05 5.149853e-05 1.298279e-05 4.039681e-05 -7.703861e-06 1.604476e-05 -3.223436e-05 -6.029765e-06 -4.621528e-05 -2.487543e-05 -6.051630e-05 -5.801330e-05 -8.764091e-05 -1.041063e-04 -1.131060e-04 -1.444001e-04 -1.275455e-04 -1.827057e-04 -1.528361e-04 -2.457857e-04 -2.149985e-04 -3.499003e-04 -3.287747e-04 -5.030532e-04 -5.029297e-04 -7.131423e-04 -7.534327e-04 -1.011948e-03 -1.127783e-03 -1.449775e-03 -1.608605e-03 -1.884958e-03 -1.783455e-03 -1.586536e-03 -5.428289e-04 -6.300762e-04 -8.075304e-04 3.146585e-04 -6.068509e-04 -3.359180e-04 4.163388e-04 -2.169488e-04 8.840411e-04 1.079696e-03 1.020895e-03 1.884106e-03 1.402014e-03 1.354224e-03 1.508853e-03 1.542155e-03 1.210233e-03 1.210399e-03 1.010861e-03 1.002436e-03 8.075676e-04 7.643306e-04 5.932086e-04 5.421306e-04 4.133889e-04 3.672234e-04 2.810970e-04 2.386713e-04 1.864562e-04 1.446165e-04 1.165307e-04 7.265717e-05 6.185608e-05 2.059143e-05 2.976710e-05 1.245861e-06 3.225419e-05 1.913275e-05 6.328724e-05 5.512405e-05 9.252255e-05 7.359044e-05 9.409580e-05 6.963771e-05 8.590065e-05 6.994703e-05 8.618361e-05 7.343075e-05 7.830952e-05 5.737930e-05 4.629192e-05 2.168500e-05 8.319506e-06 -4.271791e-06 -7.352801e-06 -5.959010e-06 -3.984550e-06 1.343022e-06 -1.414302e-06 -6.535540e-07 -1.092742e-05 -1.076369e-05 -1.922295e-05 -1.051331e-05 -1.438150e-05 -1.438799e-06 -6.893557e-06 5.023929e-06 -1.007466e-06 8.593886e-06 2.669719e-06 
4.948956e-04 1.327312e-03 2.590094e-03 3.269420e-03 3.961889e-03 4.261408e-03 3.089023e-03 3.646075e-03 3.467373e-03 4.842992e-03 5.165160e-03 7.554454e-03 5.165894e-03 -1.918050e-05 9.324941e-06 -9.185776e-06 2.458470e-05 -2.071376e-05 3.474737e-05 -2.042464e-05 2.356341e-05 -6.685183e-03 -7.527324e-03 -4.078606e-03 -3.328268e-03 -1.725831e-03 -1.569339e-03 -7.487954e-04 -8.070668e-04 -3.287494e-04 -4.684016e-04 -1.557048e-04 -3.045144e-04 -9.016747e-05 -2.172566e-04 -8.299682e-05 -1.741446e-04 -1.068944e-04 -1.574986e-04 -1.497413e-04 -1.685409e-04 -2.198311e-04 -2.204915e-04 -3.158720e-04 -3.013403e-04 -4.207617e-04 -3.937615e-04 -5.232230e-04 -4.976411e-04 -6.296374e-04 -6.245916e-04 -7.560524e-04 -7.888173e-04 -8.901346e-04 -9.366482e-04 -9.128425e-04 -8.853427e-04 -6.494943e-04 -5.813358e-04 -5.355562e-04 -1.970042e-04 -4.877748e-04 -3.132107e-04 1.145604e-04 -1.106399e-04 5.417279e-04 5.563652e-04 7.406957e-04 1.059542e-03 8.832521e-04 7.589496e-04 8.467613e-04 9.214079e-04 9.516624e-04 9.716327e-04 9.438066e-04 9.224506e-04 8.206614e-04 7.948240e-04 6.414724e-04 6.438479e-04 4.534639e-04 5.014836e-04 2.839582e-04 3.828743e-04 1.467335e-04 2.925114e-04 4.490417e-05 2.220709e-04 -2.642304e-05 1.672602e-04 -5.908669e-05 1.369435e-04 -4.317641e-05 1.328194e-04 1.403320e-05 1.370119e-04 8.247660e-05 1.186695e-04 1.340187e-04 7.251052e-05 1.726250e-04 1.783643e-05 2.017406e-04 -4.106293e-05 2.092247e-04 -1.056133e-04 1.886170e-04 -1.612224e-04 1.509999e-04 -1.920133e-04 9.578584e-05 -2.119756e-04 -4.526118e-06 -2.573368e-04 -1.805537e-04 -3.874017e-04 -4.954713e-04 -7.246467e-04 -1.074956e-03 -1.461900e-03 -2.119285e-03 -2.791598e-03 -4.084978e-03 -3.181221e-03 -2.996328e-03 -1.636189e-03 -9.252490e-04 
1.094394e-03 3.485218e-03 6.275535e-03 7.849930e-03 9.590590e-03 8.917713e-03 6.487585e-03 7.052101e-03 6.661708e-03 9.799225e-03 1.015116e-02 1.527173e-02 1.043896e-02 -3.775777e-05 1.000634e-05 -3.226807e-05 3.542765e-05 -4.054070e-05 5.371183e-05 -2.786638e-05 3.915818e-05 -1.295235e-02 -1.469342e-02 -8.313201e-03 -6.938088e-03 -3.668731e-03 -3.441184e-03 -1.623353e-03 -1.845353e-03 -7.189658e-04 -1.093791e-03 -3.178618e-04 -6.697282e-04 -1.202707e-04 -3.862611e-04 -4.167341e-05 -1.942679e-04 -2.409795e-05 -4.811717e-05 -3.583482e-05 3.341801e-05 -1.219943e-04 4.514127e-06 -2.563299e-04 -4.931146e-05 -3.361081e-04 -5.568018e-05 -3.382137e-04 -3.475262e-05 -3.008046e-04 -2.777365e-05 -2.836578e-04 -9.146011e-05 -3.157403e-04 -2.091864e-04 -3.543987e-04 -3.163268e-04 -3.504467e-04 -3.684006e-04 -4.069616e-04 -3.110313e-04 -2.899288e-04 -2.762961e-04 7.364516e-05 -1.252420e-04 3.336564e-04 1.617279e-04 4.836386e-04 4.192130e-04 6.792156e-04 5.114958e-04 8.129340e-04 6.482072e-04 8.371843e-04 6.742613e-04 7.474679e-04 6.315946e-04 6.067436e-04 5.972144e-04 4.658142e-04 5.587427e-04 2.954695e-04 4.962754e-04 1.118568e-04 4.281010e-04 -4.756641e-05 3.820793e-04 -1.603319e-04 3.331425e-04 -2.571901e-04 2.582618e-04 -3.076779e-04 2.081690e-04 -2.537594e-04 2.129364e-04 -9.440062e-05 2.408559e-04 9.104001e-05 1.884212e-04 2.058277e-04 4.879572e-05 2.999594e-04 -8.566657e-05 3.966458e-04 -2.193144e-04 4.404663e-04 -3.649518e-04 4.204004e-04 -4.682370e-04 3.851663e-04 -4.708005e-04 3.203309e-04 -4.427953e-04 1.220079e-04 -4.569835e-04 -2.356238e-04 -5.819212e-04 -8.700182e-04 -1.070500e-03 -2.053710e-03 -2.347595e-03 -4.243905e-03 -5.732462e-03 -9.887026e-03 -8.362518e-03 -7.117593e-03 -4.301738e-03 -1.977892e-03 
1.474632e-03 5.104540e-03 1.068139e-02 1.406666e-02 2.164720e-02 1.923211e-02 3.755142e-03 3.127073e-03 3.798714e-03 5.193868e-03 5.434675e-03 8.244612e-03 4.549078e-03 -1.496098e-04 5.563945e-05 7.565392e-05 8.520630e-05 -1.182148e-04 1.154941e-04 -2.892983e-04 1.446390e-04 -6.059500e-03 -6.566366e-03 -4.078386e-03 -3.162636e-03 -1.455090e-03 -1.558462e-03 -3.552769e-04 -9.386464e-04 -3.348647e-06 -7.003473e-04 8.381794e-05 -5.117207e-04 1.388130e-04 -2.958181e-04 1.245970e-04 -1.273270e-04 7.616213e-05 2.971337e-05 3.534179e-05 1.518964e-04 -9.525779e-05 1.072113e-04 -2.945194e-04 3.120969e-05 -4.036837e-04 6.293146e-05 -3.602244e-04 1.462339e-04 -2.461300e-04 2.242516e-04 -1.547841e-04 1.998073e-04 -1.514824e-04 3.943422e-05 -2.407707e-04 -2.268256e-04 -3.948660e-04 -5.167459e-04 -4.920112e-04 -4.248256e-04 -5.305228e-04 -3.866591e-04 1.110052e-04 -2.229060e-04 4.981685e-04 1.809978e-04 5.505835e-04 5.109247e-04 7.147323e-04 2.630291e-04 7.186388e-04 4.380010e-04 7.757371e-04 5.014791e-04 6.833352e-04 4.909684e-04 5.464528e-04 5.326643e-04 4.346332e-04 5.601222e-04 2.513171e-04 5.229348e-04 2.928013e-05 4.656336e-04 -1.599531e-04 4.486076e-04 -2.815729e-04 4.146428e-04 -4.055945e-04 3.275526e-04 -4.715280e-04 2.733646e-04 -3.943910e-04 3.004356e-04 -1.589860e-04 3.689242e-04 1.061169e-04 3.018194e-04 2.462981e-04 9.613808e-05 3.668238e-04 -8.442221e-05 5.063980e-04 -2.587834e-04 5.756364e-04 -4.735412e-04 5.391431e-04 -6.286229e-04 5.099783e-04 -6.094361e-04 4.865953e-04 -5.251171e-04 2.907164e-04 -4.649045e-04 -3.821833e-05 -4.405449e-04 -5.635207e-04 -7.421377e-04 -1.433784e-03 -2.039024e-03 -2.663846e-03 -1.167492e-02 -2.415885e-02 -1.761287e-02 -1.318798e-02 -7.426923e-03 -3.662181e-03 
2.468100e-03 1.084843e-02 2.084663e-02 3.180121e-02 4.121852e-02 1.750278e-02 -2.939515e-04 1.964099e-03 -9.024956e-04 2.934675e-03 1.319864e-04 4.084972e-03 1.636551e-03 -1.669367e-04 6.846095e-05 2.154861e-05 9.045101e-05 -1.711672e-04 1.140557e-04 -3.280511e-04 1.747243e-04 -2.735225e-03 -1.881279e-03 -1.293734e-03 -9.468997e-04 3.296308e-04 -2.842982e-04 9.114858e-04 -4.634206e-04 5.248448e-04 -8.320125e-04 2.366540e-04 -6.786245e-04 3.041663e-04 -2.970482e-04 2.527835e-04 -6.170465e-05 1.907324e-04 3.460228e-04 3.665914e-04 7.163916e-04 1.188047e-04 3.745531e-04 -4.943433e-04 8.686690e-05 -6.220306e-04 2.876312e-04 -3.320163e-04 6.404761e-04 1.242654e-04 1.009877e-03 4.210988e-04 9.878643e-04 4.366250e-04 8.173693e-04 4.025916e-04 3.958772e-04 -1.702713e-05 -3.600869e-04 -4.023560e-04 -4.612046e-04 -2.890862e-04 -1.461235e-04 6.128480e-04 2.485022e-05 6.757076e-04 -1.284743e-04 3.548127e-04 -2.806875e-05 5.228450e-04 -2.520933e-04 5.003706e-04 -4.906967e-05 5.217492e-04 -5.885624e-05 2.106760e-04 -1.631316e-04 1.164793e-04 2.648092e-04 3.514195e-04 6.319538e-04 2.249753e-04 6.702097e-04 -1.284308e-04 5.649301e-04 -4.432150e-04 6.608480e-04 -4.820984e-04 7.235116e-04 -7.461961e-04 4.136867e-04 -1.056264e-03 2.030957e-04 -9.557559e-04 3.131256e-04 -3.529302e-04 7.371309e-04 3.809790e-04 6.336960e-04 4.132762e-04 -2.156286e-05 5.217619e-04 -2.805886e-04 9.465851e-04 -5.105820e-04 1.087493e-03 -1.004018e-03 8.945958e-04 -1.408204e-03 9.206959e-04 -1.108042e-03 1.201289e-03 -7.781102e-04 8.504986e-04 -6.158353e-04 4.319544e-04 -1.082498e-04 -1.082781e-04 2.349910e-04 -6.706310e-04 7.952456e-04 -4.118831e-04 -6.379957e-03 -3.991606e-02 -4.210233e-02 -2.600818e-02 -1.488365e-02 -5.697772e-03 
8.742665e-04 9.244853e-03 1.647894e-02 2.746077e-02 2.826088e-02 -1.244639e-02 -3.147806e-03 2.114971e-03 -4.978456e-03 1.688851e-03 -5.756752e-03 -6.751603e-04 -4.164272e-03 5.213874e-03 2.946496e-04 1.534369e-03 1.297492e-04 -2.505907e-04 6.781250e-05 -2.048462e-03 -1.373491e-03 1.856298e-03 2.687764e-03 2.266194e-03 1.414663e-03 1.870612e-03 1.010229e-03 1.598157e-03 2.796410e-04 6.651779e-04 -4.290284e-04 1.609722e-04 -3.048575e-04 2.008732e-04 8.786531e-05 1.498666e-04 3.156210e-04 1.287903e-04 8.129267e-04 4.390013e-04 1.195354e-03 1.376420e-04 6.166982e-04 -6.703741e-04 1.668671e-04 -7.730502e-04 3.471294e-04 -4.046539e-04 7.192023e-04 1.487376e-04 1.095343e-03 4.452878e-04 9.226122e-04 3.645425e-04 6.870427e-04 3.202199e-04 1.940874e-04 -2.289947e-04 -6.765371e-04 -6.708784e-04 -9.789376e-04 -4.696410e-05 -1.225048e-04 8.790756e-04 4.573418e-04 9.493873e-04 1.022894e-05 7.407274e-04 -1.666700e-04 7.247869e-04 -5.460304e-05 5.857119e-04 -1.521440e-04 3.538742e-04 -3.436519e-04 -1.510984e-04 -5.343575e-04 -2.124923e-04 9.653581e-05 2.355957e-04 6.851897e-04 2.186606e-04 8.396383e-04 -1.251827e-04 7.615984e-04 -4.708235e-04 9.086208e-04 -4.641617e-04 1.000227e-03 -7.901113e-04 5.279457e-04 -1.241134e-03 1.593869e-04 -1.140273e-03 2.156441e-04 -3.706532e-04 7.163772e-04 6.124450e-04 5.255937e-04 6.328127e-04 -3.967668e-04 7.809523e-04 -7.195061e-04 1.392695e-03 -9.815989e-04 1.590177e-03 -1.540781e-03 1.361736e-03 -1.953110e-03 1.396924e-03 -1.388633e-03 1.706114e-03 -8.084981e-04 1.098204e-03 -4.400748e-04 3.423891e-04 4.618603e-04 -7.119857e-04 1.306507e-03 -2.201314e-03 3.485707e-03 -4.244554e-03 1.289295e-02 -1.630153e-02 -3.707049e-02 -2.136587e-02 -1.411497e-02 -4.614164e-03 
1.961501e-04 3.355330e-03 4.239557e-03 6.560246e-03 8.662722e-04 -2.081628e-02 2.502898e-04 4.745157e-03 -6.136466e-04 6.006278e-03 1.322205e-04 6.789605e-03 -3.172109e-03 -6.992148e-03 -6.498699e-03 -6.497262e-04 -2.061850e-03 1.724258e-03 1.382443e-03 5.277542e-03 7.335522e-03 2.303750e-04 -2.102196e-03 -1.805099e-03 -1.136641e-03 -5.314851e-04 -3.997183e-04 -3.230547e-05 -2.557319e-04 -1.163972e-04 -3.148273e-04 -1.782396e-04 -1.254358e-04 -1.166914e-04 1.004331e-04 -9.842460e-05 2.582677e-04 -6.859717e-05 5.071736e-04 6.471234e-05 6.292538e-04 -8.539991e-05 3.387367e-04 -4.497321e-04 1.013341e-04 -4.952616e-04 1.134750e-04 -3.396004e-04 2.453228e-04 -6.373241e-05 4.094872e-04 1.437952e-04 3.760034e-04 2.226744e-04 3.624077e-04 3.255230e-04 2.419303e-04 1.980338e-04 -1.457491e-05 -1.409758e-05 -2.296538e-04 4.492567e-04 2.020244e-04 6.481455e-04 2.983251e-04 4.156554e-04 -2.558678e-04 1.197310e-04 -5.839993e-04 6.322779e-05 -1.085794e-04 3.446380e-04 -1.749168e-05 3.335116e-04 2.840346e-06 1.677290e-04 -1.322534e-05 1.259766e-04 2.640323e-04 2.575980e-04 5.375317e-04 2.212737e-04 6.523621e-04 4.902497e-05 6.536167e-04 -1.449073e-04 7.013515e-04 -2.111606e-04 6.986635e-04 -4.005266e-04 4.360096e-04 -6.262861e-04 2.056354e-04 -5.656857e-04 1.627076e-04 -1.795853e-04 2.946757e-04 3.252787e-04 1.288422e-04 4.442061e-04 -3.539752e-04 6.030112e-04 -5.967989e-04 9.448043e-04 -7.943155e-04 1.087560e-03 -1.056738e-03 1.038310e-03 -1.204921e-03 1.032557e-03 -9.034818e-04 1.042937e-03 -5.407537e-04 5.987780e-04 -2.152132e-04 -5.765760e-05 3.295908e-04 -1.071111e-03 8.218516e-04 -2.853753e-03 1.723279e-03 -7.168247e-03 1.166639e-02 6.015438e-03 -8.391071e-03 -3.711513e-03 -4.109979e-03 -4.391908e-04 
7.906280e-05 1.166048e-03 1.707737e-03 1.306581e-03 -1.290812e-05 -6.349923e-03 2.328619e-03 4.367219e-03 4.228263e-03 8.580682e-03 1.013420e-02 1.799308e-02 2.189134e-02 2.287351e-02 1.181340e-02 6.257458e-03 2.510999e-03 -2.194789e-03 -6.735537e-03 -1.093134e-02 -2.272197e-02 -2.325658e-02 -1.574433e-02 -1.081621e-02 -6.628050e-03 -4.482592e-03 -2.793459e-03 -1.845018e-03 -1.196070e-03 -7.964442e-04 -5.388253e-04 -3.669541e-04 -1.931417e-04 -1.731038e-04 3.312171e-06 -9.031876e-05 1.234388e-04 -4.369701e-05 2.325582e-04 2.543089e-06 2.731635e-04 -3.567536e-05 1.927865e-04 -1.435533e-04 9.841710e-05 -1.785998e-04 6.630798e-05 -1.353889e-04 1.057687e-04 -2.043790e-05 1.762267e-04 7.251808e-05 1.264034e-04 -2.820080e-05 -2.022162e-04 -4.705903e-04 -9.327055e-04 -1.019577e-03 -1.969202e-03 -1.257193e-03 -8.525581e-04 -2.836905e-03 -1.553000e-03 -2.856387e-04 -1.354937e-03 1.261438e-03 1.085292e-03 1.144109e-03 2.882375e-03 1.620740e-03 1.166038e-05 6.050994e-04 5.962867e-04 8.765003e-04 6.993242e-04 8.248323e-04 6.467881e-04 6.234829e-04 5.426578e-04 4.124710e-04 4.692620e-04 2.354487e-04 4.337653e-04 9.270491e-05 4.123271e-04 -2.342390e-05 3.960687e-04 -1.105353e-04 3.455237e-04 -2.175976e-04 2.231475e-04 -3.050051e-04 1.196906e-04 -2.632869e-04 9.706512e-05 -8.283853e-05 1.214583e-04 1.351636e-04 4.375686e-05 2.449300e-04 -1.421595e-04 3.417452e-04 -2.784515e-04 4.835726e-04 -3.784205e-04 5.647752e-04 -4.764627e-04 5.636287e-04 -5.242148e-04 5.347437e-04 -4.203616e-04 4.784686e-04 -2.337865e-04 2.872580e-04 -1.516183e-05 -5.058044e-05 2.434344e-04 -5.960819e-04 4.759407e-04 -1.513797e-03 6.386117e-04 -3.601098e-03 3.354671e-03 2.706317e-03 -1.310719e-03 -8.512265e-04 -1.610270e-03 -2.913979e-04 
