# vtk DataFile Version 2.0
Comment goes here
ASCII

DATASET STRUCTURED_POINTS
FIELD FieldData 1
TIME 1 1 double
0.04000000
DIMENSIONS    128   16   1

ORIGIN    0.000   0.000   0.000
SPACING   0.0078125 0.015625   1.000

POINT_DATA   2048
SCALARS fMag double
LOOKUP_TABLE default

0 0 0 0 0 0 0 0 0 0 0 0 0 0 0 0 0 0 0 0 0 0 0 0 0 0 0 0 0 0 0 0 0 0 0 0 0 0 0 0 0 0 0 0 0 0 0 0 0 0 0 0 0 0 0 0 0 0 0 0 0 0 0 0 0 0 0 0 0 0 0 0 0 0 0 0 0 0 0 0 0 0 0 0 0 0 0 0 0 0 0 0 0 0 0 0 0 0 0 0 0 0 0 0 0 0 0 0 0 0 0 0 0 0 0 0 0 0 0 0 0 0 0 0 0 0 0 0 
0 0 0 0 0 0 0 0 0 0 0 0 0 0 0 0 0 0 0 0 0 0 0 0 0 0 0 0 0 0 0 0 0 0 0 0 0 0 0 0 0 0 0 0 0 0 0 0 0 0 0 0 0 0 0 0 0 0 0 0 0 0 0 0 0 0 0 0 0 0 0 0 0 0 0 0 0 0 0 0 0 0 0 0 0 0 0 0 0 0 0 0 0 0 0 0 0 0 0 0 0 0 0 0 0 0 0 0 0 0 0 0 0 0 0 0 0 0 0 0 0 0 0 0 0 0 0 0 
0 0 0 0 0 8.466304e-01 3.042510e+00 3.437265e+00 5.635057e+00 3.392683e+00 1.626180e+00 4.057354e+00 3.458991e+00 3.596291e+00 4.345086e+00 5.415131e+00 7.840716e+00 1.132628e+01 1.629807e+01 2.234688e+01 2.968819e+01 3.166142e+01 3.216628e+01 2.804652e+01 2.267237e+01 1.931701e+01 1.879096e+01 2.318990e+01 2.439211e+01 2.884209e+01 3.012112e+01 2.756932e+01 2.251889e+01 1.787631e+01 1.820562e+01 1.651804e+01 1.633940e+01 1.880696e+01 2.161230e+01 2.176225e+01 2.038790e+01 1.821281e+01 1.690235e+01 1.584106e+01 1.684108e+01 1.651292e+01 1.570563e+01 1.912881e+01 2.097342e+01 2.096316e+01 1.874924e+01 1.801157e+01 1.493626e+01 1.249354e+01 1.419734e+01 1.580683e+01 1.735483e+01 1.641223e+01 5.757391e+00 9.840237e+00 1.359859e+01 1.448327e+01 1.105337e+01 3.307175e+00 6.759932e+00 1.284555e+01 1.166584e+01 3.316009e+00 9.221307e+00 1.140198e+01 1.157699e+01 1.284232e+01 1.153744e+01 1.052068e+01 1.453642e+01 1.811511e+01 1.842923e+01 1.704967e+01 1.183743e+01 1.437367e+01 1.680245e+01 1.861869e+01 1.579729e+01 1.037052e+01 1.481930e+01 2.245131e+01 2.643449e+01 1.911022e+01 1.096609e+01 1.515281e+01 1.671945e+01 1.878593e+01 1.068098e+01 9.832912e+00 2.170646e+01 2.238719e+01 2.009975e+01 7.767769e+00 2.099870e+01 1.236153e+01 9.911623e+00 5.604006e+00 6.348737e+00 1.719527e+01 2.714730e+01 1.599822e+01 1.018384e+01 2.112848e+01 1.132564e+01 6.581198e+00 1.538240e+01 1.315406e+01 5.837505e+00 8.503658e+00 1.002869e+01 1.145353e+01 8.203478e+00 9.413904e+00 1.259369e+01 9.743953e+00 6.912365e+00 1.136162e+01 6.776647e+00 5.834331e-01 0 0 0 0 
0 0 0 0 0 2.489669e+00 8.949666e+00 1.011106e+01 1.656904e+01 9.972400e+00 4.780781e+00 1.193059e+01 1.017176e+01 1.057805e+01 1.278179e+01 1.593005e+01 2.306513e+01 3.332026e+01 4.794710e+01 6.574703e+01 8.735218e+01 9.315895e+01 9.464540e+01 8.252122e+01 6.670403e+01 5.683016e+01 5.528133e+01 6.822495e+01 7.176444e+01 8.486201e+01 8.862616e+01 8.111631e+01 6.625427e+01 5.259138e+01 5.355872e+01 4.859393e+01 4.806830e+01 5.532880e+01 6.358422e+01 6.402504e+01 5.998075e+01 5.358033e+01 4.972438e+01 4.660119e+01 4.954433e+01 4.857953e+01 4.620376e+01 5.627469e+01 6.170348e+01 6.167346e+01 5.515848e+01 5.298815e+01 4.393943e+01 3.675217e+01 4.176528e+01 4.650034e+01 5.185653e+01 5.131192e+01 2.621949e+01 3.181722e+01 3.952318e+01 3.905793e+01 3.127591e+01 1.427911e+01 2.656693e+01 4.426308e+01 3.826852e+01 2.034259e+01 3.340393e+01 3.564841e+01 3.255016e+01 3.650187e+01 3.385293e+01 3.094819e+01 4.276221e+01 5.329041e+01 5.421398e+01 5.015492e+01 3.482185e+01 4.228363e+01 4.942790e+01 5.476819e+01 4.646781e+01 3.050561e+01 4.359620e+01 6.604999e+01 7.776558e+01 5.621690e+01 3.225906e+01 4.457832e+01 4.918220e+01 5.525348e+01 3.141359e+01 2.893490e+01 6.386315e+01 6.585389e+01 5.911742e+01 2.285251e+01 6.178259e+01 3.636835e+01 2.914717e+01 1.648255e+01 1.867543e+01 5.058115e+01 7.986288e+01 4.707063e+01 2.995254e+01 6.215042e+01 3.331812e+01 1.935476e+01 4.524542e+01 3.869166e+01 1.717109e+01 2.501511e+01 2.949770e+01 3.368616e+01 2.412645e+01 2.768600e+01 3.703924e+01 2.867348e+01 2.035126e+01 3.342572e+01 1.993858e+01 1.716116e+00 0 0 0 0 
0 0 0 0 0 1.719555e+00 6.182589e+00 6.985004e+00 1.144293e+01 6.885568e+00 3.301344e+00 8.239792e+00 7.025383e+00 4.194522e+01 4.764371e+01 3.640864e+01 5.157880e+01 4.818887e+01 6.426631e+01 6.862382e+01 6.959819e+01 6.436825e+01 6.539579e+01 5.701742e+01 4.608630e+01 3.926336e+01 3.819270e+01 4.713630e+01 4.958296e+01 5.863477e+01 6.123599e+01 5.604630e+01 4.577644e+01 3.633468e+01 3.700230e+01 3.357218e+01 3.320901e+01 3.822569e+01 4.393032e+01 4.423473e+01 4.144009e+01 3.701744e+01 3.435311e+01 3.219491e+01 3.422882e+01 3.356255e+01 3.192080e+01 3.887872e+01 4.263036e+01 4.260972e+01 3.810776e+01 3.660825e+01 3.035598e+01 2.538998e+01 2.885376e+01 3.212515e+01 3.706498e+01 4.268657e+01 3.632442e+01 3.359360e+01 3.656979e+01 3.921115e+01 3.535531e+01 2.966351e+01 3.733844e+01 4.622857e+01 4.351501e+01 3.290393e+01 3.474184e+01 3.409927e+01 3.010570e+01 2.924787e+01 2.429827e+01 2.138013e+01 2.954222e+01 3.681594e+01 3.745375e+01 3.464918e+01 2.405631e+01 2.921167e+01 3.414703e+01 3.783511e+01 3.210052e+01 2.107396e+01 3.011927e+01 4.563264e+01 5.372545e+01 3.883729e+01 2.228603e+01 3.079826e+01 3.397655e+01 3.816712e+01 2.169867e+01 1.999407e+01 4.412396e+01 4.549354e+01 4.083606e+01 1.578853e+01 4.268732e+01 2.512701e+01 2.013137e+01 1.138554e+01 1.290149e+01 3.494264e+01 5.517457e+01 3.252266e+01 2.068998e+01 4.293468e+01 2.301834e+01 1.336863e+01 3.125511e+01 2.672814e+01 1.186201e+01 1.728149e+01 2.037652e+01 2.326863e+01 1.666484e+01 1.912337e+01 2.558464e+01 1.981360e+01 1.406788e+01 2.309354e+01 1.377625e+01 1.185487e+00 0 0 0 0 
0 0 0 0 0 7.651583e-02 2.754324e-01 3.112057e-01 5.089527e-01 3.058498e-01 1.467437e-01 3.665531e-01 3.126091e-01 4.357648e+01 4.762565e+01 4.439984e+01 4.736237e+01 4.847318e+01 5.028316e+01 5.448718e+01 4.978262e+01 2.870730e+00 2.916678e+00 2.542720e+00 2.054644e+00 1.750201e+00 1.702328e+00 2.101246e+00 2.210633e+00 2.614844e+00 2.730953e+00 2.499308e+00 2.041052e+00 1.619617e+00 1.649196e+00 1.496297e+00 1.480101e+00 1.703847e+00 1.958402e+00 1.971932e+00 1.847238e+00 1.649923e+00 1.531085e+00 1.434772e+00 1.525571e+00 1.495948e+00 1.422676e+00 1.732835e+00 1.900311e+00 1.899413e+00 1.698526e+00 1.631668e+00 1.352815e+00 1.131349e+00 1.285822e+00 1.431643e+00 2.898378e+00 1.150312e+01 1.639163e+01 1.297254e+01 1.473267e+01 2.058180e+01 2.310236e+01 2.292616e+01 1.932152e+01 1.624786e+01 1.831981e+01 1.551354e+01 1.025260e+01 8.700087e+00 1.140735e+01 8.778602e+00 2.185750e+00 9.526210e-01 1.316430e+00 1.640638e+00 1.668999e+00 1.543930e+00 1.071891e+00 1.301723e+00 1.521582e+00 1.685608e+00 1.429997e+00 9.388734e-01 1.342371e+00 2.033966e+00 2.394364e+00 1.730606e+00 9.930633e-01 1.372753e+00 1.513797e+00 1.699579e+00 9.660594e-01 8.920809e-01 1.967271e+00 2.026849e+00 1.818393e+00 7.037810e-01 1.903433e+00 1.120190e+00 8.958271e-01 5.069924e-01 5.748001e-01 1.556753e+00 2.458990e+00 1.450253e+00 9.212838e-01 1.912740e+00 1.025863e+00 5.950626e-01 1.392092e+00 1.190539e+00 5.284266e-01 7.700379e-01 9.075085e-01 1.036009e+00 7.418696e-01 8.512769e-01 1.139096e+00 8.840738e-01 6.289868e-01 1.029445e+00 6.143185e-01 5.280366e-02 0 0 0 0 
0 0 0 0 0 0 0 0 0 0 0 0 0 4.781089e+01 5.137859e+01 4.849656e+01 5.038499e+01 5.126759e+01 4.977880e+01 5.553487e+01 4.856430e+01 0 0 0 0 0 0 0 0 0 0 0 0 0 0 0 0 0 0 0 0 0 0 0 0 0 0 0 0 0 0 0 0 0 0 0 2.350324e-01 2.389989e+00 4.869872e+00 5.677102e+00 4.993338e+00 6.242708e+00 8.291878e+00 7.853306e+00 7.453932e+00 7.435786e+00 8.140008e+00 6.547862e+00 5.185893e+00 6.343816e+00 5.909159e+00 2.995008e+00 4.031108e-01 0 0 0 0 0 0 0 0 0 0 0 0 0 0 0 0 0 0 0 0 0 0 0 0 0 0 0 0 0 0 0 0 0 0 0 0 0 0 0 0 0 0 0 0 0 0 0 0 0 0 0 0 0 0 0 
0 0 0 0 0 0 0 0 0 0 0 0 0 4.839412e+01 5.007198e+01 4.901949e+01 4.985853e+01 5.045715e+01 5.007413e+01 5.212147e+01 5.030188e+01 0 0 0 0 0 0 0 0 0 0 0 0 0 0 0 0 0 0 0 0 0 0 0 0 0 0 0 0 0 0 0 0 0 0 0 3.284130e-01 2.918133e+00 5.761583e+00 6.385533e+00 4.679729e+00 4.344783e+00 6.142185e+00 7.576376e+00 9.252952e+00 9.837805e+00 1.042269e+01 8.483676e+00 5.925682e+00 5.735969e+00 4.770184e+00 2.344761e+00 3.436193e-01 0 0 0 0 0 0 0 0 0 0 0 0 0 0 0 0 0 0 0 0 0 0 0 0 0 0 0 0 0 0 0 0 0 0 0 0 0 0 0 0 0 0 0 0 0 0 0 0 0 0 0 0 0 0 0 
0 0 0 0 0 0 0 0 0 0 0 0 0 5.014476e+01 5.202411e+01 5.074906e+01 5.134099e+01 5.209246e+01 5.082044e+01 5.364658e+01 5.065162e+01 0 0 0 0 0 0 0 0 0 0 0 0 0 0 0 0 0 0 0 0 0 0 0 0 0 0 0 0 0 0 0 0 0 0 0 2.395080e-02 2.509541e-01 5.077791e-01 1.550608e+00 2.006277e-02 3.163009e+00 4.323199e+00 3.215872e+00 1.910003e-01 2.366759e+00 2.838288e+00 1.938316e+00 1.099289e+00 8.660179e-01 1.068239e+00 1.462262e+00 1.896406e-01 0 0 0 0 0 0 0 0 0 0 0 0 0 0 0 0 0 0 0 0 0 0 0 0 0 0 0 0 0 0 0 0 0 0 0 0 0 0 0 0 0 0 0 0 0 0 0 0 0 0 0 0 0 0 0 
0 0 0 0 0 0 0 0 0 0 0 0 0 4.856104e+01 5.011551e+01 4.894056e+01 4.965515e+01 4.997034e+01 4.941760e+01 5.113808e+01 4.941483e+01 0 0 0 0 0 0 0 0 0 0 0 0 0 0 0 0 0 0 0 0 0 0 0 0 0 0 0 0 0 0 0 0 0 0 0 1.628729e-02 1.509650e-01 1.315754e-01 4.502552e-02 3.093061e-02 3.378093e-01 5.322735e-01 5.162733e-01 2.580462e-01 1.820758e-02 5.067105e-02 4.892287e-02 8.114022e-02 5.210810e-02 2.391902e-01 2.255377e-01 2.961174e-02 0 0 0 0 0 0 0 0 0 0 0 0 0 0 0 0 0 0 0 0 0 0 0 0 0 0 0 0 0 0 0 0 0 0 0 0 0 0 0 0 0 0 0 0 0 0 0 0 0 0 0 0 0 0 0 
0 0 0 0 0 0 0 0 0 0 0 0 0 4.765521e+01 5.154423e+01 4.857241e+01 5.028937e+01 5.059880e+01 4.915000e+01 5.273286e+01 4.785017e+01 0 0 0 0 0 0 0 0 0 0 0 0 0 0 0 0 0 0 0 0 0 0 0 0 0 0 0 0 0 0 0 0 0 0 0 0 0 0 0 0 0 0 0 0 0 0 0 0 0 0 0 0 0 0 0 0 0 0 0 0 0 0 0 0 0 0 0 0 0 0 0 0 0 0 0 0 0 0 0 0 0 0 0 0 0 0 0 0 0 0 0 0 0 0 0 0 0 0 0 0 0 0 0 0 0 0 0 
0 0 0 0 0 5.695428e-02 3.290475e-01 4.029881e-01 4.177874e-01 2.619236e-01 1.865910e-01 3.031229e-01 4.264050e-01 4.529745e+01 4.803959e+01 4.482501e+01 4.744242e+01 4.746698e+01 4.687031e+01 4.975621e+01 4.537247e+01 2.430201e+00 2.448344e+00 2.432360e+00 2.314612e+00 2.275996e+00 2.291568e+00 2.365350e+00 2.292509e+00 2.185346e+00 2.118171e+00 2.035784e+00 1.938197e+00 1.841559e+00 1.827504e+00 1.769140e+00 1.667378e+00 1.565507e+00 1.539249e+00 1.484272e+00 1.403412e+00 1.426412e+00 1.566488e+00 1.676630e+00 1.824058e+00 1.918894e+00 1.874135e+00 1.764664e+00 1.751325e+00 1.738954e+00 1.615663e+00 1.558697e+00 1.444499e+00 1.303336e+00 1.343783e+00 1.556423e+00 1.612295e+00 1.569462e+00 1.502139e+00 1.320719e+00 1.073822e+00 9.120721e-01 8.947505e-01 9.312005e-01 9.153285e-01 8.921589e-01 9.840747e-01 1.139101e+00 1.305411e+00 1.383966e+00 1.122409e+00 7.640604e-01 8.092165e-01 1.085750e+00 1.261771e+00 1.187687e+00 9.375191e-01 8.359792e-01 9.414141e-01 1.155653e+00 1.113574e+00 7.770908e-01 6.689555e-01 8.664901e-01 9.841428e-01 8.364617e-01 6.234985e-01 6.620736e-01 7.959708e-01 8.606485e-01 8.856262e-01 1.007862e+00 9.494774e-01 8.879566e-01 7.151244e-01 4.969665e-01 5.836691e-01 6.329192e-01 5.214557e-01 3.860839e-01 8.265971e-01 1.128168e+00 9.868898e-01 6.027680e-01 4.999334e-01 6.965182e-01 7.294631e-01 6.166675e-01 5.697569e-01 5.565969e-01 4.689552e-01 3.235491e-01 3.687970e-01 3.787665e-01 2.077371e-01 1.196335e-01 1.681400e-01 1.046369e-01 2.107009e-01 4.489645e-01 4.502317e-01 2.509809e-01 1.367521e-01 3.833286e-02 0 0 0 0 
0 0 0 0 0 1.279724e+00 7.385268e+00 9.044016e+00 9.387526e+00 5.891378e+00 4.197407e+00 6.815626e+00 9.586731e+00 3.863458e+01 4.781861e+01 4.014890e+01 5.192241e+01 5.162343e+01 6.126690e+01 6.617623e+01 6.896447e+01 5.450205e+01 5.490842e+01 5.455031e+01 5.191276e+01 5.104804e+01 5.139727e+01 5.305008e+01 5.141807e+01 4.901748e+01 4.751239e+01 4.566609e+01 4.347849e+01 4.131292e+01 4.099832e+01 3.969045e+01 3.740936e+01 3.512579e+01 3.453698e+01 3.330411e+01 3.149118e+01 3.200692e+01 3.514747e+01 3.761668e+01 4.092113e+01 4.304684e+01 4.204340e+01 3.958940e+01 3.929112e+01 3.901592e+01 3.625593e+01 3.498099e+01 3.241815e+01 2.924863e+01 3.015394e+01 3.492359e+01 3.617905e+01 3.521967e+01 3.370832e+01 2.963797e+01 2.409942e+01 2.047132e+01 2.008340e+01 2.090134e+01 2.054486e+01 2.002455e+01 2.208647e+01 2.556476e+01 2.929545e+01 3.105671e+01 2.518895e+01 1.715009e+01 1.816532e+01 2.437237e+01 2.832236e+01 2.665950e+01 2.104443e+01 1.876413e+01 2.112963e+01 2.593597e+01 2.499157e+01 1.744237e+01 1.501692e+01 1.945141e+01 2.209239e+01 1.877756e+01 1.399672e+01 1.486208e+01 1.786802e+01 1.931906e+01 1.987789e+01 2.261974e+01 2.131261e+01 1.993660e+01 1.605610e+01 1.115708e+01 1.310236e+01 1.420845e+01 1.170624e+01 8.667658e+00 1.855749e+01 2.532741e+01 2.215583e+01 1.353191e+01 1.122275e+01 1.563561e+01 1.637506e+01 1.384298e+01 1.278953e+01 1.249420e+01 1.052734e+01 7.263335e+00 8.280946e+00 8.504962e+00 4.665010e+00 2.684548e+00 3.775377e+00 2.350491e+00 4.744309e+00 1.010999e+01 1.019390e+01 5.691864e+00 3.055631e+00 8.614646e-01 0 0 0 0 
0 0 0 0 0 1.852801e+00 1.069041e+01 1.309129e+01 1.359142e+01 8.531173e+00 6.078290e+00 9.868938e+00 1.388124e+01 1.050168e+01 1.514660e+01 1.813381e+01 2.837163e+01 3.961079e+01 5.154845e+01 6.326115e+01 7.601159e+01 7.888269e+01 7.947071e+01 7.895249e+01 7.513588e+01 7.388468e+01 7.439014e+01 7.678183e+01 7.442017e+01 7.094641e+01 6.876841e+01 6.609654e+01 6.293060e+01 5.979673e+01 5.934156e+01 5.744890e+01 5.414769e+01 5.084288e+01 4.999070e+01 4.820635e+01 4.558256e+01 4.632899e+01 5.087418e+01 5.444771e+01 5.922988e+01 6.230619e+01 6.085396e+01 5.730249e+01 5.687100e+01 5.647325e+01 5.247991e+01 5.063532e+01 4.692560e+01 4.233731e+01 4.364714e+01 5.055061e+01 5.236830e+01 5.098008e+01 4.879227e+01 4.290069e+01 3.488420e+01 2.963299e+01 2.907167e+01 3.025563e+01 2.973955e+01 2.898631e+01 3.197074e+01 3.700537e+01 4.240514e+01 4.495415e+01 3.646108e+01 2.482560e+01 2.629563e+01 3.528062e+01 4.099818e+01 3.859112e+01 3.046307e+01 2.716195e+01 3.058585e+01 3.754265e+01 3.617559e+01 2.524864e+01 2.173813e+01 2.815744e+01 3.198042e+01 2.718205e+01 2.026137e+01 2.151390e+01 2.586527e+01 2.796555e+01 2.877402e+01 3.274251e+01 3.085122e+01 2.886062e+01 2.324313e+01 1.615098e+01 1.896666e+01 2.056793e+01 1.694579e+01 1.254728e+01 2.686383e+01 3.666384e+01 3.207270e+01 1.958867e+01 1.624581e+01 2.263372e+01 2.370410e+01 2.003873e+01 1.851367e+01 1.808618e+01 1.523915e+01 1.051428e+01 1.198783e+01 1.231216e+01 6.753378e+00 3.885827e+00 5.465379e+00 3.402914e+00 6.871412e+00 1.464298e+01 1.477855e+01 8.254251e+00 4.419683e+00 1.247278e+00 0 0 0 0 
0 0 0 0 0 6.300316e-01 3.634188e+00 4.450267e+00 4.621679e+00 2.901718e+00 2.067474e+00 3.356434e+00 4.720918e+00 3.571004e+00 5.148612e+00 6.164462e+00 9.644877e+00 1.346492e+01 1.752229e+01 2.150264e+01 2.583525e+01 2.681084e+01 2.701063e+01 2.683454e+01 2.553774e+01 2.511264e+01 2.528443e+01 2.609710e+01 2.529461e+01 2.411427e+01 2.337419e+01 2.246624e+01 2.139031e+01 2.032538e+01 2.017074e+01 1.952760e+01 1.840571e+01 1.728260e+01 1.699296e+01 1.638651e+01 1.549479e+01 1.574848e+01 1.729320e+01 1.850766e+01 2.013280e+01 2.117824e+01 2.068470e+01 1.947775e+01 1.933120e+01 1.919629e+01 1.783965e+01 1.721303e+01 1.595194e+01 1.439201e+01 1.483698e+01 1.718345e+01 1.780155e+01 1.732987e+01 1.658608e+01 1.458344e+01 1.185860e+01 1.007374e+01 9.883025e+00 1.028549e+01 1.011002e+01 9.853925e+00 1.086834e+01 1.257971e+01 1.441511e+01 1.528141e+01 1.239454e+01 8.439575e+00 8.939521e+00 1.199401e+01 1.393760e+01 1.311931e+01 1.035617e+01 9.233798e+00 1.039763e+01 1.276232e+01 1.229760e+01 8.583363e+00 7.390166e+00 9.572516e+00 1.087217e+01 9.240951e+00 6.888152e+00 7.313894e+00 8.793220e+00 9.507131e+00 9.781750e+00 1.113063e+01 1.048809e+01 9.811981e+00 7.902152e+00 5.490866e+00 6.447964e+00 6.992402e+00 5.761000e+00 4.265704e+00 9.132934e+00 1.246460e+01 1.090376e+01 6.659526e+00 5.522991e+00 7.694627e+00 8.058505e+00 6.812413e+00 6.293901e+00 6.148581e+00 5.180763e+00 3.574495e+00 4.075676e+00 4.185965e+00 2.296105e+00 1.320913e+00 1.858142e+00 1.157061e+00 2.337804e+00 4.981955e+00 5.034878e+00 2.813368e+00 1.500805e+00 4.241467e-01 0 0 0 0 
0 0 0 0 0 0 0 0 0 0 0 0 0 0 0 0 0 0 0 0 0 0 0 0 0 0 0 0 0 0 0 0 0 0 0 0 0 0 0 0 0 0 0 0 0 0 0 0 0 0 0 0 0 0 0 0 0 0 0 0 0 0 0 0 0 0 0 0 0 0 0 0 0 0 0 0 0 0 0 0 0 0 0 0 0 0 0 0 0 0 0 0 0 0 0 0 0 0 0 0 0 0 0 0 0 0 0 0 0 0 0 0 0 0 0 0 0 0 0 0 0 0 0 0 0 0 0 0 
