# vtk DataFile Version 2.0
Comment goes here
ASCII

DATASET STRUCTURED_POINTS
FIELD FieldData 1
TIME 1 1 double
0.97000000
DIMENSIONS    128   16   1

ORIGIN    0.000   0.000   0.000
SPACING   0.0078125 0.015625   1.000

POINT_DATA   2048
SCALARS fMag double
LOOKUP_TABLE default

0 0 0 0 0 0 0 0 0 0 0 0 0 0 0 0 0 0 0 0 0 0 0 0 0 0 0 0 0 0 0 0 0 0 0 0 0 0 0 0 0 0 0 0 0 0 0 0 0 0 0 0 0 0 0 0 0 0 0 0 0 0 0 0 0 0 0 0 0 0 0 0 0 0 0 0 0 0 0 0 0 0 0 0 0 0 0 0 0 0 0 0 0 0 0 0 0 0 0 0 0 0 0 0 0 0 0 0 0 0 0 0 0 0 0 0 0 0 0 0 0 0 0 0 0 0 0 0 
0 0 0 0 0 0 0 0 0 0 0 0 0 0 0 0 0 0 0 0 0 0 0 0 0 0 0 0 0 0 0 0 0 0 0 0 0 0 0 0 0 0 0 0 0 0 0 0 0 0 0 0 0 0 0 0 0 0 0 0 0 0 0 0 0 0 0 0 0 0 0 0 0 0 0 0 0 0 0 0 0 0 0 0 0 0 0 0 0 0 0 0 0 0 0 0 0 0 0 0 0 0 0 0 0 0 0 0 0 0 0 0 0 0 0 0 0 0 0 0 0 0 0 0 0 0 0 0 
0 0 0 0 0 1.965372e+00 1.601633e+00 7.544133e-01 1.380622e+00 9.229452e-01 1.653127e+00 1.144641e+00 1.786173e+00 2.475092e+00 3.672550e+00 5.137886e+00 6.581387e+00 8.916321e+00 1.097234e+01 1.231134e+01 1.631726e+01 1.629199e+01 1.596551e+01 1.607090e+01 1.572733e+01 1.587002e+01 1.550524e+01 1.563595e+01 1.524368e+01 1.532578e+01 1.492062e+01 1.495238e+01 1.460003e+01 1.463016e+01 1.438499e+01 1.440207e+01 1.422981e+01 1.417636e+01 1.402590e+01 1.386642e+01 1.371978e+01 1.348583e+01 1.338886e+01 1.314873e+01 1.312344e+01 1.289648e+01 1.292155e+01 1.270412e+01 1.273560e+01 1.250155e+01 1.249842e+01 1.226254e+01 1.224091e+01 1.205172e+01 1.203967e+01 1.195692e+01 1.221203e+01 1.366192e+01 1.389139e+01 1.306747e+01 1.380971e+01 1.466125e+01 1.529784e+01 1.751961e+01 1.819177e+01 1.802939e+01 1.817477e+01 1.863788e+01 1.767256e+01 1.631045e+01 1.584823e+01 1.448778e+01 1.097235e+01 8.030291e+00 7.616060e+00 7.461497e+00 7.331547e+00 7.182555e+00 7.122191e+00 6.969874e+00 6.953424e+00 6.761937e+00 6.737097e+00 6.476306e+00 6.432322e+00 6.130302e+00 6.088450e+00 5.788427e+00 5.774612e+00 5.523385e+00 5.532279e+00 5.320566e+00 5.290758e+00 5.095724e+00 4.984172e+00 4.808244e+00 4.600196e+00 4.485433e+00 4.224707e+00 4.231644e+00 3.931809e+00 4.036478e+00 3.662113e+00 3.818380e+00 3.360494e+00 3.530478e+00 3.016427e+00 3.196513e+00 2.705085e+00 2.888806e+00 2.464529e+00 2.593699e+00 2.258858e+00 2.276242e+00 2.048321e+00 1.910532e+00 1.821104e+00 1.538492e+00 1.616535e+00 1.199680e+00 1.378712e+00 8.031340e-01 2.062797e+00 6.161387e-01 0 0 0 0 
0 0 0 0 0 5.779025e+00 4.695315e+00 2.215222e+00 4.051543e+00 2.712688e+00 4.861565e+00 3.366155e+00 5.252916e+00 7.280345e+00 1.080292e+01 1.511344e+01 1.935963e+01 2.622885e+01 3.227714e+01 3.621673e+01 4.800342e+01 4.792929e+01 4.696868e+01 4.727873e+01 4.626762e+01 4.668730e+01 4.561377e+01 4.599820e+01 4.484387e+01 4.508537e+01 4.389320e+01 4.398664e+01 4.294994e+01 4.303862e+01 4.231732e+01 4.236761e+01 4.186082e+01 4.170357e+01 4.126092e+01 4.079168e+01 4.036021e+01 3.967187e+01 3.938653e+01 3.867997e+01 3.860553e+01 3.793774e+01 3.801147e+01 3.737175e+01 3.746437e+01 3.677576e+01 3.676655e+01 3.607260e+01 3.600897e+01 3.545239e+01 3.541697e+01 3.517351e+01 3.583195e+01 3.917010e+01 3.958749e+01 3.865378e+01 4.058884e+01 4.204908e+01 4.204025e+01 4.286668e+01 4.077935e+01 3.921140e+01 3.751953e+01 3.657892e+01 3.505591e+01 3.263445e+01 3.158100e+01 3.317213e+01 2.986821e+01 2.362162e+01 2.240299e+01 2.194826e+01 2.156596e+01 2.112764e+01 2.095005e+01 2.050195e+01 2.045354e+01 1.989022e+01 1.981714e+01 1.904996e+01 1.892058e+01 1.803215e+01 1.790906e+01 1.702654e+01 1.698594e+01 1.624699e+01 1.627321e+01 1.565050e+01 1.556286e+01 1.498920e+01 1.466107e+01 1.414358e+01 1.353155e+01 1.319394e+01 1.242692e+01 1.244725e+01 1.156518e+01 1.187300e+01 1.077174e+01 1.123141e+01 9.884595e+00 1.038473e+01 8.872876e+00 9.402862e+00 7.957714e+00 8.498489e+00 7.250936e+00 7.631252e+00 6.646696e+00 6.698046e+00 6.027766e+00 5.622401e+00 5.359115e+00 4.527417e+00 4.756472e+00 3.530511e+00 4.063432e+00 2.375514e+00 6.073639e+00 1.812673e+00 0 0 0 0 
0 0 0 0 0 3.991188e+00 3.235877e+00 1.528512e+00 2.794223e+00 1.872911e+00 3.357886e+00 2.324986e+00 3.628233e+00 2.509855e+01 3.798980e+01 2.765955e+01 2.996893e+01 3.340068e+01 3.314347e+01 4.249390e+01 4.346545e+01 3.311318e+01 3.244946e+01 3.266366e+01 3.196494e+01 3.225483e+01 3.151297e+01 3.177852e+01 3.098087e+01 3.114769e+01 3.032394e+01 3.038850e+01 2.967221e+01 2.973349e+01 2.923514e+01 2.926991e+01 2.891977e+01 2.881114e+01 2.850530e+01 2.818108e+01 2.788297e+01 2.740736e+01 2.721020e+01 2.672200e+01 2.667055e+01 2.620914e+01 2.626007e+01 2.581807e+01 2.588206e+01 2.540629e+01 2.539993e+01 2.492048e+01 2.487653e+01 2.449200e+01 2.446753e+01 2.429933e+01 2.461836e+01 2.277893e+01 1.979490e+01 2.113044e+01 1.973584e+01 1.709684e+01 1.561565e+01 1.227059e+01 1.066947e+01 1.024376e+01 8.435022e+00 8.019742e+00 1.011700e+01 9.685942e+00 8.228137e+00 1.441484e+01 1.760509e+01 1.631882e+01 1.547640e+01 1.516223e+01 1.489810e+01 1.459528e+01 1.447258e+01 1.416300e+01 1.412956e+01 1.374038e+01 1.368988e+01 1.315988e+01 1.307050e+01 1.245674e+01 1.237172e+01 1.176206e+01 1.173404e+01 1.122357e+01 1.124172e+01 1.081156e+01 1.075104e+01 1.035477e+01 1.012810e+01 9.770607e+00 9.347785e+00 9.114536e+00 8.584622e+00 8.598630e+00 7.989237e+00 8.201851e+00 7.441063e+00 7.758607e+00 6.828242e+00 7.173800e+00 6.129508e+00 6.495755e+00 5.497618e+00 5.871368e+00 5.009765e+00 5.272666e+00 4.592709e+00 4.628287e+00 4.165322e+00 3.885262e+00 3.703268e+00 3.128530e+00 3.286519e+00 2.439717e+00 2.810916e+00 1.647378e+00 4.198607e+00 1.252361e+00 0 0 0 0 
0 0 0 0 0 1.775355e-01 1.421941e-01 6.770396e-02 1.233018e-01 8.316793e-02 1.494479e-01 1.034722e-01 1.614905e-01 2.706831e+01 2.954006e+01 2.786327e+01 2.809016e+01 2.843624e+01 2.723884e+01 2.903190e+01 2.731061e+01 1.475885e+00 1.446287e+00 1.455833e+00 1.424648e+00 1.437553e+00 1.404442e+00 1.416265e+00 1.380675e+00 1.388105e+00 1.351362e+00 1.354239e+00 1.322299e+00 1.325035e+00 1.302817e+00 1.304373e+00 1.288764e+00 1.283923e+00 1.270288e+00 1.255830e+00 1.242536e+00 1.221325e+00 1.212530e+00 1.190757e+00 1.188459e+00 1.167881e+00 1.170149e+00 1.150439e+00 1.153291e+00 1.132079e+00 1.131796e+00 1.110423e+00 1.108466e+00 1.091326e+00 1.090238e+00 1.082741e+00 1.007544e+00 4.091078e+00 9.228193e+00 7.603766e+00 9.610258e+00 1.281438e+01 1.349760e+01 1.527985e+01 1.505091e+01 1.390281e+01 1.285484e+01 1.213776e+01 1.084013e+01 7.794000e+00 7.454922e+00 6.098197e+00 1.582114e+00 7.278949e-01 6.894729e-01 6.754662e-01 6.636939e-01 6.501964e-01 6.447273e-01 6.309291e-01 6.294369e-01 6.120925e-01 6.098415e-01 5.862238e-01 5.822418e-01 5.548958e-01 5.511103e-01 5.239513e-01 5.227084e-01 4.999720e-01 5.007876e-01 4.816306e-01 4.789401e-01 4.612913e-01 4.511940e-01 4.352689e-01 4.164266e-01 4.060312e-01 3.824131e-01 3.830280e-01 3.558684e-01 3.653317e-01 3.314336e-01 3.455797e-01 3.041419e-01 3.195510e-01 2.730590e-01 2.894066e-01 2.449900e-01 2.616840e-01 2.233582e-01 2.351141e-01 2.048708e-01 2.064824e-01 1.858769e-01 1.733936e-01 1.652576e-01 1.396060e-01 1.465816e-01 1.088859e-01 1.261961e-01 7.499801e-02 1.877650e-01 5.582614e-02 0 0 0 0 
0 0 0 0 0 0 0 0 0 0 0 0 0 2.972063e+01 3.253407e+01 3.040474e+01 3.078181e+01 3.137021e+01 2.972187e+01 3.227622e+01 2.980437e+01 0 0 0 0 0 0 0 0 0 0 0 0 0 0 0 0 0 0 0 0 0 0 0 0 0 0 0 0 0 0 0 0 0 0 0 3.136322e-02 1.054963e+00 1.991562e+00 1.015221e+00 9.021089e-01 1.262576e+00 8.168858e-01 5.709546e-01 8.230150e-01 1.247757e+00 1.446187e+00 1.837790e+00 2.178921e+00 1.890820e+00 2.171243e+00 2.858963e+00 1.405219e+00 4.996792e-04 0 0 0 0 0 0 0 0 0 0 0 0 0 0 0 0 0 0 0 0 0 0 0 0 0 0 0 0 0 0 0 0 0 0 0 0 0 0 0 0 0 0 0 0 0 0 0 0 0 0 0 0 0 0 
0 0 0 0 0 0 0 0 0 0 0 0 0 2.877843e+01 2.962077e+01 2.892802e+01 2.912171e+01 2.925136e+01 2.877130e+01 2.964444e+01 2.870774e+01 0 0 0 0 0 0 0 0 0 0 0 0 0 0 0 0 0 0 0 0 0 0 0 0 0 0 0 0 0 0 0 0 0 0 0 1.634550e-01 4.395793e-01 3.486595e-01 1.755776e+00 1.142416e+00 9.784939e-01 2.042501e+00 1.777836e+00 1.932125e+00 2.288675e+00 1.957601e+00 1.817116e+00 1.709027e+00 1.507385e+00 1.218557e+00 5.284450e-01 3.208615e-02 0 0 0 0 0 0 0 0 0 0 0 0 0 0 0 0 0 0 0 0 0 0 0 0 0 0 0 0 0 0 0 0 0 0 0 0 0 0 0 0 0 0 0 0 0 0 0 0 0 0 0 0 0 0 0 
0 0 0 0 0 0 0 0 0 0 0 0 0 3.084832e+01 3.210570e+01 3.115200e+01 3.137999e+01 3.169190e+01 3.081275e+01 3.224894e+01 3.065035e+01 0 0 0 0 0 0 0 0 0 0 0 0 0 0 0 0 0 0 0 0 0 0 0 0 0 0 0 0 0 0 0 0 0 0 0 1.345027e-01 8.061722e-01 1.063909e+00 6.644582e-01 8.196289e-01 5.837720e-01 9.263612e-02 2.087303e-01 2.619952e-02 3.351693e-01 3.966607e-01 6.477982e-01 7.028170e-01 8.901906e-01 1.402051e+00 8.857969e-01 7.943969e-02 0 0 0 0 0 0 0 0 0 0 0 0 0 0 0 0 0 0 0 0 0 0 0 0 0 0 0 0 0 0 0 0 0 0 0 0 0 0 0 0 0 0 0 0 0 0 0 0 0 0 0 0 0 0 0 
0 0 0 0 0 0 0 0 0 0 0 0 0 2.878170e+01 2.962323e+01 2.893327e+01 2.912548e+01 2.925871e+01 2.877710e+01 2.965213e+01 2.871547e+01 0 0 0 0 0 0 0 0 0 0 0 0 0 0 0 0 0 0 0 0 0 0 0 0 0 0 0 0 0 0 0 0 0 0 0 1.130615e-02 6.598538e-02 9.430410e-02 6.047683e-02 1.803340e-02 1.576544e-02 1.061349e-02 1.980910e-02 2.842169e-02 2.907601e-02 3.678694e-02 2.043465e-02 2.739462e-02 2.271135e-02 6.427717e-02 6.833921e-02 6.981801e-03 0 0 0 0 0 0 0 0 0 0 0 0 0 0 0 0 0 0 0 0 0 0 0 0 0 0 0 0 0 0 0 0 0 0 0 0 0 0 0 0 0 0 0 0 0 0 0 0 0 0 0 0 0 0 0 
0 0 0 0 0 0 0 0 0 0 0 0 0 2.971842e+01 3.253318e+01 3.041074e+01 3.078105e+01 3.138339e+01 2.972969e+01 3.229027e+01 2.983190e+01 0 0 0 0 0 0 0 0 0 0 0 0 0 0 0 0 0 0 0 0 0 0 0 0 0 0 0 0 0 0 0 0 0 0 0 0 0 0 0 0 0 0 0 0 0 0 0 0 0 0 0 0 0 0 0 0 0 0 0 0 0 0 0 0 0 0 0 0 0 0 0 0 0 0 0 0 0 0 0 0 0 0 0 0 0 0 0 0 0 0 0 0 0 0 0 0 0 0 0 0 0 0 0 0 0 0 0 
0 0 0 0 0 1.775091e-01 1.425708e-01 6.736716e-02 1.239684e-01 8.367337e-02 1.498028e-01 1.034951e-01 1.611659e-01 2.707145e+01 2.954527e+01 2.787799e+01 2.809940e+01 2.846388e+01 2.725642e+01 2.907246e+01 2.735249e+01 1.479483e+00 1.450923e+00 1.459350e+00 1.425609e+00 1.435039e+00 1.399405e+00 1.409777e+00 1.374559e+00 1.384813e+00 1.353201e+00 1.362235e+00 1.334015e+00 1.337074e+00 1.310681e+00 1.306548e+00 1.283771e+00 1.273874e+00 1.256934e+00 1.244381e+00 1.235224e+00 1.220623e+00 1.215675e+00 1.196452e+00 1.192353e+00 1.168770e+00 1.164073e+00 1.137890e+00 1.133574e+00 1.109155e+00 1.105992e+00 1.083369e+00 1.077675e+00 1.055601e+00 1.046011e+00 1.024755e+00 1.010029e+00 9.898490e-01 9.715292e-01 9.557413e-01 9.359445e-01 9.238255e-01 9.029231e-01 8.940257e-01 8.715359e-01 8.633842e-01 8.370701e-01 8.274832e-01 7.992884e-01 7.895906e-01 7.630946e-01 7.555447e-01 7.358760e-01 7.318540e-01 7.178739e-01 7.108880e-01 6.966311e-01 6.812844e-01 6.655997e-01 6.425246e-01 6.292037e-01 6.047712e-01 6.008629e-01 5.799771e-01 5.839987e-01 5.622084e-01 5.663442e-01 5.390722e-01 5.379748e-01 5.059586e-01 5.012309e-01 4.731582e-01 4.698785e-01 4.509700e-01 4.462769e-01 4.347415e-01 4.230892e-01 4.160497e-01 3.926919e-01 3.893548e-01 3.566249e-01 3.620928e-01 3.251949e-01 3.397105e-01 2.992331e-01 3.189959e-01 2.757179e-01 2.953966e-01 2.504001e-01 2.659979e-01 2.248812e-01 2.349345e-01 2.024486e-01 2.032781e-01 1.828575e-01 1.721917e-01 1.656148e-01 1.403036e-01 1.469512e-01 1.088426e-01 1.267948e-01 7.536741e-02 1.879613e-01 5.578662e-02 0 0 0 0 
0 0 0 0 0 3.990593e+00 3.244293e+00 1.521821e+00 2.809267e+00 1.884300e+00 3.365865e+00 2.325521e+00 3.620974e+00 2.505683e+01 3.797451e+01 2.766894e+01 2.994395e+01 3.345123e+01 3.315191e+01 4.255206e+01 4.361722e+01 3.319381e+01 3.255336e+01 3.274244e+01 3.198643e+01 3.219839e+01 3.139998e+01 3.163299e+01 3.084368e+01 3.107387e+01 3.036516e+01 3.056780e+01 2.993495e+01 3.000347e+01 2.941150e+01 2.931871e+01 2.880780e+01 2.858579e+01 2.820581e+01 2.792430e+01 2.771896e+01 2.739159e+01 2.728067e+01 2.684968e+01 2.675785e+01 2.622904e+01 2.612376e+01 2.553659e+01 2.543982e+01 2.489213e+01 2.482120e+01 2.431373e+01 2.418598e+01 2.369079e+01 2.347563e+01 2.299879e+01 2.266845e+01 2.221572e+01 2.180478e+01 2.145061e+01 2.100655e+01 2.073470e+01 2.026583e+01 2.006626e+01 1.956176e+01 1.937891e+01 1.878856e+01 1.857348e+01 1.794087e+01 1.772326e+01 1.712871e+01 1.695927e+01 1.651787e+01 1.642757e+01 1.611381e+01 1.595703e+01 1.563708e+01 1.529273e+01 1.494077e+01 1.442303e+01 1.412414e+01 1.357594e+01 1.348829e+01 1.301965e+01 1.310993e+01 1.262091e+01 1.271368e+01 1.210153e+01 1.207679e+01 1.135804e+01 1.125176e+01 1.062145e+01 1.054767e+01 1.012307e+01 1.001764e+01 9.758655e+00 9.497177e+00 9.339258e+00 8.815200e+00 8.740501e+00 8.006116e+00 8.129071e+00 7.300982e+00 7.626858e+00 6.718080e+00 7.161394e+00 6.189280e+00 6.630294e+00 5.619141e+00 5.968266e+00 5.043979e+00 5.268645e+00 4.538297e+00 4.556309e+00 4.097490e+00 3.858224e+00 3.711260e+00 3.144178e+00 3.294804e+00 2.438743e+00 2.824519e+00 1.655799e+00 4.203068e+00 1.251476e+00 0 0 0 0 
0 0 0 0 0 5.778163e+00 4.707488e+00 2.205757e+00 4.073340e+00 2.729185e+00 4.873119e+00 3.366935e+00 5.242415e+00 7.235580e+00 1.077405e+01 1.510733e+01 1.935284e+01 2.623951e+01 3.232694e+01 3.623662e+01 4.809204e+01 4.804596e+01 4.711903e+01 4.739273e+01 4.629869e+01 4.660559e+01 4.545022e+01 4.578757e+01 4.464530e+01 4.497852e+01 4.395284e+01 4.424614e+01 4.333021e+01 4.342936e+01 4.257256e+01 4.243824e+01 4.169876e+01 4.137743e+01 4.082746e+01 4.042002e+01 4.012283e+01 3.964903e+01 3.948852e+01 3.886475e+01 3.873186e+01 3.796652e+01 3.781417e+01 3.696434e+01 3.682429e+01 3.603160e+01 3.592893e+01 3.519442e+01 3.500952e+01 3.429278e+01 3.398135e+01 3.329116e+01 3.281302e+01 3.215774e+01 3.156296e+01 3.105033e+01 3.040760e+01 3.001413e+01 2.933550e+01 2.904665e+01 2.831644e+01 2.805177e+01 2.719730e+01 2.688598e+01 2.597032e+01 2.565533e+01 2.479473e+01 2.454946e+01 2.391053e+01 2.377982e+01 2.332565e+01 2.309870e+01 2.263557e+01 2.213714e+01 2.162768e+01 2.087829e+01 2.044566e+01 1.965217e+01 1.952531e+01 1.884696e+01 1.897765e+01 1.826980e+01 1.840408e+01 1.751796e+01 1.748210e+01 1.644165e+01 1.628777e+01 1.537531e+01 1.526847e+01 1.465380e+01 1.450116e+01 1.412625e+01 1.374777e+01 1.351919e+01 1.276065e+01 1.265258e+01 1.158958e+01 1.176763e+01 1.056895e+01 1.104069e+01 9.725134e+00 1.036678e+01 8.959421e+00 9.597636e+00 8.133645e+00 8.638771e+00 7.300469e+00 7.625433e+00 6.567922e+00 6.593841e+00 5.929560e+00 5.583246e+00 5.370676e+00 4.550064e+00 4.768462e+00 3.529099e+00 4.083166e+00 2.387736e+00 6.080110e+00 1.811393e+00 0 0 0 0 
0 0 0 0 0 1.965079e+00 1.605766e+00 7.513021e-01 1.388042e+00 9.285588e-01 1.657056e+00 1.144909e+00 1.782607e+00 2.459873e+00 3.662734e+00 5.135806e+00 6.579070e+00 8.919938e+00 1.098927e+01 1.231810e+01 1.634737e+01 1.633164e+01 1.601660e+01 1.610964e+01 1.573788e+01 1.584225e+01 1.544965e+01 1.556436e+01 1.517618e+01 1.528946e+01 1.494089e+01 1.504058e+01 1.472927e+01 1.476296e+01 1.447174e+01 1.442608e+01 1.417473e+01 1.406551e+01 1.387858e+01 1.374010e+01 1.363909e+01 1.347807e+01 1.342352e+01 1.321152e+01 1.316637e+01 1.290626e+01 1.285448e+01 1.256564e+01 1.251804e+01 1.224862e+01 1.221372e+01 1.196406e+01 1.190121e+01 1.165759e+01 1.155173e+01 1.131713e+01 1.115461e+01 1.093187e+01 1.072971e+01 1.055546e+01 1.033700e+01 1.020326e+01 9.972593e+00 9.874411e+00 9.626211e+00 9.536251e+00 9.245806e+00 9.139983e+00 8.828733e+00 8.721660e+00 8.429117e+00 8.345739e+00 8.128543e+00 8.084103e+00 7.929710e+00 7.852562e+00 7.695126e+00 7.525699e+00 7.352518e+00 7.097784e+00 6.950722e+00 6.680997e+00 6.637882e+00 6.407292e+00 6.451722e+00 6.211095e+00 6.256736e+00 5.955497e+00 5.943294e+00 5.589573e+00 5.537241e+00 5.227023e+00 5.190680e+00 4.981700e+00 4.929799e+00 4.802339e+00 4.673680e+00 4.595986e+00 4.338145e+00 4.301429e+00 3.940093e+00 4.000647e+00 3.593168e+00 3.753545e+00 3.306287e+00 3.524384e+00 3.045859e+00 3.262738e+00 2.764905e+00 2.936504e+00 2.481372e+00 2.591722e+00 2.232073e+00 2.240810e+00 2.014928e+00 1.897214e+00 1.825031e+00 1.546190e+00 1.620610e+00 1.199199e+00 1.385441e+00 8.073046e-01 2.065003e+00 6.157039e-01 0 0 0 0 
0 0 0 0 0 0 0 0 0 0 0 0 0 0 0 0 0 0 0 0 0 0 0 0 0 0 0 0 0 0 0 0 0 0 0 0 0 0 0 0 0 0 0 0 0 0 0 0 0 0 0 0 0 0 0 0 0 0 0 0 0 0 0 0 0 0 0 0 0 0 0 0 0 0 0 0 0 0 0 0 0 0 0 0 0 0 0 0 0 0 0 0 0 0 0 0 0 0 0 0 0 0 0 0 0 0 0 0 0 0 0 0 0 0 0 0 0 0 0 0 0 0 0 0 0 0 0 0 
