# vtk DataFile Version 2.0
Comment goes here
ASCII

DATASET STRUCTURED_POINTS
FIELD FieldData 1
TIME 1 1 double
0.22000000
DIMENSIONS    128   16   1

ORIGIN    0.000   0.000   0.000
SPACING   0.0078125 0.015625   1.000

POINT_DATA   2048
SCALARS fMag double
LOOKUP_TABLE default

0 0 0 0 0 0 0 0 0 0 0 0 0 0 0 0 0 0 0 0 0 0 0 0 0 0 0 0 0 0 0 0 0 0 0 0 0 0 0 0 0 0 0 0 0 0 0 0 0 0 0 0 0 0 0 0 0 0 0 0 0 0 0 0 0 0 0 0 0 0 0 0 0 0 0 0 0 0 0 0 0 0 0 0 0 0 0 0 0 0 0 0 0 0 0 0 0 0 0 0 0 0 0 0 0 0 0 0 0 0 0 0 0 0 0 0 0 0 0 0 0 0 0 0 0 0 0 0 
0 0 0 0 0 0 0 0 0 0 0 0 0 0 0 0 0 0 0 0 0 0 0 0 0 0 0 0 0 0 0 0 0 0 0 0 0 0 0 0 0 0 0 0 0 0 0 0 0 0 0 0 0 0 0 0 0 0 0 0 0 0 0 0 0 0 0 0 0 0 0 0 0 0 0 0 0 0 0 0 0 0 0 0 0 0 0 0 0 0 0 0 0 0 0 0 0 0 0 0 0 0 0 0 0 0 0 0 0 0 0 0 0 0 0 0 0 0 0 0 0 0 0 0 0 0 0 0 
0 0 0 0 0 2.012029e+00 1.485965e+00 8.208829e-01 1.231110e+00 8.858981e-01 1.663854e+00 1.314097e+00 1.984466e+00 2.480182e+00 3.409030e+00 4.801653e+00 6.257728e+00 8.605868e+00 1.053447e+01 1.182063e+01 1.573666e+01 1.571040e+01 1.555765e+01 1.575239e+01 1.512129e+01 1.457665e+01 1.360440e+01 1.368401e+01 1.387610e+01 1.496708e+01 1.572696e+01 1.653847e+01 1.625803e+01 1.576981e+01 1.473791e+01 1.407766e+01 1.357331e+01 1.339743e+01 1.319069e+01 1.303871e+01 1.298693e+01 1.289047e+01 1.286955e+01 1.259037e+01 1.234521e+01 1.177336e+01 1.156884e+01 1.146561e+01 1.188896e+01 1.223957e+01 1.291279e+01 1.315274e+01 1.296688e+01 1.187231e+01 1.056213e+01 9.205537e+00 9.009552e+00 1.064546e+01 1.201315e+01 1.254743e+01 1.325767e+01 1.267860e+01 1.539659e+01 1.962166e+01 1.899090e+01 1.664775e+01 1.432134e+01 1.205572e+01 9.233747e+00 7.474815e+00 6.629661e+00 7.843087e+00 9.782721e+00 1.053621e+01 1.034485e+01 9.565492e+00 8.117452e+00 6.498080e+00 5.118441e+00 4.243560e+00 4.278569e+00 5.102678e+00 6.644783e+00 7.923787e+00 8.884754e+00 8.751701e+00 8.188197e+00 6.799686e+00 5.486683e+00 4.055833e+00 3.588311e+00 3.608019e+00 4.556609e+00 5.712129e+00 6.870979e+00 7.230986e+00 6.897907e+00 6.157806e+00 4.831076e+00 3.699660e+00 2.788125e+00 2.748556e+00 2.342109e+00 2.616840e+00 2.340653e+00 2.618441e+00 2.215374e+00 2.776950e+00 2.824941e+00 3.544136e+00 3.746903e+00 4.291863e+00 3.622023e+00 2.611680e+00 1.239756e+00 5.877557e-01 2.545323e-01 4.830298e-01 2.072810e+00 2.847889e+00 3.508956e+00 2.437671e+00 2.613289e+00 5.690375e-01 0 0 0 0 
0 0 0 0 0 5.919666e+00 4.387535e+00 2.411344e+00 3.629988e+00 2.607186e+00 4.894453e+00 3.865481e+00 5.837378e+00 7.294569e+00 1.002605e+01 1.412155e+01 1.840376e+01 2.530874e+01 3.098037e+01 3.476215e+01 4.627625e+01 4.619874e+01 4.574954e+01 4.632219e+01 4.446686e+01 4.286559e+01 4.000717e+01 4.024141e+01 4.080629e+01 4.401417e+01 4.624840e+01 4.863438e+01 4.780986e+01 4.637440e+01 4.334032e+01 4.139903e+01 3.991605e+01 3.939886e+01 3.879095e+01 3.834409e+01 3.819184e+01 3.790826e+01 3.784675e+01 3.702590e+01 3.630507e+01 3.462363e+01 3.402227e+01 3.371874e+01 3.496360e+01 3.599453e+01 3.797405e+01 3.867956e+01 3.813305e+01 3.491448e+01 3.106196e+01 2.707274e+01 2.613490e+01 2.912306e+01 3.407982e+01 3.906284e+01 4.336612e+01 4.420965e+01 4.589499e+01 4.571948e+01 3.940382e+01 3.526608e+01 3.007622e+01 2.654093e+01 2.336740e+01 2.227252e+01 2.312787e+01 2.607810e+01 2.898320e+01 3.098578e+01 3.042305e+01 2.813129e+01 2.387301e+01 1.911094e+01 1.505357e+01 1.248067e+01 1.258365e+01 1.500725e+01 1.954242e+01 2.330366e+01 2.612959e+01 2.573835e+01 2.408125e+01 1.999794e+01 1.613662e+01 1.192849e+01 1.055350e+01 1.061139e+01 1.340103e+01 1.679937e+01 2.020721e+01 2.126592e+01 2.028645e+01 1.810990e+01 1.420831e+01 1.088084e+01 8.200117e+00 8.083833e+00 6.888500e+00 7.696521e+00 6.884171e+00 7.701032e+00 6.515340e+00 8.166681e+00 8.307541e+00 1.042224e+01 1.101823e+01 1.262038e+01 1.064989e+01 7.678530e+00 3.643306e+00 1.728053e+00 7.499480e-01 1.418004e+00 6.094857e+00 8.374343e+00 1.031391e+01 7.160416e+00 7.681884e+00 1.673276e+00 0 0 0 0 
0 0 0 0 0 4.089992e+00 3.038987e+00 1.664297e+00 2.511848e+00 1.801712e+00 3.381253e+00 2.670348e+00 4.032559e+00 2.440066e+01 3.697665e+01 2.668150e+01 2.887167e+01 3.270389e+01 3.235979e+01 4.190691e+01 4.207618e+01 3.190812e+01 3.159786e+01 3.199336e+01 3.071219e+01 2.960639e+01 2.763246e+01 2.779432e+01 2.818447e+01 3.039991e+01 3.194288e+01 3.359061e+01 3.302121e+01 3.202988e+01 2.993453e+01 2.859387e+01 2.756968e+01 2.721248e+01 2.679264e+01 2.648402e+01 2.637889e+01 2.618305e+01 2.614058e+01 2.557370e+01 2.507588e+01 2.391465e+01 2.349935e+01 2.328972e+01 2.414947e+01 2.486147e+01 2.622857e+01 2.671581e+01 2.633835e+01 2.411548e+01 2.145478e+01 1.869956e+01 1.730411e+01 1.505172e+01 1.704594e+01 2.286734e+01 2.540375e+01 2.751449e+01 2.642461e+01 1.772034e+01 1.262692e+01 1.361150e+01 1.038274e+01 1.039590e+01 1.119556e+01 1.228173e+01 1.444780e+01 1.745734e+01 1.979256e+01 2.140218e+01 2.101351e+01 1.943069e+01 1.648958e+01 1.320051e+01 1.039805e+01 8.620925e+00 8.692069e+00 1.036607e+01 1.349856e+01 1.609641e+01 1.804823e+01 1.777803e+01 1.663349e+01 1.381318e+01 1.114617e+01 8.239485e+00 7.289735e+00 7.329689e+00 9.256501e+00 1.160380e+01 1.395753e+01 1.468878e+01 1.401229e+01 1.250893e+01 9.814140e+00 7.515779e+00 5.664173e+00 5.583895e+00 4.758257e+00 5.316398e+00 4.755245e+00 5.319419e+00 4.500296e+00 5.640801e+00 5.737962e+00 7.198421e+00 7.609927e+00 8.716291e+00 7.354986e+00 5.302607e+00 2.515171e+00 1.193358e+00 5.186774e-01 9.782022e-01 4.209273e+00 5.783769e+00 7.121239e+00 4.941653e+00 5.304256e+00 1.155652e+00 0 0 0 0 
0 0 0 0 0 1.823553e-01 1.374165e-01 7.383670e-02 1.129692e-01 8.042364e-02 1.506531e-01 1.189642e-01 1.796476e-01 2.624206e+01 2.865347e+01 2.706315e+01 2.735926e+01 2.766365e+01 2.661428e+01 2.834930e+01 2.679585e+01 1.419769e+00 1.405961e+00 1.423558e+00 1.366615e+00 1.317449e+00 1.229694e+00 1.236916e+00 1.254277e+00 1.352816e+00 1.421434e+00 1.494701e+00 1.469383e+00 1.425301e+00 1.332115e+00 1.272495e+00 1.226938e+00 1.211049e+00 1.192372e+00 1.178647e+00 1.173972e+00 1.165264e+00 1.163378e+00 1.138169e+00 1.116028e+00 1.064381e+00 1.045911e+00 1.036588e+00 1.074834e+00 1.106504e+00 1.167309e+00 1.188980e+00 1.172187e+00 1.073303e+00 9.549452e-01 8.323541e-01 1.983483e-01 3.671238e+00 5.233844e+00 3.551485e+00 4.530466e+00 3.903032e+00 4.151570e+00 8.330422e+00 8.784923e+00 6.499002e+00 6.246445e+00 5.283763e+00 3.331633e+00 2.113160e+00 1.202774e+00 4.095386e-01 6.672310e-01 9.526088e-01 9.353135e-01 8.648925e-01 7.340134e-01 5.876556e-01 4.629179e-01 3.838201e-01 3.869899e-01 4.614978e-01 6.009272e-01 7.165376e-01 8.033927e-01 7.913730e-01 7.404411e-01 6.149276e-01 4.962281e-01 3.668307e-01 3.245499e-01 3.263199e-01 4.120763e-01 5.165646e-01 6.213037e-01 6.538483e-01 6.237474e-01 5.568332e-01 4.369086e-01 3.345963e-01 2.521809e-01 2.486180e-01 2.118666e-01 2.367177e-01 2.117269e-01 2.368282e-01 2.003300e-01 2.510702e-01 2.553611e-01 3.203199e-01 3.385967e-01 3.877767e-01 3.271161e-01 2.357575e-01 1.116210e-01 5.306055e-02 2.326164e-02 4.322816e-02 1.872264e-01 2.573154e-01 3.162856e-01 2.189085e-01 2.356618e-01 5.141360e-02 0 0 0 0 
0 0 0 0 0 0 0 0 0 0 0 0 0 2.890820e+01 3.168918e+01 2.957317e+01 3.000215e+01 3.057096e+01 2.904182e+01 3.147481e+01 2.911360e+01 0 0 0 0 0 0 0 0 0 0 0 0 0 0 0 0 0 0 0 0 0 0 0 0 0 0 0 0 0 0 0 0 0 0 0 1.252579e-01 6.847825e-01 7.376078e-01 3.500118e-01 4.999167e-01 4.036087e-01 3.271172e-01 5.372666e-01 1.164506e-01 3.235101e-01 4.429161e-01 7.938343e-01 9.533581e-01 8.963369e-01 1.039138e+00 6.606704e-01 7.882445e-02 0 0 0 0 0 0 0 0 0 0 0 0 0 0 0 0 0 0 0 0 0 0 0 0 0 0 0 0 0 0 0 0 0 0 0 0 0 0 0 0 0 0 0 0 0 0 0 0 0 0 0 0 0 0 0 
0 0 0 0 0 0 0 0 0 0 0 0 0 2.790010e+01 2.890936e+01 2.805252e+01 2.840858e+01 2.836307e+01 2.806673e+01 2.871165e+01 2.799032e+01 0 0 0 0 0 0 0 0 0 0 0 0 0 0 0 0 0 0 0 0 0 0 0 0 0 0 0 0 0 0 0 0 0 0 0 1.996801e-01 9.529702e-01 1.134726e+00 8.296435e-01 1.178949e+00 8.889692e-01 6.466721e-01 1.303767e+00 9.856587e-01 5.646837e-01 8.051932e-01 7.073254e-01 6.953784e-01 7.463896e-01 6.614796e-01 3.174033e-01 3.411089e-03 0 0 0 0 0 0 0 0 0 0 0 0 0 0 0 0 0 0 0 0 0 0 0 0 0 0 0 0 0 0 0 0 0 0 0 0 0 0 0 0 0 0 0 0 0 0 0 0 0 0 0 0 0 0 0 
0 0 0 0 0 0 0 0 0 0 0 0 0 2.996432e+01 3.134947e+01 3.027948e+01 3.062156e+01 3.081997e+01 3.007602e+01 3.134827e+01 2.992608e+01 0 0 0 0 0 0 0 0 0 0 0 0 0 0 0 0 0 0 0 0 0 0 0 0 0 0 0 0 0 0 0 0 0 0 0 8.944075e-02 4.432414e-01 4.313665e-01 1.871362e-01 3.471586e-01 2.276509e-01 2.118843e-01 6.055491e-01 5.210982e-01 4.306766e-01 5.555720e-01 3.620035e-01 2.121403e-01 1.968057e-01 1.557177e-01 7.858538e-02 7.019163e-03 0 0 0 0 0 0 0 0 0 0 0 0 0 0 0 0 0 0 0 0 0 0 0 0 0 0 0 0 0 0 0 0 0 0 0 0 0 0 0 0 0 0 0 0 0 0 0 0 0 0 0 0 0 0 0 
0 0 0 0 0 0 0 0 0 0 0 0 0 2.789103e+01 2.889577e+01 2.804882e+01 2.839544e+01 2.837280e+01 2.806485e+01 2.874594e+01 2.801462e+01 0 0 0 0 0 0 0 0 0 0 0 0 0 0 0 0 0 0 0 0 0 0 0 0 0 0 0 0 0 0 0 0 0 0 0 3.697199e-03 1.711122e-02 1.180363e-02 6.054155e-02 8.500592e-02 1.034414e-01 4.925474e-02 4.992459e-02 9.653632e-02 1.049027e-01 9.374049e-02 4.848306e-02 2.494313e-03 3.408304e-02 5.813317e-02 3.714644e-02 2.073209e-03 0 0 0 0 0 0 0 0 0 0 0 0 0 0 0 0 0 0 0 0 0 0 0 0 0 0 0 0 0 0 0 0 0 0 0 0 0 0 0 0 0 0 0 0 0 0 0 0 0 0 0 0 0 0 0 
0 0 0 0 0 0 0 0 0 0 0 0 0 2.880863e+01 3.161756e+01 2.954287e+01 2.994815e+01 3.055521e+01 2.896939e+01 3.151344e+01 2.913387e+01 0 0 0 0 0 0 0 0 0 0 0 0 0 0 0 0 0 0 0 0 0 0 0 0 0 0 0 0 0 0 0 0 0 0 0 0 0 0 0 0 0 0 0 0 0 0 0 0 0 0 0 0 0 0 0 0 0 0 0 0 0 0 0 0 0 0 0 0 0 0 0 0 0 0 0 0 0 0 0 0 0 0 0 0 0 0 0 0 0 0 0 0 0 0 0 0 0 0 0 0 0 0 0 0 0 0 0 
0 0 0 0 0 1.833482e-01 1.465932e-01 8.445651e-02 1.332862e-01 9.181095e-02 1.501981e-01 1.031544e-01 1.561999e-01 2.618204e+01 2.862414e+01 2.701139e+01 2.728071e+01 2.765328e+01 2.656422e+01 2.834300e+01 2.675612e+01 1.434085e+00 1.394389e+00 1.380764e+00 1.356683e+00 1.410041e+00 1.415335e+00 1.425010e+00 1.346544e+00 1.282075e+00 1.183674e+00 1.180345e+00 1.198487e+00 1.257480e+00 1.252566e+00 1.217004e+00 1.131614e+00 1.084068e+00 1.085177e+00 1.121821e+00 1.159411e+00 1.180401e+00 1.203024e+00 1.204860e+00 1.210922e+00 1.184380e+00 1.163356e+00 1.112747e+00 1.080766e+00 1.036377e+00 1.019514e+00 9.827295e-01 9.626892e-01 9.370858e-01 9.399184e-01 9.544949e-01 9.946204e-01 1.018913e+00 1.003549e+00 9.428354e-01 8.510043e-01 7.766986e-01 7.285322e-01 7.244359e-01 7.339107e-01 7.970431e-01 8.679922e-01 9.365684e-01 9.365790e-01 9.012297e-01 7.919439e-01 6.661349e-01 5.484880e-01 5.118396e-01 5.310141e-01 6.071990e-01 6.982272e-01 7.713183e-01 8.047231e-01 8.107484e-01 8.190296e-01 7.837399e-01 7.226497e-01 6.182366e-01 5.305409e-01 4.162116e-01 3.514056e-01 3.009011e-01 3.311759e-01 3.889903e-01 5.137938e-01 5.897476e-01 6.099907e-01 5.350450e-01 4.404913e-01 3.573085e-01 3.250602e-01 3.461557e-01 3.737911e-01 4.166166e-01 3.992254e-01 3.967054e-01 3.487944e-01 3.556373e-01 2.945040e-01 2.840280e-01 2.168344e-01 2.407900e-01 2.264870e-01 2.884183e-01 2.833106e-01 3.066106e-01 2.696288e-01 2.536187e-01 2.154662e-01 1.816947e-01 1.428509e-01 5.792740e-02 2.019457e-02 4.759204e-02 1.632290e-03 3.904051e-02 1.682382e-01 4.678839e-02 0 0 0 0 
0 0 0 0 0 4.112206e+00 3.245097e+00 1.886644e+00 2.965676e+00 2.055742e+00 3.370755e+00 2.315043e+00 3.505868e+00 2.393161e+01 3.681593e+01 2.688021e+01 2.902205e+01 3.257304e+01 3.210691e+01 4.139340e+01 4.231199e+01 3.223008e+01 3.133745e+01 3.103112e+01 3.048919e+01 3.168838e+01 3.180697e+01 3.202416e+01 3.025913e+01 2.880933e+01 2.659662e+01 2.652163e+01 2.692954e+01 2.825606e+01 2.814564e+01 2.734612e+01 2.542660e+01 2.435762e+01 2.438256e+01 2.520649e+01 2.605151e+01 2.652340e+01 2.703195e+01 2.707315e+01 2.720935e+01 2.661248e+01 2.613976e+01 2.500187e+01 2.428288e+01 2.328499e+01 2.290593e+01 2.207909e+01 2.162863e+01 2.105317e+01 2.111688e+01 2.144457e+01 2.234663e+01 2.289267e+01 2.254728e+01 2.118263e+01 1.911841e+01 1.744845e+01 1.636593e+01 1.627383e+01 1.648674e+01 1.790550e+01 1.950009e+01 2.104144e+01 2.104166e+01 2.024718e+01 1.779111e+01 1.496380e+01 1.232044e+01 1.149699e+01 1.192783e+01 1.363982e+01 1.568515e+01 1.732779e+01 1.807845e+01 1.821379e+01 1.839981e+01 1.760660e+01 1.623376e+01 1.388735e+01 1.191693e+01 9.348326e+00 7.892446e+00 6.758091e+00 7.438309e+00 8.737210e+00 1.154153e+01 1.324800e+01 1.370309e+01 1.201958e+01 9.895043e+00 8.026622e+00 7.302096e+00 7.775753e+00 8.396481e+00 9.358210e+00 8.967202e+00 8.910411e+00 7.833951e+00 7.987652e+00 6.614571e+00 6.379576e+00 4.871031e+00 5.409852e+00 5.089590e+00 6.482047e+00 6.368373e+00 6.892887e+00 6.063243e+00 5.704132e+00 4.847559e+00 4.088732e+00 3.215609e+00 1.306993e+00 4.584501e-01 1.064731e+00 4.110246e-02 8.643345e-01 3.788386e+00 1.051602e+00 0 0 0 0 
0 0 0 0 0 5.951803e+00 4.685924e+00 2.729076e+00 4.286356e+00 2.974508e+00 4.879186e+00 3.351049e+00 5.074868e+00 6.922448e+00 1.054919e+01 1.484026e+01 1.870200e+01 2.537419e+01 3.123435e+01 3.511709e+01 4.683144e+01 4.666495e+01 4.537243e+01 4.492887e+01 4.414404e+01 4.588032e+01 4.605192e+01 4.636632e+01 4.381038e+01 4.171103e+01 3.850702e+01 3.839838e+01 3.898903e+01 4.090984e+01 4.074997e+01 3.959230e+01 3.681297e+01 3.526512e+01 3.530124e+01 3.649428e+01 3.771780e+01 3.840108e+01 3.913743e+01 3.919706e+01 3.939426e+01 3.852997e+01 3.784548e+01 3.619785e+01 3.515677e+01 3.371189e+01 3.316304e+01 3.196586e+01 3.131362e+01 3.048042e+01 3.057267e+01 3.104715e+01 3.235329e+01 3.314390e+01 3.264379e+01 3.066793e+01 2.767912e+01 2.526123e+01 2.369387e+01 2.356052e+01 2.386878e+01 2.592293e+01 2.823170e+01 3.046341e+01 3.046373e+01 2.931343e+01 2.575737e+01 2.166382e+01 1.783676e+01 1.664456e+01 1.726834e+01 1.974702e+01 2.270827e+01 2.508659e+01 2.617343e+01 2.636937e+01 2.663868e+01 2.549017e+01 2.350252e+01 2.010528e+01 1.725249e+01 1.353370e+01 1.142593e+01 9.783706e+00 1.076853e+01 1.264905e+01 1.670920e+01 1.917982e+01 1.983876e+01 1.740146e+01 1.432554e+01 1.162058e+01 1.057162e+01 1.125730e+01 1.215594e+01 1.354821e+01 1.298204e+01 1.289978e+01 1.134128e+01 1.156380e+01 9.575971e+00 9.235842e+00 7.052067e+00 7.832321e+00 7.368925e+00 9.385171e+00 9.220870e+00 9.980516e+00 8.779680e+00 8.259913e+00 7.019929e+00 5.921288e+00 4.657085e+00 1.893653e+00 6.649421e-01 1.540358e+00 6.178693e-02 1.248260e+00 5.486960e+00 1.522598e+00 0 0 0 0 
0 0 0 0 0 2.022945e+00 1.587419e+00 9.268891e-01 1.453967e+00 1.010577e+00 1.658629e+00 1.139160e+00 1.725200e+00 2.353689e+00 3.586911e+00 5.046034e+00 6.359147e+00 8.628137e+00 1.062085e+01 1.194135e+01 1.592551e+01 1.586896e+01 1.542936e+01 1.527851e+01 1.501153e+01 1.560197e+01 1.566028e+01 1.576717e+01 1.489780e+01 1.418378e+01 1.309407e+01 1.305710e+01 1.325798e+01 1.391126e+01 1.385690e+01 1.346319e+01 1.251798e+01 1.199157e+01 1.200386e+01 1.240961e+01 1.282571e+01 1.305808e+01 1.330850e+01 1.332877e+01 1.339583e+01 1.310187e+01 1.286908e+01 1.230872e+01 1.195466e+01 1.146328e+01 1.127662e+01 1.086949e+01 1.064768e+01 1.036434e+01 1.039572e+01 1.055708e+01 1.100128e+01 1.127015e+01 1.110007e+01 1.042813e+01 9.411706e+00 8.589477e+00 8.056475e+00 8.011124e+00 8.115948e+00 8.814471e+00 9.599606e+00 1.035854e+01 1.035865e+01 9.967471e+00 8.758199e+00 7.366158e+00 6.064807e+00 5.659407e+00 5.871520e+00 6.714396e+00 7.721350e+00 8.530122e+00 8.899703e+00 8.966324e+00 9.057894e+00 8.667318e+00 7.991410e+00 6.836162e+00 5.866099e+00 4.601586e+00 3.884886e+00 3.326516e+00 3.661392e+00 4.300834e+00 5.681464e+00 6.521562e+00 6.745658e+00 5.916932e+00 4.870990e+00 3.951266e+00 3.594583e+00 3.827702e+00 4.133251e+00 4.606617e+00 4.414066e+00 4.386072e+00 3.856124e+00 3.931783e+00 3.255904e+00 3.140294e+00 2.397870e+00 2.663258e+00 2.505821e+00 3.191542e+00 3.135807e+00 3.394240e+00 2.986065e+00 2.809399e+00 2.387836e+00 2.014251e+00 1.584327e+00 6.445878e-01 2.266865e-01 5.232192e-01 2.226854e-02 4.229661e-01 1.866811e+00 5.177853e-01 0 0 0 0 
0 0 0 0 0 0 0 0 0 0 0 0 0 0 0 0 0 0 0 0 0 0 0 0 0 0 0 0 0 0 0 0 0 0 0 0 0 0 0 0 0 0 0 0 0 0 0 0 0 0 0 0 0 0 0 0 0 0 0 0 0 0 0 0 0 0 0 0 0 0 0 0 0 0 0 0 0 0 0 0 0 0 0 0 0 0 0 0 0 0 0 0 0 0 0 0 0 0 0 0 0 0 0 0 0 0 0 0 0 0 0 0 0 0 0 0 0 0 0 0 0 0 0 0 0 0 0 0 
