# vtk DataFile Version 2.0
Comment goes here
ASCII

DATASET STRUCTURED_POINTS
FIELD FieldData 1
TIME 1 1 double
0.58000000
DIMENSIONS    128   16   1

ORIGIN    0.000   0.000   0.000
SPACING   0.0078125 0.015625   1.000

POINT_DATA   2048
SCALARS fMag double
LOOKUP_TABLE default

0 0 0 0 0 0 0 0 0 0 0 0 0 0 0 0 0 0 0 0 0 0 0 0 0 0 0 0 0 0 0 0 0 0 0 0 0 0 0 0 0 0 0 0 0 0 0 0 0 0 0 0 0 0 0 0 0 0 0 0 0 0 0 0 0 0 0 0 0 0 0 0 0 0 0 0 0 0 0 0 0 0 0 0 0 0 0 0 0 0 0 0 0 0 0 0 0 0 0 0 0 0 0 0 0 0 0 0 0 0 0 0 0 0 0 0 0 0 0 0 0 0 0 0 0 0 0 0 
0 0 0 0 0 0 0 0 0 0 0 0 0 0 0 0 0 0 0 0 0 0 0 0 0 0 0 0 0 0 0 0 0 0 0 0 0 0 0 0 0 0 0 0 0 0 0 0 0 0 0 0 0 0 0 0 0 0 0 0 0 0 0 0 0 0 0 0 0 0 0 0 0 0 0 0 0 0 0 0 0 0 0 0 0 0 0 0 0 0 0 0 0 0 0 0 0 0 0 0 0 0 0 0 0 0 0 0 0 0 0 0 0 0 0 0 0 0 0 0 0 0 0 0 0 0 0 0 
0 0 0 0 0 1.661403e+00 5.585892e-01 1.180256e+00 4.436830e-01 5.398311e-01 4.995373e-01 5.785008e-01 8.587335e-01 1.001331e+00 1.391547e+00 1.412998e+00 3.061179e+00 3.561823e+00 4.526341e+00 5.949133e+00 6.097236e+00 6.503162e+00 6.360156e+00 6.304235e+00 6.202486e+00 6.039120e+00 6.046235e+00 5.878282e+00 5.984218e+00 5.790481e+00 5.908291e+00 5.678165e+00 5.781062e+00 5.537969e+00 5.589058e+00 5.352861e+00 5.395684e+00 5.275545e+00 5.336967e+00 5.254989e+00 5.180509e+00 5.057356e+00 4.922903e+00 4.923592e+00 4.873422e+00 4.999602e+00 4.943169e+00 5.027118e+00 4.839286e+00 4.783226e+00 4.480383e+00 4.356082e+00 4.104115e+00 4.081236e+00 4.059348e+00 4.220073e+00 4.448342e+00 3.650174e+00 3.203104e+00 3.708414e+00 3.088747e+00 2.289962e+00 2.480583e+00 3.236595e+00 2.336060e+00 1.295839e+00 9.584997e-01 3.662630e-01 1.755191e+00 2.637417e+00 2.988877e+00 3.121088e+00 3.180363e+00 3.001239e+00 2.864008e+00 2.905926e+00 3.011960e+00 3.266378e+00 3.379881e+00 3.578610e+00 3.416309e+00 3.296373e+00 2.776427e+00 2.486505e+00 1.994469e+00 1.926018e+00 1.759630e+00 1.988577e+00 2.100017e+00 2.418793e+00 2.540972e+00 2.606690e+00 2.478043e+00 2.153434e+00 1.865291e+00 1.423027e+00 1.362327e+00 1.144626e+00 1.454120e+00 1.373309e+00 1.781926e+00 1.593816e+00 1.902572e+00 1.534675e+00 1.661862e+00 1.168937e+00 1.227197e+00 8.751279e-01 1.014990e+00 8.658081e-01 9.254650e-01 8.454700e-01 7.078486e-01 7.228358e-01 4.551785e-01 6.421472e-01 2.854133e-01 5.949630e-01 1.350496e-01 4.869782e-01 1.634007e-01 7.650288e-01 2.529698e-01 7.212770e-01 0 0 0 0 
0 0 0 0 0 4.886178e+00 1.648239e+00 3.483006e+00 1.304777e+00 1.590364e+00 1.470163e+00 1.702509e+00 2.526299e+00 2.945476e+00 4.092684e+00 4.155853e+00 9.003377e+00 1.047585e+01 1.331245e+01 1.749668e+01 1.793209e+01 1.912573e+01 1.870503e+01 1.854055e+01 1.824130e+01 1.776091e+01 1.778188e+01 1.728803e+01 1.759965e+01 1.702997e+01 1.737650e+01 1.669978e+01 1.700241e+01 1.628752e+01 1.643777e+01 1.574312e+01 1.586904e+01 1.551570e+01 1.569631e+01 1.545520e+01 1.523616e+01 1.487397e+01 1.447857e+01 1.448061e+01 1.433309e+01 1.470420e+01 1.453825e+01 1.478515e+01 1.423277e+01 1.406791e+01 1.317726e+01 1.281170e+01 1.207066e+01 1.200337e+01 1.193899e+01 1.241167e+01 1.333147e+01 1.235553e+01 1.110141e+01 1.102301e+01 9.975138e+00 7.959721e+00 8.704215e+00 8.352396e+00 6.717868e+00 8.413554e+00 9.825256e+00 1.104302e+01 1.314586e+01 1.301839e+01 1.196456e+01 1.057601e+01 9.727062e+00 8.827025e+00 8.423425e+00 8.546717e+00 8.858570e+00 9.606846e+00 9.940672e+00 1.052515e+01 1.004784e+01 9.695099e+00 8.165902e+00 7.313206e+00 5.866034e+00 5.664679e+00 5.175253e+00 5.848553e+00 6.176268e+00 7.113756e+00 7.473075e+00 7.666336e+00 7.287967e+00 6.333308e+00 5.485860e+00 4.185184e+00 4.006713e+00 3.366481e+00 4.276812e+00 4.039155e+00 5.240939e+00 4.687615e+00 5.595585e+00 4.513364e+00 4.887223e+00 3.437157e+00 3.608256e+00 2.572454e+00 2.983574e+00 2.544615e+00 2.719964e+00 2.484680e+00 2.079999e+00 2.124304e+00 1.337326e+00 1.887645e+00 8.386894e-01 1.749185e+00 3.955603e-01 1.423973e+00 4.752854e-01 2.215186e+00 7.610586e-01 2.122132e+00 0 0 0 0 
0 0 0 0 0 3.375019e+00 1.141121e+00 2.411566e+00 9.012181e-01 1.099829e+00 1.015981e+00 1.176523e+00 1.745358e+00 9.318732e+00 7.679608e+00 1.086590e+01 1.711386e+01 1.250683e+01 1.837770e+01 1.469477e+01 1.471014e+01 1.321066e+01 1.292001e+01 1.280639e+01 1.259969e+01 1.226791e+01 1.228241e+01 1.194134e+01 1.215661e+01 1.176317e+01 1.200255e+01 1.153516e+01 1.174420e+01 1.125043e+01 1.135421e+01 1.087440e+01 1.096136e+01 1.071729e+01 1.084203e+01 1.067549e+01 1.052419e+01 1.027402e+01 1.000092e+01 1.000234e+01 9.900445e+00 1.015679e+01 1.004218e+01 1.021272e+01 9.831192e+00 9.717319e+00 9.102135e+00 8.849630e+00 8.337772e+00 8.291287e+00 8.246815e+00 8.573304e+00 9.527022e+00 1.157554e+01 1.175525e+01 9.789848e+00 1.075869e+01 1.043374e+01 1.069767e+01 1.245937e+01 1.382806e+01 1.352642e+01 1.362268e+01 1.411434e+01 1.341278e+01 1.096965e+01 9.687899e+00 8.366442e+00 6.934904e+00 6.097265e+00 5.818485e+00 5.903651e+00 6.119061e+00 6.635931e+00 6.866521e+00 7.270250e+00 6.940558e+00 6.696908e+00 5.640631e+00 5.051633e+00 4.051984e+00 3.912881e+00 3.574783e+00 4.039835e+00 4.266182e+00 4.913716e+00 5.161904e+00 5.295387e+00 5.034027e+00 4.374626e+00 3.789260e+00 2.890856e+00 2.767606e+00 2.325391e+00 2.954236e+00 2.790082e+00 3.620209e+00 3.237969e+00 3.865089e+00 3.117455e+00 3.375594e+00 2.373810e+00 2.491875e+00 1.776239e+00 2.060107e+00 1.756802e+00 1.877871e+00 1.715344e+00 1.435850e+00 1.466563e+00 9.230735e-01 1.303410e+00 5.789622e-01 1.207921e+00 2.724410e-01 9.795902e-01 3.268887e-01 1.513472e+00 5.340164e-01 1.466232e+00 0 0 0 0 
0 0 0 0 0 1.502441e-01 5.147109e-02 1.088167e-01 4.012354e-02 4.929602e-02 4.535467e-02 5.251513e-02 7.779197e-02 1.124383e+01 1.224028e+01 1.158537e+01 1.270264e+01 1.203513e+01 1.231432e+01 1.286791e+01 1.099086e+01 5.880894e-01 5.751349e-01 5.700753e-01 5.608729e-01 5.461116e-01 5.467624e-01 5.315917e-01 5.411816e-01 5.236801e-01 5.343416e-01 5.135452e-01 5.228533e-01 5.008776e-01 5.054963e-01 4.841381e-01 4.880064e-01 4.771396e-01 4.826887e-01 4.752736e-01 4.685387e-01 4.574025e-01 4.452481e-01 4.453131e-01 4.407800e-01 4.521933e-01 4.470943e-01 4.546876e-01 4.377067e-01 4.326385e-01 4.052546e-01 3.940144e-01 3.712276e-01 3.691576e-01 3.671768e-01 3.817098e-01 6.110773e-01 2.442278e+00 2.711738e+00 1.109738e+00 2.259478e+00 2.901518e+00 2.856534e+00 3.837283e+00 3.494737e+00 2.239291e+00 1.624645e+00 1.095503e+00 2.142887e-01 6.478892e-01 1.197418e+00 9.117985e-01 1.050407e-01 2.714781e-01 2.590673e-01 2.628597e-01 2.724502e-01 2.954635e-01 3.057304e-01 3.237055e-01 3.090299e-01 2.981826e-01 2.511560e-01 2.249315e-01 1.804186e-01 1.742210e-01 1.591605e-01 1.798589e-01 1.899316e-01 2.187536e-01 2.298011e-01 2.357414e-01 2.241041e-01 1.947518e-01 1.686908e-01 1.286992e-01 1.232188e-01 1.035358e-01 1.315435e-01 1.242367e-01 1.611965e-01 1.441693e-01 1.720763e-01 1.387654e-01 1.502325e-01 1.055901e-01 1.108160e-01 7.891292e-02 9.152336e-02 7.799479e-02 8.337189e-02 7.613437e-02 6.370001e-02 6.509531e-02 4.092574e-02 5.791183e-02 2.568608e-02 5.369883e-02 1.193032e-02 4.259551e-02 1.501145e-02 6.332993e-02 2.592287e-02 6.537749e-02 0 0 0 0 
0 0 0 0 0 0 0 0 0 0 0 0 0 1.205689e+01 1.282765e+01 1.237238e+01 1.332708e+01 1.277291e+01 1.292079e+01 1.325199e+01 1.161134e+01 0 0 0 0 0 0 0 0 0 0 0 0 0 0 0 0 0 0 0 0 0 0 0 0 0 0 0 0 0 0 0 0 0 0 0 2.837705e-02 4.109579e-01 1.038931e+00 1.318971e+00 1.371933e+00 1.443013e+00 1.641124e+00 1.535987e+00 1.642788e+00 1.856289e+00 1.671791e+00 1.748165e+00 1.755751e+00 1.282802e+00 1.616223e+00 1.537949e+00 4.230442e-01 0 0 0 0 0 0 0 0 0 0 0 0 0 0 0 0 0 0 0 0 0 0 0 0 0 0 0 0 0 0 0 0 0 0 0 0 0 0 0 0 0 0 0 0 0 0 0 0 0 0 0 0 0 0 0 
0 0 0 0 0 0 0 0 0 0 0 0 0 1.255393e+01 1.318527e+01 1.260801e+01 1.302710e+01 1.279289e+01 1.282621e+01 1.303540e+01 1.263901e+01 0 0 0 0 0 0 0 0 0 0 0 0 0 0 0 0 0 0 0 0 0 0 0 0 0 0 0 0 0 0 0 0 0 0 0 5.204874e-03 1.394665e-01 4.153840e-01 5.414033e-01 1.909900e-01 2.034449e-01 6.291735e-01 5.833905e-01 8.176743e-01 1.118460e+00 1.011995e+00 9.998948e-01 9.932363e-01 8.911057e-01 8.228206e-01 3.944009e-01 1.396664e-02 0 0 0 0 0 0 0 0 0 0 0 0 0 0 0 0 0 0 0 0 0 0 0 0 0 0 0 0 0 0 0 0 0 0 0 0 0 0 0 0 0 0 0 0 0 0 0 0 0 0 0 0 0 0 0 
0 0 0 0 0 0 0 0 0 0 0 0 0 1.282046e+01 1.343654e+01 1.290447e+01 1.332492e+01 1.312061e+01 1.307749e+01 1.338276e+01 1.278030e+01 0 0 0 0 0 0 0 0 0 0 0 0 0 0 0 0 0 0 0 0 0 0 0 0 0 0 0 0 0 0 0 0 0 0 0 8.775927e-02 3.871199e-01 6.831857e-01 7.544313e-01 7.950874e-01 9.654683e-01 9.491241e-01 8.395168e-01 9.203978e-01 8.598081e-01 7.872951e-01 9.471633e-01 8.461931e-01 8.196632e-01 1.212875e+00 7.491647e-01 4.044358e-02 0 0 0 0 0 0 0 0 0 0 0 0 0 0 0 0 0 0 0 0 0 0 0 0 0 0 0 0 0 0 0 0 0 0 0 0 0 0 0 0 0 0 0 0 0 0 0 0 0 0 0 0 0 0 0 
0 0 0 0 0 0 0 0 0 0 0 0 0 1.255119e+01 1.318176e+01 1.260087e+01 1.301877e+01 1.278014e+01 1.281173e+01 1.301906e+01 1.262016e+01 0 0 0 0 0 0 0 0 0 0 0 0 0 0 0 0 0 0 0 0 0 0 0 0 0 0 0 0 0 0 0 0 0 0 0 1.520086e-02 7.503120e-02 1.411832e-01 1.662349e-01 1.919634e-01 2.060642e-01 1.538009e-01 8.937830e-02 5.452645e-02 1.977298e-02 5.263419e-04 1.632197e-02 2.303160e-03 1.096373e-02 9.395419e-02 7.389204e-02 4.216857e-03 0 0 0 0 0 0 0 0 0 0 0 0 0 0 0 0 0 0 0 0 0 0 0 0 0 0 0 0 0 0 0 0 0 0 0 0 0 0 0 0 0 0 0 0 0 0 0 0 0 0 0 0 0 0 0 
0 0 0 0 0 0 0 0 0 0 0 0 0 1.205930e+01 1.283120e+01 1.235546e+01 1.331510e+01 1.273677e+01 1.288916e+01 1.320873e+01 1.155593e+01 0 0 0 0 0 0 0 0 0 0 0 0 0 0 0 0 0 0 0 0 0 0 0 0 0 0 0 0 0 0 0 0 0 0 0 0 0 0 0 0 0 0 0 0 0 0 0 0 0 0 0 0 0 0 0 0 0 0 0 0 0 0 0 0 0 0 0 0 0 0 0 0 0 0 0 0 0 0 0 0 0 0 0 0 0 0 0 0 0 0 0 0 0 0 0 0 0 0 0 0 0 0 0 0 0 0 0 
0 0 0 0 0 1.503878e-01 5.107214e-02 1.068693e-01 4.388358e-02 5.030163e-02 4.951305e-02 5.376419e-02 8.123333e-02 1.125319e+01 1.224090e+01 1.156561e+01 1.268059e+01 1.199062e+01 1.226070e+01 1.280618e+01 1.090981e+01 5.795349e-01 5.682657e-01 5.652949e-01 5.562424e-01 5.382359e-01 5.350086e-01 5.191935e-01 5.359261e-01 5.317334e-01 5.580798e-01 5.461485e-01 5.558332e-01 5.256337e-01 5.222864e-01 4.935543e-01 4.937330e-01 4.774035e-01 4.813462e-01 4.749317e-01 4.767421e-01 4.725341e-01 4.640791e-01 4.582360e-01 4.450606e-01 4.471318e-01 4.382478e-01 4.465025e-01 4.336992e-01 4.344091e-01 4.115429e-01 4.061034e-01 3.859271e-01 3.863541e-01 3.768260e-01 3.808641e-01 3.778466e-01 3.820062e-01 3.845012e-01 3.842000e-01 3.838407e-01 3.725532e-01 3.692999e-01 3.554798e-01 3.556052e-01 3.391986e-01 3.347026e-01 3.113404e-01 3.045171e-01 2.885789e-01 2.951363e-01 2.983317e-01 3.148655e-01 3.221465e-01 3.256459e-01 3.193828e-01 3.006438e-01 2.816319e-01 2.488591e-01 2.335280e-01 2.117987e-01 2.249073e-01 2.279414e-01 2.593516e-01 2.614122e-01 2.794214e-01 2.625363e-01 2.611908e-01 2.340834e-01 2.237819e-01 2.008986e-01 1.909193e-01 1.814340e-01 1.749749e-01 1.805435e-01 1.725040e-01 1.841741e-01 1.645591e-01 1.775771e-01 1.506972e-01 1.694811e-01 1.372913e-01 1.537080e-01 1.136733e-01 1.270370e-01 8.953355e-02 1.023962e-01 7.249791e-02 8.346978e-02 7.041546e-02 8.360009e-02 9.126147e-02 9.435716e-02 1.061424e-01 7.998369e-02 8.598412e-02 3.892820e-02 5.547804e-02 1.838052e-02 4.546680e-02 2.173114e-02 6.949199e-02 2.416242e-02 6.531198e-02 0 0 0 0 
0 0 0 0 0 3.378244e+00 1.132402e+00 2.367892e+00 9.865024e-01 1.122750e+00 1.109579e+00 1.204583e+00 1.822667e+00 9.387768e+00 7.681937e+00 1.081205e+01 1.706841e+01 1.235246e+01 1.827880e+01 1.454998e+01 1.457889e+01 1.301853e+01 1.276576e+01 1.269909e+01 1.249576e+01 1.209104e+01 1.201842e+01 1.166286e+01 1.203857e+01 1.194417e+01 1.253593e+01 1.226770e+01 1.248522e+01 1.180665e+01 1.173145e+01 1.108597e+01 1.109005e+01 1.072327e+01 1.081193e+01 1.066789e+01 1.070861e+01 1.061409e+01 1.042411e+01 1.029282e+01 9.996744e+00 1.004321e+01 9.843542e+00 1.002892e+01 9.741218e+00 9.757129e+00 9.243401e+00 9.121195e+00 8.667954e+00 8.677563e+00 8.463551e+00 8.554291e+00 8.486531e+00 8.579992e+00 8.636041e+00 8.629269e+00 8.621182e+00 8.367582e+00 8.294479e+00 7.983993e+00 7.986791e+00 7.618228e+00 7.517235e+00 6.992467e+00 6.839215e+00 6.481248e+00 6.628583e+00 6.700393e+00 7.071839e+00 7.235405e+00 7.314025e+00 7.173341e+00 6.752368e+00 6.325310e+00 5.589103e+00 5.244716e+00 4.756620e+00 5.051017e+00 5.119175e+00 5.824730e+00 5.871069e+00 6.275703e+00 5.896569e+00 5.866481e+00 5.257801e+00 5.026525e+00 4.512708e+00 4.288610e+00 4.075604e+00 3.930477e+00 4.055431e+00 3.874714e+00 4.136638e+00 3.695901e+00 3.988136e+00 3.384354e+00 3.806258e+00 3.083474e+00 3.452489e+00 2.553876e+00 2.854590e+00 2.013109e+00 2.302735e+00 1.632110e+00 1.879202e+00 1.586546e+00 1.883044e+00 2.054982e+00 2.124364e+00 2.388364e+00 1.800128e+00 1.933927e+00 8.763253e-01 1.247884e+00 4.150269e-01 1.043246e+00 5.001876e-01 1.650710e+00 4.932451e-01 1.464764e+00 0 0 0 0 
0 0 0 0 0 4.890846e+00 1.635678e+00 3.419793e+00 1.428450e+00 1.623633e+00 1.605718e+00 1.743133e+00 2.638225e+00 3.045630e+00 4.093282e+00 4.121594e+00 8.937376e+00 1.039081e+01 1.316235e+01 1.734745e+01 1.768508e+01 1.884759e+01 1.848174e+01 1.838523e+01 1.809086e+01 1.750488e+01 1.739970e+01 1.688487e+01 1.742876e+01 1.729204e+01 1.814873e+01 1.776035e+01 1.807526e+01 1.709281e+01 1.698394e+01 1.604944e+01 1.605536e+01 1.552437e+01 1.565275e+01 1.544423e+01 1.550319e+01 1.536635e+01 1.509130e+01 1.490120e+01 1.447254e+01 1.453979e+01 1.425070e+01 1.451907e+01 1.410253e+01 1.412555e+01 1.338178e+01 1.320486e+01 1.254868e+01 1.256259e+01 1.225276e+01 1.238414e+01 1.228604e+01 1.242136e+01 1.250250e+01 1.249270e+01 1.248099e+01 1.211383e+01 1.200798e+01 1.155847e+01 1.156252e+01 1.102893e+01 1.088271e+01 1.012299e+01 9.901126e+00 9.382896e+00 9.596208e+00 9.700178e+00 1.023795e+01 1.047475e+01 1.058858e+01 1.038490e+01 9.775435e+00 9.157166e+00 8.091321e+00 7.592736e+00 6.886101e+00 7.312296e+00 7.410972e+00 8.432431e+00 8.499531e+00 9.085360e+00 8.536512e+00 8.492986e+00 7.611835e+00 7.277038e+00 6.533218e+00 6.208798e+00 5.900435e+00 5.690320e+00 5.871189e+00 5.609525e+00 5.988666e+00 5.350562e+00 5.773594e+00 4.899479e+00 5.510277e+00 4.463948e+00 4.998249e+00 3.697463e+00 4.132953e+00 2.914949e+00 3.334428e+00 2.363786e+00 2.721671e+00 2.298128e+00 2.727466e+00 2.976347e+00 3.076755e+00 3.458773e+00 2.606998e+00 2.800454e+00 1.269170e+00 1.807041e+00 6.014061e-01 1.515921e+00 7.301981e-01 2.413505e+00 7.017001e-01 2.120007e+00 0 0 0 0 
0 0 0 0 0 1.662990e+00 5.543488e-01 1.158771e+00 4.858310e-01 5.511843e-01 5.456515e-01 5.923142e-01 8.967909e-01 1.035381e+00 1.391747e+00 1.401349e+00 3.038737e+00 3.532909e+00 4.475304e+00 5.898392e+00 6.013252e+00 6.408591e+00 6.284240e+00 6.251435e+00 6.151344e+00 5.952070e+00 5.916292e+00 5.741203e+00 5.926117e+00 5.879601e+00 6.170884e+00 6.038801e+00 6.145871e+00 5.811796e+00 5.774776e+00 5.457022e+00 5.459044e+00 5.278501e+00 5.322164e+00 5.251268e+00 5.271323e+00 5.224797e+00 5.131266e+00 5.066625e+00 4.920857e+00 4.943714e+00 4.845407e+00 4.936650e+00 4.795006e+00 4.802831e+00 4.549926e+00 4.489765e+00 4.266648e+00 4.271382e+00 4.166036e+00 4.210711e+00 4.177360e+00 4.223372e+00 4.250963e+00 4.247628e+00 4.243644e+00 4.118797e+00 4.082806e+00 3.929957e+00 3.931330e+00 3.749897e+00 3.700182e+00 3.441864e+00 3.366428e+00 3.190227e+00 3.262761e+00 3.298117e+00 3.480975e+00 3.561494e+00 3.600199e+00 3.530946e+00 3.323710e+00 3.113488e+00 2.751077e+00 2.581548e+00 2.341280e+00 2.486186e+00 2.519739e+00 2.867052e+00 2.889874e+00 3.089079e+00 2.902479e+00 2.887696e+00 2.588117e+00 2.474295e+00 2.221408e+00 2.111107e+00 2.006266e+00 1.934818e+00 1.996301e+00 1.907315e+00 2.036202e+00 1.819219e+00 1.963035e+00 1.665822e+00 1.873500e+00 1.517765e+00 1.699468e+00 1.257261e+00 1.405400e+00 9.913736e-01 1.134090e+00 8.041735e-01 9.259386e-01 7.819980e-01 9.280217e-01 1.012626e+00 1.046748e+00 1.176551e+00 8.868537e-01 9.525107e-01 4.317733e-01 6.146349e-01 2.047598e-01 5.181421e-01 2.517122e-01 8.322747e-01 2.326222e-01 7.205548e-01 0 0 0 0 
0 0 0 0 0 0 0 0 0 0 0 0 0 0 0 0 0 0 0 0 0 0 0 0 0 0 0 0 0 0 0 0 0 0 0 0 0 0 0 0 0 0 0 0 0 0 0 0 0 0 0 0 0 0 0 0 0 0 0 0 0 0 0 0 0 0 0 0 0 0 0 0 0 0 0 0 0 0 0 0 0 0 0 0 0 0 0 0 0 0 0 0 0 0 0 0 0 0 0 0 0 0 0 0 0 0 0 0 0 0 0 0 0 0 0 0 0 0 0 0 0 0 0 0 0 0 0 0 
