# vtk DataFile Version 2.0
Comment goes here
ASCII

DATASET STRUCTURED_POINTS
FIELD FieldData 1
TIME 1 1 double
0.12000000
DIMENSIONS    128   16   1

ORIGIN    0.000   0.000   0.000
SPACING   0.0078125 0.015625   1.000

POINT_DATA   2048
SCALARS fMag double
LOOKUP_TABLE default

0 0 0 0 0 0 0 0 0 0 0 0 0 0 0 0 0 0 0 0 0 0 0 0 0 0 0 0 0 0 0 0 0 0 0 0 0 0 0 0 0 0 0 0 0 0 0 0 0 0 0 0 0 0 0 0 0 0 0 0 0 0 0 0 0 0 0 0 0 0 0 0 0 0 0 0 0 0 0 0 0 0 0 0 0 0 0 0 0 0 0 0 0 0 0 0 0 0 0 0 0 0 0 0 0 0 0 0 0 0 0 0 0 0 0 0 0 0 0 0 0 0 0 0 0 0 0 0 
0 0 0 0 0 0 0 0 0 0 0 0 0 0 0 0 0 0 0 0 0 0 0 0 0 0 0 0 0 0 0 0 0 0 0 0 0 0 0 0 0 0 0 0 0 0 0 0 0 0 0 0 0 0 0 0 0 0 0 0 0 0 0 0 0 0 0 0 0 0 0 0 0 0 0 0 0 0 0 0 0 0 0 0 0 0 0 0 0 0 0 0 0 0 0 0 0 0 0 0 0 0 0 0 0 0 0 0 0 0 0 0 0 0 0 0 0 0 0 0 0 0 0 0 0 0 0 0 
0 0 0 0 0 1.965914e+00 1.112551e+00 1.524057e+00 1.212552e+00 1.618124e+00 2.570796e+00 1.653864e+00 2.294856e+00 3.565598e+00 4.215364e+00 4.992704e+00 6.288397e+00 8.567035e+00 1.037787e+01 1.154074e+01 1.505957e+01 1.438690e+01 1.476384e+01 1.649166e+01 1.662020e+01 1.585843e+01 1.425339e+01 1.338645e+01 1.274483e+01 1.373926e+01 1.529228e+01 1.629864e+01 1.580349e+01 1.552518e+01 1.453068e+01 1.347249e+01 1.326439e+01 1.455964e+01 1.495689e+01 1.415688e+01 1.382436e+01 1.265441e+01 1.084683e+01 1.039783e+01 1.168993e+01 1.327117e+01 1.440498e+01 1.433946e+01 1.355113e+01 1.298472e+01 1.357060e+01 1.403865e+01 1.453555e+01 1.408658e+01 1.250753e+01 1.064232e+01 1.021516e+01 1.164640e+01 1.101786e+01 8.881791e+00 7.428890e+00 5.878288e+00 1.075613e+01 1.625433e+01 1.724354e+01 1.710592e+01 1.531192e+01 1.218624e+01 9.039535e+00 7.179350e+00 5.725488e+00 7.768796e+00 9.685478e+00 1.088515e+01 1.069208e+01 9.547852e+00 8.322904e+00 7.455506e+00 7.057861e+00 6.772152e+00 7.305232e+00 7.948470e+00 8.255948e+00 7.499277e+00 7.322159e+00 7.236843e+00 7.433077e+00 7.689285e+00 7.692161e+00 6.173168e+00 4.528302e+00 3.305014e+00 2.865708e+00 2.720960e+00 3.741617e+00 5.279553e+00 5.524843e+00 5.216121e+00 5.150076e+00 5.511048e+00 5.199364e+00 4.759656e+00 4.462808e+00 4.637484e+00 3.680739e+00 2.957281e+00 2.218700e+00 3.942598e+00 4.562720e+00 5.196528e+00 5.084082e+00 5.339773e+00 4.280607e+00 2.203156e+00 8.583311e-01 1.423831e+00 2.007781e+00 2.500130e+00 2.784252e+00 2.852543e+00 3.814172e+00 4.099848e+00 3.769778e+00 6.478953e-01 0 0 0 0 
0 0 0 0 0 5.784015e+00 3.288774e+00 4.468269e+00 3.573431e+00 4.761703e+00 7.562279e+00 4.864932e+00 6.750234e+00 1.048705e+01 1.239771e+01 1.468341e+01 1.849391e+01 2.519448e+01 3.051980e+01 3.393913e+01 4.428551e+01 4.230723e+01 4.341535e+01 4.849592e+01 4.887406e+01 4.663429e+01 4.191547e+01 3.936657e+01 3.748009e+01 4.040408e+01 4.497030e+01 4.792923e+01 4.647346e+01 4.565514e+01 4.273106e+01 3.961983e+01 3.900800e+01 4.281616e+01 4.398401e+01 4.163196e+01 4.065441e+01 3.721431e+01 3.189903e+01 3.057886e+01 3.437828e+01 3.902776e+01 4.236155e+01 4.216890e+01 3.985096e+01 3.818557e+01 3.990822e+01 4.128442e+01 4.274541e+01 4.142528e+01 3.678235e+01 3.129777e+01 2.977335e+01 3.280353e+01 3.283149e+01 3.041702e+01 2.873888e+01 2.721462e+01 3.323928e+01 3.771257e+01 3.700481e+01 3.922170e+01 3.546432e+01 2.944911e+01 2.553599e+01 2.428438e+01 2.277559e+01 2.643350e+01 2.879674e+01 3.201198e+01 3.144429e+01 2.807945e+01 2.447719e+01 2.192649e+01 2.075713e+01 1.991693e+01 2.148464e+01 2.337626e+01 2.428062e+01 2.205548e+01 2.153450e+01 2.128360e+01 2.186074e+01 2.261424e+01 2.262251e+01 1.815520e+01 1.331793e+01 9.720130e+00 8.428056e+00 8.002236e+00 1.100379e+01 1.552705e+01 1.624854e+01 1.534059e+01 1.514635e+01 1.620806e+01 1.529161e+01 1.399846e+01 1.312559e+01 1.363933e+01 1.082553e+01 8.697682e+00 6.525047e+00 1.159471e+01 1.341825e+01 1.528150e+01 1.495032e+01 1.570200e+01 1.258713e+01 6.478846e+00 2.527760e+00 4.191274e+00 5.907837e+00 7.353995e+00 8.187361e+00 8.388227e+00 1.121358e+01 1.205234e+01 1.108351e+01 1.905132e+00 0 0 0 0 
0 0 0 0 0 3.996282e+00 2.279777e+00 3.079624e+00 2.471826e+00 3.290403e+00 5.224243e+00 3.360793e+00 4.663095e+00 2.571982e+01 3.855463e+01 2.762524e+01 2.834610e+01 3.151787e+01 3.183509e+01 4.272155e+01 4.359773e+01 2.922057e+01 2.998576e+01 3.349460e+01 3.375583e+01 3.220904e+01 2.895039e+01 2.719018e+01 2.588739e+01 2.790677e+01 3.106020e+01 3.310364e+01 3.209832e+01 3.153318e+01 2.951378e+01 2.736521e+01 2.694270e+01 2.957253e+01 3.037898e+01 2.875473e+01 2.807970e+01 2.570387e+01 2.203285e+01 2.112113e+01 2.374520e+01 2.695625e+01 2.925865e+01 2.912560e+01 2.752479e+01 2.637466e+01 2.756435e+01 2.851476e+01 2.952372e+01 2.861200e+01 2.540552e+01 2.161763e+01 1.985169e+01 1.836930e+01 1.807518e+01 1.948955e+01 1.864386e+01 1.965601e+01 2.060217e+01 1.553379e+01 1.461092e+01 1.863184e+01 1.546278e+01 1.327803e+01 1.411227e+01 1.558273e+01 1.634452e+01 1.891184e+01 1.987113e+01 2.211099e+01 2.171893e+01 1.939490e+01 1.690687e+01 1.514518e+01 1.433753e+01 1.375721e+01 1.484003e+01 1.614656e+01 1.677126e+01 1.523441e+01 1.487452e+01 1.470122e+01 1.509987e+01 1.562034e+01 1.562595e+01 1.254028e+01 9.199166e+00 6.714013e+00 5.821505e+00 5.527322e+00 7.600486e+00 1.072492e+01 1.122332e+01 1.059618e+01 1.046201e+01 1.119541e+01 1.056248e+01 9.669291e+00 9.066454e+00 9.421318e+00 7.477732e+00 6.007893e+00 4.506965e+00 8.008569e+00 9.268026e+00 1.055465e+01 1.032566e+01 1.084472e+01 8.693255e+00 4.474818e+00 1.747649e+00 2.896869e+00 4.082144e+00 5.080155e+00 5.654700e+00 5.793454e+00 7.743655e+00 8.322322e+00 7.654048e+00 1.315770e+00 0 0 0 0 
0 0 0 0 0 1.781805e-01 1.035534e-01 1.354129e-01 1.109475e-01 1.468231e-01 2.327600e-01 1.497250e-01 2.077170e-01 2.652184e+01 2.858175e+01 2.739833e+01 2.713796e+01 2.767423e+01 2.617198e+01 2.844246e+01 2.649493e+01 1.300237e+00 1.334245e+00 1.490331e+00 1.501970e+00 1.433186e+00 1.288317e+00 1.210055e+00 1.152125e+00 1.241944e+00 1.382176e+00 1.473047e+00 1.428349e+00 1.403216e+00 1.313408e+00 1.217872e+00 1.199089e+00 1.316014e+00 1.351861e+00 1.279650e+00 1.249649e+00 1.143970e+00 9.806493e-01 9.401027e-01 1.056841e+00 1.199667e+00 1.302074e+00 1.296156e+00 1.224960e+00 1.173809e+00 1.226721e+00 1.268989e+00 1.313855e+00 1.273305e+00 1.130693e+00 9.621879e-01 2.466500e-01 3.177329e+00 4.001971e+00 1.891084e+00 2.636476e+00 1.933315e+00 2.246715e+00 6.173400e+00 6.405722e+00 4.744918e+00 4.939861e+00 3.534648e+00 1.572163e+00 8.523059e-01 3.525717e-01 6.361652e-01 7.812085e-01 9.841586e-01 9.667194e-01 8.633034e-01 7.525837e-01 6.741968e-01 6.382572e-01 6.124321e-01 6.606261e-01 7.187701e-01 7.465881e-01 6.782016e-01 6.621710e-01 6.544575e-01 6.722057e-01 6.953755e-01 6.956017e-01 5.582436e-01 4.095414e-01 2.988970e-01 2.591563e-01 2.460459e-01 3.383122e-01 4.774257e-01 4.996235e-01 4.717064e-01 4.657331e-01 4.983931e-01 4.702428e-01 4.304851e-01 4.036686e-01 4.194682e-01 3.329434e-01 2.674919e-01 2.006175e-01 3.564584e-01 4.124962e-01 4.696772e-01 4.594244e-01 4.824927e-01 3.867337e-01 1.991273e-01 7.821971e-02 1.294256e-01 1.820880e-01 2.262900e-01 2.515911e-01 2.577706e-01 3.442444e-01 3.698322e-01 3.403156e-01 5.853359e-02 0 0 0 0 
0 0 0 0 0 0 0 0 0 0 0 0 0 2.888744e+01 3.153077e+01 2.959549e+01 2.984397e+01 3.044451e+01 2.891223e+01 3.143782e+01 2.918160e+01 0 0 0 0 0 0 0 0 0 0 0 0 0 0 0 0 0 0 0 0 0 0 0 0 0 0 0 0 0 0 0 0 0 0 0 1.069408e-01 6.332600e-01 7.720086e-01 4.413631e-01 4.987269e-01 3.500957e-01 3.400308e-01 7.100430e-01 4.942190e-01 1.049948e-01 1.545698e-02 2.658329e-01 4.438123e-01 4.613007e-01 6.171142e-01 3.889893e-01 2.669084e-02 0 0 0 0 0 0 0 0 0 0 0 0 0 0 0 0 0 0 0 0 0 0 0 0 0 0 0 0 0 0 0 0 0 0 0 0 0 0 0 0 0 0 0 0 0 0 0 0 0 0 0 0 0 0 0 
0 0 0 0 0 0 0 0 0 0 0 0 0 2.781395e+01 2.864461e+01 2.803596e+01 2.818800e+01 2.835649e+01 2.788233e+01 2.872572e+01 2.790521e+01 0 0 0 0 0 0 0 0 0 0 0 0 0 0 0 0 0 0 0 0 0 0 0 0 0 0 0 0 0 0 0 0 0 0 0 1.287196e-01 6.368017e-01 9.755297e-01 9.836880e-01 1.196094e+00 6.679228e-01 4.315851e-01 1.295253e+00 1.066628e+00 5.022268e-01 6.137460e-01 7.068442e-01 8.599241e-01 7.837325e-01 4.440431e-01 1.404991e-01 7.240683e-04 0 0 0 0 0 0 0 0 0 0 0 0 0 0 0 0 0 0 0 0 0 0 0 0 0 0 0 0 0 0 0 0 0 0 0 0 0 0 0 0 0 0 0 0 0 0 0 0 0 0 0 0 0 0 0 
0 0 0 0 0 0 0 0 0 0 0 0 0 2.986130e+01 3.115924e+01 3.018485e+01 3.046301e+01 3.074383e+01 2.998335e+01 3.133885e+01 2.994134e+01 0 0 0 0 0 0 0 0 0 0 0 0 0 0 0 0 0 0 0 0 0 0 0 0 0 0 0 0 0 0 0 0 0 0 0 7.580792e-02 3.874132e-01 4.626984e-01 3.031849e-01 3.757000e-01 1.827451e-01 1.828801e-01 6.566721e-01 6.179228e-01 4.760353e-01 5.576537e-01 3.972288e-01 3.140752e-01 2.942944e-01 1.514143e-01 4.416637e-02 3.453532e-03 0 0 0 0 0 0 0 0 0 0 0 0 0 0 0 0 0 0 0 0 0 0 0 0 0 0 0 0 0 0 0 0 0 0 0 0 0 0 0 0 0 0 0 0 0 0 0 0 0 0 0 0 0 0 0 
0 0 0 0 0 0 0 0 0 0 0 0 0 2.774758e+01 2.865726e+01 2.792427e+01 2.818680e+01 2.830623e+01 2.792358e+01 2.875835e+01 2.800799e+01 0 0 0 0 0 0 0 0 0 0 0 0 0 0 0 0 0 0 0 0 0 0 0 0 0 0 0 0 0 0 0 0 0 0 0 4.514156e-03 2.239346e-02 3.337160e-04 5.114871e-02 8.606942e-02 1.061686e-01 4.614595e-02 5.922086e-02 1.093315e-01 1.127185e-01 9.700442e-02 4.833009e-02 3.410964e-03 3.114772e-02 5.229350e-02 3.365326e-02 2.052268e-03 0 0 0 0 0 0 0 0 0 0 0 0 0 0 0 0 0 0 0 0 0 0 0 0 0 0 0 0 0 0 0 0 0 0 0 0 0 0 0 0 0 0 0 0 0 0 0 0 0 0 0 0 0 0 0 
0 0 0 0 0 0 0 0 0 0 0 0 0 2.874392e+01 3.139768e+01 2.928607e+01 2.965597e+01 3.033248e+01 2.875114e+01 3.150832e+01 2.916324e+01 0 0 0 0 0 0 0 0 0 0 0 0 0 0 0 0 0 0 0 0 0 0 0 0 0 0 0 0 0 0 0 0 0 0 0 0 0 0 0 0 0 0 0 0 0 0 0 0 0 0 0 0 0 0 0 0 0 0 0 0 0 0 0 0 0 0 0 0 0 0 0 0 0 0 0 0 0 0 0 0 0 0 0 0 0 0 0 0 0 0 0 0 0 0 0 0 0 0 0 0 0 0 0 0 0 0 0 
0 0 0 0 0 1.859222e-01 1.722589e-01 1.071761e-01 1.679919e-01 1.038292e-01 1.592284e-01 1.171998e-01 1.665435e-01 2.582786e+01 2.828693e+01 2.665720e+01 2.695181e+01 2.744812e+01 2.625565e+01 2.851630e+01 2.681214e+01 1.356893e+00 1.421742e+00 1.460958e+00 1.370539e+00 1.299879e+00 1.220711e+00 1.252980e+00 1.360534e+00 1.526643e+00 1.508936e+00 1.410651e+00 1.316583e+00 1.309632e+00 1.310673e+00 1.388018e+00 1.368228e+00 1.179244e+00 9.405976e-01 8.578417e-01 8.860939e-01 9.379727e-01 1.062874e+00 1.208669e+00 1.355535e+00 1.452111e+00 1.472798e+00 1.350099e+00 1.151189e+00 9.054602e-01 6.961945e-01 5.293882e-01 5.011678e-01 6.253751e-01 8.407145e-01 1.002095e+00 1.138376e+00 1.245117e+00 1.231746e+00 1.113350e+00 1.004757e+00 8.982407e-01 7.238063e-01 6.029578e-01 5.587940e-01 5.764869e-01 6.575360e-01 8.447962e-01 9.351219e-01 8.729052e-01 7.553495e-01 7.063483e-01 6.483005e-01 6.023879e-01 5.952223e-01 6.181600e-01 6.133341e-01 5.902850e-01 6.270773e-01 6.969114e-01 6.957744e-01 6.215430e-01 6.282881e-01 6.149346e-01 5.346241e-01 4.728463e-01 5.352150e-01 5.800907e-01 6.851533e-01 8.503448e-01 9.597941e-01 7.568551e-01 4.264550e-01 1.899206e-01 1.302684e-01 1.514281e-01 1.900532e-01 2.640579e-01 3.685713e-01 5.107692e-01 5.955560e-01 6.866490e-01 6.572875e-01 5.055519e-01 2.444419e-01 1.589402e-01 1.302079e-01 2.458310e-01 3.190370e-01 2.198192e-01 1.819169e-01 3.926038e-01 5.602637e-01 5.486057e-01 3.313129e-01 2.431186e-01 2.998001e-01 2.906090e-01 1.539510e-01 9.794327e-02 2.195476e-01 2.105214e-01 7.623518e-02 4.170275e-02 0 0 0 0 
0 0 0 0 0 4.170047e+00 3.821943e+00 2.361841e+00 3.745493e+00 2.328705e+00 3.574160e+00 2.630866e+00 3.738296e+00 2.451081e+01 3.593404e+01 2.563432e+01 2.814586e+01 3.147154e+01 3.155740e+01 4.034350e+01 4.245051e+01 3.049373e+01 3.195286e+01 3.283442e+01 3.080007e+01 2.921111e+01 2.743044e+01 2.815545e+01 3.057415e+01 3.430938e+01 3.391073e+01 3.170019e+01 2.958472e+01 2.942862e+01 2.945215e+01 3.119131e+01 3.074622e+01 2.649713e+01 2.113288e+01 1.927219e+01 1.990683e+01 2.107332e+01 2.388103e+01 2.715876e+01 3.046083e+01 3.263277e+01 3.309805e+01 3.033874e+01 2.586647e+01 2.034254e+01 1.563929e+01 1.189113e+01 1.125702e+01 1.404797e+01 1.888750e+01 2.251460e+01 2.557847e+01 2.797816e+01 2.767746e+01 2.501579e+01 2.257443e+01 2.018032e+01 1.625979e+01 1.354407e+01 1.255170e+01 1.294919e+01 1.477056e+01 1.897902e+01 2.100896e+01 1.961058e+01 1.696867e+01 1.586748e+01 1.456321e+01 1.353149e+01 1.337050e+01 1.388598e+01 1.377743e+01 1.325924e+01 1.408598e+01 1.565549e+01 1.563000e+01 1.396175e+01 1.411318e+01 1.381308e+01 1.200859e+01 1.062048e+01 1.202183e+01 1.303030e+01 1.539146e+01 1.910383e+01 2.156451e+01 1.700471e+01 9.579830e+00 4.266930e+00 2.927118e+00 3.402212e+00 4.269703e+00 5.931475e+00 8.279128e+00 1.147309e+01 1.337813e+01 1.542488e+01 1.476485e+01 1.135600e+01 5.490558e+00 3.570379e+00 2.924935e+00 5.520204e+00 7.162288e+00 4.936617e+00 4.091474e+00 8.826312e+00 1.259164e+01 1.233044e+01 7.452281e+00 5.468936e+00 6.739113e+00 6.529520e+00 3.459078e+00 2.194044e+00 4.927618e+00 4.716321e+00 1.725762e+00 9.372493e-01 0 0 0 0 
0 0 0 0 0 6.035546e+00 5.521128e+00 3.407919e+00 5.415388e+00 3.370451e+00 5.173805e+00 3.808361e+00 5.411384e+00 6.565253e+00 8.698187e+00 1.297707e+01 1.740466e+01 2.410721e+01 2.997441e+01 3.304429e+01 4.331358e+01 4.415057e+01 4.626362e+01 4.754007e+01 4.459403e+01 4.229318e+01 3.971464e+01 4.076431e+01 4.426665e+01 4.967529e+01 4.909792e+01 4.589693e+01 4.283366e+01 4.260768e+01 4.264178e+01 4.516009e+01 4.451556e+01 3.836298e+01 3.059603e+01 2.790178e+01 2.882060e+01 3.050966e+01 3.457501e+01 3.932101e+01 4.410233e+01 4.724739e+01 4.792115e+01 4.392558e+01 3.744984e+01 2.945155e+01 2.264182e+01 1.721516e+01 1.629708e+01 2.033788e+01 2.734487e+01 3.259649e+01 3.703284e+01 4.050746e+01 4.007205e+01 3.621809e+01 3.268311e+01 2.921669e+01 2.354022e+01 1.960827e+01 1.817150e+01 1.874697e+01 2.138404e+01 2.747733e+01 3.041639e+01 2.839170e+01 2.456658e+01 2.297222e+01 2.108389e+01 1.959011e+01 1.935703e+01 2.010338e+01 1.994618e+01 1.919588e+01 2.039285e+01 2.266531e+01 2.262841e+01 2.021302e+01 2.043223e+01 1.999773e+01 1.738517e+01 1.537544e+01 1.740434e+01 1.886444e+01 2.228308e+01 2.765806e+01 3.122104e+01 2.461931e+01 1.386922e+01 6.177602e+00 4.237939e+00 4.925699e+00 6.181565e+00 8.587231e+00 1.198602e+01 1.660999e+01 1.936812e+01 2.233142e+01 2.137574e+01 1.644051e+01 7.948826e+00 5.169014e+00 4.234570e+00 7.991349e+00 1.036807e+01 7.146649e+00 5.924688e+00 1.278006e+01 1.823109e+01 1.785310e+01 1.079152e+01 7.919580e+00 9.757692e+00 9.453459e+00 5.008077e+00 3.174873e+00 7.132895e+00 6.824836e+00 2.501834e+00 1.357017e+00 0 0 0 0 
0 0 0 0 0 2.051422e+00 1.871444e+00 1.153254e+00 1.837887e+00 1.145575e+00 1.758873e+00 1.294694e+00 1.839632e+00 2.232203e+00 2.957559e+00 4.412537e+00 5.918023e+00 8.197311e+00 1.019239e+01 1.123642e+01 1.472900e+01 1.501373e+01 1.573251e+01 1.616660e+01 1.516449e+01 1.438195e+01 1.350491e+01 1.386184e+01 1.505303e+01 1.689256e+01 1.669613e+01 1.560739e+01 1.456552e+01 1.448869e+01 1.450030e+01 1.535679e+01 1.513757e+01 1.304509e+01 1.040375e+01 9.487440e+00 9.799856e+00 1.037431e+01 1.175686e+01 1.337092e+01 1.499703e+01 1.606673e+01 1.629589e+01 1.493694e+01 1.273455e+01 1.001448e+01 7.698729e+00 5.853416e+00 5.541226e+00 6.915283e+00 9.298083e+00 1.108398e+01 1.259274e+01 1.377442e+01 1.362633e+01 1.231565e+01 1.111344e+01 9.934613e+00 8.004235e+00 6.667162e+00 6.178594e+00 6.374271e+00 7.271018e+00 9.343102e+00 1.034256e+01 9.654024e+00 8.353257e+00 7.811085e+00 7.168974e+00 6.661014e+00 6.581760e+00 6.835559e+00 6.782092e+00 6.526921e+00 6.933945e+00 7.706728e+00 7.694188e+00 6.872812e+00 6.947337e+00 6.799581e+00 5.911206e+00 5.227809e+00 5.917717e+00 6.414234e+00 7.576776e+00 9.404576e+00 1.061632e+01 8.371459e+00 4.715841e+00 2.100593e+00 1.441090e+00 1.674915e+00 2.101915e+00 2.919814e+00 4.075462e+00 5.647672e+00 6.585547e+00 7.593189e+00 7.268182e+00 5.590056e+00 2.702709e+00 1.757575e+00 1.439843e+00 2.716976e+00 3.524818e+00 2.429851e+00 2.015130e+00 4.346355e+00 6.199707e+00 6.071267e+00 3.670550e+00 2.693762e+00 3.318379e+00 3.214548e+00 1.702949e+00 1.078772e+00 2.424824e+00 2.319037e+00 8.523072e-01 4.614706e-01 0 0 0 0 
0 0 0 0 0 0 0 0 0 0 0 0 0 0 0 0 0 0 0 0 0 0 0 0 0 0 0 0 0 0 0 0 0 0 0 0 0 0 0 0 0 0 0 0 0 0 0 0 0 0 0 0 0 0 0 0 0 0 0 0 0 0 0 0 0 0 0 0 0 0 0 0 0 0 0 0 0 0 0 0 0 0 0 0 0 0 0 0 0 0 0 0 0 0 0 0 0 0 0 0 0 0 0 0 0 0 0 0 0 0 0 0 0 0 0 0 0 0 0 0 0 0 0 0 0 0 0 0 
