# vtk DataFile Version 2.0
Comment goes here
ASCII

DATASET STRUCTURED_POINTS
FIELD FieldData 1
TIME 1 1 double
0.73000000
DIMENSIONS    128   16   1

ORIGIN    0.000   0.000   0.000
SPACING   0.0078125 0.015625   1.000

POINT_DATA   2048
SCALARS fMag double
LOOKUP_TABLE default

0 0 0 0 0 0 0 0 0 0 0 0 0 0 0 0 0 0 0 0 0 0 0 0 0 0 0 0 0 0 0 0 0 0 0 0 0 0 0 0 0 0 0 0 0 0 0 0 0 0 0 0 0 0 0 0 0 0 0 0 0 0 0 0 0 0 0 0 0 0 0 0 0 0 0 0 0 0 0 0 0 0 0 0 0 0 0 0 0 0 0 0 0 0 0 0 0 0 0 0 0 0 0 0 0 0 0 0 0 0 0 0 0 0 0 0 0 0 0 0 0 0 0 0 0 0 0 0 
0 0 0 0 0 0 0 0 0 0 0 0 0 0 0 0 0 0 0 0 0 0 0 0 0 0 0 0 0 0 0 0 0 0 0 0 0 0 0 0 0 0 0 0 0 0 0 0 0 0 0 0 0 0 0 0 0 0 0 0 0 0 0 0 0 0 0 0 0 0 0 0 0 0 0 0 0 0 0 0 0 0 0 0 0 0 0 0 0 0 0 0 0 0 0 0 0 0 0 0 0 0 0 0 0 0 0 0 0 0 0 0 0 0 0 0 0 0 0 0 0 0 0 0 0 0 0 0 
0 0 0 0 0 1.732995e+00 5.507060e-01 1.231256e+00 4.094786e-01 5.259224e-01 4.767726e-01 5.526340e-01 8.625774e-01 9.845198e-01 1.366585e+00 1.389315e+00 2.973342e+00 3.432472e+00 4.372047e+00 5.701737e+00 5.788980e+00 6.186330e+00 6.055109e+00 6.059933e+00 6.023749e+00 5.898622e+00 5.894131e+00 5.659598e+00 5.679743e+00 5.422475e+00 5.545119e+00 5.381966e+00 5.589883e+00 5.450154e+00 5.576969e+00 5.361666e+00 5.348869e+00 5.108659e+00 5.039227e+00 4.891458e+00 4.852790e+00 4.841334e+00 4.829034e+00 4.895064e+00 4.823602e+00 4.831797e+00 4.603714e+00 4.517977e+00 4.256825e+00 4.259091e+00 4.152722e+00 4.279315e+00 4.253608e+00 4.318977e+00 4.195030e+00 4.037724e+00 3.988980e+00 3.386349e+00 1.878201e+00 2.397867e+00 2.319039e+00 1.203629e+00 1.843776e+00 3.531227e+00 3.255877e+00 2.727138e+00 3.364886e+00 3.558710e+00 2.487540e+00 1.275463e+00 9.101517e-01 2.252563e+00 3.669082e+00 3.575488e+00 3.515674e+00 3.487395e+00 3.423556e+00 3.427112e+00 3.317588e+00 3.309794e+00 3.102655e+00 3.054088e+00 2.782576e+00 2.758471e+00 2.530697e+00 2.601685e+00 2.463316e+00 2.568861e+00 2.448613e+00 2.493612e+00 2.383146e+00 2.349640e+00 2.254347e+00 2.106728e+00 2.053606e+00 1.855496e+00 1.936829e+00 1.723644e+00 1.899874e+00 1.616837e+00 1.831601e+00 1.490680e+00 1.729340e+00 1.369305e+00 1.605679e+00 1.257943e+00 1.440540e+00 1.131332e+00 1.231533e+00 1.019827e+00 1.012845e+00 9.117077e-01 7.655484e-01 8.209834e-01 5.774619e-01 8.020891e-01 4.221392e-01 7.228572e-01 2.307856e-01 5.830549e-01 2.055099e-01 6.807755e-01 2.812764e-01 6.535095e-01 0 0 0 0 
0 0 0 0 0 5.097774e+00 1.612319e+00 3.607205e+00 1.204590e+00 1.543940e+00 1.401382e+00 1.624368e+00 2.536609e+00 2.895505e+00 4.019722e+00 4.086491e+00 8.745695e+00 1.009616e+01 1.285996e+01 1.677145e+01 1.702824e+01 1.819722e+01 1.781138e+01 1.782561e+01 1.771918e+01 1.735106e+01 1.733780e+01 1.664780e+01 1.670699e+01 1.595011e+01 1.631082e+01 1.583083e+01 1.644241e+01 1.603137e+01 1.640441e+01 1.577108e+01 1.573346e+01 1.502688e+01 1.482265e+01 1.438800e+01 1.427426e+01 1.424056e+01 1.420437e+01 1.439859e+01 1.418835e+01 1.421245e+01 1.354149e+01 1.328928e+01 1.252107e+01 1.252773e+01 1.221484e+01 1.258722e+01 1.251161e+01 1.270391e+01 1.233932e+01 1.187659e+01 1.188595e+01 1.097094e+01 6.684841e+00 6.996634e+00 8.322327e+00 5.762794e+00 6.753336e+00 7.262374e+00 5.252205e+00 5.836679e+00 6.685357e+00 5.994338e+00 8.017224e+00 7.877698e+00 7.124262e+00 1.022557e+01 1.221842e+01 1.051698e+01 1.034101e+01 1.025781e+01 1.007002e+01 1.008047e+01 9.758291e+00 9.735359e+00 9.126057e+00 8.983198e+00 8.184561e+00 8.113672e+00 7.443717e+00 7.652558e+00 7.245598e+00 7.556103e+00 7.202452e+00 7.334858e+00 7.009967e+00 6.911427e+00 6.631141e+00 6.196903e+00 6.040619e+00 5.457838e+00 5.697009e+00 5.069888e+00 5.588204e+00 4.755668e+00 5.387395e+00 4.384697e+00 5.086817e+00 4.028019e+00 4.723519e+00 3.700991e+00 4.238368e+00 3.329184e+00 3.624166e+00 3.001668e+00 2.981243e+00 2.683763e+00 2.253767e+00 2.416564e+00 1.700012e+00 2.360277e+00 1.242417e+00 2.126842e+00 6.803891e-01 1.722322e+00 6.144262e-01 2.032741e+00 8.188251e-01 1.921567e+00 0 0 0 0 
0 0 0 0 0 3.521681e+00 1.110137e+00 2.484854e+00 8.322222e-01 1.065089e+00 9.675842e-01 1.121547e+00 1.751996e+00 8.907850e+00 7.316896e+00 1.063218e+01 1.647904e+01 1.195882e+01 1.768207e+01 1.381589e+01 1.411160e+01 1.257091e+01 1.230443e+01 1.231428e+01 1.224076e+01 1.198643e+01 1.197725e+01 1.150053e+01 1.154139e+01 1.101847e+01 1.126763e+01 1.093601e+01 1.135849e+01 1.107452e+01 1.133223e+01 1.089471e+01 1.086873e+01 1.038062e+01 1.023954e+01 9.939278e+00 9.860707e+00 9.837425e+00 9.812422e+00 9.946586e+00 9.801341e+00 9.817975e+00 9.354454e+00 9.180211e+00 8.649509e+00 8.654106e+00 8.437956e+00 8.695208e+00 8.642978e+00 8.775825e+00 8.523964e+00 8.204301e+00 8.378382e+00 1.013419e+01 9.596396e+00 7.894040e+00 1.047471e+01 1.125563e+01 1.199337e+01 1.424119e+01 1.601171e+01 1.581807e+01 1.569307e+01 1.655233e+01 1.640372e+01 1.363496e+01 1.393907e+01 1.392187e+01 1.036261e+01 7.265093e+00 7.143516e+00 7.086037e+00 6.956301e+00 6.963514e+00 6.740945e+00 6.725100e+00 6.304185e+00 6.205497e+00 5.653799e+00 5.604835e+00 5.142043e+00 5.286327e+00 5.005221e+00 5.219741e+00 4.975464e+00 5.066951e+00 4.842535e+00 4.774472e+00 4.580855e+00 4.280871e+00 4.172895e+00 3.770285e+00 3.935472e+00 3.502232e+00 3.860259e+00 3.285142e+00 3.721546e+00 3.028929e+00 3.514011e+00 2.782701e+00 3.263260e+00 2.557049e+00 2.928406e+00 2.300502e+00 2.504394e+00 2.074480e+00 2.060425e+00 1.854930e+00 1.557851e+00 1.670185e+00 1.175070e+00 1.630957e+00 8.586124e-01 1.469517e+00 4.707640e-01 1.193321e+00 4.299068e-01 1.419092e+00 5.616286e-01 1.327086e+00 0 0 0 0 
0 0 0 0 0 1.569017e-01 4.852439e-02 1.089053e-01 3.711067e-02 4.707044e-02 4.297507e-02 4.981342e-02 7.796500e-02 1.086198e+01 1.191356e+01 1.120127e+01 1.229080e+01 1.158234e+01 1.186866e+01 1.231531e+01 1.059428e+01 5.600146e-01 5.481613e-01 5.486048e-01 5.453312e-01 5.339937e-01 5.335792e-01 5.123274e-01 5.141390e-01 4.908295e-01 5.019225e-01 4.871409e-01 5.059606e-01 4.933060e-01 5.047888e-01 4.852967e-01 4.841412e-01 4.623972e-01 4.561136e-01 4.427385e-01 4.392388e-01 4.382015e-01 4.370867e-01 4.430621e-01 4.365885e-01 4.373274e-01 4.166734e-01 4.089090e-01 3.852641e-01 3.854680e-01 3.758386e-01 3.872998e-01 3.849737e-01 3.908932e-01 3.796739e-01 3.654324e-01 4.709759e-01 3.486291e+00 5.431435e+00 3.688689e+00 5.535755e+00 7.341977e+00 7.605977e+00 8.530307e+00 8.047229e+00 6.956734e+00 6.114090e+00 6.085191e+00 5.090690e+00 3.177465e+00 3.630303e+00 3.248348e+00 1.042292e+00 3.236002e-01 3.181807e-01 3.156185e-01 3.098377e-01 3.101578e-01 3.002416e-01 2.995348e-01 2.807837e-01 2.763876e-01 2.518132e-01 2.496339e-01 2.290229e-01 2.354540e-01 2.229382e-01 2.324997e-01 2.216250e-01 2.257056e-01 2.157142e-01 2.126844e-01 2.040615e-01 1.906959e-01 1.858827e-01 1.679427e-01 1.752926e-01 1.559884e-01 1.719295e-01 1.463117e-01 1.657522e-01 1.349130e-01 1.565346e-01 1.239869e-01 1.454199e-01 1.140017e-01 1.305776e-01 1.026495e-01 1.117617e-01 9.263941e-02 9.202716e-02 8.287482e-02 6.963230e-02 7.460395e-02 5.251928e-02 7.276917e-02 3.833424e-02 6.553144e-02 2.116046e-02 5.405367e-02 2.094327e-02 6.711488e-02 2.408481e-02 5.902797e-02 0 0 0 0 
0 0 0 0 0 0 0 0 0 0 0 0 0 1.165180e+01 1.240662e+01 1.196984e+01 1.287078e+01 1.231714e+01 1.246629e+01 1.273467e+01 1.118960e+01 0 0 0 0 0 0 0 0 0 0 0 0 0 0 0 0 0 0 0 0 0 0 0 0 0 0 0 0 0 0 0 0 0 0 0 7.468328e-02 5.239962e-01 6.663198e-01 2.772778e-01 3.140959e-01 3.752383e-01 4.714272e-01 5.178505e-01 8.058294e-01 1.160513e+00 1.173521e+00 1.362729e+00 1.628982e+00 1.297702e+00 1.614477e+00 2.015748e+00 8.301937e-01 0 0 0 0 0 0 0 0 0 0 0 0 0 0 0 0 0 0 0 0 0 0 0 0 0 0 0 0 0 0 0 0 0 0 0 0 0 0 0 0 0 0 0 0 0 0 0 0 0 0 0 0 0 0 0 
0 0 0 0 0 0 0 0 0 0 0 0 0 1.218438e+01 1.270624e+01 1.223427e+01 1.257130e+01 1.241518e+01 1.238022e+01 1.267264e+01 1.220011e+01 0 0 0 0 0 0 0 0 0 0 0 0 0 0 0 0 0 0 0 0 0 0 0 0 0 0 0 0 0 0 0 0 0 0 0 1.319921e-01 5.149188e-01 2.837407e-01 2.613703e-01 2.444962e-01 3.928909e-01 2.642924e-01 3.562440e-01 5.958844e-01 8.901160e-01 7.071065e-01 5.977081e-01 6.079033e-01 4.595135e-01 6.150822e-02 1.402815e-01 6.610890e-02 0 0 0 0 0 0 0 0 0 0 0 0 0 0 0 0 0 0 0 0 0 0 0 0 0 0 0 0 0 0 0 0 0 0 0 0 0 0 0 0 0 0 0 0 0 0 0 0 0 0 0 0 0 0 0 
0 0 0 0 0 0 0 0 0 0 0 0 0 1.244133e+01 1.293359e+01 1.251363e+01 1.284841e+01 1.271999e+01 1.261349e+01 1.299380e+01 1.232150e+01 0 0 0 0 0 0 0 0 0 0 0 0 0 0 0 0 0 0 0 0 0 0 0 0 0 0 0 0 0 0 0 0 0 0 0 4.480660e-02 2.991627e-01 2.252578e-01 6.349823e-02 6.316786e-02 5.418994e-02 1.893297e-01 1.424686e-01 2.377904e-01 2.463418e-01 2.431443e-01 4.104558e-01 4.072576e-01 5.151038e-01 8.358470e-01 4.989814e-01 2.593807e-02 0 0 0 0 0 0 0 0 0 0 0 0 0 0 0 0 0 0 0 0 0 0 0 0 0 0 0 0 0 0 0 0 0 0 0 0 0 0 0 0 0 0 0 0 0 0 0 0 0 0 0 0 0 0 0 
0 0 0 0 0 0 0 0 0 0 0 0 0 1.218166e+01 1.270491e+01 1.222716e+01 1.256521e+01 1.240352e+01 1.236744e+01 1.265686e+01 1.218216e+01 0 0 0 0 0 0 0 0 0 0 0 0 0 0 0 0 0 0 0 0 0 0 0 0 0 0 0 0 0 0 0 0 0 0 0 9.471073e-05 2.184435e-04 3.618302e-02 8.020598e-02 1.014872e-01 1.173412e-01 8.657004e-02 3.109208e-02 2.701456e-04 2.628831e-02 4.339925e-02 2.888250e-02 4.298174e-02 3.961936e-02 4.014078e-02 4.715260e-02 3.579581e-03 0 0 0 0 0 0 0 0 0 0 0 0 0 0 0 0 0 0 0 0 0 0 0 0 0 0 0 0 0 0 0 0 0 0 0 0 0 0 0 0 0 0 0 0 0 0 0 0 0 0 0 0 0 0 0 
0 0 0 0 0 0 0 0 0 0 0 0 0 1.165848e+01 1.241502e+01 1.196583e+01 1.287396e+01 1.230484e+01 1.244881e+01 1.271508e+01 1.114310e+01 0 0 0 0 0 0 0 0 0 0 0 0 0 0 0 0 0 0 0 0 0 0 0 0 0 0 0 0 0 0 0 0 0 0 0 0 0 0 0 0 0 0 0 0 0 0 0 0 0 0 0 0 0 0 0 0 0 0 0 0 0 0 0 0 0 0 0 0 0 0 0 0 0 0 0 0 0 0 0 0 0 0 0 0 0 0 0 0 0 0 0 0 0 0 0 0 0 0 0 0 0 0 0 0 0 0 0 
0 0 0 0 0 1.571058e-01 4.753172e-02 1.059386e-01 4.016925e-02 4.612330e-02 4.451723e-02 4.808378e-02 7.874632e-02 1.085798e+01 1.191103e+01 1.117983e+01 1.227977e+01 1.154790e+01 1.182334e+01 1.225141e+01 1.049080e+01 5.510384e-01 5.346300e-01 5.337122e-01 5.342850e-01 5.308776e-01 5.414646e-01 5.314712e-01 5.422804e-01 5.196555e-01 5.216052e-01 4.875936e-01 4.861766e-01 4.579214e-01 4.673730e-01 4.568722e-01 4.758458e-01 4.745557e-01 4.861300e-01 4.782308e-01 4.704474e-01 4.524563e-01 4.301219e-01 4.131174e-01 3.933123e-01 3.942801e-01 3.907139e-01 4.091416e-01 4.093772e-01 4.221157e-01 4.079407e-01 4.047324e-01 3.799675e-01 3.701404e-01 3.495262e-01 3.459207e-01 3.409465e-01 3.478785e-01 3.562913e-01 3.637795e-01 3.720022e-01 3.674125e-01 3.655804e-01 3.476966e-01 3.406761e-01 3.192013e-01 3.149484e-01 2.983002e-01 3.028110e-01 2.983864e-01 3.124385e-01 3.143877e-01 3.219520e-01 3.153466e-01 3.061612e-01 2.908409e-01 2.706476e-01 2.575038e-01 2.390313e-01 2.406034e-01 2.331598e-01 2.508784e-01 2.491289e-01 2.687260e-01 2.568471e-01 2.614028e-01 2.336513e-01 2.260193e-01 1.981448e-01 1.926547e-01 1.784511e-01 1.800723e-01 1.834442e-01 1.884164e-01 2.007480e-01 1.922609e-01 1.977380e-01 1.674152e-01 1.681857e-01 1.278128e-01 1.364448e-01 1.006859e-01 1.239985e-01 9.860203e-02 1.302384e-01 1.100265e-01 1.355719e-01 1.124139e-01 1.186162e-01 9.162867e-02 8.164953e-02 6.780652e-02 5.562020e-02 6.434409e-02 4.721845e-02 7.148965e-02 4.254848e-02 7.378511e-02 3.096905e-02 6.150189e-02 2.472040e-02 6.884055e-02 2.349414e-02 5.890146e-02 0 0 0 0 
0 0 0 0 0 3.526265e+00 1.087600e+00 2.418197e+00 8.991638e-01 1.043485e+00 1.001897e+00 1.082680e+00 1.769459e+00 8.970299e+00 7.352555e+00 1.062233e+01 1.653448e+01 1.191138e+01 1.764336e+01 1.372609e+01 1.391600e+01 1.236937e+01 1.200062e+01 1.197991e+01 1.199274e+01 1.191636e+01 1.215413e+01 1.193008e+01 1.217290e+01 1.166538e+01 1.170932e+01 1.094615e+01 1.091445e+01 1.028032e+01 1.049247e+01 1.025674e+01 1.068251e+01 1.065349e+01 1.091318e+01 1.073582e+01 1.056110e+01 1.015725e+01 9.655998e+00 9.274329e+00 8.829862e+00 8.851652e+00 8.771665e+00 9.185372e+00 9.190710e+00 9.476671e+00 9.158527e+00 9.086514e+00 8.530616e+00 8.310016e+00 7.847248e+00 7.766294e+00 7.654609e+00 7.810191e+00 7.999041e+00 8.167130e+00 8.351726e+00 8.248730e+00 8.207629e+00 7.806224e+00 7.648648e+00 7.166604e+00 7.071137e+00 6.697398e+00 6.798636e+00 6.699275e+00 7.014672e+00 7.058392e+00 7.228151e+00 7.079841e+00 6.873645e+00 6.529710e+00 6.076435e+00 5.781383e+00 5.366740e+00 5.402082e+00 5.235011e+00 5.632822e+00 5.593549e+00 6.033463e+00 5.766733e+00 5.868913e+00 5.245760e+00 5.074309e+00 4.448333e+00 4.324968e+00 4.005955e+00 4.042290e+00 4.117993e+00 4.229653e+00 4.506631e+00 4.316242e+00 4.439365e+00 3.758778e+00 3.776188e+00 2.869796e+00 3.063552e+00 2.260448e+00 2.783530e+00 2.212784e+00 2.922428e+00 2.467880e+00 3.040596e+00 2.519861e+00 2.658434e+00 2.051904e+00 1.827566e+00 1.516722e+00 1.243311e+00 1.439920e+00 1.056098e+00 1.602277e+00 9.532569e-01 1.654855e+00 6.908078e-01 1.360717e+00 5.083436e-01 1.460013e+00 5.488944e-01 1.324238e+00 0 0 0 0 
0 0 0 0 0 5.104411e+00 1.579631e+00 3.510698e+00 1.301048e+00 1.512582e+00 1.450975e+00 1.568094e+00 2.561869e+00 2.943656e+00 4.028298e+00 4.062939e+00 8.716130e+00 1.009942e+01 1.282888e+01 1.677783e+01 1.690125e+01 1.790547e+01 1.737157e+01 1.734158e+01 1.736013e+01 1.724959e+01 1.759381e+01 1.726955e+01 1.762109e+01 1.688652e+01 1.695017e+01 1.584552e+01 1.579965e+01 1.488174e+01 1.518883e+01 1.484759e+01 1.546390e+01 1.542186e+01 1.579775e+01 1.554100e+01 1.528808e+01 1.470348e+01 1.397791e+01 1.342543e+01 1.278206e+01 1.281362e+01 1.269785e+01 1.329673e+01 1.330447e+01 1.371843e+01 1.325790e+01 1.315366e+01 1.234896e+01 1.202963e+01 1.135974e+01 1.124254e+01 1.108086e+01 1.130608e+01 1.157945e+01 1.182277e+01 1.208999e+01 1.194090e+01 1.188141e+01 1.130036e+01 1.107226e+01 1.037448e+01 1.023628e+01 9.695261e+00 9.841806e+00 9.697964e+00 1.015451e+01 1.021779e+01 1.046352e+01 1.024882e+01 9.950336e+00 9.452459e+00 8.796318e+00 8.369208e+00 7.768990e+00 7.820162e+00 7.578321e+00 8.154198e+00 8.097348e+00 8.734153e+00 8.348025e+00 8.495916e+00 7.593810e+00 7.345589e+00 6.439380e+00 6.260769e+00 5.798931e+00 5.851514e+00 5.961103e+00 6.122749e+00 6.523735e+00 6.248166e+00 6.426439e+00 5.441267e+00 5.466497e+00 4.154403e+00 4.434875e+00 3.272226e+00 4.029364e+00 3.203004e+00 4.230130e+00 3.571928e+00 4.400791e+00 3.646766e+00 3.847193e+00 2.969015e+00 2.644187e+00 2.194194e+00 1.798449e+00 2.083252e+00 1.527797e+00 2.318771e+00 1.379433e+00 2.395149e+00 9.988819e-01 1.964690e+00 7.258134e-01 2.092537e+00 8.005243e-01 1.917443e+00 0 0 0 0 
0 0 0 0 0 1.735251e+00 5.395631e-01 1.198440e+00 4.420532e-01 5.152202e-01 4.935949e-01 5.334982e-01 8.711554e-01 1.000885e+00 1.369501e+00 1.381307e+00 2.963290e+00 3.433582e+00 4.361480e+00 5.703901e+00 5.745804e+00 6.087140e+00 5.905583e+00 5.895374e+00 5.901675e+00 5.864113e+00 5.981148e+00 5.870944e+00 5.990478e+00 5.740798e+00 5.762455e+00 5.386956e+00 5.371374e+00 5.059340e+00 5.163735e+00 5.047724e+00 5.257228e+00 5.242931e+00 5.370701e+00 5.283412e+00 5.197429e+00 4.998691e+00 4.752038e+00 4.564221e+00 4.345514e+00 4.356251e+00 4.316902e+00 4.520504e+00 4.523142e+00 4.663870e+00 4.507317e+00 4.471880e+00 4.198316e+00 4.089755e+00 3.862013e+00 3.822170e+00 3.767202e+00 3.843762e+00 3.936699e+00 4.019417e+00 4.110263e+00 4.059584e+00 4.039362e+00 3.841834e+00 3.764292e+00 3.527073e+00 3.480092e+00 3.296164e+00 3.345981e+00 3.297075e+00 3.452279e+00 3.473787e+00 3.557320e+00 3.484327e+00 3.382853e+00 3.213590e+00 2.990530e+00 2.845329e+00 2.641281e+00 2.658684e+00 2.576470e+00 2.772254e+00 2.752927e+00 2.969417e+00 2.838139e+00 2.888406e+00 2.581701e+00 2.497299e+00 2.189192e+00 2.128455e+00 1.971427e+00 1.989296e+00 2.026554e+00 2.081513e+00 2.217852e+00 2.124185e+00 2.184813e+00 1.849904e+00 1.858495e+00 1.412420e+00 1.507768e+00 1.112464e+00 1.369833e+00 1.088822e+00 1.437940e+00 1.214075e+00 1.495767e+00 1.239318e+00 1.307375e+00 1.008740e+00 8.982708e-01 7.452782e-01 6.107583e-01 7.076758e-01 5.189176e-01 7.879837e-01 4.687247e-01 8.140786e-01 3.390431e-01 6.654751e-01 2.422279e-01 7.013749e-01 2.751189e-01 6.521063e-01 0 0 0 0 
0 0 0 0 0 0 0 0 0 0 0 0 0 0 0 0 0 0 0 0 0 0 0 0 0 0 0 0 0 0 0 0 0 0 0 0 0 0 0 0 0 0 0 0 0 0 0 0 0 0 0 0 0 0 0 0 0 0 0 0 0 0 0 0 0 0 0 0 0 0 0 0 0 0 0 0 0 0 0 0 0 0 0 0 0 0 0 0 0 0 0 0 0 0 0 0 0 0 0 0 0 0 0 0 0 0 0 0 0 0 0 0 0 0 0 0 0 0 0 0 0 0 0 0 0 0 0 0 
