# vtk DataFile Version 2.0
Comment goes here
ASCII

DATASET STRUCTURED_POINTS
FIELD FieldData 1
TIME 1 1 double
0.67000000
DIMENSIONS    128   16   1

ORIGIN    0.000   0.000   0.000
SPACING   0.0078125 0.015625   1.000

POINT_DATA   2048
SCALARS fX double
LOOKUP_TABLE default

0 0 0 0 0 0 0 0 0 0 0 0 0 0 0 0 0 0 0 0 0 0 0 0 0 0 0 0 0 0 0 0 0 0 0 0 0 0 0 0 0 0 0 0 0 0 0 0 0 0 0 0 0 0 0 0 0 0 0 0 0 0 0 0 0 0 0 0 0 0 0 0 0 0 0 0 0 0 0 0 0 0 0 0 0 0 0 0 0 0 0 0 0 0 0 0 0 0 0 0 0 0 0 0 0 0 0 0 0 0 0 0 0 0 0 0 0 0 0 0 0 0 0 0 0 0 0 0 
0 0 0 0 0 0 0 0 0 0 0 0 0 0 0 0 0 0 0 0 0 0 0 0 0 0 0 0 0 0 0 0 0 0 0 0 0 0 0 0 0 0 0 0 0 0 0 0 0 0 0 0 0 0 0 0 0 0 0 0 0 0 0 0 0 0 0 0 0 0 0 0 0 0 0 0 0 0 0 0 0 0 0 0 0 0 0 0 0 0 0 0 0 0 0 0 0 0 0 0 0 0 0 0 0 0 0 0 0 0 0 0 0 0 0 0 0 0 0 0 0 0 0 0 0 0 0 0 
0 0 0 0 0 1.695252e+00 1.373684e+00 -2.907595e-01 5.767924e-01 3.061544e-01 5.423109e-01 3.327972e-01 -5.592327e-02 -2.192574e+00 -3.010063e+00 -2.222598e+00 -2.128029e+00 -2.469214e+00 -1.809460e+00 -2.687485e+00 -2.586517e+00 3.153131e-01 4.165493e-01 5.292730e-01 4.206677e-01 5.207858e-01 4.159034e-01 5.007624e-01 4.051975e-01 4.754264e-01 3.975667e-01 4.549278e-01 3.991789e-01 4.446700e-01 4.115201e-01 4.449727e-01 4.307073e-01 4.514128e-01 4.506789e-01 4.585530e-01 4.663696e-01 4.623653e-01 4.762770e-01 4.621756e-01 4.808133e-01 4.580223e-01 4.802934e-01 4.498525e-01 4.731052e-01 4.368527e-01 4.563277e-01 4.164083e-01 4.272962e-01 3.869308e-01 3.819498e-01 1.425635e-01 -2.253086e+00 -3.438460e+00 2.175250e-01 6.591276e-01 -9.004475e-01 -3.493595e-01 -2.555775e+00 -4.373859e+00 -2.420962e+00 -9.210945e-01 -1.303244e+00 -1.821852e-01 2.219661e+00 1.681073e+00 1.491787e+00 3.852476e+00 3.404027e+00 1.099138e+00 3.113698e-01 3.520360e-01 3.617059e-01 3.753171e-01 3.784127e-01 3.842203e-01 3.892056e-01 3.918844e-01 4.023976e-01 4.027632e-01 4.192931e-01 4.163149e-01 4.383388e-01 4.308260e-01 4.572916e-01 4.449590e-01 4.734996e-01 4.568057e-01 4.840353e-01 4.641624e-01 4.863205e-01 4.661927e-01 4.800018e-01 4.647009e-01 4.673354e-01 4.632019e-01 4.516119e-01 4.651010e-01 4.356135e-01 4.714598e-01 4.204973e-01 4.815151e-01 4.067397e-01 4.938890e-01 3.961532e-01 5.083693e-01 3.916012e-01 5.241140e-01 3.951624e-01 5.388099e-01 4.069880e-01 5.492507e-01 4.240298e-01 5.531743e-01 4.363485e-01 5.660028e-01 2.815464e-01 4.409598e-01 1.554706e+00 3.271608e-01 0 0 0 0 
0 0 0 0 0 4.984749e+00 4.026989e+00 -8.747352e-01 1.687464e+00 8.986924e-01 1.594526e+00 9.784403e-01 -1.650778e-01 -6.449793e+00 -8.854145e+00 -6.538252e+00 -6.260223e+00 -7.264167e+00 -5.323302e+00 -7.906016e+00 -7.608396e+00 9.282508e-01 1.225998e+00 1.557473e+00 1.237839e+00 1.532261e+00 1.223629e+00 1.473210e+00 1.192035e+00 1.398616e+00 1.169558e+00 1.338306e+00 1.174314e+00 1.308152e+00 1.210648e+00 1.309072e+00 1.267120e+00 1.328039e+00 1.325885e+00 1.349048e+00 1.372039e+00 1.360247e+00 1.401161e+00 1.359657e+00 1.414470e+00 1.347401e+00 1.412902e+00 1.323334e+00 1.391727e+00 1.285071e+00 1.342355e+00 1.224920e+00 1.256947e+00 1.138201e+00 1.123539e+00 4.193168e-01 -6.719171e+00 -1.042246e+01 1.968334e-01 1.162419e+00 -4.210275e+00 -2.967876e+00 -7.246051e+00 -8.485923e+00 -9.089760e-01 2.699545e+00 8.709250e-01 3.491636e+00 9.025022e+00 6.269603e+00 5.093456e+00 1.172081e+01 1.022443e+01 3.233145e+00 9.158831e-01 1.035511e+00 1.063958e+00 1.103996e+00 1.113100e+00 1.130181e+00 1.144842e+00 1.152719e+00 1.183642e+00 1.184717e+00 1.233342e+00 1.224583e+00 1.289373e+00 1.267277e+00 1.345133e+00 1.308864e+00 1.392825e+00 1.343730e+00 1.423835e+00 1.365391e+00 1.430578e+00 1.371381e+00 1.411999e+00 1.366992e+00 1.374727e+00 1.362556e+00 1.328439e+00 1.368096e+00 1.281330e+00 1.386751e+00 1.236830e+00 1.416311e+00 1.196380e+00 1.452764e+00 1.165349e+00 1.495514e+00 1.152174e+00 1.542083e+00 1.162942e+00 1.585611e+00 1.198018e+00 1.616551e+00 1.248283e+00 1.628069e+00 1.284269e+00 1.665352e+00 8.302789e-01 1.301537e+00 4.575700e+00 9.625036e-01 0 0 0 0 
0 0 0 0 0 3.442631e+00 2.775249e+00 -6.137102e-01 1.161274e+00 6.199250e-01 1.101186e+00 6.756835e-01 -1.143184e-01 -2.452074e+01 -3.715855e+01 -2.682669e+01 -2.569143e+01 -2.950626e+01 -2.250472e+01 -3.418723e+01 -2.763546e+01 6.416130e-01 8.472815e-01 1.076219e+00 8.553282e-01 1.058682e+00 8.454167e-01 1.017815e+00 8.235417e-01 9.662513e-01 8.079996e-01 9.245825e-01 8.112919e-01 9.037606e-01 8.364077e-01 9.044108e-01 8.754342e-01 9.175250e-01 9.160393e-01 9.320414e-01 9.479224e-01 9.397705e-01 9.680303e-01 9.393472e-01 9.772075e-01 9.308615e-01 9.761055e-01 9.142193e-01 9.614627e-01 8.877743e-01 9.273467e-01 8.462151e-01 8.683397e-01 7.863026e-01 7.761691e-01 2.896523e-01 -4.660834e+00 -6.575893e+00 1.172159e+00 1.264246e+00 -2.491656e+00 -1.448319e+00 -3.115398e+00 -1.270806e+00 5.025025e+00 6.707670e+00 4.865101e+00 6.283543e+00 8.975213e+00 6.074677e+00 4.963336e+00 9.081435e+00 7.358251e+00 2.233507e+00 6.326967e-01 7.153413e-01 7.349936e-01 7.626531e-01 7.689416e-01 7.807395e-01 7.908665e-01 7.963061e-01 8.176683e-01 8.184098e-01 8.520026e-01 8.459525e-01 8.907125e-01 8.754506e-01 9.292381e-01 9.041856e-01 9.621912e-01 9.282808e-01 9.836233e-01 9.432553e-01 9.882912e-01 9.474013e-01 9.754607e-01 9.443690e-01 9.497056e-01 9.412921e-01 9.177116e-01 9.450962e-01 8.851435e-01 9.579595e-01 8.543857e-01 9.783717e-01 8.264513e-01 1.003580e+00 8.050673e-01 1.033188e+00 7.960699e-01 1.065483e+00 8.036507e-01 1.095698e+00 8.280220e-01 1.117182e+00 8.628125e-01 1.125127e+00 8.875505e-01 1.150664e+00 5.745883e-01 9.012745e-01 3.162171e+00 6.649857e-01 0 0 0 0 
0 0 0 0 0 1.531338e-01 1.219435e-01 -2.973450e-02 5.060289e-02 2.738698e-02 4.897080e-02 3.004040e-02 -5.163852e-03 -2.672085e+01 -2.911598e+01 -2.725818e+01 -2.756416e+01 -2.800625e+01 -2.667568e+01 -2.861175e+01 -2.688669e+01 2.867527e-02 3.783243e-02 4.801840e-02 3.815716e-02 4.720670e-02 3.769150e-02 4.536753e-02 3.670445e-02 4.306206e-02 3.600830e-02 4.120425e-02 3.615665e-02 4.027900e-02 3.727950e-02 4.031164e-02 3.902197e-02 4.089876e-02 4.083315e-02 4.154620e-02 4.225339e-02 4.188865e-02 4.314660e-02 4.186584e-02 4.355116e-02 4.148301e-02 4.349730e-02 4.073735e-02 4.284121e-02 3.955625e-02 4.131894e-02 3.770325e-02 3.868886e-02 3.503290e-02 3.458022e-02 1.289903e-02 -1.854887e-01 6.765864e-01 1.644147e+00 1.056804e+00 1.231200e+00 1.696036e+00 1.944590e+00 3.087370e+00 3.624104e+00 3.070796e+00 2.597365e+00 2.503238e+00 2.057497e+00 1.336848e+00 1.295818e+00 1.233348e+00 5.397580e-01 9.950009e-02 2.818346e-02 3.186609e-02 3.274185e-02 3.397411e-02 3.425407e-02 3.477929e-02 3.523009e-02 3.547200e-02 3.642355e-02 3.645642e-02 3.795326e-02 3.768393e-02 3.967859e-02 3.899916e-02 4.139617e-02 4.028095e-02 4.286602e-02 4.135667e-02 4.382320e-02 4.202641e-02 4.403370e-02 4.221324e-02 4.346310e-02 4.207806e-02 4.231404e-02 4.193776e-02 4.088423e-02 4.210147e-02 3.942726e-02 4.266843e-02 3.805274e-02 4.357561e-02 3.681058e-02 4.470526e-02 3.587138e-02 4.604353e-02 3.549698e-02 4.751371e-02 3.587075e-02 4.889656e-02 3.699216e-02 4.988175e-02 3.855886e-02 5.023272e-02 3.963009e-02 5.131480e-02 2.585579e-02 4.069711e-02 1.411772e-01 2.964291e-02 0 0 0 0 
0 0 0 0 0 0 0 0 0 0 0 0 0 -2.935334e+01 -3.214437e+01 -3.002880e+01 -3.039713e+01 -3.098346e+01 -2.934541e+01 -3.187137e+01 -2.942092e+01 0 0 0 0 0 0 0 0 0 0 0 0 0 0 0 0 0 0 0 0 0 0 0 0 0 0 0 0 0 0 0 0 0 0 0 -3.750358e-04 2.332860e-01 4.494681e-01 3.419603e-01 4.003347e-01 5.001753e-01 3.994373e-01 2.573089e-01 1.329719e-01 3.903212e-02 -6.066657e-02 -9.575979e-02 -9.801987e-02 -1.528350e-01 -1.274208e-01 -3.052625e-02 -3.088123e-03 0 0 0 0 0 0 0 0 0 0 0 0 0 0 0 0 0 0 0 0 0 0 0 0 0 0 0 0 0 0 0 0 0 0 0 0 0 0 0 0 0 0 0 0 0 0 0 0 0 0 0 0 0 0 0 
0 0 0 0 0 0 0 0 0 0 0 0 0 -2.843733e+01 -2.927252e+01 -2.857687e+01 -2.877141e+01 -2.889667e+01 -2.842282e+01 -2.928690e+01 -2.835978e+01 0 0 0 0 0 0 0 0 0 0 0 0 0 0 0 0 0 0 0 0 0 0 0 0 0 0 0 0 0 0 0 0 0 0 0 -1.730994e-02 -8.966010e-02 -6.465858e-02 1.515766e-02 -7.186994e-02 -7.977336e-02 1.194633e-02 -7.380006e-03 1.799952e-02 7.178443e-02 5.760960e-02 4.320963e-02 5.616826e-02 5.923422e-02 1.892356e-02 -6.638529e-03 -2.874875e-03 0 0 0 0 0 0 0 0 0 0 0 0 0 0 0 0 0 0 0 0 0 0 0 0 0 0 0 0 0 0 0 0 0 0 0 0 0 0 0 0 0 0 0 0 0 0 0 0 0 0 0 0 0 0 0 
0 0 0 0 0 0 0 0 0 0 0 0 0 -3.049281e+01 -3.173453e+01 -3.079365e+01 -3.101527e+01 -3.132832e+01 -3.045687e+01 -3.188093e+01 -3.030052e+01 0 0 0 0 0 0 0 0 0 0 0 0 0 0 0 0 0 0 0 0 0 0 0 0 0 0 0 0 0 0 0 0 0 0 0 -7.942642e-03 -5.609738e-02 -6.366202e-02 -2.896673e-02 -5.510862e-02 -4.837346e-02 -1.315276e-02 -1.690614e-02 -4.332579e-03 1.476998e-02 2.231471e-02 3.082890e-02 4.008937e-02 6.289875e-02 8.834132e-02 5.116535e-02 2.772491e-03 0 0 0 0 0 0 0 0 0 0 0 0 0 0 0 0 0 0 0 0 0 0 0 0 0 0 0 0 0 0 0 0 0 0 0 0 0 0 0 0 0 0 0 0 0 0 0 0 0 0 0 0 0 0 0 
0 0 0 0 0 0 0 0 0 0 0 0 0 -2.844565e+01 -2.928041e+01 -2.859299e+01 -2.878648e+01 -2.892301e+01 -2.844701e+01 -2.932370e+01 -2.839222e+01 0 0 0 0 0 0 0 0 0 0 0 0 0 0 0 0 0 0 0 0 0 0 0 0 0 0 0 0 0 0 0 0 0 0 0 -2.680643e-04 -1.625923e-03 -8.323277e-04 1.986125e-03 4.067536e-03 5.736747e-03 4.626247e-03 1.669683e-03 -4.252688e-04 -1.747227e-03 -2.393833e-03 -1.655788e-03 -1.744142e-03 1.287041e-04 7.846030e-03 7.030454e-03 6.465976e-04 0 0 0 0 0 0 0 0 0 0 0 0 0 0 0 0 0 0 0 0 0 0 0 0 0 0 0 0 0 0 0 0 0 0 0 0 0 0 0 0 0 0 0 0 0 0 0 0 0 0 0 0 0 0 0 
0 0 0 0 0 0 0 0 0 0 0 0 0 -2.935300e+01 -3.214994e+01 -3.004642e+01 -3.041268e+01 -3.102419e+01 -2.938427e+01 -3.193524e+01 -2.949673e+01 0 0 0 0 0 0 0 0 0 0 0 0 0 0 0 0 0 0 0 0 0 0 0 0 0 0 0 0 0 0 0 0 0 0 0 0 0 0 0 0 0 0 0 0 0 0 0 0 0 0 0 0 0 0 0 0 0 0 0 0 0 0 0 0 0 0 0 0 0 0 0 0 0 0 0 0 0 0 0 0 0 0 0 0 0 0 0 0 0 0 0 0 0 0 0 0 0 0 0 0 0 0 0 0 0 0 0 
0 0 0 0 0 1.531082e-01 1.225583e-01 -2.822345e-02 5.219032e-02 2.908048e-02 5.022497e-02 3.092252e-02 -5.171550e-03 -2.672764e+01 -2.912970e+01 -2.729599e+01 -2.760094e+01 -2.808393e+01 -2.675162e+01 -2.874689e+01 -2.703221e+01 2.422695e-02 3.302321e-02 4.336534e-02 3.428547e-02 4.442256e-02 3.651560e-02 4.579716e-02 3.901918e-02 4.683553e-02 4.122596e-02 4.708462e-02 4.259185e-02 4.629090e-02 4.292765e-02 4.460021e-02 4.244009e-02 4.246355e-02 4.158225e-02 4.045174e-02 4.084337e-02 3.899162e-02 4.046154e-02 3.813784e-02 4.035237e-02 3.772261e-02 4.038889e-02 3.766515e-02 4.059123e-02 3.800415e-02 4.100052e-02 3.869739e-02 4.152485e-02 3.948676e-02 4.181343e-02 3.977733e-02 4.115792e-02 3.863586e-02 4.109481e-02 4.006286e-02 4.040182e-02 3.967722e-02 3.923158e-02 3.825505e-02 3.893709e-02 3.957192e-02 4.016871e-02 4.111724e-02 4.258806e-02 4.350546e-02 4.373202e-02 4.585959e-02 4.513436e-02 4.465292e-02 4.369447e-02 4.385610e-02 4.360811e-02 4.411778e-02 4.419161e-02 4.459091e-02 4.461813e-02 4.455618e-02 4.441062e-02 4.376966e-02 4.358147e-02 4.245261e-02 4.249600e-02 4.106244e-02 4.156756e-02 3.999089e-02 4.102544e-02 3.943908e-02 4.090403e-02 3.947727e-02 4.113926e-02 4.010790e-02 4.159003e-02 4.123265e-02 4.204729e-02 4.271839e-02 4.236497e-02 4.446160e-02 4.244944e-02 4.631164e-02 4.220976e-02 4.805646e-02 4.156921e-02 4.942570e-02 4.048568e-02 5.015508e-02 3.903703e-02 5.006980e-02 3.743917e-02 4.913612e-02 3.603408e-02 4.753225e-02 3.514348e-02 4.575077e-02 3.464477e-02 4.598791e-02 2.091095e-02 3.688482e-02 1.398543e-01 2.959455e-02 0 0 0 0 
0 0 0 0 0 3.442052e+00 2.789001e+00 -5.798629e-01 1.196878e+00 6.579469e-01 1.129349e+00 6.954910e-01 -1.144926e-01 -2.443717e+01 -3.710504e+01 -2.682308e+01 -2.565530e+01 -2.957668e+01 -2.252413e+01 -3.432649e+01 -2.793830e+01 5.418239e-01 7.393848e-01 9.718172e-01 7.684623e-01 9.962163e-01 8.190409e-01 1.027471e+00 8.755012e-01 1.050953e+00 9.251032e-01 1.056548e+00 9.557055e-01 1.038660e+00 9.631461e-01 1.000639e+00 9.521311e-01 9.526473e-01 9.328581e-01 9.075054e-01 9.163065e-01 8.747867e-01 9.078033e-01 8.556999e-01 9.054329e-01 8.464596e-01 9.063263e-01 8.452419e-01 9.109315e-01 8.529035e-01 9.201620e-01 8.684925e-01 9.319527e-01 8.862164e-01 9.384294e-01 8.927267e-01 9.237042e-01 8.670915e-01 9.222769e-01 8.991135e-01 9.067321e-01 8.904757e-01 8.804964e-01 8.585910e-01 8.739297e-01 8.881950e-01 9.016211e-01 9.229265e-01 9.559633e-01 9.765669e-01 9.816742e-01 1.029440e+00 1.013185e+00 1.002390e+00 9.808968e-01 9.845333e-01 9.789773e-01 9.904195e-01 9.920733e-01 1.001034e+00 1.001639e+00 1.000248e+00 9.969777e-01 9.825916e-01 9.783608e-01 9.530158e-01 9.539705e-01 9.217729e-01 9.330786e-01 8.976584e-01 9.208440e-01 8.852017e-01 9.180568e-01 8.860002e-01 9.233002e-01 9.001319e-01 9.334150e-01 9.253997e-01 9.437235e-01 9.588254e-01 9.509558e-01 9.980807e-01 9.529845e-01 1.039737e+00 9.476986e-01 1.078948e+00 9.332653e-01 1.109530e+00 9.086345e-01 1.125467e+00 8.755120e-01 1.122840e+00 8.388198e-01 1.101039e+00 8.064694e-01 1.064373e+00 7.860860e-01 1.024456e+00 7.755764e-01 1.031034e+00 4.635251e-01 8.156259e-01 3.132447e+00 6.639005e-01 0 0 0 0 
0 0 0 0 0 4.983910e+00 4.046884e+00 -8.257572e-01 1.738994e+00 9.537334e-01 1.635297e+00 1.007114e+00 -1.653303e-01 -6.445349e+00 -8.876234e+00 -6.569078e+00 -6.297376e+00 -7.335095e+00 -5.393855e+00 -8.009202e+00 -7.758916e+00 7.838158e-01 1.069826e+00 1.406357e+00 1.112106e+00 1.441846e+00 1.185453e+00 1.487190e+00 1.267250e+00 1.521225e+00 1.339068e+00 1.529327e+00 1.383352e+00 1.503413e+00 1.394098e+00 1.448358e+00 1.378136e+00 1.378880e+00 1.350232e+00 1.313539e+00 1.326282e+00 1.266191e+00 1.313990e+00 1.238581e+00 1.310579e+00 1.225226e+00 1.311891e+00 1.223481e+00 1.318573e+00 1.234585e+00 1.331946e+00 1.257158e+00 1.349019e+00 1.282816e+00 1.358394e+00 1.292237e+00 1.337076e+00 1.255125e+00 1.335007e+00 1.301477e+00 1.312507e+00 1.288978e+00 1.274538e+00 1.242832e+00 1.265043e+00 1.285697e+00 1.305140e+00 1.335984e+00 1.383813e+00 1.413640e+00 1.421039e+00 1.490185e+00 1.466661e+00 1.451038e+00 1.419930e+00 1.425196e+00 1.417156e+00 1.433720e+00 1.436113e+00 1.449084e+00 1.449957e+00 1.447945e+00 1.443210e+00 1.422385e+00 1.416259e+00 1.379569e+00 1.380946e+00 1.334334e+00 1.350691e+00 1.299411e+00 1.332964e+00 1.281361e+00 1.328914e+00 1.282502e+00 1.336495e+00 1.302953e+00 1.351135e+00 1.339535e+00 1.366069e+00 1.387939e+00 1.376564e+00 1.444796e+00 1.379534e+00 1.505128e+00 1.371906e+00 1.561901e+00 1.350999e+00 1.606131e+00 1.315266e+00 1.629090e+00 1.267166e+00 1.625106e+00 1.213842e+00 1.593333e+00 1.166807e+00 1.540088e+00 1.137201e+00 1.482325e+00 1.122162e+00 1.492165e+00 6.694913e-01 1.177537e+00 4.532664e+00 9.609328e-01 0 0 0 0 
0 0 0 0 0 1.694966e+00 1.380441e+00 -2.741178e-01 5.943070e-01 3.248670e-01 5.561728e-01 3.425460e-01 -5.600928e-02 -2.191062e+00 -3.017571e+00 -2.233077e+00 -2.140658e+00 -2.493324e+00 -1.833442e+00 -2.722559e+00 -2.637680e+00 2.662188e-01 3.634639e-01 4.779054e-01 3.779289e-01 4.900523e-01 4.029278e-01 5.055165e-01 4.307675e-01 5.171084e-01 4.551910e-01 5.198630e-01 4.702386e-01 5.110447e-01 4.738799e-01 4.923196e-01 4.684445e-01 4.686963e-01 4.589565e-01 4.464851e-01 4.508184e-01 4.303957e-01 4.466480e-01 4.210193e-01 4.454983e-01 4.164888e-01 4.459533e-01 4.159047e-01 4.482329e-01 4.196859e-01 4.527843e-01 4.273633e-01 4.585911e-01 4.360865e-01 4.617781e-01 4.392877e-01 4.545294e-01 4.266696e-01 4.538248e-01 4.424260e-01 4.461772e-01 4.381791e-01 4.332732e-01 4.224964e-01 4.300509e-01 4.370742e-01 4.436875e-01 4.541750e-01 4.704373e-01 4.805787e-01 4.830966e-01 5.066043e-01 4.986102e-01 4.933006e-01 4.827278e-01 4.845191e-01 4.817872e-01 4.874183e-01 4.882314e-01 4.926406e-01 4.929369e-01 4.922528e-01 4.906425e-01 4.835632e-01 4.814799e-01 4.690062e-01 4.694720e-01 4.536234e-01 4.591801e-01 4.417435e-01 4.531456e-01 4.355987e-01 4.517610e-01 4.359793e-01 4.543337e-01 4.429287e-01 4.593105e-01 4.553675e-01 4.643927e-01 4.718325e-01 4.679730e-01 4.911767e-01 4.689991e-01 5.117030e-01 4.664176e-01 5.310088e-01 4.593033e-01 5.460262e-01 4.471176e-01 5.537779e-01 4.306911e-01 5.523359e-01 4.124617e-01 5.414305e-01 3.963719e-01 5.232478e-01 3.862589e-01 5.036196e-01 3.812305e-01 5.071192e-01 2.268772e-01 3.987957e-01 1.540072e+00 3.266269e-01 0 0 0 0 
0 0 0 0 0 0 0 0 0 0 0 0 0 0 0 0 0 0 0 0 0 0 0 0 0 0 0 0 0 0 0 0 0 0 0 0 0 0 0 0 0 0 0 0 0 0 0 0 0 0 0 0 0 0 0 0 0 0 0 0 0 0 0 0 0 0 0 0 0 0 0 0 0 0 0 0 0 0 0 0 0 0 0 0 0 0 0 0 0 0 0 0 0 0 0 0 0 0 0 0 0 0 0 0 0 0 0 0 0 0 0 0 0 0 0 0 0 0 0 0 0 0 0 0 0 0 0 0 
