# vtk DataFile Version 2.0
Comment goes here
ASCII

DATASET STRUCTURED_POINTS
FIELD FieldData 1
TIME 1 1 double
0.34000000
DIMENSIONS    128   16   1

ORIGIN    0.000   0.000   0.000
SPACING   0.0078125 0.015625   1.000

POINT_DATA   2048
SCALARS fX double
LOOKUP_TABLE default

0 0 0 0 0 0 0 0 0 0 0 0 0 0 0 0 0 0 0 0 0 0 0 0 0 0 0 0 0 0 0 0 0 0 0 0 0 0 0 0 0 0 0 0 0 0 0 0 0 0 0 0 0 0 0 0 0 0 0 0 0 0 0 0 0 0 0 0 0 0 0 0 0 0 0 0 0 0 0 0 0 0 0 0 0 0 0 0 0 0 0 0 0 0 0 0 0 0 0 0 0 0 0 0 0 0 0 0 0 0 0 0 0 0 0 0 0 0 0 0 0 0 0 0 0 0 0 0 
0 0 0 0 0 0 0 0 0 0 0 0 0 0 0 0 0 0 0 0 0 0 0 0 0 0 0 0 0 0 0 0 0 0 0 0 0 0 0 0 0 0 0 0 0 0 0 0 0 0 0 0 0 0 0 0 0 0 0 0 0 0 0 0 0 0 0 0 0 0 0 0 0 0 0 0 0 0 0 0 0 0 0 0 0 0 0 0 0 0 0 0 0 0 0 0 0 0 0 0 0 0 0 0 0 0 0 0 0 0 0 0 0 0 0 0 0 0 0 0 0 0 0 0 0 0 0 0 
0 0 0 0 0 -9.979298e-01 1.988568e+00 1.562882e+00 3.249492e-01 8.824956e-01 4.654370e-01 7.817161e-01 -1.100165e+00 -3.764176e+00 -4.911958e+00 -4.046586e+00 -5.109057e+00 -4.393440e+00 -4.644534e+00 -5.009761e+00 -3.584262e+00 -8.141574e-01 5.564378e-01 4.942414e-01 5.439091e-01 4.771490e-01 5.533021e-01 5.206689e-01 6.312874e-01 5.811263e-01 6.596995e-01 5.846883e-01 6.796586e-01 6.305763e-01 7.268772e-01 6.604605e-01 7.271426e-01 6.569095e-01 7.170194e-01 6.582495e-01 7.034123e-01 6.486903e-01 6.824415e-01 6.499474e-01 6.846672e-01 6.715522e-01 7.029994e-01 7.085890e-01 7.290948e-01 7.155787e-01 6.925976e-01 6.906450e-01 7.055514e-01 7.694728e-01 7.756781e-01 8.918523e-01 1.187786e+00 1.090385e+00 1.332290e-01 1.146000e+00 1.785411e+00 7.607954e-01 1.044250e+00 1.486151e+00 8.684771e-01 1.057038e+00 1.414334e+00 9.347381e-01 3.197913e-01 4.450474e-01 1.017012e+00 9.551829e-01 7.096629e-01 6.729785e-01 6.953979e-01 7.105006e-01 7.338875e-01 7.265349e-01 7.426714e-01 7.542218e-01 7.938882e-01 7.980691e-01 7.824009e-01 7.238672e-01 6.784440e-01 6.340151e-01 6.209964e-01 6.047267e-01 6.090321e-01 5.875858e-01 5.642584e-01 5.032993e-01 4.765804e-01 4.664753e-01 5.296143e-01 5.659853e-01 6.181020e-01 5.887307e-01 5.986727e-01 5.472363e-01 5.924963e-01 5.826125e-01 6.733253e-01 6.546248e-01 7.198325e-01 6.673928e-01 7.247541e-01 6.834106e-01 7.321010e-01 6.728774e-01 6.715385e-01 6.239588e-01 6.216199e-01 6.419244e-01 6.103230e-01 6.374725e-01 5.094693e-01 5.722403e-01 4.171497e-01 6.264983e-01 4.559008e-01 1.376899e+00 1.134273e+00 -2.347836e-02 0 0 0 0 
0 0 0 0 0 -2.934781e+00 5.851408e+00 4.599343e+00 9.549198e-01 2.593261e+00 1.366427e+00 2.296895e+00 -3.237609e+00 -1.107352e+01 -1.444921e+01 -1.190360e+01 -1.502897e+01 -1.292398e+01 -1.366331e+01 -1.473825e+01 -1.054528e+01 -2.395467e+00 1.637127e+00 1.454182e+00 1.600362e+00 1.403973e+00 1.628043e+00 1.532034e+00 1.857478e+00 1.709872e+00 1.941020e+00 1.720293e+00 1.999678e+00 1.855235e+00 2.138536e+00 1.943113e+00 2.139287e+00 1.932654e+00 2.109502e+00 1.936598e+00 2.069465e+00 1.908473e+00 2.007757e+00 1.912163e+00 2.014313e+00 1.975732e+00 2.068260e+00 2.084702e+00 2.145016e+00 2.105244e+00 2.037597e+00 2.031840e+00 2.075647e+00 2.263685e+00 2.281929e+00 2.623699e+00 3.474303e+00 3.081688e+00 1.582308e-01 3.277236e+00 5.445758e+00 2.368811e+00 2.435177e+00 2.650106e+00 6.981081e-01 1.749931e+00 2.937813e+00 1.770394e+00 3.736334e-01 9.454892e-01 2.634487e+00 2.587933e+00 2.052745e+00 1.979731e+00 2.045677e+00 2.090096e+00 2.158882e+00 2.137245e+00 2.184705e+00 2.218681e+00 2.335361e+00 2.347659e+00 2.301561e+00 2.129370e+00 1.995740e+00 1.865035e+00 1.826723e+00 1.778849e+00 1.791498e+00 1.728401e+00 1.659780e+00 1.480466e+00 1.401881e+00 1.372159e+00 1.557890e+00 1.664876e+00 1.818183e+00 1.731792e+00 1.761052e+00 1.609773e+00 1.742937e+00 1.713898e+00 1.980774e+00 1.925812e+00 2.117671e+00 1.963469e+00 2.132241e+00 2.010659e+00 2.153877e+00 1.979674e+00 1.975665e+00 1.835669e+00 1.828675e+00 1.888309e+00 1.795241e+00 1.875007e+00 1.498451e+00 1.683194e+00 1.227583e+00 1.845540e+00 1.351238e+00 4.061805e+00 3.340174e+00 -6.903890e-02 0 0 0 0 
0 0 0 0 0 -2.027074e+00 4.043203e+00 3.178308e+00 6.592242e-01 1.790194e+00 9.426560e-01 1.585498e+00 -2.237291e+00 -3.877463e+01 -4.863821e+01 -4.367473e+01 -5.080518e+01 -4.702348e+01 -4.656229e+01 -5.222536e+01 -3.436437e+01 -1.655118e+00 1.131122e+00 1.004745e+00 1.105768e+00 9.700935e-01 1.124915e+00 1.058582e+00 1.283432e+00 1.181436e+00 1.341127e+00 1.188607e+00 1.381623e+00 1.281809e+00 1.477531e+00 1.342502e+00 1.478036e+00 1.335271e+00 1.457456e+00 1.337997e+00 1.429793e+00 1.318564e+00 1.387153e+00 1.321110e+00 1.391686e+00 1.365032e+00 1.428965e+00 1.440323e+00 1.481987e+00 1.454504e+00 1.407750e+00 1.403767e+00 1.434010e+00 1.563915e+00 1.576513e+00 1.812633e+00 2.384210e+00 2.060117e+00 7.885438e-02 2.426891e+00 3.939254e+00 1.658960e+00 1.342628e+00 9.699075e-01 -3.127739e-01 7.276038e-01 1.582911e+00 8.808372e-01 1.066679e-01 5.965313e-01 1.683869e+00 1.660613e+00 1.404656e+00 1.367700e+00 1.413256e+00 1.443938e+00 1.491453e+00 1.476501e+00 1.509285e+00 1.532756e+00 1.613360e+00 1.621856e+00 1.590006e+00 1.471047e+00 1.378727e+00 1.288425e+00 1.261951e+00 1.228871e+00 1.237601e+00 1.194007e+00 1.146602e+00 1.022727e+00 9.684448e-01 9.479134e-01 1.076223e+00 1.150130e+00 1.256038e+00 1.196360e+00 1.216582e+00 1.112087e+00 1.204094e+00 1.184049e+00 1.368432e+00 1.330486e+00 1.463048e+00 1.356547e+00 1.473158e+00 1.389183e+00 1.488116e+00 1.367777e+00 1.364974e+00 1.268244e+00 1.263356e+00 1.304508e+00 1.240161e+00 1.295218e+00 1.035072e+00 1.162745e+00 8.482878e-01 1.276225e+00 9.383957e-01 2.811590e+00 2.309227e+00 -4.768184e-02 0 0 0 0 
0 0 0 0 0 -9.022298e-02 1.803634e-01 1.418461e-01 2.925361e-02 7.942817e-02 4.166592e-02 7.031900e-02 -9.984638e-02 -4.417764e+01 -4.830458e+01 -4.537725e+01 -4.745279e+01 -4.686581e+01 -4.588987e+01 -4.844087e+01 -4.394242e+01 -7.380752e-02 5.043323e-02 4.480414e-02 4.931464e-02 4.326901e-02 5.017388e-02 4.721677e-02 5.724049e-02 5.268981e-02 5.980660e-02 5.300231e-02 6.160421e-02 5.714957e-02 6.587227e-02 5.985000e-02 6.589113e-02 5.952613e-02 6.497347e-02 5.964791e-02 6.373972e-02 5.878132e-02 6.183746e-02 5.889386e-02 6.204048e-02 6.085267e-02 6.370398e-02 6.421000e-02 6.606547e-02 6.483941e-02 6.275075e-02 6.257166e-02 6.391400e-02 6.970248e-02 7.026260e-02 8.078651e-02 9.931878e-02 9.720708e-02 1.182646e-01 3.779614e-01 3.326291e-01 7.312806e-02 2.619761e-03 -5.265975e-02 6.075029e-02 2.243142e-01 2.507654e-01 2.313333e-01 2.074452e-01 2.303996e-01 1.447386e-01 4.559076e-02 6.550644e-02 6.094748e-02 6.297673e-02 6.434275e-02 6.645864e-02 6.579143e-02 6.725125e-02 6.829685e-02 7.188760e-02 7.226606e-02 7.084613e-02 6.554499e-02 6.143032e-02 5.740548e-02 5.622399e-02 5.474835e-02 5.513527e-02 5.319180e-02 5.107961e-02 4.556092e-02 4.314391e-02 4.222956e-02 4.794633e-02 5.123878e-02 5.595734e-02 5.329937e-02 5.420219e-02 4.954987e-02 5.365242e-02 5.276368e-02 6.098288e-02 5.929808e-02 6.520955e-02 6.047129e-02 6.567132e-02 6.193416e-02 6.634075e-02 6.098033e-02 6.084693e-02 5.653288e-02 5.630105e-02 5.812303e-02 5.524264e-02 5.768373e-02 4.609064e-02 5.179071e-02 3.785485e-02 5.718380e-02 4.305885e-02 1.266834e-01 1.033264e-01 -2.121297e-03 0 0 0 0 
0 0 0 0 0 0 0 0 0 0 0 0 0 -4.826356e+01 -5.230029e+01 -4.945793e+01 -5.134162e+01 -5.102158e+01 -4.964069e+01 -5.264998e+01 -4.766553e+01 0 0 0 0 0 0 0 0 0 0 0 0 0 0 0 0 0 0 0 0 0 0 0 0 0 0 0 0 0 0 0 0 0 0 0 2.280948e-03 3.296991e-02 6.898430e-02 8.936023e-02 8.490591e-02 6.476828e-02 7.335858e-02 1.409191e-01 1.856897e-01 1.685539e-01 1.779086e-01 1.836768e-01 1.591079e-01 1.486167e-01 1.154222e-01 4.710717e-02 8.313843e-03 0 0 0 0 0 0 0 0 0 0 0 0 0 0 0 0 0 0 0 0 0 0 0 0 0 0 0 0 0 0 0 0 0 0 0 0 0 0 0 0 0 0 0 0 0 0 0 0 0 0 0 0 0 0 0 
0 0 0 0 0 0 0 0 0 0 0 0 0 -4.815878e+01 -4.996258e+01 -4.839659e+01 -4.923370e+01 -4.901889e+01 -4.857857e+01 -4.981666e+01 -4.823283e+01 0 0 0 0 0 0 0 0 0 0 0 0 0 0 0 0 0 0 0 0 0 0 0 0 0 0 0 0 0 0 0 0 0 0 0 -1.190914e-04 -8.951267e-04 -9.014535e-03 -1.136183e-02 1.618551e-02 3.068748e-02 6.841049e-03 -2.634764e-02 -4.751645e-02 -4.823526e-02 -4.415434e-02 -3.353802e-02 -2.554116e-02 -1.832529e-02 4.305843e-03 1.144653e-02 2.443991e-03 0 0 0 0 0 0 0 0 0 0 0 0 0 0 0 0 0 0 0 0 0 0 0 0 0 0 0 0 0 0 0 0 0 0 0 0 0 0 0 0 0 0 0 0 0 0 0 0 0 0 0 0 0 0 0 
0 0 0 0 0 0 0 0 0 0 0 0 0 -5.064429e+01 -5.282593e+01 -5.107046e+01 -5.194365e+01 -5.193962e+01 -5.099397e+01 -5.291032e+01 -5.036329e+01 0 0 0 0 0 0 0 0 0 0 0 0 0 0 0 0 0 0 0 0 0 0 0 0 0 0 0 0 0 0 0 0 0 0 0 -8.208369e-04 -5.831103e-03 -1.442641e-02 -1.965242e-02 -1.670366e-02 -1.384553e-02 -1.712863e-02 -2.667715e-02 -3.016571e-02 -2.710402e-02 -3.088018e-02 -3.125488e-02 -3.024569e-02 -3.341071e-02 -3.507522e-02 -1.982899e-02 -2.158471e-03 0 0 0 0 0 0 0 0 0 0 0 0 0 0 0 0 0 0 0 0 0 0 0 0 0 0 0 0 0 0 0 0 0 0 0 0 0 0 0 0 0 0 0 0 0 0 0 0 0 0 0 0 0 0 0 
0 0 0 0 0 0 0 0 0 0 0 0 0 -4.818332e+01 -4.999378e+01 -4.839242e+01 -4.923339e+01 -4.898386e+01 -4.854217e+01 -4.973800e+01 -4.815373e+01 0 0 0 0 0 0 0 0 0 0 0 0 0 0 0 0 0 0 0 0 0 0 0 0 0 0 0 0 0 0 0 0 0 0 0 -4.708630e-05 -3.592192e-04 -8.395513e-04 -1.237063e-03 -1.704723e-03 -1.948935e-03 -1.530075e-03 -7.973316e-04 -1.146865e-04 8.124526e-05 -1.503764e-04 -1.917390e-04 -2.159897e-04 -7.788635e-04 -2.303599e-03 -1.895363e-03 -2.211826e-04 0 0 0 0 0 0 0 0 0 0 0 0 0 0 0 0 0 0 0 0 0 0 0 0 0 0 0 0 0 0 0 0 0 0 0 0 0 0 0 0 0 0 0 0 0 0 0 0 0 0 0 0 0 0 0 
0 0 0 0 0 0 0 0 0 0 0 0 0 -4.826634e+01 -5.233360e+01 -4.942616e+01 -5.133079e+01 -5.096704e+01 -4.958672e+01 -5.253661e+01 -4.755854e+01 0 0 0 0 0 0 0 0 0 0 0 0 0 0 0 0 0 0 0 0 0 0 0 0 0 0 0 0 0 0 0 0 0 0 0 0 0 0 0 0 0 0 0 0 0 0 0 0 0 0 0 0 0 0 0 0 0 0 0 0 0 0 0 0 0 0 0 0 0 0 0 0 0 0 0 0 0 0 0 0 0 0 0 0 0 0 0 0 0 0 0 0 0 0 0 0 0 0 0 0 0 0 0 0 0 0 0 
0 0 0 0 0 -9.045418e-02 1.794765e-01 1.396965e-01 2.687741e-02 7.736348e-02 4.118523e-02 7.254742e-02 -9.411857e-02 -4.425896e+01 -4.842380e+01 -4.537206e+01 -4.747026e+01 -4.681320e+01 -4.580952e+01 -4.829452e+01 -4.368512e+01 -6.712137e-02 5.700433e-02 5.153143e-02 5.648282e-02 5.104106e-02 5.660182e-02 5.011581e-02 5.503318e-02 4.688456e-02 5.209640e-02 4.450613e-02 5.081990e-02 4.374424e-02 4.947796e-02 4.220574e-02 4.817396e-02 4.401754e-02 5.237746e-02 5.102189e-02 5.854788e-02 5.672858e-02 6.130913e-02 5.898315e-02 6.198717e-02 6.178215e-02 6.579110e-02 6.847159e-02 7.172502e-02 7.386719e-02 7.348742e-02 7.363045e-02 7.011281e-02 6.980332e-02 6.538227e-02 6.660586e-02 6.354857e-02 6.752383e-02 6.492520e-02 6.856540e-02 6.497717e-02 6.544123e-02 6.132958e-02 6.314846e-02 6.202958e-02 6.708715e-02 6.927016e-02 7.350327e-02 7.317924e-02 7.307806e-02 7.021316e-02 6.855744e-02 6.820631e-02 6.974730e-02 7.144571e-02 7.144825e-02 7.009037e-02 6.608451e-02 6.293118e-02 5.933842e-02 5.925349e-02 5.948265e-02 6.299923e-02 6.513233e-02 6.848383e-02 6.874202e-02 6.953487e-02 6.765687e-02 6.768289e-02 6.672417e-02 6.917460e-02 7.056801e-02 7.448139e-02 7.427386e-02 7.481985e-02 6.934639e-02 6.715128e-02 6.072445e-02 6.203577e-02 5.896642e-02 6.410523e-02 6.048930e-02 6.393086e-02 5.636706e-02 5.800720e-02 5.035093e-02 5.477640e-02 5.160061e-02 5.893077e-02 5.809085e-02 6.324708e-02 6.316113e-02 6.520046e-02 6.753313e-02 6.561336e-02 7.160029e-02 6.566047e-02 7.723570e-02 6.646094e-02 8.536965e-02 6.746376e-02 1.437667e-01 1.094758e-01 -1.708921e-03 0 0 0 0 
0 0 0 0 0 -2.032279e+00 4.023300e+00 3.129946e+00 6.057861e-01 1.743875e+00 9.318617e-01 1.635554e+00 -2.108590e+00 -3.858404e+01 -4.839150e+01 -4.354081e+01 -5.077958e+01 -4.707913e+01 -4.653184e+01 -5.244854e+01 -3.443511e+01 -1.505196e+00 1.278440e+00 1.155619e+00 1.266534e+00 1.144448e+00 1.269132e+00 1.123603e+00 1.233941e+00 1.051170e+00 1.168119e+00 9.980092e-01 1.139695e+00 9.811308e-01 1.109820e+00 9.467493e-01 1.080654e+00 9.874043e-01 1.174892e+00 1.144464e+00 1.313254e+00 1.272448e+00 1.375255e+00 1.323094e+00 1.390580e+00 1.385994e+00 1.475951e+00 1.536089e+00 1.609028e+00 1.657083e+00 1.648566e+00 1.651792e+00 1.572940e+00 1.566035e+00 1.466957e+00 1.494460e+00 1.425952e+00 1.515184e+00 1.456879e+00 1.538544e+00 1.457975e+00 1.468347e+00 1.376066e+00 1.416886e+00 1.391821e+00 1.505370e+00 1.554406e+00 1.649459e+00 1.642220e+00 1.639979e+00 1.575699e+00 1.538551e+00 1.530678e+00 1.565270e+00 1.603393e+00 1.603452e+00 1.572988e+00 1.483098e+00 1.412350e+00 1.331735e+00 1.329847e+00 1.334995e+00 1.413933e+00 1.461805e+00 1.537044e+00 1.542854e+00 1.560684e+00 1.518570e+00 1.519190e+00 1.497697e+00 1.552716e+00 1.584004e+00 1.671837e+00 1.667181e+00 1.679415e+00 1.556578e+00 1.507317e+00 1.363070e+00 1.392510e+00 1.323564e+00 1.438829e+00 1.357547e+00 1.434632e+00 1.264689e+00 1.301348e+00 1.129330e+00 1.228609e+00 1.157224e+00 1.321814e+00 1.302969e+00 1.418859e+00 1.417076e+00 1.463096e+00 1.515717e+00 1.472987e+00 1.607637e+00 1.474513e+00 1.734117e+00 1.490637e+00 1.909138e+00 1.486428e+00 3.195185e+00 2.447268e+00 -3.841240e-02 0 0 0 0 
0 0 0 0 0 -2.942319e+00 5.822599e+00 4.529309e+00 8.775396e-01 2.526220e+00 1.350801e+00 2.369363e+00 -3.051274e+00 -1.084719e+01 -1.424010e+01 -1.170258e+01 -1.486459e+01 -1.273564e+01 -1.347932e+01 -1.457729e+01 -1.034750e+01 -2.178488e+00 1.850332e+00 1.672548e+00 1.833047e+00 1.656335e+00 1.836788e+00 1.626141e+00 1.785853e+00 1.521315e+00 1.690597e+00 1.444420e+00 1.649510e+00 1.420045e+00 1.606326e+00 1.370314e+00 1.564133e+00 1.429161e+00 1.700519e+00 1.656472e+00 1.900769e+00 1.841707e+00 1.990524e+00 1.915031e+00 2.012735e+00 2.006100e+00 2.136310e+00 2.223356e+00 2.328916e+00 2.398472e+00 2.386144e+00 2.390818e+00 2.276703e+00 2.266718e+00 2.123337e+00 2.163160e+00 2.064020e+00 2.193188e+00 2.108796e+00 2.226999e+00 2.110364e+00 2.125366e+00 1.991788e+00 2.050876e+00 2.014604e+00 2.178979e+00 2.249970e+00 2.387573e+00 2.377103e+00 2.373868e+00 2.280826e+00 2.227055e+00 2.215661e+00 2.265736e+00 2.320921e+00 2.321007e+00 2.276913e+00 2.146799e+00 2.044394e+00 1.927708e+00 1.924980e+00 1.932432e+00 2.046701e+00 2.115997e+00 2.224911e+00 2.233324e+00 2.259143e+00 2.198191e+00 2.199098e+00 2.167993e+00 2.247639e+00 2.292933e+00 2.420074e+00 2.413335e+00 2.431039e+00 2.253231e+00 2.181927e+00 1.973123e+00 2.015741e+00 1.915926e+00 2.082757e+00 1.965068e+00 2.076610e+00 1.830567e+00 1.883592e+00 1.634545e+00 1.778243e+00 1.674884e+00 1.913150e+00 1.885874e+00 2.053670e+00 2.051126e+00 2.117804e+00 2.194043e+00 2.132280e+00 2.327261e+00 2.134608e+00 2.510345e+00 2.157480e+00 2.761776e+00 2.144603e+00 4.617115e+00 3.539998e+00 -5.561757e-02 0 0 0 0 
0 0 0 0 0 -1.000494e+00 1.978775e+00 1.539060e+00 2.986309e-01 8.597078e-01 4.601241e-01 8.063564e-01 -1.036802e+00 -3.687217e+00 -4.840858e+00 -3.978243e+00 -5.053176e+00 -4.329416e+00 -4.581990e+00 -4.955045e+00 -3.517034e+00 -7.404135e-01 6.288961e-01 5.684605e-01 6.229952e-01 5.629287e-01 6.242581e-01 5.526546e-01 6.069449e-01 5.170302e-01 5.745740e-01 4.909173e-01 5.606344e-01 4.826580e-01 5.459841e-01 4.657706e-01 5.316530e-01 4.857743e-01 5.780040e-01 5.630301e-01 6.460630e-01 6.259883e-01 6.765780e-01 6.509198e-01 6.841420e-01 6.818882e-01 7.261504e-01 7.557387e-01 7.916132e-01 8.152559e-01 8.110659e-01 8.126566e-01 7.738755e-01 7.704863e-01 7.217627e-01 7.353053e-01 7.016166e-01 7.455281e-01 7.168415e-01 7.570201e-01 7.173659e-01 7.224606e-01 6.770511e-01 6.971375e-01 6.848130e-01 7.406960e-01 7.648344e-01 8.116178e-01 8.080626e-01 8.069665e-01 7.753396e-01 7.570620e-01 7.531894e-01 7.702132e-01 7.889736e-01 7.890031e-01 7.740149e-01 7.297851e-01 6.949761e-01 6.553115e-01 6.543865e-01 6.569203e-01 6.957672e-01 7.193236e-01 7.563510e-01 7.592127e-01 7.679941e-01 7.472781e-01 7.475909e-01 7.370200e-01 7.640979e-01 7.794970e-01 8.227185e-01 8.204281e-01 8.264437e-01 7.659997e-01 7.417609e-01 6.707782e-01 6.852670e-01 6.513283e-01 7.080333e-01 6.680096e-01 7.059089e-01 6.222447e-01 6.402519e-01 5.555668e-01 6.044107e-01 5.692608e-01 6.502677e-01 6.409958e-01 6.980579e-01 6.972110e-01 7.199085e-01 7.458587e-01 7.249066e-01 7.912240e-01 7.257558e-01 8.534627e-01 7.333041e-01 9.380082e-01 7.256388e-01 1.565697e+00 1.202206e+00 -1.891409e-02 0 0 0 0 
0 0 0 0 0 0 0 0 0 0 0 0 0 0 0 0 0 0 0 0 0 0 0 0 0 0 0 0 0 0 0 0 0 0 0 0 0 0 0 0 0 0 0 0 0 0 0 0 0 0 0 0 0 0 0 0 0 0 0 0 0 0 0 0 0 0 0 0 0 0 0 0 0 0 0 0 0 0 0 0 0 0 0 0 0 0 0 0 0 0 0 0 0 0 0 0 0 0 0 0 0 0 0 0 0 0 0 0 0 0 0 0 0 0 0 0 0 0 0 0 0 0 0 0 0 0 0 0 
