# vtk DataFile Version 2.0
Comment goes here
ASCII

DATASET STRUCTURED_POINTS
FIELD FieldData 1
TIME 1 1 double
0.49000000
DIMENSIONS    128   16   1

ORIGIN    0.000   0.000   0.000
SPACING   0.0078125 0.015625   1.000

POINT_DATA   2048
SCALARS fX double
LOOKUP_TABLE default

0 0 0 0 0 0 0 0 0 0 0 0 0 0 0 0 0 0 0 0 0 0 0 0 0 0 0 0 0 0 0 0 0 0 0 0 0 0 0 0 0 0 0 0 0 0 0 0 0 0 0 0 0 0 0 0 0 0 0 0 0 0 0 0 0 0 0 0 0 0 0 0 0 0 0 0 0 0 0 0 0 0 0 0 0 0 0 0 0 0 0 0 0 0 0 0 0 0 0 0 0 0 0 0 0 0 0 0 0 0 0 0 0 0 0 0 0 0 0 0 0 0 0 0 0 0 0 0 
0 0 0 0 0 0 0 0 0 0 0 0 0 0 0 0 0 0 0 0 0 0 0 0 0 0 0 0 0 0 0 0 0 0 0 0 0 0 0 0 0 0 0 0 0 0 0 0 0 0 0 0 0 0 0 0 0 0 0 0 0 0 0 0 0 0 0 0 0 0 0 0 0 0 0 0 0 0 0 0 0 0 0 0 0 0 0 0 0 0 0 0 0 0 0 0 0 0 0 0 0 0 0 0 0 0 0 0 0 0 0 0 0 0 0 0 0 0 0 0 0 0 0 0 0 0 0 0 
0 0 0 0 0 9.517718e-01 -1.951419e+00 -1.573710e+00 -3.427418e-01 -8.944813e-01 -4.828968e-01 -8.221697e-01 1.060243e+00 3.706355e+00 4.826164e+00 4.010445e+00 5.086408e+00 4.370977e+00 4.632449e+00 5.016107e+00 3.541681e+00 7.261382e-01 -6.362829e-01 -5.971036e-01 -6.732435e-01 -6.318473e-01 -7.085968e-01 -6.566913e-01 -7.441157e-01 -6.862869e-01 -7.844031e-01 -7.202232e-01 -8.206023e-01 -7.475489e-01 -8.411113e-01 -7.629068e-01 -8.447561e-01 -7.697925e-01 -8.346097e-01 -7.629013e-01 -8.035455e-01 -7.373281e-01 -7.602252e-01 -7.113630e-01 -7.252773e-01 -6.986709e-01 -7.048039e-01 -7.004004e-01 -6.995988e-01 -7.190744e-01 -7.148374e-01 -7.554745e-01 -7.446629e-01 -7.916818e-01 -7.697447e-01 -7.971022e-01 -4.032108e-01 2.079442e-01 2.243951e-01 -9.681157e-01 -1.246895e+00 -7.538680e-01 -9.770949e-01 -7.530818e-01 -1.130360e-01 -4.789533e-01 -5.318842e-01 -3.900375e-01 -7.232924e-01 -5.024409e-01 -1.306177e+00 -2.791969e+00 -2.157621e+00 -8.954216e-01 -6.343892e-01 -6.159185e-01 -6.373842e-01 -6.322276e-01 -6.560727e-01 -6.537054e-01 -6.694122e-01 -6.629366e-01 -6.670113e-01 -6.573660e-01 -6.521337e-01 -6.401577e-01 -6.259509e-01 -6.086070e-01 -5.880225e-01 -5.633559e-01 -5.415861e-01 -5.108087e-01 -4.983328e-01 -4.695350e-01 -4.789286e-01 -4.566949e-01 -4.926300e-01 -4.725809e-01 -5.306625e-01 -5.054129e-01 -5.793335e-01 -5.467456e-01 -6.330786e-01 -5.944949e-01 -6.830976e-01 -6.343019e-01 -7.065607e-01 -6.481581e-01 -6.943565e-01 -6.405157e-01 -6.559159e-01 -6.240078e-01 -6.052697e-01 -6.156522e-01 -5.599270e-01 -6.290181e-01 -5.299571e-01 -6.685996e-01 -5.119922e-01 -7.292847e-01 -4.895643e-01 -1.510825e+00 -1.229028e+00 1.458745e-01 0 0 0 0 
0 0 0 0 0 2.799854e+00 -5.736137e+00 -4.624382e+00 -1.007732e+00 -2.632797e+00 -1.422548e+00 -2.420284e+00 3.116965e+00 1.089950e+01 1.419330e+01 1.179434e+01 1.495861e+01 1.285452e+01 1.362275e+01 1.475047e+01 1.041403e+01 2.135017e+00 -1.870915e+00 -1.755653e+00 -1.979477e+00 -1.857715e+00 -2.083361e+00 -1.930749e+00 -2.187816e+00 -2.017816e+00 -2.306345e+00 -2.117666e+00 -2.412855e+00 -2.198068e+00 -2.473201e+00 -2.243269e+00 -2.483957e+00 -2.263552e+00 -2.454159e+00 -2.243313e+00 -2.362837e+00 -2.168123e+00 -2.235449e+00 -2.091762e+00 -2.132669e+00 -2.054430e+00 -2.072471e+00 -2.059527e+00 -2.057193e+00 -2.114473e+00 -2.102038e+00 -2.221545e+00 -2.189763e+00 -2.328031e+00 -2.263522e+00 -2.343969e+00 -1.162345e+00 7.158287e-01 9.364788e-01 -2.500436e+00 -3.313701e+00 -1.574897e+00 -2.055394e+00 -1.478876e+00 9.030737e-02 -1.281489e+00 -1.444437e+00 -1.090621e+00 -2.056038e+00 -1.230494e+00 -3.325419e+00 -7.856417e+00 -6.332079e+00 -2.633287e+00 -1.865639e+00 -1.811308e+00 -1.874428e+00 -1.859257e+00 -1.929382e+00 -1.922427e+00 -1.968630e+00 -1.949599e+00 -1.961593e+00 -1.933233e+00 -1.917848e+00 -1.882624e+00 -1.840844e+00 -1.789841e+00 -1.729309e+00 -1.656778e+00 -1.592760e+00 -1.502256e+00 -1.465569e+00 -1.380884e+00 -1.408512e+00 -1.343131e+00 -1.448815e+00 -1.389852e+00 -1.560658e+00 -1.486384e+00 -1.703757e+00 -1.607882e+00 -1.861744e+00 -1.748220e+00 -2.008754e+00 -1.865190e+00 -2.077671e+00 -1.905868e+00 -2.041730e+00 -1.883381e+00 -1.928721e+00 -1.834923e+00 -1.779921e+00 -1.810541e+00 -1.646769e+00 -1.850040e+00 -1.558687e+00 -1.966172e+00 -1.504438e+00 -2.139472e+00 -1.419972e+00 -4.419996e+00 -3.606636e+00 4.291680e-01 0 0 0 0 
0 0 0 0 0 1.934276e+00 -3.960667e+00 -3.192303e+00 -6.959382e-01 -1.819579e+00 -9.837335e-01 -1.672866e+00 2.152391e+00 3.880352e+01 4.851732e+01 4.373919e+01 5.097871e+01 4.724280e+01 4.688279e+01 5.276797e+01 3.455391e+01 1.474448e+00 -1.292104e+00 -1.212472e+00 -1.367023e+00 -1.282912e+00 -1.438736e+00 -1.333342e+00 -1.510882e+00 -1.393495e+00 -1.592776e+00 -1.462486e+00 -1.666369e+00 -1.518039e+00 -1.708066e+00 -1.549278e+00 -1.715512e+00 -1.563302e+00 -1.694951e+00 -1.549336e+00 -1.631890e+00 -1.497411e+00 -1.543908e+00 -1.444667e+00 -1.472916e+00 -1.418879e+00 -1.431342e+00 -1.422405e+00 -1.420804e+00 -1.460369e+00 -1.451793e+00 -1.534337e+00 -1.512391e+00 -1.607890e+00 -1.563335e+00 -1.618897e+00 -8.072643e-01 3.419898e-01 3.952278e-01 -1.967605e+00 -2.491018e+00 -1.132383e+00 -1.423043e+00 -1.138479e+00 -3.419557e-01 -1.436867e+00 -1.478847e+00 -1.296638e+00 -1.882477e+00 -1.091979e+00 -2.428106e+00 -5.524155e+00 -4.422260e+00 -1.818815e+00 -1.288603e+00 -1.251070e+00 -1.294664e+00 -1.284181e+00 -1.332618e+00 -1.327817e+00 -1.359735e+00 -1.346596e+00 -1.354887e+00 -1.335300e+00 -1.324675e+00 -1.300343e+00 -1.271486e+00 -1.236260e+00 -1.194452e+00 -1.144359e+00 -1.100144e+00 -1.037635e+00 -1.012297e+00 -9.538072e-01 -9.728920e-01 -9.277354e-01 -1.000734e+00 -9.600066e-01 -1.077981e+00 -1.026671e+00 -1.176803e+00 -1.110563e+00 -1.285892e+00 -1.207454e+00 -1.387389e+00 -1.288199e+00 -1.434950e+00 -1.316261e+00 -1.410100e+00 -1.300724e+00 -1.332064e+00 -1.267296e+00 -1.229356e+00 -1.250548e+00 -1.137482e+00 -1.277923e+00 -1.076670e+00 -1.358005e+00 -1.038513e+00 -1.475199e+00 -9.712022e-01 -3.041708e+00 -2.487361e+00 2.965119e-01 0 0 0 0 
0 0 0 0 0 8.619324e-02 -1.759490e-01 -1.416313e-01 -3.094763e-02 -8.126372e-02 -4.408184e-02 -7.475175e-02 9.566895e-02 4.438346e+01 4.848078e+01 4.555201e+01 4.760671e+01 4.703030e+01 4.602493e+01 4.864736e+01 4.407712e+01 6.556948e-02 -5.747203e-02 -5.392275e-02 -6.079007e-02 -5.704386e-02 -6.397152e-02 -5.928482e-02 -6.718243e-02 -6.196593e-02 -7.083357e-02 -6.504253e-02 -7.411559e-02 -6.752015e-02 -7.597539e-02 -6.891493e-02 -7.631137e-02 -6.954313e-02 -7.540122e-02 -6.892487e-02 -7.259864e-02 -6.661584e-02 -6.868401e-02 -6.426821e-02 -6.552394e-02 -6.311968e-02 -6.367492e-02 -6.327794e-02 -6.320948e-02 -6.497108e-02 -6.459250e-02 -6.826634e-02 -6.729113e-02 -7.154070e-02 -6.955817e-02 -7.203027e-02 -5.376060e-02 -2.321400e-01 -4.235214e-01 -5.247844e-01 -5.126641e-01 -4.136128e-01 -4.817322e-01 -6.234929e-01 -8.185053e-01 -8.935707e-01 -8.074589e-01 -8.450272e-01 -7.597028e-01 -5.215891e-01 -5.563205e-01 -5.482654e-01 -2.615149e-01 -8.094976e-02 -5.735236e-02 -5.568046e-02 -5.761980e-02 -5.715237e-02 -5.930825e-02 -5.909540e-02 -6.051739e-02 -5.993416e-02 -6.030464e-02 -5.943342e-02 -5.896081e-02 -5.787738e-02 -5.659300e-02 -5.502552e-02 -5.316530e-02 -5.093685e-02 -4.896947e-02 -4.618826e-02 -4.506085e-02 -4.245823e-02 -4.330808e-02 -4.129886e-02 -4.454835e-02 -4.273544e-02 -4.798578e-02 -4.569985e-02 -5.237977e-02 -4.942686e-02 -5.722667e-02 -5.372880e-02 -6.173309e-02 -5.731067e-02 -6.383966e-02 -5.855090e-02 -6.272736e-02 -5.785796e-02 -5.925895e-02 -5.638113e-02 -5.470527e-02 -5.565918e-02 -5.064001e-02 -5.690108e-02 -4.794017e-02 -6.043205e-02 -4.606755e-02 -6.501229e-02 -4.079450e-02 -1.325366e-01 -1.097537e-01 1.321839e-02 0 0 0 0 
0 0 0 0 0 0 0 0 0 0 0 0 0 4.844134e+01 5.247946e+01 4.963661e+01 5.152939e+01 5.122220e+01 4.983261e+01 5.287146e+01 4.782840e+01 0 0 0 0 0 0 0 0 0 0 0 0 0 0 0 0 0 0 0 0 0 0 0 0 0 0 0 0 0 0 0 0 0 0 0 -3.383365e-03 -5.720456e-02 -1.037499e-01 -1.014587e-01 -1.167793e-01 -1.426530e-01 -1.546312e-01 -1.994601e-01 -2.427495e-01 -2.143957e-01 -2.013461e-01 -2.147660e-01 -1.799427e-01 -1.410492e-01 -1.485808e-01 -9.762856e-02 -1.745289e-02 0 0 0 0 0 0 0 0 0 0 0 0 0 0 0 0 0 0 0 0 0 0 0 0 0 0 0 0 0 0 0 0 0 0 0 0 0 0 0 0 0 0 0 0 0 0 0 0 0 0 0 0 0 0 0 
0 0 0 0 0 0 0 0 0 0 0 0 0 4.834616e+01 5.020281e+01 4.857258e+01 4.944223e+01 4.918089e+01 4.876803e+01 4.995373e+01 4.840835e+01 0 0 0 0 0 0 0 0 0 0 0 0 0 0 0 0 0 0 0 0 0 0 0 0 0 0 0 0 0 0 0 0 0 0 0 1.185718e-02 4.928755e-02 5.632164e-02 3.469882e-02 2.752453e-02 2.393413e-02 4.846642e-02 8.561574e-02 1.123636e-01 1.189822e-01 1.065390e-01 1.115121e-01 9.315900e-02 6.747457e-02 7.247546e-02 3.522452e-02 -1.977192e-03 0 0 0 0 0 0 0 0 0 0 0 0 0 0 0 0 0 0 0 0 0 0 0 0 0 0 0 0 0 0 0 0 0 0 0 0 0 0 0 0 0 0 0 0 0 0 0 0 0 0 0 0 0 0 0 
0 0 0 0 0 0 0 0 0 0 0 0 0 5.083271e+01 5.306469e+01 5.126668e+01 5.216615e+01 5.214264e+01 5.121102e+01 5.310667e+01 5.057341e+01 0 0 0 0 0 0 0 0 0 0 0 0 0 0 0 0 0 0 0 0 0 0 0 0 0 0 0 0 0 0 0 0 0 0 0 1.032942e-02 4.328071e-02 5.806424e-02 5.143883e-02 6.139712e-02 7.027850e-02 7.062865e-02 7.713299e-02 8.384688e-02 7.515523e-02 6.748960e-02 7.893800e-02 6.407107e-02 5.217847e-02 7.795380e-02 4.723636e-02 1.858325e-03 0 0 0 0 0 0 0 0 0 0 0 0 0 0 0 0 0 0 0 0 0 0 0 0 0 0 0 0 0 0 0 0 0 0 0 0 0 0 0 0 0 0 0 0 0 0 0 0 0 0 0 0 0 0 0 
0 0 0 0 0 0 0 0 0 0 0 0 0 4.835415e+01 5.020929e+01 4.857979e+01 4.944644e+01 4.918732e+01 4.876622e+01 4.995950e+01 4.840147e+01 0 0 0 0 0 0 0 0 0 0 0 0 0 0 0 0 0 0 0 0 0 0 0 0 0 0 0 0 0 0 0 0 0 0 0 7.194724e-04 3.033930e-03 4.658199e-03 4.781734e-03 5.544751e-03 5.950085e-03 4.519409e-03 2.865645e-03 1.940000e-03 1.016870e-03 7.698075e-04 1.632291e-03 9.404005e-04 1.318531e-03 4.353755e-03 2.941639e-03 9.493010e-05 0 0 0 0 0 0 0 0 0 0 0 0 0 0 0 0 0 0 0 0 0 0 0 0 0 0 0 0 0 0 0 0 0 0 0 0 0 0 0 0 0 0 0 0 0 0 0 0 0 0 0 0 0 0 0 
0 0 0 0 0 0 0 0 0 0 0 0 0 4.845517e+01 5.250273e+01 4.964419e+01 5.154481e+01 5.122643e+01 4.983440e+01 5.288018e+01 4.782270e+01 0 0 0 0 0 0 0 0 0 0 0 0 0 0 0 0 0 0 0 0 0 0 0 0 0 0 0 0 0 0 0 0 0 0 0 0 0 0 0 0 0 0 0 0 0 0 0 0 0 0 0 0 0 0 0 0 0 0 0 0 0 0 0 0 0 0 0 0 0 0 0 0 0 0 0 0 0 0 0 0 0 0 0 0 0 0 0 0 0 0 0 0 0 0 0 0 0 0 0 0 0 0 0 0 0 0 0 
0 0 0 0 0 8.645506e-02 -1.750253e-01 -1.394309e-01 -2.809824e-02 -7.797888e-02 -4.068477e-02 -7.126169e-02 9.862873e-02 4.440954e+01 4.851146e+01 4.557315e+01 4.763434e+01 4.704943e+01 4.601660e+01 4.864869e+01 4.401088e+01 6.117576e-02 -6.259236e-02 -5.978293e-02 -6.692458e-02 -6.341642e-02 -6.981074e-02 -6.443104e-02 -7.049476e-02 -6.351650e-02 -6.973230e-02 -6.212780e-02 -6.892042e-02 -6.152860e-02 -6.885234e-02 -6.221727e-02 -6.985750e-02 -6.456987e-02 -7.225919e-02 -6.854879e-02 -7.556668e-02 -7.310781e-02 -7.869173e-02 -7.723060e-02 -8.105986e-02 -8.041394e-02 -8.211127e-02 -8.167544e-02 -8.078333e-02 -8.018330e-02 -7.707752e-02 -7.674886e-02 -7.249889e-02 -7.304774e-02 -6.865389e-02 -7.038768e-02 -6.654679e-02 -6.918407e-02 -6.549041e-02 -6.883999e-02 -6.645950e-02 -6.903200e-02 -6.723478e-02 -6.970779e-02 -6.829827e-02 -7.054573e-02 -7.020686e-02 -7.148382e-02 -7.092670e-02 -7.094242e-02 -6.987655e-02 -6.859605e-02 -6.698440e-02 -6.442720e-02 -6.252885e-02 -5.955819e-02 -5.764329e-02 -5.483532e-02 -5.335757e-02 -5.122994e-02 -5.015352e-02 -4.856156e-02 -4.761033e-02 -4.661224e-02 -4.623588e-02 -4.637617e-02 -4.713921e-02 -4.827204e-02 -4.992074e-02 -5.126012e-02 -5.358252e-02 -5.464973e-02 -5.758326e-02 -5.756388e-02 -6.047279e-02 -5.829398e-02 -6.081739e-02 -5.632053e-02 -5.892264e-02 -5.266466e-02 -5.580545e-02 -4.833139e-02 -5.217934e-02 -4.439567e-02 -4.932481e-02 -4.264097e-02 -4.869257e-02 -4.405850e-02 -5.018157e-02 -4.794615e-02 -5.262455e-02 -5.331461e-02 -5.515723e-02 -5.932431e-02 -5.674701e-02 -6.470603e-02 -5.641010e-02 -6.900458e-02 -5.407955e-02 -7.235753e-02 -4.696838e-02 -1.369111e-01 -1.112680e-01 1.313358e-02 0 0 0 0 
0 0 0 0 0 1.940150e+00 -3.939963e+00 -3.142964e+00 -6.319949e-01 -1.745820e+00 -9.074555e-01 -1.594483e+00 2.218873e+00 3.879755e+01 4.852352e+01 4.373299e+01 5.102458e+01 4.722211e+01 4.687783e+01 5.285098e+01 3.460464e+01 1.375597e+00 -1.407291e+00 -1.344263e+00 -1.504979e+00 -1.426197e+00 -1.570016e+00 -1.449076e+00 -1.585374e+00 -1.428429e+00 -1.568101e+00 -1.397017e+00 -1.549641e+00 -1.383327e+00 -1.547890e+00 -1.398657e+00 -1.570371e+00 -1.451486e+00 -1.624345e+00 -1.540939e+00 -1.698710e+00 -1.643431e+00 -1.768923e+00 -1.736058e+00 -1.822076e+00 -1.807539e+00 -1.845660e+00 -1.835858e+00 -1.815803e+00 -1.802312e+00 -1.732487e+00 -1.725080e+00 -1.629496e+00 -1.641794e+00 -1.542973e+00 -1.581901e+00 -1.495540e+00 -1.554792e+00 -1.471782e+00 -1.547064e+00 -1.493571e+00 -1.551376e+00 -1.510972e+00 -1.566515e+00 -1.534813e+00 -1.585269e+00 -1.577624e+00 -1.606271e+00 -1.593730e+00 -1.594059e+00 -1.570099e+00 -1.541317e+00 -1.505097e+00 -1.447629e+00 -1.404965e+00 -1.338204e+00 -1.295169e+00 -1.232072e+00 -1.198862e+00 -1.151051e+00 -1.126859e+00 -1.091092e+00 -1.069722e+00 -1.047312e+00 -1.038860e+00 -1.042016e+00 -1.059152e+00 -1.084586e+00 -1.121607e+00 -1.151667e+00 -1.203819e+00 -1.227771e+00 -1.293659e+00 -1.293196e+00 -1.358529e+00 -1.309536e+00 -1.366204e+00 -1.265155e+00 -1.323617e+00 -1.183082e+00 -1.253722e+00 -1.085945e+00 -1.172533e+00 -9.978399e-01 -1.108706e+00 -9.587275e-01 -1.094753e+00 -9.907731e-01 -1.128292e+00 -1.078084e+00 -1.183029e+00 -1.198383e+00 -1.239509e+00 -1.332854e+00 -1.274663e+00 -1.453236e+00 -1.266906e+00 -1.550562e+00 -1.218442e+00 -1.640155e+00 -1.109797e+00 -3.139885e+00 -2.521375e+00 2.946100e-01 0 0 0 0 
0 0 0 0 0 2.808357e+00 -5.706173e+00 -4.552975e+00 -9.151748e-01 -2.526020e+00 -1.312125e+00 -2.306809e+00 3.213213e+00 1.099017e+01 1.425201e+01 1.181032e+01 1.497030e+01 1.281289e+01 1.358685e+01 1.469666e+01 1.029096e+01 1.991866e+00 -2.037718e+00 -1.946491e+00 -2.179242e+00 -2.065190e+00 -2.273449e+00 -2.098335e+00 -2.295683e+00 -2.068418e+00 -2.270638e+00 -2.022886e+00 -2.243856e+00 -2.003008e+00 -2.241266e+00 -2.025166e+00 -2.273787e+00 -2.101645e+00 -2.351933e+00 -2.231168e+00 -2.459613e+00 -2.379571e+00 -2.561266e+00 -2.513676e+00 -2.638208e+00 -2.617156e+00 -2.672343e+00 -2.658148e+00 -2.629111e+00 -2.609576e+00 -2.508471e+00 -2.497742e+00 -2.359331e+00 -2.377129e+00 -2.234030e+00 -2.290384e+00 -2.165333e+00 -2.251117e+00 -2.130931e+00 -2.239930e+00 -2.162481e+00 -2.246172e+00 -2.187669e+00 -2.268080e+00 -2.222174e+00 -2.295214e+00 -2.284136e+00 -2.325600e+00 -2.307438e+00 -2.307908e+00 -2.273215e+00 -2.231542e+00 -2.179101e+00 -2.095896e+00 -2.034124e+00 -1.937463e+00 -1.875154e+00 -1.783799e+00 -1.735717e+00 -1.666493e+00 -1.631467e+00 -1.579684e+00 -1.548746e+00 -1.516304e+00 -1.504069e+00 -1.508638e+00 -1.533446e+00 -1.570265e+00 -1.623859e+00 -1.667371e+00 -1.742869e+00 -1.777539e+00 -1.872927e+00 -1.872250e+00 -1.966833e+00 -1.895890e+00 -1.977927e+00 -1.831624e+00 -1.916265e+00 -1.712816e+00 -1.815108e+00 -1.572238e+00 -1.697635e+00 -1.444762e+00 -1.605303e+00 -1.388214e+00 -1.585166e+00 -1.434660e+00 -1.633746e+00 -1.561059e+00 -1.712956e+00 -1.735146e+00 -1.794620e+00 -1.929692e+00 -1.845371e+00 -2.103847e+00 -1.834094e+00 -2.244944e+00 -1.764916e+00 -2.378275e+00 -1.620599e+00 -4.562110e+00 -3.655878e+00 4.264153e-01 0 0 0 0 
0 0 0 0 0 9.546622e-01 -1.941236e+00 -1.549442e+00 -3.112782e-01 -8.581789e-01 -4.453546e-01 -7.835876e-01 1.092968e+00 3.737185e+00 4.846125e+00 4.015876e+00 5.090381e+00 4.356818e+00 4.620235e+00 4.997802e+00 3.499822e+00 6.774451e-01 -6.930201e-01 -6.620108e-01 -7.411867e-01 -7.024098e-01 -7.732441e-01 -7.136904e-01 -7.808033e-01 -7.035053e-01 -7.722696e-01 -6.879966e-01 -7.631359e-01 -6.812093e-01 -7.622279e-01 -6.887265e-01 -7.732735e-01 -7.147287e-01 -7.998476e-01 -7.587781e-01 -8.364694e-01 -8.092481e-01 -8.710353e-01 -8.548483e-01 -8.971916e-01 -8.900302e-01 -9.087940e-01 -9.039661e-01 -8.940910e-01 -8.874473e-01 -8.530624e-01 -8.494111e-01 -8.023344e-01 -8.083822e-01 -7.597108e-01 -7.788702e-01 -7.363401e-01 -7.655097e-01 -7.246392e-01 -7.617062e-01 -7.353694e-01 -7.638283e-01 -7.439323e-01 -7.712723e-01 -7.556584e-01 -7.804899e-01 -7.767193e-01 -7.908132e-01 -7.846346e-01 -7.847912e-01 -7.729930e-01 -7.588209e-01 -7.409880e-01 -7.126935e-01 -6.916873e-01 -6.588168e-01 -6.376282e-01 -6.065631e-01 -5.902123e-01 -5.666727e-01 -5.547618e-01 -5.371538e-01 -5.266339e-01 -5.156043e-01 -5.114442e-01 -5.129982e-01 -5.214330e-01 -5.339508e-01 -5.521719e-01 -5.669635e-01 -5.926325e-01 -6.044184e-01 -6.368509e-01 -6.366174e-01 -6.687762e-01 -6.446481e-01 -6.725401e-01 -6.227902e-01 -6.515710e-01 -5.823992e-01 -6.171914e-01 -5.346245e-01 -5.772806e-01 -4.913177e-01 -5.459223e-01 -4.721278e-01 -5.391058e-01 -4.879452e-01 -5.556354e-01 -5.309212e-01 -5.825509e-01 -5.900780e-01 -6.102677e-01 -6.561628e-01 -6.274554e-01 -7.153162e-01 -6.235977e-01 -7.633863e-01 -6.005542e-01 -8.104774e-01 -5.577702e-01 -1.559136e+00 -1.245771e+00 1.449389e-01 0 0 0 0 
0 0 0 0 0 0 0 0 0 0 0 0 0 0 0 0 0 0 0 0 0 0 0 0 0 0 0 0 0 0 0 0 0 0 0 0 0 0 0 0 0 0 0 0 0 0 0 0 0 0 0 0 0 0 0 0 0 0 0 0 0 0 0 0 0 0 0 0 0 0 0 0 0 0 0 0 0 0 0 0 0 0 0 0 0 0 0 0 0 0 0 0 0 0 0 0 0 0 0 0 0 0 0 0 0 0 0 0 0 0 0 0 0 0 0 0 0 0 0 0 0 0 0 0 0 0 0 0 
