# vtk DataFile Version 2.0
Comment goes here
ASCII

DATASET STRUCTURED_POINTS
FIELD FieldData 1
TIME 1 1 double
0.72000000
DIMENSIONS    128   16   1

ORIGIN    0.000   0.000   0.000
SPACING   0.0078125 0.015625   1.000

POINT_DATA   2048
SCALARS fX double
LOOKUP_TABLE default

0 0 0 0 0 0 0 0 0 0 0 0 0 0 0 0 0 0 0 0 0 0 0 0 0 0 0 0 0 0 0 0 0 0 0 0 0 0 0 0 0 0 0 0 0 0 0 0 0 0 0 0 0 0 0 0 0 0 0 0 0 0 0 0 0 0 0 0 0 0 0 0 0 0 0 0 0 0 0 0 0 0 0 0 0 0 0 0 0 0 0 0 0 0 0 0 0 0 0 0 0 0 0 0 0 0 0 0 0 0 0 0 0 0 0 0 0 0 0 0 0 0 0 0 0 0 0 0 
0 0 0 0 0 0 0 0 0 0 0 0 0 0 0 0 0 0 0 0 0 0 0 0 0 0 0 0 0 0 0 0 0 0 0 0 0 0 0 0 0 0 0 0 0 0 0 0 0 0 0 0 0 0 0 0 0 0 0 0 0 0 0 0 0 0 0 0 0 0 0 0 0 0 0 0 0 0 0 0 0 0 0 0 0 0 0 0 0 0 0 0 0 0 0 0 0 0 0 0 0 0 0 0 0 0 0 0 0 0 0 0 0 0 0 0 0 0 0 0 0 0 0 0 0 0 0 0 
0 0 0 0 0 -1.748583e+00 -1.347724e+00 3.354535e-01 -6.042763e-01 -3.482271e-01 -5.826658e-01 -4.012104e-01 -4.051536e-03 2.137911e+00 3.013953e+00 2.210313e+00 2.150164e+00 2.508746e+00 1.852686e+00 2.777763e+00 2.673062e+00 -2.397581e-01 -3.332811e-01 -4.745656e-01 -3.682253e-01 -4.774242e-01 -3.839600e-01 -4.773892e-01 -4.003936e-01 -4.770418e-01 -4.170089e-01 -4.760746e-01 -4.317514e-01 -4.729625e-01 -4.422829e-01 -4.661719e-01 -4.467413e-01 -4.541781e-01 -4.437932e-01 -4.368247e-01 -4.341222e-01 -4.166153e-01 -4.213754e-01 -3.982170e-01 -4.106707e-01 -3.860145e-01 -4.055623e-01 -3.808023e-01 -4.051904e-01 -3.798850e-01 -4.038114e-01 -3.783057e-01 -3.936663e-01 -3.688524e-01 -3.671499e-01 -1.847842e-01 2.588999e+00 4.248367e+00 2.001573e-01 -7.522824e-01 4.453823e-01 1.029223e-01 3.399321e+00 5.542794e+00 2.816675e+00 1.079990e+00 1.663748e+00 2.450022e-01 -2.255567e+00 -1.657889e+00 -1.647978e+00 -4.429614e+00 -4.223012e+00 -1.481190e+00 -3.492182e-01 -3.735568e-01 -4.015594e-01 -4.268296e-01 -4.510548e-01 -4.634453e-01 -4.842231e-01 -4.876488e-01 -5.046706e-01 -5.002197e-01 -5.122672e-01 -4.996429e-01 -5.079265e-01 -4.872445e-01 -4.946486e-01 -4.693441e-01 -4.784248e-01 -4.531135e-01 -4.651953e-01 -4.446061e-01 -4.584541e-01 -4.459934e-01 -4.585164e-01 -4.570973e-01 -4.635204e-01 -4.753394e-01 -4.700549e-01 -4.968912e-01 -4.740507e-01 -5.173564e-01 -4.722365e-01 -5.332589e-01 -4.633452e-01 -5.428086e-01 -4.483297e-01 -5.454848e-01 -4.298751e-01 -5.416534e-01 -4.118019e-01 -5.324173e-01 -3.979936e-01 -5.197375e-01 -3.910898e-01 -5.083331e-01 -3.873575e-01 -5.178760e-01 -2.303450e-01 -5.274400e-01 -1.591668e+00 -2.250012e-01 0 0 0 0 
0 0 0 0 0 -5.144575e+00 -3.978533e+00 9.654604e-01 -1.787044e+00 -1.026078e+00 -1.714313e+00 -1.180422e+00 -1.242781e-02 6.287408e+00 8.864168e+00 6.500218e+00 6.323161e+00 7.377398e+00 5.448068e+00 8.168689e+00 7.861334e+00 -7.044369e-01 -9.795789e-01 -1.395223e+00 -1.082649e+00 -1.403865e+00 -1.129080e+00 -1.403866e+00 -1.177465e+00 -1.402867e+00 -1.226322e+00 -1.400001e+00 -1.269638e+00 -1.390809e+00 -1.300565e+00 -1.370801e+00 -1.313644e+00 -1.335505e+00 -1.304960e+00 -1.284469e+00 -1.276526e+00 -1.225057e+00 -1.239069e+00 -1.170988e+00 -1.207630e+00 -1.135147e+00 -1.192651e+00 -1.119861e+00 -1.191597e+00 -1.117196e+00 -1.187570e+00 -1.112575e+00 -1.157757e+00 -1.084797e+00 -1.079805e+00 -5.435222e-01 7.700878e+00 1.272307e+01 1.028206e+00 -1.299127e+00 3.000331e+00 2.292240e+00 9.441495e+00 1.103913e+01 1.029729e+00 -2.973802e+00 -4.150905e-01 -3.741991e+00 -9.299044e+00 -6.248912e+00 -5.513437e+00 -1.338184e+01 -1.265688e+01 -4.356122e+00 -1.027046e+00 -1.098617e+00 -1.180972e+00 -1.255294e+00 -1.326544e+00 -1.362990e+00 -1.424102e+00 -1.434183e+00 -1.484247e+00 -1.471162e+00 -1.506595e+00 -1.469471e+00 -1.493832e+00 -1.433009e+00 -1.454782e+00 -1.380360e+00 -1.407062e+00 -1.332615e+00 -1.368140e+00 -1.307579e+00 -1.348301e+00 -1.311649e+00 -1.348479e+00 -1.344307e+00 -1.363209e+00 -1.397978e+00 -1.382455e+00 -1.461395e+00 -1.394237e+00 -1.521606e+00 -1.388905e+00 -1.568357e+00 -1.362702e+00 -1.596354e+00 -1.318400e+00 -1.604041e+00 -1.263889e+00 -1.592505e+00 -1.210432e+00 -1.565036e+00 -1.169530e+00 -1.527504e+00 -1.149074e+00 -1.493973e+00 -1.138376e+00 -1.522851e+00 -6.777673e-01 -1.550685e+00 -4.680412e+00 -6.616326e-01 0 0 0 0 
0 0 0 0 0 -3.554471e+00 -2.755296e+00 6.566414e-01 -1.239144e+00 -7.096830e-01 -1.184460e+00 -8.155747e-01 -8.832508e-03 2.444007e+01 3.733777e+01 2.682289e+01 2.583869e+01 2.977509e+01 2.270615e+01 3.467923e+01 2.790710e+01 -4.862397e-01 -6.763321e-01 -9.634907e-01 -7.476709e-01 -9.695742e-01 -7.798169e-01 -9.696242e-01 -8.132639e-01 -9.689457e-01 -8.470062e-01 -9.669554e-01 -8.769067e-01 -9.605877e-01 -8.982465e-01 -9.467500e-01 -9.072639e-01 -9.223585e-01 -9.012588e-01 -8.871066e-01 -8.816232e-01 -8.460811e-01 -8.557652e-01 -8.087539e-01 -8.340706e-01 -7.840200e-01 -8.237463e-01 -7.734818e-01 -8.230372e-01 -7.716567e-01 -8.202694e-01 -7.684766e-01 -7.996880e-01 -7.493010e-01 -7.458608e-01 -3.754612e-01 5.323280e+00 7.921044e+00 -6.745450e-01 -1.622853e+00 1.374294e+00 7.222514e-01 4.199661e+00 2.076131e+00 -6.029939e+00 -7.692116e+00 -5.319972e+00 -7.147270e+00 -9.635905e+00 -6.495567e+00 -5.702002e+00 -1.054679e+01 -9.146894e+00 -3.008870e+00 -7.094080e-01 -7.588392e-01 -8.157244e-01 -8.670619e-01 -9.162781e-01 -9.414551e-01 -9.836688e-01 -9.906349e-01 -1.025217e+00 -1.016182e+00 -1.040657e+00 -1.015016e+00 -1.031842e+00 -9.898313e-01 -1.004869e+00 -9.534636e-01 -9.719047e-01 -9.204790e-01 -9.450142e-01 -9.031789e-01 -9.313040e-01 -9.059844e-01 -9.314248e-01 -9.285440e-01 -9.416050e-01 -9.656263e-01 -9.549133e-01 -1.009446e+00 -9.630651e-01 -1.051046e+00 -9.593842e-01 -1.083330e+00 -9.412590e-01 -1.102625e+00 -9.105906e-01 -1.107846e+00 -8.728228e-01 -1.099748e+00 -8.357518e-01 -1.080625e+00 -8.073580e-01 -1.054585e+00 -7.931551e-01 -1.031428e+00 -7.859002e-01 -1.051769e+00 -4.683097e-01 -1.070852e+00 -3.232563e+00 -4.569621e-01 0 0 0 0 
0 0 0 0 0 -1.584792e-01 -1.244875e-01 2.663449e-02 -5.637684e-02 -3.183191e-02 -5.281368e-02 -3.636364e-02 -4.562391e-04 2.679357e+01 2.921439e+01 2.738279e+01 2.772211e+01 2.823157e+01 2.688399e+01 2.895419e+01 2.712645e+01 -2.156080e-02 -3.003430e-02 -4.283323e-02 -3.324691e-02 -4.313298e-02 -3.469700e-02 -4.314787e-02 -3.619256e-02 -4.312053e-02 -3.769356e-02 -4.302925e-02 -3.901961e-02 -4.274102e-02 -3.996392e-02 -4.212050e-02 -4.036120e-02 -4.103185e-02 -4.009217e-02 -3.946256e-02 -3.921916e-02 -3.763924e-02 -3.807184e-02 -3.598253e-02 -3.711143e-02 -3.488718e-02 -3.665738e-02 -3.442330e-02 -3.663066e-02 -3.434605e-02 -3.651096e-02 -3.420744e-02 -3.559763e-02 -3.335674e-02 -3.320551e-02 -1.672320e-02 1.979558e-01 -8.697678e-01 -2.058646e+00 -1.535090e+00 -1.791916e+00 -2.170840e+00 -2.357995e+00 -3.808614e+00 -4.473250e+00 -3.695054e+00 -3.238051e+00 -3.159292e+00 -2.562916e+00 -1.847969e+00 -1.919785e+00 -1.735718e+00 -7.435823e-01 -1.339383e-01 -3.158006e-02 -3.377942e-02 -3.631174e-02 -3.859743e-02 -4.078884e-02 -4.191031e-02 -4.379007e-02 -4.410090e-02 -4.564076e-02 -4.523920e-02 -4.632886e-02 -4.518794e-02 -4.593688e-02 -4.406697e-02 -4.473614e-02 -4.244755e-02 -4.326789e-02 -4.097782e-02 -4.206918e-02 -4.020580e-02 -4.145718e-02 -4.032934e-02 -4.146196e-02 -4.133392e-02 -4.191671e-02 -4.298731e-02 -4.251269e-02 -4.494208e-02 -4.287921e-02 -4.679677e-02 -4.271583e-02 -4.823172e-02 -4.190234e-02 -4.907968e-02 -4.051976e-02 -4.928961e-02 -3.880930e-02 -4.889608e-02 -3.712168e-02 -4.800716e-02 -3.582176e-02 -4.681829e-02 -3.517084e-02 -4.578862e-02 -3.488210e-02 -4.679400e-02 -2.088739e-02 -4.760751e-02 -1.438194e-01 -2.033071e-02 0 0 0 0 
0 0 0 0 0 0 0 0 0 0 0 0 0 2.942470e+01 3.230756e+01 3.014156e+01 3.057776e+01 3.116745e+01 2.954234e+01 3.211920e+01 2.962981e+01 0 0 0 0 0 0 0 0 0 0 0 0 0 0 0 0 0 0 0 0 0 0 0 0 0 0 0 0 0 0 0 0 0 0 0 1.153566e-02 -2.259537e-01 -4.896556e-01 -4.609474e-01 -5.631628e-01 -6.636277e-01 -5.444894e-01 -3.835824e-01 -2.526790e-01 -1.287051e-01 -3.492739e-02 -1.799402e-02 9.583246e-03 7.562161e-02 -1.479023e-03 -9.450723e-02 -3.442169e-02 0 0 0 0 0 0 0 0 0 0 0 0 0 0 0 0 0 0 0 0 0 0 0 0 0 0 0 0 0 0 0 0 0 0 0 0 0 0 0 0 0 0 0 0 0 0 0 0 0 0 0 0 0 0 0 
0 0 0 0 0 0 0 0 0 0 0 0 0 2.852168e+01 2.949904e+01 2.867726e+01 2.897942e+01 2.901063e+01 2.862839e+01 2.939260e+01 2.856809e+01 0 0 0 0 0 0 0 0 0 0 0 0 0 0 0 0 0 0 0 0 0 0 0 0 0 0 0 0 0 0 0 0 0 0 0 3.746217e-02 1.534709e-01 1.441260e-01 5.663660e-02 1.346155e-01 1.113278e-01 1.006584e-02 5.285855e-02 -5.741116e-03 -7.442574e-02 -3.176711e-02 -3.179467e-02 -4.594160e-02 -2.189170e-02 3.091707e-02 2.553430e-02 -2.020697e-03 0 0 0 0 0 0 0 0 0 0 0 0 0 0 0 0 0 0 0 0 0 0 0 0 0 0 0 0 0 0 0 0 0 0 0 0 0 0 0 0 0 0 0 0 0 0 0 0 0 0 0 0 0 0 0 
0 0 0 0 0 0 0 0 0 0 0 0 0 3.056899e+01 3.196824e+01 3.089121e+01 3.122234e+01 3.144283e+01 3.065511e+01 3.198680e+01 3.050162e+01 0 0 0 0 0 0 0 0 0 0 0 0 0 0 0 0 0 0 0 0 0 0 0 0 0 0 0 0 0 0 0 0 0 0 0 1.270754e-02 6.418366e-02 7.690670e-02 5.479184e-02 8.087452e-02 6.344069e-02 3.356440e-02 4.715017e-02 1.730573e-02 4.494174e-04 1.076910e-02 -1.038056e-02 -2.314669e-02 -4.017113e-02 -5.759547e-02 -2.645859e-02 1.619652e-03 0 0 0 0 0 0 0 0 0 0 0 0 0 0 0 0 0 0 0 0 0 0 0 0 0 0 0 0 0 0 0 0 0 0 0 0 0 0 0 0 0 0 0 0 0 0 0 0 0 0 0 0 0 0 0 
0 0 0 0 0 0 0 0 0 0 0 0 0 2.852512e+01 2.950116e+01 2.867997e+01 2.897949e+01 2.901300e+01 2.862776e+01 2.939678e+01 2.857055e+01 0 0 0 0 0 0 0 0 0 0 0 0 0 0 0 0 0 0 0 0 0 0 0 0 0 0 0 0 0 0 0 0 0 0 0 2.262358e-04 8.718316e-04 -8.229778e-04 -3.710677e-03 -5.643420e-03 -7.740871e-03 -5.508755e-03 -8.879285e-04 6.246109e-04 2.900290e-03 4.526002e-03 2.434953e-03 2.866825e-03 7.677286e-04 -6.750200e-03 -5.341770e-03 -2.247636e-04 0 0 0 0 0 0 0 0 0 0 0 0 0 0 0 0 0 0 0 0 0 0 0 0 0 0 0 0 0 0 0 0 0 0 0 0 0 0 0 0 0 0 0 0 0 0 0 0 0 0 0 0 0 0 0 
0 0 0 0 0 0 0 0 0 0 0 0 0 2.943159e+01 3.231256e+01 3.014728e+01 3.057510e+01 3.117147e+01 2.953604e+01 3.211647e+01 2.963222e+01 0 0 0 0 0 0 0 0 0 0 0 0 0 0 0 0 0 0 0 0 0 0 0 0 0 0 0 0 0 0 0 0 0 0 0 0 0 0 0 0 0 0 0 0 0 0 0 0 0 0 0 0 0 0 0 0 0 0 0 0 0 0 0 0 0 0 0 0 0 0 0 0 0 0 0 0 0 0 0 0 0 0 0 0 0 0 0 0 0 0 0 0 0 0 0 0 0 0 0 0 0 0 0 0 0 0 0 
0 0 0 0 0 -1.581438e-01 -1.223363e-01 3.121622e-02 -5.027841e-02 -2.564795e-02 -4.662854e-02 -3.091910e-02 4.417460e-03 2.680152e+01 2.922006e+01 2.738951e+01 2.771712e+01 2.823035e+01 2.686716e+01 2.894001e+01 2.712384e+01 -2.396972e-02 -3.297403e-02 -4.584612e-02 -3.632666e-02 -4.578081e-02 -3.702037e-02 -4.468486e-02 -3.717329e-02 -4.320763e-02 -3.719205e-02 -4.173086e-02 -3.730915e-02 -4.047294e-02 -3.762168e-02 -3.955686e-02 -3.821995e-02 -3.913440e-02 -3.922901e-02 -3.930766e-02 -4.062360e-02 -3.994624e-02 -4.211813e-02 -4.068306e-02 -4.326930e-02 -4.108364e-02 -4.370274e-02 -4.087583e-02 -4.329104e-02 -4.003534e-02 -4.212944e-02 -3.869279e-02 -4.036368e-02 -3.689414e-02 -3.800496e-02 -3.450654e-02 -3.497098e-02 -3.142597e-02 -3.435677e-02 -3.336555e-02 -3.459923e-02 -3.458470e-02 -3.525220e-02 -3.556257e-02 -3.830687e-02 -4.099083e-02 -4.311971e-02 -4.581471e-02 -4.858201e-02 -5.018603e-02 -5.101632e-02 -5.298980e-02 -5.193944e-02 -5.038220e-02 -4.825911e-02 -4.699598e-02 -4.523662e-02 -4.415606e-02 -4.279273e-02 -4.183490e-02 -4.097515e-02 -4.018861e-02 -4.001084e-02 -3.946956e-02 -4.010874e-02 -3.978834e-02 -4.120083e-02 -4.094434e-02 -4.287949e-02 -4.248623e-02 -4.457610e-02 -4.391816e-02 -4.578085e-02 -4.488913e-02 -4.618875e-02 -4.525773e-02 -4.569640e-02 -4.505219e-02 -4.436762e-02 -4.443114e-02 -4.240189e-02 -4.366085e-02 -4.014686e-02 -4.310769e-02 -3.804484e-02 -4.309826e-02 -3.645597e-02 -4.374415e-02 -3.553711e-02 -4.487985e-02 -3.523954e-02 -4.614239e-02 -3.543657e-02 -4.716100e-02 -3.603325e-02 -4.769678e-02 -3.688444e-02 -4.783060e-02 -3.736639e-02 -4.915168e-02 -2.324729e-02 -4.903578e-02 -1.445445e-01 -2.043349e-02 0 0 0 0 
0 0 0 0 0 -3.546952e+00 -2.707054e+00 7.594385e-01 -1.102248e+00 -5.708338e-01 -1.045580e+00 -6.933218e-01 1.005962e-01 2.442272e+01 3.733090e+01 2.683889e+01 2.582094e+01 2.980711e+01 2.265292e+01 3.461909e+01 2.793329e+01 -5.403565e-01 -7.423793e-01 -1.031177e+00 -8.168631e-01 -1.029066e+00 -8.320125e-01 -1.004147e+00 -8.352830e-01 -9.708767e-01 -8.357107e-01 -9.377503e-01 -8.384440e-01 -9.096053e-01 -8.455977e-01 -8.891426e-01 -8.591478e-01 -8.797193e-01 -8.818651e-01 -8.836123e-01 -9.131706e-01 -8.979057e-01 -9.466717e-01 -9.143717e-01 -9.724369e-01 -9.232686e-01 -9.820734e-01 -9.184959e-01 -9.727273e-01 -8.995216e-01 -9.465481e-01 -8.692981e-01 -9.068284e-01 -8.288631e-01 -8.538209e-01 -7.752205e-01 -7.856609e-01 -7.060216e-01 -7.718752e-01 -7.496094e-01 -7.773227e-01 -7.769927e-01 -7.919770e-01 -7.989429e-01 -8.605809e-01 -9.208697e-01 -9.686793e-01 -1.029218e+00 -1.091370e+00 -1.127404e+00 -1.146044e+00 -1.190377e+00 -1.166767e+00 -1.131774e+00 -1.084065e+00 -1.055679e+00 -1.016149e+00 -9.918695e-01 -9.612453e-01 -9.397271e-01 -9.204180e-01 -9.027444e-01 -8.987517e-01 -8.865812e-01 -9.009354e-01 -8.937239e-01 -9.254516e-01 -9.196841e-01 -9.631646e-01 -9.543375e-01 -1.001303e+00 -9.865376e-01 -1.028399e+00 -1.008383e+00 -1.037585e+00 -1.016679e+00 -1.026523e+00 -1.012046e+00 -9.966384e-01 -9.980419e-01 -9.524156e-01 -9.806645e-01 -9.016955e-01 -9.681910e-01 -8.544820e-01 -9.680421e-01 -8.189563e-01 -9.828181e-01 -7.987195e-01 -1.008849e+00 -7.926947e-01 -1.037957e+00 -7.979534e-01 -1.061670e+00 -8.121531e-01 -1.074346e+00 -8.316693e-01 -1.077319e+00 -8.417122e-01 -1.104741e+00 -5.213433e-01 -1.102963e+00 -3.248864e+00 -4.592721e-01 0 0 0 0 
0 0 0 0 0 -5.133693e+00 -3.908711e+00 1.114253e+00 -1.588877e+00 -8.250759e-01 -1.513264e+00 -1.003443e+00 1.459843e-01 6.393286e+00 8.951481e+00 6.557945e+00 6.344944e+00 7.391519e+00 5.425529e+00 8.132770e+00 7.827215e+00 -7.827855e-01 -1.075201e+00 -1.493218e+00 -1.182825e+00 -1.489998e+00 -1.204647e+00 -1.453845e+00 -1.209340e+00 -1.405656e+00 -1.209961e+00 -1.357709e+00 -1.213944e+00 -1.316991e+00 -1.224335e+00 -1.287395e+00 -1.243980e+00 -1.273770e+00 -1.276882e+00 -1.279406e+00 -1.322199e+00 -1.300086e+00 -1.370682e+00 -1.323903e+00 -1.407959e+00 -1.336758e+00 -1.421885e+00 -1.329822e+00 -1.408329e+00 -1.302328e+00 -1.370407e+00 -1.258555e+00 -1.312889e+00 -1.200008e+00 -1.236142e+00 -1.122345e+00 -1.137462e+00 -1.022162e+00 -1.117506e+00 -1.085271e+00 -1.125393e+00 -1.124915e+00 -1.146605e+00 -1.156689e+00 -1.245923e+00 -1.333205e+00 -1.402418e+00 -1.490062e+00 -1.580041e+00 -1.632208e+00 -1.659193e+00 -1.723376e+00 -1.689190e+00 -1.638527e+00 -1.569452e+00 -1.528353e+00 -1.471121e+00 -1.435969e+00 -1.391633e+00 -1.360480e+00 -1.332526e+00 -1.306938e+00 -1.301158e+00 -1.283535e+00 -1.304315e+00 -1.293871e+00 -1.339804e+00 -1.331453e+00 -1.394404e+00 -1.381627e+00 -1.449626e+00 -1.428253e+00 -1.488862e+00 -1.459888e+00 -1.502167e+00 -1.471903e+00 -1.486152e+00 -1.465191e+00 -1.442877e+00 -1.444903e+00 -1.378837e+00 -1.419727e+00 -1.305391e+00 -1.401656e+00 -1.237039e+00 -1.401456e+00 -1.185649e+00 -1.422916e+00 -1.156454e+00 -1.460734e+00 -1.147899e+00 -1.503065e+00 -1.155724e+00 -1.537606e+00 -1.176483e+00 -1.556120e+00 -1.204838e+00 -1.560416e+00 -1.219179e+00 -1.599543e+00 -7.545521e-01 -1.597180e+00 -4.704015e+00 -6.649773e-01 0 0 0 0 
0 0 0 0 0 -1.744884e+00 -1.323994e+00 3.860308e-01 -5.369075e-01 -2.798901e-01 -5.143123e-01 -3.410403e-01 4.980551e-02 2.173907e+00 3.043639e+00 2.229940e+00 2.157571e+00 2.513546e+00 1.845021e+00 2.765546e+00 2.661458e+00 -2.663987e-01 -3.657960e-01 -5.078867e-01 -4.022882e-01 -5.067126e-01 -4.096549e-01 -4.943827e-01 -4.112305e-01 -4.779870e-01 -4.114422e-01 -4.616898e-01 -4.128093e-01 -4.478586e-01 -4.163587e-01 -4.378098e-01 -4.230522e-01 -4.331850e-01 -4.342456e-01 -4.351016e-01 -4.496516e-01 -4.421269e-01 -4.661280e-01 -4.502147e-01 -4.787916e-01 -4.545730e-01 -4.835144e-01 -4.522017e-01 -4.788931e-01 -4.428417e-01 -4.659881e-01 -4.279501e-01 -4.464241e-01 -4.080389e-01 -4.203257e-01 -3.816307e-01 -3.867717e-01 -3.475668e-01 -3.799879e-01 -3.690274e-01 -3.826697e-01 -3.825065e-01 -3.898807e-01 -3.933084e-01 -4.236488e-01 -4.533263e-01 -4.768588e-01 -5.066595e-01 -5.372527e-01 -5.549909e-01 -5.641648e-01 -5.859887e-01 -5.743630e-01 -5.571351e-01 -5.336460e-01 -5.196700e-01 -5.002087e-01 -4.882557e-01 -4.731806e-01 -4.625875e-01 -4.530832e-01 -4.443821e-01 -4.424167e-01 -4.364232e-01 -4.434884e-01 -4.399355e-01 -4.555535e-01 -4.527132e-01 -4.741192e-01 -4.697754e-01 -4.928990e-01 -4.856335e-01 -5.062442e-01 -4.963942e-01 -5.107710e-01 -5.004817e-01 -5.053253e-01 -4.981973e-01 -4.906066e-01 -4.912927e-01 -4.688236e-01 -4.827229e-01 -4.438425e-01 -4.765727e-01 -4.206020e-01 -4.765125e-01 -4.031487e-01 -4.838421e-01 -3.932714e-01 -4.967649e-01 -3.904437e-01 -5.112503e-01 -3.932067e-01 -5.230969e-01 -4.003634e-01 -5.294709e-01 -4.100532e-01 -5.309278e-01 -4.148331e-01 -5.439545e-01 -2.564561e-01 -5.432525e-01 -1.599696e+00 -2.261386e-01 0 0 0 0 
0 0 0 0 0 0 0 0 0 0 0 0 0 0 0 0 0 0 0 0 0 0 0 0 0 0 0 0 0 0 0 0 0 0 0 0 0 0 0 0 0 0 0 0 0 0 0 0 0 0 0 0 0 0 0 0 0 0 0 0 0 0 0 0 0 0 0 0 0 0 0 0 0 0 0 0 0 0 0 0 0 0 0 0 0 0 0 0 0 0 0 0 0 0 0 0 0 0 0 0 0 0 0 0 0 0 0 0 0 0 0 0 0 0 0 0 0 0 0 0 0 0 0 0 0 0 0 0 
