# vtk DataFile Version 2.0
Comment goes here
ASCII

DATASET STRUCTURED_POINTS
FIELD FieldData 1
TIME 1 1 double
0.35000000
DIMENSIONS    128   16   1

ORIGIN    0.000   0.000   0.000
SPACING   0.0078125 0.015625   1.000

POINT_DATA   2048
SCALARS fY double
LOOKUP_TABLE default

0 0 0 0 0 0 0 0 0 0 0 0 0 0 0 0 0 0 0 0 0 0 0 0 0 0 0 0 0 0 0 0 0 0 0 0 0 0 0 0 0 0 0 0 0 0 0 0 0 0 0 0 0 0 0 0 0 0 0 0 0 0 0 0 0 0 0 0 0 0 0 0 0 0 0 0 0 0 0 0 0 0 0 0 0 0 0 0 0 0 0 0 0 0 0 0 0 0 0 0 0 0 0 0 0 0 0 0 0 0 0 0 0 0 0 0 0 0 0 0 0 0 0 0 0 0 0 0 
0 0 0 0 0 0 0 0 0 0 0 0 0 0 0 0 0 0 0 0 0 0 0 0 0 0 0 0 0 0 0 0 0 0 0 0 0 0 0 0 0 0 0 0 0 0 0 0 0 0 0 0 0 0 0 0 0 0 0 0 0 0 0 0 0 0 0 0 0 0 0 0 0 0 0 0 0 0 0 0 0 0 0 0 0 0 0 0 0 0 0 0 0 0 0 0 0 0 0 0 0 0 0 0 0 0 0 0 0 0 0 0 0 0 0 0 0 0 0 0 0 0 0 0 0 0 0 0 
0 0 0 0 0 1.130511e+00 2.010386e+00 1.570074e+00 2.757964e+00 2.157506e+00 3.418320e+00 2.679929e+00 3.952479e+00 2.314031e+00 -4.363349e+00 -8.611005e+00 -1.363593e+01 -1.880270e+01 -2.367248e+01 -2.805904e+01 -3.501984e+01 -3.596630e+01 -3.531101e+01 -3.547142e+01 -3.476690e+01 -3.457484e+01 -3.372909e+01 -3.344567e+01 -3.299369e+01 -3.306533e+01 -3.299445e+01 -3.303675e+01 -3.289649e+01 -3.268875e+01 -3.238693e+01 -3.189057e+01 -3.136545e+01 -3.063948e+01 -3.003548e+01 -2.933401e+01 -2.895261e+01 -2.865592e+01 -2.871852e+01 -2.869143e+01 -2.875236e+01 -2.860269e+01 -2.847582e+01 -2.808542e+01 -2.753302e+01 -2.661044e+01 -2.565197e+01 -2.485812e+01 -2.459877e+01 -2.477155e+01 -2.530915e+01 -2.590002e+01 -2.640151e+01 -2.716274e+01 -2.712291e+01 -2.569331e+01 -2.377061e+01 -2.237714e+01 -2.291176e+01 -2.477171e+01 -2.631217e+01 -2.668302e+01 -2.652175e+01 -2.584004e+01 -2.405474e+01 -2.237418e+01 -2.075274e+01 -1.915021e+01 -1.769088e+01 -1.710485e+01 -1.685589e+01 -1.709616e+01 -1.729077e+01 -1.755633e+01 -1.738259e+01 -1.707032e+01 -1.635407e+01 -1.559883e+01 -1.475503e+01 -1.409235e+01 -1.361936e+01 -1.332267e+01 -1.327152e+01 -1.321752e+01 -1.342019e+01 -1.338632e+01 -1.343023e+01 -1.286706e+01 -1.239867e+01 -1.146144e+01 -1.093840e+01 -1.010698e+01 -9.821283e+00 -9.366563e+00 -9.508447e+00 -9.455990e+00 -9.565364e+00 -9.175232e+00 -8.581829e+00 -7.773405e+00 -6.932330e+00 -6.492394e+00 -6.113334e+00 -6.387055e+00 -6.230681e+00 -6.514596e+00 -5.871576e+00 -5.792880e+00 -4.839481e+00 -4.729895e+00 -3.777112e+00 -3.756433e+00 -3.144247e+00 -3.404127e+00 -3.109953e+00 -3.046776e+00 -2.601022e+00 -1.844875e+00 -1.998120e+00 2.080419e-01 0 0 0 0 
0 0 0 0 0 3.324121e+00 5.906025e+00 4.608691e+00 8.107520e+00 6.343633e+00 1.005059e+01 7.877217e+00 1.161798e+01 6.798303e+00 -1.283854e+01 -2.533298e+01 -4.011524e+01 -5.531824e+01 -6.964759e+01 -8.255815e+01 -1.030466e+02 -1.058318e+02 -1.039027e+02 -1.043748e+02 -1.023008e+02 -1.017353e+02 -9.924569e+01 -9.841140e+01 -9.708100e+01 -9.729189e+01 -9.708329e+01 -9.720783e+01 -9.679498e+01 -9.618347e+01 -9.529508e+01 -9.383400e+01 -9.228835e+01 -9.015147e+01 -8.837365e+01 -8.630896e+01 -8.518639e+01 -8.431311e+01 -8.449738e+01 -8.441761e+01 -8.459697e+01 -8.415644e+01 -8.378305e+01 -8.263402e+01 -8.100819e+01 -7.829294e+01 -7.547206e+01 -7.313578e+01 -7.237249e+01 -7.288099e+01 -7.446317e+01 -7.620211e+01 -7.760722e+01 -7.912288e+01 -7.875340e+01 -7.555587e+01 -7.202937e+01 -6.914038e+01 -6.873193e+01 -7.062114e+01 -7.253311e+01 -7.340830e+01 -7.341319e+01 -7.197841e+01 -6.797415e+01 -6.392985e+01 -5.989072e+01 -5.586438e+01 -5.190289e+01 -5.031999e+01 -4.958747e+01 -5.029447e+01 -5.086708e+01 -5.164852e+01 -5.113734e+01 -5.021850e+01 -4.811105e+01 -4.588883e+01 -4.340618e+01 -4.145637e+01 -4.006473e+01 -3.919179e+01 -3.904127e+01 -3.888238e+01 -3.947863e+01 -3.937893e+01 -3.950811e+01 -3.785114e+01 -3.647310e+01 -3.371572e+01 -3.217693e+01 -2.973102e+01 -2.889058e+01 -2.755297e+01 -2.797051e+01 -2.781630e+01 -2.813819e+01 -2.699057e+01 -2.524481e+01 -2.286667e+01 -2.039226e+01 -1.909803e+01 -1.798280e+01 -1.878782e+01 -1.832767e+01 -1.916276e+01 -1.727112e+01 -1.703966e+01 -1.423528e+01 -1.391317e+01 -1.111099e+01 -1.105070e+01 -9.250859e+00 -1.001666e+01 -9.154004e+00 -8.974717e+00 -7.680806e+00 -5.456573e+00 -5.886223e+00 6.118450e-01 0 0 0 0 
0 0 0 0 0 2.295721e+00 4.076301e+00 3.179043e+00 5.598327e+00 4.380958e+00 6.940926e+00 5.438861e+00 8.021837e+00 9.461323e+00 -1.234389e+01 -1.171493e+01 -3.306484e+01 -3.228508e+01 -5.397768e+01 -5.270802e+01 -7.488465e+01 -7.312770e+01 -7.179427e+01 -7.212055e+01 -7.068694e+01 -7.029609e+01 -6.857532e+01 -6.799869e+01 -6.707919e+01 -6.722496e+01 -6.708080e+01 -6.716689e+01 -6.688156e+01 -6.645892e+01 -6.584492e+01 -6.483508e+01 -6.376684e+01 -6.228996e+01 -6.106127e+01 -5.963432e+01 -5.885850e+01 -5.825497e+01 -5.838231e+01 -5.832718e+01 -5.845113e+01 -5.814668e+01 -5.788863e+01 -5.709455e+01 -5.597096e+01 -5.409451e+01 -5.214507e+01 -5.053057e+01 -5.000309e+01 -5.035449e+01 -5.144788e+01 -5.264960e+01 -5.335246e+01 -5.123965e+01 -4.834036e+01 -4.644159e+01 -4.471743e+01 -4.317741e+01 -4.098104e+01 -3.811586e+01 -3.684472e+01 -3.821856e+01 -3.871831e+01 -3.802675e+01 -3.732442e+01 -3.598778e+01 -3.397184e+01 -3.414979e+01 -3.478189e+01 -3.476456e+01 -3.425841e+01 -3.474693e+01 -3.514260e+01 -3.568256e+01 -3.532936e+01 -3.469448e+01 -3.323834e+01 -3.170288e+01 -2.998753e+01 -2.864032e+01 -2.767880e+01 -2.707565e+01 -2.697164e+01 -2.686185e+01 -2.727379e+01 -2.720490e+01 -2.729414e+01 -2.614929e+01 -2.519719e+01 -2.329211e+01 -2.222897e+01 -2.053916e+01 -1.995855e+01 -1.903449e+01 -1.932302e+01 -1.921653e+01 -1.943898e+01 -1.864617e+01 -1.744006e+01 -1.579713e+01 -1.408759e+01 -1.319345e+01 -1.242292e+01 -1.297898e+01 -1.266102e+01 -1.323788e+01 -1.193102e+01 -1.177114e+01 -9.833862e+00 -9.611460e+00 -7.675894e+00 -7.634505e+00 -6.391592e+00 -6.921277e+00 -6.326633e+00 -6.205951e+00 -5.320474e+00 -3.783938e+00 -4.070510e+00 4.226159e-01 0 0 0 0 
0 0 0 0 0 1.021107e-01 1.806620e-01 1.404261e-01 2.487706e-01 1.948307e-01 3.086573e-01 2.415729e-01 3.563366e-01 3.769866e+00 -4.172195e+00 4.655269e+00 -6.769373e+00 4.308437e+00 -7.848138e+00 2.077783e+00 -5.973373e+00 -3.262179e+00 -3.202583e+00 -3.217151e+00 -3.153078e+00 -3.135607e+00 -3.058722e+00 -3.032959e+00 -2.991886e+00 -2.998401e+00 -2.991965e+00 -2.995814e+00 -2.983070e+00 -2.964190e+00 -2.936764e+00 -2.891652e+00 -2.843939e+00 -2.777971e+00 -2.723097e+00 -2.659367e+00 -2.624721e+00 -2.597769e+00 -2.603453e+00 -2.600991e+00 -2.606526e+00 -2.592931e+00 -2.581409e+00 -2.545953e+00 -2.495785e+00 -2.412012e+00 -2.324981e+00 -2.252913e+00 -2.229367e+00 -2.245053e+00 -2.293863e+00 -2.347506e+00 -2.089780e+00 1.805501e+00 5.094331e+00 4.850114e+00 5.290521e+00 5.559804e+00 6.502217e+00 8.870616e+00 9.829510e+00 8.585723e+00 7.941926e+00 7.629392e+00 5.987399e+00 4.784971e+00 4.677596e+00 2.597719e+00 -4.969047e-01 -1.549411e+00 -1.526836e+00 -1.548628e+00 -1.566277e+00 -1.590367e+00 -1.574616e+00 -1.546298e+00 -1.481358e+00 -1.412874e+00 -1.336382e+00 -1.276301e+00 -1.233429e+00 -1.206531e+00 -1.201891e+00 -1.196992e+00 -1.215355e+00 -1.212280e+00 -1.216257e+00 -1.165207e+00 -1.122759e+00 -1.037830e+00 -9.904390e-01 -9.151257e-01 -8.892535e-01 -8.480833e-01 -8.609596e-01 -8.562264e-01 -8.661564e-01 -8.308340e-01 -7.770726e-01 -7.038650e-01 -6.276614e-01 -5.878108e-01 -5.534581e-01 -5.782132e-01 -5.640276e-01 -5.897187e-01 -5.314774e-01 -5.243585e-01 -4.380637e-01 -4.281856e-01 -3.420150e-01 -3.402372e-01 -2.849803e-01 -3.087441e-01 -2.825813e-01 -2.780109e-01 -2.406909e-01 -1.722399e-01 -1.824072e-01 1.881276e-02 0 0 0 0 
0 0 0 0 0 0 0 0 0 0 0 0 0 2.113828e+00 -6.395057e-01 2.101092e+00 -1.643683e+00 1.732660e+00 -2.101769e+00 7.270368e-01 -2.167939e+00 0 0 0 0 0 0 0 0 0 0 0 0 0 0 0 0 0 0 0 0 0 0 0 0 0 0 0 0 0 0 0 0 0 0 0 8.637115e-02 1.312000e+00 2.054265e+00 1.393648e+00 1.467465e+00 1.476242e+00 1.187533e+00 1.178640e+00 7.420460e-01 2.616392e-01 3.141205e-02 -3.272278e-01 -4.999323e-01 -6.485708e-01 -7.810856e-01 -4.026878e-01 -4.439235e-02 0 0 0 0 0 0 0 0 0 0 0 0 0 0 0 0 0 0 0 0 0 0 0 0 0 0 0 0 0 0 0 0 0 0 0 0 0 0 0 0 0 0 0 0 0 0 0 0 0 0 0 0 0 0 0 
0 0 0 0 0 0 0 0 0 0 0 0 0 1.027575e+00 -6.246989e-01 1.319269e+00 -1.230117e+00 1.265474e+00 -1.365937e+00 6.699877e-01 -1.115572e+00 0 0 0 0 0 0 0 0 0 0 0 0 0 0 0 0 0 0 0 0 0 0 0 0 0 0 0 0 0 0 0 0 0 0 0 1.287892e-01 1.106101e+00 1.590665e+00 1.082497e+00 1.039470e+00 8.741237e-01 7.261718e-01 1.446252e+00 1.687761e+00 1.338650e+00 1.530194e+00 1.448493e+00 1.146142e+00 1.080633e+00 8.886046e-01 3.536017e-01 -7.446287e-03 0 0 0 0 0 0 0 0 0 0 0 0 0 0 0 0 0 0 0 0 0 0 0 0 0 0 0 0 0 0 0 0 0 0 0 0 0 0 0 0 0 0 0 0 0 0 0 0 0 0 0 0 0 0 0 
0 0 0 0 0 0 0 0 0 0 0 0 0 -3.522763e-02 -2.367836e-02 -3.266650e-02 -3.182143e-02 -4.218115e-02 -5.099111e-02 -6.157186e-02 -7.381541e-02 0 0 0 0 0 0 0 0 0 0 0 0 0 0 0 0 0 0 0 0 0 0 0 0 0 0 0 0 0 0 0 0 0 0 0 1.093199e-01 9.665204e-01 1.466602e+00 1.207524e+00 1.413482e+00 1.466367e+00 1.284115e+00 1.490182e+00 1.485293e+00 1.233240e+00 1.347097e+00 1.364290e+00 1.070106e+00 9.554277e-01 1.225329e+00 8.336306e-01 1.158389e-01 0 0 0 0 0 0 0 0 0 0 0 0 0 0 0 0 0 0 0 0 0 0 0 0 0 0 0 0 0 0 0 0 0 0 0 0 0 0 0 0 0 0 0 0 0 0 0 0 0 0 0 0 0 0 0 
0 0 0 0 0 0 0 0 0 0 0 0 0 -1.056598e+00 6.157434e-01 -1.344404e+00 1.195654e+00 -1.314805e+00 1.281018e+00 -7.677380e-01 9.560911e-01 0 0 0 0 0 0 0 0 0 0 0 0 0 0 0 0 0 0 0 0 0 0 0 0 0 0 0 0 0 0 0 0 0 0 0 9.929431e-03 8.740969e-02 1.260045e-01 8.953048e-02 9.228887e-02 9.450787e-02 8.238741e-02 8.552267e-02 8.629072e-02 7.722125e-02 7.952394e-02 7.080059e-02 3.161645e-02 9.135876e-03 4.418596e-02 4.400797e-02 5.909101e-03 0 0 0 0 0 0 0 0 0 0 0 0 0 0 0 0 0 0 0 0 0 0 0 0 0 0 0 0 0 0 0 0 0 0 0 0 0 0 0 0 0 0 0 0 0 0 0 0 0 0 0 0 0 0 0 
0 0 0 0 0 0 0 0 0 0 0 0 0 -2.155834e+00 6.300273e-01 -2.118002e+00 1.624147e+00 -1.777516e+00 2.015249e+00 -8.498694e-01 1.974933e+00 0 0 0 0 0 0 0 0 0 0 0 0 0 0 0 0 0 0 0 0 0 0 0 0 0 0 0 0 0 0 0 0 0 0 0 0 0 0 0 0 0 0 0 0 0 0 0 0 0 0 0 0 0 0 0 0 0 0 0 0 0 0 0 0 0 0 0 0 0 0 0 0 0 0 0 0 0 0 0 0 0 0 0 0 0 0 0 0 0 0 0 0 0 0 0 0 0 0 0 0 0 0 0 0 0 0 0 
0 0 0 0 0 -1.022933e-01 -1.813709e-01 -1.401241e-01 -2.446798e-01 -1.867892e-01 -2.980448e-01 -2.293772e-01 -3.435311e-01 -3.591139e+00 4.254467e+00 -4.563351e+00 6.838617e+00 -4.252850e+00 7.873919e+00 -2.094878e+00 5.826276e+00 3.304582e+00 3.228556e+00 3.201463e+00 3.100447e+00 3.082246e+00 3.046846e+00 3.075748e+00 3.069520e+00 3.074332e+00 3.040239e+00 3.003323e+00 2.950203e+00 2.898627e+00 2.864309e+00 2.843639e+00 2.847248e+00 2.833197e+00 2.812126e+00 2.746245e+00 2.672413e+00 2.579190e+00 2.525249e+00 2.506285e+00 2.550330e+00 2.609998e+00 2.663536e+00 2.664088e+00 2.615552e+00 2.521695e+00 2.409712e+00 2.301494e+00 2.220228e+00 2.179714e+00 2.175875e+00 2.194586e+00 2.210676e+00 2.212394e+00 2.193577e+00 2.160321e+00 2.113203e+00 2.059508e+00 2.001776e+00 1.944885e+00 1.885403e+00 1.830476e+00 1.785360e+00 1.765286e+00 1.759893e+00 1.765721e+00 1.757283e+00 1.747491e+00 1.726392e+00 1.717229e+00 1.692709e+00 1.668187e+00 1.617223e+00 1.569189e+00 1.503249e+00 1.448024e+00 1.386625e+00 1.348472e+00 1.325656e+00 1.330036e+00 1.346945e+00 1.360261e+00 1.360011e+00 1.314500e+00 1.245797e+00 1.138237e+00 1.062167e+00 9.918716e-01 9.873586e-01 9.759664e-01 1.010063e+00 1.008977e+00 1.031246e+00 9.944614e-01 9.585381e-01 8.741891e-01 8.167252e-01 7.638569e-01 7.461762e-01 7.372897e-01 7.175019e-01 6.978094e-01 6.386727e-01 6.098908e-01 5.473026e-01 5.584443e-01 5.236537e-01 5.528877e-01 4.892291e-01 4.811058e-01 3.842050e-01 3.603549e-01 2.703122e-01 2.532642e-01 2.004643e-01 1.999541e-01 1.952110e-01 1.602004e-01 1.828393e-01 -1.852634e-02 0 0 0 0 
0 0 0 0 0 -2.299830e+00 -4.092266e+00 -3.172289e+00 -5.506441e+00 -4.200361e+00 -6.702530e+00 -5.164941e+00 -7.734180e+00 -9.078358e+00 1.266457e+01 1.205616e+01 3.339473e+01 3.265107e+01 5.434202e+01 5.308195e+01 7.520573e+01 7.407673e+01 7.237569e+01 7.176940e+01 6.950894e+01 6.910179e+01 6.830951e+01 6.895646e+01 6.881702e+01 6.892465e+01 6.816139e+01 6.733502e+01 6.614576e+01 6.499122e+01 6.422289e+01 6.376017e+01 6.384105e+01 6.352653e+01 6.305477e+01 6.157975e+01 5.992648e+01 5.783889e+01 5.663090e+01 5.620615e+01 5.719258e+01 5.852887e+01 5.972775e+01 5.974010e+01 5.865321e+01 5.655114e+01 5.404303e+01 5.161886e+01 4.979838e+01 4.889071e+01 4.880471e+01 4.922392e+01 4.958440e+01 4.962289e+01 4.920133e+01 4.845624e+01 4.740054e+01 4.619741e+01 4.490377e+01 4.362886e+01 4.229586e+01 4.106483e+01 4.005368e+01 3.960375e+01 3.948288e+01 3.961352e+01 3.942439e+01 3.920490e+01 3.873196e+01 3.852656e+01 3.797691e+01 3.742721e+01 3.628466e+01 3.520781e+01 3.372936e+01 3.249118e+01 3.111435e+01 3.025886e+01 2.974718e+01 2.984537e+01 3.022458e+01 3.052316e+01 3.051759e+01 2.949717e+01 2.795641e+01 2.554428e+01 2.383811e+01 2.226132e+01 2.216010e+01 2.190446e+01 2.266915e+01 2.264461e+01 2.314384e+01 2.231834e+01 2.151225e+01 1.961939e+01 1.833012e+01 1.714356e+01 1.674679e+01 1.654741e+01 1.610361e+01 1.566190e+01 1.433542e+01 1.368983e+01 1.228572e+01 1.253610e+01 1.175543e+01 1.241138e+01 1.098225e+01 1.079920e+01 8.622857e+00 8.086064e+00 6.062143e+00 5.675941e+00 4.482981e+00 4.453718e+00 4.299816e+00 3.513624e+00 4.080330e+00 -4.161792e-01 0 0 0 0 
0 0 0 0 0 -3.330072e+00 -5.929148e+00 -4.598920e+00 -7.974494e+00 -6.082186e+00 -9.705450e+00 -7.480660e+00 -1.120152e+01 -6.422870e+00 1.308770e+01 2.549183e+01 4.024252e+01 5.557825e+01 7.006397e+01 8.328158e+01 1.041929e+02 1.072049e+02 1.047439e+02 1.038668e+02 1.005964e+02 1.000074e+02 9.886111e+01 9.979714e+01 9.959539e+01 9.975109e+01 9.864674e+01 9.745110e+01 9.573037e+01 9.405991e+01 9.294821e+01 9.227871e+01 9.239576e+01 9.194070e+01 9.125810e+01 8.912389e+01 8.673171e+01 8.371106e+01 8.196314e+01 8.134853e+01 8.277587e+01 8.470945e+01 8.644417e+01 8.646204e+01 8.488935e+01 8.184768e+01 7.821846e+01 7.471059e+01 7.207628e+01 7.076281e+01 7.063836e+01 7.124499e+01 7.176663e+01 7.182233e+01 7.121231e+01 7.013409e+01 6.860641e+01 6.686535e+01 6.499331e+01 6.314834e+01 6.121930e+01 5.943779e+01 5.797449e+01 5.732335e+01 5.714844e+01 5.733750e+01 5.706379e+01 5.674615e+01 5.606171e+01 5.576444e+01 5.496899e+01 5.417345e+01 5.251991e+01 5.096146e+01 4.882174e+01 4.702977e+01 4.503708e+01 4.379894e+01 4.305836e+01 4.320047e+01 4.374931e+01 4.418144e+01 4.417339e+01 4.269657e+01 4.046658e+01 3.697545e+01 3.450600e+01 3.222380e+01 3.207730e+01 3.170726e+01 3.281404e+01 3.277847e+01 3.350096e+01 3.230605e+01 3.113927e+01 2.839937e+01 2.653322e+01 2.481565e+01 2.424133e+01 2.395275e+01 2.331041e+01 2.267109e+01 2.075118e+01 1.981676e+01 1.778443e+01 1.814694e+01 1.701695e+01 1.796641e+01 1.589761e+01 1.563246e+01 1.248176e+01 1.170436e+01 8.773911e+00 8.213964e+00 6.485112e+00 6.438227e+00 6.203398e+00 5.065261e+00 5.900468e+00 -6.025257e-01 0 0 0 0 
0 0 0 0 0 -1.132536e+00 -2.018253e+00 -1.566755e+00 -2.712733e+00 -2.068613e+00 -3.300965e+00 -2.545096e+00 -3.810876e+00 -2.186377e+00 4.448050e+00 8.664996e+00 1.367919e+01 1.889104e+01 2.381395e+01 2.830481e+01 3.540924e+01 3.643274e+01 3.559680e+01 3.529883e+01 3.418791e+01 3.398785e+01 3.359844e+01 3.391643e+01 3.384789e+01 3.390077e+01 3.352559e+01 3.311940e+01 3.253481e+01 3.196731e+01 3.158963e+01 3.136218e+01 3.140196e+01 3.124736e+01 3.101546e+01 3.029039e+01 2.947764e+01 2.845136e+01 2.785749e+01 2.764866e+01 2.813362e+01 2.879058e+01 2.937996e+01 2.938603e+01 2.885169e+01 2.781824e+01 2.658514e+01 2.539322e+01 2.449812e+01 2.405181e+01 2.400953e+01 2.421566e+01 2.439291e+01 2.441184e+01 2.420456e+01 2.383818e+01 2.331907e+01 2.272745e+01 2.209132e+01 2.146437e+01 2.080884e+01 2.020344e+01 1.970617e+01 1.948489e+01 1.942545e+01 1.948970e+01 1.939668e+01 1.928874e+01 1.905614e+01 1.895512e+01 1.868479e+01 1.841443e+01 1.785247e+01 1.732283e+01 1.659563e+01 1.598661e+01 1.530935e+01 1.488855e+01 1.463684e+01 1.468513e+01 1.487167e+01 1.501854e+01 1.501581e+01 1.451390e+01 1.375597e+01 1.256941e+01 1.173007e+01 1.095435e+01 1.090456e+01 1.077877e+01 1.115495e+01 1.114283e+01 1.138837e+01 1.098218e+01 1.058556e+01 9.654167e+00 9.019830e+00 8.435950e+00 8.240720e+00 8.142624e+00 7.924302e+00 7.707001e+00 7.054429e+00 6.736826e+00 6.046017e+00 6.169290e+00 5.785173e+00 6.107920e+00 5.404590e+00 5.314362e+00 4.243107e+00 3.978646e+00 2.982080e+00 2.791288e+00 2.202595e+00 2.184464e+00 2.098793e+00 1.711837e+00 2.002977e+00 -2.048728e-01 0 0 0 0 
0 0 0 0 0 0 0 0 0 0 0 0 0 0 0 0 0 0 0 0 0 0 0 0 0 0 0 0 0 0 0 0 0 0 0 0 0 0 0 0 0 0 0 0 0 0 0 0 0 0 0 0 0 0 0 0 0 0 0 0 0 0 0 0 0 0 0 0 0 0 0 0 0 0 0 0 0 0 0 0 0 0 0 0 0 0 0 0 0 0 0 0 0 0 0 0 0 0 0 0 0 0 0 0 0 0 0 0 0 0 0 0 0 0 0 0 0 0 0 0 0 0 0 0 0 0 0 0 
