# vtk DataFile Version 2.0
Comment goes here
ASCII

DATASET STRUCTURED_POINTS
FIELD FieldData 1
TIME 1 1 double
0.75000000
DIMENSIONS    128   16   1

ORIGIN    0.000   0.000   0.000
SPACING   0.0078125 0.015625   1.000

POINT_DATA   2048
SCALARS Omega double
LOOKUP_TABLE default

-1.960184e-07 -5.590704e-06 -1.078243e-05 -1.129586e-05 1.079480e-06 9.015236e-06 -2.077574e-05 -6.150189e-05 -7.678971e-06 -2.304252e-05 7.772845e-06 3.719542e-06 5.735538e-05 -3.932480e-05 -4.776915e-06 2.463583e-05 -6.662164e-05 5.773628e-05 -5.817346e-05 -3.012835e-06 2.242016e-04 -8.538258e-07 -9.059002e-05 -7.189245e-05 -1.093474e-04 -1.163491e-04 -1.642117e-04 -1.694806e-04 -2.289866e-04 -2.361118e-04 -3.181712e-04 -3.314061e-04 -4.447446e-04 -4.690113e-04 -6.217994e-04 -6.632846e-04 -8.620444e-04 -9.274698e-04 -1.175030e-03 -1.269139e-03 -1.562339e-03 -1.683973e-03 -2.011318e-03 -2.154463e-03 -2.500112e-03 -2.671497e-03 -3.052240e-03 -3.355628e-03 -3.985444e-03 -4.934783e-03 -6.815872e-03 -1.016951e-02 -1.535985e-02 -2.137553e-02 -3.110597e-02 -6.948712e-02 -1.674969e-01 -2.108347e-01 -1.061459e-01 -4.920148e-02 -8.032628e-02 -1.234152e-01 -2.348679e-01 -3.037989e-01 -2.204631e-01 -1.082465e-01 -4.502361e-02 6.247235e-02 1.972814e-01 2.332627e-01 2.780271e-01 3.782158e-01 3.390704e-01 1.919987e-01 9.000658e-02 4.864228e-02 3.011365e-02 1.808541e-02 9.653675e-03 4.399252e-03 1.246610e-03 -4.996458e-04 -1.347273e-03 -1.716402e-03 -1.669816e-03 -1.571118e-03 -1.260716e-03 -1.087868e-03 -7.781915e-04 -6.635993e-04 -4.301843e-04 -3.849056e-04 -2.248916e-04 -2.237976e-04 -1.153526e-04 -1.350486e-04 -5.919203e-05 -8.558923e-05 -3.032406e-05 -5.621060e-05 -1.530135e-05 -3.768289e-05 -7.808979e-06 -2.553143e-05 -4.691534e-06 -1.741413e-05 -4.694834e-06 -1.247716e-05 -7.182504e-06 -9.575265e-06 -1.093275e-05 -7.328207e-06 -1.462419e-05 -3.997848e-06 -1.641175e-05 2.080086e-06 -1.494752e-05 1.188846e-05 -9.702769e-06 2.592783e-05 1.117715e-06 6.437212e-05 -8.664717e-06 8.719211e-08 1.667096e-05 1.543757e-05 8.939760e-06 3.956091e-06 
-6.310204e-03 -4.668184e-03 -1.338595e-02 -4.127469e-02 9.738563e-02 9.017045e-01 -1.072727e-01 -2.842436e-01 1.685488e-01 -2.115816e-02 8.929405e-02 -2.216870e-01 -1.303577e-02 2.792554e-01 3.239489e-01 1.622536e-02 4.111560e-01 1.766399e-01 2.952462e-01 4.269769e-01 2.157293e-01 -7.703501e-02 -1.338948e-01 5.047371e-02 6.311047e-02 8.790004e-02 5.926855e-02 8.524310e-02 5.624405e-02 8.468726e-02 5.425333e-02 8.373679e-02 5.306552e-02 8.230903e-02 5.270377e-02 8.033520e-02 5.304330e-02 7.778548e-02 5.388707e-02 7.471946e-02 5.501520e-02 7.118988e-02 5.626094e-02 6.727203e-02 5.754078e-02 6.307238e-02 5.890757e-02 5.878197e-02 6.033618e-02 5.427598e-02 6.043875e-02 4.724486e-02 5.643040e-02 3.270557e-02 -3.667966e-02 -4.544766e-01 -1.078068e+00 -1.090312e+00 -2.988058e-01 -3.629303e-01 -9.398799e-01 -9.537372e-01 -1.162426e+00 -1.647446e+00 -1.494078e+00 -1.001575e+00 -8.802471e-01 -4.337615e-01 5.796860e-01 6.937710e-01 8.056498e-01 1.699805e+00 1.675229e+00 9.078508e-01 3.593448e-01 1.109469e-01 5.307109e-02 5.363404e-02 4.481671e-02 5.169844e-02 4.641824e-02 5.378240e-02 5.052611e-02 5.641793e-02 5.450113e-02 5.843924e-02 5.762745e-02 5.977978e-02 5.976802e-02 6.068330e-02 6.096408e-02 6.152489e-02 6.127487e-02 6.260835e-02 6.079201e-02 6.410803e-02 5.963556e-02 6.602913e-02 5.792881e-02 6.828706e-02 5.585549e-02 7.069855e-02 5.371624e-02 7.294736e-02 5.192831e-02 7.462429e-02 5.096718e-02 7.523011e-02 5.135342e-02 7.428061e-02 5.361220e-02 7.142780e-02 5.831459e-02 6.666810e-02 6.614717e-02 6.058710e-02 7.820706e-02 5.457171e-02 9.683059e-02 5.205443e-02 1.505239e-01 -7.786409e-03 1.506147e-01 1.734045e-01 -2.242738e-02 -1.636342e-02 -9.178171e-03 -7.870636e-03 
5.845132e-04 4.311313e-03 -6.589206e-02 -3.544308e-01 2.114458e-03 2.695606e+00 -5.383366e-01 -9.951883e-01 2.849263e-01 -2.082680e-01 1.233304e-01 -2.798704e-01 9.616361e-01 1.001009e-02 3.337352e-01 3.404822e-02 3.082946e-01 -1.561542e-02 2.998340e-01 1.619062e-03 2.950687e-01 7.588824e-01 -1.055058e-01 -6.669274e-02 -9.089972e-04 4.807403e-03 6.935455e-04 1.464456e-02 -1.146242e-02 2.466298e-02 -2.081332e-02 3.508587e-02 -2.889331e-02 4.060521e-02 -3.705889e-02 4.170099e-02 -4.172761e-02 4.109260e-02 -4.019723e-02 4.051930e-02 -3.307659e-02 3.740620e-02 -2.458889e-02 2.969259e-02 -1.576147e-02 1.902807e-02 -4.282859e-03 1.214323e-02 1.792015e-02 1.858948e-02 5.452289e-02 4.209974e-02 1.121898e-01 9.672344e-02 9.736903e-02 -4.530498e-01 -1.228789e+00 -1.432330e+00 -4.840458e-01 -4.437956e-01 -9.304949e-01 -5.736290e-01 3.248358e-01 4.528235e-01 1.421059e-01 2.291329e-01 -4.068301e-03 -3.499626e-01 4.708925e-02 -2.936499e-01 -7.034683e-01 2.130670e-03 2.301549e-01 2.205715e-01 1.095376e-01 -5.246279e-02 -1.137109e-01 -6.158358e-02 -7.466825e-02 -3.734443e-02 -4.794817e-02 -2.728704e-02 -2.858351e-02 -2.382169e-02 -1.307563e-02 -2.317481e-02 -4.074860e-05 -2.382836e-02 8.291390e-03 -2.633156e-02 1.092363e-02 -2.830571e-02 8.067525e-03 -2.760337e-02 2.286659e-03 -1.874721e-02 -3.001641e-03 -3.522060e-03 -1.331513e-02 1.171303e-02 -2.957209e-02 2.654032e-02 -4.888539e-02 3.975786e-02 -6.660198e-02 5.278750e-02 -7.631236e-02 6.359862e-02 -7.685848e-02 6.600915e-02 -6.953531e-02 5.323568e-02 -5.461236e-02 2.511257e-02 -2.508662e-02 -1.355356e-02 2.378246e-02 -6.248363e-02 1.015588e-01 -1.205935e-01 2.656985e-01 -5.498676e-01 7.466867e-01 4.289338e-01 -8.899974e-01 -1.499799e-01 7.497593e-03 3.651460e-03 
1.833488e-02 1.794809e-02 -1.404703e-01 -9.150264e-01 -1.004982e+00 1.757352e+00 2.302145e-02 -4.173709e-01 1.686997e-02 -1.278938e-01 -3.887207e-02 -1.028625e-02 -6.251949e-01 -2.748466e-01 -3.322782e-01 -2.643532e-01 -3.481967e-01 -2.673384e-01 -3.184063e-01 -3.239207e-01 -2.357852e-01 -7.097412e-01 5.576185e-02 -1.883822e-01 -4.853937e-03 -1.890922e-01 -2.070477e-02 -1.625642e-01 -4.160236e-02 -1.345503e-01 -5.853086e-02 -1.017454e-01 -7.672381e-02 -7.917751e-02 -1.004963e-01 -6.523221e-02 -1.187875e-01 -5.209637e-02 -1.226395e-01 -3.548586e-02 -1.126425e-01 -2.368420e-02 -1.003861e-01 -2.358153e-02 -8.864900e-02 -3.145968e-02 -7.170895e-02 -3.019200e-02 -2.846170e-02 2.840230e-03 4.804013e-02 6.868063e-02 1.592493e-01 1.963194e-01 4.175207e-01 7.929996e-01 1.520617e+00 1.552483e+00 1.098104e+00 1.041188e+00 1.520244e+00 1.212339e+00 7.779853e-01 8.185220e-01 8.161807e-01 5.606359e-01 5.178956e-01 4.108682e-01 -2.554625e-01 -1.869652e-01 -2.031332e-01 -9.843383e-01 -1.342697e+00 -8.321043e-01 -4.888408e-01 -1.975850e-01 -1.987008e-01 -1.257178e-01 -1.462519e-01 -1.083062e-01 -1.140780e-01 -1.091115e-01 -9.037081e-02 -1.166618e-01 -6.848130e-02 -1.243910e-01 -4.645227e-02 -1.315492e-01 -3.224712e-02 -1.426137e-01 -2.954598e-02 -1.530910e-01 -3.790539e-02 -1.582992e-01 -5.014070e-02 -1.428383e-01 -5.689783e-02 -1.115680e-01 -7.525477e-02 -8.230129e-02 -1.092113e-01 -5.475435e-02 -1.523821e-01 -3.007071e-02 -1.939443e-01 -1.087899e-03 -2.182301e-01 2.977970e-02 -2.251692e-01 4.780572e-02 -2.216638e-01 3.572174e-02 -2.113911e-01 -6.090782e-03 -1.765302e-01 -6.585062e-02 -1.086612e-01 -1.522243e-01 -2.415033e-03 -2.928878e-01 1.778969e-01 -7.625101e-01 1.948237e+00 6.325924e-02 -2.611915e+00 -3.861222e-01 5.906719e-02 3.756478e-02 
1.707107e-02 3.610943e-02 -2.471217e-03 -5.241701e-01 -1.374179e+00 -1.926811e+00 5.967520e-01 7.132514e-01 -4.866311e-01 -4.751977e-03 -4.721980e-01 -1.237874e-01 -2.982424e-01 -1.066897e-01 -3.938278e-01 -1.708465e-01 -3.515633e-01 -2.093693e-01 -3.021273e-01 -2.710574e-01 -2.506529e-01 -1.966398e-01 -1.298828e-01 -3.363445e-01 -9.818293e-02 -3.088385e-01 -1.100417e-01 -2.991314e-01 -1.255358e-01 -2.841036e-01 -1.371309e-01 -2.623187e-01 -1.502693e-01 -2.446656e-01 -1.684613e-01 -2.304214e-01 -1.841441e-01 -2.146174e-01 -1.908864e-01 -1.948306e-01 -1.886431e-01 -1.770875e-01 -1.850327e-01 -1.663295e-01 -1.816995e-01 -1.600650e-01 -1.747156e-01 -1.467852e-01 -1.497068e-01 -1.121666e-01 -1.030244e-01 -5.933597e-02 -3.819670e-02 1.281257e-02 3.071440e-02 2.089365e-02 -1.065414e-01 -9.969714e-02 4.569511e-02 -9.179874e-02 -3.446985e-01 -1.877035e-01 -2.361237e-01 -3.801543e-01 -3.776354e-01 -2.522013e-01 -2.853201e-01 -1.177368e-01 2.052268e-01 2.148369e-01 1.804475e-01 8.949297e-01 1.126644e+00 4.964375e-01 -9.764387e-02 -2.119063e-01 -2.391294e-01 -2.183888e-01 -2.203425e-01 -2.181551e-01 -2.082066e-01 -2.223629e-01 -1.965242e-01 -2.273101e-01 -1.839489e-01 -2.315460e-01 -1.702380e-01 -2.358100e-01 -1.610148e-01 -2.437481e-01 -1.586306e-01 -2.526981e-01 -1.625063e-01 -2.596311e-01 -1.676459e-01 -2.538105e-01 -1.678213e-01 -2.381384e-01 -1.752126e-01 -2.243482e-01 -1.931579e-01 -2.114851e-01 -2.181692e-01 -1.992729e-01 -2.439644e-01 -1.815005e-01 -2.610037e-01 -1.584147e-01 -2.705449e-01 -1.388761e-01 -2.784787e-01 -1.338470e-01 -2.882075e-01 -1.426434e-01 -2.876559e-01 -1.570686e-01 -2.703476e-01 -1.817897e-01 -2.303128e-01 -2.221609e-01 -1.446471e-01 -6.183765e-02 1.186461e+00 -9.645249e-01 -2.228085e+00 -3.857098e-01 2.629479e-02 2.581411e-02 
1.322557e-03 1.613902e-02 4.434984e-02 4.287491e-04 -4.932864e-01 -1.928676e+00 1.358273e-01 3.636076e-01 -4.700073e-01 -8.941273e-02 -3.882040e-01 -2.367483e-01 2.419699e-01 6.284813e-02 -5.480051e-02 -4.522235e-02 -5.257544e-02 -4.908903e-02 -4.770375e-02 -5.458557e-02 1.394147e-01 2.332310e-01 -3.494292e-01 -3.163392e-01 -1.942662e-01 -2.436282e-01 -1.835056e-01 -2.453636e-01 -1.857740e-01 -2.476939e-01 -1.887398e-01 -2.483686e-01 -1.919285e-01 -2.472659e-01 -1.953811e-01 -2.446098e-01 -1.989388e-01 -2.406776e-01 -2.024321e-01 -2.359264e-01 -2.058913e-01 -2.310783e-01 -2.097919e-01 -2.268127e-01 -2.145314e-01 -2.235470e-01 -2.205560e-01 -2.214865e-01 -2.278835e-01 -2.209382e-01 -2.366309e-01 -2.210420e-01 -2.360737e-01 -2.004605e-01 -3.165451e-01 -9.627335e-01 -2.077141e+00 -2.148369e+00 -1.301557e+00 -8.766930e-01 -1.353950e+00 -1.285887e+00 -4.219896e-01 -1.266740e-01 -5.324939e-01 -3.203382e-01 -3.798463e-01 -6.974953e-01 -3.621356e-01 -5.047689e-01 -7.738094e-01 -7.707556e-01 -7.932853e-01 -2.129611e-01 1.240558e-01 -1.363763e-01 -2.311096e-01 -2.656301e-01 -2.609417e-01 -2.677982e-01 -2.550188e-01 -2.576806e-01 -2.448759e-01 -2.469763e-01 -2.360524e-01 -2.388865e-01 -2.294858e-01 -2.337905e-01 -2.248897e-01 -2.313922e-01 -2.215722e-01 -2.311091e-01 -2.188252e-01 -2.323846e-01 -2.160490e-01 -2.343103e-01 -2.128724e-01 -2.365328e-01 -2.099288e-01 -2.391215e-01 -2.076098e-01 -2.415459e-01 -2.062200e-01 -2.431886e-01 -2.060824e-01 -2.430884e-01 -2.074139e-01 -2.405184e-01 -2.109099e-01 -2.351896e-01 -2.173106e-01 -2.270186e-01 -2.269287e-01 -2.154219e-01 -2.385433e-01 -1.988912e-01 -2.492841e-01 -1.736301e-01 -2.514241e-01 -1.243663e-01 -2.468367e-01 8.764184e-02 -3.392002e-01 -8.622627e-01 -3.758427e-01 -2.261878e-02 1.630839e-02 2.682140e-03 
-3.285477e-03 2.768429e-03 1.403808e-02 2.992024e-02 -3.164112e-03 -1.928533e-01 -1.153163e-01 -6.768189e-02 -9.960608e-02 -3.442216e-02 -7.714593e-02 -2.975715e-01 1.104246e-01 1.783506e-01 -4.629145e-03 -4.535397e-03 -4.838535e-03 -4.687956e-03 -4.644498e-03 -4.470774e-03 2.786389e-01 1.950946e-01 -5.145433e-01 -2.520095e-01 -1.178745e-01 -9.237023e-02 -7.798974e-02 -7.857905e-02 -7.083164e-02 -7.496571e-02 -6.999059e-02 -7.500946e-02 -7.104379e-02 -7.572325e-02 -7.234523e-02 -7.636875e-02 -7.362245e-02 -7.697532e-02 -7.501813e-02 -7.781146e-02 -7.681776e-02 -7.924233e-02 -7.939385e-02 -8.168575e-02 -8.314124e-02 -8.548437e-02 -8.825065e-02 -9.052350e-02 -9.408313e-02 -9.530009e-02 -9.761226e-02 -9.322006e-02 -8.157508e-02 -4.795120e-02 -4.901753e-02 -3.024726e-01 -3.946865e-01 4.151640e-02 1.152025e-01 1.211229e-02 8.020558e-03 -2.022605e-01 -3.381382e-01 -3.695030e-01 -4.330945e-01 -4.829366e-01 -4.610536e-01 -3.357809e-01 -4.577269e-01 -4.381528e-01 -3.608600e-03 -6.213972e-01 -1.505383e+00 -9.901684e-01 -1.904232e-01 5.320360e-03 -1.712954e-02 -5.504178e-02 -7.658788e-02 -8.832732e-02 -9.289221e-02 -9.433326e-02 -9.323733e-02 -9.127818e-02 -8.892191e-02 -8.635964e-02 -8.432393e-02 -8.212239e-02 -8.073387e-02 -7.913190e-02 -7.823495e-02 -7.725806e-02 -7.654915e-02 -7.620825e-02 -7.537772e-02 -7.571737e-02 -7.450228e-02 -7.558831e-02 -7.378899e-02 -7.568290e-02 -7.317132e-02 -7.589625e-02 -7.263551e-02 -7.613550e-02 -7.220180e-02 -7.630866e-02 -7.190477e-02 -7.630979e-02 -7.176474e-02 -7.598950e-02 -7.171733e-02 -7.507139e-02 -7.146627e-02 -7.296490e-02 -7.019278e-02 -6.843835e-02 -6.616682e-02 -5.934008e-02 -5.661934e-02 -4.348005e-02 -4.779392e-02 -5.796862e-02 -1.291068e-01 -9.472721e-02 -1.744593e-02 5.300803e-05 -5.399312e-03 -6.364906e-03 
-2.985885e-03 -1.554694e-03 4.304952e-04 4.097915e-03 7.102428e-03 -2.279003e-03 -8.095000e-03 -2.700939e-03 8.700098e-03 2.928460e-02 2.150537e-02 -1.149095e-01 4.517651e-02 6.547714e-02 -1.364673e-03 -1.473058e-03 -1.473376e-03 -1.473290e-03 -1.472928e-03 -1.240344e-03 1.470373e-01 1.052608e-01 -2.599766e-01 -1.141938e-01 -4.316172e-02 -2.443643e-02 -1.649940e-02 -1.178195e-02 -8.440548e-03 -6.961025e-03 -5.975092e-03 -5.834215e-03 -5.672256e-03 -5.908496e-03 -6.018576e-03 -6.346088e-03 -6.589976e-03 -6.973231e-03 -7.364328e-03 -7.861370e-03 -8.467668e-03 -9.162963e-03 -1.004568e-02 -1.097177e-02 -1.207015e-02 -1.303245e-02 -1.391120e-02 -1.414102e-02 -1.355175e-02 -1.120823e-02 -6.521349e-03 2.529334e-03 1.859904e-02 3.705961e-02 -6.808037e-03 -2.492066e-01 -2.990033e-01 1.666887e-01 3.566250e-01 -1.651098e-01 -3.860232e-01 1.410515e-01 5.547595e-01 5.970801e-01 4.269221e-01 3.064694e-01 2.713333e-01 1.244286e-01 1.671616e-01 1.124317e-01 -2.487366e-01 -1.037976e-01 4.622332e-01 5.412844e-01 3.199920e-01 1.967125e-01 1.153828e-01 6.321720e-02 3.028335e-02 9.878562e-03 -2.316076e-03 -9.079476e-03 -1.245127e-02 -1.366015e-02 -1.372699e-02 -1.305947e-02 -1.220929e-02 -1.117076e-02 -1.030132e-02 -9.403542e-03 -8.759898e-03 -8.106313e-03 -7.687084e-03 -7.247218e-03 -6.984786e-03 -6.706220e-03 -6.532555e-03 -6.375162e-03 -6.237828e-03 -6.177309e-03 -6.039137e-03 -6.061854e-03 -5.897715e-03 -5.994609e-03 -5.788513e-03 -5.949041e-03 -5.690404e-03 -5.894019e-03 -5.568781e-03 -5.768552e-03 -5.337801e-03 -5.429039e-03 -4.788694e-03 -4.562925e-03 -3.497465e-03 -2.626879e-03 -8.562619e-04 8.989116e-04 3.334112e-03 5.424531e-03 6.631714e-03 2.645819e-03 -3.233251e-03 2.308230e-04 5.559638e-04 -2.388807e-03 -4.222261e-03 -3.959515e-03 
-2.266523e-06 -5.934896e-07 7.232350e-07 1.082352e-06 2.138586e-07 -1.617225e-06 -2.637679e-06 -2.641826e-06 -3.370278e-06 -4.746298e-06 -9.327734e-06 6.723834e-06 5.047067e-05 -1.484779e-04 -2.340514e-07 -3.526755e-10 -3.039927e-11 1.159097e-11 2.827938e-10 2.773117e-07 2.049755e-04 2.409913e-03 8.831136e-04 2.499631e-04 7.551687e-05 2.847360e-06 -5.389214e-05 -9.999062e-05 -1.406141e-04 -1.804879e-04 -2.258563e-04 -2.815948e-04 -3.505420e-04 -4.402096e-04 -5.509201e-04 -6.956074e-04 -8.729360e-04 -1.102757e-03 -1.382561e-03 -1.737701e-03 -2.162198e-03 -2.677637e-03 -3.262465e-03 -3.907688e-03 -4.542644e-03 -5.072571e-03 -5.314169e-03 -5.004968e-03 -3.772784e-03 -1.121591e-03 3.614272e-03 1.165309e-02 2.478113e-02 3.831061e-02 8.747040e-03 -1.290935e-01 -1.435302e-01 1.163243e-01 2.763564e-01 2.359550e-01 2.638674e-01 2.513212e-01 1.921124e-01 1.873404e-01 6.276612e-02 1.013004e-01 3.183626e-01 2.104975e-01 1.926846e-01 5.932246e-01 3.201906e-01 -3.823126e-01 -1.927415e-01 2.509629e-01 2.662844e-01 1.736122e-01 1.073758e-01 6.546454e-02 3.794873e-02 1.984199e-02 8.322822e-03 1.350072e-03 -2.551672e-03 -4.479132e-03 -5.163012e-03 -5.132213e-03 -4.710909e-03 -4.124272e-03 -3.494007e-03 -2.896333e-03 -2.362654e-03 -1.906508e-03 -1.526183e-03 -1.215166e-03 -9.636070e-04 -7.621281e-04 -6.013307e-04 -4.739466e-04 -3.728829e-04 -2.934129e-04 -2.305380e-04 -1.813968e-04 -1.425504e-04 -1.123401e-04 -8.844658e-05 -6.995965e-05 -5.532917e-05 -4.411087e-05 -3.522382e-05 -2.853218e-05 -2.319925e-05 -1.934049e-05 -1.624534e-05 -1.426284e-05 -1.271984e-05 -1.209560e-05 -1.167591e-05 -1.190532e-05 -1.209986e-05 -1.255030e-05 -1.280260e-05 -1.301874e-05 -1.320216e-05 -1.247757e-05 -1.126159e-05 -9.319293e-06 -6.906074e-06 -4.728455e-06 
2.984452e-03 1.556584e-03 -4.254718e-04 -4.092508e-03 -7.104629e-03 2.264869e-03 8.082182e-03 2.697052e-03 -8.712567e-03 -2.929630e-02 -2.152745e-02 1.149674e-01 -4.488916e-02 -6.580703e-02 1.364154e-03 1.473055e-03 1.473375e-03 1.473288e-03 1.472926e-03 1.240716e-03 -1.467779e-01 -9.961215e-02 2.624157e-01 1.148616e-01 4.334218e-02 2.444754e-02 1.639872e-02 1.158652e-02 8.164645e-03 6.599363e-03 5.519543e-03 5.256566e-03 4.947619e-03 4.986207e-03 4.855570e-03 4.861576e-03 4.713407e-03 4.580015e-03 4.341491e-03 4.025983e-03 3.652782e-03 3.129753e-03 2.595588e-03 1.878449e-03 1.230230e-03 4.598598e-04 -5.832865e-05 -4.649623e-04 -2.563136e-04 5.104212e-04 2.431636e-03 5.609326e-03 1.100046e-02 1.788473e-02 1.855598e-02 -5.090471e-04 1.471627e-03 7.123797e-02 1.373222e-01 1.341638e-01 1.069188e-01 4.973250e-02 -2.803844e-02 -4.424666e-02 -2.295387e-02 2.952759e-04 4.258553e-02 5.199727e-02 6.802047e-02 1.681991e-01 2.034397e-01 1.624772e-01 1.724318e-01 1.751378e-01 1.355207e-01 9.336719e-02 6.176475e-02 3.924352e-02 2.340774e-02 1.273574e-02 5.975645e-03 1.993426e-03 6.459614e-07 -7.773808e-04 -6.912642e-04 -2.408606e-04 5.171610e-04 1.241904e-03 2.049779e-03 2.678502e-03 3.328409e-03 3.775829e-03 4.239892e-03 4.531557e-03 4.838237e-03 5.027263e-03 5.209910e-03 5.345983e-03 5.428181e-03 5.549920e-03 5.545457e-03 5.680406e-03 5.596950e-03 5.762320e-03 5.604586e-03 5.806340e-03 5.576674e-03 5.804552e-03 5.496889e-03 5.710340e-03 5.290717e-03 5.389072e-03 4.756405e-03 4.533528e-03 3.473848e-03 2.603213e-03 8.373965e-04 -9.197572e-04 -3.350312e-03 -5.443842e-03 -6.646074e-03 -2.668539e-03 3.218383e-03 -2.479176e-04 -5.738683e-04 2.373450e-03 4.211952e-03 3.952926e-03 
3.292984e-03 -2.754860e-03 -1.401558e-02 -2.990166e-02 3.127018e-03 1.928080e-01 1.152110e-01 6.771841e-02 9.954540e-02 3.443223e-02 7.706986e-02 2.976483e-01 -1.101649e-01 -1.786179e-01 4.627461e-03 4.530941e-03 4.835140e-03 4.682927e-03 4.638681e-03 4.468013e-03 -2.781355e-01 -1.911389e-01 5.157053e-01 2.522445e-01 1.179599e-01 9.228429e-02 7.790916e-02 7.834182e-02 7.063038e-02 7.458614e-02 6.964304e-02 7.442408e-02 7.045248e-02 7.479527e-02 7.132687e-02 7.485850e-02 7.185812e-02 7.447280e-02 7.197242e-02 7.363326e-02 7.162448e-02 7.230714e-02 7.072358e-02 7.041530e-02 6.916111e-02 6.789600e-02 6.691043e-02 6.483566e-02 6.417640e-02 6.160948e-02 6.147194e-02 5.885028e-02 5.953528e-02 5.746732e-02 5.863920e-02 5.375414e-02 5.039623e-02 4.846994e-02 5.494420e-02 5.254493e-02 4.990962e-02 4.315478e-02 3.812293e-02 3.894357e-02 4.821096e-02 5.689422e-02 6.938551e-02 8.108989e-02 9.587990e-02 1.118174e-01 1.233345e-01 1.305444e-01 1.312836e-01 1.207975e-01 1.042795e-01 8.910046e-02 7.708132e-02 6.866692e-02 6.306228e-02 6.014315e-02 5.892803e-02 5.913894e-02 6.012135e-02 6.156294e-02 6.327704e-02 6.487448e-02 6.655133e-02 6.786744e-02 6.918059e-02 7.016961e-02 7.100559e-02 7.181760e-02 7.212478e-02 7.298226e-02 7.270288e-02 7.383726e-02 7.289382e-02 7.451020e-02 7.282066e-02 7.507420e-02 7.258362e-02 7.555509e-02 7.227052e-02 7.593990e-02 7.196320e-02 7.618573e-02 7.173746e-02 7.622064e-02 7.164216e-02 7.591864e-02 7.163311e-02 7.501694e-02 7.142309e-02 7.292963e-02 7.019483e-02 6.842257e-02 6.621267e-02 5.933906e-02 5.670361e-02 4.348518e-02 4.790506e-02 5.787448e-02 1.291904e-01 9.478409e-02 1.744843e-02 -6.052594e-05 5.396143e-03 6.365278e-03 
-1.305073e-03 -1.610618e-02 -4.429240e-02 -4.321086e-04 4.930057e-01 1.929480e+00 -1.366465e-01 -3.635627e-01 4.694186e-01 8.943747e-02 3.876402e-01 2.371716e-01 -2.411095e-01 -6.324513e-02 5.477525e-02 4.512269e-02 5.250368e-02 4.897797e-02 4.756783e-02 5.450107e-02 -1.397680e-01 -2.296772e-01 3.510053e-01 3.168753e-01 1.954758e-01 2.440211e-01 1.846803e-01 2.453386e-01 1.868146e-01 2.475858e-01 1.903967e-01 2.488451e-01 1.944224e-01 2.481321e-01 1.984056e-01 2.458299e-01 2.026084e-01 2.427170e-01 2.073393e-01 2.394831e-01 2.124906e-01 2.360789e-01 2.172992e-01 2.320990e-01 2.210086e-01 2.270671e-01 2.229028e-01 2.207239e-01 2.226930e-01 2.127442e-01 2.191362e-01 2.012762e-01 2.096432e-01 1.837359e-01 1.913448e-01 1.570543e-01 1.609933e-01 1.251489e-01 1.430435e-01 1.166351e-01 1.249683e-01 1.015723e-01 1.121309e-01 9.233550e-02 1.138727e-01 1.171986e-01 1.461692e-01 1.576393e-01 1.955263e-01 2.045077e-01 2.244540e-01 2.387030e-01 2.406218e-01 2.262638e-01 2.156003e-01 2.046632e-01 2.000613e-01 1.979293e-01 1.973410e-01 2.004077e-01 2.007156e-01 2.063080e-01 2.058179e-01 2.127477e-01 2.106946e-01 2.187094e-01 2.145824e-01 2.237095e-01 2.167471e-01 2.273817e-01 2.170430e-01 2.301500e-01 2.159235e-01 2.325885e-01 2.141076e-01 2.354423e-01 2.122374e-01 2.384709e-01 2.098964e-01 2.408342e-01 2.072780e-01 2.424492e-01 2.052346e-01 2.431914e-01 2.046667e-01 2.427837e-01 2.062174e-01 2.403589e-01 2.100997e-01 2.351746e-01 2.167583e-01 2.268507e-01 2.264016e-01 2.151802e-01 2.385613e-01 1.991015e-01 2.500595e-01 1.741358e-01 2.527818e-01 1.250448e-01 2.485681e-01 -8.816956e-02 3.402615e-01 8.628242e-01 3.758827e-01 2.264696e-02 -1.629200e-02 -2.674756e-03 
-1.705266e-02 -3.607266e-02 2.525253e-03 5.239709e-01 1.372831e+00 1.928964e+00 -5.966134e-01 -7.125801e-01 4.861010e-01 4.150007e-03 4.708324e-01 1.233315e-01 2.988774e-01 1.070848e-01 3.939477e-01 1.707315e-01 3.519648e-01 2.091759e-01 3.025499e-01 2.707981e-01 2.520196e-01 1.997169e-01 1.324272e-01 3.392188e-01 9.948302e-02 3.106285e-01 1.090412e-01 2.960988e-01 1.210418e-01 2.832065e-01 1.432208e-01 2.740399e-01 1.659214e-01 2.572342e-01 1.801747e-01 2.351358e-01 1.905206e-01 2.173352e-01 2.051743e-01 2.130109e-01 2.259077e-01 2.173009e-01 2.426469e-01 2.211068e-01 2.489635e-01 2.191140e-01 2.443612e-01 2.175979e-01 2.444083e-01 2.294286e-01 2.532706e-01 2.453659e-01 2.593558e-01 2.537551e-01 2.532762e-01 2.413455e-01 2.241354e-01 2.107656e-01 2.042121e-01 2.015856e-01 1.921063e-01 1.907921e-01 1.913856e-01 1.801118e-01 1.896795e-01 1.770903e-01 1.933852e-01 1.720524e-01 2.075517e-01 1.714699e-01 2.054725e-01 1.774975e-01 2.121987e-01 1.621125e-01 1.987341e-01 1.585885e-01 2.010313e-01 1.751927e-01 2.088341e-01 1.924829e-01 2.052328e-01 2.026966e-01 1.941114e-01 2.139038e-01 1.860349e-01 2.332760e-01 1.859573e-01 2.551084e-01 1.828642e-01 2.649972e-01 1.719401e-01 2.634892e-01 1.597409e-01 2.563953e-01 1.575189e-01 2.559837e-01 1.731594e-01 2.559754e-01 1.893337e-01 2.406960e-01 2.001270e-01 2.160696e-01 2.124091e-01 1.913924e-01 2.320249e-01 1.748215e-01 2.571345e-01 1.614677e-01 2.757746e-01 1.475913e-01 2.845429e-01 1.365466e-01 2.846485e-01 1.371910e-01 2.825788e-01 1.543389e-01 2.690938e-01 1.809871e-01 2.325895e-01 2.258307e-01 1.511867e-01 6.269467e-02 -1.181812e+00 9.642667e-01 2.226037e+00 3.855613e-01 -2.620878e-02 -2.578180e-02 
-1.833234e-02 -1.793501e-02 1.404710e-01 9.147580e-01 1.003518e+00 -1.756302e+00 -2.089665e-02 4.183916e-01 -1.615685e-02 1.269425e-01 3.815995e-02 8.910999e-03 6.246517e-01 2.751595e-01 3.331619e-01 2.640693e-01 3.496253e-01 2.672442e-01 3.181232e-01 3.248088e-01 2.360292e-01 7.132890e-01 -5.419465e-02 1.915727e-01 3.605708e-03 1.908411e-01 1.599416e-02 1.579880e-01 3.185442e-02 1.336449e-01 6.376388e-02 1.190573e-01 9.463968e-02 9.660809e-02 1.105654e-01 6.892381e-02 1.180987e-01 4.935828e-02 1.295795e-01 5.073988e-02 1.482514e-01 6.563374e-02 1.603850e-01 8.072236e-02 1.578503e-01 8.871521e-02 1.417240e-01 1.000054e-01 1.373703e-01 1.358703e-01 1.553001e-01 1.875038e-01 1.853114e-01 2.445084e-01 2.212964e-01 2.938795e-01 2.508144e-01 3.206513e-01 2.550012e-01 3.195602e-01 2.739857e-01 3.292106e-01 2.904867e-01 3.175775e-01 2.675581e-01 2.392497e-01 1.883692e-01 1.280853e-01 8.972429e-02 1.484391e-02 2.193781e-02 -5.549678e-02 -1.542007e-03 -5.007205e-02 3.173194e-02 -1.132017e-02 6.956814e-02 3.192458e-02 9.470271e-02 6.273915e-02 9.316241e-02 7.808454e-02 7.675014e-02 9.348676e-02 6.374072e-02 1.205798e-01 6.268851e-02 1.511304e-01 5.837799e-02 1.638450e-01 4.433178e-02 1.590182e-01 3.037560e-02 1.447250e-01 3.288805e-02 1.385913e-01 6.303884e-02 1.316792e-01 9.515178e-02 1.018425e-01 1.196877e-01 5.870966e-02 1.452471e-01 1.727611e-02 1.786092e-01 -8.804975e-03 2.151356e-01 -2.471646e-02 2.353958e-01 -3.420743e-02 2.325604e-01 -3.112855e-02 2.071666e-01 -1.890205e-03 1.684993e-01 6.092828e-02 1.046305e-01 1.495406e-01 2.441015e-03 2.968130e-01 -1.721047e-01 7.648399e-01 -1.943848e+00 -6.510919e-02 2.608778e+00 3.859657e-01 -5.894280e-02 -3.752518e-02 
-5.854188e-04 -4.316440e-03 6.590136e-02 3.544368e-01 -2.379744e-03 -2.696311e+00 5.398852e-01 9.954329e-01 -2.839540e-01 2.078646e-01 -1.228774e-01 2.796269e-01 -9.601779e-01 -1.120455e-02 -3.334353e-01 -3.365502e-02 -3.085262e-01 1.655772e-02 -3.004315e-01 -7.155909e-04 -2.962531e-01 -7.556965e-01 1.050715e-01 6.736415e-02 -9.526985e-04 -4.343748e-03 -3.710255e-03 -1.586465e-02 6.847147e-03 -2.417377e-02 2.127518e-02 -2.821273e-02 3.330441e-02 -3.397578e-02 3.803715e-02 -4.058456e-02 3.793769e-02 -4.352333e-02 3.760284e-02 -3.851662e-02 3.861912e-02 -2.822052e-02 3.687118e-02 -1.720066e-02 3.031422e-02 -7.708898e-03 2.036553e-02 4.518062e-03 1.730646e-02 2.821998e-02 2.728999e-02 6.295694e-02 5.052001e-02 1.087199e-01 8.909920e-02 1.646682e-01 1.403532e-01 2.132978e-01 1.583122e-01 2.163046e-01 1.799871e-01 2.265938e-01 1.874614e-01 2.153945e-01 1.588805e-01 1.402638e-01 8.005464e-02 3.990698e-02 -2.326421e-02 -6.522513e-02 -8.676052e-02 -1.367692e-01 -1.154899e-01 -1.219370e-01 -7.535127e-02 -8.296026e-02 -3.929895e-02 -5.178216e-02 -1.624173e-02 -3.061371e-02 -7.805145e-03 -1.806769e-02 -7.993650e-03 -7.556116e-03 -9.295272e-03 5.503832e-03 -7.858088e-03 1.855336e-02 -8.088043e-03 2.438831e-02 -1.151884e-02 2.305734e-02 -1.428999e-02 1.723965e-02 -1.050582e-02 1.291918e-02 3.725629e-03 7.149836e-03 1.951448e-02 -7.305480e-03 3.320309e-02 -2.660985e-02 4.702542e-02 -4.483168e-02 6.236433e-02 -5.627460e-02 7.652399e-02 -6.156132e-02 8.166963e-02 -6.089248e-02 7.429806e-02 -5.132752e-02 5.362448e-02 -2.786252e-02 2.199777e-02 1.140779e-02 -2.628215e-02 6.082435e-02 -1.031892e-01 1.212784e-01 -2.654835e-01 5.512785e-01 -7.463181e-01 -4.303945e-01 8.887414e-01 1.499691e-01 -7.423265e-03 -3.633830e-03 
6.308072e-03 4.656207e-03 1.337335e-02 4.129919e-02 -9.728473e-02 -9.020846e-01 1.075585e-01 2.840866e-01 -1.682766e-01 2.108883e-02 -8.899636e-02 2.217752e-01 1.373016e-02 -2.799044e-01 -3.247642e-01 -1.511769e-02 -4.130283e-01 -1.757997e-01 -2.964420e-01 -4.292287e-01 -2.124974e-01 7.827193e-02 1.333750e-01 -5.073130e-02 -6.380135e-02 -8.808761e-02 -6.004772e-02 -8.534041e-02 -5.709454e-02 -8.471325e-02 -5.525513e-02 -8.383445e-02 -5.440580e-02 -8.272716e-02 -5.461585e-02 -8.138072e-02 -5.576171e-02 -7.977719e-02 -5.764612e-02 -7.792018e-02 -6.003125e-02 -7.582034e-02 -6.263409e-02 -7.343346e-02 -6.508580e-02 -7.059601e-02 -6.688234e-02 -6.696709e-02 -6.736577e-02 -6.209929e-02 -6.591469e-02 -5.580266e-02 -6.239436e-02 -4.800258e-02 -5.509266e-02 -3.525640e-02 -4.299658e-02 -2.261297e-02 -3.177952e-02 -1.642073e-02 -2.958680e-02 -2.343273e-02 -4.084884e-02 -3.325467e-02 -3.770096e-02 -2.375168e-02 -2.395204e-02 -1.225844e-02 -1.510449e-02 -1.467131e-02 -2.142155e-02 -3.172120e-02 -4.276862e-02 -5.611293e-02 -6.111807e-02 -6.774041e-02 -6.762287e-02 -7.292519e-02 -7.011865e-02 -7.398064e-02 -6.971148e-02 -7.269816e-02 -6.831482e-02 -7.062423e-02 -6.687874e-02 -6.853536e-02 -6.573889e-02 -6.683372e-02 -6.489282e-02 -6.570276e-02 -6.414481e-02 -6.520447e-02 -6.325031e-02 -6.534937e-02 -6.201231e-02 -6.612085e-02 -6.033578e-02 -6.747294e-02 -5.824403e-02 -6.928541e-02 -5.588149e-02 -7.133523e-02 -5.352661e-02 -7.328872e-02 -5.156750e-02 -7.471351e-02 -5.049122e-02 -7.513620e-02 -5.085146e-02 -7.410766e-02 -5.322067e-02 -7.130376e-02 -5.816502e-02 -6.668384e-02 -6.631314e-02 -6.076149e-02 -7.867474e-02 -5.484418e-02 -9.750159e-02 -5.228663e-02 -1.512321e-01 8.152959e-03 -1.510376e-01 -1.737340e-01 2.237195e-02 1.640566e-02 9.202690e-03 7.876894e-03 
