# vtk DataFile Version 2.0
Comment goes here
ASCII

DATASET STRUCTURED_POINTS
FIELD FieldData 1
TIME 1 1 double
0.01000000
DIMENSIONS    128   16   1

ORIGIN    0.000   0.000   0.000
SPACING   0.0078125 0.015625   1.000

POINT_DATA   2048
SCALARS Omega double
LOOKUP_TABLE default

7.511983e-08 1.218212e-07 -5.316683e-08 -1.288385e-07 -1.620700e-07 5.403623e-06 4.994107e-05 1.010077e-04 1.255559e-04 1.306378e-04 1.248052e-04 1.074831e-04 9.380646e-05 8.341229e-05 5.950923e-05 3.144447e-05 -2.579457e-06 -4.236397e-05 -9.045419e-05 -1.371586e-04 -1.635460e-04 -1.799591e-04 -1.492225e-04 -5.542329e-05 6.605033e-05 2.034201e-04 3.088184e-04 3.570326e-04 3.160481e-04 1.690512e-04 -5.284911e-05 -3.114112e-04 -5.177185e-04 -5.839361e-04 -4.481704e-04 -1.000259e-04 3.631981e-04 7.667266e-04 8.840534e-04 5.603510e-04 -1.681316e-04 -9.993591e-04 -1.534589e-03 -1.361773e-03 -4.386190e-04 7.771111e-04 1.466872e-03 1.041348e-03 -2.458567e-04 -1.457404e-03 -1.546434e-03 -6.870757e-04 6.121772e-04 1.087622e-03 1.445859e-03 -2.491144e-03 -1.681890e-02 -6.779285e-02 -1.288995e-01 -2.156568e-01 -3.370257e-01 -1.755387e-01 1.596391e-01 2.389925e-01 2.767213e-01 2.347368e-01 8.192071e-02 -5.005753e-02 -1.619484e-01 -1.726731e-01 2.002691e-01 4.575779e-01 2.197536e-01 1.377430e-02 -4.203600e-03 -2.051321e-03 -7.209161e-03 1.190918e-03 2.932530e-03 -8.486942e-04 -1.802280e-03 1.284265e-03 3.322859e-03 2.633127e-03 2.223950e-04 -1.555871e-03 -1.760503e-03 -5.505108e-04 8.265717e-04 1.632502e-03 1.610128e-03 1.045137e-03 2.835298e-04 -3.053859e-04 -6.053694e-04 -5.889842e-04 -3.790247e-04 -1.004058e-04 1.266604e-04 2.622628e-04 2.949691e-04 2.592491e-04 1.854307e-04 1.112076e-04 5.210979e-05 1.946817e-05 7.342951e-06 1.019743e-05 1.648090e-05 2.048761e-05 1.656133e-05 5.034795e-06 -1.304797e-05 -3.349767e-05 -5.415213e-05 -7.089682e-05 -8.204887e-05 -8.742130e-05 -8.657069e-05 -7.979771e-05 -6.963335e-05 -4.397527e-05 -1.344258e-05 -9.759510e-07 -1.398900e-08 3.584172e-08 7.649300e-08 1.406219e-07 
5.820766e-06 -1.283484e-05 -2.943275e-05 -4.005030e-04 -2.070593e-03 1.028797e-01 4.596478e-01 4.102144e-01 1.862781e-01 2.086144e-01 1.969931e-01 1.742902e-01 -3.849653e-01 -1.150853e+00 -1.397531e+00 -1.357792e+00 -1.387831e+00 -1.416579e+00 -1.422312e+00 -1.514507e+00 -1.338960e+00 -5.514429e-01 6.393722e-02 5.877556e-02 8.893896e-02 1.785293e-01 2.099368e-01 3.103518e-01 4.123439e-01 4.639228e-01 4.498110e-01 3.817454e-01 2.614128e-01 1.089148e-01 -3.080163e-02 -9.309671e-02 -2.778939e-02 1.720426e-01 4.496040e-01 6.887978e-01 7.568579e-01 5.783736e-01 1.995943e-01 -2.157368e-01 -4.307723e-01 -2.700719e-01 2.049836e-01 6.925210e-01 8.790479e-01 6.262563e-01 1.792400e-01 -1.136552e-01 -1.156475e-01 8.093147e-02 7.704402e-02 -3.854397e-01 -1.037325e+00 -3.012051e+00 -4.665447e+00 -5.840042e+00 -9.619727e+00 -4.916605e+00 4.031211e+00 4.967321e+00 7.302091e+00 8.296496e+00 4.033717e+00 6.549699e-01 -2.665728e+00 -5.384757e+00 3.962088e+00 1.516823e+01 9.328425e+00 1.780374e+00 8.464337e-01 -5.204307e-01 -8.510567e-02 9.075391e-01 1.472026e-01 -1.086717e-01 6.328992e-01 1.068100e+00 5.066194e-01 -3.639209e-01 -7.381412e-01 -3.904646e-01 3.117439e-01 8.681471e-01 9.999117e-01 7.485911e-01 3.217826e-01 -4.880976e-02 -2.329508e-01 -2.194497e-01 -7.484280e-02 1.136294e-01 2.715874e-01 3.616334e-01 3.814406e-01 3.518004e-01 3.000152e-01 2.501508e-01 2.163050e-01 2.026182e-01 2.052033e-01 2.167940e-01 2.303277e-01 2.420498e-01 2.510206e-01 2.582380e-01 2.639689e-01 2.661156e-01 2.623480e-01 2.572886e-01 2.592161e-01 2.674218e-01 2.618413e-01 2.511768e-01 2.954295e-01 2.934663e-01 2.277950e-01 4.793491e-01 4.423270e-01 6.991699e-02 2.735320e-03 1.125359e-04 2.900577e-05 9.213702e-06 
3.993798e-05 3.810665e-05 -9.264347e-04 -2.633185e-02 -4.104337e-01 -4.928461e-01 9.083763e-01 8.777768e-01 2.232116e-01 3.223145e-01 2.819094e-01 2.568617e-01 -6.753201e-01 4.045701e-02 7.583462e-01 1.577498e-01 4.759387e-01 4.417162e-01 1.931942e-01 7.336403e-01 -1.876704e-01 -1.087611e+00 -5.113421e-02 -1.390461e-02 -7.274369e-02 2.736334e-01 2.482349e-01 6.140607e-01 8.784027e-01 1.046535e+00 1.012264e+00 7.900119e-01 4.595518e-01 -4.868075e-02 -4.573535e-01 -5.169916e-01 -2.456808e-01 -1.939537e-02 4.917897e-01 2.075109e+00 2.921713e+00 7.522362e-01 -1.113235e+00 -9.547008e-02 -5.374165e-01 -1.604153e+00 4.907345e-01 1.317426e+00 1.995021e+00 2.573133e+00 -3.769456e-01 -3.860678e-01 -3.560014e-02 -3.818923e-02 4.577288e-01 -8.953386e-01 -5.119065e-01 -2.430235e+00 -2.423872e+00 -1.075989e-01 -4.942178e+00 -3.011620e+00 3.298508e+00 4.827212e-01 1.475245e+00 4.266749e+00 1.367875e+00 2.557209e+00 3.128081e+00 -3.738362e+00 1.599771e+00 1.199972e+01 6.754200e+00 6.104737e-01 7.468365e-01 -2.368558e+00 -1.627391e+00 2.667058e+00 1.002664e-01 -1.028844e+00 2.011877e+00 1.522510e+00 3.314981e-01 1.119291e-01 -2.671654e+00 -2.723966e+00 7.122055e-01 2.651833e+00 2.851105e+00 1.581463e+00 -1.211568e-01 -4.124027e-01 -4.847064e-01 -1.095005e+00 -9.405221e-01 -2.518402e-02 5.625512e-01 6.767291e-01 6.826215e-01 6.371135e-01 4.979521e-01 3.400974e-01 2.322310e-01 1.846391e-01 1.996599e-01 2.450262e-01 2.578885e-01 2.802070e-01 3.588506e-01 3.688186e-01 3.117188e-01 3.666730e-01 4.328720e-01 3.370839e-01 2.744977e-01 4.242085e-01 4.039635e-01 2.708758e-01 5.425652e-01 3.622248e-01 2.517761e-01 1.088512e+00 2.774664e-01 -6.294054e-01 -1.121259e-01 -2.869863e-03 -1.572260e-04 -4.178899e-05 
5.771250e-05 -5.182189e-06 -3.057163e-03 -7.558741e-02 -1.205008e+00 -2.253824e+00 -7.714828e-01 -4.577335e-01 -7.279121e-01 -6.117191e-01 -6.342024e-01 -5.924949e-01 2.934858e-01 -1.384514e-01 1.270850e-02 -8.442063e-02 1.089146e-01 7.051694e-02 1.196811e-01 8.152061e-02 -1.481470e-01 2.417373e-01 -6.463864e-01 -4.458346e-01 -8.608242e-01 -5.086684e-01 -8.250825e-01 -5.142279e-01 -5.138477e-01 -4.133503e-01 -4.100027e-01 -5.497329e-01 -6.074801e-01 -9.402877e-01 -1.074382e+00 -7.690075e-01 -4.622363e-01 -1.312595e+00 -1.918562e+00 9.104724e-01 2.862195e+00 -2.174397e+00 -4.774104e+00 1.386851e+00 1.737164e+00 -2.592135e+00 -4.700055e-02 -1.356533e+00 -7.856752e-01 2.821963e+00 -2.442719e+00 -2.181100e-01 8.160688e-01 -6.667958e-01 7.788455e-01 -3.273090e-01 2.921071e+00 3.700545e+00 3.309991e+00 4.098337e+00 6.142996e+00 4.479390e+00 -1.064379e+00 -4.238787e+00 -7.647930e+00 -6.940226e+00 -5.854190e+00 -4.586832e+00 -8.417644e-01 -3.804823e-01 -5.217968e+00 -1.243202e+01 -8.143202e+00 -4.588201e+00 -3.734278e+00 -2.948063e+00 -4.175423e+00 9.670830e-01 -7.276794e-01 -2.159789e+00 1.100451e+00 -3.597666e+00 -2.789476e+00 3.202480e+00 -2.165658e+00 -5.012308e+00 -2.594946e-01 1.227911e+00 8.306146e-01 -9.743275e-01 -2.730717e+00 -7.711085e-01 4.120892e-01 -1.494820e+00 -2.150084e+00 -8.949551e-01 -3.662085e-01 -7.123809e-01 -8.428675e-01 -7.488576e-01 -7.629107e-01 -8.476557e-01 -9.079998e-01 -9.446659e-01 -9.208895e-01 -8.761692e-01 -9.414775e-01 -9.645819e-01 -8.009956e-01 -8.263404e-01 -1.037422e+00 -8.918775e-01 -6.691310e-01 -9.126181e-01 -1.110749e+00 -7.327861e-01 -7.519434e-01 -1.061304e+00 -5.938819e-01 -1.119860e+00 -9.386552e-01 -3.369070e-01 -2.470902e+00 -2.376512e+00 -3.502124e-01 -8.817975e-03 -2.502045e-04 -3.775902e-05 
-6.964831e-05 -1.902344e-04 -2.502362e-03 -5.062459e-02 -8.509389e-01 -1.998065e+00 -2.193484e+00 -1.754965e+00 -1.175352e+00 -1.173296e+00 -1.144698e+00 -1.236843e+00 -1.046581e+00 -1.163754e+00 -1.055109e+00 -1.090329e+00 -1.110318e+00 -1.113833e+00 -1.080164e+00 -1.041097e+00 -1.126643e+00 -9.952171e-01 -9.104871e-01 -5.201562e-01 -9.179208e-01 -9.805685e-01 -1.315984e+00 -1.458519e+00 -1.821598e+00 -1.937624e+00 -1.886080e+00 -1.743418e+00 -1.355404e+00 -1.041939e+00 -6.345220e-01 -1.965898e-01 -2.138623e-01 -1.512539e+00 -2.917369e+00 -1.812507e+00 -7.176084e-01 -3.575819e+00 -4.010149e+00 1.733543e+00 2.718492e+00 -8.275871e-01 -7.287956e-01 -3.386332e+00 -3.646309e+00 -2.896993e-01 -2.352229e+00 2.890544e-01 9.948291e-01 -6.910355e-01 1.912944e-01 -8.703366e-01 -2.955985e+00 -2.979472e+00 -6.566212e-01 -3.102268e+00 -2.620739e+00 -2.816995e+00 -3.497966e+00 2.064239e+00 1.584627e+00 -1.307271e+00 -6.845218e-01 -3.602377e+00 -6.896169e+00 -4.335656e+00 3.584295e-01 -5.168065e-01 -3.856455e-01 -3.834197e+00 -5.204178e+00 -2.101686e-01 -2.677067e+00 -2.584414e+00 -1.023075e+00 -1.136989e+00 -1.508480e+00 -6.240273e+00 -3.705334e+00 3.527000e+00 1.157943e+00 -2.080302e+00 -1.302632e+00 -2.240878e+00 -2.970191e+00 -3.303397e+00 -2.999911e+00 -3.404372e-01 1.131193e+00 -2.347760e-01 -1.208350e+00 -1.013871e+00 -1.207738e+00 -1.765001e+00 -1.924564e+00 -1.753105e+00 -1.577815e+00 -1.458858e+00 -1.380520e+00 -1.357614e+00 -1.350617e+00 -1.361145e+00 -1.454655e+00 -1.511850e+00 -1.430056e+00 -1.473546e+00 -1.639659e+00 -1.545897e+00 -1.379074e+00 -1.530018e+00 -1.673143e+00 -1.440179e+00 -1.436038e+00 -1.611114e+00 -1.440738e+00 -1.807935e+00 -1.438262e+00 -1.884494e+00 -3.266797e+00 -1.914900e+00 -2.584214e-01 -6.695799e-03 1.968233e-05 2.820688e-05 
-3.570694e-05 -9.483097e-05 -3.662906e-04 -4.060678e-03 -6.217781e-02 -3.551759e-01 -1.016405e+00 -8.708282e-01 -4.324285e-01 -4.700510e-01 -4.473683e-01 -5.583844e-01 -1.177404e+00 -1.058494e+00 -7.671238e-01 -7.826805e-01 -7.892498e-01 -7.935398e-01 -7.980783e-01 -7.951588e-01 -1.104859e+00 -1.145434e+00 -3.535701e-01 -1.535330e-01 -2.298690e-01 -3.960092e-01 -4.753974e-01 -6.720595e-01 -8.826132e-01 -9.872105e-01 -9.577082e-01 -8.233995e-01 -5.766249e-01 -2.724010e-01 1.292610e-02 1.533013e-01 2.850422e-02 -4.107191e-01 -9.989946e-01 -1.401846e+00 -1.490446e+00 -1.286076e+00 -5.701412e-01 4.816069e-01 9.139813e-01 4.615207e-01 -4.215193e-01 -1.483995e+00 -1.831494e+00 -1.222434e+00 -4.743358e-01 2.458725e-01 2.522411e-01 -1.639714e-01 -2.231192e-01 -1.002303e+00 -5.137241e+00 -5.535740e+00 -4.610642e-01 9.515607e-01 -1.549313e+00 -3.386201e+00 -2.518449e+00 1.073605e+00 2.553996e+00 -9.469698e-02 9.038823e-01 4.048496e+00 2.576850e+00 -1.573081e+00 2.883292e+00 9.154350e+00 5.798449e+00 -2.523453e-02 -1.668530e+00 9.099324e-01 -3.172109e-02 -1.889485e+00 -3.582886e-01 1.095571e-01 -1.293367e+00 -2.305428e+00 -1.151860e+00 8.355290e-01 1.452023e+00 6.253625e-01 -6.716835e-01 -1.764615e+00 -2.044003e+00 -1.571928e+00 -7.510200e-01 6.678753e-02 4.868333e-01 4.008366e-01 7.851452e-02 -2.713171e-01 -5.782915e-01 -7.738631e-01 -8.187408e-01 -7.543941e-01 -6.477554e-01 -5.475601e-01 -4.797997e-01 -4.528106e-01 -4.573528e-01 -4.799206e-01 -5.099590e-01 -5.344225e-01 -5.475403e-01 -5.636679e-01 -5.817664e-01 -5.809931e-01 -5.669127e-01 -5.644439e-01 -5.738142e-01 -5.784268e-01 -5.693295e-01 -5.558898e-01 -6.305231e-01 -6.489964e-01 -4.987247e-01 -9.917160e-01 -1.009771e+00 -2.425182e-01 -2.014615e-02 -4.256088e-04 5.091774e-05 2.890598e-05 
4.524160e-06 2.721421e-05 3.296850e-05 -6.212825e-05 -1.466415e-03 -1.620371e-02 -5.590445e-02 -4.992729e-02 -2.431444e-02 -2.554771e-02 -2.892007e-02 -1.015803e-01 -1.124225e+00 -1.078363e+00 -5.474598e-01 -5.471198e-01 -5.474296e-01 -5.476014e-01 -5.478028e-01 -5.483183e-01 -9.877701e-01 -1.060315e+00 -1.056581e-01 -1.710360e-02 -1.459075e-02 -2.357503e-02 -2.666661e-02 -3.561248e-02 -4.486478e-02 -4.947426e-02 -4.776529e-02 -4.122950e-02 -3.007880e-02 -1.637957e-02 -4.150831e-03 8.636297e-04 -5.861123e-03 -2.458796e-02 -4.959375e-02 -7.030458e-02 -7.542089e-02 -5.819982e-02 -2.259103e-02 1.449752e-02 3.090885e-02 1.460748e-02 -2.847148e-02 -7.200462e-02 -8.524956e-02 -6.171221e-02 -2.181781e-02 5.029509e-03 1.809924e-03 -1.394197e-02 -5.083266e-03 9.808144e-02 2.800585e-01 5.455323e-02 -1.052044e-01 7.450379e-01 -1.240434e-01 -5.634080e-01 7.388030e-01 9.835972e-01 1.243461e+00 3.986947e-01 -5.652264e-01 5.475208e-01 7.636440e-01 -1.318261e+00 5.366206e-01 3.851289e+00 2.323154e+00 3.033770e-01 -6.231948e-02 2.398835e-02 6.530017e-03 -9.793049e-02 -3.131197e-02 6.064877e-04 -6.219155e-02 -1.061013e-01 -6.095846e-02 1.913911e-02 5.833715e-02 2.964470e-02 -3.308166e-02 -8.505964e-02 -9.936421e-02 -7.784509e-02 -3.966633e-02 -5.629709e-03 1.243666e-02 1.234082e-02 -2.984175e-04 -1.725406e-02 -3.170534e-02 -4.023925e-02 -4.240729e-02 -3.994431e-02 -3.532184e-02 -3.077030e-02 -2.761179e-02 -2.626452e-02 -2.640675e-02 -2.741193e-02 -2.864376e-02 -2.972753e-02 -3.059156e-02 -3.133268e-02 -3.187786e-02 -3.202828e-02 -3.167598e-02 -3.122511e-02 -3.139714e-02 -3.208121e-02 -3.150580e-02 -3.055881e-02 -3.499139e-02 -3.412117e-02 -2.825356e-02 -5.764952e-02 -5.280404e-02 -9.647290e-03 -5.899035e-04 -3.220806e-05 -2.524227e-05 3.357972e-06 
-6.502769e-06 -1.107933e-05 -1.075518e-05 -1.492895e-05 -1.366771e-05 -1.833306e-04 -6.941744e-04 -7.168095e-04 -3.505990e-04 -4.356569e-04 -2.330284e-03 -4.157054e-02 -5.896685e-01 -5.436941e-01 -2.748382e-01 -2.743291e-01 -2.743283e-01 -2.743280e-01 -2.743287e-01 -2.746080e-01 -4.927003e-01 -5.332544e-01 -4.985448e-02 -3.292595e-03 -3.894655e-04 -3.984465e-04 -3.853134e-04 -3.912758e-04 -3.904285e-04 -3.881207e-04 -3.677486e-04 -3.476998e-04 -3.360662e-04 -3.416319e-04 -3.651371e-04 -4.009381e-04 -4.429937e-04 -4.726744e-04 -4.717419e-04 -4.350738e-04 -3.685587e-04 -3.050422e-04 -2.650702e-04 -3.003939e-04 -4.015239e-04 -5.149197e-04 -5.569006e-04 -5.222818e-04 -3.247136e-04 -3.151862e-04 -2.594452e-04 -2.821173e-04 -4.050700e-04 5.574177e-04 1.625648e-02 -1.079911e-01 -8.364868e-01 -1.980161e+00 -2.562896e+00 -3.311305e+00 -6.349010e+00 -6.044883e+00 8.190850e-02 3.410728e+00 3.946432e+00 4.341277e+00 2.778471e+00 -1.305018e-01 -3.289617e+00 -4.873294e+00 8.608994e-01 8.267610e+00 5.508950e+00 6.218663e-01 3.356219e-02 -7.771309e-04 -2.077956e-04 -1.096680e-03 -8.920504e-04 -4.206671e-04 -2.392179e-04 -5.642971e-04 -7.528679e-04 -6.851084e-04 -4.289035e-04 -2.693725e-04 -2.476610e-04 -3.689954e-04 -4.996660e-04 -5.748228e-04 -5.794010e-04 -5.390514e-04 -4.781320e-04 -4.293235e-04 -4.007569e-04 -3.985295e-04 -4.135397e-04 -4.352411e-04 -4.535957e-04 -4.645368e-04 -4.677249e-04 -4.654655e-04 -4.602569e-04 -4.548577e-04 -4.506629e-04 -4.487557e-04 -4.490185e-04 -4.512464e-04 -4.547466e-04 -4.580978e-04 -4.595993e-04 -4.591643e-04 -4.576410e-04 -4.573313e-04 -4.589098e-04 -4.575959e-04 -4.504971e-04 -4.557175e-04 -4.827526e-04 -4.259728e-04 -4.773446e-04 -8.686048e-04 -6.704079e-04 -1.243800e-04 1.837538e-07 6.907874e-06 2.117830e-06 8.058795e-08 
-7.104787e-08 -6.995389e-08 -1.003037e-07 -8.357636e-08 -1.029932e-07 -8.110373e-09 7.924776e-08 1.703943e-07 7.569778e-08 2.661054e-07 2.418661e-07 4.470139e-07 -1.302912e-02 -1.239617e-02 -2.523631e-05 -1.707263e-08 5.525994e-08 9.914137e-08 1.879455e-07 4.431216e-05 2.517638e-02 2.965939e-02 3.442330e-04 3.053156e-06 -4.096429e-07 -5.557317e-07 -5.919349e-07 -7.599881e-07 -5.422150e-07 -1.207412e-06 -5.758321e-07 -8.812557e-07 -4.922725e-07 -1.971118e-07 -2.903008e-07 1.790172e-07 1.113382e-08 -1.330654e-07 -8.163776e-07 -2.188839e-06 -1.843060e-06 -3.177298e-06 -3.181948e-06 -3.633228e-06 -2.747969e-06 -6.663089e-06 -6.216165e-06 -1.207915e-05 -2.411362e-05 -3.740969e-05 -7.283489e-05 -8.747371e-05 -1.571276e-04 8.386600e-07 3.167023e-03 -1.655155e-01 -8.726980e-01 -1.431840e+00 -1.217385e+00 -1.580636e+00 -3.671382e+00 -3.725852e+00 -2.430651e-01 1.755233e+00 2.039362e+00 2.258320e+00 1.654258e+00 3.087483e-01 -1.513044e+00 -2.698468e+00 5.714890e-01 5.005212e+00 3.289546e+00 3.329684e-01 1.734816e-02 1.432595e-03 4.125201e-04 3.846142e-04 1.877633e-04 1.300201e-04 6.579811e-05 5.056235e-05 2.381390e-05 3.520254e-06 -1.226305e-06 -7.291246e-06 -5.121904e-06 -2.646323e-06 -2.517860e-07 -1.246704e-06 -2.025980e-06 -3.987906e-06 -3.434965e-06 -2.845245e-06 -1.849785e-06 -1.586842e-06 -7.636572e-07 -3.456669e-07 -6.064091e-08 -1.310295e-07 -2.019211e-07 -3.654268e-07 -3.936378e-07 -4.432193e-07 -3.668140e-07 -3.325797e-07 -2.366648e-07 -2.005942e-07 -1.497259e-07 -1.562008e-07 -1.517078e-07 -1.751917e-07 -1.804905e-07 -1.693729e-07 -1.572578e-07 -1.100167e-07 -7.181930e-08 -9.593057e-09 2.697531e-08 8.443604e-08 1.111091e-07 1.296166e-07 1.076106e-07 -1.835980e-08 -4.757032e-08 -6.378156e-08 -5.837213e-08 -6.202916e-08 
6.668359e-06 1.123499e-05 1.094680e-05 1.503784e-05 1.382203e-05 1.824590e-04 6.889969e-04 7.066927e-04 3.387160e-04 4.234087e-04 2.317806e-03 4.156566e-02 5.749399e-01 5.437076e-01 2.748368e-01 2.743292e-01 2.743283e-01 2.743279e-01 2.743285e-01 2.746740e-01 5.235377e-01 5.922997e-01 5.089105e-02 3.318344e-03 3.826223e-04 3.804900e-04 3.550642e-04 3.583001e-04 3.635902e-04 3.740088e-04 3.773159e-04 3.781238e-04 3.854120e-04 3.940999e-04 4.026748e-04 4.053313e-04 4.035560e-04 3.977307e-04 3.930353e-04 3.897842e-04 3.936371e-04 4.001264e-04 4.128686e-04 4.207071e-04 4.262612e-04 4.221410e-04 4.160006e-04 4.063112e-04 4.046935e-04 4.092561e-04 3.997220e-04 4.170602e-04 3.509643e-04 3.892211e-04 1.044615e-03 3.235601e-03 -2.543245e-03 -5.392506e-02 -1.692021e-01 -3.305171e-01 -5.462766e-01 -4.407600e-01 4.510248e-02 3.466092e-01 4.277931e-01 3.806637e-01 1.736494e-01 -1.071478e-01 -3.633120e-01 -4.060371e-01 5.783186e-02 5.835504e-01 3.866420e-01 3.984693e-02 2.921825e-03 7.806412e-04 4.833974e-04 4.174782e-04 3.701382e-04 3.736062e-04 3.600799e-04 3.721196e-04 3.888937e-04 4.095816e-04 4.220018e-04 4.196518e-04 4.134249e-04 4.063872e-04 4.085400e-04 4.168894e-04 4.310091e-04 4.432773e-04 4.526567e-04 4.556349e-04 4.549545e-04 4.507246e-04 4.461554e-04 4.418299e-04 4.394767e-04 4.386036e-04 4.394397e-04 4.408733e-04 4.427468e-04 4.442088e-04 4.455141e-04 4.465731e-04 4.480014e-04 4.499960e-04 4.530190e-04 4.561105e-04 4.581159e-04 4.588494e-04 4.590686e-04 4.606792e-04 4.640676e-04 4.642929e-04 4.581044e-04 4.637680e-04 4.906887e-04 4.330106e-04 4.835695e-04 8.722297e-04 6.711493e-04 1.244620e-04 -1.104924e-07 -6.763853e-06 -1.970084e-06 8.049897e-08 
-4.701258e-06 -2.733625e-05 -3.337414e-05 6.158113e-05 1.462537e-03 1.628240e-02 5.673207e-02 5.179425e-02 2.652441e-02 2.748773e-02 3.023252e-02 1.021512e-01 1.104769e+00 1.057494e+00 5.483911e-01 5.474557e-01 5.471517e-01 5.467150e-01 5.463082e-01 5.463164e-01 1.000338e+00 1.087769e+00 1.156832e-01 2.973853e-02 2.782118e-02 3.394151e-02 3.071405e-02 3.095704e-02 3.117331e-02 2.911556e-02 2.581963e-02 2.450413e-02 2.523857e-02 2.736492e-02 2.988627e-02 3.239249e-02 3.450784e-02 3.558933e-02 3.511653e-02 3.294375e-02 2.989159e-02 2.726779e-02 2.659683e-02 2.834868e-02 3.200413e-02 3.566892e-02 3.738843e-02 3.621993e-02 3.301115e-02 2.968317e-02 2.793416e-02 2.843990e-02 2.896903e-02 2.993988e-02 2.837337e-02 2.756440e-02 2.461028e-02 2.027113e-02 1.605761e-02 1.328121e-02 1.285596e-02 2.113002e-02 3.430917e-02 4.059186e-02 4.627299e-02 4.672204e-02 4.027731e-02 3.117300e-02 2.720280e-02 2.787540e-02 4.030212e-02 5.160043e-02 4.528772e-02 3.654883e-02 3.356687e-02 3.035289e-02 2.644824e-02 2.592506e-02 2.490491e-02 2.432426e-02 2.521470e-02 2.782782e-02 2.915701e-02 2.719969e-02 2.303129e-02 1.909410e-02 1.829442e-02 2.106625e-02 2.629387e-02 3.144567e-02 3.468195e-02 3.489972e-02 3.261595e-02 2.883880e-02 2.503070e-02 2.214768e-02 2.080930e-02 2.094242e-02 2.225695e-02 2.420666e-02 2.637650e-02 2.839254e-02 3.008517e-02 3.132479e-02 3.209016e-02 3.238082e-02 3.229270e-02 3.196930e-02 3.163755e-02 3.142386e-02 3.115315e-02 3.044267e-02 2.904492e-02 2.729122e-02 2.594089e-02 2.500195e-02 2.289807e-02 2.072649e-02 2.443924e-02 2.350564e-02 1.833084e-02 5.041729e-02 5.006469e-02 9.450889e-03 5.896139e-04 3.186523e-05 2.510271e-05 -3.459342e-06 
3.569585e-05 9.463240e-05 3.657510e-04 4.057885e-03 6.233819e-02 3.593310e-01 1.041780e+00 9.208341e-01 4.871290e-01 5.162016e-01 4.786490e-01 5.705965e-01 1.243764e+00 1.128061e+00 7.898823e-01 7.908416e-01 7.827175e-01 7.725332e-01 7.634808e-01 7.487337e-01 9.277361e-01 1.075510e+00 5.624135e-01 4.446500e-01 5.346632e-01 6.360629e-01 5.776111e-01 5.832299e-01 5.899680e-01 5.371630e-01 4.604664e-01 4.325384e-01 4.443822e-01 4.902397e-01 5.410177e-01 5.965362e-01 6.464330e-01 6.723525e-01 6.655613e-01 6.198334e-01 5.503178e-01 4.893474e-01 4.703400e-01 5.057425e-01 5.870274e-01 6.714245e-01 7.142352e-01 6.925701e-01 6.229044e-01 5.480699e-01 5.097939e-01 5.202822e-01 5.408438e-01 5.679417e-01 5.478585e-01 5.332728e-01 4.737840e-01 4.053416e-01 3.936827e-01 4.258783e-01 4.405436e-01 4.818092e-01 5.538602e-01 5.709085e-01 6.373312e-01 6.479070e-01 6.014426e-01 5.746181e-01 5.976255e-01 5.613710e-01 6.150949e-01 6.836242e-01 6.205652e-01 5.794444e-01 5.576949e-01 5.045567e-01 4.402601e-01 4.379844e-01 4.210483e-01 4.135432e-01 4.390107e-01 4.990119e-01 5.262052e-01 4.781996e-01 3.823460e-01 2.981018e-01 2.844934e-01 3.502971e-01 4.673071e-01 5.801728e-01 6.482016e-01 6.488506e-01 5.936508e-01 5.074187e-01 4.223762e-01 3.594827e-01 3.312025e-01 3.358295e-01 3.662423e-01 4.104595e-01 4.588651e-01 5.033626e-01 5.409132e-01 5.690830e-01 5.853347e-01 5.906387e-01 5.907992e-01 5.841296e-01 5.710430e-01 5.663025e-01 5.663378e-01 5.461514e-01 5.081382e-01 4.757007e-01 4.501215e-01 4.177090e-01 3.739111e-01 3.328041e-01 3.912612e-01 4.083178e-01 2.732698e-01 8.265784e-01 9.465535e-01 2.376208e-01 2.011400e-02 4.244432e-04 -5.116158e-05 -2.893296e-05 
6.878301e-05 1.898054e-04 2.499476e-03 5.059641e-02 8.556375e-01 2.046975e+00 2.325376e+00 1.899891e+00 1.241634e+00 1.168043e+00 1.106657e+00 1.180964e+00 1.030019e+00 1.186876e+00 1.060837e+00 1.070261e+00 1.051247e+00 1.025963e+00 9.876451e-01 9.781093e-01 9.019003e-01 9.010185e-01 1.332152e+00 1.124950e+00 1.430693e+00 1.280587e+00 1.415496e+00 1.348794e+00 1.453685e+00 1.322313e+00 1.167407e+00 1.169704e+00 1.145611e+00 1.254258e+00 1.280422e+00 1.366408e+00 1.464252e+00 1.472707e+00 1.481938e+00 1.444078e+00 1.341361e+00 1.278204e+00 1.268515e+00 1.327342e+00 1.466568e+00 1.601344e+00 1.656107e+00 1.631214e+00 1.517311e+00 1.427025e+00 1.408566e+00 1.428472e+00 1.522955e+00 1.579817e+00 1.603592e+00 1.607343e+00 1.548183e+00 1.461547e+00 1.444426e+00 1.454429e+00 1.420389e+00 1.388420e+00 1.328088e+00 1.260503e+00 1.221752e+00 1.184377e+00 1.061876e+00 1.019385e+00 1.005808e+00 9.329382e-01 9.417471e-01 9.624662e-01 9.213505e-01 8.956133e-01 9.625450e-01 9.506581e-01 9.374406e-01 9.758984e-01 9.764534e-01 9.977970e-01 1.054210e+00 1.169883e+00 1.265362e+00 1.223314e+00 1.098828e+00 1.018518e+00 1.012096e+00 1.109277e+00 1.276617e+00 1.444933e+00 1.563877e+00 1.585343e+00 1.509438e+00 1.387701e+00 1.270335e+00 1.180158e+00 1.132586e+00 1.130752e+00 1.167491e+00 1.228018e+00 1.294657e+00 1.352582e+00 1.411730e+00 1.471392e+00 1.485894e+00 1.476438e+00 1.534401e+00 1.555997e+00 1.446158e+00 1.469597e+00 1.620108e+00 1.508290e+00 1.314823e+00 1.427815e+00 1.524543e+00 1.242094e+00 1.191587e+00 1.328865e+00 1.134561e+00 1.493985e+00 1.128319e+00 1.635075e+00 3.154269e+00 1.897887e+00 2.575339e-01 6.686447e-03 -2.114249e-05 -2.855813e-05 
-5.679197e-05 5.145391e-06 3.057288e-03 7.554466e-02 1.211950e+00 2.319346e+00 9.094572e-01 5.490645e-01 6.830719e-01 4.777430e-01 4.890179e-01 4.713933e-01 -3.858594e-01 -2.245820e-02 -1.145814e-01 8.627799e-02 -1.378905e-01 -5.255596e-02 -5.799887e-02 6.241878e-02 2.075574e-01 -3.397940e-01 7.428964e-01 6.068248e-01 8.396559e-01 3.280045e-01 7.024289e-01 5.806701e-01 7.276909e-01 6.663510e-01 6.300325e-01 7.105391e-01 6.399051e-01 6.872021e-01 5.910049e-01 5.754776e-01 5.938967e-01 5.363159e-01 5.685437e-01 6.328948e-01 6.599022e-01 7.262408e-01 7.632279e-01 7.604827e-01 7.591124e-01 7.419604e-01 7.115918e-01 7.309059e-01 7.407122e-01 8.025013e-01 8.778833e-01 8.817827e-01 9.748672e-01 9.908161e-01 1.082427e+00 1.127467e+00 1.194477e+00 1.241845e+00 1.244676e+00 1.170484e+00 1.074041e+00 9.114708e-01 6.237089e-01 4.723806e-01 2.305752e-01 1.406148e-01 7.025759e-02 7.278702e-02 -1.407258e-02 -3.193510e-02 -1.593011e-01 -3.095209e-01 -2.050437e-01 -1.389358e-01 2.409292e-02 1.501060e-01 3.037235e-01 3.713746e-01 4.198003e-01 4.750121e-01 4.954882e-01 5.154522e-01 5.934409e-01 6.595292e-01 7.251914e-01 8.280206e-01 8.547567e-01 8.286920e-01 7.743758e-01 7.331951e-01 7.364584e-01 7.693996e-01 8.006661e-01 8.436828e-01 8.900306e-01 9.187446e-01 9.204147e-01 9.046715e-01 8.796965e-01 8.547425e-01 8.281345e-01 7.985233e-01 7.897195e-01 8.070416e-01 7.857414e-01 7.567247e-01 8.473483e-01 8.989735e-01 7.623581e-01 8.127609e-01 1.048339e+00 9.271416e-01 7.275573e-01 9.928560e-01 1.213032e+00 8.578758e-01 8.984175e-01 1.223451e+00 7.622990e-01 1.279890e+00 1.063571e+00 3.932129e-01 2.465760e+00 2.363134e+00 3.489081e-01 8.805073e-03 2.512801e-04 3.804641e-05 
-3.891989e-05 -3.681402e-05 9.278453e-04 2.632830e-02 4.128478e-01 5.124082e-01 -8.879703e-01 -9.059073e-01 -3.088144e-01 -4.310418e-01 -3.762922e-01 -3.178910e-01 6.517927e-01 -2.071387e-02 -6.869138e-01 -4.528777e-02 -3.472291e-01 -3.075940e-01 -6.141501e-02 -6.527362e-01 1.504572e-01 9.338236e-01 -1.734690e-01 -2.903463e-01 -3.176243e-01 -6.434735e-01 -4.235151e-01 -4.780386e-01 -4.304932e-01 -3.859565e-01 -3.045789e-01 -2.378916e-01 -2.804155e-01 -3.196483e-01 -4.197217e-01 -4.956411e-01 -5.511474e-01 -6.057344e-01 -5.854572e-01 -5.036285e-01 -4.062634e-01 -3.046647e-01 -2.666811e-01 -3.117272e-01 -4.140739e-01 -5.263479e-01 -5.915214e-01 -5.567423e-01 -4.655129e-01 -3.473772e-01 -2.700900e-01 -2.808167e-01 -2.699989e-01 -2.973433e-01 -2.359522e-01 -1.999580e-01 -9.900698e-02 4.387415e-03 1.944758e-02 -5.059521e-02 -1.093223e-01 -2.286879e-01 -4.366848e-01 -5.202843e-01 -7.004966e-01 -7.502926e-01 -7.210586e-01 -6.878578e-01 -7.513003e-01 -7.143457e-01 -8.316946e-01 -9.770109e-01 -8.575366e-01 -7.808670e-01 -6.891283e-01 -5.721752e-01 -4.304009e-01 -3.993852e-01 -3.570661e-01 -3.246111e-01 -3.469598e-01 -4.134159e-01 -4.165340e-01 -3.295670e-01 -1.832498e-01 -3.760661e-02 -9.914955e-03 -1.022146e-01 -2.695262e-01 -4.266143e-01 -5.104516e-01 -4.983174e-01 -4.167633e-01 -2.919528e-01 -1.674956e-01 -7.763380e-02 -4.155703e-02 -5.343283e-02 -1.011639e-01 -1.661881e-01 -2.370753e-01 -3.041695e-01 -3.545936e-01 -3.833798e-01 -4.119612e-01 -4.295621e-01 -3.952425e-01 -3.676418e-01 -4.031647e-01 -3.774392e-01 -2.883663e-01 -3.097018e-01 -3.370422e-01 -1.952953e-01 -8.039371e-02 -1.749383e-01 -1.029969e-01 7.080330e-02 -1.781983e-01 7.260974e-04 7.872253e-02 -8.598153e-01 -2.000800e-01 6.304662e-01 1.116805e-01 2.869001e-03 1.588036e-04 4.294146e-05 
-6.189974e-06 1.258063e-05 2.905464e-05 4.006192e-04 2.086395e-03 -1.039138e-01 -4.697617e-01 -4.328233e-01 -2.131529e-01 -2.327188e-01 -2.141104e-01 -1.817149e-01 3.881576e-01 1.164885e+00 1.422592e+00 1.392699e+00 1.429168e+00 1.459291e+00 1.459445e+00 1.537817e+00 1.336310e+00 5.046118e-01 -1.636948e-01 -1.975537e-01 -2.367452e-01 -2.971763e-01 -2.608515e-01 -2.657799e-01 -2.667817e-01 -2.416754e-01 -2.055231e-01 -1.903145e-01 -1.976143e-01 -2.191897e-01 -2.453842e-01 -2.727755e-01 -2.965751e-01 -3.099719e-01 -3.062486e-01 -2.830036e-01 -2.489941e-01 -2.186318e-01 -2.090680e-01 -2.263093e-01 -2.657968e-01 -3.068289e-01 -3.278253e-01 -3.166755e-01 -2.825998e-01 -2.450546e-01 -2.251705e-01 -2.297999e-01 -2.375848e-01 -2.499949e-01 -2.375542e-01 -2.288512e-01 -1.971737e-01 -1.616547e-01 -1.568392e-01 -1.769822e-01 -1.965110e-01 -2.218633e-01 -2.484994e-01 -2.632328e-01 -3.049530e-01 -3.199140e-01 -3.018849e-01 -2.862571e-01 -3.014079e-01 -2.895501e-01 -3.055020e-01 -3.407545e-01 -3.215723e-01 -2.977979e-01 -2.809009e-01 -2.508401e-01 -2.146837e-01 -2.112105e-01 -2.007121e-01 -1.950800e-01 -2.060040e-01 -2.341719e-01 -2.457817e-01 -2.210365e-01 -1.732246e-01 -1.302960e-01 -1.228519e-01 -1.548363e-01 -2.122760e-01 -2.676567e-01 -3.007259e-01 -3.006155e-01 -2.734207e-01 -2.309403e-01 -1.889403e-01 -1.579034e-01 -1.440716e-01 -1.464772e-01 -1.615585e-01 -1.833564e-01 -2.072413e-01 -2.292852e-01 -2.476328e-01 -2.610537e-01 -2.693257e-01 -2.723290e-01 -2.709966e-01 -2.671845e-01 -2.630339e-01 -2.597506e-01 -2.563617e-01 -2.487492e-01 -2.330543e-01 -2.131565e-01 -1.978273e-01 -1.877623e-01 -1.650487e-01 -1.407377e-01 -1.770550e-01 -1.745258e-01 -1.167570e-01 -3.985423e-01 -4.118011e-01 -6.776021e-02 -2.741757e-03 -1.124278e-04 -2.926462e-05 -9.457418e-06 
