# vtk DataFile Version 2.0
Comment goes here
ASCII

DATASET STRUCTURED_POINTS
FIELD FieldData 1
TIME 1 1 double
0.27000000
DIMENSIONS    128   16   1

ORIGIN    0.000   0.000   0.000
SPACING   0.0078125 0.015625   1.000

POINT_DATA   2048
SCALARS uMag double
LOOKUP_TABLE default

8.243597e-03 4.354148e-03 7.141973e-03 1.446243e-03 5.647420e-03 1.552967e-03 1.181403e-02 2.712358e-04 6.199685e-03 3.693894e-03 2.573608e-03 1.323169e-02 2.080859e-02 3.658602e-02 4.546820e-02 4.797831e-02 5.260146e-02 5.078224e-02 5.001046e-02 4.416701e-02 3.820213e-02 1.945564e-02 1.362447e-02 3.659747e-03 3.062071e-03 2.752208e-03 1.413592e-03 5.421830e-03 3.358290e-03 6.455837e-03 4.209145e-03 6.744888e-03 4.587608e-03 6.704708e-03 4.822442e-03 6.580871e-03 5.047357e-03 6.412561e-03 5.195082e-03 6.139525e-03 5.233155e-03 5.827544e-03 5.256077e-03 5.606926e-03 5.346112e-03 5.503809e-03 5.452170e-03 5.420249e-03 5.471779e-03 5.286273e-03 5.384241e-03 5.092929e-03 5.179982e-03 4.799011e-03 4.728808e-03 4.077028e-03 3.096489e-03 1.459161e-03 3.843660e-03 4.606992e-03 4.716616e-03 4.440655e-03 2.489194e-03 1.011618e-03 2.216037e-03 3.131999e-03 3.133725e-03 4.508817e-03 5.687581e-03 6.033430e-03 6.655436e-03 7.649228e-03 6.314701e-03 5.607324e-03 4.351576e-03 4.771357e-03 3.879321e-03 4.749615e-03 3.809160e-03 4.877699e-03 3.838486e-03 4.995458e-03 3.903207e-03 5.019893e-03 3.946132e-03 4.890417e-03 3.966827e-03 4.665927e-03 4.091623e-03 4.481488e-03 4.373663e-03 4.295510e-03 4.650292e-03 3.983388e-03 4.821509e-03 3.598391e-03 4.959789e-03 3.326828e-03 5.144736e-03 3.236081e-03 5.279820e-03 3.262070e-03 5.236206e-03 3.374432e-03 4.984480e-03 3.632233e-03 4.584133e-03 4.069823e-03 4.041206e-03 4.639019e-03 3.388516e-03 5.296743e-03 2.700224e-03 5.981892e-03 2.095650e-03 6.624663e-03 1.753816e-03 7.093622e-03 1.888250e-03 7.193873e-03 3.078150e-03 6.860750e-03 7.183962e-03 2.333481e-03 6.658656e-03 3.855377e-03 7.906596e-03 5.093708e-03 
3.952444e-03 1.304616e-03 3.688509e-03 2.799456e-03 3.139971e-03 9.230848e-03 9.316330e-03 5.876764e-03 5.860297e-03 8.809014e-03 9.585224e-03 1.829714e-02 2.392648e-02 2.472633e-02 1.148933e-02 7.840573e-03 2.865282e-03 4.624111e-03 6.588230e-03 1.204215e-02 2.478084e-02 2.458392e-02 1.580501e-02 1.048963e-02 6.375318e-03 4.688434e-03 2.669832e-03 2.913208e-03 1.202517e-03 2.655212e-03 8.648755e-04 2.637404e-03 9.210225e-04 2.520291e-03 1.077121e-03 2.446829e-03 1.353110e-03 2.370714e-03 1.562186e-03 2.117003e-03 1.572268e-03 1.774522e-03 1.546873e-03 1.609629e-03 1.689833e-03 1.613385e-03 1.863703e-03 1.579843e-03 1.873667e-03 1.393796e-03 1.593127e-03 9.587727e-04 1.068689e-03 1.474326e-03 2.520725e-03 5.387838e-03 8.568280e-03 1.008789e-02 8.901546e-03 5.475334e-03 5.815135e-03 7.499637e-03 9.884364e-03 6.270839e-03 4.155361e-03 1.684705e-03 3.904872e-03 7.951390e-03 9.576539e-03 9.610925e-03 1.121314e-02 1.202864e-02 1.045737e-02 7.987699e-03 5.042151e-03 3.872050e-03 2.367409e-03 2.280516e-03 1.194277e-03 1.558747e-03 6.470008e-04 1.316042e-03 4.087986e-04 1.203460e-03 2.640906e-04 9.345077e-04 2.228832e-04 5.925113e-04 2.081632e-04 5.750935e-04 6.009867e-04 5.301031e-04 1.009481e-03 1.661770e-04 1.151909e-03 4.222239e-04 1.167359e-03 7.595626e-04 1.308421e-03 8.245528e-04 1.496238e-03 7.553198e-04 1.500386e-03 6.909399e-04 1.282704e-03 5.590487e-04 9.794866e-04 6.290693e-04 5.891626e-04 1.016851e-03 6.326177e-04 1.481931e-03 1.268442e-03 2.059401e-03 1.828624e-03 2.768673e-03 2.114948e-03 3.397096e-03 2.072387e-03 3.866747e-03 1.257073e-03 5.274949e-03 5.101738e-03 4.573332e-03 3.148273e-03 1.267275e-03 4.126575e-03 1.438090e-03 
1.093842e-02 8.895721e-03 9.547011e-03 6.739277e-03 1.004628e-02 2.547158e-02 1.051972e-02 1.447363e-02 2.994716e-03 1.070803e-02 1.532362e-03 1.096201e-02 1.182126e-02 1.793509e-02 2.166671e-02 2.206764e-02 2.336447e-02 2.379481e-02 2.181198e-02 2.144222e-02 1.881070e-02 1.046473e-02 5.315172e-03 2.276064e-03 5.050096e-03 4.328498e-03 7.660905e-03 6.148764e-03 8.988520e-03 6.975100e-03 9.600504e-03 7.375700e-03 9.894725e-03 7.678672e-03 9.952793e-03 7.801526e-03 9.757060e-03 7.869459e-03 9.637380e-03 8.197674e-03 9.757935e-03 8.681927e-03 9.748207e-03 8.884932e-03 9.446621e-03 8.823836e-03 9.013202e-03 8.681947e-03 8.626257e-03 8.638673e-03 8.620302e-03 9.119772e-03 9.118537e-03 1.003794e-02 1.041692e-02 1.318604e-02 1.385708e-02 1.588620e-03 1.051829e-02 5.943550e-03 4.640678e-03 4.603478e-03 1.285905e-03 8.349539e-03 1.499202e-02 1.247806e-02 1.308544e-02 1.663580e-02 1.567033e-02 1.441260e-02 1.761058e-02 1.762842e-02 1.869663e-02 1.632672e-02 1.379189e-02 1.155968e-02 1.160482e-02 1.030972e-02 1.132919e-02 9.958393e-03 1.117575e-02 9.532664e-03 1.085891e-02 9.315876e-03 1.089042e-02 9.670937e-03 1.119790e-02 1.011456e-02 1.104796e-02 1.007379e-02 1.026505e-02 9.788948e-03 9.698461e-03 1.013240e-02 9.763822e-03 1.090189e-02 9.817904e-03 1.141115e-02 9.555949e-03 1.149366e-02 9.178026e-03 1.141269e-02 9.077038e-03 1.145417e-02 9.322609e-03 1.137990e-02 9.676179e-03 1.105697e-02 1.010291e-02 1.062394e-02 1.081776e-02 1.028193e-02 1.174528e-02 9.664947e-03 1.237831e-02 8.735931e-03 1.281095e-02 8.007794e-03 1.335122e-02 7.993200e-03 1.413815e-02 1.136546e-02 2.156309e-02 1.411454e-02 9.017601e-03 4.303396e-03 9.919500e-03 8.831337e-03 
9.800852e-03 1.254565e-02 1.759885e-02 2.556535e-02 3.668991e-02 1.494298e-02 2.836964e-02 2.101816e-02 2.385906e-02 2.153112e-02 2.144414e-02 2.164682e-02 1.865493e-02 2.411687e-02 2.192197e-02 2.614624e-02 2.280444e-02 2.667566e-02 2.246955e-02 2.531959e-02 2.064252e-02 2.079695e-02 2.051354e-02 2.156943e-02 2.083460e-02 2.177103e-02 2.136078e-02 2.186680e-02 2.186624e-02 2.185271e-02 2.229727e-02 2.177702e-02 2.253717e-02 2.158119e-02 2.260666e-02 2.141719e-02 2.264444e-02 2.131705e-02 2.260321e-02 2.121883e-02 2.247206e-02 2.115628e-02 2.220037e-02 2.111472e-02 2.186716e-02 2.100598e-02 2.132377e-02 2.062192e-02 2.048362e-02 1.994001e-02 1.939346e-02 1.889248e-02 1.770742e-02 1.686679e-02 1.463266e-02 1.328270e-02 1.007632e-02 5.635727e-03 8.535421e-03 9.901398e-03 9.158531e-03 1.190633e-02 1.237125e-02 1.511432e-02 1.934998e-02 2.091513e-02 2.156192e-02 2.437433e-02 2.545377e-02 2.609530e-02 2.714830e-02 2.884821e-02 2.886485e-02 2.659008e-02 2.566039e-02 2.417656e-02 2.438346e-02 2.339003e-02 2.393406e-02 2.295415e-02 2.355087e-02 2.251085e-02 2.315500e-02 2.222145e-02 2.304468e-02 2.223292e-02 2.300867e-02 2.216174e-02 2.272202e-02 2.202090e-02 2.235395e-02 2.179271e-02 2.209434e-02 2.177902e-02 2.210627e-02 2.198766e-02 2.202947e-02 2.219100e-02 2.189253e-02 2.232477e-02 2.171053e-02 2.242352e-02 2.159534e-02 2.265537e-02 2.156853e-02 2.293864e-02 2.158257e-02 2.314856e-02 2.147455e-02 2.328375e-02 2.140804e-02 2.350572e-02 2.151708e-02 2.351873e-02 2.155614e-02 2.336275e-02 2.158655e-02 2.322145e-02 2.193260e-02 2.304095e-02 2.335370e-02 2.282670e-02 3.116718e-02 3.421152e-02 3.695830e-02 1.734361e-02 1.388367e-02 1.037044e-02 
3.332384e-02 3.721618e-02 3.932982e-02 4.910780e-02 5.793543e-02 5.505006e-02 2.762962e-02 3.962165e-02 2.721334e-02 3.426561e-02 2.498004e-02 2.877308e-02 1.846122e-02 2.255160e-02 2.149092e-02 2.237168e-02 2.247847e-02 2.216968e-02 2.273894e-02 2.171647e-02 2.227683e-02 2.034404e-02 2.790147e-02 2.679284e-02 3.132670e-02 2.989438e-02 3.287868e-02 3.138693e-02 3.352439e-02 3.211405e-02 3.370895e-02 3.251160e-02 3.377036e-02 3.288239e-02 3.371167e-02 3.301253e-02 3.339889e-02 3.302087e-02 3.319736e-02 3.326440e-02 3.328922e-02 3.359979e-02 3.324329e-02 3.350260e-02 3.275063e-02 3.295067e-02 3.195047e-02 3.209779e-02 3.086635e-02 3.081738e-02 2.933447e-02 2.899083e-02 2.683104e-02 2.564922e-02 2.198497e-02 1.881694e-02 1.115633e-02 6.324470e-03 1.134678e-02 1.421280e-02 1.310076e-02 1.736262e-02 1.655759e-02 1.733301e-02 2.373221e-02 2.923412e-02 3.178554e-02 3.712546e-02 4.095430e-02 4.254516e-02 4.464290e-02 4.859242e-02 4.673345e-02 4.277642e-02 4.000200e-02 3.839882e-02 3.746456e-02 3.672910e-02 3.649539e-02 3.590004e-02 3.587190e-02 3.516562e-02 3.525438e-02 3.469283e-02 3.505287e-02 3.483226e-02 3.526186e-02 3.520806e-02 3.518624e-02 3.512763e-02 3.447691e-02 3.476871e-02 3.396648e-02 3.502413e-02 3.408386e-02 3.568429e-02 3.422380e-02 3.606656e-02 3.402508e-02 3.601921e-02 3.370552e-02 3.580829e-02 3.364002e-02 3.569382e-02 3.388289e-02 3.544971e-02 3.420367e-02 3.498259e-02 3.468202e-02 3.448960e-02 3.545360e-02 3.411988e-02 3.640613e-02 3.355723e-02 3.712520e-02 3.280700e-02 3.767635e-02 3.236242e-02 3.836572e-02 3.272430e-02 3.920818e-02 3.507292e-02 4.031389e-02 7.097558e-02 5.313023e-02 4.407517e-02 3.552444e-02 3.589873e-02 
3.720812e-02 3.946577e-02 4.129135e-02 4.669461e-02 5.378515e-02 6.441728e-02 5.942741e-02 6.074981e-02 5.534928e-02 5.726051e-02 5.206020e-02 5.320673e-02 4.647001e-02 4.634820e-02 4.612151e-02 4.628716e-02 4.625822e-02 4.620536e-02 4.633857e-02 4.613058e-02 4.629750e-02 4.669686e-02 5.304643e-02 5.275534e-02 5.594221e-02 5.552665e-02 5.765035e-02 5.690662e-02 5.861214e-02 5.755334e-02 5.914019e-02 5.785929e-02 5.939179e-02 5.800305e-02 5.943267e-02 5.801647e-02 5.931132e-02 5.801423e-02 5.917518e-02 5.812144e-02 5.912481e-02 5.829145e-02 5.895718e-02 5.824512e-02 5.851776e-02 5.791623e-02 5.778398e-02 5.727352e-02 5.675883e-02 5.630199e-02 5.548755e-02 5.503437e-02 5.377888e-02 5.305757e-02 5.135401e-02 5.099264e-02 4.861615e-02 4.290541e-02 4.616121e-02 4.575253e-02 4.501680e-02 4.813524e-02 4.882594e-02 5.084671e-02 5.139449e-02 4.969836e-02 4.897114e-02 4.898664e-02 4.665488e-02 4.691017e-02 4.676666e-02 4.521216e-02 4.825575e-02 5.148357e-02 5.346327e-02 5.460580e-02 5.638425e-02 5.681924e-02 5.830384e-02 5.806150e-02 5.920281e-02 5.846345e-02 5.947014e-02 5.866113e-02 5.977174e-02 5.910737e-02 6.012116e-02 5.948412e-02 6.006662e-02 5.943615e-02 5.954075e-02 5.924173e-02 5.913065e-02 5.949625e-02 5.915714e-02 6.004482e-02 5.921778e-02 6.042762e-02 5.905801e-02 6.052088e-02 5.877148e-02 6.050045e-02 5.866408e-02 6.057261e-02 5.878846e-02 6.059152e-02 5.899272e-02 6.042621e-02 5.922120e-02 6.014952e-02 5.967341e-02 6.000163e-02 6.031225e-02 5.971572e-02 6.076467e-02 5.922913e-02 6.122116e-02 5.898090e-02 6.199319e-02 5.931383e-02 6.346685e-02 6.072515e-02 6.749977e-02 6.419413e-02 4.819430e-02 4.464896e-02 3.896747e-02 3.879290e-02 
4.759710e-02 4.973397e-02 4.951535e-02 5.326823e-02 5.433870e-02 6.019334e-02 6.266829e-02 6.357593e-02 6.179344e-02 6.442476e-02 6.262229e-02 6.602363e-02 6.457466e-02 6.350257e-02 6.323145e-02 6.343528e-02 6.340033e-02 6.333711e-02 6.349578e-02 6.324071e-02 6.347276e-02 6.492974e-02 6.550004e-02 6.345590e-02 6.377634e-02 6.288130e-02 6.349736e-02 6.271477e-02 6.351171e-02 6.264365e-02 6.358541e-02 6.261016e-02 6.360935e-02 6.256424e-02 6.356935e-02 6.254329e-02 6.350455e-02 6.255988e-02 6.339750e-02 6.257853e-02 6.324386e-02 6.258669e-02 6.302496e-02 6.254689e-02 6.272675e-02 6.241810e-02 6.231601e-02 6.217115e-02 6.184106e-02 6.190487e-02 6.148106e-02 6.182843e-02 6.151232e-02 6.230234e-02 6.255571e-02 6.440057e-02 6.636558e-02 6.887090e-02 6.693958e-02 6.589123e-02 6.486303e-02 6.397872e-02 6.194356e-02 6.222029e-02 6.150735e-02 6.145217e-02 6.104308e-02 6.129964e-02 5.996070e-02 6.038454e-02 5.957621e-02 5.808365e-02 5.843654e-02 5.998360e-02 6.119926e-02 6.186241e-02 6.267244e-02 6.280280e-02 6.345433e-02 6.326541e-02 6.381969e-02 6.344294e-02 6.395962e-02 6.355083e-02 6.405741e-02 6.370018e-02 6.408710e-02 6.379754e-02 6.396611e-02 6.382294e-02 6.374846e-02 6.385810e-02 6.354464e-02 6.399770e-02 6.343319e-02 6.421602e-02 6.334864e-02 6.441257e-02 6.324839e-02 6.453123e-02 6.313661e-02 6.458615e-02 6.309169e-02 6.462221e-02 6.314201e-02 6.462291e-02 6.327310e-02 6.454510e-02 6.343238e-02 6.438615e-02 6.366246e-02 6.422528e-02 6.394327e-02 6.400839e-02 6.415067e-02 6.373198e-02 6.428927e-02 6.350539e-02 6.434005e-02 6.335088e-02 6.423948e-02 6.307516e-02 6.411204e-02 5.844856e-02 5.379176e-02 5.201066e-02 4.894852e-02 4.925111e-02 
4.661380e-02 4.798156e-02 4.833125e-02 5.092408e-02 5.214680e-02 5.546744e-02 5.676040e-02 5.928128e-02 6.039782e-02 6.282702e-02 6.560123e-02 6.799031e-02 7.420415e-02 7.405190e-02 7.397041e-02 7.403563e-02 7.401724e-02 7.400177e-02 7.404883e-02 7.396184e-02 7.405154e-02 7.428500e-02 6.714857e-02 6.593132e-02 6.279342e-02 6.210708e-02 6.095452e-02 6.019157e-02 6.011160e-02 5.918800e-02 5.971713e-02 5.865368e-02 5.951460e-02 5.837084e-02 5.938175e-02 5.823057e-02 5.926805e-02 5.818530e-02 5.916211e-02 5.820965e-02 5.905756e-02 5.826656e-02 5.892287e-02 5.830203e-02 5.873449e-02 5.829242e-02 5.850472e-02 5.825757e-02 5.829513e-02 5.827403e-02 5.822106e-02 5.847393e-02 5.842277e-02 5.898330e-02 5.900544e-02 5.992587e-02 5.969932e-02 6.033140e-02 6.072348e-02 6.060131e-02 6.112909e-02 6.208136e-02 6.218551e-02 6.394924e-02 6.462697e-02 6.474622e-02 6.460131e-02 6.520497e-02 6.559034e-02 6.474449e-02 6.545646e-02 6.712331e-02 6.548493e-02 6.271321e-02 6.161184e-02 6.027333e-02 6.017560e-02 5.928816e-02 5.965741e-02 5.892027e-02 5.950844e-02 5.880798e-02 5.948346e-02 5.882857e-02 5.951113e-02 5.894177e-02 5.952706e-02 5.907254e-02 5.945721e-02 5.917097e-02 5.930182e-02 5.927239e-02 5.914251e-02 5.944149e-02 5.903455e-02 5.965713e-02 5.894619e-02 5.984317e-02 5.884643e-02 5.995812e-02 5.875575e-02 6.001322e-02 5.872814e-02 6.002866e-02 5.878553e-02 5.998778e-02 5.891298e-02 5.986970e-02 5.909287e-02 5.968072e-02 5.932184e-02 5.944156e-02 5.955639e-02 5.912617e-02 5.970472e-02 5.871522e-02 5.968952e-02 5.819954e-02 5.936932e-02 5.745583e-02 5.841381e-02 5.612499e-02 5.621305e-02 5.332376e-02 5.099835e-02 4.945560e-02 4.753475e-02 4.746004e-02 
5.141373e-02 5.293123e-02 5.261674e-02 5.516630e-02 5.569662e-02 5.877078e-02 6.005987e-02 6.243692e-02 6.373110e-02 6.606427e-02 6.876600e-02 7.091796e-02 7.717473e-02 7.734101e-02 7.721820e-02 7.731159e-02 7.728840e-02 7.725934e-02 7.734199e-02 7.720567e-02 7.735610e-02 7.715316e-02 6.980587e-02 6.895190e-02 6.595600e-02 6.537679e-02 6.432199e-02 6.366990e-02 6.359973e-02 6.283851e-02 6.328708e-02 6.244041e-02 6.315257e-02 6.226883e-02 6.308959e-02 6.222784e-02 6.305424e-02 6.227239e-02 6.303221e-02 6.238148e-02 6.302587e-02 6.254590e-02 6.304412e-02 6.276212e-02 6.310684e-02 6.304839e-02 6.326914e-02 6.347432e-02 6.364921e-02 6.418165e-02 6.443950e-02 6.539210e-02 6.590864e-02 6.739107e-02 6.836436e-02 7.054069e-02 7.202788e-02 7.359299e-02 7.075338e-02 7.052099e-02 7.087909e-02 7.064961e-02 7.111562e-02 7.166381e-02 6.804476e-02 6.693627e-02 6.531455e-02 6.374917e-02 6.211545e-02 6.175856e-02 6.101700e-02 6.064264e-02 6.132057e-02 6.216999e-02 6.249628e-02 6.266132e-02 6.289296e-02 6.279033e-02 6.306313e-02 6.282604e-02 6.315097e-02 6.285010e-02 6.319803e-02 6.289368e-02 6.321825e-02 6.296512e-02 6.320221e-02 6.305035e-02 6.313790e-02 6.314308e-02 6.303531e-02 6.325236e-02 6.292007e-02 6.338773e-02 6.281379e-02 6.353788e-02 6.271666e-02 6.367145e-02 6.262494e-02 6.376555e-02 6.255384e-02 6.382012e-02 6.253064e-02 6.383733e-02 6.256638e-02 6.380791e-02 6.265454e-02 6.372018e-02 6.277980e-02 6.357339e-02 6.292639e-02 6.337303e-02 6.305794e-02 6.310784e-02 6.311051e-02 6.275298e-02 6.299618e-02 6.224163e-02 6.255721e-02 6.138726e-02 6.149876e-02 5.979155e-02 5.933257e-02 5.688175e-02 5.520306e-02 5.398226e-02 5.231487e-02 5.252593e-02 
4.661596e-02 4.798399e-02 4.833165e-02 5.092378e-02 5.214492e-02 5.546404e-02 5.675650e-02 5.927833e-02 6.039378e-02 6.282567e-02 6.559899e-02 6.799094e-02 7.420504e-02 7.405539e-02 7.397337e-02 7.404230e-02 7.402347e-02 7.401247e-02 7.405885e-02 7.397661e-02 7.406565e-02 7.431773e-02 6.717522e-02 6.594841e-02 6.280380e-02 6.211004e-02 6.095178e-02 6.018200e-02 6.009966e-02 5.918122e-02 5.971733e-02 5.868112e-02 5.955656e-02 5.845416e-02 5.947559e-02 5.837531e-02 5.941594e-02 5.839654e-02 5.938168e-02 5.851445e-02 5.938859e-02 5.871428e-02 5.943443e-02 5.896612e-02 5.951050e-02 5.926323e-02 5.966502e-02 5.968276e-02 6.002376e-02 6.035141e-02 6.072440e-02 6.140071e-02 6.193294e-02 6.302737e-02 6.392062e-02 6.560445e-02 6.721544e-02 6.846400e-02 6.569550e-02 6.531282e-02 6.488212e-02 6.370028e-02 6.314795e-02 6.335492e-02 6.207082e-02 6.222013e-02 6.206538e-02 6.163136e-02 6.095720e-02 6.115041e-02 6.065812e-02 5.940325e-02 5.964676e-02 6.006393e-02 6.054952e-02 6.023866e-02 6.053441e-02 5.991942e-02 6.029038e-02 5.957026e-02 6.005416e-02 5.931023e-02 5.987341e-02 5.916895e-02 5.975087e-02 5.914073e-02 5.965353e-02 5.918314e-02 5.953754e-02 5.926296e-02 5.939379e-02 5.937884e-02 5.924658e-02 5.953856e-02 5.912068e-02 5.972551e-02 5.900349e-02 5.987564e-02 5.886818e-02 5.995693e-02 5.875487e-02 6.000048e-02 5.872301e-02 6.001454e-02 5.877984e-02 5.997221e-02 5.890217e-02 5.984756e-02 5.907312e-02 5.964663e-02 5.928107e-02 5.938297e-02 5.949485e-02 5.906403e-02 5.965906e-02 5.868629e-02 5.967842e-02 5.820407e-02 5.938490e-02 5.748096e-02 5.843605e-02 5.614641e-02 5.622415e-02 5.333668e-02 5.100432e-02 4.946346e-02 4.753843e-02 4.746494e-02 
4.760310e-02 4.974214e-02 4.952040e-02 5.327298e-02 5.434067e-02 6.018969e-02 6.266392e-02 6.356902e-02 6.177477e-02 6.440887e-02 6.260009e-02 6.601684e-02 6.456607e-02 6.351150e-02 6.323411e-02 6.344517e-02 6.340891e-02 6.335323e-02 6.351198e-02 6.326856e-02 6.349738e-02 6.500923e-02 6.556943e-02 6.351163e-02 6.382576e-02 6.292075e-02 6.352786e-02 6.273206e-02 6.352510e-02 6.266060e-02 6.360531e-02 6.268267e-02 6.372222e-02 6.277585e-02 6.381905e-02 6.290364e-02 6.387722e-02 6.306526e-02 6.393668e-02 6.330531e-02 6.404801e-02 6.364477e-02 6.423269e-02 6.405394e-02 6.445217e-02 6.449743e-02 6.474541e-02 6.506364e-02 6.524570e-02 6.585455e-02 6.600403e-02 6.686256e-02 6.698896e-02 6.804579e-02 6.814496e-02 6.931366e-02 6.930087e-02 7.027006e-02 6.921452e-02 6.964006e-02 6.886974e-02 6.897765e-02 6.805036e-02 6.819758e-02 6.698002e-02 6.695833e-02 6.596722e-02 6.579142e-02 6.497378e-02 6.501207e-02 6.452234e-02 6.441336e-02 6.427234e-02 6.433106e-02 6.432929e-02 6.417515e-02 6.423907e-02 6.393627e-02 6.411760e-02 6.372068e-02 6.400886e-02 6.356530e-02 6.392864e-02 6.350162e-02 6.389040e-02 6.353306e-02 6.386143e-02 6.362010e-02 6.380518e-02 6.373935e-02 6.371155e-02 6.388258e-02 6.359680e-02 6.405717e-02 6.349405e-02 6.426423e-02 6.339723e-02 6.442663e-02 6.325033e-02 6.449588e-02 6.310905e-02 6.454117e-02 6.306266e-02 6.457643e-02 6.310878e-02 6.456306e-02 6.321555e-02 6.446758e-02 6.337099e-02 6.430878e-02 6.358054e-02 6.410861e-02 6.381841e-02 6.388037e-02 6.405664e-02 6.367492e-02 6.426884e-02 6.352151e-02 6.438423e-02 6.341446e-02 6.429211e-02 6.311889e-02 6.413236e-02 5.847127e-02 5.380062e-02 5.202405e-02 4.895485e-02 4.926146e-02 
3.721377e-02 3.947321e-02 4.129319e-02 4.669375e-02 5.377388e-02 6.439411e-02 5.940820e-02 6.074313e-02 5.534215e-02 5.727327e-02 5.206659e-02 5.322088e-02 4.646369e-02 4.635054e-02 4.612360e-02 4.630441e-02 4.627495e-02 4.623675e-02 4.636621e-02 4.618667e-02 4.635136e-02 4.682875e-02 5.311375e-02 5.277723e-02 5.595118e-02 5.551556e-02 5.761588e-02 5.680479e-02 5.848105e-02 5.740133e-02 5.902851e-02 5.786168e-02 5.947589e-02 5.821577e-02 5.968123e-02 5.839974e-02 5.965419e-02 5.850109e-02 5.962543e-02 5.876807e-02 5.975192e-02 5.921577e-02 6.000193e-02 5.968534e-02 6.014005e-02 5.995600e-02 6.017040e-02 6.029392e-02 6.053161e-02 6.102747e-02 6.124354e-02 6.189484e-02 6.197840e-02 6.269901e-02 6.270330e-02 6.348986e-02 6.335405e-02 6.399804e-02 6.335668e-02 6.366438e-02 6.304930e-02 6.317788e-02 6.261727e-02 6.284449e-02 6.230606e-02 6.250179e-02 6.206904e-02 6.210624e-02 6.174461e-02 6.171321e-02 6.153452e-02 6.133287e-02 6.138242e-02 6.106502e-02 6.116018e-02 6.055671e-02 6.080997e-02 6.009608e-02 6.058461e-02 5.974399e-02 6.036019e-02 5.940543e-02 6.013005e-02 5.920774e-02 6.004760e-02 5.926044e-02 6.005297e-02 5.938526e-02 5.994920e-02 5.947275e-02 5.972987e-02 5.958844e-02 5.950520e-02 5.982200e-02 5.942128e-02 6.024863e-02 5.938276e-02 6.049305e-02 5.905136e-02 6.041895e-02 5.868315e-02 6.041512e-02 5.862646e-02 6.052961e-02 5.879072e-02 6.057845e-02 5.899370e-02 6.040340e-02 5.922367e-02 6.010639e-02 5.955336e-02 5.974565e-02 5.998672e-02 5.939131e-02 6.055757e-02 5.914540e-02 6.121895e-02 5.904166e-02 6.210886e-02 5.947482e-02 6.359914e-02 6.080638e-02 6.751650e-02 6.422710e-02 4.820596e-02 4.466387e-02 3.897358e-02 3.880381e-02 
3.333407e-02 3.723453e-02 3.934106e-02 4.912228e-02 5.793069e-02 5.508654e-02 2.770081e-02 3.974350e-02 2.739389e-02 3.448310e-02 2.520125e-02 2.892772e-02 1.857542e-02 2.261396e-02 2.152933e-02 2.237956e-02 2.248873e-02 2.216929e-02 2.274534e-02 2.172884e-02 2.229685e-02 2.036209e-02 2.789203e-02 2.665648e-02 3.121219e-02 2.973308e-02 3.275898e-02 3.119558e-02 3.336495e-02 3.199109e-02 3.374343e-02 3.273788e-02 3.408708e-02 3.329918e-02 3.412798e-02 3.356377e-02 3.390235e-02 3.368135e-02 3.375656e-02 3.399206e-02 3.387087e-02 3.446167e-02 3.411683e-02 3.488300e-02 3.423719e-02 3.502498e-02 3.422680e-02 3.517612e-02 3.458572e-02 3.575634e-02 3.529216e-02 3.638247e-02 3.586054e-02 3.677122e-02 3.624806e-02 3.707202e-02 3.660494e-02 3.731715e-02 3.675747e-02 3.721102e-02 3.663628e-02 3.694740e-02 3.643802e-02 3.668695e-02 3.612012e-02 3.621204e-02 3.560641e-02 3.553728e-02 3.494439e-02 3.486634e-02 3.448935e-02 3.449138e-02 3.439591e-02 3.433381e-02 3.428257e-02 3.401890e-02 3.414365e-02 3.389558e-02 3.427089e-02 3.394221e-02 3.437732e-02 3.392221e-02 3.438079e-02 3.397109e-02 3.449498e-02 3.426770e-02 3.467316e-02 3.457101e-02 3.462003e-02 3.471876e-02 3.437112e-02 3.486752e-02 3.414609e-02 3.517180e-02 3.414710e-02 3.570905e-02 3.416937e-02 3.595925e-02 3.382749e-02 3.578117e-02 3.349005e-02 3.567245e-02 3.359241e-02 3.572185e-02 3.400916e-02 3.566014e-02 3.447207e-02 3.525803e-02 3.493862e-02 3.464892e-02 3.547565e-02 3.393436e-02 3.612528e-02 3.329051e-02 3.692321e-02 3.277401e-02 3.765017e-02 3.239299e-02 3.838358e-02 3.280219e-02 3.925740e-02 3.509020e-02 4.029261e-02 7.098636e-02 5.314312e-02 4.408511e-02 3.552781e-02 3.591190e-02 
9.814431e-03 1.257113e-02 1.761940e-02 2.558270e-02 3.669222e-02 1.484492e-02 2.822635e-02 2.089920e-02 2.363334e-02 2.135091e-02 2.128589e-02 2.152635e-02 1.858981e-02 2.403033e-02 2.190402e-02 2.619200e-02 2.287544e-02 2.680401e-02 2.259364e-02 2.550358e-02 2.081979e-02 2.101185e-02 2.061269e-02 2.173697e-02 2.098909e-02 2.193940e-02 2.146264e-02 2.192140e-02 2.185254e-02 2.177814e-02 2.217661e-02 2.166119e-02 2.248590e-02 2.160201e-02 2.271543e-02 2.158666e-02 2.285071e-02 2.157733e-02 2.295875e-02 2.167673e-02 2.310369e-02 2.192995e-02 2.327634e-02 2.223529e-02 2.331984e-02 2.243528e-02 2.325962e-02 2.263281e-02 2.333101e-02 2.301759e-02 2.349529e-02 2.339469e-02 2.360084e-02 2.368437e-02 2.367870e-02 2.391189e-02 2.369563e-02 2.398577e-02 2.361172e-02 2.393374e-02 2.343853e-02 2.375051e-02 2.319422e-02 2.346012e-02 2.291498e-02 2.312256e-02 2.262040e-02 2.275078e-02 2.240090e-02 2.247098e-02 2.228640e-02 2.230183e-02 2.223143e-02 2.205783e-02 2.208954e-02 2.177628e-02 2.196713e-02 2.160101e-02 2.194849e-02 2.149451e-02 2.194817e-02 2.140304e-02 2.194860e-02 2.137857e-02 2.202866e-02 2.145480e-02 2.212852e-02 2.155822e-02 2.217923e-02 2.167265e-02 2.218240e-02 2.176705e-02 2.215167e-02 2.187040e-02 2.216262e-02 2.208411e-02 2.212290e-02 2.227421e-02 2.192816e-02 2.228284e-02 2.166586e-02 2.232098e-02 2.150158e-02 2.249115e-02 2.139134e-02 2.267072e-02 2.130181e-02 2.280535e-02 2.123634e-02 2.296246e-02 2.123291e-02 2.312738e-02 2.124455e-02 2.324113e-02 2.131677e-02 2.329689e-02 2.156831e-02 2.330062e-02 2.208813e-02 2.321898e-02 2.350796e-02 2.295567e-02 3.117232e-02 3.418740e-02 3.696212e-02 1.733273e-02 1.387623e-02 1.037555e-02 
1.094924e-02 8.918097e-03 9.581003e-03 6.781062e-03 1.007861e-02 2.539333e-02 1.042831e-02 1.454030e-02 2.921627e-03 1.075043e-02 1.526681e-03 1.078119e-02 1.186263e-02 1.802859e-02 2.173199e-02 2.207863e-02 2.335104e-02 2.374171e-02 2.172197e-02 2.131884e-02 1.863246e-02 1.036079e-02 5.501104e-03 2.515556e-03 5.111541e-03 4.331099e-03 7.609562e-03 6.004115e-03 8.782613e-03 6.736058e-03 9.448555e-03 7.345578e-03 9.960263e-03 7.819266e-03 1.011405e-02 8.051261e-03 9.954631e-03 8.148026e-03 9.821119e-03 8.460513e-03 9.900479e-03 8.974216e-03 1.008496e-02 9.444094e-03 1.007056e-02 9.569508e-03 9.832022e-03 9.647958e-03 9.907550e-03 1.012742e-02 1.031436e-02 1.062564e-02 1.057475e-02 1.086729e-02 1.068007e-02 1.107062e-02 1.085642e-02 1.135516e-02 1.087694e-02 1.122694e-02 1.099804e-02 1.150036e-02 1.161156e-02 1.221565e-02 1.215887e-02 1.238413e-02 1.223954e-02 1.206723e-02 1.177974e-02 1.143778e-02 1.137811e-02 1.091459e-02 1.126604e-02 1.069187e-02 1.115804e-02 1.021338e-02 1.091471e-02 9.844493e-03 1.087463e-02 9.635819e-03 1.081731e-02 9.406030e-03 1.068744e-02 9.307660e-03 1.070446e-02 9.516429e-03 1.080440e-02 9.790289e-03 1.068903e-02 9.958828e-03 1.037744e-02 1.013782e-02 1.007430e-02 1.048427e-02 9.990441e-03 1.110178e-02 9.931626e-03 1.144613e-02 9.488150e-03 1.132162e-02 9.022460e-03 1.126943e-02 9.003155e-03 1.138664e-02 9.318703e-03 1.139028e-02 9.724632e-03 1.105707e-02 1.017718e-02 1.053307e-02 1.073029e-02 9.901484e-03 1.136279e-02 9.267622e-03 1.211623e-02 8.650971e-03 1.280775e-02 8.063407e-03 1.346533e-02 8.140317e-03 1.428364e-02 1.145476e-02 2.157127e-02 1.412806e-02 8.994604e-03 4.287397e-03 9.913795e-03 8.836873e-03 
3.960280e-03 1.331603e-03 3.717598e-03 2.814864e-03 3.180325e-03 9.197439e-03 9.305401e-03 5.945794e-03 5.834250e-03 8.813605e-03 9.512495e-03 1.819680e-02 2.380720e-02 2.459499e-02 1.135890e-02 7.719540e-03 2.747615e-03 4.702981e-03 6.690435e-03 1.215871e-02 2.490570e-02 2.474383e-02 1.594473e-02 1.065096e-02 6.467844e-03 4.807732e-03 2.684619e-03 2.992759e-03 1.142602e-03 2.675533e-03 7.740345e-04 2.542361e-03 8.130917e-04 2.393528e-03 9.544295e-04 2.294099e-03 1.186572e-03 2.184808e-03 1.354391e-03 1.928816e-03 1.368862e-03 1.593461e-03 1.318708e-03 1.318089e-03 1.330483e-03 1.187918e-03 1.386004e-03 1.029116e-03 1.234079e-03 6.601516e-04 8.624219e-04 2.555139e-04 5.087323e-04 3.498486e-04 3.929865e-04 8.038452e-04 7.291040e-04 1.487027e-03 9.553377e-04 1.286542e-03 9.901389e-04 1.376025e-03 1.521811e-03 1.395099e-03 1.043391e-03 1.254439e-03 1.093686e-03 1.216002e-03 8.850692e-04 8.994063e-04 9.965822e-04 1.282492e-03 9.583069e-04 1.216071e-03 8.352249e-04 1.337238e-03 8.185725e-04 1.430758e-03 6.940711e-04 1.404384e-03 5.557960e-04 1.378415e-03 4.970015e-04 1.293486e-03 4.466372e-04 1.049206e-03 3.922242e-04 7.763945e-04 4.579909e-04 6.005367e-04 6.952354e-04 4.148853e-04 9.441672e-04 1.987198e-04 1.061767e-03 4.886142e-04 1.130302e-03 7.557506e-04 1.373512e-03 7.422028e-04 1.590554e-03 6.802504e-04 1.537441e-03 6.795353e-04 1.253655e-03 5.883938e-04 9.334477e-04 4.642046e-04 7.360806e-04 8.072064e-04 8.410567e-04 1.468447e-03 1.225035e-03 2.165495e-03 1.744600e-03 2.807663e-03 2.091056e-03 3.401852e-03 2.067840e-03 3.838976e-03 1.286285e-03 5.252811e-03 5.132287e-03 4.579481e-03 3.135816e-03 1.242259e-03 4.119719e-03 1.433630e-03 
