# vtk DataFile Version 2.0
Comment goes here
ASCII

DATASET STRUCTURED_POINTS
FIELD FieldData 1
TIME 1 1 double
0.60000000
DIMENSIONS    128   16   1

ORIGIN    0.000   0.000   0.000
SPACING   0.0078125 0.015625   1.000

POINT_DATA   2048
SCALARS uMag double
LOOKUP_TABLE default

2.572437e-03 7.705381e-04 2.639556e-03 2.712092e-03 2.249480e-03 7.582270e-03 1.978573e-03 1.812539e-03 4.897432e-05 4.882359e-04 2.614261e-04 6.266103e-04 5.157241e-04 1.518835e-03 3.223987e-03 8.598774e-04 4.556995e-03 1.345837e-03 3.924595e-03 1.620761e-03 2.640471e-03 1.399383e-03 7.342321e-04 1.241184e-03 1.254800e-03 7.064087e-04 1.399352e-03 2.722547e-04 1.343072e-03 1.166324e-04 1.181692e-03 4.667323e-04 9.869933e-04 7.800542e-04 8.076206e-04 1.038629e-03 6.648816e-04 1.216931e-03 5.689160e-04 1.303107e-03 5.328671e-04 1.309110e-03 5.741308e-04 1.266730e-03 7.029093e-04 1.211959e-03 9.032118e-04 1.172885e-03 1.135169e-03 1.175527e-03 1.348442e-03 1.262338e-03 1.492984e-03 1.526797e-03 1.629349e-03 2.514077e-03 2.411179e-03 3.175270e-03 1.630878e-03 2.618908e-03 3.017546e-03 4.123336e-03 5.004790e-03 6.028661e-03 4.532916e-03 3.461496e-03 2.159080e-03 6.678490e-04 1.116141e-03 2.045377e-03 1.770625e-03 1.995442e-03 1.776645e-03 1.895279e-03 1.440269e-03 1.563047e-03 1.290700e-03 1.277188e-03 1.008917e-03 9.591220e-04 8.608441e-04 6.813128e-04 9.214803e-04 4.588132e-04 1.082586e-03 2.883646e-04 1.256086e-03 1.704154e-04 1.397192e-03 8.881236e-05 1.461892e-03 4.812208e-05 1.414748e-03 1.289260e-04 1.249270e-03 3.130634e-04 9.882167e-04 5.985982e-04 6.620659e-04 9.641274e-04 2.972836e-04 1.357279e-03 7.517071e-05 1.712168e-03 4.041918e-04 1.971104e-03 6.203940e-04 2.083450e-03 6.574967e-04 1.996152e-03 4.719851e-04 1.661230e-03 4.961351e-05 1.055379e-03 5.915630e-04 1.947448e-04 1.365751e-03 8.510880e-04 2.081467e-03 1.909839e-03 2.369418e-03 2.549828e-03 1.517331e-03 6.139625e-05 1.726278e-03 6.159092e-04 2.454811e-03 2.131395e-04 
2.246292e-03 7.413440e-04 2.898100e-03 2.329016e-03 5.282609e-03 8.772633e-03 6.057886e-03 2.109485e-03 2.074394e-03 6.329476e-04 3.799599e-03 1.038054e-03 7.211076e-03 2.699821e-03 5.972714e-03 1.560105e-03 5.313937e-03 1.444780e-03 4.671336e-03 2.576077e-03 4.751744e-03 4.434936e-03 1.958370e-03 1.807912e-03 1.479867e-03 7.533067e-04 1.057467e-03 2.653922e-04 6.945356e-04 1.608883e-04 4.082193e-04 1.815729e-04 3.197422e-04 2.455949e-04 3.991762e-04 3.593825e-04 5.023276e-04 4.509258e-04 5.935729e-04 4.661267e-04 6.578727e-04 4.135962e-04 6.542580e-04 3.243493e-04 5.888182e-04 2.024495e-04 5.386622e-04 1.681234e-04 6.511363e-04 5.545523e-04 1.048965e-03 1.384343e-03 2.027022e-03 3.217229e-03 4.707773e-03 7.011845e-03 6.561583e-03 6.161744e-03 4.587140e-03 6.656220e-03 6.155359e-03 6.210852e-03 5.067253e-03 1.475026e-03 5.650325e-03 6.010045e-03 7.250870e-03 7.189149e-03 5.258438e-03 2.199390e-03 6.892556e-04 6.667139e-04 1.609887e-04 1.602530e-03 1.007940e-03 1.218908e-03 6.175216e-04 1.178542e-03 6.279029e-04 9.244495e-04 3.930272e-04 6.244250e-04 1.915804e-04 5.725246e-04 1.500002e-04 7.092388e-04 2.475119e-04 8.103759e-04 3.722795e-04 8.444397e-04 4.181602e-04 8.654454e-04 3.360722e-04 8.533158e-04 2.369490e-04 7.335504e-04 3.734172e-04 5.008387e-04 6.306811e-04 3.544009e-04 9.315391e-04 5.473513e-04 1.276325e-03 8.129880e-04 1.616219e-03 1.003851e-03 1.849306e-03 1.102651e-03 1.893158e-03 1.055563e-03 1.751915e-03 8.211862e-04 1.454780e-03 6.369301e-04 1.110070e-03 1.136984e-03 1.057846e-03 2.108766e-03 1.469294e-03 3.233509e-03 1.866642e-03 4.154767e-03 3.043911e-03 3.239169e-03 3.466835e-03 1.034960e-03 2.426523e-03 1.346548e-04 
3.354030e-03 1.447677e-03 4.743855e-03 2.407342e-03 1.402868e-02 1.642623e-03 1.671245e-02 6.887784e-03 3.878641e-03 4.093351e-03 3.372539e-03 6.520080e-03 5.166604e-03 3.289872e-03 5.287575e-03 3.400665e-03 5.179314e-03 4.271757e-03 4.425356e-03 5.548158e-03 4.245503e-03 6.032932e-03 4.555412e-03 3.953680e-03 1.990631e-03 3.422118e-03 9.633426e-04 3.039385e-03 4.965338e-04 2.730986e-03 6.333605e-04 2.398213e-03 9.380952e-04 2.018175e-03 1.170176e-03 1.655873e-03 1.338019e-03 1.376485e-03 1.498877e-03 1.226764e-03 1.653971e-03 1.153331e-03 1.703869e-03 1.089752e-03 1.632646e-03 1.005501e-03 1.506853e-03 9.381208e-04 1.543039e-03 1.177000e-03 2.089613e-03 2.168280e-03 3.654174e-03 4.669160e-03 7.398775e-03 8.976195e-03 9.180360e-03 8.326966e-03 7.775367e-03 7.496237e-03 1.022309e-02 1.068788e-02 1.144181e-02 1.082478e-02 8.397239e-03 6.580136e-03 4.398704e-03 2.232919e-03 3.134831e-04 1.686268e-03 2.242060e-03 2.638882e-03 6.038555e-03 3.964069e-03 2.294444e-03 1.349989e-03 1.330157e-03 1.139664e-03 1.037361e-03 1.137802e-03 1.022409e-03 1.421015e-03 1.146952e-03 1.854605e-03 1.113806e-03 2.169692e-03 9.072927e-04 2.292691e-03 6.534958e-04 2.304515e-03 5.250398e-04 2.371171e-03 6.223017e-04 2.458594e-03 9.066616e-04 2.395999e-03 1.268006e-03 2.121450e-03 1.587454e-03 1.747169e-03 1.882299e-03 1.407875e-03 2.233603e-03 1.101146e-03 2.632796e-03 7.220749e-04 2.941752e-03 2.808719e-04 3.042292e-03 3.784466e-04 3.018442e-03 8.503781e-04 2.915593e-03 1.438341e-03 2.736562e-03 2.130218e-03 2.535364e-03 2.853258e-03 2.481388e-03 3.552867e-03 2.516259e-03 4.227853e-03 8.463672e-03 1.099873e-02 8.688167e-03 4.042951e-03 4.478353e-03 1.858755e-03 
1.580509e-03 2.870550e-03 1.288649e-03 7.607774e-03 1.340379e-02 1.482419e-02 8.993306e-03 2.426579e-03 3.905795e-03 2.223095e-03 4.832919e-03 3.437293e-03 7.126192e-03 2.125290e-03 5.766797e-03 1.414055e-03 4.812628e-03 1.583112e-03 4.154784e-03 2.555130e-03 3.557139e-03 4.279638e-03 2.614047e-03 2.616065e-03 1.466489e-03 2.072473e-03 1.241956e-03 1.881605e-03 1.123116e-03 1.858361e-03 1.112627e-03 1.750427e-03 1.137395e-03 1.558904e-03 1.026716e-03 1.342134e-03 7.600235e-04 1.130385e-03 3.671547e-04 9.162248e-04 7.497435e-05 6.600136e-04 1.045992e-04 5.046569e-04 1.404429e-04 5.540620e-04 7.278736e-05 7.226376e-04 1.625990e-04 1.110296e-03 7.116064e-04 2.024174e-03 1.991709e-03 3.930067e-03 4.730517e-03 7.496610e-03 7.474246e-03 8.277763e-03 6.588243e-03 7.170589e-03 5.855650e-03 5.939331e-03 3.401103e-03 3.901765e-03 3.297295e-03 4.360435e-03 4.997612e-03 5.924073e-03 7.140820e-03 7.197764e-03 7.190415e-03 8.653925e-03 7.181006e-03 5.181539e-03 4.131128e-03 3.270589e-03 2.205120e-03 1.862353e-03 9.930519e-04 9.788633e-04 5.848013e-04 4.613224e-04 7.440712e-04 6.327276e-04 5.629368e-04 9.534622e-04 2.723727e-04 1.055291e-03 1.373645e-04 8.752164e-04 1.048711e-04 8.852834e-04 6.989403e-05 1.140751e-03 3.944061e-04 1.268001e-03 9.403650e-04 1.302886e-03 1.290462e-03 1.407222e-03 1.293433e-03 1.541352e-03 1.103930e-03 1.522804e-03 9.020957e-04 1.160185e-03 8.130367e-04 5.846478e-04 7.183193e-04 4.826534e-04 1.066359e-03 1.055644e-03 1.787612e-03 1.843183e-03 2.517950e-03 2.703370e-03 3.069410e-03 3.450963e-03 3.322020e-03 3.676883e-03 2.805303e-03 1.867629e-03 3.387507e-03 2.734037e-02 3.558380e-03 8.292658e-03 4.059722e-03 2.876973e-03 
4.638438e-03 2.458221e-03 7.148563e-03 4.886919e-03 4.471197e-03 1.482191e-02 1.385920e-02 1.827335e-03 2.260369e-03 2.010405e-03 2.791161e-03 3.155119e-03 6.381591e-03 4.282823e-03 5.708762e-03 4.884909e-03 5.315822e-03 5.299772e-03 4.850321e-03 5.963783e-03 4.062249e-03 7.098204e-03 3.053334e-03 4.189833e-03 1.735187e-03 2.804710e-03 1.280146e-03 2.004994e-03 1.258692e-03 1.603679e-03 1.463251e-03 1.306813e-03 1.693132e-03 1.020897e-03 1.822054e-03 7.979348e-04 1.839168e-03 6.791189e-04 1.798187e-03 6.242960e-04 1.744564e-03 5.162822e-04 1.583205e-03 4.099682e-04 1.253067e-03 2.819795e-04 7.259659e-04 3.460692e-05 2.539238e-04 6.483730e-04 1.388749e-03 1.997270e-03 3.607024e-03 4.846676e-03 7.945041e-03 1.080294e-02 1.501781e-02 1.450823e-02 1.414984e-02 1.297610e-02 1.335112e-02 1.092999e-02 9.416355e-03 8.560631e-03 8.264481e-03 9.190192e-03 8.755904e-03 9.278001e-03 9.663435e-03 9.022456e-03 8.679633e-03 1.078097e-02 7.951426e-03 6.922533e-03 5.210105e-03 4.258180e-03 2.830241e-03 2.197659e-03 1.574952e-03 9.550246e-04 1.237700e-03 2.912123e-04 1.200415e-03 7.616675e-04 1.036782e-03 1.241399e-03 8.034219e-04 1.458676e-03 6.150863e-04 1.462160e-03 5.809888e-04 1.515353e-03 7.149806e-04 1.627076e-03 9.887087e-04 1.581126e-03 1.378313e-03 1.344860e-03 1.726156e-03 1.119322e-03 1.994835e-03 1.072558e-03 2.279550e-03 1.063418e-03 2.590443e-03 8.435173e-04 2.798958e-03 4.606036e-04 2.746723e-03 2.172912e-04 2.505374e-03 4.324965e-04 2.164842e-03 1.086192e-03 1.806375e-03 1.963937e-03 1.759183e-03 2.925076e-03 2.554608e-03 3.830144e-03 3.859457e-03 4.603409e-03 6.492845e-03 1.724162e-02 1.019298e-02 8.078408e-03 6.673169e-03 3.011407e-03 
7.390702e-03 7.091665e-03 9.089993e-03 9.932060e-03 1.243931e-02 1.036873e-02 1.350415e-02 4.154498e-03 6.491872e-03 3.728826e-03 6.064311e-03 5.872524e-03 6.880383e-03 5.878260e-03 6.427728e-03 6.043686e-03 6.260558e-03 6.240758e-03 6.055699e-03 6.421113e-03 5.857358e-03 6.844983e-03 5.777983e-03 6.923025e-03 5.117515e-03 6.988039e-03 4.988471e-03 6.883798e-03 5.069009e-03 6.770241e-03 5.273460e-03 6.621922e-03 5.484474e-03 6.415770e-03 5.658087e-03 6.193444e-03 5.796913e-03 6.003298e-03 5.918710e-03 5.884045e-03 6.014868e-03 5.798769e-03 6.015507e-03 5.685370e-03 5.882462e-03 5.509068e-03 5.602218e-03 5.240082e-03 5.195482e-03 4.909474e-03 4.821355e-03 4.866624e-03 5.374180e-03 6.762765e-03 9.010995e-03 1.031045e-02 5.384044e-03 2.212717e-03 3.851471e-03 3.765763e-03 5.113384e-03 7.552861e-03 7.299055e-03 8.336278e-03 9.376594e-03 1.049574e-02 1.157902e-02 1.260434e-02 1.351901e-02 1.403363e-02 1.435472e-02 1.675729e-02 1.828388e-02 1.581602e-02 1.052501e-02 7.498895e-03 4.771831e-03 3.637841e-03 2.604571e-03 2.997223e-03 3.186529e-03 4.041452e-03 4.178811e-03 5.084186e-03 4.809332e-03 5.778859e-03 5.071330e-03 6.161963e-03 5.121698e-03 6.367990e-03 5.156016e-03 6.536364e-03 5.289286e-03 6.670209e-03 5.487637e-03 6.680711e-03 5.684869e-03 6.522521e-03 5.870693e-03 6.256060e-03 6.103197e-03 5.978814e-03 6.406582e-03 5.733367e-03 6.741653e-03 5.514890e-03 7.004773e-03 5.295344e-03 7.116141e-03 5.143015e-03 7.102962e-03 5.149653e-03 6.958985e-03 5.328358e-03 6.639852e-03 5.658967e-03 6.096882e-03 6.111799e-03 5.307565e-03 6.704184e-03 4.296251e-03 7.410686e-03 4.729477e-03 1.010216e-02 1.264092e-02 8.283714e-03 8.438443e-03 6.641475e-03 
8.111995e-03 7.658299e-03 8.782045e-03 9.330710e-03 1.046743e-02 1.256070e-02 8.594663e-03 6.819959e-03 9.057822e-03 6.315300e-03 8.645704e-03 7.129650e-03 8.681855e-03 6.425651e-03 7.004606e-03 6.590766e-03 6.802815e-03 6.809914e-03 6.571003e-03 7.028837e-03 6.378545e-03 7.484152e-03 7.183150e-03 8.545763e-03 7.343259e-03 8.923350e-03 7.396171e-03 8.984345e-03 7.445307e-03 8.902967e-03 7.538982e-03 8.751646e-03 7.654560e-03 8.560704e-03 7.768303e-03 8.356093e-03 7.865636e-03 8.158698e-03 7.935920e-03 7.977979e-03 7.961540e-03 7.800636e-03 7.913581e-03 7.602164e-03 7.771570e-03 7.364569e-03 7.535832e-03 7.094654e-03 7.257648e-03 6.882565e-03 7.123062e-03 7.032316e-03 7.623988e-03 8.244237e-03 9.549121e-03 1.030454e-02 1.044515e-02 9.883367e-03 9.512470e-03 8.901048e-03 9.388069e-03 8.646169e-03 8.757899e-03 7.014129e-03 6.839712e-03 6.407634e-03 5.790950e-03 5.492328e-03 5.965216e-03 4.644736e-03 5.596323e-03 5.461786e-03 8.568628e-03 1.279632e-02 1.150321e-02 9.594484e-03 8.244338e-03 7.440009e-03 7.019378e-03 6.898711e-03 6.896126e-03 7.128396e-03 7.152705e-03 7.559459e-03 7.411199e-03 7.936698e-03 7.563971e-03 8.199568e-03 7.633435e-03 8.368097e-03 7.681736e-03 8.477915e-03 7.754961e-03 8.535375e-03 7.860070e-03 8.523179e-03 7.986914e-03 8.434042e-03 8.131611e-03 8.288430e-03 8.301099e-03 8.120039e-03 8.493470e-03 7.953429e-03 8.687481e-03 7.801867e-03 8.845585e-03 7.677120e-03 8.937420e-03 7.609044e-03 8.958970e-03 7.630717e-03 8.912608e-03 7.756730e-03 8.806630e-03 7.985176e-03 8.669363e-03 8.298713e-03 8.561383e-03 8.649907e-03 8.549875e-03 8.871934e-03 8.439925e-03 1.054686e-02 9.388635e-03 8.293311e-03 8.313559e-03 7.417138e-03 
8.405618e-03 8.465566e-03 8.648373e-03 8.994889e-03 9.008274e-03 9.504958e-03 8.742133e-03 8.434832e-03 8.583508e-03 8.387466e-03 8.392026e-03 8.996386e-03 7.107847e-03 6.325067e-03 6.565959e-03 6.357739e-03 6.459570e-03 6.438891e-03 6.370866e-03 6.539269e-03 6.330615e-03 6.702277e-03 7.521766e-03 7.465923e-03 7.153305e-03 7.935661e-03 7.147346e-03 8.279728e-03 7.240798e-03 8.444379e-03 7.374581e-03 8.475541e-03 7.520295e-03 8.419655e-03 7.662430e-03 8.319612e-03 7.793061e-03 8.210083e-03 7.906173e-03 8.113098e-03 7.992372e-03 8.034299e-03 8.040566e-03 7.974242e-03 8.054823e-03 7.948253e-03 8.072183e-03 8.008995e-03 8.187647e-03 8.276774e-03 8.576768e-03 8.948191e-03 9.477071e-03 1.025722e-02 1.103425e-02 1.178494e-02 1.231271e-02 1.228690e-02 1.230496e-02 1.202860e-02 1.260735e-02 1.308183e-02 1.217707e-02 1.263135e-02 1.236797e-02 1.228998e-02 1.226229e-02 1.153509e-02 1.108813e-02 1.067835e-02 1.006223e-02 8.632014e-03 1.186592e-02 1.155643e-02 1.075304e-02 9.944618e-03 9.227054e-03 8.648708e-03 8.141081e-03 7.949393e-03 7.621473e-03 7.803713e-03 7.486852e-03 7.948362e-03 7.501250e-03 8.165983e-03 7.533879e-03 8.354360e-03 7.555003e-03 8.488316e-03 7.585023e-03 8.571430e-03 7.647886e-03 8.601249e-03 7.747899e-03 8.566703e-03 7.877556e-03 8.464905e-03 8.031548e-03 8.312227e-03 8.209452e-03 8.137466e-03 8.403831e-03 7.967859e-03 8.593365e-03 7.824400e-03 8.746282e-03 7.726032e-03 8.835980e-03 7.700685e-03 8.853145e-03 7.778099e-03 8.798890e-03 7.975885e-03 8.685795e-03 8.295843e-03 8.544232e-03 8.715808e-03 8.424383e-03 9.168900e-03 8.392609e-03 9.513091e-03 8.494706e-03 9.503923e-03 8.806193e-03 8.728943e-03 8.499136e-03 8.339839e-03 
8.491628e-03 8.408064e-03 8.788292e-03 9.047155e-03 9.168707e-03 9.619943e-03 8.997007e-03 8.690547e-03 9.074683e-03 8.623826e-03 8.938560e-03 9.129604e-03 7.100203e-03 6.686438e-03 6.991372e-03 6.749607e-03 6.856684e-03 6.871161e-03 6.727036e-03 7.001851e-03 6.654459e-03 7.098056e-03 7.601890e-03 7.617993e-03 7.155974e-03 8.067064e-03 7.203161e-03 8.407912e-03 7.340076e-03 8.551316e-03 7.482685e-03 8.551368e-03 7.619627e-03 8.468407e-03 7.750538e-03 8.349836e-03 7.875052e-03 8.229755e-03 7.991411e-03 8.130628e-03 8.097657e-03 8.067062e-03 8.196653e-03 8.054095e-03 8.305813e-03 8.120379e-03 8.470476e-03 8.323502e-03 8.776277e-03 8.758536e-03 9.346801e-03 9.539655e-03 1.030536e-02 1.074460e-02 1.166772e-02 1.212634e-02 1.282635e-02 1.268034e-02 1.310952e-02 1.269753e-02 1.305011e-02 1.171611e-02 1.092086e-02 1.037960e-02 1.046938e-02 1.088837e-02 1.197864e-02 1.240170e-02 1.367230e-02 1.375112e-02 1.597643e-02 1.514893e-02 1.623050e-02 1.531186e-02 1.451775e-02 1.314109e-02 1.237527e-02 1.122563e-02 1.063653e-02 9.868110e-03 9.468759e-03 9.093325e-03 8.774629e-03 8.729688e-03 8.380337e-03 8.592180e-03 8.150755e-03 8.554375e-03 8.013395e-03 8.547806e-03 7.940173e-03 8.538987e-03 7.922806e-03 8.509879e-03 7.956115e-03 8.449093e-03 8.032335e-03 8.352092e-03 8.142115e-03 8.223830e-03 8.275859e-03 8.078391e-03 8.422283e-03 7.934764e-03 8.565955e-03 7.812494e-03 8.688339e-03 7.730782e-03 8.773206e-03 7.709047e-03 8.812442e-03 7.765266e-03 8.809584e-03 7.911526e-03 8.781158e-03 8.147607e-03 8.753746e-03 8.450318e-03 8.748962e-03 8.758573e-03 8.756027e-03 8.987143e-03 8.726188e-03 9.102188e-03 8.681164e-03 8.532032e-03 8.478755e-03 8.216396e-03 
8.406592e-03 8.466893e-03 8.648451e-03 8.996240e-03 9.007525e-03 9.506739e-03 8.741962e-03 8.436407e-03 8.582983e-03 8.388212e-03 8.391053e-03 8.995650e-03 7.109874e-03 6.324578e-03 6.565634e-03 6.357188e-03 6.459127e-03 6.438263e-03 6.370220e-03 6.538736e-03 6.329987e-03 6.707122e-03 7.516488e-03 7.466933e-03 7.150078e-03 7.942168e-03 7.146874e-03 8.287819e-03 7.242434e-03 8.451172e-03 7.379639e-03 8.483995e-03 7.535839e-03 8.436736e-03 7.696931e-03 8.353039e-03 7.857352e-03 8.271500e-03 8.015188e-03 8.219656e-03 8.168859e-03 8.216663e-03 8.321691e-03 8.277985e-03 8.487116e-03 8.426268e-03 8.702621e-03 8.704521e-03 9.033374e-03 9.168805e-03 9.549071e-03 9.849997e-03 1.026575e-02 1.068879e-02 1.106035e-02 1.131215e-02 1.100366e-02 1.079409e-02 1.128400e-02 1.168252e-02 1.205787e-02 1.275080e-02 1.350387e-02 1.401248e-02 1.437578e-02 1.478299e-02 1.476914e-02 1.475484e-02 1.575979e-02 1.526485e-02 1.665527e-02 1.829757e-02 1.766173e-02 1.590076e-02 1.497712e-02 1.358736e-02 1.281184e-02 1.176312e-02 1.112628e-02 1.046455e-02 9.915487e-03 9.646900e-03 9.097265e-03 9.195102e-03 8.565554e-03 8.978542e-03 8.223298e-03 8.884967e-03 8.003782e-03 8.838478e-03 7.873918e-03 8.796297e-03 7.823440e-03 8.738210e-03 7.848920e-03 8.651743e-03 7.939390e-03 8.526946e-03 8.076295e-03 8.362178e-03 8.240359e-03 8.171865e-03 8.417165e-03 7.983508e-03 8.589737e-03 7.825490e-03 8.735494e-03 7.724686e-03 8.830298e-03 7.703385e-03 8.853822e-03 7.781745e-03 8.801583e-03 7.976693e-03 8.686984e-03 8.292417e-03 8.543932e-03 8.710950e-03 8.425479e-03 9.166123e-03 8.396722e-03 9.513603e-03 8.500030e-03 9.506158e-03 8.809387e-03 8.730961e-03 8.501068e-03 8.341446e-03 
8.113696e-03 7.660507e-03 8.782205e-03 9.332942e-03 1.046550e-02 1.256508e-02 8.593321e-03 6.822077e-03 9.054423e-03 6.315504e-03 8.641794e-03 7.128725e-03 8.686796e-03 6.425976e-03 7.005128e-03 6.589847e-03 6.802188e-03 6.808435e-03 6.568965e-03 7.027539e-03 6.375144e-03 7.492695e-03 7.178834e-03 8.550043e-03 7.349491e-03 8.942784e-03 7.411893e-03 9.012672e-03 7.468917e-03 8.935601e-03 7.574490e-03 8.796589e-03 7.717540e-03 8.634379e-03 7.877899e-03 8.477441e-03 8.047946e-03 8.356410e-03 8.227294e-03 8.292608e-03 8.415251e-03 8.301678e-03 8.615390e-03 8.393908e-03 8.835209e-03 8.582508e-03 9.103087e-03 8.898620e-03 9.472155e-03 9.382775e-03 9.997252e-03 1.005247e-02 1.068520e-02 1.084948e-02 1.144484e-02 1.159306e-02 1.196991e-02 1.189547e-02 1.223678e-02 1.226790e-02 1.271963e-02 1.281096e-02 1.331322e-02 1.332942e-02 1.371581e-02 1.370334e-02 1.422121e-02 1.413816e-02 1.490532e-02 1.464361e-02 1.547758e-02 1.540752e-02 1.555283e-02 1.458761e-02 1.443387e-02 1.329382e-02 1.302639e-02 1.194266e-02 1.166543e-02 1.080812e-02 1.053142e-02 9.987554e-03 9.669125e-03 9.466130e-03 9.054054e-03 9.170885e-03 8.626787e-03 9.011162e-03 8.332416e-03 8.914620e-03 8.139041e-03 8.836552e-03 8.036769e-03 8.757942e-03 8.024312e-03 8.665623e-03 8.089177e-03 8.542647e-03 8.207435e-03 8.377474e-03 8.353896e-03 8.179829e-03 8.514960e-03 7.978166e-03 8.677560e-03 7.800364e-03 8.822287e-03 7.672728e-03 8.925259e-03 7.613123e-03 8.960091e-03 7.637134e-03 8.918342e-03 7.758839e-03 8.810051e-03 7.979787e-03 8.670773e-03 8.290455e-03 8.566170e-03 8.645184e-03 8.559910e-03 8.872677e-03 8.450225e-03 1.055196e-02 9.393946e-03 8.297232e-03 8.316767e-03 7.420027e-03 
7.393023e-03 7.094085e-03 9.090221e-03 9.933412e-03 1.243779e-02 1.037667e-02 1.351114e-02 4.158434e-03 6.494073e-03 3.729868e-03 6.062600e-03 5.862998e-03 6.882123e-03 5.877157e-03 6.427111e-03 6.042127e-03 6.259346e-03 6.238385e-03 6.052935e-03 6.417812e-03 5.854356e-03 6.851798e-03 5.747189e-03 6.922909e-03 5.100053e-03 7.012103e-03 4.988230e-03 6.913053e-03 5.062234e-03 6.771477e-03 5.247755e-03 6.608727e-03 5.475005e-03 6.418257e-03 5.681939e-03 6.216271e-03 5.871575e-03 6.065829e-03 6.061901e-03 5.990244e-03 6.246642e-03 6.006162e-03 6.427166e-03 6.100456e-03 6.568717e-03 6.239882e-03 6.676874e-03 6.448010e-03 6.824586e-03 6.787014e-03 7.108968e-03 7.300789e-03 7.551300e-03 7.913727e-03 8.045625e-03 8.464131e-03 8.444106e-03 8.837646e-03 8.847429e-03 9.355267e-03 9.464123e-03 1.006157e-02 1.031309e-02 1.084454e-02 1.116812e-02 1.155114e-02 1.194936e-02 1.207916e-02 1.262843e-02 1.250493e-02 1.301763e-02 1.274526e-02 1.285182e-02 1.196369e-02 1.183418e-02 1.076425e-02 1.054898e-02 9.565576e-03 9.300270e-03 8.571234e-03 8.211943e-03 7.836321e-03 7.338890e-03 7.391610e-03 6.725077e-03 7.198610e-03 6.304694e-03 7.124352e-03 5.992835e-03 7.067650e-03 5.756403e-03 6.980962e-03 5.618503e-03 6.885232e-03 5.627387e-03 6.787292e-03 5.769880e-03 6.645073e-03 5.986051e-03 6.406751e-03 6.211385e-03 6.085402e-03 6.448842e-03 5.757659e-03 6.696785e-03 5.468725e-03 6.926270e-03 5.267643e-03 7.095363e-03 5.165017e-03 7.122512e-03 5.175979e-03 6.979632e-03 5.336248e-03 6.640526e-03 5.637260e-03 6.082265e-03 6.082956e-03 5.304301e-03 6.692336e-03 4.316541e-03 7.422222e-03 4.760345e-03 1.011489e-02 1.264900e-02 8.292043e-03 8.443069e-03 6.645970e-03 
4.641168e-03 2.454120e-03 7.151127e-03 4.876231e-03 4.479123e-03 1.481616e-02 1.387463e-02 1.831548e-03 2.287523e-03 2.020444e-03 2.807890e-03 3.154248e-03 6.390028e-03 4.284065e-03 5.710390e-03 4.877463e-03 5.311749e-03 5.293030e-03 4.846892e-03 5.962174e-03 4.051748e-03 7.077868e-03 3.024469e-03 4.180990e-03 1.730411e-03 2.843266e-03 1.260786e-03 2.067696e-03 1.229742e-03 1.638374e-03 1.435448e-03 1.379202e-03 1.693545e-03 1.144641e-03 1.880339e-03 9.592109e-04 1.968187e-03 8.618806e-04 2.025531e-03 8.085032e-04 2.067918e-03 8.402689e-04 2.109658e-03 9.632685e-04 2.094155e-03 1.189485e-03 2.019710e-03 1.470520e-03 1.977485e-03 1.822911e-03 2.097006e-03 2.328993e-03 2.368447e-03 2.910709e-03 2.670264e-03 3.405395e-03 2.916035e-03 3.660421e-03 3.019560e-03 3.725541e-03 3.197392e-03 3.837069e-03 3.491032e-03 3.982146e-03 3.824910e-03 4.074162e-03 4.171110e-03 4.108802e-03 4.412823e-03 4.043274e-03 4.486190e-03 3.859666e-03 4.329919e-03 3.460779e-03 3.955152e-03 2.993726e-03 3.464474e-03 2.556777e-03 2.926354e-03 2.218652e-03 2.379424e-03 1.971610e-03 1.913927e-03 1.824656e-03 1.632652e-03 1.831210e-03 1.404085e-03 1.881630e-03 1.161378e-03 1.867106e-03 9.628857e-04 1.747329e-03 9.033518e-04 1.613543e-03 1.031102e-03 1.539098e-03 1.338829e-03 1.434754e-03 1.759845e-03 1.206916e-03 2.149445e-03 9.832598e-04 2.430289e-03 8.690401e-04 2.634110e-03 7.843614e-04 2.745481e-03 6.005308e-04 2.751913e-03 2.064445e-04 2.555599e-03 4.095175e-04 2.178637e-03 1.109813e-03 1.748574e-03 1.954873e-03 1.742069e-03 2.867395e-03 2.610256e-03 3.778392e-03 3.895785e-03 4.608298e-03 6.492608e-03 1.720988e-02 1.019990e-02 8.091192e-03 6.678288e-03 3.018991e-03 
1.581809e-03 2.869892e-03 1.280058e-03 7.606103e-03 1.339448e-02 1.482102e-02 8.996463e-03 2.412895e-03 3.875492e-03 2.234657e-03 4.795301e-03 3.440110e-03 7.095890e-03 2.142649e-03 5.750896e-03 1.430731e-03 4.820494e-03 1.581653e-03 4.178423e-03 2.558032e-03 3.557217e-03 4.292765e-03 2.611717e-03 2.593299e-03 1.396357e-03 2.072254e-03 1.209675e-03 1.884730e-03 1.176933e-03 1.833792e-03 1.140838e-03 1.766634e-03 1.095613e-03 1.599275e-03 9.921072e-04 1.406414e-03 7.066255e-04 1.228660e-03 3.753159e-04 1.049123e-03 2.128745e-04 8.987810e-04 4.506384e-04 7.993495e-04 6.527517e-04 8.358002e-04 8.229288e-04 8.721116e-04 1.017494e-03 7.969314e-04 1.280592e-03 7.880336e-04 1.475570e-03 8.839970e-04 1.511259e-03 9.572567e-04 1.479697e-03 9.636636e-04 1.475917e-03 9.070753e-04 1.411609e-03 9.896285e-04 1.402736e-03 1.168065e-03 1.516969e-03 1.395873e-03 1.750908e-03 1.578487e-03 2.009607e-03 1.732644e-03 2.137793e-03 1.785598e-03 2.074757e-03 1.675924e-03 1.838679e-03 1.488693e-03 1.551265e-03 1.346911e-03 1.267845e-03 1.306654e-03 1.007328e-03 1.268683e-03 8.535431e-04 1.106179e-03 8.584521e-04 1.024077e-03 7.370335e-04 1.037212e-03 4.630395e-04 1.054608e-03 2.464547e-04 1.043058e-03 3.146925e-04 1.136828e-03 4.498246e-04 1.373620e-03 6.874067e-04 1.538455e-03 1.041393e-03 1.522790e-03 1.309030e-03 1.453234e-03 1.281653e-03 1.324324e-03 1.056027e-03 1.063560e-03 7.019753e-04 6.512867e-04 6.409103e-04 3.926514e-04 1.054430e-03 1.060501e-03 1.731164e-03 1.908378e-03 2.434136e-03 2.752878e-03 3.056577e-03 3.413533e-03 3.389714e-03 3.586341e-03 2.905454e-03 1.815476e-03 3.387152e-03 2.731020e-02 3.571986e-03 8.298883e-03 4.066107e-03 2.880241e-03 
3.353428e-03 1.450194e-03 4.739738e-03 2.407265e-03 1.402457e-02 1.634789e-03 1.671721e-02 6.872119e-03 3.877462e-03 4.093600e-03 3.366519e-03 6.527591e-03 5.169138e-03 3.266193e-03 5.289454e-03 3.370749e-03 5.183216e-03 4.251835e-03 4.424514e-03 5.540241e-03 4.243703e-03 6.009667e-03 4.545674e-03 3.949171e-03 2.011862e-03 3.448896e-03 9.629725e-04 3.066050e-03 4.605814e-04 2.718467e-03 6.009291e-04 2.376396e-03 9.237143e-04 2.012258e-03 1.186883e-03 1.657971e-03 1.389433e-03 1.395065e-03 1.579249e-03 1.245569e-03 1.748008e-03 1.231657e-03 1.885665e-03 1.331127e-03 1.927674e-03 1.475600e-03 1.877682e-03 1.638505e-03 1.833979e-03 1.874477e-03 1.938212e-03 2.301725e-03 2.250960e-03 2.915239e-03 2.727599e-03 3.601956e-03 3.281090e-03 4.153337e-03 3.623107e-03 4.457653e-03 4.162426e-03 4.899812e-03 4.773851e-03 5.270476e-03 5.105030e-03 5.117478e-03 5.078314e-03 4.666007e-03 4.747342e-03 4.122226e-03 4.394039e-03 3.726943e-03 4.080088e-03 3.345839e-03 3.774408e-03 3.019253e-03 3.384180e-03 2.694252e-03 2.903296e-03 2.433449e-03 2.374191e-03 2.270591e-03 1.892481e-03 2.257414e-03 1.554200e-03 2.388549e-03 1.275953e-03 2.535189e-03 1.007154e-03 2.602822e-03 7.956504e-04 2.562373e-03 7.333205e-04 2.480234e-03 8.688775e-04 2.387232e-03 1.174113e-03 2.216696e-03 1.570742e-03 1.892734e-03 1.942961e-03 1.467134e-03 2.265796e-03 1.042090e-03 2.565379e-03 6.377953e-04 2.825287e-03 2.692447e-04 3.013681e-03 3.581779e-04 3.037619e-03 8.771069e-04 2.916183e-03 1.478967e-03 2.697613e-03 2.132567e-03 2.514328e-03 2.811212e-03 2.516603e-03 3.518660e-03 2.535823e-03 4.248102e-03 8.446633e-03 1.100787e-02 8.700952e-03 4.046141e-03 4.482863e-03 1.859611e-03 
2.245505e-03 7.413339e-04 2.896297e-03 2.327338e-03 5.282253e-03 8.772849e-03 6.059197e-03 2.102386e-03 2.066749e-03 6.368974e-04 3.789481e-03 1.042200e-03 7.204945e-03 2.724906e-03 5.970058e-03 1.578000e-03 5.317822e-03 1.447530e-03 4.678236e-03 2.586621e-03 4.769208e-03 4.431444e-03 1.977443e-03 1.804091e-03 1.486006e-03 7.358607e-04 1.056818e-03 2.581288e-04 7.035644e-04 2.043746e-04 4.243759e-04 2.493872e-04 3.295750e-04 2.904852e-04 4.317886e-04 3.572594e-04 5.691298e-04 4.006395e-04 6.950377e-04 3.772582e-04 7.905172e-04 2.790128e-04 8.490968e-04 1.929508e-04 8.569731e-04 3.298909e-04 8.412115e-04 6.137745e-04 8.828109e-04 1.026775e-03 1.090345e-03 1.628831e-03 1.545409e-03 2.424780e-03 2.250361e-03 3.342542e-03 3.048800e-03 3.869192e-03 2.927166e-03 3.466692e-03 2.774856e-03 2.930231e-03 2.513597e-03 2.627562e-03 2.393512e-03 2.586893e-03 2.778565e-03 2.763093e-03 2.936478e-03 2.495175e-03 2.711900e-03 1.952999e-03 2.213905e-03 1.357463e-03 1.797742e-03 9.964099e-04 1.419531e-03 7.153420e-04 1.065457e-03 5.104963e-04 7.422031e-04 4.401840e-04 4.963600e-04 5.330293e-04 3.662242e-04 7.064604e-04 3.051191e-04 8.607572e-04 2.925518e-04 9.398245e-04 3.114930e-04 9.274062e-04 2.911209e-04 8.482422e-04 1.991490e-04 7.195886e-04 2.830965e-04 5.388980e-04 5.971772e-04 3.784066e-04 9.518371e-04 4.967430e-04 1.297370e-03 7.793304e-04 1.603210e-03 1.014804e-03 1.819184e-03 1.111219e-03 1.891354e-03 1.038080e-03 1.763549e-03 8.113971e-04 1.452390e-03 6.527995e-04 1.086266e-03 1.131931e-03 1.053525e-03 2.087490e-03 1.489180e-03 3.223850e-03 1.873675e-03 4.168882e-03 3.029785e-03 3.254498e-03 3.472359e-03 1.044152e-03 2.428133e-03 1.417762e-04 
