# vtk DataFile Version 2.0
Comment goes here
ASCII

DATASET STRUCTURED_POINTS
FIELD FieldData 1
TIME 1 1 double
0.93000000
DIMENSIONS    128   16   1

ORIGIN    0.000   0.000   0.000
SPACING   0.0078125 0.015625   1.000

POINT_DATA   2048
SCALARS uY double
LOOKUP_TABLE default

2.142594e-06 -2.852184e-06 2.212928e-06 -3.164583e-06 2.873431e-06 -3.538698e-06 5.382610e-06 -3.583374e-06 3.773444e-06 -2.115174e-06 2.829287e-06 -2.595040e-07 1.642676e-06 4.270637e-06 -5.461038e-07 8.981152e-06 -2.362063e-06 1.448826e-05 -1.522067e-06 2.215013e-05 4.993567e-06 3.584411e-05 1.247572e-05 4.634947e-05 2.165286e-05 5.577211e-05 3.268610e-05 6.598929e-05 5.027360e-05 8.325423e-05 8.188946e-05 1.146813e-04 1.327233e-04 1.635494e-04 2.034301e-04 2.311297e-04 2.963516e-04 3.249865e-04 4.231164e-04 4.633046e-04 6.056400e-04 6.744658e-04 8.760981e-04 9.975949e-04 1.277763e-03 1.482900e-03 1.867155e-03 2.194250e-03 2.716023e-03 3.200677e-03 3.884944e-03 4.513655e-03 5.305722e-03 5.871603e-03 6.471899e-03 6.398353e-03 5.944829e-03 2.552056e-03 -1.204621e-03 -1.732711e-03 -3.444279e-03 -4.432054e-03 -5.094861e-03 -7.214776e-03 -8.356928e-03 -9.095191e-03 -9.446194e-03 -9.788693e-03 -9.503630e-03 -7.951558e-03 -7.227509e-03 -5.124875e-03 -4.153200e-04 2.513990e-03 3.557235e-03 3.858236e-03 3.694381e-03 3.363768e-03 2.863587e-03 2.447982e-03 1.963212e-03 1.649369e-03 1.264965e-03 1.067458e-03 7.832875e-04 6.756659e-04 4.740772e-04 4.258845e-04 2.863205e-04 2.724977e-04 1.760848e-04 1.782500e-04 1.093476e-04 1.158365e-04 6.544542e-05 7.243489e-05 3.732173e-05 4.452016e-05 2.244520e-05 2.951352e-05 1.697793e-05 2.224286e-05 1.487418e-05 1.713192e-05 1.241920e-05 1.224513e-05 9.474114e-06 8.180966e-06 7.618686e-06 5.910268e-06 6.710162e-06 3.526179e-06 5.071314e-06 7.840935e-07 4.108870e-06 -8.014584e-07 4.191815e-06 -1.663095e-06 4.823763e-06 -2.085905e-06 5.514881e-06 -2.806061e-06 6.360496e-06 -3.234830e-06 3.393212e-06 -3.330913e-06 2.536076e-06 -2.956606e-06 
1.786627e-05 1.207766e-03 1.671813e-03 1.355069e-03 -1.098467e-04 -6.252859e-03 2.790874e-03 4.455140e-03 4.121621e-03 8.370502e-03 9.959432e-03 1.790911e-02 2.225266e-02 2.332202e-02 1.184293e-02 6.139380e-03 2.268067e-03 -2.545487e-03 -7.073878e-03 -1.122657e-02 -2.311718e-02 -2.334997e-02 -1.582443e-02 -1.078336e-02 -6.651946e-03 -4.457857e-03 -2.847218e-03 -1.814288e-03 -1.212154e-03 -6.899746e-04 -4.791943e-04 -2.288274e-04 -1.248581e-04 -5.781351e-05 6.866312e-05 -1.115768e-05 1.919352e-04 -9.001907e-06 2.859253e-04 -7.338389e-06 3.738614e-04 2.570462e-05 4.796856e-04 1.257222e-04 6.401421e-04 3.428678e-04 9.181977e-04 7.646502e-04 1.440107e-03 1.569919e-03 2.464175e-03 3.119205e-03 4.484236e-03 6.117477e-03 8.677860e-03 1.255958e-02 1.429134e-02 2.133033e-04 -8.822641e-03 1.389901e-03 5.293496e-03 1.012560e-02 1.261835e-02 -3.237404e-04 -1.140960e-02 -1.346977e-02 -1.656913e-02 -2.256345e-02 -2.219348e-02 -1.683778e-02 -2.107501e-02 -1.525537e-02 6.422287e-03 1.705958e-02 1.317962e-02 8.932952e-03 5.922924e-03 4.017611e-03 2.644745e-03 1.720180e-03 1.134868e-03 6.242442e-04 4.803373e-04 9.919068e-05 2.249746e-04 -1.534722e-04 1.512428e-04 -2.622998e-04 1.518979e-04 -2.853231e-04 1.665009e-04 -2.556504e-04 1.567417e-04 -1.949201e-04 1.053678e-04 -1.085704e-04 1.736403e-05 5.961819e-06 -9.382844e-05 1.446419e-04 -2.159643e-04 2.915674e-04 -3.387082e-04 4.238709e-04 -4.474846e-04 5.203228e-04 -5.219885e-04 5.617903e-04 -5.421600e-04 5.299120e-04 -4.954082e-04 4.038549e-04 -3.801405e-04 1.642974e-04 -2.044046e-04 -2.154934e-04 6.348419e-06 -7.963127e-04 2.234454e-04 -1.721525e-03 5.015241e-04 -3.370179e-03 4.810988e-03 3.224321e-03 -1.509078e-03 -9.077552e-04 -1.796629e-03 -2.856952e-04 
-3.261852e-04 3.009735e-03 3.820416e-03 6.433105e-03 6.090451e-04 -2.051582e-02 1.238966e-03 4.960139e-03 -9.977092e-04 5.474273e-03 -4.164385e-04 6.596180e-03 -3.001653e-03 -7.063742e-03 -6.586367e-03 -6.445250e-04 -1.976528e-03 1.795380e-03 1.472683e-03 5.358698e-03 7.446278e-03 7.027982e-04 -1.962844e-03 -1.814409e-03 -1.300694e-03 -7.457275e-04 -7.134361e-04 -2.202826e-04 -3.735193e-04 3.396372e-05 -1.182316e-04 1.353790e-04 1.028774e-04 1.527295e-04 3.041410e-04 1.347134e-04 4.960771e-04 1.273910e-04 6.932400e-04 1.690458e-04 9.109381e-04 2.989859e-04 1.186847e-03 5.846952e-04 1.599003e-03 1.128423e-03 2.272707e-03 2.098110e-03 3.452281e-03 3.839020e-03 5.645049e-03 7.069474e-03 9.892413e-03 1.334006e-02 1.879145e-02 2.669685e-02 3.194551e-02 6.859706e-03 -1.608050e-02 -6.586952e-03 -9.474823e-03 -1.262872e-02 -8.964910e-03 -1.430513e-02 -1.677116e-02 -1.555040e-02 -1.582169e-02 -1.939751e-02 -2.081397e-02 -1.451702e-02 -2.423332e-02 -2.410386e-02 3.081269e-03 1.979844e-02 1.667267e-02 1.232250e-02 8.618667e-03 6.422201e-03 4.669656e-03 3.480435e-03 2.706240e-03 1.872745e-03 1.707464e-03 9.200942e-04 1.189180e-03 3.266215e-04 9.279633e-04 -2.489214e-05 7.997076e-04 -1.958390e-04 7.168735e-04 -2.376403e-04 6.041530e-04 -2.016659e-04 4.206433e-04 -9.809937e-05 1.815175e-04 8.330092e-05 -8.638953e-05 3.324127e-04 -3.639119e-04 6.104823e-04 -6.399464e-04 8.638383e-04 -8.891789e-04 1.049655e-03 -1.070184e-03 1.129509e-03 -1.141333e-03 1.067651e-03 -1.079330e-03 8.167633e-04 -8.858181e-04 3.446068e-04 -5.648191e-04 -3.806372e-04 -1.433321e-04 -1.448573e-03 4.276945e-04 -3.088910e-03 1.715474e-03 -6.375042e-03 1.513814e-02 7.136734e-03 -9.041241e-03 -3.775153e-03 -4.683238e-03 -7.228278e-04 
1.079227e-03 9.372728e-03 1.642356e-02 2.747917e-02 2.803495e-02 -1.277939e-02 -3.329346e-03 2.103091e-03 -4.980764e-03 1.732113e-03 -5.652572e-03 -5.849431e-04 -4.002940e-03 5.178995e-03 3.743401e-04 1.507844e-03 1.352733e-04 -1.946189e-04 6.512072e-05 -1.975926e-03 -1.473117e-03 2.020413e-03 2.834182e-03 2.346831e-03 1.197272e-03 1.478367e-03 3.171917e-04 1.110347e-03 -2.279131e-05 8.761302e-04 -7.144006e-05 6.659502e-04 3.184237e-05 4.362946e-04 1.872911e-04 1.829713e-04 3.447076e-04 -6.562940e-05 4.786928e-04 -2.943104e-04 5.523874e-04 -5.073337e-04 5.446501e-04 -6.938003e-04 4.514935e-04 -8.747964e-04 2.125478e-04 -1.154895e-03 -2.988227e-04 -1.717280e-03 -1.302297e-03 -2.896822e-03 -3.211179e-03 -5.324156e-03 -6.918371e-03 -1.035361e-02 -1.118987e-02 -6.892642e-04 5.821459e-03 1.113682e-03 1.055767e-03 1.969956e-03 -4.819722e-04 5.892387e-03 9.718591e-03 1.012979e-02 1.085468e-02 1.511275e-02 1.471372e-02 1.186024e-02 1.737792e-02 1.547289e-02 -6.377774e-03 -1.611974e-02 -1.338623e-02 -8.855646e-03 -6.690021e-03 -4.484879e-03 -3.443176e-03 -2.388150e-03 -1.635869e-03 -1.395875e-03 -6.057087e-04 -1.030684e-03 -2.245455e-05 -9.591692e-04 3.451802e-04 -9.478814e-04 6.047096e-04 -8.859818e-04 7.690601e-04 -7.555184e-04 7.787967e-04 -5.998261e-04 5.984704e-04 -3.961166e-04 2.929485e-04 -9.018698e-05 -6.942310e-05 3.197946e-04 -4.511191e-04 7.748630e-04 -8.438288e-04 1.188486e-03 -1.209632e-03 1.505765e-03 -1.477002e-03 1.684573e-03 -1.568268e-03 1.691775e-03 -1.435768e-03 1.471767e-03 -1.065446e-03 1.022090e-03 -4.094568e-04 3.824707e-04 5.406615e-04 -4.579988e-04 1.836315e-03 -1.662594e-03 3.844198e-03 -4.594959e-03 1.168509e-02 -1.829754e-02 -3.750323e-02 -2.062397e-02 -1.357433e-02 -4.035611e-03 
1.528873e-03 9.593701e-03 1.958265e-02 3.122598e-02 4.346189e-02 1.930979e-02 -9.838215e-04 1.871816e-03 -8.556927e-04 2.919058e-03 3.709833e-04 3.932159e-03 1.551816e-03 -1.580151e-04 8.294316e-05 2.707758e-05 1.119057e-04 -1.357260e-04 1.492763e-04 -2.931794e-04 1.741923e-04 -2.982751e-03 -2.147389e-03 -1.192986e-03 -1.187673e-03 1.117257e-04 -8.519167e-04 5.863257e-04 -7.039199e-04 7.070219e-04 -5.470277e-04 6.572804e-04 -3.518120e-04 5.088696e-04 -1.430295e-04 3.043748e-04 5.915434e-05 8.829590e-05 2.412765e-04 -1.115775e-04 3.803168e-04 -2.830792e-04 4.692783e-04 -3.990463e-04 5.247510e-04 -4.424119e-04 5.449258e-04 -4.238429e-04 5.239756e-04 -3.425408e-04 4.785685e-04 -1.769807e-04 4.393434e-04 1.071110e-04 3.537871e-04 2.368949e-04 -1.260376e-03 -2.438480e-03 4.447621e-04 3.502438e-03 3.564738e-03 5.700182e-03 5.676876e-03 4.673024e-05 -4.770394e-03 -6.023057e-03 -7.449601e-03 -1.075774e-02 -1.100031e-02 -7.869655e-03 -1.316956e-02 -7.807065e-03 7.551252e-03 1.447617e-02 1.025392e-02 7.317219e-03 4.773860e-03 3.777041e-03 2.528893e-03 2.041396e-03 1.541187e-03 1.065399e-03 1.105190e-03 4.179416e-04 9.037263e-04 -4.005362e-05 8.330900e-04 -3.294550e-04 8.387923e-04 -4.672493e-04 8.612954e-04 -4.900394e-04 8.173757e-04 -4.541346e-04 6.580800e-04 -3.566675e-04 4.176686e-04 -1.666061e-04 1.394132e-04 1.121833e-04 -1.530215e-04 4.336880e-04 -4.574225e-04 7.336184e-04 -7.495680e-04 9.716878e-04 -9.820373e-04 1.118254e-03 -1.102667e-03 1.149337e-03 -1.082912e-03 1.024294e-03 -9.211787e-04 7.388010e-04 -6.000545e-04 3.222798e-04 -1.558690e-04 -1.955973e-04 3.222107e-04 -6.958688e-04 6.772396e-04 -3.921695e-04 -6.442848e-03 -3.763460e-02 -4.063734e-02 -2.662323e-02 -1.529750e-02 -6.518836e-03 
1.002593e-03 4.371008e-03 9.910474e-03 1.329025e-02 2.150914e-02 2.038266e-02 5.386473e-03 3.692461e-03 3.121216e-03 4.355432e-03 4.435189e-03 8.131336e-03 5.249573e-03 -1.308520e-04 7.186071e-05 8.136547e-05 9.007000e-05 -1.091525e-04 1.100290e-04 -2.889114e-04 1.347469e-04 -4.933551e-03 -5.934617e-03 -4.101985e-03 -3.286753e-03 -1.668825e-03 -1.778013e-03 -4.715114e-04 -9.824656e-04 1.137709e-04 -5.147266e-04 3.674862e-04 -1.924621e-04 4.515453e-04 7.473492e-05 4.656312e-04 3.336798e-04 4.805783e-04 6.148980e-04 5.547163e-04 9.492979e-04 7.490888e-04 1.389337e-03 1.150363e-03 2.032726e-03 1.897594e-03 3.057333e-03 3.241843e-03 4.808193e-03 5.681611e-03 7.984795e-03 1.023745e-02 1.402782e-02 1.915235e-02 2.670077e-02 3.902366e-02 4.735821e-02 1.301805e-02 -2.361111e-02 -1.434111e-02 -1.459901e-02 -2.102520e-02 -1.500331e-02 -1.805337e-02 -1.737207e-02 -1.597653e-02 -1.496020e-02 -1.579340e-02 -1.843738e-02 -1.178423e-02 -1.840161e-02 -2.302996e-02 -6.108366e-03 9.133247e-03 1.015124e-02 7.973853e-03 5.377705e-03 4.034352e-03 2.695485e-03 2.013696e-03 1.403572e-03 9.310812e-04 8.003892e-04 3.257936e-04 5.379918e-04 -2.444753e-05 4.429963e-04 -2.206026e-04 4.251312e-04 -3.131285e-04 4.272958e-04 -3.333984e-04 4.059340e-04 -3.039206e-04 3.380065e-04 -2.312673e-04 2.268929e-04 -1.149770e-04 8.656182e-05 3.711293e-05 -6.937237e-05 2.046681e-04 -2.303297e-04 3.607322e-04 -3.809357e-04 4.810189e-04 -5.020608e-04 5.437198e-04 -5.768465e-04 5.264697e-04 -6.017422e-04 4.021381e-04 -5.927775e-04 1.435055e-04 -5.893737e-04 -2.786802e-04 -6.787580e-04 -8.829946e-04 -1.022659e-03 -1.557353e-03 -1.960704e-03 -1.206036e-03 -1.103983e-02 -2.384208e-02 -1.731643e-02 -1.349564e-02 -7.530355e-03 -4.093130e-03 
7.157838e-04 3.014612e-03 5.915599e-03 7.632757e-03 9.699357e-03 9.296303e-03 6.449563e-03 6.729331e-03 5.447951e-03 8.777192e-03 8.855881e-03 1.620773e-02 1.294073e-02 -1.485658e-05 9.628992e-06 -2.861363e-05 3.572786e-05 -3.968451e-05 5.151759e-05 -3.637495e-05 4.234220e-05 -1.017418e-02 -1.310627e-02 -8.735632e-03 -7.252660e-03 -4.376445e-03 -3.891598e-03 -2.063413e-03 -2.070628e-03 -8.298887e-04 -1.064167e-03 -2.075241e-04 -4.798030e-04 8.965996e-05 -1.017034e-04 2.298845e-04 1.846897e-04 3.147748e-04 4.420527e-04 4.101140e-04 7.097114e-04 5.658703e-04 1.023943e-03 8.322590e-04 1.432205e-03 1.271671e-03 2.006539e-03 1.979273e-03 2.874235e-03 3.129047e-03 4.282414e-03 5.067221e-03 6.743676e-03 8.632329e-03 1.199700e-02 1.723129e-02 2.078315e-02 6.002406e-03 -9.961043e-03 -1.320838e-03 1.844905e-03 -1.587632e-03 2.747189e-03 -5.713788e-04 -2.252465e-03 -1.491009e-03 -4.044660e-03 -2.191217e-03 -2.652360e-03 -5.428097e-03 9.898774e-04 3.199655e-03 -1.325327e-02 -2.074394e-02 -1.450924e-02 -8.615225e-03 -5.521049e-03 -3.222009e-03 -2.083428e-03 -1.185547e-03 -7.278302e-04 -4.820132e-04 -2.026567e-04 -2.950070e-04 1.112934e-05 -2.822957e-04 1.160318e-04 -3.055761e-04 1.811331e-04 -3.141991e-04 2.196287e-04 -2.956535e-04 2.236035e-04 -2.517352e-04 1.864742e-04 -1.824420e-04 1.135634e-04 -8.642498e-05 1.588066e-05 3.112897e-05 -9.602361e-05 1.559580e-04 -2.132988e-04 2.684478e-04 -3.249983e-04 3.494188e-04 -4.186193e-04 3.801661e-04 -4.853552e-04 3.403137e-04 -5.278976e-04 2.044743e-04 -5.664687e-04 -5.708543e-05 -6.439418e-04 -4.845406e-04 -8.417218e-04 -1.141791e-03 -1.300700e-03 -2.140263e-03 -2.276078e-03 -3.716006e-03 -5.199113e-03 -9.146191e-03 -7.914110e-03 -7.047725e-03 -4.375431e-03 -2.317350e-03 
3.413459e-04 1.131158e-03 2.407572e-03 3.118145e-03 3.847176e-03 4.250169e-03 2.933146e-03 3.342390e-03 2.745074e-03 4.271967e-03 4.461997e-03 8.300415e-03 6.744801e-03 -6.635640e-06 7.569100e-06 -8.850579e-06 2.111074e-05 -2.363185e-05 2.793673e-05 -2.902953e-05 2.246022e-05 -4.854405e-03 -6.322812e-03 -4.151653e-03 -3.398589e-03 -2.050245e-03 -1.762454e-03 -9.165538e-04 -8.504687e-04 -2.774803e-04 -3.201629e-04 8.268728e-05 2.105815e-05 3.064012e-04 2.876295e-04 4.849708e-04 5.478329e-04 6.810109e-04 8.480327e-04 9.445191e-04 1.228335e-03 1.323797e-03 1.733398e-03 1.873917e-03 2.420818e-03 2.664264e-03 3.369198e-03 3.786772e-03 4.686454e-03 5.360333e-03 6.507472e-03 7.504817e-03 8.938375e-03 1.026436e-02 1.208699e-02 1.303978e-02 8.554289e-03 -4.834039e-03 -7.774766e-03 1.090169e-03 -4.824757e-03 -7.738788e-03 -3.329507e-03 -1.016393e-02 -1.033896e-02 -7.113385e-03 -9.965632e-03 -1.074474e-02 -9.902393e-03 -9.946791e-03 -1.234254e-02 -1.167287e-02 -6.767019e-03 -1.627195e-03 1.304003e-03 2.866247e-03 3.244379e-03 3.339945e-03 2.993351e-03 2.680631e-03 2.228573e-03 1.847562e-03 1.504522e-03 1.154743e-03 9.694718e-04 6.609969e-04 6.186807e-04 3.395545e-04 4.046062e-04 1.455858e-04 2.772550e-04 3.888327e-05 1.967477e-04 -1.033472e-05 1.367925e-04 -2.120262e-05 8.375951e-05 -5.739601e-06 3.232339e-05 2.660813e-05 -1.864799e-05 6.636238e-05 -6.832011e-05 1.037632e-04 -1.143938e-04 1.294645e-04 -1.542863e-04 1.342554e-04 -1.874966e-04 1.079958e-04 -2.189163e-04 3.842975e-05 -2.619770e-04 -8.917293e-05 -3.420029e-04 -2.931048e-04 -5.022245e-04 -5.995182e-04 -8.160432e-04 -1.066286e-03 -1.421464e-03 -1.881278e-03 -2.618917e-03 -3.904182e-03 -3.078265e-03 -3.008657e-03 -1.683447e-03 -1.067956e-03 
-5.096933e-07 1.259335e-06 -5.062682e-07 1.060030e-06 -5.021100e-07 5.756263e-07 -6.809980e-07 -7.180400e-08 -3.736069e-07 -7.054613e-07 -7.743277e-08 -1.274526e-06 -1.791648e-07 7.556360e-08 1.569793e-07 2.336568e-07 4.083549e-07 5.165950e-07 8.087203e-07 8.905791e-07 1.391283e-06 4.240382e-05 3.707165e-05 5.494649e-05 4.747832e-05 6.674345e-05 6.362698e-05 8.320398e-05 8.882333e-05 1.087808e-04 1.280610e-04 1.486106e-04 1.859254e-04 2.076891e-04 2.667762e-04 2.919222e-04 3.766386e-04 4.103236e-04 5.252893e-04 5.762635e-04 7.268942e-04 8.074354e-04 1.000190e-03 1.126301e-03 1.370056e-03 1.563086e-03 1.873205e-03 2.164683e-03 2.571234e-03 3.011468e-03 3.571201e-03 4.238780e-03 5.051542e-03 6.108516e-03 7.478824e-03 8.819658e-03 6.351802e-03 -3.010900e-03 -7.237929e-03 -4.240281e-03 -5.575745e-03 -3.504415e-03 -1.117032e-03 -4.492270e-03 -2.853947e-03 -1.940477e-03 -3.577734e-03 -2.709043e-03 -2.448222e-03 -1.289518e-03 1.158356e-03 -1.727090e-03 -5.142674e-03 -3.568098e-03 -2.005673e-03 -1.261931e-03 -7.344039e-04 -3.788967e-04 -1.996630e-04 -4.316353e-05 -5.100121e-05 1.333662e-05 -6.451891e-05 -2.541983e-05 -1.126905e-04 -7.204015e-05 -1.449178e-04 -9.798500e-05 -1.512751e-04 -1.022358e-04 -1.382989e-04 -9.299690e-05 -1.161287e-04 -7.866800e-05 -9.229416e-05 -6.396346e-05 -7.008708e-05 -5.036724e-05 -5.038923e-05 -3.829750e-05 -3.365368e-05 -2.839042e-05 -2.054984e-05 -2.124944e-05 -1.123958e-05 -1.666707e-05 -5.066009e-06 -1.377252e-05 -1.003438e-06 -1.169870e-05 1.569292e-06 -1.016422e-05 2.888461e-06 -8.845686e-06 3.471016e-06 -7.289636e-06 3.598757e-06 -5.420890e-06 3.249019e-06 -3.323128e-06 2.332727e-06 -1.240384e-06 9.665291e-07 4.833854e-07 4.189431e-08 1.117420e-06 -3.763753e-07 1.292199e-06 
-3.412718e-04 -1.128754e-03 -2.407282e-03 -3.116410e-03 -3.846723e-03 -4.249919e-03 -2.933549e-03 -3.344301e-03 -2.743612e-03 -4.276289e-03 -4.458912e-03 -8.306950e-03 -6.740721e-03 6.507869e-06 -7.514674e-06 8.971063e-06 -2.087313e-05 2.432839e-05 -2.715996e-05 3.051376e-05 -2.020340e-05 4.974036e-03 6.441859e-03 4.309326e-03 3.546588e-03 2.242885e-03 1.957849e-03 1.161471e-03 1.120040e-03 6.026122e-04 7.029816e-04 3.640353e-04 5.272406e-04 3.182213e-04 4.931368e-04 3.927888e-04 5.527767e-04 5.527413e-04 6.902610e-04 7.871069e-04 9.074792e-04 1.097740e-03 1.213000e-03 1.489831e-03 1.612995e-03 1.963224e-03 2.102678e-03 2.502555e-03 2.654176e-03 3.059468e-03 3.190886e-03 3.514408e-03 3.532499e-03 3.612836e-03 3.353037e-03 2.899295e-03 1.404509e-03 -1.138581e-03 -2.430208e-03 -2.006469e-03 -2.663657e-03 -2.773542e-03 -2.984320e-03 -4.749678e-03 -4.824898e-03 -5.316452e-03 -5.845794e-03 -5.957101e-03 -5.998773e-03 -5.880022e-03 -5.032617e-03 -4.329731e-03 -2.708418e-03 -9.498217e-04 4.510892e-04 1.227250e-03 1.708582e-03 1.901017e-03 1.871735e-03 1.816107e-03 1.542995e-03 1.452066e-03 1.088935e-03 1.062938e-03 6.799442e-04 7.468191e-04 3.710194e-04 5.203752e-04 1.627686e-04 3.667781e-04 3.670455e-05 2.613736e-04 -2.819183e-05 1.828742e-04 -4.919540e-05 1.172667e-04 -3.895721e-05 5.721692e-05 -7.401545e-06 1.515747e-07 3.665234e-05 -5.318345e-05 8.500455e-05 -9.914614e-05 1.310261e-04 -1.312525e-04 1.706481e-04 -1.407979e-04 2.034876e-04 -1.174531e-04 2.343294e-04 -4.948964e-05 2.761368e-04 7.770035e-05 3.546666e-04 2.827573e-04 5.132778e-04 5.915958e-04 8.250160e-04 1.061744e-03 1.427411e-03 1.880518e-03 2.620619e-03 3.906687e-03 3.078750e-03 3.011781e-03 1.683535e-03 1.070837e-03 
-7.171780e-04 -3.011334e-03 -5.916607e-03 -7.629604e-03 -9.699839e-03 -9.294758e-03 -6.453000e-03 -6.729534e-03 -5.448654e-03 -8.779289e-03 -8.855604e-03 -1.621207e-02 -1.294058e-02 1.464513e-05 -9.743618e-06 2.858006e-05 -3.550715e-05 4.035367e-05 -5.044962e-05 3.812090e-05 -3.914374e-05 1.024408e-02 1.315401e-02 8.823943e-03 7.314527e-03 4.480382e-03 3.973102e-03 2.185275e-03 2.184692e-03 9.826480e-04 1.236812e-03 4.168092e-04 7.459674e-04 2.077135e-04 4.971186e-04 1.893836e-04 3.783526e-04 2.720793e-04 3.431057e-04 4.167949e-04 3.811689e-04 6.114425e-04 4.960155e-04 8.535055e-04 6.903535e-04 1.139313e-03 9.601323e-04 1.461416e-03 1.293538e-03 1.802613e-03 1.658463e-03 2.112323e-03 1.966058e-03 2.249307e-03 1.989301e-03 1.863011e-03 1.134058e-03 6.404961e-05 -8.374626e-04 -1.007558e-03 -1.423110e-03 -1.561024e-03 -1.372829e-03 -1.991886e-03 -1.676172e-03 -1.997070e-03 -1.850925e-03 -2.034046e-03 -1.648142e-03 -1.762633e-03 -1.133411e-03 -1.372585e-03 -9.734304e-04 -7.961594e-04 -3.194371e-04 -2.609914e-04 -2.609976e-05 -2.292252e-05 -9.340304e-06 3.964379e-05 -1.230642e-04 4.107865e-05 -2.641237e-04 4.350060e-05 -3.793048e-04 6.714719e-05 -4.487841e-04 1.053644e-04 -4.727870e-04 1.401244e-04 -4.570934e-04 1.547327e-04 -4.075569e-04 1.380358e-04 -3.279433e-04 8.825640e-05 -2.203824e-04 1.020189e-05 -9.032940e-05 -8.774099e-05 5.209078e-05 -1.947943e-04 1.927112e-04 -2.965864e-04 3.182488e-04 -3.735573e-04 4.188090e-04 -4.029961e-04 4.904071e-04 -3.607216e-04 5.366936e-04 -2.234572e-04 5.755714e-04 3.872297e-05 6.529321e-04 4.688751e-04 8.509742e-04 1.130129e-03 1.309544e-03 2.133706e-03 2.282562e-03 3.714927e-03 5.199221e-03 9.151629e-03 7.912297e-03 7.051977e-03 4.373737e-03 2.320960e-03 
-1.003046e-03 -4.367610e-03 -9.909870e-03 -1.328558e-02 -2.150586e-02 -2.038063e-02 -5.397516e-03 -3.693426e-03 -3.118923e-03 -4.361719e-03 -4.430368e-03 -8.144389e-03 -5.240299e-03 1.295040e-04 -7.214780e-05 -8.252027e-05 -9.125630e-05 1.090029e-04 -1.124880e-04 2.909482e-04 -1.334702e-04 5.004141e-03 5.972781e-03 4.189112e-03 3.339159e-03 1.771709e-03 1.848079e-03 5.892833e-04 1.081513e-03 3.073621e-05 6.709174e-04 -1.678712e-04 4.450299e-04 -1.634000e-04 3.109953e-04 -5.739318e-05 2.218503e-04 9.287394e-05 1.686330e-04 2.671164e-04 1.638996e-04 4.631217e-04 2.227720e-04 6.810382e-04 3.496012e-04 9.125732e-04 5.338296e-04 1.142175e-03 7.547802e-04 1.345775e-03 9.748643e-04 1.477853e-03 1.125232e-03 1.453818e-03 1.084616e-03 1.129639e-03 6.613920e-04 2.895161e-04 -2.481709e-04 -4.123369e-04 -6.901682e-04 -1.081031e-03 -1.217564e-03 -2.030717e-03 -2.170133e-03 -2.892149e-03 -2.807495e-03 -3.339412e-03 -2.912391e-03 -3.059147e-03 -2.271455e-03 -2.105679e-03 -9.038671e-04 -5.707316e-04 2.268655e-04 2.912671e-04 6.641492e-04 6.285493e-04 6.753856e-04 6.920275e-04 4.863619e-04 6.498261e-04 2.361255e-04 5.885068e-04 1.140251e-06 5.440931e-04 -1.817705e-04 5.172372e-04 -3.039612e-04 4.908545e-04 -3.657210e-04 4.472220e-04 -3.706237e-04 3.724557e-04 -3.221796e-04 2.640296e-04 -2.231102e-04 1.267414e-04 -8.248485e-05 -3.072503e-05 8.367522e-05 -1.970719e-04 2.530435e-04 -3.561760e-04 4.049285e-04 -4.844233e-04 5.225520e-04 -5.547624e-04 5.957794e-04 -5.395500e-04 6.210607e-04 -4.170213e-04 6.086270e-04 -1.605604e-04 6.029826e-04 2.635277e-04 6.920900e-04 8.715488e-04 1.035724e-03 1.551371e-03 1.971614e-03 1.207141e-03 1.102913e-02 2.385518e-02 1.731390e-02 1.350257e-02 7.529333e-03 4.097348e-03 
-1.530196e-03 -9.589567e-03 -1.958306e-02 -3.121772e-02 -4.345981e-02 -1.931105e-02 9.705766e-04 -1.871843e-03 8.585257e-04 -2.921168e-03 -3.675806e-04 -3.941196e-03 -1.552304e-03 1.556807e-04 -8.424135e-05 -2.955064e-05 -1.142823e-04 1.346520e-04 -1.534141e-04 2.936247e-04 -1.759212e-04 3.006955e-03 2.137204e-03 1.242575e-03 1.181296e-03 -5.948293e-05 8.249306e-04 -5.699994e-04 6.411740e-04 -7.320881e-04 4.828175e-04 -6.801729e-04 3.450959e-04 -4.969841e-04 2.034683e-04 -2.890392e-04 2.034528e-05 -1.217750e-04 -1.828334e-04 1.132767e-05 -3.511154e-04 1.364925e-04 -4.397238e-04 2.704719e-04 -4.404239e-04 3.940348e-04 -3.826277e-04 4.846181e-04 -2.838263e-04 5.397268e-04 -1.571943e-04 5.572682e-04 -1.423033e-05 5.404692e-04 1.258775e-04 4.586356e-04 1.746183e-04 1.545356e-04 -9.536179e-05 -1.491282e-04 -9.963107e-05 -3.782266e-04 -1.152280e-04 -6.879550e-04 -3.306460e-04 -9.368836e-04 -3.246810e-04 -9.714158e-04 -2.000518e-04 -7.586913e-04 2.916071e-05 -5.213244e-04 4.047299e-04 -9.736391e-05 4.405580e-04 -6.978808e-05 2.296938e-04 -6.090937e-05 4.356208e-06 1.114930e-05 -2.111600e-04 1.202448e-04 -4.245160e-04 2.419693e-04 -6.101677e-04 3.828476e-04 -7.324178e-04 5.191043e-04 -7.979448e-04 6.067791e-04 -8.032343e-04 6.229969e-04 -7.470827e-04 5.439016e-04 -6.259132e-04 3.810930e-04 -4.228600e-04 1.552891e-04 -1.455681e-04 -1.137553e-04 1.807533e-04 -4.099541e-04 5.061569e-04 -7.109044e-04 7.916264e-04 -9.698892e-04 1.003401e-03 -1.137002e-03 1.120162e-03 -1.160172e-03 1.111290e-03 -1.036922e-03 9.352676e-04 -7.649322e-04 6.097263e-04 -3.433101e-04 1.703092e-04 1.796693e-04 -3.023978e-04 6.892591e-04 -6.565299e-04 3.868002e-04 6.431054e-03 3.767103e-02 4.062371e-02 2.662754e-02 1.529482e-02 6.522911e-03 
-1.080140e-03 -9.372991e-03 -1.642497e-02 -2.747736e-02 -2.803700e-02 1.277003e-02 3.338357e-03 -2.108742e-03 4.985655e-03 -1.730115e-03 5.656210e-03 5.840201e-04 3.996961e-03 -5.187870e-03 -3.687251e-04 -1.509746e-03 -1.353574e-04 1.915200e-04 -8.603740e-05 1.983007e-03 1.429123e-03 -2.008183e-03 -2.865620e-03 -2.299407e-03 -1.223019e-03 -1.432264e-03 -3.760708e-04 -1.119042e-03 -9.572959e-05 -9.487020e-04 -6.579927e-05 -7.458281e-04 -1.138486e-04 -4.834431e-04 -2.100280e-04 -2.494094e-04 -3.869522e-04 -1.080785e-04 -6.138267e-04 -4.016244e-05 -8.221316e-04 -7.715100e-06 -9.604260e-04 1.032995e-05 -1.027374e-03 -1.610916e-05 -1.071251e-03 -1.200029e-04 -1.117639e-03 -2.978147e-04 -1.169887e-03 -5.207656e-04 -1.188891e-03 -6.956608e-04 -1.064572e-03 -6.758348e-04 -6.615754e-04 -3.310001e-04 7.254249e-05 5.318517e-05 5.523415e-04 2.502012e-04 8.067797e-04 3.024049e-04 9.864108e-04 2.651656e-04 1.036654e-03 2.002303e-04 1.010334e-03 4.339894e-05 7.996013e-04 -1.821028e-04 3.592419e-04 -5.258328e-04 1.846569e-05 -5.355434e-04 -1.230038e-04 -3.368352e-04 -2.020151e-04 -7.245354e-05 -3.210681e-04 1.666174e-04 -5.047151e-04 3.597720e-04 -6.982000e-04 5.404371e-04 -8.318077e-04 6.948039e-04 -9.015809e-04 7.748744e-04 -8.957240e-04 7.573538e-04 -8.101066e-04 6.135795e-04 -6.395324e-04 3.617208e-04 -3.607833e-04 3.137213e-05 1.511472e-05 -3.495336e-04 4.525319e-04 -7.581906e-04 8.805424e-04 -1.163305e-03 1.242017e-03 -1.500172e-03 1.485245e-03 -1.700188e-03 1.574550e-03 -1.691626e-03 1.459657e-03 -1.472771e-03 1.071082e-03 -1.043234e-03 4.103045e-04 -3.992261e-04 -5.322496e-04 4.446577e-04 -1.819019e-03 1.657901e-03 -3.822517e-03 4.583011e-03 -1.167210e-02 1.832197e-02 3.748693e-02 2.061694e-02 1.357271e-02 4.034170e-03 
3.281552e-04 -3.014464e-03 -3.819283e-03 -6.439516e-03 -6.082194e-04 2.050652e-02 -1.216322e-03 -4.971567e-03 1.005025e-03 -5.479465e-03 4.238308e-04 -6.605132e-03 3.009800e-03 7.071245e-03 6.582246e-03 6.582537e-04 1.963952e-03 -1.774863e-03 -1.495212e-03 -5.337570e-03 -7.449665e-03 -6.243325e-04 1.982282e-03 1.909727e-03 1.332479e-03 8.504670e-04 7.487085e-04 3.199881e-04 4.132984e-04 7.032629e-05 1.987467e-04 1.625519e-05 7.396380e-05 8.817420e-05 1.001169e-06 2.066847e-04 -5.627788e-05 3.237689e-04 -9.273246e-05 4.399637e-04 -7.866358e-05 5.720748e-04 1.094141e-05 7.310705e-04 1.762704e-04 9.019017e-04 3.876120e-04 1.056400e-03 6.073668e-04 1.160523e-03 7.801498e-04 1.157613e-03 8.277026e-04 9.732557e-04 6.589564e-04 5.345714e-04 2.138944e-04 -1.212888e-04 -3.811127e-04 -9.475065e-04 -1.072737e-03 -1.629051e-03 -1.415712e-03 -1.799809e-03 -1.217948e-03 -1.584704e-03 -9.292317e-04 -1.266446e-03 -6.096465e-04 -1.052567e-03 -3.973504e-04 -8.507363e-04 -3.682552e-04 -7.053547e-04 -1.776023e-04 -3.247866e-04 1.523274e-05 -8.447204e-06 6.320358e-05 1.973859e-04 -1.656763e-05 3.197383e-04 -1.697743e-04 3.952542e-04 -3.323882e-04 4.581078e-04 -4.532959e-04 5.073919e-04 -5.200152e-04 5.194095e-04 -5.252997e-04 4.769416e-04 -4.682267e-04 3.630539e-04 -3.478959e-04 1.839669e-04 -1.570710e-04 -4.451102e-05 9.526966e-05 -3.037567e-04 3.854463e-04 -5.744672e-04 6.718138e-04 -8.305173e-04 9.164834e-04 -1.028608e-03 1.085091e-03 -1.120532e-03 1.152922e-03 -1.055587e-03 1.095657e-03 -8.084196e-04 8.931582e-04 -3.476651e-04 5.687839e-04 3.763266e-04 1.495807e-04 1.443897e-03 -4.179161e-04 3.086563e-03 -1.703660e-03 6.368109e-03 -1.511147e-02 -7.142979e-03 9.039138e-03 3.765543e-03 4.685923e-03 7.176625e-04 
-1.566384e-05 -1.212307e-03 -1.669927e-03 -1.360799e-03 1.121154e-04 6.246863e-03 -2.778580e-03 -4.462199e-03 -4.117341e-03 -8.374079e-03 -9.956767e-03 -1.791175e-02 -2.225050e-02 -2.331394e-02 -1.185602e-02 -6.126768e-03 -2.287376e-03 2.553840e-03 7.054089e-03 1.122273e-02 2.309496e-02 2.338583e-02 1.580180e-02 1.082191e-02 6.629714e-03 4.494679e-03 2.821270e-03 1.840833e-03 1.184583e-03 7.079636e-04 4.654097e-04 2.511561e-04 1.454942e-04 9.599294e-05 -3.000769e-06 6.569647e-05 -8.128777e-05 7.972357e-05 -1.238172e-04 1.123525e-04 -1.307133e-04 1.651596e-04 -8.882929e-05 2.512205e-04 1.804186e-05 3.887794e-04 2.105595e-04 6.076440e-04 5.238551e-04 9.529554e-04 1.002617e-03 1.462688e-03 1.658740e-03 2.083222e-03 2.337035e-03 2.455909e-03 2.401474e-03 1.343016e-03 5.761361e-04 1.058427e-03 1.084462e-03 8.979755e-04 6.145711e-04 -1.403969e-03 -2.824327e-03 -4.377069e-03 -5.112753e-03 -6.176793e-03 -5.938170e-03 -5.378839e-03 -4.392382e-03 -3.048124e-03 -1.926607e-04 1.260864e-03 2.044561e-03 2.025849e-03 1.934597e-03 1.610468e-03 1.272641e-03 1.054325e-03 6.526425e-04 6.459289e-04 2.051056e-04 4.053960e-04 -8.075366e-05 2.879370e-04 -2.412356e-04 2.412057e-04 -3.124815e-04 2.200511e-04 -3.209516e-04 1.925395e-04 -2.842142e-04 1.390028e-04 -2.113732e-04 5.506779e-05 -1.052776e-04 -5.390648e-05 2.830879e-05 -1.787686e-04 1.768480e-04 -3.090647e-04 3.209447e-04 -4.309325e-04 4.409784e-04 -5.241365e-04 5.196262e-04 -5.652978e-04 5.430624e-04 -5.315855e-04 4.995845e-04 -4.062943e-04 3.837993e-04 -1.699849e-04 2.080852e-04 2.087115e-04 -9.736791e-07 7.896824e-04 -2.159844e-04 1.715734e-03 -4.932436e-04 3.363769e-03 -4.795713e-03 -3.233432e-03 1.513004e-03 9.014840e-04 1.799679e-03 2.808667e-04 
