# vtk DataFile Version 2.0
Comment goes here
ASCII

DATASET STRUCTURED_POINTS
FIELD FieldData 1
TIME 1 1 double
0.72000000
DIMENSIONS    128   16   1

ORIGIN    0.000   0.000   0.000
SPACING   0.0078125 0.015625   1.000

POINT_DATA   2048
SCALARS uY double
LOOKUP_TABLE default

6.238731e-07 -1.388489e-06 1.131884e-06 -1.527252e-06 2.064868e-06 -2.021345e-06 5.221579e-06 -3.749760e-06 3.646545e-06 -3.643579e-06 3.061820e-06 -2.720890e-06 2.519272e-06 6.107636e-07 2.647579e-06 5.064049e-06 1.535044e-06 1.053420e-05 1.142528e-06 1.893393e-05 3.848197e-06 3.141770e-05 2.273882e-06 3.903885e-05 1.359784e-06 4.100153e-05 -1.871303e-06 4.154671e-05 4.124335e-06 5.531167e-05 3.142882e-05 8.738262e-05 7.797732e-05 1.293812e-04 1.297450e-04 1.663708e-04 1.785722e-04 2.060889e-04 2.474676e-04 2.816499e-04 3.690562e-04 4.222099e-04 5.637848e-04 6.399824e-04 8.340745e-04 9.378317e-04 1.193297e-03 1.350269e-03 1.694911e-03 1.938587e-03 2.394116e-03 2.716999e-03 3.235845e-03 3.456637e-03 3.788967e-03 3.476352e-03 3.360583e-03 1.053877e-03 -1.216387e-03 -1.702903e-03 -2.976586e-03 -3.605418e-03 -4.257193e-03 -5.905149e-03 -6.871123e-03 -7.259183e-03 -7.325371e-03 -7.314630e-03 -6.544267e-03 -5.051431e-03 -4.242986e-03 -1.990351e-03 1.155228e-03 2.820960e-03 3.359485e-03 3.566154e-03 3.314396e-03 3.053585e-03 2.567355e-03 2.237454e-03 1.784861e-03 1.514736e-03 1.161493e-03 9.732052e-04 7.278529e-04 6.155411e-04 4.601403e-04 4.003046e-04 3.041332e-04 2.711220e-04 2.057852e-04 1.794643e-04 1.280420e-04 1.040027e-04 6.703557e-05 5.043984e-05 3.110542e-05 2.406086e-05 2.165874e-05 1.987297e-05 2.571914e-05 1.926441e-05 2.526393e-05 1.113377e-05 1.603866e-05 -2.980562e-06 3.848605e-06 -1.176789e-05 1.227406e-06 -7.915189e-06 5.299427e-06 -1.329466e-06 6.392131e-06 1.804996e-06 1.795080e-06 -5.131151e-07 -6.375206e-06 -3.054885e-06 -1.015345e-05 -2.637798e-06 -9.586104e-06 -2.477821e-06 -5.807384e-06 -4.439374e-06 -2.092008e-06 -2.590181e-06 -1.746204e-07 -1.692561e-06 
6.559847e-04 1.164795e-03 2.890837e-03 1.598486e-03 2.951739e-03 -6.101203e-03 -9.341824e-04 5.669240e-03 3.287306e-03 8.498246e-03 9.246867e-03 1.796565e-02 2.333566e-02 2.475440e-02 1.138300e-02 6.957991e-03 2.650195e-03 -2.792494e-03 -6.781928e-03 -1.185923e-02 -2.474363e-02 -2.440313e-02 -1.564859e-02 -1.039394e-02 -6.299608e-03 -4.346541e-03 -2.593961e-03 -1.846832e-03 -1.003031e-03 -7.927068e-04 -2.983795e-04 -3.552002e-04 2.910000e-05 -1.800783e-04 1.823117e-04 -1.258199e-04 2.384449e-04 -1.233440e-04 2.506172e-04 -1.187906e-04 2.615725e-04 -7.749056e-05 2.980425e-04 1.158304e-05 3.621784e-04 1.407498e-04 4.651666e-04 3.493859e-04 6.929334e-04 7.729006e-04 1.230656e-03 1.661598e-03 2.363877e-03 3.366948e-03 4.682218e-03 7.624185e-03 9.554799e-03 -1.958349e-03 -8.873109e-03 -1.405332e-03 2.808846e-03 9.184312e-03 1.037505e-02 -2.979051e-03 -1.250416e-02 -1.155922e-02 -1.195080e-02 -1.515848e-02 -1.169953e-02 -7.015042e-03 -9.460505e-03 -3.711261e-03 8.118706e-03 1.122615e-02 7.527113e-03 5.304904e-03 3.499196e-03 2.677471e-03 1.681231e-03 1.321607e-03 7.691753e-04 5.912354e-04 3.353218e-04 1.825403e-04 1.622401e-04 -4.034443e-05 1.389656e-04 -1.540571e-04 1.847085e-04 -2.122317e-04 2.386181e-04 -2.502115e-04 2.598169e-04 -2.738706e-04 2.438375e-04 -2.624383e-04 1.982698e-04 -2.016149e-04 1.261943e-04 -9.030029e-05 2.281892e-05 5.479293e-05 -1.153972e-04 2.180315e-04 -2.767924e-04 3.820826e-04 -4.438525e-04 5.288266e-04 -5.885168e-04 6.353359e-04 -6.919199e-04 6.629493e-04 -7.367970e-04 5.718033e-04 -7.063513e-04 2.938933e-04 -5.926271e-04 -2.962918e-04 -3.617778e-04 -1.463627e-03 1.582218e-04 -3.958360e-03 5.877400e-03 1.002175e-03 -1.827358e-03 -1.351155e-03 -1.488254e-03 -3.442509e-04 
8.856673e-04 2.979308e-03 5.882124e-03 6.584746e-03 8.664765e-03 -2.032316e-02 -9.186292e-03 9.202329e-03 -2.309670e-03 8.133649e-03 -7.446587e-04 1.066708e-02 -1.566671e-03 -8.156936e-03 -5.681257e-03 -1.467643e-03 -1.402399e-03 9.863501e-04 2.583193e-03 4.100156e-03 9.569240e-03 -1.584086e-03 -4.858335e-03 -2.525338e-03 -2.532738e-03 -1.235553e-03 -1.312697e-03 -6.708887e-04 -6.067726e-04 -3.883377e-04 -1.442080e-04 -2.457493e-04 1.809371e-04 -1.590839e-04 4.091792e-04 -1.197951e-04 5.266689e-04 -1.071465e-04 5.914862e-04 -4.682889e-05 6.748779e-04 1.221594e-04 8.498726e-04 4.413551e-04 1.126606e-03 8.710250e-04 1.504245e-03 1.479863e-03 2.165865e-03 2.548800e-03 3.497858e-03 4.604470e-03 6.158087e-03 8.544254e-03 1.169322e-02 1.781840e-02 2.235340e-02 2.007250e-03 -1.380929e-02 -6.055515e-03 -7.462551e-03 -5.892517e-03 -2.518361e-03 -1.145610e-02 -1.647341e-02 -1.386716e-02 -1.381743e-02 -1.775290e-02 -1.546027e-02 -1.106017e-02 -1.859834e-02 -1.147672e-02 1.057209e-02 1.836644e-02 1.330460e-02 9.852714e-03 6.746854e-03 5.413790e-03 3.698028e-03 3.094330e-03 2.105180e-03 1.743825e-03 1.250415e-03 8.893044e-04 8.298482e-04 3.652383e-04 6.922086e-04 4.844221e-05 6.927476e-04 -1.493738e-04 7.275302e-04 -2.978812e-04 7.036012e-04 -4.104235e-04 6.249294e-04 -4.312823e-04 5.022544e-04 -3.444561e-04 3.331677e-04 -1.463475e-04 1.032027e-04 1.200118e-04 -1.986217e-04 4.356466e-04 -5.373296e-04 7.611041e-04 -8.959646e-04 1.051872e-03 -1.212612e-03 1.267651e-03 -1.463366e-03 1.320992e-03 -1.611991e-03 1.170879e-03 -1.610192e-03 7.145913e-04 -1.447296e-03 -2.246254e-04 -9.624457e-04 -2.060653e-03 6.718279e-04 -6.659932e-03 1.889529e-02 2.460408e-04 -9.671428e-03 -2.450192e-03 -3.635269e-03 -1.026016e-04 
1.977454e-03 8.456755e-03 1.635079e-02 2.532355e-02 3.599936e-02 -9.369817e-03 -8.738883e-03 3.433132e-03 -6.315179e-03 1.551901e-03 -6.344173e-03 -2.178339e-03 -5.451712e-03 6.204895e-03 -6.173478e-04 2.367485e-03 -7.258712e-04 7.649139e-04 -1.111115e-03 -7.144625e-04 -3.002673e-03 3.495279e-03 4.330985e-03 2.741231e-03 2.045880e-03 1.479860e-03 1.017205e-03 8.308484e-04 6.094013e-04 4.468291e-04 5.370111e-04 1.969103e-04 6.223266e-04 4.201600e-05 7.424071e-04 -1.298460e-04 7.319763e-04 -3.555431e-04 6.375932e-04 -5.296364e-04 5.392077e-04 -5.807864e-04 5.227590e-04 -4.892633e-04 4.888720e-04 -5.056234e-04 2.013032e-04 -7.830287e-04 -3.530515e-04 -1.307365e-03 -1.147468e-03 -2.120258e-03 -2.325616e-03 -3.632212e-03 -4.662949e-03 -7.389911e-03 -8.595420e-03 5.252811e-04 6.582561e-03 2.430092e-03 1.421919e-03 -9.966956e-04 -2.169212e-03 5.669759e-03 1.050020e-02 9.428403e-03 9.189302e-03 1.244065e-02 9.483149e-03 7.214589e-03 1.055252e-02 5.180392e-03 -9.517888e-03 -1.148126e-02 -8.590951e-03 -5.123020e-03 -4.270657e-03 -2.403785e-03 -2.281960e-03 -1.137132e-03 -1.194770e-03 -6.371707e-04 -6.254428e-04 -5.749830e-04 -2.390596e-04 -6.003977e-04 1.630773e-04 -6.296680e-04 5.413653e-04 -6.598881e-04 8.362521e-04 -7.431935e-04 9.308254e-04 -8.608652e-04 8.955476e-04 -8.636829e-04 7.801243e-04 -7.164068e-04 5.902690e-04 -4.001117e-04 2.997561e-04 2.908822e-06 -1.180041e-04 4.848207e-04 -5.877382e-04 9.909981e-04 -1.099687e-03 1.463468e-03 -1.532389e-03 1.874165e-03 -1.855406e-03 2.096218e-03 -1.989153e-03 2.161319e-03 -1.801157e-03 2.012370e-03 -1.267050e-03 1.557357e-03 -1.919165e-04 4.365528e-04 2.121232e-03 -3.425603e-03 1.413547e-02 -3.442134e-02 -3.732699e-02 -1.582411e-02 -1.120904e-02 -2.547539e-03 
1.385010e-03 8.735921e-03 1.651907e-02 2.828955e-02 4.151910e-02 2.506971e-02 7.327148e-03 7.336049e-04 -4.275618e-04 3.520454e-03 8.601509e-05 5.424507e-03 1.639594e-03 1.344382e-04 -1.466180e-04 3.851319e-04 -2.295065e-04 2.308392e-04 -2.143901e-04 -2.311392e-05 -5.132419e-05 -2.873013e-03 -3.580042e-03 -1.073381e-03 -1.895183e-03 1.812607e-05 -1.166263e-03 2.932331e-04 -7.421820e-04 3.014081e-04 -3.869647e-04 2.149733e-04 -6.089159e-05 1.131561e-04 2.167575e-04 -3.739639e-05 3.581298e-04 -2.385962e-04 4.132337e-04 -3.975311e-04 4.537143e-04 -4.461693e-04 5.553319e-04 -3.517100e-04 6.654173e-04 -2.650168e-04 6.501461e-04 -2.409147e-04 5.767909e-04 -1.592959e-04 6.186718e-04 1.596975e-04 9.237460e-04 7.414295e-04 1.305373e-03 1.282102e-03 6.981364e-04 -1.718955e-03 -1.856226e-03 -1.289457e-04 2.026495e-03 5.229618e-03 4.817140e-03 -1.230949e-03 -6.112808e-03 -5.319290e-03 -5.931293e-03 -7.587655e-03 -5.936154e-03 -3.492521e-03 -6.158221e-03 1.413496e-05 7.413949e-03 8.177775e-03 4.337757e-03 3.504270e-03 1.813659e-03 1.967270e-03 9.079875e-04 1.182560e-03 5.142920e-04 6.560955e-04 3.176806e-04 2.195701e-04 2.778752e-04 -7.529581e-05 4.033396e-04 -2.662141e-04 5.966509e-04 -3.994969e-04 7.762200e-04 -5.380305e-04 8.367331e-04 -6.810257e-04 8.167767e-04 -7.284743e-04 7.455033e-04 -6.583303e-04 6.220782e-04 -4.599564e-04 4.234464e-04 -1.931960e-04 1.270276e-04 1.359477e-04 -2.167701e-04 4.893679e-04 -6.039199e-04 8.269935e-04 -9.516654e-04 1.129400e-03 -1.243090e-03 1.305441e-03 -1.429398e-03 1.374929e-03 -1.433192e-03 1.296338e-03 -1.283257e-03 1.040384e-03 -9.858817e-04 6.160590e-04 -5.798669e-04 6.468510e-04 -9.468742e-03 -4.917797e-02 -3.781221e-02 -2.165131e-02 -1.274316e-02 -4.962870e-03 
7.660991e-04 3.682193e-03 7.666865e-03 1.126331e-02 1.700980e-02 2.234880e-02 1.248347e-02 2.642546e-03 3.984079e-03 5.224628e-03 4.481336e-03 1.104382e-02 6.400115e-03 8.375634e-05 -1.745917e-04 4.188922e-04 -2.589984e-04 2.619674e-04 -2.434879e-04 -3.568589e-06 -3.278114e-05 -6.630618e-03 -8.253644e-03 -4.164886e-03 -4.054902e-03 -1.757686e-03 -2.047766e-03 -6.430865e-04 -9.813086e-04 -1.275986e-04 -3.763956e-04 7.904682e-05 9.581251e-07 1.402231e-04 2.606508e-04 1.355673e-04 4.480467e-04 1.190366e-04 6.099754e-04 1.492440e-04 7.958832e-04 2.788065e-04 1.055207e-03 5.534304e-04 1.426831e-03 1.012799e-03 1.978850e-03 1.777400e-03 2.908766e-03 3.139805e-03 4.630123e-03 5.690736e-03 7.936215e-03 1.066355e-02 1.512685e-02 2.354661e-02 3.101830e-02 4.716405e-03 -1.790520e-02 -8.087551e-03 -1.131014e-02 -1.218039e-02 -6.566659e-03 -1.322257e-02 -1.577192e-02 -1.338577e-02 -1.297253e-02 -1.568581e-02 -1.534275e-02 -1.040436e-02 -1.783248e-02 -1.562410e-02 4.285013e-03 1.538008e-02 1.246448e-02 9.589221e-03 6.600301e-03 5.294419e-03 3.582022e-03 2.967981e-03 1.971417e-03 1.635811e-03 1.122294e-03 8.427343e-04 7.035264e-04 3.623219e-04 5.378402e-04 6.475793e-05 5.043249e-04 -1.272652e-04 5.200443e-04 -2.615127e-04 5.269875e-04 -3.521638e-04 5.090760e-04 -3.852393e-04 4.625541e-04 -3.542980e-04 3.828159e-04 -2.613357e-04 2.631443e-04 -1.236259e-04 1.012034e-04 4.443373e-05 -8.979399e-05 2.213995e-04 -2.974023e-04 3.813943e-04 -4.982027e-04 4.944994e-04 -6.810656e-04 5.128414e-04 -8.406292e-04 3.894023e-04 -9.880508e-04 4.903523e-05 -1.183733e-03 -5.891856e-04 -1.546479e-03 -1.491989e-03 -2.407037e-03 -1.589657e-03 -1.351878e-02 -2.501893e-02 -1.412173e-02 -1.188493e-02 -6.108829e-03 -3.672780e-03 
6.933423e-04 2.894405e-03 5.342598e-03 7.232054e-03 8.952441e-03 9.490157e-03 7.735184e-03 6.919757e-03 5.868535e-03 9.306006e-03 8.723496e-03 1.781227e-02 1.510860e-02 1.191319e-04 -3.097117e-05 1.033073e-04 -6.642036e-05 6.963013e-05 -7.621707e-05 1.170509e-05 -8.454284e-05 -1.254711e-02 -1.468352e-02 -8.055505e-03 -7.678906e-03 -4.099336e-03 -4.165459e-03 -2.029470e-03 -2.202026e-03 -9.353191e-04 -1.100703e-03 -3.922473e-04 -4.647274e-04 -1.379249e-04 -7.907371e-05 -2.951481e-05 1.660374e-04 1.710817e-05 3.413509e-04 6.258750e-05 4.962047e-04 1.462427e-04 6.613916e-04 2.851544e-04 8.437006e-04 4.737241e-04 1.044399e-03 7.225978e-04 1.301102e-03 1.089638e-03 1.709650e-03 1.709253e-03 2.474933e-03 2.951914e-03 4.639428e-03 7.669108e-03 1.054653e-02 3.920274e-04 -6.752274e-03 6.519344e-04 -6.431246e-04 -7.357456e-04 1.729712e-03 -2.683228e-03 -2.189143e-03 -2.266602e-03 -3.818684e-03 -1.128033e-03 -3.242006e-03 -3.009888e-03 1.803284e-03 -2.010286e-03 -1.003118e-02 -7.586931e-03 -3.084872e-03 -4.338732e-04 2.434002e-04 1.023870e-03 8.967720e-04 1.130974e-03 8.370877e-04 8.396313e-04 6.238346e-04 4.979317e-04 4.540676e-04 2.208095e-04 3.712572e-04 2.341654e-05 3.534287e-04 -1.117447e-04 3.626654e-04 -2.060610e-04 3.650606e-04 -2.667138e-04 3.486175e-04 -2.851656e-04 3.101146e-04 -2.567114e-04 2.463067e-04 -1.835762e-04 1.525923e-04 -7.816232e-05 2.742209e-05 4.679669e-05 -1.215571e-04 1.740044e-04 -2.857134e-04 2.821483e-04 -4.521518e-04 3.445246e-04 -6.176351e-04 3.210405e-04 -7.884946e-04 1.647933e-04 -9.894040e-04 -1.975359e-04 -1.283336e-03 -8.764954e-04 -1.783896e-03 -2.054298e-03 -2.719725e-03 -4.034090e-03 -5.384122e-03 -9.758097e-03 -7.078155e-03 -6.659894e-03 -3.837297e-03 -2.065426e-03 
2.713728e-04 1.017140e-03 2.059455e-03 2.929614e-03 3.505342e-03 4.324447e-03 3.537730e-03 3.369689e-03 2.992784e-03 4.510492e-03 4.347925e-03 9.089651e-03 7.696454e-03 5.879439e-05 -3.225575e-05 7.394293e-05 -5.516530e-05 5.613474e-05 -5.448275e-05 1.504775e-05 -4.055056e-05 -6.041463e-03 -7.079283e-03 -3.796349e-03 -3.623358e-03 -1.939332e-03 -1.911721e-03 -9.278969e-04 -9.314225e-04 -3.631171e-04 -3.706610e-04 -5.832699e-05 -3.287935e-05 1.141019e-04 1.969176e-04 2.320327e-04 3.846516e-04 3.462942e-04 5.740944e-04 4.954734e-04 7.986640e-04 7.104835e-04 1.085598e-03 1.016912e-03 1.459362e-03 1.440755e-03 1.953073e-03 2.024759e-03 2.628311e-03 2.847122e-03 3.593854e-03 4.031757e-03 5.004797e-03 5.756395e-03 7.319920e-03 8.667094e-03 6.347440e-03 -4.587886e-03 -7.443218e-03 -1.779335e-03 -4.976028e-03 -2.819722e-03 -2.111403e-03 -1.166275e-02 -1.213542e-02 -9.473093e-03 -1.185156e-02 -1.222879e-02 -1.052118e-02 -9.748411e-03 -1.152414e-02 -6.241791e-03 2.073402e-03 5.568280e-03 6.532500e-03 6.903263e-03 6.212665e-03 5.718266e-03 4.751984e-03 4.134876e-03 3.303427e-03 2.776881e-03 2.186397e-03 1.774110e-03 1.419260e-03 1.086951e-03 9.297176e-04 6.353633e-04 6.318859e-04 3.445268e-04 4.532559e-04 1.584387e-04 3.417848e-04 4.212660e-05 2.660117e-04 -2.303245e-05 2.078684e-04 -4.831354e-05 1.559827e-04 -4.305694e-05 1.023589e-04 -1.715458e-05 4.233090e-05 2.010955e-05 -2.450935e-05 5.942676e-05 -9.624225e-05 9.040974e-05 -1.704451e-04 9.952736e-05 -2.488864e-04 6.766646e-05 -3.400333e-04 -2.909504e-05 -4.628197e-04 -2.210156e-04 -6.537482e-04 -5.452830e-04 -9.806609e-04 -1.063854e-03 -1.587376e-03 -1.945605e-03 -2.768354e-03 -3.943878e-03 -2.756146e-03 -2.868244e-03 -1.466451e-03 -1.019555e-03 
-2.302558e-06 4.456831e-07 -1.648943e-06 6.443615e-07 -1.426415e-06 6.706267e-07 -1.760635e-06 4.381931e-07 -1.545817e-06 5.359603e-08 -1.265280e-06 -4.730970e-07 -1.756097e-06 1.192325e-07 -7.358121e-08 -4.274847e-08 -2.657199e-07 -9.761687e-08 -4.409964e-07 -1.157299e-07 -6.583115e-07 3.567328e-05 1.289191e-05 3.765149e-05 1.605607e-05 4.228190e-05 2.183107e-05 4.920736e-05 3.432280e-05 6.324122e-05 5.794584e-05 8.638287e-05 9.308689e-05 1.172038e-04 1.375100e-04 1.541207e-04 1.914883e-04 2.015094e-04 2.620891e-04 2.692992e-04 3.579299e-04 3.652998e-04 4.822738e-04 4.906457e-04 6.323678e-04 6.444514e-04 8.112051e-04 8.415115e-04 1.049420e-03 1.136712e-03 1.434274e-03 1.659907e-03 2.155262e-03 2.717852e-03 3.826250e-03 5.091616e-03 3.469842e-03 -3.732846e-03 -5.768946e-03 -2.799627e-03 -4.451046e-03 -2.779739e-03 -2.205410e-03 -5.730534e-03 -4.114896e-03 -2.887172e-03 -4.358701e-03 -4.489751e-03 -3.261352e-03 -2.745214e-03 -4.238470e-03 -2.895508e-03 9.447288e-04 3.152172e-03 3.356582e-03 3.272911e-03 2.936068e-03 2.678536e-03 2.261147e-03 1.963515e-03 1.575473e-03 1.320566e-03 1.014737e-03 8.288555e-04 6.132454e-04 4.925891e-04 3.535676e-04 2.811758e-04 1.975696e-04 1.545066e-04 1.066420e-04 7.812744e-05 5.245367e-05 3.071645e-05 2.068034e-05 3.062893e-06 5.365718e-06 -9.536481e-06 1.961243e-06 -1.233536e-05 4.072344e-06 -1.214337e-05 5.358002e-06 -1.328726e-05 3.502042e-06 -1.577803e-05 7.665822e-08 -1.667145e-05 -1.801994e-06 -1.406599e-05 -2.018244e-06 -9.773814e-06 -2.510105e-06 -5.978809e-06 -4.254493e-06 -3.725808e-06 -6.682464e-06 -2.359841e-06 -8.070148e-06 -1.223352e-06 -7.942155e-06 -5.824532e-07 -6.586271e-06 -4.684261e-07 -4.866091e-06 -1.336656e-07 -3.371150e-06 1.792785e-07 
-2.747313e-04 -1.016628e-03 -2.061157e-03 -2.928934e-03 -3.506257e-03 -4.324003e-03 -3.540203e-03 -3.370016e-03 -2.993011e-03 -4.512324e-03 -4.345973e-03 -9.093531e-03 -7.694434e-03 -5.909163e-05 3.180814e-05 -7.452688e-05 5.443347e-05 -5.661435e-05 5.350740e-05 -1.528315e-05 3.976711e-05 6.147237e-03 7.136186e-03 3.910608e-03 3.693384e-03 2.071513e-03 2.006571e-03 1.088760e-03 1.070704e-03 5.743512e-04 5.846962e-04 3.483179e-04 3.564695e-04 2.847879e-04 2.721641e-04 3.090092e-04 2.735257e-04 3.869268e-04 3.401330e-04 5.103816e-04 4.681124e-04 6.783867e-04 6.532041e-04 8.856155e-04 8.839499e-04 1.120755e-03 1.145159e-03 1.371016e-03 1.419798e-03 1.616500e-03 1.675916e-03 1.807586e-03 1.830591e-03 1.818301e-03 1.725804e-03 1.445532e-03 5.224264e-04 -1.500902e-03 -2.519555e-03 -2.337334e-03 -3.147926e-03 -3.110619e-03 -3.638216e-03 -5.158527e-03 -5.250046e-03 -5.481460e-03 -5.833892e-03 -5.726058e-03 -5.215553e-03 -4.668181e-03 -3.980982e-03 -2.197715e-03 1.855154e-04 1.671750e-03 2.687180e-03 3.067063e-03 3.272652e-03 3.141131e-03 2.952812e-03 2.629036e-03 2.301883e-03 1.980075e-03 1.635599e-03 1.405409e-03 1.083562e-03 9.735737e-04 6.741360e-04 6.791903e-04 3.882135e-04 4.873825e-04 1.937357e-04 3.603253e-04 6.394173e-05 2.708042e-04 -1.549940e-05 2.040084e-04 -5.148938e-05 1.506851e-04 -5.093882e-05 1.022783e-04 -2.450707e-05 5.039424e-05 1.610464e-05 -7.326614e-06 6.413817e-05 -6.398465e-05 1.186273e-04 -1.052612e-04 1.818298e-04 -1.151147e-04 2.547457e-04 -7.884744e-05 3.415173e-04 2.281275e-05 4.588346e-04 2.176050e-04 6.437925e-04 5.435640e-04 9.672107e-04 1.063603e-03 1.573465e-03 1.945927e-03 2.756433e-03 3.943847e-03 2.747526e-03 2.868376e-03 1.460791e-03 1.019863e-03 
-6.960188e-04 -2.893061e-03 -5.344089e-03 -7.230101e-03 -8.953190e-03 -9.487956e-03 -7.741001e-03 -6.918264e-03 -5.871877e-03 -9.305775e-03 -8.725050e-03 -1.781361e-02 -1.511088e-02 -1.193617e-04 3.066398e-05 -1.038377e-04 6.582142e-05 -6.997217e-05 7.566782e-05 -1.138604e-05 8.464528e-05 1.261180e-02 1.469958e-02 8.122536e-03 7.694715e-03 4.166606e-03 4.176072e-03 2.094537e-03 2.221589e-03 1.020305e-03 1.164454e-03 5.266615e-04 6.041030e-04 3.356495e-04 3.002769e-04 2.761451e-04 1.255838e-04 2.731269e-04 4.305515e-05 3.154804e-04 4.818955e-05 3.998857e-04 1.255543e-04 5.057876e-04 2.388422e-04 6.033874e-04 3.605685e-04 6.905148e-04 4.952197e-04 7.860837e-04 6.521887e-04 8.937808e-04 8.045338e-04 9.466940e-04 8.197433e-04 7.247603e-04 2.930024e-04 -4.792092e-04 -1.049168e-03 -1.106850e-03 -1.552767e-03 -1.630752e-03 -1.693953e-03 -2.178487e-03 -2.010374e-03 -2.158675e-03 -2.077049e-03 -2.154467e-03 -1.777761e-03 -1.671515e-03 -1.245493e-03 -8.468212e-04 1.824337e-04 5.615505e-04 1.131147e-03 1.097509e-03 1.338154e-03 1.108488e-03 1.156114e-03 8.902203e-04 8.224596e-04 6.271008e-04 4.744134e-04 4.174898e-04 1.879301e-04 3.045603e-04 -1.250244e-05 2.747386e-04 -1.455799e-04 2.854682e-04 -2.394025e-04 2.940493e-04 -3.106249e-04 2.808139e-04 -3.475535e-04 2.514233e-04 -3.307905e-04 2.112751e-04 -2.542628e-04 1.549592e-04 -1.348124e-04 6.419072e-05 -2.210941e-07 -6.491252e-05 1.372570e-04 -2.100594e-04 2.811645e-04 -3.283346e-04 4.427985e-04 -3.787153e-04 6.152347e-04 -3.382076e-04 7.887756e-04 -1.704011e-04 9.837377e-04 1.936544e-04 1.265789e-03 8.726258e-04 1.761620e-03 2.053762e-03 2.698895e-03 4.035040e-03 5.369493e-03 9.756483e-03 7.069571e-03 6.659991e-03 3.832580e-03 2.066266e-03 
-7.663513e-04 -3.681183e-03 -7.664884e-03 -1.126105e-02 -1.700215e-02 -2.234697e-02 -1.250139e-02 -2.639979e-03 -3.983984e-03 -5.225873e-03 -4.475602e-03 -1.104954e-02 -6.391262e-03 -8.714574e-05 1.740386e-04 -4.210208e-04 2.581040e-04 -2.630059e-04 2.412668e-04 5.248975e-06 3.359450e-05 6.708986e-03 8.264342e-03 4.241405e-03 4.069284e-03 1.830925e-03 2.051405e-03 7.067676e-04 9.893654e-04 2.140380e-04 4.375653e-04 7.308710e-05 1.568786e-04 9.755137e-05 -1.755694e-06 1.599127e-04 -1.152538e-04 2.197190e-04 -1.728567e-04 3.018684e-04 -1.456368e-04 4.214958e-04 -3.857851e-05 5.561769e-04 1.002244e-04 6.606271e-04 2.310742e-04 7.309150e-04 3.605785e-04 7.890818e-04 4.942460e-04 8.322603e-04 5.946530e-04 7.905476e-04 5.475830e-04 5.248487e-04 1.967716e-04 -1.402405e-04 -5.724144e-04 -7.218210e-04 -1.010134e-03 -1.242484e-03 -1.453968e-03 -1.997681e-03 -2.158997e-03 -2.516769e-03 -2.399834e-03 -2.572581e-03 -2.115323e-03 -2.020852e-03 -1.336054e-03 -1.070428e-03 -9.431576e-05 5.430237e-05 7.402706e-04 6.167406e-04 1.049186e-03 7.817604e-04 1.014616e-03 7.251864e-04 7.932037e-04 5.816717e-04 4.988841e-04 4.484220e-04 2.248574e-04 3.914773e-04 1.737190e-05 4.057831e-04 -1.361330e-04 4.465828e-04 -2.613160e-04 4.653482e-04 -3.727443e-04 4.438832e-04 -4.436308e-04 3.997425e-04 -4.402448e-04 3.440618e-04 -3.513553e-04 2.698803e-04 -2.022834e-04 1.457578e-04 -3.660317e-05 -3.745532e-05 1.283836e-04 -2.501498e-04 2.979490e-04 -4.321097e-04 4.895585e-04 -5.292723e-04 6.834427e-04 -5.251905e-04 8.471522e-04 -3.871428e-04 9.864326e-04 -4.754377e-05 1.164040e-03 5.883973e-04 1.520965e-03 1.495308e-03 2.383523e-03 1.593606e-03 1.350104e-02 2.501709e-02 1.411500e-02 1.188549e-02 6.106388e-03 3.673523e-03 
-1.381637e-03 -8.733688e-03 -1.651544e-02 -2.828515e-02 -4.150738e-02 -2.506537e-02 -7.351894e-03 -7.310777e-04 4.246246e-04 -3.519692e-03 -8.214518e-05 -5.426464e-03 -1.638140e-03 -1.370145e-04 1.462538e-04 -3.876681e-04 2.277495e-04 -2.329430e-04 2.123857e-04 2.689974e-05 5.873447e-05 2.913846e-03 3.586722e-03 1.145996e-03 1.903407e-03 2.919171e-05 1.076270e-03 -3.593575e-04 5.604866e-04 -3.892138e-04 2.554236e-04 -1.968454e-04 9.968575e-05 6.801923e-05 -5.180563e-05 1.819028e-04 -3.264547e-04 1.383859e-04 -5.663474e-04 1.314967e-04 -6.177012e-04 2.442448e-04 -4.777816e-04 4.017624e-04 -3.334181e-04 4.042514e-04 -3.238979e-04 2.760745e-04 -3.403187e-04 1.700228e-04 -2.663783e-04 1.920268e-04 -5.983538e-05 2.992030e-04 1.343574e-04 3.140357e-04 1.718283e-04 9.446469e-05 -1.207386e-04 -1.829046e-04 -2.271878e-04 -3.330140e-04 -2.475377e-04 -5.208573e-04 -3.819123e-04 -6.002850e-04 -2.400715e-04 -5.412795e-04 -8.049155e-05 -4.434370e-04 3.570762e-05 -4.260399e-04 2.103930e-04 -3.294151e-04 2.538993e-04 -2.917583e-04 3.048121e-04 -1.888026e-04 2.999846e-04 -1.229836e-04 1.583772e-04 -1.334001e-04 -1.189974e-04 -1.482939e-04 -3.624939e-04 6.599349e-06 -4.645583e-04 2.832089e-04 -5.138695e-04 5.532033e-04 -5.897230e-04 6.850525e-04 -7.580873e-04 6.529374e-04 -8.988391e-04 5.773409e-04 -8.852708e-04 5.129616e-04 -6.646106e-04 4.602535e-04 -3.139136e-04 2.790664e-04 9.985012e-06 -8.175258e-05 2.818644e-04 -5.557085e-04 5.366021e-04 -9.709958e-04 8.922516e-04 -1.187521e-03 1.261586e-03 -1.297086e-03 1.471258e-03 -1.334411e-03 1.455480e-03 -1.289930e-03 1.234102e-03 -1.057033e-03 9.339660e-04 -6.073441e-04 5.366280e-04 -6.289638e-04 9.449301e-03 4.915736e-02 3.781530e-02 2.165673e-02 1.274866e-02 4.965824e-03 
-1.973288e-03 -8.455542e-03 -1.635028e-02 -2.532201e-02 -3.599820e-02 9.372977e-03 8.744908e-03 -3.440144e-03 6.312434e-03 -1.554800e-03 6.344132e-03 2.175113e-03 5.446378e-03 -6.215064e-03 6.317421e-04 -2.361332e-03 7.350043e-04 -7.660002e-04 1.098966e-03 7.369051e-04 2.981881e-03 -3.461672e-03 -4.326109e-03 -2.656362e-03 -2.039867e-03 -1.429563e-03 -1.148945e-03 -9.419331e-04 -8.745905e-04 -5.980614e-04 -7.470053e-04 -2.167701e-04 -6.175627e-04 1.495762e-04 -5.865893e-04 2.580649e-04 -7.900858e-04 1.267609e-04 -9.956679e-04 3.219137e-05 -9.898633e-04 8.969468e-05 -7.685514e-04 1.979849e-04 -5.885855e-04 8.129343e-05 -6.421443e-04 -2.266340e-04 -7.769676e-04 -5.130277e-04 -8.228716e-04 -6.133918e-04 -6.827562e-04 -5.270387e-04 -4.655670e-04 -3.762462e-04 -2.240189e-04 -1.535440e-04 8.032625e-05 -1.633282e-05 2.071496e-04 9.774583e-05 3.752519e-04 2.971667e-04 6.546081e-04 4.730434e-04 8.439196e-04 4.982073e-04 8.046094e-04 1.871299e-04 4.816270e-04 -2.812948e-04 1.761407e-05 -7.169208e-04 -1.741008e-04 -7.254628e-04 -5.502878e-05 -4.968421e-04 6.225589e-05 -3.064914e-04 -1.262633e-05 -2.490979e-04 -2.975605e-04 -2.322954e-04 -5.574693e-04 -1.036546e-05 -6.386791e-04 3.569496e-04 -6.584437e-04 7.022297e-04 -7.195068e-04 8.515409e-04 -9.114843e-04 7.717607e-04 -1.069571e-03 6.294754e-04 -1.021978e-03 4.999073e-04 -6.957560e-04 3.887044e-04 -1.941683e-04 1.079878e-04 2.676074e-04 -4.080532e-04 6.519607e-04 -1.068742e-03 9.959079e-04 -1.641072e-03 1.451458e-03 -1.932760e-03 1.887502e-03 -2.070820e-03 2.053933e-03 -2.101232e-03 1.838736e-03 -2.007762e-03 1.205677e-03 -1.588690e-03 1.280841e-04 -4.320416e-04 -2.172791e-03 3.445520e-03 -1.415282e-02 3.438073e-02 3.733698e-02 1.582885e-02 1.121903e-02 2.549910e-03 
-8.838571e-04 -2.980981e-03 -5.882595e-03 -6.587605e-03 -8.668228e-03 2.032316e-02 9.213744e-03 -9.215249e-03 2.314328e-03 -8.143694e-03 7.503936e-04 -1.068127e-02 1.572478e-03 8.155905e-03 5.686124e-03 1.474034e-03 1.405267e-03 -9.777767e-04 -2.587087e-03 -4.085435e-03 -9.557790e-03 1.669787e-03 4.864775e-03 2.623824e-03 2.541501e-03 1.321379e-03 1.270183e-03 6.993014e-04 5.276221e-04 4.231193e-04 1.270590e-04 3.769937e-04 -5.013423e-05 4.325882e-04 -1.436724e-04 4.347331e-04 -2.568956e-04 3.678519e-04 -3.149722e-04 3.421337e-04 -2.355603e-04 4.081642e-04 -2.601929e-05 5.195721e-04 1.926592e-04 5.558849e-04 3.247715e-04 5.209151e-04 4.145973e-04 4.879484e-04 5.054642e-04 4.870524e-04 5.774286e-04 4.411197e-04 4.905588e-04 2.046480e-04 1.394201e-04 -2.240402e-04 -3.765337e-04 -8.523182e-04 -1.051806e-03 -1.421790e-03 -1.406066e-03 -1.508017e-03 -1.238249e-03 -1.318066e-03 -1.038442e-03 -1.093437e-03 -8.101826e-04 -9.457177e-04 -5.754109e-04 -7.038966e-04 -2.693804e-04 -3.791700e-04 1.351151e-04 1.693104e-05 4.488057e-04 2.786052e-04 5.453701e-04 3.644769e-04 4.331640e-04 3.235003e-04 1.822969e-04 2.567919e-04 -6.060239e-05 2.956784e-04 -2.074108e-04 4.222928e-04 -3.003772e-04 5.533510e-04 -3.885020e-04 5.986296e-04 -5.092047e-04 5.337983e-04 -5.886331e-04 4.245125e-04 -5.447777e-04 3.041080e-04 -3.432592e-04 1.717978e-04 -3.337146e-05 -5.143847e-05 2.843779e-04 -3.894660e-04 5.812659e-04 -7.883658e-04 8.652168e-04 -1.125949e-03 1.187982e-03 -1.294350e-03 1.485514e-03 -1.309686e-03 1.647230e-03 -1.145123e-03 1.627980e-03 -7.141386e-04 1.417181e-03 2.075345e-04 9.253135e-04 2.057389e-03 -7.036373e-04 6.664100e-03 -1.890523e-02 -2.710619e-04 9.672912e-03 2.448011e-03 3.638998e-03 1.010905e-04 
-6.556935e-04 -1.166630e-03 -2.890601e-03 -1.600721e-03 -2.952253e-03 6.099369e-03 9.478030e-04 -5.676818e-03 -3.283902e-03 -8.504855e-03 -9.244395e-03 -1.797255e-02 -2.333301e-02 -2.475205e-02 -1.138674e-02 -6.944472e-03 -2.663459e-03 2.810255e-03 6.768143e-03 1.187171e-02 2.473949e-02 2.443976e-02 1.561945e-02 1.043030e-02 6.256357e-03 4.370534e-03 2.521049e-03 1.846224e-03 9.121230e-04 7.896965e-04 2.292745e-04 3.807245e-04 -4.701402e-05 2.371367e-04 -1.639104e-04 1.681545e-04 -2.321305e-04 1.104796e-04 -2.607976e-04 7.736941e-05 -2.301808e-04 8.357971e-05 -1.437589e-04 1.157591e-04 -3.570107e-05 1.490497e-04 7.804019e-05 2.066624e-04 2.393005e-04 3.537343e-04 5.093445e-04 6.404039e-04 9.056547e-04 1.012910e-03 1.297606e-03 1.190449e-03 1.288534e-03 3.147053e-04 -1.806014e-04 1.741466e-04 2.810757e-04 3.675883e-04 3.551308e-05 -1.554113e-03 -2.715153e-03 -3.456580e-03 -3.713457e-03 -3.999309e-03 -3.392330e-03 -2.608867e-03 -1.856447e-03 -7.490742e-04 8.422694e-04 1.453945e-03 1.753565e-03 1.600510e-03 1.518766e-03 1.208642e-03 1.040025e-03 7.761130e-04 5.894425e-04 4.409883e-04 2.309594e-04 2.324122e-04 -1.410316e-05 1.547864e-04 -1.513672e-04 1.696273e-04 -2.214385e-04 2.160083e-04 -2.666151e-04 2.395693e-04 -3.088840e-04 2.205801e-04 -3.278050e-04 1.753156e-04 -2.915243e-04 1.177944e-04 -1.872926e-04 4.446358e-05 -3.550624e-05 -6.949104e-05 1.264779e-04 -2.318360e-04 2.807391e-04 -4.177050e-04 4.275683e-04 -5.771922e-04 5.739001e-04 -6.666730e-04 6.940074e-04 -6.730230e-04 7.459606e-04 -5.712479e-04 7.067813e-04 -2.978467e-04 5.741650e-04 2.871255e-04 3.353028e-04 1.456997e-03 -1.828247e-04 3.953383e-03 -5.891156e-03 -1.013804e-03 1.822173e-03 1.346298e-03 1.487378e-03 3.415927e-04 
