# vtk DataFile Version 2.0
Comment goes here
ASCII

DATASET STRUCTURED_POINTS
FIELD FieldData 1
TIME 1 1 double
0.90000000
DIMENSIONS    128   16   1

ORIGIN    0.000   0.000   0.000
SPACING   0.0078125 0.015625   1.000

POINT_DATA   2048
SCALARS uY double
LOOKUP_TABLE default

-4.341053e-09 1.767011e-06 7.422540e-08 2.246585e-06 -1.958251e-08 2.337645e-06 9.351269e-08 7.287243e-07 2.103712e-07 -1.318913e-06 5.117635e-07 -3.218774e-06 1.092842e-06 -6.012876e-06 3.434532e-06 -6.406672e-06 3.232505e-06 -4.561012e-06 1.949535e-06 -1.594191e-06 7.623285e-07 1.953901e-06 -2.407224e-06 6.912935e-06 -5.138633e-06 8.584435e-06 -1.112517e-05 7.971448e-06 -1.847910e-05 8.444585e-06 -2.350565e-05 1.173053e-05 -2.729332e-05 1.231599e-05 -3.605695e-05 2.934732e-06 -5.514212e-05 -2.215131e-05 -8.776133e-05 -6.404127e-05 -1.319006e-04 -1.219883e-04 -1.905214e-04 -2.047272e-04 -2.764938e-04 -3.276295e-04 -4.083621e-04 -5.099683e-04 -6.062952e-04 -7.665184e-04 -8.789519e-04 -1.094985e-03 -1.210884e-03 -1.472703e-03 -1.585762e-03 -1.842640e-03 -1.317121e-03 -1.506448e-04 8.474533e-04 4.171179e-04 6.649937e-04 5.825291e-04 2.579480e-04 -4.915982e-05 -2.285291e-04 -7.843514e-04 -1.322175e-03 -1.195194e-03 -1.136954e-03 -8.192509e-04 -5.132876e-06 8.699258e-04 1.274807e-03 1.545379e-03 1.632113e-03 1.859425e-03 1.675751e-03 1.578683e-03 1.272784e-03 1.143961e-03 8.737185e-04 7.809507e-04 5.722039e-04 5.161689e-04 3.658905e-04 3.333578e-04 2.327766e-04 2.120181e-04 1.514800e-04 1.319322e-04 1.013919e-04 7.691902e-05 7.037043e-05 3.976941e-05 5.260969e-05 1.651239e-05 4.390062e-05 3.805011e-06 3.951879e-05 -2.932186e-06 3.510203e-05 -6.610119e-06 2.836950e-05 -9.557449e-06 1.876278e-05 -1.091125e-05 9.985177e-06 -8.972436e-06 2.979420e-06 -5.241686e-06 -1.366690e-06 8.314167e-07 -2.357864e-06 6.617094e-06 -3.137304e-06 9.283849e-06 -4.563023e-06 8.872261e-06 -6.125107e-06 6.740425e-06 -6.118425e-06 4.207439e-06 -4.999014e-06 2.227048e-07 -1.780180e-06 9.789920e-07 -4.882107e-07 1.351362e-06 
9.875243e-04 -6.152203e-05 1.943624e-03 3.930010e-04 4.869107e-03 2.674648e-04 -5.771863e-03 2.027162e-03 -1.321708e-03 2.013126e-04 -1.130355e-03 2.199564e-04 2.103089e-03 2.670764e-03 -6.696614e-04 1.320925e-03 4.853054e-04 -6.172691e-04 2.855175e-04 -1.244633e-03 -2.976639e-03 -1.863854e-03 1.785693e-04 5.425034e-04 5.334596e-04 1.543675e-04 4.267886e-04 -4.231049e-05 3.826922e-04 -1.395990e-04 3.456837e-04 -1.703566e-04 3.018420e-04 -1.589911e-04 2.383913e-04 -1.263398e-04 1.539154e-04 -8.453015e-05 5.705129e-05 -3.855528e-05 -3.812430e-05 3.733700e-06 -1.293290e-04 1.934375e-05 -2.283668e-04 -1.894550e-05 -3.554676e-04 -1.459134e-04 -5.544591e-04 -4.265156e-04 -9.233139e-04 -1.005433e-03 -1.717090e-03 -2.348078e-03 -3.818697e-03 -5.055641e-03 -3.938897e-03 -6.471015e-04 -3.271833e-04 -4.252922e-03 -3.396980e-03 -1.843126e-03 -2.741331e-03 -2.436594e-03 1.189094e-03 2.568967e-03 3.755679e-03 6.234924e-03 6.500064e-03 4.518339e-03 4.168375e-03 2.655179e-03 3.062637e-04 -1.228280e-03 -1.574117e-03 -3.574144e-04 2.366618e-04 7.994537e-04 5.599629e-04 8.878890e-04 4.168770e-04 7.526633e-04 2.316273e-04 5.850786e-04 9.830888e-05 4.245222e-04 3.334867e-05 2.767427e-04 3.271229e-05 1.365727e-04 7.921534e-05 -1.368175e-06 1.555466e-04 -1.337542e-04 2.447016e-04 -2.519732e-04 3.292341e-04 -3.427151e-04 3.921708e-04 -3.929866e-04 4.160629e-04 -3.925759e-04 3.839216e-04 -3.374944e-04 2.846448e-04 -2.232912e-04 1.225870e-04 -4.768917e-05 -9.169285e-05 1.777691e-04 -3.423471e-04 4.274202e-04 -6.094984e-04 6.529730e-04 -8.658550e-04 7.858778e-04 -1.055015e-03 7.253858e-04 -1.066943e-03 2.997962e-04 -6.434642e-04 -8.382679e-04 2.480053e-03 -3.237078e-03 -5.441381e-04 -7.182441e-04 4.101313e-04 -1.118374e-04 
1.629124e-03 -2.415120e-04 3.135731e-03 2.423185e-04 1.295240e-02 3.842774e-04 -1.640003e-02 6.890374e-03 -2.317922e-03 4.079772e-03 -8.050655e-04 6.528912e-03 2.334261e-03 -1.906901e-03 1.381406e-03 -1.292628e-03 9.504029e-04 -1.257630e-03 1.882516e-03 -1.993678e-03 3.541324e-03 -3.437971e-03 -4.590355e-03 -1.156961e-03 -2.035150e-03 -8.394941e-04 -9.741119e-04 -7.464058e-04 -3.432162e-04 -6.811852e-04 1.369620e-05 -5.923904e-04 1.862877e-04 -4.851681e-04 2.093762e-04 -3.760267e-04 1.241962e-04 -2.704130e-04 -2.490152e-05 -1.623042e-04 -1.838508e-04 -5.507564e-05 -3.446407e-04 -6.801802e-06 -5.359886e-04 -6.822635e-05 -7.830117e-04 -2.970242e-04 -1.165502e-03 -8.220864e-04 -1.873756e-03 -1.913272e-03 -3.340257e-03 -4.238740e-03 -6.623092e-03 -7.727687e-03 -5.014544e-03 4.119909e-04 2.501038e-03 -3.281347e-04 2.267381e-03 6.382317e-03 6.453695e-03 1.724081e-03 1.164709e-03 2.113706e-04 -1.299753e-03 -9.952824e-04 -4.380524e-04 -1.758698e-03 -1.417094e-03 7.546081e-04 5.694644e-03 5.813547e-03 2.105281e-03 1.233308e-03 7.991598e-04 1.088852e-03 4.185184e-04 9.221565e-04 9.065817e-05 7.727237e-04 -1.157434e-04 6.376298e-04 -2.131748e-04 4.872071e-04 -2.164667e-04 3.217648e-04 -1.259961e-04 1.358580e-04 2.651633e-05 -7.825641e-05 2.175591e-04 -3.033399e-04 4.204847e-04 -5.198268e-04 6.049327e-04 -6.937653e-04 7.444514e-04 -7.930364e-04 8.092767e-04 -7.916594e-04 7.632496e-04 -6.891327e-04 5.731424e-04 -4.752805e-04 2.545437e-04 -1.344522e-04 -1.733230e-04 3.114592e-04 -6.811026e-04 8.234481e-04 -1.236458e-03 1.310549e-03 -1.809565e-03 1.668594e-03 -2.302672e-03 1.783151e-03 -2.502077e-03 1.462241e-03 -1.716812e-03 -1.223693e-05 7.835427e-03 -1.032674e-02 -1.178901e-03 2.059176e-03 1.336516e-03 7.499353e-04 
1.545473e-03 -1.304237e-03 4.998309e-05 -3.178658e-03 1.283720e-02 4.533834e-03 -8.899659e-03 2.287803e-03 -2.202883e-03 -1.491556e-04 -1.138767e-03 -2.463213e-03 -2.313825e-03 1.735127e-03 -1.592824e-03 1.375223e-03 -1.408007e-03 1.553780e-03 -1.952927e-03 2.035512e-03 -2.563220e-03 2.443735e-03 2.487378e-03 6.857243e-04 1.397566e-03 4.712837e-05 1.177034e-03 -3.969720e-04 1.075054e-03 -6.698832e-04 1.039091e-03 -7.415257e-04 9.994829e-04 -6.931941e-04 8.671969e-04 -5.915990e-04 6.404606e-04 -4.566887e-04 3.633386e-04 -2.683704e-04 1.348973e-04 -9.279502e-06 -2.941709e-05 2.288147e-04 -1.605153e-04 4.164878e-04 -2.043447e-04 5.838923e-04 -1.176740e-04 7.531048e-04 1.310129e-04 9.763927e-04 6.383478e-04 1.535146e-03 1.920900e-03 2.905778e-03 1.993616e-03 -4.490941e-04 -5.079121e-05 1.338005e-03 3.412868e-04 -3.535669e-03 -1.899203e-03 -1.281212e-03 -1.008643e-03 -1.643517e-03 -8.101970e-04 -2.022855e-03 -2.023526e-03 -1.136400e-03 -9.757028e-04 -3.278746e-03 -2.658616e-03 1.710610e-04 1.663571e-03 1.821906e-03 6.913363e-04 1.088443e-03 -7.447997e-06 8.911953e-04 -3.301186e-04 8.364236e-04 -4.860182e-04 7.804504e-04 -5.355173e-04 6.507159e-04 -4.873728e-04 4.667773e-04 -3.103482e-04 2.301882e-04 -5.334393e-05 -7.498169e-05 2.549302e-04 -4.120255e-04 5.785292e-04 -7.523706e-04 8.751070e-04 -1.036861e-03 1.113912e-03 -1.211146e-03 1.255912e-03 -1.232736e-03 1.241755e-03 -1.117238e-03 1.004359e-03 -8.456555e-04 5.840684e-04 -3.705956e-04 1.454746e-05 2.848188e-04 -6.561897e-04 1.091928e-03 -1.381663e-03 1.932768e-03 -2.141629e-03 2.707280e-03 -2.799299e-03 3.337155e-03 -3.138169e-03 3.514904e-03 -2.667209e-03 1.712218e-03 3.374807e-03 -2.669069e-02 7.347025e-05 7.902121e-03 3.926715e-03 2.545618e-03 
-8.214807e-04 -2.031804e-03 -5.499469e-03 -4.748262e-03 -1.490734e-03 1.026520e-02 1.328285e-02 -1.852943e-03 6.563574e-04 1.103796e-03 -4.572280e-04 2.410097e-03 -1.228803e-05 4.790140e-04 -3.703299e-04 5.804548e-04 -5.529112e-04 5.970733e-04 -5.937922e-04 4.373076e-04 -3.757709e-04 -3.765227e-05 -2.517690e-03 2.448344e-04 -1.154192e-03 -5.410506e-05 -4.943976e-04 -3.845673e-04 -4.595128e-05 -6.120702e-04 2.784539e-04 -7.025463e-04 4.892799e-04 -7.036390e-04 5.547425e-04 -6.571480e-04 4.930350e-04 -5.755043e-04 3.508148e-04 -4.458906e-04 2.102393e-04 -2.596096e-04 8.914496e-05 -8.697426e-05 -2.998620e-05 4.535557e-05 -1.024577e-04 1.530325e-04 -9.296995e-05 2.462148e-04 1.630266e-05 3.367742e-04 2.358240e-04 4.262753e-04 4.609986e-04 -1.356059e-05 -1.649644e-04 6.105371e-05 -6.280621e-04 -2.643914e-03 -4.170331e-04 8.295398e-04 2.755791e-04 2.232508e-04 1.060953e-03 1.630664e-03 2.101279e-03 2.758461e-03 3.893108e-03 2.129033e-03 2.972582e-03 4.530123e-03 9.254554e-04 -3.395942e-03 -4.358514e-03 -3.036104e-03 -2.689750e-03 -1.416951e-03 -1.712420e-03 -5.297132e-04 -1.217168e-03 -3.224693e-05 -9.464235e-04 2.252645e-04 -7.739123e-04 3.025331e-04 -6.190277e-04 2.669106e-04 -4.162869e-04 1.479511e-04 -1.783155e-04 -5.029954e-05 8.463269e-05 -2.917069e-04 3.525872e-04 -5.496562e-04 5.997916e-04 -7.774803e-04 8.072431e-04 -9.329673e-04 9.486544e-04 -9.848263e-04 9.818287e-04 -9.438039e-04 8.572909e-04 -7.949704e-04 6.015102e-04 -5.029904e-04 2.358994e-04 -8.278214e-05 -2.103117e-04 4.450386e-04 -7.114946e-04 9.930039e-04 -1.263229e-03 1.482804e-03 -1.783489e-03 1.854533e-03 -2.152362e-03 1.966461e-03 -2.128757e-03 1.776730e-03 -5.115453e-03 -1.719260e-02 5.481537e-03 7.287740e-03 3.439961e-03 1.810905e-03 
-6.494576e-04 -1.471955e-03 -3.886505e-03 -3.696187e-03 -7.010681e-03 4.373949e-03 1.244215e-02 -1.528565e-03 1.125571e-03 1.062326e-03 -4.121417e-04 4.820008e-03 2.129510e-03 3.513357e-04 -3.971116e-04 5.464197e-04 -5.668638e-04 6.025180e-04 -5.770731e-04 4.649025e-04 -2.676195e-04 -2.184406e-03 -3.384270e-03 -1.475086e-04 -1.327162e-03 -2.456691e-04 -5.014724e-04 -3.034776e-04 -1.699149e-06 -3.603519e-04 2.750457e-04 -4.040879e-04 4.081118e-04 -4.243575e-04 4.353276e-04 -4.212896e-04 3.837627e-04 -3.991002e-04 2.778616e-04 -3.658869e-04 1.382101e-04 -3.420984e-04 -3.961381e-05 -3.759650e-04 -2.882575e-04 -5.355372e-04 -6.698478e-04 -9.327422e-04 -1.327722e-03 -1.787816e-03 -2.575355e-03 -3.553976e-03 -5.100559e-03 -7.312583e-03 -1.036967e-02 -1.252525e-02 -6.919040e-03 -2.396441e-04 3.414088e-03 3.287591e-03 1.751106e-03 5.915926e-03 6.707183e-03 9.515108e-04 -3.777867e-04 -1.042638e-03 -3.155897e-03 -3.484577e-03 -4.142453e-03 -3.193623e-03 -5.110733e-03 -5.509049e-03 5.814394e-03 1.226495e-02 8.519378e-03 6.460856e-03 4.955556e-03 4.285725e-03 3.012878e-03 2.809869e-03 1.717085e-03 1.864436e-03 9.174786e-04 1.267556e-03 4.487783e-04 8.698564e-04 2.020855e-04 5.805950e-04 1.092047e-04 3.455075e-04 1.169092e-04 1.335426e-04 1.861740e-04 -6.324654e-05 2.863144e-04 -2.416832e-04 3.922915e-04 -3.886645e-04 4.834095e-04 -4.890818e-04 5.397682e-04 -5.318908e-04 5.411619e-04 -5.148597e-04 4.714337e-04 -4.345322e-04 3.324538e-04 -2.896887e-04 1.324079e-04 -9.560909e-05 -1.162889e-04 1.163059e-04 -3.988924e-04 2.884508e-04 -6.948072e-04 3.502167e-04 -9.486882e-04 2.378604e-04 -1.036112e-03 -2.391581e-05 -6.810454e-04 1.961034e-04 -3.442205e-03 -1.600991e-03 5.026978e-03 2.103176e-03 1.970232e-03 2.979003e-04 
-2.379740e-04 -4.114069e-04 -1.008190e-03 -6.741899e-04 -9.825806e-04 6.325423e-04 2.184137e-03 2.534241e-04 1.370889e-04 4.492280e-04 -8.082140e-04 3.429047e-03 4.974333e-03 2.210803e-04 -6.513850e-05 2.156566e-04 -1.640586e-04 1.791669e-04 -2.044591e-04 8.002213e-05 -1.988319e-04 -2.346188e-03 -1.672453e-03 7.100136e-04 -1.015387e-03 -2.216262e-05 -7.245641e-04 -2.128683e-04 -3.515056e-04 -2.740619e-04 -8.006232e-05 -2.984030e-04 8.479732e-05 -3.039737e-04 1.580593e-04 -2.971909e-04 1.587407e-04 -2.833464e-04 1.049706e-04 -2.711080e-04 9.289072e-06 -2.800956e-04 -1.346434e-04 -3.503456e-04 -3.557965e-04 -5.389398e-04 -7.078338e-04 -9.312832e-04 -1.293292e-03 -1.668865e-03 -2.296153e-03 -2.979945e-03 -4.022900e-03 -5.241355e-03 -6.715027e-03 -6.533217e-03 -1.941838e-03 -1.897656e-03 -2.334407e-03 -2.879986e-03 -5.271020e-03 -3.399194e-03 -4.361142e-03 -4.841154e-03 -1.965705e-03 -3.116563e-03 -1.761962e-03 -2.671458e-04 -2.541551e-03 7.664084e-04 -9.746421e-04 -5.429695e-03 4.288155e-03 1.313080e-02 1.239871e-02 1.011238e-02 7.733678e-03 6.479062e-03 4.826711e-03 4.197127e-03 2.925365e-03 2.704037e-03 1.706719e-03 1.741522e-03 9.591531e-04 1.117557e-03 5.288932e-04 7.006831e-04 3.099773e-04 4.048129e-04 2.260179e-04 1.770554e-04 2.239363e-04 -8.460383e-06 2.658619e-04 -1.611263e-04 3.236581e-04 -2.789546e-04 3.757709e-04 -3.556796e-04 4.037128e-04 -3.859099e-04 3.908054e-04 -3.686436e-04 3.251108e-04 -3.029282e-04 2.062846e-04 -1.903175e-04 3.916029e-05 -4.346468e-05 -1.680809e-04 1.132272e-04 -4.042491e-04 2.406282e-04 -6.495336e-04 2.958023e-04 -8.542435e-04 2.446672e-04 -9.199129e-04 6.337092e-05 -6.981325e-04 -2.060930e-04 5.035586e-06 -6.011315e-04 1.514506e-03 5.512462e-04 7.361666e-04 1.646809e-04 
-1.899178e-04 -2.814284e-04 -6.164175e-04 -3.510386e-04 -5.418272e-04 2.008089e-04 9.623343e-04 -4.653281e-05 1.003671e-04 1.705471e-04 -4.765684e-04 1.865418e-03 2.450594e-03 1.089180e-04 -6.384278e-05 1.354910e-04 -1.225058e-04 1.308510e-04 -1.314747e-04 7.368478e-05 -9.641142e-05 -9.483419e-04 -5.653105e-04 4.284260e-04 -4.942788e-04 -6.539170e-05 -3.823655e-04 -1.526301e-04 -1.808168e-04 -1.569425e-04 -3.798472e-05 -1.558470e-04 3.623150e-05 -1.633953e-04 5.262298e-05 -1.825422e-04 2.087037e-05 -2.187479e-04 -5.602962e-05 -2.845701e-04 -1.846547e-04 -4.033083e-04 -3.856445e-04 -6.126139e-04 -6.960667e-04 -9.641656e-04 -1.167681e-03 -1.518715e-03 -1.857669e-03 -2.325985e-03 -2.793036e-03 -3.366010e-03 -3.893873e-03 -4.456788e-03 -4.623645e-03 -3.498503e-03 -1.323150e-03 -2.234255e-03 -2.730484e-03 -3.403337e-03 -3.140390e-05 3.259530e-03 -1.092258e-03 -2.603262e-03 -3.487308e-03 -5.694272e-03 -5.377964e-03 -6.287385e-03 -5.928199e-03 -5.761725e-03 -8.568400e-03 -1.600337e-03 8.983304e-03 1.063100e-02 9.859310e-03 9.262944e-03 7.929896e-03 7.078210e-03 5.777711e-03 5.026899e-03 3.933793e-03 3.409692e-03 2.560996e-03 2.248699e-03 1.619040e-03 1.454884e-03 1.009387e-03 9.234408e-04 6.350327e-04 5.670834e-04 4.178651e-04 3.232286e-04 3.008432e-04 1.519020e-04 2.441966e-04 2.973757e-05 2.205642e-04 -5.554436e-05 2.109013e-04 -1.100256e-04 2.015137e-04 -1.370912e-04 1.825181e-04 -1.395683e-04 1.476636e-04 -1.202321e-04 9.488533e-05 -8.334064e-05 2.483478e-05 -3.688186e-05 -5.979547e-05 7.082718e-06 -1.537076e-04 3.381173e-05 -2.458166e-04 3.301452e-05 -3.124277e-04 1.113616e-05 -3.151952e-04 7.674515e-08 -2.330012e-04 3.380195e-05 -1.225653e-04 3.893155e-05 5.511797e-04 1.870121e-04 2.985086e-04 -1.861739e-05 
-1.257448e-06 3.571169e-07 -9.872514e-07 6.506473e-07 -1.034326e-06 1.144202e-06 -1.543225e-06 1.383191e-06 -2.035151e-06 1.541920e-06 -2.252989e-06 1.723487e-06 -2.718543e-06 1.568875e-08 1.815003e-07 9.274832e-08 2.535572e-07 1.401940e-07 2.493871e-07 1.601757e-07 1.575812e-07 1.202888e-05 -7.979748e-06 1.311526e-05 -4.882908e-06 1.558254e-05 -6.111579e-06 1.510024e-05 -9.231550e-06 1.353205e-05 -1.316593e-05 1.043176e-05 -1.944849e-05 2.368790e-06 -3.232914e-05 -1.650795e-05 -5.801491e-05 -5.426593e-05 -1.051060e-04 -1.220429e-04 -1.864253e-04 -2.370791e-04 -3.235654e-04 -4.270984e-04 -5.498987e-04 -7.307237e-04 -9.082428e-04 -1.191563e-03 -1.439392e-03 -1.838925e-03 -2.151306e-03 -2.645862e-03 -2.968607e-03 -3.463783e-03 -3.398779e-03 -2.536330e-03 -1.055300e-03 -1.365115e-03 -1.057330e-03 -1.226403e-03 -2.620559e-03 -3.686795e-03 -4.407128e-03 -4.040072e-03 -4.588463e-03 -4.013119e-03 -3.331090e-03 -5.178095e-03 -3.986014e-03 -4.387938e-03 -8.912789e-03 -2.505015e-03 7.896699e-03 1.015979e-02 9.590477e-03 8.911047e-03 7.859776e-03 6.940168e-03 5.850533e-03 4.985964e-03 4.075527e-03 3.396504e-03 2.717181e-03 2.230360e-03 1.758776e-03 1.426458e-03 1.117688e-03 8.944360e-04 7.044392e-04 5.512450e-04 4.441920e-04 3.329447e-04 2.824366e-04 1.955753e-04 1.825738e-04 1.104435e-04 1.208651e-04 5.903216e-05 8.199475e-05 2.910339e-05 5.625541e-05 1.266440e-05 3.791023e-05 4.510845e-06 2.396677e-05 1.639025e-06 1.346891e-05 2.188359e-06 5.864844e-06 4.474652e-06 7.890592e-07 7.354869e-06 -2.190628e-06 9.565713e-06 -3.998295e-06 1.018206e-05 -5.113055e-06 9.159063e-06 -5.517185e-06 7.036879e-06 -4.978893e-06 4.469737e-06 -3.733981e-06 2.001527e-06 -2.621837e-06 8.529780e-07 -1.794318e-06 3.862073e-07 
1.878051e-04 2.821023e-04 6.150643e-04 3.522389e-04 5.406608e-04 -1.984485e-04 -9.649358e-04 4.960893e-05 -1.036414e-04 -1.668070e-04 4.732095e-04 -1.861288e-03 -2.455651e-03 -1.088928e-04 6.421621e-05 -1.354944e-04 1.231030e-04 -1.307253e-04 1.321528e-04 -7.324997e-05 9.697379e-05 9.730883e-04 5.327261e-04 -4.092262e-04 4.669590e-04 8.595348e-05 3.506424e-04 1.666346e-04 1.386674e-04 1.599814e-04 -1.902187e-05 1.421207e-04 -1.162385e-04 1.197187e-04 -1.729541e-04 8.347852e-05 -2.119913e-04 2.191514e-05 -2.543265e-04 -7.541081e-05 -3.191900e-04 -2.192219e-04 -4.276141e-04 -4.242917e-04 -6.044043e-04 -7.086884e-04 -8.733191e-04 -1.084879e-03 -1.241934e-03 -1.538675e-03 -1.674049e-03 -1.998909e-03 -2.060828e-03 -2.322412e-03 -2.188362e-03 -2.072580e-03 -1.409175e-03 -1.352990e-03 -1.437466e-03 -1.978827e-03 -2.195813e-03 -2.145310e-03 -2.430962e-03 -2.163383e-03 -2.515629e-03 -2.584126e-03 -2.620917e-03 -2.773198e-03 -2.386621e-03 -2.029497e-03 -2.057504e-03 4.615834e-04 3.198619e-03 4.330265e-03 4.899244e-03 4.987262e-03 4.855890e-03 4.450437e-03 4.049221e-03 3.466248e-03 3.063308e-03 2.482060e-03 2.183586e-03 1.678708e-03 1.498570e-03 1.092306e-03 1.001973e-03 6.965214e-04 6.536870e-04 4.463863e-04 4.098328e-04 2.988171e-04 2.361247e-04 2.200210e-04 1.101045e-04 1.846646e-04 1.840487e-05 1.732915e-04 -4.640228e-05 1.706865e-04 -8.748187e-05 1.660756e-04 -1.049459e-04 1.527405e-04 -9.791278e-05 1.277703e-04 -6.605828e-05 9.173557e-05 -1.123510e-05 4.919430e-05 6.306053e-05 1.006102e-05 1.507268e-04 -1.325407e-05 2.389074e-04 -1.206742e-05 3.030654e-04 7.242679e-06 3.049231e-04 1.385979e-05 2.238595e-04 -2.500664e-05 1.161785e-04 -3.510976e-05 -5.558689e-04 -1.853227e-04 -3.017446e-04 1.940307e-05 
2.367043e-04 4.109239e-04 1.007476e-03 6.745541e-04 9.821498e-04 -6.294478e-04 -2.187408e-03 -2.503185e-04 -1.420980e-04 -4.461244e-04 8.030478e-04 -3.425179e-03 -4.980318e-03 -2.208521e-04 6.571456e-05 -2.153704e-04 1.648706e-04 -1.787766e-04 2.053869e-04 -7.945090e-05 1.996918e-04 2.369070e-03 1.660787e-03 -6.828667e-04 1.007473e-03 5.244317e-05 7.108909e-04 2.400392e-04 3.292789e-04 2.997266e-04 5.428827e-05 3.282749e-04 -1.109968e-04 3.346421e-04 -1.935516e-04 3.118924e-04 -2.241689e-04 2.514158e-04 -2.317543e-04 1.516786e-04 -2.346239e-04 1.996875e-05 -2.483063e-04 -1.414954e-04 -2.948335e-04 -3.398977e-04 -4.015017e-04 -5.875392e-04 -5.870225e-04 -8.781770e-04 -8.312716e-04 -1.160412e-03 -1.057613e-03 -1.331472e-03 -1.139402e-03 -1.240382e-03 -9.169593e-04 -9.566226e-04 -8.604326e-04 -1.002046e-03 -1.288148e-03 -1.447187e-03 -1.790792e-03 -1.737861e-03 -2.058574e-03 -1.945657e-03 -2.064410e-03 -1.973380e-03 -1.909246e-03 -1.372312e-03 -1.219133e-03 2.204056e-04 1.713685e-03 2.604893e-03 3.177696e-03 3.280169e-03 3.375071e-03 3.003364e-03 2.942279e-03 2.347329e-03 2.317299e-03 1.655307e-03 1.722520e-03 1.082991e-03 1.235919e-03 6.731293e-04 8.607569e-04 4.157579e-04 5.723416e-04 2.784695e-04 3.396915e-04 2.260946e-04 1.442322e-04 2.322459e-04 -1.969629e-05 2.739738e-04 -1.519156e-04 3.279081e-04 -2.510365e-04 3.702820e-04 -3.126578e-04 3.843920e-04 -3.276795e-04 3.603238e-04 -2.880196e-04 2.947750e-04 -1.891792e-04 1.890757e-04 -3.651855e-05 5.081744e-05 1.618745e-04 -9.538588e-05 3.955277e-04 -2.148572e-04 6.389647e-04 -2.687309e-04 8.412896e-04 -2.218699e-04 9.051628e-04 -4.750580e-05 6.853483e-04 2.146297e-04 -1.195190e-05 5.999521e-04 -1.518495e-03 -5.520881e-04 -7.383845e-04 -1.654527e-04 
6.491881e-04 1.470257e-03 3.887383e-03 3.694558e-03 7.015521e-03 -4.370734e-03 -1.244871e-02 1.532112e-03 -1.130570e-03 -1.057998e-03 4.087043e-04 -4.813363e-03 -2.134989e-03 -3.509225e-04 3.973465e-04 -5.470882e-04 5.680316e-04 -6.031124e-04 5.786940e-04 -4.645679e-04 2.686620e-04 2.214972e-03 3.362586e-03 1.765867e-04 1.310196e-03 2.723454e-04 4.761487e-04 3.208270e-04 -3.631420e-05 3.717227e-04 -3.170956e-04 4.211130e-04 -4.467861e-04 4.466507e-04 -4.796268e-04 4.334095e-04 -4.551508e-04 3.708386e-04 -4.068946e-04 2.619105e-04 -3.485495e-04 1.277822e-04 -2.871452e-04 -1.593514e-05 -2.383113e-04 -1.662138e-04 -2.279224e-04 -3.340291e-04 -2.817200e-04 -5.199270e-04 -3.931479e-04 -6.930569e-04 -5.195805e-04 -8.019682e-04 -6.013415e-04 -7.936135e-04 -5.711049e-04 -6.339279e-04 -5.265206e-04 -6.078319e-04 -6.293933e-04 -5.361258e-04 -6.883173e-04 -4.949662e-04 -6.870827e-04 -4.503935e-04 -6.410894e-04 -3.281291e-04 -4.267187e-04 -6.232496e-05 -3.014111e-05 4.236527e-04 6.640410e-04 9.013398e-04 1.104209e-03 1.052449e-03 1.239175e-03 9.239051e-04 1.161656e-03 6.642991e-04 9.960733e-04 3.931246e-04 8.169026e-04 1.787822e-04 6.520899e-04 4.487592e-05 5.014316e-04 -7.244127e-06 3.556636e-04 6.539714e-06 2.000707e-04 6.579120e-05 3.526897e-05 1.589420e-04 -1.260030e-04 2.721564e-04 -2.696920e-04 3.848140e-04 -3.860611e-04 4.703148e-04 -4.643081e-04 5.106762e-04 -4.877131e-04 4.951152e-04 -4.431248e-04 4.206180e-04 -3.228406e-04 2.884146e-04 -1.363300e-04 1.057311e-04 1.043732e-04 -9.263930e-05 3.873300e-04 -2.552597e-04 6.824377e-04 -3.170473e-04 9.334867e-04 -2.116730e-04 1.017890e-03 4.073891e-05 6.655236e-04 -1.880140e-04 3.439639e-03 1.593575e-03 -5.030422e-03 -2.106085e-03 -1.971737e-03 -2.998606e-04 
8.236864e-04 2.028427e-03 5.502130e-03 4.742466e-03 1.501282e-03 -1.025497e-02 -1.329440e-02 1.858476e-03 -6.651268e-04 -1.103170e-03 4.490905e-04 -2.405042e-03 7.733001e-06 -4.782316e-04 3.711519e-04 -5.802889e-04 5.544708e-04 -5.967814e-04 5.960565e-04 -4.347559e-04 3.767000e-04 3.948501e-05 2.513962e-03 -2.115032e-04 1.162461e-03 8.884455e-05 4.768323e-04 3.885616e-04 -1.389994e-05 5.960863e-04 -3.376010e-04 7.272878e-04 -5.038701e-04 7.807263e-04 -5.401959e-04 7.640782e-04 -4.841242e-04 6.546107e-04 -4.103677e-04 4.565827e-04 -3.116618e-04 2.564737e-04 -1.603847e-04 1.057662e-04 3.321115e-05 2.095124e-05 2.162638e-04 -5.510860e-05 2.937943e-04 -1.630975e-04 2.646409e-04 -2.480474e-04 2.080375e-04 -2.285333e-04 1.952419e-04 -9.757014e-05 2.142901e-04 1.156796e-04 2.474805e-04 2.346554e-04 1.244560e-04 2.731514e-04 -6.108927e-05 2.285530e-04 -1.841795e-04 2.394724e-04 -2.432314e-04 2.459336e-04 -2.032882e-04 2.057374e-04 -1.239492e-04 1.237759e-04 -9.149734e-05 -3.651524e-05 6.063174e-06 -1.562726e-04 1.660115e-04 -2.535183e-04 3.305163e-04 -3.434760e-04 4.467187e-04 -4.301641e-04 5.094064e-04 -4.682357e-04 5.217093e-04 -4.473057e-04 4.752775e-04 -3.468140e-04 3.769571e-04 -1.894852e-04 1.903860e-04 -1.254928e-05 -6.026303e-05 1.996457e-04 -3.205775e-04 4.430503e-04 -5.500009e-04 6.855614e-04 -7.399515e-04 8.585206e-04 -8.803684e-04 9.347943e-04 -9.255422e-04 8.984088e-04 -8.469797e-04 7.517767e-04 -6.113370e-04 4.899749e-04 -2.618654e-04 8.023383e-05 1.727753e-04 -4.148684e-04 6.969984e-04 -9.347082e-04 1.253313e-03 -1.426720e-03 1.766623e-03 -1.815981e-03 2.120100e-03 -1.946584e-03 2.100379e-03 -1.760217e-03 5.111790e-03 1.714750e-02 -5.476289e-03 -7.289133e-03 -3.436639e-03 -1.813407e-03 
-1.542284e-03 1.303516e-03 -4.830040e-05 3.175598e-03 -1.283379e-02 -4.516790e-03 8.895532e-03 -2.281588e-03 2.196370e-03 1.452891e-04 1.131653e-03 2.461280e-03 2.316460e-03 -1.733854e-03 1.587539e-03 -1.380986e-03 1.410846e-03 -1.556064e-03 1.959956e-03 -2.035721e-03 2.550107e-03 -2.448876e-03 -2.471057e-03 -6.496783e-04 -1.369266e-03 -7.765710e-06 -1.184655e-03 3.979816e-04 -1.140741e-03 6.481816e-04 -1.104428e-03 7.803620e-04 -1.004976e-03 8.066392e-04 -8.327457e-04 7.477775e-04 -6.092086e-04 5.784820e-04 -4.176548e-04 3.065371e-04 -2.331804e-04 5.041950e-05 -6.973422e-06 -1.224857e-04 2.556264e-04 -1.925974e-04 4.902481e-04 -2.432569e-04 5.715015e-04 -3.370904e-04 5.005374e-04 -4.051527e-04 3.867220e-04 -3.414663e-04 3.221815e-04 -1.573159e-04 2.213852e-04 -3.889189e-05 -6.767849e-06 6.084281e-05 -1.948859e-04 1.540984e-04 -3.039256e-04 3.305493e-04 -2.556386e-04 5.479596e-04 -1.192851e-04 6.553750e-04 -5.297351e-05 5.716463e-04 -8.549840e-05 2.786904e-04 -1.705761e-04 -7.634320e-05 -1.804388e-04 -3.762526e-04 -7.361699e-05 -5.583639e-04 1.263342e-04 -6.604368e-04 3.022379e-04 -7.292973e-04 4.163731e-04 -7.257301e-04 4.600958e-04 -6.474764e-04 4.190012e-04 -4.701671e-04 3.055013e-04 -2.262457e-04 7.274161e-05 3.221217e-05 -2.426556e-04 3.262525e-04 -5.638113e-04 6.486695e-04 -8.340663e-04 9.543713e-04 -1.041557e-03 1.148302e-03 -1.173251e-03 1.194239e-03 -1.167622e-03 1.072102e-03 -9.884196e-04 7.888628e-04 -5.920313e-04 3.427031e-04 -4.282964e-05 -3.079626e-04 6.127747e-04 -1.074253e-03 1.371231e-03 -1.875600e-03 2.138282e-03 -2.649199e-03 2.787145e-03 -3.297434e-03 3.104497e-03 -3.494730e-03 2.637061e-03 -1.689236e-03 -3.389600e-03 2.663073e-02 -6.375678e-05 -7.899053e-03 -3.920207e-03 -2.545420e-03 
-1.627975e-03 2.442989e-04 -3.135704e-03 -2.383384e-04 -1.295542e-02 -3.722686e-04 1.640386e-02 -6.886556e-03 2.317492e-03 -4.081868e-03 8.055177e-04 -6.533113e-03 -2.334140e-03 1.887620e-03 -1.371603e-03 1.273980e-03 -9.414213e-04 1.245213e-03 -1.872577e-03 1.976003e-03 -3.534351e-03 3.445367e-03 4.580952e-03 1.178980e-03 2.034092e-03 8.637672e-04 9.547153e-04 7.557827e-04 2.939181e-04 6.837459e-04 -6.968596e-05 6.220989e-04 -2.265554e-04 5.430451e-04 -2.478285e-04 4.356455e-04 -1.902525e-04 2.819541e-04 -1.162875e-04 8.600907e-05 -3.363469e-05 -1.000609e-04 6.588125e-05 -2.446908e-04 1.697263e-04 -3.401585e-04 2.421600e-04 -4.205939e-04 2.307856e-04 -5.049482e-04 1.481788e-04 -5.463490e-04 6.749761e-05 -4.713095e-04 6.301790e-05 -2.551637e-04 1.188315e-04 4.740692e-06 1.217833e-04 1.813606e-04 -1.578166e-05 1.458166e-04 -2.958306e-04 -1.308968e-05 -6.407502e-04 -2.757735e-04 -8.991798e-04 -4.321378e-04 -9.081359e-04 -2.999202e-04 -5.549521e-04 8.024936e-05 1.109818e-04 5.101436e-04 6.073287e-04 6.407110e-04 8.246236e-04 5.408302e-04 8.756894e-04 3.462699e-04 8.309508e-04 1.418846e-04 7.391370e-04 -4.898686e-06 6.225119e-04 -7.304000e-05 4.813531e-04 -5.129190e-05 3.179369e-04 3.995239e-05 1.113899e-04 1.690879e-04 -1.225551e-04 3.321747e-04 -3.473307e-04 5.132464e-04 -5.322629e-04 6.789251e-04 -6.642125e-04 7.758530e-04 -7.293682e-04 7.762101e-04 -6.949288e-04 6.642188e-04 -5.390847e-04 4.407627e-04 -2.419650e-04 1.096991e-04 1.682584e-04 -3.310651e-04 6.645588e-04 -8.204570e-04 1.230590e-03 -1.284658e-03 1.805738e-03 -1.637438e-03 2.294184e-03 -1.758061e-03 2.484001e-03 -1.446263e-03 1.700142e-03 2.714604e-05 -7.851902e-03 1.030645e-02 1.181507e-03 -2.055785e-03 -1.334301e-03 -7.477459e-04 
-9.874543e-04 6.429605e-05 -1.943812e-03 -3.886392e-04 -4.871188e-03 -2.619858e-04 5.772234e-03 -2.025592e-03 1.320601e-03 -2.035549e-04 1.129886e-03 -2.251847e-04 -2.103723e-03 -2.683391e-03 6.806959e-04 -1.327316e-03 -4.876400e-04 6.302689e-04 -2.948399e-04 1.267861e-03 2.993908e-03 1.864403e-03 -1.781247e-04 -5.279809e-04 -5.322770e-04 -1.319415e-04 -4.352187e-04 6.763999e-05 -4.031009e-04 1.729116e-04 -3.688819e-04 2.231960e-04 -3.195368e-04 2.309737e-04 -2.558388e-04 2.016812e-04 -1.864377e-04 1.372326e-04 -1.235022e-04 4.619930e-05 -6.862170e-05 -5.313465e-05 -2.268528e-05 -1.515265e-04 1.594357e-06 -2.549131e-04 -2.167613e-05 -3.851480e-04 -1.238625e-04 -5.628367e-04 -3.200898e-04 -7.933242e-04 -6.058151e-04 -1.066954e-03 -9.441865e-04 -1.303973e-03 -1.073858e-03 -1.039429e-03 -8.674162e-04 -1.100860e-03 -1.015032e-03 -7.767116e-04 -8.687690e-04 -4.967836e-04 -3.442262e-04 1.895076e-04 1.902275e-04 8.199730e-04 7.274428e-04 1.009816e-03 8.613124e-04 1.060006e-03 8.252442e-04 8.479031e-04 7.273494e-04 7.498152e-04 7.669374e-04 6.274755e-04 7.110235e-04 4.426839e-04 6.027766e-04 2.601985e-04 4.854801e-04 1.218326e-04 3.753114e-04 4.147743e-05 2.714780e-04 1.904621e-05 1.682699e-04 4.227614e-05 5.679677e-05 9.541531e-05 -6.016917e-05 1.690660e-04 -1.704535e-04 2.517832e-04 -2.615418e-04 3.261030e-04 -3.250636e-04 3.697328e-04 -3.525910e-04 3.668828e-04 -3.316972e-04 3.085789e-04 -2.521668e-04 1.933475e-04 -1.081672e-04 2.397325e-05 9.187785e-05 -1.918184e-04 3.343630e-04 -4.262422e-04 6.014369e-04 -6.374893e-04 8.574690e-04 -7.641652e-04 1.044058e-03 -7.051382e-04 1.052569e-03 -2.852405e-04 6.292855e-04 8.465617e-04 -2.493061e-03 3.235336e-03 5.411539e-04 7.191986e-04 -4.107890e-04 1.135101e-04 
