# vtk DataFile Version 2.0
Comment goes here
ASCII

DATASET STRUCTURED_POINTS
FIELD FieldData 1
TIME 1 1 double
0.62000000
DIMENSIONS    128   16   1

ORIGIN    0.000   0.000   0.000
SPACING   0.0078125 0.015625   1.000

POINT_DATA   2048
SCALARS fMag double
LOOKUP_TABLE default

0 0 0 0 0 0 0 0 0 0 0 0 0 0 0 0 0 0 0 0 0 0 0 0 0 0 0 0 0 0 0 0 0 0 0 0 0 0 0 0 0 0 0 0 0 0 0 0 0 0 0 0 0 0 0 0 0 0 0 0 0 0 0 0 0 0 0 0 0 0 0 0 0 0 0 0 0 0 0 0 0 0 0 0 0 0 0 0 0 0 0 0 0 0 0 0 0 0 0 0 0 0 0 0 0 0 0 0 0 0 0 0 0 0 0 0 0 0 0 0 0 0 0 0 0 0 0 0 
0 0 0 0 0 0 0 0 0 0 0 0 0 0 0 0 0 0 0 0 0 0 0 0 0 0 0 0 0 0 0 0 0 0 0 0 0 0 0 0 0 0 0 0 0 0 0 0 0 0 0 0 0 0 0 0 0 0 0 0 0 0 0 0 0 0 0 0 0 0 0 0 0 0 0 0 0 0 0 0 0 0 0 0 0 0 0 0 0 0 0 0 0 0 0 0 0 0 0 0 0 0 0 0 0 0 0 0 0 0 0 0 0 0 0 0 0 0 0 0 0 0 0 0 0 0 0 0 
0 0 0 0 0 2.022207e+00 1.596864e+00 8.320034e-01 1.387219e+00 9.623031e-01 1.644963e+00 1.177205e+00 1.791339e+00 2.361565e+00 3.535510e+00 4.989238e+00 6.357832e+00 8.702540e+00 1.069399e+01 1.204663e+01 1.599105e+01 1.592753e+01 1.559911e+01 1.568204e+01 1.536235e+01 1.551534e+01 1.517660e+01 1.531279e+01 1.494947e+01 1.503656e+01 1.463936e+01 1.464595e+01 1.428210e+01 1.427330e+01 1.398561e+01 1.393170e+01 1.372286e+01 1.366861e+01 1.355848e+01 1.343893e+01 1.332057e+01 1.313076e+01 1.307585e+01 1.288335e+01 1.282303e+01 1.254524e+01 1.246187e+01 1.221219e+01 1.219087e+01 1.200164e+01 1.200870e+01 1.188041e+01 1.188667e+01 1.176097e+01 1.168474e+01 1.159015e+01 1.103766e+01 9.584223e+00 1.269804e+01 1.522101e+01 9.637149e+00 3.419769e+00 8.742890e+00 1.175756e+01 1.368820e+01 8.901903e+00 3.714970e+00 8.629319e+00 1.114966e+01 1.297934e+01 8.894443e+00 4.863402e+00 7.912433e+00 7.406388e+00 7.294445e+00 7.209161e+00 7.057747e+00 6.914001e+00 6.817442e+00 6.699459e+00 6.687321e+00 6.491962e+00 6.447723e+00 6.173764e+00 6.180097e+00 5.872286e+00 5.848400e+00 5.473615e+00 5.493574e+00 5.227308e+00 5.301908e+00 5.031890e+00 4.994129e+00 4.744104e+00 4.677258e+00 4.537462e+00 4.408307e+00 4.361041e+00 4.147417e+00 4.164443e+00 3.791246e+00 3.837962e+00 3.392604e+00 3.561594e+00 3.073879e+00 3.255085e+00 2.726273e+00 2.978971e+00 2.549799e+00 2.795467e+00 2.376001e+00 2.510322e+00 2.202971e+00 2.230502e+00 1.985246e+00 1.760949e+00 1.624483e+00 1.324236e+00 1.454679e+00 1.084027e+00 1.315726e+00 8.222248e-01 2.059285e+00 5.461092e-01 0 0 0 0 
0 0 0 0 0 5.949610e+00 4.713619e+00 2.450086e+00 4.090012e+00 2.832388e+00 4.838953e+00 3.462903e+00 5.269355e+00 6.945649e+00 1.039807e+01 1.467328e+01 1.869817e+01 2.559303e+01 3.144943e+01 3.542663e+01 4.702410e+01 4.683710e+01 4.587145e+01 4.611534e+01 4.517557e+01 4.562558e+01 4.462982e+01 4.503043e+01 4.396231e+01 4.421846e+01 4.305068e+01 4.307005e+01 4.200025e+01 4.197435e+01 4.112841e+01 4.096989e+01 4.035578e+01 4.019628e+01 3.987243e+01 3.952094e+01 3.917291e+01 3.861483e+01 3.845339e+01 3.788741e+01 3.771005e+01 3.689328e+01 3.664818e+01 3.591401e+01 3.585135e+01 3.529491e+01 3.531570e+01 3.493845e+01 3.495684e+01 3.458722e+01 3.436307e+01 3.408493e+01 3.383034e+01 3.388863e+01 3.759378e+01 3.817961e+01 4.119703e+01 2.647950e+01 3.239449e+01 3.303229e+01 3.302842e+01 3.596124e+01 2.255371e+01 2.865457e+01 2.805822e+01 2.820973e+01 3.063094e+01 1.877475e+01 2.348853e+01 2.178209e+01 2.145287e+01 2.120204e+01 2.075675e+01 2.033403e+01 2.005007e+01 1.970313e+01 1.966746e+01 1.909298e+01 1.896291e+01 1.815728e+01 1.817592e+01 1.727071e+01 1.720045e+01 1.609823e+01 1.615688e+01 1.537376e+01 1.559307e+01 1.479888e+01 1.468776e+01 1.395237e+01 1.375575e+01 1.334458e+01 1.296477e+01 1.282580e+01 1.219763e+01 1.224779e+01 1.115034e+01 1.128780e+01 9.978062e+00 1.047507e+01 9.040614e+00 9.573402e+00 8.017881e+00 8.760776e+00 7.498168e+00 8.220285e+00 6.986146e+00 7.380806e+00 6.476496e+00 6.557230e+00 5.835780e+00 5.176196e+00 4.775081e+00 3.892448e+00 4.276685e+00 3.186665e+00 3.862858e+00 2.409373e+00 6.052407e+00 1.605871e+00 0 0 0 0 
0 0 0 0 0 4.110681e+00 3.264188e+00 1.693980e+00 2.830036e+00 1.957504e+00 3.342945e+00 2.392287e+00 3.640192e+00 2.424483e+01 3.730347e+01 2.700309e+01 2.932798e+01 3.289032e+01 3.241541e+01 4.182282e+01 4.261683e+01 3.234894e+01 3.168205e+01 3.185050e+01 3.120159e+01 3.151246e+01 3.082489e+01 3.110163e+01 3.036406e+01 3.054099e+01 2.973454e+01 2.974794e+01 2.900912e+01 2.899122e+01 2.840700e+01 2.829751e+01 2.787338e+01 2.776321e+01 2.753955e+01 2.729681e+01 2.705645e+01 2.667104e+01 2.655956e+01 2.616870e+01 2.604622e+01 2.548215e+01 2.531288e+01 2.480585e+01 2.476258e+01 2.437829e+01 2.439264e+01 2.413210e+01 2.414480e+01 2.388952e+01 2.373471e+01 2.354261e+01 2.381480e+01 2.471216e+01 2.316422e+01 1.845869e+01 3.479947e+01 2.908869e+01 2.465364e+01 2.153537e+01 1.619017e+01 3.098710e+01 2.519749e+01 2.116309e+01 1.787986e+01 1.328227e+01 2.607512e+01 2.055979e+01 1.650814e+01 1.504547e+01 1.481807e+01 1.464481e+01 1.433724e+01 1.404528e+01 1.384915e+01 1.360953e+01 1.358490e+01 1.318813e+01 1.309830e+01 1.254187e+01 1.255475e+01 1.192952e+01 1.188100e+01 1.111967e+01 1.116016e+01 1.061921e+01 1.077066e+01 1.022205e+01 1.014527e+01 9.637284e+00 9.501454e+00 9.217443e+00 8.955110e+00 8.859139e+00 8.425287e+00 8.459973e+00 7.701992e+00 7.796984e+00 6.892334e+00 7.235634e+00 6.244773e+00 6.612719e+00 5.538138e+00 6.051136e+00 5.178815e+00 5.677413e+00 4.824720e+00 5.097140e+00 4.472318e+00 4.527969e+00 4.029569e+00 3.574012e+00 3.297062e+00 2.687593e+00 2.953290e+00 2.200414e+00 2.664943e+00 1.659971e+00 4.178657e+00 1.109106e+00 0 0 0 0 
0 0 0 0 0 1.832776e-01 1.474331e-01 7.589661e-02 1.272429e-01 8.741961e-02 1.489547e-01 1.065886e-01 1.621763e-01 2.645045e+01 2.893102e+01 2.728054e+01 2.753432e+01 2.790461e+01 2.669942e+01 2.853572e+01 2.675384e+01 1.439365e+00 1.409706e+00 1.417204e+00 1.388371e+00 1.402218e+00 1.371668e+00 1.383994e+00 1.351211e+00 1.359090e+00 1.323234e+00 1.323832e+00 1.290975e+00 1.290177e+00 1.264190e+00 1.259317e+00 1.240450e+00 1.235548e+00 1.225599e+00 1.214803e+00 1.204113e+00 1.186975e+00 1.182019e+00 1.164638e+00 1.159193e+00 1.134107e+00 1.126580e+00 1.104029e+00 1.102105e+00 1.085011e+00 1.085649e+00 1.074059e+00 1.074623e+00 1.063266e+00 1.056380e+00 1.047834e+00 7.550956e-01 1.025441e+00 3.533946e+00 7.650593e+00 3.597144e+00 4.371313e+00 2.918654e-01 5.789465e-01 6.066611e+00 3.519858e+00 5.292783e+00 5.670526e-01 9.992806e-01 4.558813e+00 3.952625e+00 7.040946e+00 9.553058e-01 6.697650e-01 6.596422e-01 6.519286e-01 6.382388e-01 6.252460e-01 6.165172e-01 6.058564e-01 6.047626e-01 5.871086e-01 5.831144e-01 5.583537e-01 5.589295e-01 5.311035e-01 5.289426e-01 4.950527e-01 4.968499e-01 4.727638e-01 4.794951e-01 4.550648e-01 4.516388e-01 4.290170e-01 4.229663e-01 4.103205e-01 3.986459e-01 3.943785e-01 3.750764e-01 3.766310e-01 3.429030e-01 3.471413e-01 3.068759e-01 3.221593e-01 2.780389e-01 2.944016e-01 2.465298e-01 2.693312e-01 2.304471e-01 2.525950e-01 2.145754e-01 2.266563e-01 1.987930e-01 2.012415e-01 1.790356e-01 1.587649e-01 1.464642e-01 1.193812e-01 1.312836e-01 9.777608e-02 1.178112e-01 7.282338e-02 1.855354e-01 4.934487e-02 0 0 0 0 
0 0 0 0 0 0 0 0 0 0 0 0 0 2.907442e+01 3.194155e+01 2.978821e+01 3.021446e+01 3.079704e+01 2.916892e+01 3.171512e+01 2.924718e+01 0 0 0 0 0 0 0 0 0 0 0 0 0 0 0 0 0 0 0 0 0 0 0 0 0 0 0 0 0 0 0 0 0 0 0 2.708268e-01 1.430664e+00 1.626339e+00 1.407885e+00 1.244146e+00 1.010981e+00 1.056324e+00 7.936731e-01 1.312259e+00 7.379627e-01 4.402157e-01 5.566966e-01 9.041543e-02 7.088359e-01 6.038308e-02 5.653705e-01 1.702319e-02 0 0 0 0 0 0 0 0 0 0 0 0 0 0 0 0 0 0 0 0 0 0 0 0 0 0 0 0 0 0 0 0 0 0 0 0 0 0 0 0 0 0 0 0 0 0 0 0 0 0 0 0 0 0 0 
0 0 0 0 0 0 0 0 0 0 0 0 0 2.816936e+01 2.914447e+01 2.832292e+01 2.862248e+01 2.864586e+01 2.826515e+01 2.901820e+01 2.819937e+01 0 0 0 0 0 0 0 0 0 0 0 0 0 0 0 0 0 0 0 0 0 0 0 0 0 0 0 0 0 0 0 0 0 0 0 0 0 0 0 0 0 0 0 0 0 0 0 0 0 0 0 0 0 0 0 0 0 0 0 0 0 0 0 0 0 0 0 0 0 0 0 0 0 0 0 0 0 0 0 0 0 0 0 0 0 0 0 0 0 0 0 0 0 0 0 0 0 0 0 0 0 0 0 0 0 0 0 
0 0 0 0 0 0 0 0 0 0 0 0 0 3.020315e+01 3.159960e+01 3.052450e+01 3.085374e+01 3.107406e+01 3.028460e+01 3.161515e+01 3.012776e+01 0 0 0 0 0 0 0 0 0 0 0 0 0 0 0 0 0 0 0 0 0 0 0 0 0 0 0 0 0 0 0 0 0 0 0 0 0 0 0 0 0 0 0 0 0 0 0 0 0 0 0 0 0 0 0 0 0 0 0 0 0 0 0 0 0 0 0 0 0 0 0 0 0 0 0 0 0 0 0 0 0 0 0 0 0 0 0 0 0 0 0 0 0 0 0 0 0 0 0 0 0 0 0 0 0 0 0 
0 0 0 0 0 0 0 0 0 0 0 0 0 2.817185e+01 2.914189e+01 2.833257e+01 2.862880e+01 2.866376e+01 2.828094e+01 2.904404e+01 2.822305e+01 0 0 0 0 0 0 0 0 0 0 0 0 0 0 0 0 0 0 0 0 0 0 0 0 0 0 0 0 0 0 0 0 0 0 0 0 0 0 0 0 0 0 0 0 0 0 0 0 0 0 0 0 0 0 0 0 0 0 0 0 0 0 0 0 0 0 0 0 0 0 0 0 0 0 0 0 0 0 0 0 0 0 0 0 0 0 0 0 0 0 0 0 0 0 0 0 0 0 0 0 0 0 0 0 0 0 0 
0 0 0 0 0 0 0 0 0 0 0 0 0 2.909685e+01 3.194133e+01 2.980838e+01 3.022351e+01 3.082388e+01 2.919416e+01 3.176611e+01 2.928341e+01 0 0 0 0 0 0 0 0 0 0 0 0 0 0 0 0 0 0 0 0 0 0 0 0 0 0 0 0 0 0 0 0 0 0 0 0 0 0 0 0 0 0 0 0 0 0 0 0 0 0 0 0 0 0 0 0 0 0 0 0 0 0 0 0 0 0 0 0 0 0 0 0 0 0 0 0 0 0 0 0 0 0 0 0 0 0 0 0 0 0 0 0 0 0 0 0 0 0 0 0 0 0 0 0 0 0 0 
0 0 0 0 0 1.832447e-01 1.475446e-01 7.378773e-02 1.261873e-01 8.740898e-02 1.503751e-01 1.079448e-01 1.628412e-01 2.645360e+01 2.891058e+01 2.730365e+01 2.755120e+01 2.795586e+01 2.675565e+01 2.863695e+01 2.686697e+01 1.443519e+00 1.418868e+00 1.426559e+00 1.393515e+00 1.402650e+00 1.369137e+00 1.379247e+00 1.344186e+00 1.353491e+00 1.323466e+00 1.332964e+00 1.305240e+00 1.307155e+00 1.282176e+00 1.280628e+00 1.261844e+00 1.254132e+00 1.239233e+00 1.227896e+00 1.218994e+00 1.201426e+00 1.191624e+00 1.169245e+00 1.166286e+00 1.147864e+00 1.148046e+00 1.125546e+00 1.121658e+00 1.096412e+00 1.088492e+00 1.061051e+00 1.050996e+00 1.030590e+00 1.025019e+00 1.009697e+00 9.987148e-01 9.831927e-01 9.695909e-01 9.579119e-01 9.395855e-01 9.269465e-01 9.037579e-01 8.950220e-01 8.691492e-01 8.576329e-01 8.279957e-01 8.201054e-01 7.995754e-01 7.969404e-01 7.758172e-01 7.681227e-01 7.453966e-01 7.356678e-01 7.130786e-01 6.974708e-01 6.783952e-01 6.641329e-01 6.540100e-01 6.380818e-01 6.330805e-01 6.161838e-01 6.168017e-01 5.922990e-01 5.867874e-01 5.540893e-01 5.536659e-01 5.274717e-01 5.311358e-01 5.039792e-01 5.052211e-01 4.832950e-01 4.830796e-01 4.617818e-01 4.496654e-01 4.320116e-01 4.165877e-01 4.103356e-01 3.877263e-01 3.882053e-01 3.579151e-01 3.655820e-01 3.244389e-01 3.341511e-01 2.903385e-01 3.143971e-01 2.778713e-01 3.036021e-01 2.611305e-01 2.768361e-01 2.343385e-01 2.375978e-01 1.957845e-01 1.863862e-01 1.645921e-01 1.580303e-01 1.611185e-01 1.408658e-01 1.526505e-01 1.132919e-01 1.301345e-01 7.633379e-02 1.858844e-01 4.937497e-02 0 0 0 0 
0 0 0 0 0 4.109946e+00 3.266705e+00 1.646327e+00 2.806105e+00 1.957236e+00 3.374830e+00 2.422749e+00 3.655143e+00 2.441583e+01 3.746034e+01 2.703524e+01 2.933956e+01 3.289518e+01 3.249640e+01 4.189242e+01 4.265071e+01 3.244225e+01 3.188807e+01 3.206092e+01 3.131733e+01 3.152224e+01 3.076804e+01 3.099495e+01 3.020613e+01 3.041512e+01 2.973978e+01 2.995330e+01 2.932988e+01 2.937301e+01 2.881144e+01 2.877672e+01 2.835447e+01 2.818113e+01 2.784618e+01 2.759126e+01 2.739111e+01 2.699603e+01 2.677559e+01 2.627233e+01 2.620573e+01 2.579147e+01 2.579549e+01 2.528959e+01 2.520216e+01 2.463460e+01 2.445655e+01 2.383971e+01 2.361370e+01 2.315503e+01 2.302983e+01 2.268546e+01 2.243860e+01 2.208972e+01 2.178395e+01 2.152143e+01 2.110944e+01 2.082533e+01 2.030405e+01 2.010766e+01 1.952608e+01 1.926722e+01 1.860110e+01 1.842377e+01 1.796239e+01 1.790320e+01 1.742854e+01 1.725567e+01 1.674502e+01 1.652643e+01 1.601888e+01 1.566815e+01 1.523954e+01 1.491903e+01 1.469155e+01 1.433356e+01 1.422113e+01 1.384137e+01 1.385519e+01 1.330455e+01 1.318068e+01 1.244599e+01 1.243651e+01 1.184807e+01 1.193052e+01 1.132058e+01 1.134866e+01 1.085628e+01 1.085162e+01 1.037334e+01 1.010119e+01 9.704660e+00 9.358070e+00 9.217510e+00 8.709357e+00 8.719895e+00 8.039169e+00 8.211193e+00 7.286825e+00 7.504998e+00 6.521057e+00 7.061871e+00 6.242062e+00 6.820886e+00 5.867975e+00 6.221863e+00 5.268579e+00 5.342829e+00 4.404785e+00 4.194234e+00 3.705074e+00 3.557527e+00 3.626021e+00 3.169966e+00 3.433081e+00 2.548971e+00 2.941859e+00 1.740373e+00 4.186579e+00 1.109784e+00 0 0 0 0 
0 0 0 0 0 5.948549e+00 4.717265e+00 2.381037e+00 4.055311e+00 2.831993e+00 4.885110e+00 3.507003e+00 5.291004e+00 7.033864e+00 1.047502e+01 1.468187e+01 1.871342e+01 2.561873e+01 3.144453e+01 3.537514e+01 4.701118e+01 4.697219e+01 4.616976e+01 4.642003e+01 4.534317e+01 4.563975e+01 4.454751e+01 4.487596e+01 4.373364e+01 4.403619e+01 4.305826e+01 4.336742e+01 4.246471e+01 4.252717e+01 4.171406e+01 4.166379e+01 4.105241e+01 4.080143e+01 4.031644e+01 3.994733e+01 3.965751e+01 3.908541e+01 3.876621e+01 3.803748e+01 3.794103e+01 3.734118e+01 3.734698e+01 3.661443e+01 3.648785e+01 3.566604e+01 3.540824e+01 3.451510e+01 3.418785e+01 3.352375e+01 3.334247e+01 3.284387e+01 3.248644e+01 3.198130e+01 3.153857e+01 3.115846e+01 3.056192e+01 3.015055e+01 2.939577e+01 2.911141e+01 2.826934e+01 2.789453e+01 2.693006e+01 2.667330e+01 2.600530e+01 2.591961e+01 2.523237e+01 2.498209e+01 2.424277e+01 2.392630e+01 2.319146e+01 2.268366e+01 2.206312e+01 2.159906e+01 2.126970e+01 2.075139e+01 2.058859e+01 2.003874e+01 2.005873e+01 1.926148e+01 1.908214e+01 1.801845e+01 1.800473e+01 1.715282e+01 1.727222e+01 1.638920e+01 1.642990e+01 1.571710e+01 1.571040e+01 1.501800e+01 1.462400e+01 1.404994e+01 1.354814e+01 1.334461e+01 1.260887e+01 1.262407e+01 1.163847e+01 1.188747e+01 1.054918e+01 1.086504e+01 9.440600e+00 1.022366e+01 9.036955e+00 9.875155e+00 8.495873e+00 9.008489e+00 7.628719e+00 7.736477e+00 6.378739e+00 6.074057e+00 5.365982e+00 5.152333e+00 5.251273e+00 4.590739e+00 4.971254e+00 3.691293e+00 4.263787e+00 2.526158e+00 6.063896e+00 1.606852e+00 0 0 0 0 
0 0 0 0 0 2.021847e+00 1.598105e+00 8.084979e-01 1.375393e+00 9.621653e-01 1.660655e+00 1.192199e+00 1.798702e+00 2.391561e+00 3.561675e+00 4.992162e+00 6.363017e+00 8.711284e+00 1.069232e+01 1.202911e+01 1.598664e+01 1.597346e+01 1.570057e+01 1.578567e+01 1.541935e+01 1.552017e+01 1.514861e+01 1.526027e+01 1.487170e+01 1.497457e+01 1.464195e+01 1.474709e+01 1.444007e+01 1.446132e+01 1.418479e+01 1.416771e+01 1.395979e+01 1.387443e+01 1.370950e+01 1.358396e+01 1.348539e+01 1.329081e+01 1.318225e+01 1.293440e+01 1.290158e+01 1.269757e+01 1.269953e+01 1.245039e+01 1.240734e+01 1.212785e+01 1.204018e+01 1.173644e+01 1.162515e+01 1.139931e+01 1.133767e+01 1.116811e+01 1.104655e+01 1.087477e+01 1.072421e+01 1.059494e+01 1.039206e+01 1.025217e+01 9.995480e+00 9.898771e+00 9.612402e+00 9.484940e+00 9.156957e+00 9.069642e+00 8.842480e+00 8.813345e+00 8.579651e+00 8.494545e+00 8.243143e+00 8.135532e+00 7.885656e+00 7.712981e+00 7.501970e+00 7.344164e+00 7.232166e+00 7.055905e+00 7.000539e+00 6.813556e+00 6.820344e+00 6.549236e+00 6.488247e+00 6.126548e+00 6.121888e+00 5.832217e+00 5.872835e+00 5.572599e+00 5.586463e+00 5.344114e+00 5.341860e+00 5.106446e+00 4.972480e+00 4.777293e+00 4.606655e+00 4.537438e+00 4.287236e+00 4.292377e+00 3.957216e+00 4.041856e+00 3.586791e+00 3.694191e+00 3.209882e+00 3.476184e+00 3.072765e+00 3.357871e+00 2.889028e+00 3.063462e+00 2.594478e+00 2.631246e+00 2.169738e+00 2.066210e+00 1.825500e+00 1.752837e+00 1.786371e+00 1.561639e+00 1.690824e+00 1.255613e+00 1.452062e+00 8.621184e-01 2.063202e+00 5.464428e-01 0 0 0 0 
0 0 0 0 0 0 0 0 0 0 0 0 0 0 0 0 0 0 0 0 0 0 0 0 0 0 0 0 0 0 0 0 0 0 0 0 0 0 0 0 0 0 0 0 0 0 0 0 0 0 0 0 0 0 0 0 0 0 0 0 0 0 0 0 0 0 0 0 0 0 0 0 0 0 0 0 0 0 0 0 0 0 0 0 0 0 0 0 0 0 0 0 0 0 0 0 0 0 0 0 0 0 0 0 0 0 0 0 0 0 0 0 0 0 0 0 0 0 0 0 0 0 0 0 0 0 0 0 
