# vtk DataFile Version 2.0
Comment goes here
ASCII

DATASET STRUCTURED_POINTS
FIELD FieldData 1
TIME 1 1 double
0.99000000
DIMENSIONS    128   16   1

ORIGIN    0.000   0.000   0.000
SPACING   0.0078125 0.015625   1.000

POINT_DATA   2048
SCALARS fMag double
LOOKUP_TABLE default

0 0 0 0 0 0 0 0 0 0 0 0 0 0 0 0 0 0 0 0 0 0 0 0 0 0 0 0 0 0 0 0 0 0 0 0 0 0 0 0 0 0 0 0 0 0 0 0 0 0 0 0 0 0 0 0 0 0 0 0 0 0 0 0 0 0 0 0 0 0 0 0 0 0 0 0 0 0 0 0 0 0 0 0 0 0 0 0 0 0 0 0 0 0 0 0 0 0 0 0 0 0 0 0 0 0 0 0 0 0 0 0 0 0 0 0 0 0 0 0 0 0 0 0 0 0 0 0 
0 0 0 0 0 0 0 0 0 0 0 0 0 0 0 0 0 0 0 0 0 0 0 0 0 0 0 0 0 0 0 0 0 0 0 0 0 0 0 0 0 0 0 0 0 0 0 0 0 0 0 0 0 0 0 0 0 0 0 0 0 0 0 0 0 0 0 0 0 0 0 0 0 0 0 0 0 0 0 0 0 0 0 0 0 0 0 0 0 0 0 0 0 0 0 0 0 0 0 0 0 0 0 0 0 0 0 0 0 0 0 0 0 0 0 0 0 0 0 0 0 0 0 0 0 0 0 0 
0 0 0 0 0 1.120033e+00 2.446596e+00 1.924448e+00 1.991269e+00 1.794491e+00 2.455701e+00 2.091897e+00 3.002919e+00 4.030597e+00 5.699941e+00 6.990872e+00 1.101450e+01 1.418149e+01 1.761722e+01 2.123406e+01 2.528972e+01 2.584970e+01 2.534488e+01 2.542841e+01 2.500669e+01 2.494692e+01 2.461220e+01 2.444439e+01 2.419102e+01 2.394231e+01 2.375921e+01 2.345380e+01 2.330857e+01 2.295489e+01 2.282239e+01 2.245521e+01 2.232805e+01 2.196623e+01 2.181970e+01 2.147742e+01 2.131119e+01 2.100540e+01 2.080806e+01 2.052764e+01 2.029294e+01 2.004022e+01 1.977929e+01 1.954813e+01 1.926582e+01 1.904643e+01 1.875048e+01 1.852672e+01 1.821901e+01 1.798023e+01 1.767259e+01 1.741891e+01 1.715116e+01 1.730575e+01 1.683046e+01 1.473977e+01 1.628124e+01 1.652630e+01 1.521156e+01 1.682220e+01 1.581129e+01 1.610355e+01 1.544376e+01 1.473390e+01 1.667424e+01 1.581059e+01 1.577740e+01 1.570793e+01 1.390617e+01 1.344763e+01 1.316996e+01 1.294816e+01 1.265224e+01 1.245692e+01 1.213775e+01 1.196079e+01 1.160914e+01 1.144535e+01 1.109347e+01 1.094983e+01 1.061192e+01 1.045043e+01 1.013013e+01 9.934434e+00 9.657981e+00 9.410125e+00 9.184028e+00 8.872338e+00 8.712926e+00 8.338885e+00 8.239227e+00 7.799970e+00 7.748783e+00 7.264507e+00 7.245860e+00 6.745096e+00 6.744484e+00 6.271298e+00 6.252287e+00 5.812949e+00 5.713603e+00 5.338289e+00 5.149278e+00 4.884327e+00 4.581737e+00 4.438011e+00 4.015859e+00 4.012532e+00 3.478224e+00 3.587128e+00 2.943976e+00 3.127115e+00 2.422240e+00 2.631832e+00 1.932731e+00 2.105613e+00 1.523939e+00 2.016721e+00 1.676271e+00 5.714208e-01 0 0 0 0 
0 0 0 0 0 3.294832e+00 7.193943e+00 5.657456e+00 5.858002e+00 5.280310e+00 7.225861e+00 6.156891e+00 8.836217e+00 1.185534e+01 1.676198e+01 2.055867e+01 3.239180e+01 4.170397e+01 5.180594e+01 6.243890e+01 7.436121e+01 7.600739e+01 7.452352e+01 7.476905e+01 7.352936e+01 7.335363e+01 7.236966e+01 7.187634e+01 7.113151e+01 7.040042e+01 6.986221e+01 6.896444e+01 6.853755e+01 6.749789e+01 6.710842e+01 6.602904e+01 6.565525e+01 6.459159e+01 6.416083e+01 6.315459e+01 6.266592e+01 6.176694e+01 6.118679e+01 6.036237e+01 5.967241e+01 5.892944e+01 5.816235e+01 5.748275e+01 5.665280e+01 5.600782e+01 5.513775e+01 5.447993e+01 5.357525e+01 5.287325e+01 5.196879e+01 5.122298e+01 5.001742e+01 4.853967e+01 4.823513e+01 4.575737e+01 4.688412e+01 4.697872e+01 4.501412e+01 4.616845e+01 4.439627e+01 4.471090e+01 4.418354e+01 4.280780e+01 4.410160e+01 4.212535e+01 4.218646e+01 4.295596e+01 4.078505e+01 3.954666e+01 3.873022e+01 3.807806e+01 3.720795e+01 3.663364e+01 3.569516e+01 3.517482e+01 3.414079e+01 3.365916e+01 3.262445e+01 3.220206e+01 3.120839e+01 3.073349e+01 2.979158e+01 2.921613e+01 2.840317e+01 2.767434e+01 2.700947e+01 2.609295e+01 2.562420e+01 2.452432e+01 2.423129e+01 2.293960e+01 2.278907e+01 2.136491e+01 2.131002e+01 1.983728e+01 1.983536e+01 1.844362e+01 1.838755e+01 1.709531e+01 1.680302e+01 1.569910e+01 1.514320e+01 1.436395e+01 1.347414e+01 1.305154e+01 1.181022e+01 1.180064e+01 1.022949e+01 1.054995e+01 8.658535e+00 9.197083e+00 7.123585e+00 7.738800e+00 5.679095e+00 6.176527e+00 4.428115e+00 5.875998e+00 4.910139e+00 1.681137e+00 0 0 0 0 
0 0 0 0 0 2.276230e+00 4.968338e+00 3.906631e+00 4.047104e+00 3.648575e+00 4.992875e+00 4.254982e+00 6.105674e+00 3.912581e+01 4.871941e+01 4.417324e+01 5.589810e+01 5.211145e+01 6.079711e+01 6.426674e+01 6.419532e+01 5.249246e+01 5.146789e+01 5.163742e+01 5.078141e+01 5.066006e+01 4.998061e+01 4.963997e+01 4.912566e+01 4.862085e+01 4.824922e+01 4.762933e+01 4.733458e+01 4.661670e+01 4.634778e+01 4.560247e+01 4.534436e+01 4.460989e+01 4.431244e+01 4.361760e+01 4.328016e+01 4.265937e+01 4.225876e+01 4.168946e+01 4.121302e+01 4.069996e+01 4.017026e+01 3.970097e+01 3.912785e+01 3.868246e+01 3.808163e+01 3.762738e+01 3.700265e+01 3.651787e+01 3.589329e+01 3.537826e+01 3.510573e+01 3.443473e+01 3.395909e+01 3.558283e+01 3.393961e+01 3.356884e+01 3.403037e+01 2.981732e+01 3.093349e+01 3.027813e+01 3.123497e+01 3.101648e+01 2.632028e+01 2.740395e+01 2.667813e+01 2.601572e+01 2.807209e+01 2.731465e+01 2.675080e+01 2.630041e+01 2.569949e+01 2.530286e+01 2.465471e+01 2.429535e+01 2.358121e+01 2.324857e+01 2.253394e+01 2.224220e+01 2.155591e+01 2.122791e+01 2.057736e+01 2.017991e+01 1.961842e+01 1.911505e+01 1.865585e+01 1.802286e+01 1.769912e+01 1.693949e+01 1.673711e+01 1.584498e+01 1.574102e+01 1.475736e+01 1.471942e+01 1.370215e+01 1.370076e+01 1.273941e+01 1.270060e+01 1.180794e+01 1.160599e+01 1.084343e+01 1.045944e+01 9.921181e+00 9.306612e+00 9.014758e+00 8.157453e+00 8.150933e+00 7.065816e+00 7.287259e+00 5.980845e+00 6.352804e+00 4.920356e+00 5.344723e+00 3.920257e+00 4.258510e+00 3.032559e+00 4.032048e+00 3.381999e+00 1.161495e+00 0 0 0 0 
0 0 0 0 0 1.014310e-01 2.209914e-01 1.736233e-01 1.803711e-01 1.627568e-01 2.227156e-01 1.899874e-01 2.723761e-01 4.413869e+01 4.815754e+01 4.523281e+01 4.746498e+01 4.672833e+01 4.601301e+01 4.829089e+01 4.394127e+01 2.334763e+00 2.289249e+00 2.296779e+00 2.258745e+00 2.253350e+00 2.223157e+00 2.208020e+00 2.185166e+00 2.162738e+00 2.146227e+00 2.118688e+00 2.105593e+00 2.073699e+00 2.061752e+00 2.028636e+00 2.017167e+00 1.984528e+00 1.971309e+00 1.940428e+00 1.925430e+00 1.897838e+00 1.880033e+00 1.854728e+00 1.833552e+00 1.810746e+00 1.787203e+00 1.766343e+00 1.740869e+00 1.721071e+00 1.694364e+00 1.674171e+00 1.646400e+00 1.624849e+00 1.597083e+00 1.574187e+00 2.519604e+00 4.207598e+00 3.442614e+00 5.322863e+00 3.769828e+00 3.127908e+00 4.617954e+00 1.227271e+00 3.513262e+00 2.264749e+00 2.569704e+00 3.326095e+00 5.476004e-01 2.169282e+00 1.087345e+00 1.413513e+00 1.192129e+00 1.215617e+00 1.190540e+00 1.170507e+00 1.143780e+00 1.126137e+00 1.097308e+00 1.081322e+00 1.049554e+00 1.034755e+00 1.002961e+00 9.899805e-01 9.594442e-01 9.448497e-01 9.159015e-01 8.982177e-01 8.732330e-01 8.508387e-01 8.304076e-01 8.022482e-01 7.878462e-01 7.540515e-01 7.450499e-01 7.053549e-01 7.007287e-01 6.569511e-01 6.552558e-01 6.099701e-01 6.098937e-01 5.670852e-01 5.653378e-01 5.255820e-01 5.165778e-01 4.826169e-01 4.655202e-01 4.415549e-01 4.142092e-01 4.012287e-01 3.630924e-01 3.628270e-01 3.145518e-01 3.244320e-01 2.662857e-01 2.828362e-01 2.190114e-01 2.377557e-01 1.738939e-01 1.875965e-01 1.283826e-01 1.727732e-01 1.481322e-01 5.177853e-02 0 0 0 0 
0 0 0 0 0 0 0 0 0 0 0 0 0 4.806905e+01 5.202006e+01 4.924119e+01 5.110646e+01 5.079315e+01 4.945033e+01 5.241711e+01 4.746356e+01 0 0 0 0 0 0 0 0 0 0 0 0 0 0 0 0 0 0 0 0 0 0 0 0 0 0 0 0 0 0 0 0 0 0 0 2.807366e-01 1.007901e+00 8.821745e-01 7.669915e-01 4.413539e-01 1.749120e-02 3.756468e-01 7.566982e-01 1.133907e+00 4.503522e-01 5.381613e-02 3.602814e-01 5.618280e-01 1.064483e+00 5.114955e-01 1.516095e-01 1.089863e-03 0 0 0 0 0 0 0 0 0 0 0 0 0 0 0 0 0 0 0 0 0 0 0 0 0 0 0 0 0 0 0 0 0 0 0 0 0 0 0 0 0 0 0 0 0 0 0 0 0 0 0 0 0 0 0 
0 0 0 0 0 0 0 0 0 0 0 0 0 4.796203e+01 4.980046e+01 4.818744e+01 4.905473e+01 4.879184e+01 4.839270e+01 4.955856e+01 4.803642e+01 0 0 0 0 0 0 0 0 0 0 0 0 0 0 0 0 0 0 0 0 0 0 0 0 0 0 0 0 0 0 0 0 0 0 0 0 0 0 0 0 0 0 0 0 0 0 0 0 0 0 0 0 0 0 0 0 0 0 0 0 0 0 0 0 0 0 0 0 0 0 0 0 0 0 0 0 0 0 0 0 0 0 0 0 0 0 0 0 0 0 0 0 0 0 0 0 0 0 0 0 0 0 0 0 0 0 0 
0 0 0 0 0 0 0 0 0 0 0 0 0 5.041019e+01 5.261586e+01 5.083730e+01 5.173038e+01 5.170414e+01 5.079519e+01 5.266579e+01 5.017581e+01 0 0 0 0 0 0 0 0 0 0 0 0 0 0 0 0 0 0 0 0 0 0 0 0 0 0 0 0 0 0 0 0 0 0 0 0 0 0 0 0 0 0 0 0 0 0 0 0 0 0 0 0 0 0 0 0 0 0 0 0 0 0 0 0 0 0 0 0 0 0 0 0 0 0 0 0 0 0 0 0 0 0 0 0 0 0 0 0 0 0 0 0 0 0 0 0 0 0 0 0 0 0 0 0 0 0 0 
0 0 0 0 0 0 0 0 0 0 0 0 0 4.795787e+01 4.979650e+01 4.818311e+01 4.905037e+01 4.878671e+01 4.838841e+01 4.955230e+01 4.803226e+01 0 0 0 0 0 0 0 0 0 0 0 0 0 0 0 0 0 0 0 0 0 0 0 0 0 0 0 0 0 0 0 0 0 0 0 0 0 0 0 0 0 0 0 0 0 0 0 0 0 0 0 0 0 0 0 0 0 0 0 0 0 0 0 0 0 0 0 0 0 0 0 0 0 0 0 0 0 0 0 0 0 0 0 0 0 0 0 0 0 0 0 0 0 0 0 0 0 0 0 0 0 0 0 0 0 0 0 
0 0 0 0 0 0 0 0 0 0 0 0 0 4.806291e+01 5.201455e+01 4.923582e+01 5.109717e+01 5.078622e+01 4.943993e+01 5.240498e+01 4.745494e+01 0 0 0 0 0 0 0 0 0 0 0 0 0 0 0 0 0 0 0 0 0 0 0 0 0 0 0 0 0 0 0 0 0 0 0 0 0 0 0 0 0 0 0 0 0 0 0 0 0 0 0 0 0 0 0 0 0 0 0 0 0 0 0 0 0 0 0 0 0 0 0 0 0 0 0 0 0 0 0 0 0 0 0 0 0 0 0 0 0 0 0 0 0 0 0 0 0 0 0 0 0 0 0 0 0 0 0 
0 0 0 0 0 1.013712e-01 2.211454e-01 1.738584e-01 1.798590e-01 1.623688e-01 2.224347e-01 1.901365e-01 2.723744e-01 4.412881e+01 4.814899e+01 4.522286e+01 4.745027e+01 4.671476e+01 4.599905e+01 4.827106e+01 4.393326e+01 2.333478e+00 2.287375e+00 2.294398e+00 2.256480e+00 2.251366e+00 2.221505e+00 2.206971e+00 2.184780e+00 2.162786e+00 2.145610e+00 2.117208e+00 2.103392e+00 2.071761e+00 2.059806e+00 2.026607e+00 2.014946e+00 1.983500e+00 1.972032e+00 1.942923e+00 1.928087e+00 1.900437e+00 1.882208e+00 1.857866e+00 1.836621e+00 1.814762e+00 1.790700e+00 1.771837e+00 1.746747e+00 1.729975e+00 1.703853e+00 1.687616e+00 1.661120e+00 1.643900e+00 1.617286e+00 1.598945e+00 1.574867e+00 1.556383e+00 1.534686e+00 1.513902e+00 1.493893e+00 1.471237e+00 1.453515e+00 1.428179e+00 1.410268e+00 1.383854e+00 1.366274e+00 1.341677e+00 1.322876e+00 1.299513e+00 1.278848e+00 1.257231e+00 1.234747e+00 1.214696e+00 1.189416e+00 1.171851e+00 1.143933e+00 1.128008e+00 1.097169e+00 1.083124e+00 1.051777e+00 1.038996e+00 1.006791e+00 9.926314e-01 9.616737e-01 9.464702e-01 9.185886e-01 8.991734e-01 8.741911e-01 8.499398e-01 8.308078e-01 8.019364e-01 7.886614e-01 7.543694e-01 7.468302e-01 7.076391e-01 7.039493e-01 6.602598e-01 6.589496e-01 6.138632e-01 6.129267e-01 5.686972e-01 5.656557e-01 5.267439e-01 5.193879e-01 4.868584e-01 4.692580e-01 4.443544e-01 4.163831e-01 4.035601e-01 3.650144e-01 3.637268e-01 3.143772e-01 3.240774e-01 2.661737e-01 2.828122e-01 2.187210e-01 2.373974e-01 1.735638e-01 1.870000e-01 1.272149e-01 1.718853e-01 1.477719e-01 5.182867e-02 0 0 0 0 
0 0 0 0 0 2.274888e+00 4.971794e+00 3.911925e+00 4.035611e+00 3.639845e+00 4.986549e+00 4.258319e+00 6.105617e+00 3.912718e+01 4.874852e+01 4.417909e+01 5.587866e+01 5.211640e+01 6.076443e+01 6.423091e+01 6.415033e+01 5.246354e+01 5.142571e+01 5.158386e+01 5.073044e+01 5.061541e+01 4.994343e+01 4.961633e+01 4.911696e+01 4.862190e+01 4.823533e+01 4.759602e+01 4.728502e+01 4.657307e+01 4.630397e+01 4.555682e+01 4.529438e+01 4.458675e+01 4.432870e+01 4.367374e+01 4.333994e+01 4.271785e+01 4.230769e+01 4.176006e+01 4.128206e+01 4.079028e+01 4.024889e+01 3.982453e+01 3.926004e+01 3.888270e+01 3.829503e+01 3.792976e+01 3.733372e+01 3.694635e+01 3.634768e+01 3.593513e+01 3.539356e+01 3.497781e+01 3.448980e+01 3.402234e+01 3.357233e+01 3.306276e+01 3.266421e+01 3.209443e+01 3.169163e+01 3.109763e+01 3.070229e+01 3.014920e+01 2.972641e+01 2.920110e+01 2.873641e+01 2.825037e+01 2.774480e+01 2.729397e+01 2.672556e+01 2.633064e+01 2.570294e+01 2.534490e+01 2.465161e+01 2.433589e+01 2.363123e+01 2.334396e+01 2.262011e+01 2.230188e+01 2.160613e+01 2.126445e+01 2.063786e+01 2.020149e+01 1.964005e+01 1.909492e+01 1.866490e+01 1.801590e+01 1.771747e+01 1.694665e+01 1.677713e+01 1.589632e+01 1.581340e+01 1.483172e+01 1.480244e+01 1.378965e+01 1.376895e+01 1.277568e+01 1.270778e+01 1.183409e+01 1.166920e+01 1.093880e+01 1.054349e+01 9.984126e+00 9.355459e+00 9.067107e+00 8.200588e+00 8.171112e+00 7.061867e+00 7.279278e+00 5.978324e+00 6.352266e+00 4.913835e+00 5.336677e+00 3.912852e+00 4.245145e+00 3.006451e+00 4.011790e+00 3.373880e+00 1.162618e+00 0 0 0 0 
0 0 0 0 0 3.292889e+00 7.198945e+00 5.665124e+00 5.841366e+00 5.267668e+00 7.216698e+00 6.161720e+00 8.836130e+00 1.184854e+01 1.677737e+01 2.058905e+01 3.240210e+01 4.170077e+01 5.178944e+01 6.239516e+01 7.433647e+01 7.596550e+01 7.446243e+01 7.469149e+01 7.345553e+01 7.328896e+01 7.231580e+01 7.184210e+01 7.111890e+01 7.040192e+01 6.984208e+01 6.891620e+01 6.846578e+01 6.743471e+01 6.704497e+01 6.596293e+01 6.558287e+01 6.455808e+01 6.418437e+01 6.323590e+01 6.275249e+01 6.185162e+01 6.125764e+01 6.046460e+01 5.977238e+01 5.906022e+01 5.827621e+01 5.766167e+01 5.684422e+01 5.629778e+01 5.544676e+01 5.491780e+01 5.405466e+01 5.349371e+01 5.262679e+01 5.202938e+01 5.124513e+01 5.064310e+01 4.993643e+01 4.925951e+01 4.860788e+01 4.786999e+01 4.729288e+01 4.646781e+01 4.588455e+01 4.502442e+01 4.445196e+01 4.365109e+01 4.303888e+01 4.227823e+01 4.160536e+01 4.090158e+01 4.016951e+01 3.951672e+01 3.869367e+01 3.812183e+01 3.721294e+01 3.669452e+01 3.569067e+01 3.523352e+01 3.421323e+01 3.379729e+01 3.274924e+01 3.228848e+01 3.128113e+01 3.078642e+01 2.987922e+01 2.924739e+01 2.843450e+01 2.764520e+01 2.702259e+01 2.608288e+01 2.565077e+01 2.453469e+01 2.428922e+01 2.301393e+01 2.289387e+01 2.147258e+01 2.143023e+01 1.996397e+01 1.993409e+01 1.849615e+01 1.839796e+01 1.713318e+01 1.689455e+01 1.583720e+01 1.526489e+01 1.445510e+01 1.354486e+01 1.312732e+01 1.187266e+01 1.182984e+01 1.022376e+01 1.053840e+01 8.654883e+00 9.196304e+00 7.114145e+00 7.727151e+00 5.668377e+00 6.157186e+00 4.390347e+00 5.846598e+00 4.898377e+00 1.682763e+00 0 0 0 0 
0 0 0 0 0 1.119372e+00 2.448296e+00 1.927057e+00 1.985614e+00 1.790191e+00 2.452584e+00 2.093537e+00 3.002887e+00 4.028285e+00 5.705178e+00 7.001206e+00 1.101801e+01 1.418040e+01 1.761161e+01 2.121918e+01 2.528130e+01 2.583544e+01 2.532410e+01 2.540203e+01 2.498158e+01 2.492492e+01 2.459388e+01 2.443273e+01 2.418672e+01 2.394281e+01 2.375236e+01 2.343738e+01 2.328415e+01 2.293340e+01 2.280081e+01 2.243272e+01 2.230343e+01 2.195483e+01 2.182771e+01 2.150507e+01 2.134064e+01 2.103420e+01 2.083216e+01 2.056241e+01 2.032694e+01 2.008470e+01 1.981802e+01 1.960898e+01 1.933092e+01 1.914505e+01 1.885558e+01 1.867565e+01 1.838207e+01 1.819126e+01 1.789639e+01 1.769319e+01 1.742644e+01 1.722167e+01 1.698132e+01 1.675108e+01 1.652944e+01 1.627847e+01 1.608218e+01 1.580156e+01 1.560319e+01 1.531064e+01 1.511594e+01 1.484356e+01 1.463534e+01 1.437664e+01 1.414780e+01 1.390844e+01 1.365946e+01 1.343745e+01 1.315753e+01 1.296305e+01 1.265394e+01 1.247763e+01 1.213623e+01 1.198076e+01 1.163378e+01 1.149233e+01 1.113592e+01 1.097924e+01 1.063667e+01 1.046844e+01 1.015994e+01 9.945078e+00 9.668649e+00 9.400226e+00 9.188496e+00 8.868917e+00 8.721963e+00 8.342411e+00 8.258927e+00 7.825246e+00 7.784419e+00 7.301121e+00 7.286739e+00 6.788183e+00 6.778064e+00 6.289166e+00 6.255834e+00 5.825831e+00 5.744734e+00 5.385255e+00 5.190665e+00 4.915325e+00 4.605785e+00 4.463776e+00 4.037084e+00 4.022459e+00 3.476274e+00 3.583196e+00 2.942733e+00 3.126850e+00 2.419031e+00 2.627872e+00 1.929088e+00 2.099041e+00 1.511112e+00 2.006690e+00 1.672269e+00 5.719732e-01 0 0 0 0 
0 0 0 0 0 0 0 0 0 0 0 0 0 0 0 0 0 0 0 0 0 0 0 0 0 0 0 0 0 0 0 0 0 0 0 0 0 0 0 0 0 0 0 0 0 0 0 0 0 0 0 0 0 0 0 0 0 0 0 0 0 0 0 0 0 0 0 0 0 0 0 0 0 0 0 0 0 0 0 0 0 0 0 0 0 0 0 0 0 0 0 0 0 0 0 0 0 0 0 0 0 0 0 0 0 0 0 0 0 0 0 0 0 0 0 0 0 0 0 0 0 0 0 0 0 0 0 0 
