# vtk DataFile Version 2.0
Comment goes here
ASCII

DATASET STRUCTURED_POINTS
FIELD FieldData 1
TIME 1 1 double
0.61000000
DIMENSIONS    128   16   1

ORIGIN    0.000   0.000   0.000
SPACING   0.0078125 0.015625   1.000

POINT_DATA   2048
SCALARS fX double
LOOKUP_TABLE default

0 0 0 0 0 0 0 0 0 0 0 0 0 0 0 0 0 0 0 0 0 0 0 0 0 0 0 0 0 0 0 0 0 0 0 0 0 0 0 0 0 0 0 0 0 0 0 0 0 0 0 0 0 0 0 0 0 0 0 0 0 0 0 0 0 0 0 0 0 0 0 0 0 0 0 0 0 0 0 0 0 0 0 0 0 0 0 0 0 0 0 0 0 0 0 0 0 0 0 0 0 0 0 0 0 0 0 0 0 0 0 0 0 0 0 0 0 0 0 0 0 0 0 0 0 0 0 0 
0 0 0 0 0 0 0 0 0 0 0 0 0 0 0 0 0 0 0 0 0 0 0 0 0 0 0 0 0 0 0 0 0 0 0 0 0 0 0 0 0 0 0 0 0 0 0 0 0 0 0 0 0 0 0 0 0 0 0 0 0 0 0 0 0 0 0 0 0 0 0 0 0 0 0 0 0 0 0 0 0 0 0 0 0 0 0 0 0 0 0 0 0 0 0 0 0 0 0 0 0 0 0 0 0 0 0 0 0 0 0 0 0 0 0 0 0 0 0 0 0 0 0 0 0 0 0 0 
0 0 0 0 0 -1.126853e+00 -2.568883e+00 -6.271917e-01 -7.681612e-01 -8.475563e-01 -8.179034e-01 -8.385190e-01 7.078689e-01 4.403963e+00 5.995481e+00 4.674027e+00 5.238661e+00 5.162623e+00 4.647847e+00 5.780406e+00 4.776594e+00 1.544279e-01 -7.727867e-01 -8.713024e-01 -7.995105e-01 -8.633715e-01 -7.989335e-01 -8.347273e-01 -7.835421e-01 -7.951869e-01 -7.617826e-01 -7.536367e-01 -7.392174e-01 -7.164076e-01 -7.230728e-01 -6.935863e-01 -7.225542e-01 -6.927618e-01 -7.407462e-01 -7.128986e-01 -7.719965e-01 -7.452414e-01 -8.056403e-01 -7.764412e-01 -8.287426e-01 -7.935981e-01 -8.306970e-01 -7.881690e-01 -8.074848e-01 -7.591926e-01 -7.642757e-01 -7.119264e-01 -7.100513e-01 -6.531608e-01 -6.495408e-01 -1.233270e+00 -3.120396e+00 -7.205560e-01 4.021884e+00 -2.342377e+00 -6.733236e+00 1.125990e+00 6.127473e+00 5.524126e+00 -1.434356e+00 -5.718142e+00 1.044559e+00 5.575187e+00 4.932159e+00 -8.229005e-01 -3.570243e+00 1.833515e+00 2.044526e+00 -8.322116e-01 -9.215639e-01 -9.118059e-01 -9.186441e-01 -9.059369e-01 -9.115609e-01 -8.989790e-01 -9.065555e-01 -9.001444e-01 -9.147612e-01 -9.147634e-01 -9.401255e-01 -9.446459e-01 -9.849733e-01 -9.923617e-01 -1.046189e+00 -1.052319e+00 -1.113229e+00 -1.112165e+00 -1.170846e+00 -1.157812e+00 -1.205285e+00 -1.177729e+00 -1.207172e+00 -1.166890e+00 -1.176763e+00 -1.131825e+00 -1.124999e+00 -1.088082e+00 -1.068460e+00 -1.052227e+00 -1.020783e+00 -1.035478e+00 -9.908124e-01 -1.043252e+00 -9.802936e-01 -1.070691e+00 -9.814250e-01 -1.105216e+00 -9.833797e-01 -1.133995e+00 -9.767235e-01 -1.146663e+00 -9.558116e-01 -1.144130e+00 -9.159534e-01 -1.153717e+00 -6.968569e-01 -1.517487e+00 -2.366685e+00 -1.713189e-01 0 0 0 0 
0 0 0 0 0 -3.315554e+00 -7.563711e+00 -1.854328e+00 -2.262596e+00 -2.493600e+00 -2.406899e+00 -2.468130e+00 2.079853e+00 1.295009e+01 1.763147e+01 1.374466e+01 1.540502e+01 1.518067e+01 1.366643e+01 1.699602e+01 1.404436e+01 4.540712e-01 -2.272089e+00 -2.561842e+00 -2.350831e+00 -2.538607e+00 -2.349141e+00 -2.454352e+00 -2.303825e+00 -2.338024e+00 -2.239774e+00 -2.215794e+00 -2.173374e+00 -2.106301e+00 -2.125889e+00 -2.039201e+00 -2.124381e+00 -2.036808e+00 -2.177914e+00 -2.096064e+00 -2.269851e+00 -2.191210e+00 -2.368822e+00 -2.282993e+00 -2.436793e+00 -2.333476e+00 -2.442571e+00 -2.317537e+00 -2.374340e+00 -2.232351e+00 -2.247301e+00 -2.093375e+00 -2.087862e+00 -1.920576e+00 -1.909931e+00 -3.626377e+00 -9.324118e+00 -2.705879e+00 1.077968e+01 -1.044039e+01 -2.745942e+01 -3.324210e+00 1.579431e+01 1.523775e+01 -7.842505e+00 -2.335998e+01 -1.708851e+00 1.514846e+01 1.335633e+01 -6.863021e+00 -1.614101e+01 3.042743e+00 5.921562e+00 -2.447304e+00 -2.710056e+00 -2.681355e+00 -2.701461e+00 -2.664094e+00 -2.680638e+00 -2.643648e+00 -2.665937e+00 -2.647095e+00 -2.690088e+00 -2.690112e+00 -2.764709e+00 -2.778025e+00 -2.896630e+00 -2.918376e+00 -3.076678e+00 -3.094720e+00 -3.273847e+00 -3.270728e+00 -3.443293e+00 -3.404965e+00 -3.544566e+00 -3.463520e+00 -3.550101e+00 -3.431628e+00 -3.460664e+00 -3.328503e+00 -3.308448e+00 -3.199886e+00 -3.142220e+00 -3.094502e+00 -3.002080e+00 -3.045324e+00 -2.914011e+00 -3.068253e+00 -2.883120e+00 -3.148964e+00 -2.886403e+00 -3.250396e+00 -2.891962e+00 -3.334772e+00 -2.872017e+00 -3.371572e+00 -2.809918e+00 -3.363353e+00 -2.691537e+00 -3.389518e+00 -2.043736e+00 -4.458742e+00 -6.959808e+00 -5.038533e-01 0 0 0 0 
0 0 0 0 0 -2.290866e+00 -5.228654e+00 -1.285566e+00 -1.564504e+00 -1.722855e+00 -1.663215e+00 -1.705800e+00 1.435649e+00 4.783077e+01 6.689014e+01 5.349941e+01 5.672104e+01 5.843731e+01 5.107185e+01 6.652714e+01 4.873241e+01 3.135910e-01 -1.569069e+00 -1.769219e+00 -1.623530e+00 -1.753213e+00 -1.622365e+00 -1.695010e+00 -1.591040e+00 -1.614639e+00 -1.546771e+00 -1.530197e+00 -1.500890e+00 -1.454566e+00 -1.468089e+00 -1.408226e+00 -1.467055e+00 -1.406589e+00 -1.504046e+00 -1.447535e+00 -1.567565e+00 -1.513268e+00 -1.635939e+00 -1.576677e+00 -1.682901e+00 -1.611558e+00 -1.686907e+00 -1.600563e+00 -1.639796e+00 -1.541738e+00 -1.552066e+00 -1.445760e+00 -1.441953e+00 -1.326418e+00 -1.319066e+00 -2.504518e+00 -6.553807e+00 -2.328792e+00 6.742812e+00 -9.345590e+00 -2.372756e+01 -6.481097e+00 9.446216e+00 9.817716e+00 -7.617061e+00 -2.025229e+01 -4.263720e+00 9.559831e+00 8.367837e+00 -7.508636e+00 -1.485776e+01 4.283872e-01 4.032316e+00 -1.690312e+00 -1.871786e+00 -1.851960e+00 -1.865845e+00 -1.840037e+00 -1.851466e+00 -1.825923e+00 -1.841321e+00 -1.828313e+00 -1.858012e+00 -1.858037e+00 -1.909566e+00 -1.918775e+00 -2.000700e+00 -2.015729e+00 -2.125070e+00 -2.137539e+00 -2.261263e+00 -2.259113e+00 -2.378302e+00 -2.351829e+00 -2.448248e+00 -2.392266e+00 -2.452063e+00 -2.370228e+00 -2.390285e+00 -2.298998e+00 -2.285154e+00 -2.210174e+00 -2.170362e+00 -2.137414e+00 -2.073602e+00 -2.103485e+00 -2.012806e+00 -2.119353e+00 -1.991490e+00 -2.175109e+00 -1.993736e+00 -2.245119e+00 -1.997484e+00 -2.303273e+00 -1.983529e+00 -2.328471e+00 -1.940346e+00 -2.322421e+00 -1.858016e+00 -2.339510e+00 -1.408895e+00 -3.077752e+00 -4.807041e+00 -3.480282e-01 0 0 0 0 
0 0 0 0 0 -1.021644e-01 -2.338251e-01 -5.843010e-02 -7.006927e-02 -7.681144e-02 -7.421904e-02 -7.618867e-02 6.366567e-02 5.372005e+01 5.870377e+01 5.505444e+01 5.664980e+01 5.679268e+01 5.481324e+01 5.844792e+01 5.384738e+01 1.394765e-02 -6.976676e-02 -7.867912e-02 -7.220933e-02 -7.797760e-02 -7.215832e-02 -7.538504e-02 -7.075766e-02 -7.180234e-02 -6.878006e-02 -6.803950e-02 -6.673322e-02 -6.467230e-02 -6.527264e-02 -6.261151e-02 -6.522860e-02 -6.254257e-02 -6.687905e-02 -6.436946e-02 -6.971050e-02 -6.729899e-02 -7.275723e-02 -7.012468e-02 -7.485119e-02 -7.168045e-02 -7.503318e-02 -7.119446e-02 -7.294045e-02 -6.857986e-02 -6.903979e-02 -6.431148e-02 -6.414218e-02 -5.900246e-02 -5.867535e-02 -1.114110e-01 -3.522023e-01 -3.578700e-01 -3.685841e-02 -1.265314e+00 -3.010091e+00 -2.025901e+00 -2.155665e-01 1.037550e-01 -1.204566e+00 -2.612428e+00 -1.504123e+00 -1.774475e-02 -7.932021e-02 -1.481048e+00 -2.334401e+00 -8.226226e-01 1.547276e-01 -7.521903e-02 -8.329365e-02 -8.241074e-02 -8.302813e-02 -8.187995e-02 -8.238914e-02 -8.125375e-02 -8.193996e-02 -8.136252e-02 -8.268528e-02 -8.268844e-02 -8.498325e-02 -8.539582e-02 -8.904322e-02 -8.971426e-02 -9.458117e-02 -9.513802e-02 -1.006447e-01 -1.005503e-01 -1.058544e-01 -1.046763e-01 -1.089666e-01 -1.064741e-01 -1.091345e-01 -1.054909e-01 -1.063839e-01 -1.023202e-01 -1.017063e-01 -9.836981e-02 -9.660274e-02 -9.513902e-02 -9.230487e-02 -9.363866e-02 -8.960773e-02 -9.435288e-02 -8.866428e-02 -9.683643e-02 -8.875878e-02 -9.994004e-02 -8.890229e-02 -1.024966e-01 -8.823558e-02 -1.035621e-01 -8.623985e-02 -1.031982e-01 -8.243224e-02 -1.037093e-01 -6.201568e-02 -1.364967e-01 -2.139189e-01 -1.549368e-02 0 0 0 0 
0 0 0 0 0 0 0 0 0 0 0 0 0 5.883009e+01 6.421310e+01 6.030200e+01 6.187988e+01 6.228742e+01 5.980096e+01 6.423250e+01 5.867132e+01 0 0 0 0 0 0 0 0 0 0 0 0 0 0 0 0 0 0 0 0 0 0 0 0 0 0 0 0 0 0 0 0 0 0 0 -2.117586e-03 -1.440091e-02 -2.186986e-02 -1.773477e-02 -8.720831e-03 4.996054e-03 5.057928e-03 -3.344837e-04 4.345878e-03 -1.977151e-03 6.187574e-03 -4.298527e-03 -2.298705e-02 -1.253311e-02 -4.740763e-02 -4.178174e-02 -5.530717e-04 0 0 0 0 0 0 0 0 0 0 0 0 0 0 0 0 0 0 0 0 0 0 0 0 0 0 0 0 0 0 0 0 0 0 0 0 0 0 0 0 0 0 0 0 0 0 0 0 0 0 0 0 0 0 0 
0 0 0 0 0 0 0 0 0 0 0 0 0 5.790445e+01 5.999369e+01 5.820526e+01 5.901976e+01 5.891961e+01 5.826256e+01 5.979127e+01 5.799239e+01 0 0 0 0 0 0 0 0 0 0 0 0 0 0 0 0 0 0 0 0 0 0 0 0 0 0 0 0 0 0 0 0 0 0 0 0 0 0 0 0 0 0 0 0 0 0 0 0 0 0 0 0 0 0 0 0 0 0 0 0 0 0 0 0 0 0 0 0 0 0 0 0 0 0 0 0 0 0 0 0 0 0 0 0 0 0 0 0 0 0 0 0 0 0 0 0 0 0 0 0 0 0 0 0 0 0 0 
0 0 0 0 0 0 0 0 0 0 0 0 0 6.145527e+01 6.419699e+01 6.204991e+01 6.291289e+01 6.314707e+01 6.177081e+01 6.430001e+01 6.123860e+01 0 0 0 0 0 0 0 0 0 0 0 0 0 0 0 0 0 0 0 0 0 0 0 0 0 0 0 0 0 0 0 0 0 0 0 0 0 0 0 0 0 0 0 0 0 0 0 0 0 0 0 0 0 0 0 0 0 0 0 0 0 0 0 0 0 0 0 0 0 0 0 0 0 0 0 0 0 0 0 0 0 0 0 0 0 0 0 0 0 0 0 0 0 0 0 0 0 0 0 0 0 0 0 0 0 0 0 
0 0 0 0 0 0 0 0 0 0 0 0 0 5.790233e+01 5.999665e+01 5.820238e+01 5.902106e+01 5.891616e+01 5.826219e+01 5.978651e+01 5.798835e+01 0 0 0 0 0 0 0 0 0 0 0 0 0 0 0 0 0 0 0 0 0 0 0 0 0 0 0 0 0 0 0 0 0 0 0 0 0 0 0 0 0 0 0 0 0 0 0 0 0 0 0 0 0 0 0 0 0 0 0 0 0 0 0 0 0 0 0 0 0 0 0 0 0 0 0 0 0 0 0 0 0 0 0 0 0 0 0 0 0 0 0 0 0 0 0 0 0 0 0 0 0 0 0 0 0 0 0 
0 0 0 0 0 0 0 0 0 0 0 0 0 5.880869e+01 6.420925e+01 6.029399e+01 6.188320e+01 6.228882e+01 5.980694e+01 6.422608e+01 5.867975e+01 0 0 0 0 0 0 0 0 0 0 0 0 0 0 0 0 0 0 0 0 0 0 0 0 0 0 0 0 0 0 0 0 0 0 0 0 0 0 0 0 0 0 0 0 0 0 0 0 0 0 0 0 0 0 0 0 0 0 0 0 0 0 0 0 0 0 0 0 0 0 0 0 0 0 0 0 0 0 0 0 0 0 0 0 0 0 0 0 0 0 0 0 0 0 0 0 0 0 0 0 0 0 0 0 0 0 0 
0 0 0 0 0 -1.021824e-01 -2.342774e-01 -5.938799e-02 -7.153228e-02 -7.861495e-02 -7.657106e-02 -7.890312e-02 6.055192e-02 5.370057e+01 5.871492e+01 5.504508e+01 5.665441e+01 5.678637e+01 5.482175e+01 5.843177e+01 5.382778e+01 2.156364e-02 -6.150091e-02 -7.039145e-02 -6.390080e-02 -7.036621e-02 -6.528163e-02 -7.007121e-02 -6.685763e-02 -6.990441e-02 -6.843095e-02 -6.962935e-02 -6.956253e-02 -6.887736e-02 -6.974979e-02 -6.710370e-02 -6.834028e-02 -6.380982e-02 -6.513856e-02 -5.933866e-02 -6.094523e-02 -5.478091e-02 -5.690353e-02 -5.121079e-02 -5.409970e-02 -4.969776e-02 -5.358089e-02 -5.093550e-02 -5.557158e-02 -5.451403e-02 -5.930238e-02 -5.943736e-02 -6.382980e-02 -6.472099e-02 -6.806833e-02 -6.910557e-02 -7.071006e-02 -7.081634e-02 -6.840222e-02 -7.017241e-02 -6.914431e-02 -6.554154e-02 -6.208268e-02 -6.111226e-02 -6.065831e-02 -6.225592e-02 -5.806734e-02 -5.828666e-02 -5.714393e-02 -6.059069e-02 -6.208120e-02 -6.273397e-02 -6.474141e-02 -6.828165e-02 -7.056300e-02 -7.391326e-02 -7.650438e-02 -7.956349e-02 -8.236026e-02 -8.497114e-02 -8.776575e-02 -8.959467e-02 -9.211859e-02 -9.279428e-02 -9.482112e-02 -9.404291e-02 -9.540261e-02 -9.311397e-02 -9.397225e-02 -9.066008e-02 -9.155529e-02 -8.791336e-02 -8.927685e-02 -8.592883e-02 -8.814595e-02 -8.580715e-02 -8.910795e-02 -8.815978e-02 -9.207840e-02 -9.235324e-02 -9.591804e-02 -9.716882e-02 -9.932805e-02 -1.013964e-01 -1.010623e-01 -1.038963e-01 -1.002402e-01 -1.042076e-01 -9.699644e-02 -1.027875e-01 -9.215774e-02 -1.003206e-01 -8.659877e-02 -9.745321e-02 -8.131012e-02 -9.503421e-02 -7.714470e-02 -9.380638e-02 -7.359840e-02 -9.556733e-02 -5.523060e-02 -1.317068e-01 -2.123033e-01 -1.543273e-02 0 0 0 0 
0 0 0 0 0 -2.291271e+00 -5.238828e+00 -1.307105e+00 -1.597371e+00 -1.763347e+00 -1.716018e+00 -1.766742e+00 1.365770e+00 4.766203e+01 6.675178e+01 5.349559e+01 5.675957e+01 5.853230e+01 5.111438e+01 6.659375e+01 4.884552e+01 4.848247e-01 -1.383217e+00 -1.582861e+00 -1.436698e+00 -1.582055e+00 -1.467729e+00 -1.575519e+00 -1.503341e+00 -1.571951e+00 -1.538913e+00 -1.565922e+00 -1.564486e+00 -1.549100e+00 -1.568744e+00 -1.509220e+00 -1.537013e+00 -1.435102e+00 -1.464940e+00 -1.334458e+00 -1.370531e+00 -1.231839e+00 -1.279509e+00 -1.151441e+00 -1.216349e+00 -1.117330e+00 -1.204605e+00 -1.145102e+00 -1.249316e+00 -1.225521e+00 -1.333158e+00 -1.336175e+00 -1.434906e+00 -1.454921e+00 -1.530150e+00 -1.553449e+00 -1.589497e+00 -1.591865e+00 -1.537565e+00 -1.577325e+00 -1.554186e+00 -1.473190e+00 -1.395417e+00 -1.373583e+00 -1.363345e+00 -1.399228e+00 -1.305059e+00 -1.309972e+00 -1.284271e+00 -1.361723e+00 -1.395204e+00 -1.409863e+00 -1.454956e+00 -1.534503e+00 -1.585749e+00 -1.661022e+00 -1.719224e+00 -1.787946e+00 -1.850768e+00 -1.909416e+00 -1.972188e+00 -2.013247e+00 -2.069923e+00 -2.085052e+00 -2.130559e+00 -2.113022e+00 -2.143545e+00 -2.092071e+00 -2.111339e+00 -2.036890e+00 -2.057009e+00 -1.975173e+00 -2.005827e+00 -1.930613e+00 -1.980451e+00 -1.927924e+00 -2.002101e+00 -1.980816e+00 -2.068856e+00 -2.075030e+00 -2.155076e+00 -2.183143e+00 -2.231565e+00 -2.277967e+00 -2.270326e+00 -2.333906e+00 -2.251622e+00 -2.340694e+00 -2.178639e+00 -2.308781e+00 -2.070089e+00 -2.253665e+00 -1.945762e+00 -2.190013e+00 -1.828014e+00 -2.136966e+00 -1.736105e+00 -2.111510e+00 -1.659637e+00 -2.156644e+00 -1.256508e+00 -2.970193e+00 -4.770733e+00 -3.466580e-01 0 0 0 0 
0 0 0 0 0 -3.316141e+00 -7.578444e+00 -1.885516e+00 -2.310180e+00 -2.552216e+00 -2.483337e+00 -2.556350e+00 1.978701e+00 1.286308e+01 1.755959e+01 1.371698e+01 1.540640e+01 1.523115e+01 1.376598e+01 1.714555e+01 1.425972e+01 7.020129e-01 -2.002978e+00 -2.291995e+00 -2.080297e+00 -2.290767e+00 -2.125224e+00 -2.281329e+00 -2.176836e+00 -2.276209e+00 -2.228393e+00 -2.267517e+00 -2.265456e+00 -2.243181e+00 -2.271632e+00 -2.185437e+00 -2.225677e+00 -2.078100e+00 -2.121295e+00 -1.932341e+00 -1.984560e+00 -1.783713e+00 -1.852726e+00 -1.667267e+00 -1.761241e+00 -1.617852e+00 -1.744216e+00 -1.658050e+00 -1.808945e+00 -1.774485e+00 -1.930336e+00 -1.934699e+00 -2.077652e+00 -2.106628e+00 -2.215550e+00 -2.249281e+00 -2.301470e+00 -2.304894e+00 -2.226264e+00 -2.283824e+00 -2.250313e+00 -2.133036e+00 -2.020421e+00 -1.988802e+00 -1.973968e+00 -2.025918e+00 -1.889564e+00 -1.896674e+00 -1.859457e+00 -1.971595e+00 -2.020066e+00 -2.041287e+00 -2.106570e+00 -2.221740e+00 -2.295931e+00 -2.404912e+00 -2.489172e+00 -2.588665e+00 -2.679614e+00 -2.764522e+00 -2.855398e+00 -2.914835e+00 -2.996882e+00 -3.018773e+00 -3.084651e+00 -3.059246e+00 -3.103432e+00 -3.028894e+00 -3.056786e+00 -2.948990e+00 -2.978121e+00 -2.859637e+00 -2.904021e+00 -2.795130e+00 -2.867292e+00 -2.791248e+00 -2.898645e+00 -2.867834e+00 -2.995296e+00 -3.004235e+00 -3.120112e+00 -3.160740e+00 -3.230821e+00 -3.297985e+00 -3.286887e+00 -3.378915e+00 -3.259749e+00 -3.388690e+00 -3.154058e+00 -3.342484e+00 -2.996941e+00 -3.262767e+00 -2.817087e+00 -3.170808e+00 -2.646885e+00 -3.094337e+00 -2.514244e+00 -3.058023e+00 -2.404350e+00 -3.124781e+00 -1.823126e+00 -4.303034e+00 -6.907238e+00 -5.018695e-01 0 0 0 0 
0 0 0 0 0 -1.127052e+00 -2.573894e+00 -6.377990e-01 -7.843411e-01 -8.674841e-01 -8.438900e-01 -8.685112e-01 6.734834e-01 4.374384e+00 5.971044e+00 4.664623e+00 5.239135e+00 5.179795e+00 4.681707e+00 5.831268e+00 4.849844e+00 2.387519e-01 -6.812624e-01 -7.795258e-01 -7.074997e-01 -7.790787e-01 -7.227774e-01 -7.758808e-01 -7.403523e-01 -7.741620e-01 -7.579108e-01 -7.712249e-01 -7.705320e-01 -7.629589e-01 -7.726385e-01 -7.433200e-01 -7.570043e-01 -7.068077e-01 -7.214936e-01 -6.572213e-01 -6.749748e-01 -6.066557e-01 -6.301199e-01 -5.670368e-01 -5.989915e-01 -5.502196e-01 -5.931917e-01 -5.638839e-01 -6.152000e-01 -6.034779e-01 -6.564798e-01 -6.579615e-01 -7.065759e-01 -7.164279e-01 -7.534681e-01 -7.649373e-01 -7.826833e-01 -7.838452e-01 -7.571004e-01 -7.766716e-01 -7.652718e-01 -7.253871e-01 -6.870862e-01 -6.763311e-01 -6.712821e-01 -6.889454e-01 -6.425728e-01 -6.449886e-01 -6.323300e-01 -6.704627e-01 -6.869435e-01 -6.941586e-01 -7.163561e-01 -7.555188e-01 -7.807452e-01 -8.178025e-01 -8.464526e-01 -8.802826e-01 -9.112067e-01 -9.400770e-01 -9.709763e-01 -9.911831e-01 -1.019078e+00 -1.026515e+00 -1.048912e+00 -1.040267e+00 -1.055289e+00 -1.029937e+00 -1.039419e+00 -1.002761e+00 -1.012667e+00 -9.723768e-01 -9.874715e-01 -9.504455e-01 -9.749861e-01 -9.491309e-01 -9.856518e-01 -9.751771e-01 -1.018519e+00 -1.021558e+00 -1.060955e+00 -1.074766e+00 -1.098585e+00 -1.121414e+00 -1.117624e+00 -1.148905e+00 -1.108367e+00 -1.152204e+00 -1.072416e+00 -1.136491e+00 -1.019010e+00 -1.109422e+00 -9.579237e-01 -1.078248e+00 -9.001808e-01 -1.052405e+00 -8.552847e-01 -1.040319e+00 -8.183114e-01 -1.063704e+00 -6.218484e-01 -1.464547e+00 -2.348808e+00 -1.706442e-01 0 0 0 0 
0 0 0 0 0 0 0 0 0 0 0 0 0 0 0 0 0 0 0 0 0 0 0 0 0 0 0 0 0 0 0 0 0 0 0 0 0 0 0 0 0 0 0 0 0 0 0 0 0 0 0 0 0 0 0 0 0 0 0 0 0 0 0 0 0 0 0 0 0 0 0 0 0 0 0 0 0 0 0 0 0 0 0 0 0 0 0 0 0 0 0 0 0 0 0 0 0 0 0 0 0 0 0 0 0 0 0 0 0 0 0 0 0 0 0 0 0 0 0 0 0 0 0 0 0 0 0 0 
