# vtk DataFile Version 2.0
Comment goes here
ASCII

DATASET STRUCTURED_POINTS
FIELD FieldData 1
TIME 1 1 double
0.09000000
DIMENSIONS    128   16   1

ORIGIN    0.000   0.000   0.000
SPACING   0.0078125 0.015625   1.000

POINT_DATA   2048
SCALARS fX double
LOOKUP_TABLE default

0 0 0 0 0 0 0 0 0 0 0 0 0 0 0 0 0 0 0 0 0 0 0 0 0 0 0 0 0 0 0 0 0 0 0 0 0 0 0 0 0 0 0 0 0 0 0 0 0 0 0 0 0 0 0 0 0 0 0 0 0 0 0 0 0 0 0 0 0 0 0 0 0 0 0 0 0 0 0 0 0 0 0 0 0 0 0 0 0 0 0 0 0 0 0 0 0 0 0 0 0 0 0 0 0 0 0 0 0 0 0 0 0 0 0 0 0 0 0 0 0 0 0 0 0 0 0 0 
0 0 0 0 0 0 0 0 0 0 0 0 0 0 0 0 0 0 0 0 0 0 0 0 0 0 0 0 0 0 0 0 0 0 0 0 0 0 0 0 0 0 0 0 0 0 0 0 0 0 0 0 0 0 0 0 0 0 0 0 0 0 0 0 0 0 0 0 0 0 0 0 0 0 0 0 0 0 0 0 0 0 0 0 0 0 0 0 0 0 0 0 0 0 0 0 0 0 0 0 0 0 0 0 0 0 0 0 0 0 0 0 0 0 0 0 0 0 0 0 0 0 0 0 0 0 0 0 
0 0 0 0 0 6.021895e-01 -3.870554e+00 -4.411649e+00 -2.536625e+00 -3.788240e+00 -4.258091e+00 -3.695488e+00 -2.906287e-01 3.213467e+00 4.750897e+00 4.555413e+00 4.507851e+00 2.091630e+00 1.660941e+00 2.246539e+00 3.064842e+00 5.246847e+00 8.860567e+00 1.052622e+01 9.117803e+00 4.991120e+00 -1.269581e+00 -2.449256e+00 1.982888e+00 6.988823e+00 1.059343e+01 7.840184e+00 -5.716672e-01 -7.763880e+00 -1.205395e+01 -8.484327e+00 2.032064e+00 1.073221e+01 1.165469e+01 4.709940e+00 -5.604400e+00 -1.220643e+01 -9.843860e+00 7.139991e-01 1.060234e+01 1.159398e+01 2.198810e+00 -1.062179e+01 -1.431323e+01 -4.234906e+00 1.129146e+01 1.926334e+01 1.204327e+01 -4.464800e+00 -1.428627e+01 -8.449286e+00 6.819492e+00 1.801731e+01 1.305154e+01 -5.951399e-01 -1.013399e+01 -8.590658e+00 9.016443e+00 1.571922e+01 1.103174e+00 -1.419030e+01 -1.192894e+01 1.094971e+01 1.825900e+01 -2.358075e+00 -2.338614e+01 -2.210628e+01 6.905183e+00 3.221639e+01 2.336404e+01 -8.635247e+00 -2.817009e+01 -1.350608e+01 1.721949e+01 2.685988e+01 2.617559e+00 -2.882539e+01 -3.240363e+01 -5.302607e+00 1.930827e+01 1.338734e+01 -1.382898e+01 -2.889421e+01 -1.455364e+01 8.682970e+00 1.287762e+01 -2.861074e+00 -1.653092e+01 -1.245678e+01 -9.400700e-01 1.590174e+00 -3.162932e+00 -1.711448e+00 4.617072e+00 3.823444e+00 -5.459004e+00 -1.212455e+01 -5.228691e+00 6.334560e+00 5.554872e+00 -2.995851e+00 -7.930207e+00 -6.113510e+00 -3.304542e+00 -2.750972e+00 1.538996e-01 3.090166e+00 -5.677833e-01 -4.673246e+00 -3.840007e+00 -3.374892e+00 -2.189341e+00 2.432398e+00 3.963631e+00 -1.892600e+00 -5.515747e+00 -4.373488e+00 -1.536925e+00 1.656873e-01 0 0 0 0 
0 0 0 0 0 1.771498e+00 -1.138202e+01 -1.297281e+01 -7.460515e+00 -1.114374e+01 -1.252645e+01 -1.087149e+01 -8.561412e-01 9.449612e+00 1.397156e+01 1.339663e+01 1.325666e+01 6.151230e+00 4.884427e+00 6.606199e+00 9.011672e+00 1.542738e+01 2.605301e+01 3.095071e+01 2.680998e+01 1.467611e+01 -3.733228e+00 -7.202049e+00 5.830492e+00 2.055003e+01 3.114926e+01 2.305360e+01 -1.680959e+00 -2.282888e+01 -3.544354e+01 -2.494754e+01 5.974971e+00 3.155692e+01 3.426978e+01 1.384953e+01 -1.647992e+01 -3.589406e+01 -2.894653e+01 2.099500e+00 3.117490e+01 3.409068e+01 6.464872e+00 -3.123533e+01 -4.209075e+01 -1.245458e+01 3.320139e+01 5.664606e+01 3.541681e+01 -1.312974e+01 -4.201148e+01 -2.484581e+01 2.000106e+01 5.279264e+01 3.884534e+01 2.222304e+00 -2.369490e+01 -2.236133e+01 2.669273e+01 4.673702e+01 6.847297e+00 -3.626612e+01 -3.246765e+01 3.238811e+01 5.410380e+01 -3.456486e+00 -6.392114e+01 -6.309925e+01 2.036937e+01 9.474093e+01 6.870732e+01 -2.539245e+01 -8.283955e+01 -3.971795e+01 5.063992e+01 7.898848e+01 7.695956e+00 -8.477287e+01 -9.529896e+01 -1.559507e+01 5.678725e+01 3.937340e+01 -4.066826e+01 -8.497460e+01 -4.280125e+01 2.553661e+01 3.787346e+01 -8.413092e+00 -4.861646e+01 -3.663543e+01 -2.764527e+00 4.677156e+00 -9.301903e+00 -5.033289e+00 1.357848e+01 1.124452e+01 -1.605496e+01 -3.565923e+01 -1.537876e+01 1.862994e+01 1.633748e+01 -8.811048e+00 -2.332395e+01 -1.798065e+01 -9.718364e+00 -8.090158e+00 4.527685e-01 9.088598e+00 -1.670601e+00 -1.374580e+01 -1.129451e+01 -9.926268e+00 -6.439689e+00 7.153623e+00 1.165978e+01 -5.560080e+00 -1.620314e+01 -1.283821e+01 -4.510594e+00 4.875173e-01 0 0 0 0 
0 0 0 0 0 1.223847e+00 -7.861270e+00 -8.959795e+00 -5.153337e+00 -7.698519e+00 -8.654027e+00 -7.510737e+00 -5.920409e-01 3.753196e+01 4.715114e+01 4.739944e+01 5.003480e+01 3.746471e+01 3.711170e+01 4.757001e+01 3.345546e+01 1.065438e+01 1.799270e+01 2.137520e+01 1.851577e+01 1.013587e+01 -2.578353e+00 -4.974074e+00 4.026715e+00 1.419250e+01 2.151278e+01 1.592165e+01 -1.160934e+00 -1.576629e+01 -2.447842e+01 -1.722962e+01 4.126440e+00 2.179412e+01 2.366789e+01 9.565106e+00 -1.138189e+01 -2.479061e+01 -1.999213e+01 1.450005e+00 2.153022e+01 2.354392e+01 4.464586e+00 -2.157352e+01 -2.907112e+01 -8.602600e+00 2.292986e+01 3.912346e+01 2.446221e+01 -9.068490e+00 -2.901638e+01 -1.716000e+01 1.378316e+01 3.637353e+01 2.711699e+01 3.873351e+00 -1.266759e+01 -1.363031e+01 1.861258e+01 3.262986e+01 6.783621e+00 -2.177131e+01 -2.068829e+01 2.268764e+01 3.768368e+01 -5.887065e-01 -4.143042e+01 -4.239335e+01 1.410859e+01 6.543666e+01 4.745506e+01 -1.753745e+01 -5.721544e+01 -2.743266e+01 3.497719e+01 5.455649e+01 5.314710e+00 -5.855379e+01 -6.582566e+01 -1.077201e+01 3.922538e+01 2.719694e+01 -2.808939e+01 -5.869281e+01 -2.956356e+01 1.763886e+01 2.616047e+01 -5.810521e+00 -3.358031e+01 -2.530516e+01 -1.909431e+00 3.230866e+00 -6.424955e+00 -3.476599e+00 9.378883e+00 7.766802e+00 -1.108963e+01 -2.463130e+01 -1.062312e+01 1.286823e+01 1.128505e+01 -6.086165e+00 -1.611111e+01 -1.242014e+01 -6.712611e+00 -5.587886e+00 3.128127e-01 6.277959e+00 -1.154296e+00 -9.495478e+00 -7.801948e+00 -6.856703e+00 -4.448483e+00 4.941184e+00 8.055068e+00 -3.837572e+00 -1.118293e+01 -8.855989e+00 -3.110992e+00 3.368541e-01 0 0 0 0 
0 0 0 0 0 5.453824e-02 -3.498018e-01 -3.986344e-01 -2.294475e-01 -3.430241e-01 -3.856690e-01 -3.347314e-01 -2.652836e-02 4.630021e+01 4.993101e+01 4.719934e+01 4.794899e+01 4.748412e+01 4.534454e+01 5.095297e+01 4.631485e+01 4.738566e-01 8.002511e-01 9.507077e-01 8.235900e-01 4.508763e-01 -1.147053e-01 -2.212811e-01 1.791114e-01 6.313013e-01 9.569427e-01 7.082427e-01 -5.164244e-02 -7.012888e-01 -1.088825e+00 -7.664103e-01 1.835328e-01 9.694051e-01 1.052799e+00 4.255132e-01 -5.063641e-01 -1.102979e+00 -8.894625e-01 6.450398e-02 9.576500e-01 1.047216e+00 1.985245e-01 -9.599745e-01 -1.293606e+00 -3.829263e-01 1.019930e+00 1.740742e+00 1.088679e+00 -4.035487e-01 -1.291172e+00 -7.634737e-01 6.107734e-01 1.643543e+00 1.386041e+00 1.118512e+00 9.203751e-01 1.271876e-01 9.358773e-01 1.624606e+00 1.053839e+00 3.162028e-01 -1.341813e-01 1.266008e+00 1.830886e+00 4.569058e-01 -9.310056e-01 -1.398344e+00 6.446009e-01 2.912116e+00 2.111775e+00 -7.802440e-01 -2.545982e+00 -1.220795e+00 1.556756e+00 2.427894e+00 2.363131e-01 -2.606310e+00 -2.930337e+00 -4.795487e-01 1.746393e+00 1.210875e+00 -1.250111e+00 -2.612418e+00 -1.315954e+00 7.852256e-01 1.164628e+00 -2.585029e-01 -1.494771e+00 -1.126511e+00 -8.497492e-02 1.438838e-01 -2.859843e-01 -1.547576e-01 4.174776e-01 3.457254e-01 -4.936790e-01 -1.096621e+00 -4.730527e-01 5.728526e-01 5.024487e-01 -2.709678e-01 -7.173648e-01 -5.530057e-01 -2.987884e-01 -2.486997e-01 1.394385e-02 2.795267e-01 -5.147796e-02 -4.229278e-01 -3.474472e-01 -3.053265e-01 -1.981353e-01 2.199589e-01 3.589232e-01 -1.700915e-01 -4.955325e-01 -3.912635e-01 -1.373232e-01 1.502412e-02 0 0 0 0 
0 0 0 0 0 0 0 0 0 0 0 0 0 4.908034e+01 5.281347e+01 5.062665e+01 5.165179e+01 5.177180e+01 4.984481e+01 5.541913e+01 4.997842e+01 0 0 0 0 0 0 0 0 0 0 0 0 0 0 0 0 0 0 0 0 0 0 0 0 0 0 0 0 0 0 0 0 0 0 0 9.185955e-03 4.534107e-02 6.283979e-02 6.260452e-02 2.704899e-02 -1.318194e-02 -4.141544e-04 1.254592e-02 1.434121e-02 1.169517e-02 1.539601e-02 1.676507e-02 -7.991178e-03 -5.279813e-02 -3.558295e-02 2.046018e-03 1.940195e-04 0 0 0 0 0 0 0 0 0 0 0 0 0 0 0 0 0 0 0 0 0 0 0 0 0 0 0 0 0 0 0 0 0 0 0 0 0 0 0 0 0 0 0 0 0 0 0 0 0 0 0 0 0 0 0 
0 0 0 0 0 0 0 0 0 0 0 0 0 4.998938e+01 5.159666e+01 5.018604e+01 5.070118e+01 5.086245e+01 5.017203e+01 5.212549e+01 5.055130e+01 0 0 0 0 0 0 0 0 0 0 0 0 0 0 0 0 0 0 0 0 0 0 0 0 0 0 0 0 0 0 0 0 0 0 0 0 0 0 0 0 0 0 0 0 0 0 0 0 0 0 0 0 0 0 0 0 0 0 0 0 0 0 0 0 0 0 0 0 0 0 0 0 0 0 0 0 0 0 0 0 0 0 0 0 0 0 0 0 0 0 0 0 0 0 0 0 0 0 0 0 0 0 0 0 0 0 0 
0 0 0 0 0 0 0 0 0 0 0 0 0 5.201454e+01 5.388406e+01 5.249047e+01 5.295281e+01 5.349700e+01 5.210830e+01 5.488040e+01 5.194490e+01 0 0 0 0 0 0 0 0 0 0 0 0 0 0 0 0 0 0 0 0 0 0 0 0 0 0 0 0 0 0 0 0 0 0 0 0 0 0 0 0 0 0 0 0 0 0 0 0 0 0 0 0 0 0 0 0 0 0 0 0 0 0 0 0 0 0 0 0 0 0 0 0 0 0 0 0 0 0 0 0 0 0 0 0 0 0 0 0 0 0 0 0 0 0 0 0 0 0 0 0 0 0 0 0 0 0 0 
0 0 0 0 0 0 0 0 0 0 0 0 0 4.954843e+01 5.125897e+01 4.975956e+01 5.050304e+01 5.041134e+01 4.987138e+01 5.124966e+01 4.960403e+01 0 0 0 0 0 0 0 0 0 0 0 0 0 0 0 0 0 0 0 0 0 0 0 0 0 0 0 0 0 0 0 0 0 0 0 0 0 0 0 0 0 0 0 0 0 0 0 0 0 0 0 0 0 0 0 0 0 0 0 0 0 0 0 0 0 0 0 0 0 0 0 0 0 0 0 0 0 0 0 0 0 0 0 0 0 0 0 0 0 0 0 0 0 0 0 0 0 0 0 0 0 0 0 0 0 0 0 
0 0 0 0 0 0 0 0 0 0 0 0 0 4.975555e+01 5.316881e+01 5.074726e+01 5.242245e+01 5.223041e+01 5.016234e+01 5.297690e+01 4.680441e+01 0 0 0 0 0 0 0 0 0 0 0 0 0 0 0 0 0 0 0 0 0 0 0 0 0 0 0 0 0 0 0 0 0 0 0 0 0 0 0 0 0 0 0 0 0 0 0 0 0 0 0 0 0 0 0 0 0 0 0 0 0 0 0 0 0 0 0 0 0 0 0 0 0 0 0 0 0 0 0 0 0 0 0 0 0 0 0 0 0 0 0 0 0 0 0 0 0 0 0 0 0 0 0 0 0 0 0 
0 0 0 0 0 8.515931e-02 -1.193617e-01 -9.884924e-03 1.454416e-01 1.397949e-01 1.600124e-01 2.427692e-02 8.026217e-02 4.462951e+01 4.814389e+01 4.607068e+01 4.828745e+01 4.767387e+01 4.655425e+01 4.728860e+01 4.205739e+01 -1.569040e-01 -5.069847e-01 -5.848326e-01 -3.887353e-01 1.266881e-02 3.581504e-01 4.262098e-01 1.191230e-01 -2.915127e-01 -5.131395e-01 -3.781407e-01 5.297498e-02 4.929445e-01 6.069053e-01 3.533928e-01 -1.572145e-01 -5.625692e-01 -6.079814e-01 -2.855944e-01 1.414187e-01 2.810143e-01 -7.653053e-02 -6.827960e-01 -1.069801e+00 -9.316407e-01 -3.921988e-01 4.780194e-02 1.007764e-02 -4.036449e-01 -7.078645e-01 -4.658964e-01 2.827031e-01 1.024770e+00 1.211557e+00 7.055723e-01 -5.202266e-02 -4.324404e-01 -1.235143e-01 6.232001e-01 1.147908e+00 9.361559e-01 1.945732e-01 -3.887866e-01 -3.260243e-01 1.618608e-01 3.953242e-01 -1.572020e-02 -7.258320e-01 -9.739130e-01 -4.294613e-01 3.955085e-01 6.812259e-01 1.762845e-01 -5.284529e-01 -6.547743e-01 -1.009044e-01 4.805242e-01 4.383798e-01 -9.483284e-02 -3.952111e-01 -2.916545e-02 5.885951e-01 6.770904e-01 4.505020e-02 -6.602586e-01 -6.951727e-01 -1.734632e-01 1.269303e-01 -2.520758e-01 -9.089684e-01 -1.077793e+00 -6.424429e-01 -1.484132e-01 -1.174148e-01 -4.423558e-01 -6.782723e-01 -6.415214e-01 -4.815014e-01 -3.228200e-01 -9.098387e-02 2.643671e-01 4.699483e-01 4.350712e-01 2.934577e-01 3.097959e-01 4.322302e-01 4.461997e-01 2.861548e-01 1.189926e-01 3.378989e-02 1.882603e-02 7.207163e-03 -7.466005e-03 -2.282062e-02 -1.541688e-01 -3.473305e-01 -4.950622e-01 -5.205424e-01 -5.504636e-01 -4.508072e-01 -3.500897e-01 -1.602495e-01 1.071198e-02 0 0 0 0 
0 0 0 0 0 1.911248e+00 -2.688704e+00 -2.329066e-01 3.264468e+00 3.144312e+00 3.598952e+00 5.501123e-01 1.806604e+00 4.109860e+01 5.019049e+01 4.395980e+01 5.403410e+01 4.958334e+01 4.793585e+01 4.642189e+01 2.286506e+01 -3.525197e+00 -1.139409e+01 -1.314469e+01 -8.737870e+00 2.853164e-01 8.052551e+00 9.582465e+00 2.678314e+00 -6.553128e+00 -1.153651e+01 -8.502971e+00 1.188696e+00 1.107873e+01 1.363903e+01 7.941019e+00 -3.535585e+00 -1.264840e+01 -1.366951e+01 -6.421214e+00 3.178382e+00 6.316223e+00 -1.721613e+00 -1.534896e+01 -2.404490e+01 -2.093645e+01 -8.812304e+00 1.074677e+00 2.260478e-01 -9.071355e+00 -1.590571e+01 -1.046739e+01 6.353069e+00 2.302732e+01 2.722571e+01 1.585623e+01 -1.168278e+00 -9.717163e+00 -2.774462e+00 1.400908e+01 2.580208e+01 2.104133e+01 4.373144e+00 -8.739121e+00 -7.328793e+00 3.636780e+00 8.883191e+00 -3.526153e-01 -1.630786e+01 -2.188391e+01 -9.651116e+00 8.886181e+00 1.530537e+01 3.960976e+00 -1.187090e+01 -1.470942e+01 -2.266069e+00 1.079697e+01 9.849012e+00 -2.130256e+00 -8.878118e+00 -6.541332e-01 1.322624e+01 1.521515e+01 1.014206e+00 -1.483371e+01 -1.561947e+01 -3.897033e+00 2.853257e+00 -5.662493e+00 -2.042083e+01 -2.421525e+01 -1.443567e+01 -3.335068e+00 -2.637787e+00 -9.937466e+00 -1.523598e+01 -1.440948e+01 -1.081577e+01 -7.251590e+00 -2.043964e+00 5.936388e+00 1.055513e+01 9.773134e+00 6.591210e+00 6.956702e+00 9.707156e+00 1.002155e+01 6.426116e+00 2.671536e+00 7.579668e-01 4.220205e-01 1.610580e-01 -1.680470e-01 -5.126169e-01 -3.462554e+00 -7.799932e+00 -1.111897e+01 -1.169658e+01 -1.238393e+01 -1.018687e+01 -7.934577e+00 -3.625403e+00 2.403002e-01 0 0 0 0 
0 0 0 0 0 2.766567e+00 -3.894448e+00 -3.399455e-01 4.725451e+00 4.553193e+00 5.211520e+00 7.976338e-01 2.616429e+00 8.481962e+00 1.133965e+01 9.121891e+00 1.182779e+01 1.044304e+01 1.239588e+01 1.448481e+01 8.839827e+00 -5.103744e+00 -1.649716e+01 -1.903205e+01 -1.265163e+01 4.132517e-01 1.165990e+01 1.387510e+01 3.878131e+00 -9.488477e+00 -1.670439e+01 -1.231234e+01 1.720600e+00 1.604059e+01 1.974734e+01 1.149725e+01 -5.119649e+00 -1.831452e+01 -1.979307e+01 -9.297761e+00 4.601906e+00 9.145226e+00 -2.493089e+00 -2.222420e+01 -3.481436e+01 -3.031287e+01 -1.275854e+01 1.556084e+00 3.271761e-01 -1.313407e+01 -2.302863e+01 -1.515458e+01 9.198292e+00 3.333963e+01 3.941847e+01 2.295749e+01 -1.691287e+00 -1.406877e+01 -4.016696e+00 2.028410e+01 3.735897e+01 3.046558e+01 6.331805e+00 -1.265347e+01 -1.061155e+01 5.265348e+00 1.286134e+01 -5.103671e-01 -2.361046e+01 -3.168400e+01 -1.397337e+01 1.286537e+01 2.215899e+01 5.734749e+00 -1.718607e+01 -2.129575e+01 -3.280545e+00 1.563197e+01 1.425926e+01 -3.084068e+00 -1.285335e+01 -9.467596e-01 1.914937e+01 2.202906e+01 1.468878e+00 -2.147597e+01 -2.261393e+01 -5.642033e+00 4.131294e+00 -8.197858e+00 -2.956478e+01 -3.505864e+01 -2.090026e+01 -4.828639e+00 -3.818910e+00 -1.438710e+01 -2.205776e+01 -2.086094e+01 -1.565839e+01 -1.049845e+01 -2.959182e+00 8.593827e+00 1.528077e+01 1.414901e+01 9.542186e+00 1.007094e+01 1.405294e+01 1.450825e+01 9.302906e+00 3.867341e+00 1.097072e+00 6.107563e-01 2.329582e-01 -2.433745e-01 -7.421363e-01 -5.012748e+00 -1.129174e+01 -1.609698e+01 -1.693456e+01 -1.793352e+01 -1.476330e+01 -1.150513e+01 -5.255183e+00 3.478107e-01 0 0 0 0 
0 0 0 0 0 9.404776e-01 -1.325106e+00 -1.169239e-01 1.606425e+00 1.548676e+00 1.772580e+00 2.717984e-01 8.900874e-01 2.884450e+00 3.855942e+00 3.101797e+00 4.021867e+00 3.551032e+00 4.215331e+00 4.925869e+00 3.006364e+00 -1.735451e+00 -5.610046e+00 -6.472191e+00 -4.302496e+00 1.406041e-01 3.965499e+00 4.718844e+00 1.318940e+00 -3.226862e+00 -5.681020e+00 -4.187511e+00 5.848788e-01 5.454808e+00 6.715221e+00 3.909620e+00 -1.741279e+00 -6.228688e+00 -6.731547e+00 -3.162142e+00 1.564943e+00 3.110017e+00 -8.480060e-01 -7.558042e+00 -1.183926e+01 -1.030806e+01 -4.338432e+00 5.292089e-01 1.112059e-01 -4.466358e+00 -7.830779e+00 -5.153083e+00 3.127926e+00 1.133708e+01 1.340432e+01 7.806836e+00 -5.750319e-01 -4.784048e+00 -1.365747e+00 6.898224e+00 1.270480e+01 1.036041e+01 2.153234e+00 -4.303132e+00 -3.608781e+00 1.790429e+00 4.373469e+00 -1.734720e-01 -8.028434e+00 -1.077401e+01 -4.751719e+00 4.374700e+00 7.534844e+00 1.950058e+00 -5.843619e+00 -7.241110e+00 -1.115380e+00 5.315528e+00 4.848624e+00 -1.048645e+00 -4.370442e+00 -3.217918e-01 6.511716e+00 7.490994e+00 4.997222e-01 -7.302522e+00 -7.689633e+00 -1.918463e+00 1.404967e+00 -2.787441e+00 -1.005291e+01 -1.192119e+01 -7.107033e+00 -1.641984e+00 -1.298538e+00 -4.891986e+00 -7.500049e+00 -7.092990e+00 -5.324123e+00 -3.569683e+00 -1.006201e+00 2.921806e+00 5.195588e+00 4.810947e+00 3.244434e+00 3.424034e+00 4.778016e+00 4.932901e+00 3.162945e+00 1.314797e+00 3.728955e-01 2.075618e-01 7.910727e-02 -8.279352e-02 -2.523400e-01 -1.704363e+00 -3.839141e+00 -5.473080e+00 -5.758518e+00 -6.100058e+00 -5.027235e+00 -3.920644e+00 -1.790029e+00 1.182225e-01 0 0 0 0 
0 0 0 0 0 0 0 0 0 0 0 0 0 0 0 0 0 0 0 0 0 0 0 0 0 0 0 0 0 0 0 0 0 0 0 0 0 0 0 0 0 0 0 0 0 0 0 0 0 0 0 0 0 0 0 0 0 0 0 0 0 0 0 0 0 0 0 0 0 0 0 0 0 0 0 0 0 0 0 0 0 0 0 0 0 0 0 0 0 0 0 0 0 0 0 0 0 0 0 0 0 0 0 0 0 0 0 0 0 0 0 0 0 0 0 0 0 0 0 0 0 0 0 0 0 0 0 0 
