# vtk DataFile Version 2.0
Comment goes here
ASCII

DATASET STRUCTURED_POINTS
FIELD FieldData 1
TIME 1 1 double
0.94000000
DIMENSIONS    128   16   1

ORIGIN    0.000   0.000   0.000
SPACING   0.0078125 0.015625   1.000

POINT_DATA   2048
SCALARS fY double
LOOKUP_TABLE default

0 0 0 0 0 0 0 0 0 0 0 0 0 0 0 0 0 0 0 0 0 0 0 0 0 0 0 0 0 0 0 0 0 0 0 0 0 0 0 0 0 0 0 0 0 0 0 0 0 0 0 0 0 0 0 0 0 0 0 0 0 0 0 0 0 0 0 0 0 0 0 0 0 0 0 0 0 0 0 0 0 0 0 0 0 0 0 0 0 0 0 0 0 0 0 0 0 0 0 0 0 0 0 0 0 0 0 0 0 0 0 0 0 0 0 0 0 0 0 0 0 0 0 0 0 0 0 0 
0 0 0 0 0 0 0 0 0 0 0 0 0 0 0 0 0 0 0 0 0 0 0 0 0 0 0 0 0 0 0 0 0 0 0 0 0 0 0 0 0 0 0 0 0 0 0 0 0 0 0 0 0 0 0 0 0 0 0 0 0 0 0 0 0 0 0 0 0 0 0 0 0 0 0 0 0 0 0 0 0 0 0 0 0 0 0 0 0 0 0 0 0 0 0 0 0 0 0 0 0 0 0 0 0 0 0 0 0 0 0 0 0 0 0 0 0 0 0 0 0 0 0 0 0 0 0 0 
0 0 0 0 0 4.825563e-01 1.476894e+00 1.111240e+00 1.923906e+00 1.547147e+00 2.370916e+00 1.924624e+00 2.760729e+00 1.586910e+00 -3.133917e+00 -5.792741e+00 -9.821351e+00 -1.355410e+01 -1.704102e+01 -2.066529e+01 -2.505961e+01 -2.586798e+01 -2.536167e+01 -2.543934e+01 -2.499476e+01 -2.494146e+01 -2.461643e+01 -2.447414e+01 -2.421726e+01 -2.396030e+01 -2.375484e+01 -2.344287e+01 -2.329079e+01 -2.293386e+01 -2.279643e+01 -2.242609e+01 -2.230832e+01 -2.195585e+01 -2.183424e+01 -2.150480e+01 -2.135813e+01 -2.104435e+01 -2.084903e+01 -2.056302e+01 -2.035107e+01 -2.011051e+01 -1.985588e+01 -1.960655e+01 -1.930729e+01 -1.908939e+01 -1.880442e+01 -1.860355e+01 -1.829646e+01 -1.806840e+01 -1.775784e+01 -1.749960e+01 -1.690644e+01 -1.574721e+01 -1.558643e+01 -1.422536e+01 -1.450037e+01 -1.440985e+01 -1.333018e+01 -1.512493e+01 -1.394591e+01 -1.455303e+01 -1.474074e+01 -1.350698e+01 -1.512311e+01 -1.386416e+01 -1.463161e+01 -1.562665e+01 -1.393663e+01 -1.360578e+01 -1.329195e+01 -1.308563e+01 -1.273457e+01 -1.255334e+01 -1.220449e+01 -1.205099e+01 -1.168872e+01 -1.153235e+01 -1.117166e+01 -1.100657e+01 -1.066043e+01 -1.047087e+01 -1.016395e+01 -9.940592e+00 -9.670908e+00 -9.386482e+00 -9.179534e+00 -8.866268e+00 -8.737684e+00 -8.354822e+00 -8.252762e+00 -7.809431e+00 -7.772435e+00 -7.316886e+00 -7.304420e+00 -6.815588e+00 -6.791568e+00 -6.323250e+00 -6.275769e+00 -5.847220e+00 -5.725994e+00 -5.369701e+00 -5.160222e+00 -4.907609e+00 -4.587598e+00 -4.463357e+00 -4.030916e+00 -4.019564e+00 -3.442609e+00 -3.517054e+00 -2.859081e+00 -3.034525e+00 -2.344584e+00 -2.518630e+00 -1.837089e+00 -1.937997e+00 -1.403106e+00 -1.270964e+00 -1.164448e+00 5.191500e-01 0 0 0 0 
0 0 0 0 0 1.419155e+00 4.343078e+00 3.267298e+00 5.657447e+00 4.548805e+00 6.970633e+00 5.657042e+00 8.115175e+00 4.662460e+00 -9.220711e+00 -1.704106e+01 -2.889156e+01 -3.987353e+01 -5.013275e+01 -6.079773e+01 -7.372910e+01 -7.610778e+01 -7.461767e+01 -7.484629e+01 -7.353793e+01 -7.338112e+01 -7.242459e+01 -7.200585e+01 -7.124991e+01 -7.049368e+01 -6.988901e+01 -6.897086e+01 -6.852329e+01 -6.747286e+01 -6.706839e+01 -6.597852e+01 -6.563193e+01 -6.459464e+01 -6.423679e+01 -6.326733e+01 -6.283572e+01 -6.191236e+01 -6.133759e+01 -6.049597e+01 -5.987226e+01 -5.916439e+01 -5.841511e+01 -5.768142e+01 -5.680080e+01 -5.615961e+01 -5.532103e+01 -5.472996e+01 -5.382631e+01 -5.315524e+01 -5.224140e+01 -5.148154e+01 -5.004982e+01 -4.759298e+01 -4.776220e+01 -4.620328e+01 -4.591546e+01 -4.598620e+01 -4.392915e+01 -4.537734e+01 -4.355411e+01 -4.393319e+01 -4.413546e+01 -4.199138e+01 -4.356916e+01 -4.152683e+01 -4.194779e+01 -4.301714e+01 -4.078466e+01 -4.002462e+01 -3.910125e+01 -3.849422e+01 -3.746134e+01 -3.692814e+01 -3.590176e+01 -3.545016e+01 -3.438435e+01 -3.392432e+01 -3.286317e+01 -3.237749e+01 -3.135918e+01 -3.080152e+01 -2.989862e+01 -2.924150e+01 -2.844813e+01 -2.761134e+01 -2.700252e+01 -2.608088e+01 -2.570257e+01 -2.457620e+01 -2.427593e+01 -2.297171e+01 -2.286289e+01 -2.152280e+01 -2.148620e+01 -2.004830e+01 -1.997777e+01 -1.860030e+01 -1.846078e+01 -1.720033e+01 -1.684386e+01 -1.579592e+01 -1.517974e+01 -1.443667e+01 -1.349521e+01 -1.312962e+01 -1.185734e+01 -1.182376e+01 -1.012640e+01 -1.034523e+01 -8.409731e+00 -8.925890e+00 -6.896878e+00 -7.409962e+00 -5.408479e+00 -5.714935e+00 -4.173899e+00 -3.792919e+00 -3.444177e+00 1.526580e+00 0 0 0 0 
0 0 0 0 0 9.802303e-01 2.999662e+00 2.256400e+00 3.907392e+00 3.141335e+00 4.813734e+00 3.905894e+00 5.603382e+00 7.050418e+00 -9.088584e+00 -8.445129e+00 -2.400626e+01 -2.310502e+01 -3.918405e+01 -3.758028e+01 -5.434079e+01 -5.258439e+01 -5.155462e+01 -5.171263e+01 -5.080849e+01 -5.070014e+01 -5.003915e+01 -4.974979e+01 -4.922741e+01 -4.870481e+01 -4.828696e+01 -4.765246e+01 -4.734316e+01 -4.661725e+01 -4.633774e+01 -4.558458e+01 -4.534507e+01 -4.462828e+01 -4.438099e+01 -4.371108e+01 -4.341283e+01 -4.277478e+01 -4.237761e+01 -4.179606e+01 -4.136507e+01 -4.087594e+01 -4.035818e+01 -3.985120e+01 -3.924269e+01 -3.879963e+01 -3.822017e+01 -3.781175e+01 -3.718734e+01 -3.672364e+01 -3.609220e+01 -3.556715e+01 -3.565743e+01 -3.695176e+01 -3.489082e+01 -3.570097e+01 -3.578483e+01 -3.542546e+01 -3.610474e+01 -3.175129e+01 -3.289647e+01 -3.196297e+01 -3.156592e+01 -3.226896e+01 -2.827956e+01 -2.929502e+01 -2.840643e+01 -2.635476e+01 -2.791811e+01 -2.765100e+01 -2.701301e+01 -2.659361e+01 -2.587997e+01 -2.551157e+01 -2.480243e+01 -2.449042e+01 -2.375405e+01 -2.343622e+01 -2.270309e+01 -2.236754e+01 -2.166401e+01 -2.127874e+01 -2.065495e+01 -2.020096e+01 -1.965284e+01 -1.907471e+01 -1.865408e+01 -1.801732e+01 -1.775595e+01 -1.697775e+01 -1.677029e+01 -1.586925e+01 -1.579407e+01 -1.486828e+01 -1.484302e+01 -1.384971e+01 -1.380105e+01 -1.284952e+01 -1.275321e+01 -1.188254e+01 -1.163633e+01 -1.091246e+01 -1.048679e+01 -9.973468e+00 -9.323017e+00 -9.070403e+00 -8.191381e+00 -8.168086e+00 -6.995412e+00 -7.146509e+00 -5.809411e+00 -6.166023e+00 -4.764577e+00 -5.119568e+00 -3.738506e+00 -3.954879e+00 -2.905989e+00 -2.646544e+00 -2.388462e+00 1.054336e+00 0 0 0 0 
0 0 0 0 0 4.363149e-02 1.334780e-01 1.003420e-01 1.738513e-01 1.396759e-01 2.140176e-01 1.734750e-01 2.489368e-01 3.079214e+00 -3.077589e+00 2.301057e+00 -4.858248e+00 3.110748e+00 -5.728497e+00 2.712638e+00 -4.781065e+00 -2.344591e+00 -2.298621e+00 -2.305678e+00 -2.265324e+00 -2.260491e+00 -2.230993e+00 -2.218079e+00 -2.194767e+00 -2.171439e+00 -2.152789e+00 -2.124465e+00 -2.110657e+00 -2.078254e+00 -2.065776e+00 -2.032160e+00 -2.021470e+00 -1.989481e+00 -1.978445e+00 -1.948552e+00 -1.935244e+00 -1.906775e+00 -1.889054e+00 -1.863107e+00 -1.843877e+00 -1.822054e+00 -1.798952e+00 -1.776334e+00 -1.749183e+00 -1.729417e+00 -1.703564e+00 -1.685343e+00 -1.657486e+00 -1.636801e+00 -1.608632e+00 -1.585211e+00 -2.723008e+00 -5.998967e+00 -3.156092e+00 -4.052717e+00 -4.514875e+00 -3.259258e+00 -5.479385e+00 -1.768215e+00 -3.876194e+00 -2.670789e+00 -1.761146e+00 -3.899020e+00 -1.284718e-01 -2.251596e+00 -1.488389e+00 1.133350e+00 -1.056542e+00 -1.232167e+00 -1.203718e+00 -1.185018e+00 -1.153198e+00 -1.136772e+00 -1.105155e+00 -1.091246e+00 -1.058419e+00 -1.044251e+00 -1.011572e+00 -9.966159e-01 -9.652593e-01 -9.480871e-01 -9.202856e-01 -9.000492e-01 -8.756198e-01 -8.498478e-01 -8.310989e-01 -8.027128e-01 -7.910597e-01 -7.563705e-01 -7.471216e-01 -7.069630e-01 -7.036136e-01 -6.623619e-01 -6.612448e-01 -6.169960e-01 -6.148432e-01 -5.724664e-01 -5.681936e-01 -5.294236e-01 -5.184693e-01 -4.862355e-01 -4.672728e-01 -4.444051e-01 -4.154103e-01 -4.041411e-01 -3.649524e-01 -3.638910e-01 -3.116212e-01 -3.183338e-01 -2.587612e-01 -2.746584e-01 -2.122832e-01 -2.282360e-01 -1.671159e-01 -1.779403e-01 -1.351962e-01 -1.245893e-01 -1.087328e-01 4.690616e-02 0 0 0 0 
0 0 0 0 0 0 0 0 0 0 0 0 0 1.436089e+00 -4.485467e-01 1.483312e+00 -1.216070e+00 1.330249e+00 -1.564999e+00 7.101717e-01 -1.482701e+00 0 0 0 0 0 0 0 0 0 0 0 0 0 0 0 0 0 0 0 0 0 0 0 0 0 0 0 0 0 0 0 0 0 0 0 -2.089562e-01 -8.929692e-01 -4.410409e-01 -3.296640e-01 -1.451329e-01 5.898469e-01 2.637966e-02 -2.693308e-01 -5.879267e-01 -8.797413e-02 4.100455e-01 -1.144692e-01 -2.949537e-01 -6.192513e-01 -3.981395e-01 9.762817e-02 1.354124e-02 0 0 0 0 0 0 0 0 0 0 0 0 0 0 0 0 0 0 0 0 0 0 0 0 0 0 0 0 0 0 0 0 0 0 0 0 0 0 0 0 0 0 0 0 0 0 0 0 0 0 0 0 0 0 0 
0 0 0 0 0 0 0 0 0 0 0 0 0 6.990807e-01 -4.259864e-01 8.784636e-01 -8.686797e-01 9.424361e-01 -9.711313e-01 6.285275e-01 -7.347586e-01 0 0 0 0 0 0 0 0 0 0 0 0 0 0 0 0 0 0 0 0 0 0 0 0 0 0 0 0 0 0 0 0 0 0 0 0 0 0 0 0 0 0 0 0 0 0 0 0 0 0 0 0 0 0 0 0 0 0 0 0 0 0 0 0 0 0 0 0 0 0 0 0 0 0 0 0 0 0 0 0 0 0 0 0 0 0 0 0 0 0 0 0 0 0 0 0 0 0 0 0 0 0 0 0 0 0 0 
0 0 0 0 0 0 0 0 0 0 0 0 0 1.747233e-03 9.363987e-04 1.827225e-03 3.042424e-03 4.510034e-03 7.462416e-03 9.874802e-03 1.395036e-02 0 0 0 0 0 0 0 0 0 0 0 0 0 0 0 0 0 0 0 0 0 0 0 0 0 0 0 0 0 0 0 0 0 0 0 0 0 0 0 0 0 0 0 0 0 0 0 0 0 0 0 0 0 0 0 0 0 0 0 0 0 0 0 0 0 0 0 0 0 0 0 0 0 0 0 0 0 0 0 0 0 0 0 0 0 0 0 0 0 0 0 0 0 0 0 0 0 0 0 0 0 0 0 0 0 0 0 
0 0 0 0 0 0 0 0 0 0 0 0 0 -6.991579e-01 4.249251e-01 -8.807860e-01 8.700845e-01 -9.418907e-01 9.784700e-01 -6.183968e-01 7.536605e-01 0 0 0 0 0 0 0 0 0 0 0 0 0 0 0 0 0 0 0 0 0 0 0 0 0 0 0 0 0 0 0 0 0 0 0 0 0 0 0 0 0 0 0 0 0 0 0 0 0 0 0 0 0 0 0 0 0 0 0 0 0 0 0 0 0 0 0 0 0 0 0 0 0 0 0 0 0 0 0 0 0 0 0 0 0 0 0 0 0 0 0 0 0 0 0 0 0 0 0 0 0 0 0 0 0 0 0 
0 0 0 0 0 0 0 0 0 0 0 0 0 -1.439771e+00 4.423175e-01 -1.490091e+00 1.212899e+00 -1.331957e+00 1.571324e+00 -6.975215e-01 1.507764e+00 0 0 0 0 0 0 0 0 0 0 0 0 0 0 0 0 0 0 0 0 0 0 0 0 0 0 0 0 0 0 0 0 0 0 0 0 0 0 0 0 0 0 0 0 0 0 0 0 0 0 0 0 0 0 0 0 0 0 0 0 0 0 0 0 0 0 0 0 0 0 0 0 0 0 0 0 0 0 0 0 0 0 0 0 0 0 0 0 0 0 0 0 0 0 0 0 0 0 0 0 0 0 0 0 0 0 0 
0 0 0 0 0 -4.364804e-02 -1.336743e-01 -1.011902e-01 -1.755251e-01 -1.416583e-01 -2.155228e-01 -1.742214e-01 -2.492829e-01 -3.099711e+00 3.064602e+00 -2.323901e+00 4.845149e+00 -3.137803e+00 5.710642e+00 -2.726605e+00 4.767272e+00 2.338603e+00 2.292162e+00 2.300577e+00 2.263568e+00 2.258819e+00 2.227656e+00 2.212494e+00 2.190513e+00 2.169803e+00 2.152962e+00 2.124108e+00 2.109178e+00 2.077317e+00 2.065729e+00 2.033305e+00 2.021819e+00 1.989704e+00 1.976844e+00 1.946067e+00 1.930448e+00 1.902531e+00 1.884485e+00 1.858832e+00 1.835970e+00 1.812409e+00 1.788985e+00 1.771250e+00 1.747239e+00 1.729365e+00 1.701826e+00 1.684615e+00 1.658632e+00 1.642119e+00 1.615517e+00 1.596543e+00 1.571893e+00 1.553731e+00 1.533480e+00 1.514196e+00 1.496470e+00 1.473630e+00 1.455586e+00 1.428427e+00 1.409711e+00 1.383108e+00 1.364717e+00 1.338836e+00 1.318336e+00 1.294612e+00 1.275686e+00 1.255228e+00 1.232849e+00 1.210540e+00 1.183059e+00 1.163964e+00 1.136105e+00 1.120449e+00 1.090329e+00 1.076885e+00 1.046959e+00 1.035611e+00 1.005495e+00 9.925721e-01 9.622507e-01 9.455560e-01 9.160385e-01 8.954826e-01 8.719876e-01 8.498640e-01 8.323266e-01 8.028934e-01 7.884813e-01 7.536807e-01 7.463072e-01 7.070039e-01 7.016614e-01 6.564783e-01 6.537720e-01 6.092103e-01 6.078045e-01 5.636452e-01 5.582855e-01 5.184145e-01 5.087799e-01 4.774972e-01 4.608889e-01 4.402042e-01 4.133025e-01 4.016351e-01 3.606758e-01 3.591047e-01 3.089793e-01 3.190487e-01 2.602004e-01 2.750850e-01 2.119118e-01 2.303312e-01 1.716495e-01 1.828798e-01 1.372007e-01 1.245198e-01 1.082080e-01 -4.704675e-02 0 0 0 0 
0 0 0 0 0 -9.806023e-01 -3.004070e+00 -2.275446e+00 -3.944984e+00 -3.185854e+00 -4.847541e+00 -3.922665e+00 -5.611158e+00 -7.099016e+00 9.045689e+00 8.395905e+00 2.395559e+01 2.304163e+01 3.911687e+01 3.750611e+01 5.425661e+01 5.245025e+01 5.140995e+01 5.159840e+01 5.076920e+01 5.066272e+01 4.996442e+01 4.962469e+01 4.913215e+01 4.866819e+01 4.829089e+01 4.764451e+01 4.731006e+01 4.659629e+01 4.633670e+01 4.561026e+01 4.535291e+01 4.463328e+01 4.434511e+01 4.365538e+01 4.330536e+01 4.267968e+01 4.227523e+01 4.170027e+01 4.118789e+01 4.065981e+01 4.013482e+01 3.973732e+01 3.919917e+01 3.879853e+01 3.818127e+01 3.779549e+01 3.721308e+01 3.684291e+01 3.624657e+01 3.582121e+01 3.526859e+01 3.486144e+01 3.440741e+01 3.397508e+01 3.357766e+01 3.306556e+01 3.266101e+01 3.205205e+01 3.163239e+01 3.103587e+01 3.062348e+01 3.004312e+01 2.958342e+01 2.905138e+01 2.862697e+01 2.816815e+01 2.766630e+01 2.716597e+01 2.654968e+01 2.612143e+01 2.549661e+01 2.514545e+01 2.446988e+01 2.416830e+01 2.349701e+01 2.324242e+01 2.256677e+01 2.227683e+01 2.159653e+01 2.122196e+01 2.055966e+01 2.009850e+01 1.957134e+01 1.907505e+01 1.868160e+01 1.802136e+01 1.769807e+01 1.691737e+01 1.675201e+01 1.587016e+01 1.575026e+01 1.473626e+01 1.467535e+01 1.367502e+01 1.364311e+01 1.265157e+01 1.253085e+01 1.163544e+01 1.141885e+01 1.071632e+01 1.034347e+01 9.879125e+00 9.275603e+00 9.014019e+00 8.095261e+00 8.060541e+00 6.936018e+00 7.162507e+00 5.841706e+00 6.175607e+00 4.756251e+00 5.166630e+00 3.840335e+00 4.065732e+00 2.950753e+00 2.644680e+00 2.376540e+00 -1.057499e+00 0 0 0 0 
0 0 0 0 0 -1.419694e+00 -4.349459e+00 -3.294871e+00 -5.711868e+00 -4.613254e+00 -7.019576e+00 -5.681324e+00 -8.126431e+00 -4.673394e+00 9.208407e+00 1.703912e+01 2.887100e+01 3.984986e+01 5.009116e+01 6.073159e+01 7.362901e+01 7.591368e+01 7.440833e+01 7.468100e+01 7.348109e+01 7.332697e+01 7.231645e+01 7.182483e+01 7.111206e+01 7.044069e+01 6.989471e+01 6.895937e+01 6.847540e+01 6.744254e+01 6.706690e+01 6.601567e+01 6.564327e+01 6.460188e+01 6.418486e+01 6.318673e+01 6.268020e+01 6.177473e+01 6.118943e+01 6.035736e+01 5.961586e+01 5.885163e+01 5.809188e+01 5.751662e+01 5.673783e+01 5.615803e+01 5.526474e+01 5.470643e+01 5.386357e+01 5.332785e+01 5.246482e+01 5.184923e+01 5.104946e+01 5.046021e+01 4.980311e+01 4.917742e+01 4.860225e+01 4.786111e+01 4.727562e+01 4.639430e+01 4.578693e+01 4.492359e+01 4.432673e+01 4.348677e+01 4.282145e+01 4.205142e+01 4.143717e+01 4.077311e+01 4.004677e+01 3.932262e+01 3.843065e+01 3.781082e+01 3.690649e+01 3.639824e+01 3.542044e+01 3.498395e+01 3.401232e+01 3.364382e+01 3.266587e+01 3.224620e+01 3.126150e+01 3.071934e+01 2.976069e+01 2.909320e+01 2.833016e+01 2.761182e+01 2.704234e+01 2.608671e+01 2.561879e+01 2.448881e+01 2.424946e+01 2.297304e+01 2.279949e+01 2.133171e+01 2.124350e+01 1.979544e+01 1.974917e+01 1.831377e+01 1.813892e+01 1.684265e+01 1.652904e+01 1.551201e+01 1.497227e+01 1.430009e+01 1.342654e+01 1.304797e+01 1.171817e+01 1.166805e+01 1.004040e+01 1.036838e+01 8.456477e+00 8.939765e+00 6.884828e+00 7.478094e+00 5.555899e+00 5.875395e+00 4.238638e+00 3.790145e+00 3.426883e+00 -1.531161e+00 0 0 0 0 
0 0 0 0 0 -4.827395e-01 -1.479064e+00 -1.120615e+00 -1.942409e+00 -1.569059e+00 -2.387558e+00 -1.932881e+00 -2.764557e+00 -1.590627e+00 3.129734e+00 5.792080e+00 9.814361e+00 1.354605e+01 1.702688e+01 2.064281e+01 2.502560e+01 2.580203e+01 2.529054e+01 2.538318e+01 2.497545e+01 2.492307e+01 2.457969e+01 2.441263e+01 2.417043e+01 2.394230e+01 2.375678e+01 2.343896e+01 2.327452e+01 2.292356e+01 2.279592e+01 2.243872e+01 2.231218e+01 2.195831e+01 2.181660e+01 2.147741e+01 2.130528e+01 2.099758e+01 2.079868e+01 2.051592e+01 2.026394e+01 2.000423e+01 1.974605e+01 1.955056e+01 1.928590e+01 1.908886e+01 1.878530e+01 1.859556e+01 1.830912e+01 1.812706e+01 1.783377e+01 1.762456e+01 1.735276e+01 1.715250e+01 1.692918e+01 1.671654e+01 1.652107e+01 1.626918e+01 1.607020e+01 1.577067e+01 1.556425e+01 1.527082e+01 1.506797e+01 1.478249e+01 1.455637e+01 1.429465e+01 1.408588e+01 1.386018e+01 1.361331e+01 1.336719e+01 1.306402e+01 1.285335e+01 1.254599e+01 1.237324e+01 1.204089e+01 1.189253e+01 1.156227e+01 1.143701e+01 1.110460e+01 1.096194e+01 1.062722e+01 1.044293e+01 1.011707e+01 9.890179e+00 9.630807e+00 9.386641e+00 9.193069e+00 8.868248e+00 8.709201e+00 8.325113e+00 8.243763e+00 7.809882e+00 7.750884e+00 7.251929e+00 7.221922e+00 6.729635e+00 6.713861e+00 6.225848e+00 6.166354e+00 5.725627e+00 5.618973e+00 5.273182e+00 5.089689e+00 4.861173e+00 4.564245e+00 4.435582e+00 3.983589e+00 3.966617e+00 3.413362e+00 3.524917e+00 2.874971e+00 3.039243e+00 2.340489e+00 2.541795e+00 1.887213e+00 1.992543e+00 1.425086e+00 1.269984e+00 1.158551e+00 -5.207082e-01 0 0 0 0 
0 0 0 0 0 0 0 0 0 0 0 0 0 0 0 0 0 0 0 0 0 0 0 0 0 0 0 0 0 0 0 0 0 0 0 0 0 0 0 0 0 0 0 0 0 0 0 0 0 0 0 0 0 0 0 0 0 0 0 0 0 0 0 0 0 0 0 0 0 0 0 0 0 0 0 0 0 0 0 0 0 0 0 0 0 0 0 0 0 0 0 0 0 0 0 0 0 0 0 0 0 0 0 0 0 0 0 0 0 0 0 0 0 0 0 0 0 0 0 0 0 0 0 0 0 0 0 0 
