# vtk DataFile Version 2.0
Comment goes here
ASCII

DATASET STRUCTURED_POINTS
FIELD FieldData 1
TIME 1 1 double
0.22000000
DIMENSIONS    128   16   1

ORIGIN    0.000   0.000   0.000
SPACING   0.0078125 0.015625   1.000

POINT_DATA   2048
SCALARS fY double
LOOKUP_TABLE default

0 0 0 0 0 0 0 0 0 0 0 0 0 0 0 0 0 0 0 0 0 0 0 0 0 0 0 0 0 0 0 0 0 0 0 0 0 0 0 0 0 0 0 0 0 0 0 0 0 0 0 0 0 0 0 0 0 0 0 0 0 0 0 0 0 0 0 0 0 0 0 0 0 0 0 0 0 0 0 0 0 0 0 0 0 0 0 0 0 0 0 0 0 0 0 0 0 0 0 0 0 0 0 0 0 0 0 0 0 0 0 0 0 0 0 0 0 0 0 0 0 0 0 0 0 0 0 0 
0 0 0 0 0 0 0 0 0 0 0 0 0 0 0 0 0 0 0 0 0 0 0 0 0 0 0 0 0 0 0 0 0 0 0 0 0 0 0 0 0 0 0 0 0 0 0 0 0 0 0 0 0 0 0 0 0 0 0 0 0 0 0 0 0 0 0 0 0 0 0 0 0 0 0 0 0 0 0 0 0 0 0 0 0 0 0 0 0 0 0 0 0 0 0 0 0 0 0 0 0 0 0 0 0 0 0 0 0 0 0 0 0 0 0 0 0 0 0 0 0 0 0 0 0 0 0 0 
0 0 0 0 0 -1.030922e+00 -9.283072e-01 -9.716981e-01 -1.702349e+00 -1.482885e+00 -1.992296e+00 -1.265138e+00 -1.846660e+00 -1.264927e+00 1.649168e+00 4.166317e+00 5.743354e+00 8.398094e+00 1.084328e+01 1.180825e+01 1.527191e+01 1.482835e+01 1.422359e+01 1.469310e+01 1.504582e+01 1.549316e+01 1.528078e+01 1.550351e+01 1.517752e+01 1.591237e+01 1.665324e+01 1.735143e+01 1.707724e+01 1.652741e+01 1.521337e+01 1.470267e+01 1.491166e+01 1.527438e+01 1.522756e+01 1.484664e+01 1.403627e+01 1.312775e+01 1.269429e+01 1.233853e+01 1.253483e+01 1.285407e+01 1.302020e+01 1.257081e+01 1.202738e+01 1.094723e+01 1.054177e+01 1.093198e+01 1.170842e+01 1.233668e+01 1.270428e+01 1.202297e+01 1.040251e+01 8.667412e+00 1.151001e+01 1.678774e+01 1.079241e+01 5.677499e+00 8.862905e+00 1.175558e+01 1.513668e+01 9.477452e+00 5.363897e+00 8.911022e+00 1.113315e+01 1.381635e+01 8.046686e+00 4.235421e+00 6.235207e+00 5.472495e+00 5.184582e+00 5.702443e+00 5.946532e+00 6.089389e+00 6.156032e+00 5.857565e+00 6.085195e+00 6.650479e+00 7.297102e+00 7.614143e+00 7.726428e+00 6.868204e+00 6.382028e+00 5.905022e+00 6.068363e+00 6.227799e+00 6.604949e+00 6.219220e+00 5.877071e+00 5.236828e+00 4.741980e+00 4.354132e+00 4.216615e+00 4.379318e+00 4.414999e+00 4.454854e+00 3.815183e+00 3.443520e+00 2.621562e+00 2.602691e+00 2.240406e+00 2.755814e+00 2.433400e+00 2.461400e+00 1.444806e+00 1.030993e+00 4.034233e-01 1.089466e+00 1.997081e+00 3.128550e+00 3.389220e+00 3.065719e+00 2.714535e+00 2.258197e+00 2.690220e+00 2.626412e+00 2.911693e+00 1.573810e+00 1.560966e+00 5.071120e-01 0 0 0 0 
0 0 0 0 0 -3.033115e+00 -2.739012e+00 -2.871051e+00 -5.013494e+00 -4.363044e+00 -5.860464e+00 -3.721495e+00 -5.432093e+00 -3.721128e+00 4.850171e+00 1.225321e+01 1.689116e+01 2.469773e+01 3.188842e+01 3.472569e+01 4.490955e+01 4.360526e+01 4.182716e+01 4.320776e+01 4.424489e+01 4.556036e+01 4.493612e+01 4.559115e+01 4.463283e+01 4.679352e+01 4.897181e+01 5.102455e+01 5.021843e+01 4.860184e+01 4.473826e+01 4.323670e+01 4.385121e+01 4.491763e+01 4.477996e+01 4.365997e+01 4.127722e+01 3.860597e+01 3.733144e+01 3.628542e+01 3.686267e+01 3.780136e+01 3.828983e+01 3.696849e+01 3.537060e+01 3.219443e+01 3.100219e+01 3.214962e+01 3.443270e+01 3.628005e+01 3.736090e+01 3.535753e+01 3.180674e+01 3.059938e+01 3.405434e+01 4.155489e+01 3.923789e+01 3.444973e+01 3.420471e+01 3.307127e+01 3.610483e+01 3.247200e+01 2.917064e+01 3.013105e+01 2.781227e+01 2.979263e+01 2.277974e+01 1.778192e+01 1.866500e+01 1.609492e+01 1.524816e+01 1.677104e+01 1.748887e+01 1.790898e+01 1.810498e+01 1.722729e+01 1.789675e+01 1.955913e+01 2.146075e+01 2.239310e+01 2.272331e+01 2.019950e+01 1.876976e+01 1.736693e+01 1.784725e+01 1.831608e+01 1.942510e+01 1.829063e+01 1.728438e+01 1.540139e+01 1.394610e+01 1.280541e+01 1.240100e+01 1.287957e+01 1.298457e+01 1.310185e+01 1.122074e+01 1.012773e+01 7.710380e+00 7.654898e+00 6.589305e+00 8.105003e+00 7.156543e+00 7.238591e+00 4.248201e+00 3.030842e+00 1.184509e+00 3.201817e+00 5.871202e+00 9.198465e+00 9.965077e+00 9.013877e+00 7.981198e+00 6.639600e+00 7.910821e+00 7.722989e+00 8.556698e+00 4.617774e+00 4.585596e+00 1.491190e+00 0 0 0 0 
0 0 0 0 0 -2.095628e+00 -1.896208e+00 -1.989556e+00 -3.466301e+00 -3.014591e+00 -4.048535e+00 -2.570894e+00 -3.752618e+00 -3.782374e+00 5.118325e+00 5.023859e+00 1.399320e+01 1.403931e+01 2.293383e+01 2.351413e+01 3.207732e+01 3.011701e+01 2.888908e+01 2.984259e+01 3.055886e+01 3.146741e+01 3.103641e+01 3.148885e+01 3.082711e+01 3.231932e+01 3.382363e+01 3.524121e+01 3.468453e+01 3.356813e+01 3.089993e+01 2.986297e+01 3.028735e+01 3.102380e+01 3.092872e+01 3.015526e+01 2.850969e+01 2.666492e+01 2.578471e+01 2.506232e+01 2.546100e+01 2.610929e+01 2.644664e+01 2.553410e+01 2.443054e+01 2.223695e+01 2.141355e+01 2.220601e+01 2.378279e+01 2.505864e+01 2.580510e+01 2.442148e+01 2.230029e+01 2.196077e+01 2.040899e+01 1.834285e+01 2.866151e+01 3.327597e+01 2.580709e+01 2.145512e+01 1.616034e+01 2.452487e+01 2.872390e+01 2.165333e+01 1.769433e+01 1.250225e+01 1.715824e+01 1.992518e+01 1.329135e+01 1.111737e+01 1.053248e+01 1.158431e+01 1.208012e+01 1.237028e+01 1.250567e+01 1.189948e+01 1.236189e+01 1.351009e+01 1.482354e+01 1.546751e+01 1.569558e+01 1.395242e+01 1.296492e+01 1.199596e+01 1.232770e+01 1.265150e+01 1.341745e+01 1.263382e+01 1.193877e+01 1.063812e+01 9.632937e+00 8.845021e+00 8.565697e+00 8.896287e+00 8.968838e+00 9.049889e+00 7.750625e+00 6.995676e+00 5.325958e+00 5.287643e+00 4.551553e+00 5.598432e+00 4.943187e+00 4.999715e+00 2.933883e+00 2.092855e+00 8.172247e-01 2.210471e+00 4.054334e+00 6.352383e+00 6.881895e+00 6.224979e+00 5.511752e+00 4.585310e+00 5.463690e+00 5.333866e+00 5.907162e+00 3.184393e+00 3.164880e+00 1.029898e+00 0 0 0 0 
0 0 0 0 0 -9.343511e-02 -8.550346e-02 -9.020354e-02 -1.551561e-01 -1.344315e-01 -1.803663e-01 -1.145372e-01 -1.671859e-01 -9.846627e-01 1.998785e+00 -3.729227e+00 3.077312e+00 -1.979048e+00 3.241065e+00 1.453975e+00 1.813683e+00 1.340109e+00 1.285508e+00 1.327929e+00 1.359787e+00 1.400212e+00 1.381071e+00 1.401211e+00 1.371803e+00 1.438170e+00 1.505061e+00 1.568090e+00 1.543340e+00 1.493698e+00 1.375043e+00 1.328934e+00 1.347806e+00 1.380551e+00 1.376321e+00 1.341926e+00 1.268737e+00 1.186701e+00 1.147553e+00 1.115427e+00 1.133164e+00 1.162000e+00 1.177006e+00 1.136421e+00 1.087332e+00 9.897513e-01 9.531234e-01 9.883774e-01 1.058518e+00 1.115271e+00 1.148470e+00 1.086920e+00 6.432860e-01 -1.341582e+00 -3.696067e+00 -7.864903e+00 -1.122895e+00 3.441656e+00 -6.214313e-01 -6.164699e-01 -6.086486e+00 7.242732e-01 4.386195e+00 -2.255664e-01 9.283123e-01 -4.142252e+00 2.308861e+00 6.911233e+00 8.839986e-01 4.949482e-01 4.689101e-01 5.157163e-01 5.377832e-01 5.506961e-01 5.567238e-01 5.297516e-01 5.503365e-01 6.014356e-01 6.598943e-01 6.885534e-01 6.987034e-01 6.211315e-01 5.771840e-01 5.340542e-01 5.488141e-01 5.632199e-01 5.972959e-01 5.624060e-01 5.314660e-01 4.735602e-01 4.288199e-01 3.937415e-01 3.813103e-01 3.960344e-01 3.992710e-01 4.028886e-01 3.450689e-01 3.114670e-01 2.371401e-01 2.354364e-01 2.026543e-01 2.492434e-01 2.200445e-01 2.225241e-01 1.304875e-01 9.300614e-02 3.613919e-02 9.811974e-02 1.802137e-01 2.824681e-01 3.060381e-01 2.768208e-01 2.450889e-01 2.039072e-01 2.430889e-01 2.372886e-01 2.621571e-01 1.404295e-01 1.402500e-01 4.582002e-02 0 0 0 0 
0 0 0 0 0 0 0 0 0 0 0 0 0 -1.133799e+00 4.053522e-01 -9.379407e-01 7.221382e-01 -6.448508e-01 7.810194e-01 7.160154e-02 1.128755e+00 0 0 0 0 0 0 0 0 0 0 0 0 0 0 0 0 0 0 0 0 0 0 0 0 0 0 0 0 0 0 0 0 0 0 0 -2.527708e-01 -1.370388e+00 -1.560727e+00 -1.440604e+00 -1.338921e+00 -1.062082e+00 -1.086716e+00 -7.558937e-01 -1.278678e+00 -8.060459e-01 -5.309640e-01 -6.588722e-01 -8.689720e-02 -6.682153e-01 -1.163208e-01 5.325536e-01 2.244716e-02 0 0 0 0 0 0 0 0 0 0 0 0 0 0 0 0 0 0 0 0 0 0 0 0 0 0 0 0 0 0 0 0 0 0 0 0 0 0 0 0 0 0 0 0 0 0 0 0 0 0 0 0 0 0 0 
0 0 0 0 0 0 0 0 0 0 0 0 0 -5.542206e-01 3.704253e-01 -6.958781e-01 6.010185e-01 -4.970443e-01 6.352554e-01 -3.348826e-04 6.167759e-01 0 0 0 0 0 0 0 0 0 0 0 0 0 0 0 0 0 0 0 0 0 0 0 0 0 0 0 0 0 0 0 0 0 0 0 0 0 0 0 0 0 0 0 0 0 0 0 0 0 0 0 0 0 0 0 0 0 0 0 0 0 0 0 0 0 0 0 0 0 0 0 0 0 0 0 0 0 0 0 0 0 0 0 0 0 0 0 0 0 0 0 0 0 0 0 0 0 0 0 0 0 0 0 0 0 0 0 
0 0 0 0 0 0 0 0 0 0 0 0 0 5.750357e-02 6.213252e-02 6.590267e-02 6.698276e-02 1.077067e-01 1.068932e-01 2.017564e-01 1.819339e-01 0 0 0 0 0 0 0 0 0 0 0 0 0 0 0 0 0 0 0 0 0 0 0 0 0 0 0 0 0 0 0 0 0 0 0 0 0 0 0 0 0 0 0 0 0 0 0 0 0 0 0 0 0 0 0 0 0 0 0 0 0 0 0 0 0 0 0 0 0 0 0 0 0 0 0 0 0 0 0 0 0 0 0 0 0 0 0 0 0 0 0 0 0 0 0 0 0 0 0 0 0 0 0 0 0 0 0 
0 0 0 0 0 0 0 0 0 0 0 0 0 6.027679e-01 -3.359642e-01 7.169410e-01 -5.718008e-01 5.530572e-01 -5.017489e-01 2.169073e-01 -2.899663e-01 0 0 0 0 0 0 0 0 0 0 0 0 0 0 0 0 0 0 0 0 0 0 0 0 0 0 0 0 0 0 0 0 0 0 0 0 0 0 0 0 0 0 0 0 0 0 0 0 0 0 0 0 0 0 0 0 0 0 0 0 0 0 0 0 0 0 0 0 0 0 0 0 0 0 0 0 0 0 0 0 0 0 0 0 0 0 0 0 0 0 0 0 0 0 0 0 0 0 0 0 0 0 0 0 0 0 0 
0 0 0 0 0 0 0 0 0 0 0 0 0 1.112855e+00 -3.771563e-01 9.335342e-01 -7.284236e-01 6.512721e-01 -7.081360e-01 3.422056e-01 -5.569986e-01 0 0 0 0 0 0 0 0 0 0 0 0 0 0 0 0 0 0 0 0 0 0 0 0 0 0 0 0 0 0 0 0 0 0 0 0 0 0 0 0 0 0 0 0 0 0 0 0 0 0 0 0 0 0 0 0 0 0 0 0 0 0 0 0 0 0 0 0 0 0 0 0 0 0 0 0 0 0 0 0 0 0 0 0 0 0 0 0 0 0 0 0 0 0 0 0 0 0 0 0 0 0 0 0 0 0 0 
0 0 0 0 0 9.272436e-02 7.485279e-02 5.028556e-02 7.747641e-02 4.089325e-02 1.146020e-01 9.529743e-02 1.662485e-01 8.119171e-01 -2.214522e+00 3.447703e+00 -3.528423e+00 1.527130e+00 -3.456239e+00 -9.694299e-01 -1.527272e+00 -1.615543e+00 -1.534368e+00 -1.401479e+00 -1.248575e+00 -1.248188e+00 -1.298334e+00 -1.391273e+00 -1.365588e+00 -1.290032e+00 -1.130219e+00 -1.063165e+00 -1.066732e+00 -1.158382e+00 -1.179046e+00 -1.132146e+00 -1.049604e+00 -1.068951e+00 -1.182399e+00 -1.302433e+00 -1.326778e+00 -1.238467e+00 -1.142470e+00 -1.103303e+00 -1.154013e+00 -1.200211e+00 -1.226354e+00 -1.182865e+00 -1.139906e+00 -1.090533e+00 -1.078161e+00 -1.058265e+00 -1.059548e+00 -1.028621e+00 -9.832723e-01 -9.332848e-01 -9.259162e-01 -9.504985e-01 -9.749684e-01 -9.579946e-01 -9.109163e-01 -8.847992e-01 -8.509483e-01 -8.154683e-01 -7.481664e-01 -6.968726e-01 -6.734765e-01 -7.217073e-01 -7.433109e-01 -7.423690e-01 -7.112227e-01 -7.016827e-01 -7.118746e-01 -7.816125e-01 -8.345400e-01 -8.443533e-01 -7.961242e-01 -7.150770e-01 -6.489550e-01 -6.312996e-01 -6.677004e-01 -7.004044e-01 -7.140250e-01 -6.464517e-01 -5.938243e-01 -5.441532e-01 -5.094582e-01 -4.063865e-01 -3.313044e-01 -2.743015e-01 -3.255707e-01 -4.125345e-01 -4.923309e-01 -4.558438e-01 -3.717579e-01 -3.123979e-01 -3.228366e-01 -3.887257e-01 -4.340079e-01 -4.459611e-01 -3.749270e-01 -3.492590e-01 -3.220618e-01 -3.886270e-01 -4.043101e-01 -4.346614e-01 -3.592881e-01 -3.530280e-01 -3.151755e-01 -3.684396e-01 -3.636025e-01 -3.370047e-01 -2.082187e-01 -1.200980e-01 -8.057071e-02 -1.046563e-01 -1.420224e-01 -7.863488e-02 7.852685e-03 1.348676e-01 1.096246e-01 8.875596e-02 -7.208077e-02 -4.183872e-02 0 0 0 0 
0 0 0 0 0 2.079693e+00 1.656922e+00 1.093335e+00 1.722243e+00 9.141831e-01 2.571998e+00 2.139033e+00 3.731579e+00 3.047682e+00 -6.034664e+00 -6.290253e+00 -1.550280e+01 -1.586596e+01 -2.440516e+01 -2.513858e+01 -3.321608e+01 -3.631116e+01 -3.448535e+01 -3.149749e+01 -2.805803e+01 -2.804867e+01 -2.917611e+01 -3.126539e+01 -3.068733e+01 -2.898836e+01 -2.539489e+01 -2.388719e+01 -2.396746e+01 -2.602806e+01 -2.649264e+01 -2.543825e+01 -2.358289e+01 -2.401792e+01 -2.656829e+01 -2.926746e+01 -2.981481e+01 -2.782884e+01 -2.567059e+01 -2.478990e+01 -2.592979e+01 -2.696843e+01 -2.755617e+01 -2.657829e+01 -2.561245e+01 -2.450245e+01 -2.422433e+01 -2.377709e+01 -2.380598e+01 -2.311083e+01 -2.209141e+01 -2.096789e+01 -2.080227e+01 -2.135479e+01 -2.190488e+01 -2.152338e+01 -2.046506e+01 -1.987800e+01 -1.911711e+01 -1.831969e+01 -1.680708e+01 -1.565437e+01 -1.512861e+01 -1.621245e+01 -1.669792e+01 -1.667679e+01 -1.597691e+01 -1.576255e+01 -1.599167e+01 -1.755909e+01 -1.874853e+01 -1.896913e+01 -1.788532e+01 -1.606378e+01 -1.457799e+01 -1.418121e+01 -1.499904e+01 -1.573393e+01 -1.603996e+01 -1.452137e+01 -1.333879e+01 -1.222273e+01 -1.144330e+01 -9.127837e+00 -7.441170e+00 -6.161005e+00 -7.312929e+00 -9.266453e+00 -1.105958e+01 -1.024015e+01 -8.350901e+00 -7.017642e+00 -7.252177e+00 -8.731948e+00 -9.749169e+00 -1.001752e+01 -8.421303e+00 -7.844501e+00 -7.233483e+00 -8.728767e+00 -9.081188e+00 -9.763504e+00 -8.071017e+00 -7.931070e+00 -7.081869e+00 -8.279661e+00 -8.171843e+00 -7.575228e+00 -4.684309e+00 -2.704963e+00 -1.817610e+00 -2.358623e+00 -3.196623e+00 -1.771267e+00 1.712930e-01 3.023347e+00 2.442821e+00 1.962042e+00 -1.634273e+00 -9.403319e-01 0 0 0 0 
0 0 0 0 0 3.010053e+00 2.392577e+00 1.573670e+00 2.488767e+00 1.322384e+00 3.723004e+00 3.096353e+00 5.401637e+00 3.248923e+00 -6.008350e+00 -1.390068e+01 -1.826357e+01 -2.487700e+01 -3.166490e+01 -3.663736e+01 -5.076112e+01 -5.257458e+01 -4.993067e+01 -4.560431e+01 -4.062365e+01 -4.060993e+01 -4.224243e+01 -4.526757e+01 -4.443042e+01 -4.197029e+01 -3.676696e+01 -3.458384e+01 -3.470008e+01 -3.768377e+01 -3.835647e+01 -3.682976e+01 -3.414337e+01 -3.477330e+01 -3.846607e+01 -4.237449e+01 -4.316704e+01 -4.029130e+01 -3.716624e+01 -3.589101e+01 -3.754147e+01 -3.904539e+01 -3.989641e+01 -3.848044e+01 -3.708193e+01 -3.547470e+01 -3.507200e+01 -3.442443e+01 -3.446627e+01 -3.345976e+01 -3.198371e+01 -3.035698e+01 -3.011719e+01 -3.091718e+01 -3.171367e+01 -3.116130e+01 -2.962893e+01 -2.877892e+01 -2.767721e+01 -2.652265e+01 -2.433258e+01 -2.266361e+01 -2.190241e+01 -2.347163e+01 -2.417452e+01 -2.414392e+01 -2.313063e+01 -2.282028e+01 -2.315202e+01 -2.542147e+01 -2.714361e+01 -2.746302e+01 -2.589383e+01 -2.325647e+01 -2.110530e+01 -2.053082e+01 -2.171486e+01 -2.277886e+01 -2.322193e+01 -2.102323e+01 -1.931105e+01 -1.769522e+01 -1.656677e+01 -1.321454e+01 -1.077266e+01 -8.919386e+00 -1.058714e+01 -1.341535e+01 -1.601150e+01 -1.482523e+01 -1.208998e+01 -1.015980e+01 -1.049936e+01 -1.264161e+01 -1.411429e+01 -1.450276e+01 -1.219170e+01 -1.135658e+01 -1.047197e+01 -1.263676e+01 -1.314701e+01 -1.413496e+01 -1.168483e+01 -1.148240e+01 -1.025325e+01 -1.198768e+01 -1.183180e+01 -1.096827e+01 -6.783472e+00 -3.917917e+00 -2.633398e+00 -3.416638e+00 -4.629503e+00 -2.565580e+00 2.466931e-01 4.375457e+00 3.531581e+00 2.832490e+00 -2.369843e+00 -1.361487e+00 0 0 0 0 
0 0 0 0 0 1.023085e+00 8.105077e-01 5.306204e-01 8.439998e-01 4.490942e-01 1.265608e+00 1.052618e+00 1.836307e+00 1.104375e+00 -2.042962e+00 -4.726508e+00 -6.210027e+00 -8.459026e+00 -1.076725e+01 -1.245844e+01 -1.726222e+01 -1.787896e+01 -1.697969e+01 -1.550830e+01 -1.381420e+01 -1.380945e+01 -1.436465e+01 -1.539346e+01 -1.510867e+01 -1.427197e+01 -1.250229e+01 -1.175981e+01 -1.179936e+01 -1.281410e+01 -1.304288e+01 -1.252366e+01 -1.161008e+01 -1.182433e+01 -1.308018e+01 -1.440947e+01 -1.467901e+01 -1.370093e+01 -1.263812e+01 -1.220441e+01 -1.276569e+01 -1.327716e+01 -1.356659e+01 -1.308501e+01 -1.260939e+01 -1.206278e+01 -1.192583e+01 -1.170561e+01 -1.171984e+01 -1.137755e+01 -1.087558e+01 -1.032238e+01 -1.024083e+01 -1.051288e+01 -1.078376e+01 -1.059592e+01 -1.007478e+01 -9.785717e+00 -9.411052e+00 -9.018427e+00 -8.273662e+00 -7.706121e+00 -7.447270e+00 -7.980889e+00 -8.219907e+00 -8.209508e+00 -7.864939e+00 -7.759406e+00 -7.872227e+00 -8.643991e+00 -9.229618e+00 -9.338242e+00 -8.804636e+00 -7.907762e+00 -7.176262e+00 -6.980908e+00 -7.383523e+00 -7.745336e+00 -7.895994e+00 -7.148311e+00 -6.566088e+00 -6.016638e+00 -5.632933e+00 -4.493093e+00 -3.662795e+00 -3.032682e+00 -3.599783e+00 -4.561436e+00 -5.444255e+00 -5.040924e+00 -4.110833e+00 -3.454554e+00 -3.570016e+00 -4.298386e+00 -4.799132e+00 -4.931198e+00 -4.145325e+00 -3.861342e+00 -3.560544e+00 -4.296619e+00 -4.470128e+00 -4.806117e+00 -3.973105e+00 -3.904356e+00 -3.486554e+00 -4.076455e+00 -4.023556e+00 -3.730045e+00 -2.307381e+00 -1.333052e+00 -8.963583e-01 -1.162672e+00 -1.574902e+00 -8.729474e-01 8.325277e-02 1.486977e+00 1.198385e+00 9.592043e-01 -8.076512e-01 -4.629939e-01 0 0 0 0 
0 0 0 0 0 0 0 0 0 0 0 0 0 0 0 0 0 0 0 0 0 0 0 0 0 0 0 0 0 0 0 0 0 0 0 0 0 0 0 0 0 0 0 0 0 0 0 0 0 0 0 0 0 0 0 0 0 0 0 0 0 0 0 0 0 0 0 0 0 0 0 0 0 0 0 0 0 0 0 0 0 0 0 0 0 0 0 0 0 0 0 0 0 0 0 0 0 0 0 0 0 0 0 0 0 0 0 0 0 0 0 0 0 0 0 0 0 0 0 0 0 0 0 0 0 0 0 0 
