# vtk DataFile Version 2.0
Comment goes here
ASCII

DATASET STRUCTURED_POINTS
FIELD FieldData 1
TIME 1 1 double
0.30000000
DIMENSIONS    128   16   1

ORIGIN    0.000   0.000   0.000
SPACING   0.0078125 0.015625   1.000

POINT_DATA   2048
SCALARS fY double
LOOKUP_TABLE default

0 0 0 0 0 0 0 0 0 0 0 0 0 0 0 0 0 0 0 0 0 0 0 0 0 0 0 0 0 0 0 0 0 0 0 0 0 0 0 0 0 0 0 0 0 0 0 0 0 0 0 0 0 0 0 0 0 0 0 0 0 0 0 0 0 0 0 0 0 0 0 0 0 0 0 0 0 0 0 0 0 0 0 0 0 0 0 0 0 0 0 0 0 0 0 0 0 0 0 0 0 0 0 0 0 0 0 0 0 0 0 0 0 0 0 0 0 0 0 0 0 0 0 0 0 0 0 0 
0 0 0 0 0 0 0 0 0 0 0 0 0 0 0 0 0 0 0 0 0 0 0 0 0 0 0 0 0 0 0 0 0 0 0 0 0 0 0 0 0 0 0 0 0 0 0 0 0 0 0 0 0 0 0 0 0 0 0 0 0 0 0 0 0 0 0 0 0 0 0 0 0 0 0 0 0 0 0 0 0 0 0 0 0 0 0 0 0 0 0 0 0 0 0 0 0 0 0 0 0 0 0 0 0 0 0 0 0 0 0 0 0 0 0 0 0 0 0 0 0 0 0 0 0 0 0 0 
0 0 0 0 0 -1.183744e+00 -2.054731e+00 -1.670396e+00 -2.751927e+00 -2.015725e+00 -3.115398e+00 -2.307427e+00 -3.602424e+00 -2.007795e+00 4.501077e+00 8.705048e+00 1.362445e+01 1.881711e+01 2.374342e+01 2.828079e+01 3.541626e+01 3.645528e+01 3.576145e+01 3.568729e+01 3.470356e+01 3.448061e+01 3.392471e+01 3.387628e+01 3.335395e+01 3.296079e+01 3.224160e+01 3.185776e+01 3.172575e+01 3.163110e+01 3.130069e+01 3.057024e+01 2.980690e+01 2.913176e+01 2.909908e+01 2.922392e+01 2.955631e+01 2.948659e+01 2.930668e+01 2.885717e+01 2.865874e+01 2.844007e+01 2.835586e+01 2.800868e+01 2.755905e+01 2.708826e+01 2.676772e+01 2.628877e+01 2.556699e+01 2.473053e+01 2.409388e+01 2.397892e+01 2.364783e+01 2.207587e+01 2.189380e+01 2.146926e+01 1.768677e+01 1.460492e+01 1.610663e+01 2.015561e+01 2.087989e+01 1.731500e+01 1.437449e+01 1.650699e+01 2.084543e+01 2.175694e+01 1.900756e+01 1.770273e+01 1.771763e+01 1.783703e+01 1.805084e+01 1.823308e+01 1.795772e+01 1.753883e+01 1.699582e+01 1.666835e+01 1.618264e+01 1.545385e+01 1.452945e+01 1.379166e+01 1.334427e+01 1.307417e+01 1.284386e+01 1.238168e+01 1.206520e+01 1.157076e+01 1.121155e+01 1.065757e+01 1.061363e+01 1.044488e+01 1.071777e+01 1.047620e+01 1.025112e+01 9.498551e+00 9.145656e+00 8.588876e+00 8.509533e+00 8.520649e+00 8.812762e+00 8.931664e+00 8.604787e+00 8.000390e+00 7.099094e+00 6.918104e+00 6.558016e+00 6.657288e+00 5.677916e+00 5.087900e+00 3.681248e+00 3.499706e+00 2.895092e+00 3.363887e+00 3.022853e+00 3.091648e+00 2.168568e+00 1.592079e+00 1.214384e+00 1.030108e+00 1.760471e+00 -2.502099e-01 0 0 0 0 
0 0 0 0 0 -3.482807e+00 -6.051425e+00 -4.923625e+00 -8.098957e+00 -5.930792e+00 -9.166347e+00 -6.791382e+00 -1.060237e+01 -5.912773e+00 1.323424e+01 2.559811e+01 4.006468e+01 5.533135e+01 6.981475e+01 8.315141e+01 1.041233e+02 1.071777e+02 1.051388e+02 1.049210e+02 1.020301e+02 1.013750e+02 9.974130e+01 9.959897e+01 9.806386e+01 9.690837e+01 9.479460e+01 9.366650e+01 9.327852e+01 9.300032e+01 9.202922e+01 8.988239e+01 8.763880e+01 8.565447e+01 8.555844e+01 8.592537e+01 8.690236e+01 8.669745e+01 8.616866e+01 8.484745e+01 8.426420e+01 8.362147e+01 8.337393e+01 8.235344e+01 8.103185e+01 7.964802e+01 7.870583e+01 7.729796e+01 7.517635e+01 7.271755e+01 7.084610e+01 7.050818e+01 7.041973e+01 6.857727e+01 6.713235e+01 6.449904e+01 5.966846e+01 5.659508e+01 5.674271e+01 5.875141e+01 5.796881e+01 5.458806e+01 5.194995e+01 5.336575e+01 5.656029e+01 5.672380e+01 5.346206e+01 5.242868e+01 5.211934e+01 5.245225e+01 5.308084e+01 5.361660e+01 5.280702e+01 5.157549e+01 4.997897e+01 4.901618e+01 4.758810e+01 4.544536e+01 4.272737e+01 4.055810e+01 3.924262e+01 3.844844e+01 3.777127e+01 3.641233e+01 3.548174e+01 3.402792e+01 3.297168e+01 3.134272e+01 3.121352e+01 3.071726e+01 3.151964e+01 3.080926e+01 3.014733e+01 2.793419e+01 2.689639e+01 2.525895e+01 2.502556e+01 2.505818e+01 2.591710e+01 2.626678e+01 2.530563e+01 2.352828e+01 2.087802e+01 2.034590e+01 1.928708e+01 1.957910e+01 1.669901e+01 1.496379e+01 1.082668e+01 1.029255e+01 8.513887e+00 9.891988e+00 8.888127e+00 9.088983e+00 6.371107e+00 4.668664e+00 3.538489e+00 2.996138e+00 5.167794e+00 -7.360196e-01 0 0 0 0 
0 0 0 0 0 -2.406360e+00 -4.183994e+00 -3.406215e+00 -5.596866e+00 -4.097802e+00 -6.333378e+00 -4.693541e+00 -7.327067e+00 -8.916336e+00 1.291411e+01 1.219608e+01 3.355402e+01 3.280930e+01 5.461113e+01 5.336565e+01 7.561890e+01 7.401266e+01 7.260516e+01 7.245479e+01 7.045914e+01 7.000688e+01 6.887903e+01 6.878077e+01 6.772094e+01 6.692318e+01 6.546381e+01 6.468497e+01 6.441710e+01 6.422503e+01 6.355457e+01 6.207238e+01 6.052334e+01 5.915332e+01 5.908703e+01 5.934038e+01 6.001493e+01 5.987346e+01 5.950837e+01 5.859615e+01 5.819345e+01 5.774968e+01 5.757876e+01 5.687416e+01 5.596166e+01 5.500617e+01 5.435563e+01 5.338353e+01 5.191862e+01 5.022085e+01 4.892865e+01 4.869532e+01 4.997776e+01 5.220752e+01 4.933008e+01 4.605233e+01 4.868037e+01 5.142821e+01 4.885751e+01 4.261384e+01 4.001247e+01 4.321829e+01 4.606840e+01 4.365534e+01 3.803636e+01 3.676317e+01 3.885848e+01 3.812943e+01 3.602734e+01 3.622714e+01 3.666122e+01 3.703119e+01 3.647211e+01 3.562166e+01 3.451913e+01 3.385424e+01 3.286802e+01 3.138827e+01 2.951120e+01 2.801311e+01 2.710461e+01 2.655614e+01 2.608847e+01 2.514997e+01 2.450729e+01 2.350324e+01 2.277376e+01 2.164873e+01 2.155950e+01 2.121675e+01 2.177089e+01 2.128023e+01 2.082303e+01 1.929444e+01 1.857764e+01 1.744663e+01 1.728539e+01 1.730790e+01 1.790109e+01 1.814261e+01 1.747882e+01 1.625123e+01 1.442084e+01 1.405338e+01 1.332212e+01 1.352385e+01 1.153461e+01 1.033605e+01 7.478365e+00 7.109318e+00 5.880506e+00 6.832097e+00 6.138275e+00 6.276299e+00 4.397484e+00 3.218171e+00 2.428135e+00 2.053326e+00 3.564819e+00 -5.084636e-01 0 0 0 0 
0 0 0 0 0 -1.072978e-01 -1.872997e-01 -1.529863e-01 -2.498365e-01 -1.827345e-01 -2.824296e-01 -2.095864e-01 -3.271187e-01 -3.711856e+00 4.533801e+00 -4.416619e+00 7.054876e+00 -4.011616e+00 8.098187e+00 -1.883293e+00 5.959069e+00 3.290228e+00 3.227778e+00 3.221113e+00 3.132558e+00 3.112494e+00 3.062434e+00 3.058073e+00 3.011022e+00 2.975606e+00 2.910809e+00 2.876231e+00 2.864337e+00 2.855809e+00 2.826039e+00 2.760232e+00 2.691444e+00 2.630610e+00 2.627670e+00 2.638922e+00 2.668880e+00 2.662599e+00 2.646385e+00 2.605873e+00 2.587989e+00 2.568279e+00 2.560687e+00 2.529391e+00 2.488862e+00 2.446420e+00 2.417523e+00 2.374339e+00 2.309265e+00 2.233836e+00 2.176428e+00 2.166062e+00 3.309828e+00 5.918029e+00 3.960453e+00 2.848008e+00 6.500347e+00 8.949844e+00 8.119356e+00 4.477564e+00 3.491473e+00 6.194063e+00 8.511399e+00 7.161668e+00 3.016629e+00 2.582252e+00 5.173558e+00 3.720970e+00 1.628099e+00 1.611924e+00 1.631221e+00 1.647666e+00 1.622809e+00 1.584999e+00 1.535977e+00 1.506415e+00 1.462560e+00 1.396763e+00 1.313285e+00 1.246665e+00 1.206258e+00 1.181866e+00 1.161066e+00 1.119327e+00 1.090741e+00 1.046082e+00 1.013632e+00 9.635856e-01 9.596159e-01 9.443642e-01 9.690104e-01 9.471750e-01 9.268259e-01 8.587990e-01 8.268974e-01 7.765540e-01 7.693708e-01 7.703649e-01 7.967489e-01 8.074986e-01 7.779732e-01 7.233468e-01 6.419192e-01 6.255821e-01 5.930531e-01 6.020414e-01 5.135162e-01 4.601622e-01 3.329297e-01 3.164740e-01 2.617106e-01 3.039954e-01 2.730005e-01 2.789640e-01 1.949439e-01 1.415846e-01 1.040302e-01 8.729681e-02 1.574953e-01 -2.265393e-02 0 0 0 0 
0 0 0 0 0 0 0 0 0 0 0 0 0 -2.241773e+00 6.247417e-01 -2.132907e+00 1.630296e+00 -1.766944e+00 1.981730e+00 -8.850138e-01 1.759902e+00 0 0 0 0 0 0 0 0 0 0 0 0 0 0 0 0 0 0 0 0 0 0 0 0 0 0 0 0 0 0 0 0 0 0 0 1.039600e-01 2.119148e-01 -1.310762e-01 -1.745522e-01 -1.983360e-01 -4.882030e-01 -1.020654e-01 4.595320e-01 5.679212e-01 2.488376e-01 1.845943e-02 3.650830e-01 6.951391e-01 7.859467e-01 7.695801e-01 3.174893e-01 2.465780e-03 0 0 0 0 0 0 0 0 0 0 0 0 0 0 0 0 0 0 0 0 0 0 0 0 0 0 0 0 0 0 0 0 0 0 0 0 0 0 0 0 0 0 0 0 0 0 0 0 0 0 0 0 0 0 0 
0 0 0 0 0 0 0 0 0 0 0 0 0 -1.082476e+00 6.406692e-01 -1.322692e+00 1.208535e+00 -1.301840e+00 1.234688e+00 -8.202219e-01 7.640704e-01 0 0 0 0 0 0 0 0 0 0 0 0 0 0 0 0 0 0 0 0 0 0 0 0 0 0 0 0 0 0 0 0 0 0 0 0 0 0 0 0 0 0 0 0 0 0 0 0 0 0 0 0 0 0 0 0 0 0 0 0 0 0 0 0 0 0 0 0 0 0 0 0 0 0 0 0 0 0 0 0 0 0 0 0 0 0 0 0 0 0 0 0 0 0 0 0 0 0 0 0 0 0 0 0 0 0 0 
0 0 0 0 0 0 0 0 0 0 0 0 0 -2.512161e-02 -6.167385e-02 -5.202719e-02 -1.046660e-01 -1.067123e-01 -1.901448e-01 -2.020554e-01 -3.132200e-01 0 0 0 0 0 0 0 0 0 0 0 0 0 0 0 0 0 0 0 0 0 0 0 0 0 0 0 0 0 0 0 0 0 0 0 0 0 0 0 0 0 0 0 0 0 0 0 0 0 0 0 0 0 0 0 0 0 0 0 0 0 0 0 0 0 0 0 0 0 0 0 0 0 0 0 0 0 0 0 0 0 0 0 0 0 0 0 0 0 0 0 0 0 0 0 0 0 0 0 0 0 0 0 0 0 0 0 
0 0 0 0 0 0 0 0 0 0 0 0 0 1.118391e+00 -6.209262e-01 1.368244e+00 -1.239966e+00 1.264966e+00 -1.440484e+00 5.755979e-01 -1.282878e+00 0 0 0 0 0 0 0 0 0 0 0 0 0 0 0 0 0 0 0 0 0 0 0 0 0 0 0 0 0 0 0 0 0 0 0 0 0 0 0 0 0 0 0 0 0 0 0 0 0 0 0 0 0 0 0 0 0 0 0 0 0 0 0 0 0 0 0 0 0 0 0 0 0 0 0 0 0 0 0 0 0 0 0 0 0 0 0 0 0 0 0 0 0 0 0 0 0 0 0 0 0 0 0 0 0 0 0 
0 0 0 0 0 0 0 0 0 0 0 0 0 2.218310e+00 -6.621781e-01 2.140913e+00 -1.669680e+00 1.716157e+00 -2.208929e+00 5.479180e-01 -2.455227e+00 0 0 0 0 0 0 0 0 0 0 0 0 0 0 0 0 0 0 0 0 0 0 0 0 0 0 0 0 0 0 0 0 0 0 0 0 0 0 0 0 0 0 0 0 0 0 0 0 0 0 0 0 0 0 0 0 0 0 0 0 0 0 0 0 0 0 0 0 0 0 0 0 0 0 0 0 0 0 0 0 0 0 0 0 0 0 0 0 0 0 0 0 0 0 0 0 0 0 0 0 0 0 0 0 0 0 0 
0 0 0 0 0 1.056991e-01 1.748846e-01 1.321468e-01 2.417953e-01 2.009377e-01 3.239296e-01 2.585377e-01 3.698221e-01 3.819545e+00 -4.101000e+00 4.857850e+00 -6.576812e+00 4.493480e+00 -7.713352e+00 2.173239e+00 -6.134663e+00 -3.113872e+00 -3.065339e+00 -3.135896e+00 -3.134075e+00 -3.143312e+00 -3.069350e+00 -3.056114e+00 -3.059510e+00 -3.121849e+00 -3.131727e+00 -3.073139e+00 -2.953932e+00 -2.851493e+00 -2.812684e+00 -2.821873e+00 -2.852391e+00 -2.840174e+00 -2.813525e+00 -2.758853e+00 -2.712923e+00 -2.646346e+00 -2.592937e+00 -2.529674e+00 -2.493984e+00 -2.462470e+00 -2.446162e+00 -2.423649e+00 -2.399627e+00 -2.357808e+00 -2.322224e+00 -2.309744e+00 -2.320488e+00 -2.332564e+00 -2.311262e+00 -2.244959e+00 -2.166032e+00 -2.133565e+00 -2.156107e+00 -2.202809e+00 -2.225944e+00 -2.204983e+00 -2.145163e+00 -2.074827e+00 -2.013040e+00 -1.971501e+00 -1.940917e+00 -1.914455e+00 -1.871662e+00 -1.826731e+00 -1.784009e+00 -1.768797e+00 -1.744721e+00 -1.699258e+00 -1.610142e+00 -1.542346e+00 -1.507225e+00 -1.519774e+00 -1.507741e+00 -1.467527e+00 -1.399115e+00 -1.372297e+00 -1.383239e+00 -1.409726e+00 -1.403481e+00 -1.363589e+00 -1.321856e+00 -1.287117e+00 -1.283920e+00 -1.269266e+00 -1.263165e+00 -1.216541e+00 -1.193435e+00 -1.143509e+00 -1.131917e+00 -1.078240e+00 -1.032018e+00 -9.240742e-01 -8.569596e-01 -8.091785e-01 -8.319918e-01 -8.325036e-01 -7.963492e-01 -7.174980e-01 -6.491983e-01 -6.406596e-01 -6.260419e-01 -6.126743e-01 -5.140472e-01 -4.722570e-01 -4.209848e-01 -4.877150e-01 -4.869386e-01 -5.283508e-01 -4.478735e-01 -4.239279e-01 -3.424124e-01 -3.593293e-01 -3.476032e-01 -3.623463e-01 -3.218045e-01 -2.215974e-01 -1.979406e-01 2.024707e-02 0 0 0 0 
0 0 0 0 0 2.370536e+00 3.905353e+00 2.938285e+00 5.416336e+00 4.506571e+00 7.264845e+00 5.792479e+00 8.285743e+00 9.771560e+00 -1.188268e+01 -1.112800e+01 -3.232037e+01 -3.144281e+01 -5.290782e+01 -5.142641e+01 -7.325712e+01 -7.003923e+01 -6.894557e+01 -7.053466e+01 -7.049336e+01 -7.070130e+01 -6.903488e+01 -6.873662e+01 -6.881321e+01 -7.021778e+01 -7.044032e+01 -6.912044e+01 -6.643540e+01 -6.412783e+01 -6.325373e+01 -6.346071e+01 -6.414794e+01 -6.387268e+01 -6.327248e+01 -6.204113e+01 -6.100678e+01 -5.950751e+01 -5.830486e+01 -5.688045e+01 -5.607689e+01 -5.536739e+01 -5.500026e+01 -5.449345e+01 -5.395267e+01 -5.301131e+01 -5.221026e+01 -5.192934e+01 -5.217120e+01 -5.244300e+01 -5.196350e+01 -5.047116e+01 -4.869462e+01 -4.796390e+01 -4.847126e+01 -4.952232e+01 -5.004306e+01 -4.957130e+01 -4.822491e+01 -4.664201e+01 -4.525153e+01 -4.431681e+01 -4.362860e+01 -4.303318e+01 -4.207032e+01 -4.105941e+01 -4.009824e+01 -3.975599e+01 -3.921437e+01 -3.819166e+01 -3.618713e+01 -3.466217e+01 -3.387229e+01 -3.415460e+01 -3.388399e+01 -3.297958e+01 -3.144121e+01 -3.083810e+01 -3.108418e+01 -3.167991e+01 -3.153950e+01 -3.064230e+01 -2.970388e+01 -2.892263e+01 -2.885065e+01 -2.852107e+01 -2.838385e+01 -2.733547e+01 -2.681595e+01 -2.569353e+01 -2.543302e+01 -2.422650e+01 -2.318762e+01 -2.076173e+01 -1.925328e+01 -1.817981e+01 -1.869293e+01 -1.870457e+01 -1.789199e+01 -1.612033e+01 -1.458511e+01 -1.439294e+01 -1.406417e+01 -1.376354e+01 -1.154691e+01 -1.060775e+01 -9.455804e+00 -1.095507e+01 -1.093798e+01 -1.186932e+01 -1.006261e+01 -9.526117e+00 -7.697723e+00 -8.081644e+00 -7.826098e+00 -8.177383e+00 -7.319348e+00 -5.069116e+00 -4.473825e+00 4.544648e-01 0 0 0 0 
0 0 0 0 0 3.430965e+00 5.648086e+00 4.246231e+00 7.837621e+00 6.522552e+00 1.051468e+01 8.382194e+00 1.199014e+01 7.139186e+00 -1.208116e+01 -2.474157e+01 -3.952020e+01 -5.476284e+01 -6.874221e+01 -8.073014e+01 -9.975750e+01 -1.014222e+02 -9.983795e+01 -1.021396e+02 -1.020797e+02 -1.023809e+02 -9.996706e+01 -9.953503e+01 -9.964597e+01 -1.016805e+02 -1.020029e+02 -1.000910e+02 -9.620194e+01 -9.285953e+01 -9.159347e+01 -9.189326e+01 -9.288863e+01 -9.248992e+01 -9.162057e+01 -8.983707e+01 -8.833893e+01 -8.616742e+01 -8.442556e+01 -8.236253e+01 -8.119871e+01 -8.017113e+01 -7.963943e+01 -7.890542e+01 -7.812220e+01 -7.675885e+01 -7.559870e+01 -7.519185e+01 -7.554214e+01 -7.593578e+01 -7.524133e+01 -7.308004e+01 -7.050716e+01 -6.944891e+01 -7.018369e+01 -7.170586e+01 -7.246001e+01 -7.177680e+01 -6.982690e+01 -6.753453e+01 -6.552082e+01 -6.416717e+01 -6.317052e+01 -6.230825e+01 -6.091386e+01 -5.944992e+01 -5.805802e+01 -5.756239e+01 -5.677806e+01 -5.529707e+01 -5.239432e+01 -5.018605e+01 -4.904226e+01 -4.945108e+01 -4.905925e+01 -4.774961e+01 -4.552204e+01 -4.464871e+01 -4.500504e+01 -4.586769e+01 -4.566438e+01 -4.436520e+01 -4.300635e+01 -4.187508e+01 -4.177082e+01 -4.129358e+01 -4.109488e+01 -3.957682e+01 -3.882456e+01 -3.719935e+01 -3.682217e+01 -3.507524e+01 -3.357107e+01 -3.005871e+01 -2.787464e+01 -2.632049e+01 -2.706353e+01 -2.708041e+01 -2.590389e+01 -2.333888e+01 -2.111603e+01 -2.083773e+01 -2.036165e+01 -1.992632e+01 -1.671690e+01 -1.535714e+01 -1.368937e+01 -1.586000e+01 -1.583534e+01 -1.718396e+01 -1.456858e+01 -1.379223e+01 -1.114587e+01 -1.170268e+01 -1.133471e+01 -1.184839e+01 -1.061954e+01 -7.361970e+00 -6.483924e+00 6.578602e-01 0 0 0 0 
0 0 0 0 0 1.166128e+00 1.917617e+00 1.440093e+00 2.663080e+00 2.216918e+00 3.573765e+00 2.848253e+00 4.074223e+00 2.424747e+00 -4.109001e+00 -8.413792e+00 -1.343928e+01 -1.862374e+01 -2.337856e+01 -2.745696e+01 -3.393064e+01 -3.449682e+01 -3.395773e+01 -3.474085e+01 -3.472044e+01 -3.482290e+01 -3.400153e+01 -3.385452e+01 -3.389228e+01 -3.458458e+01 -3.469427e+01 -3.404374e+01 -3.272047e+01 -3.158320e+01 -3.115242e+01 -3.125443e+01 -3.159308e+01 -3.145741e+01 -3.116162e+01 -3.055479e+01 -3.004508e+01 -2.930626e+01 -2.871363e+01 -2.801176e+01 -2.761580e+01 -2.726621e+01 -2.708532e+01 -2.683561e+01 -2.656916e+01 -2.610535e+01 -2.571066e+01 -2.557226e+01 -2.569143e+01 -2.582534e+01 -2.558909e+01 -2.485384e+01 -2.397857e+01 -2.361857e+01 -2.386853e+01 -2.438635e+01 -2.464290e+01 -2.441048e+01 -2.374716e+01 -2.296735e+01 -2.228233e+01 -2.182186e+01 -2.148283e+01 -2.118952e+01 -2.071521e+01 -2.021724e+01 -1.974378e+01 -1.957519e+01 -1.930841e+01 -1.880466e+01 -1.781733e+01 -1.706623e+01 -1.667720e+01 -1.681626e+01 -1.668299e+01 -1.623756e+01 -1.547994e+01 -1.518291e+01 -1.530410e+01 -1.559751e+01 -1.552836e+01 -1.508648e+01 -1.462433e+01 -1.423956e+01 -1.420410e+01 -1.404177e+01 -1.397419e+01 -1.345789e+01 -1.320205e+01 -1.264933e+01 -1.252107e+01 -1.192698e+01 -1.141546e+01 -1.022105e+01 -9.478322e+00 -8.949863e+00 -9.202593e+00 -9.208348e+00 -8.808256e+00 -7.936050e+00 -7.180117e+00 -7.085444e+00 -6.923518e+00 -6.775452e+00 -5.684047e+00 -5.221648e+00 -4.654547e+00 -5.392641e+00 -5.384300e+00 -5.842991e+00 -4.953841e+00 -4.690040e+00 -3.790558e+00 -3.980367e+00 -3.856216e+00 -4.033350e+00 -3.621997e+00 -2.514452e+00 -2.208040e+00 2.236425e-01 0 0 0 0 
0 0 0 0 0 0 0 0 0 0 0 0 0 0 0 0 0 0 0 0 0 0 0 0 0 0 0 0 0 0 0 0 0 0 0 0 0 0 0 0 0 0 0 0 0 0 0 0 0 0 0 0 0 0 0 0 0 0 0 0 0 0 0 0 0 0 0 0 0 0 0 0 0 0 0 0 0 0 0 0 0 0 0 0 0 0 0 0 0 0 0 0 0 0 0 0 0 0 0 0 0 0 0 0 0 0 0 0 0 0 0 0 0 0 0 0 0 0 0 0 0 0 0 0 0 0 0 0 
