# vtk DataFile Version 2.0
Comment goes here
ASCII

DATASET STRUCTURED_POINTS
FIELD FieldData 1
TIME 1 1 double
0.08000000
DIMENSIONS    128   16   1

ORIGIN    0.000   0.000   0.000
SPACING   0.0078125 0.015625   1.000

POINT_DATA   2048
SCALARS fY double
LOOKUP_TABLE default

0 0 0 0 0 0 0 0 0 0 0 0 0 0 0 0 0 0 0 0 0 0 0 0 0 0 0 0 0 0 0 0 0 0 0 0 0 0 0 0 0 0 0 0 0 0 0 0 0 0 0 0 0 0 0 0 0 0 0 0 0 0 0 0 0 0 0 0 0 0 0 0 0 0 0 0 0 0 0 0 0 0 0 0 0 0 0 0 0 0 0 0 0 0 0 0 0 0 0 0 0 0 0 0 0 0 0 0 0 0 0 0 0 0 0 0 0 0 0 0 0 0 0 0 0 0 0 0 
0 0 0 0 0 0 0 0 0 0 0 0 0 0 0 0 0 0 0 0 0 0 0 0 0 0 0 0 0 0 0 0 0 0 0 0 0 0 0 0 0 0 0 0 0 0 0 0 0 0 0 0 0 0 0 0 0 0 0 0 0 0 0 0 0 0 0 0 0 0 0 0 0 0 0 0 0 0 0 0 0 0 0 0 0 0 0 0 0 0 0 0 0 0 0 0 0 0 0 0 0 0 0 0 0 0 0 0 0 0 0 0 0 0 0 0 0 0 0 0 0 0 0 0 0 0 0 0 
0 0 0 0 0 2.835659e-01 3.987289e-01 2.277132e+00 1.441809e+00 -5.033220e-01 5.524365e-01 2.385209e+00 3.283301e-01 -1.832738e+00 -3.529499e-01 2.159207e+00 5.776994e+00 5.098599e+00 9.557773e-01 -2.859095e+00 -2.785408e+00 4.293766e+00 1.094549e+01 1.043506e+01 5.429109e+00 3.567933e+00 6.913206e+00 1.221770e+01 1.465111e+01 1.286565e+01 8.881107e+00 5.877870e+00 9.157912e+00 1.259676e+01 1.077313e+01 5.769269e+00 1.804227e+00 1.240233e-01 3.293086e+00 8.020031e+00 7.973256e+00 3.605320e+00 -5.491850e-01 -2.747865e+00 -2.953262e+00 -7.300208e-01 3.830376e+00 5.231566e+00 4.511268e-01 -3.808358e+00 -5.009009e+00 -2.553380e+00 3.662965e+00 6.534097e+00 2.464764e+00 -3.941269e+00 -7.488857e+00 -3.631558e+00 1.142230e+00 1.563866e+00 7.004083e+00 7.588459e+00 1.376509e+00 -1.328566e-01 9.098611e-01 9.889552e+00 1.030489e+01 2.090853e+00 -1.934295e+00 -4.858839e+00 5.577733e+00 1.168419e+01 7.150765e+00 5.031970e+00 1.263880e+00 2.209420e+00 4.156996e+00 1.044483e+00 -6.063153e-02 5.905217e-01 1.553405e+00 1.865030e+00 -3.410815e-01 -1.717769e+00 -1.872803e+00 1.092803e+00 4.665652e+00 7.833526e+00 6.285995e+00 3.596287e+00 8.148616e+00 1.085752e+01 8.970295e+00 7.704716e+00 7.186058e+00 9.550094e+00 1.148973e+01 6.682738e+00 5.955911e-01 4.796742e-02 2.432647e+00 3.991892e+00 2.923455e+00 -4.339607e+00 -6.915389e+00 -5.317576e+00 -4.091226e+00 -2.609551e+00 -2.414182e+00 -6.910080e+00 -8.569490e+00 -3.566507e+00 7.660905e-01 5.199327e+00 7.258894e+00 5.055787e+00 4.245592e+00 8.427356e+00 1.106315e+01 1.362820e+01 1.268482e+01 6.512448e+00 7.191847e-01 -7.980804e-01 0 0 0 0 
0 0 0 0 0 8.339673e-01 1.171618e+00 6.694668e+00 4.237786e+00 -1.481882e+00 1.624042e+00 7.014150e+00 9.637807e-01 -5.391895e+00 -1.038723e+00 6.349860e+00 1.699010e+01 1.499516e+01 2.810729e+00 -8.409805e+00 -8.193571e+00 1.262612e+01 3.218867e+01 3.068794e+01 1.596623e+01 1.049308e+01 2.033118e+01 3.592901e+01 4.308460e+01 3.783501e+01 2.611792e+01 1.728658e+01 2.693228e+01 3.704467e+01 3.168210e+01 1.696724e+01 5.306396e+00 3.645173e-01 9.684501e+00 2.358639e+01 2.344894e+01 1.060303e+01 -1.615571e+00 -8.082630e+00 -8.686779e+00 -2.147580e+00 1.126469e+01 1.538572e+01 1.326190e+00 -1.120204e+01 -1.473370e+01 -7.510962e+00 1.077209e+01 1.921652e+01 7.248597e+00 -1.159364e+01 -2.246187e+01 -1.239989e+01 6.267373e+00 1.397046e+01 1.616402e+01 7.977640e+00 -2.150467e+00 2.240543e+00 1.268145e+01 2.593882e+01 1.606300e+01 -1.331140e+00 -4.495795e+00 -4.881449e+00 1.753782e+01 2.927935e+01 2.074336e+01 1.479900e+01 3.716814e+00 6.497672e+00 1.222567e+01 3.071433e+00 -1.786673e-01 1.736581e+00 4.568515e+00 5.485082e+00 -1.003386e+00 -5.052554e+00 -5.508768e+00 3.213534e+00 1.372162e+01 2.303730e+01 1.848575e+01 1.057607e+01 2.396394e+01 3.193049e+01 2.638100e+01 2.265943e+01 2.113403e+01 2.808545e+01 3.378918e+01 1.965303e+01 1.751238e+00 1.408213e-01 7.154717e+00 1.174054e+01 8.597022e+00 -1.276770e+01 -2.034367e+01 -1.564284e+01 -1.203543e+01 -7.676920e+00 -7.103056e+00 -2.033027e+01 -2.521117e+01 -1.049214e+01 2.251974e+00 1.529097e+01 2.134798e+01 1.486844e+01 1.248544e+01 2.478312e+01 3.253154e+01 4.006438e+01 3.725563e+01 1.908685e+01 2.086103e+00 -2.348250e+00 0 0 0 0 
0 0 0 0 0 5.760451e-01 8.087638e-01 4.623047e+00 2.925912e+00 -1.024360e+00 1.121446e+00 4.844512e+00 6.648202e-01 -5.516656e+00 1.108989e+00 2.653353e+00 6.902600e+00 5.641295e+00 8.497955e+00 7.327704e+00 9.039497e+00 8.720323e+00 2.223266e+01 2.119629e+01 1.102796e+01 7.247767e+00 1.404306e+01 2.481562e+01 2.975767e+01 2.613234e+01 1.803972e+01 1.194022e+01 1.860234e+01 2.558665e+01 2.188292e+01 1.171967e+01 3.665360e+00 2.516686e-01 6.689137e+00 1.629154e+01 1.619666e+01 7.323708e+00 -1.116123e+00 -5.583465e+00 -6.000807e+00 -1.483680e+00 7.780628e+00 1.062720e+01 9.157595e-01 -7.738370e+00 -1.017806e+01 -5.188749e+00 7.440262e+00 1.327328e+01 5.006681e+00 -8.009206e+00 -1.487905e+01 -5.663747e+00 1.038512e+01 1.939103e+01 4.519474e+00 -1.169042e+01 -7.275920e+00 4.557508e+00 1.999379e+01 1.247646e+01 -8.210954e+00 -1.234318e+01 -4.493903e+00 8.421050e+00 1.405675e+01 1.323090e+01 1.397561e+01 1.022208e+01 2.567186e+00 4.488016e+00 8.444595e+00 2.121337e+00 -1.235802e-01 1.199437e+00 3.155581e+00 3.788718e+00 -6.931956e-01 -3.490232e+00 -3.805479e+00 2.219488e+00 9.477890e+00 1.591200e+01 1.276798e+01 7.304898e+00 1.655203e+01 2.205458e+01 1.822181e+01 1.565145e+01 1.459780e+01 1.939876e+01 2.333813e+01 1.357447e+01 1.209438e+00 9.714775e-02 4.942114e+00 8.109714e+00 5.937794e+00 -8.821397e+00 -1.405462e+01 -1.080682e+01 -8.314738e+00 -5.303751e+00 -4.907713e+00 -1.404645e+01 -1.741810e+01 -7.248697e+00 1.554970e+00 1.056179e+01 1.474546e+01 1.026975e+01 8.623642e+00 1.711757e+01 2.246795e+01 2.766579e+01 2.570910e+01 1.315173e+01 1.426870e+00 -1.622534e+00 0 0 0 0 
0 0 0 0 0 2.564372e-02 3.587512e-02 2.055111e-01 1.299355e-01 -4.579972e-02 4.984038e-02 2.155703e-01 2.936952e-02 -2.911642e+00 -1.656566e+00 9.961571e-01 2.159171e+00 2.790861e-01 3.469119e+00 -2.104339e-01 3.886079e+00 3.879738e-01 9.894813e-01 9.434001e-01 4.908348e-01 3.226218e-01 6.250838e-01 1.104314e+00 1.324186e+00 1.162978e+00 8.028980e-01 5.315124e-01 8.279776e-01 1.138741e+00 9.739514e-01 5.217010e-01 1.631907e-01 1.117456e-02 2.977221e-01 7.251841e-01 7.209753e-01 3.260014e-01 -4.973771e-02 -2.487008e-01 -2.672893e-01 -6.612124e-02 3.463144e-01 4.730507e-01 4.069613e-02 -3.446917e-01 -4.533671e-01 -2.311678e-01 3.311327e-01 5.908526e-01 2.228480e-01 -3.568359e-01 3.979887e-01 4.617272e+00 6.882707e+00 7.979775e+00 -5.044892e+00 -1.319857e+01 -3.333474e+00 3.606933e+00 9.914784e+00 -3.840030e+00 -1.561987e+01 -9.539138e+00 -1.051838e+00 1.071789e+01 2.984342e+00 -4.840052e+00 3.603328e-01 4.550515e-01 1.142515e-01 1.997638e-01 3.759203e-01 9.438698e-02 -5.544474e-03 5.337749e-02 1.404707e-01 1.686655e-01 -3.089149e-02 -1.554473e-01 -1.695132e-01 9.875567e-02 4.219188e-01 7.082173e-01 5.682235e-01 3.251161e-01 7.367038e-01 9.816177e-01 8.110997e-01 6.967356e-01 6.498285e-01 8.634033e-01 1.038680e+00 6.041817e-01 5.379168e-02 4.293841e-03 2.200445e-01 3.610664e-01 2.642263e-01 -3.933058e-01 -6.263455e-01 -4.815592e-01 -3.705321e-01 -2.363810e-01 -2.188386e-01 -6.262550e-01 -7.764206e-01 -3.230637e-01 6.908721e-02 4.701472e-01 6.563691e-01 4.570989e-01 3.837934e-01 7.618073e-01 9.995637e-01 1.229607e+00 1.138290e+00 5.773271e-01 5.995174e-02 -7.236500e-02 0 0 0 0 
0 0 0 0 0 0 0 0 0 0 0 0 0 -1.507507e+00 -6.592453e-01 -8.627590e-01 -4.608976e-02 -2.740028e-01 1.706360e+00 1.580458e+00 2.536101e+00 0 0 0 0 0 0 0 0 0 0 0 0 0 0 0 0 0 0 0 0 0 0 0 0 0 0 0 0 0 0 0 0 0 0 0 3.040305e-01 1.512683e+00 1.622729e+00 9.953461e-01 -4.044281e-01 -1.118972e+00 4.154705e-01 1.422825e+00 1.692585e+00 -2.672233e-01 -1.650802e+00 -6.179492e-01 8.805646e-01 2.274229e+00 8.876826e-01 -4.757854e-01 -2.268030e-02 0 0 0 0 0 0 0 0 0 0 0 0 0 0 0 0 0 0 0 0 0 0 0 0 0 0 0 0 0 0 0 0 0 0 0 0 0 0 0 0 0 0 0 0 0 0 0 0 0 0 0 0 0 0 0 
0 0 0 0 0 0 0 0 0 0 0 0 0 -8.377395e-01 -6.122462e-01 -3.153220e-01 1.511683e-01 -2.961033e-02 6.846389e-01 2.445423e-01 6.031243e-01 0 0 0 0 0 0 0 0 0 0 0 0 0 0 0 0 0 0 0 0 0 0 0 0 0 0 0 0 0 0 0 0 0 0 0 0 0 0 0 0 0 0 0 0 0 0 0 0 0 0 0 0 0 0 0 0 0 0 0 0 0 0 0 0 0 0 0 0 0 0 0 0 0 0 0 0 0 0 0 0 0 0 0 0 0 0 0 0 0 0 0 0 0 0 0 0 0 0 0 0 0 0 0 0 0 0 0 
0 0 0 0 0 0 0 0 0 0 0 0 0 -6.405349e-01 -6.315490e-01 -3.917966e-01 -2.036594e-01 -5.328695e-02 3.348468e-01 2.910802e-01 7.015663e-01 0 0 0 0 0 0 0 0 0 0 0 0 0 0 0 0 0 0 0 0 0 0 0 0 0 0 0 0 0 0 0 0 0 0 0 0 0 0 0 0 0 0 0 0 0 0 0 0 0 0 0 0 0 0 0 0 0 0 0 0 0 0 0 0 0 0 0 0 0 0 0 0 0 0 0 0 0 0 0 0 0 0 0 0 0 0 0 0 0 0 0 0 0 0 0 0 0 0 0 0 0 0 0 0 0 0 0 
0 0 0 0 0 0 0 0 0 0 0 0 0 -2.792927e-01 -5.698609e-01 -2.222441e-01 -4.142825e-01 1.683778e-01 -1.508303e-01 4.146795e-01 1.397966e-01 0 0 0 0 0 0 0 0 0 0 0 0 0 0 0 0 0 0 0 0 0 0 0 0 0 0 0 0 0 0 0 0 0 0 0 0 0 0 0 0 0 0 0 0 0 0 0 0 0 0 0 0 0 0 0 0 0 0 0 0 0 0 0 0 0 0 0 0 0 0 0 0 0 0 0 0 0 0 0 0 0 0 0 0 0 0 0 0 0 0 0 0 0 0 0 0 0 0 0 0 0 0 0 0 0 0 0 
0 0 0 0 0 0 0 0 0 0 0 0 0 -1.844448e-01 -8.233648e-01 -2.681186e-01 -8.036430e-01 1.439884e-01 -3.693031e-01 5.468570e-01 4.704360e-01 0 0 0 0 0 0 0 0 0 0 0 0 0 0 0 0 0 0 0 0 0 0 0 0 0 0 0 0 0 0 0 0 0 0 0 0 0 0 0 0 0 0 0 0 0 0 0 0 0 0 0 0 0 0 0 0 0 0 0 0 0 0 0 0 0 0 0 0 0 0 0 0 0 0 0 0 0 0 0 0 0 0 0 0 0 0 0 0 0 0 0 0 0 0 0 0 0 0 0 0 0 0 0 0 0 0 0 
0 0 0 0 0 -1.318588e-02 1.264431e-01 1.920159e-01 1.631831e-01 3.760340e-02 4.477431e-02 1.242603e-01 1.717555e-01 1.293947e-01 -1.051793e+00 -1.684187e+00 -1.532845e+00 6.881536e-01 -9.089852e-01 2.406142e+00 -7.982345e-01 -8.874615e-01 -7.163390e-01 -4.873724e-01 -4.010768e-01 -5.596296e-01 -8.763036e-01 -9.318248e-01 -5.994416e-01 -1.975461e-01 -6.056668e-02 -8.606794e-02 -1.836647e-01 -2.028802e-01 -1.712453e-01 -1.724273e-03 1.080230e-01 3.901391e-02 -2.165434e-01 -5.409798e-01 -8.414148e-01 -9.680254e-01 -7.906569e-01 -5.329638e-01 -6.126056e-01 -1.041189e+00 -1.349847e+00 -1.276325e+00 -1.011148e+00 -6.421062e-01 -4.877777e-01 -7.976096e-01 -8.803302e-01 -4.629086e-01 -4.167383e-02 -3.802201e-02 -2.713062e-01 -5.243611e-01 -5.178937e-01 -2.699378e-01 -7.989295e-02 -1.578977e-01 -4.902854e-01 -6.801727e-01 -4.920631e-01 -2.162353e-01 -1.822255e-01 -2.952239e-01 -3.900339e-01 -5.541569e-01 -6.499309e-01 -3.429249e-01 -1.087737e-01 -2.923925e-01 -5.476016e-01 -5.117042e-01 -3.942142e-01 -4.192899e-01 -4.182952e-01 -3.423414e-01 -1.909382e-01 -6.275704e-02 4.588239e-02 1.863275e-01 1.496263e-01 -1.216043e-01 -6.295205e-02 3.473140e-01 5.618104e-01 3.174958e-01 3.374933e-02 -4.990527e-02 8.833070e-02 2.964015e-01 3.034731e-01 1.455497e-01 -1.599198e-01 -3.147583e-01 -1.391593e-01 2.524762e-01 3.282359e-01 -6.511257e-03 -5.153185e-01 -7.128524e-01 -4.749910e-01 4.251125e-02 3.297029e-01 2.342072e-01 -1.493191e-01 -2.682387e-01 -2.506054e-02 2.372197e-01 2.790700e-01 1.495128e-01 7.346691e-02 2.802136e-02 8.819270e-02 -1.088540e-02 -1.203524e-01 -2.904328e-01 -2.392451e-01 -1.315309e-01 -4.037093e-03 7.028425e-02 0 0 0 0 
0 0 0 0 0 -2.962133e-01 2.835007e+00 4.303798e+00 3.658429e+00 8.403408e-01 1.001627e+00 2.787172e+00 3.853561e+00 1.952463e+00 -1.933284e+00 -2.048292e+00 -5.837004e+00 -5.369609e+00 -9.900337e+00 -9.477699e+00 -1.588757e+01 -1.993868e+01 -1.609391e+01 -1.094822e+01 -9.009638e+00 -1.257284e+01 -1.968794e+01 -2.093571e+01 -1.346792e+01 -4.437599e+00 -1.360423e+00 -1.933169e+00 -4.124844e+00 -4.556296e+00 -3.845935e+00 -3.918635e-02 2.425413e+00 8.757185e-01 -4.864208e+00 -1.215214e+01 -1.890363e+01 -2.174894e+01 -1.776252e+01 -1.197214e+01 -1.376226e+01 -2.339453e+01 -3.033357e+01 -2.868060e+01 -2.271880e+01 -1.442575e+01 -1.095754e+01 -1.791933e+01 -1.977807e+01 -1.039955e+01 -9.366383e-01 -8.541381e-01 -6.093685e+00 -1.177864e+01 -1.163337e+01 -6.062931e+00 -1.794403e+00 -3.546723e+00 -1.101325e+01 -1.527936e+01 -1.105334e+01 -4.856584e+00 -4.092427e+00 -6.630562e+00 -8.760309e+00 -1.244798e+01 -1.460021e+01 -7.703625e+00 -2.443238e+00 -6.567475e+00 -1.230071e+01 -1.149426e+01 -8.854373e+00 -9.417493e+00 -9.395094e+00 -7.688945e+00 -4.288211e+00 -1.409345e+00 1.030171e+00 4.183503e+00 3.359026e+00 -2.731957e+00 -1.415142e+00 7.796492e+00 1.261121e+01 7.126284e+00 7.569659e-01 -1.121473e+00 1.981905e+00 6.654135e+00 6.813297e+00 3.267356e+00 -3.592011e+00 -7.069302e+00 -3.126198e+00 5.667304e+00 7.368675e+00 -1.479464e-01 -1.157770e+01 -1.601477e+01 -1.067104e+01 9.495699e-01 7.399505e+00 5.255144e+00 -3.360392e+00 -6.030346e+00 -5.669999e-01 5.320846e+00 6.260606e+00 3.353607e+00 1.646722e+00 6.270330e-01 1.978719e+00 -2.465189e-01 -2.712091e+00 -6.558990e+00 -5.513871e+00 -3.137745e+00 -1.646346e-01 1.575949e+00 0 0 0 0 
0 0 0 0 0 -4.288452e-01 4.103017e+00 6.228389e+00 5.294647e+00 1.215494e+00 1.449046e+00 4.034068e+00 5.577799e+00 3.539752e+00 -2.555033e-01 9.097423e-01 -3.941675e+00 -8.347517e+00 -1.200227e+01 -1.928716e+01 -2.568140e+01 -2.886699e+01 -2.330054e+01 -1.585029e+01 -1.304369e+01 -1.820271e+01 -2.850395e+01 -3.031055e+01 -1.949875e+01 -6.424530e+00 -1.969519e+00 -2.798686e+00 -5.971503e+00 -6.596086e+00 -5.567731e+00 -5.684696e-02 3.511091e+00 1.267649e+00 -7.042116e+00 -1.759320e+01 -2.736833e+01 -3.148791e+01 -2.571605e+01 -1.733262e+01 -1.992453e+01 -3.387084e+01 -4.391821e+01 -4.152478e+01 -3.289232e+01 -2.088530e+01 -1.586384e+01 -2.594323e+01 -2.863436e+01 -1.505619e+01 -1.356142e+00 -1.236584e+00 -8.821914e+00 -1.705240e+01 -1.684209e+01 -8.777386e+00 -2.597774e+00 -5.134707e+00 -1.594433e+01 -2.212073e+01 -1.600241e+01 -7.030901e+00 -5.924548e+00 -9.599076e+00 -1.268241e+01 -1.802145e+01 -2.113754e+01 -1.115299e+01 -3.537141e+00 -9.507873e+00 -1.780824e+01 -1.664068e+01 -1.281863e+01 -1.363384e+01 -1.360140e+01 -1.113134e+01 -6.208012e+00 -2.040275e+00 1.491298e+00 6.056132e+00 4.862488e+00 -3.955261e+00 -2.049027e+00 1.128598e+01 1.825555e+01 1.031559e+01 1.095601e+00 -1.623718e+00 2.868711e+00 9.632472e+00 9.862978e+00 4.729748e+00 -5.200237e+00 -1.023424e+01 -4.525995e+00 8.203762e+00 1.066680e+01 -2.146157e-01 -1.676206e+01 -2.318576e+01 -1.544925e+01 1.373372e+00 1.071090e+01 7.606607e+00 -4.866564e+00 -8.731629e+00 -8.219014e-01 7.701228e+00 9.061676e+00 4.853914e+00 2.383124e+00 9.071701e-01 2.864077e+00 -3.574035e-01 -3.928595e+00 -9.504609e+00 -8.018136e+00 -4.589160e+00 -2.571285e-01 2.280846e+00 0 0 0 0 
0 0 0 0 0 -1.458178e-01 1.394453e+00 2.116607e+00 1.799400e+00 4.127566e-01 4.921941e-01 1.371157e+00 1.895993e+00 1.203075e+00 -8.711369e-02 3.091801e-01 -1.340205e+00 -2.838186e+00 -4.080898e+00 -6.558060e+00 -8.732399e+00 -9.815768e+00 -7.922967e+00 -5.389445e+00 -4.435133e+00 -6.189498e+00 -9.692318e+00 -1.030667e+01 -6.630271e+00 -2.184476e+00 -6.696629e-01 -9.515844e-01 -2.030323e+00 -2.242671e+00 -1.893042e+00 -1.938488e-02 1.193701e+00 4.309446e-01 -2.394452e+00 -5.982033e+00 -9.306110e+00 -1.070700e+01 -8.744187e+00 -5.893441e+00 -6.774876e+00 -1.151750e+01 -1.493449e+01 -1.412050e+01 -1.118467e+01 -7.101657e+00 -5.394080e+00 -8.821511e+00 -9.736619e+00 -5.119540e+00 -4.611778e-01 -4.204681e-01 -2.999536e+00 -5.798128e+00 -5.726620e+00 -2.984393e+00 -8.832637e-01 -1.745881e+00 -5.421370e+00 -7.521545e+00 -5.441136e+00 -2.390552e+00 -2.014347e+00 -3.263737e+00 -4.312132e+00 -6.127627e+00 -7.187262e+00 -3.792288e+00 -1.202677e+00 -3.232790e+00 -6.055132e+00 -5.658129e+00 -4.358470e+00 -4.635639e+00 -4.624601e+00 -3.784733e+00 -2.110739e+00 -6.936868e-01 5.070098e-01 2.058957e+00 1.653088e+00 -1.344908e+00 -6.968372e-01 3.836805e+00 6.206158e+00 3.506805e+00 3.723840e-01 -5.521501e-01 9.751369e-01 3.274739e+00 3.353153e+00 1.607942e+00 -1.768146e+00 -3.479698e+00 -1.538956e+00 2.788934e+00 3.626362e+00 -7.318056e-02 -5.699676e+00 -7.883838e+00 -5.253199e+00 4.663130e-01 3.641094e+00 2.585670e+00 -1.655491e+00 -2.969522e+00 -2.799620e-01 2.617601e+00 3.080140e+00 1.649820e+00 8.098686e-01 3.081584e-01 9.735506e-01 -1.217700e-01 -1.336857e+00 -3.236052e+00 -2.743511e+00 -1.582946e+00 -9.653104e-02 7.751807e-01 0 0 0 0 
0 0 0 0 0 0 0 0 0 0 0 0 0 0 0 0 0 0 0 0 0 0 0 0 0 0 0 0 0 0 0 0 0 0 0 0 0 0 0 0 0 0 0 0 0 0 0 0 0 0 0 0 0 0 0 0 0 0 0 0 0 0 0 0 0 0 0 0 0 0 0 0 0 0 0 0 0 0 0 0 0 0 0 0 0 0 0 0 0 0 0 0 0 0 0 0 0 0 0 0 0 0 0 0 0 0 0 0 0 0 0 0 0 0 0 0 0 0 0 0 0 0 0 0 0 0 0 0 
