# vtk DataFile Version 2.0
Comment goes here
ASCII

DATASET STRUCTURED_POINTS
FIELD FieldData 1
TIME 1 1 double
0.38000000
DIMENSIONS    128   16   1

ORIGIN    0.000   0.000   0.000
SPACING   0.0078125 0.015625   1.000

POINT_DATA   2048
SCALARS fY double
LOOKUP_TABLE default

0 0 0 0 0 0 0 0 0 0 0 0 0 0 0 0 0 0 0 0 0 0 0 0 0 0 0 0 0 0 0 0 0 0 0 0 0 0 0 0 0 0 0 0 0 0 0 0 0 0 0 0 0 0 0 0 0 0 0 0 0 0 0 0 0 0 0 0 0 0 0 0 0 0 0 0 0 0 0 0 0 0 0 0 0 0 0 0 0 0 0 0 0 0 0 0 0 0 0 0 0 0 0 0 0 0 0 0 0 0 0 0 0 0 0 0 0 0 0 0 0 0 0 0 0 0 0 0 
0 0 0 0 0 0 0 0 0 0 0 0 0 0 0 0 0 0 0 0 0 0 0 0 0 0 0 0 0 0 0 0 0 0 0 0 0 0 0 0 0 0 0 0 0 0 0 0 0 0 0 0 0 0 0 0 0 0 0 0 0 0 0 0 0 0 0 0 0 0 0 0 0 0 0 0 0 0 0 0 0 0 0 0 0 0 0 0 0 0 0 0 0 0 0 0 0 0 0 0 0 0 0 0 0 0 0 0 0 0 0 0 0 0 0 0 0 0 0 0 0 0 0 0 0 0 0 0 
0 0 0 0 0 2.618860e-01 -4.436114e-01 -2.895987e-01 -5.283936e-01 -5.515945e-01 -6.598535e-01 -6.134179e-01 -7.039202e-01 -3.987981e-01 6.457075e-01 6.587143e-01 2.216292e+00 3.077307e+00 3.833193e+00 5.238072e+00 5.219772e+00 5.376357e+00 5.252585e+00 5.545890e+00 5.899306e+00 6.035237e+00 6.054343e+00 5.773755e+00 5.772403e+00 5.596159e+00 5.763840e+00 5.526339e+00 5.536395e+00 5.223632e+00 5.355488e+00 5.326870e+00 5.576696e+00 5.470462e+00 5.388244e+00 5.104487e+00 5.026532e+00 5.012626e+00 4.935512e+00 4.666577e+00 4.160065e+00 3.851862e+00 3.702438e+00 3.959152e+00 4.049489e+00 4.133998e+00 3.875126e+00 3.774912e+00 3.593658e+00 3.570295e+00 3.393145e+00 3.236654e+00 3.378775e+00 4.875596e+00 4.629602e+00 1.810788e+00 7.339466e+00 1.094906e+01 7.750666e+00 6.274493e+00 3.236135e+00 7.421323e+00 1.002005e+01 6.387809e+00 5.131725e+00 2.418325e+00 5.953796e+00 7.453336e+00 3.976553e+00 3.347124e+00 2.941485e+00 2.808076e+00 2.794014e+00 2.931921e+00 2.851212e+00 2.873255e+00 2.618099e+00 2.642047e+00 2.443156e+00 2.682597e+00 2.698717e+00 3.028809e+00 2.983467e+00 3.163544e+00 3.036657e+00 3.029386e+00 2.713728e+00 2.421117e+00 2.209094e+00 2.199632e+00 2.400208e+00 2.267547e+00 2.116989e+00 1.497559e+00 1.385773e+00 1.024892e+00 1.287789e+00 9.909802e-01 1.222488e+00 8.521461e-01 1.085520e+00 7.668887e-01 9.613421e-01 6.962925e-01 7.857979e-01 5.676538e-01 5.999605e-01 7.357828e-01 9.060365e-01 1.228579e+00 9.794252e-01 1.068006e+00 6.362202e-01 1.101276e+00 7.520069e-01 1.049141e+00 2.641534e-01 3.600347e-01 -1.814811e-01 -6.697735e-01 0 0 0 0 
0 0 0 0 0 7.702008e-01 -1.306181e+00 -8.544701e-01 -1.556229e+00 -1.623604e+00 -1.941781e+00 -1.805110e+00 -2.071265e+00 -1.173762e+00 1.898705e+00 1.937167e+00 6.518407e+00 9.050823e+00 1.127384e+01 1.540543e+01 1.535155e+01 1.581196e+01 1.544786e+01 1.631034e+01 1.734971e+01 1.774947e+01 1.780569e+01 1.698061e+01 1.697670e+01 1.645846e+01 1.695166e+01 1.625326e+01 1.628287e+01 1.536309e+01 1.575087e+01 1.566669e+01 1.640137e+01 1.608893e+01 1.584711e+01 1.501257e+01 1.478330e+01 1.474240e+01 1.451562e+01 1.372469e+01 1.223511e+01 1.132870e+01 1.088927e+01 1.164429e+01 1.190999e+01 1.215854e+01 1.139722e+01 1.110250e+01 1.056943e+01 1.050072e+01 9.979712e+00 9.519469e+00 9.038909e+00 9.484311e+00 1.065684e+01 9.177886e+00 1.484928e+01 1.864768e+01 1.588360e+01 1.573636e+01 1.251050e+01 1.586817e+01 1.776723e+01 1.359266e+01 1.331834e+01 9.958572e+00 1.417613e+01 1.589804e+01 1.141565e+01 9.844204e+00 8.651218e+00 8.258854e+00 8.217496e+00 8.623116e+00 8.385782e+00 8.450632e+00 7.700233e+00 7.770684e+00 7.185732e+00 7.889938e+00 7.937324e+00 8.908095e+00 8.774692e+00 9.304245e+00 8.931003e+00 8.909564e+00 7.981133e+00 7.120552e+00 6.496949e+00 6.469135e+00 7.059111e+00 6.669008e+00 6.226246e+00 4.404515e+00 4.075784e+00 3.014392e+00 3.787607e+00 2.914576e+00 3.595362e+00 2.505933e+00 3.192113e+00 2.254696e+00 2.826354e+00 2.046510e+00 2.309528e+00 1.667708e+00 1.762643e+00 2.162163e+00 2.662978e+00 3.611901e+00 2.879428e+00 3.140270e+00 1.870603e+00 3.238412e+00 2.209812e+00 3.077416e+00 7.415536e-01 1.012140e+00 -5.525828e-01 -1.970603e+00 0 0 0 0 
0 0 0 0 0 5.319969e-01 -9.029533e-01 -5.915449e-01 -1.076009e+00 -1.122131e+00 -1.341802e+00 -1.247349e+00 -1.431184e+00 -2.430642e+00 1.914766e+00 1.582633e+00 5.426244e+00 4.722732e+00 9.113397e+00 7.694939e+00 1.271972e+01 1.092181e+01 1.067028e+01 1.126597e+01 1.198387e+01 1.225999e+01 1.229883e+01 1.172899e+01 1.172632e+01 1.136841e+01 1.170910e+01 1.122674e+01 1.124720e+01 1.061191e+01 1.087976e+01 1.082161e+01 1.132905e+01 1.111323e+01 1.094619e+01 1.036975e+01 1.021139e+01 1.018313e+01 1.002649e+01 9.480180e+00 8.451314e+00 7.825237e+00 7.521719e+00 8.043254e+00 8.226785e+00 8.398472e+00 7.872613e+00 7.669044e+00 7.300839e+00 7.253378e+00 6.893503e+00 6.575599e+00 6.208841e+00 4.604793e+00 4.973100e+00 1.026782e+01 5.388472e+00 2.223811e+00 6.303219e+00 5.527818e+00 9.492848e+00 4.203596e+00 1.309538e+00 4.259444e+00 3.146219e+00 6.651997e+00 3.369581e+00 2.233908e+00 7.554198e+00 6.799825e+00 5.975796e+00 5.704773e+00 5.676206e+00 5.956397e+00 5.792478e+00 5.837282e+00 5.318967e+00 5.367639e+00 4.963589e+00 5.450010e+00 5.482730e+00 6.153255e+00 6.061085e+00 6.426835e+00 6.168994e+00 6.154160e+00 5.512826e+00 4.918392e+00 4.487631e+00 4.468426e+00 4.875979e+00 4.606549e+00 4.300734e+00 3.042418e+00 2.815370e+00 2.082216e+00 2.616315e+00 2.013231e+00 2.483431e+00 1.730809e+00 2.204690e+00 1.557033e+00 1.951782e+00 1.412960e+00 1.594529e+00 1.151080e+00 1.216616e+00 1.492608e+00 1.838584e+00 2.494189e+00 1.988389e+00 2.168718e+00 1.291827e+00 2.236651e+00 1.525489e+00 2.121730e+00 4.950951e-01 6.764734e-01 -3.908177e-01 -1.361539e+00 0 0 0 0 
0 0 0 0 0 2.368209e-02 -4.038371e-02 -2.667348e-02 -4.817421e-02 -5.012163e-02 -5.987452e-02 -5.565697e-02 -6.383925e-02 -1.410453e+00 5.588340e-01 8.362330e-01 9.517573e-01 -8.747817e-01 1.400930e+00 -2.398288e+00 1.873532e+00 4.862159e-01 4.750086e-01 5.015110e-01 5.334666e-01 5.457562e-01 5.474889e-01 5.221367e-01 5.220266e-01 5.061057e-01 5.212782e-01 4.998163e-01 5.007311e-01 4.724567e-01 4.843791e-01 4.817896e-01 5.043720e-01 4.947628e-01 4.873254e-01 4.616631e-01 4.546127e-01 4.533546e-01 4.463826e-01 4.220636e-01 3.762699e-01 3.484008e-01 3.348919e-01 3.581130e-01 3.662851e-01 3.739293e-01 3.505222e-01 3.414608e-01 3.250696e-01 3.229566e-01 3.069354e-01 2.927830e-01 8.115411e-01 1.096170e+00 -3.958815e-02 3.888689e+00 -1.608430e+00 -5.548585e+00 -1.453302e+00 -3.606214e+00 9.869056e-01 -4.135907e+00 -6.787795e+00 -2.901454e+00 -4.988128e+00 -1.871188e-01 -4.893846e+00 -6.826380e+00 9.791451e-02 3.027452e-01 2.660620e-01 2.539957e-01 2.527239e-01 2.652016e-01 2.579081e-01 2.599054e-01 2.368334e-01 2.390025e-01 2.210137e-01 2.426690e-01 2.441228e-01 2.739690e-01 2.698594e-01 2.861347e-01 2.746482e-01 2.739813e-01 2.454211e-01 2.189571e-01 1.997758e-01 1.989224e-01 2.170757e-01 2.050880e-01 1.914773e-01 1.354627e-01 1.253593e-01 9.271650e-02 1.164972e-01 8.963536e-02 1.105575e-01 7.702200e-02 9.809653e-02 6.922517e-02 8.676998e-02 6.274231e-02 7.079839e-02 5.102568e-02 5.393334e-02 6.622792e-02 8.164186e-02 1.108673e-01 8.838613e-02 9.645412e-02 5.744398e-02 9.951456e-02 6.768350e-02 9.345508e-02 1.769485e-02 2.436772e-02 -1.971604e-02 -6.070987e-02 0 0 0 0 
0 0 0 0 0 0 0 0 0 0 0 0 0 -4.351275e-01 6.671415e-02 -3.398201e-01 3.315336e-01 -3.864766e-01 5.183938e-01 -2.544061e-01 3.303087e-01 0 0 0 0 0 0 0 0 0 0 0 0 0 0 0 0 0 0 0 0 0 0 0 0 0 0 0 0 0 0 0 0 0 0 0 2.628335e-01 1.100092e+00 1.014547e+00 9.879646e-01 5.129086e-01 -7.377642e-02 3.764078e-01 3.278338e-01 7.684262e-01 1.073472e-01 -3.501508e-01 4.395304e-02 5.227190e-02 7.011319e-01 -4.109743e-02 -6.155832e-01 -1.718397e-02 0 0 0 0 0 0 0 0 0 0 0 0 0 0 0 0 0 0 0 0 0 0 0 0 0 0 0 0 0 0 0 0 0 0 0 0 0 0 0 0 0 0 0 0 0 0 0 0 0 0 0 0 0 0 0 
0 0 0 0 0 0 0 0 0 0 0 0 0 -2.339260e-01 5.973014e-02 -1.177711e-01 2.023378e-01 -2.203095e-01 3.037918e-01 -2.103656e-01 1.939251e-01 0 0 0 0 0 0 0 0 0 0 0 0 0 0 0 0 0 0 0 0 0 0 0 0 0 0 0 0 0 0 0 0 0 0 0 0 0 0 0 0 0 0 0 0 0 0 0 0 0 0 0 0 0 0 0 0 0 0 0 0 0 0 0 0 0 0 0 0 0 0 0 0 0 0 0 0 0 0 0 0 0 0 0 0 0 0 0 0 0 0 0 0 0 0 0 0 0 0 0 0 0 0 0 0 0 0 0 
0 0 0 0 0 0 0 0 0 0 0 0 0 3.687461e-03 1.836552e-02 2.486873e-02 5.231401e-02 6.747515e-02 1.102413e-01 1.316829e-01 1.827940e-01 0 0 0 0 0 0 0 0 0 0 0 0 0 0 0 0 0 0 0 0 0 0 0 0 0 0 0 0 0 0 0 0 0 0 0 0 0 0 0 0 0 0 0 0 0 0 0 0 0 0 0 0 0 0 0 0 0 0 0 0 0 0 0 0 0 0 0 0 0 0 0 0 0 0 0 0 0 0 0 0 0 0 0 0 0 0 0 0 0 0 0 0 0 0 0 0 0 0 0 0 0 0 0 0 0 0 0 
0 0 0 0 0 0 0 0 0 0 0 0 0 2.067191e-01 -7.413757e-02 9.647489e-02 -1.816074e-01 2.614103e-01 -1.719836e-01 3.811195e-01 1.099462e-01 0 0 0 0 0 0 0 0 0 0 0 0 0 0 0 0 0 0 0 0 0 0 0 0 0 0 0 0 0 0 0 0 0 0 0 0 0 0 0 0 0 0 0 0 0 0 0 0 0 0 0 0 0 0 0 0 0 0 0 0 0 0 0 0 0 0 0 0 0 0 0 0 0 0 0 0 0 0 0 0 0 0 0 0 0 0 0 0 0 0 0 0 0 0 0 0 0 0 0 0 0 0 0 0 0 0 0 
0 0 0 0 0 0 0 0 0 0 0 0 0 3.836495e-01 -1.051804e-01 3.032217e-01 -3.228162e-01 4.350218e-01 -3.591892e-01 5.142586e-01 1.133900e-01 0 0 0 0 0 0 0 0 0 0 0 0 0 0 0 0 0 0 0 0 0 0 0 0 0 0 0 0 0 0 0 0 0 0 0 0 0 0 0 0 0 0 0 0 0 0 0 0 0 0 0 0 0 0 0 0 0 0 0 0 0 0 0 0 0 0 0 0 0 0 0 0 0 0 0 0 0 0 0 0 0 0 0 0 0 0 0 0 0 0 0 0 0 0 0 0 0 0 0 0 0 0 0 0 0 0 0 
0 0 0 0 0 -2.337909e-02 4.136347e-02 2.344772e-02 3.422616e-02 2.728714e-02 3.643505e-02 3.946164e-02 5.483993e-02 1.334317e+00 -8.164131e-01 -1.094457e+00 -1.243757e+00 6.367342e-01 -1.534565e+00 2.347225e+00 -1.620310e+00 -6.093688e-01 -5.911812e-01 -5.603844e-01 -5.260499e-01 -5.044766e-01 -5.093444e-01 -4.947753e-01 -4.910848e-01 -4.577276e-01 -4.636126e-01 -4.560684e-01 -4.870098e-01 -4.818305e-01 -4.899193e-01 -4.580772e-01 -4.465903e-01 -4.218944e-01 -4.229673e-01 -4.142606e-01 -4.095362e-01 -4.000625e-01 -4.020982e-01 -4.250461e-01 -4.472193e-01 -4.663287e-01 -4.496525e-01 -4.367144e-01 -4.146294e-01 -4.215112e-01 -4.107752e-01 -4.070239e-01 -3.809192e-01 -3.774499e-01 -3.745707e-01 -3.881829e-01 -3.820692e-01 -3.587498e-01 -3.124247e-01 -2.608084e-01 -2.289988e-01 -2.219131e-01 -2.546619e-01 -2.816691e-01 -3.105243e-01 -3.075235e-01 -3.195220e-01 -3.249762e-01 -3.417316e-01 -3.238226e-01 -2.964317e-01 -2.631770e-01 -2.693320e-01 -2.996666e-01 -3.365907e-01 -3.531041e-01 -3.450234e-01 -3.379042e-01 -3.254327e-01 -3.326764e-01 -3.158116e-01 -3.035431e-01 -2.531113e-01 -2.246085e-01 -1.877485e-01 -2.061929e-01 -2.178324e-01 -2.429095e-01 -2.159608e-01 -1.848286e-01 -1.476139e-01 -1.454012e-01 -1.551361e-01 -1.588362e-01 -1.648557e-01 -1.600701e-01 -1.878672e-01 -1.835245e-01 -1.941152e-01 -1.489064e-01 -1.583167e-01 -1.426717e-01 -1.934930e-01 -1.828989e-01 -2.027931e-01 -1.536058e-01 -1.477852e-01 -1.101215e-01 -1.255615e-01 -1.280631e-01 -1.420241e-01 -1.270997e-01 -8.215637e-02 -5.448091e-02 -1.622231e-02 -4.150282e-02 -6.642029e-03 -1.895142e-02 4.459424e-02 8.298661e-03 3.143189e-02 -2.283759e-02 1.289057e-02 6.005150e-02 0 0 0 0 
0 0 0 0 0 -5.251892e-01 9.249669e-01 5.190948e-01 7.628321e-01 6.093962e-01 8.154776e-01 8.837249e-01 1.229108e+00 1.946143e+00 -2.464552e+00 -2.200115e+00 -6.107409e+00 -5.467518e+00 -9.943853e+00 -8.674870e+00 -1.389926e+01 -1.368900e+01 -1.328058e+01 -1.258861e+01 -1.181731e+01 -1.133251e+01 -1.144172e+01 -1.111420e+01 -1.103112e+01 -1.028145e+01 -1.041348e+01 -1.024387e+01 -1.093891e+01 -1.082250e+01 -1.100424e+01 -1.028890e+01 -1.003088e+01 -9.476159e+00 -9.500333e+00 -9.304798e+00 -9.198693e+00 -8.985906e+00 -9.031636e+00 -9.547097e+00 -1.004523e+01 -1.047447e+01 -1.009973e+01 -9.809022e+00 -9.312810e+00 -9.467365e+00 -9.226152e+00 -9.141877e+00 -8.555451e+00 -8.477522e+00 -8.412867e+00 -8.718693e+00 -8.581372e+00 -8.057522e+00 -7.016964e+00 -5.857488e+00 -5.143008e+00 -4.983840e+00 -5.719362e+00 -6.325984e+00 -6.974122e+00 -6.906709e+00 -7.176237e+00 -7.298773e+00 -7.675200e+00 -7.272950e+00 -6.657685e+00 -5.910792e+00 -6.049082e+00 -6.730438e+00 -7.559920e+00 -7.930843e+00 -7.749277e+00 -7.589332e+00 -7.309130e+00 -7.471794e+00 -7.092912e+00 -6.817329e+00 -5.684537e+00 -5.044350e+00 -4.216565e+00 -4.630938e+00 -4.892463e+00 -5.455914e+00 -4.850821e+00 -4.151626e+00 -3.316000e+00 -3.266371e+00 -3.484967e+00 -3.568024e+00 -3.703113e+00 -3.595478e+00 -4.219556e+00 -4.121848e+00 -4.359601e+00 -3.344143e+00 -3.555502e+00 -3.204326e+00 -4.346123e+00 -4.108605e+00 -4.556055e+00 -3.452153e+00 -3.322069e+00 -2.477057e+00 -2.824479e+00 -2.881042e+00 -3.194930e+00 -2.859831e+00 -1.849907e+00 -1.228026e+00 -3.679736e-01 -9.346324e-01 -1.509147e-01 -4.275705e-01 9.956041e-01 1.636823e-01 6.078697e-01 -6.428520e-01 2.375399e-01 1.346793e+00 0 0 0 0 
0 0 0 0 0 -7.603446e-01 1.338052e+00 7.495835e-01 1.102864e+00 8.813461e-01 1.179849e+00 1.278720e+00 1.778731e+00 9.184769e-01 -2.203618e+00 -2.271634e+00 -6.810841e+00 -9.380661e+00 -1.188043e+01 -1.685959e+01 -1.820383e+01 -1.981832e+01 -1.922707e+01 -1.822524e+01 -1.710859e+01 -1.640667e+01 -1.656474e+01 -1.609051e+01 -1.597019e+01 -1.488477e+01 -1.507587e+01 -1.483028e+01 -1.583652e+01 -1.566796e+01 -1.593109e+01 -1.489545e+01 -1.452190e+01 -1.371882e+01 -1.375383e+01 -1.347076e+01 -1.331715e+01 -1.300910e+01 -1.307530e+01 -1.382155e+01 -1.454274e+01 -1.516416e+01 -1.462159e+01 -1.420071e+01 -1.348229e+01 -1.370604e+01 -1.335681e+01 -1.323480e+01 -1.238580e+01 -1.227298e+01 -1.217938e+01 -1.262215e+01 -1.242335e+01 -1.166494e+01 -1.015849e+01 -8.479864e+00 -7.445496e+00 -7.215061e+00 -8.279879e+00 -9.158100e+00 -1.009643e+01 -9.998829e+00 -1.038904e+01 -1.056644e+01 -1.111143e+01 -1.052908e+01 -9.638341e+00 -8.557059e+00 -8.757275e+00 -9.743690e+00 -1.094458e+01 -1.148158e+01 -1.121870e+01 -1.098714e+01 -1.058146e+01 -1.081695e+01 -1.026841e+01 -9.869438e+00 -8.229463e+00 -7.302656e+00 -6.104288e+00 -6.704207e+00 -7.082845e+00 -7.898613e+00 -7.022659e+00 -6.010437e+00 -4.800750e+00 -4.728919e+00 -5.045370e+00 -5.165600e+00 -5.361142e+00 -5.205280e+00 -6.108701e+00 -5.967205e+00 -6.311371e+00 -4.841268e+00 -5.147255e+00 -4.638909e+00 -6.291987e+00 -5.948238e+00 -6.596174e+00 -4.998259e+00 -4.810100e+00 -3.587001e+00 -4.090131e+00 -4.172112e+00 -4.626613e+00 -4.141514e+00 -2.679312e+00 -1.778936e+00 -5.336374e-01 -1.353704e+00 -2.189208e-01 -6.194851e-01 1.439825e+00 2.312007e-01 8.551104e-01 -9.636558e-01 3.306867e-01 1.949264e+00 0 0 0 0 
0 0 0 0 0 -2.585346e-01 4.544490e-01 2.539365e-01 3.742577e-01 2.992371e-01 4.008065e-01 4.344565e-01 6.044626e-01 3.120023e-01 -7.493776e-01 -7.724322e-01 -2.315722e+00 -3.189458e+00 -4.039452e+00 -5.732548e+00 -6.189654e+00 -6.738696e+00 -6.537676e+00 -6.197012e+00 -5.817324e+00 -5.578632e+00 -5.632363e+00 -5.471085e+00 -5.430153e+00 -5.061042e+00 -5.126001e+00 -5.042479e+00 -5.384618e+00 -5.327297e+00 -5.416770e+00 -5.064624e+00 -4.937610e+00 -4.664552e+00 -4.676467e+00 -4.580222e+00 -4.527995e+00 -4.423253e+00 -4.445764e+00 -4.699501e+00 -4.944724e+00 -5.156016e+00 -4.971516e+00 -4.828399e+00 -4.584109e+00 -4.660183e+00 -4.541434e+00 -4.499946e+00 -4.211265e+00 -4.172904e+00 -4.141081e+00 -4.291639e+00 -4.224044e+00 -3.966168e+00 -3.453952e+00 -2.883185e+00 -2.531487e+00 -2.453135e+00 -2.815179e+00 -3.113786e+00 -3.432831e+00 -3.399644e+00 -3.532324e+00 -3.592647e+00 -3.777957e+00 -3.579954e+00 -3.277087e+00 -2.909445e+00 -2.977525e+00 -3.312919e+00 -3.721252e+00 -3.903838e+00 -3.814450e+00 -3.735710e+00 -3.597767e+00 -3.677829e+00 -3.491311e+00 -3.355653e+00 -2.798037e+00 -2.482914e+00 -2.075471e+00 -2.279462e+00 -2.408214e+00 -2.685609e+00 -2.387799e+00 -2.043640e+00 -1.632364e+00 -1.607949e+00 -1.715539e+00 -1.756412e+00 -1.822885e+00 -1.769872e+00 -2.077012e+00 -2.028881e+00 -2.145886e+00 -1.646031e+00 -1.750070e+00 -1.577254e+00 -2.139356e+00 -2.022531e+00 -2.242912e+00 -1.699712e+00 -1.635817e+00 -1.220066e+00 -1.391213e+00 -1.419133e+00 -1.573707e+00 -1.408782e+00 -9.115615e-01 -6.053913e-01 -1.818861e-01 -4.605747e-01 -7.464813e-02 -2.108660e-01 4.888155e-01 7.581702e-02 2.786726e-01 -3.436414e-01 1.060374e-01 6.625231e-01 0 0 0 0 
0 0 0 0 0 0 0 0 0 0 0 0 0 0 0 0 0 0 0 0 0 0 0 0 0 0 0 0 0 0 0 0 0 0 0 0 0 0 0 0 0 0 0 0 0 0 0 0 0 0 0 0 0 0 0 0 0 0 0 0 0 0 0 0 0 0 0 0 0 0 0 0 0 0 0 0 0 0 0 0 0 0 0 0 0 0 0 0 0 0 0 0 0 0 0 0 0 0 0 0 0 0 0 0 0 0 0 0 0 0 0 0 0 0 0 0 0 0 0 0 0 0 0 0 0 0 0 0 
