# vtk DataFile Version 2.0
Comment goes here
ASCII

DATASET STRUCTURED_POINTS
FIELD FieldData 1
TIME 1 1 double
0.68000000
DIMENSIONS    128   16   1

ORIGIN    0.000   0.000   0.000
SPACING   0.0078125 0.015625   1.000

POINT_DATA   2048
SCALARS fY double
LOOKUP_TABLE default

0 0 0 0 0 0 0 0 0 0 0 0 0 0 0 0 0 0 0 0 0 0 0 0 0 0 0 0 0 0 0 0 0 0 0 0 0 0 0 0 0 0 0 0 0 0 0 0 0 0 0 0 0 0 0 0 0 0 0 0 0 0 0 0 0 0 0 0 0 0 0 0 0 0 0 0 0 0 0 0 0 0 0 0 0 0 0 0 0 0 0 0 0 0 0 0 0 0 0 0 0 0 0 0 0 0 0 0 0 0 0 0 0 0 0 0 0 0 0 0 0 0 0 0 0 0 0 0 
0 0 0 0 0 0 0 0 0 0 0 0 0 0 0 0 0 0 0 0 0 0 0 0 0 0 0 0 0 0 0 0 0 0 0 0 0 0 0 0 0 0 0 0 0 0 0 0 0 0 0 0 0 0 0 0 0 0 0 0 0 0 0 0 0 0 0 0 0 0 0 0 0 0 0 0 0 0 0 0 0 0 0 0 0 0 0 0 0 0 0 0 0 0 0 0 0 0 0 0 0 0 0 0 0 0 0 0 0 0 0 0 0 0 0 0 0 0 0 0 0 0 0 0 0 0 0 0 
0 0 0 0 0 2.592639e-01 -4.473857e-01 -2.758919e-01 -4.698178e-01 -4.601572e-01 -5.697668e-01 -5.525326e-01 -6.584309e-01 -3.445540e-01 7.139164e-01 7.267707e-01 2.277807e+00 3.122829e+00 3.896560e+00 5.407006e+00 5.595820e+00 5.952774e+00 5.827446e+00 5.841870e+00 5.806429e+00 5.685537e+00 5.650988e+00 5.445884e+00 5.530152e+00 5.380776e+00 5.543017e+00 5.352744e+00 5.475998e+00 5.267645e+00 5.374192e+00 5.169695e+00 5.201954e+00 4.987107e+00 4.956539e+00 4.795830e+00 4.756945e+00 4.695240e+00 4.653885e+00 4.633579e+00 4.505971e+00 4.464189e+00 4.291983e+00 4.288650e+00 4.109976e+00 4.092690e+00 3.907043e+00 3.934241e+00 3.855383e+00 3.906304e+00 3.799036e+00 3.688698e+00 3.850980e+00 5.341078e+00 4.681578e+00 1.370778e+00 6.737149e+00 1.023750e+01 7.128661e+00 5.796762e+00 2.889657e+00 7.159435e+00 9.849715e+00 6.619269e+00 5.670669e+00 3.043368e+00 6.291438e+00 7.494065e+00 4.151885e+00 3.781958e+00 3.588868e+00 3.489256e+00 3.367244e+00 3.342023e+00 3.142692e+00 3.131065e+00 2.915338e+00 2.993134e+00 2.790707e+00 2.897967e+00 2.689162e+00 2.807886e+00 2.623857e+00 2.721166e+00 2.549575e+00 2.565147e+00 2.386012e+00 2.290900e+00 2.173707e+00 2.071274e+00 2.113135e+00 1.967413e+00 2.039848e+00 1.753788e+00 1.871488e+00 1.550052e+00 1.739967e+00 1.363983e+00 1.562391e+00 1.197412e+00 1.445300e+00 1.138179e+00 1.328006e+00 1.035144e+00 1.117058e+00 9.252578e-01 9.327291e-01 9.073253e-01 8.111717e-01 9.077703e-01 6.125420e-01 7.809899e-01 3.543226e-01 6.860627e-01 2.243869e-01 5.999144e-01 6.714984e-02 3.709279e-01 -1.442342e-01 -6.646401e-01 0 0 0 0 
0 0 0 0 0 7.624897e-01 -1.317264e+00 -8.141274e-01 -1.383923e+00 -1.354657e+00 -1.676805e+00 -1.626016e+00 -1.937457e+00 -1.014210e+00 2.099327e+00 2.137340e+00 6.699330e+00 9.184706e+00 1.146020e+01 1.590224e+01 1.645747e+01 1.750712e+01 1.713846e+01 1.718083e+01 1.707658e+01 1.672107e+01 1.661950e+01 1.601638e+01 1.626428e+01 1.582506e+01 1.630226e+01 1.574274e+01 1.610525e+01 1.549253e+01 1.580587e+01 1.520445e+01 1.529931e+01 1.466743e+01 1.457751e+01 1.410485e+01 1.399047e+01 1.380899e+01 1.368738e+01 1.362766e+01 1.325240e+01 1.312954e+01 1.262311e+01 1.261333e+01 1.208788e+01 1.203706e+01 1.149108e+01 1.157108e+01 1.133916e+01 1.148892e+01 1.117344e+01 1.084894e+01 1.029279e+01 1.030884e+01 1.034585e+01 7.543983e+00 1.236352e+01 1.583675e+01 1.344794e+01 1.378261e+01 1.089483e+01 1.461266e+01 1.708698e+01 1.406321e+01 1.458926e+01 1.131223e+01 1.495258e+01 1.614750e+01 1.195567e+01 1.112308e+01 1.055520e+01 1.026223e+01 9.903402e+00 9.829244e+00 9.243043e+00 9.208869e+00 8.574434e+00 8.803251e+00 8.207906e+00 8.523354e+00 7.909218e+00 8.258354e+00 7.717054e+00 8.003189e+00 7.498462e+00 7.544208e+00 7.017305e+00 6.737560e+00 6.392872e+00 6.091633e+00 6.214796e+00 5.786274e+00 5.999382e+00 5.158119e+00 5.504342e+00 4.558979e+00 5.117533e+00 4.011640e+00 4.595072e+00 3.521424e+00 4.250288e+00 3.346735e+00 3.904778e+00 3.043133e+00 3.283822e+00 2.719503e+00 2.741389e+00 2.666676e+00 2.383992e+00 2.668329e+00 1.800328e+00 2.296106e+00 1.041495e+00 2.017180e+00 6.579421e-01 1.756243e+00 1.622858e-01 1.044333e+00 -4.429296e-01 -1.955495e+00 0 0 0 0 
0 0 0 0 0 5.266709e-01 -9.106001e-01 -5.636639e-01 -9.569767e-01 -9.363469e-01 -1.158761e+00 -1.123629e+00 -1.338747e+00 -2.211156e+00 2.165963e+00 1.875063e+00 5.751115e+00 5.097020e+00 9.504579e+00 8.146709e+00 1.318992e+01 1.209267e+01 1.183800e+01 1.186723e+01 1.179522e+01 1.154968e+01 1.147954e+01 1.106299e+01 1.123425e+01 1.093092e+01 1.126056e+01 1.087412e+01 1.112453e+01 1.070132e+01 1.091775e+01 1.050234e+01 1.056784e+01 1.013138e+01 1.006926e+01 9.742773e+00 9.663767e+00 9.538409e+00 9.454407e+00 9.413166e+00 9.153973e+00 9.069120e+00 8.719334e+00 8.712590e+00 8.349661e+00 8.314560e+00 7.937449e+00 7.992710e+00 7.832518e+00 7.935959e+00 7.718050e+00 7.493907e+00 6.963574e+00 4.726012e+00 4.516163e+00 9.007029e+00 3.212661e+00 -5.984272e-02 4.196321e+00 3.788966e+00 7.980181e+00 2.957314e+00 7.869842e-01 4.372793e+00 3.798728e+00 7.307401e+00 3.758669e+00 2.572339e+00 7.969858e+00 7.683194e+00 7.290942e+00 7.088579e+00 6.840727e+00 6.789512e+00 6.384621e+00 6.361026e+00 5.922813e+00 6.080874e+00 5.669648e+00 5.887535e+00 5.463314e+00 5.704457e+00 5.330532e+00 5.528148e+00 5.179481e+00 5.211054e+00 4.847076e+00 4.653838e+00 4.415739e+00 4.207673e+00 4.292769e+00 3.996800e+00 4.144037e+00 3.562971e+00 3.802149e+00 3.149152e+00 3.534967e+00 2.771036e+00 3.173987e+00 2.432270e+00 2.935631e+00 2.311370e+00 2.696713e+00 2.101385e+00 2.267530e+00 1.877624e+00 1.892699e+00 1.841092e+00 1.645886e+00 1.842401e+00 1.242977e+00 1.585606e+00 7.191154e-01 1.393067e+00 4.535000e-01 1.209159e+00 9.503611e-02 6.987854e-01 -3.150238e-01 -1.351099e+00 0 0 0 0 
0 0 0 0 0 2.344507e-02 -4.072199e-02 -2.542847e-02 -4.287103e-02 -4.184744e-02 -5.172234e-02 -5.014560e-02 -5.972131e-02 -1.384008e+00 6.631162e-01 9.551147e-01 1.097009e+00 -7.342318e-01 1.516700e+00 -2.337432e+00 1.847889e+00 5.383292e-01 5.269834e-01 5.282779e-01 5.250696e-01 5.141436e-01 5.110258e-01 4.924946e-01 5.001265e-01 4.866341e-01 5.013146e-01 4.841213e-01 4.952712e-01 4.764366e-01 4.860700e-01 4.675781e-01 4.704913e-01 4.510599e-01 4.482919e-01 4.337559e-01 4.302375e-01 4.246561e-01 4.209173e-01 4.190824e-01 4.075474e-01 4.037726e-01 3.882055e-01 3.879078e-01 3.717550e-01 3.701941e-01 3.534083e-01 3.558692e-01 3.487383e-01 3.533430e-01 3.436422e-01 3.336642e-01 7.955485e-01 8.941303e-01 -6.564589e-02 3.894348e+00 -1.820493e+00 -5.640319e+00 -1.701231e+00 -3.819068e+00 8.072299e-01 -4.346107e+00 -6.757893e+00 -3.040586e+00 -5.090423e+00 -2.672922e-01 -4.957097e+00 -6.690791e+00 1.532611e-01 3.420735e-01 3.246114e-01 3.156022e-01 3.045692e-01 3.022914e-01 2.842706e-01 2.832228e-01 2.637172e-01 2.707562e-01 2.524488e-01 2.621480e-01 2.432579e-01 2.539889e-01 2.373343e-01 2.461252e-01 2.305940e-01 2.319933e-01 2.157821e-01 2.071772e-01 1.965747e-01 1.873143e-01 1.911086e-01 1.779388e-01 1.845027e-01 1.586403e-01 1.692961e-01 1.402244e-01 1.574014e-01 1.233783e-01 1.413058e-01 1.082570e-01 1.306433e-01 1.028149e-01 1.199401e-01 9.339615e-02 1.007656e-01 8.337910e-02 8.403955e-02 8.174209e-02 7.306494e-02 8.184270e-02 5.519100e-02 7.048959e-02 3.194291e-02 6.194972e-02 1.994478e-02 5.283038e-02 -9.981915e-05 2.538016e-02 -1.632838e-02 -6.024373e-02 0 0 0 0 
0 0 0 0 0 0 0 0 0 0 0 0 0 -4.062833e-01 8.971148e-02 -3.121697e-01 3.435339e-01 -3.818290e-01 4.841940e-01 -3.292740e-01 1.872130e-01 0 0 0 0 0 0 0 0 0 0 0 0 0 0 0 0 0 0 0 0 0 0 0 0 0 0 0 0 0 0 0 0 0 0 0 2.737844e-01 1.135878e+00 1.082466e+00 1.060524e+00 5.932215e-01 1.877021e-02 4.217316e-01 3.778132e-01 8.322258e-01 1.498050e-01 -3.076098e-01 3.056228e-02 2.943870e-02 6.941650e-01 -5.462350e-02 -6.096953e-01 -1.281290e-02 0 0 0 0 0 0 0 0 0 0 0 0 0 0 0 0 0 0 0 0 0 0 0 0 0 0 0 0 0 0 0 0 0 0 0 0 0 0 0 0 0 0 0 0 0 0 0 0 0 0 0 0 0 0 0 
0 0 0 0 0 0 0 0 0 0 0 0 0 -2.216570e-01 7.009611e-02 -1.026304e-01 2.048043e-01 -2.239106e-01 2.697542e-01 -2.611742e-01 9.831235e-02 0 0 0 0 0 0 0 0 0 0 0 0 0 0 0 0 0 0 0 0 0 0 0 0 0 0 0 0 0 0 0 0 0 0 0 0 0 0 0 0 0 0 0 0 0 0 0 0 0 0 0 0 0 0 0 0 0 0 0 0 0 0 0 0 0 0 0 0 0 0 0 0 0 0 0 0 0 0 0 0 0 0 0 0 0 0 0 0 0 0 0 0 0 0 0 0 0 0 0 0 0 0 0 0 0 0 0 
0 0 0 0 0 0 0 0 0 0 0 0 0 -1.321451e-03 2.014897e-03 2.153106e-03 7.873603e-03 9.011896e-03 1.846678e-02 1.910307e-02 3.309369e-02 0 0 0 0 0 0 0 0 0 0 0 0 0 0 0 0 0 0 0 0 0 0 0 0 0 0 0 0 0 0 0 0 0 0 0 0 0 0 0 0 0 0 0 0 0 0 0 0 0 0 0 0 0 0 0 0 0 0 0 0 0 0 0 0 0 0 0 0 0 0 0 0 0 0 0 0 0 0 0 0 0 0 0 0 0 0 0 0 0 0 0 0 0 0 0 0 0 0 0 0 0 0 0 0 0 0 0 
0 0 0 0 0 0 0 0 0 0 0 0 0 2.142038e-01 -7.406747e-02 9.871984e-02 -2.019553e-01 2.316340e-01 -2.466396e-01 2.895918e-01 -4.293939e-02 0 0 0 0 0 0 0 0 0 0 0 0 0 0 0 0 0 0 0 0 0 0 0 0 0 0 0 0 0 0 0 0 0 0 0 0 0 0 0 0 0 0 0 0 0 0 0 0 0 0 0 0 0 0 0 0 0 0 0 0 0 0 0 0 0 0 0 0 0 0 0 0 0 0 0 0 0 0 0 0 0 0 0 0 0 0 0 0 0 0 0 0 0 0 0 0 0 0 0 0 0 0 0 0 0 0 0 
0 0 0 0 0 0 0 0 0 0 0 0 0 3.937254e-01 -1.001571e-01 3.027548e-01 -3.467240e-01 3.869226e-01 -4.642433e-01 3.574858e-01 -1.339335e-01 0 0 0 0 0 0 0 0 0 0 0 0 0 0 0 0 0 0 0 0 0 0 0 0 0 0 0 0 0 0 0 0 0 0 0 0 0 0 0 0 0 0 0 0 0 0 0 0 0 0 0 0 0 0 0 0 0 0 0 0 0 0 0 0 0 0 0 0 0 0 0 0 0 0 0 0 0 0 0 0 0 0 0 0 0 0 0 0 0 0 0 0 0 0 0 0 0 0 0 0 0 0 0 0 0 0 0 
0 0 0 0 0 -2.338841e-02 4.088535e-02 2.519341e-02 4.117949e-02 3.858221e-02 4.783934e-02 4.703419e-02 5.813695e-02 1.374358e+00 -7.124726e-01 -9.916732e-01 -1.147955e+00 7.038272e-01 -1.546125e+00 2.301808e+00 -1.832662e+00 -5.498430e-01 -5.381407e-01 -5.346380e-01 -5.287500e-01 -5.216440e-01 -5.293275e-01 -5.185505e-01 -5.250463e-01 -5.017121e-01 -5.058755e-01 -4.811458e-01 -4.865554e-01 -4.613650e-01 -4.656026e-01 -4.474790e-01 -4.572388e-01 -4.492045e-01 -4.567348e-01 -4.491675e-01 -4.457965e-01 -4.346552e-01 -4.218711e-01 -4.153278e-01 -4.062650e-01 -4.112627e-01 -4.033348e-01 -4.087482e-01 -3.969178e-01 -4.027398e-01 -3.893055e-01 -3.889717e-01 -3.683845e-01 -3.634680e-01 -3.497737e-01 -3.515763e-01 -3.461899e-01 -3.455421e-01 -3.412353e-01 -3.365359e-01 -3.352565e-01 -3.265072e-01 -3.283664e-01 -3.173938e-01 -3.215582e-01 -3.090896e-01 -3.131031e-01 -3.038280e-01 -3.104574e-01 -3.036661e-01 -3.064201e-01 -2.987926e-01 -3.023352e-01 -3.022158e-01 -3.041253e-01 -3.016017e-01 -2.916752e-01 -2.890879e-01 -2.776491e-01 -2.817341e-01 -2.668979e-01 -2.710576e-01 -2.517417e-01 -2.568290e-01 -2.356966e-01 -2.394834e-01 -2.180573e-01 -2.207199e-01 -2.031044e-01 -2.053263e-01 -1.972263e-01 -2.013470e-01 -2.016835e-01 -1.946648e-01 -1.910452e-01 -1.698042e-01 -1.733197e-01 -1.508711e-01 -1.645389e-01 -1.374300e-01 -1.575329e-01 -1.310952e-01 -1.576055e-01 -1.283159e-01 -1.475418e-01 -1.127376e-01 -1.244624e-01 -9.483884e-02 -1.015757e-01 -8.375798e-02 -8.409300e-02 -7.918851e-02 -6.661692e-02 -7.274135e-02 -4.814774e-02 -6.824254e-02 -3.092516e-02 -5.588202e-02 -6.631999e-03 -3.864600e-02 8.340676e-03 -2.417352e-02 1.585591e-02 6.026717e-02 0 0 0 0 
0 0 0 0 0 -5.253979e-01 9.142732e-01 5.583906e-01 9.190027e-01 8.630322e-01 1.071577e+00 1.053772e+00 1.303168e+00 2.158050e+00 -2.235319e+00 -1.942847e+00 -5.834257e+00 -5.178611e+00 -9.622835e+00 -8.285855e+00 -1.339010e+01 -1.235144e+01 -1.208874e+01 -1.201014e+01 -1.187790e+01 -1.171817e+01 -1.189067e+01 -1.164835e+01 -1.179410e+01 -1.126962e+01 -1.136300e+01 -1.080725e+01 -1.092870e+01 -1.036271e+01 -1.045792e+01 -1.005079e+01 -1.027012e+01 -1.008970e+01 -1.025895e+01 -1.008901e+01 -1.001331e+01 -9.763046e+00 -9.475817e+00 -9.328802e+00 -9.125148e+00 -9.237359e+00 -9.059190e+00 -9.180740e+00 -8.914915e+00 -9.045665e+00 -8.743840e+00 -8.736336e+00 -8.273865e+00 -8.163432e+00 -7.855835e+00 -7.896352e+00 -7.775376e+00 -7.760838e+00 -7.664100e+00 -7.558527e+00 -7.529774e+00 -7.333208e+00 -7.374948e+00 -7.128442e+00 -7.221973e+00 -6.941888e+00 -7.032050e+00 -6.823728e+00 -6.972672e+00 -6.820159e+00 -6.882058e+00 -6.710768e+00 -6.790377e+00 -6.787714e+00 -6.830615e+00 -6.773926e+00 -6.550917e+00 -6.492769e+00 -6.235779e+00 -6.327491e+00 -5.994199e+00 -6.087617e+00 -5.653760e+00 -5.768068e+00 -5.293492e+00 -5.378650e+00 -4.897555e+00 -4.957503e+00 -4.562025e+00 -4.612060e+00 -4.430250e+00 -4.522873e+00 -4.530431e+00 -4.372719e+00 -4.291335e+00 -3.814072e+00 -3.892853e+00 -3.388480e+00 -3.695303e+00 -3.086390e+00 -3.537916e+00 -2.944338e+00 -3.540068e+00 -2.882748e+00 -3.315152e+00 -2.534268e+00 -2.798323e+00 -2.133841e+00 -2.285757e+00 -1.886143e+00 -1.893901e+00 -1.783763e+00 -1.501081e+00 -1.638042e+00 -1.084868e+00 -1.535170e+00 -6.962704e-01 -1.256842e+00 -1.545778e-01 -8.905946e-01 8.977649e-02 -6.721021e-01 3.042818e-01 1.351624e+00 0 0 0 0 
0 0 0 0 0 -7.606466e-01 1.322582e+00 8.064947e-01 1.328953e+00 1.248524e+00 1.550597e+00 1.524891e+00 1.885950e+00 9.999223e-01 -2.088496e+00 -2.138025e+00 -6.699908e+00 -9.246128e+00 -1.158006e+01 -1.610628e+01 -1.676755e+01 -1.788179e+01 -1.750150e+01 -1.738773e+01 -1.719628e+01 -1.696502e+01 -1.721471e+01 -1.686384e+01 -1.707482e+01 -1.631542e+01 -1.645057e+01 -1.564592e+01 -1.582173e+01 -1.500230e+01 -1.514013e+01 -1.455072e+01 -1.486827e+01 -1.460708e+01 -1.485214e+01 -1.460612e+01 -1.449653e+01 -1.413422e+01 -1.371837e+01 -1.350552e+01 -1.321066e+01 -1.337310e+01 -1.311514e+01 -1.329110e+01 -1.290623e+01 -1.309552e+01 -1.265854e+01 -1.264767e+01 -1.197813e+01 -1.181825e+01 -1.137294e+01 -1.143160e+01 -1.125646e+01 -1.123542e+01 -1.109537e+01 -1.094252e+01 -1.090089e+01 -1.061631e+01 -1.067673e+01 -1.031985e+01 -1.045525e+01 -1.004976e+01 -1.018029e+01 -9.878703e+00 -1.009434e+01 -9.873553e+00 -9.963177e+00 -9.715204e+00 -9.830466e+00 -9.826614e+00 -9.888727e+00 -9.806655e+00 -9.483787e+00 -9.399598e+00 -9.027531e+00 -9.160294e+00 -8.677768e+00 -8.813008e+00 -8.184904e+00 -8.350400e+00 -7.663366e+00 -7.786678e+00 -7.090227e+00 -7.177051e+00 -6.604556e+00 -6.677026e+00 -6.413848e+00 -6.547957e+00 -6.558898e+00 -6.330560e+00 -6.212716e+00 -5.521732e+00 -5.635737e+00 -4.905508e+00 -5.349659e+00 -4.468119e+00 -5.121800e+00 -4.262527e+00 -5.125048e+00 -4.173574e+00 -4.799719e+00 -3.669434e+00 -4.051890e+00 -3.090134e+00 -3.310217e+00 -2.731837e+00 -2.743129e+00 -2.583685e+00 -2.174362e+00 -2.372491e+00 -1.571453e+00 -2.223098e+00 -1.008426e+00 -1.819981e+00 -2.252110e-01 -1.295059e+00 1.051986e-01 -1.005810e+00 4.273452e-01 1.956255e+00 0 0 0 0 
0 0 0 0 0 -2.586372e-01 4.491946e-01 2.732975e-01 4.511297e-01 4.240741e-01 5.268585e-01 5.181526e-01 6.409189e-01 3.396961e-01 -7.102346e-01 -7.270039e-01 -2.278004e+00 -3.143714e+00 -3.937317e+00 -5.476392e+00 -5.701262e+00 -6.080185e+00 -5.950902e+00 -5.912227e+00 -5.847132e+00 -5.768485e+00 -5.853374e+00 -5.734042e+00 -5.805759e+00 -5.547509e+00 -5.593444e+00 -5.319819e+00 -5.379591e+00 -5.100950e+00 -5.147818e+00 -4.947406e+00 -5.055391e+00 -4.966587e+00 -5.049925e+00 -4.966278e+00 -4.929019e+00 -4.805825e+00 -4.664421e+00 -4.592044e+00 -4.491779e+00 -4.547004e+00 -4.459281e+00 -4.519105e+00 -4.388233e+00 -4.452590e+00 -4.304003e+00 -4.300307e+00 -4.072648e+00 -4.018287e+00 -3.866874e+00 -3.886824e+00 -3.827276e+00 -3.820122e+00 -3.772503e+00 -3.720532e+00 -3.706375e+00 -3.609607e+00 -3.630149e+00 -3.508798e+00 -3.554837e+00 -3.416962e+00 -3.461346e+00 -3.358803e+00 -3.432128e+00 -3.357060e+00 -3.387538e+00 -3.303229e+00 -3.342424e+00 -3.341116e+00 -3.362237e+00 -3.334331e+00 -3.224546e+00 -3.195916e+00 -3.069401e+00 -3.114537e+00 -2.950466e+00 -2.996448e+00 -2.782885e+00 -2.839161e+00 -2.605571e+00 -2.647511e+00 -2.410729e+00 -2.440268e+00 -2.245636e+00 -2.270292e+00 -2.180824e+00 -2.226431e+00 -2.230151e+00 -2.152506e+00 -2.112427e+00 -1.877464e+00 -1.916204e+00 -1.667899e+00 -1.818895e+00 -1.519159e+00 -1.741417e+00 -1.449284e+00 -1.742586e+00 -1.419142e+00 -1.632108e+00 -1.247904e+00 -1.378030e+00 -1.051132e+00 -1.126036e+00 -9.294528e-01 -9.333209e-01 -8.791108e-01 -7.398980e-01 -8.071902e-01 -5.347325e-01 -7.561704e-01 -3.430804e-01 -6.190203e-01 -7.726526e-02 -4.431106e-01 2.376278e-02 -3.578811e-01 1.389194e-01 6.648982e-01 0 0 0 0 
0 0 0 0 0 0 0 0 0 0 0 0 0 0 0 0 0 0 0 0 0 0 0 0 0 0 0 0 0 0 0 0 0 0 0 0 0 0 0 0 0 0 0 0 0 0 0 0 0 0 0 0 0 0 0 0 0 0 0 0 0 0 0 0 0 0 0 0 0 0 0 0 0 0 0 0 0 0 0 0 0 0 0 0 0 0 0 0 0 0 0 0 0 0 0 0 0 0 0 0 0 0 0 0 0 0 0 0 0 0 0 0 0 0 0 0 0 0 0 0 0 0 0 0 0 0 0 0 
