# vtk DataFile Version 2.0
Comment goes here
ASCII

DATASET STRUCTURED_POINTS
FIELD FieldData 1
TIME 1 1 double
0.33000000
DIMENSIONS    128   16   1

ORIGIN    0.000   0.000   0.000
SPACING   0.0078125 0.015625   1.000

POINT_DATA   2048
SCALARS Omega double
LOOKUP_TABLE default

1.145173e-04 3.310867e-05 -1.979268e-05 -5.466706e-05 -8.392119e-05 -1.001861e-04 -1.060663e-04 -9.213478e-05 -1.299698e-04 -1.537366e-04 -2.391531e-04 -3.281895e-04 -4.503879e-04 -5.059800e-04 -5.149719e-04 -4.747810e-04 -4.897914e-04 -4.368880e-04 -4.681335e-04 -4.662544e-04 -4.587915e-04 -5.108794e-04 -3.935354e-04 -2.945049e-04 -1.720890e-04 -1.069320e-04 -3.957851e-05 -4.303816e-05 -1.741298e-05 -4.096048e-05 2.833050e-06 -3.205713e-06 4.468181e-05 1.034978e-05 2.873886e-05 2.230740e-06 8.028359e-05 1.366018e-04 2.641042e-04 3.550040e-04 5.429347e-04 7.905163e-04 1.218672e-03 1.753604e-03 2.464322e-03 3.209220e-03 3.920259e-03 4.045024e-03 2.946290e-03 -6.742153e-04 -7.665833e-03 -1.899455e-02 -3.424439e-02 -5.273242e-02 -6.666505e-02 -5.683390e-02 -3.357439e-02 -7.815588e-02 -1.329915e-01 -4.515497e-02 2.030665e-02 -4.040791e-02 -8.693067e-02 -6.226909e-02 4.766480e-02 1.145695e-01 4.441066e-02 -1.260323e-02 1.625513e-02 1.076760e-01 1.455208e-01 1.043117e-01 1.142369e-01 1.222520e-01 8.373071e-02 5.505080e-02 3.511718e-02 1.871153e-02 7.044549e-03 3.087453e-05 -2.906365e-03 -3.684979e-03 -3.134956e-03 -2.393635e-03 -1.518058e-03 -9.562484e-04 -4.552561e-04 -2.237638e-04 1.281225e-05 7.818205e-05 1.953079e-04 1.783265e-04 2.371902e-04 1.897065e-04 2.378650e-04 1.809046e-04 1.999050e-04 1.163749e-04 1.225099e-04 7.640407e-05 1.155718e-04 9.634122e-05 1.109856e-04 7.540513e-05 6.219313e-05 3.958582e-05 3.229144e-05 3.856775e-05 3.402805e-05 4.352690e-05 1.376289e-05 9.380861e-06 -3.289247e-05 -2.394141e-05 -4.321024e-05 1.324219e-05 6.692430e-05 2.309919e-04 4.069613e-04 6.828980e-04 8.950442e-04 1.094535e-03 1.073754e-03 9.667967e-04 8.019802e-04 5.976288e-04 3.989957e-04 2.345683e-04 
-5.463226e-03 -2.931605e-03 -9.710494e-04 -4.180381e-02 -1.284064e-01 6.975745e-01 1.137476e+00 4.229848e-01 5.293476e-01 4.410106e-01 5.239093e-01 2.940105e-01 -5.898499e-01 -2.241156e+00 -3.028094e+00 -2.747049e+00 -2.758333e+00 -2.837814e+00 -2.640375e+00 -2.921449e+00 -2.359184e+00 -3.918249e-01 3.176118e-01 5.085837e-01 4.679140e-01 5.011285e-01 4.675312e-01 4.996140e-01 4.732285e-01 4.994832e-01 4.805639e-01 4.993400e-01 4.863241e-01 4.985227e-01 4.917597e-01 4.956774e-01 4.912794e-01 4.886248e-01 4.914882e-01 4.868764e-01 4.925718e-01 4.800284e-01 4.867348e-01 4.738604e-01 4.880044e-01 4.767104e-01 4.907386e-01 4.729050e-01 4.826795e-01 4.639696e-01 4.735885e-01 4.540261e-01 4.559714e-01 4.438249e-01 5.350676e-01 8.263391e-01 9.396945e-01 -1.600900e-01 -1.524281e+00 1.152250e+00 3.240979e+00 -3.175931e-01 -2.598356e+00 -2.351089e+00 7.329075e-01 3.126690e+00 -3.412180e-01 -2.483860e+00 -2.192757e+00 2.379527e-01 2.533069e+00 1.731945e-01 -6.924645e-01 5.360755e-01 5.898368e-01 5.220563e-01 4.945799e-01 4.898424e-01 4.858941e-01 4.851597e-01 4.857082e-01 4.859238e-01 4.885930e-01 4.870107e-01 4.895508e-01 4.860552e-01 4.890945e-01 4.835344e-01 4.861950e-01 4.781462e-01 4.825509e-01 4.748242e-01 4.811797e-01 4.719295e-01 4.789072e-01 4.714894e-01 4.804841e-01 4.746563e-01 4.810525e-01 4.784436e-01 4.829345e-01 4.858332e-01 4.839468e-01 4.919422e-01 4.818571e-01 4.977573e-01 4.783156e-01 5.026714e-01 4.714820e-01 5.040807e-01 4.634843e-01 5.081326e-01 4.605916e-01 5.115498e-01 4.542063e-01 5.089578e-01 4.522022e-01 5.179763e-01 4.651123e-01 5.436131e-01 4.740087e-01 8.401124e-01 1.092664e+00 1.137481e-01 -3.329450e-02 -1.078895e-02 -7.730887e-03 -6.578169e-03 
-7.519594e-03 1.407721e-02 3.306735e-02 -2.631332e-01 -1.625448e+00 6.339517e-01 2.694843e+00 4.248277e-01 9.802365e-01 6.246172e-01 8.905769e-01 4.375989e-01 -1.967612e-01 4.898077e-01 1.284618e+00 1.210435e+00 1.048383e+00 1.200272e+00 1.061933e+00 1.323038e+00 3.783211e-01 1.164664e-01 4.196123e-01 7.553450e-01 6.927988e-01 7.989973e-01 7.085302e-01 7.999133e-01 6.927413e-01 7.694722e-01 6.863620e-01 7.744532e-01 7.137621e-01 7.954838e-01 7.344535e-01 7.797201e-01 7.253242e-01 7.556111e-01 7.275471e-01 7.512845e-01 7.351781e-01 7.254514e-01 7.226653e-01 7.013716e-01 7.242815e-01 6.992988e-01 7.344649e-01 6.890178e-01 7.335517e-01 6.856644e-01 7.432567e-01 6.984204e-01 7.573466e-01 7.400165e-01 9.335446e-01 9.670040e-01 2.153710e-01 -4.360865e-01 -6.150584e-01 7.540983e-01 1.675047e+00 7.647327e-02 3.236987e-01 -7.435122e-02 4.604234e-01 1.822842e+00 -3.464616e-02 2.638956e-01 3.163940e-02 3.391560e-01 1.997222e+00 -4.415486e-01 -1.049501e+00 6.656388e-01 7.818545e-01 7.310692e-01 6.777948e-01 7.127309e-01 6.999142e-01 7.441939e-01 7.221576e-01 7.406265e-01 7.090318e-01 7.230952e-01 7.063371e-01 7.133472e-01 7.083102e-01 6.935187e-01 7.018664e-01 6.820134e-01 7.177374e-01 6.747338e-01 7.166185e-01 6.445631e-01 7.021143e-01 6.381470e-01 7.218157e-01 6.514560e-01 7.257873e-01 6.571291e-01 7.244333e-01 6.838004e-01 7.243414e-01 7.029607e-01 6.979090e-01 7.162461e-01 6.718939e-01 7.572675e-01 6.582077e-01 7.811020e-01 6.090382e-01 7.795759e-01 5.675984e-01 8.009076e-01 5.562677e-01 8.114966e-01 5.456171e-01 8.213873e-01 5.588890e-01 8.666329e-01 5.435942e-01 1.601316e+00 1.826702e+00 -1.402015e+00 -5.634078e-01 9.419582e-02 3.711345e-02 -4.895636e-03 
-6.700243e-03 3.809528e-02 9.705276e-02 -5.239864e-01 -4.276360e+00 -3.821234e+00 -1.144412e-01 -1.680932e+00 -1.021206e+00 -1.359557e+00 -1.020741e+00 -8.218428e-01 -8.696221e-02 -8.240706e-02 -4.685520e-01 -1.953135e-01 -3.051896e-01 -1.601003e-01 -3.490161e-01 -3.516586e-01 -7.281991e-02 -2.919156e-01 -8.607271e-01 -1.154730e+00 -1.247255e+00 -1.253087e+00 -1.296713e+00 -1.269781e+00 -1.398521e+00 -1.369280e+00 -1.476985e+00 -1.359418e+00 -1.440809e+00 -1.295400e+00 -1.421465e+00 -1.323425e+00 -1.443918e+00 -1.341766e+00 -1.437153e+00 -1.341378e+00 -1.421306e+00 -1.363789e+00 -1.409818e+00 -1.382482e+00 -1.408294e+00 -1.402908e+00 -1.393410e+00 -1.402480e+00 -1.346802e+00 -1.378548e+00 -1.318175e+00 -1.372074e+00 -1.295236e+00 -1.361537e+00 -1.298875e+00 -1.444646e+00 -1.084846e+00 -4.577671e-01 1.519530e-01 -1.253602e+00 -2.467577e+00 -4.067955e-01 4.126873e-01 3.703403e-01 -9.214804e-01 -2.519281e+00 -2.916977e-01 3.844285e-01 3.624382e-01 -6.995018e-01 -2.355284e+00 -5.295232e-01 -1.042739e-01 -1.136602e+00 -1.315579e+00 -1.316016e+00 -1.415118e+00 -1.365084e+00 -1.436000e+00 -1.341599e+00 -1.429798e+00 -1.383298e+00 -1.495607e+00 -1.438537e+00 -1.503849e+00 -1.453325e+00 -1.489473e+00 -1.489459e+00 -1.483828e+00 -1.481587e+00 -1.407786e+00 -1.478317e+00 -1.399559e+00 -1.546259e+00 -1.423673e+00 -1.563042e+00 -1.376854e+00 -1.549776e+00 -1.369224e+00 -1.562916e+00 -1.387017e+00 -1.540646e+00 -1.395465e+00 -1.530201e+00 -1.459065e+00 -1.533624e+00 -1.511520e+00 -1.447133e+00 -1.503578e+00 -1.382714e+00 -1.591768e+00 -1.411311e+00 -1.696189e+00 -1.365669e+00 -1.683639e+00 -1.301578e+00 -1.697290e+00 -1.318679e+00 -1.747488e+00 -1.343525e+00 -1.839114e+00 -1.106528e+00 -2.439342e+00 -5.239441e+00 -1.483759e+00 3.413502e-01 1.530138e-01 1.259885e-02 
-1.918325e-02 2.467171e-02 1.409254e-01 -4.789933e-02 -2.755452e+00 -5.598398e+00 -3.904065e+00 -2.633364e+00 -2.605272e+00 -2.481382e+00 -2.492921e+00 -2.369189e+00 -2.557774e+00 -2.399206e+00 -2.393724e+00 -2.416440e+00 -2.424010e+00 -2.449413e+00 -2.393641e+00 -2.434637e+00 -2.448363e+00 -2.443464e+00 -2.234371e+00 -2.449060e+00 -2.411270e+00 -2.571061e+00 -2.513744e+00 -2.604186e+00 -2.615676e+00 -2.681281e+00 -2.700212e+00 -2.679028e+00 -2.697048e+00 -2.635559e+00 -2.703441e+00 -2.647823e+00 -2.716703e+00 -2.637003e+00 -2.711343e+00 -2.631621e+00 -2.702930e+00 -2.622732e+00 -2.671484e+00 -2.611314e+00 -2.670849e+00 -2.631906e+00 -2.666684e+00 -2.617310e+00 -2.612273e+00 -2.588081e+00 -2.597576e+00 -2.603803e+00 -2.588231e+00 -2.582818e+00 -2.486735e+00 -2.301459e+00 -1.821392e+00 -2.183837e+00 -2.848279e+00 -1.810988e+00 -8.749168e-01 -2.296909e+00 -3.777619e+00 -3.546509e+00 -1.995752e+00 -1.197657e+00 -2.363142e+00 -3.776885e+00 -3.433828e+00 -2.137733e+00 -1.545108e+00 -2.102796e+00 -2.569557e+00 -2.388960e+00 -2.471589e+00 -2.551728e+00 -2.633086e+00 -2.621147e+00 -2.684714e+00 -2.631913e+00 -2.705482e+00 -2.672174e+00 -2.761460e+00 -2.709660e+00 -2.765592e+00 -2.711972e+00 -2.750434e+00 -2.726140e+00 -2.734022e+00 -2.701420e+00 -2.666674e+00 -2.688400e+00 -2.654506e+00 -2.726690e+00 -2.661080e+00 -2.738437e+00 -2.632595e+00 -2.742740e+00 -2.628149e+00 -2.766888e+00 -2.645946e+00 -2.778408e+00 -2.655089e+00 -2.792720e+00 -2.692564e+00 -2.814398e+00 -2.718563e+00 -2.769316e+00 -2.692265e+00 -2.725298e+00 -2.729315e+00 -2.753556e+00 -2.796397e+00 -2.726623e+00 -2.769191e+00 -2.661766e+00 -2.770117e+00 -2.681873e+00 -2.831038e+00 -2.723486e+00 -2.821654e+00 -3.223277e+00 -5.369662e+00 -4.581090e+00 -1.134454e+00 2.202689e-01 9.454042e-02 -1.142579e-02 
-3.261418e-02 -1.948283e-02 3.443527e-02 1.536229e-01 2.558141e-03 -1.766579e+00 -2.303881e+00 -1.085272e+00 -1.234200e+00 -9.929899e-01 -1.075807e+00 -1.178567e+00 -1.972222e+00 -1.680029e+00 -1.347590e+00 -1.346899e+00 -1.351502e+00 -1.346825e+00 -1.350923e+00 -1.349150e+00 -1.661355e+00 -1.757994e+00 -1.182986e+00 -1.063336e+00 -9.895972e-01 -1.080015e+00 -1.031150e+00 -1.091978e+00 -1.053280e+00 -1.100510e+00 -1.075072e+00 -1.103908e+00 -1.088096e+00 -1.103277e+00 -1.099836e+00 -1.100572e+00 -1.099511e+00 -1.087915e+00 -1.098992e+00 -1.085351e+00 -1.099758e+00 -1.072089e+00 -1.085334e+00 -1.058711e+00 -1.085106e+00 -1.063257e+00 -1.087965e+00 -1.055828e+00 -1.075145e+00 -1.051197e+00 -1.082002e+00 -1.069443e+00 -1.088551e+00 -1.025088e+00 -8.373731e-01 -7.876140e-01 -2.249538e+00 -2.966862e+00 -2.387160e+00 -1.597275e+00 -1.081350e+00 -2.057902e+00 -8.318974e-01 -1.438809e+00 -1.956269e+00 -6.524169e-01 -2.120672e+00 -8.509279e-01 -1.348789e+00 -1.941621e+00 -2.994192e-02 -2.632325e+00 -3.269209e+00 -1.152199e+00 -9.266899e-01 -1.027908e+00 -1.060300e+00 -1.071593e+00 -1.081986e+00 -1.084038e+00 -1.095697e+00 -1.091995e+00 -1.104747e+00 -1.094038e+00 -1.104993e+00 -1.090491e+00 -1.102066e+00 -1.085746e+00 -1.094841e+00 -1.074663e+00 -1.083897e+00 -1.068695e+00 -1.079610e+00 -1.066106e+00 -1.074070e+00 -1.067216e+00 -1.074431e+00 -1.075188e+00 -1.074096e+00 -1.084837e+00 -1.077239e+00 -1.100232e+00 -1.078835e+00 -1.112743e+00 -1.076574e+00 -1.124290e+00 -1.071946e+00 -1.130143e+00 -1.059480e+00 -1.128245e+00 -1.048440e+00 -1.133577e+00 -1.048889e+00 -1.133834e+00 -1.037434e+00 -1.117381e+00 -1.029840e+00 -1.115175e+00 -1.034249e+00 -1.110728e+00 -9.577491e-01 -1.527067e+00 -2.493334e+00 -8.354494e-01 2.229378e-02 6.978015e-02 -1.130623e-02 -3.416239e-02 
-2.567240e-02 -2.110339e-02 -1.242624e-02 1.591598e-02 5.850580e-02 -4.384619e-02 -1.989238e-01 -1.242004e-01 -8.817921e-02 -2.359726e-02 3.427471e-02 -2.410407e-01 -1.913961e+00 -1.714932e+00 -8.945444e-01 -8.928327e-01 -8.930153e-01 -8.928213e-01 -8.929872e-01 -8.936765e-01 -1.537878e+00 -1.720271e+00 -5.216124e-01 -1.330089e-01 -8.535883e-02 -8.908548e-02 -8.105362e-02 -8.058625e-02 -7.629841e-02 -7.797119e-02 -7.682123e-02 -7.815587e-02 -7.833035e-02 -7.867829e-02 -7.961009e-02 -7.872355e-02 -7.993694e-02 -7.819903e-02 -8.008129e-02 -7.800379e-02 -7.999188e-02 -7.714859e-02 -7.907510e-02 -7.632824e-02 -7.878462e-02 -7.652537e-02 -7.922609e-02 -7.767335e-02 -8.164467e-02 -8.293544e-02 -8.974333e-02 -9.402388e-02 -9.926698e-02 -7.940762e-02 1.153659e-02 -2.026172e-02 -8.619588e-01 -1.076273e+00 -1.967909e-01 -5.293313e-01 -1.235788e+00 -6.719688e-01 4.962424e-01 3.172132e-01 -5.911432e-01 -8.576552e-01 -5.112558e-01 5.875152e-01 2.833215e-01 -6.481384e-01 -5.520147e-01 -6.745344e-01 -4.869647e-01 -6.278496e-02 -4.844501e-02 -7.728548e-02 -8.181672e-02 -7.861277e-02 -7.617859e-02 -7.437524e-02 -7.461964e-02 -7.445285e-02 -7.604702e-02 -7.595851e-02 -7.766502e-02 -7.707049e-02 -7.872807e-02 -7.759129e-02 -7.913904e-02 -7.751088e-02 -7.916381e-02 -7.739933e-02 -7.917025e-02 -7.724813e-02 -7.900626e-02 -7.736510e-02 -7.911818e-02 -7.780991e-02 -7.901939e-02 -7.834443e-02 -7.897163e-02 -7.923294e-02 -7.873144e-02 -8.002349e-02 -7.817535e-02 -8.086136e-02 -7.745399e-02 -8.159229e-02 -7.634969e-02 -8.193437e-02 -7.508906e-02 -8.237481e-02 -7.412940e-02 -8.225091e-02 -7.209411e-02 -7.995844e-02 -6.793199e-02 -7.450807e-02 -5.885621e-02 -6.222599e-02 -3.823972e-02 -1.012425e-01 -1.679627e-01 -1.834457e-02 6.175515e-03 -1.953642e-02 -3.178862e-02 -2.951813e-02 
-1.302808e-02 -1.212240e-02 -1.167005e-02 -1.022439e-02 -4.438392e-03 -2.355382e-03 -1.391285e-02 -1.113089e-02 3.768269e-03 3.414117e-02 7.596217e-02 -6.038166e-02 -9.679640e-01 -8.749190e-01 -4.471718e-01 -4.462581e-01 -4.462564e-01 -4.462563e-01 -4.462568e-01 -4.466118e-01 -7.580112e-01 -8.481026e-01 -2.470477e-01 -4.967492e-02 -2.812587e-02 -2.559675e-02 -2.015386e-02 -1.600479e-02 -1.356566e-02 -1.230906e-02 -1.182524e-02 -1.154152e-02 -1.163000e-02 -1.155132e-02 -1.173250e-02 -1.161761e-02 -1.176891e-02 -1.160254e-02 -1.172338e-02 -1.152197e-02 -1.159932e-02 -1.137013e-02 -1.141579e-02 -1.121592e-02 -1.131392e-02 -1.130927e-02 -1.175560e-02 -1.247817e-02 -1.407238e-02 -1.649023e-02 -2.007215e-02 -2.463638e-02 -3.024443e-02 -3.470500e-02 -2.799061e-02 -1.291090e-03 3.376961e-03 -3.304365e-02 -2.739037e-02 -2.139668e-02 -5.104112e-02 -2.862976e-02 2.438416e-02 2.455961e-02 -2.572907e-02 -6.570493e-02 -4.943109e-02 -4.906599e-03 -1.302686e-02 -4.706884e-02 -7.644605e-02 -7.628538e-02 -3.976165e-02 -2.992014e-02 -3.589669e-02 -3.368525e-02 -2.673809e-02 -1.973621e-02 -1.443406e-02 -1.099725e-02 -9.354757e-03 -8.852271e-03 -9.108535e-03 -9.548545e-03 -1.012563e-02 -1.054475e-02 -1.098973e-02 -1.123046e-02 -1.153018e-02 -1.162601e-02 -1.183159e-02 -1.183269e-02 -1.199153e-02 -1.194159e-02 -1.208465e-02 -1.201018e-02 -1.214420e-02 -1.205562e-02 -1.217296e-02 -1.207850e-02 -1.216732e-02 -1.208052e-02 -1.213652e-02 -1.208532e-02 -1.210470e-02 -1.210437e-02 -1.206006e-02 -1.211056e-02 -1.197991e-02 -1.209475e-02 -1.186957e-02 -1.204560e-02 -1.168088e-02 -1.183106e-02 -1.118020e-02 -1.106420e-02 -9.818946e-03 -9.085367e-03 -7.014839e-03 -5.760833e-03 -3.238767e-03 -5.718280e-03 -7.440841e-03 -6.597632e-03 -1.227617e-02 -1.571326e-02 -1.582472e-02 -1.425750e-02 
-2.636278e-05 -3.969437e-06 1.003398e-05 1.969521e-05 2.592343e-05 2.933514e-05 2.849575e-05 2.383300e-05 1.776641e-05 1.208970e-05 9.527778e-06 1.387895e-05 -3.559099e-04 -6.001815e-04 -7.720463e-07 -1.401939e-08 -1.110494e-08 -1.089941e-08 -1.103028e-08 1.327128e-06 1.516450e-03 1.002935e-03 -2.057331e-04 -1.025338e-04 -1.148224e-05 2.399801e-05 4.112359e-05 5.254854e-05 6.180441e-05 7.322827e-05 8.569354e-05 9.863092e-05 1.102582e-04 1.233219e-04 1.409061e-04 1.648964e-04 1.955685e-04 2.297553e-04 2.686261e-04 3.104408e-04 3.593486e-04 4.095264e-04 4.583392e-04 4.889198e-04 4.843427e-04 4.031532e-04 1.812964e-04 -2.905455e-04 -1.157216e-03 -2.570307e-03 -4.647080e-03 -7.428172e-03 -1.097556e-02 -1.527739e-02 -1.963119e-02 -2.177936e-02 -2.179040e-02 -2.334452e-02 -2.363078e-02 -2.112587e-02 -2.171181e-02 -2.476142e-02 -2.702055e-02 -2.768994e-02 -2.997228e-02 -3.543645e-02 -4.079342e-02 -4.387214e-02 -4.329167e-02 -4.145277e-02 -4.004348e-02 -3.567007e-02 -3.016391e-02 -2.610720e-02 -2.126502e-02 -1.532432e-02 -9.479884e-03 -4.579465e-03 -1.026294e-03 1.142451e-03 2.148589e-03 2.387996e-03 2.204340e-03 1.866225e-03 1.501619e-03 1.180345e-03 9.120318e-04 7.002788e-04 5.349543e-04 4.089038e-04 3.133846e-04 2.403959e-04 1.848597e-04 1.410339e-04 1.070289e-04 7.923452e-05 5.747664e-05 3.997782e-05 2.754369e-05 1.918354e-05 1.462679e-05 1.158532e-05 8.565790e-06 4.005738e-06 -1.281780e-06 -6.073207e-06 -8.081820e-06 -7.129569e-06 -3.582620e-06 1.538536e-07 3.203534e-06 4.414159e-06 4.869387e-06 3.285670e-06 -2.048529e-06 -1.776182e-05 -5.013584e-05 -1.056804e-04 -1.826911e-04 -2.703590e-04 -3.480204e-04 -3.921217e-04 -3.894344e-04 -3.411289e-04 -2.659128e-04 -1.852651e-04 -1.147827e-04 -6.188218e-05 
1.296381e-02 1.211602e-02 1.170074e-02 1.028106e-02 4.512833e-03 2.439969e-03 1.399265e-02 1.119132e-02 -3.722883e-03 -3.411518e-02 -7.594234e-02 6.039532e-02 9.678618e-01 8.744901e-01 4.471712e-01 4.462581e-01 4.462564e-01 4.462563e-01 4.462568e-01 4.466129e-01 7.592115e-01 8.494791e-01 2.466803e-01 4.950816e-02 2.814544e-02 2.567937e-02 2.025893e-02 1.612925e-02 1.370388e-02 1.247796e-02 1.201952e-02 1.177196e-02 1.188045e-02 1.184063e-02 1.206053e-02 1.201907e-02 1.224494e-02 1.218177e-02 1.240454e-02 1.233912e-02 1.256279e-02 1.251143e-02 1.272977e-02 1.269131e-02 1.287418e-02 1.280128e-02 1.284214e-02 1.256236e-02 1.218758e-02 1.133294e-02 1.010342e-02 8.240545e-03 5.823316e-03 2.799667e-03 -6.653705e-04 -4.103072e-03 -6.948170e-03 -8.705063e-03 -9.236523e-03 -8.427162e-03 -7.390605e-03 -6.314435e-03 -5.577057e-03 -4.994955e-03 -4.740325e-03 -4.908800e-03 -5.079944e-03 -4.651565e-03 -3.440004e-03 -1.279799e-03 1.139369e-03 4.118268e-03 7.035946e-03 9.487049e-03 1.155431e-02 1.327904e-02 1.456667e-02 1.541245e-02 1.578839e-02 1.576129e-02 1.545831e-02 1.499352e-02 1.452411e-02 1.405290e-02 1.369827e-02 1.334782e-02 1.313690e-02 1.288333e-02 1.278030e-02 1.258702e-02 1.256025e-02 1.239933e-02 1.242330e-02 1.227723e-02 1.233457e-02 1.219745e-02 1.227627e-02 1.215004e-02 1.223745e-02 1.212491e-02 1.220298e-02 1.210915e-02 1.215951e-02 1.209625e-02 1.210384e-02 1.208893e-02 1.204188e-02 1.209343e-02 1.197599e-02 1.209938e-02 1.188568e-02 1.206248e-02 1.170152e-02 1.184544e-02 1.118438e-02 1.102703e-02 9.702298e-03 8.824984e-03 6.560389e-03 5.080836e-03 2.364580e-03 4.730234e-03 6.469121e-03 5.752237e-03 1.162050e-02 1.525505e-02 1.553998e-02 1.410306e-02 
2.561280e-02 2.111384e-02 1.248346e-02 -1.581936e-02 -5.837238e-02 4.397000e-02 1.989560e-01 1.238582e-01 8.763733e-02 2.283285e-02 -3.495770e-02 2.404524e-01 1.914667e+00 1.714945e+00 8.945195e-01 8.928212e-01 8.930181e-01 8.928291e-01 8.929823e-01 8.936446e-01 1.541948e+00 1.723002e+00 5.221857e-01 1.337410e-01 8.581209e-02 8.942614e-02 8.130883e-02 8.098268e-02 7.650413e-02 7.811359e-02 7.666113e-02 7.799411e-02 7.787089e-02 7.811942e-02 7.884225e-02 7.830950e-02 7.990180e-02 7.866195e-02 8.062256e-02 7.874769e-02 8.120252e-02 7.932465e-02 8.216099e-02 8.004546e-02 8.267526e-02 8.048386e-02 8.312636e-02 8.116642e-02 8.324318e-02 8.075253e-02 8.139649e-02 7.812285e-02 7.714625e-02 7.310325e-02 7.055378e-02 6.654438e-02 6.387496e-02 6.131751e-02 5.989396e-02 6.241007e-02 6.600730e-02 6.801763e-02 7.056209e-02 7.371226e-02 7.721193e-02 8.218589e-02 8.295585e-02 8.620235e-02 8.843957e-02 9.315845e-02 9.704471e-02 9.911975e-02 1.002691e-01 1.005672e-01 9.787837e-02 9.531494e-02 9.178590e-02 8.919703e-02 8.666159e-02 8.474506e-02 8.333420e-02 8.194057e-02 8.147645e-02 8.035067e-02 8.062290e-02 7.954210e-02 8.035761e-02 7.913116e-02 8.034700e-02 7.898193e-02 8.055867e-02 7.903085e-02 8.067039e-02 7.896834e-02 8.057277e-02 7.899833e-02 8.038803e-02 7.905315e-02 7.990405e-02 7.909271e-02 7.919159e-02 7.918167e-02 7.822681e-02 7.934498e-02 7.719383e-02 7.978961e-02 7.629892e-02 8.056957e-02 7.554976e-02 8.137662e-02 7.467369e-02 8.194714e-02 7.383652e-02 8.220341e-02 7.260293e-02 8.081087e-02 6.894603e-02 7.510141e-02 5.907339e-02 6.201420e-02 3.808042e-02 1.007116e-01 1.673033e-01 1.757972e-02 -6.826892e-03 1.906940e-02 3.149410e-02 2.935797e-02 
3.264208e-02 1.953205e-02 -3.436072e-02 -1.534978e-01 -2.377958e-03 1.766110e+00 2.301770e+00 1.077095e+00 1.221672e+00 9.765671e-01 1.060208e+00 1.165199e+00 1.967169e+00 1.684608e+00 1.347118e+00 1.346744e+00 1.351666e+00 1.347024e+00 1.350682e+00 1.348089e+00 1.655923e+00 1.763495e+00 1.203142e+00 1.082768e+00 1.000985e+00 1.087726e+00 1.037481e+00 1.099505e+00 1.055081e+00 1.097478e+00 1.066775e+00 1.095562e+00 1.076676e+00 1.087978e+00 1.078838e+00 1.082221e+00 1.090049e+00 1.087141e+00 1.099898e+00 1.084620e+00 1.103812e+00 1.089185e+00 1.117652e+00 1.097542e+00 1.121569e+00 1.095567e+00 1.123064e+00 1.102597e+00 1.129297e+00 1.103173e+00 1.118359e+00 1.091578e+00 1.104681e+00 1.085926e+00 1.094593e+00 1.079565e+00 1.077591e+00 1.059798e+00 1.049459e+00 1.061271e+00 1.086728e+00 1.060242e+00 1.055259e+00 1.052545e+00 1.066933e+00 1.102841e+00 1.079071e+00 1.086736e+00 1.083784e+00 1.101462e+00 1.127737e+00 1.119306e+00 1.125860e+00 1.135006e+00 1.124909e+00 1.117400e+00 1.106641e+00 1.102004e+00 1.099026e+00 1.093451e+00 1.092249e+00 1.082986e+00 1.084891e+00 1.075851e+00 1.084100e+00 1.076764e+00 1.089193e+00 1.080210e+00 1.093974e+00 1.085562e+00 1.101499e+00 1.093169e+00 1.105522e+00 1.096254e+00 1.104999e+00 1.100671e+00 1.103522e+00 1.102148e+00 1.093953e+00 1.099869e+00 1.082300e+00 1.099916e+00 1.069844e+00 1.098876e+00 1.054488e+00 1.098227e+00 1.043489e+00 1.106618e+00 1.042140e+00 1.117388e+00 1.038606e+00 1.121909e+00 1.038267e+00 1.130883e+00 1.047643e+00 1.137664e+00 1.054180e+00 1.133654e+00 1.048066e+00 1.123046e+00 9.767750e-01 1.542543e+00 2.502497e+00 8.375518e-01 -2.193131e-02 -6.968709e-02 1.134190e-02 3.417954e-02 
1.926838e-02 -2.462504e-02 -1.408929e-01 4.790368e-02 2.755184e+00 5.597489e+00 3.906857e+00 2.638278e+00 2.603247e+00 2.461381e+00 2.460429e+00 2.334372e+00 2.546958e+00 2.403068e+00 2.391814e+00 2.417999e+00 2.427559e+00 2.453418e+00 2.394356e+00 2.433764e+00 2.457842e+00 2.472305e+00 2.250520e+00 2.451749e+00 2.415311e+00 2.588912e+00 2.538398e+00 2.619853e+00 2.581520e+00 2.617022e+00 2.643646e+00 2.658741e+00 2.706913e+00 2.653706e+00 2.689549e+00 2.615702e+00 2.710540e+00 2.666449e+00 2.762249e+00 2.674065e+00 2.732637e+00 2.656341e+00 2.742224e+00 2.695215e+00 2.753226e+00 2.696691e+00 2.741796e+00 2.731295e+00 2.783271e+00 2.770292e+00 2.760284e+00 2.728854e+00 2.711177e+00 2.736132e+00 2.749391e+00 2.796580e+00 2.767185e+00 2.773348e+00 2.714559e+00 2.776610e+00 2.789515e+00 2.816082e+00 2.774127e+00 2.770912e+00 2.750438e+00 2.811604e+00 2.809907e+00 2.838954e+00 2.826134e+00 2.803692e+00 2.811322e+00 2.785855e+00 2.831396e+00 2.822616e+00 2.835103e+00 2.753296e+00 2.762244e+00 2.700661e+00 2.764522e+00 2.722222e+00 2.780393e+00 2.699418e+00 2.727196e+00 2.657168e+00 2.708211e+00 2.684661e+00 2.730733e+00 2.705924e+00 2.713953e+00 2.718859e+00 2.712608e+00 2.749719e+00 2.711915e+00 2.771544e+00 2.707343e+00 2.806590e+00 2.713229e+00 2.813596e+00 2.677505e+00 2.787729e+00 2.658150e+00 2.805063e+00 2.687960e+00 2.806994e+00 2.658422e+00 2.725826e+00 2.613608e+00 2.705971e+00 2.678813e+00 2.740650e+00 2.723246e+00 2.700766e+00 2.721556e+00 2.687511e+00 2.776655e+00 2.696080e+00 2.799181e+00 2.686666e+00 2.829523e+00 2.749768e+00 2.886720e+00 3.286204e+00 5.407780e+00 4.588784e+00 1.134981e+00 -2.198255e-01 -9.425645e-02 1.158722e-02 
6.589949e-03 -3.816100e-02 -9.709370e-02 5.238804e-01 4.275754e+00 3.821417e+00 1.248952e-01 1.710961e+00 1.052233e+00 1.372770e+00 1.012222e+00 8.035113e-01 8.156941e-02 8.783269e-02 4.806795e-01 2.014479e-01 3.026654e-01 1.509874e-01 3.387781e-01 3.633402e-01 1.101906e-01 3.115418e-01 8.316179e-01 1.106579e+00 1.222876e+00 1.260339e+00 1.318075e+00 1.273970e+00 1.339801e+00 1.276713e+00 1.410481e+00 1.350292e+00 1.486784e+00 1.365105e+00 1.455949e+00 1.322662e+00 1.459707e+00 1.390262e+00 1.514424e+00 1.410138e+00 1.457465e+00 1.371487e+00 1.435248e+00 1.411484e+00 1.442247e+00 1.421390e+00 1.421645e+00 1.459518e+00 1.471249e+00 1.521227e+00 1.465008e+00 1.487565e+00 1.422088e+00 1.509796e+00 1.501973e+00 1.614505e+00 1.569313e+00 1.627455e+00 1.557632e+00 1.627487e+00 1.585674e+00 1.708337e+00 1.654435e+00 1.658488e+00 1.586775e+00 1.595906e+00 1.659872e+00 1.686311e+00 1.670816e+00 1.592224e+00 1.538284e+00 1.527184e+00 1.579641e+00 1.540059e+00 1.582214e+00 1.468298e+00 1.506935e+00 1.416679e+00 1.523906e+00 1.467600e+00 1.564485e+00 1.457654e+00 1.500479e+00 1.409704e+00 1.473062e+00 1.450004e+00 1.494729e+00 1.473859e+00 1.455169e+00 1.479812e+00 1.432150e+00 1.508148e+00 1.419292e+00 1.534956e+00 1.412410e+00 1.579219e+00 1.424221e+00 1.587598e+00 1.392601e+00 1.554835e+00 1.392334e+00 1.583283e+00 1.471190e+00 1.590066e+00 1.465125e+00 1.465209e+00 1.423826e+00 1.411502e+00 1.529385e+00 1.436178e+00 1.608870e+00 1.360125e+00 1.607645e+00 1.312322e+00 1.667711e+00 1.300243e+00 1.676701e+00 1.275474e+00 1.706793e+00 1.349827e+00 1.887760e+00 1.160698e+00 2.472115e+00 5.244049e+00 1.482118e+00 -3.420258e-01 -1.533581e-01 -1.278354e-02 
7.430760e-03 -1.414564e-02 -3.314209e-02 2.629985e-01 1.625063e+00 -6.331826e-01 -2.688096e+00 -4.031162e-01 -9.526263e-01 -5.989004e-01 -8.740721e-01 -4.278322e-01 2.040886e-01 -4.788517e-01 -1.277915e+00 -1.210662e+00 -1.051643e+00 -1.206932e+00 -1.065412e+00 -1.318609e+00 -3.687598e-01 -1.280169e-01 -4.566182e-01 -7.981342e-01 -7.164078e-01 -8.059089e-01 -7.085391e-01 -8.078508e-01 -7.174793e-01 -8.007995e-01 -7.013972e-01 -7.674608e-01 -6.823509e-01 -7.500888e-01 -6.955159e-01 -7.572374e-01 -7.077793e-01 -7.362826e-01 -6.995062e-01 -7.242852e-01 -7.262290e-01 -7.431847e-01 -7.519283e-01 -7.368023e-01 -7.536441e-01 -7.283545e-01 -7.616054e-01 -7.195659e-01 -7.481291e-01 -6.940092e-01 -7.352410e-01 -6.918130e-01 -7.365796e-01 -6.813547e-01 -7.019224e-01 -6.438682e-01 -6.649130e-01 -6.214562e-01 -6.395201e-01 -6.259437e-01 -6.685829e-01 -5.802255e-01 -5.949753e-01 -5.895062e-01 -6.373748e-01 -6.726049e-01 -6.157977e-01 -6.137930e-01 -6.186783e-01 -6.681546e-01 -7.172946e-01 -7.049223e-01 -6.937177e-01 -7.217527e-01 -6.963290e-01 -7.355164e-01 -7.099243e-01 -7.434293e-01 -6.977150e-01 -7.157555e-01 -6.730035e-01 -7.056705e-01 -6.859731e-01 -7.137847e-01 -6.938176e-01 -6.987836e-01 -6.912705e-01 -6.933835e-01 -7.123471e-01 -6.970715e-01 -7.310902e-01 -6.948031e-01 -7.420679e-01 -6.871696e-01 -7.453965e-01 -6.743540e-01 -7.406176e-01 -6.713720e-01 -7.421277e-01 -6.792786e-01 -7.289084e-01 -6.673221e-01 -6.844913e-01 -6.629135e-01 -6.680540e-01 -7.094977e-01 -6.695831e-01 -7.412267e-01 -6.267345e-01 -7.471776e-01 -5.902805e-01 -7.843183e-01 -5.878691e-01 -8.174373e-01 -5.751675e-01 -8.375876e-01 -5.841119e-01 -8.611884e-01 -5.918695e-01 -8.800417e-01 -5.493632e-01 -1.600950e+00 -1.826383e+00 1.400924e+00 5.622295e-01 -9.472408e-02 -3.737708e-02 4.757053e-03 
5.594892e-03 2.954567e-03 9.179224e-04 4.168520e-02 1.282124e-01 -6.974421e-01 -1.136396e+00 -4.186588e-01 -5.229312e-01 -4.330029e-01 -5.167504e-01 -2.883095e-01 5.926296e-01 2.242667e+00 3.028103e+00 2.746169e+00 2.757161e+00 2.836892e+00 2.639919e+00 2.921112e+00 2.358021e+00 3.841414e-01 -3.286125e-01 -5.191707e-01 -4.740345e-01 -5.048742e-01 -4.703666e-01 -5.032726e-01 -4.750751e-01 -4.994899e-01 -4.776324e-01 -4.954471e-01 -4.801391e-01 -4.901091e-01 -4.811961e-01 -4.869120e-01 -4.864670e-01 -4.873256e-01 -4.903944e-01 -4.849571e-01 -4.930837e-01 -4.867839e-01 -4.996350e-01 -4.888550e-01 -5.002603e-01 -4.857647e-01 -4.992156e-01 -4.861456e-01 -4.996720e-01 -4.852661e-01 -4.973361e-01 -4.878792e-01 -5.049073e-01 -5.050890e-01 -5.245836e-01 -5.290082e-01 -5.407550e-01 -5.380887e-01 -5.369694e-01 -5.416613e-01 -5.497457e-01 -5.134817e-01 -4.933239e-01 -4.831795e-01 -4.898958e-01 -5.034148e-01 -4.758614e-01 -4.640194e-01 -4.540813e-01 -4.573151e-01 -4.662296e-01 -4.509931e-01 -4.471096e-01 -4.574605e-01 -4.628695e-01 -4.736552e-01 -4.788558e-01 -4.882113e-01 -4.898416e-01 -4.921926e-01 -4.890208e-01 -4.874973e-01 -4.846220e-01 -4.828728e-01 -4.826372e-01 -4.812332e-01 -4.837201e-01 -4.816900e-01 -4.863743e-01 -4.835881e-01 -4.905713e-01 -4.862538e-01 -4.932433e-01 -4.866673e-01 -4.937833e-01 -4.873575e-01 -4.936541e-01 -4.871793e-01 -4.902600e-01 -4.858606e-01 -4.851904e-01 -4.849323e-01 -4.783276e-01 -4.842328e-01 -4.710497e-01 -4.861344e-01 -4.658929e-01 -4.917525e-01 -4.626862e-01 -4.979402e-01 -4.584912e-01 -5.032396e-01 -4.568694e-01 -5.109674e-01 -4.594996e-01 -5.188492e-01 -4.643024e-01 -5.273729e-01 -4.719926e-01 -5.487229e-01 -4.814719e-01 -8.456196e-01 -1.095430e+00 -1.135462e-01 3.407673e-02 1.145910e-02 8.204555e-03 6.860822e-03 
