# vtk DataFile Version 2.0
Comment goes here
ASCII

DATASET STRUCTURED_POINTS
FIELD FieldData 1
TIME 1 1 double
1.00000000
DIMENSIONS    128   16   1

ORIGIN    0.000   0.000   0.000
SPACING   0.0078125 0.015625   1.000

POINT_DATA   2048
SCALARS Omega double
LOOKUP_TABLE default

2.239413e-05 1.885555e-05 1.490701e-05 1.292699e-05 7.260650e-06 -1.658324e-05 -1.231744e-05 -1.064896e-05 -2.074780e-05 -1.839429e-05 -2.359745e-05 -2.095345e-05 -1.116684e-05 -3.211483e-05 1.878742e-05 -1.419153e-05 1.331146e-05 2.074068e-05 -1.956222e-05 4.494729e-05 -8.631296e-05 -6.165640e-05 -9.979958e-06 9.497090e-06 -2.423291e-05 5.367401e-06 -2.912182e-05 8.452769e-06 -3.036612e-05 7.311339e-06 -3.108458e-05 1.622616e-06 -3.083740e-05 -6.611362e-06 -2.765118e-05 -1.382195e-05 -1.985446e-05 -1.969038e-05 -1.195839e-05 -3.590521e-05 -2.566722e-05 -9.696035e-05 -1.085571e-04 -2.590375e-04 -3.171823e-04 -5.550077e-04 -6.346088e-04 -8.685157e-04 -8.029747e-04 -7.476068e-04 -1.123438e-04 1.041289e-03 3.557393e-03 5.621109e-03 -1.258665e-03 -2.853970e-02 -5.773260e-02 -7.297166e-03 7.813170e-02 -6.825327e-02 -1.766251e-01 5.062821e-02 1.962492e-01 1.721455e-01 -1.728502e-02 -1.374149e-01 6.391192e-02 1.884952e-01 1.728152e-01 3.024770e-02 -7.890568e-02 5.295589e-02 8.374130e-02 5.444592e-03 -5.060192e-03 2.716900e-03 5.653982e-03 5.220555e-03 4.519083e-03 3.787217e-03 3.226176e-03 2.630971e-03 2.150709e-03 1.726866e-03 1.373132e-03 1.128414e-03 8.806940e-04 7.652352e-04 5.827274e-04 5.428100e-04 3.968097e-04 3.957121e-04 2.730314e-04 2.909714e-04 1.871108e-04 2.141691e-04 1.271607e-04 1.575783e-04 8.593055e-05 1.153804e-04 5.797412e-05 8.280189e-05 3.844191e-05 5.647400e-05 2.407105e-05 3.436203e-05 1.331426e-05 1.515972e-05 5.248955e-06 -8.578774e-07 -4.641180e-08 -1.244264e-05 -1.992337e-06 -1.841445e-05 -2.014878e-07 -1.845790e-05 5.019937e-06 -1.414516e-05 1.160070e-05 -9.852172e-06 1.068769e-05 -3.135121e-05 2.086786e-05 3.266754e-05 2.246309e-05 2.079813e-05 2.305162e-05 2.374507e-05 
-4.506834e-03 -5.069911e-03 3.328716e-03 2.872621e-02 -1.020632e-01 -8.680099e-01 7.125071e-02 2.283675e-01 -2.153380e-01 -1.527131e-02 -1.105260e-01 2.106681e-01 -1.794353e-02 -3.170298e-01 -3.436044e-01 -5.392345e-02 -4.282488e-01 -1.805664e-01 -2.947626e-01 -4.177322e-01 -2.033853e-01 7.896073e-02 1.213324e-01 -5.792484e-02 -6.832455e-02 -8.941270e-02 -6.216098e-02 -8.673998e-02 -5.960085e-02 -8.750377e-02 -5.862159e-02 -8.811824e-02 -5.840766e-02 -8.805683e-02 -5.883829e-02 -8.716425e-02 -5.981659e-02 -8.549000e-02 -6.121602e-02 -8.316193e-02 -6.288582e-02 -8.029365e-02 -6.465515e-02 -7.694121e-02 -6.631020e-02 -7.304432e-02 -6.739108e-02 -6.829890e-02 -6.696724e-02 -6.165532e-02 -6.284905e-02 -4.942772e-02 -5.116965e-02 -4.675721e-02 -1.208482e-01 -1.199952e-01 1.929005e-02 3.285082e-01 1.132707e+00 2.351988e-01 -6.641267e-01 1.092001e+00 1.258749e+00 1.254805e+00 6.955479e-01 -1.244725e-01 1.198198e+00 9.756395e-01 1.140301e+00 9.388437e-01 -2.339057e-01 1.170252e+00 1.543305e+00 3.284716e-01 -4.507626e-02 -8.116874e-02 -6.007677e-02 -6.462386e-02 -5.907363e-02 -6.624320e-02 -6.177196e-02 -6.785397e-02 -6.424943e-02 -6.889272e-02 -6.657194e-02 -6.935037e-02 -6.850782e-02 -6.957838e-02 -6.987144e-02 -6.992987e-02 -7.048681e-02 -7.070608e-02 -7.024167e-02 -7.203012e-02 -6.912958e-02 -7.389497e-02 -6.726362e-02 -7.618161e-02 -6.486114e-02 -7.869360e-02 -6.222404e-02 -8.116274e-02 -5.975023e-02 -8.320340e-02 -5.792845e-02 -8.434222e-02 -5.725779e-02 -8.408868e-02 -5.815175e-02 -8.192936e-02 -6.091241e-02 -7.733312e-02 -6.559190e-02 -6.974753e-02 -7.176731e-02 -5.835698e-02 -7.825987e-02 -4.136227e-02 -8.277987e-02 -1.275522e-02 -8.623646e-02 1.464809e-01 -1.029095e-01 -3.083382e-01 -5.305489e-02 -2.550018e-02 -1.514375e-02 -6.579286e-03 
-6.606842e-03 -3.906399e-03 6.315939e-02 3.404896e-01 -5.172984e-02 -2.621254e+00 4.956253e-01 8.942544e-01 -3.413340e-01 1.777628e-01 -1.186609e-01 2.985237e-01 -9.904691e-01 -4.719968e-02 -3.412884e-01 -5.954911e-02 -3.302091e-01 -9.271937e-03 -3.314685e-01 -3.165055e-02 -3.127420e-01 -7.777248e-01 4.437539e-02 1.723634e-02 -3.824968e-02 -2.963822e-02 -2.655608e-02 -3.321003e-02 -1.152126e-02 -4.180346e-02 2.121209e-04 -5.075242e-02 1.018948e-02 -5.766384e-02 1.663318e-02 -6.251524e-02 2.007761e-02 -6.278711e-02 2.075225e-02 -6.062643e-02 1.685197e-02 -5.571179e-02 1.096448e-02 -4.781122e-02 2.151869e-03 -3.914572e-02 -8.410384e-03 -2.955881e-02 -1.978974e-02 -2.115456e-02 -3.187622e-02 -1.436175e-02 -4.927873e-02 -3.575265e-02 -8.529928e-02 4.356774e-01 1.217525e+00 6.202960e-01 4.023101e-01 5.989574e-01 1.531649e-01 7.631119e-01 -4.050269e-01 1.633824e-02 6.248241e-01 1.096321e-01 8.219199e-01 -5.200042e-01 1.201453e-01 7.189903e-01 -5.660451e-01 1.221825e+00 1.749866e+00 2.963023e-01 -9.734097e-02 -1.430513e-01 -6.409066e-02 -7.598930e-02 -2.877476e-02 -4.971672e-02 -1.687132e-02 -3.418740e-02 -1.541540e-02 -2.126937e-02 -1.842851e-02 -9.903062e-03 -2.492771e-02 -1.452083e-03 -3.053757e-02 5.124462e-03 -3.329699e-02 6.771217e-03 -3.267566e-02 3.623841e-03 -2.688972e-02 -4.472553e-03 -1.634630e-02 -1.654055e-02 -1.213457e-03 -3.187957e-02 1.596970e-02 -4.886727e-02 3.411925e-02 -6.494201e-02 4.898224e-02 -7.876704e-02 5.867233e-02 -8.473738e-02 6.163155e-02 -8.178044e-02 5.315017e-02 -6.751302e-02 3.314581e-02 -3.945187e-02 -2.506855e-04 3.104752e-03 -4.571885e-02 6.675251e-02 -1.013918e-01 1.749269e-01 -1.905250e-01 7.536918e-01 -7.407690e-01 -7.652320e-01 7.923192e-01 1.147738e-01 -3.198485e-02 -1.629375e-02 
-5.091687e-03 -6.722504e-03 1.399477e-01 8.767300e-01 7.683039e-01 -1.822977e+00 7.357979e-02 4.095351e-01 -1.023389e-03 1.200854e-01 3.156565e-02 -7.134897e-03 6.122793e-01 2.624997e-01 3.106952e-01 2.583821e-01 3.324410e-01 2.522349e-01 3.053503e-01 3.058438e-01 2.260434e-01 6.966995e-01 -6.485418e-02 1.702598e-01 -1.035914e-02 1.709876e-01 -7.396731e-04 1.404661e-01 1.426360e-02 1.122281e-01 3.379726e-02 8.579143e-02 5.630885e-02 6.275698e-02 7.470639e-02 4.126035e-02 8.933099e-02 2.847208e-02 9.955404e-02 1.850501e-02 9.864333e-02 1.261725e-02 9.261256e-02 1.139062e-02 7.685846e-02 7.652736e-03 5.173701e-02 5.585247e-04 1.513486e-02 -2.025940e-02 -4.203600e-02 -6.773276e-02 -1.355946e-01 -1.567507e-01 -2.585168e-01 -3.855088e-01 -8.102178e-01 -7.515967e-01 -1.060535e+00 -8.450488e-01 -5.212385e-01 -1.196429e+00 -8.365490e-01 -9.636651e-01 -1.128051e+00 -7.977087e-01 -1.363026e+00 -7.527724e-01 -9.791717e-01 -1.248649e+00 -4.643999e-01 -1.479672e+00 -1.773683e+00 -8.015865e-01 -3.247333e-01 -2.409888e-01 -1.174174e-01 -1.236472e-01 -2.881632e-02 -4.776151e-02 1.441215e-02 2.144631e-03 2.863331e-02 4.274095e-02 3.065553e-02 7.664913e-02 2.147897e-02 1.018312e-01 1.215213e-02 1.232376e-01 6.753716e-03 1.335630e-01 5.794585e-03 1.337312e-01 1.439365e-02 1.229487e-01 3.215645e-02 1.030095e-01 6.018151e-02 7.444149e-02 9.320887e-02 4.008499e-02 1.309124e-01 4.836167e-03 1.642879e-01 -3.056046e-02 1.912326e-01 -5.280646e-02 2.099778e-01 -6.186001e-02 2.087747e-01 -5.371844e-02 1.879481e-01 -2.370015e-02 1.399061e-01 2.641172e-02 6.152070e-02 1.038061e-01 -6.021628e-02 2.214554e-01 -2.957142e-01 6.444505e-01 -2.075553e+00 -1.005833e-01 2.755138e+00 4.682993e-01 -2.314686e-02 -1.984480e-02 
2.742372e-03 4.971021e-03 1.303387e-01 7.708355e-01 1.381343e+00 1.670965e+00 -6.298287e-01 -7.080333e-01 4.949221e-01 -2.854320e-02 4.254573e-01 5.912961e-02 3.000739e-01 1.274336e-01 3.901493e-01 1.710676e-01 3.500751e-01 2.093064e-01 3.037289e-01 2.709940e-01 2.395005e-01 1.837922e-01 1.928860e-01 3.874306e-01 1.439462e-01 3.324565e-01 1.304688e-01 3.074693e-01 1.318548e-01 2.866159e-01 1.396810e-01 2.672646e-01 1.527445e-01 2.492017e-01 1.656851e-01 2.305238e-01 1.782119e-01 2.161050e-01 1.892643e-01 2.020316e-01 1.935300e-01 1.892345e-01 1.944391e-01 1.779664e-01 1.880095e-01 1.629150e-01 1.732046e-01 1.430195e-01 1.468292e-01 1.101292e-01 1.007947e-01 5.498404e-02 2.469630e-02 -4.384595e-02 -1.687465e-01 -4.716950e-01 -8.603501e-01 -5.133287e-01 -1.212578e-02 -4.378594e-01 -6.101852e-01 -2.199624e-01 1.185618e-01 -9.524665e-02 -2.229136e-01 -2.145320e-01 -9.972029e-02 8.370063e-02 -1.082785e-01 -1.803272e-01 -1.560924e-01 -1.499894e-01 1.007248e-01 -5.250055e-02 -9.744908e-02 -4.420875e-02 2.813535e-02 4.900674e-02 1.035519e-01 1.082328e-01 1.407437e-01 1.479337e-01 1.563780e-01 1.794342e-01 1.629000e-01 2.049549e-01 1.607500e-01 2.242088e-01 1.570262e-01 2.414732e-01 1.539578e-01 2.523989e-01 1.515779e-01 2.577676e-01 1.535000e-01 2.567727e-01 1.599328e-01 2.500798e-01 1.724473e-01 2.373135e-01 1.884559e-01 2.195686e-01 2.090167e-01 1.990948e-01 2.294195e-01 1.750909e-01 2.496231e-01 1.554946e-01 2.694612e-01 1.391982e-01 2.815485e-01 1.280010e-01 2.862704e-01 1.246658e-01 2.779376e-01 1.280811e-01 2.540375e-01 1.440368e-01 2.094945e-01 1.825918e-01 1.506370e-01 2.473089e-02 -1.110645e+00 1.155049e+00 2.043709e+00 2.023541e-01 -5.904561e-02 -1.743048e-02 
5.230707e-03 8.618044e-04 -2.645674e-03 1.222926e-01 7.138521e-01 1.987868e+00 -2.274838e-01 -4.978256e-01 3.911815e-01 5.606757e-02 4.327468e-01 3.039468e-01 -2.686408e-01 -9.814462e-02 5.379837e-02 4.470534e-02 5.172836e-02 4.844762e-02 4.713640e-02 5.392040e-02 -1.019758e-01 -2.033835e-01 3.054262e-01 2.758560e-01 1.922271e-01 2.535285e-01 2.026834e-01 2.612039e-01 2.036638e-01 2.610503e-01 2.023941e-01 2.590879e-01 2.020428e-01 2.563004e-01 2.029678e-01 2.527555e-01 2.050490e-01 2.487152e-01 2.078928e-01 2.440655e-01 2.108679e-01 2.388282e-01 2.137011e-01 2.328653e-01 2.157605e-01 2.256825e-01 2.163218e-01 2.169428e-01 2.143610e-01 2.057906e-01 2.085528e-01 1.894088e-01 1.841458e-01 1.229583e-01 1.647298e-01 9.722409e-01 2.470369e+00 1.486270e+00 5.106234e-01 1.076093e+00 1.089755e+00 1.162182e+00 -3.207053e-03 4.798467e-01 1.210124e+00 7.968018e-01 1.315966e+00 -9.212895e-02 7.246028e-01 1.398937e+00 -8.309965e-02 1.889637e+00 2.656029e+00 7.908922e-01 1.906367e-01 1.882856e-01 2.026944e-01 2.190535e-01 2.149695e-01 2.215703e-01 2.169527e-01 2.233672e-01 2.183443e-01 2.251431e-01 2.198392e-01 2.268064e-01 2.209926e-01 2.285892e-01 2.215991e-01 2.308887e-01 2.213168e-01 2.337198e-01 2.199322e-01 2.370874e-01 2.176418e-01 2.407443e-01 2.147266e-01 2.443685e-01 2.117073e-01 2.475191e-01 2.090353e-01 2.497704e-01 2.074380e-01 2.506178e-01 2.074866e-01 2.493508e-01 2.099071e-01 2.457172e-01 2.152281e-01 2.391702e-01 2.235472e-01 2.295351e-01 2.352226e-01 2.173203e-01 2.506409e-01 2.042389e-01 2.721625e-01 1.954705e-01 3.084043e-01 2.015529e-01 3.957277e-01 -2.008833e-02 2.930528e-01 8.523830e-01 2.616354e-01 -3.491822e-02 -2.833812e-02 -1.999461e-03 
4.000900e-03 7.065844e-03 4.309918e-03 1.660385e-03 4.956287e-02 2.097382e-01 8.697137e-02 1.958543e-02 8.496501e-02 9.549712e-02 2.659973e-01 5.438240e-01 -2.020885e-01 -3.081386e-01 4.396702e-03 4.512693e-03 4.802375e-03 4.660600e-03 4.619765e-03 4.645699e-03 -1.415406e-01 -9.056216e-02 2.856465e-01 5.989729e-02 2.501839e-02 5.066529e-02 6.006452e-02 7.131072e-02 6.948733e-02 7.535398e-02 7.125309e-02 7.556088e-02 7.119002e-02 7.484638e-02 7.089252e-02 7.408027e-02 7.076592e-02 7.344500e-02 7.082133e-02 7.291392e-02 7.095470e-02 7.239028e-02 7.102005e-02 7.173829e-02 7.085379e-02 7.080804e-02 7.029646e-02 6.946997e-02 6.920503e-02 6.762414e-02 6.753458e-02 6.440721e-02 5.821631e-02 4.016416e-02 8.848066e-02 5.689319e-01 1.409203e+00 9.790190e-01 1.897475e-01 5.357715e-01 6.270484e-01 4.549641e-01 4.890321e-01 7.120372e-01 4.745357e-01 1.438320e-01 3.417476e-01 3.570444e-01 7.238148e-01 5.391853e-01 -2.124737e-02 4.690452e-01 5.968282e-01 1.526135e-01 5.293640e-02 7.222498e-02 8.167041e-02 8.367508e-02 8.133735e-02 8.015137e-02 7.791437e-02 7.687912e-02 7.525153e-02 7.452897e-02 7.351203e-02 7.301853e-02 7.246188e-02 7.212453e-02 7.183030e-02 7.165854e-02 7.141404e-02 7.149587e-02 7.108383e-02 7.154903e-02 7.076629e-02 7.175358e-02 7.042951e-02 7.205803e-02 7.007163e-02 7.241766e-02 6.971325e-02 7.278864e-02 6.939588e-02 7.312106e-02 6.918022e-02 7.336585e-02 6.914628e-02 7.349744e-02 6.941156e-02 7.355684e-02 7.019582e-02 7.376004e-02 7.196112e-02 7.472355e-02 7.569247e-02 7.783578e-02 8.328452e-02 8.540169e-02 9.684400e-02 9.857266e-02 1.205367e-01 1.176139e-01 1.479454e-01 8.698472e-02 -8.723681e-03 -1.966605e-02 -7.799482e-03 -3.368970e-04 
8.116218e-04 2.318211e-03 3.005240e-03 1.555165e-03 2.704461e-04 6.656322e-03 9.393849e-03 7.947293e-03 1.672476e-02 3.912110e-02 1.200055e-01 2.793330e-01 -1.147021e-01 -1.539294e-01 1.229394e-03 1.472857e-03 1.473338e-03 1.473304e-03 1.473109e-03 1.374654e-03 -5.953563e-02 -3.211880e-02 1.080663e-01 -2.368762e-02 -3.430473e-02 -1.875546e-02 -8.445706e-03 -2.947548e-03 -2.284348e-04 1.465938e-03 2.128124e-03 2.590207e-03 2.606268e-03 2.680921e-03 2.569067e-03 2.553242e-03 2.468431e-03 2.439050e-03 2.398378e-03 2.348939e-03 2.312685e-03 2.196721e-03 2.092994e-03 1.840057e-03 1.581960e-03 1.119293e-03 6.324823e-04 -9.037264e-05 -8.585621e-04 -1.884658e-03 -2.965841e-03 -4.375680e-03 -6.918651e-03 -1.416578e-02 -2.702657e-02 -2.236422e-02 2.378784e-02 3.978301e-02 2.101467e-02 5.423622e-02 6.882935e-02 8.222207e-03 -5.321669e-02 -3.032990e-02 1.230114e-02 1.302471e-02 -2.939337e-02 -8.532420e-02 -5.609537e-02 -3.010046e-02 -2.033378e-02 1.770697e-02 5.255351e-03 -2.000417e-02 -1.051943e-02 4.182812e-04 5.165654e-03 6.871723e-03 7.303168e-03 7.216781e-03 6.749514e-03 6.181200e-03 5.548960e-03 4.964881e-03 4.433757e-03 3.964391e-03 3.582264e-03 3.236956e-03 2.986498e-03 2.744427e-03 2.593889e-03 2.430884e-03 2.348333e-03 2.244314e-03 2.201569e-03 2.142933e-03 2.116654e-03 2.096600e-03 2.068095e-03 2.085500e-03 2.040126e-03 2.097762e-03 2.025005e-03 2.128108e-03 2.023146e-03 2.179865e-03 2.048386e-03 2.274744e-03 2.144324e-03 2.477983e-03 2.420753e-03 2.949251e-03 3.118368e-03 4.017935e-03 4.678284e-03 6.213663e-03 7.661602e-03 9.929986e-03 1.186457e-02 1.368685e-02 1.449352e-02 1.558455e-02 1.433187e-02 2.471214e-03 -3.684125e-03 -2.624936e-03 -1.336047e-03 -3.304478e-04 
-4.666230e-05 -3.489961e-05 -2.361780e-05 -1.377608e-05 -5.502440e-06 1.202016e-06 5.585563e-06 7.808967e-06 8.631278e-06 8.604226e-06 8.735485e-06 1.580326e-05 6.321100e-05 -1.206911e-04 -1.853368e-07 -2.604783e-10 -2.038456e-11 1.607218e-11 -1.200419e-09 -7.306097e-07 -4.564876e-04 -1.162604e-03 -9.809629e-05 6.873124e-05 3.297004e-05 1.735783e-05 1.483191e-05 1.890739e-05 2.389260e-05 3.186078e-05 4.176208e-05 5.445894e-05 7.055899e-05 8.966890e-05 1.134927e-04 1.393486e-04 1.688535e-04 1.950408e-04 2.175282e-04 2.223800e-04 2.050963e-04 1.428401e-04 2.658855e-05 -1.736396e-04 -4.675730e-04 -8.845376e-04 -1.427473e-03 -2.114640e-03 -2.939887e-03 -3.908343e-03 -5.006574e-03 -6.203037e-03 -7.515618e-03 -9.267952e-03 -1.227179e-02 -1.593175e-02 -1.670351e-02 -1.336661e-02 -9.360299e-03 -5.595149e-03 -4.396065e-03 -8.231392e-03 -1.269453e-02 -1.278308e-02 -1.264366e-02 -1.610692e-02 -2.259510e-02 -2.808914e-02 -2.795344e-02 -2.706972e-02 -2.575059e-02 -2.238345e-02 -1.893107e-02 -1.332239e-02 -6.947648e-03 -2.530083e-03 1.869184e-04 1.821356e-03 2.719583e-03 3.109147e-03 3.144706e-03 2.984945e-03 2.704400e-03 2.383358e-03 2.046136e-03 1.726655e-03 1.431189e-03 1.169706e-03 9.439885e-04 7.515803e-04 5.939870e-04 4.628065e-04 3.601827e-04 2.758727e-04 2.126023e-04 1.607719e-04 1.233119e-04 9.243937e-05 7.085048e-05 5.285175e-05 4.058709e-05 3.025355e-05 2.331199e-05 1.745992e-05 1.347801e-05 1.012579e-05 7.560843e-06 5.206251e-06 2.676729e-06 -2.209071e-07 -4.267574e-06 -9.357046e-06 -1.639699e-05 -2.487129e-05 -3.546561e-05 -4.705935e-05 -5.990166e-05 -7.221382e-05 -8.402037e-05 -9.315132e-05 -1.000512e-04 -1.023908e-04 -1.021407e-04 -9.695072e-05 -8.975622e-05 -8.124556e-05 -7.037767e-05 -5.904879e-05 
-8.897803e-04 -2.378100e-03 -3.047207e-03 -1.581021e-03 -2.822015e-04 -6.652547e-03 -9.381663e-03 -7.932363e-03 -1.670923e-02 -3.910636e-02 -1.199898e-01 -2.793112e-01 1.147518e-01 1.538168e-01 -1.229568e-03 -1.472857e-03 -1.473337e-03 -1.473303e-03 -1.473113e-03 -1.377657e-03 5.768120e-02 2.905222e-02 -1.083300e-01 2.382327e-02 3.436950e-02 1.878192e-02 8.469560e-03 2.974315e-03 2.672635e-04 -1.417230e-03 -2.058322e-03 -2.501128e-03 -2.484265e-03 -2.525587e-03 -2.365017e-03 -2.298834e-03 -2.151113e-03 -2.062858e-03 -1.965315e-03 -1.884167e-03 -1.853644e-03 -1.812801e-03 -1.882783e-03 -1.938180e-03 -2.163898e-03 -2.385590e-03 -2.824071e-03 -3.266180e-03 -3.941688e-03 -4.609510e-03 -5.488755e-03 -6.318117e-03 -7.276330e-03 -8.089027e-03 -8.951863e-03 -9.610665e-03 -9.894996e-03 -9.224648e-03 -8.065886e-03 -7.137288e-03 -6.718716e-03 -6.457534e-03 -6.743693e-03 -7.389564e-03 -8.502916e-03 -9.927238e-03 -1.105321e-02 -1.194771e-02 -1.247078e-02 -1.254306e-02 -1.197742e-02 -1.030132e-02 -7.964879e-03 -5.453190e-03 -3.152400e-03 -1.442056e-03 -2.035806e-04 5.419131e-04 9.413949e-04 1.035274e-03 9.453800e-04 7.267050e-04 4.426934e-04 1.371453e-04 -1.765262e-04 -4.596635e-04 -7.326838e-04 -9.542980e-04 -1.166535e-03 -1.322623e-03 -1.476363e-03 -1.578508e-03 -1.683566e-03 -1.748960e-03 -1.815033e-03 -1.861557e-03 -1.894788e-03 -1.938931e-03 -1.941194e-03 -1.997455e-03 -1.967310e-03 -2.048224e-03 -1.982977e-03 -2.099658e-03 -1.998854e-03 -2.163086e-03 -2.035002e-03 -2.265472e-03 -2.139737e-03 -2.476854e-03 -2.427802e-03 -2.962126e-03 -3.144962e-03 -4.055057e-03 -4.735251e-03 -6.285782e-03 -7.757314e-03 -1.004177e-02 -1.199830e-02 -1.383125e-02 -1.465154e-02 -1.573959e-02 -1.449430e-02 -2.622290e-03 3.547558e-03 2.498545e-03 1.223984e-03 2.337493e-04 
-4.042682e-03 -7.103781e-03 -4.344054e-03 -1.691149e-03 -4.957418e-02 -2.096813e-01 -8.695863e-02 -1.960312e-02 -8.494525e-02 -9.550394e-02 -2.659848e-01 -5.438104e-01 2.021886e-01 3.078582e-01 -4.397762e-03 -4.513146e-03 -4.800066e-03 -4.659845e-03 -4.617091e-03 -4.644004e-03 1.410749e-01 8.886563e-02 -2.857641e-01 -5.986017e-02 -2.493986e-02 -5.072015e-02 -6.003678e-02 -7.137797e-02 -6.948059e-02 -7.541656e-02 -7.126952e-02 -7.560644e-02 -7.122439e-02 -7.485738e-02 -7.092350e-02 -7.402764e-02 -7.076083e-02 -7.329412e-02 -7.075794e-02 -7.265687e-02 -7.086705e-02 -7.211347e-02 -7.107086e-02 -7.170764e-02 -7.140269e-02 -7.152246e-02 -7.192203e-02 -7.163684e-02 -7.265760e-02 -7.206372e-02 -7.355343e-02 -7.271695e-02 -7.446195e-02 -7.342652e-02 -7.518489e-02 -7.396628e-02 -7.514715e-02 -7.290343e-02 -7.276872e-02 -7.116466e-02 -7.261185e-02 -6.682956e-02 -6.686098e-02 -6.529221e-02 -6.669107e-02 -6.750348e-02 -6.451391e-02 -6.432300e-02 -6.438022e-02 -6.505884e-02 -6.685956e-02 -6.435430e-02 -6.459422e-02 -6.518277e-02 -6.531779e-02 -6.581351e-02 -6.591942e-02 -6.661112e-02 -6.685153e-02 -6.760836e-02 -6.793704e-02 -6.859815e-02 -6.894941e-02 -6.941937e-02 -6.975047e-02 -7.002868e-02 -7.030033e-02 -7.046476e-02 -7.061513e-02 -7.079628e-02 -7.073037e-02 -7.108756e-02 -7.068413e-02 -7.138557e-02 -7.051309e-02 -7.171668e-02 -7.025304e-02 -7.208651e-02 -6.994103e-02 -7.248091e-02 -6.961843e-02 -7.286804e-02 -6.933367e-02 -7.320339e-02 -6.914513e-02 -7.344052e-02 -6.912931e-02 -7.355378e-02 -6.940563e-02 -7.358744e-02 -7.019665e-02 -7.376559e-02 -7.196883e-02 -7.471208e-02 -7.571119e-02 -7.781967e-02 -8.331805e-02 -8.539180e-02 -9.689418e-02 -9.857169e-02 -1.205935e-01 -1.175837e-01 -1.480361e-01 -8.705557e-02 8.695742e-03 1.963925e-02 7.762758e-03 2.936518e-04 
-5.241667e-03 -8.869697e-04 2.603565e-03 -1.223284e-01 -7.137313e-01 -1.987219e+00 2.274359e-01 4.973886e-01 -3.910283e-01 -5.629576e-02 -4.327139e-01 -3.042179e-01 2.685043e-01 9.802340e-02 -5.380984e-02 -4.471952e-02 -5.168086e-02 -4.843801e-02 -4.707553e-02 -5.385829e-02 1.011269e-01 2.020973e-01 -3.048741e-01 -2.762770e-01 -1.917215e-01 -2.541527e-01 -2.025741e-01 -2.619398e-01 -2.040658e-01 -2.619212e-01 -2.035724e-01 -2.601286e-01 -2.040554e-01 -2.576449e-01 -2.060989e-01 -2.547564e-01 -2.094024e-01 -2.513198e-01 -2.136013e-01 -2.476272e-01 -2.184848e-01 -2.438273e-01 -2.236507e-01 -2.402639e-01 -2.291058e-01 -2.373666e-01 -2.345736e-01 -2.351757e-01 -2.396609e-01 -2.336421e-01 -2.437336e-01 -2.322407e-01 -2.458329e-01 -2.301919e-01 -2.449053e-01 -2.263684e-01 -2.380346e-01 -2.157854e-01 -2.248551e-01 -2.070119e-01 -2.334391e-01 -1.854414e-01 -2.025860e-01 -1.843173e-01 -1.967408e-01 -2.001724e-01 -1.811993e-01 -1.838882e-01 -1.855046e-01 -1.831140e-01 -2.043879e-01 -1.828625e-01 -1.938680e-01 -2.034591e-01 -2.140135e-01 -2.202941e-01 -2.248586e-01 -2.292302e-01 -2.301972e-01 -2.334046e-01 -2.323545e-01 -2.350303e-01 -2.328498e-01 -2.352929e-01 -2.321787e-01 -2.350956e-01 -2.307918e-01 -2.351853e-01 -2.286594e-01 -2.358163e-01 -2.258283e-01 -2.373271e-01 -2.224691e-01 -2.396365e-01 -2.186943e-01 -2.425809e-01 -2.148589e-01 -2.458174e-01 -2.113341e-01 -2.489486e-01 -2.086771e-01 -2.513302e-01 -2.071899e-01 -2.521611e-01 -2.074803e-01 -2.509452e-01 -2.100140e-01 -2.469374e-01 -2.151461e-01 -2.399155e-01 -2.234184e-01 -2.298136e-01 -2.349164e-01 -2.170834e-01 -2.502834e-01 -2.037487e-01 -2.718202e-01 -1.948248e-01 -3.081302e-01 -2.009242e-01 -3.955526e-01 2.087283e-02 -2.930482e-01 -8.524910e-01 -2.617010e-01 3.499185e-02 2.838660e-02 2.008779e-03 
-2.750088e-03 -4.994571e-03 -1.303601e-01 -7.707846e-01 -1.381243e+00 -1.670050e+00 6.297631e-01 7.077701e-01 -4.943963e-01 2.833286e-02 -4.255245e-01 -5.984911e-02 -2.999355e-01 -1.282306e-01 -3.896678e-01 -1.717929e-01 -3.494205e-01 -2.101819e-01 -3.027474e-01 -2.714540e-01 -2.375930e-01 -1.849584e-01 -1.931535e-01 -3.887025e-01 -1.440031e-01 -3.342730e-01 -1.320605e-01 -3.099008e-01 -1.343523e-01 -2.901313e-01 -1.446171e-01 -2.712414e-01 -1.579265e-01 -2.535452e-01 -1.754660e-01 -2.399124e-01 -1.926813e-01 -2.267038e-01 -2.074616e-01 -2.183396e-01 -2.214544e-01 -2.132023e-01 -2.309359e-01 -2.122805e-01 -2.407698e-01 -2.186173e-01 -2.501977e-01 -2.288923e-01 -2.593312e-01 -2.436075e-01 -2.691980e-01 -2.611214e-01 -2.807315e-01 -2.817278e-01 -2.935353e-01 -3.006187e-01 -3.021938e-01 -3.125517e-01 -3.053051e-01 -3.198319e-01 -3.293279e-01 -3.097973e-01 -3.127179e-01 -3.060696e-01 -3.145051e-01 -3.142569e-01 -3.068808e-01 -2.901657e-01 -3.075500e-01 -2.745869e-01 -3.178121e-01 -2.599139e-01 -2.956968e-01 -2.592784e-01 -2.984747e-01 -2.565415e-01 -2.891678e-01 -2.512619e-01 -2.729749e-01 -2.455831e-01 -2.539104e-01 -2.452522e-01 -2.359564e-01 -2.471911e-01 -2.156613e-01 -2.505791e-01 -1.983571e-01 -2.569456e-01 -1.828737e-01 -2.613330e-01 -1.705362e-01 -2.654492e-01 -1.639034e-01 -2.659057e-01 -1.615665e-01 -2.616847e-01 -1.650121e-01 -2.519670e-01 -1.740020e-01 -2.387843e-01 -1.905831e-01 -2.221139e-01 -2.093209e-01 -2.005827e-01 -2.306379e-01 -1.797812e-01 -2.517960e-01 -1.577324e-01 -2.682956e-01 -1.403316e-01 -2.819346e-01 -1.294563e-01 -2.854936e-01 -1.241216e-01 -2.774471e-01 -1.282133e-01 -2.538420e-01 -1.432116e-01 -2.090340e-01 -1.818526e-01 -1.496126e-01 -2.246374e-02 1.112660e+00 -1.154648e+00 -2.044724e+00 -2.024704e-01 5.910214e-02 1.745206e-02 
5.079938e-03 6.712839e-03 -1.399252e-01 -8.765705e-01 -7.683543e-01 1.822770e+00 -7.364726e-02 -4.088296e-01 1.438771e-03 -1.198141e-01 -3.175984e-02 6.632704e-03 -6.125385e-01 -2.619180e-01 -3.097872e-01 -2.591238e-01 -3.322017e-01 -2.535404e-01 -3.038189e-01 -3.058053e-01 -2.253757e-01 -6.969697e-01 6.286448e-02 -1.711380e-01 9.006390e-03 -1.722875e-01 -2.034076e-03 -1.424542e-01 -1.712469e-02 -1.155560e-01 -3.842949e-02 -8.936836e-02 -5.910398e-02 -6.603170e-02 -8.168071e-02 -5.054320e-02 -1.002665e-01 -3.778241e-02 -1.124751e-01 -3.380587e-02 -1.213505e-01 -3.557116e-02 -1.221224e-01 -4.364582e-02 -1.224715e-01 -6.162479e-02 -1.220871e-01 -8.418538e-02 -1.223276e-01 -1.121777e-01 -1.265515e-01 -1.442969e-01 -1.387844e-01 -1.829729e-01 -1.612330e-01 -2.233534e-01 -1.919187e-01 -2.681023e-01 -2.295335e-01 -3.042941e-01 -2.415026e-01 -3.343216e-01 -2.934218e-01 -3.379560e-01 -3.217660e-01 -3.105873e-01 -3.440355e-01 -3.133454e-01 -3.420337e-01 -3.003869e-01 -3.128336e-01 -2.731231e-01 -3.048255e-01 -2.192337e-01 -2.553042e-01 -1.683254e-01 -2.109328e-01 -1.356898e-01 -1.713118e-01 -1.162619e-01 -1.360608e-01 -1.126412e-01 -1.068672e-01 -1.164254e-01 -7.675531e-02 -1.237134e-01 -5.285934e-02 -1.348214e-01 -3.354370e-02 -1.412652e-01 -2.093175e-02 -1.447623e-01 -1.873935e-02 -1.401510e-01 -2.461530e-02 -1.262111e-01 -4.006774e-02 -1.025166e-01 -6.381582e-02 -7.327666e-02 -9.760662e-02 -4.017264e-02 -1.320927e-01 -3.237627e-03 -1.662291e-01 2.734920e-02 -1.943580e-01 5.251089e-02 -2.083914e-01 6.207671e-02 -2.097711e-01 5.222339e-02 -1.876168e-01 2.398516e-02 -1.401657e-01 -2.784341e-02 -6.218375e-02 -1.041408e-01 6.017942e-02 -2.218685e-01 2.969231e-01 -6.428857e-01 2.078762e+00 1.015854e-01 -2.756533e+00 -4.686395e-01 2.314506e-02 1.984443e-02 
6.611833e-03 3.918287e-03 -6.312234e-02 -3.403857e-01 5.161901e-02 2.620368e+00 -4.956477e-01 -8.934403e-01 3.412997e-01 -1.773819e-01 1.185571e-01 -2.982387e-01 9.909064e-01 4.757752e-02 3.411671e-01 6.006699e-02 3.292009e-01 1.029017e-02 3.300963e-01 3.323443e-02 3.104618e-01 7.763267e-01 -4.603464e-02 -1.690461e-02 3.719766e-02 2.989551e-02 2.535838e-02 3.333708e-02 1.089447e-02 4.159858e-02 -5.656610e-04 5.067914e-02 -8.817783e-03 5.812121e-02 -1.542219e-02 6.160672e-02 -1.875560e-02 6.279039e-02 -1.831648e-02 5.983942e-02 -1.545979e-02 5.420007e-02 -8.908742e-03 4.616320e-02 -1.657418e-03 3.495688e-02 5.924795e-03 2.268850e-02 1.270982e-02 9.078874e-03 1.660792e-02 -5.854136e-03 1.494562e-02 -2.380123e-02 5.689613e-03 -4.409304e-02 -1.376430e-02 -7.377988e-02 -4.502936e-02 -1.006864e-01 -3.623813e-02 -1.340617e-01 -9.813678e-02 -1.448850e-01 -1.244468e-01 -1.134210e-01 -1.486425e-01 -1.363344e-01 -1.507022e-01 -1.385153e-01 -1.163609e-01 -1.232866e-01 -1.257387e-01 -7.648519e-02 -7.995860e-02 -3.309526e-02 -4.781450e-02 -8.119492e-03 -2.513255e-02 4.690534e-03 -8.432529e-03 7.538113e-03 3.942831e-03 5.466420e-03 1.544375e-02 1.292295e-03 2.392551e-02 -4.044220e-03 2.984548e-02 -6.918160e-03 3.228586e-02 -7.433671e-03 2.989033e-02 -3.600606e-03 2.352781e-02 4.961825e-03 1.293856e-02 1.809077e-02 -1.014242e-03 3.375553e-02 -1.831782e-02 5.051304e-02 -3.500948e-02 6.726851e-02 -4.980461e-02 7.939505e-02 -5.977360e-02 8.605628e-02 -6.118446e-02 8.274324e-02 -5.374386e-02 6.728760e-02 -3.345971e-02 3.928386e-02 -3.465157e-04 -4.217020e-03 4.501187e-02 -6.762933e-02 1.010380e-01 -1.758156e-01 1.908098e-01 -7.540902e-01 7.420813e-01 7.657995e-01 -7.926942e-01 -1.148727e-01 3.198592e-02 1.629480e-02 
4.538384e-03 5.099528e-03 -3.297561e-03 -2.868757e-02 1.020385e-01 8.676598e-01 -7.126918e-02 -2.281538e-01 2.152401e-01 1.536042e-02 1.104763e-01 -2.105137e-01 1.808398e-02 3.165628e-01 3.438952e-01 5.436072e-02 4.275450e-01 1.817915e-01 2.935400e-01 4.184659e-01 2.034905e-01 -7.967008e-02 -1.217873e-01 5.818987e-02 6.805497e-02 8.970743e-02 6.201467e-02 8.708273e-02 5.968663e-02 8.789489e-02 5.904703e-02 8.858499e-02 5.926216e-02 8.867624e-02 6.019025e-02 8.803520e-02 6.175112e-02 8.671062e-02 6.386632e-02 8.485130e-02 6.642449e-02 8.264640e-02 6.927083e-02 8.028143e-02 7.221575e-02 7.791842e-02 7.505224e-02 7.570750e-02 7.759678e-02 7.381487e-02 7.970179e-02 7.236181e-02 8.124108e-02 7.147065e-02 8.133049e-02 6.684474e-02 7.122044e-02 5.681468e-02 6.712970e-02 4.860112e-02 5.921162e-02 4.043140e-02 5.644396e-02 4.336653e-02 4.357121e-02 4.200576e-02 3.945086e-02 4.633393e-02 4.376546e-02 3.973765e-02 4.781345e-02 4.288994e-02 4.722291e-02 5.534930e-02 5.992173e-02 6.843954e-02 6.769313e-02 7.361418e-02 7.089997e-02 7.554821e-02 7.239822e-02 7.564717e-02 7.305992e-02 7.484701e-02 7.338317e-02 7.379144e-02 7.346681e-02 7.288452e-02 7.321397e-02 7.239474e-02 7.249046e-02 7.250476e-02 7.122147e-02 7.331805e-02 6.941088e-02 7.483901e-02 6.714471e-02 7.696040e-02 6.458406e-02 7.944782e-02 6.196715e-02 8.194282e-02 5.961015e-02 8.398462e-02 5.789806e-02 8.506368e-02 5.725900e-02 8.465899e-02 5.811816e-02 8.226793e-02 6.081104e-02 7.742092e-02 6.542424e-02 6.961376e-02 7.157065e-02 5.808174e-02 7.808255e-02 4.104124e-02 8.267359e-02 1.245461e-02 8.621506e-02 -1.469131e-01 1.030290e-01 3.084698e-01 5.311606e-02 2.553207e-02 1.517208e-02 6.609130e-03 
