# vtk DataFile Version 2.0
Comment goes here
ASCII

DATASET STRUCTURED_POINTS
FIELD FieldData 1
TIME 1 1 double
0.30000000
DIMENSIONS    128   16   1

ORIGIN    0.000   0.000   0.000
SPACING   0.0078125 0.015625   1.000

POINT_DATA   2048
SCALARS P double
LOOKUP_TABLE default

-1.058906e+00 -1.041495e+00 -1.060996e+00 -1.049391e+00 -1.059887e+00 -1.057421e+00 -1.055259e+00 -1.071704e+00 -1.053401e+00 -1.078259e+00 -1.049059e+00 -1.075711e+00 -1.035697e+00 -1.055239e+00 -9.986778e-01 -1.008928e+00 -9.513267e-01 -9.549991e-01 -9.014245e-01 -9.042480e-01 -8.581394e-01 -8.657078e-01 -8.413380e-01 -8.531117e-01 -8.409139e-01 -8.514119e-01 -8.464681e-01 -8.538193e-01 -8.541466e-01 -8.578369e-01 -8.614147e-01 -8.605592e-01 -8.660465e-01 -8.619428e-01 -8.700225e-01 -8.645954e-01 -8.750737e-01 -8.688365e-01 -8.808526e-01 -8.742710e-01 -8.867542e-01 -8.793203e-01 -8.908987e-01 -8.827067e-01 -8.936689e-01 -8.857437e-01 -8.961654e-01 -8.880074e-01 -8.969867e-01 -8.880517e-01 -8.959020e-01 -8.867397e-01 -8.940316e-01 -8.845491e-01 -8.913539e-01 -8.817652e-01 -8.891138e-01 -8.808772e-01 -8.876805e-01 -8.763721e-01 -8.860383e-01 -8.739448e-01 -8.788383e-01 -8.608571e-01 -8.662152e-01 -8.534037e-01 -8.616621e-01 -8.461015e-01 -8.504626e-01 -8.360288e-01 -8.463192e-01 -8.334729e-01 -8.434498e-01 -8.315148e-01 -8.436745e-01 -8.325773e-01 -8.466016e-01 -8.354314e-01 -8.503399e-01 -8.381675e-01 -8.543743e-01 -8.418189e-01 -8.602545e-01 -8.472903e-01 -8.678396e-01 -8.540850e-01 -8.768731e-01 -8.623676e-01 -8.872432e-01 -8.718892e-01 -8.983387e-01 -8.822220e-01 -9.098961e-01 -8.936084e-01 -9.217242e-01 -9.054011e-01 -9.324965e-01 -9.166319e-01 -9.426710e-01 -9.297024e-01 -9.553117e-01 -9.461488e-01 -9.693331e-01 -9.623409e-01 -9.812315e-01 -9.760849e-01 -9.909830e-01 -9.874973e-01 -9.990184e-01 -9.963921e-01 -1.006241e+00 -1.003639e+00 -1.013885e+00 -1.009354e+00 -1.022063e+00 -1.013262e+00 -1.030636e+00 -1.015222e+00 -1.039155e+00 -1.015486e+00 -1.047207e+00 -1.015765e+00 -1.054259e+00 -1.020778e+00 -1.054543e+00 -1.026072e+00 -1.056015e+00 -1.033303e+00 
-9.034276e-01 -8.916566e-01 -9.023719e-01 -8.944686e-01 -8.975884e-01 -8.957969e-01 -8.871059e-01 -9.081872e-01 -8.864434e-01 -9.146354e-01 -8.901539e-01 -9.162738e-01 -8.947633e-01 -9.099364e-01 -8.991282e-01 -9.079540e-01 -9.053615e-01 -9.074731e-01 -9.121200e-01 -9.069406e-01 -9.159661e-01 -9.034734e-01 -9.108326e-01 -8.987797e-01 -9.066898e-01 -8.942768e-01 -9.049551e-01 -8.918443e-01 -9.051575e-01 -8.905305e-01 -9.061598e-01 -8.902515e-01 -9.087927e-01 -8.922881e-01 -9.121510e-01 -8.940933e-01 -9.142654e-01 -8.962868e-01 -9.188122e-01 -9.032303e-01 -9.263417e-01 -9.096168e-01 -9.288541e-01 -9.096557e-01 -9.264306e-01 -9.076846e-01 -9.229747e-01 -9.033780e-01 -9.150469e-01 -8.942410e-01 -9.047197e-01 -8.850480e-01 -8.950821e-01 -8.761510e-01 -8.864771e-01 -8.704209e-01 -8.833725e-01 -8.700312e-01 -8.793129e-01 -8.601391e-01 -8.713922e-01 -8.521702e-01 -8.627077e-01 -8.410687e-01 -8.505636e-01 -8.309482e-01 -8.403279e-01 -8.209978e-01 -8.275035e-01 -8.084066e-01 -8.170847e-01 -7.958561e-01 -8.034023e-01 -7.862263e-01 -7.986899e-01 -7.846625e-01 -7.986512e-01 -7.841579e-01 -7.977894e-01 -7.827615e-01 -7.975169e-01 -7.823293e-01 -7.982419e-01 -7.831136e-01 -8.013391e-01 -7.869136e-01 -8.074284e-01 -7.924356e-01 -8.138205e-01 -7.976075e-01 -8.191181e-01 -8.019814e-01 -8.245716e-01 -8.084596e-01 -8.318235e-01 -8.161907e-01 -8.373909e-01 -8.217346e-01 -8.414817e-01 -8.300418e-01 -8.508540e-01 -8.463263e-01 -8.666124e-01 -8.654924e-01 -8.799847e-01 -8.792775e-01 -8.880858e-01 -8.899404e-01 -8.955289e-01 -8.980126e-01 -8.986363e-01 -8.983847e-01 -8.967807e-01 -8.953024e-01 -8.974239e-01 -8.936536e-01 -9.004608e-01 -8.892077e-01 -9.011027e-01 -8.807799e-01 -9.029465e-01 -8.762535e-01 -9.092754e-01 -8.792555e-01 -9.047402e-01 -8.831894e-01 -9.033845e-01 -8.875325e-01 
-1.056649e+00 -1.038490e+00 -1.063871e+00 -1.045375e+00 -1.062929e+00 -1.040536e+00 -1.044691e+00 -1.082818e+00 -1.056806e+00 -1.098700e+00 -1.073664e+00 -1.121289e+00 -1.094624e+00 -1.119356e+00 -1.032555e+00 -1.037850e+00 -9.706268e-01 -9.646252e-01 -9.056308e-01 -8.999061e-01 -8.252608e-01 -8.324154e-01 -8.207357e-01 -8.358174e-01 -8.249988e-01 -8.336744e-01 -8.281236e-01 -8.321186e-01 -8.310149e-01 -8.319965e-01 -8.364368e-01 -8.360510e-01 -8.465681e-01 -8.454536e-01 -8.585043e-01 -8.539468e-01 -8.662634e-01 -8.602674e-01 -8.782751e-01 -8.789928e-01 -9.010818e-01 -8.985050e-01 -9.113818e-01 -9.006188e-01 -9.102169e-01 -9.020524e-01 -9.124655e-01 -9.011279e-01 -9.028095e-01 -8.857505e-01 -8.870973e-01 -8.740204e-01 -8.777711e-01 -8.644327e-01 -8.673489e-01 -8.559329e-01 -8.740178e-01 -8.884473e-01 -8.801782e-01 -8.554276e-01 -8.946922e-01 -9.044925e-01 -8.912740e-01 -8.319677e-01 -8.310443e-01 -8.537276e-01 -8.897288e-01 -8.562528e-01 -8.167728e-01 -7.982614e-01 -8.325767e-01 -8.198168e-01 -8.184149e-01 -8.080351e-01 -8.251423e-01 -8.197203e-01 -8.381284e-01 -8.283663e-01 -8.416706e-01 -8.278918e-01 -8.433379e-01 -8.305748e-01 -8.481453e-01 -8.339385e-01 -8.536779e-01 -8.405010e-01 -8.651565e-01 -8.517378e-01 -8.774682e-01 -8.605426e-01 -8.850144e-01 -8.651014e-01 -8.919073e-01 -8.740413e-01 -9.042119e-01 -8.868045e-01 -9.134176e-01 -8.923382e-01 -9.160999e-01 -9.002180e-01 -9.299434e-01 -9.276415e-01 -9.611084e-01 -9.619137e-01 -9.850765e-01 -9.824607e-01 -9.981847e-01 -1.000493e+00 -1.014162e+00 -1.016305e+00 -1.020040e+00 -1.014666e+00 -1.012983e+00 -1.007645e+00 -1.013865e+00 -1.009120e+00 -1.021033e+00 -1.004599e+00 -1.019965e+00 -9.905214e-01 -1.023201e+00 -9.830731e-01 -1.049789e+00 -1.007262e+00 -1.042705e+00 -1.015103e+00 -1.047688e+00 -1.026895e+00 
-9.027524e-01 -8.923077e-01 -9.128673e-01 -8.961380e-01 -9.161209e-01 -8.844659e-01 -9.080131e-01 -9.811600e-01 -9.541926e-01 -9.994108e-01 -9.896781e-01 -1.029006e+00 -1.018633e+00 -9.671367e-01 -7.636913e-01 -6.436994e-01 -4.916189e-01 -3.352340e-01 -1.977946e-01 -5.240765e-02 1.382227e-01 2.155886e-01 2.006789e-01 2.134903e-01 1.913141e-01 2.006978e-01 1.765263e-01 1.885794e-01 1.620511e-01 1.689235e-01 1.347165e-01 1.389092e-01 1.045171e-01 1.084179e-01 7.016259e-02 7.001873e-02 3.335740e-02 3.770793e-02 3.388325e-03 3.630601e-03 -3.215275e-02 -2.683404e-02 -4.790379e-02 -3.108552e-02 -4.911938e-02 -4.050695e-02 -6.427589e-02 -5.278210e-02 -6.354780e-02 -4.287319e-02 -5.604126e-02 -4.898971e-02 -7.512770e-02 -7.132557e-02 -9.180313e-02 -8.308639e-02 -1.359574e-01 -2.116408e-01 -2.024222e-01 -1.714624e-01 -3.127085e-01 -3.991502e-01 -3.671839e-01 -2.021108e-01 -1.875653e-01 -2.885466e-01 -4.000309e-01 -3.143172e-01 -1.615489e-01 -1.221651e-01 -2.294057e-01 -2.179747e-01 -1.968996e-01 -1.807938e-01 -2.024697e-01 -1.994411e-01 -2.308633e-01 -2.293267e-01 -2.538916e-01 -2.479513e-01 -2.790279e-01 -2.855509e-01 -3.248873e-01 -3.289262e-01 -3.613634e-01 -3.614875e-01 -3.963296e-01 -3.989654e-01 -4.327957e-01 -4.295152e-01 -4.562172e-01 -4.465443e-01 -4.697405e-01 -4.598479e-01 -4.852559e-01 -4.785357e-01 -5.029845e-01 -4.935250e-01 -5.137180e-01 -5.085745e-01 -5.385915e-01 -5.504596e-01 -5.876750e-01 -6.007539e-01 -6.297190e-01 -6.420593e-01 -6.715023e-01 -6.901839e-01 -7.182045e-01 -7.333961e-01 -7.523566e-01 -7.596642e-01 -7.723365e-01 -7.762514e-01 -7.911060e-01 -7.921513e-01 -8.061523e-01 -7.955533e-01 -8.107922e-01 -7.938595e-01 -8.245182e-01 -7.936394e-01 -8.811675e-01 -8.704275e-01 -8.818111e-01 -8.732314e-01 -8.909275e-01 -8.826491e-01 
-1.061354e+00 -1.054337e+00 -1.099409e+00 -1.088431e+00 -1.141539e+00 -1.125586e+00 -1.197986e+00 -1.237332e+00 -1.285944e+00 -1.289733e+00 -1.360358e+00 -1.345976e+00 -1.428713e+00 -1.332373e+00 -6.270546e-01 -2.520093e-01 2.839809e-01 7.592411e-01 1.277806e+00 1.681392e+00 2.409864e+00 2.468366e+00 2.418550e+00 2.416933e+00 2.361998e+00 2.349681e+00 2.298808e+00 2.285089e+00 2.235379e+00 2.212374e+00 2.158569e+00 2.131552e+00 2.084128e+00 2.056881e+00 2.006836e+00 1.970937e+00 1.921281e+00 1.890536e+00 1.852168e+00 1.827790e+00 1.794524e+00 1.774214e+00 1.747780e+00 1.732315e+00 1.705862e+00 1.685060e+00 1.652725e+00 1.631931e+00 1.603183e+00 1.586186e+00 1.552679e+00 1.523913e+00 1.475668e+00 1.442060e+00 1.398000e+00 1.373077e+00 1.310778e+00 1.222176e+00 1.195709e+00 1.181210e+00 1.044602e+00 9.435581e-01 9.239555e-01 1.016210e+00 9.989921e-01 9.071986e-01 7.995163e-01 8.410653e-01 9.330981e-01 9.476466e-01 8.434316e-01 8.435610e-01 8.431429e-01 8.501020e-01 8.187132e-01 8.123118e-01 7.651075e-01 7.478397e-01 6.975506e-01 6.781114e-01 6.188384e-01 5.839626e-01 5.142928e-01 4.803169e-01 4.205028e-01 3.939140e-01 3.372064e-01 3.088801e-01 2.547964e-01 2.311327e-01 1.845796e-01 1.669349e-01 1.283666e-01 1.153602e-01 7.858463e-02 6.282285e-02 2.165609e-02 3.760133e-03 -3.730247e-02 -5.484314e-02 -1.015645e-01 -1.233221e-01 -1.752497e-01 -1.956614e-01 -2.524956e-01 -2.773915e-01 -3.454690e-01 -3.709007e-01 -4.398901e-01 -4.593335e-01 -5.305667e-01 -5.474872e-01 -6.184591e-01 -6.267604e-01 -6.901961e-01 -6.889222e-01 -7.454051e-01 -7.406055e-01 -7.974737e-01 -7.981127e-01 -8.548223e-01 -8.501803e-01 -9.315721e-01 -9.549755e-01 -9.823127e-01 -9.883779e-01 -1.023487e+00 -1.021297e+00 
-9.090077e-01 -9.163309e-01 -9.509301e-01 -9.596245e-01 -9.989489e-01 -1.014188e+00 -1.062422e+00 -1.081067e+00 -1.129506e+00 -1.139728e+00 -1.192740e+00 -1.196004e+00 -1.252223e+00 -1.244993e+00 -3.596436e-01 -2.642852e-01 5.582420e-01 6.896006e-01 1.510446e+00 1.614476e+00 2.499131e+00 2.514370e+00 2.451011e+00 2.455438e+00 2.390722e+00 2.389375e+00 2.327345e+00 2.323216e+00 2.262483e+00 2.253050e+00 2.192491e+00 2.180021e+00 2.123841e+00 2.109981e+00 2.054381e+00 2.035669e+00 1.981177e+00 1.963722e+00 1.917300e+00 1.905359e+00 1.864847e+00 1.854166e+00 1.814952e+00 1.803633e+00 1.764921e+00 1.753078e+00 1.713707e+00 1.700643e+00 1.659578e+00 1.645205e+00 1.601981e+00 1.584283e+00 1.536151e+00 1.516248e+00 1.468916e+00 1.453332e+00 1.408305e+00 1.389052e+00 1.339927e+00 1.320257e+00 1.268746e+00 1.246272e+00 1.194058e+00 1.182780e+00 1.137312e+00 1.125321e+00 1.078612e+00 1.070953e+00 1.035525e+00 1.029131e+00 9.824885e-01 9.757883e-01 9.375079e-01 9.351562e-01 8.954905e-01 8.887076e-01 8.422699e-01 8.276710e-01 7.761151e-01 7.567336e-01 7.010053e-01 6.746451e-01 6.149816e-01 5.871967e-01 5.317023e-01 5.067346e-01 4.551306e-01 4.299999e-01 3.811678e-01 3.571959e-01 3.122740e-01 2.902002e-01 2.504576e-01 2.311270e-01 1.940782e-01 1.736013e-01 1.337653e-01 1.100995e-01 6.850840e-02 4.521091e-02 2.637080e-03 -1.884329e-02 -6.313609e-02 -8.445726e-02 -1.353413e-01 -1.601819e-01 -2.181962e-01 -2.410712e-01 -3.000265e-01 -3.195012e-01 -3.822021e-01 -4.012339e-01 -4.648494e-01 -4.778814e-01 -5.350140e-01 -5.413109e-01 -5.936693e-01 -6.003804e-01 -6.524220e-01 -6.639035e-01 -7.111462e-01 -7.246041e-01 -7.663417e-01 -7.910369e-01 -8.226236e-01 -8.367191e-01 -8.678177e-01 -8.768841e-01 
-1.065424e+00 -1.066102e+00 -1.118798e+00 -1.118883e+00 -1.175536e+00 -1.177160e+00 -1.238437e+00 -1.244716e+00 -1.307485e+00 -1.310706e+00 -1.377751e+00 -1.377578e+00 -1.447724e+00 -1.446017e+00 -4.849213e-01 -3.918365e-01 5.052196e-01 6.317257e-01 1.531592e+00 1.620438e+00 2.595026e+00 2.580467e+00 2.527049e+00 2.511975e+00 2.459004e+00 2.442182e+00 2.390474e+00 2.371831e+00 2.321234e+00 2.299855e+00 2.250111e+00 2.226445e+00 2.178541e+00 2.153216e+00 2.106689e+00 2.079695e+00 2.035172e+00 2.008537e+00 1.967459e+00 1.942261e+00 1.904107e+00 1.880127e+00 1.844032e+00 1.820854e+00 1.785435e+00 1.762102e+00 1.726191e+00 1.702771e+00 1.666257e+00 1.642729e+00 1.604518e+00 1.579750e+00 1.538994e+00 1.513941e+00 1.472509e+00 1.449160e+00 1.407501e+00 1.385892e+00 1.339916e+00 1.315690e+00 1.274076e+00 1.252547e+00 1.210145e+00 1.191324e+00 1.148542e+00 1.133015e+00 1.091256e+00 1.077532e+00 1.035514e+00 1.021006e+00 9.784233e-01 9.602456e-01 9.135635e-01 8.990939e-01 8.530242e-01 8.374799e-01 7.888066e-01 7.704875e-01 7.192364e-01 6.982777e-01 6.443037e-01 6.201462e-01 5.642816e-01 5.390872e-01 4.841821e-01 4.595250e-01 4.060853e-01 3.817849e-01 3.300786e-01 3.068669e-01 2.573915e-01 2.355605e-01 1.880744e-01 1.673018e-01 1.204068e-01 9.959965e-02 5.167498e-02 3.054179e-02 -1.886411e-02 -3.991630e-02 -9.166669e-02 -1.126157e-01 -1.672310e-01 -1.876754e-01 -2.457094e-01 -2.658162e-01 -3.274639e-01 -3.460906e-01 -4.097485e-01 -4.257446e-01 -4.906515e-01 -5.038522e-01 -5.686601e-01 -5.782323e-01 -6.412103e-01 -6.474435e-01 -7.084075e-01 -7.131190e-01 -7.729142e-01 -7.779331e-01 -8.365067e-01 -8.420119e-01 -8.993914e-01 -9.073747e-01 -9.581145e-01 -9.635471e-01 -1.012704e+00 -1.015341e+00 
-9.123732e-01 -9.250617e-01 -9.646730e-01 -9.780115e-01 -1.020082e+00 -1.035180e+00 -1.080337e+00 -1.097154e+00 -1.144590e+00 -1.162701e+00 -1.212130e+00 -1.233560e+00 -1.284052e+00 -1.313435e+00 -3.401440e-01 -3.317345e-01 6.091729e-01 6.335883e-01 1.572079e+00 1.585810e+00 2.551911e+00 2.532526e+00 2.471924e+00 2.459816e+00 2.399483e+00 2.390319e+00 2.330964e+00 2.322438e+00 2.264319e+00 2.254897e+00 2.198153e+00 2.187292e+00 2.132374e+00 2.120078e+00 2.067004e+00 2.053364e+00 2.002418e+00 1.988302e+00 1.940038e+00 1.926104e+00 1.880141e+00 1.866186e+00 1.821675e+00 1.807502e+00 1.763851e+00 1.749460e+00 1.706153e+00 1.691505e+00 1.648098e+00 1.633180e+00 1.589368e+00 1.574135e+00 1.529702e+00 1.514455e+00 1.469837e+00 1.455135e+00 1.410368e+00 1.395789e+00 1.349404e+00 1.334469e+00 1.288646e+00 1.273834e+00 1.229255e+00 1.217890e+00 1.173198e+00 1.161069e+00 1.115711e+00 1.105465e+00 1.061813e+00 1.050868e+00 1.005180e+00 9.924388e-01 9.457255e-01 9.336462e-01 8.868124e-01 8.737141e-01 8.256417e-01 8.104781e-01 7.610371e-01 7.436586e-01 6.931606e-01 6.736069e-01 6.227369e-01 6.018270e-01 5.518102e-01 5.302209e-01 4.815124e-01 4.592765e-01 4.119551e-01 3.892664e-01 3.433500e-01 3.203580e-01 2.756397e-01 2.524051e-01 2.081384e-01 1.843837e-01 1.395677e-01 1.153714e-01 6.965464e-02 4.577801e-02 -1.068831e-03 -2.408151e-02 -7.258562e-02 -9.468452e-02 -1.455683e-01 -1.667513e-01 -2.199994e-01 -2.395570e-01 -2.943288e-01 -3.118792e-01 -3.676125e-01 -3.832486e-01 -4.388516e-01 -4.524265e-01 -5.065222e-01 -5.186312e-01 -5.706949e-01 -5.828359e-01 -6.327115e-01 -6.460896e-01 -6.930436e-01 -7.078519e-01 -7.514198e-01 -7.674980e-01 -8.076149e-01 -8.223616e-01 -8.607804e-01 -8.740596e-01 
-1.066882e+00 -1.069803e+00 -1.124753e+00 -1.127381e+00 -1.184877e+00 -1.188315e+00 -1.248647e+00 -1.253697e+00 -1.316339e+00 -1.322460e+00 -1.387456e+00 -1.396314e+00 -1.462829e+00 -1.479256e+00 -4.648435e-01 -4.337716e-01 5.430542e-01 5.904842e-01 1.570117e+00 1.594422e+00 2.618039e+00 2.587196e+00 2.534965e+00 2.511563e+00 2.460054e+00 2.439649e+00 2.389280e+00 2.369511e+00 2.320522e+00 2.300087e+00 2.252485e+00 2.230731e+00 2.184564e+00 2.161478e+00 2.116890e+00 2.092741e+00 2.049738e+00 2.024801e+00 1.983190e+00 1.957701e+00 1.917179e+00 1.891386e+00 1.851673e+00 1.825872e+00 1.786723e+00 1.761199e+00 1.722389e+00 1.697409e+00 1.658766e+00 1.634559e+00 1.595930e+00 1.572663e+00 1.533918e+00 1.511737e+00 1.472800e+00 1.451799e+00 1.412526e+00 1.392593e+00 1.352662e+00 1.333256e+00 1.292935e+00 1.274114e+00 1.232756e+00 1.214459e+00 1.171879e+00 1.154051e+00 1.110331e+00 1.092678e+00 1.047733e+00 1.029835e+00 9.835992e-01 9.652926e-01 9.176465e-01 8.994860e-01 8.509012e-01 8.325852e-01 7.831649e-01 7.644538e-01 7.143626e-01 6.950480e-01 6.444158e-01 6.243867e-01 5.735366e-01 5.529105e-01 5.021536e-01 4.809133e-01 4.303190e-01 4.084216e-01 3.579943e-01 3.354644e-01 2.850469e-01 2.618837e-01 2.111950e-01 1.875061e-01 1.362027e-01 1.122005e-01 5.995923e-02 3.608741e-02 -1.721393e-02 -4.029248e-02 -9.476554e-02 -1.165419e-01 -1.724534e-01 -1.925992e-01 -2.501307e-01 -2.683133e-01 -3.273981e-01 -3.433128e-01 -4.036650e-01 -4.171572e-01 -4.783605e-01 -4.895090e-01 -5.510980e-01 -5.602719e-01 -6.218140e-01 -6.296105e-01 -6.907048e-01 -6.977986e-01 -7.581079e-01 -7.651183e-01 -8.242727e-01 -8.314344e-01 -8.888164e-01 -8.958862e-01 -9.504940e-01 -9.562463e-01 -1.009408e+00 -1.013527e+00 
-9.129119e-01 -9.260031e-01 -9.659830e-01 -9.795272e-01 -1.021842e+00 -1.036976e+00 -1.082285e+00 -1.098958e+00 -1.146527e+00 -1.164427e+00 -1.213977e+00 -1.235058e+00 -1.285656e+00 -1.314681e+00 -3.422794e-01 -3.336731e-01 6.057488e-01 6.299789e-01 1.566005e+00 1.579172e+00 2.542073e+00 2.522398e+00 2.462644e+00 2.451344e+00 2.392562e+00 2.384799e+00 2.327083e+00 2.320301e+00 2.264240e+00 2.256998e+00 2.202267e+00 2.192997e+00 2.139268e+00 2.128174e+00 2.076493e+00 2.064451e+00 2.014837e+00 2.001424e+00 1.952839e+00 1.937734e+00 1.889712e+00 1.873265e+00 1.825832e+00 1.808803e+00 1.762279e+00 1.745493e+00 1.700022e+00 1.683850e+00 1.639316e+00 1.624027e+00 1.580502e+00 1.566525e+00 1.524037e+00 1.511197e+00 1.469121e+00 1.456932e+00 1.415027e+00 1.403735e+00 1.362146e+00 1.351391e+00 1.309269e+00 1.297897e+00 1.254310e+00 1.242150e+00 1.197056e+00 1.184160e+00 1.137878e+00 1.124544e+00 1.077322e+00 1.063352e+00 1.015104e+00 1.000589e+00 9.516000e-01 9.366485e-01 8.871551e-01 8.719289e-01 8.227478e-01 8.076166e-01 7.590454e-01 7.435110e-01 6.955043e-01 6.794811e-01 6.325035e-01 6.157620e-01 5.694019e-01 5.510602e-01 5.049325e-01 4.848156e-01 4.389330e-01 4.169307e-01 3.708468e-01 3.466930e-01 2.999861e-01 2.739573e-01 2.264760e-01 1.991295e-01 1.507396e-01 1.229679e-01 7.404265e-02 4.740946e-02 -1.601319e-03 -2.634591e-02 -7.617155e-02 -9.905670e-02 -1.500021e-01 -1.703651e-01 -2.222097e-01 -2.399770e-01 -2.928138e-01 -3.080689e-01 -3.612023e-01 -3.740291e-01 -4.271285e-01 -4.388650e-01 -4.920222e-01 -5.039512e-01 -5.563451e-01 -5.690949e-01 -6.197397e-01 -6.342420e-01 -6.827653e-01 -6.995659e-01 -7.452224e-01 -7.630978e-01 -8.047342e-01 -8.206678e-01 -8.600351e-01 -8.740209e-01 
-1.066754e+00 -1.068302e+00 -1.121693e+00 -1.122454e+00 -1.179640e+00 -1.181678e+00 -1.243171e+00 -1.249160e+00 -1.311492e+00 -1.313851e+00 -1.380131e+00 -1.378723e+00 -1.448570e+00 -1.445735e+00 -4.844141e-01 -3.907933e-01 5.042284e-01 6.305137e-01 1.525205e+00 1.613064e+00 2.578687e+00 2.563774e+00 2.510227e+00 2.496279e+00 2.444555e+00 2.430009e+00 2.380019e+00 2.364332e+00 2.316927e+00 2.300050e+00 2.254397e+00 2.234600e+00 2.189597e+00 2.167680e+00 2.125008e+00 2.102597e+00 2.061887e+00 2.037705e+00 1.996770e+00 1.970005e+00 1.928231e+00 1.899439e+00 1.857093e+00 1.827524e+00 1.785542e+00 1.756766e+00 1.715744e+00 1.688284e+00 1.648128e+00 1.622566e+00 1.584042e+00 1.561695e+00 1.525254e+00 1.505575e+00 1.469707e+00 1.451491e+00 1.415885e+00 1.399803e+00 1.364857e+00 1.350029e+00 1.313595e+00 1.297730e+00 1.258164e+00 1.240609e+00 1.197895e+00 1.178944e+00 1.133599e+00 1.113706e+00 1.066095e+00 1.045460e+00 9.960537e-01 9.753883e-01 9.248870e-01 9.042466e-01 8.527368e-01 8.326082e-01 7.817840e-01 7.635146e-01 7.140661e-01 6.968396e-01 6.482571e-01 6.318859e-01 5.848062e-01 5.688173e-01 5.219309e-01 5.042793e-01 4.565133e-01 4.369204e-01 3.884008e-01 3.665560e-01 3.163199e-01 2.913945e-01 2.388772e-01 2.114223e-01 1.570032e-01 1.280311e-01 7.196211e-02 4.270015e-02 -1.404994e-02 -4.119051e-02 -9.731924e-02 -1.212367e-01 -1.777187e-01 -1.988960e-01 -2.561911e-01 -2.736686e-01 -3.313349e-01 -3.451558e-01 -4.038673e-01 -4.145402e-01 -4.739015e-01 -4.815219e-01 -5.416220e-01 -5.480088e-01 -6.097194e-01 -6.163799e-01 -6.789525e-01 -6.859515e-01 -7.482559e-01 -7.563182e-01 -8.185234e-01 -8.283146e-01 -8.897060e-01 -9.007669e-01 -9.539289e-01 -9.612638e-01 -1.011873e+00 -1.015730e+00 
-9.126738e-01 -9.207792e-01 -9.561437e-01 -9.653459e-01 -1.005284e+00 -1.020671e+00 -1.069057e+00 -1.086817e+00 -1.135630e+00 -1.145513e+00 -1.198900e+00 -1.200590e+00 -1.256621e+00 -1.247447e+00 -3.630223e-01 -2.661894e-01 5.534137e-01 6.842042e-01 1.496682e+00 1.596404e+00 2.465648e+00 2.477419e+00 2.415965e+00 2.424840e+00 2.367232e+00 2.371089e+00 2.312660e+00 2.313381e+00 2.260682e+00 2.261886e+00 2.210480e+00 2.201993e+00 2.145269e+00 2.131873e+00 2.081507e+00 2.072750e+00 2.028627e+00 2.017196e+00 1.970151e+00 1.952481e+00 1.902298e+00 1.880319e+00 1.828677e+00 1.805497e+00 1.755525e+00 1.734854e+00 1.687686e+00 1.668914e+00 1.622967e+00 1.605588e+00 1.562237e+00 1.550218e+00 1.512173e+00 1.503683e+00 1.465115e+00 1.454453e+00 1.414830e+00 1.408265e+00 1.374873e+00 1.372913e+00 1.338217e+00 1.330972e+00 1.288546e+00 1.275380e+00 1.228603e+00 1.213752e+00 1.165561e+00 1.149932e+00 1.099478e+00 1.082111e+00 1.030171e+00 1.013452e+00 9.612349e-01 9.427638e-01 8.873466e-01 8.685132e-01 8.170333e-01 8.039277e-01 7.564074e-01 7.430593e-01 6.956857e-01 6.841111e-01 6.426732e-01 6.336271e-01 5.924642e-01 5.780699e-01 5.344732e-01 5.169160e-01 4.742572e-01 4.540056e-01 4.094413e-01 3.830198e-01 3.349298e-01 3.038775e-01 2.537186e-01 2.192104e-01 1.657539e-01 1.281513e-01 7.421859e-02 4.182855e-02 -6.428797e-03 -3.278865e-02 -8.271627e-02 -1.090384e-01 -1.609280e-01 -1.807652e-01 -2.308341e-01 -2.464768e-01 -3.001617e-01 -3.127864e-01 -3.646419e-01 -3.693066e-01 -4.195359e-01 -4.243023e-01 -4.798054e-01 -4.890417e-01 -5.457090e-01 -5.553399e-01 -6.082444e-01 -6.216874e-01 -6.747618e-01 -6.984493e-01 -7.508070e-01 -7.825542e-01 -8.187060e-01 -8.358434e-01 -8.689885e-01 -8.794671e-01 
-1.066393e+00 -1.060497e+00 -1.106629e+00 -1.097268e+00 -1.152061e+00 -1.138765e+00 -1.213267e+00 -1.251761e+00 -1.297815e+00 -1.298266e+00 -1.363445e+00 -1.344445e+00 -1.422949e+00 -1.325663e+00 -6.135241e-01 -2.370341e-01 2.981136e-01 7.729921e-01 1.284277e+00 1.681585e+00 2.389266e+00 2.439576e+00 2.378555e+00 2.378111e+00 2.326570e+00 2.319767e+00 2.269064e+00 2.258070e+00 2.215477e+00 2.207130e+00 2.167518e+00 2.148318e+00 2.101474e+00 2.077419e+00 2.039359e+00 2.023508e+00 1.992883e+00 1.973083e+00 1.936117e+00 1.907563e+00 1.864896e+00 1.830187e+00 1.783141e+00 1.745493e+00 1.699409e+00 1.666276e+00 1.623932e+00 1.592365e+00 1.548379e+00 1.517505e+00 1.478393e+00 1.459546e+00 1.431113e+00 1.418373e+00 1.387485e+00 1.371439e+00 1.340372e+00 1.332687e+00 1.310610e+00 1.308057e+00 1.281370e+00 1.271730e+00 1.235891e+00 1.220100e+00 1.177104e+00 1.156515e+00 1.109043e+00 1.086938e+00 1.036116e+00 1.011298e+00 9.572594e-01 9.344892e-01 8.815371e-01 8.578909e-01 7.994658e-01 7.742534e-01 7.203638e-01 7.054082e-01 6.590174e-01 6.458853e-01 5.989443e-01 5.889601e-01 5.505471e-01 5.465475e-01 5.080193e-01 4.963174e-01 4.521785e-01 4.372184e-01 3.945576e-01 3.771724e-01 3.295657e-01 3.021318e-01 2.469886e-01 2.132806e-01 1.550987e-01 1.179263e-01 5.559794e-02 1.467522e-02 -4.863740e-02 -8.275273e-02 -1.373522e-01 -1.614945e-01 -2.155783e-01 -2.391619e-01 -2.958532e-01 -3.121874e-01 -3.652807e-01 -3.745587e-01 -4.301257e-01 -4.362932e-01 -4.918526e-01 -4.907578e-01 -5.458546e-01 -5.447229e-01 -6.070776e-01 -6.115975e-01 -6.776205e-01 -6.821553e-01 -7.454137e-01 -7.523219e-01 -8.191707e-01 -8.302954e-01 -9.246574e-01 -9.528957e-01 -9.825215e-01 -9.904223e-01 -1.026602e+00 -1.025514e+00 
-9.133374e-01 -9.026314e-01 -9.236895e-01 -9.081080e-01 -9.301832e-01 -9.015610e-01 -9.285907e-01 -9.995003e-01 -9.659029e-01 -1.000664e+00 -9.792932e-01 -1.008405e+00 -9.931121e-01 -9.387571e-01 -7.342753e-01 -6.113220e-01 -4.568170e-01 -2.950451e-01 -1.560919e-01 -9.277727e-03 1.712142e-01 2.386433e-01 2.027795e-01 1.997164e-01 1.635947e-01 1.649371e-01 1.318235e-01 1.352530e-01 1.017420e-01 1.080868e-01 7.922801e-02 9.326732e-02 7.062921e-02 8.849305e-02 6.658083e-02 8.291853e-02 5.873475e-02 7.181296e-02 4.588566e-02 5.633955e-02 2.939702e-02 3.630716e-02 6.026424e-03 7.382163e-03 -2.483046e-02 -2.476500e-02 -5.618096e-02 -5.913119e-02 -9.352625e-02 -9.751830e-02 -1.258041e-01 -1.204707e-01 -1.397386e-01 -1.301673e-01 -1.477936e-01 -1.349758e-01 -1.466488e-01 -1.291186e-01 -1.414181e-01 -1.281068e-01 -1.454628e-01 -1.312986e-01 -1.449362e-01 -1.278835e-01 -1.450302e-01 -1.357656e-01 -1.602457e-01 -1.554297e-01 -1.819802e-01 -1.799914e-01 -2.094228e-01 -2.076791e-01 -2.347756e-01 -2.307173e-01 -2.575563e-01 -2.556383e-01 -2.838964e-01 -2.799609e-01 -3.034153e-01 -2.949318e-01 -3.167108e-01 -3.079791e-01 -3.295352e-01 -3.191707e-01 -3.407519e-01 -3.319624e-01 -3.569181e-01 -3.496142e-01 -3.762390e-01 -3.713254e-01 -4.036601e-01 -4.051251e-01 -4.432512e-01 -4.481767e-01 -4.873367e-01 -4.923600e-01 -5.293565e-01 -5.338085e-01 -5.694787e-01 -5.764371e-01 -6.100051e-01 -6.145185e-01 -6.387369e-01 -6.394323e-01 -6.594138e-01 -6.629924e-01 -6.793348e-01 -6.795728e-01 -6.882660e-01 -6.895297e-01 -7.034905e-01 -7.137703e-01 -7.327754e-01 -7.420506e-01 -7.604039e-01 -7.662788e-01 -7.897822e-01 -7.938571e-01 -8.252693e-01 -8.213191e-01 -8.599978e-01 -8.333164e-01 -9.177939e-01 -8.983176e-01 -9.028614e-01 -8.897664e-01 -9.043851e-01 -8.942270e-01 
-1.064373e+00 -1.045671e+00 -1.070934e+00 -1.052822e+00 -1.071059e+00 -1.049762e+00 -1.054956e+00 -1.091472e+00 -1.059931e+00 -1.094229e+00 -1.060537e+00 -1.101838e+00 -1.071352e+00 -1.094468e+00 -1.006145e+00 -1.010482e+00 -9.422697e-01 -9.326616e-01 -8.707589e-01 -8.597526e-01 -7.850885e-01 -7.952088e-01 -7.963926e-01 -8.268198e-01 -8.329190e-01 -8.527198e-01 -8.563164e-01 -8.690792e-01 -8.789200e-01 -8.888582e-01 -8.969371e-01 -8.904216e-01 -8.881485e-01 -8.733564e-01 -8.772402e-01 -8.688891e-01 -8.809733e-01 -8.726325e-01 -8.829396e-01 -8.710896e-01 -8.794552e-01 -8.667870e-01 -8.759135e-01 -8.661919e-01 -8.782158e-01 -8.725286e-01 -8.865673e-01 -8.837641e-01 -8.987873e-01 -8.957775e-01 -9.078491e-01 -9.029717e-01 -9.135184e-01 -9.070337e-01 -9.136059e-01 -9.000375e-01 -9.010110e-01 -8.877834e-01 -8.960757e-01 -8.889758e-01 -8.996152e-01 -8.860546e-01 -8.880325e-01 -8.671769e-01 -8.691085e-01 -8.525746e-01 -8.601688e-01 -8.469832e-01 -8.558788e-01 -8.437362e-01 -8.550568e-01 -8.447766e-01 -8.562193e-01 -8.430107e-01 -8.514363e-01 -8.382932e-01 -8.518364e-01 -8.429765e-01 -8.578295e-01 -8.447862e-01 -8.580292e-01 -8.457839e-01 -8.655440e-01 -8.553490e-01 -8.762084e-01 -8.617185e-01 -8.832435e-01 -8.680415e-01 -8.941167e-01 -8.799915e-01 -9.098152e-01 -8.951292e-01 -9.268020e-01 -9.115524e-01 -9.434599e-01 -9.262455e-01 -9.539666e-01 -9.335672e-01 -9.593773e-01 -9.456839e-01 -9.751573e-01 -9.656728e-01 -9.860503e-01 -9.725610e-01 -9.859759e-01 -9.790367e-01 -9.906476e-01 -9.845738e-01 -9.871299e-01 -9.830709e-01 -9.907590e-01 -9.987418e-01 -1.012656e+00 -1.018290e+00 -1.028686e+00 -1.025197e+00 -1.040452e+00 -1.032626e+00 -1.060224e+00 -1.040397e+00 -1.075236e+00 -1.029596e+00 -1.085848e+00 -1.033231e+00 -1.061668e+00 -1.029281e+00 -1.058674e+00 -1.035860e+00 
-9.084929e-01 -8.962541e-01 -9.067912e-01 -8.987690e-01 -9.019705e-01 -9.000331e-01 -8.912214e-01 -9.111243e-01 -8.871638e-01 -9.120929e-01 -8.843980e-01 -9.076036e-01 -8.843913e-01 -8.980106e-01 -8.864274e-01 -8.941809e-01 -8.912233e-01 -8.918921e-01 -8.960878e-01 -8.894241e-01 -8.992924e-01 -8.881039e-01 -9.008672e-01 -8.950935e-01 -9.105738e-01 -9.034588e-01 -9.185401e-01 -9.091676e-01 -9.268566e-01 -9.158256e-01 -9.329637e-01 -9.145940e-01 -9.277707e-01 -9.054472e-01 -9.212938e-01 -9.013316e-01 -9.206932e-01 -9.009129e-01 -9.197359e-01 -8.990711e-01 -9.169649e-01 -8.963326e-01 -9.137133e-01 -8.944780e-01 -9.122868e-01 -8.954520e-01 -9.134399e-01 -8.980224e-01 -9.149204e-01 -8.993236e-01 -9.141467e-01 -8.983989e-01 -9.119507e-01 -8.955110e-01 -9.063115e-01 -8.870398e-01 -8.953470e-01 -8.765702e-01 -8.872193e-01 -8.700787e-01 -8.810466e-01 -8.610501e-01 -8.686655e-01 -8.459782e-01 -8.531835e-01 -8.322277e-01 -8.413162e-01 -8.224324e-01 -8.321335e-01 -8.142041e-01 -8.248102e-01 -8.080322e-01 -8.190190e-01 -8.020626e-01 -8.123475e-01 -7.959785e-01 -8.085939e-01 -7.944828e-01 -8.082138e-01 -7.928260e-01 -8.063065e-01 -7.913056e-01 -8.080602e-01 -7.942457e-01 -8.123369e-01 -7.968825e-01 -8.159444e-01 -8.003792e-01 -8.221851e-01 -8.073065e-01 -8.310339e-01 -8.159527e-01 -8.405318e-01 -8.256595e-01 -8.501989e-01 -8.352147e-01 -8.573546e-01 -8.420604e-01 -8.623173e-01 -8.511988e-01 -8.716493e-01 -8.643963e-01 -8.796959e-01 -8.726403e-01 -8.824389e-01 -8.789729e-01 -8.854578e-01 -8.838695e-01 -8.852607e-01 -8.853895e-01 -8.873400e-01 -8.919246e-01 -8.961953e-01 -8.992530e-01 -9.036952e-01 -9.012210e-01 -9.098843e-01 -9.021751e-01 -9.188407e-01 -9.023540e-01 -9.254984e-01 -8.966771e-01 -9.258761e-01 -8.923306e-01 -9.151865e-01 -8.915424e-01 -9.102485e-01 -8.932943e-01 
