# vtk DataFile Version 2.0
Comment goes here
ASCII

DATASET STRUCTURED_POINTS
FIELD FieldData 1
TIME 1 1 double
0.56000000
DIMENSIONS    128   16   1

ORIGIN    0.000   0.000   0.000
SPACING   0.0078125 0.015625   1.000

POINT_DATA   2048
SCALARS P double
LOOKUP_TABLE default

9.387647e-01 9.201283e-01 9.406091e-01 9.264434e-01 9.405385e-01 9.333498e-01 9.391721e-01 9.472048e-01 9.359445e-01 9.549464e-01 9.305556e-01 9.544321e-01 9.175113e-01 9.377327e-01 8.838263e-01 8.973471e-01 8.416424e-01 8.510706e-01 7.973509e-01 8.074492e-01 7.589685e-01 7.725852e-01 7.434319e-01 7.590877e-01 7.405100e-01 7.546772e-01 7.428375e-01 7.540874e-01 7.472635e-01 7.551289e-01 7.524653e-01 7.568634e-01 7.576828e-01 7.586629e-01 7.623413e-01 7.602489e-01 7.663451e-01 7.617930e-01 7.698647e-01 7.634621e-01 7.729684e-01 7.652885e-01 7.757267e-01 7.673477e-01 7.783159e-01 7.697255e-01 7.808466e-01 7.723285e-01 7.832461e-01 7.749277e-01 7.853819e-01 7.773077e-01 7.872117e-01 7.794518e-01 7.889367e-01 7.814961e-01 7.906215e-01 7.830042e-01 7.907356e-01 7.814225e-01 7.926521e-01 7.864517e-01 7.896181e-01 7.791849e-01 7.819621e-01 7.768287e-01 7.858256e-01 7.730879e-01 7.790748e-01 7.672975e-01 7.791359e-01 7.737988e-01 7.825108e-01 7.753222e-01 7.868470e-01 7.785061e-01 7.920428e-01 7.825216e-01 7.977739e-01 7.868799e-01 8.037146e-01 7.913345e-01 8.097699e-01 7.960129e-01 8.160481e-01 8.011290e-01 8.225282e-01 8.067096e-01 8.289740e-01 8.126204e-01 8.350873e-01 8.187577e-01 8.407429e-01 8.251983e-01 8.460534e-01 8.321088e-01 8.511919e-01 8.394868e-01 8.561720e-01 8.470713e-01 8.609731e-01 8.546243e-01 8.657845e-01 8.619819e-01 8.708040e-01 8.688222e-01 8.761180e-01 8.748396e-01 8.819679e-01 8.799957e-01 8.886750e-01 8.842350e-01 8.962008e-01 8.872985e-01 9.042291e-01 8.891544e-01 9.125661e-01 8.903015e-01 9.210629e-01 8.916384e-01 9.291827e-01 8.944447e-01 9.355498e-01 9.022081e-01 9.358740e-01 9.075135e-01 9.366584e-01 9.135585e-01 
7.957249e-01 7.818681e-01 7.942767e-01 7.832386e-01 7.909620e-01 7.835442e-01 7.850534e-01 7.957140e-01 7.805921e-01 8.017697e-01 7.792746e-01 8.034911e-01 7.804855e-01 8.000892e-01 7.839039e-01 8.016635e-01 7.904235e-01 8.036441e-01 7.979123e-01 8.050834e-01 8.042166e-01 8.048164e-01 8.044121e-01 8.045955e-01 8.057227e-01 8.043283e-01 8.073122e-01 8.035437e-01 8.088028e-01 8.025358e-01 8.103147e-01 8.013658e-01 8.113599e-01 7.996357e-01 8.114998e-01 7.972866e-01 8.106603e-01 7.944855e-01 8.091463e-01 7.919691e-01 8.078880e-01 7.905110e-01 8.070622e-01 7.895309e-01 8.057996e-01 7.882882e-01 8.040161e-01 7.870108e-01 8.020390e-01 7.855895e-01 7.996601e-01 7.839077e-01 7.973403e-01 7.825323e-01 7.953909e-01 7.807741e-01 7.923540e-01 7.762662e-01 7.861751e-01 7.707612e-01 7.816493e-01 7.684918e-01 7.750307e-01 7.627258e-01 7.681510e-01 7.574301e-01 7.677949e-01 7.524959e-01 7.642722e-01 7.493799e-01 7.611537e-01 7.502174e-01 7.569685e-01 7.451261e-01 7.554844e-01 7.433233e-01 7.559096e-01 7.433046e-01 7.573094e-01 7.437546e-01 7.589569e-01 7.445656e-01 7.612270e-01 7.460266e-01 7.638359e-01 7.476463e-01 7.662566e-01 7.494380e-01 7.686176e-01 7.516598e-01 7.707032e-01 7.539655e-01 7.721005e-01 7.565080e-01 7.734173e-01 7.599923e-01 7.748580e-01 7.638528e-01 7.757186e-01 7.675177e-01 7.761433e-01 7.710260e-01 7.763943e-01 7.742016e-01 7.768775e-01 7.771726e-01 7.780840e-01 7.796768e-01 7.799956e-01 7.813498e-01 7.828151e-01 7.821937e-01 7.866617e-01 7.819296e-01 7.909696e-01 7.800390e-01 7.953185e-01 7.772052e-01 8.002885e-01 7.747449e-01 8.053309e-01 7.732273e-01 8.083441e-01 7.769254e-01 8.010230e-01 7.779120e-01 7.972668e-01 7.797343e-01 
9.395978e-01 9.209424e-01 9.446620e-01 9.255123e-01 9.432883e-01 9.192132e-01 9.426149e-01 9.591295e-01 9.395623e-01 9.705187e-01 9.448091e-01 9.852688e-01 9.572066e-01 9.840239e-01 9.001704e-01 9.082133e-01 8.451657e-01 8.447658e-01 7.845081e-01 7.888660e-01 7.118322e-01 7.276134e-01 7.167648e-01 7.401390e-01 7.302892e-01 7.478905e-01 7.401338e-01 7.525329e-01 7.478689e-01 7.560818e-01 7.550550e-01 7.591721e-01 7.611560e-01 7.611291e-01 7.656520e-01 7.619439e-01 7.684385e-01 7.617004e-01 7.700575e-01 7.620454e-01 7.728732e-01 7.649564e-01 7.772478e-01 7.687766e-01 7.806666e-01 7.715012e-01 7.828724e-01 7.739894e-01 7.849152e-01 7.763487e-01 7.865033e-01 7.788402e-01 7.894002e-01 7.839553e-01 7.955427e-01 7.921043e-01 8.066957e-01 8.050854e-01 7.920271e-01 7.605918e-01 8.199952e-01 8.429727e-01 8.118747e-01 7.611906e-01 7.356854e-01 7.858073e-01 8.343294e-01 7.829898e-01 7.514683e-01 7.135283e-01 7.638344e-01 7.934055e-01 7.778594e-01 7.682361e-01 7.836858e-01 7.753081e-01 7.908990e-01 7.816988e-01 7.977924e-01 7.868272e-01 8.039683e-01 7.918195e-01 8.111795e-01 7.978316e-01 8.187925e-01 8.034544e-01 8.255432e-01 8.088080e-01 8.321796e-01 8.147759e-01 8.384795e-01 8.204893e-01 8.434541e-01 8.262827e-01 8.486769e-01 8.339574e-01 8.545509e-01 8.420429e-01 8.591341e-01 8.493712e-01 8.628388e-01 8.564357e-01 8.661031e-01 8.630024e-01 8.696633e-01 8.698037e-01 8.745996e-01 8.765169e-01 8.805115e-01 8.822996e-01 8.875658e-01 8.872744e-01 8.961105e-01 8.909689e-01 9.050109e-01 8.919237e-01 9.134243e-01 8.911357e-01 9.232921e-01 8.904939e-01 9.345412e-01 8.862238e-01 9.490283e-01 9.080619e-01 9.356976e-01 9.066093e-01 9.344628e-01 9.128952e-01 
7.957781e-01 7.853084e-01 8.020258e-01 7.877973e-01 8.015448e-01 7.771588e-01 8.340579e-01 8.653925e-01 8.459835e-01 8.774250e-01 8.641356e-01 8.947569e-01 8.801480e-01 8.441069e-01 6.499759e-01 5.473265e-01 4.075857e-01 2.823900e-01 1.431268e-01 4.556516e-02 -1.483437e-01 -1.930738e-01 -1.772229e-01 -1.768601e-01 -1.584700e-01 -1.594875e-01 -1.395582e-01 -1.424216e-01 -1.211878e-01 -1.256869e-01 -1.032738e-01 -1.093324e-01 -8.611848e-02 -9.351325e-02 -6.970548e-02 -7.802710e-02 -5.392021e-02 -6.274214e-02 -3.844308e-02 -4.694372e-02 -2.228784e-02 -2.989007e-02 -5.335147e-03 -1.226369e-02 1.151215e-02 5.138105e-03 2.812753e-02 2.250211e-02 4.479720e-02 3.981198e-02 6.138222e-02 5.715604e-02 7.848013e-02 7.535299e-02 9.683384e-02 9.503675e-02 1.242659e-01 1.235516e-01 6.576050e-02 -2.247721e-02 1.949698e-01 3.255936e-01 2.104004e-01 5.624186e-02 -3.749099e-02 1.800328e-01 3.569103e-01 1.879247e-01 6.727979e-02 -3.666573e-02 1.754142e-01 3.130530e-01 2.444883e-01 2.341866e-01 2.601137e-01 2.564150e-01 2.811065e-01 2.770995e-01 3.008985e-01 2.962020e-01 3.197525e-01 3.147988e-01 3.389401e-01 3.338774e-01 3.585625e-01 3.532146e-01 3.784181e-01 3.731949e-01 3.990191e-01 3.942338e-01 4.202084e-01 4.158715e-01 4.414481e-01 4.380734e-01 4.631147e-01 4.612413e-01 4.851037e-01 4.845411e-01 5.064215e-01 5.072555e-01 5.270123e-01 5.293982e-01 5.469757e-01 5.507690e-01 5.664957e-01 5.714722e-01 5.859868e-01 5.914973e-01 6.056805e-01 6.108790e-01 6.260038e-01 6.298488e-01 6.473149e-01 6.484734e-01 6.695777e-01 6.665133e-01 6.926416e-01 6.840366e-01 7.170479e-01 7.007701e-01 7.438511e-01 7.075454e-01 7.867465e-01 7.820612e-01 7.874100e-01 7.752711e-01 7.889918e-01 7.789849e-01 
9.406929e-01 9.356056e-01 9.743568e-01 9.676459e-01 1.010941e+00 1.003899e+00 1.090660e+00 1.103409e+00 1.151281e+00 1.149319e+00 1.211540e+00 1.196511e+00 1.266666e+00 1.190811e+00 5.399336e-01 1.731614e-01 -2.704558e-01 -6.908665e-01 -1.156031e+00 -1.464621e+00 -2.166621e+00 -2.197829e+00 -2.152248e+00 -2.145963e+00 -2.101400e+00 -2.092241e+00 -2.048353e+00 -2.037259e+00 -1.994617e+00 -1.982421e+00 -1.941646e+00 -1.928047e+00 -1.888777e+00 -1.873084e+00 -1.835102e+00 -1.817093e+00 -1.780198e+00 -1.759905e+00 -1.724325e+00 -1.702892e+00 -1.669518e+00 -1.647909e+00 -1.616096e+00 -1.593504e+00 -1.561628e+00 -1.537936e+00 -1.505975e+00 -1.482385e+00 -1.450467e+00 -1.427378e+00 -1.395240e+00 -1.373730e+00 -1.342651e+00 -1.324834e+00 -1.295582e+00 -1.282185e+00 -1.249564e+00 -1.243070e+00 -1.271336e+00 -1.315976e+00 -1.123114e+00 -9.852693e-01 -1.043954e+00 -1.127291e+00 -1.168303e+00 -9.655091e-01 -7.919787e-01 -8.995242e-01 -9.512978e-01 -1.003521e+00 -7.890454e-01 -6.608969e-01 -6.943955e-01 -6.872152e-01 -6.485702e-01 -6.349125e-01 -5.947994e-01 -5.806266e-01 -5.402153e-01 -5.250605e-01 -4.847906e-01 -4.690732e-01 -4.297240e-01 -4.132179e-01 -3.740536e-01 -3.557629e-01 -3.162449e-01 -2.963615e-01 -2.567499e-01 -2.357689e-01 -1.955530e-01 -1.734311e-01 -1.320689e-01 -1.099964e-01 -6.818069e-02 -4.766047e-02 -4.719823e-03 1.441111e-02 5.967421e-02 7.674439e-02 1.242391e-01 1.384468e-01 1.884245e-01 1.994154e-01 2.514225e-01 2.586151e-01 3.123024e-01 3.164505e-01 3.720842e-01 3.742256e-01 4.312718e-01 4.321805e-01 4.899727e-01 4.911930e-01 5.497928e-01 5.531643e-01 6.116757e-01 6.169667e-01 6.733724e-01 6.799459e-01 7.358446e-01 7.373671e-01 8.114391e-01 8.425627e-01 8.689864e-01 8.747672e-01 9.067451e-01 9.051697e-01 
7.977264e-01 8.037050e-01 8.360897e-01 8.432024e-01 8.803772e-01 8.932231e-01 9.417513e-01 9.510730e-01 9.995840e-01 1.002652e+00 1.054333e+00 1.051702e+00 1.104951e+00 1.094096e+00 3.087692e-01 2.209635e-01 -5.068205e-01 -6.196198e-01 -1.348107e+00 -1.430900e+00 -2.214143e+00 -2.226311e+00 -2.172194e+00 -2.177158e+00 -2.124084e+00 -2.125981e+00 -2.073595e+00 -2.073271e+00 -2.022155e+00 -2.020269e+00 -1.971037e+00 -1.967337e+00 -1.919837e+00 -1.913819e+00 -1.867978e+00 -1.859502e+00 -1.815186e+00 -1.804329e+00 -1.761702e+00 -1.749420e+00 -1.709103e+00 -1.696187e+00 -1.657582e+00 -1.643484e+00 -1.605270e+00 -1.589933e+00 -1.551992e+00 -1.536310e+00 -1.498649e+00 -1.482930e+00 -1.445282e+00 -1.430285e+00 -1.393472e+00 -1.380536e+00 -1.344955e+00 -1.334247e+00 -1.299310e+00 -1.291048e+00 -1.256730e+00 -1.244590e+00 -1.191809e+00 -1.164218e+00 -1.121926e+00 -1.111263e+00 -1.066783e+00 -1.036283e+00 -9.787089e-01 -9.694145e-01 -9.273970e-01 -9.119533e-01 -8.482918e-01 -8.257437e-01 -7.871991e-01 -7.762575e-01 -7.338214e-01 -7.214249e-01 -6.794755e-01 -6.663561e-01 -6.250904e-01 -6.107099e-01 -5.702937e-01 -5.549579e-01 -5.159520e-01 -4.994891e-01 -4.612761e-01 -4.429574e-01 -4.050817e-01 -3.851537e-01 -3.477231e-01 -3.266422e-01 -2.891192e-01 -2.669646e-01 -2.287840e-01 -2.066088e-01 -1.681061e-01 -1.471828e-01 -1.076726e-01 -8.800220e-02 -4.641195e-02 -2.859016e-02 1.513322e-02 3.041939e-02 7.649472e-02 8.896049e-02 1.370409e-01 1.463381e-01 1.960462e-01 2.028477e-01 2.541126e-01 2.593795e-01 3.115033e-01 3.161246e-01 3.682705e-01 3.737098e-01 4.254941e-01 4.334311e-01 4.838056e-01 4.945308e-01 5.415552e-01 5.554305e-01 5.987696e-01 6.169130e-01 6.571398e-01 6.834858e-01 7.159504e-01 7.295041e-01 7.595506e-01 7.674816e-01 
9.426465e-01 9.434758e-01 9.917190e-01 9.914806e-01 1.044152e+00 1.044124e+00 1.103396e+00 1.104120e+00 1.163514e+00 1.162106e+00 1.223930e+00 1.220134e+00 1.283826e+00 1.278975e+00 4.228476e-01 3.353019e-01 -4.600407e-01 -5.718618e-01 -1.373050e+00 -1.446115e+00 -2.315904e+00 -2.302250e+00 -2.257322e+00 -2.243443e+00 -2.199031e+00 -2.184925e+00 -2.141161e+00 -2.126624e+00 -2.083785e+00 -2.068608e+00 -2.026937e+00 -2.010809e+00 -1.970368e+00 -1.952988e+00 -1.913779e+00 -1.895011e+00 -1.857008e+00 -1.836902e+00 -1.800111e+00 -1.778954e+00 -1.743373e+00 -1.721452e+00 -1.686797e+00 -1.664192e+00 -1.630002e+00 -1.606884e+00 -1.572879e+00 -1.549598e+00 -1.515574e+00 -1.492403e+00 -1.458152e+00 -1.435336e+00 -1.400751e+00 -1.378324e+00 -1.343012e+00 -1.320158e+00 -1.283080e+00 -1.257378e+00 -1.217400e+00 -1.193890e+00 -1.153379e+00 -1.133029e+00 -1.088941e+00 -1.072990e+00 -1.026755e+00 -1.009522e+00 -9.669414e-01 -9.448877e-01 -9.055482e-01 -8.827973e-01 -8.397877e-01 -8.205807e-01 -7.710571e-01 -7.528975e-01 -7.070551e-01 -6.896265e-01 -6.455667e-01 -6.282755e-01 -5.851966e-01 -5.676316e-01 -5.252037e-01 -5.071995e-01 -4.652994e-01 -4.467055e-01 -4.050744e-01 -3.857382e-01 -3.441223e-01 -3.241308e-01 -2.823450e-01 -2.619429e-01 -2.197032e-01 -1.992025e-01 -1.562180e-01 -1.361568e-01 -9.224900e-02 -7.321789e-02 -2.804022e-02 -1.041376e-02 3.643056e-02 5.226010e-02 1.009535e-01 1.146468e-01 1.652692e-01 1.766516e-01 2.290950e-01 2.381556e-01 2.922234e-01 2.992890e-01 3.547539e-01 3.603595e-01 4.168276e-01 4.216043e-01 4.786040e-01 4.832994e-01 5.403840e-01 5.456780e-01 6.022773e-01 6.084399e-01 6.639414e-01 6.710050e-01 7.252255e-01 7.331488e-01 7.859126e-01 7.959849e-01 8.426224e-01 8.489943e-01 8.939066e-01 8.969864e-01 
7.988302e-01 8.089506e-01 8.463088e-01 8.563419e-01 8.964205e-01 9.071219e-01 9.506542e-01 9.615125e-01 1.007254e+00 1.018707e+00 1.065952e+00 1.080138e+00 1.127726e+00 1.148879e+00 2.900365e-01 2.800745e-01 -5.520884e-01 -5.736634e-01 -1.405204e+00 -1.415588e+00 -2.272149e+00 -2.253282e+00 -2.203024e+00 -2.191893e+00 -2.141197e+00 -2.133831e+00 -2.083330e+00 -2.077506e+00 -2.027732e+00 -2.022161e+00 -1.973517e+00 -1.967359e+00 -1.920062e+00 -1.912765e+00 -1.866921e+00 -1.858209e+00 -1.813858e+00 -1.803692e+00 -1.760834e+00 -1.749375e+00 -1.707948e+00 -1.695401e+00 -1.655150e+00 -1.641646e+00 -1.602205e+00 -1.587925e+00 -1.548997e+00 -1.534202e+00 -1.495523e+00 -1.480435e+00 -1.441757e+00 -1.426571e+00 -1.387708e+00 -1.372504e+00 -1.333132e+00 -1.317560e+00 -1.276993e+00 -1.259977e+00 -1.218005e+00 -1.202656e+00 -1.158738e+00 -1.143050e+00 -1.099263e+00 -1.085952e+00 -1.041005e+00 -1.025760e+00 -9.804979e-01 -9.656452e-01 -9.225268e-01 -9.070348e-01 -8.613185e-01 -8.459195e-01 -8.002154e-01 -7.856516e-01 -7.415507e-01 -7.270784e-01 -6.840971e-01 -6.692417e-01 -6.271880e-01 -6.116236e-01 -5.704331e-01 -5.540129e-01 -5.136699e-01 -4.963146e-01 -4.566895e-01 -4.383689e-01 -3.992748e-01 -3.801198e-01 -3.413426e-01 -3.216058e-01 -2.828374e-01 -2.628566e-01 -2.237609e-01 -2.040257e-01 -1.643076e-01 -1.453433e-01 -1.046234e-01 -8.682675e-02 -4.471573e-02 -2.844139e-02 1.529355e-02 2.977283e-02 7.522425e-02 8.779667e-02 1.348726e-01 1.456132e-01 1.940727e-01 2.033182e-01 2.527907e-01 2.610708e-01 3.110193e-01 3.189955e-01 3.687945e-01 3.772302e-01 4.262327e-01 4.358338e-01 4.833268e-01 4.945199e-01 5.398115e-01 5.527577e-01 5.954577e-01 6.099814e-01 6.499833e-01 6.652474e-01 7.025394e-01 7.158203e-01 7.516711e-01 7.629395e-01 
9.431954e-01 9.452346e-01 9.955741e-01 9.966965e-01 1.050008e+00 1.050939e+00 1.107561e+00 1.108827e+00 1.167442e+00 1.169373e+00 1.229546e+00 1.233850e+00 1.294658e+00 1.305433e+00 4.043613e-01 3.742158e-01 -4.948679e-01 -5.371654e-01 -1.411005e+00 -1.430723e+00 -2.345333e+00 -2.315913e+00 -2.273008e+00 -2.250996e+00 -2.207672e+00 -2.189130e+00 -2.145999e+00 -2.128877e+00 -2.086357e+00 -2.069521e+00 -2.027904e+00 -2.010689e+00 -1.970151e+00 -1.952155e+00 -1.912774e+00 -1.893803e+00 -1.855600e+00 -1.835622e+00 -1.798539e+00 -1.777622e+00 -1.741516e+00 -1.719794e+00 -1.684458e+00 -1.662114e+00 -1.627294e+00 -1.604523e+00 -1.569922e+00 -1.546897e+00 -1.512194e+00 -1.489050e+00 -1.453928e+00 -1.430764e+00 -1.394931e+00 -1.371814e+00 -1.335016e+00 -1.311983e+00 -1.273986e+00 -1.251141e+00 -1.211808e+00 -1.189842e+00 -1.149310e+00 -1.128550e+00 -1.086741e+00 -1.067104e+00 -1.024465e+00 -1.005142e+00 -9.624802e-01 -9.429625e-01 -9.002722e-01 -8.809197e-01 -8.374088e-01 -8.186677e-01 -7.741618e-01 -7.558480e-01 -7.114292e-01 -6.933122e-01 -6.492572e-01 -6.310764e-01 -5.874240e-01 -5.689647e-01 -5.256926e-01 -5.068308e-01 -4.639104e-01 -4.446306e-01 -4.020089e-01 -3.823804e-01 -3.399374e-01 -3.200965e-01 -2.776339e-01 -2.577878e-01 -2.150454e-01 -1.954777e-01 -1.521628e-01 -1.332225e-01 -8.903005e-02 -7.108949e-02 -2.571226e-02 -9.109125e-03 3.774179e-02 5.274216e-02 1.012851e-01 1.145040e-01 1.648413e-01 1.762173e-01 2.283247e-01 2.379406e-01 2.916546e-01 2.997229e-01 3.547301e-01 3.615714e-01 4.174466e-01 4.234821e-01 4.797513e-01 4.854513e-01 5.416208e-01 5.474012e-01 6.029814e-01 6.091191e-01 6.636744e-01 6.702656e-01 7.234324e-01 7.303736e-01 7.817581e-01 7.887048e-01 8.377351e-01 8.432058e-01 8.911567e-01 8.947587e-01 
7.986526e-01 8.086742e-01 8.459768e-01 8.558973e-01 8.959309e-01 9.064919e-01 9.500016e-01 9.606925e-01 1.006482e+00 1.017761e+00 1.065157e+00 1.079106e+00 1.126924e+00 1.147715e+00 2.890440e-01 2.789199e-01 -5.533941e-01 -5.749603e-01 -1.406976e+00 -1.417195e+00 -2.274444e+00 -2.255280e+00 -2.204912e+00 -2.193405e+00 -2.142496e+00 -2.134745e+00 -2.083995e+00 -2.077824e+00 -2.027774e+00 -2.021880e+00 -1.972960e+00 -1.966548e+00 -1.919028e+00 -1.911556e+00 -1.865551e+00 -1.856763e+00 -1.812372e+00 -1.802252e+00 -1.759419e+00 -1.747962e+00 -1.706435e+00 -1.693734e+00 -1.653309e+00 -1.639676e+00 -1.600197e+00 -1.585927e+00 -1.547059e+00 -1.532271e+00 -1.493572e+00 -1.478328e+00 -1.439367e+00 -1.423678e+00 -1.384063e+00 -1.368003e+00 -1.327592e+00 -1.311438e+00 -1.270266e+00 -1.254290e+00 -1.212355e+00 -1.196906e+00 -1.154135e+00 -1.139052e+00 -1.095557e+00 -1.080854e+00 -1.036720e+00 -1.022127e+00 -9.777886e-01 -9.635242e-01 -9.193691e-01 -9.052698e-01 -8.609480e-01 -8.468121e-01 -8.025528e-01 -7.882768e-01 -7.444486e-01 -7.297983e-01 -6.865490e-01 -6.712589e-01 -6.286735e-01 -6.125116e-01 -5.706086e-01 -5.534191e-01 -5.122576e-01 -4.941297e-01 -4.538409e-01 -4.349949e-01 -3.955390e-01 -3.761446e-01 -3.372552e-01 -3.175105e-01 -2.788410e-01 -2.590750e-01 -2.202459e-01 -2.008481e-01 -1.614328e-01 -1.428402e-01 -1.024683e-01 -8.512672e-02 -4.342599e-02 -2.760844e-02 1.576846e-02 2.988711e-02 7.508354e-02 8.746092e-02 1.344977e-01 1.453335e-01 1.940277e-01 2.035973e-01 2.534274e-01 2.620720e-01 3.123494e-01 3.206259e-01 3.706667e-01 3.792731e-01 4.283466e-01 4.379056e-01 4.852826e-01 4.962997e-01 5.414105e-01 5.541326e-01 5.965971e-01 6.108509e-01 6.506135e-01 6.656681e-01 7.027930e-01 7.159303e-01 7.516732e-01 7.628347e-01 
9.423666e-01 9.430363e-01 9.911804e-01 9.907584e-01 1.043348e+00 1.043104e+00 1.102348e+00 1.102861e+00 1.162417e+00 1.160830e+00 1.223029e+00 1.218890e+00 1.283089e+00 1.277387e+00 4.216043e-01 3.337866e-01 -4.620650e-01 -5.737645e-01 -1.376193e+00 -1.448797e+00 -2.320525e+00 -2.306008e+00 -2.261038e+00 -2.246415e+00 -2.201709e+00 -2.186906e+00 -2.142725e+00 -2.127546e+00 -2.084171e+00 -2.068341e+00 -2.026078e+00 -2.009382e+00 -1.968423e+00 -1.950591e+00 -1.910963e+00 -1.891915e+00 -1.853739e+00 -1.833615e+00 -1.796815e+00 -1.775598e+00 -1.739801e+00 -1.717547e+00 -1.682546e+00 -1.659679e+00 -1.625413e+00 -1.602300e+00 -1.568391e+00 -1.545077e+00 -1.510969e+00 -1.487457e+00 -1.452625e+00 -1.428851e+00 -1.392787e+00 -1.368827e+00 -1.331476e+00 -1.307859e+00 -1.269506e+00 -1.246737e+00 -1.207492e+00 -1.185769e+00 -1.145519e+00 -1.124688e+00 -1.083368e+00 -1.063271e+00 -1.021012e+00 -1.001639e+00 -9.589134e-01 -9.404886e-01 -8.976149e-01 -8.798783e-01 -8.365664e-01 -8.190281e-01 -7.752160e-01 -7.576694e-01 -7.135646e-01 -6.958009e-01 -6.515929e-01 -6.333814e-01 -5.892449e-01 -5.703864e-01 -5.263838e-01 -5.067268e-01 -4.629986e-01 -4.427562e-01 -3.996228e-01 -3.791567e-01 -3.366799e-01 -3.161624e-01 -2.740629e-01 -2.536379e-01 -2.115639e-01 -1.915342e-01 -1.491076e-01 -1.297996e-01 -8.655128e-02 -6.835060e-02 -2.392920e-02 -7.288175e-03 3.869571e-02 5.358200e-02 1.015652e-01 1.145557e-01 1.647040e-01 1.757430e-01 2.281672e-01 2.374898e-01 2.921031e-01 2.998923e-01 3.561416e-01 3.625350e-01 4.197125e-01 4.251263e-01 4.826395e-01 4.876810e-01 5.448937e-01 5.500540e-01 6.063569e-01 6.120856e-01 6.671470e-01 6.736829e-01 7.273616e-01 7.346968e-01 7.869715e-01 7.966837e-01 8.430332e-01 8.491809e-01 8.939161e-01 8.968292e-01 
7.970923e-01 8.028623e-01 8.351062e-01 8.419367e-01 8.789301e-01 8.913520e-01 9.396177e-01 9.483574e-01 9.968849e-01 9.996525e-01 1.051884e+00 1.048790e+00 1.102704e+00 1.090602e+00 3.062843e-01 2.181062e-01 -5.101233e-01 -6.228400e-01 -1.353201e+00 -1.435399e+00 -2.222020e+00 -2.232893e+00 -2.178585e+00 -2.182147e+00 -2.128166e+00 -2.128707e+00 -2.075545e+00 -2.074239e+00 -2.022185e+00 -2.019151e+00 -1.968871e+00 -1.964375e+00 -1.916176e+00 -1.909550e+00 -1.862989e+00 -1.854186e+00 -1.809983e+00 -1.799927e+00 -1.758130e+00 -1.746301e+00 -1.705488e+00 -1.691388e+00 -1.651416e+00 -1.636474e+00 -1.598287e+00 -1.583558e+00 -1.546522e+00 -1.531485e+00 -1.494492e+00 -1.479051e+00 -1.441378e+00 -1.424886e+00 -1.385083e+00 -1.367066e+00 -1.325473e+00 -1.307649e+00 -1.265879e+00 -1.249543e+00 -1.207946e+00 -1.193037e+00 -1.150961e+00 -1.136430e+00 -1.092890e+00 -1.077874e+00 -1.032808e+00 -1.017996e+00 -9.730322e-01 -9.600057e-01 -9.162149e-01 -9.043183e-01 -8.604747e-01 -8.480162e-01 -8.037278e-01 -7.906777e-01 -7.465302e-01 -7.327644e-01 -6.889067e-01 -6.741104e-01 -6.309177e-01 -6.147815e-01 -5.719302e-01 -5.536138e-01 -5.111092e-01 -4.913269e-01 -4.505334e-01 -4.304826e-01 -3.917321e-01 -3.713040e-01 -3.336896e-01 -3.126210e-01 -2.755684e-01 -2.544582e-01 -2.176037e-01 -1.967945e-01 -1.591639e-01 -1.391589e-01 -1.006248e-01 -8.264592e-02 -4.274467e-02 -2.668480e-02 1.576107e-02 2.968779e-02 7.454687e-02 8.592897e-02 1.336596e-01 1.434878e-01 1.945047e-01 2.030315e-01 2.559752e-01 2.627549e-01 3.160988e-01 3.218814e-01 3.750885e-01 3.813740e-01 4.334356e-01 4.409296e-01 4.904671e-01 5.003217e-01 5.467631e-01 5.599576e-01 6.023868e-01 6.192951e-01 6.585000e-01 6.841962e-01 7.162106e-01 7.294496e-01 7.592698e-01 7.669947e-01 
9.400100e-01 9.347283e-01 9.733051e-01 9.662653e-01 1.009254e+00 1.001621e+00 1.087853e+00 1.100224e+00 1.148416e+00 1.146854e+00 1.210050e+00 1.195644e+00 1.266783e+00 1.191458e+00 5.386871e-01 1.720879e-01 -2.730097e-01 -6.929147e-01 -1.160588e+00 -1.468474e+00 -2.174370e+00 -2.204975e+00 -2.159603e+00 -2.152296e+00 -2.106921e+00 -2.096525e+00 -2.051835e+00 -2.039704e+00 -1.995836e+00 -1.982111e+00 -1.939781e+00 -1.924913e+00 -1.884451e+00 -1.867629e+00 -1.828404e+00 -1.809605e+00 -1.772612e+00 -1.753105e+00 -1.718524e+00 -1.697602e+00 -1.663617e+00 -1.640478e+00 -1.606946e+00 -1.583366e+00 -1.551670e+00 -1.528961e+00 -1.498333e+00 -1.475669e+00 -1.444715e+00 -1.421942e+00 -1.389843e+00 -1.366080e+00 -1.330929e+00 -1.305444e+00 -1.267691e+00 -1.242769e+00 -1.204636e+00 -1.182042e+00 -1.144116e+00 -1.123839e+00 -1.084794e+00 -1.065096e+00 -1.024756e+00 -1.005226e+00 -9.629282e-01 -9.437182e-01 -9.009598e-01 -8.853089e-01 -8.442369e-01 -8.304299e-01 -7.884924e-01 -7.736322e-01 -7.308638e-01 -7.156009e-01 -6.721055e-01 -6.563017e-01 -6.122852e-01 -5.955700e-01 -5.515315e-01 -5.335862e-01 -4.891409e-01 -4.689906e-01 -4.242520e-01 -4.029533e-01 -3.598107e-01 -3.389353e-01 -2.978995e-01 -2.772436e-01 -2.372626e-01 -2.163802e-01 -1.768571e-01 -1.563475e-01 -1.169553e-01 -9.702445e-02 -5.664412e-02 -3.771156e-02 3.644161e-03 2.020980e-02 6.303369e-02 7.761347e-02 1.233663e-01 1.357691e-01 1.841803e-01 1.938594e-01 2.456008e-01 2.538158e-01 3.096040e-01 3.164435e-01 3.746691e-01 3.791485e-01 4.381044e-01 4.408029e-01 5.002123e-01 5.026433e-01 5.615706e-01 5.641245e-01 6.212030e-01 6.249306e-01 6.801684e-01 6.854036e-01 7.396499e-01 7.390890e-01 8.117833e-01 8.426107e-01 8.688213e-01 8.744668e-01 9.063166e-01 9.046091e-01 
7.946718e-01 7.841686e-01 8.008467e-01 7.864390e-01 8.000444e-01 7.753082e-01 8.320230e-01 8.637092e-01 8.450310e-01 8.770418e-01 8.642660e-01 8.954063e-01 8.810545e-01 8.456439e-01 6.514409e-01 5.494219e-01 4.094248e-01 2.851217e-01 1.450479e-01 4.829930e-02 -1.471392e-01 -1.919408e-01 -1.776417e-01 -1.780336e-01 -1.612747e-01 -1.629840e-01 -1.439948e-01 -1.469154e-01 -1.259785e-01 -1.300998e-01 -1.074348e-01 -1.125277e-01 -8.856390e-02 -9.479695e-02 -7.027849e-02 -7.748523e-02 -5.250494e-02 -6.008686e-02 -3.501644e-02 -4.311274e-02 -1.884224e-02 -2.746966e-02 -4.040608e-03 -1.233948e-02 1.075877e-02 3.362062e-03 2.605223e-02 1.943174e-02 4.156013e-02 3.569854e-02 5.727017e-02 5.181978e-02 7.255244e-02 6.726044e-02 8.764316e-02 8.309209e-02 1.039501e-01 1.003801e-01 1.217295e-01 1.187367e-01 1.410294e-01 1.385430e-01 1.591489e-01 1.552706e-01 1.749423e-01 1.711591e-01 1.916164e-01 1.866702e-01 2.069296e-01 2.021576e-01 2.230657e-01 2.191291e-01 2.395148e-01 2.356058e-01 2.570215e-01 2.533756e-01 2.759100e-01 2.725831e-01 2.963788e-01 2.932407e-01 3.178868e-01 3.142304e-01 3.392752e-01 3.350976e-01 3.608540e-01 3.565555e-01 3.829129e-01 3.783004e-01 4.045292e-01 3.994450e-01 4.251304e-01 4.200698e-01 4.450320e-01 4.404228e-01 4.641641e-01 4.604918e-01 4.829979e-01 4.811611e-01 5.023685e-01 5.025414e-01 5.220184e-01 5.243119e-01 5.423006e-01 5.467792e-01 5.633880e-01 5.692316e-01 5.846162e-01 5.909967e-01 6.061464e-01 6.123151e-01 6.284394e-01 6.330270e-01 6.510188e-01 6.522450e-01 6.732454e-01 6.697364e-01 6.952770e-01 6.856350e-01 7.174140e-01 6.997362e-01 7.416190e-01 7.043534e-01 7.833915e-01 7.795569e-01 7.854526e-01 7.737229e-01 7.876781e-01 7.778093e-01 
9.389700e-01 9.203741e-01 9.441647e-01 9.250483e-01 9.429360e-01 9.189671e-01 9.426871e-01 9.598538e-01 9.409416e-01 9.722622e-01 9.466927e-01 9.873328e-01 9.593291e-01 9.864078e-01 9.022307e-01 9.105597e-01 8.473030e-01 8.475755e-01 7.871386e-01 7.922104e-01 7.146916e-01 7.307491e-01 7.189402e-01 7.413853e-01 7.296726e-01 7.461319e-01 7.371519e-01 7.491081e-01 7.435619e-01 7.514028e-01 7.498159e-01 7.542951e-01 7.564472e-01 7.570503e-01 7.616495e-01 7.587215e-01 7.661894e-01 7.613859e-01 7.713353e-01 7.642486e-01 7.744458e-01 7.646892e-01 7.748821e-01 7.646433e-01 7.761993e-01 7.670491e-01 7.793455e-01 7.706813e-01 7.826316e-01 7.743828e-01 7.854831e-01 7.767166e-01 7.854387e-01 7.753409e-01 7.824759e-01 7.730215e-01 7.808449e-01 7.732507e-01 7.821006e-01 7.757900e-01 7.852009e-01 7.790875e-01 7.857133e-01 7.773673e-01 7.821330e-01 7.734827e-01 7.797538e-01 7.712510e-01 7.792942e-01 7.718468e-01 7.812116e-01 7.741224e-01 7.833039e-01 7.757211e-01 7.865290e-01 7.783550e-01 7.910354e-01 7.819672e-01 7.969134e-01 7.865456e-01 8.030010e-01 7.899539e-01 8.074683e-01 7.924428e-01 8.124950e-01 7.969457e-01 8.196499e-01 8.032909e-01 8.270976e-01 8.095587e-01 8.335247e-01 8.158133e-01 8.394119e-01 8.222353e-01 8.441178e-01 8.283898e-01 8.484664e-01 8.361050e-01 8.539259e-01 8.448968e-01 8.590664e-01 8.535928e-01 8.646329e-01 8.630279e-01 8.707660e-01 8.711294e-01 8.754925e-01 8.766045e-01 8.799955e-01 8.813565e-01 8.865104e-01 8.858980e-01 8.942817e-01 8.884580e-01 9.022116e-01 8.892205e-01 9.110607e-01 8.887048e-01 9.203148e-01 8.868969e-01 9.307526e-01 8.827894e-01 9.461998e-01 9.060353e-01 9.341790e-01 9.054735e-01 9.335614e-01 9.121575e-01 
7.952679e-01 7.814482e-01 7.938964e-01 7.828846e-01 7.906679e-01 7.833301e-01 7.850002e-01 7.959208e-01 7.810299e-01 8.023674e-01 7.799285e-01 8.042685e-01 7.813116e-01 8.011170e-01 7.849148e-01 8.028897e-01 7.916242e-01 8.051382e-01 7.993397e-01 8.067529e-01 8.056609e-01 8.063454e-01 8.054391e-01 8.052361e-01 8.055137e-01 8.036420e-01 8.060214e-01 8.020410e-01 8.068591e-01 8.004417e-01 8.079451e-01 7.991472e-01 8.091737e-01 7.977297e-01 8.096328e-01 7.957708e-01 8.095242e-01 7.940973e-01 8.093416e-01 7.924844e-01 8.081321e-01 7.899899e-01 8.056935e-01 7.873690e-01 8.034307e-01 7.857592e-01 8.017587e-01 7.846553e-01 7.999922e-01 7.834576e-01 7.977842e-01 7.814521e-01 7.941410e-01 7.777082e-01 7.891055e-01 7.733252e-01 7.843675e-01 7.697242e-01 7.806362e-01 7.671750e-01 7.777363e-01 7.649460e-01 7.739684e-01 7.609386e-01 7.689519e-01 7.559306e-01 7.647180e-01 7.518818e-01 7.617253e-01 7.494846e-01 7.595689e-01 7.476937e-01 7.574469e-01 7.455013e-01 7.562677e-01 7.441018e-01 7.562328e-01 7.435989e-01 7.572606e-01 7.438404e-01 7.587074e-01 7.439106e-01 7.598009e-01 7.439240e-01 7.613297e-01 7.450115e-01 7.638100e-01 7.470978e-01 7.664296e-01 7.494005e-01 7.685363e-01 7.518637e-01 7.702097e-01 7.545654e-01 7.712621e-01 7.574286e-01 7.720919e-01 7.611210e-01 7.732637e-01 7.653482e-01 7.742791e-01 7.695556e-01 7.754972e-01 7.739125e-01 7.770444e-01 7.774605e-01 7.782478e-01 7.795577e-01 7.796693e-01 7.808619e-01 7.822850e-01 7.815247e-01 7.858126e-01 7.808032e-01 7.897229e-01 7.788037e-01 7.941928e-01 7.760339e-01 7.989047e-01 7.731284e-01 8.036560e-01 7.717194e-01 8.070573e-01 7.758905e-01 8.001590e-01 7.772074e-01 7.966670e-01 7.792185e-01 
