# vtk DataFile Version 2.0
Comment goes here
ASCII

DATASET STRUCTURED_POINTS
FIELD FieldData 1
TIME 1 1 double
0.27000000
DIMENSIONS    128   16   1

ORIGIN    0.000   0.000   0.000
SPACING   0.0078125 0.015625   1.000

POINT_DATA   2048
SCALARS P double
LOOKUP_TABLE default

4.739240e-01 4.619146e-01 4.749986e-01 4.642607e-01 4.761789e-01 4.672661e-01 4.787551e-01 4.753657e-01 4.753438e-01 4.809905e-01 4.706031e-01 4.823940e-01 4.626056e-01 4.754563e-01 4.449048e-01 4.562184e-01 4.240572e-01 4.357082e-01 4.029339e-01 4.166432e-01 3.851562e-01 4.002018e-01 3.795122e-01 3.943817e-01 3.792650e-01 3.925137e-01 3.802790e-01 3.911688e-01 3.810298e-01 3.888773e-01 3.802263e-01 3.851019e-01 3.791835e-01 3.827086e-01 3.805883e-01 3.823161e-01 3.827873e-01 3.824814e-01 3.861171e-01 3.852488e-01 3.922057e-01 3.900605e-01 3.983057e-01 3.945344e-01 4.038606e-01 3.995182e-01 4.097320e-01 4.048169e-01 4.149201e-01 4.100429e-01 4.202287e-01 4.160035e-01 4.254082e-01 4.207523e-01 4.280790e-01 4.233195e-01 4.297198e-01 4.257718e-01 4.315412e-01 4.253539e-01 4.306326e-01 4.288942e-01 4.228649e-01 4.184228e-01 4.106323e-01 4.088716e-01 4.079923e-01 3.971733e-01 3.954255e-01 3.847531e-01 3.869780e-01 3.830843e-01 3.806323e-01 3.760821e-01 3.777529e-01 3.712858e-01 3.757612e-01 3.685129e-01 3.759785e-01 3.676235e-01 3.766428e-01 3.667902e-01 3.775463e-01 3.675952e-01 3.798690e-01 3.694386e-01 3.816780e-01 3.712958e-01 3.836712e-01 3.744597e-01 3.856473e-01 3.771438e-01 3.861195e-01 3.797933e-01 3.873585e-01 3.841602e-01 3.894043e-01 3.888724e-01 3.920541e-01 3.952313e-01 3.977333e-01 4.042831e-01 4.058887e-01 4.137719e-01 4.144766e-01 4.215187e-01 4.219491e-01 4.272009e-01 4.303998e-01 4.338618e-01 4.413334e-01 4.400696e-01 4.513869e-01 4.441641e-01 4.611970e-01 4.482236e-01 4.700269e-01 4.493366e-01 4.734247e-01 4.469924e-01 4.737213e-01 4.471449e-01 4.744165e-01 4.535219e-01 4.736656e-01 4.566846e-01 4.733009e-01 4.593563e-01 
3.949329e-01 3.842555e-01 3.944798e-01 3.839674e-01 3.943141e-01 3.832487e-01 3.962029e-01 3.922787e-01 3.927269e-01 3.990385e-01 3.905322e-01 4.038792e-01 3.911682e-01 4.071725e-01 3.942003e-01 4.131871e-01 3.999058e-01 4.188884e-01 4.073699e-01 4.235402e-01 4.141581e-01 4.258662e-01 4.166251e-01 4.246124e-01 4.141972e-01 4.186945e-01 4.092922e-01 4.141510e-01 4.085974e-01 4.117713e-01 4.059685e-01 4.048311e-01 4.013517e-01 4.018026e-01 4.049450e-01 4.050245e-01 4.094977e-01 4.061120e-01 4.127837e-01 4.101093e-01 4.206938e-01 4.154930e-01 4.242024e-01 4.150373e-01 4.235479e-01 4.150874e-01 4.261029e-01 4.175904e-01 4.275855e-01 4.184772e-01 4.280353e-01 4.201929e-01 4.297485e-01 4.212814e-01 4.280319e-01 4.186772e-01 4.246341e-01 4.161496e-01 4.251541e-01 4.193047e-01 4.251882e-01 4.243598e-01 4.203603e-01 4.194681e-01 4.109214e-01 4.053847e-01 4.038187e-01 3.928186e-01 3.968678e-01 3.842292e-01 3.846741e-01 3.759210e-01 3.695197e-01 3.626985e-01 3.621761e-01 3.523299e-01 3.534131e-01 3.421764e-01 3.472992e-01 3.374759e-01 3.465314e-01 3.367418e-01 3.481144e-01 3.382931e-01 3.503125e-01 3.391330e-01 3.502266e-01 3.392732e-01 3.511652e-01 3.417083e-01 3.513947e-01 3.412013e-01 3.472603e-01 3.386685e-01 3.429716e-01 3.372492e-01 3.387523e-01 3.361911e-01 3.370342e-01 3.405468e-01 3.427645e-01 3.512909e-01 3.530575e-01 3.631344e-01 3.632553e-01 3.711201e-01 3.690163e-01 3.743850e-01 3.755657e-01 3.807055e-01 3.866787e-01 3.856847e-01 3.929249e-01 3.845148e-01 3.985228e-01 3.865710e-01 4.066306e-01 3.848447e-01 4.041998e-01 3.742845e-01 3.979539e-01 3.713781e-01 3.994987e-01 3.805313e-01 3.971427e-01 3.826348e-01 3.956668e-01 3.837655e-01 
4.704974e-01 4.599698e-01 4.725604e-01 4.605770e-01 4.710675e-01 4.542285e-01 4.881807e-01 4.792516e-01 4.785791e-01 4.906085e-01 4.784624e-01 5.002669e-01 4.843916e-01 5.050314e-01 4.574406e-01 4.657693e-01 4.321930e-01 4.416316e-01 4.056805e-01 4.224326e-01 3.713596e-01 3.888885e-01 3.772382e-01 3.905560e-01 3.720206e-01 3.777609e-01 3.606618e-01 3.717982e-01 3.650625e-01 3.756095e-01 3.644953e-01 3.641054e-01 3.554183e-01 3.634865e-01 3.701992e-01 3.791289e-01 3.831496e-01 3.828610e-01 3.892821e-01 3.948164e-01 4.096646e-01 4.086872e-01 4.140088e-01 4.032400e-01 4.087234e-01 4.037128e-01 4.166816e-01 4.103774e-01 4.174750e-01 4.072191e-01 4.146797e-01 4.106937e-01 4.221242e-01 4.169345e-01 4.211427e-01 4.136913e-01 4.181272e-01 4.248346e-01 4.303751e-01 3.967332e-01 4.528567e-01 4.861950e-01 4.433018e-01 4.197840e-01 3.740740e-01 4.197895e-01 4.505792e-01 3.990494e-01 3.815392e-01 3.413869e-01 3.797327e-01 4.009004e-01 3.560484e-01 3.559872e-01 3.655956e-01 3.566421e-01 3.586472e-01 3.462950e-01 3.538442e-01 3.461563e-01 3.585433e-01 3.498680e-01 3.654379e-01 3.589019e-01 3.762357e-01 3.653587e-01 3.771248e-01 3.645585e-01 3.807856e-01 3.743700e-01 3.889010e-01 3.771945e-01 3.817391e-01 3.689368e-01 3.729350e-01 3.661508e-01 3.677790e-01 3.640001e-01 3.644838e-01 3.693552e-01 3.739989e-01 3.874915e-01 3.933886e-01 4.109307e-01 4.147387e-01 4.253309e-01 4.189196e-01 4.232196e-01 4.246873e-01 4.374047e-01 4.483869e-01 4.483851e-01 4.512135e-01 4.387125e-01 4.559225e-01 4.481475e-01 4.757585e-01 4.487915e-01 4.671142e-01 4.248815e-01 4.544514e-01 4.189126e-01 4.655424e-01 4.512910e-01 4.666718e-01 4.529452e-01 4.676962e-01 4.565906e-01 
3.903443e-01 3.841809e-01 3.902674e-01 3.827299e-01 3.830086e-01 3.720344e-01 4.394566e-01 4.197223e-01 4.235653e-01 4.343645e-01 4.289571e-01 4.440572e-01 4.361064e-01 4.319378e-01 3.274345e-01 2.793703e-01 2.097205e-01 1.652623e-01 7.889219e-02 6.666636e-02 -6.317266e-02 -6.474542e-02 -6.412964e-02 -6.123144e-02 -6.750148e-02 -7.242126e-02 -7.601512e-02 -7.334187e-02 -6.452358e-02 -5.951348e-02 -5.710451e-02 -6.477605e-02 -6.026482e-02 -5.415106e-02 -3.304605e-02 -2.620795e-02 -1.483201e-02 -2.013877e-02 -7.273372e-03 -1.750061e-03 1.830392e-02 1.437287e-02 1.832188e-02 5.843366e-03 1.579810e-02 1.720870e-02 3.495519e-02 2.983279e-02 3.205850e-02 1.854211e-02 2.713042e-02 3.252954e-02 5.526516e-02 6.112676e-02 7.252472e-02 6.971821e-02 8.106730e-02 1.024277e-01 1.016463e-01 -1.794580e-02 2.007922e-01 3.617733e-01 2.116732e-01 1.352162e-01 -7.321683e-03 2.143362e-01 3.712222e-01 1.784298e-01 1.020053e-01 -4.228756e-02 1.551638e-01 2.653344e-01 1.004028e-01 9.208410e-02 1.005550e-01 9.135985e-02 9.648793e-02 9.238878e-02 1.093152e-01 1.112222e-01 1.259374e-01 1.219189e-01 1.391226e-01 1.451797e-01 1.700138e-01 1.700077e-01 1.789113e-01 1.690675e-01 1.836679e-01 1.883611e-01 2.074936e-01 2.013957e-01 1.994748e-01 1.829054e-01 1.845316e-01 1.831335e-01 1.927806e-01 1.927519e-01 1.954126e-01 1.935858e-01 1.975197e-01 2.043344e-01 2.185374e-01 2.389442e-01 2.594613e-01 2.707433e-01 2.727203e-01 2.729070e-01 2.885971e-01 3.099906e-01 3.372056e-01 3.371500e-01 3.388462e-01 3.233087e-01 3.436781e-01 3.439879e-01 3.715496e-01 3.491259e-01 3.616413e-01 3.285036e-01 3.572172e-01 3.236179e-01 3.729050e-01 3.829826e-01 3.863291e-01 3.808728e-01 3.880327e-01 3.823792e-01 
4.699196e-01 4.689142e-01 4.838819e-01 4.836146e-01 4.967112e-01 4.997021e-01 5.643701e-01 5.481738e-01 5.798360e-01 5.766828e-01 6.090698e-01 6.020352e-01 6.368137e-01 6.121865e-01 2.677566e-01 4.379467e-02 -1.363191e-01 -3.425695e-01 -5.801445e-01 -6.734962e-01 -1.098697e+00 -1.094439e+00 -1.076035e+00 -1.067044e+00 -1.048672e+00 -1.042926e+00 -1.022251e+00 -1.017465e+00 -9.940480e-01 -9.878095e-01 -9.642879e-01 -9.602436e-01 -9.352953e-01 -9.270580e-01 -9.009484e-01 -8.941318e-01 -8.749535e-01 -8.715655e-01 -8.529081e-01 -8.452642e-01 -8.288463e-01 -8.248678e-01 -8.148166e-01 -8.083958e-01 -7.905577e-01 -7.750577e-01 -7.575929e-01 -7.486537e-01 -7.420625e-01 -7.379315e-01 -7.231162e-01 -7.037169e-01 -6.761285e-01 -6.551589e-01 -6.321556e-01 -6.217344e-01 -6.010089e-01 -5.872154e-01 -5.773630e-01 -6.610596e-01 -4.699237e-01 -3.102176e-01 -4.110525e-01 -4.450625e-01 -5.351431e-01 -3.285437e-01 -1.713342e-01 -3.211104e-01 -3.625512e-01 -4.753600e-01 -2.816245e-01 -1.826078e-01 -3.133637e-01 -3.267850e-01 -3.243766e-01 -3.243376e-01 -3.101266e-01 -2.969822e-01 -2.719268e-01 -2.566002e-01 -2.384677e-01 -2.285125e-01 -2.100052e-01 -1.902886e-01 -1.639958e-01 -1.462310e-01 -1.321887e-01 -1.249814e-01 -1.105824e-01 -9.436414e-02 -7.285664e-02 -6.332307e-02 -5.531539e-02 -5.743563e-02 -4.471411e-02 -3.533507e-02 -8.973934e-03 -7.366927e-04 1.898465e-02 1.420459e-02 3.082258e-02 2.650075e-02 5.617184e-02 6.437369e-02 1.065491e-01 1.128065e-01 1.476547e-01 1.476595e-01 1.904602e-01 2.029198e-01 2.484096e-01 2.482559e-01 2.746181e-01 2.683433e-01 2.994773e-01 3.022758e-01 3.295333e-01 3.270744e-01 3.498133e-01 3.528311e-01 3.809071e-01 3.749605e-01 4.035344e-01 4.256699e-01 4.371631e-01 4.406982e-01 4.547132e-01 4.547876e-01 
3.940190e-01 3.954360e-01 4.122809e-01 4.143352e-01 4.340986e-01 4.389466e-01 4.682786e-01 4.648646e-01 4.949156e-01 4.899458e-01 5.208835e-01 5.129035e-01 5.437888e-01 5.322422e-01 1.496065e-01 1.020344e-01 -2.551763e-01 -3.066791e-01 -6.745713e-01 -7.028898e-01 -1.104844e+00 -1.102941e+00 -1.080828e+00 -1.077206e+00 -1.052912e+00 -1.048688e+00 -1.023335e+00 -1.022429e+00 -9.988251e-01 -9.979504e-01 -9.714014e-01 -9.675207e-01 -9.402242e-01 -9.382708e-01 -9.156379e-01 -9.146632e-01 -8.931563e-01 -8.901153e-01 -8.699383e-01 -8.679278e-01 -8.522104e-01 -8.490763e-01 -8.323376e-01 -8.244005e-01 -8.052313e-01 -7.958646e-01 -7.797997e-01 -7.717186e-01 -7.571536e-01 -7.483887e-01 -7.305255e-01 -7.176545e-01 -6.961961e-01 -6.815469e-01 -6.590895e-01 -6.473615e-01 -6.271074e-01 -6.209009e-01 -6.031445e-01 -6.001401e-01 -5.660201e-01 -5.412267e-01 -5.244447e-01 -5.189367e-01 -4.986973e-01 -4.724586e-01 -4.366083e-01 -4.457312e-01 -4.347596e-01 -4.390035e-01 -3.995835e-01 -3.850760e-01 -3.792925e-01 -3.821763e-01 -3.688029e-01 -3.640067e-01 -3.443380e-01 -3.326966e-01 -3.109890e-01 -2.993592e-01 -2.813711e-01 -2.704586e-01 -2.532917e-01 -2.395497e-01 -2.206435e-01 -2.062075e-01 -1.900323e-01 -1.791246e-01 -1.652509e-01 -1.542673e-01 -1.381234e-01 -1.282424e-01 -1.136259e-01 -1.078318e-01 -9.132398e-02 -8.360856e-02 -6.066105e-02 -5.392480e-02 -3.177345e-02 -3.227865e-02 -1.126517e-02 -1.387701e-02 1.333801e-02 1.440222e-02 4.850293e-02 5.152203e-02 8.829232e-02 9.095430e-02 1.284221e-01 1.307885e-01 1.658407e-01 1.665289e-01 1.978975e-01 1.987473e-01 2.260790e-01 2.261294e-01 2.482783e-01 2.521736e-01 2.763041e-01 2.869001e-01 3.084943e-01 3.149173e-01 3.287208e-01 3.391480e-01 3.558810e-01 3.605712e-01 3.761004e-01 3.783513e-01 
4.728676e-01 4.737584e-01 4.970567e-01 4.969954e-01 5.235926e-01 5.225067e-01 5.555559e-01 5.516417e-01 5.843522e-01 5.802137e-01 6.129469e-01 6.079056e-01 6.406603e-01 6.344847e-01 2.115801e-01 1.625742e-01 -2.282090e-01 -2.824886e-01 -6.831412e-01 -7.113524e-01 -1.152750e+00 -1.142874e+00 -1.123814e+00 -1.114682e+00 -1.094826e+00 -1.086859e+00 -1.065986e+00 -1.059051e+00 -1.037387e+00 -1.030817e+00 -1.008515e+00 -1.001999e+00 -9.795031e-01 -9.727806e-01 -9.509559e-01 -9.442240e-01 -9.237441e-01 -9.168137e-01 -8.974754e-01 -8.898768e-01 -8.718607e-01 -8.636325e-01 -8.464788e-01 -8.367689e-01 -8.192136e-01 -8.078701e-01 -7.906279e-01 -7.790011e-01 -7.623224e-01 -7.500329e-01 -7.317935e-01 -7.171432e-01 -6.967148e-01 -6.807858e-01 -6.596997e-01 -6.434777e-01 -6.220678e-01 -6.034564e-01 -5.839291e-01 -5.691363e-01 -5.484887e-01 -5.411235e-01 -5.150129e-01 -5.122430e-01 -4.857823e-01 -4.816575e-01 -4.635226e-01 -4.541514e-01 -4.417623e-01 -4.303725e-01 -4.134202e-01 -4.060233e-01 -3.798171e-01 -3.732361e-01 -3.524557e-01 -3.448305e-01 -3.247300e-01 -3.146995e-01 -2.942371e-01 -2.829764e-01 -2.634175e-01 -2.517721e-01 -2.325288e-01 -2.197783e-01 -2.003460e-01 -1.878408e-01 -1.696942e-01 -1.585953e-01 -1.407392e-01 -1.299603e-01 -1.114100e-01 -1.021981e-01 -8.394565e-02 -7.676095e-02 -5.683307e-02 -4.975345e-02 -2.685381e-02 -2.092797e-02 3.287136e-03 6.806134e-03 3.273112e-02 3.553429e-02 6.512317e-02 6.887341e-02 1.019202e-01 1.056168e-01 1.398947e-01 1.429946e-01 1.782719e-01 1.816159e-01 2.162595e-01 2.181198e-01 2.499403e-01 2.509734e-01 2.811186e-01 2.827553e-01 3.109415e-01 3.130584e-01 3.398365e-01 3.432024e-01 3.690176e-01 3.726032e-01 3.965962e-01 4.024629e-01 4.241081e-01 4.280315e-01 4.490626e-01 4.512479e-01 
3.958620e-01 3.989764e-01 4.193021e-01 4.218588e-01 4.441488e-01 4.461993e-01 4.710313e-01 4.718060e-01 4.980615e-01 4.985749e-01 5.253366e-01 5.268853e-01 5.531371e-01 5.579703e-01 1.411852e-01 1.338097e-01 -2.735059e-01 -2.831223e-01 -6.936316e-01 -6.950571e-01 -1.119716e+00 -1.106209e+00 -1.087339e+00 -1.078413e+00 -1.057777e+00 -1.051692e+00 -1.029758e+00 -1.025634e+00 -1.002954e+00 -9.997323e-01 -9.763828e-01 -9.732938e-01 -9.499449e-01 -9.470134e-01 -9.245492e-01 -9.214371e-01 -8.998930e-01 -8.960862e-01 -8.755631e-01 -8.710122e-01 -8.516253e-01 -8.459167e-01 -8.269812e-01 -8.196843e-01 -8.008612e-01 -7.923402e-01 -7.739191e-01 -7.646315e-01 -7.462934e-01 -7.362206e-01 -7.172676e-01 -7.062472e-01 -6.864165e-01 -6.747923e-01 -6.542489e-01 -6.424404e-01 -6.212878e-01 -6.087353e-01 -5.880071e-01 -5.790505e-01 -5.571168e-01 -5.495156e-01 -5.270479e-01 -5.213992e-01 -4.989741e-01 -4.926948e-01 -4.715790e-01 -4.656715e-01 -4.468972e-01 -4.405778e-01 -4.205215e-01 -4.147700e-01 -3.942225e-01 -3.886523e-01 -3.693995e-01 -3.625526e-01 -3.434181e-01 -3.349998e-01 -3.161683e-01 -3.068383e-01 -2.888365e-01 -2.789281e-01 -2.615745e-01 -2.511055e-01 -2.341060e-01 -2.235220e-01 -2.069612e-01 -1.968335e-01 -1.803218e-01 -1.706446e-01 -1.534107e-01 -1.444574e-01 -1.262439e-01 -1.183609e-01 -9.846490e-02 -9.138531e-02 -6.921543e-02 -6.336905e-02 -3.942909e-02 -3.543670e-02 -9.764353e-03 -7.025417e-03 2.103898e-02 2.344617e-02 5.380308e-02 5.604386e-02 8.770229e-02 8.965295e-02 1.214743e-01 1.231759e-01 1.539996e-01 1.555795e-01 1.846399e-01 1.866181e-01 2.135930e-01 2.164457e-01 2.413372e-01 2.457585e-01 2.691850e-01 2.752238e-01 2.969236e-01 3.033161e-01 3.231188e-01 3.295737e-01 3.486593e-01 3.539086e-01 3.726874e-01 3.767020e-01 
4.740152e-01 4.754615e-01 5.005461e-01 5.009328e-01 5.281962e-01 5.275579e-01 5.572951e-01 5.556715e-01 5.863035e-01 5.847338e-01 6.154887e-01 6.150572e-01 6.452389e-01 6.478347e-01 2.039288e-01 1.869147e-01 -2.421571e-01 -2.629651e-01 -6.965642e-01 -7.044247e-01 -1.159587e+00 -1.144009e+00 -1.126483e+00 -1.115434e+00 -1.096500e+00 -1.087898e+00 -1.067868e+00 -1.060623e+00 -1.039849e+00 -1.033289e+00 -1.012077e+00 -1.005710e+00 -9.844284e-01 -9.779514e-01 -9.570092e-01 -9.501469e-01 -9.297201e-01 -9.221399e-01 -9.022860e-01 -8.938090e-01 -8.745759e-01 -8.650721e-01 -8.462320e-01 -8.355093e-01 -8.167898e-01 -8.049522e-01 -7.863357e-01 -7.737240e-01 -7.551353e-01 -7.419819e-01 -7.231947e-01 -7.096746e-01 -6.905959e-01 -6.770523e-01 -6.577668e-01 -6.445777e-01 -6.251754e-01 -6.126603e-01 -5.931262e-01 -5.821009e-01 -5.618984e-01 -5.527916e-01 -5.317043e-01 -5.240081e-01 -5.028992e-01 -4.953438e-01 -4.751534e-01 -4.668206e-01 -4.472015e-01 -4.384001e-01 -4.181624e-01 -4.095558e-01 -3.882914e-01 -3.796056e-01 -3.586931e-01 -3.496280e-01 -3.293103e-01 -3.197448e-01 -3.000777e-01 -2.900856e-01 -2.711085e-01 -2.608288e-01 -2.424287e-01 -2.319996e-01 -2.139848e-01 -2.036223e-01 -1.857073e-01 -1.755312e-01 -1.571965e-01 -1.472626e-01 -1.280339e-01 -1.185849e-01 -9.811313e-02 -8.932657e-02 -6.713131e-02 -5.902513e-02 -3.477535e-02 -2.757102e-02 -1.345645e-03 4.682886e-03 3.277196e-02 3.769470e-02 6.763244e-02 7.170112e-02 1.031706e-01 1.064273e-01 1.387517e-01 1.412693e-01 1.738121e-01 1.757933e-01 2.078164e-01 2.093615e-01 2.403004e-01 2.418794e-01 2.717110e-01 2.738539e-01 3.025137e-01 3.053945e-01 3.328998e-01 3.365849e-01 3.629639e-01 3.672126e-01 3.922907e-01 3.968509e-01 4.206481e-01 4.244113e-01 4.476954e-01 4.502974e-01 
3.966273e-01 4.000706e-01 4.206216e-01 4.234465e-01 4.458863e-01 4.481714e-01 4.730508e-01 4.740162e-01 5.001332e-01 5.008965e-01 5.274145e-01 5.293758e-01 5.552065e-01 5.606241e-01 1.437200e-01 1.366722e-01 -2.700964e-01 -2.795551e-01 -6.888542e-01 -6.903573e-01 -1.113606e+00 -1.100528e+00 -1.083033e+00 -1.075528e+00 -1.056560e+00 -1.052073e+00 -1.031330e+00 -1.028213e+00 -1.006146e+00 -1.003657e+00 -9.808288e-01 -9.784320e-01 -9.554960e-01 -9.529377e-01 -9.305023e-01 -9.273079e-01 -9.053244e-01 -9.009487e-01 -8.796192e-01 -8.741817e-01 -8.538647e-01 -8.473041e-01 -8.275282e-01 -8.194146e-01 -7.997787e-01 -7.902741e-01 -7.707728e-01 -7.603533e-01 -7.410340e-01 -7.303045e-01 -7.113119e-01 -7.007668e-01 -6.819024e-01 -6.716254e-01 -6.525711e-01 -6.429005e-01 -6.238660e-01 -6.151612e-01 -5.958540e-01 -5.880228e-01 -5.677082e-01 -5.603874e-01 -5.394967e-01 -5.330825e-01 -5.121598e-01 -5.060889e-01 -4.849058e-01 -4.784438e-01 -4.570635e-01 -4.504256e-01 -4.293453e-01 -4.228445e-01 -4.021106e-01 -3.950342e-01 -3.746201e-01 -3.669091e-01 -3.475720e-01 -3.397378e-01 -3.216763e-01 -3.133132e-01 -2.960259e-01 -2.870492e-01 -2.706858e-01 -2.617051e-01 -2.462742e-01 -2.372561e-01 -2.218694e-01 -2.125433e-01 -1.964802e-01 -1.870145e-01 -1.697208e-01 -1.603092e-01 -1.413106e-01 -1.324068e-01 -1.114876e-01 -1.033241e-01 -7.991619e-02 -7.247747e-02 -4.659743e-02 -4.051113e-02 -1.281698e-02 -8.416081e-03 2.089786e-02 2.398388e-02 5.456359e-02 5.651789e-02 8.762172e-02 8.869370e-02 1.195134e-01 1.200394e-01 1.496980e-01 1.500881e-01 1.781294e-01 1.793308e-01 2.059384e-01 2.088189e-01 2.339728e-01 2.387275e-01 2.624803e-01 2.690191e-01 2.914696e-01 2.989799e-01 3.199312e-01 3.274278e-01 3.473682e-01 3.533310e-01 3.726503e-01 3.771297e-01 
4.742665e-01 4.758926e-01 4.994718e-01 5.001549e-01 5.268622e-01 5.265100e-01 5.592909e-01 5.557997e-01 5.874114e-01 5.840022e-01 6.155031e-01 6.118807e-01 6.429243e-01 6.390890e-01 2.153802e-01 1.670943e-01 -2.228199e-01 -2.771223e-01 -6.755233e-01 -7.049983e-01 -1.141850e+00 -1.136471e+00 -1.117215e+00 -1.112222e+00 -1.092897e+00 -1.087943e+00 -1.067337e+00 -1.062451e+00 -1.041330e+00 -1.036749e+00 -1.015148e+00 -1.010144e+00 -9.884377e-01 -9.833081e-01 -9.625426e-01 -9.568811e-01 -9.362761e-01 -9.287623e-01 -9.082006e-01 -8.993657e-01 -8.798265e-01 -8.698155e-01 -8.503786e-01 -8.382269e-01 -8.184132e-01 -8.047187e-01 -7.850295e-01 -7.705025e-01 -7.509086e-01 -7.361915e-01 -7.172292e-01 -7.034656e-01 -6.853986e-01 -6.727284e-01 -6.548832e-01 -6.434520e-01 -6.261206e-01 -6.164313e-01 -5.990305e-01 -5.900644e-01 -5.711764e-01 -5.623556e-01 -5.428479e-01 -5.352972e-01 -5.157738e-01 -5.084681e-01 -4.876072e-01 -4.790862e-01 -4.569950e-01 -4.481204e-01 -4.262358e-01 -4.175100e-01 -3.956735e-01 -3.860858e-01 -3.640680e-01 -3.540483e-01 -3.332891e-01 -3.238936e-01 -3.048640e-01 -2.955850e-01 -2.776409e-01 -2.681745e-01 -2.513846e-01 -2.424137e-01 -2.269578e-01 -2.182595e-01 -2.026531e-01 -1.931774e-01 -1.762606e-01 -1.662017e-01 -1.476900e-01 -1.372947e-01 -1.165248e-01 -1.060646e-01 -8.292622e-02 -7.290752e-02 -4.699242e-02 -3.741313e-02 -8.730771e-03 -4.717206e-04 2.984032e-02 3.587709e-02 6.742975e-02 7.165028e-02 1.042483e-01 1.067751e-01 1.396910e-01 1.408165e-01 1.735759e-01 1.737945e-01 2.054544e-01 2.048049e-01 2.349554e-01 2.349610e-01 2.647360e-01 2.666904e-01 2.957545e-01 2.991356e-01 3.272526e-01 3.322228e-01 3.598501e-01 3.657639e-01 3.918101e-01 3.994185e-01 4.223236e-01 4.274001e-01 4.491721e-01 4.521977e-01 
3.973068e-01 3.994110e-01 4.167855e-01 4.195350e-01 4.398542e-01 4.454484e-01 4.752575e-01 4.720023e-01 5.013142e-01 4.966800e-01 5.271743e-01 5.203950e-01 5.504130e-01 5.404344e-01 1.555740e-01 1.086378e-01 -2.469207e-01 -2.976875e-01 -6.600967e-01 -6.881828e-01 -1.080411e+00 -1.080446e+00 -1.062769e+00 -1.066676e+00 -1.050461e+00 -1.054099e+00 -1.032725e+00 -1.033581e+00 -1.009872e+00 -1.010252e+00 -9.853324e-01 -9.846446e-01 -9.596893e-01 -9.594016e-01 -9.371916e-01 -9.360953e-01 -9.128650e-01 -9.074416e-01 -8.838736e-01 -8.777941e-01 -8.584325e-01 -8.527382e-01 -8.337269e-01 -8.241486e-01 -8.037219e-01 -7.913300e-01 -7.705585e-01 -7.565876e-01 -7.357076e-01 -7.223442e-01 -7.041056e-01 -6.937014e-01 -6.770748e-01 -6.667916e-01 -6.483871e-01 -6.394162e-01 -6.236708e-01 -6.191860e-01 -6.042375e-01 -5.989878e-01 -5.785672e-01 -5.699392e-01 -5.484432e-01 -5.435168e-01 -5.250152e-01 -5.220928e-01 -5.005863e-01 -4.927026e-01 -4.667295e-01 -4.585266e-01 -4.362370e-01 -4.318378e-01 -4.110217e-01 -4.026750e-01 -3.780705e-01 -3.674492e-01 -3.471168e-01 -3.414900e-01 -3.262045e-01 -3.191461e-01 -3.019755e-01 -2.914910e-01 -2.760836e-01 -2.687227e-01 -2.584154e-01 -2.520450e-01 -2.407154e-01 -2.315161e-01 -2.181199e-01 -2.080897e-01 -1.926350e-01 -1.809493e-01 -1.620292e-01 -1.511743e-01 -1.315041e-01 -1.223197e-01 -9.760668e-02 -8.606607e-02 -5.561227e-02 -4.610165e-02 -1.560637e-02 -1.102774e-02 2.095416e-02 2.398407e-02 5.775560e-02 5.842350e-02 9.220832e-02 9.105398e-02 1.243815e-01 1.220891e-01 1.524093e-01 1.478206e-01 1.741085e-01 1.710607e-01 1.973784e-01 1.995078e-01 2.247078e-01 2.301583e-01 2.538258e-01 2.641155e-01 2.880666e-01 3.006193e-01 3.206349e-01 3.351959e-01 3.545770e-01 3.610901e-01 3.777962e-01 3.809897e-01 
4.738099e-01 4.738190e-01 4.893588e-01 4.906599e-01 5.048086e-01 5.104472e-01 5.762507e-01 5.582970e-01 5.849345e-01 5.817148e-01 6.130239e-01 6.077202e-01 6.369644e-01 6.106102e-01 2.746363e-01 4.857273e-02 -1.287657e-01 -3.333190e-01 -5.702862e-01 -6.585508e-01 -1.082090e+00 -1.082072e+00 -1.065158e+00 -1.065822e+00 -1.049581e+00 -1.046446e+00 -1.023021e+00 -1.019502e+00 -9.992329e-01 -9.996296e-01 -9.775062e-01 -9.728931e-01 -9.478881e-01 -9.456325e-01 -9.284860e-01 -9.292860e-01 -9.101391e-01 -9.017877e-01 -8.780422e-01 -8.689420e-01 -8.524690e-01 -8.454805e-01 -8.271283e-01 -8.116137e-01 -7.888266e-01 -7.712319e-01 -7.509450e-01 -7.331677e-01 -7.110995e-01 -6.910487e-01 -6.704014e-01 -6.555551e-01 -6.406298e-01 -6.291041e-01 -6.127408e-01 -6.021133e-01 -5.890080e-01 -5.855074e-01 -5.750773e-01 -5.703981e-01 -5.507842e-01 -5.395903e-01 -5.209716e-01 -5.179441e-01 -5.050557e-01 -5.027327e-01 -4.810985e-01 -4.701917e-01 -4.423709e-01 -4.327615e-01 -4.101290e-01 -4.039096e-01 -3.818468e-01 -3.702913e-01 -3.437785e-01 -3.306124e-01 -3.080504e-01 -2.996586e-01 -2.824107e-01 -2.751449e-01 -2.591978e-01 -2.500964e-01 -2.351420e-01 -2.287211e-01 -2.205341e-01 -2.177296e-01 -2.089579e-01 -2.004980e-01 -1.860035e-01 -1.752910e-01 -1.600602e-01 -1.490054e-01 -1.292079e-01 -1.155729e-01 -9.226592e-02 -7.967557e-02 -5.247398e-02 -3.831008e-02 -4.725126e-03 8.668319e-03 4.207852e-02 4.834554e-02 8.107387e-02 8.491489e-02 1.198523e-01 1.208195e-01 1.546794e-01 1.528028e-01 1.878910e-01 1.864737e-01 2.184056e-01 2.104327e-01 2.353381e-01 2.293487e-01 2.601525e-01 2.635691e-01 2.940290e-01 2.965688e-01 3.238409e-01 3.306697e-01 3.635643e-01 3.654539e-01 4.001775e-01 4.251307e-01 4.380201e-01 4.427611e-01 4.573493e-01 4.582741e-01 
3.976554e-01 3.914832e-01 3.978202e-01 3.912357e-01 3.927286e-01 3.839954e-01 4.527614e-01 4.284503e-01 4.261718e-01 4.347729e-01 4.302660e-01 4.444923e-01 4.329358e-01 4.226069e-01 3.145477e-01 2.626021e-01 1.929545e-01 1.465311e-01 6.274935e-02 4.952545e-02 -7.474557e-02 -8.080070e-02 -7.768406e-02 -7.070746e-02 -5.982608e-02 -4.612473e-02 -3.430612e-02 -2.942431e-02 -2.852468e-02 -3.399557e-02 -3.242528e-02 -3.342100e-02 -2.635547e-02 -3.117288e-02 -3.013376e-02 -4.249089e-02 -4.038260e-02 -4.708605e-02 -3.667395e-02 -4.106142e-02 -3.026391e-02 -3.397990e-02 -1.762158e-02 -1.394495e-02 7.152746e-03 9.148559e-03 2.492498e-02 2.439178e-02 4.251302e-02 4.845998e-02 7.035511e-02 7.476942e-02 8.876354e-02 8.560668e-02 9.442029e-02 9.136606e-02 1.001459e-01 9.582682e-02 1.010649e-01 9.574560e-02 1.009899e-01 9.695532e-02 9.712436e-02 8.901166e-02 8.819091e-02 8.512981e-02 9.270844e-02 9.169232e-02 9.870859e-02 9.541054e-02 1.043228e-01 1.068112e-01 1.188130e-01 1.199410e-01 1.281619e-01 1.257449e-01 1.381127e-01 1.413011e-01 1.568329e-01 1.527836e-01 1.580432e-01 1.462572e-01 1.528708e-01 1.449987e-01 1.533979e-01 1.424982e-01 1.493446e-01 1.418966e-01 1.546667e-01 1.510160e-01 1.615982e-01 1.559751e-01 1.676266e-01 1.711924e-01 1.901913e-01 1.982379e-01 2.122309e-01 2.164654e-01 2.271126e-01 2.350211e-01 2.465387e-01 2.542538e-01 2.609010e-01 2.663368e-01 2.721763e-01 2.768822e-01 2.813448e-01 2.840278e-01 2.925901e-01 2.971931e-01 3.092223e-01 3.068732e-01 3.187685e-01 3.145271e-01 3.381038e-01 3.352624e-01 3.623975e-01 3.478221e-01 3.737941e-01 3.524620e-01 3.866348e-01 3.521426e-01 3.965212e-01 4.009929e-01 4.000817e-01 3.918863e-01 3.970882e-01 3.903597e-01 
4.755460e-01 4.647535e-01 4.769617e-01 4.652728e-01 4.756535e-01 4.594238e-01 4.927710e-01 4.814585e-01 4.772583e-01 4.879460e-01 4.749271e-01 4.956927e-01 4.772168e-01 4.953668e-01 4.472488e-01 4.533553e-01 4.189038e-01 4.260493e-01 3.883623e-01 4.030785e-01 3.505761e-01 3.661069e-01 3.583755e-01 3.815462e-01 3.812380e-01 4.050448e-01 4.009493e-01 4.143102e-01 4.032296e-01 4.080802e-01 3.969233e-01 4.005718e-01 3.931640e-01 3.939290e-01 3.878002e-01 3.832716e-01 3.779017e-01 3.716939e-01 3.719179e-01 3.675042e-01 3.747011e-01 3.727843e-01 3.847840e-01 3.837896e-01 3.977326e-01 3.940627e-01 4.055152e-01 3.995442e-01 4.118814e-01 4.099257e-01 4.262931e-01 4.261597e-01 4.387270e-01 4.332933e-01 4.391372e-01 4.334472e-01 4.406499e-01 4.380757e-01 4.432970e-01 4.382530e-01 4.361239e-01 4.274342e-01 4.200137e-01 4.130409e-01 4.087019e-01 4.066521e-01 4.049439e-01 3.979990e-01 3.925612e-01 3.848142e-01 3.858878e-01 3.866685e-01 3.912920e-01 3.873571e-01 3.863512e-01 3.778273e-01 3.840318e-01 3.831919e-01 3.963195e-01 3.888629e-01 3.937815e-01 3.771600e-01 3.839786e-01 3.721351e-01 3.855555e-01 3.734642e-01 3.854948e-01 3.728091e-01 3.866243e-01 3.764681e-01 3.884068e-01 3.772304e-01 3.874325e-01 3.837812e-01 3.985549e-01 4.007867e-01 4.086136e-01 4.071550e-01 4.075074e-01 4.103342e-01 4.115643e-01 4.193234e-01 4.166595e-01 4.235773e-01 4.186778e-01 4.259609e-01 4.210673e-01 4.272655e-01 4.261834e-01 4.321303e-01 4.378002e-01 4.402070e-01 4.525299e-01 4.497555e-01 4.703859e-01 4.600853e-01 4.860043e-01 4.637083e-01 4.920995e-01 4.591094e-01 4.913060e-01 4.504882e-01 4.890047e-01 4.683311e-01 4.790826e-01 4.623837e-01 4.749440e-01 4.626282e-01 
3.983199e-01 3.873566e-01 3.973781e-01 3.867747e-01 3.970092e-01 3.857414e-01 3.982866e-01 3.933922e-01 3.928642e-01 3.982212e-01 3.890729e-01 4.012950e-01 3.875497e-01 4.021309e-01 3.885228e-01 4.061200e-01 3.925398e-01 4.101800e-01 3.988204e-01 4.138750e-01 4.052685e-01 4.164775e-01 4.102690e-01 4.224981e-01 4.194569e-01 4.304497e-01 4.260504e-01 4.321849e-01 4.260480e-01 4.278578e-01 4.218211e-01 4.210309e-01 4.169165e-01 4.142513e-01 4.127197e-01 4.076663e-01 4.077972e-01 4.008419e-01 4.042763e-01 3.978284e-01 4.059838e-01 4.004402e-01 4.112048e-01 4.051171e-01 4.169573e-01 4.099112e-01 4.216900e-01 4.139784e-01 4.258827e-01 4.193212e-01 4.321371e-01 4.264493e-01 4.374632e-01 4.298905e-01 4.371694e-01 4.291878e-01 4.358161e-01 4.294471e-01 4.345582e-01 4.278629e-01 4.281555e-01 4.203392e-01 4.171151e-01 4.105744e-01 4.079376e-01 4.024233e-01 4.007353e-01 3.925695e-01 3.903964e-01 3.819496e-01 3.823152e-01 3.770658e-01 3.785317e-01 3.715225e-01 3.718452e-01 3.627956e-01 3.667600e-01 3.598217e-01 3.674895e-01 3.578968e-01 3.639828e-01 3.506428e-01 3.580300e-01 3.459706e-01 3.564633e-01 3.446273e-01 3.549771e-01 3.430461e-01 3.536344e-01 3.432628e-01 3.528483e-01 3.433914e-01 3.514505e-01 3.459294e-01 3.543598e-01 3.527176e-01 3.575367e-01 3.565255e-01 3.574197e-01 3.597418e-01 3.601001e-01 3.660021e-01 3.644496e-01 3.707746e-01 3.678001e-01 3.739446e-01 3.712642e-01 3.762244e-01 3.761781e-01 3.794109e-01 3.841305e-01 3.840398e-01 3.941648e-01 3.888873e-01 4.044826e-01 3.924637e-01 4.126412e-01 3.927724e-01 4.156825e-01 3.890291e-01 4.137311e-01 3.853408e-01 4.106293e-01 3.893253e-01 4.041095e-01 3.882502e-01 4.002551e-01 3.876606e-01 
