# vtk DataFile Version 2.0
Comment goes here
ASCII

DATASET STRUCTURED_POINTS
FIELD FieldData 1
TIME 1 1 double
0.51000000
DIMENSIONS    128   16   1

ORIGIN    0.000   0.000   0.000
SPACING   0.0078125 0.015625   1.000

POINT_DATA   2048
SCALARS P double
LOOKUP_TABLE default

-9.301743e-01 -9.119309e-01 -9.319932e-01 -9.181270e-01 -9.319909e-01 -9.248533e-01 -9.307531e-01 -9.387475e-01 -9.276246e-01 -9.464789e-01 -9.223887e-01 -9.460130e-01 -9.096241e-01 -9.297950e-01 -8.767739e-01 -8.897225e-01 -8.348398e-01 -8.436485e-01 -7.903490e-01 -7.999667e-01 -7.516654e-01 -7.646397e-01 -7.362251e-01 -7.516438e-01 -7.341166e-01 -7.483927e-01 -7.378536e-01 -7.495085e-01 -7.439134e-01 -7.520746e-01 -7.501687e-01 -7.545948e-01 -7.559232e-01 -7.571364e-01 -7.616666e-01 -7.603410e-01 -7.677107e-01 -7.641716e-01 -7.735810e-01 -7.679835e-01 -7.785742e-01 -7.712607e-01 -7.825260e-01 -7.742410e-01 -7.860393e-01 -7.775500e-01 -7.896024e-01 -7.812340e-01 -7.930111e-01 -7.848134e-01 -7.958922e-01 -7.879750e-01 -7.982415e-01 -7.908265e-01 -8.004369e-01 -7.938534e-01 -8.033013e-01 -7.981012e-01 -8.058702e-01 -7.959708e-01 -8.083467e-01 -8.013427e-01 -8.042891e-01 -7.934070e-01 -7.956083e-01 -7.905083e-01 -7.975612e-01 -7.853524e-01 -7.899828e-01 -7.774829e-01 -7.878306e-01 -7.788795e-01 -7.852810e-01 -7.766108e-01 -7.865790e-01 -7.775566e-01 -7.900383e-01 -7.802756e-01 -7.949873e-01 -7.841195e-01 -8.008068e-01 -7.884420e-01 -8.067742e-01 -7.926953e-01 -8.123726e-01 -7.967987e-01 -8.177041e-01 -8.013298e-01 -8.233222e-01 -8.068924e-01 -8.293903e-01 -8.133848e-01 -8.353821e-01 -8.201679e-01 -8.406776e-01 -8.268408e-01 -8.452517e-01 -8.335772e-01 -8.496101e-01 -8.407334e-01 -8.542532e-01 -8.482930e-01 -8.591958e-01 -8.556701e-01 -8.642156e-01 -8.623930e-01 -8.695275e-01 -8.683937e-01 -8.754355e-01 -8.734278e-01 -8.818915e-01 -8.771505e-01 -8.888471e-01 -8.796061e-01 -8.964925e-01 -8.812520e-01 -9.049367e-01 -8.825796e-01 -9.137362e-01 -8.840101e-01 -9.218852e-01 -8.865600e-01 -9.280403e-01 -8.941279e-01 -9.277274e-01 -8.994126e-01 -9.282009e-01 -9.054291e-01 
-7.853953e-01 -7.721734e-01 -7.840357e-01 -7.735180e-01 -7.809096e-01 -7.738437e-01 -7.754884e-01 -7.867415e-01 -7.720475e-01 -7.937314e-01 -7.716819e-01 -7.961036e-01 -7.737096e-01 -7.936137e-01 -7.783409e-01 -7.959067e-01 -7.854503e-01 -7.982823e-01 -7.930466e-01 -7.998940e-01 -7.993330e-01 -7.993246e-01 -7.991246e-01 -7.982709e-01 -7.995212e-01 -7.973437e-01 -8.010184e-01 -7.969665e-01 -8.028612e-01 -7.960706e-01 -8.041318e-01 -7.949790e-01 -8.058825e-01 -7.948309e-01 -8.080959e-01 -7.949420e-01 -8.102368e-01 -7.958970e-01 -8.131524e-01 -7.976018e-01 -8.151798e-01 -7.980102e-01 -8.154323e-01 -7.978178e-01 -8.152434e-01 -7.977044e-01 -8.144511e-01 -7.971335e-01 -8.129669e-01 -7.963520e-01 -8.111269e-01 -7.951375e-01 -8.082573e-01 -7.927272e-01 -8.046360e-01 -7.906532e-01 -8.025503e-01 -7.897932e-01 -7.995702e-01 -7.836138e-01 -7.968967e-01 -7.826446e-01 -7.901805e-01 -7.775042e-01 -7.822426e-01 -7.717104e-01 -7.795442e-01 -7.652559e-01 -7.751794e-01 -7.588472e-01 -7.702360e-01 -7.551596e-01 -7.594267e-01 -7.461354e-01 -7.548001e-01 -7.419945e-01 -7.530911e-01 -7.400193e-01 -7.533652e-01 -7.400703e-01 -7.553573e-01 -7.407267e-01 -7.568281e-01 -7.405400e-01 -7.577987e-01 -7.406413e-01 -7.587680e-01 -7.408372e-01 -7.594805e-01 -7.421024e-01 -7.614805e-01 -7.454086e-01 -7.640075e-01 -7.488168e-01 -7.651230e-01 -7.514048e-01 -7.652373e-01 -7.543322e-01 -7.656748e-01 -7.580324e-01 -7.663819e-01 -7.621690e-01 -7.680007e-01 -7.673268e-01 -7.706772e-01 -7.718392e-01 -7.727528e-01 -7.746791e-01 -7.749835e-01 -7.763197e-01 -7.771145e-01 -7.754189e-01 -7.786548e-01 -7.728047e-01 -7.812595e-01 -7.698284e-01 -7.851022e-01 -7.665004e-01 -7.895653e-01 -7.632960e-01 -7.942046e-01 -7.616856e-01 -7.977519e-01 -7.661114e-01 -7.904137e-01 -7.677998e-01 -7.868200e-01 -7.699494e-01 
-9.293339e-01 -9.114505e-01 -9.346524e-01 -9.160369e-01 -9.334780e-01 -9.098309e-01 -9.338740e-01 -9.507427e-01 -9.325776e-01 -9.644994e-01 -9.397290e-01 -9.804941e-01 -9.531033e-01 -9.804665e-01 -8.978565e-01 -9.048064e-01 -8.428047e-01 -8.415011e-01 -7.814621e-01 -7.857659e-01 -7.084148e-01 -7.237391e-01 -7.122676e-01 -7.336817e-01 -7.225780e-01 -7.386372e-01 -7.307753e-01 -7.426070e-01 -7.376066e-01 -7.445230e-01 -7.425367e-01 -7.462535e-01 -7.490641e-01 -7.505220e-01 -7.566619e-01 -7.547006e-01 -7.636578e-01 -7.604323e-01 -7.730128e-01 -7.682533e-01 -7.811445e-01 -7.732985e-01 -7.859674e-01 -7.772742e-01 -7.904571e-01 -7.813215e-01 -7.935921e-01 -7.838944e-01 -7.952585e-01 -7.860759e-01 -7.966217e-01 -7.875062e-01 -7.957128e-01 -7.859261e-01 -7.926738e-01 -7.849975e-01 -8.024171e-01 -8.247071e-01 -8.076195e-01 -7.650012e-01 -8.378906e-01 -8.589094e-01 -8.246147e-01 -7.720497e-01 -7.482773e-01 -7.967973e-01 -8.346969e-01 -7.927150e-01 -7.640541e-01 -7.330827e-01 -7.852416e-01 -7.895233e-01 -7.651998e-01 -7.603730e-01 -7.763380e-01 -7.697794e-01 -7.841714e-01 -7.752838e-01 -7.910634e-01 -7.815254e-01 -7.995283e-01 -7.872152e-01 -8.053647e-01 -7.898539e-01 -8.098702e-01 -7.931132e-01 -8.145731e-01 -7.958300e-01 -8.181350e-01 -7.999776e-01 -8.247153e-01 -8.084218e-01 -8.328766e-01 -8.165601e-01 -8.380068e-01 -8.223876e-01 -8.412935e-01 -8.289238e-01 -8.456598e-01 -8.368536e-01 -8.501712e-01 -8.452634e-01 -8.565200e-01 -8.566271e-01 -8.654180e-01 -8.671464e-01 -8.721459e-01 -8.744038e-01 -8.786368e-01 -8.802957e-01 -8.842958e-01 -8.815294e-01 -8.876874e-01 -8.801962e-01 -8.930434e-01 -8.792138e-01 -9.005770e-01 -8.775448e-01 -9.091367e-01 -8.751527e-01 -9.192836e-01 -8.706102e-01 -9.362950e-01 -8.952742e-01 -9.235489e-01 -8.959140e-01 -9.236055e-01 -9.030978e-01 
-7.836806e-01 -7.743828e-01 -7.899453e-01 -7.764824e-01 -7.890596e-01 -7.655568e-01 -8.218478e-01 -8.536440e-01 -8.345976e-01 -8.686296e-01 -8.558115e-01 -8.886004e-01 -8.745432e-01 -8.406557e-01 -6.491780e-01 -5.438662e-01 -4.070949e-01 -2.799136e-01 -1.405724e-01 -4.257863e-02 1.541919e-01 1.999361e-01 1.855331e-01 1.871969e-01 1.696258e-01 1.722620e-01 1.522250e-01 1.557945e-01 1.339168e-01 1.384436e-01 1.147782e-01 1.195913e-01 9.389898e-02 9.876425e-02 7.187071e-02 7.727600e-02 4.987007e-02 5.551059e-02 2.796176e-02 3.425086e-02 7.971414e-03 1.555260e-02 -9.095563e-03 -8.046121e-04 -2.407796e-02 -1.546781e-02 -3.746330e-02 -2.907979e-02 -5.044103e-02 -4.310474e-02 -6.442486e-02 -5.849191e-02 -7.969854e-02 -7.536901e-02 -9.657758e-02 -9.499903e-02 -1.446673e-01 -2.314964e-01 -1.789228e-01 -6.081593e-02 -3.330886e-01 -4.802608e-01 -3.733382e-01 -2.148439e-01 -1.169091e-01 -3.184217e-01 -4.635275e-01 -3.263527e-01 -2.016778e-01 -9.648976e-02 -2.880867e-01 -3.322489e-01 -2.291717e-01 -2.222451e-01 -2.466124e-01 -2.431496e-01 -2.668416e-01 -2.635634e-01 -2.882342e-01 -2.858770e-01 -3.119218e-01 -3.093746e-01 -3.357811e-01 -3.325087e-01 -3.596129e-01 -3.559202e-01 -3.828929e-01 -3.779074e-01 -4.038399e-01 -3.982843e-01 -4.235702e-01 -4.180842e-01 -4.417412e-01 -4.359403e-01 -4.573459e-01 -4.522316e-01 -4.723002e-01 -4.695362e-01 -4.889392e-01 -4.890576e-01 -5.077211e-01 -5.110929e-01 -5.297541e-01 -5.366145e-01 -5.549229e-01 -5.632470e-01 -5.802153e-01 -5.886243e-01 -6.050784e-01 -6.123276e-01 -6.284161e-01 -6.322874e-01 -6.490608e-01 -6.489174e-01 -6.686619e-01 -6.636073e-01 -6.878400e-01 -6.765063e-01 -7.073026e-01 -6.880454e-01 -7.296630e-01 -6.905724e-01 -7.746289e-01 -7.690597e-01 -7.727907e-01 -7.635921e-01 -7.761865e-01 -7.679857e-01 
-9.301580e-01 -9.261125e-01 -9.634118e-01 -9.575825e-01 -9.993371e-01 -9.934537e-01 -1.078672e+00 -1.092409e+00 -1.138469e+00 -1.139466e+00 -1.201094e+00 -1.189361e+00 -1.260067e+00 -1.186644e+00 -5.391553e-01 -1.648677e-01 2.726582e-01 6.982226e-01 1.163512e+00 1.474174e+00 2.181964e+00 2.212648e+00 2.167898e+00 2.160565e+00 2.114814e+00 2.104727e+00 2.059731e+00 2.047757e+00 2.002669e+00 1.987462e+00 1.942353e+00 1.925179e+00 1.882394e+00 1.864005e+00 1.822793e+00 1.801952e+00 1.762852e+00 1.742104e+00 1.707157e+00 1.686563e+00 1.653237e+00 1.631287e+00 1.599486e+00 1.578386e+00 1.548856e+00 1.528414e+00 1.498953e+00 1.478088e+00 1.447828e+00 1.426927e+00 1.395262e+00 1.373367e+00 1.338461e+00 1.314824e+00 1.278372e+00 1.256818e+00 1.203838e+00 1.125841e+00 1.143002e+00 1.208118e+00 9.677918e-01 8.062807e-01 8.469554e-01 9.321210e-01 9.831204e-01 7.979791e-01 6.479905e-01 7.304970e-01 7.956112e-01 8.653411e-01 6.784953e-01 6.251246e-01 6.893814e-01 6.876489e-01 6.537373e-01 6.437917e-01 6.043770e-01 5.901294e-01 5.483892e-01 5.318741e-01 4.891456e-01 4.692155e-01 4.243682e-01 4.014746e-01 3.570122e-01 3.337929e-01 2.906263e-01 2.672533e-01 2.260900e-01 2.052563e-01 1.681750e-01 1.507115e-01 1.153238e-01 9.874138e-02 6.202875e-02 4.567345e-02 7.039156e-03 -7.990260e-03 -4.905928e-02 -6.326044e-02 -1.086326e-01 -1.220070e-01 -1.708609e-01 -1.818236e-01 -2.344654e-01 -2.446824e-01 -3.019932e-01 -3.104813e-01 -3.695850e-01 -3.754413e-01 -4.362518e-01 -4.411478e-01 -5.022266e-01 -5.049764e-01 -5.634975e-01 -5.646981e-01 -6.206321e-01 -6.224286e-01 -6.763188e-01 -6.795599e-01 -7.330747e-01 -7.305274e-01 -8.062029e-01 -8.352869e-01 -8.586133e-01 -8.662023e-01 -8.963566e-01 -8.961119e-01 
-7.871367e-01 -7.941742e-01 -8.251077e-01 -8.333758e-01 -8.690062e-01 -8.831658e-01 -9.302205e-01 -9.408714e-01 -9.871898e-01 -9.921633e-01 -1.042385e+00 -1.041725e+00 -1.094278e+00 -1.083956e+00 -3.002315e-01 -2.116382e-01 5.149890e-01 6.287216e-01 1.357840e+00 1.441220e+00 2.227391e+00 2.239232e+00 2.184424e+00 2.188473e+00 2.133562e+00 2.134642e+00 2.080615e+00 2.079567e+00 2.025966e+00 2.021979e+00 1.969125e+00 1.963156e+00 1.912856e+00 1.905412e+00 1.857190e+00 1.847368e+00 1.801545e+00 1.791073e+00 1.748929e+00 1.737779e+00 1.697337e+00 1.684424e+00 1.645460e+00 1.632373e+00 1.595302e+00 1.582054e+00 1.545350e+00 1.531414e+00 1.494521e+00 1.480368e+00 1.442929e+00 1.428125e+00 1.388957e+00 1.373331e+00 1.333734e+00 1.320551e+00 1.283002e+00 1.271186e+00 1.234581e+00 1.224660e+00 1.169015e+00 1.136183e+00 1.089825e+00 1.079353e+00 1.038960e+00 1.013127e+00 9.559566e-01 9.460950e-01 9.086860e-01 9.008560e-01 8.436307e-01 8.237631e-01 7.880884e-01 7.803011e-01 7.392266e-01 7.284968e-01 6.860168e-01 6.725147e-01 6.300369e-01 6.148637e-01 5.728936e-01 5.548506e-01 5.122306e-01 4.914755e-01 4.499154e-01 4.283470e-01 3.882650e-01 3.659100e-01 3.275464e-01 3.064713e-01 2.712297e-01 2.522208e-01 2.181313e-01 1.994743e-01 1.641796e-01 1.457176e-01 1.088426e-01 9.174633e-02 5.291807e-02 3.704815e-02 -5.115940e-03 -1.957678e-02 -6.443515e-02 -7.630717e-02 -1.241737e-01 -1.349781e-01 -1.866405e-01 -1.960258e-01 -2.492933e-01 -2.569256e-01 -3.115347e-01 -3.190473e-01 -3.736310e-01 -3.804515e-01 -4.324365e-01 -4.392742e-01 -4.881609e-01 -4.969425e-01 -5.424568e-01 -5.545274e-01 -5.961994e-01 -6.122410e-01 -6.510095e-01 -6.760834e-01 -7.068642e-01 -7.208977e-01 -7.494727e-01 -7.583012e-01 
-9.334423e-01 -9.352658e-01 -9.821617e-01 -9.830831e-01 -1.034344e+00 -1.035660e+00 -1.093495e+00 -1.095790e+00 -1.153707e+00 -1.154141e+00 -1.214672e+00 -1.212662e+00 -1.275311e+00 -1.271615e+00 -4.158884e-01 -3.276933e-01 4.669611e-01 5.799016e-01 1.381241e+00 1.455108e+00 2.326087e+00 2.312532e+00 2.267073e+00 2.253011e+00 2.207582e+00 2.193062e+00 2.148002e+00 2.132769e+00 2.088221e+00 2.071855e+00 2.028101e+00 2.010570e+00 1.968129e+00 1.949476e+00 1.908511e+00 1.888693e+00 1.849398e+00 1.828800e+00 1.791357e+00 1.770121e+00 1.734103e+00 1.712219e+00 1.677339e+00 1.655188e+00 1.621189e+00 1.598890e+00 1.565146e+00 1.542640e+00 1.508609e+00 1.485917e+00 1.451125e+00 1.428120e+00 1.392100e+00 1.368705e+00 1.331453e+00 1.307906e+00 1.269459e+00 1.245243e+00 1.203244e+00 1.178773e+00 1.139599e+00 1.118075e+00 1.075246e+00 1.059818e+00 1.014434e+00 9.994721e-01 9.570280e-01 9.384155e-01 9.001289e-01 8.784575e-01 8.391024e-01 8.188483e-01 7.699035e-01 7.529741e-01 7.079454e-01 6.914548e-01 6.475761e-01 6.304069e-01 5.868605e-01 5.687085e-01 5.252515e-01 5.058462e-01 4.623164e-01 4.418231e-01 3.985993e-01 3.776311e-01 3.349948e-01 3.140424e-01 2.721637e-01 2.519378e-01 2.108840e-01 1.917396e-01 1.508144e-01 1.325849e-01 9.085278e-02 7.355058e-02 3.038031e-02 1.427074e-02 -3.084608e-02 -4.563792e-02 -9.320170e-02 -1.065171e-01 -1.565985e-01 -1.681995e-01 -2.208110e-01 -2.308707e-01 -2.858686e-01 -2.943717e-01 -3.510238e-01 -3.580409e-01 -4.157274e-01 -4.216796e-01 -4.795715e-01 -4.846747e-01 -5.418287e-01 -5.465509e-01 -6.024974e-01 -6.075157e-01 -6.620948e-01 -6.678791e-01 -7.211302e-01 -7.278764e-01 -7.798231e-01 -7.893298e-01 -8.348345e-01 -8.415521e-01 -8.852262e-01 -8.890718e-01 
-7.894535e-01 -8.006980e-01 -8.366985e-01 -8.480914e-01 -8.866705e-01 -8.989669e-01 -9.408418e-01 -9.535623e-01 -9.974202e-01 -1.011051e+00 -1.056271e+00 -1.072977e+00 -1.118351e+00 -1.142526e+00 -2.817730e-01 -2.731807e-01 5.595576e-01 5.809411e-01 1.412139e+00 1.423266e+00 2.278438e+00 2.261312e+00 2.209495e+00 2.199190e+00 2.146994e+00 2.139961e+00 2.087975e+00 2.082136e+00 2.030740e+00 2.024779e+00 1.974357e+00 1.967624e+00 1.918631e+00 1.910820e+00 1.863497e+00 1.854430e+00 1.808921e+00 1.798684e+00 1.755006e+00 1.743625e+00 1.701456e+00 1.688967e+00 1.648046e+00 1.634749e+00 1.594851e+00 1.580969e+00 1.541687e+00 1.527336e+00 1.488267e+00 1.473560e+00 1.434324e+00 1.419272e+00 1.379488e+00 1.364069e+00 1.323518e+00 1.307675e+00 1.265941e+00 1.248784e+00 1.205317e+00 1.189785e+00 1.145717e+00 1.129466e+00 1.086043e+00 1.073340e+00 1.028969e+00 1.015376e+00 9.707777e-01 9.578676e-01 9.158199e-01 9.014910e-01 8.580943e-01 8.436545e-01 7.989440e-01 7.853719e-01 7.417924e-01 7.279779e-01 6.850747e-01 6.704640e-01 6.282170e-01 6.125765e-01 5.709972e-01 5.541001e-01 5.131231e-01 4.949992e-01 4.547657e-01 4.357464e-01 3.963310e-01 3.767798e-01 3.381627e-01 3.185869e-01 2.806199e-01 2.613572e-01 2.234550e-01 2.045999e-01 1.660543e-01 1.478351e-01 1.081442e-01 9.094731e-02 4.972929e-02 3.384787e-02 -9.227276e-03 -2.357304e-02 -6.859317e-02 -8.127416e-02 -1.282310e-01 -1.394246e-01 -1.881264e-01 -1.980271e-01 -2.478958e-01 -2.568365e-01 -3.072427e-01 -3.157882e-01 -3.659151e-01 -3.745550e-01 -4.234721e-01 -4.327978e-01 -4.798058e-01 -4.904643e-01 -5.350738e-01 -5.474850e-01 -5.893894e-01 -6.035264e-01 -6.426509e-01 -6.578833e-01 -6.941863e-01 -7.079342e-01 -7.426784e-01 -7.547905e-01 
-9.347860e-01 -9.379747e-01 -9.871290e-01 -9.896158e-01 -1.041606e+00 -1.044106e+00 -1.099251e+00 -1.102298e+00 -1.159225e+00 -1.163170e+00 -1.221437e+00 -1.228076e+00 -1.286675e+00 -1.300451e+00 -3.973493e-01 -3.682389e-01 5.012791e-01 5.437667e-01 1.417061e+00 1.437753e+00 2.350840e+00 2.323234e+00 2.279057e+00 2.257973e+00 2.213573e+00 2.195500e+00 2.151351e+00 2.134396e+00 2.090825e+00 2.073891e+00 2.031140e+00 2.013619e+00 1.971921e+00 1.953547e+00 1.913091e+00 1.893773e+00 1.854603e+00 1.834302e+00 1.796296e+00 1.775024e+00 1.737971e+00 1.715846e+00 1.679540e+00 1.656805e+00 1.621062e+00 1.598000e+00 1.562589e+00 1.539422e+00 1.504053e+00 1.480939e+00 1.445319e+00 1.422380e+00 1.386251e+00 1.363581e+00 1.326710e+00 1.304375e+00 1.266546e+00 1.244622e+00 1.205651e+00 1.184401e+00 1.144641e+00 1.124494e+00 1.083498e+00 1.064585e+00 1.022564e+00 1.004028e+00 9.616807e-01 9.427579e-01 9.002750e-01 8.809851e-01 8.377477e-01 8.187051e-01 7.741929e-01 7.557575e-01 7.113171e-01 6.932585e-01 6.492568e-01 6.312781e-01 5.877863e-01 5.696196e-01 5.265967e-01 5.080434e-01 4.654059e-01 4.463778e-01 4.040329e-01 3.845874e-01 3.424460e-01 3.227771e-01 2.807024e-01 2.610580e-01 2.187888e-01 1.994084e-01 1.565680e-01 1.377040e-01 9.389453e-02 7.586259e-02 3.075518e-02 1.392553e-02 -3.271863e-02 -4.800140e-02 -9.635075e-02 -1.098560e-01 -1.600123e-01 -1.716578e-01 -2.236024e-01 -2.334276e-01 -2.869763e-01 -2.951487e-01 -3.499891e-01 -3.568297e-01 -4.125571e-01 -4.184935e-01 -4.746192e-01 -4.801063e-01 -5.360958e-01 -5.415575e-01 -5.969106e-01 -6.027008e-01 -6.570120e-01 -6.633474e-01 -7.162572e-01 -7.231352e-01 -7.741640e-01 -7.813192e-01 -8.297339e-01 -8.357901e-01 -8.828863e-01 -8.873878e-01 
-7.898953e-01 -8.012792e-01 -8.373991e-01 -8.489069e-01 -8.875881e-01 -8.999852e-01 -9.419360e-01 -9.547254e-01 -9.985902e-01 -1.012231e+00 -1.057338e+00 -1.074014e+00 -1.119238e+00 -1.143488e+00 -2.823252e-01 -2.738285e-01 5.591249e-01 5.803506e-01 1.411568e+00 1.422424e+00 2.277521e+00 2.260083e+00 2.208598e+00 2.198248e+00 2.146462e+00 2.139642e+00 2.088187e+00 2.082825e+00 2.032109e+00 2.026773e+00 1.976960e+00 1.970690e+00 1.922040e+00 1.914567e+00 1.867571e+00 1.858920e+00 1.813653e+00 1.803544e+00 1.759622e+00 1.747869e+00 1.705011e+00 1.691749e+00 1.649776e+00 1.635373e+00 1.594277e+00 1.579293e+00 1.539042e+00 1.523831e+00 1.484110e+00 1.468800e+00 1.429280e+00 1.414063e+00 1.374549e+00 1.359546e+00 1.319689e+00 1.304757e+00 1.264176e+00 1.249338e+00 1.207991e+00 1.193588e+00 1.151493e+00 1.137298e+00 1.094476e+00 1.080666e+00 1.037075e+00 1.023171e+00 9.789145e-01 9.647780e-01 9.202589e-01 9.058039e-01 8.610093e-01 8.463856e-01 8.015560e-01 7.868904e-01 7.426187e-01 7.279345e-01 6.846897e-01 6.699061e-01 6.278451e-01 6.126442e-01 5.717170e-01 5.558473e-01 5.159479e-01 4.991308e-01 4.599253e-01 4.420006e-01 4.033302e-01 3.845554e-01 3.462771e-01 3.268499e-01 2.884980e-01 2.686045e-01 2.297211e-01 2.097559e-01 1.699668e-01 1.504449e-01 1.094651e-01 9.099485e-02 4.870695e-02 3.193331e-02 -1.170119e-02 -2.644900e-02 -7.166323e-02 -8.444483e-02 -1.312581e-01 -1.420640e-01 -1.901157e-01 -1.992021e-01 -2.481881e-01 -2.561798e-01 -3.056481e-01 -3.132704e-01 -3.626617e-01 -3.707566e-01 -4.194017e-01 -4.286276e-01 -4.757180e-01 -4.865729e-01 -5.315107e-01 -5.443659e-01 -5.868187e-01 -6.015708e-01 -6.412803e-01 -6.570054e-01 -6.937074e-01 -7.077728e-01 -7.427624e-01 -7.550740e-01 
-9.343727e-01 -9.364770e-01 -9.835846e-01 -9.847826e-01 -1.036239e+00 -1.037809e+00 -1.095749e+00 -1.098116e+00 -1.155835e+00 -1.156127e+00 -1.216186e+00 -1.213955e+00 -1.276166e+00 -1.272595e+00 -4.160227e-01 -3.279566e-01 4.669829e-01 5.797090e-01 1.380895e+00 1.454418e+00 2.324811e+00 2.311098e+00 2.265641e+00 2.251722e+00 2.206466e+00 2.192434e+00 2.147901e+00 2.133611e+00 2.090060e+00 2.074990e+00 2.032315e+00 2.015865e+00 1.974155e+00 1.956426e+00 1.916305e+00 1.897638e+00 1.859080e+00 1.839030e+00 1.801306e+00 1.779531e+00 1.742263e+00 1.718923e+00 1.681928e+00 1.657478e+00 1.620916e+00 1.596200e+00 1.560286e+00 1.535826e+00 1.500292e+00 1.476260e+00 1.440848e+00 1.417604e+00 1.382288e+00 1.360082e+00 1.324455e+00 1.303011e+00 1.266534e+00 1.245867e+00 1.208514e+00 1.188763e+00 1.150207e+00 1.130925e+00 1.090922e+00 1.071945e+00 1.030482e+00 1.011430e+00 9.684252e-01 9.491188e-01 9.049126e-01 8.855387e-01 8.405058e-01 8.212336e-01 7.757614e-01 7.567453e-01 7.114269e-01 6.929876e-01 6.485794e-01 6.308619e-01 5.875886e-01 5.702017e-01 5.279469e-01 5.105979e-01 4.692243e-01 4.514321e-01 4.103227e-01 3.916228e-01 3.505238e-01 3.311465e-01 2.899217e-01 2.699003e-01 2.279225e-01 2.072961e-01 1.641325e-01 1.433707e-01 9.880000e-02 7.855709e-02 3.246801e-02 1.353972e-02 -3.395795e-02 -5.065407e-02 -9.938231e-02 -1.134059e-01 -1.637122e-01 -1.752441e-01 -2.272597e-01 -2.361785e-01 -2.895287e-01 -2.960861e-01 -3.507344e-01 -3.556866e-01 -4.114107e-01 -4.155108e-01 -4.720090e-01 -4.761831e-01 -5.330098e-01 -5.377943e-01 -5.941778e-01 -5.998708e-01 -6.553561e-01 -6.622512e-01 -7.167445e-01 -7.248134e-01 -7.778730e-01 -7.882142e-01 -8.343325e-01 -8.415472e-01 -8.855767e-01 -8.897576e-01 
-7.888576e-01 -7.961708e-01 -8.273773e-01 -8.359490e-01 -8.719205e-01 -8.864519e-01 -9.339066e-01 -9.448755e-01 -9.914134e-01 -9.963368e-01 -1.045898e+00 -1.044562e+00 -1.096276e+00 -1.086130e+00 -3.010275e-01 -2.125509e-01 5.147219e-01 6.281833e-01 1.356957e+00 1.439239e+00 2.223986e+00 2.234436e+00 2.180350e+00 2.184299e+00 2.130447e+00 2.132140e+00 2.079607e+00 2.080444e+00 2.029761e+00 2.028891e+00 1.978644e+00 1.973918e+00 1.923650e+00 1.916407e+00 1.869440e+00 1.862328e+00 1.818836e+00 1.809599e+00 1.766562e+00 1.753894e+00 1.711057e+00 1.695559e+00 1.652567e+00 1.634810e+00 1.592643e+00 1.575141e+00 1.535186e+00 1.518602e+00 1.479539e+00 1.462862e+00 1.423842e+00 1.407974e+00 1.370125e+00 1.356105e+00 1.318470e+00 1.304360e+00 1.265096e+00 1.251214e+00 1.211913e+00 1.199552e+00 1.159348e+00 1.146497e+00 1.104444e+00 1.091450e+00 1.048221e+00 1.034551e+00 9.890307e-01 9.740156e-01 9.270748e-01 9.118929e-01 8.647361e-01 8.494214e-01 8.021033e-01 7.862503e-01 7.394112e-01 7.241807e-01 6.799670e-01 6.662817e-01 6.246070e-01 6.108516e-01 5.710001e-01 5.572726e-01 5.197867e-01 5.049176e-01 4.673743e-01 4.495143e-01 4.121610e-01 3.933730e-01 3.572949e-01 3.372722e-01 3.003671e-01 2.782651e-01 2.398958e-01 2.167616e-01 1.768689e-01 1.536107e-01 1.118112e-01 8.948858e-02 4.628463e-02 2.730155e-02 -1.595935e-02 -3.087139e-02 -7.620201e-02 -8.912302e-02 -1.372337e-01 -1.466288e-01 -1.952452e-01 -2.010202e-01 -2.509305e-01 -2.550731e-01 -3.058385e-01 -3.091716e-01 -3.605026e-01 -3.654208e-01 -4.170280e-01 -4.241619e-01 -4.737283e-01 -4.832935e-01 -5.298973e-01 -5.436061e-01 -5.876565e-01 -6.067176e-01 -6.481319e-01 -6.748948e-01 -7.067424e-01 -7.214992e-01 -7.505451e-01 -7.597405e-01 
-9.323687e-01 -9.286832e-01 -9.663382e-01 -9.611380e-01 -1.003583e+00 -9.988395e-01 -1.085106e+00 -1.098979e+00 -1.144249e+00 -1.144260e+00 -1.203794e+00 -1.190129e+00 -1.258453e+00 -1.184074e+00 -5.368510e-01 -1.624912e-01 2.750158e-01 7.002168e-01 1.165158e+00 1.474036e+00 2.180646e+00 2.210560e+00 2.163855e+00 2.156417e+00 2.110106e+00 2.100498e+00 2.056044e+00 2.046100e+00 2.003928e+00 1.992728e+00 1.950888e+00 1.935783e+00 1.893453e+00 1.876164e+00 1.837545e+00 1.821543e+00 1.786750e+00 1.768851e+00 1.733660e+00 1.711842e+00 1.675818e+00 1.650681e+00 1.613349e+00 1.585486e+00 1.548256e+00 1.521010e+00 1.485999e+00 1.460333e+00 1.426066e+00 1.400786e+00 1.366536e+00 1.343106e+00 1.310692e+00 1.290506e+00 1.258630e+00 1.238941e+00 1.205082e+00 1.186208e+00 1.152511e+00 1.136460e+00 1.100762e+00 1.083821e+00 1.046007e+00 1.029160e+00 9.894384e-01 9.711867e-01 9.274659e-01 9.081116e-01 8.621579e-01 8.428843e-01 7.957070e-01 7.763496e-01 7.289170e-01 7.091387e-01 6.615199e-01 6.431432e-01 5.984274e-01 5.829929e-01 5.411142e-01 5.264800e-01 4.863624e-01 4.727199e-01 4.351861e-01 4.210465e-01 3.828181e-01 3.654529e-01 3.266931e-01 3.085539e-01 2.706957e-01 2.511320e-01 2.114758e-01 1.891520e-01 1.470389e-01 1.231658e-01 7.881052e-02 5.456314e-02 7.930228e-03 -1.521537e-02 -6.307650e-02 -8.197430e-02 -1.290414e-01 -1.427035e-01 -1.914773e-01 -2.026447e-01 -2.542102e-01 -2.609879e-01 -3.127864e-01 -3.151400e-01 -3.686999e-01 -3.690754e-01 -4.242629e-01 -4.234578e-01 -4.804630e-01 -4.812843e-01 -5.401556e-01 -5.427891e-01 -6.007612e-01 -6.047925e-01 -6.612818e-01 -6.677694e-01 -7.253907e-01 -7.276620e-01 -8.064685e-01 -8.364156e-01 -8.599927e-01 -8.678722e-01 -8.981476e-01 -8.981451e-01 
-7.870806e-01 -7.777181e-01 -7.933995e-01 -7.802679e-01 -7.934126e-01 -7.707473e-01 -8.278668e-01 -8.584154e-01 -8.370820e-01 -8.685669e-01 -8.536541e-01 -8.842149e-01 -8.687662e-01 -8.329559e-01 -6.408947e-01 -5.347889e-01 -3.981612e-01 -2.710317e-01 -1.324698e-01 -3.496638e-02 1.600106e-01 2.046798e-01 1.877016e-01 1.869254e-01 1.666831e-01 1.668995e-01 1.445438e-01 1.458545e-01 1.220337e-01 1.252897e-01 1.016801e-01 1.080865e-01 8.534663e-02 9.372535e-02 7.018919e-02 7.859341e-02 5.404236e-02 6.277808e-02 3.816950e-02 4.688319e-02 2.180895e-02 2.965210e-02 4.190908e-03 1.089338e-02 -1.513447e-02 -1.026437e-02 -3.688658e-02 -3.331462e-02 -5.915156e-02 -5.538512e-02 -7.923058e-02 -7.475454e-02 -9.682314e-02 -9.193146e-02 -1.122202e-01 -1.062222e-01 -1.245095e-01 -1.179469e-01 -1.357498e-01 -1.291152e-01 -1.482880e-01 -1.427284e-01 -1.611191e-01 -1.562392e-01 -1.755910e-01 -1.725808e-01 -1.932747e-01 -1.895512e-01 -2.105749e-01 -2.071973e-01 -2.295903e-01 -2.266886e-01 -2.482316e-01 -2.449997e-01 -2.667965e-01 -2.631640e-01 -2.854943e-01 -2.813753e-01 -3.038690e-01 -2.986168e-01 -3.211782e-01 -3.152130e-01 -3.382934e-01 -3.314509e-01 -3.543123e-01 -3.466075e-01 -3.701711e-01 -3.636100e-01 -3.889218e-01 -3.839236e-01 -4.100562e-01 -4.064543e-01 -4.329575e-01 -4.311854e-01 -4.574556e-01 -4.572322e-01 -4.819375e-01 -4.826691e-01 -5.050482e-01 -5.071280e-01 -5.273244e-01 -5.304413e-01 -5.471652e-01 -5.498231e-01 -5.632664e-01 -5.665267e-01 -5.791961e-01 -5.834636e-01 -5.962815e-01 -6.005038e-01 -6.149957e-01 -6.186255e-01 -6.362838e-01 -6.376255e-01 -6.594021e-01 -6.569928e-01 -6.844895e-01 -6.768535e-01 -7.113669e-01 -6.954489e-01 -7.396019e-01 -7.021546e-01 -7.855079e-01 -7.775329e-01 -7.792374e-01 -7.687661e-01 -7.804303e-01 -7.717027e-01 
-9.316411e-01 -9.135925e-01 -9.366689e-01 -9.180659e-01 -9.354804e-01 -9.118725e-01 -9.356654e-01 -9.513063e-01 -9.311287e-01 -9.613787e-01 -9.353937e-01 -9.755592e-01 -9.475487e-01 -9.743075e-01 -8.912460e-01 -8.980959e-01 -8.363344e-01 -8.354070e-01 -7.754348e-01 -7.795623e-01 -7.019896e-01 -7.175511e-01 -7.075348e-01 -7.309220e-01 -7.223312e-01 -7.407281e-01 -7.356349e-01 -7.506168e-01 -7.494313e-01 -7.598109e-01 -7.598004e-01 -7.628506e-01 -7.628252e-01 -7.610984e-01 -7.654680e-01 -7.634778e-01 -7.724584e-01 -7.679862e-01 -7.776573e-01 -7.698527e-01 -7.801692e-01 -7.704109e-01 -7.808380e-01 -7.698935e-01 -7.814229e-01 -7.722791e-01 -7.862301e-01 -7.789931e-01 -7.928753e-01 -7.852236e-01 -7.972926e-01 -7.896888e-01 -8.013925e-01 -7.950390e-01 -8.055556e-01 -7.978801e-01 -8.054028e-01 -7.970230e-01 -8.045419e-01 -7.969433e-01 -8.049108e-01 -7.970779e-01 -8.026018e-01 -7.947422e-01 -8.003978e-01 -7.931436e-01 -7.985938e-01 -7.890376e-01 -7.943418e-01 -7.847967e-01 -7.919804e-01 -7.828953e-01 -7.899353e-01 -7.799924e-01 -7.881998e-01 -7.782579e-01 -7.899544e-01 -7.807719e-01 -7.954313e-01 -7.848007e-01 -8.014955e-01 -7.899468e-01 -8.096598e-01 -7.961358e-01 -8.159428e-01 -7.987738e-01 -8.196899e-01 -8.027032e-01 -8.267103e-01 -8.100876e-01 -8.343709e-01 -8.171852e-01 -8.406735e-01 -8.242158e-01 -8.462337e-01 -8.310394e-01 -8.500733e-01 -8.365515e-01 -8.524218e-01 -8.430006e-01 -8.571369e-01 -8.520536e-01 -8.615632e-01 -8.573326e-01 -8.618457e-01 -8.605314e-01 -8.645257e-01 -8.662528e-01 -8.700417e-01 -8.718080e-01 -8.774882e-01 -8.778411e-01 -8.872474e-01 -8.822541e-01 -8.967490e-01 -8.845627e-01 -9.078873e-01 -8.872041e-01 -9.209693e-01 -8.884020e-01 -9.325336e-01 -8.824936e-01 -9.457548e-01 -9.023179e-01 -9.287912e-01 -8.999717e-01 -9.268044e-01 -9.057810e-01 
-7.868823e-01 -7.735205e-01 -7.852957e-01 -7.746958e-01 -7.820240e-01 -7.747891e-01 -7.762047e-01 -7.868574e-01 -7.714372e-01 -7.923430e-01 -7.698299e-01 -7.938093e-01 -7.711767e-01 -7.906055e-01 -7.751439e-01 -7.924659e-01 -7.821382e-01 -7.949816e-01 -7.899697e-01 -7.967781e-01 -7.964609e-01 -7.966586e-01 -7.972286e-01 -7.972929e-01 -7.996991e-01 -7.986386e-01 -8.035444e-01 -8.008776e-01 -8.083042e-01 -8.029167e-01 -8.117268e-01 -8.023443e-01 -8.121196e-01 -7.998027e-01 -8.122452e-01 -7.989185e-01 -8.140206e-01 -7.990470e-01 -8.150348e-01 -7.981863e-01 -8.146337e-01 -7.966112e-01 -8.130920e-01 -7.945704e-01 -8.113625e-01 -7.938106e-01 -8.112340e-01 -7.948468e-01 -8.117059e-01 -7.956374e-01 -8.110551e-01 -7.954716e-01 -8.098571e-01 -7.951712e-01 -8.081982e-01 -7.934301e-01 -8.045383e-01 -7.898424e-01 -8.002739e-01 -7.861749e-01 -7.962664e-01 -7.825040e-01 -7.910610e-01 -7.779756e-01 -7.859743e-01 -7.732749e-01 -7.810571e-01 -7.674368e-01 -7.753775e-01 -7.615265e-01 -7.699426e-01 -7.562515e-01 -7.642268e-01 -7.504579e-01 -7.593295e-01 -7.457782e-01 -7.568023e-01 -7.436345e-01 -7.567287e-01 -7.429230e-01 -7.576403e-01 -7.431527e-01 -7.596600e-01 -7.439953e-01 -7.610479e-01 -7.437042e-01 -7.615435e-01 -7.442456e-01 -7.634523e-01 -7.466609e-01 -7.658718e-01 -7.495279e-01 -7.677995e-01 -7.525954e-01 -7.691390e-01 -7.555952e-01 -7.695103e-01 -7.581819e-01 -7.692178e-01 -7.612746e-01 -7.698440e-01 -7.653977e-01 -7.704461e-01 -7.679831e-01 -7.695988e-01 -7.694321e-01 -7.698084e-01 -7.713841e-01 -7.714574e-01 -7.728131e-01 -7.742717e-01 -7.738004e-01 -7.783521e-01 -7.735745e-01 -7.828155e-01 -7.721789e-01 -7.883547e-01 -7.707795e-01 -7.947658e-01 -7.690989e-01 -8.000140e-01 -7.669367e-01 -8.021226e-01 -7.696679e-01 -7.933089e-01 -7.701790e-01 -7.887993e-01 -7.716424e-01 
