# vtk DataFile Version 2.0
Comment goes here
ASCII

DATASET STRUCTURED_POINTS
FIELD FieldData 1
TIME 1 1 double
0.79000000
DIMENSIONS    128   16   1

ORIGIN    0.000   0.000   0.000
SPACING   0.0078125 0.015625   1.000

POINT_DATA   2048
SCALARS P double
LOOKUP_TABLE default

-7.485327e-01 -7.394406e-01 -7.503534e-01 -7.461943e-01 -7.486349e-01 -7.524524e-01 -7.422961e-01 -7.614383e-01 -7.420696e-01 -7.640561e-01 -7.399691e-01 -7.600788e-01 -7.308672e-01 -7.432598e-01 -7.040552e-01 -7.084626e-01 -6.691417e-01 -6.668125e-01 -6.321067e-01 -6.273781e-01 -5.993867e-01 -5.980691e-01 -5.848673e-01 -5.867808e-01 -5.820943e-01 -5.831089e-01 -5.839596e-01 -5.827825e-01 -5.875640e-01 -5.841315e-01 -5.916855e-01 -5.863984e-01 -5.956932e-01 -5.891331e-01 -5.992586e-01 -5.920785e-01 -6.023053e-01 -5.951581e-01 -6.049896e-01 -5.984283e-01 -6.075395e-01 -6.018669e-01 -6.100483e-01 -6.053194e-01 -6.125393e-01 -6.086435e-01 -6.150563e-01 -6.117533e-01 -6.176488e-01 -6.146079e-01 -6.203549e-01 -6.172268e-01 -6.232381e-01 -6.197657e-01 -6.264820e-01 -6.226521e-01 -6.305462e-01 -6.268188e-01 -6.352255e-01 -6.322257e-01 -6.421536e-01 -6.358880e-01 -6.487154e-01 -6.374041e-01 -6.516412e-01 -6.425048e-01 -6.555720e-01 -6.480339e-01 -6.563569e-01 -6.502041e-01 -6.613511e-01 -6.540522e-01 -6.676221e-01 -6.596232e-01 -6.713476e-01 -6.633154e-01 -6.741062e-01 -6.663359e-01 -6.766627e-01 -6.690661e-01 -6.792822e-01 -6.715546e-01 -6.820911e-01 -6.738213e-01 -6.851774e-01 -6.758792e-01 -6.885293e-01 -6.777256e-01 -6.920537e-01 -6.793939e-01 -6.956268e-01 -6.809891e-01 -6.991361e-01 -6.826798e-01 -7.024638e-01 -6.846225e-01 -7.054625e-01 -6.869462e-01 -7.080285e-01 -6.897872e-01 -7.101309e-01 -6.932077e-01 -7.117297e-01 -6.971035e-01 -7.127989e-01 -7.012918e-01 -7.134651e-01 -7.056007e-01 -7.140152e-01 -7.098261e-01 -7.148157e-01 -7.136938e-01 -7.162329e-01 -7.168416e-01 -7.185574e-01 -7.188958e-01 -7.220314e-01 -7.196847e-01 -7.268686e-01 -7.194574e-01 -7.331115e-01 -7.192031e-01 -7.404110e-01 -7.214426e-01 -7.425417e-01 -7.258791e-01 -7.453162e-01 -7.322829e-01 
-6.445605e-01 -6.391825e-01 -6.440601e-01 -6.424442e-01 -6.395976e-01 -6.443808e-01 -6.279516e-01 -6.507105e-01 -6.279377e-01 -6.503993e-01 -6.294471e-01 -6.458462e-01 -6.311556e-01 -6.358884e-01 -6.322777e-01 -6.292353e-01 -6.338895e-01 -6.240784e-01 -6.349419e-01 -6.195499e-01 -6.337920e-01 -6.149274e-01 -6.281924e-01 -6.121193e-01 -6.257276e-01 -6.101618e-01 -6.249213e-01 -6.089556e-01 -6.251605e-01 -6.085621e-01 -6.258957e-01 -6.087241e-01 -6.266287e-01 -6.092323e-01 -6.269852e-01 -6.097148e-01 -6.267711e-01 -6.103661e-01 -6.265903e-01 -6.115250e-01 -6.264661e-01 -6.127373e-01 -6.261937e-01 -6.138416e-01 -6.258238e-01 -6.145812e-01 -6.252131e-01 -6.148534e-01 -6.245972e-01 -6.148937e-01 -6.242389e-01 -6.149205e-01 -6.243389e-01 -6.152126e-01 -6.251956e-01 -6.166367e-01 -6.279961e-01 -6.213623e-01 -6.313597e-01 -6.235005e-01 -6.360759e-01 -6.247184e-01 -6.404509e-01 -6.228313e-01 -6.399975e-01 -6.252549e-01 -6.397092e-01 -6.289180e-01 -6.367656e-01 -6.288847e-01 -6.388867e-01 -6.273946e-01 -6.411133e-01 -6.293140e-01 -6.412719e-01 -6.302543e-01 -6.409876e-01 -6.308300e-01 -6.407223e-01 -6.313657e-01 -6.407566e-01 -6.317193e-01 -6.408240e-01 -6.316082e-01 -6.411031e-01 -6.313704e-01 -6.417837e-01 -6.308772e-01 -6.425512e-01 -6.301277e-01 -6.434323e-01 -6.293317e-01 -6.442165e-01 -6.284848e-01 -6.446878e-01 -6.278031e-01 -6.448589e-01 -6.276769e-01 -6.448911e-01 -6.283727e-01 -6.446013e-01 -6.296507e-01 -6.437271e-01 -6.313827e-01 -6.422279e-01 -6.332420e-01 -6.400822e-01 -6.351924e-01 -6.379859e-01 -6.373396e-01 -6.361815e-01 -6.389347e-01 -6.346534e-01 -6.395620e-01 -6.339485e-01 -6.390752e-01 -6.345355e-01 -6.373271e-01 -6.367740e-01 -6.343834e-01 -6.408700e-01 -6.308952e-01 -6.465682e-01 -6.286135e-01 -6.439733e-01 -6.313212e-01 -6.438013e-01 -6.351217e-01 
-7.511280e-01 -7.400724e-01 -7.572744e-01 -7.470277e-01 -7.578360e-01 -7.469187e-01 -7.299998e-01 -7.742020e-01 -7.460505e-01 -7.775674e-01 -7.545660e-01 -7.864291e-01 -7.670880e-01 -7.798223e-01 -7.204145e-01 -7.225029e-01 -6.737783e-01 -6.626673e-01 -6.238665e-01 -6.074420e-01 -5.636293e-01 -5.629863e-01 -5.618899e-01 -5.714766e-01 -5.721065e-01 -5.752512e-01 -5.789678e-01 -5.777438e-01 -5.848100e-01 -5.805456e-01 -5.901657e-01 -5.836666e-01 -5.948810e-01 -5.870487e-01 -5.986458e-01 -5.899925e-01 -6.012004e-01 -5.931447e-01 -6.041303e-01 -5.974185e-01 -6.072986e-01 -6.016542e-01 -6.100802e-01 -6.056606e-01 -6.126130e-01 -6.089279e-01 -6.144134e-01 -6.112214e-01 -6.159523e-01 -6.130369e-01 -6.176357e-01 -6.144883e-01 -6.193674e-01 -6.151080e-01 -6.204560e-01 -6.143557e-01 -6.253932e-01 -6.196182e-01 -6.233276e-01 -6.376221e-01 -6.413544e-01 -6.431873e-01 -6.621732e-01 -6.200870e-01 -6.459095e-01 -6.397415e-01 -6.674246e-01 -6.620017e-01 -6.366395e-01 -6.426824e-01 -6.542730e-01 -6.460976e-01 -6.783553e-01 -6.672766e-01 -6.757642e-01 -6.659869e-01 -6.751993e-01 -6.667106e-01 -6.761235e-01 -6.688009e-01 -6.783371e-01 -6.712900e-01 -6.806582e-01 -6.731385e-01 -6.833440e-01 -6.751492e-01 -6.868687e-01 -6.768883e-01 -6.904546e-01 -6.782551e-01 -6.943435e-01 -6.796480e-01 -6.981212e-01 -6.807813e-01 -7.013589e-01 -6.819698e-01 -7.042631e-01 -6.840333e-01 -7.074026e-01 -6.874992e-01 -7.103373e-01 -6.916539e-01 -7.124220e-01 -6.963329e-01 -7.135732e-01 -7.009217e-01 -7.135080e-01 -7.056065e-01 -7.136983e-01 -7.110379e-01 -7.142564e-01 -7.156135e-01 -7.145635e-01 -7.187275e-01 -7.155905e-01 -7.204262e-01 -7.181046e-01 -7.203735e-01 -7.226323e-01 -7.180332e-01 -7.295685e-01 -7.129806e-01 -7.498205e-01 -7.164250e-01 -7.407821e-01 -7.215805e-01 -7.441536e-01 -7.305425e-01 
-6.493534e-01 -6.421728e-01 -6.596967e-01 -6.476493e-01 -6.685772e-01 -6.442253e-01 -6.278549e-01 -7.126654e-01 -6.827356e-01 -7.160084e-01 -7.039794e-01 -7.284374e-01 -7.216032e-01 -6.726631e-01 -5.328651e-01 -4.436172e-01 -3.302479e-01 -1.998113e-01 -1.129151e-01 2.501262e-02 1.311042e-01 1.998129e-01 1.764186e-01 1.858143e-01 1.619289e-01 1.714393e-01 1.468187e-01 1.564445e-01 1.312694e-01 1.407608e-01 1.154512e-01 1.245845e-01 9.956022e-02 1.080410e-01 8.378557e-02 9.148772e-02 6.831342e-02 7.486540e-02 5.273426e-02 5.806288e-02 3.727437e-02 4.166388e-02 2.228595e-02 2.582813e-02 7.737266e-03 1.069656e-02 -6.319957e-03 -3.808810e-03 -2.027869e-02 -1.806476e-02 -3.450387e-02 -3.225266e-02 -4.903159e-02 -4.610159e-02 -6.338768e-02 -5.890375e-02 -9.077773e-02 -9.366799e-02 -1.018999e-01 -1.707150e-01 -1.323413e-01 -1.257197e-01 -1.857786e-01 -7.671814e-02 -1.539221e-01 -1.256820e-01 -1.721425e-01 -1.863260e-01 -9.048252e-02 -1.432698e-01 -1.412252e-01 -1.197087e-01 -2.163168e-01 -2.111344e-01 -2.309984e-01 -2.261890e-01 -2.455470e-01 -2.418075e-01 -2.609133e-01 -2.580866e-01 -2.769793e-01 -2.747227e-01 -2.932889e-01 -2.912353e-01 -3.098264e-01 -3.077128e-01 -3.265779e-01 -3.237996e-01 -3.430676e-01 -3.393096e-01 -3.592158e-01 -3.543477e-01 -3.748315e-01 -3.689098e-01 -3.898725e-01 -3.833476e-01 -4.046495e-01 -3.982620e-01 -4.196438e-01 -4.141215e-01 -4.349123e-01 -4.308402e-01 -4.503031e-01 -4.483402e-01 -4.657216e-01 -4.662041e-01 -4.808737e-01 -4.841887e-01 -4.960415e-01 -5.021927e-01 -5.110964e-01 -5.193935e-01 -5.257834e-01 -5.354522e-01 -5.405678e-01 -5.503882e-01 -5.559673e-01 -5.641400e-01 -5.725065e-01 -5.763670e-01 -5.907282e-01 -5.859013e-01 -6.434667e-01 -6.254799e-01 -6.340352e-01 -6.265685e-01 -6.397601e-01 -6.337962e-01 
-7.570953e-01 -7.511035e-01 -7.867974e-01 -7.767389e-01 -8.217801e-01 -8.049488e-01 -8.374469e-01 -8.864855e-01 -9.161266e-01 -9.200252e-01 -9.686538e-01 -9.553012e-01 -1.015568e+00 -9.336868e-01 -4.310922e-01 -1.998887e-01 2.302061e-01 5.739104e-01 9.447887e-01 1.284836e+00 1.745570e+00 1.801948e+00 1.756123e+00 1.758905e+00 1.717106e+00 1.711987e+00 1.673790e+00 1.663607e+00 1.628906e+00 1.615093e+00 1.583187e+00 1.566410e+00 1.536612e+00 1.517564e+00 1.488988e+00 1.468045e+00 1.440196e+00 1.418750e+00 1.391951e+00 1.370878e+00 1.344313e+00 1.323553e+00 1.296780e+00 1.276692e+00 1.249397e+00 1.229666e+00 1.201369e+00 1.181866e+00 1.152611e+00 1.133216e+00 1.102863e+00 1.083145e+00 1.051361e+00 1.030432e+00 9.966686e-01 9.734403e-01 9.275980e-01 8.918787e-01 8.663972e-01 7.919948e-01 8.206428e-01 8.257743e-01 7.502127e-01 8.121893e-01 7.272486e-01 7.514066e-01 7.137485e-01 6.784145e-01 7.316605e-01 6.674965e-01 6.670314e-01 6.842212e-01 5.899056e-01 5.785699e-01 5.388663e-01 5.277337e-01 4.887126e-01 4.776969e-01 4.385560e-01 4.280727e-01 3.886950e-01 3.782031e-01 3.382805e-01 3.274364e-01 2.878730e-01 2.769569e-01 2.383186e-01 2.267218e-01 1.892612e-01 1.768874e-01 1.412478e-01 1.278742e-01 9.398323e-02 7.920145e-02 4.690526e-02 3.073942e-02 -1.396849e-04 -1.725989e-02 -4.703734e-02 -6.477671e-02 -9.456680e-02 -1.127853e-01 -1.435032e-01 -1.613956e-01 -1.938560e-01 -2.108275e-01 -2.456431e-01 -2.603245e-01 -2.971421e-01 -3.086327e-01 -3.480758e-01 -3.567915e-01 -3.990931e-01 -4.050911e-01 -4.495500e-01 -4.534356e-01 -4.992001e-01 -5.023098e-01 -5.481861e-01 -5.523574e-01 -5.968714e-01 -6.034104e-01 -6.683659e-01 -6.792349e-01 -6.993462e-01 -7.026761e-01 -7.288343e-01 -7.266305e-01 
-6.520911e-01 -6.578412e-01 -6.828077e-01 -6.894109e-01 -7.173359e-01 -7.285053e-01 -7.591389e-01 -7.779024e-01 -8.095213e-01 -8.208841e-01 -8.567748e-01 -8.617316e-01 -9.004576e-01 -8.962361e-01 -2.495294e-01 -1.815789e-01 4.195574e-01 5.195418e-01 1.111563e+00 1.196103e+00 1.828716e+00 1.841888e+00 1.793031e+00 1.798711e+00 1.751310e+00 1.752465e+00 1.707467e+00 1.705050e+00 1.662933e+00 1.657532e+00 1.618021e+00 1.609956e+00 1.572597e+00 1.562356e+00 1.526449e+00 1.514363e+00 1.479458e+00 1.466628e+00 1.432862e+00 1.419994e+00 1.386661e+00 1.373759e+00 1.340440e+00 1.327803e+00 1.294216e+00 1.281657e+00 1.247452e+00 1.234936e+00 1.200205e+00 1.187713e+00 1.152462e+00 1.139771e+00 1.103882e+00 1.090501e+00 1.053744e+00 1.039212e+00 1.001096e+00 9.839314e-01 9.477938e-01 9.330494e-01 9.090709e-01 9.064104e-01 8.637920e-01 8.513025e-01 8.112061e-01 8.092281e-01 7.806863e-01 7.647943e-01 7.304659e-01 7.153685e-01 6.872818e-01 6.865244e-01 6.487332e-01 6.392948e-01 6.023182e-01 5.925101e-01 5.547461e-01 5.449341e-01 5.067148e-01 4.971214e-01 4.587360e-01 4.488970e-01 4.103250e-01 3.998802e-01 3.619485e-01 3.509581e-01 3.142222e-01 3.020851e-01 2.668389e-01 2.533585e-01 2.201387e-01 2.050956e-01 1.738631e-01 1.569841e-01 1.275980e-01 1.090199e-01 8.127721e-02 6.150654e-02 3.504561e-02 1.455352e-02 -1.164114e-02 -3.251436e-02 -5.936551e-02 -7.980127e-02 -1.081643e-01 -1.275357e-01 -1.580818e-01 -1.752451e-01 -2.078695e-01 -2.221068e-01 -2.573214e-01 -2.689872e-01 -3.068817e-01 -3.161683e-01 -3.559908e-01 -3.635968e-01 -4.043499e-01 -4.116249e-01 -4.519477e-01 -4.608246e-01 -4.989690e-01 -5.116650e-01 -5.468995e-01 -5.661268e-01 -5.884921e-01 -5.994510e-01 -6.217777e-01 -6.288985e-01 
-7.584282e-01 -7.588346e-01 -7.969958e-01 -7.972556e-01 -8.373906e-01 -8.395716e-01 -8.804039e-01 -8.884263e-01 -9.311136e-01 -9.356164e-01 -9.825718e-01 -9.835455e-01 -1.033952e+00 -1.033505e+00 -3.343715e-01 -2.710154e-01 3.838139e-01 4.766702e-01 1.126625e+00 1.197935e+00 1.895277e+00 1.887809e+00 1.845090e+00 1.837051e+00 1.796126e+00 1.786267e+00 1.747585e+00 1.735566e+00 1.699226e+00 1.685052e+00 1.650859e+00 1.634699e+00 1.602308e+00 1.584465e+00 1.553452e+00 1.534309e+00 1.504298e+00 1.484391e+00 1.455105e+00 1.434888e+00 1.405943e+00 1.385689e+00 1.356754e+00 1.336679e+00 1.307484e+00 1.287674e+00 1.258005e+00 1.238523e+00 1.208295e+00 1.189211e+00 1.158405e+00 1.139822e+00 1.108504e+00 1.090706e+00 1.059129e+00 1.042932e+00 1.011779e+00 9.993583e-01 9.658251e-01 9.512233e-01 9.197927e-01 9.035650e-01 8.731362e-01 8.537410e-01 8.235454e-01 8.068983e-01 7.734951e-01 7.604288e-01 7.216703e-01 7.108292e-01 6.732135e-01 6.577244e-01 6.237477e-01 6.101474e-01 5.737858e-01 5.608786e-01 5.232941e-01 5.108680e-01 4.725920e-01 4.604905e-01 4.218448e-01 4.098211e-01 3.710525e-01 3.588783e-01 3.203598e-01 3.078748e-01 2.699390e-01 2.569068e-01 2.198056e-01 2.060631e-01 1.700045e-01 1.554303e-01 1.204443e-01 1.049771e-01 7.096462e-02 5.469573e-02 2.144083e-02 4.613904e-03 -2.823591e-02 -4.530304e-02 -7.828044e-02 -9.522124e-02 -1.288814e-01 -1.452112e-01 -1.800596e-01 -1.952848e-01 -2.317005e-01 -2.452966e-01 -2.834424e-01 -2.950768e-01 -3.350797e-01 -3.447593e-01 -3.865428e-01 -3.944478e-01 -4.376431e-01 -4.441843e-01 -4.882420e-01 -4.940226e-01 -5.382897e-01 -5.439368e-01 -5.878123e-01 -5.936716e-01 -6.368846e-01 -6.427612e-01 -6.802654e-01 -6.840344e-01 -7.201234e-01 -7.218503e-01 
-6.535915e-01 -6.635241e-01 -6.913148e-01 -7.020058e-01 -7.311482e-01 -7.436138e-01 -7.744178e-01 -7.889742e-01 -8.214562e-01 -8.370452e-01 -8.714214e-01 -8.891045e-01 -9.250075e-01 -9.479447e-01 -2.354402e-01 -2.292840e-01 4.576805e-01 4.774880e-01 1.160342e+00 1.173769e+00 1.875185e+00 1.864476e+00 1.816832e+00 1.810417e+00 1.764342e+00 1.759195e+00 1.714980e+00 1.709517e+00 1.667318e+00 1.660761e+00 1.620526e+00 1.612571e+00 1.574089e+00 1.564737e+00 1.527693e+00 1.517138e+00 1.481213e+00 1.469804e+00 1.434717e+00 1.422795e+00 1.388223e+00 1.376033e+00 1.341688e+00 1.329417e+00 1.295079e+00 1.282826e+00 1.248341e+00 1.236167e+00 1.201487e+00 1.189432e+00 1.154570e+00 1.142671e+00 1.107706e+00 1.096069e+00 1.061192e+00 1.050159e+00 1.015797e+00 1.006224e+00 9.712969e-01 9.599447e-01 9.256149e-01 9.140197e-01 8.803305e-01 8.697333e-01 8.358783e-01 8.241093e-01 7.888773e-01 7.786250e-01 7.435102e-01 7.338304e-01 6.971560e-01 6.857592e-01 6.494661e-01 6.387112e-01 6.019673e-01 5.915285e-01 5.544270e-01 5.441256e-01 5.068316e-01 4.965063e-01 4.592305e-01 4.486500e-01 4.116337e-01 4.005532e-01 3.641243e-01 3.523181e-01 3.167851e-01 3.040004e-01 2.696079e-01 2.556570e-01 2.225832e-01 2.073554e-01 1.756348e-01 1.591218e-01 1.286564e-01 1.110030e-01 8.156471e-02 6.306584e-02 3.429052e-02 1.533777e-02 -1.328220e-02 -3.223842e-02 -6.125649e-02 -7.970490e-02 -1.096434e-01 -1.270896e-01 -1.583558e-01 -1.743514e-01 -2.071604e-01 -2.214511e-01 -2.558783e-01 -2.685053e-01 -3.043828e-01 -3.156183e-01 -3.524753e-01 -3.628335e-01 -3.999490e-01 -4.101248e-01 -4.465878e-01 -4.572914e-01 -4.921170e-01 -5.037774e-01 -5.361057e-01 -5.484320e-01 -5.775100e-01 -5.887570e-01 -6.162347e-01 -6.264466e-01 
-7.588642e-01 -7.610000e-01 -8.001172e-01 -8.024826e-01 -8.428871e-01 -8.465165e-01 -8.883350e-01 -8.939269e-01 -9.376391e-01 -9.439712e-01 -9.900965e-01 -9.980889e-01 -1.046240e+00 -1.059395e+00 -3.208897e-01 -2.991937e-01 4.112428e-01 4.469679e-01 1.157101e+00 1.178309e+00 1.918171e+00 1.899839e+00 1.857505e+00 1.843412e+00 1.802892e+00 1.789960e+00 1.751430e+00 1.738064e+00 1.701564e+00 1.687039e+00 1.652456e+00 1.636545e+00 1.603635e+00 1.586396e+00 1.554835e+00 1.536492e+00 1.505928e+00 1.486790e+00 1.456883e+00 1.437281e+00 1.407718e+00 1.387948e+00 1.358455e+00 1.338753e+00 1.309114e+00 1.289664e+00 1.259733e+00 1.240672e+00 1.210369e+00 1.191802e+00 1.161111e+00 1.143135e+00 1.112088e+00 1.094809e+00 1.063471e+00 1.046990e+00 1.015404e+00 9.996736e-01 9.677020e-01 9.519971e-01 9.199521e-01 9.040369e-01 8.717576e-01 8.556801e-01 8.227949e-01 8.072956e-01 7.732533e-01 7.586312e-01 7.232952e-01 7.093096e-01 6.734210e-01 6.594724e-01 6.234026e-01 6.099222e-01 5.732314e-01 5.602445e-01 5.229509e-01 5.103842e-01 4.726443e-01 4.603546e-01 4.223709e-01 4.101692e-01 3.721708e-01 3.598448e-01 3.220673e-01 3.093974e-01 2.720566e-01 2.588403e-01 2.221106e-01 2.081928e-01 1.721857e-01 1.574885e-01 1.222330e-01 1.067757e-01 7.219960e-02 5.610760e-02 2.203106e-02 5.537185e-03 -2.831509e-02 -4.488355e-02 -7.886269e-02 -9.511941e-02 -1.296233e-01 -1.451659e-01 -1.805886e-01 -1.950385e-01 -2.317099e-01 -2.447594e-01 -2.828965e-01 -2.943619e-01 -3.340330e-01 -3.438937e-01 -3.849969e-01 -3.934079e-01 -4.356660e-01 -4.429253e-01 -4.858982e-01 -4.923649e-01 -5.354915e-01 -5.414649e-01 -5.841220e-01 -5.896992e-01 -6.312098e-01 -6.361761e-01 -6.756271e-01 -6.794827e-01 -7.178116e-01 -7.205639e-01 
-6.536404e-01 -6.636095e-01 -6.914310e-01 -7.021529e-01 -7.313223e-01 -7.438170e-01 -7.746431e-01 -7.892241e-01 -8.217113e-01 -8.373119e-01 -8.716624e-01 -8.893501e-01 -9.252104e-01 -9.481704e-01 -2.355645e-01 -2.294361e-01 4.576391e-01 4.773975e-01 1.160397e+00 1.173734e+00 1.875377e+00 1.864561e+00 1.817108e+00 1.810708e+00 1.764828e+00 1.759747e+00 1.715692e+00 1.710294e+00 1.668216e+00 1.661731e+00 1.621618e+00 1.613763e+00 1.575411e+00 1.566180e+00 1.529277e+00 1.518856e+00 1.483030e+00 1.471677e+00 1.436564e+00 1.424614e+00 1.389945e+00 1.377716e+00 1.343235e+00 1.330938e+00 1.296457e+00 1.284264e+00 1.249698e+00 1.237705e+00 1.203016e+00 1.191253e+00 1.156465e+00 1.144939e+00 1.110132e+00 1.098859e+00 1.064144e+00 1.053129e+00 1.018580e+00 1.007766e+00 9.733326e-01 9.623625e-01 9.280263e-01 9.168827e-01 8.824903e-01 8.712821e-01 8.366358e-01 8.253212e-01 7.902262e-01 7.790862e-01 7.435803e-01 7.326334e-01 6.965952e-01 6.857047e-01 6.492581e-01 6.386156e-01 6.017843e-01 5.914243e-01 5.543276e-01 5.441793e-01 5.069689e-01 4.968365e-01 4.597053e-01 4.493640e-01 4.125919e-01 4.017782e-01 3.656183e-01 3.540087e-01 3.186992e-01 3.060182e-01 2.717673e-01 2.577881e-01 2.247217e-01 2.093424e-01 1.775271e-01 1.607999e-01 1.301684e-01 1.122587e-01 8.258232e-02 6.378790e-02 3.472992e-02 1.551376e-02 -1.331661e-02 -3.240177e-02 -6.149684e-02 -7.993573e-02 -1.098204e-01 -1.271354e-01 -1.582609e-01 -1.741058e-01 -2.067987e-01 -2.209772e-01 -2.552899e-01 -2.677876e-01 -3.035333e-01 -3.146595e-01 -3.514367e-01 -3.617653e-01 -3.988906e-01 -4.091249e-01 -4.456709e-01 -4.564886e-01 -4.914405e-01 -5.032458e-01 -5.357095e-01 -5.481546e-01 -5.773279e-01 -5.886538e-01 -6.161923e-01 -6.264551e-01 
-7.585221e-01 -7.590058e-01 -7.972192e-01 -7.975548e-01 -8.377364e-01 -8.399932e-01 -8.808567e-01 -8.889306e-01 -9.315910e-01 -9.361079e-01 -9.829697e-01 -9.839460e-01 -1.034246e+00 -1.033868e+00 -3.345358e-01 -2.712123e-01 3.837700e-01 4.765481e-01 1.126726e+00 1.197928e+00 1.895574e+00 1.888234e+00 1.845583e+00 1.837799e+00 1.797009e+00 1.787417e+00 1.748874e+00 1.737072e+00 1.700864e+00 1.686901e+00 1.652905e+00 1.637011e+00 1.604878e+00 1.587349e+00 1.556646e+00 1.537864e+00 1.508108e+00 1.488417e+00 1.459141e+00 1.438972e+00 1.409890e+00 1.389652e+00 1.360464e+00 1.340404e+00 1.310905e+00 1.291269e+00 1.261388e+00 1.242324e+00 1.212020e+00 1.193583e+00 1.162873e+00 1.145077e+00 1.114038e+00 1.096882e+00 1.065608e+00 1.049023e+00 1.017555e+00 1.001424e+00 9.697711e-01 9.539025e-01 9.218870e-01 9.060923e-01 8.734435e-01 8.577216e-01 8.243578e-01 8.088108e-01 7.746769e-01 7.594539e-01 7.245686e-01 7.098487e-01 6.742020e-01 6.600729e-01 6.236620e-01 6.101934e-01 5.731015e-01 5.603271e-01 5.227043e-01 5.105695e-01 4.725584e-01 4.608364e-01 4.226007e-01 4.110707e-01 3.729020e-01 3.613021e-01 3.234022e-01 3.113579e-01 2.739153e-01 2.611351e-01 2.243302e-01 2.105497e-01 1.744780e-01 1.595806e-01 1.243442e-01 1.083962e-01 7.397445e-02 5.712878e-02 2.333115e-02 5.861965e-03 -2.758911e-02 -4.520332e-02 -7.859349e-02 -9.577471e-02 -1.295462e-01 -1.458165e-01 -1.804940e-01 -1.953988e-01 -2.314579e-01 -2.446963e-01 -2.825510e-01 -2.939304e-01 -3.336761e-01 -3.430991e-01 -3.846299e-01 -3.923555e-01 -4.354358e-01 -4.419768e-01 -4.861094e-01 -4.920636e-01 -5.365417e-01 -5.424535e-01 -5.866023e-01 -5.927620e-01 -6.362316e-01 -6.423158e-01 -6.799748e-01 -6.838762e-01 -7.200601e-01 -7.218796e-01 
-6.523339e-01 -6.581574e-01 -6.831942e-01 -6.898749e-01 -7.178854e-01 -7.291528e-01 -7.598999e-01 -7.787716e-01 -8.104618e-01 -8.218357e-01 -8.575938e-01 -8.624638e-01 -9.010093e-01 -8.968982e-01 -2.499199e-01 -1.819870e-01 4.193806e-01 5.192952e-01 1.111563e+00 1.195735e+00 1.828720e+00 1.841563e+00 1.793349e+00 1.799364e+00 1.752704e+00 1.754266e+00 1.709764e+00 1.707517e+00 1.665600e+00 1.660320e+00 1.621149e+00 1.613414e+00 1.576444e+00 1.566590e+00 1.531312e+00 1.519993e+00 1.485722e+00 1.473083e+00 1.439020e+00 1.425773e+00 1.392034e+00 1.378925e+00 1.345051e+00 1.332038e+00 1.297760e+00 1.285244e+00 1.250748e+00 1.238816e+00 1.204026e+00 1.192524e+00 1.157484e+00 1.146266e+00 1.111173e+00 1.100253e+00 1.065402e+00 1.054627e+00 1.020091e+00 1.009460e+00 9.755994e-01 9.650823e-01 9.313546e-01 9.202267e-01 8.859238e-01 8.742721e-01 8.396118e-01 8.276287e-01 7.925178e-01 7.804190e-01 7.450057e-01 7.333355e-01 6.974387e-01 6.862834e-01 6.495884e-01 6.389262e-01 6.015304e-01 5.915342e-01 5.538361e-01 5.446243e-01 5.067260e-01 4.976856e-01 4.595785e-01 4.505307e-01 4.129909e-01 4.037382e-01 3.668939e-01 3.565831e-01 3.206646e-01 3.089940e-01 2.743818e-01 2.607817e-01 2.274566e-01 2.117159e-01 1.800763e-01 1.624718e-01 1.325898e-01 1.132324e-01 8.466569e-02 6.372252e-02 3.594620e-02 1.425465e-02 -1.281592e-02 -3.409188e-02 -6.116358e-02 -8.150407e-02 -1.095297e-01 -1.280979e-01 -1.577769e-01 -1.742557e-01 -2.066240e-01 -2.207474e-01 -2.556940e-01 -2.668229e-01 -3.040449e-01 -3.127650e-01 -3.521981e-01 -3.596819e-01 -4.005290e-01 -4.081100e-01 -4.488017e-01 -4.581188e-01 -4.967792e-01 -5.101382e-01 -5.459756e-01 -5.656151e-01 -5.882438e-01 -5.993905e-01 -6.218434e-01 -6.290641e-01 
-7.573945e-01 -7.515010e-01 -7.872725e-01 -7.773606e-01 -8.225331e-01 -8.059500e-01 -8.386701e-01 -8.878262e-01 -9.173980e-01 -9.212033e-01 -9.694528e-01 -9.558383e-01 -1.015621e+00 -9.336579e-01 -4.312889e-01 -1.998289e-01 2.300915e-01 5.735461e-01 9.448198e-01 1.283674e+00 1.745648e+00 1.802453e+00 1.756466e+00 1.760054e+00 1.718615e+00 1.714168e+00 1.676238e+00 1.666322e+00 1.631663e+00 1.618046e+00 1.586520e+00 1.570269e+00 1.541042e+00 1.522667e+00 1.495089e+00 1.475417e+00 1.448652e+00 1.427746e+00 1.400790e+00 1.379456e+00 1.352527e+00 1.331637e+00 1.304154e+00 1.283568e+00 1.255204e+00 1.235455e+00 1.206502e+00 1.187765e+00 1.158153e+00 1.140309e+00 1.110108e+00 1.093043e+00 1.062489e+00 1.046259e+00 1.015682e+00 1.000039e+00 9.694514e-01 9.542846e-01 9.242172e-01 9.093946e-01 8.789717e-01 8.640159e-01 8.319494e-01 8.170201e-01 7.839528e-01 7.686124e-01 7.349506e-01 7.192892e-01 6.855398e-01 6.704626e-01 6.356935e-01 6.217782e-01 5.854175e-01 5.725001e-01 5.352715e-01 5.235348e-01 4.858696e-01 4.754724e-01 4.374180e-01 4.275981e-01 3.890193e-01 3.796453e-01 3.414319e-01 3.323712e-01 2.945068e-01 2.847428e-01 2.473498e-01 2.365964e-01 2.000253e-01 1.875874e-01 1.517021e-01 1.373208e-01 1.026427e-01 8.666951e-02 5.338669e-02 3.589584e-02 3.610145e-03 -1.531364e-02 -4.703722e-02 -6.648363e-02 -9.744599e-02 -1.161339e-01 -1.469779e-01 -1.645370e-01 -1.962649e-01 -2.118797e-01 -2.452116e-01 -2.587156e-01 -2.949365e-01 -3.061259e-01 -3.450941e-01 -3.530923e-01 -3.945392e-01 -3.999244e-01 -4.440371e-01 -4.479835e-01 -4.940979e-01 -4.978406e-01 -5.444106e-01 -5.493397e-01 -5.946858e-01 -6.022171e-01 -6.678939e-01 -6.790542e-01 -6.993051e-01 -7.027584e-01 -7.289879e-01 -7.268715e-01 
-6.499241e-01 -6.427319e-01 -6.602758e-01 -6.482863e-01 -6.693041e-01 -6.450942e-01 -6.288751e-01 -7.134844e-01 -6.832581e-01 -7.161620e-01 -7.038621e-01 -7.279475e-01 -7.208836e-01 -6.714886e-01 -5.316961e-01 -4.420170e-01 -3.288717e-01 -1.982187e-01 -1.115171e-01 2.630423e-02 1.320804e-01 2.007413e-01 1.765931e-01 1.854580e-01 1.608705e-01 1.698190e-01 1.447920e-01 1.540827e-01 1.288988e-01 1.382899e-01 1.132153e-01 1.224289e-01 9.792713e-02 1.067536e-01 8.311932e-02 9.117077e-02 6.863695e-02 7.578913e-02 5.452701e-02 6.043112e-02 4.009149e-02 4.447715e-02 2.498747e-02 2.809500e-02 9.344597e-03 1.132885e-02 -6.927103e-03 -5.657969e-03 -2.346943e-02 -2.237159e-02 -3.983476e-02 -3.844175e-02 -5.576220e-02 -5.384850e-02 -7.135040e-02 -6.882509e-02 -8.677384e-02 -8.382171e-02 -1.024906e-01 -9.931200e-02 -1.189141e-01 -1.142986e-01 -1.352079e-01 -1.293135e-01 -1.509697e-01 -1.454426e-01 -1.666554e-01 -1.620868e-01 -1.823191e-01 -1.785977e-01 -1.990992e-01 -1.952826e-01 -2.161684e-01 -2.123884e-01 -2.324779e-01 -2.289344e-01 -2.483578e-01 -2.452299e-01 -2.639751e-01 -2.610188e-01 -2.790982e-01 -2.762528e-01 -2.941681e-01 -2.913577e-01 -3.093793e-01 -3.062222e-01 -3.247103e-01 -3.211294e-01 -3.404859e-01 -3.362955e-01 -3.566091e-01 -3.517946e-01 -3.731826e-01 -3.679456e-01 -3.901777e-01 -3.846245e-01 -4.070647e-01 -4.013417e-01 -4.232306e-01 -4.178654e-01 -4.386793e-01 -4.344479e-01 -4.534795e-01 -4.509168e-01 -4.675217e-01 -4.673314e-01 -4.811971e-01 -4.837384e-01 -4.945902e-01 -4.999902e-01 -5.083111e-01 -5.165754e-01 -5.231325e-01 -5.333130e-01 -5.389647e-01 -5.494757e-01 -5.556824e-01 -5.645111e-01 -5.734643e-01 -5.778706e-01 -5.926338e-01 -5.880257e-01 -6.454192e-01 -6.269649e-01 -6.351593e-01 -6.274507e-01 -6.404812e-01 -6.344197e-01 
-7.515115e-01 -7.404255e-01 -7.575926e-01 -7.473501e-01 -7.581291e-01 -7.472162e-01 -7.302140e-01 -7.741996e-01 -7.457030e-01 -7.770064e-01 -7.538136e-01 -7.856244e-01 -7.660983e-01 -7.786960e-01 -7.191188e-01 -7.211368e-01 -6.724331e-01 -6.614000e-01 -6.225096e-01 -6.060833e-01 -5.621414e-01 -5.617585e-01 -5.614520e-01 -5.719499e-01 -5.736475e-01 -5.776278e-01 -5.820039e-01 -5.811211e-01 -5.882450e-01 -5.840427e-01 -5.936567e-01 -5.872572e-01 -5.982731e-01 -5.903728e-01 -6.019458e-01 -5.936277e-01 -6.048607e-01 -5.964081e-01 -6.063873e-01 -5.987637e-01 -6.079463e-01 -6.020234e-01 -6.100878e-01 -6.054918e-01 -6.123620e-01 -6.092164e-01 -6.153970e-01 -6.133054e-01 -6.188915e-01 -6.171230e-01 -6.223664e-01 -6.202867e-01 -6.256675e-01 -6.230384e-01 -6.292204e-01 -6.257948e-01 -6.331570e-01 -6.290890e-01 -6.383399e-01 -6.336814e-01 -6.445923e-01 -6.375040e-01 -6.496426e-01 -6.403412e-01 -6.533765e-01 -6.437876e-01 -6.564517e-01 -6.473653e-01 -6.592406e-01 -6.510961e-01 -6.632743e-01 -6.553135e-01 -6.675004e-01 -6.596160e-01 -6.707935e-01 -6.633374e-01 -6.738130e-01 -6.671230e-01 -6.769481e-01 -6.702986e-01 -6.794701e-01 -6.727059e-01 -6.824154e-01 -6.753400e-01 -6.859490e-01 -6.774554e-01 -6.894997e-01 -6.792755e-01 -6.934574e-01 -6.808266e-01 -6.971652e-01 -6.819504e-01 -7.008766e-01 -6.835722e-01 -7.048838e-01 -6.857536e-01 -7.083923e-01 -6.877925e-01 -7.105076e-01 -6.897585e-01 -7.119376e-01 -6.928617e-01 -7.131552e-01 -6.967042e-01 -7.136370e-01 -7.011794e-01 -7.138889e-01 -7.059288e-01 -7.133336e-01 -7.100445e-01 -7.129148e-01 -7.146536e-01 -7.142797e-01 -7.193303e-01 -7.169338e-01 -7.224255e-01 -7.205115e-01 -7.230586e-01 -7.254861e-01 -7.209940e-01 -7.324291e-01 -7.154601e-01 -7.517267e-01 -7.177908e-01 -7.417746e-01 -7.223194e-01 -7.447193e-01 -7.310034e-01 
-6.448231e-01 -6.394148e-01 -6.442738e-01 -6.426391e-01 -6.397778e-01 -6.445253e-01 -6.280517e-01 -6.506968e-01 -6.278105e-01 -6.501488e-01 -6.291433e-01 -6.454604e-01 -6.307342e-01 -6.353393e-01 -6.317004e-01 -6.285601e-01 -6.332748e-01 -6.234165e-01 -6.343698e-01 -6.189177e-01 -6.332883e-01 -6.145101e-01 -6.281510e-01 -6.124520e-01 -6.265146e-01 -6.113173e-01 -6.263563e-01 -6.105736e-01 -6.268105e-01 -6.102771e-01 -6.275954e-01 -6.104870e-01 -6.282932e-01 -6.108914e-01 -6.286015e-01 -6.114638e-01 -6.284870e-01 -6.119438e-01 -6.277604e-01 -6.123763e-01 -6.270356e-01 -6.132440e-01 -6.265734e-01 -6.142430e-01 -6.262417e-01 -6.153331e-01 -6.263000e-01 -6.165217e-01 -6.266748e-01 -6.175743e-01 -6.272296e-01 -6.183932e-01 -6.279723e-01 -6.191742e-01 -6.291587e-01 -6.202199e-01 -6.309273e-01 -6.217616e-01 -6.334432e-01 -6.235023e-01 -6.363695e-01 -6.247201e-01 -6.385019e-01 -6.252778e-01 -6.394310e-01 -6.262361e-01 -6.396753e-01 -6.273436e-01 -6.396385e-01 -6.282656e-01 -6.403284e-01 -6.291421e-01 -6.411103e-01 -6.302035e-01 -6.414116e-01 -6.310981e-01 -6.415321e-01 -6.319797e-01 -6.416870e-01 -6.325454e-01 -6.416557e-01 -6.326892e-01 -6.418583e-01 -6.327647e-01 -6.423984e-01 -6.325134e-01 -6.430684e-01 -6.320254e-01 -6.439651e-01 -6.313406e-01 -6.447913e-01 -6.304692e-01 -6.455782e-01 -6.298393e-01 -6.463614e-01 -6.295539e-01 -6.467623e-01 -6.294192e-01 -6.463911e-01 -6.295275e-01 -6.454873e-01 -6.303528e-01 -6.442178e-01 -6.317093e-01 -6.424041e-01 -6.334620e-01 -6.403078e-01 -6.353748e-01 -6.378864e-01 -6.370029e-01 -6.357044e-01 -6.386098e-01 -6.345873e-01 -6.398552e-01 -6.345431e-01 -6.399519e-01 -6.355928e-01 -6.385188e-01 -6.380451e-01 -6.357037e-01 -6.421466e-01 -6.320147e-01 -6.474708e-01 -6.293209e-01 -6.445368e-01 -6.317692e-01 -6.441672e-01 -6.354258e-01 
