# vtk DataFile Version 2.0
Comment goes here
ASCII

DATASET STRUCTURED_POINTS
FIELD FieldData 1
TIME 1 1 double
0.90000000
DIMENSIONS    128   16   1

ORIGIN    0.000   0.000   0.000
SPACING   0.0078125 0.015625   1.000

POINT_DATA   2048
SCALARS uX double
LOOKUP_TABLE default

2.457699e-03 -8.825627e-04 2.498314e-03 -2.860979e-03 2.058363e-03 -7.794471e-03 1.725826e-03 -2.078309e-03 -3.158341e-04 -7.818937e-04 -5.500372e-04 3.080907e-04 -8.270943e-04 -1.822022e-03 -3.420827e-03 -1.120999e-03 -4.752082e-03 -1.562098e-03 -4.167255e-03 -1.835549e-03 -2.938158e-03 1.073677e-03 -1.057660e-03 9.407444e-04 -1.568110e-03 4.378631e-04 -1.707938e-03 2.460941e-05 -1.659228e-03 -3.570346e-04 -1.510230e-03 -7.056134e-04 -1.316444e-03 -1.009643e-03 -1.119831e-03 -1.255100e-03 -9.516937e-04 -1.430781e-03 -8.335543e-04 -1.530813e-03 -7.759258e-04 -1.554623e-03 -7.787492e-04 -1.508042e-03 -8.332714e-04 -1.401544e-03 -9.213336e-04 -1.246491e-03 -1.014868e-03 -1.049416e-03 -1.070787e-03 -8.005660e-04 -1.019485e-03 -4.667639e-04 -7.390392e-04 1.788473e-04 6.851924e-04 2.092679e-03 3.286364e-03 3.556737e-03 9.759700e-04 6.479993e-03 5.712779e-03 6.899327e-03 6.282324e-03 3.864959e-03 7.563539e-03 6.088346e-03 6.766037e-03 6.438142e-03 3.358482e-03 5.906199e-03 5.643078e-03 2.600824e-03 1.640661e-03 9.734392e-05 2.732022e-05 -7.435910e-04 -6.335147e-04 -9.574233e-04 -9.668624e-04 -9.084264e-04 -1.195384e-03 -7.523945e-04 -1.389089e-03 -5.679052e-04 -1.554324e-03 -4.047924e-04 -1.671998e-03 -2.993178e-04 -1.716436e-03 -2.791155e-04 -1.667294e-03 -3.621233e-04 -1.514545e-03 -5.525992e-04 -1.260938e-03 -8.389851e-04 -9.243625e-04 -1.194591e-03 -5.391149e-04 -1.578706e-03 -1.531788e-04 -1.937849e-03 1.763166e-04 -2.209942e-03 3.888982e-04 -2.330957e-03 4.271935e-04 -2.244045e-03 2.451537e-04 -1.907111e-03 -1.780096e-04 -1.299943e-03 -8.209036e-04 -4.362182e-04 -1.596885e-03 6.149716e-04 -2.314104e-03 1.678525e-03 -2.604418e-03 2.324487e-03 -1.752339e-03 -1.168939e-04 1.567795e-03 4.869042e-04 2.332909e-03 1.073315e-04 
1.924050e-03 -8.346848e-04 2.018702e-03 -2.445187e-03 1.825421e-03 -9.020646e-03 1.569748e-03 -8.693495e-04 -1.881402e-03 2.713222e-04 -3.939483e-03 6.469546e-04 -7.233871e-03 -5.578201e-04 -6.296500e-03 -1.242823e-03 -5.669062e-03 -1.702316e-03 -5.058033e-03 -2.627725e-03 -4.074755e-03 -4.377070e-03 -2.320687e-03 -2.051406e-03 -1.718508e-03 -1.011594e-03 -1.290416e-03 -5.150592e-04 -9.210248e-04 -3.476213e-04 -5.888851e-04 -3.659865e-04 -2.943097e-04 -4.701841e-04 -4.196923e-05 -5.906363e-04 1.534524e-04 -6.905738e-04 2.793079e-04 -7.432887e-04 3.344463e-04 -7.401865e-04 3.171824e-04 -6.834337e-04 2.438775e-04 -5.707012e-04 1.450280e-04 -4.003097e-04 7.060270e-05 -1.440797e-04 1.257494e-04 3.023048e-04 5.460908e-04 1.231219e-03 1.927182e-03 3.560344e-03 5.646933e-03 5.117567e-03 4.049647e-03 5.837550e-03 2.913682e-03 5.341756e-03 1.357890e-03 2.598209e-03 4.663199e-03 2.273306e-03 5.410861e-03 1.054105e-03 3.166863e-03 5.177971e-03 2.778099e-03 6.880523e-03 7.273308e-03 3.915011e-03 3.106794e-03 1.151290e-03 1.306355e-03 2.009878e-04 5.707573e-04 -5.230896e-05 2.112155e-04 -8.921478e-06 -2.145048e-05 1.577506e-04 -2.176239e-04 3.586858e-04 -3.864924e-04 5.422153e-04 -5.116022e-04 6.641776e-04 -5.673763e-04 6.986788e-04 -5.261964e-04 6.283139e-04 -3.782169e-04 4.458044e-04 -1.262134e-04 1.622059e-04 2.128958e-04 -1.944707e-04 6.064427e-04 -5.843031e-04 1.003338e-03 -9.545962e-04 1.349501e-03 -1.236666e-03 1.584839e-03 -1.369159e-03 1.646192e-03 -1.291178e-03 1.489807e-03 -9.541091e-04 1.084736e-03 -3.351749e-04 4.380902e-04 5.701892e-04 -3.911774e-04 1.718744e-03 -1.283066e-03 2.965064e-03 -2.015858e-03 3.821925e-03 -2.009946e-03 -6.027157e-05 3.260503e-03 6.190095e-04 2.286691e-03 -1.582701e-05 
2.768385e-03 1.255312e-03 3.358048e-03 2.155593e-03 5.037265e-03 -1.966428e-03 2.921719e-03 -3.702186e-04 2.796543e-03 1.078192e-04 2.987168e-03 1.615350e-04 4.361243e-03 2.403650e-03 4.792554e-03 2.841005e-03 4.786498e-03 3.748597e-03 3.733160e-03 4.848540e-03 2.104877e-03 4.667932e-03 -7.661524e-05 3.489078e-03 -1.809370e-04 3.052145e-03 -1.468311e-04 2.676697e-03 5.654678e-06 2.322928e-03 2.396686e-04 1.967696e-03 5.034150e-04 1.625595e-03 7.709004e-04 1.326905e-03 1.004031e-03 1.075855e-03 1.171974e-03 8.908221e-04 1.266957e-03 7.656041e-04 1.263672e-03 6.771064e-04 1.162133e-03 6.094043e-04 9.560122e-04 5.078149e-04 6.043174e-04 2.844141e-04 2.580122e-05 -1.960831e-04 -9.305250e-04 -1.125312e-03 -2.536293e-03 -3.030246e-03 -6.270178e-03 -6.949040e-03 -1.075166e-02 -1.040910e-02 -8.283634e-03 -1.546234e-02 -1.482698e-02 -1.630463e-02 -1.699518e-02 -1.320867e-02 -1.902215e-02 -1.598500e-02 -1.691969e-02 -1.755885e-02 -1.198031e-02 -1.690287e-02 -1.552415e-02 -1.066869e-02 -7.202844e-03 -4.944202e-03 -3.041369e-03 -2.131130e-03 -1.043528e-03 -5.992077e-04 -1.048429e-04 3.348026e-04 2.929371e-04 9.695456e-04 3.981914e-04 1.429702e-03 3.682486e-04 1.771180e-03 2.950301e-04 1.991415e-03 2.422645e-04 2.095452e-03 2.701826e-04 2.079551e-03 4.005128e-04 1.935866e-03 6.397506e-04 1.674971e-03 9.791480e-04 1.324034e-03 1.392290e-03 9.162525e-04 1.824150e-03 4.966042e-04 2.227348e-03 1.390578e-04 2.543524e-03 -1.053862e-04 2.697916e-03 -1.756223e-04 2.644853e-03 -2.158209e-05 2.323423e-03 3.696209e-04 1.694184e-03 1.012584e-03 7.366931e-04 1.883147e-03 -5.758064e-04 2.911513e-03 -2.191678e-03 3.914379e-03 -3.466947e-03 3.436345e-03 8.337467e-03 3.252155e-03 4.087088e-03 1.535105e-03 
3.008759e-04 2.452960e-03 1.194262e-03 6.768738e-03 3.682946e-03 1.399078e-02 -1.127101e-03 -7.588083e-04 3.225236e-03 -2.216271e-03 4.712531e-03 -2.364321e-03 6.787830e-03 -1.155589e-03 5.611580e-03 -2.910444e-04 4.697515e-03 4.371380e-04 3.792578e-03 1.653165e-03 2.592022e-03 3.585675e-03 8.594521e-04 2.522898e-03 1.487480e-04 2.070104e-03 -2.475425e-04 1.823852e-03 -4.368691e-04 1.671389e-03 -4.878753e-04 1.539399e-03 -4.534050e-04 1.396168e-03 -3.648247e-04 1.234532e-03 -2.522890e-04 1.049723e-03 -1.412161e-04 8.472693e-04 -4.849782e-05 6.250159e-04 1.104744e-06 3.715297e-04 -1.428895e-05 6.916895e-05 -1.331788e-04 -3.306688e-04 -4.351342e-04 -9.262328e-04 -1.071999e-03 -1.912026e-03 -2.346010e-03 -3.683919e-03 -4.945932e-03 -7.253343e-03 -9.995419e-03 -8.952898e-03 -6.784281e-03 -8.980579e-03 -5.443893e-03 -7.683998e-03 -2.651089e-03 -4.306650e-03 -5.816977e-03 -3.368682e-03 -6.461226e-03 -2.168889e-03 -4.307775e-03 -6.758203e-03 -3.487004e-03 -8.680021e-03 -7.659895e-03 -5.547276e-03 -3.911583e-03 -2.684417e-03 -1.959734e-03 -1.295316e-03 -9.636869e-04 -5.261178e-04 -4.442571e-04 -5.679046e-05 -1.748957e-04 2.505529e-04 -4.603082e-05 4.616234e-04 4.193652e-06 6.151471e-04 8.188518e-06 7.271792e-04 -1.324373e-05 8.124892e-04 -3.789834e-05 8.768073e-04 -5.310662e-05 9.172561e-04 -4.772205e-05 9.305655e-04 -1.319376e-05 9.131336e-04 5.504317e-05 8.587979e-04 1.535584e-04 7.622687e-04 2.836688e-04 6.273707e-04 4.433382e-04 4.521036e-04 6.226011e-04 2.422529e-04 8.167182e-04 5.345749e-06 1.006750e-03 -2.562409e-04 1.167350e-03 -5.284701e-04 1.261700e-03 -7.895596e-04 1.227156e-03 -9.687203e-04 9.801836e-04 -7.718356e-04 1.063089e-04 5.618639e-03 3.468768e-03 2.282471e-03 8.375307e-04 1.228004e-03 
-4.539328e-03 -1.281058e-03 -4.422536e-03 7.359684e-04 -4.046038e-03 1.081581e-02 -3.914199e-03 1.598745e-04 -2.030979e-03 -1.533865e-03 -2.664628e-03 -1.946609e-03 -6.357849e-03 -4.235724e-03 -5.669115e-03 -4.831794e-03 -5.266148e-03 -5.243676e-03 -4.801517e-03 -5.922881e-03 -4.019439e-03 -7.063230e-03 -1.629611e-03 -4.089816e-03 -1.163074e-03 -2.716675e-03 -9.850776e-04 -1.869054e-03 -9.995159e-04 -1.310806e-03 -1.119752e-03 -9.025713e-04 -1.265848e-03 -5.904311e-04 -1.400465e-03 -3.625508e-04 -1.484422e-03 -1.951738e-04 -1.488446e-03 -8.429943e-05 -1.402958e-03 -3.271728e-06 -1.194340e-03 9.409897e-05 -8.418757e-04 2.571312e-04 -2.988470e-04 5.966467e-04 5.534245e-04 1.306441e-03 1.952691e-03 2.736364e-03 4.376810e-03 5.551613e-03 8.889418e-03 1.146690e-02 1.773361e-02 1.611045e-02 1.525763e-02 1.685054e-02 1.400525e-02 1.675777e-02 1.232039e-02 1.356944e-02 1.630347e-02 1.273181e-02 1.738736e-02 1.180035e-02 1.426934e-02 1.779966e-02 1.236617e-02 1.967779e-02 1.933490e-02 1.325293e-02 9.277447e-03 6.633345e-03 4.271152e-03 3.375214e-03 1.801338e-03 1.596874e-03 5.563885e-04 5.257929e-04 -5.844459e-05 -1.849557e-04 -3.268511e-04 -6.872902e-04 -4.240576e-04 -1.051866e-03 -4.511139e-04 -1.284919e-03 -4.758024e-04 -1.396882e-03 -5.584179e-04 -1.388948e-03 -7.193502e-04 -1.258435e-03 -9.631904e-04 -1.020549e-03 -1.280441e-03 -7.064369e-04 -1.645932e-03 -3.523524e-04 -2.007907e-03 -4.816362e-06 -2.322123e-03 2.633018e-04 -2.533009e-03 4.040192e-04 -2.567958e-03 3.619215e-04 -2.380409e-03 9.446700e-05 -1.905567e-03 -4.021117e-04 -1.095822e-03 -1.130447e-03 7.893554e-05 -2.054146e-03 1.636962e-03 -3.098438e-03 3.420546e-03 -4.085331e-03 4.193595e-03 -6.878983e-04 -8.471911e-03 -3.307288e-03 -5.648000e-03 -2.377209e-03 
-7.323365e-03 -6.891587e-03 -8.110731e-03 -9.104392e-03 -1.007680e-02 -9.273472e-03 -5.320206e-03 -3.765556e-03 -6.352704e-03 -3.518544e-03 -6.013350e-03 -3.345920e-03 -6.515005e-03 -5.840633e-03 -6.386966e-03 -5.991826e-03 -6.207616e-03 -6.183148e-03 -6.002569e-03 -6.375083e-03 -5.825989e-03 -6.460771e-03 -4.666181e-03 -6.884868e-03 -4.903859e-03 -6.960109e-03 -4.917886e-03 -6.844415e-03 -4.988088e-03 -6.680493e-03 -5.130155e-03 -6.485883e-03 -5.306630e-03 -6.275948e-03 -5.491873e-03 -6.072049e-03 -5.651931e-03 -5.876631e-03 -5.758558e-03 -5.701322e-03 -5.799129e-03 -5.537618e-03 -5.745742e-03 -5.360115e-03 -5.582697e-03 -5.139719e-03 -5.277554e-03 -4.803081e-03 -4.749296e-03 -4.219253e-03 -3.840302e-03 -3.151728e-03 -2.234835e-03 -1.140732e-03 7.929402e-04 2.891703e-03 6.015160e-03 5.090163e-03 2.706038e-03 3.877991e-03 3.784198e-03 2.477990e-03 1.706599e-03 1.917585e-03 1.198955e-03 3.315794e-04 2.124453e-04 -4.050203e-04 2.727513e-04 -1.959649e-04 -1.790552e-03 -1.288830e-03 -2.501318e-03 -2.868965e-03 -3.574191e-03 -3.642751e-03 -4.243239e-03 -4.245436e-03 -4.733455e-03 -4.770054e-03 -5.047293e-03 -5.234912e-03 -5.221487e-03 -5.641137e-03 -5.285385e-03 -5.984113e-03 -5.284989e-03 -6.264332e-03 -5.256761e-03 -6.464761e-03 -5.234311e-03 -6.584104e-03 -5.257716e-03 -6.618268e-03 -5.344020e-03 -6.560318e-03 -5.501460e-03 -6.415601e-03 -5.728273e-03 -6.200290e-03 -6.010349e-03 -5.934015e-03 -6.313152e-03 -5.644252e-03 -6.607545e-03 -5.378938e-03 -6.855631e-03 -5.170122e-03 -7.006002e-03 -5.058020e-03 -7.025594e-03 -5.075972e-03 -6.867714e-03 -5.232760e-03 -6.499973e-03 -5.543188e-03 -5.909961e-03 -6.006665e-03 -5.101708e-03 -6.617429e-03 -4.146598e-03 -7.324986e-03 -3.163628e-03 -9.838766e-03 -1.148312e-02 -7.928911e-03 -8.143303e-03 -6.601585e-03 
-8.166313e-03 -7.702864e-03 -8.751975e-03 -9.324687e-03 -1.041148e-02 -1.254600e-02 -8.358558e-03 -6.825736e-03 -9.075856e-03 -6.311861e-03 -8.608842e-03 -6.267825e-03 -7.095173e-03 -6.393766e-03 -6.973867e-03 -6.558771e-03 -6.771477e-03 -6.777652e-03 -6.539321e-03 -6.997453e-03 -6.345606e-03 -7.082080e-03 -6.997040e-03 -8.518321e-03 -7.298043e-03 -8.944719e-03 -7.388368e-03 -9.006497e-03 -7.455784e-03 -8.914542e-03 -7.544487e-03 -8.754128e-03 -7.654972e-03 -8.565512e-03 -7.774221e-03 -8.371496e-03 -7.883545e-03 -8.183896e-03 -7.965622e-03 -8.010551e-03 -8.008773e-03 -7.853313e-03 -8.005329e-03 -7.711326e-03 -7.959050e-03 -7.589166e-03 -7.889756e-03 -7.506290e-03 -7.851479e-03 -7.530361e-03 -7.986109e-03 -7.854489e-03 -8.647775e-03 -8.988227e-03 -1.078379e-02 -1.244436e-02 -1.629226e-02 -1.439218e-02 -1.235022e-02 -1.354611e-02 -1.170025e-02 -1.263170e-02 -9.689244e-03 -1.028876e-02 -1.238914e-02 -9.971873e-03 -1.313369e-02 -9.183156e-03 -1.149103e-02 -1.343117e-02 -1.061822e-02 -1.495428e-02 -1.586451e-02 -1.163750e-02 -1.044506e-02 -8.584593e-03 -8.445099e-03 -7.648968e-03 -7.809943e-03 -7.480489e-03 -7.650044e-03 -7.603937e-03 -7.640346e-03 -7.821573e-03 -7.660098e-03 -8.048582e-03 -7.674952e-03 -8.247812e-03 -7.684168e-03 -8.399585e-03 -7.700053e-03 -8.495222e-03 -7.739449e-03 -8.530413e-03 -7.814271e-03 -8.503919e-03 -7.930432e-03 -8.420156e-03 -8.086472e-03 -8.289416e-03 -8.272794e-03 -8.126807e-03 -8.471639e-03 -7.952583e-03 -8.662478e-03 -7.792543e-03 -8.821963e-03 -7.671491e-03 -8.925842e-03 -7.614171e-03 -8.956857e-03 -7.641032e-03 -8.905710e-03 -7.764288e-03 -8.782192e-03 -7.989975e-03 -8.626530e-03 -8.308329e-03 -8.515503e-03 -8.668066e-03 -8.532366e-03 -8.891431e-03 -8.466052e-03 -1.053142e-02 -9.279467e-03 -8.304445e-03 -8.325281e-03 -7.475877e-03 
-8.521788e-03 -8.573122e-03 -8.720222e-03 -9.064417e-03 -9.047160e-03 -9.540999e-03 -8.735678e-03 -8.450884e-03 -8.602483e-03 -8.382236e-03 -8.370114e-03 -8.784602e-03 -6.648876e-03 -6.296959e-03 -6.538349e-03 -6.329005e-03 -6.431414e-03 -6.410132e-03 -6.342993e-03 -6.511633e-03 -6.303633e-03 -6.610975e-03 -7.486081e-03 -7.445463e-03 -7.139927e-03 -7.952149e-03 -7.157580e-03 -8.311634e-03 -7.266726e-03 -8.481943e-03 -7.403387e-03 -8.514605e-03 -7.550901e-03 -8.462836e-03 -7.699218e-03 -8.368207e-03 -7.836559e-03 -8.258947e-03 -7.951386e-03 -8.154150e-03 -8.035673e-03 -8.064899e-03 -8.085613e-03 -7.997776e-03 -8.106264e-03 -7.961078e-03 -8.115652e-03 -7.972928e-03 -8.156680e-03 -8.083818e-03 -8.330145e-03 -8.427138e-03 -8.871154e-03 -9.339961e-03 -1.038275e-02 -1.177956e-02 -1.391959e-02 -1.363574e-02 -1.213739e-02 -1.304959e-02 -1.266601e-02 -1.281282e-02 -1.273555e-02 -1.298001e-02 -1.270713e-02 -1.161555e-02 -1.254425e-02 -1.199563e-02 -1.288155e-02 -1.238725e-02 -1.106564e-02 -1.163791e-02 -1.148782e-02 -1.001710e-02 -9.667432e-03 -8.937415e-03 -8.861677e-03 -8.493079e-03 -8.447522e-03 -8.331394e-03 -8.207860e-03 -8.321991e-03 -8.049209e-03 -8.390627e-03 -7.929647e-03 -8.490579e-03 -7.835670e-03 -8.590474e-03 -7.767871e-03 -8.667281e-03 -7.733634e-03 -8.705643e-03 -7.742376e-03 -8.695808e-03 -7.799975e-03 -8.633555e-03 -7.907206e-03 -8.521674e-03 -8.058489e-03 -8.369994e-03 -8.241228e-03 -8.194530e-03 -8.436281e-03 -8.017180e-03 -8.621418e-03 -7.864879e-03 -8.772842e-03 -7.765204e-03 -8.868118e-03 -7.745224e-03 -8.892232e-03 -7.828076e-03 -8.840868e-03 -8.029008e-03 -8.727275e-03 -8.351842e-03 -8.585923e-03 -8.775505e-03 -8.469598e-03 -9.230815e-03 -8.444942e-03 -9.575462e-03 -8.558718e-03 -9.569206e-03 -8.870296e-03 -8.821224e-03 -8.603183e-03 -8.458200e-03 
-8.677456e-03 -8.589757e-03 -8.956075e-03 -9.199745e-03 -9.304507e-03 -9.736271e-03 -9.106433e-03 -8.773864e-03 -9.143256e-03 -8.667481e-03 -8.957093e-03 -9.130207e-03 -7.070738e-03 -6.658089e-03 -6.961700e-03 -6.721040e-03 -6.827472e-03 -6.842142e-03 -6.698441e-03 -6.972612e-03 -6.626132e-03 -7.069322e-03 -7.608739e-03 -7.634663e-03 -7.203883e-03 -8.127013e-03 -7.286655e-03 -8.501830e-03 -7.448801e-03 -8.668164e-03 -7.607525e-03 -8.683915e-03 -7.756361e-03 -8.614081e-03 -7.898464e-03 -8.507504e-03 -8.033567e-03 -8.396926e-03 -8.158916e-03 -8.303954e-03 -8.273271e-03 -8.244025e-03 -8.380680e-03 -8.230776e-03 -8.494020e-03 -8.281097e-03 -8.639323e-03 -8.421456e-03 -8.860838e-03 -8.694661e-03 -9.225031e-03 -9.163158e-03 -9.813915e-03 -9.892400e-03 -1.068483e-02 -1.091155e-02 -1.177796e-02 -1.179483e-02 -1.176353e-02 -1.192516e-02 -1.160964e-02 -1.145204e-02 -1.103862e-02 -1.077436e-02 -1.124505e-02 -1.048073e-02 -1.114702e-02 -1.018786e-02 -1.085582e-02 -1.075220e-02 -1.085783e-02 -1.096574e-02 -1.110197e-02 -1.026252e-02 -1.027745e-02 -9.490569e-03 -9.545911e-03 -8.961123e-03 -9.018860e-03 -8.662437e-03 -8.662531e-03 -8.529736e-03 -8.419759e-03 -8.499532e-03 -8.248596e-03 -8.523257e-03 -8.125982e-03 -8.566155e-03 -8.042917e-03 -8.603836e-03 -7.998471e-03 -8.619373e-03 -7.994729e-03 -8.601904e-03 -8.033325e-03 -8.546471e-03 -8.113164e-03 -8.454123e-03 -8.228910e-03 -8.331733e-03 -8.370406e-03 -8.191581e-03 -8.523332e-03 -8.050640e-03 -8.670825e-03 -7.929245e-03 -8.795814e-03 -7.849207e-03 -8.884024e-03 -7.831454e-03 -8.927760e-03 -7.893656e-03 -8.930157e-03 -8.047091e-03 -8.907569e-03 -8.290508e-03 -8.886044e-03 -8.598686e-03 -8.885989e-03 -8.908472e-03 -8.896839e-03 -9.135697e-03 -8.873781e-03 -9.252084e-03 -8.840824e-03 -8.701094e-03 -8.658049e-03 -8.403029e-03 
-8.521392e-03 -8.572293e-03 -8.720201e-03 -9.063731e-03 -9.047406e-03 -9.540251e-03 -8.735985e-03 -8.450538e-03 -8.602465e-03 -8.381706e-03 -8.369636e-03 -8.783983e-03 -6.648444e-03 -6.296792e-03 -6.538023e-03 -6.328916e-03 -6.431177e-03 -6.410080e-03 -6.342898e-03 -6.511708e-03 -6.303877e-03 -6.611516e-03 -7.488715e-03 -7.449930e-03 -7.146517e-03 -7.960808e-03 -7.168882e-03 -8.324814e-03 -7.284027e-03 -8.501314e-03 -7.430149e-03 -8.544473e-03 -7.592839e-03 -8.508555e-03 -7.762183e-03 -8.435874e-03 -7.928749e-03 -8.358217e-03 -8.084123e-03 -8.297714e-03 -8.223780e-03 -8.271761e-03 -8.350858e-03 -8.294330e-03 -8.475282e-03 -8.378399e-03 -8.617908e-03 -8.542878e-03 -8.813770e-03 -8.816419e-03 -9.112871e-03 -9.239510e-03 -9.574582e-03 -9.851459e-03 -1.023280e-02 -1.063090e-02 -1.097659e-02 -1.127872e-02 -1.122873e-02 -1.153514e-02 -1.144201e-02 -1.155921e-02 -1.148358e-02 -1.144815e-02 -1.143500e-02 -1.115469e-02 -1.126840e-02 -1.090774e-02 -1.104459e-02 -1.066713e-02 -1.063688e-02 -1.027740e-02 -1.030644e-02 -9.789526e-03 -9.826848e-03 -9.374526e-03 -9.398346e-03 -9.083953e-03 -9.038705e-03 -8.905642e-03 -8.736649e-03 -8.814634e-03 -8.479733e-03 -8.785354e-03 -8.262746e-03 -8.793267e-03 -8.085483e-03 -8.815099e-03 -7.952889e-03 -8.831391e-03 -7.871586e-03 -8.824350e-03 -7.845633e-03 -8.780327e-03 -7.877030e-03 -8.692735e-03 -7.964008e-03 -8.562401e-03 -8.099198e-03 -8.397142e-03 -8.268666e-03 -8.211848e-03 -8.453531e-03 -8.027743e-03 -8.630584e-03 -7.870020e-03 -8.775986e-03 -7.767252e-03 -8.868361e-03 -7.745665e-03 -8.890675e-03 -7.827130e-03 -8.838789e-03 -8.027860e-03 -8.725692e-03 -8.350583e-03 -8.584535e-03 -8.773972e-03 -8.468357e-03 -9.229294e-03 -8.444076e-03 -9.574228e-03 -8.558062e-03 -9.568057e-03 -8.869612e-03 -8.819983e-03 -8.602504e-03 -8.457129e-03 
-8.165948e-03 -7.702212e-03 -8.752222e-03 -9.324066e-03 -1.041187e-02 -1.254433e-02 -8.358986e-03 -6.825836e-03 -9.074744e-03 -6.311090e-03 -8.606935e-03 -6.266814e-03 -7.094340e-03 -6.393959e-03 -6.973446e-03 -6.558655e-03 -6.770590e-03 -6.777075e-03 -6.538607e-03 -6.996800e-03 -6.345730e-03 -7.082798e-03 -7.003993e-03 -8.531467e-03 -7.316361e-03 -8.970464e-03 -7.420218e-03 -9.045585e-03 -7.504653e-03 -8.970887e-03 -7.618449e-03 -8.837618e-03 -7.767216e-03 -8.689042e-03 -7.938846e-03 -8.550255e-03 -8.120543e-03 -8.441037e-03 -8.301894e-03 -8.374892e-03 -8.477343e-03 -8.364830e-03 -8.650478e-03 -8.420811e-03 -8.827796e-03 -8.548068e-03 -9.021799e-03 -8.752555e-03 -9.249715e-03 -9.037595e-03 -9.526965e-03 -9.400250e-03 -9.858239e-03 -9.820288e-03 -1.021920e-02 -1.024057e-02 -1.053196e-02 -1.054138e-02 -1.066399e-02 -1.062604e-02 -1.069783e-02 -1.048579e-02 -1.055813e-02 -1.028548e-02 -1.047909e-02 -1.012307e-02 -1.037312e-02 -9.929851e-03 -1.030333e-02 -9.850698e-03 -1.028154e-02 -9.758401e-03 -1.018047e-02 -9.606130e-03 -9.986177e-03 -9.406776e-03 -9.709756e-03 -9.205202e-03 -9.399479e-03 -9.039470e-03 -9.089670e-03 -8.923289e-03 -8.799486e-03 -8.855753e-03 -8.542542e-03 -8.825966e-03 -8.326440e-03 -8.816587e-03 -8.159419e-03 -8.811526e-03 -8.048765e-03 -8.792146e-03 -7.996519e-03 -8.742343e-03 -8.003744e-03 -8.653412e-03 -8.068760e-03 -8.524020e-03 -8.184905e-03 -8.359363e-03 -8.338900e-03 -8.171798e-03 -8.513337e-03 -7.980255e-03 -8.685386e-03 -7.806788e-03 -8.831294e-03 -7.678269e-03 -8.928927e-03 -7.617298e-03 -8.956362e-03 -7.641311e-03 -8.904458e-03 -7.764380e-03 -8.782196e-03 -7.989924e-03 -8.626874e-03 -8.307635e-03 -8.515840e-03 -8.667046e-03 -8.532923e-03 -8.890340e-03 -8.466067e-03 -1.053056e-02 -9.279002e-03 -8.303158e-03 -8.324460e-03 -7.474831e-03 
-7.323702e-03 -6.890656e-03 -8.111589e-03 -9.103064e-03 -1.007833e-02 -9.271107e-03 -5.322856e-03 -3.766254e-03 -6.353876e-03 -3.516530e-03 -6.010485e-03 -3.342136e-03 -6.513544e-03 -5.840260e-03 -6.385946e-03 -5.991600e-03 -6.206635e-03 -6.182514e-03 -6.001468e-03 -6.373966e-03 -5.826356e-03 -6.461507e-03 -4.669429e-03 -6.893070e-03 -4.919930e-03 -6.980844e-03 -4.945457e-03 -6.872890e-03 -5.023868e-03 -6.716580e-03 -5.183784e-03 -6.548712e-03 -5.403223e-03 -6.382481e-03 -5.639703e-03 -6.228901e-03 -5.872148e-03 -6.114910e-03 -6.083953e-03 -6.047210e-03 -6.262380e-03 -6.047128e-03 -6.425266e-03 -6.129509e-03 -6.575066e-03 -6.287283e-03 -6.725734e-03 -6.526234e-03 -6.902262e-03 -6.844045e-03 -7.125172e-03 -7.237075e-03 -7.413850e-03 -7.693717e-03 -7.769011e-03 -8.176266e-03 -8.142584e-03 -8.586855e-03 -8.448520e-03 -8.855199e-03 -8.727596e-03 -8.968173e-03 -8.851201e-03 -8.957405e-03 -8.898750e-03 -8.854788e-03 -8.865284e-03 -8.616652e-03 -8.760188e-03 -8.311416e-03 -8.576792e-03 -7.973201e-03 -8.282616e-03 -7.653558e-03 -7.976066e-03 -7.363741e-03 -7.626218e-03 -7.121129e-03 -7.258850e-03 -6.952344e-03 -6.893017e-03 -6.850844e-03 -6.537096e-03 -6.812155e-03 -6.217088e-03 -6.821454e-03 -5.938115e-03 -6.846452e-03 -5.719315e-03 -6.875775e-03 -5.581647e-03 -6.877362e-03 -5.521253e-03 -6.821557e-03 -5.543139e-03 -6.698358e-03 -5.650247e-03 -6.509044e-03 -5.836834e-03 -6.260069e-03 -6.080187e-03 -5.969305e-03 -6.357776e-03 -5.668185e-03 -6.628791e-03 -5.383936e-03 -6.854605e-03 -5.169959e-03 -7.003858e-03 -5.058552e-03 -7.016665e-03 -5.068894e-03 -6.857881e-03 -5.230191e-03 -6.497204e-03 -5.542548e-03 -5.907796e-03 -6.005018e-03 -5.100318e-03 -6.617484e-03 -4.149349e-03 -7.330045e-03 -3.167266e-03 -9.841143e-03 -1.148678e-02 -7.929259e-03 -8.144041e-03 -6.600859e-03 
-4.540476e-03 -1.282502e-03 -4.424953e-03 7.332170e-04 -4.051488e-03 1.080894e-02 -3.924099e-03 1.526167e-04 -2.044493e-03 -1.539283e-03 -2.672811e-03 -1.948301e-03 -6.364052e-03 -4.235935e-03 -5.669566e-03 -4.829291e-03 -5.260522e-03 -5.238613e-03 -4.797116e-03 -5.916143e-03 -4.019261e-03 -7.042380e-03 -1.633399e-03 -4.078053e-03 -1.183058e-03 -2.723685e-03 -1.018653e-03 -1.892305e-03 -1.041200e-03 -1.353182e-03 -1.180694e-03 -9.902990e-04 -1.376782e-03 -7.428414e-04 -1.567090e-03 -5.812521e-04 -1.726928e-03 -5.124283e-04 -1.840686e-03 -5.234469e-04 -1.898732e-03 -6.262769e-04 -1.932297e-03 -8.276072e-04 -1.949518e-03 -1.106341e-03 -1.970572e-03 -1.459185e-03 -2.026077e-03 -1.871408e-03 -2.136855e-03 -2.328211e-03 -2.322751e-03 -2.812598e-03 -2.588715e-03 -3.295813e-03 -2.902904e-03 -3.712838e-03 -3.181160e-03 -3.985826e-03 -3.373927e-03 -4.130298e-03 -3.668091e-03 -4.053091e-03 -3.875972e-03 -3.852266e-03 -4.044690e-03 -3.745862e-03 -4.045276e-03 -3.568595e-03 -3.895279e-03 -3.298486e-03 -3.738478e-03 -2.880124e-03 -3.379191e-03 -2.448213e-03 -2.957879e-03 -2.101303e-03 -2.537545e-03 -1.875845e-03 -2.136818e-03 -1.749843e-03 -1.755497e-03 -1.705034e-03 -1.421181e-03 -1.713014e-03 -1.137249e-03 -1.726040e-03 -9.287456e-04 -1.729398e-03 -8.241867e-04 -1.684585e-03 -8.179272e-04 -1.559516e-03 -9.147572e-04 -1.349998e-03 -1.114268e-03 -1.066840e-03 -1.402173e-03 -7.268323e-04 -1.739621e-03 -3.608967e-04 -2.087496e-03 -1.710719e-05 -2.382594e-03 2.634776e-04 -2.566783e-03 4.051861e-04 -2.595089e-03 3.620146e-04 -2.387109e-03 1.081284e-04 -1.897882e-03 -3.908793e-04 -1.086340e-03 -1.119870e-03 9.466622e-05 -2.042974e-03 1.653774e-03 -3.092995e-03 3.429707e-03 -4.092073e-03 4.195798e-03 -6.910270e-04 -8.474585e-03 -3.309709e-03 -5.649110e-03 -2.378476e-03 
3.022376e-04 2.452732e-03 1.192864e-03 6.765916e-03 3.677708e-03 1.398295e-02 -1.136691e-03 -7.618330e-04 3.208887e-03 -2.220085e-03 4.692385e-03 -2.364961e-03 6.769271e-03 -1.146817e-03 5.593073e-03 -2.716100e-04 4.679567e-03 4.666362e-04 3.773194e-03 1.687084e-03 2.575832e-03 3.622469e-03 8.539290e-04 2.563673e-03 1.569129e-04 2.114224e-03 -2.268092e-04 1.865463e-03 -4.046557e-04 1.707523e-03 -4.381946e-04 1.578685e-03 -3.713644e-04 1.449889e-03 -2.414641e-04 1.312743e-03 -6.933876e-05 1.177410e-03 1.275606e-04 1.049298e-03 3.329523e-04 9.430196e-04 5.443572e-04 8.703347e-04 7.508540e-04 8.314805e-04 9.463311e-04 8.310152e-04 1.128808e-03 8.661654e-04 1.292263e-03 9.287824e-04 1.428086e-03 1.001570e-03 1.518480e-03 1.051855e-03 1.529310e-03 1.025394e-03 1.452874e-03 9.253152e-04 1.402439e-03 7.808417e-04 1.201820e-03 6.910591e-04 1.058698e-03 6.980213e-04 9.815029e-04 6.466923e-04 9.925360e-04 6.341779e-04 1.068611e-03 6.883785e-04 1.062138e-03 8.011971e-04 1.110225e-03 8.863580e-04 1.087143e-03 9.116139e-04 9.977525e-04 9.050736e-04 8.692740e-04 8.879796e-04 7.223187e-04 8.798191e-04 5.783705e-04 8.902221e-04 4.418350e-04 9.155408e-04 3.199434e-04 9.578861e-04 2.196772e-04 1.004880e-03 1.370372e-04 1.041217e-03 7.509765e-05 1.057520e-03 3.973638e-05 1.046929e-03 3.705703e-05 1.002629e-03 6.922476e-05 9.211365e-04 1.419275e-04 8.036579e-04 2.535893e-04 6.479123e-04 4.030429e-04 4.641048e-04 5.897119e-04 2.535426e-04 7.934569e-04 1.488762e-05 9.974321e-04 -2.419447e-04 1.173981e-03 -5.121161e-04 1.276930e-03 -7.749527e-04 1.246114e-03 -9.569992e-04 9.999591e-04 -7.630089e-04 1.215263e-04 5.625385e-03 3.478554e-03 2.285976e-03 8.419707e-04 1.229484e-03 
2.770817e-03 1.255992e-03 3.358778e-03 2.155045e-03 5.037135e-03 -1.966908e-03 2.922110e-03 -3.681807e-04 2.795999e-03 1.080019e-04 2.980557e-03 1.604781e-04 4.355382e-03 2.406191e-03 4.783346e-03 2.849893e-03 4.769171e-03 3.763006e-03 3.716477e-03 4.863245e-03 2.096828e-03 4.668549e-03 -8.556408e-05 3.492846e-03 -1.791545e-04 3.062896e-03 -1.388804e-04 2.684313e-03 1.090594e-05 2.322035e-03 2.488475e-04 1.976795e-03 5.415878e-04 1.656304e-03 8.353955e-04 1.371601e-03 1.104046e-03 1.154735e-03 1.324524e-03 1.007481e-03 1.477425e-03 9.510836e-04 1.585581e-03 9.977039e-04 1.650777e-03 1.130029e-03 1.692998e-03 1.351862e-03 1.752614e-03 1.662933e-03 1.874634e-03 2.076741e-03 2.123259e-03 2.624324e-03 2.569825e-03 3.347142e-03 3.263836e-03 4.257489e-03 4.073945e-03 5.155305e-03 4.591440e-03 5.994757e-03 5.655285e-03 6.307905e-03 6.306014e-03 6.110188e-03 6.677146e-03 6.213383e-03 6.487155e-03 5.994061e-03 5.815902e-03 5.366135e-03 5.338968e-03 4.271547e-03 4.279999e-03 3.214011e-03 3.308922e-03 2.486450e-03 2.548911e-03 2.088345e-03 1.961759e-03 1.924983e-03 1.483358e-03 1.920044e-03 1.097545e-03 2.006659e-03 7.821361e-04 2.112420e-03 5.507118e-04 2.207515e-03 4.288296e-04 2.242219e-03 4.115329e-04 2.176044e-03 5.068594e-04 1.999316e-03 7.183821e-04 1.720050e-03 1.035495e-03 1.354686e-03 1.421857e-03 9.362360e-04 1.840119e-03 5.169939e-04 2.227119e-03 1.430286e-04 2.523821e-03 -1.035469e-04 2.684110e-03 -1.709993e-04 2.625870e-03 -2.755647e-05 2.305741e-03 3.694199e-04 1.688218e-03 1.014705e-03 7.334177e-04 1.883998e-03 -5.761138e-04 2.915326e-03 -2.184648e-03 3.926352e-03 -3.456829e-03 3.443890e-03 8.347907e-03 3.256982e-03 4.092282e-03 1.537332e-03 
1.925493e-03 -8.335773e-04 2.019325e-03 -2.444092e-03 1.826030e-03 -9.017478e-03 1.571178e-03 -8.670054e-04 -1.878783e-03 2.738222e-04 -3.939439e-03 6.487406e-04 -7.234951e-03 -5.553586e-04 -6.296458e-03 -1.243405e-03 -5.668768e-03 -1.705812e-03 -5.055403e-03 -2.630362e-03 -4.070835e-03 -4.376534e-03 -2.319878e-03 -2.052064e-03 -1.714512e-03 -1.009053e-03 -1.283018e-03 -5.107310e-04 -9.123308e-04 -3.411889e-04 -5.751598e-04 -3.486531e-04 -2.649179e-04 -4.362809e-04 3.644957e-06 -5.418365e-04 2.199722e-04 -6.180821e-04 3.747780e-04 -6.431112e-04 4.644703e-04 -5.966718e-04 5.072444e-04 -4.669299e-04 5.212772e-04 -2.536974e-04 5.410783e-04 5.485610e-05 6.201421e-04 4.774535e-04 8.248869e-04 1.046161e-03 1.228664e-03 1.786770e-03 1.854303e-03 2.645943e-03 2.605187e-03 3.530861e-03 3.152768e-03 4.089424e-03 2.941609e-03 4.733382e-03 4.217518e-03 4.795133e-03 4.699417e-03 4.000570e-03 5.296759e-03 4.702900e-03 5.324364e-03 4.817588e-03 4.472565e-03 4.598236e-03 4.665058e-03 3.469984e-03 3.501510e-03 2.274974e-03 2.458125e-03 1.436082e-03 1.636119e-03 9.425587e-04 1.010996e-03 7.098840e-04 5.239629e-04 6.509227e-04 1.425600e-04 6.886527e-04 -1.528698e-04 7.532252e-04 -3.572845e-04 7.997376e-04 -4.554690e-04 7.851829e-04 -4.435549e-04 6.793946e-04 -3.172010e-04 4.741576e-04 -8.046935e-05 1.787925e-04 2.484450e-04 -1.840250e-04 6.321294e-04 -5.761618e-04 1.024326e-03 -9.441987e-04 1.363989e-03 -1.231073e-03 1.590254e-03 -1.364740e-03 1.650244e-03 -1.287384e-03 1.487594e-03 -9.562805e-04 1.078744e-03 -3.370492e-04 4.331323e-04 5.683288e-04 -3.968280e-04 1.716700e-03 -1.287812e-03 2.965449e-03 -2.016909e-03 3.827412e-03 -2.007805e-03 -5.680919e-05 3.264395e-03 6.216925e-04 2.289249e-03 -1.411499e-05 
