# vtk DataFile Version 2.0
Comment goes here
ASCII

DATASET STRUCTURED_POINTS
FIELD FieldData 1
TIME 1 1 double
0.46000000
DIMENSIONS    128   16   1

ORIGIN    0.000   0.000   0.000
SPACING   0.0078125 0.015625   1.000

POINT_DATA   2048
SCALARS uX double
LOOKUP_TABLE default

-6.464749e-03 -1.943764e-03 -5.828036e-03 1.101332e-03 -4.669170e-03 6.094229e-03 -8.281416e-03 1.499436e-03 -3.615647e-03 2.723490e-03 1.900883e-03 7.867552e-03 1.317109e-02 2.341542e-02 2.991455e-02 2.995422e-02 3.515570e-02 3.206705e-02 3.329646e-02 2.828456e-02 2.539283e-02 1.142915e-02 9.187511e-03 1.848948e-03 3.091148e-03 -1.720688e-03 4.859859e-04 -3.071512e-03 -7.028454e-04 -3.451114e-03 -1.297501e-03 -3.409821e-03 -1.658786e-03 -3.208730e-03 -1.935517e-03 -2.962520e-03 -2.163463e-03 -2.711869e-03 -2.334776e-03 -2.477584e-03 -2.446689e-03 -2.290330e-03 -2.516181e-03 -2.180768e-03 -2.553863e-03 -2.147246e-03 -2.549397e-03 -2.166708e-03 -2.504042e-03 -2.234695e-03 -2.458347e-03 -2.376712e-03 -2.494066e-03 -2.671455e-03 -2.837962e-03 -3.554608e-03 -4.230793e-03 -4.083547e-03 -3.035337e-03 -6.551390e-03 -5.970263e-03 -5.562195e-03 -3.047640e-03 -3.312715e-03 -6.182623e-03 -6.769485e-03 -5.928447e-03 -3.543913e-03 -3.834865e-03 -6.600812e-03 -7.111437e-03 -7.440653e-03 -6.697504e-03 -5.357521e-03 -3.963297e-03 -3.312123e-03 -2.624886e-03 -2.605485e-03 -2.045662e-03 -2.415405e-03 -1.741322e-03 -2.417398e-03 -1.555313e-03 -2.478829e-03 -1.442221e-03 -2.530566e-03 -1.393690e-03 -2.534545e-03 -1.419347e-03 -2.469876e-03 -1.522175e-03 -2.318772e-03 -1.693244e-03 -2.081011e-03 -1.925794e-03 -1.781503e-03 -2.206916e-03 -1.457232e-03 -2.507384e-03 -1.149216e-03 -2.780265e-03 -8.975437e-04 -2.968019e-03 -7.461964e-04 -3.021128e-03 -7.441678e-04 -2.902753e-03 -9.307579e-04 -2.587598e-03 -1.323713e-03 -2.067201e-03 -1.910843e-03 -1.361293e-03 -2.654775e-03 -5.448897e-04 -3.491153e-03 2.371198e-04 -4.296528e-03 7.150528e-04 -4.881438e-03 2.838679e-04 -5.019163e-03 -2.889161e-03 -1.387659e-03 -4.981489e-03 -2.680855e-03 -6.221628e-03 -3.086786e-03 
-3.455079e-03 2.956091e-04 -2.499839e-03 3.261848e-03 -4.246922e-04 1.015673e-02 -6.556901e-03 1.760635e-03 -1.655139e-03 4.449872e-04 2.331145e-03 1.864003e-04 7.673855e-03 3.829893e-04 4.654545e-03 -9.605346e-04 3.812830e-03 -1.139526e-03 3.698740e-03 2.081180e-04 4.336425e-03 4.216296e-03 2.620908e-03 1.223663e-03 1.513893e-03 -1.619639e-04 9.033408e-04 -8.493872e-04 4.967973e-04 -1.108312e-03 1.850260e-04 -1.134809e-03 -9.424116e-05 -1.027806e-03 -3.398540e-04 -8.495861e-04 -5.582234e-04 -6.595310e-04 -7.401548e-04 -4.729418e-04 -8.514180e-04 -3.022891e-04 -9.070275e-04 -1.977473e-04 -9.188236e-04 -1.370854e-04 -8.471257e-04 -9.463728e-05 -7.239086e-04 -1.013836e-04 -6.019875e-04 -1.796010e-04 -6.012820e-04 -5.244311e-04 -1.153715e-03 -1.739886e-03 -2.492611e-03 -5.889567e-04 1.093228e-03 -3.001770e-03 -1.558598e-03 -1.442900e-03 3.075015e-04 7.777528e-04 -2.558863e-03 -2.410037e-03 -2.414305e-03 -3.214491e-04 -1.095626e-03 -3.811844e-03 -4.608637e-03 -4.934769e-03 -4.901528e-03 -3.723686e-03 -2.701739e-03 -1.716225e-03 -1.332651e-03 -9.369973e-04 -6.721128e-04 -6.799999e-04 -2.814812e-04 -6.240200e-04 -2.898849e-05 -6.595364e-04 1.148922e-04 -7.115268e-04 1.816858e-04 -7.117095e-04 1.789433e-04 -6.472158e-04 7.512940e-05 -5.188407e-04 -1.098037e-04 -2.947307e-04 -3.516117e-04 -5.426108e-06 -6.454145e-04 3.272928e-04 -9.351718e-04 6.650951e-04 -1.213455e-03 9.132062e-04 -1.440921e-03 1.057225e-03 -1.513498e-03 1.082440e-03 -1.394171e-03 9.160241e-04 -1.091878e-03 5.190026e-04 -5.821946e-04 -7.083434e-05 1.375924e-04 -8.431889e-04 9.721872e-04 -1.761003e-03 1.834050e-03 -2.700285e-03 2.507204e-03 -3.548274e-03 2.456184e-03 -3.934244e-03 1.193756e-05 2.618223e-03 -3.729918e-03 -4.075808e-04 -3.814535e-03 -7.730563e-04 
-8.090062e-03 -5.589731e-03 -6.390356e-03 -2.133619e-03 -3.369729e-04 1.058495e-02 4.534947e-04 7.403301e-03 -5.993883e-05 4.130541e-03 -2.416976e-03 -8.042832e-04 -9.547549e-03 -1.101465e-02 -1.552236e-02 -1.494994e-02 -1.703259e-02 -1.665709e-02 -1.540259e-02 -1.570277e-02 -1.103377e-02 -8.954433e-03 -1.045485e-03 -2.030039e-03 3.097887e-03 7.766063e-04 4.820448e-03 2.086693e-03 5.569963e-03 2.851435e-03 5.849250e-03 3.348975e-03 5.848319e-03 3.746489e-03 5.747397e-03 4.125153e-03 5.586140e-03 4.431664e-03 5.378853e-03 4.696670e-03 5.243179e-03 4.975221e-03 5.176086e-03 5.178134e-03 5.151393e-03 5.374698e-03 5.300424e-03 5.651846e-03 5.603163e-03 5.971224e-03 6.088868e-03 6.489941e-03 6.929360e-03 7.381552e-03 8.396421e-03 9.298173e-03 1.141749e-02 1.006464e-02 9.545641e-03 1.447883e-02 1.500336e-02 1.268501e-02 9.390727e-03 9.193310e-03 1.455342e-02 1.595460e-02 1.387556e-02 1.010463e-02 1.055408e-02 1.559292e-02 1.715701e-02 1.723691e-02 1.632126e-02 1.364955e-02 1.123599e-02 9.464250e-03 8.519848e-03 7.408718e-03 7.317649e-03 6.326348e-03 6.850598e-03 5.744611e-03 6.715776e-03 5.381164e-03 6.658836e-03 5.124607e-03 6.604439e-03 5.004968e-03 6.541507e-03 5.000384e-03 6.372271e-03 5.057184e-03 6.116348e-03 5.252272e-03 5.831088e-03 5.549431e-03 5.503376e-03 5.934152e-03 5.213681e-03 6.365062e-03 4.906281e-03 6.668567e-03 4.592495e-03 6.879132e-03 4.455988e-03 7.034684e-03 4.524519e-03 6.999410e-03 4.720346e-03 6.696517e-03 5.102805e-03 6.221209e-03 5.728733e-03 5.545920e-03 6.488731e-03 4.679404e-03 7.438825e-03 3.777805e-03 8.549757e-03 2.884637e-03 9.745853e-03 2.700610e-03 1.099849e-02 6.761859e-03 -5.901989e-03 -3.821995e-03 -7.971133e-03 -6.014694e-03 
-5.899701e-03 -7.068591e-03 -4.257281e-03 -6.231965e-03 8.324906e-04 -1.875588e-03 1.746391e-02 1.313462e-02 1.224819e-02 1.449995e-02 9.635421e-03 1.460752e-02 6.749978e-03 1.501936e-02 9.946162e-03 1.619590e-02 1.106507e-02 1.612714e-02 1.141723e-02 1.452108e-02 1.088832e-02 1.035765e-02 1.185241e-02 1.164218e-02 1.271535e-02 1.206631e-02 1.323896e-02 1.221025e-02 1.361648e-02 1.227247e-02 1.386819e-02 1.229269e-02 1.398474e-02 1.230685e-02 1.401466e-02 1.235129e-02 1.397407e-02 1.239692e-02 1.386303e-02 1.245570e-02 1.374943e-02 1.256983e-02 1.365463e-02 1.270678e-02 1.356914e-02 1.289166e-02 1.356639e-02 1.318093e-02 1.367557e-02 1.357093e-02 1.393662e-02 1.415754e-02 1.451158e-02 1.515114e-02 1.572427e-02 1.703372e-02 1.747178e-02 1.627860e-02 1.374689e-02 1.816015e-02 1.483741e-02 1.735367e-02 1.641178e-02 1.614019e-02 1.793998e-02 1.658537e-02 1.799639e-02 1.732638e-02 1.726688e-02 1.912407e-02 1.763860e-02 1.913762e-02 1.846741e-02 1.787554e-02 1.667239e-02 1.572064e-02 1.542130e-02 1.466502e-02 1.482526e-02 1.411418e-02 1.453636e-02 1.379867e-02 1.439248e-02 1.359053e-02 1.429076e-02 1.341854e-02 1.418505e-02 1.328471e-02 1.408913e-02 1.320044e-02 1.398360e-02 1.314364e-02 1.386759e-02 1.314208e-02 1.377139e-02 1.320286e-02 1.369061e-02 1.331674e-02 1.362500e-02 1.346956e-02 1.354238e-02 1.361938e-02 1.342825e-02 1.378206e-02 1.331776e-02 1.397498e-02 1.320122e-02 1.415133e-02 1.303408e-02 1.428147e-02 1.284025e-02 1.439845e-02 1.265768e-02 1.448384e-02 1.249316e-02 1.453494e-02 1.244809e-02 1.457362e-02 1.265637e-02 1.452243e-02 1.349001e-02 1.421930e-02 1.655595e-02 3.465651e-03 -9.404886e-04 -4.445390e-03 -5.056725e-03 -6.639122e-03 
-1.762220e-02 -2.121285e-02 -1.856028e-02 -2.467630e-02 -2.253290e-02 -3.707195e-02 -1.398444e-02 -2.460181e-02 -1.568713e-02 -2.010985e-02 -1.380581e-02 -1.612657e-02 -7.478451e-03 -1.130509e-02 -9.760275e-03 -1.082214e-02 -1.059551e-02 -1.043328e-02 -1.105072e-02 -9.766487e-03 -1.134718e-02 -8.213282e-03 -1.641533e-02 -1.426059e-02 -1.884198e-02 -1.687337e-02 -1.975785e-02 -1.820163e-02 -2.011948e-02 -1.901809e-02 -2.021118e-02 -1.954845e-02 -2.014400e-02 -1.995417e-02 -2.005497e-02 -2.031444e-02 -1.995977e-02 -2.059102e-02 -1.986328e-02 -2.082119e-02 -1.986022e-02 -2.105573e-02 -1.993758e-02 -2.122018e-02 -2.007736e-02 -2.139247e-02 -2.040476e-02 -2.166043e-02 -2.091333e-02 -2.202838e-02 -2.169861e-02 -2.274111e-02 -2.306082e-02 -2.415625e-02 -2.560148e-02 -2.729033e-02 -2.975621e-02 -2.589934e-02 -2.446088e-02 -2.957819e-02 -2.943473e-02 -2.797225e-02 -2.721211e-02 -2.633651e-02 -3.036553e-02 -3.191918e-02 -2.999906e-02 -2.894205e-02 -2.878966e-02 -3.288165e-02 -3.392092e-02 -3.355390e-02 -3.358264e-02 -3.103370e-02 -2.766288e-02 -2.610576e-02 -2.409678e-02 -2.353687e-02 -2.236588e-02 -2.213964e-02 -2.156765e-02 -2.138181e-02 -2.123532e-02 -2.093198e-02 -2.107593e-02 -2.064822e-02 -2.099227e-02 -2.052885e-02 -2.094173e-02 -2.051893e-02 -2.080695e-02 -2.055465e-02 -2.060170e-02 -2.070505e-02 -2.036938e-02 -2.092605e-02 -2.009159e-02 -2.121261e-02 -1.985531e-02 -2.153268e-02 -1.960403e-02 -2.171628e-02 -1.934956e-02 -2.180604e-02 -1.927985e-02 -2.184859e-02 -1.942844e-02 -2.172092e-02 -1.972748e-02 -2.135474e-02 -2.023503e-02 -2.084275e-02 -2.100562e-02 -2.016065e-02 -2.192933e-02 -1.932053e-02 -2.305609e-02 -1.851008e-02 -2.436183e-02 -1.790902e-02 -2.576197e-02 -1.867360e-02 -2.659254e-02 -2.995703e-02 -1.705136e-02 -2.178160e-02 -1.712593e-02 -2.051733e-02 
-1.856602e-02 -2.016267e-02 -2.014804e-02 -2.245041e-02 -2.516437e-02 -3.132095e-02 -3.269529e-02 -3.488685e-02 -2.998321e-02 -3.255193e-02 -2.789189e-02 -2.956687e-02 -2.445124e-02 -2.502128e-02 -2.454802e-02 -2.490074e-02 -2.474990e-02 -2.474419e-02 -2.493716e-02 -2.459885e-02 -2.504707e-02 -2.457079e-02 -3.004222e-02 -2.876744e-02 -3.197849e-02 -3.029058e-02 -3.279149e-02 -3.099393e-02 -3.319704e-02 -3.141749e-02 -3.337521e-02 -3.169766e-02 -3.338364e-02 -3.193061e-02 -3.332782e-02 -3.217294e-02 -3.323007e-02 -3.238019e-02 -3.309594e-02 -3.257570e-02 -3.302200e-02 -3.281263e-02 -3.301976e-02 -3.303298e-02 -3.307564e-02 -3.329348e-02 -3.330004e-02 -3.367517e-02 -3.370041e-02 -3.416771e-02 -3.432164e-02 -3.492178e-02 -3.534292e-02 -3.614400e-02 -3.701953e-02 -3.825709e-02 -3.937915e-02 -3.910320e-02 -3.796414e-02 -3.787308e-02 -3.629292e-02 -3.940050e-02 -4.235300e-02 -4.174788e-02 -3.955865e-02 -3.790214e-02 -4.018239e-02 -4.257619e-02 -4.141604e-02 -3.890130e-02 -3.627841e-02 -3.660537e-02 -3.608699e-02 -3.589166e-02 -3.530305e-02 -3.491813e-02 -3.465140e-02 -3.423136e-02 -3.424422e-02 -3.372430e-02 -3.404195e-02 -3.337497e-02 -3.397164e-02 -3.311790e-02 -3.392974e-02 -3.291374e-02 -3.387918e-02 -3.279686e-02 -3.382368e-02 -3.276316e-02 -3.369754e-02 -3.277285e-02 -3.350947e-02 -3.288174e-02 -3.330524e-02 -3.307390e-02 -3.307792e-02 -3.333786e-02 -3.287506e-02 -3.364232e-02 -3.265332e-02 -3.386862e-02 -3.241729e-02 -3.404285e-02 -3.229355e-02 -3.419506e-02 -3.230062e-02 -3.422776e-02 -3.237965e-02 -3.408408e-02 -3.257723e-02 -3.383373e-02 -3.294363e-02 -3.346152e-02 -3.342364e-02 -3.299562e-02 -3.410222e-02 -3.259116e-02 -3.504394e-02 -3.235768e-02 -3.639799e-02 -3.273961e-02 -3.863496e-02 -3.047069e-02 -2.094653e-02 -2.150021e-02 -1.864782e-02 -1.985596e-02 
-2.457584e-02 -2.616968e-02 -2.530373e-02 -2.714056e-02 -2.707071e-02 -2.900326e-02 -3.319164e-02 -3.452344e-02 -3.211875e-02 -3.507633e-02 -3.271002e-02 -3.532274e-02 -3.466985e-02 -3.527918e-02 -3.475645e-02 -3.514223e-02 -3.498987e-02 -3.495320e-02 -3.520272e-02 -3.476692e-02 -3.532349e-02 -3.472130e-02 -3.509236e-02 -3.380775e-02 -3.482116e-02 -3.339480e-02 -3.472278e-02 -3.323330e-02 -3.468176e-02 -3.321786e-02 -3.464603e-02 -3.328411e-02 -3.458607e-02 -3.340013e-02 -3.450763e-02 -3.355174e-02 -3.441732e-02 -3.371428e-02 -3.432241e-02 -3.388214e-02 -3.425296e-02 -3.406302e-02 -3.422346e-02 -3.424438e-02 -3.423402e-02 -3.442959e-02 -3.429909e-02 -3.462265e-02 -3.439615e-02 -3.477946e-02 -3.444768e-02 -3.480695e-02 -3.427509e-02 -3.443274e-02 -3.331573e-02 -3.282988e-02 -3.126757e-02 -3.463800e-02 -3.553190e-02 -3.282513e-02 -3.319478e-02 -3.373553e-02 -3.314394e-02 -3.450359e-02 -3.235453e-02 -3.263920e-02 -3.268586e-02 -3.340481e-02 -3.300767e-02 -3.200224e-02 -3.122358e-02 -3.188604e-02 -3.073645e-02 -3.234531e-02 -3.342460e-02 -3.440112e-02 -3.472894e-02 -3.497092e-02 -3.506582e-02 -3.497215e-02 -3.509777e-02 -3.480850e-02 -3.505466e-02 -3.462766e-02 -3.499550e-02 -3.447459e-02 -3.492409e-02 -3.437192e-02 -3.484060e-02 -3.432964e-02 -3.473244e-02 -3.434134e-02 -3.459610e-02 -3.441188e-02 -3.444485e-02 -3.453749e-02 -3.428660e-02 -3.470120e-02 -3.413021e-02 -3.487778e-02 -3.397945e-02 -3.503427e-02 -3.384881e-02 -3.515736e-02 -3.376985e-02 -3.523687e-02 -3.375617e-02 -3.524393e-02 -3.380184e-02 -3.516066e-02 -3.391349e-02 -3.499839e-02 -3.409032e-02 -3.476600e-02 -3.430596e-02 -3.449201e-02 -3.453165e-02 -3.422389e-02 -3.468500e-02 -3.396377e-02 -3.458338e-02 -3.350868e-02 -3.412870e-02 -2.907825e-02 -2.702789e-02 -2.677239e-02 -2.508060e-02 -2.597964e-02 
-2.372433e-02 -2.458565e-02 -2.472563e-02 -2.608655e-02 -2.685990e-02 -2.845237e-02 -2.981422e-02 -3.148594e-02 -3.220217e-02 -3.386363e-02 -3.566469e-02 -3.669981e-02 -4.156788e-02 -4.186339e-02 -4.166591e-02 -4.183650e-02 -4.176345e-02 -4.176826e-02 -4.184069e-02 -4.168257e-02 -4.186955e-02 -4.158611e-02 -3.612361e-02 -3.568170e-02 -3.393653e-02 -3.318295e-02 -3.301527e-02 -3.191281e-02 -3.255428e-02 -3.126827e-02 -3.228895e-02 -3.096267e-02 -3.210064e-02 -3.085102e-02 -3.194456e-02 -3.085458e-02 -3.180459e-02 -3.092209e-02 -3.167934e-02 -3.102521e-02 -3.157913e-02 -3.114645e-02 -3.150696e-02 -3.126568e-02 -3.146088e-02 -3.137429e-02 -3.144144e-02 -3.146273e-02 -3.142616e-02 -3.149724e-02 -3.135906e-02 -3.140946e-02 -3.111501e-02 -3.101286e-02 -3.033027e-02 -2.972848e-02 -2.854808e-02 -2.931367e-02 -3.005656e-02 -2.997585e-02 -3.041288e-02 -2.942679e-02 -2.768736e-02 -2.847742e-02 -2.913615e-02 -2.989255e-02 -2.867015e-02 -2.769461e-02 -2.791595e-02 -2.917602e-02 -2.972195e-02 -2.993158e-02 -2.974331e-02 -3.039255e-02 -3.089195e-02 -3.119534e-02 -3.152663e-02 -3.146459e-02 -3.181334e-02 -3.151146e-02 -3.196351e-02 -3.147638e-02 -3.205345e-02 -3.142016e-02 -3.210345e-02 -3.137224e-02 -3.211672e-02 -3.135319e-02 -3.209305e-02 -3.137383e-02 -3.202796e-02 -3.143697e-02 -3.192452e-02 -3.154608e-02 -3.179255e-02 -3.169428e-02 -3.164130e-02 -3.186689e-02 -3.148433e-02 -3.204245e-02 -3.133337e-02 -3.219379e-02 -3.120731e-02 -3.230444e-02 -3.113335e-02 -3.235931e-02 -3.112645e-02 -3.233576e-02 -3.118866e-02 -3.221971e-02 -3.132159e-02 -3.201366e-02 -3.151408e-02 -3.171952e-02 -3.172574e-02 -3.133951e-02 -3.188409e-02 -3.086127e-02 -3.183299e-02 -3.019784e-02 -3.125273e-02 -2.911716e-02 -2.962231e-02 -2.717364e-02 -2.605764e-02 -2.519488e-02 -2.414064e-02 -2.426678e-02 
-2.657942e-02 -2.761589e-02 -2.725841e-02 -2.867963e-02 -2.901843e-02 -3.056528e-02 -3.181285e-02 -3.347371e-02 -3.417032e-02 -3.602035e-02 -3.755265e-02 -3.878240e-02 -4.331553e-02 -4.367000e-02 -4.340931e-02 -4.361360e-02 -4.353595e-02 -4.350651e-02 -4.364998e-02 -4.339143e-02 -4.370409e-02 -4.329488e-02 -3.782192e-02 -3.730772e-02 -3.570002e-02 -3.492572e-02 -3.486318e-02 -3.381094e-02 -3.447645e-02 -3.330451e-02 -3.426901e-02 -3.310461e-02 -3.412622e-02 -3.306439e-02 -3.400311e-02 -3.310904e-02 -3.388626e-02 -3.319694e-02 -3.377478e-02 -3.330182e-02 -3.367025e-02 -3.340267e-02 -3.356937e-02 -3.347962e-02 -3.346496e-02 -3.351796e-02 -3.334835e-02 -3.350456e-02 -3.320146e-02 -3.341837e-02 -3.299227e-02 -3.323131e-02 -3.268197e-02 -3.291567e-02 -3.223496e-02 -3.244280e-02 -3.167903e-02 -3.220072e-02 -3.203130e-02 -3.213983e-02 -3.183460e-02 -3.224509e-02 -3.174072e-02 -3.223385e-02 -3.144936e-02 -3.185607e-02 -3.128197e-02 -3.171104e-02 -3.119298e-02 -3.140616e-02 -3.096786e-02 -3.145610e-02 -3.124217e-02 -3.200284e-02 -3.212441e-02 -3.271117e-02 -3.286965e-02 -3.320338e-02 -3.339027e-02 -3.349203e-02 -3.372988e-02 -3.363782e-02 -3.394147e-02 -3.370162e-02 -3.406499e-02 -3.373045e-02 -3.412454e-02 -3.375647e-02 -3.413379e-02 -3.380033e-02 -3.410123e-02 -3.387242e-02 -3.403278e-02 -3.397425e-02 -3.393487e-02 -3.410016e-02 -3.381533e-02 -3.423803e-02 -3.368446e-02 -3.437352e-02 -3.355772e-02 -3.449254e-02 -3.345239e-02 -3.457981e-02 -3.338354e-02 -3.462027e-02 -3.336208e-02 -3.460141e-02 -3.339285e-02 -3.451633e-02 -3.347299e-02 -3.436395e-02 -3.358524e-02 -3.414364e-02 -3.368937e-02 -3.384666e-02 -3.370938e-02 -3.343294e-02 -3.350598e-02 -3.278063e-02 -3.283808e-02 -3.162224e-02 -3.137343e-02 -2.964032e-02 -2.872948e-02 -2.811746e-02 -2.706883e-02 -2.741735e-02 
-2.372798e-02 -2.458910e-02 -2.472914e-02 -2.609035e-02 -2.686344e-02 -2.845576e-02 -2.981662e-02 -3.148628e-02 -3.220298e-02 -3.386179e-02 -3.566489e-02 -3.669803e-02 -4.156998e-02 -4.186381e-02 -4.166570e-02 -4.183452e-02 -4.176034e-02 -4.176294e-02 -4.183405e-02 -4.167355e-02 -4.186047e-02 -4.157480e-02 -3.610286e-02 -3.565729e-02 -3.390522e-02 -3.315368e-02 -3.298095e-02 -3.188158e-02 -3.251610e-02 -3.123559e-02 -3.225161e-02 -3.093301e-02 -3.206346e-02 -3.081474e-02 -3.189353e-02 -3.079814e-02 -3.173278e-02 -3.084421e-02 -3.158815e-02 -3.092329e-02 -3.145732e-02 -3.099911e-02 -3.132432e-02 -3.103633e-02 -3.117469e-02 -3.101752e-02 -3.100715e-02 -3.094276e-02 -3.081913e-02 -3.080145e-02 -3.058113e-02 -3.056559e-02 -3.026105e-02 -3.022717e-02 -2.985893e-02 -2.981860e-02 -2.945098e-02 -2.952931e-02 -2.936140e-02 -2.940060e-02 -2.919160e-02 -2.920046e-02 -2.882369e-02 -2.900627e-02 -2.876199e-02 -2.898336e-02 -2.869018e-02 -2.886411e-02 -2.874488e-02 -2.911239e-02 -2.912098e-02 -2.948006e-02 -2.956133e-02 -2.990778e-02 -3.013141e-02 -3.033813e-02 -3.065725e-02 -3.066965e-02 -3.109169e-02 -3.089575e-02 -3.142756e-02 -3.103174e-02 -3.167155e-02 -3.110991e-02 -3.183965e-02 -3.116446e-02 -3.194103e-02 -3.121841e-02 -3.198000e-02 -3.129291e-02 -3.196810e-02 -3.140408e-02 -3.191125e-02 -3.154930e-02 -3.181134e-02 -3.171823e-02 -3.167417e-02 -3.189086e-02 -3.150864e-02 -3.205159e-02 -3.134494e-02 -3.219539e-02 -3.121319e-02 -3.230070e-02 -3.112708e-02 -3.234173e-02 -3.110182e-02 -3.230521e-02 -3.115277e-02 -3.218618e-02 -3.128389e-02 -3.198337e-02 -3.148137e-02 -3.169943e-02 -3.170597e-02 -3.133096e-02 -3.187379e-02 -3.085789e-02 -3.183287e-02 -3.020520e-02 -3.126771e-02 -2.913118e-02 -2.963885e-02 -2.718262e-02 -2.606695e-02 -2.519987e-02 -2.414582e-02 -2.427026e-02 
-2.458170e-02 -2.617656e-02 -2.531145e-02 -2.714960e-02 -2.707941e-02 -2.901116e-02 -3.319351e-02 -3.451445e-02 -3.211116e-02 -3.506022e-02 -3.270128e-02 -3.531081e-02 -3.467280e-02 -3.528553e-02 -3.475876e-02 -3.514216e-02 -3.498700e-02 -3.494622e-02 -3.519135e-02 -3.475215e-02 -3.530219e-02 -3.470126e-02 -3.506629e-02 -3.377317e-02 -3.477544e-02 -3.334914e-02 -3.466522e-02 -3.317619e-02 -3.460708e-02 -3.314826e-02 -3.456446e-02 -3.321426e-02 -3.450158e-02 -3.331619e-02 -3.439582e-02 -3.342894e-02 -3.426597e-02 -3.355341e-02 -3.413806e-02 -3.368243e-02 -3.401570e-02 -3.378403e-02 -3.387560e-02 -3.381853e-02 -3.369869e-02 -3.377461e-02 -3.349508e-02 -3.367256e-02 -3.328165e-02 -3.351814e-02 -3.303803e-02 -3.329297e-02 -3.275116e-02 -3.302012e-02 -3.245715e-02 -3.275466e-02 -3.220958e-02 -3.256093e-02 -3.206791e-02 -3.245763e-02 -3.195592e-02 -3.237382e-02 -3.185446e-02 -3.229807e-02 -3.179695e-02 -3.225355e-02 -3.177013e-02 -3.226264e-02 -3.181084e-02 -3.236126e-02 -3.196258e-02 -3.254580e-02 -3.226608e-02 -3.281525e-02 -3.266714e-02 -3.310520e-02 -3.309144e-02 -3.337146e-02 -3.349567e-02 -3.358869e-02 -3.384272e-02 -3.374124e-02 -3.411590e-02 -3.384691e-02 -3.432363e-02 -3.393273e-02 -3.446574e-02 -3.401099e-02 -3.453910e-02 -3.410347e-02 -3.456091e-02 -3.423174e-02 -3.453507e-02 -3.438833e-02 -3.445860e-02 -3.456375e-02 -3.433529e-02 -3.473371e-02 -3.416663e-02 -3.488504e-02 -3.399272e-02 -3.502788e-02 -3.384988e-02 -3.513912e-02 -3.374492e-02 -3.518980e-02 -3.369378e-02 -3.517071e-02 -3.371813e-02 -3.508368e-02 -3.383015e-02 -3.493243e-02 -3.402287e-02 -3.472682e-02 -3.427141e-02 -3.448217e-02 -3.452123e-02 -3.422794e-02 -3.469704e-02 -3.398877e-02 -3.462237e-02 -3.353856e-02 -3.416012e-02 -2.909079e-02 -2.703934e-02 -2.677764e-02 -2.508652e-02 -2.598445e-02 
-1.857298e-02 -2.017246e-02 -2.015847e-02 -2.246540e-02 -2.517960e-02 -3.133964e-02 -3.270780e-02 -3.489306e-02 -2.998808e-02 -3.254562e-02 -2.788879e-02 -2.955965e-02 -2.446016e-02 -2.502594e-02 -2.454991e-02 -2.489904e-02 -2.474372e-02 -2.473080e-02 -2.491423e-02 -2.456757e-02 -2.500753e-02 -2.453482e-02 -2.996287e-02 -2.865308e-02 -3.184728e-02 -3.018625e-02 -3.268901e-02 -3.089790e-02 -3.306591e-02 -3.130638e-02 -3.327384e-02 -3.165622e-02 -3.333870e-02 -3.188563e-02 -3.321407e-02 -3.201969e-02 -3.302354e-02 -3.216936e-02 -3.288489e-02 -3.237032e-02 -3.280239e-02 -3.254157e-02 -3.268542e-02 -3.257178e-02 -3.246564e-02 -3.244196e-02 -3.220365e-02 -3.228275e-02 -3.202623e-02 -3.213697e-02 -3.182788e-02 -3.185362e-02 -3.150640e-02 -3.147951e-02 -3.117316e-02 -3.113304e-02 -3.087829e-02 -3.085441e-02 -3.065260e-02 -3.070850e-02 -3.053397e-02 -3.062582e-02 -3.043061e-02 -3.060059e-02 -3.044921e-02 -3.072633e-02 -3.056799e-02 -3.092135e-02 -3.074850e-02 -3.118199e-02 -3.102739e-02 -3.148976e-02 -3.143026e-02 -3.181899e-02 -3.182173e-02 -3.201638e-02 -3.214015e-02 -3.214949e-02 -3.248661e-02 -3.227907e-02 -3.281949e-02 -3.234832e-02 -3.308587e-02 -3.238727e-02 -3.331608e-02 -3.244450e-02 -3.348389e-02 -3.248686e-02 -3.353607e-02 -3.255122e-02 -3.354785e-02 -3.272205e-02 -3.352316e-02 -3.294833e-02 -3.342460e-02 -3.322312e-02 -3.325841e-02 -3.346502e-02 -3.295758e-02 -3.363818e-02 -3.265594e-02 -3.386616e-02 -3.246221e-02 -3.407177e-02 -3.230551e-02 -3.414837e-02 -3.220754e-02 -3.410801e-02 -3.224480e-02 -3.397021e-02 -3.244563e-02 -3.372296e-02 -3.281750e-02 -3.339858e-02 -3.337694e-02 -3.299371e-02 -3.406367e-02 -3.255423e-02 -3.501755e-02 -3.239221e-02 -3.649351e-02 -3.283085e-02 -3.872482e-02 -3.050370e-02 -2.097095e-02 -2.151107e-02 -1.865675e-02 -1.986297e-02 
-1.763045e-02 -2.122844e-02 -1.858022e-02 -2.470685e-02 -2.257252e-02 -3.712841e-02 -1.405981e-02 -2.471063e-02 -1.579298e-02 -2.022088e-02 -1.389833e-02 -1.620684e-02 -7.539549e-03 -1.132713e-02 -9.784437e-03 -1.083341e-02 -1.061851e-02 -1.044684e-02 -1.106390e-02 -9.764548e-03 -1.131363e-02 -8.140316e-03 -1.625940e-02 -1.404800e-02 -1.862171e-02 -1.670811e-02 -1.963554e-02 -1.811677e-02 -2.003749e-02 -1.898899e-02 -2.024570e-02 -1.967231e-02 -2.030214e-02 -2.009628e-02 -2.014050e-02 -2.031169e-02 -1.992633e-02 -2.049082e-02 -1.981361e-02 -2.069749e-02 -1.979918e-02 -2.084437e-02 -1.977089e-02 -2.081621e-02 -1.964672e-02 -2.060252e-02 -1.950324e-02 -2.038818e-02 -1.951378e-02 -2.024233e-02 -1.953353e-02 -1.995798e-02 -1.940846e-02 -1.958217e-02 -1.926186e-02 -1.924161e-02 -1.911782e-02 -1.895569e-02 -1.902421e-02 -1.877916e-02 -1.892185e-02 -1.875332e-02 -1.879285e-02 -1.877439e-02 -1.862274e-02 -1.881021e-02 -1.857738e-02 -1.890282e-02 -1.858069e-02 -1.891152e-02 -1.857812e-02 -1.905306e-02 -1.878892e-02 -1.937921e-02 -1.912655e-02 -1.961533e-02 -1.939827e-02 -1.977617e-02 -1.971897e-02 -1.993452e-02 -2.003558e-02 -2.001435e-02 -2.027491e-02 -2.004516e-02 -2.046848e-02 -2.008631e-02 -2.058702e-02 -2.010079e-02 -2.056694e-02 -2.013898e-02 -2.051249e-02 -2.032016e-02 -2.044105e-02 -2.058375e-02 -2.030704e-02 -2.091875e-02 -2.012203e-02 -2.121690e-02 -1.979959e-02 -2.142252e-02 -1.951435e-02 -2.169184e-02 -1.941031e-02 -2.191121e-02 -1.938207e-02 -2.192170e-02 -1.945117e-02 -2.173688e-02 -1.971697e-02 -2.137411e-02 -2.019767e-02 -2.081004e-02 -2.089782e-02 -2.010545e-02 -2.183447e-02 -1.926023e-02 -2.288657e-02 -1.833530e-02 -2.415581e-02 -1.781352e-02 -2.572950e-02 -1.870167e-02 -2.662216e-02 -2.996454e-02 -1.705289e-02 -2.178495e-02 -1.712796e-02 -2.052427e-02 
-5.891613e-03 -7.076175e-03 -4.268443e-03 -6.258748e-03 7.984870e-04 -1.931774e-03 1.738649e-02 1.300882e-02 1.212696e-02 1.434332e-02 9.504387e-03 1.446285e-02 6.651315e-03 1.491870e-02 9.882874e-03 1.613203e-02 1.103784e-02 1.609420e-02 1.142785e-02 1.452991e-02 1.095265e-02 1.045463e-02 1.192166e-02 1.169886e-02 1.273487e-02 1.208072e-02 1.320604e-02 1.215302e-02 1.348450e-02 1.212774e-02 1.367028e-02 1.212372e-02 1.376608e-02 1.212108e-02 1.375092e-02 1.213432e-02 1.368198e-02 1.220840e-02 1.361529e-02 1.235470e-02 1.355951e-02 1.252590e-02 1.346966e-02 1.265116e-02 1.331278e-02 1.271439e-02 1.312795e-02 1.277430e-02 1.298298e-02 1.284588e-02 1.283785e-02 1.285883e-02 1.266041e-02 1.284089e-02 1.251696e-02 1.284831e-02 1.243057e-02 1.287921e-02 1.237210e-02 1.296208e-02 1.242867e-02 1.298434e-02 1.243337e-02 1.298016e-02 1.256724e-02 1.309870e-02 1.269126e-02 1.314345e-02 1.277611e-02 1.324819e-02 1.293819e-02 1.329966e-02 1.306274e-02 1.325561e-02 1.310655e-02 1.313066e-02 1.312780e-02 1.302313e-02 1.320683e-02 1.297607e-02 1.332586e-02 1.295462e-02 1.345469e-02 1.296537e-02 1.360474e-02 1.301811e-02 1.374949e-02 1.307415e-02 1.384878e-02 1.313674e-02 1.393101e-02 1.323440e-02 1.398533e-02 1.333341e-02 1.398770e-02 1.343571e-02 1.393719e-02 1.350765e-02 1.379174e-02 1.354406e-02 1.361099e-02 1.362225e-02 1.343998e-02 1.372368e-02 1.324300e-02 1.382097e-02 1.302975e-02 1.393244e-02 1.283398e-02 1.407776e-02 1.267948e-02 1.425167e-02 1.257455e-02 1.444181e-02 1.253713e-02 1.460514e-02 1.257377e-02 1.468833e-02 1.283194e-02 1.468833e-02 1.371377e-02 1.437415e-02 1.671435e-02 3.540315e-03 -8.707818e-04 -4.412931e-03 -5.025425e-03 -6.629265e-03 
-8.075833e-03 -5.586361e-03 -6.387770e-03 -2.138040e-03 -3.401410e-04 1.057760e-02 4.499119e-04 7.398024e-03 -6.432517e-05 4.110319e-03 -2.436071e-03 -8.371857e-04 -9.567608e-03 -1.105712e-02 -1.554322e-02 -1.497401e-02 -1.701651e-02 -1.664719e-02 -1.535545e-02 -1.566352e-02 -1.098874e-02 -8.926952e-03 -1.106972e-03 -2.144946e-03 2.951021e-03 6.719478e-04 4.717889e-03 2.000375e-03 5.434901e-03 2.754126e-03 5.764396e-03 3.361319e-03 5.850221e-03 3.770120e-03 5.669888e-03 4.029956e-03 5.412728e-03 4.303395e-03 5.247822e-03 4.642711e-03 5.181581e-03 4.941662e-03 5.096748e-03 5.058284e-03 4.903969e-03 4.966423e-03 4.679242e-03 4.839973e-03 4.587003e-03 4.726882e-03 4.459348e-03 4.393815e-03 4.121961e-03 3.873577e-03 3.692471e-03 3.292444e-03 3.223259e-03 2.750311e-03 2.985648e-03 2.329222e-03 2.688538e-03 2.433925e-03 2.780744e-03 2.742536e-03 2.598066e-03 2.769818e-03 2.747043e-03 3.139362e-03 3.042376e-03 3.047457e-03 2.987246e-03 3.175374e-03 3.372259e-03 3.761007e-03 4.112628e-03 4.263188e-03 4.669872e-03 4.532307e-03 5.144373e-03 4.692816e-03 5.544086e-03 4.733230e-03 5.841554e-03 4.727718e-03 6.091667e-03 4.754979e-03 6.262660e-03 4.775320e-03 6.279750e-03 4.837571e-03 6.243671e-03 5.058635e-03 6.163342e-03 5.368726e-03 5.989204e-03 5.755007e-03 5.734130e-03 6.102254e-03 5.309663e-03 6.352420e-03 4.902015e-03 6.668521e-03 4.666212e-03 6.937327e-03 4.505120e-03 7.003430e-03 4.449624e-03 6.881916e-03 4.604273e-03 6.593441e-03 4.993474e-03 6.113924e-03 5.614176e-03 5.488135e-03 6.466452e-03 4.690071e-03 7.408733e-03 3.725606e-03 8.520600e-03 2.929243e-03 9.885325e-03 2.840033e-03 1.114737e-02 6.833463e-03 -5.835808e-03 -3.786385e-03 -7.937632e-03 -5.998769e-03 
-3.445092e-03 2.991137e-04 -2.495962e-03 3.261667e-03 -4.217713e-04 1.015944e-02 -6.542371e-03 1.788151e-03 -1.626377e-03 4.747994e-04 2.356489e-03 2.076791e-04 7.691306e-03 3.934447e-04 4.663153e-03 -9.565081e-04 3.818851e-03 -1.135529e-03 3.699508e-03 2.035254e-04 4.324416e-03 4.178019e-03 2.553781e-03 1.134903e-03 1.420606e-03 -2.315191e-04 8.455809e-04 -8.875905e-04 4.527502e-04 -1.124089e-03 1.833104e-04 -1.091951e-03 -5.295525e-05 -9.780301e-04 -3.285402e-04 -8.505901e-04 -5.896591e-04 -6.898560e-04 -7.726530e-04 -5.028545e-04 -8.794958e-04 -3.536040e-04 -9.636086e-04 -3.133343e-04 -1.069057e-03 -4.016292e-04 -1.177739e-03 -5.571003e-04 -1.245514e-03 -7.719790e-04 -1.365572e-03 -1.146221e-03 -1.628135e-03 -1.663986e-03 -1.988431e-03 -2.264843e-03 -2.436040e-03 -2.828176e-03 -2.460326e-03 -3.222346e-03 -2.558922e-03 -3.301468e-03 -3.140810e-03 -3.125867e-03 -3.325159e-03 -2.829568e-03 -3.445439e-03 -3.152040e-03 -3.404793e-03 -3.248631e-03 -3.102230e-03 -3.055663e-03 -3.089545e-03 -2.456410e-03 -2.211856e-03 -1.727024e-03 -1.523845e-03 -1.295978e-03 -1.006925e-03 -1.059585e-03 -6.110320e-04 -9.577837e-04 -3.184871e-04 -9.210407e-04 -1.042828e-04 -8.900880e-04 2.179277e-05 -8.517365e-04 3.315037e-05 -7.687675e-04 -3.110029e-05 -5.831681e-04 -1.575194e-04 -3.152284e-04 -3.565393e-04 1.647784e-05 -6.133968e-04 3.490285e-04 -9.387621e-04 6.359054e-04 -1.235143e-03 9.092127e-04 -1.410112e-03 1.096881e-03 -1.470571e-03 1.106155e-03 -1.383176e-03 9.170326e-04 -1.093098e-03 5.220415e-04 -5.920014e-04 -8.548663e-05 1.039458e-04 -8.633287e-04 9.469993e-04 -1.779197e-03 1.785053e-03 -2.757049e-03 2.449026e-03 -3.569473e-03 2.469172e-03 -3.900326e-03 5.587878e-05 2.646554e-03 -3.699548e-03 -3.879933e-04 -3.795082e-03 -7.624995e-04 
