# vtk DataFile Version 2.0
Comment goes here
ASCII

DATASET STRUCTURED_POINTS
FIELD FieldData 1
TIME 1 1 double
0.23000000
DIMENSIONS    128   16   1

ORIGIN    0.000   0.000   0.000
SPACING   0.0078125 0.015625   1.000

POINT_DATA   2048
SCALARS uY double
LOOKUP_TABLE default

9.546006e-06 8.099597e-06 6.637083e-06 6.601865e-06 3.533533e-06 2.396149e-06 -1.602091e-06 -9.708130e-06 -1.204608e-05 -9.912381e-06 -2.828502e-06 -5.020099e-06 -6.924810e-06 -1.356111e-05 -9.382471e-07 -7.148515e-06 1.155318e-05 3.116076e-05 4.453754e-05 4.523768e-05 1.615463e-05 -4.031229e-05 -1.176819e-04 -1.486111e-04 -1.696286e-04 -1.813992e-04 -1.798842e-04 -1.867489e-04 -1.589934e-04 -1.287817e-04 -8.292312e-05 -8.490599e-05 -4.914226e-05 -3.082328e-05 2.845480e-05 2.969617e-05 4.726954e-06 -6.289345e-05 -7.973411e-05 -1.010170e-04 -9.167677e-05 -5.446368e-05 -3.016515e-05 2.128548e-05 4.421248e-05 1.550317e-04 2.123364e-04 4.312938e-04 5.775679e-04 9.428943e-04 1.151274e-03 1.610897e-03 1.839317e-03 2.204829e-03 2.176697e-03 2.071102e-03 1.990680e-03 9.959831e-04 -2.032099e-04 -2.071389e-03 -9.582097e-04 -4.465527e-04 -1.901216e-03 -1.434675e-03 -3.162425e-03 -1.233756e-03 -2.862931e-04 -1.975279e-03 -1.211544e-03 -3.007913e-03 -1.133051e-03 -2.136070e-04 -1.451263e-03 -5.471569e-04 -4.006597e-04 -1.134574e-04 -9.883863e-05 -1.118873e-04 -1.707069e-04 -2.662037e-04 -3.125916e-04 -3.547371e-04 -3.090253e-04 -2.935190e-04 -2.280330e-04 -2.155015e-04 -1.732318e-04 -1.415769e-04 -5.749489e-05 -5.124348e-05 -1.484558e-05 -6.515519e-05 -9.090418e-05 -1.280491e-04 -8.715974e-05 -7.096370e-05 -2.922298e-05 -4.081726e-05 -8.625120e-05 -1.059226e-04 -1.160966e-04 -8.851582e-05 -8.518515e-05 -5.367061e-05 -7.986385e-05 -3.915763e-05 -5.551986e-05 -7.862695e-06 -2.518604e-05 5.343840e-06 -8.052889e-06 2.438657e-05 2.529877e-05 6.362608e-05 7.354747e-05 9.105573e-05 7.646776e-05 2.927029e-05 1.762894e-06 -1.522248e-05 -1.746015e-05 -1.248790e-05 8.652588e-06 2.704894e-06 1.331768e-05 8.756678e-06 1.278903e-05 9.200375e-06 
7.372677e-05 1.236168e-03 1.671705e-03 1.371527e-03 -7.386960e-05 -6.266357e-03 2.647299e-03 4.266787e-03 3.864890e-03 8.046193e-03 9.546605e-03 1.734761e-02 2.156962e-02 2.268277e-02 1.154053e-02 5.952620e-03 2.264664e-03 -2.364429e-03 -6.699614e-03 -1.073722e-02 -2.237766e-02 -2.275206e-02 -1.546297e-02 -1.056296e-02 -6.476839e-03 -4.411795e-03 -2.863190e-03 -1.951978e-03 -1.324708e-03 -7.904655e-04 -4.731933e-04 -2.620532e-04 -1.409893e-04 -1.194182e-04 7.110872e-05 -2.406272e-05 1.050020e-04 -1.816236e-04 1.050301e-04 -1.979059e-04 1.028857e-04 -2.290809e-04 1.226030e-04 -2.495690e-04 1.069016e-04 -1.483613e-04 1.886897e-04 -5.890168e-06 3.632172e-04 3.898156e-04 5.730163e-04 6.356072e-04 6.296016e-04 7.660219e-04 3.283710e-04 1.674548e-03 5.152836e-03 9.149240e-03 -1.695862e-03 -1.470082e-02 1.119112e-02 2.591463e-02 8.064937e-03 -8.645552e-03 -2.209804e-02 4.020731e-03 2.079387e-02 3.097930e-03 -1.167468e-02 -2.509949e-02 -6.973285e-03 7.502147e-03 -5.594882e-03 -5.336974e-03 -2.402282e-03 -1.558224e-03 -5.487693e-04 -2.970458e-04 4.190487e-05 -1.379485e-04 -7.962618e-05 -3.406237e-04 -4.565902e-06 -1.888385e-04 2.728485e-04 -1.851975e-04 1.277735e-04 -3.557805e-04 3.017638e-04 -8.214827e-05 4.871114e-04 -1.500430e-04 1.264359e-04 -3.353846e-04 1.237958e-04 1.544332e-05 2.044685e-04 5.944479e-05 -2.416655e-04 -2.621356e-05 -3.272591e-04 2.813196e-04 -3.975387e-04 3.477722e-04 -5.984342e-04 4.968865e-04 -4.974464e-04 6.921741e-04 -5.002121e-04 5.261995e-04 -5.520534e-04 4.208488e-04 -3.132862e-04 3.005207e-04 -3.709947e-05 -4.973124e-05 1.334562e-04 -7.771534e-04 2.173852e-04 -1.741677e-03 5.030035e-04 -3.372299e-03 4.886612e-03 3.155193e-03 -1.640521e-03 -9.072994e-04 -1.739204e-03 -1.846373e-04 
-2.627501e-04 2.985537e-03 3.736861e-03 6.386381e-03 6.635234e-04 -2.047062e-02 1.126924e-03 4.844904e-03 -1.071550e-03 5.434732e-03 -3.706686e-04 6.501239e-03 -3.094982e-03 -7.009218e-03 -6.579120e-03 -7.340804e-04 -1.977923e-03 2.042290e-03 1.841697e-03 5.752310e-03 7.673118e-03 6.158000e-04 -2.317890e-03 -2.182206e-03 -1.491155e-03 -9.986181e-04 -9.305429e-04 -6.573693e-04 -7.044670e-04 -6.489785e-05 6.487238e-05 1.835751e-04 9.526213e-05 -4.825680e-05 1.844085e-04 6.884728e-05 3.396807e-04 -2.016975e-04 4.272455e-04 -2.014592e-04 2.993299e-04 -3.585352e-04 4.384594e-04 -2.535604e-04 4.645817e-04 -1.527653e-04 3.758458e-04 -1.462354e-04 6.300003e-04 5.611533e-04 7.179978e-04 6.784175e-04 1.001007e-03 2.232719e-03 3.095070e-03 7.175351e-03 8.617418e-03 3.096432e-03 -3.265191e-03 -1.054154e-02 3.339922e-03 7.068086e-03 -1.717431e-03 2.189982e-03 -1.093373e-02 2.985987e-03 8.106171e-03 -2.914368e-03 2.428437e-03 -1.044561e-02 2.042573e-03 1.286287e-02 -7.179004e-03 -7.875986e-03 -5.316229e-03 -4.157839e-03 -2.640308e-03 -1.818384e-03 -1.040290e-03 -1.047834e-03 -8.088223e-04 -1.092838e-03 -2.839874e-04 -5.609031e-04 3.979840e-04 -5.132889e-04 -1.040843e-05 -9.250310e-04 4.807646e-04 -2.620766e-04 9.707678e-04 -2.824196e-04 1.193594e-04 -8.315527e-04 2.147274e-04 3.853598e-05 5.588333e-04 2.379549e-04 -5.188680e-04 -2.049892e-04 -7.270830e-04 5.276235e-04 -6.877999e-04 7.852889e-04 -1.167543e-03 9.475308e-04 -1.071806e-03 1.354433e-03 -1.023989e-03 1.040279e-03 -1.240894e-03 7.000951e-04 -9.314693e-04 4.595691e-04 -2.960499e-04 -3.573378e-05 1.320549e-04 -1.525653e-03 2.756311e-04 -3.220297e-03 1.694934e-03 -6.281259e-03 1.548407e-02 7.141945e-03 -9.228822e-03 -3.721702e-03 -4.557397e-03 -5.417868e-04 
1.093503e-03 9.161740e-03 1.600516e-02 2.709982e-02 2.774290e-02 -1.275701e-02 -3.255839e-03 2.122811e-03 -4.896249e-03 1.816426e-03 -5.493936e-03 -5.414052e-04 -4.156869e-03 5.046069e-03 6.030579e-04 1.569617e-03 2.012414e-04 -1.407434e-05 1.305841e-04 -1.955318e-03 -8.962489e-04 2.390670e-03 2.684663e-03 2.014050e-03 5.891482e-04 7.346990e-04 -2.643310e-04 3.054682e-04 -5.454518e-04 1.069711e-03 5.402495e-04 9.236896e-04 1.330334e-04 7.367223e-05 -2.594351e-04 9.224313e-05 6.039193e-04 2.521231e-04 9.136842e-04 -1.520254e-04 1.834811e-04 -8.196269e-04 5.249980e-04 -2.648307e-04 7.674347e-04 -6.984188e-04 -1.676543e-04 -1.196222e-03 2.403247e-04 -3.233563e-04 5.554795e-05 -9.329478e-04 -4.357961e-04 -4.701995e-04 7.434322e-06 -1.682716e-03 -4.439449e-03 -4.887396e-03 1.878908e-04 7.952542e-03 -4.230878e-03 -1.061251e-02 -2.546273e-03 2.235480e-03 9.421715e-03 -2.664055e-03 -1.068098e-02 -4.489465e-04 2.607003e-03 1.112759e-02 7.842963e-04 -5.799512e-03 3.401110e-03 4.488631e-03 1.271394e-03 1.313658e-03 2.817478e-04 4.539699e-04 -3.263072e-05 1.447211e-04 3.724803e-04 2.439601e-04 9.970052e-04 -8.201778e-05 8.048702e-04 -4.352429e-04 7.194421e-04 -5.661654e-04 1.301752e-03 -6.029472e-04 1.369866e-03 -1.101536e-04 9.390763e-04 -6.713700e-04 6.945111e-04 -4.524224e-04 5.376017e-04 2.370003e-04 -5.107486e-04 -5.036733e-04 -1.434031e-03 1.186723e-04 -9.388559e-04 1.565798e-03 -1.066158e-03 1.554321e-03 -1.699335e-03 1.776051e-03 -1.178759e-03 2.274042e-03 -1.015901e-03 1.546952e-03 -1.284690e-03 9.556264e-04 -1.454903e-04 9.627483e-04 1.134464e-03 -6.026777e-04 1.400604e-03 -2.216816e-03 3.393502e-03 -4.627784e-03 1.201776e-02 -1.797929e-02 -3.721648e-02 -2.019741e-02 -1.317095e-02 -3.734188e-03 
1.504024e-03 9.275187e-03 1.897411e-02 3.058667e-02 4.279636e-02 1.906703e-02 -8.789033e-04 1.837682e-03 -8.692316e-04 2.733463e-03 2.282663e-04 3.772296e-03 1.464114e-03 -1.916620e-04 6.448966e-05 2.577449e-05 9.791016e-05 -1.475205e-04 6.942872e-05 -4.270596e-04 -4.360906e-05 -2.635772e-03 -1.625408e-03 -1.110348e-03 -1.590894e-03 -6.071202e-04 -1.354306e-03 -3.514024e-05 -1.037982e-03 8.524679e-04 -2.017460e-04 6.643212e-04 -4.239637e-04 4.682515e-05 -8.236130e-04 -6.711003e-05 2.184604e-04 5.028159e-04 6.056137e-04 -5.731561e-05 -6.602632e-05 -7.006342e-04 2.386363e-04 -1.168255e-04 5.996324e-04 -6.812397e-04 -2.984999e-04 -1.020741e-03 1.616029e-04 -3.680895e-04 2.860665e-04 -5.243418e-04 -2.483307e-04 -1.069722e-03 -8.627274e-04 -1.564936e-03 5.685630e-04 4.042362e-03 -4.515012e-05 -5.512507e-03 5.715794e-03 1.479041e-02 6.428975e-03 -3.317135e-03 -8.994109e-03 1.965190e-03 9.866532e-03 2.998731e-03 -6.367426e-03 -1.019271e-02 -3.726525e-03 2.066755e-03 -1.985898e-03 -9.415998e-04 -3.485692e-04 5.048140e-05 -6.586158e-04 -9.230383e-04 -1.262924e-03 -7.056424e-04 1.046693e-04 3.691373e-04 8.827501e-04 -3.166691e-04 1.518811e-04 -5.656966e-04 9.428127e-04 2.311109e-06 1.192541e-03 -8.700221e-04 6.821523e-04 -1.582446e-04 1.317492e-03 -4.463528e-05 7.673557e-04 -9.381101e-04 -9.972110e-05 -2.779960e-04 -1.291719e-04 -4.638826e-04 -1.189543e-03 -5.167894e-04 -7.458429e-04 1.186437e-03 -3.066470e-04 1.151619e-03 -1.300343e-03 9.573628e-04 -7.545260e-04 2.005181e-03 -2.561253e-04 1.385358e-03 -1.052091e-03 5.822193e-04 -5.718772e-04 6.202654e-04 2.421639e-04 -2.897617e-04 -7.464572e-05 -1.329066e-03 -9.224012e-06 -7.055912e-04 -6.674047e-03 -3.735629e-02 -3.996690e-02 -2.595814e-02 -1.473588e-02 -6.209984e-03 
9.616005e-04 4.175354e-03 9.528192e-03 1.286027e-02 2.102696e-02 2.010845e-02 5.328252e-03 3.575349e-03 2.975769e-03 4.084889e-03 4.167503e-03 7.957525e-03 5.261399e-03 -1.473343e-04 6.423655e-05 7.578372e-05 7.003831e-05 -1.142511e-04 3.422795e-05 -3.703066e-04 -6.062302e-05 -4.999776e-03 -5.660360e-03 -4.001720e-03 -3.385210e-03 -1.952164e-03 -1.991634e-03 -7.158513e-04 -1.130228e-03 -9.762243e-06 -6.438122e-04 1.143345e-04 -4.439169e-04 7.231942e-05 -4.282842e-04 -6.075352e-07 3.930564e-05 2.860335e-04 2.643732e-04 5.295902e-05 1.704224e-04 -1.102264e-04 3.288513e-04 1.263499e-04 5.950486e-04 9.155025e-05 5.835576e-04 4.004808e-04 1.133152e-03 1.143612e-03 1.970264e-03 2.323274e-03 2.950022e-03 3.759601e-03 5.323647e-03 1.104509e-02 1.451280e-02 2.033378e-03 -3.400431e-03 -8.240742e-03 -2.878463e-03 -3.628833e-03 -7.887419e-03 6.415744e-03 -6.716464e-03 1.162675e-05 6.736069e-04 -6.960776e-03 9.392856e-03 -4.182926e-03 3.397082e-03 1.319002e-02 -9.741362e-03 -1.027359e-02 -5.377924e-03 -4.008236e-03 -2.979115e-03 -2.748029e-03 -2.162393e-03 -1.624707e-03 -7.436348e-04 -5.093042e-04 -3.389110e-05 -5.794208e-04 -1.491821e-04 -5.037330e-04 5.263308e-04 -6.496214e-05 5.796535e-04 -5.477151e-04 2.795498e-04 -2.500035e-04 7.792439e-04 3.009260e-05 4.292347e-04 -5.670678e-04 -1.937701e-04 -3.492768e-04 -1.931260e-05 -1.280686e-04 -4.863010e-04 -2.325165e-04 -4.522620e-04 4.982318e-04 -1.728675e-04 6.224761e-04 -5.873511e-04 5.024299e-04 -4.128720e-04 9.769295e-04 -1.254347e-04 7.244254e-04 -4.885715e-04 1.844539e-04 -5.519616e-04 -1.934394e-04 -5.455615e-04 -8.376891e-04 -1.088958e-03 -1.763410e-03 -2.259080e-03 -1.418458e-03 -1.131717e-02 -2.372181e-02 -1.690572e-02 -1.311278e-02 -7.230607e-03 -3.951685e-03 
6.714437e-04 2.929784e-03 5.765380e-03 7.448191e-03 9.485045e-03 9.103087e-03 6.298221e-03 6.493185e-03 5.167093e-03 8.344461e-03 8.409939e-03 1.572327e-02 1.266940e-02 -1.209771e-05 1.244414e-06 -3.646782e-05 1.303587e-05 -6.259210e-05 7.299450e-06 -8.322098e-05 -2.322328e-05 -1.007732e-02 -1.289835e-02 -8.562655e-03 -7.145949e-03 -4.390618e-03 -3.925610e-03 -2.180833e-03 -2.168848e-03 -9.527145e-04 -1.174095e-03 -3.959257e-04 -6.854045e-04 -1.927928e-04 -4.228896e-04 -9.117316e-05 -1.272205e-04 9.089104e-06 5.281373e-05 -3.051557e-05 1.059186e-04 -6.713561e-05 2.341498e-04 3.717189e-05 4.031104e-04 1.385305e-04 5.608281e-04 4.127927e-04 9.759488e-04 9.790439e-04 1.583439e-03 1.749791e-03 2.364916e-03 2.865610e-03 4.040085e-03 6.855239e-03 8.393711e-03 5.586122e-04 -3.267309e-04 3.434525e-03 -8.504641e-04 -6.568963e-03 -5.121340e-03 3.477875e-03 2.158706e-03 -9.031099e-04 -5.613032e-03 -4.587629e-03 4.418647e-03 1.728261e-03 -1.219553e-03 -1.519465e-03 -5.582231e-03 -4.276702e-03 -3.135862e-03 -2.443522e-03 -2.199196e-03 -1.837571e-03 -1.535170e-03 -1.206503e-03 -7.837503e-04 -6.772953e-04 -2.767387e-04 -4.922322e-04 -5.676280e-05 -3.863604e-04 1.978825e-04 -2.702724e-04 3.209937e-04 -3.058013e-04 3.158682e-04 -2.229606e-04 3.557131e-04 -1.945441e-04 2.146005e-04 -2.832685e-04 -6.748053e-06 -2.150135e-04 -1.422344e-04 -1.518878e-04 -3.311064e-04 -3.748181e-05 -3.456479e-04 2.627300e-04 -3.210728e-04 3.958109e-04 -4.171265e-04 4.500434e-04 -3.732169e-04 5.407850e-04 -3.371841e-04 3.758050e-04 -4.581470e-04 4.828710e-05 -5.446316e-04 -3.784979e-04 -7.496709e-04 -1.118236e-03 -1.343645e-03 -2.238379e-03 -2.428058e-03 -3.835278e-03 -5.327314e-03 -9.154317e-03 -7.857018e-03 -6.985743e-03 -4.338847e-03 -2.315627e-03 
3.229435e-04 1.112568e-03 2.373182e-03 3.075754e-03 3.790895e-03 4.191776e-03 2.877435e-03 3.236376e-03 2.599587e-03 4.034743e-03 4.207198e-03 8.019211e-03 6.604824e-03 6.305370e-07 4.680248e-06 -1.211717e-05 6.990535e-06 -3.692126e-05 1.007059e-06 -5.675886e-05 -1.250747e-05 -4.910636e-03 -6.300053e-03 -4.158421e-03 -3.415486e-03 -2.143854e-03 -1.867725e-03 -1.085333e-03 -1.025304e-03 -5.043623e-04 -5.659971e-04 -2.237648e-04 -3.199043e-04 -9.497508e-05 -1.746722e-04 -2.404922e-05 -3.088384e-05 5.196528e-05 8.418069e-05 9.062646e-05 1.731799e-04 1.511922e-04 3.031565e-04 2.895511e-04 4.939749e-04 4.888852e-04 7.481006e-04 8.155207e-04 1.149371e-03 1.288737e-03 1.669314e-03 1.835438e-03 2.196666e-03 2.260516e-03 2.602301e-03 2.522234e-03 3.078934e-03 1.314369e-03 5.035152e-04 -5.449803e-04 -8.998052e-04 -9.214128e-04 -1.994952e-03 4.356275e-04 -1.147130e-03 -3.357937e-04 -5.005218e-04 -1.510415e-03 8.078108e-04 -8.865033e-04 -3.147547e-04 -2.701342e-04 -2.521787e-03 -2.229010e-03 -2.649343e-03 -2.400709e-03 -2.379711e-03 -2.085390e-03 -1.812172e-03 -1.513394e-03 -1.164248e-03 -9.919448e-04 -6.878566e-04 -6.828887e-04 -3.967040e-04 -4.717652e-04 -1.510297e-04 -3.113702e-04 -2.090375e-05 -2.595524e-04 2.700362e-05 -1.895181e-04 7.957669e-05 -1.467667e-04 3.307273e-05 -1.796281e-04 -5.963095e-05 -1.558013e-04 -1.005645e-04 -1.076226e-04 -1.598653e-04 -5.329734e-05 -1.632645e-04 6.831529e-05 -1.370457e-04 1.420812e-04 -1.532678e-04 1.758672e-04 -1.315270e-04 2.150671e-04 -1.139311e-04 1.533384e-04 -1.744391e-04 1.044743e-06 -2.670903e-04 -2.153279e-04 -4.383836e-04 -5.531141e-04 -8.059169e-04 -1.083392e-03 -1.480099e-03 -1.938822e-03 -2.698726e-03 -3.946907e-03 -3.104695e-03 -3.028290e-03 -1.701962e-03 -1.084644e-03 
-9.196130e-06 -1.015177e-05 -6.876193e-06 -9.247554e-06 -5.282777e-06 -9.527220e-06 -4.682359e-06 -1.188991e-05 -6.699476e-06 -2.041518e-05 -1.407875e-05 -3.312140e-05 -2.284858e-05 1.326704e-05 2.363684e-06 2.844149e-06 -5.524123e-06 -3.310492e-06 -1.031627e-05 -4.398821e-06 -1.032316e-05 -4.675078e-05 -8.305231e-05 -7.312001e-05 -1.032460e-04 -1.040390e-04 -1.182371e-04 -1.222981e-04 -1.206674e-04 -1.204910e-04 -1.049286e-04 -1.065418e-04 -8.320313e-05 -8.628061e-05 -6.205524e-05 -6.299713e-05 -3.534988e-05 -3.223575e-05 -3.998856e-06 7.179711e-06 3.592582e-05 6.588185e-05 1.070225e-04 1.702432e-04 2.322227e-04 3.323972e-04 4.250063e-04 5.784423e-04 7.175818e-04 9.214171e-04 1.103535e-03 1.329255e-03 1.533077e-03 1.717861e-03 1.910029e-03 1.918290e-03 1.967216e-03 1.113728e-03 7.031653e-04 5.562705e-04 -1.307156e-04 -5.037150e-04 -7.756163e-04 -1.337959e-04 -4.676481e-04 -6.206622e-04 -9.422209e-04 -1.189294e-03 -4.977985e-04 -1.031817e-03 -1.222731e-03 -1.490333e-03 -1.951470e-03 -1.887830e-03 -1.911139e-03 -1.751202e-03 -1.624918e-03 -1.408264e-03 -1.220384e-03 -1.008482e-03 -8.363998e-04 -6.760117e-04 -5.466033e-04 -4.418920e-04 -3.466848e-04 -2.776999e-04 -2.020555e-04 -1.644436e-04 -1.104939e-04 -1.042235e-04 -6.958458e-05 -7.713286e-05 -5.777673e-05 -7.619870e-05 -6.595412e-05 -8.838537e-05 -8.462177e-05 -9.972067e-05 -1.022704e-04 -1.086842e-04 -1.075425e-04 -9.731580e-05 -8.478304e-05 -6.212090e-05 -5.199967e-05 -3.113289e-05 -2.527547e-05 -5.528061e-06 3.332737e-06 2.147350e-05 2.780949e-05 3.549785e-05 3.570393e-05 3.648352e-05 3.673184e-05 3.238305e-05 3.231691e-05 1.805841e-05 1.206834e-05 -2.359533e-06 -7.543174e-06 -1.367608e-05 -1.292201e-05 -1.599951e-05 -1.401327e-05 -1.478176e-05 -1.202427e-05 -1.219089e-05 
-3.346074e-04 -1.123303e-03 -2.379766e-03 -3.082459e-03 -3.791672e-03 -4.193134e-03 -2.870537e-03 -3.229388e-03 -2.584785e-03 -4.038524e-03 -4.203440e-03 -8.044812e-03 -6.605396e-03 8.876080e-06 -9.405695e-06 4.666506e-06 -2.277131e-05 2.051551e-05 -2.426004e-05 3.470506e-05 -8.515361e-06 4.839380e-03 6.225641e-03 4.048929e-03 3.281423e-03 1.965766e-03 1.689746e-03 8.709553e-04 8.310484e-04 2.932641e-04 3.967523e-04 4.582167e-05 1.997366e-04 -3.945848e-05 8.248088e-05 -6.688328e-05 1.699771e-05 -2.971842e-05 1.172944e-05 4.666569e-05 2.120451e-05 1.137241e-04 4.440727e-05 2.167260e-04 1.417582e-04 3.723091e-04 2.964688e-04 5.659458e-04 5.077225e-04 7.924825e-04 7.692381e-04 1.021430e-03 1.008947e-03 1.144933e-03 1.102961e-03 1.034949e-03 9.351813e-04 6.111736e-04 3.473400e-04 5.818916e-05 -2.154923e-04 -2.615735e-04 -5.900040e-04 -3.730276e-04 -6.214096e-04 -6.021289e-04 -5.327493e-04 -9.058228e-04 -5.417119e-04 -1.045778e-03 -8.264088e-04 -1.081848e-03 -1.191070e-03 -1.280233e-03 -1.312512e-03 -1.300728e-03 -1.241888e-03 -1.145635e-03 -1.056683e-03 -9.163898e-04 -8.629607e-04 -6.887935e-04 -6.845806e-04 -4.702817e-04 -5.240126e-04 -2.863465e-04 -4.033277e-04 -1.515105e-04 -3.125352e-04 -5.947706e-05 -2.546525e-04 -2.798296e-05 -2.289707e-04 -2.550607e-05 -1.811189e-04 -2.174366e-05 -1.357839e-04 -6.262190e-05 -1.104492e-04 -1.106453e-04 -5.533711e-05 -1.396837e-04 6.701202e-06 -1.700191e-04 6.541550e-05 -1.761578e-04 1.293049e-04 -1.667671e-04 1.663833e-04 -1.386617e-04 2.092790e-04 -4.913459e-05 2.723246e-04 8.836358e-05 3.519310e-04 2.907943e-04 5.202473e-04 6.109031e-04 8.507925e-04 1.094371e-03 1.474968e-03 1.924160e-03 2.683964e-03 3.928367e-03 3.086204e-03 3.009851e-03 1.685557e-03 1.069809e-03 
-6.864814e-04 -2.944860e-03 -5.775635e-03 -7.461295e-03 -9.491035e-03 -9.113525e-03 -6.297388e-03 -6.493025e-03 -5.159788e-03 -8.368918e-03 -8.432119e-03 -1.577473e-02 -1.270420e-02 1.474091e-05 -1.173306e-05 2.471504e-05 -3.646693e-05 3.570642e-05 -4.726096e-05 5.021538e-05 -1.404336e-05 1.008812e-02 1.281843e-02 8.453329e-03 6.931418e-03 4.136679e-03 3.639991e-03 1.856088e-03 1.855584e-03 6.647684e-04 9.419717e-04 1.585996e-04 5.217190e-04 8.842892e-06 2.782905e-04 -6.197241e-05 4.095005e-05 -1.054879e-04 -9.262879e-05 -2.927129e-05 -1.548883e-04 2.043936e-05 -2.333412e-04 7.302088e-05 -2.114200e-04 1.830157e-04 -1.282658e-04 3.154920e-04 2.893613e-06 4.553074e-04 2.124063e-04 6.444623e-04 4.545575e-04 7.728056e-04 5.524845e-04 6.334580e-04 4.044824e-04 2.984297e-04 6.697644e-05 -1.263590e-04 -3.224985e-04 -5.278556e-04 -5.861441e-04 -7.067062e-04 -6.090371e-04 -7.971565e-04 -5.742828e-04 -9.524338e-04 -6.302205e-04 -1.055029e-03 -7.106843e-04 -9.746623e-04 -6.989330e-04 -8.847573e-04 -6.692121e-04 -7.889260e-04 -6.004933e-04 -5.897188e-04 -5.013169e-04 -4.261399e-04 -5.084529e-04 -3.206197e-04 -5.039503e-04 -1.533551e-04 -4.493424e-04 7.712880e-06 -4.110337e-04 1.372243e-04 -3.516198e-04 2.207818e-04 -3.455465e-04 1.679527e-04 -3.955498e-04 9.134154e-05 -3.070915e-04 1.010471e-04 -1.682945e-04 4.645611e-06 -1.128091e-04 -1.472785e-04 3.874889e-06 -2.523706e-04 1.357771e-04 -3.707733e-04 2.404876e-04 -4.371228e-04 3.590077e-04 -4.662163e-04 3.970232e-04 -4.455237e-04 4.592057e-04 -2.527356e-04 5.570529e-04 4.526793e-05 6.400701e-04 4.835618e-04 8.750220e-04 1.172910e-03 1.355926e-03 2.185958e-03 2.346590e-03 3.768603e-03 5.288562e-03 9.117572e-03 7.827047e-03 6.959003e-03 4.316759e-03 2.296267e-03 
-9.695585e-04 -4.183046e-03 -9.535275e-03 -1.286960e-02 -2.103285e-02 -2.012087e-02 -5.323727e-03 -3.494744e-03 -2.888111e-03 -4.046124e-03 -4.190945e-03 -7.908897e-03 -5.210908e-03 6.238192e-05 -9.390848e-05 -1.154037e-04 -1.001488e-04 8.461806e-05 -9.642809e-05 3.112902e-04 -4.931033e-05 5.086686e-03 5.918769e-03 4.030532e-03 3.203019e-03 1.647260e-03 1.700508e-03 3.407473e-04 7.724950e-04 -3.150518e-04 3.845312e-04 -3.308599e-04 4.087584e-04 -2.042615e-04 1.413445e-04 -3.596251e-04 -1.689386e-04 -2.612377e-04 -1.128927e-04 4.669473e-05 -1.783849e-04 -6.086423e-05 -5.038746e-04 -6.146320e-05 -4.359536e-04 1.016665e-04 -3.899570e-04 1.599258e-04 -3.834360e-04 1.974720e-04 -1.849937e-04 4.202187e-04 1.229154e-04 6.066906e-04 2.405130e-04 3.869611e-04 1.235724e-04 2.258665e-04 1.034067e-04 -1.074321e-04 -9.359759e-05 -3.008415e-04 -4.998757e-04 -6.921337e-04 -5.773143e-04 -5.784376e-04 -1.590556e-04 -8.805698e-04 -6.045017e-04 -1.333177e-03 -6.593687e-04 -8.627395e-04 -5.020769e-04 -7.670383e-04 -5.066673e-04 -7.213791e-04 -4.590204e-04 -4.789544e-04 -3.728914e-04 -3.824960e-04 -5.789563e-04 -4.210133e-04 -6.703170e-04 -1.664686e-04 -5.295033e-04 6.616232e-05 -5.605214e-04 1.608619e-04 -4.881193e-04 3.714285e-04 -4.173093e-04 2.423195e-04 -6.329913e-04 8.566341e-05 -3.895511e-04 3.117906e-04 -1.342078e-04 5.722967e-05 -2.405137e-04 -1.913534e-04 2.098875e-05 -2.231943e-04 1.895601e-04 -5.084475e-04 2.468610e-04 -5.602468e-04 5.198236e-04 -5.876609e-04 4.426834e-04 -7.418075e-04 4.526163e-04 -4.497155e-04 6.494914e-04 -9.757328e-05 5.966335e-04 2.809987e-04 7.538121e-04 9.912444e-04 1.152663e-03 1.649047e-03 2.058076e-03 1.305167e-03 1.129531e-02 2.372106e-02 1.690010e-02 1.310941e-02 7.222548e-03 3.945178e-03 
-1.496070e-03 -9.269490e-03 -1.897278e-02 -3.059035e-02 -4.280095e-02 -1.908059e-02 8.993841e-04 -1.709421e-03 9.924859e-04 -2.735194e-03 -2.812585e-04 -3.750397e-03 -1.481611e-03 6.098507e-05 -1.051849e-04 -4.655230e-05 -1.193592e-04 6.118817e-05 -2.063643e-04 2.349235e-04 -6.372420e-05 3.319981e-03 2.158856e-03 1.109456e-03 1.189689e-03 6.029594e-05 8.386326e-04 -8.182904e-04 2.200341e-04 -1.199203e-03 6.917026e-05 -9.436227e-04 3.473158e-04 -2.000920e-04 6.451118e-04 -1.914272e-05 -2.179458e-04 -6.166450e-04 -5.330894e-04 -3.639043e-05 -3.265320e-04 2.804599e-05 -8.809269e-04 -1.974842e-04 -8.867024e-04 -5.913640e-05 -8.595522e-04 3.561073e-05 -9.971034e-04 -2.500913e-04 -9.203458e-04 -4.373956e-05 -3.923671e-04 3.997121e-04 -3.348400e-04 -3.682385e-04 -7.975099e-04 -4.644486e-04 -3.066209e-04 -4.621944e-04 -5.256605e-04 -9.582509e-04 -8.039020e-04 -1.070250e-03 -3.717347e-04 -3.296911e-04 4.207970e-04 -5.122298e-04 -6.643268e-05 -1.073912e-03 -6.388996e-05 -2.934414e-04 4.629957e-04 -2.261773e-04 -9.635024e-05 -7.882011e-04 -2.165339e-04 -5.432851e-05 2.984919e-04 1.619196e-04 -3.774173e-04 -2.796107e-04 -7.211355e-04 1.006334e-04 -5.803038e-04 3.614066e-04 -7.352886e-04 6.463954e-04 -3.860915e-04 1.049525e-03 -4.603854e-04 5.019427e-04 -1.240611e-03 -4.576944e-05 -7.793752e-04 6.140514e-04 3.260438e-05 3.411974e-04 -2.741684e-04 -3.616922e-04 5.004388e-05 -4.493279e-04 4.867286e-04 -8.833917e-04 5.715239e-04 -1.048141e-03 1.049804e-03 -1.228154e-03 7.585999e-04 -1.587850e-03 8.369145e-04 -1.023576e-03 1.107568e-03 -5.992116e-04 6.055227e-04 -1.902831e-04 4.869565e-04 4.993159e-04 -9.830800e-05 8.088858e-04 -7.032793e-04 4.187489e-04 6.792684e-03 3.744518e-02 3.999694e-02 2.599589e-02 1.475421e-02 6.228176e-03 
-1.093040e-03 -9.157952e-03 -1.600531e-02 -2.709562e-02 -2.774591e-02 1.276701e-02 3.277903e-03 -2.123510e-03 4.850243e-03 -1.924233e-03 5.438278e-03 4.723080e-04 3.949351e-03 -5.119162e-03 -2.720388e-04 -1.401333e-03 -1.374834e-04 6.315474e-05 -1.514665e-04 2.076798e-03 1.781857e-03 -1.661177e-03 -2.808540e-03 -2.441435e-03 -1.243689e-03 -1.367743e-03 -3.956216e-04 -1.355851e-03 -4.289064e-04 -1.281526e-03 -4.276420e-04 -1.172289e-03 -3.812083e-04 -1.832419e-04 6.914183e-04 6.928766e-04 -2.364656e-04 -6.074485e-04 -1.251422e-03 -3.759809e-04 -8.636528e-04 2.011070e-04 -9.763292e-04 -6.631920e-05 -1.172091e-03 -1.478102e-04 -1.120122e-03 3.975970e-05 -1.112134e-03 -3.359052e-04 -1.126568e-03 -3.053149e-04 -5.723388e-04 1.965636e-04 -4.164513e-04 -5.213115e-04 -7.659950e-04 -5.086696e-04 -4.477785e-05 -1.396636e-04 -2.458023e-04 -7.485822e-04 4.199818e-05 -4.152957e-04 5.264173e-04 -1.150107e-04 5.423573e-04 -2.964951e-04 3.446835e-04 -7.199541e-04 -2.707286e-05 -6.476725e-04 3.515268e-04 -5.940087e-04 -5.247011e-04 -1.410911e-03 -7.336779e-04 -4.102217e-04 7.605728e-05 1.212536e-04 -4.414675e-04 -1.455950e-04 -7.206766e-04 2.127535e-04 -7.764343e-04 4.279609e-04 -8.114601e-04 1.020998e-03 -2.680303e-04 1.292444e-03 -5.740940e-04 6.251542e-04 -1.304548e-03 -3.874602e-05 -9.901952e-04 3.426993e-04 4.039167e-05 3.707174e-04 1.256400e-04 -5.057430e-04 2.632853e-04 -9.312322e-04 8.897509e-04 -1.186110e-03 1.172720e-03 -1.560144e-03 1.434170e-03 -1.897493e-03 1.237449e-03 -1.961543e-03 1.371194e-03 -1.366525e-03 1.248640e-03 -8.630776e-04 4.652222e-04 -7.823975e-05 -8.110006e-05 7.702913e-04 -1.716769e-03 1.688402e-03 -4.064752e-03 4.409434e-03 -1.179685e-02 1.806734e-02 3.722857e-02 2.020981e-02 1.317275e-02 3.739104e-03 
2.690538e-04 -2.974202e-03 -3.727592e-03 -6.366897e-03 -6.518209e-04 2.050566e-02 -1.107711e-03 -4.912813e-03 9.642301e-04 -5.484524e-03 4.020160e-04 -6.479131e-03 3.020837e-03 6.913942e-03 6.553760e-03 5.947058e-04 1.920267e-03 -1.884285e-03 -1.511139e-03 -5.260459e-03 -7.212718e-03 -5.912578e-04 1.773525e-03 1.600397e-03 1.002804e-03 5.375946e-04 4.471515e-04 2.830895e-05 1.656012e-04 -1.352547e-04 -6.021468e-05 -3.900222e-04 -3.683080e-04 -4.881708e-05 2.691664e-04 6.107973e-04 -6.849435e-05 -1.301925e-04 -8.731905e-04 -3.307063e-04 -7.522407e-04 1.763058e-04 -4.867237e-04 1.442287e-04 -6.517770e-04 2.730745e-05 -5.744926e-04 2.009958e-04 -3.681284e-04 1.658649e-04 -2.876363e-04 1.429536e-04 -3.480990e-05 2.752724e-04 4.998395e-05 -5.327256e-05 -2.064367e-04 -4.750887e-04 -4.362807e-04 -7.044602e-04 -8.691398e-04 -1.111035e-03 -4.066058e-04 -5.620396e-04 9.730781e-08 -6.324176e-04 -1.737956e-04 -4.336184e-04 3.521908e-04 -1.712450e-04 1.572556e-04 -4.553048e-04 1.331274e-04 -3.905261e-04 -2.685504e-04 -7.391834e-04 -4.902479e-04 -4.293341e-04 -2.739348e-04 -1.353199e-04 -3.692751e-04 -4.334758e-05 -4.500881e-04 7.276739e-05 -6.237421e-04 1.807964e-04 -5.350330e-04 5.992846e-04 -2.830099e-04 5.963558e-04 -5.097239e-04 3.578785e-04 -6.162524e-04 9.683523e-05 -6.094782e-04 -8.032338e-05 -1.610086e-04 6.273253e-05 2.403321e-04 -3.397283e-04 2.444743e-04 -7.813490e-04 6.212553e-04 -8.044968e-04 9.348436e-04 -1.100987e-03 9.248326e-04 -1.300843e-03 1.036612e-03 -1.042984e-03 1.160171e-03 -7.428344e-04 9.099600e-04 -2.887909e-04 6.320477e-04 5.868294e-04 3.452139e-04 1.538117e-03 -4.503650e-04 3.065903e-03 -1.845211e-03 6.235252e-03 -1.540519e-02 -7.148703e-03 9.222458e-03 3.712978e-03 4.558449e-03 5.450016e-04 
-5.424831e-05 -1.221223e-03 -1.657404e-03 -1.358959e-03 8.405329e-05 6.276222e-03 -2.643278e-03 -4.310742e-03 -3.911544e-03 -8.073291e-03 -9.525365e-03 -1.734064e-02 -2.156043e-02 -2.271186e-02 -1.150852e-02 -5.968527e-03 -2.198894e-03 2.475038e-03 6.927741e-03 1.093567e-02 2.253986e-02 2.266630e-02 1.515740e-02 1.021700e-02 6.137340e-03 4.052331e-03 2.482452e-03 1.549444e-03 9.777852e-04 5.319644e-04 3.182387e-04 6.787721e-05 -2.519082e-05 2.026490e-05 5.053787e-05 1.756685e-04 -9.641489e-05 -7.024941e-05 -4.360174e-04 -2.144097e-04 -4.820662e-04 -5.999742e-05 -3.817871e-04 -3.923316e-05 -4.320983e-04 -4.577253e-05 -3.540466e-04 9.772495e-05 -1.303563e-04 3.176664e-04 1.769858e-04 6.360624e-04 6.357301e-04 1.064375e-03 1.103940e-03 1.386159e-03 1.517028e-03 1.402997e-03 9.599622e-04 -2.634927e-04 1.337859e-03 1.852815e-03 5.468913e-04 -3.338638e-04 -1.688199e-03 -5.998832e-04 3.081644e-04 -1.671375e-03 -1.985963e-03 -3.866057e-03 -2.400681e-03 -1.662771e-03 -1.861308e-03 -1.372247e-03 -9.851184e-04 -8.097761e-04 -5.402000e-04 -4.720582e-04 -3.695899e-04 -2.823587e-04 -3.373476e-04 -1.492967e-04 -3.238154e-04 -3.957295e-05 -3.442124e-04 7.696195e-05 -2.730778e-04 2.565970e-04 -1.806826e-04 2.697769e-04 -2.388577e-04 1.925887e-04 -2.542265e-04 8.205994e-05 -2.579803e-04 -4.295722e-05 -1.036320e-04 -3.023314e-05 8.696427e-05 -1.946453e-04 1.227388e-04 -3.986374e-04 2.757814e-04 -4.406522e-04 4.242703e-04 -5.639651e-04 4.352887e-04 -6.238792e-04 5.118129e-04 -4.970493e-04 5.319014e-04 -3.617641e-04 4.012684e-04 -1.055249e-04 2.788868e-04 3.273009e-04 7.737452e-05 8.339058e-04 -2.235280e-04 1.727282e-03 -5.096150e-04 3.360577e-03 -4.865574e-03 -3.157354e-03 1.664052e-03 9.217247e-04 1.764002e-03 2.018208e-04 
