# vtk DataFile Version 2.0
Comment goes here
ASCII

DATASET STRUCTURED_POINTS
FIELD FieldData 1
TIME 1 1 double
0.41000000
DIMENSIONS    128   16   1

ORIGIN    0.000   0.000   0.000
SPACING   0.0078125 0.015625   1.000

POINT_DATA   2048
SCALARS uY double
LOOKUP_TABLE default

2.790385e-05 2.596563e-05 2.394129e-05 2.389003e-05 2.205294e-05 2.175214e-05 1.710321e-05 1.266271e-05 -1.095018e-06 -1.196011e-05 -2.609141e-05 -3.356967e-05 -4.409529e-05 -4.951744e-05 -5.644503e-05 -5.979554e-05 -5.730032e-05 -6.266772e-05 -5.433373e-05 -6.714636e-05 -5.242167e-05 -6.162370e-05 -2.787795e-05 -1.479641e-05 3.021806e-05 4.094157e-05 7.219158e-05 7.248017e-05 9.702562e-05 1.007336e-04 1.223752e-04 1.138479e-04 1.100058e-04 7.695147e-05 5.958505e-05 2.076935e-05 -2.086089e-06 -5.761949e-05 -9.047228e-05 -1.475483e-04 -1.612353e-04 -2.049978e-04 -2.124211e-04 -2.681819e-04 -2.864585e-04 -3.533952e-04 -3.801740e-04 -4.579116e-04 -5.095661e-04 -6.140751e-04 -7.158251e-04 -8.512761e-04 -9.998754e-04 -1.092015e-03 -1.214991e-03 -1.088101e-03 -8.940778e-04 1.726794e-04 -1.060216e-04 5.490520e-04 6.841001e-05 -7.040082e-04 5.002182e-04 2.251219e-04 1.146669e-03 2.368288e-04 -3.504030e-04 5.961589e-04 6.711989e-05 1.146326e-03 6.006566e-04 -3.683853e-04 6.821269e-04 1.191110e-03 1.258683e-03 1.140150e-03 1.112891e-03 9.487267e-04 8.597750e-04 6.493715e-04 5.509438e-04 3.824101e-04 3.415676e-04 2.397706e-04 2.200540e-04 1.506684e-04 1.308622e-04 1.067711e-04 9.160879e-05 1.026242e-04 7.418403e-05 1.059931e-04 7.011930e-05 1.195699e-04 7.986078e-05 1.310197e-04 8.568188e-05 1.224623e-04 7.386402e-05 9.843808e-05 5.994934e-05 6.804120e-05 2.696095e-05 8.691657e-06 -1.919969e-05 -2.516104e-05 -2.003995e-05 -2.580283e-05 -2.514201e-05 -4.504565e-05 -3.622720e-05 -4.015068e-05 -1.839819e-05 -1.770810e-05 2.031268e-06 1.031168e-05 3.902571e-05 6.143361e-05 8.904987e-05 1.030084e-04 1.055772e-04 9.419722e-05 7.730756e-05 6.188345e-05 5.144262e-05 4.220914e-05 3.621407e-05 3.132368e-05 
1.049204e-03 7.086495e-04 3.029914e-03 1.274387e-03 4.922371e-03 -3.580125e-03 -4.215310e-03 4.711683e-03 1.163287e-03 5.311133e-03 4.918577e-03 1.112358e-02 1.548682e-02 1.666275e-02 6.491669e-03 5.044446e-03 1.881455e-03 -2.080645e-03 -3.998324e-03 -8.068167e-03 -1.699248e-02 -1.617455e-02 -9.490093e-03 -6.019431e-03 -3.440323e-03 -2.481147e-03 -1.190493e-03 -1.054420e-03 -2.233177e-04 -4.472085e-04 2.220033e-04 -1.818958e-04 3.891496e-04 -1.139331e-04 3.881176e-04 -1.169219e-04 3.243077e-04 -1.406662e-04 2.100175e-04 -1.646067e-04 1.136782e-04 -1.325872e-04 4.460389e-05 -1.075269e-04 -5.371280e-05 -1.224934e-04 -1.767450e-04 -1.972233e-04 -3.835886e-04 -4.651660e-04 -8.589418e-04 -1.172292e-03 -1.881973e-03 -2.718419e-03 -4.173391e-03 -6.124366e-03 -4.291164e-03 1.795444e-03 -2.634178e-03 -3.725134e-03 2.889466e-03 7.213823e-03 4.887685e-03 -6.326564e-03 -5.875679e-03 1.414779e-03 7.692479e-03 5.494815e-03 -6.146516e-03 -3.994104e-03 1.122123e-03 -5.178755e-04 1.975859e-03 4.782085e-03 4.153658e-03 2.986661e-03 2.119678e-03 1.684795e-03 1.160605e-03 9.826575e-04 5.902457e-04 5.613370e-04 3.155937e-04 3.538822e-04 1.943562e-04 1.918273e-04 1.280966e-04 7.632816e-05 1.572992e-04 1.440749e-05 2.259031e-04 -5.104703e-05 2.990655e-04 -1.003211e-04 3.749540e-04 -1.344306e-04 4.102368e-04 -1.710925e-04 3.761306e-04 -1.802132e-04 3.032644e-04 -1.312193e-04 1.685118e-04 -5.928530e-05 -2.685425e-05 8.816771e-05 -2.111631e-04 2.885690e-04 -4.390501e-04 4.619397e-04 -6.645868e-04 6.488258e-04 -8.203083e-04 7.576246e-04 -9.420453e-04 6.877211e-04 -9.432267e-04 3.560839e-04 -7.288135e-04 -5.694143e-04 -1.322536e-04 -2.885839e-03 5.082091e-03 -1.448140e-03 -1.472052e-03 -1.279921e-03 -6.382789e-04 -2.561172e-04 
1.649918e-03 1.767951e-03 5.665236e-03 4.324157e-03 1.355323e-02 -1.229959e-02 -1.591024e-02 9.940224e-03 -2.798974e-03 7.583007e-03 -9.172065e-04 1.061689e-02 4.334730e-04 -6.216287e-03 -2.712932e-03 -1.744651e-03 -3.735142e-04 -1.888377e-04 2.660637e-03 1.233819e-03 7.911863e-03 -3.383481e-03 -5.961733e-03 -2.328590e-03 -2.718484e-03 -1.172291e-03 -1.257060e-03 -7.962869e-04 -4.771092e-04 -5.692858e-04 1.321198e-04 -3.289201e-04 4.546875e-04 -3.322835e-04 4.452215e-04 -3.729236e-04 4.018560e-04 -3.831118e-04 2.094761e-04 -4.396664e-04 5.401856e-05 -3.219776e-04 -2.883510e-05 -2.768079e-04 -2.686848e-04 -3.760024e-04 -5.592668e-04 -5.580328e-04 -9.732081e-04 -1.078776e-03 -1.836112e-03 -2.288471e-03 -3.465626e-03 -4.616950e-03 -6.590448e-03 -7.780218e-03 -1.887417e-03 7.859272e-03 -1.218911e-03 -2.552152e-03 5.254077e-03 7.175353e-03 6.818166e-03 -3.476900e-03 -1.693697e-03 2.693703e-03 6.457394e-03 6.137352e-03 -5.500649e-03 -1.426714e-03 2.972518e-03 -3.244968e-03 -1.570565e-03 2.675394e-03 2.834878e-03 2.057366e-03 1.298341e-03 1.245834e-03 6.619636e-04 7.626550e-04 1.875673e-04 4.431566e-04 1.005323e-04 3.997340e-04 1.035127e-04 1.793811e-04 2.834847e-05 -1.148189e-07 1.744791e-04 -7.377315e-05 3.401367e-04 -2.226473e-04 4.976993e-04 -3.146511e-04 6.790868e-04 -3.729526e-04 7.702076e-04 -4.599711e-04 6.873385e-04 -4.827596e-04 5.826952e-04 -3.235647e-04 3.516393e-04 -1.895137e-04 -6.295906e-05 1.419352e-04 -3.657498e-04 5.979313e-04 -8.665615e-04 8.774426e-04 -1.393761e-03 1.292458e-03 -1.710983e-03 1.556740e-03 -2.093374e-03 1.448763e-03 -2.273361e-03 1.072479e-03 -1.897653e-03 -8.334812e-05 -3.505122e-04 -4.048805e-03 1.620399e-02 -6.497208e-03 -6.778179e-03 -2.613763e-04 -1.339558e-03 4.857540e-04 
2.138246e-03 4.373118e-03 1.006665e-02 1.371982e-02 3.033665e-02 -2.895210e-03 -1.079748e-02 3.554039e-03 -5.271153e-03 8.133341e-04 -4.720757e-03 -2.929625e-03 -4.880524e-03 4.867789e-03 -1.449983e-03 2.255307e-03 -1.317904e-03 1.433701e-03 -1.836843e-03 7.666328e-04 -3.513632e-03 3.412589e-03 3.943295e-03 1.997895e-03 2.172625e-03 1.075916e-03 1.499274e-03 2.944568e-04 1.023665e-03 -1.201151e-04 1.214820e-03 1.912011e-05 1.415175e-03 -1.774847e-04 1.152380e-03 -3.744518e-04 1.045886e-03 -3.907018e-04 7.545774e-04 -4.903259e-04 5.905324e-04 -1.789012e-04 6.449284e-04 4.524608e-05 4.316542e-04 1.209641e-04 3.317662e-04 4.150996e-04 4.453371e-04 7.451694e-04 5.897784e-04 1.155415e-03 1.173318e-03 2.389846e-03 2.886032e-03 4.475217e-03 1.692276e-03 -1.939355e-03 1.183089e-03 3.033428e-03 -2.687323e-03 -6.627752e-03 -3.376016e-03 2.755384e-03 4.854887e-03 -1.334868e-03 -5.623257e-03 -3.158664e-03 3.391301e-03 3.768415e-03 -6.655078e-04 1.213113e-03 5.427916e-04 -1.937366e-03 -2.177267e-03 -1.323808e-03 -1.238228e-03 -2.966865e-04 -6.482607e-04 -1.676400e-07 -6.789297e-04 4.989167e-05 -3.453250e-04 3.941064e-04 -6.284097e-05 2.109763e-04 -5.861449e-05 5.873033e-05 3.030746e-04 -3.743283e-06 5.638146e-04 -2.825552e-04 8.054471e-04 -4.562959e-04 1.065519e-03 -6.321906e-04 1.158282e-03 -8.919833e-04 9.566340e-04 -1.038190e-03 8.258658e-04 -7.886837e-04 5.633060e-04 -6.189655e-04 -1.732103e-06 -3.455595e-05 -2.258821e-04 7.966663e-04 -8.872447e-04 1.204344e-03 -1.627455e-03 1.995976e-03 -1.918429e-03 2.645363e-03 -2.419494e-03 2.800313e-03 -2.629087e-03 3.012559e-03 -1.872147e-03 2.779171e-03 3.827148e-05 -8.260230e-04 1.106639e-02 -3.772744e-02 -2.319034e-02 -4.988175e-03 -4.528277e-03 -9.341303e-07 
4.571885e-04 4.220973e-03 6.805268e-03 1.452181e-02 2.423630e-02 2.131147e-02 1.282420e-02 -6.892843e-04 1.076518e-04 2.816418e-03 -3.052346e-04 4.847805e-03 1.017676e-03 3.865607e-04 -3.154784e-04 6.022986e-04 -4.740790e-04 5.156346e-04 -4.884463e-04 2.528920e-04 -2.795012e-04 -1.906342e-03 -3.914660e-03 -6.908933e-04 -1.921572e-03 -3.274641e-05 -9.904029e-04 -1.281865e-04 -5.865955e-04 -2.826570e-04 8.401636e-06 -1.126425e-04 5.099905e-04 -2.077254e-04 5.731326e-04 -3.581257e-04 6.649179e-04 -3.795510e-04 5.989393e-04 -4.637983e-04 5.475825e-04 -3.078848e-04 5.756383e-04 -2.332294e-04 3.585418e-04 -2.955820e-04 1.434325e-04 -2.620851e-04 -2.215700e-05 -2.979497e-04 -3.011574e-04 -4.349273e-04 -4.903668e-04 -3.544688e-04 -4.891222e-04 -9.439561e-04 -1.354787e-03 -6.116058e-04 -7.739466e-04 -1.816661e-03 2.361924e-03 6.042059e-03 2.888857e-03 -2.366640e-03 -4.222427e-03 1.335600e-03 5.509203e-03 2.073669e-03 -2.838629e-03 -4.284024e-03 -1.154501e-03 6.153489e-04 1.580697e-04 1.820888e-03 9.283553e-04 1.060318e-03 3.273519e-04 7.606544e-04 1.265110e-04 5.658176e-04 -1.396306e-04 4.376987e-04 -3.337666e-05 5.865095e-04 1.323129e-04 4.582427e-04 1.927802e-04 3.630623e-04 4.648865e-04 2.509562e-04 6.224226e-04 -2.294910e-05 7.733200e-04 -2.443205e-04 8.947919e-04 -5.074567e-04 8.900767e-04 -8.130085e-04 7.085144e-04 -1.014906e-03 5.961955e-04 -9.045637e-04 4.465190e-04 -7.760543e-04 1.333813e-04 -3.274210e-04 4.811803e-05 2.988877e-04 -3.522765e-04 6.373803e-04 -8.513586e-04 1.204666e-03 -1.105271e-03 1.657419e-03 -1.550172e-03 1.735727e-03 -1.921865e-03 1.815196e-03 -1.804771e-03 1.839977e-03 -1.430827e-03 1.532113e-03 -9.129758e-03 -4.152155e-02 -2.015469e-02 -8.574178e-03 -5.512417e-03 -1.716791e-03 
1.084313e-04 1.355621e-03 2.242712e-03 4.599206e-03 6.001764e-03 1.612599e-02 1.507496e-02 5.386109e-04 3.161774e-03 3.915882e-03 2.601635e-03 9.805766e-03 5.208440e-03 2.771831e-04 -3.543946e-04 5.969129e-04 -5.051231e-04 5.334439e-04 -4.992431e-04 2.793677e-04 -1.920282e-04 -5.736104e-03 -7.345466e-03 -2.724448e-03 -3.337885e-03 -1.240328e-03 -1.560416e-03 -6.051414e-04 -6.308377e-04 -3.482872e-04 -7.438466e-05 -2.049431e-04 2.735420e-04 -1.793127e-04 4.149226e-04 -2.258040e-04 4.591693e-04 -2.672933e-04 4.354510e-04 -3.176585e-04 3.536657e-04 -3.670540e-04 2.143859e-04 -4.695002e-04 -4.205848e-05 -6.849967e-04 -4.436740e-04 -1.079744e-03 -1.107402e-03 -1.876123e-03 -2.319663e-03 -3.484100e-03 -4.628758e-03 -6.854647e-03 -9.254953e-03 -1.111795e-02 -1.241663e-03 1.081908e-02 4.043865e-04 -3.156206e-03 5.152307e-03 4.725065e-03 4.147873e-03 5.383606e-04 4.367979e-04 3.569313e-03 4.502875e-03 4.527739e-03 -1.782909e-03 1.516957e-03 5.826698e-03 -3.178479e-03 -3.339073e-03 3.358595e-03 2.837513e-03 2.288376e-03 1.212283e-03 1.166764e-03 5.453132e-04 7.261753e-04 2.595351e-04 5.347355e-04 1.790296e-04 4.593823e-04 2.049980e-04 3.997442e-04 2.871011e-04 3.379611e-04 3.905329e-04 2.220703e-04 4.617334e-04 6.862188e-05 5.245338e-04 -9.485551e-05 5.409033e-04 -2.794643e-04 5.030619e-04 -4.440032e-04 4.219811e-04 -5.432630e-04 3.295940e-04 -5.305410e-04 2.325781e-04 -4.182823e-04 1.171213e-04 -1.978920e-04 3.740519e-06 7.358595e-05 -1.748969e-04 3.047939e-04 -3.995743e-04 4.962178e-04 -6.278953e-04 5.580157e-04 -8.977890e-04 3.694889e-04 -1.206513e-03 -1.200893e-04 -1.490740e-03 -8.632089e-04 -1.862983e-03 -1.087616e-03 -1.067176e-02 -1.645218e-02 -5.473577e-03 -5.811258e-03 -2.390072e-03 -1.944357e-03 
3.093196e-04 1.536154e-03 2.621577e-03 3.961544e-03 4.783550e-03 6.059907e-03 6.023243e-03 4.327675e-03 3.729727e-03 5.984921e-03 4.935829e-03 1.284436e-02 1.193754e-02 2.057498e-04 -5.862010e-05 1.957833e-04 -1.418537e-04 1.518654e-04 -1.752884e-04 5.254508e-05 -1.848780e-04 -9.660642e-03 -1.027072e-02 -4.394073e-03 -5.247287e-03 -2.389707e-03 -2.901420e-03 -1.295194e-03 -1.510503e-03 -7.087530e-04 -6.814061e-04 -3.969872e-04 -1.958224e-04 -2.686794e-04 4.993920e-05 -2.379069e-04 1.635295e-04 -2.433234e-04 1.850559e-04 -2.715652e-04 1.494644e-04 -3.016846e-04 6.557483e-05 -3.677593e-04 -9.721493e-05 -5.006038e-04 -3.478517e-04 -7.350476e-04 -7.478018e-04 -1.193375e-03 -1.451909e-03 -2.083464e-03 -2.712117e-03 -3.803718e-03 -4.980178e-03 -5.431579e-03 -1.272008e-03 3.160945e-03 3.322603e-04 3.802469e-04 3.148313e-04 -4.379927e-03 -2.211965e-03 3.322553e-03 5.436346e-03 1.688848e-03 -2.732194e-03 -3.094106e-04 3.450947e-03 6.115229e-03 4.376243e-03 1.100238e-04 4.270313e-04 2.151840e-03 1.513370e-03 1.433818e-03 8.502286e-04 9.516876e-04 5.350233e-04 6.945438e-04 3.626510e-04 5.524058e-04 3.048208e-04 4.782004e-04 3.034031e-04 4.001780e-04 3.237437e-04 3.174121e-04 3.692179e-04 2.193137e-04 4.074940e-04 9.708198e-05 4.338244e-04 -3.094556e-05 4.369180e-04 -1.613684e-04 4.040496e-04 -2.776750e-04 3.361053e-04 -3.463967e-04 2.570085e-04 -3.377047e-04 1.647116e-04 -2.635323e-04 5.323984e-05 -1.142909e-04 -5.968592e-05 7.276760e-05 -2.177068e-04 2.323800e-04 -4.110848e-04 3.565088e-04 -6.199694e-04 3.690650e-04 -8.829631e-04 1.788193e-04 -1.197741e-03 -2.807720e-04 -1.559407e-03 -1.156020e-03 -2.066083e-03 -2.674873e-03 -3.394864e-03 -6.488538e-03 -3.442870e-03 -3.714096e-03 -1.851426e-03 -1.100877e-03 
5.693885e-05 4.518820e-04 8.705876e-04 1.558762e-03 1.786210e-03 2.722341e-03 2.728693e-03 1.998441e-03 1.905309e-03 2.848766e-03 2.397389e-03 6.574708e-03 5.988424e-03 1.000600e-04 -5.899571e-05 1.279515e-04 -1.092163e-04 1.144148e-04 -1.148900e-04 5.367285e-05 -8.801909e-05 -4.645988e-03 -4.868732e-03 -2.048404e-03 -2.506019e-03 -1.192721e-03 -1.379840e-03 -6.605648e-04 -6.858936e-04 -3.568881e-04 -2.859091e-04 -2.013305e-04 -6.659545e-05 -1.402355e-04 3.432711e-05 -1.381359e-04 5.892940e-05 -1.725180e-04 2.694209e-05 -2.378320e-04 -5.477772e-05 -3.357328e-04 -1.887555e-04 -4.793654e-04 -3.878566e-04 -6.874472e-04 -6.675504e-04 -9.843986e-04 -1.054923e-03 -1.407698e-03 -1.579894e-03 -1.968486e-03 -2.201617e-03 -2.545973e-03 -2.695635e-03 -2.603878e-03 -1.634339e-03 2.913597e-04 -3.613796e-05 2.727513e-04 1.509871e-03 1.584182e-03 1.801959e-03 1.352299e-03 1.586773e-03 1.965301e-03 1.821906e-03 1.804572e-03 8.437005e-04 1.035278e-03 1.118238e-03 2.791911e-04 5.473192e-04 9.982755e-04 7.515678e-04 8.303085e-04 5.719867e-04 6.273158e-04 4.280072e-04 4.925917e-04 3.486712e-04 4.188587e-04 3.158784e-04 3.736471e-04 3.056426e-04 3.330983e-04 3.050567e-04 2.873303e-04 3.055554e-04 2.285742e-04 2.982203e-04 1.567518e-04 2.808157e-04 7.658943e-05 2.497725e-04 -6.378862e-06 2.058897e-04 -7.996538e-05 1.548838e-04 -1.294467e-04 1.050208e-04 -1.431050e-04 6.020041e-05 -1.189743e-04 2.013176e-05 -6.069529e-05 -1.757413e-05 1.458264e-05 -6.531663e-05 8.145483e-05 -1.292889e-04 1.190007e-04 -2.133431e-04 9.741986e-05 -3.297267e-04 -1.601125e-05 -4.910396e-04 -2.440140e-04 -7.177911e-04 -6.103045e-04 -1.090799e-03 -1.195418e-03 -1.801351e-03 -2.424385e-03 -1.352394e-03 -1.632926e-03 -6.989920e-04 -6.186115e-04 
-5.874781e-06 -8.315946e-06 -9.863934e-06 -1.205688e-05 -1.228481e-05 -1.448556e-05 -1.359048e-05 -1.564365e-05 -1.405259e-05 -1.581035e-05 -1.339921e-05 -1.435133e-05 -1.137958e-05 -2.751297e-06 -9.630014e-07 -1.832743e-06 -5.280696e-07 -1.551783e-06 -2.132290e-07 -1.665647e-06 6.649733e-07 -4.127582e-05 -4.195948e-05 -3.627336e-05 -3.064806e-05 -2.183013e-05 -1.645876e-05 -7.308065e-06 -1.113629e-06 9.176363e-06 1.682593e-05 2.381256e-05 2.830295e-05 2.619295e-05 2.699795e-05 1.455881e-05 1.191188e-05 -1.469168e-05 -2.228244e-05 -6.358695e-05 -7.428385e-05 -1.296429e-04 -1.475134e-04 -2.211779e-04 -2.534640e-04 -3.468449e-04 -3.989842e-04 -5.127018e-04 -5.925065e-04 -7.290657e-04 -8.412439e-04 -9.914090e-04 -1.113586e-03 -1.220494e-03 -1.258691e-03 -1.139845e-03 -8.145031e-04 -2.498883e-04 -3.569293e-04 -1.829617e-04 -3.510451e-05 -2.201160e-04 1.494012e-04 5.920535e-04 8.835941e-04 8.492832e-04 6.042659e-04 8.777645e-04 1.055965e-03 1.274690e-03 1.159155e-03 7.837672e-04 7.512302e-04 7.189034e-04 6.253590e-04 5.634862e-04 4.913143e-04 4.369538e-04 4.056561e-04 3.601652e-04 3.585967e-04 3.208488e-04 3.344222e-04 3.029038e-04 3.160396e-04 2.881190e-04 2.927325e-04 2.704575e-04 2.641471e-04 2.462185e-04 2.268421e-04 2.112250e-04 1.811520e-04 1.669682e-04 1.300648e-04 1.158913e-04 7.710688e-05 6.288884e-05 2.855637e-05 1.692802e-05 -6.822119e-06 -1.491275e-05 -2.690669e-05 -3.116542e-05 -2.878171e-05 -2.483383e-05 -9.027629e-06 -1.436703e-06 1.740839e-05 2.329897e-05 4.141694e-05 4.727311e-05 6.226424e-05 6.610699e-05 7.440404e-05 7.588970e-05 7.829545e-05 7.835463e-05 7.463435e-05 7.045436e-05 5.872833e-05 4.889326e-05 3.368935e-05 2.480753e-05 1.364484e-05 7.839094e-06 1.150024e-06 -2.360863e-06 
-6.918547e-05 -4.685072e-04 -8.910187e-04 -1.583621e-03 -1.812832e-03 -2.753162e-03 -2.758548e-03 -2.030034e-03 -1.932640e-03 -2.874690e-03 -2.417836e-03 -6.590646e-03 -6.000485e-03 -1.040903e-04 5.865546e-05 -1.302731e-04 1.085940e-04 -1.158274e-04 1.141942e-04 -5.468238e-05 8.689949e-05 4.560549e-03 4.775561e-03 1.962705e-03 2.425612e-03 1.125623e-03 1.317263e-03 6.107254e-04 6.423673e-04 3.290719e-04 2.694603e-04 1.951641e-04 6.604612e-05 1.306274e-04 -4.685292e-05 9.343051e-05 -1.158641e-04 4.958212e-05 -1.780938e-04 -1.911180e-05 -2.456972e-04 -1.114097e-04 -3.261244e-04 -2.335925e-04 -4.333971e-04 -3.880787e-04 -5.674850e-04 -5.609727e-04 -7.146821e-04 -7.298300e-04 -8.520562e-04 -8.582539e-04 -9.332708e-04 -8.781813e-04 -8.763378e-04 -6.871044e-04 -5.666302e-04 -1.937205e-04 -1.042909e-04 1.376982e-04 3.568005e-04 4.811617e-04 6.290783e-04 6.564598e-04 7.329900e-04 7.824538e-04 7.363759e-04 7.201236e-04 5.762772e-04 5.083351e-04 4.939361e-04 3.258871e-04 4.127810e-04 3.273276e-04 4.158170e-04 3.033954e-04 4.037668e-04 2.642559e-04 3.822141e-04 2.292349e-04 3.563343e-04 2.118751e-04 3.344654e-04 2.186509e-04 3.113480e-04 2.358911e-04 2.750904e-04 2.541713e-04 2.252852e-04 2.672952e-04 1.603568e-04 2.670913e-04 8.391694e-05 2.526336e-04 5.778719e-06 2.247856e-04 -6.484958e-05 1.849342e-04 -1.169590e-04 1.399094e-04 -1.385173e-04 9.293139e-05 -1.295818e-04 4.386106e-05 -8.461842e-05 9.574478e-06 3.729394e-06 -7.660570e-06 1.133206e-04 -1.764351e-05 2.303234e-04 -4.013366e-06 3.569764e-04 5.369506e-05 4.932571e-04 1.791586e-04 6.525211e-04 4.011308e-04 8.621844e-04 7.436248e-04 1.197522e-03 1.281217e-03 1.856371e-03 2.464927e-03 1.372994e-03 1.644743e-03 6.989965e-04 6.130956e-04 
-3.288408e-04 -1.558621e-03 -2.645578e-03 -3.989678e-03 -4.811934e-03 -6.093839e-03 -6.054138e-03 -4.363546e-03 -3.762984e-03 -6.023563e-03 -4.968064e-03 -1.287331e-02 -1.195650e-02 -2.094430e-04 5.836947e-05 -1.969542e-04 1.412779e-04 -1.533898e-04 1.724151e-04 -5.765752e-05 1.775645e-04 9.543581e-03 1.015333e-02 4.300694e-03 5.176674e-03 2.347086e-03 2.865606e-03 1.274388e-03 1.499459e-03 7.360989e-04 7.425930e-04 4.954708e-04 3.056513e-04 3.797160e-04 6.244719e-05 3.415853e-04 -5.836884e-05 2.982706e-04 -1.518760e-04 2.202638e-04 -2.056557e-04 1.510730e-04 -2.257463e-04 5.958444e-05 -2.661228e-04 -6.836043e-05 -3.278472e-04 -2.060975e-04 -3.953352e-04 -3.281836e-04 -4.482200e-04 -4.002794e-04 -4.531930e-04 -3.887110e-04 -3.991673e-04 -3.081475e-04 -3.045902e-04 -1.679832e-04 -1.961982e-04 -9.237084e-05 -1.001682e-04 -4.373685e-05 1.780500e-05 1.367024e-04 2.153766e-04 3.041302e-04 2.995405e-04 3.569392e-04 3.528852e-04 3.294343e-04 3.783698e-04 2.350482e-04 3.992920e-04 2.146912e-04 4.271680e-04 1.652104e-04 4.266327e-04 1.114752e-04 4.031406e-04 5.020393e-05 3.464721e-04 2.266110e-05 3.213029e-04 7.797427e-05 3.070964e-04 1.492319e-04 2.501109e-04 2.233486e-04 1.731003e-04 3.000477e-04 6.737846e-05 3.529552e-04 -5.723394e-05 3.864555e-04 -1.737862e-04 3.973018e-04 -2.702150e-04 3.731937e-04 -3.331743e-04 3.227193e-04 -3.325694e-04 2.449064e-04 -2.919470e-04 1.102798e-04 -1.978084e-04 -3.939107e-06 1.487303e-05 -8.079393e-05 2.625741e-04 -1.824089e-04 5.067609e-04 -2.414677e-04 7.788161e-04 -2.019451e-04 1.062192e-03 -2.136812e-06 1.378106e-03 4.707095e-04 1.748662e-03 1.343469e-03 2.214710e-03 2.781418e-03 3.445192e-03 6.516024e-03 3.448033e-03 3.710999e-03 1.839261e-03 1.085107e-03 
-1.275385e-04 -1.377155e-03 -2.266754e-03 -4.630469e-03 -6.038642e-03 -1.617740e-02 -1.512908e-02 -5.976023e-04 -3.208150e-03 -3.960108e-03 -2.628370e-03 -9.812084e-03 -5.185092e-03 -2.591324e-04 3.518702e-04 -5.961276e-04 5.036654e-04 -5.328337e-04 4.995038e-04 -2.884271e-04 1.871214e-04 5.622396e-03 7.202594e-03 2.605208e-03 3.241809e-03 1.180676e-03 1.496049e-03 5.393771e-04 5.583601e-04 3.252474e-04 1.062398e-04 3.030197e-04 -1.579675e-04 3.021287e-04 -2.900454e-04 3.633958e-04 -3.047237e-04 3.819892e-04 -3.489725e-04 3.052702e-04 -3.718870e-04 2.444587e-04 -3.431740e-04 1.500724e-04 -3.679431e-04 -2.512490e-05 -4.448441e-04 -2.170131e-04 -5.208282e-04 -3.780826e-04 -5.758988e-04 -4.727599e-04 -5.615866e-04 -4.365638e-04 -4.571077e-04 -3.150452e-04 -3.221799e-04 -9.564048e-05 -1.225944e-04 4.903832e-05 7.433168e-05 1.584143e-04 2.059935e-04 1.993024e-04 2.750330e-04 3.478607e-04 3.456224e-04 3.439511e-04 1.847364e-04 1.032133e-04 1.654962e-04 -2.288726e-05 2.639706e-04 4.286243e-05 3.704269e-04 9.160885e-06 3.951443e-04 -3.968111e-05 3.872485e-04 -1.075776e-04 3.190739e-04 -1.358281e-04 3.086373e-04 -2.631940e-05 3.267489e-04 9.811834e-05 2.693962e-04 2.175925e-04 1.861851e-04 3.442795e-04 5.622396e-05 4.251754e-04 -1.142737e-04 4.765820e-04 -2.737756e-04 5.006603e-04 -4.135823e-04 4.687320e-04 -5.140067e-04 4.160129e-04 -5.067638e-04 3.362347e-04 -4.663198e-04 1.461052e-04 -3.656431e-04 9.884390e-06 -6.238817e-05 -6.155838e-05 2.590743e-04 -2.173325e-04 5.429136e-04 -3.211065e-04 8.613669e-04 -3.132185e-04 1.143735e-03 -1.433641e-04 1.414432e-03 3.305929e-04 1.698166e-03 1.074127e-03 2.014708e-03 1.161748e-03 1.066399e-02 1.644044e-02 5.455826e-03 5.794576e-03 2.372050e-03 1.926444e-03 
-4.881772e-04 -4.247653e-03 -6.830110e-03 -1.454994e-02 -2.426984e-02 -2.135966e-02 -1.285334e-02 6.623320e-04 -1.558786e-04 -2.912276e-03 2.188547e-04 -4.887261e-03 -1.003252e-03 -3.706042e-04 3.211439e-04 -5.914717e-04 4.803973e-04 -5.037762e-04 4.902138e-04 -2.581747e-04 2.383361e-04 1.600455e-03 3.562587e-03 4.999129e-04 1.903916e-03 1.147824e-04 1.001444e-03 8.860993e-06 3.983269e-04 2.482156e-04 1.934457e-04 5.061254e-04 -1.552561e-04 4.611467e-04 -3.554838e-04 7.071452e-04 -2.155610e-04 7.447917e-04 -4.229217e-04 4.600909e-04 -4.435187e-04 5.148077e-04 -1.907172e-04 4.782488e-04 -1.565956e-04 2.462551e-04 -2.009736e-04 9.941355e-06 -2.826844e-04 -2.399139e-04 -3.860035e-04 -3.735461e-04 -2.882709e-04 -1.494343e-04 -7.262393e-07 3.403171e-05 1.038713e-05 1.202770e-04 1.052433e-04 2.724602e-04 1.253394e-04 7.738632e-05 -1.161267e-04 3.261053e-05 1.990042e-04 5.621417e-04 4.947304e-04 4.263135e-04 3.712904e-05 -1.659273e-04 -1.558115e-04 -3.631201e-04 1.544627e-05 -3.149227e-04 1.129749e-04 -4.742629e-04 1.835384e-04 -4.230701e-04 3.269859e-04 -5.544859e-04 8.277873e-05 -6.954060e-04 1.961385e-04 -2.579506e-04 4.252578e-04 -3.192758e-05 2.527896e-04 1.467129e-04 1.662602e-04 4.361745e-04 -4.721622e-05 5.677210e-04 -3.533215e-04 7.018362e-04 -5.796094e-04 8.297179e-04 -7.644599e-04 8.095650e-04 -9.508756e-04 7.551777e-04 -8.193359e-04 7.380838e-04 -7.609007e-04 1.708705e-04 -8.189540e-04 -1.535225e-04 -7.917749e-05 -1.088572e-04 5.534042e-04 -6.257601e-04 8.963407e-04 -1.033209e-03 1.452044e-03 -1.308865e-03 1.811230e-03 -1.573620e-03 2.078614e-03 -1.540892e-03 2.221754e-03 -1.304523e-03 1.839437e-03 -1.407067e-03 8.977283e-03 4.135339e-02 2.003914e-02 8.492052e-03 5.456160e-03 1.675355e-03 
-2.149470e-03 -4.374856e-03 -1.006063e-02 -1.370339e-02 -3.031281e-02 2.929985e-03 1.087342e-02 -3.474061e-03 5.271360e-03 -9.150830e-04 4.584695e-03 2.819147e-03 4.789201e-03 -4.964976e-03 1.333859e-03 -2.360123e-03 1.280012e-03 -1.421371e-03 1.837192e-03 -8.983117e-04 3.227905e-03 -3.885891e-03 -4.358396e-03 -2.164108e-03 -2.026035e-03 -8.107480e-04 -1.290273e-03 -2.690346e-04 -1.048628e-03 2.812232e-04 -7.407060e-04 6.416007e-04 -8.548730e-04 5.215597e-04 -8.964418e-04 7.513792e-04 -5.869502e-04 6.716412e-04 -7.904905e-04 2.211245e-04 -7.059292e-04 2.930921e-04 -2.749053e-04 2.603404e-04 -1.254797e-04 5.747136e-05 -3.607025e-05 -1.222499e-04 -5.254775e-05 -3.605297e-04 -1.424130e-04 -4.486620e-04 1.098726e-05 -1.027838e-04 3.428337e-04 9.563617e-05 2.161151e-04 1.186897e-05 1.642450e-04 2.065875e-04 -3.037552e-05 -1.088252e-04 -5.149205e-04 -7.147181e-05 -2.349162e-05 5.894828e-04 3.952533e-04 3.768372e-04 -3.910306e-05 -2.488909e-04 -3.345346e-04 -3.541906e-04 -8.766751e-05 -3.461123e-04 3.005463e-05 -5.022653e-04 2.047380e-04 -3.513030e-04 4.557700e-04 -5.189644e-04 1.109220e-04 -7.504006e-04 2.370127e-04 -2.230038e-04 4.824878e-04 -3.170435e-05 1.733999e-04 1.183993e-04 2.667693e-05 4.528344e-04 -2.535023e-04 6.201952e-04 -5.954870e-04 8.362222e-04 -7.950069e-04 1.057741e-03 -9.083832e-04 1.087980e-03 -1.033835e-03 1.011550e-03 -7.821736e-04 9.471956e-04 -6.382278e-04 1.087485e-04 -7.144987e-04 -4.761446e-04 2.297760e-04 -5.686337e-04 1.031320e-03 -1.390339e-03 1.429949e-03 -2.047949e-03 2.087985e-03 -2.488931e-03 2.471820e-03 -2.846042e-03 2.664716e-03 -2.745134e-03 2.410558e-03 -2.043703e-03 5.854107e-04 1.114896e-03 -1.112666e-02 3.758955e-02 2.309961e-02 4.923243e-03 4.489225e-03 -2.344355e-05 
-1.621558e-03 -1.736535e-03 -5.630532e-03 -4.279468e-03 -1.350024e-02 1.236983e-02 1.599818e-02 -9.855168e-03 2.819906e-03 -7.624018e-03 8.309059e-04 -1.071287e-02 -5.514583e-04 6.092321e-03 2.556050e-03 1.594555e-03 2.464929e-04 6.967221e-05 -2.765498e-03 -1.408690e-03 -8.110630e-03 3.100368e-03 5.780657e-03 2.270214e-03 2.850061e-03 1.356881e-03 1.474081e-03 9.571297e-04 6.705259e-04 8.328694e-04 2.644319e-04 7.579543e-04 -8.198848e-05 5.648052e-04 -2.792213e-04 5.078131e-04 -2.929418e-04 3.242269e-04 -4.473518e-04 3.517618e-05 -4.262828e-04 -2.477764e-05 -2.526401e-04 -1.091171e-04 -1.621998e-04 -2.097769e-04 -7.161879e-05 -2.772423e-04 -3.987391e-05 -3.501963e-04 -2.813265e-05 -3.086324e-04 1.021225e-04 -6.649496e-05 2.923770e-04 1.197171e-04 2.816357e-04 1.315468e-04 2.308093e-04 2.203868e-04 2.568346e-05 -2.066353e-05 -1.535065e-04 1.899478e-04 1.589833e-04 4.229027e-04 1.980059e-04 3.464673e-04 1.738401e-04 1.790495e-04 2.103091e-05 9.000627e-06 1.034549e-04 -3.281283e-05 1.770511e-04 -9.424253e-05 2.950231e-04 -4.917469e-05 3.929803e-04 -1.619333e-04 2.207785e-04 -2.879637e-04 2.251488e-04 -9.474250e-05 2.593359e-04 -1.408638e-05 6.759452e-05 7.592591e-05 -6.500717e-05 2.553028e-04 -2.417863e-04 3.936064e-04 -4.136804e-04 5.595241e-04 -5.064771e-04 7.114034e-04 -5.316323e-04 7.635049e-04 -5.337214e-04 7.033306e-04 -3.878256e-04 5.744006e-04 -2.465019e-04 1.033374e-04 -1.587269e-04 -3.264468e-04 3.415860e-04 -5.754257e-04 8.394027e-04 -1.064969e-03 1.203758e-03 -1.444487e-03 1.662520e-03 -1.613737e-03 2.033865e-03 -1.514280e-03 2.309150e-03 -8.972227e-04 2.226467e-03 5.073805e-04 7.524764e-04 4.337477e-03 -1.605846e-02 6.562561e-03 6.825933e-03 2.961975e-04 1.370166e-03 -4.577238e-04 
-1.006536e-03 -6.687024e-04 -2.991422e-03 -1.234312e-03 -4.881503e-03 3.623870e-03 4.255679e-03 -4.681310e-03 -1.165124e-03 -5.342223e-03 -4.979433e-03 -1.120327e-02 -1.558742e-02 -1.677538e-02 -6.623098e-03 -5.170824e-03 -2.003404e-03 1.949332e-03 3.887915e-03 7.915956e-03 1.687025e-02 1.603971e-02 9.422945e-03 5.998969e-03 3.515526e-03 2.588574e-03 1.359370e-03 1.233537e-03 4.574107e-04 7.062669e-04 8.994811e-05 4.903251e-04 -8.666274e-05 3.588449e-04 -1.720612e-04 2.712825e-04 -2.069730e-04 1.569755e-04 -2.517166e-04 3.102694e-05 -2.420916e-04 -4.039095e-05 -1.923821e-04 -1.102212e-04 -1.613663e-04 -1.848153e-04 -1.511619e-04 -2.684727e-04 -1.934819e-04 -3.846548e-04 -3.025388e-04 -5.357396e-04 -4.879378e-04 -7.292288e-04 -7.449940e-04 -8.778555e-04 -8.039753e-04 -3.277756e-04 -5.139954e-04 -3.797690e-04 1.541041e-05 1.169909e-04 1.053333e-04 -5.544253e-04 -4.307353e-04 3.182830e-05 2.247444e-04 3.680512e-04 -4.973962e-04 -2.125063e-04 7.444611e-05 1.353811e-04 6.573314e-04 9.101165e-04 1.152300e-03 9.850025e-04 1.118002e-03 7.848840e-04 8.935783e-04 4.810671e-04 6.010236e-04 2.366978e-04 4.070277e-04 1.522603e-04 2.811025e-04 1.239307e-04 1.459862e-04 1.427170e-04 3.671383e-05 2.057606e-04 -6.649871e-05 2.768932e-04 -1.526584e-04 3.543202e-04 -2.059394e-04 4.150890e-04 -2.270001e-04 4.299270e-04 -2.243985e-04 3.806004e-04 -1.825627e-04 2.666613e-04 -1.221069e-04 5.494671e-05 -3.832773e-05 -1.663884e-04 1.562173e-04 -3.527414e-04 3.795810e-04 -5.691185e-04 5.794603e-04 -7.396180e-04 7.805164e-04 -7.970936e-04 9.434739e-04 -6.658825e-04 1.034195e-03 -2.064260e-04 9.424982e-04 8.148406e-04 3.780917e-04 3.104432e-03 -4.911357e-03 1.571536e-03 1.564256e-03 1.350376e-03 6.955322e-04 3.040687e-04 
