# vtk DataFile Version 2.0
Comment goes here
ASCII

DATASET STRUCTURED_POINTS
FIELD FieldData 1
TIME 1 1 double
0.53000000
DIMENSIONS    128   16   1

ORIGIN    0.000   0.000   0.000
SPACING   0.0078125 0.015625   1.000

POINT_DATA   2048
SCALARS uY double
LOOKUP_TABLE default

9.195082e-06 7.939379e-06 8.079143e-06 7.752309e-06 6.484832e-06 5.233426e-06 2.822134e-06 -3.512539e-06 -6.501095e-06 -1.481401e-05 -1.226811e-05 -2.030625e-05 -1.416827e-05 -2.614130e-05 -1.591546e-05 -2.805000e-05 -1.569357e-05 -2.657928e-05 -1.404459e-05 -2.409039e-05 -1.320933e-05 -2.017467e-05 -8.096791e-06 -3.866532e-06 1.644434e-05 1.904366e-05 3.417565e-05 2.498184e-05 3.694483e-05 2.065368e-05 3.218202e-05 1.086372e-05 2.536648e-05 8.167572e-06 2.922043e-05 1.793004e-05 3.823100e-05 3.161690e-05 4.789803e-05 5.381036e-05 6.988500e-05 9.823830e-05 1.112573e-04 1.614904e-04 1.656922e-04 2.530251e-04 2.656384e-04 4.143143e-04 4.340864e-04 6.336508e-04 6.419821e-04 8.788396e-04 8.807822e-04 1.114115e-03 1.100430e-03 1.217229e-03 1.492496e-03 1.070003e-03 3.320706e-04 -1.137213e-03 3.951200e-04 9.660233e-04 -4.325157e-04 -2.858830e-05 -1.771348e-03 2.153599e-04 1.051690e-03 -5.597208e-04 1.657280e-04 -1.702620e-03 -1.101076e-05 3.428179e-04 -1.449198e-03 -1.049592e-03 -1.221343e-03 -1.045478e-03 -9.808400e-04 -8.317468e-04 -7.004988e-04 -6.109173e-04 -5.094588e-04 -4.615759e-04 -3.862538e-04 -3.556876e-04 -2.923334e-04 -2.728108e-04 -2.169954e-04 -2.056603e-04 -1.486930e-04 -1.439488e-04 -9.577554e-05 -1.087045e-04 -7.458740e-05 -8.951185e-05 -5.906480e-05 -6.947151e-05 -5.501364e-05 -6.345705e-05 -6.213299e-05 -5.605698e-05 -6.272276e-05 -4.560284e-05 -6.461954e-05 -4.284235e-05 -7.202611e-05 -4.677166e-05 -7.590762e-05 -4.441029e-05 -6.860610e-05 -4.062554e-05 -6.235487e-05 -3.701354e-05 -4.455488e-05 -1.999362e-05 -2.158507e-05 -1.050734e-05 -9.681921e-06 -4.837167e-06 2.610416e-06 2.203471e-08 7.805570e-06 6.166897e-07 1.310870e-05 4.554629e-06 1.164835e-05 6.165468e-06 1.030619e-05 7.322370e-06 
2.308414e-05 1.231810e-03 1.691495e-03 1.392025e-03 -7.577901e-05 -6.256761e-03 2.730508e-03 4.404711e-03 4.036343e-03 8.244768e-03 9.782000e-03 1.764673e-02 2.186240e-02 2.291969e-02 1.165082e-02 6.004223e-03 2.222008e-03 -2.531227e-03 -6.981830e-03 -1.107894e-02 -2.276605e-02 -2.302629e-02 -1.559248e-02 -1.065364e-02 -6.524296e-03 -4.393309e-03 -2.749820e-03 -1.783879e-03 -1.140483e-03 -6.896390e-04 -4.403578e-04 -2.635203e-04 -1.276381e-04 -1.185987e-04 3.745169e-05 -7.788356e-05 1.379724e-04 -8.337208e-05 1.921659e-04 -1.054494e-04 2.209145e-04 -1.112166e-04 2.417502e-04 -9.737661e-05 2.387545e-04 -7.066321e-05 2.273116e-04 -2.546922e-06 2.174766e-04 7.704475e-05 1.540785e-04 1.204460e-04 -6.852803e-06 5.910241e-05 -3.079227e-04 1.230788e-03 5.370391e-03 1.059754e-02 -6.561331e-04 -1.411724e-02 1.254843e-02 2.704355e-02 8.963692e-03 -7.966947e-03 -2.119443e-02 5.026406e-03 2.107720e-02 3.755204e-03 -1.061335e-02 -2.367477e-02 -5.767724e-03 7.444999e-03 -5.924336e-03 -5.552071e-03 -2.688646e-03 -1.989334e-03 -1.157236e-03 -9.402777e-04 -5.122032e-04 -4.845071e-04 -1.860262e-04 -3.252266e-04 -1.252460e-05 -2.873128e-04 1.016284e-04 -2.896370e-04 1.792856e-04 -2.973214e-04 2.352843e-04 -2.785432e-04 2.585635e-04 -2.475714e-04 2.247534e-04 -1.896474e-04 1.577690e-04 -9.541266e-05 4.161632e-05 6.536285e-06 -1.111695e-04 1.361475e-04 -2.584686e-04 2.814669e-04 -4.009495e-04 4.037621e-04 -5.299454e-04 4.854123e-04 -6.102268e-04 5.278250e-04 -6.143903e-04 4.986049e-04 -5.576369e-04 3.676142e-04 -4.238562e-04 1.384657e-04 -2.227843e-04 -2.357049e-04 2.676898e-06 -8.097595e-04 2.341207e-04 -1.727512e-03 5.117397e-04 -3.369029e-03 4.817445e-03 3.219870e-03 -1.546562e-03 -9.178984e-04 -1.808814e-03 -2.740895e-04 
-3.180092e-04 3.046740e-03 3.861977e-03 6.517911e-03 6.833228e-04 -2.052762e-02 1.175825e-03 4.940494e-03 -1.018232e-03 5.409804e-03 -4.365493e-04 6.538189e-03 -2.989913e-03 -6.961499e-03 -6.537033e-03 -6.466536e-04 -1.988506e-03 1.746805e-03 1.419220e-03 5.242879e-03 7.296007e-03 5.711126e-04 -2.004862e-03 -1.896922e-03 -1.269461e-03 -7.570994e-04 -6.379654e-04 -2.352574e-04 -3.141577e-04 -7.715491e-06 -1.030664e-04 2.198878e-05 2.602423e-05 -2.585847e-05 1.806419e-04 -5.337426e-05 3.382458e-04 -9.843536e-05 4.321199e-04 -1.629977e-04 4.888289e-04 -1.603966e-04 5.766041e-04 -9.313330e-05 5.996679e-04 -3.377202e-05 6.113516e-04 1.801791e-04 7.410227e-04 5.497198e-04 9.332918e-04 1.134927e-03 1.392365e-03 2.285244e-03 2.849145e-03 6.996614e-03 9.126435e-03 4.906342e-03 -2.247601e-03 -1.051256e-02 3.561537e-03 6.775356e-03 -1.318231e-03 2.731322e-03 -1.029479e-02 3.799624e-03 8.026192e-03 -2.211352e-03 3.271359e-03 -9.632038e-03 2.883363e-03 1.176548e-02 -8.886766e-03 -8.627586e-03 -5.150484e-03 -3.704858e-03 -2.483495e-03 -1.937043e-03 -1.264256e-03 -1.142113e-03 -5.989856e-04 -8.145419e-04 -1.934767e-04 -6.858799e-04 1.012885e-04 -6.442711e-04 2.835702e-04 -6.511922e-04 4.186149e-04 -5.821245e-04 4.972214e-04 -5.214254e-04 4.240536e-04 -4.024232e-04 3.320295e-04 -1.805610e-04 1.140687e-04 1.141599e-06 -2.047701e-04 2.653550e-04 -4.733046e-04 5.823523e-04 -7.469844e-04 8.320800e-04 -1.027444e-03 9.799683e-04 -1.215247e-03 1.083746e-03 -1.221763e-03 1.039294e-03 -1.162629e-03 7.469695e-04 -9.487792e-04 3.034020e-04 -5.790974e-04 -4.265996e-04 -1.502615e-04 -1.480188e-03 4.632076e-04 -3.102483e-03 1.736180e-03 -6.395462e-03 1.514966e-02 7.169497e-03 -9.114079e-03 -3.805373e-03 -4.703888e-03 -7.048421e-04 
1.079983e-03 9.411754e-03 1.641957e-02 2.757694e-02 2.800692e-02 -1.280823e-02 -3.284991e-03 2.075474e-03 -4.966701e-03 1.694154e-03 -5.610572e-03 -5.280109e-04 -3.923173e-03 5.117618e-03 3.531611e-04 1.497005e-03 1.291353e-04 -1.923597e-04 6.635123e-05 -1.961863e-03 -1.488787e-03 1.856478e-03 2.658881e-03 2.203280e-03 1.202311e-03 1.494270e-03 4.333965e-04 1.127863e-03 9.160281e-05 8.833881e-04 1.736984e-05 5.854031e-04 1.062065e-05 3.105426e-04 1.959500e-04 1.737080e-04 4.460693e-04 1.566357e-05 5.709736e-04 -2.090904e-04 6.106146e-04 -3.191686e-04 7.235956e-04 -3.375476e-04 6.486153e-04 -5.036614e-04 4.638603e-04 -4.818221e-04 4.306609e-04 -3.891593e-04 2.626988e-04 -3.552694e-04 1.674160e-04 -1.910100e-04 -3.919228e-05 -1.337630e-03 -3.694786e-03 -4.300245e-03 7.645935e-04 7.840239e-03 -5.521207e-03 -1.189438e-02 -3.389807e-03 2.146901e-03 9.680278e-03 -2.378590e-03 -1.003728e-02 -1.991120e-04 2.795012e-03 1.106746e-02 4.516560e-04 -5.683418e-03 3.457754e-03 4.457596e-03 1.715539e-03 2.018512e-03 9.436912e-04 1.195482e-03 6.837201e-04 5.661490e-04 5.660832e-04 7.922202e-05 5.940306e-04 -2.554442e-04 7.513170e-04 -4.872482e-04 8.467848e-04 -7.044784e-04 9.546208e-04 -6.908219e-04 1.032175e-03 -7.039026e-04 8.389149e-04 -6.022050e-04 7.056693e-04 -2.823680e-04 3.498186e-04 -9.720571e-05 -1.873355e-04 2.750774e-04 -5.649002e-04 7.854108e-04 -9.526196e-04 1.180278e-03 -1.389646e-03 1.408913e-03 -1.672459e-03 1.662229e-03 -1.604156e-03 1.728687e-03 -1.494325e-03 1.410512e-03 -1.096610e-03 1.031163e-03 -3.514254e-04 3.613177e-04 5.779605e-04 -4.677241e-04 1.948977e-03 -1.662732e-03 3.888303e-03 -4.663608e-03 1.168690e-02 -1.809133e-02 -3.750934e-02 -2.061982e-02 -1.356403e-02 -3.988624e-03 
1.511159e-03 9.578980e-03 1.947390e-02 3.119458e-02 4.326451e-02 1.919206e-02 -8.898240e-04 1.772916e-03 -8.756834e-04 2.815964e-03 3.406410e-04 3.847043e-03 1.498709e-03 -1.647054e-04 7.636212e-05 2.462442e-05 1.061839e-04 -1.411651e-04 1.437116e-04 -2.908925e-04 1.834117e-04 -2.922706e-03 -2.100068e-03 -1.187846e-03 -1.097867e-03 1.713921e-04 -7.262343e-04 6.190395e-04 -6.026187e-04 7.187548e-04 -4.745382e-04 6.058931e-04 -3.566870e-04 4.357419e-04 -1.242288e-04 3.253582e-04 1.381624e-04 1.785337e-04 2.955955e-04 -3.034604e-05 3.705662e-04 -1.697747e-04 4.761097e-04 -2.477277e-04 4.314106e-04 -4.383180e-04 2.860706e-04 -5.137206e-04 2.175311e-04 -5.736772e-04 -7.250135e-06 -7.542486e-04 -3.030651e-04 -9.968630e-04 -8.042758e-04 -1.500067e-03 6.794032e-04 4.272817e-03 7.603514e-05 -5.444698e-03 5.937059e-03 1.467078e-02 5.659234e-03 -3.932283e-03 -8.800151e-03 2.861206e-03 1.070799e-02 3.132834e-03 -6.604839e-03 -1.025736e-02 -3.409395e-03 2.673835e-03 -1.502651e-03 -1.067978e-03 -8.423146e-04 -2.622243e-04 -4.702998e-04 -8.500994e-05 -2.148724e-04 -1.379733e-04 -1.368844e-05 -2.771016e-04 1.982261e-04 -4.089801e-04 4.455717e-04 -5.170187e-04 6.104871e-04 -6.432070e-04 7.473189e-04 -6.289538e-04 8.333798e-04 -6.455024e-04 7.108011e-04 -5.884077e-04 6.160173e-04 -3.810463e-04 3.562919e-04 -2.622314e-04 -3.377363e-05 -2.076607e-06 -3.135766e-04 3.693965e-04 -5.992565e-04 6.746345e-04 -9.219667e-04 8.734602e-04 -1.141059e-03 1.100007e-03 -1.121708e-03 1.199353e-03 -1.093729e-03 1.024728e-03 -8.950963e-04 7.991661e-04 -5.039117e-04 3.598759e-04 -7.862397e-05 -1.614082e-04 4.384807e-04 -6.739252e-04 7.242305e-04 -4.344351e-04 -6.466179e-03 -3.742589e-02 -4.054339e-02 -2.653266e-02 -1.523137e-02 -6.451666e-03 
9.933924e-04 4.344501e-03 9.800971e-03 1.320068e-02 2.134193e-02 2.027860e-02 5.411490e-03 3.632132e-03 3.116388e-03 4.326552e-03 4.458523e-03 8.149247e-03 5.291208e-03 -1.337827e-04 6.407831e-05 7.632654e-05 8.384844e-05 -1.118703e-04 1.076842e-04 -2.878120e-04 1.381291e-04 -4.973231e-03 -5.961661e-03 -4.152914e-03 -3.290316e-03 -1.700921e-03 -1.771876e-03 -5.169849e-04 -9.970308e-04 3.823596e-05 -5.669784e-04 2.492391e-04 -2.975867e-04 2.942716e-04 -8.194325e-05 2.744843e-04 1.035014e-04 2.218184e-04 2.514954e-04 1.609378e-04 3.737229e-04 1.350390e-04 4.997090e-04 1.702820e-04 6.300573e-04 2.769909e-04 8.117463e-04 5.405430e-04 1.138466e-03 1.049086e-03 1.704785e-03 1.986580e-03 2.762821e-03 3.814108e-03 5.457880e-03 1.085699e-02 1.408552e-02 2.160277e-03 -3.499113e-03 -7.884298e-03 -1.630872e-03 -3.306953e-03 -7.477768e-03 6.583717e-03 -6.191585e-03 1.708017e-03 1.619038e-03 -5.753345e-03 9.734418e-03 -3.930561e-03 5.222925e-03 1.341021e-02 -1.107471e-02 -1.170380e-02 -6.779018e-03 -4.965186e-03 -3.322457e-03 -2.539145e-03 -1.749553e-03 -1.396827e-03 -8.792827e-04 -8.709568e-04 -3.616248e-04 -6.382845e-04 -2.349701e-05 -5.390485e-04 1.954506e-04 -5.007757e-04 3.313095e-04 -4.661283e-04 3.932659e-04 -4.341173e-04 3.714180e-04 -3.788002e-04 3.017121e-04 -2.856273e-04 1.689591e-04 -1.811166e-04 -6.733272e-06 -3.606863e-05 -1.758018e-04 1.394872e-04 -3.377745e-04 3.036464e-04 -4.859640e-04 4.322467e-04 -5.856895e-04 5.262490e-04 -6.126807e-04 5.398548e-04 -6.054739e-04 4.264809e-04 -5.649217e-04 1.860796e-04 -5.339692e-04 -2.366447e-04 -6.194579e-04 -8.481747e-04 -9.663734e-04 -1.535524e-03 -1.928989e-03 -1.191884e-03 -1.103225e-02 -2.374143e-02 -1.722292e-02 -1.337745e-02 -7.449771e-03 -4.022630e-03 
6.992132e-04 2.983698e-03 5.836078e-03 7.551250e-03 9.589799e-03 9.186749e-03 6.379152e-03 6.620677e-03 5.368520e-03 8.662011e-03 8.775859e-03 1.611182e-02 1.289697e-02 -1.673159e-05 7.980878e-06 -3.010433e-05 3.385617e-05 -4.071191e-05 5.026956e-05 -3.581671e-05 4.286479e-05 -1.016897e-02 -1.305573e-02 -8.706105e-03 -7.184738e-03 -4.347414e-03 -3.834774e-03 -2.062734e-03 -2.049389e-03 -8.700894e-04 -1.090627e-03 -2.944019e-04 -5.621086e-04 -3.997601e-05 -2.388478e-04 6.128662e-05 -1.998741e-05 8.744105e-05 1.346629e-04 8.510555e-05 2.560517e-04 9.737090e-05 3.740038e-04 1.499110e-04 4.998873e-04 2.600158e-04 6.698905e-04 4.804914e-04 9.422418e-04 8.647629e-04 1.385356e-03 1.532577e-03 2.183078e-03 2.791204e-03 4.067945e-03 6.983201e-03 8.488975e-03 6.383406e-04 -2.690602e-04 3.725181e-03 -4.631629e-04 -6.582777e-03 -4.892113e-03 3.677757e-03 2.373484e-03 -2.255507e-04 -5.144915e-03 -3.916925e-03 4.737871e-03 1.944465e-03 -3.128527e-04 -1.304221e-03 -6.130201e-03 -4.843430e-03 -3.523035e-03 -2.543461e-03 -2.059091e-03 -1.540966e-03 -1.221033e-03 -9.810612e-04 -6.875290e-04 -6.821348e-04 -3.294846e-04 -5.253952e-04 -7.754975e-05 -4.452090e-04 9.311460e-05 -4.041910e-04 2.015873e-04 -3.684362e-04 2.526030e-04 -3.340405e-04 2.414033e-04 -2.846181e-04 1.886313e-04 -2.108837e-04 8.977023e-05 -1.266573e-04 -4.031396e-05 -1.730443e-05 -1.696541e-04 1.092156e-04 -2.941082e-04 2.248703e-04 -4.068386e-04 3.115598e-04 -4.866378e-04 3.622823e-04 -5.220732e-04 3.437900e-04 -5.386808e-04 2.197259e-04 -5.514390e-04 -2.748798e-05 -6.069438e-04 -4.523883e-04 -7.994614e-04 -1.114990e-03 -1.263160e-03 -2.123854e-03 -2.256566e-03 -3.702394e-03 -5.184340e-03 -9.089967e-03 -7.867551e-03 -6.982189e-03 -4.336752e-03 -2.284289e-03 
3.297200e-04 1.113406e-03 2.368377e-03 3.076877e-03 3.794862e-03 4.197353e-03 2.892161e-03 3.286774e-03 2.699825e-03 4.215744e-03 4.422028e-03 8.261325e-03 6.732916e-03 -7.481446e-06 6.249737e-06 -1.013313e-05 1.947867e-05 -2.456691e-05 2.688785e-05 -2.911147e-05 2.226688e-05 -4.900221e-03 -6.349330e-03 -4.197500e-03 -3.424013e-03 -2.106182e-03 -1.808564e-03 -1.003881e-03 -9.377365e-04 -4.118693e-04 -4.657171e-04 -1.127227e-04 -2.015182e-04 3.318023e-05 -3.657941e-05 1.074830e-04 8.375996e-05 1.549297e-04 1.871854e-04 2.039887e-04 2.933488e-04 2.783116e-04 4.209915e-04 3.981518e-04 5.877923e-04 5.817964e-04 8.143096e-04 8.466345e-04 1.115992e-03 1.193545e-03 1.491352e-03 1.599962e-03 1.917797e-03 1.975567e-03 2.300693e-03 2.232139e-03 2.803194e-03 1.191200e-03 5.182393e-04 -3.760990e-04 -5.177595e-04 -5.900512e-04 -1.576464e-03 8.577542e-04 -6.993247e-04 2.962156e-04 2.885871e-05 -8.833010e-04 1.332435e-03 -4.258378e-04 2.088669e-04 -8.544302e-05 -2.535141e-03 -2.295904e-03 -2.672115e-03 -2.317367e-03 -2.213609e-03 -1.879620e-03 -1.631647e-03 -1.394056e-03 -1.120733e-03 -1.000861e-03 -7.226778e-04 -7.177323e-04 -4.316143e-04 -5.262977e-04 -2.298985e-04 -4.002054e-04 -9.822868e-05 -3.150241e-04 -2.214296e-05 -2.549914e-04 8.820783e-06 -2.068183e-04 6.722151e-06 -1.615258e-04 -2.070763e-05 -1.159125e-04 -6.358456e-05 -6.542871e-05 -1.103654e-04 -1.126887e-05 -1.548117e-04 3.965947e-05 -1.921283e-04 8.010491e-05 -2.171510e-04 1.029711e-04 -2.295526e-04 9.538129e-05 -2.392858e-04 4.193283e-05 -2.617844e-04 -7.266977e-05 -3.263435e-04 -2.711685e-04 -4.810461e-04 -5.803417e-04 -7.988943e-04 -1.055141e-03 -1.414059e-03 -1.874572e-03 -2.614999e-03 -3.887032e-03 -3.063679e-03 -2.985453e-03 -1.671729e-03 -1.057974e-03 
-6.871762e-06 -7.513307e-06 -7.231312e-06 -8.113233e-06 -7.497770e-06 -8.621666e-06 -7.682524e-06 -8.676483e-06 -7.230599e-06 -7.714939e-06 -5.493914e-06 -6.352983e-06 -4.048357e-06 1.795530e-07 6.205446e-08 -1.986872e-07 -3.633196e-07 -9.995618e-08 -2.469122e-07 5.222684e-07 3.314922e-07 -1.121369e-05 -2.648168e-06 -1.001848e-05 1.276213e-06 -5.573597e-06 7.183449e-06 -2.347943e-06 1.297823e-05 1.574124e-06 2.081951e-05 9.209686e-06 3.305253e-05 2.424544e-05 5.228692e-05 4.875207e-05 7.877015e-05 8.330252e-05 1.143540e-04 1.321525e-04 1.661049e-04 2.037906e-04 2.441213e-04 3.078594e-04 3.605816e-04 4.584312e-04 5.343130e-04 6.728696e-04 7.798016e-04 9.553219e-04 1.096213e-03 1.294121e-03 1.468966e-03 1.645398e-03 1.830418e-03 1.853057e-03 1.919845e-03 1.114926e-03 7.712918e-04 6.930465e-04 7.438493e-05 -3.133236e-04 -5.455200e-04 1.043082e-04 -2.243170e-04 -3.065397e-04 -6.502180e-04 -8.486548e-04 -1.737077e-04 -7.245714e-04 -8.769925e-04 -1.245996e-03 -1.772744e-03 -1.734775e-03 -1.744095e-03 -1.560996e-03 -1.428679e-03 -1.225999e-03 -1.070606e-03 -8.959560e-04 -7.591793e-04 -6.261908e-04 -5.166823e-04 -4.254940e-04 -3.403154e-04 -2.852480e-04 -2.188405e-04 -1.915167e-04 -1.387192e-04 -1.312271e-04 -9.087371e-05 -9.757837e-05 -6.860338e-05 -8.157730e-05 -6.114240e-05 -7.467265e-05 -6.252358e-05 -7.334606e-05 -6.741339e-05 -7.191178e-05 -6.988112e-05 -6.782111e-05 -6.889574e-05 -6.172694e-05 -6.439953e-05 -5.344207e-05 -5.522715e-05 -4.180175e-05 -4.137841e-05 -2.850814e-05 -2.593911e-05 -1.525821e-05 -9.734005e-06 -2.601791e-06 3.619410e-06 4.838818e-06 9.968101e-06 6.552222e-06 1.027043e-05 4.000414e-06 5.507597e-06 -5.535202e-07 -2.632852e-07 -3.524642e-06 -3.962786e-06 -5.550559e-06 -5.990017e-06 -6.771091e-06 
-3.439939e-04 -1.128972e-03 -2.383254e-03 -3.094052e-03 -3.810457e-03 -4.215667e-03 -2.908145e-03 -3.303383e-03 -2.712691e-03 -4.226468e-03 -4.428167e-03 -8.265701e-03 -6.734363e-03 6.393590e-06 -7.608638e-06 8.205103e-06 -2.149924e-05 2.315388e-05 -2.821221e-05 2.931344e-05 -2.235678e-05 4.902283e-03 6.354358e-03 4.196553e-03 3.434907e-03 2.110569e-03 1.831177e-03 1.014254e-03 9.749877e-04 4.340664e-04 5.255574e-04 1.582962e-04 2.959056e-04 5.396478e-05 1.821970e-04 4.326570e-05 1.300506e-04 8.248913e-05 1.153845e-04 1.515950e-04 1.326163e-04 2.438560e-04 1.828975e-04 3.567623e-04 2.700240e-04 4.944081e-04 4.039820e-04 6.624921e-04 5.841417e-04 8.455229e-04 7.844144e-04 1.004307e-03 9.583318e-04 1.079134e-03 1.036555e-03 9.956948e-04 9.354726e-04 6.759139e-04 4.939303e-04 2.829230e-04 1.068796e-04 1.056541e-04 -1.756496e-04 5.305759e-05 -2.016503e-04 -1.708148e-04 -1.305937e-04 -4.989846e-04 -1.639718e-04 -7.074585e-04 -5.306384e-04 -8.818423e-04 -1.054661e-03 -1.201870e-03 -1.256961e-03 -1.261303e-03 -1.212013e-03 -1.127644e-03 -1.046543e-03 -9.083331e-04 -8.515939e-04 -6.758403e-04 -6.729196e-04 -4.673885e-04 -5.272717e-04 -2.981666e-04 -4.162071e-04 -1.714827e-04 -3.333940e-04 -8.585804e-05 -2.735360e-04 -4.147966e-05 -2.306410e-04 -3.064253e-05 -1.919988e-04 -4.271029e-05 -1.514200e-04 -7.193670e-05 -1.062715e-04 -1.094487e-04 -5.491690e-05 -1.477063e-04 -7.781570e-07 -1.799765e-04 5.220848e-05 -1.980600e-04 1.012594e-04 -1.926152e-04 1.457768e-04 -1.546030e-04 1.891522e-04 -7.218978e-05 2.453769e-04 6.884171e-05 3.362460e-04 2.815556e-04 5.017377e-04 5.925765e-04 8.178170e-04 1.060547e-03 1.420992e-03 1.869989e-03 2.608944e-03 3.878006e-03 3.052809e-03 2.973546e-03 1.658485e-03 1.044030e-03 
-7.105162e-04 -2.995804e-03 -5.848397e-03 -7.566179e-03 -9.604157e-03 -9.205419e-03 -6.397180e-03 -6.642495e-03 -5.388599e-03 -8.679384e-03 -8.785744e-03 -1.611606e-02 -1.289666e-02 1.476484e-05 -9.678302e-06 2.775465e-05 -3.675005e-05 3.841799e-05 -5.266294e-05 3.675349e-05 -4.253851e-05 1.013629e-02 1.303333e-02 8.681219e-03 7.184754e-03 4.343007e-03 3.851041e-03 2.056828e-03 2.068783e-03 8.600516e-04 1.116475e-03 2.852326e-04 6.025774e-04 5.350540e-05 3.180388e-04 5.281905e-07 1.465430e-04 2.837911e-05 3.663107e-05 9.580812e-05 -2.152835e-05 1.858350e-04 -3.913474e-05 2.706677e-04 -3.303525e-05 3.515221e-04 2.765155e-05 4.658974e-04 1.575927e-04 5.959086e-04 3.153966e-04 7.030842e-04 4.634205e-04 7.484472e-04 5.451264e-04 6.743489e-04 4.991331e-04 4.450667e-04 2.787660e-04 1.633563e-04 7.485868e-05 -7.177672e-05 -1.077645e-04 -2.536367e-04 -2.051572e-04 -4.347190e-04 -2.371133e-04 -6.158285e-04 -2.984763e-04 -7.461966e-04 -4.546662e-04 -8.173569e-04 -6.224703e-04 -8.640463e-04 -6.577256e-04 -7.778564e-04 -6.031098e-04 -6.135163e-04 -5.318431e-04 -4.351231e-04 -4.789080e-04 -2.646480e-04 -4.435572e-04 -1.083344e-04 -4.178506e-04 2.434535e-05 -3.995083e-04 1.253872e-04 -3.743540e-04 1.930243e-04 -3.473778e-04 1.975908e-04 -3.285625e-04 1.507363e-04 -2.810655e-04 7.955895e-05 -2.040941e-04 -2.300149e-05 -1.061039e-04 -1.385673e-04 1.501180e-05 -2.537041e-04 1.415992e-04 -3.576357e-04 2.589174e-04 -4.321220e-04 3.573905e-04 -4.524345e-04 4.330986e-04 -4.005073e-04 4.836975e-04 -2.482524e-04 5.424196e-04 4.134581e-05 6.392858e-04 4.807676e-04 8.381396e-04 1.138845e-03 1.297535e-03 2.134286e-03 2.267884e-03 3.693713e-03 5.176994e-03 9.082974e-03 7.858320e-03 6.973956e-03 4.326234e-03 2.274277e-03 
-1.001036e-03 -4.353640e-03 -9.810651e-03 -1.321649e-02 -2.135679e-02 -2.030755e-02 -5.442298e-03 -3.666528e-03 -3.144681e-03 -4.339987e-03 -4.457741e-03 -8.123030e-03 -5.264764e-03 1.293913e-04 -7.235662e-05 -8.370008e-05 -9.130016e-05 1.060580e-04 -1.111568e-04 2.869435e-04 -1.356438e-04 4.973492e-03 5.934576e-03 4.139019e-03 3.290536e-03 1.706412e-03 1.785422e-03 5.067415e-04 1.005407e-03 -5.933929e-05 5.822061e-04 -2.728346e-04 3.297155e-04 -2.896376e-04 1.669694e-04 -2.067443e-04 3.961810e-05 -9.623714e-05 -7.088231e-05 1.960367e-05 -1.468291e-04 1.389787e-04 -1.917810e-04 2.210149e-04 -2.389967e-04 2.638006e-04 -2.355403e-04 3.393378e-04 -1.475232e-04 4.263470e-04 -3.153018e-05 4.859995e-04 9.294280e-05 5.112357e-04 2.064997e-04 4.895548e-04 3.138232e-04 4.344772e-04 3.166791e-04 1.692994e-04 3.797101e-04 3.491199e-04 2.388575e-04 -3.142167e-05 -9.240295e-05 -2.512190e-04 1.187018e-04 -5.397371e-04 -1.938374e-04 -9.387867e-04 -4.030343e-04 -8.035096e-04 -5.694935e-04 -8.886432e-04 -6.090656e-04 -8.073069e-04 -5.739446e-04 -6.427496e-04 -5.397049e-04 -4.639888e-04 -5.289337e-04 -2.812268e-04 -5.274385e-04 -9.921943e-05 -5.237968e-04 6.516676e-05 -5.207181e-04 1.962067e-04 -4.982805e-04 2.918452e-04 -4.710341e-04 2.959224e-04 -4.619888e-04 2.307055e-04 -4.041276e-04 1.405360e-04 -3.039553e-04 2.162399e-06 -1.759510e-04 -1.531345e-04 -1.195824e-05 -3.109825e-04 1.570014e-04 -4.597755e-04 3.118191e-04 -5.744412e-04 4.373249e-04 -6.241276e-04 5.231727e-04 -5.928946e-04 5.550454e-04 -4.471864e-04 5.765364e-04 -1.442599e-04 6.006808e-04 2.887901e-04 6.803509e-04 8.834538e-04 1.014337e-03 1.543416e-03 1.933144e-03 1.162988e-03 1.099646e-02 2.373312e-02 1.721191e-02 1.337296e-02 7.441923e-03 4.016849e-03 
-1.514370e-03 -9.581318e-03 -1.947664e-02 -3.120104e-02 -4.326921e-02 -1.920869e-02 8.648109e-04 -1.826337e-03 8.028735e-04 -2.871888e-03 -3.531752e-04 -3.796023e-03 -1.446495e-03 1.557324e-04 -8.276255e-05 -2.936724e-05 -1.169288e-04 1.250008e-04 -1.562028e-04 2.920909e-04 -1.638721e-04 2.835203e-03 1.945625e-03 1.118630e-03 1.128919e-03 -7.687417e-05 8.036606e-04 -6.091447e-04 6.098216e-04 -7.559362e-04 4.573976e-04 -7.258839e-04 2.781857e-04 -5.558721e-04 1.466988e-04 -3.163539e-04 -2.607260e-05 -1.475994e-04 -2.435387e-04 -2.346630e-06 -3.604735e-04 2.143968e-04 -3.981925e-04 2.712483e-04 -6.240166e-04 1.183494e-04 -7.517030e-04 1.640607e-04 -6.229929e-04 2.203827e-04 -5.529296e-04 1.665284e-04 -4.704763e-04 9.248997e-05 -4.201925e-04 -6.806713e-05 -3.529452e-04 -1.597215e-04 -2.335668e-04 -3.190890e-04 1.048353e-04 -9.536880e-06 1.267473e-04 -3.782253e-04 -8.923434e-05 -3.883994e-04 3.535000e-04 -4.325998e-04 2.050615e-04 -6.545445e-04 2.169972e-04 -3.785445e-04 1.209896e-04 -5.050931e-04 -3.463891e-07 -4.139242e-04 8.173603e-06 -1.994001e-04 -6.968646e-05 -6.017472e-05 -2.425132e-04 7.599510e-05 -4.101697e-04 2.576142e-04 -5.194873e-04 4.340291e-04 -6.468440e-04 5.591765e-04 -6.469436e-04 7.588293e-04 -5.909600e-04 6.906422e-04 -7.138111e-04 4.712534e-04 -6.203461e-04 3.469914e-04 -4.205894e-04 6.190306e-05 -2.182681e-04 -2.325477e-04 1.059234e-04 -5.185170e-04 4.260084e-04 -8.134153e-04 7.007437e-04 -1.077517e-03 9.064478e-04 -1.207817e-03 1.049972e-03 -1.235589e-03 9.837311e-04 -1.112281e-03 9.074692e-04 -6.621924e-04 6.919747e-04 -2.457191e-04 1.679057e-04 2.220890e-04 -3.241950e-04 7.053964e-04 -7.351234e-04 3.416610e-04 6.405953e-03 3.743225e-02 4.053018e-02 2.653326e-02 1.522502e-02 6.451275e-03 
-1.073721e-03 -9.401673e-03 -1.640931e-02 -2.755993e-02 -2.798981e-02 1.283663e-02 3.304262e-03 -2.106604e-03 4.886091e-03 -1.791018e-03 5.561573e-03 5.199650e-04 3.930463e-03 -5.137695e-03 -3.586321e-04 -1.501933e-03 -1.298221e-04 1.944551e-04 -5.495797e-05 1.976484e-03 1.401384e-03 -2.055080e-03 -2.877112e-03 -2.306113e-03 -1.124670e-03 -1.322679e-03 -2.661088e-04 -1.045976e-03 -1.613499e-05 -8.627828e-04 3.744050e-06 -7.034383e-04 -1.165075e-04 -4.672835e-04 -2.049385e-04 -1.915151e-04 -3.666598e-04 -3.837653e-05 -5.925324e-04 8.371120e-05 -6.753002e-04 3.141238e-04 -6.538504e-04 3.274046e-04 -9.059217e-04 5.883358e-05 -1.031318e-03 7.401571e-05 -8.218662e-04 1.037308e-04 -7.098904e-04 6.534290e-06 -5.699709e-04 -7.394093e-05 -4.729131e-04 -2.454836e-04 -3.901191e-04 -2.917669e-04 -7.390096e-05 -7.392005e-05 2.731299e-04 -1.266677e-04 3.797064e-04 -3.370528e-04 3.134397e-04 -5.359212e-04 1.913237e-04 -5.893650e-04 1.636320e-04 -6.251227e-04 1.476292e-04 -6.804788e-04 1.077964e-04 -6.803340e-04 -5.889398e-05 -5.234654e-04 -3.797948e-05 -2.260491e-04 -1.262966e-04 -5.230224e-05 -3.475571e-04 9.772893e-05 -5.666605e-04 3.021267e-04 -7.051617e-04 4.958278e-04 -8.712795e-04 6.215219e-04 -8.486647e-04 8.739079e-04 -7.277009e-04 7.720989e-04 -8.505086e-04 4.689705e-04 -6.721468e-04 3.088791e-04 -3.522962e-04 -7.302394e-05 -4.798586e-05 -4.705240e-04 4.062821e-04 -8.537316e-04 8.369549e-04 -1.248745e-03 1.178578e-03 -1.604900e-03 1.397935e-03 -1.768614e-03 1.509932e-03 -1.781219e-03 1.296573e-03 -1.581663e-03 1.027728e-03 -9.163277e-04 5.142814e-04 -2.755785e-04 -5.359291e-04 5.095184e-04 -1.828378e-03 1.711364e-03 -3.887612e-03 4.579653e-03 -1.168377e-02 1.811854e-02 3.751470e-02 2.062719e-02 1.356785e-02 3.995699e-03 
3.303251e-04 -3.032730e-03 -3.847864e-03 -6.496510e-03 -6.649582e-04 2.056147e-02 -1.146846e-03 -4.938666e-03 9.882667e-04 -5.465186e-03 3.935029e-04 -6.581162e-03 2.957927e-03 6.893956e-03 6.500073e-03 5.768536e-04 1.951688e-03 -1.803789e-03 -1.445842e-03 -5.294770e-03 -7.342787e-03 -6.613425e-04 1.916920e-03 1.867196e-03 1.332895e-03 8.661906e-04 7.686216e-04 3.284515e-04 4.194935e-04 7.200365e-05 1.762560e-04 -2.792354e-05 -1.717628e-05 -6.303333e-06 -1.405031e-04 7.714978e-05 -2.585883e-04 1.360100e-04 -3.732205e-04 1.986291e-04 -4.037229e-04 3.099439e-04 -3.741541e-04 3.335423e-04 -4.320336e-04 2.513599e-04 -4.136191e-04 2.868849e-04 -2.457650e-04 3.225776e-04 -1.185538e-04 2.791486e-04 -2.008991e-05 1.711651e-04 -3.279904e-05 -9.137385e-05 -1.954757e-04 -4.060232e-04 -3.012265e-04 -4.292000e-04 -4.450296e-04 -7.910066e-04 -3.142587e-04 -5.495898e-04 2.421064e-05 -5.648087e-04 -5.946859e-05 -3.802988e-04 3.517078e-04 -6.364330e-05 3.767638e-04 -2.638326e-04 2.141278e-04 -3.087621e-04 -1.554159e-05 -3.234926e-04 -1.283938e-04 -2.339960e-04 -2.403446e-04 -1.548752e-04 -3.857284e-04 -6.664682e-05 -5.162406e-04 5.729568e-05 -5.970330e-04 1.822148e-04 -6.693258e-04 2.762731e-04 -6.447208e-04 4.051227e-04 -5.599964e-04 3.678873e-04 -5.522611e-04 2.175321e-04 -4.070499e-04 9.473437e-05 -1.820419e-04 -1.362849e-04 5.243312e-05 -3.918371e-04 3.517343e-04 -6.445811e-04 6.387067e-04 -8.926526e-04 8.683441e-04 -1.100124e-03 1.017948e-03 -1.179435e-03 1.088124e-03 -1.120881e-03 9.911312e-04 -8.753146e-04 8.390105e-04 -3.125170e-04 5.824126e-04 4.246966e-04 1.350225e-04 1.480752e-03 -4.221491e-04 3.125983e-03 -1.715553e-03 6.385881e-03 -1.509778e-02 -7.151436e-03 9.133834e-03 3.814002e-03 4.717031e-03 7.149707e-04 
-7.269987e-06 -1.217166e-03 -1.677290e-03 -1.376253e-03 8.776510e-05 6.271326e-03 -2.721419e-03 -4.407872e-03 -4.051102e-03 -8.274884e-03 -9.810916e-03 -1.768388e-02 -2.189329e-02 -2.296617e-02 -1.168127e-02 -6.047744e-03 -2.251364e-03 2.487173e-03 6.951151e-03 1.102607e-02 2.272597e-02 2.297719e-02 1.555762e-02 1.063385e-02 6.547826e-03 4.424505e-03 2.811983e-03 1.821767e-03 1.201141e-03 7.074103e-04 4.788126e-04 2.444227e-04 1.354658e-04 7.667220e-05 -3.676115e-05 3.774290e-05 -1.403711e-04 4.074091e-05 -2.113773e-04 6.232178e-05 -2.456682e-04 9.672867e-05 -2.556342e-04 1.115676e-04 -2.653613e-04 1.157376e-04 -2.269977e-04 1.705529e-04 -1.134730e-04 2.645518e-04 4.159822e-05 3.880370e-04 2.560627e-04 5.840144e-04 5.984409e-04 9.552184e-04 1.266403e-03 1.489726e-03 1.323874e-03 3.369959e-04 2.166599e-03 2.625495e-03 1.220724e-03 2.468576e-04 -1.109028e-03 2.250369e-05 8.820882e-04 -1.069553e-03 -1.389044e-03 -3.233518e-03 -1.817473e-03 -1.332397e-03 -1.788706e-03 -1.533498e-03 -1.259467e-03 -1.092845e-03 -7.948116e-04 -6.686961e-04 -5.186340e-04 -3.805231e-04 -4.065850e-04 -2.000145e-04 -3.781596e-04 -7.101715e-05 -3.728510e-04 2.870179e-05 -3.702629e-04 1.035209e-04 -3.435772e-04 1.602316e-04 -3.016944e-04 1.539897e-04 -2.690401e-04 9.544362e-05 -1.999248e-04 1.871182e-05 -9.906880e-05 -9.418275e-05 1.690336e-05 -2.230366e-04 1.527060e-04 -3.526071e-04 2.847421e-04 -4.758015e-04 3.901140e-04 -5.738207e-04 4.569153e-04 -6.131991e-04 4.776396e-04 -5.769827e-04 4.315751e-04 -4.413620e-04 3.374766e-04 -1.714740e-04 1.896825e-04 2.231327e-04 -1.244825e-05 8.080446e-04 -2.182708e-04 1.735607e-03 -4.883927e-04 3.376368e-03 -4.779639e-03 -3.209811e-03 1.568778e-03 9.288911e-04 1.826782e-03 2.871040e-04 
