# vtk DataFile Version 2.0
Comment goes here
ASCII

DATASET STRUCTURED_POINTS
FIELD FieldData 1
TIME 1 1 double
0.18000000
DIMENSIONS    128   16   1

ORIGIN    0.000   0.000   0.000
SPACING   0.0078125 0.015625   1.000

POINT_DATA   2048
SCALARS uY double
LOOKUP_TABLE default

7.518182e-05 6.711622e-05 5.513054e-05 5.030091e-05 3.872378e-05 3.513705e-05 1.505478e-05 2.095014e-05 1.404005e-05 -5.542657e-05 -4.343564e-05 -4.595715e-05 -5.580875e-05 -7.623251e-05 -1.578000e-04 -2.342186e-04 -2.530145e-04 -2.514184e-04 -2.203654e-04 -2.022318e-04 -1.983379e-04 -2.172197e-04 -1.768043e-04 -1.748261e-04 -1.827864e-04 -1.194059e-04 -3.653241e-05 1.336688e-04 2.171855e-04 1.683042e-04 6.205209e-05 6.768069e-05 7.007961e-05 1.225383e-04 1.187502e-04 7.261662e-05 3.968299e-05 -7.592692e-05 -2.022088e-04 -2.527481e-04 -2.139698e-04 -2.796571e-04 -3.373296e-04 -5.303571e-04 -5.338968e-04 -4.880670e-04 -3.015885e-04 -2.136679e-04 -7.390422e-05 -7.032056e-05 1.620358e-04 4.161425e-04 8.001837e-04 9.651995e-04 9.022446e-04 6.610673e-04 4.824108e-05 -2.727474e-05 -7.584635e-04 -2.623193e-04 -2.341994e-03 -3.678372e-03 -1.721243e-03 -2.190538e-03 -4.296026e-04 -2.574810e-03 -3.728139e-03 -1.807248e-03 -2.428406e-03 -5.576970e-04 -1.746306e-03 -1.515215e-03 1.389035e-03 1.994055e-03 2.794488e-03 2.838681e-03 2.659889e-03 2.352165e-03 1.772071e-03 1.409094e-03 9.771869e-04 9.199386e-04 8.200032e-04 8.922773e-04 7.014963e-04 5.184156e-04 3.205742e-04 3.380877e-04 4.051949e-04 5.018535e-04 5.322621e-04 4.034555e-04 3.160668e-04 2.978223e-04 3.586491e-04 4.019108e-04 4.966295e-04 4.142511e-04 3.212835e-04 2.321957e-04 2.103617e-04 2.345795e-04 2.883735e-04 2.110178e-04 1.095681e-04 5.007953e-05 1.080911e-05 1.117101e-05 9.087176e-07 -8.783406e-05 -1.366166e-04 -6.900241e-05 2.895605e-05 8.747955e-05 1.449916e-04 1.001173e-04 9.259266e-05 1.410618e-04 1.376303e-04 1.464746e-04 2.096305e-04 2.013840e-04 1.777000e-04 1.734113e-04 1.449587e-04 1.314179e-04 1.056323e-04 9.314407e-05 
2.057202e-05 -1.117925e-03 -1.674579e-03 -1.275534e-03 8.578079e-05 6.381874e-03 -2.426540e-03 -4.343389e-03 -4.233627e-03 -8.880734e-03 -1.056774e-02 -1.836765e-02 -2.217065e-02 -2.305622e-02 -1.204796e-02 -6.578956e-03 -2.850294e-03 1.971678e-03 6.669086e-03 1.104009e-02 2.291116e-02 2.346978e-02 1.612757e-02 1.106126e-02 6.644416e-03 4.211185e-03 2.632800e-03 2.150740e-03 1.876805e-03 1.148538e-03 4.341105e-04 8.975474e-05 4.860768e-05 2.854602e-04 2.467692e-04 3.752861e-04 1.800757e-04 6.429061e-05 -6.412291e-04 -2.892005e-04 -1.105515e-04 4.426635e-04 -2.174820e-04 -6.154856e-04 -1.161693e-03 -4.462779e-04 -1.022394e-04 5.521700e-04 2.437453e-04 1.036647e-04 -3.772164e-05 4.859151e-04 9.235899e-04 8.417381e-04 1.287078e-04 -1.730344e-03 -3.909748e-03 -7.698629e-03 -8.011453e-04 1.154359e-02 -1.284675e-02 -2.862095e-02 -9.995055e-03 6.892503e-03 2.068554e-02 -6.240651e-03 -2.447585e-02 -5.832941e-03 1.023818e-02 2.379542e-02 5.496554e-03 -8.873667e-03 5.119187e-03 5.248466e-03 2.826848e-03 2.744235e-03 2.373283e-03 2.602798e-03 1.614328e-03 1.051563e-03 1.311080e-04 4.414270e-04 5.405862e-04 1.382826e-03 7.110988e-04 4.241023e-04 -4.806295e-04 2.084045e-04 2.029055e-04 1.085818e-03 5.286772e-04 5.242900e-04 -6.058694e-05 4.784990e-04 3.309724e-04 5.795311e-04 4.808381e-04 3.051755e-04 3.371989e-04 8.394517e-05 4.790173e-04 2.029633e-05 6.726031e-04 -2.840808e-04 4.603218e-04 -4.761547e-04 7.161435e-04 -2.860161e-04 6.220213e-04 -8.760050e-04 -9.167851e-05 -6.556133e-04 6.561277e-04 3.054475e-04 4.431444e-04 -7.658703e-06 -3.941269e-04 6.433540e-04 -3.036641e-04 1.725940e-03 -3.620050e-04 3.775635e-03 -3.356670e-03 -2.771996e-03 1.273010e-03 1.003154e-03 1.800508e-03 4.578132e-04 
-5.535744e-05 -3.312703e-03 -4.199598e-03 -6.516260e-03 -6.382332e-04 2.096423e-02 -4.455019e-04 -4.455500e-03 9.600582e-04 -6.356280e-03 -5.251165e-04 -6.749467e-03 3.512608e-03 7.499844e-03 6.435871e-03 -4.677807e-05 1.277594e-03 -2.442395e-03 -1.714659e-03 -5.498432e-03 -7.718855e-03 -6.302398e-04 2.376525e-03 1.991989e-03 9.899431e-04 -1.165415e-04 -2.578951e-04 5.752348e-04 1.824699e-03 8.308992e-04 -1.734085e-04 -7.481562e-04 -7.316186e-04 1.015730e-04 3.646915e-04 6.204467e-04 4.171906e-04 6.071167e-05 -1.714095e-03 -7.788465e-04 -6.574766e-05 1.244069e-03 -7.450180e-05 -1.282282e-03 -2.837289e-03 -1.419842e-03 -6.412188e-04 7.079700e-04 -2.197669e-04 -1.208258e-03 -2.331350e-03 -2.161622e-03 -1.833925e-03 -2.193858e-03 -3.700592e-03 -6.718835e-03 -5.266642e-03 -1.127086e-03 -5.208637e-04 8.594703e-03 -3.155500e-03 -9.108109e-03 2.457899e-03 -1.913729e-03 1.019553e-02 -3.519709e-03 -9.861230e-03 2.079369e-03 -3.171853e-03 7.356013e-03 -3.864430e-03 -1.043555e-02 1.155124e-02 9.709495e-03 4.440612e-03 2.816681e-03 2.679739e-03 3.481341e-03 2.001388e-03 7.071525e-04 -9.664957e-04 -3.684779e-05 8.517682e-04 2.828920e-03 1.451286e-03 2.930947e-04 -1.791763e-03 -2.031951e-04 1.000814e-04 2.139081e-03 1.084456e-03 6.775798e-04 -8.154867e-04 4.722454e-04 1.618237e-04 8.438412e-04 8.588821e-04 3.950319e-04 2.275341e-04 -7.050015e-05 6.263379e-04 -2.479071e-04 1.179522e-03 -8.586802e-04 6.365225e-04 -8.452247e-04 1.639606e-03 -4.781793e-04 1.238767e-03 -2.280445e-03 -6.751849e-04 -1.361404e-03 1.576100e-03 7.722466e-04 1.116487e-03 -5.858118e-04 -1.305695e-03 9.150880e-04 -7.426770e-04 3.128096e-03 -9.488063e-04 7.517647e-03 -1.190763e-02 -6.269586e-03 8.131107e-03 3.802425e-03 4.374092e-03 6.695039e-04 
-7.990494e-04 -9.349409e-03 -1.664316e-02 -2.766477e-02 -2.822127e-02 1.252807e-02 2.765967e-03 -2.040472e-03 5.203230e-03 -2.258021e-03 5.645193e-03 7.550732e-04 3.944248e-03 -5.294883e-03 -5.456639e-04 -1.337336e-03 3.365661e-04 6.495571e-04 3.605551e-04 1.974069e-03 2.569082e-04 -3.112333e-03 -2.940348e-03 -2.482792e-03 -1.067755e-03 -1.183876e-03 -1.130702e-03 -1.535941e-03 5.194614e-04 -8.171862e-04 -1.731135e-04 -9.080578e-04 -1.147878e-03 -4.781830e-04 6.038926e-04 3.187987e-04 6.609489e-04 7.353214e-04 -8.541356e-04 4.712587e-04 1.854749e-04 9.692733e-04 3.532584e-04 3.328072e-04 -2.180750e-03 -1.477019e-03 -2.264726e-03 -3.288177e-04 -5.041189e-04 4.179274e-04 -7.146520e-04 -6.745226e-04 -1.343937e-03 3.150045e-04 4.217669e-04 2.053270e-03 3.505994e-03 4.481866e-03 1.506096e-03 -6.613657e-03 4.389220e-03 1.166800e-02 4.228888e-03 -1.461590e-03 -8.954745e-03 2.133927e-03 1.027781e-02 1.816137e-05 -3.062512e-03 -1.236045e-02 -8.165487e-04 5.420598e-03 -4.519947e-03 -5.354800e-03 -3.083511e-03 -3.015777e-03 -1.120282e-03 -5.977190e-04 -8.234422e-04 -1.420916e-03 -2.212300e-03 -5.552048e-04 1.455627e-04 1.840650e-03 6.498364e-04 7.361959e-04 -1.393915e-03 8.473645e-04 2.400025e-05 2.377559e-03 1.441271e-03 1.710604e-03 -1.084630e-03 3.268000e-04 -9.798889e-04 4.342092e-04 1.091982e-03 6.708050e-04 -3.883589e-04 -6.698117e-04 -4.304989e-04 -1.803123e-03 6.959142e-04 -1.596775e-03 9.711808e-04 -2.601307e-04 2.535166e-03 -1.299776e-03 1.664266e-03 -2.877164e-03 5.596991e-04 -4.047512e-04 2.290926e-03 1.094932e-04 1.850126e-03 -7.860679e-04 -1.339297e-03 9.916332e-04 -1.508017e-03 2.106862e-03 -2.152118e-03 4.637604e-03 -1.353570e-02 1.635554e-02 3.700077e-02 2.149648e-02 1.444457e-02 4.810768e-03 
-2.454187e-03 -1.097347e-02 -2.110401e-02 -3.214852e-02 -4.151025e-02 -1.759527e-02 3.891726e-05 -2.359111e-03 5.989016e-04 -3.259671e-03 2.177241e-04 -3.915606e-03 -2.066572e-03 -9.725553e-07 -2.424683e-04 -1.188253e-04 -1.330049e-04 1.589682e-04 -2.369543e-05 4.506182e-04 -1.536201e-04 1.794668e-03 1.273578e-03 1.008923e-03 1.741143e-03 1.603688e-03 1.138979e-03 -1.548423e-03 -7.524285e-04 -1.799773e-03 6.319091e-04 1.240390e-05 -5.134467e-05 -6.880797e-04 4.773981e-04 -3.957459e-04 3.451373e-04 9.421927e-04 1.268094e-03 1.727887e-03 2.804960e-05 -6.771869e-04 -7.412548e-05 1.772323e-03 2.468351e-04 -6.409248e-04 -3.259853e-03 -2.494736e-03 -1.825915e-03 8.043838e-04 5.634108e-04 -4.314580e-05 -2.009529e-03 -1.009379e-03 -9.378439e-05 1.276764e-03 4.510272e-04 -3.504499e-03 -1.498905e-04 5.827719e-03 -5.688560e-03 -1.277395e-02 -4.570801e-03 4.428914e-03 1.072034e-02 -2.017430e-03 -1.085363e-02 -3.759687e-03 7.880257e-03 1.127772e-02 3.309046e-03 -4.869634e-03 -1.732111e-03 -4.803598e-04 5.488672e-04 7.427742e-04 1.584296e-04 -1.052375e-03 -9.490999e-04 -1.506684e-04 1.778456e-04 1.046516e-03 -5.716430e-05 -3.387358e-04 -5.772718e-04 1.703136e-03 1.233844e-03 2.467130e-03 2.647943e-04 1.030397e-03 5.554454e-04 2.080284e-03 -1.027556e-04 3.708738e-04 -1.440383e-03 -2.615395e-04 1.669097e-04 4.181017e-04 -8.087008e-04 -9.252108e-04 -1.390852e-03 -2.339979e-03 -5.663114e-04 -1.280806e-03 8.150956e-04 3.521309e-04 1.560111e-03 -1.503625e-03 1.143032e-03 -8.788941e-04 2.502094e-03 1.121968e-03 1.502334e-03 -9.647311e-04 1.446954e-03 1.786293e-04 6.297471e-04 8.650515e-04 -4.391291e-04 2.581671e-04 -1.750151e-04 3.987697e-04 5.902493e-03 4.039052e-02 4.242761e-02 2.626726e-02 1.515708e-02 5.810353e-03 
-1.513106e-03 -5.131401e-03 -1.076970e-02 -1.422531e-02 -2.189554e-02 -1.937036e-02 -3.837830e-03 -3.470385e-03 -4.139422e-03 -5.320122e-03 -5.324350e-03 -8.281808e-03 -4.781924e-03 7.915835e-05 -1.325123e-04 -1.118187e-04 -7.029227e-05 1.344367e-04 -8.306884e-05 2.700199e-04 -1.881451e-04 5.792238e-03 6.361782e-03 3.985342e-03 3.623884e-03 2.418768e-03 2.150012e-03 -1.084840e-04 -1.244450e-04 -8.264968e-04 6.803635e-04 2.164433e-04 4.647113e-04 -3.323721e-04 1.532726e-04 -3.379268e-04 2.798289e-05 4.244233e-04 1.032513e-03 9.917767e-04 -2.093429e-04 -7.357222e-04 -5.261096e-04 7.844258e-04 2.476542e-04 -3.503005e-04 -2.153986e-03 -2.174363e-03 -2.130762e-03 -8.160254e-04 -1.082843e-03 -1.898869e-03 -3.636207e-03 -4.921031e-03 -6.031078e-03 -9.798999e-03 -7.996448e-03 9.911749e-04 -4.053818e-04 6.955089e-03 1.076432e-03 8.820295e-04 6.866929e-03 -7.908367e-03 4.058429e-03 -3.059624e-03 -3.308947e-03 4.445504e-03 -9.890536e-03 5.294664e-04 -8.746655e-03 -1.170944e-02 1.440071e-02 1.292453e-02 7.574784e-03 5.804414e-03 3.001643e-03 1.521062e-03 9.031830e-04 1.521181e-03 1.556995e-03 1.681778e-03 3.922295e-04 -3.829498e-05 -1.805646e-04 1.612283e-03 1.578450e-03 2.059860e-03 4.709048e-04 6.231129e-04 9.618416e-05 1.364171e-03 4.397372e-04 5.928523e-04 -4.987120e-04 -3.810554e-05 -2.530456e-04 9.441577e-05 -3.527330e-04 -4.873533e-04 -6.676500e-04 -1.136073e-03 -4.149705e-04 -5.873690e-04 5.466552e-04 -6.306493e-06 6.353407e-04 -7.668709e-04 7.666188e-04 2.344497e-04 2.010942e-03 7.867064e-04 7.985868e-04 -4.490093e-04 8.248933e-04 8.463238e-04 1.334646e-03 1.176855e-03 9.214402e-04 1.406677e-03 2.123372e-03 2.619629e-03 1.163994e-02 2.445496e-02 1.778166e-02 1.324270e-02 7.397211e-03 3.604566e-03 
-1.111696e-03 -3.465126e-03 -6.255502e-03 -7.866911e-03 -9.650329e-03 -8.997855e-03 -6.578201e-03 -7.214621e-03 -6.836499e-03 -1.008486e-02 -1.044978e-02 -1.565603e-02 -1.074958e-02 3.155880e-05 -3.178326e-05 1.827868e-05 -4.487939e-05 3.785474e-05 -4.538498e-05 3.601638e-05 -3.493468e-05 1.280802e-02 1.477601e-02 8.352267e-03 7.116852e-03 3.859792e-03 3.526342e-03 1.479964e-03 1.614391e-03 4.487614e-04 9.355356e-04 2.190319e-04 5.152560e-04 2.066852e-05 3.532476e-04 4.926973e-05 2.722018e-04 2.486336e-04 2.931113e-04 3.160370e-04 2.863369e-07 -2.851519e-06 -2.283794e-04 5.072688e-05 -4.449782e-04 -3.893445e-04 -1.045032e-03 -8.070518e-04 -1.101872e-03 -6.880622e-04 -1.064980e-03 -1.178218e-03 -1.917333e-03 -2.442280e-03 -3.511140e-03 -5.691746e-03 -5.825960e-03 -1.494195e-04 -1.688563e-03 -2.901905e-03 1.570297e-03 5.192115e-03 3.273145e-03 -5.479343e-03 -3.329258e-03 6.725935e-04 4.527757e-03 2.327366e-03 -5.527362e-03 -2.734191e-03 1.592316e-04 1.699478e-03 6.496572e-03 4.660317e-03 2.907085e-03 1.853750e-03 1.109775e-03 6.920075e-04 4.876558e-04 6.252460e-04 5.094190e-04 7.547096e-04 4.139409e-04 6.697555e-04 3.787555e-04 1.002191e-03 6.132098e-04 1.138966e-03 4.765887e-04 9.226769e-04 3.570391e-04 8.633735e-04 1.778146e-04 5.034748e-04 -9.412241e-05 1.910155e-04 -9.441962e-05 1.451183e-05 -2.212580e-04 -3.076553e-04 -2.768360e-04 -5.618744e-04 -8.672750e-05 -4.481507e-04 2.746898e-04 -2.281467e-04 5.419305e-04 -2.864246e-04 6.997906e-04 -6.499962e-05 9.531788e-04 2.395961e-04 8.755986e-04 2.277371e-04 8.832838e-04 6.333096e-04 9.623240e-04 1.205981e-03 1.294850e-03 2.191905e-03 2.509176e-03 4.311119e-03 5.738528e-03 9.950139e-03 8.319367e-03 7.037422e-03 4.199527e-03 1.907699e-03 
-5.070892e-04 -1.321696e-03 -2.583505e-03 -3.271481e-03 -3.981117e-03 -4.286889e-03 -3.112515e-03 -3.698533e-03 -3.534540e-03 -4.953872e-03 -5.314065e-03 -7.747066e-03 -5.310280e-03 2.842172e-05 -9.186479e-06 1.321127e-05 -1.764728e-05 2.810979e-05 -2.453234e-05 2.728571e-05 -1.721936e-05 6.573187e-03 7.500075e-03 4.032482e-03 3.336018e-03 1.712391e-03 1.524800e-03 5.814040e-04 6.018533e-04 1.074793e-04 3.181432e-04 2.497899e-05 1.707531e-04 -5.014834e-05 8.654981e-05 -3.572886e-05 6.549565e-05 5.333305e-05 8.820414e-05 5.586135e-05 -1.044636e-04 -1.523951e-04 -2.845698e-04 -2.120949e-04 -4.512132e-04 -5.079169e-04 -8.515091e-04 -8.518515e-04 -1.035669e-03 -9.248853e-04 -1.106709e-03 -1.153514e-03 -1.439569e-03 -1.464638e-03 -1.629780e-03 -1.510307e-03 -1.884334e-03 -7.394577e-04 -9.923021e-04 1.699829e-04 3.918858e-04 2.676699e-04 1.381567e-03 -1.091583e-03 6.196531e-04 -2.745837e-04 -2.594123e-04 3.675979e-04 -1.936381e-03 -5.320503e-04 -1.143445e-03 -7.791693e-04 1.722006e-03 1.380106e-03 1.656889e-03 1.295213e-03 1.167677e-03 1.000652e-03 9.332178e-04 1.007696e-03 9.224315e-04 1.004023e-03 7.892960e-04 8.824306e-04 7.251414e-04 1.006048e-03 8.271188e-04 1.025098e-03 6.969361e-04 8.411855e-04 5.486639e-04 7.399115e-04 4.253748e-04 5.156621e-04 2.151376e-04 2.809702e-04 9.075769e-05 1.130348e-04 -1.538033e-05 -6.770346e-05 -8.137053e-05 -1.892600e-04 -2.783794e-05 -1.403282e-04 1.428959e-04 -3.230804e-05 2.826883e-04 1.275675e-05 4.203761e-04 1.828105e-04 5.875546e-04 3.096702e-04 5.539168e-04 3.154609e-04 5.919432e-04 5.256401e-04 7.247602e-04 7.819352e-04 9.532678e-04 1.237823e-03 1.594565e-03 2.196340e-03 2.834789e-03 4.114589e-03 3.166593e-03 2.959066e-03 1.590424e-03 8.921655e-04 
-3.658877e-05 -4.159180e-05 -4.690417e-05 -5.221084e-05 -5.808943e-05 -6.491475e-05 -6.988651e-05 -7.796360e-05 -7.459278e-05 -8.285439e-05 -7.173373e-05 -8.293802e-05 -8.039363e-05 2.078990e-06 -1.451005e-06 2.604757e-07 -6.875563e-08 9.233986e-07 1.817464e-06 9.766063e-07 3.360689e-06 -1.736628e-04 -1.502398e-04 -1.562233e-04 -1.423466e-04 -1.455406e-04 -1.640126e-04 -1.782970e-04 -1.798550e-04 -1.520945e-04 -1.302924e-04 -9.436589e-05 -9.229725e-05 -6.003169e-05 -4.085748e-05 -4.066976e-06 1.645094e-05 4.077079e-05 3.138670e-05 1.097894e-05 -3.905305e-05 -9.441824e-05 -1.427705e-04 -2.076235e-04 -2.901889e-04 -3.918602e-04 -4.863044e-04 -5.701926e-04 -6.196191e-04 -6.875574e-04 -7.565358e-04 -8.737072e-04 -9.966910e-04 -1.115229e-03 -1.240815e-03 -1.249407e-03 -1.303228e-03 -7.248394e-04 -7.054138e-04 -5.132999e-04 4.422036e-05 2.365079e-04 4.517745e-04 -2.743730e-04 9.815925e-05 2.063839e-04 4.083766e-04 4.010811e-04 -3.056675e-04 8.580487e-05 2.089719e-04 4.822929e-04 9.412090e-04 8.059395e-04 7.472674e-04 6.122010e-04 5.316429e-04 5.051762e-04 4.742401e-04 5.147229e-04 5.126698e-04 5.719329e-04 5.803900e-04 6.331301e-04 6.474861e-04 6.964828e-04 7.017893e-04 7.169444e-04 6.934046e-04 6.662696e-04 6.250728e-04 5.681103e-04 4.965267e-04 4.179598e-04 3.433546e-04 2.658485e-04 2.002152e-04 1.254289e-04 5.483158e-05 3.579216e-06 -4.034932e-05 -5.789733e-05 -6.327277e-05 -4.137942e-05 -2.246324e-05 3.165610e-05 5.883637e-05 1.041614e-04 1.363321e-04 1.765765e-04 1.999145e-04 2.351941e-04 2.369539e-04 2.467605e-04 2.486132e-04 2.362407e-04 2.130771e-04 1.902402e-04 1.652971e-04 1.384435e-04 1.203319e-04 7.892868e-05 4.744476e-05 2.052717e-05 8.720977e-07 -1.313954e-05 -2.333258e-05 -3.056459e-05 
4.460043e-04 1.259742e-03 2.508174e-03 3.197607e-03 3.889724e-03 4.198020e-03 3.003931e-03 3.593201e-03 3.425787e-03 4.884455e-03 5.258704e-03 7.703743e-03 5.233108e-03 -2.251725e-05 1.063993e-05 -6.521405e-06 2.865737e-05 -1.520717e-05 3.364019e-05 -1.956970e-05 1.824985e-05 -6.837938e-03 -7.746986e-03 -4.238844e-03 -3.525598e-03 -1.890153e-03 -1.828154e-03 -9.906298e-04 -1.063348e-03 -4.640954e-04 -5.791224e-04 -2.030013e-04 -3.878537e-04 -1.326626e-04 -2.336100e-04 -2.677113e-05 -6.732906e-05 2.973302e-05 5.348933e-06 -3.257848e-05 -3.825745e-05 -1.494468e-04 -8.540649e-05 -2.602822e-04 -2.153563e-04 -4.753588e-04 -4.204372e-04 -6.514097e-04 -5.153872e-04 -7.003700e-04 -5.956030e-04 -7.881662e-04 -7.206755e-04 -8.065676e-04 -7.236280e-04 -6.847781e-04 -6.635053e-04 -4.752281e-04 -4.313593e-04 -2.372457e-04 -1.028083e-04 -1.464543e-04 1.253374e-04 -1.510182e-04 8.362765e-05 -6.922799e-06 -1.597210e-04 6.359655e-05 -3.710990e-04 5.739304e-05 -1.613894e-04 1.461208e-04 2.941275e-04 4.228605e-04 4.835779e-04 5.676827e-04 6.032877e-04 6.489306e-04 6.504631e-04 6.515134e-04 7.022755e-04 6.886075e-04 8.212407e-04 7.557231e-04 9.127712e-04 7.738074e-04 9.692648e-04 7.762504e-04 9.774510e-04 7.177247e-04 8.932142e-04 6.014827e-04 7.528005e-04 4.755498e-04 5.813953e-04 3.309309e-04 3.593877e-04 1.817250e-04 1.601154e-04 1.143532e-04 2.722299e-05 7.695869e-05 -1.072200e-04 7.089371e-05 -1.369450e-04 1.906844e-04 -5.999780e-05 2.926098e-04 -3.856560e-05 3.047342e-04 -2.881696e-05 3.149315e-04 2.714131e-05 2.632964e-04 -6.130432e-06 3.862296e-05 -2.236401e-04 -3.493527e-04 -5.821493e-04 -9.201958e-04 -1.321828e-03 -2.028931e-03 -2.747586e-03 -4.081099e-03 -3.170355e-03 -2.984437e-03 -1.633028e-03 -9.415083e-04 
1.027019e-03 3.380432e-03 6.165449e-03 7.771310e-03 9.537177e-03 8.869790e-03 6.409894e-03 7.025301e-03 6.656192e-03 9.899764e-03 1.035379e-02 1.552451e-02 1.057249e-02 -5.460272e-05 3.657614e-06 -2.804571e-05 4.272568e-05 -3.357278e-05 4.894475e-05 -4.373789e-05 1.157399e-05 -1.322809e-02 -1.507675e-02 -8.626878e-03 -7.275464e-03 -3.972957e-03 -3.877488e-03 -2.073079e-03 -2.235237e-03 -8.772943e-04 -1.148165e-03 -3.136635e-04 -7.540400e-04 -2.273124e-04 -4.571824e-04 -1.050183e-05 -6.750935e-05 1.328346e-04 1.120111e-04 9.731377e-06 5.722361e-05 -1.517964e-04 1.192976e-04 -1.827590e-04 5.568129e-05 -4.243804e-04 -1.900243e-04 -6.010374e-04 -1.755538e-04 -5.183500e-04 -2.202984e-04 -6.154247e-04 -3.828308e-04 -6.194388e-04 -3.792981e-04 -5.331822e-04 -4.091391e-04 -3.577278e-04 -1.746878e-04 3.579718e-06 8.274179e-05 1.628543e-04 1.378009e-04 1.969327e-04 1.028624e-04 2.698317e-04 -8.660210e-05 1.438437e-04 -2.402639e-04 1.837625e-04 -7.610434e-05 3.072434e-04 7.888090e-05 3.001544e-04 8.238553e-05 2.949274e-04 2.355963e-04 3.561652e-04 2.718574e-04 2.398671e-04 3.612584e-04 3.250850e-04 7.085433e-04 5.561170e-04 9.422110e-04 5.420487e-04 1.025121e-03 5.673970e-04 1.141242e-03 5.933914e-04 1.128987e-03 4.767541e-04 9.105016e-04 3.378175e-04 7.389304e-04 2.925817e-04 5.025672e-04 1.608436e-04 1.292031e-04 7.297046e-05 -9.272298e-05 1.343978e-04 -2.948372e-04 1.386625e-04 -4.824549e-04 2.930062e-04 -4.090146e-04 4.955971e-04 -3.708819e-04 4.736433e-04 -4.472391e-04 4.187931e-04 -3.002671e-04 3.543358e-04 -1.967948e-04 -1.855623e-05 -4.880583e-04 -8.057034e-04 -9.823316e-04 -1.894081e-03 -2.166132e-03 -4.160689e-03 -5.743617e-03 -9.998576e-03 -8.398572e-03 -7.123106e-03 -4.287287e-03 -1.993458e-03 
1.436862e-03 5.067587e-03 1.070316e-02 1.416614e-02 2.181136e-02 1.928955e-02 3.661234e-03 3.150970e-03 3.810400e-03 5.289408e-03 5.579873e-03 8.449079e-03 4.643674e-03 -1.828283e-04 6.054263e-05 9.638902e-05 1.271338e-04 -7.594490e-05 1.145776e-04 -3.056139e-04 9.171175e-05 -6.225232e-03 -6.745483e-03 -4.099119e-03 -3.140512e-03 -1.562883e-03 -2.282803e-03 -1.438797e-03 -1.767416e-03 -2.774764e-05 -3.102975e-04 3.406585e-04 -7.865284e-04 -3.489226e-04 -5.946054e-04 1.851085e-04 1.797394e-04 4.868684e-04 3.934702e-04 1.031026e-04 4.640240e-05 -1.665721e-04 4.480453e-04 1.122193e-04 3.216109e-04 -6.018018e-04 -4.416315e-04 -9.809455e-04 -9.561916e-05 -3.912729e-04 -2.256091e-05 -8.749152e-04 -7.264596e-04 -9.959369e-04 -4.055530e-04 -5.919289e-04 -4.909725e-04 -5.288958e-04 -2.445363e-04 1.234150e-04 3.794706e-05 -1.776488e-05 -1.753376e-05 1.611807e-04 3.487946e-04 6.017977e-04 -1.217715e-04 1.273181e-04 -3.783049e-04 5.043965e-04 1.763284e-04 6.784481e-04 2.538669e-04 2.672222e-04 -1.922480e-04 2.327321e-04 3.753172e-04 5.794490e-04 2.730254e-04 6.912735e-05 1.329351e-04 1.866514e-04 9.104801e-04 7.841110e-04 1.208125e-03 5.777497e-04 1.283908e-03 7.546795e-04 1.614754e-03 8.140516e-04 1.453925e-03 4.941103e-04 1.198884e-03 5.053198e-04 1.147039e-03 3.959687e-04 5.350354e-04 -7.933505e-05 6.879866e-05 1.755403e-04 1.415619e-04 2.174036e-04 -6.075813e-04 -2.230882e-04 -8.466404e-04 4.849081e-04 -1.825104e-04 9.331519e-04 -4.536611e-04 4.357193e-04 -8.334374e-04 5.692472e-04 -1.474385e-04 9.023808e-04 1.200963e-04 1.878171e-04 -6.557516e-04 -8.263768e-04 -7.094872e-04 -9.958531e-04 -1.546837e-03 -2.531827e-03 -1.190705e-02 -2.467853e-02 -1.795432e-02 -1.338075e-02 -7.507294e-03 -3.693861e-03 
2.397968e-03 1.093858e-02 2.109367e-02 3.215566e-02 4.153650e-02 1.756704e-02 -4.190841e-04 1.963556e-03 -1.091446e-03 2.784472e-03 2.308653e-04 4.203520e-03 1.651279e-03 -2.783719e-04 5.146493e-05 1.060871e-04 2.082200e-04 -5.673911e-05 1.502736e-04 -3.875793e-04 -2.930085e-05 -3.041217e-03 -2.013357e-03 -1.135920e-03 -7.271519e-04 3.621817e-04 -1.436188e-03 -1.184103e-03 -1.924289e-03 7.493922e-04 3.538618e-04 1.276944e-03 -7.660076e-04 -6.544511e-04 -1.095950e-03 2.277172e-04 6.387700e-04 1.199022e-03 1.101152e-03 2.029780e-04 -1.844044e-04 -6.868815e-04 7.799140e-04 5.338262e-04 1.086174e-03 -6.041942e-04 -7.370148e-04 -1.501070e-03 4.510395e-04 1.366386e-04 5.081092e-04 -8.724147e-04 -5.836066e-04 -8.293619e-04 -4.547427e-05 -8.941998e-04 -1.137194e-03 -9.651698e-04 3.274131e-04 1.673822e-03 1.648998e-03 1.443223e-03 8.461795e-04 1.000802e-03 1.000883e-03 1.511031e-03 -1.550723e-04 -1.961726e-04 -8.568819e-04 4.310318e-04 1.290325e-04 8.607754e-04 -3.690043e-04 -5.273357e-04 -1.549260e-03 -8.059828e-04 -1.946952e-04 3.913729e-04 -4.520038e-04 -9.736085e-04 -8.220378e-04 -5.510438e-04 1.129925e-03 1.275659e-03 1.769409e-03 2.146007e-04 1.183858e-03 2.997701e-04 1.948436e-03 9.794921e-04 2.472224e-03 5.194658e-04 1.108592e-03 -2.434272e-04 1.231730e-03 6.059774e-04 1.464142e-03 2.292127e-04 -3.353834e-04 -5.603500e-04 -4.584626e-04 5.213147e-04 -4.245706e-04 3.038194e-05 -1.879064e-03 2.972159e-04 -1.031035e-03 1.651700e-03 -4.462838e-04 1.115604e-03 -1.853234e-03 6.915196e-04 -8.576686e-04 1.469427e-03 6.915712e-04 1.326818e-03 -4.014870e-04 -7.831895e-04 -1.299707e-05 1.053537e-05 1.883395e-03 -1.762837e-05 -6.875585e-03 -4.098731e-02 -4.274888e-02 -2.649384e-02 -1.529400e-02 -5.908530e-03 
8.122551e-04 9.372333e-03 1.670132e-02 2.773082e-02 2.834513e-02 -1.250899e-02 -3.140187e-03 2.054543e-03 -5.303983e-03 1.295755e-03 -5.720265e-03 -7.504465e-04 -4.260056e-03 5.474847e-03 3.695637e-04 1.569687e-03 3.133851e-04 -8.145826e-05 -6.107974e-05 -2.257962e-03 -1.585396e-03 1.530069e-03 2.356224e-03 2.154709e-03 1.114935e-03 1.825148e-03 5.329147e-04 7.184135e-04 -2.070876e-04 1.111790e-03 5.556635e-04 1.454364e-03 4.989773e-04 1.167150e-04 -2.713044e-04 1.461212e-04 9.356830e-04 9.317988e-04 1.305418e-03 -2.688434e-05 -3.072029e-05 -1.191999e-03 3.972650e-04 -1.417623e-04 1.109743e-03 -3.992439e-04 -1.923104e-04 -1.150193e-03 6.702535e-04 -7.052085e-05 3.291894e-04 -5.292092e-04 1.478770e-04 -2.126092e-04 -1.805944e-04 -1.569226e-03 -2.115594e-03 -1.697664e-03 -1.654028e-04 1.509950e-03 1.598222e-03 1.822476e-03 9.194524e-04 1.202335e-03 4.762197e-04 1.187474e-03 -3.179372e-04 7.999308e-05 -4.254210e-04 5.457519e-04 5.321675e-05 8.741263e-04 -6.270875e-04 -2.533349e-04 -1.200912e-03 -6.953461e-04 -3.481104e-04 2.603756e-04 -4.224287e-04 -8.592247e-04 -4.190813e-04 -4.262031e-04 1.261309e-03 1.206813e-03 1.917323e-03 -1.205745e-04 8.258042e-04 -5.808056e-04 1.325691e-03 4.089239e-04 2.643800e-03 3.617379e-04 6.032427e-04 -1.187704e-03 5.556900e-04 6.294380e-04 2.247836e-03 1.305365e-03 -3.085797e-04 -8.781706e-04 -1.387858e-03 1.081360e-03 3.810019e-04 1.717553e-03 -1.905270e-03 3.504694e-04 -2.483022e-03 1.696507e-03 -5.805036e-04 2.236594e-03 -1.848033e-03 8.711420e-04 -1.746525e-03 8.630050e-04 6.352011e-04 1.792987e-03 1.009038e-03 -6.899203e-04 1.172969e-03 -1.866839e-03 4.370270e-03 -3.641179e-03 1.293872e-02 -1.662702e-02 -3.710442e-02 -2.157362e-02 -1.447787e-02 -4.829157e-03 
1.570889e-04 3.406633e-03 4.291720e-03 6.605642e-03 7.392480e-04 -2.090753e-02 3.774762e-04 4.759410e-03 -6.877529e-04 5.893287e-03 2.219680e-04 6.778164e-03 -3.286751e-03 -7.139460e-03 -6.771493e-03 -9.804612e-04 -2.298390e-03 1.664348e-03 1.315542e-03 5.351937e-03 7.334799e-03 -2.202090e-05 -2.615474e-03 -2.369346e-03 -1.915658e-03 -8.798834e-04 -2.630483e-04 5.131782e-04 2.227348e-04 8.209929e-05 -3.074593e-04 2.653431e-04 6.725625e-04 5.266241e-04 3.787799e-04 -6.191805e-05 3.366424e-04 -8.906466e-05 3.802403e-04 -3.426485e-04 9.185789e-05 -8.638405e-04 -2.493712e-04 -8.948342e-04 1.185949e-04 -3.726156e-04 2.336203e-04 -4.024558e-04 1.650967e-04 -5.409937e-04 -1.199894e-04 -7.742587e-05 6.031812e-04 3.692061e-04 4.900122e-05 -5.781300e-04 -7.751300e-04 -4.360790e-04 8.133346e-06 6.004561e-04 6.414561e-04 9.992752e-04 5.413079e-04 5.680327e-04 -3.589041e-04 -1.375308e-04 -7.143166e-04 -1.469993e-04 -6.527913e-04 -3.982539e-04 -9.198923e-04 -2.361055e-04 -6.454316e-04 2.328764e-04 1.176098e-04 2.903417e-04 9.264241e-05 3.110181e-04 2.622784e-04 2.361805e-04 6.093539e-04 3.243691e-04 8.743683e-04 5.132564e-04 1.126469e-03 5.611410e-05 6.205967e-04 -4.578818e-04 5.718410e-04 -6.900876e-05 1.362779e-03 1.688849e-04 4.215669e-04 -7.013384e-04 1.846956e-04 3.257499e-04 1.374547e-03 1.194422e-03 1.505738e-04 -1.897871e-04 -9.448508e-04 8.287310e-04 4.177647e-04 1.810268e-03 -7.494708e-04 4.608997e-04 -1.966787e-03 7.543036e-04 -7.170796e-04 1.625267e-03 -8.234486e-04 6.573666e-04 -1.325631e-03 -8.290329e-06 -1.401928e-04 6.743062e-04 1.092426e-03 -4.795543e-04 9.707563e-04 -2.927869e-03 1.888027e-03 -6.746614e-03 1.222662e-02 6.592703e-03 -7.895579e-03 -3.615104e-03 -4.234102e-03 -5.493787e-04 
1.038258e-04 1.221324e-03 1.759137e-03 1.342791e-03 -3.678796e-05 -6.354773e-03 2.423226e-03 4.425873e-03 4.323477e-03 8.695584e-03 1.039126e-02 1.831133e-02 2.222815e-02 2.313880e-02 1.183314e-02 6.211849e-03 2.357280e-03 -2.329039e-03 -6.942445e-03 -1.121588e-02 -2.319627e-02 -2.381949e-02 -1.640686e-02 -1.137968e-02 -7.220107e-03 -4.774894e-03 -2.803979e-03 -1.492019e-03 -8.796317e-04 -6.065432e-04 -5.265088e-04 -1.585374e-04 1.738612e-04 2.529435e-04 2.792795e-04 4.928905e-05 1.928789e-04 -9.116211e-05 1.170927e-04 -2.058546e-04 1.081033e-04 -3.552850e-04 -1.207370e-04 -5.707523e-04 -1.001450e-04 -3.083118e-04 1.605871e-04 -1.422625e-04 1.143902e-04 -2.545919e-04 8.275228e-05 1.083159e-04 4.993632e-04 2.744717e-04 5.205503e-05 -4.751937e-04 -9.289486e-04 -1.273635e-03 -1.678678e-03 -1.058564e-03 -2.980799e-03 -3.692518e-03 -2.057453e-03 -1.206266e-03 1.565867e-05 -1.373254e-03 -2.386319e-03 -1.786701e-04 2.851713e-04 2.101032e-03 7.798759e-04 4.965888e-04 1.487485e-03 1.789487e-03 1.874369e-03 1.765610e-03 1.361780e-03 1.215069e-03 9.484593e-04 8.056962e-04 7.744812e-04 5.710831e-04 7.032284e-04 4.690704e-04 7.512982e-04 2.706835e-04 5.564444e-04 3.497308e-05 5.454078e-04 1.591626e-04 7.765046e-04 2.240056e-04 5.025655e-04 9.920781e-06 3.919973e-04 3.168763e-04 6.799953e-04 6.236584e-04 2.830919e-04 2.475644e-04 -1.863523e-04 5.091389e-04 1.211587e-04 8.655238e-04 -2.661915e-04 4.221680e-04 -7.784093e-04 4.287813e-04 -4.542796e-04 6.991153e-04 -3.744746e-04 4.036795e-04 -4.359195e-04 1.377906e-04 -1.925839e-06 2.078854e-04 5.996857e-04 -2.224308e-04 6.941625e-04 -1.411937e-03 8.143505e-04 -3.289633e-03 3.803666e-03 3.163947e-03 -9.816596e-04 -7.555187e-04 -1.612036e-03 -3.001577e-04 
