# vtk DataFile Version 2.0
Comment goes here
ASCII

DATASET STRUCTURED_POINTS
FIELD FieldData 1
TIME 1 1 double
0.94000000
DIMENSIONS    128   16   1

ORIGIN    0.000   0.000   0.000
SPACING   0.0078125 0.015625   1.000

POINT_DATA   2048
SCALARS uY double
LOOKUP_TABLE default

1.151772e-06 2.624866e-07 1.029736e-06 6.259241e-07 1.281643e-06 4.557924e-07 2.760216e-06 -1.108936e-06 2.507171e-06 -2.945798e-06 1.837849e-06 -4.081452e-06 1.524125e-06 -4.997618e-06 1.562403e-06 -4.235035e-06 2.966423e-06 -3.041557e-06 5.787197e-06 -1.862126e-06 8.263581e-06 9.565701e-07 1.278717e-05 2.076643e-06 1.774907e-05 4.626101e-06 2.258711e-05 8.522708e-06 2.801854e-05 1.574464e-05 3.506633e-05 2.690024e-05 4.413916e-05 4.357202e-05 5.762433e-05 6.835884e-05 7.819855e-05 1.042868e-04 1.100882e-04 1.570738e-04 1.601675e-04 2.344581e-04 2.365590e-04 3.448949e-04 3.493581e-04 5.003255e-04 5.152051e-04 7.178404e-04 7.555002e-04 1.013385e-03 1.091415e-03 1.391449e-03 1.525283e-03 1.777143e-03 1.927492e-03 1.922472e-03 2.261501e-03 1.070580e-03 6.644815e-04 -1.040630e-03 4.810868e-04 1.699840e-03 -5.545435e-04 1.193572e-04 -2.127551e-03 3.046276e-04 1.564405e-03 -7.036162e-04 2.907926e-04 -2.126338e-03 -3.204335e-04 5.079083e-04 -1.891217e-03 -1.834362e-03 -2.001370e-03 -1.769946e-03 -1.639409e-03 -1.418274e-03 -1.193346e-03 -1.013229e-03 -8.188260e-04 -6.910429e-04 -5.502854e-04 -4.643618e-04 -3.682486e-04 -3.122562e-04 -2.465421e-04 -2.115500e-04 -1.642806e-04 -1.455427e-04 -1.091554e-04 -1.038390e-04 -7.210890e-05 -7.626234e-05 -4.617670e-05 -5.727536e-05 -2.966137e-05 -4.390532e-05 -2.002027e-05 -3.287857e-05 -1.550374e-05 -2.351150e-05 -1.483169e-05 -1.535253e-05 -1.636357e-05 -8.595708e-06 -1.847544e-05 -3.173332e-06 -1.980590e-05 5.307380e-07 -1.927749e-05 3.609355e-06 -1.577224e-05 5.233524e-06 -1.206052e-05 3.968385e-06 -8.125367e-06 2.268028e-06 -3.665234e-06 1.869700e-07 5.955470e-08 -1.239356e-06 3.921517e-06 -1.302021e-06 2.441641e-06 -9.323933e-07 1.576785e-06 -3.115260e-07 
-6.518767e-04 8.202515e-04 -1.826820e-04 6.399766e-04 -3.143206e-03 -4.029775e-03 5.484906e-03 1.502867e-03 3.334607e-03 4.924150e-03 6.696872e-03 1.077246e-02 1.229897e-02 1.257459e-02 7.608832e-03 2.859362e-03 9.586915e-04 -1.304773e-03 -4.565266e-03 -6.156170e-03 -1.231182e-02 -1.302520e-02 -9.688600e-03 -6.922236e-03 -4.362028e-03 -2.841003e-03 -1.970631e-03 -1.103371e-03 -9.419984e-04 -3.501174e-04 -4.740488e-04 -4.028332e-05 -2.410225e-04 6.646908e-05 -1.020788e-04 8.212155e-05 -3.855063e-07 6.049696e-05 8.497975e-05 3.248540e-05 1.620461e-04 1.834208e-05 2.341863e-04 3.257248e-05 3.054759e-04 8.988578e-05 3.895051e-04 2.126308e-04 5.132374e-04 4.373955e-04 7.287150e-04 8.457255e-04 1.130513e-03 1.580976e-03 2.112805e-03 4.777271e-03 8.022326e-03 8.749231e-03 1.535758e-03 -1.012642e-02 1.085601e-02 2.260212e-02 5.664136e-03 -4.246893e-03 -1.725499e-02 4.354967e-03 1.681353e-02 2.257192e-04 -7.255209e-03 -2.068830e-02 -6.435624e-03 7.165437e-03 -7.301421e-03 -8.414389e-03 -5.129134e-03 -3.745864e-03 -2.331227e-03 -1.895439e-03 -1.102530e-03 -1.029501e-03 -4.546721e-04 -6.190716e-04 -1.079408e-04 -4.285976e-04 7.454722e-05 -3.338539e-04 1.602984e-04 -2.696495e-04 1.822518e-04 -2.047776e-04 1.543206e-04 -1.271857e-04 8.642992e-05 -2.981760e-05 -1.014638e-05 8.472202e-05 -1.260656e-04 2.069101e-04 -2.461676e-04 3.242690e-04 -3.539112e-04 4.176277e-04 -4.317231e-04 4.686394e-04 -4.607100e-04 4.610545e-04 -4.257583e-04 3.822500e-04 -3.189135e-04 2.252109e-04 -1.422128e-04 -7.818870e-06 8.988605e-05 -3.083331e-04 3.415097e-04 -6.596010e-04 5.602805e-04 -1.029361e-03 6.741901e-04 -1.376081e-03 6.306279e-04 -1.462205e-03 2.169484e-03 4.375743e-03 -6.658421e-04 -1.277120e-04 -1.481590e-03 -1.189336e-04 
-1.507509e-03 1.920933e-03 2.899750e-04 3.954264e-03 -7.717982e-03 -1.295870e-02 1.131030e-02 -1.217118e-03 6.903369e-04 6.349224e-04 2.820046e-05 -1.989823e-05 -3.260239e-03 -3.200491e-03 -4.886546e-03 4.634533e-04 -1.793943e-03 1.917120e-03 -2.110479e-04 4.481642e-03 2.401408e-03 2.697167e-03 1.739993e-03 -4.541295e-04 4.301664e-04 -4.392065e-05 1.490720e-04 2.284505e-04 -1.370637e-05 3.589744e-04 -6.862607e-05 3.827212e-04 -5.030526e-05 3.372418e-04 2.765737e-05 2.587355e-04 1.434998e-04 1.686082e-04 2.772212e-04 9.445602e-05 4.198095e-04 6.437190e-05 5.679090e-04 1.038195e-04 7.263067e-04 2.481239e-04 9.366672e-04 5.694795e-04 1.285953e-03 1.181540e-03 1.933218e-03 2.329126e-03 3.217687e-03 4.606899e-03 6.408704e-03 1.107899e-02 9.982480e-03 -1.112394e-03 -2.748154e-04 -6.663027e-03 5.235857e-04 3.716885e-03 -5.067423e-03 5.412107e-03 -8.091566e-03 2.593476e-03 5.353034e-03 -5.676564e-03 6.573932e-03 -6.857545e-03 1.552989e-03 1.236683e-02 -8.790382e-03 -1.081534e-02 -7.364932e-03 -5.392338e-03 -3.540234e-03 -2.918163e-03 -1.753669e-03 -1.737202e-03 -7.734321e-04 -1.165784e-03 -2.160170e-04 -8.904427e-04 9.923155e-05 -7.384496e-04 2.606775e-04 -6.148561e-04 3.136315e-04 -4.752876e-04 2.690845e-04 -3.111193e-04 1.413859e-04 -1.042627e-04 -4.239101e-05 1.369672e-04 -2.714792e-04 3.904330e-04 -5.104466e-04 6.369489e-04 -7.269305e-04 8.322436e-04 -8.885883e-04 9.412888e-04 -9.539254e-04 9.322192e-04 -8.920858e-04 7.789590e-04 -6.874166e-04 4.625465e-04 -3.434105e-04 -1.109891e-05 1.218219e-04 -6.302364e-04 6.414496e-04 -1.375822e-03 1.148381e-03 -2.190570e-03 1.594814e-03 -3.001985e-03 2.161924e-03 -3.554600e-03 6.132092e-03 1.158252e-02 -5.094174e-03 -3.694522e-03 -4.090249e-03 -1.107051e-03 
-1.995047e-04 6.868734e-03 1.030791e-02 1.939600e-02 9.321359e-03 -1.171516e-02 3.446528e-03 -5.790926e-05 -1.701966e-03 1.281708e-03 -2.747283e-03 1.332558e-03 -9.657633e-04 2.190486e-03 1.162915e-03 7.815432e-05 9.314306e-04 -1.076365e-03 1.222113e-03 -2.450241e-03 6.628276e-04 -3.049528e-04 2.185031e-04 9.661144e-04 -9.243030e-05 8.305310e-04 -4.811651e-04 8.578620e-04 -6.338983e-04 8.794185e-04 -6.351943e-04 8.198490e-04 -5.456590e-04 6.837794e-04 -3.778017e-04 5.038596e-04 -1.712999e-04 2.895419e-04 3.476958e-05 6.981251e-05 2.195480e-04 -1.285793e-04 3.591660e-04 -3.004248e-04 4.196626e-04 -4.501243e-04 4.006794e-04 -5.634333e-04 3.030140e-04 -6.900121e-04 7.656455e-05 -9.225616e-04 -3.423699e-04 -1.464970e-03 -1.399222e-03 -3.801104e-03 -4.151190e-03 -2.603681e-03 -3.441279e-04 5.255403e-03 -3.802321e-03 -7.821630e-03 -1.343969e-03 5.049993e-04 6.363182e-03 -1.709832e-03 -7.226476e-03 1.437476e-03 5.047803e-04 8.252779e-03 8.173073e-04 -5.505141e-03 3.807152e-03 5.880712e-03 3.258607e-03 2.756656e-03 1.764590e-03 1.322659e-03 1.210094e-03 5.164149e-04 1.006911e-03 1.095354e-05 9.503918e-04 -3.231657e-04 9.351357e-04 -5.228555e-04 9.067121e-04 -5.893440e-04 8.381435e-04 -5.302088e-04 6.795930e-04 -3.830180e-04 4.219925e-04 -1.292633e-04 1.037014e-04 2.028253e-04 -2.778451e-04 5.674858e-04 -6.641774e-04 9.411261e-04 -1.010788e-03 1.245969e-03 -1.277686e-03 1.432886e-03 -1.398419e-03 1.457603e-03 -1.325609e-03 1.285368e-03 -1.032709e-03 8.880681e-04 -5.146871e-04 2.914233e-04 2.335053e-04 -4.729388e-04 1.137303e-03 -1.361570e-03 2.153613e-03 -2.250117e-03 3.206693e-03 -3.095549e-03 4.087775e-03 -4.113096e-03 4.738836e-03 4.786722e-03 -2.341327e-02 -1.750744e-02 -1.074766e-02 -3.890057e-03 
9.325923e-04 6.654625e-03 1.507215e-02 2.244870e-02 2.909145e-02 5.986068e-03 -8.875953e-03 2.244778e-03 -9.792084e-04 1.190005e-03 4.241937e-04 8.504277e-04 7.228227e-04 -3.841605e-04 2.724487e-04 -3.343891e-04 4.058024e-04 -4.455144e-04 4.559609e-04 -4.429629e-04 3.405886e-04 -1.897230e-03 1.753370e-04 -8.531168e-04 7.323794e-05 1.443713e-04 -1.370065e-04 5.964160e-04 -3.552322e-04 7.897171e-04 -4.730488e-04 8.228589e-04 -4.919018e-04 7.523816e-04 -4.163101e-04 6.233160e-04 -2.817627e-04 4.525079e-04 -1.243754e-04 2.657378e-04 3.412183e-05 8.603849e-05 1.714255e-04 -7.964160e-05 2.596100e-04 -2.301616e-04 2.934681e-04 -3.492894e-04 2.657679e-04 -4.619917e-04 1.315942e-04 -6.145873e-04 -1.574738e-04 -8.856572e-04 -6.751114e-04 -9.165192e-04 1.082072e-03 4.582930e-03 1.019329e-03 -3.829867e-03 5.292978e-03 1.079235e-02 4.183433e-03 -2.372921e-03 -6.136202e-03 2.629917e-03 7.044220e-03 2.173994e-03 -5.079070e-03 -7.653800e-03 -2.429099e-03 2.372778e-03 -1.256268e-03 -1.761526e-03 -9.219197e-04 -7.085498e-04 -4.152891e-04 -4.807799e-04 -7.947007e-05 -4.439371e-04 1.918180e-04 -4.831603e-04 3.944045e-04 -5.506287e-04 5.324441e-04 -6.037154e-04 6.081730e-04 -6.055515e-04 6.215311e-04 -5.387360e-04 5.448000e-04 -4.164304e-04 3.767903e-04 -2.190906e-04 1.505149e-04 3.538619e-05 -1.307622e-04 3.150496e-04 -4.214733e-04 6.029340e-04 -6.882110e-04 8.442415e-04 -9.032004e-04 1.004845e-03 -1.020445e-03 1.053547e-03 -1.008311e-03 9.660206e-04 -8.504305e-04 7.211515e-04 -5.458354e-04 3.354742e-04 -9.617735e-05 -1.715523e-04 4.351096e-04 -7.689884e-04 9.921750e-04 -1.347041e-03 1.462521e-03 -1.745128e-03 1.590237e-03 -1.201492e-03 -1.232083e-03 -1.149010e-02 -2.737139e-02 -2.138178e-02 -1.212099e-02 -5.737025e-03 
7.644476e-04 3.249558e-03 8.238471e-03 1.011399e-02 1.797554e-02 1.094445e-02 -3.555285e-03 3.342911e-03 1.041713e-03 1.751974e-03 2.652884e-03 2.209338e-03 2.132563e-03 -2.942572e-04 2.801080e-04 -2.843047e-04 3.980446e-04 -4.353043e-04 4.196109e-04 -4.591731e-04 2.513809e-04 -1.314635e-03 -1.274351e-03 -2.533907e-03 -1.323779e-03 -1.073955e-03 -8.954894e-04 -2.438144e-04 -6.732095e-04 2.019343e-04 -5.351050e-04 4.136016e-04 -4.227241e-04 4.863155e-04 -3.016886e-04 4.841469e-04 -1.606287e-04 4.491285e-04 2.748838e-06 4.158071e-04 1.923682e-04 4.181232e-04 4.190096e-04 4.954991e-04 7.097270e-04 7.088847e-04 1.127518e-03 1.170097e-03 1.800853e-03 2.091058e-03 2.990357e-03 3.899817e-03 5.226370e-03 7.545896e-03 1.033215e-02 1.721246e-02 1.426257e-02 -5.255870e-03 -2.110195e-03 -4.000630e-03 -4.038856e-03 -4.680973e-03 -8.987138e-03 7.027128e-03 -4.895996e-03 4.578471e-04 -6.670546e-06 -7.696025e-03 1.087435e-02 -2.243800e-03 2.637065e-03 1.311837e-02 -1.043992e-02 -1.487725e-02 -9.634165e-03 -7.229667e-03 -4.635380e-03 -3.699058e-03 -2.323280e-03 -2.040188e-03 -1.104344e-03 -1.236745e-03 -4.427980e-04 -8.463628e-04 -7.537245e-05 -6.467973e-04 1.246101e-04 -5.235862e-04 2.161955e-04 -4.184874e-04 2.234522e-04 -3.055292e-04 1.633206e-04 -1.711019e-04 5.534668e-05 -1.720880e-05 -8.438526e-05 1.450723e-04 -2.334137e-04 3.016547e-04 -3.707427e-04 4.312652e-04 -4.773376e-04 5.149544e-04 -5.335820e-04 5.358507e-04 -5.263368e-04 4.809930e-04 -4.524789e-04 3.416526e-04 -3.217186e-04 1.190617e-04 -1.607889e-04 -1.803678e-04 -2.638136e-05 -5.380363e-04 -1.609432e-06 -8.897902e-04 -2.002925e-04 -1.029026e-03 -7.237833e-04 -1.175972e-04 -4.346933e-03 -1.338807e-02 -1.370520e-02 -1.000983e-02 -6.122908e-03 -3.046304e-03 
4.052092e-04 1.903335e-03 4.163434e-03 5.056553e-03 6.756795e-03 5.553655e-03 2.711318e-03 3.864080e-03 2.783456e-03 4.716851e-03 5.532632e-03 8.653574e-03 6.020500e-03 -1.442628e-04 4.492391e-05 -1.489086e-04 1.218787e-04 -1.334682e-04 1.568435e-04 -7.119278e-05 1.486500e-04 -3.662601e-03 -6.174026e-03 -6.048940e-03 -4.119386e-03 -3.131111e-03 -2.227762e-03 -1.442436e-03 -1.229167e-03 -5.149774e-04 -7.012585e-04 -3.864955e-05 -4.127885e-04 1.839788e-04 -2.294923e-04 2.739174e-04 -8.304305e-05 3.030771e-04 5.968713e-05 3.187278e-04 2.175193e-04 3.572740e-04 4.065648e-04 4.534848e-04 6.502136e-04 6.523676e-04 9.935435e-04 1.027312e-03 1.523067e-03 1.709227e-03 2.408086e-03 2.950986e-03 3.978081e-03 5.282411e-03 7.272231e-03 1.084747e-02 1.015553e-02 -1.072374e-03 -3.746408e-04 3.829881e-03 -1.340093e-04 -3.044426e-03 -3.062123e-03 2.079398e-03 -9.533979e-05 -6.505516e-04 -3.048215e-03 -3.520720e-03 2.674698e-03 -7.034018e-04 -2.676903e-03 -2.456127e-03 -7.374533e-03 -7.107907e-03 -5.277419e-03 -4.061564e-03 -2.998805e-03 -2.449081e-03 -1.715889e-03 -1.536672e-03 -9.359631e-04 -1.023659e-03 -4.598409e-04 -7.342052e-04 -1.688284e-04 -5.619293e-04 2.544606e-06 -4.437552e-04 8.937235e-05 -3.438764e-04 1.094689e-04 -2.441531e-04 7.652348e-05 -1.345519e-04 5.206652e-06 -1.505420e-05 -9.131383e-05 1.074377e-04 -1.965664e-04 2.226519e-04 -2.945739e-04 3.153371e-04 -3.705352e-04 3.707631e-04 -4.104160e-04 3.754784e-04 -4.053445e-04 3.182452e-04 -3.547328e-04 1.907032e-04 -2.691439e-04 -1.022190e-05 -1.736133e-04 -2.845980e-04 -1.147152e-04 -6.265434e-04 -1.583284e-04 -1.015041e-03 -3.968831e-04 -1.414439e-03 -9.686704e-04 -1.850952e-03 -2.941308e-03 -4.902915e-03 -5.609512e-03 -4.711861e-03 -3.241767e-03 -1.729505e-03 
2.547222e-04 7.702869e-04 1.804257e-03 2.078534e-03 2.714646e-03 2.549102e-03 1.190205e-03 1.979804e-03 1.360470e-03 2.323230e-03 2.867917e-03 4.548229e-03 3.384443e-03 -7.024623e-05 4.268226e-05 -8.825830e-05 8.705536e-05 -9.461515e-05 9.729626e-05 -6.305551e-05 7.358517e-05 -1.671987e-03 -2.964000e-03 -2.947234e-03 -1.970671e-03 -1.531953e-03 -1.074225e-03 -7.119788e-04 -5.847375e-04 -2.430002e-04 -3.094646e-04 1.515251e-05 -1.444817e-04 1.574626e-04 -2.456508e-05 2.459280e-04 8.823239e-05 3.210902e-04 2.173053e-04 4.127944e-04 3.807975e-04 5.473158e-04 5.972626e-04 7.516961e-04 8.891977e-04 1.056494e-03 1.284934e-03 1.495714e-03 1.816533e-03 2.098422e-03 2.506840e-03 2.855720e-03 3.316176e-03 3.604175e-03 4.025215e-03 3.963685e-03 4.039547e-03 1.149921e-03 8.797586e-04 8.013033e-06 -8.580683e-04 -8.349428e-04 -1.973473e-03 7.466248e-04 -8.372000e-04 -1.205476e-04 -3.980216e-04 -1.408558e-03 1.122249e-03 -6.773377e-04 -5.008564e-04 -7.702292e-04 -3.463718e-03 -3.623561e-03 -3.803511e-03 -3.453389e-03 -3.072575e-03 -2.702105e-03 -2.211482e-03 -1.950235e-03 -1.494833e-03 -1.368166e-03 -9.685505e-04 -9.573555e-04 -6.037974e-04 -6.769165e-04 -3.609871e-04 -4.845340e-04 -2.072823e-04 -3.472429e-04 -1.188665e-04 -2.423724e-04 -7.798982e-05 -1.554447e-04 -7.046751e-05 -7.901461e-05 -8.473049e-05 -1.080136e-05 -1.103776e-04 4.808771e-05 -1.383539e-04 9.405196e-05 -1.610736e-04 1.225949e-04 -1.726130e-04 1.291233e-04 -1.699136e-04 1.095398e-04 -1.541112e-04 6.057491e-05 -1.319472e-04 -1.968522e-05 -1.172665e-04 -1.318141e-04 -1.322412e-04 -2.739722e-04 -2.062818e-04 -4.428234e-04 -3.783127e-04 -6.549285e-04 -7.152182e-04 -1.042516e-03 -1.440926e-03 -2.318934e-03 -2.188000e-03 -1.990260e-03 -1.257635e-03 -7.321615e-04 
-1.153953e-06 -8.942019e-07 -1.084683e-06 -7.722721e-07 -9.343305e-07 -4.042121e-07 -7.498596e-07 2.437356e-07 -4.387525e-07 8.636004e-07 -1.393589e-07 1.452913e-06 1.192469e-07 -2.433550e-07 -1.605366e-07 -2.575661e-07 -3.909587e-07 -5.317344e-07 -8.542102e-07 -1.073094e-06 -1.522735e-06 2.729413e-06 2.586478e-05 5.682160e-06 2.718582e-05 8.380525e-06 3.147139e-05 1.450972e-05 3.866689e-05 2.549521e-05 5.000468e-05 4.320743e-05 6.738901e-05 7.019788e-05 9.405668e-05 1.101842e-04 1.348612e-04 1.685279e-04 1.969792e-04 2.531223e-04 2.905187e-04 3.748509e-04 4.286307e-04 5.477810e-04 6.277377e-04 7.895314e-04 9.076442e-04 1.120148e-03 1.288877e-03 1.555771e-03 1.783047e-03 2.088801e-03 2.361446e-03 2.625310e-03 2.862640e-03 2.831584e-03 2.741199e-03 1.522818e-03 1.249530e-03 1.098904e-03 4.210063e-04 2.042794e-04 -2.716616e-04 1.218546e-04 -3.620553e-04 -4.550577e-04 -7.226515e-04 -1.143276e-03 -7.108218e-04 -1.400454e-03 -1.666455e-03 -2.003986e-03 -2.583253e-03 -2.595523e-03 -2.530017e-03 -2.290965e-03 -2.043085e-03 -1.763187e-03 -1.508249e-03 -1.264037e-03 -1.060359e-03 -8.709992e-04 -7.246159e-04 -5.869926e-04 -4.863209e-04 -3.915911e-04 -3.220856e-04 -2.613713e-04 -2.109134e-04 -1.765884e-04 -1.369706e-04 -1.222878e-04 -8.863249e-05 -8.731879e-05 -5.752559e-05 -6.424289e-05 -3.815943e-05 -4.835785e-05 -2.653847e-05 -3.661494e-05 -1.985179e-05 -2.740584e-05 -1.616988e-05 -1.991633e-05 -1.408666e-05 -1.383351e-05 -1.259433e-05 -9.013109e-06 -1.101386e-05 -5.407280e-06 -8.955331e-06 -2.818262e-06 -6.381575e-06 -1.322849e-06 -3.970091e-06 -9.707527e-07 -2.100035e-06 -1.168799e-06 -9.580257e-07 -1.493027e-06 -7.011185e-07 -1.482382e-06 -9.945643e-07 -1.070359e-06 -1.049969e-06 -8.792518e-07 -1.128708e-06 -8.811316e-07 
-2.568712e-04 -7.723824e-04 -1.806128e-03 -2.080785e-03 -2.716275e-03 -2.550993e-03 -1.192062e-03 -1.980272e-03 -1.361470e-03 -2.322338e-03 -2.868055e-03 -4.546048e-03 -3.384129e-03 7.012690e-05 -4.269430e-05 8.834919e-05 -8.736132e-05 9.439659e-05 -9.824599e-05 6.186714e-05 -7.575090e-05 1.693366e-03 3.029127e-03 2.975277e-03 2.039779e-03 1.567816e-03 1.155847e-03 7.649542e-04 6.869721e-04 3.255486e-04 4.433366e-04 1.138247e-04 3.255441e-04 4.075405e-05 2.757572e-04 5.282573e-05 2.667516e-04 1.213283e-04 2.905814e-04 2.332071e-04 3.502366e-04 3.844768e-04 4.535395e-04 5.752846e-04 6.087364e-04 8.059901e-04 8.204142e-04 1.071497e-03 1.082512e-03 1.351467e-03 1.367454e-03 1.596252e-03 1.610414e-03 1.709577e-03 1.693021e-03 1.549018e-03 1.455363e-03 9.744464e-04 7.862809e-04 4.714988e-04 1.909071e-04 1.591872e-04 -1.968999e-04 3.558763e-05 -2.618070e-04 -2.760507e-04 -2.597549e-04 -6.679935e-04 -3.529329e-04 -9.190190e-04 -8.582723e-04 -1.211837e-03 -1.505479e-03 -1.656137e-03 -1.776565e-03 -1.717830e-03 -1.702943e-03 -1.511126e-03 -1.459015e-03 -1.196784e-03 -1.175161e-03 -8.807243e-04 -9.163029e-04 -6.123443e-04 -7.029971e-04 -4.067458e-04 -5.339401e-04 -2.624361e-04 -3.998214e-04 -1.712580e-04 -2.905651e-04 -1.229650e-04 -1.978223e-04 -1.066739e-04 -1.161595e-04 -1.123878e-04 -4.364157e-05 -1.309029e-04 1.946152e-05 -1.533616e-04 7.131142e-05 -1.716685e-04 1.092742e-04 -1.786897e-04 1.309485e-04 -1.684743e-04 1.357116e-04 -1.360767e-04 1.263039e-04 -7.776825e-05 1.104477e-04 9.094625e-06 1.022986e-04 1.251907e-04 1.228672e-04 2.687857e-04 2.010106e-04 4.379231e-04 3.753983e-04 6.500800e-04 7.125924e-04 1.038537e-03 1.437074e-03 2.316684e-03 2.185133e-03 1.988645e-03 1.255217e-03 7.304000e-04 
-4.061002e-04 -1.903973e-03 -4.164410e-03 -5.057786e-03 -6.757758e-03 -5.554820e-03 -2.712901e-03 -3.863291e-03 -2.784205e-03 -4.714883e-03 -5.532748e-03 -8.649672e-03 -6.019746e-03 1.444563e-04 -4.443445e-05 1.494355e-04 -1.217293e-04 1.334736e-04 -1.577017e-04 6.975614e-05 -1.514518e-04 3.663560e-03 6.216076e-03 6.051288e-03 4.164366e-03 3.134982e-03 2.279264e-03 1.452536e-03 1.290736e-03 5.401826e-04 7.784672e-04 8.971558e-05 5.125844e-04 -9.289618e-05 3.642162e-04 -1.233148e-04 2.714245e-04 -6.720653e-05 2.115252e-04 3.997005e-05 1.826149e-04 1.793188e-04 1.901315e-04 3.390333e-04 2.402602e-04 5.127513e-04 3.396097e-04 6.969053e-04 4.885082e-04 8.810368e-04 6.723116e-04 1.039040e-03 8.519014e-04 1.117447e-03 9.530155e-04 1.034633e-03 8.777550e-04 7.263963e-04 5.819108e-04 3.960540e-04 3.007198e-04 1.208857e-04 4.726847e-05 -1.527447e-04 -1.392646e-04 -4.207563e-04 -2.454623e-04 -6.906143e-04 -4.357084e-04 -9.106875e-04 -7.181038e-04 -1.031702e-03 -9.679977e-04 -1.108061e-03 -1.039518e-03 -9.972247e-04 -9.745372e-04 -7.763788e-04 -8.544077e-04 -5.272498e-04 -7.334846e-04 -3.017700e-04 -6.315294e-04 -1.227584e-04 -5.464217e-04 2.121684e-06 -4.689790e-04 7.214433e-05 -3.888404e-04 9.025105e-05 -2.995468e-04 6.185110e-05 -1.969217e-04 -2.028497e-06 -8.072509e-05 -9.042377e-05 4.156209e-05 -1.909660e-04 1.606662e-04 -2.876968e-04 2.654259e-04 -3.643813e-04 3.437635e-04 -4.055934e-04 3.841431e-04 -3.984513e-04 3.795167e-04 -3.316782e-04 3.304955e-04 -1.978332e-04 2.486357e-04 8.220288e-06 1.604992e-04 2.852548e-04 1.073968e-04 6.250530e-04 1.551704e-04 1.011365e-03 3.968451e-04 1.408794e-03 9.686262e-04 1.846060e-03 2.938660e-03 4.902464e-03 5.608705e-03 4.712370e-03 3.240976e-03 1.729576e-03 
-7.638749e-04 -3.249706e-03 -8.237689e-03 -1.011597e-02 -1.797328e-02 -1.094903e-02 3.549569e-03 -3.343037e-03 -1.042647e-03 -1.750874e-03 -2.652246e-03 -2.206028e-03 -2.130500e-03 2.962618e-04 -2.789702e-04 2.864760e-04 -3.969511e-04 4.377274e-04 -4.181377e-04 4.601230e-04 -2.504460e-04 1.323730e-03 1.309885e-03 2.535917e-03 1.365756e-03 1.074757e-03 9.450306e-04 2.476037e-04 7.325842e-04 -1.850510e-04 6.090455e-04 -3.728928e-04 5.157766e-04 -4.084711e-04 4.240808e-04 -3.508366e-04 3.269551e-04 -2.382680e-04 2.310962e-04 -9.456280e-05 1.502604e-04 6.457423e-05 9.635927e-05 2.246219e-04 7.647039e-05 3.763203e-04 9.926363e-05 5.171641e-04 1.694808e-04 6.419052e-04 2.823265e-04 7.397092e-04 4.207066e-04 7.883961e-04 5.504169e-04 7.573573e-04 6.299988e-04 5.992103e-04 5.277279e-04 2.815373e-04 4.411879e-04 3.715139e-04 2.346848e-04 4.044380e-06 -6.555255e-05 -2.659666e-04 1.120707e-04 -5.867360e-04 -2.009032e-04 -9.421996e-04 -5.166973e-04 -8.180234e-04 -7.771640e-04 -9.518547e-04 -8.896593e-04 -8.658295e-04 -8.830298e-04 -6.719508e-04 -8.300054e-04 -4.438661e-04 -7.706166e-04 -2.294639e-04 -7.163926e-04 -5.213767e-05 -6.617511e-04 7.529561e-05 -5.982114e-04 1.457768e-04 -5.163878e-04 1.571835e-04 -4.125451e-04 1.114605e-04 -2.839833e-04 2.148750e-05 -1.318216e-04 -1.004362e-04 3.133578e-05 -2.396033e-04 1.923582e-04 -3.751403e-04 3.357122e-04 -4.861665e-04 4.445624e-04 -5.529377e-04 5.018154e-04 -5.600315e-04 4.959219e-04 -4.940407e-04 4.245391e-04 -3.484562e-04 2.984791e-04 -1.202518e-04 1.479920e-04 1.818681e-04 2.051567e-05 5.346819e-04 3.384071e-07 8.829185e-04 2.030225e-04 1.018915e-03 7.257163e-04 1.097355e-04 4.335126e-03 1.339132e-02 1.370616e-02 1.001351e-02 6.123640e-03 3.047905e-03 
-9.316771e-04 -6.653848e-03 -1.507096e-02 -2.245015e-02 -2.908971e-02 -5.990776e-03 8.870600e-03 -2.242729e-03 9.792266e-04 -1.191186e-03 -4.259270e-04 -8.440861e-04 -7.181320e-04 3.881709e-04 -2.690611e-04 3.391964e-04 -4.022103e-04 4.500193e-04 -4.523175e-04 4.456088e-04 -3.389976e-04 1.889182e-03 -1.678644e-04 8.318157e-04 -4.844542e-05 -1.714025e-04 1.629846e-04 -6.398326e-04 3.794999e-04 -8.312180e-04 5.011003e-04 -8.605090e-04 5.100410e-04 -7.833704e-04 4.277569e-04 -6.372808e-04 2.806200e-04 -4.568083e-04 1.000652e-04 -2.626249e-04 -7.492027e-05 -6.808859e-05 -2.242076e-04 9.172810e-05 -3.545021e-04 1.943069e-04 -4.469486e-04 2.522868e-04 -4.835401e-04 2.692808e-04 -4.607020e-04 2.548609e-04 -3.803216e-04 2.037282e-04 -2.692945e-04 1.091760e-04 -1.361632e-04 -5.005018e-05 -9.764351e-05 -3.200067e-04 5.452155e-05 -1.583260e-04 6.165736e-05 -4.000606e-04 8.214993e-07 -3.971759e-04 3.931114e-04 -4.613041e-04 2.829673e-04 -5.573883e-04 2.170467e-04 -2.360147e-04 8.498398e-05 -2.497683e-04 -2.431971e-05 -1.048724e-04 -1.254660e-04 8.047560e-05 -2.509262e-04 2.564296e-04 -3.976269e-04 3.998769e-04 -5.364125e-04 5.126246e-04 -6.297195e-04 5.815521e-04 -6.666577e-04 5.893272e-04 -6.303961e-04 5.250418e-04 -5.308824e-04 3.718083e-04 -3.644315e-04 1.637759e-04 -1.233485e-04 -8.957725e-05 1.482272e-04 -3.759921e-04 4.277558e-04 -6.521067e-04 6.855181e-04 -8.814231e-04 8.885900e-04 -1.025743e-03 9.954420e-04 -1.062697e-03 9.762254e-04 -9.619491e-04 8.142079e-04 -7.198270e-04 5.065849e-04 -3.239148e-04 8.737775e-05 1.947430e-04 -4.372908e-04 7.680150e-04 -9.922701e-04 1.341204e-03 -1.449959e-03 1.726922e-03 -1.584301e-03 1.181190e-03 1.225331e-03 1.150221e-02 2.737450e-02 2.138906e-02 1.212191e-02 5.740023e-03 
1.995504e-04 -6.867668e-03 -1.030858e-02 -1.939500e-02 -9.324708e-03 1.171803e-02 -3.438177e-03 6.005869e-05 1.706502e-03 -1.290408e-03 2.744820e-03 -1.336780e-03 9.712861e-04 -2.186966e-03 -1.166714e-03 -7.861618e-05 -9.342872e-04 1.082445e-03 -1.217944e-03 2.452853e-03 -6.568576e-04 2.770367e-04 -2.192667e-04 -9.942497e-04 1.141989e-04 -8.590292e-04 5.024583e-04 -9.056814e-04 6.505334e-04 -9.257217e-04 6.545232e-04 -8.679674e-04 5.471570e-04 -7.352385e-04 3.645332e-04 -5.492547e-04 1.340286e-04 -3.431848e-04 -1.132718e-04 -1.365714e-04 -3.347524e-04 5.881263e-05 -5.119054e-04 1.995490e-04 -6.617364e-04 2.589216e-04 -7.638139e-04 2.598948e-04 -7.967696e-04 2.148429e-04 -7.563606e-04 1.480564e-04 -6.413540e-04 6.679665e-05 -4.809318e-04 -2.393673e-05 -2.809035e-04 -8.057551e-05 5.458499e-06 -9.681516e-05 2.240147e-04 -3.321425e-04 3.861026e-04 -4.179704e-04 4.831937e-04 -5.260591e-04 3.110899e-04 -5.556748e-04 2.883171e-04 -5.004252e-04 2.528365e-04 -5.288434e-04 2.035138e-04 -3.209573e-04 8.168344e-05 -1.130207e-04 -7.767409e-05 1.097193e-04 -2.662410e-04 3.159220e-04 -4.714314e-04 4.837473e-04 -6.558276e-04 6.161488e-04 -7.727506e-04 6.939239e-04 -8.119660e-04 6.932272e-04 -7.528032e-04 5.997366e-04 -6.103257e-04 3.894420e-04 -3.795645e-04 1.086814e-04 -4.939681e-05 -2.308901e-04 3.183612e-04 -6.132616e-04 6.913637e-04 -9.779467e-04 1.026195e-03 -1.273258e-03 1.274598e-03 -1.444336e-03 1.376449e-03 -1.458321e-03 1.288105e-03 -1.271870e-03 9.838815e-04 -8.807513e-04 4.562200e-04 -2.702768e-04 -2.534276e-04 5.119407e-04 -1.150488e-03 1.369237e-03 -2.164019e-03 2.253247e-03 -3.197080e-03 3.081721e-03 -4.082207e-03 4.091730e-03 -4.715180e-03 -4.777039e-03 2.341815e-02 1.751085e-02 1.074809e-02 3.891335e-03 
1.508082e-03 -1.920290e-03 -2.903906e-04 -3.952346e-03 7.714638e-03 1.296387e-02 -1.129755e-02 1.216218e-03 -6.842992e-04 -6.438028e-04 -2.677587e-05 9.388033e-06 3.261648e-03 3.185749e-03 4.886502e-03 -4.736606e-04 1.793860e-03 -1.923292e-03 2.214914e-04 -4.486955e-03 -2.394550e-03 -2.694048e-03 -1.714369e-03 4.542705e-04 -3.935981e-04 4.778312e-05 -1.061565e-04 -2.247008e-04 6.333733e-05 -3.434129e-04 1.305705e-04 -3.513562e-04 1.208078e-04 -2.828756e-04 5.931249e-05 -1.665819e-04 -3.199154e-05 -2.724112e-05 -1.298185e-04 1.204502e-04 -2.075453e-04 2.668742e-04 -2.507661e-04 3.906150e-04 -2.623860e-04 4.766442e-04 -2.354196e-04 5.271947e-04 -1.699316e-04 5.343413e-04 -8.484240e-05 4.829508e-04 -1.680854e-05 3.373918e-04 -2.859182e-05 6.135799e-05 -1.561717e-04 -2.649911e-04 -2.557650e-04 -4.089150e-04 -3.819068e-04 -7.457219e-04 -2.030684e-04 -5.478135e-04 1.364650e-04 -5.107395e-04 1.159356e-04 -3.146621e-04 4.321192e-04 -5.324690e-05 4.261890e-04 -2.157346e-04 2.404079e-04 -1.918082e-04 -1.004969e-05 -1.982968e-04 -2.253814e-04 -1.329619e-04 -3.844250e-04 -1.749242e-05 -5.036529e-04 1.087416e-04 -5.866427e-04 2.216084e-04 -6.233157e-04 2.977224e-04 -6.112104e-04 3.186784e-04 -5.418270e-04 2.742577e-04 -4.202906e-04 1.549750e-04 -2.450427e-04 -1.757490e-05 -1.533713e-05 -2.317343e-04 2.373409e-04 -4.708139e-04 4.892059e-04 -6.975395e-04 7.100632e-04 -8.756434e-04 8.668285e-04 -9.674684e-04 9.228249e-04 -9.450872e-04 8.514944e-04 -7.793407e-04 6.400414e-04 -4.597446e-04 2.928273e-04 2.359481e-05 -1.540382e-04 6.520355e-04 -6.659897e-04 1.385615e-03 -1.166005e-03 2.196892e-03 -1.598606e-03 2.999617e-03 -2.160834e-03 3.546733e-03 -6.105419e-03 -1.158449e-02 5.098342e-03 3.692079e-03 4.091560e-03 1.106279e-03 
6.539737e-04 -8.189517e-04 1.841838e-04 -6.375565e-04 3.144071e-03 4.033207e-03 -5.477617e-03 -1.503134e-03 -3.329745e-03 -4.927639e-03 -6.693837e-03 -1.077707e-02 -1.229776e-02 -1.258222e-02 -7.607046e-03 -2.869121e-03 -9.535693e-04 1.290045e-03 4.575103e-03 6.135741e-03 1.231139e-02 1.301727e-02 9.701838e-03 6.909081e-03 4.379939e-03 2.826187e-03 1.991930e-03 1.087432e-03 9.650090e-04 3.368453e-04 4.981055e-04 3.270865e-05 2.640575e-04 -6.414383e-05 1.249464e-04 -6.325056e-05 2.613631e-05 -1.676937e-05 -4.931938e-05 5.091675e-05 -1.011891e-04 1.284259e-04 -1.247042e-04 2.091176e-04 -1.140503e-04 2.945065e-04 -5.633992e-05 3.981870e-04 6.784700e-05 5.434708e-04 2.864411e-04 7.673274e-04 6.425631e-04 1.115203e-03 1.186887e-03 1.606416e-03 1.918515e-03 1.789649e-03 1.784543e-03 7.846115e-04 2.171352e-03 2.569977e-03 1.105075e-03 5.866473e-04 -7.902570e-04 7.041978e-05 8.265437e-04 -1.242789e-03 -1.087801e-03 -3.052052e-03 -1.858321e-03 -1.429534e-03 -2.150609e-03 -2.022785e-03 -1.848144e-03 -1.589955e-03 -1.342310e-03 -1.043006e-03 -9.397259e-04 -5.929481e-04 -6.788381e-04 -2.744479e-04 -5.249597e-04 -6.730934e-05 -4.315830e-04 5.395111e-05 -3.627437e-04 1.079901e-04 -2.941516e-04 1.067288e-04 -2.138483e-04 5.842657e-05 -1.153753e-04 -2.414421e-05 1.872134e-06 -1.299933e-04 1.277660e-04 -2.466319e-04 2.501317e-04 -3.563338e-04 3.541743e-04 -4.407215e-04 4.236075e-04 -4.819351e-04 4.420828e-04 -4.653259e-04 3.973827e-04 -3.787958e-04 2.840983e-04 -2.167902e-04 1.062629e-04 2.110725e-05 -1.189968e-04 3.239293e-04 -3.635465e-04 6.708112e-04 -5.747381e-04 1.035923e-03 -6.796843e-04 1.377487e-03 -6.289772e-04 1.460260e-03 -2.155271e-03 -4.378443e-03 6.710264e-04 1.260594e-04 1.484706e-03 1.189212e-04 
