# vtk DataFile Version 2.0
Comment goes here
ASCII

DATASET STRUCTURED_POINTS
FIELD FieldData 1
TIME 1 1 double
0.91000000
DIMENSIONS    128   16   1

ORIGIN    0.000   0.000   0.000
SPACING   0.0078125 0.015625   1.000

POINT_DATA   2048
SCALARS uY double
LOOKUP_TABLE default

-1.207461e-06 -4.748956e-07 -1.314885e-06 -1.912913e-07 -1.659380e-06 -3.214148e-07 -2.489610e-06 6.857358e-07 -5.536639e-07 2.760063e-06 9.433222e-07 4.148367e-06 1.722593e-06 5.155370e-06 2.614711e-06 4.295929e-06 3.874992e-06 8.677137e-07 4.912827e-06 -3.031108e-06 5.145129e-06 -7.572900e-06 7.232280e-07 -1.366723e-05 -4.993454e-06 -2.030973e-05 -1.115046e-05 -2.589129e-05 -1.671539e-05 -3.138286e-05 -2.306771e-05 -3.896258e-05 -3.120231e-05 -5.037058e-05 -4.388577e-05 -6.939639e-05 -6.383508e-05 -9.595025e-05 -9.128670e-05 -1.334555e-04 -1.360009e-04 -1.937206e-04 -2.095729e-04 -2.858259e-04 -3.235626e-04 -4.253052e-04 -4.990582e-04 -6.344454e-04 -7.571989e-04 -9.285653e-04 -1.102791e-03 -1.285153e-03 -1.469341e-03 -1.548734e-03 -1.625443e-03 -1.422523e-03 -1.165626e-03 4.243614e-05 -3.356134e-05 7.821505e-04 3.739923e-04 -2.619719e-04 1.005758e-03 8.137647e-04 1.704914e-03 7.515402e-04 2.116885e-04 1.100775e-03 5.222779e-04 1.519868e-03 8.525770e-04 -2.729918e-04 6.179775e-04 9.742754e-04 8.994884e-04 6.918548e-04 6.177074e-04 4.630048e-04 4.271576e-04 2.990895e-04 2.907010e-04 1.873243e-04 1.941145e-04 1.142190e-04 1.249075e-04 7.250638e-05 7.682489e-05 5.206569e-05 4.187339e-05 4.358023e-05 1.812180e-05 4.147191e-05 1.955421e-06 3.802530e-05 -9.815327e-06 3.212814e-05 -1.525033e-05 2.638999e-05 -1.391688e-05 2.124656e-05 -9.003295e-06 1.559433e-05 -2.559904e-06 1.159030e-05 5.158082e-06 8.483731e-06 9.935036e-06 4.836044e-06 1.256583e-05 2.954202e-06 1.252853e-05 -7.186688e-07 7.692863e-06 -4.760791e-06 3.243858e-06 -5.749353e-06 2.303120e-07 -5.588695e-06 -2.263477e-06 -5.060963e-06 -3.750909e-06 -4.243030e-06 -3.734445e-06 -3.023846e-06 -2.100183e-06 -1.877465e-06 -1.460513e-06 -1.043848e-06 
1.023085e-03 6.941225e-04 3.016026e-03 1.261503e-03 4.896274e-03 -3.594652e-03 -4.197902e-03 4.744857e-03 1.228286e-03 5.400104e-03 5.031162e-03 1.124345e-02 1.560616e-02 1.676750e-02 6.577853e-03 5.121959e-03 1.943055e-03 -2.024398e-03 -3.954989e-03 -8.027003e-03 -1.697339e-02 -1.617689e-02 -9.525756e-03 -6.093754e-03 -3.551990e-03 -2.608651e-03 -1.325174e-03 -1.187198e-03 -3.630842e-04 -6.031799e-04 4.624692e-05 -3.693504e-04 2.120160e-04 -2.717329e-04 2.631569e-04 -2.225515e-04 2.545250e-04 -1.830942e-04 2.156004e-04 -1.421970e-04 1.531201e-04 -1.107224e-04 6.607539e-05 -1.019100e-04 -5.096948e-05 -1.429687e-04 -2.268207e-04 -2.878432e-04 -5.209861e-04 -6.319949e-04 -1.051949e-03 -1.352898e-03 -2.050673e-03 -2.851891e-03 -4.347896e-03 -6.619431e-03 -4.997005e-03 1.670953e-03 -2.111383e-03 -3.304718e-03 3.034348e-03 7.339709e-03 4.921452e-03 -6.107812e-03 -5.659774e-03 1.589207e-03 7.997506e-03 5.607046e-03 -6.055663e-03 -3.645796e-03 1.475655e-03 -6.569385e-04 1.614427e-03 4.583399e-03 3.959001e-03 2.762520e-03 1.852878e-03 1.405690e-03 9.083900e-04 7.844264e-04 4.594785e-04 4.633399e-04 2.416773e-04 2.766953e-04 1.451905e-04 1.539631e-04 1.205831e-04 5.724654e-05 1.368573e-04 -3.132990e-05 1.790152e-04 -1.132771e-04 2.309018e-04 -1.878656e-04 2.752901e-04 -2.443698e-04 3.002248e-04 -2.673813e-04 2.940866e-04 -2.451753e-04 2.452677e-04 -1.721423e-04 1.477066e-04 -4.678230e-05 2.217354e-06 1.209839e-04 -1.870231e-04 3.144572e-04 -4.010069e-04 5.129001e-04 -6.172976e-04 6.758838e-04 -8.124480e-04 7.529028e-04 -9.501053e-04 6.670168e-04 -9.879347e-04 2.737865e-04 -8.440992e-04 -7.059580e-04 -2.720400e-04 -3.009664e-03 4.971768e-03 -1.499658e-03 -1.502991e-03 -1.309742e-03 -6.717863e-04 -2.881223e-04 
1.631374e-03 1.788556e-03 5.691746e-03 4.351027e-03 1.351412e-02 -1.235376e-02 -1.592652e-02 9.928806e-03 -2.777651e-03 7.639956e-03 -8.446779e-04 1.069506e-02 4.895223e-04 -6.163046e-03 -2.638961e-03 -1.675110e-03 -3.177489e-04 -1.477516e-04 2.700144e-03 1.301138e-03 8.026203e-03 -3.245358e-03 -5.874056e-03 -2.338153e-03 -2.830012e-03 -1.326426e-03 -1.407893e-03 -9.067781e-04 -5.728975e-04 -7.059920e-04 -8.814227e-05 -6.107762e-04 1.799444e-04 -5.479240e-04 2.991917e-04 -4.982056e-04 3.053203e-04 -4.371094e-04 2.507350e-04 -3.589578e-04 1.366742e-04 -3.086935e-04 -3.938369e-05 -3.024439e-04 -2.662433e-04 -3.820266e-04 -5.902330e-04 -6.383950e-04 -1.097807e-03 -1.214258e-03 -1.971419e-03 -2.400149e-03 -3.628319e-03 -4.892622e-03 -7.123081e-03 -8.775299e-03 -2.626737e-03 8.220080e-03 -5.796328e-04 -2.111190e-03 5.882578e-03 7.773379e-03 7.082790e-03 -2.977480e-03 -1.205668e-03 2.980345e-03 6.819018e-03 6.370262e-03 -5.028895e-03 -3.601345e-04 3.614162e-03 -4.103829e-03 -2.868078e-03 1.867451e-03 2.284534e-03 1.685860e-03 9.670439e-04 9.307752e-04 3.953261e-04 6.059962e-04 1.472540e-04 4.223521e-04 4.070353e-05 2.793433e-04 2.547480e-05 1.602952e-04 8.473954e-05 3.173029e-05 1.776979e-04 -1.189304e-04 3.036709e-04 -2.680222e-04 4.388536e-04 -4.149930e-04 5.462527e-04 -5.318051e-04 6.091311e-04 -5.812908e-04 6.057525e-04 -5.394169e-04 5.105138e-04 -3.973962e-04 3.122912e-04 -1.458687e-04 1.672794e-05 1.899751e-04 -3.799398e-04 5.744281e-04 -8.293600e-04 9.836815e-04 -1.288737e-03 1.329132e-03 -1.730319e-03 1.530779e-03 -2.078606e-03 1.486593e-03 -2.262828e-03 9.949597e-04 -2.074888e-03 -3.383078e-04 -6.161412e-04 -4.255262e-03 1.605489e-02 -6.521757e-03 -6.804526e-03 -3.179542e-04 -1.401031e-03 4.377160e-04 
2.141433e-03 4.468672e-03 1.020853e-02 1.387130e-02 3.038622e-02 -2.949936e-03 -1.084112e-02 3.498713e-03 -5.274383e-03 8.515291e-04 -4.653942e-03 -2.880471e-03 -4.828125e-03 4.920551e-03 -1.380922e-03 2.315380e-03 -1.301030e-03 1.416520e-03 -1.870705e-03 7.892010e-04 -3.406935e-03 3.664882e-03 4.196310e-03 2.119631e-03 2.117205e-03 9.399800e-04 1.384820e-03 3.081886e-04 1.117648e-03 -9.303429e-05 1.033153e-03 -3.475798e-04 1.012450e-03 -4.756616e-04 9.785723e-04 -5.339201e-04 8.867158e-04 -5.040222e-04 7.994226e-04 -3.736407e-04 6.888308e-04 -2.258201e-04 5.512414e-04 -3.616958e-05 4.638305e-04 2.050270e-04 4.346725e-04 4.866068e-04 5.162552e-04 8.785327e-04 8.111410e-04 1.492417e-03 1.456847e-03 2.570379e-03 2.907959e-03 4.699543e-03 1.978629e-03 -2.130743e-03 5.768173e-04 2.436706e-03 -3.282132e-03 -7.065533e-03 -3.605909e-03 2.425659e-03 4.322276e-03 -1.891884e-03 -5.994970e-03 -3.246839e-03 3.439593e-03 3.548195e-03 -9.791364e-04 1.357365e-03 8.268695e-04 -1.706858e-03 -1.893339e-03 -1.026547e-03 -1.053957e-03 -2.822079e-04 -6.749844e-04 5.980049e-05 -4.766876e-04 1.993610e-04 -3.636286e-04 1.873775e-04 -2.433420e-04 1.209770e-04 -5.717236e-05 -1.822564e-05 1.402589e-04 -2.284063e-04 3.802761e-04 -4.415064e-04 6.332251e-04 -6.672108e-04 8.341264e-04 -8.588517e-04 9.704283e-04 -9.524278e-04 1.012378e-03 -9.129073e-04 9.157520e-04 -7.308096e-04 6.639509e-04 -3.777551e-04 2.721548e-04 1.060045e-04 -2.826137e-04 6.725997e-04 -9.021328e-04 1.330845e-03 -1.512336e-03 1.954708e-03 -2.081387e-03 2.484340e-03 -2.456029e-03 2.878611e-03 -2.533408e-03 2.979844e-03 -2.095692e-03 2.385548e-03 -3.553359e-04 -1.039428e-03 1.105308e-02 -3.762838e-02 -2.322094e-02 -5.111860e-03 -4.656356e-03 -8.178000e-05 
4.803795e-04 4.367091e-03 7.037349e-03 1.477439e-02 2.442755e-02 2.137067e-02 1.284367e-02 -6.790741e-04 1.401727e-04 2.867483e-03 -2.593113e-04 4.867948e-03 1.008090e-03 3.740528e-04 -3.209540e-04 5.939631e-04 -4.788287e-04 5.087060e-04 -4.920402e-04 2.498753e-04 -2.647144e-04 -1.737800e-03 -3.703695e-03 -5.434293e-04 -1.877021e-03 -4.776057e-05 -9.951843e-04 -3.687951e-05 -4.255127e-04 -1.605487e-04 -2.651694e-05 -3.069525e-04 2.568141e-04 -4.176612e-04 4.348896e-04 -5.012394e-04 5.087427e-04 -5.300021e-04 5.399601e-04 -4.887203e-04 5.159219e-04 -4.348612e-04 4.331263e-04 -3.561918e-04 3.386624e-04 -2.615127e-04 2.193632e-04 -1.908044e-04 7.243808e-05 -1.537158e-04 -1.011429e-04 -1.789981e-04 -3.127370e-04 -2.896438e-04 -6.516221e-04 -1.238231e-03 -1.888203e-03 -7.845334e-04 -7.287628e-04 -1.950921e-03 2.013838e-03 5.607733e-03 2.647041e-03 -2.802657e-03 -4.751258e-03 8.338484e-04 5.046425e-03 1.993182e-03 -2.867051e-03 -4.175507e-03 -9.626612e-04 7.394000e-04 3.110207e-04 2.040275e-03 1.242199e-03 1.364136e-03 5.556790e-04 8.447523e-04 1.671081e-04 6.119103e-04 -2.537479e-05 4.773117e-04 -1.199933e-04 3.431959e-04 -1.237183e-04 2.179447e-04 -2.980237e-05 6.233000e-05 1.030990e-04 -1.313720e-04 2.850081e-04 -3.192293e-04 4.883318e-04 -5.109414e-04 6.617620e-04 -6.768197e-04 7.936744e-04 -7.742481e-04 8.600087e-04 -7.803199e-04 8.261825e-04 -6.880175e-04 6.769200e-04 -4.752128e-04 4.197025e-04 -1.672626e-04 3.567786e-05 2.050048e-04 -4.076424e-04 6.506282e-04 -8.621829e-04 1.080622e-03 -1.313142e-03 1.448989e-03 -1.665426e-03 1.722046e-03 -1.880786e-03 1.808303e-03 -1.914077e-03 1.625639e-03 -1.623346e-03 1.490552e-03 -9.001128e-03 -4.143302e-02 -2.025472e-02 -8.757738e-03 -5.688296e-03 -1.813340e-03 
1.277943e-04 1.471620e-03 2.435003e-03 4.817377e-03 6.210684e-03 1.626219e-02 1.517649e-02 6.373287e-04 3.264659e-03 4.018111e-03 2.684955e-03 9.861993e-03 5.209339e-03 2.660765e-04 -3.534082e-04 5.948344e-04 -5.055838e-04 5.301904e-04 -5.006478e-04 2.808542e-04 -1.840246e-04 -5.690721e-03 -7.306695e-03 -2.697875e-03 -3.332812e-03 -1.249528e-03 -1.575990e-03 -6.042568e-04 -6.180109e-04 -3.412391e-04 -1.001363e-04 -2.746869e-04 1.756873e-04 -2.918462e-04 3.098136e-04 -3.382582e-04 3.526129e-04 -3.842962e-04 3.361380e-04 -4.220992e-04 2.650887e-04 -4.689585e-04 1.308048e-04 -5.493175e-04 -8.672309e-05 -7.168600e-04 -4.499167e-04 -1.079554e-03 -1.088871e-03 -1.841159e-03 -2.270980e-03 -3.423321e-03 -4.596887e-03 -6.895771e-03 -9.559160e-03 -1.192579e-02 -1.768306e-03 1.154684e-02 9.164588e-04 -2.829447e-03 6.009768e-03 5.274679e-03 4.322550e-03 8.923669e-04 1.084836e-03 4.099322e-03 4.873090e-03 4.821014e-03 -1.521220e-03 2.760726e-03 6.541047e-03 -4.571166e-03 -5.106503e-03 2.138199e-03 1.967770e-03 1.666112e-03 7.754001e-04 8.439688e-04 3.166664e-04 5.346864e-04 1.108282e-04 3.738910e-04 1.684459e-05 2.591052e-04 -5.421663e-06 1.564434e-04 2.787552e-05 4.810203e-05 9.681873e-05 -6.807168e-05 1.910940e-04 -1.821492e-04 2.952561e-04 -2.882302e-04 3.891638e-04 -3.737605e-04 4.589920e-04 -4.232455e-04 4.901166e-04 -4.255940e-04 4.680271e-04 -3.748707e-04 3.844473e-04 -2.681044e-04 2.389657e-04 -1.152041e-04 3.435632e-05 6.595372e-05 -2.093224e-04 2.526864e-04 -4.735371e-04 3.951546e-04 -7.466687e-04 4.304976e-04 -1.012495e-03 2.747945e-04 -1.272449e-03 -1.736409e-04 -1.538955e-03 -9.143674e-04 -1.892983e-03 -1.080052e-03 -1.063059e-02 -1.648830e-02 -5.607720e-03 -5.977023e-03 -2.539006e-03 -2.021769e-03 
3.326201e-04 1.609977e-03 2.736803e-03 4.095578e-03 4.921328e-03 6.181331e-03 6.144250e-03 4.458586e-03 3.878830e-03 6.147174e-03 5.089405e-03 1.297267e-02 1.200453e-02 2.066736e-04 -5.917405e-05 1.956845e-04 -1.413660e-04 1.526828e-04 -1.722477e-04 5.612426e-05 -1.768903e-04 -9.642427e-03 -1.030133e-02 -4.442447e-03 -5.320232e-03 -2.462741e-03 -2.973122e-03 -1.351275e-03 -1.559687e-03 -7.604672e-04 -7.484767e-04 -4.841802e-04 -2.924566e-04 -3.718897e-04 -4.565020e-05 -3.380503e-04 7.357234e-05 -3.354813e-04 1.129041e-04 -3.443718e-04 9.192778e-05 -3.673781e-04 1.522959e-05 -4.162888e-04 -1.232456e-04 -5.199331e-04 -3.528072e-04 -7.335573e-04 -7.333006e-04 -1.151543e-03 -1.378531e-03 -1.948182e-03 -2.531664e-03 -3.558678e-03 -4.736243e-03 -5.152180e-03 -7.479814e-04 3.667093e-03 2.092170e-04 3.151086e-04 6.027017e-04 -4.248770e-03 -2.285974e-03 3.410384e-03 5.698142e-03 1.917811e-03 -2.508508e-03 -2.789613e-04 3.280909e-03 6.152923e-03 3.964145e-03 -9.557657e-04 -5.247855e-04 1.440028e-03 9.806203e-04 1.049026e-03 5.961357e-04 7.754939e-04 4.268010e-04 6.072565e-04 2.996393e-04 4.673023e-04 2.081867e-04 3.419780e-04 1.565732e-04 2.269225e-04 1.449117e-04 1.162434e-04 1.643802e-04 8.475393e-06 2.074493e-04 -9.153204e-05 2.621464e-04 -1.800270e-04 3.135070e-04 -2.488660e-04 3.495209e-04 -2.878166e-04 3.583520e-04 -2.893269e-04 3.288664e-04 -2.497906e-04 2.542622e-04 -1.690477e-04 1.329768e-04 -5.572638e-05 -3.352958e-05 7.489333e-05 -2.346298e-04 2.013002e-04 -4.609733e-04 2.838504e-04 -7.089554e-04 2.707571e-04 -9.763945e-04 9.170937e-05 -1.273835e-03 -3.545266e-04 -1.626809e-03 -1.219029e-03 -2.110174e-03 -2.699713e-03 -3.404527e-03 -6.519208e-03 -3.507413e-03 -3.790787e-03 -1.915985e-03 -1.128270e-03 
7.056347e-05 4.852648e-04 9.225484e-04 1.621215e-03 1.856996e-03 2.795111e-03 2.809426e-03 2.092006e-03 2.011832e-03 2.965614e-03 2.506937e-03 6.667249e-03 6.034785e-03 1.018302e-04 -5.897379e-05 1.287952e-04 -1.088001e-04 1.149225e-04 -1.138345e-04 5.459561e-05 -8.542567e-05 -4.643128e-03 -4.898867e-03 -2.089083e-03 -2.557464e-03 -1.244132e-03 -1.430543e-03 -7.076695e-04 -7.308841e-04 -4.051120e-04 -3.385083e-04 -2.650687e-04 -1.354690e-04 -2.200725e-04 -4.592416e-05 -2.277985e-04 -2.728299e-05 -2.660849e-04 -5.859644e-05 -3.280063e-04 -1.345371e-04 -4.187608e-04 -2.607792e-04 -5.528749e-04 -4.523465e-04 -7.549616e-04 -7.340145e-04 -1.057748e-03 -1.134358e-03 -1.490230e-03 -1.665662e-03 -2.042179e-03 -2.269115e-03 -2.588879e-03 -2.737965e-03 -2.625508e-03 -1.623170e-03 4.449578e-04 1.099675e-04 4.512948e-04 1.761774e-03 1.874463e-03 2.066731e-03 1.627566e-03 1.858903e-03 2.192540e-03 2.034204e-03 1.982418e-03 9.427880e-04 1.104717e-03 9.624004e-04 -1.291224e-04 9.854092e-05 5.397753e-04 3.479248e-04 4.910035e-04 3.158551e-04 4.240738e-04 2.750538e-04 3.529049e-04 2.253361e-04 2.829267e-04 1.791316e-04 2.161434e-04 1.437841e-04 1.532416e-04 1.227917e-04 9.410402e-05 1.157129e-04 3.930040e-05 1.202839e-04 -9.537913e-06 1.322223e-04 -5.074944e-05 1.459124e-04 -8.189141e-05 1.558734e-04 -1.001828e-04 1.567047e-04 -1.036226e-04 1.435334e-04 -9.151738e-05 1.130795e-04 -6.482626e-05 6.411134e-05 -2.750545e-05 -2.870266e-06 1.314830e-05 -8.531468e-05 4.578694e-05 -1.812318e-04 5.277313e-05 -2.910098e-04 1.151809e-05 -4.179678e-04 -1.036805e-04 -5.721493e-04 -3.180471e-04 -7.797188e-04 -6.609830e-04 -1.125412e-03 -1.218665e-03 -1.814763e-03 -2.443311e-03 -1.378235e-03 -1.660653e-03 -7.200921e-04 -6.250863e-04 
-1.463062e-07 -4.948948e-07 3.361362e-07 -5.954367e-07 9.741857e-07 -5.369397e-07 1.677761e-06 -3.602103e-07 1.926469e-06 -2.899328e-07 1.818680e-06 -4.055327e-07 1.799336e-06 2.251861e-07 2.961010e-08 1.688896e-07 7.970520e-08 2.174383e-07 2.389952e-07 3.597972e-07 5.206288e-07 -5.337446e-06 -1.273976e-05 -9.822628e-06 -1.387764e-05 -1.253193e-05 -1.666472e-05 -1.728440e-05 -2.098641e-05 -2.440853e-05 -2.743175e-05 -3.503386e-05 -3.696058e-05 -5.044407e-05 -5.090492e-05 -7.210652e-05 -7.077103e-05 -1.011460e-04 -9.857742e-05 -1.399738e-04 -1.391133e-04 -1.936893e-04 -1.996751e-04 -2.696156e-04 -2.903802e-04 -3.790969e-04 -4.251794e-04 -5.365393e-04 -6.175355e-04 -7.518693e-04 -8.683787e-04 -1.011095e-03 -1.135676e-03 -1.228286e-03 -1.266274e-03 -1.129499e-03 -7.978400e-04 -2.144770e-04 -3.687254e-04 -1.699384e-04 -1.253406e-06 -1.763409e-04 1.832768e-04 6.412132e-04 9.382002e-04 8.957791e-04 6.389460e-04 8.881548e-04 1.018587e-03 1.217595e-03 1.024466e-03 5.706475e-04 5.299362e-04 4.998237e-04 4.439080e-04 4.142120e-04 3.862089e-04 3.523697e-04 3.451654e-04 2.979147e-04 3.012215e-04 2.454254e-04 2.516538e-04 1.959793e-04 2.004885e-04 1.527864e-04 1.527762e-04 1.175062e-04 1.116039e-04 9.026528e-05 7.878298e-05 7.023479e-05 5.432012e-05 5.544068e-05 3.719685e-05 4.438502e-05 2.650631e-05 3.608690e-05 2.080759e-05 2.938454e-05 1.802977e-05 2.325076e-05 1.647827e-05 1.754005e-05 1.513474e-05 1.217721e-05 1.305834e-05 7.279635e-06 1.034998e-05 3.456654e-06 7.199968e-06 5.428657e-07 3.765645e-06 -1.159566e-06 1.114850e-06 -1.334950e-06 -4.372261e-07 -6.940922e-07 -1.206577e-06 3.418844e-08 -1.414033e-06 4.604019e-07 -1.180323e-06 4.228023e-07 -8.085234e-07 1.135678e-07 -4.918627e-07 -2.389481e-07 
-7.079646e-05 -4.854410e-04 -9.220326e-04 -1.621472e-03 -1.855348e-03 -2.794940e-03 -2.806358e-03 -2.091341e-03 -2.009419e-03 -2.964954e-03 -2.505938e-03 -6.667082e-03 -6.034890e-03 -1.015787e-04 5.899467e-05 -1.285130e-04 1.089083e-04 -1.145624e-04 1.140976e-04 -5.406861e-05 8.624571e-05 4.618306e-03 4.860996e-03 2.052825e-03 2.515362e-03 1.200705e-03 1.379110e-03 6.505002e-04 6.644688e-04 3.261755e-04 2.493434e-04 1.530773e-04 1.265143e-05 5.976825e-05 -1.257640e-04 -1.110096e-06 -2.137844e-04 -5.671120e-05 -2.793369e-04 -1.223259e-04 -3.413275e-04 -2.074603e-04 -4.135938e-04 -3.173790e-04 -5.067132e-04 -4.553030e-04 -6.284348e-04 -6.200379e-04 -7.776826e-04 -7.976334e-04 -9.337864e-04 -9.478100e-04 -1.040638e-03 -9.869735e-04 -9.937363e-04 -7.838643e-04 -6.492164e-04 -2.254734e-04 -1.086335e-04 1.821927e-04 4.325877e-04 5.932996e-04 7.518076e-04 7.911914e-04 8.636889e-04 9.073899e-04 8.528970e-04 8.273734e-04 6.623608e-04 5.704172e-04 5.115906e-04 2.898293e-04 3.451535e-04 2.281564e-04 3.113410e-04 1.924301e-04 3.036448e-04 1.646692e-04 2.939954e-04 1.381504e-04 2.704111e-04 1.137628e-04 2.307613e-04 9.484010e-05 1.784858e-04 8.543960e-05 1.193703e-04 8.718755e-05 5.863265e-05 9.898924e-05 1.282690e-06 1.175412e-04 -4.881448e-05 1.373976e-04 -8.824695e-05 1.532731e-04 -1.132788e-04 1.604346e-04 -1.212449e-04 1.545203e-04 -1.111582e-04 1.328398e-04 -8.273933e-05 9.633879e-05 -3.628072e-05 4.914410e-05 2.627085e-05 -8.900645e-07 1.030626e-04 -4.080882e-05 1.927482e-04 -5.318260e-05 2.960215e-04 -1.477822e-05 4.183195e-04 1.006767e-04 5.701402e-04 3.168600e-04 7.768816e-04 6.616902e-04 1.122722e-03 1.220552e-03 1.812809e-03 2.445173e-03 1.377061e-03 1.661747e-03 7.193916e-04 6.254121e-04 
-3.315187e-04 -1.609795e-03 -2.735177e-03 -4.096110e-03 -4.918624e-03 -6.182174e-03 -6.138709e-03 -4.458753e-03 -3.873558e-03 -6.146990e-03 -5.085426e-03 -1.297406e-02 -1.200217e-02 -2.065741e-04 5.886151e-05 -1.957534e-04 1.410887e-04 -1.526232e-04 1.722017e-04 -5.593000e-05 1.775154e-04 9.638004e-03 1.028358e-02 4.430388e-03 5.298620e-03 2.444969e-03 2.946113e-03 1.326893e-03 1.527177e-03 7.268913e-04 7.074758e-04 4.351582e-04 2.385417e-04 2.988965e-04 -2.904073e-05 2.273137e-04 -1.791013e-04 1.764934e-04 -2.559379e-04 1.250830e-04 -2.928664e-04 5.988765e-05 -3.119985e-04 -1.877334e-05 -3.264463e-04 -1.095738e-04 -3.501555e-04 -2.110103e-04 -3.901025e-04 -3.155349e-04 -4.435351e-04 -4.072474e-04 -4.915650e-04 -4.529664e-04 -4.925260e-04 -4.032882e-04 -3.984646e-04 -2.380066e-04 -2.552752e-04 -1.199948e-04 -1.033349e-04 -1.140583e-05 5.986473e-05 1.762765e-04 2.298741e-04 2.987520e-04 2.909943e-04 3.614994e-04 3.768630e-04 3.677146e-04 4.139267e-04 2.494677e-04 3.925322e-04 1.826975e-04 3.861233e-04 1.137453e-04 3.752006e-04 5.415735e-05 3.563146e-04 1.207121e-05 3.240988e-04 -9.423342e-06 2.698405e-04 -1.145522e-05 1.930623e-04 1.099439e-05 1.013298e-04 5.725477e-05 7.485519e-08 1.219159e-04 -1.008726e-04 1.968578e-04 -1.941735e-04 2.670494e-04 -2.717658e-04 3.212460e-04 -3.205725e-04 3.504640e-04 -3.307959e-04 3.440065e-04 -2.990724e-04 2.935625e-04 -2.229067e-04 2.021525e-04 -1.002040e-04 7.788771e-05 6.191009e-05 -6.488920e-05 2.568025e-04 -1.984281e-04 4.759369e-04 -2.884250e-04 7.122534e-04 -2.805976e-04 9.725258e-04 -9.957871e-05 1.267787e-03 3.507898e-04 1.620380e-03 1.218939e-03 2.104773e-03 2.702290e-03 3.402041e-03 6.522168e-03 3.507401e-03 3.792858e-03 1.916766e-03 1.129371e-03 
-1.261340e-04 -1.470618e-03 -2.433452e-03 -4.817436e-03 -6.208117e-03 -1.626087e-02 -1.516471e-02 -6.345402e-04 -3.259250e-03 -4.015517e-03 -2.684689e-03 -9.863208e-03 -5.216149e-03 -2.677148e-04 3.537953e-04 -5.947403e-04 5.054217e-04 -5.301864e-04 4.991601e-04 -2.809983e-04 1.828500e-04 5.677690e-03 7.291910e-03 2.683275e-03 3.310872e-03 1.230308e-03 1.547240e-03 5.802222e-04 5.842403e-04 3.094387e-04 5.718231e-05 2.269624e-04 -2.334384e-04 2.179199e-04 -3.929680e-04 2.181216e-04 -4.750983e-04 2.048858e-04 -5.020625e-04 1.696308e-04 -5.005162e-04 1.028740e-04 -4.885532e-04 1.349326e-05 -4.741664e-04 -9.212610e-05 -4.720954e-04 -2.092769e-04 -4.884669e-04 -3.261119e-04 -5.211298e-04 -4.260880e-04 -5.544464e-04 -4.769882e-04 -5.482186e-04 -4.242205e-04 -4.337233e-04 -1.843040e-04 -1.997454e-04 -9.179282e-06 3.647083e-05 1.630750e-04 2.215634e-04 2.026359e-04 2.318991e-04 2.700880e-04 2.763536e-04 3.108478e-04 2.128688e-04 1.792232e-04 2.693858e-04 7.181006e-05 3.383104e-04 9.200967e-05 4.082131e-04 3.763756e-05 4.160544e-04 -3.225038e-05 3.978881e-04 -8.413427e-05 3.622144e-04 -1.061618e-04 2.984673e-04 -1.008851e-04 2.051058e-04 -6.004711e-05 9.266875e-05 1.408682e-05 -3.435136e-05 1.132073e-04 -1.623433e-04 2.272184e-04 -2.829868e-04 3.338977e-04 -3.870124e-04 4.188071e-04 -4.555581e-04 4.707653e-04 -4.750511e-04 4.741750e-04 -4.421892e-04 4.153129e-04 -3.534942e-04 2.988388e-04 -2.041425e-04 1.342702e-04 -6.460429e-06 -6.254610e-05 2.289632e-04 -2.559412e-04 4.852868e-04 -4.070205e-04 7.425933e-04 -4.484537e-04 1.000958e-03 -2.871457e-04 1.261066e-03 1.689431e-04 1.529440e-03 9.158330e-04 1.886875e-03 1.086355e-03 1.062885e-02 1.649505e-02 5.609996e-03 5.980443e-03 2.540977e-03 2.023940e-03 
-4.780765e-04 -4.365752e-03 -7.036030e-03 -1.477357e-02 -2.442581e-02 -2.137455e-02 -1.283073e-02 6.798384e-04 -1.284693e-04 -2.859012e-03 2.670551e-04 -4.873877e-03 -1.012814e-03 -3.758410e-04 3.197961e-04 -5.955595e-04 4.773807e-04 -5.090943e-04 4.896786e-04 -2.526594e-04 2.610230e-04 1.756542e-03 3.716385e-03 5.505451e-04 1.866192e-03 3.655530e-05 9.739595e-04 3.034032e-05 4.138588e-04 1.645324e-04 1.660223e-05 3.107314e-04 -2.587798e-04 4.266213e-04 -4.396737e-04 4.673892e-04 -5.465906e-04 4.662770e-04 -5.417721e-04 4.445873e-04 -4.885066e-04 3.574129e-04 -4.187848e-04 2.589601e-04 -3.131721e-04 1.641956e-04 -2.174300e-04 6.908255e-05 -1.379985e-04 -2.841700e-06 -8.401893e-05 -5.899229e-05 -7.603692e-05 -1.078164e-04 -1.093413e-04 -1.168848e-04 -1.143606e-04 5.711012e-06 -8.482805e-05 2.227627e-05 -5.702759e-05 7.193714e-05 -2.744818e-05 1.783678e-05 -8.632557e-05 4.648988e-05 -3.849638e-05 6.202667e-05 -6.378094e-05 -4.714429e-05 7.555876e-05 -1.393806e-04 1.927146e-04 -1.584410e-04 3.047395e-04 -2.599441e-04 3.418298e-04 -3.706035e-04 3.528266e-04 -4.204148e-04 3.682306e-04 -3.993141e-04 3.226533e-04 -3.593016e-04 2.039068e-04 -2.528525e-04 5.771454e-05 -8.985695e-05 -1.358274e-04 1.098320e-04 -3.308175e-04 3.475985e-04 -5.240973e-04 5.526058e-04 -7.141644e-04 7.098462e-04 -8.392895e-04 8.181527e-04 -8.645831e-04 8.408187e-04 -8.026869e-04 7.265010e-04 -6.484691e-04 5.063205e-04 -3.619608e-04 1.916397e-04 2.696032e-06 -2.193894e-04 4.365566e-04 -6.499078e-04 8.970675e-04 -1.099157e-03 1.295497e-03 -1.495588e-03 1.636090e-03 -1.744841e-03 1.862267e-03 -1.814004e-03 1.897649e-03 -1.622798e-03 1.608427e-03 -1.479635e-03 8.996882e-03 4.144467e-02 2.026471e-02 8.762149e-03 5.692201e-03 1.815813e-03 
-2.140998e-03 -4.468534e-03 -1.020962e-02 -1.387061e-02 -3.038852e-02 2.939769e-03 1.083569e-02 -3.503622e-03 5.283741e-03 -8.394480e-04 4.666992e-03 2.880591e-03 4.828002e-03 -4.920919e-03 1.392004e-03 -2.306970e-03 1.304723e-03 -1.418292e-03 1.860869e-03 -7.910235e-04 3.423947e-03 -3.634968e-03 -4.159933e-03 -2.112458e-03 -2.116902e-03 -9.648148e-04 -1.402375e-03 -3.288699e-04 -1.124179e-03 8.907846e-05 -1.035958e-03 3.510800e-04 -9.965441e-04 5.025915e-04 -9.527674e-04 5.262514e-04 -8.894305e-04 4.887116e-04 -7.305248e-04 4.289745e-04 -5.511467e-04 2.885671e-04 -3.862817e-04 1.463752e-04 -1.999701e-04 2.546500e-05 -4.714258e-05 -7.758728e-05 7.327105e-05 -1.289357e-04 1.562826e-04 -1.441558e-04 1.731602e-04 -1.545975e-04 1.136032e-04 -1.581831e-04 1.869061e-05 -1.674221e-04 -1.170144e-04 -1.423067e-04 -2.524565e-04 -7.343430e-05 -3.288040e-04 -3.331969e-05 -3.618587e-04 -8.026621e-05 -3.334043e-04 -1.403986e-04 -2.324506e-04 -1.683600e-04 -1.307384e-04 -1.733420e-04 2.284212e-05 -2.642730e-04 1.627332e-04 -3.448664e-04 2.750549e-04 -4.340976e-04 3.410381e-04 -4.643023e-04 3.972179e-04 -4.197486e-04 3.606878e-04 -3.665744e-04 2.215150e-04 -2.330965e-04 4.577643e-05 -3.083988e-05 -1.957346e-04 2.137218e-04 -4.394315e-04 5.037655e-04 -6.805065e-04 7.411761e-04 -9.154196e-04 9.062716e-04 -1.056173e-03 9.995601e-04 -1.052704e-03 9.731079e-04 -9.227646e-04 7.584803e-04 -6.617286e-04 4.017327e-04 -2.186414e-04 -8.005065e-05 3.233986e-04 -6.889092e-04 9.437093e-04 -1.316713e-03 1.573070e-03 -1.964116e-03 2.074475e-03 -2.535648e-03 2.433201e-03 -2.903540e-03 2.521375e-03 -2.989496e-03 2.079535e-03 -2.390468e-03 3.335820e-04 1.041045e-03 -1.106285e-02 3.763317e-02 2.323075e-02 5.112692e-03 4.658461e-03 8.197418e-05 
-1.633027e-03 -1.789190e-03 -5.694187e-03 -4.350877e-03 -1.351793e-02 1.234751e-02 1.591165e-02 -9.932299e-03 2.777453e-03 -7.631927e-03 8.493846e-04 -1.068484e-02 -4.880099e-04 6.182128e-03 2.645877e-03 1.692522e-03 3.285673e-04 1.502020e-04 -2.688401e-03 -1.305321e-03 -8.003038e-03 3.238021e-03 5.885327e-03 2.313614e-03 2.821708e-03 1.281854e-03 1.383517e-03 8.552131e-04 5.427606e-04 6.521620e-04 4.916583e-05 5.488500e-04 -2.239846e-04 4.787820e-04 -3.571575e-04 3.915467e-04 -4.012472e-04 2.921002e-04 -3.617295e-04 1.862311e-04 -2.918198e-04 4.850666e-05 -2.222333e-04 -8.847009e-05 -1.495453e-04 -2.098250e-04 -9.919100e-05 -3.084448e-04 -6.798715e-05 -3.588963e-04 -4.554411e-05 -3.493961e-04 -2.081119e-05 -2.721583e-04 2.430725e-05 -1.279137e-04 8.179544e-05 -1.822955e-05 8.783087e-05 1.168450e-04 2.591746e-05 1.238201e-04 7.238287e-05 3.657087e-04 1.819389e-04 3.028329e-04 3.502592e-05 2.455170e-04 1.731413e-04 2.543562e-04 1.053085e-04 4.096561e-05 6.289501e-05 -1.327129e-04 5.826355e-05 -2.359231e-04 1.056105e-04 -2.965935e-04 1.531526e-04 -3.093356e-04 1.915148e-04 -2.763454e-04 1.774088e-04 -2.252508e-04 1.033918e-04 -1.283750e-04 -3.617227e-06 8.592666e-06 -1.503163e-04 1.703268e-04 -3.055115e-04 3.488546e-04 -4.583114e-04 4.951994e-04 -5.956525e-04 5.912390e-04 -6.700380e-04 6.286867e-04 -6.503863e-04 5.818213e-04 -5.365308e-04 4.204694e-04 -3.240346e-04 1.643414e-04 4.048860e-06 -1.716959e-04 4.072470e-04 -5.724779e-04 8.641964e-04 -9.710408e-04 1.332262e-03 -1.329227e-03 1.743776e-03 -1.552285e-03 2.079397e-03 -1.502097e-03 2.261620e-03 -1.006832e-03 2.066748e-03 3.271991e-04 6.016882e-04 4.246130e-03 -1.606540e-02 6.516517e-03 6.803784e-03 3.152516e-04 1.399533e-03 -4.391331e-04 
-1.024541e-03 -6.951610e-04 -3.017460e-03 -1.262219e-03 -4.897976e-03 3.592272e-03 4.191908e-03 -4.745735e-03 -1.227216e-03 -5.396277e-03 -5.026330e-03 -1.123651e-02 -1.559993e-02 -1.675775e-02 -6.577396e-03 -5.110233e-03 -1.935585e-03 2.024226e-03 3.972505e-03 8.017697e-03 1.699161e-02 1.617850e-02 9.536688e-03 6.084457e-03 3.555806e-03 2.589320e-03 1.322004e-03 1.162870e-03 3.572087e-04 5.779496e-04 -5.251384e-05 3.434606e-04 -2.165128e-04 2.438239e-04 -2.678317e-04 1.848871e-04 -2.641566e-04 1.336933e-04 -2.289081e-04 7.737754e-05 -1.865227e-04 4.356844e-06 -1.560152e-04 -8.488613e-05 -1.510178e-04 -1.956296e-04 -1.945725e-04 -3.421078e-04 -3.102436e-04 -5.411657e-04 -5.195724e-04 -8.052494e-04 -8.221648e-04 -1.099696e-03 -1.134822e-03 -1.242460e-03 -1.117055e-03 -5.089286e-04 -5.568775e-04 -3.115548e-04 1.614808e-04 3.494539e-04 3.697915e-04 -2.700770e-04 -1.794184e-04 2.445594e-04 4.349188e-04 5.692744e-04 -2.850542e-04 -4.738318e-06 2.351157e-04 1.863285e-04 5.979970e-04 7.593896e-04 9.208403e-04 7.012258e-04 8.050394e-04 4.742647e-04 6.211425e-04 2.716036e-04 4.603422e-04 1.376151e-04 3.243520e-04 6.655565e-05 2.016788e-04 5.273340e-05 8.795568e-05 8.321827e-05 -2.274583e-05 1.421381e-04 -1.262347e-04 2.140197e-04 -2.186228e-04 2.768798e-04 -2.923857e-04 3.169814e-04 -3.310363e-04 3.255294e-04 -3.220519e-04 2.913879e-04 -2.623354e-04 2.052637e-04 -1.507687e-04 7.125367e-05 1.212461e-05 -1.029896e-04 2.112585e-04 -3.047166e-04 4.304082e-04 -5.065686e-04 6.460757e-04 -6.779324e-04 8.288140e-04 -7.644969e-04 9.559514e-04 -6.801877e-04 9.873227e-04 -2.859462e-04 8.381765e-04 6.953956e-04 2.629887e-04 3.000986e-03 -4.980075e-03 1.493911e-03 1.499172e-03 1.306614e-03 6.696990e-04 2.863191e-04 
