# vtk DataFile Version 2.0
Comment goes here
ASCII

DATASET STRUCTURED_POINTS
FIELD FieldData 1
TIME 1 1 double
0.22000000
DIMENSIONS    128   16   1

ORIGIN    0.000   0.000   0.000
SPACING   0.0078125 0.015625   1.000

POINT_DATA   2048
SCALARS uY double
LOOKUP_TABLE default

1.309412e-05 1.201531e-05 1.307867e-05 1.574593e-05 1.818245e-05 2.413100e-05 2.904196e-05 3.926730e-05 3.872222e-05 1.948994e-05 -1.409610e-05 -4.790170e-05 -7.406843e-05 -8.148213e-05 -8.230033e-05 -9.822702e-05 -9.919908e-05 -1.200353e-04 -1.255073e-04 -1.484967e-04 -1.264614e-04 -1.256247e-04 -7.388100e-05 -3.279989e-05 1.778222e-05 2.739634e-05 2.539962e-05 -3.173770e-05 -6.700492e-05 -5.149472e-05 4.731456e-05 1.128283e-04 1.358367e-04 9.580488e-05 8.083626e-05 8.233568e-05 1.478663e-04 1.617596e-04 1.712406e-04 1.231143e-04 1.066128e-04 1.183649e-04 1.669674e-04 1.541522e-04 1.504827e-04 1.814538e-04 2.260756e-04 3.283898e-04 4.249765e-04 6.130147e-04 7.660637e-04 1.069499e-03 1.187265e-03 1.379792e-03 1.220172e-03 1.210994e-03 1.160848e-03 1.310007e-03 1.796812e-04 -8.327163e-04 -3.948089e-04 -7.699980e-04 -8.124883e-04 -6.845753e-04 -1.124772e-03 -3.825799e-04 -2.889305e-04 -6.024385e-04 -4.864748e-04 -9.578230e-04 -4.417960e-05 -2.441255e-04 -3.064519e-04 7.997718e-04 1.099682e-03 1.258688e-03 1.128928e-03 8.992945e-04 6.658441e-04 4.011386e-04 2.310667e-04 3.193456e-05 -4.079518e-05 -1.354600e-04 -1.338882e-04 -1.725976e-04 -9.165339e-05 -5.229567e-05 6.265783e-05 9.263036e-05 1.139177e-04 9.947104e-05 1.031601e-04 1.184716e-04 1.308569e-04 1.421959e-04 8.730613e-05 9.245255e-05 2.547599e-05 2.369191e-05 -2.890216e-05 -1.886403e-05 -7.799824e-05 -5.150160e-05 -1.043221e-04 -1.155561e-04 -1.310542e-04 -1.108444e-04 -1.093828e-04 -1.026626e-04 -1.400035e-04 -1.324473e-04 -7.668377e-05 -2.022061e-05 1.687937e-05 -1.507905e-05 -7.218505e-05 -6.854907e-05 1.074159e-05 8.111361e-05 1.289493e-04 9.528953e-05 6.095170e-05 4.149628e-05 3.212124e-05 2.230543e-05 1.911849e-05 1.379240e-05 
7.089748e-04 1.185606e-03 2.898203e-03 1.625085e-03 3.024973e-03 -6.070761e-03 -1.014830e-03 5.561569e-03 3.113327e-03 8.224069e-03 8.837918e-03 1.743150e-02 2.272644e-02 2.424025e-02 1.109002e-02 6.751950e-03 2.467921e-03 -2.913301e-03 -6.863874e-03 -1.184170e-02 -2.447153e-02 -2.405132e-02 -1.528554e-02 -1.010487e-02 -5.956504e-03 -4.018242e-03 -2.277416e-03 -1.823413e-03 -1.186230e-03 -1.019056e-03 -1.341770e-04 2.379657e-05 4.014825e-04 -1.367873e-04 6.384328e-05 -2.854930e-04 3.356932e-04 1.345220e-04 5.842495e-04 3.146736e-05 2.456652e-04 -5.042934e-05 4.706543e-04 1.866305e-04 4.127977e-04 2.125659e-04 4.529734e-04 3.275316e-04 4.439954e-04 3.831662e-04 3.972368e-04 3.540207e-04 -8.410785e-05 -8.073879e-04 -2.388482e-03 -3.180085e-03 1.999392e-04 8.079873e-03 -1.796943e-03 -1.133541e-02 9.581632e-03 2.082719e-02 8.292318e-03 -9.030806e-03 -1.679453e-02 3.920647e-03 1.733381e-02 5.829981e-03 -1.004137e-02 -1.658787e-02 -2.123697e-03 3.972805e-03 -3.295158e-03 -7.556301e-04 1.257485e-03 1.417651e-03 1.516116e-03 1.390706e-03 1.147384e-03 7.936973e-04 4.144166e-04 1.375141e-04 1.468307e-04 2.888516e-05 1.053572e-04 -2.698833e-04 -9.864016e-06 -2.059288e-04 4.319500e-04 9.992174e-05 5.207275e-04 -7.382042e-05 3.807741e-04 -9.097689e-05 5.200648e-04 9.036519e-05 4.709749e-04 5.059390e-05 1.794729e-04 -8.986683e-05 -7.535249e-05 1.952150e-05 -1.907033e-04 2.206996e-04 -4.511538e-04 9.200067e-05 -7.311326e-04 4.285900e-04 -5.654281e-04 6.142493e-04 -9.876915e-04 2.362886e-04 -9.724602e-04 6.874415e-04 -3.624388e-04 4.534360e-04 -8.021366e-04 -6.261406e-04 -3.644371e-04 -1.098498e-03 6.799410e-04 -3.715304e-03 5.943296e-03 8.773846e-04 -2.000110e-03 -1.376808e-03 -1.438736e-03 -2.541720e-04 
9.237761e-04 2.926923e-03 5.799464e-03 6.547819e-03 8.787576e-03 -2.023489e-02 -9.251137e-03 9.203269e-03 -2.231627e-03 8.112223e-03 -8.492294e-04 1.044673e-02 -1.714774e-03 -8.073689e-03 -5.630085e-03 -1.508679e-03 -1.571446e-03 7.415860e-04 2.193457e-03 3.649760e-03 9.096925e-03 -1.920973e-03 -4.962298e-03 -2.555642e-03 -2.255795e-03 -8.013139e-04 -8.611319e-04 -8.047348e-04 -1.315369e-03 -1.139464e-03 7.671791e-05 6.348141e-04 9.689351e-04 -2.192155e-04 -3.119024e-04 -9.678571e-04 3.562990e-04 1.619852e-04 1.010064e-03 -9.360348e-05 8.825145e-05 -4.715491e-04 6.123336e-04 1.363865e-05 3.728218e-04 6.404855e-05 4.954190e-04 1.422017e-04 1.031340e-04 -3.798373e-04 -4.945276e-04 -4.118027e-04 -8.600076e-04 -1.311751e-03 -2.563289e-03 -1.038797e-03 3.877368e-03 8.755345e-03 -1.739978e-03 -8.021797e-03 6.459513e-03 8.633278e-03 3.413844e-03 -3.526188e-04 -6.924191e-03 4.987478e-03 9.331805e-03 3.398935e-03 -5.199089e-04 -6.077568e-03 5.406294e-03 6.238147e-03 -6.755973e-03 -4.006757e-03 -1.459507e-03 -6.668535e-04 -2.694498e-04 1.758597e-04 1.554952e-04 1.121108e-06 -4.166127e-04 -5.527767e-04 -3.454865e-04 -3.414406e-04 -1.743525e-04 -8.896888e-04 -3.618651e-04 -5.858570e-04 7.635236e-04 1.239854e-04 8.470263e-04 -4.067789e-04 4.664712e-04 -4.449362e-04 9.510286e-04 7.806999e-05 8.581728e-04 8.406729e-06 2.421082e-04 -4.453025e-04 -1.985493e-04 -1.166467e-05 -3.188365e-04 5.651547e-04 -8.405269e-04 4.190275e-05 -1.462566e-03 9.258688e-04 -9.948504e-04 1.362885e-03 -2.158245e-03 2.644041e-04 -2.071231e-03 1.571627e-03 -7.171005e-04 1.040332e-03 -2.234993e-03 -1.261273e-03 -1.020476e-03 -1.073576e-03 2.004298e-03 -6.111640e-03 1.894228e-02 -4.561101e-05 -1.005805e-02 -2.530425e-03 -3.571327e-03 2.771903e-05 
1.944963e-03 8.197931e-03 1.592306e-02 2.493805e-02 3.577474e-02 -9.378726e-03 -8.727982e-03 3.594009e-03 -5.900430e-03 1.762854e-03 -6.309991e-03 -2.236302e-03 -5.625042e-03 5.997386e-03 -7.363344e-04 2.339746e-03 -6.628590e-04 1.015347e-03 -1.010968e-03 -1.078595e-03 -3.607814e-03 2.852330e-03 3.981365e-03 2.699053e-03 2.238436e-03 1.607457e-03 1.020271e-03 6.076028e-04 1.791643e-04 -3.000980e-05 7.626258e-04 8.751534e-04 1.437298e-03 3.684453e-04 3.155623e-04 -8.387316e-04 8.267895e-04 3.850997e-05 1.355461e-03 2.502540e-04 9.525104e-04 -3.373291e-04 9.582785e-04 -2.839604e-04 7.971521e-04 5.192846e-04 1.518679e-03 9.066500e-04 1.050203e-03 -7.891963e-05 3.088567e-04 1.043772e-03 1.810507e-03 2.486953e-03 2.781392e-03 2.562320e-03 -9.212098e-04 -3.908555e-03 1.388058e-03 7.394176e-03 -5.120063e-03 -1.256541e-02 -5.841456e-03 1.943344e-03 8.640490e-03 -1.722543e-03 -8.327634e-03 -1.552866e-03 4.287628e-03 9.798934e-03 -1.665984e-04 -3.057085e-03 2.379110e-03 1.621201e-03 2.948191e-04 1.780536e-03 9.459647e-04 1.326623e-03 3.911592e-04 4.987122e-04 5.665751e-05 1.390567e-04 -2.780068e-04 -7.560714e-04 -5.714330e-04 -1.186133e-03 -1.295807e-06 -4.086115e-04 1.131799e-03 -8.181275e-05 1.222753e-03 -3.845731e-04 1.309120e-03 -2.569837e-04 1.870040e-03 1.060407e-04 1.267036e-03 -1.251711e-04 5.274903e-04 -8.650152e-04 9.403811e-05 -6.010910e-05 -4.329572e-04 6.001906e-04 -1.010783e-03 1.398109e-04 -1.581633e-03 1.063991e-03 -1.875330e-03 1.717653e-03 -2.470042e-03 1.591915e-03 -1.618080e-03 2.708221e-03 -1.288673e-03 2.033296e-03 -1.981751e-03 1.088309e-03 4.461558e-04 1.605425e-03 3.270112e-03 -3.091844e-03 1.397770e-02 -3.447514e-02 -3.732423e-02 -1.559819e-02 -1.091204e-02 -2.332632e-03 
1.340557e-03 8.398477e-03 1.591265e-02 2.764694e-02 4.088828e-02 2.476985e-02 7.318208e-03 7.420284e-04 -2.196664e-04 3.483091e-03 -1.382505e-06 5.298909e-03 1.502368e-03 1.284685e-04 -1.776009e-04 3.371690e-04 -2.444338e-04 2.872304e-04 -9.709013e-05 5.009132e-05 -9.628766e-05 -3.096157e-03 -3.572167e-03 -8.325686e-04 -1.752352e-03 -2.571392e-04 -1.626156e-03 2.585122e-04 -2.035092e-04 7.692321e-04 -3.539328e-04 -1.763307e-04 -1.120404e-04 5.673817e-04 6.819329e-04 1.703763e-04 6.335710e-04 -2.853615e-04 5.368835e-04 3.537992e-04 1.383813e-03 1.155412e-04 6.218039e-04 -5.494021e-04 6.637774e-04 3.024007e-04 1.172808e-03 4.420726e-04 6.944692e-04 -5.792798e-04 -3.083658e-04 -4.134107e-04 -1.052202e-04 -5.045124e-04 -6.773368e-04 -2.082327e-03 -7.281498e-04 2.522340e-03 1.260672e-04 -4.171719e-03 4.710937e-03 1.222781e-02 4.514564e-03 -3.975662e-03 -7.893216e-03 3.054678e-03 1.161748e-02 4.376907e-03 -4.734483e-03 -8.312015e-03 -3.061924e-03 1.207619e-03 -1.862074e-03 -1.629593e-04 1.022642e-04 1.349138e-03 5.294377e-04 5.061779e-04 -3.771870e-04 5.712100e-05 1.643049e-04 4.439322e-04 -2.688017e-04 -9.905047e-04 -7.374717e-04 -7.205760e-04 4.891718e-04 -5.585289e-05 6.006589e-04 -5.341881e-04 8.095955e-04 -9.944783e-05 1.592711e-03 1.629258e-04 1.639860e-03 -1.153558e-04 9.028666e-04 -3.431904e-04 6.417883e-04 -6.398772e-04 4.682259e-04 -1.859117e-04 -2.913583e-04 -5.850178e-05 -5.448687e-04 2.354480e-04 -6.442430e-04 2.944780e-04 -1.894093e-03 6.487487e-04 -1.142470e-03 2.104040e-03 -3.194846e-04 1.508824e-03 -1.993537e-03 9.223959e-04 -9.783979e-04 1.999719e-03 1.718107e-06 7.564540e-04 -9.673416e-04 3.054510e-04 -9.769138e-03 -4.885403e-02 -3.717075e-02 -2.103213e-02 -1.221854e-02 -4.692202e-03 
7.248584e-04 3.493683e-03 7.307929e-03 1.084295e-02 1.654317e-02 2.205908e-02 1.238866e-02 2.494591e-03 3.850034e-03 4.961900e-03 4.241196e-03 1.083644e-02 6.314548e-03 9.363096e-05 -1.875338e-04 4.073423e-04 -2.624435e-04 2.688109e-04 -2.323684e-04 -4.444466e-05 -6.098715e-05 -6.557949e-03 -8.030638e-03 -3.921026e-03 -3.908477e-03 -1.897008e-03 -2.250432e-03 -5.580933e-04 -4.556530e-04 3.335689e-04 -3.919510e-04 -3.810167e-04 -2.739982e-04 3.056471e-04 7.057316e-04 4.763488e-04 5.672387e-04 -9.736984e-05 3.780133e-04 2.364202e-04 1.053048e-03 2.950092e-04 5.784786e-04 -1.040589e-04 6.526972e-04 1.933390e-04 6.940810e-04 1.720601e-04 4.722340e-04 -1.690308e-04 -1.186444e-04 -7.240602e-04 -1.138947e-03 -2.101397e-03 -2.689576e-03 -9.596799e-04 7.315902e-03 8.843031e-03 -1.700759e-03 -7.569510e-03 2.068037e-03 6.216294e-04 -1.899976e-03 4.698180e-03 -3.555143e-03 3.538337e-03 4.130289e-03 4.174620e-04 5.541140e-03 -2.329580e-03 7.426128e-03 7.189148e-03 -8.997347e-03 -4.738797e-03 -1.826042e-03 -1.099259e-03 -1.045068e-03 -9.092070e-04 -9.898108e-04 -5.457852e-04 -2.571224e-04 -4.126234e-05 -2.482066e-04 -5.861596e-04 -3.054070e-04 -2.497631e-04 4.094326e-04 -5.777755e-05 2.497188e-04 -4.134501e-04 4.755885e-04 -4.682827e-06 1.008764e-03 1.350406e-04 8.438487e-04 -1.623581e-04 5.137334e-04 -2.388786e-04 4.646751e-04 -1.682932e-04 3.351184e-04 -1.129796e-04 -1.231443e-04 -1.693019e-04 -2.487952e-04 2.643685e-04 -2.699047e-04 9.886894e-05 -1.039603e-03 2.139586e-04 -4.150729e-04 1.202251e-03 -2.168035e-04 3.681531e-04 -1.386562e-03 -6.129861e-05 -6.012071e-04 3.097532e-04 -9.983614e-04 -1.673233e-03 -2.930948e-03 -1.846031e-03 -1.360525e-02 -2.471566e-02 -1.363825e-02 -1.148504e-02 -5.821038e-03 -3.548349e-03 
6.664482e-04 2.840498e-03 5.237697e-03 7.094240e-03 8.788501e-03 9.340971e-03 7.619856e-03 6.734535e-03 5.641234e-03 8.930517e-03 8.311613e-03 1.738479e-02 1.487021e-02 1.108208e-04 -4.286281e-05 8.988401e-05 -7.666652e-05 5.956990e-05 -8.354293e-05 -1.128613e-05 -1.200889e-04 -1.244591e-02 -1.440345e-02 -7.794116e-03 -7.414484e-03 -3.950666e-03 -4.038840e-03 -1.919078e-03 -2.028324e-03 -8.124186e-04 -1.012096e-03 -3.831149e-04 -4.051184e-04 -4.574038e-05 5.199823e-05 6.004642e-05 2.582361e-04 5.576485e-05 3.813345e-04 1.445649e-04 5.478099e-04 1.460625e-04 5.171272e-04 1.052427e-04 5.458850e-04 2.164766e-04 5.987132e-04 2.733916e-04 5.538920e-04 2.253792e-04 4.114204e-04 1.505722e-04 1.442999e-04 -2.392141e-04 -2.644437e-04 9.802410e-04 4.203180e-03 2.457973e-03 1.446282e-04 2.280175e-03 -3.182095e-04 -7.112801e-03 -4.520810e-03 4.252171e-03 4.639798e-03 9.138509e-04 -4.750735e-03 -2.169367e-03 5.240226e-03 4.479763e-03 2.696376e-03 -3.511088e-05 -2.939615e-03 -1.015623e-03 -7.587934e-04 -3.999378e-04 -6.876741e-04 -4.161181e-04 -5.395260e-04 -2.676758e-04 -2.556607e-04 -1.398194e-04 -1.480201e-04 -2.458743e-04 -6.625819e-05 -2.003123e-04 1.761557e-04 -1.161430e-04 3.066778e-04 -1.255209e-04 4.458919e-04 -4.388527e-05 5.970787e-04 -7.887831e-06 5.833946e-04 -6.281302e-05 4.398036e-04 -1.185652e-04 2.956914e-04 -1.509647e-04 1.311692e-04 -9.972043e-05 -8.965619e-05 -3.907569e-05 -2.564757e-04 6.738856e-05 -4.014089e-04 1.458007e-04 -6.107417e-04 2.772933e-04 -5.795748e-04 4.616327e-04 -5.934763e-04 2.793877e-04 -9.048987e-04 -8.147040e-05 -1.072348e-03 -6.201310e-04 -1.561565e-03 -1.963918e-03 -2.734478e-03 -4.063587e-03 -5.436974e-03 -9.712469e-03 -7.003790e-03 -6.599719e-03 -3.808038e-03 -2.063785e-03 
2.702436e-04 1.019036e-03 2.048956e-03 2.910210e-03 3.470538e-03 4.284809e-03 3.495256e-03 3.279409e-03 2.856649e-03 4.288434e-03 4.093376e-03 8.831469e-03 7.556518e-03 5.393833e-05 -3.858712e-05 6.747895e-05 -6.282814e-05 4.701356e-05 -6.702325e-05 -3.243263e-06 -6.633243e-05 -6.028277e-03 -6.969293e-03 -3.716241e-03 -3.533092e-03 -1.918636e-03 -1.883954e-03 -9.185738e-04 -8.799712e-04 -3.507143e-04 -3.792799e-04 -1.283988e-04 -8.501595e-05 6.284209e-05 1.619860e-04 1.570323e-04 2.646785e-04 1.570547e-04 3.170201e-04 1.976456e-04 3.971849e-04 2.112241e-04 3.819743e-04 1.890349e-04 3.845292e-04 2.154871e-04 3.832869e-04 2.241480e-04 3.563538e-04 2.016057e-04 2.935244e-04 1.398863e-04 1.916022e-04 1.115663e-05 1.144799e-04 1.248073e-04 1.035055e-03 1.313246e-03 5.877246e-04 2.876163e-05 7.211016e-04 6.757148e-04 2.918879e-04 1.548530e-03 6.989723e-04 1.580329e-03 1.303392e-03 7.856667e-04 1.516202e-03 3.821191e-04 9.806395e-04 3.273313e-04 -1.062898e-03 -6.258619e-04 -1.129904e-03 -9.407679e-04 -1.114393e-03 -8.764264e-04 -8.327631e-04 -6.004491e-04 -4.850655e-04 -3.597089e-04 -2.691126e-04 -2.626982e-04 -1.198753e-04 -1.530356e-04 4.234197e-05 -7.817596e-05 1.199870e-04 -5.902936e-05 1.991184e-04 -1.868212e-06 2.740082e-04 2.053686e-05 2.591637e-04 -1.377028e-05 1.946881e-04 -4.270055e-05 1.340821e-04 -5.268611e-05 5.807262e-05 -5.401234e-05 -4.249662e-05 -4.584878e-05 -1.115542e-04 4.269416e-06 -1.658492e-04 2.578645e-05 -2.429123e-04 8.005287e-05 -2.080035e-04 1.644072e-04 -2.242101e-04 5.842711e-05 -3.801704e-04 -1.145200e-04 -4.936675e-04 -3.758372e-04 -8.507236e-04 -1.012657e-03 -1.598059e-03 -1.963579e-03 -2.798362e-03 -3.947400e-03 -2.754276e-03 -2.870949e-03 -1.472097e-03 -1.023613e-03 
3.734136e-06 5.194977e-06 5.399912e-06 7.877166e-06 9.209829e-06 1.319360e-05 1.487631e-05 2.017149e-05 1.900052e-05 2.171839e-05 1.535749e-05 2.218993e-05 1.367214e-05 -8.612258e-06 -7.789169e-06 -8.785532e-06 -7.962608e-06 -1.229928e-05 -1.128804e-05 -2.094723e-05 -1.794009e-05 -5.482617e-05 -6.262137e-05 -6.094888e-05 -6.379031e-05 -6.159055e-05 -5.415518e-05 -3.643956e-05 -9.665612e-06 1.345326e-05 4.351429e-05 6.335010e-05 1.023439e-04 1.243015e-04 1.653404e-04 1.768045e-04 2.151729e-04 2.144262e-04 2.470364e-04 2.461398e-04 2.768431e-04 2.716947e-04 2.967520e-04 2.960032e-04 3.234295e-04 3.381242e-04 3.666915e-04 3.967824e-04 4.291418e-04 4.705574e-04 5.033783e-04 5.470299e-04 5.779174e-04 6.166608e-04 6.901138e-04 7.637781e-04 9.569723e-04 7.964362e-04 4.556653e-04 4.282424e-04 1.147017e-04 -2.688832e-04 -1.571305e-04 5.259117e-04 4.937804e-04 4.453692e-04 8.630531e-05 1.548098e-04 6.741586e-04 4.075352e-04 3.085290e-04 -1.099638e-04 -4.522585e-04 -4.490999e-04 -5.650132e-04 -5.216282e-04 -5.181325e-04 -4.237934e-04 -3.494473e-04 -2.624244e-04 -1.848322e-04 -1.402993e-04 -8.166645e-05 -6.625465e-05 -9.584253e-06 -1.430732e-06 5.164013e-05 5.017584e-05 8.517625e-05 7.716084e-05 9.779458e-05 8.875387e-05 9.709953e-05 8.513878e-05 7.515616e-05 5.904832e-05 3.414358e-05 2.068778e-05 -4.043515e-06 -1.705238e-05 -4.064847e-05 -5.129869e-05 -7.466496e-05 -7.748955e-05 -8.850801e-05 -8.762219e-05 -8.794727e-05 -8.618217e-05 -7.607788e-05 -5.834779e-05 -3.011284e-05 -7.842954e-06 1.880953e-05 2.428956e-05 3.656444e-05 4.068371e-05 5.027656e-05 5.277888e-05 5.228407e-05 4.195314e-05 3.382975e-05 2.544299e-05 1.844281e-05 1.358073e-05 8.443361e-06 6.989150e-06 4.287257e-06 4.782256e-06 
-2.645348e-04 -1.012195e-03 -2.045415e-03 -2.904184e-03 -3.466047e-03 -4.275129e-03 -3.486650e-03 -3.261425e-03 -2.845953e-03 -4.272986e-03 -4.090936e-03 -8.806788e-03 -7.550115e-03 -6.201029e-05 3.275303e-05 -7.280642e-05 5.673697e-05 -5.564972e-05 5.099284e-05 -2.105895e-05 3.148504e-05 5.954256e-03 6.888127e-03 3.627549e-03 3.423485e-03 1.795373e-03 1.772742e-03 8.668232e-04 9.091239e-04 4.277718e-04 4.850853e-04 2.478225e-04 2.831147e-04 1.996647e-04 1.927790e-04 2.176672e-04 1.675911e-04 2.529037e-04 1.465359e-04 2.725116e-04 1.319125e-04 2.841836e-04 1.244865e-04 2.947253e-04 1.324026e-04 3.044750e-04 1.488583e-04 3.246892e-04 2.013207e-04 3.787497e-04 2.858102e-04 4.290882e-04 3.431176e-04 4.472654e-04 4.097138e-04 5.111264e-04 5.343338e-04 6.033252e-04 5.052966e-04 4.740729e-04 4.766730e-04 5.311369e-04 4.530356e-04 6.126303e-04 4.998010e-04 5.548131e-04 5.464108e-04 3.114079e-04 4.214326e-04 2.080491e-05 1.415439e-04 -1.699348e-04 -2.167604e-04 -3.613296e-04 -3.645470e-04 -4.500203e-04 -3.651157e-04 -3.896704e-04 -2.672511e-04 -2.823709e-04 -1.841145e-04 -1.818305e-04 -1.102664e-04 -6.337783e-05 -4.560982e-05 3.497908e-05 -2.359416e-05 9.730508e-05 -3.386352e-05 1.299661e-04 -7.008388e-05 1.311482e-04 -1.076971e-04 1.288458e-04 -1.284868e-04 1.103639e-04 -1.431015e-04 7.343866e-05 -1.360191e-04 2.902733e-05 -1.180986e-04 -3.105400e-05 -8.781708e-05 -9.104379e-05 -3.514313e-05 -1.401489e-04 3.034174e-05 -1.737668e-04 1.068551e-04 -1.699919e-04 2.032741e-04 -1.062606e-04 3.306889e-04 3.095272e-05 4.746414e-04 2.280337e-04 6.505618e-04 5.447594e-04 9.914822e-04 1.096857e-03 1.643905e-03 2.001386e-03 2.833426e-03 3.978057e-03 2.775153e-03 2.889669e-03 1.483013e-03 1.034626e-03 
-6.668531e-04 -2.838666e-03 -5.234961e-03 -7.088403e-03 -8.776911e-03 -9.320959e-03 -7.584219e-03 -6.673191e-03 -5.572887e-03 -8.883039e-03 -8.288469e-03 -1.735321e-02 -1.485931e-02 -1.132312e-04 3.711464e-05 -9.385404e-05 7.335029e-05 -6.363073e-05 7.425214e-05 -3.021144e-05 6.214589e-05 1.229659e-02 1.426857e-02 7.678240e-03 7.255231e-03 3.728061e-03 3.791762e-03 1.747190e-03 1.975003e-03 8.409771e-04 1.078182e-03 4.664716e-04 5.934252e-04 3.287918e-04 3.331112e-04 3.558646e-04 2.469187e-04 3.992342e-04 1.232514e-04 3.752101e-04 4.923561e-05 4.063789e-04 5.222576e-05 4.160703e-04 3.194747e-05 3.860908e-04 4.037534e-05 4.204281e-04 1.766665e-04 5.588344e-04 3.617629e-04 6.379249e-04 4.083097e-04 5.740062e-04 4.003915e-04 5.349409e-04 4.010531e-04 4.291067e-04 2.446182e-04 1.821328e-04 8.348619e-05 1.446429e-05 1.856422e-05 -5.540346e-07 8.039869e-05 1.010493e-05 1.389199e-04 -4.203543e-05 1.470208e-04 -1.569245e-04 9.074463e-05 -1.731184e-04 9.490445e-05 -1.418882e-04 1.030058e-04 -1.737622e-04 8.145946e-05 -1.049029e-04 1.396894e-04 -1.328332e-05 1.211562e-04 7.803064e-06 6.269995e-05 1.110400e-04 5.899485e-05 2.252615e-04 1.811602e-05 2.999110e-04 -6.388084e-05 3.331059e-04 -2.033535e-04 2.772926e-04 -3.217937e-04 2.650198e-04 -3.591233e-04 2.281382e-04 -3.844025e-04 1.561176e-04 -3.110310e-04 1.024985e-04 -2.227672e-04 -3.498243e-05 -1.405844e-04 -1.808007e-04 2.101830e-05 -2.894766e-04 1.803021e-04 -4.232489e-04 3.228123e-04 -4.843055e-04 5.075538e-04 -4.039446e-04 7.557798e-04 -1.675999e-04 9.944606e-04 1.795578e-04 1.217282e-03 8.117412e-04 1.738806e-03 2.059373e-03 2.780678e-03 4.093096e-03 5.457198e-03 9.728286e-03 7.007439e-03 6.603863e-03 3.806857e-03 2.065168e-03 
-7.270764e-04 -3.497947e-03 -7.314631e-03 -1.085218e-02 -1.654889e-02 -2.206713e-02 -1.237354e-02 -2.436368e-03 -3.801250e-03 -4.995141e-03 -4.287205e-03 -1.081962e-02 -6.311547e-03 -6.867417e-05 2.009096e-04 -3.882662e-04 2.950818e-04 -2.280204e-04 2.517407e-04 -1.479614e-05 6.378545e-06 6.486206e-03 8.008660e-03 3.951025e-03 3.702641e-03 1.349589e-03 1.567731e-03 2.738369e-04 7.409787e-04 9.561201e-05 4.422595e-04 1.006894e-04 2.145403e-04 8.159113e-05 -2.821288e-05 2.164562e-04 6.143387e-05 4.175159e-04 -4.247414e-05 3.850275e-04 -1.546150e-04 3.675069e-04 -1.875456e-04 4.075449e-04 -1.503022e-04 3.490432e-04 -2.387310e-04 2.643562e-04 -1.306032e-04 4.817801e-04 2.461377e-04 6.404615e-04 1.811842e-04 3.500403e-04 6.272675e-05 3.628788e-04 3.004018e-04 5.953265e-04 4.490647e-04 3.494886e-04 4.171332e-04 4.275741e-04 3.824098e-04 2.440992e-04 2.955220e-04 2.758542e-04 5.026150e-04 1.041249e-04 1.267958e-04 -4.594205e-04 -2.336803e-05 -2.861340e-04 1.108640e-04 -2.314197e-04 4.744484e-05 -3.837030e-04 7.892017e-05 -8.240342e-05 3.084510e-04 -1.321612e-05 7.401484e-05 -1.464156e-04 2.740751e-05 1.708770e-04 1.631057e-04 3.388490e-04 1.666581e-05 3.736143e-04 -9.871139e-05 4.336359e-04 -3.433659e-04 2.713622e-04 -5.630990e-04 2.975303e-04 -5.454506e-04 3.056146e-04 -5.704803e-04 2.184797e-04 -4.511509e-04 1.725358e-04 -3.453382e-04 -9.866281e-06 -2.240766e-04 -1.819760e-04 -1.142672e-05 -3.493150e-04 1.822497e-04 -5.252517e-04 3.781379e-04 -6.630579e-04 4.909175e-04 -6.768681e-04 8.166995e-04 -2.491945e-04 1.184122e-03 4.769292e-05 1.062939e-03 3.982145e-04 1.419563e-03 1.561840e-03 2.605545e-03 1.716417e-03 1.367265e-02 2.480167e-02 1.367921e-02 1.151530e-02 5.830663e-03 3.554344e-03 
-1.348814e-03 -8.413713e-03 -1.593490e-02 -2.768435e-02 -4.093653e-02 -2.485726e-02 -7.317912e-03 -4.570734e-04 6.288768e-04 -3.386899e-03 -8.631325e-05 -5.409367e-03 -1.599210e-03 -7.526205e-05 1.863625e-04 -3.320663e-04 2.838177e-04 -1.292401e-04 2.605102e-04 1.341026e-06 -1.695743e-04 2.427467e-03 3.405492e-03 1.248684e-03 1.853464e-03 -4.777039e-04 4.052095e-04 -1.086353e-03 1.059100e-04 -4.631905e-04 4.580590e-04 -3.254380e-05 1.834047e-04 -6.188754e-05 -1.298148e-04 5.373058e-04 4.347243e-04 8.529763e-04 -2.042979e-04 2.707491e-04 -4.675752e-04 6.756585e-04 -2.643409e-05 6.992288e-04 -3.769874e-04 1.548370e-04 -7.616180e-04 5.371056e-05 -2.256406e-04 7.985050e-04 5.804564e-04 9.805583e-04 1.226365e-04 1.448422e-05 -3.618022e-04 1.088903e-04 7.226793e-05 2.972312e-04 1.052464e-04 6.686745e-05 2.993767e-04 3.163171e-04 1.920399e-04 -1.629459e-04 1.343102e-04 2.756094e-04 7.932830e-04 4.007089e-04 4.093718e-04 -5.106603e-04 1.183136e-04 -1.551927e-04 5.302013e-04 2.375689e-05 3.831025e-04 -7.229714e-04 -1.452019e-04 -3.595046e-04 5.245311e-04 2.736851e-04 4.812468e-04 -2.117441e-04 -9.914984e-05 1.234007e-04 1.362554e-04 5.412918e-04 1.215722e-04 7.114266e-04 -2.739483e-05 9.162788e-04 -6.072938e-04 3.310936e-04 -1.035127e-03 5.616412e-04 -8.549360e-04 5.280517e-04 -1.201730e-03 2.221089e-04 -6.669288e-04 5.580316e-04 -3.541290e-04 9.525587e-07 -5.054511e-04 -4.713241e-04 1.835217e-04 -4.136412e-04 5.768832e-04 -1.115367e-03 5.832314e-04 -1.543334e-03 8.966284e-04 -1.429983e-03 1.605171e-03 -9.631937e-04 1.911580e-03 -1.083705e-03 1.026524e-03 -1.364785e-03 7.056826e-04 -6.496693e-04 7.830886e-04 -4.568463e-04 9.684679e-03 4.885806e-02 3.717543e-02 2.104447e-02 1.222002e-02 4.691560e-03 
-1.976904e-03 -8.227889e-03 -1.595234e-02 -2.497380e-02 -3.582262e-02 9.301343e-03 8.765244e-03 -3.156688e-03 6.571761e-03 -1.438365e-03 6.258691e-03 1.924992e-03 5.252982e-03 -6.150010e-03 6.459910e-04 -2.351619e-03 8.015471e-04 -6.597917e-04 9.594450e-04 2.907232e-04 2.569923e-03 -3.872515e-03 -4.310372e-03 -2.153408e-03 -1.600517e-03 -1.474639e-03 -1.376009e-03 -1.398091e-03 -1.241748e-03 -6.205840e-04 -4.948312e-04 -6.367963e-05 -5.887794e-04 4.807762e-05 -4.908499e-04 9.255251e-04 2.529655e-04 1.024920e-03 -6.305389e-04 1.007021e-04 -8.174644e-04 8.500372e-04 6.453925e-05 6.986859e-04 -6.841671e-04 -2.284525e-04 -1.054690e-03 -1.621299e-04 -1.620148e-04 6.755881e-04 4.930808e-04 6.529874e-04 1.023259e-04 -1.546214e-04 -1.982559e-04 8.208576e-05 1.296529e-04 -1.385123e-04 -8.220040e-05 5.949405e-05 4.232635e-04 3.740782e-04 2.996609e-04 -1.947489e-04 1.543890e-04 1.099638e-04 6.039765e-04 3.248574e-04 5.393048e-04 -3.352147e-04 8.276249e-05 -3.176049e-04 4.168114e-04 -2.680151e-05 4.621320e-04 -8.340990e-04 -5.533665e-04 -9.732590e-04 -7.557787e-06 1.365930e-04 6.086430e-04 -1.350641e-04 -3.528056e-04 -2.222118e-04 -3.894165e-04 3.434142e-04 -3.839821e-05 8.248159e-04 -1.061627e-04 1.161725e-03 -6.473975e-04 6.117898e-04 -9.658690e-04 8.980034e-04 -7.946567e-04 7.156081e-04 -1.293879e-03 2.665148e-04 -4.940503e-04 7.658169e-04 3.448587e-05 -4.256439e-05 -2.610138e-04 -7.935214e-04 7.475236e-04 -6.027255e-04 1.292831e-03 -1.702284e-03 1.099488e-03 -2.256316e-03 1.711117e-03 -1.880882e-03 2.378753e-03 -1.811808e-03 2.083405e-03 -1.927072e-03 1.090871e-03 -1.633723e-03 6.637584e-07 -6.993789e-04 -2.288007e-03 3.459836e-03 -1.416936e-02 3.430760e-02 3.722248e-02 1.551829e-02 1.085836e-02 2.289227e-03 
-9.323873e-04 -2.930819e-03 -5.798301e-03 -6.539537e-03 -8.778407e-03 2.025445e-02 9.315089e-03 -8.984492e-03 2.558560e-03 -7.889077e-03 8.315876e-04 -1.070482e-02 1.333758e-03 7.833445e-03 5.506858e-03 1.338459e-03 1.415243e-03 -9.556526e-04 -2.550039e-03 -4.153264e-03 -9.565901e-03 1.399197e-03 4.679406e-03 2.646773e-03 2.649363e-03 1.340664e-03 1.308389e-03 5.847564e-04 3.626747e-04 3.055586e-04 1.180860e-04 3.132350e-04 -1.232463e-04 3.971999e-04 -1.329981e-05 7.671723e-04 1.209718e-04 6.387184e-04 -3.074408e-04 2.206518e-04 -3.506047e-04 5.841302e-04 9.063315e-05 4.116026e-04 -3.376626e-04 -4.248336e-05 -3.565980e-04 1.304866e-04 1.723795e-04 4.467316e-04 3.326670e-04 3.983011e-04 4.263239e-04 4.034681e-04 5.214136e-04 4.534831e-04 3.672112e-04 -1.288242e-04 -1.643281e-04 -1.770108e-04 -1.525667e-04 -3.050923e-04 -1.479811e-04 -2.708611e-04 -8.866095e-06 -1.775980e-04 7.184427e-05 7.504732e-05 5.420521e-04 2.675650e-04 4.324722e-04 5.183230e-05 4.630772e-04 2.507695e-04 6.304702e-04 3.129919e-06 -2.089309e-05 -5.105548e-04 -1.656978e-04 -6.577244e-05 2.897028e-04 3.365224e-06 -2.525361e-04 -2.909832e-04 -5.166889e-04 -4.909074e-06 -2.210596e-04 4.047574e-04 -2.166844e-04 6.238438e-04 -3.571366e-04 5.726253e-04 -4.027026e-04 6.578693e-04 -4.174802e-04 4.920909e-04 -6.076974e-04 2.589328e-04 -2.214121e-04 3.799403e-04 1.160217e-04 -6.339436e-05 7.778799e-05 -5.388634e-04 6.315543e-04 -5.568263e-04 9.994830e-04 -1.160188e-03 9.920503e-04 -1.411382e-03 1.498970e-03 -1.106779e-03 1.787847e-03 -1.187271e-03 1.483588e-03 -8.307642e-04 1.413689e-03 3.384439e-04 9.515547e-04 1.848694e-03 -9.340656e-04 6.605578e-03 -1.899873e-02 -6.299395e-05 9.999913e-03 2.480441e-03 3.545423e-03 -4.804141e-05 
-6.802316e-04 -1.157891e-03 -2.865228e-03 -1.585071e-03 -2.974716e-03 6.138865e-03 1.102292e-03 -5.444697e-03 -2.974942e-03 -8.115245e-03 -8.816780e-03 -1.751806e-02 -2.288427e-02 -2.438099e-02 -1.124472e-02 -6.922269e-03 -2.677456e-03 2.656357e-03 6.570894e-03 1.148376e-02 2.415375e-02 2.373368e-02 1.505152e-02 9.984184e-03 6.002257e-03 4.189462e-03 2.464817e-03 1.750285e-03 8.436456e-04 7.148923e-04 2.555374e-04 4.149147e-04 4.533384e-05 3.488281e-04 2.921843e-05 4.041524e-04 2.857522e-05 3.644984e-04 -5.785971e-05 2.585550e-04 -8.290792e-05 3.158298e-04 2.975234e-05 2.478874e-04 -8.260912e-05 1.224156e-04 -3.573199e-05 2.139644e-04 1.794709e-04 3.577725e-04 3.152393e-04 4.733299e-04 5.189363e-04 6.445975e-04 6.314746e-04 7.204764e-04 7.662512e-04 1.022420e-03 5.514069e-04 -1.828981e-04 1.156634e-03 1.455930e-03 6.385573e-04 -3.792021e-04 -1.142343e-03 -1.423827e-04 4.945970e-04 -5.479206e-04 -1.238887e-03 -2.196893e-03 -1.097119e-03 -7.189570e-04 -5.099765e-04 6.276831e-05 5.445118e-04 5.266537e-04 6.093865e-04 3.058157e-04 3.591357e-04 2.132739e-04 2.902345e-04 1.295444e-04 1.756033e-05 -3.267406e-05 -1.602895e-04 4.185283e-05 -8.851284e-05 2.372334e-04 -5.503494e-05 3.662098e-04 -7.712886e-05 4.049351e-04 -1.036164e-04 4.006919e-04 -1.413227e-04 3.320868e-04 -1.750048e-04 2.313892e-04 -8.566760e-05 1.566368e-04 2.412504e-05 -3.654126e-05 7.817760e-05 -2.541300e-04 2.591476e-04 -3.903249e-04 4.091445e-04 -6.079152e-04 4.896383e-04 -7.097089e-04 6.652389e-04 -6.465983e-04 7.470125e-04 -6.105860e-04 6.404220e-04 -3.504036e-04 5.600204e-04 3.142730e-04 3.593819e-04 1.435048e-03 -1.864179e-04 4.012481e-03 -5.836043e-03 -8.211313e-04 2.050445e-03 1.412525e-03 1.473898e-03 2.812284e-04 
