# vtk DataFile Version 2.0
Comment goes here
ASCII

DATASET STRUCTURED_POINTS
FIELD FieldData 1
TIME 1 1 double
0.46000000
DIMENSIONS    128   16   1

ORIGIN    0.000   0.000   0.000
SPACING   0.0078125 0.015625   1.000

POINT_DATA   2048
SCALARS uY double
LOOKUP_TABLE default

1.812661e-05 1.866438e-05 1.720197e-05 1.684327e-05 1.691295e-05 1.474743e-05 1.510708e-05 6.391265e-06 -1.218494e-07 -9.399064e-06 -1.704273e-05 -2.451888e-05 -3.096022e-05 -3.690631e-05 -4.019232e-05 -4.537407e-05 -4.602458e-05 -5.223053e-05 -5.218800e-05 -5.601286e-05 -5.450594e-05 -5.334624e-05 -3.812484e-05 -2.286593e-05 3.458084e-06 2.180461e-05 3.668628e-05 4.965619e-05 5.494734e-05 7.102183e-05 6.217662e-05 7.116894e-05 3.996368e-05 4.956522e-05 1.403823e-05 4.268222e-05 1.342389e-05 5.731292e-05 2.808045e-05 7.355927e-05 4.455077e-05 9.060967e-05 7.645457e-05 1.281829e-04 1.486324e-04 2.209307e-04 3.016895e-04 4.026316e-04 5.374639e-04 6.381876e-04 8.008981e-04 8.771635e-04 1.055610e-03 1.069880e-03 1.263538e-03 1.188572e-03 1.201198e-03 2.735471e-04 8.774127e-04 2.958435e-04 3.519447e-04 1.303161e-03 -1.438358e-04 2.979622e-04 -5.081673e-04 2.079706e-04 8.453188e-04 -1.328321e-04 1.135483e-04 -8.416752e-04 -5.013946e-04 -2.865072e-05 -1.215210e-03 -1.659750e-03 -1.621767e-03 -1.310447e-03 -1.119075e-03 -8.812437e-04 -7.272417e-04 -6.000864e-04 -4.922032e-04 -4.351318e-04 -3.459678e-04 -3.184452e-04 -2.408849e-04 -2.294297e-04 -1.658705e-04 -1.585249e-04 -1.009785e-04 -8.776193e-05 -4.082424e-05 -3.372234e-05 -7.561407e-06 -7.861945e-06 4.208472e-06 -3.273090e-06 -5.395640e-06 -1.747997e-05 -1.527791e-05 -1.426765e-05 3.306478e-08 -2.270418e-06 2.570710e-06 -1.675514e-05 -1.693689e-05 -3.759040e-05 -2.873772e-05 -4.272279e-05 -2.936376e-05 -4.192381e-05 -3.113854e-05 -3.705322e-05 -2.426589e-05 -2.051438e-05 -1.468902e-05 -8.032702e-06 -5.338963e-06 1.765199e-05 2.539814e-05 5.056163e-05 4.139730e-05 5.075375e-05 3.211086e-05 3.627517e-05 2.487399e-05 2.743219e-05 2.049592e-05 2.189811e-05 
-1.128733e-03 -6.216518e-04 -3.031234e-03 -1.144519e-03 -4.978252e-03 3.627772e-03 4.613655e-03 -4.657718e-03 -1.225902e-03 -5.527882e-03 -5.165573e-03 -1.129819e-02 -1.558275e-02 -1.678229e-02 -6.576334e-03 -5.287049e-03 -2.153329e-03 1.807952e-03 3.729679e-03 7.850022e-03 1.679428e-02 1.614093e-02 9.537075e-03 6.067274e-03 3.573606e-03 2.627779e-03 1.390994e-03 1.240164e-03 4.383813e-04 6.691879e-04 2.476115e-05 4.319879e-04 -1.662882e-04 3.158182e-04 -2.461324e-04 2.553019e-04 -2.544870e-04 2.111028e-04 -2.277617e-04 1.610399e-04 -1.750103e-04 1.209404e-04 -8.433298e-05 1.016926e-04 3.577030e-05 1.217957e-04 2.137325e-04 2.368378e-04 4.726509e-04 4.556775e-04 8.058085e-04 8.299001e-04 1.335614e-03 1.660763e-03 2.746060e-03 3.861652e-03 2.054372e-03 -1.762385e-03 5.858419e-03 6.589520e-03 -1.969674e-03 -6.029457e-03 -4.876548e-03 6.571461e-03 7.152443e-03 -7.372610e-04 -6.880691e-03 -4.729237e-03 6.340665e-03 6.626360e-03 1.462544e-03 -1.334974e-03 -5.201348e-03 -6.604249e-03 -5.320482e-03 -3.587749e-03 -2.331273e-03 -1.697495e-03 -9.950663e-04 -8.925539e-04 -4.212465e-04 -5.265696e-04 -1.737351e-04 -3.203892e-04 -8.080397e-05 -1.794999e-04 -7.324075e-05 -5.393681e-05 -9.494275e-05 8.041793e-05 -1.338934e-04 1.901331e-04 -2.012581e-04 2.642558e-04 -2.634545e-04 3.048985e-04 -3.123278e-04 2.946776e-04 -3.174129e-04 2.655076e-04 -2.438957e-04 1.945500e-04 -1.415807e-04 3.966361e-05 -1.851866e-05 -1.585131e-04 1.562832e-04 -3.601810e-04 3.632769e-04 -5.643194e-04 5.546854e-04 -7.449900e-04 7.197263e-04 -8.356729e-04 8.229632e-04 -7.891435e-04 8.002686e-04 -4.560100e-04 6.178176e-04 4.938605e-04 1.904959e-04 3.234318e-03 -3.595261e-03 2.129976e-03 1.316070e-03 1.263812e-03 4.225189e-04 2.607285e-04 
-2.119204e-03 -1.891816e-03 -5.915276e-03 -4.133450e-03 -1.377286e-02 1.227916e-02 1.680730e-02 -9.797132e-03 2.631174e-03 -7.981967e-03 5.001312e-04 -1.070994e-02 -4.241383e-04 6.001715e-03 2.646855e-03 1.638056e-03 3.119579e-04 1.759485e-04 -2.747476e-03 -1.331384e-03 -8.070863e-03 3.377689e-03 5.947143e-03 2.191165e-03 2.774711e-03 1.242909e-03 1.411533e-03 8.627433e-04 5.727962e-04 6.945643e-04 1.151718e-04 6.297033e-04 -1.740436e-04 5.407910e-04 -3.424007e-04 4.794209e-04 -3.666862e-04 4.211759e-04 -3.450981e-04 2.960857e-04 -2.967545e-04 2.018286e-04 -1.326291e-04 1.517751e-04 2.730871e-05 7.753501e-05 2.167933e-04 1.561974e-04 5.509566e-04 3.943453e-04 9.573330e-04 8.757525e-04 1.745270e-03 2.174746e-03 3.694448e-03 3.866364e-03 -1.100660e-03 -6.898132e-03 5.703040e-03 5.599496e-03 -2.765796e-03 -2.429038e-03 -4.585141e-03 6.030692e-03 5.867413e-03 -8.114622e-05 -3.331858e-03 -2.770191e-03 7.094338e-03 6.184347e-03 1.744456e-03 5.571320e-04 -3.637377e-03 -6.059329e-03 -5.636690e-03 -4.048622e-03 -2.677530e-03 -2.202320e-03 -1.241236e-03 -1.381349e-03 -6.041631e-04 -9.401172e-04 -2.749349e-04 -6.062065e-04 -1.369041e-04 -3.630170e-04 -1.655053e-04 -1.530399e-04 -2.299659e-04 1.198658e-04 -2.975744e-04 3.361439e-04 -4.557813e-04 4.757540e-04 -5.744008e-04 5.843324e-04 -6.708335e-04 5.620347e-04 -6.908825e-04 5.422987e-04 -4.961890e-04 4.526619e-04 -2.854663e-04 1.283995e-04 -6.736784e-05 -2.762445e-04 3.040943e-04 -6.473104e-04 7.646793e-04 -1.061290e-03 1.148535e-03 -1.476627e-03 1.520443e-03 -1.689704e-03 1.820940e-03 -1.731758e-03 1.873224e-03 -1.328656e-03 1.721376e-03 1.526021e-04 8.133388e-04 4.939246e-03 -1.307282e-02 7.519986e-03 6.076481e-03 1.966668e-04 7.514471e-04 -6.970135e-04 
-1.978659e-03 -4.021064e-03 -9.943459e-03 -1.325128e-02 -3.041540e-02 2.046836e-03 1.097696e-02 -3.630851e-03 5.319619e-03 -8.138084e-04 4.704074e-03 2.962961e-03 4.837985e-03 -4.832676e-03 1.294253e-03 -2.266591e-03 1.260965e-03 -1.452043e-03 1.821036e-03 -8.876105e-04 3.297612e-03 -3.835646e-03 -4.311713e-03 -2.219470e-03 -2.039685e-03 -8.173444e-04 -1.229179e-03 -2.588663e-04 -1.091104e-03 1.106146e-04 -9.703178e-04 4.338507e-04 -9.613178e-04 5.176625e-04 -1.003459e-03 5.778155e-04 -8.675093e-04 6.256755e-04 -7.577747e-04 4.323891e-04 -7.321116e-04 2.551267e-04 -4.901591e-04 1.510783e-04 -3.573573e-04 -1.762657e-04 -3.405642e-04 -3.686413e-04 -1.661045e-04 -5.157330e-04 -2.316253e-04 -8.510838e-04 -4.476089e-04 -1.273357e-03 -1.087182e-03 -2.180487e-03 5.214442e-04 1.981314e-03 -2.969964e-03 -4.325920e-03 1.617960e-03 5.195811e-03 2.106855e-03 -3.753927e-03 -6.370137e-03 6.184631e-04 4.819240e-03 1.913722e-03 -4.635897e-03 -6.579505e-03 -1.825440e-03 3.365333e-04 1.973367e-03 3.566280e-03 3.050119e-03 1.844541e-03 1.779790e-03 7.069041e-04 1.169674e-03 4.154691e-05 7.422270e-04 -2.569247e-04 5.531594e-04 -2.065086e-04 4.323096e-04 -7.070602e-05 1.660369e-04 7.192575e-05 -8.577489e-05 4.188902e-04 -2.474925e-04 7.019788e-04 -5.914348e-04 8.347773e-04 -8.577714e-04 9.603225e-04 -1.081771e-03 8.740669e-04 -1.179232e-03 8.803086e-04 -8.509058e-04 8.221209e-04 -5.627106e-04 3.126782e-04 -3.296224e-04 -2.955755e-04 2.268303e-04 -7.518355e-04 9.690640e-04 -1.329237e-03 1.505301e-03 -1.996846e-03 2.070305e-03 -2.355669e-03 2.555994e-03 -2.689331e-03 2.603467e-03 -2.677874e-03 2.404154e-03 -1.898332e-03 5.585487e-04 7.290470e-04 -1.171776e-02 3.593093e-02 2.248378e-02 5.402100e-03 4.807916e-03 4.985870e-04 
-1.260268e-03 -5.176655e-03 -7.588529e-03 -1.431299e-02 -2.248561e-02 -2.098367e-02 -1.321312e-02 6.342982e-04 -9.949262e-05 -2.756420e-03 2.849988e-04 -4.939054e-03 -1.247808e-03 -3.906531e-04 2.937701e-04 -5.997669e-04 4.494791e-04 -5.283623e-04 4.646325e-04 -2.735678e-04 2.559957e-04 1.449512e-03 3.378101e-03 4.652847e-04 1.926447e-03 1.956955e-04 1.123652e-03 1.077013e-04 4.483577e-04 1.911392e-04 7.473050e-05 3.965955e-04 -2.023647e-04 4.809649e-04 -4.312784e-04 5.605868e-04 -4.579515e-04 6.432679e-04 -4.626624e-04 5.232787e-04 -5.250055e-04 3.914294e-04 -4.065307e-04 3.227515e-04 -3.424446e-04 8.303122e-05 -3.617574e-04 -6.214780e-05 -2.290403e-04 -1.277541e-04 -2.158821e-04 -2.741819e-04 -2.419355e-04 -2.506178e-04 -7.071139e-05 3.713301e-04 4.095703e-04 5.516435e-04 1.939957e-03 3.418455e-03 -1.152852e-03 -5.577775e-03 -2.158183e-03 2.974297e-03 4.977055e-03 -1.939706e-04 -4.813877e-03 -1.311162e-03 3.498972e-03 5.440908e-03 1.717338e-03 -1.100500e-03 -1.113217e-03 -2.469277e-03 -1.326881e-03 -1.546450e-03 -5.662936e-04 -1.010239e-03 -1.395430e-04 -8.035402e-04 2.685436e-05 -6.523717e-04 1.413412e-04 -4.027562e-04 2.070821e-04 -1.516017e-04 1.021546e-04 3.880505e-05 -6.143720e-05 3.309236e-04 -1.839692e-04 5.681564e-04 -4.526668e-04 6.681684e-04 -6.959654e-04 7.458831e-04 -8.985917e-04 6.932496e-04 -9.965191e-04 7.075504e-04 -7.958192e-04 6.809161e-04 -6.108295e-04 3.493890e-04 -4.532167e-04 -4.317761e-05 -4.860427e-05 -3.130291e-04 5.044052e-04 -6.736312e-04 9.145699e-04 -1.111477e-03 1.349674e-03 -1.360670e-03 1.718726e-03 -1.641620e-03 1.795863e-03 -1.745218e-03 1.823769e-03 -1.514666e-03 1.419587e-03 -1.192646e-03 8.434481e-03 4.251287e-02 2.189856e-02 8.429139e-03 5.138912e-03 9.889380e-04 
-5.876121e-04 -2.144908e-03 -3.016559e-03 -5.306048e-03 -5.624099e-03 -1.505008e-02 -1.396332e-02 -2.254747e-04 -3.664289e-03 -4.576445e-03 -3.262502e-03 -9.691755e-03 -4.804971e-03 -2.690276e-04 3.283598e-04 -5.961123e-04 4.832420e-04 -5.416365e-04 4.874490e-04 -2.946922e-04 1.912014e-04 6.300661e-03 7.782905e-03 2.633826e-03 3.185870e-03 1.014401e-03 1.427351e-03 4.643835e-04 5.418087e-04 2.940307e-04 9.040004e-05 2.994885e-04 -1.498725e-04 3.395913e-04 -2.829163e-04 3.874253e-04 -3.143627e-04 4.327000e-04 -2.974232e-04 4.262705e-04 -2.630344e-04 4.098448e-04 -1.612604e-04 4.306241e-04 -1.277086e-05 4.785493e-04 1.953499e-04 6.484885e-04 5.697985e-04 1.054832e-03 1.193831e-03 1.873339e-03 2.382680e-03 3.807961e-03 5.180966e-03 6.128974e-03 -2.260530e-03 -8.609347e-03 4.387733e-03 5.621782e-03 -1.593913e-03 7.505755e-04 -1.164639e-03 2.552902e-03 4.795222e-03 -1.144758e-04 -1.135020e-03 -5.050752e-04 3.243303e-03 3.683019e-03 -4.809434e-04 -3.400359e-04 -3.067043e-03 -8.273240e-03 -6.805763e-03 -5.287652e-03 -3.357979e-03 -2.754899e-03 -1.624794e-03 -1.554911e-03 -7.734232e-04 -9.215959e-04 -3.465108e-04 -5.252810e-04 -1.352130e-04 -2.380291e-04 -7.269851e-05 -2.914728e-05 -1.056099e-04 1.493262e-04 -1.760522e-04 2.914680e-04 -2.906361e-04 3.701426e-04 -4.157783e-04 4.047426e-04 -5.086443e-04 4.015077e-04 -5.391054e-04 3.777492e-04 -4.836903e-04 3.131752e-04 -3.832000e-04 1.732749e-04 -2.445289e-04 1.592375e-06 -2.850564e-05 -1.537588e-04 2.367070e-04 -3.141332e-04 4.813152e-04 -4.556675e-04 7.061068e-04 -5.082366e-04 8.757561e-04 -4.358254e-04 9.825753e-04 -6.639068e-05 1.202033e-03 9.019562e-04 2.087714e-03 2.390178e-03 1.084909e-02 1.684858e-02 6.132924e-03 5.551242e-03 2.279368e-03 1.491120e-03 
-6.468581e-04 -2.012624e-03 -3.013038e-03 -4.280322e-03 -4.744541e-03 -5.921831e-03 -6.081313e-03 -4.789864e-03 -4.769323e-03 -6.939068e-03 -5.685135e-03 -1.182035e-02 -1.033899e-02 -1.970871e-04 5.269373e-05 -1.960193e-04 1.363914e-04 -1.538274e-04 1.739404e-04 -5.376491e-05 1.998802e-04 1.143982e-02 1.177141e-02 4.337835e-03 4.972723e-03 1.821692e-03 2.530344e-03 9.187906e-04 1.295471e-03 5.474898e-04 6.350744e-04 4.134400e-04 2.635506e-04 3.693344e-04 5.336705e-05 3.650958e-04 -4.345377e-05 3.749897e-04 -7.162854e-05 3.754055e-04 -5.114957e-05 3.869554e-04 3.416637e-05 4.345028e-04 1.785543e-04 5.318442e-04 4.016294e-04 7.385880e-04 7.560405e-04 1.114710e-03 1.292259e-03 1.768362e-03 2.202492e-03 3.102603e-03 4.155480e-03 5.090586e-03 2.101794e-03 -2.278386e-03 -5.202883e-04 7.601296e-05 1.901980e-03 6.542389e-03 2.536585e-03 -2.614408e-03 -2.714430e-03 1.053506e-03 4.534233e-03 1.156154e-03 -3.850818e-03 -4.834358e-03 -2.874516e-03 -1.483334e-03 -2.540651e-03 -4.037174e-03 -3.273938e-03 -2.849750e-03 -1.939823e-03 -1.824588e-03 -1.153673e-03 -1.208076e-03 -6.718034e-04 -7.930058e-04 -3.727923e-04 -4.865582e-04 -2.012452e-04 -2.527044e-04 -1.315968e-04 -7.219928e-05 -1.288403e-04 7.863500e-05 -1.645964e-04 1.920176e-04 -2.348867e-04 2.597221e-04 -3.116350e-04 2.912379e-04 -3.706672e-04 2.875284e-04 -3.876023e-04 2.640690e-04 -3.432280e-04 2.088567e-04 -2.623661e-04 1.019086e-04 -1.488014e-04 -2.902952e-05 1.679849e-05 -1.549788e-04 2.170527e-04 -2.784649e-04 4.138635e-04 -3.786889e-04 6.052450e-04 -4.006510e-04 7.869243e-04 -2.844513e-04 9.869520e-04 1.382275e-04 1.356802e-03 1.193430e-03 2.183453e-03 3.281283e-03 3.896637e-03 7.136024e-03 3.957609e-03 3.831720e-03 1.850414e-03 8.253363e-04 
-2.075269e-04 -6.891399e-04 -1.074797e-03 -1.772086e-03 -1.898700e-03 -2.808227e-03 -2.922969e-03 -2.371247e-03 -2.558510e-03 -3.393899e-03 -2.769675e-03 -5.772104e-03 -4.892083e-03 -9.582987e-05 5.446013e-05 -1.292688e-04 1.051674e-04 -1.159331e-04 1.148923e-04 -5.316318e-05 9.996759e-05 5.838412e-03 5.955815e-03 2.091428e-03 2.359969e-03 8.176428e-04 1.104340e-03 3.823440e-04 5.109405e-04 2.225722e-04 2.228957e-04 1.795544e-04 8.216107e-05 1.827113e-04 2.030884e-05 2.068131e-04 1.070535e-05 2.428812e-04 3.830407e-05 2.873686e-04 9.873250e-05 3.508392e-04 2.014601e-04 4.517537e-04 3.576334e-04 6.086752e-04 5.814862e-04 8.426194e-04 8.834187e-04 1.157882e-03 1.248797e-03 1.528158e-03 1.634259e-03 1.889249e-03 1.975254e-03 2.032650e-03 1.355711e-03 -8.067962e-05 7.619852e-04 9.475401e-04 2.268965e-04 6.488962e-04 3.714711e-04 9.740863e-04 1.066444e-03 5.481781e-04 3.961972e-04 1.385475e-04 4.381761e-04 1.148395e-04 -7.133461e-04 -1.314297e-03 -2.148514e-03 -2.896946e-03 -2.694131e-03 -2.678965e-03 -2.218385e-03 -2.081130e-03 -1.622337e-03 -1.491015e-03 -1.100727e-03 -1.007823e-03 -7.081880e-04 -6.436050e-04 -4.413486e-04 -3.808366e-04 -2.780396e-04 -1.961331e-04 -1.901696e-04 -6.700115e-05 -1.526455e-04 1.879845e-05 -1.495616e-04 6.764081e-05 -1.645609e-04 8.824506e-05 -1.812184e-04 8.873079e-05 -1.859419e-04 7.622196e-05 -1.707139e-04 5.189309e-05 -1.370239e-04 1.534795e-05 -8.550653e-05 -2.575921e-05 -1.438226e-05 -6.241687e-05 7.015684e-05 -9.083376e-05 1.567726e-04 -1.020165e-04 2.413374e-04 -7.694830e-05 3.277768e-04 1.556172e-05 4.463290e-04 2.403080e-04 6.817937e-04 6.987043e-04 1.177545e-03 1.480824e-03 1.988223e-03 2.646970e-03 1.521198e-03 1.656662e-03 6.938674e-04 4.816007e-04 
-9.116909e-06 -1.001871e-05 -1.123062e-05 -1.179359e-05 -1.290828e-05 -1.319658e-05 -1.416372e-05 -1.395365e-05 -1.394211e-05 -1.403788e-05 -1.277503e-05 -1.396595e-05 -1.183998e-05 -1.036780e-06 -1.079059e-06 -9.217454e-07 -9.060598e-08 6.372491e-07 2.567496e-06 3.955877e-06 6.959043e-06 -5.205428e-05 -3.741427e-05 -3.633181e-05 -2.478256e-05 -2.082746e-05 -9.943380e-06 -3.183882e-06 6.400857e-06 1.682707e-05 2.387518e-05 3.681629e-05 4.025427e-05 5.718798e-05 6.047238e-05 8.514167e-05 9.157280e-05 1.244911e-04 1.346121e-04 1.749845e-04 1.913307e-04 2.426322e-04 2.726309e-04 3.423422e-04 3.957775e-04 4.929458e-04 5.784997e-04 7.080403e-04 8.250656e-04 9.805060e-04 1.116703e-03 1.280268e-03 1.409280e-03 1.533118e-03 1.586730e-03 1.526213e-03 1.272175e-03 7.385706e-04 8.040657e-04 7.886484e-04 8.038587e-04 1.091353e-03 6.378423e-04 2.831764e-04 1.158401e-04 1.215074e-04 1.383478e-04 -3.522538e-04 -8.880017e-04 -1.222366e-03 -1.363388e-03 -1.440611e-03 -1.618718e-03 -1.739884e-03 -1.668357e-03 -1.580406e-03 -1.401319e-03 -1.251160e-03 -1.059935e-03 -9.077296e-04 -7.419639e-04 -6.131304e-04 -4.852286e-04 -3.865572e-04 -2.970816e-04 -2.261712e-04 -1.696985e-04 -1.195275e-04 -8.756856e-05 -5.155593e-05 -3.830628e-05 -1.484903e-05 -1.666905e-05 -4.217667e-06 -1.523343e-05 -1.127777e-05 -2.545882e-05 -2.640154e-05 -3.648319e-05 -3.785296e-05 -4.053866e-05 -4.326216e-05 -4.106221e-05 -4.601275e-05 -3.907528e-05 -4.283211e-05 -3.029027e-05 -3.055214e-05 -1.504519e-05 -1.261493e-05 1.750901e-06 6.291987e-06 1.696244e-05 2.267563e-05 2.691902e-05 3.224106e-05 3.045996e-05 3.603291e-05 2.994882e-05 3.291303e-05 2.208811e-05 2.043055e-05 9.608806e-06 6.684866e-06 7.855570e-08 -2.266532e-06 -5.783996e-06 -7.287201e-06 
1.895532e-04 6.688418e-04 1.052683e-03 1.747964e-03 1.872613e-03 2.780606e-03 2.893881e-03 2.343695e-03 2.534763e-03 3.370765e-03 2.754435e-03 5.753645e-03 4.883111e-03 9.173414e-05 -5.834082e-05 1.240253e-04 -1.090144e-04 1.121242e-04 -1.152528e-04 5.504161e-05 -9.313861e-05 -5.925923e-03 -6.018500e-03 -2.152367e-03 -2.404047e-03 -8.560474e-04 -1.125221e-03 -3.911059e-04 -5.019006e-04 -1.923110e-04 -1.769176e-04 -1.060280e-04 1.716446e-06 -6.351209e-05 1.096193e-04 -2.687081e-05 1.864937e-04 1.990899e-05 2.480753e-04 7.832061e-05 3.004238e-04 1.490725e-04 3.553686e-04 2.429278e-04 4.343198e-04 3.754562e-04 5.546708e-04 5.488382e-04 7.110478e-04 7.395023e-04 8.746816e-04 9.075706e-04 1.002973e-03 9.952104e-04 1.029515e-03 9.207927e-04 8.715393e-04 6.238672e-04 6.402099e-04 5.541488e-04 4.374295e-04 4.611219e-04 3.489812e-04 3.913751e-04 3.108792e-04 2.133997e-04 1.061397e-04 -3.943895e-05 -1.715721e-04 -3.353913e-04 -6.134823e-04 -7.656780e-04 -1.055020e-03 -1.132468e-03 -1.277471e-03 -1.188497e-03 -1.233968e-03 -1.039883e-03 -1.045031e-03 -8.117919e-04 -8.091511e-04 -5.846435e-04 -5.805927e-04 -3.965588e-04 -3.836945e-04 -2.617537e-04 -2.259975e-04 -1.776245e-04 -1.024359e-04 -1.321231e-04 -8.473330e-06 -1.180983e-04 5.409413e-05 -1.281714e-04 8.727161e-05 -1.508524e-04 9.450779e-05 -1.729951e-04 8.504664e-05 -1.772538e-04 6.733166e-05 -1.587775e-04 3.749627e-05 -1.223568e-04 -4.581721e-06 -6.867565e-05 -5.210346e-05 -8.664331e-07 -1.000061e-04 6.943974e-05 -1.479694e-04 1.224889e-04 -1.993003e-04 1.313094e-04 -2.661772e-04 5.557528e-05 -3.811065e-04 -1.665005e-04 -6.228191e-04 -6.370871e-04 -1.139246e-03 -1.448467e-03 -1.975608e-03 -2.640944e-03 -1.524535e-03 -1.664623e-03 -7.063511e-04 -4.972363e-04 
6.285561e-04 1.992291e-03 2.991276e-03 4.256821e-03 4.717910e-03 5.893158e-03 6.046881e-03 4.758759e-03 4.737067e-03 6.909778e-03 5.659716e-03 1.179622e-02 1.031971e-02 1.904085e-04 -5.964787e-05 1.883485e-04 -1.432513e-04 1.480626e-04 -1.762140e-04 5.679544e-05 -1.905567e-04 -1.156726e-02 -1.187242e-02 -4.431626e-03 -5.032001e-03 -1.869358e-03 -2.554147e-03 -9.328934e-04 -1.285586e-03 -5.121362e-04 -5.812710e-04 -3.394879e-04 -1.962835e-04 -2.826844e-04 2.726522e-05 -2.363515e-04 1.837177e-04 -1.647635e-04 2.927644e-04 -8.668679e-05 3.429640e-04 -2.336353e-05 3.470809e-04 4.307551e-05 3.581483e-04 1.578702e-04 4.289842e-04 3.320090e-04 5.424405e-04 5.044982e-04 6.449943e-04 6.401160e-04 7.324325e-04 7.288686e-04 7.696037e-04 7.103180e-04 6.935924e-04 5.594102e-04 5.466457e-04 4.490488e-04 4.035662e-04 3.555245e-04 2.494664e-04 1.597911e-04 7.002743e-05 -2.211175e-05 -1.001613e-04 -2.428653e-04 -3.914332e-04 -4.701658e-04 -6.280489e-04 -5.599050e-04 -7.632848e-04 -5.997164e-04 -8.076641e-04 -5.287357e-04 -7.382643e-04 -3.822768e-04 -6.077492e-04 -2.359969e-04 -4.699816e-04 -1.251512e-04 -3.288798e-04 -5.035981e-05 -1.879793e-04 -2.340508e-05 -6.179565e-05 -4.158239e-05 6.141671e-05 -7.535148e-05 1.840328e-04 -1.285467e-04 2.737880e-04 -2.040533e-04 3.226266e-04 -2.856195e-04 3.197889e-04 -3.574463e-04 2.849734e-04 -3.652530e-04 2.470714e-04 -3.067697e-04 1.695555e-04 -2.182399e-04 4.298103e-05 -9.334562e-05 -1.033184e-04 7.135509e-05 -2.531070e-04 2.496205e-04 -4.038815e-04 4.012422e-04 -5.509163e-04 4.718751e-04 -7.100162e-04 3.678882e-04 -9.156887e-04 -4.581184e-05 -1.275428e-03 -1.097394e-03 -2.125944e-03 -3.237301e-03 -3.887505e-03 -7.137108e-03 -3.965438e-03 -3.844526e-03 -1.864989e-03 -8.429650e-04 
5.737735e-04 2.128352e-03 2.998776e-03 5.283870e-03 5.595718e-03 1.500881e-02 1.390047e-02 1.790063e-04 3.626289e-03 4.550996e-03 3.255621e-03 9.696700e-03 4.832548e-03 2.636498e-04 -3.450641e-04 5.805008e-04 -5.008997e-04 5.208158e-04 -5.033916e-04 2.767267e-04 -1.949178e-04 -6.397719e-03 -7.874695e-03 -2.734074e-03 -3.252099e-03 -1.076483e-03 -1.471122e-03 -5.073752e-04 -5.577515e-04 -2.775489e-04 -4.492132e-05 -2.318023e-04 2.055645e-04 -2.750269e-04 3.351369e-04 -2.865778e-04 4.354330e-04 -2.359033e-04 5.061079e-04 -1.664077e-04 5.036334e-04 -1.311183e-04 4.243577e-04 -1.108996e-04 3.464787e-04 -3.175620e-05 3.505771e-04 1.219817e-04 4.021991e-04 2.522531e-04 4.243442e-04 3.338272e-04 4.572696e-04 4.071920e-04 4.985971e-04 4.256620e-04 4.840800e-04 3.405217e-04 4.336224e-04 3.301638e-04 2.697960e-04 2.581980e-04 1.974894e-04 2.763673e-04 2.218301e-04 1.597575e-04 1.243162e-04 4.198296e-05 2.566654e-05 -3.191043e-05 -2.443984e-04 -1.586772e-04 -5.161076e-04 -3.303558e-04 -6.975700e-04 -3.398862e-04 -7.014479e-04 -2.314395e-04 -6.105701e-04 -1.176747e-04 -5.040701e-04 -3.828525e-05 -3.692465e-04 1.889561e-05 -2.120563e-04 2.245936e-05 -6.947785e-05 -3.090554e-05 8.252425e-05 -8.850411e-05 2.480797e-04 -1.697708e-04 3.672680e-04 -2.811117e-04 4.381161e-04 -3.974757e-04 4.344156e-04 -5.103124e-04 3.877188e-04 -5.250693e-04 3.529963e-04 -4.444687e-04 2.599885e-04 -3.322672e-04 9.677417e-05 -1.709603e-04 -9.029157e-05 4.783696e-05 -2.740499e-04 2.934812e-04 -4.504679e-04 5.079197e-04 -6.105242e-04 6.283926e-04 -7.554833e-04 5.552277e-04 -8.895587e-04 1.851201e-04 -1.101167e-03 -7.864368e-04 -2.039669e-03 -2.372965e-03 -1.087113e-02 -1.688251e-02 -6.150845e-03 -5.570256e-03 -2.292736e-03 -1.506882e-03 
1.247533e-03 5.163267e-03 7.577164e-03 1.429908e-02 2.246640e-02 2.094956e-02 1.315372e-02 -6.806810e-04 4.217458e-05 2.711186e-03 -3.122243e-04 4.938971e-03 1.252290e-03 3.699052e-04 -3.134493e-04 5.759625e-04 -4.797259e-04 4.890847e-04 -5.026676e-04 2.434050e-04 -2.560700e-04 -1.656583e-03 -3.635899e-03 -6.628095e-04 -1.965657e-03 -1.858982e-04 -1.130854e-03 -1.790925e-04 -4.686216e-04 -9.628067e-05 1.184162e-04 -2.097720e-04 2.625241e-04 -5.319306e-04 2.954029e-04 -6.174203e-04 4.830570e-04 -4.420595e-04 6.946755e-04 -2.516975e-04 6.854545e-04 -2.573029e-04 4.075070e-04 -3.964861e-04 9.851142e-05 -3.660930e-04 1.105551e-04 -2.284515e-05 2.508801e-04 1.078108e-04 7.830528e-05 -2.843649e-06 -1.579105e-05 6.238990e-05 7.665874e-05 1.205708e-04 1.363309e-04 1.080353e-04 2.548246e-04 2.117800e-04 2.382144e-04 1.487974e-04 1.990008e-04 1.970024e-04 3.215103e-04 2.154520e-04 2.898866e-04 1.181561e-04 1.298403e-04 8.761096e-05 -1.251446e-05 2.458268e-04 -1.048143e-04 1.832309e-04 -4.128910e-04 1.080914e-04 -4.720429e-04 3.106572e-04 -3.485845e-04 4.297613e-04 -3.314875e-04 4.076003e-04 -2.509821e-04 4.100655e-04 -7.351401e-05 3.122200e-04 2.292393e-05 6.278233e-05 1.901289e-04 -5.180288e-05 5.256944e-04 -1.779175e-04 7.263533e-04 -4.011723e-04 8.722070e-04 -6.180057e-04 8.035991e-04 -9.591116e-04 6.312917e-04 -9.685265e-04 7.030284e-04 -6.942288e-04 5.807719e-04 -5.316437e-04 1.961908e-04 -2.892853e-04 -1.840537e-04 1.458804e-04 -5.287030e-04 6.512746e-04 -8.983784e-04 1.144983e-03 -1.199669e-03 1.590762e-03 -1.519764e-03 1.741346e-03 -1.794652e-03 1.861939e-03 -1.599458e-03 1.854520e-03 -1.248678e-03 1.225320e-03 -8.541790e-03 -4.264484e-02 -2.195071e-02 -8.472921e-03 -5.161184e-03 -1.010500e-03 
1.982126e-03 4.027900e-03 9.955600e-03 1.326847e-02 3.043883e-02 -2.016615e-03 -1.093509e-02 3.645346e-03 -5.353204e-03 7.616873e-04 -4.772458e-03 -3.020853e-03 -4.926885e-03 4.753426e-03 -1.332496e-03 2.248644e-03 -1.274048e-03 1.411600e-03 -1.867965e-03 7.761899e-04 -3.443383e-03 3.493822e-03 3.940674e-03 1.990535e-03 2.068121e-03 9.511906e-04 1.346201e-03 2.965244e-04 1.186678e-03 1.388686e-04 1.321734e-03 -1.189323e-04 1.053495e-03 -5.983106e-04 7.659607e-04 -7.149105e-04 7.936938e-04 -4.613350e-04 9.194402e-04 -1.952675e-04 7.973997e-04 -1.877102e-04 3.680353e-04 -3.592297e-04 -8.090921e-05 -3.187261e-04 -7.809226e-05 1.430701e-04 1.104962e-04 2.917557e-04 -1.443605e-04 8.368970e-05 -2.943475e-04 1.139904e-04 -1.825128e-04 1.375668e-04 -8.776926e-05 1.533031e-04 8.055372e-05 1.254499e-04 2.181211e-04 2.003241e-07 2.396340e-04 -6.385975e-05 2.934652e-04 6.904446e-05 3.095420e-04 4.859272e-05 4.305808e-05 -3.704317e-05 3.869571e-05 2.629166e-04 1.361814e-04 3.449034e-04 -2.253248e-04 2.035615e-04 -3.797597e-04 4.099546e-04 -2.938854e-04 5.155513e-04 -3.444078e-04 4.403843e-04 -3.076185e-04 4.060208e-04 -1.297569e-04 2.595490e-04 -4.051666e-05 -7.106957e-05 1.588979e-04 -1.973980e-04 6.104423e-04 -3.126621e-04 8.944458e-04 -5.491212e-04 1.108124e-03 -7.674925e-04 1.030709e-03 -1.155192e-03 7.989492e-04 -1.095552e-03 8.916512e-04 -6.525650e-04 6.987249e-04 -3.887360e-04 1.177460e-04 -3.275592e-05 -4.599252e-04 5.794260e-04 -9.995855e-04 1.254877e-03 -1.578608e-03 1.908230e-03 -2.019715e-03 2.501686e-03 -2.445920e-03 2.659437e-03 -2.739413e-03 2.723591e-03 -2.144728e-03 2.360939e-03 -2.633746e-04 -5.876435e-04 1.165461e-02 -3.602104e-02 -2.251001e-02 -5.420114e-03 -4.814112e-03 -5.019154e-04 
2.141353e-03 1.916925e-03 5.942309e-03 4.165224e-03 1.381245e-02 -1.222645e-02 -1.672746e-02 9.838381e-03 -2.626824e-03 7.956332e-03 -5.512834e-04 1.064511e-02 3.405710e-04 -6.093212e-03 -2.740098e-03 -1.733978e-03 -4.040660e-04 -2.909176e-04 2.625920e-03 1.193804e-03 7.894481e-03 -3.594617e-03 -6.124357e-03 -2.289216e-03 -2.729386e-03 -1.128245e-03 -1.275457e-03 -7.360051e-04 -4.180493e-04 -4.678579e-04 1.264526e-04 -4.013623e-04 2.678051e-04 -5.016047e-04 2.689181e-04 -4.795556e-04 3.348921e-04 -3.086749e-04 4.020835e-04 -1.401263e-04 3.430518e-04 -7.761582e-05 1.569939e-04 -8.271389e-05 -2.795738e-05 3.565971e-06 -9.252548e-06 2.670814e-04 1.077064e-04 3.980719e-04 5.241518e-05 3.520385e-04 2.007973e-05 3.492881e-04 6.182278e-05 2.933538e-04 7.453244e-05 2.249741e-04 8.907382e-05 9.865239e-05 1.936994e-04 1.393851e-04 2.073678e-04 -7.073644e-05 8.442921e-05 -3.258919e-05 2.003760e-04 -5.153961e-05 -7.963318e-05 -2.365489e-04 -1.154590e-04 -3.281901e-06 -1.670370e-05 9.562766e-05 -1.629961e-04 6.557691e-05 -2.569835e-04 1.525945e-04 -2.544556e-04 1.917006e-04 -2.886005e-04 1.499580e-04 -2.724816e-04 1.099635e-04 -1.789797e-04 2.272145e-05 -8.916741e-05 -1.358097e-04 6.495944e-05 -2.162633e-04 3.303746e-04 -2.865605e-04 5.283179e-04 -4.059018e-04 6.676210e-04 -5.169881e-04 6.597058e-04 -6.682105e-04 5.584758e-04 -6.070296e-04 5.466476e-04 -3.522090e-04 3.779082e-04 -1.376724e-04 1.611142e-06 1.371993e-04 -4.069833e-04 5.374330e-04 -8.193460e-04 9.602699e-04 -1.246195e-03 1.354841e-03 -1.579950e-03 1.665593e-03 -1.846425e-03 1.668075e-03 -1.961043e-03 1.345598e-03 -1.599450e-03 9.085347e-05 -6.203081e-04 -4.775833e-03 1.312587e-02 -7.474578e-03 -6.044222e-03 -1.636351e-04 -7.285165e-04 7.218768e-04 
1.157311e-03 6.517737e-04 3.058957e-03 1.173213e-03 5.007544e-03 -3.596721e-03 -4.575931e-03 4.673821e-03 1.222205e-03 5.505179e-03 5.122551e-03 1.124222e-02 1.551299e-02 1.670464e-02 6.501268e-03 5.195238e-03 2.072322e-03 -1.910526e-03 -3.835304e-03 -7.957237e-03 -1.691652e-02 -1.626971e-02 -9.623338e-03 -6.125452e-03 -3.565667e-03 -2.582545e-03 -1.310654e-03 -1.137499e-03 -3.208235e-04 -5.201228e-04 1.073483e-04 -2.905825e-04 2.358926e-04 -2.376430e-04 2.462889e-04 -2.005915e-04 2.468151e-04 -1.315222e-04 2.408077e-04 -6.278620e-05 1.994973e-04 -1.804436e-05 1.347923e-04 2.632904e-05 1.028124e-04 1.307276e-04 1.748088e-04 3.275483e-04 3.366778e-04 5.470663e-04 5.217737e-04 7.584629e-04 7.461280e-04 9.729710e-04 9.797532e-04 1.075990e-03 9.964961e-04 6.285267e-04 9.227314e-04 7.196688e-04 8.716329e-06 -1.842105e-04 -3.775887e-04 3.014949e-04 2.389025e-04 -2.289089e-04 -4.295460e-04 -5.420727e-04 2.268665e-04 7.321550e-05 -2.171381e-04 -5.071079e-04 -1.035083e-03 -1.135835e-03 -1.229687e-03 -9.109273e-04 -9.179982e-04 -5.390465e-04 -6.149045e-04 -2.838741e-04 -4.252343e-04 -1.545516e-04 -2.965952e-04 -9.420540e-05 -1.842784e-04 -8.243749e-05 -8.119937e-05 -1.052504e-04 3.439515e-05 -1.252383e-04 1.683143e-04 -1.520049e-04 2.742649e-04 -2.008453e-04 3.355616e-04 -2.573436e-04 3.362143e-04 -3.062587e-04 2.986180e-04 -2.802553e-04 2.594493e-04 -1.809585e-04 1.611138e-04 -6.655342e-05 -1.446152e-05 7.823627e-05 -2.168969e-04 2.701293e-04 -4.226342e-04 4.764745e-04 -6.195745e-04 6.668264e-04 -7.681374e-04 7.971333e-04 -8.497922e-04 7.748755e-04 -8.104818e-04 4.998558e-04 -5.520022e-04 -3.685093e-04 -8.495391e-05 -3.111740e-03 3.667746e-03 -2.054680e-03 -1.270321e-03 -1.216465e-03 -3.893436e-04 -2.255134e-04 
