# vtk DataFile Version 2.0
Comment goes here
ASCII

DATASET STRUCTURED_POINTS
FIELD FieldData 1
TIME 1 1 double
0.37000000
DIMENSIONS    128   16   1

ORIGIN    0.000   0.000   0.000
SPACING   0.0078125 0.015625   1.000

POINT_DATA   2048
SCALARS uY double
LOOKUP_TABLE default

-6.438996e-07 7.999545e-07 -2.038715e-06 -1.489623e-06 -3.466588e-06 -2.665090e-06 -3.739510e-06 -1.926406e-06 6.947405e-07 6.810645e-06 7.746352e-06 9.718487e-06 7.071297e-06 1.017128e-05 8.241024e-06 1.270085e-05 5.815511e-06 9.485442e-06 -1.996651e-06 5.714172e-06 -3.428463e-06 1.270363e-05 1.044223e-05 2.328689e-05 6.515157e-06 1.287888e-05 -4.815507e-06 1.682511e-05 3.297258e-06 3.609026e-05 2.503429e-05 6.382427e-05 4.567125e-05 7.048708e-05 3.468710e-05 4.920244e-05 2.138398e-05 3.331418e-05 1.277678e-05 1.171155e-05 6.263672e-06 6.429045e-06 3.702594e-05 4.478550e-05 1.054593e-04 1.085807e-04 1.885801e-04 1.860287e-04 2.928136e-04 2.960163e-04 4.181464e-04 3.993758e-04 4.783323e-04 4.120672e-04 4.486546e-04 4.105118e-04 1.600975e-04 -1.319776e-05 3.185101e-04 5.580316e-04 -1.805259e-04 -4.091510e-04 -2.428032e-04 -3.147802e-04 3.211700e-04 -3.472450e-04 -6.895460e-04 -9.724564e-05 -3.198515e-04 2.258554e-04 -3.414013e-04 -4.114718e-04 5.093934e-05 -3.107348e-04 -6.631803e-05 1.876776e-04 2.591069e-04 3.940159e-04 3.116147e-04 3.442806e-04 2.367067e-04 2.311595e-04 1.661006e-04 1.552496e-04 1.344039e-04 1.140446e-04 1.122210e-04 8.059102e-05 8.893535e-05 5.802503e-05 7.946835e-05 5.782259e-05 8.311871e-05 6.574360e-05 8.914697e-05 7.693276e-05 9.793095e-05 8.740178e-05 1.002983e-04 8.966284e-05 9.952712e-05 8.827508e-05 8.794625e-05 6.595315e-05 5.507813e-05 3.340657e-05 3.167169e-05 2.193006e-05 2.898213e-05 2.404813e-05 2.934699e-05 2.133986e-05 2.562172e-05 2.184366e-05 2.585130e-05 2.124159e-05 1.747272e-05 1.506431e-05 1.886232e-05 2.946915e-05 2.788841e-05 2.684064e-05 9.131459e-06 1.154165e-05 2.081038e-06 6.176130e-06 4.404873e-07 3.324673e-06 
-7.633016e-04 -1.122691e-03 -2.937210e-03 -1.527254e-03 -3.071873e-03 6.150891e-03 1.349440e-03 -5.561411e-03 -3.329566e-03 -8.631673e-03 -9.355479e-03 -1.801261e-02 -2.310981e-02 -2.445935e-02 -1.128340e-02 -7.072673e-03 -2.775797e-03 2.569736e-03 6.542470e-03 1.168406e-02 2.447328e-02 2.433532e-02 1.564130e-02 1.045309e-02 6.345814e-03 4.417301e-03 2.616547e-03 1.922604e-03 1.016179e-03 8.900729e-04 3.239470e-04 4.931059e-04 3.320317e-05 3.429390e-04 -1.303073e-04 2.435587e-04 -2.170368e-04 2.039145e-04 -2.216782e-04 1.812114e-04 -1.978252e-04 1.617769e-04 -1.225286e-04 1.776548e-04 -7.577997e-06 2.066929e-04 1.209465e-04 2.509944e-04 2.688747e-04 3.194737e-04 4.170786e-04 3.821010e-04 5.542345e-04 5.600691e-04 1.061664e-03 7.878071e-04 -1.700696e-03 -5.111960e-03 3.798218e-03 1.106708e-02 -7.964307e-03 -1.997934e-02 -8.389323e-03 8.856342e-03 1.777171e-02 -3.327220e-03 -1.862546e-02 -5.448416e-03 1.153694e-02 2.027408e-02 5.961194e-03 -5.983895e-03 -6.386816e-04 -1.427537e-03 -2.206534e-03 -1.147787e-03 -8.619487e-04 -3.568722e-04 -2.461288e-04 -7.647123e-05 -4.750563e-05 2.607485e-05 4.856260e-06 9.838617e-05 -9.834524e-06 1.382778e-04 -9.519147e-05 1.534067e-04 -1.755038e-04 2.079186e-04 -2.000289e-04 2.702471e-04 -2.147863e-04 2.895206e-04 -2.025348e-04 2.854962e-04 -1.425673e-04 2.432983e-04 -5.217806e-05 1.545968e-04 7.910956e-05 3.016159e-05 2.141687e-04 -1.659749e-04 3.227528e-04 -3.713881e-04 4.755540e-04 -5.015976e-04 6.331456e-04 -6.022134e-04 7.099442e-04 -6.588476e-04 7.140409e-04 -5.905233e-04 6.399084e-04 -3.689522e-04 4.245517e-04 1.128205e-04 1.086679e-04 1.250160e-03 -2.674957e-04 4.184689e-03 -4.533302e-03 -4.566709e-04 1.629335e-03 1.294211e-03 1.248184e-03 3.145621e-04 
-1.381092e-03 -3.203869e-03 -6.222768e-03 -6.608608e-03 -9.057730e-03 2.041794e-02 1.008755e-02 -8.974695e-03 2.077662e-03 -8.518540e-03 3.551702e-04 -1.073722e-02 1.727743e-03 8.077246e-03 5.725222e-03 1.460223e-03 1.550487e-03 -9.072271e-04 -2.496976e-03 -4.047420e-03 -9.492903e-03 1.909469e-03 5.018299e-03 2.542716e-03 2.537092e-03 1.200613e-03 1.245245e-03 6.556412e-04 5.286115e-04 4.338176e-04 1.360248e-04 4.508339e-04 -3.732212e-05 4.686006e-04 -2.922317e-04 3.431697e-04 -4.518877e-04 3.253164e-04 -4.459200e-04 2.988944e-04 -4.314006e-04 2.239382e-04 -3.516912e-04 1.804272e-04 -2.180233e-04 1.382639e-04 -1.169476e-04 1.078371e-05 -9.766288e-05 -1.565642e-04 -1.136187e-04 -3.379609e-04 -1.306412e-04 -3.737780e-04 5.005372e-05 -1.716297e-03 -4.632746e-03 -4.199159e-03 3.381154e-03 7.719254e-03 -2.714842e-03 -6.507808e-03 -1.549512e-03 2.327168e-03 9.781752e-03 -1.644768e-03 -7.964040e-03 2.911430e-04 3.182280e-03 8.798680e-03 -2.700188e-04 -6.512059e-03 3.424710e-03 1.612312e-03 -6.023120e-04 -2.711975e-04 -4.164306e-04 -1.890521e-04 -1.092153e-04 -6.682772e-05 7.437182e-06 3.428143e-05 4.894436e-05 1.911776e-04 6.784180e-06 2.482922e-04 -2.407041e-04 2.260558e-04 -4.405084e-04 3.506295e-04 -4.532626e-04 5.258729e-04 -4.813773e-04 5.373540e-04 -5.101163e-04 4.990570e-04 -3.968114e-04 4.356919e-04 -2.107108e-04 2.612560e-04 6.551793e-05 3.785596e-05 3.526919e-04 -3.694051e-04 5.461797e-04 -8.002461e-04 8.884032e-04 -1.021578e-03 1.275461e-03 -1.193190e-03 1.472488e-03 -1.347855e-03 1.495314e-03 -1.265325e-03 1.433177e-03 -8.735777e-04 1.111434e-03 -1.233758e-04 5.493243e-04 1.837958e-03 -5.667858e-04 7.386131e-03 -1.579532e-02 7.208172e-04 8.967225e-03 2.395794e-03 3.037842e-03 -1.505081e-04 
-1.795235e-03 -8.201965e-03 -1.628528e-02 -2.516295e-02 -3.621800e-02 9.235712e-03 8.711884e-03 -3.596068e-03 6.413675e-03 -1.532558e-03 6.508327e-03 2.191514e-03 5.525797e-03 -6.247847e-03 6.374594e-04 -2.333814e-03 6.829245e-04 -7.574258e-04 1.091495e-03 7.321629e-04 2.934156e-03 -3.504438e-03 -4.240597e-03 -2.657982e-03 -1.912906e-03 -1.375819e-03 -9.869265e-04 -8.266276e-04 -7.699554e-04 -5.035053e-04 -6.050356e-04 2.717679e-05 -4.333110e-04 2.674372e-04 -7.343078e-04 1.804244e-04 -8.854918e-04 3.011505e-04 -8.249584e-04 3.798555e-04 -7.708345e-04 3.559110e-04 -6.732043e-04 3.262839e-04 -4.495415e-04 3.948291e-04 -2.411502e-04 2.300468e-04 -2.642753e-04 8.897766e-06 -2.347491e-04 -1.003487e-04 -2.059770e-04 -1.851202e-04 -1.005413e-04 3.094274e-04 2.076388e-03 2.836039e-03 -1.793193e-03 -6.892092e-03 3.597627e-03 1.006141e-02 2.967268e-03 -4.046996e-03 -1.019298e-02 1.288208e-03 1.001338e-02 1.268376e-03 -4.695512e-03 -1.132905e-02 -1.930467e-03 3.820189e-03 -6.421773e-04 -1.725452e-04 8.672392e-04 6.852848e-05 3.272684e-04 -2.423069e-04 2.644296e-04 -9.684141e-05 2.550966e-04 6.070147e-05 2.257478e-04 3.165552e-04 9.674806e-05 3.602493e-04 -3.975076e-04 2.802322e-04 -7.671224e-04 4.788448e-04 -7.663762e-04 8.539741e-04 -7.759721e-04 8.748626e-04 -9.293334e-04 7.590515e-04 -7.886083e-04 7.487880e-04 -4.725906e-04 5.223514e-04 -8.458944e-05 1.857310e-04 3.092376e-04 -4.399702e-04 5.572091e-04 -1.108445e-03 1.043338e-03 -1.455521e-03 1.662734e-03 -1.649195e-03 2.036912e-03 -1.973720e-03 1.972101e-03 -2.128554e-03 1.828678e-03 -1.800703e-03 1.409937e-03 -1.335177e-03 3.991462e-04 -9.399836e-05 -1.867997e-03 3.177634e-03 -1.507136e-02 3.241991e-02 3.676390e-02 1.639391e-02 1.156782e-02 3.057606e-03 
-2.151378e-03 -9.668627e-03 -1.731543e-02 -2.839023e-02 -3.964912e-02 -2.388689e-02 -7.928864e-03 -7.833627e-04 5.660863e-04 -3.509468e-03 1.245268e-04 -5.601610e-03 -1.797489e-03 -1.744345e-04 1.120081e-04 -4.232864e-04 1.737706e-04 -2.745656e-04 1.655810e-04 6.147929e-06 5.168392e-05 2.618255e-03 3.318861e-03 1.128625e-03 1.924384e-03 1.518486e-04 1.230408e-03 -2.270681e-04 6.412696e-04 -3.380737e-04 3.667037e-04 -6.145547e-05 2.096782e-04 4.908481e-05 -2.090129e-04 2.935961e-05 -4.387820e-04 1.559530e-04 -5.324833e-04 2.591770e-04 -5.696241e-04 3.051668e-04 -5.858857e-04 2.990824e-04 -4.820974e-04 4.018876e-04 -3.396189e-04 3.064599e-04 -3.861993e-04 1.469351e-04 -3.605454e-04 8.167564e-05 -2.851098e-04 1.255516e-04 2.018641e-04 8.621510e-04 2.472521e-04 -1.833674e-03 8.735650e-04 5.350272e-03 -4.554797e-03 -1.155923e-02 -4.583275e-03 4.467998e-03 9.487889e-03 -1.845708e-03 -9.095867e-03 -2.823313e-03 7.274047e-03 1.124692e-02 3.834218e-03 -2.664189e-03 -5.715156e-04 -1.067312e-03 -4.711467e-04 -8.119187e-04 -2.133585e-04 -5.436319e-04 5.568124e-05 -2.025337e-04 1.896384e-04 2.774147e-05 1.937023e-04 2.382008e-04 7.246641e-05 2.893860e-04 -2.814925e-04 2.858228e-04 -5.580453e-04 4.324123e-04 -6.093641e-04 7.250349e-04 -6.213968e-04 7.749968e-04 -7.765626e-04 6.811601e-04 -7.151069e-04 7.083446e-04 -4.826677e-04 5.678076e-04 -2.472048e-04 2.961025e-04 2.786075e-06 -1.264406e-04 2.218652e-04 -5.781075e-04 5.508086e-04 -8.867531e-04 9.857331e-04 -1.017894e-03 1.338168e-03 -1.261317e-03 1.315227e-03 -1.496845e-03 1.240175e-03 -1.346128e-03 1.139899e-03 -1.129563e-03 7.392665e-04 -7.542287e-04 3.431912e-04 -4.697451e-04 9.435279e-03 5.067193e-02 3.913806e-02 2.127730e-02 1.242145e-02 4.245376e-03 
-1.194575e-03 -4.332335e-03 -8.309839e-03 -1.175035e-02 -1.684789e-02 -2.143687e-02 -1.108518e-02 -2.020336e-03 -4.495721e-03 -5.904570e-03 -5.232523e-03 -1.109186e-02 -5.835308e-03 -9.564832e-05 1.536911e-04 -4.330117e-04 2.278365e-04 -2.795653e-04 2.146516e-04 -1.268875e-05 2.358596e-05 7.519368e-03 8.786272e-03 4.156768e-03 3.998161e-03 1.642132e-03 1.994736e-03 6.103831e-04 9.650505e-04 1.653822e-04 4.495467e-04 5.945294e-05 1.421061e-04 2.337619e-05 -1.036093e-04 4.312258e-05 -2.465358e-04 9.249978e-05 -3.421662e-04 1.447601e-04 -3.730634e-04 1.914509e-04 -3.834295e-04 2.026797e-04 -3.465487e-04 2.371124e-04 -2.772238e-04 2.106340e-04 -2.580384e-04 1.249689e-04 -2.516181e-04 -7.836678e-06 -2.308480e-04 -7.368924e-05 -2.329812e-04 -2.765870e-03 -7.015768e-03 -3.341163e-03 3.027141e-03 6.978535e-03 1.675853e-04 9.199916e-04 3.613068e-03 -2.608181e-03 5.863663e-03 -1.557758e-03 -2.687593e-03 3.290596e-03 -3.785056e-03 2.419232e-03 -4.184982e-03 -6.765583e-03 6.129463e-03 2.402874e-03 6.716248e-05 8.157055e-07 8.624792e-05 5.804158e-05 2.051675e-04 1.179767e-04 2.317411e-04 1.868854e-04 1.841137e-04 2.394760e-04 7.177201e-05 2.710913e-04 -7.497489e-05 3.159869e-04 -2.075857e-04 3.704463e-04 -2.996410e-04 4.548301e-04 -3.370274e-04 4.904112e-04 -3.847452e-04 4.558093e-04 -3.628707e-04 4.293031e-04 -2.574045e-04 3.390666e-04 -1.473113e-04 1.671592e-04 -1.572370e-05 -2.563325e-05 1.569457e-04 -2.219960e-04 3.233115e-04 -4.111732e-04 5.025697e-04 -4.984800e-04 6.793816e-04 -5.484471e-04 7.267421e-04 -5.468550e-04 7.362894e-04 -2.929484e-04 8.470922e-04 2.850020e-04 1.164833e-03 1.378277e-03 2.496694e-03 2.938967e-03 1.389807e-02 2.523908e-02 1.459592e-02 1.161550e-02 6.017020e-03 3.255799e-03 
-1.016965e-03 -3.321015e-03 -5.680391e-03 -7.436134e-03 -8.859870e-03 -9.191296e-03 -7.743662e-03 -7.243384e-03 -6.872973e-03 -1.016460e-02 -9.587370e-03 -1.689710e-02 -1.312103e-02 -9.474499e-05 2.416532e-05 -1.037318e-04 5.986890e-05 -7.167718e-05 7.973448e-05 -6.773064e-06 1.245386e-04 1.476514e-02 1.613977e-02 7.891455e-03 7.467347e-03 3.541400e-03 3.820041e-03 1.677408e-03 2.002646e-03 7.996664e-04 1.056321e-03 4.180488e-04 5.311260e-04 2.465392e-04 1.966622e-04 1.718945e-04 -5.285185e-06 1.611063e-04 -1.159429e-04 1.790978e-04 -1.617351e-04 2.084262e-04 -1.586589e-04 2.454931e-04 -1.056979e-04 3.009991e-04 -1.804082e-05 3.482287e-04 7.241959e-05 3.805629e-04 1.569430e-04 3.864354e-04 2.439961e-04 4.683618e-04 4.222445e-04 -5.078958e-04 -2.606768e-03 -1.096489e-03 -9.425463e-04 -1.766712e-03 2.335287e-03 7.196295e-03 3.660922e-03 -4.732972e-03 -3.676213e-03 1.179920e-03 5.737946e-03 2.620361e-03 -5.664973e-03 -4.970373e-03 -1.204836e-03 7.415723e-04 2.572409e-03 5.701540e-04 5.830529e-05 -2.197928e-04 -3.800290e-05 -1.986850e-04 -1.397318e-05 -1.017424e-04 3.646176e-05 2.167801e-05 5.711445e-05 1.244416e-04 2.170112e-05 1.875842e-04 -6.289413e-05 2.319088e-04 -1.480032e-04 2.840371e-04 -2.024041e-04 3.414098e-04 -2.331308e-04 3.632107e-04 -2.521258e-04 3.482415e-04 -2.264575e-04 3.161431e-04 -1.556579e-04 2.423442e-04 -6.304851e-05 1.242762e-04 4.430102e-05 -2.540518e-05 1.633142e-04 -1.781583e-04 2.988380e-04 -3.001386e-04 4.441835e-04 -3.700246e-04 5.707493e-04 -3.929882e-04 6.535034e-04 -3.194629e-04 7.518393e-04 -3.335285e-05 9.656143e-04 6.131973e-04 1.489709e-03 1.973989e-03 2.785155e-03 4.565363e-03 5.901261e-03 1.042007e-02 7.546614e-03 6.758356e-03 3.819354e-03 1.786396e-03 
-4.007853e-04 -1.206137e-03 -2.228955e-03 -3.077575e-03 -3.595865e-03 -4.360622e-03 -3.677096e-03 -3.657902e-03 -3.610488e-03 -4.984041e-03 -4.793817e-03 -8.341657e-03 -6.387811e-03 -4.233670e-05 2.941439e-05 -7.204552e-05 5.310251e-05 -5.499007e-05 5.888743e-05 -1.029405e-05 6.751142e-05 7.550911e-03 8.192664e-03 3.853601e-03 3.579206e-03 1.657685e-03 1.729018e-03 7.570084e-04 8.550371e-04 3.503514e-04 4.234896e-04 1.756237e-04 1.954499e-04 1.014835e-04 6.258932e-05 7.553542e-05 -1.424305e-05 7.458591e-05 -5.526265e-05 8.754944e-05 -6.653129e-05 1.104252e-04 -5.296190e-05 1.417430e-04 -1.387101e-05 1.855070e-04 4.594687e-05 2.330453e-04 1.099255e-04 2.713395e-04 1.542458e-04 2.759613e-04 1.452146e-04 2.546566e-04 1.156197e-04 1.729021e-04 -5.547185e-04 -4.834437e-04 -3.771984e-05 6.983611e-04 5.196145e-04 6.161528e-04 1.155604e-03 3.091013e-05 1.096639e-03 2.966491e-04 1.998388e-04 5.739200e-04 -6.444521e-04 2.180442e-05 -6.935630e-04 -9.440740e-04 -3.976549e-05 -6.519949e-04 -3.059447e-04 -4.655002e-04 -2.453661e-04 -2.922803e-04 -1.436923e-04 -1.279235e-04 -3.352851e-05 9.857931e-06 3.660914e-05 9.998618e-05 5.579882e-05 1.497925e-04 3.997904e-05 1.775467e-04 1.036945e-05 1.954469e-04 -1.748162e-05 2.094195e-04 -3.612623e-05 2.129205e-04 -4.669778e-05 2.028412e-04 -4.137227e-05 1.835232e-04 -1.903039e-05 1.487640e-04 1.227591e-05 9.768866e-05 5.148775e-05 3.895465e-05 9.821164e-05 -1.961663e-05 1.475042e-04 -6.839668e-05 1.991608e-04 -9.229428e-05 2.500772e-04 -8.601469e-05 2.957977e-04 -2.961813e-05 3.651488e-04 1.278162e-04 5.210893e-04 4.573092e-04 8.747400e-04 1.086313e-03 1.630994e-03 2.195611e-03 2.949103e-03 4.140002e-03 2.907035e-03 2.888126e-03 1.462601e-03 9.015200e-04 
3.388199e-06 1.076243e-06 1.289407e-06 -6.046796e-07 -4.894511e-07 -2.529033e-06 -2.557090e-06 -5.197480e-06 -4.847347e-06 -8.298181e-06 -6.985744e-06 -1.176149e-05 -8.777718e-06 5.131145e-06 4.019483e-06 4.905589e-06 6.656354e-06 8.050536e-06 1.267494e-05 1.464346e-05 2.132192e-05 1.651914e-05 1.132526e-05 2.499147e-05 1.626874e-05 2.762799e-05 1.963605e-05 3.193789e-05 2.434378e-05 3.874889e-05 3.207954e-05 4.756769e-05 3.921950e-05 5.269799e-05 4.213104e-05 5.484902e-05 4.574345e-05 5.934653e-05 5.416241e-05 7.088471e-05 7.390417e-05 9.705472e-05 1.116586e-04 1.426720e-04 1.687929e-04 2.055797e-04 2.383012e-04 2.759164e-04 3.086364e-04 3.423487e-04 3.628796e-04 3.808037e-04 3.643038e-04 3.520563e-04 2.650064e-04 2.045629e-04 -3.576477e-05 4.095710e-05 9.534445e-05 1.610357e-04 5.244675e-04 7.645855e-04 6.198382e-04 -3.079145e-05 9.537793e-05 2.151059e-04 3.736853e-04 1.316312e-04 -6.051143e-04 -5.545263e-04 -4.585700e-04 -3.018504e-04 -1.176846e-04 -2.350577e-04 -2.069513e-04 -2.329494e-04 -2.033558e-04 -1.731416e-04 -1.332353e-04 -8.022531e-05 -4.321882e-05 3.300644e-06 2.773288e-05 5.765050e-05 7.010919e-05 8.465851e-05 8.799807e-05 9.230090e-05 9.035820e-05 9.114998e-05 8.800977e-05 9.018431e-05 8.594271e-05 8.923536e-05 8.292273e-05 8.769529e-05 8.091391e-05 8.693625e-05 7.927186e-05 8.390090e-05 7.543875e-05 7.781916e-05 6.940797e-05 6.903833e-05 6.100292e-05 5.861291e-05 5.266527e-05 5.090016e-05 4.826692e-05 4.814226e-05 4.633755e-05 4.537127e-05 4.194480e-05 4.102719e-05 3.756252e-05 3.855095e-05 3.545631e-05 3.688609e-05 3.352580e-05 3.375516e-05 2.938734e-05 2.613724e-05 2.119527e-05 1.559786e-05 1.261928e-05 7.891969e-06 6.774550e-06 3.463659e-06 
4.115036e-04 1.212043e-03 2.235701e-03 3.080786e-03 3.599814e-03 4.360758e-03 3.677766e-03 3.652732e-03 3.606087e-03 4.970715e-03 4.784658e-03 8.319244e-03 6.375695e-03 4.624145e-05 -2.930346e-05 7.223673e-05 -5.005769e-05 5.916361e-05 -4.501400e-05 2.709758e-05 -3.385682e-05 -7.513076e-03 -8.170206e-03 -3.800687e-03 -3.544898e-03 -1.599416e-03 -1.686425e-03 -6.934124e-04 -8.084386e-04 -2.804890e-04 -3.674071e-04 -9.508589e-05 -1.323091e-04 -1.890974e-05 -5.653025e-07 4.686989e-06 7.524858e-05 3.331003e-06 1.185676e-04 -2.130576e-06 1.512090e-04 5.828505e-06 1.856390e-04 3.400744e-05 2.266614e-04 8.121784e-05 2.694571e-04 1.361842e-04 3.056648e-04 1.933464e-04 3.340282e-04 2.454901e-04 3.378549e-04 2.638124e-04 2.850809e-04 2.178078e-04 1.596659e-04 1.186009e-04 1.364160e-04 1.675954e-04 1.799047e-04 1.449462e-04 2.541367e-04 1.229372e-04 2.290374e-04 1.481721e-04 2.524897e-05 1.333345e-04 -1.772112e-04 1.541652e-06 -2.736615e-04 -1.829455e-04 -2.494495e-04 -1.973340e-04 -2.302874e-04 -1.348022e-04 -1.655975e-04 -5.138472e-05 -8.098977e-05 1.701897e-05 -2.530304e-06 5.342111e-05 6.224525e-05 6.528414e-05 1.191733e-04 6.183988e-05 1.647621e-04 4.281169e-05 1.938930e-04 1.595922e-05 2.126116e-04 -4.741683e-06 2.239142e-04 -1.592209e-05 2.223177e-04 -1.639692e-05 2.083705e-04 -1.903160e-06 1.816000e-04 2.409478e-05 1.400882e-04 6.011614e-05 8.918820e-05 1.037382e-04 3.012001e-05 1.443788e-04 -3.514348e-05 1.765680e-04 -9.615762e-05 1.962927e-04 -1.490992e-04 1.848983e-04 -2.065140e-04 1.151853e-04 -2.888147e-04 -4.817595e-05 -4.474006e-04 -3.794801e-04 -8.056995e-04 -1.017828e-03 -1.571875e-03 -2.142060e-03 -2.902407e-03 -4.106508e-03 -2.877295e-03 -2.869214e-03 -1.444860e-03 -8.911698e-04 
1.022847e-03 3.323174e-03 5.683550e-03 7.437085e-03 8.860703e-03 9.189393e-03 7.739135e-03 7.234078e-03 6.861940e-03 1.014876e-02 9.571802e-03 1.686932e-02 1.309685e-02 9.586865e-05 -2.783924e-05 9.999209e-05 -6.008271e-05 7.398654e-05 -6.509244e-05 2.789744e-05 -8.093490e-05 -1.471642e-02 -1.610078e-02 -7.833569e-03 -7.429816e-03 -3.490149e-03 -3.783897e-03 -1.621933e-03 -1.964644e-03 -7.286973e-04 -9.882021e-04 -3.065252e-04 -4.340150e-04 -1.270692e-04 -1.124205e-04 -6.800927e-05 8.183081e-05 -6.559824e-05 1.845713e-04 -8.957735e-05 2.441686e-04 -8.561677e-05 3.092150e-04 -2.884284e-05 3.852171e-04 5.520289e-05 4.377151e-04 1.219606e-04 4.516878e-04 1.842274e-04 4.686290e-04 2.649103e-04 4.827107e-04 3.161782e-04 4.374966e-04 2.893198e-04 3.141992e-04 2.024037e-04 2.042286e-04 1.472861e-04 1.207391e-04 1.178920e-04 5.527919e-05 6.832963e-05 -1.556739e-05 7.342808e-05 -9.887664e-05 4.193174e-05 -2.398394e-04 -3.041011e-05 -2.911159e-04 -3.201675e-05 -2.497897e-04 3.241847e-05 -1.760642e-04 1.239911e-04 -7.709546e-05 1.859592e-04 3.942480e-06 1.816886e-04 4.659204e-05 1.204132e-04 8.979312e-05 6.017177e-05 1.734843e-04 2.026462e-05 2.684120e-04 -3.823374e-05 3.271868e-04 -1.181371e-04 3.653611e-04 -1.702468e-04 4.017955e-04 -1.878853e-04 4.095825e-04 -1.794424e-04 3.841036e-04 -1.352379e-04 3.214925e-04 -6.335048e-05 2.220591e-04 4.162424e-05 1.034649e-04 1.694470e-04 -4.215219e-05 2.841465e-04 -2.093484e-04 3.823309e-04 -3.571450e-04 4.667512e-04 -4.679575e-04 4.901015e-04 -5.698819e-04 3.932719e-04 -6.876742e-04 1.036162e-04 -9.013254e-04 -5.418102e-04 -1.423563e-03 -1.897947e-03 -2.716997e-03 -4.503804e-03 -5.854626e-03 -1.039352e-02 -7.523511e-03 -6.746628e-03 -3.807785e-03 -1.781585e-03 
1.202956e-03 4.337927e-03 8.316354e-03 1.175787e-02 1.685504e-02 2.144630e-02 1.109244e-02 2.024603e-03 4.487916e-03 5.893552e-03 5.216815e-03 1.107983e-02 5.824286e-03 6.648285e-05 -1.807250e-04 4.023402e-04 -2.563674e-04 2.491517e-04 -2.368066e-04 -1.806008e-06 -1.332007e-05 -7.419698e-03 -8.699624e-03 -4.104262e-03 -3.955293e-03 -1.579387e-03 -1.930977e-03 -5.474490e-04 -9.373881e-04 -1.097468e-04 -3.800651e-04 5.961510e-05 -4.198072e-05 8.216973e-05 1.723232e-04 4.638810e-05 3.058699e-04 -3.980447e-05 3.453317e-04 -1.336581e-04 3.725804e-04 -1.668307e-04 4.088903e-04 -1.387649e-04 4.651451e-04 -5.668721e-05 4.983042e-04 -1.652421e-05 4.438328e-04 -6.407637e-06 4.036251e-04 7.229963e-05 4.140122e-04 1.465417e-04 3.527526e-04 1.091135e-04 1.815557e-04 -9.003232e-07 5.322611e-05 6.114339e-06 -1.659292e-04 -2.046342e-04 -1.536768e-04 5.879307e-05 6.492249e-05 1.454321e-04 -1.146385e-04 2.771198e-04 4.866162e-05 4.481400e-04 -2.036371e-05 2.480959e-04 -9.273596e-05 2.443085e-04 -1.013485e-04 2.959602e-04 -2.936785e-05 3.347012e-04 4.228172e-05 2.842912e-04 4.841171e-05 1.450618e-04 6.481695e-05 4.047495e-05 1.829179e-04 -1.407555e-06 3.247733e-04 -8.539612e-05 3.996467e-04 -2.039966e-04 4.603140e-04 -2.673690e-04 5.280560e-04 -2.946203e-04 5.361916e-04 -3.003786e-04 5.067469e-04 -2.368064e-04 4.396454e-04 -1.432605e-04 3.041609e-04 -1.026145e-05 1.577197e-04 1.781280e-04 -1.555037e-05 3.405063e-04 -2.375324e-04 4.703230e-04 -4.278642e-04 6.072732e-04 -5.390568e-04 6.803310e-04 -6.329366e-04 6.011209e-04 -7.053712e-04 3.478707e-04 -7.791035e-04 -1.962294e-04 -1.097332e-03 -1.309257e-03 -2.443194e-03 -2.869870e-03 -1.382615e-02 -2.521168e-02 -1.456643e-02 -1.160058e-02 -6.001540e-03 -3.248168e-03 
2.154182e-03 9.672049e-03 1.732224e-02 2.840100e-02 3.966203e-02 2.390611e-02 7.928332e-03 7.617009e-04 -5.914077e-04 3.518939e-03 -1.211453e-04 5.591431e-03 1.750310e-03 1.172436e-04 -1.605876e-04 3.660656e-04 -2.289564e-04 2.167260e-04 -2.132797e-04 -3.141743e-05 -3.825837e-05 -2.470558e-03 -3.118618e-03 -1.002917e-03 -1.871331e-03 -1.518044e-04 -1.224159e-03 2.268436e-04 -7.173623e-04 3.133231e-04 -2.880948e-04 3.243325e-04 8.610367e-05 2.004744e-04 2.854082e-04 4.830882e-05 5.124564e-04 -6.062430e-05 5.183472e-04 -3.329881e-04 4.095060e-04 -4.481740e-04 4.871796e-04 -2.539121e-04 7.290125e-04 2.825160e-05 8.011701e-04 8.350391e-06 5.428108e-04 -9.926400e-05 4.317767e-04 5.812082e-05 5.062653e-04 2.215609e-04 4.923459e-04 2.317128e-04 3.049463e-04 1.272102e-04 2.008843e-04 1.944989e-04 -1.219173e-05 -5.186943e-05 -1.045099e-04 2.315807e-04 2.011415e-04 3.996163e-04 1.856261e-05 4.429467e-04 5.861470e-05 5.119833e-04 -1.824727e-04 1.856016e-04 -4.020278e-04 1.769622e-04 -3.739463e-04 3.656348e-04 -1.311685e-04 5.519292e-04 7.819660e-05 4.872390e-04 1.426664e-06 1.311727e-04 -7.717056e-05 -7.738308e-05 1.884451e-04 -1.597212e-05 5.655960e-04 -1.117176e-04 6.366976e-04 -4.589902e-04 6.418984e-04 -5.923324e-04 8.237573e-04 -5.869918e-04 8.716757e-04 -5.935704e-04 8.393194e-04 -4.738325e-04 7.021745e-04 -3.431064e-04 4.366424e-04 -7.124476e-05 2.266398e-04 3.391591e-04 -9.718471e-05 6.000697e-04 -5.969484e-04 8.078178e-04 -9.688706e-04 1.171197e-03 -1.101087e-03 1.440117e-03 -1.238208e-03 1.492763e-03 -1.248434e-03 1.392097e-03 -1.112834e-03 1.145057e-03 -7.031229e-04 9.071729e-04 -1.633310e-04 6.192541e-04 -9.384600e-03 -5.071303e-02 -3.914976e-02 -2.128794e-02 -1.242128e-02 -4.247421e-03 
1.781398e-03 8.192914e-03 1.627932e-02 2.515893e-02 3.621680e-02 -9.235353e-03 -8.744850e-03 3.535533e-03 -6.448740e-03 1.569406e-03 -6.469660e-03 -2.187749e-03 -5.581457e-03 6.199323e-03 -6.272676e-04 2.351505e-03 -6.798319e-04 7.400790e-04 -1.131626e-03 -7.501762e-04 -2.949584e-03 3.599115e-03 4.452232e-03 2.861759e-03 1.976287e-03 1.306681e-03 8.788396e-04 7.556235e-04 6.327772e-04 4.606158e-04 6.794822e-04 3.228107e-04 8.460904e-04 1.127710e-04 8.283529e-04 -1.066807e-04 9.483493e-04 -1.553251e-04 8.461979e-04 -4.689110e-04 5.314962e-04 -6.014717e-04 5.507608e-04 -2.505261e-04 8.260521e-04 1.427025e-04 8.242726e-04 9.644276e-05 4.398451e-04 -3.402902e-05 2.704853e-04 1.057305e-04 2.741869e-04 2.070837e-04 2.395523e-04 2.159369e-04 8.713814e-05 1.109847e-04 -5.296061e-05 2.767433e-05 -6.469462e-05 8.501257e-05 -7.192512e-05 2.408594e-04 1.909519e-04 6.540407e-04 4.705510e-04 7.846478e-04 3.162925e-04 6.468413e-04 2.039816e-05 4.276984e-04 -2.988739e-04 2.952733e-04 -2.941980e-04 4.664247e-04 -3.799909e-05 6.550890e-04 1.734594e-04 5.603171e-04 5.962274e-05 1.360443e-04 -3.686324e-05 -1.174613e-04 2.727724e-04 -4.207625e-05 7.442693e-04 -1.383945e-04 8.201887e-04 -5.944704e-04 7.669683e-04 -7.794546e-04 9.655074e-04 -7.295443e-04 1.034873e-03 -6.659437e-04 9.718312e-04 -4.900240e-04 7.189155e-04 -2.905548e-04 3.427210e-04 1.321066e-04 2.335888e-05 6.822651e-04 -4.830097e-04 1.025369e-03 -1.176064e-03 1.321805e-03 -1.663007e-03 1.789043e-03 -1.829843e-03 2.091133e-03 -1.931336e-03 2.128502e-03 -1.782602e-03 1.873998e-03 -1.420160e-03 1.261277e-03 -3.833030e-04 3.295910e-04 2.172429e-03 -2.980913e-03 1.504764e-02 -3.251066e-02 -3.682717e-02 -1.643234e-02 -1.159579e-02 -3.076511e-03 
1.369588e-03 3.196367e-03 6.213432e-03 6.598397e-03 9.045944e-03 -2.043268e-02 -1.011836e-02 8.936711e-03 -2.090081e-03 8.549063e-03 -3.169075e-04 1.075823e-02 -1.727427e-03 -8.069380e-03 -5.695067e-03 -1.409152e-03 -1.517876e-03 9.306827e-04 2.468832e-03 4.011917e-03 9.431716e-03 -1.891715e-03 -4.923643e-03 -2.404707e-03 -2.485565e-03 -1.226084e-03 -1.329454e-03 -6.824228e-04 -5.757682e-04 -3.951396e-04 -8.149539e-05 -2.405207e-04 2.533960e-04 -2.175100e-04 3.713439e-04 -2.652319e-04 4.790195e-04 -2.317996e-04 4.713871e-04 -3.277090e-04 3.167020e-04 -3.539378e-04 3.197146e-04 -1.364166e-04 4.318272e-04 7.173465e-05 4.020543e-04 1.010832e-04 2.543900e-04 1.246484e-04 2.051501e-04 2.211541e-04 1.958435e-04 2.845549e-04 2.098437e-04 3.548062e-04 2.215382e-04 3.650905e-04 1.847514e-04 2.494176e-04 3.115667e-04 4.975942e-04 2.783470e-04 2.578572e-04 7.655942e-05 3.803654e-04 3.138341e-04 3.347319e-04 -1.155537e-04 -2.898111e-05 -2.894476e-04 9.635926e-05 -2.451129e-04 1.721525e-04 -7.952428e-05 3.743274e-04 1.198603e-04 4.895715e-04 2.207664e-04 4.264883e-04 1.874233e-04 2.245558e-04 1.742643e-04 6.585082e-05 3.072620e-04 1.777460e-05 5.183999e-04 -7.401187e-05 5.850691e-04 -3.084879e-04 5.692365e-04 -4.357557e-04 6.413372e-04 -4.172286e-04 6.766358e-04 -3.434016e-04 6.164716e-04 -2.292276e-04 4.228396e-04 -6.794383e-05 1.760973e-04 2.216679e-04 -9.252148e-05 5.409228e-04 -4.752561e-04 7.812733e-04 -9.088221e-04 1.010568e-03 -1.229966e-03 1.259755e-03 -1.398784e-03 1.376085e-03 -1.460823e-03 1.313806e-03 -1.344115e-03 9.453840e-04 -1.102937e-03 8.967634e-05 -5.197511e-04 -1.688451e-03 7.499792e-04 -7.275058e-03 1.576383e-02 -7.503913e-04 -9.001490e-03 -2.411555e-03 -3.056753e-03 1.408394e-04 
7.582803e-04 1.120412e-03 2.929980e-03 1.520265e-03 3.060653e-03 -6.162328e-03 -1.365534e-03 5.547661e-03 3.324649e-03 8.642494e-03 9.369036e-03 1.802502e-02 2.311766e-02 2.447138e-02 1.130847e-02 7.106032e-03 2.801719e-03 -2.528670e-03 -6.544619e-03 -1.165099e-02 -2.448218e-02 -2.431871e-02 -1.560319e-02 -1.038819e-02 -6.316118e-03 -4.396497e-03 -2.635278e-03 -1.894275e-03 -1.004704e-03 -8.065808e-04 -2.593017e-04 -3.398972e-04 9.086090e-05 -1.619011e-04 2.272815e-04 -1.186878e-04 2.827314e-04 -9.903439e-05 2.847692e-04 -1.163942e-04 2.424125e-04 -1.036782e-04 2.549236e-04 -1.711993e-06 3.111048e-04 1.128747e-04 3.439865e-04 2.057567e-04 3.783765e-04 3.214627e-04 4.493377e-04 4.371832e-04 4.877112e-04 4.584456e-04 4.044522e-04 2.860632e-04 1.157443e-05 -2.687157e-04 -2.456024e-04 4.227354e-05 -1.383814e-03 -1.965967e-03 -1.154351e-03 -2.014545e-04 6.585470e-04 -3.067416e-04 -1.040157e-03 2.111597e-04 9.853551e-04 2.052563e-03 1.040336e-03 3.976317e-04 3.677221e-04 2.013098e-04 5.887145e-05 2.770471e-04 1.141237e-04 3.328504e-04 1.410192e-04 2.673810e-04 1.192049e-04 1.530098e-04 1.219695e-04 6.135398e-05 1.779655e-04 4.725280e-06 2.598292e-04 -5.295856e-05 3.092406e-04 -1.357678e-04 3.279818e-04 -1.876211e-04 3.541620e-04 -1.811779e-04 3.692743e-04 -1.346516e-04 3.390345e-04 -6.951292e-05 2.486575e-04 2.574533e-05 1.290811e-04 1.641717e-04 -2.357375e-05 3.027769e-04 -2.223352e-04 4.235856e-04 -4.224050e-04 5.441736e-04 -5.726057e-04 6.500056e-04 -6.574474e-04 6.931450e-04 -6.641551e-04 6.434315e-04 -5.731495e-04 4.208530e-04 -3.922228e-04 -8.986237e-05 -6.705082e-05 -1.171820e-03 3.477280e-04 -4.120938e-03 4.542787e-03 4.742020e-04 -1.630858e-03 -1.288182e-03 -1.252350e-03 -3.131324e-04 
