# vtk DataFile Version 2.0
Comment goes here
ASCII

DATASET STRUCTURED_POINTS
FIELD FieldData 1
TIME 1 1 double
0.06600000
DIMENSIONS    64   64   1

ORIGIN    0.000   0.000   0.000
SPACING   0.03125 0.03125   1.000

POINT_DATA   4096
SCALARS Omega double
LOOKUP_TABLE default

2.383481e-01 -1.536694e-01 -1.414071e-01 -2.224548e-01 -8.238812e-02 -1.760427e-01 -3.260857e-02 -1.754680e-01 -5.890364e-02 -1.075428e-01 -6.969064e-02 -2.937790e-03 -7.299419e-02 1.206397e-01 -5.108830e-02 2.228463e-01 -1.426774e-02 3.048907e-01 6.894458e-02 3.804439e-01 1.722636e-01 4.550173e-01 1.958923e-01 4.495348e-01 1.550974e-01 3.970804e-01 2.228942e-01 4.260631e-01 2.591575e-01 3.909043e-01 2.914341e-01 3.217621e-01 2.768058e-01 3.107753e-01 2.688442e-01 3.540443e-01 2.540642e-01 3.439301e-01 2.642537e-01 3.885471e-01 2.415450e-01 3.172671e-01 2.473582e-01 2.712701e-01 2.088259e-01 2.610724e-01 1.906270e-01 1.647292e-01 1.579185e-01 6.916772e-02 1.506885e-01 -2.027452e-02 1.362535e-01 -1.211936e-01 1.327901e-01 -2.021115e-01 1.226024e-01 -2.486389e-01 9.905930e-02 -2.777640e-01 7.999118e-02 -3.042118e-01 9.316681e-02 -4.073649e-01 
-1.756897e+01 -3.865308e+01 -1.425512e+01 -3.299697e+01 -2.064715e+01 -2.802055e+01 -2.625947e+01 -2.440933e+01 -3.267471e+01 -2.294552e+01 -3.583936e+01 -2.288823e+01 -3.720239e+01 -2.297975e+01 -3.878209e+01 -2.170994e+01 -4.203171e+01 -1.846072e+01 -4.683653e+01 -1.387797e+01 -5.241943e+01 -8.917036e+00 -5.789644e+01 -3.810053e+00 -6.339978e+01 1.466886e+00 -6.902456e+01 6.622978e+00 -7.448174e+01 1.168786e+01 -7.968191e+01 1.641565e+01 -8.412657e+01 1.990178e+01 -8.714205e+01 2.192092e+01 -8.890888e+01 2.280312e+01 -8.943792e+01 2.269401e+01 -8.915828e+01 2.202696e+01 -8.806377e+01 2.036432e+01 -8.566146e+01 1.736316e+01 -8.134222e+01 1.230365e+01 -7.485243e+01 5.548395e+00 -6.685091e+01 -2.289834e+00 -5.811740e+01 -1.019033e+01 -4.937431e+01 -1.781893e+01 -4.076639e+01 -2.492911e+01 -3.264532e+01 -3.113881e+01 -2.516301e+01 -3.661454e+01 -1.711524e+01 -4.148552e+01 
-6.199124e+01 6.207218e+00 -5.240156e+01 7.526956e+00 -9.687498e+00 5.535349e+00 -5.445213e+01 -9.315646e-01 -6.967935e+01 -2.088714e+00 -8.063166e+01 -1.982596e+00 -8.939322e+01 -1.748796e+00 -9.600003e+01 -2.408027e+00 -1.001302e+02 -4.280028e+00 -1.023920e+02 -6.755956e+00 -1.035204e+02 -9.250278e+00 -1.042308e+02 -1.162894e+01 -1.042169e+02 -1.404800e+01 -1.037077e+02 -1.641825e+01 -1.029639e+02 -1.879413e+01 -1.019190e+02 -2.112844e+01 -1.008011e+02 -2.295169e+01 -1.002448e+02 -2.413067e+01 -1.000387e+02 -2.467314e+01 -1.001698e+02 -2.477872e+01 -1.002329e+02 -2.464097e+01 -1.001256e+02 -2.417191e+01 -9.995912e+01 -2.315018e+01 -1.003074e+02 -2.096129e+01 -1.011084e+02 -1.797303e+01 -1.019490e+02 -1.437468e+01 -1.022678e+02 -1.083916e+01 -1.015838e+02 -7.363358e+00 -9.984642e+01 -4.007644e+00 -9.658838e+01 -8.097113e-01 -9.145636e+01 2.507768e+00 -8.644493e+01 5.355053e+00 
-2.983699e+01 5.980805e+00 -2.853951e+01 1.098081e+01 -3.578578e+01 5.094189e+00 -1.964207e+01 9.370716e+00 -2.936268e+01 7.319068e+00 -3.596353e+01 6.110840e+00 -4.114158e+01 5.162848e+00 -4.478929e+01 3.616060e+00 -4.669893e+01 1.280443e+00 -4.717204e+01 -1.513852e+00 -4.682319e+01 -4.036655e+00 -4.616590e+01 -6.657379e+00 -4.525140e+01 -9.298358e+00 -4.393505e+01 -1.156323e+01 -4.232891e+01 -1.374113e+01 -4.065820e+01 -1.583615e+01 -3.905067e+01 -1.722797e+01 -3.792605e+01 -1.785142e+01 -3.710652e+01 -1.792520e+01 -3.677573e+01 -1.761403e+01 -3.662444e+01 -1.717787e+01 -3.660914e+01 -1.645608e+01 -3.676889e+01 -1.528096e+01 -3.760813e+01 -1.317079e+01 -3.919639e+01 -1.041015e+01 -4.108861e+01 -7.272181e+00 -4.286930e+01 -4.221185e+00 -4.427364e+01 -1.338777e+00 -4.518125e+01 1.375275e+00 -4.514319e+01 3.582610e+00 -4.385781e+01 6.299646e+00 -4.402561e+01 9.662412e+00 
-3.210317e+00 2.311867e+00 -3.279214e+00 -7.219076e+00 -5.758036e+01 -1.094038e+00 7.079426e+00 6.192840e-01 1.354340e+00 3.997560e-01 -5.322005e-01 2.210967e-01 -1.235082e+00 7.295594e-02 -1.524026e+00 -6.235782e-02 -1.639504e+00 -1.649181e-01 -1.717278e+00 -2.355398e-01 -1.761617e+00 -2.513131e-01 -1.805478e+00 -2.531056e-01 -1.832427e+00 -2.435142e-01 -1.799988e+00 -2.278786e-01 -1.778652e+00 -2.384529e-01 -1.699132e+00 -2.546417e-01 -1.584350e+00 -2.833689e-01 -1.429203e+00 -3.428743e-01 -1.272416e+00 -4.487814e-01 -1.135003e+00 -5.838788e-01 -1.001673e+00 -7.331742e-01 -8.898418e-01 -8.317826e-01 -7.520606e-01 -8.641389e-01 -6.238194e-01 -8.254352e-01 -5.113226e-01 -7.346612e-01 -4.492760e-01 -6.068582e-01 -4.334611e-01 -4.243074e-01 -4.563512e-01 -1.788910e-01 -5.339505e-01 1.477482e-01 -6.970675e-01 5.393242e-01 -9.446038e-01 1.082955e+00 -1.330923e+00 2.251417e+00 
-2.680067e+00 2.060414e+00 -3.002307e+00 -6.461196e+00 -7.539793e+01 -3.154761e+00 5.903581e+00 -1.143850e+00 3.380289e+00 -2.421292e-01 1.681096e+00 -1.278351e-01 8.271128e-01 -1.182040e-01 4.109528e-01 -1.084212e-01 2.171083e-01 -1.091398e-01 9.975110e-02 -1.201964e-01 2.503233e-02 -1.303036e-01 3.072018e-02 -1.118902e-01 3.008615e-03 -6.413917e-02 7.842738e-03 -5.038452e-02 -4.138579e-03 -3.142118e-02 -3.594498e-04 -4.764621e-03 -2.154096e-02 -1.413473e-03 -4.853404e-02 1.579804e-03 -4.927991e-02 4.463561e-03 -6.669419e-02 1.793229e-02 -3.611992e-02 3.375434e-02 -4.839952e-02 4.355513e-02 -3.445375e-02 5.187361e-02 -5.134251e-02 4.776814e-02 -7.226748e-02 7.463984e-02 -7.769029e-02 1.137634e-01 -1.263895e-01 1.873169e-01 -2.091344e-01 3.180314e-01 -3.366832e-01 5.115680e-01 -5.426781e-01 8.153427e-01 -9.281974e-01 1.173676e+00 -1.473281e+00 1.337022e+00 
-2.639183e+00 1.331230e+00 -1.773897e+00 -7.422921e+00 -8.565673e+01 -2.209850e+00 4.511054e+00 -1.414330e+00 3.284225e+00 -5.296773e-01 1.810806e+00 -2.807732e-01 9.309232e-01 -1.958563e-01 4.901396e-01 -1.714658e-01 3.172832e-01 -1.782883e-01 1.729131e-01 -2.053239e-01 1.036525e-01 -1.753487e-01 9.411656e-02 -1.362728e-01 7.214603e-02 -7.308184e-02 1.274735e-01 -3.906095e-02 8.772415e-02 4.518993e-04 1.087203e-01 2.598037e-02 5.081223e-02 3.249175e-02 2.187781e-02 3.348500e-02 -1.298292e-02 3.298422e-02 -4.191585e-02 5.441901e-02 -2.530917e-02 6.418916e-02 -6.297430e-02 8.132481e-02 -3.215409e-02 7.392218e-02 -7.039614e-02 7.990933e-02 -6.495790e-02 1.060449e-01 -1.176107e-01 1.703946e-01 -1.941951e-01 2.840028e-01 -2.959501e-01 4.354550e-01 -4.555137e-01 6.201924e-01 -7.112509e-01 8.544445e-01 -1.104331e+00 1.131043e+00 -1.665579e+00 1.322402e+00 
-2.350362e+00 1.065414e+00 -1.281105e+00 -6.471456e+00 -9.622103e+01 -1.999612e+00 2.360815e+00 -2.120545e+00 2.576616e+00 -9.888134e-01 1.772048e+00 -4.891802e-01 1.002761e+00 -2.928923e-01 5.338497e-01 -2.338754e-01 3.464478e-01 -2.102165e-01 1.909828e-01 -2.904763e-01 8.197720e-02 -2.371541e-01 1.146401e-01 -2.099327e-01 4.913452e-02 -1.291711e-01 1.260830e-01 -8.014974e-02 5.529104e-02 -6.391487e-02 6.263559e-02 -6.744357e-03 9.813483e-03 -1.974958e-02 -4.600039e-02 2.759745e-02 -3.220423e-02 2.430263e-02 -8.158350e-02 7.855974e-02 -3.920816e-03 9.536556e-02 -5.868241e-02 1.143036e-01 -1.980352e-02 1.350065e-01 -5.435292e-02 1.059693e-01 -7.672382e-02 1.704332e-01 -4.796794e-02 2.063772e-01 -1.260040e-01 3.253788e-01 -2.351160e-01 5.214555e-01 -3.988840e-01 7.539642e-01 -6.529951e-01 1.019900e+00 -1.032163e+00 1.296414e+00 -1.549523e+00 1.532462e+00 
-1.900506e+00 7.306849e-01 -4.722525e-02 -6.841499e+00 -1.015896e+02 -1.206804e+00 1.434911e+00 -2.002083e+00 1.816819e+00 -1.125452e+00 1.459130e+00 -5.889049e-01 8.549076e-01 -3.239309e-01 4.593584e-01 -2.873223e-01 3.853673e-01 -3.107657e-01 1.809780e-01 -4.271088e-01 1.081031e-01 -3.091298e-01 1.330906e-01 -2.554957e-01 5.611870e-02 -1.117039e-01 2.192116e-01 -8.004115e-02 6.917456e-02 -2.189318e-02 1.630842e-01 5.662359e-03 1.006797e-02 8.609668e-04 3.280104e-04 3.625888e-02 -5.377201e-02 3.043760e-02 -9.415888e-02 1.053477e-01 -5.459537e-03 1.039676e-01 -1.122528e-01 1.623997e-01 1.200904e-02 1.242029e-01 -1.047991e-01 1.070236e-01 -2.068106e-02 1.136330e-01 -1.036318e-01 1.904441e-01 -1.858943e-01 3.606543e-01 -2.800469e-01 5.696950e-01 -4.432962e-01 7.887017e-01 -6.917991e-01 1.024166e+00 -1.028940e+00 1.269659e+00 -1.453439e+00 1.458079e+00 
-1.471421e+00 5.014786e-01 6.796190e-01 -6.273123e+00 -1.078120e+02 -8.464432e-01 4.630620e-01 -2.248829e+00 1.016167e+00 -1.449390e+00 1.121603e+00 -7.487529e-01 7.143171e-01 -3.315755e-01 3.405206e-01 -3.201233e-01 3.033055e-01 -3.348860e-01 1.687093e-01 -6.028428e-01 3.381586e-02 -3.546029e-01 1.923306e-01 -3.603507e-01 1.667402e-02 -1.632630e-01 2.568238e-01 -1.023926e-01 5.820223e-02 -1.107300e-01 1.125734e-01 4.259096e-02 -7.283592e-03 -7.945101e-02 -1.094937e-01 8.193361e-02 -3.731465e-02 -1.817295e-02 -1.661809e-01 1.477952e-01 6.356741e-02 1.291227e-01 -1.019546e-01 1.898943e-01 -3.649259e-03 2.403324e-01 -9.694791e-02 5.466510e-02 -1.316785e-01 1.868892e-01 3.777619e-02 1.286164e-01 -4.907593e-02 3.443387e-01 -1.633224e-01 6.393294e-01 -3.454518e-01 8.833216e-01 -5.895750e-01 1.104865e+00 -8.860805e-01 1.318776e+00 -1.230574e+00 1.449091e+00 
-9.684772e-01 2.199112e-01 1.697299e+00 -6.183505e+00 -1.100843e+02 -3.161223e-01 8.469284e-02 -2.151421e+00 3.506566e-01 -1.511160e+00 6.740782e-01 -7.332464e-01 4.134570e-01 -1.003286e-01 1.373485e-01 -1.489965e-01 3.095386e-01 -6.970713e-01 9.652878e-02 -7.802259e-01 1.000651e-01 -4.659576e-01 1.942376e-01 -4.169851e-01 -2.982352e-02 -7.023313e-02 4.312142e-01 -1.714434e-01 -1.318651e-02 5.082091e-02 3.202183e-01 -3.340208e-02 -1.014158e-01 9.891090e-03 -6.508684e-03 1.962871e-02 -1.332911e-01 -6.616910e-03 -1.941637e-01 1.666460e-01 9.990855e-02 1.051170e-01 -2.292811e-01 3.590784e-01 1.440771e-01 1.699175e-01 -2.552318e-01 1.446424e-01 7.199546e-02 -4.105922e-02 -6.229520e-02 8.557056e-02 -8.413339e-02 3.972525e-01 -1.471310e-01 6.850557e-01 -3.305891e-01 8.988601e-01 -5.606152e-01 1.086998e+00 -7.984178e-01 1.272200e+00 -1.023590e+00 1.356143e+00 
-5.350483e-01 -2.316287e-02 2.407206e+00 -5.782681e+00 -1.131820e+02 1.223499e-01 -2.336459e-01 -2.271570e+00 -1.549207e-01 -1.836674e+00 3.909570e-01 -8.799241e-01 2.507313e-01 2.851756e-01 -1.144101e-01 4.606773e-01 -1.965616e-01 -1.383762e+00 1.731495e-01 -8.046654e-01 -6.180965e-02 -6.069721e-01 3.422442e-01 -5.381758e-01 -6.036575e-02 -4.782950e-02 4.312426e-01 -2.979023e-01 1.056236e-01 8.742806e-02 1.511324e-01 -2.799126e-02 -2.815504e-02 -9.068682e-03 -2.592620e-01 5.241603e-02 -3.667114e-02 -1.160532e-01 -3.324250e-01 2.522757e-01 2.083398e-01 -3.304297e-02 -7.069977e-02 5.364044e-01 -3.677031e-02 3.434748e-01 -1.647078e-01 9.260094e-02 -4.292479e-01 -3.883979e-02 2.369368e-01 -3.223423e-01 2.550380e-01 4.078636e-01 4.117050e-02 8.358487e-01 -2.513512e-01 9.915172e-01 -4.833162e-01 1.115997e+00 -6.595158e-01 1.255886e+00 -7.883217e-01 1.278907e+00 
-7.605179e-02 -2.836157e-01 3.165871e+00 -5.463738e+00 -1.131636e+02 4.709876e-01 -3.501531e-01 -2.314999e+00 -5.839018e-01 -2.114010e+00 -9.742821e-03 -1.135520e+00 -8.741123e-02 7.298540e-01 -1.340840e-01 2.194607e+00 -8.813480e-01 -3.747062e+00 5.553235e-01 6.871898e-01 -5.184314e-02 -1.572122e+00 4.349707e-01 1.650658e-02 -3.288659e-01 1.982400e-01 8.419922e-01 -7.298453e-01 -4.595450e-02 1.428744e+00 4.569114e-01 -1.171940e+00 -1.004009e-01 1.374513e+00 -2.204206e-01 -1.163303e+00 -9.218288e-02 6.875764e-01 -5.582139e-01 -3.339983e-01 4.895232e-01 1.055002e-01 -3.958721e-01 1.276385e+00 3.670393e-01 -1.267132e-01 -4.778060e-01 1.108431e+00 -1.252501e-01 -1.184664e+00 1.550837e-01 -1.799275e-01 2.982828e-01 5.625317e-01 1.271906e-01 9.354564e-01 -2.365149e-01 1.012166e+00 -4.598440e-01 1.083637e+00 -5.624074e-01 1.195856e+00 -5.714322e-01 1.175751e+00 
3.203986e-01 -5.358694e-01 3.745155e+00 -5.091958e+00 -1.137069e+02 9.153499e-01 -4.255824e-01 -2.376057e+00 -8.734440e-01 -2.749505e+00 -7.060213e-02 -2.204306e+00 2.004448e-01 -1.404998e-01 8.137897e-01 1.257632e+00 -3.161152e+00 -2.683638e+00 3.079030e+00 5.008146e+00 -1.369282e+00 -1.510774e+00 1.314171e+00 1.195433e+00 -1.550480e-01 1.621312e+00 2.085512e-01 -2.842741e+00 1.456873e+00 4.561924e+00 -1.202930e+00 -4.216848e+00 1.087929e+00 4.545131e+00 -1.704643e+00 -3.549641e+00 5.665842e-01 1.977464e+00 -1.037099e+00 -5.980715e-01 2.145279e-01 -1.775669e+00 1.129431e+00 4.112473e+00 -1.508938e+00 -2.810560e+00 1.143651e+00 5.908098e+00 -3.302482e+00 -3.692080e+00 9.880668e-01 -8.390200e-01 1.494775e+00 1.418968e+00 1.749321e-01 1.257753e+00 -4.101652e-01 1.025127e+00 -4.989521e-01 1.034737e+00 -4.630245e-01 1.132199e+00 -3.577606e-01 1.065787e+00 
7.140726e-01 -7.816197e-01 4.234609e+00 -4.579340e+00 -1.118372e+02 1.070331e+00 -4.402017e-01 -2.334546e+00 -1.046257e+00 -3.059751e+00 -4.637851e-01 -3.468743e+00 -7.374019e-01 -5.924343e+00 4.443785e+00 -1.748669e+01 1.701521e+00 2.271826e+01 2.049865e+01 1.689257e+01 -1.935979e+00 9.101855e+00 1.170702e+01 1.598493e+01 -2.573103e+00 1.117618e+00 9.634601e+00 6.667008e+00 1.297996e+00 -5.988165e-01 6.033895e+00 1.944916e+00 4.141815e+00 2.862776e+00 1.496992e+00 1.758734e+00 5.317003e+00 6.162714e+00 -2.388616e+00 2.049454e+00 6.837331e+00 3.268079e-01 -1.953360e+00 -2.317072e-02 7.453791e+00 -3.522135e+00 -6.083047e-01 1.236946e-01 4.618876e+00 -7.423978e+00 -1.007853e+00 -6.751611e+00 8.000812e-01 1.833109e+00 2.228620e-01 1.596317e+00 -5.650410e-01 9.981776e-01 -5.395753e-01 9.443536e-01 -3.747563e-01 1.043799e+00 -1.554737e-01 9.435559e-01 
1.072383e+00 -9.941312e-01 4.587917e+00 -3.983446e+00 -1.101784e+02 1.422354e+00 -5.634553e-01 -1.883752e+00 -1.499364e+00 -3.084313e+00 -9.260694e-01 -6.074369e+00 1.337511e+00 -1.825661e+01 1.748042e+01 -4.437526e+01 2.003599e+01 8.047523e+01 6.390339e+01 1.859151e+01 1.028535e+01 4.594213e+01 5.700786e+01 5.608588e+01 1.170142e+01 -4.734565e+00 4.209116e+01 7.284400e+01 2.860760e+01 -1.981464e+01 2.140694e+01 5.880015e+01 3.957413e+01 -2.364619e+00 1.146279e+01 5.023925e+01 4.999716e+01 2.981711e+01 7.875928e+00 1.768686e+01 4.833867e+01 5.900237e+01 2.206193e+01 -1.731314e+01 2.636297e+01 4.947037e+01 3.870517e+01 -7.722982e+00 1.059694e+01 4.627125e+01 3.480077e+01 3.105476e+01 4.231659e+00 5.059501e+00 -2.278338e+00 5.516463e-01 -1.357752e+00 5.711210e-01 -5.963790e-01 8.168339e-01 -2.393594e-01 9.682650e-01 6.220302e-02 8.208977e-01 
1.397110e+00 -1.140347e+00 4.789385e+00 -3.306213e+00 -1.067288e+02 1.344522e+00 -5.434029e-01 -1.672256e+00 -1.211610e+00 -2.601122e+00 3.822525e-01 -5.255722e+00 4.651552e+00 -1.239759e+01 1.433696e+01 -2.846592e+01 2.920360e+01 5.593236e+01 3.655843e+01 -2.033966e+01 2.337417e+01 5.189579e+01 5.034840e+01 2.139974e+01 1.124866e+01 6.360942e+00 6.460431e+01 7.477954e+01 1.232758e+01 -3.026266e+01 5.118180e+01 9.052228e+01 2.361120e+01 -2.950763e+01 3.511850e+01 9.279700e+01 4.753112e+01 4.522159e+00 1.553654e+01 4.833510e+01 7.477207e+01 7.417941e+01 8.105364e+00 -1.985088e+01 6.676059e+01 1.051385e+02 2.357376e+01 -3.563934e+01 4.894255e+01 1.376538e+02 3.529829e+01 4.240914e+01 -6.595442e+00 1.857245e+00 -4.931002e+00 -1.216007e+00 -1.719014e+00 -5.193275e-02 -4.916511e-01 6.156466e-01 -6.977878e-02 8.727896e-01 2.706106e-01 7.042715e-01 
1.691410e+00 -1.238866e+00 4.899115e+00 -2.669842e+00 -1.033613e+02 1.400812e+00 -3.554627e-01 -1.142592e+00 -9.304386e-01 -5.959023e-01 -2.942978e-03 2.107486e+00 3.437406e-01 9.782640e+00 -7.264756e+00 2.977673e+01 -3.066443e+01 -8.700750e+01 -3.298861e+01 -5.704348e+00 -1.276183e+01 -5.461276e+01 -3.748581e+01 -3.205335e+01 3.175811e-02 -1.097308e+01 -4.055784e+01 -5.211560e+01 5.684995e-01 1.202610e+01 -2.835541e+01 -4.761439e+01 -5.339502e+00 1.300602e+01 -1.869222e+01 -4.183178e+01 -1.542531e+01 3.494634e+00 -8.788027e+00 -2.135716e+01 -2.436376e+01 -1.482134e+01 -4.473022e+00 3.246840e+00 -1.998975e+01 -1.768935e+01 -7.211331e+00 9.387284e+00 -9.947277e+00 -1.058189e+01 -2.898641e+00 5.332653e+00 -1.820658e+00 2.253356e+00 -5.123778e-01 1.033976e+00 -1.070142e-01 7.755135e-01 4.431452e-02 8.087361e-01 1.864439e-01 8.633874e-01 4.909572e-01 5.939873e-01 
1.907672e+00 -1.204346e+00 4.840488e+00 -2.001739e+00 -9.848604e+01 1.310113e+00 -4.221993e-01 -1.123046e+00 -1.181291e+00 -4.296106e-01 -1.072361e+00 3.612514e+00 -3.918375e+00 1.835234e+01 -2.281926e+01 4.174556e+01 -1.545629e+01 -6.673895e+01 -7.276373e+01 -1.754334e+01 -1.333386e+01 -4.891960e+01 -6.608865e+01 -5.368901e+01 -1.570515e+01 2.623963e+00 -5.836243e+01 -8.911371e+01 -3.077699e+01 2.948274e+01 -3.809605e+01 -8.952178e+01 -4.260610e+01 1.927705e+01 -2.535922e+01 -8.687532e+01 -6.087797e+01 -1.853506e+01 -1.407391e+01 -4.027189e+01 -7.566093e+01 -8.129446e+01 -1.761051e+01 2.514625e+01 -5.810571e+01 -9.998489e+01 -3.509969e+01 3.445365e+01 -4.257883e+01 -1.265520e+02 -3.809998e+01 -3.937255e+01 4.162905e+00 8.648241e-01 3.735344e+00 2.980457e+00 1.205614e+00 1.597930e+00 3.920447e-01 1.024159e+00 3.382589e-01 8.719185e-01 6.465584e-01 5.193013e-01 
2.094824e+00 -1.206178e+00 4.808874e+00 -1.567593e+00 -9.376636e+01 1.563982e+00 -5.007402e-01 -7.903893e-01 -1.589313e+00 -8.698091e-01 -1.752911e+00 -6.107405e-02 -2.768425e+00 3.240761e+00 -8.967367e+00 1.292329e+01 -5.893253e+00 -3.038968e+00 -1.822694e+01 -6.886978e+00 -5.120884e+00 -3.397115e+00 -1.653375e+01 -1.497296e+01 -5.676489e+00 4.775280e+00 -1.572336e+01 -1.670943e+01 -1.410583e+01 6.630065e+00 -9.770268e+00 -1.583542e+01 -2.004629e+01 -3.937140e+00 -4.380180e+00 -1.756206e+01 -2.520592e+01 -2.194917e+01 -1.595686e+00 -6.944720e+00 -2.566428e+01 -3.487791e+01 -1.076977e+01 1.007986e+01 -1.564185e+01 -3.253116e+01 -2.263362e+01 3.036043e+00 -6.888025e+00 -4.186682e+01 -2.725232e+01 -3.026429e+01 -2.502600e+00 -5.265684e+00 1.969179e+00 6.541327e-01 1.146288e+00 1.037729e+00 5.921824e-01 8.972340e-01 5.196200e-01 8.045879e-01 8.139774e-01 4.286620e-01 
2.199543e+00 -1.116461e+00 4.604506e+00 -1.017694e+00 -8.786026e+01 1.520576e+00 -6.495604e-01 -5.442211e-01 -1.863512e+00 -5.535002e-01 -2.188213e+00 -5.647826e-01 -2.377389e+00 -3.380901e+00 -1.404153e+00 -5.951480e+00 2.025777e+00 4.431542e+00 -1.378429e+00 -7.528458e-01 7.742640e-02 1.884100e+00 -1.083985e+00 9.232742e-01 7.615978e-01 -1.496577e+00 -1.477308e+00 4.517765e+00 -7.837595e-02 -3.374943e+00 -6.134983e-01 5.120770e+00 -7.902774e-01 -4.376005e+00 1.145053e+00 3.591513e+00 -1.196832e+00 -4.106173e+00 2.659503e+00 -6.250226e-02 -2.332899e+00 6.729734e-01 1.195416e+00 -2.899836e+00 -1.987243e+00 2.495178e+00 -4.988800e-01 -5.269654e+00 7.105772e-01 4.202999e+00 -1.082876e+00 -1.570433e-02 -6.218679e-01 -2.782116e+00 4.586706e-01 -5.517045e-01 7.386627e-01 4.877907e-01 6.025789e-01 7.163509e-01 5.984856e-01 7.177179e-01 9.121876e-01 3.527189e-01 
2.257310e+00 -1.099313e+00 4.480770e+00 -8.898648e-01 -8.225905e+01 1.642088e+00 -5.152265e-01 -5.354335e-01 -1.720314e+00 -9.008419e-01 -1.792437e+00 -9.362120e-01 -1.448991e+00 -2.107459e+00 -2.702882e-01 -3.585406e+00 1.223450e+00 1.576034e+00 8.741389e-02 -9.766506e-01 -8.129192e-02 5.465652e-01 -2.659893e-01 -2.451672e-01 -2.626219e-01 -1.260857e+00 -1.863796e-01 1.140997e+00 -6.032498e-01 -2.732703e+00 2.099709e-01 2.096065e+00 -2.295977e-01 -2.560694e+00 6.028861e-01 2.124394e+00 7.799766e-02 -1.090964e+00 5.162115e-01 6.093350e-01 -1.467623e-01 9.681161e-01 -3.820792e-01 -2.601573e+00 3.658044e-01 2.053086e+00 -2.978327e-01 -3.550580e+00 1.061480e+00 4.158497e+00 -3.245823e-01 1.591777e+00 -6.638458e-01 -1.034102e+00 8.783827e-02 -5.554794e-01 4.912825e-01 1.658718e-01 5.599084e-01 4.962244e-01 6.416269e-01 5.820799e-01 9.807988e-01 2.532154e-01 
2.242434e+00 -1.041146e+00 4.206572e+00 -5.975029e-01 -7.566341e+01 1.554253e+00 -5.143133e-01 -4.856732e-01 -1.623173e+00 -9.919446e-01 -1.548112e+00 -1.265131e+00 -9.677740e-01 -1.783764e+00 -9.900123e-02 -1.228189e+00 5.545975e-01 -4.611075e-01 -7.177523e-02 5.105819e-02 1.180917e-01 -1.225851e-01 -4.166862e-01 -1.302124e-01 3.905666e-02 -4.496638e-01 -5.121684e-01 7.061869e-03 -5.944807e-02 -5.521503e-01 -2.312556e-01 1.763614e-01 7.152862e-02 -4.890400e-01 2.312704e-01 3.573863e-01 6.162064e-02 -1.918534e-01 4.452097e-01 1.752992e-01 -4.077777e-01 1.641770e-01 2.868990e-01 -6.875595e-01 -3.104091e-01 2.844008e-01 2.917060e-01 -4.768947e-01 -4.413179e-02 1.981683e+00 -3.886626e-01 9.263310e-01 -1.979596e-01 -2.473678e-01 7.203826e-02 -2.985528e-01 3.447251e-01 8.416673e-02 4.895769e-01 3.713330e-01 6.296410e-01 4.788433e-01 9.930672e-01 1.712485e-01 
2.180846e+00 -1.016775e+00 3.978240e+00 -5.620452e-01 -6.930991e+01 1.521850e+00 -3.187741e-01 -4.288524e-01 -1.359038e+00 -9.429040e-01 -1.259092e+00 -1.053312e+00 -7.888921e-01 -1.258458e+00 -2.906523e-01 -9.688061e-01 -1.263623e-01 -6.362528e-01 3.824276e-02 -9.157251e-02 -4.209035e-02 -2.810223e-01 -1.875885e-01 -1.231124e-01 -4.577544e-02 -3.669761e-01 -3.474971e-01 -1.414755e-01 -3.617677e-02 -2.152072e-01 -2.177522e-01 -1.485848e-01 9.869916e-02 -1.361683e-02 7.605907e-02 -8.280915e-02 1.211599e-01 1.416719e-01 1.932367e-01 -6.827877e-02 -1.528539e-01 1.416493e-01 1.057990e-01 -1.792118e-01 -1.726228e-01 1.939948e-02 1.358595e-01 3.067894e-01 -7.256109e-02 6.682393e-01 -1.395397e-01 8.115684e-01 -5.009129e-02 1.779823e-01 8.626876e-02 -4.427419e-02 2.786469e-01 1.031313e-01 4.342499e-01 2.939273e-01 6.017657e-01 3.826366e-01 9.754041e-01 8.851144e-02 
2.059780e+00 -9.613522e-01 3.642401e+00 -4.229736e-01 -6.214676e+01 1.391289e+00 -2.486628e-01 -4.173937e-01 -1.185625e+00 -9.286433e-01 -1.072882e+00 -9.719317e-01 -6.785682e-01 -9.564156e-01 -3.164323e-01 -7.459428e-01 -1.292920e-01 -6.510506e-01 -1.298718e-01 -2.511183e-01 -2.855684e-02 -2.780161e-01 -1.817716e-01 -1.591484e-01 -2.823660e-02 -2.371966e-01 -2.537825e-01 -1.552120e-01 -1.973795e-02 -1.341684e-01 -1.435978e-01 -1.366302e-01 5.874779e-02 -2.796143e-02 6.037943e-02 -6.696231e-02 7.128141e-02 6.386488e-02 1.483392e-01 -3.224694e-02 -1.143478e-01 6.794251e-02 1.310435e-01 -4.282926e-02 -1.577771e-01 8.314311e-02 8.701971e-02 3.028392e-01 -1.514252e-01 4.925586e-01 -1.021893e-01 4.930642e-01 2.565737e-02 2.110334e-01 1.163340e-01 8.017416e-02 2.437528e-01 1.450045e-01 3.790539e-01 2.642430e-01 5.486387e-01 3.218315e-01 9.181733e-01 3.102274e-02 
1.898310e+00 -9.100182e-01 3.314937e+00 -4.085834e-01 -5.510483e+01 1.273726e+00 -9.606276e-02 -3.538983e-01 -9.528633e-01 -8.048011e-01 -8.903489e-01 -7.691563e-01 -6.281650e-01 -7.126133e-01 -4.076837e-01 -6.276128e-01 -3.173401e-01 -4.696201e-01 -1.445260e-01 -3.605547e-01 -9.055875e-02 -2.930393e-01 -9.799119e-02 -1.970208e-01 -3.670057e-02 -2.253051e-01 -1.540087e-01 -1.280238e-01 -1.895728e-02 -1.581851e-01 -9.863713e-02 -8.373144e-02 4.075894e-02 -5.838551e-02 2.245860e-02 -1.461823e-02 6.019385e-02 3.428527e-02 7.149852e-02 1.635228e-02 -4.526669e-02 7.966010e-02 4.797149e-02 3.044536e-02 -1.133507e-01 1.288346e-01 5.474679e-03 1.916961e-01 -9.257410e-02 2.750022e-01 -1.543274e-02 2.962534e-01 9.492428e-02 2.237425e-01 1.588155e-01 1.869692e-01 2.301612e-01 2.074552e-01 3.296077e-01 2.564968e-01 4.863203e-01 2.704623e-01 8.391324e-01 -1.776123e-02 
1.692639e+00 -8.362045e-01 2.921636e+00 -3.513184e-01 -4.745569e+01 1.118832e+00 -1.904275e-02 -3.338078e-01 -7.796780e-01 -7.315387e-01 -7.416738e-01 -6.224374e-01 -5.577423e-01 -4.854856e-01 -3.896988e-01 -5.008000e-01 -2.987690e-01 -4.105729e-01 -1.797735e-01 -4.621732e-01 -1.041650e-01 -2.689199e-01 -6.924051e-02 -2.029264e-01 -3.970227e-02 -1.485738e-01 -7.191528e-02 -1.038838e-01 -1.192118e-02 -1.394021e-01 -4.260089e-02 -4.655172e-02 2.926738e-02 -9.563145e-02 2.970513e-03 2.820713e-02 4.393980e-02 -1.704978e-02 1.952599e-02 6.851228e-02 -3.482344e-03 6.765463e-02 1.230377e-02 7.528642e-02 -8.117441e-02 1.628885e-01 -3.928683e-02 9.027848e-02 -8.679963e-02 1.987317e-01 2.066900e-02 1.258552e-01 1.161463e-01 1.768482e-01 1.688824e-01 2.280348e-01 2.007620e-01 2.407621e-01 2.683389e-01 2.501803e-01 4.066127e-01 2.343035e-01 7.325581e-01 -4.612334e-02 
1.454260e+00 -7.592913e-01 2.515100e+00 -3.596064e-01 -3.982138e+01 9.587828e-01 8.306154e-02 -3.109981e-01 -5.616023e-01 -6.619295e-01 -5.391108e-01 -4.532051e-01 -4.621572e-01 -1.489141e-01 -4.393972e-01 -3.070985e-01 -4.337994e-01 -2.540027e-01 -2.925308e-01 -6.718607e-01 -2.445278e-02 -2.140556e-01 -7.733097e-02 -2.543174e-01 7.394590e-02 -8.390064e-02 -1.032676e-01 -7.295156e-02 6.177340e-02 -1.850966e-01 -5.232249e-02 3.160315e-02 2.936836e-02 -1.872759e-01 -3.736727e-03 1.344698e-01 -8.423435e-03 -1.117951e-01 5.688860e-02 1.802775e-01 -7.609308e-02 3.648144e-02 8.456851e-02 1.422190e-01 -1.670829e-01 2.568039e-01 -6.464225e-02 -5.947644e-02 -1.226599e-01 8.710941e-02 5.472950e-02 -1.853572e-01 2.674117e-01 1.686813e-01 2.350516e-01 3.441856e-01 1.638534e-01 3.017661e-01 1.872486e-01 2.438478e-01 3.122845e-01 1.930026e-01 6.098822e-01 -7.029930e-02 
1.189339e+00 -6.708442e-01 2.073961e+00 -3.525106e-01 -3.178678e+01 7.893328e-01 1.481732e-01 -2.964297e-01 -3.807915e-01 -6.173579e-01 -3.608446e-01 -3.619319e-01 -3.362676e-01 1.854356e-01 -4.341992e-01 1.526048e-01 -5.079489e-01 -6.417777e-01 -3.282331e-01 -6.834429e-01 6.459731e-02 -1.453393e-01 -9.283098e-02 -3.215350e-01 1.374148e-01 2.304450e-01 -1.107772e-01 -3.610736e-01 1.541325e-01 1.833283e-01 -6.609906e-02 -2.810776e-01 7.102913e-02 5.736119e-02 -4.942947e-02 -2.597665e-02 -3.366826e-02 -7.492028e-02 2.944587e-02 3.077658e-01 -1.030510e-01 -1.883151e-01 1.466917e-01 5.463749e-01 -2.285889e-01 -7.475975e-02 -4.070829e-02 2.559993e-01 -1.820452e-01 -3.685326e-01 9.334306e-02 -3.730969e-01 3.592093e-01 2.662515e-01 2.343588e-01 4.336626e-01 9.228238e-02 3.210129e-01 9.576105e-02 2.200324e-01 2.111984e-01 1.533673e-01 4.728937e-01 -8.293040e-02 
9.036740e-01 -5.656629e-01 1.597480e+00 -3.482938e-01 -2.366235e+01 6.143783e-01 1.739575e-01 -3.129808e-01 -1.965790e-01 -7.440916e-01 -5.954921e-02 -5.810085e-01 9.436836e-02 7.015824e-01 -3.860431e-01 1.644315e+00 -9.691672e-01 -1.743119e+00 -8.034676e-01 -7.491486e-01 9.474173e-01 2.298541e-01 -7.350140e-01 -9.672356e-01 1.097689e+00 1.568423e+00 -9.837804e-01 -1.790871e+00 8.732534e-01 1.702248e+00 -5.019417e-01 -1.611958e+00 2.279854e-01 1.069138e+00 2.749603e-02 -5.896965e-01 -3.996966e-01 -8.060579e-02 7.250744e-01 1.016725e+00 -9.897881e-01 -1.486529e+00 1.246344e+00 2.298290e+00 -1.076776e+00 -1.558035e+00 4.166403e-01 2.017085e+00 -6.569325e-01 -1.735166e+00 -1.011773e-01 -1.224098e+00 1.097632e+00 9.082723e-01 2.503214e-01 6.994362e-01 -1.130823e-01 2.984460e-01 -5.839023e-02 1.465612e-01 9.687393e-02 9.151870e-02 3.324661e-01 -9.420747e-02 
6.080797e-01 -4.546834e-01 1.112786e+00 -3.444847e-01 -1.535302e+01 4.394795e-01 2.032221e-01 -2.776955e-01 -3.617289e-02 -7.310130e-01 1.214722e-01 -7.979059e-01 4.333081e-01 -2.831000e-01 7.110093e-01 7.603514e-01 -1.576263e+00 -1.344323e+00 2.130899e+00 1.739205e+00 1.057061e+00 5.057659e-01 9.112137e-01 8.914445e-01 1.531125e+00 9.059413e-01 3.192632e-01 -5.789598e-02 2.171757e+00 1.612150e+00 -3.105850e-01 -3.869493e-01 2.177644e+00 2.252963e+00 -4.182905e-01 -1.444304e-02 1.911794e+00 2.174107e+00 6.511445e-01 3.585754e-01 1.368798e+00 1.058866e+00 2.383461e+00 1.361072e+00 5.275378e-02 5.595031e-01 2.657783e+00 2.766509e+00 -8.436790e-01 -5.459043e-01 2.138159e+00 5.222394e-01 1.423825e+00 1.728820e+00 4.779363e-02 7.770822e-01 -3.086159e-01 2.016618e-01 -1.743507e-01 6.024829e-02 1.392170e-04 3.242257e-02 1.919874e-01 -9.817420e-02 
3.068382e-01 -2.865150e-01 5.574534e-01 -2.082858e-01 -6.859621e+00 2.490690e-01 9.774599e-02 -1.257036e-01 -7.609555e-02 -7.272029e-01 6.147745e-02 -2.559312e+00 1.852153e+00 -8.586026e+00 6.761782e+00 -7.123693e+00 -2.246477e+00 7.322319e-01 2.405158e+01 3.010110e+01 1.103760e+01 -9.027898e-01 1.476913e+01 3.113662e+01 1.875655e+01 -4.521333e+00 7.207043e+00 2.782474e+01 2.380053e+01 4.495173e+00 1.866320e+00 1.673013e+01 2.226184e+01 1.465635e+01 2.080114e+00 5.037954e+00 2.230006e+01 2.863762e+01 1.054452e+01 -6.171465e+00 1.515598e+01 3.608951e+01 2.317001e+01 -3.446458e+00 4.985278e+00 2.481580e+01 2.536712e+01 1.143793e+01 -1.719411e-02 1.685550e+01 2.204321e+01 3.355995e+01 5.835387e+00 5.441802e+00 -1.644235e+00 -1.305242e-01 -9.356659e-01 -2.822700e-01 -3.013563e-01 -9.567769e-02 -6.033933e-02 -2.552598e-02 7.375726e-02 -8.529806e-02 
4.998919e-03 -1.285241e-01 3.205944e-02 -1.455486e-01 1.588711e+00 6.731519e-02 7.658532e-02 -3.110505e-02 1.230868e-02 -6.831745e-01 1.749044e-01 -3.172273e+00 2.440006e+00 -1.123122e+01 9.164340e+00 -1.140779e+01 -8.901093e-01 8.540714e+00 3.603712e+01 3.831353e+01 1.111262e+01 6.957370e-01 2.631474e+01 4.653002e+01 2.059566e+01 -9.250796e+00 1.719582e+01 4.748024e+01 2.707901e+01 -2.326680e+00 6.304189e+00 3.238623e+01 2.827088e+01 1.100019e+01 2.425978e+00 1.312883e+01 3.222758e+01 3.403670e+01 9.725185e+00 -6.557045e+00 2.668392e+01 5.162694e+01 2.322409e+01 -1.028778e+01 1.274901e+01 4.106717e+01 2.815452e+01 4.392307e+00 2.619259e+00 3.046538e+01 2.791409e+01 4.066101e+01 3.679160e+00 4.194588e+00 -2.351813e+00 -8.319612e-01 -1.024330e+00 -5.252369e-01 -3.043860e-01 -1.832145e-01 -1.025757e-01 -7.047357e-02 -4.633967e-02 -7.047147e-02 
-3.000270e-01 9.822348e-02 -5.694623e-01 6.662755e-02 1.019344e+01 -2.553420e-01 5.850238e-02 1.547690e-01 2.472281e-01 3.707016e-01 9.604326e-02 9.569460e-01 -6.137000e-01 2.969537e+00 -2.544283e+00 3.685374e+00 -2.325656e-01 -3.529663e+00 -9.977635e+00 -7.440487e+00 -2.026116e+00 -3.626420e-01 -8.763759e+00 -1.222508e+01 -4.640409e+00 3.800095e+00 -6.962260e+00 -1.536501e+01 -7.349850e+00 2.663883e+00 -3.089979e+00 -1.221843e+01 -9.083452e+00 -1.904068e+00 -9.160286e-01 -6.158117e+00 -1.220942e+01 -1.122870e+01 -2.472521e+00 2.027269e+00 -1.192104e+01 -2.063549e+01 -7.416880e+00 5.205772e+00 -6.552679e+00 -1.864083e+01 -1.060796e+01 -3.992208e-01 -1.570753e+00 -1.526470e+01 -1.268282e+01 -1.773965e+01 -8.018757e-01 -1.717348e+00 1.050311e+00 3.205866e-01 3.820154e-01 1.897811e-01 4.228925e-02 2.651005e-02 -7.478059e-02 -3.642836e-02 -1.470671e-01 -2.834399e-02 