# vtk DataFile Version 2.0
Comment goes here
ASCII

DATASET STRUCTURED_POINTS
FIELD FieldData 1
TIME 1 1 double
0.05800000
DIMENSIONS    64   64   1

ORIGIN    0.000   0.000   0.000
SPACING   0.03125 0.03125   1.000

POINT_DATA   4096
SCALARS P double
LOOKUP_TABLE default

-3.791602e+01 -2.042820e+02 -2.555066e+01 -2.118561e+02 8.308016e+01 1.330470e+02 -2.329840e+01 1.260189e+02 -2.851046e+01 1.182777e+02 -3.612732e+01 1.120369e+02 -3.800261e+01 9.862881e+01 -3.314415e+01 8.142784e+01 -2.384381e+01 6.000180e+01 -1.316071e+01 4.028295e+01 -7.807064e+00 2.623888e+01 -7.931588e+00 1.548058e+01 -1.130685e+01 7.769582e+00 -1.918774e+01 4.678345e+00 -2.876853e+01 -1.153622e+00 -3.454624e+01 -1.103916e+01 -3.720799e+01 -2.346225e+01 -3.755712e+01 -3.753745e+01 -3.876966e+01 -4.798525e+01 -4.543807e+01 -5.442735e+01 -5.248589e+01 -6.349865e+01 -5.490102e+01 -7.631747e+01 -5.563593e+01 -9.096887e+01 -5.590695e+01 -1.024491e+02 -6.188262e+01 -1.063583e+02 -7.337778e+01 -1.071423e+02 -8.397388e+01 -1.122446e+02 -8.432304e+01 -1.290037e+02 -7.300768e+01 -1.518716e+02 -5.976120e+01 -1.740671e+02 -4.816504e+01 -1.927314e+02 -3.829955e+01 -2.069672e+02 
-9.214252e+00 -1.324948e+02 -1.898244e+00 -1.389450e+02 7.817651e+01 1.169409e+02 -1.491621e+00 1.109150e+02 -5.121007e+00 1.046056e+02 -1.015430e+01 9.940982e+01 -1.196157e+01 9.019902e+01 -1.039315e+01 7.932718e+01 -6.660895e+00 6.610752e+01 -2.086672e+00 5.375206e+01 -1.946604e-01 4.414023e+01 -6.197219e-01 3.566971e+01 -2.038844e+00 2.830194e+01 -5.432492e+00 2.336998e+01 -9.523559e+00 1.679859e+01 -1.152856e+01 8.308773e+00 -1.214062e+01 -1.318868e+00 -1.157433e+01 -1.179911e+01 -1.142460e+01 -2.031804e+01 -1.434987e+01 -2.655387e+01 -1.757266e+01 -3.420097e+01 -1.832577e+01 -4.377343e+01 -1.834747e+01 -5.436217e+01 -1.783118e+01 -6.339777e+01 -2.029446e+01 -6.835083e+01 -2.558876e+01 -7.156983e+01 -3.069197e+01 -7.652522e+01 -3.078166e+01 -8.723724e+01 -2.509350e+01 -1.006171e+02 -1.886024e+01 -1.132515e+02 -1.352961e+01 -1.240745e+02 -8.590690e+00 -1.333613e+02 
7.549676e+00 -8.868412e+01 9.693082e+00 -9.203270e+01 3.608943e+01 1.013045e+02 9.273324e+00 9.769065e+01 7.522749e+00 9.313823e+01 5.510746e+00 8.828362e+01 4.267951e+00 8.221167e+01 3.608752e+00 7.575326e+01 3.331436e+00 6.868417e+01 3.333158e+00 6.163797e+01 3.036622e+00 5.480608e+01 2.699891e+00 4.771513e+01 2.528496e+00 4.048310e+01 2.179140e+00 3.356595e+01 1.826957e+00 2.624576e+01 1.846329e+00 1.875303e+01 1.955137e+00 1.122318e+01 2.211793e+00 3.570346e+00 2.441823e+00 -3.757085e+00 2.145197e+00 -1.061524e+01 1.810295e+00 -1.763957e+01 1.929582e+00 -2.485696e+01 2.186537e+00 -3.221883e+01 2.740408e+00 -3.936884e+01 2.925965e+00 -4.584163e+01 2.764640e+00 -5.195480e+01 2.514828e+00 -5.792091e+01 2.825232e+00 -6.439363e+01 3.890007e+00 -7.076521e+01 4.887091e+00 -7.653636e+01 5.859637e+00 -8.173358e+01 7.174334e+00 -8.674727e+01 
7.550781e+00 -9.274576e+01 1.002632e+01 -9.619864e+01 1.248285e+01 1.042607e+02 9.743867e+00 1.001831e+02 7.311058e+00 9.520967e+01 5.233737e+00 8.974181e+01 3.882499e+00 8.342496e+01 3.185320e+00 7.655091e+01 2.949018e+00 6.921218e+01 2.921270e+00 6.184477e+01 2.722667e+00 5.463634e+01 2.408068e+00 4.742477e+01 2.117369e+00 4.024090e+01 1.778731e+00 3.318697e+01 1.517655e+00 2.590407e+01 1.513807e+00 1.840509e+01 1.688260e+00 1.077812e+01 1.986910e+00 3.129489e+00 2.194054e+00 -4.264944e+00 2.018898e+00 -1.136431e+01 1.723152e+00 -1.853118e+01 1.639103e+00 -2.586625e+01 1.671418e+00 -3.324658e+01 1.764547e+00 -4.032362e+01 1.568699e+00 -4.681793e+01 1.126643e+00 -5.297362e+01 7.691271e-01 -5.915915e+01 1.044988e+00 -6.575743e+01 2.073217e+00 -7.242884e+01 3.372778e+00 -7.871560e+01 4.777010e+00 -8.443789e+01 6.306592e+00 -8.941830e+01 
7.786898e+00 -9.030010e+01 9.685410e+00 -9.374153e+01 1.194941e+01 1.013855e+02 9.510008e+00 9.765924e+01 7.530674e+00 9.303394e+01 5.870313e+00 8.781228e+01 4.685224e+00 8.190111e+01 3.916326e+00 7.552727e+01 3.444120e+00 6.876654e+01 3.152803e+00 6.184982e+01 2.853957e+00 5.488337e+01 2.567121e+00 4.779853e+01 2.342244e+00 4.064086e+01 2.113912e+00 3.349635e+01 1.941145e+00 2.621240e+01 1.904937e+00 1.882234e+01 1.951127e+00 1.138754e+01 2.050734e+00 3.952080e+00 2.110161e+00 -3.345086e+00 2.008637e+00 -1.047722e+01 1.892284e+00 -1.761286e+01 1.936851e+00 -2.479130e+01 2.092786e+00 -3.196117e+01 2.342381e+00 -3.896652e+01 2.494801e+00 -4.564945e+01 2.546914e+00 -5.208908e+01 2.639180e+00 -5.840538e+01 3.007786e+00 -6.474558e+01 3.715478e+00 -7.092057e+01 4.556135e+00 -7.670059e+01 5.513230e+00 -8.199597e+01 6.649007e+00 -8.674629e+01 
7.211177e+00 -9.433960e+01 9.176181e+00 -9.825911e+01 1.106368e+01 1.035449e+02 9.141208e+00 9.966295e+01 7.137832e+00 9.479414e+01 5.446985e+00 8.922940e+01 4.227451e+00 8.302956e+01 3.443290e+00 7.634045e+01 2.977694e+00 6.929692e+01 2.692801e+00 6.210139e+01 2.425176e+00 5.487997e+01 2.146570e+00 4.763973e+01 1.894739e+00 4.040233e+01 1.666106e+00 3.316996e+01 1.525118e+00 2.584499e+01 1.505401e+00 1.841214e+01 1.592699e+00 1.091648e+01 1.720715e+00 3.430002e+00 1.789173e+00 -3.950378e+00 1.708065e+00 -1.121804e+01 1.554937e+00 -1.847687e+01 1.459074e+00 -2.575918e+01 1.409944e+00 -3.299687e+01 1.385402e+00 -4.004126e+01 1.283839e+00 -4.679512e+01 1.150654e+00 -5.333827e+01 1.144918e+00 -5.982634e+01 1.480981e+00 -6.637000e+01 2.218211e+00 -7.284587e+01 3.222813e+00 -7.904154e+01 4.412025e+00 -8.479536e+01 5.763839e+00 -8.995913e+01 
7.267151e+00 -9.283574e+01 8.815399e+00 -9.713527e+01 1.050266e+01 1.019395e+02 8.862688e+00 9.791504e+01 7.206700e+00 9.317904e+01 5.809753e+00 8.782459e+01 4.752337e+00 8.192252e+01 3.992209e+00 7.559491e+01 3.445727e+00 6.893886e+01 3.048566e+00 6.206573e+01 2.725673e+00 5.506173e+01 2.442829e+00 4.794920e+01 2.227267e+00 4.077044e+01 2.044980e+00 3.355243e+01 1.940865e+00 2.626639e+01 1.905286e+00 1.892645e+01 1.922152e+00 1.155613e+01 1.956940e+00 4.194781e+00 1.954824e+00 -3.111424e+00 1.903109e+00 -1.034848e+01 1.837621e+00 -1.756025e+01 1.856932e+00 -2.475207e+01 1.940761e+00 -3.188419e+01 2.083771e+00 -3.889313e+01 2.219931e+00 -4.571372e+01 2.344361e+00 -5.236948e+01 2.547632e+00 -5.889717e+01 2.916336e+00 -6.531757e+01 3.477757e+00 -7.155311e+01 4.188597e+00 -7.749750e+01 5.045994e+00 -8.307774e+01 6.072307e+00 -8.822487e+01 
6.352158e+00 -9.669088e+01 7.867092e+00 -1.014418e+02 9.348014e+00 1.041534e+02 8.018814e+00 9.980222e+01 6.543567e+00 9.480498e+01 5.224821e+00 8.917847e+01 4.196225e+00 8.300724e+01 3.444300e+00 7.640179e+01 2.898941e+00 6.947966e+01 2.519259e+00 6.235371e+01 2.213377e+00 5.513159e+01 1.936758e+00 4.785583e+01 1.716637e+00 4.056033e+01 1.524886e+00 3.324108e+01 1.444302e+00 2.588070e+01 1.420940e+00 1.847256e+01 1.478030e+00 1.103857e+01 1.531338e+00 3.611426e+00 1.539411e+00 -3.773197e+00 1.471029e+00 -1.111095e+01 1.341805e+00 -1.843208e+01 1.247177e+00 -2.572869e+01 1.159297e+00 -3.296301e+01 1.126691e+00 -4.006337e+01 1.089061e+00 -4.699441e+01 1.105290e+00 -5.377456e+01 1.240555e+00 -6.046400e+01 1.580740e+00 -6.709502e+01 2.161817e+00 -7.361354e+01 2.953939e+00 -7.991901e+01 3.926282e+00 -8.591566e+01 5.062907e+00 -9.152231e+01 
6.287681e+00 -9.581776e+01 7.465889e+00 -1.009877e+02 8.715862e+00 1.036139e+02 7.641609e+00 9.890494e+01 6.472574e+00 9.382435e+01 5.416601e+00 8.827706e+01 4.568326e+00 8.228666e+01 3.907848e+00 7.592549e+01 3.369152e+00 6.927881e+01 2.941608e+00 6.237696e+01 2.618296e+00 5.532206e+01 2.315429e+00 4.815100e+01 2.124981e+00 4.092361e+01 1.950737e+00 3.366663e+01 1.899169e+00 2.636581e+01 1.882557e+00 1.905677e+01 1.899372e+00 1.171582e+01 1.918085e+00 4.376466e+00 1.868780e+00 -2.956948e+00 1.823840e+00 -1.026033e+01 1.730119e+00 -1.754132e+01 1.737880e+00 -2.478729e+01 1.771653e+00 -3.194497e+01 1.873226e+00 -3.902017e+01 2.002010e+00 -4.596038e+01 2.117635e+00 -5.279633e+01 2.341678e+00 -5.951845e+01 2.680987e+00 -6.610537e+01 3.139988e+00 -7.252214e+01 3.720461e+00 -7.872898e+01 4.431451e+00 -8.469387e+01 5.284900e+00 -9.039159e+01 
5.169471e+00 -9.940343e+01 6.256786e+00 -1.049534e+02 7.309744e+00 1.059239e+02 6.513272e+00 1.008460e+02 5.578043e+00 9.545145e+01 4.674639e+00 8.962368e+01 3.910780e+00 8.336437e+01 3.281743e+00 7.672853e+01 2.737086e+00 6.982837e+01 2.345444e+00 6.267291e+01 2.035253e+00 5.541617e+01 1.735146e+00 4.808281e+01 1.549066e+00 4.073228e+01 1.334766e+00 3.335185e+01 1.329437e+00 2.595868e+01 1.296716e+00 1.855926e+01 1.381207e+00 1.114888e+01 1.401928e+00 3.739864e+00 1.371592e+00 -3.663154e+00 1.292929e+00 -1.104829e+01 1.117036e+00 -1.843767e+01 1.038993e+00 -2.578946e+01 9.017890e-01 -3.308416e+01 9.079084e-01 -4.027551e+01 8.962788e-01 -4.735614e+01 9.873339e-01 -5.431441e+01 1.175376e+00 -6.117547e+01 1.485670e+00 -6.794996e+01 1.942209e+00 -7.461572e+01 2.549032e+00 -8.113321e+01 3.298551e+00 -8.745886e+01 4.177859e+00 -9.355537e+01 
5.012741e+00 -9.891341e+01 5.791661e+00 -1.048600e+02 6.572351e+00 1.061457e+02 6.036287e+00 1.006687e+02 5.390386e+00 9.507260e+01 4.749602e+00 8.920502e+01 4.199037e+00 8.301442e+01 3.724642e+00 7.651789e+01 3.252284e+00 6.983961e+01 2.811619e+00 6.280657e+01 2.529201e+00 5.566235e+01 2.144976e+00 4.838713e+01 2.017464e+00 4.108848e+01 1.799938e+00 3.381737e+01 1.838078e+00 2.647610e+01 1.857356e+00 1.922223e+01 1.898185e+00 1.187750e+01 1.948367e+00 4.545878e+00 1.806555e+00 -2.843099e+00 1.782754e+00 -1.021206e+01 1.572679e+00 -1.757084e+01 1.605067e+00 -2.491952e+01 1.587197e+00 -3.210518e+01 1.675539e+00 -3.929771e+01 1.822531e+00 -4.633752e+01 1.842300e+00 -5.335675e+01 2.059313e+00 -6.028562e+01 2.351618e+00 -6.706420e+01 2.704892e+00 -7.369703e+01 3.141829e+00 -8.019618e+01 3.674046e+00 -8.656417e+01 4.301146e+00 -9.280088e+01 
3.780612e+00 -1.021879e+02 4.427360e+00 -1.084539e+02 4.988414e+00 1.085093e+02 4.726448e+00 1.026789e+02 4.326130e+00 9.675227e+01 3.877136e+00 9.059010e+01 3.458414e+00 8.412236e+01 3.040770e+00 7.731661e+01 2.533296e+00 7.039975e+01 2.171736e+00 6.305522e+01 1.878524e+00 5.574734e+01 1.485773e+00 4.830743e+01 1.387085e+00 4.091766e+01 1.034358e+00 3.347575e+01 1.223181e+00 2.604706e+01 1.124818e+00 1.867049e+01 1.343663e+00 1.125709e+01 1.336752e+00 3.858548e+00 1.258190e+00 -3.593259e+00 1.183444e+00 -1.101077e+01 8.480949e-01 -1.850402e+01 8.667029e-01 -2.593248e+01 5.892183e-01 -3.332655e+01 7.174158e-01 -4.063038e+01 6.676724e-01 -4.785258e+01 8.006592e-01 -5.496774e+01 1.010724e+00 -6.197902e+01 1.267069e+00 -6.889904e+01 1.596405e+00 -7.573740e+01 2.021753e+00 -8.249868e+01 2.542103e+00 -8.917107e+01 3.138585e+00 -9.573829e+01 
3.551466e+00 -1.019139e+02 3.899983e+00 -1.085400e+02 4.143273e+00 1.092413e+02 4.157157e+00 1.030335e+02 4.034656e+00 9.687422e+01 3.854061e+00 9.061314e+01 3.693715e+00 8.412998e+01 3.518016e+00 7.734597e+01 3.193083e+00 7.069740e+01 2.654906e+00 6.329329e+01 2.496845e+00 5.608712e+01 1.843889e+00 4.860446e+01 1.905666e+00 4.122743e+01 1.524329e+00 3.400784e+01 1.771511e+00 2.653832e+01 1.835963e+00 1.948454e+01 1.936758e+00 1.203700e+01 2.109816e+00 4.771423e+00 1.712653e+00 -2.776457e+00 1.826798e+00 -1.018570e+01 1.300451e+00 -1.764903e+01 1.481756e+00 -2.518245e+01 1.374196e+00 -3.229181e+01 1.483398e+00 -3.973919e+01 1.726105e+00 -4.678836e+01 1.476320e+00 -5.405603e+01 1.720461e+00 -6.119688e+01 1.948228e+00 -6.812521e+01 2.179446e+00 -7.494936e+01 2.463281e+00 -8.172990e+01 2.800434e+00 -8.848166e+01 3.172600e+00 -9.520845e+01 
2.268596e+00 -1.048665e+02 2.456277e+00 -1.117624e+02 2.449826e+00 1.116122e+02 2.738559e+00 1.050832e+02 2.848315e+00 9.860347e+01 2.860080e+00 9.205259e+01 2.866234e+00 8.531827e+01 2.815938e+00 7.816635e+01 2.435949e+00 7.122313e+01 2.018233e+00 6.336941e+01 1.751578e+00 5.614755e+01 1.079781e+00 4.844532e+01 1.254826e+00 4.114709e+01 4.676449e-01 3.354512e+01 1.214487e+00 2.615423e+01 8.192506e-01 1.881201e+01 1.468375e+00 1.138751e+01 1.352808e+00 4.010318e+00 1.177846e+00 -3.582237e+00 1.197705e+00 -1.095089e+01 3.998182e-01 -1.867932e+01 8.192273e-01 -2.609225e+01 9.808426e-02 -3.369297e+01 6.383771e-01 -4.109070e+01 3.693696e-01 -4.850986e+01 5.308052e-01 -5.577649e+01 7.982177e-01 -6.286115e+01 9.652751e-01 -6.986338e+01 1.149231e+00 -7.685621e+01 1.395159e+00 -8.386602e+01 1.688308e+00 -9.088013e+01 1.994153e+00 -9.788372e+01 
1.991885e+00 -1.047006e+02 1.891200e+00 -1.119160e+02 1.536781e+00 1.126425e+02 2.107101e+00 1.057723e+02 2.458238e+00 9.907605e+01 2.702636e+00 9.245399e+01 2.971166e+00 8.571496e+01 3.280509e+00 7.850293e+01 3.575097e+00 7.171320e+01 2.275832e+00 6.367976e+01 2.650993e+00 5.662947e+01 1.196989e+00 4.861273e+01 1.765036e+00 4.135555e+01 1.030884e+00 3.412194e+01 1.670937e+00 2.652116e+01 1.786170e+00 1.992348e+01 2.078166e+00 1.220100e+01 2.512005e+00 5.171201e+00 1.485651e+00 -2.872540e+00 2.031842e+00 -1.008303e+01 7.654962e-01 -1.792603e+01 1.360524e+00 -2.553865e+01 1.093021e+00 -3.243478e+01 1.370254e+00 -4.035463e+01 1.785022e+00 -4.730361e+01 9.536079e-01 -5.505597e+01 1.328344e+00 -6.222084e+01 1.451618e+00 -6.915552e+01 1.563298e+00 -7.613934e+01 1.707621e+00 -8.319812e+01 1.851930e+00 -9.031351e+01 1.960542e+00 -9.748041e+01 
7.082705e-01 -1.073406e+02 4.333383e-01 -1.147829e+02 -1.697170e-01 1.149749e+02 6.752960e-01 1.078233e+02 1.226323e+00 1.008299e+02 1.583683e+00 9.389827e+01 1.865362e+00 8.694285e+01 2.307543e+00 8.011737e+01 2.734116e+00 7.085736e+01 1.104999e+00 6.398610e+01 1.746104e+00 5.616700e+01 1.471900e-01 4.840198e+01 1.092854e+00 4.152795e+01 -6.965147e-01 3.286544e+01 9.507156e-01 2.690757e+01 -3.596173e-02 1.821095e+01 1.665786e+00 1.227513e+01 1.298748e+00 3.569182e+00 9.369325e-01 -3.345398e+00 1.490634e+00 -1.109784e+01 -6.906906e-01 -1.932054e+01 9.222631e-01 -2.577671e+01 -1.133401e+00 -3.480835e+01 8.490071e-01 -4.092489e+01 -4.576020e-01 -5.005638e+01 6.655939e-02 -5.686387e+01 6.168407e-01 -6.368955e+01 5.609834e-01 -7.066298e+01 6.020039e-01 -7.783981e+01 6.990312e-01 -8.513269e+01 7.814282e-01 -9.248707e+01 8.016300e-01 -9.989009e+01 
4.159560e-01 -1.072140e+02 -1.243850e-01 -1.149378e+02 -1.045720e+00 1.161488e+02 5.804948e-02 1.086592e+02 8.084460e-01 1.014068e+02 1.320732e+00 9.439872e+01 1.789665e+00 8.786006e+01 2.798251e+00 8.256977e+01 5.335371e+00 7.012133e+01 6.789093e-01 6.522835e+01 2.941891e+00 5.644960e+01 3.146622e-01 4.795035e+01 6.670400e-01 4.268496e+01 1.202808e+00 3.163300e+01 2.416267e-01 2.870929e+01 1.570273e+00 1.763414e+01 1.539010e+00 1.455509e+01 2.828148e+00 3.745664e+00 5.688522e-01 -2.406364e+00 1.849474e+00 -9.848607e+00 2.060135e-01 -2.015691e+01 1.436246e-01 -2.402459e+01 5.158833e-01 -3.547970e+01 6.063950e-01 -3.854169e+01 8.155198e-01 -5.022346e+01 -1.489419e-01 -5.682698e+01 6.601735e-01 -6.287995e+01 7.727145e-01 -6.989022e+01 8.748790e-01 -7.716436e+01 9.221827e-01 -8.454119e+01 8.836911e-01 -9.199998e+01 7.299567e-01 -9.955324e+01 
-8.260801e-01 -1.095606e+02 -1.538173e+00 -1.174765e+02 -2.677454e+00 1.183833e+02 -1.284156e+00 1.106694e+02 -2.781688e-01 1.032327e+02 4.673237e-01 9.613287e+01 1.101142e+00 8.961811e+01 1.947200e+00 8.416687e+01 3.342435e+00 7.092085e+01 9.531584e-01 6.630579e+01 2.601080e+00 5.669321e+01 3.134911e-01 4.851879e+01 6.313534e-01 4.316559e+01 1.058945e+00 3.126194e+01 3.572596e-01 2.964264e+01 1.721788e+00 1.662752e+01 1.815844e+00 1.581800e+01 3.431029e+00 2.329948e+00 4.508430e-01 -1.723024e+00 2.061003e+00 -1.068123e+01 1.297401e-01 -2.082307e+01 -2.915733e-01 -2.357492e+01 1.033204e+00 -3.720430e+01 3.297944e-01 -3.698537e+01 2.513869e+00 -5.360050e+01 -1.197512e+00 -5.734334e+01 -5.210566e-01 -6.345309e+01 -1.633960e-01 -7.103823e+01 1.798287e-03 -7.867420e+01 2.879933e-03 -8.629791e+01 -1.189578e-01 -9.396427e+01 -3.782976e-01 -1.017119e+02 
-1.101697e+00 -1.094265e+02 -2.050608e+00 -1.175925e+02 -3.462135e+00 1.196296e+02 -1.841167e+00 1.116200e+02 -6.233704e-01 1.039351e+02 3.104786e-01 9.655985e+01 1.021353e+00 8.946245e+01 1.437451e+00 8.235487e+01 3.340507e-01 7.195809e+01 1.621703e+00 6.509430e+01 1.564528e+00 5.694829e+01 6.338808e-01 4.876793e+01 1.377381e+00 4.246643e+01 -1.401433e-01 3.277623e+01 1.171026e+00 2.785443e+01 3.556339e-01 1.827552e+01 1.905737e+00 1.325923e+01 1.798424e+00 3.864319e+00 1.015718e+00 -2.956803e+00 1.742770e+00 -1.039047e+01 -2.038986e-03 -1.965835e+01 4.530624e-01 -2.480568e+01 1.523004e-01 -3.502096e+01 4.393059e-01 -3.938854e+01 1.029420e+00 -5.006799e+01 -7.195811e-01 -5.702392e+01 -9.471681e-02 -6.346767e+01 1.611874e-01 -7.070816e+01 2.636214e-01 -7.819467e+01 1.934333e-01 -8.580432e+01 -4.025578e-02 -9.353241e+01 -4.558155e-01 -1.013999e+02 
-2.270328e+00 -1.115008e+02 -3.378341e+00 -1.198329e+02 -4.993523e+00 1.216848e+02 -3.121664e+00 1.134696e+02 -1.677498e+00 1.055683e+02 -5.205481e-01 9.791737e+01 4.471421e-01 9.029049e+01 1.146805e+00 8.219873e+01 1.604248e+00 7.465306e+01 8.992847e-01 6.590999e+01 1.864648e+00 5.821672e+01 4.713014e-01 4.984010e+01 1.515873e+00 4.235995e+01 3.125703e-01 3.444760e+01 1.510048e+00 2.714712e+01 1.159512e+00 1.972990e+01 1.947948e+00 1.244690e+01 2.116290e+00 4.625106e+00 1.133579e+00 -3.182282e+00 1.820449e+00 -1.081006e+01 -1.808454e-01 -1.907198e+01 9.702564e-01 -2.629155e+01 -2.469528e-01 -3.441088e+01 6.988641e-01 -4.152365e+01 2.925977e-01 -5.013413e+01 -3.752787e-01 -5.737863e+01 -1.708009e-01 -6.461516e+01 -3.186360e-01 -7.202808e+01 -4.438300e-01 -7.964944e+01 -6.393355e-01 -8.741406e+01 -9.736502e-01 -9.529998e+01 -1.496586e+00 -1.033217e+02 
-2.501351e+00 -1.113265e+02 -3.822927e+00 -1.198774e+02 -5.685058e+00 1.228327e+02 -3.648365e+00 1.143154e+02 -2.077337e+00 1.061020e+02 -8.682768e-01 9.810703e+01 3.910204e-02 9.015738e+01 6.175601e-01 8.198232e+01 1.018283e+00 7.409275e+01 9.980052e-01 6.585810e+01 1.417572e+00 5.804973e+01 8.879065e-01 5.008449e+01 1.339227e+00 4.242055e+01 7.327843e-01 3.478711e+01 1.462868e+00 2.706712e+01 1.327800e+00 1.985942e+01 1.841051e+00 1.214711e+01 1.951812e+00 4.814879e+00 1.448721e+00 -3.081935e+00 1.658399e+00 -1.046426e+01 6.597727e-01 -1.831623e+01 1.145034e+00 -2.597517e+01 5.865210e-01 -3.331499e+01 1.026150e+00 -4.124160e+01 9.170657e-01 -4.861085e+01 2.542623e-01 -5.662133e+01 3.271741e-01 -6.414580e+01 1.335464e-01 -7.159746e+01 -1.040800e-01 -7.919114e+01 -4.159675e-01 -8.695263e+01 -8.760668e-01 -9.488291e+01 -1.548084e+00 -1.029991e+02 
-3.574847e+00 -1.131521e+02 -5.037659e+00 -1.218436e+02 -7.076136e+00 1.246196e+02 -4.825989e+00 1.159083e+02 -3.050157e+00 1.074725e+02 -1.647999e+00 9.922423e+01 -5.611139e-01 9.104711e+01 2.290772e-01 8.290250e+01 8.235581e-01 7.512871e+01 6.706076e-01 6.683226e+01 1.143551e+00 5.883103e+01 7.681130e-01 5.071825e+01 1.170907e+00 4.283840e+01 8.006526e-01 3.511002e+01 1.314385e+00 2.733802e+01 1.298506e+00 1.991591e+01 1.598664e+00 1.221748e+01 1.668771e+00 4.661552e+00 1.280666e+00 -3.183027e+00 1.329813e+00 -1.083645e+01 5.181523e-01 -1.873857e+01 8.043754e-01 -2.650510e+01 1.736995e-01 -3.417637e+01 4.504181e-01 -4.200716e+01 1.124337e-01 -4.967136e+01 -1.223624e-01 -5.745867e+01 -1.547837e-01 -6.512058e+01 -4.111276e-01 -7.277033e+01 -7.494323e-01 -8.052075e+01 -1.168053e+00 -8.841468e+01 -1.729328e+00 -9.646833e+01 -2.505000e+00 -1.047039e+02 
-3.743017e+00 -1.129104e+02 -5.402500e+00 -1.217882e+02 -7.687351e+00 1.256044e+02 -5.299613e+00 1.166369e+02 -3.426920e+00 1.079518e+02 -1.970696e+00 9.948009e+01 -8.679307e-01 9.114139e+01 -8.451460e-02 8.288989e+01 4.469598e-01 7.482067e+01 6.607467e-01 6.673070e+01 9.920028e-01 5.871550e+01 9.312345e-01 5.078004e+01 1.159602e+00 4.290898e+01 1.022012e+00 3.519778e+01 1.323820e+00 2.743937e+01 1.400609e+00 1.992619e+01 1.593003e+00 1.228871e+01 1.688058e+00 4.740756e+00 1.466936e+00 -2.930669e+00 1.456436e+00 -1.054743e+01 9.994284e-01 -1.823104e+01 1.055596e+00 -2.597060e+01 7.528281e-01 -3.351771e+01 7.850241e-01 -4.129625e+01 6.443649e-01 -4.889703e+01 3.135769e-01 -5.671214e+01 2.120273e-01 -6.448873e+01 -3.864758e-02 -7.221445e+01 -4.221687e-01 -8.000031e+01 -9.274822e-01 -8.792193e+01 -1.600830e+00 -9.602228e+01 -2.511526e+00 -1.043382e+02 
-4.712732e+00 -1.145101e+02 -6.494153e+00 -1.234994e+02 -8.930662e+00 1.271072e+02 -6.355799e+00 1.179871e+02 -4.306885e+00 1.091394e+02 -2.688233e+00 1.005130e+02 -1.434759e+00 9.206341e+01 -5.031910e-01 8.377238e+01 1.218919e-01 7.566019e+01 3.786524e-01 6.747595e+01 7.106842e-01 5.935330e+01 7.472171e-01 5.126763e+01 9.622570e-01 4.328677e+01 9.236699e-01 3.543655e+01 1.166533e+00 2.763048e+01 1.245088e+00 1.997265e+01 1.388823e+00 1.227626e+01 1.415412e+00 4.601522e+00 1.241462e+00 -3.150900e+00 1.132722e+00 -1.089837e+01 7.353950e-01 -1.871220e+01 6.686310e-01 -2.651596e+01 3.246000e-01 -3.426402e+01 2.731587e-01 -4.206524e+01 4.031815e-02 -4.982400e+01 -1.654211e-01 -5.764601e+01 -3.247096e-01 -6.546922e+01 -6.211918e-01 -7.330512e+01 -1.056610e+00 -8.120977e+01 -1.630566e+00 -8.923922e+01 -2.382939e+00 -9.743722e+01 -3.381207e+00 -1.058450e+02 
-4.805257e+00 -1.141786e+02 -6.761990e+00 -1.233226e+02 -9.426406e+00 1.279175e+02 -6.731011e+00 1.185976e+02 -4.596866e+00 1.095663e+02 -2.919960e+00 1.007807e+02 -1.631316e+00 9.220089e+01 -6.800630e-01 8.379451e+01 -2.393773e-02 7.555258e+01 3.732447e-01 6.739155e+01 7.174738e-01 5.928555e+01 8.634914e-01 5.127139e+01 1.049178e+00 4.332477e+01 1.093231e+00 3.550415e+01 1.265697e+00 2.772414e+01 1.380221e+00 2.006319e+01 1.492098e+00 1.241087e+01 1.554426e+00 4.777626e+00 1.452061e+00 -2.881732e+00 1.375529e+00 -1.055903e+01 1.120349e+00 -1.825162e+01 1.018395e+00 -2.598082e+01 8.084991e-01 -3.364919e+01 6.905675e-01 -4.139087e+01 5.231842e-01 -4.912516e+01 2.507406e-01 -5.694535e+01 3.446034e-02 -6.480853e+01 -2.799150e-01 -7.268852e+01 -7.472912e-01 -8.062793e+01 -1.382598e+00 -8.869040e+01 -2.223133e+00 -9.693360e+01 -3.334191e+00 -1.054104e+02 
-5.666730e+00 -1.155730e+02 -7.722353e+00 -1.247983e+02 -1.051256e+01 1.291395e+02 -7.655310e+00 1.197136e+02 -5.373188e+00 1.105737e+02 -3.561587e+00 1.016863e+02 -2.152219e+00 9.302250e+01 -1.097173e+00 8.455373e+01 -3.671293e-01 7.625206e+01 7.596188e-02 6.799162e+01 4.469736e-01 5.978761e+01 6.313568e-01 5.165525e+01 8.286914e-01 4.360741e+01 9.006030e-01 3.568220e+01 1.065483e+00 2.782582e+01 1.169198e+00 2.007414e+01 1.262982e+00 1.234123e+01 1.290039e+00 4.617549e+00 1.180485e+00 -3.140270e+00 1.055498e+00 -1.092360e+01 7.849092e-01 -1.873131e+01 6.211912e-01 -2.655228e+01 3.644277e-01 -3.434063e+01 2.016804e-01 -4.215774e+01 -1.035820e-02 -4.998222e+01 -2.547568e-01 -5.785743e+01 -4.987862e-01 -6.576976e+01 -8.514312e-01 -7.371788e+01 -1.358700e+00 -8.173575e+01 -2.041584e+00 -8.987619e+01 -2.938981e+00 -9.819244e+01 -4.116655e+00 -1.067373e+02 
-5.670150e+00 -1.151358e+02 -7.872698e+00 -1.244851e+02 -1.085675e+01 1.297560e+02 -7.899594e+00 1.201797e+02 -5.546530e+00 1.109061e+02 -3.682611e+00 1.018995e+02 -2.234646e+00 9.313059e+01 -1.142347e+00 8.457708e+01 -3.496261e-01 7.621807e+01 1.315853e-01 6.794786e+01 5.531246e-01 5.973033e+01 7.724929e-01 5.164394e+01 9.763792e-01 4.360776e+01 1.083370e+00 3.574942e+01 1.215036e+00 2.791160e+01 1.358801e+00 2.020853e+01 1.431921e+00 1.252397e+01 1.517529e+00 4.852047e+00 1.430062e+00 -2.833490e+00 1.366703e+00 -1.056219e+01 1.159723e+00 -1.826296e+01 1.011519e+00 -2.603789e+01 8.323819e-01 -3.373180e+01 6.380184e-01 -4.150595e+01 4.732951e-01 -4.929229e+01 1.510515e-01 -5.716105e+01 -1.345159e-01 -6.510009e+01 -5.096818e-01 -7.306775e+01 -1.048046e+00 -8.110052e+01 -1.777739e+00 -8.926265e+01 -2.741121e+00 -9.761532e+01 -4.006722e+00 -1.062168e+02 
-6.417591e+00 -1.163447e+02 -8.691941e+00 -1.257451e+02 -1.177138e+01 1.306933e+02 -8.681680e+00 1.210541e+02 -6.210052e+00 1.117153e+02 -4.237736e+00 1.026429e+02 -2.694182e+00 9.380869e+01 -1.528825e+00 8.519366e+01 -6.820175e-01 7.678959e+01 -1.720339e-01 6.841615e+01 2.945765e-01 6.011005e+01 5.056715e-01 5.192092e+01 7.353666e-01 4.378996e+01 8.170562e-01 3.584602e+01 9.732607e-01 2.792847e+01 1.100298e+00 2.016878e+01 1.174789e+00 1.240873e+01 1.249900e+00 4.672662e+00 1.127901e+00 -3.112034e+00 1.046380e+00 -1.093649e+01 7.745645e-01 -1.875181e+01 6.064982e-01 -2.662931e+01 3.626527e-01 -3.441051e+01 1.524460e-01 -4.226706e+01 -3.856909e-02 -5.010653e+01 -3.599012e-01 -5.804117e+01 -6.498268e-01 -6.602547e+01 -1.053087e+00 -7.403378e+01 -1.623860e+00 -8.211368e+01 -2.387093e+00 -9.032812e+01 -3.388226e+00 -9.873259e+01 -4.698832e+00 -1.073816e+02 
-6.316075e+00 -1.157921e+02 -8.704321e+00 -1.252860e+02 -1.193909e+01 1.310815e+02 -8.774768e+00 1.213383e+02 -6.253472e+00 1.119141e+02 -4.240762e+00 1.027655e+02 -2.660851e+00 9.385233e+01 -1.456026e+00 8.518090e+01 -5.057000e-01 7.679100e+01 -4.528803e-02 6.838890e+01 4.975076e-01 6.002405e+01 6.945205e-01 5.190929e+01 9.249026e-01 4.372207e+01 1.044718e+00 3.594365e+01 1.140962e+00 2.797990e+01 1.358170e+00 2.034495e+01 1.371364e+00 1.262603e+01 1.567279e+00 4.957747e+00 1.402680e+00 -2.763616e+00 1.414896e+00 -1.057507e+01 1.173625e+00 -1.823423e+01 1.009294e+00 -2.615839e+01 8.639693e-01 -3.376141e+01 5.807763e-01 -4.163338e+01 5.016196e-01 -4.939099e+01 3.505261e-02 -5.733776e+01 -2.828198e-01 -6.535813e+01 -7.059246e-01 -7.335232e+01 -1.303391e+00 -8.141902e+01 -2.096539e+00 -8.964058e+01 -3.140204e+00 -9.807159e+01 -4.512580e+00 -1.067649e+02 
-6.941880e+00 -1.168351e+02 -9.371701e+00 -1.263498e+02 -1.266666e+01 1.317233e+02 -9.404035e+00 1.219583e+02 -6.797854e+00 1.125109e+02 -4.704826e+00 1.033364e+02 -3.046959e+00 9.438337e+01 -1.787913e+00 8.564145e+01 -8.080202e-01 7.726701e+01 -3.448939e-01 6.869147e+01 2.694882e-01 6.030400e+01 3.829839e-01 5.205789e+01 6.799172e-01 4.381453e+01 6.867471e-01 3.593181e+01 8.746983e-01 2.790371e+01 1.041701e+00 2.025953e+01 1.093907e+00 1.245770e+01 1.303662e+00 4.793004e+00 1.069107e+00 -3.073508e+00 1.110735e+00 -1.092920e+01 7.233880e-01 -1.876441e+01 6.138194e-01 -2.676677e+01 3.403788e-01 -3.445046e+01 9.955631e-02 -4.241425e+01 -1.312310e-02 -5.015788e+01 -4.791790e-01 -5.821557e+01 -7.706976e-01 -6.624497e+01 -1.220770e+00 -7.424264e+01 -1.841043e+00 -8.233417e+01 -2.651064e+00 -9.059301e+01 -3.712735e+00 -9.906133e+01 -5.108129e+00 -1.077852e+02 
-6.717710e+00 -1.161613e+02 -9.224852e+00 -1.257389e+02 -1.263293e+01 1.318422e+02 -9.330249e+00 1.220139e+02 -6.708524e+00 1.125299e+02 -4.599383e+00 1.033496e+02 -2.909058e+00 9.437902e+01 -1.617536e+00 8.556381e+01 -4.609086e-01 7.736009e+01 -9.578046e-02 6.855125e+01 5.344801e-01 6.018420e+01 6.705243e-01 5.202282e+01 8.433304e-01 4.363623e+01 1.001826e+00 3.612010e+01 1.024903e+00 2.784248e+01 1.356811e+00 2.052616e+01 1.303593e+00 1.265980e+01 1.700977e+00 5.193048e+00 1.381619e+00 -2.741638e+00 1.483910e+00 -1.055197e+01 1.217919e+00 -1.817593e+01 9.708906e-01 -2.638517e+01 9.110042e-01 -3.366149e+01 5.262547e-01 -4.185148e+01 6.245123e-01 -4.933145e+01 -6.289556e-02 -5.759112e+01 -4.325107e-01 -6.558880e+01 -8.996695e-01 -7.349435e+01 -1.514580e+00 -8.155636e+01 -2.320687e+00 -8.982134e+01 -3.397581e+00 -9.831063e+01 -4.828696e+00 -1.070666e+02 
-7.213596e+00 -1.170569e+02 -9.729218e+00 -1.266257e+02 -1.315580e+01 1.321756e+02 -9.795126e+00 1.223629e+02 -7.127559e+00 1.128943e+02 -4.977353e+00 1.037349e+02 -3.241698e+00 9.479791e+01 -1.870096e+00 8.598855e+01 -7.442018e-01 7.762293e+01 -3.961463e-01 6.860065e+01 3.361982e-01 6.044251e+01 2.877638e-01 5.189217e+01 5.286819e-01 4.382735e+01 4.725161e-01 3.572173e+01 6.507588e-01 2.785645e+01 9.348102e-01 2.020914e+01 9.724228e-01 1.254233e+01 1.464122e+00 5.018734e+00 1.001731e+00 -3.137568e+00 1.186274e+00 -1.074906e+01 6.382422e-01 -1.901787e+01 4.953571e-01 -2.677630e+01 2.224938e-01 -3.464651e+01 8.661630e-03 -4.249025e+01 5.266168e-02 -5.017937e+01 -6.015117e-01 -5.856045e+01 -9.226901e-01 -6.639007e+01 -1.406003e+00 -7.427310e+01 -2.013104e+00 -8.236797e+01 -2.811608e+00 -9.067154e+01 -3.886781e+00 -9.918926e+01 -5.319934e+00 -1.079604e+02 
-6.850021e+00 -1.162558e+02 -9.401440e+00 -1.258594e+02 -1.287942e+01 1.319989e+02 -9.533109e+00 1.221421e+02 -6.897530e+00 1.126388e+02 -4.792513e+00 1.034916e+02 -3.086293e+00 9.477520e+01 -1.583332e+00 8.645466e+01 -4.643415e-01 7.740985e+01 5.641056e-01 6.800399e+01 -1.879675e-02 6.070559e+01 1.286899e+00 5.110638e+01 1.095910e-02 4.434623e+01 1.158751e+00 3.502284e+01 5.411886e-01 2.842833e+01 1.044841e+00 1.982182e+01 1.369092e+00 1.316749e+01 1.521903e+00 5.470648e+00 1.835155e+00 -3.167555e+00 8.823950e-01 -9.712278e+00 1.883809e+00 -1.936684e+01 1.950701e-01 -2.556234e+01 9.176705e-01 -3.464853e+01 4.523162e-01 -4.119616e+01 5.245944e-01 -4.956370e+01 2.191037e-01 -5.847995e+01 -9.790438e-01 -6.547615e+01 -1.183145e+00 -7.335329e+01 -1.650998e+00 -8.150141e+01 -2.408546e+00 -8.982421e+01 -3.482207e+00 -9.835083e+01 -4.930469e+00 -1.071357e+02 
-7.210334e+00 -1.170198e+02 -9.733766e+00 -1.265865e+02 -1.317954e+01 1.320228e+02 -9.823748e+00 1.222110e+02 -7.181004e+00 1.127453e+02 -5.069464e+00 1.036477e+02 -3.341326e+00 9.506556e+01 -1.734451e+00 8.703258e+01 -4.561574e-01 7.749455e+01 6.915941e-01 6.805608e+01 -4.953838e-01 6.104754e+01 1.441925e+00 5.082190e+01 -5.118470e-01 4.480839e+01 1.223596e+00 3.448498e+01 2.443710e-01 2.884033e+01 8.820191e-01 1.929610e+01 1.250979e+00 1.342979e+01 1.275271e+00 5.258899e+00 1.782233e+00 -3.489677e+00 4.037509e-01 -9.710849e+00 1.913764e+00 -2.022066e+01 -3.120627e-01 -2.557871e+01 7.426881e-01 -3.564731e+01 1.590506e-01 -4.131193e+01 2.392398e-01 -5.051825e+01 -5.014200e-03 -5.939303e+01 -1.522480e+00 -6.605582e+01 -1.643839e+00 -7.401669e+01 -2.072905e+00 -8.223849e+01 -2.817013e+00 -9.059788e+01 -3.879916e+00 -9.913793e+01 -5.312558e+00 -1.079193e+02 