# vtk DataFile Version 2.0
Comment goes here
ASCII

DATASET STRUCTURED_POINTS
FIELD FieldData 1
TIME 1 1 double
0.04600000
DIMENSIONS    64   64   1

ORIGIN    0.000   0.000   0.000
SPACING   0.03125 0.03125   1.000

POINT_DATA   4096
VECTORS u double

0.755036 -0.006519 0.000000 -1.304452 0.001116 0.000000 0.425565 -0.004154 0.000000 -1.209143 0.003366 0.000000 0.226315 0.003506 0.000000 -1.150089 0.002539 0.000000 0.327904 -0.004100 0.000000 -1.088999 0.002685 0.000000 0.364849 -0.003000 0.000000 -1.005377 0.002218 0.000000 0.318224 -0.002201 0.000000 -0.865474 0.001516 0.000000 0.205779 -0.001244 0.000000 -0.699508 0.000635 0.000000 0.071992 -0.000186 0.000000 -0.535886 -0.000068 0.000000 -0.057481 0.000624 0.000000 -0.390397 -0.000707 0.000000 -0.168107 0.001332 0.000000 -0.270063 -0.000918 0.000000 -0.255053 0.001354 0.000000 -0.175314 0.000851 0.000000 -0.320273 0.002271 0.000000 -0.098843 0.000966 0.000000 -0.373347 0.002770 0.000000 -0.030027 0.000223 0.000000 -0.427537 0.002167 0.000000 0.048663 -0.000203 0.000000 -0.505099 0.003710 0.000000 0.157524 -0.000656 0.000000 -0.619108 0.004634 0.000000 0.296172 -0.001535 0.000000 -0.760693 0.005430 0.000000 0.451399 -0.002003 0.000000 -0.909378 0.005779 0.000000 0.593506 -0.001974 0.000000 -1.034557 0.005251 0.000000 0.688979 -0.001895 0.000000 -1.095920 0.004753 0.000000 0.707581 -0.001699 0.000000 -1.080927 0.005074 0.000000 0.648056 -0.001271 0.000000 -0.995382 0.004891 0.000000 0.528803 -0.000812 0.000000 -0.866889 0.004479 0.000000 0.381897 -0.000590 0.000000 -0.721545 0.004243 0.000000 0.228890 -0.000149 0.000000 -0.587859 0.003940 0.000000 0.097683 -0.000433 0.000000 -0.479925 0.003600 0.000000 -0.018660 -0.000050 0.000000 -0.375680 0.002711 0.000000 -0.157765 0.000295 0.000000 -0.232483 0.001585 0.000000 -0.351040 0.000798 0.000000 -0.045037 0.000305 0.000000 -0.585025 0.001460 0.000000 0.158156 -0.000882 0.000000 -0.826878 0.002042 0.000000 0.345494 -0.001893 0.000000 -1.052507 0.002545 0.000000 0.501060 -0.003826 0.000000 -1.271563 0.008901 0.000000 
-0.610385 0.014085 0.000000 0.330335 0.168563 0.000000 -0.203374 -0.049892 0.000000 0.256554 0.102453 0.000000 0.022409 -0.037970 0.000000 0.227341 -0.047947 0.000000 -0.168845 -0.032289 0.000000 0.185686 -0.016258 0.000000 -0.279213 -0.043885 0.000000 0.142783 0.025039 0.000000 -0.316583 -0.071666 0.000000 0.071388 0.057193 0.000000 -0.303464 -0.084163 0.000000 -0.010140 0.067071 0.000000 -0.272763 -0.082525 0.000000 -0.088222 0.063998 0.000000 -0.238313 -0.072736 0.000000 -0.157680 0.053892 0.000000 -0.209626 -0.059691 0.000000 -0.214727 0.041382 0.000000 -0.190204 -0.046544 0.000000 -0.260576 0.029394 0.000000 -0.177991 -0.038237 0.000000 -0.296932 0.022986 0.000000 -0.169713 -0.034426 0.000000 -0.329484 0.023928 0.000000 -0.160761 -0.038362 0.000000 -0.367024 0.035076 0.000000 -0.138805 -0.053831 0.000000 -0.418279 0.052925 0.000000 -0.095877 -0.068287 0.000000 -0.484499 0.066113 0.000000 -0.036412 -0.076226 0.000000 -0.559000 0.069228 0.000000 0.031351 -0.069356 0.000000 -0.628021 0.057788 0.000000 0.092033 -0.046493 0.000000 -0.673967 0.026454 0.000000 0.122820 -0.008282 0.000000 -0.679535 -0.010890 0.000000 0.115709 0.030074 0.000000 -0.644995 -0.046675 0.000000 0.075334 0.060137 0.000000 -0.582142 -0.068134 0.000000 0.016784 0.073480 0.000000 -0.506880 -0.075746 0.000000 -0.049900 0.076276 0.000000 -0.428556 -0.069912 0.000000 -0.106595 0.065624 0.000000 -0.364628 -0.056869 0.000000 -0.144500 0.058505 0.000000 -0.311179 -0.054888 0.000000 -0.173891 0.069884 0.000000 -0.247535 -0.073514 0.000000 -0.218686 0.096523 0.000000 -0.154508 -0.094461 0.000000 -0.281188 0.116163 0.000000 -0.040520 -0.101078 0.000000 -0.344406 0.119196 0.000000 0.078685 -0.091865 0.000000 -0.392489 0.110321 0.000000 0.192153 -0.075069 0.000000 -0.418775 0.107238 0.000000 0.319915 -0.125987 0.000000 
0.846906 -0.016939 0.000000 0.590271 -0.405894 0.000000 0.889308 0.069628 0.000000 0.517243 -0.222417 0.000000 0.650929 0.032718 0.000000 0.462541 0.193792 0.000000 1.030435 0.037555 0.000000 0.471547 0.113054 0.000000 1.280903 0.039902 0.000000 0.431224 0.039588 0.000000 1.503602 0.069195 0.000000 0.337898 -0.011602 0.000000 1.718880 0.080283 0.000000 0.226179 -0.030067 0.000000 1.912026 0.077897 0.000000 0.119572 -0.034518 0.000000 2.077562 0.070082 0.000000 0.031376 -0.029395 0.000000 2.213130 0.058380 0.000000 -0.033844 -0.020340 0.000000 2.320636 0.047203 0.000000 -0.075700 -0.011362 0.000000 2.401945 0.038627 0.000000 -0.103604 -0.007312 0.000000 2.465672 0.035321 0.000000 -0.122429 -0.008729 0.000000 2.523398 0.039708 0.000000 -0.143250 -0.022160 0.000000 2.589690 0.054965 0.000000 -0.187033 -0.043584 0.000000 2.674353 0.070854 0.000000 -0.254321 -0.061000 0.000000 2.771371 0.079930 0.000000 -0.339132 -0.069766 0.000000 2.868940 0.074800 0.000000 -0.423983 -0.062656 0.000000 2.948029 0.051198 0.000000 -0.486641 -0.032682 0.000000 2.980941 0.010321 0.000000 -0.502018 0.005413 0.000000 2.961053 -0.029466 0.000000 -0.470725 0.039105 0.000000 2.891902 -0.057963 0.000000 -0.401634 0.057738 0.000000 2.794341 -0.070783 0.000000 -0.315958 0.066094 0.000000 2.683372 -0.074081 0.000000 -0.226546 0.056547 0.000000 2.576203 -0.059987 0.000000 -0.155207 0.037472 0.000000 2.481990 -0.049849 0.000000 -0.098451 0.029340 0.000000 2.381705 -0.060934 0.000000 -0.028892 0.045091 0.000000 2.239558 -0.091441 0.000000 0.077281 0.063300 0.000000 2.048441 -0.113684 0.000000 0.209039 0.064679 0.000000 1.825039 -0.120087 0.000000 0.342569 0.050124 0.000000 1.584510 -0.115361 0.000000 0.467591 0.028832 0.000000 1.322025 -0.131588 0.000000 0.612399 0.200510 0.000000 
2.778843 0.036214 0.000000 -0.049817 0.126161 0.000000 1.906280 0.023136 0.000000 -0.092253 0.340833 0.000000 0.926095 0.016732 0.000000 -0.062004 -0.427453 0.000000 2.052116 -0.041296 0.000000 -0.041806 -0.266726 0.000000 2.710141 -0.003562 0.000000 -0.022383 -0.197661 0.000000 3.139767 0.021659 0.000000 0.015882 -0.158085 0.000000 3.438163 0.027556 0.000000 0.059011 -0.126076 0.000000 3.662961 0.024082 0.000000 0.098901 -0.101537 0.000000 3.838927 0.015461 0.000000 0.133049 -0.081677 0.000000 3.980207 0.005528 0.000000 0.159301 -0.066124 0.000000 4.096174 -0.004688 0.000000 0.177775 -0.051915 0.000000 4.192870 -0.010332 0.000000 0.189337 -0.040741 0.000000 4.272448 -0.015602 0.000000 0.196249 -0.033798 0.000000 4.336612 -0.017541 0.000000 0.202383 -0.031215 0.000000 4.380417 -0.010048 0.000000 0.215735 -0.031738 0.000000 4.401212 -0.000999 0.000000 0.238118 -0.030904 0.000000 4.401859 0.008584 0.000000 0.268537 -0.028341 0.000000 4.386484 0.015494 0.000000 0.301037 -0.021300 0.000000 4.362269 0.016165 0.000000 0.326288 -0.006459 0.000000 4.342296 0.007095 0.000000 0.333670 0.008997 0.000000 4.330054 -0.001218 0.000000 0.323630 0.022476 0.000000 4.322083 -0.008954 0.000000 0.301538 0.029427 0.000000 4.308782 -0.012196 0.000000 0.274583 0.035223 0.000000 4.284432 -0.013137 0.000000 0.245839 0.037258 0.000000 4.237115 -0.005715 0.000000 0.227216 0.037344 0.000000 4.158489 0.001749 0.000000 0.217883 0.045398 0.000000 4.052915 0.000325 0.000000 0.206125 0.068634 0.000000 3.932874 -0.009651 0.000000 0.179765 0.096656 0.000000 3.793831 -0.015595 0.000000 0.143815 0.122324 0.000000 3.615831 -0.014334 0.000000 0.104526 0.148664 0.000000 3.375768 -0.014701 0.000000 0.061976 0.187416 0.000000 3.047180 -0.037570 0.000000 -0.017125 0.349132 0.000000 
2.767696 0.015753 0.000000 0.053740 0.466668 0.000000 2.100540 0.112064 0.000000 -0.019970 0.757767 0.000000 1.307033 0.002470 0.000000 -0.007503 -0.932228 0.000000 2.180123 0.017357 0.000000 -0.020721 -0.544971 0.000000 2.766650 0.020479 0.000000 0.000203 -0.390039 0.000000 3.177512 0.030930 0.000000 0.036718 -0.309998 0.000000 3.479964 0.037154 0.000000 0.075954 -0.254865 0.000000 3.714178 0.038006 0.000000 0.113096 -0.210484 0.000000 3.898982 0.035934 0.000000 0.144627 -0.170675 0.000000 4.044080 0.032128 0.000000 0.169794 -0.136306 0.000000 4.157383 0.028729 0.000000 0.187357 -0.108059 0.000000 4.247383 0.027065 0.000000 0.199858 -0.086890 0.000000 4.318576 0.028409 0.000000 0.206459 -0.072893 0.000000 4.374417 0.033574 0.000000 0.208045 -0.065965 0.000000 4.414472 0.041613 0.000000 0.211596 -0.064379 0.000000 4.440077 0.048471 0.000000 0.217553 -0.061647 0.000000 4.452842 0.049511 0.000000 0.227651 -0.054391 0.000000 4.455285 0.042301 0.000000 0.241223 -0.038441 0.000000 4.450389 0.025947 0.000000 0.255221 -0.012709 0.000000 4.442886 0.002939 0.000000 0.263015 0.017655 0.000000 4.432523 -0.019426 0.000000 0.264873 0.047076 0.000000 4.415689 -0.035871 0.000000 0.260429 0.071039 0.000000 4.387274 -0.043828 0.000000 0.251169 0.090444 0.000000 4.344157 -0.045337 0.000000 0.237903 0.103864 0.000000 4.282312 -0.041364 0.000000 0.226156 0.116098 0.000000 4.196431 -0.040516 0.000000 0.217150 0.134914 0.000000 4.086882 -0.049176 0.000000 0.206755 0.165132 0.000000 3.959023 -0.065082 0.000000 0.190180 0.202343 0.000000 3.808254 -0.077733 0.000000 0.170410 0.242679 0.000000 3.621240 -0.080798 0.000000 0.151108 0.290186 0.000000 3.380910 -0.072811 0.000000 0.127488 0.357421 0.000000 3.070081 -0.052486 0.000000 0.072017 0.468847 0.000000 
2.856215 0.054491 0.000000 -0.035050 0.793316 0.000000 2.313433 0.096845 0.000000 -0.051398 1.134340 0.000000 1.674079 0.004265 0.000000 -0.055512 -1.300543 0.000000 2.318237 -0.028078 0.000000 -0.033654 -0.853252 0.000000 2.853209 -0.024486 0.000000 -0.008299 -0.608522 0.000000 3.246236 -0.014855 0.000000 0.024468 -0.460537 0.000000 3.536866 -0.011680 0.000000 0.061577 -0.360290 0.000000 3.759338 -0.013060 0.000000 0.098399 -0.286341 0.000000 3.933439 -0.016070 0.000000 0.131557 -0.226775 0.000000 4.068733 -0.019639 0.000000 0.159865 -0.179427 0.000000 4.175216 -0.022251 0.000000 0.182260 -0.141914 0.000000 4.259854 -0.022833 0.000000 0.199394 -0.111934 0.000000 4.326850 -0.022203 0.000000 0.212664 -0.089639 0.000000 4.379454 -0.019127 0.000000 0.224289 -0.071271 0.000000 4.415434 -0.013599 0.000000 0.238279 -0.057343 0.000000 4.435885 -0.006956 0.000000 0.255268 -0.043669 0.000000 4.440955 -0.001513 0.000000 0.275207 -0.030785 0.000000 4.435343 0.001922 0.000000 0.294849 -0.016404 0.000000 4.423615 0.002168 0.000000 0.310185 0.001044 0.000000 4.411330 -0.000700 0.000000 0.316516 0.019361 0.000000 4.400148 -0.003076 0.000000 0.312615 0.039310 0.000000 4.386231 -0.004510 0.000000 0.300674 0.057842 0.000000 4.365294 -0.002936 0.000000 0.283112 0.078340 0.000000 4.330456 0.000130 0.000000 0.263624 0.099103 0.000000 4.276958 0.006032 0.000000 0.245289 0.123225 0.000000 4.200107 0.010756 0.000000 0.228191 0.154946 0.000000 4.101494 0.010720 0.000000 0.207910 0.196493 0.000000 3.984681 0.006924 0.000000 0.179910 0.247425 0.000000 3.846405 0.004175 0.000000 0.144797 0.309337 0.000000 3.675974 0.004968 0.000000 0.104689 0.388994 0.000000 3.459754 0.008920 0.000000 0.059445 0.498245 0.000000 3.185989 0.017901 0.000000 0.005174 0.651518 0.000000 
2.961488 0.055977 0.000000 0.054159 1.009450 0.000000 2.534616 0.128412 0.000000 0.021624 1.397121 0.000000 2.026989 0.006583 0.000000 0.017621 -1.576386 0.000000 2.507449 -0.004501 0.000000 0.012959 -1.079943 0.000000 2.944804 -0.004876 0.000000 0.024380 -0.783066 0.000000 3.291757 -0.001837 0.000000 0.049023 -0.600627 0.000000 3.562767 0.000045 0.000000 0.080480 -0.477336 0.000000 3.778470 0.001183 0.000000 0.113825 -0.384585 0.000000 3.952424 0.002776 0.000000 0.144295 -0.305969 0.000000 4.087916 0.003821 0.000000 0.169851 -0.242790 0.000000 4.193148 0.006334 0.000000 0.189179 -0.192697 0.000000 4.276272 0.009931 0.000000 0.202548 -0.153886 0.000000 4.340914 0.015139 0.000000 0.211020 -0.125497 0.000000 4.392856 0.021949 0.000000 0.215105 -0.101944 0.000000 4.428981 0.027623 0.000000 0.219427 -0.084830 0.000000 4.454214 0.031482 0.000000 0.224603 -0.066717 0.000000 4.466962 0.029572 0.000000 0.232733 -0.048780 0.000000 4.470973 0.022659 0.000000 0.242813 -0.026712 0.000000 4.468913 0.010611 0.000000 0.252852 -0.000424 0.000000 4.462038 -0.003392 0.000000 0.259898 0.028837 0.000000 4.452329 -0.015524 0.000000 0.261805 0.060992 0.000000 4.434308 -0.023930 0.000000 0.259544 0.091976 0.000000 4.407803 -0.026267 0.000000 0.252105 0.125282 0.000000 4.365639 -0.025849 0.000000 0.241743 0.157362 0.000000 4.307326 -0.023029 0.000000 0.229034 0.192949 0.000000 4.229491 -0.023418 0.000000 0.214985 0.233526 0.000000 4.130942 -0.028895 0.000000 0.199632 0.281945 0.000000 4.014384 -0.037081 0.000000 0.182143 0.340619 0.000000 3.877607 -0.042621 0.000000 0.163165 0.413111 0.000000 3.712920 -0.040691 0.000000 0.142783 0.506406 0.000000 3.510524 -0.027567 0.000000 0.118169 0.631186 0.000000 3.261875 0.001785 0.000000 0.084598 0.798621 0.000000 
3.124657 0.084930 0.000000 0.005629 1.220188 0.000000 2.773948 0.129380 0.000000 -0.007691 1.641967 0.000000 2.365355 0.008269 0.000000 -0.011363 -1.781003 0.000000 2.719295 -0.023416 0.000000 -0.004946 -1.290607 0.000000 3.083812 -0.035906 0.000000 0.012204 -0.955475 0.000000 3.392488 -0.039499 0.000000 0.037978 -0.731548 0.000000 3.640333 -0.043137 0.000000 0.070039 -0.575992 0.000000 3.840048 -0.046405 0.000000 0.104496 -0.460295 0.000000 4.002433 -0.046540 0.000000 0.136637 -0.362267 0.000000 4.125173 -0.045196 0.000000 0.165582 -0.284660 0.000000 4.220290 -0.041578 0.000000 0.188516 -0.225038 0.000000 4.295096 -0.036203 0.000000 0.206782 -0.176576 0.000000 4.353309 -0.030675 0.000000 0.221105 -0.141581 0.000000 4.401398 -0.023212 0.000000 0.232049 -0.107395 0.000000 4.432683 -0.017921 0.000000 0.243935 -0.082576 0.000000 4.454303 -0.012132 0.000000 0.255877 -0.056417 0.000000 4.460680 -0.009643 0.000000 0.270552 -0.034796 0.000000 4.459229 -0.008158 0.000000 0.284638 -0.014345 0.000000 4.451544 -0.007871 0.000000 0.296748 0.007919 0.000000 4.441471 -0.007746 0.000000 0.303163 0.029069 0.000000 4.431716 -0.004982 0.000000 0.301636 0.057331 0.000000 4.416453 -0.002249 0.000000 0.294297 0.084347 0.000000 4.396938 0.004503 0.000000 0.279764 0.120504 0.000000 4.361770 0.010492 0.000000 0.262661 0.157416 0.000000 4.311983 0.018741 0.000000 0.241795 0.201060 0.000000 4.241581 0.024805 0.000000 0.219399 0.253495 0.000000 4.153090 0.026073 0.000000 0.195075 0.313051 0.000000 4.049611 0.024413 0.000000 0.167723 0.384202 0.000000 3.929324 0.023153 0.000000 0.137434 0.474025 0.000000 3.785552 0.025350 0.000000 0.104708 0.591390 0.000000 3.609591 0.033534 0.000000 0.069744 0.746894 0.000000 3.392840 0.051472 0.000000 0.033983 0.951904 0.000000 
3.279679 0.084331 0.000000 0.067852 1.360158 0.000000 3.006142 0.141733 0.000000 0.049873 1.805714 0.000000 2.690656 0.010255 0.000000 0.046315 -1.930327 0.000000 2.944841 -0.010918 0.000000 0.040231 -1.444459 0.000000 3.224505 -0.022026 0.000000 0.044423 -1.091741 0.000000 3.479803 -0.027610 0.000000 0.060404 -0.848473 0.000000 3.697716 -0.032016 0.000000 0.086742 -0.677052 0.000000 3.882655 -0.033273 0.000000 0.119956 -0.546970 0.000000 4.041260 -0.029365 0.000000 0.152663 -0.428709 0.000000 4.160328 -0.025124 0.000000 0.179832 -0.337907 0.000000 4.249714 -0.016600 0.000000 0.199761 -0.267503 0.000000 4.322252 -0.008335 0.000000 0.212407 -0.212099 0.000000 4.375379 0.000816 0.000000 0.220651 -0.173586 0.000000 4.424825 0.011005 0.000000 0.222937 -0.133230 0.000000 4.453860 0.015738 0.000000 0.226088 -0.106450 0.000000 4.479104 0.019540 0.000000 0.228950 -0.073094 0.000000 4.489168 0.014897 0.000000 0.235463 -0.047329 0.000000 4.492237 0.008573 0.000000 0.244063 -0.019027 0.000000 4.491985 -0.001499 0.000000 0.253199 0.009648 0.000000 4.484597 -0.009807 0.000000 0.261030 0.038593 0.000000 4.480064 -0.013998 0.000000 0.262582 0.076256 0.000000 4.462327 -0.016591 0.000000 0.262179 0.111491 0.000000 4.443251 -0.011734 0.000000 0.255113 0.160450 0.000000 4.403739 -0.008746 0.000000 0.246547 0.207148 0.000000 4.351349 -0.002163 0.000000 0.232572 0.263351 0.000000 4.282189 -0.001022 0.000000 0.213149 0.322018 0.000000 4.192419 -0.004570 0.000000 0.192000 0.385424 0.000000 4.090110 -0.009729 0.000000 0.171474 0.460906 0.000000 3.975807 -0.012332 0.000000 0.152257 0.556882 0.000000 3.844182 -0.007965 0.000000 0.133393 0.682367 0.000000 3.688504 0.007397 0.000000 0.112998 0.847937 0.000000 3.502670 0.037546 0.000000 0.090142 1.066805 0.000000 
3.461420 0.107219 0.000000 0.034705 1.493724 0.000000 3.244836 0.147359 0.000000 0.026787 1.957453 0.000000 3.001117 0.011827 0.000000 0.023508 -2.035189 0.000000 3.177083 -0.017332 0.000000 0.021886 -1.570270 0.000000 3.393458 -0.040098 0.000000 0.030442 -1.210774 0.000000 3.605248 -0.055480 0.000000 0.049284 -0.949460 0.000000 3.793893 -0.069475 0.000000 0.078546 -0.760932 0.000000 3.959912 -0.079619 0.000000 0.114809 -0.618900 0.000000 4.109062 -0.079246 0.000000 0.150054 -0.481334 0.000000 4.209641 -0.072365 0.000000 0.181028 -0.374046 0.000000 4.285975 -0.061508 0.000000 0.203083 -0.297575 0.000000 4.346822 -0.048848 0.000000 0.220487 -0.229703 0.000000 4.390881 -0.038920 0.000000 0.233636 -0.191027 0.000000 4.437998 -0.025498 0.000000 0.239899 -0.136430 0.000000 4.459920 -0.021073 0.000000 0.248431 -0.107820 0.000000 4.485562 -0.014993 0.000000 0.254091 -0.066481 0.000000 4.487938 -0.016156 0.000000 0.265475 -0.037865 0.000000 4.488644 -0.016758 0.000000 0.276460 -0.014093 0.000000 4.481985 -0.017007 0.000000 0.288592 0.015307 0.000000 4.472557 -0.015577 0.000000 0.297211 0.033603 0.000000 4.468803 -0.006534 0.000000 0.296476 0.075068 0.000000 4.453138 -0.001846 0.000000 0.293460 0.103423 0.000000 4.444048 0.011568 0.000000 0.278918 0.160016 0.000000 4.409573 0.019058 0.000000 0.264466 0.209806 0.000000 4.367471 0.032716 0.000000 0.240728 0.270220 0.000000 4.300437 0.044227 0.000000 0.212831 0.343265 0.000000 4.218789 0.047222 0.000000 0.183706 0.415360 0.000000 4.130626 0.044939 0.000000 0.155400 0.498505 0.000000 4.035171 0.042370 0.000000 0.128449 0.605650 0.000000 3.926518 0.044214 0.000000 0.102346 0.747068 0.000000 3.798155 0.053929 0.000000 0.076835 0.932728 0.000000 3.644687 0.074328 0.000000 0.053256 1.174896 0.000000 
3.630826 0.102882 0.000000 0.081150 1.576743 0.000000 3.472720 0.149650 0.000000 0.073057 2.049433 0.000000 3.299157 0.013534 0.000000 0.070054 -2.106293 0.000000 3.406520 -0.009295 0.000000 0.060455 -1.660834 0.000000 3.555963 -0.030582 0.000000 0.057525 -1.303532 0.000000 3.716778 -0.046453 0.000000 0.064757 -1.037118 0.000000 3.871824 -0.061278 0.000000 0.086860 -0.843070 0.000000 4.019354 -0.069536 0.000000 0.125897 -0.696120 0.000000 4.167795 -0.064610 0.000000 0.173076 -0.529287 0.000000 4.262439 -0.056098 0.000000 0.200334 -0.414241 0.000000 4.324203 -0.038656 0.000000 0.221405 -0.328350 0.000000 4.385699 -0.025738 0.000000 0.229063 -0.256157 0.000000 4.416262 -0.012333 0.000000 0.235720 -0.220703 0.000000 4.472783 0.004741 0.000000 0.232270 -0.155152 0.000000 4.484525 0.007206 0.000000 0.230615 -0.132092 0.000000 4.516160 0.013880 0.000000 0.231721 -0.075471 0.000000 4.518731 0.003513 0.000000 0.234811 -0.048035 0.000000 4.517659 -0.002412 0.000000 0.245994 -0.012368 0.000000 4.521565 -0.013631 0.000000 0.254696 0.019076 0.000000 4.507485 -0.018427 0.000000 0.267353 0.042347 0.000000 4.518550 -0.013263 0.000000 0.265959 0.091920 0.000000 4.495087 -0.013575 0.000000 0.267201 0.120581 0.000000 4.496930 0.002808 0.000000 0.260103 0.194925 0.000000 4.457373 0.005707 0.000000 0.253930 0.249250 0.000000 4.412865 0.021575 0.000000 0.244203 0.330385 0.000000 4.352671 0.026875 0.000000 0.215111 0.403666 0.000000 4.264192 0.024555 0.000000 0.182463 0.473586 0.000000 4.176652 0.018576 0.000000 0.156694 0.556361 0.000000 4.090594 0.014620 0.000000 0.137931 0.665535 0.000000 3.998130 0.018138 0.000000 0.122821 0.810731 0.000000 3.892872 0.032907 0.000000 0.108611 1.001404 0.000000 3.771090 0.061126 0.000000 0.094423 1.250072 0.000000 
3.812006 0.120492 0.000000 0.056700 1.651831 0.000000 3.699802 0.155452 0.000000 0.054362 2.131016 0.000000 3.582216 0.014830 0.000000 0.051741 -2.142551 0.000000 3.635599 -0.007733 0.000000 0.043760 -1.719714 0.000000 3.734818 -0.037169 0.000000 0.042690 -1.371588 0.000000 3.855115 -0.062712 0.000000 0.051647 -1.104506 0.000000 3.979635 -0.091578 0.000000 0.077508 -0.908462 0.000000 4.107618 -0.118655 0.000000 0.122104 -0.767341 0.000000 4.259475 -0.126425 0.000000 0.180306 -0.575978 0.000000 4.319590 -0.099624 0.000000 0.205189 -0.435810 0.000000 4.368896 -0.082579 0.000000 0.229556 -0.359072 0.000000 4.413109 -0.056505 0.000000 0.238884 -0.260266 0.000000 4.430977 -0.045577 0.000000 0.253440 -0.247548 0.000000 4.492417 -0.022047 0.000000 0.247893 -0.148172 0.000000 4.488097 -0.019418 0.000000 0.251076 -0.139456 0.000000 4.534121 -0.016099 0.000000 0.250573 -0.069051 0.000000 4.518343 -0.019247 0.000000 0.256330 -0.036793 0.000000 4.525473 -0.027941 0.000000 0.271242 -0.017999 0.000000 4.514562 -0.025709 0.000000 0.281841 0.029387 0.000000 4.502277 -0.028234 0.000000 0.301250 0.022538 0.000000 4.513802 -0.005140 0.000000 0.294163 0.098531 0.000000 4.488848 -0.003088 0.000000 0.298843 0.101581 0.000000 4.512318 0.018666 0.000000 0.279571 0.199573 0.000000 4.469675 0.025231 0.000000 0.270655 0.254314 0.000000 4.447825 0.042444 0.000000 0.249415 0.330414 0.000000 4.370946 0.073319 0.000000 0.210339 0.431744 0.000000 4.287649 0.079870 0.000000 0.170280 0.502900 0.000000 4.216759 0.070709 0.000000 0.138956 0.584562 0.000000 4.152427 0.061133 0.000000 0.115763 0.698113 0.000000 4.084320 0.059324 0.000000 0.097036 0.852327 0.000000 4.006117 0.068138 0.000000 0.080664 1.054510 0.000000 3.915285 0.088516 0.000000 0.066774 1.315159 0.000000 
3.981019 0.112956 0.000000 0.093046 1.688947 0.000000 3.915609 0.151988 0.000000 0.092637 2.167019 0.000000 3.853256 0.016155 0.000000 0.090400 -2.159676 0.000000 3.854418 -0.001314 0.000000 0.076866 -1.760053 0.000000 3.899734 -0.029511 0.000000 0.064175 -1.423829 0.000000 3.973153 -0.055409 0.000000 0.055219 -1.161638 0.000000 4.063353 -0.087140 0.000000 0.062431 -0.971053 0.000000 4.174243 -0.114132 0.000000 0.107593 -0.847978 0.000000 4.345289 -0.122812 0.000000 0.240747 -0.589402 0.000000 4.392768 -0.080981 0.000000 0.217309 -0.463547 0.000000 4.408266 -0.063022 0.000000 0.270819 -0.372563 0.000000 4.468715 -0.035067 0.000000 0.244025 -0.274026 0.000000 4.446184 -0.026889 0.000000 0.259176 -0.282143 0.000000 4.549419 0.010289 0.000000 0.248358 -0.150832 0.000000 4.504834 0.004023 0.000000 0.218280 -0.178116 0.000000 4.575558 0.014383 0.000000 0.247158 -0.059693 0.000000 4.550187 -0.002243 0.000000 0.211886 -0.055164 0.000000 4.546491 -0.017324 0.000000 0.263915 -0.001457 0.000000 4.559876 -0.024231 0.000000 0.244694 0.031361 0.000000 4.520344 -0.037835 0.000000 0.290235 0.030822 0.000000 4.577202 -0.006176 0.000000 0.270779 0.116874 0.000000 4.514597 -0.018254 0.000000 0.266247 0.097111 0.000000 4.582678 0.022079 0.000000 0.274043 0.237569 0.000000 4.520920 0.014623 0.000000 0.246932 0.271101 0.000000 4.499815 0.042814 0.000000 0.292903 0.407264 0.000000 4.439948 0.065951 0.000000 0.226179 0.486963 0.000000 4.328869 0.064614 0.000000 0.162805 0.544476 0.000000 4.260030 0.049900 0.000000 0.131359 0.620693 0.000000 4.210862 0.037813 0.000000 0.117640 0.733642 0.000000 4.162315 0.036865 0.000000 0.110108 0.888934 0.000000 4.107835 0.049279 0.000000 0.103912 1.092236 0.000000 4.046707 0.075015 0.000000 0.098014 1.353351 0.000000 
4.153719 0.125460 0.000000 0.074389 1.717241 0.000000 4.126240 0.155861 0.000000 0.078002 2.193369 0.000000 4.109249 0.017067 0.000000 0.076220 -2.143713 0.000000 4.069508 0.005801 0.000000 0.063939 -1.765030 0.000000 4.074625 -0.024477 0.000000 0.050872 -1.445008 0.000000 4.112689 -0.053756 0.000000 0.038558 -1.194707 0.000000 4.173682 -0.098790 0.000000 0.041669 -1.019352 0.000000 4.264302 -0.163818 0.000000 0.075421 -0.938387 0.000000 4.489931 -0.259580 0.000000 0.302811 -0.623458 0.000000 4.433483 -0.076186 0.000000 0.185714 -0.451308 0.000000 4.473823 -0.136088 0.000000 0.311254 -0.419520 0.000000 4.485587 -0.029712 0.000000 0.229937 -0.237735 0.000000 4.457611 -0.060728 0.000000 0.304265 -0.350783 0.000000 4.579160 -0.011230 0.000000 0.251919 -0.103586 0.000000 4.488717 0.010660 0.000000 0.232503 -0.210180 0.000000 4.627280 -0.044976 0.000000 0.267505 -0.043681 0.000000 4.526826 0.016025 0.000000 0.200725 -0.033097 0.000000 4.592006 -0.079971 0.000000 0.304430 -0.031384 0.000000 4.533936 -0.006488 0.000000 0.240911 0.068919 0.000000 4.533165 -0.073775 0.000000 0.349767 -0.034320 0.000000 4.569567 0.014316 0.000000 0.278338 0.161136 0.000000 4.498983 0.001444 0.000000 0.312334 0.033500 0.000000 4.626479 0.010870 0.000000 0.282918 0.261331 0.000000 4.519274 0.052342 0.000000 0.255128 0.275419 0.000000 4.595084 -0.003527 0.000000 0.303523 0.390282 0.000000 4.434155 0.140043 0.000000 0.214166 0.542822 0.000000 4.335211 0.143244 0.000000 0.143524 0.571739 0.000000 4.294507 0.102154 0.000000 0.110142 0.633731 0.000000 4.272749 0.074852 0.000000 0.096196 0.746660 0.000000 4.249431 0.066856 0.000000 0.088242 0.906806 0.000000 4.220375 0.074335 0.000000 0.081820 1.115638 0.000000 4.187158 0.094414 0.000000 0.076801 1.380847 0.000000 
4.315024 0.115368 0.000000 0.104262 1.716426 0.000000 4.325653 0.148375 0.000000 0.111427 2.184011 0.000000 4.353499 0.017936 0.000000 0.110123 -2.119935 0.000000 4.271809 0.010967 0.000000 0.097134 -1.765170 0.000000 4.231006 -0.016444 0.000000 0.076728 -1.461893 0.000000 4.220459 -0.043096 0.000000 0.040141 -1.222631 0.000000 4.235394 -0.090250 0.000000 -0.021147 -1.061673 0.000000 4.311900 -0.147884 0.000000 -0.094626 -1.073607 0.000000 4.640876 -0.350202 0.000000 0.571368 -0.532955 0.000000 4.493598 0.036116 0.000000 0.025649 -0.503886 0.000000 4.517857 -0.188562 0.000000 0.476715 -0.384326 0.000000 4.560273 0.046250 0.000000 0.153713 -0.246050 0.000000 4.430877 -0.101216 0.000000 0.297816 -0.403691 0.000000 4.707489 0.062635 0.000000 0.323295 -0.060389 0.000000 4.438767 0.023439 0.000000 0.049881 -0.316679 0.000000 4.730102 -0.020620 0.000000 0.437193 0.040760 0.000000 4.515897 0.064537 0.000000 -0.025419 -0.120343 0.000000 4.629882 -0.121029 0.000000 0.469569 0.056612 0.000000 4.572898 0.039288 0.000000 0.080418 0.032132 0.000000 4.526637 -0.146691 0.000000 0.427080 -0.005580 0.000000 4.680952 0.065253 0.000000 0.268388 0.187458 0.000000 4.453368 -0.052250 0.000000 0.192078 -0.030385 0.000000 4.772633 0.051495 0.000000 0.406955 0.344773 0.000000 4.522454 0.042413 0.000000 0.026502 0.195290 0.000000 4.712324 -0.005580 0.000000 0.562653 0.568193 0.000000 4.517929 0.155308 0.000000 0.224434 0.585907 0.000000 4.342013 0.135256 0.000000 0.096894 0.585181 0.000000 4.328564 0.083282 0.000000 0.083336 0.642450 0.000000 4.333025 0.051759 0.000000 0.089856 0.756960 0.000000 4.330743 0.044818 0.000000 0.095983 0.917990 0.000000 4.323644 0.055702 0.000000 0.099470 1.125452 0.000000 4.316583 0.080034 0.000000 0.101622 1.386791 0.000000 
4.475309 0.122820 0.000000 0.090126 1.706612 0.000000 4.517335 0.148697 0.000000 0.100803 2.165524 0.000000 4.582668 0.018371 0.000000 0.100013 -2.062024 0.000000 4.466948 0.018790 0.000000 0.090969 -1.724227 0.000000 4.391488 -0.004071 0.000000 0.073938 -1.434460 0.000000 4.348109 -0.017169 0.000000 0.036312 -1.209642 0.000000 4.335604 -0.037502 0.000000 -0.034265 -1.095859 0.000000 4.370740 -0.090338 0.000000 -0.050821 -1.267362 0.000000 4.546180 -0.925574 0.000000 0.289477 -0.476180 0.000000 4.323429 0.469534 0.000000 -0.182479 -0.475567 0.000000 4.494963 -0.587154 0.000000 0.287636 -0.461936 0.000000 4.408308 0.293291 0.000000 -0.105443 -0.108339 0.000000 4.427882 -0.204831 0.000000 0.193607 -0.627396 0.000000 4.615993 -0.036709 0.000000 0.133374 0.165136 0.000000 4.359588 0.284074 0.000000 0.016796 -0.501516 0.000000 4.685827 -0.432288 0.000000 0.389140 0.170524 0.000000 4.342690 0.478636 0.000000 -0.077976 -0.147081 0.000000 4.608149 -0.574958 0.000000 0.488659 0.025600 0.000000 4.383199 0.382663 0.000000 -0.049351 0.115180 0.000000 4.515109 -0.420438 0.000000 0.440678 -0.188635 0.000000 4.579523 0.173008 0.000000 0.143146 0.388719 0.000000 4.399883 0.077754 0.000000 0.212066 -0.285765 0.000000 4.782944 -0.204007 0.000000 0.427610 0.511510 0.000000 4.397685 0.432795 0.000000 0.049300 0.085549 0.000000 4.818833 -0.539678 0.000000 0.800044 0.584677 0.000000 4.393924 0.478263 0.000000 0.200916 0.718738 0.000000 4.311964 0.270783 0.000000 0.056537 0.585188 0.000000 4.363001 0.115712 0.000000 0.055468 0.629270 0.000000 4.399444 0.068333 0.000000 0.069456 0.748942 0.000000 4.419061 0.060729 0.000000 0.078107 0.913905 0.000000 4.433133 0.070848 0.000000 0.082343 1.122700 0.000000 4.449654 0.092261 0.000000 0.085419 1.382405 0.000000 