# vtk DataFile Version 2.0
Comment goes here
ASCII

DATASET STRUCTURED_POINTS
FIELD FieldData 1
TIME 1 1 double
0.09100000
DIMENSIONS    64   64   1

ORIGIN    0.000   0.000   0.000
SPACING   0.03125 0.03125   1.000

POINT_DATA   4096
VECTORS u double

-9.502064 -19.609801 0.000000 -4.960446 13.410695 0.000000 -8.883708 -2.521108 0.000000 1.122548 -8.208273 0.000000 0.858843 -0.612442 0.000000 -1.382301 8.497704 0.000000 3.077717 -11.549774 0.000000 -7.822231 10.712514 0.000000 6.173242 -8.463177 0.000000 -2.446044 9.789188 0.000000 7.879711 -10.659357 0.000000 -2.752196 4.974276 0.000000 12.908869 -15.905580 0.000000 -2.947684 12.249152 0.000000 14.198213 -4.927270 0.000000 4.559195 4.788156 0.000000 8.775319 -11.953090 0.000000 0.539028 -0.196579 0.000000 10.722253 -4.472288 0.000000 -6.086882 -1.730020 0.000000 16.282023 4.896840 0.000000 1.621570 -2.662964 0.000000 8.637355 -6.954240 0.000000 2.823301 2.148339 0.000000 11.723119 -11.612224 0.000000 -3.952513 -3.560428 0.000000 -0.579084 -12.911715 0.000000 11.409390 31.377041 0.000000 -1.617982 37.981299 0.000000 -4.795203 1.635163 0.000000 1.029613 -22.924320 0.000000 14.183711 -8.572869 0.000000 13.280445 -6.337445 0.000000 30.961520 -13.060794 0.000000 3.839068 -6.045932 0.000000 8.292859 -0.914715 0.000000 3.652874 -10.224797 0.000000 6.407873 -11.375721 0.000000 -1.283494 -5.929128 0.000000 11.966048 -9.725007 0.000000 3.644007 8.089297 0.000000 9.860890 -0.732634 0.000000 -4.602179 2.559665 0.000000 1.113956 -6.400028 0.000000 -5.388317 8.426282 0.000000 -0.154992 -0.171668 0.000000 -10.582329 7.557470 0.000000 1.141960 -10.442171 0.000000 -8.370680 -1.920669 0.000000 -1.546760 -1.015411 0.000000 -16.310943 9.453795 0.000000 1.414487 -3.199438 0.000000 -8.613885 8.418021 0.000000 5.193919 -11.391871 0.000000 1.067938 7.702044 0.000000 5.313349 -2.527954 0.000000 -5.741751 16.098352 0.000000 -4.967329 -5.238923 0.000000 -8.406387 4.078234 0.000000 -2.354862 -5.329791 0.000000 -10.808806 14.077479 0.000000 -10.852558 -1.761348 0.000000 -13.195915 25.588018 0.000000 -15.328534 -17.727686 0.000000 
-13.743119 -1.125077 0.000000 9.621262 -1.984757 0.000000 36.907325 -9.421626 0.000000 -10.460876 9.806216 0.000000 9.886241 -8.516702 0.000000 -10.352002 3.198900 0.000000 6.405374 -1.210276 0.000000 -11.921994 12.188166 0.000000 5.119632 -11.196324 0.000000 -7.642377 14.120426 0.000000 5.513350 -3.804481 0.000000 -13.819386 4.279263 0.000000 8.584005 -9.603445 0.000000 -16.561342 15.102530 0.000000 12.638309 -4.428237 0.000000 -13.030050 12.869558 0.000000 9.904316 -4.119267 0.000000 -15.810086 5.158741 0.000000 5.336654 0.951489 0.000000 -16.155048 4.745445 0.000000 -0.762775 0.742104 0.000000 -2.648947 7.305527 0.000000 -5.502069 4.227936 0.000000 -1.696934 7.154633 0.000000 -0.774447 1.047421 0.000000 19.933902 19.710074 0.000000 4.773853 -13.523741 0.000000 7.975433 -8.927768 0.000000 8.121214 -27.341294 0.000000 30.239802 -12.625491 0.000000 8.428488 4.598893 0.000000 3.975914 9.969765 0.000000 -13.764270 -4.331306 0.000000 -12.504434 5.589215 0.000000 -24.302523 17.110928 0.000000 -5.270270 4.629426 0.000000 -0.635002 0.366707 0.000000 0.483014 7.100644 0.000000 -11.996898 2.103133 0.000000 -6.203521 -3.456468 0.000000 -19.972967 8.508803 0.000000 -4.305935 3.154957 0.000000 -9.079755 8.850105 0.000000 2.840987 -3.559071 0.000000 -8.410966 7.701115 0.000000 7.682792 3.765708 0.000000 -7.909673 4.444452 0.000000 16.871350 -5.908533 0.000000 -16.869423 3.539437 0.000000 10.362109 0.888999 0.000000 -11.832450 8.553877 0.000000 10.208159 -7.120296 0.000000 -15.531086 6.598835 0.000000 3.088512 -23.982234 0.000000 -1.882304 3.158836 0.000000 4.747800 -2.977202 0.000000 5.101464 18.562290 0.000000 7.506147 -9.465990 0.000000 4.324511 -0.293323 0.000000 6.531119 -9.571370 0.000000 13.264333 8.719343 0.000000 19.083124 -13.278214 0.000000 24.330723 -3.727173 0.000000 28.954088 -15.326774 0.000000 
-64.370594 -0.276975 0.000000 -42.554656 -37.239749 0.000000 -47.084895 17.561029 0.000000 -11.131913 18.812810 0.000000 20.706102 -0.721316 0.000000 -23.462177 11.978572 0.000000 11.158846 -9.979782 0.000000 -7.152295 11.998256 0.000000 6.316521 -12.742794 0.000000 -5.363834 9.395470 0.000000 5.932833 -4.482349 0.000000 -1.764879 1.903622 0.000000 1.528994 -13.163624 0.000000 -1.056108 8.194848 0.000000 6.715681 -8.458562 0.000000 1.702818 7.522148 0.000000 9.748542 -9.173054 0.000000 3.545350 4.371083 0.000000 5.915386 -4.127325 0.000000 6.005454 4.369409 0.000000 0.115786 -8.609261 0.000000 8.566953 2.076330 0.000000 -5.482816 -7.906254 0.000000 10.613699 -2.579283 0.000000 -19.147501 -33.243060 0.000000 0.736978 -9.108727 0.000000 -41.991416 -0.953246 0.000000 -32.655534 28.029679 0.000000 -58.555733 15.716930 0.000000 -33.537069 1.327889 0.000000 -48.758643 3.339567 0.000000 -3.004982 13.619889 0.000000 4.782787 10.142904 0.000000 13.891088 -2.522541 0.000000 35.182979 -13.280096 0.000000 37.470381 -24.582235 0.000000 10.622170 -15.978082 0.000000 -2.092402 -0.013826 0.000000 6.378540 0.757408 0.000000 22.825875 -1.748937 0.000000 17.253213 6.191711 0.000000 27.676853 -11.625847 0.000000 20.031517 -4.587257 0.000000 31.147193 -7.068817 0.000000 13.920116 3.584477 0.000000 28.466028 -0.672961 0.000000 13.586647 -1.631087 0.000000 26.565626 -1.482421 0.000000 5.935989 4.588573 0.000000 19.270870 -6.052384 0.000000 9.577070 9.607745 0.000000 14.930029 0.499197 0.000000 4.595369 15.537667 0.000000 4.867887 -25.040653 0.000000 -5.199149 6.042756 0.000000 -3.682737 -9.511721 0.000000 -1.892971 13.340006 0.000000 -0.884687 -4.461970 0.000000 -9.737897 5.053261 0.000000 -14.948264 -14.269613 0.000000 -20.471216 1.525474 0.000000 -32.662989 -12.827738 0.000000 -45.151710 15.717054 0.000000 -53.113042 20.346156 0.000000 
-95.615577 -11.683463 0.000000 -105.223263 -19.270455 0.000000 -109.740518 -40.844369 0.000000 5.166486 -57.984781 0.000000 28.905191 3.813562 0.000000 -8.981205 12.746156 0.000000 16.899256 -17.520158 0.000000 -0.189671 17.030491 0.000000 11.621727 -12.984785 0.000000 4.334368 14.504113 0.000000 9.853123 -7.403436 0.000000 13.851353 8.683103 0.000000 6.676635 -10.312215 0.000000 14.806275 9.915842 0.000000 10.051492 -7.187164 0.000000 17.401873 9.836697 0.000000 12.368527 -5.961799 0.000000 16.631057 8.991897 0.000000 10.990455 -1.508616 0.000000 17.153289 10.545046 0.000000 7.591252 -1.819395 0.000000 10.039670 12.904129 0.000000 -2.650996 2.181191 0.000000 -3.482117 20.819318 0.000000 -28.568486 10.924141 0.000000 -55.053682 42.553989 0.000000 -88.604674 19.868771 0.000000 -88.869369 7.636550 0.000000 -95.491105 -26.459759 0.000000 -99.541260 -22.422582 0.000000 -120.445746 -25.933193 0.000000 -77.887186 -43.571664 0.000000 -37.879854 -21.227377 0.000000 33.865849 -24.810977 0.000000 81.090935 -6.468365 0.000000 120.662032 29.190235 0.000000 151.523287 39.929490 0.000000 173.933823 11.344274 0.000000 167.024913 -22.815144 0.000000 131.435742 -14.331141 0.000000 103.295293 3.657825 0.000000 87.040174 0.376653 0.000000 65.586317 5.379766 0.000000 61.308996 2.552330 0.000000 48.718571 10.382281 0.000000 52.571834 4.099177 0.000000 42.688568 6.344853 0.000000 41.338686 1.742125 0.000000 37.198249 10.834194 0.000000 33.546184 -2.752081 0.000000 28.772839 12.894719 0.000000 25.818193 -2.138595 0.000000 24.642190 16.660976 0.000000 18.093137 -14.187716 0.000000 -0.883682 11.709460 0.000000 -1.287085 -6.283380 0.000000 -16.508439 15.764240 0.000000 -15.260011 -1.621064 0.000000 -30.589705 13.770255 0.000000 -37.601823 1.161949 0.000000 -62.239509 26.434067 0.000000 -73.521491 11.402280 0.000000 -108.957610 16.722880 0.000000 -99.274561 3.892110 0.000000 
-94.177043 5.671727 0.000000 -99.749810 -23.114808 0.000000 -67.301973 -92.828719 0.000000 15.933628 -119.832899 0.000000 24.027591 13.426375 0.000000 -7.558858 23.984507 0.000000 15.121809 -18.771315 0.000000 2.836326 17.275785 0.000000 6.330974 -17.266833 0.000000 11.971160 11.164074 0.000000 4.789609 -13.999334 0.000000 20.505726 5.080109 0.000000 5.054433 -14.118545 0.000000 22.729667 4.819991 0.000000 8.222081 -11.054160 0.000000 23.722365 5.205114 0.000000 10.529300 -8.402239 0.000000 22.125857 5.749155 0.000000 10.303341 -4.649557 0.000000 21.067204 7.768612 0.000000 9.045449 -1.495643 0.000000 16.634867 12.318578 0.000000 6.980509 5.615534 0.000000 12.287532 23.338206 0.000000 2.329896 18.328505 0.000000 5.747519 50.927461 0.000000 2.127865 32.862441 0.000000 -27.282398 34.916110 0.000000 -67.921076 26.388821 0.000000 -75.525582 26.282530 0.000000 -71.328715 -18.314506 0.000000 -116.554532 -68.946002 0.000000 -64.286683 -101.610131 0.000000 -10.980410 -121.493330 0.000000 18.904400 -100.076280 0.000000 79.877428 -95.014587 0.000000 139.690174 -69.249872 0.000000 176.585839 -15.515451 0.000000 147.020349 43.255489 0.000000 105.864354 61.980682 0.000000 80.185874 50.587279 0.000000 69.374541 26.083129 0.000000 53.621668 21.143920 0.000000 51.790918 9.798930 0.000000 40.133470 12.321640 0.000000 43.595745 5.357042 0.000000 32.212654 9.602060 0.000000 33.787559 4.007898 0.000000 25.311042 12.381075 0.000000 26.771651 2.373026 0.000000 16.336405 17.335735 0.000000 19.193616 4.629847 0.000000 9.626181 23.262724 0.000000 11.862481 0.485218 0.000000 -6.026034 25.422977 0.000000 1.355574 6.113036 0.000000 -18.498839 27.312933 0.000000 -17.471278 9.619295 0.000000 -45.941432 27.395073 0.000000 -50.195293 17.380192 0.000000 -84.426313 37.445143 0.000000 -86.850880 33.890362 0.000000 -112.101287 41.470123 0.000000 -104.923656 7.004123 0.000000 
-84.845142 -16.857308 0.000000 -119.433021 -46.145525 0.000000 -41.494603 -156.527807 0.000000 -24.423078 -149.314345 0.000000 7.768910 27.306049 0.000000 -41.639742 21.651937 0.000000 5.998014 -27.915342 0.000000 -11.314719 25.821327 0.000000 -1.647805 -22.119619 0.000000 3.805304 16.045478 0.000000 0.200371 -15.938003 0.000000 14.763408 8.418278 0.000000 4.493253 -12.536156 0.000000 20.598186 6.748194 0.000000 9.302523 -8.179861 0.000000 23.610880 7.529479 0.000000 12.380097 -4.365291 0.000000 23.669296 9.217855 0.000000 13.279620 -0.449963 0.000000 21.995736 11.802938 0.000000 13.352940 2.612942 0.000000 18.586009 14.969069 0.000000 12.797871 6.528526 0.000000 14.642127 25.469930 0.000000 22.943137 17.464154 0.000000 17.329494 42.756020 0.000000 31.381467 52.898688 0.000000 45.361914 77.685490 0.000000 64.592766 21.783425 0.000000 82.342678 -19.014943 0.000000 55.044045 15.095757 0.000000 49.036208 -50.613696 0.000000 90.092371 -126.801499 0.000000 78.088155 -108.002060 0.000000 42.539086 -97.326203 0.000000 20.604366 -91.595540 0.000000 14.373479 -56.778921 0.000000 19.715440 4.014099 0.000000 19.889081 47.906341 0.000000 35.946965 52.503334 0.000000 46.727349 40.147638 0.000000 52.439731 26.940859 0.000000 49.315746 22.963389 0.000000 52.266947 16.040528 0.000000 45.494920 18.577453 0.000000 49.214431 12.019992 0.000000 41.585258 16.153039 0.000000 44.493690 8.643737 0.000000 37.654432 17.850102 0.000000 39.559052 6.222555 0.000000 31.228534 20.472754 0.000000 33.695912 4.571630 0.000000 22.690973 23.992111 0.000000 23.247683 1.464499 0.000000 3.350668 22.216368 0.000000 4.520784 6.189425 0.000000 -21.771770 34.591091 0.000000 -9.928611 25.821529 0.000000 -38.099772 46.494270 0.000000 -31.145848 39.646830 0.000000 -58.056963 63.089654 0.000000 -49.455856 39.077254 0.000000 -130.620346 34.795656 0.000000 -128.087503 -14.032134 0.000000 
-89.141040 -2.982755 0.000000 -99.968071 -66.465347 0.000000 -53.375882 -187.838662 0.000000 -77.971940 -169.096412 0.000000 -1.398111 30.643039 0.000000 -72.538770 25.755403 0.000000 2.246612 -49.096339 0.000000 -15.188666 24.921604 0.000000 -11.217882 -32.386856 0.000000 7.326417 9.315898 0.000000 -4.517363 -24.957437 0.000000 18.974572 0.787227 0.000000 3.513335 -19.953324 0.000000 24.492605 0.010721 0.000000 9.501432 -14.066854 0.000000 26.084464 2.127540 0.000000 12.791570 -8.460655 0.000000 25.285111 4.849632 0.000000 13.821052 -2.975996 0.000000 23.303677 7.695293 0.000000 14.522513 1.914083 0.000000 18.167098 12.873647 0.000000 16.388745 9.559416 0.000000 18.901864 13.192940 0.000000 19.658137 15.641138 0.000000 33.531365 42.489131 0.000000 42.099264 4.830020 0.000000 105.237205 1.704811 0.000000 97.638408 -10.591943 0.000000 148.242463 35.831251 0.000000 164.078880 14.991964 0.000000 176.854808 -103.994329 0.000000 165.275604 -130.662079 0.000000 186.481791 -73.940045 0.000000 194.358898 -42.592490 0.000000 141.095288 -66.848981 0.000000 68.922850 -68.360946 0.000000 38.047388 -21.031053 0.000000 30.150593 27.023963 0.000000 44.503147 35.142414 0.000000 43.407305 34.094514 0.000000 51.504119 23.494733 0.000000 42.527022 21.316705 0.000000 47.798440 13.619755 0.000000 35.843237 15.374155 0.000000 41.538640 9.266704 0.000000 29.125990 14.322801 0.000000 35.818161 7.938725 0.000000 22.252688 17.315713 0.000000 30.239658 8.798924 0.000000 13.645216 23.198875 0.000000 23.548481 13.167408 0.000000 1.537137 33.710953 0.000000 12.728795 19.825523 0.000000 -9.146552 44.149875 0.000000 6.435494 31.235475 0.000000 -12.828058 41.762328 0.000000 -3.033187 25.947297 0.000000 -24.556577 48.612310 0.000000 -31.710041 37.337382 0.000000 -79.105257 55.755150 0.000000 -131.677366 106.453746 0.000000 -157.827286 120.101770 0.000000 -148.901572 -38.771081 0.000000 
-198.898789 -65.790809 0.000000 -100.522276 -81.910684 0.000000 -141.747481 -178.523939 0.000000 -158.689737 -201.292116 0.000000 -16.612136 21.872879 0.000000 -118.677604 18.007215 0.000000 -20.968108 -85.265446 0.000000 -39.436097 39.285820 0.000000 -26.569801 -44.634702 0.000000 -1.910210 9.344960 0.000000 -8.940503 -27.586158 0.000000 14.807063 0.387580 0.000000 3.929196 -18.054189 0.000000 24.155486 0.760098 0.000000 11.588024 -9.771721 0.000000 27.990250 4.239341 0.000000 15.173086 -3.565938 0.000000 28.557491 8.188373 0.000000 16.250981 1.531471 0.000000 27.240098 11.101477 0.000000 16.217258 7.749521 0.000000 29.548510 13.102838 0.000000 15.109974 5.793760 0.000000 24.057282 22.200537 0.000000 33.565973 2.834653 0.000000 -5.099220 20.314893 0.000000 57.705677 -18.807151 0.000000 98.182505 22.146347 0.000000 71.030816 -21.221833 0.000000 119.850408 -85.455415 0.000000 164.298463 -13.516588 0.000000 144.715598 -51.810420 0.000000 183.995990 -136.428482 0.000000 149.212528 -137.085354 0.000000 148.569808 -51.939700 0.000000 120.778130 33.840508 0.000000 59.847697 46.268978 0.000000 31.192165 42.786356 0.000000 20.266444 41.450583 0.000000 30.159758 39.246622 0.000000 32.725405 33.146666 0.000000 40.186094 27.821142 0.000000 39.397818 26.669067 0.000000 46.659388 22.724314 0.000000 40.439706 24.837254 0.000000 48.054048 18.737239 0.000000 38.451968 21.873518 0.000000 47.634622 15.517039 0.000000 36.299704 23.428605 0.000000 46.431394 14.830027 0.000000 31.437676 27.163931 0.000000 43.911948 16.679709 0.000000 32.018503 34.811797 0.000000 33.601839 12.148187 0.000000 18.964100 28.509668 0.000000 24.185065 9.870932 0.000000 4.412674 44.059773 0.000000 -2.995132 37.550048 0.000000 -43.836672 75.171124 0.000000 -33.966230 94.195510 0.000000 -114.990915 163.056978 0.000000 -110.987740 117.799284 0.000000 -163.964469 52.019862 0.000000 -136.572579 -82.718380 0.000000 
33.505966 -39.033058 0.000000 22.451505 -123.616655 0.000000 -66.973769 -129.671202 0.000000 -131.916563 -294.231757 0.000000 -16.089689 -9.369094 0.000000 -95.860159 30.111375 0.000000 -52.707682 -128.337846 0.000000 -41.128635 30.523298 0.000000 -35.034296 -69.912743 0.000000 1.611284 -8.313401 0.000000 -9.593455 -41.674710 0.000000 21.199031 -12.082472 0.000000 5.401604 -29.301746 0.000000 29.800635 -7.648107 0.000000 13.510062 -17.901618 0.000000 31.523813 -1.457522 0.000000 16.649491 -9.027896 0.000000 30.690235 3.771736 0.000000 16.059329 -1.658603 0.000000 29.673841 7.729016 0.000000 18.251113 -0.394329 0.000000 16.735625 13.980932 0.000000 15.890935 15.050644 0.000000 19.530986 -5.263059 0.000000 47.631338 44.797640 0.000000 10.529109 18.349427 0.000000 59.950482 -98.451705 0.000000 90.236182 -11.620328 0.000000 109.877685 -32.259846 0.000000 111.338680 -57.436396 0.000000 56.422491 -9.873225 0.000000 39.213216 -123.691855 0.000000 110.230568 -135.159009 0.000000 76.663555 -38.513863 0.000000 23.923161 -14.158092 0.000000 24.420269 21.873130 0.000000 24.757926 21.225019 0.000000 26.346605 18.550200 0.000000 23.406831 28.056370 0.000000 35.131746 22.683453 0.000000 31.715575 24.068178 0.000000 45.589544 16.822319 0.000000 35.578722 14.843411 0.000000 44.371845 12.577867 0.000000 29.866818 13.979495 0.000000 38.719532 11.254441 0.000000 26.788555 14.742228 0.000000 38.284519 10.090989 0.000000 22.196443 18.518941 0.000000 34.852407 13.660952 0.000000 17.503731 25.718321 0.000000 30.022836 12.586581 0.000000 -8.579412 44.021063 0.000000 13.244205 32.879926 0.000000 -7.521740 53.566649 0.000000 7.448143 45.786900 0.000000 -22.986635 68.942526 0.000000 23.146423 74.196644 0.000000 14.799062 79.583408 0.000000 30.219636 108.491624 0.000000 17.180575 132.776661 0.000000 127.722964 155.427300 0.000000 62.774925 145.686609 0.000000 125.540095 -3.836761 0.000000 
273.894571 37.297782 0.000000 202.428687 18.569052 0.000000 165.102971 -24.155871 0.000000 -53.838951 -252.176197 0.000000 1.320684 -14.183525 0.000000 -22.348620 54.625208 0.000000 -63.294113 -139.996970 0.000000 -41.342703 21.612433 0.000000 -26.857296 -87.374621 0.000000 -1.136544 -16.095880 0.000000 -4.427102 -47.173904 0.000000 21.387469 -14.607479 0.000000 10.432489 -26.655793 0.000000 33.892380 -7.348361 0.000000 18.770316 -11.494898 0.000000 36.113447 1.099912 0.000000 21.474653 -2.732361 0.000000 34.572362 8.778534 0.000000 21.909221 2.547866 0.000000 30.488942 8.909693 0.000000 9.367791 20.687736 0.000000 47.112505 15.463017 0.000000 -0.297476 2.998399 0.000000 66.624595 -9.539865 0.000000 -32.849025 11.836530 0.000000 78.023923 7.995749 0.000000 48.907804 -98.514225 0.000000 75.625960 -27.780857 0.000000 52.397710 -42.324331 0.000000 66.516794 -32.000221 0.000000 62.086034 58.608876 0.000000 86.849579 -105.618496 0.000000 58.935584 -173.878821 0.000000 115.652846 -50.777948 0.000000 76.748043 0.303586 0.000000 74.277620 33.005744 0.000000 50.363039 44.342642 0.000000 41.042783 44.137450 0.000000 22.992705 32.665442 0.000000 25.925231 30.937879 0.000000 25.862957 22.688867 0.000000 32.754258 23.957994 0.000000 38.087148 27.886766 0.000000 48.444666 28.436218 0.000000 39.600215 30.489567 0.000000 48.745822 21.815502 0.000000 34.608197 22.308532 0.000000 50.956926 20.109152 0.000000 36.242259 26.860717 0.000000 55.370723 19.522739 0.000000 21.999654 31.993502 0.000000 53.796550 42.762853 0.000000 52.921398 51.590427 0.000000 44.124292 11.090514 0.000000 25.267226 34.305731 0.000000 22.031193 25.335827 0.000000 27.309919 28.361492 0.000000 25.101818 -0.235649 0.000000 27.000439 68.097912 0.000000 67.462088 91.813997 0.000000 50.734705 65.553651 0.000000 133.152714 72.204933 0.000000 152.547737 54.202731 0.000000 280.026675 -53.449421 0.000000 
8.753408 38.564930 0.000000 149.997001 -14.825055 0.000000 54.115010 126.596437 0.000000 37.345368 -130.449470 0.000000 50.181997 -40.859425 0.000000 82.042854 94.726172 0.000000 -27.539507 -109.343764 0.000000 9.624654 -5.913520 0.000000 -5.632361 -110.118901 0.000000 18.499929 -30.743594 0.000000 4.083616 -64.198723 0.000000 34.763198 -26.942063 0.000000 16.250402 -41.806658 0.000000 42.903291 -15.985933 0.000000 22.768453 -20.122685 0.000000 40.799604 -4.161859 0.000000 24.529693 -7.486810 0.000000 36.654099 3.337168 0.000000 18.716650 2.424816 0.000000 41.157502 20.270446 0.000000 27.646507 -17.017891 0.000000 21.336719 23.646199 0.000000 5.095965 -4.461446 0.000000 47.659357 27.288489 0.000000 -3.082737 33.398313 0.000000 -0.563260 -63.407403 0.000000 41.835359 -96.053742 0.000000 -27.146415 -15.110233 0.000000 28.849610 -23.150680 0.000000 -19.336174 -67.124720 0.000000 54.860095 -30.206011 0.000000 108.089180 -120.541405 0.000000 4.306893 -163.962275 0.000000 -7.740935 -56.326322 0.000000 -33.462683 27.217133 0.000000 -29.730890 48.258134 0.000000 -17.492903 54.459856 0.000000 2.687633 45.920534 0.000000 9.995389 43.173922 0.000000 22.737046 19.813201 0.000000 23.197826 17.239150 0.000000 51.673109 4.598128 0.000000 28.004882 -0.846998 0.000000 34.740481 11.064800 0.000000 18.124915 13.678339 0.000000 33.842285 16.246460 0.000000 28.711243 12.531123 0.000000 45.067942 8.456928 0.000000 24.731965 14.105145 0.000000 47.301094 27.903557 0.000000 43.213634 27.292494 0.000000 50.637246 -18.335163 0.000000 -9.158181 53.693321 0.000000 20.458335 60.534098 0.000000 -0.630990 75.659748 0.000000 40.345041 43.744207 0.000000 16.096634 65.871900 0.000000 27.522699 74.506124 0.000000 3.092826 37.223138 0.000000 33.512271 84.757358 0.000000 15.090455 67.086036 0.000000 61.984457 53.614268 0.000000 24.693117 -1.187352 0.000000 33.706101 -125.183594 0.000000 
-63.348327 -78.993119 0.000000 29.689041 -26.792550 0.000000 -113.501111 88.495762 0.000000 86.604133 -248.243185 0.000000 -3.485145 -58.881010 0.000000 125.785320 132.346712 0.000000 -8.902343 -67.578770 0.000000 85.653960 -0.294713 0.000000 34.876664 -96.249896 0.000000 52.079897 -25.811857 0.000000 14.049156 -63.437173 0.000000 43.796863 -26.774265 0.000000 24.807384 -34.795887 0.000000 56.365101 -13.866411 0.000000 31.164551 -9.391211 0.000000 50.343375 -0.661328 0.000000 31.689859 1.413144 0.000000 42.246100 14.591577 0.000000 27.164657 -1.955538 0.000000 44.268150 -0.020165 0.000000 24.367555 40.508520 0.000000 21.536007 38.013559 0.000000 37.340496 -23.324239 0.000000 -50.182832 -1.361163 0.000000 51.814317 60.059147 0.000000 -64.836975 -36.922347 0.000000 -27.347621 -71.931071 0.000000 -43.764928 -14.795108 0.000000 115.426705 -50.134571 0.000000 44.823223 -58.010706 0.000000 71.375269 -68.816478 0.000000 69.087926 -55.065295 0.000000 27.854940 -58.048706 0.000000 -27.552113 -13.008372 0.000000 -42.453340 22.293541 0.000000 -21.474538 17.035965 0.000000 -21.349553 11.924120 0.000000 -2.163144 16.649158 0.000000 -14.161682 12.616029 0.000000 4.845329 17.735441 0.000000 24.676498 -6.247196 0.000000 32.563646 19.150939 0.000000 48.433606 44.819395 0.000000 63.099142 38.316184 0.000000 42.451958 31.387763 0.000000 47.499051 11.229173 0.000000 27.474935 11.082874 0.000000 47.941155 24.088430 0.000000 50.593933 24.627565 0.000000 51.951189 1.041070 0.000000 1.422290 28.657351 0.000000 39.677547 95.134668 0.000000 -11.251528 81.769338 0.000000 29.691973 2.563322 0.000000 4.712506 14.419024 0.000000 22.010086 8.608204 0.000000 24.451938 41.183834 0.000000 34.829795 12.768159 0.000000 88.205764 62.108339 0.000000 69.706790 79.816368 0.000000 86.427695 37.081465 0.000000 139.037706 62.602271 0.000000 41.449421 82.481087 0.000000 91.156844 -37.509711 0.000000 
211.772840 100.032733 0.000000 214.590918 35.327729 0.000000 22.469697 69.681345 0.000000 267.100176 -240.465435 0.000000 4.447030 -80.040611 0.000000 271.708022 100.143369 0.000000 101.047547 -69.212404 0.000000 148.311949 -49.692527 0.000000 72.877377 -76.544838 0.000000 134.404167 -9.916086 0.000000 46.655905 -55.915689 0.000000 72.961575 -37.700291 0.000000 37.397707 -54.374896 0.000000 68.232023 -22.343101 0.000000 37.881728 -14.100960 0.000000 55.816866 -4.687167 0.000000 32.603144 0.610465 0.000000 39.016584 7.862371 0.000000 32.266533 0.402766 0.000000 31.141710 23.067547 0.000000 -19.674901 5.714252 0.000000 45.826090 10.673258 0.000000 30.319609 67.257392 0.000000 53.558892 12.814668 0.000000 27.281677 48.052456 0.000000 62.062414 15.754536 0.000000 -18.111994 -117.125789 0.000000 0.650833 -157.884560 0.000000 32.945696 -111.738832 0.000000 19.199134 -23.073285 0.000000 49.660317 -54.470714 0.000000 27.695270 -77.021075 0.000000 -35.284888 -67.322236 0.000000 -13.511084 13.981958 0.000000 -41.925645 21.139558 0.000000 -29.547474 27.154347 0.000000 -15.859862 35.148462 0.000000 8.868483 38.732663 0.000000 -2.429141 36.165449 0.000000 2.047206 -19.024979 0.000000 40.014261 -10.479167 0.000000 68.654598 -19.158980 0.000000 16.806789 -31.382494 0.000000 31.140595 17.046448 0.000000 28.963059 29.278431 0.000000 40.293752 31.223482 0.000000 41.853328 12.089019 0.000000 69.873128 -14.662070 0.000000 30.971828 10.095111 0.000000 79.112508 77.075200 0.000000 51.812942 39.566136 0.000000 106.510461 -5.661344 0.000000 144.492306 63.678895 0.000000 107.812202 44.570063 0.000000 57.524131 83.341634 0.000000 63.978333 24.004776 0.000000 14.952019 53.052192 0.000000 5.235704 10.752298 0.000000 79.858616 2.346143 0.000000 51.164633 86.535427 0.000000 89.051113 -2.244881 0.000000 95.147329 98.592542 0.000000 -10.084794 46.693510 0.000000 372.367192 -20.385846 0.000000 
228.296247 78.783156 0.000000 389.427140 162.510592 0.000000 85.199729 35.986504 0.000000 310.251239 -230.220517 0.000000 37.149977 -63.488856 0.000000 295.737780 35.746196 0.000000 155.267763 55.817303 0.000000 309.156243 27.875457 0.000000 151.898670 -82.342114 0.000000 110.568675 0.409615 0.000000 -6.354033 -1.994581 0.000000 76.188350 -17.516067 0.000000 43.031653 -30.066335 0.000000 104.639901 -14.350432 0.000000 47.349874 3.023946 0.000000 69.754526 4.617256 0.000000 46.930680 18.213427 0.000000 44.636969 14.928189 0.000000 42.817017 5.919336 0.000000 64.274129 51.921269 0.000000 15.973007 25.824140 0.000000 89.724785 -11.980952 0.000000 62.662541 -31.057041 0.000000 79.985099 1.676769 0.000000 25.776116 51.555625 0.000000 99.847733 8.471324 0.000000 72.796362 -10.519490 0.000000 53.669891 -65.852798 0.000000 -37.754183 -68.682871 0.000000 25.299299 -74.725326 0.000000 -5.498565 -77.312615 0.000000 8.621833 29.879910 0.000000 -43.190780 -16.842352 0.000000 -44.673864 -6.367615 0.000000 -57.889215 38.329931 0.000000 -44.225584 -9.029818 0.000000 -31.165941 -26.491837 0.000000 -28.872863 3.218437 0.000000 -18.984575 19.437306 0.000000 31.426317 -24.707961 0.000000 -26.073570 -72.854588 0.000000 79.822484 42.358411 0.000000 -10.247011 82.333398 0.000000 10.725378 26.159914 0.000000 -8.416112 22.234605 0.000000 5.008325 -1.661096 0.000000 3.001894 -18.496502 0.000000 43.999322 34.969930 0.000000 7.629624 15.388185 0.000000 -1.225462 -19.800044 0.000000 23.393865 1.259397 0.000000 1.243582 2.455304 0.000000 -31.918323 80.467597 0.000000 -54.066870 89.531498 0.000000 -28.976123 58.252893 0.000000 11.896978 51.180315 0.000000 -6.897520 99.926464 0.000000 32.487966 -52.138437 0.000000 112.719770 16.179410 0.000000 23.508782 70.623871 0.000000 46.530017 -6.901230 0.000000 -29.904076 161.738177 0.000000 -71.198065 -194.738776 0.000000 313.608516 -259.367345 0.000000 
132.225006 24.214108 0.000000 464.540590 178.424246 0.000000 224.093590 148.857246 0.000000 401.137647 -192.415684 0.000000 77.791896 -65.527152 0.000000 320.707776 -17.974416 0.000000 219.489696 -82.630867 0.000000 363.904185 -46.323434 0.000000 159.317965 122.042730 0.000000 113.997686 148.336617 0.000000 38.329913 -21.535364 0.000000 86.755500 -87.085977 0.000000 51.045646 -82.826447 0.000000 96.808260 -26.661322 0.000000 56.843331 20.784414 0.000000 75.920337 -4.267973 0.000000 47.496801 25.728022 0.000000 44.891019 11.976033 0.000000 47.290063 -19.234393 0.000000 42.578129 49.911558 0.000000 100.877227 -19.736404 0.000000 39.026052 -36.016276 0.000000 3.056919 76.997078 0.000000 -22.656948 49.701093 0.000000 -17.327878 28.189821 0.000000 28.280139 -31.265709 0.000000 4.997971 -70.947947 0.000000 26.099680 -47.334015 0.000000 -21.365065 -83.368240 0.000000 53.745274 -55.328904 0.000000 -40.918275 -37.793248 0.000000 48.019328 -39.328859 0.000000 19.609118 -14.026539 0.000000 24.704423 28.680392 0.000000 21.600688 20.691278 0.000000 39.482408 0.431073 0.000000 0.922180 19.795742 0.000000 31.334561 26.551297 0.000000 8.723619 -24.133731 0.000000 64.816319 -11.935984 0.000000 -34.760414 -58.875333 0.000000 10.962934 -34.985539 0.000000 7.117210 37.714612 0.000000 41.309447 15.215549 0.000000 29.262768 34.995484 0.000000 55.804833 19.805476 0.000000 62.741818 -26.901978 0.000000 81.772385 -19.289800 0.000000 147.791531 55.319895 0.000000 69.043137 61.310959 0.000000 49.161199 37.097093 0.000000 99.223519 49.650844 0.000000 6.615997 118.989346 0.000000 83.131231 41.627863 0.000000 50.155699 17.377786 0.000000 87.263317 1.926172 0.000000 55.662272 32.461204 0.000000 70.424592 -108.864992 0.000000 82.623169 11.325326 0.000000 124.935554 152.725180 0.000000 -37.521670 51.167978 0.000000 266.416349 216.320624 0.000000 195.357222 -296.819082 0.000000 184.641332 -319.880159 0.000000 