# vtk DataFile Version 2.0
Comment goes here
ASCII

DATASET STRUCTURED_POINTS
FIELD FieldData 1
TIME 1 1 double
0.01900000
DIMENSIONS    64   64   1

ORIGIN    0.000   0.000   0.000
SPACING   0.03125 0.03125   1.000

POINT_DATA   4096
VECTORS u double

0.131380 -0.007465 0.000000 -0.634178 0.002634 0.000000 0.432347 0.001397 0.000000 -0.755568 -0.000671 0.000000 0.482647 -0.000201 0.000000 -0.752558 -0.002787 0.000000 0.445476 0.002236 0.000000 -0.670212 -0.002361 0.000000 0.342199 0.002098 0.000000 -0.518119 -0.002421 0.000000 0.182058 0.001773 0.000000 -0.326203 -0.002146 0.000000 0.003788 0.001505 0.000000 -0.143813 -0.002108 0.000000 -0.144566 0.001502 0.000000 -0.004076 -0.002097 0.000000 -0.247875 0.001642 0.000000 0.085220 -0.002052 0.000000 -0.300304 0.001807 0.000000 0.122623 -0.002366 0.000000 -0.311015 0.002737 0.000000 0.124872 -0.002525 0.000000 -0.290945 0.001483 0.000000 0.096445 -0.001375 0.000000 -0.245886 0.001211 0.000000 0.053710 -0.001560 0.000000 -0.202431 0.001937 0.000000 0.018205 -0.001662 0.000000 -0.166072 0.001781 0.000000 -0.013718 -0.001797 0.000000 -0.133011 0.001824 0.000000 -0.038041 -0.001275 0.000000 -0.120239 0.001202 0.000000 -0.030995 -0.000896 0.000000 -0.143210 0.000873 0.000000 0.007810 -0.000533 0.000000 -0.186388 0.000536 0.000000 0.051554 -0.000027 0.000000 -0.221539 -0.000149 0.000000 0.072488 0.000725 0.000000 -0.221056 -0.000566 0.000000 0.050917 0.000963 0.000000 -0.182471 -0.000812 0.000000 0.000994 0.001829 0.000000 -0.130833 -0.001322 0.000000 -0.048723 0.001216 0.000000 -0.089939 -0.000586 0.000000 -0.079591 0.001382 0.000000 -0.080843 -0.000663 0.000000 -0.063888 0.001281 0.000000 -0.132771 -0.000751 0.000000 0.017990 0.001815 0.000000 -0.245043 -0.001400 0.000000 0.134726 0.002330 0.000000 -0.360160 -0.001885 0.000000 0.215633 0.002690 0.000000 -0.403113 -0.002304 0.000000 0.197131 0.002809 0.000000 -0.343985 -0.002430 0.000000 0.086774 0.002738 0.000000 -0.213354 -0.002447 0.000000 -0.084202 0.002680 0.000000 -0.029270 -0.002971 0.000000 -0.296094 0.007727 0.000000 
-0.065795 0.170622 0.000000 0.278132 -0.153432 0.000000 -0.361747 0.062258 0.000000 0.366248 -0.027704 0.000000 -0.386850 0.001991 0.000000 0.358770 0.017378 0.000000 -0.369736 -0.039521 0.000000 0.310730 0.049869 0.000000 -0.326421 -0.074023 0.000000 0.225281 0.078043 0.000000 -0.251362 -0.093563 0.000000 0.115299 0.086859 0.000000 -0.162076 -0.088714 0.000000 0.007353 0.072046 0.000000 -0.085947 -0.067550 0.000000 -0.079905 0.049583 0.000000 -0.027862 -0.042443 0.000000 -0.144081 0.024073 0.000000 0.007892 -0.016491 0.000000 -0.182779 0.003301 0.000000 0.025013 0.000705 0.000000 -0.202693 -0.011494 0.000000 0.026683 0.015852 0.000000 -0.208316 -0.024168 0.000000 0.019120 0.022802 0.000000 -0.206900 -0.022946 0.000000 0.012941 0.018767 0.000000 -0.206149 -0.019292 0.000000 0.007139 0.016876 0.000000 -0.201689 -0.017486 0.000000 -0.003939 0.013056 0.000000 -0.194116 -0.007448 0.000000 -0.008188 -0.002744 0.000000 -0.199675 0.010755 0.000000 0.002941 -0.019071 0.000000 -0.217043 0.021377 0.000000 0.020214 -0.022148 0.000000 -0.233257 0.017989 0.000000 0.031860 -0.011480 0.000000 -0.235695 0.001244 0.000000 0.022152 0.008872 0.000000 -0.212198 -0.017377 0.000000 -0.010148 0.022685 0.000000 -0.171796 -0.023893 0.000000 -0.046786 0.022802 0.000000 -0.133372 -0.018512 0.000000 -0.079928 0.013134 0.000000 -0.099787 -0.002638 0.000000 -0.098932 -0.010173 0.000000 -0.089109 0.027979 0.000000 -0.083750 -0.043411 0.000000 -0.116632 0.058250 0.000000 -0.029791 -0.060936 0.000000 -0.168451 0.059923 0.000000 0.031352 -0.043239 0.000000 -0.205154 0.024009 0.000000 0.059094 0.006426 0.000000 -0.192491 -0.026892 0.000000 0.036845 0.052186 0.000000 -0.136493 -0.062362 0.000000 -0.013283 0.082241 0.000000 -0.057369 -0.088846 0.000000 -0.081088 0.102797 0.000000 0.028039 -0.079185 0.000000 
0.583626 -0.257558 0.000000 0.364482 0.298586 0.000000 0.216678 -0.086718 0.000000 0.448176 0.024432 0.000000 0.172189 0.007276 0.000000 0.446526 -0.019901 0.000000 0.228949 0.050277 0.000000 0.384351 -0.045675 0.000000 0.354875 0.087547 0.000000 0.279178 -0.077480 0.000000 0.518037 0.111755 0.000000 0.149744 -0.091432 0.000000 0.687182 0.109451 0.000000 0.029717 -0.078237 0.000000 0.828134 0.088760 0.000000 -0.059942 -0.060182 0.000000 0.934069 0.065818 0.000000 -0.117684 -0.037806 0.000000 1.001276 0.040505 0.000000 -0.142816 -0.019487 0.000000 1.037435 0.022651 0.000000 -0.148354 -0.004195 0.000000 1.050075 0.007106 0.000000 -0.136106 0.006188 0.000000 1.042831 -0.000206 0.000000 -0.116560 0.004620 0.000000 1.035430 0.001186 0.000000 -0.103335 0.004139 0.000000 1.028711 -0.002679 0.000000 -0.089266 0.009281 0.000000 1.017003 -0.005748 0.000000 -0.075285 0.002974 0.000000 1.013824 0.006760 0.000000 -0.080919 -0.012025 0.000000 1.032032 0.018242 0.000000 -0.106663 -0.017806 0.000000 1.060310 0.016749 0.000000 -0.134318 -0.011673 0.000000 1.080550 0.002289 0.000000 -0.145387 0.010434 0.000000 1.072714 -0.024064 0.000000 -0.125074 0.033263 0.000000 1.034474 -0.041214 0.000000 -0.084034 0.038467 0.000000 0.985391 -0.039746 0.000000 -0.043962 0.034358 0.000000 0.939420 -0.034171 0.000000 -0.014645 0.020386 0.000000 0.909403 -0.011342 0.000000 -0.017070 -0.013901 0.000000 0.919789 0.026772 0.000000 -0.069764 -0.052144 0.000000 0.974005 0.050420 0.000000 -0.152340 -0.058813 0.000000 1.031040 0.034818 0.000000 -0.213350 -0.025052 0.000000 1.036432 -0.014966 0.000000 -0.206211 0.025058 0.000000 0.968277 -0.058428 0.000000 -0.139498 0.052867 0.000000 0.852119 -0.081570 0.000000 -0.037469 0.070485 0.000000 0.698544 -0.088378 0.000000 0.091110 -0.007567 0.000000 
0.746260 -0.102750 0.000000 -0.121695 0.213516 0.000000 0.656037 -0.021435 0.000000 -0.152887 0.016785 0.000000 0.213198 0.003640 0.000000 -0.145585 -0.039383 0.000000 0.634582 0.022654 0.000000 -0.115321 -0.076058 0.000000 0.895664 0.031150 0.000000 -0.076423 -0.085119 0.000000 1.061177 0.035872 0.000000 -0.030270 -0.082286 0.000000 1.171385 0.031313 0.000000 0.011003 -0.068905 0.000000 1.257322 0.022109 0.000000 0.040017 -0.056353 0.000000 1.326829 0.015299 0.000000 0.059102 -0.043134 0.000000 1.386865 0.008641 0.000000 0.067458 -0.032858 0.000000 1.438160 0.006243 0.000000 0.070393 -0.024133 0.000000 1.482860 0.003604 0.000000 0.067685 -0.016924 0.000000 1.521916 0.003257 0.000000 0.063361 -0.015546 0.000000 1.549906 0.005541 0.000000 0.062393 -0.012573 0.000000 1.570467 0.002807 0.000000 0.059273 -0.005779 0.000000 1.590204 -0.000925 0.000000 0.053295 -0.004269 0.000000 1.602099 0.002890 0.000000 0.055638 -0.007453 0.000000 1.600235 0.006673 0.000000 0.065963 -0.006901 0.000000 1.590421 0.005507 0.000000 0.076810 -0.002251 0.000000 1.578613 -0.000410 0.000000 0.081297 0.009080 0.000000 1.574599 -0.011441 0.000000 0.071230 0.020863 0.000000 1.578824 -0.018355 0.000000 0.051904 0.025190 0.000000 1.579921 -0.017271 0.000000 0.033938 0.027460 0.000000 1.574464 -0.016183 0.000000 0.015639 0.027378 0.000000 1.558518 -0.007748 0.000000 0.006783 0.017594 0.000000 1.517888 0.009283 0.000000 0.019168 0.004035 0.000000 1.446386 0.021639 0.000000 0.047051 0.002887 0.000000 1.359662 0.017771 0.000000 0.069226 0.018617 0.000000 1.277497 -0.000713 0.000000 0.066790 0.041263 0.000000 1.203492 -0.014527 0.000000 0.047497 0.053797 0.000000 1.114253 -0.019788 0.000000 0.026198 0.064729 0.000000 0.996831 -0.025782 0.000000 0.018713 0.035733 0.000000 
0.919681 -0.117151 0.000000 -0.060786 0.388809 0.000000 0.787138 -0.055525 0.000000 -0.066957 0.467270 0.000000 0.369654 -0.000026 0.000000 -0.063622 -0.441285 0.000000 0.766887 0.020013 0.000000 -0.044577 -0.306757 0.000000 1.000359 0.048649 0.000000 -0.025061 -0.242993 0.000000 1.155339 0.065602 0.000000 -0.004296 -0.201640 0.000000 1.266396 0.068178 0.000000 0.013411 -0.164174 0.000000 1.353659 0.059747 0.000000 0.025954 -0.129690 0.000000 1.422801 0.046733 0.000000 0.035250 -0.097841 0.000000 1.478806 0.032149 0.000000 0.040730 -0.070782 0.000000 1.523514 0.019716 0.000000 0.045136 -0.048895 0.000000 1.559497 0.009815 0.000000 0.047536 -0.032868 0.000000 1.589003 0.004118 0.000000 0.049331 -0.023370 0.000000 1.610038 0.002154 0.000000 0.052564 -0.016422 0.000000 1.625373 0.000441 0.000000 0.053716 -0.010456 0.000000 1.639208 0.000230 0.000000 0.052010 -0.008920 0.000000 1.648364 0.004417 0.000000 0.053262 -0.010161 0.000000 1.650021 0.007917 0.000000 0.057500 -0.007992 0.000000 1.646863 0.005902 0.000000 0.061664 0.000135 0.000000 1.640986 -0.002199 0.000000 0.063100 0.014447 0.000000 1.636542 -0.013996 0.000000 0.057853 0.029038 0.000000 1.633523 -0.021888 0.000000 0.048209 0.037370 0.000000 1.626525 -0.021780 0.000000 0.038601 0.039814 0.000000 1.614534 -0.015871 0.000000 0.027045 0.036333 0.000000 1.596594 -0.002486 0.000000 0.017569 0.026729 0.000000 1.565364 0.014387 0.000000 0.016760 0.019358 0.000000 1.516748 0.022537 0.000000 0.023473 0.027911 0.000000 1.456511 0.012642 0.000000 0.029177 0.057113 0.000000 1.391859 -0.012530 0.000000 0.025696 0.099063 0.000000 1.322305 -0.039135 0.000000 0.017845 0.142105 0.000000 1.233937 -0.060271 0.000000 0.012287 0.187907 0.000000 1.117741 -0.080893 0.000000 0.009251 0.243005 0.000000 
0.898472 -0.032713 0.000000 -0.081181 0.346059 0.000000 0.753994 -0.015264 0.000000 -0.104840 0.434269 0.000000 0.520483 0.000305 0.000000 -0.105847 -0.436616 0.000000 0.766203 0.003609 0.000000 -0.085904 -0.309530 0.000000 0.963294 0.011634 0.000000 -0.058796 -0.240099 0.000000 1.107806 0.015107 0.000000 -0.027333 -0.193343 0.000000 1.214008 0.013606 0.000000 0.002954 -0.156168 0.000000 1.296628 0.009565 0.000000 0.027675 -0.125496 0.000000 1.363299 0.006004 0.000000 0.045546 -0.099138 0.000000 1.418511 0.003161 0.000000 0.056356 -0.077565 0.000000 1.464821 0.001837 0.000000 0.061846 -0.060117 0.000000 1.503940 0.001204 0.000000 0.063124 -0.046430 0.000000 1.536680 0.001461 0.000000 0.062432 -0.036580 0.000000 1.562326 0.002309 0.000000 0.061530 -0.027909 0.000000 1.581969 0.001655 0.000000 0.060064 -0.019614 0.000000 1.597345 0.000780 0.000000 0.058532 -0.013424 0.000000 1.606403 0.001638 0.000000 0.060293 -0.009110 0.000000 1.607918 0.002434 0.000000 0.065161 -0.003744 0.000000 1.604031 0.001343 0.000000 0.069838 0.003626 0.000000 1.598244 -0.001846 0.000000 0.070694 0.013524 0.000000 1.594198 -0.006194 0.000000 0.064726 0.023883 0.000000 1.591762 -0.008712 0.000000 0.053820 0.032187 0.000000 1.586731 -0.007663 0.000000 0.041734 0.039450 0.000000 1.575262 -0.004626 0.000000 0.030658 0.045318 0.000000 1.553430 0.001728 0.000000 0.024830 0.048823 0.000000 1.515476 0.010092 0.000000 0.027945 0.052651 0.000000 1.460155 0.014926 0.000000 0.037273 0.063125 0.000000 1.393634 0.012067 0.000000 0.044168 0.083269 0.000000 1.323155 0.002768 0.000000 0.040998 0.110817 0.000000 1.249001 -0.006676 0.000000 0.028277 0.142165 0.000000 1.161651 -0.014230 0.000000 0.009321 0.180925 0.000000 1.049845 -0.022747 0.000000 -0.018861 0.233794 0.000000 
1.035401 -0.054831 0.000000 -0.032317 0.533287 0.000000 0.887077 -0.031867 0.000000 -0.044644 0.700782 0.000000 0.663176 0.000982 0.000000 -0.045414 -0.687005 0.000000 0.887249 0.000069 0.000000 -0.034075 -0.503848 0.000000 1.065450 0.021540 0.000000 -0.020421 -0.387506 0.000000 1.199646 0.034139 0.000000 -0.005104 -0.307842 0.000000 1.302221 0.037892 0.000000 0.009858 -0.246794 0.000000 1.383577 0.035025 0.000000 0.022761 -0.196361 0.000000 1.448736 0.028862 0.000000 0.032742 -0.153053 0.000000 1.500158 0.021339 0.000000 0.039728 -0.117091 0.000000 1.540905 0.014226 0.000000 0.044817 -0.088015 0.000000 1.573108 0.008537 0.000000 0.047970 -0.065608 0.000000 1.598808 0.004810 0.000000 0.050291 -0.049016 0.000000 1.618650 0.003056 0.000000 0.051932 -0.036065 0.000000 1.633570 0.001907 0.000000 0.052862 -0.025832 0.000000 1.645375 0.001761 0.000000 0.052889 -0.017978 0.000000 1.652698 0.002656 0.000000 0.054078 -0.011675 0.000000 1.655445 0.003050 0.000000 0.056462 -0.004105 0.000000 1.654242 0.001225 0.000000 0.058429 0.005922 0.000000 1.650894 -0.003056 0.000000 0.058651 0.018493 0.000000 1.646849 -0.008028 0.000000 0.055184 0.031474 0.000000 1.641828 -0.010982 0.000000 0.049190 0.042401 0.000000 1.633906 -0.009694 0.000000 0.041682 0.051284 0.000000 1.620625 -0.004795 0.000000 0.033514 0.058165 0.000000 1.600349 0.003342 0.000000 0.026054 0.064682 0.000000 1.569356 0.011271 0.000000 0.021539 0.074679 0.000000 1.527273 0.013209 0.000000 0.020281 0.094433 0.000000 1.476711 0.005747 0.000000 0.019392 0.127592 0.000000 1.419734 -0.009360 0.000000 0.015760 0.173217 0.000000 1.354514 -0.026414 0.000000 0.009735 0.229455 0.000000 1.274248 -0.041315 0.000000 0.002072 0.299713 0.000000 1.171195 -0.052710 0.000000 -0.010023 0.394378 0.000000 
1.043912 -0.010419 0.000000 -0.053863 0.494382 0.000000 0.933444 -0.002937 0.000000 -0.072294 0.658171 0.000000 0.802567 0.001075 0.000000 -0.072847 -0.660689 0.000000 0.942378 -0.007730 0.000000 -0.062796 -0.487730 0.000000 1.074378 -0.002019 0.000000 -0.045097 -0.374295 0.000000 1.184378 -0.000210 0.000000 -0.022827 -0.295918 0.000000 1.273231 -0.001356 0.000000 0.000644 -0.237524 0.000000 1.345993 -0.003337 0.000000 0.021994 -0.190654 0.000000 1.406003 -0.003977 0.000000 0.038521 -0.150560 0.000000 1.454209 -0.003825 0.000000 0.049727 -0.118313 0.000000 1.493855 -0.003252 0.000000 0.056621 -0.092319 0.000000 1.526341 -0.001949 0.000000 0.059726 -0.072130 0.000000 1.553279 -0.000860 0.000000 0.060891 -0.056422 0.000000 1.575220 0.000668 0.000000 0.060488 -0.042829 0.000000 1.592119 0.000725 0.000000 0.059964 -0.031418 0.000000 1.605130 0.000754 0.000000 0.059462 -0.020748 0.000000 1.612681 0.000449 0.000000 0.060693 -0.011857 0.000000 1.615485 0.000051 0.000000 0.063347 -0.002542 0.000000 1.614018 -0.000624 0.000000 0.065483 0.006974 0.000000 1.610777 -0.002068 0.000000 0.065602 0.017569 0.000000 1.607112 -0.002727 0.000000 0.061640 0.028904 0.000000 1.602716 -0.002718 0.000000 0.055037 0.040109 0.000000 1.595765 -0.000154 0.000000 0.046670 0.052732 0.000000 1.582399 0.003541 0.000000 0.038858 0.065594 0.000000 1.560175 0.009189 0.000000 0.032779 0.079816 0.000000 1.525532 0.014607 0.000000 0.029673 0.094734 0.000000 1.479798 0.016184 0.000000 0.029282 0.113687 0.000000 1.426639 0.012955 0.000000 0.028308 0.140246 0.000000 1.368849 0.006401 0.000000 0.023111 0.176036 0.000000 1.305865 -0.000652 0.000000 0.012480 0.222431 0.000000 1.233448 -0.006566 0.000000 -0.003558 0.283978 0.000000 1.146756 -0.010652 0.000000 -0.026042 0.369588 0.000000 
1.163059 -0.027010 0.000000 -0.023665 0.643755 0.000000 1.056273 -0.013435 0.000000 -0.031953 0.831659 0.000000 0.932491 0.001535 0.000000 -0.032481 -0.826816 0.000000 1.057531 -0.009982 0.000000 -0.026338 -0.635848 0.000000 1.175518 0.003841 0.000000 -0.017031 -0.497506 0.000000 1.275788 0.011869 0.000000 -0.005132 -0.396695 0.000000 1.359265 0.014421 0.000000 0.008647 -0.319556 0.000000 1.429644 0.013675 0.000000 0.022685 -0.256370 0.000000 1.488268 0.012334 0.000000 0.033478 -0.201260 0.000000 1.532054 0.010133 0.000000 0.040759 -0.156737 0.000000 1.566715 0.007331 0.000000 0.046552 -0.120500 0.000000 1.593123 0.005433 0.000000 0.049339 -0.092547 0.000000 1.614428 0.003644 0.000000 0.051987 -0.070957 0.000000 1.632083 0.003459 0.000000 0.052106 -0.052964 0.000000 1.644895 0.002430 0.000000 0.052904 -0.038843 0.000000 1.655945 0.002264 0.000000 0.052659 -0.025529 0.000000 1.661568 0.001425 0.000000 0.053679 -0.014479 0.000000 1.664788 0.000395 0.000000 0.055848 -0.002638 0.000000 1.663751 -0.000910 0.000000 0.056938 0.009162 0.000000 1.661537 -0.003174 0.000000 0.057905 0.022158 0.000000 1.658143 -0.004066 0.000000 0.055061 0.035870 0.000000 1.653083 -0.004378 0.000000 0.051572 0.049353 0.000000 1.646579 -0.001327 0.000000 0.045300 0.064649 0.000000 1.633645 0.003017 0.000000 0.039062 0.080389 0.000000 1.614721 0.009421 0.000000 0.031496 0.099326 0.000000 1.584344 0.014377 0.000000 0.023004 0.120412 0.000000 1.546332 0.013599 0.000000 0.016695 0.147592 0.000000 1.503510 0.006721 0.000000 0.012259 0.185381 0.000000 1.456014 -0.004162 0.000000 0.007916 0.236202 0.000000 1.401759 -0.015784 0.000000 0.002647 0.301872 0.000000 1.336995 -0.025277 0.000000 -0.004130 0.386405 0.000000 1.258026 -0.030227 0.000000 -0.013153 0.497221 0.000000 
1.194282 0.000093 0.000000 -0.040580 0.601168 0.000000 1.126823 0.005350 0.000000 -0.052074 0.781952 0.000000 1.060545 0.001603 0.000000 -0.052556 -0.785729 0.000000 1.131233 -0.013873 0.000000 -0.047280 -0.605717 0.000000 1.209143 -0.011326 0.000000 -0.035738 -0.474565 0.000000 1.282724 -0.012109 0.000000 -0.019295 -0.379395 0.000000 1.348836 -0.015134 0.000000 0.000609 -0.307903 0.000000 1.408250 -0.017375 0.000000 0.021256 -0.249278 0.000000 1.460388 -0.014771 0.000000 0.037025 -0.194346 0.000000 1.498352 -0.011106 0.000000 0.047464 -0.152974 0.000000 1.529940 -0.009045 0.000000 0.055297 -0.118727 0.000000 1.554169 -0.004736 0.000000 0.058310 -0.093435 0.000000 1.574869 -0.003508 0.000000 0.060964 -0.074077 0.000000 1.593056 0.000550 0.000000 0.059641 -0.055641 0.000000 1.606204 -0.000073 0.000000 0.059828 -0.042468 0.000000 1.618322 0.000999 0.000000 0.058730 -0.026371 0.000000 1.623710 -0.000571 0.000000 0.059644 -0.015077 0.000000 1.627358 -0.002118 0.000000 0.062113 -0.001505 0.000000 1.625795 -0.001714 0.000000 0.063152 0.009188 0.000000 1.623850 -0.003035 0.000000 0.064624 0.020963 0.000000 1.620771 0.000117 0.000000 0.061206 0.033964 0.000000 1.616301 0.000771 0.000000 0.057880 0.046613 0.000000 1.611124 0.006118 0.000000 0.050931 0.065666 0.000000 1.598330 0.009780 0.000000 0.045088 0.084517 0.000000 1.579258 0.016754 0.000000 0.037693 0.110193 0.000000 1.546565 0.023099 0.000000 0.028679 0.132747 0.000000 1.506923 0.022493 0.000000 0.021899 0.156509 0.000000 1.464494 0.017392 0.000000 0.016676 0.187741 0.000000 1.419997 0.010743 0.000000 0.010550 0.230291 0.000000 1.372315 0.004618 0.000000 0.001809 0.287195 0.000000 1.319420 0.000211 0.000000 -0.010169 0.362947 0.000000 1.259813 -0.001629 0.000000 -0.025111 0.464555 0.000000 
1.301032 -0.011542 0.000000 -0.019496 0.711214 0.000000 1.238512 -0.001941 0.000000 -0.024355 0.897937 0.000000 1.178383 0.002016 0.000000 -0.024804 -0.897504 0.000000 1.238069 -0.015258 0.000000 -0.021973 -0.713757 0.000000 1.304964 -0.007701 0.000000 -0.016195 -0.571087 0.000000 1.369568 -0.004573 0.000000 -0.006920 -0.462807 0.000000 1.429891 -0.005484 0.000000 0.007208 -0.378970 0.000000 1.487818 -0.006972 0.000000 0.025787 -0.308508 0.000000 1.542559 -0.003435 0.000000 0.038131 -0.239224 0.000000 1.573007 -0.000305 0.000000 0.043301 -0.188326 0.000000 1.600846 -0.000502 0.000000 0.051573 -0.144729 0.000000 1.618101 0.002420 0.000000 0.050906 -0.113246 0.000000 1.633859 0.000990 0.000000 0.056226 -0.089144 0.000000 1.650149 0.004782 0.000000 0.051749 -0.066113 0.000000 1.658114 0.002243 0.000000 0.053824 -0.050961 0.000000 1.671817 0.003362 0.000000 0.051362 -0.030916 0.000000 1.672848 0.000511 0.000000 0.051970 -0.018127 0.000000 1.678492 -0.002074 0.000000 0.056506 -0.001075 0.000000 1.674349 -0.001949 0.000000 0.055493 0.011108 0.000000 1.673579 -0.004646 0.000000 0.061006 0.025236 0.000000 1.670957 -0.000649 0.000000 0.055614 0.040341 0.000000 1.665957 -0.001052 0.000000 0.056481 0.054529 0.000000 1.665548 0.005622 0.000000 0.048901 0.077444 0.000000 1.652728 0.008860 0.000000 0.045581 0.099461 0.000000 1.640572 0.016816 0.000000 0.038047 0.132019 0.000000 1.606743 0.023391 0.000000 0.022345 0.160055 0.000000 1.570113 0.020379 0.000000 0.011170 0.190021 0.000000 1.534988 0.011944 0.000000 0.004893 0.229878 0.000000 1.499024 0.001964 0.000000 0.000791 0.283884 0.000000 1.459333 -0.007042 0.000000 -0.003147 0.354767 0.000000 1.413589 -0.013300 0.000000 -0.007887 0.446011 0.000000 1.360571 -0.015284 0.000000 -0.013603 0.562752 0.000000 
1.344529 0.005986 0.000000 -0.032456 0.663688 0.000000 1.315111 0.010209 0.000000 -0.039461 0.842080 0.000000 1.295236 0.002053 0.000000 -0.039843 -0.845415 0.000000 1.316040 -0.016704 0.000000 -0.037862 -0.672612 0.000000 1.350096 -0.017104 0.000000 -0.031147 -0.539169 0.000000 1.389580 -0.021384 0.000000 -0.019174 -0.439717 0.000000 1.431857 -0.029262 0.000000 -0.000277 -0.365830 0.000000 1.478400 -0.035955 0.000000 0.025287 -0.304019 0.000000 1.528665 -0.027114 0.000000 0.041384 -0.224794 0.000000 1.548843 -0.016276 0.000000 0.047633 -0.180813 0.000000 1.573476 -0.017317 0.000000 0.059183 -0.135983 0.000000 1.585291 -0.004068 0.000000 0.057182 -0.109193 0.000000 1.599256 -0.008828 0.000000 0.065057 -0.090367 0.000000 1.615546 0.005026 0.000000 0.057417 -0.063606 0.000000 1.621575 -0.002148 0.000000 0.060748 -0.056171 0.000000 1.638009 0.003460 0.000000 0.056262 -0.027401 0.000000 1.636517 -0.001180 0.000000 0.056780 -0.020721 0.000000 1.644613 -0.006654 0.000000 0.062613 0.002637 0.000000 1.637791 -0.000701 0.000000 0.060259 0.009959 0.000000 1.638414 -0.008548 0.000000 0.068598 0.023585 0.000000 1.635544 0.005509 0.000000 0.060727 0.038964 0.000000 1.630856 -0.000096 0.000000 0.064007 0.047021 0.000000 1.633862 0.013697 0.000000 0.054171 0.078487 0.000000 1.620632 0.013100 0.000000 0.052402 0.096673 0.000000 1.612085 0.024289 0.000000 0.044475 0.144022 0.000000 1.574199 0.038800 0.000000 0.025588 0.169376 0.000000 1.536714 0.033668 0.000000 0.012957 0.191635 0.000000 1.504462 0.023669 0.000000 0.005886 0.223705 0.000000 1.474376 0.014845 0.000000 0.000499 0.269983 0.000000 1.443877 0.008555 0.000000 -0.005748 0.332939 0.000000 1.411714 0.004952 0.000000 -0.013770 0.415965 0.000000 1.377987 0.004087 0.000000 -0.023200 0.524095 0.000000 
1.440662 -0.002286 0.000000 -0.016954 0.740631 0.000000 1.416047 0.005064 0.000000 -0.019904 0.917813 0.000000 1.401466 0.002398 0.000000 -0.020244 -0.918308 0.000000 1.413454 -0.017239 0.000000 -0.020463 -0.747813 0.000000 1.438124 -0.014416 0.000000 -0.018807 -0.610572 0.000000 1.468549 -0.016545 0.000000 -0.013549 -0.505084 0.000000 1.503670 -0.024381 0.000000 0.001040 -0.425512 0.000000 1.550270 -0.032536 0.000000 0.034212 -0.358773 0.000000 1.620701 -0.019531 0.000000 0.051451 -0.259403 0.000000 1.616339 -0.006555 0.000000 0.041933 -0.212959 0.000000 1.646192 -0.012051 0.000000 0.066511 -0.156544 0.000000 1.643812 0.004421 0.000000 0.046252 -0.127211 0.000000 1.653775 -0.006885 0.000000 0.070123 -0.105434 0.000000 1.675480 0.012422 0.000000 0.045440 -0.072142 0.000000 1.666389 -0.001088 0.000000 0.058307 -0.067395 0.000000 1.699793 0.007848 0.000000 0.048065 -0.029424 0.000000 1.679524 -0.000006 0.000000 0.045275 -0.026224 0.000000 1.702541 -0.007907 0.000000 0.063749 0.005747 0.000000 1.680832 0.000405 0.000000 0.046934 0.010485 0.000000 1.688546 -0.012985 0.000000 0.075234 0.028106 0.000000 1.685131 0.007221 0.000000 0.050166 0.045029 0.000000 1.675117 -0.004332 0.000000 0.068914 0.051523 0.000000 1.696208 0.015458 0.000000 0.049020 0.090674 0.000000 1.671546 0.010629 0.000000 0.054862 0.108008 0.000000 1.688510 0.024744 0.000000 0.053917 0.169905 0.000000 1.631108 0.042279 0.000000 0.017345 0.197540 0.000000 1.592173 0.033009 0.000000 0.000600 0.222273 0.000000 1.567269 0.019016 0.000000 -0.004824 0.259963 0.000000 1.545670 0.007350 0.000000 -0.006646 0.314384 0.000000 1.522720 -0.000795 0.000000 -0.008197 0.386930 0.000000 1.497033 -0.005278 0.000000 -0.010523 0.479738 0.000000 1.468996 -0.005854 0.000000 -0.013620 0.596211 0.000000 
1.489220 0.009320 0.000000 -0.026958 0.688304 0.000000 1.491561 0.013158 0.000000 -0.031405 0.856661 0.000000 1.507259 0.002393 0.000000 -0.031667 -0.857402 0.000000 1.489435 -0.016485 0.000000 -0.032933 -0.697282 0.000000 1.487001 -0.018760 0.000000 -0.031626 -0.569594 0.000000 1.494551 -0.026642 0.000000 -0.025975 -0.474839 0.000000 1.511560 -0.043851 0.000000 -0.008475 -0.412430 0.000000 1.546907 -0.069128 0.000000 0.037696 -0.374451 0.000000 1.625467 -0.044353 0.000000 0.057866 -0.220432 0.000000 1.594983 -0.006758 0.000000 0.040629 -0.210666 0.000000 1.630722 -0.041895 0.000000 0.078363 -0.133602 0.000000 1.613035 0.016190 0.000000 0.045287 -0.119156 0.000000 1.623101 -0.032699 0.000000 0.084897 -0.112073 0.000000 1.646259 0.029710 0.000000 0.044816 -0.054515 0.000000 1.628074 -0.015016 0.000000 0.068266 -0.089575 0.000000 1.674420 0.013703 0.000000 0.050331 -0.007132 0.000000 1.639869 0.001610 0.000000 0.046896 -0.043738 0.000000 1.677739 -0.025128 0.000000 0.072814 0.024346 0.000000 1.641094 0.016113 0.000000 0.045682 0.002244 0.000000 1.658336 -0.036847 0.000000 0.089126 0.027001 0.000000 1.650369 0.030577 0.000000 0.049511 0.048978 0.000000 1.639166 -0.018844 0.000000 0.082030 0.025930 0.000000 1.671569 0.033592 0.000000 0.050644 0.103149 0.000000 1.638711 0.007257 0.000000 0.063814 0.079710 0.000000 1.675291 0.025234 0.000000 0.063574 0.201424 0.000000 1.599999 0.075371 0.000000 0.016582 0.208310 0.000000 1.561030 0.050413 0.000000 -0.001658 0.216540 0.000000 1.542334 0.029093 0.000000 -0.006742 0.245304 0.000000 1.529175 0.016667 0.000000 -0.008807 0.292933 0.000000 1.516911 0.010107 0.000000 -0.011598 0.358626 0.000000 1.505096 0.007277 0.000000 -0.015946 0.444001 0.000000 1.495018 0.007184 0.000000 -0.021417 0.552429 0.000000 
1.575606 0.003255 0.000000 -0.014990 0.738290 0.000000 1.582131 0.009511 0.000000 -0.016931 0.902115 0.000000 1.602233 0.002660 0.000000 -0.017144 -0.900484 0.000000 1.577273 -0.015974 0.000000 -0.020597 -0.745379 0.000000 1.566421 -0.015723 0.000000 -0.024771 -0.618122 0.000000 1.563336 -0.022196 0.000000 -0.029223 -0.522093 0.000000 1.566446 -0.041881 0.000000 -0.024133 -0.460859 0.000000 1.592779 -0.078708 0.000000 0.052122 -0.437333 0.000000 1.770752 -0.039701 0.000000 0.098315 -0.228919 0.000000 1.624023 0.010682 0.000000 0.000112 -0.248698 0.000000 1.727120 -0.049785 0.000000 0.130261 -0.138857 0.000000 1.652496 0.037497 0.000000 -0.004707 -0.137277 0.000000 1.667448 -0.046495 0.000000 0.131033 -0.128592 0.000000 1.725750 0.052502 0.000000 0.004767 -0.053957 0.000000 1.636580 -0.024538 0.000000 0.079982 -0.113742 0.000000 1.778419 0.025783 0.000000 0.043480 0.005127 0.000000 1.642642 0.003429 0.000000 0.010644 -0.064093 0.000000 1.774121 -0.033826 0.000000 0.111900 0.042392 0.000000 1.653223 0.027537 0.000000 -0.010610 -0.006758 0.000000 1.720287 -0.056428 0.000000 0.144005 0.036073 0.000000 1.700080 0.046836 0.000000 0.002403 0.056232 0.000000 1.657995 -0.036852 0.000000 0.115535 0.019120 0.000000 1.768557 0.046844 0.000000 0.028965 0.123532 0.000000 1.650279 -0.002540 0.000000 0.063142 0.071428 0.000000 1.813102 0.024984 0.000000 0.111662 0.245197 0.000000 1.633398 0.089270 0.000000 -0.007822 0.236509 0.000000 1.600345 0.051249 0.000000 -0.021825 0.240970 0.000000 1.596486 0.024100 0.000000 -0.018425 0.273122 0.000000 1.593665 0.009415 0.000000 -0.014479 0.326648 0.000000 1.588629 0.001996 0.000000 -0.012491 0.398744 0.000000 1.582419 -0.000930 0.000000 -0.012301 0.489817 0.000000 1.577095 -0.000382 0.000000 -0.013324 0.602008 0.000000 
1.624742 0.010987 0.000000 -0.022670 0.681779 0.000000 1.653246 0.015099 0.000000 -0.025605 0.836559 0.000000 1.697099 0.002606 0.000000 -0.025735 -0.832443 0.000000 1.648308 -0.013032 0.000000 -0.030266 -0.686430 0.000000 1.614616 -0.014586 0.000000 -0.035920 -0.566510 0.000000 1.590163 -0.022190 0.000000 -0.043948 -0.477948 0.000000 1.572830 -0.048941 0.000000 -0.046740 -0.438763 0.000000 1.580976 -0.145383 0.000000 0.030476 -0.552424 0.000000 1.754306 -0.090546 0.000000 0.072916 -0.073702 0.000000 1.575764 0.091445 0.000000 -0.035214 -0.313763 0.000000 1.693402 -0.172044 0.000000 0.114215 -0.058978 0.000000 1.596086 0.151157 0.000000 -0.044205 -0.134108 0.000000 1.619966 -0.168438 0.000000 0.119429 -0.170375 0.000000 1.677026 0.155975 0.000000 -0.032904 0.034655 0.000000 1.574901 -0.090231 0.000000 0.065566 -0.231414 0.000000 1.735887 0.050206 0.000000 0.018458 0.128645 0.000000 1.571196 0.034445 0.000000 -0.012735 -0.175217 0.000000 1.732404 -0.126384 0.000000 0.103796 0.145243 0.000000 1.580468 0.138624 0.000000 -0.043025 -0.064819 0.000000 1.673290 -0.191462 0.000000 0.142022 0.047207 0.000000 1.641542 0.172179 0.000000 -0.032458 0.091063 0.000000 1.600707 -0.131976 0.000000 0.111217 -0.084632 0.000000 1.730012 0.120162 0.000000 0.002488 0.221427 0.000000 1.588258 -0.026920 0.000000 0.055863 -0.083113 0.000000 1.798816 -0.023286 0.000000 0.116765 0.381128 0.000000 1.582377 0.194856 0.000000 -0.021614 0.241363 0.000000 1.565720 0.064417 0.000000 -0.030166 0.220398 0.000000 1.575241 0.025694 0.000000 -0.022752 0.248125 0.000000 1.583215 0.012720 0.000000 -0.017536 0.297969 0.000000 1.589320 0.008119 0.000000 -0.015936 0.364836 0.000000 1.596300 0.007087 0.000000 -0.016982 0.449325 0.000000 1.607045 0.008207 0.000000 -0.019556 0.553918 0.000000 