# vtk DataFile Version 2.0
Comment goes here
ASCII

DATASET STRUCTURED_POINTS
FIELD FieldData 1
TIME 1 1 double
0.08400000
DIMENSIONS    64   64   1

ORIGIN    0.000   0.000   0.000
SPACING   0.03125 0.03125   1.000

POINT_DATA   4096
SCALARS uX double
LOOKUP_TABLE default

4.795689e-01 -2.165318e+00 1.177087e-01 -2.349181e+00 -2.993292e-01 -2.311611e+00 6.349066e-02 -1.765078e+00 1.092204e+00 -8.665362e-01 6.357932e-02 -1.387932e+00 2.163489e-01 -1.611951e+00 7.490609e-01 -7.875842e-01 -4.059762e-02 -5.613641e-01 4.264653e-01 -8.637863e-01 -4.845885e-01 -2.554105e-01 -1.007021e+00 7.056958e-01 -2.568305e-01 -8.830496e-02 -1.514252e+00 -1.354757e-01 -1.619305e+00 4.932454e-02 -1.694468e+00 2.801910e-01 -1.566896e+00 5.620522e-01 -1.461668e+00 6.654177e-01 -1.396401e+00 7.756679e-01 -1.333928e+00 7.836770e-01 -1.331581e+00 7.567356e-01 -1.249596e+00 6.684461e-01 -1.189201e+00 5.343753e-01 -1.061757e+00 3.583099e-01 -9.138147e-01 1.485824e-01 -7.876551e-01 -1.139635e-01 -5.910203e-01 -4.154707e-01 -4.024600e-01 -7.752633e-01 -1.762582e-01 -1.170374e+00 2.222677e-02 -1.554043e+00 1.891025e-01 -1.916569e+00 3.781107e-01 -2.246327e+00 
-4.325590e-01 9.509249e-02 4.210440e-02 -2.017425e-01 -2.562296e-01 -1.319860e-01 -6.924600e-01 -2.087601e-01 -6.208580e-01 3.119075e-01 -4.084106e-01 1.851441e-01 -1.244776e+00 -3.413615e-01 -3.579357e-01 -9.417168e-01 1.388294e-01 -9.629972e-01 -3.238805e-01 -5.360826e-01 -9.197971e-01 -4.071159e-02 -2.192777e-01 -2.848820e-01 -6.483143e-01 -1.309546e+00 -8.432892e-01 -1.494007e+00 -7.267651e-01 -1.332399e+00 -4.607327e-01 -1.181866e+00 -2.423089e-01 -1.090505e+00 -1.081494e-01 -9.998537e-01 -3.084705e-02 -9.636908e-01 -1.515900e-02 -9.405972e-01 3.640743e-03 -9.365393e-01 -5.231795e-02 -9.006001e-01 -8.885725e-02 -8.372815e-01 -1.911887e-01 -7.961252e-01 -2.391474e-01 -7.096046e-01 -3.331228e-01 -6.343497e-01 -4.380940e-01 -5.000501e-01 -5.275674e-01 -3.657599e-01 -6.511717e-01 -1.990245e-01 -6.325740e-01 -1.480769e-01 -6.288521e-01 3.391322e-01 -9.710239e-01 3.768319e-01 
2.243161e+00 2.583331e-01 1.994361e+00 3.832359e-01 1.250386e+00 4.127853e-01 1.983834e+00 4.609227e-01 1.806466e+00 -4.161737e-02 2.276766e+00 -1.235376e-01 2.526243e+00 -1.456820e-01 2.336882e+00 -8.292759e-01 3.149052e+00 -9.909764e-01 2.697469e+00 -6.706882e-01 3.488978e+00 -8.029078e-01 3.766452e+00 -9.255254e-01 3.873369e+00 -4.582201e-01 4.820707e+00 -4.122611e-01 5.011534e+00 -2.304313e-01 5.329513e+00 -1.431415e-01 5.485783e+00 -9.019760e-02 5.580970e+00 -1.331870e-02 5.640563e+00 3.912845e-02 5.655732e+00 7.411416e-02 5.651901e+00 1.043211e-01 5.577356e+00 1.564916e-01 5.483340e+00 2.313871e-01 5.323904e+00 3.103289e-01 5.147079e+00 3.830112e-01 4.938596e+00 4.626700e-01 4.663030e+00 5.613589e-01 4.368428e+00 6.619864e-01 3.978262e+00 7.891331e-01 3.670552e+00 7.548015e-01 3.239368e+00 1.023503e+00 2.550010e+00 1.185964e+00 
4.976922e+00 -1.348122e-01 3.848071e+00 -4.034551e-01 2.053065e+00 -3.994793e-01 4.313195e+00 -3.074681e-01 4.755610e+00 -9.504142e-01 5.015311e+00 -1.186704e+00 5.607301e+00 -1.214832e+00 5.484834e+00 -9.619596e-01 5.229369e+00 -1.097625e+00 5.910571e+00 -1.181445e+00 6.511618e+00 -1.001845e+00 6.763170e+00 -3.901233e-01 7.543814e+00 7.140329e-01 8.457088e+00 1.085250e+00 8.709707e+00 1.379756e+00 8.914056e+00 1.489736e+00 8.991024e+00 1.560174e+00 9.027881e+00 1.575028e+00 9.023561e+00 1.604466e+00 9.018595e+00 1.583162e+00 8.974599e+00 1.568263e+00 8.935191e+00 1.545751e+00 8.841221e+00 1.501775e+00 8.741314e+00 1.481081e+00 8.589384e+00 1.428120e+00 8.413274e+00 1.390173e+00 8.186121e+00 1.318757e+00 7.931231e+00 1.234709e+00 7.598883e+00 1.150887e+00 7.230227e+00 9.674287e-01 6.680246e+00 8.294860e-01 5.963671e+00 7.507729e-01 
5.223864e+00 3.305789e-01 4.246356e+00 -1.809947e-01 2.707331e+00 -1.978502e-01 4.205869e+00 -5.370570e-01 4.812288e+00 -9.618179e-01 5.195270e+00 -1.148268e+00 5.542956e+00 -1.255422e+00 5.576465e+00 -1.182560e+00 5.460205e+00 -1.280633e+00 6.000568e+00 -1.213805e+00 6.553865e+00 -8.525337e-01 7.103376e+00 -2.358724e-01 7.807621e+00 6.097062e-01 8.537154e+00 1.053543e+00 8.871946e+00 1.344221e+00 9.070030e+00 1.482947e+00 9.154432e+00 1.556201e+00 9.182246e+00 1.582861e+00 9.166469e+00 1.597424e+00 9.138400e+00 1.581760e+00 9.084065e+00 1.570073e+00 9.020207e+00 1.555345e+00 8.914445e+00 1.520560e+00 8.792692e+00 1.492782e+00 8.633634e+00 1.448569e+00 8.447017e+00 1.411555e+00 8.214653e+00 1.355723e+00 7.943911e+00 1.295509e+00 7.610837e+00 1.231805e+00 7.219370e+00 1.120764e+00 6.706911e+00 9.986532e-01 6.059871e+00 9.167247e-01 
5.558878e+00 1.806584e-01 4.636098e+00 -5.231747e-02 3.378955e+00 -8.371328e-02 4.300928e+00 -4.450436e-01 4.979929e+00 -8.054716e-01 5.357732e+00 -1.069481e+00 5.587833e+00 -1.273985e+00 5.527148e+00 -1.418790e+00 5.442689e+00 -1.550731e+00 5.779396e+00 -1.433920e+00 6.454822e+00 -8.868455e-01 7.200082e+00 -1.095801e-01 7.988024e+00 6.887664e-01 8.646831e+00 1.171296e+00 8.989305e+00 1.460015e+00 9.166688e+00 1.603393e+00 9.234186e+00 1.669894e+00 9.241601e+00 1.690964e+00 9.216222e+00 1.696627e+00 9.174535e+00 1.683679e+00 9.115435e+00 1.667008e+00 9.043174e+00 1.642898e+00 8.944455e+00 1.608562e+00 8.825789e+00 1.567382e+00 8.672880e+00 1.510579e+00 8.490096e+00 1.444338e+00 8.269432e+00 1.359611e+00 8.014628e+00 1.258847e+00 7.709994e+00 1.139334e+00 7.347397e+00 9.778500e-01 6.883440e+00 7.901227e-01 6.309588e+00 5.558788e-01 
5.850921e+00 4.125317e-01 5.086276e+00 1.822328e-01 4.015613e+00 1.460236e-01 4.577906e+00 -3.029171e-01 5.064608e+00 -7.085554e-01 5.377741e+00 -1.017794e+00 5.499495e+00 -1.315137e+00 5.402908e+00 -1.592282e+00 5.275089e+00 -1.792846e+00 5.548233e+00 -1.614969e+00 6.314945e+00 -8.854701e-01 7.239891e+00 -2.866623e-02 8.063303e+00 7.154023e-01 8.676461e+00 1.182031e+00 9.021600e+00 1.446927e+00 9.193002e+00 1.575682e+00 9.263556e+00 1.628403e+00 9.272056e+00 1.638649e+00 9.248507e+00 1.631329e+00 9.205421e+00 1.610511e+00 9.143311e+00 1.590187e+00 9.068249e+00 1.566821e+00 8.967707e+00 1.537777e+00 8.850563e+00 1.503397e+00 8.703842e+00 1.459827e+00 8.531998e+00 1.411743e+00 8.323516e+00 1.352218e+00 8.074232e+00 1.282414e+00 7.777613e+00 1.197440e+00 7.427440e+00 1.083512e+00 7.000757e+00 9.409924e-01 6.482926e+00 7.398295e-01 
6.230030e+00 3.731198e-01 5.544527e+00 2.678341e-01 4.658724e+00 2.290889e-01 4.994458e+00 -1.531232e-01 5.354694e+00 -5.571988e-01 5.590890e+00 -9.333182e-01 5.605581e+00 -1.354933e+00 5.347542e+00 -1.844474e+00 5.002329e+00 -2.253525e+00 5.076299e+00 -2.105569e+00 6.106033e+00 -9.940336e-01 7.371828e+00 1.476745e-01 8.342899e+00 9.633757e-01 8.943485e+00 1.421383e+00 9.238441e+00 1.644322e+00 9.352259e+00 1.736517e+00 9.377139e+00 1.757462e+00 9.349469e+00 1.747360e+00 9.306110e+00 1.723345e+00 9.248109e+00 1.694427e+00 9.184132e+00 1.666240e+00 9.106480e+00 1.634963e+00 9.012511e+00 1.600177e+00 8.902626e+00 1.550860e+00 8.760350e+00 1.491286e+00 8.593086e+00 1.416813e+00 8.390690e+00 1.328473e+00 8.163159e+00 1.226695e+00 7.903262e+00 1.108174e+00 7.599195e+00 9.655961e-01 7.231994e+00 7.992668e-01 6.786730e+00 6.005345e-01 
6.580491e+00 5.539182e-01 6.021185e+00 4.598214e-01 5.274843e+00 4.236290e-01 5.458112e+00 4.409732e-02 5.639907e+00 -3.945627e-01 5.748545e+00 -8.349921e-01 5.644018e+00 -1.368917e+00 5.238500e+00 -2.048174e+00 4.676143e+00 -2.682794e+00 4.588570e+00 -2.560745e+00 5.918579e+00 -1.029787e+00 7.470461e+00 3.035802e-01 8.517191e+00 1.111339e+00 9.074765e+00 1.515472e+00 9.332865e+00 1.686539e+00 9.414012e+00 1.743272e+00 9.428702e+00 1.740141e+00 9.392850e+00 1.711177e+00 9.346238e+00 1.673293e+00 9.288617e+00 1.633195e+00 9.215496e+00 1.602378e+00 9.140241e+00 1.575213e+00 9.041455e+00 1.549081e+00 8.937613e+00 1.509596e+00 8.803056e+00 1.461143e+00 8.653313e+00 1.404753e+00 8.473728e+00 1.337609e+00 8.256983e+00 1.257294e+00 8.006808e+00 1.159840e+00 7.724321e+00 1.043420e+00 7.401500e+00 9.064181e-01 7.027390e+00 7.390691e-01 
6.963582e+00 5.654750e-01 6.485989e+00 5.426750e-01 5.886207e+00 5.098650e-01 5.974095e+00 1.885170e-01 6.075017e+00 -2.182866e-01 6.110819e+00 -6.877751e-01 5.903216e+00 -1.337059e+00 5.249141e+00 -2.316109e+00 4.146207e+00 -3.501603e+00 3.413473e+00 -3.733256e+00 5.541774e+00 -1.109316e+00 7.836780e+00 7.461598e-01 9.063042e+00 1.608885e+00 9.539568e+00 1.907814e+00 9.663271e+00 1.963925e+00 9.629837e+00 1.939614e+00 9.570611e+00 1.878317e+00 9.478802e+00 1.817704e+00 9.409772e+00 1.753633e+00 9.331724e+00 1.702070e+00 9.266274e+00 1.661350e+00 9.189215e+00 1.626365e+00 9.100727e+00 1.598106e+00 9.011097e+00 1.543849e+00 8.874106e+00 1.482735e+00 8.727429e+00 1.398980e+00 8.537251e+00 1.299306e+00 8.342724e+00 1.192333e+00 8.137465e+00 1.077004e+00 7.909153e+00 9.520888e-01 7.647346e+00 8.190637e-01 7.339688e+00 6.807912e-01 
7.319260e+00 7.227510e-01 6.947741e+00 7.248882e-01 6.472549e+00 6.982760e-01 6.483216e+00 4.058463e-01 6.491991e+00 -1.516699e-03 6.440180e+00 -5.106593e-01 6.129425e+00 -1.261509e+00 5.240805e+00 -2.516282e+00 3.620053e+00 -4.311288e+00 2.228991e+00 -4.920300e+00 5.331365e+00 -9.439907e-01 8.200543e+00 1.181298e+00 9.445316e+00 1.928588e+00 9.768329e+00 2.077725e+00 9.808599e+00 2.042375e+00 9.711647e+00 1.963985e+00 9.638364e+00 1.876626e+00 9.534636e+00 1.795495e+00 9.451551e+00 1.716800e+00 9.385505e+00 1.650628e+00 9.291254e+00 1.598145e+00 9.231897e+00 1.577652e+00 9.133064e+00 1.562775e+00 9.052252e+00 1.523264e+00 8.928528e+00 1.472579e+00 8.798722e+00 1.408482e+00 8.652993e+00 1.339655e+00 8.465344e+00 1.241108e+00 8.258353e+00 1.125276e+00 8.050453e+00 1.011059e+00 7.836567e+00 9.019286e-01 7.601055e+00 7.971241e-01 
7.687456e+00 7.613691e-01 7.393893e+00 8.195963e-01 7.045612e+00 8.004904e-01 7.023500e+00 5.809440e-01 7.028033e+00 2.430584e-01 6.992841e+00 -2.376059e-01 6.703973e+00 -1.023993e+00 5.623221e+00 -2.564574e+00 2.948474e+00 -5.659252e+00 -1.067945e+00 -8.208962e+00 4.884269e+00 -4.328496e-01 9.354071e+00 2.370262e+00 1.051826e+01 2.827159e+00 1.047525e+01 2.631992e+00 1.023683e+01 2.370637e+00 9.942519e+00 2.161956e+00 9.790971e+00 2.009508e+00 9.600891e+00 1.884698e+00 9.516525e+00 1.783613e+00 9.409742e+00 1.694039e+00 9.352797e+00 1.643853e+00 9.287249e+00 1.599769e+00 9.199854e+00 1.602521e+00 9.164808e+00 1.552520e+00 9.004736e+00 1.508718e+00 8.891433e+00 1.412814e+00 8.680338e+00 1.273896e+00 8.517548e+00 1.154789e+00 8.374506e+00 1.041833e+00 8.230609e+00 9.384846e-01 8.078436e+00 8.492652e-01 7.904473e+00 7.797066e-01 
8.025979e+00 9.069775e-01 7.822614e+00 1.005205e+00 7.593035e+00 9.944262e-01 7.528457e+00 8.497498e-01 7.514794e+00 5.697099e-01 7.493852e+00 9.652525e-02 7.244584e+00 -7.498763e-01 6.022370e+00 -2.518272e+00 2.369812e+00 -6.991179e+00 -4.390706e+00 -1.205998e+01 5.063286e+00 9.801612e-01 1.053381e+01 3.500962e+00 1.124954e+01 3.332501e+00 1.074196e+01 2.819585e+00 1.040406e+01 2.446526e+00 1.000515e+01 2.151698e+00 9.873108e+00 2.034414e+00 9.674808e+00 1.854810e+00 9.541477e+00 1.787244e+00 9.497851e+00 1.653366e+00 9.332944e+00 1.551736e+00 9.351453e+00 1.568550e+00 9.231405e+00 1.543934e+00 9.212954e+00 1.585047e+00 9.084267e+00 1.496485e+00 8.951863e+00 1.465452e+00 8.853196e+00 1.403213e+00 8.659760e+00 1.224126e+00 8.483389e+00 1.067817e+00 8.363603e+00 9.698910e-01 8.266893e+00 9.100130e-01 8.162837e+00 8.794057e-01 
8.370565e+00 9.607455e-01 8.236453e+00 1.105581e+00 8.118827e+00 1.105146e+00 8.060654e+00 1.086375e+00 8.102859e+00 9.808707e-01 8.218159e+00 6.833348e-01 8.306349e+00 -1.338377e-02 7.637137e+00 -1.530945e+00 3.248365e+00 -7.991429e+00 -1.503655e+01 -2.256216e+01 6.350554e+00 4.970441e+00 1.414593e+01 6.505691e+00 1.311102e+01 4.534613e+00 1.160709e+01 3.542165e+00 1.084103e+01 2.606900e+00 1.012280e+01 2.345056e+00 1.005613e+01 2.101914e+00 9.622077e+00 1.897762e+00 9.665659e+00 1.885016e+00 9.415900e+00 1.571046e+00 9.452750e+00 1.717913e+00 9.369697e+00 1.380606e+00 9.286374e+00 1.676891e+00 9.427410e+00 1.492344e+00 9.134873e+00 1.716190e+00 9.113194e+00 1.515671e+00 8.741924e+00 1.222218e+00 8.637635e+00 1.088443e+00 8.580089e+00 9.733858e-01 8.540400e+00 9.087580e-01 8.504530e+00 8.812801e-01 8.453299e+00 8.870131e-01 
8.681331e+00 1.091256e+00 8.623428e+00 1.276515e+00 8.617503e+00 1.284064e+00 8.536713e+00 1.399204e+00 8.598513e+00 1.500400e+00 8.832727e+00 1.488540e+00 9.252168e+00 1.175677e+00 9.159901e+00 -1.792178e-01 4.665526e+00 -9.810700e+00 -2.433387e+01 -1.652398e+01 1.572494e+01 1.245056e+01 1.754494e+01 8.591866e+00 1.404377e+01 4.625984e+00 1.164119e+01 3.647086e+00 1.102754e+01 2.521673e+00 1.002880e+01 2.172314e+00 1.025085e+01 2.356461e+00 9.657457e+00 1.636902e+00 9.679778e+00 2.260431e+00 9.593748e+00 1.383825e+00 9.279305e+00 1.687397e+00 9.569277e+00 1.308051e+00 9.226536e+00 1.409587e+00 9.645804e+00 1.692395e+00 9.185051e+00 1.450903e+00 9.206105e+00 1.752581e+00 9.019547e+00 1.471867e+00 8.725349e+00 1.065179e+00 8.639961e+00 9.203574e-01 8.664387e+00 9.041191e-01 8.691507e+00 9.230012e-01 8.700008e+00 9.711519e-01 
8.994337e+00 1.146900e+00 8.997299e+00 1.342686e+00 9.084909e+00 1.358535e+00 9.026756e+00 1.582909e+00 9.157327e+00 1.972438e+00 9.563318e+00 2.653656e+00 1.050319e+01 3.672120e+00 1.287336e+01 4.760649e+00 1.941306e+01 5.803838e+00 2.944067e+01 6.915681e+01 6.752288e+01 3.765389e+01 2.787558e+01 1.260069e+01 1.529403e+01 4.931017e+00 1.194387e+01 3.761390e+00 1.035860e+01 1.565092e+00 9.771640e+00 2.352186e+00 9.718774e+00 1.216678e+00 9.178135e+00 1.698596e+00 9.551379e+00 1.663863e+00 8.953670e+00 1.090282e+00 9.363802e+00 2.222459e+00 9.093710e+00 7.675125e-01 9.123140e+00 2.196341e+00 9.614110e+00 1.335599e+00 9.048015e+00 2.515495e+00 9.326099e+00 2.788218e+00 8.900569e+00 1.461287e+00 8.690827e+00 8.576250e-01 8.761966e+00 8.079148e-01 8.873063e+00 8.710961e-01 8.938205e+00 9.268058e-01 8.975803e+00 1.000084e+00 
9.267438e+00 1.237563e+00 9.343088e+00 1.438356e+00 9.524488e+00 1.457817e+00 9.471490e+00 1.782148e+00 9.607321e+00 2.463302e+00 1.001161e+01 3.898406e+00 1.116455e+01 6.580065e+00 1.553161e+01 1.176289e+01 3.183369e+01 3.048304e+01 9.116588e+01 1.071505e+02 6.539560e+01 2.812418e+01 2.270246e+01 7.375373e+00 1.252054e+01 3.726129e+00 9.393254e+00 -1.262436e-01 7.711431e+00 5.589549e-01 7.820606e+00 -9.156241e-01 6.700262e+00 -8.049166e-01 7.387468e+00 -6.956726e-01 6.909190e+00 -1.210775e+00 7.154652e+00 -1.442024e-01 7.186144e+00 -7.703734e-01 6.950223e+00 4.449481e-02 7.283659e+00 -5.886035e-01 6.899379e+00 -4.254301e-01 7.636376e+00 -1.960843e-01 7.884229e+00 1.272049e-02 7.985310e+00 4.384040e-02 8.534559e+00 4.584908e-01 8.887776e+00 7.359799e-01 9.041236e+00 8.756157e-01 9.124573e+00 9.636046e-01 9.197889e+00 1.066333e+00 
9.537755e+00 1.270436e+00 9.669504e+00 1.461385e+00 9.924713e+00 1.485984e+00 9.819766e+00 1.812516e+00 9.885830e+00 2.446295e+00 1.017624e+01 3.747037e+00 1.101611e+01 6.322194e+00 1.371764e+01 1.180142e+01 2.110924e+01 3.072858e+01 4.949377e+01 1.074310e+01 -6.177241e+00 -7.846376e+00 5.396077e+00 -7.460869e-01 7.621774e+00 1.489628e+00 7.577278e+00 -1.064191e+00 6.562113e+00 3.610878e-01 7.171267e+00 -1.724550e+00 5.610910e+00 -1.184334e+00 6.905519e+00 -1.481677e+00 5.645265e+00 -2.395304e+00 6.642315e+00 -5.147000e-01 5.974952e+00 -3.053898e+00 6.018982e+00 -6.873213e-02 6.280410e+00 -3.237042e+00 4.841777e+00 -1.545760e+00 6.631086e+00 -4.146363e+00 6.486214e+00 -4.123239e+00 8.440846e+00 -7.876059e-01 9.223353e+00 6.371021e-01 9.346035e+00 9.520665e-01 9.332952e+00 9.844954e-01 9.361554e+00 1.012972e+00 9.438573e+00 1.101097e+00 
9.766300e+00 1.314879e+00 9.966528e+00 1.499861e+00 1.029748e+01 1.525001e+00 1.014320e+01 1.791076e+00 1.018520e+01 2.166635e+00 1.052319e+01 2.775632e+00 1.136889e+01 4.050237e+00 1.265292e+01 6.868710e+00 1.214066e+01 1.156664e+01 -2.144753e+00 -3.586255e+01 -1.892735e+01 -9.630030e+00 4.294592e+00 6.108474e-01 8.333279e+00 1.429909e+00 9.363732e+00 2.528573e+00 9.078655e+00 1.107871e+00 9.023276e+00 1.752548e+00 8.839852e+00 5.321750e-01 8.606590e+00 1.033921e+00 8.672569e+00 3.192650e-01 8.239362e+00 4.561217e-01 8.583962e+00 4.811357e-01 8.102681e+00 -3.286376e-02 8.355712e+00 9.527308e-02 7.845170e+00 -7.574040e-01 8.220696e+00 -5.843143e-01 7.985585e+00 -1.527179e+00 8.454441e+00 -5.734353e-01 8.962767e+00 3.688296e-01 9.235171e+00 7.847943e-01 9.365741e+00 9.342274e-01 9.478583e+00 1.023113e+00 9.612288e+00 1.139589e+00 
9.997129e+00 1.312128e+00 1.024441e+01 1.477332e+00 1.062998e+01 1.502198e+00 1.041172e+01 1.741230e+00 1.037773e+01 2.025590e+00 1.061312e+01 2.341948e+00 1.125029e+01 2.920529e+00 1.195250e+01 4.156302e+00 1.141682e+01 1.616632e+00 3.244214e+00 -1.590740e+01 -5.103470e+00 -7.088924e+00 3.969908e+00 -1.076957e+00 7.940860e+00 4.255096e-01 8.918963e+00 1.771492e+00 9.860506e+00 1.593395e+00 9.481452e+00 1.905568e+00 1.012691e+01 1.975994e+00 9.519942e+00 1.548070e+00 9.858056e+00 2.144842e+00 9.520859e+00 1.068050e+00 9.522930e+00 2.000308e+00 9.600656e+00 6.814587e-01 9.439151e+00 1.707927e+00 9.967935e+00 9.222213e-01 9.495404e+00 1.995460e+00 9.588408e+00 2.051239e+00 9.133906e+00 8.190298e-01 9.131589e+00 5.800819e-01 9.319532e+00 7.519860e-01 9.498805e+00 9.117551e-01 9.651394e+00 1.023503e+00 9.811902e+00 1.146239e+00 
1.018199e+01 1.311947e+00 1.049357e+01 1.443530e+00 1.093683e+01 1.465068e+00 1.068550e+01 1.640704e+00 1.058275e+01 1.857309e+00 1.064413e+01 2.118279e+00 1.083245e+01 2.419352e+00 1.074833e+01 2.598426e+00 9.359708e+00 5.458154e-01 6.159623e+00 -1.058503e+01 -1.555137e+00 -6.495023e+00 4.026468e+00 -1.839389e+00 7.354700e+00 1.226237e-01 8.800080e+00 1.245095e+00 9.491567e+00 1.507641e+00 9.548806e+00 1.687650e+00 9.819707e+00 1.876927e+00 9.601372e+00 1.597383e+00 9.663367e+00 1.882347e+00 9.589995e+00 1.389225e+00 9.478519e+00 1.540164e+00 9.624634e+00 1.255246e+00 9.431486e+00 1.407954e+00 9.781499e+00 1.577988e+00 9.387885e+00 1.481927e+00 9.587312e+00 1.917752e+00 9.533059e+00 1.401064e+00 9.344524e+00 9.211126e-01 9.387299e+00 8.447210e-01 9.549500e+00 9.256780e-01 9.738074e+00 1.033138e+00 9.944620e+00 1.160574e+00 
1.037214e+01 1.269289e+00 1.072533e+01 1.371880e+00 1.120761e+01 1.390125e+00 1.090216e+01 1.508643e+00 1.072284e+01 1.625976e+00 1.063885e+01 1.744658e+00 1.053701e+01 1.802590e+00 1.008233e+01 1.262459e+00 8.634252e+00 -1.301161e+00 5.080694e+00 -6.511478e+00 2.620043e+00 -4.553745e+00 4.993588e+00 -1.857902e+00 7.273558e+00 -1.317285e-01 8.494941e+00 8.962322e-01 9.277160e+00 1.346152e+00 9.469131e+00 1.602753e+00 9.724219e+00 1.695844e+00 9.620604e+00 1.658002e+00 9.674556e+00 1.677754e+00 9.597848e+00 1.486675e+00 9.560203e+00 1.523197e+00 9.611187e+00 1.377978e+00 9.532714e+00 1.500133e+00 9.711760e+00 1.527137e+00 9.533595e+00 1.606912e+00 9.591452e+00 1.542393e+00 9.436271e+00 1.257351e+00 9.438527e+00 1.024839e+00 9.525912e+00 9.286122e-01 9.682296e+00 9.542730e-01 9.878121e+00 1.034312e+00 1.010417e+01 1.144302e+00 
1.051954e+01 1.257273e+00 1.092273e+01 1.333192e+00 1.145440e+01 1.349328e+00 1.109437e+01 1.443737e+00 1.082544e+01 1.521474e+00 1.058438e+01 1.531059e+00 1.024730e+01 1.355487e+00 9.570912e+00 6.475751e-01 8.236454e+00 -1.295567e+00 6.179869e+00 -4.798763e+00 3.883069e+00 -3.975545e+00 5.372681e+00 -1.866573e+00 7.247409e+00 -1.911349e-01 8.501432e+00 8.009426e-01 9.194112e+00 1.331328e+00 9.490702e+00 1.567713e+00 9.630518e+00 1.653856e+00 9.631486e+00 1.635249e+00 9.607996e+00 1.581008e+00 9.602920e+00 1.509018e+00 9.550225e+00 1.420817e+00 9.570678e+00 1.433083e+00 9.537480e+00 1.421811e+00 9.588019e+00 1.456112e+00 9.542866e+00 1.398493e+00 9.569900e+00 1.404330e+00 9.591555e+00 1.320581e+00 9.592814e+00 1.160468e+00 9.639062e+00 1.044259e+00 9.767717e+00 1.021996e+00 9.964170e+00 1.068965e+00 1.021283e+01 1.157274e+00 
1.067167e+01 1.206283e+00 1.110837e+01 1.252774e+00 1.167145e+01 1.265186e+00 1.125820e+01 1.314105e+00 1.091141e+01 1.326365e+00 1.055081e+01 1.229966e+00 1.005616e+01 8.789663e-01 9.244647e+00 1.136886e-02 7.913683e+00 -1.642949e+00 6.143096e+00 -3.529548e+00 5.166433e+00 -3.026664e+00 6.154593e+00 -1.463680e+00 7.579286e+00 -8.409978e-02 8.596184e+00 8.109762e-01 9.225767e+00 1.293486e+00 9.486445e+00 1.526784e+00 9.636111e+00 1.603338e+00 9.631883e+00 1.600729e+00 9.638288e+00 1.556635e+00 9.609825e+00 1.497812e+00 9.585891e+00 1.458066e+00 9.594071e+00 1.442271e+00 9.573185e+00 1.445634e+00 9.623652e+00 1.430273e+00 9.597149e+00 1.389970e+00 9.618757e+00 1.333123e+00 9.598843e+00 1.244641e+00 9.634010e+00 1.145293e+00 9.722965e+00 1.067244e+00 9.870452e+00 1.042682e+00 1.007679e+01 1.071380e+00 1.033995e+01 1.136205e+00 
1.078615e+01 1.201308e+00 1.126017e+01 1.228460e+00 1.186500e+01 1.240206e+00 1.139746e+01 1.269023e+00 1.098490e+01 1.247761e+00 1.054001e+01 1.091380e+00 9.954290e+00 6.746965e-01 9.100254e+00 -1.729179e-01 7.889053e+00 -1.561618e+00 6.492379e+00 -3.060770e+00 5.549834e+00 -2.859297e+00 6.371436e+00 -1.371901e+00 7.722280e+00 2.034202e-02 8.736485e+00 9.044757e-01 9.303715e+00 1.360249e+00 9.551600e+00 1.558989e+00 9.641768e+00 1.605483e+00 9.641332e+00 1.584334e+00 9.619129e+00 1.525610e+00 9.597638e+00 1.469574e+00 9.570051e+00 1.420093e+00 9.563040e+00 1.400548e+00 9.555632e+00 1.387405e+00 9.579436e+00 1.361866e+00 9.589237e+00 1.326027e+00 9.622855e+00 1.292965e+00 9.666313e+00 1.247592e+00 9.721821e+00 1.185680e+00 9.806615e+00 1.124158e+00 9.945743e+00 1.093514e+00 1.015175e+01 1.106410e+00 1.042760e+01 1.152609e+00 
1.090338e+01 1.158023e+00 1.140401e+01 1.162969e+00 1.203557e+01 1.172250e+00 1.152643e+01 1.171840e+00 1.106026e+01 1.107766e+00 1.054569e+01 8.862193e-01 9.876088e+00 3.878948e-01 8.939256e+00 -5.017797e-01 7.686344e+00 -1.762212e+00 6.358124e+00 -2.850021e+00 5.776667e+00 -2.552885e+00 6.897074e+00 -8.747916e-01 8.257683e+00 4.268766e-01 9.093386e+00 1.142895e+00 9.504953e+00 1.465242e+00 9.643527e+00 1.583593e+00 9.683931e+00 1.595682e+00 9.659293e+00 1.561534e+00 9.633480e+00 1.508436e+00 9.606425e+00 1.456913e+00 9.583806e+00 1.421048e+00 9.583411e+00 1.396911e+00 9.580153e+00 1.381090e+00 9.612343e+00 1.350534e+00 9.627523e+00 1.311123e+00 9.659077e+00 1.264456e+00 9.691110e+00 1.212495e+00 9.752461e+00 1.160098e+00 9.856258e+00 1.113100e+00 1.001340e+01 1.088971e+00 1.023358e+01 1.097850e+00 1.052409e+01 1.130614e+00 
1.098682e+01 1.162324e+00 1.151567e+01 1.156756e+00 1.218114e+01 1.166870e+00 1.163682e+01 1.155376e+00 1.113973e+01 1.080711e+00 1.060020e+01 8.548596e-01 9.915850e+00 3.663874e-01 8.985975e+00 -4.940698e-01 7.743955e+00 -1.732402e+00 6.325674e+00 -2.980681e+00 5.481366e+00 -3.024817e+00 6.863268e+00 -7.864715e-01 8.527788e+00 7.390888e-01 9.404969e+00 1.419416e+00 9.716018e+00 1.646312e+00 9.778881e+00 1.678997e+00 9.735513e+00 1.630214e+00 9.688390e+00 1.564262e+00 9.624859e+00 1.483985e+00 9.595299e+00 1.428123e+00 9.563782e+00 1.376916e+00 9.554651e+00 1.351929e+00 9.561882e+00 1.333167e+00 9.580727e+00 1.310229e+00 9.624815e+00 1.285986e+00 9.656846e+00 1.251806e+00 9.726582e+00 1.223207e+00 9.806286e+00 1.182925e+00 9.907328e+00 1.137071e+00 1.006162e+01 1.111544e+00 1.028587e+01 1.118290e+00 1.058764e+01 1.145404e+00 
1.107276e+01 1.131950e+00 1.162206e+01 1.116081e+00 1.231004e+01 1.125582e+00 1.174485e+01 1.102344e+00 1.122728e+01 1.010152e+00 1.066531e+01 7.615680e-01 9.944822e+00 2.424109e-01 8.941459e+00 -6.852327e-01 7.542905e+00 -2.062812e+00 5.798443e+00 -3.543269e+00 4.704508e+00 -3.472991e+00 7.428162e+00 8.348359e-02 9.445633e+00 1.532977e+00 1.000933e+01 1.856029e+00 1.003387e+01 1.837775e+00 9.910337e+00 1.732076e+00 9.785174e+00 1.629291e+00 9.702646e+00 1.541078e+00 9.622889e+00 1.458098e+00 9.599418e+00 1.407543e+00 9.560084e+00 1.356787e+00 9.571789e+00 1.340074e+00 9.573106e+00 1.317012e+00 9.608426e+00 1.304901e+00 9.652672e+00 1.276773e+00 9.682462e+00 1.240193e+00 9.748189e+00 1.205523e+00 9.820504e+00 1.156494e+00 9.929399e+00 1.108360e+00 1.009963e+01 1.087376e+00 1.034020e+01 1.098677e+00 1.065674e+01 1.124105e+00 
1.112665e+01 1.147141e+00 1.169513e+01 1.132077e+00 1.240987e+01 1.143836e+00 1.182753e+01 1.123894e+00 1.131076e+01 1.039364e+00 1.077569e+01 8.225628e-01 1.010520e+01 3.790841e-01 9.166267e+00 -4.820813e-01 7.770669e+00 -1.913569e+00 5.570100e+00 -4.063969e+00 3.206659e+00 -5.496405e+00 7.139854e+00 4.909837e-01 1.011187e+01 2.315913e+00 1.061943e+01 2.369163e+00 1.036390e+01 2.133368e+00 1.011172e+01 1.864032e+00 9.831858e+00 1.670754e+00 9.755915e+00 1.559002e+00 9.595471e+00 1.410939e+00 9.594586e+00 1.397047e+00 9.531959e+00 1.282639e+00 9.533346e+00 1.307260e+00 9.566102e+00 1.261686e+00 9.559843e+00 1.286175e+00 9.677362e+00 1.279833e+00 9.652757e+00 1.239856e+00 9.773759e+00 1.255517e+00 9.854542e+00 1.177536e+00 9.944199e+00 1.099104e+00 1.011629e+01 1.079090e+00 1.036867e+01 1.102933e+00 1.069695e+01 1.137074e+00 
1.118471e+01 1.134346e+00 1.176617e+01 1.121271e+00 1.249867e+01 1.134363e+00 1.191637e+01 1.126343e+00 1.141178e+01 1.053819e+00 1.090779e+01 8.487089e-01 1.027808e+01 4.315923e-01 9.325745e+00 -4.622451e-01 7.727301e+00 -2.319225e+00 4.576264e+00 -5.660893e+00 -1.417502e-01 -8.107491e+00 8.758265e+00 3.136279e+00 1.206002e+01 3.771536e+00 1.143539e+01 2.895753e+00 1.070592e+01 2.317338e+00 1.016728e+01 1.834379e+00 9.856502e+00 1.678778e+00 9.734682e+00 1.476503e+00 9.567480e+00 1.406149e+00 9.601450e+00 1.340651e+00 9.486018e+00 1.262661e+00 9.575236e+00 1.290129e+00 9.531176e+00 1.200753e+00 9.616464e+00 1.326322e+00 9.681344e+00 1.247966e+00 9.681334e+00 1.295785e+00 9.789843e+00 1.247194e+00 9.829749e+00 1.122788e+00 9.933476e+00 1.039862e+00 1.013196e+01 1.037475e+00 1.040421e+01 1.078662e+00 1.074456e+01 1.121972e+00 
1.120974e+01 1.160289e+00 1.180009e+01 1.157277e+00 1.255193e+01 1.173544e+00 1.196164e+01 1.199413e+00 1.147084e+01 1.161141e+00 1.102957e+01 9.804276e-01 1.054132e+01 6.796089e-01 9.796484e+00 6.048487e-02 8.538499e+00 -1.562601e+00 5.071771e+00 -5.445958e+00 -5.128475e+00 -1.540445e+01 9.201043e+00 5.836968e+00 1.414990e+01 5.677403e+00 1.247476e+01 3.548532e+00 1.110394e+01 2.771076e+00 1.036197e+01 1.808833e+00 9.832449e+00 1.795851e+00 9.825382e+00 1.415484e+00 9.461741e+00 1.354744e+00 9.646323e+00 1.367935e+00 9.387176e+00 1.101412e+00 9.560693e+00 1.356620e+00 9.493410e+00 9.664800e-01 9.563821e+00 1.450353e+00 9.757003e+00 1.168078e+00 9.595115e+00 1.421852e+00 9.860959e+00 1.428090e+00 9.812702e+00 1.055891e+00 9.895233e+00 9.548863e-01 1.012968e+01 1.004905e+00 1.042033e+01 1.079615e+00 1.076560e+01 1.138602e+00 
1.124067e+01 1.163305e+00 1.183582e+01 1.169970e+00 1.259883e+01 1.188946e+00 1.202678e+01 1.254863e+00 1.157115e+01 1.282916e+00 1.120202e+01 1.204834e+00 1.085849e+01 1.073054e+00 1.035598e+01 7.089446e-01 9.328955e+00 -1.090767e+00 4.968821e+00 -8.872164e+00 -1.660116e+01 -1.430531e+01 2.354168e+01 1.670389e+01 1.833616e+01 7.416893e+00 1.291619e+01 3.665454e+00 1.109988e+01 2.611115e+00 1.008690e+01 1.549431e+00 9.749324e+00 1.691016e+00 9.607588e+00 1.132989e+00 9.371574e+00 1.326220e+00 9.499944e+00 1.099977e+00 9.234503e+00 1.123413e+00 9.489104e+00 1.152647e+00 9.269431e+00 8.721964e-01 9.557126e+00 1.321382e+00 9.531618e+00 9.828785e-01 9.599496e+00 1.460578e+00 9.740813e+00 1.231078e+00 9.688412e+00 8.586009e-01 9.866018e+00 8.605155e-01 1.014720e+01 9.695007e-01 1.044920e+01 1.066677e+00 1.079542e+01 1.134881e+00 
1.123355e+01 1.181850e+00 1.183200e+01 1.193967e+00 1.260257e+01 1.214668e+00 1.204705e+01 1.344707e+00 1.159853e+01 1.551361e+00 1.120831e+01 1.796275e+00 1.091158e+01 1.943972e+00 1.084570e+01 2.039491e+00 1.092141e+01 1.970496e+00 1.183856e+01 -2.588273e-01 5.749052e+00 3.308816e+01 5.624922e+01 3.157406e+01 2.333001e+01 9.163338e+00 1.323901e+01 3.503393e+00 1.010123e+01 1.140764e+00 9.038138e+00 9.175056e-01 8.663652e+00 9.962278e-02 8.164012e+00 3.158999e-01 8.410529e+00 4.901275e-02 7.977273e+00 -1.098706e-02 8.396947e+00 1.254317e-01 8.084841e+00 -2.582214e-01 8.394593e+00 1.630562e-01 8.300650e+00 -6.951010e-01 8.308335e+00 -2.238104e-01 8.819581e+00 -7.402545e-01 8.812689e+00 -4.726887e-01 9.440242e+00 3.935196e-01 9.906667e+00 8.296586e-01 1.018876e+01 9.960460e-01 1.045873e+01 1.085129e+00 1.079104e+01 1.150194e+00 
1.123501e+01 1.185672e+00 1.183138e+01 1.210057e+00 1.260319e+01 1.233605e+00 1.208087e+01 1.422860e+00 1.167143e+01 1.770803e+00 1.133079e+01 2.279746e+00 1.119936e+01 2.786694e+00 1.175802e+01 3.779289e+00 1.365210e+01 7.147126e+00 2.197912e+01 1.807740e+01 5.157188e+01 5.733800e+01 3.481982e+01 8.516665e+00 1.331247e+01 2.457698e+00 1.030682e+01 1.258605e+00 8.512832e+00 -4.285651e-01 8.192707e+00 3.255784e-01 7.902930e+00 -9.153300e-01 7.398010e+00 -1.119045e-01 7.895596e+00 -6.726063e-01 7.238231e+00 -4.948999e-01 8.050844e+00 -3.785538e-01 7.430797e+00 -8.448396e-01 8.096789e+00 -9.402100e-02 7.766187e+00 -1.474361e+00 7.903558e+00 -6.229010e-01 8.530245e+00 -1.556776e+00 8.523065e+00 -1.003466e+00 9.422837e+00 2.952319e-01 9.957487e+00 8.413197e-01 1.022091e+01 1.006172e+00 1.047241e+01 1.084739e+00 1.079641e+01 1.148099e+00 
1.119450e+01 1.187149e+00 1.178774e+01 1.220379e+00 1.255407e+01 1.243952e+00 1.204543e+01 1.406435e+00 1.167630e+01 1.654685e+00 1.143881e+01 1.995516e+00 1.142060e+01 2.492283e+00 1.188839e+01 3.621997e+00 1.340470e+01 6.822324e+00 1.840646e+01 1.714879e+01 4.127702e+01 9.591516e+00 -1.162603e+01 -1.546576e+01 3.834334e+00 -2.627777e+00 8.146020e+00 1.958260e-01 8.841809e+00 4.036530e-01 8.682608e+00 5.527698e-01 8.806202e+00 5.067219e-01 8.542225e+00 3.919728e-01 8.725593e+00 5.799145e-01 8.613287e+00 3.449025e-01 8.710279e+00 6.259602e-01 8.800383e+00 4.020085e-01 8.761947e+00 5.320700e-01 9.039307e+00 5.356924e-01 8.937468e+00 4.906552e-01 9.270751e+00 7.911986e-01 9.333837e+00 6.077462e-01 9.484421e+00 6.247657e-01 9.800409e+00 7.979778e-01 1.010689e+01 9.468611e-01 1.040764e+01 1.056603e+00 1.075169e+01 1.138809e+00 