# vtk DataFile Version 2.0
Comment goes here
ASCII

DATASET STRUCTURED_POINTS
FIELD FieldData 1
TIME 1 1 double
0.00600000
DIMENSIONS    64   64   1

ORIGIN    0.000   0.000   0.000
SPACING   0.03125 0.03125   1.000

POINT_DATA   4096
SCALARS uX double
LOOKUP_TABLE default

-9.176590e-02 -2.822654e-02 7.470484e-03 -7.948305e-03 -2.426823e-02 3.487046e-02 -8.734821e-02 9.550537e-02 -1.444665e-01 1.437651e-01 -1.809740e-01 1.668259e-01 -1.902004e-01 1.615048e-01 -1.701667e-01 1.313793e-01 -1.371971e-01 1.007911e-01 -1.127169e-01 7.766180e-02 -8.884516e-02 4.687384e-02 -5.783932e-02 1.827547e-02 -3.242525e-02 -1.005221e-02 -4.781450e-03 -4.019314e-02 2.245650e-02 -6.682539e-02 4.690953e-02 -8.886720e-02 6.085751e-02 -1.021865e-01 6.900283e-02 -1.091430e-01 7.308766e-02 -1.135881e-01 7.421741e-02 -1.146562e-01 7.267451e-02 -1.136177e-01 6.883596e-02 -1.098583e-01 6.146296e-02 -1.033574e-01 5.173337e-02 -9.437356e-02 4.025485e-02 -8.475757e-02 3.075718e-02 -7.839141e-02 2.321459e-02 -7.754420e-02 2.965069e-02 -9.843827e-02 5.288681e-02 -1.176439e-01 4.929799e-02 -9.089869e-02 -8.816996e-03 -1.332780e-02 -1.081965e-01 8.077622e-02 
-6.793789e-02 2.380700e-01 -2.777797e-01 2.558971e-01 -2.741894e-01 2.332520e-01 -2.272555e-01 1.840775e-01 -1.802055e-01 1.367180e-01 -1.411344e-01 9.889252e-02 -1.121092e-01 7.117450e-02 -9.561227e-02 5.588045e-02 -8.350569e-02 3.847331e-02 -6.235802e-02 1.326475e-02 -4.090486e-02 -1.847212e-03 -2.742663e-02 -2.373307e-02 -3.810311e-03 -4.679736e-02 1.668585e-02 -6.474138e-02 3.598429e-02 -8.364800e-02 4.968914e-02 -9.708532e-02 6.640318e-02 -1.095634e-01 7.689648e-02 -1.163251e-01 8.128653e-02 -1.183821e-01 8.289030e-02 -1.179934e-01 8.213867e-02 -1.149932e-01 7.896306e-02 -1.101601e-01 7.611004e-02 -1.048880e-01 7.108162e-02 -9.759073e-02 6.516489e-02 -8.980788e-02 5.883977e-02 -8.272174e-02 5.700895e-02 -7.818289e-02 5.032884e-02 -6.016663e-02 3.112455e-02 -4.093207e-02 2.727556e-02 -4.776704e-02 5.320740e-02 -7.821048e-02 9.171168e-02 -9.347519e-02 
1.084246e-01 1.525857e-01 -6.954920e-02 1.598468e-01 -4.297192e-02 1.271443e-01 -6.326029e-03 7.878498e-02 5.185613e-02 3.521848e-02 1.021574e-01 6.128570e-03 1.358071e-01 -6.809699e-03 1.492256e-01 -3.769731e-03 1.541299e-01 -3.889402e-03 1.678780e-01 -1.293937e-02 1.814042e-01 -1.452222e-02 1.866051e-01 -1.928484e-02 1.973926e-01 -2.438215e-02 2.048723e-01 -2.669049e-02 2.107072e-01 -3.021928e-02 2.141277e-01 -3.236036e-02 2.213779e-01 -3.615968e-02 2.265801e-01 -3.934725e-02 2.292156e-01 -3.992449e-02 2.300079e-01 -3.983619e-02 2.294599e-01 -3.852465e-02 2.274391e-01 -3.680937e-02 2.257138e-01 -3.535827e-02 2.231820e-01 -3.413335e-02 2.202875e-01 -3.316752e-02 2.156192e-01 -3.131328e-02 2.117774e-01 -2.862184e-02 1.975942e-01 -7.771392e-03 1.659416e-01 1.479263e-02 1.514882e-01 3.939913e-03 1.748401e-01 -4.157472e-02 2.229904e-01 -8.732834e-02 
8.185229e-02 -1.170471e-01 1.147192e-01 -9.505578e-02 -5.532362e-02 -7.252890e-02 5.264304e-02 -4.368521e-02 1.172586e-01 -2.311907e-02 1.626233e-01 -1.098017e-02 1.978848e-01 -4.959619e-03 2.299222e-01 -6.784791e-03 2.568811e-01 -6.319169e-03 2.711048e-01 5.454927e-04 2.808218e-01 4.523801e-04 2.931278e-01 4.613762e-03 2.962084e-01 9.488977e-03 2.991494e-01 1.194858e-02 3.004921e-01 1.617176e-02 3.031210e-01 1.786617e-02 3.014836e-01 2.014249e-02 3.016170e-01 2.048544e-02 3.028441e-01 1.939705e-02 3.033522e-01 1.839051e-02 3.027957e-01 1.710970e-02 3.017151e-01 1.561683e-02 2.984177e-01 1.452646e-02 2.943569e-01 1.303343e-02 2.884486e-01 1.194300e-02 2.804736e-01 1.183859e-02 2.659955e-01 1.492459e-02 2.509971e-01 8.597307e-03 2.413118e-01 1.105490e-03 2.147839e-01 1.358798e-02 1.552871e-01 5.039762e-02 5.877106e-02 9.974084e-02 
1.369381e-01 -6.612016e-02 1.290093e-01 -5.570160e-02 -2.284138e-02 -4.432261e-02 9.805264e-02 -3.106216e-02 1.612097e-01 -2.151769e-02 2.027415e-01 -1.540865e-02 2.332527e-01 -1.134275e-02 2.584224e-01 -1.063170e-02 2.785124e-01 -8.412922e-03 2.902677e-01 -2.934179e-03 2.985909e-01 -1.230197e-03 3.073612e-01 2.590179e-03 3.105193e-01 6.737104e-03 3.129262e-01 9.600741e-03 3.140608e-01 1.315313e-02 3.156061e-01 1.506348e-02 3.149392e-01 1.680326e-02 3.151945e-01 1.723288e-02 3.159224e-01 1.662313e-02 3.161262e-01 1.592342e-02 3.155104e-01 1.495661e-02 3.143345e-01 1.376558e-02 3.117041e-01 1.262618e-02 3.082530e-01 1.122128e-02 3.032481e-01 1.009840e-02 2.963064e-01 9.802414e-03 2.846601e-01 1.186652e-02 2.712327e-01 9.308700e-03 2.596096e-01 5.607866e-03 2.387482e-01 1.102950e-02 2.002291e-01 2.784402e-02 1.393522e-01 5.180561e-02 
1.229104e-01 -4.387628e-02 1.057363e-01 -5.324582e-02 3.598592e-02 -5.303636e-02 9.609950e-02 -3.739529e-02 1.447660e-01 -2.417456e-02 1.828837e-01 -1.482082e-02 2.136258e-01 -9.184488e-03 2.395709e-01 -6.818181e-03 2.605045e-01 -4.485559e-03 2.750104e-01 -8.625875e-04 2.855578e-01 1.454992e-03 2.942637e-01 4.583272e-03 2.992061e-01 7.939619e-03 3.024812e-01 1.067098e-02 3.045329e-01 1.341652e-02 3.060715e-01 1.530453e-02 3.062273e-01 1.678442e-02 3.064323e-01 1.733208e-02 3.067544e-01 1.706317e-02 3.066495e-01 1.645569e-02 3.058208e-01 1.557736e-02 3.041676e-01 1.453610e-02 3.011987e-01 1.350815e-02 2.969903e-01 1.241324e-02 2.910897e-01 1.150709e-02 2.829743e-01 1.100234e-02 2.716318e-01 1.087419e-02 2.582780e-01 8.637328e-03 2.427499e-01 7.389351e-03 2.179470e-01 1.286922e-02 1.799180e-01 2.271798e-02 1.364680e-01 1.967460e-02 
1.645320e-01 -2.607285e-02 1.342813e-01 -3.276690e-02 6.591694e-02 -3.269181e-02 1.310698e-01 -2.584921e-02 1.802473e-01 -1.975921e-02 2.164548e-01 -1.500702e-02 2.439354e-01 -1.146648e-02 2.656304e-01 -9.088917e-03 2.824372e-01 -6.454483e-03 2.942473e-01 -3.086252e-03 3.028346e-01 -4.199080e-04 3.095540e-01 2.598505e-03 3.136177e-01 5.679077e-03 3.162630e-01 8.330992e-03 3.178778e-01 1.082763e-02 3.189886e-01 1.263598e-02 3.192492e-01 1.395503e-02 3.194573e-01 1.455364e-02 3.196008e-01 1.450852e-02 3.193867e-01 1.414215e-02 3.185926e-01 1.348799e-02 3.171298e-01 1.264311e-02 3.146890e-01 1.169029e-02 3.111802e-01 1.066747e-02 3.062351e-01 9.778467e-03 2.993722e-01 9.247750e-03 2.899037e-01 9.166425e-03 2.784049e-01 8.047755e-03 2.649037e-01 7.125391e-03 2.457221e-01 9.048674e-03 2.184130e-01 1.257573e-02 1.857663e-01 9.146905e-03 
1.674515e-01 -2.351674e-02 1.484189e-01 -3.405840e-02 1.178428e-01 -3.420211e-02 1.506897e-01 -2.856971e-02 1.824572e-01 -2.131731e-02 2.102112e-01 -1.493002e-02 2.338506e-01 -1.014235e-02 2.538729e-01 -6.820859e-03 2.701943e-01 -3.965400e-03 2.825561e-01 -1.036353e-03 2.918444e-01 1.570516e-03 2.988588e-01 4.243524e-03 3.036026e-01 6.907024e-03 3.067906e-01 9.261263e-03 3.088615e-01 1.138306e-02 3.101870e-01 1.301899e-02 3.107262e-01 1.421538e-02 3.109487e-01 1.484626e-02 3.109137e-01 1.492642e-02 3.105007e-01 1.465333e-02 3.095065e-01 1.407262e-02 3.077785e-01 1.331602e-02 3.050720e-01 1.243309e-02 3.011762e-01 1.149324e-02 2.958123e-01 1.056647e-02 2.885759e-01 9.707039e-03 2.791657e-01 8.863522e-03 2.676445e-01 7.630566e-03 2.533672e-01 6.967057e-03 2.341993e-01 7.879169e-03 2.098614e-01 7.852267e-03 1.848399e-01 -3.743857e-04 
2.011489e-01 -1.495875e-02 1.773887e-01 -2.183857e-02 1.452543e-01 -2.194120e-02 1.801702e-01 -1.990534e-02 2.122858e-01 -1.666613e-02 2.389032e-01 -1.339309e-02 2.604047e-01 -1.042645e-02 2.777283e-01 -7.797070e-03 2.913620e-01 -5.221533e-03 3.014515e-01 -2.535526e-03 3.089414e-01 3.746225e-05 3.144053e-01 2.549348e-03 3.181355e-01 5.050646e-03 3.206291e-01 7.217239e-03 3.221984e-01 9.188876e-03 3.232203e-01 1.069868e-02 3.236112e-01 1.182670e-02 3.237841e-01 1.251695e-02 3.236356e-01 1.271477e-02 3.232272e-01 1.264849e-02 3.223437e-01 1.220963e-02 3.209029e-01 1.162807e-02 3.187422e-01 1.082325e-02 3.155428e-01 9.977512e-03 3.111400e-01 9.098107e-03 3.050428e-01 8.241782e-03 2.971788e-01 7.503832e-03 2.875813e-01 6.585639e-03 2.758728e-01 5.782949e-03 2.608105e-01 5.449673e-03 2.419028e-01 4.263485e-03 2.208289e-01 -1.398139e-03 
2.135478e-01 -1.595011e-02 2.024128e-01 -2.302078e-02 1.913887e-01 -2.315741e-02 2.064979e-01 -2.137170e-02 2.242138e-01 -1.759699e-02 2.416698e-01 -1.343967e-02 2.576966e-01 -9.633582e-03 2.718772e-01 -6.354364e-03 2.838454e-01 -3.514394e-03 2.931765e-01 -8.868605e-04 3.004031e-01 1.620919e-03 3.057262e-01 3.915819e-03 3.095560e-01 6.184953e-03 3.122167e-01 8.084672e-03 3.139358e-01 9.835010e-03 3.150882e-01 1.117360e-02 3.155417e-01 1.221171e-02 3.157221e-01 1.291081e-02 3.154505e-01 1.314265e-02 3.149333e-01 1.315844e-02 3.139260e-01 1.274347e-02 3.123682e-01 1.222173e-02 3.101346e-01 1.141416e-02 3.068300e-01 1.055853e-02 3.024074e-01 9.557099e-03 2.963507e-01 8.394223e-03 2.888106e-01 7.240469e-03 2.797668e-01 6.050300e-03 2.688713e-01 4.961709e-03 2.556150e-01 3.817050e-03 2.404778e-01 1.179759e-03 2.256248e-01 -5.341174e-03 
2.418090e-01 -1.060660e-02 2.287536e-01 -1.532295e-02 2.162764e-01 -1.541937e-02 2.321394e-01 -1.516952e-02 2.498608e-01 -1.361124e-02 2.664867e-01 -1.147427e-02 2.810625e-01 -9.048687e-03 2.935229e-01 -6.448527e-03 3.038352e-01 -4.094699e-03 3.112580e-01 -1.870244e-03 3.170749e-01 5.575535e-04 3.209919e-01 2.512716e-03 3.238912e-01 4.758091e-03 3.259193e-01 6.299206e-03 3.270670e-01 8.011510e-03 3.280824e-01 9.143824e-03 3.281911e-01 1.013566e-02 3.284322e-01 1.097279e-02 3.279300e-01 1.118469e-02 3.275432e-01 1.152733e-02 3.266518e-01 1.107373e-02 3.253964e-01 1.083542e-02 3.238337e-01 9.996512e-03 3.211087e-01 9.319374e-03 3.177389e-01 8.393691e-03 3.124790e-01 7.116199e-03 3.061862e-01 6.020023e-03 2.988665e-01 5.004449e-03 2.901891e-01 3.964542e-03 2.797311e-01 2.698775e-03 2.675440e-01 4.410959e-04 2.545151e-01 -3.984553e-03 
2.586456e-01 -1.196701e-02 2.561891e-01 -1.639196e-02 2.573232e-01 -1.650040e-02 2.597764e-01 -1.616120e-02 2.662783e-01 -1.425976e-02 2.745824e-01 -1.159836e-02 2.834011e-01 -8.597783e-03 2.921013e-01 -5.446970e-03 3.001362e-01 -2.847958e-03 3.059037e-01 -6.169943e-04 3.108660e-01 1.886326e-03 3.140879e-01 3.614762e-03 3.166801e-01 5.833506e-03 3.185838e-01 7.058037e-03 3.195775e-01 8.698398e-03 3.206876e-01 9.629406e-03 3.206301e-01 1.054642e-02 3.209479e-01 1.144312e-02 3.202323e-01 1.157440e-02 3.198567e-01 1.209420e-02 3.188955e-01 1.152092e-02 3.176340e-01 1.141212e-02 3.162677e-01 1.044303e-02 3.136018e-01 9.767805e-03 3.106366e-01 8.708476e-03 3.056076e-01 7.071252e-03 2.999574e-01 5.652119e-03 2.937386e-01 4.365688e-03 2.867313e-01 3.008463e-03 2.789034e-01 1.244077e-03 2.707992e-01 -1.602935e-03 2.636279e-01 -6.186973e-03 
2.827883e-01 -8.182993e-03 2.794914e-01 -1.126197e-02 2.796844e-01 -1.134054e-02 2.822888e-01 -1.173836e-02 2.885625e-01 -1.113627e-02 2.961406e-01 -9.845290e-03 3.038493e-01 -7.846105e-03 3.114757e-01 -4.853758e-03 3.192016e-01 -2.833759e-03 3.226737e-01 -1.409123e-03 3.271112e-01 1.553915e-03 3.285961e-01 2.186011e-03 3.305216e-01 5.170671e-03 3.320879e-01 5.211449e-03 3.320703e-01 7.412254e-03 3.338498e-01 7.731852e-03 3.326387e-01 8.596871e-03 3.338247e-01 1.005610e-02 3.321073e-01 9.522282e-03 3.323661e-01 1.120277e-02 3.313217e-01 9.722867e-03 3.301988e-01 1.064081e-02 3.300856e-01 9.009327e-03 3.273196e-01 8.905982e-03 3.262283e-01 8.042290e-03 3.209451e-01 5.808725e-03 3.162178e-01 4.454159e-03 3.115057e-01 3.445338e-03 3.062792e-01 2.369327e-03 3.003705e-01 9.395511e-04 2.940156e-01 -1.205232e-03 2.878717e-01 -4.361083e-03 
3.011814e-01 -9.351676e-03 3.063262e-01 -1.217656e-02 3.161443e-01 -1.225982e-02 3.090473e-01 -1.250923e-02 3.065753e-01 -1.168172e-02 3.070032e-01 -1.009645e-02 3.092393e-01 -7.713807e-03 3.130034e-01 -3.988062e-03 3.186938e-01 -1.807907e-03 3.194408e-01 -6.233691e-04 3.230717e-01 2.932593e-03 3.230787e-01 2.821020e-03 3.244977e-01 6.478351e-03 3.258567e-01 5.616410e-03 3.251070e-01 8.268945e-03 3.274516e-01 8.102517e-03 3.253443e-01 8.897740e-03 3.272084e-01 1.074432e-02 3.246712e-01 9.615366e-03 3.253697e-01 1.212342e-02 3.241610e-01 9.834946e-03 3.230078e-01 1.145900e-02 3.236979e-01 9.181020e-03 3.206727e-01 9.356194e-03 3.209318e-01 8.439378e-03 3.154810e-01 5.530310e-03 3.116702e-01 3.929802e-03 3.084956e-01 2.750085e-03 3.054068e-01 1.460603e-03 3.024600e-01 -2.466528e-04 3.001758e-01 -2.644612e-03 2.994255e-01 -5.829363e-03 
3.219619e-01 -6.510411e-03 3.267175e-01 -8.571292e-03 3.359829e-01 -8.633696e-03 3.287882e-01 -9.302445e-03 3.259806e-01 -9.349434e-03 3.256802e-01 -8.924728e-03 3.267310e-01 -7.638280e-03 3.293461e-01 -2.298444e-03 3.388153e-01 -9.644068e-04 3.331281e-01 -2.500803e-03 3.401055e-01 4.889922e-03 3.357514e-01 -4.992197e-04 3.375241e-01 8.522634e-03 3.398249e-01 1.969955e-03 3.352886e-01 8.679462e-03 3.425963e-01 5.787012e-03 3.346907e-01 6.448266e-03 3.421226e-01 1.114281e-02 3.342983e-01 5.636750e-03 3.385030e-01 1.403797e-02 3.360552e-01 5.977860e-03 3.340018e-01 1.298204e-02 3.389786e-01 6.506287e-03 3.318580e-01 9.235394e-03 3.389104e-01 9.070604e-03 3.288460e-01 3.621590e-03 3.262320e-01 2.540890e-03 3.246560e-01 1.951958e-03 3.230457e-01 1.126977e-03 3.214476e-01 -1.038246e-04 3.202667e-01 -1.836694e-03 3.201568e-01 -4.068209e-03 
3.403065e-01 -7.437377e-03 3.517674e-01 -9.322742e-03 3.682384e-01 -9.386937e-03 3.537125e-01 -9.931167e-03 3.439943e-01 -9.859775e-03 3.376318e-01 -9.390814e-03 3.335610e-01 -8.178928e-03 3.320077e-01 -2.219185e-03 3.397527e-01 -1.020703e-03 3.301074e-01 -3.316038e-03 3.367759e-01 5.290020e-03 3.301538e-01 -1.759333e-03 3.313924e-01 8.942743e-03 3.334965e-01 6.054571e-04 3.274124e-01 8.601441e-03 3.360013e-01 4.844612e-03 3.260895e-01 5.426355e-03 3.351994e-01 1.094126e-02 3.256908e-01 3.969276e-03 3.310498e-01 1.416993e-02 3.282775e-01 4.239525e-03 3.260516e-01 1.295669e-02 3.325601e-01 5.157117e-03 3.244562e-01 8.715502e-03 3.342722e-01 8.828205e-03 3.236946e-01 2.682056e-03 3.227458e-01 1.784690e-03 3.231648e-01 1.242753e-03 3.239357e-01 3.298385e-04 3.253464e-01 -1.046122e-03 3.280079e-01 -2.897217e-03 3.327023e-01 -5.131910e-03 
3.581742e-01 -5.222006e-03 3.694250e-01 -6.651730e-03 3.855611e-01 -6.699886e-03 3.709073e-01 -7.485141e-03 3.609036e-01 -8.032642e-03 3.538774e-01 -8.863111e-03 3.480490e-01 -1.147709e-02 3.403707e-01 -2.133247e-02 3.213975e-01 -2.293222e-02 3.308702e-01 -1.864087e-02 3.183289e-01 -2.974466e-02 3.260124e-01 -1.761154e-02 3.222288e-01 -3.067610e-02 3.168978e-01 -1.577158e-02 3.233913e-01 -2.462019e-02 3.086819e-01 -1.677092e-02 3.213653e-01 -1.607579e-02 3.072639e-01 -2.335236e-02 3.207309e-01 -1.300536e-02 3.129113e-01 -2.763470e-02 3.168488e-01 -1.292021e-02 3.198294e-01 -2.478294e-02 3.101060e-01 -1.245439e-02 3.221963e-01 -1.637231e-02 3.098983e-01 -1.467096e-02 3.292172e-01 -2.946821e-03 3.352150e-01 1.323364e-04 3.378393e-01 6.935145e-04 3.397957e-01 2.904341e-04 3.421013e-01 -6.440091e-04 3.454391e-01 -1.967348e-03 3.505182e-01 -3.563300e-03 
3.755635e-01 -5.943348e-03 3.921889e-01 -7.248141e-03 4.139167e-01 -7.295795e-03 3.935770e-01 -7.967518e-03 3.780694e-01 -8.432933e-03 3.659750e-01 -9.417172e-03 3.553505e-01 -1.334209e-02 3.416471e-01 -3.011389e-02 3.078599e-01 -3.268669e-02 3.243041e-01 -2.510113e-02 3.014680e-01 -4.522036e-02 3.147873e-01 -2.404443e-02 3.079253e-01 -4.814558e-02 2.985947e-01 -2.236711e-02 3.105614e-01 -3.909004e-02 2.846936e-01 -2.582954e-02 3.077364e-01 -2.511091e-02 2.826496e-01 -3.841137e-02 3.068044e-01 -2.000392e-02 2.928044e-01 -4.632848e-02 2.999488e-01 -2.014106e-02 3.055057e-01 -4.175057e-02 2.883920e-01 -2.009521e-02 3.103175e-01 -2.766856e-02 2.881127e-01 -2.538813e-02 3.222192e-01 -5.452273e-03 3.324707e-01 -7.235900e-04 3.374830e-01 1.048815e-04 3.418211e-01 -3.376826e-04 3.469759e-01 -1.369295e-03 3.537989e-01 -2.764307e-03 3.630591e-01 -4.361962e-03 
3.907875e-01 -4.162720e-03 4.072452e-01 -5.165329e-03 4.287275e-01 -5.196806e-03 4.083754e-01 -5.904993e-03 3.928554e-01 -6.432439e-03 3.808830e-01 -7.014195e-03 3.712199e-01 -8.055320e-03 3.626419e-01 -9.893958e-03 3.544572e-01 -1.043136e-02 3.506435e-01 -1.006864e-02 3.459326e-01 -1.101732e-02 3.439709e-01 -9.447234e-03 3.413018e-01 -1.014663e-02 3.387249e-01 -7.882017e-03 3.376012e-01 -7.981825e-03 3.346481e-01 -6.476159e-03 3.348686e-01 -5.954503e-03 3.328741e-01 -6.499819e-03 3.340716e-01 -5.370752e-03 3.333830e-01 -6.800761e-03 3.340832e-01 -5.127959e-03 3.348506e-01 -6.012848e-03 3.345187e-01 -4.295505e-03 3.369887e-01 -4.178631e-03 3.377715e-01 -3.238042e-03 3.430520e-01 -8.668471e-04 3.475638e-01 2.425672e-04 3.516863e-01 4.001058e-04 3.561922e-01 -1.365183e-05 3.617179e-01 -7.937052e-04 3.688653e-01 -1.823434e-03 3.782974e-01 -2.994139e-03 
4.066950e-01 -4.724208e-03 4.275061e-01 -5.627027e-03 4.534309e-01 -5.655188e-03 4.286089e-01 -6.212604e-03 4.087395e-01 -6.492608e-03 3.928635e-01 -6.519012e-03 3.802591e-01 -5.720909e-03 3.714381e-01 3.111924e-04 3.737950e-01 1.136441e-03 3.580420e-01 -1.849388e-03 3.609935e-01 7.061195e-03 3.502610e-01 -1.070832e-03 3.488598e-01 1.012087e-02 3.490650e-01 6.080125e-04 3.408933e-01 8.916138e-03 3.491640e-01 4.510189e-03 3.376513e-01 4.928513e-03 3.471547e-01 1.082226e-02 3.366923e-01 3.204292e-03 3.427242e-01 1.431453e-02 3.402659e-01 3.537184e-03 3.388000e-01 1.303089e-02 3.472747e-01 4.545795e-03 3.403335e-01 8.395682e-03 3.533539e-01 8.465158e-03 3.447794e-01 1.676646e-03 3.473994e-01 6.817753e-04 3.524646e-01 2.422201e-04 3.588844e-01 -4.139557e-04 3.669322e-01 -1.327035e-03 3.771474e-01 -2.426503e-03 3.901661e-01 -3.606064e-03 
4.194334e-01 -3.267748e-03 4.400438e-01 -3.961755e-03 4.657249e-01 -3.975800e-03 4.410059e-01 -4.508217e-03 4.212629e-01 -4.783452e-03 4.055883e-01 -4.720442e-03 3.933285e-01 -3.883240e-03 3.845815e-01 -3.865642e-04 3.819625e-01 5.142313e-04 3.714310e-01 -3.835324e-04 3.698995e-01 4.196796e-03 3.625178e-01 9.133271e-04 3.599156e-01 6.415850e-03 3.585107e-01 2.305534e-03 3.536053e-01 6.355330e-03 3.565658e-01 4.523036e-03 3.506113e-01 4.988890e-03 3.544541e-01 8.027267e-03 3.492747e-01 4.811766e-03 3.519321e-01 1.013607e-02 3.509676e-01 5.241670e-03 3.507928e-01 9.526762e-03 3.555523e-01 5.413199e-03 3.534080e-01 6.923371e-03 3.605496e-01 6.483209e-03 3.576320e-01 2.499989e-03 3.602895e-01 1.313226e-03 3.651441e-01 6.816242e-04 3.715652e-01 5.090374e-05 3.797099e-01 -6.915274e-04 3.900039e-01 -1.536249e-03 4.030168e-01 -2.424952e-03 
4.335444e-01 -3.717539e-03 4.577128e-01 -4.332867e-03 4.869789e-01 -4.342992e-03 4.586827e-01 -4.738332e-03 4.354178e-01 -4.809384e-03 4.164833e-01 -4.447592e-03 4.013795e-01 -3.322031e-03 3.900374e-01 -8.886748e-04 3.826071e-01 2.931110e-04 3.729890e-01 6.956419e-04 3.676559e-01 3.178559e-03 3.608694e-01 2.566814e-03 3.567264e-01 5.185352e-03 3.537669e-01 3.979727e-03 3.500340e-01 5.839744e-03 3.498037e-01 5.382168e-03 3.464883e-01 5.875361e-03 3.471844e-01 7.392262e-03 3.447116e-01 6.456058e-03 3.456201e-01 8.681485e-03 3.455665e-01 6.813721e-03 3.463057e-01 8.269723e-03 3.494622e-01 6.353296e-03 3.503498e-01 6.503016e-03 3.550729e-01 5.648359e-03 3.560499e-01 2.994352e-03 3.598932e-01 1.531381e-03 3.660909e-01 5.980288e-04 3.743171e-01 -2.311866e-04 3.847183e-01 -1.096039e-03 3.976901e-01 -2.005992e-03 4.137611e-01 -2.908790e-03 
4.438890e-01 -2.518779e-03 4.677776e-01 -2.992156e-03 4.967437e-01 -2.991429e-03 4.686511e-01 -3.371514e-03 4.455999e-01 -3.475181e-03 4.268779e-01 -3.200166e-03 4.119182e-01 -2.352801e-03 4.003743e-01 -7.614594e-04 3.918486e-01 2.340705e-04 3.831505e-01 8.480046e-04 3.770930e-01 2.405207e-03 3.709695e-01 2.504269e-03 3.666268e-01 4.032627e-03 3.633389e-01 3.743563e-03 3.601276e-01 4.831799e-03 3.588922e-01 4.838029e-03 3.565284e-01 5.301991e-03 3.562607e-01 6.247042e-03 3.547923e-01 6.031328e-03 3.551725e-01 7.201151e-03 3.554341e-01 6.382162e-03 3.564103e-01 6.975406e-03 3.588519e-01 5.906388e-03 3.605503e-01 5.685939e-03 3.642893e-01 4.859426e-03 3.666060e-01 3.055432e-03 3.708237e-01 1.827023e-03 3.770355e-01 9.634550e-04 3.852135e-01 2.291185e-04 3.955516e-01 -4.847401e-04 4.084235e-01 -1.202489e-03 4.243337e-01 -1.898922e-03 
4.560121e-01 -2.900750e-03 4.828285e-01 -3.316691e-03 5.147172e-01 -3.312748e-03 4.837159e-01 -3.591610e-03 4.577625e-01 -3.561316e-03 4.362705e-01 -3.139938e-03 4.187354e-01 -2.226022e-03 4.047250e-01 -8.592980e-04 3.935854e-01 2.430290e-04 3.836324e-01 1.149861e-03 3.757612e-01 2.380805e-03 3.688065e-01 2.977917e-03 3.634124e-01 4.038104e-03 3.592022e-01 4.301133e-03 3.556801e-01 5.037340e-03 3.534851e-01 5.313817e-03 3.513111e-01 5.770016e-03 3.503533e-01 6.404378e-03 3.493324e-01 6.534148e-03 3.494697e-01 7.105017e-03 3.500405e-01 6.768128e-03 3.514053e-01 6.828679e-03 3.538707e-01 6.101618e-03 3.565435e-01 5.569583e-03 3.604957e-01 4.623709e-03 3.644496e-01 3.117150e-03 3.700347e-01 1.850443e-03 3.776893e-01 8.506687e-04 3.875746e-01 -1.090789e-05 3.999333e-01 -8.175177e-04 4.151336e-01 -1.589778e-03 4.336453e-01 -2.302340e-03 
4.640170e-01 -1.912811e-03 4.904426e-01 -2.236490e-03 5.219346e-01 -2.224876e-03 4.912430e-01 -2.514378e-03 4.656025e-01 -2.547889e-03 4.444015e-01 -2.253063e-03 4.270886e-01 -1.566093e-03 4.131495e-01 -5.525963e-04 4.019126e-01 3.422106e-04 3.922216e-01 1.130594e-03 3.843620e-01 2.073536e-03 3.776313e-01 2.666319e-03 3.722917e-01 3.461487e-03 3.680830e-01 3.811041e-03 3.646791e-01 4.380800e-03 3.623442e-01 4.704321e-03 3.603484e-01 5.125085e-03 3.592727e-01 5.635511e-03 3.584548e-01 5.859871e-03 3.585400e-01 6.257782e-03 3.591771e-01 6.111614e-03 3.605709e-01 6.081725e-03 3.628867e-01 5.557639e-03 3.656574e-01 5.045774e-03 3.694491e-01 4.223683e-03 3.736762e-01 3.034779e-03 3.793650e-01 1.975872e-03 3.869615e-01 1.117104e-03 3.967025e-01 3.886965e-04 4.088606e-01 -2.716642e-04 4.238065e-01 -8.872107e-04 4.420088e-01 -1.446280e-03 
4.740363e-01 -2.262469e-03 5.028810e-01 -2.548455e-03 5.367703e-01 -2.534753e-03 5.036896e-01 -2.757598e-03 4.756400e-01 -2.707058e-03 4.520967e-01 -2.326671e-03 4.325643e-01 -1.584717e-03 4.165418e-01 -5.722277e-04 4.033792e-01 3.899580e-04 3.921906e-01 1.277256e-03 3.829539e-01 2.216896e-03 3.751791e-01 2.925743e-03 3.689180e-01 3.685350e-03 3.639462e-01 4.151575e-03 3.600012e-01 4.690710e-03 3.571441e-01 5.068896e-03 3.549174e-01 5.483185e-03 3.535872e-01 5.924095e-03 3.527922e-01 6.169217e-03 3.528897e-01 6.437510e-03 3.537168e-01 6.325588e-03 3.554076e-01 6.173658e-03 3.580686e-01 5.657415e-03 3.614603e-01 5.047147e-03 3.659158e-01 4.164969e-03 3.712163e-01 3.001179e-03 3.781072e-01 1.903263e-03 3.870579e-01 9.664060e-04 3.983597e-01 1.563623e-04 4.123080e-01 -5.708046e-04 4.292678e-01 -1.230201e-03 4.496780e-01 -1.806510e-03 
4.797352e-01 -1.445763e-03 5.080517e-01 -1.676410e-03 5.414163e-01 -1.657775e-03 5.087702e-01 -1.916828e-03 4.811582e-01 -1.951844e-03 4.580316e-01 -1.700475e-03 4.388817e-01 -1.108579e-03 4.232217e-01 -2.298547e-04 4.104304e-01 5.567590e-04 3.994595e-01 1.256314e-03 3.905034e-01 2.091856e-03 3.828999e-01 2.625203e-03 3.768273e-01 3.334360e-03 3.720205e-01 3.659052e-03 3.681627e-01 4.173698e-03 3.654561e-01 4.474915e-03 3.632483e-01 4.856627e-03 3.620279e-01 5.311763e-03 3.612128e-01 5.513873e-03 3.613574e-01 5.859210e-03 3.621618e-01 5.725224e-03 3.638111e-01 5.681323e-03 3.664651e-01 5.198317e-03 3.697449e-01 4.714616e-03 3.741730e-01 3.958319e-03 3.792839e-01 2.885696e-03 3.859994e-01 1.925678e-03 3.947442e-01 1.141845e-03 4.057761e-01 4.822341e-04 4.193839e-01 -1.008492e-04 4.359369e-01 -6.253510e-04 4.558832e-01 -1.082662e-03 
4.875820e-01 -1.789916e-03 5.178995e-01 -2.000159e-03 5.532357e-01 -1.980662e-03 5.186189e-01 -2.200893e-03 4.890036e-01 -2.185923e-03 4.639069e-01 -1.877844e-03 4.428798e-01 -1.217064e-03 4.254975e-01 -2.387231e-04 4.111982e-01 6.108394e-04 3.987955e-01 1.350276e-03 3.886851e-01 2.283255e-03 3.800367e-01 2.821810e-03 3.731349e-01 3.624800e-03 3.676621e-01 3.929059e-03 3.632350e-01 4.503569e-03 3.601722e-01 4.788464e-03 3.576269e-01 5.168691e-03 3.562867e-01 5.640505e-03 3.553588e-01 5.780683e-03 3.555810e-01 6.150676e-03 3.565287e-01 5.923432e-03 3.584408e-01 5.882579e-03 3.615350e-01 5.308364e-03 3.653140e-01 4.796424e-03 3.704911e-01 3.990441e-03 3.763920e-01 2.821146e-03 3.841206e-01 1.796461e-03 3.940765e-01 9.570051e-04 4.065000e-01 2.429187e-04 4.216737e-01 -3.891532e-04 4.399554e-01 -9.504641e-04 4.617679e-01 -1.427266e-03 
4.909979e-01 -1.106921e-03 5.206243e-01 -1.289073e-03 5.552799e-01 -1.266972e-03 5.212489e-01 -1.547302e-03 4.922196e-01 -1.645538e-03 4.676788e-01 -1.491366e-03 4.471809e-01 -9.411409e-04 4.304233e-01 1.805792e-04 4.171259e-01 8.581627e-04 4.046807e-01 1.243222e-03 3.952927e-01 2.412388e-03 3.866356e-01 2.406936e-03 3.800981e-01 3.590441e-03 3.750070e-01 3.317368e-03 3.704959e-01 4.177960e-03 3.680684e-01 4.166264e-03 3.651608e-01 4.512987e-03 3.643786e-01 5.242590e-03 3.630101e-01 5.023793e-03 3.635168e-01 5.940581e-03 3.643002e-01 5.249343e-03 3.660483e-01 5.719165e-03 3.694166e-01 4.841508e-03 3.726851e-01 4.655079e-03 3.782145e-01 4.012498e-03 3.832867e-01 2.625861e-03 3.906053e-01 1.700744e-03 4.002417e-01 1.044076e-03 4.122764e-01 5.014483e-04 4.269655e-01 1.412377e-05 4.446785e-01 -4.274148e-04 4.658582e-01 -8.094798e-04 
4.966332e-01 -1.465307e-03 5.279113e-01 -1.641818e-03 5.641869e-01 -1.620101e-03 5.285324e-01 -1.883593e-03 4.978395e-01 -1.961426e-03 4.716409e-01 -1.784794e-03 4.495462e-01 -1.170366e-03 4.313686e-01 2.186802e-04 4.171180e-01 9.422168e-04 4.031062e-01 1.226196e-03 3.929547e-01 2.744484e-03 3.831450e-01 2.451728e-03 3.759247e-01 4.061707e-03 3.703296e-01 3.436715e-03 3.651058e-01 4.603570e-03 3.626813e-01 4.414408e-03 3.591315e-01 4.760331e-03 3.585748e-01 5.690531e-03 3.567739e-01 5.161182e-03 3.575492e-01 6.461799e-03 3.583740e-01 5.335681e-03 3.602942e-01 6.123688e-03 3.643151e-01 4.899426e-03 3.677706e-01 4.838245e-03 3.743436e-01 4.182850e-03 3.797390e-01 2.498392e-03 3.879077e-01 1.505934e-03 3.986295e-01 8.240531e-04 4.118926e-01 2.497924e-04 4.279349e-01 -2.753823e-04 4.471169e-01 -7.518102e-04 4.698626e-01 -1.158218e-03 
4.977834e-01 -8.788899e-04 5.281801e-01 -1.045616e-03 5.635912e-01 -1.023083e-03 5.287103e-01 -1.364158e-03 4.987829e-01 -1.595137e-03 4.732753e-01 -1.680954e-03 4.517339e-01 -1.347714e-03 4.341646e-01 1.024548e-03 4.229641e-01 1.457516e-03 4.068397e-01 4.373426e-04 3.993540e-01 3.909876e-03 3.882437e-01 9.967525e-04 3.819286e-01 5.298576e-03 3.774045e-01 1.845830e-03 3.707507e-01 5.045567e-03 3.711553e-01 3.505997e-03 3.649479e-01 3.778022e-03 3.673172e-01 6.127493e-03 3.629264e-01 3.393479e-03 3.654057e-01 7.630248e-03 3.654659e-01 3.614435e-03 3.666718e-01 7.098154e-03 3.724610e-01 3.800557e-03 3.733680e-01 5.043219e-03 3.827131e-01 4.818503e-03 3.850404e-01 1.905460e-03 3.928954e-01 1.208393e-03 4.033433e-01 8.340153e-04 4.161256e-01 4.677306e-04 4.315272e-01 8.623940e-05 4.499589e-01 -2.854918e-04 4.718805e-01 -6.169415e-04 
5.011864e-01 -1.266651e-03 5.329381e-01 -1.439495e-03 5.696741e-01 -1.418467e-03 5.334692e-01 -1.756411e-03 5.021715e-01 -1.994953e-03 4.752632e-01 -2.131883e-03 4.522888e-01 -1.899911e-03 4.333137e-01 7.491705e-04 4.216054e-01 1.109805e-03 4.035488e-01 -2.805873e-04 3.958368e-01 3.861990e-03 3.834065e-01 1.755415e-04 3.766021e-01 5.401631e-03 3.717574e-01 1.128867e-03 3.641100e-01 5.040243e-03 3.649871e-01 3.123364e-03 3.576417e-01 3.384576e-03 3.607747e-01 6.160594e-03 3.555192e-01 2.686858e-03 3.585991e-01 7.805979e-03 3.585739e-01 2.834050e-03 3.598062e-01 7.143768e-03 3.665109e-01 3.169218e-03 3.671141e-01 4.805257e-03 3.780273e-01 4.724290e-03 3.803072e-01 1.483729e-03 3.891445e-01 9.056133e-04 4.006441e-01 5.852713e-04 4.145093e-01 2.100730e-04 4.310602e-01 -2.072979e-04 4.507202e-01 -6.195851e-04 4.739398e-01 -9.843730e-04 
5.000851e-01 -7.414359e-04 5.307341e-01 -9.120992e-04 5.663912e-01 -8.908469e-04 5.312022e-01 -1.295773e-03 5.009163e-01 -1.693642e-03 4.748971e-01 -2.291130e-03 4.523034e-01 -3.786454e-03 4.315289e-01 -8.863219e-03 4.077008e-01 -9.874043e-03 4.003148e-01 -7.873141e-03 3.840539e-01 -1.356295e-02 3.796428e-01 -7.627214e-03 3.711216e-01 -1.425353e-02 3.631652e-01 -6.907604e-03 3.623196e-01 -1.138564e-02 3.519194e-01 -7.518926e-03 3.561350e-01 -7.175510e-03 3.478241e-01 -1.081907e-02 3.540958e-01 -5.621221e-03 3.505449e-01 -1.292769e-02 3.536863e-01 -5.568405e-03 3.572587e-01 -1.153033e-02 3.554225e-01 -5.436731e-03 3.656079e-01 -7.486784e-03 3.647923e-01 -6.789420e-03 3.812310e-01 -1.039404e-03 3.926000e-01 3.933292e-04 4.041139e-01 6.177895e-04 4.173589e-01 4.518606e-04 4.330631e-01 1.517379e-04 4.517552e-01 -1.802182e-04 4.739292e-01 -4.897679e-04 
5.012446e-01 -1.172692e-03 5.329933e-01 -1.357196e-03 5.697246e-01 -1.338057e-03 5.334834e-01 -1.733549e-03 5.021045e-01 -2.134218e-03 4.749431e-01 -2.849677e-03 4.510197e-01 -5.037118e-03 4.279794e-01 -1.360396e-02 3.971577e-01 -1.512451e-02 3.935877e-01 -1.139897e-02 3.722737e-01 -2.156990e-02 3.707086e-01 -1.101060e-02 3.606116e-01 -2.308867e-02 3.505538e-01 -1.021875e-02 3.523791e-01 -1.856100e-02 3.362976e-01 -1.194346e-02 3.456423e-01 -1.153590e-02 3.317949e-01 -1.818329e-02 3.433910e-01 -8.938567e-03 3.367692e-01 -2.209753e-02 3.415302e-01 -9.015556e-03 3.464491e-01 -1.985332e-02 3.409776e-01 -9.129945e-03 3.561378e-01 -1.299975e-02 3.504504e-01 -1.204739e-02 3.742727e-01 -2.204308e-03 3.877279e-01 4.768102e-05 4.002961e-01 4.035736e-04 4.144434e-01 2.153658e-04 4.310806e-01 -1.410222e-04 4.507693e-01 -5.311257e-04 4.739975e-01 -8.888121e-04 
4.979038e-01 -6.802609e-04 5.282930e-01 -8.609732e-04 5.636948e-01 -8.404303e-04 5.287752e-01 -1.239749e-03 4.987740e-01 -1.598132e-03 4.730884e-01 -2.011563e-03 4.510579e-01 -2.663069e-03 4.319485e-01 -3.716513e-03 4.151984e-01 -4.079850e-03 4.027325e-01 -3.945028e-03 3.915309e-01 -4.474183e-03 3.833114e-01 -3.691710e-03 3.760885e-01 -4.055661e-03 3.700963e-01 -2.903479e-03 3.658927e-01 -2.936078e-03 3.616711e-01 -2.153007e-03 3.598837e-01 -1.854680e-03 3.577377e-01 -2.093362e-03 3.579183e-01 -1.496059e-03 3.578762e-01 -2.190908e-03 3.592615e-01 -1.359794e-03 3.614698e-01 -1.826039e-03 3.639908e-01 -1.034212e-03 3.688546e-01 -1.058265e-03 3.739851e-01 -7.036114e-04 3.825488e-01 3.505868e-04 3.921519e-01 7.925973e-04 4.031531e-01 7.955076e-04 4.161356e-01 5.733429e-04 4.316151e-01 2.524207e-04 4.500756e-01 -9.360864e-05 4.720040e-01 -4.162599e-04 