# vtk DataFile Version 2.0
Comment goes here
ASCII

DATASET STRUCTURED_POINTS
FIELD FieldData 1
TIME 1 1 double
0.00500000
DIMENSIONS    64   64   1

ORIGIN    0.000   0.000   0.000
SPACING   0.03125 0.03125   1.000

POINT_DATA   4096
SCALARS uX double
LOOKUP_TABLE default

-1.199816e-01 5.154096e-02 -4.302581e-02 6.628711e-02 -6.176906e-02 9.221621e-02 -1.029293e-01 1.322763e-01 -1.391745e-01 1.612468e-01 -1.579634e-01 1.669601e-01 -1.491319e-01 1.419051e-01 -1.134483e-01 1.030583e-01 -8.121119e-02 7.503200e-02 -5.883195e-02 4.780324e-02 -3.288351e-02 1.685954e-02 -3.477237e-03 -1.336094e-02 2.127696e-02 -4.132484e-02 4.348046e-02 -6.460456e-02 5.965635e-02 -8.002919e-02 6.816761e-02 -8.926175e-02 7.030490e-02 -9.389789e-02 6.981344e-02 -9.710708e-02 6.913072e-02 -9.981406e-02 6.674690e-02 -1.015265e-01 6.432406e-02 -1.026266e-01 6.042732e-02 -1.027608e-01 5.452758e-02 -1.000284e-01 4.581335e-02 -9.519220e-02 3.405661e-02 -8.569595e-02 1.974951e-02 -7.683093e-02 7.100240e-03 -7.015746e-02 -3.375828e-03 -6.910436e-02 7.300947e-04 -8.524984e-02 9.449228e-03 -8.061245e-02 -2.642331e-02 -2.063915e-02 -1.143811e-01 7.099336e-02 
-7.543587e-02 2.101427e-01 -2.502059e-01 2.247910e-01 -2.490627e-01 2.065260e-01 -2.094182e-01 1.625705e-01 -1.667198e-01 1.185826e-01 -1.281818e-01 8.147479e-02 -1.006649e-01 5.805237e-02 -8.574012e-02 4.029048e-02 -6.550761e-02 1.526490e-02 -3.888148e-02 -8.952487e-03 -1.812510e-02 -2.411882e-02 -3.990069e-03 -4.385864e-02 1.834507e-02 -6.436004e-02 3.756144e-02 -7.895396e-02 5.146889e-02 -8.965012e-02 5.945785e-02 -9.461746e-02 6.648535e-02 -9.850308e-02 7.087885e-02 -9.950597e-02 7.234034e-02 -9.849745e-02 7.316470e-02 -9.693779e-02 7.342598e-02 -9.463938e-02 7.267590e-02 -9.031502e-02 7.107846e-02 -8.534734e-02 6.763754e-02 -7.768948e-02 6.210117e-02 -6.894686e-02 5.509578e-02 -5.769369e-02 4.775084e-02 -4.759237e-02 4.273229e-02 -3.725705e-02 3.039209e-02 -1.612519e-02 1.439488e-02 -6.249371e-03 2.426734e-02 -2.577002e-02 5.650320e-02 -4.350116e-02 
7.656048e-02 1.068924e-01 -6.881306e-02 1.159716e-01 -5.079292e-02 9.420533e-02 -2.391213e-02 5.583034e-02 2.312315e-02 2.011342e-02 6.521581e-02 -3.554746e-03 8.979926e-02 -7.631137e-03 9.488599e-02 -3.826133e-03 1.040326e-01 -1.042040e-02 1.206369e-01 -1.749419e-02 1.317359e-01 -1.957496e-02 1.370475e-01 -2.238458e-02 1.458225e-01 -2.529111e-02 1.526349e-01 -2.710958e-02 1.579783e-01 -2.944044e-02 1.628567e-01 -3.120968e-02 1.686560e-01 -3.354731e-02 1.732245e-01 -3.434531e-02 1.750208e-01 -3.340430e-02 1.762268e-01 -3.196319e-02 1.759622e-01 -2.981644e-02 1.749959e-01 -2.659373e-02 1.734907e-01 -2.401927e-02 1.718385e-01 -2.090089e-02 1.696598e-01 -1.918811e-02 1.668127e-01 -1.540378e-02 1.619461e-01 -1.104704e-02 1.564670e-01 -3.870756e-03 1.384629e-01 1.868567e-02 1.133215e-01 2.738808e-02 1.202126e-01 -3.964951e-03 1.625439e-01 -4.835107e-02 
4.985018e-02 -9.437577e-02 7.829149e-02 -7.937647e-02 -6.042206e-02 -6.091989e-02 2.810704e-02 -3.723719e-02 7.945084e-02 -1.927371e-02 1.135823e-01 -7.464014e-03 1.419605e-01 -5.157049e-03 1.702051e-01 -6.204236e-03 1.878806e-01 -1.068376e-03 1.959246e-01 4.295955e-03 2.041188e-01 4.808373e-03 2.132251e-01 8.761422e-03 2.145346e-01 1.367217e-02 2.156811e-01 1.600133e-02 2.179911e-01 1.716831e-02 2.215544e-01 1.605890e-02 2.234930e-01 1.571931e-02 2.250447e-01 1.470883e-02 2.265628e-01 1.363289e-02 2.266067e-01 1.327279e-02 2.252253e-01 1.350978e-02 2.228789e-01 1.309658e-02 2.195566e-01 1.287734e-02 2.156323e-01 1.164696e-02 2.110253e-01 1.051788e-02 2.050989e-01 8.385495e-03 1.966086e-01 8.002737e-03 1.826271e-01 8.622622e-03 1.699581e-01 1.092219e-03 1.554462e-01 2.050973e-03 1.126552e-01 2.936329e-02 3.087804e-02 7.236090e-02 
9.359499e-02 -5.554469e-02 8.798837e-02 -4.961672e-02 -3.676366e-02 -4.034151e-02 6.252701e-02 -2.881567e-02 1.129661e-01 -1.970809e-02 1.446856e-01 -1.290158e-02 1.685964e-01 -1.016282e-02 1.895544e-01 -8.717046e-03 2.031153e-01 -3.969722e-03 2.105118e-01 6.049046e-04 2.171845e-01 2.648026e-03 2.235231e-01 6.330951e-03 2.252761e-01 1.033141e-02 2.266174e-01 1.268987e-02 2.285311e-01 1.393088e-02 2.311361e-01 1.358570e-02 2.329204e-01 1.336560e-02 2.343359e-01 1.272029e-02 2.354869e-01 1.204777e-02 2.355029e-01 1.182396e-02 2.344506e-01 1.194129e-02 2.325721e-01 1.166702e-02 2.299595e-01 1.137015e-02 2.267695e-01 1.036720e-02 2.229275e-01 9.327079e-03 2.179012e-01 7.791735e-03 2.107529e-01 7.504507e-03 1.995002e-01 8.275639e-03 1.877552e-01 4.621923e-03 1.744840e-01 4.455421e-03 1.460099e-01 1.668680e-02 9.507854e-02 3.643172e-02 
8.339192e-02 -3.770952e-02 7.030596e-02 -4.500444e-02 1.431959e-02 -4.478478e-02 6.252030e-02 -3.162285e-02 1.010155e-01 -2.013111e-02 1.306201e-01 -1.179537e-02 1.549101e-01 -7.458247e-03 1.756947e-01 -4.925974e-03 1.908044e-01 -1.320385e-03 2.007491e-01 2.269274e-03 2.085411e-01 4.672918e-03 2.148644e-01 7.640185e-03 2.181829e-01 1.068818e-02 2.204508e-01 1.272521e-02 2.226531e-01 1.380604e-02 2.249320e-01 1.386953e-02 2.265947e-01 1.371301e-02 2.277821e-01 1.325540e-02 2.284967e-01 1.272131e-02 2.283246e-01 1.238125e-02 2.271799e-01 1.217837e-02 2.251631e-01 1.177925e-02 2.223017e-01 1.123763e-02 2.186365e-01 1.030564e-02 2.140045e-01 9.198325e-03 2.079460e-01 7.860886e-03 1.997508e-01 6.925164e-03 1.886352e-01 6.028882e-03 1.754654e-01 3.901826e-03 1.578276e-01 5.140755e-03 1.292820e-01 1.186690e-02 9.402328e-02 1.072595e-02 
1.158671e-01 -2.400811e-02 9.176688e-02 -2.975628e-02 3.643550e-02 -2.969200e-02 8.885164e-02 -2.361580e-02 1.279236e-01 -1.781877e-02 1.561419e-01 -1.302517e-02 1.775522e-01 -9.733744e-03 1.944944e-01 -7.016525e-03 2.067027e-01 -3.612234e-03 2.150034e-01 -2.660158e-04 2.213195e-01 2.418572e-03 2.261820e-01 5.276862e-03 2.290135e-01 8.014697e-03 2.310012e-01 9.981516e-03 2.328161e-01 1.114926e-02 2.346103e-01 1.151066e-02 2.360109e-01 1.156199e-02 2.370331e-01 1.135784e-02 2.376090e-01 1.107036e-02 2.374852e-01 1.088190e-02 2.366055e-01 1.073627e-02 2.350262e-01 1.043681e-02 2.327757e-01 9.966879e-03 2.298291e-01 9.196268e-03 2.260411e-01 8.271270e-03 2.210253e-01 7.237803e-03 2.142556e-01 6.540821e-03 2.051443e-01 5.985963e-03 1.941096e-01 4.609522e-03 1.799494e-01 4.449743e-03 1.590625e-01 6.416210e-03 1.327221e-01 3.706510e-03 
1.193308e-01 -2.139751e-02 1.046379e-01 -2.923739e-02 8.071798e-02 -2.938195e-02 1.064337e-01 -2.426721e-02 1.312591e-01 -1.781086e-02 1.527949e-01 -1.212336e-02 1.711688e-01 -7.955136e-03 1.866365e-01 -4.732340e-03 1.986859e-01 -1.587670e-03 2.075474e-01 1.370457e-03 2.142733e-01 3.909475e-03 2.193429e-01 6.369369e-03 2.227381e-01 8.632318e-03 2.251531e-01 1.031615e-02 2.271153e-01 1.136699e-02 2.288042e-01 1.180829e-02 2.300592e-01 1.191523e-02 2.308860e-01 1.178470e-02 2.312134e-01 1.152750e-02 2.309166e-01 1.126608e-02 2.299122e-01 1.096015e-02 2.282015e-01 1.052803e-02 2.257672e-01 9.914285e-03 2.225296e-01 9.074383e-03 2.183366e-01 8.048965e-03 2.128624e-01 6.886126e-03 2.057515e-01 5.775605e-03 1.966486e-01 4.639447e-03 1.854041e-01 3.349898e-03 1.710564e-01 2.819237e-03 1.525436e-01 2.248279e-03 1.328604e-01 -3.845361e-03 
1.453922e-01 -1.463300e-02 1.266235e-01 -2.012050e-02 1.011705e-01 -2.023101e-02 1.285816e-01 -1.814847e-02 1.537526e-01 -1.493007e-02 1.744104e-01 -1.164801e-02 1.909779e-01 -8.729231e-03 2.041715e-01 -5.998905e-03 2.141998e-01 -3.193635e-03 2.214803e-01 -4.748872e-04 2.269062e-01 2.014981e-03 2.308732e-01 4.345189e-03 2.335947e-01 6.469245e-03 2.355575e-01 8.072261e-03 2.371211e-01 9.173310e-03 2.384774e-01 9.745750e-03 2.394794e-01 1.001380e-02 2.401767e-01 1.007841e-02 2.404304e-01 9.993949e-03 2.402238e-01 9.896844e-03 2.394599e-01 9.684763e-03 2.381515e-01 9.376841e-03 2.362883e-01 8.863861e-03 2.337297e-01 8.178772e-03 2.303826e-01 7.323005e-03 2.259031e-01 6.346111e-03 2.200993e-01 5.433991e-03 2.127128e-01 4.517298e-03 2.035884e-01 3.374506e-03 1.921326e-01 2.307892e-03 1.775503e-01 8.215988e-04 1.609105e-01 -3.853755e-03 
1.563903e-01 -1.489114e-02 1.480697e-01 -2.006638e-02 1.399932e-01 -2.019272e-02 1.513152e-01 -1.825761e-02 1.648216e-01 -1.472414e-02 1.781408e-01 -1.093278e-02 1.903364e-01 -7.505792e-03 2.009989e-01 -4.458564e-03 2.097565e-01 -1.666534e-03 2.164821e-01 8.912831e-04 2.216610e-01 3.225571e-03 2.254966e-01 5.296558e-03 2.282735e-01 7.156046e-03 2.303082e-01 8.540246e-03 2.318504e-01 9.537279e-03 2.331101e-01 1.008154e-02 2.339516e-01 1.035496e-02 2.344892e-01 1.044065e-02 2.345542e-01 1.033788e-02 2.342163e-01 1.019537e-02 2.333507e-01 9.867934e-03 2.319638e-01 9.458207e-03 2.300359e-01 8.816770e-03 2.273782e-01 8.027943e-03 2.239501e-01 7.036321e-03 2.194151e-01 5.858117e-03 2.137441e-01 4.650434e-03 2.068033e-01 3.401970e-03 1.984451e-01 2.035987e-03 1.884452e-01 5.315718e-04 1.769674e-01 -1.852075e-03 1.655664e-01 -6.874200e-03 
1.781493e-01 -1.058927e-02 1.681021e-01 -1.428232e-02 1.586797e-01 -1.437622e-02 1.705882e-01 -1.381891e-02 1.841154e-01 -1.210794e-02 1.967798e-01 -9.908880e-03 2.077834e-01 -7.535751e-03 2.170184e-01 -5.054443e-03 2.244475e-01 -2.686681e-03 2.298131e-01 -4.541586e-04 2.339521e-01 1.771678e-03 2.368107e-01 3.620485e-03 2.389351e-01 5.445257e-03 2.405127e-01 6.665179e-03 2.416335e-01 7.725765e-03 2.426984e-01 8.285396e-03 2.432527e-01 8.668955e-03 2.437638e-01 8.948156e-03 2.437120e-01 8.930104e-03 2.435197e-01 9.026717e-03 2.428588e-01 8.728966e-03 2.418316e-01 8.521597e-03 2.404963e-01 7.932691e-03 2.384188e-01 7.331212e-03 2.358563e-01 6.495327e-03 2.321045e-01 5.388870e-03 2.275251e-01 4.330805e-03 2.220178e-01 3.273541e-03 2.153953e-01 2.060629e-03 2.074353e-01 5.829173e-04 1.980866e-01 -1.577450e-03 1.879855e-01 -5.280121e-03 
1.925654e-01 -1.124894e-02 1.912007e-01 -1.444222e-02 1.928599e-01 -1.453896e-02 1.940536e-01 -1.384565e-02 1.985975e-01 -1.189601e-02 2.046236e-01 -9.378230e-03 2.110439e-01 -6.676376e-03 2.172706e-01 -3.928596e-03 2.228610e-01 -1.509907e-03 2.269645e-01 6.360210e-04 2.303927e-01 2.805793e-03 2.327094e-01 4.435651e-03 2.345519e-01 6.155521e-03 2.359555e-01 7.151685e-03 2.368681e-01 8.160225e-03 2.378340e-01 8.625848e-03 2.381480e-01 8.982240e-03 2.385652e-01 9.285261e-03 2.382977e-01 9.187874e-03 2.380440e-01 9.309543e-03 2.373102e-01 8.857923e-03 2.362673e-01 8.619658e-03 2.350342e-01 7.866483e-03 2.329970e-01 7.183566e-03 2.306707e-01 6.209813e-03 2.271030e-01 4.858961e-03 2.230055e-01 3.565113e-03 2.183743e-01 2.280833e-03 2.131251e-01 8.588049e-04 2.073074e-01 -8.787502e-04 2.013076e-01 -3.311227e-03 1.960440e-01 -6.891454e-03 
2.111018e-01 -8.173407e-03 2.089308e-01 -1.055463e-02 2.097146e-01 -1.062735e-02 2.109956e-01 -1.064069e-02 2.153572e-01 -9.774616e-03 2.208205e-01 -8.344564e-03 2.263650e-01 -6.450550e-03 2.316767e-01 -3.996082e-03 2.367609e-01 -2.042707e-03 2.393743e-01 -4.268277e-04 2.422798e-01 1.906706e-03 2.434828e-01 2.919953e-03 2.448236e-01 5.026465e-03 2.459241e-01 5.417892e-03 2.462027e-01 6.778565e-03 2.474294e-01 7.001870e-03 2.470695e-01 7.427701e-03 2.479139e-01 8.115897e-03 2.471338e-01 7.751110e-03 2.472849e-01 8.551050e-03 2.466234e-01 7.682860e-03 2.458202e-01 8.047023e-03 2.454458e-01 7.014450e-03 2.435930e-01 6.716723e-03 2.425192e-01 5.938423e-03 2.391324e-01 4.382836e-03 2.358771e-01 3.226115e-03 2.324360e-01 2.184576e-03 2.285364e-01 1.010504e-03 2.241211e-01 -4.595863e-04 2.193692e-01 -2.430493e-03 2.147917e-01 -5.093423e-03 
2.266081e-01 -8.777426e-03 2.312830e-01 -1.078472e-02 2.398151e-01 -1.085710e-02 2.334630e-01 -1.068811e-02 2.309095e-01 -9.635825e-03 2.307242e-01 -8.007942e-03 2.319531e-01 -5.893362e-03 2.341848e-01 -3.069369e-03 2.374531e-01 -1.078562e-03 2.381247e-01 3.557432e-04 2.402370e-01 2.928017e-03 2.403964e-01 3.483976e-03 2.412707e-01 5.879470e-03 2.420925e-01 5.750994e-03 2.418338e-01 7.325399e-03 2.432087e-01 7.280440e-03 2.422413e-01 7.661732e-03 2.433264e-01 8.531403e-03 2.420264e-01 7.818112e-03 2.423531e-01 8.997082e-03 2.415774e-01 7.634895e-03 2.407619e-01 8.294705e-03 2.408360e-01 6.846856e-03 2.389046e-01 6.628309e-03 2.386332e-01 5.760737e-03 2.353189e-01 3.802680e-03 2.327991e-01 2.469611e-03 2.305615e-01 1.296686e-03 2.283707e-01 -3.583192e-06 2.263471e-01 -1.594337e-03 2.249051e-01 -3.620739e-03 2.247278e-01 -6.127741e-03 
2.425256e-01 -6.460713e-03 2.467942e-01 -8.033457e-03 2.548007e-01 -8.089077e-03 2.483318e-01 -8.339322e-03 2.455080e-01 -8.004955e-03 2.447885e-01 -7.244416e-03 2.451858e-01 -5.926388e-03 2.465699e-01 -2.440330e-03 2.515435e-01 -1.057172e-03 2.486458e-01 -1.121744e-03 2.523116e-01 3.364611e-03 2.500149e-01 1.124204e-03 2.509564e-01 6.321043e-03 2.521522e-01 3.203296e-03 2.498277e-01 6.963756e-03 2.537430e-01 5.519682e-03 2.496822e-01 5.919014e-03 2.536890e-01 8.339626e-03 2.496209e-01 5.404593e-03 2.518660e-01 9.742876e-03 2.505246e-01 5.405616e-03 2.493832e-01 8.964394e-03 2.518696e-01 5.365252e-03 2.479888e-01 6.576942e-03 2.514947e-01 6.161619e-03 2.460253e-01 2.977653e-03 2.444138e-01 2.005617e-03 2.433108e-01 1.227624e-03 2.421903e-01 2.561056e-04 2.411390e-01 -1.000863e-03 2.404722e-01 -2.589792e-03 2.407046e-01 -4.488224e-03 
2.578451e-01 -6.950231e-03 2.674970e-01 -8.265840e-03 2.812399e-01 -8.320564e-03 2.690836e-01 -8.412422e-03 2.608644e-01 -7.950666e-03 2.554193e-01 -7.124083e-03 2.518656e-01 -5.821951e-03 2.500734e-01 -2.006835e-03 2.533935e-01 -7.251930e-04 2.478497e-01 -1.222282e-03 2.509307e-01 3.850780e-03 2.471121e-01 6.865424e-04 2.475229e-01 6.722728e-03 2.484078e-01 2.620401e-03 2.450926e-01 7.035848e-03 2.495338e-01 5.107851e-03 2.442828e-01 5.449642e-03 2.490719e-01 8.271834e-03 2.440366e-01 4.530613e-03 2.468470e-01 9.769213e-03 2.453182e-01 4.390797e-03 2.441074e-01 8.793407e-03 2.474519e-01 4.435434e-03 2.431507e-01 6.030987e-03 2.482478e-01 5.705764e-03 2.427333e-01 2.121868e-03 2.423099e-01 1.213237e-03 2.427007e-01 4.393404e-04 2.434463e-01 -5.756973e-04 2.448014e-01 -1.873957e-03 2.472322e-01 -3.448540e-03 2.513464e-01 -5.220253e-03 
2.714966e-01 -5.149431e-03 2.809160e-01 -6.225133e-03 2.943358e-01 -6.267188e-03 2.820260e-01 -6.620943e-03 2.735605e-01 -6.660826e-03 2.676445e-01 -6.700942e-03 2.630219e-01 -7.568462e-03 2.578744e-01 -1.214327e-02 2.471593e-01 -1.234709e-02 2.513358e-01 -9.622166e-03 2.441893e-01 -1.488083e-02 2.477439e-01 -8.118716e-03 2.453330e-01 -1.461892e-02 2.422807e-01 -6.490368e-03 2.454577e-01 -1.097914e-02 2.376073e-01 -6.682079e-03 2.442101e-01 -6.301857e-03 2.367595e-01 -1.008406e-02 2.438767e-01 -4.698749e-03 2.397615e-01 -1.244946e-02 2.419169e-01 -4.800815e-03 2.435186e-01 -1.117571e-02 2.385196e-01 -4.828136e-03 2.449835e-01 -7.114550e-03 2.387176e-01 -6.426412e-03 2.490307e-01 -6.434963e-04 2.524434e-01 5.899282e-04 2.542020e-01 4.638599e-04 2.557724e-01 -2.127518e-04 2.577693e-01 -1.209629e-03 2.606719e-01 -2.438620e-03 2.650246e-01 -3.808467e-03 
2.859235e-01 -5.537578e-03 2.996158e-01 -6.431510e-03 3.174394e-01 -6.472108e-03 3.007702e-01 -6.689807e-03 2.880512e-01 -6.629564e-03 2.782270e-01 -6.712191e-03 2.700133e-01 -8.246857e-03 2.608245e-01 -1.643667e-02 2.416671e-01 -1.711670e-02 2.488924e-01 -1.274544e-02 2.358862e-01 -2.273795e-02 2.420547e-01 -1.130067e-02 2.377098e-01 -2.365338e-02 2.323516e-01 -9.827013e-03 2.381999e-01 -1.851691e-02 2.243243e-01 -1.135690e-02 2.362532e-01 -1.102008e-02 2.229113e-01 -1.796687e-02 2.356044e-01 -8.392842e-03 2.281812e-01 -2.232718e-02 2.320543e-01 -8.686175e-03 2.350282e-01 -2.023763e-02 2.262465e-01 -9.007464e-03 2.379926e-01 -1.326497e-02 2.267464e-01 -1.226094e-02 2.450318e-01 -2.246603e-03 2.510117e-01 -1.804770e-04 2.544845e-01 -1.773325e-04 2.579105e-01 -8.644077e-04 2.621769e-01 -1.876659e-03 2.678715e-01 -3.078278e-03 2.755755e-01 -4.353688e-03 
2.975184e-01 -4.103636e-03 3.110375e-01 -4.852176e-03 3.286317e-01 -4.880689e-03 3.118749e-01 -5.216073e-03 2.990664e-01 -5.316314e-03 2.892100e-01 -5.328682e-03 2.813847e-01 -5.495853e-03 2.747351e-01 -6.027085e-03 2.687305e-01 -5.843847e-03 2.653581e-01 -5.203159e-03 2.617583e-01 -5.271844e-03 2.598276e-01 -4.065720e-03 2.576909e-01 -4.110664e-03 2.557727e-01 -2.655927e-03 2.547513e-01 -2.518193e-03 2.528938e-01 -1.591244e-03 2.528124e-01 -1.247846e-03 2.516541e-01 -1.505632e-03 2.522574e-01 -9.316553e-04 2.519322e-01 -1.732456e-03 2.524150e-01 -9.408783e-04 2.529940e-01 -1.524177e-03 2.530897e-01 -7.792550e-04 2.547377e-01 -9.153563e-04 2.556294e-01 -6.590455e-04 2.589890e-01 2.851877e-04 2.621245e-01 5.338848e-04 2.652796e-01 2.509627e-04 2.689261e-01 -3.608276e-04 2.734916e-01 -1.185536e-03 2.794190e-01 -2.145707e-03 2.872227e-01 -3.156977e-03 
3.106555e-01 -4.414119e-03 3.276033e-01 -5.025791e-03 3.486604e-01 -5.051606e-03 3.285059e-01 -5.246092e-03 3.123468e-01 -5.167575e-03 2.994300e-01 -4.853802e-03 2.891501e-01 -4.037356e-03 2.815764e-01 -4.489087e-04 2.803844e-01 3.915485e-04 2.702642e-01 -6.731868e-04 2.702554e-01 4.375122e-03 2.633632e-01 5.072249e-04 2.616474e-01 6.701412e-03 2.609309e-01 1.928833e-03 2.560392e-01 6.499598e-03 2.599270e-01 4.249917e-03 2.535522e-01 4.550417e-03 2.583647e-01 7.614899e-03 2.527537e-01 3.577854e-03 2.559602e-01 9.325730e-03 2.547523e-01 3.528382e-03 2.542219e-01 8.365243e-03 2.590014e-01 3.678285e-03 2.558472e-01 5.475451e-03 2.633123e-01 5.187288e-03 2.597052e-01 1.351384e-03 2.622087e-01 4.932713e-04 2.663115e-01 -1.022759e-04 2.715317e-01 -8.270128e-04 2.781217e-01 -1.689043e-03 2.864989e-01 -2.633151e-03 2.971579e-01 -3.577594e-03 
3.203170e-01 -3.255257e-03 3.370859e-01 -3.775730e-03 3.579342e-01 -3.791201e-03 3.377724e-01 -4.047390e-03 3.216212e-01 -4.061779e-03 3.087479e-01 -3.806858e-03 2.985800e-01 -3.075864e-03 2.909733e-01 -9.089837e-04 2.871305e-01 -8.965933e-05 2.796484e-01 -1.599387e-04 2.772323e-01 2.588089e-03 2.720482e-01 1.212973e-03 2.696462e-01 4.397126e-03 2.680656e-01 2.469667e-03 2.648607e-01 4.794522e-03 2.659476e-01 3.942038e-03 2.624994e-01 4.278995e-03 2.643415e-01 5.895045e-03 2.615474e-01 4.204671e-03 2.630085e-01 6.955579e-03 2.626556e-01 4.301025e-03 2.628626e-01 6.439457e-03 2.657754e-01 4.114545e-03 2.652274e-01 4.722777e-03 2.697128e-01 4.245831e-03 2.691620e-01 1.918293e-03 2.717813e-01 1.012522e-03 2.758637e-01 3.683314e-04 2.811590e-01 -2.949796e-04 2.878505e-01 -1.024979e-03 2.962884e-01 -1.800643e-03 3.069283e-01 -2.569127e-03 
3.319376e-01 -3.514173e-03 3.514837e-01 -3.929974e-03 3.750991e-01 -3.942713e-03 3.522434e-01 -4.076820e-03 3.334005e-01 -3.942384e-03 3.179975e-01 -3.499245e-03 3.055797e-01 -2.596594e-03 2.959381e-01 -9.755128e-04 2.890027e-01 5.102646e-06 2.814914e-01 5.941788e-04 2.766697e-01 2.240708e-03 2.714579e-01 2.242691e-03 2.679581e-01 3.890835e-03 2.653371e-01 3.474100e-03 2.625554e-01 4.617248e-03 2.618148e-01 4.476705e-03 2.596373e-01 4.793509e-03 2.597363e-01 5.592348e-03 2.583165e-01 5.064899e-03 2.588311e-01 6.156901e-03 2.589782e-01 5.059625e-03 2.597114e-01 5.673629e-03 2.618805e-01 4.475821e-03 2.630630e-01 4.333427e-03 2.664851e-01 3.626825e-03 2.682312e-01 1.966181e-03 2.718094e-01 9.045243e-04 2.770203e-01 1.028038e-04 2.837820e-01 -6.513450e-04 2.922782e-01 -1.418240e-03 3.028433e-01 -2.186435e-03 3.159012e-01 -2.908083e-03 
3.397375e-01 -2.571242e-03 3.590587e-01 -2.932324e-03 3.824368e-01 -2.937099e-03 3.596546e-01 -3.121851e-03 3.408968e-01 -3.077756e-03 3.255799e-01 -2.761234e-03 3.132120e-01 -2.086103e-03 3.034394e-01 -9.807645e-04 2.959096e-01 -1.618500e-04 2.888483e-01 4.755747e-04 2.836234e-01 1.595446e-03 2.787414e-01 1.935871e-03 2.751203e-01 2.993032e-03 2.723229e-01 3.053770e-03 2.698120e-01 3.795845e-03 2.685495e-01 3.919009e-03 2.668845e-01 4.242803e-03 2.664956e-01 4.774352e-03 2.656336e-01 4.659726e-03 2.659038e-01 5.235957e-03 2.662630e-01 4.731395e-03 2.671683e-01 4.934988e-03 2.690187e-01 4.229397e-03 2.706844e-01 3.938698e-03 2.736516e-01 3.297612e-03 2.761535e-01 2.124851e-03 2.799768e-01 1.229210e-03 2.852346e-01 5.054509e-04 2.919954e-01 -1.615164e-04 3.004627e-01 -8.176613e-04 3.109560e-01 -1.461533e-03 3.238856e-01 -2.062341e-03 
3.497121e-01 -2.802823e-03 3.712988e-01 -3.084842e-03 3.969120e-01 -3.087563e-03 3.719632e-01 -3.177675e-03 3.510123e-01 -3.027122e-03 3.335788e-01 -2.604605e-03 3.192322e-01 -1.872920e-03 3.075936e-01 -8.704356e-04 2.981870e-01 1.284852e-05 2.900227e-01 8.004068e-04 2.834678e-01 1.744203e-03 2.778310e-01 2.333268e-03 2.733894e-01 3.129643e-03 2.698885e-01 3.464349e-03 2.670327e-01 4.001591e-03 2.651215e-01 4.248233e-03 2.634450e-01 4.544284e-03 2.626129e-01 4.889149e-03 2.619390e-01 4.928516e-03 2.620641e-01 5.161154e-03 2.626054e-01 4.880033e-03 2.637679e-01 4.773253e-03 2.657269e-01 4.219578e-03 2.680437e-01 3.739123e-03 2.713157e-01 3.015818e-03 2.749238e-01 1.980845e-03 2.797778e-01 1.055746e-03 2.861785e-01 2.608951e-04 2.942975e-01 -4.619899e-04 3.043656e-01 -1.144950e-03 3.166951e-01 -1.784876e-03 3.316666e-01 -2.352574e-03 
3.556919e-01 -2.033385e-03 3.769793e-01 -2.286727e-03 4.022927e-01 -2.283726e-03 3.775063e-01 -2.426727e-03 3.567283e-01 -2.367397e-03 3.394612e-01 -2.074909e-03 3.252471e-01 -1.526802e-03 3.136626e-01 -7.703578e-04 3.042221e-01 -5.071440e-05 2.962091e-01 6.266835e-04 2.896746e-01 1.382561e-03 2.841708e-01 1.942089e-03 2.797733e-01 2.583477e-03 2.762914e-01 2.958639e-03 2.735165e-01 3.412962e-03 2.715529e-01 3.698189e-03 2.699932e-01 3.995979e-03 2.691244e-01 4.302378e-03 2.685855e-01 4.422152e-03 2.687129e-01 4.598073e-03 2.693216e-01 4.453989e-03 2.705315e-01 4.338327e-03 2.724442e-01 3.931526e-03 2.748417e-01 3.502319e-03 2.780547e-01 2.884631e-03 2.818228e-01 2.054275e-03 2.867382e-01 1.274201e-03 2.931030e-01 5.863963e-04 3.011254e-01 -3.794059e-05 3.110496e-01 -6.214415e-04 3.231883e-01 -1.164116e-03 3.379227e-01 -1.645932e-03 
3.639487e-01 -2.257791e-03 3.870925e-01 -2.452537e-03 4.142232e-01 -2.448349e-03 3.876794e-01 -2.520968e-03 3.651037e-01 -2.385257e-03 3.460712e-01 -2.020208e-03 3.301755e-01 -1.421058e-03 3.170166e-01 -6.486980e-04 3.061298e-01 1.164974e-04 2.969434e-01 8.493062e-04 2.893489e-01 1.602204e-03 2.830078e-01 2.216336e-03 2.778810e-01 2.829111e-03 2.737938e-01 3.252691e-03 2.705660e-01 3.675181e-03 2.681931e-01 3.971317e-03 2.664083e-01 4.245150e-03 2.653320e-01 4.492409e-03 2.647617e-01 4.598245e-03 2.648822e-01 4.679599e-03 2.656101e-01 4.526288e-03 2.670292e-01 4.319349e-03 2.692142e-01 3.890997e-03 2.720701e-01 3.386890e-03 2.758100e-01 2.718334e-03 2.803698e-01 1.886171e-03 2.862000e-01 1.077187e-03 2.936186e-01 3.477480e-04 3.028645e-01 -3.115517e-04 3.141923e-01 -9.134246e-04 3.279061e-01 -1.454044e-03 3.443601e-01 -1.912794e-03 
3.681323e-01 -1.627739e-03 3.908793e-01 -1.812839e-03 4.176216e-01 -1.804831e-03 3.913429e-01 -1.935734e-03 3.690452e-01 -1.891708e-03 3.502868e-01 -1.645465e-03 3.346507e-01 -1.177128e-03 3.217413e-01 -5.250775e-04 3.111069e-01 1.023409e-04 3.020906e-01 6.983223e-04 2.946956e-01 1.365751e-03 2.884931e-01 1.866032e-03 2.835110e-01 2.439494e-03 2.795525e-01 2.784484e-03 2.764098e-01 3.198345e-03 2.741523e-01 3.465249e-03 2.724110e-01 3.739909e-03 2.714234e-01 4.017571e-03 2.708707e-01 4.128119e-03 2.710413e-01 4.280461e-03 2.717784e-01 4.148347e-03 2.731925e-01 4.032594e-03 2.753842e-01 3.656689e-03 2.781841e-01 3.254168e-03 2.819025e-01 2.685641e-03 2.863445e-01 1.934131e-03 2.920507e-01 1.227533e-03 2.993141e-01 6.046594e-04 3.083547e-01 4.582650e-05 3.194231e-01 -4.647788e-04 3.328267e-01 -9.260577e-04 3.489275e-01 -1.322178e-03 
3.746342e-01 -1.860952e-03 3.989049e-01 -2.003651e-03 4.271296e-01 -1.995335e-03 3.994207e-01 -2.074539e-03 3.756480e-01 -1.974396e-03 3.554241e-01 -1.671374e-03 3.383803e-01 -1.143873e-03 3.241667e-01 -4.214427e-04 3.123715e-01 2.518955e-04 3.022717e-01 8.771871e-04 2.939767e-01 1.598570e-03 2.869697e-01 2.100256e-03 2.813331e-01 2.717249e-03 2.768393e-01 3.041998e-03 2.732446e-01 3.474571e-03 2.706765e-01 3.716836e-03 2.686630e-01 3.972219e-03 2.675452e-01 4.237373e-03 2.668934e-01 4.292325e-03 2.670933e-01 4.432890e-03 2.679232e-01 4.226351e-03 2.695248e-01 4.086823e-03 2.720306e-01 3.638649e-03 2.752127e-01 3.199191e-03 2.794845e-01 2.585482e-03 2.845453e-01 1.769131e-03 2.910340e-01 1.019829e-03 2.992320e-01 3.653440e-04 3.093505e-01 -2.174326e-04 3.216344e-01 -7.417978e-04 3.363787e-01 -1.203480e-03 3.539220e-01 -1.584930e-03 
3.770350e-01 -1.340493e-03 4.007899e-01 -1.487737e-03 4.285144e-01 -1.477201e-03 4.011913e-01 -1.621656e-03 3.778182e-01 -1.619945e-03 3.579868e-01 -1.439620e-03 3.413255e-01 -1.012693e-03 3.275437e-01 -2.569949e-04 3.163724e-01 2.864200e-04 3.063498e-01 6.973168e-04 2.985241e-01 1.515858e-03 2.915943e-01 1.716171e-03 2.862254e-01 2.523428e-03 2.819969e-01 2.541422e-03 2.784182e-01 3.129936e-03 2.762350e-01 3.224892e-03 2.740750e-01 3.480235e-03 2.732879e-01 3.900363e-03 2.724320e-01 3.792028e-03 2.728040e-01 4.247541e-03 2.735576e-01 3.826596e-03 2.750764e-01 3.986822e-03 2.777159e-01 3.409174e-03 2.806083e-01 3.171863e-03 2.850271e-01 2.670863e-03 2.896021e-01 1.769909e-03 2.958065e-01 1.097894e-03 3.037490e-01 5.597813e-04 3.135572e-01 8.248872e-05 3.254631e-01 -3.560775e-04 3.397704e-01 -7.515516e-04 3.568318e-01 -1.087142e-03 
3.817657e-01 -1.595278e-03 4.067694e-01 -1.712854e-03 4.357028e-01 -1.702872e-03 4.072191e-01 -1.809535e-03 3.826390e-01 -1.768200e-03 3.615933e-01 -1.548581e-03 3.437526e-01 -1.063210e-03 3.288974e-01 -1.470921e-04 3.169163e-01 4.351002e-04 3.057941e-01 8.075230e-04 2.973164e-01 1.814542e-03 2.895603e-01 1.868107e-03 2.836426e-01 2.897067e-03 2.789850e-01 2.723489e-03 2.748969e-01 3.463377e-03 2.726046e-01 3.449725e-03 2.700220e-01 3.688745e-03 2.692928e-01 4.193167e-03 2.681727e-01 3.900435e-03 2.686752e-01 4.533557e-03 2.694641e-01 3.859724e-03 2.711168e-01 4.162655e-03 2.741704e-01 3.378484e-03 2.772660e-01 3.185423e-03 2.823704e-01 2.656644e-03 2.872929e-01 1.585906e-03 2.941591e-01 8.684457e-04 3.029260e-01 3.121847e-04 3.136724e-01 -1.805384e-04 3.266177e-01 -6.314180e-04 3.420550e-01 -1.031464e-03 3.603181e-01 -1.360564e-03 
3.823909e-01 -1.157180e-03 4.067373e-01 -1.289359e-03 4.350357e-01 -1.278380e-03 4.070822e-01 -1.455865e-03 3.830447e-01 -1.528583e-03 3.625128e-01 -1.481811e-03 3.451178e-01 -1.178350e-03 3.307351e-01 2.194494e-04 3.204868e-01 6.043065e-04 3.084101e-01 2.855419e-04 3.014572e-01 2.284544e-03 2.931318e-01 9.581911e-04 2.878010e-01 3.394829e-03 2.837885e-01 1.728927e-03 2.790329e-01 3.551970e-03 2.782925e-01 2.826213e-03 2.743661e-01 3.052967e-03 2.752215e-01 4.313287e-03 2.727638e-01 2.890596e-03 2.741867e-01 5.091013e-03 2.745692e-01 2.924394e-03 2.758418e-01 4.676805e-03 2.797924e-01 2.823717e-03 2.815072e-01 3.350592e-03 2.879953e-01 3.058651e-03 2.912296e-01 1.377316e-03 2.978252e-01 8.349946e-04 3.063195e-01 4.550136e-04 3.166638e-01 8.162436e-05 3.291039e-01 -2.890170e-04 3.439627e-01 -6.352319e-04 3.615979e-01 -9.324060e-04 
3.853460e-01 -1.444510e-03 4.107107e-01 -1.556589e-03 4.399915e-01 -1.546933e-03 4.111064e-01 -1.694713e-03 3.860907e-01 -1.742102e-03 3.645537e-01 -1.692883e-03 3.461363e-01 -1.414336e-03 3.307533e-01 1.544155e-04 3.199864e-01 5.176606e-04 3.066691e-01 2.618143e-05 2.993881e-01 2.383933e-03 2.901820e-01 6.591521e-04 2.844337e-01 3.583038e-03 2.801107e-01 1.479197e-03 2.747160e-01 3.671583e-03 2.741286e-01 2.730451e-03 2.695272e-01 2.938981e-03 2.707318e-01 4.402053e-03 2.677831e-01 2.569942e-03 2.695122e-01 5.211598e-03 2.698573e-01 2.516375e-03 2.711792e-01 4.680922e-03 2.756701e-01 2.444821e-03 2.773118e-01 3.158942e-03 2.847383e-01 2.917581e-03 2.880951e-01 1.049703e-03 2.953846e-01 5.564346e-04 3.046418e-01 1.964466e-04 3.157969e-01 -1.842327e-04 3.291110e-01 -5.703613e-04 3.449082e-01 -9.286370e-04 3.635337e-01 -1.228584e-03 
3.841986e-01 -1.064219e-03 4.087391e-01 -1.196144e-03 4.372250e-01 -1.185928e-03 4.090494e-01 -1.397102e-03 3.847605e-01 -1.558600e-03 3.638975e-01 -1.781785e-03 3.458932e-01 -2.436648e-03 3.297866e-01 -4.930038e-03 3.129324e-01 -5.245617e-03 3.053297e-01 -4.055247e-03 2.937254e-01 -6.829639e-03 2.888822e-01 -3.564700e-03 2.823194e-01 -6.889865e-03 2.765087e-01 -2.876341e-03 2.747568e-01 -5.128652e-03 2.683248e-01 -2.970279e-03 2.698657e-01 -2.743953e-03 2.650828e-01 -4.599539e-03 2.682523e-01 -1.872193e-03 2.664803e-01 -5.733407e-03 2.685281e-01 -1.914739e-03 2.710351e-01 -5.134549e-03 2.710237e-01 -2.017862e-03 2.776289e-01 -3.231857e-03 2.788429e-01 -2.978514e-03 2.894829e-01 -1.567596e-04 2.979479e-01 4.100613e-04 3.070415e-01 3.446561e-04 3.176761e-01 7.931335e-05 3.303282e-01 -2.448469e-04 3.453815e-01 -5.661834e-04 3.632103e-01 -8.480617e-04 
3.853790e-01 -1.395312e-03 4.107424e-01 -1.513383e-03 4.400210e-01 -1.504927e-03 4.111168e-01 -1.682623e-03 3.860588e-01 -1.814627e-03 3.643903e-01 -2.067696e-03 3.454805e-01 -3.053127e-03 3.279862e-01 -7.339673e-03 3.073021e-01 -7.866622e-03 3.014858e-01 -5.787546e-03 2.870597e-01 -1.087783e-02 2.835608e-01 -5.200567e-03 2.760155e-01 -1.139430e-02 2.690003e-01 -4.474355e-03 2.685396e-01 -8.784105e-03 2.590406e-01 -5.168195e-03 2.632131e-01 -4.943023e-03 2.554618e-01 -8.379286e-03 2.614117e-01 -3.556321e-03 2.579966e-01 -1.051618e-02 2.609196e-01 -3.711385e-03 2.641471e-01 -9.525982e-03 2.622833e-01 -3.984479e-03 2.715668e-01 -6.187133e-03 2.703301e-01 -5.792341e-03 2.849477e-01 -8.643546e-04 2.946457e-01 1.115209e-04 3.044612e-01 1.025103e-04 3.157640e-01 -1.811008e-04 3.291235e-01 -5.355682e-04 3.449359e-01 -8.823278e-04 3.635662e-01 -1.178581e-03 