# vtk DataFile Version 2.0
Comment goes here
ASCII

DATASET STRUCTURED_POINTS
FIELD FieldData 1
TIME 1 1 double
0.68000000
DIMENSIONS    128   16   1

ORIGIN    0.000   0.000   0.000
SPACING   0.0078125 0.015625   1.000

POINT_DATA   2048
SCALARS fMag double
LOOKUP_TABLE default

0 0 0 0 0 0 0 0 0 0 0 0 0 0 0 0 0 0 0 0 0 0 0 0 0 0 0 0 0 0 0 0 0 0 0 0 0 0 0 0 0 0 0 0 0 0 0 0 0 0 0 0 0 0 0 0 0 0 0 0 0 0 0 0 0 0 0 0 0 0 0 0 0 0 0 0 0 0 0 0 0 0 0 0 0 0 0 0 0 0 0 0 0 0 0 0 0 0 0 0 0 0 0 0 0 0 0 0 0 0 0 0 0 0 0 0 0 0 0 0 0 0 0 0 0 0 0 0 
0 0 0 0 0 0 0 0 0 0 0 0 0 0 0 0 0 0 0 0 0 0 0 0 0 0 0 0 0 0 0 0 0 0 0 0 0 0 0 0 0 0 0 0 0 0 0 0 0 0 0 0 0 0 0 0 0 0 0 0 0 0 0 0 0 0 0 0 0 0 0 0 0 0 0 0 0 0 0 0 0 0 0 0 0 0 0 0 0 0 0 0 0 0 0 0 0 0 0 0 0 0 0 0 0 0 0 0 0 0 0 0 0 0 0 0 0 0 0 0 0 0 0 0 0 0 0 0 
0 0 0 0 0 1.656698e+00 5.564158e-01 1.156578e+00 4.729093e-01 5.419150e-01 5.394927e-01 5.925160e-01 8.994429e-01 1.045226e+00 1.384157e+00 1.385538e+00 3.024562e+00 3.504534e+00 4.459653e+00 5.847722e+00 5.937722e+00 6.303062e+00 6.146260e+00 6.148564e+00 6.126854e+00 6.060194e+00 6.113047e+00 5.955490e+00 6.011009e+00 5.766705e+00 5.835012e+00 5.589975e+00 5.695064e+00 5.482634e+00 5.589100e+00 5.397610e+00 5.448650e+00 5.254590e+00 5.242929e+00 5.114777e+00 5.120156e+00 5.098228e+00 5.078108e+00 5.062791e+00 4.936747e+00 4.883409e+00 4.676736e+00 4.634871e+00 4.449969e+00 4.495909e+00 4.380233e+00 4.455912e+00 4.324823e+00 4.336167e+00 4.175473e+00 4.143805e+00 4.025218e+00 4.656106e+00 6.638964e+00 7.934790e+00 6.131052e+00 1.652668e+00 4.215583e+00 5.526896e+00 7.741611e+00 8.584143e+00 2.944392e+00 2.942374e+00 4.981725e+00 7.492800e+00 9.040649e+00 8.154922e+00 4.682900e+00 3.661845e+00 3.494254e+00 3.403401e+00 3.250039e+00 3.240053e+00 3.064558e+00 3.096969e+00 2.888979e+00 2.970490e+00 2.773197e+00 2.887870e+00 2.669465e+00 2.741867e+00 2.503620e+00 2.540296e+00 2.337075e+00 2.339758e+00 2.205394e+00 2.177905e+00 2.134749e+00 2.041741e+00 2.059229e+00 1.879972e+00 1.981259e+00 1.746733e+00 1.922414e+00 1.610771e+00 1.806739e+00 1.414440e+00 1.599144e+00 1.173606e+00 1.374752e+00 1.033037e+00 1.268792e+00 1.028320e+00 1.185154e+00 1.008466e+00 1.026244e+00 9.428461e-01 8.029850e-01 8.330312e-01 5.574761e-01 7.425150e-01 3.675816e-01 6.701888e-01 2.078442e-01 5.618526e-01 2.015253e-01 8.005076e-01 2.411020e-01 7.224933e-01 0 0 0 0 
0 0 0 0 0 4.872339e+00 1.641743e+00 3.413376e+00 1.390488e+00 1.596436e+00 1.587641e+00 1.743756e+00 2.646050e+00 3.074599e+00 4.070949e+00 4.075088e+00 8.895680e+00 1.030736e+01 1.311632e+01 1.719845e+01 1.746300e+01 1.853730e+01 1.807601e+01 1.808275e+01 1.801889e+01 1.782288e+01 1.797835e+01 1.751507e+01 1.767841e+01 1.696003e+01 1.716098e+01 1.644041e+01 1.674950e+01 1.612479e+01 1.643789e+01 1.587473e+01 1.602481e+01 1.545407e+01 1.541975e+01 1.504285e+01 1.505865e+01 1.499415e+01 1.493499e+01 1.488995e+01 1.451928e+01 1.436244e+01 1.375466e+01 1.363155e+01 1.308779e+01 1.322291e+01 1.288273e+01 1.310530e+01 1.271977e+01 1.275313e+01 1.228052e+01 1.218738e+01 1.179138e+01 1.256085e+01 1.432519e+01 1.555578e+01 1.675641e+01 1.286309e+01 1.491004e+01 1.424463e+01 1.459302e+01 2.044408e+01 1.286941e+01 1.554712e+01 1.549738e+01 1.654272e+01 1.593079e+01 1.899731e+01 1.347584e+01 1.076981e+01 1.027694e+01 1.000973e+01 9.558720e+00 9.529374e+00 9.013265e+00 9.108614e+00 8.496926e+00 8.736663e+00 8.156406e+00 8.493647e+00 7.851266e+00 8.064156e+00 7.363388e+00 7.471193e+00 6.873427e+00 6.881268e+00 6.486043e+00 6.405176e+00 6.278248e+00 6.004736e+00 6.056218e+00 5.529074e+00 5.827049e+00 5.137356e+00 5.654115e+00 4.737561e+00 5.313918e+00 4.160038e+00 4.703154e+00 3.451379e+00 4.042754e+00 3.037419e+00 3.730521e+00 3.022963e+00 3.483987e+00 2.964135e+00 3.016316e+00 2.771037e+00 2.359768e+00 2.448377e+00 1.638184e+00 2.182831e+00 1.080370e+00 1.970449e+00 6.095872e-01 1.644165e+00 5.776885e-01 2.318814e+00 7.261617e-01 2.125712e+00 0 0 0 0 
0 0 0 0 0 3.365460e+00 1.136584e+00 2.363475e+00 9.603010e-01 1.103996e+00 1.097111e+00 1.205027e+00 1.828084e+00 9.416273e+00 7.595742e+00 1.072638e+01 1.694876e+01 1.225529e+01 1.813596e+01 1.440870e+01 1.448615e+01 1.280424e+01 1.248555e+01 1.249019e+01 1.244607e+01 1.231070e+01 1.241810e+01 1.209815e+01 1.221100e+01 1.171486e+01 1.185368e+01 1.135601e+01 1.156951e+01 1.113803e+01 1.135429e+01 1.096530e+01 1.106896e+01 1.067473e+01 1.065101e+01 1.039067e+01 1.040158e+01 1.035702e+01 1.031615e+01 1.028505e+01 1.002904e+01 9.920708e+00 9.500917e+00 9.415896e+00 9.040319e+00 9.133660e+00 8.898691e+00 9.052427e+00 8.786135e+00 8.809174e+00 8.482727e+00 8.418388e+00 8.174153e+00 8.434773e+00 7.630134e+00 4.883195e+00 1.085816e+01 1.106618e+01 8.378358e+00 7.996881e+00 3.339283e+00 9.480592e+00 1.104091e+01 1.004792e+01 8.044294e+00 7.217867e+00 1.759050e+00 9.497666e+00 9.051525e+00 7.439177e+00 7.098735e+00 6.914171e+00 6.602654e+00 6.582396e+00 6.225914e+00 6.291788e+00 5.869283e+00 6.034882e+00 5.634074e+00 5.867010e+00 5.423274e+00 5.570301e+00 5.086220e+00 5.160656e+00 4.747716e+00 4.753107e+00 4.480086e+00 4.424218e+00 4.336543e+00 4.147632e+00 4.183215e+00 3.819127e+00 4.024991e+00 3.548623e+00 3.905603e+00 3.272508e+00 3.670620e+00 2.873539e+00 3.248638e+00 2.383871e+00 2.792255e+00 2.097672e+00 2.576294e+00 2.087405e+00 2.405738e+00 2.046558e+00 2.082550e+00 1.913127e+00 1.629081e+00 1.690404e+00 1.130885e+00 1.507305e+00 7.459090e-01 1.360766e+00 4.202446e-01 1.131677e+00 3.925880e-01 1.584691e+00 5.099208e-01 1.468707e+00 0 0 0 0 
0 0 0 0 0 1.498185e-01 5.125663e-02 1.066768e-01 4.272273e-02 4.947468e-02 4.896256e-02 5.378754e-02 8.147760e-02 1.119614e+01 1.215121e+01 1.150593e+01 1.260538e+01 1.192756e+01 1.219909e+01 1.272909e+01 1.088228e+01 5.700034e-01 5.558009e-01 5.560028e-01 5.540364e-01 5.480149e-01 5.528003e-01 5.385690e-01 5.435999e-01 5.215275e-01 5.277138e-01 5.055700e-01 5.150771e-01 4.958743e-01 5.055003e-01 4.881850e-01 4.927962e-01 4.752452e-01 4.741868e-01 4.625955e-01 4.630790e-01 4.610948e-01 4.592762e-01 4.578924e-01 4.464993e-01 4.416796e-01 4.229972e-01 4.192149e-01 4.024996e-01 4.066565e-01 3.961983e-01 4.030423e-01 3.911884e-01 3.922134e-01 3.776803e-01 3.748151e-01 3.307818e-01 2.651564e-01 1.254683e+00 3.244411e+00 8.116373e-01 8.474650e-01 3.383450e+00 1.537326e+00 5.053475e+00 3.524662e+00 1.206643e+00 4.063285e+00 3.352692e+00 4.258532e+00 6.049105e+00 3.128586e+00 2.362920e-01 3.312089e-01 3.160544e-01 3.078380e-01 2.939733e-01 2.930743e-01 2.772074e-01 2.801432e-01 2.613360e-01 2.687095e-01 2.508647e-01 2.612327e-01 2.414727e-01 2.480123e-01 2.264521e-01 2.297587e-01 2.113644e-01 2.115981e-01 1.994367e-01 1.969469e-01 1.930433e-01 1.846366e-01 1.862265e-01 1.700250e-01 1.792005e-01 1.580000e-01 1.739017e-01 1.457168e-01 1.634411e-01 1.279417e-01 1.446281e-01 1.060984e-01 1.242541e-01 9.329030e-02 1.145657e-01 9.276173e-02 1.069051e-01 9.088936e-02 9.247866e-02 8.493584e-02 7.229868e-02 7.505857e-02 5.017698e-02 6.698907e-02 3.312089e-02 6.050606e-02 1.850171e-02 4.936441e-02 1.649780e-02 6.639883e-02 2.485567e-02 6.548804e-02 0 0 0 0 
0 0 0 0 0 0 0 0 0 0 0 0 0 1.200595e+01 1.274555e+01 1.228996e+01 1.323770e+01 1.266746e+01 1.282910e+01 1.314299e+01 1.153338e+01 0 0 0 0 0 0 0 0 0 0 0 0 0 0 0 0 0 0 0 0 0 0 0 0 0 0 0 0 0 0 0 0 0 0 0 6.109202e-02 1.925888e-01 6.878698e-02 5.260433e-01 3.325993e-01 2.042021e-02 5.181581e-01 1.833030e-01 7.212715e-01 5.288880e-01 5.587021e-02 4.877846e-01 3.746653e-01 6.231086e-01 1.038091e+00 7.157437e-01 7.039483e-02 0 0 0 0 0 0 0 0 0 0 0 0 0 0 0 0 0 0 0 0 0 0 0 0 0 0 0 0 0 0 0 0 0 0 0 0 0 0 0 0 0 0 0 0 0 0 0 0 0 0 0 0 0 0 0 
0 0 0 0 0 0 0 0 0 0 0 0 0 1.248186e+01 1.310241e+01 1.253136e+01 1.294485e+01 1.271071e+01 1.274549e+01 1.295174e+01 1.256507e+01 0 0 0 0 0 0 0 0 0 0 0 0 0 0 0 0 0 0 0 0 0 0 0 0 0 0 0 0 0 0 0 0 0 0 0 1.614311e-02 1.062684e-01 8.536615e-02 4.234825e-02 1.461484e-01 3.514209e-01 2.360848e-01 1.304207e-01 7.183973e-03 1.152548e-01 3.575503e-01 2.227249e-01 2.201964e-02 1.287376e-01 1.870935e-01 1.284622e-01 1.280161e-02 0 0 0 0 0 0 0 0 0 0 0 0 0 0 0 0 0 0 0 0 0 0 0 0 0 0 0 0 0 0 0 0 0 0 0 0 0 0 0 0 0 0 0 0 0 0 0 0 0 0 0 0 0 0 0 
0 0 0 0 0 0 0 0 0 0 0 0 0 1.275153e+01 1.335648e+01 1.282921e+01 1.324740e+01 1.303997e+01 1.300618e+01 1.330151e+01 1.271853e+01 0 0 0 0 0 0 0 0 0 0 0 0 0 0 0 0 0 0 0 0 0 0 0 0 0 0 0 0 0 0 0 0 0 0 0 0 0 0 0 0 0 0 0 0 0 0 0 0 0 0 0 0 0 0 0 0 0 0 0 0 0 0 0 0 0 0 0 0 0 0 0 0 0 0 0 0 0 0 0 0 0 0 0 0 0 0 0 0 0 0 0 0 0 0 0 0 0 0 0 0 0 0 0 0 0 0 0 
0 0 0 0 0 0 0 0 0 0 0 0 0 1.248112e+01 1.310344e+01 1.252937e+01 1.294411e+01 1.270708e+01 1.274292e+01 1.294566e+01 1.256002e+01 0 0 0 0 0 0 0 0 0 0 0 0 0 0 0 0 0 0 0 0 0 0 0 0 0 0 0 0 0 0 0 0 0 0 0 0 0 0 0 0 0 0 0 0 0 0 0 0 0 0 0 0 0 0 0 0 0 0 0 0 0 0 0 0 0 0 0 0 0 0 0 0 0 0 0 0 0 0 0 0 0 0 0 0 0 0 0 0 0 0 0 0 0 0 0 0 0 0 0 0 0 0 0 0 0 0 0 
0 0 0 0 0 0 0 0 0 0 0 0 0 1.199911e+01 1.274442e+01 1.228347e+01 1.323445e+01 1.266149e+01 1.282487e+01 1.313491e+01 1.152798e+01 0 0 0 0 0 0 0 0 0 0 0 0 0 0 0 0 0 0 0 0 0 0 0 0 0 0 0 0 0 0 0 0 0 0 0 0 0 0 0 0 0 0 0 0 0 0 0 0 0 0 0 0 0 0 0 0 0 0 0 0 0 0 0 0 0 0 0 0 0 0 0 0 0 0 0 0 0 0 0 0 0 0 0 0 0 0 0 0 0 0 0 0 0 0 0 0 0 0 0 0 0 0 0 0 0 0 0 
0 0 0 0 0 1.497773e-01 5.191607e-02 1.079878e-01 4.282730e-02 5.033629e-02 4.815704e-02 5.406607e-02 8.013703e-02 1.119679e+01 1.215924e+01 1.150118e+01 1.260390e+01 1.192027e+01 1.219362e+01 1.272558e+01 1.087352e+01 5.695848e-01 5.559735e-01 5.563080e-01 5.551319e-01 5.474469e-01 5.499560e-01 5.322803e-01 5.357074e-01 5.121574e-01 5.180561e-01 4.962203e-01 5.085023e-01 4.937242e-01 5.078513e-01 4.941619e-01 5.010103e-01 4.857410e-01 4.838812e-01 4.682079e-01 4.589632e-01 4.476596e-01 4.383368e-01 4.366079e-01 4.285694e-01 4.324467e-01 4.229898e-01 4.288271e-01 4.166456e-01 4.205843e-01 4.058116e-01 4.082144e-01 3.943325e-01 3.944497e-01 3.808330e-01 3.769560e-01 3.655346e-01 3.591302e-01 3.516076e-01 3.445619e-01 3.447002e-01 3.405787e-01 3.461239e-01 3.395346e-01 3.433195e-01 3.315092e-01 3.334810e-01 3.179451e-01 3.176112e-01 3.030290e-01 3.042854e-01 2.967320e-01 2.991491e-01 2.954251e-01 2.937521e-01 2.913729e-01 2.829550e-01 2.809162e-01 2.673293e-01 2.701641e-01 2.566809e-01 2.641782e-01 2.475844e-01 2.539967e-01 2.340218e-01 2.388873e-01 2.185491e-01 2.222891e-01 2.075171e-01 2.132999e-01 2.065596e-01 2.068498e-01 2.001701e-01 1.873700e-01 1.816994e-01 1.602704e-01 1.636359e-01 1.423831e-01 1.616389e-01 1.428949e-01 1.693566e-01 1.415560e-01 1.610194e-01 1.214168e-01 1.332352e-01 9.243719e-02 1.049211e-01 7.910130e-02 9.729230e-02 8.800738e-02 9.648376e-02 9.156576e-02 7.924138e-02 7.956077e-02 5.097664e-02 6.282234e-02 2.722097e-02 5.411895e-02 1.668006e-02 4.923650e-02 1.718872e-02 6.718920e-02 2.450628e-02 6.545718e-02 0 0 0 0 
0 0 0 0 0 3.364533e+00 1.151360e+00 2.392892e+00 9.619552e-01 1.123247e+00 1.078906e+00 1.211279e+00 1.797945e+00 9.390501e+00 7.573468e+00 1.071157e+01 1.694468e+01 1.226020e+01 1.814105e+01 1.445132e+01 1.449917e+01 1.279485e+01 1.248945e+01 1.249705e+01 1.247066e+01 1.229790e+01 1.235416e+01 1.195680e+01 1.203362e+01 1.150428e+01 1.163665e+01 1.114592e+01 1.142177e+01 1.108972e+01 1.140712e+01 1.109960e+01 1.125353e+01 1.091056e+01 1.086883e+01 1.051678e+01 1.030911e+01 1.005519e+01 9.845720e+00 9.806848e+00 9.626202e+00 9.713246e+00 9.500723e+00 9.631800e+00 9.358085e+00 9.446534e+00 9.114643e+00 9.168617e+00 8.856774e+00 8.859425e+00 8.553561e+00 8.466486e+00 8.209942e+00 8.066078e+00 7.897101e+00 7.738815e+00 7.741906e+00 7.649301e+00 7.773839e+00 7.625798e+00 7.710805e+00 7.445497e+00 7.489794e+00 7.140829e+00 7.133355e+00 6.805841e+00 6.834100e+00 6.664474e+00 6.718802e+00 6.635176e+00 6.597599e+00 6.544150e+00 6.355031e+00 6.309202e+00 6.003960e+00 6.067594e+00 5.764703e+00 5.933090e+00 5.560383e+00 5.704457e+00 5.255887e+00 5.365280e+00 4.908623e+00 4.992772e+00 4.661159e+00 4.791185e+00 4.639905e+00 4.646482e+00 4.496477e+00 4.208900e+00 4.081447e+00 3.599969e+00 3.675374e+00 3.197861e+00 3.630170e+00 3.209124e+00 3.803471e+00 3.179268e+00 3.616730e+00 2.727824e+00 2.993847e+00 2.078413e+00 2.359529e+00 1.780502e+00 2.189758e+00 1.981731e+00 2.172450e+00 2.061987e+00 1.784972e+00 1.791530e+00 1.148850e+00 1.413798e+00 6.134603e-01 1.217372e+00 3.787398e-01 1.128766e+00 4.129452e-01 1.603070e+00 5.020055e-01 1.468015e+00 0 0 0 0 
0 0 0 0 0 4.870998e+00 1.663125e+00 3.455957e+00 1.392706e+00 1.624280e+00 1.561257e+00 1.752805e+00 2.602409e+00 3.017160e+00 4.058983e+00 4.067510e+00 8.907961e+00 1.031512e+01 1.311330e+01 1.719537e+01 1.746802e+01 1.852370e+01 1.808165e+01 1.809268e+01 1.805449e+01 1.780434e+01 1.788576e+01 1.731042e+01 1.742159e+01 1.665516e+01 1.684676e+01 1.613624e+01 1.653560e+01 1.605484e+01 1.651438e+01 1.606917e+01 1.629204e+01 1.579551e+01 1.573512e+01 1.522544e+01 1.492478e+01 1.455717e+01 1.425390e+01 1.419761e+01 1.393607e+01 1.406207e+01 1.375437e+01 1.394412e+01 1.354783e+01 1.367588e+01 1.319537e+01 1.327351e+01 1.282204e+01 1.282588e+01 1.238307e+01 1.225701e+01 1.188561e+01 1.167733e+01 1.143269e+01 1.120353e+01 1.120800e+01 1.107393e+01 1.125422e+01 1.103989e+01 1.116296e+01 1.077885e+01 1.084299e+01 1.033778e+01 1.032697e+01 9.852823e+00 9.893744e+00 9.648180e+00 9.726842e+00 9.605779e+00 9.551379e+00 9.473997e+00 9.200194e+00 9.133838e+00 8.691916e+00 8.784031e+00 8.345518e+00 8.589293e+00 8.049719e+00 8.258311e+00 7.608929e+00 7.767327e+00 7.106256e+00 7.228117e+00 6.748080e+00 6.936356e+00 6.717375e+00 6.726911e+00 6.509752e+00 6.093404e+00 5.908865e+00 5.211780e+00 5.320897e+00 4.629553e+00 5.255365e+00 4.645801e+00 5.506245e+00 4.602631e+00 5.236028e+00 3.949297e+00 4.334568e+00 3.009512e+00 3.416671e+00 2.578633e+00 3.171292e+00 2.870259e+00 3.146451e+00 2.986531e+00 2.585441e+00 2.594779e+00 1.664193e+00 2.047479e+00 8.886388e-01 1.762872e+00 5.493530e-01 1.639942e+00 6.081076e-01 2.345555e+00 7.146859e-01 2.124711e+00 0 0 0 0 
0 0 0 0 0 1.656242e+00 5.636811e-01 1.171052e+00 4.735783e-01 5.513693e-01 5.305079e-01 5.955924e-01 8.846010e-01 1.025695e+00 1.380090e+00 1.382962e+00 3.028737e+00 3.507174e+00 4.458624e+00 5.846674e+00 5.939434e+00 6.298442e+00 6.148178e+00 6.151938e+00 6.138957e+00 6.053885e+00 6.081558e+00 5.885893e+00 5.923673e+00 5.663031e+00 5.728161e+00 5.486543e+00 5.622328e+00 5.458849e+00 5.615110e+00 5.463727e+00 5.539519e+00 5.370691e+00 5.350165e+00 5.176869e+00 5.074636e+00 4.949641e+00 4.846517e+00 4.827374e+00 4.738433e+00 4.781271e+00 4.676635e+00 4.741149e+00 4.606393e+00 4.649928e+00 4.486540e+00 4.513109e+00 4.359599e+00 4.360907e+00 4.210345e+00 4.167484e+00 4.041201e+00 3.970382e+00 3.887202e+00 3.809280e+00 3.810799e+00 3.765208e+00 3.826508e+00 3.753628e+00 3.795471e+00 3.664867e+00 3.686674e+00 3.514896e+00 3.511223e+00 3.350011e+00 3.363929e+00 3.280438e+00 3.307189e+00 3.266028e+00 3.247532e+00 3.221220e+00 3.128118e+00 3.105552e+00 2.955286e+00 2.986601e+00 2.837496e+00 2.920381e+00 2.736920e+00 2.807850e+00 2.587063e+00 2.640934e+00 2.416182e+00 2.457634e+00 2.294438e+00 2.358471e+00 2.284029e+00 2.287279e+00 2.213446e+00 2.071873e+00 2.009118e+00 1.772081e+00 1.809159e+00 1.574075e+00 1.786834e+00 1.579571e+00 1.872130e+00 1.564920e+00 1.780318e+00 1.342890e+00 1.473956e+00 1.023536e+00 1.162063e+00 8.772330e-01 1.078826e+00 9.765353e-01 1.070484e+00 1.016110e+00 8.797106e-01 8.828099e-01 5.663196e-01 6.965039e-01 3.023994e-01 5.996188e-01 1.872933e-01 5.604123e-01 2.122790e-01 8.096611e-01 2.371922e-01 7.221530e-01 0 0 0 0 
0 0 0 0 0 0 0 0 0 0 0 0 0 0 0 0 0 0 0 0 0 0 0 0 0 0 0 0 0 0 0 0 0 0 0 0 0 0 0 0 0 0 0 0 0 0 0 0 0 0 0 0 0 0 0 0 0 0 0 0 0 0 0 0 0 0 0 0 0 0 0 0 0 0 0 0 0 0 0 0 0 0 0 0 0 0 0 0 0 0 0 0 0 0 0 0 0 0 0 0 0 0 0 0 0 0 0 0 0 0 0 0 0 0 0 0 0 0 0 0 0 0 0 0 0 0 0 0 
