# vtk DataFile Version 2.0
Comment goes here
ASCII

DATASET STRUCTURED_POINTS
FIELD FieldData 1
TIME 1 1 double
0.44000000
DIMENSIONS    128   16   1

ORIGIN    0.000   0.000   0.000
SPACING   0.0078125 0.015625   1.000

POINT_DATA   2048
SCALARS fMag double
LOOKUP_TABLE default

0 0 0 0 0 0 0 0 0 0 0 0 0 0 0 0 0 0 0 0 0 0 0 0 0 0 0 0 0 0 0 0 0 0 0 0 0 0 0 0 0 0 0 0 0 0 0 0 0 0 0 0 0 0 0 0 0 0 0 0 0 0 0 0 0 0 0 0 0 0 0 0 0 0 0 0 0 0 0 0 0 0 0 0 0 0 0 0 0 0 0 0 0 0 0 0 0 0 0 0 0 0 0 0 0 0 0 0 0 0 0 0 0 0 0 0 0 0 0 0 0 0 0 0 0 0 0 0 
0 0 0 0 0 0 0 0 0 0 0 0 0 0 0 0 0 0 0 0 0 0 0 0 0 0 0 0 0 0 0 0 0 0 0 0 0 0 0 0 0 0 0 0 0 0 0 0 0 0 0 0 0 0 0 0 0 0 0 0 0 0 0 0 0 0 0 0 0 0 0 0 0 0 0 0 0 0 0 0 0 0 0 0 0 0 0 0 0 0 0 0 0 0 0 0 0 0 0 0 0 0 0 0 0 0 0 0 0 0 0 0 0 0 0 0 0 0 0 0 0 0 0 0 0 0 0 0 
0 0 0 0 0 1.110811e+00 2.480912e+00 1.929309e+00 2.023699e+00 1.819790e+00 2.441021e+00 2.060449e+00 2.952505e+00 4.068180e+00 5.821872e+00 7.075540e+00 1.109926e+01 1.429516e+01 1.766979e+01 2.119491e+01 2.512063e+01 2.555311e+01 2.507826e+01 2.537519e+01 2.530446e+01 2.556097e+01 2.537826e+01 2.513689e+01 2.464942e+01 2.412197e+01 2.371103e+01 2.328224e+01 2.308783e+01 2.275606e+01 2.267094e+01 2.238989e+01 2.235245e+01 2.210868e+01 2.208795e+01 2.188884e+01 2.184037e+01 2.158941e+01 2.136185e+01 2.097898e+01 2.062000e+01 2.024837e+01 1.989112e+01 1.955967e+01 1.916783e+01 1.885327e+01 1.851866e+01 1.838031e+01 1.826078e+01 1.828424e+01 1.816448e+01 1.801547e+01 1.747871e+01 1.605051e+01 1.537401e+01 1.638121e+01 1.560508e+01 1.513140e+01 1.567129e+01 1.458961e+01 1.571772e+01 1.522794e+01 1.336735e+01 1.374996e+01 1.406953e+01 1.461111e+01 1.538265e+01 1.494230e+01 1.395573e+01 1.373576e+01 1.346375e+01 1.326843e+01 1.281351e+01 1.245360e+01 1.184909e+01 1.152656e+01 1.113892e+01 1.116886e+01 1.108514e+01 1.119265e+01 1.099572e+01 1.085180e+01 1.051878e+01 1.028127e+01 1.001997e+01 9.753928e+00 9.517160e+00 9.106048e+00 8.831491e+00 8.313281e+00 8.144809e+00 7.695930e+00 7.695239e+00 7.262996e+00 7.286559e+00 6.820707e+00 6.839236e+00 6.373699e+00 6.338072e+00 5.904817e+00 5.829060e+00 5.495762e+00 5.285410e+00 4.935213e+00 4.495869e+00 4.267396e+00 3.844421e+00 3.937270e+00 3.525442e+00 3.733360e+00 3.117999e+00 3.267816e+00 2.520073e+00 2.718434e+00 2.062620e+00 2.266484e+00 1.662204e+00 2.004457e+00 1.657528e+00 5.221061e-01 0 0 0 0 
0 0 0 0 0 3.266758e+00 7.298504e+00 5.675930e+00 5.950846e+00 5.349786e+00 7.176402e+00 6.055917e+00 8.680224e+00 1.196557e+01 1.712688e+01 2.081444e+01 3.265062e+01 4.205339e+01 5.198242e+01 6.235569e+01 7.390846e+01 7.518110e+01 7.378359e+01 7.465748e+01 7.444934e+01 7.520430e+01 7.466661e+01 7.395629e+01 7.252171e+01 7.096942e+01 6.976004e+01 6.849811e+01 6.792598e+01 6.694960e+01 6.669907e+01 6.587196e+01 6.576176e+01 6.504440e+01 6.498339e+01 6.439746e+01 6.425483e+01 6.351631e+01 6.284667e+01 6.172001e+01 6.066361e+01 5.957006e+01 5.851877e+01 5.754343e+01 5.639039e+01 5.546478e+01 5.448014e+01 5.407306e+01 5.372130e+01 5.379035e+01 5.343794e+01 5.299948e+01 5.200111e+01 5.022036e+01 4.830913e+01 4.877536e+01 4.846039e+01 4.812109e+01 4.837873e+01 4.577393e+01 4.613182e+01 4.578274e+01 4.500631e+01 4.489671e+01 4.370180e+01 4.288713e+01 4.243527e+01 4.196709e+01 4.092278e+01 4.040706e+01 3.960674e+01 3.903206e+01 3.769359e+01 3.663467e+01 3.485615e+01 3.390724e+01 3.276680e+01 3.285492e+01 3.260862e+01 3.292495e+01 3.234564e+01 3.192224e+01 3.094254e+01 3.024378e+01 2.947506e+01 2.869236e+01 2.799580e+01 2.678629e+01 2.597856e+01 2.445400e+01 2.395835e+01 2.263781e+01 2.263578e+01 2.136426e+01 2.143365e+01 2.006335e+01 2.011800e+01 1.874871e+01 1.864407e+01 1.736979e+01 1.714708e+01 1.616678e+01 1.554805e+01 1.451797e+01 1.322547e+01 1.255332e+01 1.130890e+01 1.158180e+01 1.037016e+01 1.098156e+01 9.171352e+00 9.612099e+00 7.413015e+00 7.997581e+00 6.071778e+00 6.681191e+00 4.936672e+00 5.941678e+00 4.891863e+00 1.535271e+00 0 0 0 0 
0 0 0 0 0 2.256376e+00 5.042325e+00 3.921416e+00 4.110007e+00 3.694176e+00 4.955668e+00 4.181123e+00 5.994180e+00 3.935468e+01 4.932921e+01 4.429473e+01 5.601479e+01 5.218568e+01 6.067089e+01 6.422947e+01 6.404541e+01 5.194400e+01 5.097822e+01 5.158214e+01 5.143832e+01 5.196006e+01 5.158850e+01 5.109763e+01 5.010628e+01 4.903355e+01 4.819782e+01 4.732575e+01 4.693038e+01 4.625564e+01 4.608251e+01 4.551094e+01 4.543478e+01 4.493907e+01 4.489690e+01 4.449202e+01 4.439346e+01 4.388313e+01 4.342040e+01 4.264187e+01 4.191189e+01 4.115624e+01 4.042980e+01 3.975584e+01 3.895909e+01 3.831950e+01 3.763912e+01 3.735783e+01 3.711477e+01 3.716248e+01 3.691897e+01 3.661600e+01 3.644346e+01 3.752462e+01 3.717685e+01 3.477596e+01 3.528010e+01 3.460457e+01 3.346237e+01 3.466264e+01 3.254030e+01 3.221786e+01 3.336260e+01 3.136315e+01 3.071058e+01 2.946751e+01 2.798160e+01 2.805976e+01 2.821631e+01 2.791525e+01 2.736228e+01 2.696522e+01 2.604043e+01 2.530881e+01 2.408000e+01 2.342440e+01 2.263648e+01 2.269737e+01 2.252721e+01 2.274578e+01 2.234556e+01 2.205304e+01 2.137619e+01 2.089343e+01 2.036234e+01 1.982157e+01 1.934033e+01 1.850468e+01 1.794662e+01 1.689333e+01 1.655089e+01 1.563856e+01 1.563717e+01 1.475875e+01 1.480672e+01 1.386010e+01 1.389792e+01 1.295205e+01 1.287984e+01 1.199962e+01 1.184583e+01 1.116868e+01 1.074125e+01 1.002967e+01 9.136727e+00 8.672345e+00 7.812578e+00 8.000986e+00 7.163851e+00 7.586128e+00 6.335555e+00 6.640056e+00 5.121100e+00 5.525451e+00 4.196671e+00 4.622386e+00 3.433234e+00 4.126734e+00 3.387236e+00 1.060338e+00 0 0 0 0 
0 0 0 0 0 1.004298e-01 2.247325e-01 1.747951e-01 1.828598e-01 1.641804e-01 2.202863e-01 1.856551e-01 2.664619e-01 4.419183e+01 4.832850e+01 4.525970e+01 4.751651e+01 4.668955e+01 4.593200e+01 4.814097e+01 4.384654e+01 2.316003e+00 2.272889e+00 2.299850e+00 2.293433e+00 2.316730e+00 2.300148e+00 2.278238e+00 2.233992e+00 2.186106e+00 2.148805e+00 2.109878e+00 2.092230e+00 2.062112e+00 2.054382e+00 2.028872e+00 2.025471e+00 2.003348e+00 2.001466e+00 1.983399e+00 1.979002e+00 1.956231e+00 1.935582e+00 1.900845e+00 1.868272e+00 1.834558e+00 1.802145e+00 1.772076e+00 1.736528e+00 1.707994e+00 1.677640e+00 1.665091e+00 1.654247e+00 1.656374e+00 1.645511e+00 1.631995e+00 1.845123e+00 2.915095e+00 3.753862e+00 1.842178e+00 2.036054e+00 1.333460e+00 2.614051e-01 2.911569e+00 1.330978e+00 1.345555e+00 1.280094e+00 2.683991e-01 7.334495e-01 3.916523e-01 2.332955e-01 5.638262e-01 1.178821e+00 1.243954e+00 1.219295e+00 1.201589e+00 1.160353e+00 1.127733e+00 1.072948e+00 1.043719e+00 1.008596e+00 1.011313e+00 1.003730e+00 1.013479e+00 9.956421e-01 9.826045e-01 9.524379e-01 9.309183e-01 9.072469e-01 8.831397e-01 8.616887e-01 8.244355e-01 7.995600e-01 7.526087e-01 7.373434e-01 6.966822e-01 6.966205e-01 6.574797e-01 6.596258e-01 6.174581e-01 6.191598e-01 5.770357e-01 5.738382e-01 5.346438e-01 5.278084e-01 4.976559e-01 4.786167e-01 4.469207e-01 4.071228e-01 3.864233e-01 3.480944e-01 3.564600e-01 3.191374e-01 3.379259e-01 2.822012e-01 2.957732e-01 2.281575e-01 2.463041e-01 1.875134e-01 2.076777e-01 1.587662e-01 1.895104e-01 1.529009e-01 4.717295e-02 0 0 0 0 
0 0 0 0 0 0 0 0 0 0 0 0 0 4.817564e+01 5.219709e+01 4.932537e+01 5.120465e+01 5.084480e+01 4.947989e+01 5.242315e+01 4.748073e+01 0 0 0 0 0 0 0 0 0 0 0 0 0 0 0 0 0 0 0 0 0 0 0 0 0 0 0 0 0 0 0 0 0 0 0 4.952902e-02 1.771086e-01 2.738038e-02 2.856071e-01 3.557556e-01 3.093279e-01 5.819810e-01 3.803214e-01 6.229012e-01 3.532563e-01 5.217522e-01 5.787222e-01 4.085871e-01 7.013588e-01 6.490572e-01 5.094498e-01 7.993203e-02 0 0 0 0 0 0 0 0 0 0 0 0 0 0 0 0 0 0 0 0 0 0 0 0 0 0 0 0 0 0 0 0 0 0 0 0 0 0 0 0 0 0 0 0 0 0 0 0 0 0 0 0 0 0 0 
0 0 0 0 0 0 0 0 0 0 0 0 0 4.801336e+01 4.982691e+01 4.822475e+01 4.907266e+01 4.881512e+01 4.838971e+01 4.957957e+01 4.802625e+01 0 0 0 0 0 0 0 0 0 0 0 0 0 0 0 0 0 0 0 0 0 0 0 0 0 0 0 0 0 0 0 0 0 0 0 2.765886e-02 2.731338e-01 4.631042e-01 2.738746e-01 7.659851e-02 1.958263e-02 1.392395e-02 1.915829e-01 1.860576e-01 1.022744e-01 1.145918e-03 1.117634e-01 6.383465e-02 1.036376e-01 8.487347e-02 3.276360e-02 8.864004e-03 0 0 0 0 0 0 0 0 0 0 0 0 0 0 0 0 0 0 0 0 0 0 0 0 0 0 0 0 0 0 0 0 0 0 0 0 0 0 0 0 0 0 0 0 0 0 0 0 0 0 0 0 0 0 0 
0 0 0 0 0 0 0 0 0 0 0 0 0 5.051548e+01 5.269262e+01 5.093354e+01 5.180418e+01 5.179271e+01 5.084828e+01 5.275495e+01 5.020975e+01 0 0 0 0 0 0 0 0 0 0 0 0 0 0 0 0 0 0 0 0 0 0 0 0 0 0 0 0 0 0 0 0 0 0 0 0 0 0 0 0 0 0 0 0 0 0 0 0 0 0 0 0 0 0 0 0 0 0 0 0 0 0 0 0 0 0 0 0 0 0 0 0 0 0 0 0 0 0 0 0 0 0 0 0 0 0 0 0 0 0 0 0 0 0 0 0 0 0 0 0 0 0 0 0 0 0 0 
0 0 0 0 0 0 0 0 0 0 0 0 0 4.801444e+01 4.982587e+01 4.823540e+01 4.908064e+01 4.883495e+01 4.840554e+01 4.960348e+01 4.804378e+01 0 0 0 0 0 0 0 0 0 0 0 0 0 0 0 0 0 0 0 0 0 0 0 0 0 0 0 0 0 0 0 0 0 0 0 0 0 0 0 0 0 0 0 0 0 0 0 0 0 0 0 0 0 0 0 0 0 0 0 0 0 0 0 0 0 0 0 0 0 0 0 0 0 0 0 0 0 0 0 0 0 0 0 0 0 0 0 0 0 0 0 0 0 0 0 0 0 0 0 0 0 0 0 0 0 0 0 
0 0 0 0 0 0 0 0 0 0 0 0 0 4.815759e+01 5.218432e+01 4.933874e+01 5.121664e+01 5.088043e+01 4.951080e+01 5.247544e+01 4.752928e+01 0 0 0 0 0 0 0 0 0 0 0 0 0 0 0 0 0 0 0 0 0 0 0 0 0 0 0 0 0 0 0 0 0 0 0 0 0 0 0 0 0 0 0 0 0 0 0 0 0 0 0 0 0 0 0 0 0 0 0 0 0 0 0 0 0 0 0 0 0 0 0 0 0 0 0 0 0 0 0 0 0 0 0 0 0 0 0 0 0 0 0 0 0 0 0 0 0 0 0 0 0 0 0 0 0 0 0 
0 0 0 0 0 1.000136e-01 2.252853e-01 1.751397e-01 1.734572e-01 1.580289e-01 2.146203e-01 1.862651e-01 2.645991e-01 4.417466e+01 4.831628e+01 4.529011e+01 4.754721e+01 4.676522e+01 4.600561e+01 4.826591e+01 4.394214e+01 2.330488e+00 2.286070e+00 2.309529e+00 2.297560e+00 2.314855e+00 2.291189e+00 2.260449e+00 2.206325e+00 2.151448e+00 2.117248e+00 2.094459e+00 2.103572e+00 2.097511e+00 2.100003e+00 2.065182e+00 2.039530e+00 1.990785e+00 1.965878e+00 1.931612e+00 1.918727e+00 1.898239e+00 1.888402e+00 1.871163e+00 1.853499e+00 1.831587e+00 1.805111e+00 1.784304e+00 1.761628e+00 1.751893e+00 1.735119e+00 1.722718e+00 1.691205e+00 1.659721e+00 1.618256e+00 1.588928e+00 1.561940e+00 1.543102e+00 1.521761e+00 1.498779e+00 1.477973e+00 1.457823e+00 1.445762e+00 1.430312e+00 1.417875e+00 1.392604e+00 1.366755e+00 1.326962e+00 1.291330e+00 1.252049e+00 1.225178e+00 1.208454e+00 1.206923e+00 1.218034e+00 1.224609e+00 1.225207e+00 1.194733e+00 1.157905e+00 1.099250e+00 1.061868e+00 1.019030e+00 1.007459e+00 9.863039e-01 9.860847e-01 9.648172e-01 9.484302e-01 9.086989e-01 8.715419e-01 8.320792e-01 8.026833e-01 7.910237e-01 7.786448e-01 7.848871e-01 7.653382e-01 7.644596e-01 7.247089e-01 7.175862e-01 6.684159e-01 6.570613e-01 5.958045e-01 5.771554e-01 5.235894e-01 5.267577e-01 5.093129e-01 5.288031e-01 5.184201e-01 5.097329e-01 4.804252e-01 4.368985e-01 4.062983e-01 3.534106e-01 3.455718e-01 2.944789e-01 3.039792e-01 2.456083e-01 2.633278e-01 2.042623e-01 2.300970e-01 1.750613e-01 1.954899e-01 1.490197e-01 1.825630e-01 1.510242e-01 4.715344e-02 0 0 0 0 
0 0 0 0 0 2.247022e+00 5.054653e+00 3.928865e+00 3.898892e+00 3.556242e+00 4.828640e+00 4.194880e+00 5.952610e+00 3.920959e+01 4.928391e+01 4.435285e+01 5.608771e+01 5.230377e+01 6.081190e+01 6.440992e+01 6.434325e+01 5.226846e+01 5.127349e+01 5.179897e+01 5.153077e+01 5.191807e+01 5.138780e+01 5.069913e+01 4.948642e+01 4.825705e+01 4.749079e+01 4.698026e+01 4.718456e+01 4.704882e+01 4.710472e+01 4.632459e+01 4.574981e+01 4.465754e+01 4.409941e+01 4.333147e+01 4.304272e+01 4.258352e+01 4.236304e+01 4.197667e+01 4.158080e+01 4.108967e+01 4.049629e+01 4.002994e+01 3.952172e+01 3.930353e+01 3.892758e+01 3.864963e+01 3.794327e+01 3.723752e+01 3.630800e+01 3.565053e+01 3.504549e+01 3.462318e+01 3.414471e+01 3.362947e+01 3.316298e+01 3.271119e+01 3.244075e+01 3.209434e+01 3.181547e+01 3.124882e+01 3.066919e+01 2.977686e+01 2.897783e+01 2.809690e+01 2.749429e+01 2.711920e+01 2.708487e+01 2.733407e+01 2.748153e+01 2.749495e+01 2.681154e+01 2.598555e+01 2.466998e+01 2.383149e+01 2.287055e+01 2.261095e+01 2.213631e+01 2.213132e+01 2.165413e+01 2.128645e+01 2.039500e+01 1.956142e+01 1.867596e+01 1.801650e+01 1.775493e+01 1.747728e+01 1.761745e+01 1.717895e+01 1.715931e+01 1.626745e+01 1.610761e+01 1.500414e+01 1.474916e+01 1.337413e+01 1.295530e+01 1.175254e+01 1.182318e+01 1.143113e+01 1.186804e+01 1.163467e+01 1.143956e+01 1.078162e+01 9.805052e+00 9.118423e+00 7.931961e+00 7.756571e+00 6.610346e+00 6.824126e+00 5.514090e+00 5.911728e+00 4.584661e+00 5.161572e+00 3.917030e+00 4.348533e+00 3.213513e+00 3.969353e+00 3.344819e+00 1.059898e+00 0 0 0 0 
0 0 0 0 0 3.253215e+00 7.316329e+00 5.686639e+00 5.645230e+00 5.150155e+00 6.992561e+00 6.075847e+00 8.620110e+00 1.177180e+01 1.698999e+01 2.078911e+01 3.267433e+01 4.213816e+01 5.216716e+01 6.264106e+01 7.430909e+01 7.565063e+01 7.421086e+01 7.497124e+01 7.458312e+01 7.514354e+01 7.437617e+01 7.337962e+01 7.162473e+01 6.984576e+01 6.873691e+01 6.799815e+01 6.829382e+01 6.809741e+01 6.817832e+01 6.704940e+01 6.621764e+01 6.463699e+01 6.382931e+01 6.271799e+01 6.230012e+01 6.163559e+01 6.131651e+01 6.075736e+01 6.018447e+01 5.947373e+01 5.861501e+01 5.794011e+01 5.720463e+01 5.688888e+01 5.634480e+01 5.594257e+01 5.492033e+01 5.389895e+01 5.255374e+01 5.160223e+01 5.072659e+01 5.011540e+01 4.942293e+01 4.867725e+01 4.800212e+01 4.734825e+01 4.695686e+01 4.645550e+01 4.605190e+01 4.523179e+01 4.439290e+01 4.310142e+01 4.194498e+01 4.066998e+01 3.979782e+01 3.925493e+01 3.920524e+01 3.956592e+01 3.977935e+01 3.979877e+01 3.880965e+01 3.761416e+01 3.571007e+01 3.449646e+01 3.310559e+01 3.272985e+01 3.204284e+01 3.203559e+01 3.134488e+01 3.081269e+01 2.952235e+01 2.831582e+01 2.703416e+01 2.607964e+01 2.570105e+01 2.529918e+01 2.550210e+01 2.486743e+01 2.483902e+01 2.354810e+01 2.331673e+01 2.171947e+01 2.135034e+01 1.935990e+01 1.875355e+01 1.701240e+01 1.711453e+01 1.654691e+01 1.717921e+01 1.684130e+01 1.655884e+01 1.560642e+01 1.419290e+01 1.319903e+01 1.148173e+01 1.122799e+01 9.568925e+00 9.878518e+00 7.982216e+00 8.557792e+00 6.636472e+00 7.470824e+00 5.666948e+00 6.284703e+00 4.618365e+00 5.713496e+00 4.830387e+00 1.534635e+00 0 0 0 0 
0 0 0 0 0 1.106206e+00 2.486961e+00 1.932914e+00 1.919795e+00 1.751942e+00 2.378541e+00 2.067232e+00 2.932099e+00 4.002319e+00 5.775329e+00 7.066926e+00 1.110731e+01 1.432396e+01 1.773257e+01 2.129188e+01 2.525676e+01 2.571265e+01 2.522344e+01 2.548180e+01 2.534992e+01 2.554032e+01 2.527957e+01 2.494095e+01 2.434463e+01 2.374016e+01 2.336337e+01 2.311235e+01 2.321283e+01 2.314610e+01 2.317360e+01 2.279000e+01 2.250736e+01 2.197024e+01 2.169578e+01 2.131813e+01 2.117613e+01 2.095030e+01 2.084187e+01 2.065185e+01 2.045717e+01 2.021564e+01 1.992383e+01 1.969448e+01 1.944454e+01 1.933724e+01 1.915235e+01 1.901565e+01 1.866826e+01 1.832115e+01 1.786399e+01 1.754062e+01 1.724304e+01 1.703532e+01 1.679998e+01 1.654656e+01 1.631711e+01 1.609489e+01 1.596187e+01 1.579147e+01 1.565430e+01 1.537557e+01 1.509046e+01 1.465152e+01 1.425848e+01 1.382513e+01 1.352870e+01 1.334418e+01 1.332729e+01 1.344989e+01 1.352243e+01 1.352903e+01 1.319285e+01 1.278652e+01 1.213933e+01 1.172684e+01 1.125408e+01 1.112636e+01 1.089283e+01 1.089036e+01 1.065557e+01 1.047467e+01 1.003605e+01 9.625942e+00 9.190277e+00 8.865828e+00 8.737143e+00 8.600550e+00 8.669539e+00 8.453815e+00 8.444167e+00 8.005361e+00 7.926710e+00 7.383741e+00 7.258240e+00 6.581573e+00 6.375413e+00 5.783451e+00 5.818109e+00 5.625085e+00 5.839970e+00 5.725058e+00 5.629018e+00 5.305227e+00 4.824748e+00 4.486904e+00 3.903182e+00 3.816989e+00 3.253058e+00 3.358371e+00 2.713734e+00 2.909392e+00 2.256073e+00 2.539349e+00 1.924979e+00 2.131660e+00 1.553872e+00 1.926707e+00 1.636592e+00 5.218897e-01 0 0 0 0 
0 0 0 0 0 0 0 0 0 0 0 0 0 0 0 0 0 0 0 0 0 0 0 0 0 0 0 0 0 0 0 0 0 0 0 0 0 0 0 0 0 0 0 0 0 0 0 0 0 0 0 0 0 0 0 0 0 0 0 0 0 0 0 0 0 0 0 0 0 0 0 0 0 0 0 0 0 0 0 0 0 0 0 0 0 0 0 0 0 0 0 0 0 0 0 0 0 0 0 0 0 0 0 0 0 0 0 0 0 0 0 0 0 0 0 0 0 0 0 0 0 0 0 0 0 0 0 0 
