# vtk DataFile Version 2.0
Comment goes here
ASCII

DATASET STRUCTURED_POINTS
FIELD FieldData 1
TIME 1 1 double
0.65000000
DIMENSIONS    128   16   1

ORIGIN    0.000   0.000   0.000
SPACING   0.0078125 0.015625   1.000

POINT_DATA   2048
SCALARS fX double
LOOKUP_TABLE default

0 0 0 0 0 0 0 0 0 0 0 0 0 0 0 0 0 0 0 0 0 0 0 0 0 0 0 0 0 0 0 0 0 0 0 0 0 0 0 0 0 0 0 0 0 0 0 0 0 0 0 0 0 0 0 0 0 0 0 0 0 0 0 0 0 0 0 0 0 0 0 0 0 0 0 0 0 0 0 0 0 0 0 0 0 0 0 0 0 0 0 0 0 0 0 0 0 0 0 0 0 0 0 0 0 0 0 0 0 0 0 0 0 0 0 0 0 0 0 0 0 0 0 0 0 0 0 0 
0 0 0 0 0 0 0 0 0 0 0 0 0 0 0 0 0 0 0 0 0 0 0 0 0 0 0 0 0 0 0 0 0 0 0 0 0 0 0 0 0 0 0 0 0 0 0 0 0 0 0 0 0 0 0 0 0 0 0 0 0 0 0 0 0 0 0 0 0 0 0 0 0 0 0 0 0 0 0 0 0 0 0 0 0 0 0 0 0 0 0 0 0 0 0 0 0 0 0 0 0 0 0 0 0 0 0 0 0 0 0 0 0 0 0 0 0 0 0 0 0 0 0 0 0 0 0 0 
0 0 0 0 0 5.966800e-02 2.806388e+00 1.341835e+00 6.520305e-01 1.033604e+00 7.675060e-01 9.806264e-01 -1.106770e+00 -5.078254e+00 -6.699279e+00 -5.357395e+00 -6.388969e+00 -5.867381e+00 -5.721199e+00 -6.628556e+00 -5.115658e+00 -5.516653e-01 8.788998e-01 9.210780e-01 9.265508e-01 9.487583e-01 9.561428e-01 9.574767e-01 9.745978e-01 9.563337e-01 9.847644e-01 9.509828e-01 9.902164e-01 9.459811e-01 9.945812e-01 9.450283e-01 1.000743e+00 9.502697e-01 1.010459e+00 9.623895e-01 1.023393e+00 9.792481e-01 1.035632e+00 9.951346e-01 1.041448e+00 1.003374e+00 1.036405e+00 1.000130e+00 1.019237e+00 9.851925e-01 9.913945e-01 9.595658e-01 9.567883e-01 9.253278e-01 9.151685e-01 8.915657e-01 6.488906e-01 9.980262e-01 9.543619e-01 -1.594331e+00 -3.133020e+00 -4.835592e-01 2.915300e+00 3.058148e+00 4.769344e-01 -2.248473e+00 -2.055416e+00 1.613132e+00 3.596823e+00 3.166343e+00 2.075804e+00 1.385738e+00 1.183811e+00 1.039048e+00 9.748633e-01 9.645548e-01 9.541548e-01 9.395679e-01 9.348901e-01 9.161395e-01 9.171779e-01 8.970076e-01 9.037769e-01 8.838402e-01 8.963333e-01 8.781198e-01 8.965161e-01 8.802170e-01 9.040684e-01 8.879746e-01 9.165613e-01 8.975731e-01 9.289615e-01 9.038246e-01 9.352487e-01 9.018451e-01 9.319951e-01 8.897499e-01 9.191721e-01 8.707896e-01 8.997835e-01 8.510859e-01 8.792013e-01 8.374397e-01 8.626281e-01 8.357771e-01 8.531378e-01 8.495321e-01 8.513008e-01 8.780000e-01 8.540966e-01 9.164965e-01 8.564249e-01 9.588780e-01 8.545725e-01 1.000993e+00 8.470661e-01 1.044152e+00 8.317727e-01 1.109439e+00 7.093977e-01 1.751624e+00 2.123478e+00 1.415284e-01 0 0 0 0 
0 0 0 0 0 1.755343e-01 8.257206e+00 3.952201e+00 1.920188e+00 3.038964e+00 2.254824e+00 2.881040e+00 -3.258492e+00 -1.494075e+01 -1.970816e+01 -1.576101e+01 -1.879556e+01 -1.726171e+01 -1.683253e+01 -1.950310e+01 -1.505262e+01 -1.623607e+00 2.585954e+00 2.710100e+00 2.726233e+00 2.791628e+00 2.813396e+00 2.817357e+00 2.867764e+00 2.814031e+00 2.897695e+00 2.798285e+00 2.913718e+00 2.783537e+00 2.926518e+00 2.780686e+00 2.944595e+00 2.796052e+00 2.973127e+00 2.831661e+00 3.011134e+00 2.881227e+00 3.047114e+00 2.927945e+00 3.064201e+00 2.952167e+00 3.049344e+00 2.942609e+00 2.998817e+00 2.898647e+00 2.916886e+00 2.823237e+00 2.815056e+00 2.722489e+00 2.692587e+00 2.623134e+00 1.862772e+00 2.821971e+00 2.997230e+00 -3.979481e+00 -7.874962e+00 1.659934e-01 9.301240e+00 9.124010e+00 1.331124e+00 -6.323999e+00 -4.211955e+00 6.722207e+00 1.127019e+01 9.444168e+00 6.165737e+00 4.088144e+00 3.482462e+00 3.056776e+00 2.867938e+00 2.837605e+00 2.807000e+00 2.764080e+00 2.750308e+00 2.695136e+00 2.698178e+00 2.638831e+00 2.658733e+00 2.600073e+00 2.636812e+00 2.583219e+00 2.637324e+00 2.589361e+00 2.659516e+00 2.612158e+00 2.696245e+00 2.640376e+00 2.732709e+00 2.658760e+00 2.751208e+00 2.652952e+00 2.741661e+00 2.617409e+00 2.703982e+00 2.561685e+00 2.646997e+00 2.503774e+00 2.586487e+00 2.463655e+00 2.537731e+00 2.458737e+00 2.509756e+00 2.499112e+00 2.504235e+00 2.582713e+00 2.512311e+00 2.695806e+00 2.519038e+00 2.820392e+00 2.513589e+00 2.944381e+00 2.491818e+00 3.071971e+00 2.448266e+00 3.267462e+00 2.096310e+00 5.160941e+00 6.247973e+00 4.162307e-01 0 0 0 0 
0 0 0 0 0 1.212712e-01 5.705243e+00 2.732742e+00 1.327573e+00 2.098681e+00 1.556303e+00 1.988571e+00 -2.252421e+00 -5.365038e+01 -7.106296e+01 -5.981795e+01 -6.639603e+01 -6.493120e+01 -6.021316e+01 -7.322354e+01 -5.127949e+01 -1.122033e+00 1.786730e+00 1.872530e+00 1.883692e+00 1.928902e+00 1.943963e+00 1.946717e+00 1.981560e+00 1.944437e+00 2.002250e+00 1.933556e+00 2.013311e+00 1.923351e+00 2.022135e+00 1.921357e+00 2.034600e+00 1.931947e+00 2.054286e+00 1.956526e+00 2.080524e+00 1.990757e+00 2.105368e+00 2.023023e+00 2.117163e+00 2.039751e+00 2.106888e+00 2.033139e+00 2.071971e+00 2.002759e+00 2.015355e+00 1.950650e+00 1.944993e+00 1.881035e+00 1.860368e+00 1.812378e+00 1.276222e+00 2.047075e+00 2.429075e+00 -2.119130e+00 -4.355006e+00 1.396239e+00 7.151894e+00 6.645159e+00 1.126616e+00 -3.912362e+00 -1.415555e+00 6.184978e+00 8.435512e+00 6.774307e+00 4.398134e+00 2.881890e+00 2.413254e+00 2.111856e+00 1.981387e+00 1.960427e+00 1.939278e+00 1.909622e+00 1.900102e+00 1.861981e+00 1.864076e+00 1.823071e+00 1.836815e+00 1.796284e+00 1.821659e+00 1.784627e+00 1.822000e+00 1.788858e+00 1.837319e+00 1.804595e+00 1.862683e+00 1.824080e+00 1.887868e+00 1.836779e+00 1.900649e+00 1.832774e+00 1.894065e+00 1.808237e+00 1.868056e+00 1.769765e+00 1.828712e+00 1.729782e+00 1.786927e+00 1.702078e+00 1.753243e+00 1.698668e+00 1.733888e+00 1.726518e+00 1.730018e+00 1.784203e+00 1.735526e+00 1.862259e+00 1.740113e+00 1.948287e+00 1.736350e+00 2.033992e+00 1.721460e+00 2.122442e+00 1.692068e+00 2.259160e+00 1.452814e+00 3.569373e+00 4.317024e+00 2.875004e-01 0 0 0 0 
0 0 0 0 0 5.404856e-03 2.544251e-01 1.223752e-01 5.941524e-02 9.332025e-02 6.898507e-02 8.815791e-02 -1.006992e-01 -6.047146e+01 -6.601760e+01 -6.194138e+01 -6.419438e+01 -6.385759e+01 -6.203733e+01 -6.580390e+01 -6.020997e+01 -5.009213e-02 7.967626e-02 8.350813e-02 8.400962e-02 8.603238e-02 8.670909e-02 8.683632e-02 8.839404e-02 8.673925e-02 8.931896e-02 8.625377e-02 8.980994e-02 8.579475e-02 9.019827e-02 8.569992e-02 9.074762e-02 8.616530e-02 9.161860e-02 8.725519e-02 9.278295e-02 8.877722e-02 9.388692e-02 9.021302e-02 9.440987e-02 9.095667e-02 9.394939e-02 9.066005e-02 9.239046e-02 8.930382e-02 8.986435e-02 8.697892e-02 8.672552e-02 8.387323e-02 8.295022e-02 8.080938e-02 7.712135e-02 3.382629e-01 5.641785e-01 3.975916e-01 5.158911e-01 8.574063e-01 8.539988e-01 7.056824e-01 3.964175e-01 2.510344e-01 8.113153e-01 1.105348e+00 7.925123e-01 5.376758e-01 3.519419e-01 2.223921e-01 1.216465e-01 9.412824e-02 8.831163e-02 8.737662e-02 8.643277e-02 8.511015e-02 8.468456e-02 8.298432e-02 8.307614e-02 8.124746e-02 8.185848e-02 8.005092e-02 8.118024e-02 7.952827e-02 8.119212e-02 7.971349e-02 8.187175e-02 8.041183e-02 8.299929e-02 8.127781e-02 8.411992e-02 8.184297e-02 8.468982e-02 8.166637e-02 8.439951e-02 8.057760e-02 8.324578e-02 7.886966e-02 8.149881e-02 7.709432e-02 7.964137e-02 7.586289e-02 7.814019e-02 7.570763e-02 7.727063e-02 7.693770e-02 7.708378e-02 7.949051e-02 7.731103e-02 8.294986e-02 7.750035e-02 8.677246e-02 7.733275e-02 9.060366e-02 7.670747e-02 9.462239e-02 7.557454e-02 1.011371e-01 6.590193e-02 1.600561e-01 1.925282e-01 1.279810e-02 0 0 0 0 
0 0 0 0 0 0 0 0 0 0 0 0 0 -6.612773e+01 -7.186133e+01 -6.770268e+01 -6.982797e+01 -6.984764e+01 -6.747667e+01 -7.202325e+01 -6.554452e+01 0 0 0 0 0 0 0 0 0 0 0 0 0 0 0 0 0 0 0 0 0 0 0 0 0 0 0 0 0 0 0 0 0 0 0 1.404892e-02 1.060428e-01 1.607146e-01 1.182609e-01 1.302208e-01 1.230846e-01 9.353821e-02 1.168319e-01 1.079125e-01 8.189223e-02 8.026271e-02 4.543669e-02 4.011820e-02 3.407916e-02 2.983207e-02 3.755865e-02 6.538930e-03 0 0 0 0 0 0 0 0 0 0 0 0 0 0 0 0 0 0 0 0 0 0 0 0 0 0 0 0 0 0 0 0 0 0 0 0 0 0 0 0 0 0 0 0 0 0 0 0 0 0 0 0 0 0 0 
0 0 0 0 0 0 0 0 0 0 0 0 0 -6.544930e+01 -6.780737e+01 -6.575654e+01 -6.674571e+01 -6.655642e+01 -6.586012e+01 -6.757001e+01 -6.546856e+01 0 0 0 0 0 0 0 0 0 0 0 0 0 0 0 0 0 0 0 0 0 0 0 0 0 0 0 0 0 0 0 0 0 0 0 -7.317202e-04 -9.090660e-03 -1.725640e-02 -1.331076e-02 1.265749e-03 1.236469e-02 5.493574e-03 -9.553235e-03 -1.607938e-02 -5.977590e-03 9.931474e-03 1.599103e-02 9.748981e-03 -7.115380e-03 -1.390949e-02 -5.349349e-03 -5.040407e-04 0 0 0 0 0 0 0 0 0 0 0 0 0 0 0 0 0 0 0 0 0 0 0 0 0 0 0 0 0 0 0 0 0 0 0 0 0 0 0 0 0 0 0 0 0 0 0 0 0 0 0 0 0 0 0 
0 0 0 0 0 0 0 0 0 0 0 0 0 -6.918567e+01 -7.216365e+01 -6.979332e+01 -7.083021e+01 -7.098589e+01 -6.953676e+01 -7.228581e+01 -6.881049e+01 0 0 0 0 0 0 0 0 0 0 0 0 0 0 0 0 0 0 0 0 0 0 0 0 0 0 0 0 0 0 0 0 0 0 0 0 0 0 0 0 0 0 0 0 0 0 0 0 0 0 0 0 0 0 0 0 0 0 0 0 0 0 0 0 0 0 0 0 0 0 0 0 0 0 0 0 0 0 0 0 0 0 0 0 0 0 0 0 0 0 0 0 0 0 0 0 0 0 0 0 0 0 0 0 0 0 0 
0 0 0 0 0 0 0 0 0 0 0 0 0 -6.544907e+01 -6.780834e+01 -6.575616e+01 -6.674706e+01 -6.655507e+01 -6.586142e+01 -6.756387e+01 -6.546444e+01 0 0 0 0 0 0 0 0 0 0 0 0 0 0 0 0 0 0 0 0 0 0 0 0 0 0 0 0 0 0 0 0 0 0 0 0 0 0 0 0 0 0 0 0 0 0 0 0 0 0 0 0 0 0 0 0 0 0 0 0 0 0 0 0 0 0 0 0 0 0 0 0 0 0 0 0 0 0 0 0 0 0 0 0 0 0 0 0 0 0 0 0 0 0 0 0 0 0 0 0 0 0 0 0 0 0 0 
0 0 0 0 0 0 0 0 0 0 0 0 0 -6.612005e+01 -7.185674e+01 -6.770320e+01 -6.983129e+01 -6.985360e+01 -6.748724e+01 -7.202661e+01 -6.554834e+01 0 0 0 0 0 0 0 0 0 0 0 0 0 0 0 0 0 0 0 0 0 0 0 0 0 0 0 0 0 0 0 0 0 0 0 0 0 0 0 0 0 0 0 0 0 0 0 0 0 0 0 0 0 0 0 0 0 0 0 0 0 0 0 0 0 0 0 0 0 0 0 0 0 0 0 0 0 0 0 0 0 0 0 0 0 0 0 0 0 0 0 0 0 0 0 0 0 0 0 0 0 0 0 0 0 0 0 
0 0 0 0 0 5.785248e-03 2.557212e-01 1.254013e-01 6.338785e-02 9.773375e-02 7.360158e-02 9.276103e-02 -9.632791e-02 -6.046996e+01 -6.601889e+01 -6.194342e+01 -6.420016e+01 -6.386905e+01 -6.206284e+01 -6.583274e+01 -6.023685e+01 -5.193905e-02 7.798080e-02 8.173186e-02 8.278640e-02 8.500025e-02 8.663056e-02 8.711307e-02 8.988188e-02 8.860588e-02 9.249024e-02 8.967543e-02 9.435804e-02 9.032723e-02 9.541693e-02 9.056488e-02 9.569018e-02 9.040719e-02 9.523630e-02 8.989081e-02 9.421225e-02 8.921279e-02 9.297111e-02 8.873555e-02 9.194562e-02 8.879106e-02 9.145870e-02 8.956169e-02 9.168727e-02 9.107594e-02 9.259864e-02 9.306660e-02 9.379842e-02 9.493234e-02 9.467308e-02 9.604779e-02 9.469800e-02 9.591207e-02 9.381194e-02 9.450592e-02 9.175163e-02 9.362048e-02 9.181134e-02 9.326635e-02 8.985791e-02 9.096527e-02 8.841328e-02 9.090204e-02 8.990156e-02 9.101970e-02 9.009177e-02 9.042311e-02 8.977316e-02 8.955737e-02 8.959080e-02 8.938496e-02 8.999921e-02 8.970164e-02 9.058911e-02 9.005431e-02 9.095338e-02 9.009634e-02 9.087053e-02 8.964013e-02 9.020434e-02 8.852554e-02 8.886962e-02 8.673067e-02 8.700446e-02 8.448019e-02 8.491810e-02 8.209920e-02 8.296950e-02 7.999999e-02 8.161428e-02 7.866005e-02 8.121917e-02 7.836213e-02 8.179954e-02 7.905397e-02 8.303451e-02 8.042536e-02 8.436953e-02 8.198999e-02 8.513516e-02 8.328666e-02 8.486323e-02 8.416821e-02 8.351805e-02 8.485588e-02 8.142308e-02 8.572646e-02 7.903104e-02 8.711125e-02 7.678002e-02 8.926435e-02 7.498463e-02 9.255512e-02 7.360233e-02 9.917573e-02 6.440349e-02 1.588122e-01 1.922439e-01 1.282874e-02 0 0 0 0 
0 0 0 0 0 1.298232e-01 5.734417e+00 2.800794e+00 1.416825e+00 2.197793e+00 1.659973e+00 2.091928e+00 -2.154267e+00 -5.361988e+01 -7.104365e+01 -5.982925e+01 -6.640775e+01 -6.497710e+01 -6.028702e+01 -7.333331e+01 -5.134862e+01 -1.163428e+00 1.748719e+00 1.832716e+00 1.856275e+00 1.905789e+00 1.942231e+00 1.952951e+00 2.014953e+00 1.986307e+00 2.073375e+00 2.010290e+00 2.115307e+00 2.025005e+00 2.139184e+00 2.030492e+00 2.145483e+00 2.027114e+00 2.135453e+00 2.015654e+00 2.112596e+00 2.000537e+00 2.084844e+00 1.989899e+00 2.061914e+00 1.991197e+00 2.051048e+00 2.008521e+00 2.056212e+00 2.042514e+00 2.076688e+00 2.087201e+00 2.103655e+00 2.129116e+00 2.123360e+00 2.154230e+00 2.124011e+00 2.151278e+00 2.104220e+00 2.119820e+00 2.058082e+00 2.100036e+00 2.059497e+00 2.092173e+00 2.015760e+00 2.040639e+00 1.983428e+00 2.039293e+00 2.016884e+00 2.042002e+00 2.021222e+00 2.028687e+00 2.014139e+00 2.009322e+00 2.010100e+00 2.005499e+00 2.019312e+00 2.012660e+00 2.032613e+00 2.020643e+00 2.040859e+00 2.021663e+00 2.039080e+00 2.011510e+00 2.024214e+00 1.986583e+00 1.994342e+00 1.946383e+00 1.952552e+00 1.895935e+00 1.905768e+00 1.842524e+00 1.862047e+00 1.795407e+00 1.831613e+00 1.765292e+00 1.822683e+00 1.758514e+00 1.835598e+00 1.773911e+00 1.863194e+00 1.804571e+00 1.893080e+00 1.839639e+00 1.910281e+00 1.868816e+00 1.904337e+00 1.888836e+00 1.874451e+00 1.904637e+00 1.827835e+00 1.924586e+00 1.774480e+00 1.955898e+00 1.723935e+00 2.003917e+00 1.682763e+00 2.076006e+00 1.647766e+00 2.215098e+00 1.419140e+00 3.541446e+00 4.310661e+00 2.881897e-01 0 0 0 0 
0 0 0 0 0 1.879174e-01 8.299457e+00 4.050742e+00 2.049407e+00 3.182447e+00 2.404904e+00 3.030662e+00 -3.116399e+00 -1.481316e+01 -1.959956e+01 -1.567941e+01 -1.873336e+01 -1.721449e+01 -1.681074e+01 -1.950040e+01 -1.507533e+01 -1.683512e+00 2.530942e+00 2.652481e+00 2.686556e+00 2.758184e+00 2.810898e+00 2.826388e+00 2.916101e+00 2.874633e+00 3.000638e+00 2.909344e+00 3.061338e+00 2.930666e+00 3.095928e+00 2.938648e+00 3.105090e+00 2.933798e+00 3.090610e+00 2.917243e+00 3.057556e+00 2.895386e+00 3.017412e+00 2.880006e+00 2.984241e+00 2.881897e+00 2.968529e+00 2.906983e+00 2.976012e+00 2.956189e+00 3.005657e+00 3.020877e+00 3.044702e+00 3.081561e+00 3.073244e+00 3.117934e+00 3.074210e+00 3.113684e+00 3.045587e+00 3.068174e+00 2.978827e+00 3.039559e+00 2.980894e+00 3.028199e+00 2.917611e+00 2.953630e+00 2.870833e+00 2.951701e+00 2.919275e+00 2.955639e+00 2.925570e+00 2.936384e+00 2.915336e+00 2.908369e+00 2.909503e+00 2.902848e+00 2.922850e+00 2.913227e+00 2.942118e+00 2.924800e+00 2.954072e+00 2.926295e+00 2.951517e+00 2.911621e+00 2.930020e+00 2.875561e+00 2.886800e+00 2.817391e+00 2.826328e+00 2.744382e+00 2.758617e+00 2.667075e+00 2.695333e+00 2.598871e+00 2.651274e+00 2.555268e+00 2.638333e+00 2.545434e+00 2.656999e+00 2.567689e+00 2.696915e+00 2.612040e+00 2.740156e+00 2.662789e+00 2.765059e+00 2.705042e+00 2.756495e+00 2.734081e+00 2.713312e+00 2.757048e+00 2.645937e+00 2.786028e+00 2.568788e+00 2.831412e+00 2.495617e+00 2.900843e+00 2.435795e+00 3.004744e+00 2.384128e+00 3.203670e+00 2.047555e+00 5.120514e+00 6.238767e+00 4.172289e-01 0 0 0 0 
0 0 0 0 0 6.387937e-02 2.820761e+00 1.375350e+00 6.959694e-01 1.082387e+00 8.185322e-01 1.031496e+00 -1.058460e+00 -5.034872e+00 -6.662358e+00 -5.329652e+00 -6.367824e+00 -5.851329e+00 -5.713791e+00 -6.627635e+00 -5.123373e+00 -5.720231e-01 8.602037e-01 9.014971e-01 9.130672e-01 9.373957e-01 9.552974e-01 9.605496e-01 9.910299e-01 9.769320e-01 1.019753e+00 9.887294e-01 1.040389e+00 9.959880e-01 1.052162e+00 9.987205e-01 1.055297e+00 9.970915e-01 1.050394e+00 9.914799e-01 1.039173e+00 9.840617e-01 1.025539e+00 9.788423e-01 1.014273e+00 9.794918e-01 1.008939e+00 9.880229e-01 1.011487e+00 1.004751e+00 1.021567e+00 1.026743e+00 1.034846e+00 1.047377e+00 1.044558e+00 1.059752e+00 1.044897e+00 1.058319e+00 1.035179e+00 1.042860e+00 1.012496e+00 1.033143e+00 1.013209e+00 1.029292e+00 9.917086e-01 1.003956e+00 9.758179e-01 1.003310e+00 9.922919e-01 1.004657e+00 9.944405e-01 9.981201e-01 9.909700e-01 9.886046e-01 9.889936e-01 9.867335e-01 9.935363e-01 9.902685e-01 1.000094e+00 9.942109e-01 1.004167e+00 9.947285e-01 1.003308e+00 9.897508e-01 9.960105e-01 9.775032e-01 9.813285e-01 9.577389e-01 9.607800e-01 9.329271e-01 9.377669e-01 9.066505e-01 9.162553e-01 8.834644e-01 9.012757e-01 8.686366e-01 8.968686e-01 8.652822e-01 9.032006e-01 8.728316e-01 9.167548e-01 8.878941e-01 9.314448e-01 9.051401e-01 9.399127e-01 9.195130e-01 9.370212e-01 9.294135e-01 9.223788e-01 9.372663e-01 8.995243e-01 9.471682e-01 8.733387e-01 9.626251e-01 8.484616e-01 9.861902e-01 8.280176e-01 1.021293e+00 8.099644e-01 1.087748e+00 6.928182e-01 1.737880e+00 2.120351e+00 1.418679e-01 0 0 0 0 
0 0 0 0 0 0 0 0 0 0 0 0 0 0 0 0 0 0 0 0 0 0 0 0 0 0 0 0 0 0 0 0 0 0 0 0 0 0 0 0 0 0 0 0 0 0 0 0 0 0 0 0 0 0 0 0 0 0 0 0 0 0 0 0 0 0 0 0 0 0 0 0 0 0 0 0 0 0 0 0 0 0 0 0 0 0 0 0 0 0 0 0 0 0 0 0 0 0 0 0 0 0 0 0 0 0 0 0 0 0 0 0 0 0 0 0 0 0 0 0 0 0 0 0 0 0 0 0 
