# vtk DataFile Version 2.0
Comment goes here
ASCII

DATASET STRUCTURED_POINTS
FIELD FieldData 1
TIME 1 1 double
0.17000000
DIMENSIONS    128   16   1

ORIGIN    0.000   0.000   0.000
SPACING   0.0078125 0.015625   1.000

POINT_DATA   2048
SCALARS fX double
LOOKUP_TABLE default

0 0 0 0 0 0 0 0 0 0 0 0 0 0 0 0 0 0 0 0 0 0 0 0 0 0 0 0 0 0 0 0 0 0 0 0 0 0 0 0 0 0 0 0 0 0 0 0 0 0 0 0 0 0 0 0 0 0 0 0 0 0 0 0 0 0 0 0 0 0 0 0 0 0 0 0 0 0 0 0 0 0 0 0 0 0 0 0 0 0 0 0 0 0 0 0 0 0 0 0 0 0 0 0 0 0 0 0 0 0 0 0 0 0 0 0 0 0 0 0 0 0 0 0 0 0 0 0 
0 0 0 0 0 0 0 0 0 0 0 0 0 0 0 0 0 0 0 0 0 0 0 0 0 0 0 0 0 0 0 0 0 0 0 0 0 0 0 0 0 0 0 0 0 0 0 0 0 0 0 0 0 0 0 0 0 0 0 0 0 0 0 0 0 0 0 0 0 0 0 0 0 0 0 0 0 0 0 0 0 0 0 0 0 0 0 0 0 0 0 0 0 0 0 0 0 0 0 0 0 0 0 0 0 0 0 0 0 0 0 0 0 0 0 0 0 0 0 0 0 0 0 0 0 0 0 0 
0 0 0 0 0 1.714896e+00 1.478621e+00 -1.203496e-01 6.353978e-01 3.157068e-01 6.522507e-01 5.229143e-01 1.390758e-02 -2.315616e+00 -3.146403e+00 -2.034787e+00 -1.393484e+00 -1.332747e+00 -6.467520e-01 -1.951157e+00 -2.745363e+00 -5.250307e-01 -1.172320e-01 9.699000e-01 1.458885e+00 1.529848e+00 1.323773e+00 1.479299e+00 1.269700e+00 9.744215e-01 7.074682e-01 9.211467e-01 8.282945e-01 2.380588e-01 -4.232350e-01 -1.776757e-01 5.857959e-01 7.575993e-01 -5.495630e-02 -8.766357e-01 -7.937858e-01 -2.888227e-01 -3.342697e-02 -7.414050e-02 1.158001e-01 2.018590e-01 -1.210715e-02 -3.807530e-01 -8.525045e-02 6.359883e-01 1.019957e+00 4.904509e-01 -2.518710e-01 -5.301423e-01 -3.376570e-04 6.074777e-01 4.903010e-01 1.216670e+00 1.023841e+00 -5.814963e+00 -7.193986e+00 1.053445e+00 3.085672e+00 2.058444e+00 -2.348323e+00 -9.305482e+00 -3.553878e+00 4.047117e+00 4.287078e+00 2.832184e+00 -1.908555e+00 -4.101955e+00 -1.254877e+00 2.246514e-01 -8.124530e-02 1.369497e-02 3.723776e-01 8.614571e-01 8.199321e-01 -1.013644e-01 -8.485719e-01 -2.362659e-01 1.068272e+00 1.852175e+00 1.915527e+00 1.411641e+00 5.472104e-01 3.387952e-02 3.561621e-01 1.002217e+00 1.618135e+00 1.955890e+00 1.693795e+00 7.496604e-01 -6.102461e-02 -7.040736e-02 9.754293e-01 2.216604e+00 2.331879e+00 1.014705e+00 -3.826392e-01 -4.482627e-01 9.176675e-01 2.595206e+00 3.047071e+00 2.324974e+00 1.096546e+00 4.483373e-01 3.957725e-01 1.117750e+00 1.693585e+00 2.126674e+00 1.560185e+00 7.223612e-01 -1.709344e-01 -1.876256e-01 6.799089e-02 6.733633e-01 6.363208e-01 3.404722e-01 -5.550362e-01 -5.783993e-01 1.085327e+00 3.120947e-01 0 0 0 0 
0 0 0 0 0 5.042456e+00 4.335252e+00 -3.740076e-01 1.859635e+00 9.267818e-01 1.917925e+00 1.537666e+00 4.036047e-02 -6.811672e+00 -9.255158e+00 -5.985760e+00 -4.099531e+00 -3.921111e+00 -1.903059e+00 -5.740096e+00 -8.075794e+00 -1.543896e+00 -3.442525e-01 2.853644e+00 4.292000e+00 4.500677e+00 3.894325e+00 4.351773e+00 3.735126e+00 2.866485e+00 2.081173e+00 2.709789e+00 2.436654e+00 7.003574e-01 -1.244973e+00 -5.226367e-01 1.723256e+00 2.228631e+00 -1.615939e-01 -2.578701e+00 -2.335051e+00 -8.495650e-01 -9.822596e-02 -2.180328e-01 3.406848e-01 5.938512e-01 -3.558526e-02 -1.120060e+00 -2.507875e-01 1.870884e+00 3.000423e+00 1.442778e+00 -7.408987e-01 -1.559453e+00 -9.979103e-04 1.786887e+00 1.413072e+00 3.591107e+00 4.193481e+00 -1.302409e+01 -1.579784e+01 6.336210e+00 9.984891e+00 6.603602e+00 -4.249564e+00 -2.157310e+01 -4.727145e+00 1.468385e+01 1.351135e+01 9.676523e+00 -3.170908e+00 -1.063300e+01 -3.608353e+00 6.607939e-01 -2.390299e-01 4.024949e-02 1.095293e+00 2.533922e+00 2.411808e+00 -2.982140e-01 -2.496113e+00 -6.949813e-01 3.142251e+00 5.448040e+00 5.634408e+00 4.152260e+00 1.609585e+00 9.966740e-02 1.047659e+00 2.948003e+00 4.759804e+00 5.753323e+00 4.982344e+00 2.205213e+00 -1.794424e-01 -2.070390e-01 2.869231e+00 6.519920e+00 6.858968e+00 2.984740e+00 -1.125432e+00 -1.318492e+00 2.699212e+00 7.633475e+00 8.962582e+00 6.838733e+00 3.225504e+00 1.318830e+00 1.164254e+00 3.287965e+00 4.981700e+00 6.255732e+00 4.589698e+00 2.125431e+00 -5.017577e-01 -5.507796e-01 2.010373e-01 1.981601e+00 1.872412e+00 1.002037e+00 -1.629854e+00 -1.695898e+00 3.195483e+00 9.181983e-01 0 0 0 0 
0 0 0 0 0 3.482459e+00 2.988002e+00 -2.680603e-01 1.280107e+00 6.393251e-01 1.324599e+00 1.062001e+00 2.761558e-02 -2.418847e+01 -3.607424e+01 -2.581390e+01 -2.401525e+01 -2.711624e+01 -2.201840e+01 -3.467553e+01 -2.861599e+01 -1.066307e+00 -2.375298e-01 1.971660e+00 2.965295e+00 3.109423e+00 2.690460e+00 3.006453e+00 2.580413e+00 1.980308e+00 1.437772e+00 1.872066e+00 1.683377e+00 4.838667e-01 -8.600547e-01 -3.610450e-01 1.190510e+00 1.539637e+00 -1.116018e-01 -1.781432e+00 -1.613142e+00 -5.868855e-01 -6.780737e-02 -1.505945e-01 2.353773e-01 4.102792e-01 -2.456917e-02 -7.737867e-01 -1.732580e-01 1.292487e+00 2.072831e+00 9.967433e-01 -5.118308e-01 -1.077306e+00 -6.916414e-04 1.234397e+00 9.722356e-01 2.577989e+00 3.745713e+00 -6.485992e+00 -7.688124e+00 6.249876e+00 7.366967e+00 4.933798e+00 -1.349955e+00 -1.146947e+01 1.236210e-01 1.171354e+01 9.821977e+00 7.460536e+00 -7.770202e-01 -6.513432e+00 -2.444392e+00 4.564748e-01 -1.651472e-01 2.778818e-02 7.566132e-01 1.750436e+00 1.666093e+00 -2.060341e-01 -1.724361e+00 -4.801034e-01 2.170668e+00 3.763502e+00 3.892256e+00 2.868388e+00 1.111902e+00 6.885657e-02 7.237385e-01 2.036504e+00 3.288154e+00 3.974494e+00 3.441881e+00 1.523428e+00 -1.239310e-01 -1.429937e-01 1.982100e+00 4.503926e+00 4.738128e+00 2.061885e+00 -7.774122e-01 -9.107940e-01 1.864594e+00 5.273132e+00 6.191268e+00 4.724186e+00 2.228220e+00 9.110842e-01 8.043228e-01 2.271412e+00 3.441422e+00 4.321587e+00 3.170814e+00 1.468565e+00 -3.461130e-01 -3.799414e-01 1.393838e-01 1.369349e+00 1.293810e+00 6.924790e-01 -1.124571e+00 -1.168898e+00 2.208925e+00 6.343848e-01 0 0 0 0 
0 0 0 0 0 1.548987e-01 1.313706e-01 -1.440234e-02 5.586989e-02 2.825010e-02 5.892463e-02 4.724932e-02 1.162695e-03 -2.632771e+01 -2.849722e+01 -2.665551e+01 -2.668707e+01 -2.717126e+01 -2.598339e+01 -2.876453e+01 -2.718452e+01 -4.744160e-02 -1.050921e-02 8.791586e-02 1.321803e-01 1.385936e-01 1.199075e-01 1.339798e-01 1.149874e-01 8.824462e-02 6.406774e-02 8.342420e-02 7.501748e-02 2.156809e-02 -3.831637e-02 -1.608397e-02 5.305070e-02 6.860520e-02 -4.964157e-03 -7.936716e-02 -7.187681e-02 -2.614320e-02 -3.008379e-03 -6.702220e-03 1.049263e-02 1.828698e-02 -1.091051e-03 -3.447927e-02 -7.721015e-03 5.759190e-02 9.236556e-02 4.441641e-02 -2.280308e-02 -4.799577e-02 -3.138812e-05 5.498779e-02 5.215726e-02 2.239332e-01 6.148755e-01 7.317842e-01 9.305542e-01 9.721835e-01 4.365957e-01 3.855590e-01 5.360133e-01 7.951609e-01 1.319071e+00 1.070713e+00 5.915534e-01 5.923038e-01 4.462403e-01 5.314356e-03 -9.201197e-02 2.033239e-02 -7.362605e-03 1.233666e-03 3.369807e-02 7.797031e-02 7.421699e-02 -9.184456e-03 -7.682007e-02 -2.138789e-02 9.668837e-02 1.676369e-01 1.733748e-01 1.277685e-01 4.952781e-02 3.068690e-03 3.224149e-02 9.071809e-02 1.464852e-01 1.770612e-01 1.533318e-01 6.787505e-02 -5.513205e-03 -6.362057e-03 8.829761e-02 2.006100e-01 2.110388e-01 9.184941e-02 -3.461909e-02 -4.056436e-02 8.304915e-02 2.348630e-01 2.757568e-01 2.104270e-01 9.926245e-02 4.059181e-02 3.584127e-02 1.011974e-01 1.533078e-01 1.925291e-01 1.413017e-01 6.549489e-02 -1.528967e-02 -1.678738e-02 6.337363e-03 6.111166e-02 5.771858e-02 3.091417e-02 -4.975383e-02 -5.139899e-02 9.876955e-02 2.828117e-02 0 0 0 0 
0 0 0 0 0 0 0 0 0 0 0 0 0 -2.878087e+01 -3.142206e+01 -2.937026e+01 -2.967471e+01 -3.034417e+01 -2.887349e+01 -3.169806e+01 -2.920084e+01 0 0 0 0 0 0 0 0 0 0 0 0 0 0 0 0 0 0 0 0 0 0 0 0 0 0 0 0 0 0 0 0 0 0 0 2.690380e-03 2.038105e-02 3.669703e-02 6.472496e-03 2.867813e-02 2.977328e-02 -1.842493e-02 -3.783137e-03 -1.918501e-02 1.056977e-02 5.756502e-02 2.380808e-02 4.850159e-03 -2.924893e-02 -5.095779e-02 -1.764996e-02 -1.590344e-03 0 0 0 0 0 0 0 0 0 0 0 0 0 0 0 0 0 0 0 0 0 0 0 0 0 0 0 0 0 0 0 0 0 0 0 0 0 0 0 0 0 0 0 0 0 0 0 0 0 0 0 0 0 0 0 
0 0 0 0 0 0 0 0 0 0 0 0 0 -2.794666e+01 -2.868386e+01 -2.806276e+01 -2.817175e+01 -2.838480e+01 -2.788727e+01 -2.886767e+01 -2.794998e+01 0 0 0 0 0 0 0 0 0 0 0 0 0 0 0 0 0 0 0 0 0 0 0 0 0 0 0 0 0 0 0 0 0 0 0 -2.788598e-06 9.412537e-07 -2.106107e-03 -2.177089e-03 1.385779e-02 2.470047e-02 1.272604e-02 -7.025108e-04 -3.912982e-03 1.356177e-02 3.538299e-02 2.990557e-02 1.100118e-02 -5.355487e-03 -1.186551e-02 -5.347809e-03 -4.947768e-04 0 0 0 0 0 0 0 0 0 0 0 0 0 0 0 0 0 0 0 0 0 0 0 0 0 0 0 0 0 0 0 0 0 0 0 0 0 0 0 0 0 0 0 0 0 0 0 0 0 0 0 0 0 0 0 
0 0 0 0 0 0 0 0 0 0 0 0 0 -2.994738e+01 -3.110650e+01 -3.022830e+01 -3.038596e+01 -3.075464e+01 -2.987097e+01 -3.134797e+01 -2.978401e+01 0 0 0 0 0 0 0 0 0 0 0 0 0 0 0 0 0 0 0 0 0 0 0 0 0 0 0 0 0 0 0 0 0 0 0 0 0 0 0 0 0 0 0 0 0 0 0 0 0 0 0 0 0 0 0 0 0 0 0 0 0 0 0 0 0 0 0 0 0 0 0 0 0 0 0 0 0 0 0 0 0 0 0 0 0 0 0 0 0 0 0 0 0 0 0 0 0 0 0 0 0 0 0 0 0 0 0 
0 0 0 0 0 0 0 0 0 0 0 0 0 -2.793301e+01 -2.868572e+01 -2.807102e+01 -2.816856e+01 -2.837229e+01 -2.781476e+01 -2.875391e+01 -2.782782e+01 0 0 0 0 0 0 0 0 0 0 0 0 0 0 0 0 0 0 0 0 0 0 0 0 0 0 0 0 0 0 0 0 0 0 0 0 0 0 0 0 0 0 0 0 0 0 0 0 0 0 0 0 0 0 0 0 0 0 0 0 0 0 0 0 0 0 0 0 0 0 0 0 0 0 0 0 0 0 0 0 0 0 0 0 0 0 0 0 0 0 0 0 0 0 0 0 0 0 0 0 0 0 0 0 0 0 0 
0 0 0 0 0 0 0 0 0 0 0 0 0 -2.890645e+01 -3.157326e+01 -2.952788e+01 -2.969780e+01 -3.032000e+01 -2.858047e+01 -3.125400e+01 -2.887280e+01 0 0 0 0 0 0 0 0 0 0 0 0 0 0 0 0 0 0 0 0 0 0 0 0 0 0 0 0 0 0 0 0 0 0 0 0 0 0 0 0 0 0 0 0 0 0 0 0 0 0 0 0 0 0 0 0 0 0 0 0 0 0 0 0 0 0 0 0 0 0 0 0 0 0 0 0 0 0 0 0 0 0 0 0 0 0 0 0 0 0 0 0 0 0 0 0 0 0 0 0 0 0 0 0 0 0 0 
0 0 0 0 0 1.539162e-01 1.233925e-01 -2.489044e-02 5.597008e-02 2.923572e-02 4.270758e-02 1.460108e-02 -2.419991e-02 -2.619897e+01 -2.849134e+01 -2.684748e+01 -2.693141e+01 -2.745782e+01 -2.569625e+01 -2.789689e+01 -2.605787e+01 5.369897e-02 -4.984063e-03 -2.990779e-02 -1.544170e-02 3.713104e-02 4.487721e-02 4.590808e-02 3.099229e-02 3.770176e-02 2.360107e-02 1.773553e-02 1.600635e-02 3.403092e-02 2.081478e-02 -1.248969e-02 -2.164776e-02 3.504907e-02 1.015508e-01 9.045559e-02 -4.978451e-03 -1.016358e-01 -1.137837e-01 -5.616245e-02 1.348097e-02 3.144335e-02 -2.166088e-04 -7.144052e-02 -1.327260e-01 -1.508090e-01 -1.015479e-01 -3.736867e-02 2.098517e-03 -7.594140e-03 -3.143241e-02 -4.752918e-02 -3.635109e-02 -1.293406e-02 7.313971e-03 -6.363599e-03 -3.501922e-02 -3.430258e-02 1.393764e-02 6.901224e-02 7.688632e-02 2.689193e-02 -3.738622e-02 -7.213987e-02 -5.280822e-02 1.000196e-02 5.238111e-02 3.839497e-02 -8.723449e-03 -3.573542e-02 -3.102300e-02 -4.077603e-03 2.958187e-02 5.317596e-02 4.899912e-02 3.331618e-02 3.068455e-02 3.781346e-02 4.194315e-02 4.118269e-02 3.946923e-02 3.995021e-02 5.996437e-02 9.926299e-02 1.349782e-01 1.352705e-01 1.142679e-01 9.142920e-02 9.663276e-02 1.346209e-01 1.909967e-01 2.122210e-01 1.814219e-01 1.130652e-01 6.105317e-02 6.441910e-02 1.123882e-01 1.522771e-01 1.370764e-01 8.146939e-02 1.602129e-02 2.292392e-03 2.738020e-02 9.007112e-02 1.139171e-01 1.018175e-01 3.442876e-02 7.622014e-03 1.586400e-02 9.540399e-02 1.356006e-01 1.393237e-01 6.872476e-02 1.995916e-02 1.700778e-03 6.049955e-02 1.029813e-01 1.325872e-01 1.825265e-01 3.478576e-02 0 0 0 0 
0 0 0 0 0 3.460249e+00 2.808615e+00 -5.035158e-01 1.282546e+00 6.615675e-01 9.605422e-01 3.289317e-01 -5.419468e-01 -2.470659e+01 -3.756343e+01 -2.685640e+01 -2.467950e+01 -2.797158e+01 -2.060159e+01 -3.223327e+01 -2.660755e+01 1.203176e+00 -1.132858e-01 -6.722335e-01 -3.473311e-01 8.327331e-01 1.006772e+00 1.030010e+00 6.953625e-01 8.458944e-01 5.295411e-01 3.979488e-01 3.590981e-01 7.635124e-01 4.668885e-01 -2.804824e-01 -4.860826e-01 7.862109e-01 2.278697e+00 2.029707e+00 -1.120943e-01 -2.281149e+00 -2.553845e+00 -1.260731e+00 3.023907e-01 7.055369e-01 -4.911274e-03 -1.603226e+00 -2.978669e+00 -3.384602e+00 -2.279060e+00 -8.386539e-01 4.711373e-02 -1.704242e-01 -7.054114e-01 -1.066688e+00 -8.158315e-01 -2.902782e-01 1.641007e-01 -1.428944e-01 -7.860039e-01 -7.699391e-01 3.128243e-01 1.549071e+00 1.725825e+00 6.036029e-01 -8.392034e-01 -1.619270e+00 -1.185350e+00 2.244526e-01 1.175673e+00 8.617700e-01 -1.958366e-01 -8.021602e-01 -6.963840e-01 -9.153694e-02 6.640533e-01 1.193645e+00 1.099897e+00 7.479085e-01 6.888503e-01 8.488592e-01 9.415280e-01 9.244549e-01 8.859963e-01 8.968146e-01 1.346107e+00 2.228324e+00 3.030037e+00 3.036693e+00 2.565318e+00 2.052593e+00 2.169341e+00 3.022068e+00 4.287225e+00 4.763573e+00 4.072351e+00 2.537847e+00 1.370484e+00 1.446191e+00 2.523198e+00 3.418783e+00 3.077570e+00 1.829081e+00 3.596795e-01 5.147378e-02 6.146988e-01 2.021956e+00 2.557288e+00 2.285409e+00 7.718825e-01 1.697666e-01 3.544469e-01 2.139663e+00 3.042082e+00 3.125592e+00 1.540047e+00 4.453537e-01 3.591860e-02 1.356508e+00 2.304903e+00 2.962787e+00 4.089841e+00 7.804035e-01 0 0 0 0 
0 0 0 0 0 5.010266e+00 4.075503e+00 -7.148514e-01 1.863214e+00 9.590091e-01 1.390922e+00 4.764487e-01 -7.841788e-01 -6.725495e+00 -8.846586e+00 -6.601195e+00 -6.304479e+00 -7.190368e+00 -4.806095e+00 -6.466182e+00 -5.687974e+00 1.741112e+00 -1.643458e-01 -9.733258e-01 -5.029636e-01 1.205242e+00 1.457214e+00 1.490878e+00 1.006498e+00 1.224383e+00 7.664841e-01 5.760144e-01 5.197666e-01 1.105134e+00 6.757631e-01 -4.060474e-01 -7.036738e-01 1.137952e+00 3.298346e+00 2.937935e+00 -1.623505e-01 -3.302034e+00 -3.696781e+00 -1.824999e+00 4.376739e-01 1.021239e+00 -7.121824e-03 -2.320667e+00 -4.311644e+00 -4.899264e+00 -3.298981e+00 -1.213962e+00 6.820212e-02 -2.466889e-01 -1.021088e+00 -1.544046e+00 -1.180930e+00 -4.201820e-01 2.375264e-01 -2.068613e-01 -1.137770e+00 -1.114521e+00 4.528237e-01 2.242362e+00 2.498226e+00 8.737418e-01 -1.214797e+00 -2.343979e+00 -1.715858e+00 3.248932e-01 1.701826e+00 1.247444e+00 -2.834908e-01 -1.161178e+00 -1.008061e+00 -1.325071e-01 9.612651e-01 1.727875e+00 1.592172e+00 1.082658e+00 9.971718e-01 1.228791e+00 1.362927e+00 1.338212e+00 1.282542e+00 1.298207e+00 1.948595e+00 3.225678e+00 4.386209e+00 4.395868e+00 3.713543e+00 2.971326e+00 3.140311e+00 4.374686e+00 6.206000e+00 6.895525e+00 5.894970e+00 3.673656e+00 1.983865e+00 2.093494e+00 3.652590e+00 4.949055e+00 4.455127e+00 2.647792e+00 5.206706e-01 7.451563e-02 8.898383e-01 2.926938e+00 3.701879e+00 3.308246e+00 1.117108e+00 2.454111e-01 5.126639e-01 3.096818e+00 4.403157e+00 4.524027e+00 2.228647e+00 6.439986e-01 5.142069e-02 1.963241e+00 3.334782e+00 4.285412e+00 5.918433e+00 1.129572e+00 0 0 0 0 
0 0 0 0 0 1.703933e+00 1.390280e+00 -2.362260e-01 6.366381e-01 3.266773e-01 4.730877e-01 1.621181e-01 -2.664319e-01 -2.286346e+00 -3.007519e+00 -2.244013e+00 -2.143086e+00 -2.444126e+00 -1.633637e+00 -2.198069e+00 -1.933738e+00 5.916342e-01 -5.604402e-02 -3.310001e-01 -1.710742e-01 4.096402e-01 4.953199e-01 5.067761e-01 3.421278e-01 4.161903e-01 2.605441e-01 1.958011e-01 1.766748e-01 3.756530e-01 2.296894e-01 -1.380547e-01 -2.392389e-01 3.867904e-01 1.121200e+00 9.986833e-01 -5.523460e-02 -1.122521e+00 -1.256720e+00 -6.204299e-01 1.487642e-01 3.471452e-01 -2.427159e-03 -7.888810e-01 -1.465702e+00 -1.665471e+00 -1.121469e+00 -4.126767e-01 2.318690e-02 -8.385884e-02 -3.471085e-01 -5.248867e-01 -4.014496e-01 -1.428379e-01 8.073973e-02 -7.033047e-02 -3.867856e-01 -3.788844e-01 1.539370e-01 7.623040e-01 8.492873e-01 2.970309e-01 -4.129797e-01 -7.968485e-01 -5.833158e-01 1.104426e-01 5.785345e-01 4.240688e-01 -9.637767e-02 -3.947529e-01 -3.427001e-01 -4.504775e-02 3.267936e-01 5.874062e-01 5.412738e-01 3.680662e-01 3.390060e-01 4.177451e-01 4.633420e-01 4.549396e-01 4.360144e-01 4.413428e-01 6.624518e-01 1.096617e+00 1.491151e+00 1.494446e+00 1.262492e+00 1.010162e+00 1.067602e+00 1.487240e+00 2.109772e+00 2.344173e+00 2.004041e+00 1.248874e+00 6.744343e-01 7.117224e-01 1.241780e+00 1.682549e+00 1.514633e+00 9.001805e-01 1.770124e-01 2.533423e-02 3.025197e-01 9.950529e-01 1.258508e+00 1.124655e+00 3.796546e-01 8.326647e-02 1.740810e-01 1.052559e+00 1.496675e+00 1.537758e+00 7.573251e-01 2.186041e-01 1.720286e-02 6.672325e-01 1.132860e+00 1.455212e+00 2.011118e+00 3.839541e-01 0 0 0 0 
0 0 0 0 0 0 0 0 0 0 0 0 0 0 0 0 0 0 0 0 0 0 0 0 0 0 0 0 0 0 0 0 0 0 0 0 0 0 0 0 0 0 0 0 0 0 0 0 0 0 0 0 0 0 0 0 0 0 0 0 0 0 0 0 0 0 0 0 0 0 0 0 0 0 0 0 0 0 0 0 0 0 0 0 0 0 0 0 0 0 0 0 0 0 0 0 0 0 0 0 0 0 0 0 0 0 0 0 0 0 0 0 0 0 0 0 0 0 0 0 0 0 0 0 0 0 0 0 
