# vtk DataFile Version 2.0
Comment goes here
ASCII

DATASET STRUCTURED_POINTS
FIELD FieldData 1
TIME 1 1 double
0.41000000
DIMENSIONS    128   16   1

ORIGIN    0.000   0.000   0.000
SPACING   0.0078125 0.015625   1.000

POINT_DATA   2048
SCALARS fX double
LOOKUP_TABLE default

0 0 0 0 0 0 0 0 0 0 0 0 0 0 0 0 0 0 0 0 0 0 0 0 0 0 0 0 0 0 0 0 0 0 0 0 0 0 0 0 0 0 0 0 0 0 0 0 0 0 0 0 0 0 0 0 0 0 0 0 0 0 0 0 0 0 0 0 0 0 0 0 0 0 0 0 0 0 0 0 0 0 0 0 0 0 0 0 0 0 0 0 0 0 0 0 0 0 0 0 0 0 0 0 0 0 0 0 0 0 0 0 0 0 0 0 0 0 0 0 0 0 0 0 0 0 0 0 
0 0 0 0 0 0 0 0 0 0 0 0 0 0 0 0 0 0 0 0 0 0 0 0 0 0 0 0 0 0 0 0 0 0 0 0 0 0 0 0 0 0 0 0 0 0 0 0 0 0 0 0 0 0 0 0 0 0 0 0 0 0 0 0 0 0 0 0 0 0 0 0 0 0 0 0 0 0 0 0 0 0 0 0 0 0 0 0 0 0 0 0 0 0 0 0 0 0 0 0 0 0 0 0 0 0 0 0 0 0 0 0 0 0 0 0 0 0 0 0 0 0 0 0 0 0 0 0 
0 0 0 0 0 -1.130623e+00 -2.563806e+00 -6.311700e-01 -7.861885e-01 -8.663942e-01 -8.454244e-01 -8.687650e-01 6.691439e-01 4.359877e+00 5.933042e+00 4.634475e+00 5.202398e+00 5.130599e+00 4.619806e+00 5.737970e+00 4.738203e+00 1.093699e-01 -8.353430e-01 -9.512598e-01 -8.911819e-01 -9.795626e-01 -9.388456e-01 -1.004851e+00 -9.676327e-01 -9.971487e-01 -9.742230e-01 -9.931262e-01 -1.001090e+00 -1.006681e+00 -1.023373e+00 -1.001882e+00 -1.022976e+00 -9.912955e-01 -1.028254e+00 -9.934262e-01 -1.031591e+00 -9.813792e-01 -1.013538e+00 -9.601162e-01 -9.984151e-01 -9.497403e-01 -9.905291e-01 -9.373733e-01 -9.720033e-01 -9.159822e-01 -9.531314e-01 -9.024730e-01 -9.374061e-01 -8.815501e-01 -8.998519e-01 -1.008944e+00 -2.024856e+00 -3.809023e+00 -2.195921e+00 4.777505e+00 6.255395e+00 -5.229423e-01 -4.406984e+00 -4.351375e+00 6.333562e-01 7.046744e+00 3.362943e+00 -3.009764e+00 -4.318626e+00 -3.953365e+00 5.366722e-01 3.620553e+00 1.276204e+00 -6.055409e-01 -6.657956e-01 -6.566482e-01 -6.270162e-01 -6.122182e-01 -6.026599e-01 -6.069871e-01 -6.357759e-01 -6.542368e-01 -6.882762e-01 -6.923838e-01 -7.234360e-01 -7.288132e-01 -7.773755e-01 -7.881955e-01 -8.341965e-01 -8.231628e-01 -8.524018e-01 -8.292789e-01 -8.628304e-01 -8.403710e-01 -8.749586e-01 -8.469655e-01 -8.775135e-01 -8.491770e-01 -8.762112e-01 -8.526335e-01 -8.697717e-01 -8.530126e-01 -8.542048e-01 -8.517958e-01 -8.342835e-01 -8.551510e-01 -8.171914e-01 -8.699752e-01 -8.089470e-01 -8.974089e-01 -8.094394e-01 -9.347077e-01 -8.221659e-01 -9.886474e-01 -8.576404e-01 -1.055489e+00 -8.905165e-01 -1.096353e+00 -8.824409e-01 -1.134631e+00 -6.932265e-01 -1.518972e+00 -2.364340e+00 -1.707662e-01 0 0 0 0 
0 0 0 0 0 -3.326652e+00 -7.548840e+00 -1.866125e+00 -2.315684e+00 -2.549038e+00 -2.487861e+00 -2.557108e+00 1.965921e+00 1.282038e+01 1.744779e+01 1.362829e+01 1.529835e+01 1.508648e+01 1.358397e+01 1.687126e+01 1.393151e+01 3.216020e-01 -2.456005e+00 -2.796921e+00 -2.620355e+00 -2.880231e+00 -2.760514e+00 -2.954551e+00 -2.845095e+00 -2.931839e+00 -2.864402e+00 -2.919968e+00 -2.943363e+00 -2.959796e+00 -3.008867e+00 -2.945673e+00 -3.007698e+00 -2.914570e+00 -3.023257e+00 -2.920896e+00 -3.033138e+00 -2.885536e+00 -2.980115e+00 -2.823064e+00 -2.935695e+00 -2.792601e+00 -2.912551e+00 -2.756272e+00 -2.858105e+00 -2.693386e+00 -2.802618e+00 -2.653660e+00 -2.756375e+00 -2.592135e+00 -2.645961e+00 -2.966750e+00 -5.994944e+00 -1.169983e+01 -8.505740e+00 1.015363e+01 1.452537e+01 -3.668025e+00 -1.359487e+01 -1.362175e+01 -7.989486e-01 1.660250e+01 6.305269e+00 -1.048061e+01 -1.317158e+01 -1.289776e+01 -6.765402e-01 9.383994e+00 3.684088e+00 -1.780725e+00 -1.957906e+00 -1.931007e+00 -1.843867e+00 -1.800354e+00 -1.772248e+00 -1.784977e+00 -1.869643e+00 -1.923939e+00 -2.024048e+00 -2.036139e+00 -2.127465e+00 -2.143294e+00 -2.286117e+00 -2.317954e+00 -2.453242e+00 -2.420806e+00 -2.506793e+00 -2.438796e+00 -2.537460e+00 -2.471409e+00 -2.573121e+00 -2.490791e+00 -2.580625e+00 -2.497280e+00 -2.576778e+00 -2.507429e+00 -2.557835e+00 -2.508554e+00 -2.512095e+00 -2.505033e+00 -2.453582e+00 -2.514982e+00 -2.403387e+00 -2.558641e+00 -2.379180e+00 -2.639332e+00 -2.380586e+00 -2.748933e+00 -2.417829e+00 -2.907296e+00 -2.521785e+00 -3.103403e+00 -2.617868e+00 -3.222817e+00 -2.592949e+00 -3.333357e+00 -2.032965e+00 -4.463037e+00 -6.952910e+00 -5.022298e-01 0 0 0 0 
0 0 0 0 0 -2.298536e+00 -5.218411e+00 -1.293762e+00 -1.601207e+00 -1.761166e+00 -1.719149e+00 -1.767271e+00 1.356933e+00 4.755985e+01 6.643349e+01 5.320541e+01 5.645586e+01 5.822635e+01 5.093385e+01 6.631846e+01 4.854241e+01 2.221131e-01 -1.696075e+00 -1.931557e+00 -1.809658e+00 -1.989138e+00 -1.906461e+00 -2.040447e+00 -1.964843e+00 -2.024730e+00 -1.978143e+00 -2.016510e+00 -2.032657e+00 -2.044003e+00 -2.077888e+00 -2.034243e+00 -2.077080e+00 -2.012775e+00 -2.087844e+00 -2.017174e+00 -2.094702e+00 -1.992783e+00 -2.058112e+00 -1.949662e+00 -2.027457e+00 -1.928645e+00 -2.011494e+00 -1.903573e+00 -1.973906e+00 -1.860148e+00 -1.935586e+00 -1.832710e+00 -1.903648e+00 -1.790218e+00 -1.827397e+00 -2.048950e+00 -4.174305e+00 -8.437155e+00 -7.218256e+00 4.580668e+00 7.715021e+00 -3.763290e+00 -9.759896e+00 -9.929624e+00 -2.195877e+00 8.977262e+00 2.225938e+00 -8.223772e+00 -9.394216e+00 -9.690258e+00 -1.866713e+00 5.701556e+00 2.502359e+00 -1.229916e+00 -1.352286e+00 -1.333707e+00 -1.273521e+00 -1.243469e+00 -1.224058e+00 -1.232852e+00 -1.291332e+00 -1.328837e+00 -1.397984e+00 -1.406341e+00 -1.469424e+00 -1.480364e+00 -1.579016e+00 -1.601014e+00 -1.694462e+00 -1.672064e+00 -1.731455e+00 -1.684491e+00 -1.752636e+00 -1.707014e+00 -1.777264e+00 -1.720396e+00 -1.782443e+00 -1.724871e+00 -1.779777e+00 -1.731873e+00 -1.766691e+00 -1.732654e+00 -1.735117e+00 -1.730250e+00 -1.694737e+00 -1.737162e+00 -1.660101e+00 -1.767348e+00 -1.643400e+00 -1.823087e+00 -1.644352e+00 -1.898746e+00 -1.669985e+00 -2.008000e+00 -1.741609e+00 -2.143226e+00 -1.807684e+00 -2.225337e+00 -1.789905e+00 -2.300704e+00 -1.401409e+00 -3.080684e+00 -4.802277e+00 -3.469077e-01 0 0 0 0 
0 0 0 0 0 -1.025069e-01 -2.333765e-01 -5.880685e-02 -7.171180e-02 -7.852134e-02 -7.671185e-02 -7.892813e-02 6.015641e-02 5.346734e+01 5.843748e+01 5.475930e+01 5.635686e+01 5.644383e+01 5.451336e+01 5.805125e+01 5.353587e+01 9.881025e-03 -7.541312e-02 -8.589655e-02 -8.048519e-02 -8.846875e-02 -8.479212e-02 -9.074634e-02 -8.738093e-02 -9.003925e-02 -8.796383e-02 -8.966831e-02 -9.038390e-02 -9.088777e-02 -9.239382e-02 -9.045208e-02 -9.235763e-02 -8.950034e-02 -9.284116e-02 -8.970355e-02 -9.315479e-02 -8.862631e-02 -9.153455e-02 -8.671443e-02 -9.017681e-02 -8.578521e-02 -8.947216e-02 -8.467429e-02 -8.780366e-02 -8.274431e-02 -8.609961e-02 -8.152334e-02 -8.467852e-02 -7.963298e-02 -8.128801e-02 -9.114455e-02 -2.072814e-01 -5.655774e-01 -9.403421e-01 -8.103657e-01 -5.646393e-01 -6.312828e-01 -5.780791e-01 -6.695404e-01 -7.695744e-01 -5.824741e-01 -7.355228e-01 -7.765382e-01 -5.539148e-01 -7.459247e-01 -6.505181e-01 -6.222849e-02 9.448444e-02 -5.473101e-02 -6.017508e-02 -5.934843e-02 -5.667011e-02 -5.533327e-02 -5.446977e-02 -5.486160e-02 -5.746469e-02 -5.913458e-02 -6.221261e-02 -6.258593e-02 -6.539444e-02 -6.588324e-02 -7.027504e-02 -7.125624e-02 -7.541613e-02 -7.442074e-02 -7.706405e-02 -7.497428e-02 -7.800658e-02 -7.597584e-02 -7.910190e-02 -7.657007e-02 -7.933130e-02 -7.676749e-02 -7.921052e-02 -7.707714e-02 -7.862738e-02 -7.711304e-02 -7.722701e-02 -7.701320e-02 -7.543870e-02 -7.733086e-02 -7.390577e-02 -7.868218e-02 -7.316718e-02 -8.116457e-02 -7.320449e-02 -8.452096e-02 -7.432268e-02 -8.935105e-02 -7.746510e-02 -9.531241e-02 -8.033202e-02 -9.887326e-02 -7.939678e-02 -1.019779e-01 -6.167077e-02 -1.366182e-01 -2.137068e-01 -1.544404e-02 0 0 0 0 
0 0 0 0 0 0 0 0 0 0 0 0 0 5.856002e+01 6.390840e+01 6.000910e+01 6.157804e+01 6.197086e+01 5.949987e+01 6.387145e+01 5.834327e+01 0 0 0 0 0 0 0 0 0 0 0 0 0 0 0 0 0 0 0 0 0 0 0 0 0 0 0 0 0 0 0 0 0 0 0 -2.420375e-03 -1.527368e-02 -2.411888e-02 -8.293198e-03 -1.269320e-02 -2.324144e-02 -1.118748e-02 -6.962052e-03 1.956268e-05 -5.465698e-03 -3.234052e-02 -3.675159e-02 -1.673584e-02 5.332127e-03 1.087919e-02 2.184053e-03 1.260752e-04 0 0 0 0 0 0 0 0 0 0 0 0 0 0 0 0 0 0 0 0 0 0 0 0 0 0 0 0 0 0 0 0 0 0 0 0 0 0 0 0 0 0 0 0 0 0 0 0 0 0 0 0 0 0 0 
0 0 0 0 0 0 0 0 0 0 0 0 0 5.763780e+01 5.971803e+01 5.792007e+01 5.873273e+01 5.861321e+01 5.796383e+01 5.946458e+01 5.767582e+01 0 0 0 0 0 0 0 0 0 0 0 0 0 0 0 0 0 0 0 0 0 0 0 0 0 0 0 0 0 0 0 0 0 0 0 6.445733e-04 3.959717e-03 7.786329e-03 6.612356e-03 -3.010575e-03 -1.016655e-02 -5.123176e-03 3.331270e-03 6.021671e-03 -1.482480e-03 -1.320596e-02 -1.313799e-02 -4.083754e-03 5.399200e-03 7.896925e-03 2.527556e-03 1.170445e-04 0 0 0 0 0 0 0 0 0 0 0 0 0 0 0 0 0 0 0 0 0 0 0 0 0 0 0 0 0 0 0 0 0 0 0 0 0 0 0 0 0 0 0 0 0 0 0 0 0 0 0 0 0 0 0 
0 0 0 0 0 0 0 0 0 0 0 0 0 6.118862e+01 6.389830e+01 6.177253e+01 6.261450e+01 6.285595e+01 6.147015e+01 6.399281e+01 6.092538e+01 0 0 0 0 0 0 0 0 0 0 0 0 0 0 0 0 0 0 0 0 0 0 0 0 0 0 0 0 0 0 0 0 0 0 0 0 0 0 0 0 0 0 0 0 0 0 0 0 0 0 0 0 0 0 0 0 0 0 0 0 0 0 0 0 0 0 0 0 0 0 0 0 0 0 0 0 0 0 0 0 0 0 0 0 0 0 0 0 0 0 0 0 0 0 0 0 0 0 0 0 0 0 0 0 0 0 0 
0 0 0 0 0 0 0 0 0 0 0 0 0 5.764186e+01 5.971261e+01 5.793803e+01 5.874211e+01 5.864995e+01 5.799107e+01 5.952163e+01 5.771733e+01 0 0 0 0 0 0 0 0 0 0 0 0 0 0 0 0 0 0 0 0 0 0 0 0 0 0 0 0 0 0 0 0 0 0 0 0 0 0 0 0 0 0 0 0 0 0 0 0 0 0 0 0 0 0 0 0 0 0 0 0 0 0 0 0 0 0 0 0 0 0 0 0 0 0 0 0 0 0 0 0 0 0 0 0 0 0 0 0 0 0 0 0 0 0 0 0 0 0 0 0 0 0 0 0 0 0 0 
0 0 0 0 0 0 0 0 0 0 0 0 0 5.857052e+01 6.390048e+01 6.004409e+01 6.159850e+01 6.203256e+01 5.954778e+01 6.396834e+01 5.841903e+01 0 0 0 0 0 0 0 0 0 0 0 0 0 0 0 0 0 0 0 0 0 0 0 0 0 0 0 0 0 0 0 0 0 0 0 0 0 0 0 0 0 0 0 0 0 0 0 0 0 0 0 0 0 0 0 0 0 0 0 0 0 0 0 0 0 0 0 0 0 0 0 0 0 0 0 0 0 0 0 0 0 0 0 0 0 0 0 0 0 0 0 0 0 0 0 0 0 0 0 0 0 0 0 0 0 0 0 
0 0 0 0 0 -1.027552e-01 -2.333375e-01 -5.868846e-02 -7.139587e-02 -7.785683e-02 -7.589964e-02 -7.794106e-02 6.110458e-02 5.345636e+01 5.839133e+01 5.479391e+01 5.637245e+01 5.654697e+01 5.460794e+01 5.824729e+01 5.370443e+01 1.365024e-02 -7.170086e-02 -8.266628e-02 -7.759336e-02 -8.458055e-02 -7.969715e-02 -8.524866e-02 -8.316299e-02 -8.743045e-02 -8.613482e-02 -8.697742e-02 -8.626686e-02 -8.593460e-02 -8.790128e-02 -8.708405e-02 -8.985247e-02 -8.666041e-02 -8.913154e-02 -8.531778e-02 -8.964774e-02 -8.687078e-02 -9.142532e-02 -8.706528e-02 -8.962627e-02 -8.478128e-02 -8.778025e-02 -8.450934e-02 -8.732607e-02 -8.385440e-02 -8.530956e-02 -8.249673e-02 -8.436837e-02 -8.324479e-02 -8.467301e-02 -8.308597e-02 -8.239616e-02 -8.040851e-02 -7.861905e-02 -7.595262e-02 -7.425354e-02 -7.528648e-02 -7.267858e-02 -7.068772e-02 -6.572838e-02 -6.324876e-02 -6.234826e-02 -6.520799e-02 -6.348608e-02 -6.459984e-02 -6.171228e-02 -6.234961e-02 -6.321695e-02 -6.530090e-02 -6.569445e-02 -6.677179e-02 -6.768466e-02 -6.909673e-02 -7.062700e-02 -7.092296e-02 -7.117856e-02 -6.964364e-02 -6.959805e-02 -6.830558e-02 -6.967801e-02 -6.893809e-02 -7.077109e-02 -6.931904e-02 -7.101007e-02 -6.919221e-02 -7.177049e-02 -7.062994e-02 -7.438690e-02 -7.340220e-02 -7.710968e-02 -7.556138e-02 -7.896426e-02 -7.780411e-02 -8.141988e-02 -8.111874e-02 -8.389186e-02 -8.407722e-02 -8.548094e-02 -8.736025e-02 -8.756978e-02 -9.128740e-02 -8.851239e-02 -9.330022e-02 -8.691164e-02 -9.375768e-02 -8.423303e-02 -9.349525e-02 -8.045825e-02 -9.156285e-02 -7.523618e-02 -8.878087e-02 -7.087074e-02 -8.776696e-02 -6.778533e-02 -8.994106e-02 -4.979562e-02 -1.272920e-01 -2.101346e-01 -1.519211e-02 0 0 0 0 
0 0 0 0 0 -2.304107e+00 -5.217454e+00 -1.290963e+00 -1.594062e+00 -1.746249e+00 -1.700913e+00 -1.745122e+00 1.378206e+00 4.759093e+01 6.649092e+01 5.327331e+01 5.649331e+01 5.828985e+01 5.098495e+01 6.631553e+01 4.866945e+01 3.068143e-01 -1.612655e+00 -1.858979e+00 -1.744682e+00 -1.901746e+00 -1.791916e+00 -1.916800e+00 -1.869967e+00 -1.966025e+00 -1.936973e+00 -1.956020e+00 -1.940102e+00 -1.932651e+00 -1.976890e+00 -1.958460e+00 -2.020683e+00 -1.948855e+00 -2.004375e+00 -1.918562e+00 -2.015862e+00 -1.953323e+00 -2.055659e+00 -1.957527e+00 -2.015048e+00 -1.906046e+00 -1.973430e+00 -1.899850e+00 -1.963161e+00 -1.885102e+00 -1.917820e+00 -1.854573e+00 -1.896632e+00 -1.871337e+00 -1.903398e+00 -1.867686e+00 -1.852146e+00 -1.807450e+00 -1.767208e+00 -1.707259e+00 -1.669032e+00 -1.692217e+00 -1.633554e+00 -1.588783e+00 -1.477290e+00 -1.421551e+00 -1.401299e+00 -1.465568e+00 -1.426844e+00 -1.451854e+00 -1.386921e+00 -1.401206e+00 -1.420665e+00 -1.467479e+00 -1.476309e+00 -1.500520e+00 -1.521031e+00 -1.552769e+00 -1.587151e+00 -1.593788e+00 -1.599507e+00 -1.564969e+00 -1.563905e+00 -1.534810e+00 -1.565614e+00 -1.548949e+00 -1.590117e+00 -1.557459e+00 -1.595442e+00 -1.554572e+00 -1.612501e+00 -1.586870e+00 -1.671304e+00 -1.649195e+00 -1.732525e+00 -1.697767e+00 -1.774254e+00 -1.748216e+00 -1.829457e+00 -1.822694e+00 -1.884949e+00 -1.889085e+00 -1.920535e+00 -1.962691e+00 -1.967265e+00 -2.050692e+00 -1.988195e+00 -2.095684e+00 -1.952096e+00 -2.105928e+00 -1.892083e+00 -2.100381e+00 -1.807864e+00 -2.057739e+00 -1.691612e+00 -1.996516e+00 -1.595202e+00 -1.975882e+00 -1.529128e+00 -2.030421e+00 -1.134722e+00 -2.871299e+00 -4.722091e+00 -3.412517e-01 0 0 0 0 
0 0 0 0 0 -3.334716e+00 -7.547434e+00 -1.862037e+00 -2.305327e+00 -2.527446e+00 -2.461464e+00 -2.525048e+00 1.996711e+00 1.284308e+01 1.744285e+01 1.361712e+01 1.524769e+01 1.505013e+01 1.355066e+01 1.687387e+01 1.400511e+01 4.442360e-01 -2.335226e+00 -2.691842e+00 -2.526282e+00 -2.753698e+00 -2.594658e+00 -2.775504e+00 -2.707707e+00 -2.846823e+00 -2.804777e+00 -2.832382e+00 -2.809349e+00 -2.798565e+00 -2.862626e+00 -2.835926e+00 -2.926019e+00 -2.821998e+00 -2.902379e+00 -2.778108e+00 -2.918983e+00 -2.828402e+00 -2.976564e+00 -2.834446e+00 -2.917720e+00 -2.759870e+00 -2.857430e+00 -2.750877e+00 -2.842545e+00 -2.729517e+00 -2.776892e+00 -2.685311e+00 -2.746206e+00 -2.709570e+00 -2.755982e+00 -2.704264e+00 -2.681755e+00 -2.617035e+00 -2.558763e+00 -2.471959e+00 -2.416601e+00 -2.450161e+00 -2.365213e+00 -2.300383e+00 -2.138946e+00 -2.058241e+00 -2.028914e+00 -2.121967e+00 -2.065894e+00 -2.102099e+00 -2.008075e+00 -2.028750e+00 -2.056914e+00 -2.124689e+00 -2.137471e+00 -2.172525e+00 -2.202221e+00 -2.248174e+00 -2.297952e+00 -2.307558e+00 -2.315832e+00 -2.265815e+00 -2.264264e+00 -2.222126e+00 -2.266716e+00 -2.242579e+00 -2.302177e+00 -2.254886e+00 -2.309875e+00 -2.250697e+00 -2.334566e+00 -2.297457e+00 -2.419707e+00 -2.387700e+00 -2.508354e+00 -2.458037e+00 -2.568783e+00 -2.531093e+00 -2.648714e+00 -2.638923e+00 -2.729044e+00 -2.735024e+00 -2.780535e+00 -2.841550e+00 -2.848139e+00 -2.968899e+00 -2.878379e+00 -3.033980e+00 -2.826080e+00 -3.048802e+00 -2.739236e+00 -3.040861e+00 -2.617455e+00 -2.979320e+00 -2.449419e+00 -2.891006e+00 -2.310262e+00 -2.861677e+00 -2.215423e+00 -2.942083e+00 -1.646888e+00 -4.159930e+00 -6.836836e+00 -4.940423e-01 0 0 0 0 
0 0 0 0 0 -1.133365e+00 -2.563318e+00 -6.297629e-01 -7.826609e-01 -8.590535e-01 -8.364497e-01 -8.578669e-01 6.796097e-01 4.367593e+00 5.931363e+00 4.630674e+00 5.185170e+00 5.118237e+00 4.608479e+00 5.738861e+00 4.763235e+00 1.510719e-01 -7.942717e-01 -9.155290e-01 -8.591930e-01 -9.365324e-01 -8.824392e-01 -9.439525e-01 -9.209024e-01 -9.682291e-01 -9.539391e-01 -9.633400e-01 -9.555137e-01 -9.518484e-01 -9.736379e-01 -9.645503e-01 -9.951880e-01 -9.598035e-01 -9.871361e-01 -9.448638e-01 -9.927684e-01 -9.619494e-01 -1.012331e+00 -9.639843e-01 -9.922982e-01 -9.386054e-01 -9.717798e-01 -9.355369e-01 -9.667105e-01 -9.282694e-01 -9.443819e-01 -9.132349e-01 -9.339422e-01 -9.214785e-01 -9.372570e-01 -9.196641e-01 -9.120049e-01 -8.899933e-01 -8.701741e-01 -8.406526e-01 -8.218221e-01 -8.332312e-01 -8.043370e-01 -7.822874e-01 -7.273845e-01 -6.999385e-01 -6.899639e-01 -7.216074e-01 -7.025362e-01 -7.148455e-01 -6.828669e-01 -6.898929e-01 -6.994663e-01 -7.225113e-01 -7.268561e-01 -7.387765e-01 -7.488744e-01 -7.645016e-01 -7.814279e-01 -7.846927e-01 -7.875035e-01 -7.704895e-01 -7.699571e-01 -7.556217e-01 -7.707801e-01 -7.625674e-01 -7.828312e-01 -7.667465e-01 -7.854434e-01 -7.653171e-01 -7.938360e-01 -7.812170e-01 -8.227892e-01 -8.119074e-01 -8.529381e-01 -8.358322e-01 -8.734939e-01 -8.606811e-01 -9.006770e-01 -8.973482e-01 -9.279863e-01 -9.300164e-01 -9.454810e-01 -9.662198e-01 -9.684438e-01 -1.009495e+00 -9.786959e-01 -1.031596e+00 -9.608960e-01 -1.036632e+00 -9.313866e-01 -1.033974e+00 -8.900492e-01 -1.013144e+00 -8.330433e-01 -9.832713e-01 -7.859304e-01 -9.735623e-01 -7.540812e-01 -1.001603e+00 -5.619610e-01 -1.415923e+00 -2.324879e+00 -1.679826e-01 0 0 0 0 
0 0 0 0 0 0 0 0 0 0 0 0 0 0 0 0 0 0 0 0 0 0 0 0 0 0 0 0 0 0 0 0 0 0 0 0 0 0 0 0 0 0 0 0 0 0 0 0 0 0 0 0 0 0 0 0 0 0 0 0 0 0 0 0 0 0 0 0 0 0 0 0 0 0 0 0 0 0 0 0 0 0 0 0 0 0 0 0 0 0 0 0 0 0 0 0 0 0 0 0 0 0 0 0 0 0 0 0 0 0 0 0 0 0 0 0 0 0 0 0 0 0 0 0 0 0 0 0 
