# vtk DataFile Version 2.0
Comment goes here
ASCII

DATASET STRUCTURED_POINTS
FIELD FieldData 1
TIME 1 1 double
0.53000000
DIMENSIONS    128   16   1

ORIGIN    0.000   0.000   0.000
SPACING   0.0078125 0.015625   1.000

POINT_DATA   2048
SCALARS fX double
LOOKUP_TABLE default

0 0 0 0 0 0 0 0 0 0 0 0 0 0 0 0 0 0 0 0 0 0 0 0 0 0 0 0 0 0 0 0 0 0 0 0 0 0 0 0 0 0 0 0 0 0 0 0 0 0 0 0 0 0 0 0 0 0 0 0 0 0 0 0 0 0 0 0 0 0 0 0 0 0 0 0 0 0 0 0 0 0 0 0 0 0 0 0 0 0 0 0 0 0 0 0 0 0 0 0 0 0 0 0 0 0 0 0 0 0 0 0 0 0 0 0 0 0 0 0 0 0 0 0 0 0 0 0 
0 0 0 0 0 0 0 0 0 0 0 0 0 0 0 0 0 0 0 0 0 0 0 0 0 0 0 0 0 0 0 0 0 0 0 0 0 0 0 0 0 0 0 0 0 0 0 0 0 0 0 0 0 0 0 0 0 0 0 0 0 0 0 0 0 0 0 0 0 0 0 0 0 0 0 0 0 0 0 0 0 0 0 0 0 0 0 0 0 0 0 0 0 0 0 0 0 0 0 0 0 0 0 0 0 0 0 0 0 0 0 0 0 0 0 0 0 0 0 0 0 0 0 0 0 0 0 0 
0 0 0 0 0 -1.690138e+00 4.074595e-01 1.188260e+00 -1.548973e-01 3.433666e-01 -5.566097e-02 2.608378e-01 -6.431203e-01 -9.712855e-01 -1.157252e+00 -1.116678e+00 -1.804012e+00 -1.145135e+00 -1.691517e+00 -1.350177e+00 -5.088121e-01 -5.695129e-01 2.283050e-01 1.032545e-01 2.050878e-01 9.712745e-02 1.887615e-01 8.398006e-02 1.662314e-01 6.958829e-02 1.457656e-01 6.326253e-02 1.330766e-01 6.664807e-02 1.269654e-01 7.740610e-02 1.266647e-01 9.523578e-02 1.304518e-01 1.142681e-01 1.313790e-01 1.267424e-01 1.261556e-01 1.331471e-01 1.196173e-01 1.370403e-01 1.140236e-01 1.372264e-01 1.069344e-01 1.333775e-01 9.993906e-02 1.285176e-01 9.416719e-02 1.204167e-01 8.522712e-02 3.576250e-01 1.615273e+00 1.312126e+00 -1.540974e+00 2.509331e+00 6.239071e+00 4.984613e-01 -1.293325e+00 -2.004464e+00 -4.206920e-01 6.783440e+00 3.995772e+00 -1.673692e+00 -2.580229e+00 -2.988925e+00 -4.843897e-01 2.082626e+00 1.262450e+00 1.432894e-01 8.069392e-02 4.850722e-02 5.798990e-02 2.886802e-02 4.195736e-02 2.107865e-02 4.054560e-02 3.110488e-02 5.609726e-02 5.685668e-02 8.346332e-02 9.169852e-02 1.146877e-01 1.278485e-01 1.449317e-01 1.582014e-01 1.690156e-01 1.775732e-01 1.840427e-01 1.876877e-01 1.957699e-01 1.935389e-01 2.077015e-01 1.960227e-01 2.201768e-01 1.974656e-01 2.345256e-01 1.972466e-01 2.458178e-01 1.903715e-01 2.492477e-01 1.771061e-01 2.464587e-01 1.629711e-01 2.406805e-01 1.531496e-01 2.337700e-01 1.520165e-01 2.284895e-01 1.649141e-01 2.251122e-01 1.879360e-01 2.147302e-01 2.109902e-01 1.963202e-01 2.312535e-01 2.634679e-01 6.083358e-01 -2.477168e-01 -1.674638e-01 0 0 0 0 
0 0 0 0 0 -4.971709e+00 1.190289e+00 3.481147e+00 -4.638297e-01 1.007093e+00 -1.649909e-01 7.666029e-01 -1.891739e+00 -2.856812e+00 -3.403762e+00 -3.284426e+00 -5.306212e+00 -3.368188e+00 -4.975321e+00 -3.971082e+00 -1.496186e+00 -1.674701e+00 6.720000e-01 3.040953e-01 6.035712e-01 2.859470e-01 5.554291e-01 2.471651e-01 4.890603e-01 2.047492e-01 4.287954e-01 1.860966e-01 3.914427e-01 1.960458e-01 3.734729e-01 2.277069e-01 3.726129e-01 2.801802e-01 3.837779e-01 3.361860e-01 3.865211e-01 3.728861e-01 3.711583e-01 3.917184e-01 3.519117e-01 4.031516e-01 3.354366e-01 4.036749e-01 3.145619e-01 3.923333e-01 2.939675e-01 3.780240e-01 2.769802e-01 3.541877e-01 2.506787e-01 1.051900e+00 4.796522e+00 4.111465e+00 -4.874492e+00 4.096234e+00 1.323255e+01 -1.608912e+00 -4.554710e+00 -6.008039e+00 -3.109531e+00 1.458693e+01 6.362798e+00 -7.378804e+00 -8.376006e+00 -9.591550e+00 -3.000747e+00 5.115110e+00 3.652090e+00 4.213931e-01 2.372976e-01 1.426366e-01 1.705372e-01 8.488569e-02 1.233942e-01 6.198758e-02 1.192521e-01 9.148776e-02 1.650020e-01 1.672378e-01 2.454981e-01 2.697215e-01 3.373398e-01 3.760509e-01 4.262973e-01 4.653287e-01 4.971357e-01 5.223065e-01 5.413341e-01 5.520537e-01 5.758242e-01 5.692589e-01 6.109140e-01 5.765606e-01 6.476082e-01 5.808115e-01 6.898312e-01 5.801998e-01 7.230949e-01 5.600510e-01 7.332798e-01 5.211588e-01 7.252267e-01 4.797560e-01 7.084187e-01 4.510575e-01 6.882682e-01 4.478709e-01 6.728316e-01 4.858339e-01 6.628364e-01 5.533864e-01 6.320191e-01 6.208031e-01 5.774557e-01 6.804944e-01 7.790461e-01 1.796329e+00 -7.251851e-01 -4.924065e-01 0 0 0 0 
0 0 0 0 0 -3.434593e+00 8.182653e-01 2.397973e+00 -3.243918e-01 6.942959e-01 -1.145901e-01 5.292621e-01 -1.306835e+00 -9.005514e+00 -7.315373e+00 -1.066638e+01 -1.568461e+01 -1.092995e+01 -1.500166e+01 -1.114279e+01 -4.014886e+00 -1.156650e+00 4.644386e-01 2.102527e-01 4.171017e-01 1.976548e-01 3.837873e-01 1.708111e-01 3.378922e-01 1.414697e-01 2.962292e-01 1.285623e-01 2.704119e-01 1.354309e-01 2.580011e-01 1.573106e-01 2.574190e-01 1.935730e-01 2.651441e-01 2.322731e-01 2.670469e-01 2.576293e-01 2.564349e-01 2.706355e-01 2.431323e-01 2.785247e-01 2.317408e-01 2.788744e-01 2.173097e-01 2.710298e-01 2.030744e-01 2.611380e-01 1.913349e-01 2.446681e-01 1.731634e-01 7.266377e-01 3.320266e+00 2.836077e+00 -3.863717e+00 6.626620e-01 5.912941e+00 -3.049162e+00 -3.631556e+00 -4.414409e+00 -3.420384e+00 6.737555e+00 1.035070e+00 -6.594102e+00 -6.299988e+00 -7.166671e+00 -3.046279e+00 2.922919e+00 2.485297e+00 2.910581e-01 1.638970e-01 9.851193e-02 1.177896e-01 5.862563e-02 8.523073e-02 4.281431e-02 8.237442e-02 6.319724e-02 1.139813e-01 1.155268e-01 1.695883e-01 1.863219e-01 2.330313e-01 2.597726e-01 2.944815e-01 3.214441e-01 3.434154e-01 3.608029e-01 3.739462e-01 3.813504e-01 3.977697e-01 3.932330e-01 4.220067e-01 3.982749e-01 4.473546e-01 4.012147e-01 4.765305e-01 4.008078e-01 4.995326e-01 3.869250e-01 5.066149e-01 3.601197e-01 5.011247e-01 3.316031e-01 4.896050e-01 3.118707e-01 4.757704e-01 3.097403e-01 4.651532e-01 3.359776e-01 4.582188e-01 3.825630e-01 4.367949e-01 4.289426e-01 3.989029e-01 4.702202e-01 5.401392e-01 1.244273e+00 -4.992822e-01 -3.400687e-01 0 0 0 0 
0 0 0 0 0 -1.530220e-01 3.543614e-02 1.050859e-01 -1.545938e-02 3.056965e-02 -5.260185e-03 2.349697e-02 -5.821588e-02 -1.104063e+01 -1.215359e+01 -1.139214e+01 -1.247768e+01 -1.176417e+01 -1.198128e+01 -1.227199e+01 -1.057699e+01 -5.146133e-02 2.074365e-02 9.411953e-03 1.861829e-02 8.835304e-03 1.711968e-02 7.626097e-03 1.506328e-02 6.308865e-03 1.319936e-02 5.728296e-03 1.204582e-02 6.033126e-03 1.149371e-02 7.009804e-03 1.147082e-02 8.628552e-03 1.181804e-02 1.035527e-02 1.190476e-02 1.148566e-02 1.143225e-02 1.206419e-02 1.083792e-02 1.241334e-02 1.032784e-02 1.242595e-02 9.682273e-03 1.207401e-02 9.045989e-03 1.163164e-02 8.521879e-03 1.089705e-02 7.711854e-03 3.236296e-02 1.351950e-01 1.217148e-03 -6.103214e-01 -9.646512e-01 -1.116060e+00 -9.840565e-01 -3.775331e-01 -4.511033e-01 -7.553627e-01 -1.079971e+00 -1.350267e+00 -8.958749e-01 -5.110637e-01 -5.525146e-01 -5.181935e-01 -1.049802e-01 9.646552e-02 1.295441e-02 7.293329e-03 4.382588e-03 5.242257e-03 2.607964e-03 3.793906e-03 1.905376e-03 3.667966e-03 2.814365e-03 5.076542e-03 5.145636e-03 7.553530e-03 8.298912e-03 1.037914e-02 1.157022e-02 1.311592e-02 1.431686e-02 1.529527e-02 1.606964e-02 1.665485e-02 1.698441e-02 1.771545e-02 1.751301e-02 1.879427e-02 1.773706e-02 1.992322e-02 1.786884e-02 2.122489e-02 1.785469e-02 2.225544e-02 1.724543e-02 2.258274e-02 1.606705e-02 2.235669e-02 1.481828e-02 2.186675e-02 1.396282e-02 2.127220e-02 1.388593e-02 2.081105e-02 1.505777e-02 2.049463e-02 1.711256e-02 1.950598e-02 1.912975e-02 1.776749e-02 2.097924e-02 2.456096e-02 5.627947e-02 -2.181396e-02 -1.512594e-02 0 0 0 0 
0 0 0 0 0 0 0 0 0 0 0 0 0 -1.193549e+01 -1.269997e+01 -1.223266e+01 -1.313707e+01 -1.256535e+01 -1.269207e+01 -1.297746e+01 -1.137320e+01 0 0 0 0 0 0 0 0 0 0 0 0 0 0 0 0 0 0 0 0 0 0 0 0 0 0 0 0 0 0 0 0 0 0 0 -4.154630e-03 -3.812700e-02 -8.249457e-02 -3.802935e-02 -3.719841e-02 -4.841306e-02 -9.288273e-03 -3.882199e-02 -1.747877e-02 -1.169634e-02 -2.374986e-02 -1.089205e-02 -6.465723e-03 1.670322e-02 2.013078e-02 9.980421e-03 1.403316e-03 0 0 0 0 0 0 0 0 0 0 0 0 0 0 0 0 0 0 0 0 0 0 0 0 0 0 0 0 0 0 0 0 0 0 0 0 0 0 0 0 0 0 0 0 0 0 0 0 0 0 0 0 0 0 0 
0 0 0 0 0 0 0 0 0 0 0 0 0 -1.245027e+01 -1.297202e+01 -1.249356e+01 -1.282634e+01 -1.266950e+01 -1.262535e+01 -1.292760e+01 -1.244117e+01 0 0 0 0 0 0 0 0 0 0 0 0 0 0 0 0 0 0 0 0 0 0 0 0 0 0 0 0 0 0 0 0 0 0 0 -3.324123e-04 -2.605621e-03 -2.371651e-03 2.380348e-03 -1.679920e-03 -6.145758e-03 -1.926356e-03 1.447219e-03 6.338822e-03 2.339275e-03 -5.438282e-03 -4.007185e-03 3.864362e-04 5.171390e-03 8.402652e-03 5.395412e-03 5.957905e-04 0 0 0 0 0 0 0 0 0 0 0 0 0 0 0 0 0 0 0 0 0 0 0 0 0 0 0 0 0 0 0 0 0 0 0 0 0 0 0 0 0 0 0 0 0 0 0 0 0 0 0 0 0 0 0 
0 0 0 0 0 0 0 0 0 0 0 0 0 -1.272518e+01 -1.321803e+01 -1.279629e+01 -1.312587e+01 -1.300454e+01 -1.288363e+01 -1.328401e+01 -1.258831e+01 0 0 0 0 0 0 0 0 0 0 0 0 0 0 0 0 0 0 0 0 0 0 0 0 0 0 0 0 0 0 0 0 0 0 0 0 0 0 0 0 0 0 0 0 0 0 0 0 0 0 0 0 0 0 0 0 0 0 0 0 0 0 0 0 0 0 0 0 0 0 0 0 0 0 0 0 0 0 0 0 0 0 0 0 0 0 0 0 0 0 0 0 0 0 0 0 0 0 0 0 0 0 0 0 0 0 0 
0 0 0 0 0 0 0 0 0 0 0 0 0 -1.245599e+01 -1.297830e+01 -1.250446e+01 -1.283752e+01 -1.268735e+01 -1.264232e+01 -1.295260e+01 -1.246428e+01 0 0 0 0 0 0 0 0 0 0 0 0 0 0 0 0 0 0 0 0 0 0 0 0 0 0 0 0 0 0 0 0 0 0 0 0 0 0 0 0 0 0 0 0 0 0 0 0 0 0 0 0 0 0 0 0 0 0 0 0 0 0 0 0 0 0 0 0 0 0 0 0 0 0 0 0 0 0 0 0 0 0 0 0 0 0 0 0 0 0 0 0 0 0 0 0 0 0 0 0 0 0 0 0 0 0 0 
0 0 0 0 0 0 0 0 0 0 0 0 0 -1.193894e+01 -1.270738e+01 -1.224955e+01 -1.315426e+01 -1.259825e+01 -1.272653e+01 -1.302578e+01 -1.143694e+01 0 0 0 0 0 0 0 0 0 0 0 0 0 0 0 0 0 0 0 0 0 0 0 0 0 0 0 0 0 0 0 0 0 0 0 0 0 0 0 0 0 0 0 0 0 0 0 0 0 0 0 0 0 0 0 0 0 0 0 0 0 0 0 0 0 0 0 0 0 0 0 0 0 0 0 0 0 0 0 0 0 0 0 0 0 0 0 0 0 0 0 0 0 0 0 0 0 0 0 0 0 0 0 0 0 0 0 
0 0 0 0 0 -1.530108e-01 3.622634e-02 1.070775e-01 -1.330773e-02 3.300853e-02 -3.251604e-03 2.525752e-02 -5.741357e-02 -1.104204e+01 -1.216441e+01 -1.141741e+01 -1.250754e+01 -1.181709e+01 -1.203114e+01 -1.234901e+01 -1.065626e+01 -5.438087e-02 1.793809e-02 7.322013e-03 1.772418e-02 9.459540e-03 1.952358e-02 1.170531e-02 2.080356e-02 1.334794e-02 2.147553e-02 1.465231e-02 2.154098e-02 1.515974e-02 2.043506e-02 1.467293e-02 1.864497e-02 1.407232e-02 1.697931e-02 1.368571e-02 1.535742e-02 1.324764e-02 1.374395e-02 1.297521e-02 1.257079e-02 1.307830e-02 1.173363e-02 1.309335e-02 1.090030e-02 1.307730e-02 1.061434e-02 1.366133e-02 1.113897e-02 1.461535e-02 1.204183e-02 1.583289e-02 1.361826e-02 1.739560e-02 1.404520e-02 1.744119e-02 1.628710e-02 1.447171e-02 1.152437e-02 1.165606e-02 8.569100e-03 1.131388e-02 6.825733e-03 4.325195e-03 2.106812e-03 9.854759e-04 1.603645e-03 2.572165e-03 3.368740e-03 3.701130e-03 5.358872e-03 5.957035e-03 8.074407e-03 8.688142e-03 1.071569e-02 1.098243e-02 1.242038e-02 1.227725e-02 1.301926e-02 1.266037e-02 1.281988e-02 1.255231e-02 1.243225e-02 1.248857e-02 1.234663e-02 1.273649e-02 1.280018e-02 1.340522e-02 1.382667e-02 1.431118e-02 1.522034e-02 1.524720e-02 1.686027e-02 1.608897e-02 1.861121e-02 1.679409e-02 2.049082e-02 1.743674e-02 2.235434e-02 1.784370e-02 2.392749e-02 1.805608e-02 2.517417e-02 1.813121e-02 2.567941e-02 1.771529e-02 2.492271e-02 1.684329e-02 2.304783e-02 1.605569e-02 2.034539e-02 1.555423e-02 1.684994e-02 1.541048e-02 1.342092e-02 1.627821e-02 2.002444e-02 5.288083e-02 -2.306347e-02 -1.518608e-02 0 0 0 0 
0 0 0 0 0 -3.434341e+00 8.360372e-01 2.442741e+00 -2.760543e-01 7.490637e-01 -6.949133e-02 5.687806e-01 -1.288842e+00 -8.954716e+00 -7.274516e+00 -1.068212e+01 -1.568416e+01 -1.099713e+01 -1.502998e+01 -1.124991e+01 -4.255468e+00 -1.222198e+00 4.014378e-01 1.633112e-01 3.970022e-01 2.116364e-01 4.377245e-01 2.623597e-01 4.667314e-01 2.994756e-01 4.820128e-01 3.288961e-01 4.835722e-01 3.403209e-01 4.587293e-01 3.293441e-01 4.184678e-01 3.157718e-01 3.809996e-01 3.070158e-01 3.445336e-01 2.971494e-01 3.082886e-01 2.910444e-01 2.819798e-01 2.934032e-01 2.632613e-01 2.938191e-01 2.446338e-01 2.935467e-01 2.382822e-01 3.067171e-01 2.501120e-01 3.281682e-01 2.704050e-01 3.555157e-01 3.057935e-01 3.905905e-01 3.153574e-01 3.915903e-01 3.656721e-01 3.249123e-01 2.587378e-01 2.616945e-01 1.923876e-01 2.540165e-01 1.532558e-01 9.712227e-02 4.732592e-02 2.215739e-02 3.604228e-02 5.779492e-02 7.568119e-02 8.314802e-02 1.203643e-01 1.337934e-01 1.813270e-01 1.950997e-01 2.406155e-01 2.465953e-01 2.788745e-01 2.756545e-01 2.923122e-01 2.842505e-01 2.878318e-01 2.818211e-01 2.791250e-01 2.803858e-01 2.771978e-01 2.859477e-01 2.873765e-01 3.009596e-01 3.104240e-01 3.213071e-01 3.417274e-01 3.423406e-01 3.785663e-01 3.612551e-01 4.178829e-01 3.770755e-01 4.600459e-01 3.914279e-01 5.017633e-01 4.003745e-01 5.368303e-01 4.048069e-01 5.644137e-01 4.060241e-01 5.752506e-01 3.961694e-01 5.577812e-01 3.761892e-01 5.154290e-01 3.584236e-01 4.549126e-01 3.476095e-01 3.771888e-01 3.454564e-01 3.013216e-01 3.646963e-01 4.383317e-01 1.168034e+00 -5.272991e-01 -3.414183e-01 0 0 0 0 
0 0 0 0 0 -4.971345e+00 1.216023e+00 3.545968e+00 -3.938482e-01 1.086378e+00 -9.970458e-02 8.238083e-01 -1.865698e+00 -2.828747e+00 -3.400918e+00 -3.291425e+00 -5.319930e+00 -3.411957e+00 -5.024701e+00 -4.046187e+00 -1.600099e+00 -1.769589e+00 5.807963e-01 2.361372e-01 5.744685e-01 3.061783e-01 6.335006e-01 3.796828e-01 6.755596e-01 4.334723e-01 6.977306e-01 4.760960e-01 7.000109e-01 4.926430e-01 6.640447e-01 4.767409e-01 6.057435e-01 4.570712e-01 5.514859e-01 4.443766e-01 4.986841e-01 4.300858e-01 4.462102e-01 4.212512e-01 4.081330e-01 4.246770e-01 3.810554e-01 4.252990e-01 3.541109e-01 4.249269e-01 3.449336e-01 4.440073e-01 3.620715e-01 4.750682e-01 3.914536e-01 5.146598e-01 4.426814e-01 5.654320e-01 4.565207e-01 5.668731e-01 5.293518e-01 4.703471e-01 3.745515e-01 3.788317e-01 2.785022e-01 3.677181e-01 2.218570e-01 1.405992e-01 6.851588e-02 3.208342e-02 5.218489e-02 8.367629e-02 1.095692e-01 1.203793e-01 1.742533e-01 1.936934e-01 2.625024e-01 2.824382e-01 3.483260e-01 3.569801e-01 4.037068e-01 3.990438e-01 4.231573e-01 4.114859e-01 4.166704e-01 4.079683e-01 4.040654e-01 4.058895e-01 4.012742e-01 4.139399e-01 4.160079e-01 4.356708e-01 4.493722e-01 4.651280e-01 4.946907e-01 4.955810e-01 5.480242e-01 5.229657e-01 6.049408e-01 5.458647e-01 6.659671e-01 5.666223e-01 7.263267e-01 5.795252e-01 7.770260e-01 5.858563e-01 8.168529e-01 5.874991e-01 8.324118e-01 5.731020e-01 8.070010e-01 5.440762e-01 7.456258e-01 5.183375e-01 6.580615e-01 5.027957e-01 5.457392e-01 4.999517e-01 4.361972e-01 5.277421e-01 6.316795e-01 1.685982e+00 -7.657334e-01 -4.943602e-01 0 0 0 0 
0 0 0 0 0 -1.690014e+00 4.162124e-01 1.210305e+00 -1.311016e-01 3.703231e-01 -3.346486e-02 2.802852e-01 -6.342695e-01 -9.617468e-01 -1.156288e+00 -1.119060e+00 -1.808677e+00 -1.160017e+00 -1.708305e+00 -1.375710e+00 -5.441391e-01 -6.017724e-01 1.972966e-01 8.014808e-02 1.951905e-01 1.040015e-01 2.152996e-01 1.290284e-01 2.296318e-01 1.473446e-01 2.371934e-01 1.618523e-01 2.379797e-01 1.674818e-01 2.257504e-01 1.620697e-01 2.059207e-01 1.553717e-01 1.874656e-01 1.510465e-01 1.695079e-01 1.461841e-01 1.516656e-01 1.431820e-01 1.387240e-01 1.443521e-01 1.295277e-01 1.445732e-01 1.203774e-01 1.444575e-01 1.172658e-01 1.509515e-01 1.230985e-01 1.615154e-01 1.330905e-01 1.749770e-01 1.505061e-01 1.922370e-01 1.552084e-01 1.927241e-01 1.799669e-01 1.599065e-01 1.273381e-01 1.287933e-01 9.468368e-02 1.250155e-01 7.542687e-02 4.780213e-02 2.329677e-02 1.091151e-02 1.774626e-02 2.845353e-02 3.725671e-02 4.093241e-02 5.924795e-02 6.585701e-02 8.924983e-02 9.602669e-02 1.184262e-01 1.213673e-01 1.372526e-01 1.356665e-01 1.438643e-01 1.398958e-01 1.416584e-01 1.386995e-01 1.373726e-01 1.379923e-01 1.364230e-01 1.407287e-01 1.414316e-01 1.481164e-01 1.527748e-01 1.581320e-01 1.681836e-01 1.684875e-01 1.863181e-01 1.777996e-01 2.056691e-01 1.855834e-01 2.264119e-01 1.926311e-01 2.469178e-01 1.969944e-01 2.641232e-01 1.991054e-01 2.776134e-01 1.996061e-01 2.828407e-01 1.946479e-01 2.741425e-01 1.847303e-01 2.532447e-01 1.759696e-01 2.234943e-01 1.707405e-01 1.854003e-01 1.699058e-01 1.482965e-01 1.793241e-01 2.133723e-01 5.708285e-01 -2.614978e-01 -1.681279e-01 0 0 0 0 
0 0 0 0 0 0 0 0 0 0 0 0 0 0 0 0 0 0 0 0 0 0 0 0 0 0 0 0 0 0 0 0 0 0 0 0 0 0 0 0 0 0 0 0 0 0 0 0 0 0 0 0 0 0 0 0 0 0 0 0 0 0 0 0 0 0 0 0 0 0 0 0 0 0 0 0 0 0 0 0 0 0 0 0 0 0 0 0 0 0 0 0 0 0 0 0 0 0 0 0 0 0 0 0 0 0 0 0 0 0 0 0 0 0 0 0 0 0 0 0 0 0 0 0 0 0 0 0 
