# vtk DataFile Version 2.0
Comment goes here
ASCII

DATASET STRUCTURED_POINTS
FIELD FieldData 1
TIME 1 1 double
0.79000000
DIMENSIONS    128   16   1

ORIGIN    0.000   0.000   0.000
SPACING   0.0078125 0.015625   1.000

POINT_DATA   2048
SCALARS fX double
LOOKUP_TABLE default

0 0 0 0 0 0 0 0 0 0 0 0 0 0 0 0 0 0 0 0 0 0 0 0 0 0 0 0 0 0 0 0 0 0 0 0 0 0 0 0 0 0 0 0 0 0 0 0 0 0 0 0 0 0 0 0 0 0 0 0 0 0 0 0 0 0 0 0 0 0 0 0 0 0 0 0 0 0 0 0 0 0 0 0 0 0 0 0 0 0 0 0 0 0 0 0 0 0 0 0 0 0 0 0 0 0 0 0 0 0 0 0 0 0 0 0 0 0 0 0 0 0 0 0 0 0 0 0 
0 0 0 0 0 0 0 0 0 0 0 0 0 0 0 0 0 0 0 0 0 0 0 0 0 0 0 0 0 0 0 0 0 0 0 0 0 0 0 0 0 0 0 0 0 0 0 0 0 0 0 0 0 0 0 0 0 0 0 0 0 0 0 0 0 0 0 0 0 0 0 0 0 0 0 0 0 0 0 0 0 0 0 0 0 0 0 0 0 0 0 0 0 0 0 0 0 0 0 0 0 0 0 0 0 0 0 0 0 0 0 0 0 0 0 0 0 0 0 0 0 0 0 0 0 0 0 0 
0 0 0 0 0 9.505870e-01 -1.944574e+00 -1.567453e+00 -3.376262e-01 -8.845958e-01 -4.732173e-01 -8.078241e-01 1.067929e+00 3.706477e+00 4.794038e+00 3.990785e+00 5.059584e+00 4.337256e+00 4.613352e+00 4.983755e+00 3.524622e+00 7.318372e-01 -6.260198e-01 -5.853566e-01 -6.538753e-01 -6.107803e-01 -6.764961e-01 -6.225328e-01 -6.925632e-01 -6.292949e-01 -7.027653e-01 -6.325530e-01 -7.066540e-01 -6.329213e-01 -7.039273e-01 -6.312291e-01 -6.962288e-01 -6.285319e-01 -6.859766e-01 -6.266621e-01 -6.751452e-01 -6.272111e-01 -6.649232e-01 -6.306629e-01 -6.557690e-01 -6.367783e-01 -6.478567e-01 -6.451062e-01 -6.418948e-01 -6.548226e-01 -6.384441e-01 -6.647147e-01 -6.386839e-01 -6.744493e-01 -6.481553e-01 -6.351463e-01 -4.730880e-01 -2.200029e-01 1.712739e-01 -1.485830e+00 -2.085747e+00 1.987260e-01 -6.897840e-01 -5.223077e-01 -4.917165e-01 -2.774792e+00 -5.045642e-01 1.422487e-01 -1.230050e+00 -6.849776e-01 -1.594716e+00 -2.846618e+00 -1.818758e+00 -7.413708e-01 -7.104904e-01 -6.889048e-01 -7.120272e-01 -6.988117e-01 -7.155986e-01 -7.069331e-01 -7.171364e-01 -7.104357e-01 -7.146537e-01 -7.085943e-01 -7.093104e-01 -7.020778e-01 -7.027546e-01 -6.935265e-01 -6.969048e-01 -6.849660e-01 -6.931135e-01 -6.772600e-01 -6.926147e-01 -6.705426e-01 -6.954493e-01 -6.651113e-01 -7.008889e-01 -6.609967e-01 -7.082845e-01 -6.579950e-01 -7.162094e-01 -6.569382e-01 -7.232513e-01 -6.580317e-01 -7.277459e-01 -6.617425e-01 -7.270583e-01 -6.675961e-01 -7.191957e-01 -6.755027e-01 -7.029161e-01 -6.857792e-01 -6.785673e-01 -6.999167e-01 -6.482064e-01 -7.197056e-01 -6.152475e-01 -7.479152e-01 -5.800637e-01 -7.881032e-01 -5.356419e-01 -1.541139e+00 -1.234965e+00 1.446621e-01 0 0 0 0 
0 0 0 0 0 2.796375e+00 -5.715925e+00 -4.605836e+00 -9.926038e-01 -2.603700e+00 -1.394074e+00 -2.378094e+00 3.139566e+00 1.089986e+01 1.409881e+01 1.173651e+01 1.487972e+01 1.275534e+01 1.356659e+01 1.465535e+01 1.036388e+01 2.151782e+00 -1.840737e+00 -1.721117e+00 -1.922527e+00 -1.795773e+00 -1.988976e+00 -1.830301e+00 -2.036224e+00 -1.850214e+00 -2.066272e+00 -1.859857e+00 -2.077775e+00 -1.861010e+00 -2.069825e+00 -1.856091e+00 -2.047237e+00 -1.848192e+00 -2.017113e+00 -1.842704e+00 -1.985267e+00 -1.844316e+00 -1.955208e+00 -1.854464e+00 -1.928294e+00 -1.872452e+00 -1.905038e+00 -1.896953e+00 -1.887521e+00 -1.925543e+00 -1.877391e+00 -1.954650e+00 -1.878117e+00 -1.983296e+00 -1.905986e+00 -1.867736e+00 -1.373846e+00 -6.044853e-01 1.022418e+00 -2.327434e+00 -3.897050e+00 1.167300e+00 -2.134927e+00 -1.391515e+00 9.125328e-02 -5.313195e+00 -1.095551e-01 1.664578e-01 -3.713151e+00 -1.436710e+00 -3.460455e+00 -7.601318e+00 -5.305361e+00 -2.180275e+00 -2.089452e+00 -2.025970e+00 -2.093964e+00 -2.055096e+00 -2.104462e+00 -2.078974e+00 -2.108980e+00 -2.089273e+00 -2.101678e+00 -2.083858e+00 -2.085967e+00 -2.064699e+00 -2.066693e+00 -2.039559e+00 -2.049499e+00 -2.014397e+00 -2.038367e+00 -1.991757e+00 -2.036924e+00 -1.972030e+00 -2.045289e+00 -1.956081e+00 -2.061303e+00 -1.943985e+00 -2.083044e+00 -1.935130e+00 -2.106308e+00 -1.931956e+00 -2.126938e+00 -1.935073e+00 -2.140052e+00 -1.945875e+00 -2.137931e+00 -1.963010e+00 -2.114764e+00 -1.986261e+00 -2.066937e+00 -2.016588e+00 -1.995482e+00 -2.058363e+00 -1.906401e+00 -2.116758e+00 -1.809544e+00 -2.199462e+00 -1.704676e+00 -2.312527e+00 -1.555603e+00 -4.509251e+00 -3.624122e+00 4.256011e-01 0 0 0 0 
0 0 0 0 0 1.931875e+00 -3.946666e+00 -3.179423e+00 -6.854479e-01 -1.799470e+00 -9.640617e-01 -1.643725e+00 2.168001e+00 3.862368e+01 4.814018e+01 4.345646e+01 5.068580e+01 4.688580e+01 4.663072e+01 5.242422e+01 3.435163e+01 1.486031e+00 -1.271262e+00 -1.188622e+00 -1.327692e+00 -1.240134e+00 -1.373553e+00 -1.263966e+00 -1.406185e+00 -1.277733e+00 -1.426961e+00 -1.284423e+00 -1.434939e+00 -1.285254e+00 -1.429482e+00 -1.281884e+00 -1.413905e+00 -1.276445e+00 -1.393111e+00 -1.272658e+00 -1.371118e+00 -1.273770e+00 -1.350358e+00 -1.280779e+00 -1.331771e+00 -1.293205e+00 -1.315714e+00 -1.310133e+00 -1.303623e+00 -1.329887e+00 -1.296636e+00 -1.349999e+00 -1.297147e+00 -1.369794e+00 -1.316403e+00 -1.289988e+00 -9.401620e-01 -3.932681e-01 1.056826e+00 -3.454761e-01 -1.368855e+00 1.107772e+00 -1.575465e+00 -8.747485e-01 9.838235e-01 -1.975460e+00 7.338389e-01 -5.798331e-02 -2.630067e+00 -6.416582e-01 -1.645211e+00 -4.778968e+00 -3.638027e+00 -1.505931e+00 -1.443195e+00 -1.399348e+00 -1.446308e+00 -1.419460e+00 -1.453557e+00 -1.435951e+00 -1.456676e+00 -1.443063e+00 -1.451632e+00 -1.439323e+00 -1.440782e+00 -1.426092e+00 -1.427471e+00 -1.408732e+00 -1.415601e+00 -1.391359e+00 -1.407920e+00 -1.375732e+00 -1.406935e+00 -1.362120e+00 -1.412726e+00 -1.351115e+00 -1.423796e+00 -1.342763e+00 -1.438809e+00 -1.336633e+00 -1.454856e+00 -1.334410e+00 -1.469067e+00 -1.336514e+00 -1.478074e+00 -1.343922e+00 -1.476562e+00 -1.355718e+00 -1.460539e+00 -1.371777e+00 -1.427528e+00 -1.392775e+00 -1.378248e+00 -1.421726e+00 -1.316818e+00 -1.462156e+00 -1.249953e+00 -1.519155e+00 -1.176843e+00 -1.594768e+00 -1.064943e+00 -3.103408e+00 -2.499453e+00 2.940475e-01 0 0 0 0 
0 0 0 0 0 8.608694e-02 -1.753157e-01 -1.410402e-01 -3.047034e-02 -8.036573e-02 -4.320520e-02 -7.345456e-02 9.636335e-02 4.415853e+01 4.820819e+01 4.531071e+01 4.735741e+01 4.677418e+01 4.578547e+01 4.837208e+01 4.382084e+01 6.608565e-02 -5.654493e-02 -5.286245e-02 -5.904063e-02 -5.514150e-02 -6.107263e-02 -5.619789e-02 -6.252464e-02 -5.681402e-02 -6.345485e-02 -5.711930e-02 -6.381823e-02 -5.716487e-02 -6.358381e-02 -5.702197e-02 -6.289692e-02 -5.678395e-02 -6.197466e-02 -5.661669e-02 -6.099667e-02 -5.666586e-02 -6.007300e-02 -5.697749e-02 -5.924658e-02 -5.753101e-02 -5.853348e-02 -5.828564e-02 -5.799735e-02 -5.916660e-02 -5.768858e-02 -6.006381e-02 -5.771381e-02 -6.094702e-02 -5.857279e-02 -5.739809e-02 -4.518020e-02 -2.945764e-02 1.976457e-01 4.833983e-01 4.235227e-01 1.388208e-01 -1.430903e-01 -1.603171e-02 3.849114e-01 5.527388e-01 3.458573e-01 -6.756293e-02 -1.433031e-01 1.002221e-01 2.080149e-01 -3.920135e-02 -1.527809e-01 -6.702744e-02 -6.423415e-02 -6.228240e-02 -6.437181e-02 -6.317645e-02 -6.469386e-02 -6.390972e-02 -6.483214e-02 -6.422604e-02 -6.460754e-02 -6.405968e-02 -6.412496e-02 -6.347134e-02 -6.353322e-02 -6.269967e-02 -6.300607e-02 -6.192815e-02 -6.266631e-02 -6.123530e-02 -6.262552e-02 -6.063288e-02 -6.288673e-02 -6.014600e-02 -6.338155e-02 -5.977477e-02 -6.404874e-02 -5.949858e-02 -6.475777e-02 -5.939155e-02 -6.538050e-02 -5.947296e-02 -6.576857e-02 -5.978908e-02 -6.568914e-02 -6.030435e-02 -6.497052e-02 -6.101893e-02 -6.350737e-02 -6.196639e-02 -6.133261e-02 -6.327946e-02 -5.862373e-02 -6.510335e-02 -5.565644e-02 -6.760874e-02 -5.223048e-02 -7.034379e-02 -4.498190e-02 -1.352957e-01 -1.102954e-01 1.310851e-02 0 0 0 0 
0 0 0 0 0 0 0 0 0 0 0 0 0 4.819115e+01 5.218536e+01 4.936651e+01 5.124956e+01 5.093499e+01 4.956925e+01 5.258236e+01 4.757998e+01 0 0 0 0 0 0 0 0 0 0 0 0 0 0 0 0 0 0 0 0 0 0 0 0 0 0 0 0 0 0 0 0 0 0 0 -5.369124e-03 -1.823627e-02 -5.604581e-03 -1.343815e-02 -1.976437e-02 -7.867018e-04 -1.453573e-02 -9.754328e-03 -1.630683e-02 -1.285655e-02 2.116536e-03 6.144054e-03 -5.162562e-03 -1.458797e-02 -1.473475e-02 -1.741931e-02 -1.573811e-03 0 0 0 0 0 0 0 0 0 0 0 0 0 0 0 0 0 0 0 0 0 0 0 0 0 0 0 0 0 0 0 0 0 0 0 0 0 0 0 0 0 0 0 0 0 0 0 0 0 0 0 0 0 0 0 
0 0 0 0 0 0 0 0 0 0 0 0 0 4.809672e+01 4.994042e+01 4.832150e+01 4.918742e+01 4.892807e+01 4.852122e+01 4.970287e+01 4.816867e+01 0 0 0 0 0 0 0 0 0 0 0 0 0 0 0 0 0 0 0 0 0 0 0 0 0 0 0 0 0 0 0 0 0 0 0 4.074136e-04 2.435717e-03 2.432264e-03 -7.077753e-04 -8.391822e-04 -4.095459e-04 -1.767047e-03 7.363966e-04 -3.644370e-04 -2.652255e-03 -4.910914e-03 -8.485474e-03 -8.825220e-03 -4.736313e-03 -2.221710e-03 -2.486577e-03 -2.169932e-04 0 0 0 0 0 0 0 0 0 0 0 0 0 0 0 0 0 0 0 0 0 0 0 0 0 0 0 0 0 0 0 0 0 0 0 0 0 0 0 0 0 0 0 0 0 0 0 0 0 0 0 0 0 0 0 
0 0 0 0 0 0 0 0 0 0 0 0 0 5.056479e+01 5.277622e+01 5.099301e+01 5.188601e+01 5.186383e+01 5.094425e+01 5.282961e+01 5.032123e+01 0 0 0 0 0 0 0 0 0 0 0 0 0 0 0 0 0 0 0 0 0 0 0 0 0 0 0 0 0 0 0 0 0 0 0 0 0 0 0 0 0 0 0 0 0 0 0 0 0 0 0 0 0 0 0 0 0 0 0 0 0 0 0 0 0 0 0 0 0 0 0 0 0 0 0 0 0 0 0 0 0 0 0 0 0 0 0 0 0 0 0 0 0 0 0 0 0 0 0 0 0 0 0 0 0 0 0 
0 0 0 0 0 0 0 0 0 0 0 0 0 4.809617e+01 4.994014e+01 4.831872e+01 4.918411e+01 4.892271e+01 4.851544e+01 4.969556e+01 4.816234e+01 0 0 0 0 0 0 0 0 0 0 0 0 0 0 0 0 0 0 0 0 0 0 0 0 0 0 0 0 0 0 0 0 0 0 0 0 0 0 0 0 0 0 0 0 0 0 0 0 0 0 0 0 0 0 0 0 0 0 0 0 0 0 0 0 0 0 0 0 0 0 0 0 0 0 0 0 0 0 0 0 0 0 0 0 0 0 0 0 0 0 0 0 0 0 0 0 0 0 0 0 0 0 0 0 0 0 0 
0 0 0 0 0 0 0 0 0 0 0 0 0 4.819252e+01 5.218586e+01 4.936455e+01 5.124421e+01 5.092847e+01 4.955933e+01 5.256694e+01 4.757005e+01 0 0 0 0 0 0 0 0 0 0 0 0 0 0 0 0 0 0 0 0 0 0 0 0 0 0 0 0 0 0 0 0 0 0 0 0 0 0 0 0 0 0 0 0 0 0 0 0 0 0 0 0 0 0 0 0 0 0 0 0 0 0 0 0 0 0 0 0 0 0 0 0 0 0 0 0 0 0 0 0 0 0 0 0 0 0 0 0 0 0 0 0 0 0 0 0 0 0 0 0 0 0 0 0 0 0 0 
0 0 0 0 0 8.609059e-02 -1.744458e-01 -1.392888e-01 -2.814969e-02 -7.812519e-02 -4.098424e-02 -7.171891e-02 9.797945e-02 4.415990e+01 4.821078e+01 4.530413e+01 4.734552e+01 4.675605e+01 4.576086e+01 4.833896e+01 4.379325e+01 6.453121e-02 -5.862111e-02 -5.471220e-02 -6.099090e-02 -5.645123e-02 -6.220185e-02 -5.647862e-02 -6.256504e-02 -5.601714e-02 -6.258260e-02 -5.563165e-02 -6.250602e-02 -5.554069e-02 -6.239470e-02 -5.577326e-02 -6.224775e-02 -5.629992e-02 -6.208492e-02 -5.707205e-02 -6.191616e-02 -5.799316e-02 -6.168507e-02 -5.889939e-02 -6.128854e-02 -5.963986e-02 -6.069018e-02 -6.017507e-02 -5.996891e-02 -6.055053e-02 -5.924393e-02 -6.079154e-02 -5.857791e-02 -6.085964e-02 -5.799544e-02 -6.074810e-02 -5.759279e-02 -6.056376e-02 -5.760616e-02 -6.109811e-02 -5.941682e-02 -6.087196e-02 -5.964877e-02 -6.210383e-02 -6.057328e-02 -6.446364e-02 -6.250408e-02 -6.408190e-02 -6.434307e-02 -6.472698e-02 -6.558848e-02 -6.599949e-02 -6.578998e-02 -6.451834e-02 -6.455673e-02 -6.321700e-02 -6.344438e-02 -6.225012e-02 -6.259476e-02 -6.174407e-02 -6.216441e-02 -6.174704e-02 -6.219602e-02 -6.216207e-02 -6.259867e-02 -6.279061e-02 -6.322302e-02 -6.342896e-02 -6.393912e-02 -6.389400e-02 -6.462832e-02 -6.403003e-02 -6.519259e-02 -6.375674e-02 -6.557462e-02 -6.308683e-02 -6.577468e-02 -6.213047e-02 -6.582944e-02 -6.104965e-02 -6.574147e-02 -5.999238e-02 -6.546200e-02 -5.909189e-02 -6.493570e-02 -5.853109e-02 -6.418377e-02 -5.854565e-02 -6.326441e-02 -5.932965e-02 -6.219470e-02 -6.095258e-02 -6.093496e-02 -6.334852e-02 -5.941466e-02 -6.634631e-02 -5.752812e-02 -6.973884e-02 -5.472360e-02 -7.274601e-02 -4.738729e-02 -1.368272e-01 -1.110255e-01 1.301242e-02 0 0 0 0 
0 0 0 0 0 1.931957e+00 -3.927112e+00 -3.140064e+00 -6.333281e-01 -1.749168e+00 -9.142155e-01 -1.604786e+00 2.204242e+00 3.862682e+01 4.814049e+01 4.346503e+01 5.067950e+01 4.690040e+01 4.660459e+01 5.239149e+01 3.434782e+01 1.451096e+00 -1.317916e+00 -1.230189e+00 -1.371512e+00 -1.269556e+00 -1.398916e+00 -1.270246e+00 -1.407063e+00 -1.259783e+00 -1.407317e+00 -1.250946e+00 -1.405408e+00 -1.248720e+00 -1.402734e+00 -1.253809e+00 -1.399314e+00 -1.265570e+00 -1.395598e+00 -1.282902e+00 -1.391791e+00 -1.303610e+00 -1.386596e+00 -1.323982e+00 -1.377672e+00 -1.340611e+00 -1.364197e+00 -1.352608e+00 -1.347942e+00 -1.360997e+00 -1.331590e+00 -1.366352e+00 -1.316562e+00 -1.367824e+00 -1.303422e+00 -1.365271e+00 -1.294338e+00 -1.361095e+00 -1.294612e+00 -1.373073e+00 -1.335275e+00 -1.367956e+00 -1.340452e+00 -1.395598e+00 -1.361187e+00 -1.448582e+00 -1.404531e+00 -1.439955e+00 -1.445808e+00 -1.454405e+00 -1.473750e+00 -1.482962e+00 -1.478243e+00 -1.449654e+00 -1.450509e+00 -1.420400e+00 -1.425504e+00 -1.398669e+00 -1.406407e+00 -1.387293e+00 -1.396731e+00 -1.387354e+00 -1.397434e+00 -1.396671e+00 -1.406471e+00 -1.410779e+00 -1.420483e+00 -1.425097e+00 -1.436542e+00 -1.435503e+00 -1.451978e+00 -1.438497e+00 -1.464588e+00 -1.432285e+00 -1.473103e+00 -1.417177e+00 -1.477554e+00 -1.395675e+00 -1.478798e+00 -1.371458e+00 -1.476930e+00 -1.347879e+00 -1.470865e+00 -1.327916e+00 -1.459324e+00 -1.315616e+00 -1.442692e+00 -1.316158e+00 -1.422157e+00 -1.333780e+00 -1.397996e+00 -1.369960e+00 -1.369291e+00 -1.423257e+00 -1.334575e+00 -1.490076e+00 -1.292001e+00 -1.567018e+00 -1.232862e+00 -1.648745e+00 -1.118927e+00 -3.137713e+00 -2.515810e+00 2.918919e-01 0 0 0 0 
0 0 0 0 0 2.796495e+00 -5.687612e+00 -4.548850e+00 -9.171499e-01 -2.530882e+00 -1.321920e+00 -2.321734e+00 3.192018e+00 1.092265e+01 1.412271e+01 1.174753e+01 1.488031e+01 1.275545e+01 1.354186e+01 1.463042e+01 1.032513e+01 2.101201e+00 -1.908284e+00 -1.781298e+00 -1.985970e+00 -1.838368e+00 -2.025695e+00 -1.839386e+00 -2.037486e+00 -1.824215e+00 -2.037820e+00 -1.811374e+00 -2.035007e+00 -1.808107e+00 -2.031092e+00 -1.815440e+00 -2.026111e+00 -1.832449e+00 -2.020716e+00 -1.857538e+00 -2.015200e+00 -1.887522e+00 -2.007678e+00 -1.917020e+00 -1.994755e+00 -1.941093e+00 -1.975237e+00 -1.958454e+00 -1.951691e+00 -1.970588e+00 -1.928000e+00 -1.978326e+00 -1.906227e+00 -1.980443e+00 -1.887189e+00 -1.976735e+00 -1.874027e+00 -1.970679e+00 -1.874418e+00 -1.988014e+00 -1.933285e+00 -1.980596e+00 -1.940771e+00 -2.020607e+00 -1.970782e+00 -2.097308e+00 -2.033526e+00 -2.084806e+00 -2.093276e+00 -2.105716e+00 -2.133720e+00 -2.147052e+00 -2.140217e+00 -2.098821e+00 -2.100057e+00 -2.056463e+00 -2.063851e+00 -2.024998e+00 -2.036200e+00 -2.008528e+00 -2.022190e+00 -2.008615e+00 -2.023206e+00 -2.022101e+00 -2.036287e+00 -2.042524e+00 -2.056570e+00 -2.063246e+00 -2.079813e+00 -2.078302e+00 -2.102148e+00 -2.082621e+00 -2.120388e+00 -2.073610e+00 -2.132698e+00 -2.051721e+00 -2.139131e+00 -2.020586e+00 -2.140935e+00 -1.985543e+00 -2.138259e+00 -1.951449e+00 -2.129532e+00 -1.922615e+00 -2.112895e+00 -1.904884e+00 -2.088882e+00 -1.905724e+00 -2.059183e+00 -1.931237e+00 -2.024170e+00 -1.983547e+00 -1.982509e+00 -2.060575e+00 -1.932105e+00 -2.157179e+00 -1.870420e+00 -2.268758e+00 -1.785781e+00 -2.390676e+00 -1.633746e+00 -4.558893e+00 -3.647791e+00 4.224811e-01 0 0 0 0 
0 0 0 0 0 9.506279e-01 -1.934945e+00 -1.548075e+00 -3.119716e-01 -8.598395e-01 -4.486891e-01 -7.886663e-01 1.085756e+00 3.714220e+00 4.802157e+00 3.994526e+00 5.059783e+00 4.337290e+00 4.604938e+00 4.975277e+00 3.511442e+00 7.146366e-01 -6.489892e-01 -6.058215e-01 -6.754487e-01 -6.252636e-01 -6.889808e-01 -6.256188e-01 -6.929886e-01 -6.204485e-01 -6.930848e-01 -6.160605e-01 -6.921050e-01 -6.149271e-01 -6.907528e-01 -6.174038e-01 -6.890442e-01 -6.231787e-01 -6.872030e-01 -6.317078e-01 -6.853252e-01 -6.419049e-01 -6.827670e-01 -6.519369e-01 -6.783709e-01 -6.601217e-01 -6.717302e-01 -6.660215e-01 -6.637178e-01 -6.701417e-01 -6.556542e-01 -6.727656e-01 -6.482426e-01 -6.734785e-01 -6.417625e-01 -6.722116e-01 -6.372824e-01 -6.701483e-01 -6.374120e-01 -6.760395e-01 -6.574266e-01 -6.735127e-01 -6.599679e-01 -6.871135e-01 -6.701682e-01 -7.131903e-01 -6.914989e-01 -7.089331e-01 -7.118110e-01 -7.160377e-01 -7.255587e-01 -7.300895e-01 -7.277640e-01 -7.136855e-01 -7.141048e-01 -6.992800e-01 -7.017918e-01 -6.885801e-01 -6.923885e-01 -6.829788e-01 -6.876236e-01 -6.830076e-01 -6.879682e-01 -6.875924e-01 -6.924152e-01 -6.945354e-01 -6.993101e-01 -7.015786e-01 -7.072097e-01 -7.066929e-01 -7.147987e-01 -7.081539e-01 -7.209924e-01 -7.050810e-01 -7.251701e-01 -6.976309e-01 -7.273519e-01 -6.870422e-01 -7.279672e-01 -6.751345e-01 -7.270705e-01 -6.635626e-01 -7.241295e-01 -6.537914e-01 -7.185071e-01 -6.477988e-01 -7.103739e-01 -6.481109e-01 -7.002902e-01 -6.567873e-01 -6.883690e-01 -6.745398e-01 -6.741532e-01 -7.006662e-01 -6.569453e-01 -7.334495e-01 -6.359470e-01 -7.714789e-01 -6.076428e-01 -8.146771e-01 -5.622062e-01 -1.558006e+00 -1.243007e+00 1.436016e-01 0 0 0 0 
0 0 0 0 0 0 0 0 0 0 0 0 0 0 0 0 0 0 0 0 0 0 0 0 0 0 0 0 0 0 0 0 0 0 0 0 0 0 0 0 0 0 0 0 0 0 0 0 0 0 0 0 0 0 0 0 0 0 0 0 0 0 0 0 0 0 0 0 0 0 0 0 0 0 0 0 0 0 0 0 0 0 0 0 0 0 0 0 0 0 0 0 0 0 0 0 0 0 0 0 0 0 0 0 0 0 0 0 0 0 0 0 0 0 0 0 0 0 0 0 0 0 0 0 0 0 0 0 
