# vtk DataFile Version 2.0
Comment goes here
ASCII

DATASET STRUCTURED_POINTS
FIELD FieldData 1
TIME 1 1 double
0.74000000
DIMENSIONS    128   16   1

ORIGIN    0.000   0.000   0.000
SPACING   0.0078125 0.015625   1.000

POINT_DATA   2048
SCALARS fX double
LOOKUP_TABLE default

0 0 0 0 0 0 0 0 0 0 0 0 0 0 0 0 0 0 0 0 0 0 0 0 0 0 0 0 0 0 0 0 0 0 0 0 0 0 0 0 0 0 0 0 0 0 0 0 0 0 0 0 0 0 0 0 0 0 0 0 0 0 0 0 0 0 0 0 0 0 0 0 0 0 0 0 0 0 0 0 0 0 0 0 0 0 0 0 0 0 0 0 0 0 0 0 0 0 0 0 0 0 0 0 0 0 0 0 0 0 0 0 0 0 0 0 0 0 0 0 0 0 0 0 0 0 0 0 
0 0 0 0 0 0 0 0 0 0 0 0 0 0 0 0 0 0 0 0 0 0 0 0 0 0 0 0 0 0 0 0 0 0 0 0 0 0 0 0 0 0 0 0 0 0 0 0 0 0 0 0 0 0 0 0 0 0 0 0 0 0 0 0 0 0 0 0 0 0 0 0 0 0 0 0 0 0 0 0 0 0 0 0 0 0 0 0 0 0 0 0 0 0 0 0 0 0 0 0 0 0 0 0 0 0 0 0 0 0 0 0 0 0 0 0 0 0 0 0 0 0 0 0 0 0 0 0 
0 0 0 0 0 -1.002561e+00 1.991300e+00 1.565011e+00 3.235955e-01 8.693535e-01 4.572229e-01 7.870295e-01 -1.060711e+00 -3.713213e+00 -4.855423e+00 -3.992269e+00 -5.061185e+00 -4.340820e+00 -4.584156e+00 -4.947965e+00 -3.497102e+00 -7.178418e-01 6.581975e-01 6.114258e-01 6.802135e-01 6.289451e-01 6.959398e-01 6.344590e-01 7.029786e-01 6.342204e-01 7.041329e-01 6.332918e-01 7.028051e-01 6.350627e-01 7.013940e-01 6.409457e-01 7.011234e-01 6.498835e-01 7.014893e-01 6.598797e-01 7.012197e-01 6.691548e-01 6.996783e-01 6.766217e-01 6.965824e-01 6.818417e-01 6.912622e-01 6.837782e-01 6.829600e-01 6.810406e-01 6.713675e-01 6.728935e-01 6.568190e-01 6.583784e-01 6.379907e-01 8.420543e-01 1.735814e+00 1.892233e+00 -2.652209e-01 1.904035e-01 1.592235e+00 1.672792e-01 1.434454e+00 9.772075e-01 1.592346e-02 2.832748e+00 1.577195e+00 2.396589e-01 4.751655e-01 -1.520337e-01 7.689404e-01 1.770424e+00 1.260322e+00 7.207720e-01 6.744798e-01 6.584319e-01 6.647159e-01 6.445524e-01 6.561669e-01 6.346928e-01 6.505539e-01 6.301085e-01 6.488996e-01 6.311018e-01 6.517360e-01 6.369680e-01 6.587062e-01 6.466127e-01 6.681453e-01 6.580326e-01 6.784956e-01 6.681889e-01 6.887191e-01 6.746921e-01 6.971916e-01 6.767092e-01 7.027541e-01 6.739611e-01 7.057929e-01 6.674442e-01 7.069218e-01 6.594549e-01 7.067247e-01 6.526544e-01 7.058105e-01 6.495480e-01 7.041298e-01 6.524598e-01 7.012526e-01 6.624380e-01 6.961567e-01 6.798168e-01 6.872276e-01 7.037047e-01 6.732125e-01 7.328145e-01 6.533363e-01 7.672828e-01 6.283486e-01 8.192024e-01 5.930666e-01 1.462159e+00 1.157972e+00 -2.728343e-02 0 0 0 0 
0 0 0 0 0 -2.948399e+00 5.859422e+00 4.605578e+00 9.509254e-01 2.554593e+00 1.342260e+00 2.312506e+00 -3.121613e+00 -1.092368e+01 -1.428296e+01 -1.174386e+01 -1.488816e+01 -1.276920e+01 -1.348568e+01 -1.455644e+01 -1.028882e+01 -2.112065e+00 1.936535e+00 1.798970e+00 2.001392e+00 1.850576e+00 2.047696e+00 1.866807e+00 2.068390e+00 1.866070e+00 2.071737e+00 1.863281e+00 2.067770e+00 1.868435e+00 2.063567e+00 1.885704e+00 2.062740e+00 1.911979e+00 2.063802e+00 1.941383e+00 2.063007e+00 1.968673e+00 2.058473e+00 1.990642e+00 2.049362e+00 2.005994e+00 2.033700e+00 2.011678e+00 2.009260e+00 2.003607e+00 1.975136e+00 1.979620e+00 1.932317e+00 1.936897e+00 1.876906e+00 2.477226e+00 5.117086e+00 5.716081e+00 -6.480224e-01 -5.956367e-01 2.604765e+00 -5.183992e-01 4.071899e+00 2.919352e+00 -9.122949e-01 5.141341e+00 1.868425e+00 -1.929377e-01 1.022177e+00 -8.601492e-01 1.524003e+00 4.723430e+00 3.676373e+00 2.120275e+00 1.984099e+00 1.936892e+00 1.955378e+00 1.896065e+00 1.930233e+00 1.867065e+00 1.913721e+00 1.853577e+00 1.908847e+00 1.856487e+00 1.917176e+00 1.873726e+00 1.937662e+00 1.902080e+00 1.965411e+00 1.935654e+00 1.995838e+00 1.965509e+00 2.025893e+00 1.984624e+00 2.050808e+00 1.990558e+00 2.067181e+00 1.982495e+00 2.076151e+00 1.963369e+00 2.079528e+00 1.939941e+00 2.079029e+00 1.920031e+00 2.076435e+00 1.910990e+00 2.071574e+00 1.919623e+00 2.063144e+00 1.948971e+00 2.048102e+00 1.999989e+00 2.021686e+00 2.070059e+00 1.980238e+00 2.155461e+00 1.921609e+00 2.256881e+00 1.848804e+00 2.412437e+00 1.755015e+00 4.312986e+00 3.410040e+00 -8.022774e-02 0 0 0 0 
0 0 0 0 0 -2.036480e+00 4.048729e+00 3.182602e+00 6.564588e-01 1.763476e+00 9.259590e-01 1.596273e+00 -2.157187e+00 -3.860753e+01 -4.844685e+01 -4.351319e+01 -5.068248e+01 -4.690989e+01 -4.647063e+01 -5.222343e+01 -3.422487e+01 -1.459297e+00 1.337996e+00 1.242971e+00 1.382847e+00 1.278658e+00 1.414857e+00 1.289876e+00 1.429147e+00 1.289349e+00 1.431436e+00 1.287395e+00 1.428666e+00 1.290929e+00 1.425737e+00 1.302841e+00 1.425150e+00 1.320985e+00 1.425877e+00 1.341297e+00 1.425327e+00 1.360152e+00 1.422195e+00 1.375332e+00 1.415898e+00 1.385935e+00 1.405073e+00 1.389856e+00 1.388180e+00 1.384272e+00 1.364596e+00 1.367690e+00 1.335003e+00 1.338164e+00 1.296712e+00 1.711452e+00 3.534062e+00 3.997261e+00 -4.676723e-01 -1.141205e+00 5.641569e-01 -8.689867e-01 2.859312e+00 1.995763e+00 -1.225384e+00 1.662783e+00 -2.844145e-01 -4.968991e-01 5.639602e-01 -8.137871e-01 6.142034e-01 2.968063e+00 2.520495e+00 1.464770e+00 1.370694e+00 1.338082e+00 1.350853e+00 1.309878e+00 1.333484e+00 1.289845e+00 1.322076e+00 1.280526e+00 1.318705e+00 1.282531e+00 1.324452e+00 1.294432e+00 1.338596e+00 1.314011e+00 1.357757e+00 1.337196e+00 1.378767e+00 1.357811e+00 1.399522e+00 1.371009e+00 1.416730e+00 1.375108e+00 1.428046e+00 1.369548e+00 1.434258e+00 1.356357e+00 1.436617e+00 1.340207e+00 1.436312e+00 1.326499e+00 1.434567e+00 1.320300e+00 1.431249e+00 1.326297e+00 1.425441e+00 1.346569e+00 1.415025e+00 1.381763e+00 1.396703e+00 1.430074e+00 1.367963e+00 1.488962e+00 1.327382e+00 1.559038e+00 1.277424e+00 1.667872e+00 1.217477e+00 2.985295e+00 2.357567e+00 -5.540938e-02 0 0 0 0 
0 0 0 0 0 -9.064153e-02 1.806070e-01 1.420341e-01 2.912887e-02 7.823666e-02 4.092151e-02 7.079681e-02 -9.628490e-02 -4.414452e+01 -4.828445e+01 -4.528567e+01 -4.736241e+01 -4.672319e+01 -4.573513e+01 -4.826249e+01 -4.375149e+01 -6.507321e-02 5.965889e-02 5.542755e-02 6.166883e-02 5.702633e-02 6.310036e-02 5.752752e-02 6.373563e-02 5.749968e-02 6.383160e-02 5.740553e-02 6.370068e-02 5.755624e-02 6.356382e-02 5.808246e-02 6.353381e-02 5.888882e-02 6.356448e-02 5.979363e-02 6.353966e-02 6.063446e-02 6.340025e-02 6.131135e-02 6.311908e-02 6.178335e-02 6.263528e-02 6.195649e-02 6.188042e-02 6.170552e-02 6.082688e-02 6.096408e-02 5.950552e-02 5.964550e-02 5.779639e-02 7.628015e-02 1.579320e-01 2.111993e-01 -3.830363e-02 -3.068620e-01 -4.034545e-01 -1.480224e-01 2.740942e-01 1.030837e-01 -2.383331e-01 -5.971682e-01 -5.329963e-01 -2.962341e-02 4.575409e-02 -5.605263e-02 -9.030338e-02 4.577073e-02 1.092446e-01 6.526662e-02 6.107486e-02 5.962185e-02 6.019092e-02 5.836544e-02 5.941740e-02 5.747320e-02 5.890908e-02 5.705762e-02 5.875795e-02 5.714553e-02 5.901214e-02 5.767375e-02 5.964018e-02 5.854388e-02 6.049175e-02 5.957449e-02 6.142542e-02 6.049046e-02 6.234789e-02 6.107664e-02 6.311366e-02 6.125931e-02 6.361904e-02 6.101411e-02 6.389959e-02 6.043193e-02 6.401161e-02 5.972135e-02 6.400802e-02 5.912225e-02 6.394201e-02 5.885805e-02 6.380438e-02 5.913349e-02 6.354963e-02 6.003615e-02 6.307932e-02 6.159142e-02 6.224449e-02 6.371950e-02 6.093687e-02 6.631510e-02 5.910898e-02 6.944065e-02 5.696917e-02 7.463763e-02 5.552856e-02 1.344691e-01 1.054991e-01 -2.465074e-03 0 0 0 0 
0 0 0 0 0 0 0 0 0 0 0 0 0 -4.818868e+01 -5.223459e+01 -4.936038e+01 -5.124753e+01 -5.090886e+01 -4.952411e+01 -5.251737e+01 -4.752003e+01 0 0 0 0 0 0 0 0 0 0 0 0 0 0 0 0 0 0 0 0 0 0 0 0 0 0 0 0 0 0 0 0 0 0 0 4.377962e-03 2.916038e-02 3.219580e-02 4.004270e-02 4.260467e-02 3.531149e-02 5.033201e-02 4.284987e-02 5.269709e-02 4.449320e-02 4.005928e-02 3.536928e-02 2.925543e-02 4.531085e-02 4.774423e-02 3.188603e-02 5.157330e-03 0 0 0 0 0 0 0 0 0 0 0 0 0 0 0 0 0 0 0 0 0 0 0 0 0 0 0 0 0 0 0 0 0 0 0 0 0 0 0 0 0 0 0 0 0 0 0 0 0 0 0 0 0 0 0 
0 0 0 0 0 0 0 0 0 0 0 0 0 -4.810019e+01 -4.990421e+01 -4.832066e+01 -4.915696e+01 -4.892720e+01 -4.848584e+01 -4.971161e+01 -4.812920e+01 0 0 0 0 0 0 0 0 0 0 0 0 0 0 0 0 0 0 0 0 0 0 0 0 0 0 0 0 0 0 0 0 0 0 0 -7.641503e-04 -8.626752e-03 -1.437137e-02 -8.260384e-03 -2.313382e-03 2.571166e-05 -1.894576e-03 -6.615351e-03 -6.135281e-03 -4.149338e-03 -2.588709e-03 6.901530e-04 4.497930e-04 -4.308066e-03 -2.811202e-03 1.172074e-03 3.569229e-04 0 0 0 0 0 0 0 0 0 0 0 0 0 0 0 0 0 0 0 0 0 0 0 0 0 0 0 0 0 0 0 0 0 0 0 0 0 0 0 0 0 0 0 0 0 0 0 0 0 0 0 0 0 0 0 
0 0 0 0 0 0 0 0 0 0 0 0 0 -5.057314e+01 -5.274468e+01 -5.099790e+01 -5.186062e+01 -5.186858e+01 -5.091092e+01 -5.284499e+01 -5.028050e+01 0 0 0 0 0 0 0 0 0 0 0 0 0 0 0 0 0 0 0 0 0 0 0 0 0 0 0 0 0 0 0 0 0 0 0 0 0 0 0 0 0 0 0 0 0 0 0 0 0 0 0 0 0 0 0 0 0 0 0 0 0 0 0 0 0 0 0 0 0 0 0 0 0 0 0 0 0 0 0 0 0 0 0 0 0 0 0 0 0 0 0 0 0 0 0 0 0 0 0 0 0 0 0 0 0 0 0 
0 0 0 0 0 0 0 0 0 0 0 0 0 -4.810290e+01 -4.990666e+01 -4.832531e+01 -4.916089e+01 -4.893419e+01 -4.849213e+01 -4.972089e+01 -4.813765e+01 0 0 0 0 0 0 0 0 0 0 0 0 0 0 0 0 0 0 0 0 0 0 0 0 0 0 0 0 0 0 0 0 0 0 0 0 0 0 0 0 0 0 0 0 0 0 0 0 0 0 0 0 0 0 0 0 0 0 0 0 0 0 0 0 0 0 0 0 0 0 0 0 0 0 0 0 0 0 0 0 0 0 0 0 0 0 0 0 0 0 0 0 0 0 0 0 0 0 0 0 0 0 0 0 0 0 0 
0 0 0 0 0 0 0 0 0 0 0 0 0 -4.818814e+01 -5.223484e+01 -4.936692e+01 -5.125179e+01 -5.092092e+01 -4.953607e+01 -5.253273e+01 -4.754224e+01 0 0 0 0 0 0 0 0 0 0 0 0 0 0 0 0 0 0 0 0 0 0 0 0 0 0 0 0 0 0 0 0 0 0 0 0 0 0 0 0 0 0 0 0 0 0 0 0 0 0 0 0 0 0 0 0 0 0 0 0 0 0 0 0 0 0 0 0 0 0 0 0 0 0 0 0 0 0 0 0 0 0 0 0 0 0 0 0 0 0 0 0 0 0 0 0 0 0 0 0 0 0 0 0 0 0 0 
0 0 0 0 0 -9.053733e-02 1.806023e-01 1.422032e-01 2.922736e-02 7.858047e-02 4.123310e-02 7.134682e-02 -9.590352e-02 -4.414670e+01 -4.828798e+01 -4.529776e+01 -4.737049e+01 -4.674425e+01 -4.575467e+01 -4.829650e+01 -4.378776e+01 -6.561815e-02 5.931743e-02 5.519890e-02 6.174264e-02 5.737030e-02 6.398230e-02 5.872466e-02 6.564839e-02 5.961195e-02 6.673990e-02 6.023190e-02 6.724483e-02 6.060874e-02 6.717497e-02 6.078466e-02 6.663725e-02 6.083709e-02 6.577212e-02 6.082930e-02 6.473131e-02 6.084724e-02 6.368587e-02 6.096594e-02 6.274983e-02 6.120553e-02 6.199931e-02 6.161111e-02 6.154098e-02 6.225168e-02 6.145454e-02 6.312860e-02 6.171886e-02 6.414403e-02 6.223301e-02 6.515931e-02 6.290202e-02 6.578537e-02 6.235144e-02 6.485941e-02 6.303504e-02 6.373938e-02 6.168916e-02 6.348774e-02 6.014925e-02 6.343655e-02 5.980617e-02 6.053706e-02 5.878163e-02 5.917947e-02 5.900516e-02 5.965201e-02 5.944392e-02 5.926632e-02 5.972742e-02 5.944563e-02 6.038679e-02 5.993087e-02 6.113607e-02 6.050824e-02 6.179062e-02 6.101717e-02 6.221077e-02 6.131887e-02 6.231646e-02 6.135999e-02 6.216394e-02 6.120918e-02 6.191650e-02 6.095549e-02 6.170776e-02 6.062513e-02 6.161573e-02 6.027567e-02 6.176363e-02 6.004441e-02 6.228794e-02 6.004921e-02 6.321694e-02 6.031781e-02 6.441750e-02 6.077098e-02 6.561485e-02 6.125568e-02 6.647479e-02 6.165971e-02 6.673367e-02 6.198026e-02 6.623739e-02 6.230783e-02 6.495834e-02 6.284469e-02 6.303678e-02 6.385508e-02 6.069490e-02 6.553537e-02 5.813173e-02 6.812566e-02 5.566361e-02 7.321956e-02 5.436122e-02 1.334681e-01 1.052504e-01 -2.434646e-03 0 0 0 0 
0 0 0 0 0 -2.034138e+00 4.048640e+00 3.186426e+00 6.586817e-01 1.771189e+00 9.329414e-01 1.608596e+00 -2.148664e+00 -3.857137e+01 -4.841532e+01 -4.352558e+01 -5.067156e+01 -4.693839e+01 -4.648094e+01 -5.223602e+01 -3.430913e+01 -1.471505e+00 1.330343e+00 1.237839e+00 1.384494e+00 1.286363e+00 1.434626e+00 1.316724e+00 1.472049e+00 1.336736e+00 1.496683e+00 1.350805e+00 1.508179e+00 1.359408e+00 1.506744e+00 1.363457e+00 1.494764e+00 1.364684e+00 1.475394e+00 1.364520e+00 1.452054e+00 1.364915e+00 1.428594e+00 1.367569e+00 1.407594e+00 1.372950e+00 1.390782e+00 1.382085e+00 1.380554e+00 1.396519e+00 1.378685e+00 1.416267e+00 1.384685e+00 1.439118e+00 1.396279e+00 1.461952e+00 1.411335e+00 1.476042e+00 1.399017e+00 1.455304e+00 1.414385e+00 1.430201e+00 1.384210e+00 1.424583e+00 1.349686e+00 1.423473e+00 1.342028e+00 1.358456e+00 1.319082e+00 1.328032e+00 1.324134e+00 1.338666e+00 1.334007e+00 1.330034e+00 1.340393e+00 1.334080e+00 1.355215e+00 1.344993e+00 1.372056e+00 1.357973e+00 1.386771e+00 1.369421e+00 1.396233e+00 1.376229e+00 1.398646e+00 1.377196e+00 1.395268e+00 1.373860e+00 1.389762e+00 1.368214e+00 1.385120e+00 1.360842e+00 1.383088e+00 1.353026e+00 1.386422e+00 1.347836e+00 1.398171e+00 1.347898e+00 1.418948e+00 1.353814e+00 1.445750e+00 1.363795e+00 1.472407e+00 1.374419e+00 1.491452e+00 1.383223e+00 1.497039e+00 1.390236e+00 1.485808e+00 1.397596e+00 1.457240e+00 1.409924e+00 1.414522e+00 1.433142e+00 1.362553e+00 1.471475e+00 1.305446e+00 1.529518e+00 1.248105e+00 1.636025e+00 1.191295e+00 2.962874e+00 2.352012e+00 -5.472536e-02 0 0 0 0 
0 0 0 0 0 -2.945008e+00 5.859297e+00 4.611122e+00 9.541462e-01 2.565756e+00 1.352365e+00 2.330338e+00 -3.109285e+00 -1.089599e+01 -1.426008e+01 -1.172887e+01 -1.486315e+01 -1.276128e+01 -1.347990e+01 -1.455022e+01 -1.030273e+01 -2.129731e+00 1.925460e+00 1.791540e+00 2.003774e+00 1.861727e+00 2.076306e+00 1.905666e+00 2.130485e+00 1.934658e+00 2.166178e+00 1.955062e+00 2.182860e+00 1.967553e+00 2.180817e+00 1.973440e+00 2.163497e+00 1.975227e+00 2.135471e+00 1.974994e+00 2.101691e+00 1.975564e+00 2.067733e+00 1.979402e+00 2.037336e+00 1.987192e+00 2.013008e+00 2.000424e+00 1.998218e+00 2.021333e+00 1.995532e+00 2.049935e+00 2.004234e+00 2.083028e+00 2.021031e+00 2.116093e+00 2.042834e+00 2.136499e+00 2.025014e+00 2.106489e+00 2.047265e+00 2.070162e+00 2.003595e+00 2.062036e+00 1.953630e+00 2.060441e+00 1.942556e+00 1.966342e+00 1.909352e+00 1.922314e+00 1.916674e+00 1.937714e+00 1.930973e+00 1.925225e+00 1.940222e+00 1.931087e+00 1.961684e+00 1.946890e+00 1.986068e+00 1.965684e+00 2.007375e+00 1.982262e+00 2.021079e+00 1.992126e+00 2.024582e+00 1.993537e+00 2.019704e+00 1.988720e+00 2.011745e+00 1.980560e+00 2.005037e+00 1.969899e+00 2.002104e+00 1.958592e+00 2.006934e+00 1.951080e+00 2.023937e+00 1.951158e+00 2.053994e+00 1.959693e+00 2.092753e+00 1.974092e+00 2.131284e+00 1.989407e+00 2.158787e+00 2.002083e+00 2.166819e+00 2.012189e+00 2.150537e+00 2.022844e+00 2.109220e+00 2.040761e+00 2.047488e+00 2.074507e+00 1.972412e+00 2.130152e+00 1.889855e+00 2.214146e+00 1.806359e+00 2.366333e+00 1.717121e+00 4.280542e+00 3.402004e+00 -7.923732e-02 0 0 0 0 
0 0 0 0 0 -1.001407e+00 1.991259e+00 1.566899e+00 3.246919e-01 8.731479e-01 4.606565e-01 7.930887e-01 -1.056525e+00 -3.703806e+00 -4.847650e+00 -3.987176e+00 -5.052684e+00 -4.338130e+00 -4.582194e+00 -4.945851e+00 -3.501830e+00 -7.238446e-01 6.544342e-01 6.089002e-01 6.810220e-01 6.327339e-01 7.056627e-01 6.476663e-01 7.240842e-01 6.575340e-01 7.362345e-01 6.644895e-01 7.419255e-01 6.687536e-01 7.412475e-01 6.707671e-01 7.353706e-01 6.713810e-01 7.258492e-01 6.713032e-01 7.143682e-01 6.714960e-01 7.028247e-01 6.727993e-01 6.924923e-01 6.754479e-01 6.842261e-01 6.799500e-01 6.792056e-01 6.870650e-01 6.783010e-01 6.967966e-01 6.812677e-01 7.080536e-01 6.869844e-01 7.192999e-01 6.944013e-01 7.262415e-01 6.883483e-01 7.160453e-01 6.959156e-01 7.037004e-01 6.810741e-01 7.009416e-01 6.640933e-01 7.004041e-01 6.603337e-01 6.684229e-01 6.490523e-01 6.534613e-01 6.515458e-01 6.586999e-01 6.564096e-01 6.544571e-01 6.595565e-01 6.564527e-01 6.668554e-01 6.618276e-01 6.751478e-01 6.682192e-01 6.823939e-01 6.738581e-01 6.870566e-01 6.772157e-01 6.882524e-01 6.777009e-01 6.865998e-01 6.760694e-01 6.838998e-01 6.733014e-01 6.816248e-01 6.696823e-01 6.806319e-01 6.658419e-01 6.822758e-01 6.632883e-01 6.880535e-01 6.633093e-01 6.982621e-01 6.661967e-01 7.114205e-01 6.710684e-01 7.244924e-01 6.762431e-01 7.338106e-01 6.805200e-01 7.365134e-01 6.839332e-01 7.309672e-01 6.875561e-01 7.169386e-01 6.936812e-01 6.960035e-01 7.052196e-01 6.705545e-01 7.242124e-01 6.425413e-01 7.527546e-01 6.139174e-01 8.035271e-01 5.801870e-01 1.451136e+00 1.155243e+00 -2.694660e-02 0 0 0 0 
0 0 0 0 0 0 0 0 0 0 0 0 0 0 0 0 0 0 0 0 0 0 0 0 0 0 0 0 0 0 0 0 0 0 0 0 0 0 0 0 0 0 0 0 0 0 0 0 0 0 0 0 0 0 0 0 0 0 0 0 0 0 0 0 0 0 0 0 0 0 0 0 0 0 0 0 0 0 0 0 0 0 0 0 0 0 0 0 0 0 0 0 0 0 0 0 0 0 0 0 0 0 0 0 0 0 0 0 0 0 0 0 0 0 0 0 0 0 0 0 0 0 0 0 0 0 0 0 
