# vtk DataFile Version 2.0
Comment goes here
ASCII

DATASET STRUCTURED_POINTS
FIELD FieldData 1
TIME 1 1 double
0.46000000
DIMENSIONS    128   16   1

ORIGIN    0.000   0.000   0.000
SPACING   0.0078125 0.015625   1.000

POINT_DATA   2048
SCALARS fY double
LOOKUP_TABLE default

0 0 0 0 0 0 0 0 0 0 0 0 0 0 0 0 0 0 0 0 0 0 0 0 0 0 0 0 0 0 0 0 0 0 0 0 0 0 0 0 0 0 0 0 0 0 0 0 0 0 0 0 0 0 0 0 0 0 0 0 0 0 0 0 0 0 0 0 0 0 0 0 0 0 0 0 0 0 0 0 0 0 0 0 0 0 0 0 0 0 0 0 0 0 0 0 0 0 0 0 0 0 0 0 0 0 0 0 0 0 0 0 0 0 0 0 0 0 0 0 0 0 0 0 0 0 0 0 
0 0 0 0 0 0 0 0 0 0 0 0 0 0 0 0 0 0 0 0 0 0 0 0 0 0 0 0 0 0 0 0 0 0 0 0 0 0 0 0 0 0 0 0 0 0 0 0 0 0 0 0 0 0 0 0 0 0 0 0 0 0 0 0 0 0 0 0 0 0 0 0 0 0 0 0 0 0 0 0 0 0 0 0 0 0 0 0 0 0 0 0 0 0 0 0 0 0 0 0 0 0 0 0 0 0 0 0 0 0 0 0 0 0 0 0 0 0 0 0 0 0 0 0 0 0 0 0 
0 0 0 0 0 1.339977e+00 1.749014e+00 1.389830e+00 2.455791e+00 1.851838e+00 3.074994e+00 2.333317e+00 3.542747e+00 2.085070e+00 -3.848107e+00 -8.001655e+00 -1.204711e+01 -1.662802e+01 -2.098831e+01 -2.436080e+01 -3.108221e+01 -3.175517e+01 -3.118070e+01 -3.142555e+01 -3.091251e+01 -3.102997e+01 -3.038864e+01 -3.025047e+01 -2.953454e+01 -2.935322e+01 -2.886885e+01 -2.885052e+01 -2.860985e+01 -2.858057e+01 -2.834464e+01 -2.812050e+01 -2.778545e+01 -2.738472e+01 -2.705103e+01 -2.666121e+01 -2.645786e+01 -2.611295e+01 -2.593141e+01 -2.552886e+01 -2.529351e+01 -2.484262e+01 -2.457929e+01 -2.415865e+01 -2.396597e+01 -2.369789e+01 -2.362063e+01 -2.345089e+01 -2.335495e+01 -2.313231e+01 -2.287076e+01 -2.250539e+01 -2.211868e+01 -2.158840e+01 -1.981378e+01 -1.951826e+01 -2.364202e+01 -2.587152e+01 -2.354090e+01 -2.054998e+01 -1.782649e+01 -2.051635e+01 -2.526270e+01 -2.493031e+01 -2.161638e+01 -1.771751e+01 -1.485201e+01 -1.537801e+01 -1.625489e+01 -1.603510e+01 -1.572683e+01 -1.560250e+01 -1.540448e+01 -1.522740e+01 -1.489298e+01 -1.451690e+01 -1.412304e+01 -1.377171e+01 -1.352909e+01 -1.321192e+01 -1.298600e+01 -1.258113e+01 -1.239142e+01 -1.199793e+01 -1.188595e+01 -1.147177e+01 -1.136495e+01 -1.091548e+01 -1.077983e+01 -1.028742e+01 -1.009438e+01 -9.628655e+00 -9.414606e+00 -9.019618e+00 -8.751500e+00 -8.461186e+00 -8.157345e+00 -7.978223e+00 -7.530974e+00 -7.362270e+00 -6.773676e+00 -6.722815e+00 -6.109381e+00 -6.170203e+00 -5.518561e+00 -5.651449e+00 -5.008275e+00 -5.119263e+00 -4.408213e+00 -4.363987e+00 -3.687558e+00 -3.591909e+00 -3.150631e+00 -3.011070e+00 -2.823937e+00 -2.467897e+00 -2.431962e+00 -1.591532e+00 -2.089719e+00 -1.953856e-01 0 0 0 0 
0 0 0 0 0 3.939757e+00 5.132314e+00 4.070954e+00 7.215419e+00 5.444734e+00 9.042222e+00 6.859869e+00 1.041550e+01 6.127591e+00 -1.132153e+01 -2.353952e+01 -3.544032e+01 -4.891916e+01 -6.174849e+01 -7.167374e+01 -9.145623e+01 -9.343643e+01 -9.174544e+01 -9.246601e+01 -9.095565e+01 -9.130119e+01 -8.941327e+01 -8.900648e+01 -8.689920e+01 -8.636547e+01 -8.493986e+01 -8.488593e+01 -8.417763e+01 -8.409147e+01 -8.339711e+01 -8.273744e+01 -8.175133e+01 -8.057188e+01 -7.958979e+01 -7.844246e+01 -7.784394e+01 -7.682880e+01 -7.629451e+01 -7.510974e+01 -7.441710e+01 -7.309010e+01 -7.231512e+01 -7.107720e+01 -7.051015e+01 -6.972123e+01 -6.949387e+01 -6.899435e+01 -6.871202e+01 -6.805683e+01 -6.728714e+01 -6.621192e+01 -6.527587e+01 -6.533871e+01 -6.424051e+01 -6.303313e+01 -6.499119e+01 -6.511705e+01 -6.230647e+01 -6.070823e+01 -5.787402e+01 -5.848163e+01 -6.024739e+01 -5.847941e+01 -5.591955e+01 -5.336049e+01 -5.024657e+01 -4.918992e+01 -4.808465e+01 -4.717241e+01 -4.626536e+01 -4.589956e+01 -4.531693e+01 -4.479591e+01 -4.381195e+01 -4.270542e+01 -4.154658e+01 -4.051287e+01 -3.979905e+01 -3.886583e+01 -3.820115e+01 -3.700993e+01 -3.645177e+01 -3.529404e+01 -3.496459e+01 -3.374606e+01 -3.343183e+01 -3.210953e+01 -3.171053e+01 -3.026196e+01 -2.969410e+01 -2.832409e+01 -2.769443e+01 -2.653251e+01 -2.574374e+01 -2.488971e+01 -2.399579e+01 -2.346880e+01 -2.215295e+01 -2.165657e+01 -1.992494e+01 -1.977524e+01 -1.797065e+01 -1.814960e+01 -1.623281e+01 -1.662393e+01 -1.473228e+01 -1.505915e+01 -1.296806e+01 -1.283842e+01 -1.084928e+01 -1.056835e+01 -9.270813e+00 -8.860616e+00 -8.310598e+00 -7.263914e+00 -7.158933e+00 -4.684887e+00 -6.147414e+00 -5.747329e-01 0 0 0 0 
0 0 0 0 0 2.720763e+00 3.539445e+00 2.803909e+00 4.980474e+00 3.760096e+00 6.245075e+00 4.737138e+00 7.192482e+00 7.990754e+00 -1.082920e+01 -1.039124e+01 -2.910814e+01 -2.874635e+01 -4.755222e+01 -4.709080e+01 -6.602339e+01 -6.456079e+01 -6.339205e+01 -6.388999e+01 -6.284601e+01 -6.308472e+01 -6.177984e+01 -6.149865e+01 -6.004224e+01 -5.967336e+01 -5.868813e+01 -5.865086e+01 -5.816138e+01 -5.810185e+01 -5.762199e+01 -5.716610e+01 -5.648463e+01 -5.566951e+01 -5.499081e+01 -5.419788e+01 -5.378425e+01 -5.308270e+01 -5.271346e+01 -5.189469e+01 -5.141602e+01 -5.049898e+01 -4.996343e+01 -4.910796e+01 -4.871610e+01 -4.817093e+01 -4.801381e+01 -4.766863e+01 -4.747354e+01 -4.702078e+01 -4.648890e+01 -4.574590e+01 -4.476996e+01 -4.335746e+01 -4.445835e+01 -4.492312e+01 -3.839622e+01 -3.466894e+01 -3.634913e+01 -3.824398e+01 -4.050313e+01 -3.646905e+01 -2.902205e+01 -2.928961e+01 -3.258590e+01 -3.628827e+01 -3.813899e+01 -3.595599e+01 -3.330123e+01 -3.258972e+01 -3.196300e+01 -3.171025e+01 -3.130769e+01 -3.094769e+01 -3.026785e+01 -2.950329e+01 -2.870261e+01 -2.798838e+01 -2.749518e+01 -2.685038e+01 -2.639114e+01 -2.556809e+01 -2.518244e+01 -2.438255e+01 -2.415493e+01 -2.331305e+01 -2.309596e+01 -2.218242e+01 -2.190678e+01 -2.090602e+01 -2.051373e+01 -1.956727e+01 -1.913228e+01 -1.832958e+01 -1.778464e+01 -1.719463e+01 -1.657703e+01 -1.621292e+01 -1.530379e+01 -1.496082e+01 -1.376445e+01 -1.366099e+01 -1.241428e+01 -1.253792e+01 -1.121379e+01 -1.148408e+01 -1.017743e+01 -1.040343e+01 -8.959107e+00 -8.869771e+00 -7.495934e+00 -7.302062e+00 -6.405946e+00 -6.122734e+00 -5.742985e+00 -5.020218e+00 -4.948046e+00 -3.238018e+00 -4.246947e+00 -3.970348e-01 0 0 0 0 
0 0 0 0 0 1.209826e-01 1.561451e-01 1.227857e-01 2.208458e-01 1.672004e-01 2.778469e-01 2.105854e-01 3.197292e-01 2.857553e+00 -3.675305e+00 5.163411e+00 -5.978007e+00 3.780981e+00 -6.873745e+00 5.699621e-01 -4.862578e+00 -2.879521e+00 -2.827310e+00 -2.849532e+00 -2.802873e+00 -2.813509e+00 -2.755205e+00 -2.742635e+00 -2.677584e+00 -2.661108e+00 -2.617114e+00 -2.615453e+00 -2.593601e+00 -2.590947e+00 -2.569525e+00 -2.549169e+00 -2.518744e+00 -2.482346e+00 -2.452044e+00 -2.416638e+00 -2.398170e+00 -2.366845e+00 -2.350359e+00 -2.313804e+00 -2.292435e+00 -2.251498e+00 -2.227592e+00 -2.189408e+00 -2.171918e+00 -2.147586e+00 -2.140575e+00 -2.125171e+00 -2.116464e+00 -2.096259e+00 -2.072522e+00 -2.039365e+00 -1.454950e+00 1.478618e+00 1.563024e+00 -4.727262e-01 4.130207e+00 5.569533e+00 2.936414e+00 3.071470e+00 4.057809e-01 1.979519e+00 6.469500e+00 4.034231e+00 1.792029e+00 -5.215258e-01 -2.808941e+00 -1.819815e+00 -1.422201e+00 -1.452413e+00 -1.424463e+00 -1.413193e+00 -1.395241e+00 -1.379186e+00 -1.348871e+00 -1.314774e+00 -1.279071e+00 -1.247220e+00 -1.225228e+00 -1.196474e+00 -1.175996e+00 -1.139296e+00 -1.122100e+00 -1.086437e+00 -1.076289e+00 -1.038759e+00 -1.029085e+00 -9.883670e-01 -9.760867e-01 -9.314889e-01 -9.140110e-01 -8.718381e-01 -8.524559e-01 -8.166905e-01 -7.924032e-01 -7.661105e-01 -7.385777e-01 -7.223448e-01 -6.818127e-01 -6.665178e-01 -6.131878e-01 -6.085682e-01 -5.530095e-01 -5.585224e-01 -4.995384e-01 -5.116062e-01 -4.534296e-01 -4.635457e-01 -3.992626e-01 -3.953386e-01 -3.342092e-01 -3.256239e-01 -2.857643e-01 -2.731878e-01 -2.563243e-01 -2.242017e-01 -2.210754e-01 -1.446622e-01 -1.892514e-01 -1.768754e-02 0 0 0 0 
0 0 0 0 0 0 0 0 0 0 0 0 0 1.936718e+00 -5.671995e-01 1.913280e+00 -1.404555e+00 1.488673e+00 -1.768212e+00 5.166607e-01 -1.978315e+00 0 0 0 0 0 0 0 0 0 0 0 0 0 0 0 0 0 0 0 0 0 0 0 0 0 0 0 0 0 0 0 0 0 0 0 1.495137e-01 9.947775e-01 1.377842e+00 7.219854e-01 1.327874e+00 1.485394e+00 8.604481e-01 1.088733e+00 5.701265e-01 5.197824e-01 1.110600e+00 5.088538e-01 5.396369e-01 9.734639e-02 -3.950056e-01 1.540366e-01 2.987398e-02 0 0 0 0 0 0 0 0 0 0 0 0 0 0 0 0 0 0 0 0 0 0 0 0 0 0 0 0 0 0 0 0 0 0 0 0 0 0 0 0 0 0 0 0 0 0 0 0 0 0 0 0 0 0 0 
0 0 0 0 0 0 0 0 0 0 0 0 0 9.439200e-01 -5.569118e-01 1.268895e+00 -1.063713e+00 1.136339e+00 -1.149257e+00 5.312859e-01 -9.665974e-01 0 0 0 0 0 0 0 0 0 0 0 0 0 0 0 0 0 0 0 0 0 0 0 0 0 0 0 0 0 0 0 0 0 0 0 -8.308068e-03 -9.098090e-02 -2.168101e-01 -2.135385e-01 1.506106e-01 4.924563e-01 3.404750e-01 -6.845708e-02 -2.912544e-01 3.649319e-02 6.037456e-01 7.341027e-01 4.648656e-01 -2.642207e-02 -3.304912e-01 -1.702172e-01 -1.939662e-02 0 0 0 0 0 0 0 0 0 0 0 0 0 0 0 0 0 0 0 0 0 0 0 0 0 0 0 0 0 0 0 0 0 0 0 0 0 0 0 0 0 0 0 0 0 0 0 0 0 0 0 0 0 0 0 
0 0 0 0 0 0 0 0 0 0 0 0 0 6.687044e-03 5.213553e-04 4.997907e-03 3.106901e-03 4.149030e-03 6.477333e-03 5.293221e-03 1.357271e-02 0 0 0 0 0 0 0 0 0 0 0 0 0 0 0 0 0 0 0 0 0 0 0 0 0 0 0 0 0 0 0 0 0 0 0 0 0 0 0 0 0 0 0 0 0 0 0 0 0 0 0 0 0 0 0 0 0 0 0 0 0 0 0 0 0 0 0 0 0 0 0 0 0 0 0 0 0 0 0 0 0 0 0 0 0 0 0 0 0 0 0 0 0 0 0 0 0 0 0 0 0 0 0 0 0 0 0 
0 0 0 0 0 0 0 0 0 0 0 0 0 -9.331128e-01 5.644945e-01 -1.256682e+00 1.074750e+00 -1.125781e+00 1.160238e+00 -5.209311e-01 9.828583e-01 0 0 0 0 0 0 0 0 0 0 0 0 0 0 0 0 0 0 0 0 0 0 0 0 0 0 0 0 0 0 0 0 0 0 0 0 0 0 0 0 0 0 0 0 0 0 0 0 0 0 0 0 0 0 0 0 0 0 0 0 0 0 0 0 0 0 0 0 0 0 0 0 0 0 0 0 0 0 0 0 0 0 0 0 0 0 0 0 0 0 0 0 0 0 0 0 0 0 0 0 0 0 0 0 0 0 0 
0 0 0 0 0 0 0 0 0 0 0 0 0 -1.928674e+00 5.648359e-01 -1.906348e+00 1.407629e+00 -1.488348e+00 1.766069e+00 -5.254714e-01 1.980155e+00 0 0 0 0 0 0 0 0 0 0 0 0 0 0 0 0 0 0 0 0 0 0 0 0 0 0 0 0 0 0 0 0 0 0 0 0 0 0 0 0 0 0 0 0 0 0 0 0 0 0 0 0 0 0 0 0 0 0 0 0 0 0 0 0 0 0 0 0 0 0 0 0 0 0 0 0 0 0 0 0 0 0 0 0 0 0 0 0 0 0 0 0 0 0 0 0 0 0 0 0 0 0 0 0 0 0 0 
0 0 0 0 0 -1.211496e-01 -1.574542e-01 -1.253249e-01 -2.223094e-01 -1.653771e-01 -2.726682e-01 -2.042249e-01 -3.147224e-01 -2.861597e+00 3.699024e+00 -5.136636e+00 6.005299e+00 -3.772933e+00 6.868817e+00 -5.678788e-01 4.836586e+00 2.889650e+00 2.825885e+00 2.831221e+00 2.772428e+00 2.783560e+00 2.741613e+00 2.754991e+00 2.713136e+00 2.705565e+00 2.651352e+00 2.627164e+00 2.579126e+00 2.555845e+00 2.519969e+00 2.494850e+00 2.467850e+00 2.444826e+00 2.431411e+00 2.413197e+00 2.406924e+00 2.383420e+00 2.368568e+00 2.327267e+00 2.297159e+00 2.247386e+00 2.219878e+00 2.180090e+00 2.160459e+00 2.125460e+00 2.103951e+00 2.069440e+00 2.046427e+00 2.016947e+00 1.998996e+00 1.980022e+00 1.964555e+00 1.943143e+00 1.913109e+00 1.879166e+00 1.836892e+00 1.798922e+00 1.752545e+00 1.715909e+00 1.673763e+00 1.650584e+00 1.622495e+00 1.614038e+00 1.594367e+00 1.589009e+00 1.563677e+00 1.543843e+00 1.500112e+00 1.465238e+00 1.418569e+00 1.389040e+00 1.355607e+00 1.337558e+00 1.320504e+00 1.310353e+00 1.295448e+00 1.266041e+00 1.229776e+00 1.176392e+00 1.139014e+00 1.094008e+00 1.082137e+00 1.057206e+00 1.064116e+00 1.038000e+00 1.030695e+00 9.786271e-01 9.507302e-01 8.942076e-01 8.741273e-01 8.376618e-01 8.294255e-01 8.074743e-01 7.932320e-01 7.689579e-01 7.337920e-01 7.087453e-01 6.653957e-01 6.538196e-01 6.022546e-01 5.925203e-01 5.285838e-01 5.305609e-01 4.776341e-01 5.024623e-01 4.598904e-01 4.848563e-01 4.311823e-01 4.269246e-01 3.513275e-01 3.185955e-01 2.552642e-01 2.289705e-01 2.101268e-01 1.861670e-01 1.969822e-01 1.352329e-01 1.875432e-01 1.755708e-02 0 0 0 0 
0 0 0 0 0 -2.724522e+00 -3.568860e+00 -2.860946e+00 -5.013361e+00 -3.719153e+00 -6.128732e+00 -4.594281e+00 -7.080030e+00 -7.989129e+00 1.089458e+01 1.045762e+01 2.919567e+01 2.881779e+01 4.762366e+01 4.716687e+01 6.607302e+01 6.478751e+01 6.336017e+01 6.347996e+01 6.216433e+01 6.241417e+01 6.147546e+01 6.177534e+01 6.083834e+01 6.066886e+01 5.945484e+01 5.891312e+01 5.783719e+01 5.731573e+01 5.651212e+01 5.594953e+01 5.534473e+01 5.482907e+01 5.452861e+01 5.412072e+01 5.398029e+01 5.345392e+01 5.312129e+01 5.219623e+01 5.152180e+01 5.040683e+01 4.979059e+01 4.889919e+01 4.845937e+01 4.767517e+01 4.719323e+01 4.641990e+01 4.590423e+01 4.524358e+01 4.484132e+01 4.441609e+01 4.406950e+01 4.358963e+01 4.291660e+01 4.215587e+01 4.120849e+01 4.035747e+01 3.931804e+01 3.849687e+01 3.755219e+01 3.703261e+01 3.640297e+01 3.621341e+01 3.577241e+01 3.565230e+01 3.508437e+01 3.463967e+01 3.365916e+01 3.287725e+01 3.183074e+01 3.116861e+01 3.041885e+01 3.001410e+01 2.963163e+01 2.940401e+01 2.906973e+01 2.841035e+01 2.759703e+01 2.639992e+01 2.556161e+01 2.455227e+01 2.428606e+01 2.372688e+01 2.388189e+01 2.329603e+01 2.313207e+01 2.196389e+01 2.133794e+01 2.006960e+01 1.961892e+01 1.880048e+01 1.861550e+01 1.812278e+01 1.780319e+01 1.725847e+01 1.646964e+01 1.590773e+01 1.493537e+01 1.467587e+01 1.351910e+01 1.330085e+01 1.186611e+01 1.191043e+01 1.072222e+01 1.127890e+01 1.032252e+01 1.088175e+01 9.675654e+00 9.578805e+00 7.880170e+00 7.144442e+00 5.721207e+00 5.130130e+00 4.705883e+00 4.166249e+00 4.407112e+00 3.026190e+00 4.208585e+00 3.941076e-01 0 0 0 0 
0 0 0 0 0 -3.945202e+00 -5.174902e+00 -4.153529e+00 -7.263034e+00 -5.385462e+00 -8.873783e+00 -6.653054e+00 -1.025270e+01 -6.036596e+00 1.138047e+01 2.360268e+01 3.551214e+01 4.902595e+01 6.194109e+01 7.199274e+01 9.187844e+01 9.376446e+01 9.169932e+01 9.187273e+01 8.996931e+01 9.033096e+01 8.897285e+01 8.940684e+01 8.805111e+01 8.780590e+01 8.604926e+01 8.526541e+01 8.370853e+01 8.295398e+01 8.179113e+01 8.097706e+01 8.010190e+01 7.935574e+01 7.892099e+01 7.833079e+01 7.812759e+01 7.736595e+01 7.688464e+01 7.554608e+01 7.457016e+01 7.295676e+01 7.206501e+01 7.077510e+01 7.013865e+01 6.900383e+01 6.830641e+01 6.718731e+01 6.644107e+01 6.548501e+01 6.490290e+01 6.428752e+01 6.378596e+01 6.309152e+01 6.211755e+01 6.101666e+01 5.964566e+01 5.841408e+01 5.690985e+01 5.572145e+01 5.435432e+01 5.360239e+01 5.269116e+01 5.241683e+01 5.177860e+01 5.160478e+01 5.078283e+01 5.013924e+01 4.872017e+01 4.758853e+01 4.607392e+01 4.511563e+01 4.403049e+01 4.344468e+01 4.289113e+01 4.256168e+01 4.207788e+01 4.112356e+01 3.994642e+01 3.821383e+01 3.700051e+01 3.553966e+01 3.515437e+01 3.434504e+01 3.456940e+01 3.372142e+01 3.348408e+01 3.179322e+01 3.088719e+01 2.905129e+01 2.839891e+01 2.721420e+01 2.694641e+01 2.623318e+01 2.577057e+01 2.498210e+01 2.384035e+01 2.302704e+01 2.161966e+01 2.124411e+01 1.956979e+01 1.925393e+01 1.717717e+01 1.724132e+01 1.552127e+01 1.632692e+01 1.494232e+01 1.575153e+01 1.400531e+01 1.386479e+01 1.140548e+01 1.034022e+01 8.279584e+00 7.423746e+00 6.809302e+00 6.027690e+00 6.375868e+00 4.378211e+00 6.091880e+00 5.704957e-01 0 0 0 0 
0 0 0 0 0 -1.341830e+00 -1.763496e+00 -1.417907e+00 -2.471982e+00 -1.831686e+00 -3.017720e+00 -2.262998e+00 -3.487394e+00 -2.054128e+00 3.868145e+00 8.023127e+00 1.207152e+01 1.666431e+01 2.105376e+01 2.446918e+01 3.122564e+01 3.186660e+01 3.116503e+01 3.122398e+01 3.057741e+01 3.070035e+01 3.023900e+01 3.038649e+01 2.992591e+01 2.984260e+01 2.924578e+01 2.897945e+01 2.845047e+01 2.819409e+01 2.779898e+01 2.752238e+01 2.722502e+01 2.697150e+01 2.682379e+01 2.662326e+01 2.655423e+01 2.629545e+01 2.613192e+01 2.567711e+01 2.534551e+01 2.479731e+01 2.449430e+01 2.405600e+01 2.383973e+01 2.345412e+01 2.321713e+01 2.283685e+01 2.258327e+01 2.225838e+01 2.206057e+01 2.185145e+01 2.168102e+01 2.144503e+01 2.111406e+01 2.073995e+01 2.027406e+01 1.985553e+01 1.934436e+01 1.894049e+01 1.847589e+01 1.822036e+01 1.791069e+01 1.781746e+01 1.760056e+01 1.754148e+01 1.726214e+01 1.704341e+01 1.656112e+01 1.617652e+01 1.566175e+01 1.533606e+01 1.496725e+01 1.476814e+01 1.458000e+01 1.446803e+01 1.430359e+01 1.397926e+01 1.357917e+01 1.299030e+01 1.257792e+01 1.208140e+01 1.195045e+01 1.167536e+01 1.175162e+01 1.146339e+01 1.138271e+01 1.080796e+01 1.049998e+01 9.875897e+00 9.654125e+00 9.251383e+00 9.160334e+00 8.917868e+00 8.760613e+00 8.492586e+00 8.104506e+00 7.828054e+00 7.349689e+00 7.222062e+00 6.652950e+00 6.545602e+00 5.839646e+00 5.861444e+00 5.276678e+00 5.550488e+00 5.079686e+00 5.354641e+00 4.760842e+00 4.712914e+00 3.876641e+00 3.514374e+00 2.813642e+00 2.522586e+00 2.313545e+00 2.047608e+00 2.165739e+00 1.487254e+00 2.070838e+00 1.939452e-01 0 0 0 0 
0 0 0 0 0 0 0 0 0 0 0 0 0 0 0 0 0 0 0 0 0 0 0 0 0 0 0 0 0 0 0 0 0 0 0 0 0 0 0 0 0 0 0 0 0 0 0 0 0 0 0 0 0 0 0 0 0 0 0 0 0 0 0 0 0 0 0 0 0 0 0 0 0 0 0 0 0 0 0 0 0 0 0 0 0 0 0 0 0 0 0 0 0 0 0 0 0 0 0 0 0 0 0 0 0 0 0 0 0 0 0 0 0 0 0 0 0 0 0 0 0 0 0 0 0 0 0 0 
