# vtk DataFile Version 2.0
Comment goes here
ASCII

DATASET STRUCTURED_POINTS
FIELD FieldData 1
TIME 1 1 double
0.74000000
DIMENSIONS    128   16   1

ORIGIN    0.000   0.000   0.000
SPACING   0.0078125 0.015625   1.000

POINT_DATA   2048
SCALARS fY double
LOOKUP_TABLE default

0 0 0 0 0 0 0 0 0 0 0 0 0 0 0 0 0 0 0 0 0 0 0 0 0 0 0 0 0 0 0 0 0 0 0 0 0 0 0 0 0 0 0 0 0 0 0 0 0 0 0 0 0 0 0 0 0 0 0 0 0 0 0 0 0 0 0 0 0 0 0 0 0 0 0 0 0 0 0 0 0 0 0 0 0 0 0 0 0 0 0 0 0 0 0 0 0 0 0 0 0 0 0 0 0 0 0 0 0 0 0 0 0 0 0 0 0 0 0 0 0 0 0 0 0 0 0 0 
0 0 0 0 0 0 0 0 0 0 0 0 0 0 0 0 0 0 0 0 0 0 0 0 0 0 0 0 0 0 0 0 0 0 0 0 0 0 0 0 0 0 0 0 0 0 0 0 0 0 0 0 0 0 0 0 0 0 0 0 0 0 0 0 0 0 0 0 0 0 0 0 0 0 0 0 0 0 0 0 0 0 0 0 0 0 0 0 0 0 0 0 0 0 0 0 0 0 0 0 0 0 0 0 0 0 0 0 0 0 0 0 0 0 0 0 0 0 0 0 0 0 0 0 0 0 0 0 
0 0 0 0 0 4.771709e-01 1.477674e+00 1.115046e+00 1.935669e+00 1.558106e+00 2.377520e+00 1.921620e+00 2.753919e+00 1.581204e+00 -3.165877e+00 -5.829110e+00 -9.862806e+00 -1.361290e+01 -1.709192e+01 -2.072987e+01 -2.513757e+01 -2.592109e+01 -2.541363e+01 -2.548219e+01 -2.505840e+01 -2.500910e+01 -2.470598e+01 -2.457879e+01 -2.435891e+01 -2.412674e+01 -2.392575e+01 -2.359033e+01 -2.339952e+01 -2.302623e+01 -2.288322e+01 -2.253641e+01 -2.242324e+01 -2.208325e+01 -2.194809e+01 -2.162722e+01 -2.148580e+01 -2.120514e+01 -2.102322e+01 -2.073392e+01 -2.047441e+01 -2.018070e+01 -1.988592e+01 -1.963620e+01 -1.935970e+01 -1.917348e+01 -1.891857e+01 -1.875358e+01 -1.848571e+01 -1.829997e+01 -1.800975e+01 -1.778791e+01 -1.721858e+01 -1.585167e+01 -1.536229e+01 -1.631307e+01 -1.549771e+01 -1.517018e+01 -1.554928e+01 -1.446941e+01 -1.555912e+01 -1.479564e+01 -1.312288e+01 -1.360701e+01 -1.396448e+01 -1.461987e+01 -1.548417e+01 -1.492895e+01 -1.390552e+01 -1.360334e+01 -1.322682e+01 -1.299341e+01 -1.261563e+01 -1.246482e+01 -1.212794e+01 -1.202552e+01 -1.167689e+01 -1.154421e+01 -1.115356e+01 -1.096758e+01 -1.058608e+01 -1.041072e+01 -1.013878e+01 -9.992728e+00 -9.787433e+00 -9.540348e+00 -9.301461e+00 -8.908777e+00 -8.689191e+00 -8.253069e+00 -8.155356e+00 -7.743332e+00 -7.747837e+00 -7.309215e+00 -7.318590e+00 -6.830064e+00 -6.813215e+00 -6.318001e+00 -6.255733e+00 -5.799586e+00 -5.682115e+00 -5.318567e+00 -5.112970e+00 -4.841598e+00 -4.505459e+00 -4.360839e+00 -3.932320e+00 -3.960177e+00 -3.453139e+00 -3.607361e+00 -2.990726e+00 -3.170121e+00 -2.439189e+00 -2.573646e+00 -1.842086e+00 -1.912563e+00 -1.348985e+00 -1.229515e+00 -1.142873e+00 5.242775e-01 0 0 0 0 
0 0 0 0 0 1.403319e+00 4.345398e+00 3.278516e+00 5.692037e+00 4.581010e+00 6.990017e+00 5.648169e+00 8.095107e+00 4.645640e+00 -9.314737e+00 -1.714804e+01 -2.901352e+01 -4.004653e+01 -5.028252e+01 -6.098779e+01 -7.395855e+01 -7.626409e+01 -7.477059e+01 -7.497238e+01 -7.372519e+01 -7.358014e+01 -7.268811e+01 -7.231382e+01 -7.166675e+01 -7.098347e+01 -7.039195e+01 -6.940482e+01 -6.884326e+01 -6.774467e+01 -6.732380e+01 -6.630314e+01 -6.597011e+01 -6.496955e+01 -6.457181e+01 -6.362756e+01 -6.321142e+01 -6.238553e+01 -6.185017e+01 -6.099886e+01 -6.023522e+01 -5.937094e+01 -5.850348e+01 -5.776864e+01 -5.695502e+01 -5.640703e+01 -5.565693e+01 -5.517142e+01 -5.438319e+01 -5.383664e+01 -5.298264e+01 -5.232989e+01 -5.123548e+01 -4.966187e+01 -4.843428e+01 -4.883071e+01 -4.835837e+01 -4.807763e+01 -4.809935e+01 -4.563756e+01 -4.598420e+01 -4.539104e+01 -4.493012e+01 -4.494646e+01 -4.384516e+01 -4.317013e+01 -4.283683e+01 -4.198469e+01 -4.077542e+01 -4.001747e+01 -3.890966e+01 -3.822291e+01 -3.711141e+01 -3.666768e+01 -3.567655e+01 -3.537522e+01 -3.434955e+01 -3.395920e+01 -3.280993e+01 -3.226280e+01 -3.114047e+01 -3.062457e+01 -2.982457e+01 -2.939491e+01 -2.879096e+01 -2.806403e+01 -2.736124e+01 -2.620595e+01 -2.555993e+01 -2.427687e+01 -2.398939e+01 -2.277726e+01 -2.279052e+01 -2.150023e+01 -2.152788e+01 -2.009088e+01 -2.004144e+01 -1.858486e+01 -1.840184e+01 -1.706022e+01 -1.671479e+01 -1.564552e+01 -1.504076e+01 -1.424254e+01 -1.325365e+01 -1.282814e+01 -1.156741e+01 -1.164914e+01 -1.015744e+01 -1.061091e+01 -8.796980e+00 -9.324752e+00 -7.175148e+00 -7.571782e+00 -5.423181e+00 -5.640185e+00 -4.015023e+00 -3.671427e+00 -3.380891e+00 1.541654e+00 0 0 0 0 
0 0 0 0 0 9.692932e-01 3.001276e+00 2.264161e+00 3.931282e+00 3.163566e+00 4.827106e+00 3.899745e+00 5.589501e+00 7.058065e+00 -9.111778e+00 -8.473943e+00 -2.407416e+01 -2.316078e+01 -3.928479e+01 -3.766028e+01 -5.444874e+01 -5.269241e+01 -5.166030e+01 -5.179976e+01 -5.093789e+01 -5.083767e+01 -5.022125e+01 -4.996260e+01 -4.951546e+01 -4.904327e+01 -4.863450e+01 -4.795233e+01 -4.756426e+01 -4.680507e+01 -4.651422e+01 -4.580891e+01 -4.557877e+01 -4.488735e+01 -4.461250e+01 -4.396001e+01 -4.367245e+01 -4.310175e+01 -4.273181e+01 -4.214356e+01 -4.161587e+01 -4.101866e+01 -4.041923e+01 -3.991147e+01 -3.934925e+01 -3.897059e+01 -3.845227e+01 -3.811679e+01 -3.757213e+01 -3.719447e+01 -3.660437e+01 -3.615334e+01 -3.590465e+01 -3.696938e+01 -3.690282e+01 -3.458494e+01 -3.492125e+01 -3.410005e+01 -3.293048e+01 -3.422826e+01 -3.224897e+01 -3.191059e+01 -3.312712e+01 -3.115483e+01 -3.060928e+01 -2.940766e+01 -2.795978e+01 -2.803015e+01 -2.811336e+01 -2.764609e+01 -2.688066e+01 -2.640617e+01 -2.563820e+01 -2.533162e+01 -2.464683e+01 -2.443864e+01 -2.373000e+01 -2.346032e+01 -2.266630e+01 -2.228830e+01 -2.151292e+01 -2.115649e+01 -2.060380e+01 -2.030696e+01 -1.988970e+01 -1.938747e+01 -1.890193e+01 -1.810374e+01 -1.765741e+01 -1.677096e+01 -1.657233e+01 -1.573491e+01 -1.574407e+01 -1.485268e+01 -1.487181e+01 -1.387912e+01 -1.384503e+01 -1.283885e+01 -1.271249e+01 -1.178575e+01 -1.154718e+01 -1.080856e+01 -1.039079e+01 -9.839378e+00 -9.156174e+00 -8.862174e+00 -7.991128e+00 -8.047493e+00 -7.016883e+00 -7.330064e+00 -6.076935e+00 -6.441565e+00 -4.956805e+00 -5.231350e+00 -3.748664e+00 -3.903271e+00 -2.796392e+00 -2.562824e+00 -2.344829e+00 1.064745e+00 0 0 0 0 
0 0 0 0 0 4.314493e-02 1.335529e-01 1.006908e-01 1.749142e-01 1.406623e-01 2.146085e-01 1.731963e-01 2.483138e-01 3.072578e+00 -3.056831e+00 2.328927e+00 -4.864087e+00 3.161187e+00 -5.748078e+00 2.754846e+00 -4.764087e+00 -2.349414e+00 -2.303337e+00 -2.309566e+00 -2.271098e+00 -2.266628e+00 -2.239119e+00 -2.227576e+00 -2.207620e+00 -2.186542e+00 -2.168297e+00 -2.137845e+00 -2.120522e+00 -2.086634e+00 -2.073651e+00 -2.042170e+00 -2.031898e+00 -2.001042e+00 -1.988776e+00 -1.959660e+00 -1.946829e+00 -1.921365e+00 -1.904858e+00 -1.878612e+00 -1.855066e+00 -1.828421e+00 -1.801675e+00 -1.779021e+00 -1.753936e+00 -1.737043e+00 -1.713917e+00 -1.698950e+00 -1.674651e+00 -1.657803e+00 -1.631479e+00 -1.611359e+00 -1.820866e+00 -2.683337e+00 -3.205250e+00 -1.421852e+00 -1.506152e+00 -7.619295e-01 2.968497e-01 -2.307863e+00 -9.263860e-01 -6.889438e-01 -6.827444e-01 7.591540e-01 -2.399306e-01 1.977461e-02 3.055532e-01 -4.055068e-01 -1.152498e+00 -1.231954e+00 -1.197822e+00 -1.176664e+00 -1.142420e+00 -1.128750e+00 -1.098219e+00 -1.088937e+00 -1.057346e+00 -1.045325e+00 -1.009932e+00 -9.930840e-01 -9.585252e-01 -9.426392e-01 -9.180075e-01 -9.047771e-01 -8.861802e-01 -8.637914e-01 -8.421494e-01 -8.065668e-01 -7.866707e-01 -7.471564e-01 -7.383001e-01 -7.009765e-01 -7.013853e-01 -6.616660e-01 -6.625268e-01 -6.183052e-01 -6.168022e-01 -5.719907e-01 -5.663797e-01 -5.251126e-01 -5.144985e-01 -4.816082e-01 -4.629988e-01 -4.384367e-01 -4.079850e-01 -3.948745e-01 -3.560419e-01 -3.585275e-01 -3.125854e-01 -3.265156e-01 -2.706805e-01 -2.869337e-01 -2.208452e-01 -2.332142e-01 -1.675689e-01 -1.756490e-01 -1.303534e-01 -1.209129e-01 -1.068109e-01 4.736879e-02 0 0 0 0 
0 0 0 0 0 0 0 0 0 0 0 0 0 1.439599e+00 -4.439194e-01 1.491627e+00 -1.218383e+00 1.337407e+00 -1.577621e+00 7.053028e-01 -1.508247e+00 0 0 0 0 0 0 0 0 0 0 0 0 0 0 0 0 0 0 0 0 0 0 0 0 0 0 0 0 0 0 0 0 0 0 0 4.417574e-02 2.172836e-01 1.845455e-01 3.776437e-01 4.797819e-01 4.483361e-01 6.387508e-01 5.454653e-01 6.792867e-01 4.918052e-01 5.948612e-01 6.463807e-01 5.250050e-01 7.180644e-01 7.760470e-01 5.754545e-01 9.797975e-02 0 0 0 0 0 0 0 0 0 0 0 0 0 0 0 0 0 0 0 0 0 0 0 0 0 0 0 0 0 0 0 0 0 0 0 0 0 0 0 0 0 0 0 0 0 0 0 0 0 0 0 0 0 0 0 
0 0 0 0 0 0 0 0 0 0 0 0 0 6.981495e-01 -4.264336e-01 8.827643e-01 -8.739752e-01 9.473336e-01 -9.827247e-01 6.250699e-01 -7.524854e-01 0 0 0 0 0 0 0 0 0 0 0 0 0 0 0 0 0 0 0 0 0 0 0 0 0 0 0 0 0 0 0 0 0 0 0 -2.270723e-02 -2.585709e-01 -4.410259e-01 -2.678028e-01 -7.465794e-02 1.766696e-02 -3.850949e-02 -2.067806e-01 -2.182113e-01 -1.344428e-01 -4.227654e-02 7.184744e-02 3.634591e-02 -1.591020e-01 -1.366245e-01 6.542233e-03 7.024584e-03 0 0 0 0 0 0 0 0 0 0 0 0 0 0 0 0 0 0 0 0 0 0 0 0 0 0 0 0 0 0 0 0 0 0 0 0 0 0 0 0 0 0 0 0 0 0 0 0 0 0 0 0 0 0 0 
0 0 0 0 0 0 0 0 0 0 0 0 0 -1.639761e-03 -2.980255e-03 -2.872822e-03 -5.304720e-03 -4.836623e-03 -8.800591e-03 -7.981342e-03 -1.356931e-02 0 0 0 0 0 0 0 0 0 0 0 0 0 0 0 0 0 0 0 0 0 0 0 0 0 0 0 0 0 0 0 0 0 0 0 0 0 0 0 0 0 0 0 0 0 0 0 0 0 0 0 0 0 0 0 0 0 0 0 0 0 0 0 0 0 0 0 0 0 0 0 0 0 0 0 0 0 0 0 0 0 0 0 0 0 0 0 0 0 0 0 0 0 0 0 0 0 0 0 0 0 0 0 0 0 0 0 
0 0 0 0 0 0 0 0 0 0 0 0 0 -7.005189e-01 4.230994e-01 -8.853610e-01 8.673746e-01 -9.520576e-01 9.700961e-01 -6.357728e-01 7.317816e-01 0 0 0 0 0 0 0 0 0 0 0 0 0 0 0 0 0 0 0 0 0 0 0 0 0 0 0 0 0 0 0 0 0 0 0 0 0 0 0 0 0 0 0 0 0 0 0 0 0 0 0 0 0 0 0 0 0 0 0 0 0 0 0 0 0 0 0 0 0 0 0 0 0 0 0 0 0 0 0 0 0 0 0 0 0 0 0 0 0 0 0 0 0 0 0 0 0 0 0 0 0 0 0 0 0 0 0 
0 0 0 0 0 0 0 0 0 0 0 0 0 -1.441613e+00 4.418440e-01 -1.494399e+00 1.212460e+00 -1.342357e+00 1.564582e+00 -7.169387e-01 1.482631e+00 0 0 0 0 0 0 0 0 0 0 0 0 0 0 0 0 0 0 0 0 0 0 0 0 0 0 0 0 0 0 0 0 0 0 0 0 0 0 0 0 0 0 0 0 0 0 0 0 0 0 0 0 0 0 0 0 0 0 0 0 0 0 0 0 0 0 0 0 0 0 0 0 0 0 0 0 0 0 0 0 0 0 0 0 0 0 0 0 0 0 0 0 0 0 0 0 0 0 0 0 0 0 0 0 0 0 0 
0 0 0 0 0 -4.309673e-02 -1.332793e-01 -9.981231e-02 -1.736122e-01 -1.393211e-01 -2.137393e-01 -1.729241e-01 -2.485361e-01 -3.078973e+00 3.067582e+00 -2.323187e+00 4.868993e+00 -3.150305e+00 5.742970e+00 -2.744212e+00 4.759983e+00 2.351764e+00 2.307112e+00 2.315654e+00 2.278725e+00 2.273969e+00 2.243160e+00 2.225956e+00 2.199567e+00 2.173022e+00 2.152620e+00 2.123923e+00 2.112635e+00 2.085993e+00 2.079271e+00 2.050610e+00 2.040247e+00 2.006971e+00 1.989866e+00 1.954153e+00 1.933081e+00 1.902397e+00 1.884288e+00 1.863437e+00 1.847318e+00 1.830469e+00 1.809563e+00 1.790624e+00 1.763312e+00 1.742417e+00 1.712875e+00 1.693072e+00 1.665254e+00 1.647042e+00 1.621961e+00 1.603906e+00 1.580275e+00 1.558852e+00 1.534545e+00 1.510182e+00 1.489214e+00 1.467050e+00 1.450027e+00 1.426981e+00 1.408373e+00 1.380847e+00 1.359791e+00 1.330965e+00 1.310564e+00 1.286378e+00 1.269079e+00 1.250767e+00 1.232804e+00 1.215589e+00 1.191172e+00 1.171554e+00 1.139939e+00 1.120722e+00 1.088278e+00 1.074497e+00 1.043948e+00 1.031977e+00 1.000422e+00 9.869448e-01 9.565933e-01 9.415686e-01 9.139872e-01 8.949574e-01 8.707669e-01 8.466576e-01 8.273142e-01 7.976587e-01 7.838311e-01 7.485686e-01 7.398315e-01 6.993925e-01 6.953968e-01 6.526445e-01 6.526429e-01 6.091261e-01 6.091828e-01 5.668277e-01 5.643667e-01 5.258997e-01 5.160906e-01 4.824739e-01 4.630377e-01 4.396896e-01 4.114561e-01 4.000012e-01 3.598321e-01 3.583434e-01 3.065180e-01 3.149081e-01 2.556610e-01 2.723086e-01 2.104297e-01 2.287427e-01 1.684077e-01 1.792793e-01 1.346805e-01 1.238699e-01 1.078513e-01 -4.730714e-02 0 0 0 0 
0 0 0 0 0 -9.682098e-01 -2.995129e+00 -2.244429e+00 -3.902041e+00 -3.133451e+00 -4.807602e+00 -3.893651e+00 -5.594523e+00 -7.054019e+00 9.127697e+00 8.487503e+00 2.409600e+01 2.318207e+01 3.931807e+01 3.769958e+01 5.451547e+01 5.274506e+01 5.174485e+01 5.193614e+01 5.110877e+01 5.100214e+01 5.031180e+01 4.992632e+01 4.933504e+01 4.874035e+01 4.828326e+01 4.764039e+01 4.738755e+01 4.679072e+01 4.664016e+01 4.599803e+01 4.576585e+01 4.502021e+01 4.463692e+01 4.383658e+01 4.336437e+01 4.267668e+01 4.227082e+01 4.180350e+01 4.144223e+01 4.106460e+01 4.059605e+01 4.017158e+01 3.955943e+01 3.909111e+01 3.842895e+01 3.798506e+01 3.736150e+01 3.695327e+01 3.639102e+01 3.598628e+01 3.545650e+01 3.497624e+01 3.443129e+01 3.388509e+01 3.341496e+01 3.291804e+01 3.253636e+01 3.201963e+01 3.160239e+01 3.098517e+01 3.051302e+01 2.986659e+01 2.940912e+01 2.886672e+01 2.847880e+01 2.806812e+01 2.766528e+01 2.727920e+01 2.673161e+01 2.629163e+01 2.558258e+01 2.515158e+01 2.442387e+01 2.411475e+01 2.342948e+01 2.316092e+01 2.245298e+01 2.215060e+01 2.146961e+01 2.113250e+01 2.051364e+01 2.008670e+01 1.954394e+01 1.900310e+01 1.856913e+01 1.790389e+01 1.759372e+01 1.680266e+01 1.660670e+01 1.569937e+01 1.560969e+01 1.465023e+01 1.465001e+01 1.367312e+01 1.367403e+01 1.272296e+01 1.266727e+01 1.180338e+01 1.158286e+01 1.082793e+01 1.039162e+01 9.867480e+00 9.234073e+00 8.977264e+00 8.076251e+00 8.043389e+00 6.880728e+00 7.069534e+00 5.739786e+00 6.113282e+00 4.722997e+00 5.130980e+00 3.767521e+00 3.984736e+00 2.893424e+00 2.629087e+00 2.368143e+00 -1.063358e+00 0 0 0 0 
0 0 0 0 0 -1.401750e+00 -4.336498e+00 -3.249950e+00 -5.649704e+00 -4.537415e+00 -6.961785e+00 -5.639352e+00 -8.102385e+00 -4.650380e+00 9.313231e+00 1.715830e+01 2.902837e+01 4.005308e+01 5.031224e+01 6.101483e+01 7.400286e+01 7.634028e+01 7.489294e+01 7.516973e+01 7.397245e+01 7.381814e+01 7.281914e+01 7.226132e+01 7.140567e+01 7.054513e+01 6.988368e+01 6.895342e+01 6.858755e+01 6.772389e+01 6.750604e+01 6.657682e+01 6.624085e+01 6.516182e+01 6.460715e+01 6.344895e+01 6.276558e+01 6.177038e+01 6.118304e+01 6.050675e+01 5.998393e+01 5.943744e+01 5.875938e+01 5.814508e+01 5.725920e+01 5.658145e+01 5.562319e+01 5.498078e+01 5.407837e+01 5.348758e+01 5.267387e+01 5.208812e+01 5.132141e+01 5.062636e+01 4.983767e+01 4.904719e+01 4.836679e+01 4.764761e+01 4.709522e+01 4.634737e+01 4.574351e+01 4.485021e+01 4.416687e+01 4.323129e+01 4.256919e+01 4.178415e+01 4.122271e+01 4.062832e+01 4.004528e+01 3.948650e+01 3.869396e+01 3.805716e+01 3.703093e+01 3.640711e+01 3.535385e+01 3.490643e+01 3.391458e+01 3.352585e+01 3.250117e+01 3.206349e+01 3.107780e+01 3.058985e+01 2.969407e+01 2.907612e+01 2.829049e+01 2.750768e+01 2.687954e+01 2.591669e+01 2.546775e+01 2.432277e+01 2.403913e+01 2.272582e+01 2.259601e+01 2.120718e+01 2.120682e+01 1.979269e+01 1.979391e+01 1.841711e+01 1.833638e+01 1.708573e+01 1.676644e+01 1.567355e+01 1.504195e+01 1.428321e+01 1.336641e+01 1.299474e+01 1.169064e+01 1.164321e+01 9.960354e+00 1.023378e+01 8.308935e+00 8.849546e+00 6.836694e+00 7.426491e+00 5.450484e+00 5.758105e+00 4.155458e+00 3.767318e+00 3.414628e+00 -1.539645e+00 0 0 0 0 
0 0 0 0 0 -4.766374e-01 -1.474648e+00 -1.105333e+00 -1.921275e+00 -1.543284e+00 -2.367923e+00 -1.918625e+00 -2.756398e+00 -1.582820e+00 3.165363e+00 5.832594e+00 9.867852e+00 1.361512e+01 1.710202e+01 2.073906e+01 2.515262e+01 2.594698e+01 2.545520e+01 2.554925e+01 2.514241e+01 2.508997e+01 2.475050e+01 2.456095e+01 2.427020e+01 2.397779e+01 2.375304e+01 2.343695e+01 2.331263e+01 2.301917e+01 2.294515e+01 2.262941e+01 2.251524e+01 2.214858e+01 2.196010e+01 2.156652e+01 2.133430e+01 2.099610e+01 2.079651e+01 2.056669e+01 2.038902e+01 2.020331e+01 1.997288e+01 1.976413e+01 1.946308e+01 1.923276e+01 1.890711e+01 1.868880e+01 1.838212e+01 1.818135e+01 1.790481e+01 1.770575e+01 1.744518e+01 1.720897e+01 1.694093e+01 1.667228e+01 1.644104e+01 1.619662e+01 1.600889e+01 1.575472e+01 1.554949e+01 1.524589e+01 1.501364e+01 1.469566e+01 1.447063e+01 1.420381e+01 1.401299e+01 1.381097e+01 1.361281e+01 1.342289e+01 1.315352e+01 1.293708e+01 1.258828e+01 1.237625e+01 1.201826e+01 1.186618e+01 1.152905e+01 1.139692e+01 1.104862e+01 1.089984e+01 1.056478e+01 1.039892e+01 1.009442e+01 9.884374e+00 9.617321e+00 9.351240e+00 9.137727e+00 8.810451e+00 8.657859e+00 8.268671e+00 8.172266e+00 7.725844e+00 7.681718e+00 7.209598e+00 7.209451e+00 6.728697e+00 6.729067e+00 6.260974e+00 6.233475e+00 5.808253e+00 5.699667e+00 5.328087e+00 5.113368e+00 4.855423e+00 4.543790e+00 4.417479e+00 3.974219e+00 3.958164e+00 3.386145e+00 3.479157e+00 2.824810e+00 3.008572e+00 2.324127e+00 2.524253e+00 1.851371e+00 1.952648e+00 1.396715e+00 1.262101e+00 1.154337e+00 -5.235942e-01 0 0 0 0 
0 0 0 0 0 0 0 0 0 0 0 0 0 0 0 0 0 0 0 0 0 0 0 0 0 0 0 0 0 0 0 0 0 0 0 0 0 0 0 0 0 0 0 0 0 0 0 0 0 0 0 0 0 0 0 0 0 0 0 0 0 0 0 0 0 0 0 0 0 0 0 0 0 0 0 0 0 0 0 0 0 0 0 0 0 0 0 0 0 0 0 0 0 0 0 0 0 0 0 0 0 0 0 0 0 0 0 0 0 0 0 0 0 0 0 0 0 0 0 0 0 0 0 0 0 0 0 0 
