# vtk DataFile Version 2.0
Comment goes here
ASCII

DATASET STRUCTURED_POINTS
FIELD FieldData 1
TIME 1 1 double
0.80000000
DIMENSIONS    128   16   1

ORIGIN    0.000   0.000   0.000
SPACING   0.0078125 0.015625   1.000

POINT_DATA   2048
SCALARS Omega double
LOOKUP_TABLE default

2.422429e-05 1.675653e-05 8.335138e-06 3.668422e-06 2.389732e-05 5.661827e-05 1.824144e-05 -2.482233e-05 1.902665e-05 -1.253085e-05 2.388282e-06 -2.763215e-05 2.637703e-05 -4.000471e-05 9.801283e-06 -5.451426e-05 2.549404e-06 -3.791455e-05 -1.511241e-05 -2.124313e-06 -4.292637e-05 -8.598962e-05 -3.447065e-05 -1.550773e-05 -2.562658e-05 -1.109481e-05 -3.472427e-05 -2.353728e-07 -3.664314e-05 1.116495e-05 -3.767030e-05 2.130011e-05 -3.695254e-05 3.385958e-05 -2.784833e-05 5.813761e-05 3.546435e-06 1.104515e-04 7.672516e-05 2.094920e-04 2.038577e-04 3.537072e-04 3.559362e-04 4.777809e-04 4.178376e-04 4.212693e-04 1.955043e-04 -3.157224e-06 -4.379705e-04 -7.942102e-04 -1.296995e-03 -1.606821e-03 -2.245168e-03 -3.513727e-03 -5.500100e-03 -4.649423e-03 -9.825133e-03 -5.573574e-02 -6.124212e-02 1.017285e-01 1.684506e-01 9.509713e-03 -9.683417e-02 -1.180369e-01 5.519222e-03 2.044541e-01 1.297113e-01 -3.587263e-02 -1.002362e-01 -1.018712e-01 3.755319e-03 8.212453e-02 3.721632e-02 -5.433860e-03 -1.742409e-03 5.864429e-03 7.875074e-03 7.039394e-03 5.784645e-03 4.332716e-03 3.136799e-03 2.015762e-03 1.266360e-03 6.333210e-04 3.217949e-04 4.659595e-05 -6.068711e-06 -1.044519e-04 -5.694228e-05 -9.413706e-05 -3.235785e-05 -5.481780e-05 -9.120358e-06 -2.613267e-05 -8.946694e-07 -1.020972e-05 -2.155241e-06 -1.146721e-06 -6.357463e-06 5.083445e-06 -9.746812e-06 9.956563e-06 -1.131428e-05 1.376318e-05 -1.145178e-05 1.595874e-05 -1.094364e-05 1.611998e-05 -1.069394e-05 1.399589e-05 -1.109129e-05 9.936823e-06 -1.197812e-05 5.396390e-06 -1.237068e-05 2.042169e-06 -1.148232e-05 5.414725e-07 -9.645152e-06 -4.388639e-08 -1.122864e-05 1.491708e-06 -1.018564e-06 2.964104e-05 3.893966e-05 3.345527e-05 3.239161e-05 2.970467e-05 
-4.588340e-03 -5.100800e-03 3.304692e-03 2.862502e-02 -1.013976e-01 -8.625101e-01 7.780203e-02 2.312781e-01 -2.109534e-01 -1.139922e-02 -1.055215e-01 2.160369e-01 -8.672449e-03 -3.200126e-01 -3.543815e-01 -5.866224e-02 -4.360917e-01 -1.883324e-01 -2.993286e-01 -4.281240e-01 -2.019419e-01 8.871866e-02 1.278983e-01 -5.263425e-02 -6.348610e-02 -8.503470e-02 -5.801904e-02 -8.270125e-02 -5.590658e-02 -8.352568e-02 -5.531603e-02 -8.403507e-02 -5.547707e-02 -8.383112e-02 -5.622909e-02 -8.284815e-02 -5.746874e-02 -8.113402e-02 -5.911258e-02 -7.877154e-02 -6.105487e-02 -7.588089e-02 -6.318681e-02 -7.260559e-02 -6.536286e-02 -6.911899e-02 -6.736096e-02 -6.547711e-02 -6.856950e-02 -6.128326e-02 -6.776984e-02 -5.582497e-02 -6.529217e-02 -5.281049e-02 -5.151096e-02 7.738969e-03 1.692978e-02 -2.874865e-01 -3.315330e-01 1.452393e+00 2.203249e+00 1.783294e-01 -7.138727e-01 -8.626529e-01 3.780511e-01 2.688060e+00 1.383669e+00 -6.320206e-01 -1.178298e+00 -1.215809e+00 1.618549e-01 1.433972e+00 9.477483e-01 1.255310e-01 -5.828057e-02 -6.890738e-02 -5.281885e-02 -6.026532e-02 -5.541913e-02 -6.354584e-02 -6.001752e-02 -6.587773e-02 -6.337395e-02 -6.707208e-02 -6.551161e-02 -6.752818e-02 -6.668544e-02 -6.777095e-02 -6.712006e-02 -6.815218e-02 -6.696347e-02 -6.886751e-02 -6.624693e-02 -7.005021e-02 -6.495645e-02 -7.174146e-02 -6.312027e-02 -7.386229e-02 -6.090079e-02 -7.622174e-02 -5.852369e-02 -7.853249e-02 -5.631483e-02 -8.039690e-02 -5.471564e-02 -8.134092e-02 -5.417990e-02 -8.087377e-02 -5.516298e-02 -7.848142e-02 -5.799484e-02 -7.369544e-02 -6.272671e-02 -6.597275e-02 -6.894426e-02 -5.450511e-02 -7.544926e-02 -3.745177e-02 -7.993111e-02 -8.722202e-03 -8.329456e-02 1.528877e-01 -9.554392e-02 -3.067124e-01 -5.339248e-02 -2.569624e-02 -1.517805e-02 -6.629598e-03 
-6.425300e-03 -3.756683e-03 6.319063e-02 3.421780e-01 -3.749800e-02 -2.597390e+00 5.157690e-01 9.069366e-01 -3.265022e-01 1.914861e-01 -1.034540e-01 3.143673e-01 -9.633194e-01 -2.334459e-02 -3.185708e-01 -3.582069e-02 -3.065807e-01 1.229278e-02 -3.056011e-01 -1.005067e-02 -2.858436e-01 -7.531044e-01 5.997916e-02 3.051279e-02 -2.459057e-02 -1.594939e-02 -1.171828e-02 -1.715600e-02 4.359661e-03 -2.462050e-02 1.451643e-02 -3.507358e-02 2.076845e-02 -4.361568e-02 2.625278e-02 -4.678756e-02 3.164029e-02 -4.506562e-02 3.384893e-02 -4.192899e-02 2.995113e-02 -3.854938e-02 2.114733e-02 -3.299465e-02 1.100044e-02 -2.322211e-02 1.891714e-03 -1.086982e-02 -7.548895e-03 -5.680989e-04 -1.859061e-02 4.598808e-03 -3.229666e-02 5.152596e-03 1.795990e-02 2.497009e-01 5.706718e-01 7.791909e-01 2.446067e-02 -6.844832e-02 1.675119e-01 -2.966637e-01 6.685572e-01 5.606210e-01 -2.906501e-01 2.974714e-01 -3.089362e-01 1.663118e-01 9.284378e-01 3.019002e-01 2.849757e-01 7.385593e-01 4.887735e-01 -1.676146e-02 -3.505853e-02 -5.662043e-02 -2.876538e-05 -3.275206e-02 6.154498e-03 -2.105322e-02 4.031534e-03 -1.176823e-02 -2.203287e-03 -2.772147e-03 -8.389701e-03 6.861317e-03 -1.294488e-02 1.520351e-02 -1.625071e-02 1.923240e-02 -1.881292e-02 1.824059e-02 -1.797891e-02 1.382958e-02 -1.158363e-02 6.308126e-03 3.376790e-04 -4.785081e-03 1.526500e-02 -2.068816e-02 3.061042e-02 -3.900976e-02 4.663525e-02 -5.530622e-02 6.188916e-02 -6.665875e-02 7.302947e-02 -7.158185e-02 7.514723e-02 -6.884084e-02 6.579510e-02 -5.456280e-02 4.500055e-02 -2.617321e-02 1.195831e-02 1.766803e-02 -3.322781e-02 8.135468e-02 -8.955379e-02 1.897619e-01 -1.789601e-01 7.741471e-01 -7.190688e-01 -7.512751e-01 7.985020e-01 1.157696e-01 -3.146788e-02 -1.593747e-02 
-4.824452e-03 -6.655362e-03 1.401684e-01 8.822171e-01 8.039576e-01 -1.795226e+00 8.624084e-02 4.268430e-01 1.196782e-02 1.353521e-01 4.464416e-02 6.659358e-03 6.189019e-01 2.730373e-01 3.227159e-01 2.690209e-01 3.450813e-01 2.647501e-01 3.160336e-01 3.181886e-01 2.365054e-01 7.049374e-01 -5.204787e-02 1.801220e-01 6.451103e-04 1.829367e-01 1.554988e-02 1.598256e-01 3.555871e-02 1.344588e-01 5.270471e-02 1.024961e-01 6.676225e-02 7.359806e-02 8.458455e-02 5.652545e-02 1.068081e-01 4.958739e-02 1.234416e-01 4.270294e-02 1.248970e-01 3.288852e-02 1.135945e-01 2.625963e-02 9.826272e-02 2.917405e-02 8.336173e-02 3.645501e-02 6.006930e-02 3.211281e-02 1.736042e-02 4.360151e-03 -4.781213e-02 -5.141117e-02 -1.502885e-01 -2.258711e-01 -4.666866e-01 -4.238381e-01 -2.566004e-01 -7.136129e-01 -1.077297e+00 -2.348819e-01 -4.394291e-01 -2.947981e-01 -3.776209e-01 -1.246116e+00 -5.845859e-01 -1.665305e-01 -2.655584e-01 -8.453964e-02 -4.332716e-01 -1.007312e+00 -7.062785e-01 -3.175575e-01 -9.500470e-02 -1.101794e-01 -6.297487e-03 -4.027944e-02 3.980290e-02 1.061879e-02 5.594920e-02 4.573139e-02 5.330096e-02 7.566117e-02 4.576288e-02 1.057597e-01 3.869686e-02 1.325584e-01 3.117403e-02 1.483655e-01 2.202375e-02 1.517510e-01 1.905873e-02 1.480475e-01 2.860024e-02 1.382866e-01 5.087735e-02 1.204336e-01 7.977135e-02 8.942036e-02 1.093920e-01 5.025814e-02 1.428830e-01 1.329257e-02 1.791276e-01 -1.606908e-02 2.114353e-01 -3.663326e-02 2.284343e-01 -4.799609e-02 2.251487e-01 -4.133810e-02 2.022345e-01 -1.157165e-02 1.553609e-01 4.153928e-02 7.775204e-02 1.185084e-01 -4.622028e-02 2.359376e-01 -2.825275e-01 6.611822e-01 -2.061668e+00 -7.088467e-02 2.774357e+00 4.713203e-01 -2.212727e-02 -1.922971e-02 
1.974944e-03 4.304536e-03 1.306562e-01 7.768794e-01 1.407743e+00 1.671534e+00 -6.452385e-01 -7.055537e-01 4.908198e-01 -2.832643e-02 4.214304e-01 5.795996e-02 2.959917e-01 1.223554e-01 3.844680e-01 1.662854e-01 3.441602e-01 2.044750e-01 2.975092e-01 2.660695e-01 2.345906e-01 1.810010e-01 1.894401e-01 3.823370e-01 1.396406e-01 3.289843e-01 1.302731e-01 3.089976e-01 1.358056e-01 2.897837e-01 1.429373e-01 2.660444e-01 1.512630e-01 2.433830e-01 1.647709e-01 2.274348e-01 1.832991e-01 2.168890e-01 1.994642e-01 2.047670e-01 2.061493e-01 1.890934e-01 2.044608e-01 1.741071e-01 1.995200e-01 1.640995e-01 1.930815e-01 1.550690e-01 1.767810e-01 1.347993e-01 1.395854e-01 9.200396e-02 7.061937e-02 5.832560e-03 -7.605916e-02 -1.859412e-01 -2.937489e-01 -5.066937e-01 -4.055104e-01 3.385995e-01 3.201816e-01 -8.550242e-02 -5.657806e-01 -6.221075e-01 4.405594e-02 5.087341e-01 3.004780e-01 -5.580939e-01 -7.259898e-01 -6.269889e-01 -1.710012e-01 1.154100e-01 9.965101e-02 -2.630899e-02 -9.271153e-03 1.799973e-02 8.664734e-02 9.394233e-02 1.391573e-01 1.396159e-01 1.617685e-01 1.692989e-01 1.676051e-01 1.933941e-01 1.673957e-01 2.168528e-01 1.652455e-01 2.381694e-01 1.606580e-01 2.524596e-01 1.531071e-01 2.589490e-01 1.481628e-01 2.615236e-01 1.503332e-01 2.608829e-01 1.600690e-01 2.552400e-01 1.738245e-01 2.404050e-01 1.883719e-01 2.189376e-01 2.069465e-01 1.968015e-01 2.301161e-01 1.764109e-01 2.545205e-01 1.573373e-01 2.734740e-01 1.386659e-01 2.843190e-01 1.257157e-01 2.876684e-01 1.216025e-01 2.801614e-01 1.266898e-01 2.567521e-01 1.421177e-01 2.106203e-01 1.803820e-01 1.518407e-01 1.955400e-02 -1.119974e+00 1.171673e+00 2.055967e+00 2.035381e-01 -5.908114e-02 -1.793239e-02 
2.597892e-03 -1.541927e-03 -4.382247e-03 1.220762e-01 7.155059e-01 1.978107e+00 -2.417089e-01 -5.030682e-01 3.837474e-01 5.032124e-02 4.256557e-01 3.010290e-01 -2.611160e-01 -9.411151e-02 5.369372e-02 4.455940e-02 5.157922e-02 4.828229e-02 4.693062e-02 5.372969e-02 -9.630935e-02 -1.965140e-01 3.003671e-01 2.692012e-01 1.853801e-01 2.467588e-01 1.959878e-01 2.543091e-01 1.973040e-01 2.538681e-01 1.963973e-01 2.512896e-01 1.963477e-01 2.478869e-01 1.977222e-01 2.441189e-01 2.003151e-01 2.398853e-01 2.034680e-01 2.347765e-01 2.064708e-01 2.285804e-01 2.088708e-01 2.212143e-01 2.101028e-01 2.124042e-01 2.091323e-01 2.013175e-01 2.041373e-01 1.868280e-01 1.933352e-01 1.672248e-01 1.726034e-01 1.557393e-01 2.756596e-01 5.565077e-01 1.052953e+00 1.410474e+00 4.870268e-01 -6.981553e-02 2.493571e-01 -1.704257e-03 1.276290e+00 1.138140e+00 -1.870024e-02 2.149032e-01 -9.842614e-02 7.939682e-01 1.637665e+00 8.605661e-01 6.452272e-01 1.099718e+00 8.752968e-01 2.318977e-01 1.443657e-01 1.841243e-01 1.864527e-01 1.994199e-01 1.963171e-01 2.064220e-01 2.039804e-01 2.118656e-01 2.092487e-01 2.161054e-01 2.126150e-01 2.197981e-01 2.144189e-01 2.232918e-01 2.147440e-01 2.265803e-01 2.137854e-01 2.297542e-01 2.119692e-01 2.331062e-01 2.096556e-01 2.366727e-01 2.070930e-01 2.401691e-01 2.045348e-01 2.430382e-01 2.023171e-01 2.449160e-01 2.011559e-01 2.454405e-01 2.017696e-01 2.440373e-01 2.046462e-01 2.400692e-01 2.100888e-01 2.329770e-01 2.184367e-01 2.228419e-01 2.300517e-01 2.102255e-01 2.454745e-01 1.969675e-01 2.669756e-01 1.880626e-01 3.031844e-01 1.941494e-01 3.907925e-01 -3.065673e-02 2.816605e-01 8.516053e-01 2.616946e-01 -3.622035e-02 -3.027461e-02 -4.447998e-03 
4.462584e-04 3.664062e-03 1.274168e-03 -8.199027e-04 4.768495e-02 2.074146e-01 8.404282e-02 1.759727e-02 8.338149e-02 9.442294e-02 2.653176e-01 5.439221e-01 -2.004698e-01 -3.076834e-01 4.393301e-03 4.506990e-03 4.796477e-03 4.654153e-03 4.611729e-03 4.640051e-03 -1.403691e-01 -8.825216e-02 2.852584e-01 5.914640e-02 2.387729e-02 4.919812e-02 5.820477e-02 6.921871e-02 6.716285e-02 7.287928e-02 6.869292e-02 7.286445e-02 6.852687e-02 7.199831e-02 6.815836e-02 7.107463e-02 6.791603e-02 7.021227e-02 6.775148e-02 6.931431e-02 6.748215e-02 6.817465e-02 6.681883e-02 6.647116e-02 6.537029e-02 6.383983e-02 6.283653e-02 6.026452e-02 5.968299e-02 5.720264e-02 5.887907e-02 5.988612e-02 6.928391e-02 9.262747e-02 1.791955e-01 3.403521e-01 5.422643e-01 7.398196e-01 4.184016e-01 4.745498e-01 1.076308e+00 3.667397e-01 7.994568e-03 1.651055e-01 3.682988e-01 9.958698e-01 6.945349e-01 1.707569e-01 -9.927801e-02 -3.332948e-02 3.405283e-01 8.449315e-01 7.358911e-01 1.797861e-01 8.727402e-02 8.586637e-02 7.832025e-02 7.280924e-02 6.859323e-02 6.760311e-02 6.637195e-02 6.656027e-02 6.618090e-02 6.660014e-02 6.654476e-02 6.699170e-02 6.703315e-02 6.747975e-02 6.745525e-02 6.794924e-02 6.772954e-02 6.836832e-02 6.783837e-02 6.875501e-02 6.779834e-02 6.913863e-02 6.764126e-02 6.953439e-02 6.740859e-02 6.993851e-02 6.714421e-02 7.032903e-02 6.689877e-02 7.066581e-02 6.673487e-02 7.090199e-02 6.672755e-02 7.100606e-02 6.699085e-02 7.101001e-02 6.773754e-02 7.112808e-02 6.942801e-02 7.198456e-02 7.306930e-02 7.500550e-02 8.060967e-02 8.255992e-02 9.422805e-02 9.585071e-02 1.181037e-01 1.146927e-01 1.450814e-01 8.496909e-02 -1.100161e-02 -2.239092e-02 -1.094266e-02 -3.789864e-03 
-1.683814e-03 -1.144135e-04 7.289916e-04 -4.994122e-04 -1.532374e-03 5.063499e-03 7.953055e-03 6.781661e-03 1.588591e-02 3.864521e-02 1.199748e-01 2.800564e-01 -1.124776e-01 -1.528432e-01 1.231111e-03 1.472857e-03 1.473335e-03 1.473301e-03 1.473111e-03 1.378139e-03 -5.745232e-02 -2.898962e-02 1.083132e-01 -2.390745e-02 -3.479240e-02 -1.953628e-02 -9.505705e-03 -4.228687e-03 -1.691511e-03 -1.250194e-04 4.364698e-04 8.342252e-04 7.976566e-04 8.359505e-04 6.887586e-04 6.367461e-04 5.128475e-04 4.289606e-04 3.298736e-04 1.898600e-04 5.422420e-05 -2.182375e-04 -4.995352e-04 -1.014638e-03 -1.552540e-03 -2.354303e-03 -3.077925e-03 -3.848468e-03 -4.074790e-03 -3.545338e-03 -1.207018e-03 3.698200e-03 1.224837e-02 2.410687e-02 4.188358e-02 9.668955e-02 2.310424e-01 2.235557e-01 4.585532e-02 2.006810e-01 3.950656e-01 8.975941e-02 -1.110080e-01 -4.924549e-02 1.340291e-01 3.760671e-01 1.314584e-01 -2.414080e-01 -2.375674e-01 -1.063039e-01 4.922600e-02 2.628383e-01 2.587532e-01 9.683757e-02 4.071727e-02 2.539750e-02 1.648029e-02 1.024132e-02 6.137999e-03 3.624293e-03 1.969260e-03 9.458179e-04 2.572160e-04 -1.363542e-04 -3.692230e-04 -4.600144e-04 -4.682255e-04 -4.275601e-04 -3.445582e-04 -2.698508e-04 -1.686758e-04 -1.037290e-04 -1.568203e-05 3.027035e-05 9.574167e-05 1.300127e-04 1.705531e-04 2.057392e-04 2.190132e-04 2.680753e-04 2.500582e-04 3.247077e-04 2.707600e-04 3.811565e-04 2.888136e-04 4.448467e-04 3.193358e-04 5.359843e-04 4.022439e-04 7.144939e-04 6.416245e-04 1.135592e-03 1.277506e-03 2.134493e-03 2.766384e-03 4.267583e-03 5.707321e-03 7.973355e-03 9.940174e-03 1.180081e-02 1.267118e-02 1.378510e-02 1.254632e-02 6.563617e-04 -5.642437e-03 -4.756922e-03 -3.649604e-03 -2.778212e-03 
-1.886337e-05 -1.137001e-05 -5.062594e-06 7.066100e-07 4.880538e-06 7.439461e-06 8.283660e-06 6.667050e-06 3.325335e-06 -1.195084e-06 -8.331147e-06 -1.129980e-05 -9.041004e-06 -6.493283e-05 -1.024829e-07 -1.699169e-10 -4.395605e-11 9.244258e-12 -1.304423e-10 -9.640053e-08 -1.093366e-04 -3.724620e-04 -1.162124e-04 3.518912e-05 2.620189e-05 1.037402e-05 2.011756e-06 -4.636392e-07 -2.014363e-06 -1.893134e-06 -1.309431e-06 -1.675959e-08 2.183899e-06 4.267702e-06 7.494090e-06 8.388666e-06 8.347819e-06 -9.186748e-07 -2.024994e-05 -6.671610e-05 -1.470230e-04 -2.903007e-04 -5.090409e-04 -8.372667e-04 -1.275721e-03 -1.826895e-03 -2.427162e-03 -2.968245e-03 -3.237110e-03 -2.917314e-03 -1.575353e-03 1.347770e-03 6.366238e-03 1.352945e-02 2.161453e-02 2.874520e-02 3.459363e-02 3.580878e-02 4.052002e-02 6.805336e-02 8.349957e-02 4.580604e-02 7.404252e-03 1.419033e-02 5.659033e-02 9.752738e-02 7.593337e-02 1.783586e-02 -1.100317e-02 -1.958133e-03 3.168692e-02 5.605486e-02 4.936733e-02 3.287254e-02 2.407201e-02 1.805067e-02 1.294287e-02 8.956071e-03 6.034699e-03 3.940541e-03 2.420103e-03 1.340584e-03 5.769231e-04 6.980079e-05 -2.519863e-04 -4.288308e-04 -5.066208e-04 -5.170004e-04 -4.860059e-04 -4.351325e-04 -3.743009e-04 -3.158980e-04 -2.599780e-04 -2.132017e-04 -1.715138e-04 -1.387872e-04 -1.102628e-04 -8.861350e-05 -6.972572e-05 -5.570102e-05 -4.332052e-05 -3.432631e-05 -2.626267e-05 -2.059241e-05 -1.543547e-05 -1.202789e-05 -8.923076e-06 -7.169533e-06 -5.682390e-06 -5.342793e-06 -5.412526e-06 -6.607768e-06 -8.498342e-06 -1.157870e-05 -1.557160e-05 -2.061610e-05 -2.634944e-05 -3.249163e-05 -3.851023e-05 -4.390002e-05 -4.811300e-05 -5.062192e-05 -5.152436e-05 -4.991122e-05 -4.624570e-05 -4.058957e-05 -3.409600e-05 -2.634663e-05 
1.650428e-03 9.392706e-05 -7.374513e-04 5.025916e-04 1.543167e-03 -5.049814e-03 -7.930317e-03 -6.759227e-03 -1.587933e-02 -3.864550e-02 -1.199839e-01 -2.800178e-01 1.126680e-01 1.525037e-01 -1.231651e-03 -1.472858e-03 -1.473335e-03 -1.473302e-03 -1.473114e-03 -1.379196e-03 5.673388e-02 2.795755e-02 -1.086845e-01 2.396261e-02 3.484047e-02 1.954467e-02 9.491482e-03 4.202885e-03 1.660030e-03 8.463294e-05 -4.785364e-04 -8.873046e-04 -8.507706e-04 -9.041153e-04 -7.575522e-04 -7.294683e-04 -6.163339e-04 -5.835533e-04 -5.381633e-04 -5.305002e-04 -5.761554e-04 -6.385671e-04 -8.277838e-04 -1.039575e-03 -1.450245e-03 -1.887585e-03 -2.543424e-03 -3.150275e-03 -3.848874e-03 -4.247383e-03 -4.401078e-03 -3.835640e-03 -2.597737e-03 -3.646112e-04 2.408875e-03 5.251230e-03 7.191136e-03 8.165627e-03 8.579272e-03 9.792026e-03 1.129417e-02 1.140417e-02 1.116595e-02 1.215081e-02 1.418468e-02 1.682397e-02 1.769506e-02 1.671482e-02 1.604030e-02 1.620633e-02 1.727784e-02 1.770814e-02 1.634051e-02 1.411218e-02 1.172212e-02 9.158229e-03 6.776513e-03 4.737263e-03 3.096324e-03 1.801033e-03 8.095488e-04 8.451144e-05 -4.258783e-04 -7.426414e-04 -9.283554e-04 -9.904787e-04 -9.971157e-04 -9.360644e-04 -8.742636e-04 -7.779574e-04 -7.098747e-04 -6.221678e-04 -5.701074e-04 -5.065011e-04 -4.701340e-04 -4.342220e-04 -4.040499e-04 -3.972959e-04 -3.616220e-04 -3.869416e-04 -3.346294e-04 -3.966218e-04 -3.184748e-04 -4.227955e-04 -3.135763e-04 -4.674324e-04 -3.307215e-04 -5.476292e-04 -4.074000e-04 -7.217254e-04 -6.466372e-04 -1.144562e-03 -1.288533e-03 -2.151924e-03 -2.790153e-03 -4.300356e-03 -5.749629e-03 -8.025813e-03 -1.000249e-02 -1.187135e-02 -1.274775e-02 -1.386598e-02 -1.263149e-02 -7.413859e-04 5.563983e-03 4.688208e-03 3.591104e-03 2.732355e-03 
-4.689598e-04 -3.679417e-03 -1.281636e-03 8.121562e-04 -4.773165e-02 -2.074554e-01 -8.400699e-02 -1.744886e-02 -8.341607e-02 -9.437632e-02 -2.653848e-01 -5.438833e-01 2.005041e-01 3.074456e-01 -4.392930e-03 -4.507977e-03 -4.796261e-03 -4.656667e-03 -4.613019e-03 -4.642295e-03 1.405162e-01 8.789797e-02 -2.854699e-01 -5.920441e-02 -2.386531e-02 -4.934967e-02 -5.825721e-02 -6.944894e-02 -6.725881e-02 -7.318685e-02 -6.885082e-02 -7.327348e-02 -6.878288e-02 -7.254735e-02 -6.856901e-02 -7.182022e-02 -6.856803e-02 -7.125528e-02 -6.879600e-02 -7.086371e-02 -6.922474e-02 -7.067779e-02 -6.988865e-02 -7.081257e-02 -7.091771e-02 -7.146282e-02 -7.248972e-02 -7.279627e-02 -7.465848e-02 -7.473024e-02 -7.711418e-02 -7.674508e-02 -7.913708e-02 -7.806185e-02 -8.004295e-02 -7.831059e-02 -7.995716e-02 -7.820342e-02 -7.954938e-02 -7.609139e-02 -7.595218e-02 -7.576080e-02 -7.590723e-02 -7.369130e-02 -7.250214e-02 -6.821656e-02 -6.918017e-02 -6.923943e-02 -6.917858e-02 -6.889276e-02 -6.726674e-02 -6.631293e-02 -6.654694e-02 -6.741293e-02 -6.771551e-02 -6.865042e-02 -6.898039e-02 -6.980310e-02 -7.001534e-02 -7.054219e-02 -7.060294e-02 -7.078511e-02 -7.071856e-02 -7.061243e-02 -7.047815e-02 -7.021474e-02 -7.005703e-02 -6.979168e-02 -6.959609e-02 -6.947689e-02 -6.916107e-02 -6.932601e-02 -6.875870e-02 -6.934145e-02 -6.837175e-02 -6.949871e-02 -6.798547e-02 -6.976223e-02 -6.760054e-02 -7.009038e-02 -6.723525e-02 -7.043523e-02 -6.692555e-02 -7.074374e-02 -6.672250e-02 -7.096219e-02 -6.669495e-02 -7.105442e-02 -6.695031e-02 -7.105122e-02 -6.769658e-02 -7.116439e-02 -6.939264e-02 -7.201964e-02 -7.304297e-02 -7.504384e-02 -8.059393e-02 -8.260540e-02 -9.421936e-02 -9.589802e-02 -1.180831e-01 -1.147708e-01 -1.450721e-01 -8.499896e-02 1.095795e-02 2.235280e-02 1.090928e-02 3.761953e-03 
-2.608656e-03 1.530878e-03 4.357907e-03 -1.222206e-01 -7.160103e-01 -1.978112e+00 2.414106e-01 5.041531e-01 -3.843328e-01 -4.972406e-02 -4.262238e-01 -3.002705e-01 2.617399e-01 9.343192e-02 -5.367782e-02 -4.458343e-02 -5.157474e-02 -4.834241e-02 -4.696040e-02 -5.379122e-02 9.609798e-02 1.959069e-01 -3.001206e-01 -2.702606e-01 -1.847376e-01 -2.480447e-01 -1.952935e-01 -2.557831e-01 -1.966518e-01 -2.556490e-01 -1.960539e-01 -2.536018e-01 -1.965481e-01 -2.508417e-01 -1.986876e-01 -2.477221e-01 -2.022517e-01 -2.442918e-01 -2.067879e-01 -2.406343e-01 -2.119415e-01 -2.370269e-01 -2.176129e-01 -2.339441e-01 -2.238428e-01 -2.318385e-01 -2.306376e-01 -2.310727e-01 -2.379260e-01 -2.318396e-01 -2.454214e-01 -2.339830e-01 -2.523905e-01 -2.366223e-01 -2.572640e-01 -2.378371e-01 -2.580739e-01 -2.372708e-01 -2.544963e-01 -2.221531e-01 -2.316011e-01 -2.357959e-01 -2.520255e-01 -2.380811e-01 -2.432857e-01 -2.093296e-01 -2.357291e-01 -2.409993e-01 -2.510814e-01 -2.482543e-01 -2.369462e-01 -2.241209e-01 -2.272912e-01 -2.322322e-01 -2.334273e-01 -2.361042e-01 -2.346419e-01 -2.362962e-01 -2.338222e-01 -2.347920e-01 -2.321028e-01 -2.327506e-01 -2.299972e-01 -2.308562e-01 -2.277018e-01 -2.295750e-01 -2.252270e-01 -2.291268e-01 -2.224996e-01 -2.296834e-01 -2.195511e-01 -2.313072e-01 -2.163416e-01 -2.338295e-01 -2.128662e-01 -2.369026e-01 -2.091976e-01 -2.400913e-01 -2.057386e-01 -2.430798e-01 -2.030481e-01 -2.452797e-01 -2.015557e-01 -2.459890e-01 -2.018054e-01 -2.445895e-01 -2.043298e-01 -2.405651e-01 -2.096451e-01 -2.335856e-01 -2.180263e-01 -2.234934e-01 -2.296400e-01 -2.108063e-01 -2.449890e-01 -1.973926e-01 -2.663868e-01 -1.884471e-01 -3.026112e-01 -1.945592e-01 -3.901194e-01 2.970063e-02 -2.809479e-01 -8.510988e-01 -2.615981e-01 3.621672e-02 3.026007e-02 4.437538e-03 
-1.976623e-03 -4.294377e-03 -1.306462e-01 -7.770464e-01 -1.408731e+00 -1.671245e+00 6.448317e-01 7.069501e-01 -4.917810e-01 2.904842e-02 -4.221265e-01 -5.703379e-02 -2.963465e-01 -1.223555e-01 -3.849577e-01 -1.662953e-01 -3.443448e-01 -2.049881e-01 -2.972696e-01 -2.669151e-01 -2.330234e-01 -1.822433e-01 -1.897452e-01 -3.856566e-01 -1.408893e-01 -3.315592e-01 -1.295734e-01 -3.088012e-01 -1.334599e-01 -2.895372e-01 -1.429029e-01 -2.693498e-01 -1.553992e-01 -2.505748e-01 -1.717479e-01 -2.358548e-01 -1.896722e-01 -2.241812e-01 -2.052946e-01 -2.143262e-01 -2.165966e-01 -2.071520e-01 -2.252249e-01 -2.056282e-01 -2.335536e-01 -2.102436e-01 -2.415443e-01 -2.193705e-01 -2.488304e-01 -2.314690e-01 -2.564947e-01 -2.473847e-01 -2.678102e-01 -2.674902e-01 -2.820970e-01 -2.870953e-01 -2.951869e-01 -3.023534e-01 -3.046150e-01 -2.964888e-01 -2.893363e-01 -3.110299e-01 -3.173824e-01 -3.167119e-01 -3.166522e-01 -2.836308e-01 -3.095941e-01 -3.028395e-01 -3.273530e-01 -3.000989e-01 -3.152108e-01 -2.653319e-01 -3.005191e-01 -2.605344e-01 -2.959931e-01 -2.517546e-01 -2.821539e-01 -2.427851e-01 -2.641430e-01 -2.368941e-01 -2.452568e-01 -2.363407e-01 -2.270661e-01 -2.400965e-01 -2.097136e-01 -2.464532e-01 -1.929516e-01 -2.523129e-01 -1.771207e-01 -2.575097e-01 -1.660313e-01 -2.624894e-01 -1.609850e-01 -2.651136e-01 -1.615314e-01 -2.623687e-01 -1.655792e-01 -2.523546e-01 -1.747068e-01 -2.388059e-01 -1.909804e-01 -2.219404e-01 -2.106653e-01 -2.010034e-01 -2.313682e-01 -1.779479e-01 -2.510980e-01 -1.561409e-01 -2.693423e-01 -1.395685e-01 -2.829892e-01 -1.286648e-01 -2.877357e-01 -1.246229e-01 -2.797889e-01 -1.276749e-01 -2.549543e-01 -1.424162e-01 -2.099148e-01 -1.810843e-01 -1.508620e-01 -1.967172e-02 1.119302e+00 -1.169787e+00 -2.054804e+00 -2.033507e-01 5.906535e-02 1.791607e-02 
4.831437e-03 6.675146e-03 -1.401160e-01 -8.821433e-01 -8.043397e-01 1.795612e+00 -8.578451e-02 -4.272841e-01 -1.199105e-02 -1.357810e-01 -4.425127e-02 -6.689657e-03 -6.195023e-01 -2.725606e-01 -3.228281e-01 -2.693739e-01 -3.443727e-01 -2.652032e-01 -3.144283e-01 -3.189030e-01 -2.353468e-01 -7.051735e-01 5.009419e-02 -1.827139e-01 -4.500763e-03 -1.838624e-01 -1.668076e-02 -1.560938e-01 -3.418338e-02 -1.300496e-01 -5.437776e-02 -1.025485e-01 -7.389575e-02 -7.850385e-02 -9.468329e-02 -6.232920e-02 -1.141808e-01 -5.251976e-02 -1.274986e-01 -4.690122e-02 -1.324018e-01 -4.608762e-02 -1.318607e-01 -5.357550e-02 -1.297809e-01 -6.916756e-02 -1.265325e-01 -8.963907e-02 -1.221232e-01 -1.121309e-01 -1.190192e-01 -1.379079e-01 -1.236430e-01 -1.687923e-01 -1.379684e-01 -2.013131e-01 -1.599777e-01 -2.302186e-01 -1.854905e-01 -2.601483e-01 -2.256403e-01 -2.541528e-01 -2.167708e-01 -2.507603e-01 -2.306912e-01 -2.694308e-01 -2.438689e-01 -2.191050e-01 -2.277916e-01 -1.866648e-01 -2.376399e-01 -1.902126e-01 -2.403170e-01 -1.602244e-01 -2.150077e-01 -1.333304e-01 -1.878727e-01 -1.165120e-01 -1.596471e-01 -1.094493e-01 -1.322842e-01 -1.124701e-01 -1.068296e-01 -1.221580e-01 -8.313373e-02 -1.347030e-01 -6.099559e-02 -1.447254e-01 -4.131455e-02 -1.514506e-01 -3.005315e-02 -1.552468e-01 -2.939607e-02 -1.530331e-01 -3.868522e-02 -1.408347e-01 -5.447456e-02 -1.167022e-01 -7.819032e-02 -8.724115e-02 -1.115596e-01 -5.431781e-02 -1.475343e-01 -1.865125e-02 -1.808167e-01 1.496591e-02 -2.067336e-01 3.970809e-02 -2.229949e-01 4.812619e-02 -2.240542e-01 3.841632e-02 -2.033813e-01 8.378496e-03 -1.560536e-01 -4.194054e-02 -7.652029e-02 -1.179346e-01 4.579317e-02 -2.358452e-01 2.823756e-01 -6.586499e-01 2.058531e+00 7.223579e-02 -2.772762e+00 -4.709451e-01 2.214829e-02 1.921689e-02 
6.442920e-03 3.768701e-03 -6.317813e-02 -3.420673e-01 3.783236e-02 2.597644e+00 -5.149046e-01 -9.082819e-01 3.271830e-01 -1.924119e-01 1.042333e-01 -3.148541e-01 9.655291e-01 2.135785e-02 3.198570e-01 3.524576e-02 3.075172e-01 -1.178949e-02 3.055076e-01 1.178283e-02 2.841524e-01 7.532112e-01 -6.197861e-02 -3.038792e-02 2.221140e-02 1.702222e-02 1.016712e-02 2.012162e-02 -5.055818e-03 2.810382e-02 -1.616497e-02 3.734812e-02 -2.407513e-02 4.455111e-02 -3.011786e-02 4.773235e-02 -3.381191e-02 4.741797e-02 -3.383336e-02 4.459404e-02 -2.976958e-02 3.941358e-02 -2.297778e-02 3.111403e-02 -1.512554e-02 2.019253e-02 -6.723379e-03 8.109678e-03 1.765523e-03 -3.906347e-03 8.923849e-03 -1.625747e-02 1.178322e-02 -2.995697e-02 8.435136e-03 -4.516998e-02 -2.139696e-03 -5.980224e-02 -1.770906e-02 -9.138205e-02 -6.718624e-02 -7.638912e-02 -3.628245e-02 -6.544435e-02 -4.686717e-02 -1.068175e-01 -6.587250e-02 -4.736697e-02 -3.480444e-02 -1.677636e-02 -5.056250e-02 -4.591028e-02 -6.530199e-02 -2.378888e-02 -4.686997e-02 -6.879189e-03 -3.386490e-02 9.822761e-04 -2.283628e-02 2.701769e-03 -1.290392e-02 -2.745416e-04 -3.783865e-03 -5.818748e-03 4.647043e-03 -1.201789e-02 1.223005e-02 -1.661067e-02 1.832589e-02 -1.901184e-02 2.059685e-02 -1.909499e-02 1.807759e-02 -1.569994e-02 1.092863e-02 -7.550216e-03 4.810537e-04 5.700145e-03 -1.335999e-02 2.124815e-02 -3.054393e-02 3.767990e-02 -4.780935e-02 5.377268e-02 -6.234119e-02 6.679204e-02 -7.149698e-02 7.326469e-02 -7.352326e-02 6.959114e-02 -6.581073e-02 5.424920e-02 -4.591015e-02 2.569699e-02 -1.282085e-02 -1.726461e-02 3.293205e-02 -8.063659e-02 8.864046e-02 -1.891654e-01 1.780516e-01 -7.719818e-01 7.167890e-01 7.511848e-01 -7.978074e-01 -1.155601e-01 3.149999e-02 1.595381e-02 
4.627036e-03 5.125487e-03 -3.294189e-03 -2.858069e-02 1.016293e-01 8.626683e-01 -7.749937e-02 -2.317933e-01 2.112598e-01 1.107305e-02 1.057815e-01 -2.162495e-01 9.734826e-03 3.191214e-01 3.546348e-01 5.855279e-02 4.358711e-01 1.888748e-01 2.986186e-01 4.285089e-01 2.022967e-01 -8.885123e-02 -1.285290e-01 5.300128e-02 6.303018e-02 8.556657e-02 5.750360e-02 8.336872e-02 5.538224e-02 8.432238e-02 5.481557e-02 8.496584e-02 5.504412e-02 8.489424e-02 5.596711e-02 8.405241e-02 5.752415e-02 8.255145e-02 5.964844e-02 8.057436e-02 6.224399e-02 7.831859e-02 6.517507e-02 7.595167e-02 6.824316e-02 7.355920e-02 7.115635e-02 7.113935e-02 7.358477e-02 6.869487e-02 7.527106e-02 6.629491e-02 7.600418e-02 6.374582e-02 7.488730e-02 6.008665e-02 7.154805e-02 5.388176e-02 6.144999e-02 4.491306e-02 5.358094e-02 5.599462e-02 6.920988e-02 6.025313e-02 6.421764e-02 5.030477e-02 6.756738e-02 7.878471e-02 8.763530e-02 8.587533e-02 7.521065e-02 6.877492e-02 6.522862e-02 7.226316e-02 7.154200e-02 7.733986e-02 7.280076e-02 7.663815e-02 7.157125e-02 7.445992e-02 7.021963e-02 7.218507e-02 6.941981e-02 7.040524e-02 6.919404e-02 6.922371e-02 6.921357e-02 6.858248e-02 6.911288e-02 6.845539e-02 6.862906e-02 6.888723e-02 6.761270e-02 6.992722e-02 6.601808e-02 7.157179e-02 6.390238e-02 7.371808e-02 6.141750e-02 7.615443e-02 5.881793e-02 7.856265e-02 5.645344e-02 8.052583e-02 5.474368e-02 8.156052e-02 5.413761e-02 8.114828e-02 5.506146e-02 7.878394e-02 5.783084e-02 7.398333e-02 6.250905e-02 6.622672e-02 6.868291e-02 5.472583e-02 7.515235e-02 3.765941e-02 7.960980e-02 8.935004e-03 8.293064e-02 -1.523724e-01 9.506497e-02 3.065420e-01 5.350951e-02 2.577063e-02 1.522849e-02 6.676482e-03 
