# vtk DataFile Version 2.0
Comment goes here
ASCII

DATASET STRUCTURED_POINTS
FIELD FieldData 1
TIME 1 1 double
0.78000000
DIMENSIONS    128   16   1

ORIGIN    0.000   0.000   0.000
SPACING   0.0078125 0.015625   1.000

POINT_DATA   2048
SCALARS P double
LOOKUP_TABLE default

-1.867629e-01 -1.893784e-01 -1.876968e-01 -1.925562e-01 -1.862600e-01 -1.949353e-01 -1.810067e-01 -1.956678e-01 -1.830135e-01 -1.937580e-01 -1.845208e-01 -1.903536e-01 -1.838092e-01 -1.842434e-01 -1.781898e-01 -1.745644e-01 -1.695321e-01 -1.614701e-01 -1.598047e-01 -1.487928e-01 -1.504142e-01 -1.405185e-01 -1.449699e-01 -1.371199e-01 -1.435498e-01 -1.357611e-01 -1.435366e-01 -1.353683e-01 -1.438932e-01 -1.354978e-01 -1.440834e-01 -1.358326e-01 -1.438182e-01 -1.362153e-01 -1.431326e-01 -1.367226e-01 -1.422907e-01 -1.374604e-01 -1.414815e-01 -1.383284e-01 -1.406928e-01 -1.390931e-01 -1.398930e-01 -1.396293e-01 -1.391771e-01 -1.399384e-01 -1.386524e-01 -1.400006e-01 -1.383292e-01 -1.397626e-01 -1.381946e-01 -1.392569e-01 -1.383106e-01 -1.386168e-01 -1.387254e-01 -1.379153e-01 -1.393258e-01 -1.370759e-01 -1.397175e-01 -1.362269e-01 -1.452782e-01 -1.428689e-01 -1.469391e-01 -1.433769e-01 -1.478918e-01 -1.459615e-01 -1.578510e-01 -1.508217e-01 -1.579729e-01 -1.509591e-01 -1.566816e-01 -1.553964e-01 -1.634545e-01 -1.612849e-01 -1.660630e-01 -1.642158e-01 -1.668831e-01 -1.660228e-01 -1.672241e-01 -1.674101e-01 -1.676000e-01 -1.684971e-01 -1.681269e-01 -1.692098e-01 -1.688615e-01 -1.695614e-01 -1.699210e-01 -1.696381e-01 -1.713406e-01 -1.694566e-01 -1.729974e-01 -1.690172e-01 -1.747622e-01 -1.684644e-01 -1.765904e-01 -1.680371e-01 -1.783809e-01 -1.678724e-01 -1.798741e-01 -1.679964e-01 -1.808077e-01 -1.685051e-01 -1.811031e-01 -1.695837e-01 -1.807882e-01 -1.713020e-01 -1.798552e-01 -1.735434e-01 -1.783549e-01 -1.761465e-01 -1.765339e-01 -1.789310e-01 -1.747417e-01 -1.815675e-01 -1.733033e-01 -1.835981e-01 -1.725775e-01 -1.846369e-01 -1.730240e-01 -1.845146e-01 -1.751047e-01 -1.833904e-01 -1.792320e-01 -1.814073e-01 -1.818176e-01 -1.829738e-01 -1.845371e-01 -1.859738e-01 
-1.709273e-01 -1.741820e-01 -1.714819e-01 -1.768734e-01 -1.692359e-01 -1.789632e-01 -1.613008e-01 -1.778247e-01 -1.639373e-01 -1.737249e-01 -1.663281e-01 -1.682308e-01 -1.675206e-01 -1.606590e-01 -1.669280e-01 -1.533243e-01 -1.648481e-01 -1.471039e-01 -1.614056e-01 -1.416350e-01 -1.561769e-01 -1.368937e-01 -1.503072e-01 -1.344356e-01 -1.474394e-01 -1.331257e-01 -1.459055e-01 -1.324092e-01 -1.449276e-01 -1.321750e-01 -1.440858e-01 -1.322034e-01 -1.430367e-01 -1.323544e-01 -1.417524e-01 -1.326216e-01 -1.403271e-01 -1.330099e-01 -1.389158e-01 -1.334895e-01 -1.376101e-01 -1.339869e-01 -1.365235e-01 -1.344589e-01 -1.356682e-01 -1.347272e-01 -1.349628e-01 -1.346696e-01 -1.343663e-01 -1.342140e-01 -1.339202e-01 -1.335669e-01 -1.339375e-01 -1.330091e-01 -1.344442e-01 -1.324461e-01 -1.352240e-01 -1.317359e-01 -1.358021e-01 -1.291864e-01 -1.357542e-01 -1.294667e-01 -1.338636e-01 -1.314554e-01 -1.360031e-01 -1.305887e-01 -1.400521e-01 -1.311727e-01 -1.429195e-01 -1.385128e-01 -1.471016e-01 -1.459053e-01 -1.546334e-01 -1.521753e-01 -1.571834e-01 -1.549573e-01 -1.575871e-01 -1.564645e-01 -1.575359e-01 -1.577110e-01 -1.577591e-01 -1.588467e-01 -1.581922e-01 -1.595115e-01 -1.586484e-01 -1.595999e-01 -1.592597e-01 -1.593178e-01 -1.602587e-01 -1.588684e-01 -1.615948e-01 -1.582006e-01 -1.630896e-01 -1.575425e-01 -1.648772e-01 -1.572262e-01 -1.667196e-01 -1.570758e-01 -1.680239e-01 -1.568961e-01 -1.684515e-01 -1.568954e-01 -1.682343e-01 -1.577061e-01 -1.677618e-01 -1.594904e-01 -1.667903e-01 -1.617391e-01 -1.650009e-01 -1.641180e-01 -1.627158e-01 -1.667722e-01 -1.606971e-01 -1.696242e-01 -1.591890e-01 -1.718392e-01 -1.581928e-01 -1.728211e-01 -1.582713e-01 -1.724360e-01 -1.601454e-01 -1.706603e-01 -1.645084e-01 -1.663390e-01 -1.667850e-01 -1.684922e-01 -1.690817e-01 -1.712600e-01 
-1.894168e-01 -1.898964e-01 -1.925330e-01 -1.942669e-01 -1.940707e-01 -1.984010e-01 -1.667221e-01 -2.010009e-01 -1.840912e-01 -1.967602e-01 -1.892674e-01 -1.964666e-01 -1.944432e-01 -1.910888e-01 -1.828292e-01 -1.803113e-01 -1.705289e-01 -1.594187e-01 -1.580440e-01 -1.385104e-01 -1.419798e-01 -1.316329e-01 -1.373921e-01 -1.333222e-01 -1.408408e-01 -1.340735e-01 -1.428773e-01 -1.343438e-01 -1.439778e-01 -1.347386e-01 -1.444720e-01 -1.352364e-01 -1.442424e-01 -1.357704e-01 -1.434647e-01 -1.363392e-01 -1.422525e-01 -1.369055e-01 -1.408762e-01 -1.375257e-01 -1.395966e-01 -1.382712e-01 -1.387459e-01 -1.391978e-01 -1.382558e-01 -1.398561e-01 -1.377907e-01 -1.399505e-01 -1.372026e-01 -1.393029e-01 -1.365460e-01 -1.383535e-01 -1.365081e-01 -1.375993e-01 -1.369552e-01 -1.366291e-01 -1.379383e-01 -1.339099e-01 -1.150673e-01 -1.022882e-01 -1.603701e-01 -1.684760e-01 -1.482057e-01 -1.346388e-01 -1.088621e-01 -1.371450e-01 -2.001048e-01 -1.712952e-01 -1.629974e-01 -1.319400e-01 -1.211252e-01 -1.492236e-01 -1.809637e-01 -1.747929e-01 -1.747915e-01 -1.702053e-01 -1.699931e-01 -1.683033e-01 -1.676249e-01 -1.683645e-01 -1.672594e-01 -1.694804e-01 -1.677839e-01 -1.702583e-01 -1.682904e-01 -1.701941e-01 -1.688665e-01 -1.696417e-01 -1.700336e-01 -1.690475e-01 -1.717520e-01 -1.681822e-01 -1.736865e-01 -1.674420e-01 -1.763246e-01 -1.674388e-01 -1.792339e-01 -1.675158e-01 -1.811968e-01 -1.670760e-01 -1.816446e-01 -1.665112e-01 -1.813099e-01 -1.672778e-01 -1.812135e-01 -1.697247e-01 -1.806754e-01 -1.726368e-01 -1.787177e-01 -1.753647e-01 -1.758361e-01 -1.786057e-01 -1.735589e-01 -1.826466e-01 -1.719955e-01 -1.858654e-01 -1.705298e-01 -1.871991e-01 -1.699012e-01 -1.865281e-01 -1.709703e-01 -1.850263e-01 -1.823752e-01 -1.744739e-01 -1.816325e-01 -1.801730e-01 -1.856014e-01 -1.852144e-01 
-1.762434e-01 -1.752588e-01 -1.828746e-01 -1.795343e-01 -1.926745e-01 -1.836026e-01 -1.323254e-01 -1.979298e-01 -1.789892e-01 -1.927344e-01 -1.883109e-01 -1.937150e-01 -1.958085e-01 -1.698791e-01 -1.470897e-01 -1.217016e-01 -9.382643e-02 -3.936183e-02 -3.900703e-02 3.991679e-02 2.634330e-02 6.703866e-02 5.312406e-02 6.215091e-02 4.913357e-02 5.750343e-02 4.525225e-02 5.309649e-02 4.170256e-02 4.876024e-02 3.840437e-02 4.449503e-02 3.536200e-02 4.029666e-02 3.244669e-02 3.613885e-02 2.957384e-02 3.200657e-02 2.661209e-02 2.787473e-02 2.344469e-02 2.371068e-02 1.997941e-02 1.948874e-02 1.629007e-02 1.537499e-02 1.253914e-02 1.148212e-02 8.800989e-03 7.869745e-03 5.053337e-03 4.381623e-03 1.038787e-03 8.483438e-04 -3.210956e-03 -2.900675e-03 -9.817880e-03 -3.808106e-03 5.377977e-02 9.599565e-02 -5.335675e-02 -7.691280e-02 6.458028e-04 1.329552e-02 1.121614e-01 2.442395e-02 -1.245496e-01 -3.907593e-02 -7.191228e-04 8.100931e-02 1.391484e-01 4.678493e-02 -5.375483e-02 -5.517258e-02 -5.990648e-02 -5.737384e-02 -6.173747e-02 -6.060041e-02 -6.465644e-02 -6.458917e-02 -6.837808e-02 -6.900519e-02 -7.248310e-02 -7.337719e-02 -7.669253e-02 -7.754129e-02 -8.109122e-02 -8.162559e-02 -8.587957e-02 -8.579153e-02 -9.101257e-02 -8.994266e-02 -9.632277e-02 -9.417949e-02 -1.019033e-01 -9.869721e-02 -1.075160e-01 -1.032512e-01 -1.126793e-01 -1.076484e-01 -1.171448e-01 -1.120482e-01 -1.211483e-01 -1.169754e-01 -1.250243e-01 -1.225528e-01 -1.285307e-01 -1.283472e-01 -1.313466e-01 -1.341138e-01 -1.337236e-01 -1.400813e-01 -1.363105e-01 -1.463283e-01 -1.392756e-01 -1.522493e-01 -1.425136e-01 -1.574264e-01 -1.462958e-01 -1.618245e-01 -1.502931e-01 -1.695606e-01 -1.773704e-01 -1.621262e-01 -1.671584e-01 -1.661694e-01 -1.710625e-01 -1.707647e-01 
-1.949936e-01 -1.918788e-01 -2.042301e-01 -1.981267e-01 -2.174544e-01 -2.049433e-01 -1.846833e-01 -2.258246e-01 -2.256722e-01 -2.305369e-01 -2.401559e-01 -2.358035e-01 -2.522417e-01 -2.179072e-01 -1.104979e-01 -1.058479e-01 5.271060e-02 1.407302e-01 2.238383e-01 3.764127e-01 4.048582e-01 4.418361e-01 4.242979e-01 4.316318e-01 4.182343e-01 4.198588e-01 4.097910e-01 4.074122e-01 4.002009e-01 3.950921e-01 3.900182e-01 3.829744e-01 3.791717e-01 3.710108e-01 3.677463e-01 3.591703e-01 3.557432e-01 3.473770e-01 3.433330e-01 3.357022e-01 3.307256e-01 3.242493e-01 3.182786e-01 3.130961e-01 3.059865e-01 3.018291e-01 2.935778e-01 2.901841e-01 2.809493e-01 2.780063e-01 2.681729e-01 2.657461e-01 2.559185e-01 2.539193e-01 2.440589e-01 2.417977e-01 2.302004e-01 2.311372e-01 2.661610e-01 3.048007e-01 2.190306e-01 2.110043e-01 2.684243e-01 2.555649e-01 3.305222e-01 2.748385e-01 1.909611e-01 2.526560e-01 2.620082e-01 3.035895e-01 3.393885e-01 2.680967e-01 1.814871e-01 1.682273e-01 1.512750e-01 1.459147e-01 1.306150e-01 1.281438e-01 1.134838e-01 1.133781e-01 9.898089e-02 1.002987e-01 8.569201e-02 8.726807e-02 7.245276e-02 7.361068e-02 5.913135e-02 5.955579e-02 4.614212e-02 4.546932e-02 3.348237e-02 3.110991e-02 2.092085e-02 1.686290e-02 9.068986e-03 3.285676e-03 -2.333037e-03 -1.029673e-02 -1.433143e-02 -2.452178e-02 -2.734592e-02 -3.906043e-02 -4.058876e-02 -5.253075e-02 -5.302448e-02 -6.459043e-02 -6.533251e-02 -7.637950e-02 -7.856071e-02 -8.845130e-02 -9.244613e-02 -1.000266e-01 -1.058069e-01 -1.106935e-01 -1.188903e-01 -1.218672e-01 -1.326483e-01 -1.344300e-01 -1.466230e-01 -1.484459e-01 -1.595391e-01 -1.669968e-01 -1.864832e-01 -1.780384e-01 -1.819100e-01 -1.809326e-01 -1.876767e-01 -1.860452e-01 
-1.774304e-01 -1.792800e-01 -1.846986e-01 -1.866883e-01 -1.922485e-01 -1.952992e-01 -1.967228e-01 -2.095523e-01 -2.115866e-01 -2.208757e-01 -2.248504e-01 -2.312995e-01 -2.371500e-01 -2.398189e-01 -7.278702e-02 -5.886639e-02 9.715047e-02 1.282662e-01 2.739851e-01 3.079678e-01 4.604901e-01 4.659263e-01 4.512352e-01 4.543874e-01 4.409505e-01 4.418592e-01 4.303499e-01 4.289483e-01 4.195098e-01 4.162259e-01 4.084909e-01 4.037400e-01 3.970775e-01 3.914493e-01 3.852658e-01 3.793246e-01 3.730320e-01 3.673063e-01 3.605056e-01 3.554322e-01 3.478589e-01 3.437620e-01 3.353547e-01 3.323277e-01 3.229723e-01 3.207865e-01 3.104912e-01 3.089058e-01 2.978227e-01 2.965493e-01 2.850199e-01 2.840276e-01 2.725640e-01 2.716663e-01 2.602969e-01 2.589635e-01 2.474239e-01 2.456951e-01 2.368438e-01 2.399579e-01 2.358798e-01 2.359412e-01 2.296066e-01 2.214497e-01 2.176087e-01 2.160682e-01 2.133104e-01 2.142886e-01 2.028756e-01 2.001239e-01 1.942452e-01 1.910802e-01 1.758908e-01 1.719027e-01 1.590003e-01 1.565074e-01 1.431478e-01 1.421323e-01 1.284491e-01 1.288769e-01 1.150073e-01 1.163036e-01 1.021372e-01 1.034390e-01 8.916114e-02 8.989267e-02 7.609158e-02 7.590224e-02 6.329759e-02 6.179393e-02 5.079854e-02 4.743067e-02 3.842482e-02 3.312285e-02 2.659975e-02 1.930493e-02 1.507833e-02 5.487180e-03 3.035429e-03 -8.779375e-03 -9.875913e-03 -2.320509e-02 -2.307161e-02 -3.671771e-02 -3.578584e-02 -4.904301e-02 -4.853028e-02 -6.103692e-02 -6.208417e-02 -7.313309e-02 -7.621186e-02 -8.477348e-02 -8.997109e-02 -9.568563e-02 -1.034756e-01 -1.069651e-01 -1.173761e-01 -1.192983e-01 -1.313286e-01 -1.326728e-01 -1.447601e-01 -1.471880e-01 -1.582593e-01 -1.612740e-01 -1.639217e-01 -1.663796e-01 -1.705002e-01 -1.725358e-01 
-1.948317e-01 -1.945779e-01 -2.033472e-01 -2.036158e-01 -2.116525e-01 -2.137532e-01 -2.183571e-01 -2.258442e-01 -2.319802e-01 -2.373047e-01 -2.460381e-01 -2.494095e-01 -2.604056e-01 -2.632092e-01 -8.726736e-02 -7.770370e-02 9.049677e-02 1.151809e-01 2.743150e-01 3.013088e-01 4.657510e-01 4.669572e-01 4.522698e-01 4.532228e-01 4.402647e-01 4.396935e-01 4.287670e-01 4.263826e-01 4.173894e-01 4.133382e-01 4.059385e-01 4.005460e-01 3.942750e-01 3.879718e-01 3.823465e-01 3.755843e-01 3.701503e-01 3.633526e-01 3.577395e-01 3.512593e-01 3.451929e-01 3.392816e-01 3.325974e-01 3.273699e-01 3.199773e-01 3.154044e-01 3.073059e-01 3.032815e-01 2.945732e-01 2.909438e-01 2.818046e-01 2.784173e-01 2.690633e-01 2.656852e-01 2.562437e-01 2.524888e-01 2.430359e-01 2.384262e-01 2.295540e-01 2.234954e-01 2.137367e-01 2.092620e-01 1.976558e-01 1.990068e-01 1.878535e-01 1.845743e-01 1.773713e-01 1.724581e-01 1.697978e-01 1.697218e-01 1.631229e-01 1.641089e-01 1.577976e-01 1.569205e-01 1.470838e-01 1.455398e-01 1.339712e-01 1.327212e-01 1.202495e-01 1.195719e-01 1.066203e-01 1.063674e-01 9.318268e-02 9.299330e-02 7.984845e-02 7.935171e-02 6.660887e-02 6.547779e-02 5.352764e-02 5.145553e-02 4.061762e-02 3.732505e-02 2.785550e-02 2.319811e-02 1.527264e-02 9.180805e-03 2.756267e-03 -4.788956e-03 -9.921012e-03 -1.876201e-02 -2.286735e-02 -3.261126e-02 -3.597401e-02 -4.606771e-02 -4.909740e-02 -5.904360e-02 -6.232846e-02 -7.170407e-02 -7.580951e-02 -8.417194e-02 -8.947109e-02 -9.640839e-02 -1.030989e-01 -1.084515e-01 -1.166490e-01 -1.205806e-01 -1.301637e-01 -1.329797e-01 -1.435003e-01 -1.455769e-01 -1.564557e-01 -1.580442e-01 -1.690432e-01 -1.689082e-01 -1.779200e-01 -1.777149e-01 -1.863934e-01 -1.860933e-01 
-1.779040e-01 -1.813959e-01 -1.864755e-01 -1.907508e-01 -1.955335e-01 -2.011686e-01 -2.054828e-01 -2.131258e-01 -2.176625e-01 -2.260082e-01 -2.313959e-01 -2.402203e-01 -2.468368e-01 -2.567317e-01 -6.963172e-02 -6.947273e-02 1.083614e-01 1.151257e-01 2.891527e-01 2.964229e-01 4.737175e-01 4.748023e-01 4.585391e-01 4.592759e-01 4.450575e-01 4.448748e-01 4.325381e-01 4.311774e-01 4.205153e-01 4.179821e-01 4.086808e-01 4.051573e-01 3.968241e-01 3.926201e-01 3.848493e-01 3.803296e-01 3.727394e-01 3.682558e-01 3.605220e-01 3.563588e-01 3.482347e-01 3.445817e-01 3.359190e-01 3.328571e-01 3.235952e-01 3.210941e-01 3.112621e-01 3.092159e-01 2.989248e-01 2.971810e-01 2.866125e-01 2.850101e-01 2.743828e-01 2.727266e-01 2.622264e-01 2.602718e-01 2.500784e-01 2.475667e-01 2.383928e-01 2.360118e-01 2.273271e-01 2.269464e-01 2.165509e-01 2.156689e-01 2.060057e-01 2.044175e-01 1.978493e-01 1.946369e-01 1.866054e-01 1.835802e-01 1.741877e-01 1.729807e-01 1.647149e-01 1.634594e-01 1.533214e-01 1.521289e-01 1.408091e-01 1.399998e-01 1.279262e-01 1.275405e-01 1.150231e-01 1.148715e-01 1.021761e-01 1.019331e-01 8.937373e-02 8.868942e-02 7.664671e-02 7.518406e-02 6.404986e-02 6.148643e-02 5.159190e-02 4.764829e-02 3.925222e-02 3.376637e-02 2.702718e-02 1.993815e-02 1.482669e-02 6.168877e-03 2.487274e-03 -7.538270e-03 -1.009012e-02 -2.108141e-02 -2.287160e-02 -3.428444e-02 -3.579106e-02 -4.708072e-02 -4.889351e-02 -5.955756e-02 -6.223503e-02 -7.179708e-02 -7.573470e-02 -8.381007e-02 -8.921571e-02 -9.566209e-02 -1.025721e-01 -1.075427e-01 -1.157218e-01 -1.195675e-01 -1.284571e-01 -1.316557e-01 -1.404824e-01 -1.435045e-01 -1.514691e-01 -1.544734e-01 -1.608288e-01 -1.638296e-01 -1.694770e-01 -1.725944e-01 
-1.946789e-01 -1.953814e-01 -2.037065e-01 -2.051934e-01 -2.129794e-01 -2.158625e-01 -2.229954e-01 -2.276592e-01 -2.353890e-01 -2.404248e-01 -2.495407e-01 -2.548192e-01 -2.655099e-01 -2.720163e-01 -8.475217e-02 -8.142366e-02 9.728173e-02 1.073094e-01 2.827205e-01 2.920995e-01 4.723460e-01 4.722534e-01 4.565870e-01 4.562033e-01 4.427898e-01 4.415215e-01 4.301358e-01 4.276614e-01 4.180545e-01 4.143262e-01 4.061685e-01 4.013448e-01 3.942533e-01 3.886301e-01 3.822179e-01 3.761575e-01 3.700622e-01 3.639133e-01 3.578070e-01 3.518471e-01 3.454581e-01 3.398782e-01 3.330232e-01 3.279341e-01 3.205310e-01 3.159631e-01 3.080144e-01 3.039209e-01 2.954926e-01 2.917708e-01 2.829783e-01 2.795015e-01 2.704907e-01 2.671332e-01 2.580525e-01 2.547169e-01 2.457020e-01 2.423922e-01 2.334644e-01 2.297376e-01 2.210473e-01 2.183158e-01 2.087924e-01 2.060516e-01 1.967936e-01 1.940267e-01 1.862200e-01 1.828763e-01 1.745280e-01 1.719507e-01 1.635296e-01 1.619613e-01 1.535712e-01 1.522068e-01 1.426320e-01 1.413738e-01 1.307408e-01 1.296950e-01 1.182460e-01 1.174321e-01 1.054296e-01 1.047474e-01 9.246838e-02 9.172746e-02 7.947552e-02 7.843563e-02 6.653089e-02 6.492820e-02 5.367504e-02 5.124673e-02 4.090707e-02 3.743150e-02 2.820907e-02 2.354454e-02 1.556102e-02 9.661256e-03 2.923959e-03 -4.158388e-03 -9.769815e-03 -1.787209e-02 -2.258850e-02 -3.143102e-02 -3.556869e-02 -4.477867e-02 -4.872073e-02 -5.788165e-02 -6.204587e-02 -7.074342e-02 -7.552422e-02 -8.338717e-02 -8.909662e-02 -9.584860e-02 -1.026758e-01 -1.081831e-01 -1.161627e-01 -1.204452e-01 -1.294365e-01 -1.326347e-01 -1.423391e-01 -1.446414e-01 -1.546700e-01 -1.562038e-01 -1.661545e-01 -1.669032e-01 -1.762650e-01 -1.766852e-01 -1.856305e-01 -1.860241e-01 
-1.778260e-01 -1.813256e-01 -1.864005e-01 -1.906819e-01 -1.954595e-01 -2.011004e-01 -2.054124e-01 -2.130633e-01 -2.176058e-01 -2.259595e-01 -2.313612e-01 -2.401858e-01 -2.468178e-01 -2.566917e-01 -6.962898e-02 -6.943804e-02 1.083803e-01 1.151900e-01 2.892261e-01 2.965503e-01 4.738772e-01 4.750140e-01 4.587174e-01 4.594695e-01 4.452255e-01 4.450525e-01 4.327291e-01 4.313999e-01 4.207696e-01 4.182601e-01 4.089614e-01 4.054267e-01 3.970443e-01 3.928059e-01 3.849737e-01 3.804691e-01 3.728760e-01 3.684990e-01 3.608182e-01 3.568064e-01 3.487236e-01 3.451917e-01 3.365152e-01 3.335397e-01 3.242550e-01 3.218622e-01 3.120494e-01 3.101522e-01 2.999270e-01 2.983566e-01 2.878746e-01 2.864441e-01 2.759091e-01 2.744738e-01 2.641092e-01 2.625526e-01 2.525111e-01 2.507472e-01 2.411055e-01 2.392040e-01 2.298770e-01 2.279920e-01 2.188423e-01 2.168044e-01 2.080399e-01 2.057830e-01 1.974448e-01 1.949868e-01 1.864942e-01 1.841434e-01 1.752113e-01 1.732580e-01 1.638669e-01 1.622941e-01 1.521179e-01 1.509448e-01 1.399518e-01 1.391878e-01 1.274840e-01 1.270440e-01 1.148131e-01 1.145164e-01 1.020360e-01 1.016492e-01 8.928418e-02 8.853293e-02 7.668066e-02 7.523515e-02 6.424639e-02 6.174104e-02 5.191205e-02 4.804079e-02 3.962119e-02 3.419459e-02 2.735677e-02 2.033474e-02 1.513120e-02 6.600992e-03 2.891630e-03 -6.954422e-03 -9.487292e-03 -2.031946e-02 -2.211903e-02 -3.347931e-02 -3.506369e-02 -4.639695e-02 -4.830011e-02 -5.902799e-02 -6.175327e-02 -7.136721e-02 -7.533283e-02 -8.349040e-02 -8.896080e-02 -9.552423e-02 -1.024988e-01 -1.075448e-01 -1.157327e-01 -1.195879e-01 -1.284432e-01 -1.316161e-01 -1.404054e-01 -1.434133e-01 -1.513684e-01 -1.543786e-01 -1.607332e-01 -1.637446e-01 -1.693917e-01 -1.725188e-01 
-1.946644e-01 -1.944182e-01 -2.031839e-01 -2.034524e-01 -2.114857e-01 -2.135846e-01 -2.181974e-01 -2.256971e-01 -2.318804e-01 -2.372218e-01 -2.460277e-01 -2.493910e-01 -2.604582e-01 -2.631899e-01 -8.734160e-02 -7.770554e-02 9.044761e-02 1.152096e-01 2.743786e-01 3.014349e-01 4.660456e-01 4.672436e-01 4.526145e-01 4.535255e-01 4.406147e-01 4.400168e-01 4.291802e-01 4.268249e-01 4.179267e-01 4.138932e-01 4.065120e-01 4.010739e-01 3.947104e-01 3.883180e-01 3.825705e-01 3.758159e-01 3.703723e-01 3.637606e-01 3.582495e-01 3.520448e-01 3.460667e-01 3.403748e-01 3.336784e-01 3.286047e-01 3.211814e-01 3.168049e-01 3.087410e-01 3.049886e-01 2.963778e-01 2.930693e-01 2.840373e-01 2.809727e-01 2.717086e-01 2.687624e-01 2.594984e-01 2.565680e-01 2.474240e-01 2.443662e-01 2.353494e-01 2.320731e-01 2.231791e-01 2.198084e-01 2.111323e-01 2.077449e-01 1.993579e-01 1.960388e-01 1.878538e-01 1.847218e-01 1.764891e-01 1.736930e-01 1.651629e-01 1.627742e-01 1.537041e-01 1.518069e-01 1.419853e-01 1.405889e-01 1.299235e-01 1.290028e-01 1.175280e-01 1.169777e-01 1.048174e-01 1.044677e-01 9.188077e-02 9.154842e-02 7.890982e-02 7.838157e-02 6.609790e-02 6.507447e-02 5.347099e-02 5.157297e-02 4.091654e-02 3.782492e-02 2.836259e-02 2.387648e-02 1.580494e-02 9.887517e-03 3.317833e-03 -3.951168e-03 -9.119835e-03 -1.760077e-02 -2.166447e-02 -3.109538e-02 -3.447686e-02 -4.446783e-02 -4.765227e-02 -5.768419e-02 -6.115078e-02 -7.065456e-02 -7.486268e-02 -8.333155e-02 -8.869455e-02 -9.579660e-02 -1.026209e-01 -1.082031e-01 -1.165264e-01 -1.205980e-01 -1.301916e-01 -1.330165e-01 -1.434618e-01 -1.454779e-01 -1.562754e-01 -1.578300e-01 -1.688095e-01 -1.686923e-01 -1.777070e-01 -1.775254e-01 -1.862086e-01 -1.859253e-01 
-1.772134e-01 -1.790840e-01 -1.844824e-01 -1.864842e-01 -1.920152e-01 -1.950756e-01 -1.964720e-01 -2.093318e-01 -2.113826e-01 -2.207283e-01 -2.247720e-01 -2.312750e-01 -2.371819e-01 -2.398068e-01 -7.290867e-02 -5.890199e-02 9.705336e-02 1.283252e-01 2.740787e-01 3.082650e-01 4.609894e-01 4.666763e-01 4.518861e-01 4.549597e-01 4.413221e-01 4.421494e-01 4.307615e-01 4.295736e-01 4.204204e-01 4.173166e-01 4.096800e-01 4.048483e-01 3.978799e-01 3.918573e-01 3.852073e-01 3.791434e-01 3.728529e-01 3.676330e-01 3.612613e-01 3.569433e-01 3.496675e-01 3.459518e-01 3.373179e-01 3.343252e-01 3.246968e-01 3.227606e-01 3.125043e-01 3.114317e-01 3.006500e-01 3.000006e-01 2.887892e-01 2.881096e-01 2.767719e-01 2.760221e-01 2.651802e-01 2.643623e-01 2.541643e-01 2.528669e-01 2.431057e-01 2.410602e-01 2.316346e-01 2.289345e-01 2.202064e-01 2.172766e-01 2.092436e-01 2.062327e-01 1.984522e-01 1.955236e-01 1.877068e-01 1.848720e-01 1.764793e-01 1.738481e-01 1.646370e-01 1.626709e-01 1.525831e-01 1.513919e-01 1.403005e-01 1.399239e-01 1.278548e-01 1.280835e-01 1.150278e-01 1.155211e-01 1.017944e-01 1.023617e-01 8.860126e-02 8.910324e-02 7.603748e-02 7.607191e-02 6.404318e-02 6.282041e-02 5.205831e-02 4.901691e-02 3.988462e-02 3.467693e-02 2.753137e-02 2.022608e-02 1.549221e-02 6.318695e-03 3.854021e-03 -7.133343e-03 -7.872520e-03 -2.037950e-02 -2.011407e-02 -3.364417e-02 -3.316867e-02 -4.686045e-02 -4.683941e-02 -5.966612e-02 -6.076590e-02 -7.180157e-02 -7.473802e-02 -8.352804e-02 -8.906765e-02 -9.543956e-02 -1.036453e-01 -1.074575e-01 -1.178451e-01 -1.196730e-01 -1.314397e-01 -1.325201e-01 -1.443720e-01 -1.467230e-01 -1.578416e-01 -1.609358e-01 -1.636146e-01 -1.661262e-01 -1.702558e-01 -1.723260e-01 
-1.947125e-01 -1.916071e-01 -2.039343e-01 -1.978069e-01 -2.170791e-01 -2.044985e-01 -1.841530e-01 -2.253710e-01 -2.253767e-01 -2.303995e-01 -2.402606e-01 -2.360400e-01 -2.526820e-01 -2.183015e-01 -1.108423e-01 -1.060691e-01 5.225633e-02 1.405091e-01 2.234842e-01 3.763971e-01 4.052694e-01 4.422597e-01 4.250233e-01 4.321598e-01 4.187415e-01 4.202293e-01 4.104497e-01 4.083252e-01 4.015306e-01 3.966060e-01 3.916469e-01 3.844253e-01 3.801743e-01 3.714134e-01 3.674837e-01 3.586688e-01 3.552136e-01 3.474536e-01 3.439724e-01 3.372905e-01 3.327458e-01 3.267203e-01 3.205218e-01 3.153208e-01 3.079253e-01 3.040246e-01 2.958550e-01 2.930472e-01 2.841582e-01 2.819294e-01 2.723586e-01 2.701800e-01 2.602332e-01 2.581222e-01 2.485347e-01 2.465514e-01 2.374383e-01 2.350635e-01 2.261278e-01 2.230439e-01 2.136977e-01 2.097347e-01 2.016649e-01 1.976301e-01 1.903672e-01 1.863512e-01 1.786194e-01 1.754320e-01 1.681427e-01 1.651723e-01 1.574574e-01 1.542323e-01 1.453625e-01 1.430968e-01 1.335179e-01 1.321911e-01 1.216009e-01 1.211983e-01 1.095303e-01 1.097993e-01 9.693055e-02 9.751121e-02 8.372844e-02 8.451158e-02 7.050173e-02 7.148045e-02 5.803666e-02 5.886754e-02 4.626638e-02 4.607661e-02 3.446357e-02 3.265332e-02 2.238504e-02 1.857453e-02 1.004680e-02 4.338158e-03 -1.881353e-03 -9.245497e-03 -1.325512e-02 -2.234477e-02 -2.467889e-02 -3.531388e-02 -3.666181e-02 -4.846496e-02 -4.956594e-02 -6.172553e-02 -6.312940e-02 -7.462628e-02 -7.690281e-02 -8.680370e-02 -9.064013e-02 -9.854734e-02 -1.048062e-01 -1.105736e-01 -1.193204e-01 -1.226990e-01 -1.334168e-01 -1.350200e-01 -1.468107e-01 -1.482115e-01 -1.589297e-01 -1.662115e-01 -1.857525e-01 -1.774975e-01 -1.814547e-01 -1.805727e-01 -1.873495e-01 -1.857625e-01 
-1.759942e-01 -1.750246e-01 -1.825894e-01 -1.792410e-01 -1.922873e-01 -1.831743e-01 -1.317567e-01 -1.975877e-01 -1.788348e-01 -1.929273e-01 -1.886640e-01 -1.943706e-01 -1.964857e-01 -1.707579e-01 -1.479566e-01 -1.225773e-01 -9.478428e-02 -4.013970e-02 -3.989292e-02 3.921060e-02 2.576726e-02 6.656362e-02 5.274285e-02 6.217758e-02 4.930022e-02 5.803192e-02 4.569034e-02 5.361318e-02 4.193649e-02 4.892544e-02 3.827771e-02 4.430153e-02 3.502720e-02 4.000602e-02 3.213799e-02 3.577593e-02 2.908617e-02 3.125164e-02 2.568164e-02 2.664700e-02 2.227648e-02 2.247652e-02 1.919142e-02 1.883299e-02 1.614474e-02 1.529715e-02 1.276836e-02 1.171777e-02 9.101148e-03 8.210630e-03 5.319558e-03 4.922990e-03 1.516271e-03 1.715367e-03 -2.573604e-03 -1.727982e-03 -7.010902e-03 -5.310352e-03 -1.145943e-02 -8.780567e-03 -1.648942e-02 -1.357987e-02 -2.094298e-02 -1.780263e-02 -2.566398e-02 -2.259764e-02 -3.206015e-02 -2.821850e-02 -3.701954e-02 -3.353343e-02 -4.161782e-02 -3.949405e-02 -4.740757e-02 -4.570071e-02 -5.250161e-02 -5.146269e-02 -5.729595e-02 -5.706559e-02 -6.208718e-02 -6.256809e-02 -6.686892e-02 -6.780765e-02 -7.161195e-02 -7.276602e-02 -7.645108e-02 -7.757902e-02 -8.157908e-02 -8.233384e-02 -8.690256e-02 -8.680073e-02 -9.212438e-02 -9.086219e-02 -9.715135e-02 -9.460370e-02 -1.019933e-01 -9.832133e-02 -1.068879e-01 -1.024155e-01 -1.118591e-01 -1.069121e-01 -1.166446e-01 -1.117418e-01 -1.210140e-01 -1.168221e-01 -1.248053e-01 -1.221821e-01 -1.281215e-01 -1.279595e-01 -1.311700e-01 -1.341883e-01 -1.340992e-01 -1.405908e-01 -1.368217e-01 -1.466929e-01 -1.394942e-01 -1.523578e-01 -1.425591e-01 -1.574293e-01 -1.462429e-01 -1.617262e-01 -1.500869e-01 -1.692243e-01 -1.769041e-01 -1.617857e-01 -1.668315e-01 -1.659121e-01 -1.708000e-01 -1.705402e-01 
-1.892648e-01 -1.897492e-01 -1.923646e-01 -1.941001e-01 -1.938757e-01 -1.982111e-01 -1.665081e-01 -2.009277e-01 -1.841488e-01 -1.969962e-01 -1.895872e-01 -1.968984e-01 -1.948992e-01 -1.916055e-01 -1.833402e-01 -1.808140e-01 -1.711026e-01 -1.599293e-01 -1.587018e-01 -1.391017e-01 -1.427661e-01 -1.323558e-01 -1.381496e-01 -1.335940e-01 -1.408800e-01 -1.337045e-01 -1.427243e-01 -1.343136e-01 -1.444595e-01 -1.354334e-01 -1.455073e-01 -1.362343e-01 -1.450714e-01 -1.361599e-01 -1.434254e-01 -1.361833e-01 -1.421979e-01 -1.374937e-01 -1.420051e-01 -1.395436e-01 -1.418341e-01 -1.408291e-01 -1.407044e-01 -1.409692e-01 -1.393339e-01 -1.410088e-01 -1.387081e-01 -1.412515e-01 -1.387010e-01 -1.412934e-01 -1.388396e-01 -1.406967e-01 -1.389161e-01 -1.398755e-01 -1.397464e-01 -1.397595e-01 -1.415815e-01 -1.401101e-01 -1.436822e-01 -1.405119e-01 -1.461851e-01 -1.420265e-01 -1.482838e-01 -1.435254e-01 -1.510913e-01 -1.460885e-01 -1.554409e-01 -1.495195e-01 -1.582584e-01 -1.525718e-01 -1.601487e-01 -1.559618e-01 -1.626584e-01 -1.595966e-01 -1.644772e-01 -1.627201e-01 -1.656896e-01 -1.654203e-01 -1.666841e-01 -1.676558e-01 -1.673379e-01 -1.690108e-01 -1.676402e-01 -1.696046e-01 -1.681333e-01 -1.700274e-01 -1.695363e-01 -1.706670e-01 -1.716986e-01 -1.708975e-01 -1.738106e-01 -1.703069e-01 -1.755844e-01 -1.689857e-01 -1.770055e-01 -1.675882e-01 -1.787162e-01 -1.670765e-01 -1.807888e-01 -1.673815e-01 -1.825219e-01 -1.682226e-01 -1.833358e-01 -1.693329e-01 -1.828335e-01 -1.707883e-01 -1.813031e-01 -1.730038e-01 -1.792758e-01 -1.762019e-01 -1.771193e-01 -1.798480e-01 -1.745166e-01 -1.829123e-01 -1.717718e-01 -1.852975e-01 -1.699524e-01 -1.867195e-01 -1.696359e-01 -1.865121e-01 -1.710962e-01 -1.851536e-01 -1.823293e-01 -1.744087e-01 -1.815128e-01 -1.800576e-01 -1.854600e-01 -1.850811e-01 
-1.708435e-01 -1.741071e-01 -1.713911e-01 -1.767954e-01 -1.691414e-01 -1.788968e-01 -1.612287e-01 -1.778270e-01 -1.639728e-01 -1.738537e-01 -1.664763e-01 -1.684545e-01 -1.677490e-01 -1.609464e-01 -1.672152e-01 -1.536303e-01 -1.651682e-01 -1.474105e-01 -1.617454e-01 -1.419440e-01 -1.565471e-01 -1.372164e-01 -1.506468e-01 -1.345701e-01 -1.475067e-01 -1.330164e-01 -1.459021e-01 -1.324309e-01 -1.451678e-01 -1.324814e-01 -1.445416e-01 -1.326361e-01 -1.434201e-01 -1.325743e-01 -1.418216e-01 -1.326601e-01 -1.404090e-01 -1.333569e-01 -1.394637e-01 -1.343987e-01 -1.385885e-01 -1.351086e-01 -1.373970e-01 -1.352750e-01 -1.361912e-01 -1.352772e-01 -1.353896e-01 -1.352278e-01 -1.349639e-01 -1.349649e-01 -1.347398e-01 -1.343503e-01 -1.346694e-01 -1.336044e-01 -1.350672e-01 -1.331082e-01 -1.359553e-01 -1.327438e-01 -1.369028e-01 -1.323109e-01 -1.377275e-01 -1.324327e-01 -1.386122e-01 -1.332714e-01 -1.404919e-01 -1.347561e-01 -1.432553e-01 -1.372722e-01 -1.461164e-01 -1.409972e-01 -1.490175e-01 -1.450924e-01 -1.519800e-01 -1.489859e-01 -1.541220e-01 -1.521633e-01 -1.554967e-01 -1.547097e-01 -1.564649e-01 -1.567193e-01 -1.571593e-01 -1.580800e-01 -1.576715e-01 -1.588431e-01 -1.582824e-01 -1.592720e-01 -1.593428e-01 -1.595702e-01 -1.608258e-01 -1.595326e-01 -1.623818e-01 -1.590238e-01 -1.638400e-01 -1.581616e-01 -1.651690e-01 -1.573209e-01 -1.665549e-01 -1.569496e-01 -1.679065e-01 -1.570643e-01 -1.688368e-01 -1.576110e-01 -1.690711e-01 -1.585660e-01 -1.684614e-01 -1.599848e-01 -1.671219e-01 -1.619684e-01 -1.653004e-01 -1.645105e-01 -1.632705e-01 -1.672969e-01 -1.611111e-01 -1.697650e-01 -1.591394e-01 -1.716454e-01 -1.579869e-01 -1.726435e-01 -1.581700e-01 -1.724276e-01 -1.601889e-01 -1.707130e-01 -1.644923e-01 -1.663078e-01 -1.667213e-01 -1.684323e-01 -1.690042e-01 -1.711905e-01 
