# vtk DataFile Version 2.0
Comment goes here
ASCII

DATASET STRUCTURED_POINTS
FIELD FieldData 1
TIME 1 1 double
0.69000000
DIMENSIONS    128   16   1

ORIGIN    0.000   0.000   0.000
SPACING   0.0078125 0.015625   1.000

POINT_DATA   2048
SCALARS P double
LOOKUP_TABLE default

-7.470512e-01 -7.380670e-01 -7.489939e-01 -7.449635e-01 -7.474106e-01 -7.513779e-01 -7.412349e-01 -7.605192e-01 -7.411466e-01 -7.632671e-01 -7.391694e-01 -7.593968e-01 -7.301576e-01 -7.426604e-01 -7.033793e-01 -7.078563e-01 -6.685104e-01 -6.662327e-01 -6.315241e-01 -6.269018e-01 -5.988849e-01 -5.977781e-01 -5.846241e-01 -5.868516e-01 -5.822790e-01 -5.836832e-01 -5.846016e-01 -5.837702e-01 -5.884815e-01 -5.853377e-01 -5.927817e-01 -5.878656e-01 -5.971782e-01 -5.911413e-01 -6.014239e-01 -5.948104e-01 -6.052092e-01 -5.985209e-01 -6.084567e-01 -6.022377e-01 -6.114677e-01 -6.061613e-01 -6.145959e-01 -6.103134e-01 -6.178706e-01 -6.143773e-01 -6.210726e-01 -6.180155e-01 -6.241333e-01 -6.212231e-01 -6.272667e-01 -6.242250e-01 -6.306844e-01 -6.271581e-01 -6.343557e-01 -6.299442e-01 -6.380010e-01 -6.323081e-01 -6.414167e-01 -6.344506e-01 -6.458723e-01 -6.392080e-01 -6.486409e-01 -6.426307e-01 -6.525702e-01 -6.456040e-01 -6.590853e-01 -6.490817e-01 -6.627137e-01 -6.539734e-01 -6.669085e-01 -6.596621e-01 -6.732288e-01 -6.653895e-01 -6.770932e-01 -6.692930e-01 -6.798546e-01 -6.723839e-01 -6.823993e-01 -6.752323e-01 -6.852599e-01 -6.780388e-01 -6.884932e-01 -6.805461e-01 -6.917225e-01 -6.823398e-01 -6.946382e-01 -6.834283e-01 -6.974232e-01 -6.843368e-01 -7.004727e-01 -6.855577e-01 -7.038134e-01 -6.871347e-01 -7.070347e-01 -6.888846e-01 -7.097250e-01 -6.907782e-01 -7.117209e-01 -6.929430e-01 -7.130223e-01 -6.955187e-01 -7.137392e-01 -6.986149e-01 -7.140788e-01 -7.022288e-01 -7.142391e-01 -7.061345e-01 -7.143715e-01 -7.099664e-01 -7.147182e-01 -7.133829e-01 -7.156416e-01 -7.160588e-01 -7.174958e-01 -7.176868e-01 -7.205844e-01 -7.181455e-01 -7.251625e-01 -7.177195e-01 -7.312938e-01 -7.174045e-01 -7.386072e-01 -7.197101e-01 -7.408311e-01 -7.242533e-01 -7.437178e-01 -7.307785e-01 
-6.426979e-01 -6.373077e-01 -6.422669e-01 -6.406655e-01 -6.378980e-01 -6.427218e-01 -6.263579e-01 -6.491020e-01 -6.263525e-01 -6.487983e-01 -6.279011e-01 -6.443025e-01 -6.296703e-01 -6.344190e-01 -6.308570e-01 -6.278589e-01 -6.325990e-01 -6.228746e-01 -6.338427e-01 -6.186017e-01 -6.329681e-01 -6.144131e-01 -6.279678e-01 -6.125006e-01 -6.265114e-01 -6.116125e-01 -6.265307e-01 -6.109851e-01 -6.269886e-01 -6.106626e-01 -6.277482e-01 -6.109792e-01 -6.287938e-01 -6.119537e-01 -6.298035e-01 -6.131752e-01 -6.303699e-01 -6.144028e-01 -6.305962e-01 -6.158005e-01 -6.307847e-01 -6.174182e-01 -6.310307e-01 -6.190548e-01 -6.312333e-01 -6.204417e-01 -6.314248e-01 -6.216216e-01 -6.318469e-01 -6.226313e-01 -6.324600e-01 -6.232884e-01 -6.331137e-01 -6.235395e-01 -6.338006e-01 -6.235335e-01 -6.345911e-01 -6.232620e-01 -6.357448e-01 -6.231119e-01 -6.346212e-01 -6.224896e-01 -6.333033e-01 -6.245292e-01 -6.354424e-01 -6.238143e-01 -6.370323e-01 -6.234046e-01 -6.401641e-01 -6.289324e-01 -6.436298e-01 -6.327084e-01 -6.470393e-01 -6.362314e-01 -6.482771e-01 -6.380212e-01 -6.483486e-01 -6.387595e-01 -6.479687e-01 -6.390684e-01 -6.478924e-01 -6.393996e-01 -6.482788e-01 -6.394145e-01 -6.485782e-01 -6.385697e-01 -6.484834e-01 -6.370505e-01 -6.485109e-01 -6.357460e-01 -6.492254e-01 -6.349478e-01 -6.501239e-01 -6.341139e-01 -6.504336e-01 -6.330585e-01 -6.500253e-01 -6.322008e-01 -6.491796e-01 -6.319672e-01 -6.478925e-01 -6.322227e-01 -6.458892e-01 -6.328383e-01 -6.433634e-01 -6.339714e-01 -6.407001e-01 -6.355371e-01 -6.381018e-01 -6.371063e-01 -6.356587e-01 -6.381766e-01 -6.337057e-01 -6.384978e-01 -6.327382e-01 -6.377780e-01 -6.331181e-01 -6.358574e-01 -6.352677e-01 -6.328469e-01 -6.393006e-01 -6.291835e-01 -6.447969e-01 -6.267160e-01 -6.420955e-01 -6.293689e-01 -6.419041e-01 -6.331848e-01 
-7.498710e-01 -7.388752e-01 -7.560721e-01 -7.459374e-01 -7.567102e-01 -7.459776e-01 -7.290745e-01 -7.732776e-01 -7.449191e-01 -7.764616e-01 -7.533638e-01 -7.852751e-01 -7.658692e-01 -7.787243e-01 -7.189594e-01 -7.210219e-01 -6.722538e-01 -6.610204e-01 -6.222003e-01 -6.057766e-01 -5.617625e-01 -5.615750e-01 -5.610526e-01 -5.716138e-01 -5.731596e-01 -5.773211e-01 -5.814422e-01 -5.805968e-01 -5.873193e-01 -5.830907e-01 -5.923301e-01 -5.861251e-01 -5.972539e-01 -5.899554e-01 -6.018001e-01 -5.938672e-01 -6.053898e-01 -5.976200e-01 -6.084921e-01 -6.017455e-01 -6.116537e-01 -6.062160e-01 -6.147744e-01 -6.105165e-01 -6.175448e-01 -6.142934e-01 -6.202643e-01 -6.180541e-01 -6.236578e-01 -6.219453e-01 -6.274156e-01 -6.252924e-01 -6.309664e-01 -6.279039e-01 -6.344623e-01 -6.305769e-01 -6.377361e-01 -6.313662e-01 -6.358692e-01 -6.225072e-01 -6.523451e-01 -6.452301e-01 -6.428517e-01 -6.451648e-01 -6.411521e-01 -6.439920e-01 -6.709780e-01 -6.425577e-01 -6.585872e-01 -6.491056e-01 -6.566482e-01 -6.588601e-01 -6.833359e-01 -6.732817e-01 -6.828307e-01 -6.739735e-01 -6.830056e-01 -6.752929e-01 -6.837507e-01 -6.769879e-01 -6.856640e-01 -6.794800e-01 -6.887239e-01 -6.818639e-01 -6.916720e-01 -6.829708e-01 -6.939204e-01 -6.831782e-01 -6.966284e-01 -6.842346e-01 -7.009208e-01 -6.863393e-01 -7.054663e-01 -6.879352e-01 -7.086978e-01 -6.886796e-01 -7.107769e-01 -6.896824e-01 -7.126687e-01 -6.919109e-01 -7.143631e-01 -6.948141e-01 -7.149671e-01 -6.979356e-01 -7.147281e-01 -7.017550e-01 -7.143755e-01 -7.063629e-01 -7.141571e-01 -7.111077e-01 -7.138986e-01 -7.151361e-01 -7.139357e-01 -7.182407e-01 -7.150175e-01 -7.199958e-01 -7.175624e-01 -7.199942e-01 -7.222527e-01 -7.178186e-01 -7.292469e-01 -7.124522e-01 -7.490386e-01 -7.154483e-01 -7.396537e-01 -7.203782e-01 -7.429001e-01 -7.292955e-01 
-6.476719e-01 -6.404297e-01 -6.580570e-01 -6.459879e-01 -6.670248e-01 -6.427075e-01 -6.268328e-01 -7.113655e-01 -6.813613e-01 -7.143907e-01 -7.023255e-01 -7.265184e-01 -7.196823e-01 -6.708506e-01 -5.300755e-01 -4.404677e-01 -3.270464e-01 -1.958598e-01 -1.090834e-01 2.910991e-02 1.356744e-01 2.038184e-01 1.799955e-01 1.887681e-01 1.644296e-01 1.732335e-01 1.484529e-01 1.575912e-01 1.326496e-01 1.418076e-01 1.168749e-01 1.256525e-01 1.009924e-01 1.091089e-01 8.512595e-02 9.245333e-02 6.945451e-02 7.578977e-02 5.381976e-02 5.896510e-02 3.807868e-02 4.205867e-02 2.231960e-02 2.531462e-02 6.661206e-03 8.867719e-03 -9.041304e-03 -7.476597e-03 -2.508642e-02 -2.378576e-02 -4.139053e-02 -3.983998e-02 -5.773670e-02 -5.560148e-02 -7.419960e-02 -7.162454e-02 -8.822169e-02 -7.952264e-02 -8.480340e-02 -4.920973e-02 -1.092462e-01 -9.796630e-02 -7.701917e-02 -1.140281e-01 -8.066894e-02 -9.777109e-02 -1.462005e-01 -8.536149e-02 -1.255861e-01 -1.254625e-01 -1.297063e-01 -1.582823e-01 -2.244509e-01 -2.211735e-01 -2.410066e-01 -2.367480e-01 -2.556798e-01 -2.522652e-01 -2.704955e-01 -2.676876e-01 -2.856651e-01 -2.832354e-01 -3.012245e-01 -2.986842e-01 -3.167944e-01 -3.137134e-01 -3.321970e-01 -3.284919e-01 -3.478025e-01 -3.435790e-01 -3.639258e-01 -3.589857e-01 -3.800237e-01 -3.741532e-01 -3.955154e-01 -3.890014e-01 -4.104830e-01 -4.039876e-01 -4.252963e-01 -4.195160e-01 -4.399684e-01 -4.354010e-01 -4.541818e-01 -4.514565e-01 -4.680067e-01 -4.677940e-01 -4.817104e-01 -4.843816e-01 -4.954218e-01 -5.009304e-01 -5.091675e-01 -5.171010e-01 -5.231828e-01 -5.327868e-01 -5.378776e-01 -5.477971e-01 -5.535451e-01 -5.619028e-01 -5.705942e-01 -5.746274e-01 -5.893148e-01 -5.843717e-01 -6.422024e-01 -6.240315e-01 -6.325095e-01 -6.248825e-01 -6.381011e-01 -6.320361e-01 
-7.558354e-01 -7.498596e-01 -7.856732e-01 -7.756235e-01 -8.208304e-01 -8.039858e-01 -8.370265e-01 -8.859375e-01 -9.156485e-01 -9.194685e-01 -9.679592e-01 -9.545689e-01 -1.014591e+00 -9.331953e-01 -4.279367e-01 -1.957421e-01 2.348112e-01 5.805789e-01 9.516052e-01 1.292543e+00 1.755524e+00 1.811586e+00 1.765863e+00 1.769004e+00 1.727749e+00 1.722941e+00 1.684970e+00 1.674466e+00 1.639488e+00 1.625063e+00 1.593050e+00 1.575997e+00 1.546498e+00 1.527502e+00 1.499548e+00 1.478922e+00 1.451607e+00 1.430091e+00 1.403119e+00 1.381597e+00 1.354619e+00 1.333507e+00 1.306017e+00 1.285435e+00 1.257012e+00 1.237125e+00 1.207866e+00 1.189123e+00 1.159241e+00 1.141579e+00 1.110794e+00 1.093815e+00 1.062008e+00 1.045652e+00 1.013115e+00 9.976936e-01 9.670924e-01 9.574741e-01 9.333653e-01 9.475068e-01 9.050538e-01 8.978060e-01 8.974534e-01 8.405358e-01 8.515763e-01 8.274847e-01 7.881008e-01 8.088377e-01 7.499523e-01 7.275238e-01 7.010217e-01 6.675920e-01 5.922206e-01 5.770821e-01 5.360167e-01 5.238036e-01 4.836372e-01 4.723440e-01 4.322968e-01 4.220837e-01 3.823810e-01 3.731673e-01 3.337267e-01 3.245290e-01 2.850305e-01 2.748990e-01 2.357018e-01 2.245469e-01 1.868915e-01 1.751343e-01 1.397503e-01 1.268194e-01 9.307771e-02 7.804426e-02 4.544424e-02 2.840697e-02 -2.955169e-03 -2.111290e-02 -5.118153e-02 -6.968147e-02 -9.926972e-02 -1.178676e-01 -1.481249e-01 -1.660846e-01 -1.975566e-01 -2.137569e-01 -2.469560e-01 -2.606315e-01 -2.962401e-01 -3.071591e-01 -3.458296e-01 -3.540193e-01 -3.957196e-01 -4.012955e-01 -4.455530e-01 -4.493179e-01 -4.952933e-01 -4.984425e-01 -5.446786e-01 -5.489230e-01 -5.940203e-01 -6.008221e-01 -6.665065e-01 -6.775538e-01 -6.978047e-01 -7.011842e-01 -7.274479e-01 -7.252689e-01 
-6.503485e-01 -6.559868e-01 -6.811619e-01 -6.876273e-01 -7.158107e-01 -7.267935e-01 -7.577951e-01 -7.763945e-01 -8.082760e-01 -8.194811e-01 -8.554838e-01 -8.603152e-01 -8.990937e-01 -8.949249e-01 -2.461648e-01 -1.780142e-01 4.248153e-01 5.251076e-01 1.118752e+00 1.203289e+00 1.837830e+00 1.850624e+00 1.802410e+00 1.808176e+00 1.761561e+00 1.762814e+00 1.718233e+00 1.715447e+00 1.673263e+00 1.667268e+00 1.627727e+00 1.619304e+00 1.582160e+00 1.571795e+00 1.536306e+00 1.524278e+00 1.489705e+00 1.476635e+00 1.442672e+00 1.429297e+00 1.395589e+00 1.382288e+00 1.348376e+00 1.335282e+00 1.300809e+00 1.288070e+00 1.253108e+00 1.241039e+00 1.205779e+00 1.194273e+00 1.158564e+00 1.147217e+00 1.111032e+00 1.099652e+00 1.063285e+00 1.051967e+00 1.015976e+00 1.005085e+00 9.690799e-01 9.602379e-01 9.309905e-01 9.179865e-01 8.855500e-01 8.675038e-01 8.362617e-01 8.251890e-01 7.952196e-01 7.825570e-01 7.444827e-01 7.329354e-01 6.966050e-01 6.881840e-01 6.470018e-01 6.369670e-01 5.977561e-01 5.880693e-01 5.488532e-01 5.394126e-01 5.001096e-01 4.910947e-01 4.521608e-01 4.434843e-01 4.050567e-01 3.959145e-01 3.579126e-01 3.475122e-01 3.103334e-01 2.985350e-01 2.631943e-01 2.502427e-01 2.173337e-01 2.027586e-01 1.718092e-01 1.549257e-01 1.255020e-01 1.064627e-01 7.853417e-02 5.814587e-02 3.160109e-02 1.064695e-02 -1.532655e-02 -3.643692e-02 -6.292920e-02 -8.341625e-02 -1.110712e-01 -1.298863e-01 -1.592820e-01 -1.756966e-01 -2.074699e-01 -2.212382e-01 -2.558999e-01 -2.670736e-01 -3.045067e-01 -3.133190e-01 -3.529455e-01 -3.602608e-01 -4.011118e-01 -4.082058e-01 -4.487473e-01 -4.574891e-01 -4.960387e-01 -5.088179e-01 -5.445773e-01 -5.638539e-01 -5.864900e-01 -5.974025e-01 -6.199329e-01 -6.269659e-01 
-7.571420e-01 -7.575169e-01 -7.958138e-01 -7.960331e-01 -8.363237e-01 -8.384529e-01 -8.794661e-01 -8.874313e-01 -9.302358e-01 -9.346967e-01 -9.817050e-01 -9.826701e-01 -1.033095e+00 -1.032700e+00 -3.312959e-01 -2.676736e-01 3.890464e-01 4.823278e-01 1.134108e+00 1.205644e+00 1.905107e+00 1.897550e+00 1.855022e+00 1.846940e+00 1.806216e+00 1.796272e+00 1.757701e+00 1.745467e+00 1.709124e+00 1.694663e+00 1.660459e+00 1.644055e+00 1.611705e+00 1.593692e+00 1.562743e+00 1.543476e+00 1.513450e+00 1.493364e+00 1.463868e+00 1.443413e+00 1.414095e+00 1.393624e+00 1.364160e+00 1.343915e+00 1.314057e+00 1.294220e+00 1.263853e+00 1.244561e+00 1.213646e+00 1.194896e+00 1.163384e+00 1.145053e+00 1.112952e+00 1.094856e+00 1.062264e+00 1.044100e+00 1.011146e+00 9.922285e-01 9.607221e-01 9.428126e-01 9.087795e-01 8.927002e-01 8.578204e-01 8.449637e-01 8.098553e-01 7.953254e-01 7.613042e-01 7.463660e-01 7.144121e-01 7.002413e-01 6.657311e-01 6.516714e-01 6.172057e-01 6.040780e-01 5.672852e-01 5.546263e-01 5.166363e-01 5.044853e-01 4.658694e-01 4.541833e-01 4.153436e-01 4.039395e-01 3.651327e-01 3.536438e-01 3.150671e-01 3.031208e-01 2.650694e-01 2.524516e-01 2.153160e-01 2.019251e-01 1.659476e-01 1.516096e-01 1.167369e-01 1.013068e-01 6.737429e-02 5.095906e-02 1.778809e-02 7.380305e-04 -3.194380e-02 -4.918727e-02 -8.184643e-02 -9.884324e-02 -1.320398e-01 -1.482698e-01 -1.824909e-01 -1.974084e-01 -2.330789e-01 -2.462698e-01 -2.837414e-01 -2.950057e-01 -3.344776e-01 -3.438222e-01 -3.852217e-01 -3.928498e-01 -4.358413e-01 -4.421947e-01 -4.862240e-01 -4.918911e-01 -5.362547e-01 -5.418413e-01 -5.859086e-01 -5.917635e-01 -6.352046e-01 -6.410843e-01 -6.787526e-01 -6.825096e-01 -7.187330e-01 -7.204370e-01 
-6.518122e-01 -6.615922e-01 -6.895718e-01 -7.001011e-01 -7.294528e-01 -7.417495e-01 -7.727788e-01 -7.871722e-01 -8.198648e-01 -8.353063e-01 -8.698642e-01 -8.874262e-01 -9.234875e-01 -9.463405e-01 -2.319188e-01 -2.257056e-01 4.631882e-01 4.829788e-01 1.167846e+00 1.181095e+00 1.884712e+00 1.873621e+00 1.826344e+00 1.819621e+00 1.773882e+00 1.768435e+00 1.724451e+00 1.718628e+00 1.676534e+00 1.669581e+00 1.629394e+00 1.621077e+00 1.582636e+00 1.572983e+00 1.535968e+00 1.525150e+00 1.489177e+00 1.477485e+00 1.442211e+00 1.429989e+00 1.395111e+00 1.382658e+00 1.347903e+00 1.335429e+00 1.300585e+00 1.288221e+00 1.253174e+00 1.240997e+00 1.205717e+00 1.193716e+00 1.158214e+00 1.146301e+00 1.110636e+00 1.098684e+00 1.062957e+00 1.050792e+00 1.015109e+00 1.002439e+00 9.677222e-01 9.553414e-01 9.199469e-01 9.095339e-01 8.727088e-01 8.621636e-01 8.259406e-01 8.152053e-01 7.798956e-01 7.685617e-01 7.329689e-01 7.213015e-01 6.864433e-01 6.750994e-01 6.407305e-01 6.302097e-01 5.940684e-01 5.838666e-01 5.468132e-01 5.368218e-01 4.993837e-01 4.894761e-01 4.520611e-01 4.420134e-01 4.049240e-01 3.943874e-01 3.578759e-01 3.464988e-01 3.108665e-01 2.984193e-01 2.640106e-01 2.503720e-01 2.174117e-01 2.024643e-01 1.709435e-01 1.546250e-01 1.243849e-01 1.068245e-01 7.762739e-02 5.916027e-02 3.066535e-02 1.174420e-02 -1.653053e-02 -3.540788e-02 -6.401381e-02 -8.229897e-02 -1.117452e-01 -1.289068e-01 -1.596304e-01 -1.752755e-01 -2.075984e-01 -2.215448e-01 -2.555907e-01 -2.678852e-01 -3.034916e-01 -3.144178e-01 -3.511278e-01 -3.612164e-01 -3.983036e-01 -4.082473e-01 -4.447726e-01 -4.552779e-01 -4.902378e-01 -5.017411e-01 -5.342442e-01 -5.464305e-01 -5.756769e-01 -5.867837e-01 -6.144274e-01 -6.244941e-01 
-7.575516e-01 -7.596099e-01 -7.988337e-01 -8.011185e-01 -8.416477e-01 -8.451925e-01 -8.871513e-01 -8.926594e-01 -9.365122e-01 -9.427677e-01 -9.890298e-01 -9.969510e-01 -1.045237e+00 -1.058319e+00 -3.176823e-01 -2.958330e-01 4.166521e-01 4.525326e-01 1.164731e+00 1.185958e+00 1.928025e+00 1.909489e+00 1.867269e+00 1.852945e+00 1.812510e+00 1.799319e+00 1.760821e+00 1.747156e+00 1.710620e+00 1.695763e+00 1.661091e+00 1.644849e+00 1.611821e+00 1.594277e+00 1.562566e+00 1.543941e+00 1.513169e+00 1.493761e+00 1.463566e+00 1.443712e+00 1.413789e+00 1.393808e+00 1.363896e+00 1.344028e+00 1.313898e+00 1.294291e+00 1.263771e+00 1.244509e+00 1.213515e+00 1.194649e+00 1.163179e+00 1.144725e+00 1.112819e+00 1.094750e+00 1.062461e+00 1.044736e+00 1.012129e+00 9.947986e-01 9.617619e-01 9.441871e-01 9.102928e-01 8.938455e-01 8.593503e-01 8.441107e-01 8.093660e-01 7.938458e-01 7.590178e-01 7.438931e-01 7.096328e-01 6.959979e-01 6.617076e-01 6.482070e-01 6.132127e-01 6.001557e-01 5.639643e-01 5.513192e-01 5.142203e-01 5.019653e-01 4.642794e-01 4.523232e-01 4.143491e-01 4.025122e-01 3.645060e-01 3.525337e-01 3.147212e-01 3.023491e-01 2.649616e-01 2.519921e-01 2.152667e-01 2.015899e-01 1.657018e-01 1.512682e-01 1.162586e-01 1.010723e-01 6.683498e-02 5.099143e-02 1.730771e-02 1.025689e-03 -3.240586e-02 -4.879543e-02 -8.233937e-02 -9.843092e-02 -1.324854e-01 -1.478483e-01 -1.828080e-01 -1.970487e-01 -2.332642e-01 -2.460856e-01 -2.838102e-01 -2.950480e-01 -3.343797e-01 -3.440252e-01 -3.848743e-01 -3.930843e-01 -4.351715e-01 -4.422419e-01 -4.851172e-01 -4.914063e-01 -5.344949e-01 -5.403051e-01 -5.829701e-01 -5.884058e-01 -6.299573e-01 -6.348114e-01 -6.743220e-01 -6.780863e-01 -7.164896e-01 -7.191618e-01 
-6.517911e-01 -6.615736e-01 -6.895461e-01 -7.000748e-01 -7.294226e-01 -7.417136e-01 -7.727440e-01 -7.871244e-01 -8.198275e-01 -8.352486e-01 -8.698279e-01 -8.873562e-01 -9.234526e-01 -9.462577e-01 -2.318255e-01 -2.255972e-01 4.633579e-01 4.831210e-01 1.168104e+00 1.181267e+00 1.885031e+00 1.873817e+00 1.826574e+00 1.819741e+00 1.774042e+00 1.768539e+00 1.724608e+00 1.718766e+00 1.676702e+00 1.669728e+00 1.629533e+00 1.621206e+00 1.582755e+00 1.573131e+00 1.536118e+00 1.525349e+00 1.489349e+00 1.477658e+00 1.442289e+00 1.430026e+00 1.395059e+00 1.382618e+00 1.347874e+00 1.335493e+00 1.300733e+00 1.288441e+00 1.253422e+00 1.241177e+00 1.205835e+00 1.193691e+00 1.158165e+00 1.146196e+00 1.110641e+00 1.098812e+00 1.063288e+00 1.051463e+00 1.015957e+00 1.004049e+00 9.685836e-01 9.567300e-01 9.211715e-01 9.095782e-01 8.739101e-01 8.624657e-01 8.269009e-01 8.155614e-01 7.801246e-01 7.688621e-01 7.333937e-01 7.222617e-01 6.866716e-01 6.757720e-01 6.398515e-01 6.292712e-01 5.927542e-01 5.824685e-01 5.454689e-01 5.354328e-01 4.982291e-01 4.883249e-01 4.512182e-01 4.411954e-01 4.044343e-01 3.939105e-01 3.576841e-01 3.462487e-01 3.107852e-01 2.981749e-01 2.637986e-01 2.499428e-01 2.169675e-01 2.018956e-01 1.704399e-01 1.541682e-01 1.240633e-01 1.066408e-01 7.753912e-02 5.918111e-02 3.066535e-02 1.178482e-02 -1.658459e-02 -3.542330e-02 -6.410589e-02 -8.231484e-02 -1.118033e-01 -1.288840e-01 -1.596483e-01 -1.752517e-01 -2.076304e-01 -2.215666e-01 -2.556478e-01 -2.679278e-01 -3.035373e-01 -3.144517e-01 -3.511530e-01 -3.612433e-01 -3.983254e-01 -4.082911e-01 -4.448177e-01 -4.553436e-01 -4.902857e-01 -5.017902e-01 -5.342649e-01 -5.464516e-01 -5.756756e-01 -5.867850e-01 -6.144132e-01 -6.244835e-01 
-7.571047e-01 -7.574873e-01 -7.957730e-01 -7.959929e-01 -8.362798e-01 -8.383989e-01 -8.794223e-01 -8.873608e-01 -9.302022e-01 -9.346156e-01 -9.816905e-01 -9.825634e-01 -1.033092e+00 -1.032532e+00 -3.311875e-01 -2.675115e-01 3.892781e-01 4.824964e-01 1.134498e+00 1.205854e+00 1.905693e+00 1.897959e+00 1.855399e+00 1.847202e+00 1.806476e+00 1.796504e+00 1.757975e+00 1.745759e+00 1.709423e+00 1.694948e+00 1.660688e+00 1.644273e+00 1.611873e+00 1.593916e+00 1.562958e+00 1.543786e+00 1.513710e+00 1.493630e+00 1.463962e+00 1.443429e+00 1.413950e+00 1.393493e+00 1.364047e+00 1.343969e+00 1.314257e+00 1.294542e+00 1.264206e+00 1.244767e+00 1.213701e+00 1.194656e+00 1.163064e+00 1.144596e+00 1.112672e+00 1.094785e+00 1.062544e+00 1.045061e+00 1.012395e+00 9.951437e-01 9.619941e-01 9.449458e-01 9.113498e-01 8.947073e-01 8.608303e-01 8.447347e-01 8.106419e-01 7.950919e-01 7.607419e-01 7.458638e-01 7.112471e-01 6.970817e-01 6.619661e-01 6.483425e-01 6.124521e-01 5.993683e-01 5.626185e-01 5.500748e-01 5.125880e-01 5.005939e-01 4.626441e-01 4.511355e-01 4.130045e-01 4.017533e-01 3.636460e-01 3.522478e-01 3.142733e-01 3.022659e-01 2.645953e-01 2.517140e-01 2.146968e-01 2.009325e-01 1.649689e-01 1.504238e-01 1.157011e-01 1.003777e-01 6.670983e-02 5.056359e-02 1.757194e-02 7.351051e-04 -3.198869e-02 -4.914592e-02 -8.198260e-02 -9.889085e-02 -1.322252e-01 -1.482947e-01 -1.825903e-01 -1.973431e-01 -2.330908e-01 -2.461992e-01 -2.837845e-01 -2.950321e-01 -3.345809e-01 -3.439011e-01 -3.853162e-01 -3.929252e-01 -4.359074e-01 -4.422615e-01 -4.862808e-01 -4.919822e-01 -5.363433e-01 -5.419591e-01 -5.859830e-01 -5.918337e-01 -6.352157e-01 -6.411056e-01 -6.787336e-01 -6.825044e-01 -7.187011e-01 -7.204173e-01 
-6.502757e-01 -6.559294e-01 -6.810840e-01 -6.875563e-01 -7.157210e-01 -7.266942e-01 -7.576821e-01 -7.762437e-01 -8.081505e-01 -8.193175e-01 -8.553729e-01 -8.601069e-01 -8.989661e-01 -8.946417e-01 -2.459575e-01 -1.777209e-01 4.252779e-01 5.255516e-01 1.119634e+00 1.203825e+00 1.839084e+00 1.851162e+00 1.803027e+00 1.808308e+00 1.761775e+00 1.762917e+00 1.718648e+00 1.715973e+00 1.673923e+00 1.667812e+00 1.628107e+00 1.619547e+00 1.582309e+00 1.572107e+00 1.536798e+00 1.525184e+00 1.490683e+00 1.477595e+00 1.443046e+00 1.429171e+00 1.394829e+00 1.381441e+00 1.347668e+00 1.335269e+00 1.301562e+00 1.289503e+00 1.254770e+00 1.242248e+00 1.206290e+00 1.193705e+00 1.157527e+00 1.145646e+00 1.109966e+00 1.098796e+00 1.063521e+00 1.052387e+00 1.016971e+00 1.005271e+00 9.695965e-01 9.574426e-01 9.217791e-01 9.094594e-01 8.741041e-01 8.619373e-01 8.269273e-01 8.150843e-01 7.801607e-01 7.687627e-01 7.337810e-01 7.227805e-01 6.872915e-01 6.764847e-01 6.400765e-01 6.295389e-01 5.921907e-01 5.820017e-01 5.439418e-01 5.343328e-01 4.961590e-01 4.872604e-01 4.494673e-01 4.409986e-01 4.038096e-01 3.949420e-01 3.580876e-01 3.476465e-01 3.110541e-01 2.985635e-01 2.629654e-01 2.487739e-01 2.153090e-01 2.000474e-01 1.693331e-01 1.529109e-01 1.243321e-01 1.061852e-01 7.884960e-02 5.894769e-02 3.217040e-02 1.107207e-02 -1.555295e-02 -3.670556e-02 -6.349339e-02 -8.362045e-02 -1.112706e-01 -1.296669e-01 -1.591183e-01 -1.754389e-01 -2.075218e-01 -2.214026e-01 -2.562172e-01 -2.673191e-01 -3.046798e-01 -3.134142e-01 -3.529531e-01 -3.602456e-01 -4.010702e-01 -4.083169e-01 -4.489654e-01 -4.578408e-01 -4.963018e-01 -5.090105e-01 -5.446188e-01 -5.638840e-01 -5.864490e-01 -5.973755e-01 -6.198668e-01 -6.269186e-01 
-7.557527e-01 -7.498023e-01 -7.855905e-01 -7.755569e-01 -8.207292e-01 -8.038900e-01 -8.369066e-01 -8.857909e-01 -9.155603e-01 -9.193755e-01 -9.679687e-01 -9.545145e-01 -1.014676e+00 -9.331315e-01 -4.277874e-01 -1.954659e-01 2.351114e-01 5.807179e-01 9.521318e-01 1.292256e+00 1.756289e+00 1.812112e+00 1.766239e+00 1.769137e+00 1.727853e+00 1.723121e+00 1.685466e+00 1.675212e+00 1.640316e+00 1.625760e+00 1.593435e+00 1.576176e+00 1.546480e+00 1.527666e+00 1.499923e+00 1.479837e+00 1.452652e+00 1.431122e+00 1.403448e+00 1.381270e+00 1.353519e+00 1.332288e+00 1.305004e+00 1.285326e+00 1.257880e+00 1.238877e+00 1.209840e+00 1.190465e+00 1.159558e+00 1.140391e+00 1.108896e+00 1.090996e+00 1.059783e+00 1.043211e+00 1.012092e+00 9.960040e-01 9.642156e-01 9.478370e-01 9.152102e-01 8.986643e-01 8.654405e-01 8.488661e-01 8.160139e-01 7.998575e-01 7.671521e-01 7.518361e-01 7.185333e-01 7.044754e-01 6.709127e-01 6.575613e-01 6.232803e-01 6.102184e-01 5.744786e-01 5.620299e-01 5.250902e-01 5.132635e-01 4.752925e-01 4.643837e-01 4.260467e-01 4.163060e-01 3.781286e-01 3.693295e-01 3.314870e-01 3.227169e-01 2.847272e-01 2.746056e-01 2.362383e-01 2.242686e-01 1.863564e-01 1.730689e-01 1.370146e-01 1.232595e-01 8.985231e-02 7.546567e-02 4.395260e-02 2.808985e-02 -2.538511e-03 -2.006647e-02 -5.047073e-02 -6.915758e-02 -9.960118e-02 -1.182297e-01 -1.488411e-01 -1.662952e-01 -1.977221e-01 -2.133505e-01 -2.466030e-01 -2.601616e-01 -2.961924e-01 -3.072911e-01 -3.461927e-01 -3.543235e-01 -3.959632e-01 -4.014646e-01 -4.456331e-01 -4.493683e-01 -4.953071e-01 -4.986260e-01 -5.449755e-01 -5.493390e-01 -5.942745e-01 -6.009256e-01 -6.663900e-01 -6.775082e-01 -6.976977e-01 -7.011257e-01 -7.273546e-01 -7.252114e-01 
-6.475410e-01 -6.403479e-01 -6.579543e-01 -6.459310e-01 -6.669274e-01 -6.426685e-01 -6.267690e-01 -7.113587e-01 -6.813812e-01 -7.144624e-01 -7.024367e-01 -7.266658e-01 -7.198563e-01 -6.709409e-01 -5.303830e-01 -4.405927e-01 -3.274905e-01 -1.961701e-01 -1.095718e-01 2.863502e-02 1.353064e-01 2.036535e-01 1.799823e-01 1.889225e-01 1.646895e-01 1.734814e-01 1.485958e-01 1.575586e-01 1.324911e-01 1.415325e-01 1.165576e-01 1.252047e-01 1.004793e-01 1.083547e-01 8.424915e-02 9.129690e-02 6.834831e-02 7.468821e-02 5.318673e-02 5.861938e-02 3.824494e-02 4.234169e-02 2.267928e-02 2.541634e-02 6.430511e-03 8.363089e-03 -9.698200e-03 -7.897781e-03 -2.519188e-02 -2.341866e-02 -4.067088e-02 -3.901932e-02 -5.679000e-02 -5.503541e-02 -7.344884e-02 -7.111190e-02 -9.002098e-02 -8.675811e-02 -1.061596e-01 -1.020933e-01 -1.223264e-01 -1.180864e-01 -1.383005e-01 -1.340717e-01 -1.547481e-01 -1.502480e-01 -1.719924e-01 -1.669127e-01 -1.887190e-01 -1.839869e-01 -2.052587e-01 -2.010321e-01 -2.218488e-01 -2.177757e-01 -2.375916e-01 -2.339078e-01 -2.529463e-01 -2.498575e-01 -2.684751e-01 -2.660231e-01 -2.845159e-01 -2.824817e-01 -3.010238e-01 -2.989039e-01 -3.174332e-01 -3.145620e-01 -3.331022e-01 -3.291864e-01 -3.481293e-01 -3.433271e-01 -3.632142e-01 -3.578898e-01 -3.789489e-01 -3.732064e-01 -3.950008e-01 -3.887908e-01 -4.106638e-01 -4.042419e-01 -4.255607e-01 -4.195031e-01 -4.397470e-01 -4.349267e-01 -4.536407e-01 -4.508646e-01 -4.674818e-01 -4.672932e-01 -4.812729e-01 -4.838998e-01 -4.949299e-01 -5.003887e-01 -5.087176e-01 -5.167473e-01 -5.230151e-01 -5.327132e-01 -5.379368e-01 -5.478726e-01 -5.536299e-01 -5.618469e-01 -5.703890e-01 -5.742445e-01 -5.888333e-01 -5.838417e-01 -6.416467e-01 -6.236794e-01 -6.321982e-01 -6.246794e-01 -6.379089e-01 -6.319115e-01 
-7.497855e-01 -7.388276e-01 -7.560220e-01 -7.459245e-01 -7.566910e-01 -7.460095e-01 -7.291191e-01 -7.733882e-01 -7.450474e-01 -7.766260e-01 -7.535474e-01 -7.855080e-01 -7.661089e-01 -7.789499e-01 -7.191987e-01 -7.212836e-01 -6.726919e-01 -6.615918e-01 -6.228929e-01 -6.064862e-01 -5.622912e-01 -5.618679e-01 -5.611200e-01 -5.713859e-01 -5.728460e-01 -5.770680e-01 -5.815408e-01 -5.810226e-01 -5.879581e-01 -5.837401e-01 -5.928437e-01 -5.866131e-01 -5.977043e-01 -5.907522e-01 -6.028892e-01 -5.955876e-01 -6.071805e-01 -5.993959e-01 -6.093678e-01 -6.019017e-01 -6.108140e-01 -6.051923e-01 -6.138319e-01 -6.104629e-01 -6.184883e-01 -6.161632e-01 -6.224460e-01 -6.196993e-01 -6.243177e-01 -6.213239e-01 -6.259807e-01 -6.234325e-01 -6.293870e-01 -6.269978e-01 -6.343508e-01 -6.310017e-01 -6.391739e-01 -6.339703e-01 -6.429072e-01 -6.361057e-01 -6.462724e-01 -6.386860e-01 -6.496001e-01 -6.416994e-01 -6.538175e-01 -6.454381e-01 -6.590180e-01 -6.500418e-01 -6.640962e-01 -6.554154e-01 -6.689166e-01 -6.605677e-01 -6.730577e-01 -6.648188e-01 -6.757578e-01 -6.678617e-01 -6.775650e-01 -6.704424e-01 -6.797831e-01 -6.736436e-01 -6.833650e-01 -6.777939e-01 -6.882790e-01 -6.820819e-01 -6.930272e-01 -6.845298e-01 -6.958789e-01 -6.843987e-01 -6.971595e-01 -6.831909e-01 -6.988597e-01 -6.833529e-01 -7.026373e-01 -6.856447e-01 -7.074948e-01 -6.885173e-01 -7.114500e-01 -6.907913e-01 -7.135499e-01 -6.923330e-01 -7.140184e-01 -6.941421e-01 -7.140199e-01 -6.972241e-01 -7.141469e-01 -7.015349e-01 -7.142161e-01 -7.062014e-01 -7.137323e-01 -7.104865e-01 -7.132372e-01 -7.145919e-01 -7.136316e-01 -7.180689e-01 -7.150434e-01 -7.200533e-01 -7.176538e-01 -7.198338e-01 -7.218640e-01 -7.171815e-01 -7.286135e-01 -7.118852e-01 -7.485823e-01 -7.151362e-01 -7.394052e-01 -7.202108e-01 -7.427572e-01 -7.292038e-01 
-6.426411e-01 -6.372736e-01 -6.422308e-01 -6.406511e-01 -6.378812e-01 -6.427306e-01 -6.263721e-01 -6.491462e-01 -6.264045e-01 -6.488650e-01 -6.279831e-01 -6.443969e-01 -6.297939e-01 -6.345263e-01 -6.310137e-01 -6.279928e-01 -6.328392e-01 -6.231024e-01 -6.341672e-01 -6.188564e-01 -6.332255e-01 -6.145455e-01 -6.280383e-01 -6.124461e-01 -6.264336e-01 -6.115578e-01 -6.266090e-01 -6.111947e-01 -6.272778e-01 -6.109735e-01 -6.280067e-01 -6.112493e-01 -6.290439e-01 -6.123546e-01 -6.302984e-01 -6.139208e-01 -6.311149e-01 -6.151488e-01 -6.309750e-01 -6.159133e-01 -6.304980e-01 -6.170659e-01 -6.306907e-01 -6.190492e-01 -6.315852e-01 -6.211310e-01 -6.322090e-01 -6.221861e-01 -6.320115e-01 -6.222965e-01 -6.317798e-01 -6.224545e-01 -6.323389e-01 -6.230993e-01 -6.336095e-01 -6.238404e-01 -6.348446e-01 -6.240864e-01 -6.355604e-01 -6.239566e-01 -6.358296e-01 -6.239367e-01 -6.362515e-01 -6.245047e-01 -6.375121e-01 -6.254773e-01 -6.393670e-01 -6.271791e-01 -6.416204e-01 -6.299042e-01 -6.438218e-01 -6.325439e-01 -6.454282e-01 -6.345994e-01 -6.460706e-01 -6.358363e-01 -6.460384e-01 -6.365804e-01 -6.460393e-01 -6.373741e-01 -6.466321e-01 -6.384000e-01 -6.478266e-01 -6.392357e-01 -6.489034e-01 -6.389736e-01 -6.490896e-01 -6.373576e-01 -6.485873e-01 -6.352018e-01 -6.483193e-01 -6.336722e-01 -6.489279e-01 -6.331136e-01 -6.498675e-01 -6.328918e-01 -6.501950e-01 -6.325449e-01 -6.494502e-01 -6.320734e-01 -6.477102e-01 -6.319193e-01 -6.454738e-01 -6.325128e-01 -6.430802e-01 -6.338282e-01 -6.405770e-01 -6.354191e-01 -6.378866e-01 -6.368220e-01 -6.353618e-01 -6.379239e-01 -6.335471e-01 -6.383888e-01 -6.327085e-01 -6.377568e-01 -6.331119e-01 -6.357532e-01 -6.350807e-01 -6.325660e-01 -6.390220e-01 -6.289340e-01 -6.445901e-01 -6.265586e-01 -6.419603e-01 -6.292717e-01 -6.418168e-01 -6.331257e-01 
