# vtk DataFile Version 2.0
Comment goes here
ASCII

DATASET STRUCTURED_POINTS
FIELD FieldData 1
TIME 1 1 double
0.03000000
DIMENSIONS    128   16   1

ORIGIN    0.000   0.000   0.000
SPACING   0.0078125 0.015625   1.000

POINT_DATA   2048
SCALARS P double
LOOKUP_TABLE default

2.480271e-01 2.609026e-01 2.391551e-01 2.551268e-01 2.320911e-01 2.494574e-01 2.213734e-01 2.366108e-01 2.081016e-01 2.274191e-01 2.114225e-01 2.237364e-01 2.107780e-01 2.018823e-01 1.871799e-01 1.757345e-01 1.723189e-01 1.671067e-01 1.813689e-01 1.849150e-01 2.119669e-01 2.163095e-01 2.273587e-01 1.998420e-01 2.152318e-01 2.183697e-01 2.756459e-01 2.697784e-01 2.914966e-01 2.446776e-01 2.723079e-01 2.674900e-01 3.283683e-01 3.009924e-01 3.163163e-01 2.626167e-01 2.883024e-01 2.659259e-01 2.910117e-01 2.524999e-01 2.533240e-01 2.171979e-01 2.163940e-01 1.836068e-01 1.709940e-01 1.300731e-01 1.219560e-01 1.008340e-01 1.004262e-01 8.188617e-02 9.188046e-02 9.023717e-02 1.160461e-01 1.209758e-01 1.637020e-01 1.827754e-01 2.298174e-01 2.516354e-01 2.997352e-01 3.036134e-01 3.304678e-01 3.272320e-01 3.300208e-01 3.066892e-01 2.885844e-01 2.518916e-01 2.369229e-01 1.999506e-01 1.788450e-01 1.504938e-01 1.373042e-01 1.171846e-01 1.185844e-01 1.103943e-01 1.203376e-01 1.135820e-01 1.222303e-01 1.094770e-01 1.191647e-01 1.079745e-01 1.085823e-01 9.549774e-02 9.074577e-02 8.352947e-02 6.867957e-02 6.084298e-02 4.898458e-02 4.234373e-02 3.217279e-02 3.699427e-02 3.434779e-02 4.644451e-02 6.901119e-02 9.572252e-02 1.055634e-01 1.148096e-01 1.418894e-01 1.874842e-01 2.140267e-01 2.070236e-01 1.669956e-01 1.348169e-01 1.232464e-01 1.248913e-01 1.246430e-01 1.042056e-01 7.991113e-02 7.429481e-02 7.425228e-02 1.071026e-01 1.146290e-01 1.328986e-01 1.239724e-01 1.410519e-01 1.421521e-01 1.944333e-01 2.157181e-01 2.859375e-01 3.096670e-01 3.502034e-01 3.439170e-01 3.524807e-01 3.164219e-01 3.166855e-01 2.850713e-01 2.888933e-01 2.624041e-01 2.710619e-01 
2.336287e-01 2.293953e-01 2.301750e-01 2.273031e-01 2.278233e-01 2.232075e-01 2.182123e-01 1.964810e-01 1.831704e-01 1.975567e-01 2.204570e-01 2.109408e-01 2.364887e-01 1.713596e-01 1.737879e-01 1.176301e-01 1.433051e-01 1.071513e-01 1.756502e-01 1.564823e-01 2.631301e-01 2.717194e-01 3.153345e-01 2.490969e-01 2.517888e-01 2.601087e-01 3.294774e-01 3.250428e-01 3.109747e-01 2.263172e-01 2.304630e-01 2.714253e-01 3.540703e-01 3.319249e-01 2.999070e-01 2.193355e-01 2.299973e-01 2.537141e-01 2.895697e-01 2.693187e-01 2.501683e-01 2.344327e-01 2.183953e-01 2.004530e-01 1.587183e-01 1.128955e-01 8.746813e-02 9.331260e-02 8.432096e-02 7.604552e-02 7.525913e-02 9.709442e-02 1.172099e-01 1.327785e-01 1.811526e-01 2.273001e-01 2.796515e-01 3.243285e-01 3.827897e-01 3.927190e-01 4.056505e-01 4.004898e-01 3.795681e-01 3.579050e-01 3.191250e-01 2.720837e-01 2.429114e-01 2.037757e-01 1.657292e-01 1.412213e-01 1.210068e-01 1.024295e-01 9.789922e-02 9.677110e-02 1.064776e-01 1.028715e-01 1.075772e-01 8.688334e-02 1.016138e-01 8.676266e-02 8.635392e-02 6.549722e-02 6.132637e-02 5.434302e-02 3.265926e-02 2.555311e-02 1.731874e-02 1.149655e-02 6.172410e-03 2.099292e-02 1.552945e-02 2.247923e-02 5.211927e-02 6.886957e-02 5.468096e-02 2.803927e-02 8.173799e-02 1.732537e-01 2.504795e-01 2.362045e-01 1.659439e-01 1.089001e-01 1.123776e-01 1.259647e-01 1.482731e-01 1.038325e-01 8.522724e-02 7.632547e-02 9.777209e-02 1.576918e-01 1.805510e-01 1.709355e-01 1.656135e-01 1.468252e-01 1.533250e-01 1.889219e-01 2.055764e-01 2.911588e-01 3.538138e-01 3.841783e-01 4.140795e-01 3.905253e-01 3.289370e-01 2.948911e-01 2.701679e-01 2.535993e-01 2.441352e-01 2.358951e-01 
2.250950e-01 2.445427e-01 2.314306e-01 2.558898e-01 2.454258e-01 2.756550e-01 2.411043e-01 2.036840e-01 1.145613e-01 2.038211e-01 2.560841e-01 3.508376e-01 3.671344e-01 2.799729e-01 1.844310e-01 1.361356e-01 8.646476e-02 6.761340e-02 1.038449e-01 1.559567e-01 3.244945e-01 4.889419e-01 4.373466e-01 1.422571e-01 -1.201520e-02 1.303797e-01 4.955051e-01 6.161606e-01 4.512692e-01 1.681851e-02 -9.439413e-02 1.413433e-01 5.410727e-01 5.441203e-01 3.261253e-01 3.036459e-04 4.479571e-02 2.253303e-01 3.795510e-01 3.015436e-01 2.295927e-01 2.050052e-01 2.531929e-01 2.756020e-01 1.916267e-01 2.313563e-02 4.331430e-03 7.312951e-02 8.340559e-02 2.682487e-02 3.687749e-02 9.683038e-02 1.188185e-01 7.676911e-02 1.651838e-01 2.322851e-01 2.927548e-01 3.893227e-01 5.107315e-01 4.296602e-01 4.397923e-01 4.743822e-01 4.484686e-01 3.901097e-01 2.658119e-01 1.806830e-01 2.209462e-01 1.725237e-01 1.121019e-01 9.325863e-02 5.378096e-02 2.858145e-02 5.769434e-02 8.567511e-02 1.214509e-01 1.333596e-01 1.295303e-01 8.472255e-02 1.377272e-01 1.238338e-01 1.087236e-01 5.475924e-02 6.485676e-02 7.992528e-02 4.763975e-03 4.440654e-04 2.997278e-02 1.643352e-02 3.847007e-03 4.247503e-02 -3.760268e-02 -5.188174e-02 9.161198e-02 1.859882e-01 -7.308690e-04 -2.524049e-01 -1.277164e-01 3.052994e-01 6.101506e-01 4.767293e-01 7.023851e-02 -1.278094e-01 9.713820e-03 2.692936e-01 3.673420e-01 1.586712e-01 -6.438997e-02 -1.144333e-01 2.512446e-02 3.311223e-01 4.433907e-01 3.708518e-01 2.152975e-01 5.291986e-02 5.015091e-03 1.062978e-01 1.716080e-01 4.076997e-01 5.372886e-01 5.742963e-01 5.858147e-01 5.002668e-01 3.304262e-01 2.938898e-01 2.519540e-01 2.526786e-01 2.287441e-01 2.416375e-01 
1.956642e-01 2.053249e-01 2.233939e-01 2.353473e-01 2.611276e-01 2.809161e-01 2.454679e-01 1.260094e-01 -1.969701e-03 3.229640e-02 2.294083e-01 4.266483e-01 4.796098e-01 2.643025e-01 8.432896e-02 -1.839313e-01 -2.402926e-01 -2.609470e-01 1.195783e-02 2.325227e-01 7.526695e-01 8.453778e-01 4.894115e-01 -4.672610e-01 -9.659546e-01 -5.240240e-01 5.480550e-01 1.097499e+00 6.163528e-01 -4.418652e-01 -9.042188e-01 -2.855838e-01 7.140419e-01 9.900917e-01 4.329994e-01 -2.196490e-01 -1.978141e-01 2.451698e-01 4.748611e-01 2.850672e-01 3.369016e-02 -2.472750e-02 1.210363e-01 2.565295e-01 7.516211e-02 -3.107869e-01 -3.650951e-01 -1.978661e-01 -2.028276e-01 -2.948889e-01 -2.751528e-01 -1.036013e-01 -1.100743e-01 -2.144751e-01 -9.717244e-02 3.572023e-02 9.205474e-02 3.729984e-01 6.380075e-01 3.989039e-01 4.063727e-01 6.242818e-01 5.916531e-01 4.917352e-01 1.900456e-01 4.735855e-02 2.066793e-01 1.422665e-01 1.351613e-02 1.552871e-02 -1.079687e-01 -1.994254e-01 -1.442961e-01 -9.039472e-02 -4.918644e-02 -1.992412e-02 -5.903384e-02 -1.272000e-01 -2.725339e-02 -4.082368e-02 -1.059426e-01 -2.073595e-01 -1.765777e-01 -8.588500e-02 -2.348613e-01 -2.073866e-01 -2.331264e-02 -4.971226e-02 -5.600432e-02 -4.248571e-02 -2.632651e-01 -3.307412e-01 9.969463e-02 3.896423e-01 -7.975833e-02 -7.313653e-01 -4.769010e-01 5.741901e-01 1.246682e+00 7.597286e-01 -2.993530e-01 -7.697481e-01 -2.479798e-01 5.681442e-01 7.931820e-01 1.899779e-01 -5.595019e-01 -7.470417e-01 -2.051561e-01 6.074972e-01 1.049622e+00 8.527996e-01 2.608705e-01 -3.096871e-01 -5.148579e-01 -2.841894e-01 1.203909e-01 5.492055e-01 7.511193e-01 7.006396e-01 5.130439e-01 2.568944e-01 9.901050e-02 9.807394e-02 1.302965e-01 1.470649e-01 1.678465e-01 1.788779e-01 
1.620962e-01 1.941952e-01 1.925712e-01 2.219746e-01 2.173899e-01 2.470889e-01 1.882944e-01 1.434857e-01 4.239749e-02 2.554529e-02 1.256758e-01 3.156510e-01 2.588132e-01 2.013581e-01 2.524517e-02 3.394905e-02 1.018653e-01 -2.219539e-02 1.722061e-01 4.481558e-01 1.959316e-01 7.375326e-02 -1.797078e-01 -1.027036e+00 -1.319001e+00 -1.015274e+00 -6.811996e-02 4.053443e-01 1.309502e-01 -6.329453e-01 -9.718670e-01 -5.677218e-01 2.076859e-01 5.174979e-01 1.996594e-01 -2.095256e-01 -2.013944e-01 3.691990e-02 1.450652e-01 -4.203045e-02 -2.280272e-01 -3.348539e-01 -2.071158e-01 -1.423618e-01 -2.414403e-01 -5.550611e-01 -5.867276e-01 -5.283981e-01 -5.259842e-01 -5.877958e-01 -5.400398e-01 -4.224783e-01 -4.090443e-01 -4.784765e-01 -3.917061e-01 -3.090458e-01 -2.540760e-01 -4.173709e-02 1.703912e-01 -1.455177e-02 1.982968e-02 2.054379e-01 1.801564e-01 1.182129e-01 -6.271326e-02 -1.826718e-01 -6.736679e-02 -1.061452e-01 -1.871084e-01 -1.855255e-01 -2.764201e-01 -3.751818e-01 -3.423378e-01 -3.306639e-01 -3.217688e-01 -3.175520e-01 -3.528037e-01 -3.929075e-01 -3.367586e-01 -3.516627e-01 -4.098073e-01 -4.688511e-01 -4.484295e-01 -3.530807e-01 -4.319710e-01 -3.822861e-01 -1.865579e-01 -1.913518e-01 -1.755594e-01 -2.008264e-01 -3.534125e-01 -3.941519e-01 -4.702632e-02 2.051178e-01 -1.022704e-01 -5.201860e-01 -3.509853e-01 3.932929e-01 8.099786e-01 4.034126e-01 -3.709886e-01 -6.790770e-01 -2.424668e-01 4.256899e-01 5.510239e-01 1.036182e-01 -5.402096e-01 -6.743258e-01 -1.886028e-01 4.544249e-01 8.512973e-01 7.419157e-01 1.816785e-01 -2.875293e-01 -5.128836e-01 -3.159218e-01 9.759404e-02 3.775314e-01 4.440850e-01 3.803850e-01 9.266023e-02 -8.230883e-02 -9.306628e-02 -1.705538e-02 3.727033e-02 9.496543e-02 1.164809e-01 1.562464e-01 
1.563101e-01 1.649345e-01 1.738514e-01 1.783217e-01 1.797576e-01 1.782994e-01 1.638155e-01 1.642126e-01 1.586575e-01 1.305081e-01 1.416178e-01 1.896344e-01 1.514539e-01 1.935849e-01 -2.100514e-03 -1.411566e-02 -1.925700e-01 -1.209579e-01 -3.048430e-01 -1.281567e-01 -5.086027e-01 -3.629372e-01 -5.470449e-01 -6.189508e-01 -7.032538e-01 -5.839781e-01 -3.976585e-01 -2.343464e-01 -2.580620e-01 -3.260594e-01 -3.895649e-01 -3.150032e-01 -1.813379e-01 -4.943663e-02 -5.762977e-02 -6.836433e-02 -8.833885e-02 -8.892276e-02 -1.181633e-01 -1.673688e-01 -2.150782e-01 -2.689260e-01 -2.643627e-01 -2.852652e-01 -3.076853e-01 -3.824986e-01 -4.057478e-01 -4.356690e-01 -4.466658e-01 -4.481573e-01 -4.328315e-01 -4.114102e-01 -4.032567e-01 -4.022768e-01 -3.925017e-01 -3.881444e-01 -3.893754e-01 -3.903457e-01 -3.934197e-01 -4.200985e-01 -4.014178e-01 -3.945852e-01 -4.339217e-01 -4.426117e-01 -4.500171e-01 -4.857612e-01 -4.833816e-01 -4.667950e-01 -4.485116e-01 -4.395228e-01 -4.356973e-01 -4.248020e-01 -4.018648e-01 -3.955235e-01 -3.931048e-01 -3.938635e-01 -3.954023e-01 -3.973193e-01 -3.927802e-01 -4.009454e-01 -4.111272e-01 -4.124196e-01 -4.082414e-01 -3.749096e-01 -3.635029e-01 -3.345452e-01 -2.628080e-01 -2.516105e-01 -2.251990e-01 -2.413054e-01 -2.419518e-01 -2.349197e-01 -1.517987e-01 -8.977891e-02 -9.634754e-02 -1.119007e-01 -6.637374e-02 4.541847e-02 8.827044e-02 4.540268e-03 -1.044597e-01 -1.404730e-01 -4.502385e-02 8.421095e-02 9.296068e-02 2.042521e-02 -1.096107e-01 -1.246153e-01 1.450758e-02 1.476268e-01 2.640958e-01 2.610265e-01 1.160332e-01 3.141834e-03 -6.639676e-02 -2.594491e-02 1.121616e-01 1.496407e-01 1.440668e-01 1.191761e-01 1.208380e-02 -2.561380e-02 2.258008e-02 5.341264e-02 8.559133e-02 1.060943e-01 1.280507e-01 1.414284e-01 
1.575077e-01 1.820957e-01 1.732502e-01 1.955742e-01 1.810925e-01 2.000667e-01 1.772424e-01 1.909654e-01 1.680770e-01 1.864935e-01 1.795558e-01 2.164197e-01 2.000646e-01 2.191367e-01 6.947051e-02 8.688291e-02 -5.179644e-02 -3.016430e-02 -2.035414e-01 -1.391381e-01 -4.432004e-01 -3.822876e-01 -4.360415e-01 -4.868327e-01 -4.934870e-01 -4.646622e-01 -3.569085e-01 -3.132274e-01 -2.896814e-01 -3.355348e-01 -3.222710e-01 -2.876920e-01 -1.954886e-01 -1.597186e-01 -1.458613e-01 -1.755540e-01 -1.628139e-01 -1.712361e-01 -1.585906e-01 -2.009625e-01 -2.092403e-01 -2.551561e-01 -2.454779e-01 -2.835381e-01 -2.876142e-01 -3.480277e-01 -3.477264e-01 -3.762591e-01 -3.664869e-01 -3.839825e-01 -3.635286e-01 -3.614943e-01 -3.380201e-01 -3.419808e-01 -3.121932e-01 -3.062686e-01 -2.818861e-01 -2.821560e-01 -2.562306e-01 -2.496943e-01 -2.254216e-01 -2.411556e-01 -2.368472e-01 -2.641764e-01 -2.793572e-01 -3.010060e-01 -3.059871e-01 -3.354757e-01 -3.280933e-01 -3.411638e-01 -3.420029e-01 -3.425769e-01 -3.414357e-01 -3.460142e-01 -3.465058e-01 -3.529056e-01 -3.545719e-01 -3.634593e-01 -3.584461e-01 -3.639738e-01 -3.643451e-01 -3.646407e-01 -3.575353e-01 -3.394189e-01 -3.287201e-01 -3.102576e-01 -2.744799e-01 -2.624130e-01 -2.399952e-01 -2.310014e-01 -2.185310e-01 -2.023172e-01 -1.585317e-01 -1.215203e-01 -1.189223e-01 -1.135774e-01 -8.004624e-02 -6.848496e-03 2.727236e-02 1.203081e-02 -4.077711e-02 -5.049077e-02 -2.281271e-02 3.924572e-02 4.403095e-02 2.982778e-02 -1.727630e-02 -4.480826e-03 4.329763e-02 1.195164e-01 1.564252e-01 1.647519e-01 1.038203e-01 7.009424e-02 3.299236e-02 6.058556e-02 9.232998e-02 1.370217e-01 1.383831e-01 1.495527e-01 1.103943e-01 1.065684e-01 9.248672e-02 1.122878e-01 1.107008e-01 1.367635e-01 1.356732e-01 1.618685e-01 
1.590046e-01 1.640995e-01 1.696923e-01 1.733569e-01 1.754425e-01 1.780951e-01 1.766032e-01 1.795590e-01 1.769113e-01 1.807318e-01 1.765386e-01 1.889030e-01 1.781601e-01 1.912954e-01 1.996416e-02 3.944927e-02 -1.414850e-01 -1.049346e-01 -3.009651e-01 -2.487140e-01 -4.714236e-01 -4.233755e-01 -4.635185e-01 -4.316230e-01 -4.503141e-01 -4.045255e-01 -3.909770e-01 -3.433433e-01 -3.388858e-01 -3.114960e-01 -3.091192e-01 -2.757076e-01 -2.592629e-01 -2.257210e-01 -2.210717e-01 -2.069110e-01 -2.101146e-01 -2.080031e-01 -2.157760e-01 -2.257858e-01 -2.348256e-01 -2.503291e-01 -2.543980e-01 -2.702611e-01 -2.744072e-01 -2.933579e-01 -2.960417e-01 -3.083063e-01 -3.069508e-01 -3.105297e-01 -3.034608e-01 -2.994251e-01 -2.887322e-01 -2.803986e-01 -2.644637e-01 -2.483185e-01 -2.239245e-01 -1.943364e-01 -1.550688e-01 -1.327495e-01 -1.214641e-01 -1.179214e-01 -1.024765e-01 -1.193838e-01 -1.364086e-01 -1.437241e-01 -1.582032e-01 -2.004010e-01 -2.231695e-01 -2.434444e-01 -2.605825e-01 -2.879261e-01 -3.136528e-01 -3.320318e-01 -3.458607e-01 -3.566677e-01 -3.628076e-01 -3.680832e-01 -3.681919e-01 -3.690592e-01 -3.651592e-01 -3.604513e-01 -3.504175e-01 -3.392034e-01 -3.224203e-01 -3.097598e-01 -2.846623e-01 -2.737446e-01 -2.502400e-01 -2.407507e-01 -2.181052e-01 -2.038492e-01 -1.752776e-01 -1.544734e-01 -1.320450e-01 -1.143084e-01 -9.125861e-02 -6.855992e-02 -5.084298e-02 -4.446472e-02 -3.938020e-02 -2.951529e-02 -1.196439e-02 1.040108e-02 2.043516e-02 2.844598e-02 2.948934e-02 4.045169e-02 6.239986e-02 8.248717e-02 9.939145e-02 1.039349e-01 9.414970e-02 8.593526e-02 8.070439e-02 8.378875e-02 9.743531e-02 1.027388e-01 1.063136e-01 1.060070e-01 1.008613e-01 9.975625e-02 1.080030e-01 1.139661e-01 1.255784e-01 1.329301e-01 1.438483e-01 1.503840e-01 
1.769298e-01 1.966290e-01 1.851053e-01 2.046387e-01 1.909919e-01 2.104880e-01 1.950089e-01 2.150078e-01 1.996797e-01 2.209395e-01 2.071901e-01 2.303050e-01 2.175133e-01 2.384891e-01 7.420798e-02 8.943187e-02 -7.311662e-02 -6.190873e-02 -2.328918e-01 -2.207396e-01 -4.074497e-01 -3.971560e-01 -3.972386e-01 -3.957906e-01 -3.821678e-01 -3.759687e-01 -3.464285e-01 -3.406230e-01 -3.137100e-01 -3.156798e-01 -2.891983e-01 -2.875596e-01 -2.570537e-01 -2.580413e-01 -2.353386e-01 -2.453206e-01 -2.268904e-01 -2.412957e-01 -2.257494e-01 -2.463157e-01 -2.326220e-01 -2.556185e-01 -2.408061e-01 -2.645914e-01 -2.506994e-01 -2.755686e-01 -2.613965e-01 -2.818900e-01 -2.662524e-01 -2.816560e-01 -2.636334e-01 -2.733338e-01 -2.529714e-01 -2.584348e-01 -2.346940e-01 -2.343728e-01 -2.069184e-01 -2.005706e-01 -1.686287e-01 -1.653896e-01 -1.457835e-01 -1.527053e-01 -1.403322e-01 -1.577616e-01 -1.593659e-01 -1.806278e-01 -1.886644e-01 -2.218269e-01 -2.374825e-01 -2.652342e-01 -2.775527e-01 -3.040887e-01 -3.178646e-01 -3.367609e-01 -3.434516e-01 -3.553220e-01 -3.561000e-01 -3.620504e-01 -3.577341e-01 -3.582022e-01 -3.504816e-01 -3.457431e-01 -3.347054e-01 -3.253292e-01 -3.115371e-01 -3.004849e-01 -2.833824e-01 -2.715855e-01 -2.544657e-01 -2.404554e-01 -2.223646e-01 -2.035120e-01 -1.815335e-01 -1.573070e-01 -1.372273e-01 -1.128317e-01 -9.294024e-02 -6.533070e-02 -5.017504e-02 -3.056905e-02 -2.586078e-02 -6.554875e-03 1.048264e-03 2.670014e-02 3.153398e-02 5.197759e-02 5.088182e-02 7.088588e-02 7.374845e-02 9.604795e-02 9.492038e-02 1.101492e-01 9.836195e-02 1.097672e-01 9.921640e-02 1.172785e-01 1.139926e-01 1.359423e-01 1.310972e-01 1.500259e-01 1.403137e-01 1.564250e-01 1.470938e-01 1.647172e-01 1.563939e-01 1.754487e-01 1.669595e-01 1.866179e-01 
1.795372e-01 1.810606e-01 1.851909e-01 1.863538e-01 1.892963e-01 1.908132e-01 1.927268e-01 1.960191e-01 1.978135e-01 2.028480e-01 2.032632e-01 2.110688e-01 2.095760e-01 2.197508e-01 5.504358e-02 6.316317e-02 -9.828276e-02 -9.133396e-02 -2.531859e-01 -2.457336e-01 -4.091848e-01 -4.012523e-01 -4.014126e-01 -3.859957e-01 -3.820608e-01 -3.614711e-01 -3.553135e-01 -3.350143e-01 -3.304364e-01 -3.127163e-01 -3.090408e-01 -2.932202e-01 -2.905554e-01 -2.773314e-01 -2.755993e-01 -2.658516e-01 -2.654100e-01 -2.603493e-01 -2.598791e-01 -2.571670e-01 -2.524794e-01 -2.501790e-01 -2.426898e-01 -2.426028e-01 -2.346313e-01 -2.368172e-01 -2.292464e-01 -2.318498e-01 -2.248312e-01 -2.262270e-01 -2.190886e-01 -2.191694e-01 -2.124284e-01 -2.108794e-01 -2.017900e-01 -1.959510e-01 -1.831502e-01 -1.744318e-01 -1.598162e-01 -1.523752e-01 -1.404989e-01 -1.377042e-01 -1.315748e-01 -1.385521e-01 -1.444458e-01 -1.606784e-01 -1.758127e-01 -2.019135e-01 -2.239114e-01 -2.531699e-01 -2.770835e-01 -3.046214e-01 -3.252449e-01 -3.464697e-01 -3.596995e-01 -3.723793e-01 -3.764940e-01 -3.806254e-01 -3.772737e-01 -3.755121e-01 -3.660347e-01 -3.590504e-01 -3.456204e-01 -3.362761e-01 -3.203970e-01 -3.112706e-01 -2.931691e-01 -2.837968e-01 -2.661287e-01 -2.558241e-01 -2.370328e-01 -2.226975e-01 -2.003985e-01 -1.823335e-01 -1.579682e-01 -1.390857e-01 -1.147017e-01 -9.594320e-02 -7.416347e-02 -5.691020e-02 -3.818230e-02 -1.852227e-02 1.115374e-03 2.405386e-02 4.125583e-02 6.059071e-02 7.311513e-02 8.532657e-02 9.392468e-02 9.968709e-02 1.036167e-01 1.046275e-01 1.050614e-01 1.053020e-01 1.070738e-01 1.091001e-01 1.141182e-01 1.185685e-01 1.258730e-01 1.308988e-01 1.391747e-01 1.431413e-01 1.514947e-01 1.552620e-01 1.625959e-01 1.656650e-01 1.720179e-01 1.742508e-01 
2.034823e-01 2.191215e-01 2.060307e-01 2.222491e-01 2.082385e-01 2.261281e-01 2.100970e-01 2.333304e-01 2.198282e-01 2.414965e-01 2.233666e-01 2.485687e-01 2.275694e-01 2.610162e-01 9.502238e-02 1.011136e-01 -4.463489e-02 -6.369209e-02 -2.031124e-01 -2.319981e-01 -3.813186e-01 -3.910434e-01 -3.781537e-01 -3.787842e-01 -3.536477e-01 -3.494268e-01 -3.238884e-01 -3.264195e-01 -3.049228e-01 -3.085501e-01 -2.866699e-01 -2.930230e-01 -2.768943e-01 -2.891658e-01 -2.717541e-01 -2.803168e-01 -2.617422e-01 -2.751727e-01 -2.608499e-01 -2.745368e-01 -2.507616e-01 -2.574094e-01 -2.292995e-01 -2.376269e-01 -2.105684e-01 -2.217424e-01 -1.984394e-01 -2.137489e-01 -1.959289e-01 -2.116981e-01 -1.959355e-01 -2.115004e-01 -1.984121e-01 -2.115792e-01 -1.952597e-01 -2.015617e-01 -1.804092e-01 -1.814274e-01 -1.572216e-01 -1.551994e-01 -1.294584e-01 -1.283150e-01 -1.105846e-01 -1.223204e-01 -1.221172e-01 -1.490147e-01 -1.645463e-01 -2.029519e-01 -2.290895e-01 -2.728654e-01 -3.008100e-01 -3.386137e-01 -3.579572e-01 -3.840013e-01 -3.921426e-01 -4.050544e-01 -4.016755e-01 -4.029388e-01 -3.925669e-01 -3.868731e-01 -3.707121e-01 -3.586636e-01 -3.414425e-01 -3.289655e-01 -3.142991e-01 -3.069343e-01 -2.953383e-01 -2.896825e-01 -2.816773e-01 -2.731655e-01 -2.611189e-01 -2.417505e-01 -2.184429e-01 -1.861887e-01 -1.554618e-01 -1.241826e-01 -9.973574e-02 -7.286123e-02 -5.383360e-02 -3.018659e-02 -2.131727e-02 4.275127e-04 1.060248e-02 4.605292e-02 6.356686e-02 9.959443e-02 1.049682e-01 1.212475e-01 1.109869e-01 1.168210e-01 1.043276e-01 1.134692e-01 1.032498e-01 1.178693e-01 1.097573e-01 1.293656e-01 1.263386e-01 1.531840e-01 1.553651e-01 1.812388e-01 1.799738e-01 1.986903e-01 1.915662e-01 2.072727e-01 1.968965e-01 2.122675e-01 2.005453e-01 2.159461e-01 
2.075067e-01 2.040621e-01 2.068006e-01 2.025775e-01 2.056616e-01 2.003684e-01 2.021454e-01 2.059338e-01 2.171999e-01 2.192986e-01 2.263416e-01 2.311653e-01 2.326580e-01 2.328818e-01 8.530094e-02 7.851378e-02 -4.877152e-02 -7.812313e-02 -2.010219e-01 -2.382758e-01 -3.782559e-01 -4.033844e-01 -3.858115e-01 -3.776282e-01 -3.434748e-01 -3.261746e-01 -3.121816e-01 -3.100568e-01 -3.080626e-01 -3.027270e-01 -2.973170e-01 -2.963039e-01 -3.077351e-01 -3.113089e-01 -3.110588e-01 -3.008799e-01 -3.020705e-01 -3.034153e-01 -3.114580e-01 -3.037695e-01 -2.796910e-01 -2.523787e-01 -2.240557e-01 -2.077813e-01 -1.841609e-01 -1.770053e-01 -1.585751e-01 -1.580199e-01 -1.480268e-01 -1.476709e-01 -1.383967e-01 -1.438525e-01 -1.520507e-01 -1.679313e-01 -1.711500e-01 -1.699889e-01 -1.612129e-01 -1.567434e-01 -1.485334e-01 -1.424859e-01 -1.180255e-01 -9.544945e-02 -7.348782e-02 -7.262467e-02 -7.851677e-02 -1.012242e-01 -1.265224e-01 -1.633347e-01 -2.043519e-01 -2.621405e-01 -3.136485e-01 -3.597175e-01 -3.916560e-01 -4.246643e-01 -4.441808e-01 -4.587479e-01 -4.542426e-01 -4.466084e-01 -4.344339e-01 -4.273609e-01 -4.036157e-01 -3.829027e-01 -3.600628e-01 -3.422759e-01 -3.263946e-01 -3.226556e-01 -3.009260e-01 -2.958456e-01 -2.902387e-01 -2.915129e-01 -2.861124e-01 -2.704981e-01 -2.487038e-01 -2.217287e-01 -1.872388e-01 -1.634446e-01 -1.272419e-01 -1.068936e-01 -7.925632e-02 -6.677360e-02 -5.024996e-02 -2.428502e-02 1.082273e-02 6.186066e-02 9.520385e-02 1.399407e-01 1.609399e-01 1.716958e-01 1.699106e-01 1.545616e-01 1.408271e-01 1.223859e-01 1.137035e-01 1.121746e-01 1.133129e-01 1.117232e-01 1.119542e-01 1.229434e-01 1.392308e-01 1.561278e-01 1.813842e-01 1.869606e-01 1.997170e-01 2.032147e-01 2.061559e-01 2.055370e-01 2.077250e-01 2.051895e-01 
2.312547e-01 2.414600e-01 2.279058e-01 2.363767e-01 2.263085e-01 2.296502e-01 1.948462e-01 2.503645e-01 2.659024e-01 2.661003e-01 2.329021e-01 2.384419e-01 1.993847e-01 1.954531e-01 1.457667e-01 1.314503e-01 6.086313e-02 -4.517240e-02 -8.750216e-02 -2.685032e-01 -3.330929e-01 -4.128562e-01 -4.264903e-01 -4.161774e-01 -3.372290e-01 -2.891549e-01 -2.462272e-01 -2.773589e-01 -2.763355e-01 -2.743727e-01 -2.329514e-01 -2.314748e-01 -2.528834e-01 -3.151534e-01 -3.049766e-01 -2.797709e-01 -2.364302e-01 -2.646781e-01 -3.031547e-01 -3.420636e-01 -2.946563e-01 -2.568756e-01 -1.970450e-01 -1.868263e-01 -1.371942e-01 -1.289199e-01 -9.142303e-02 -1.172755e-01 -1.123507e-01 -1.335870e-01 -1.222298e-01 -1.542207e-01 -1.675764e-01 -1.991381e-01 -1.934531e-01 -2.014748e-01 -1.805680e-01 -1.786335e-01 -1.506159e-01 -1.281670e-01 -5.899779e-02 -7.317234e-03 5.004164e-02 5.264739e-02 4.842272e-02 1.741797e-03 -4.262468e-02 -1.138854e-01 -1.862835e-01 -2.857513e-01 -3.652534e-01 -4.371599e-01 -4.729333e-01 -5.090459e-01 -5.157279e-01 -5.216547e-01 -4.983161e-01 -4.807693e-01 -4.592619e-01 -4.421028e-01 -4.012880e-01 -3.614284e-01 -3.249938e-01 -2.890923e-01 -2.693730e-01 -2.778751e-01 -2.772549e-01 -3.006925e-01 -3.321202e-01 -3.584984e-01 -3.791735e-01 -3.698442e-01 -3.278479e-01 -2.283339e-01 -1.275126e-01 -7.362516e-02 -5.308129e-02 -3.376064e-02 9.025043e-03 3.670852e-02 4.516104e-03 -4.258567e-02 -6.662192e-02 2.349385e-02 1.364425e-01 2.681661e-01 2.913889e-01 2.619030e-01 1.800418e-01 1.145558e-01 7.669532e-02 7.879935e-02 7.520505e-02 9.377056e-02 7.392682e-02 9.042153e-02 9.323210e-02 1.614392e-01 2.080722e-01 2.642053e-01 2.748883e-01 2.796407e-01 2.620943e-01 2.623052e-01 2.435150e-01 2.538270e-01 2.365647e-01 2.469354e-01 
2.366496e-01 2.276144e-01 2.290234e-01 2.201490e-01 2.253793e-01 2.145822e-01 1.789409e-01 2.372517e-01 2.646408e-01 2.261393e-01 1.808253e-01 1.440442e-01 1.141881e-01 8.864275e-02 1.001937e-01 8.379069e-02 1.097895e-01 8.462098e-02 9.487417e-02 4.169792e-02 -7.063997e-03 -8.827592e-02 -1.299801e-01 -1.205257e-01 -4.742739e-02 2.486267e-02 8.783998e-02 7.047843e-02 8.164342e-02 1.143228e-01 1.745762e-01 2.144111e-01 2.008007e-01 1.330837e-01 1.348395e-01 1.771284e-01 2.367040e-01 2.105630e-01 1.398464e-01 6.399015e-02 5.631724e-02 6.369639e-02 7.445945e-02 6.732655e-02 7.517758e-02 8.603403e-02 8.300030e-02 4.615119e-02 5.688343e-03 -2.449411e-02 -4.959128e-02 -7.645307e-02 -8.488948e-02 -6.956206e-02 -4.410786e-02 -2.365070e-02 8.920483e-03 4.754985e-02 1.047644e-01 1.767135e-01 2.577172e-01 3.183842e-01 3.652393e-01 3.698326e-01 3.537497e-01 3.018988e-01 2.380719e-01 1.549942e-01 6.918234e-02 -1.290335e-02 -7.799511e-02 -1.362527e-01 -1.608846e-01 -1.721739e-01 -1.549560e-01 -1.434938e-01 -1.204240e-01 -1.140490e-01 -1.005519e-01 -8.104576e-02 -5.706799e-02 -3.169742e-02 -1.010073e-02 1.201610e-02 1.948881e-02 -8.089393e-03 -5.766502e-02 -1.220627e-01 -1.782419e-01 -2.199595e-01 -2.361252e-01 -2.385997e-01 -1.618774e-01 -1.562814e-02 1.422326e-01 2.150788e-01 2.158351e-01 2.188116e-01 2.626975e-01 2.812036e-01 2.057696e-01 4.321279e-02 -6.982792e-02 -5.117141e-02 9.503144e-02 2.054970e-01 2.167480e-01 1.157262e-01 -1.268279e-02 -1.143882e-01 -1.274189e-01 -8.828281e-02 -4.040861e-02 -3.899107e-03 4.101040e-04 4.758578e-02 1.083134e-01 2.169088e-01 3.135921e-01 3.725818e-01 3.691839e-01 3.481169e-01 3.177708e-01 2.792237e-01 2.697200e-01 2.545421e-01 2.494228e-01 2.383965e-01 
2.489513e-01 2.597443e-01 2.396362e-01 2.538999e-01 2.332510e-01 2.518738e-01 2.117071e-01 2.548919e-01 2.351485e-01 2.287912e-01 1.818429e-01 1.676837e-01 1.444759e-01 1.410062e-01 1.568563e-01 1.465079e-01 1.640137e-01 1.624096e-01 1.739273e-01 1.612596e-01 1.600749e-01 1.331912e-01 1.262974e-01 1.170254e-01 1.521074e-01 1.746368e-01 2.339578e-01 2.294086e-01 2.718448e-01 2.807739e-01 3.378507e-01 3.507421e-01 3.881036e-01 3.453435e-01 3.702053e-01 3.579687e-01 4.086927e-01 3.734044e-01 3.640972e-01 2.909294e-01 2.739655e-01 2.225054e-01 2.134496e-01 1.714034e-01 1.649231e-01 1.397800e-01 1.295386e-01 8.739585e-02 6.550611e-02 2.771853e-02 1.602745e-02 -5.904658e-03 1.919615e-02 4.078726e-02 8.807240e-02 1.045795e-01 1.516801e-01 1.820724e-01 2.474661e-01 2.931438e-01 3.457489e-01 3.560698e-01 3.755174e-01 3.601760e-01 3.528249e-01 3.109900e-01 2.781816e-01 2.194207e-01 1.805900e-01 1.431706e-01 1.293134e-01 1.000683e-01 9.849511e-02 9.543324e-02 1.184063e-01 1.227670e-01 1.346672e-01 1.237943e-01 1.305987e-01 1.360047e-01 1.374375e-01 1.342130e-01 1.335235e-01 1.299425e-01 1.231249e-01 1.045095e-01 5.643678e-02 1.565261e-02 -1.545152e-02 -2.773084e-02 -2.365620e-02 -1.453382e-02 3.875136e-02 1.259673e-01 2.124732e-01 2.675811e-01 2.682201e-01 2.819783e-01 2.942049e-01 3.039594e-01 2.504371e-01 1.482372e-01 5.597605e-02 2.320155e-02 6.619078e-02 8.640587e-02 6.781917e-02 1.216622e-02 -6.077980e-02 -8.898963e-02 -9.009741e-02 -3.451242e-02 -2.764369e-03 4.825265e-02 5.775346e-02 1.300724e-01 1.783059e-01 2.730919e-01 3.207456e-01 3.740464e-01 3.489355e-01 3.569498e-01 3.178030e-01 3.073019e-01 2.833840e-01 2.852271e-01 2.628827e-01 2.698130e-01 
2.433278e-01 2.357812e-01 2.324856e-01 2.271495e-01 2.230726e-01 2.202025e-01 2.117760e-01 2.101977e-01 2.045302e-01 1.898001e-01 1.840920e-01 1.590596e-01 1.653432e-01 1.375627e-01 1.597582e-01 1.312138e-01 1.617033e-01 1.428738e-01 1.766158e-01 1.607880e-01 1.932849e-01 1.771849e-01 2.007657e-01 1.848318e-01 2.121105e-01 2.128023e-01 2.531646e-01 2.527385e-01 2.834789e-01 2.805809e-01 3.103673e-01 3.145141e-01 3.434723e-01 3.282347e-01 3.398004e-01 3.204968e-01 3.346246e-01 3.165968e-01 3.146782e-01 2.821754e-01 2.630118e-01 2.318509e-01 2.116912e-01 1.871606e-01 1.658774e-01 1.463418e-01 1.256191e-01 1.084230e-01 9.014109e-02 7.727015e-02 6.844082e-02 6.984028e-02 8.526258e-02 1.078047e-01 1.399354e-01 1.673359e-01 2.049257e-01 2.381214e-01 2.816384e-01 3.126657e-01 3.398200e-01 3.472553e-01 3.506548e-01 3.396427e-01 3.250124e-01 2.956414e-01 2.668134e-01 2.278714e-01 1.959297e-01 1.669149e-01 1.485075e-01 1.258793e-01 1.173693e-01 1.081037e-01 1.137786e-01 1.092746e-01 1.137019e-01 1.039694e-01 1.087530e-01 1.053295e-01 1.051053e-01 9.712178e-02 9.336144e-02 8.454536e-02 7.498616e-02 6.220560e-02 3.974007e-02 2.131969e-02 1.000842e-02 7.224036e-03 1.617396e-02 2.712045e-02 6.010910e-02 9.596800e-02 1.374687e-01 1.649078e-01 1.868737e-01 2.025722e-01 2.163869e-01 2.104065e-01 1.899946e-01 1.434813e-01 1.132713e-01 8.245319e-02 8.977902e-02 7.234533e-02 6.527763e-02 3.923964e-02 2.324754e-02 1.654778e-02 2.399921e-02 4.324432e-02 6.413012e-02 9.000250e-02 1.119460e-01 1.564089e-01 1.940117e-01 2.467945e-01 2.827726e-01 3.116933e-01 3.163992e-01 3.175222e-01 3.038658e-01 2.891991e-01 2.788780e-01 2.657247e-01 2.582497e-01 2.480384e-01 
