# vtk DataFile Version 2.0
Comment goes here
ASCII

DATASET STRUCTURED_POINTS
FIELD FieldData 1
TIME 1 1 double
0.76000000
DIMENSIONS    128   16   1

ORIGIN    0.000   0.000   0.000
SPACING   0.0078125 0.015625   1.000

POINT_DATA   2048
SCALARS P double
LOOKUP_TABLE default

9.232967e-01 9.045790e-01 9.248802e-01 9.106549e-01 9.245468e-01 9.172980e-01 9.228870e-01 9.308276e-01 9.192944e-01 9.382318e-01 9.135237e-01 9.373756e-01 9.001074e-01 9.203604e-01 8.660885e-01 8.797366e-01 8.236403e-01 8.332633e-01 7.791440e-01 7.894851e-01 7.406687e-01 7.545283e-01 7.251944e-01 7.411187e-01 7.225299e-01 7.370366e-01 7.253781e-01 7.370618e-01 7.305696e-01 7.388865e-01 7.366067e-01 7.414300e-01 7.427392e-01 7.442464e-01 7.486728e-01 7.472797e-01 7.543859e-01 7.506255e-01 7.599063e-01 7.543113e-01 7.651775e-01 7.582439e-01 7.700964e-01 7.623104e-01 7.746486e-01 7.665074e-01 7.789610e-01 7.708914e-01 7.831425e-01 7.753962e-01 7.871494e-01 7.798117e-01 7.908659e-01 7.839165e-01 7.941550e-01 7.873405e-01 7.964574e-01 7.889022e-01 7.966890e-01 7.901080e-01 7.926714e-01 7.832824e-01 7.916997e-01 7.856842e-01 7.948641e-01 7.861899e-01 7.890567e-01 7.830348e-01 7.940438e-01 7.914181e-01 8.045986e-01 7.980498e-01 8.093315e-01 8.017175e-01 8.138961e-01 8.052080e-01 8.185498e-01 8.086489e-01 8.233491e-01 8.120781e-01 8.282575e-01 8.154939e-01 8.331742e-01 8.188846e-01 8.379663e-01 8.222700e-01 8.425317e-01 8.257506e-01 8.468426e-01 8.294906e-01 8.508983e-01 8.336020e-01 8.546304e-01 8.380607e-01 8.579263e-01 8.427874e-01 8.607813e-01 8.477537e-01 8.633383e-01 8.529175e-01 8.657723e-01 8.581219e-01 8.682396e-01 8.631366e-01 8.709399e-01 8.677439e-01 8.741071e-01 8.717143e-01 8.779036e-01 8.747953e-01 8.824281e-01 8.768587e-01 8.878154e-01 8.780151e-01 8.941720e-01 8.785152e-01 9.013495e-01 8.786513e-01 9.088531e-01 8.789705e-01 9.159347e-01 8.807513e-01 9.213936e-01 8.877442e-01 9.211154e-01 8.925579e-01 9.214929e-01 8.982682e-01 
7.799550e-01 7.659521e-01 7.783428e-01 7.671651e-01 7.748562e-01 7.673142e-01 7.687998e-01 7.793910e-01 7.642414e-01 7.853198e-01 7.626425e-01 7.867731e-01 7.635314e-01 7.831487e-01 7.666392e-01 7.844950e-01 7.728889e-01 7.863317e-01 7.802113e-01 7.876989e-01 7.864519e-01 7.874321e-01 7.866655e-01 7.870381e-01 7.876999e-01 7.864787e-01 7.892547e-01 7.858806e-01 7.911528e-01 7.853218e-01 7.932554e-01 7.849021e-01 7.954098e-01 7.845842e-01 7.973602e-01 7.842974e-01 7.989236e-01 7.839932e-01 8.000041e-01 7.837781e-01 8.008087e-01 7.839315e-01 8.015325e-01 7.844924e-01 8.021592e-01 7.853334e-01 8.025885e-01 7.862402e-01 8.027178e-01 7.870578e-01 8.025007e-01 7.875378e-01 8.017235e-01 7.872835e-01 8.000076e-01 7.854142e-01 7.958172e-01 7.790259e-01 7.866877e-01 7.752162e-01 7.808283e-01 7.675336e-01 7.776703e-01 7.640131e-01 7.745550e-01 7.635019e-01 7.703670e-01 7.618867e-01 7.723837e-01 7.632646e-01 7.757129e-01 7.654541e-01 7.787241e-01 7.678539e-01 7.805164e-01 7.685976e-01 7.814582e-01 7.686371e-01 7.822829e-01 7.685585e-01 7.832482e-01 7.684971e-01 7.842714e-01 7.683662e-01 7.850689e-01 7.680309e-01 7.854620e-01 7.676121e-01 7.855018e-01 7.674129e-01 7.853981e-01 7.678199e-01 7.852696e-01 7.687968e-01 7.847564e-01 7.699424e-01 7.835794e-01 7.710884e-01 7.818603e-01 7.723078e-01 7.800026e-01 7.737118e-01 7.783520e-01 7.751265e-01 7.770836e-01 7.762696e-01 7.763370e-01 7.767331e-01 7.760833e-01 7.761203e-01 7.764171e-01 7.743492e-01 7.775779e-01 7.716379e-01 7.798953e-01 7.684120e-01 7.833608e-01 7.648278e-01 7.873702e-01 7.611581e-01 7.911550e-01 7.585189e-01 7.933338e-01 7.616158e-01 7.856307e-01 7.623248e-01 7.816619e-01 7.639712e-01 
9.237399e-01 9.050673e-01 9.286843e-01 9.095297e-01 9.271717e-01 9.031508e-01 9.264766e-01 9.431524e-01 9.236517e-01 9.547198e-01 9.287095e-01 9.691984e-01 9.407627e-01 9.676703e-01 8.832645e-01 8.916372e-01 8.280079e-01 8.282096e-01 7.672778e-01 7.723805e-01 6.946248e-01 7.108653e-01 6.994738e-01 7.226739e-01 7.118902e-01 7.291469e-01 7.209355e-01 7.334192e-01 7.286347e-01 7.369060e-01 7.359288e-01 7.404499e-01 7.431729e-01 7.441580e-01 7.500466e-01 7.477820e-01 7.561501e-01 7.510239e-01 7.612269e-01 7.540809e-01 7.658943e-01 7.577623e-01 7.707723e-01 7.622826e-01 7.758434e-01 7.673594e-01 7.807781e-01 7.725105e-01 7.853461e-01 7.777051e-01 7.898539e-01 7.831552e-01 7.947588e-01 7.895558e-01 8.014233e-01 7.985610e-01 8.087142e-01 7.937034e-01 8.171393e-01 8.260233e-01 7.805876e-01 7.443114e-01 7.746728e-01 7.932220e-01 8.323935e-01 7.996832e-01 7.400594e-01 7.301335e-01 7.670817e-01 7.961801e-01 8.290421e-01 8.106917e-01 8.117832e-01 8.035304e-01 8.152810e-01 8.062104e-01 8.191152e-01 8.090490e-01 8.235728e-01 8.124153e-01 8.287301e-01 8.161741e-01 8.342379e-01 8.199019e-01 8.394035e-01 8.231200e-01 8.438534e-01 8.259744e-01 8.477496e-01 8.290365e-01 8.516529e-01 8.331835e-01 8.559720e-01 8.383400e-01 8.598738e-01 8.435425e-01 8.626219e-01 8.484214e-01 8.643600e-01 8.532609e-01 8.659004e-01 8.585753e-01 8.678895e-01 8.642092e-01 8.704838e-01 8.697487e-01 8.737405e-01 8.744621e-01 8.773364e-01 8.776339e-01 8.813497e-01 8.791933e-01 8.862095e-01 8.795369e-01 8.926582e-01 8.793856e-01 9.008812e-01 8.785190e-01 9.099789e-01 8.763643e-01 9.194758e-01 8.705624e-01 9.330432e-01 8.921448e-01 9.198717e-01 8.908173e-01 9.186690e-01 8.970979e-01 
7.795698e-01 7.690019e-01 7.857514e-01 7.713708e-01 7.850524e-01 7.604946e-01 8.174085e-01 8.484214e-01 8.295083e-01 8.610150e-01 8.479562e-01 8.786543e-01 8.640524e-01 8.281246e-01 6.338191e-01 5.319576e-01 3.917446e-01 2.677084e-01 1.274727e-01 3.127056e-02 -1.639240e-01 -2.083628e-01 -1.935259e-01 -1.932788e-01 -1.757613e-01 -1.767762e-01 -1.571337e-01 -1.595508e-01 -1.380797e-01 -1.418738e-01 -1.188054e-01 -1.237857e-01 -9.942516e-02 -1.054184e-01 -8.017321e-02 -8.696529e-02 -6.125328e-02 -6.859462e-02 -4.275840e-02 -5.025449e-02 -2.442978e-02 -3.164492e-02 -5.987894e-03 -1.265392e-02 1.261467e-02 6.622777e-03 3.129674e-02 2.604177e-02 4.998525e-02 4.564078e-02 6.888125e-02 6.557553e-02 8.836919e-02 8.632056e-02 1.094095e-01 1.090770e-01 1.250811e-01 8.067155e-02 1.310082e-01 1.637990e-01 2.030510e-02 -6.712576e-02 2.747267e-02 8.522079e-02 1.937416e-01 9.983659e-02 -6.986501e-02 -5.022113e-02 7.593075e-02 1.954387e-01 3.041567e-01 2.778891e-01 2.710059e-01 2.664783e-01 2.877759e-01 2.835885e-01 3.056596e-01 3.013333e-01 3.241661e-01 3.195826e-01 3.431108e-01 3.381529e-01 3.622797e-01 3.568171e-01 3.813428e-01 3.753657e-01 4.001434e-01 3.938188e-01 4.187180e-01 4.123941e-01 4.372706e-01 4.314125e-01 4.559505e-01 4.508669e-01 4.744661e-01 4.704129e-01 4.925457e-01 4.898836e-01 5.102401e-01 5.093301e-01 5.278431e-01 5.288960e-01 5.456043e-01 5.484903e-01 5.636299e-01 5.679267e-01 5.819999e-01 5.869106e-01 6.006583e-01 6.051618e-01 6.196856e-01 6.226197e-01 6.392617e-01 6.393862e-01 6.596552e-01 6.556705e-01 6.809696e-01 6.712812e-01 7.031321e-01 6.855078e-01 7.273972e-01 6.899507e-01 7.688255e-01 7.646383e-01 7.705788e-01 7.586368e-01 7.726473e-01 7.626433e-01 
9.246698e-01 9.195264e-01 9.582121e-01 9.513737e-01 9.945434e-01 9.872764e-01 1.073975e+00 1.086191e+00 1.134450e+00 1.132558e+00 1.195381e+00 1.180586e+00 1.251172e+00 1.175460e+00 5.242391e-01 1.592851e-01 -2.849068e-01 -7.027122e-01 -1.169627e+00 -1.475370e+00 -2.180656e+00 -2.211537e+00 -2.166166e+00 -2.159407e+00 -2.114180e+00 -2.104193e+00 -2.059357e+00 -2.047407e+00 -2.003391e+00 -1.989873e+00 -1.947230e+00 -1.932237e+00 -1.891286e+00 -1.874580e+00 -1.835300e+00 -1.816691e+00 -1.778902e+00 -1.758319e+00 -1.721820e+00 -1.699697e+00 -1.664615e+00 -1.641660e+00 -1.607854e+00 -1.584470e+00 -1.551520e+00 -1.527977e+00 -1.495354e+00 -1.471884e+00 -1.439348e+00 -1.416486e+00 -1.384148e+00 -1.362606e+00 -1.330824e+00 -1.311974e+00 -1.281891e+00 -1.268066e+00 -1.247426e+00 -1.274897e+00 -1.233075e+00 -1.186894e+00 -1.261342e+00 -1.287101e+00 -1.189966e+00 -1.139836e+00 -1.037565e+00 -1.077082e+00 -1.148890e+00 -1.083845e+00 -9.609140e-01 -8.540869e-01 -7.447382e-01 -7.385996e-01 -7.100658e-01 -6.937441e-01 -6.488113e-01 -6.322958e-01 -5.881250e-01 -5.716953e-01 -5.283051e-01 -5.119508e-01 -4.693656e-01 -4.527623e-01 -4.109288e-01 -3.936317e-01 -3.523591e-01 -3.340330e-01 -2.932921e-01 -2.740698e-01 -2.338942e-01 -2.142198e-01 -1.746935e-01 -1.552842e-01 -1.160748e-01 -9.715293e-02 -5.721569e-02 -3.890204e-02 2.613656e-03 1.975917e-02 6.332127e-02 7.844385e-02 1.241800e-01 1.365275e-01 1.846502e-01 1.940266e-01 2.447229e-01 2.512131e-01 3.045102e-01 3.086838e-01 3.644791e-01 3.670445e-01 4.246764e-01 4.263008e-01 4.847514e-01 4.860619e-01 5.439905e-01 5.456916e-01 6.022125e-01 6.054921e-01 6.604841e-01 6.658534e-01 7.207505e-01 7.212166e-01 7.947136e-01 8.261321e-01 8.527473e-01 8.586686e-01 8.907106e-01 8.891570e-01 
7.818965e-01 7.876385e-01 8.200950e-01 8.269100e-01 8.641780e-01 8.766215e-01 9.252946e-01 9.340126e-01 9.828342e-01 9.854388e-01 1.037693e+00 1.034493e+00 1.088323e+00 1.076407e+00 2.937459e-01 2.058888e-01 -5.203462e-01 -6.326739e-01 -1.360471e+00 -1.442551e+00 -2.225780e+00 -2.237322e+00 -2.183284e+00 -2.187474e+00 -2.133808e+00 -2.134727e+00 -2.081573e+00 -2.080323e+00 -2.028161e+00 -2.025055e+00 -1.974448e+00 -1.969537e+00 -1.920822e+00 -1.913901e+00 -1.867102e+00 -1.858015e+00 -1.812993e+00 -1.801709e+00 -1.758286e+00 -1.745183e+00 -1.703405e+00 -1.689081e+00 -1.648783e+00 -1.633613e+00 -1.594388e+00 -1.578625e+00 -1.539975e+00 -1.523825e+00 -1.485431e+00 -1.469301e+00 -1.431080e+00 -1.415413e+00 -1.377439e+00 -1.362958e+00 -1.325792e+00 -1.313525e+00 -1.278240e+00 -1.270453e+00 -1.231405e+00 -1.211876e+00 -1.170011e+00 -1.147450e+00 -1.099182e+00 -1.084415e+00 -1.036866e+00 -1.020926e+00 -9.717652e-01 -9.432440e-01 -8.957732e-01 -8.776357e-01 -8.316911e-01 -8.193710e-01 -7.764313e-01 -7.644813e-01 -7.213673e-01 -7.081656e-01 -6.653567e-01 -6.513259e-01 -6.092309e-01 -5.945214e-01 -5.533564e-01 -5.378060e-01 -4.976293e-01 -4.809430e-01 -4.416355e-01 -4.236178e-01 -3.851413e-01 -3.659615e-01 -3.282942e-01 -3.084002e-01 -2.715150e-01 -2.515780e-01 -2.150957e-01 -1.954375e-01 -1.584133e-01 -1.392852e-01 -1.009064e-01 -8.288270e-02 -4.265332e-02 -2.650272e-02 1.577044e-02 2.939979e-02 7.391827e-02 8.485975e-02 1.317360e-01 1.401269e-01 1.892712e-01 1.957008e-01 2.468389e-01 2.520752e-01 3.044367e-01 3.092790e-01 3.617662e-01 3.670231e-01 4.182756e-01 4.248366e-01 4.738231e-01 4.829946e-01 5.291215e-01 5.420874e-01 5.848987e-01 6.022943e-01 6.421162e-01 6.681347e-01 7.004932e-01 7.138246e-01 7.438780e-01 7.516007e-01 
9.269968e-01 9.277054e-01 9.759421e-01 9.755539e-01 1.028256e+00 1.028029e+00 1.087398e+00 1.087859e+00 1.147462e+00 1.145788e+00 1.207922e+00 1.203749e+00 1.267809e+00 1.262268e+00 4.084074e-01 3.209388e-01 -4.728183e-01 -5.842034e-01 -1.384142e+00 -1.456836e+00 -2.325279e+00 -2.311785e+00 -2.266519e+00 -2.252575e+00 -2.207571e+00 -2.193173e+00 -2.148606e+00 -2.133602e+00 -2.089753e+00 -2.073926e+00 -2.031076e+00 -2.014214e+00 -1.972558e+00 -1.954469e+00 -1.914080e+00 -1.894659e+00 -1.855513e+00 -1.834772e+00 -1.796785e+00 -1.774899e+00 -1.737971e+00 -1.715211e+00 -1.679157e+00 -1.655791e+00 -1.620339e+00 -1.596606e+00 -1.561444e+00 -1.537557e+00 -1.502390e+00 -1.478543e+00 -1.443089e+00 -1.419361e+00 -1.383248e+00 -1.359443e+00 -1.322024e+00 -1.297205e+00 -1.256993e+00 -1.228143e+00 -1.183025e+00 -1.161907e+00 -1.118401e+00 -1.095835e+00 -1.056229e+00 -1.030857e+00 -9.902678e-01 -9.721855e-01 -9.291284e-01 -9.133188e-01 -8.696523e-01 -8.497098e-01 -8.075004e-01 -7.888485e-01 -7.488039e-01 -7.314373e-01 -6.895361e-01 -6.720340e-01 -6.293682e-01 -6.117476e-01 -5.689280e-01 -5.511431e-01 -5.084840e-01 -4.904263e-01 -4.480601e-01 -4.296175e-01 -3.875552e-01 -3.686931e-01 -3.268915e-01 -3.077258e-01 -2.660881e-01 -2.468724e-01 -2.052253e-01 -1.863016e-01 -1.443267e-01 -1.260100e-01 -8.323759e-02 -6.584690e-02 -2.181876e-02 -5.737961e-03 3.989990e-02 5.426869e-02 1.017440e-01 1.140918e-01 1.635443e-01 1.737631e-01 2.252239e-01 2.334094e-01 2.867670e-01 2.932259e-01 3.482070e-01 3.533829e-01 4.095085e-01 4.139108e-01 4.705530e-01 4.747143e-01 5.311924e-01 5.356441e-01 5.914127e-01 5.966570e-01 6.514065e-01 6.577249e-01 7.113627e-01 7.187381e-01 7.711130e-01 7.809149e-01 8.273696e-01 8.335872e-01 8.784127e-01 8.813753e-01 
7.834095e-01 7.932850e-01 8.307524e-01 8.405189e-01 8.807506e-01 8.911439e-01 9.348771e-01 9.453746e-01 9.913734e-01 1.002433e+00 1.049992e+00 1.063724e+00 1.111657e+00 1.132263e+00 2.761144e-01 2.658769e-01 -5.638427e-01 -5.855218e-01 -1.414692e+00 -1.425151e+00 -2.279137e+00 -2.260468e+00 -2.210035e+00 -2.198805e+00 -2.147759e+00 -2.140068e+00 -2.089055e+00 -2.082741e+00 -2.032286e+00 -2.026073e+00 -1.976597e+00 -1.969703e+00 -1.921498e+00 -1.913443e+00 -1.866668e+00 -1.857201e+00 -1.811899e+00 -1.800952e+00 -1.757074e+00 -1.744740e+00 -1.702173e+00 -1.688646e+00 -1.647194e+00 -1.632700e+00 -1.592103e+00 -1.576874e+00 -1.536842e+00 -1.521101e+00 -1.481349e+00 -1.465296e+00 -1.425548e+00 -1.409311e+00 -1.369258e+00 -1.352817e+00 -1.312028e+00 -1.294999e+00 -1.252621e+00 -1.233798e+00 -1.189190e+00 -1.173507e+00 -1.128530e+00 -1.111148e+00 -1.068907e+00 -1.052219e+00 -1.009836e+00 -9.949770e-01 -9.493645e-01 -9.355409e-01 -8.913710e-01 -8.779437e-01 -8.362608e-01 -8.208057e-01 -7.789758e-01 -7.644078e-01 -7.223198e-01 -7.077626e-01 -6.658290e-01 -6.509400e-01 -6.094444e-01 -5.940231e-01 -5.531438e-01 -5.370442e-01 -4.968619e-01 -4.799933e-01 -4.405001e-01 -4.228667e-01 -3.839908e-01 -3.657306e-01 -3.273320e-01 -3.087070e-01 -2.705592e-01 -2.519147e-01 -2.136711e-01 -1.953638e-01 -1.565743e-01 -1.389748e-01 -9.919530e-02 -8.270123e-02 -4.157012e-02 -2.655473e-02 1.617539e-02 2.945041e-02 7.391084e-02 8.537111e-02 1.315481e-01 1.413233e-01 1.890309e-01 1.974608e-01 2.463303e-01 2.539162e-01 3.033832e-01 3.107243e-01 3.600761e-01 3.678142e-01 4.162802e-01 4.250522e-01 4.719430e-01 4.823112e-01 5.271017e-01 5.393705e-01 5.817205e-01 5.957201e-01 6.355068e-01 6.503944e-01 6.875959e-01 7.005885e-01 7.364381e-01 7.474575e-01 
9.278046e-01 9.297611e-01 9.801337e-01 9.811643e-01 1.034540e+00 1.035354e+00 1.092067e+00 1.093179e+00 1.151902e+00 1.153648e+00 1.213937e+00 1.218026e+00 1.278960e+00 1.289482e+00 3.908111e-01 3.605760e-01 -5.061502e-01 -5.485291e-01 -1.419810e+00 -1.439828e+00 -2.351362e+00 -2.322679e+00 -2.279317e+00 -2.257720e+00 -2.213867e+00 -2.195475e+00 -2.151714e+00 -2.134521e+00 -2.091249e+00 -2.074148e+00 -2.031645e+00 -2.013998e+00 -1.972455e+00 -1.953912e+00 -1.913446e+00 -1.893848e+00 -1.854493e+00 -1.833819e+00 -1.795519e+00 -1.773837e+00 -1.736448e+00 -1.713887e+00 -1.677200e+00 -1.653942e+00 -1.617716e+00 -1.593969e+00 -1.557947e+00 -1.533916e+00 -1.497820e+00 -1.473664e+00 -1.437193e+00 -1.413011e+00 -1.375846e+00 -1.351671e+00 -1.313490e+00 -1.289321e+00 -1.249837e+00 -1.225823e+00 -1.185006e+00 -1.161810e+00 -1.119597e+00 -1.096446e+00 -1.055352e+00 -1.034342e+00 -9.929399e-01 -9.720582e-01 -9.284850e-01 -9.093318e-01 -8.676429e-01 -8.504614e-01 -8.094546e-01 -7.913767e-01 -7.491566e-01 -7.312375e-01 -6.888060e-01 -6.710155e-01 -6.284341e-01 -6.106101e-01 -5.680266e-01 -5.500448e-01 -5.075900e-01 -4.893639e-01 -4.471145e-01 -4.286103e-01 -3.865747e-01 -3.678298e-01 -3.259438e-01 -3.070798e-01 -2.652041e-01 -2.464235e-01 -2.043411e-01 -1.859084e-01 -1.433315e-01 -1.255514e-01 -8.215095e-02 -6.535080e-02 -2.079957e-02 -5.300912e-03 4.068957e-02 5.461566e-02 1.022664e-01 1.144427e-01 1.638751e-01 1.742450e-01 2.254507e-01 2.340929e-01 2.869232e-01 2.940575e-01 3.482303e-01 3.542004e-01 4.093159e-01 4.145443e-01 4.701164e-01 4.750510e-01 5.305684e-01 5.356297e-01 5.906251e-01 5.961381e-01 6.502233e-01 6.563335e-01 7.091681e-01 7.157798e-01 7.669560e-01 7.736974e-01 8.226158e-01 8.279565e-01 8.758608e-01 8.793698e-01 
7.834321e-01 7.933042e-01 8.307693e-01 8.405343e-01 8.807654e-01 8.911574e-01 9.348902e-01 9.453854e-01 9.913791e-01 1.002439e+00 1.049988e+00 1.063733e+00 1.111658e+00 1.132299e+00 2.761388e-01 2.659178e-01 -5.637681e-01 -5.854458e-01 -1.414531e+00 -1.425003e+00 -2.278839e+00 -2.260203e+00 -2.209732e+00 -2.198511e+00 -2.147452e+00 -2.139785e+00 -2.088793e+00 -2.082523e+00 -2.032095e+00 -2.025899e+00 -1.976386e+00 -1.969426e+00 -1.921097e+00 -1.912914e+00 -1.865990e+00 -1.856413e+00 -1.811026e+00 -1.800048e+00 -1.756169e+00 -1.743827e+00 -1.701249e+00 -1.687618e+00 -1.646054e+00 -1.631307e+00 -1.590497e+00 -1.574911e+00 -1.534635e+00 -1.518502e+00 -1.478500e+00 -1.462016e+00 -1.421967e+00 -1.405243e+00 -1.364840e+00 -1.347967e+00 -1.306965e+00 -1.290025e+00 -1.248244e+00 -1.231343e+00 -1.188758e+00 -1.172336e+00 -1.129274e+00 -1.113143e+00 -1.070008e+00 -1.054427e+00 -1.011076e+00 -9.962071e-01 -9.524742e-01 -9.381168e-01 -8.944660e-01 -8.802873e-01 -8.369953e-01 -8.226657e-01 -7.796565e-01 -7.652896e-01 -7.226223e-01 -7.080773e-01 -6.658796e-01 -6.509336e-01 -6.093234e-01 -5.937738e-01 -5.528572e-01 -5.365707e-01 -4.964151e-01 -4.793465e-01 -4.399556e-01 -4.221536e-01 -3.834390e-01 -3.650492e-01 -3.268265e-01 -3.080888e-01 -2.700649e-01 -2.512852e-01 -2.130822e-01 -1.946421e-01 -1.558646e-01 -1.382023e-01 -9.846892e-02 -8.201156e-02 -4.096822e-02 -2.604158e-02 1.662081e-02 2.983817e-02 7.429643e-02 8.575543e-02 1.319786e-01 1.417775e-01 1.895243e-01 1.979476e-01 2.468082e-01 2.543454e-01 3.037699e-01 3.110409e-01 3.603412e-01 3.680122e-01 4.164496e-01 4.251825e-01 4.720761e-01 4.824246e-01 5.272302e-01 5.394838e-01 5.818415e-01 5.958179e-01 6.355958e-01 6.504620e-01 6.876525e-01 7.006314e-01 7.364729e-01 7.474850e-01 
9.270536e-01 9.277569e-01 9.759894e-01 9.755984e-01 1.028301e+00 1.028068e+00 1.087443e+00 1.087884e+00 1.147479e+00 1.145787e+00 1.207903e+00 1.203740e+00 1.267786e+00 1.262307e+00 4.084653e-01 3.210112e-01 -4.726872e-01 -5.840807e-01 -1.383911e+00 -1.456610e+00 -2.324828e+00 -2.311398e+00 -2.266028e+00 -2.252076e+00 -2.207019e+00 -2.192632e+00 -2.148081e+00 -2.133124e+00 -2.089308e+00 -2.073481e+00 -2.030553e+00 -2.013533e+00 -1.971635e+00 -1.953265e+00 -1.912581e+00 -1.892895e+00 -1.853559e+00 -1.832682e+00 -1.794646e+00 -1.772645e+00 -1.735626e+00 -1.712548e+00 -1.676191e+00 -1.652202e+00 -1.616233e+00 -1.591653e+00 -1.555884e+00 -1.531066e+00 -1.495248e+00 -1.470395e+00 -1.434178e+00 -1.409406e+00 -1.372484e+00 -1.347941e+00 -1.310140e+00 -1.286029e+00 -1.247275e+00 -1.223773e+00 -1.184037e+00 -1.161262e+00 -1.120630e+00 -1.098703e+00 -1.057434e+00 -1.036592e+00 -9.947772e-01 -9.749587e-01 -9.326099e-01 -9.137335e-01 -8.710698e-01 -8.528949e-01 -8.099547e-01 -7.921280e-01 -7.489373e-01 -7.313748e-01 -6.881626e-01 -6.707306e-01 -6.276421e-01 -6.101125e-01 -5.672406e-01 -5.494081e-01 -5.068512e-01 -4.885924e-01 -4.464260e-01 -4.277109e-01 -3.859584e-01 -3.668445e-01 -3.254307e-01 -3.060591e-01 -2.648130e-01 -2.454104e-01 -2.040429e-01 -1.848826e-01 -1.430199e-01 -1.244680e-01 -8.174748e-02 -6.425185e-02 -2.033133e-02 -4.330605e-03 4.112824e-02 5.532066e-02 1.026613e-01 1.148932e-01 1.643377e-01 1.745447e-01 2.260897e-01 2.343097e-01 2.877397e-01 2.941757e-01 3.491391e-01 3.542148e-01 4.102629e-01 4.145268e-01 4.710736e-01 4.751006e-01 5.315260e-01 5.358974e-01 5.916725e-01 5.968739e-01 6.516531e-01 6.579408e-01 7.115949e-01 7.189279e-01 7.712847e-01 7.810517e-01 8.274851e-01 8.336809e-01 8.784907e-01 8.814416e-01 
7.819385e-01 7.876784e-01 8.201317e-01 8.269487e-01 8.642208e-01 8.766651e-01 9.253559e-01 9.340519e-01 9.828599e-01 9.854273e-01 1.037626e+00 1.034428e+00 1.088228e+00 1.076430e+00 2.937130e-01 2.058899e-01 -5.202675e-01 -6.325969e-01 -1.360192e+00 -1.442279e+00 -2.225063e+00 -2.236595e+00 -2.182369e+00 -2.186430e+00 -2.132694e+00 -2.133664e+00 -2.080692e+00 -2.079752e+00 -2.027944e+00 -2.025118e+00 -1.974497e+00 -1.969306e+00 -1.919967e+00 -1.912343e+00 -1.864736e+00 -1.855080e+00 -1.809725e+00 -1.798563e+00 -1.755521e+00 -1.742871e+00 -1.701422e+00 -1.686997e+00 -1.646361e+00 -1.630254e+00 -1.590114e+00 -1.573000e+00 -1.533518e+00 -1.516211e+00 -1.477247e+00 -1.459881e+00 -1.420758e+00 -1.403191e+00 -1.363413e+00 -1.345781e+00 -1.305290e+00 -1.288010e+00 -1.246931e+00 -1.230187e+00 -1.188313e+00 -1.171914e+00 -1.129150e+00 -1.113229e+00 -1.069772e+00 -1.054648e+00 -1.010994e+00 -9.969167e-01 -9.532048e-01 -9.396473e-01 -8.954120e-01 -8.818014e-01 -8.372031e-01 -8.235437e-01 -7.791180e-01 -7.655164e-01 -7.217594e-01 -7.081178e-01 -6.651837e-01 -6.509924e-01 -6.088431e-01 -5.936973e-01 -5.524738e-01 -5.361816e-01 -4.960381e-01 -4.785745e-01 -4.396396e-01 -4.210856e-01 -3.832716e-01 -3.637919e-01 -3.269182e-01 -3.068433e-01 -2.704549e-01 -2.500129e-01 -2.134339e-01 -1.931068e-01 -1.558675e-01 -1.364335e-01 -9.816269e-02 -8.043886e-02 -4.071964e-02 -2.516774e-02 1.672003e-02 3.007532e-02 7.465603e-02 8.571971e-02 1.329557e-01 1.416380e-01 1.910650e-01 1.975224e-01 2.485754e-01 2.535822e-01 3.057187e-01 3.102534e-01 3.624583e-01 3.674130e-01 4.185462e-01 4.250241e-01 4.740953e-01 4.832672e-01 5.295189e-01 5.424887e-01 5.853606e-01 6.026469e-01 6.423840e-01 6.683152e-01 7.006206e-01 7.139163e-01 7.439439e-01 7.516543e-01 
9.247365e-01 9.195975e-01 9.582772e-01 9.514552e-01 9.946252e-01 9.873923e-01 1.074175e+00 1.086275e+00 1.134497e+00 1.132483e+00 1.195222e+00 1.180355e+00 1.250951e+00 1.175305e+00 5.243904e-01 1.593716e-01 -2.847359e-01 -7.026662e-01 -1.169624e+00 -1.475112e+00 -2.180358e+00 -2.210984e+00 -2.165345e+00 -2.158266e+00 -2.112901e+00 -2.102877e+00 -2.058236e+00 -2.046616e+00 -2.003057e+00 -1.989852e+00 -1.947222e+00 -1.931819e+00 -1.890101e+00 -1.872427e+00 -1.832127e+00 -1.812696e+00 -1.774471e+00 -1.753938e+00 -1.717900e+00 -1.696231e+00 -1.661505e+00 -1.638251e+00 -1.603909e+00 -1.579108e+00 -1.544831e+00 -1.519277e+00 -1.485375e+00 -1.460049e+00 -1.426426e+00 -1.401421e+00 -1.367270e+00 -1.342351e+00 -1.307117e+00 -1.282463e+00 -1.246175e+00 -1.222385e+00 -1.185315e+00 -1.162715e+00 -1.124627e+00 -1.102670e+00 -1.063650e+00 -1.042913e+00 -1.002241e+00 -9.826245e-01 -9.414038e-01 -9.235994e-01 -8.825732e-01 -8.655019e-01 -8.227753e-01 -8.056814e-01 -7.618640e-01 -7.453363e-01 -7.014137e-01 -6.854218e-01 -6.418813e-01 -6.263333e-01 -5.832969e-01 -5.675653e-01 -5.249153e-01 -5.085312e-01 -4.664056e-01 -4.491659e-01 -4.077376e-01 -3.896254e-01 -3.490693e-01 -3.301672e-01 -2.904159e-01 -2.708733e-01 -2.317979e-01 -2.119440e-01 -1.731032e-01 -1.530810e-01 -1.137724e-01 -9.402107e-02 -5.383296e-02 -3.516308e-02 6.190601e-03 2.290410e-02 6.578895e-02 8.009987e-02 1.253333e-01 1.373103e-01 1.855231e-01 1.950486e-01 2.462267e-01 2.530884e-01 3.067663e-01 3.109668e-01 3.666579e-01 3.689165e-01 4.262651e-01 4.274825e-01 4.855689e-01 4.864746e-01 5.442513e-01 5.458364e-01 6.024772e-01 6.057531e-01 6.609221e-01 6.663024e-01 7.212991e-01 7.216408e-01 7.950156e-01 8.263609e-01 8.529041e-01 8.587933e-01 8.908016e-01 8.892393e-01 
7.795554e-01 7.690127e-01 7.857628e-01 7.714085e-01 7.850875e-01 7.605691e-01 8.175862e-01 8.484155e-01 8.294605e-01 8.608320e-01 8.477507e-01 8.783684e-01 8.638235e-01 8.278658e-01 6.336843e-01 5.317757e-01 3.917541e-01 2.676187e-01 1.275531e-01 3.129865e-02 -1.639100e-01 -2.083991e-01 -1.937001e-01 -1.934535e-01 -1.759764e-01 -1.768504e-01 -1.571523e-01 -1.592641e-01 -1.377213e-01 -1.411958e-01 -1.183031e-01 -1.232107e-01 -9.936064e-02 -1.054534e-01 -8.080651e-02 -8.759434e-02 -6.221606e-02 -6.918213e-02 -4.329291e-02 -5.022827e-02 -2.435148e-02 -3.126826e-02 -5.876252e-03 -1.267484e-02 1.206038e-02 5.700266e-03 2.991004e-02 2.432623e-02 4.804761e-02 4.320704e-02 6.624073e-02 6.193504e-02 8.417507e-02 8.027337e-02 1.018010e-01 9.824838e-02 1.191918e-01 1.157954e-01 1.361439e-01 1.331475e-01 1.525885e-01 1.492539e-01 1.696199e-01 1.668681e-01 1.876336e-01 1.849506e-01 2.051654e-01 2.029999e-01 2.244728e-01 2.226038e-01 2.445152e-01 2.420169e-01 2.639439e-01 2.611807e-01 2.834459e-01 2.804083e-01 3.030509e-01 2.995640e-01 3.225458e-01 3.184775e-01 3.418657e-01 3.371847e-01 3.610541e-01 3.558125e-01 3.802058e-01 3.745112e-01 3.993298e-01 3.933421e-01 4.183998e-01 4.123783e-01 4.373168e-01 4.314920e-01 4.558260e-01 4.505719e-01 4.739244e-01 4.697567e-01 4.918300e-01 4.892496e-01 5.097851e-01 5.090565e-01 5.277350e-01 5.288094e-01 5.455180e-01 5.482430e-01 5.632769e-01 5.673371e-01 5.813503e-01 5.861518e-01 6.000006e-01 6.045028e-01 6.191666e-01 6.221191e-01 6.389081e-01 6.390469e-01 6.593863e-01 6.553283e-01 6.806226e-01 6.708627e-01 7.027137e-01 6.850665e-01 7.269949e-01 6.896351e-01 7.685540e-01 7.644939e-01 7.704581e-01 7.585746e-01 7.725950e-01 7.626252e-01 
9.237254e-01 9.050720e-01 9.286940e-01 9.095503e-01 9.271942e-01 9.031773e-01 9.265408e-01 9.431249e-01 9.236187e-01 9.546498e-01 9.286861e-01 9.691778e-01 9.408008e-01 9.677082e-01 8.833963e-01 8.917559e-01 8.282298e-01 8.283678e-01 7.675158e-01 7.725261e-01 6.946763e-01 7.106450e-01 6.989689e-01 7.219470e-01 7.110580e-01 7.284489e-01 7.204519e-01 7.334980e-01 7.291295e-01 7.379905e-01 7.369058e-01 7.413186e-01 7.431030e-01 7.434673e-01 7.481814e-01 7.455272e-01 7.533929e-01 7.488672e-01 7.595831e-01 7.535545e-01 7.658699e-01 7.581891e-01 7.708878e-01 7.618160e-01 7.744135e-01 7.649066e-01 7.776675e-01 7.687893e-01 7.816372e-01 7.734435e-01 7.856062e-01 7.777099e-01 7.886810e-01 7.809973e-01 7.908294e-01 7.835717e-01 7.924860e-01 7.855204e-01 7.932359e-01 7.863421e-01 7.925802e-01 7.853153e-01 7.921715e-01 7.857259e-01 7.932432e-01 7.873997e-01 7.949137e-01 7.897998e-01 7.987616e-01 7.936806e-01 8.034291e-01 7.972506e-01 8.075391e-01 8.005886e-01 8.121356e-01 8.043911e-01 8.173966e-01 8.082921e-01 8.226867e-01 8.117933e-01 8.277508e-01 8.149135e-01 8.326081e-01 8.178884e-01 8.374354e-01 8.210393e-01 8.422273e-01 8.244891e-01 8.469553e-01 8.284594e-01 8.514373e-01 8.326319e-01 8.550328e-01 8.367099e-01 8.577423e-01 8.410741e-01 8.601326e-01 8.462960e-01 8.628089e-01 8.524107e-01 8.655105e-01 8.584261e-01 8.676572e-01 8.636907e-01 8.695280e-01 8.682837e-01 8.719559e-01 8.725215e-01 8.755585e-01 8.760242e-01 8.800567e-01 8.781514e-01 8.855446e-01 8.791185e-01 8.924016e-01 8.791005e-01 9.005056e-01 8.780486e-01 9.093870e-01 8.757225e-01 9.188021e-01 8.700424e-01 9.326494e-01 8.919110e-01 9.197069e-01 8.907257e-01 9.186064e-01 8.970714e-01 
7.799334e-01 7.659415e-01 7.783367e-01 7.671620e-01 7.748581e-01 7.673071e-01 7.688022e-01 7.793580e-01 7.642130e-01 7.852676e-01 7.626143e-01 7.867303e-01 7.635147e-01 7.831077e-01 7.666358e-01 7.844711e-01 7.729121e-01 7.863222e-01 7.802396e-01 7.876802e-01 7.864061e-01 7.872957e-01 7.864228e-01 7.867208e-01 7.873338e-01 7.861765e-01 7.890196e-01 7.858720e-01 7.912754e-01 7.856746e-01 7.935262e-01 7.851323e-01 7.952300e-01 7.841641e-01 7.964344e-01 7.832182e-01 7.975933e-01 7.828792e-01 7.990195e-01 7.831904e-01 8.003379e-01 7.835769e-01 8.009680e-01 7.836108e-01 8.007962e-01 7.834384e-01 8.003027e-01 7.835337e-01 7.998576e-01 7.837966e-01 7.991090e-01 7.836149e-01 7.975781e-01 7.825749e-01 7.951185e-01 7.806280e-01 7.917936e-01 7.777937e-01 7.876172e-01 7.745209e-01 7.834209e-01 7.707292e-01 7.798492e-01 7.678868e-01 7.772716e-01 7.664151e-01 7.758294e-01 7.657984e-01 7.758751e-01 7.658731e-01 7.765925e-01 7.661857e-01 7.775149e-01 7.666492e-01 7.786389e-01 7.671646e-01 7.799304e-01 7.675415e-01 7.811568e-01 7.676197e-01 7.822275e-01 7.674420e-01 7.831331e-01 7.671334e-01 7.839048e-01 7.668597e-01 7.845109e-01 7.667382e-01 7.849284e-01 7.669316e-01 7.850798e-01 7.673765e-01 7.846976e-01 7.679616e-01 7.837435e-01 7.688024e-01 7.824435e-01 7.700963e-01 7.810978e-01 7.718182e-01 7.796997e-01 7.735053e-01 7.781218e-01 7.747855e-01 7.765797e-01 7.755668e-01 7.755161e-01 7.758461e-01 7.752640e-01 7.753637e-01 7.757946e-01 7.738272e-01 7.772141e-01 7.713730e-01 7.797049e-01 7.682175e-01 7.831406e-01 7.645764e-01 7.870767e-01 7.608517e-01 7.908384e-01 7.582668e-01 7.931340e-01 7.614831e-01 7.855291e-01 7.622604e-01 7.816123e-01 7.639422e-01 
