# vtk DataFile Version 2.0
Comment goes here
ASCII

DATASET STRUCTURED_POINTS
FIELD FieldData 1
TIME 1 1 double
0.70000000
DIMENSIONS    128   16   1

ORIGIN    0.000   0.000   0.000
SPACING   0.0078125 0.015625   1.000

POINT_DATA   2048
SCALARS uMag double
LOOKUP_TABLE default

2.758059e-03 5.847046e-04 2.822934e-03 2.527209e-03 2.432117e-03 7.395990e-03 2.144163e-03 1.663143e-03 1.023793e-04 3.645658e-04 1.402291e-04 7.039547e-04 4.474767e-04 1.503503e-03 3.167249e-03 8.525691e-04 4.514890e-03 1.320316e-03 3.890123e-03 1.571634e-03 2.583900e-03 1.468096e-03 6.322942e-04 1.364695e-03 1.124495e-03 8.646687e-04 1.265139e-03 4.476368e-04 1.220802e-03 6.736389e-05 1.071971e-03 2.753683e-04 8.768840e-04 5.744130e-04 6.836291e-04 8.214252e-04 5.229175e-04 1.000806e-03 4.112960e-04 1.101220e-03 3.599040e-04 1.123739e-03 3.767596e-04 1.080487e-03 4.598104e-04 9.896759e-04 5.945680e-04 8.768733e-04 7.590329e-04 7.835621e-04 9.281424e-04 7.793300e-04 1.069855e-03 8.934308e-04 1.083355e-03 1.036236e-03 6.925480e-04 1.425679e-03 1.610746e-03 5.978308e-03 7.067228e-03 3.194524e-03 1.306341e-03 1.416133e-03 3.457851e-03 8.021925e-03 4.355194e-03 4.042750e-04 1.573024e-03 2.204631e-03 1.244620e-03 3.577266e-03 3.791563e-03 2.038125e-03 1.774370e-03 1.181437e-03 1.078979e-03 1.053421e-03 8.323700e-04 8.893501e-04 7.775572e-04 6.691644e-04 8.620587e-04 4.426631e-04 1.019683e-03 2.536726e-04 1.180301e-03 1.627111e-04 1.291689e-03 1.780692e-04 1.324805e-03 1.704132e-04 1.266577e-03 7.609020e-05 1.110521e-03 1.513632e-04 8.575409e-04 4.468670e-04 5.216361e-04 8.080083e-04 1.353946e-04 1.191669e-03 2.585061e-04 1.547080e-03 5.917329e-04 1.815655e-03 8.056912e-04 1.935312e-03 8.418211e-04 1.848703e-03 6.554257e-04 1.511990e-03 2.276781e-04 9.031818e-04 4.181059e-04 3.521300e-05 1.194298e-03 1.023722e-03 1.910873e-03 2.092769e-03 2.201449e-03 2.738556e-03 1.348467e-03 2.549463e-04 1.910367e-03 8.061936e-04 2.640248e-03 4.008690e-04 
2.384327e-03 5.913508e-04 3.009035e-03 2.183359e-03 5.337732e-03 8.635182e-03 6.061126e-03 2.091134e-03 1.952045e-03 7.420024e-04 3.649693e-03 1.148562e-03 7.085646e-03 2.728909e-03 5.820124e-03 1.541781e-03 5.168549e-03 1.345293e-03 4.538231e-03 2.494689e-03 4.683164e-03 4.347544e-03 1.854624e-03 1.688012e-03 1.369203e-03 6.152148e-04 9.640592e-04 1.250176e-04 6.434964e-04 1.531745e-04 3.884016e-04 2.040307e-04 3.211421e-04 2.116006e-04 4.450015e-04 2.513195e-04 5.897307e-04 3.087715e-04 6.986123e-04 3.351338e-04 7.525977e-04 3.152892e-04 7.426434e-04 2.447715e-04 6.852488e-04 1.181215e-04 6.164447e-04 8.385353e-05 6.076779e-04 3.840909e-04 7.526974e-04 8.763711e-04 1.181864e-03 1.780541e-03 2.251521e-03 3.544120e-03 4.160419e-03 5.957987e-03 1.080755e-02 1.305324e-02 5.702049e-03 1.228769e-02 4.731376e-03 4.710538e-03 1.400573e-02 3.616976e-03 1.729655e-02 1.322961e-02 7.333423e-03 6.124935e-03 1.267287e-02 5.993270e-03 6.064547e-03 5.709276e-03 4.253465e-03 2.778093e-03 2.078449e-03 1.515793e-03 1.103388e-03 9.521096e-04 5.999217e-04 7.324397e-04 3.050402e-04 7.373955e-04 9.997110e-05 8.460725e-04 1.034431e-04 9.775443e-04 1.888565e-04 1.076060e-03 2.154934e-04 1.093869e-03 2.042174e-04 1.007683e-03 2.163399e-04 8.381093e-04 3.847893e-04 6.139378e-04 6.903528e-04 4.179788e-04 1.058478e-03 4.542009e-04 1.430999e-03 6.881328e-04 1.751956e-03 9.098745e-04 1.967538e-03 1.015662e-03 2.025217e-03 9.557114e-04 1.888441e-03 7.451930e-04 1.566291e-03 6.537961e-04 1.178889e-03 1.215876e-03 1.061960e-03 2.209509e-03 1.415962e-03 3.359696e-03 1.774783e-03 4.295586e-03 2.974399e-03 3.278515e-03 3.609817e-03 1.156007e-03 2.575278e-03 2.560272e-04 
3.429777e-03 1.523730e-03 4.799014e-03 2.457859e-03 1.405171e-02 1.658553e-03 1.665532e-02 6.868966e-03 3.884148e-03 4.090112e-03 3.390193e-03 6.508202e-03 5.213020e-03 3.354775e-03 5.339356e-03 3.461421e-03 5.255181e-03 4.320273e-03 4.505321e-03 5.578963e-03 4.288018e-03 6.039911e-03 4.578804e-03 3.980240e-03 2.045249e-03 3.472152e-03 9.807209e-04 3.063476e-03 4.642811e-04 2.704269e-03 5.696442e-04 2.374450e-03 8.831815e-04 2.033716e-03 1.164304e-03 1.703282e-03 1.388101e-03 1.426122e-03 1.566649e-03 1.225995e-03 1.687042e-03 1.095836e-03 1.724457e-03 1.029409e-03 1.688605e-03 1.004029e-03 1.591635e-03 9.876040e-04 1.484754e-03 9.951430e-04 1.504261e-03 1.245459e-03 2.090700e-03 2.377571e-03 3.827095e-03 4.267157e-03 4.600613e-03 3.621428e-03 6.648116e-03 9.802589e-03 1.345545e-02 6.462905e-03 7.891826e-03 7.176091e-03 7.292125e-03 1.405360e-02 8.486748e-03 7.794972e-03 1.459349e-03 1.615332e-03 4.277990e-03 8.519864e-03 8.923642e-03 7.079218e-03 4.406100e-03 3.343004e-03 1.804413e-03 1.710598e-03 8.212247e-04 1.231475e-03 7.987783e-04 1.429461e-03 8.948087e-04 1.756142e-03 8.538537e-04 2.036906e-03 7.516559e-04 2.279880e-03 6.501505e-04 2.468236e-03 6.001469e-04 2.550859e-03 6.636924e-04 2.501236e-03 8.499403e-04 2.367938e-03 1.149565e-03 2.154496e-03 1.520782e-03 1.853915e-03 1.918746e-03 1.485721e-03 2.305161e-03 1.073933e-03 2.643019e-03 6.495637e-04 2.906156e-03 2.376534e-04 3.057483e-03 3.617874e-04 3.064265e-03 8.824152e-04 2.932761e-03 1.465215e-03 2.734745e-03 2.126487e-03 2.558821e-03 2.836573e-03 2.532362e-03 3.565653e-03 2.533902e-03 4.263716e-03 8.451973e-03 1.109448e-02 8.748691e-03 4.087593e-03 4.552730e-03 1.929271e-03 
1.594294e-03 2.859964e-03 1.287232e-03 7.541446e-03 1.351140e-02 1.473277e-02 9.007193e-03 2.438847e-03 3.848595e-03 2.250177e-03 4.742806e-03 3.440230e-03 7.028147e-03 2.137703e-03 5.671539e-03 1.408916e-03 4.743754e-03 1.556972e-03 4.118794e-03 2.529008e-03 3.543302e-03 4.259570e-03 2.572844e-03 2.562104e-03 1.370149e-03 2.025030e-03 1.233702e-03 1.791215e-03 1.196058e-03 1.722090e-03 1.114655e-03 1.662627e-03 1.049727e-03 1.513155e-03 9.342470e-04 1.311634e-03 7.226733e-04 1.087087e-03 4.602953e-04 8.374800e-04 2.649366e-04 5.860006e-04 2.164338e-04 4.072001e-04 2.956322e-04 3.803158e-04 3.364493e-04 5.061413e-04 2.594650e-04 7.955844e-04 2.707761e-04 1.329051e-03 1.032500e-03 2.347351e-03 2.626729e-03 4.335775e-03 4.871866e-03 5.591341e-03 3.983435e-03 3.565939e-03 2.798541e-03 2.769533e-03 4.939742e-03 5.172219e-03 3.864408e-03 3.312617e-03 4.146321e-03 6.065067e-03 7.276080e-03 6.893834e-03 6.491946e-03 5.290163e-03 4.516992e-03 3.955180e-03 2.716342e-03 1.766860e-03 1.492352e-03 6.501264e-04 1.055740e-03 1.205418e-04 9.315777e-04 4.476337e-04 8.380348e-04 7.206784e-04 7.487086e-04 8.200007e-04 6.625185e-04 8.471452e-04 4.830781e-04 9.001380e-04 1.619117e-04 9.835961e-04 2.408994e-04 1.098739e-03 5.611318e-04 1.298439e-03 8.456792e-04 1.481675e-03 1.102985e-03 1.585178e-03 1.248261e-03 1.561683e-03 1.251846e-03 1.390396e-03 1.070572e-03 1.061645e-03 7.789536e-04 5.786871e-04 6.523759e-04 3.930837e-04 1.045125e-03 1.103690e-03 1.739389e-03 1.920899e-03 2.499083e-03 2.745930e-03 3.119921e-03 3.435679e-03 3.415248e-03 3.666921e-03 2.860604e-03 1.899084e-03 3.396647e-03 2.748201e-02 3.552985e-03 8.237484e-03 4.031283e-03 2.866030e-03 
4.602275e-03 2.405712e-03 7.061329e-03 4.779146e-03 4.380892e-03 1.485818e-02 1.378468e-02 1.797582e-03 2.237075e-03 1.987419e-03 2.764192e-03 3.133445e-03 6.343470e-03 4.257747e-03 5.668582e-03 4.850335e-03 5.280322e-03 5.260401e-03 4.822470e-03 5.924996e-03 4.031293e-03 7.053227e-03 3.034363e-03 4.160114e-03 1.712604e-03 2.826268e-03 1.185980e-03 2.020237e-03 1.104109e-03 1.574757e-03 1.272505e-03 1.330032e-03 1.502054e-03 1.119917e-03 1.673502e-03 9.304106e-04 1.752685e-03 7.718538e-04 1.757417e-03 6.183921e-04 1.693721e-03 4.627857e-04 1.535807e-03 3.601856e-04 1.282051e-03 3.070467e-04 9.121201e-04 2.457298e-04 3.881396e-04 3.431129e-04 5.121670e-04 1.079463e-03 1.923247e-03 2.753588e-03 4.456066e-03 6.077507e-03 8.329331e-03 9.541262e-03 9.225001e-03 7.687547e-03 9.583352e-03 6.641817e-03 1.037319e-02 9.524943e-03 7.767541e-03 1.006202e-02 9.426476e-03 1.094662e-02 1.144380e-02 1.054914e-02 1.089554e-02 1.159850e-02 9.034117e-03 6.512384e-03 4.025588e-03 3.288786e-03 1.526300e-03 1.610224e-03 3.180084e-04 7.292937e-04 5.183562e-04 6.523130e-04 7.774603e-04 9.677371e-04 8.410881e-04 1.213387e-03 8.234975e-04 1.397635e-03 7.559147e-04 1.531957e-03 6.860671e-04 1.576714e-03 7.337522e-04 1.514837e-03 9.367808e-04 1.427036e-03 1.261165e-03 1.322990e-03 1.650310e-03 1.200514e-03 2.037807e-03 1.072860e-03 2.377082e-03 9.498094e-04 2.620113e-03 8.095331e-04 2.743517e-03 5.850680e-04 2.712521e-03 2.731366e-04 2.497638e-03 4.452304e-04 2.119065e-03 1.081507e-03 1.751434e-03 1.917485e-03 1.802383e-03 2.857646e-03 2.661330e-03 3.794871e-03 3.943428e-03 4.598235e-03 6.539372e-03 1.734037e-02 1.011518e-02 8.014179e-03 6.618546e-03 2.978367e-03 
7.373063e-03 7.062445e-03 9.036622e-03 9.864291e-03 1.234116e-02 1.029020e-02 1.346102e-02 4.089662e-03 6.443705e-03 3.690580e-03 6.014511e-03 5.845591e-03 6.844006e-03 5.837989e-03 6.381697e-03 6.001949e-03 6.216975e-03 6.197513e-03 6.014977e-03 6.378138e-03 5.819771e-03 6.817722e-03 5.744066e-03 6.890053e-03 5.085698e-03 6.977627e-03 4.954621e-03 6.857636e-03 4.994417e-03 6.696674e-03 5.159870e-03 6.529596e-03 5.375639e-03 6.337973e-03 5.578484e-03 6.131690e-03 5.749000e-03 5.940303e-03 5.881450e-03 5.780505e-03 5.956796e-03 5.640259e-03 5.948803e-03 5.506685e-03 5.847079e-03 5.355486e-03 5.628168e-03 5.137158e-03 5.265621e-03 4.792124e-03 4.762601e-03 4.358700e-03 4.501671e-03 4.661129e-03 5.946843e-03 6.109097e-03 5.529879e-03 2.733882e-03 8.245131e-03 6.616007e-04 2.429449e-03 3.935921e-03 6.416429e-03 6.493922e-03 2.088647e-03 1.468483e-03 3.414242e-03 9.990903e-03 1.110211e-03 3.414372e-03 1.516958e-03 2.577208e-03 7.652157e-03 7.486166e-03 5.266587e-03 4.879343e-03 4.581780e-03 4.680074e-03 4.850639e-03 5.056397e-03 5.154915e-03 5.496415e-03 5.326347e-03 5.874442e-03 5.368229e-03 6.182376e-03 5.349247e-03 6.440400e-03 5.323687e-03 6.638136e-03 5.315355e-03 6.744137e-03 5.332549e-03 6.741742e-03 5.409197e-03 6.660959e-03 5.577010e-03 6.508706e-03 5.815066e-03 6.282820e-03 6.099781e-03 6.003982e-03 6.400155e-03 5.699651e-03 6.684821e-03 5.415246e-03 6.921322e-03 5.192819e-03 7.068054e-03 5.071981e-03 7.081145e-03 5.080348e-03 6.925630e-03 5.245519e-03 6.588341e-03 5.570687e-03 6.039281e-03 6.038597e-03 5.259461e-03 6.656985e-03 4.247635e-03 7.372272e-03 4.696211e-03 1.005463e-02 1.258372e-02 8.241743e-03 8.406468e-03 6.622157e-03 
8.108449e-03 7.648929e-03 8.761424e-03 9.295043e-03 1.042122e-02 1.249821e-02 8.555793e-03 6.775605e-03 9.004207e-03 6.276537e-03 8.590794e-03 7.103513e-03 8.645524e-03 6.384072e-03 6.957221e-03 6.547109e-03 6.757092e-03 6.764103e-03 6.526883e-03 6.982151e-03 6.334710e-03 7.447175e-03 7.147623e-03 8.502443e-03 7.309053e-03 8.885821e-03 7.358492e-03 8.941458e-03 7.398087e-03 8.848189e-03 7.486408e-03 8.692482e-03 7.610272e-03 8.508374e-03 7.744062e-03 8.316332e-03 7.868275e-03 8.132778e-03 7.968616e-03 7.966877e-03 8.031278e-03 7.818607e-03 8.044279e-03 7.684424e-03 8.002763e-03 7.559730e-03 7.910331e-03 7.447870e-03 7.796269e-03 7.392715e-03 7.764181e-03 7.564404e-03 8.115134e-03 8.429624e-03 9.449721e-03 1.029191e-02 1.083138e-02 1.072430e-02 8.524790e-03 7.449907e-03 7.427579e-03 8.713489e-03 1.039872e-02 9.757787e-03 7.970243e-03 8.036064e-03 9.808818e-03 1.223832e-02 1.368234e-02 1.168274e-02 1.156937e-02 1.035544e-02 1.087140e-02 9.304023e-03 8.618981e-03 7.721190e-03 7.761685e-03 7.363884e-03 7.567184e-03 7.439685e-03 7.587272e-03 7.662977e-03 7.642082e-03 7.909999e-03 7.673049e-03 8.135468e-03 7.680248e-03 8.324465e-03 7.680474e-03 8.465425e-03 7.689914e-03 8.546108e-03 7.721815e-03 8.560847e-03 7.790661e-03 8.515645e-03 7.905978e-03 8.416675e-03 8.062879e-03 8.271516e-03 8.248743e-03 8.094832e-03 8.445322e-03 7.906839e-03 8.631725e-03 7.733681e-03 8.786181e-03 7.602372e-03 8.887110e-03 7.538364e-03 8.917400e-03 7.562206e-03 8.871442e-03 7.688430e-03 8.762480e-03 7.919494e-03 8.624048e-03 8.240514e-03 8.517293e-03 8.600961e-03 8.505188e-03 8.827702e-03 8.393596e-03 1.050748e-02 9.351402e-03 8.271438e-03 8.299704e-03 7.412861e-03 
8.441308e-03 8.491162e-03 8.672063e-03 8.999326e-03 9.009845e-03 9.485056e-03 8.730186e-03 8.406676e-03 8.556434e-03 8.352526e-03 8.352844e-03 8.957592e-03 7.071655e-03 6.283252e-03 6.522249e-03 6.315560e-03 6.416484e-03 6.396300e-03 6.328585e-03 6.496631e-03 6.288892e-03 6.664888e-03 7.482029e-03 7.427394e-03 7.120104e-03 7.905653e-03 7.118207e-03 8.250601e-03 7.210173e-03 8.410343e-03 7.342662e-03 8.438597e-03 7.493783e-03 8.384330e-03 7.646911e-03 8.286541e-03 7.789473e-03 8.175493e-03 7.911247e-03 8.071487e-03 8.002841e-03 7.985152e-03 8.058157e-03 7.922879e-03 8.079907e-03 7.892863e-03 8.085235e-03 7.916272e-03 8.120404e-03 8.049623e-03 8.283734e-03 8.412894e-03 8.742412e-03 9.200324e-03 9.722676e-03 1.061820e-02 1.098565e-02 1.172023e-02 1.135608e-02 1.146749e-02 1.276883e-02 1.090917e-02 1.026233e-02 1.041323e-02 1.053967e-02 1.189487e-02 1.113621e-02 9.825294e-03 9.034779e-03 9.128166e-03 1.009043e-02 1.071951e-02 1.122999e-02 9.805460e-03 9.666985e-03 8.840894e-03 8.774120e-03 8.368457e-03 8.304295e-03 8.210636e-03 8.060199e-03 8.228630e-03 7.916858e-03 8.325311e-03 7.813812e-03 8.445938e-03 7.734261e-03 8.560265e-03 7.680334e-03 8.646554e-03 7.658447e-03 8.687250e-03 7.675040e-03 8.672375e-03 7.737474e-03 8.602294e-03 7.849476e-03 8.482324e-03 8.005141e-03 8.322425e-03 8.191377e-03 8.139247e-03 8.389127e-03 7.954905e-03 8.575753e-03 7.796181e-03 8.727459e-03 7.691068e-03 8.822054e-03 7.666281e-03 8.843832e-03 7.744780e-03 8.789800e-03 7.943841e-03 8.675080e-03 8.267691e-03 8.532874e-03 8.694662e-03 8.413700e-03 9.155057e-03 8.382464e-03 9.504351e-03 8.488069e-03 9.502845e-03 8.814966e-03 8.745512e-03 8.527129e-03 8.369652e-03 
8.529894e-03 8.440109e-03 8.818376e-03 9.062637e-03 9.181157e-03 9.615308e-03 8.993293e-03 8.675987e-03 9.054615e-03 8.599145e-03 8.903403e-03 9.094602e-03 7.054147e-03 6.643105e-03 6.945162e-03 6.705429e-03 6.811131e-03 6.825826e-03 6.682330e-03 6.955634e-03 6.610176e-03 7.051714e-03 7.566052e-03 7.579677e-03 7.129746e-03 8.037274e-03 7.185744e-03 8.384230e-03 7.329121e-03 8.530953e-03 7.477263e-03 8.533636e-03 7.620958e-03 8.453903e-03 7.759773e-03 8.338013e-03 7.891159e-03 8.217916e-03 8.011143e-03 8.114865e-03 8.116506e-03 8.042911e-03 8.207923e-03 8.013707e-03 8.294777e-03 8.043385e-03 8.401880e-03 8.161830e-03 8.577998e-03 8.422317e-03 8.900575e-03 8.899094e-03 9.455686e-03 9.642283e-03 1.026527e-02 1.059329e-02 1.121441e-02 1.128501e-02 1.108704e-02 1.093195e-02 1.161716e-02 1.039136e-02 1.051682e-02 1.031001e-02 1.049604e-02 1.094518e-02 1.049794e-02 9.801594e-03 1.011615e-02 9.982350e-03 1.072679e-02 1.075978e-02 1.112482e-02 1.004471e-02 1.010026e-02 9.243909e-03 9.329784e-03 8.737591e-03 8.813149e-03 8.471459e-03 8.476504e-03 8.368544e-03 8.249629e-03 8.360652e-03 8.088022e-03 8.399433e-03 7.971129e-03 8.452451e-03 7.892930e-03 8.496622e-03 7.853407e-03 8.514791e-03 7.854075e-03 8.495929e-03 7.896183e-03 8.436042e-03 7.979047e-03 8.337882e-03 8.098058e-03 8.209888e-03 8.243456e-03 8.065100e-03 8.400563e-03 7.920282e-03 8.551582e-03 7.795116e-03 8.678489e-03 7.710875e-03 8.766489e-03 7.688448e-03 8.807915e-03 7.745952e-03 8.806326e-03 7.895444e-03 8.778862e-03 8.136643e-03 8.752500e-03 8.445059e-03 8.748232e-03 8.757569e-03 8.755485e-03 8.989190e-03 8.729287e-03 9.110615e-03 8.696962e-03 8.555118e-03 8.510245e-03 8.250926e-03 
8.441224e-03 8.490384e-03 8.672306e-03 8.998890e-03 9.010708e-03 9.484491e-03 8.731215e-03 8.405691e-03 8.557700e-03 8.352012e-03 8.354095e-03 8.958216e-03 7.070044e-03 6.282922e-03 6.522039e-03 6.314932e-03 6.415957e-03 6.395195e-03 6.327709e-03 6.494977e-03 6.287687e-03 6.661549e-03 7.481786e-03 7.428578e-03 7.123324e-03 7.908399e-03 7.126257e-03 8.257860e-03 7.225616e-03 8.423902e-03 7.366184e-03 8.459529e-03 7.527113e-03 8.416056e-03 7.693615e-03 8.333833e-03 7.854569e-03 8.245788e-03 8.003605e-03 8.177486e-03 8.137696e-03 8.146539e-03 8.257319e-03 8.164932e-03 8.370626e-03 8.246768e-03 8.500770e-03 8.415673e-03 8.689317e-03 8.707719e-03 8.992865e-03 9.161421e-03 9.458444e-03 9.781817e-03 1.007445e-02 1.048488e-02 1.071841e-02 1.106972e-02 1.121417e-02 1.137375e-02 1.156510e-02 1.131825e-02 1.121910e-02 1.120439e-02 1.118935e-02 1.129257e-02 1.104708e-02 1.068537e-02 1.051825e-02 1.026777e-02 1.048523e-02 1.024132e-02 1.042537e-02 9.849046e-03 9.959541e-03 9.413032e-03 9.466353e-03 9.066782e-03 9.033999e-03 8.843055e-03 8.678725e-03 8.727998e-03 8.389018e-03 8.690095e-03 8.153101e-03 8.697893e-03 7.968039e-03 8.725949e-03 7.837693e-03 8.752032e-03 7.764979e-03 8.754706e-03 7.749858e-03 8.716950e-03 7.789961e-03 8.629871e-03 7.882363e-03 8.497035e-03 8.023144e-03 8.330788e-03 8.200762e-03 8.147078e-03 8.395180e-03 7.965232e-03 8.580600e-03 7.808115e-03 8.730708e-03 7.702666e-03 8.823469e-03 7.676503e-03 8.844322e-03 7.753886e-03 8.790264e-03 7.951021e-03 8.674651e-03 8.272005e-03 8.531718e-03 8.696476e-03 8.411877e-03 9.154240e-03 8.380334e-03 9.502249e-03 8.486924e-03 9.500191e-03 8.814418e-03 8.743253e-03 8.526851e-03 8.368206e-03 
8.108985e-03 7.647494e-03 8.762349e-03 9.294347e-03 1.042390e-02 1.249658e-02 8.559748e-03 6.772303e-03 9.009353e-03 6.274559e-03 8.595409e-03 7.103677e-03 8.645555e-03 6.383712e-03 6.956879e-03 6.546372e-03 6.756021e-03 6.762428e-03 6.525367e-03 6.978725e-03 6.333035e-03 7.443627e-03 7.146745e-03 8.503574e-03 7.316181e-03 8.894173e-03 7.377285e-03 8.961733e-03 7.433630e-03 8.883943e-03 7.540224e-03 8.746137e-03 7.686285e-03 8.587405e-03 7.850095e-03 8.430713e-03 8.015112e-03 8.297826e-03 8.174345e-03 8.208067e-03 8.325916e-03 8.174445e-03 8.469777e-03 8.202998e-03 8.610278e-03 8.300289e-03 8.763909e-03 8.478286e-03 8.958780e-03 8.753353e-03 9.228821e-03 9.135031e-03 9.589360e-03 9.596678e-03 1.000689e-02 1.005532e-02 1.038484e-02 1.037383e-02 1.057981e-02 1.045475e-02 1.067668e-02 1.048727e-02 1.068125e-02 1.048894e-02 1.067545e-02 1.044076e-02 1.066811e-02 1.034543e-02 1.066643e-02 1.026608e-02 1.063514e-02 1.010937e-02 1.048724e-02 9.820093e-03 1.015117e-02 9.472955e-03 9.746877e-03 9.162541e-03 9.349375e-03 8.934076e-03 8.990003e-03 8.791962e-03 8.674895e-03 8.718984e-03 8.404763e-03 8.692661e-03 8.184655e-03 8.693952e-03 8.023573e-03 8.704186e-03 7.925312e-03 8.701130e-03 7.888571e-03 8.664607e-03 7.908785e-03 8.581488e-03 7.982153e-03 8.454503e-03 8.107215e-03 8.295411e-03 8.273850e-03 8.116433e-03 8.462081e-03 7.932074e-03 8.645112e-03 7.760853e-03 8.795937e-03 7.628082e-03 8.892845e-03 7.560711e-03 8.920741e-03 7.581604e-03 8.873899e-03 7.703181e-03 8.761928e-03 7.927814e-03 8.621149e-03 8.243763e-03 8.512362e-03 8.599454e-03 8.499790e-03 8.825402e-03 8.391398e-03 1.050282e-02 9.351641e-03 8.267356e-03 8.300302e-03 7.410201e-03 
7.373188e-03 7.061865e-03 9.036957e-03 9.866077e-03 1.234228e-02 1.028739e-02 1.346531e-02 4.088267e-03 6.446470e-03 3.691450e-03 6.019509e-03 5.856727e-03 6.843074e-03 5.837693e-03 6.381700e-03 6.000787e-03 6.215394e-03 6.194524e-03 6.012019e-03 6.371793e-03 5.814681e-03 6.805026e-03 5.741652e-03 6.885209e-03 5.091818e-03 6.972947e-03 4.971618e-03 6.867288e-03 5.037923e-03 6.724871e-03 5.219839e-03 6.566705e-03 5.452642e-03 6.397567e-03 5.683364e-03 6.221843e-03 5.885233e-03 6.071808e-03 6.062907e-03 5.982665e-03 6.224994e-03 5.973249e-03 6.368370e-03 6.034834e-03 6.483009e-03 6.161023e-03 6.585472e-03 6.357901e-03 6.708537e-03 6.643628e-03 6.907802e-03 7.038547e-03 7.204155e-03 7.498415e-03 7.556646e-03 7.949118e-03 7.914199e-03 8.320251e-03 8.220105e-03 8.551559e-03 8.417666e-03 8.693254e-03 8.577021e-03 8.710577e-03 8.636086e-03 8.577778e-03 8.601128e-03 8.405115e-03 8.523022e-03 8.151084e-03 8.377170e-03 7.835052e-03 8.163446e-03 7.534007e-03 7.886007e-03 7.244031e-03 7.545373e-03 6.999889e-03 7.181144e-03 6.840125e-03 6.826360e-03 6.765008e-03 6.483779e-03 6.746098e-03 6.156480e-03 6.756360e-03 5.867587e-03 6.791461e-03 5.658768e-03 6.843043e-03 5.541958e-03 6.873664e-03 5.512082e-03 6.845253e-03 5.552740e-03 6.722753e-03 5.655872e-03 6.523416e-03 5.843280e-03 6.282319e-03 6.105638e-03 6.013943e-03 6.408509e-03 5.732922e-03 6.700296e-03 5.457215e-03 6.932016e-03 5.230162e-03 7.068912e-03 5.100332e-03 7.079389e-03 5.110006e-03 6.930988e-03 5.270722e-03 6.587108e-03 5.582892e-03 6.037124e-03 6.046185e-03 5.254840e-03 6.651685e-03 4.240750e-03 7.364779e-03 4.691877e-03 1.004712e-02 1.258337e-02 8.234472e-03 8.406768e-03 6.618905e-03 
4.603025e-03 2.408625e-03 7.059561e-03 4.787776e-03 4.373172e-03 1.485734e-02 1.378533e-02 1.800790e-03 2.219144e-03 1.988104e-03 2.754487e-03 3.143890e-03 6.342188e-03 4.255356e-03 5.665668e-03 4.849198e-03 5.276376e-03 5.259020e-03 4.818220e-03 5.918157e-03 4.029223e-03 7.037426e-03 3.052587e-03 4.146095e-03 1.739916e-03 2.804132e-03 1.244808e-03 2.013286e-03 1.186883e-03 1.576455e-03 1.364428e-03 1.324164e-03 1.598651e-03 1.127389e-03 1.794144e-03 9.407450e-04 1.903679e-03 8.009978e-04 1.947308e-03 7.301016e-04 1.963872e-03 7.439313e-04 1.964595e-03 8.593300e-04 1.929050e-03 1.072950e-03 1.870217e-03 1.344147e-03 1.821980e-03 1.657073e-03 1.846847e-03 2.030984e-03 1.943741e-03 2.415262e-03 2.079120e-03 2.747082e-03 2.257066e-03 3.002935e-03 2.478491e-03 3.199280e-03 2.748416e-03 3.243998e-03 2.862297e-03 3.257189e-03 3.050816e-03 3.290726e-03 3.192680e-03 3.057673e-03 3.247703e-03 2.826372e-03 3.320697e-03 2.662054e-03 3.239861e-03 2.347471e-03 2.988014e-03 2.039255e-03 2.677141e-03 1.816669e-03 2.359277e-03 1.710223e-03 2.056790e-03 1.704524e-03 1.750753e-03 1.744087e-03 1.440915e-03 1.768863e-03 1.169986e-03 1.766606e-03 9.841922e-04 1.770707e-03 8.809668e-04 1.758320e-03 9.005431e-04 1.685763e-03 1.078064e-03 1.516567e-03 1.348288e-03 1.329076e-03 1.660015e-03 1.196749e-03 2.004833e-03 1.102135e-03 2.344081e-03 9.792417e-04 2.616416e-03 7.964535e-04 2.749643e-03 5.554328e-04 2.713343e-03 2.591339e-04 2.501845e-03 4.248116e-04 2.137644e-03 1.098018e-03 1.745873e-03 1.923014e-03 1.787358e-03 2.867098e-03 2.614193e-03 3.793842e-03 3.915995e-03 4.578557e-03 6.512228e-03 1.733805e-02 1.012140e-02 8.005838e-03 6.620790e-03 2.973577e-03 
1.593396e-03 2.858420e-03 1.293900e-03 7.539922e-03 1.351619e-02 1.473166e-02 9.005953e-03 2.446278e-03 3.876054e-03 2.259899e-03 4.773462e-03 3.452582e-03 7.048204e-03 2.151573e-03 5.682685e-03 1.415060e-03 4.737424e-03 1.555842e-03 4.090249e-03 2.527445e-03 3.500952e-03 4.243402e-03 2.555019e-03 2.570181e-03 1.386213e-03 2.052833e-03 1.227345e-03 1.851106e-03 1.183180e-03 1.793105e-03 1.129840e-03 1.735046e-03 1.032038e-03 1.600560e-03 9.046082e-04 1.400124e-03 6.933534e-04 1.188560e-03 4.118148e-04 9.902943e-04 2.298031e-04 8.154978e-04 3.920048e-04 6.942285e-04 6.023786e-04 6.588878e-04 7.871957e-04 6.663874e-04 9.566918e-04 6.421648e-04 1.124915e-03 6.370082e-04 1.219150e-03 6.789735e-04 1.243169e-03 6.938429e-04 1.225375e-03 6.442688e-04 1.143530e-03 5.703682e-04 1.012937e-03 6.479526e-04 1.098623e-03 7.827318e-04 1.110158e-03 7.997796e-04 1.167267e-03 9.481162e-04 1.290751e-03 1.016466e-03 1.235429e-03 8.539208e-04 1.117063e-03 8.200509e-04 1.035536e-03 8.390072e-04 9.810054e-04 8.726213e-04 9.618568e-04 9.173731e-04 9.449251e-04 9.887437e-04 8.677184e-04 1.055663e-03 7.300705e-04 1.055514e-03 5.904147e-04 9.728693e-04 4.484156e-04 9.316452e-04 2.338597e-04 9.874617e-04 1.963434e-04 1.099035e-03 5.831472e-04 1.218070e-03 9.167674e-04 1.387085e-03 1.097528e-03 1.541098e-03 1.171273e-03 1.579123e-03 1.138217e-03 1.424027e-03 1.007787e-03 1.071507e-03 7.660857e-04 5.910182e-04 6.502457e-04 4.080719e-04 1.054539e-03 1.063604e-03 1.735608e-03 1.914943e-03 2.463081e-03 2.727308e-03 3.095641e-03 3.427862e-03 3.358211e-03 3.674761e-03 2.827515e-03 1.878543e-03 3.397432e-03 2.745203e-02 3.538718e-03 8.240972e-03 4.026946e-03 2.868311e-03 
3.429731e-03 1.521876e-03 4.800509e-03 2.457765e-03 1.405177e-02 1.664048e-03 1.666445e-02 6.877900e-03 3.891868e-03 4.087794e-03 3.401558e-03 6.505288e-03 5.218316e-03 3.362005e-03 5.341824e-03 3.471304e-03 5.247102e-03 4.333665e-03 4.495473e-03 5.590940e-03 4.281757e-03 6.050486e-03 4.563953e-03 3.987900e-03 2.018898e-03 3.473887e-03 9.658707e-04 3.078990e-03 4.643305e-04 2.728088e-03 5.857643e-04 2.391233e-03 9.033596e-04 2.057960e-03 1.194104e-03 1.734154e-03 1.421499e-03 1.466190e-03 1.602968e-03 1.297384e-03 1.754324e-03 1.248021e-03 1.862734e-03 1.299585e-03 1.902900e-03 1.421966e-03 1.889820e-03 1.594026e-03 1.863141e-03 1.819293e-03 1.901300e-03 2.144593e-03 2.050901e-03 2.562109e-03 2.329082e-03 3.065520e-03 2.790863e-03 3.694160e-03 3.478459e-03 4.477491e-03 4.345406e-03 4.535414e-03 4.187829e-03 4.536973e-03 4.314705e-03 4.857356e-03 4.357277e-03 3.921042e-03 3.820263e-03 3.339637e-03 3.878710e-03 3.494031e-03 3.933137e-03 3.077553e-03 3.478800e-03 2.591976e-03 2.970322e-03 2.254801e-03 2.514276e-03 2.107400e-03 2.120723e-03 2.111721e-03 1.752413e-03 2.194970e-03 1.392743e-03 2.295833e-03 1.070945e-03 2.400390e-03 8.381883e-04 2.506769e-03 7.144402e-04 2.569793e-03 7.425689e-04 2.539958e-03 9.266989e-04 2.375187e-03 1.191728e-03 2.117670e-03 1.512195e-03 1.818323e-03 1.886405e-03 1.482718e-03 2.283167e-03 1.102033e-03 2.643844e-03 6.766669e-04 2.907865e-03 2.643663e-04 3.048423e-03 3.572396e-04 3.056768e-03 8.620561e-04 2.936691e-03 1.461870e-03 2.726141e-03 2.118964e-03 2.552547e-03 2.838137e-03 2.509958e-03 3.561636e-03 2.530008e-03 4.255307e-03 8.450857e-03 1.106617e-02 8.743324e-03 4.090089e-03 4.550637e-03 1.931223e-03 
2.384570e-03 5.910362e-04 3.008912e-03 2.185827e-03 5.335712e-03 8.636623e-03 6.065784e-03 2.095547e-03 1.958663e-03 7.414944e-04 3.656720e-03 1.149555e-03 7.093100e-03 2.711708e-03 5.826172e-03 1.521881e-03 5.173106e-03 1.353344e-03 4.538086e-03 2.504669e-03 4.676482e-03 4.360833e-03 1.850438e-03 1.679344e-03 1.368119e-03 6.117792e-04 9.607150e-04 1.298422e-04 6.332894e-04 1.579316e-04 3.836404e-04 1.949089e-04 3.283449e-04 1.869729e-04 4.657292e-04 2.101491e-04 6.206491e-04 2.575681e-04 7.411001e-04 2.698645e-04 8.191702e-04 2.238718e-04 8.483401e-04 1.634264e-04 8.254488e-04 2.267577e-04 7.711534e-04 4.308846e-04 7.282608e-04 7.291294e-04 7.747398e-04 1.140612e-03 9.986594e-04 1.670967e-03 1.436827e-03 2.285829e-03 2.014454e-03 2.801582e-03 2.531144e-03 3.281336e-03 2.858210e-03 2.762339e-03 2.439002e-03 2.762544e-03 2.703692e-03 3.595855e-03 3.395163e-03 3.152591e-03 2.991139e-03 2.370512e-03 3.130102e-03 2.616112e-03 3.086731e-03 2.077519e-03 2.572379e-03 1.565445e-03 2.044071e-03 1.146557e-03 1.554625e-03 8.895486e-04 1.131016e-03 8.079422e-04 7.634716e-04 8.529600e-04 4.522304e-04 9.486299e-04 2.350121e-04 1.047953e-03 1.675760e-04 1.121811e-03 1.601813e-04 1.133071e-03 1.310187e-04 1.051291e-03 1.953737e-04 8.635769e-04 3.953750e-04 6.127226e-04 6.867701e-04 4.133472e-04 1.044963e-03 4.608343e-04 1.421489e-03 6.858262e-04 1.750432e-03 9.005240e-04 1.966777e-03 1.007480e-03 2.021857e-03 9.488129e-04 1.887165e-03 7.284899e-04 1.571637e-03 6.383610e-04 1.180250e-03 1.211834e-03 1.055347e-03 2.212861e-03 1.401122e-03 3.359570e-03 1.764781e-03 4.290955e-03 2.974164e-03 3.264077e-03 3.609272e-03 1.149004e-03 2.575348e-03 2.520615e-04 
