# vtk DataFile Version 2.0
Comment goes here
ASCII

DATASET STRUCTURED_POINTS
FIELD FieldData 1
TIME 1 1 double
0.61000000
DIMENSIONS    128   16   1

ORIGIN    0.000   0.000   0.000
SPACING   0.0078125 0.015625   1.000

POINT_DATA   2048
SCALARS uMag double
LOOKUP_TABLE default

6.326724e-03 1.860677e-03 5.649044e-03 1.129415e-03 4.420871e-03 5.981259e-03 8.029370e-03 1.791941e-03 3.296476e-03 3.005678e-03 2.090656e-03 8.025924e-03 1.332342e-02 2.365190e-02 3.012554e-02 3.023933e-02 3.524809e-02 3.218449e-02 3.320923e-02 2.821197e-02 2.516092e-02 1.119023e-02 8.970552e-03 1.665818e-03 2.893514e-03 1.874433e-03 3.098474e-04 3.186027e-03 8.537981e-04 3.539385e-03 1.439066e-03 3.488106e-03 1.793036e-03 3.271916e-03 2.045340e-03 3.003616e-03 2.242476e-03 2.747661e-03 2.398151e-03 2.537102e-03 2.505062e-03 2.378965e-03 2.551812e-03 2.273154e-03 2.543828e-03 2.224815e-03 2.503162e-03 2.236558e-03 2.456520e-03 2.310146e-03 2.445962e-03 2.473858e-03 2.554411e-03 2.809511e-03 2.928897e-03 3.511302e-03 3.841327e-03 4.718850e-03 4.120945e-03 4.132482e-03 4.526368e-03 4.349936e-03 4.447358e-03 4.498874e-03 3.897496e-03 4.550044e-03 3.493438e-03 3.598907e-03 2.924253e-03 2.899146e-03 2.760679e-03 3.504877e-03 3.992957e-03 3.489307e-03 2.934510e-03 2.668619e-03 2.295802e-03 2.393661e-03 1.948032e-03 2.335672e-03 1.704219e-03 2.367260e-03 1.516682e-03 2.424648e-03 1.383620e-03 2.467426e-03 1.314165e-03 2.461355e-03 1.315375e-03 2.380724e-03 1.394335e-03 2.217648e-03 1.557570e-03 1.982123e-03 1.801253e-03 1.693188e-03 2.100775e-03 1.373723e-03 2.411828e-03 1.054875e-03 2.682547e-03 7.839475e-04 2.867392e-03 6.230374e-04 2.928474e-03 6.296124e-04 2.824609e-03 8.352201e-04 2.516512e-03 1.249661e-03 1.996673e-03 1.875651e-03 1.308781e-03 2.697239e-03 5.452850e-04 3.657010e-03 1.328829e-04 4.649752e-03 4.192231e-04 5.493648e-03 2.774375e-04 5.763021e-03 3.284861e-03 7.646415e-04 4.757737e-03 2.231180e-03 6.045125e-03 2.882348e-03 
3.471359e-03 7.356746e-04 3.864814e-03 3.334813e-03 4.863881e-03 1.045024e-02 7.745136e-03 5.082593e-03 1.981794e-03 5.408633e-03 5.492155e-03 1.123951e-02 1.734922e-02 1.681760e-02 7.949202e-03 5.251934e-03 4.103237e-03 2.387692e-03 5.314421e-03 8.041164e-03 1.752598e-02 1.668510e-02 9.868903e-03 6.188661e-03 3.839667e-03 2.601098e-03 1.565166e-03 1.476307e-03 5.397679e-04 1.308983e-03 8.480572e-05 1.248541e-03 3.209346e-04 1.107616e-03 5.356617e-04 9.165826e-04 7.069250e-04 7.332828e-04 8.582928e-04 5.826632e-04 9.684301e-04 4.616444e-04 1.008454e-03 3.797812e-04 9.921326e-04 3.578879e-04 9.574681e-04 4.099486e-04 9.503951e-04 5.675709e-04 1.055312e-03 9.382840e-04 1.481534e-03 1.774745e-03 2.612296e-03 3.442673e-03 4.193679e-03 3.576934e-03 2.636249e-03 1.355081e-03 8.566962e-04 9.306897e-04 2.678004e-03 2.979439e-03 6.446992e-04 7.027269e-04 2.166652e-03 2.691229e-03 3.131472e-03 2.937070e-03 1.948182e-03 2.353543e-03 1.216668e-03 2.549317e-03 2.198802e-03 1.605720e-03 1.097249e-03 9.593244e-04 5.781986e-04 6.892762e-04 2.892716e-04 6.085792e-04 1.559743e-04 6.295993e-04 1.794092e-04 6.783931e-04 2.217931e-04 6.879724e-04 2.319536e-04 6.222748e-04 2.112644e-04 4.890343e-04 2.347007e-04 3.245774e-04 3.977264e-04 2.788848e-04 6.601089e-04 4.699048e-04 9.487250e-04 7.416761e-04 1.207230e-03 9.864199e-04 1.392223e-03 1.136206e-03 1.468936e-03 1.134436e-03 1.407766e-03 9.745517e-04 1.177418e-03 7.351153e-04 8.520773e-04 7.054474e-04 8.199350e-04 1.251718e-03 1.288545e-03 2.162666e-03 1.881602e-03 3.210548e-03 2.268099e-03 4.292532e-03 1.964967e-03 5.448612e-03 4.997843e-03 3.809244e-03 3.726664e-03 1.301555e-03 3.605869e-03 5.911907e-04 
8.575934e-03 6.180048e-03 8.635078e-03 4.850087e-03 1.341000e-02 1.613367e-02 1.589960e-02 1.213375e-02 2.867123e-03 8.481148e-03 2.939348e-03 1.067098e-02 9.849102e-03 1.283395e-02 1.601519e-02 1.533148e-02 1.721442e-02 1.686161e-02 1.572450e-02 1.586305e-02 1.367688e-02 9.529955e-03 5.904897e-03 3.116270e-03 4.060529e-03 1.465954e-03 4.896901e-03 2.206104e-03 5.445946e-03 2.830402e-03 5.643267e-03 3.280664e-03 5.651609e-03 3.687578e-03 5.577146e-03 4.069000e-03 5.431459e-03 4.374829e-03 5.238115e-03 4.599438e-03 5.073564e-03 4.798400e-03 5.005949e-03 4.991376e-03 5.027922e-03 5.152315e-03 5.122196e-03 5.295422e-03 5.313409e-03 5.505612e-03 5.696700e-03 5.946666e-03 6.438223e-03 6.887240e-03 7.874555e-03 8.646556e-03 9.909859e-03 1.049787e-02 1.174606e-02 9.178502e-03 9.843156e-03 1.012350e-02 1.129838e-02 1.113062e-02 1.004794e-02 9.512092e-03 9.777577e-03 1.074809e-02 9.149876e-03 9.248485e-03 9.404513e-03 8.776818e-03 9.298946e-03 8.660433e-03 7.808228e-03 7.126669e-03 6.852842e-03 6.275601e-03 6.430539e-03 5.712124e-03 6.270963e-03 5.322339e-03 6.253667e-03 5.034941e-03 6.273598e-03 4.823343e-03 6.282821e-03 4.717906e-03 6.275429e-03 4.740056e-03 6.212828e-03 4.870093e-03 6.062619e-03 5.098647e-03 5.823069e-03 5.400122e-03 5.502683e-03 5.749266e-03 5.150661e-03 6.124794e-03 4.803240e-03 6.470997e-03 4.506302e-03 6.734248e-03 4.313175e-03 6.847893e-03 4.285134e-03 6.801469e-03 4.514435e-03 6.630413e-03 5.046264e-03 6.293416e-03 5.822153e-03 5.712864e-03 6.744631e-03 4.931104e-03 7.822632e-03 4.042187e-03 9.089321e-03 3.303379e-03 1.043708e-02 5.343208e-03 1.974234e-02 9.036137e-03 9.484936e-03 4.549991e-03 8.649044e-03 6.509451e-03 
6.486016e-03 8.699454e-03 1.120653e-02 1.530639e-02 3.032168e-02 3.137645e-03 2.042737e-02 1.348743e-02 1.314116e-02 1.451187e-02 1.072521e-02 1.507068e-02 8.313373e-03 1.586098e-02 1.013549e-02 1.641669e-02 1.124514e-02 1.624094e-02 1.163548e-02 1.460636e-02 1.144853e-02 1.106692e-02 1.238853e-02 1.170053e-02 1.269518e-02 1.200839e-02 1.320057e-02 1.218050e-02 1.358453e-02 1.225085e-02 1.382615e-02 1.228432e-02 1.396362e-02 1.233037e-02 1.401635e-02 1.240400e-02 1.398658e-02 1.249267e-02 1.389749e-02 1.259117e-02 1.378888e-02 1.271871e-02 1.369316e-02 1.288271e-02 1.362262e-02 1.306758e-02 1.359705e-02 1.327693e-02 1.365674e-02 1.355403e-02 1.387321e-02 1.398385e-02 1.434689e-02 1.471086e-02 1.526682e-02 1.595225e-02 1.635864e-02 1.684740e-02 1.677684e-02 1.446712e-02 1.508976e-02 1.542286e-02 1.624032e-02 1.694010e-02 1.487530e-02 1.544090e-02 1.442706e-02 1.800329e-02 1.638961e-02 1.797036e-02 1.577917e-02 1.549817e-02 1.507209e-02 1.466856e-02 1.434036e-02 1.402597e-02 1.400035e-02 1.365735e-02 1.384433e-02 1.341183e-02 1.378024e-02 1.324249e-02 1.376731e-02 1.311058e-02 1.376873e-02 1.300196e-02 1.377086e-02 1.292388e-02 1.378137e-02 1.288222e-02 1.379061e-02 1.287438e-02 1.378434e-02 1.290256e-02 1.375309e-02 1.296502e-02 1.368844e-02 1.305632e-02 1.359331e-02 1.318066e-02 1.346018e-02 1.333232e-02 1.329169e-02 1.350833e-02 1.309710e-02 1.370076e-02 1.289808e-02 1.392312e-02 1.272651e-02 1.420286e-02 1.261512e-02 1.450386e-02 1.258392e-02 1.477114e-02 1.261256e-02 1.502251e-02 1.271235e-02 1.523486e-02 1.302016e-02 1.520604e-02 1.384153e-02 1.453049e-02 2.004335e-02 3.777785e-02 2.311634e-02 6.924391e-03 6.765296e-03 6.938392e-03 
1.748797e-02 2.171341e-02 2.020049e-02 2.910087e-02 3.386920e-02 4.297079e-02 1.883653e-02 2.424321e-02 1.532001e-02 2.019143e-02 1.377713e-02 1.705481e-02 7.534762e-03 1.135908e-02 9.790015e-03 1.086150e-02 1.064865e-02 1.046201e-02 1.109147e-02 9.775573e-03 1.134197e-02 8.355823e-03 1.641509e-02 1.388923e-02 1.848315e-02 1.655568e-02 1.947822e-02 1.799228e-02 1.988688e-02 1.882642e-02 1.997722e-02 1.937201e-02 1.993475e-02 1.980389e-02 1.986170e-02 2.015781e-02 1.976373e-02 2.040488e-02 1.965305e-02 2.055469e-02 1.959396e-02 2.067130e-02 1.964490e-02 2.078826e-02 1.979372e-02 2.090216e-02 2.002664e-02 2.105368e-02 2.038273e-02 2.135824e-02 2.098284e-02 2.200813e-02 2.201493e-02 2.327941e-02 2.385112e-02 2.563669e-02 2.646682e-02 2.799786e-02 2.686981e-02 2.380251e-02 2.409987e-02 2.544125e-02 2.731486e-02 2.706788e-02 2.547161e-02 2.374704e-02 2.443600e-02 2.792317e-02 2.735804e-02 2.814030e-02 2.576139e-02 2.460385e-02 2.497430e-02 2.372684e-02 2.286420e-02 2.239817e-02 2.177655e-02 2.165679e-02 2.121526e-02 2.115971e-02 2.094429e-02 2.082336e-02 2.083996e-02 2.058061e-02 2.079377e-02 2.040261e-02 2.075610e-02 2.031643e-02 2.071874e-02 2.033980e-02 2.064362e-02 2.044962e-02 2.050055e-02 2.063664e-02 2.029080e-02 2.087773e-02 2.002427e-02 2.115080e-02 1.974943e-02 2.143436e-02 1.950189e-02 2.167374e-02 1.932156e-02 2.181782e-02 1.924773e-02 2.180322e-02 1.932326e-02 2.161755e-02 1.963396e-02 2.129959e-02 2.022970e-02 2.083410e-02 2.107203e-02 2.018288e-02 2.211258e-02 1.944057e-02 2.340610e-02 1.881112e-02 2.499750e-02 1.852572e-02 2.665020e-02 1.928464e-02 2.813071e-02 5.128889e-02 2.577003e-02 2.300422e-02 1.742678e-02 2.035455e-02 
1.835948e-02 1.983516e-02 1.986084e-02 2.242642e-02 2.577491e-02 3.564263e-02 3.600142e-02 3.504174e-02 3.032007e-02 3.342206e-02 2.864981e-02 3.206276e-02 2.503212e-02 2.505421e-02 2.457556e-02 2.493113e-02 2.477658e-02 2.476299e-02 2.495364e-02 2.460111e-02 2.504635e-02 2.519945e-02 2.987374e-02 2.797155e-02 3.109240e-02 2.956905e-02 3.213141e-02 3.051335e-02 3.272653e-02 3.105673e-02 3.299034e-02 3.140590e-02 3.306637e-02 3.169516e-02 3.305152e-02 3.195449e-02 3.296910e-02 3.216285e-02 3.284033e-02 3.232612e-02 3.272354e-02 3.248565e-02 3.267508e-02 3.265604e-02 3.269825e-02 3.282618e-02 3.279412e-02 3.301952e-02 3.300452e-02 3.331833e-02 3.342798e-02 3.385701e-02 3.418819e-02 3.478405e-02 3.539816e-02 3.599129e-02 3.627151e-02 3.655932e-02 3.784861e-02 3.765966e-02 3.849705e-02 3.780729e-02 3.717385e-02 3.747647e-02 3.826896e-02 3.866143e-02 3.817448e-02 3.864776e-02 3.588491e-02 3.804882e-02 3.752274e-02 3.782801e-02 3.769757e-02 3.642600e-02 3.585132e-02 3.505772e-02 3.478065e-02 3.417701e-02 3.416158e-02 3.356163e-02 3.382853e-02 3.313195e-02 3.366862e-02 3.281855e-02 3.358457e-02 3.258646e-02 3.352858e-02 3.244734e-02 3.348594e-02 3.240978e-02 3.342110e-02 3.245446e-02 3.330429e-02 3.257483e-02 3.312984e-02 3.275660e-02 3.289992e-02 3.298845e-02 3.264693e-02 3.325700e-02 3.239607e-02 3.352236e-02 3.217347e-02 3.374446e-02 3.200477e-02 3.387259e-02 3.191796e-02 3.389256e-02 3.197979e-02 3.382427e-02 3.223345e-02 3.365264e-02 3.265662e-02 3.334638e-02 3.323331e-02 3.296201e-02 3.403434e-02 3.263891e-02 3.513437e-02 3.250586e-02 3.659010e-02 3.275050e-02 4.009575e-02 3.417021e-02 2.186220e-02 2.236571e-02 1.885521e-02 1.980739e-02 
2.450801e-02 2.598724e-02 2.512996e-02 2.698660e-02 2.700795e-02 2.951728e-02 3.387146e-02 3.530238e-02 3.282215e-02 3.616463e-02 3.350217e-02 3.799545e-02 3.670886e-02 3.531414e-02 3.478048e-02 3.516877e-02 3.501265e-02 3.497178e-02 3.521925e-02 3.477916e-02 3.533140e-02 3.603575e-02 3.628615e-02 3.382875e-02 3.490771e-02 3.324508e-02 3.462160e-02 3.310735e-02 3.457069e-02 3.314125e-02 3.456265e-02 3.325195e-02 3.454022e-02 3.340566e-02 3.449470e-02 3.357994e-02 3.442716e-02 3.375558e-02 3.434803e-02 3.392548e-02 3.427889e-02 3.409380e-02 3.424153e-02 3.426284e-02 3.424633e-02 3.443130e-02 3.429926e-02 3.460288e-02 3.440669e-02 3.478288e-02 3.456222e-02 3.494747e-02 3.469464e-02 3.495279e-02 3.454094e-02 3.445988e-02 3.411948e-02 3.374772e-02 3.307188e-02 3.494437e-02 3.433094e-02 3.413256e-02 3.321922e-02 3.379237e-02 3.341999e-02 3.496783e-02 3.371592e-02 3.281119e-02 3.342465e-02 3.355819e-02 3.390054e-02 3.531813e-02 3.438996e-02 3.559355e-02 3.505594e-02 3.546022e-02 3.507904e-02 3.517603e-02 3.499148e-02 3.489410e-02 3.490444e-02 3.465031e-02 3.484306e-02 3.445358e-02 3.480048e-02 3.430784e-02 3.476447e-02 3.421974e-02 3.472424e-02 3.419260e-02 3.466543e-02 3.422259e-02 3.457616e-02 3.430437e-02 3.445274e-02 3.442939e-02 3.429943e-02 3.458684e-02 3.413037e-02 3.476203e-02 3.396223e-02 3.493270e-02 3.381311e-02 3.507401e-02 3.370168e-02 3.516136e-02 3.364727e-02 3.518018e-02 3.367134e-02 3.512461e-02 3.378177e-02 3.498553e-02 3.396112e-02 3.475522e-02 3.417351e-02 3.444575e-02 3.436753e-02 3.408763e-02 3.445588e-02 3.372248e-02 3.436054e-02 3.342224e-02 3.453918e-02 2.962025e-02 2.755511e-02 2.705749e-02 2.526522e-02 2.593151e-02 
2.396418e-02 2.464454e-02 2.477051e-02 2.603849e-02 2.684005e-02 2.856429e-02 2.998652e-02 3.153986e-02 3.212969e-02 3.351036e-02 3.520453e-02 3.650768e-02 4.201474e-02 4.189170e-02 4.168461e-02 4.186258e-02 4.178205e-02 4.179215e-02 4.185756e-02 4.170576e-02 4.188451e-02 4.187167e-02 3.738907e-02 3.655291e-02 3.496410e-02 3.388772e-02 3.369209e-02 3.241480e-02 3.301273e-02 3.165456e-02 3.264204e-02 3.130225e-02 3.241756e-02 3.118223e-02 3.225850e-02 3.118988e-02 3.212619e-02 3.126058e-02 3.200767e-02 3.135843e-02 3.190690e-02 3.146636e-02 3.183213e-02 3.157276e-02 3.178455e-02 3.166556e-02 3.175782e-02 3.173261e-02 3.173691e-02 3.175432e-02 3.168522e-02 3.168130e-02 3.151514e-02 3.139653e-02 3.106171e-02 3.077884e-02 3.042073e-02 3.018052e-02 3.010090e-02 3.041727e-02 2.980801e-02 3.040429e-02 3.032143e-02 3.064022e-02 2.998139e-02 3.039771e-02 3.034677e-02 3.033914e-02 3.122476e-02 3.028925e-02 3.041792e-02 3.022165e-02 2.963461e-02 3.100247e-02 3.113839e-02 3.166154e-02 3.179896e-02 3.185884e-02 3.209813e-02 3.186276e-02 3.224165e-02 3.179162e-02 3.231877e-02 3.170485e-02 3.236098e-02 3.163346e-02 3.237607e-02 3.159724e-02 3.236332e-02 3.160715e-02 3.231678e-02 3.166508e-02 3.223114e-02 3.176773e-02 3.210690e-02 3.190732e-02 3.195195e-02 3.207267e-02 3.178227e-02 3.224807e-02 3.161678e-02 3.241104e-02 3.147472e-02 3.253546e-02 3.137438e-02 3.259569e-02 3.133293e-02 3.257323e-02 3.136458e-02 3.245532e-02 3.146784e-02 3.222681e-02 3.161517e-02 3.187111e-02 3.175380e-02 3.137755e-02 3.180292e-02 3.073643e-02 3.163228e-02 2.992349e-02 3.103498e-02 2.888228e-02 2.972063e-02 2.726243e-02 2.644002e-02 2.546818e-02 2.453328e-02 2.448183e-02 
2.687583e-02 2.774761e-02 2.734769e-02 2.865182e-02 2.894506e-02 3.048234e-02 3.171742e-02 3.325186e-02 3.377611e-02 3.521851e-02 3.669849e-02 3.768229e-02 4.332683e-02 4.369959e-02 4.342856e-02 4.364114e-02 4.355650e-02 4.353268e-02 4.367002e-02 4.341842e-02 4.372286e-02 4.333127e-02 3.910816e-02 3.848851e-02 3.706883e-02 3.599170e-02 3.587599e-02 3.461980e-02 3.521821e-02 3.394508e-02 3.486491e-02 3.366528e-02 3.466221e-02 3.359963e-02 3.452642e-02 3.364464e-02 3.441735e-02 3.374066e-02 3.431891e-02 3.385323e-02 3.422767e-02 3.396212e-02 3.414377e-02 3.405225e-02 3.406276e-02 3.410668e-02 3.397006e-02 3.410143e-02 3.383566e-02 3.399823e-02 3.360583e-02 3.373623e-02 3.319933e-02 3.323670e-02 3.252316e-02 3.243444e-02 3.156726e-02 3.184107e-02 3.211851e-02 3.327982e-02 3.280531e-02 3.312178e-02 3.204127e-02 3.263419e-02 3.278042e-02 3.363896e-02 3.323969e-02 3.289255e-02 3.201630e-02 3.214242e-02 3.230709e-02 3.282825e-02 3.241699e-02 3.329488e-02 3.319495e-02 3.379733e-02 3.372549e-02 3.405055e-02 3.405682e-02 3.415462e-02 3.426850e-02 3.418136e-02 3.440923e-02 3.417637e-02 3.450199e-02 3.416749e-02 3.455527e-02 3.417292e-02 3.457130e-02 3.420431e-02 3.454988e-02 3.426696e-02 3.449072e-02 3.436032e-02 3.439651e-02 3.447964e-02 3.427531e-02 3.461697e-02 3.414045e-02 3.476064e-02 3.400780e-02 3.489421e-02 3.389258e-02 3.499750e-02 3.380808e-02 3.505074e-02 3.376552e-02 3.503816e-02 3.377051e-02 3.494689e-02 3.381530e-02 3.476350e-02 3.387196e-02 3.447249e-02 3.388926e-02 3.405478e-02 3.379076e-02 3.348165e-02 3.347525e-02 3.269849e-02 3.281308e-02 3.156831e-02 3.159182e-02 2.975240e-02 2.914866e-02 2.838530e-02 2.749763e-02 2.767821e-02 
2.396492e-02 2.464641e-02 2.477073e-02 2.603992e-02 2.683958e-02 2.856582e-02 2.998557e-02 3.154129e-02 3.212873e-02 3.351134e-02 3.520391e-02 3.650848e-02 4.201450e-02 4.189180e-02 4.168477e-02 4.186239e-02 4.178190e-02 4.179166e-02 4.185705e-02 4.170483e-02 4.188359e-02 4.186942e-02 3.738553e-02 3.654603e-02 3.495591e-02 3.387984e-02 3.368415e-02 3.240799e-02 3.300562e-02 3.164638e-02 3.263259e-02 3.128723e-02 3.239980e-02 3.115422e-02 3.222878e-02 3.114796e-02 3.208576e-02 3.120629e-02 3.195585e-02 3.128842e-02 3.183566e-02 3.137003e-02 3.172672e-02 3.143433e-02 3.162458e-02 3.146232e-02 3.151390e-02 3.143316e-02 3.137270e-02 3.132531e-02 3.117036e-02 3.111293e-02 3.087330e-02 3.078291e-02 3.047785e-02 3.037748e-02 3.005546e-02 3.002242e-02 2.973315e-02 2.982675e-02 2.953881e-02 2.983772e-02 2.968126e-02 2.990493e-02 2.964149e-02 2.983348e-02 2.980426e-02 3.007712e-02 3.015730e-02 3.022269e-02 3.013355e-02 3.026285e-02 3.018866e-02 3.055364e-02 3.063102e-02 3.088218e-02 3.106809e-02 3.111787e-02 3.142816e-02 3.126096e-02 3.171069e-02 3.134008e-02 3.192926e-02 3.138471e-02 3.209065e-02 3.141725e-02 3.219564e-02 3.145668e-02 3.224514e-02 3.151960e-02 3.224116e-02 3.161527e-02 3.218370e-02 3.174208e-02 3.207485e-02 3.189413e-02 3.192675e-02 3.206450e-02 3.176046e-02 3.224284e-02 3.160064e-02 3.241043e-02 3.146628e-02 3.253775e-02 3.137095e-02 3.259665e-02 3.133114e-02 3.256993e-02 3.136198e-02 3.244645e-02 3.146322e-02 3.221368e-02 3.161063e-02 3.185941e-02 3.175441e-02 3.137252e-02 3.180924e-02 3.073702e-02 3.164047e-02 2.992707e-02 3.104185e-02 2.888666e-02 2.972424e-02 2.726732e-02 2.644224e-02 2.547201e-02 2.453459e-02 2.448450e-02 
2.450916e-02 2.599010e-02 2.513039e-02 2.698870e-02 2.700669e-02 2.952144e-02 3.386778e-02 3.530409e-02 3.281754e-02 3.616484e-02 3.349826e-02 3.799593e-02 3.670687e-02 3.531491e-02 3.478110e-02 3.516901e-02 3.501309e-02 3.497189e-02 3.521878e-02 3.477890e-02 3.532913e-02 3.603767e-02 3.628679e-02 3.381728e-02 3.489599e-02 3.322817e-02 3.460687e-02 3.308944e-02 3.455367e-02 3.311745e-02 3.453699e-02 3.321193e-02 3.449405e-02 3.333695e-02 3.442019e-02 3.347935e-02 3.432546e-02 3.362350e-02 3.421541e-02 3.375191e-02 3.409656e-02 3.385395e-02 3.397699e-02 3.392185e-02 3.385562e-02 3.394031e-02 3.371825e-02 3.389326e-02 3.355092e-02 3.377232e-02 3.333913e-02 3.357134e-02 3.307159e-02 3.330126e-02 3.276613e-02 3.301712e-02 3.250120e-02 3.284526e-02 3.243253e-02 3.288641e-02 3.242825e-02 3.285349e-02 3.234323e-02 3.281529e-02 3.236897e-02 3.286959e-02 3.238107e-02 3.278980e-02 3.230046e-02 3.275103e-02 3.238594e-02 3.291241e-02 3.259278e-02 3.313882e-02 3.292283e-02 3.337862e-02 3.327709e-02 3.357484e-02 3.360408e-02 3.371367e-02 3.388731e-02 3.380628e-02 3.412462e-02 3.386994e-02 3.431138e-02 3.391881e-02 3.444140e-02 3.396850e-02 3.451356e-02 3.403683e-02 3.453087e-02 3.413515e-02 3.449191e-02 3.426080e-02 3.439552e-02 3.440829e-02 3.425389e-02 3.457418e-02 3.409006e-02 3.475346e-02 3.393168e-02 3.493156e-02 3.379614e-02 3.507688e-02 3.369306e-02 3.516061e-02 3.364142e-02 3.517126e-02 3.366455e-02 3.510579e-02 3.377203e-02 3.495952e-02 3.395218e-02 3.473306e-02 3.417504e-02 3.443714e-02 3.438054e-02 3.408963e-02 3.447276e-02 3.372970e-02 3.437515e-02 3.342962e-02 3.454635e-02 2.963020e-02 2.755858e-02 2.706446e-02 2.526700e-02 2.593602e-02 
1.836065e-02 1.983872e-02 1.986163e-02 2.242854e-02 2.577474e-02 3.564549e-02 3.599610e-02 3.504505e-02 3.031785e-02 3.342462e-02 2.864909e-02 3.206630e-02 2.503289e-02 2.505476e-02 2.457610e-02 2.493082e-02 2.477655e-02 2.476219e-02 2.495249e-02 2.459971e-02 2.504379e-02 2.519696e-02 2.985881e-02 2.794269e-02 3.105109e-02 2.954376e-02 3.210817e-02 3.051111e-02 3.272259e-02 3.106482e-02 3.299281e-02 3.139922e-02 3.303761e-02 3.163225e-02 3.297126e-02 3.184487e-02 3.286956e-02 3.204192e-02 3.274228e-02 3.219546e-02 3.260190e-02 3.230675e-02 3.248262e-02 3.238990e-02 3.238989e-02 3.241531e-02 3.228154e-02 3.235638e-02 3.215385e-02 3.223918e-02 3.201611e-02 3.207639e-02 3.185906e-02 3.188297e-02 3.168149e-02 3.167006e-02 3.147613e-02 3.145428e-02 3.126319e-02 3.126746e-02 3.108778e-02 3.115137e-02 3.096675e-02 3.109976e-02 3.088639e-02 3.109913e-02 3.088355e-02 3.114939e-02 3.092905e-02 3.121841e-02 3.099849e-02 3.133996e-02 3.118482e-02 3.153564e-02 3.148098e-02 3.173446e-02 3.181816e-02 3.188763e-02 3.215065e-02 3.198214e-02 3.245922e-02 3.203990e-02 3.274674e-02 3.208563e-02 3.299047e-02 3.211937e-02 3.315867e-02 3.215354e-02 3.324662e-02 3.222694e-02 3.327360e-02 3.236769e-02 3.322637e-02 3.254716e-02 3.307573e-02 3.274666e-02 3.284278e-02 3.297120e-02 3.257533e-02 3.323335e-02 3.234155e-02 3.352696e-02 3.216033e-02 3.376867e-02 3.200920e-02 3.388863e-02 3.192327e-02 3.388980e-02 3.197719e-02 3.379434e-02 3.221082e-02 3.359194e-02 3.262114e-02 3.329134e-02 3.322972e-02 3.295118e-02 3.406451e-02 3.265021e-02 3.516662e-02 3.252343e-02 3.661250e-02 3.276419e-02 4.009345e-02 3.418899e-02 2.186532e-02 2.237679e-02 1.885676e-02 1.981347e-02 
1.748895e-02 2.171467e-02 2.020519e-02 2.909748e-02 3.388057e-02 4.296690e-02 1.884404e-02 2.424861e-02 1.534520e-02 2.020199e-02 1.379948e-02 1.706491e-02 7.543582e-03 1.136581e-02 9.796419e-03 1.086516e-02 1.065652e-02 1.046876e-02 1.109928e-02 9.785404e-03 1.133898e-02 8.362866e-03 1.638217e-02 1.385409e-02 1.840030e-02 1.653366e-02 1.942379e-02 1.801414e-02 1.987045e-02 1.887560e-02 1.998186e-02 1.941362e-02 1.990567e-02 1.977686e-02 1.976744e-02 2.006745e-02 1.964436e-02 2.029578e-02 1.953181e-02 2.043132e-02 1.943786e-02 2.048580e-02 1.940129e-02 2.049282e-02 1.942167e-02 2.042845e-02 1.943989e-02 2.027297e-02 1.945173e-02 2.007878e-02 1.947019e-02 1.987682e-02 1.948274e-02 1.969060e-02 1.947900e-02 1.952030e-02 1.942919e-02 1.937043e-02 1.935619e-02 1.928137e-02 1.926456e-02 1.923577e-02 1.920806e-02 1.920463e-02 1.914405e-02 1.919472e-02 1.907623e-02 1.926977e-02 1.902375e-02 1.934847e-02 1.899332e-02 1.946168e-02 1.908509e-02 1.967420e-02 1.932003e-02 1.987511e-02 1.958071e-02 1.999942e-02 1.983001e-02 2.004795e-02 2.005935e-02 2.006028e-02 2.028155e-02 2.007163e-02 2.047013e-02 2.008090e-02 2.058184e-02 2.010297e-02 2.061019e-02 2.018601e-02 2.058355e-02 2.036295e-02 2.048421e-02 2.059120e-02 2.027453e-02 2.083756e-02 1.998684e-02 2.109731e-02 1.968673e-02 2.137608e-02 1.946420e-02 2.166520e-02 1.933924e-02 2.185377e-02 1.928833e-02 2.184434e-02 1.936396e-02 2.164367e-02 1.965909e-02 2.129136e-02 2.021810e-02 2.078003e-02 2.102320e-02 2.013199e-02 2.208161e-02 1.943779e-02 2.340800e-02 1.882175e-02 2.499665e-02 1.853808e-02 2.663874e-02 1.929437e-02 2.809931e-02 5.129508e-02 2.576964e-02 2.301372e-02 1.742546e-02 2.035895e-02 
6.486089e-03 8.700538e-03 1.120836e-02 1.530837e-02 3.032072e-02 3.123615e-03 2.039992e-02 1.348346e-02 1.310928e-02 1.449773e-02 1.070053e-02 1.505558e-02 8.301995e-03 1.584017e-02 1.013276e-02 1.639120e-02 1.125790e-02 1.620951e-02 1.166457e-02 1.457459e-02 1.150553e-02 1.101826e-02 1.239732e-02 1.165911e-02 1.272939e-02 1.197744e-02 1.324132e-02 1.214268e-02 1.361574e-02 1.220156e-02 1.384088e-02 1.222267e-02 1.394579e-02 1.224432e-02 1.397397e-02 1.229690e-02 1.394574e-02 1.238483e-02 1.386188e-02 1.248912e-02 1.373881e-02 1.260354e-02 1.359993e-02 1.273211e-02 1.345197e-02 1.285252e-02 1.328778e-02 1.294255e-02 1.311898e-02 1.301071e-02 1.296407e-02 1.306258e-02 1.283609e-02 1.310776e-02 1.274984e-02 1.315188e-02 1.270442e-02 1.319115e-02 1.268014e-02 1.319675e-02 1.268806e-02 1.321308e-02 1.269236e-02 1.321361e-02 1.268145e-02 1.318915e-02 1.270002e-02 1.313226e-02 1.272313e-02 1.306833e-02 1.277033e-02 1.305181e-02 1.288784e-02 1.305941e-02 1.299849e-02 1.304387e-02 1.310655e-02 1.301371e-02 1.321074e-02 1.297556e-02 1.330977e-02 1.294232e-02 1.341147e-02 1.291747e-02 1.351061e-02 1.289401e-02 1.359251e-02 1.287652e-02 1.365545e-02 1.287917e-02 1.370941e-02 1.291339e-02 1.373689e-02 1.297130e-02 1.371372e-02 1.304037e-02 1.364344e-02 1.311726e-02 1.353913e-02 1.321193e-02 1.341685e-02 1.335220e-02 1.325812e-02 1.352102e-02 1.306311e-02 1.369426e-02 1.286800e-02 1.389682e-02 1.270618e-02 1.415682e-02 1.260533e-02 1.444896e-02 1.257126e-02 1.475025e-02 1.260578e-02 1.503498e-02 1.274476e-02 1.524470e-02 1.307013e-02 1.521317e-02 1.389176e-02 1.453826e-02 2.007094e-02 3.775097e-02 2.312024e-02 6.918981e-03 6.764518e-03 6.937620e-03 
8.576932e-03 6.182024e-03 8.637088e-03 4.859613e-03 1.340670e-02 1.611962e-02 1.588632e-02 1.214091e-02 2.859814e-03 8.477723e-03 2.942122e-03 1.065516e-02 9.853374e-03 1.285408e-02 1.600837e-02 1.534317e-02 1.719497e-02 1.686481e-02 1.569664e-02 1.585157e-02 1.364060e-02 9.546784e-03 5.955014e-03 3.157997e-03 4.025497e-03 1.402220e-03 4.876046e-03 2.177672e-03 5.466524e-03 2.835968e-03 5.684610e-03 3.290154e-03 5.659503e-03 3.639822e-03 5.528168e-03 3.971723e-03 5.376755e-03 4.284685e-03 5.208231e-03 4.533002e-03 5.041338e-03 4.719688e-03 4.925240e-03 4.871694e-03 4.867050e-03 4.952621e-03 4.810734e-03 4.933165e-03 4.751388e-03 4.856019e-03 4.696850e-03 4.731458e-03 4.617265e-03 4.552970e-03 4.475973e-03 4.293940e-03 4.234730e-03 3.996563e-03 4.009790e-03 3.841689e-03 3.773199e-03 3.697769e-03 3.701332e-03 3.602788e-03 3.737746e-03 3.571314e-03 3.761806e-03 3.737093e-03 3.838464e-03 3.890574e-03 3.886115e-03 3.959466e-03 3.966867e-03 4.164600e-03 4.336695e-03 4.419325e-03 4.744041e-03 4.579203e-03 5.113216e-03 4.634046e-03 5.431875e-03 4.630735e-03 5.720172e-03 4.615029e-03 5.958412e-03 4.596049e-03 6.106395e-03 4.599292e-03 6.159082e-03 4.680274e-03 6.144359e-03 4.876101e-03 6.038671e-03 5.143460e-03 5.798697e-03 5.442008e-03 5.455601e-03 5.762227e-03 5.075841e-03 6.111495e-03 4.750356e-03 6.487355e-03 4.501293e-03 6.776562e-03 4.325583e-03 6.879272e-03 4.301315e-03 6.806976e-03 4.528189e-03 6.596198e-03 5.039667e-03 6.217210e-03 5.784496e-03 5.655683e-03 6.726533e-03 4.930309e-03 7.849389e-03 4.054157e-03 9.121437e-03 3.320518e-03 1.046068e-02 5.358306e-03 1.974321e-02 9.022978e-03 9.478574e-03 4.544648e-03 8.647617e-03 6.508693e-03 
3.471858e-03 7.423095e-04 3.864665e-03 3.337105e-03 4.862368e-03 1.044340e-02 7.738004e-03 5.086016e-03 1.976542e-03 5.403463e-03 5.494740e-03 1.122603e-02 1.734752e-02 1.678983e-02 7.953914e-03 5.224899e-03 4.103225e-03 2.400597e-03 5.327557e-03 8.056587e-03 1.753979e-02 1.671797e-02 9.881606e-03 6.197105e-03 3.825977e-03 2.582263e-03 1.542717e-03 1.448576e-03 5.344578e-04 1.286106e-03 8.669277e-05 1.238313e-03 2.982768e-04 1.125086e-03 5.457474e-04 9.520669e-04 7.435778e-04 7.679572e-04 9.032687e-04 6.180683e-04 1.026214e-03 5.174438e-04 1.095494e-03 4.695596e-04 1.113382e-03 4.906158e-04 1.115472e-03 5.885162e-04 1.120332e-03 7.491590e-04 1.149932e-03 9.765933e-04 1.256334e-03 1.277655e-03 1.471736e-03 1.610535e-03 1.708891e-03 1.784925e-03 1.818296e-03 2.019166e-03 2.232559e-03 1.867844e-03 1.817056e-03 1.815251e-03 1.876555e-03 2.356040e-03 2.040458e-03 1.926627e-03 1.693060e-03 1.607485e-03 1.801950e-03 1.718599e-03 1.837989e-03 1.358387e-03 1.448271e-03 1.056068e-03 1.116506e-03 8.631150e-04 8.093902e-04 7.611866e-04 5.292646e-04 7.348562e-04 2.916720e-04 7.459312e-04 1.575839e-04 7.593847e-04 1.596934e-04 7.437342e-04 1.806723e-04 6.659649e-04 1.947148e-04 5.184182e-04 2.413526e-04 3.624514e-04 4.043896e-04 3.266038e-04 6.751104e-04 4.827446e-04 9.780597e-04 7.291378e-04 1.232014e-03 9.859528e-04 1.392292e-03 1.153515e-03 1.456592e-03 1.152988e-03 1.399156e-03 9.809898e-04 1.185618e-03 7.177574e-04 8.848049e-04 6.972507e-04 8.304224e-04 1.277216e-03 1.270823e-03 2.174955e-03 1.873383e-03 3.210535e-03 2.263389e-03 4.288952e-03 1.960994e-03 5.443184e-03 5.005468e-03 3.805250e-03 3.725109e-03 1.291759e-03 3.605782e-03 5.873909e-04 
