# vtk DataFile Version 2.0
Comment goes here
ASCII

DATASET STRUCTURED_POINTS
FIELD FieldData 1
TIME 1 1 double
0.50000000
DIMENSIONS    128   16   1

ORIGIN    0.000   0.000   0.000
SPACING   0.0078125 0.015625   1.000

POINT_DATA   2048
SCALARS uX double
LOOKUP_TABLE default

2.687192e-03 -6.595246e-04 2.755498e-03 -2.599937e-03 2.366557e-03 -7.473240e-03 2.081056e-03 -1.724058e-03 5.836396e-05 -4.015711e-04 -1.589507e-04 6.933767e-04 -4.436314e-04 -1.495819e-03 -3.152172e-03 -8.409582e-04 -4.498217e-03 -1.309229e-03 -3.875679e-03 -1.563798e-03 -2.574613e-03 1.465952e-03 -6.388541e-04 1.345491e-03 -1.152211e-03 8.232815e-04 -1.314566e-03 3.861457e-04 -1.287427e-03 -1.056095e-05 -1.152786e-03 -3.659085e-04 -9.676771e-04 -6.700115e-04 -7.717278e-04 -9.065253e-04 -5.950712e-04 -1.068226e-03 -4.694131e-04 -1.161533e-03 -4.179147e-04 -1.190964e-03 -4.408255e-04 -1.155630e-03 -5.216806e-04 -1.057206e-03 -6.337747e-04 -9.017681e-04 -7.473726e-04 -7.053473e-04 -8.364783e-04 -4.845118e-04 -8.616552e-04 -2.200120e-04 -7.341428e-04 1.973306e-04 -2.723321e-04 1.123485e-03 1.361193e-03 5.978383e-03 7.327289e-03 3.076681e-03 1.217740e-03 1.361485e-03 2.885485e-03 8.013921e-03 4.199725e-03 1.752526e-04 -1.376945e-03 -2.000201e-03 1.277802e-03 3.683037e-03 3.589132e-03 1.494945e-03 1.160377e-03 -3.423211e-05 1.532624e-04 -5.337409e-04 -3.286519e-04 -6.249261e-04 -6.235910e-04 -5.272556e-04 -8.572938e-04 -3.640534e-04 -1.078169e-03 -2.020241e-04 -1.269845e-03 -6.004502e-05 -1.387892e-03 4.253897e-05 -1.414727e-03 6.107233e-05 -1.356420e-03 -3.685234e-05 -1.208222e-03 -2.474330e-04 -9.627226e-04 -5.505788e-04 -6.333787e-04 -9.169177e-04 -2.497196e-04 -1.299658e-03 1.456346e-04 -1.647008e-03 4.862415e-04 -1.912444e-03 6.977850e-04 -2.038084e-03 7.274217e-04 -1.955373e-03 5.411831e-04 -1.615879e-03 1.172908e-04 -1.005207e-03 -5.279588e-04 -1.384187e-04 -1.304732e-03 9.195617e-04 -2.018408e-03 1.992015e-03 -2.302779e-03 2.643693e-03 -1.441570e-03 1.651099e-04 1.833005e-03 7.296189e-04 2.569732e-03 3.257733e-04 
2.109299e-03 -6.509148e-04 2.244003e-03 -2.203592e-03 2.140338e-03 -8.690476e-03 1.925904e-03 -5.176016e-04 -1.506453e-03 6.500153e-04 -3.531179e-03 1.061383e-03 -6.768969e-03 -1.022176e-04 -5.819149e-03 -7.739123e-04 -5.183626e-03 -1.239266e-03 -4.569967e-03 -2.173902e-03 -3.597153e-03 -3.928685e-03 -1.878811e-03 -1.639915e-03 -1.309416e-03 -6.429778e-04 -9.252687e-04 -1.817792e-04 -5.779609e-04 -1.520590e-05 -2.402102e-04 -1.787982e-05 6.135455e-05 -1.163990e-04 3.105953e-04 -2.357443e-04 5.142934e-04 -3.186178e-04 6.603707e-04 -3.582239e-04 7.153461e-04 -3.636199e-04 6.764534e-04 -3.162169e-04 5.876090e-04 -1.816977e-04 5.039604e-04 4.980891e-05 4.603072e-04 3.683390e-04 5.065964e-04 8.044932e-04 7.633233e-04 1.506208e-03 1.526320e-03 2.880782e-03 3.108579e-03 4.503578e-03 2.447884e-03 1.884408e-03 2.555901e-03 1.323475e-03 3.715679e-03 3.553519e-03 1.052320e-03 2.853732e-03 1.061695e-03 2.861041e-03 4.682779e-03 3.303825e-03 3.696386e-03 3.529463e-03 3.535707e-03 1.444181e-03 1.656801e-03 3.253489e-04 9.008379e-04 3.216884e-05 5.793854e-04 9.713586e-05 4.088341e-04 3.070446e-04 2.434290e-04 5.224432e-04 3.824703e-05 7.077003e-04 -1.417460e-04 8.868490e-04 -2.353105e-04 1.023741e-03 -2.597450e-04 1.043869e-03 -2.254670e-04 9.333103e-04 -9.472992e-05 7.250946e-04 1.575970e-04 4.370266e-04 5.018766e-04 7.497685e-05 8.926419e-04 -3.164219e-04 1.297477e-03 -6.723394e-04 1.657645e-03 -9.441980e-04 1.893789e-03 -1.079450e-03 1.945105e-03 -1.009918e-03 1.774819e-03 -6.811886e-04 1.357513e-03 -6.370424e-05 7.116157e-04 8.607436e-04 -9.638438e-05 2.038850e-03 -9.739282e-04 3.294465e-03 -1.713052e-03 4.146648e-03 -1.706327e-03 2.217338e-04 3.514145e-03 8.348445e-04 2.486503e-03 1.610223e-04 
2.975346e-03 1.460001e-03 3.617862e-03 2.436726e-03 5.426929e-03 -1.601074e-03 3.254135e-03 -1.271877e-05 3.100982e-03 4.409838e-04 3.267448e-03 4.780423e-04 4.628525e-03 2.734787e-03 5.124260e-03 3.185872e-03 5.126037e-03 4.100051e-03 4.048221e-03 5.180686e-03 2.395982e-03 4.954873e-03 2.420956e-04 3.807966e-03 1.501908e-04 3.349277e-03 1.467594e-04 2.942777e-03 2.989761e-04 2.617027e-03 5.830102e-04 2.306978e-03 8.839875e-04 1.968647e-03 1.149309e-03 1.650112e-03 1.396519e-03 1.414028e-03 1.608851e-03 1.241291e-03 1.711719e-03 1.085165e-03 1.677466e-03 9.680987e-04 1.572261e-03 9.558384e-04 1.458740e-03 1.026703e-03 1.287825e-03 1.050703e-03 9.632277e-04 8.843257e-04 3.889364e-04 3.650838e-04 -5.818417e-04 -7.916252e-04 -2.284184e-03 -3.056388e-03 -4.954582e-03 -9.686561e-03 -1.359742e-02 -6.272213e-03 -6.146965e-03 -5.244684e-03 -7.408589e-03 -1.427459e-02 -8.678770e-03 -3.872622e-03 -1.950091e-03 -1.408743e-03 -4.904507e-03 -9.237514e-03 -7.536926e-03 -5.410760e-03 -2.997822e-03 -2.231688e-03 -8.272196e-04 -6.151970e-04 2.156070e-04 4.070076e-04 7.432604e-04 1.138868e-03 9.188152e-04 1.616490e-03 8.377523e-04 1.940623e-03 7.122967e-04 2.253356e-03 6.724339e-04 2.511779e-03 6.566135e-04 2.587418e-03 6.432451e-04 2.489024e-03 7.279349e-04 2.302564e-03 9.771334e-04 2.046891e-03 1.340390e-03 1.687294e-03 1.749555e-03 1.264694e-03 2.195095e-03 8.616688e-04 2.627766e-03 5.164475e-04 2.951214e-03 2.619284e-04 3.091579e-03 1.665117e-04 3.010395e-03 2.897090e-04 2.660016e-03 6.645125e-04 2.031381e-03 1.341863e-03 1.122172e-03 2.269226e-03 -1.701631e-04 3.295482e-03 -1.831469e-03 4.266222e-03 -3.145662e-03 3.807820e-03 8.668535e-03 3.525842e-03 4.325552e-03 1.738427e-03 
3.455011e-04 2.501378e-03 1.260367e-03 6.847178e-03 3.779380e-03 1.403850e-02 -1.159716e-03 -7.184955e-04 3.168799e-03 -2.206303e-03 4.623794e-03 -2.396640e-03 6.649624e-03 -1.238340e-03 5.462522e-03 -3.915328e-04 4.542494e-03 3.368041e-04 3.637316e-03 1.554390e-03 2.450617e-03 3.488165e-03 7.838810e-04 2.473459e-03 1.083409e-04 2.026987e-03 -2.800214e-04 1.773208e-03 -4.499237e-04 1.625648e-03 -4.659166e-04 1.498048e-03 -4.007922e-04 1.345390e-03 -2.921654e-04 1.169916e-03 -1.540144e-04 9.856038e-04 -5.883762e-06 7.899563e-04 1.195082e-04 5.715751e-04 1.983151e-04 3.375489e-04 2.354868e-04 1.111398e-04 2.285681e-04 -1.262280e-04 1.128592e-04 -4.591438e-04 -2.278096e-04 -1.019668e-03 -9.641869e-04 -2.039304e-03 -2.402987e-03 -3.908039e-03 -4.583340e-03 -5.640984e-03 -3.539744e-03 -9.983363e-04 -2.260000e-03 -1.426903e-03 -4.918211e-03 -5.037363e-03 -1.189110e-03 -3.297559e-03 -1.237479e-03 -5.946793e-03 -7.135666e-03 -6.797081e-03 -5.191413e-03 -5.160975e-03 -3.792199e-03 -2.621904e-03 -1.835926e-03 -1.230862e-03 -8.703110e-04 -4.949280e-04 -3.503643e-04 -3.340795e-05 -4.800387e-05 2.898099e-04 1.047874e-04 5.061066e-04 1.444891e-04 6.650181e-04 1.427720e-04 8.210873e-04 1.406005e-04 9.641691e-04 1.194513e-04 1.056656e-03 7.559254e-05 1.102505e-03 4.433490e-05 1.128519e-03 5.596808e-05 1.136785e-03 1.042651e-04 1.105221e-03 1.777429e-04 1.031685e-03 2.879211e-04 9.261419e-04 4.357002e-04 7.822777e-04 6.047306e-04 5.901935e-04 7.831869e-04 3.575254e-04 9.698573e-04 9.692546e-05 1.149789e-03 -1.838755e-04 1.304520e-03 -4.595908e-04 1.403744e-03 -7.161558e-04 1.359438e-03 -9.106483e-04 1.073040e-03 -7.347874e-04 1.472839e-04 5.738019e-03 3.573326e-03 2.373962e-03 9.032336e-04 1.279308e-03 
-4.618295e-03 -1.351118e-03 -4.531389e-03 6.290092e-04 -4.247096e-03 1.063976e-02 -4.092468e-03 1.710309e-05 -2.157555e-03 -1.628661e-03 -2.728385e-03 -1.985064e-03 -6.338195e-03 -4.226657e-03 -5.654868e-03 -4.816891e-03 -5.252061e-03 -5.225916e-03 -4.779921e-03 -5.900029e-03 -4.004092e-03 -7.058799e-03 -1.712063e-03 -4.188186e-03 -1.295021e-03 -2.837331e-03 -1.099462e-03 -1.992135e-03 -1.122777e-03 -1.490370e-03 -1.296981e-03 -1.155360e-03 -1.482981e-03 -8.746022e-04 -1.618410e-03 -6.542133e-04 -1.723813e-03 -5.324439e-04 -1.789072e-03 -4.720948e-04 -1.743145e-03 -4.114075e-04 -1.558605e-03 -3.557156e-04 -1.290263e-03 -3.411482e-04 -9.735113e-04 -3.021858e-04 -5.144011e-04 -4.033629e-05 2.670513e-04 7.143870e-04 1.634189e-03 2.371914e-03 4.080780e-03 5.612787e-03 7.852897e-03 9.334706e-03 7.600230e-03 6.084434e-03 9.250377e-03 5.390167e-03 1.018375e-02 9.106897e-03 6.531771e-03 1.003740e-02 7.043597e-03 9.903581e-03 1.141782e-02 1.043220e-02 1.006292e-02 1.152502e-02 9.302109e-03 6.551260e-03 4.043840e-03 3.226163e-03 1.539368e-03 1.508044e-03 2.890572e-04 4.443777e-04 -3.752775e-04 -2.931039e-04 -6.606516e-04 -7.605387e-04 -6.803446e-04 -1.063899e-03 -6.455635e-04 -1.346898e-03 -6.813117e-04 -1.572642e-03 -7.235107e-04 -1.621977e-03 -7.498517e-04 -1.511723e-03 -8.537513e-04 -1.331044e-03 -1.097448e-03 -1.099491e-03 -1.428948e-03 -7.835892e-04 -1.781264e-03 -4.239708e-04 -2.146348e-03 -1.019409e-04 -2.479100e-03 1.445057e-04 -2.689183e-03 2.837386e-04 -2.705810e-03 2.541420e-04 -2.487990e-03 5.467299e-06 -1.984980e-03 -4.875806e-04 -1.181939e-03 -1.263824e-03 -6.548221e-05 -2.256252e-03 1.458696e-03 -3.309289e-03 3.268308e-03 -4.272311e-03 4.050696e-03 -8.543633e-04 -8.608592e-03 -3.405402e-03 -5.734959e-03 -2.446223e-03 
-7.403175e-03 -6.963602e-03 -8.230108e-03 -9.224506e-03 -1.027539e-02 -9.405962e-03 -5.411169e-03 -3.871377e-03 -6.406125e-03 -3.577201e-03 -6.025723e-03 -3.358010e-03 -6.498964e-03 -5.828753e-03 -6.371158e-03 -5.977602e-03 -6.190906e-03 -6.166377e-03 -5.983098e-03 -6.353807e-03 -5.802353e-03 -6.436744e-03 -4.684697e-03 -6.913447e-03 -4.951190e-03 -6.999149e-03 -4.957341e-03 -6.883359e-03 -5.045075e-03 -6.756869e-03 -5.238329e-03 -6.607012e-03 -5.454772e-03 -6.409172e-03 -5.651089e-03 -6.199200e-03 -5.833514e-03 -6.022602e-03 -5.986600e-03 -5.868390e-03 -6.054798e-03 -5.702599e-03 -6.010649e-03 -5.534791e-03 -5.888307e-03 -5.398701e-03 -5.706336e-03 -5.245035e-03 -5.373418e-03 -4.910277e-03 -4.720641e-03 -4.172952e-03 -3.525813e-03 -2.740206e-03 -1.495695e-03 -3.364907e-04 1.183168e-03 2.155445e-03 2.039762e-03 -1.498727e-04 1.980079e-03 2.045513e-04 9.626682e-04 9.589137e-04 -2.663073e-04 4.892472e-04 -7.637784e-04 7.364275e-04 -8.615797e-04 2.976103e-05 -1.191902e-03 -8.451391e-04 -1.706256e-03 -2.611299e-03 -3.365323e-03 -3.667321e-03 -4.322198e-03 -4.429263e-03 -4.918795e-03 -5.052201e-03 -5.297437e-03 -5.577440e-03 -5.474690e-03 -5.961500e-03 -5.477367e-03 -6.248479e-03 -5.439151e-03 -6.526554e-03 -5.444201e-03 -6.759510e-03 -5.447861e-03 -6.856456e-03 -5.438465e-03 -6.826032e-03 -5.489128e-03 -6.731412e-03 -5.652711e-03 -6.585884e-03 -5.897386e-03 -6.361162e-03 -6.177392e-03 -6.081166e-03 -6.489846e-03 -5.800490e-03 -6.805099e-03 -5.542695e-03 -7.058346e-03 -5.325855e-03 -7.197708e-03 -5.194459e-03 -7.196021e-03 -5.190146e-03 -7.017803e-03 -5.337302e-03 -6.652575e-03 -5.676093e-03 -6.099524e-03 -6.183249e-03 -5.305450e-03 -6.791551e-03 -4.312558e-03 -7.472536e-03 -3.288692e-03 -1.002508e-02 -1.163943e-02 -8.051249e-03 -8.242682e-03 -6.674096e-03 
-8.059978e-03 -7.594269e-03 -8.674614e-03 -9.257027e-03 -1.038068e-02 -1.249997e-02 -8.299626e-03 -6.790142e-03 -9.020733e-03 -6.276277e-03 -8.561252e-03 -6.237916e-03 -7.078860e-03 -6.380299e-03 -6.957261e-03 -6.542976e-03 -6.754082e-03 -6.759708e-03 -6.520792e-03 -6.977676e-03 -6.327406e-03 -7.061750e-03 -6.955796e-03 -8.475266e-03 -7.244436e-03 -8.888233e-03 -7.326101e-03 -8.942415e-03 -7.396658e-03 -8.854554e-03 -7.500655e-03 -8.702821e-03 -7.629069e-03 -8.519281e-03 -7.764393e-03 -8.328264e-03 -7.892246e-03 -8.147327e-03 -7.995985e-03 -7.981398e-03 -8.056624e-03 -7.828498e-03 -8.063955e-03 -7.692705e-03 -8.025273e-03 -7.584215e-03 -7.952494e-03 -7.503047e-03 -7.850904e-03 -7.450371e-03 -7.753567e-03 -7.492038e-03 -7.805969e-03 -7.888624e-03 -8.453753e-03 -9.261747e-03 -9.977587e-03 -1.097610e-02 -9.006804e-03 -6.717399e-03 -7.832844e-03 -7.093866e-03 -1.096201e-02 -1.017904e-02 -7.751775e-03 -8.462495e-03 -8.325055e-03 -1.154592e-02 -1.363713e-02 -1.179943e-02 -1.135298e-02 -1.048116e-02 -1.024015e-02 -8.103047e-03 -8.158766e-03 -7.248290e-03 -7.614554e-03 -7.177185e-03 -7.545468e-03 -7.372938e-03 -7.611745e-03 -7.647466e-03 -7.678517e-03 -7.912896e-03 -7.705706e-03 -8.144837e-03 -7.710768e-03 -8.343534e-03 -7.716717e-03 -8.494140e-03 -7.728573e-03 -8.575062e-03 -7.754960e-03 -8.584418e-03 -7.817216e-03 -8.535662e-03 -7.930723e-03 -8.438153e-03 -8.089857e-03 -8.296098e-03 -8.278683e-03 -8.124333e-03 -8.482645e-03 -7.946349e-03 -8.679950e-03 -7.783103e-03 -8.841023e-03 -7.654820e-03 -8.939936e-03 -7.586778e-03 -8.962102e-03 -7.603464e-03 -8.902728e-03 -7.721910e-03 -8.776265e-03 -7.952179e-03 -8.623668e-03 -8.278828e-03 -8.510295e-03 -8.637922e-03 -8.512150e-03 -8.853082e-03 -8.422157e-03 -1.050978e-02 -9.236964e-03 -8.241439e-03 -8.239408e-03 -7.368180e-03 
-8.298349e-03 -8.346301e-03 -8.521818e-03 -8.875203e-03 -8.892665e-03 -9.394681e-03 -8.603795e-03 -8.341282e-03 -8.505161e-03 -8.313727e-03 -8.316680e-03 -8.755221e-03 -6.632598e-03 -6.282733e-03 -6.522100e-03 -6.314306e-03 -6.415073e-03 -6.394761e-03 -6.326466e-03 -6.495596e-03 -6.287190e-03 -6.594860e-03 -7.452691e-03 -7.395962e-03 -7.071654e-03 -7.859635e-03 -7.050853e-03 -8.181591e-03 -7.134396e-03 -8.329821e-03 -7.261738e-03 -8.352025e-03 -7.409321e-03 -8.294077e-03 -7.561758e-03 -8.195770e-03 -7.707106e-03 -8.086258e-03 -7.831226e-03 -7.980785e-03 -7.919425e-03 -7.887449e-03 -7.965916e-03 -7.816428e-03 -7.978543e-03 -7.780463e-03 -7.973501e-03 -7.791118e-03 -7.975558e-03 -7.873545e-03 -8.045160e-03 -8.110082e-03 -8.329054e-03 -8.705240e-03 -9.130394e-03 -1.001180e-02 -1.061298e-02 -1.178490e-02 -1.133129e-02 -1.140732e-02 -1.290000e-02 -1.061766e-02 -1.032510e-02 -1.032402e-02 -1.042428e-02 -1.184715e-02 -1.064432e-02 -9.744379e-03 -8.906328e-03 -9.038270e-03 -9.935010e-03 -1.055150e-02 -1.077982e-02 -9.134731e-03 -9.137435e-03 -8.337072e-03 -8.433802e-03 -8.051378e-03 -8.102476e-03 -8.013826e-03 -7.935515e-03 -8.096429e-03 -7.827267e-03 -8.221936e-03 -7.735091e-03 -8.353836e-03 -7.659312e-03 -8.476747e-03 -7.611002e-03 -8.571035e-03 -7.592645e-03 -8.614263e-03 -7.607822e-03 -8.597840e-03 -7.667530e-03 -8.526748e-03 -7.779106e-03 -8.408314e-03 -7.936400e-03 -8.250826e-03 -8.124736e-03 -8.071135e-03 -8.326738e-03 -7.892392e-03 -8.518347e-03 -7.737559e-03 -8.671125e-03 -7.631137e-03 -8.761620e-03 -7.601003e-03 -8.776628e-03 -7.672753e-03 -8.714365e-03 -7.864510e-03 -8.591218e-03 -8.183352e-03 -8.443698e-03 -8.607511e-03 -8.321401e-03 -9.063697e-03 -8.288953e-03 -9.409159e-03 -8.393610e-03 -9.402101e-03 -8.691689e-03 -8.622737e-03 -8.392576e-03 -8.228741e-03 
-8.354885e-03 -8.266201e-03 -8.653931e-03 -8.907981e-03 -9.040510e-03 -9.487629e-03 -8.879822e-03 -8.578073e-03 -8.976062e-03 -8.541517e-03 -8.869005e-03 -9.078621e-03 -7.054105e-03 -6.643312e-03 -6.945224e-03 -6.705832e-03 -6.811289e-03 -6.826558e-03 -6.682768e-03 -6.957048e-03 -6.611380e-03 -7.054289e-03 -7.552327e-03 -7.554471e-03 -7.084254e-03 -7.977242e-03 -7.107939e-03 -8.294456e-03 -7.227007e-03 -8.420539e-03 -7.359648e-03 -8.410532e-03 -7.495109e-03 -8.324847e-03 -7.631938e-03 -8.208338e-03 -7.765050e-03 -8.089391e-03 -7.886129e-03 -7.985221e-03 -7.988727e-03 -7.908004e-03 -8.072726e-03 -7.869266e-03 -8.147255e-03 -7.883716e-03 -8.233506e-03 -7.974131e-03 -8.369344e-03 -8.179286e-03 -8.616815e-03 -8.561263e-03 -9.060501e-03 -9.187424e-03 -9.765081e-03 -1.006540e-02 -1.069476e-02 -1.081159e-02 -1.068240e-02 -1.058114e-02 -1.135952e-02 -1.003116e-02 -1.023006e-02 -9.976970e-03 -1.018442e-02 -1.062339e-02 -1.007543e-02 -9.412906e-03 -9.757147e-03 -9.713514e-03 -1.043530e-02 -1.043525e-02 -1.071040e-02 -9.607520e-03 -9.691435e-03 -8.857298e-03 -9.003926e-03 -8.439131e-03 -8.567309e-03 -8.245502e-03 -8.286299e-03 -8.189518e-03 -8.093025e-03 -8.208248e-03 -7.949671e-03 -8.260899e-03 -7.842843e-03 -8.322428e-03 -7.772319e-03 -8.373979e-03 -7.739673e-03 -8.398213e-03 -7.745061e-03 -8.382923e-03 -7.789363e-03 -8.324746e-03 -7.873102e-03 -8.227616e-03 -7.992573e-03 -8.100613e-03 -8.138679e-03 -7.957472e-03 -8.297268e-03 -7.814704e-03 -8.449320e-03 -7.689992e-03 -8.574862e-03 -7.603448e-03 -8.659210e-03 -7.576987e-03 -8.695927e-03 -7.629281e-03 -8.688152e-03 -7.771342e-03 -8.652227e-03 -8.003233e-03 -8.616940e-03 -8.303532e-03 -8.606744e-03 -8.612235e-03 -8.612840e-03 -8.844180e-03 -8.586949e-03 -8.963628e-03 -8.546698e-03 -8.394410e-03 -8.343501e-03 -8.075769e-03 
-8.298895e-03 -8.345995e-03 -8.522406e-03 -8.874862e-03 -8.893362e-03 -9.393853e-03 -8.603989e-03 -8.339404e-03 -8.505341e-03 -8.312078e-03 -8.316374e-03 -8.753726e-03 -6.631663e-03 -6.282230e-03 -6.521730e-03 -6.314627e-03 -6.415705e-03 -6.396232e-03 -6.328468e-03 -6.498673e-03 -6.290877e-03 -6.600056e-03 -7.457904e-03 -7.403831e-03 -7.083823e-03 -7.875144e-03 -7.072870e-03 -8.202673e-03 -7.159154e-03 -8.348140e-03 -7.282248e-03 -8.366722e-03 -7.430044e-03 -8.316144e-03 -7.595474e-03 -8.238947e-03 -7.764228e-03 -8.158916e-03 -7.918120e-03 -8.090983e-03 -8.047173e-03 -8.050100e-03 -8.152227e-03 -8.049348e-03 -8.242050e-03 -8.102425e-03 -8.339777e-03 -8.233083e-03 -8.485825e-03 -8.472882e-03 -8.728708e-03 -8.854344e-03 -9.117499e-03 -9.400751e-03 -9.673629e-03 -1.007181e-02 -1.031546e-02 -1.069531e-02 -1.085338e-02 -1.101842e-02 -1.123559e-02 -1.094824e-02 -1.086691e-02 -1.081449e-02 -1.080899e-02 -1.089598e-02 -1.063293e-02 -1.028125e-02 -1.009846e-02 -9.868133e-03 -1.007700e-02 -9.835285e-03 -1.001372e-02 -9.457291e-03 -9.594738e-03 -9.087538e-03 -9.175623e-03 -8.817296e-03 -8.810203e-03 -8.655428e-03 -8.507909e-03 -8.586823e-03 -8.258472e-03 -8.578661e-03 -8.046287e-03 -8.598709e-03 -7.871286e-03 -8.631453e-03 -7.749897e-03 -8.667068e-03 -7.691318e-03 -8.682397e-03 -7.687524e-03 -8.651322e-03 -7.731053e-03 -8.564901e-03 -7.822053e-03 -8.429493e-03 -7.958970e-03 -8.259847e-03 -8.133931e-03 -8.075973e-03 -8.329699e-03 -7.896970e-03 -8.516688e-03 -7.739706e-03 -8.663344e-03 -7.629699e-03 -8.751296e-03 -7.601142e-03 -8.771413e-03 -7.679636e-03 -8.716726e-03 -7.874593e-03 -8.593234e-03 -8.185988e-03 -8.437189e-03 -8.600561e-03 -8.311012e-03 -9.056087e-03 -8.283155e-03 -9.406022e-03 -8.392651e-03 -9.400440e-03 -8.691891e-03 -8.621776e-03 -8.393078e-03 -8.228211e-03 
-8.061827e-03 -7.594089e-03 -8.676910e-03 -9.257284e-03 -1.038409e-02 -1.249853e-02 -8.301500e-03 -6.783688e-03 -9.021937e-03 -6.270117e-03 -8.561041e-03 -6.232523e-03 -7.075773e-03 -6.379823e-03 -6.956321e-03 -6.543811e-03 -6.754754e-03 -6.762276e-03 -6.524144e-03 -6.983104e-03 -6.334264e-03 -7.072153e-03 -6.966014e-03 -8.490751e-03 -7.269241e-03 -8.920220e-03 -7.371737e-03 -8.987517e-03 -7.449805e-03 -8.897317e-03 -7.548992e-03 -8.742734e-03 -7.682307e-03 -8.578195e-03 -7.847925e-03 -8.433432e-03 -8.027671e-03 -8.316318e-03 -8.197248e-03 -8.231133e-03 -8.345963e-03 -8.188613e-03 -8.474981e-03 -8.196386e-03 -8.589451e-03 -8.261106e-03 -8.708749e-03 -8.400578e-03 -8.866175e-03 -8.630526e-03 -9.085046e-03 -8.946069e-03 -9.369657e-03 -9.324850e-03 -9.706582e-03 -9.718065e-03 -1.003690e-02 -1.001669e-02 -1.023093e-02 -1.011203e-02 -1.035329e-02 -1.016441e-02 -1.037879e-02 -1.018614e-02 -1.039225e-02 -1.016131e-02 -1.040245e-02 -1.008518e-02 -1.041552e-02 -1.002382e-02 -1.040239e-02 -9.888619e-03 -1.028237e-02 -9.641929e-03 -9.995978e-03 -9.350699e-03 -9.637486e-03 -9.083390e-03 -9.270856e-03 -8.885008e-03 -8.939552e-03 -8.771107e-03 -8.653873e-03 -8.718940e-03 -8.401733e-03 -8.697729e-03 -8.186361e-03 -8.698836e-03 -8.033185e-03 -8.720640e-03 -7.954971e-03 -8.736630e-03 -7.935401e-03 -8.709595e-03 -7.959359e-03 -8.625481e-03 -8.028001e-03 -8.491327e-03 -8.144169e-03 -8.322981e-03 -8.304216e-03 -8.140524e-03 -8.493547e-03 -7.959834e-03 -8.680076e-03 -7.790252e-03 -8.828134e-03 -7.653921e-03 -8.921372e-03 -7.587957e-03 -8.952595e-03 -7.616854e-03 -8.907504e-03 -7.741575e-03 -8.780843e-03 -7.958084e-03 -8.612186e-03 -8.266770e-03 -8.491350e-03 -8.625170e-03 -8.501668e-03 -8.849499e-03 -8.420041e-03 -1.050581e-02 -9.237708e-03 -8.239140e-03 -8.241027e-03 -7.367105e-03 
-7.405160e-03 -6.964032e-03 -8.231906e-03 -9.225271e-03 -1.027827e-02 -9.403856e-03 -5.410772e-03 -3.865959e-03 -6.408268e-03 -3.575280e-03 -6.024765e-03 -3.353209e-03 -6.493634e-03 -5.825792e-03 -6.368384e-03 -5.977187e-03 -6.191218e-03 -6.168692e-03 -5.987528e-03 -6.360556e-03 -5.815022e-03 -6.451258e-03 -4.678355e-03 -6.912676e-03 -4.974028e-03 -7.047878e-03 -5.049340e-03 -6.972672e-03 -5.144671e-03 -6.806621e-03 -5.278507e-03 -6.596242e-03 -5.460437e-03 -6.406535e-03 -5.702529e-03 -6.277496e-03 -5.967175e-03 -6.185360e-03 -6.184928e-03 -6.110136e-03 -6.342763e-03 -6.083565e-03 -6.464279e-03 -6.115978e-03 -6.539194e-03 -6.189487e-03 -6.591765e-03 -6.351402e-03 -6.709378e-03 -6.643091e-03 -6.906295e-03 -6.996871e-03 -7.118858e-03 -7.338735e-03 -7.346084e-03 -7.688008e-03 -7.644830e-03 -8.053129e-03 -7.977802e-03 -8.326701e-03 -8.221276e-03 -8.502869e-03 -8.406046e-03 -8.548706e-03 -8.500495e-03 -8.464641e-03 -8.516362e-03 -8.332040e-03 -8.458723e-03 -8.085888e-03 -8.317476e-03 -7.789752e-03 -8.144378e-03 -7.547970e-03 -7.920282e-03 -7.298850e-03 -7.582451e-03 -7.038664e-03 -7.181759e-03 -6.857045e-03 -6.830540e-03 -6.817715e-03 -6.544805e-03 -6.844261e-03 -6.242348e-03 -6.838858e-03 -5.919585e-03 -6.833057e-03 -5.698917e-03 -6.907597e-03 -5.640512e-03 -6.999033e-03 -5.655192e-03 -6.984294e-03 -5.690493e-03 -6.849596e-03 -5.777193e-03 -6.628433e-03 -5.935881e-03 -6.355314e-03 -6.177088e-03 -6.079728e-03 -6.494454e-03 -5.823290e-03 -6.809284e-03 -5.554546e-03 -7.024168e-03 -5.301751e-03 -7.139433e-03 -5.174973e-03 -7.173506e-03 -5.225644e-03 -7.059248e-03 -5.410657e-03 -6.693637e-03 -5.692950e-03 -6.063682e-03 -6.127494e-03 -5.243402e-03 -6.749865e-03 -4.298456e-03 -7.476427e-03 -3.304936e-03 -1.002578e-02 -1.164489e-02 -8.050412e-03 -8.245860e-03 -6.673780e-03 
-4.622139e-03 -1.353226e-03 -4.533146e-03 6.245184e-04 -4.247597e-03 1.063044e-02 -4.093519e-03 -7.551864e-06 -2.169039e-03 -1.659754e-03 -2.739713e-03 -2.005367e-03 -6.348233e-03 -4.231636e-03 -5.657281e-03 -4.815553e-03 -5.246769e-03 -5.220463e-03 -4.776926e-03 -5.893423e-03 -4.005364e-03 -7.019595e-03 -1.695968e-03 -4.133526e-03 -1.324716e-03 -2.850636e-03 -1.229714e-03 -2.063383e-03 -1.273482e-03 -1.513270e-03 -1.376221e-03 -1.098840e-03 -1.518640e-03 -8.259165e-04 -1.710290e-03 -7.029297e-04 -1.907449e-03 -6.706461e-04 -2.026252e-03 -6.794884e-04 -2.056490e-03 -7.561180e-04 -2.039359e-03 -9.026601e-04 -1.962914e-03 -1.077440e-03 -1.852933e-03 -1.326975e-03 -1.819136e-03 -1.690676e-03 -1.867360e-03 -2.059489e-03 -1.900377e-03 -2.331221e-03 -1.926868e-03 -2.562164e-03 -2.066750e-03 -2.833282e-03 -2.349866e-03 -3.105350e-03 -2.688557e-03 -3.184094e-03 -2.834913e-03 -3.246830e-03 -3.065511e-03 -3.354947e-03 -3.294316e-03 -3.170266e-03 -3.373619e-03 -2.950777e-03 -3.433521e-03 -2.796859e-03 -3.393958e-03 -2.525928e-03 -3.170054e-03 -2.218117e-03 -2.807541e-03 -1.912589e-03 -2.381066e-03 -1.718305e-03 -2.027900e-03 -1.706216e-03 -1.760565e-03 -1.764289e-03 -1.461450e-03 -1.752612e-03 -1.119301e-03 -1.712677e-03 -9.008709e-04 -1.761574e-03 -8.903013e-04 -1.820925e-03 -9.674916e-04 -1.736132e-03 -1.066223e-03 -1.503109e-03 -1.226142e-03 -1.172609e-03 -1.464382e-03 -7.953414e-04 -1.786859e-03 -4.458189e-04 -2.178113e-03 -1.597077e-04 -2.524781e-03 1.001123e-04 -2.690942e-03 2.899625e-04 -2.675765e-03 2.597043e-04 -2.501738e-03 -5.555224e-05 -2.078161e-03 -5.920243e-04 -1.267780e-03 -1.285991e-03 -4.328390e-05 -2.177223e-03 1.517680e-03 -3.246484e-03 3.264408e-03 -4.267461e-03 4.008709e-03 -8.580025e-04 -8.624695e-03 -3.405618e-03 -5.742770e-03 -2.446855e-03 
3.448651e-04 2.497526e-03 1.262075e-03 6.838294e-03 3.784950e-03 1.401884e-02 -1.156820e-03 -7.576199e-04 3.170411e-03 -2.247544e-03 4.626067e-03 -2.435550e-03 6.656508e-03 -1.268119e-03 5.472267e-03 -4.008351e-04 4.551412e-03 3.497672e-04 3.637603e-03 1.585869e-03 2.445876e-03 3.538695e-03 7.634997e-04 2.522366e-03 9.363898e-05 2.103818e-03 -2.721654e-04 1.870889e-03 -4.494346e-04 1.705239e-03 -5.010700e-04 1.550848e-03 -4.555680e-04 1.403674e-03 -3.249828e-04 1.268597e-03 -1.411006e-04 1.129972e-03 5.182399e-05 9.820947e-04 2.386809e-04 8.449550e-04 4.186142e-04 7.267946e-04 5.758293e-04 6.249314e-04 7.126315e-04 5.652788e-04 8.578270e-04 5.664705e-04 1.003901e-03 5.925276e-04 1.104077e-03 5.984418e-04 1.139219e-03 5.818706e-04 1.124944e-03 5.432144e-04 1.049236e-03 4.529069e-04 9.150251e-04 5.131413e-04 1.008862e-03 5.872202e-04 1.037368e-03 5.754991e-04 1.083897e-03 8.102150e-04 1.222721e-03 9.171946e-04 1.174485e-03 8.124394e-04 1.074951e-03 8.093316e-04 1.042290e-03 8.145662e-04 9.669176e-04 7.862383e-04 8.502772e-04 7.641307e-04 7.418113e-04 7.853619e-04 6.477864e-04 8.230151e-04 5.304947e-04 8.438259e-04 3.909999e-04 8.725707e-04 2.844912e-04 9.507738e-04 2.358682e-04 1.051348e-03 2.026073e-04 1.115579e-03 1.596534e-04 1.132313e-03 1.263380e-04 1.112392e-03 1.222037e-04 1.062540e-03 1.631082e-04 9.923831e-04 2.609740e-04 8.983732e-04 3.965940e-04 7.502716e-04 5.399827e-04 5.443862e-04 7.042025e-04 3.191183e-04 9.082700e-04 9.148606e-05 1.122251e-03 -1.619131e-04 1.283841e-03 -4.536941e-04 1.353987e-03 -7.357001e-04 1.302810e-03 -9.171665e-04 1.043179e-03 -7.169447e-04 1.350465e-04 5.743064e-03 3.565837e-03 2.376310e-03 9.000722e-04 1.278972e-03 
2.976522e-03 1.458756e-03 3.618566e-03 2.432303e-03 5.428417e-03 -1.609432e-03 3.253681e-03 -2.054320e-05 3.107915e-03 4.372408e-04 3.272836e-03 4.683998e-04 4.632209e-03 2.723086e-03 5.120804e-03 3.180478e-03 5.113071e-03 4.104426e-03 4.033945e-03 5.194719e-03 2.383072e-03 4.946088e-03 2.008632e-04 3.789069e-03 1.416246e-04 3.401431e-03 2.246954e-04 3.051310e-03 3.801149e-04 2.669912e-03 5.742091e-04 2.269546e-03 8.137309e-04 1.924534e-03 1.117311e-03 1.683917e-03 1.436718e-03 1.510652e-03 1.677183e-03 1.369906e-03 1.819082e-03 1.298768e-03 1.894921e-03 1.304592e-03 1.886512e-03 1.349321e-03 1.818164e-03 1.482308e-03 1.801445e-03 1.746167e-03 1.850924e-03 2.044985e-03 1.896970e-03 2.315460e-03 2.009424e-03 2.689208e-03 2.401547e-03 3.336186e-03 3.185104e-03 4.239994e-03 4.175901e-03 4.379219e-03 4.073183e-03 4.465612e-03 4.307223e-03 4.925743e-03 4.454638e-03 4.108385e-03 4.014567e-03 3.564616e-03 4.109917e-03 3.731666e-03 4.194493e-03 3.343308e-03 3.731774e-03 2.814489e-03 3.120032e-03 2.353516e-03 2.510622e-03 2.095621e-03 2.043041e-03 2.096126e-03 1.707046e-03 2.212803e-03 1.361258e-03 2.281705e-03 9.843195e-04 2.331390e-03 7.417971e-04 2.468984e-03 7.170793e-04 2.604644e-03 7.878766e-04 2.572948e-03 8.881350e-04 2.365239e-03 1.062943e-03 2.033211e-03 1.334854e-03 1.628574e-03 1.711801e-03 1.227411e-03 2.179127e-03 8.682028e-04 2.621153e-03 5.150527e-04 2.897080e-03 2.149707e-04 3.005030e-03 1.270661e-04 2.970711e-03 3.261814e-04 2.706154e-03 7.554544e-04 2.077568e-03 1.360193e-03 1.066057e-03 2.194144e-03 -2.574804e-04 3.243931e-03 -1.849875e-03 4.276945e-03 -3.121091e-03 3.818976e-03 8.675053e-03 3.530875e-03 4.328318e-03 1.740260e-03 
2.110318e-03 -6.514427e-04 2.244197e-03 -2.205425e-03 2.139419e-03 -8.691892e-03 1.924760e-03 -5.116463e-04 -1.503458e-03 6.587326e-04 -3.530735e-03 1.067589e-03 -6.775900e-03 -9.520055e-05 -5.827864e-03 -7.733828e-04 -5.192974e-03 -1.244629e-03 -4.574988e-03 -2.181110e-03 -3.599494e-03 -3.938642e-03 -1.890518e-03 -1.653380e-03 -1.307465e-03 -6.294062e-04 -8.877370e-04 -1.454077e-04 -5.349812e-04 2.385735e-06 -2.275774e-04 -3.239978e-05 5.398331e-05 -1.301225e-04 3.218062e-04 -2.147402e-04 5.572485e-04 -2.672074e-04 7.189668e-04 -2.869184e-04 7.950276e-04 -2.525822e-04 8.040915e-04 -1.549664e-04 7.535726e-04 -6.682664e-06 6.706230e-04 2.083936e-04 6.175889e-04 5.007442e-04 6.225193e-04 8.335114e-04 6.924141e-04 1.196201e-03 8.876534e-04 1.630110e-03 1.244325e-03 2.048698e-03 1.669732e-03 2.639956e-03 2.670268e-03 2.531120e-03 2.333459e-03 2.701538e-03 2.603904e-03 3.663469e-03 3.153686e-03 2.973395e-03 3.059656e-03 2.615207e-03 3.346330e-03 2.917369e-03 3.330116e-03 2.196297e-03 2.659016e-03 1.558343e-03 2.021033e-03 1.089737e-03 1.438339e-03 8.272553e-04 9.731626e-04 7.728052e-04 6.136341e-04 8.314083e-04 2.922666e-04 8.999529e-04 1.712302e-06 9.639193e-04 -1.813594e-04 1.043139e-03 -2.188342e-04 1.076892e-03 -1.593257e-04 9.847087e-04 -2.665182e-05 7.633452e-04 1.955635e-04 4.425361e-04 5.046953e-04 6.102730e-05 8.840579e-04 -3.230294e-04 1.298768e-03 -6.624181e-04 1.663882e-03 -9.372304e-04 1.882883e-03 -1.090073e-03 1.921965e-03 -1.018534e-03 1.769025e-03 -6.624293e-04 1.382991e-03 -2.683041e-05 7.350912e-04 8.675395e-04 -1.128504e-04 2.008435e-03 -1.002650e-03 3.271165e-03 -1.715641e-03 4.145843e-03 -1.691711e-03 2.271936e-04 3.518997e-03 8.376715e-04 2.488791e-03 1.621414e-04 
