# vtk DataFile Version 2.0
Comment goes here
ASCII

DATASET STRUCTURED_POINTS
FIELD FieldData 1
TIME 1 1 double
0.61000000
DIMENSIONS    128   16   1

ORIGIN    0.000   0.000   0.000
SPACING   0.0078125 0.015625   1.000

POINT_DATA   2048
SCALARS uX double
LOOKUP_TABLE default

6.326724e-03 1.860672e-03 5.649044e-03 -1.129406e-03 4.420871e-03 -5.981257e-03 8.029370e-03 -1.791941e-03 3.296475e-03 -3.005676e-03 -2.090656e-03 -8.025920e-03 -1.332342e-02 -2.365190e-02 -3.012554e-02 -3.023932e-02 -3.524809e-02 -3.218449e-02 -3.320923e-02 -2.821196e-02 -2.516092e-02 -1.119023e-02 -8.970550e-03 -1.665817e-03 -2.893513e-03 1.874390e-03 -3.097021e-04 3.185968e-03 8.537586e-04 3.539336e-03 1.439065e-03 3.488081e-03 1.793032e-03 3.271886e-03 2.045336e-03 3.003495e-03 2.242367e-03 2.747298e-03 2.397799e-03 2.536365e-03 2.504392e-03 2.377617e-03 2.550623e-03 2.270599e-03 2.541708e-03 2.219972e-03 2.499127e-03 2.226886e-03 2.447531e-03 2.289652e-03 2.423996e-03 2.431353e-03 2.506074e-03 2.739320e-03 2.860426e-03 3.449757e-03 3.810032e-03 4.695456e-03 4.077764e-03 4.043011e-03 4.525048e-03 4.266201e-03 4.446630e-03 4.495367e-03 3.661842e-03 4.537537e-03 3.426644e-03 3.516507e-03 2.877401e-03 2.893137e-03 2.751669e-03 3.504863e-03 3.886385e-03 3.370087e-03 2.808265e-03 2.583231e-03 2.205901e-03 2.335554e-03 1.887746e-03 2.302815e-03 1.670977e-03 2.352200e-03 1.502245e-03 2.418780e-03 1.378687e-03 2.465176e-03 1.312761e-03 2.460362e-03 1.315066e-03 2.380244e-03 1.394303e-03 2.217373e-03 1.557567e-03 1.981895e-03 1.801250e-03 1.693002e-03 2.100773e-03 1.373630e-03 2.411828e-03 1.054874e-03 2.682536e-03 7.839024e-04 2.867387e-03 6.229926e-04 2.928471e-03 6.296110e-04 2.824579e-03 8.352036e-04 2.516443e-03 1.249629e-03 1.996603e-03 1.875642e-03 1.308769e-03 2.697238e-03 5.452421e-04 3.657004e-03 -1.324751e-04 4.649750e-03 -4.191094e-04 5.493648e-03 2.773332e-04 5.763021e-03 3.284858e-03 7.646173e-04 4.757736e-03 2.231174e-03 6.045125e-03 2.882344e-03 
3.317569e-03 -2.949230e-04 2.448202e-03 -3.102195e-03 3.310419e-04 -9.805583e-03 6.512850e-03 -1.856819e-03 1.567618e-03 -4.502104e-04 -2.225529e-03 -3.171262e-06 -7.531095e-03 -2.317718e-04 -4.450760e-03 1.097542e-03 -3.611641e-03 1.258869e-03 -3.540097e-03 -9.011127e-05 -4.205710e-03 -4.100085e-03 -2.617858e-03 -1.200862e-03 -1.481943e-03 1.947064e-04 -8.395311e-04 8.870256e-04 -4.030516e-04 1.164228e-03 -6.269687e-05 1.196474e-03 2.206162e-04 1.078762e-03 4.557803e-04 8.932457e-04 6.596029e-04 7.118158e-04 8.354224e-04 5.671523e-04 9.583630e-04 4.549944e-04 1.005103e-03 3.781634e-04 9.920087e-04 3.569748e-04 9.551251e-04 4.037550e-04 9.309098e-04 5.251988e-04 9.647709e-04 7.591974e-04 1.166524e-03 1.256863e-03 1.782821e-03 2.303709e-03 2.871479e-03 3.419113e-03 2.447756e-03 -8.587003e-05 2.051832e-04 9.304789e-04 2.553370e-03 2.464415e-03 5.562208e-04 -4.038281e-04 -1.880153e-04 2.358261e-03 2.787782e-03 2.915129e-03 1.563319e-03 4.906018e-04 1.069045e-03 4.325370e-04 5.403990e-04 1.545243e-04 2.573471e-04 1.596432e-04 1.219427e-04 2.849837e-04 1.779419e-05 4.330990e-04 -8.612408e-05 5.650344e-04 -1.705620e-04 6.596390e-04 -2.153303e-04 6.854989e-04 -2.098296e-04 6.210689e-04 -1.332520e-04 4.703458e-04 2.920157e-05 2.419122e-04 2.726532e-04 -4.421766e-05 5.766120e-04 -3.650293e-04 8.945720e-04 -6.900593e-04 1.178808e-03 -9.664138e-04 1.383764e-03 -1.133931e-03 1.468933e-03 -1.129910e-03 1.394839e-03 -9.226855e-04 1.110056e-03 -5.093243e-04 5.988680e-04 1.251648e-04 -8.485083e-05 9.955236e-04 -8.495540e-04 2.056541e-03 -1.590491e-03 3.198094e-03 -2.100672e-03 4.235508e-03 -1.945145e-03 4.542399e-03 1.759232e-04 -3.510034e-03 3.424688e-03 -1.542078e-04 3.546432e-03 5.176909e-04 
8.420579e-03 5.931618e-03 6.560729e-03 2.373036e-03 3.244984e-04 -1.036037e-02 -5.657568e-05 -7.030303e-03 5.434926e-04 -3.784787e-03 2.799858e-03 1.047080e-03 9.838470e-03 1.126612e-02 1.579282e-02 1.524109e-02 1.721140e-02 1.686113e-02 1.549072e-02 1.580582e-02 1.107335e-02 8.989231e-03 1.149540e-03 2.134208e-03 -2.946784e-03 -6.821182e-04 -4.694257e-03 -2.017520e-03 -5.416806e-03 -2.742670e-03 -5.642882e-03 -3.229008e-03 -5.646543e-03 -3.655630e-03 -5.565043e-03 -4.045718e-03 -5.420756e-03 -4.356841e-03 -5.232229e-03 -4.589180e-03 -5.070836e-03 -4.795260e-03 -5.005376e-03 -4.990710e-03 -5.027546e-03 -5.151799e-03 -5.116773e-03 -5.293024e-03 -5.294077e-03 -5.492843e-03 -5.640945e-03 -5.884133e-03 -6.263456e-03 -6.632257e-03 -7.388658e-03 -8.169673e-03 -9.529224e-03 -1.049106e-02 -9.839621e-03 -8.430234e-03 -9.653406e-03 -9.364078e-03 -1.085087e-02 -1.045580e-02 -9.032456e-03 -9.442156e-03 -8.493154e-03 -9.414245e-03 -9.130680e-03 -8.967508e-03 -8.187989e-03 -8.719855e-03 -9.241449e-03 -8.435355e-03 -7.680325e-03 -7.018711e-03 -6.824197e-03 -6.225039e-03 -6.426418e-03 -5.680663e-03 -6.270844e-03 -5.301151e-03 -6.253424e-03 -5.023619e-03 -6.273180e-03 -4.819404e-03 -6.282814e-03 -4.717539e-03 -6.273455e-03 -4.738885e-03 -6.205044e-03 -4.861453e-03 -6.045137e-03 -5.078143e-03 -5.794529e-03 -5.368583e-03 -5.464779e-03 -5.715743e-03 -5.109661e-03 -6.098516e-03 -4.772224e-03 -6.457462e-03 -4.494233e-03 -6.731900e-03 -4.313173e-03 -6.846317e-03 -4.266302e-03 -6.777137e-03 -4.441507e-03 -6.549720e-03 -4.888425e-03 -6.141777e-03 -5.557566e-03 -5.505201e-03 -6.399839e-03 -4.705225e-03 -7.478863e-03 -3.912239e-03 -8.847046e-03 -3.288550e-03 -1.041856e-02 -3.245938e-03 -1.142527e-02 -6.273341e-03 6.699244e-03 4.543183e-03 8.543834e-03 6.493647e-03 
6.120761e-03 7.508405e-03 4.839565e-03 6.833852e-03 -3.707132e-04 1.309239e-03 -1.730654e-02 -1.301699e-02 -1.203440e-02 -1.448534e-02 -9.668277e-03 -1.480111e-02 -6.781492e-03 -1.508274e-02 -1.004335e-02 -1.625494e-02 -1.117060e-02 -1.617940e-02 -1.148697e-02 -1.458476e-02 -1.093800e-02 -1.043923e-02 -1.165677e-02 -1.150657e-02 -1.252188e-02 -1.197453e-02 -1.313137e-02 -1.217761e-02 -1.354063e-02 -1.224998e-02 -1.378775e-02 -1.227935e-02 -1.392130e-02 -1.232341e-02 -1.397609e-02 -1.239416e-02 -1.395909e-02 -1.248042e-02 -1.388174e-02 -1.258290e-02 -1.377785e-02 -1.271699e-02 -1.368499e-02 -1.288270e-02 -1.361843e-02 -1.306668e-02 -1.359534e-02 -1.327390e-02 -1.365515e-02 -1.354558e-02 -1.386867e-02 -1.396664e-02 -1.433504e-02 -1.467701e-02 -1.522227e-02 -1.585895e-02 -1.628154e-02 -1.684191e-02 -1.647985e-02 -1.436394e-02 -1.505416e-02 -1.523265e-02 -1.618193e-02 -1.682605e-02 -1.468798e-02 -1.543269e-02 -1.427302e-02 -1.781866e-02 -1.638095e-02 -1.790536e-02 -1.569184e-02 -1.549694e-02 -1.507209e-02 -1.465588e-02 -1.432317e-02 -1.402551e-02 -1.399066e-02 -1.365652e-02 -1.383443e-02 -1.340809e-02 -1.377222e-02 -1.323667e-02 -1.376075e-02 -1.310674e-02 -1.376421e-02 -1.300074e-02 -1.377003e-02 -1.292382e-02 -1.378065e-02 -1.288103e-02 -1.378454e-02 -1.286638e-02 -1.376823e-02 -1.288259e-02 -1.372551e-02 -1.293127e-02 -1.365070e-02 -1.301750e-02 -1.355022e-02 -1.314662e-02 -1.342458e-02 -1.331100e-02 -1.327313e-02 -1.350135e-02 -1.309515e-02 -1.370076e-02 -1.289389e-02 -1.390727e-02 -1.269827e-02 -1.413131e-02 -1.253472e-02 -1.436074e-02 -1.240937e-02 -1.456766e-02 -1.234820e-02 -1.475407e-02 -1.244543e-02 -1.493276e-02 -1.284926e-02 -1.500807e-02 -1.383675e-02 -1.449635e-02 -1.672254e-02 -1.922747e-03 7.973477e-04 4.809487e-03 5.004001e-03 6.938283e-03 
1.748126e-02 2.128398e-02 1.896232e-02 2.514409e-02 2.343206e-02 3.720303e-02 1.386280e-02 2.423437e-02 1.531953e-02 1.998820e-02 1.377462e-02 1.635187e-02 7.465295e-03 1.135283e-02 9.784941e-03 1.084534e-02 1.063811e-02 1.044977e-02 1.108073e-02 9.772419e-03 1.133890e-02 8.175424e-03 1.600249e-02 1.387870e-02 1.838956e-02 1.655549e-02 1.945315e-02 1.799213e-02 1.988249e-02 1.882530e-02 1.997721e-02 1.936949e-02 1.993206e-02 1.980034e-02 1.985519e-02 2.015236e-02 1.975706e-02 2.039744e-02 1.964782e-02 2.054824e-02 1.958914e-02 2.066818e-02 1.964068e-02 2.078715e-02 1.979134e-02 2.090182e-02 2.002584e-02 2.105364e-02 2.038253e-02 2.135817e-02 2.098279e-02 2.200801e-02 2.201482e-02 2.327927e-02 2.384842e-02 2.562677e-02 2.645607e-02 2.798714e-02 2.683017e-02 2.378978e-02 2.409915e-02 2.539143e-02 2.731484e-02 2.705519e-02 2.542036e-02 2.374486e-02 2.443589e-02 2.790632e-02 2.735483e-02 2.812641e-02 2.576068e-02 2.460267e-02 2.496585e-02 2.372231e-02 2.286373e-02 2.239090e-02 2.177626e-02 2.165141e-02 2.121358e-02 2.115440e-02 2.094208e-02 2.081846e-02 2.083758e-02 2.057773e-02 2.079182e-02 2.040156e-02 2.075560e-02 2.031627e-02 2.071861e-02 2.033956e-02 2.064170e-02 2.044707e-02 2.049463e-02 2.062952e-02 2.027963e-02 2.086488e-02 2.000759e-02 2.113486e-02 1.972860e-02 2.141875e-02 1.948231e-02 2.166174e-02 1.930850e-02 2.181129e-02 1.924368e-02 2.180172e-02 1.932326e-02 2.161677e-02 1.963066e-02 2.128794e-02 2.021414e-02 2.080383e-02 2.103056e-02 2.013399e-02 2.204274e-02 1.936873e-02 2.332588e-02 1.872245e-02 2.492258e-02 1.845099e-02 2.659939e-02 1.922406e-02 2.663630e-02 3.007819e-02 1.602826e-02 2.131108e-02 1.650165e-02 2.027656e-02 
1.835901e-02 1.978343e-02 1.971682e-02 2.191617e-02 2.501774e-02 3.170376e-02 3.268835e-02 3.503629e-02 3.014927e-02 3.318580e-02 2.852884e-02 3.053447e-02 2.448831e-02 2.505278e-02 2.457309e-02 2.492409e-02 2.477150e-02 2.475737e-02 2.494866e-02 2.459954e-02 2.504565e-02 2.455719e-02 2.899016e-02 2.784550e-02 3.092070e-02 2.954362e-02 3.209528e-02 3.050757e-02 3.272148e-02 3.105492e-02 3.299029e-02 3.140483e-02 3.306561e-02 3.169409e-02 3.304958e-02 3.195311e-02 3.296684e-02 3.216111e-02 3.283836e-02 3.232434e-02 3.272206e-02 3.248415e-02 3.267423e-02 3.265474e-02 3.269807e-02 3.282465e-02 3.279400e-02 3.301672e-02 3.300209e-02 3.331050e-02 3.341463e-02 3.382927e-02 3.413198e-02 3.468144e-02 3.522175e-02 3.582144e-02 3.613583e-02 3.654033e-02 3.748245e-02 3.747376e-02 3.843599e-02 3.759332e-02 3.712259e-02 3.743193e-02 3.803029e-02 3.863365e-02 3.766430e-02 3.850950e-02 3.588479e-02 3.801254e-02 3.713365e-02 3.780229e-02 3.765587e-02 3.624823e-02 3.579766e-02 3.499709e-02 3.476744e-02 3.415319e-02 3.415834e-02 3.355062e-02 3.382793e-02 3.312649e-02 3.366857e-02 3.281600e-02 3.358457e-02 3.258550e-02 3.352857e-02 3.244714e-02 3.348581e-02 3.240978e-02 3.342054e-02 3.245407e-02 3.330293e-02 3.257356e-02 3.312743e-02 3.275427e-02 3.289648e-02 3.298541e-02 3.264289e-02 3.325390e-02 3.239233e-02 3.351990e-02 3.217095e-02 3.374309e-02 3.200383e-02 3.387225e-02 3.191793e-02 3.389253e-02 3.197923e-02 3.382329e-02 3.223025e-02 3.365027e-02 3.264803e-02 3.334375e-02 3.321709e-02 3.296097e-02 3.400955e-02 3.263845e-02 3.509973e-02 3.249318e-02 3.654022e-02 3.273304e-02 3.865309e-02 2.991539e-02 2.114117e-02 2.156570e-02 1.869089e-02 1.970634e-02 
2.450579e-02 2.593908e-02 2.498471e-02 2.668118e-02 2.656339e-02 2.886676e-02 3.331987e-02 3.502415e-02 3.259880e-02 3.564674e-02 3.312098e-02 3.572880e-02 3.469755e-02 3.531353e-02 3.478044e-02 3.516823e-02 3.501236e-02 3.497145e-02 3.521883e-02 3.477911e-02 3.533095e-02 3.472908e-02 3.481311e-02 3.354117e-02 3.451006e-02 3.315632e-02 3.449860e-02 3.308077e-02 3.453758e-02 3.313292e-02 3.455542e-02 3.324872e-02 3.453931e-02 3.340390e-02 3.449470e-02 3.357857e-02 3.442702e-02 3.375430e-02 3.434780e-02 3.392431e-02 3.427870e-02 3.409278e-02 3.424147e-02 3.426184e-02 3.424631e-02 3.442990e-02 3.429864e-02 3.459988e-02 3.440310e-02 3.477430e-02 3.454803e-02 3.492092e-02 3.464928e-02 3.487953e-02 3.443995e-02 3.436603e-02 3.404900e-02 3.369314e-02 3.306937e-02 3.492614e-02 3.432831e-02 3.411685e-02 3.321725e-02 3.377796e-02 3.341069e-02 3.495196e-02 3.371546e-02 3.270889e-02 3.341971e-02 3.351937e-02 3.389976e-02 3.529473e-02 3.430197e-02 3.534724e-02 3.495571e-02 3.536246e-02 3.504363e-02 3.513489e-02 3.497890e-02 3.487563e-02 3.490020e-02 3.464174e-02 3.484172e-02 3.444977e-02 3.480003e-02 3.430636e-02 3.476422e-02 3.421933e-02 3.472393e-02 3.419258e-02 3.466489e-02 3.422248e-02 3.457523e-02 3.430384e-02 3.445133e-02 3.442833e-02 3.429760e-02 3.458542e-02 3.412837e-02 3.476059e-02 3.396051e-02 3.493159e-02 3.381208e-02 3.507344e-02 3.370140e-02 3.516126e-02 3.364725e-02 3.518012e-02 3.367061e-02 3.512403e-02 3.377881e-02 3.498435e-02 3.395373e-02 3.475420e-02 3.415915e-02 3.444564e-02 3.434327e-02 3.408577e-02 3.441666e-02 3.370045e-02 3.429480e-02 3.331313e-02 3.437029e-02 2.889386e-02 2.733453e-02 2.679474e-02 2.519490e-02 2.590747e-02 
2.396409e-02 2.463999e-02 2.475403e-02 2.598933e-02 2.677757e-02 2.842927e-02 2.985824e-02 3.147253e-02 3.206932e-02 3.338267e-02 3.511806e-02 3.590102e-02 4.158123e-02 4.189158e-02 4.168457e-02 4.186238e-02 4.178191e-02 4.179200e-02 4.185741e-02 4.170573e-02 4.188442e-02 4.161630e-02 3.707500e-02 3.649558e-02 3.487508e-02 3.386635e-02 3.366413e-02 3.240784e-02 3.300573e-02 3.165238e-02 3.264075e-02 3.130143e-02 3.241745e-02 3.118176e-02 3.225850e-02 3.118946e-02 3.212617e-02 3.126009e-02 3.200767e-02 3.135779e-02 3.190689e-02 3.146546e-02 3.183196e-02 3.157132e-02 3.178373e-02 3.166276e-02 3.175493e-02 3.172618e-02 3.172805e-02 3.173820e-02 3.166102e-02 3.164223e-02 3.145921e-02 3.131572e-02 3.096074e-02 3.065925e-02 3.036811e-02 3.017041e-02 2.997170e-02 3.039282e-02 2.980296e-02 3.035129e-02 3.029466e-02 3.060637e-02 2.991989e-02 3.038566e-02 3.029719e-02 3.022101e-02 3.118733e-02 3.028113e-02 3.036228e-02 3.021588e-02 2.958765e-02 3.091801e-02 3.107849e-02 3.160537e-02 3.176753e-02 3.182784e-02 3.208289e-02 3.184653e-02 3.223470e-02 3.178350e-02 3.231577e-02 3.170103e-02 3.235971e-02 3.163183e-02 3.237549e-02 3.159664e-02 3.236298e-02 3.160700e-02 3.231650e-02 3.166507e-02 3.223084e-02 3.176771e-02 3.210654e-02 3.190721e-02 3.195155e-02 3.207249e-02 3.178185e-02 3.224786e-02 3.161642e-02 3.241086e-02 3.147450e-02 3.253536e-02 3.137430e-02 3.259566e-02 3.133293e-02 3.257323e-02 3.136449e-02 3.245529e-02 3.146735e-02 3.222678e-02 3.161385e-02 3.187111e-02 3.175101e-02 3.137737e-02 3.179765e-02 3.073475e-02 3.162244e-02 2.991612e-02 3.101422e-02 2.885649e-02 2.966484e-02 2.715291e-02 2.640449e-02 2.541473e-02 2.452302e-02 2.447398e-02 
2.687583e-02 2.774761e-02 2.734769e-02 2.865182e-02 2.894506e-02 3.048234e-02 3.171742e-02 3.325186e-02 3.377611e-02 3.521851e-02 3.669849e-02 3.768229e-02 4.332683e-02 4.369959e-02 4.342856e-02 4.364114e-02 4.355650e-02 4.353268e-02 4.367002e-02 4.341842e-02 4.372286e-02 4.333127e-02 3.910816e-02 3.848851e-02 3.706883e-02 3.599170e-02 3.587599e-02 3.461980e-02 3.521821e-02 3.394508e-02 3.486491e-02 3.366527e-02 3.466221e-02 3.359962e-02 3.452641e-02 3.364461e-02 3.441732e-02 3.374061e-02 3.431884e-02 3.385313e-02 3.422752e-02 3.396193e-02 3.414346e-02 3.405185e-02 3.406207e-02 3.410574e-02 3.396844e-02 3.409906e-02 3.383165e-02 3.399223e-02 3.359634e-02 3.372261e-02 3.318042e-02 3.321262e-02 3.249610e-02 3.240607e-02 3.154390e-02 3.182116e-02 3.210719e-02 3.327041e-02 3.280353e-02 3.312174e-02 3.204092e-02 3.263333e-02 3.277858e-02 3.363763e-02 3.323585e-02 3.288261e-02 3.201307e-02 3.214240e-02 3.230508e-02 3.282719e-02 3.239984e-02 3.327330e-02 3.317048e-02 3.377409e-02 3.370653e-02 3.403373e-02 3.404490e-02 3.414449e-02 3.426195e-02 3.417595e-02 3.440600e-02 3.417374e-02 3.450055e-02 3.416629e-02 3.455467e-02 3.417239e-02 3.457108e-02 3.420408e-02 3.454980e-02 3.426686e-02 3.449069e-02 3.436027e-02 3.439649e-02 3.447961e-02 3.427530e-02 3.461696e-02 3.414045e-02 3.476064e-02 3.400780e-02 3.489421e-02 3.389258e-02 3.499750e-02 3.380807e-02 3.505074e-02 3.376552e-02 3.503816e-02 3.377051e-02 3.494689e-02 3.381530e-02 3.476350e-02 3.387196e-02 3.447248e-02 3.388926e-02 3.405478e-02 3.379076e-02 3.348165e-02 3.347525e-02 3.269849e-02 3.281308e-02 3.156831e-02 3.159182e-02 2.975240e-02 2.914866e-02 2.838530e-02 2.749763e-02 2.767821e-02 
2.396481e-02 2.464192e-02 2.475418e-02 2.599100e-02 2.677707e-02 2.843114e-02 2.985752e-02 3.147411e-02 3.206860e-02 3.338369e-02 3.511773e-02 3.590163e-02 4.158175e-02 4.189168e-02 4.168473e-02 4.186219e-02 4.178176e-02 4.179150e-02 4.185689e-02 4.170480e-02 4.188350e-02 4.161463e-02 3.706968e-02 3.648949e-02 3.486638e-02 3.385919e-02 3.365622e-02 3.240159e-02 3.299882e-02 3.164461e-02 3.263148e-02 3.128672e-02 3.239977e-02 3.115405e-02 3.222868e-02 3.114791e-02 3.208538e-02 3.120628e-02 3.195519e-02 3.128842e-02 3.183473e-02 3.136995e-02 3.172545e-02 3.143402e-02 3.162281e-02 3.146145e-02 3.151117e-02 3.143104e-02 3.136812e-02 3.132064e-02 3.116253e-02 3.110411e-02 3.086141e-02 3.077026e-02 3.046486e-02 3.036678e-02 3.004909e-02 3.002043e-02 2.973293e-02 2.982624e-02 2.953774e-02 2.983650e-02 2.967978e-02 2.990491e-02 2.964135e-02 2.983342e-02 2.980342e-02 3.007625e-02 3.015726e-02 3.022247e-02 3.012990e-02 3.026020e-02 3.017870e-02 3.054454e-02 3.061693e-02 3.087148e-02 3.105522e-02 3.110934e-02 3.141879e-02 3.125553e-02 3.170489e-02 3.133712e-02 3.192616e-02 3.138325e-02 3.208923e-02 3.141653e-02 3.219512e-02 3.145627e-02 3.224503e-02 3.151929e-02 3.224116e-02 3.161497e-02 3.218367e-02 3.174173e-02 3.207473e-02 3.189373e-02 3.192655e-02 3.206410e-02 3.176022e-02 3.224250e-02 3.160042e-02 3.241021e-02 3.146616e-02 3.253763e-02 3.137093e-02 3.259662e-02 3.133113e-02 3.256993e-02 3.136181e-02 3.244642e-02 3.146263e-02 3.221362e-02 3.160927e-02 3.185940e-02 3.175170e-02 3.137239e-02 3.180418e-02 3.073546e-02 3.163092e-02 2.991979e-02 3.102145e-02 2.886080e-02 2.966898e-02 2.715748e-02 2.640703e-02 2.541832e-02 2.452446e-02 2.447656e-02 
2.450691e-02 2.594220e-02 2.498506e-02 2.668397e-02 2.656213e-02 2.887173e-02 3.331673e-02 3.502620e-02 3.259481e-02 3.564714e-02 3.311798e-02 3.572917e-02 3.469790e-02 3.531432e-02 3.478105e-02 3.516848e-02 3.501280e-02 3.497157e-02 3.521835e-02 3.477886e-02 3.532867e-02 3.472702e-02 3.480671e-02 3.352918e-02 3.449651e-02 3.314033e-02 3.448377e-02 3.306368e-02 3.452056e-02 3.310958e-02 3.452967e-02 3.320892e-02 3.449312e-02 3.333544e-02 3.442019e-02 3.347843e-02 3.432509e-02 3.362289e-02 3.421462e-02 3.375153e-02 3.409554e-02 3.385378e-02 3.397589e-02 3.392183e-02 3.385453e-02 3.394030e-02 3.371716e-02 3.389306e-02 3.354958e-02 3.377156e-02 3.333713e-02 3.356945e-02 3.306849e-02 3.329792e-02 3.276202e-02 3.301295e-02 3.249702e-02 3.284156e-02 3.242920e-02 3.288397e-02 3.242622e-02 3.285267e-02 3.234197e-02 3.281490e-02 3.236833e-02 3.286958e-02 3.238107e-02 3.278965e-02 3.230005e-02 3.275090e-02 3.238469e-02 3.291199e-02 3.258916e-02 3.313726e-02 3.291698e-02 3.337649e-02 3.327064e-02 3.357309e-02 3.359857e-02 3.371267e-02 3.388352e-02 3.380588e-02 3.412252e-02 3.386980e-02 3.431048e-02 3.391873e-02 3.444119e-02 3.396838e-02 3.451356e-02 3.403657e-02 3.453068e-02 3.413457e-02 3.449130e-02 3.425969e-02 3.439445e-02 3.440666e-02 3.425243e-02 3.457233e-02 3.408839e-02 3.475186e-02 3.393017e-02 3.493049e-02 3.379529e-02 3.507636e-02 3.369290e-02 3.516053e-02 3.364135e-02 3.517120e-02 3.366353e-02 3.510519e-02 3.376869e-02 3.495824e-02 3.394473e-02 3.473182e-02 3.416124e-02 3.443696e-02 3.435714e-02 3.408793e-02 3.443443e-02 3.370775e-02 3.431017e-02 3.331998e-02 3.437841e-02 2.890281e-02 2.733859e-02 2.680108e-02 2.519687e-02 2.591179e-02 
1.836018e-02 1.978738e-02 1.971747e-02 2.191987e-02 2.501640e-02 3.171070e-02 3.268634e-02 3.503967e-02 3.014780e-02 3.318819e-02 2.852850e-02 3.053569e-02 2.449003e-02 2.505333e-02 2.457360e-02 2.492382e-02 2.477145e-02 2.475665e-02 2.494747e-02 2.459819e-02 2.504306e-02 2.455397e-02 2.896647e-02 2.781649e-02 3.087759e-02 2.951905e-02 3.207194e-02 3.050578e-02 3.271748e-02 3.106321e-02 3.299273e-02 3.139821e-02 3.303696e-02 3.163129e-02 3.296921e-02 3.184392e-02 3.286653e-02 3.204101e-02 3.273901e-02 3.219471e-02 3.259883e-02 3.230631e-02 3.247992e-02 3.238974e-02 3.238775e-02 3.241528e-02 3.227995e-02 3.235637e-02 3.215251e-02 3.223897e-02 3.201476e-02 3.207574e-02 3.185752e-02 3.188183e-02 3.167988e-02 3.166885e-02 3.147492e-02 3.145358e-02 3.126257e-02 3.126701e-02 3.108720e-02 3.115120e-02 3.096596e-02 3.109963e-02 3.088575e-02 3.109902e-02 3.088348e-02 3.114932e-02 3.092904e-02 3.121837e-02 3.099814e-02 3.133996e-02 3.118313e-02 3.153551e-02 3.147776e-02 3.173429e-02 3.181422e-02 3.188755e-02 3.214694e-02 3.198214e-02 3.245650e-02 3.203986e-02 3.274520e-02 3.208555e-02 3.298984e-02 3.211934e-02 3.315856e-02 3.215353e-02 3.324658e-02 3.222677e-02 3.327307e-02 3.236696e-02 3.322503e-02 3.254536e-02 3.307352e-02 3.274366e-02 3.283977e-02 3.296759e-02 3.257174e-02 3.323012e-02 3.233808e-02 3.352468e-02 3.215810e-02 3.376742e-02 3.200854e-02 3.388832e-02 3.192327e-02 3.388976e-02 3.197631e-02 3.379334e-02 3.220715e-02 3.358937e-02 3.261261e-02 3.328817e-02 3.321455e-02 3.294980e-02 3.404101e-02 3.264984e-02 3.513299e-02 3.251074e-02 3.656313e-02 3.274620e-02 3.865421e-02 2.993030e-02 2.114462e-02 2.157497e-02 1.869251e-02 1.971191e-02 
1.748228e-02 2.128631e-02 1.896722e-02 2.514503e-02 2.344183e-02 3.720126e-02 1.388258e-02 2.423973e-02 1.534478e-02 1.999871e-02 1.379681e-02 1.636106e-02 7.475348e-03 1.135970e-02 9.791237e-03 1.084918e-02 1.064587e-02 1.045673e-02 1.108843e-02 9.782359e-03 1.133580e-02 8.170422e-03 1.595123e-02 1.384184e-02 1.830606e-02 1.653364e-02 1.940089e-02 1.801414e-02 1.986648e-02 1.887482e-02 1.998182e-02 1.941032e-02 1.990454e-02 1.977167e-02 1.976260e-02 2.006232e-02 1.963652e-02 2.029061e-02 1.952434e-02 2.042657e-02 1.943176e-02 2.048294e-02 1.939629e-02 2.049160e-02 1.941900e-02 2.042761e-02 1.943928e-02 2.027249e-02 1.945162e-02 2.007873e-02 1.947015e-02 1.987678e-02 1.948263e-02 1.969025e-02 1.947878e-02 1.951997e-02 1.942898e-02 1.937031e-02 1.935597e-02 1.928131e-02 1.926411e-02 1.923577e-02 1.920719e-02 1.920463e-02 1.914298e-02 1.919471e-02 1.907606e-02 1.926977e-02 1.902374e-02 1.934842e-02 1.899328e-02 1.946061e-02 1.908486e-02 1.967238e-02 1.931875e-02 1.987290e-02 1.957761e-02 1.999682e-02 1.982557e-02 2.004472e-02 2.005553e-02 2.005605e-02 2.027951e-02 2.006783e-02 2.046933e-02 2.007919e-02 2.058177e-02 2.010279e-02 2.060967e-02 2.018585e-02 2.057977e-02 2.036082e-02 2.047650e-02 2.058308e-02 2.026353e-02 2.082207e-02 1.997223e-02 2.107834e-02 1.966781e-02 2.136107e-02 1.944297e-02 2.165593e-02 1.932563e-02 2.184826e-02 1.928526e-02 2.184292e-02 1.936384e-02 2.164301e-02 1.965385e-02 2.128091e-02 2.019880e-02 2.075035e-02 2.098211e-02 2.007624e-02 2.202005e-02 1.935738e-02 2.333335e-02 1.873129e-02 2.492408e-02 1.846509e-02 2.658810e-02 1.923776e-02 2.660744e-02 3.008758e-02 1.601902e-02 2.131782e-02 1.649862e-02 2.028051e-02 
6.121689e-03 7.508174e-03 4.847000e-03 6.832944e-03 -3.536607e-04 1.303408e-03 -1.727785e-02 -1.301097e-02 -1.200094e-02 -1.447144e-02 -9.637609e-03 -1.478257e-02 -6.761103e-03 -1.506347e-02 -1.003949e-02 -1.622903e-02 -1.118400e-02 -1.614816e-02 -1.151709e-02 -1.455436e-02 -1.098697e-02 -1.042219e-02 -1.170054e-02 -1.147622e-02 -1.255403e-02 -1.193714e-02 -1.316320e-02 -1.213731e-02 -1.356767e-02 -1.220125e-02 -1.380469e-02 -1.221592e-02 -1.391473e-02 -1.223283e-02 -1.394171e-02 -1.228681e-02 -1.391651e-02 -1.237606e-02 -1.384242e-02 -1.248254e-02 -1.372738e-02 -1.260124e-02 -1.359293e-02 -1.273198e-02 -1.344975e-02 -1.285252e-02 -1.328778e-02 -1.294243e-02 -1.311864e-02 -1.300981e-02 -1.296361e-02 -1.306058e-02 -1.283595e-02 -1.310514e-02 -1.274982e-02 -1.315070e-02 -1.270440e-02 -1.319100e-02 -1.268012e-02 -1.319674e-02 -1.268768e-02 -1.321307e-02 -1.269136e-02 -1.321355e-02 -1.268019e-02 -1.318906e-02 -1.269821e-02 -1.313220e-02 -1.272249e-02 -1.306832e-02 -1.277009e-02 -1.305040e-02 -1.288746e-02 -1.305394e-02 -1.299840e-02 -1.303736e-02 -1.310411e-02 -1.300683e-02 -1.320491e-02 -1.296785e-02 -1.330383e-02 -1.293284e-02 -1.340826e-02 -1.290954e-02 -1.350940e-02 -1.289113e-02 -1.359246e-02 -1.287646e-02 -1.365372e-02 -1.287812e-02 -1.369888e-02 -1.290646e-02 -1.371678e-02 -1.294853e-02 -1.368673e-02 -1.299996e-02 -1.360983e-02 -1.307132e-02 -1.349847e-02 -1.318034e-02 -1.337461e-02 -1.333753e-02 -1.323610e-02 -1.351592e-02 -1.306166e-02 -1.369426e-02 -1.286156e-02 -1.388245e-02 -1.266977e-02 -1.409238e-02 -1.250999e-02 -1.431235e-02 -1.239556e-02 -1.453072e-02 -1.236704e-02 -1.474696e-02 -1.249365e-02 -1.494130e-02 -1.290517e-02 -1.501956e-02 -1.388721e-02 -1.450052e-02 -1.675289e-02 -1.931853e-03 7.813682e-04 4.806179e-03 4.998300e-03 6.937525e-03 
8.421692e-03 5.931381e-03 6.564281e-03 2.373140e-03 3.312195e-04 -1.036064e-02 -5.114531e-05 -7.031201e-03 5.470548e-04 -3.785969e-03 2.802968e-03 1.048506e-03 9.843070e-03 1.126866e-02 1.578755e-02 1.524871e-02 1.719209e-02 1.686401e-02 1.546320e-02 1.579782e-02 1.105144e-02 8.990629e-03 1.160362e-03 2.175057e-03 -2.909663e-03 -6.468919e-04 -4.687380e-03 -2.016117e-03 -5.441222e-03 -2.761521e-03 -5.684179e-03 -3.238937e-03 -5.656677e-03 -3.604368e-03 -5.518326e-03 -3.951220e-03 -5.363564e-03 -4.273442e-03 -5.197935e-03 -4.528110e-03 -5.035170e-03 -4.719112e-03 -4.921978e-03 -4.871292e-03 -4.866375e-03 -4.950685e-03 -4.810662e-03 -4.929133e-03 -4.750883e-03 -4.848940e-03 -4.696434e-03 -4.722125e-03 -4.617202e-03 -4.543806e-03 -4.475972e-03 -4.289016e-03 -4.234717e-03 -3.994845e-03 -4.008999e-03 -3.841531e-03 -3.771920e-03 -3.697727e-03 -3.696874e-03 -3.602720e-03 -3.729261e-03 -3.571281e-03 -3.756762e-03 -3.736635e-03 -3.837065e-03 -3.890275e-03 -3.886111e-03 -3.959346e-03 -3.965568e-03 -4.164353e-03 -4.332544e-03 -4.418508e-03 -4.735322e-03 -4.577606e-03 -5.101792e-03 -4.631213e-03 -5.422351e-03 -4.626282e-03 -5.715103e-03 -4.611174e-03 -5.956673e-03 -4.595044e-03 -6.106344e-03 -4.599141e-03 -6.157412e-03 -4.677149e-03 -6.135046e-03 -4.864867e-03 -6.019726e-03 -5.117291e-03 -5.771109e-03 -5.403108e-03 -5.420085e-03 -5.722950e-03 -5.034731e-03 -6.086408e-03 -4.713017e-03 -6.477533e-03 -4.486173e-03 -6.775083e-03 -4.325564e-03 -6.877611e-03 -4.278448e-03 -6.784463e-03 -4.443047e-03 -6.522017e-03 -4.862860e-03 -6.071286e-03 -5.513244e-03 -5.437918e-03 -6.396784e-03 -4.692408e-03 -7.518023e-03 -3.923741e-03 -8.885798e-03 -3.305010e-03 -1.044325e-02 -3.257465e-03 -1.142280e-02 -6.283260e-03 6.695009e-03 4.538469e-03 8.542436e-03 6.492320e-03 
3.318168e-03 -2.945025e-04 2.448999e-03 -3.101093e-03 3.308298e-04 -9.802047e-03 6.507369e-03 -1.857942e-03 1.559002e-03 -4.534794e-04 -2.235454e-03 -6.087613e-06 -7.541353e-03 -2.314994e-04 -4.456114e-03 1.093815e-03 -3.614102e-03 1.251051e-03 -3.540000e-03 -9.915558e-05 -4.199674e-03 -4.100703e-03 -2.599863e-03 -1.183530e-03 -1.455626e-03 2.086226e-04 -8.272000e-04 8.849889e-04 -4.058836e-04 1.151768e-03 -7.385177e-05 1.187486e-03 2.219131e-04 1.096169e-03 4.823185e-04 9.332098e-04 6.973479e-04 7.560457e-04 8.747837e-04 6.129162e-04 1.010620e-03 5.172437e-04 1.087527e-03 4.665764e-04 1.110089e-03 4.779612e-04 1.114207e-03 5.621488e-04 1.118390e-03 7.017574e-04 1.140846e-03 8.965539e-04 1.220628e-03 1.155916e-03 1.388305e-03 1.469497e-03 1.612788e-03 1.708923e-03 1.788840e-03 1.966586e-03 2.199045e-03 1.862811e-03 1.783198e-03 1.812220e-03 1.860934e-03 2.353712e-03 2.037134e-03 1.916408e-03 1.683509e-03 1.603928e-03 1.800919e-03 1.718294e-03 1.811430e-03 1.310877e-03 1.336607e-03 9.800034e-04 9.592779e-04 8.056625e-04 6.367077e-04 7.360321e-04 3.605130e-04 7.293144e-04 1.256909e-04 7.453028e-04 -5.290930e-05 7.589202e-04 -1.536478e-04 7.410700e-04 -1.699294e-04 6.551092e-04 -1.083238e-04 4.813030e-04 3.961234e-05 2.407245e-04 2.836514e-04 -4.354142e-05 5.958458e-04 -3.558612e-04 9.236847e-04 -6.774771e-04 1.199417e-03 -9.708263e-04 1.382048e-03 -1.152418e-03 1.456553e-03 -1.148054e-03 1.381616e-03 -9.331598e-04 1.102418e-03 -5.054506e-04 6.047287e-04 1.477719e-04 -6.769823e-05 1.020303e-03 -8.432848e-04 2.063842e-03 -1.596534e-03 3.197343e-03 -2.104708e-03 4.232180e-03 -1.943636e-03 4.537821e-03 1.846533e-04 -3.511565e-03 3.425548e-03 -1.552991e-04 3.546650e-03 5.175941e-04 
