# vtk DataFile Version 2.0
Comment goes here
ASCII

DATASET STRUCTURED_POINTS
FIELD FieldData 1
TIME 1 1 double
0.69000000
DIMENSIONS    128   16   1

ORIGIN    0.000   0.000   0.000
SPACING   0.0078125 0.015625   1.000

POINT_DATA   2048
SCALARS uX double
LOOKUP_TABLE default

-1.906584e-03 -2.852132e-03 -1.133840e-03 -3.000792e-03 -5.569399e-04 -6.015330e-03 -4.649624e-03 -1.010649e-03 -3.259722e-03 2.320290e-03 1.762162e-03 9.097826e-03 1.253812e-02 2.113507e-02 2.489163e-02 2.878207e-02 2.788777e-02 2.999853e-02 2.692057e-02 2.565788e-02 2.100728e-02 1.355695e-02 7.947419e-03 3.851952e-03 1.063444e-03 -5.114955e-04 -1.755204e-03 -2.511194e-03 -2.855710e-03 -3.492049e-03 -3.210680e-03 -4.002687e-03 -3.261066e-03 -4.276594e-03 -3.213780e-03 -4.409714e-03 -3.161628e-03 -4.438600e-03 -3.141598e-03 -4.381604e-03 -3.166420e-03 -4.255676e-03 -3.236044e-03 -4.078208e-03 -3.341338e-03 -3.866050e-03 -3.466177e-03 -3.633270e-03 -3.587819e-03 -3.387970e-03 -3.675219e-03 -3.127299e-03 -3.685350e-03 -2.829051e-03 -3.541428e-03 -2.377283e-03 -3.055235e-03 -1.770362e-03 -1.630643e-03 5.189583e-03 6.877557e-03 8.371032e-04 -2.229526e-03 -2.215780e-03 8.139551e-04 8.163457e-03 3.356992e-03 -3.535457e-03 -5.888040e-03 -7.193893e-03 -1.773862e-03 1.276191e-03 1.028837e-03 -1.468122e-03 -1.241868e-03 -2.776619e-03 -2.031425e-03 -3.181667e-03 -2.386318e-03 -3.232652e-03 -2.608652e-03 -3.113794e-03 -2.807609e-03 -2.909381e-03 -3.014224e-03 -2.664306e-03 -3.222567e-03 -2.411364e-03 -3.412840e-03 -2.184965e-03 -3.562488e-03 -2.019908e-03 -3.645886e-03 -1.942591e-03 -3.634844e-03 -1.969356e-03 -3.509015e-03 -2.111340e-03 -3.266159e-03 -2.371986e-03 -2.919798e-03 -2.735713e-03 -2.493001e-03 -3.163521e-03 -2.021963e-03 -3.601620e-03 -1.562638e-03 -3.989976e-03 -1.187652e-03 -4.263802e-03 -9.725527e-04 -4.352742e-03 -9.796595e-04 -4.187790e-03 -1.249521e-03 -3.723293e-03 -1.801762e-03 -2.969477e-03 -2.636943e-03 -2.034687e-03 -3.763168e-03 -1.233619e-03 -5.442920e-03 -5.060371e-04 -1.727065e-03 -1.039076e-03 -1.821525e-03 -2.299303e-03 
1.515158e-04 -6.833335e-04 1.250128e-03 -3.743298e-04 3.191938e-03 -4.126982e-03 -3.352243e-03 1.053041e-03 -4.013573e-03 1.558168e-03 -3.461357e-03 1.814383e-03 -3.383577e-03 1.364259e-04 -4.941142e-03 -2.284487e-03 -4.747136e-03 -3.221701e-03 -3.824180e-03 -3.397744e-03 -1.595027e-03 -2.253362e-03 -4.645330e-04 -1.482464e-03 -6.543493e-04 -1.230910e-03 -6.144959e-04 -1.138949e-03 -4.638801e-04 -1.150262e-03 -2.698517e-04 -1.200473e-03 -7.769834e-05 -1.246779e-03 7.490577e-05 -1.264781e-03 1.697896e-04 -1.231072e-03 2.075527e-04 -1.138028e-03 1.868623e-04 -9.966139e-04 1.086289e-04 -8.202240e-04 -9.296052e-06 -6.055914e-04 -1.277509e-04 -3.432439e-04 -2.070381e-04 -1.800409e-05 -1.799273e-04 4.370507e-04 9.464316e-05 1.206856e-03 9.643355e-04 2.842750e-03 2.982663e-03 4.489497e-03 1.731233e-03 3.457839e-03 4.043545e-03 1.328497e-03 3.423695e-03 3.271013e-03 1.073148e-03 4.743380e-03 1.637313e-03 1.679111e-03 4.084853e-03 1.856086e-03 4.109368e-03 4.474922e-03 3.939539e-03 1.535875e-03 1.915263e-03 3.207592e-04 1.165364e-03 -5.446394e-05 8.416755e-04 -6.648940e-05 6.574746e-04 9.209528e-05 4.911964e-04 3.257268e-04 3.042421e-04 5.882765e-04 1.056632e-04 8.552575e-04 -7.784491e-05 1.093834e-03 -2.269295e-04 1.267306e-03 -3.114612e-04 1.355322e-03 -3.018771e-04 1.335232e-03 -1.829105e-04 1.195240e-03 5.309926e-05 9.345826e-04 3.947599e-04 5.699217e-04 8.248168e-04 1.429614e-04 1.306218e-03 -2.995548e-04 1.777298e-03 -7.015994e-04 2.164302e-03 -9.967521e-04 2.394851e-03 -1.107805e-03 2.405060e-03 -9.663952e-04 2.142605e-03 -5.179235e-04 1.580004e-03 2.517504e-04 6.820151e-04 1.277504e-03 -6.353109e-04 2.369776e-03 -2.814742e-03 3.757636e-03 2.266435e-03 1.460794e-03 4.969821e-04 -2.285127e-04 
-3.478700e-03 -3.449237e-03 -6.316470e-04 1.625351e-03 8.474446e-03 7.821976e-03 5.287550e-03 7.133862e-03 4.504271e-03 4.616961e-03 2.537627e-03 -1.792662e-04 -2.296916e-03 -6.756098e-03 -7.390730e-03 -1.001538e-02 -8.829442e-03 -1.015492e-02 -8.876504e-03 -7.356469e-03 -7.153455e-03 -9.503253e-04 -7.753301e-04 3.992751e-03 3.173472e-03 6.117710e-03 4.996738e-03 6.850567e-03 5.975133e-03 7.005490e-03 6.601563e-03 6.934591e-03 7.057935e-03 6.796785e-03 7.390128e-03 6.657530e-03 7.615436e-03 6.571007e-03 7.756730e-03 6.557126e-03 7.808325e-03 6.594463e-03 7.753857e-03 6.652928e-03 7.602495e-03 6.732270e-03 7.391121e-03 6.812817e-03 7.103408e-03 6.814610e-03 6.687625e-03 6.634691e-03 6.050001e-03 6.101784e-03 4.995230e-03 4.855935e-03 3.075290e-03 2.903129e-03 5.285609e-04 -7.394083e-03 -1.233348e-02 -1.320588e-03 4.695514e-04 1.862036e-03 -2.432994e-03 -1.289549e-02 -4.891563e-03 4.490471e-03 8.359541e-03 9.538311e-03 3.354464e-03 -2.943230e-03 -1.220804e-04 1.646250e-03 4.234279e-03 4.367347e-03 6.170708e-03 5.747748e-03 7.115143e-03 6.591365e-03 7.550323e-03 7.188316e-03 7.683755e-03 7.654282e-03 7.629624e-03 8.045814e-03 7.480505e-03 8.399568e-03 7.309956e-03 8.704984e-03 7.144463e-03 8.929603e-03 7.028823e-03 9.069795e-03 7.002664e-03 9.097672e-03 7.077591e-03 9.000666e-03 7.270918e-03 8.776575e-03 7.573566e-03 8.438903e-03 7.982529e-03 8.033076e-03 8.467431e-03 7.591587e-03 8.961930e-03 7.156551e-03 9.391257e-03 6.787046e-03 9.688659e-03 6.564869e-03 9.791514e-03 6.555751e-03 9.633072e-03 6.829926e-03 9.180681e-03 7.441335e-03 8.383255e-03 8.419351e-03 7.269367e-03 9.959503e-03 6.247423e-03 1.251254e-02 7.480031e-03 1.314706e-03 -1.395602e-03 -3.531082e-03 
-5.472117e-03 -3.315868e-03 -2.685447e-03 4.385034e-03 6.562002e-03 2.126682e-02 1.529743e-02 1.187994e-02 1.710656e-02 1.088922e-02 1.709103e-02 1.081642e-02 1.751945e-02 1.300984e-02 1.888069e-02 1.556177e-02 1.852127e-02 1.669629e-02 1.737864e-02 1.709568e-02 1.493009e-02 1.611222e-02 1.300578e-02 1.555758e-02 1.275665e-02 1.531904e-02 1.273857e-02 1.511983e-02 1.285709e-02 1.492870e-02 1.305280e-02 1.472720e-02 1.328420e-02 1.451303e-02 1.351654e-02 1.428971e-02 1.372841e-02 1.407478e-02 1.390937e-02 1.388103e-02 1.404269e-02 1.370588e-02 1.410935e-02 1.353722e-02 1.409758e-02 1.336274e-02 1.399782e-02 1.314651e-02 1.376385e-02 1.280333e-02 1.329900e-02 1.218701e-02 1.241435e-02 1.101548e-02 1.071167e-02 8.717835e-03 7.880975e-03 6.896326e-03 1.014743e-02 1.162637e-02 1.073631e-02 1.241554e-02 8.177700e-03 8.527113e-03 1.272258e-02 1.029871e-02 1.252941e-02 8.741756e-03 5.323367e-03 7.273150e-03 7.408284e-03 7.769392e-03 9.687772e-03 1.082862e-02 1.172026e-02 1.218238e-02 1.274760e-02 1.291868e-02 1.331752e-02 1.335457e-02 1.362702e-02 1.363848e-02 1.377929e-02 1.383880e-02 1.383211e-02 1.399195e-02 1.382675e-02 1.412315e-02 1.379140e-02 1.424085e-02 1.373362e-02 1.434481e-02 1.366637e-02 1.444256e-02 1.360132e-02 1.453006e-02 1.354172e-02 1.460391e-02 1.349626e-02 1.465853e-02 1.346879e-02 1.468835e-02 1.347047e-02 1.469322e-02 1.350859e-02 1.466357e-02 1.358184e-02 1.458936e-02 1.368878e-02 1.446477e-02 1.383156e-02 1.429331e-02 1.401247e-02 1.407830e-02 1.422874e-02 1.383384e-02 1.448942e-02 1.357999e-02 1.482055e-02 1.333790e-02 1.538545e-02 1.315535e-02 1.689557e-02 1.130602e-02 4.830007e-03 -9.012878e-04 -3.535196e-03 -4.755635e-03 
-2.488859e-02 -2.334856e-02 -2.616186e-02 -2.395074e-02 -3.015697e-02 -1.984460e-02 -2.036226e-02 -2.429514e-02 -1.883376e-02 -2.267037e-02 -1.817841e-02 -1.952031e-02 -1.770596e-02 -1.820505e-02 -1.894047e-02 -1.863316e-02 -1.913944e-02 -1.890673e-02 -1.882311e-02 -1.932853e-02 -1.781737e-02 -1.956692e-02 -1.879396e-02 -2.060044e-02 -2.047430e-02 -2.111970e-02 -2.126709e-02 -2.122174e-02 -2.172071e-02 -2.118786e-02 -2.202183e-02 -2.112715e-02 -2.222985e-02 -2.108462e-02 -2.234790e-02 -2.106860e-02 -2.238068e-02 -2.109927e-02 -2.234798e-02 -2.117374e-02 -2.224249e-02 -2.125460e-02 -2.204180e-02 -2.129795e-02 -2.173910e-02 -2.128430e-02 -2.133881e-02 -2.115902e-02 -2.076552e-02 -2.077134e-02 -1.985678e-02 -1.987086e-02 -1.830569e-02 -1.797893e-02 -1.546397e-02 -1.410902e-02 -1.066968e-02 -1.051678e-02 -1.256696e-02 -1.211888e-02 -7.927249e-03 -1.559698e-02 -1.030657e-02 -1.194769e-02 -1.485583e-02 -7.930437e-03 -1.374277e-02 -1.312409e-02 -1.058937e-02 -1.306240e-02 -1.107539e-02 -8.333403e-03 -1.230365e-02 -1.470035e-02 -1.742670e-02 -1.792090e-02 -1.981250e-02 -1.964421e-02 -2.104163e-02 -2.068106e-02 -2.166447e-02 -2.137575e-02 -2.193930e-02 -2.188125e-02 -2.200502e-02 -2.227628e-02 -2.196323e-02 -2.261051e-02 -2.188970e-02 -2.288236e-02 -2.181174e-02 -2.306648e-02 -2.177224e-02 -2.316390e-02 -2.180758e-02 -2.315119e-02 -2.192700e-02 -2.302035e-02 -2.214605e-02 -2.277447e-02 -2.245506e-02 -2.243115e-02 -2.284960e-02 -2.203789e-02 -2.329793e-02 -2.162906e-02 -2.373421e-02 -2.124883e-02 -2.408509e-02 -2.095805e-02 -2.428436e-02 -2.083898e-02 -2.426761e-02 -2.095819e-02 -2.396500e-02 -2.139197e-02 -2.334215e-02 -2.222179e-02 -2.235964e-02 -2.357174e-02 -2.109584e-02 -2.591560e-02 -2.005500e-02 -3.142148e-02 -3.008139e-02 -2.681536e-02 -2.580377e-02 -2.417358e-02 
-3.029783e-02 -3.104568e-02 -3.301208e-02 -3.684595e-02 -4.160692e-02 -4.673551e-02 -4.125566e-02 -4.121682e-02 -4.036388e-02 -3.880612e-02 -3.812346e-02 -3.569209e-02 -3.499514e-02 -3.448411e-02 -3.488027e-02 -3.459613e-02 -3.479094e-02 -3.473857e-02 -3.463652e-02 -3.489207e-02 -3.444955e-02 -3.499423e-02 -3.681288e-02 -3.912668e-02 -3.909111e-02 -4.095955e-02 -4.023434e-02 -4.171913e-02 -4.093990e-02 -4.199033e-02 -4.143910e-02 -4.203341e-02 -4.181957e-02 -4.197676e-02 -4.210159e-02 -4.188052e-02 -4.229433e-02 -4.179303e-02 -4.241172e-02 -4.173380e-02 -4.244495e-02 -4.168711e-02 -4.237364e-02 -4.162351e-02 -4.218857e-02 -4.152259e-02 -4.188526e-02 -4.132727e-02 -4.139205e-02 -4.089783e-02 -4.056186e-02 -4.001449e-02 -3.914023e-02 -3.831592e-02 -3.670926e-02 -3.532416e-02 -3.325338e-02 -3.248333e-02 -3.321194e-02 -3.631462e-02 -3.431192e-02 -3.590708e-02 -3.445981e-02 -3.460787e-02 -3.703383e-02 -3.629918e-02 -3.722568e-02 -3.555011e-02 -3.526127e-02 -3.634241e-02 -3.715441e-02 -3.733338e-02 -3.891208e-02 -3.912473e-02 -4.022610e-02 -4.008866e-02 -4.114001e-02 -4.085897e-02 -4.174475e-02 -4.144877e-02 -4.209563e-02 -4.191962e-02 -4.225619e-02 -4.230621e-02 -4.227940e-02 -4.263327e-02 -4.222216e-02 -4.292396e-02 -4.213473e-02 -4.317339e-02 -4.203600e-02 -4.336263e-02 -4.195869e-02 -4.349252e-02 -4.193192e-02 -4.354528e-02 -4.196512e-02 -4.351274e-02 -4.207334e-02 -4.339287e-02 -4.225421e-02 -4.319320e-02 -4.251038e-02 -4.294176e-02 -4.282554e-02 -4.265584e-02 -4.315816e-02 -4.235934e-02 -4.346153e-02 -4.208948e-02 -4.369517e-02 -4.190226e-02 -4.382238e-02 -4.184837e-02 -4.380848e-02 -4.199597e-02 -4.366185e-02 -4.243029e-02 -4.342943e-02 -4.326097e-02 -4.331737e-02 -4.467273e-02 -4.386618e-02 -4.596826e-02 -3.971250e-02 -3.446385e-02 -3.191519e-02 -3.045561e-02 
-3.763716e-02 -3.835227e-02 -3.911090e-02 -4.177124e-02 -4.340337e-02 -4.918405e-02 -4.672087e-02 -4.590257e-02 -4.705553e-02 -4.569177e-02 -4.687563e-02 -4.574507e-02 -4.614953e-02 -4.563845e-02 -4.603915e-02 -4.575595e-02 -4.594436e-02 -4.591260e-02 -4.577510e-02 -4.607692e-02 -4.557534e-02 -4.616697e-02 -4.613484e-02 -4.730917e-02 -4.630189e-02 -4.760356e-02 -4.641756e-02 -4.761109e-02 -4.655428e-02 -4.750060e-02 -4.671640e-02 -4.734787e-02 -4.688816e-02 -4.718865e-02 -4.704714e-02 -4.704079e-02 -4.717517e-02 -4.691644e-02 -4.726022e-02 -4.681990e-02 -4.729142e-02 -4.674600e-02 -4.726095e-02 -4.668525e-02 -4.716908e-02 -4.663074e-02 -4.702565e-02 -4.657888e-02 -4.685002e-02 -4.654551e-02 -4.670392e-02 -4.662695e-02 -4.677736e-02 -4.714539e-02 -4.763581e-02 -4.900092e-02 -4.992535e-02 -5.043610e-02 -4.677960e-02 -4.549519e-02 -4.637028e-02 -4.471146e-02 -4.979110e-02 -4.914987e-02 -4.489375e-02 -4.742103e-02 -4.588541e-02 -5.010457e-02 -5.435544e-02 -5.177489e-02 -5.187422e-02 -5.117927e-02 -4.957259e-02 -4.756738e-02 -4.749476e-02 -4.664677e-02 -4.703599e-02 -4.653781e-02 -4.701624e-02 -4.670654e-02 -4.710294e-02 -4.696052e-02 -4.717534e-02 -4.722490e-02 -4.720068e-02 -4.747246e-02 -4.718384e-02 -4.769407e-02 -4.714248e-02 -4.788237e-02 -4.709370e-02 -4.802916e-02 -4.705664e-02 -4.812924e-02 -4.704820e-02 -4.817597e-02 -4.707909e-02 -4.816569e-02 -4.715651e-02 -4.809890e-02 -4.728096e-02 -4.798208e-02 -4.744840e-02 -4.782863e-02 -4.764629e-02 -4.765399e-02 -4.785280e-02 -4.747745e-02 -4.804224e-02 -4.732335e-02 -4.819026e-02 -4.722037e-02 -4.827721e-02 -4.719550e-02 -4.829223e-02 -4.727136e-02 -4.824345e-02 -4.745135e-02 -4.815755e-02 -4.767164e-02 -4.806643e-02 -4.764663e-02 -4.789799e-02 -4.588133e-02 -4.222787e-02 -4.016507e-02 -3.856225e-02 -3.792655e-02 
-3.755712e-02 -3.836673e-02 -3.872807e-02 -4.057326e-02 -4.132257e-02 -4.380929e-02 -4.386527e-02 -4.511621e-02 -4.590598e-02 -4.703825e-02 -4.868524e-02 -5.033451e-02 -5.232241e-02 -5.205846e-02 -5.224287e-02 -5.208076e-02 -5.216701e-02 -5.214135e-02 -5.209998e-02 -5.221897e-02 -5.206460e-02 -5.228700e-02 -4.890067e-02 -4.837441e-02 -4.617597e-02 -4.655826e-02 -4.504504e-02 -4.569278e-02 -4.459636e-02 -4.521697e-02 -4.447232e-02 -4.491734e-02 -4.450103e-02 -4.470759e-02 -4.459069e-02 -4.455419e-02 -4.469061e-02 -4.444645e-02 -4.477304e-02 -4.437985e-02 -4.482188e-02 -4.434878e-02 -4.482976e-02 -4.434757e-02 -4.479996e-02 -4.437516e-02 -4.474878e-02 -4.444003e-02 -4.471108e-02 -4.457690e-02 -4.476605e-02 -4.488939e-02 -4.509059e-02 -4.562722e-02 -4.606484e-02 -4.730520e-02 -4.804739e-02 -4.931021e-02 -4.840227e-02 -4.887853e-02 -5.036054e-02 -4.768888e-02 -4.706992e-02 -4.732513e-02 -4.681670e-02 -4.959752e-02 -4.766340e-02 -4.612144e-02 -4.571918e-02 -4.464397e-02 -4.641563e-02 -4.726630e-02 -4.694037e-02 -4.566777e-02 -4.578191e-02 -4.503539e-02 -4.533057e-02 -4.480562e-02 -4.512762e-02 -4.478981e-02 -4.502761e-02 -4.488355e-02 -4.495232e-02 -4.502796e-02 -4.487135e-02 -4.519140e-02 -4.478117e-02 -4.535500e-02 -4.469030e-02 -4.550290e-02 -4.461025e-02 -4.562062e-02 -4.455512e-02 -4.569736e-02 -4.453831e-02 -4.572413e-02 -4.456893e-02 -4.569566e-02 -4.465145e-02 -4.561164e-02 -4.478402e-02 -4.547856e-02 -4.495953e-02 -4.531047e-02 -4.516341e-02 -4.512561e-02 -4.537297e-02 -4.494596e-02 -4.556102e-02 -4.479681e-02 -4.570025e-02 -4.470440e-02 -4.576588e-02 -4.468773e-02 -4.573499e-02 -4.474546e-02 -4.558045e-02 -4.482685e-02 -4.524631e-02 -4.477848e-02 -4.460632e-02 -4.427465e-02 -4.338903e-02 -4.251522e-02 -4.055925e-02 -3.951288e-02 -3.822218e-02 -3.797473e-02 
-4.059927e-02 -4.137967e-02 -4.157120e-02 -4.333338e-02 -4.378432e-02 -4.609383e-02 -4.626999e-02 -4.737303e-02 -4.848087e-02 -4.933764e-02 -5.124212e-02 -5.271751e-02 -5.475028e-02 -5.444946e-02 -5.467088e-02 -5.449230e-02 -5.458140e-02 -5.457946e-02 -5.448676e-02 -5.467609e-02 -5.442415e-02 -5.474142e-02 -5.103251e-02 -5.057179e-02 -4.833132e-02 -4.882939e-02 -4.731367e-02 -4.806581e-02 -4.694919e-02 -4.766027e-02 -4.686922e-02 -4.739992e-02 -4.691498e-02 -4.721041e-02 -4.701066e-02 -4.706876e-02 -4.711719e-02 -4.697046e-02 -4.721429e-02 -4.691642e-02 -4.729308e-02 -4.690853e-02 -4.735409e-02 -4.695017e-02 -4.740827e-02 -4.704995e-02 -4.748043e-02 -4.722829e-02 -4.761476e-02 -4.752541e-02 -4.787975e-02 -4.800429e-02 -4.836027e-02 -4.872587e-02 -4.910447e-02 -4.966761e-02 -5.004357e-02 -5.054702e-02 -5.044628e-02 -5.117301e-02 -5.179646e-02 -5.015306e-02 -4.934890e-02 -4.948069e-02 -4.988751e-02 -5.137649e-02 -5.004884e-02 -4.846741e-02 -4.805496e-02 -4.790271e-02 -4.923352e-02 -4.978551e-02 -4.991222e-02 -4.903539e-02 -4.904916e-02 -4.829720e-02 -4.843175e-02 -4.784548e-02 -4.803000e-02 -4.762090e-02 -4.777006e-02 -4.754783e-02 -4.758700e-02 -4.756701e-02 -4.744257e-02 -4.763827e-02 -4.731983e-02 -4.773375e-02 -4.721468e-02 -4.783212e-02 -4.712983e-02 -4.791635e-02 -4.707177e-02 -4.797361e-02 -4.704846e-02 -4.799511e-02 -4.706619e-02 -4.797531e-02 -4.712703e-02 -4.791261e-02 -4.722844e-02 -4.781106e-02 -4.736382e-02 -4.768101e-02 -4.752199e-02 -4.753742e-02 -4.768670e-02 -4.739771e-02 -4.783792e-02 -4.728019e-02 -4.795512e-02 -4.720149e-02 -4.801967e-02 -4.716959e-02 -4.801230e-02 -4.716779e-02 -4.790012e-02 -4.712523e-02 -4.760683e-02 -4.687266e-02 -4.696258e-02 -4.611261e-02 -4.565844e-02 -4.445922e-02 -4.312936e-02 -4.217047e-02 -4.117047e-02 -4.097470e-02 
-3.755667e-02 -3.836650e-02 -3.872795e-02 -4.057343e-02 -4.132277e-02 -4.380956e-02 -4.386512e-02 -4.511506e-02 -4.590584e-02 -4.703689e-02 -4.868504e-02 -5.033362e-02 -5.232259e-02 -5.205885e-02 -5.224305e-02 -5.208134e-02 -5.216733e-02 -5.214210e-02 -5.210036e-02 -5.221964e-02 -5.206503e-02 -5.228721e-02 -4.890296e-02 -4.837561e-02 -4.617932e-02 -4.656012e-02 -4.505129e-02 -4.569767e-02 -4.460948e-02 -4.522953e-02 -4.449726e-02 -4.494177e-02 -4.454021e-02 -4.474609e-02 -4.464605e-02 -4.461089e-02 -4.476697e-02 -4.452921e-02 -4.487984e-02 -4.450253e-02 -4.497618e-02 -4.453390e-02 -4.505824e-02 -4.462686e-02 -4.513753e-02 -4.478679e-02 -4.523719e-02 -4.502913e-02 -4.539910e-02 -4.538584e-02 -4.568234e-02 -4.589994e-02 -4.614798e-02 -4.659947e-02 -4.681201e-02 -4.742374e-02 -4.754991e-02 -4.812971e-02 -4.808891e-02 -4.845837e-02 -4.847029e-02 -4.837753e-02 -4.805875e-02 -4.821519e-02 -4.793077e-02 -4.825930e-02 -4.781771e-02 -4.748657e-02 -4.727395e-02 -4.688167e-02 -4.713534e-02 -4.682051e-02 -4.698078e-02 -4.637330e-02 -4.657952e-02 -4.594739e-02 -4.619366e-02 -4.563167e-02 -4.586799e-02 -4.544157e-02 -4.559880e-02 -4.535859e-02 -4.536910e-02 -4.535685e-02 -4.516705e-02 -4.541186e-02 -4.498882e-02 -4.550004e-02 -4.483538e-02 -4.559771e-02 -4.471091e-02 -4.568254e-02 -4.462231e-02 -4.573727e-02 -4.458083e-02 -4.575240e-02 -4.459640e-02 -4.571979e-02 -4.466928e-02 -4.563313e-02 -4.479335e-02 -4.549521e-02 -4.495994e-02 -4.532039e-02 -4.515721e-02 -4.513079e-02 -4.536524e-02 -4.494938e-02 -4.555508e-02 -4.479883e-02 -4.569537e-02 -4.470285e-02 -4.576060e-02 -4.468344e-02 -4.573117e-02 -4.474138e-02 -4.557913e-02 -4.482422e-02 -4.524709e-02 -4.477748e-02 -4.460753e-02 -4.427376e-02 -4.338898e-02 -4.251408e-02 -4.055854e-02 -3.951179e-02 -3.822148e-02 -3.797402e-02 
-3.763706e-02 -3.835150e-02 -3.911174e-02 -4.177172e-02 -4.340565e-02 -4.918536e-02 -4.672103e-02 -4.589656e-02 -4.705568e-02 -4.568506e-02 -4.687527e-02 -4.573993e-02 -4.614889e-02 -4.563910e-02 -4.603909e-02 -4.575684e-02 -4.594453e-02 -4.591389e-02 -4.577577e-02 -4.607874e-02 -4.557728e-02 -4.616944e-02 -4.614397e-02 -4.731550e-02 -4.631461e-02 -4.761277e-02 -4.643708e-02 -4.762776e-02 -4.658831e-02 -4.753406e-02 -4.677523e-02 -4.740729e-02 -4.697782e-02 -4.727980e-02 -4.717328e-02 -4.717371e-02 -4.734912e-02 -4.710786e-02 -4.750140e-02 -4.709647e-02 -4.763235e-02 -4.714873e-02 -4.774975e-02 -4.726948e-02 -4.786496e-02 -4.745861e-02 -4.799390e-02 -4.771964e-02 -4.816482e-02 -4.806396e-02 -4.841069e-02 -4.849909e-02 -4.875200e-02 -4.900950e-02 -4.916894e-02 -4.952714e-02 -4.957789e-02 -4.993122e-02 -4.985628e-02 -5.011322e-02 -5.000317e-02 -5.012389e-02 -4.991433e-02 -5.004695e-02 -4.988547e-02 -4.996126e-02 -4.981830e-02 -4.965138e-02 -4.966785e-02 -4.942538e-02 -4.965265e-02 -4.930220e-02 -4.958286e-02 -4.903638e-02 -4.933299e-02 -4.870020e-02 -4.900913e-02 -4.839289e-02 -4.868199e-02 -4.816389e-02 -4.837936e-02 -4.802483e-02 -4.810747e-02 -4.796814e-02 -4.786623e-02 -4.797826e-02 -4.765589e-02 -4.803411e-02 -4.747637e-02 -4.811099e-02 -4.732904e-02 -4.818380e-02 -4.721753e-02 -4.823316e-02 -4.715356e-02 -4.825090e-02 -4.714924e-02 -4.822730e-02 -4.720312e-02 -4.815111e-02 -4.730749e-02 -4.802170e-02 -4.745508e-02 -4.785282e-02 -4.763830e-02 -4.766726e-02 -4.784036e-02 -4.748604e-02 -4.803228e-02 -4.732847e-02 -4.818187e-02 -4.721828e-02 -4.826795e-02 -4.718831e-02 -4.828621e-02 -4.726505e-02 -4.824257e-02 -4.744798e-02 -4.816073e-02 -4.767147e-02 -4.806996e-02 -4.764634e-02 -4.789786e-02 -4.587862e-02 -4.222700e-02 -4.016243e-02 -3.856156e-02 -3.792469e-02 
-3.029670e-02 -3.104555e-02 -3.301197e-02 -3.684772e-02 -4.160893e-02 -4.673895e-02 -4.125600e-02 -4.121343e-02 -4.036366e-02 -3.880162e-02 -3.812070e-02 -3.568807e-02 -3.499463e-02 -3.448464e-02 -3.488032e-02 -3.459798e-02 -3.479216e-02 -3.474177e-02 -3.463778e-02 -3.489563e-02 -3.445089e-02 -3.499989e-02 -3.682012e-02 -3.912837e-02 -3.909055e-02 -4.095118e-02 -4.023397e-02 -4.170949e-02 -4.095614e-02 -4.200372e-02 -4.149988e-02 -4.208758e-02 -4.192308e-02 -4.206129e-02 -4.223818e-02 -4.199866e-02 -4.246963e-02 -4.195742e-02 -4.263982e-02 -4.197335e-02 -4.276684e-02 -4.206563e-02 -4.287225e-02 -4.224428e-02 -4.296923e-02 -4.248957e-02 -4.305683e-02 -4.278786e-02 -4.316876e-02 -4.315401e-02 -4.334747e-02 -4.359506e-02 -4.362450e-02 -4.410498e-02 -4.399425e-02 -4.462175e-02 -4.438772e-02 -4.505048e-02 -4.472472e-02 -4.530287e-02 -4.493008e-02 -4.546182e-02 -4.509470e-02 -4.544315e-02 -4.510161e-02 -4.520516e-02 -4.502643e-02 -4.496168e-02 -4.495464e-02 -4.463934e-02 -4.480472e-02 -4.426073e-02 -4.462042e-02 -4.392721e-02 -4.439030e-02 -4.359685e-02 -4.410599e-02 -4.332051e-02 -4.380741e-02 -4.313182e-02 -4.351006e-02 -4.303810e-02 -4.321978e-02 -4.303083e-02 -4.294204e-02 -4.309976e-02 -4.268998e-02 -4.322388e-02 -4.246756e-02 -4.336941e-02 -4.227758e-02 -4.349353e-02 -4.211594e-02 -4.356313e-02 -4.201645e-02 -4.359431e-02 -4.202404e-02 -4.357454e-02 -4.212227e-02 -4.346265e-02 -4.228512e-02 -4.324817e-02 -4.250432e-02 -4.296195e-02 -4.278934e-02 -4.265862e-02 -4.312438e-02 -4.236810e-02 -4.344937e-02 -4.210430e-02 -4.368851e-02 -4.189469e-02 -4.380074e-02 -4.182383e-02 -4.379392e-02 -4.197910e-02 -4.366051e-02 -4.242241e-02 -4.343969e-02 -4.326553e-02 -4.333000e-02 -4.467408e-02 -4.386635e-02 -4.596522e-02 -3.970947e-02 -3.446085e-02 -3.191333e-02 -3.045391e-02 
-2.488783e-02 -2.334675e-02 -2.616157e-02 -2.395031e-02 -3.015758e-02 -1.984641e-02 -2.036923e-02 -2.431380e-02 -1.884196e-02 -2.268977e-02 -1.818281e-02 -1.953335e-02 -1.771050e-02 -1.820764e-02 -1.894206e-02 -1.863485e-02 -1.913922e-02 -1.890831e-02 -1.882142e-02 -1.933035e-02 -1.782275e-02 -1.956199e-02 -1.880389e-02 -2.057818e-02 -2.048026e-02 -2.107870e-02 -2.128387e-02 -2.117710e-02 -2.177023e-02 -2.117198e-02 -2.213820e-02 -2.115995e-02 -2.240347e-02 -2.114538e-02 -2.255608e-02 -2.115330e-02 -2.261986e-02 -2.121560e-02 -2.262337e-02 -2.135024e-02 -2.259188e-02 -2.156256e-02 -2.255444e-02 -2.185193e-02 -2.252474e-02 -2.218019e-02 -2.249045e-02 -2.251766e-02 -2.247924e-02 -2.287274e-02 -2.252694e-02 -2.324686e-02 -2.266188e-02 -2.364022e-02 -2.288762e-02 -2.401155e-02 -2.316465e-02 -2.431592e-02 -2.347375e-02 -2.456121e-02 -2.382624e-02 -2.456857e-02 -2.392430e-02 -2.452059e-02 -2.406596e-02 -2.448594e-02 -2.418237e-02 -2.412480e-02 -2.418861e-02 -2.384889e-02 -2.428563e-02 -2.372802e-02 -2.428705e-02 -2.344566e-02 -2.410117e-02 -2.313425e-02 -2.383597e-02 -2.288923e-02 -2.355192e-02 -2.274374e-02 -2.326243e-02 -2.269599e-02 -2.297115e-02 -2.272913e-02 -2.268565e-02 -2.282942e-02 -2.242731e-02 -2.297241e-02 -2.220682e-02 -2.311880e-02 -2.203306e-02 -2.321773e-02 -2.190307e-02 -2.323055e-02 -2.186184e-02 -2.318453e-02 -2.196687e-02 -2.306887e-02 -2.219121e-02 -2.283552e-02 -2.249352e-02 -2.247824e-02 -2.285346e-02 -2.204630e-02 -2.327266e-02 -2.162196e-02 -2.371849e-02 -2.125548e-02 -2.409922e-02 -2.097557e-02 -2.430170e-02 -2.082550e-02 -2.425699e-02 -2.091790e-02 -2.395454e-02 -2.135639e-02 -2.334070e-02 -2.219327e-02 -2.236889e-02 -2.355821e-02 -2.110945e-02 -2.590060e-02 -2.005862e-02 -3.141309e-02 -3.007921e-02 -2.680924e-02 -2.580255e-02 -2.417002e-02 
-5.469940e-03 -3.315386e-03 -2.682094e-03 4.383211e-03 6.568277e-03 2.126168e-02 1.529925e-02 1.184758e-02 1.710921e-02 1.084894e-02 1.709795e-02 1.077513e-02 1.753926e-02 1.297231e-02 1.890836e-02 1.553271e-02 1.855152e-02 1.668183e-02 1.740222e-02 1.709771e-02 1.494309e-02 1.613121e-02 1.301297e-02 1.559086e-02 1.274832e-02 1.535830e-02 1.271444e-02 1.516462e-02 1.282330e-02 1.498851e-02 1.302467e-02 1.481187e-02 1.326681e-02 1.462141e-02 1.351397e-02 1.442810e-02 1.375220e-02 1.425199e-02 1.397358e-02 1.411009e-02 1.417178e-02 1.401426e-02 1.434501e-02 1.397230e-02 1.449040e-02 1.397608e-02 1.460016e-02 1.401671e-02 1.468319e-02 1.409378e-02 1.475079e-02 1.419806e-02 1.480731e-02 1.431171e-02 1.483960e-02 1.439138e-02 1.480781e-02 1.438524e-02 1.467868e-02 1.425565e-02 1.446793e-02 1.433810e-02 1.459193e-02 1.441326e-02 1.458119e-02 1.430145e-02 1.460967e-02 1.457130e-02 1.485349e-02 1.469322e-02 1.483531e-02 1.449746e-02 1.474068e-02 1.442022e-02 1.470572e-02 1.434975e-02 1.464681e-02 1.427644e-02 1.456548e-02 1.421543e-02 1.446930e-02 1.417860e-02 1.436464e-02 1.417154e-02 1.425619e-02 1.419837e-02 1.414976e-02 1.425684e-02 1.404421e-02 1.433724e-02 1.393652e-02 1.442407e-02 1.381995e-02 1.450478e-02 1.370736e-02 1.458918e-02 1.361983e-02 1.467094e-02 1.355229e-02 1.472681e-02 1.349945e-02 1.474443e-02 1.346893e-02 1.472660e-02 1.348098e-02 1.468291e-02 1.354735e-02 1.460744e-02 1.366110e-02 1.448458e-02 1.380801e-02 1.430459e-02 1.398721e-02 1.408621e-02 1.421443e-02 1.385058e-02 1.448829e-02 1.360416e-02 1.482888e-02 1.336788e-02 1.539465e-02 1.317935e-02 1.689476e-02 1.131703e-02 4.830246e-03 -8.949935e-04 -3.533794e-03 -4.752563e-03 
-3.477777e-03 -3.448654e-03 -6.302077e-04 1.624056e-03 8.477426e-03 7.818834e-03 5.292486e-03 7.129105e-03 4.510289e-03 4.608567e-03 2.541481e-03 -1.911786e-04 -2.288999e-03 -6.768047e-03 -7.382215e-03 -1.002238e-02 -8.822348e-03 -1.015141e-02 -8.874867e-03 -7.339556e-03 -7.149909e-03 -9.286565e-04 -7.758884e-04 4.001595e-03 3.152508e-03 6.109130e-03 4.964772e-03 6.835352e-03 5.950330e-03 7.012547e-03 6.617042e-03 6.981508e-03 7.104439e-03 6.859895e-03 7.445745e-03 6.728569e-03 7.675244e-03 6.648448e-03 7.819161e-03 6.652473e-03 7.896354e-03 6.752845e-03 7.930252e-03 6.951284e-03 7.932036e-03 7.208797e-03 7.891324e-03 7.495162e-03 7.845808e-03 7.823545e-03 7.852715e-03 8.211876e-03 7.979598e-03 8.698403e-03 8.294056e-03 9.308806e-03 8.848121e-03 1.008549e-02 9.711985e-03 1.113722e-02 1.086637e-02 1.110867e-02 1.053221e-02 1.097076e-02 1.069461e-02 1.137840e-02 1.069930e-02 9.988467e-03 9.871751e-03 9.141074e-03 1.002784e-02 9.466665e-03 1.023865e-02 9.078251e-03 9.899404e-03 8.579803e-03 9.473103e-03 8.214764e-03 9.079987e-03 8.028635e-03 8.724626e-03 8.001600e-03 8.391135e-03 8.096749e-03 8.071787e-03 8.284400e-03 7.779210e-03 8.527865e-03 7.519973e-03 8.777835e-03 7.302428e-03 8.975038e-03 7.125345e-03 9.074481e-03 7.038846e-03 9.100601e-03 7.106833e-03 9.039419e-03 7.306186e-03 8.839241e-03 7.598752e-03 8.492256e-03 7.967851e-03 8.048315e-03 8.418737e-03 7.590952e-03 8.920304e-03 7.170163e-03 9.380172e-03 6.813609e-03 9.684238e-03 6.563712e-03 9.764612e-03 6.532753e-03 9.613764e-03 6.817158e-03 9.177097e-03 7.438979e-03 8.394373e-03 8.432268e-03 7.285095e-03 9.967110e-03 6.250442e-03 1.251845e-02 7.478904e-03 1.318161e-03 -1.395244e-03 -3.528858e-03 
1.524540e-04 -6.835201e-04 1.251060e-03 -3.761298e-04 3.192561e-03 -4.130780e-03 -3.348798e-03 1.058398e-03 -4.009244e-03 1.563986e-03 -3.459602e-03 1.819786e-03 -3.386794e-03 1.449202e-04 -4.947810e-03 -2.276356e-03 -4.754633e-03 -3.215201e-03 -3.828462e-03 -3.391907e-03 -1.594496e-03 -2.244311e-03 -4.640059e-04 -1.483471e-03 -6.600807e-04 -1.239883e-03 -6.202826e-04 -1.148997e-03 -4.610426e-04 -1.148962e-03 -2.454718e-04 -1.181048e-03 -3.583479e-05 -1.218488e-03 1.246851e-04 -1.231341e-03 2.247264e-04 -1.192143e-03 2.674950e-04 -1.086133e-03 2.621002e-04 -9.106682e-04 2.244807e-04 -6.696451e-04 1.701676e-04 -3.816857e-04 1.114149e-04 -5.825073e-05 8.457523e-05 3.129009e-04 1.414399e-04 7.541908e-04 3.405884e-04 1.290985e-03 7.183484e-04 1.900318e-03 1.220527e-03 2.380099e-03 1.524075e-03 2.791965e-03 2.478634e-03 2.530606e-03 2.143442e-03 2.557386e-03 2.159578e-03 3.195047e-03 2.610404e-03 2.305068e-03 2.600897e-03 1.862375e-03 2.810720e-03 2.116576e-03 2.739248e-03 1.485720e-03 2.290179e-03 9.928452e-04 1.864042e-03 6.535458e-04 1.476676e-03 4.858880e-04 1.131877e-03 4.681201e-04 8.158492e-04 5.632268e-04 5.208724e-04 7.351388e-04 2.535513e-04 9.450694e-04 2.377988e-05 1.148922e-03 -1.548919e-04 1.300571e-03 -2.692121e-04 1.365052e-03 -2.857038e-04 1.339081e-03 -1.705525e-04 1.210055e-03 6.826452e-05 9.577978e-04 4.072855e-04 5.898761e-04 8.235434e-04 1.492354e-04 1.293294e-03 -2.986295e-04 1.767852e-03 -6.949878e-04 2.166413e-03 -9.857443e-04 2.398467e-03 -1.108455e-03 2.398446e-03 -9.773142e-04 2.136374e-03 -5.271589e-04 1.577807e-03 2.452943e-04 6.846735e-04 1.276607e-03 -6.299848e-04 2.368197e-03 -2.811459e-03 3.759530e-03 2.266651e-03 1.462289e-03 4.977705e-04 -2.275759e-04 
