# vtk DataFile Version 2.0
Comment goes here
ASCII

DATASET STRUCTURED_POINTS
FIELD FieldData 1
TIME 1 1 double
0.59000000
DIMENSIONS    128   16   1

ORIGIN    0.000   0.000   0.000
SPACING   0.0078125 0.015625   1.000

POINT_DATA   2048
SCALARS uX double
LOOKUP_TABLE default

-1.938061e-03 -2.885204e-03 -1.163801e-03 -3.033225e-03 -5.864048e-04 -6.049966e-03 -4.678710e-03 -1.038948e-03 -3.281871e-03 2.300557e-03 1.748411e-03 9.086573e-03 1.253091e-02 2.112850e-02 2.488664e-02 2.877606e-02 2.788345e-02 2.999207e-02 2.691617e-02 2.564957e-02 2.099972e-02 1.354295e-02 7.931821e-03 3.831834e-03 1.044102e-03 -5.310862e-04 -1.771406e-03 -2.528203e-03 -2.873243e-03 -3.516391e-03 -3.240073e-03 -4.040449e-03 -3.300726e-03 -4.318824e-03 -3.251010e-03 -4.444874e-03 -3.190154e-03 -4.466927e-03 -3.166774e-03 -4.409553e-03 -3.192937e-03 -4.284200e-03 -3.262364e-03 -4.104838e-03 -3.366688e-03 -3.892467e-03 -3.495343e-03 -3.665654e-03 -3.626982e-03 -3.430313e-03 -3.725927e-03 -3.179481e-03 -3.748995e-03 -2.899870e-03 -3.645048e-03 -2.529621e-03 -3.301280e-03 -2.011720e-03 -1.720575e-03 5.250897e-03 6.945669e-03 7.565824e-04 -2.320941e-03 -2.283707e-03 8.092986e-04 8.191088e-03 3.313088e-03 -3.527135e-03 -5.785579e-03 -6.999179e-03 -1.531404e-03 1.530021e-03 1.206696e-03 -1.383870e-03 -1.209518e-03 -2.778536e-03 -2.044342e-03 -3.204860e-03 -2.410191e-03 -3.263388e-03 -2.640333e-03 -3.151538e-03 -2.844528e-03 -2.948542e-03 -3.050703e-03 -2.702362e-03 -3.261247e-03 -2.454469e-03 -3.459359e-03 -2.234053e-03 -3.611427e-03 -2.065001e-03 -3.687502e-03 -1.979113e-03 -3.672320e-03 -2.006877e-03 -3.553349e-03 -2.156595e-03 -3.316067e-03 -2.416493e-03 -2.963711e-03 -2.771152e-03 -2.530034e-03 -3.197875e-03 -2.065720e-03 -3.649267e-03 -1.622383e-03 -4.051718e-03 -1.254954e-03 -4.324745e-03 -1.030337e-03 -4.398886e-03 -1.021010e-03 -4.221394e-03 -1.285011e-03 -3.759658e-03 -1.846229e-03 -3.017935e-03 -2.691334e-03 -2.088167e-03 -3.815932e-03 -1.281190e-03 -5.487752e-03 -5.477575e-04 -1.762833e-03 -1.073780e-03 -1.853438e-03 -2.332760e-03 
1.253334e-04 -7.107763e-04 1.226606e-03 -3.989490e-04 3.171769e-03 -4.153288e-03 -3.372836e-03 1.032370e-03 -4.029684e-03 1.540432e-03 -3.475913e-03 1.797100e-03 -3.398238e-03 1.172198e-04 -4.957265e-03 -2.304210e-03 -4.763102e-03 -3.240957e-03 -3.840303e-03 -3.417032e-03 -1.613142e-03 -2.276974e-03 -4.926453e-04 -1.515045e-03 -6.834411e-04 -1.252492e-03 -6.263848e-04 -1.147749e-03 -4.736108e-04 -1.167021e-03 -2.915966e-04 -1.228526e-03 -1.047512e-04 -1.271304e-03 6.092516e-05 -1.272880e-03 1.678374e-04 -1.237525e-03 1.986404e-04 -1.154642e-03 1.693250e-04 -1.016936e-03 9.301826e-05 -8.322162e-04 -1.492037e-05 -6.092697e-04 -1.312834e-04 -3.456732e-04 -2.092268e-04 -1.492417e-05 -1.798340e-04 4.411321e-04 8.887796e-05 1.197725e-03 9.145922e-04 2.731439e-03 2.757736e-03 4.275245e-03 1.590891e-03 3.330932e-03 3.954215e-03 1.221625e-03 3.411466e-03 3.247733e-03 1.078783e-03 4.793003e-03 1.648972e-03 1.781254e-03 4.206380e-03 1.999144e-03 4.269522e-03 4.699144e-03 4.113737e-03 1.596846e-03 1.917573e-03 2.828462e-04 1.127707e-03 -9.045179e-05 8.193294e-04 -8.951219e-05 6.366228e-04 6.395130e-05 4.636589e-04 2.956973e-04 2.792391e-04 5.638201e-04 8.147011e-05 8.235084e-04 -1.170132e-04 1.049828e-03 -2.677365e-04 1.235248e-03 -3.354327e-04 1.337628e-03 -3.205197e-04 1.315006e-03 -2.122480e-04 1.161194e-03 1.177328e-05 8.992229e-04 3.635638e-04 5.511313e-04 8.054599e-04 1.248201e-04 1.274996e-03 -3.382653e-04 1.723139e-03 -7.578815e-04 2.105490e-03 -1.042970e-03 2.356601e-03 -1.132157e-03 2.384256e-03 -9.817273e-04 2.121082e-03 -5.464510e-04 1.536089e-03 2.000643e-04 6.265701e-04 1.230153e-03 -6.746867e-04 2.339692e-03 -2.842131e-03 3.731576e-03 2.244656e-03 1.437098e-03 4.733143e-04 -2.555080e-04 
-3.495246e-03 -3.465859e-03 -6.423833e-04 1.618875e-03 8.475438e-03 7.820243e-03 5.285231e-03 7.129553e-03 4.496856e-03 4.606268e-03 2.522872e-03 -1.951502e-04 -2.314703e-03 -6.773124e-03 -7.408810e-03 -1.002860e-02 -8.842348e-03 -1.016204e-02 -8.884016e-03 -7.358700e-03 -7.157930e-03 -9.583142e-04 -7.969763e-04 3.965004e-03 3.151178e-03 6.115877e-03 5.013393e-03 6.875157e-03 5.991966e-03 7.008621e-03 6.589898e-03 6.913422e-03 7.035599e-03 6.784306e-03 7.397276e-03 6.680721e-03 7.646741e-03 6.593165e-03 7.769619e-03 6.554970e-03 7.804952e-03 6.586535e-03 7.760357e-03 6.667767e-03 7.638384e-03 6.770086e-03 7.438956e-03 6.860609e-03 7.169421e-03 6.893381e-03 6.789586e-03 6.760610e-03 6.224188e-03 6.346619e-03 5.343120e-03 5.331738e-03 3.709237e-03 3.511007e-03 8.478128e-04 -7.348706e-03 -1.233712e-02 -1.134438e-03 6.435353e-04 1.996432e-03 -2.445745e-03 -1.302691e-02 -5.009775e-03 4.215853e-03 7.879647e-03 8.893350e-03 2.600673e-03 -3.747005e-03 -8.112726e-04 1.137603e-03 3.840493e-03 4.079055e-03 5.964034e-03 5.619611e-03 7.039019e-03 6.541988e-03 7.508559e-03 7.142434e-03 7.640963e-03 7.614082e-03 7.606746e-03 8.031843e-03 7.476759e-03 8.383365e-03 7.285621e-03 8.671078e-03 7.126676e-03 8.930423e-03 7.054612e-03 9.104033e-03 7.041077e-03 9.127414e-03 7.095009e-03 9.000953e-03 7.261135e-03 8.771313e-03 7.583357e-03 8.467262e-03 8.015146e-03 8.060369e-03 8.473454e-03 7.576394e-03 8.921762e-03 7.107978e-03 9.345997e-03 6.765410e-03 9.690480e-03 6.589742e-03 9.827289e-03 6.597714e-03 9.667571e-03 6.846322e-03 9.170015e-03 7.411908e-03 8.352972e-03 8.404965e-03 7.274982e-03 9.976228e-03 6.265408e-03 1.252537e-02 7.490000e-03 1.314316e-03 -1.402860e-03 -3.545985e-03 
-5.491525e-03 -3.333407e-03 -2.699350e-03 4.380520e-03 6.562383e-03 2.127560e-02 1.529772e-02 1.187900e-02 1.709755e-02 1.088196e-02 1.707873e-02 1.080992e-02 1.751197e-02 1.301131e-02 1.887879e-02 1.556797e-02 1.852405e-02 1.670629e-02 1.738641e-02 1.711015e-02 1.494554e-02 1.613622e-02 1.302173e-02 1.557700e-02 1.277282e-02 1.534443e-02 1.276289e-02 1.514659e-02 1.287191e-02 1.493722e-02 1.304660e-02 1.471673e-02 1.326590e-02 1.449902e-02 1.350556e-02 1.428704e-02 1.372834e-02 1.407491e-02 1.390954e-02 1.387823e-02 1.404581e-02 1.370714e-02 1.412424e-02 1.355173e-02 1.412989e-02 1.338999e-02 1.404113e-02 1.318279e-02 1.382144e-02 1.285871e-02 1.338119e-02 1.227544e-02 1.254629e-02 1.118263e-02 1.095724e-02 9.044464e-03 8.304289e-03 7.284663e-03 1.045673e-02 1.197565e-02 1.098002e-02 1.265854e-02 8.254364e-03 8.643805e-03 1.277751e-02 1.026517e-02 1.251143e-02 8.592061e-03 5.206644e-03 7.136965e-03 7.258730e-03 7.537040e-03 9.465911e-03 1.068779e-02 1.160335e-02 1.210827e-02 1.268017e-02 1.287991e-02 1.327942e-02 1.332685e-02 1.359229e-02 1.360426e-02 1.374467e-02 1.380802e-02 1.381278e-02 1.397867e-02 1.382689e-02 1.412091e-02 1.379771e-02 1.424436e-02 1.375403e-02 1.437062e-02 1.371103e-02 1.448702e-02 1.365534e-02 1.457613e-02 1.358959e-02 1.463982e-02 1.353327e-02 1.469050e-02 1.350914e-02 1.472832e-02 1.351395e-02 1.472830e-02 1.353781e-02 1.467985e-02 1.359132e-02 1.459193e-02 1.369601e-02 1.447864e-02 1.385931e-02 1.432965e-02 1.405965e-02 1.412904e-02 1.428376e-02 1.388305e-02 1.453442e-02 1.361666e-02 1.485921e-02 1.337704e-02 1.543039e-02 1.319589e-02 1.693314e-02 1.133455e-02 4.846071e-03 -8.977708e-04 -3.543082e-03 -4.770890e-03 
-2.492892e-02 -2.338669e-02 -2.620170e-02 -2.398513e-02 -3.019249e-02 -1.986754e-02 -2.038768e-02 -2.431655e-02 -1.885522e-02 -2.268483e-02 -1.819005e-02 -1.952585e-02 -1.770925e-02 -1.820479e-02 -1.894070e-02 -1.863366e-02 -1.914146e-02 -1.890952e-02 -1.882608e-02 -1.933127e-02 -1.781676e-02 -1.955619e-02 -1.877154e-02 -2.056833e-02 -2.045145e-02 -2.111560e-02 -2.128721e-02 -2.125070e-02 -2.175039e-02 -2.120707e-02 -2.203566e-02 -2.113453e-02 -2.224319e-02 -2.110849e-02 -2.239428e-02 -2.112959e-02 -2.244968e-02 -2.115807e-02 -2.239550e-02 -2.120693e-02 -2.227069e-02 -2.128161e-02 -2.207846e-02 -2.134963e-02 -2.180728e-02 -2.136506e-02 -2.142659e-02 -2.126094e-02 -2.088488e-02 -2.092077e-02 -2.003386e-02 -2.009441e-02 -1.859463e-02 -1.837290e-02 -1.600826e-02 -1.483849e-02 -1.162692e-02 -1.137459e-02 -1.323230e-02 -1.265157e-02 -8.332380e-03 -1.603525e-02 -1.053131e-02 -1.217944e-02 -1.491052e-02 -7.811426e-03 -1.359858e-02 -1.273644e-02 -1.012004e-02 -1.248673e-02 -1.042305e-02 -7.542156e-03 -1.158969e-02 -1.419758e-02 -1.704319e-02 -1.765020e-02 -1.962378e-02 -1.953183e-02 -2.098290e-02 -2.064738e-02 -2.164076e-02 -2.134790e-02 -2.191454e-02 -2.185924e-02 -2.199664e-02 -2.227719e-02 -2.196845e-02 -2.260495e-02 -2.186954e-02 -2.285460e-02 -2.179241e-02 -2.306708e-02 -2.179021e-02 -2.319288e-02 -2.183542e-02 -2.317477e-02 -2.193534e-02 -2.301683e-02 -2.213043e-02 -2.276776e-02 -2.246133e-02 -2.245979e-02 -2.288180e-02 -2.206955e-02 -2.330943e-02 -2.162448e-02 -2.370578e-02 -2.121532e-02 -2.405316e-02 -2.094932e-02 -2.429392e-02 -2.086875e-02 -2.430199e-02 -2.099606e-02 -2.399043e-02 -2.139906e-02 -2.332000e-02 -2.218316e-02 -2.231962e-02 -2.355111e-02 -2.109621e-02 -2.593273e-02 -2.007721e-02 -3.144592e-02 -3.011430e-02 -2.684928e-02 -2.584207e-02 -2.421142e-02 
-3.032796e-02 -3.107517e-02 -3.304681e-02 -3.688331e-02 -4.164938e-02 -4.677425e-02 -4.128924e-02 -4.124348e-02 -4.038379e-02 -3.881859e-02 -3.812930e-02 -3.569317e-02 -3.499412e-02 -3.448340e-02 -3.487918e-02 -3.459534e-02 -3.478991e-02 -3.473740e-02 -3.463496e-02 -3.489032e-02 -3.444785e-02 -3.499232e-02 -3.680575e-02 -3.911849e-02 -3.909096e-02 -4.097673e-02 -4.026755e-02 -4.175981e-02 -4.097658e-02 -4.201831e-02 -4.145727e-02 -4.204581e-02 -4.183188e-02 -4.199717e-02 -4.213680e-02 -4.192803e-02 -4.234827e-02 -4.184095e-02 -4.245398e-02 -4.176566e-02 -4.247792e-02 -4.171737e-02 -4.241759e-02 -4.167447e-02 -4.225956e-02 -4.159682e-02 -4.197355e-02 -4.141818e-02 -4.150440e-02 -4.102162e-02 -4.071121e-02 -4.018126e-02 -3.934955e-02 -3.856981e-02 -3.703533e-02 -3.570400e-02 -3.367423e-02 -3.279879e-02 -3.353986e-02 -3.669418e-02 -3.457781e-02 -3.629981e-02 -3.474310e-02 -3.500882e-02 -3.740817e-02 -3.664330e-02 -3.765011e-02 -3.587654e-02 -3.570313e-02 -3.673388e-02 -3.757344e-02 -3.775673e-02 -3.927149e-02 -3.942383e-02 -4.043815e-02 -4.025484e-02 -4.126665e-02 -4.097359e-02 -4.184273e-02 -4.152885e-02 -4.215366e-02 -4.195520e-02 -4.228166e-02 -4.232356e-02 -4.230529e-02 -4.266044e-02 -4.225727e-02 -4.294744e-02 -4.215500e-02 -4.318520e-02 -4.206257e-02 -4.340123e-02 -4.201831e-02 -4.355673e-02 -4.200174e-02 -4.360718e-02 -4.202031e-02 -4.355389e-02 -4.210903e-02 -4.342994e-02 -4.230333e-02 -4.325371e-02 -4.257489e-02 -4.300070e-02 -4.287012e-02 -4.268385e-02 -4.316939e-02 -4.236368e-02 -4.346985e-02 -4.211429e-02 -4.373871e-02 -4.196200e-02 -4.389180e-02 -4.192170e-02 -4.387820e-02 -4.205205e-02 -4.370041e-02 -4.245464e-02 -4.345482e-02 -4.329625e-02 -4.336794e-02 -4.472882e-02 -4.392418e-02 -4.602127e-02 -3.976289e-02 -3.450553e-02 -3.195222e-02 -3.048612e-02 
-3.762235e-02 -3.833783e-02 -3.910237e-02 -4.176829e-02 -4.340755e-02 -4.919202e-02 -4.672819e-02 -4.590829e-02 -4.705928e-02 -4.569406e-02 -4.687596e-02 -4.574461e-02 -4.614848e-02 -4.563804e-02 -4.603820e-02 -4.575528e-02 -4.594333e-02 -4.591175e-02 -4.577375e-02 -4.607571e-02 -4.557331e-02 -4.616521e-02 -4.613424e-02 -4.730951e-02 -4.630411e-02 -4.760911e-02 -4.642508e-02 -4.761972e-02 -4.656081e-02 -4.750489e-02 -4.671731e-02 -4.734729e-02 -4.688716e-02 -4.718955e-02 -4.705170e-02 -4.704836e-02 -4.718612e-02 -4.692712e-02 -4.727314e-02 -4.683125e-02 -4.730763e-02 -4.676226e-02 -4.728644e-02 -4.671335e-02 -4.720964e-02 -4.667471e-02 -4.708315e-02 -4.664124e-02 -4.692786e-02 -4.663032e-02 -4.680265e-02 -4.673030e-02 -4.688446e-02 -4.724265e-02 -4.769667e-02 -4.899385e-02 -4.980716e-02 -5.040837e-02 -4.679860e-02 -4.550074e-02 -4.642565e-02 -4.481338e-02 -5.004665e-02 -4.937182e-02 -4.517612e-02 -4.775095e-02 -4.617438e-02 -5.047379e-02 -5.468350e-02 -5.208371e-02 -5.219179e-02 -5.159990e-02 -4.996954e-02 -4.782600e-02 -4.767503e-02 -4.675863e-02 -4.711321e-02 -4.658637e-02 -4.704883e-02 -4.672343e-02 -4.711123e-02 -4.695825e-02 -4.717132e-02 -4.721541e-02 -4.719570e-02 -4.746476e-02 -4.718240e-02 -4.768863e-02 -4.714263e-02 -4.787988e-02 -4.710005e-02 -4.803672e-02 -4.707374e-02 -4.814626e-02 -4.707061e-02 -4.819521e-02 -4.709975e-02 -4.818203e-02 -4.717374e-02 -4.811483e-02 -4.729989e-02 -4.800146e-02 -4.746842e-02 -4.784586e-02 -4.765987e-02 -4.766272e-02 -4.785764e-02 -4.748034e-02 -4.804644e-02 -4.733131e-02 -4.820373e-02 -4.723842e-02 -4.829936e-02 -4.721880e-02 -4.831582e-02 -4.729140e-02 -4.826082e-02 -4.746455e-02 -4.817136e-02 -4.768515e-02 -4.808333e-02 -4.766234e-02 -4.791449e-02 -4.589348e-02 -4.223538e-02 -4.016379e-02 -3.855497e-02 -3.791259e-02 
-3.749781e-02 -3.830748e-02 -3.867417e-02 -4.052395e-02 -4.128072e-02 -4.377240e-02 -4.383397e-02 -4.508916e-02 -4.588470e-02 -4.702200e-02 -4.867529e-02 -5.032875e-02 -5.232128e-02 -5.205698e-02 -5.224156e-02 -5.207909e-02 -5.216552e-02 -5.213941e-02 -5.209820e-02 -5.221669e-02 -5.206249e-02 -5.228434e-02 -4.889336e-02 -4.836387e-02 -4.616063e-02 -4.654039e-02 -4.502337e-02 -4.566806e-02 -4.456696e-02 -4.518342e-02 -4.443447e-02 -4.487640e-02 -4.445856e-02 -4.466467e-02 -4.454954e-02 -4.451366e-02 -4.465237e-02 -4.440701e-02 -4.473536e-02 -4.433982e-02 -4.478487e-02 -4.431000e-02 -4.479620e-02 -4.431316e-02 -4.477185e-02 -4.434577e-02 -4.472486e-02 -4.441426e-02 -4.468972e-02 -4.455369e-02 -4.474432e-02 -4.486425e-02 -4.505897e-02 -4.558481e-02 -4.599218e-02 -4.719773e-02 -4.788604e-02 -4.923160e-02 -4.833788e-02 -4.884584e-02 -5.039695e-02 -4.761631e-02 -4.706744e-02 -4.727664e-02 -4.680317e-02 -4.960496e-02 -4.759635e-02 -4.612492e-02 -4.568920e-02 -4.467456e-02 -4.644356e-02 -4.727533e-02 -4.695119e-02 -4.565911e-02 -4.577921e-02 -4.502594e-02 -4.532472e-02 -4.479556e-02 -4.511770e-02 -4.477344e-02 -4.500909e-02 -4.485740e-02 -4.492544e-02 -4.499495e-02 -4.484053e-02 -4.515574e-02 -4.474872e-02 -4.531730e-02 -4.465593e-02 -4.546463e-02 -4.457768e-02 -4.558697e-02 -4.452804e-02 -4.566908e-02 -4.451427e-02 -4.569722e-02 -4.454376e-02 -4.566722e-02 -4.462453e-02 -4.558359e-02 -4.475873e-02 -4.545328e-02 -4.493538e-02 -4.528415e-02 -4.513515e-02 -4.509354e-02 -4.533855e-02 -4.490944e-02 -4.552534e-02 -4.476261e-02 -4.566964e-02 -4.467587e-02 -4.573999e-02 -4.466127e-02 -4.570814e-02 -4.471449e-02 -4.554700e-02 -4.478886e-02 -4.520810e-02 -4.473870e-02 -4.456898e-02 -4.423629e-02 -4.335193e-02 -4.247450e-02 -4.051607e-02 -3.946281e-02 -3.816833e-02 -3.791547e-02 
-4.052186e-02 -4.130281e-02 -4.149890e-02 -4.326587e-02 -4.372362e-02 -4.603949e-02 -4.622232e-02 -4.733253e-02 -4.844845e-02 -4.931398e-02 -5.122750e-02 -5.271026e-02 -5.474907e-02 -5.444826e-02 -5.466968e-02 -5.449104e-02 -5.458013e-02 -5.457808e-02 -5.448534e-02 -5.467450e-02 -5.442241e-02 -5.473956e-02 -5.102420e-02 -5.055862e-02 -4.831052e-02 -4.880294e-02 -4.728053e-02 -4.802764e-02 -4.690540e-02 -4.761193e-02 -4.681633e-02 -4.734344e-02 -4.685586e-02 -4.714935e-02 -4.694920e-02 -4.700649e-02 -4.705576e-02 -4.690802e-02 -4.715291e-02 -4.685318e-02 -4.723099e-02 -4.684380e-02 -4.729047e-02 -4.688289e-02 -4.734108e-02 -4.697714e-02 -4.740508e-02 -4.714438e-02 -4.752419e-02 -4.742288e-02 -4.776502e-02 -4.787359e-02 -4.820904e-02 -4.855233e-02 -4.889671e-02 -4.942876e-02 -4.976106e-02 -5.026347e-02 -5.019093e-02 -5.095726e-02 -5.161930e-02 -4.993070e-02 -4.915588e-02 -4.928984e-02 -4.972308e-02 -5.124118e-02 -4.991206e-02 -4.838026e-02 -4.798427e-02 -4.787996e-02 -4.922070e-02 -4.975998e-02 -4.986037e-02 -4.897130e-02 -4.898655e-02 -4.823368e-02 -4.837420e-02 -4.778841e-02 -4.797775e-02 -4.756741e-02 -4.771955e-02 -4.749455e-02 -4.753626e-02 -4.751310e-02 -4.739153e-02 -4.758381e-02 -4.726819e-02 -4.767835e-02 -4.716214e-02 -4.777638e-02 -4.707771e-02 -4.786230e-02 -4.702185e-02 -4.792227e-02 -4.700048e-02 -4.794529e-02 -4.701866e-02 -4.792611e-02 -4.708008e-02 -4.786504e-02 -4.718341e-02 -4.776584e-02 -4.732027e-02 -4.763630e-02 -4.747733e-02 -4.749052e-02 -4.763920e-02 -4.734830e-02 -4.778891e-02 -4.723058e-02 -4.790721e-02 -4.715353e-02 -4.797325e-02 -4.712181e-02 -4.796438e-02 -4.711647e-02 -4.784732e-02 -4.706838e-02 -4.754911e-02 -4.681210e-02 -4.690275e-02 -4.605104e-02 -4.559764e-02 -4.439558e-02 -4.306387e-02 -4.209986e-02 -4.109697e-02 -4.089722e-02 
-3.749597e-02 -3.830612e-02 -3.867301e-02 -4.052331e-02 -4.128020e-02 -4.377232e-02 -4.383366e-02 -4.508846e-02 -4.588514e-02 -4.702175e-02 -4.867580e-02 -5.032867e-02 -5.232101e-02 -5.205681e-02 -5.224158e-02 -5.207915e-02 -5.216579e-02 -5.213971e-02 -5.209876e-02 -5.221717e-02 -5.206325e-02 -5.228478e-02 -4.889543e-02 -4.836553e-02 -4.616472e-02 -4.654363e-02 -4.503204e-02 -4.567675e-02 -4.458510e-02 -4.520060e-02 -4.446250e-02 -4.490102e-02 -4.449514e-02 -4.469775e-02 -4.459736e-02 -4.456186e-02 -4.471990e-02 -4.448188e-02 -4.483366e-02 -4.445393e-02 -4.492732e-02 -4.448119e-02 -4.500452e-02 -4.456792e-02 -4.507599e-02 -4.471777e-02 -4.516242e-02 -4.494327e-02 -4.530317e-02 -4.527630e-02 -4.556055e-02 -4.576517e-02 -4.600004e-02 -4.643967e-02 -4.663750e-02 -4.723937e-02 -4.735258e-02 -4.793292e-02 -4.789458e-02 -4.825975e-02 -4.828511e-02 -4.817214e-02 -4.786742e-02 -4.801387e-02 -4.773768e-02 -4.807104e-02 -4.762160e-02 -4.730411e-02 -4.708391e-02 -4.670693e-02 -4.695999e-02 -4.665271e-02 -4.682258e-02 -4.623004e-02 -4.645735e-02 -4.584335e-02 -4.611057e-02 -4.556205e-02 -4.581310e-02 -4.539315e-02 -4.555923e-02 -4.532073e-02 -4.533742e-02 -4.532500e-02 -4.513989e-02 -4.538217e-02 -4.496106e-02 -4.546730e-02 -4.480316e-02 -4.556078e-02 -4.467584e-02 -4.564556e-02 -4.458953e-02 -4.570414e-02 -4.455075e-02 -4.571992e-02 -4.456461e-02 -4.568574e-02 -4.463756e-02 -4.560236e-02 -4.476725e-02 -4.547142e-02 -4.493987e-02 -4.530000e-02 -4.513652e-02 -4.510603e-02 -4.533793e-02 -4.491789e-02 -4.552302e-02 -4.476592e-02 -4.566608e-02 -4.467611e-02 -4.573900e-02 -4.466287e-02 -4.571212e-02 -4.471870e-02 -4.555403e-02 -4.479285e-02 -4.521255e-02 -4.473790e-02 -4.456756e-02 -4.423176e-02 -4.334802e-02 -4.247011e-02 -4.051245e-02 -3.945945e-02 -3.816565e-02 -3.791321e-02 
-3.761966e-02 -3.833477e-02 -3.910092e-02 -4.176682e-02 -4.340815e-02 -4.919261e-02 -4.672886e-02 -4.590508e-02 -4.706320e-02 -4.569229e-02 -4.687962e-02 -4.574304e-02 -4.614781e-02 -4.563732e-02 -4.603785e-02 -4.575522e-02 -4.594340e-02 -4.591238e-02 -4.577493e-02 -4.607699e-02 -4.557610e-02 -4.616640e-02 -4.613905e-02 -4.731236e-02 -4.631349e-02 -4.761630e-02 -4.644508e-02 -4.764020e-02 -4.660205e-02 -4.754553e-02 -4.678127e-02 -4.740672e-02 -4.697205e-02 -4.727055e-02 -4.716349e-02 -4.716432e-02 -4.734176e-02 -4.710084e-02 -4.749436e-02 -4.708632e-02 -4.761948e-02 -4.713081e-02 -4.772798e-02 -4.724094e-02 -4.783064e-02 -4.741487e-02 -4.794082e-02 -4.765226e-02 -4.808276e-02 -4.796410e-02 -4.829510e-02 -4.836719e-02 -4.860577e-02 -4.884850e-02 -4.899484e-02 -4.934043e-02 -4.938172e-02 -4.972626e-02 -4.965022e-02 -4.990320e-02 -4.980254e-02 -4.992263e-02 -4.972946e-02 -4.987191e-02 -4.972903e-02 -4.982214e-02 -4.969282e-02 -4.954338e-02 -4.956783e-02 -4.933951e-02 -4.957275e-02 -4.923104e-02 -4.951895e-02 -4.898439e-02 -4.929556e-02 -4.867705e-02 -4.900114e-02 -4.839472e-02 -4.869406e-02 -4.817968e-02 -4.840088e-02 -4.804644e-02 -4.813348e-02 -4.799361e-02 -4.789506e-02 -4.800370e-02 -4.768054e-02 -4.805179e-02 -4.749112e-02 -4.811919e-02 -4.733658e-02 -4.818936e-02 -4.722693e-02 -4.824348e-02 -4.716639e-02 -4.826100e-02 -4.715830e-02 -4.823380e-02 -4.721198e-02 -4.816264e-02 -4.732564e-02 -4.804470e-02 -4.748383e-02 -4.788251e-02 -4.766778e-02 -4.769172e-02 -4.786106e-02 -4.750116e-02 -4.804626e-02 -4.734166e-02 -4.820035e-02 -4.724180e-02 -4.829975e-02 -4.722343e-02 -4.832421e-02 -4.729955e-02 -4.827393e-02 -4.747155e-02 -4.817904e-02 -4.768287e-02 -4.807979e-02 -4.765401e-02 -4.790707e-02 -4.588534e-02 -4.222984e-02 -4.015756e-02 -3.855105e-02 -3.790806e-02 
-3.032355e-02 -3.107210e-02 -3.304365e-02 -3.688217e-02 -4.164841e-02 -4.677516e-02 -4.128763e-02 -4.124031e-02 -4.038568e-02 -3.881928e-02 -3.813195e-02 -3.569431e-02 -3.499393e-02 -3.448282e-02 -3.487937e-02 -3.459545e-02 -3.479045e-02 -3.473839e-02 -3.463668e-02 -3.489225e-02 -3.445081e-02 -3.499346e-02 -3.680852e-02 -3.912130e-02 -3.909191e-02 -4.096858e-02 -4.027241e-02 -4.176907e-02 -4.102650e-02 -4.206674e-02 -4.154221e-02 -4.210498e-02 -4.192388e-02 -4.205494e-02 -4.223618e-02 -4.200662e-02 -4.249217e-02 -4.198956e-02 -4.267548e-02 -4.200375e-02 -4.279161e-02 -4.208440e-02 -4.288803e-02 -4.225494e-02 -4.297667e-02 -4.249196e-02 -4.305285e-02 -4.276818e-02 -4.312833e-02 -4.309139e-02 -4.327182e-02 -4.351334e-02 -4.354201e-02 -4.402049e-02 -4.390950e-02 -4.453462e-02 -4.429750e-02 -4.494685e-02 -4.460633e-02 -4.516319e-02 -4.478489e-02 -4.531098e-02 -4.495834e-02 -4.532327e-02 -4.501106e-02 -4.513933e-02 -4.497699e-02 -4.492086e-02 -4.491363e-02 -4.460267e-02 -4.476774e-02 -4.422417e-02 -4.458468e-02 -4.389975e-02 -4.438109e-02 -4.360782e-02 -4.413680e-02 -4.336081e-02 -4.385518e-02 -4.317818e-02 -4.355715e-02 -4.308214e-02 -4.327095e-02 -4.308950e-02 -4.301257e-02 -4.317038e-02 -4.275556e-02 -4.327411e-02 -4.250408e-02 -4.339054e-02 -4.229250e-02 -4.351092e-02 -4.214882e-02 -4.361121e-02 -4.207077e-02 -4.363831e-02 -4.205113e-02 -4.358833e-02 -4.213573e-02 -4.348667e-02 -4.232828e-02 -4.331214e-02 -4.258622e-02 -4.304999e-02 -4.287095e-02 -4.272172e-02 -4.316720e-02 -4.239119e-02 -4.346148e-02 -4.211398e-02 -4.371296e-02 -4.194358e-02 -4.387967e-02 -4.192117e-02 -4.389882e-02 -4.207679e-02 -4.374603e-02 -4.248719e-02 -4.348447e-02 -4.329302e-02 -4.335453e-02 -4.470397e-02 -4.390485e-02 -4.600632e-02 -3.975126e-02 -3.449676e-02 -3.194572e-02 -3.048088e-02 
-2.492448e-02 -2.338051e-02 -2.619566e-02 -2.397733e-02 -3.018309e-02 -1.985599e-02 -2.037615e-02 -2.431236e-02 -1.883972e-02 -2.268385e-02 -1.817814e-02 -1.952725e-02 -1.770643e-02 -1.820646e-02 -1.893982e-02 -1.863220e-02 -1.913589e-02 -1.890594e-02 -1.882131e-02 -1.932975e-02 -1.781998e-02 -1.955266e-02 -1.879617e-02 -2.057264e-02 -2.048733e-02 -2.110012e-02 -2.133141e-02 -2.124548e-02 -2.185108e-02 -2.123732e-02 -2.217559e-02 -2.116056e-02 -2.238351e-02 -2.111450e-02 -2.253436e-02 -2.114543e-02 -2.263635e-02 -2.124690e-02 -2.266483e-02 -2.138726e-02 -2.262671e-02 -2.159248e-02 -2.258506e-02 -2.187885e-02 -2.255093e-02 -2.220305e-02 -2.250779e-02 -2.251806e-02 -2.245438e-02 -2.282250e-02 -2.246095e-02 -2.317638e-02 -2.259045e-02 -2.356819e-02 -2.281395e-02 -2.393613e-02 -2.308433e-02 -2.422212e-02 -2.336623e-02 -2.443604e-02 -2.369786e-02 -2.444169e-02 -2.382276e-02 -2.445494e-02 -2.405002e-02 -2.451727e-02 -2.424482e-02 -2.420919e-02 -2.428260e-02 -2.395425e-02 -2.439231e-02 -2.383050e-02 -2.437633e-02 -2.352715e-02 -2.418328e-02 -2.322035e-02 -2.392347e-02 -2.296883e-02 -2.362006e-02 -2.279586e-02 -2.330039e-02 -2.272342e-02 -2.299942e-02 -2.276772e-02 -2.273620e-02 -2.288473e-02 -2.247477e-02 -2.300631e-02 -2.222225e-02 -2.312055e-02 -2.202486e-02 -2.321776e-02 -2.192001e-02 -2.327102e-02 -2.190508e-02 -2.321550e-02 -2.196784e-02 -2.305214e-02 -2.216526e-02 -2.282265e-02 -2.249662e-02 -2.250789e-02 -2.289794e-02 -2.209874e-02 -2.330871e-02 -2.163446e-02 -2.369761e-02 -2.121086e-02 -2.403481e-02 -2.091137e-02 -2.425324e-02 -2.081446e-02 -2.428409e-02 -2.097638e-02 -2.402345e-02 -2.142438e-02 -2.339450e-02 -2.222854e-02 -2.237917e-02 -2.355310e-02 -2.110034e-02 -2.590408e-02 -2.007051e-02 -3.143192e-02 -3.010790e-02 -2.684013e-02 -2.583780e-02 -2.420485e-02 
-5.488780e-03 -3.330518e-03 -2.691601e-03 4.385394e-03 6.578436e-03 2.128421e-02 1.531895e-02 1.187268e-02 1.713042e-02 1.087368e-02 1.711571e-02 1.079400e-02 1.754831e-02 1.298265e-02 1.891272e-02 1.553747e-02 1.855013e-02 1.668000e-02 1.739492e-02 1.709042e-02 1.493279e-02 1.611865e-02 1.298867e-02 1.556941e-02 1.272495e-02 1.534532e-02 1.270873e-02 1.517366e-02 1.283626e-02 1.500295e-02 1.302780e-02 1.480746e-02 1.325205e-02 1.460630e-02 1.349658e-02 1.441650e-02 1.374112e-02 1.424502e-02 1.396082e-02 1.409398e-02 1.414591e-02 1.398539e-02 1.430924e-02 1.393528e-02 1.444877e-02 1.393493e-02 1.455566e-02 1.396916e-02 1.462807e-02 1.403397e-02 1.468998e-02 1.414177e-02 1.475832e-02 1.426975e-02 1.480609e-02 1.436384e-02 1.478579e-02 1.436046e-02 1.464756e-02 1.421482e-02 1.442451e-02 1.429588e-02 1.455561e-02 1.438426e-02 1.456280e-02 1.429048e-02 1.460377e-02 1.456308e-02 1.484031e-02 1.467607e-02 1.481535e-02 1.447609e-02 1.472166e-02 1.440795e-02 1.470671e-02 1.436446e-02 1.467646e-02 1.431436e-02 1.461215e-02 1.426324e-02 1.452069e-02 1.422704e-02 1.441706e-02 1.422312e-02 1.431210e-02 1.424806e-02 1.419463e-02 1.428737e-02 1.406589e-02 1.434528e-02 1.394088e-02 1.442527e-02 1.383023e-02 1.452002e-02 1.372915e-02 1.460508e-02 1.363269e-02 1.467780e-02 1.356546e-02 1.474633e-02 1.353527e-02 1.479174e-02 1.353191e-02 1.479373e-02 1.355151e-02 1.474494e-02 1.360500e-02 1.465464e-02 1.370649e-02 1.452580e-02 1.385740e-02 1.436053e-02 1.405625e-02 1.415691e-02 1.428562e-02 1.391033e-02 1.453890e-02 1.363784e-02 1.485102e-02 1.337679e-02 1.540223e-02 1.318679e-02 1.690819e-02 1.133013e-02 4.835850e-03 -8.978201e-04 -3.545331e-03 -4.769127e-03 
-3.495300e-03 -3.465204e-03 -6.401521e-04 1.618903e-03 8.479984e-03 7.818504e-03 5.290788e-03 7.125334e-03 4.505005e-03 4.603309e-03 2.534101e-03 -1.992767e-04 -2.301042e-03 -6.779379e-03 -7.397475e-03 -1.003894e-02 -8.842781e-03 -1.017124e-02 -8.896619e-03 -7.361524e-03 -7.179108e-03 -9.635023e-04 -8.155372e-04 3.965743e-03 3.125737e-03 6.100405e-03 4.981447e-03 6.877915e-03 6.005138e-03 7.055641e-03 6.630451e-03 6.960689e-03 7.061016e-03 6.808088e-03 7.400879e-03 6.699479e-03 7.667200e-03 6.655848e-03 7.832018e-03 6.660648e-03 7.897595e-03 6.749760e-03 7.924535e-03 6.943849e-03 7.921990e-03 7.198340e-03 7.873934e-03 7.463051e-03 7.785749e-03 7.738627e-03 7.748048e-03 8.101868e-03 7.863277e-03 8.578940e-03 8.166462e-03 9.176681e-03 8.707350e-03 9.936656e-03 9.565162e-03 1.098776e-02 1.072330e-02 1.096262e-02 1.041758e-02 1.089636e-02 1.067932e-02 1.141992e-02 1.077346e-02 1.009548e-02 9.998292e-03 9.291117e-03 1.018544e-02 9.621685e-03 1.037357e-02 9.193817e-03 1.000675e-02 8.680523e-03 9.570231e-03 8.296536e-03 9.148888e-03 8.076273e-03 8.758707e-03 8.020791e-03 8.412702e-03 8.124663e-03 8.113211e-03 8.325835e-03 7.812953e-03 8.542263e-03 7.515532e-03 8.754707e-03 7.270470e-03 8.948923e-03 7.119755e-03 9.092117e-03 7.063335e-03 9.112361e-03 7.092343e-03 9.007684e-03 7.270539e-03 8.819217e-03 7.601359e-03 8.524700e-03 8.021256e-03 8.111583e-03 8.469501e-03 7.617893e-03 8.916035e-03 7.140850e-03 9.332658e-03 6.764705e-03 9.652435e-03 6.567238e-03 9.806280e-03 6.601290e-03 9.689841e-03 6.885336e-03 9.226904e-03 7.463330e-03 8.390770e-03 8.408664e-03 7.257483e-03 9.950293e-03 6.243373e-03 1.251576e-02 7.478253e-03 1.311212e-03 -1.406728e-03 -3.545991e-03 
1.257364e-04 -7.111453e-04 1.227450e-03 -4.009376e-04 3.171592e-03 -4.159094e-03 -3.373864e-03 1.030643e-03 -4.033518e-03 1.538822e-03 -3.480711e-03 1.797177e-03 -3.406230e-03 1.221204e-04 -4.967080e-03 -2.298907e-03 -4.773938e-03 -3.237135e-03 -3.846964e-03 -3.413817e-03 -1.615311e-03 -2.269712e-03 -4.892214e-04 -1.508892e-03 -6.806415e-04 -1.254634e-03 -6.243814e-04 -1.145524e-03 -4.539596e-04 -1.150802e-03 -2.608912e-04 -1.214167e-03 -7.827027e-05 -1.266190e-03 8.228005e-05 -1.267205e-03 2.008912e-04 -1.209709e-03 2.549437e-04 -1.101124e-03 2.461444e-04 -9.293455e-04 2.053193e-04 -6.910290e-04 1.458057e-04 -4.100503e-04 7.365082e-05 -1.091003e-04 1.080485e-05 2.185358e-04 2.205159e-05 6.189676e-04 1.825504e-04 1.117952e-03 5.220480e-04 1.689252e-03 9.880035e-04 2.143075e-03 1.308937e-03 2.594857e-03 2.311490e-03 2.376489e-03 2.040330e-03 2.500079e-03 2.166444e-03 3.263275e-03 2.706365e-03 2.443329e-03 2.762004e-03 2.059144e-03 3.026602e-03 2.349950e-03 2.954112e-03 1.673438e-03 2.453636e-03 1.129662e-03 1.979879e-03 7.414873e-04 1.543285e-03 5.263272e-04 1.155003e-03 4.734996e-04 8.155421e-04 5.594679e-04 5.196251e-04 7.314772e-04 2.450909e-04 9.276591e-04 -2.959345e-06 1.114978e-03 -1.931103e-04 1.266835e-03 -2.956520e-04 1.349778e-03 -3.009623e-04 1.319705e-03 -2.047528e-04 1.169652e-03 2.182168e-05 9.197980e-04 3.750886e-04 5.726393e-04 8.104969e-04 1.412836e-04 1.273905e-03 -3.280992e-04 1.719079e-03 -7.532097e-04 2.097156e-03 -1.051386e-03 2.339540e-03 -1.147187e-03 2.375773e-03 -9.839286e-04 2.132297e-03 -5.315934e-04 1.563534e-03 2.222612e-04 6.486232e-04 1.235169e-03 -6.734446e-04 2.331762e-03 -2.844753e-03 3.729237e-03 2.241565e-03 1.436324e-03 4.724835e-04 -2.555146e-04 
