# vtk DataFile Version 2.0
Comment goes here
ASCII

DATASET STRUCTURED_POINTS
FIELD FieldData 1
TIME 1 1 double
0.38000000
DIMENSIONS    128   16   1

ORIGIN    0.000   0.000   0.000
SPACING   0.0078125 0.015625   1.000

POINT_DATA   2048
SCALARS uX double
LOOKUP_TABLE default

-6.001778e-03 -4.187648e-03 -4.821133e-03 -2.471015e-03 -3.509861e-03 -2.466084e-03 -9.835201e-03 -1.290821e-04 -5.523303e-03 4.021729e-03 2.935114e-03 1.401478e-02 2.076474e-02 3.576731e-02 4.350631e-02 4.748235e-02 4.974113e-02 4.993133e-02 4.756553e-02 4.317572e-02 3.668155e-02 2.053022e-02 1.353838e-02 4.864158e-03 2.835169e-03 -1.739945e-03 -1.624296e-03 -4.605050e-03 -3.504367e-03 -5.868334e-03 -4.271717e-03 -6.374629e-03 -4.546289e-03 -6.504080e-03 -4.645994e-03 -6.466003e-03 -4.725690e-03 -6.342768e-03 -4.814870e-03 -6.149127e-03 -4.907039e-03 -5.912810e-03 -5.017701e-03 -5.676420e-03 -5.142869e-03 -5.444317e-03 -5.248371e-03 -5.215023e-03 -5.325965e-03 -5.010205e-03 -5.375639e-03 -4.822154e-03 -5.350599e-03 -4.585673e-03 -5.162505e-03 -4.201061e-03 -4.674416e-03 -3.750923e-03 -3.752803e-03 2.793014e-03 4.538926e-03 -1.532277e-03 -4.816762e-03 -5.099081e-03 -1.906252e-03 4.953749e-03 1.013303e-03 -6.113769e-03 -8.412966e-03 -9.839545e-03 -4.767763e-03 -2.283686e-03 -2.378350e-03 -4.209120e-03 -3.467596e-03 -4.692201e-03 -3.655958e-03 -4.818453e-03 -3.746486e-03 -4.844885e-03 -3.846485e-03 -4.788218e-03 -3.952100e-03 -4.625110e-03 -4.057096e-03 -4.380795e-03 -4.201293e-03 -4.119749e-03 -4.407236e-03 -3.865652e-03 -4.630770e-03 -3.607951e-03 -4.817332e-03 -3.371547e-03 -4.953270e-03 -3.212618e-03 -5.018657e-03 -3.151447e-03 -4.961903e-03 -3.192354e-03 -4.765343e-03 -3.378147e-03 -4.467749e-03 -3.740253e-03 -4.077015e-03 -4.214677e-03 -3.562019e-03 -4.717911e-03 -2.971977e-03 -5.227448e-03 -2.424351e-03 -5.699392e-03 -2.001870e-03 -6.026895e-03 -1.776162e-03 -6.120542e-03 -1.875495e-03 -5.937898e-03 -2.488048e-03 -5.461798e-03 -3.974021e-03 -4.792939e-03 -7.561366e-03 -1.380145e-03 -4.892219e-03 -2.721693e-03 -5.748671e-03 -4.301011e-03 
-2.077869e-03 -6.538002e-04 -4.066754e-04 1.450424e-03 2.860733e-03 1.908655e-03 -7.496599e-03 2.069913e-03 -5.140596e-03 1.742682e-03 -2.179709e-03 1.782542e-03 1.189738e-03 2.154820e-04 -2.281016e-03 -3.044315e-03 -2.594492e-03 -4.102180e-03 -1.723933e-03 -3.450765e-03 9.020035e-04 1.570432e-04 9.985828e-04 -8.894015e-04 1.433597e-04 -1.467696e-03 -1.817637e-04 -1.826055e-03 -3.527100e-04 -2.075840e-03 -4.025989e-04 -2.134104e-03 -3.318190e-04 -2.035420e-03 -2.634891e-04 -1.905817e-03 -3.096335e-04 -1.796652e-03 -4.354741e-04 -1.629629e-03 -5.354689e-04 -1.383025e-03 -6.395315e-04 -1.157318e-03 -7.868001e-04 -9.465963e-04 -8.725220e-04 -6.501474e-04 -8.019532e-04 -2.420960e-04 -5.656388e-04 3.044426e-04 -5.201803e-05 1.197056e-03 1.052612e-03 2.924250e-03 3.388737e-03 4.871720e-03 1.876305e-03 4.666879e-03 5.273966e-03 1.541439e-03 2.516623e-03 2.125991e-03 5.657006e-04 4.546357e-03 1.146428e-03 -8.783077e-04 6.817448e-04 -1.510406e-03 1.103103e-03 1.726460e-03 1.296671e-03 -2.267304e-04 3.369567e-04 -7.009432e-04 2.588390e-04 -6.730658e-04 3.543724e-04 -5.556142e-04 3.657445e-04 -4.318699e-04 3.304063e-04 -2.047882e-04 3.014848e-04 8.587228e-05 1.754383e-04 3.174792e-04 -6.976183e-05 5.417675e-04 -2.848456e-04 8.381492e-04 -4.308326e-04 1.100432e-03 -5.797601e-04 1.236319e-03 -6.873120e-04 1.281905e-03 -6.466279e-04 1.263355e-03 -4.352282e-04 1.109395e-03 -1.369800e-04 7.436353e-04 2.280097e-04 2.508057e-04 7.354332e-04 -2.538613e-04 1.344331e-03 -7.707061e-04 1.901491e-03 -1.284659e-03 2.323332e-03 -1.673336e-03 2.558978e-03 -1.842185e-03 2.483967e-03 -1.739404e-03 1.944184e-03 -1.293531e-03 5.820172e-04 -3.924470e-04 -2.991381e-03 5.494877e-03 -3.987875e-05 1.262425e-03 -1.888271e-03 -7.671476e-04 
-8.698959e-03 -7.119956e-03 -4.708069e-03 1.922030e-04 8.303830e-03 1.432939e-02 5.294550e-03 1.160558e-02 4.188000e-03 7.006950e-03 7.780798e-04 -8.781114e-04 -8.458223e-03 -1.382384e-02 -1.722384e-02 -1.953048e-02 -1.957505e-02 -2.065823e-02 -1.857839e-02 -1.721711e-02 -1.413574e-02 -6.613029e-03 -1.605175e-03 2.608201e-03 4.983139e-03 6.593775e-03 7.966026e-03 8.110802e-03 9.264554e-03 8.556440e-03 9.960848e-03 8.819505e-03 1.055402e-02 9.105549e-03 1.097561e-02 9.267402e-03 1.107761e-02 9.279154e-03 1.099676e-02 9.376033e-03 1.097004e-02 9.615111e-03 1.090291e-02 9.785449e-03 1.067884e-02 9.882596e-03 1.045870e-02 1.007329e-02 1.036324e-02 1.028997e-02 1.019713e-02 1.028126e-02 9.800626e-03 9.964258e-03 9.081402e-03 9.070795e-03 7.483197e-03 7.455866e-03 5.679569e-03 -2.719451e-03 -7.332920e-03 3.678744e-03 6.737640e-03 8.168332e-03 3.707004e-03 -6.652937e-03 5.284496e-04 1.087708e-02 1.515032e-02 1.644163e-02 1.045638e-02 4.689945e-03 7.035964e-03 7.688246e-03 9.371887e-03 8.922582e-03 1.045499e-02 9.716019e-03 1.112170e-02 1.015512e-02 1.134490e-02 1.038481e-02 1.144101e-02 1.074345e-02 1.157294e-02 1.114648e-02 1.149654e-02 1.135748e-02 1.119072e-02 1.156290e-02 1.098198e-02 1.195527e-02 1.088226e-02 1.230347e-02 1.069002e-02 1.245107e-02 1.046453e-02 1.250651e-02 1.041855e-02 1.258675e-02 1.061395e-02 1.255713e-02 1.084472e-02 1.222180e-02 1.107539e-02 1.174295e-02 1.151888e-02 1.131825e-02 1.214894e-02 1.087243e-02 1.272948e-02 1.035717e-02 1.319472e-02 9.933572e-03 1.355520e-02 9.714662e-03 1.372928e-02 9.782912e-03 1.371727e-02 1.032921e-02 1.352838e-02 1.181340e-02 1.320059e-02 1.654968e-02 3.608617e-03 -1.307795e-03 -6.568327e-03 -7.504317e-03 
-9.322650e-03 -7.910236e-03 -5.627800e-03 3.166922e-04 6.901558e-03 2.041595e-02 2.597302e-02 2.006272e-02 2.458047e-02 1.989625e-02 2.305868e-02 1.991601e-02 2.174259e-02 2.233976e-02 2.513708e-02 2.564279e-02 2.547007e-02 2.676579e-02 2.453732e-02 2.619954e-02 2.177019e-02 2.267594e-02 2.036250e-02 2.285201e-02 2.066239e-02 2.293904e-02 2.101004e-02 2.281537e-02 2.129400e-02 2.256792e-02 2.158739e-02 2.236152e-02 2.193230e-02 2.220342e-02 2.223620e-02 2.202292e-02 2.242597e-02 2.182677e-02 2.254909e-02 2.169770e-02 2.265131e-02 2.162601e-02 2.268039e-02 2.155094e-02 2.260271e-02 2.145663e-02 2.243125e-02 2.134457e-02 2.216596e-02 2.113166e-02 2.167611e-02 2.061368e-02 2.077556e-02 1.955073e-02 1.914951e-02 1.737335e-02 1.617739e-02 1.521084e-02 1.900497e-02 1.954738e-02 1.886595e-02 2.131823e-02 1.776853e-02 1.859023e-02 2.204617e-02 2.023636e-02 2.208117e-02 2.079003e-02 1.713758e-02 1.962675e-02 1.881620e-02 1.944069e-02 2.067171e-02 2.109331e-02 2.150874e-02 2.155718e-02 2.193160e-02 2.182099e-02 2.216530e-02 2.192018e-02 2.224531e-02 2.195598e-02 2.231402e-02 2.204987e-02 2.240589e-02 2.215045e-02 2.242417e-02 2.219410e-02 2.237433e-02 2.225653e-02 2.234584e-02 2.238654e-02 2.231840e-02 2.251912e-02 2.223588e-02 2.261713e-02 2.209478e-02 2.269979e-02 2.196152e-02 2.283366e-02 2.188100e-02 2.297514e-02 2.177139e-02 2.303730e-02 2.163291e-02 2.307817e-02 2.156866e-02 2.315026e-02 2.158925e-02 2.319767e-02 2.164396e-02 2.317777e-02 2.174436e-02 2.310512e-02 2.192522e-02 2.298699e-02 2.222834e-02 2.283266e-02 2.278255e-02 2.263112e-02 2.394284e-02 2.217455e-02 2.729158e-02 1.301694e-02 4.322519e-03 -3.716443e-03 -6.713679e-03 -9.029519e-03 
-3.594347e-02 -3.665323e-02 -3.800330e-02 -3.953444e-02 -4.470261e-02 -4.290971e-02 -2.896811e-02 -3.952331e-02 -2.847760e-02 -3.514136e-02 -2.673767e-02 -2.957179e-02 -2.231841e-02 -2.521352e-02 -2.499199e-02 -2.533058e-02 -2.571793e-02 -2.537849e-02 -2.568097e-02 -2.538301e-02 -2.482427e-02 -2.460136e-02 -2.877512e-02 -2.923102e-02 -3.200036e-02 -3.149115e-02 -3.348903e-02 -3.243066e-02 -3.407875e-02 -3.277612e-02 -3.437877e-02 -3.310582e-02 -3.469631e-02 -3.350322e-02 -3.490584e-02 -3.377489e-02 -3.483738e-02 -3.385962e-02 -3.460486e-02 -3.397262e-02 -3.444751e-02 -3.417948e-02 -3.427160e-02 -3.425725e-02 -3.393466e-02 -3.418259e-02 -3.356885e-02 -3.409254e-02 -3.322561e-02 -3.384056e-02 -3.258335e-02 -3.302964e-02 -3.126249e-02 -3.129910e-02 -2.875457e-02 -2.774736e-02 -2.386706e-02 -2.399833e-02 -2.682006e-02 -2.488392e-02 -2.084046e-02 -3.007147e-02 -2.622494e-02 -2.819259e-02 -3.083470e-02 -2.326468e-02 -2.979583e-02 -3.205653e-02 -3.006252e-02 -3.299567e-02 -3.003715e-02 -2.742139e-02 -3.064845e-02 -3.137857e-02 -3.293465e-02 -3.277990e-02 -3.400956e-02 -3.367298e-02 -3.466140e-02 -3.416987e-02 -3.489073e-02 -3.443548e-02 -3.500237e-02 -3.480193e-02 -3.515864e-02 -3.519567e-02 -3.512242e-02 -3.537914e-02 -3.486333e-02 -3.553315e-02 -3.470743e-02 -3.586022e-02 -3.467263e-02 -3.613360e-02 -3.454897e-02 -3.620116e-02 -3.440264e-02 -3.618721e-02 -3.443852e-02 -3.619676e-02 -3.470006e-02 -3.610342e-02 -3.499413e-02 -3.572958e-02 -3.527916e-02 -3.522406e-02 -3.574544e-02 -3.477794e-02 -3.636649e-02 -3.433012e-02 -3.691501e-02 -3.384408e-02 -3.732912e-02 -3.349638e-02 -3.762766e-02 -3.342585e-02 -3.773415e-02 -3.377073e-02 -3.766067e-02 -3.489298e-02 -3.742261e-02 -3.773224e-02 -3.665004e-02 -5.006512e-02 -4.046868e-02 -4.027206e-02 -3.639101e-02 -3.694670e-02 
-4.178069e-02 -4.346559e-02 -4.541171e-02 -5.066998e-02 -5.730114e-02 -6.644888e-02 -6.157546e-02 -6.303564e-02 -5.904269e-02 -5.925566e-02 -5.564397e-02 -5.430568e-02 -5.012680e-02 -4.996891e-02 -5.007015e-02 -5.000249e-02 -5.010520e-02 -5.004644e-02 -5.006155e-02 -5.010677e-02 -4.993598e-02 -5.018625e-02 -5.506229e-02 -5.662775e-02 -5.861132e-02 -5.959362e-02 -6.045364e-02 -6.086884e-02 -6.139182e-02 -6.132919e-02 -6.197679e-02 -6.159865e-02 -6.249201e-02 -6.183270e-02 -6.286191e-02 -6.193769e-02 -6.297770e-02 -6.191305e-02 -6.294506e-02 -6.193586e-02 -6.292601e-02 -6.203984e-02 -6.284860e-02 -6.207897e-02 -6.262822e-02 -6.203553e-02 -6.234694e-02 -6.198318e-02 -6.203733e-02 -6.179732e-02 -6.145847e-02 -6.115275e-02 -6.032401e-02 -5.976775e-02 -5.832288e-02 -5.718044e-02 -5.516300e-02 -5.454394e-02 -5.619350e-02 -5.911742e-02 -5.769588e-02 -5.916964e-02 -5.728201e-02 -5.781809e-02 -6.066727e-02 -6.027628e-02 -6.080634e-02 -5.931467e-02 -5.784737e-02 -6.005542e-02 -6.021861e-02 -6.114048e-02 -6.261759e-02 -6.189398e-02 -6.261716e-02 -6.198061e-02 -6.283277e-02 -6.224106e-02 -6.305107e-02 -6.240704e-02 -6.310325e-02 -6.251807e-02 -6.315375e-02 -6.276720e-02 -6.326416e-02 -6.305513e-02 -6.323176e-02 -6.320868e-02 -6.304043e-02 -6.336443e-02 -6.291392e-02 -6.365222e-02 -6.285029e-02 -6.391096e-02 -6.271110e-02 -6.403496e-02 -6.253103e-02 -6.409493e-02 -6.246256e-02 -6.418588e-02 -6.256135e-02 -6.421193e-02 -6.267570e-02 -6.402409e-02 -6.278357e-02 -6.373805e-02 -6.304632e-02 -6.349072e-02 -6.345232e-02 -6.322349e-02 -6.384602e-02 -6.290293e-02 -6.419567e-02 -6.264660e-02 -6.453016e-02 -6.256177e-02 -6.484926e-02 -6.277763e-02 -6.527509e-02 -6.353834e-02 -6.608519e-02 -6.515552e-02 -6.798844e-02 -6.476901e-02 -5.292226e-02 -4.797421e-02 -4.358892e-02 -4.277752e-02 
-5.270386e-02 -5.437595e-02 -5.456144e-02 -5.837193e-02 -5.989757e-02 -6.716160e-02 -6.733595e-02 -6.745635e-02 -6.706691e-02 -6.760395e-02 -6.723790e-02 -6.774210e-02 -6.759843e-02 -6.746536e-02 -6.754064e-02 -6.749378e-02 -6.758794e-02 -6.753198e-02 -6.754514e-02 -6.757972e-02 -6.741331e-02 -6.764155e-02 -6.774468e-02 -6.815223e-02 -6.775967e-02 -6.822532e-02 -6.784957e-02 -6.814772e-02 -6.795930e-02 -6.801643e-02 -6.810090e-02 -6.792081e-02 -6.827219e-02 -6.787140e-02 -6.841906e-02 -6.783507e-02 -6.849763e-02 -6.780608e-02 -6.851982e-02 -6.781028e-02 -6.850692e-02 -6.784368e-02 -6.845142e-02 -6.788519e-02 -6.835520e-02 -6.793381e-02 -6.824546e-02 -6.800966e-02 -6.816516e-02 -6.813895e-02 -6.816774e-02 -6.840019e-02 -6.843295e-02 -6.909789e-02 -6.950312e-02 -7.115076e-02 -7.247580e-02 -7.305968e-02 -6.817582e-02 -6.792472e-02 -6.852987e-02 -6.616112e-02 -7.074653e-02 -7.027867e-02 -6.558137e-02 -6.875979e-02 -6.625958e-02 -6.945256e-02 -7.373845e-02 -7.155669e-02 -7.175083e-02 -7.123846e-02 -6.952596e-02 -6.874275e-02 -6.867709e-02 -6.830740e-02 -6.856729e-02 -6.823154e-02 -6.859677e-02 -6.827721e-02 -6.864414e-02 -6.838135e-02 -6.869354e-02 -6.853981e-02 -6.872879e-02 -6.871381e-02 -6.870818e-02 -6.887114e-02 -6.863745e-02 -6.903221e-02 -6.855904e-02 -6.920880e-02 -6.848099e-02 -6.936958e-02 -6.839611e-02 -6.948824e-02 -6.831629e-02 -6.956275e-02 -6.828001e-02 -6.960892e-02 -6.831015e-02 -6.960350e-02 -6.837919e-02 -6.951540e-02 -6.848382e-02 -6.937278e-02 -6.865112e-02 -6.921141e-02 -6.886875e-02 -6.903417e-02 -6.909224e-02 -6.885045e-02 -6.929138e-02 -6.869406e-02 -6.944468e-02 -6.860074e-02 -6.953081e-02 -6.859324e-02 -6.952776e-02 -6.862033e-02 -6.937875e-02 -6.834251e-02 -6.909899e-02 -6.386289e-02 -5.907315e-02 -5.672387e-02 -5.404782e-02 -5.388651e-02 
-5.204137e-02 -5.335507e-02 -5.377716e-02 -5.648144e-02 -5.768631e-02 -6.125953e-02 -6.212854e-02 -6.447740e-02 -6.562616e-02 -6.775823e-02 -7.046340e-02 -7.276175e-02 -7.803391e-02 -7.794982e-02 -7.801282e-02 -7.795450e-02 -7.799613e-02 -7.797246e-02 -7.797555e-02 -7.799708e-02 -7.795695e-02 -7.800538e-02 -7.151775e-02 -7.069901e-02 -6.740617e-02 -6.724285e-02 -6.557244e-02 -6.548432e-02 -6.473455e-02 -6.453341e-02 -6.439099e-02 -6.401741e-02 -6.429757e-02 -6.374556e-02 -6.430406e-02 -6.360250e-02 -6.432206e-02 -6.353355e-02 -6.432476e-02 -6.352759e-02 -6.431286e-02 -6.357177e-02 -6.427808e-02 -6.364300e-02 -6.421944e-02 -6.373589e-02 -6.416052e-02 -6.386499e-02 -6.413842e-02 -6.405769e-02 -6.421395e-02 -6.439946e-02 -6.454533e-02 -6.512035e-02 -6.546750e-02 -6.668988e-02 -6.743592e-02 -6.861607e-02 -6.715515e-02 -6.790225e-02 -6.907539e-02 -6.645135e-02 -6.595087e-02 -6.604836e-02 -6.511018e-02 -6.814273e-02 -6.616968e-02 -6.475768e-02 -6.460444e-02 -6.293169e-02 -6.477543e-02 -6.522254e-02 -6.458193e-02 -6.425101e-02 -6.451957e-02 -6.417498e-02 -6.458750e-02 -6.415442e-02 -6.462296e-02 -6.417542e-02 -6.462893e-02 -6.423434e-02 -6.461737e-02 -6.434079e-02 -6.459059e-02 -6.447720e-02 -6.452803e-02 -6.461789e-02 -6.442990e-02 -6.476561e-02 -6.432477e-02 -6.492483e-02 -6.422667e-02 -6.507210e-02 -6.413527e-02 -6.518357e-02 -6.406484e-02 -6.525455e-02 -6.404276e-02 -6.528514e-02 -6.408100e-02 -6.525691e-02 -6.416589e-02 -6.515363e-02 -6.429429e-02 -6.499438e-02 -6.447640e-02 -6.480660e-02 -6.469586e-02 -6.459846e-02 -6.490949e-02 -6.437786e-02 -6.507584e-02 -6.416214e-02 -6.514925e-02 -6.394900e-02 -6.505383e-02 -6.367976e-02 -6.465021e-02 -6.317280e-02 -6.365126e-02 -6.200880e-02 -6.153060e-02 -5.912845e-02 -5.658215e-02 -5.495791e-02 -5.303157e-02 -5.281128e-02 
-5.683329e-02 -5.823373e-02 -5.816116e-02 -6.082128e-02 -6.142801e-02 -6.477374e-02 -6.568009e-02 -6.784003e-02 -6.929912e-02 -7.125316e-02 -7.406895e-02 -7.632995e-02 -8.153979e-02 -8.145704e-02 -8.151746e-02 -8.146475e-02 -8.150566e-02 -8.148613e-02 -8.148051e-02 -8.151268e-02 -8.145059e-02 -8.151938e-02 -7.479816e-02 -7.400979e-02 -7.076655e-02 -7.068743e-02 -6.906826e-02 -6.910302e-02 -6.834188e-02 -6.829503e-02 -6.806351e-02 -6.786462e-02 -6.799274e-02 -6.763480e-02 -6.800855e-02 -6.751949e-02 -6.804691e-02 -6.747792e-02 -6.808134e-02 -6.749394e-02 -6.810477e-02 -6.755749e-02 -6.811675e-02 -6.766119e-02 -6.812660e-02 -6.780717e-02 -6.815630e-02 -6.800801e-02 -6.823941e-02 -6.829099e-02 -6.843044e-02 -6.871185e-02 -6.880844e-02 -6.933107e-02 -6.939897e-02 -7.007538e-02 -7.003982e-02 -7.079381e-02 -7.068960e-02 -7.197441e-02 -7.225889e-02 -7.067498e-02 -6.919495e-02 -6.946727e-02 -6.985788e-02 -7.178289e-02 -7.016680e-02 -6.832643e-02 -6.720089e-02 -6.695874e-02 -6.829846e-02 -6.912279e-02 -6.905572e-02 -6.876683e-02 -6.880898e-02 -6.852143e-02 -6.868614e-02 -6.837552e-02 -6.859973e-02 -6.829884e-02 -6.852651e-02 -6.828055e-02 -6.845852e-02 -6.831558e-02 -6.838969e-02 -6.839167e-02 -6.831035e-02 -6.849174e-02 -6.821622e-02 -6.860416e-02 -6.811537e-02 -6.872279e-02 -6.802048e-02 -6.883722e-02 -6.794082e-02 -6.893292e-02 -6.788593e-02 -6.899935e-02 -6.786820e-02 -6.902885e-02 -6.789315e-02 -6.901012e-02 -6.795716e-02 -6.893804e-02 -6.805929e-02 -6.882308e-02 -6.819886e-02 -6.867979e-02 -6.836055e-02 -6.851592e-02 -6.851429e-02 -6.833705e-02 -6.862462e-02 -6.814485e-02 -6.864509e-02 -6.791450e-02 -6.849706e-02 -6.755605e-02 -6.803462e-02 -6.685377e-02 -6.698123e-02 -6.539373e-02 -6.486236e-02 -6.258277e-02 -6.076901e-02 -5.939211e-02 -5.776539e-02 -5.774430e-02 
-5.203695e-02 -5.335207e-02 -5.377382e-02 -5.647974e-02 -5.768383e-02 -6.125912e-02 -6.212674e-02 -6.447680e-02 -6.562582e-02 -6.775830e-02 -7.046312e-02 -7.276131e-02 -7.803156e-02 -7.794728e-02 -7.801131e-02 -7.795226e-02 -7.799497e-02 -7.797038e-02 -7.797501e-02 -7.799569e-02 -7.795750e-02 -7.800531e-02 -7.151218e-02 -7.069490e-02 -6.740220e-02 -6.724602e-02 -6.558431e-02 -6.550746e-02 -6.476806e-02 -6.457038e-02 -6.443016e-02 -6.404857e-02 -6.432751e-02 -6.376492e-02 -6.432808e-02 -6.362126e-02 -6.435642e-02 -6.357133e-02 -6.438667e-02 -6.359782e-02 -6.441049e-02 -6.368271e-02 -6.442098e-02 -6.381136e-02 -6.442953e-02 -6.398804e-02 -6.446237e-02 -6.421960e-02 -6.454204e-02 -6.451647e-02 -6.471064e-02 -6.492321e-02 -6.503957e-02 -6.549431e-02 -6.556752e-02 -6.619505e-02 -6.616928e-02 -6.676810e-02 -6.652716e-02 -6.694036e-02 -6.676702e-02 -6.677303e-02 -6.635473e-02 -6.654981e-02 -6.608266e-02 -6.646627e-02 -6.596641e-02 -6.576622e-02 -6.553485e-02 -6.513493e-02 -6.531116e-02 -6.503807e-02 -6.517785e-02 -6.482667e-02 -6.513315e-02 -6.470766e-02 -6.510640e-02 -6.460996e-02 -6.504689e-02 -6.453251e-02 -6.495907e-02 -6.449659e-02 -6.485976e-02 -6.451894e-02 -6.475937e-02 -6.459803e-02 -6.465109e-02 -6.470846e-02 -6.451840e-02 -6.482489e-02 -6.436897e-02 -6.494814e-02 -6.423476e-02 -6.507844e-02 -6.413124e-02 -6.519136e-02 -6.406268e-02 -6.526976e-02 -6.404669e-02 -6.530569e-02 -6.408732e-02 -6.527484e-02 -6.416869e-02 -6.516440e-02 -6.429403e-02 -6.500147e-02 -6.447924e-02 -6.481564e-02 -6.470379e-02 -6.460779e-02 -6.491815e-02 -6.438473e-02 -6.508517e-02 -6.417146e-02 -6.516538e-02 -6.396547e-02 -6.507436e-02 -6.369317e-02 -6.465922e-02 -6.317055e-02 -6.364531e-02 -6.199790e-02 -6.152106e-02 -5.911896e-02 -5.657401e-02 -5.495113e-02 -5.302556e-02 -5.280669e-02 
-5.269580e-02 -5.436934e-02 -5.455555e-02 -5.836826e-02 -5.989443e-02 -6.716349e-02 -6.733502e-02 -6.745541e-02 -6.707144e-02 -6.760387e-02 -6.724013e-02 -6.774046e-02 -6.759334e-02 -6.746056e-02 -6.753768e-02 -6.748998e-02 -6.758574e-02 -6.752860e-02 -6.754380e-02 -6.757704e-02 -6.741264e-02 -6.763900e-02 -6.773524e-02 -6.813855e-02 -6.775321e-02 -6.822389e-02 -6.787259e-02 -6.818964e-02 -6.803137e-02 -6.809511e-02 -6.819006e-02 -6.799351e-02 -6.834826e-02 -6.793092e-02 -6.849696e-02 -6.790940e-02 -6.860885e-02 -6.792629e-02 -6.868856e-02 -6.799774e-02 -6.875281e-02 -6.812253e-02 -6.879737e-02 -6.828240e-02 -6.883145e-02 -6.848578e-02 -6.888757e-02 -6.873769e-02 -6.897103e-02 -6.901829e-02 -6.909069e-02 -6.933912e-02 -6.928580e-02 -6.971988e-02 -6.956836e-02 -7.013004e-02 -6.988397e-02 -7.047966e-02 -7.014528e-02 -7.067132e-02 -7.026292e-02 -7.060926e-02 -7.007166e-02 -7.044245e-02 -6.999076e-02 -7.032827e-02 -6.985966e-02 -6.989357e-02 -6.957051e-02 -6.954814e-02 -6.953619e-02 -6.949003e-02 -6.959948e-02 -6.941057e-02 -6.962347e-02 -6.930603e-02 -6.958718e-02 -6.917316e-02 -6.949003e-02 -6.904447e-02 -6.936196e-02 -6.895710e-02 -6.922659e-02 -6.893518e-02 -6.910224e-02 -6.898667e-02 -6.898306e-02 -6.907654e-02 -6.883286e-02 -6.916467e-02 -6.865800e-02 -6.926662e-02 -6.850840e-02 -6.939264e-02 -6.839492e-02 -6.950735e-02 -6.831468e-02 -6.959616e-02 -6.829263e-02 -6.965368e-02 -6.832620e-02 -6.964120e-02 -6.838837e-02 -6.954173e-02 -6.849030e-02 -6.939382e-02 -6.866291e-02 -6.923419e-02 -6.888836e-02 -6.905617e-02 -6.911183e-02 -6.886520e-02 -6.930882e-02 -6.871032e-02 -6.947359e-02 -6.863028e-02 -6.956820e-02 -6.861595e-02 -6.954190e-02 -6.861243e-02 -6.936594e-02 -6.832074e-02 -6.908175e-02 -6.384567e-02 -5.905876e-02 -5.671111e-02 -5.403703e-02 -5.387723e-02 
-4.176952e-02 -4.345822e-02 -4.540328e-02 -5.066593e-02 -5.729500e-02 -6.644990e-02 -6.156802e-02 -6.303122e-02 -5.904374e-02 -5.926005e-02 -5.565017e-02 -5.431049e-02 -5.012179e-02 -4.996351e-02 -5.006797e-02 -4.999655e-02 -5.010058e-02 -5.003773e-02 -5.005751e-02 -5.009929e-02 -4.993797e-02 -5.018154e-02 -5.501083e-02 -5.657077e-02 -5.854000e-02 -5.955462e-02 -6.046567e-02 -6.096322e-02 -6.155222e-02 -6.151380e-02 -6.214879e-02 -6.171170e-02 -6.256571e-02 -6.184015e-02 -6.286311e-02 -6.190372e-02 -6.300388e-02 -6.196183e-02 -6.309739e-02 -6.210934e-02 -6.318589e-02 -6.230285e-02 -6.319886e-02 -6.248254e-02 -6.318355e-02 -6.273491e-02 -6.324665e-02 -6.306144e-02 -6.331321e-02 -6.334173e-02 -6.335384e-02 -6.361453e-02 -6.346196e-02 -6.393490e-02 -6.366955e-02 -6.430609e-02 -6.397357e-02 -6.467085e-02 -6.426594e-02 -6.486912e-02 -6.438880e-02 -6.494404e-02 -6.447549e-02 -6.491737e-02 -6.450833e-02 -6.478361e-02 -6.451065e-02 -6.460113e-02 -6.444207e-02 -6.426274e-02 -6.428034e-02 -6.393145e-02 -6.422170e-02 -6.378072e-02 -6.427207e-02 -6.366908e-02 -6.424326e-02 -6.347421e-02 -6.408645e-02 -6.326149e-02 -6.389256e-02 -6.312303e-02 -6.371043e-02 -6.310899e-02 -6.359023e-02 -6.325548e-02 -6.351409e-02 -6.345116e-02 -6.332449e-02 -6.354499e-02 -6.300787e-02 -6.363670e-02 -6.277620e-02 -6.384988e-02 -6.264667e-02 -6.403407e-02 -6.251364e-02 -6.414664e-02 -6.249094e-02 -6.427529e-02 -6.260609e-02 -6.428187e-02 -6.268379e-02 -6.403798e-02 -6.275604e-02 -6.373110e-02 -6.304484e-02 -6.352094e-02 -6.349239e-02 -6.325942e-02 -6.387097e-02 -6.290243e-02 -6.419956e-02 -6.265657e-02 -6.458908e-02 -6.265304e-02 -6.497530e-02 -6.287076e-02 -6.531803e-02 -6.350694e-02 -6.602282e-02 -6.508555e-02 -6.793918e-02 -6.473378e-02 -5.289368e-02 -4.795472e-02 -4.357226e-02 -4.276585e-02 
-3.593082e-02 -3.663992e-02 -3.799047e-02 -3.951714e-02 -4.468496e-02 -4.288108e-02 -2.894125e-02 -3.949946e-02 -2.845169e-02 -3.513773e-02 -2.673653e-02 -2.958211e-02 -2.232420e-02 -2.522427e-02 -2.499956e-02 -2.532976e-02 -2.571087e-02 -2.536441e-02 -2.566816e-02 -2.536563e-02 -2.479896e-02 -2.455037e-02 -2.870056e-02 -2.914661e-02 -3.192073e-02 -3.145219e-02 -3.353333e-02 -3.255242e-02 -3.429444e-02 -3.297590e-02 -3.459452e-02 -3.319803e-02 -3.478814e-02 -3.343779e-02 -3.488322e-02 -3.361653e-02 -3.483911e-02 -3.381587e-02 -3.481843e-02 -3.412631e-02 -3.482937e-02 -3.443793e-02 -3.476054e-02 -3.468629e-02 -3.469657e-02 -3.499428e-02 -3.475026e-02 -3.533385e-02 -3.479275e-02 -3.555250e-02 -3.478515e-02 -3.570870e-02 -3.482363e-02 -3.586364e-02 -3.494107e-02 -3.606780e-02 -3.520168e-02 -3.634543e-02 -3.553961e-02 -3.656508e-02 -3.582006e-02 -3.649278e-02 -3.582741e-02 -3.643844e-02 -3.599772e-02 -3.652340e-02 -3.616245e-02 -3.623635e-02 -3.607986e-02 -3.592387e-02 -3.607705e-02 -3.582137e-02 -3.615090e-02 -3.574084e-02 -3.623117e-02 -3.566107e-02 -3.618488e-02 -3.546362e-02 -3.597303e-02 -3.523556e-02 -3.572567e-02 -3.510731e-02 -3.551961e-02 -3.514236e-02 -3.540910e-02 -3.536756e-02 -3.536114e-02 -3.564255e-02 -3.518736e-02 -3.577351e-02 -3.485265e-02 -3.586196e-02 -3.462430e-02 -3.608343e-02 -3.454808e-02 -3.624585e-02 -3.446738e-02 -3.626985e-02 -3.452457e-02 -3.629398e-02 -3.478585e-02 -3.616033e-02 -3.500750e-02 -3.568373e-02 -3.521071e-02 -3.513351e-02 -3.570385e-02 -3.474870e-02 -3.638745e-02 -3.432319e-02 -3.692439e-02 -3.381045e-02 -3.732916e-02 -3.350183e-02 -3.771409e-02 -3.355547e-02 -3.792011e-02 -3.391974e-02 -3.774630e-02 -3.488297e-02 -3.736286e-02 -3.766229e-02 -3.660059e-02 -5.003079e-02 -4.044018e-02 -4.025218e-02 -3.637427e-02 -3.693263e-02 
-9.317755e-03 -7.903869e-03 -5.617923e-03 3.293828e-04 6.920298e-03 2.044249e-02 2.600079e-02 2.007426e-02 2.462274e-02 1.990008e-02 2.309573e-02 1.990363e-02 2.176890e-02 2.230650e-02 2.516663e-02 2.559781e-02 2.549957e-02 2.670728e-02 2.456284e-02 2.613815e-02 2.179862e-02 2.263613e-02 2.034831e-02 2.279191e-02 2.061849e-02 2.288843e-02 2.098902e-02 2.285378e-02 2.135805e-02 2.269599e-02 2.166901e-02 2.248633e-02 2.196907e-02 2.231523e-02 2.225787e-02 2.216180e-02 2.246653e-02 2.201463e-02 2.261475e-02 2.192940e-02 2.274492e-02 2.191515e-02 2.282603e-02 2.192874e-02 2.285942e-02 2.200582e-02 2.291173e-02 2.216348e-02 2.295451e-02 2.232359e-02 2.295345e-02 2.247837e-02 2.294853e-02 2.263878e-02 2.294498e-02 2.277125e-02 2.291170e-02 2.281428e-02 2.279375e-02 2.269740e-02 2.256132e-02 2.272967e-02 2.263335e-02 2.274230e-02 2.258880e-02 2.258769e-02 2.260091e-02 2.277399e-02 2.280820e-02 2.279235e-02 2.276535e-02 2.255615e-02 2.272961e-02 2.250669e-02 2.281185e-02 2.248980e-02 2.285772e-02 2.242323e-02 2.283891e-02 2.234116e-02 2.279467e-02 2.227480e-02 2.273364e-02 2.224326e-02 2.268635e-02 2.228048e-02 2.265380e-02 2.233420e-02 2.254761e-02 2.233404e-02 2.237323e-02 2.235862e-02 2.224165e-02 2.246760e-02 2.213790e-02 2.258620e-02 2.201379e-02 2.271751e-02 2.192932e-02 2.289927e-02 2.187616e-02 2.304974e-02 2.177229e-02 2.311308e-02 2.164663e-02 2.316053e-02 2.160265e-02 2.324163e-02 2.163585e-02 2.327520e-02 2.167123e-02 2.321272e-02 2.174101e-02 2.311703e-02 2.193336e-02 2.301976e-02 2.226108e-02 2.285303e-02 2.277220e-02 2.258995e-02 2.389350e-02 2.212784e-02 2.726225e-02 1.300024e-02 4.312401e-03 -3.720507e-03 -6.714075e-03 -9.027428e-03 
-8.699660e-03 -7.119307e-03 -4.706504e-03 1.927839e-04 8.305979e-03 1.432724e-02 5.293428e-03 1.159898e-02 4.194431e-03 7.012314e-03 8.003565e-04 -8.693349e-04 -8.439973e-03 -1.382181e-02 -1.720277e-02 -1.954210e-02 -1.956558e-02 -2.068256e-02 -1.857620e-02 -1.723962e-02 -1.415368e-02 -6.664594e-03 -1.687082e-03 2.506761e-03 4.874580e-03 6.527059e-03 7.963415e-03 8.218631e-03 9.437920e-03 8.771408e-03 1.013100e-02 8.938841e-03 1.058229e-02 9.077581e-03 1.087638e-02 9.154895e-03 1.097032e-02 9.250314e-03 1.102349e-02 9.474907e-03 1.107075e-02 9.739720e-03 1.100485e-02 9.964215e-03 1.090087e-02 1.026627e-02 1.089047e-02 1.062441e-02 1.084906e-02 1.086244e-02 1.072825e-02 1.103131e-02 1.065567e-02 1.123391e-02 1.073956e-02 1.160253e-02 1.115191e-02 1.227288e-02 1.193597e-02 1.324682e-02 1.299856e-02 1.316406e-02 1.263698e-02 1.305109e-02 1.295404e-02 1.365915e-02 1.319493e-02 1.250307e-02 1.240725e-02 1.168195e-02 1.250343e-02 1.198869e-02 1.281528e-02 1.186136e-02 1.286344e-02 1.164638e-02 1.272839e-02 1.132018e-02 1.243812e-02 1.101663e-02 1.214297e-02 1.086611e-02 1.190409e-02 1.091745e-02 1.176498e-02 1.119061e-02 1.168227e-02 1.152429e-02 1.144611e-02 1.171138e-02 1.103364e-02 1.187399e-02 1.073424e-02 1.218547e-02 1.058451e-02 1.243798e-02 1.043342e-02 1.256118e-02 1.043966e-02 1.268872e-02 1.065918e-02 1.264050e-02 1.084175e-02 1.222785e-02 1.101728e-02 1.171990e-02 1.149768e-02 1.135262e-02 1.218700e-02 1.091551e-02 1.274500e-02 1.035038e-02 1.318262e-02 9.941676e-03 1.361843e-02 9.833641e-03 1.388891e-02 9.911621e-03 1.377440e-02 1.029600e-02 1.344939e-02 1.173197e-02 1.314687e-02 1.651863e-02 3.585745e-03 -1.318251e-03 -6.575114e-03 -7.506371e-03 
-2.078076e-03 -6.550047e-04 -4.065186e-04 1.446722e-03 2.858811e-03 1.896475e-03 -7.503330e-03 2.060299e-03 -5.149080e-03 1.739370e-03 -2.178911e-03 1.783179e-03 1.187947e-03 2.139072e-04 -2.285326e-03 -3.044349e-03 -2.603162e-03 -4.097754e-03 -1.731508e-03 -3.441964e-03 8.927109e-04 1.554926e-04 9.687621e-04 -9.159501e-04 1.105641e-04 -1.476519e-03 -1.661138e-04 -1.773125e-03 -2.775767e-04 -1.995162e-03 -3.319611e-04 -2.091277e-03 -3.116387e-04 -2.053776e-03 -2.983012e-04 -1.967591e-03 -3.477067e-04 -1.818853e-03 -3.993614e-04 -1.580732e-03 -4.503991e-04 -1.314835e-03 -5.452634e-04 -1.060350e-03 -6.394799e-04 -7.753444e-04 -6.788650e-04 -4.825484e-04 -7.124076e-04 -2.538159e-04 -7.518957e-04 -6.040935e-05 -7.260834e-04 1.768706e-04 -5.445233e-04 5.487550e-04 -1.609445e-04 9.482641e-04 4.183715e-05 1.163626e-03 8.009757e-04 9.948470e-04 7.197072e-04 1.121232e-03 7.428767e-04 1.544614e-03 1.199688e-03 1.000130e-03 1.376322e-03 7.222097e-04 1.476000e-03 8.553746e-04 1.476199e-03 6.252479e-04 1.459521e-03 4.324372e-04 1.296893e-03 1.546270e-04 1.023895e-03 -8.313536e-05 7.531879e-04 -1.807489e-04 5.383595e-04 -1.062900e-04 3.857368e-04 1.151735e-04 2.466805e-04 3.865435e-04 3.615033e-05 6.137252e-04 -2.435916e-04 8.247017e-04 -4.661903e-04 1.070368e-03 -5.946170e-04 1.250457e-03 -6.739631e-04 1.312821e-03 -6.261558e-04 1.301841e-03 -4.110592e-04 1.137404e-03 -1.375126e-04 7.322179e-04 1.954905e-04 2.216429e-04 7.151811e-04 -2.580047e-04 1.350043e-03 -7.668731e-04 1.903070e-03 -1.291747e-03 2.322651e-03 -1.665902e-03 2.591430e-03 -1.789153e-03 2.554485e-03 -1.678820e-03 1.978733e-03 -1.292784e-03 5.613381e-04 -4.160392e-04 -3.008040e-03 5.484272e-03 -4.781877e-05 1.258623e-03 -1.890556e-03 -7.684342e-04 
