# vtk DataFile Version 2.0
Comment goes here
ASCII

DATASET STRUCTURED_POINTS
FIELD FieldData 1
TIME 1 1 double
0.65000000
DIMENSIONS    128   16   1

ORIGIN    0.000   0.000   0.000
SPACING   0.0078125 0.015625   1.000

POINT_DATA   2048
SCALARS uY double
LOOKUP_TABLE default

-1.041360e-06 3.096445e-06 -1.308378e-06 3.318250e-06 -1.966750e-06 2.760091e-06 -3.328016e-06 1.943878e-06 -1.548889e-06 2.027682e-07 -3.471097e-07 -1.279836e-06 1.228588e-06 -3.846785e-06 4.576403e-06 -3.786748e-06 6.794977e-06 -2.337077e-06 9.793880e-06 -1.876961e-07 1.427307e-05 3.247792e-06 1.745910e-05 1.194098e-06 1.300173e-05 -8.543205e-06 5.754044e-06 -1.425072e-05 8.021336e-06 -4.966130e-06 2.229720e-05 1.452430e-05 3.670242e-05 3.192454e-05 4.223017e-05 4.535629e-05 4.531096e-05 6.640063e-05 6.046480e-05 1.054853e-04 9.543987e-05 1.650888e-04 1.546303e-04 2.504876e-04 2.496892e-04 3.764868e-04 4.001414e-04 5.616084e-04 6.214549e-04 8.130912e-04 9.110967e-04 1.117057e-03 1.234639e-03 1.410453e-03 1.462377e-03 1.463018e-03 1.066877e-03 5.601259e-04 4.320260e-04 1.099947e-03 -8.961663e-04 -1.886740e-03 -4.042603e-04 -7.112095e-04 9.485894e-04 -1.492850e-04 -2.255170e-03 -1.520588e-03 -1.157237e-03 -8.972595e-05 3.609087e-04 -3.914952e-04 -1.114071e-03 -1.123778e-03 -9.035065e-04 -7.832021e-04 -5.891335e-04 -5.164044e-04 -3.549625e-04 -3.248198e-04 -2.108755e-04 -2.098385e-04 -1.330206e-04 -1.408790e-04 -8.929109e-05 -9.688700e-05 -6.535510e-05 -7.173700e-05 -5.489758e-05 -5.894135e-05 -4.887361e-05 -4.881770e-05 -3.899732e-05 -3.542584e-05 -2.521223e-05 -2.257164e-05 -1.496049e-05 -1.654640e-05 -1.267697e-05 -1.762943e-05 -1.534224e-05 -1.900704e-05 -1.472752e-05 -1.428113e-05 -8.351737e-06 -5.541743e-06 -3.780051e-07 1.610547e-06 3.021314e-06 6.481861e-07 -2.243036e-06 -7.622452e-06 -1.004069e-05 -1.395484e-05 -1.157823e-05 -1.191797e-05 -5.034076e-06 -4.248440e-06 2.020771e-06 8.436961e-07 3.205135e-06 2.156108e-06 1.193769e-07 3.418072e-06 -7.347823e-07 2.780411e-06 -1.039097e-06 2.835541e-06 
-1.095983e-03 1.266560e-04 -1.968513e-03 -2.931975e-04 -4.966452e-03 -2.200314e-04 6.182415e-03 -1.986234e-03 1.299890e-03 -3.701747e-04 9.368404e-04 -3.358670e-04 -2.120551e-03 -2.748365e-03 6.142091e-04 -1.471277e-03 -7.143949e-04 4.204343e-04 -4.343952e-04 1.188153e-03 2.959258e-03 2.051488e-03 -5.501283e-06 -4.679155e-04 -4.744386e-04 -1.439390e-04 -3.946993e-04 3.784151e-05 -3.537884e-04 1.454748e-04 -3.045410e-04 2.023884e-04 -2.524217e-04 2.102860e-04 -2.041901e-04 1.787051e-04 -1.546546e-04 1.311947e-04 -9.137928e-05 8.932124e-05 -1.268262e-05 6.174818e-05 7.688284e-05 5.885190e-05 1.829053e-04 1.033025e-04 3.271194e-04 2.310808e-04 5.504641e-04 5.010214e-04 9.417716e-04 1.049344e-03 1.723054e-03 2.216514e-03 3.470828e-03 4.599651e-03 4.930665e-03 3.072974e-03 7.556446e-03 1.198415e-02 -4.871239e-03 -1.240932e-02 -3.502378e-03 1.986208e-03 1.324417e-02 2.218684e-03 -1.989785e-02 -1.741512e-02 -8.825403e-03 3.707601e-03 1.177352e-02 5.556283e-03 -2.696781e-03 -3.923765e-03 -2.770078e-03 -1.999689e-03 -1.194463e-03 -1.042699e-03 -4.625936e-04 -6.062234e-04 -1.025153e-04 -4.041617e-04 6.141793e-05 -2.994681e-04 1.213182e-04 -2.237989e-04 1.169566e-04 -1.520462e-04 6.562476e-05 -7.360485e-05 -1.667846e-05 1.795630e-05 -1.123353e-04 1.233025e-04 -2.066053e-04 2.303034e-04 -2.905582e-04 3.190238e-04 -3.544239e-04 3.711711e-04 -3.854723e-04 3.739389e-04 -3.675504e-04 3.206878e-04 -2.880896e-04 2.093080e-04 -1.412903e-04 4.366972e-05 6.439300e-05 -1.746335e-04 3.008166e-04 -4.348553e-04 5.373304e-04 -6.985332e-04 7.419779e-04 -8.969689e-04 8.651815e-04 -9.206124e-04 8.183032e-04 -5.585248e-04 5.000829e-04 1.032440e-03 -1.087771e-03 3.906745e-03 3.721212e-04 6.744905e-04 -6.554895e-04 7.957299e-05 
-2.181229e-03 9.226415e-05 -3.374924e-03 1.783768e-05 -1.308967e-02 -3.607892e-04 1.725885e-02 -6.864977e-03 2.106794e-03 -4.446042e-03 4.366789e-04 -6.517178e-03 -2.207671e-03 1.769509e-03 -1.318148e-03 1.343926e-03 -9.059917e-04 1.334819e-03 -1.810567e-03 1.981440e-03 -3.463975e-03 3.737853e-03 4.751203e-03 1.113856e-03 1.935260e-03 6.824347e-04 8.659072e-04 5.978681e-04 2.818559e-04 5.914198e-04 3.003189e-06 5.891247e-04 -1.103271e-04 5.363596e-04 -1.441025e-04 4.258228e-04 -1.232053e-04 3.030828e-04 -3.236015e-05 2.112396e-04 1.114654e-04 1.491361e-04 2.753124e-04 1.252200e-04 4.578946e-04 1.784548e-04 6.936771e-04 3.710689e-04 1.043392e-03 7.841796e-04 1.631271e-03 1.617304e-03 2.805584e-03 3.385128e-03 5.330751e-03 6.026970e-03 4.564713e-03 -2.628799e-03 -6.095262e-03 1.398774e-03 -1.912377e-03 3.355832e-04 4.522336e-03 -6.355264e-03 -1.341757e-03 3.703124e-04 -2.293146e-03 5.006494e-03 -5.049038e-04 -1.597242e-03 -2.066760e-04 -2.091047e-03 -4.013326e-03 -3.379991e-03 -2.254600e-03 -1.768571e-03 -9.848410e-04 -1.104068e-03 -3.441304e-04 -7.992437e-04 1.041531e-05 -6.466546e-04 1.921292e-04 -5.414858e-04 2.668790e-04 -4.281173e-04 2.514917e-04 -3.003287e-04 1.501214e-04 -1.519518e-04 -1.517264e-05 2.493773e-05 -2.107860e-04 2.355686e-04 -4.030438e-04 4.557074e-04 -5.758275e-04 6.435773e-04 -7.078788e-04 7.606291e-04 -7.774076e-04 7.751287e-04 -7.534404e-04 6.709404e-04 -6.113353e-04 4.440974e-04 -3.266804e-04 1.189074e-04 9.801225e-05 -3.087458e-04 5.917760e-04 -8.418216e-04 1.090974e-03 -1.416332e-03 1.553471e-03 -1.912399e-03 1.925972e-03 -2.157504e-03 2.083425e-03 -1.787170e-03 1.822891e-03 7.394090e-04 -4.746932e-03 1.156988e-02 5.585965e-04 -2.235960e-03 -2.043943e-03 -1.095768e-03 
-1.359308e-03 1.811960e-03 3.151486e-04 3.987009e-03 -1.284034e-02 -6.120294e-03 8.923094e-03 -2.264393e-03 2.206279e-03 3.070543e-04 1.170924e-03 2.655527e-03 2.356190e-03 -1.583587e-03 1.497848e-03 -1.352146e-03 1.365026e-03 -1.566260e-03 1.914649e-03 -1.994583e-03 2.544325e-03 -2.351150e-03 -2.347272e-03 -6.279168e-04 -1.354007e-03 -8.146390e-05 -1.227487e-03 2.731992e-04 -1.156386e-03 5.679699e-04 -1.030969e-03 7.583869e-04 -8.910759e-04 7.787614e-04 -7.814102e-04 6.326546e-04 -6.773006e-04 4.256330e-04 -4.994386e-04 2.446624e-04 -2.745385e-04 5.984089e-05 -8.732264e-05 -1.487660e-04 2.688349e-05 -3.605663e-04 6.543924e-05 -5.623163e-04 -1.742151e-05 -8.373662e-04 -3.441067e-04 -1.303169e-03 -1.019742e-03 -2.115856e-03 -2.273692e-03 -3.324762e-03 -2.111747e-03 6.046040e-04 1.368891e-05 -3.041312e-03 1.288735e-03 2.678290e-03 -6.453751e-04 2.010816e-03 -2.878671e-03 -5.532495e-05 4.981863e-03 3.399808e-03 1.689023e-03 2.898655e-04 -3.003764e-03 -7.363783e-04 1.418067e-03 1.756351e-03 1.497028e-03 7.172530e-04 1.007949e-03 6.441460e-05 8.302431e-04 -2.963949e-04 7.773980e-04 -4.859870e-04 7.402617e-04 -5.433760e-04 6.913856e-04 -4.795138e-04 5.791552e-04 -3.498702e-04 3.642040e-04 -1.700312e-04 6.544146e-05 6.570916e-05 -2.653392e-04 3.721197e-04 -5.724917e-04 7.094367e-04 -8.454224e-04 1.006919e-03 -1.059199e-03 1.201535e-03 -1.189391e-03 1.240248e-03 -1.190054e-03 1.102191e-03 -1.024087e-03 7.855887e-04 -6.355397e-04 3.525647e-04 -9.552401e-06 -2.203467e-04 7.195805e-04 -9.777546e-04 1.458780e-03 -1.830907e-03 2.192080e-03 -2.606811e-03 2.903173e-03 -3.131651e-03 3.369378e-03 -3.235007e-03 2.803986e-03 -2.079754e-03 -4.117426e-03 2.536583e-02 -7.009979e-04 -7.663634e-03 -3.788534e-03 -2.166606e-03 
-1.066119e-04 1.067402e-03 4.783905e-03 5.199519e-03 3.929383e-03 -9.651856e-03 -1.352744e-02 1.816159e-03 -7.036216e-04 -9.233480e-04 3.628834e-04 -2.478828e-03 -3.504084e-04 -4.690308e-04 3.511578e-04 -5.712390e-04 5.350499e-04 -5.956069e-04 5.789461e-04 -4.318577e-04 3.779019e-04 -1.389372e-04 2.313872e-03 -1.540143e-04 1.194175e-03 1.479356e-04 4.730551e-04 3.820283e-04 -2.316104e-05 5.984507e-04 -2.982125e-04 7.564570e-04 -4.380582e-04 7.928792e-04 -5.118667e-04 7.018986e-04 -5.247013e-04 5.579224e-04 -4.344866e-04 4.270064e-04 -2.704647e-04 2.949817e-04 -9.861177e-05 1.576626e-04 5.851571e-05 4.628823e-05 2.136570e-04 1.767075e-07 3.678675e-04 1.640432e-05 5.054914e-04 1.202082e-04 6.937049e-04 4.193146e-04 1.022848e-03 1.047707e-03 1.096102e-03 4.749402e-04 3.416958e-03 4.161726e-03 -1.575713e-03 -3.134226e-03 -2.605023e-03 1.538958e-03 4.043364e-03 7.519292e-04 -7.074875e-03 -6.822591e-03 -3.141173e-03 1.214975e-03 4.095824e-03 2.682850e-03 2.514288e-04 -8.200273e-04 -4.052522e-04 -7.857379e-04 -5.903063e-07 -6.879729e-04 2.624466e-04 -6.492954e-04 4.209811e-04 -6.253424e-04 4.884221e-04 -5.757053e-04 4.956857e-04 -4.733131e-04 4.310973e-04 -3.410086e-04 2.782823e-04 -1.818303e-04 5.654625e-05 1.216056e-05 -1.922838e-04 2.533699e-04 -4.252866e-04 5.156430e-04 -6.353502e-04 7.502545e-04 -8.061816e-04 9.119329e-04 -9.209963e-04 9.626720e-04 -9.481671e-04 8.890556e-04 -8.612670e-04 6.914335e-04 -6.189745e-04 4.143105e-04 -2.103521e-04 3.829905e-05 2.677609e-04 -4.729034e-04 7.478552e-04 -1.060036e-03 1.218187e-03 -1.603140e-03 1.668934e-03 -1.983487e-03 1.972428e-03 -2.092450e-03 1.856299e-03 -1.493734e-03 4.494579e-03 1.897528e-02 -3.512748e-03 -7.942575e-03 -4.317244e-03 -2.851278e-03 
1.615534e-04 7.596153e-04 3.315093e-03 3.023060e-03 7.687038e-03 -2.635030e-03 -1.100504e-02 1.842336e-03 -1.528787e-03 -1.604885e-03 -2.425205e-04 -4.508018e-03 -1.715723e-03 -3.466635e-04 3.760211e-04 -5.407706e-04 5.486803e-04 -5.996902e-04 5.656223e-04 -4.580816e-04 2.707853e-04 2.924382e-03 3.893263e-03 7.761361e-05 1.099414e-03 -2.494431e-05 2.724066e-04 1.365714e-04 -1.342838e-04 3.023346e-04 -3.274728e-04 4.238919e-04 -4.070602e-04 4.797469e-04 -4.196829e-04 4.748625e-04 -3.795458e-04 4.361874e-04 -2.852298e-04 3.926703e-04 -1.441377e-04 3.615470e-04 3.337352e-05 3.643070e-04 2.542630e-04 4.392570e-04 5.523267e-04 6.501343e-04 1.001815e-03 1.113153e-03 1.775398e-03 2.096755e-03 3.313145e-03 4.310555e-03 6.661514e-03 7.851945e-03 5.680324e-03 -2.492333e-03 -8.703310e-03 -1.447883e-03 -1.833395e-03 2.105793e-03 5.911586e-03 -6.904027e-03 -4.375918e-03 -3.312718e-04 1.799756e-03 9.023586e-03 1.425296e-03 -2.610467e-03 -2.228899e-03 -4.684362e-03 -6.070850e-03 -5.058579e-03 -2.824416e-03 -2.322678e-03 -1.156849e-03 -1.315884e-03 -4.197327e-04 -8.508084e-04 -5.387627e-05 -6.179151e-04 1.159308e-04 -4.783696e-04 1.766877e-04 -3.653807e-04 1.652125e-04 -2.546080e-04 9.804533e-05 -1.359205e-04 -8.614520e-06 -5.048783e-06 -1.344600e-04 1.372390e-04 -2.598165e-04 2.794470e-04 -3.729091e-04 4.023087e-04 -4.621269e-04 4.851773e-04 -5.149786e-04 5.114272e-04 -5.173874e-04 4.736648e-04 -4.574172e-04 3.726833e-04 -3.263046e-04 2.186740e-04 -1.313253e-04 1.494202e-05 9.286712e-05 -2.300888e-04 3.082002e-04 -4.771211e-04 4.819207e-04 -6.500659e-04 5.835277e-04 -6.197042e-04 6.123721e-04 -1.161586e-04 8.277521e-04 1.207541e-03 4.007141e-03 2.193522e-03 -4.691560e-03 -2.722492e-03 -2.376886e-03 -9.167345e-04 
-1.015460e-04 -7.775947e-06 7.685024e-04 5.081001e-04 1.256305e-03 -2.833328e-04 -2.068359e-03 -5.373613e-04 -1.093856e-03 -1.261537e-03 4.456469e-05 -2.015880e-03 -2.970697e-03 -2.137764e-04 6.195614e-05 -2.119211e-04 1.604498e-04 -1.766246e-04 2.030250e-04 -7.779279e-05 2.058551e-04 4.531819e-03 3.310690e-03 -9.605391e-04 5.309098e-04 -7.202686e-04 1.897324e-04 -2.737899e-04 2.705465e-05 3.963444e-05 -6.726438e-05 2.282352e-04 -1.258762e-04 3.183239e-04 -1.533881e-04 3.413125e-04 -1.449295e-04 3.307072e-04 -9.375523e-05 3.139499e-04 -2.274004e-06 3.069982e-04 1.219061e-04 3.235264e-04 2.760068e-04 3.796219e-04 4.632427e-04 4.924122e-04 6.935826e-04 6.885748e-04 1.010443e-03 1.057553e-03 1.586301e-03 1.922825e-03 2.991923e-03 3.745019e-03 4.230549e-03 2.969822e-03 3.867253e-04 2.691033e-03 -1.184225e-03 -5.256443e-03 -1.439811e-03 4.253208e-04 3.136740e-03 7.976695e-05 -5.937629e-03 -5.469426e-03 -4.083912e-03 6.757129e-04 3.617839e-03 1.136494e-03 -2.824768e-03 -3.124620e-03 -1.580435e-03 -1.353286e-03 -5.796713e-04 -8.105424e-04 -1.974599e-04 -5.719585e-04 -3.996093e-06 -4.440203e-04 8.749606e-05 -3.579044e-04 1.163523e-04 -2.803254e-04 1.002241e-04 -1.989351e-04 4.817893e-05 -1.091646e-04 -2.952670e-05 -9.660338e-06 -1.197328e-04 9.746065e-05 -2.094666e-04 2.028563e-04 -2.896051e-04 2.919601e-04 -3.512757e-04 3.498403e-04 -3.849986e-04 3.647115e-04 -3.802352e-04 3.307497e-04 -3.282840e-04 2.477974e-04 -2.244928e-04 1.211589e-04 -7.578230e-05 -4.622866e-05 9.422736e-05 -2.458274e-04 2.596983e-04 -4.466568e-04 4.011005e-04 -5.868299e-04 5.083169e-04 -5.580468e-04 5.932163e-04 -1.638416e-04 7.292115e-04 8.110444e-04 5.430176e-04 1.303216e-03 -1.066364e-03 -5.538748e-04 -8.552606e-04 -5.205473e-04 
5.303007e-05 7.533663e-05 4.803498e-04 2.079795e-04 5.289572e-04 -1.518740e-04 -1.043651e-03 -1.995430e-04 -6.495634e-04 -5.874168e-04 1.513358e-04 -7.994986e-04 -1.109494e-03 -1.042050e-04 6.074948e-05 -1.334913e-04 1.192506e-04 -1.293909e-04 1.300747e-04 -7.237568e-05 1.007562e-04 2.387380e-03 1.713530e-03 -4.936281e-04 2.265205e-04 -3.872065e-04 2.015131e-05 -1.692008e-04 -5.692507e-05 -3.907024e-06 -8.120381e-05 1.042487e-04 -8.215091e-05 1.687483e-04 -6.460659e-05 2.075407e-04 -2.566781e-05 2.383484e-04 3.974839e-05 2.770259e-04 1.359094e-04 3.369231e-04 2.665842e-04 4.301688e-04 4.357461e-04 5.667471e-04 6.446625e-04 7.507275e-04 8.879195e-04 9.796571e-04 1.156370e-03 1.253872e-03 1.444349e-03 1.585092e-03 1.769078e-03 2.085287e-03 1.870786e-03 -1.336262e-04 -1.645020e-03 7.724452e-04 -3.087002e-04 -2.146792e-03 -1.107891e-03 -1.205511e-03 8.610614e-04 1.070936e-04 -2.954238e-03 -2.395453e-03 -1.733574e-03 -6.150278e-04 7.623152e-04 8.456724e-04 -5.189619e-04 -1.163535e-03 -8.589115e-04 -8.764358e-04 -5.214244e-04 -6.392692e-04 -3.098063e-04 -4.759478e-04 -1.707559e-04 -3.614369e-04 -8.868640e-05 -2.792050e-04 -4.785568e-05 -2.139817e-04 -3.533312e-05 -1.559284e-04 -4.229654e-05 -1.000926e-04 -6.203387e-05 -4.470863e-05 -8.848744e-05 9.525247e-06 -1.164456e-04 5.933373e-05 -1.419331e-04 9.984730e-05 -1.611219e-04 1.262697e-04 -1.698142e-04 1.351639e-04 -1.638588e-04 1.249650e-04 -1.405270e-04 9.571628e-05 -9.979298e-05 4.900017e-05 -4.593493e-05 -1.253212e-05 1.224741e-05 -8.258542e-05 6.501092e-05 -1.470143e-04 1.057085e-04 -1.807184e-04 1.368391e-04 -1.452711e-04 1.796706e-04 2.249523e-06 2.744807e-04 2.338438e-04 3.258716e-04 1.886343e-04 -4.162060e-04 -2.012333e-04 -3.383719e-04 -1.358563e-04 
8.830333e-07 -1.611120e-06 6.086085e-07 -1.375938e-06 5.304679e-07 -7.851195e-07 5.317966e-07 -1.022826e-07 6.863445e-08 4.567259e-07 -4.475054e-07 7.918714e-07 -8.760239e-07 3.938982e-07 3.312453e-07 3.693126e-07 2.162327e-07 3.469854e-07 2.409521e-08 3.030435e-07 -4.100116e-07 1.350087e-05 1.027486e-05 1.520869e-05 8.957175e-06 1.325728e-05 7.946534e-06 1.362777e-05 1.106679e-05 1.910419e-05 1.940165e-05 2.922157e-05 3.106022e-05 4.213519e-05 4.503462e-05 5.878714e-05 6.429655e-05 8.378950e-05 9.440715e-05 1.223497e-04 1.401663e-04 1.780421e-04 2.049283e-04 2.532049e-04 2.906412e-04 3.480168e-04 3.952014e-04 4.573041e-04 5.094855e-04 5.710506e-04 6.229496e-04 6.873988e-04 7.394623e-04 8.246505e-04 8.676731e-04 9.865530e-04 9.486612e-04 1.016492e-03 6.467774e-04 6.915433e-04 -9.163097e-05 -9.355493e-04 -5.547819e-04 -4.355750e-04 1.240483e-06 -5.492016e-04 -1.493940e-03 -1.590708e-03 -1.353832e-03 -5.637659e-04 -1.334812e-04 -2.655647e-04 -6.062344e-04 -6.414615e-04 -4.914153e-04 -4.692823e-04 -3.065329e-04 -3.236020e-04 -1.867083e-04 -2.208476e-04 -1.168630e-04 -1.545617e-04 -8.144859e-05 -1.130636e-04 -6.533440e-05 -8.605882e-05 -5.832407e-05 -6.750757e-05 -5.472430e-05 -5.369611e-05 -5.092871e-05 -4.185095e-05 -4.497028e-05 -3.076494e-05 -3.735100e-05 -2.142053e-05 -3.038761e-05 -1.526654e-05 -2.561930e-05 -1.214359e-05 -2.244037e-05 -1.010336e-05 -1.897990e-05 -7.352139e-06 -1.454971e-05 -4.133633e-06 -1.022901e-05 -2.018466e-06 -7.697816e-06 -2.482405e-06 -7.592074e-06 -4.920405e-06 -8.115610e-06 -6.744626e-06 -6.865158e-06 -6.111562e-06 -3.375864e-06 -3.669956e-06 4.169140e-07 -1.560227e-06 2.579962e-06 -7.370865e-07 2.964504e-06 -7.596562e-07 2.299906e-06 -1.187698e-06 1.466535e-06 -1.534181e-06 
-5.119343e-05 -7.832108e-05 -4.790197e-04 -2.104255e-04 -5.277003e-04 1.510677e-04 1.045133e-03 2.010076e-04 6.495527e-04 5.910135e-04 -1.527875e-04 8.043535e-04 1.105942e-03 1.043513e-04 -6.091799e-05 1.333351e-04 -1.194850e-04 1.292774e-04 -1.301993e-04 7.259810e-05 -1.009185e-04 -2.355485e-03 -1.688607e-03 5.349733e-04 -2.009859e-04 4.275509e-04 6.599098e-06 2.138801e-04 9.411683e-05 6.409819e-05 1.408707e-04 -1.753884e-05 1.737932e-04 -4.686088e-05 1.972073e-04 -3.840491e-05 2.155813e-04 9.705231e-07 2.366011e-04 6.809534e-05 2.681075e-04 1.601840e-04 3.168329e-04 2.743827e-04 3.875576e-04 4.062705e-04 4.793878e-04 5.450422e-04 5.794479e-04 6.685032e-04 6.607260e-04 7.458016e-04 6.894663e-04 7.449308e-04 6.288659e-04 6.205306e-04 4.110616e-04 2.416895e-04 -7.910562e-05 -3.347113e-05 -2.581253e-04 -5.671315e-04 -4.380574e-04 -6.660864e-04 -4.348144e-04 -6.318594e-04 -8.186937e-04 -7.997436e-04 -7.052630e-04 -5.497315e-04 -3.701927e-04 -3.132053e-04 -3.723114e-04 -3.743919e-04 -3.706299e-04 -3.193074e-04 -3.218334e-04 -2.357282e-04 -2.741515e-04 -1.593227e-04 -2.389815e-04 -1.024691e-04 -2.128243e-04 -6.556839e-05 -1.877304e-04 -4.636893e-05 -1.584662e-04 -4.316323e-05 -1.226714e-04 -5.297241e-05 -7.930702e-05 -7.123420e-05 -2.954629e-05 -9.385873e-05 2.158329e-05 -1.184167e-04 6.658624e-05 -1.418849e-04 9.942549e-05 -1.585319e-04 1.175434e-04 -1.608542e-04 1.206091e-04 -1.436304e-04 1.073464e-04 -1.071434e-04 7.596265e-05 -5.562078e-05 2.784541e-05 5.658366e-06 -2.931180e-05 7.161687e-05 -8.231208e-05 1.330232e-04 -1.200190e-04 1.682257e-04 -1.440464e-04 1.376138e-04 -1.792559e-04 -5.761447e-06 -2.694485e-04 -2.356996e-04 -3.193859e-04 -1.905273e-04 4.209850e-04 1.987224e-04 3.413806e-04 1.328974e-04 
1.034096e-04 4.448930e-06 -7.671823e-04 -5.116368e-04 -1.255135e-03 2.815860e-04 2.071178e-03 5.373496e-04 1.093803e-03 1.263069e-03 -4.603048e-05 2.018872e-03 2.967727e-03 2.145775e-04 -6.119962e-05 2.126404e-04 -1.597089e-04 1.774051e-04 -2.019259e-04 7.944563e-05 -2.035126e-04 -4.500025e-03 -3.287106e-03 9.933128e-04 -5.163807e-04 7.376318e-04 -1.901325e-04 2.809080e-04 -2.538896e-05 -1.946065e-05 9.344220e-05 -1.801033e-04 1.798314e-04 -2.476054e-04 2.240079e-04 -2.551010e-04 2.323839e-04 -2.150709e-04 2.217497e-04 -1.374524e-04 2.037722e-04 -3.740401e-05 1.860155e-04 7.186956e-05 1.783913e-04 1.845276e-04 1.932237e-04 2.980658e-04 2.345209e-04 4.007502e-04 2.882483e-04 4.711357e-04 3.323045e-04 4.936931e-04 3.506943e-04 4.595443e-04 3.201087e-04 3.372072e-04 1.962902e-04 9.785567e-05 -2.319716e-05 -2.954006e-04 -1.802697e-04 -4.203002e-04 -2.345468e-04 -5.080176e-04 -4.561289e-04 -6.045508e-04 -4.337421e-04 -4.315480e-04 -2.699929e-04 -2.982996e-04 -2.881979e-04 -2.431825e-04 -2.837137e-04 -1.377015e-04 -2.653346e-04 -2.927638e-05 -2.590758e-04 5.356535e-05 -2.644965e-04 1.048388e-04 -2.653328e-04 1.284124e-04 -2.477786e-04 1.225856e-04 -2.106289e-04 8.291653e-05 -1.543014e-04 1.554285e-05 -7.465835e-05 -6.501846e-05 2.845927e-05 -1.474893e-04 1.411765e-04 -2.298107e-04 2.401718e-04 -3.082777e-04 3.080998e-04 -3.684099e-04 3.401183e-04 -3.868498e-04 3.391336e-04 -3.467294e-04 3.000962e-04 -2.512752e-04 2.114819e-04 -1.146626e-04 7.023069e-05 4.923235e-05 -1.069125e-04 2.334100e-04 -2.832925e-04 4.229022e-04 -4.244331e-04 5.665203e-04 -5.173275e-04 5.508782e-04 -5.870325e-04 1.648194e-04 -7.177495e-04 -8.095766e-04 -5.328525e-04 -1.302671e-03 1.072519e-03 5.523709e-04 8.585778e-04 5.178341e-04 
-1.599710e-04 -7.627956e-04 -3.313923e-03 -3.028489e-03 -7.685169e-03 2.632208e-03 1.101211e-02 -1.840925e-03 1.527978e-03 1.611229e-03 2.403711e-04 4.520672e-03 1.708515e-03 3.450894e-04 -3.775584e-04 5.392062e-04 -5.496168e-04 5.984043e-04 -5.649610e-04 4.598391e-04 -2.648500e-04 -2.887684e-03 -3.868220e-03 -3.617615e-05 -1.084995e-03 4.312420e-05 -2.826503e-04 -1.366367e-04 1.235640e-04 -2.858574e-04 3.497371e-04 -3.710927e-04 4.639279e-04 -4.047250e-04 4.888659e-04 -3.951673e-04 4.557001e-04 -3.369070e-04 3.980979e-04 -2.340330e-04 3.332257e-04 -1.061568e-04 2.689648e-04 2.756561e-05 2.174060e-04 1.604613e-04 1.985970e-04 2.949855e-04 2.244701e-04 4.208427e-04 2.796484e-04 5.095555e-04 3.325011e-04 5.357986e-04 3.565384e-04 4.833357e-04 3.144024e-04 3.140737e-04 1.856567e-04 1.314248e-04 -5.294781e-05 -3.763353e-04 -1.609229e-04 -4.710575e-04 -1.440572e-04 -5.207600e-04 -5.177584e-04 -6.826023e-04 -4.301807e-04 -4.129944e-04 -1.724992e-04 -2.523464e-04 -2.834776e-04 -2.518543e-04 -3.502462e-04 -1.519094e-04 -3.703509e-04 -2.955019e-05 -3.859236e-04 7.175863e-05 -4.012622e-04 1.407187e-04 -3.988341e-04 1.789834e-04 -3.654793e-04 1.785305e-04 -3.062963e-04 1.284658e-04 -2.247539e-04 3.706027e-05 -1.136184e-04 -7.315164e-05 3.044670e-05 -1.850450e-04 1.887285e-04 -2.983497e-04 3.270262e-04 -4.104582e-04 4.212463e-04 -5.014818e-04 4.668798e-04 -5.368743e-04 4.716033e-04 -4.918539e-04 4.281659e-04 -3.735519e-04 3.175362e-04 -2.045940e-04 1.323866e-04 -6.299343e-06 -1.049233e-04 2.146173e-04 -3.389023e-04 4.442852e-04 -5.138310e-04 6.227618e-04 -5.946278e-04 6.128659e-04 -6.019244e-04 1.208410e-04 -8.116438e-04 -1.203422e-03 -3.987754e-03 -2.192407e-03 4.697823e-03 2.721158e-03 2.379828e-03 9.146275e-04 
1.062995e-04 -1.071556e-03 -4.783301e-03 -5.207265e-03 -3.925154e-03 9.652387e-03 1.353459e-02 -1.816446e-03 7.003482e-04 9.246330e-04 -3.667870e-04 2.485632e-03 3.450582e-04 4.693208e-04 -3.506050e-04 5.716069e-04 -5.352939e-04 5.934761e-04 -5.798948e-04 4.341421e-04 -3.669639e-04 1.963095e-04 -2.247307e-03 2.308448e-04 -1.165402e-03 -1.639218e-04 -5.574355e-04 -4.912346e-04 -8.455053e-05 -6.590305e-04 2.999077e-04 -7.001705e-04 5.296008e-04 -7.099205e-04 5.634164e-04 -7.048512e-04 4.764301e-04 -6.219060e-04 3.675000e-04 -4.528097e-04 2.494205e-04 -2.641400e-04 1.018496e-04 -1.140535e-04 -6.767649e-05 -9.024174e-06 -1.999861e-04 9.542373e-05 -2.372536e-04 2.020370e-04 -2.097870e-04 2.450564e-04 -1.836714e-04 1.994011e-04 -1.433208e-04 1.373194e-04 -4.349346e-05 7.362495e-05 7.260041e-05 3.250969e-05 3.603245e-05 -3.159463e-04 1.123235e-04 -3.003747e-04 2.815841e-04 -2.574074e-04 7.365013e-05 -3.097830e-04 1.734546e-04 -9.880381e-05 2.331688e-04 -7.739080e-05 -6.324095e-05 -9.240885e-05 -2.132204e-04 7.521214e-05 -2.899102e-04 2.566617e-04 -3.848945e-04 3.786400e-04 -4.875281e-04 4.481204e-04 -5.360776e-04 4.971485e-04 -4.951382e-04 4.915497e-04 -4.171089e-04 3.678830e-04 -3.250834e-04 1.523317e-04 -1.725307e-04 -7.643768e-05 8.241824e-05 -2.707884e-04 3.944924e-04 -4.681012e-04 6.568648e-04 -6.955528e-04 8.089512e-04 -9.164228e-04 8.580014e-04 -1.023857e-03 8.697313e-04 -9.306161e-04 8.265420e-04 -6.793848e-04 6.452963e-04 -3.431807e-04 2.736030e-04 2.050524e-05 -2.625736e-04 4.415700e-04 -8.237243e-04 9.666390e-04 -1.308081e-03 1.535546e-03 -1.684715e-03 1.996046e-03 -1.922197e-03 2.127498e-03 -1.812585e-03 1.502804e-03 -4.472736e-03 -1.896638e-02 3.516744e-03 7.938330e-03 4.315814e-03 2.847777e-03 
1.356252e-03 -1.812117e-03 -3.166893e-04 -3.986730e-03 1.284101e-02 6.128462e-03 -8.928459e-03 2.265659e-03 -2.211262e-03 -3.141413e-04 -1.175369e-03 -2.663076e-03 -2.355848e-03 1.581420e-03 -1.498964e-03 1.353475e-03 -1.366215e-03 1.559383e-03 -1.919465e-03 2.006334e-03 -2.519239e-03 2.409520e-03 2.445744e-03 7.057519e-04 1.400832e-03 2.919007e-05 1.121270e-03 -4.546683e-04 1.019734e-03 -6.819966e-04 1.043940e-03 -7.088821e-04 1.022803e-03 -6.882929e-04 8.483930e-04 -6.572217e-04 5.912794e-04 -5.348249e-04 3.647909e-04 -3.115348e-04 1.678283e-04 -7.814737e-05 -4.227014e-05 8.880351e-05 -2.672471e-04 1.825621e-04 -4.373037e-04 2.651305e-04 -4.808467e-04 3.433478e-04 -4.419251e-04 3.315671e-04 -4.101031e-04 2.019572e-04 -3.551923e-04 7.331768e-05 -1.777014e-04 2.133625e-05 4.548756e-05 -1.071349e-04 1.931184e-04 -1.957083e-04 1.815511e-04 -4.078921e-04 1.822834e-04 -4.431899e-04 4.238100e-04 -2.916033e-04 4.239273e-04 -2.813619e-04 2.252470e-04 -2.325725e-04 8.402084e-05 -6.692384e-05 -5.847405e-05 1.506147e-04 -1.949369e-04 3.482982e-04 -3.638870e-04 4.749603e-04 -5.304513e-04 5.483706e-04 -6.125213e-04 6.088776e-04 -5.672059e-04 6.039553e-04 -4.720531e-04 4.414731e-04 -3.606452e-04 1.560331e-04 -1.682837e-04 -1.453749e-04 1.623848e-04 -3.978567e-04 5.692084e-04 -6.512401e-04 9.062261e-04 -9.406362e-04 1.089353e-03 -1.216149e-03 1.124527e-03 -1.331371e-03 1.100046e-03 -1.164723e-03 9.907747e-04 -7.741876e-04 6.830646e-04 -2.585482e-04 1.074833e-04 3.014251e-04 -7.004537e-04 9.394750e-04 -1.550941e-03 1.710131e-03 -2.305828e-03 2.521383e-03 -2.919470e-03 3.153669e-03 -3.300977e-03 3.283054e-03 -2.750305e-03 2.089950e-03 4.120906e-03 -2.534641e-02 6.987517e-04 7.661171e-03 3.782308e-03 2.165401e-03 
2.178597e-03 -8.737057e-05 3.372649e-03 -1.005420e-05 1.308512e-02 3.692377e-04 -1.727135e-02 6.871006e-03 -2.110481e-03 4.444914e-03 -4.395121e-04 6.516276e-03 2.202816e-03 -1.787470e-03 1.329363e-03 -1.356613e-03 9.147549e-04 -1.342772e-03 1.824888e-03 -1.986072e-03 3.503957e-03 -3.707367e-03 -4.690420e-03 -1.082320e-03 -1.898096e-03 -7.150812e-04 -8.924811e-04 -6.859127e-04 -3.142615e-04 -6.419683e-04 4.022429e-05 -5.516262e-04 2.182301e-04 -4.562548e-04 2.378687e-04 -3.639949e-04 1.669758e-04 -2.379867e-04 7.961283e-05 -7.279676e-05 -5.925445e-06 9.226298e-05 -9.605790e-05 2.222814e-04 -1.839151e-04 3.116614e-04 -2.375195e-04 3.802411e-04 -2.319117e-04 4.204041e-04 -1.983522e-04 3.813952e-04 -1.942426e-04 2.350750e-04 -2.261629e-04 2.820082e-05 -2.392371e-04 -1.503850e-04 -1.796514e-04 -2.807184e-04 4.593379e-05 -1.893873e-04 1.293095e-04 -2.932472e-04 1.742467e-04 -1.785657e-04 5.434005e-04 1.333986e-05 4.074224e-04 -2.124450e-04 4.209267e-05 -3.051683e-04 -4.490344e-05 -1.806053e-04 -1.169357e-04 -3.677785e-05 -1.952179e-04 9.879510e-05 -2.870519e-04 1.989440e-04 -3.737925e-04 2.650593e-04 -4.152202e-04 3.094994e-04 -3.887267e-04 3.064211e-04 -3.239347e-04 2.154346e-04 -2.342279e-04 5.266489e-05 -9.310956e-05 -1.313227e-04 1.191195e-04 -3.023940e-04 3.672337e-04 -4.728094e-04 5.777393e-04 -6.479353e-04 7.021958e-04 -7.945733e-04 7.335323e-04 -8.374913e-04 7.009259e-04 -7.155365e-04 5.882417e-04 -4.488814e-04 3.442083e-04 -8.337255e-05 -5.737389e-05 3.390244e-04 -5.862069e-04 8.185424e-04 -1.136060e-03 1.354819e-03 -1.608633e-03 1.866219e-03 -1.937441e-03 2.159776e-03 -2.055115e-03 1.804775e-03 -1.798445e-03 -7.343163e-04 4.738707e-03 -1.155435e-02 -5.608343e-04 2.239287e-03 2.039903e-03 1.099206e-03 
1.094370e-03 -1.213663e-04 1.966538e-03 2.996780e-04 4.962710e-03 2.249484e-04 -6.190906e-03 1.989766e-03 -1.302649e-03 3.697649e-04 -9.378899e-04 3.345296e-04 2.120080e-03 2.738230e-03 -6.028693e-04 1.465808e-03 7.227635e-04 -4.171995e-04 4.438460e-04 -1.183202e-03 -2.935174e-03 -2.048090e-03 3.366873e-05 4.638716e-04 4.891068e-04 1.101741e-04 3.855078e-04 -9.308690e-05 3.428831e-04 -1.868334e-04 3.200359e-04 -2.084284e-04 2.899892e-04 -1.936442e-04 2.339169e-04 -1.592008e-04 1.605431e-04 -1.015004e-04 9.056129e-05 -2.051162e-05 3.450711e-05 7.270876e-05 -2.400113e-06 1.710168e-04 -6.390820e-06 2.824683e-04 4.853835e-05 4.271851e-04 1.883522e-04 6.210693e-04 4.244052e-04 8.702078e-04 7.555835e-04 1.172509e-03 1.149683e-03 1.453185e-03 1.385429e-03 1.341500e-03 1.212579e-03 1.218820e-03 -1.178156e-04 -1.047623e-03 -3.292775e-04 -7.347020e-04 1.364755e-04 -1.134634e-03 -2.457303e-03 -2.411329e-03 -1.572433e-03 -6.104557e-04 3.918904e-04 1.814199e-05 -3.043427e-04 -5.474778e-04 -5.470982e-04 -4.847233e-04 -4.761223e-04 -2.780909e-04 -3.738012e-04 -9.930000e-05 -3.098011e-04 1.708045e-05 -2.701363e-04 8.214895e-05 -2.300219e-04 1.011038e-04 -1.828675e-04 7.146255e-05 -1.250522e-04 3.786693e-06 -4.583819e-05 -8.068831e-05 6.006959e-05 -1.662992e-04 1.780377e-04 -2.513408e-04 2.793957e-04 -3.331585e-04 3.422997e-04 -3.949575e-04 3.610572e-04 -4.066062e-04 3.407435e-04 -3.451426e-04 2.748484e-04 -2.143217e-04 1.465164e-04 -3.237433e-05 -5.172475e-05 1.820828e-04 -3.026785e-04 4.200636e-04 -5.599614e-04 6.668435e-04 -7.689236e-04 8.701485e-04 -8.753163e-04 9.128990e-04 -8.104231e-04 5.623539e-04 -4.892404e-04 -1.027151e-03 1.087543e-03 -3.897293e-03 -3.721763e-04 -6.691365e-04 6.539761e-04 -7.474500e-05 
