# vtk DataFile Version 2.0
Comment goes here
ASCII

DATASET STRUCTURED_POINTS
FIELD FieldData 1
TIME 1 1 double
0.25000000
DIMENSIONS    128   16   1

ORIGIN    0.000   0.000   0.000
SPACING   0.0078125 0.015625   1.000

POINT_DATA   2048
SCALARS fMag double
LOOKUP_TABLE default

0 0 0 0 0 0 0 0 0 0 0 0 0 0 0 0 0 0 0 0 0 0 0 0 0 0 0 0 0 0 0 0 0 0 0 0 0 0 0 0 0 0 0 0 0 0 0 0 0 0 0 0 0 0 0 0 0 0 0 0 0 0 0 0 0 0 0 0 0 0 0 0 0 0 0 0 0 0 0 0 0 0 0 0 0 0 0 0 0 0 0 0 0 0 0 0 0 0 0 0 0 0 0 0 0 0 0 0 0 0 0 0 0 0 0 0 0 0 0 0 0 0 0 0 0 0 0 0 
0 0 0 0 0 0 0 0 0 0 0 0 0 0 0 0 0 0 0 0 0 0 0 0 0 0 0 0 0 0 0 0 0 0 0 0 0 0 0 0 0 0 0 0 0 0 0 0 0 0 0 0 0 0 0 0 0 0 0 0 0 0 0 0 0 0 0 0 0 0 0 0 0 0 0 0 0 0 0 0 0 0 0 0 0 0 0 0 0 0 0 0 0 0 0 0 0 0 0 0 0 0 0 0 0 0 0 0 0 0 0 0 0 0 0 0 0 0 0 0 0 0 0 0 0 0 0 0 
0 0 0 0 0 1.145846e+00 3.383228e+00 1.933107e+00 2.634300e+00 2.236439e+00 3.401093e+00 2.785822e+00 4.100087e+00 5.641198e+00 7.994838e+00 1.006442e+01 1.493814e+01 1.959123e+01 2.426265e+01 2.872177e+01 3.519245e+01 3.572494e+01 3.479301e+01 3.468480e+01 3.376946e+01 3.378045e+01 3.330593e+01 3.362684e+01 3.374564e+01 3.410559e+01 3.379449e+01 3.305496e+01 3.194592e+01 3.080487e+01 3.026735e+01 3.009819e+01 3.070161e+01 3.110543e+01 3.164361e+01 3.119671e+01 3.045603e+01 2.880853e+01 2.753100e+01 2.643860e+01 2.632699e+01 2.669428e+01 2.766326e+01 2.848580e+01 2.862301e+01 2.796144e+01 2.643445e+01 2.500647e+01 2.376820e+01 2.378039e+01 2.410042e+01 2.512229e+01 2.545582e+01 2.611922e+01 2.560121e+01 2.434089e+01 2.304633e+01 2.313869e+01 2.344895e+01 2.504209e+01 2.769853e+01 2.726735e+01 2.455448e+01 2.374203e+01 2.339050e+01 2.250940e+01 2.110415e+01 1.872528e+01 1.787131e+01 1.744923e+01 1.756424e+01 1.771769e+01 1.820842e+01 1.851573e+01 1.824440e+01 1.739585e+01 1.603351e+01 1.484335e+01 1.368564e+01 1.314030e+01 1.280919e+01 1.304445e+01 1.341918e+01 1.391525e+01 1.422133e+01 1.429136e+01 1.430407e+01 1.388434e+01 1.330332e+01 1.205558e+01 1.101666e+01 9.786695e+00 9.416430e+00 9.250689e+00 9.867782e+00 1.021255e+01 1.055497e+01 1.007994e+01 9.099978e+00 7.790632e+00 6.648292e+00 6.117945e+00 5.778256e+00 6.167426e+00 6.279470e+00 6.992759e+00 6.803435e+00 6.885224e+00 5.587371e+00 4.816283e+00 3.364583e+00 3.287037e+00 2.880500e+00 3.496660e+00 3.501978e+00 3.768848e+00 3.280543e+00 2.858047e+00 3.001271e+00 2.315423e-01 0 0 0 0 
0 0 0 0 0 3.369197e+00 9.949293e+00 5.682413e+00 7.744397e+00 6.575688e+00 9.999665e+00 8.188191e+00 1.205369e+01 1.659297e+01 2.352052e+01 2.960862e+01 4.394604e+01 5.763791e+01 7.138385e+01 8.450795e+01 1.035541e+02 1.051213e+02 1.023778e+02 1.020592e+02 9.936460e+01 9.939687e+01 9.800009e+01 9.894476e+01 9.929450e+01 1.003541e+02 9.943845e+01 9.726154e+01 9.399716e+01 9.063843e+01 8.905626e+01 8.855831e+01 9.033433e+01 9.152291e+01 9.310700e+01 9.179156e+01 8.961147e+01 8.476247e+01 8.100235e+01 7.778739e+01 7.745893e+01 7.853994e+01 8.139192e+01 8.381274e+01 8.421659e+01 8.226950e+01 7.777515e+01 7.357256e+01 6.992826e+01 6.996405e+01 7.090586e+01 7.391320e+01 7.524149e+01 7.718637e+01 7.570962e+01 7.172718e+01 6.625007e+01 6.369687e+01 6.291713e+01 6.563533e+01 7.108194e+01 7.365440e+01 7.164904e+01 6.847068e+01 6.452515e+01 5.996093e+01 5.736479e+01 5.436459e+01 5.255748e+01 5.133329e+01 5.167172e+01 5.212329e+01 5.356731e+01 5.447155e+01 5.367314e+01 5.117631e+01 4.716767e+01 4.366584e+01 4.025955e+01 3.865503e+01 3.768084e+01 3.837301e+01 3.947554e+01 4.093512e+01 4.183567e+01 4.204170e+01 4.207908e+01 4.084409e+01 3.913465e+01 3.546366e+01 3.240711e+01 2.878865e+01 2.769939e+01 2.721190e+01 2.902751e+01 3.004188e+01 3.104942e+01 2.965201e+01 2.676897e+01 2.291725e+01 1.955657e+01 1.799640e+01 1.699701e+01 1.814165e+01 1.847115e+01 2.056933e+01 2.001233e+01 2.025302e+01 1.643533e+01 1.416727e+01 9.897574e+00 9.669952e+00 8.475010e+00 1.028885e+01 1.030714e+01 1.109874e+01 9.679008e+00 8.433234e+00 8.835046e+00 6.809685e-01 0 0 0 0 
0 0 0 0 0 2.326843e+00 6.871886e+00 3.923631e+00 5.347786e+00 4.541202e+00 6.905626e+00 5.653437e+00 8.323574e+00 5.461178e+01 7.230093e+01 6.103947e+01 7.394112e+01 7.201184e+01 8.047642e+01 8.927418e+01 9.010617e+01 7.263655e+01 7.074024e+01 7.051998e+01 6.865754e+01 6.867981e+01 6.771442e+01 6.836735e+01 6.860910e+01 6.934153e+01 6.870867e+01 6.720408e+01 6.494796e+01 6.262658e+01 6.153310e+01 6.118893e+01 6.241633e+01 6.323778e+01 6.433258e+01 6.342343e+01 6.191674e+01 5.856559e+01 5.596697e+01 5.374523e+01 5.351825e+01 5.426532e+01 5.623634e+01 5.790932e+01 5.818841e+01 5.684282e+01 5.373677e+01 5.083251e+01 4.831404e+01 4.833873e+01 4.898957e+01 5.106780e+01 5.201232e+01 5.178126e+01 4.843820e+01 4.571223e+01 4.116271e+01 3.653967e+01 3.522695e+01 3.640149e+01 3.714029e+01 4.241619e+01 4.545613e+01 4.207581e+01 3.802065e+01 3.377657e+01 3.372109e+01 3.540128e+01 3.609597e+01 3.546471e+01 3.569856e+01 3.601059e+01 3.700839e+01 3.763320e+01 3.708150e+01 3.535627e+01 3.258643e+01 3.016685e+01 2.781331e+01 2.670470e+01 2.603161e+01 2.650985e+01 2.727160e+01 2.828008e+01 2.890229e+01 2.904464e+01 2.907046e+01 2.821716e+01 2.703607e+01 2.449974e+01 2.238796e+01 1.988805e+01 1.913551e+01 1.879877e+01 2.005322e+01 2.075406e+01 2.145024e+01 2.048485e+01 1.849297e+01 1.583202e+01 1.351020e+01 1.243234e+01 1.174186e+01 1.253253e+01 1.276011e+01 1.420958e+01 1.382476e+01 1.399108e+01 1.135374e+01 9.786992e+00 6.837670e+00 6.680659e+00 5.855609e+00 7.109306e+00 7.123232e+00 7.673278e+00 6.700560e+00 5.838518e+00 6.106647e+00 4.703657e-01 0 0 0 0 
0 0 0 0 0 1.034931e-01 3.058214e-01 1.743251e-01 2.376884e-01 2.019533e-01 3.070539e-01 2.510688e-01 3.699665e-01 6.065573e+01 6.611875e+01 6.222511e+01 6.456282e+01 6.410412e+01 6.257903e+01 6.594791e+01 6.057732e+01 3.240228e+00 3.155477e+00 3.145629e+00 3.062404e+00 3.063390e+00 3.020263e+00 3.049436e+00 3.060242e+00 3.092975e+00 3.064709e+00 2.997490e+00 2.896722e+00 2.793023e+00 2.744183e+00 2.728808e+00 2.783614e+00 2.820300e+00 2.869196e+00 2.828587e+00 2.761299e+00 2.611658e+00 2.495622e+00 2.396442e+00 2.386312e+00 2.419668e+00 2.507684e+00 2.582375e+00 2.594836e+00 2.534760e+00 2.396063e+00 2.266418e+00 2.153988e+00 2.155079e+00 2.184128e+00 2.276892e+00 2.162173e+00 4.264003e-01 2.351058e+00 2.220323e+00 2.298291e+00 4.392284e+00 4.649242e+00 4.282261e+00 6.657194e+00 4.381435e+00 1.855416e+00 2.912683e+00 2.981341e+00 3.553267e+00 2.717853e+00 7.675430e-01 1.353035e+00 1.580639e+00 1.591072e+00 1.604993e+00 1.649508e+00 1.677378e+00 1.652765e+00 1.575811e+00 1.452262e+00 1.344356e+00 1.239402e+00 1.189968e+00 1.159957e+00 1.181280e+00 1.215244e+00 1.260215e+00 1.287959e+00 1.294306e+00 1.295455e+00 1.257402e+00 1.204740e+00 1.091660e+00 9.975150e-01 8.860896e-01 8.525501e-01 8.375549e-01 8.934899e-01 9.247384e-01 9.557894e-01 9.127720e-01 8.239794e-01 7.054071e-01 6.019170e-01 5.538821e-01 5.231000e-01 5.583089e-01 5.684372e-01 6.330118e-01 6.158571e-01 6.232790e-01 5.057861e-01 4.360040e-01 3.046791e-01 2.977437e-01 2.610990e-01 3.171201e-01 3.180671e-01 3.433826e-01 3.020950e-01 2.633305e-01 2.728726e-01 2.093952e-02 0 0 0 0 
0 0 0 0 0 0 0 0 0 0 0 0 0 6.620284e+01 7.186042e+01 6.777439e+01 6.984165e+01 6.988126e+01 6.750142e+01 7.208977e+01 6.558807e+01 0 0 0 0 0 0 0 0 0 0 0 0 0 0 0 0 0 0 0 0 0 0 0 0 0 0 0 0 0 0 0 0 0 0 0 6.481012e-02 3.110696e-01 6.319314e-01 4.734714e-01 2.522371e-01 3.706470e-01 3.568610e-01 6.378331e-02 2.373406e-01 2.465139e-03 1.221795e-01 2.391066e-01 1.462032e-01 2.375541e-01 1.083323e-01 2.475848e-01 5.848491e-02 0 0 0 0 0 0 0 0 0 0 0 0 0 0 0 0 0 0 0 0 0 0 0 0 0 0 0 0 0 0 0 0 0 0 0 0 0 0 0 0 0 0 0 0 0 0 0 0 0 0 0 0 0 0 0 
0 0 0 0 0 0 0 0 0 0 0 0 0 6.555608e+01 6.789631e+01 6.588987e+01 6.686571e+01 6.671428e+01 6.601724e+01 6.775876e+01 6.567082e+01 0 0 0 0 0 0 0 0 0 0 0 0 0 0 0 0 0 0 0 0 0 0 0 0 0 0 0 0 0 0 0 0 0 0 0 0 0 0 0 0 0 0 0 0 0 0 0 0 0 0 0 0 0 0 0 0 0 0 0 0 0 0 0 0 0 0 0 0 0 0 0 0 0 0 0 0 0 0 0 0 0 0 0 0 0 0 0 0 0 0 0 0 0 0 0 0 0 0 0 0 0 0 0 0 0 0 0 
0 0 0 0 0 0 0 0 0 0 0 0 0 6.922926e+01 7.222397e+01 6.984773e+01 7.090425e+01 7.106288e+01 6.965109e+01 7.241385e+01 6.899319e+01 0 0 0 0 0 0 0 0 0 0 0 0 0 0 0 0 0 0 0 0 0 0 0 0 0 0 0 0 0 0 0 0 0 0 0 0 0 0 0 0 0 0 0 0 0 0 0 0 0 0 0 0 0 0 0 0 0 0 0 0 0 0 0 0 0 0 0 0 0 0 0 0 0 0 0 0 0 0 0 0 0 0 0 0 0 0 0 0 0 0 0 0 0 0 0 0 0 0 0 0 0 0 0 0 0 0 0 
0 0 0 0 0 0 0 0 0 0 0 0 0 6.555887e+01 6.794317e+01 6.587809e+01 6.690348e+01 6.669207e+01 6.605228e+01 6.772968e+01 6.570193e+01 0 0 0 0 0 0 0 0 0 0 0 0 0 0 0 0 0 0 0 0 0 0 0 0 0 0 0 0 0 0 0 0 0 0 0 0 0 0 0 0 0 0 0 0 0 0 0 0 0 0 0 0 0 0 0 0 0 0 0 0 0 0 0 0 0 0 0 0 0 0 0 0 0 0 0 0 0 0 0 0 0 0 0 0 0 0 0 0 0 0 0 0 0 0 0 0 0 0 0 0 0 0 0 0 0 0 0 
0 0 0 0 0 0 0 0 0 0 0 0 0 6.615483e+01 7.190053e+01 6.775770e+01 6.989789e+01 6.990165e+01 6.764410e+01 7.205981e+01 6.582081e+01 0 0 0 0 0 0 0 0 0 0 0 0 0 0 0 0 0 0 0 0 0 0 0 0 0 0 0 0 0 0 0 0 0 0 0 0 0 0 0 0 0 0 0 0 0 0 0 0 0 0 0 0 0 0 0 0 0 0 0 0 0 0 0 0 0 0 0 0 0 0 0 0 0 0 0 0 0 0 0 0 0 0 0 0 0 0 0 0 0 0 0 0 0 0 0 0 0 0 0 0 0 0 0 0 0 0 0 
0 0 0 0 0 1.047207e-01 3.167724e-01 2.030418e-01 2.744350e-01 2.237316e-01 3.080844e-01 2.428160e-01 3.550414e-01 6.064071e+01 6.627063e+01 6.217296e+01 6.466329e+01 6.402451e+01 6.269386e+01 6.579741e+01 6.067699e+01 3.243826e+00 3.165326e+00 3.163084e+00 3.087165e+00 3.103064e+00 3.093723e+00 3.143221e+00 3.124329e+00 3.099197e+00 3.019803e+00 2.951315e+00 2.878890e+00 2.828432e+00 2.797063e+00 2.769657e+00 2.751279e+00 2.714109e+00 2.691100e+00 2.663918e+00 2.689047e+00 2.713727e+00 2.741046e+00 2.704130e+00 2.647229e+00 2.558167e+00 2.499347e+00 2.455506e+00 2.449293e+00 2.444101e+00 2.440589e+00 2.410176e+00 2.361084e+00 2.301463e+00 2.249595e+00 2.205281e+00 2.152844e+00 2.094951e+00 2.042149e+00 2.023720e+00 2.034665e+00 2.064521e+00 2.076032e+00 2.064030e+00 2.021481e+00 1.968839e+00 1.899737e+00 1.829785e+00 1.764297e+00 1.726277e+00 1.701303e+00 1.692438e+00 1.682283e+00 1.687324e+00 1.681733e+00 1.667939e+00 1.610873e+00 1.544747e+00 1.469510e+00 1.434680e+00 1.410879e+00 1.403587e+00 1.376485e+00 1.352374e+00 1.328252e+00 1.314477e+00 1.307148e+00 1.286707e+00 1.254777e+00 1.178794e+00 1.113946e+00 1.042126e+00 1.033804e+00 1.021070e+00 1.039852e+00 9.821351e-01 9.177635e-01 8.056080e-01 7.563014e-01 7.204966e-01 7.541840e-01 7.912374e-01 8.396583e-01 8.456431e-01 7.995271e-01 7.333705e-01 6.527931e-01 6.387454e-01 6.094432e-01 6.168995e-01 5.167920e-01 4.486771e-01 3.144140e-01 2.999399e-01 2.560405e-01 3.238626e-01 3.179330e-01 3.561525e-01 3.085943e-01 2.794923e-01 2.175195e-01 2.016259e-01 2.528034e-01 2.251388e-02 0 0 0 0 
0 0 0 0 0 2.354456e+00 7.118817e+00 4.571152e+00 6.173217e+00 5.030501e+00 6.928916e+00 5.468438e+00 7.988793e+00 5.401519e+01 7.168760e+01 6.098815e+01 7.389438e+01 7.254209e+01 8.080250e+01 9.009067e+01 9.080223e+01 7.271667e+01 7.096023e+01 7.091030e+01 6.921156e+01 6.956776e+01 6.935877e+01 7.046663e+01 7.004373e+01 6.948107e+01 6.770364e+01 6.617055e+01 6.454892e+01 6.341932e+01 6.271695e+01 6.210341e+01 6.169194e+01 6.085979e+01 6.034465e+01 5.973608e+01 6.029892e+01 6.085160e+01 6.146337e+01 6.063681e+01 5.936260e+01 5.736806e+01 5.605076e+01 5.506879e+01 5.492961e+01 5.481329e+01 5.473463e+01 5.405336e+01 5.295377e+01 5.161813e+01 5.045624e+01 4.946343e+01 4.828866e+01 4.699146e+01 4.580841e+01 4.539548e+01 4.564071e+01 4.630975e+01 4.656767e+01 4.629873e+01 4.534533e+01 4.416567e+01 4.261711e+01 4.104936e+01 3.958160e+01 3.872941e+01 3.816962e+01 3.797091e+01 3.774329e+01 3.785627e+01 3.773095e+01 3.742172e+01 3.614242e+01 3.465998e+01 3.297308e+01 3.219214e+01 3.165842e+01 3.149485e+01 3.088705e+01 3.034639e+01 2.980542e+01 2.949654e+01 2.933221e+01 2.887390e+01 2.815783e+01 2.645392e+01 2.499948e+01 2.338863e+01 2.320199e+01 2.291630e+01 2.333748e+01 2.204257e+01 2.059836e+01 1.808159e+01 1.697516e+01 1.617135e+01 1.692682e+01 1.775812e+01 1.884416e+01 1.897843e+01 1.794407e+01 1.645959e+01 1.465211e+01 1.433729e+01 1.368013e+01 1.384775e+01 1.160144e+01 1.007257e+01 7.058386e+00 6.732984e+00 5.746280e+00 7.267018e+00 7.131756e+00 7.985790e+00 6.910847e+00 6.239101e+00 4.800677e+00 4.452866e+00 5.656092e+00 5.057540e-01 0 0 0 0 
0 0 0 0 0 3.409182e+00 1.030702e+01 6.620471e+00 8.939407e+00 7.284091e+00 1.003342e+01 7.920456e+00 1.156914e+01 1.630808e+01 2.347846e+01 2.975998e+01 4.418811e+01 5.771011e+01 7.152808e+01 8.458045e+01 1.037574e+02 1.052371e+02 1.026959e+02 1.026238e+02 1.001661e+02 1.006816e+02 1.003792e+02 1.019821e+02 1.013702e+02 1.005561e+02 9.798437e+01 9.576620e+01 9.341984e+01 9.178545e+01 9.076917e+01 8.988145e+01 8.928609e+01 8.808207e+01 8.733670e+01 8.645617e+01 8.727060e+01 8.807030e+01 8.895550e+01 8.775954e+01 8.591582e+01 8.302978e+01 8.112367e+01 7.970275e+01 7.950135e+01 7.933304e+01 7.921920e+01 7.823339e+01 7.664227e+01 7.470952e+01 7.302822e+01 7.159156e+01 6.989159e+01 6.801440e+01 6.630243e+01 6.570487e+01 6.605974e+01 6.702792e+01 6.740116e+01 6.701198e+01 6.563231e+01 6.392517e+01 6.168420e+01 5.941540e+01 5.729130e+01 5.605803e+01 5.524790e+01 5.496033e+01 5.463091e+01 5.479442e+01 5.461305e+01 5.416552e+01 5.231408e+01 5.016864e+01 4.772723e+01 4.659702e+01 4.582456e+01 4.558782e+01 4.470812e+01 4.392563e+01 4.314267e+01 4.269563e+01 4.245779e+01 4.179449e+01 4.075810e+01 3.829202e+01 3.618693e+01 3.385546e+01 3.358534e+01 3.317182e+01 3.378139e+01 3.190711e+01 2.981670e+01 2.617372e+01 2.457220e+01 2.340860e+01 2.450201e+01 2.570526e+01 2.727715e+01 2.747150e+01 2.597440e+01 2.382565e+01 2.120953e+01 2.075395e+01 1.980281e+01 2.004552e+01 1.679404e+01 1.458094e+01 1.021763e+01 9.746465e+00 8.317821e+00 1.051876e+01 1.032241e+01 1.155769e+01 9.999766e+00 9.022677e+00 6.928456e+00 6.427294e+00 8.182825e+00 7.322075e-01 0 0 0 0 
0 0 0 0 0 1.159447e+00 3.504977e+00 2.252361e+00 3.040624e+00 2.477321e+00 3.412588e+00 2.694835e+00 3.935389e+00 5.544317e+00 7.980526e+00 1.011586e+01 1.502042e+01 1.961581e+01 2.431170e+01 2.874646e+01 3.526151e+01 3.576423e+01 3.490105e+01 3.487656e+01 3.404173e+01 3.421687e+01 3.411417e+01 3.465869e+01 3.445081e+01 3.417424e+01 3.330053e+01 3.254697e+01 3.174981e+01 3.119456e+01 3.084928e+01 3.054770e+01 3.034543e+01 2.993639e+01 2.968315e+01 2.938401e+01 2.966073e+01 2.993243e+01 3.023318e+01 2.982686e+01 2.920045e+01 2.821989e+01 2.757226e+01 2.708947e+01 2.702104e+01 2.696385e+01 2.692517e+01 2.659021e+01 2.604958e+01 2.539286e+01 2.482158e+01 2.433341e+01 2.375577e+01 2.311789e+01 2.253616e+01 2.233311e+01 2.245369e+01 2.278269e+01 2.290952e+01 2.277727e+01 2.230845e+01 2.172834e+01 2.096682e+01 2.019583e+01 1.947400e+01 1.905489e+01 1.877958e+01 1.868185e+01 1.856991e+01 1.862547e+01 1.856383e+01 1.841174e+01 1.778253e+01 1.705341e+01 1.622367e+01 1.583955e+01 1.557702e+01 1.549655e+01 1.519756e+01 1.493161e+01 1.466550e+01 1.451356e+01 1.443273e+01 1.420730e+01 1.385505e+01 1.301689e+01 1.230140e+01 1.150896e+01 1.141715e+01 1.127659e+01 1.148376e+01 1.084667e+01 1.013611e+01 8.897742e+00 8.353334e+00 7.957745e+00 8.329372e+00 8.738374e+00 9.272644e+00 9.338708e+00 8.829854e+00 8.099435e+00 7.210218e+00 7.055400e+00 6.732126e+00 6.814668e+00 5.709398e+00 4.957049e+00 3.473659e+00 3.313421e+00 2.827582e+00 3.575605e+00 3.508589e+00 3.928055e+00 3.397514e+00 3.063068e+00 2.345299e+00 2.176054e+00 2.779536e+00 2.489674e-01 0 0 0 0 
0 0 0 0 0 0 0 0 0 0 0 0 0 0 0 0 0 0 0 0 0 0 0 0 0 0 0 0 0 0 0 0 0 0 0 0 0 0 0 0 0 0 0 0 0 0 0 0 0 0 0 0 0 0 0 0 0 0 0 0 0 0 0 0 0 0 0 0 0 0 0 0 0 0 0 0 0 0 0 0 0 0 0 0 0 0 0 0 0 0 0 0 0 0 0 0 0 0 0 0 0 0 0 0 0 0 0 0 0 0 0 0 0 0 0 0 0 0 0 0 0 0 0 0 0 0 0 0 
