# vtk DataFile Version 2.0
Comment goes here
ASCII

DATASET STRUCTURED_POINTS
FIELD FieldData 1
TIME 1 1 double
0.07000000
DIMENSIONS    128   16   1

ORIGIN    0.000   0.000   0.000
SPACING   0.0078125 0.015625   1.000

POINT_DATA   2048
SCALARS fMag double
LOOKUP_TABLE default

0 0 0 0 0 0 0 0 0 0 0 0 0 0 0 0 0 0 0 0 0 0 0 0 0 0 0 0 0 0 0 0 0 0 0 0 0 0 0 0 0 0 0 0 0 0 0 0 0 0 0 0 0 0 0 0 0 0 0 0 0 0 0 0 0 0 0 0 0 0 0 0 0 0 0 0 0 0 0 0 0 0 0 0 0 0 0 0 0 0 0 0 0 0 0 0 0 0 0 0 0 0 0 0 0 0 0 0 0 0 0 0 0 0 0 0 0 0 0 0 0 0 0 0 0 0 0 0 
0 0 0 0 0 0 0 0 0 0 0 0 0 0 0 0 0 0 0 0 0 0 0 0 0 0 0 0 0 0 0 0 0 0 0 0 0 0 0 0 0 0 0 0 0 0 0 0 0 0 0 0 0 0 0 0 0 0 0 0 0 0 0 0 0 0 0 0 0 0 0 0 0 0 0 0 0 0 0 0 0 0 0 0 0 0 0 0 0 0 0 0 0 0 0 0 0 0 0 0 0 0 0 0 0 0 0 0 0 0 0 0 0 0 0 0 0 0 0 0 0 0 0 0 0 0 0 0 
0 0 0 0 0 1.822130e+00 9.864931e-01 3.232816e+00 3.950902e+00 3.432268e+00 2.073589e+00 1.757160e+00 2.544145e+00 3.620019e+00 1.766970e+00 4.606869e+00 7.886715e+00 1.134569e+01 1.421325e+01 1.373068e+01 1.703992e+01 2.018836e+01 2.208454e+01 1.841941e+01 1.322588e+01 1.680905e+01 2.067962e+01 1.733513e+01 1.329570e+01 1.532690e+01 1.698293e+01 1.292611e+01 1.065877e+01 1.385647e+01 1.940786e+01 2.220368e+01 2.268068e+01 1.873333e+01 1.212263e+01 1.083438e+01 1.383758e+01 1.248877e+01 9.611310e+00 7.528093e+00 6.581183e+00 1.019878e+01 1.328731e+01 1.221550e+01 1.113620e+01 1.329757e+01 1.287912e+01 1.121539e+01 1.056633e+01 8.251913e+00 7.059396e+00 9.246956e+00 1.109260e+01 1.498308e+01 1.652652e+01 1.645930e+01 1.653849e+01 1.582638e+01 1.517980e+01 1.547332e+01 1.601009e+01 1.152503e+01 7.965127e+00 1.051740e+01 1.142959e+01 1.582656e+01 1.468645e+01 1.130929e+01 8.604320e+00 4.708384e+00 5.500872e+00 4.089635e+00 8.550894e+00 1.042014e+01 5.928416e+00 2.082798e+00 5.995215e+00 6.968314e+00 9.776903e+00 1.128556e+01 1.082132e+01 5.980146e+00 7.744118e+00 7.962734e+00 6.320823e+00 8.390014e+00 7.036501e+00 5.911946e+00 9.733305e+00 9.144541e+00 6.958294e+00 5.988588e+00 4.818603e+00 5.513250e+00 7.576734e+00 4.888817e+00 4.371119e+00 4.657885e+00 4.400175e+00 4.987821e+00 6.804040e+00 6.226204e+00 6.340325e+00 4.396573e+00 4.805730e+00 5.357463e+00 5.125426e+00 3.721176e+00 3.648568e+00 7.752756e+00 9.145767e+00 9.445421e+00 8.233782e+00 8.910024e+00 7.564636e+00 4.547219e+00 4.436511e+00 5.239221e+00 5.017735e+00 9.751737e-01 0 0 0 0 
0 0 0 0 0 5.357999e+00 2.889904e+00 9.520958e+00 1.162566e+01 1.009550e+01 6.098065e+00 5.168004e+00 7.482632e+00 1.064745e+01 5.197766e+00 1.355187e+01 2.319965e+01 3.337594e+01 4.181205e+01 4.039189e+01 5.012961e+01 5.939449e+01 6.497507e+01 5.419133e+01 3.890824e+01 4.945011e+01 6.083959e+01 5.099933e+01 3.911239e+01 4.508878e+01 4.996145e+01 3.802539e+01 3.135403e+01 4.076302e+01 5.709703e+01 6.532405e+01 6.672748e+01 5.511191e+01 3.566133e+01 3.187141e+01 4.070688e+01 3.673815e+01 2.827248e+01 2.214416e+01 1.935876e+01 3.000154e+01 3.908758e+01 3.593421e+01 3.275907e+01 3.911832e+01 3.788733e+01 3.299216e+01 3.108250e+01 2.427361e+01 2.076551e+01 2.720136e+01 3.318993e+01 4.243601e+01 4.824324e+01 4.692184e+01 4.626475e+01 4.463292e+01 4.149822e+01 3.997919e+01 3.676180e+01 2.823232e+01 2.566890e+01 2.998045e+01 3.475945e+01 4.452784e+01 4.093760e+01 3.526123e+01 2.556826e+01 1.384903e+01 1.618034e+01 1.203000e+01 2.515315e+01 3.065145e+01 1.743876e+01 6.126555e+00 1.763385e+01 2.049713e+01 2.876037e+01 3.319795e+01 3.183267e+01 1.759166e+01 2.277893e+01 2.342238e+01 1.859291e+01 2.467980e+01 2.069799e+01 1.738966e+01 2.863031e+01 2.689846e+01 2.046889e+01 1.761690e+01 1.417472e+01 1.621732e+01 2.228616e+01 1.438040e+01 1.285725e+01 1.370129e+01 1.294345e+01 1.467204e+01 2.001426e+01 1.831442e+01 1.865010e+01 1.293215e+01 1.413513e+01 1.575764e+01 1.507480e+01 1.094484e+01 1.073260e+01 2.280948e+01 2.690818e+01 2.779101e+01 2.422736e+01 2.621424e+01 2.225667e+01 1.338122e+01 1.307395e+01 1.541921e+01 1.476736e+01 2.869283e+00 0 0 0 0 
0 0 0 0 0 3.700495e+00 1.990634e+00 6.582829e+00 8.033119e+00 6.973827e+00 4.211933e+00 3.569783e+00 5.168614e+00 2.931559e+01 3.344398e+01 2.662211e+01 3.150852e+01 3.927378e+01 3.903306e+01 5.091519e+01 4.994192e+01 4.103543e+01 4.489200e+01 3.744113e+01 2.688033e+01 3.416374e+01 4.203375e+01 3.523479e+01 2.702078e+01 3.115010e+01 3.451691e+01 2.626993e+01 2.166032e+01 2.816159e+01 3.944754e+01 4.513235e+01 4.610202e+01 3.807570e+01 2.463650e+01 2.201813e+01 2.812252e+01 2.538030e+01 1.953134e+01 1.529756e+01 1.337334e+01 2.072627e+01 2.700357e+01 2.482488e+01 2.263127e+01 2.702507e+01 2.617464e+01 2.279237e+01 2.147294e+01 1.676878e+01 1.434519e+01 1.879170e+01 2.343632e+01 2.482646e+01 3.093806e+01 3.168066e+01 3.074732e+01 3.206612e+01 2.820110e+01 2.680959e+01 2.177683e+01 1.926907e+01 2.713081e+01 2.393840e+01 3.017907e+01 3.472948e+01 3.044874e+01 3.162221e+01 1.826724e+01 9.566733e+00 1.117733e+01 8.310620e+00 1.737641e+01 2.117465e+01 1.204704e+01 4.232294e+00 1.218114e+01 1.415956e+01 1.986876e+01 2.293423e+01 2.199122e+01 1.215303e+01 1.573574e+01 1.618044e+01 1.284429e+01 1.704936e+01 1.429846e+01 1.201281e+01 1.977803e+01 1.858165e+01 1.414065e+01 1.217066e+01 9.792440e+00 1.120315e+01 1.539514e+01 9.934115e+00 8.881737e+00 9.465066e+00 8.941640e+00 1.013579e+01 1.382615e+01 1.265182e+01 1.288372e+01 8.933493e+00 9.764261e+00 1.088490e+01 1.041304e+01 7.560338e+00 7.414368e+00 1.575934e+01 1.859133e+01 1.920187e+01 1.674025e+01 1.811171e+01 1.537772e+01 9.246598e+00 9.043241e+00 1.065569e+01 1.020519e+01 1.982525e+00 0 0 0 0 
0 0 0 0 0 1.646256e-01 8.722268e-02 2.946867e-01 3.583575e-01 3.106001e-01 1.874577e-01 1.589397e-01 2.301274e-01 2.879798e+01 3.150280e+01 2.961947e+01 3.143453e+01 3.081075e+01 3.084743e+01 3.046292e+01 3.223695e+01 1.829296e+00 2.001460e+00 1.669207e+00 1.197973e+00 1.522672e+00 1.873776e+00 1.570598e+00 1.204080e+00 1.388227e+00 1.538389e+00 1.170649e+00 9.650610e-01 1.255036e+00 1.758361e+00 2.011985e+00 2.055222e+00 1.697124e+00 1.097806e+00 9.811004e-01 1.253226e+00 1.130918e+00 8.701659e-01 6.814959e-01 5.957698e-01 9.235196e-01 1.203297e+00 1.106165e+00 1.008397e+00 1.204323e+00 1.166425e+00 1.015592e+00 9.567616e-01 7.470765e-01 6.390737e-01 8.372932e-01 1.288741e+00 4.142477e+00 3.496276e+00 1.886057e+00 2.041516e+00 2.788168e+00 2.190714e+00 2.067584e+00 1.757560e+00 2.320145e+00 8.995237e+00 4.245138e+00 6.693807e+00 6.400570e+00 4.719192e+00 9.752141e+00 1.493048e+00 4.260869e-01 4.978599e-01 3.702559e-01 7.741554e-01 9.433439e-01 5.367011e-01 1.885373e-01 5.425023e-01 6.307473e-01 8.852948e-01 1.021837e+00 9.798646e-01 5.415136e-01 7.009337e-01 7.207920e-01 5.722027e-01 7.595713e-01 6.369709e-01 5.350960e-01 8.810289e-01 8.277336e-01 6.300570e-01 5.423487e-01 4.363235e-01 4.990796e-01 6.857108e-01 4.425300e-01 3.956072e-01 4.216571e-01 3.983658e-01 4.515656e-01 6.159372e-01 5.636071e-01 5.739376e-01 3.979161e-01 4.348566e-01 4.847260e-01 4.636695e-01 3.366693e-01 3.303312e-01 7.026177e-01 8.289172e-01 8.562871e-01 7.466769e-01 8.074905e-01 6.856856e-01 4.125958e-01 4.057978e-01 4.757034e-01 4.555655e-01 8.841554e-02 0 0 0 0 
0 0 0 0 0 0 0 0 0 0 0 0 0 3.158150e+01 3.423208e+01 3.192265e+01 3.295527e+01 3.314783e+01 3.260690e+01 3.346953e+01 3.271893e+01 0 0 0 0 0 0 0 0 0 0 0 0 0 0 0 0 0 0 0 0 0 0 0 0 0 0 0 0 0 0 0 0 0 0 0 5.139889e-02 1.494038e+00 1.781409e+00 1.347433e+00 1.543950e+00 9.058358e-01 1.386373e+00 1.198856e+00 4.756429e-01 7.837504e-01 2.570224e-01 2.382394e-01 2.239595e-01 3.644787e-02 1.790769e-01 1.504433e+00 1.500935e-01 0 0 0 0 0 0 0 0 0 0 0 0 0 0 0 0 0 0 0 0 0 0 0 0 0 0 0 0 0 0 0 0 0 0 0 0 0 0 0 0 0 0 0 0 0 0 0 0 0 0 0 0 0 0 0 
0 0 0 0 0 0 0 0 0 0 0 0 0 2.998826e+01 3.147323e+01 3.007951e+01 3.103213e+01 3.021226e+01 3.052493e+01 3.013826e+01 3.001124e+01 0 0 0 0 0 0 0 0 0 0 0 0 0 0 0 0 0 0 0 0 0 0 0 0 0 0 0 0 0 0 0 0 0 0 0 0 0 0 0 0 0 0 0 0 0 0 0 0 0 0 0 0 0 0 0 0 0 0 0 0 0 0 0 0 0 0 0 0 0 0 0 0 0 0 0 0 0 0 0 0 0 0 0 0 0 0 0 0 0 0 0 0 0 0 0 0 0 0 0 0 0 0 0 0 0 0 0 
0 0 0 0 0 0 0 0 0 0 0 0 0 3.210280e+01 3.377840e+01 3.232489e+01 3.307640e+01 3.274669e+01 3.250321e+01 3.301961e+01 3.212056e+01 0 0 0 0 0 0 0 0 0 0 0 0 0 0 0 0 0 0 0 0 0 0 0 0 0 0 0 0 0 0 0 0 0 0 0 0 0 0 0 0 0 0 0 0 0 0 0 0 0 0 0 0 0 0 0 0 0 0 0 0 0 0 0 0 0 0 0 0 0 0 0 0 0 0 0 0 0 0 0 0 0 0 0 0 0 0 0 0 0 0 0 0 0 0 0 0 0 0 0 0 0 0 0 0 0 0 0 
0 0 0 0 0 0 0 0 0 0 0 0 0 2.990306e+01 3.118670e+01 2.987366e+01 3.044546e+01 2.982391e+01 2.970223e+01 2.971426e+01 2.914998e+01 0 0 0 0 0 0 0 0 0 0 0 0 0 0 0 0 0 0 0 0 0 0 0 0 0 0 0 0 0 0 0 0 0 0 0 0 0 0 0 0 0 0 0 0 0 0 0 0 0 0 0 0 0 0 0 0 0 0 0 0 0 0 0 0 0 0 0 0 0 0 0 0 0 0 0 0 0 0 0 0 0 0 0 0 0 0 0 0 0 0 0 0 0 0 0 0 0 0 0 0 0 0 0 0 0 0 0 
0 0 0 0 0 0 0 0 0 0 0 0 0 3.058178e+01 3.413404e+01 3.140594e+01 3.210881e+01 3.242879e+01 3.106767e+01 3.322861e+01 3.133372e+01 0 0 0 0 0 0 0 0 0 0 0 0 0 0 0 0 0 0 0 0 0 0 0 0 0 0 0 0 0 0 0 0 0 0 0 0 0 0 0 0 0 0 0 0 0 0 0 0 0 0 0 0 0 0 0 0 0 0 0 0 0 0 0 0 0 0 0 0 0 0 0 0 0 0 0 0 0 0 0 0 0 0 0 0 0 0 0 0 0 0 0 0 0 0 0 0 0 0 0 0 0 0 0 0 0 0 0 
0 0 0 0 0 1.792534e-01 1.635972e-01 5.135863e-02 1.419268e-01 7.511240e-02 5.968800e-02 5.779009e-02 1.187437e-01 2.910743e+01 3.222648e+01 2.942485e+01 2.949365e+01 2.922026e+01 2.779896e+01 2.925516e+01 2.738362e+01 1.852302e+00 1.700002e+00 1.446332e+00 1.261685e+00 1.275240e+00 1.200498e+00 1.146263e+00 1.188543e+00 1.229956e+00 1.288745e+00 1.663557e+00 2.027124e+00 1.957705e+00 1.523184e+00 1.130500e+00 9.315955e-01 9.337232e-01 1.064241e+00 1.149136e+00 1.077182e+00 1.028913e+00 1.249043e+00 1.638626e+00 1.832065e+00 1.680841e+00 1.369951e+00 1.072007e+00 9.859133e-01 1.104670e+00 1.445148e+00 1.713373e+00 1.742797e+00 1.698206e+00 1.626062e+00 1.408822e+00 1.171696e+00 1.130876e+00 1.180048e+00 9.874588e-01 5.550969e-01 4.132453e-01 5.169779e-01 7.441102e-01 9.606910e-01 1.007855e+00 7.764924e-01 4.869092e-01 3.919076e-01 5.736719e-01 7.634335e-01 7.543474e-01 6.898138e-01 8.374176e-01 1.226331e+00 1.698750e+00 1.952058e+00 1.815848e+00 1.468665e+00 1.050731e+00 6.890355e-01 4.950143e-01 3.852498e-01 3.238720e-01 3.927718e-01 4.133854e-01 4.242676e-01 3.969591e-01 3.550169e-01 3.426970e-01 3.736020e-01 3.784521e-01 2.668329e-01 1.938471e-01 1.934323e-01 1.615908e-01 2.949189e-01 5.105835e-01 6.765610e-01 6.851532e-01 5.876555e-01 5.585174e-01 4.834374e-01 4.472380e-01 3.864599e-01 4.407590e-01 5.259064e-01 7.004651e-01 7.404283e-01 6.305894e-01 3.700370e-01 2.648110e-01 2.350326e-01 2.557906e-01 3.245442e-01 3.704787e-01 3.438389e-01 3.831423e-01 3.711671e-01 2.427164e-01 7.474240e-02 1.379431e-01 2.094995e-01 7.261088e-02 0 0 0 0 
0 0 0 0 0 4.029917e+00 3.717575e+00 1.217178e+00 3.214922e+00 1.689808e+00 1.341906e+00 1.297104e+00 2.666498e+00 2.314448e+01 3.824331e+01 2.916863e+01 3.127432e+01 3.665056e+01 3.521706e+01 4.902873e+01 4.964663e+01 4.155199e+01 3.813863e+01 3.245071e+01 2.831204e+01 2.861683e+01 2.694073e+01 2.572417e+01 2.667264e+01 2.760173e+01 2.891951e+01 3.732174e+01 4.547135e+01 4.391570e+01 3.417537e+01 2.537069e+01 2.090900e+01 2.095662e+01 2.388452e+01 2.578862e+01 2.417463e+01 2.309226e+01 2.802891e+01 3.676311e+01 4.110016e+01 3.771122e+01 3.074081e+01 2.405886e+01 2.212772e+01 2.479139e+01 3.242636e+01 3.844028e+01 3.909971e+01 3.810019e+01 3.648306e+01 3.161205e+01 2.629487e+01 2.537939e+01 2.648192e+01 2.216107e+01 1.246038e+01 9.278869e+00 1.160661e+01 1.670283e+01 2.156159e+01 2.261952e+01 1.742880e+01 1.093057e+01 8.798508e+00 1.287772e+01 1.713630e+01 1.693249e+01 1.548440e+01 1.879581e+01 2.751923e+01 3.811135e+01 4.378948e+01 4.073652e+01 3.295367e+01 2.358137e+01 1.546693e+01 1.111294e+01 8.649198e+00 7.271761e+00 8.818959e+00 9.281677e+00 9.525155e+00 8.911735e+00 7.970278e+00 7.693838e+00 8.387853e+00 8.496832e+00 5.990932e+00 4.352272e+00 4.343161e+00 3.628091e+00 6.620971e+00 1.146210e+01 1.518680e+01 1.537955e+01 1.319188e+01 1.253812e+01 1.085313e+01 1.004028e+01 8.675418e+00 9.893872e+00 1.180544e+01 1.572256e+01 1.661897e+01 1.415322e+01 8.303871e+00 5.946460e+00 5.280510e+00 5.747104e+00 7.291440e+00 8.322151e+00 7.725079e+00 8.608889e+00 8.339636e+00 5.462538e+00 1.624272e+00 3.018114e+00 4.666331e+00 1.628188e+00 0 0 0 0 
0 0 0 0 0 5.835129e+00 5.392925e+00 1.778296e+00 4.661192e+00 2.447058e+00 1.943022e+00 1.877609e+00 3.860187e+00 9.124101e+00 1.824475e+01 2.281726e+01 2.573180e+01 3.226022e+01 3.618330e+01 4.039975e+01 5.620927e+01 6.014228e+01 5.520258e+01 4.697054e+01 4.098112e+01 4.142246e+01 3.899661e+01 3.723578e+01 3.860860e+01 3.995338e+01 4.186048e+01 5.402039e+01 6.581457e+01 6.356331e+01 4.946700e+01 3.672420e+01 3.026642e+01 3.033532e+01 3.457317e+01 3.732906e+01 3.499301e+01 3.342651e+01 4.057143e+01 5.321199e+01 5.948884e+01 5.458457e+01 4.449653e+01 3.482553e+01 3.203045e+01 3.588575e+01 4.693586e+01 5.563962e+01 5.659392e+01 5.514742e+01 5.280710e+01 4.575739e+01 3.806185e+01 3.673685e+01 3.833251e+01 3.207838e+01 1.803720e+01 1.343243e+01 1.680179e+01 2.417831e+01 3.121095e+01 3.274217e+01 2.522897e+01 1.582289e+01 1.273672e+01 1.864141e+01 2.480571e+01 2.451072e+01 2.241465e+01 2.720766e+01 3.983367e+01 5.516330e+01 6.338074e+01 5.896255e+01 4.769904e+01 3.413436e+01 2.238936e+01 1.608700e+01 1.252062e+01 1.052678e+01 1.276659e+01 1.343641e+01 1.378866e+01 1.290058e+01 1.153777e+01 1.113764e+01 1.214234e+01 1.230012e+01 8.672578e+00 6.300430e+00 6.287292e+00 5.252102e+00 9.584496e+00 1.659236e+01 2.198383e+01 2.226282e+01 1.909624e+01 1.814998e+01 1.571093e+01 1.453421e+01 1.255834e+01 1.432202e+01 1.708921e+01 2.275917e+01 2.405661e+01 2.048724e+01 1.201977e+01 8.608435e+00 7.645064e+00 8.320650e+00 1.055643e+01 1.204835e+01 1.118428e+01 1.246405e+01 1.207418e+01 7.910985e+00 2.337654e+00 4.349041e+00 6.745582e+00 2.356467e+00 0 0 0 0 
0 0 0 0 0 1.984466e+00 1.838948e+00 6.124767e-01 1.588197e+00 8.323625e-01 6.608040e-01 6.382953e-01 1.312433e+00 3.101850e+00 6.202607e+00 7.756901e+00 8.747588e+00 1.096657e+01 1.230006e+01 1.373302e+01 1.910589e+01 2.044259e+01 1.876396e+01 1.596617e+01 1.393076e+01 1.408087e+01 1.325638e+01 1.265787e+01 1.312451e+01 1.358161e+01 1.422972e+01 1.836220e+01 2.237034e+01 2.160532e+01 1.681481e+01 1.248400e+01 1.028901e+01 1.031242e+01 1.175288e+01 1.268958e+01 1.189557e+01 1.136316e+01 1.379157e+01 1.808751e+01 2.022075e+01 1.855419e+01 1.512568e+01 1.183868e+01 1.088864e+01 1.219903e+01 1.595465e+01 1.891272e+01 1.923701e+01 1.874543e+01 1.795010e+01 1.555416e+01 1.293868e+01 1.248834e+01 1.303064e+01 1.090477e+01 6.131910e+00 4.566804e+00 5.712156e+00 8.219592e+00 1.061005e+01 1.113051e+01 8.576659e+00 5.379237e+00 4.330122e+00 6.337365e+00 8.432846e+00 8.332582e+00 7.620065e+00 9.249260e+00 1.354077e+01 1.875070e+01 2.154332e+01 2.004188e+01 1.621403e+01 1.160372e+01 7.611467e+00 5.469076e+00 4.256674e+00 3.578888e+00 4.340407e+00 4.568116e+00 4.687768e+00 4.385808e+00 3.922511e+00 3.786494e+00 4.128087e+00 4.181739e+00 2.948479e+00 2.142005e+00 2.137563e+00 1.785602e+00 3.258443e+00 5.640839e+00 7.473591e+00 7.568419e+00 6.492022e+00 6.170369e+00 5.341235e+00 4.941163e+00 4.269380e+00 4.868910e+00 5.809671e+00 7.737074e+00 8.178071e+00 6.964607e+00 4.085931e+00 2.926786e+00 2.599586e+00 2.829336e+00 3.589534e+00 4.096678e+00 3.803044e+00 4.238304e+00 4.105708e+00 2.691164e+00 7.881240e-01 1.468870e+00 2.288751e+00 8.008904e-01 0 0 0 0 
0 0 0 0 0 0 0 0 0 0 0 0 0 0 0 0 0 0 0 0 0 0 0 0 0 0 0 0 0 0 0 0 0 0 0 0 0 0 0 0 0 0 0 0 0 0 0 0 0 0 0 0 0 0 0 0 0 0 0 0 0 0 0 0 0 0 0 0 0 0 0 0 0 0 0 0 0 0 0 0 0 0 0 0 0 0 0 0 0 0 0 0 0 0 0 0 0 0 0 0 0 0 0 0 0 0 0 0 0 0 0 0 0 0 0 0 0 0 0 0 0 0 0 0 0 0 0 0 
