# vtk DataFile Version 2.0
Comment goes here
ASCII

DATASET STRUCTURED_POINTS
FIELD FieldData 1
TIME 1 1 double
0.97000000
DIMENSIONS    128   16   1

ORIGIN    0.000   0.000   0.000
SPACING   0.0078125 0.015625   1.000

POINT_DATA   2048
SCALARS fMag double
LOOKUP_TABLE default

0 0 0 0 0 0 0 0 0 0 0 0 0 0 0 0 0 0 0 0 0 0 0 0 0 0 0 0 0 0 0 0 0 0 0 0 0 0 0 0 0 0 0 0 0 0 0 0 0 0 0 0 0 0 0 0 0 0 0 0 0 0 0 0 0 0 0 0 0 0 0 0 0 0 0 0 0 0 0 0 0 0 0 0 0 0 0 0 0 0 0 0 0 0 0 0 0 0 0 0 0 0 0 0 0 0 0 0 0 0 0 0 0 0 0 0 0 0 0 0 0 0 0 0 0 0 0 0 
0 0 0 0 0 0 0 0 0 0 0 0 0 0 0 0 0 0 0 0 0 0 0 0 0 0 0 0 0 0 0 0 0 0 0 0 0 0 0 0 0 0 0 0 0 0 0 0 0 0 0 0 0 0 0 0 0 0 0 0 0 0 0 0 0 0 0 0 0 0 0 0 0 0 0 0 0 0 0 0 0 0 0 0 0 0 0 0 0 0 0 0 0 0 0 0 0 0 0 0 0 0 0 0 0 0 0 0 0 0 0 0 0 0 0 0 0 0 0 0 0 0 0 0 0 0 0 0 
0 0 0 0 0 1.945572e+00 1.608538e+00 7.331334e-01 1.353957e+00 9.086480e-01 1.621886e+00 1.118446e+00 1.742124e+00 2.400964e+00 3.641728e+00 5.134142e+00 6.533825e+00 8.927056e+00 1.089545e+01 1.233182e+01 1.626685e+01 1.621700e+01 1.594954e+01 1.599607e+01 1.569627e+01 1.574154e+01 1.542718e+01 1.547181e+01 1.517521e+01 1.521793e+01 1.494568e+01 1.495728e+01 1.469846e+01 1.466564e+01 1.442867e+01 1.436354e+01 1.416272e+01 1.408332e+01 1.392259e+01 1.383393e+01 1.369109e+01 1.357862e+01 1.342212e+01 1.328300e+01 1.311158e+01 1.298240e+01 1.283016e+01 1.275146e+01 1.262498e+01 1.258310e+01 1.244592e+01 1.240716e+01 1.223415e+01 1.219156e+01 1.199800e+01 1.200439e+01 1.188952e+01 1.333137e+01 1.249934e+01 1.179989e+01 1.261415e+01 1.214713e+01 1.222407e+01 1.195128e+01 1.272559e+01 1.169225e+01 6.006966e+00 9.324047e+00 7.057678e+00 8.255868e+00 7.848413e+00 4.433764e+00 7.902327e+00 7.158475e+00 7.319424e+00 7.016503e+00 7.161522e+00 6.794678e+00 6.974034e+00 6.579038e+00 6.785151e+00 6.377686e+00 6.572540e+00 6.158915e+00 6.311824e+00 5.919008e+00 6.021687e+00 5.678382e+00 5.718695e+00 5.435758e+00 5.396947e+00 5.180782e+00 5.063313e+00 4.931818e+00 4.746289e+00 4.700600e+00 4.439812e+00 4.467113e+00 4.134124e+00 4.229515e+00 3.831428e+00 3.977898e+00 3.524126e+00 3.710206e+00 3.226227e+00 3.431895e+00 2.935988e+00 3.129568e+00 2.657222e+00 2.821224e+00 2.421708e+00 2.526862e+00 2.227538e+00 2.220508e+00 2.029324e+00 1.869473e+00 1.809781e+00 1.502512e+00 1.597081e+00 1.166882e+00 1.358407e+00 7.921069e-01 2.059248e+00 6.273928e-01 0 0 0 0 
0 0 0 0 0 5.720805e+00 4.715749e+00 2.151829e+00 3.972978e+00 2.670576e+00 4.769685e+00 3.289151e+00 5.123425e+00 7.062314e+00 1.071220e+01 1.510241e+01 1.921977e+01 2.626055e+01 3.205103e+01 3.627707e+01 4.785491e+01 4.770830e+01 4.692137e+01 4.705827e+01 4.617606e+01 4.630915e+01 4.538404e+01 4.551525e+01 4.464247e+01 4.476807e+01 4.396697e+01 4.400107e+01 4.323953e+01 4.314296e+01 4.244571e+01 4.225408e+01 4.166324e+01 4.142963e+01 4.095673e+01 4.069589e+01 4.027563e+01 3.994472e+01 3.948428e+01 3.907496e+01 3.857062e+01 3.819054e+01 3.774265e+01 3.751110e+01 3.713899e+01 3.701581e+01 3.661221e+01 3.649820e+01 3.598920e+01 3.586393e+01 3.529446e+01 3.531326e+01 3.531969e+01 3.772501e+01 3.698449e+01 3.483504e+01 3.531239e+01 3.349257e+01 3.257381e+01 3.124289e+01 2.961186e+01 3.268278e+01 2.374447e+01 2.593246e+01 2.274373e+01 2.129478e+01 2.215056e+01 1.731091e+01 2.368441e+01 2.105847e+01 2.153184e+01 2.064053e+01 2.106690e+01 1.998744e+01 2.051480e+01 1.935258e+01 1.995873e+01 1.875996e+01 1.933311e+01 1.811635e+01 1.856622e+01 1.741078e+01 1.771296e+01 1.670324e+01 1.682196e+01 1.598982e+01 1.587575e+01 1.523997e+01 1.489444e+01 1.450764e+01 1.396182e+01 1.382735e+01 1.306007e+01 1.314025e+01 1.216057e+01 1.244103e+01 1.126990e+01 1.170067e+01 1.036586e+01 1.091326e+01 9.489756e+00 1.009492e+01 8.636505e+00 9.206246e+00 7.817279e+00 8.300087e+00 7.125382e+00 7.435042e+00 6.554935e+00 6.534427e+00 5.972144e+00 5.501811e+00 5.325920e+00 4.421632e+00 4.699279e+00 3.434136e+00 4.004529e+00 2.344021e+00 6.063562e+00 1.845795e+00 0 0 0 0 
0 0 0 0 0 3.950980e+00 3.250052e+00 1.484333e+00 2.739885e+00 1.843791e+00 3.294421e+00 2.271814e+00 3.538817e+00 2.467197e+01 3.781775e+01 2.739360e+01 2.994955e+01 3.314660e+01 3.304914e+01 4.250876e+01 4.290992e+01 3.296033e+01 3.241662e+01 3.251120e+01 3.190159e+01 3.199349e+01 3.135422e+01 3.144482e+01 3.084173e+01 3.092848e+01 3.037494e+01 3.039848e+01 2.987229e+01 2.980556e+01 2.932380e+01 2.919140e+01 2.878317e+01 2.862176e+01 2.829502e+01 2.811480e+01 2.782444e+01 2.759580e+01 2.727768e+01 2.699487e+01 2.664642e+01 2.638381e+01 2.607436e+01 2.591438e+01 2.565730e+01 2.557219e+01 2.529335e+01 2.521460e+01 2.486293e+01 2.477639e+01 2.438294e+01 2.439592e+01 2.447896e+01 2.153118e+01 2.279952e+01 2.324422e+01 2.079059e+01 2.175999e+01 2.002976e+01 2.015389e+01 1.762422e+01 2.200258e+01 2.433876e+01 1.819428e+01 2.117801e+01 1.914254e+01 1.786362e+01 2.044209e+01 1.750385e+01 1.454830e+01 1.487529e+01 1.425942e+01 1.455387e+01 1.380798e+01 1.417218e+01 1.336914e+01 1.378782e+01 1.295959e+01 1.335552e+01 1.251493e+01 1.282574e+01 1.202757e+01 1.223639e+01 1.153891e+01 1.162100e+01 1.104621e+01 1.096745e+01 1.052828e+01 1.028959e+01 1.002238e+01 9.645276e+00 9.552341e+00 9.022221e+00 9.077541e+00 8.400677e+00 8.594355e+00 7.785257e+00 8.082799e+00 7.160680e+00 7.538845e+00 6.555536e+00 6.973678e+00 5.966337e+00 6.360078e+00 5.400778e+00 5.734497e+00 4.923227e+00 5.137312e+00 4.529497e+00 4.515412e+00 4.127023e+00 3.802048e+00 3.680392e+00 3.055478e+00 3.247024e+00 2.373188e+00 2.770625e+00 1.626080e+00 4.191821e+00 1.275250e+00 0 0 0 0 
0 0 0 0 0 1.757470e-01 1.428407e-01 6.563828e-02 1.208649e-01 8.186363e-02 1.466225e-01 1.011096e-01 1.575170e-01 2.678105e+01 2.932766e+01 2.760830e+01 2.789501e+01 2.821809e+01 2.701290e+01 2.885198e+01 2.698376e+01 1.469026e+00 1.444782e+00 1.449000e+00 1.421798e+00 1.425883e+00 1.397356e+00 1.401384e+00 1.374475e+00 1.378334e+00 1.353641e+00 1.354687e+00 1.331218e+00 1.328241e+00 1.306757e+00 1.300853e+00 1.282650e+00 1.275453e+00 1.260885e+00 1.252849e+00 1.239903e+00 1.229708e+00 1.215524e+00 1.202915e+00 1.187379e+00 1.175670e+00 1.161874e+00 1.154742e+00 1.143282e+00 1.139490e+00 1.127060e+00 1.123551e+00 1.107876e+00 1.104019e+00 1.086479e+00 1.087057e+00 9.494547e-01 4.196586e+00 4.137740e+00 2.060103e+00 4.322931e+00 2.159967e+00 2.788975e+00 2.130374e+00 1.728656e+00 3.320200e+00 6.740044e+00 2.328666e+00 5.271157e+00 6.237723e+00 3.495720e+00 9.056024e+00 2.087485e+00 6.483082e-01 6.628680e-01 6.353989e-01 6.484910e-01 6.152162e-01 6.314132e-01 5.955995e-01 6.142340e-01 5.773121e-01 5.949478e-01 5.574920e-01 5.713485e-01 5.357969e-01 5.451170e-01 5.140594e-01 5.177346e-01 4.921433e-01 4.886463e-01 4.690912e-01 4.584586e-01 4.465547e-01 4.297446e-01 4.255947e-01 4.019593e-01 4.044072e-01 3.742316e-01 3.828427e-01 3.467813e-01 3.600266e-01 3.189440e-01 3.357953e-01 2.920068e-01 3.106570e-01 2.658199e-01 2.833997e-01 2.407199e-01 2.556346e-01 2.195529e-01 2.291327e-01 2.021000e-01 2.014935e-01 1.842024e-01 1.697096e-01 1.642525e-01 1.363579e-01 1.448258e-01 1.059345e-01 1.245028e-01 7.416657e-02 1.875072e-01 5.684802e-02 0 0 0 0 
0 0 0 0 0 0 0 0 0 0 0 0 0 2.942570e+01 3.231045e+01 3.013907e+01 3.056405e+01 3.113715e+01 2.946378e+01 3.208810e+01 2.946030e+01 0 0 0 0 0 0 0 0 0 0 0 0 0 0 0 0 0 0 0 0 0 0 0 0 0 0 0 0 0 0 0 0 0 0 0 9.952874e-02 1.330387e+00 1.471871e+00 8.307722e-01 1.411386e+00 4.856270e-01 9.255232e-01 9.025313e-01 7.531131e-03 7.322987e-01 6.615028e-01 8.604726e-02 5.566652e-01 7.733036e-01 6.198691e-01 1.658325e+00 3.133875e-01 0 0 0 0 0 0 0 0 0 0 0 0 0 0 0 0 0 0 0 0 0 0 0 0 0 0 0 0 0 0 0 0 0 0 0 0 0 0 0 0 0 0 0 0 0 0 0 0 0 0 0 0 0 0 0 
0 0 0 0 0 0 0 0 0 0 0 0 0 2.851675e+01 2.938091e+01 2.867386e+01 2.888021e+01 2.900646e+01 2.851913e+01 2.940672e+01 2.844029e+01 0 0 0 0 0 0 0 0 0 0 0 0 0 0 0 0 0 0 0 0 0 0 0 0 0 0 0 0 0 0 0 0 0 0 0 0 0 0 0 0 0 0 0 0 0 0 0 0 0 0 0 0 0 0 0 0 0 0 0 0 0 0 0 0 0 0 0 0 0 0 0 0 0 0 0 0 0 0 0 0 0 0 0 0 0 0 0 0 0 0 0 0 0 0 0 0 0 0 0 0 0 0 0 0 0 0 0 
0 0 0 0 0 0 0 0 0 0 0 0 0 3.057899e+01 3.185895e+01 3.089066e+01 3.113205e+01 3.143949e+01 3.055108e+01 3.200454e+01 3.036723e+01 0 0 0 0 0 0 0 0 0 0 0 0 0 0 0 0 0 0 0 0 0 0 0 0 0 0 0 0 0 0 0 0 0 0 0 0 0 0 0 0 0 0 0 0 0 0 0 0 0 0 0 0 0 0 0 0 0 0 0 0 0 0 0 0 0 0 0 0 0 0 0 0 0 0 0 0 0 0 0 0 0 0 0 0 0 0 0 0 0 0 0 0 0 0 0 0 0 0 0 0 0 0 0 0 0 0 0 
0 0 0 0 0 0 0 0 0 0 0 0 0 2.852038e+01 2.937672e+01 2.867367e+01 2.888139e+01 2.899961e+01 2.852905e+01 2.939394e+01 2.845705e+01 0 0 0 0 0 0 0 0 0 0 0 0 0 0 0 0 0 0 0 0 0 0 0 0 0 0 0 0 0 0 0 0 0 0 0 0 0 0 0 0 0 0 0 0 0 0 0 0 0 0 0 0 0 0 0 0 0 0 0 0 0 0 0 0 0 0 0 0 0 0 0 0 0 0 0 0 0 0 0 0 0 0 0 0 0 0 0 0 0 0 0 0 0 0 0 0 0 0 0 0 0 0 0 0 0 0 0 
0 0 0 0 0 0 0 0 0 0 0 0 0 2.944768e+01 3.227783e+01 3.015021e+01 3.055352e+01 3.111612e+01 2.949597e+01 3.202763e+01 2.952529e+01 0 0 0 0 0 0 0 0 0 0 0 0 0 0 0 0 0 0 0 0 0 0 0 0 0 0 0 0 0 0 0 0 0 0 0 0 0 0 0 0 0 0 0 0 0 0 0 0 0 0 0 0 0 0 0 0 0 0 0 0 0 0 0 0 0 0 0 0 0 0 0 0 0 0 0 0 0 0 0 0 0 0 0 0 0 0 0 0 0 0 0 0 0 0 0 0 0 0 0 0 0 0 0 0 0 0 0 
0 0 0 0 0 1.761383e-01 1.429987e-01 6.590427e-02 1.211159e-01 8.172119e-02 1.463655e-01 1.010534e-01 1.571687e-01 2.680394e+01 2.929444e+01 2.761362e+01 2.787891e+01 2.819053e+01 2.704118e+01 2.878741e+01 2.705701e+01 1.471724e+00 1.441718e+00 1.452077e+00 1.418902e+00 1.431307e+00 1.396876e+00 1.408514e+00 1.373226e+00 1.381470e+00 1.348245e+00 1.353378e+00 1.325497e+00 1.326886e+00 1.304974e+00 1.301189e+00 1.284600e+00 1.274579e+00 1.262218e+00 1.246348e+00 1.238008e+00 1.218278e+00 1.213860e+00 1.192315e+00 1.190666e+00 1.167908e+00 1.166110e+00 1.142017e+00 1.138439e+00 1.114933e+00 1.109559e+00 1.087998e+00 1.079999e+00 1.060900e+00 1.049763e+00 1.032863e+00 1.017180e+00 1.001287e+00 9.810373e-01 9.673565e-01 9.444311e-01 9.333135e-01 9.093819e-01 8.992416e-01 8.746068e-01 8.638005e-01 8.388370e-01 8.276785e-01 8.029857e-01 7.929849e-01 7.687770e-01 7.590756e-01 7.365139e-01 7.248726e-01 7.051090e-01 6.897318e-01 6.736498e-01 6.559849e-01 6.460390e-01 6.274587e-01 6.228760e-01 6.018456e-01 5.997060e-01 5.747304e-01 5.725471e-01 5.440389e-01 5.416512e-01 5.132159e-01 5.121824e-01 4.877563e-01 4.879078e-01 4.687181e-01 4.662161e-01 4.500527e-01 4.397807e-01 4.261659e-01 4.075050e-01 3.995090e-01 3.740737e-01 3.743526e-01 3.441822e-01 3.541360e-01 3.200287e-01 3.365602e-01 2.967970e-01 3.149385e-01 2.703843e-01 2.872611e-01 2.421723e-01 2.563656e-01 2.167672e-01 2.266517e-01 1.970930e-01 1.987934e-01 1.811634e-01 1.700877e-01 1.644467e-01 1.378018e-01 1.447362e-01 1.059384e-01 1.240645e-01 7.400457e-02 1.874377e-01 5.671420e-02 0 0 0 0 
0 0 0 0 0 3.959778e+00 3.253718e+00 1.490011e+00 2.745689e+00 1.840603e+00 3.288644e+00 2.270525e+00 3.530938e+00 2.474277e+01 3.768996e+01 2.749985e+01 2.985532e+01 3.315513e+01 3.310024e+01 4.227319e+01 4.307392e+01 3.302022e+01 3.234740e+01 3.257985e+01 3.183652e+01 3.211515e+01 3.134363e+01 3.160497e+01 3.081401e+01 3.099902e+01 3.025406e+01 3.036918e+01 2.974387e+01 2.977494e+01 2.928343e+01 2.919847e+01 2.882635e+01 2.860160e+01 2.832438e+01 2.796853e+01 2.778155e+01 2.733916e+01 2.724017e+01 2.675707e+01 2.672016e+01 2.620983e+01 2.616955e+01 2.562920e+01 2.554896e+01 2.502171e+01 2.490114e+01 2.441748e+01 2.423801e+01 2.380955e+01 2.355973e+01 2.318061e+01 2.282882e+01 2.247230e+01 2.201811e+01 2.171123e+01 2.119701e+01 2.094763e+01 2.041081e+01 2.018335e+01 1.963070e+01 1.938828e+01 1.882821e+01 1.857785e+01 1.802381e+01 1.779940e+01 1.725619e+01 1.703848e+01 1.653217e+01 1.627094e+01 1.582741e+01 1.548237e+01 1.512148e+01 1.472513e+01 1.450196e+01 1.408508e+01 1.398229e+01 1.351040e+01 1.346242e+01 1.290194e+01 1.285293e+01 1.221308e+01 1.215942e+01 1.152109e+01 1.149776e+01 1.094934e+01 1.095257e+01 1.052167e+01 1.046538e+01 1.010245e+01 9.871876e+00 9.566262e+00 9.147533e+00 8.968175e+00 8.397488e+00 8.403961e+00 7.726978e+00 7.950589e+00 7.185063e+00 7.556114e+00 6.663276e+00 7.070117e+00 6.069264e+00 6.447337e+00 5.434052e+00 5.751642e+00 4.861433e+00 5.082343e+00 4.417763e+00 4.455381e+00 4.059299e+00 3.810911e+00 3.685035e+00 3.088077e+00 3.245125e+00 2.373357e+00 2.761087e+00 1.622706e+00 4.190376e+00 1.272252e+00 0 0 0 0 
0 0 0 0 0 5.733545e+00 4.721086e+00 2.159974e+00 3.981421e+00 2.665962e+00 4.761319e+00 3.287276e+00 5.112003e+00 7.115116e+00 1.068469e+01 1.506506e+01 1.928856e+01 2.617361e+01 3.214531e+01 3.623570e+01 4.777921e+01 4.779484e+01 4.682107e+01 4.715754e+01 4.608186e+01 4.648524e+01 4.536876e+01 4.574708e+01 4.460242e+01 4.487022e+01 4.379207e+01 4.395867e+01 4.305365e+01 4.309858e+01 4.238719e+01 4.226420e+01 4.172560e+01 4.140031e+01 4.099908e+01 4.048406e+01 4.021345e+01 3.957320e+01 3.942995e+01 3.873076e+01 3.867737e+01 3.793876e+01 3.788047e+01 3.709840e+01 3.698227e+01 3.621913e+01 3.604462e+01 3.534457e+01 3.508480e+01 3.446464e+01 3.410306e+01 3.355431e+01 3.304514e+01 3.252911e+01 3.187173e+01 3.142756e+01 3.068329e+01 3.032235e+01 2.954536e+01 2.921614e+01 2.841624e+01 2.806534e+01 2.725469e+01 2.689231e+01 2.609036e+01 2.576553e+01 2.497925e+01 2.466411e+01 2.393124e+01 2.355310e+01 2.291110e+01 2.241167e+01 2.188928e+01 2.131558e+01 2.099256e+01 2.038914e+01 2.024036e+01 1.955732e+01 1.948788e+01 1.867660e+01 1.860565e+01 1.767944e+01 1.760174e+01 1.667773e+01 1.664391e+01 1.585001e+01 1.585464e+01 1.523084e+01 1.514933e+01 1.462395e+01 1.429017e+01 1.384778e+01 1.324168e+01 1.298208e+01 1.215604e+01 1.216547e+01 1.118556e+01 1.150929e+01 1.040117e+01 1.093828e+01 9.645772e+00 1.023460e+01 8.785617e+00 9.332707e+00 7.865616e+00 8.325092e+00 7.036119e+00 7.355653e+00 6.393360e+00 6.447676e+00 5.874235e+00 5.514737e+00 5.332713e+00 4.468869e+00 4.696559e+00 3.434400e+00 3.990799e+00 2.339202e+00 6.061500e+00 1.841457e+00 0 0 0 0 
0 0 0 0 0 1.949905e+00 1.610367e+00 7.358673e-01 1.356848e+00 9.070808e-01 1.619041e+00 1.117805e+00 1.738234e+00 2.418911e+00 3.632383e+00 5.121471e+00 6.557250e+00 8.897568e+00 1.092755e+01 1.231780e+01 1.624109e+01 1.624634e+01 1.591539e+01 1.602976e+01 1.566424e+01 1.580140e+01 1.542200e+01 1.555063e+01 1.516163e+01 1.525267e+01 1.488625e+01 1.494287e+01 1.463527e+01 1.465053e+01 1.440873e+01 1.436692e+01 1.418385e+01 1.407329e+01 1.393692e+01 1.376188e+01 1.366991e+01 1.345231e+01 1.340363e+01 1.316601e+01 1.314787e+01 1.289683e+01 1.287703e+01 1.261122e+01 1.257174e+01 1.231236e+01 1.225304e+01 1.201509e+01 1.192679e+01 1.171599e+01 1.159309e+01 1.140657e+01 1.123350e+01 1.105810e+01 1.083466e+01 1.068369e+01 1.043071e+01 1.030803e+01 1.004393e+01 9.932031e+00 9.660140e+00 9.540869e+00 9.265315e+00 9.142136e+00 8.869536e+00 8.759118e+00 8.491837e+00 8.384710e+00 8.135581e+00 8.007039e+00 7.788800e+00 7.619028e+00 7.441452e+00 7.246437e+00 7.136635e+00 6.931521e+00 6.880951e+00 6.648771e+00 6.625167e+00 6.349384e+00 6.325264e+00 6.010402e+00 5.983979e+00 5.669847e+00 5.658334e+00 5.388426e+00 5.389980e+00 5.177895e+00 5.150168e+00 4.971546e+00 4.858078e+00 4.707682e+00 4.501653e+00 4.413416e+00 4.132629e+00 4.135859e+00 3.802761e+00 3.912840e+00 3.536133e+00 3.718725e+00 3.279293e+00 3.479423e+00 2.986737e+00 3.172631e+00 2.673737e+00 2.829815e+00 2.391453e+00 2.499962e+00 2.172690e+00 2.191088e+00 1.996099e+00 1.873914e+00 1.812125e+00 1.518594e+00 1.596171e+00 1.166982e+00 1.353776e+00 7.905004e-01 2.058562e+00 6.259189e-01 0 0 0 0 
0 0 0 0 0 0 0 0 0 0 0 0 0 0 0 0 0 0 0 0 0 0 0 0 0 0 0 0 0 0 0 0 0 0 0 0 0 0 0 0 0 0 0 0 0 0 0 0 0 0 0 0 0 0 0 0 0 0 0 0 0 0 0 0 0 0 0 0 0 0 0 0 0 0 0 0 0 0 0 0 0 0 0 0 0 0 0 0 0 0 0 0 0 0 0 0 0 0 0 0 0 0 0 0 0 0 0 0 0 0 0 0 0 0 0 0 0 0 0 0 0 0 0 0 0 0 0 0 
