# vtk DataFile Version 2.0
Comment goes here
ASCII

DATASET STRUCTURED_POINTS
FIELD FieldData 1
TIME 1 1 double
0.66000000
DIMENSIONS    128   16   1

ORIGIN    0.000   0.000   0.000
SPACING   0.0078125 0.015625   1.000

POINT_DATA   2048
SCALARS fX double
LOOKUP_TABLE default

0 0 0 0 0 0 0 0 0 0 0 0 0 0 0 0 0 0 0 0 0 0 0 0 0 0 0 0 0 0 0 0 0 0 0 0 0 0 0 0 0 0 0 0 0 0 0 0 0 0 0 0 0 0 0 0 0 0 0 0 0 0 0 0 0 0 0 0 0 0 0 0 0 0 0 0 0 0 0 0 0 0 0 0 0 0 0 0 0 0 0 0 0 0 0 0 0 0 0 0 0 0 0 0 0 0 0 0 0 0 0 0 0 0 0 0 0 0 0 0 0 0 0 0 0 0 0 0 
0 0 0 0 0 0 0 0 0 0 0 0 0 0 0 0 0 0 0 0 0 0 0 0 0 0 0 0 0 0 0 0 0 0 0 0 0 0 0 0 0 0 0 0 0 0 0 0 0 0 0 0 0 0 0 0 0 0 0 0 0 0 0 0 0 0 0 0 0 0 0 0 0 0 0 0 0 0 0 0 0 0 0 0 0 0 0 0 0 0 0 0 0 0 0 0 0 0 0 0 0 0 0 0 0 0 0 0 0 0 0 0 0 0 0 0 0 0 0 0 0 0 0 0 0 0 0 0 
0 0 0 0 0 1.063931e+00 2.611839e+00 7.228685e-01 8.220917e-01 9.058071e-01 8.790089e-01 8.821826e-01 -6.675844e-01 -4.444172e+00 -5.955893e+00 -4.672792e+00 -5.280982e+00 -5.140555e+00 -4.725901e+00 -5.787773e+00 -4.781375e+00 -2.155590e-01 7.081558e-01 8.111300e-01 7.289430e-01 8.207240e-01 7.526199e-01 8.259039e-01 7.801686e-01 8.292455e-01 8.086214e-01 8.296469e-01 8.311342e-01 8.225113e-01 8.397000e-01 8.029044e-01 8.297332e-01 7.697846e-01 8.040855e-01 7.288186e-01 7.718113e-01 6.888679e-01 7.432154e-01 6.588598e-01 7.264456e-01 6.431400e-01 7.239378e-01 6.437234e-01 7.357959e-01 6.579294e-01 7.570030e-01 6.833564e-01 7.788054e-01 7.090286e-01 7.986819e-01 7.104348e-01 -1.360143e+00 -2.216807e+00 -2.898330e-02 -1.111029e+00 -2.434826e+00 -1.884637e+00 -1.640893e+00 -2.308210e+00 -1.907365e+00 3.764461e+00 1.029493e+00 -2.834109e+00 -9.400360e-01 -2.206798e+00 1.704909e+00 2.394878e+00 -8.352089e-01 4.842311e-01 7.858489e-01 8.714966e-01 8.682997e-01 9.522978e-01 9.411942e-01 1.008635e+00 1.003563e+00 1.039104e+00 1.043810e+00 1.043765e+00 1.057825e+00 1.025337e+00 1.048225e+00 9.928175e-01 1.022815e+00 9.563529e-01 9.935391e-01 9.259570e-01 9.716370e-01 9.102402e-01 9.638196e-01 9.131253e-01 9.720217e-01 9.330121e-01 9.916166e-01 9.648569e-01 1.016676e+00 1.003489e+00 1.039998e+00 1.042424e+00 1.053734e+00 1.074215e+00 1.050330e+00 1.090987e+00 1.024471e+00 1.088161e+00 9.769081e-01 1.067720e+00 9.159414e-01 1.037864e+00 8.544375e-01 1.009315e+00 8.036040e-01 9.931600e-01 7.649351e-01 1.016555e+00 5.806699e-01 1.368781e+00 2.278746e+00 2.700782e-01 0 0 0 0 
0 0 0 0 0 3.128195e+00 7.675016e+00 2.117815e+00 2.415233e+00 2.663466e+00 2.584040e+00 2.592728e+00 -1.965964e+00 -1.307491e+01 -1.752091e+01 -1.374705e+01 -1.553619e+01 -1.512382e+01 -1.390439e+01 -1.702918e+01 -1.406828e+01 -6.342541e-01 2.083709e+00 2.386630e+00 2.144747e+00 2.414785e+00 2.214400e+00 2.430048e+00 2.295506e+00 2.439923e+00 2.379266e+00 2.441134e+00 2.445520e+00 2.420142e+00 2.470709e+00 2.362425e+00 2.441345e+00 2.264930e+00 2.365831e+00 2.144345e+00 2.270822e+00 2.026760e+00 2.186652e+00 1.938453e+00 2.137300e+00 1.892205e+00 2.129926e+00 1.893929e+00 2.164813e+00 1.935718e+00 2.227184e+00 2.010491e+00 2.291267e+00 2.085958e+00 2.349674e+00 2.090048e+00 -4.039808e+00 -5.753946e+00 3.235568e+00 1.014798e+00 -2.873257e+00 -9.214931e-01 8.479954e-02 -1.500773e+00 -2.472221e-02 1.629208e+01 7.543161e+00 -3.251909e+00 2.610827e+00 -7.629628e-01 9.927783e+00 9.004737e+00 -2.375862e+00 1.424242e+00 2.311721e+00 2.563745e+00 2.554376e+00 2.801472e+00 2.768805e+00 2.967175e+00 2.952240e+00 3.056762e+00 3.070588e+00 3.070423e+00 3.111770e+00 3.016177e+00 3.083497e+00 2.920491e+00 3.008731e+00 2.813216e+00 2.922609e+00 2.723811e+00 2.858196e+00 2.677600e+00 2.835224e+00 2.686117e+00 2.859382e+00 2.744647e+00 2.917043e+00 2.838335e+00 2.990751e+00 2.951954e+00 3.059311e+00 3.066420e+00 3.099630e+00 3.159837e+00 3.089506e+00 3.209064e+00 3.013357e+00 3.200696e+00 2.873450e+00 3.140629e+00 2.694262e+00 3.053029e+00 2.513674e+00 2.969457e+00 2.364659e+00 2.922539e+00 2.251716e+00 2.992514e+00 1.711244e+00 4.028508e+00 6.703299e+00 7.944484e-01 0 0 0 0 
0 0 0 0 0 2.160333e+00 5.298252e+00 1.458889e+00 1.667040e+00 1.839483e+00 1.784325e+00 1.790013e+00 -1.359207e+00 -4.826349e+01 -6.685955e+01 -5.359890e+01 -5.717333e+01 -5.837583e+01 -5.153287e+01 -6.671706e+01 -4.858923e+01 -4.382405e-01 1.439773e+00 1.649046e+00 1.481887e+00 1.668463e+00 1.530007e+00 1.679020e+00 1.586071e+00 1.685863e+00 1.643966e+00 1.686715e+00 1.689751e+00 1.672213e+00 1.707148e+00 1.632320e+00 1.686840e+00 1.564933e+00 1.634639e+00 1.481592e+00 1.568971e+00 1.400329e+00 1.510797e+00 1.339307e+00 1.476694e+00 1.307355e+00 1.471601e+00 1.308549e+00 1.495705e+00 1.337418e+00 1.538786e+00 1.389063e+00 1.583032e+00 1.441172e+00 1.623351e+00 1.443976e+00 -2.796911e+00 -3.238364e+00 4.647018e+00 3.593600e+00 9.962274e-01 2.493102e+00 3.375270e+00 2.428559e+00 3.637447e+00 1.473192e+01 8.038138e+00 1.119541e+00 5.189489e+00 3.018433e+00 9.944326e+00 7.291131e+00 -1.615350e+00 9.838225e-01 1.597033e+00 1.771179e+00 1.764723e+00 1.935427e+00 1.912857e+00 2.049890e+00 2.039566e+00 2.111759e+00 2.121303e+00 2.121173e+00 2.149732e+00 2.083680e+00 2.130183e+00 2.017565e+00 2.078523e+00 1.943451e+00 2.019026e+00 1.881691e+00 1.974534e+00 1.849778e+00 1.958677e+00 1.855677e+00 1.975380e+00 1.896125e+00 2.015224e+00 1.960854e+00 2.066140e+00 2.039335e+00 2.113482e+00 2.118380e+00 2.141293e+00 2.182866e+00 2.134246e+00 2.216821e+00 2.081600e+00 2.211014e+00 1.984950e+00 2.169547e+00 1.861236e+00 2.109139e+00 1.736642e+00 2.051604e+00 1.633948e+00 2.019484e+00 1.556314e+00 2.068384e+00 1.183699e+00 2.784023e+00 4.630891e+00 5.488202e-01 0 0 0 0 
0 0 0 0 0 9.606960e-02 2.350739e-01 6.394322e-02 7.389890e-02 8.182490e-02 7.929413e-02 7.946775e-02 -6.082736e-02 -5.392306e+01 -5.887839e+01 -5.520038e+01 -5.684462e+01 -5.688413e+01 -5.499072e+01 -5.853908e+01 -5.394538e+01 -1.954542e-02 6.422007e-02 7.354539e-02 6.608298e-02 7.440228e-02 6.822742e-02 7.487587e-02 7.073374e-02 7.518623e-02 7.332099e-02 7.522790e-02 7.536455e-02 7.458161e-02 7.613868e-02 7.279910e-02 7.522821e-02 6.978822e-02 7.289404e-02 6.606532e-02 6.995957e-02 6.243668e-02 6.736121e-02 5.971363e-02 6.583921e-02 5.828930e-02 6.561265e-02 5.834343e-02 6.668719e-02 5.962965e-02 6.860506e-02 6.192780e-02 7.057015e-02 6.424318e-02 7.235881e-02 6.436243e-02 -1.071705e-01 4.017314e-01 1.513016e+00 1.548807e+00 1.538058e+00 1.585499e+00 1.719481e+00 1.670151e+00 1.755699e+00 2.224391e+00 1.480134e+00 1.525962e+00 1.600542e+00 1.519359e+00 1.687718e+00 6.290922e-01 -8.351030e-02 4.381127e-02 7.116131e-02 7.893021e-02 7.864695e-02 8.625316e-02 8.524703e-02 9.135053e-02 9.088872e-02 9.410191e-02 9.452517e-02 9.451545e-02 9.578631e-02 9.284021e-02 9.491132e-02 8.989137e-02 9.260717e-02 8.658798e-02 8.995580e-02 8.383727e-02 8.797527e-02 8.241816e-02 8.727180e-02 8.268467e-02 8.801966e-02 8.449059e-02 8.979752e-02 8.737614e-02 9.206513e-02 9.087002e-02 9.416886e-02 9.438392e-02 9.539725e-02 9.724452e-02 9.506972e-02 9.874395e-02 9.271390e-02 9.847859e-02 8.840844e-02 9.663846e-02 8.291520e-02 9.397469e-02 7.740506e-02 9.146157e-02 7.289331e-02 9.010483e-02 6.953347e-02 9.242565e-02 5.312462e-02 1.242958e-01 2.063382e-01 2.445001e-02 0 0 0 0 
0 0 0 0 0 0 0 0 0 0 0 0 0 -5.904491e+01 -6.436899e+01 -6.046352e+01 -6.207087e+01 -6.240808e+01 -5.997614e+01 -6.435545e+01 -5.877332e+01 0 0 0 0 0 0 0 0 0 0 0 0 0 0 0 0 0 0 0 0 0 0 0 0 0 0 0 0 0 0 0 0 0 0 0 1.007548e-02 1.029573e-01 1.305496e-01 8.103429e-02 1.034004e-01 5.554165e-02 6.990333e-02 4.902851e-02 8.946542e-04 2.009478e-02 -4.433510e-02 -1.137990e-02 -3.808330e-02 -5.523886e-02 -3.373341e-02 -5.217950e-02 -8.813328e-03 0 0 0 0 0 0 0 0 0 0 0 0 0 0 0 0 0 0 0 0 0 0 0 0 0 0 0 0 0 0 0 0 0 0 0 0 0 0 0 0 0 0 0 0 0 0 0 0 0 0 0 0 0 0 0 
0 0 0 0 0 0 0 0 0 0 0 0 0 -5.808241e+01 -6.010247e+01 -5.836980e+01 -5.914328e+01 -5.907441e+01 -5.838500e+01 -5.995371e+01 -5.810132e+01 0 0 0 0 0 0 0 0 0 0 0 0 0 0 0 0 0 0 0 0 0 0 0 0 0 0 0 0 0 0 0 0 0 0 0 0 0 0 0 0 0 0 0 0 0 0 0 0 0 0 0 0 0 0 0 0 0 0 0 0 0 0 0 0 0 0 0 0 0 0 0 0 0 0 0 0 0 0 0 0 0 0 0 0 0 0 0 0 0 0 0 0 0 0 0 0 0 0 0 0 0 0 0 0 0 0 0 
0 0 0 0 0 0 0 0 0 0 0 0 0 -6.165699e+01 -6.431036e+01 -6.222538e+01 -6.304521e+01 -6.329870e+01 -6.190146e+01 -6.444911e+01 -6.135025e+01 0 0 0 0 0 0 0 0 0 0 0 0 0 0 0 0 0 0 0 0 0 0 0 0 0 0 0 0 0 0 0 0 0 0 0 0 0 0 0 0 0 0 0 0 0 0 0 0 0 0 0 0 0 0 0 0 0 0 0 0 0 0 0 0 0 0 0 0 0 0 0 0 0 0 0 0 0 0 0 0 0 0 0 0 0 0 0 0 0 0 0 0 0 0 0 0 0 0 0 0 0 0 0 0 0 0 0 
0 0 0 0 0 0 0 0 0 0 0 0 0 -5.808916e+01 -6.009889e+01 -5.837038e+01 -5.913772e+01 -5.906531e+01 -5.838145e+01 -5.993366e+01 -5.810040e+01 0 0 0 0 0 0 0 0 0 0 0 0 0 0 0 0 0 0 0 0 0 0 0 0 0 0 0 0 0 0 0 0 0 0 0 0 0 0 0 0 0 0 0 0 0 0 0 0 0 0 0 0 0 0 0 0 0 0 0 0 0 0 0 0 0 0 0 0 0 0 0 0 0 0 0 0 0 0 0 0 0 0 0 0 0 0 0 0 0 0 0 0 0 0 0 0 0 0 0 0 0 0 0 0 0 0 0 
0 0 0 0 0 0 0 0 0 0 0 0 0 -5.906588e+01 -6.434627e+01 -6.047321e+01 -6.203924e+01 -6.238637e+01 -5.996276e+01 -6.427235e+01 -5.879972e+01 0 0 0 0 0 0 0 0 0 0 0 0 0 0 0 0 0 0 0 0 0 0 0 0 0 0 0 0 0 0 0 0 0 0 0 0 0 0 0 0 0 0 0 0 0 0 0 0 0 0 0 0 0 0 0 0 0 0 0 0 0 0 0 0 0 0 0 0 0 0 0 0 0 0 0 0 0 0 0 0 0 0 0 0 0 0 0 0 0 0 0 0 0 0 0 0 0 0 0 0 0 0 0 0 0 0 0 
0 0 0 0 0 9.688607e-02 2.319460e-01 5.627900e-02 6.604473e-02 7.248391e-02 7.099150e-02 7.128783e-02 -6.648943e-02 -5.396087e+01 -5.886079e+01 -5.521567e+01 -5.681146e+01 -5.686134e+01 -5.497696e+01 -5.845272e+01 -5.398180e+01 -1.378370e-02 7.198107e-02 8.101975e-02 7.382212e-02 8.107489e-02 7.365959e-02 7.886944e-02 7.222331e-02 7.539245e-02 7.028015e-02 7.168548e-02 6.869862e-02 6.878499e-02 6.827974e-02 6.744397e-02 6.937785e-02 6.781034e-02 7.170367e-02 6.937974e-02 7.445109e-02 7.126069e-02 7.668132e-02 7.261013e-02 7.773483e-02 7.296385e-02 7.740534e-02 7.223484e-02 7.576859e-02 7.053020e-02 7.304077e-02 6.807228e-02 6.949464e-02 6.514053e-02 6.546611e-02 6.209513e-02 6.152291e-02 5.946743e-02 6.041843e-02 6.095492e-02 6.094067e-02 6.474166e-02 6.506678e-02 7.096330e-02 7.077329e-02 7.894697e-02 7.770322e-02 8.138100e-02 8.199270e-02 8.460374e-02 8.533758e-02 8.799587e-02 8.547140e-02 8.692520e-02 8.503756e-02 8.443360e-02 8.334516e-02 8.132791e-02 8.124853e-02 7.868714e-02 7.982327e-02 7.751746e-02 7.985457e-02 7.831488e-02 8.162928e-02 8.100455e-02 8.492737e-02 8.500363e-02 8.910701e-02 8.939881e-02 9.330401e-02 9.325394e-02 9.667265e-02 9.581449e-02 9.852132e-02 9.662475e-02 9.847943e-02 9.568511e-02 9.660788e-02 9.341035e-02 9.330779e-02 9.048633e-02 8.923853e-02 8.775528e-02 8.520031e-02 8.600572e-02 8.189693e-02 8.574329e-02 7.976373e-02 8.708294e-02 7.888422e-02 8.968407e-02 7.895404e-02 9.280382e-02 7.940232e-02 9.559223e-02 7.955017e-02 9.757367e-02 7.837708e-02 1.004159e-01 6.141089e-02 1.288095e-01 2.086625e-01 2.487285e-02 0 0 0 0 
0 0 0 0 0 2.178696e+00 5.228372e+00 1.287334e+00 1.490932e+00 1.629791e+00 1.597934e+00 1.606417e+00 -1.486227e+00 -4.826759e+01 -6.677906e+01 -5.368542e+01 -5.699679e+01 -5.843867e+01 -5.140778e+01 -6.633873e+01 -4.884905e+01 -3.095362e-01 1.613416e+00 1.816331e+00 1.655215e+00 1.817960e+00 1.651769e+00 1.768576e+00 1.619505e+00 1.690469e+00 1.575748e+00 1.607164e+00 1.540117e+00 1.542024e+00 1.530668e+00 1.511969e+00 1.555361e+00 1.520298e+00 1.607670e+00 1.555648e+00 1.669453e+00 1.597990e+00 1.719622e+00 1.628406e+00 1.743394e+00 1.636468e+00 1.736120e+00 1.620192e+00 1.699464e+00 1.581979e+00 1.638287e+00 1.526834e+00 1.558730e+00 1.461053e+00 1.468363e+00 1.392747e+00 1.379940e+00 1.333841e+00 1.355212e+00 1.367268e+00 1.367001e+00 1.452305e+00 1.459659e+00 1.591981e+00 1.587768e+00 1.771178e+00 1.743315e+00 1.825858e+00 1.839625e+00 1.898237e+00 1.914745e+00 1.974415e+00 1.917807e+00 1.950452e+00 1.908123e+00 1.894588e+00 1.870182e+00 1.824935e+00 1.823180e+00 1.765739e+00 1.791273e+00 1.739570e+00 1.792053e+00 1.757535e+00 1.831940e+00 1.817947e+00 1.905997e+00 1.907727e+00 1.999818e+00 2.006377e+00 2.094009e+00 2.092882e+00 2.169578e+00 2.150297e+00 2.211006e+00 2.168414e+00 2.210029e+00 2.147296e+00 2.168035e+00 2.096261e+00 2.094004e+00 2.030694e+00 2.002767e+00 1.969535e+00 1.912319e+00 1.930494e+00 1.838434e+00 1.924864e+00 1.790774e+00 1.955087e+00 1.771024e+00 2.013306e+00 1.772177e+00 2.082703e+00 1.781343e+00 2.144195e+00 1.783278e+00 2.187035e+00 1.754752e+00 2.247636e+00 1.369579e+00 2.885333e+00 4.683102e+00 5.583200e-01 0 0 0 0 
0 0 0 0 0 3.154785e+00 7.573946e+00 1.869600e+00 2.160355e+00 2.359919e+00 2.314221e+00 2.326967e+00 -2.149814e+00 -1.325368e+01 -1.761206e+01 -1.385852e+01 -1.549310e+01 -1.516332e+01 -1.376033e+01 -1.687321e+01 -1.398439e+01 -4.481065e-01 2.334924e+00 2.628662e+00 2.395549e+00 2.631119e+00 2.390613e+00 2.559663e+00 2.343902e+00 2.446584e+00 2.280527e+00 2.325971e+00 2.228915e+00 2.231668e+00 2.215225e+00 2.188174e+00 2.250981e+00 2.200257e+00 2.326728e+00 2.251460e+00 2.416190e+00 2.312783e+00 2.488840e+00 2.356844e+00 2.523284e+00 2.368544e+00 2.512785e+00 2.345006e+00 2.459744e+00 2.289703e+00 2.371201e+00 2.209885e+00 2.256047e+00 2.114670e+00 2.125252e+00 2.015807e+00 1.997277e+00 1.930556e+00 1.961497e+00 1.978952e+00 1.978580e+00 2.102059e+00 2.112718e+00 2.304253e+00 2.298168e+00 2.563648e+00 2.523330e+00 2.642812e+00 2.662750e+00 2.747595e+00 2.771499e+00 2.857876e+00 2.775948e+00 2.823207e+00 2.761943e+00 2.742355e+00 2.707033e+00 2.641544e+00 2.639010e+00 2.555875e+00 2.592845e+00 2.518017e+00 2.593994e+00 2.544037e+00 2.651745e+00 2.631497e+00 2.758953e+00 2.761463e+00 2.894766e+00 2.904262e+00 3.031107e+00 3.029475e+00 3.140486e+00 3.112572e+00 3.200439e+00 3.138780e+00 3.199016e+00 3.108204e+00 3.138231e+00 3.034333e+00 3.031078e+00 2.939438e+00 2.899034e+00 2.850944e+00 2.768155e+00 2.794488e+00 2.661269e+00 2.786405e+00 2.592335e+00 2.830192e+00 2.563743e+00 2.914427e+00 2.565307e+00 3.014722e+00 2.578348e+00 3.103456e+00 2.580798e+00 3.165054e+00 2.538948e+00 3.251965e+00 1.980285e+00 4.175159e+00 6.778887e+00 8.082020e-01 0 0 0 0 
0 0 0 0 0 1.072975e+00 2.577520e+00 6.385454e-01 7.354676e-01 8.026119e-01 7.872788e-01 7.918374e-01 -7.300763e-01 -4.504936e+00 -5.986870e+00 -4.710672e+00 -5.266322e+00 -5.153972e+00 -4.676947e+00 -5.734806e+00 -4.752952e+00 -1.523539e-01 7.934887e-01 8.933501e-01 8.141568e-01 8.942337e-01 8.125034e-01 8.699566e-01 7.966210e-01 8.315072e-01 7.750590e-01 7.904922e-01 7.574969e-01 7.584291e-01 7.528372e-01 7.436487e-01 7.649981e-01 7.477691e-01 7.907616e-01 7.651910e-01 8.211887e-01 7.860530e-01 8.458996e-01 8.010474e-01 8.576243e-01 8.050398e-01 8.540702e-01 7.970491e-01 8.360490e-01 7.782543e-01 8.059548e-01 7.511231e-01 7.668124e-01 7.187573e-01 7.223551e-01 6.851547e-01 6.788601e-01 6.561824e-01 6.667043e-01 6.726399e-01 6.725198e-01 7.144956e-01 7.181257e-01 7.832353e-01 7.811729e-01 8.714171e-01 8.577175e-01 8.983349e-01 9.051175e-01 9.339617e-01 9.420924e-01 9.714570e-01 9.436119e-01 9.596794e-01 9.388574e-01 9.322011e-01 9.201964e-01 8.979369e-01 8.970790e-01 8.688231e-01 8.813951e-01 8.559636e-01 8.817955e-01 8.648176e-01 9.014346e-01 8.945547e-01 9.378840e-01 9.387394e-01 9.840548e-01 9.872841e-01 1.030403e+00 1.029847e+00 1.067581e+00 1.058089e+00 1.087954e+00 1.066990e+00 1.087466e+00 1.056592e+00 1.066803e+00 1.031483e+00 1.030382e+00 9.992306e-01 9.855052e-01 9.691643e-01 9.410363e-01 9.500002e-01 9.047322e-01 9.472842e-01 8.813248e-01 9.621888e-01 8.716040e-01 9.908043e-01 8.720848e-01 1.024823e+00 8.764077e-01 1.054853e+00 8.770704e-01 1.075593e+00 8.625731e-01 1.104745e+00 6.721174e-01 1.418635e+00 2.304447e+00 2.747549e-01 0 0 0 0 
0 0 0 0 0 0 0 0 0 0 0 0 0 0 0 0 0 0 0 0 0 0 0 0 0 0 0 0 0 0 0 0 0 0 0 0 0 0 0 0 0 0 0 0 0 0 0 0 0 0 0 0 0 0 0 0 0 0 0 0 0 0 0 0 0 0 0 0 0 0 0 0 0 0 0 0 0 0 0 0 0 0 0 0 0 0 0 0 0 0 0 0 0 0 0 0 0 0 0 0 0 0 0 0 0 0 0 0 0 0 0 0 0 0 0 0 0 0 0 0 0 0 0 0 0 0 0 0 
