# vtk DataFile Version 2.0
Comment goes here
ASCII

DATASET STRUCTURED_POINTS
FIELD FieldData 1
TIME 1 1 double
0.50000000
DIMENSIONS    128   16   1

ORIGIN    0.000   0.000   0.000
SPACING   0.0078125 0.015625   1.000

POINT_DATA   2048
SCALARS fX double
LOOKUP_TABLE default

0 0 0 0 0 0 0 0 0 0 0 0 0 0 0 0 0 0 0 0 0 0 0 0 0 0 0 0 0 0 0 0 0 0 0 0 0 0 0 0 0 0 0 0 0 0 0 0 0 0 0 0 0 0 0 0 0 0 0 0 0 0 0 0 0 0 0 0 0 0 0 0 0 0 0 0 0 0 0 0 0 0 0 0 0 0 0 0 0 0 0 0 0 0 0 0 0 0 0 0 0 0 0 0 0 0 0 0 0 0 0 0 0 0 0 0 0 0 0 0 0 0 0 0 0 0 0 0 
0 0 0 0 0 0 0 0 0 0 0 0 0 0 0 0 0 0 0 0 0 0 0 0 0 0 0 0 0 0 0 0 0 0 0 0 0 0 0 0 0 0 0 0 0 0 0 0 0 0 0 0 0 0 0 0 0 0 0 0 0 0 0 0 0 0 0 0 0 0 0 0 0 0 0 0 0 0 0 0 0 0 0 0 0 0 0 0 0 0 0 0 0 0 0 0 0 0 0 0 0 0 0 0 0 0 0 0 0 0 0 0 0 0 0 0 0 0 0 0 0 0 0 0 0 0 0 0 
0 0 0 0 0 -7.374307e-02 -2.757178e+00 -1.298383e+00 -5.934809e-01 -9.664101e-01 -7.009490e-01 -9.183925e-01 1.182378e+00 5.067479e+00 6.680440e+00 5.378795e+00 6.393678e+00 5.848222e+00 5.755536e+00 6.626220e+00 5.068220e+00 5.281353e-01 -9.034019e-01 -9.415094e-01 -9.252712e-01 -9.357407e-01 -9.045202e-01 -8.865504e-01 -8.551024e-01 -8.170091e-01 -7.954214e-01 -7.469638e-01 -7.451454e-01 -6.973844e-01 -7.214138e-01 -6.801749e-01 -7.300096e-01 -6.956776e-01 -7.677325e-01 -7.402964e-01 -8.271179e-01 -7.996070e-01 -8.882437e-01 -8.495449e-01 -9.304428e-01 -8.712906e-01 -9.414165e-01 -8.551730e-01 -9.185107e-01 -8.008481e-01 -8.664533e-01 -7.184634e-01 -7.995694e-01 -6.306910e-01 -7.389976e-01 -8.464963e-01 -2.065080e+00 -2.219589e+00 -8.807226e-01 -1.363000e-01 5.443617e-01 3.848903e-01 -5.573280e-02 8.548074e-01 -9.021613e-01 -4.638785e+00 -2.144629e+00 6.755587e-01 5.355039e-01 -4.346381e-01 -2.617409e-01 -9.790955e-02 -6.240868e-01 -1.030020e+00 -1.080739e+00 -9.994139e-01 -1.007685e+00 -9.360829e-01 -9.435112e-01 -8.786422e-01 -9.005334e-01 -8.485616e-01 -8.881261e-01 -8.580462e-01 -9.158022e-01 -9.135841e-01 -9.857418e-01 -1.003158e+00 -1.081684e+00 -1.103794e+00 -1.183412e+00 -1.194634e+00 -1.269302e+00 -1.254963e+00 -1.315030e+00 -1.265069e+00 -1.305206e+00 -1.224014e+00 -1.249015e+00 -1.150559e+00 -1.165060e+00 -1.064774e+00 -1.073260e+00 -9.900811e-01 -9.988442e-01 -9.508376e-01 -9.590540e-01 -9.556775e-01 -9.535552e-01 -9.986519e-01 -9.743533e-01 -1.067792e+00 -1.005521e+00 -1.140753e+00 -1.024933e+00 -1.197108e+00 -1.020219e+00 -1.233426e+00 -9.857607e-01 -1.267218e+00 -8.154717e-01 -1.917047e+00 -2.213614e+00 -2.247802e-02 0 0 0 0 
0 0 0 0 0 -2.168753e-01 -8.106540e+00 -3.812846e+00 -1.742568e+00 -2.843146e+00 -2.063905e+00 -2.704119e+00 3.474859e+00 1.490093e+01 1.964542e+01 1.581716e+01 1.880170e+01 1.719708e+01 1.692360e+01 1.948274e+01 1.490089e+01 1.552403e+00 -2.656248e+00 -2.768240e+00 -2.720451e+00 -2.751167e+00 -2.659314e+00 -2.606445e+00 -2.513941e+00 -2.401925e+00 -2.338438e+00 -2.195972e+00 -2.190631e+00 -2.050239e+00 -2.120911e+00 -1.999709e+00 -2.146261e+00 -2.045378e+00 -2.257262e+00 -2.176643e+00 -2.431940e+00 -2.351077e+00 -2.611700e+00 -2.497934e+00 -2.735797e+00 -2.561883e+00 -2.768070e+00 -2.514480e+00 -2.700699e+00 -2.354710e+00 -2.547594e+00 -2.112424e+00 -2.350892e+00 -1.854312e+00 -2.172791e+00 -2.488905e+00 -6.123470e+00 -6.776553e+00 -3.302593e+00 -1.125663e+00 1.296027e+00 9.233760e-01 -3.555413e-01 2.080242e+00 -3.170895e+00 -1.370367e+01 -6.929272e+00 1.034620e+00 9.621533e-01 -2.082606e+00 -1.615328e+00 -7.344139e-01 -1.858244e+00 -3.028860e+00 -3.178014e+00 -2.938890e+00 -2.963224e+00 -2.752692e+00 -2.774546e+00 -2.583818e+00 -2.648204e+00 -2.495389e+00 -2.611745e+00 -2.523294e+00 -2.693144e+00 -2.686627e+00 -2.898831e+00 -2.950057e+00 -3.180992e+00 -3.246035e+00 -3.480195e+00 -3.513225e+00 -3.732827e+00 -3.690672e+00 -3.867318e+00 -3.720389e+00 -3.838415e+00 -3.599636e+00 -3.673156e+00 -3.383591e+00 -3.426226e+00 -3.131268e+00 -3.156220e+00 -2.911577e+00 -2.937361e+00 -2.796179e+00 -2.820379e+00 -2.810482e+00 -2.804318e+00 -2.937003e+00 -2.865631e+00 -3.140486e+00 -2.957403e+00 -3.355118e+00 -3.014454e+00 -3.520685e+00 -3.000161e+00 -3.626598e+00 -2.896710e+00 -3.720560e+00 -2.381533e+00 -5.621457e+00 -6.505830e+00 -6.612088e-02 0 0 0 0 
0 0 0 0 0 -1.498005e-01 -5.598295e+00 -2.630880e+00 -1.202256e+00 -1.964295e+00 -1.426768e+00 -1.869328e+00 2.398967e+00 5.318230e+01 7.066229e+01 5.968916e+01 6.627246e+01 6.469760e+01 6.041025e+01 7.335776e+01 5.090273e+01 1.071881e+00 -1.834428e+00 -1.911745e+00 -1.878720e+00 -1.899900e+00 -1.836438e+00 -1.799910e+00 -1.736007e+00 -1.658642e+00 -1.614792e+00 -1.516410e+00 -1.512724e+00 -1.415786e+00 -1.464602e+00 -1.380924e+00 -1.482146e+00 -1.412506e+00 -1.558846e+00 -1.503194e+00 -1.679514e+00 -1.623681e+00 -1.803673e+00 -1.725114e+00 -1.889385e+00 -1.769284e+00 -1.911677e+00 -1.736540e+00 -1.865139e+00 -1.626183e+00 -1.759384e+00 -1.458833e+00 -1.623518e+00 -1.280560e+00 -1.500518e+00 -1.718847e+00 -4.264541e+00 -4.846576e+00 -2.743836e+00 -1.243785e+00 7.101087e-01 5.227663e-01 -3.434495e-01 1.186568e+00 -2.508987e+00 -9.546650e+00 -5.199697e+00 1.317982e-01 2.930347e-01 -1.930413e+00 -1.642768e+00 -7.790671e-01 -1.297277e+00 -2.091913e+00 -2.194933e+00 -2.029789e+00 -2.046601e+00 -1.901204e+00 -1.916303e+00 -1.784587e+00 -1.829062e+00 -1.723525e+00 -1.803894e+00 -1.742805e+00 -1.860121e+00 -1.855622e+00 -2.002191e+00 -2.037577e+00 -2.197086e+00 -2.242021e+00 -2.403764e+00 -2.426591e+00 -2.578278e+00 -2.549168e+00 -2.671178e+00 -2.569693e+00 -2.651209e+00 -2.486280e+00 -2.537058e+00 -2.337044e+00 -2.366488e+00 -2.162744e+00 -2.179977e+00 -2.010988e+00 -2.028803e+00 -1.931288e+00 -1.948020e+00 -1.941200e+00 -1.936980e+00 -2.028656e+00 -1.979401e+00 -2.169277e+00 -2.042843e+00 -2.317555e+00 -2.082231e+00 -2.431834e+00 -2.072150e+00 -2.504556e+00 -1.999672e+00 -2.566830e+00 -1.636866e+00 -3.874868e+00 -4.491628e+00 -4.567790e-02 0 0 0 0 
0 0 0 0 0 -6.668281e-03 -2.489332e-01 -1.164174e-01 -5.316889e-02 -8.755921e-02 -6.381235e-02 -8.360146e-02 1.064851e-01 6.029165e+01 6.588852e+01 6.179368e+01 6.407360e+01 6.371223e+01 6.191652e+01 6.570284e+01 6.003067e+01 4.761314e-02 -8.158215e-02 -8.501408e-02 -8.353980e-02 -8.447354e-02 -8.164423e-02 -8.001570e-02 -7.716900e-02 -7.372698e-02 -7.177525e-02 -6.740144e-02 -6.723831e-02 -6.293181e-02 -6.510520e-02 -6.139012e-02 -6.589470e-02 -6.280539e-02 -6.931635e-02 -6.684758e-02 -7.469121e-02 -7.221143e-02 -8.021702e-02 -7.672559e-02 -8.403137e-02 -7.869131e-02 -8.502369e-02 -7.723348e-02 -8.295130e-02 -7.232070e-02 -7.824289e-02 -6.487175e-02 -7.219506e-02 -5.693882e-02 -6.672447e-02 -7.643890e-02 -2.061658e-01 -2.855699e-01 -3.239083e-01 -2.575488e-01 -3.916546e-02 -1.660077e-02 -4.762571e-02 -4.257347e-02 -2.442689e-01 -4.847278e-01 -4.168393e-01 -2.297082e-01 -1.348578e-01 -2.875416e-01 -2.937176e-01 -1.435373e-01 -6.314165e-02 -9.307259e-02 -9.765757e-02 -9.031235e-02 -9.106185e-02 -8.459531e-02 -8.526832e-02 -7.941121e-02 -8.139147e-02 -7.669760e-02 -8.027496e-02 -7.755724e-02 -8.277848e-02 -8.257896e-02 -8.910223e-02 -9.067804e-02 -9.777791e-02 -9.978024e-02 -1.069809e-01 -1.080003e-01 -1.147534e-01 -1.134595e-01 -1.188896e-01 -1.143727e-01 -1.179996e-01 -1.106581e-01 -1.129175e-01 -1.040127e-01 -1.053221e-01 -9.625002e-02 -9.701646e-02 -8.949190e-02 -9.028642e-02 -8.594605e-02 -8.669528e-02 -8.639576e-02 -8.621744e-02 -9.030537e-02 -8.812384e-02 -9.658291e-02 -9.096122e-02 -1.031904e-01 -9.270984e-02 -1.082566e-01 -9.220825e-02 -1.113833e-01 -8.872236e-02 -1.134884e-01 -7.080466e-02 -1.704573e-01 -1.994111e-01 -2.035039e-03 0 0 0 0 
0 0 0 0 0 0 0 0 0 0 0 0 0 6.589386e+01 7.169168e+01 6.750700e+01 6.968181e+01 6.967246e+01 6.734953e+01 7.188948e+01 6.535925e+01 0 0 0 0 0 0 0 0 0 0 0 0 0 0 0 0 0 0 0 0 0 0 0 0 0 0 0 0 0 0 0 0 0 0 0 -1.543454e-05 4.042652e-03 -1.943482e-03 -3.127033e-03 2.391116e-03 -8.813495e-04 -3.984660e-03 -3.706676e-03 -4.015393e-03 -2.965962e-03 -1.784830e-03 -2.444987e-03 -1.243014e-03 -5.096722e-03 -4.536679e-03 -9.746279e-04 -2.232814e-05 0 0 0 0 0 0 0 0 0 0 0 0 0 0 0 0 0 0 0 0 0 0 0 0 0 0 0 0 0 0 0 0 0 0 0 0 0 0 0 0 0 0 0 0 0 0 0 0 0 0 0 0 0 0 0 
0 0 0 0 0 0 0 0 0 0 0 0 0 6.528481e+01 6.770292e+01 6.559867e+01 6.663505e+01 6.640051e+01 6.574579e+01 6.740812e+01 6.534474e+01 0 0 0 0 0 0 0 0 0 0 0 0 0 0 0 0 0 0 0 0 0 0 0 0 0 0 0 0 0 0 0 0 0 0 0 0 0 0 0 0 0 0 0 0 0 0 0 0 0 0 0 0 0 0 0 0 0 0 0 0 0 0 0 0 0 0 0 0 0 0 0 0 0 0 0 0 0 0 0 0 0 0 0 0 0 0 0 0 0 0 0 0 0 0 0 0 0 0 0 0 0 0 0 0 0 0 0 
0 0 0 0 0 0 0 0 0 0 0 0 0 6.897428e+01 7.201470e+01 6.960126e+01 7.068749e+01 7.080643e+01 6.941192e+01 7.210627e+01 6.869360e+01 0 0 0 0 0 0 0 0 0 0 0 0 0 0 0 0 0 0 0 0 0 0 0 0 0 0 0 0 0 0 0 0 0 0 0 0 0 0 0 0 0 0 0 0 0 0 0 0 0 0 0 0 0 0 0 0 0 0 0 0 0 0 0 0 0 0 0 0 0 0 0 0 0 0 0 0 0 0 0 0 0 0 0 0 0 0 0 0 0 0 0 0 0 0 0 0 0 0 0 0 0 0 0 0 0 0 0 
0 0 0 0 0 0 0 0 0 0 0 0 0 6.527710e+01 6.768286e+01 6.560657e+01 6.663643e+01 6.642071e+01 6.577737e+01 6.743152e+01 6.539461e+01 0 0 0 0 0 0 0 0 0 0 0 0 0 0 0 0 0 0 0 0 0 0 0 0 0 0 0 0 0 0 0 0 0 0 0 0 0 0 0 0 0 0 0 0 0 0 0 0 0 0 0 0 0 0 0 0 0 0 0 0 0 0 0 0 0 0 0 0 0 0 0 0 0 0 0 0 0 0 0 0 0 0 0 0 0 0 0 0 0 0 0 0 0 0 0 0 0 0 0 0 0 0 0 0 0 0 0 
0 0 0 0 0 0 0 0 0 0 0 0 0 6.586814e+01 7.161764e+01 6.754183e+01 6.964543e+01 6.972051e+01 6.740422e+01 7.189881e+01 6.552937e+01 0 0 0 0 0 0 0 0 0 0 0 0 0 0 0 0 0 0 0 0 0 0 0 0 0 0 0 0 0 0 0 0 0 0 0 0 0 0 0 0 0 0 0 0 0 0 0 0 0 0 0 0 0 0 0 0 0 0 0 0 0 0 0 0 0 0 0 0 0 0 0 0 0 0 0 0 0 0 0 0 0 0 0 0 0 0 0 0 0 0 0 0 0 0 0 0 0 0 0 0 0 0 0 0 0 0 0 
0 0 0 0 0 -8.489035e-03 -2.537812e-01 -1.284178e-01 -6.842288e-02 -1.037751e-01 -7.954969e-02 -9.777061e-02 9.501754e-02 6.024743e+01 6.579060e+01 6.182996e+01 6.404166e+01 6.380783e+01 6.205718e+01 6.582615e+01 6.032916e+01 6.015555e-02 -6.822438e-02 -7.062243e-02 -7.038069e-02 -7.298055e-02 -7.407469e-02 -7.612995e-02 -7.880849e-02 -7.989890e-02 -8.382303e-02 -8.354297e-02 -8.798529e-02 -8.582482e-02 -8.985089e-02 -8.539558e-02 -8.829939e-02 -8.167398e-02 -8.335488e-02 -7.532212e-02 -7.619598e-02 -6.796454e-02 -6.881218e-02 -6.177917e-02 -6.349476e-02 -5.880194e-02 -6.192373e-02 -5.994610e-02 -6.447323e-02 -6.497504e-02 -7.057560e-02 -7.281421e-02 -7.864769e-02 -8.149138e-02 -8.631726e-02 -8.871798e-02 -9.137052e-02 -9.271677e-02 -9.107173e-02 -9.147422e-02 -8.789024e-02 -8.792698e-02 -8.378802e-02 -8.373902e-02 -7.921131e-02 -8.082514e-02 -7.476525e-02 -7.510813e-02 -7.047962e-02 -7.248390e-02 -7.004927e-02 -7.269048e-02 -7.408836e-02 -7.730619e-02 -8.129778e-02 -8.498657e-02 -9.080103e-02 -9.445156e-02 -1.009410e-01 -1.038211e-01 -1.095795e-01 -1.108030e-01 -1.146807e-01 -1.139251e-01 -1.156827e-01 -1.132129e-01 -1.131175e-01 -1.091962e-01 -1.076970e-01 -1.027390e-01 -1.008112e-01 -9.574544e-02 -9.471363e-02 -9.048150e-02 -9.132091e-02 -8.849282e-02 -9.168770e-02 -9.042357e-02 -9.570307e-02 -9.548319e-02 -1.017276e-01 -1.017185e-01 -1.075709e-01 -1.072981e-01 -1.115413e-01 -1.109444e-01 -1.123739e-01 -1.117116e-01 -1.093748e-01 -1.095353e-01 -1.031460e-01 -1.055815e-01 -9.528122e-02 -1.013975e-01 -8.738138e-02 -9.823336e-02 -8.060701e-02 -9.706913e-02 -7.495786e-02 -9.906993e-02 -5.912230e-02 -1.607564e-01 -1.969035e-01 -2.124758e-03 0 0 0 0 
0 0 0 0 0 -1.906340e-01 -5.706731e+00 -2.899649e+00 -1.544414e+00 -2.328361e+00 -1.780126e+00 -2.187550e+00 2.141383e+00 5.303801e+01 7.055194e+01 5.992828e+01 6.597774e+01 6.496237e+01 6.036848e+01 7.304652e+01 5.162920e+01 1.354041e+00 -1.533892e+00 -1.587893e+00 -1.582584e+00 -1.641205e+00 -1.665989e+00 -1.712366e+00 -1.772736e+00 -1.797365e+00 -1.885682e+00 -1.879416e+00 -1.979322e+00 -1.930662e+00 -2.021154e+00 -1.920818e+00 -1.986042e+00 -1.836931e+00 -1.874660e+00 -1.693927e+00 -1.713521e+00 -1.528339e+00 -1.547358e+00 -1.389163e+00 -1.427718e+00 -1.322169e+00 -1.392349e+00 -1.347863e+00 -1.449645e+00 -1.460918e+00 -1.586836e+00 -1.637154e+00 -1.768281e+00 -1.832184e+00 -1.940634e+00 -1.994577e+00 -2.054173e+00 -2.084411e+00 -2.047382e+00 -2.056396e+00 -1.975780e+00 -1.976572e+00 -1.883482e+00 -1.882338e+00 -1.780507e+00 -1.816738e+00 -1.680495e+00 -1.688185e+00 -1.584142e+00 -1.629186e+00 -1.574453e+00 -1.633794e+00 -1.665193e+00 -1.737482e+00 -1.827169e+00 -1.910042e+00 -2.040687e+00 -2.122703e+00 -2.268513e+00 -2.333230e+00 -2.462604e+00 -2.490062e+00 -2.577135e+00 -2.560086e+00 -2.599511e+00 -2.543952e+00 -2.541755e+00 -2.453580e+00 -2.419847e+00 -2.308389e+00 -2.265057e+00 -2.151203e+00 -2.128022e+00 -2.032911e+00 -2.051776e+00 -1.988229e+00 -2.060038e+00 -2.031663e+00 -2.150343e+00 -2.145447e+00 -2.285795e+00 -2.285630e+00 -2.417131e+00 -2.411018e+00 -2.506292e+00 -2.492849e+00 -2.524821e+00 -2.509857e+00 -2.457190e+00 -2.460678e+00 -2.316936e+00 -2.371536e+00 -2.139982e+00 -2.277381e+00 -1.962670e+00 -2.206824e+00 -1.811770e+00 -2.183281e+00 -1.690815e+00 -2.243409e+00 -1.375107e+00 -3.657480e+00 -4.435386e+00 -4.769130e-02 0 0 0 0 
0 0 0 0 0 -2.759748e-01 -8.263410e+00 -4.201752e+00 -2.237799e+00 -3.370171e+00 -2.575437e+00 -3.164808e+00 3.101947e+00 1.457439e+01 1.935988e+01 1.577349e+01 1.857681e+01 1.728805e+01 1.690747e+01 1.950376e+01 1.532275e+01 1.961004e+00 -2.221028e+00 -2.299241e+00 -2.291585e+00 -2.376510e+00 -2.412442e+00 -2.479638e+00 -2.567090e+00 -2.602780e+00 -2.730683e+00 -2.721618e+00 -2.866287e+00 -2.795806e+00 -2.926830e+00 -2.781504e+00 -2.875929e+00 -2.659984e+00 -2.714597e+00 -2.452868e+00 -2.481227e+00 -2.213060e+00 -2.240590e+00 -2.011510e+00 -2.067332e+00 -1.914489e+00 -2.016107e+00 -1.951687e+00 -2.099063e+00 -2.115384e+00 -2.297709e+00 -2.370564e+00 -2.560425e+00 -2.652947e+00 -2.809966e+00 -2.888066e+00 -2.974348e+00 -3.018125e+00 -2.964497e+00 -2.977540e+00 -2.860800e+00 -2.861939e+00 -2.727139e+00 -2.725472e+00 -2.578014e+00 -2.630462e+00 -2.433188e+00 -2.444319e+00 -2.293672e+00 -2.358891e+00 -2.279639e+00 -2.365552e+00 -2.411010e+00 -2.515668e+00 -2.645518e+00 -2.765499e+00 -2.954648e+00 -3.073389e+00 -3.284495e+00 -3.378193e+00 -3.565500e+00 -3.605245e+00 -3.731296e+00 -3.706595e+00 -3.763657e+00 -3.683202e+00 -3.680007e+00 -3.552330e+00 -3.503479e+00 -3.342095e+00 -3.279353e+00 -3.114507e+00 -3.080946e+00 -2.943239e+00 -2.970552e+00 -2.878548e+00 -2.982520e+00 -2.941445e+00 -3.113286e+00 -3.106209e+00 -3.309416e+00 -3.309187e+00 -3.499576e+00 -3.490731e+00 -3.628652e+00 -3.609181e+00 -3.655433e+00 -3.633747e+00 -3.557454e+00 -3.562475e+00 -3.354316e+00 -3.433336e+00 -3.098060e+00 -3.296981e+00 -2.841395e+00 -3.194964e+00 -2.623253e+00 -3.161543e+00 -2.449651e+00 -3.252447e+00 -2.002741e+00 -5.306870e+00 -6.424429e+00 -6.903528e-02 0 0 0 0 
0 0 0 0 0 -9.382988e-02 -2.810459e+00 -1.430521e+00 -7.618083e-01 -1.145585e+00 -8.748611e-01 -1.075028e+00 1.055582e+00 4.956454e+00 6.583357e+00 5.363958e+00 6.317230e+00 5.879190e+00 5.750072e+00 6.633386e+00 5.211695e+00 6.671191e-01 -7.553599e-01 -7.819703e-01 -7.793820e-01 -8.082852e-01 -8.205280e-01 -8.434017e-01 -8.731622e-01 -8.853138e-01 -9.288244e-01 -9.257448e-01 -9.749498e-01 -9.509690e-01 -9.955263e-01 -9.460810e-01 -9.781870e-01 -9.047265e-01 -9.232925e-01 -8.342636e-01 -8.439016e-01 -7.526856e-01 -7.620436e-01 -6.841259e-01 -7.031087e-01 -6.511227e-01 -6.856814e-01 -6.637698e-01 -7.138912e-01 -7.194410e-01 -7.814486e-01 -8.062246e-01 -8.707919e-01 -9.022543e-01 -9.556495e-01 -9.822070e-01 -1.011546e+00 -1.026430e+00 -1.008186e+00 -1.012618e+00 -9.729110e-01 -9.732940e-01 -9.274451e-01 -9.268730e-01 -8.767192e-01 -8.945500e-01 -8.274583e-01 -8.312415e-01 -7.800096e-01 -8.021881e-01 -7.752356e-01 -8.044490e-01 -8.199053e-01 -8.554918e-01 -8.996462e-01 -9.404435e-01 -1.004762e+00 -1.045138e+00 -1.116923e+00 -1.148784e+00 -1.212475e+00 -1.225986e+00 -1.268842e+00 -1.260434e+00 -1.279829e+00 -1.252463e+00 -1.251370e+00 -1.207946e+00 -1.191329e+00 -1.136445e+00 -1.115108e+00 -1.059050e+00 -1.047638e+00 -1.000809e+00 -1.010097e+00 -9.788116e-01 -1.014170e+00 -1.000206e+00 -1.058646e+00 -1.056245e+00 -1.125349e+00 -1.125275e+00 -1.190016e+00 -1.187010e+00 -1.233902e+00 -1.227276e+00 -1.242986e+00 -1.235602e+00 -1.209639e+00 -1.211332e+00 -1.140527e+00 -1.167382e+00 -1.053359e+00 -1.120998e+00 -9.661063e-01 -1.086374e+00 -8.920903e-01 -1.075331e+00 -8.337931e-01 -1.108108e+00 -6.867568e-01 -1.810146e+00 -2.185946e+00 -2.346873e-02 0 0 0 0 
0 0 0 0 0 0 0 0 0 0 0 0 0 0 0 0 0 0 0 0 0 0 0 0 0 0 0 0 0 0 0 0 0 0 0 0 0 0 0 0 0 0 0 0 0 0 0 0 0 0 0 0 0 0 0 0 0 0 0 0 0 0 0 0 0 0 0 0 0 0 0 0 0 0 0 0 0 0 0 0 0 0 0 0 0 0 0 0 0 0 0 0 0 0 0 0 0 0 0 0 0 0 0 0 0 0 0 0 0 0 0 0 0 0 0 0 0 0 0 0 0 0 0 0 0 0 0 0 
