# vtk DataFile Version 2.0
Comment goes here
ASCII

DATASET STRUCTURED_POINTS
FIELD FieldData 1
TIME 1 1 double
0.69000000
DIMENSIONS    128   16   1

ORIGIN    0.000   0.000   0.000
SPACING   0.0078125 0.015625   1.000

POINT_DATA   2048
SCALARS fY double
LOOKUP_TABLE default

0 0 0 0 0 0 0 0 0 0 0 0 0 0 0 0 0 0 0 0 0 0 0 0 0 0 0 0 0 0 0 0 0 0 0 0 0 0 0 0 0 0 0 0 0 0 0 0 0 0 0 0 0 0 0 0 0 0 0 0 0 0 0 0 0 0 0 0 0 0 0 0 0 0 0 0 0 0 0 0 0 0 0 0 0 0 0 0 0 0 0 0 0 0 0 0 0 0 0 0 0 0 0 0 0 0 0 0 0 0 0 0 0 0 0 0 0 0 0 0 0 0 0 0 0 0 0 0 
0 0 0 0 0 0 0 0 0 0 0 0 0 0 0 0 0 0 0 0 0 0 0 0 0 0 0 0 0 0 0 0 0 0 0 0 0 0 0 0 0 0 0 0 0 0 0 0 0 0 0 0 0 0 0 0 0 0 0 0 0 0 0 0 0 0 0 0 0 0 0 0 0 0 0 0 0 0 0 0 0 0 0 0 0 0 0 0 0 0 0 0 0 0 0 0 0 0 0 0 0 0 0 0 0 0 0 0 0 0 0 0 0 0 0 0 0 0 0 0 0 0 0 0 0 0 0 0 
0 0 0 0 0 -5.873483e-01 -1.514512e+00 -1.155043e+00 -1.982771e+00 -1.592298e+00 -2.426147e+00 -1.956543e+00 -2.816780e+00 -1.621319e+00 3.040450e+00 5.616817e+00 9.661758e+00 1.332143e+01 1.677772e+01 2.044790e+01 2.473744e+01 2.559039e+01 2.505579e+01 2.517331e+01 2.470304e+01 2.466204e+01 2.428543e+01 2.413242e+01 2.385826e+01 2.361271e+01 2.342200e+01 2.309728e+01 2.297005e+01 2.259454e+01 2.251994e+01 2.212281e+01 2.206834e+01 2.164565e+01 2.155699e+01 2.111086e+01 2.098022e+01 2.056851e+01 2.043674e+01 2.011252e+01 1.997793e+01 1.970896e+01 1.950305e+01 1.921779e+01 1.890460e+01 1.860377e+01 1.825435e+01 1.802287e+01 1.774903e+01 1.762637e+01 1.741787e+01 1.726413e+01 1.702592e+01 1.561301e+01 1.522644e+01 1.504527e+01 1.501152e+01 1.593353e+01 1.611335e+01 1.697109e+01 1.732360e+01 1.626936e+01 1.657671e+01 1.543950e+01 1.665083e+01 1.676993e+01 1.605082e+01 1.634027e+01 1.392520e+01 1.344423e+01 1.324659e+01 1.312023e+01 1.296405e+01 1.285219e+01 1.252139e+01 1.231095e+01 1.179014e+01 1.156130e+01 1.102561e+01 1.092200e+01 1.049829e+01 1.050087e+01 1.014717e+01 1.011763e+01 9.759220e+00 9.599683e+00 9.239524e+00 8.959878e+00 8.684548e+00 8.353718e+00 8.220027e+00 7.838026e+00 7.784320e+00 7.292758e+00 7.253790e+00 6.701818e+00 6.727389e+00 6.241049e+00 6.319178e+00 5.879392e+00 5.851202e+00 5.400931e+00 5.197612e+00 4.817286e+00 4.494827e+00 4.298735e+00 3.911117e+00 3.934408e+00 3.460908e+00 3.613477e+00 2.982314e+00 3.147886e+00 2.385275e+00 2.538707e+00 1.802024e+00 1.927907e+00 1.385495e+00 1.291191e+00 1.136788e+00 -5.547720e-01 0 0 0 0 
0 0 0 0 0 -1.727800e+00 -4.455994e+00 -3.399053e+00 -5.833132e+00 -4.684879e+00 -7.138500e+00 -5.758176e+00 -8.289470e+00 -4.773578e+00 8.939854e+00 1.651761e+01 2.841352e+01 3.917476e+01 4.933734e+01 6.012724e+01 7.273758e+01 7.524516e+01 7.367371e+01 7.401912e+01 7.263668e+01 7.251612e+01 7.140895e+01 7.095915e+01 7.015316e+01 6.943137e+01 6.887075e+01 6.791624e+01 6.754230e+01 6.643847e+01 6.621922e+01 6.505184e+01 6.489173e+01 6.364916e+01 6.338849e+01 6.207696e+01 6.169287e+01 6.048244e+01 6.009502e+01 5.914181e+01 5.874608e+01 5.795528e+01 5.734994e+01 5.651127e+01 5.559051e+01 5.470609e+01 5.367886e+01 5.299832e+01 5.219327e+01 5.183268e+01 5.121973e+01 5.076775e+01 4.996500e+01 4.729340e+01 4.647698e+01 4.590405e+01 4.485804e+01 4.560207e+01 4.523000e+01 4.603438e+01 4.700392e+01 4.590413e+01 4.719890e+01 4.555140e+01 4.679245e+01 4.592022e+01 4.445054e+01 4.485977e+01 4.074049e+01 3.953636e+01 3.895521e+01 3.858364e+01 3.812443e+01 3.779554e+01 3.682292e+01 3.620418e+01 3.467287e+01 3.400001e+01 3.242490e+01 3.212025e+01 3.087434e+01 3.088190e+01 2.984181e+01 2.975490e+01 2.870090e+01 2.823173e+01 2.717259e+01 2.635026e+01 2.554060e+01 2.456779e+01 2.417468e+01 2.305140e+01 2.289351e+01 2.144800e+01 2.133341e+01 1.971014e+01 1.978526e+01 1.835488e+01 1.858449e+01 1.729094e+01 1.720786e+01 1.588347e+01 1.528544e+01 1.416682e+01 1.321855e+01 1.264190e+01 1.150213e+01 1.157082e+01 1.017850e+01 1.062740e+01 8.771269e+00 9.258167e+00 7.014898e+00 7.464997e+00 5.294946e+00 5.654845e+00 4.024605e+00 3.738491e+00 3.322552e+00 -1.632157e+00 0 0 0 0 
0 0 0 0 0 -1.193639e+00 -3.078762e+00 -2.348827e+00 -4.029985e+00 -3.236915e+00 -4.932317e+00 -3.979268e+00 -5.728352e+00 -7.183563e+00 8.797959e+00 8.246977e+00 2.356472e+01 2.274669e+01 3.863213e+01 3.703229e+01 5.369105e+01 5.196615e+01 5.088110e+01 5.111958e+01 5.016499e+01 5.008172e+01 4.931719e+01 4.900658e+01 4.845003e+01 4.795164e+01 4.756454e+01 4.690547e+01 4.664728e+01 4.588511e+01 4.573374e+01 4.492767e+01 4.481713e+01 4.395911e+01 4.377911e+01 4.287344e+01 4.260821e+01 4.177233e+01 4.150478e+01 4.084652e+01 4.057324e+01 4.002713e+01 3.960911e+01 3.902995e+01 3.839413e+01 3.778338e+01 3.707404e+01 3.660409e+01 3.604817e+01 3.579918e+01 3.537591e+01 3.506381e+01 3.425611e+01 3.561799e+01 3.444685e+01 3.352821e+01 3.248274e+01 3.025187e+01 2.977942e+01 2.853256e+01 2.788637e+01 2.989104e+01 2.979993e+01 3.109239e+01 2.858391e+01 2.719843e+01 2.730612e+01 2.458925e+01 2.768770e+01 2.730739e+01 2.690603e+01 2.664939e+01 2.633226e+01 2.610513e+01 2.543345e+01 2.500614e+01 2.394861e+01 2.348393e+01 2.239612e+01 2.218572e+01 2.132524e+01 2.133045e+01 2.061209e+01 2.055205e+01 1.982406e+01 1.950001e+01 1.876847e+01 1.820052e+01 1.764131e+01 1.696944e+01 1.669795e+01 1.592215e+01 1.581312e+01 1.481475e+01 1.473560e+01 1.361440e+01 1.366625e+01 1.267822e+01 1.283673e+01 1.194317e+01 1.188571e+01 1.097084e+01 1.055774e+01 9.785035e+00 9.130073e+00 8.731800e+00 7.944622e+00 7.992163e+00 7.030571e+00 7.340732e+00 6.058704e+00 6.394995e+00 4.845297e+00 5.155638e+00 3.655042e+00 3.898631e+00 2.755613e+00 2.553739e+00 2.284931e+00 -1.127656e+00 0 0 0 0 
0 0 0 0 0 -5.318741e-02 -1.372801e-01 -1.048173e-01 -1.796242e-01 -1.443348e-01 -2.199651e-01 -1.776347e-01 -2.556628e-01 -3.170664e+00 2.982256e+00 -2.151173e+00 4.752581e+00 -3.006937e+00 5.700554e+00 -2.805167e+00 4.732483e+00 2.311382e+00 2.263177e+00 2.273767e+00 2.231349e+00 2.227642e+00 2.193664e+00 2.179859e+00 2.155125e+00 2.132982e+00 2.115783e+00 2.086505e+00 2.075037e+00 2.041178e+00 2.034458e+00 1.998643e+00 1.993734e+00 1.955605e+00 1.947605e+00 1.907350e+00 1.895558e+00 1.858399e+00 1.846502e+00 1.817236e+00 1.805085e+00 1.780805e+00 1.762222e+00 1.736474e+00 1.708213e+00 1.681062e+00 1.649534e+00 1.628643e+00 1.603935e+00 1.592870e+00 1.574059e+00 1.560186e+00 1.311409e+00 4.883965e+00 3.954020e+00 3.151774e+00 3.439655e+00 1.019732e+00 1.149191e+00 7.222279e-02 -1.557235e+00 7.186561e-01 -1.098308e+00 8.854762e-01 -2.051307e+00 -2.375527e+00 -1.313522e+00 -5.150260e+00 7.750753e-01 1.215257e+00 1.197402e+00 1.185984e+00 1.171880e+00 1.161780e+00 1.131912e+00 1.112910e+00 1.065880e+00 1.045214e+00 9.968300e-01 9.874734e-01 9.491933e-01 9.494233e-01 9.174591e-01 9.147826e-01 8.823857e-01 8.679638e-01 8.354088e-01 8.101391e-01 7.852552e-01 7.553654e-01 7.432891e-01 7.087757e-01 7.039293e-01 6.595061e-01 6.559841e-01 6.060818e-01 6.083800e-01 5.643896e-01 5.714247e-01 5.316289e-01 5.290504e-01 4.883047e-01 4.699067e-01 4.354987e-01 4.063514e-01 3.886294e-01 3.536119e-01 3.557522e-01 3.129757e-01 3.268067e-01 2.697492e-01 2.847140e-01 2.156733e-01 2.293480e-01 1.621195e-01 1.716931e-01 1.165032e-01 1.064395e-01 9.916739e-02 -5.027022e-02 0 0 0 0 
0 0 0 0 0 0 0 0 0 0 0 0 0 -1.579588e+00 4.284387e-01 -1.489867e+00 1.181355e+00 -1.319874e+00 1.527471e+00 -7.122195e-01 1.345341e+00 0 0 0 0 0 0 0 0 0 0 0 0 0 0 0 0 0 0 0 0 0 0 0 0 0 0 0 0 0 0 0 0 0 0 0 -5.624937e-03 9.463650e-01 7.577176e-01 4.823496e-01 8.034409e-01 4.364074e-01 4.864197e-01 6.029535e-01 2.367161e-01 4.623879e-01 -2.760467e-01 -9.501800e-02 -4.935978e-01 -4.236669e-01 -2.199205e-01 -1.220011e+00 -9.733664e-02 0 0 0 0 0 0 0 0 0 0 0 0 0 0 0 0 0 0 0 0 0 0 0 0 0 0 0 0 0 0 0 0 0 0 0 0 0 0 0 0 0 0 0 0 0 0 0 0 0 0 0 0 0 0 0 
0 0 0 0 0 0 0 0 0 0 0 0 0 -7.881193e-01 4.112070e-01 -8.776338e-01 8.466393e-01 -9.356794e-01 9.484188e-01 -6.334903e-01 6.460845e-01 0 0 0 0 0 0 0 0 0 0 0 0 0 0 0 0 0 0 0 0 0 0 0 0 0 0 0 0 0 0 0 0 0 0 0 0 0 0 0 0 0 0 0 0 0 0 0 0 0 0 0 0 0 0 0 0 0 0 0 0 0 0 0 0 0 0 0 0 0 0 0 0 0 0 0 0 0 0 0 0 0 0 0 0 0 0 0 0 0 0 0 0 0 0 0 0 0 0 0 0 0 0 0 0 0 0 0 
0 0 0 0 0 0 0 0 0 0 0 0 0 7.820197e-03 -3.402567e-04 3.525102e-04 -2.887051e-03 -6.557187e-03 -5.315575e-03 -8.837432e-03 -1.144287e-02 0 0 0 0 0 0 0 0 0 0 0 0 0 0 0 0 0 0 0 0 0 0 0 0 0 0 0 0 0 0 0 0 0 0 0 0 0 0 0 0 0 0 0 0 0 0 0 0 0 0 0 0 0 0 0 0 0 0 0 0 0 0 0 0 0 0 0 0 0 0 0 0 0 0 0 0 0 0 0 0 0 0 0 0 0 0 0 0 0 0 0 0 0 0 0 0 0 0 0 0 0 0 0 0 0 0 0 
0 0 0 0 0 0 0 0 0 0 0 0 0 7.998401e-01 -4.203429e-01 8.694098e-01 -8.510694e-01 8.982194e-01 -9.460170e-01 5.835362e-01 -6.627180e-01 0 0 0 0 0 0 0 0 0 0 0 0 0 0 0 0 0 0 0 0 0 0 0 0 0 0 0 0 0 0 0 0 0 0 0 0 0 0 0 0 0 0 0 0 0 0 0 0 0 0 0 0 0 0 0 0 0 0 0 0 0 0 0 0 0 0 0 0 0 0 0 0 0 0 0 0 0 0 0 0 0 0 0 0 0 0 0 0 0 0 0 0 0 0 0 0 0 0 0 0 0 0 0 0 0 0 0 
0 0 0 0 0 0 0 0 0 0 0 0 0 1.595198e+00 -4.367371e-01 1.488163e+00 -1.187604e+00 1.288233e+00 -1.527746e+00 6.634151e-01 -1.361987e+00 0 0 0 0 0 0 0 0 0 0 0 0 0 0 0 0 0 0 0 0 0 0 0 0 0 0 0 0 0 0 0 0 0 0 0 0 0 0 0 0 0 0 0 0 0 0 0 0 0 0 0 0 0 0 0 0 0 0 0 0 0 0 0 0 0 0 0 0 0 0 0 0 0 0 0 0 0 0 0 0 0 0 0 0 0 0 0 0 0 0 0 0 0 0 0 0 0 0 0 0 0 0 0 0 0 0 0 
0 0 0 0 0 5.289126e-02 1.370500e-01 1.033799e-01 1.783424e-01 1.429962e-01 2.198705e-01 1.772761e-01 2.551557e-01 3.164565e+00 -3.045357e+00 2.176677e+00 -4.766636e+00 2.906071e+00 -5.604808e+00 2.558570e+00 -4.731027e+00 -2.305646e+00 -2.259656e+00 -2.272825e+00 -2.233468e+00 -2.231075e+00 -2.194900e+00 -2.179448e+00 -2.150123e+00 -2.129849e+00 -2.111253e+00 -2.089493e+00 -2.077071e+00 -2.049806e+00 -2.035641e+00 -2.001557e+00 -1.985726e+00 -1.952348e+00 -1.939935e+00 -1.911844e+00 -1.900114e+00 -1.873075e+00 -1.855808e+00 -1.826881e+00 -1.803948e+00 -1.776776e+00 -1.754438e+00 -1.734963e+00 -1.717208e+00 -1.703470e+00 -1.684625e+00 -1.666952e+00 -1.639515e+00 -1.613379e+00 -1.580664e+00 -1.554576e+00 -1.529120e+00 -1.512359e+00 -1.497710e+00 -1.485648e+00 -1.473728e+00 -1.457692e+00 -1.441404e+00 -1.418242e+00 -1.396509e+00 -1.369483e+00 -1.346888e+00 -1.321264e+00 -1.300993e+00 -1.277877e+00 -1.259118e+00 -1.238603e+00 -1.220460e+00 -1.205471e+00 -1.188078e+00 -1.179408e+00 -1.158660e+00 -1.148664e+00 -1.116119e+00 -1.098079e+00 -1.054374e+00 -1.032642e+00 -9.895058e-01 -9.748319e-01 -9.451358e-01 -9.409343e-01 -9.226519e-01 -9.148472e-01 -8.941993e-01 -8.697634e-01 -8.445852e-01 -8.074176e-01 -7.877850e-01 -7.478289e-01 -7.406907e-01 -7.014298e-01 -7.040402e-01 -6.627083e-01 -6.673923e-01 -6.206199e-01 -6.199297e-01 -5.691206e-01 -5.631184e-01 -5.188131e-01 -5.117271e-01 -4.805460e-01 -4.677295e-01 -4.474672e-01 -4.219353e-01 -4.102934e-01 -3.682242e-01 -3.638498e-01 -3.073009e-01 -3.135043e-01 -2.516390e-01 -2.702951e-01 -2.089758e-01 -2.311642e-01 -1.704408e-01 -1.799712e-01 -1.230318e-01 -1.081004e-01 -1.000589e-01 5.055056e-02 0 0 0 0 
0 0 0 0 0 1.186998e+00 3.073656e+00 2.316616e+00 4.001180e+00 3.206759e+00 4.930022e+00 3.970984e+00 5.716667e+00 7.159508e+00 -8.850539e+00 -8.242050e+00 -2.360626e+01 -2.276886e+01 -3.862043e+01 -3.706357e+01 -5.358879e+01 -5.183712e+01 -5.080185e+01 -5.109826e+01 -5.021245e+01 -5.015867e+01 -4.934459e+01 -4.899689e+01 -4.833701e+01 -4.788073e+01 -4.746226e+01 -4.697248e+01 -4.669288e+01 -4.607919e+01 -4.576037e+01 -4.499325e+01 -4.463696e+01 -4.388584e+01 -4.360649e+01 -4.297441e+01 -4.271048e+01 -4.210210e+01 -4.171362e+01 -4.106283e+01 -4.054687e+01 -3.993560e+01 -3.943305e+01 -3.899494e+01 -3.859552e+01 -3.828647e+01 -3.786251e+01 -3.746497e+01 -3.684777e+01 -3.625986e+01 -3.552400e+01 -3.493721e+01 -3.436464e+01 -3.398766e+01 -3.365818e+01 -3.338690e+01 -3.311883e+01 -3.275818e+01 -3.239188e+01 -3.187100e+01 -3.138225e+01 -3.077450e+01 -3.026639e+01 -2.969021e+01 -2.923438e+01 -2.871463e+01 -2.829282e+01 -2.783156e+01 -2.742361e+01 -2.708660e+01 -2.669551e+01 -2.650057e+01 -2.603407e+01 -2.580934e+01 -2.507765e+01 -2.467212e+01 -2.368967e+01 -2.320119e+01 -2.223168e+01 -2.190193e+01 -2.123460e+01 -2.114029e+01 -2.072950e+01 -2.055415e+01 -2.009015e+01 -1.954085e+01 -1.897496e+01 -1.813942e+01 -1.769809e+01 -1.679990e+01 -1.663933e+01 -1.575688e+01 -1.581549e+01 -1.488674e+01 -1.499215e+01 -1.394147e+01 -1.392634e+01 -1.278528e+01 -1.265092e+01 -1.165615e+01 -1.149739e+01 -1.079735e+01 -1.050957e+01 -1.005448e+01 -9.480602e+00 -9.218752e+00 -8.272989e+00 -8.174129e+00 -6.903066e+00 -7.041883e+00 -5.651913e+00 -6.071145e+00 -4.694986e+00 -5.196672e+00 -3.842330e+00 -4.085447e+00 -2.904435e+00 -2.593347e+00 -2.305725e+00 1.133938e+00 0 0 0 0 
0 0 0 0 0 1.718188e+00 4.448617e+00 3.352440e+00 5.791427e+00 4.641198e+00 7.135134e+00 5.746125e+00 8.272479e+00 4.705685e+00 -8.921477e+00 -1.656823e+01 -2.845029e+01 -3.905847e+01 -4.943932e+01 -5.973526e+01 -7.261299e+01 -7.505830e+01 -7.355894e+01 -7.398821e+01 -7.270535e+01 -7.262748e+01 -7.144853e+01 -7.094500e+01 -6.998937e+01 -6.932858e+01 -6.872254e+01 -6.801322e+01 -6.760829e+01 -6.671952e+01 -6.625778e+01 -6.514682e+01 -6.463083e+01 -6.354305e+01 -6.313850e+01 -6.222313e+01 -6.184092e+01 -6.095990e+01 -6.039731e+01 -5.945489e+01 -5.870770e+01 -5.782250e+01 -5.709476e+01 -5.646031e+01 -5.588190e+01 -5.543436e+01 -5.482042e+01 -5.424475e+01 -5.335097e+01 -5.249962e+01 -5.143403e+01 -5.058432e+01 -4.975521e+01 -4.920931e+01 -4.873220e+01 -4.833938e+01 -4.795120e+01 -4.742896e+01 -4.689854e+01 -4.614429e+01 -4.543656e+01 -4.455654e+01 -4.382078e+01 -4.298646e+01 -4.232642e+01 -4.157383e+01 -4.096305e+01 -4.029516e+01 -3.970444e+01 -3.921646e+01 -3.865017e+01 -3.836790e+01 -3.769241e+01 -3.736702e+01 -3.630756e+01 -3.572038e+01 -3.429787e+01 -3.359060e+01 -3.218685e+01 -3.170942e+01 -3.074324e+01 -3.060672e+01 -3.001198e+01 -2.975810e+01 -2.908630e+01 -2.829096e+01 -2.747162e+01 -2.626182e+01 -2.562279e+01 -2.432227e+01 -2.408975e+01 -2.281207e+01 -2.289690e+01 -2.155224e+01 -2.170489e+01 -2.018377e+01 -2.016196e+01 -1.851008e+01 -1.831567e+01 -1.687561e+01 -1.664588e+01 -1.563250e+01 -1.521590e+01 -1.455706e+01 -1.372614e+01 -1.334697e+01 -1.197755e+01 -1.183428e+01 -9.993900e+00 -1.019474e+01 -8.182346e+00 -8.789326e+00 -6.797322e+00 -7.524464e+00 -5.566185e+00 -5.925526e+00 -4.240611e+00 -3.796417e+00 -3.352850e+00 1.641248e+00 0 0 0 0 
0 0 0 0 0 5.840811e-01 1.512011e+00 1.139204e+00 1.968589e+00 1.577435e+00 2.424982e+00 1.952418e+00 2.810967e+00 1.598194e+00 -3.034238e+00 -5.634069e+00 -9.674279e+00 -1.328190e+01 -1.681240e+01 -2.031454e+01 -2.469507e+01 -2.552683e+01 -2.501674e+01 -2.516278e+01 -2.472637e+01 -2.469989e+01 -2.429884e+01 -2.412756e+01 -2.380248e+01 -2.357769e+01 -2.337154e+01 -2.313023e+01 -2.299248e+01 -2.269013e+01 -2.253305e+01 -2.215512e+01 -2.197959e+01 -2.160956e+01 -2.147194e+01 -2.116057e+01 -2.103055e+01 -2.073087e+01 -2.053950e+01 -2.021894e+01 -1.996478e+01 -1.966368e+01 -1.941614e+01 -1.920034e+01 -1.900359e+01 -1.885137e+01 -1.864254e+01 -1.844673e+01 -1.814272e+01 -1.785314e+01 -1.749070e+01 -1.720169e+01 -1.691968e+01 -1.673401e+01 -1.657173e+01 -1.643812e+01 -1.630609e+01 -1.612847e+01 -1.594806e+01 -1.569153e+01 -1.545082e+01 -1.515152e+01 -1.490128e+01 -1.461752e+01 -1.439304e+01 -1.413708e+01 -1.392935e+01 -1.370220e+01 -1.350130e+01 -1.333534e+01 -1.314274e+01 -1.304674e+01 -1.281700e+01 -1.270634e+01 -1.234603e+01 -1.214634e+01 -1.166257e+01 -1.142205e+01 -1.094468e+01 -1.078233e+01 -1.045378e+01 -1.040736e+01 -1.020513e+01 -1.011880e+01 -9.890352e+00 -9.619875e+00 -9.341242e+00 -8.929809e+00 -8.712487e+00 -8.270207e+00 -8.191118e+00 -7.756617e+00 -7.785457e+00 -7.328208e+00 -7.380138e+00 -6.862924e+00 -6.855555e+00 -6.293916e+00 -6.227871e+00 -5.738280e+00 -5.660218e+00 -5.315694e+00 -5.174058e+00 -4.950047e+00 -4.667476e+00 -4.538507e+00 -4.072787e+00 -4.023997e+00 -3.398135e+00 -3.466358e+00 -2.782072e+00 -2.988476e+00 -2.311311e+00 -2.558956e+00 -1.894296e+00 -2.020050e+00 -1.459208e+00 -1.311170e+00 -1.147185e+00 5.578611e-01 0 0 0 0 
0 0 0 0 0 0 0 0 0 0 0 0 0 0 0 0 0 0 0 0 0 0 0 0 0 0 0 0 0 0 0 0 0 0 0 0 0 0 0 0 0 0 0 0 0 0 0 0 0 0 0 0 0 0 0 0 0 0 0 0 0 0 0 0 0 0 0 0 0 0 0 0 0 0 0 0 0 0 0 0 0 0 0 0 0 0 0 0 0 0 0 0 0 0 0 0 0 0 0 0 0 0 0 0 0 0 0 0 0 0 0 0 0 0 0 0 0 0 0 0 0 0 0 0 0 0 0 0 
