# vtk DataFile Version 2.0
Comment goes here
ASCII

DATASET STRUCTURED_POINTS
FIELD FieldData 1
TIME 1 1 double
0.90000000
DIMENSIONS    128   16   1

ORIGIN    0.000   0.000   0.000
SPACING   0.0078125 0.015625   1.000

POINT_DATA   2048
SCALARS fY double
LOOKUP_TABLE default

0 0 0 0 0 0 0 0 0 0 0 0 0 0 0 0 0 0 0 0 0 0 0 0 0 0 0 0 0 0 0 0 0 0 0 0 0 0 0 0 0 0 0 0 0 0 0 0 0 0 0 0 0 0 0 0 0 0 0 0 0 0 0 0 0 0 0 0 0 0 0 0 0 0 0 0 0 0 0 0 0 0 0 0 0 0 0 0 0 0 0 0 0 0 0 0 0 0 0 0 0 0 0 0 0 0 0 0 0 0 0 0 0 0 0 0 0 0 0 0 0 0 0 0 0 0 0 0 
0 0 0 0 0 0 0 0 0 0 0 0 0 0 0 0 0 0 0 0 0 0 0 0 0 0 0 0 0 0 0 0 0 0 0 0 0 0 0 0 0 0 0 0 0 0 0 0 0 0 0 0 0 0 0 0 0 0 0 0 0 0 0 0 0 0 0 0 0 0 0 0 0 0 0 0 0 0 0 0 0 0 0 0 0 0 0 0 0 0 0 0 0 0 0 0 0 0 0 0 0 0 0 0 0 0 0 0 0 0 0 0 0 0 0 0 0 0 0 0 0 0 0 0 0 0 0 0 
0 0 0 0 0 -1.190742e+00 -1.992685e+00 -1.579337e+00 -2.715646e+00 -2.117383e+00 -3.353647e+00 -2.618616e+00 -3.884269e+00 -2.257639e+00 4.276129e+00 8.515753e+00 1.347060e+01 1.866507e+01 2.344858e+01 2.790228e+01 3.472198e+01 3.564157e+01 3.494713e+01 3.508711e+01 3.444872e+01 3.444496e+01 3.388365e+01 3.376327e+01 3.329762e+01 3.308181e+01 3.270715e+01 3.240231e+01 3.210072e+01 3.172047e+01 3.147098e+01 3.103373e+01 3.082289e+01 3.036394e+01 3.017812e+01 2.970679e+01 2.950707e+01 2.903367e+01 2.882179e+01 2.838704e+01 2.816694e+01 2.777378e+01 2.751802e+01 2.715041e+01 2.683491e+01 2.648610e+01 2.611294e+01 2.581207e+01 2.541691e+01 2.519651e+01 2.479355e+01 2.463797e+01 2.396460e+01 2.314720e+01 2.189368e+01 2.154682e+01 2.170515e+01 2.234423e+01 2.249214e+01 2.290597e+01 2.372272e+01 2.163573e+01 1.869920e+01 1.883105e+01 1.957756e+01 1.980457e+01 1.950383e+01 1.874127e+01 1.854980e+01 1.817680e+01 1.791824e+01 1.755538e+01 1.725868e+01 1.688378e+01 1.654241e+01 1.618666e+01 1.584164e+01 1.552913e+01 1.519540e+01 1.490604e+01 1.456424e+01 1.424021e+01 1.385693e+01 1.347108e+01 1.309556e+01 1.271320e+01 1.242705e+01 1.207259e+01 1.185821e+01 1.147395e+01 1.125758e+01 1.079070e+01 1.053209e+01 1.001363e+01 9.751154e+00 9.275549e+00 9.044951e+00 8.663295e+00 8.423642e+00 8.110121e+00 7.765024e+00 7.481192e+00 6.993583e+00 6.783461e+00 6.198834e+00 6.106362e+00 5.449479e+00 5.462192e+00 4.754893e+00 4.830727e+00 4.094317e+00 4.154940e+00 3.433326e+00 3.409641e+00 2.796746e+00 2.605228e+00 2.234523e+00 1.693007e+00 1.962724e+00 -2.285437e-01 0 0 0 0 
0 0 0 0 0 -3.503408e+00 -5.869204e+00 -4.656215e+00 -7.992386e+00 -6.229755e+00 -9.867075e+00 -7.706553e+00 -1.143120e+01 -6.647463e+00 1.257281e+01 2.504158e+01 3.961237e+01 5.488443e+01 6.894806e+01 8.203895e+01 1.020832e+02 1.047865e+02 1.027458e+02 1.031573e+02 1.012813e+02 1.012703e+02 9.962063e+01 9.926683e+01 9.789828e+01 9.726400e+01 9.616283e+01 9.526693e+01 9.438054e+01 9.326300e+01 9.252974e+01 9.124468e+01 9.062501e+01 8.927613e+01 8.872999e+01 8.734466e+01 8.675764e+01 8.536618e+01 8.474340e+01 8.346551e+01 8.281853e+01 8.166287e+01 8.091107e+01 7.983051e+01 7.890313e+01 7.787781e+01 7.678097e+01 7.589659e+01 7.473507e+01 7.408721e+01 7.290278e+01 7.244546e+01 7.103531e+01 7.010505e+01 6.857884e+01 6.768693e+01 6.644405e+01 6.626147e+01 6.533398e+01 6.460800e+01 6.476721e+01 6.256168e+01 6.007709e+01 5.943365e+01 5.893997e+01 5.802436e+01 5.676865e+01 5.566928e+01 5.460249e+01 5.345119e+01 5.269102e+01 5.162419e+01 5.075190e+01 4.964966e+01 4.864599e+01 4.760003e+01 4.658565e+01 4.566682e+01 4.468559e+01 4.383480e+01 4.282982e+01 4.187710e+01 4.075015e+01 3.961563e+01 3.851146e+01 3.738720e+01 3.654581e+01 3.550355e+01 3.487316e+01 3.374326e+01 3.310702e+01 3.173410e+01 3.097361e+01 2.944899e+01 2.867713e+01 2.727848e+01 2.660034e+01 2.547795e+01 2.477320e+01 2.385120e+01 2.283642e+01 2.200176e+01 2.056793e+01 1.995007e+01 1.823090e+01 1.795901e+01 1.602723e+01 1.606456e+01 1.398429e+01 1.420706e+01 1.204087e+01 1.221861e+01 1.009543e+01 1.002443e+01 8.219015e+00 7.648888e+00 6.540149e+00 4.947238e+00 5.762978e+00 -6.722792e-01 0 0 0 0 
0 0 0 0 0 -2.420600e+00 -4.058253e+00 -3.221698e+00 -5.523318e+00 -4.304298e+00 -6.817409e+00 -5.325659e+00 -7.899525e+00 -9.338484e+00 1.229136e+01 1.163787e+01 3.277679e+01 3.200888e+01 5.353497e+01 5.220623e+01 7.423975e+01 7.236197e+01 7.095319e+01 7.123727e+01 6.994216e+01 6.993458e+01 6.879571e+01 6.855145e+01 6.760660e+01 6.716869e+01 6.640843e+01 6.578990e+01 6.517792e+01 6.440639e+01 6.390015e+01 6.301295e+01 6.258513e+01 6.165385e+01 6.127678e+01 6.032031e+01 5.991501e+01 5.895428e+01 5.852428e+01 5.764195e+01 5.719523e+01 5.639728e+01 5.587819e+01 5.513208e+01 5.449177e+01 5.378381e+01 5.302649e+01 5.241585e+01 5.161387e+01 5.116655e+01 5.034874e+01 5.003298e+01 4.942604e+01 4.979183e+01 4.934813e+01 4.883245e+01 4.711176e+01 4.536844e+01 4.399608e+01 4.285481e+01 4.023879e+01 4.196561e+01 4.500490e+01 4.328561e+01 4.132844e+01 3.977836e+01 3.906658e+01 3.838256e+01 3.769527e+01 3.691698e+01 3.639204e+01 3.565532e+01 3.505294e+01 3.429176e+01 3.359864e+01 3.287632e+01 3.217580e+01 3.154126e+01 3.086363e+01 3.027608e+01 2.958204e+01 2.892409e+01 2.814580e+01 2.736229e+01 2.659973e+01 2.582329e+01 2.524220e+01 2.452238e+01 2.408701e+01 2.330664e+01 2.286722e+01 2.191900e+01 2.139376e+01 2.034073e+01 1.980763e+01 1.884159e+01 1.837320e+01 1.759796e+01 1.711120e+01 1.647438e+01 1.577352e+01 1.519705e+01 1.420676e+01 1.378004e+01 1.259267e+01 1.240490e+01 1.107062e+01 1.109638e+01 9.659429e+00 9.813175e+00 8.316727e+00 8.439225e+00 6.972247e+00 6.922548e+00 5.674097e+00 5.276963e+00 4.502161e+00 3.401742e+00 3.976102e+00 -4.644265e-01 0 0 0 0 
0 0 0 0 0 -1.079341e-01 -1.817337e-01 -1.448207e-01 -2.465786e-01 -1.919254e-01 -3.039817e-01 -2.377219e-01 -3.525933e-01 -3.719621e+00 4.256954e+00 -4.564714e+00 6.773232e+00 -4.278804e+00 7.870160e+00 -2.217922e+00 5.822952e+00 3.216988e+00 3.154474e+00 3.167091e+00 3.109617e+00 3.109286e+00 3.058734e+00 3.047890e+00 3.005941e+00 2.986498e+00 2.952742e+00 2.925283e+00 2.898112e+00 2.863861e+00 2.841386e+00 2.801999e+00 2.783005e+00 2.741657e+00 2.724915e+00 2.682442e+00 2.664442e+00 2.621773e+00 2.602674e+00 2.563482e+00 2.543639e+00 2.508191e+00 2.485134e+00 2.451988e+00 2.423547e+00 2.392096e+00 2.358459e+00 2.331333e+00 2.295712e+00 2.275842e+00 2.239516e+00 2.225491e+00 2.322448e+00 2.826945e+00 2.316208e+00 2.304692e+00 2.155906e+00 1.113365e+00 5.749942e-01 8.588445e-01 -1.206771e+00 7.088821e-01 3.205805e+00 2.259493e+00 1.682355e+00 1.136715e+00 1.627000e+00 1.171845e+00 1.613836e+00 1.642593e+00 1.619256e+00 1.586504e+00 1.559723e+00 1.525880e+00 1.495063e+00 1.462945e+00 1.431797e+00 1.403581e+00 1.373449e+00 1.347321e+00 1.316456e+00 1.287196e+00 1.252583e+00 1.217736e+00 1.183820e+00 1.149285e+00 1.123439e+00 1.091420e+00 1.072053e+00 1.037337e+00 1.017788e+00 9.755997e-01 9.522291e-01 9.053720e-01 8.816487e-01 8.386564e-01 8.178113e-01 7.833076e-01 7.616471e-01 7.333057e-01 7.021238e-01 6.764730e-01 6.324161e-01 6.134332e-01 5.606020e-01 5.522513e-01 4.928674e-01 4.940073e-01 4.300266e-01 4.368388e-01 3.701713e-01 3.755561e-01 3.101393e-01 3.077609e-01 2.518284e-01 2.333034e-01 1.965356e-01 1.475107e-01 1.758481e-01 -2.069107e-02 0 0 0 0 
0 0 0 0 0 0 0 0 0 0 0 0 0 -2.203856e+00 6.320813e-01 -2.131858e+00 1.616150e+00 -1.774904e+00 2.031776e+00 -8.010144e-01 1.984355e+00 0 0 0 0 0 0 0 0 0 0 0 0 0 0 0 0 0 0 0 0 0 0 0 0 0 0 0 0 0 0 0 0 0 0 0 -3.288828e-02 -7.045379e-03 -3.467715e-01 -3.876465e-01 -2.169558e-01 -3.378423e-01 -5.792520e-01 -2.939405e-01 -4.010735e-01 -3.307755e-01 -4.212054e-01 -4.235161e-01 -2.836809e-01 -4.218518e-01 -1.747552e-01 -2.827030e-01 -2.873854e-02 0 0 0 0 0 0 0 0 0 0 0 0 0 0 0 0 0 0 0 0 0 0 0 0 0 0 0 0 0 0 0 0 0 0 0 0 0 0 0 0 0 0 0 0 0 0 0 0 0 0 0 0 0 0 0 
0 0 0 0 0 0 0 0 0 0 0 0 0 -1.088329e+00 6.224636e-01 -1.343441e+00 1.207835e+00 -1.305453e+00 1.306782e+00 -7.430813e-01 9.596088e-01 0 0 0 0 0 0 0 0 0 0 0 0 0 0 0 0 0 0 0 0 0 0 0 0 0 0 0 0 0 0 0 0 0 0 0 0 0 0 0 0 0 0 0 0 0 0 0 0 0 0 0 0 0 0 0 0 0 0 0 0 0 0 0 0 0 0 0 0 0 0 0 0 0 0 0 0 0 0 0 0 0 0 0 0 0 0 0 0 0 0 0 0 0 0 0 0 0 0 0 0 0 0 0 0 0 0 0 
0 0 0 0 0 0 0 0 0 0 0 0 0 2.240996e-03 -7.595265e-04 -3.578981e-03 -3.689498e-04 -7.256541e-03 -2.641615e-03 -4.354754e-03 -9.575112e-03 0 0 0 0 0 0 0 0 0 0 0 0 0 0 0 0 0 0 0 0 0 0 0 0 0 0 0 0 0 0 0 0 0 0 0 0 0 0 0 0 0 0 0 0 0 0 0 0 0 0 0 0 0 0 0 0 0 0 0 0 0 0 0 0 0 0 0 0 0 0 0 0 0 0 0 0 0 0 0 0 0 0 0 0 0 0 0 0 0 0 0 0 0 0 0 0 0 0 0 0 0 0 0 0 0 0 0 
0 0 0 0 0 0 0 0 0 0 0 0 0 1.091608e+00 -6.220983e-01 1.320980e+00 -1.194778e+00 1.256773e+00 -1.292738e+00 6.992258e-01 -9.795958e-01 0 0 0 0 0 0 0 0 0 0 0 0 0 0 0 0 0 0 0 0 0 0 0 0 0 0 0 0 0 0 0 0 0 0 0 0 0 0 0 0 0 0 0 0 0 0 0 0 0 0 0 0 0 0 0 0 0 0 0 0 0 0 0 0 0 0 0 0 0 0 0 0 0 0 0 0 0 0 0 0 0 0 0 0 0 0 0 0 0 0 0 0 0 0 0 0 0 0 0 0 0 0 0 0 0 0 0 
0 0 0 0 0 0 0 0 0 0 0 0 0 2.208277e+00 -6.348443e-01 2.115192e+00 -1.606236e+00 1.734074e+00 -2.018276e+00 7.622220e-01 -2.001440e+00 0 0 0 0 0 0 0 0 0 0 0 0 0 0 0 0 0 0 0 0 0 0 0 0 0 0 0 0 0 0 0 0 0 0 0 0 0 0 0 0 0 0 0 0 0 0 0 0 0 0 0 0 0 0 0 0 0 0 0 0 0 0 0 0 0 0 0 0 0 0 0 0 0 0 0 0 0 0 0 0 0 0 0 0 0 0 0 0 0 0 0 0 0 0 0 0 0 0 0 0 0 0 0 0 0 0 0 
0 0 0 0 0 1.075857e-01 1.818814e-01 1.445320e-01 2.468079e-01 1.920814e-01 3.044275e-01 2.377793e-01 3.523828e-01 3.718564e+00 -4.297239e+00 4.542761e+00 -6.715800e+00 4.111919e+00 -7.718007e+00 1.977958e+00 -5.854479e+00 -3.216851e+00 -3.152058e+00 -3.168296e+00 -3.107328e+00 -3.111030e+00 -3.055813e+00 -3.049833e+00 -3.002643e+00 -2.989446e+00 -2.951217e+00 -2.931308e+00 -2.899311e+00 -2.871191e+00 -2.842487e+00 -2.807225e+00 -2.781127e+00 -2.741761e+00 -2.719272e+00 -2.680588e+00 -2.662711e+00 -2.625805e+00 -2.608130e+00 -2.569902e+00 -2.548504e+00 -2.508899e+00 -2.483969e+00 -2.445352e+00 -2.419056e+00 -2.384058e+00 -2.357614e+00 -2.325917e+00 -2.298177e+00 -2.268311e+00 -2.238606e+00 -2.209414e+00 -2.177483e+00 -2.148490e+00 -2.115157e+00 -2.085944e+00 -2.051150e+00 -2.021353e+00 -1.986805e+00 -1.959215e+00 -1.927316e+00 -1.901726e+00 -1.870363e+00 -1.843336e+00 -1.809303e+00 -1.779287e+00 -1.741985e+00 -1.711161e+00 -1.674080e+00 -1.647648e+00 -1.613803e+00 -1.592572e+00 -1.559945e+00 -1.539258e+00 -1.502901e+00 -1.477400e+00 -1.436511e+00 -1.407502e+00 -1.368259e+00 -1.339817e+00 -1.307066e+00 -1.279688e+00 -1.254234e+00 -1.224366e+00 -1.201994e+00 -1.163493e+00 -1.140848e+00 -1.094081e+00 -1.074206e+00 -1.024750e+00 -1.010693e+00 -9.628151e-01 -9.532482e-01 -9.071584e-01 -8.958748e-01 -8.501123e-01 -8.316639e-01 -7.880249e-01 -7.607393e-01 -7.244893e-01 -6.903928e-01 -6.673336e-01 -6.265679e-01 -6.156571e-01 -5.642907e-01 -5.617369e-01 -4.993343e-01 -5.025447e-01 -4.319611e-01 -4.383496e-01 -3.662534e-01 -3.734511e-01 -3.071064e-01 -3.079284e-01 -2.525766e-01 -2.354645e-01 -1.983911e-01 -1.483830e-01 -1.762790e-01 2.138695e-02 0 0 0 0 
0 0 0 0 0 2.412798e+00 4.061789e+00 3.215542e+00 5.528592e+00 4.307760e+00 6.827300e+00 5.326783e+00 7.894605e+00 9.339326e+00 -1.231841e+01 -1.162903e+01 -3.277462e+01 -3.204125e+01 -5.349280e+01 -5.225925e+01 -7.420125e+01 -7.235966e+01 -7.089947e+01 -7.126501e+01 -6.989092e+01 -6.997403e+01 -6.872992e+01 -6.859519e+01 -6.753226e+01 -6.723509e+01 -6.637414e+01 -6.592575e+01 -6.520517e+01 -6.457179e+01 -6.392535e+01 -6.313106e+01 -6.254326e+01 -6.165656e+01 -6.115004e+01 -6.027877e+01 -5.987615e+01 -5.904503e+01 -5.864698e+01 -5.778619e+01 -5.730440e+01 -5.641271e+01 -5.585142e+01 -5.498206e+01 -5.439008e+01 -5.360226e+01 -5.300698e+01 -5.229350e+01 -5.166905e+01 -5.099684e+01 -5.032820e+01 -4.967117e+01 -4.895244e+01 -4.829993e+01 -4.754970e+01 -4.689226e+01 -4.610921e+01 -4.543867e+01 -4.466120e+01 -4.404039e+01 -4.332259e+01 -4.274679e+01 -4.204110e+01 -4.143301e+01 -4.066730e+01 -3.999202e+01 -3.915282e+01 -3.845941e+01 -3.762525e+01 -3.703069e+01 -3.626940e+01 -3.579186e+01 -3.505803e+01 -3.459276e+01 -3.377514e+01 -3.320162e+01 -3.228217e+01 -3.162980e+01 -3.074742e+01 -3.010784e+01 -2.937145e+01 -2.875580e+01 -2.818349e+01 -2.751183e+01 -2.700878e+01 -2.614301e+01 -2.563382e+01 -2.458231e+01 -2.413544e+01 -2.302365e+01 -2.270770e+01 -2.163162e+01 -2.141674e+01 -2.038107e+01 -2.012771e+01 -1.909956e+01 -1.868517e+01 -1.770479e+01 -1.709166e+01 -1.627720e+01 -1.551081e+01 -1.499253e+01 -1.407609e+01 -1.383061e+01 -1.267596e+01 -1.261828e+01 -1.121599e+01 -1.128815e+01 -9.702760e+00 -9.846945e+00 -8.228554e+00 -8.391815e+00 -6.904067e+00 -6.926386e+00 -5.691199e+00 -5.326383e+00 -4.546392e+00 -3.424164e+00 -3.986728e+00 4.800393e-01 0 0 0 0 
0 0 0 0 0 3.492119e+00 5.874379e+00 4.647387e+00 8.000051e+00 6.234757e+00 9.881363e+00 7.708139e+00 1.142403e+01 6.630035e+00 -1.254510e+01 -2.499750e+01 -3.969136e+01 -5.468948e+01 -6.910944e+01 -8.175566e+01 -1.019946e+02 -1.047834e+02 -1.026682e+02 -1.031976e+02 -1.012071e+02 -1.013274e+02 -9.952534e+01 -9.933018e+01 -9.779059e+01 -9.736018e+01 -9.611319e+01 -9.546374e+01 -9.442007e+01 -9.350265e+01 -9.256635e+01 -9.141586e+01 -9.056449e+01 -8.928016e+01 -8.854650e+01 -8.728454e+01 -8.670139e+01 -8.549760e+01 -8.492108e+01 -8.367434e+01 -8.297655e+01 -8.168509e+01 -8.087216e+01 -7.961308e+01 -7.875571e+01 -7.761472e+01 -7.675258e+01 -7.571928e+01 -7.481492e+01 -7.384138e+01 -7.287301e+01 -7.192147e+01 -7.088057e+01 -6.993558e+01 -6.884908e+01 -6.789696e+01 -6.676292e+01 -6.579186e+01 -6.466592e+01 -6.376687e+01 -6.272736e+01 -6.189351e+01 -6.087155e+01 -5.999095e+01 -5.888209e+01 -5.790419e+01 -5.668893e+01 -5.568478e+01 -5.447684e+01 -5.361585e+01 -5.251344e+01 -5.182193e+01 -5.075930e+01 -5.008556e+01 -4.890162e+01 -4.807114e+01 -4.673976e+01 -4.579511e+01 -4.451744e+01 -4.359130e+01 -4.252503e+01 -4.163356e+01 -4.080487e+01 -3.983229e+01 -3.910387e+01 -3.785023e+01 -3.711293e+01 -3.559036e+01 -3.494331e+01 -3.333350e+01 -3.287604e+01 -3.131799e+01 -3.100690e+01 -2.950743e+01 -2.914066e+01 -2.765212e+01 -2.705219e+01 -2.563282e+01 -2.474511e+01 -2.356595e+01 -2.245629e+01 -2.170588e+01 -2.037893e+01 -2.002343e+01 -1.835159e+01 -1.826800e+01 -1.623771e+01 -1.634220e+01 -1.404700e+01 -1.425591e+01 -1.191318e+01 -1.214994e+01 -9.996712e+00 -1.003000e+01 -8.243849e+00 -7.720657e+00 -6.604831e+00 -4.980418e+00 -5.778602e+00 6.948776e-01 0 0 0 0 
0 0 0 0 0 1.186907e+00 1.994471e+00 1.576376e+00 2.718268e+00 2.119079e+00 3.358491e+00 2.619135e+00 3.881807e+00 2.251689e+00 -4.266719e+00 -8.500773e+00 -1.349744e+01 -1.859871e+01 -2.350343e+01 -2.780583e+01 -3.469188e+01 -3.564059e+01 -3.492081e+01 -3.510090e+01 -3.442354e+01 -3.446444e+01 -3.385123e+01 -3.378482e+01 -3.326097e+01 -3.311454e+01 -3.269026e+01 -3.246930e+01 -3.211420e+01 -3.180205e+01 -3.148348e+01 -3.109203e+01 -3.080235e+01 -3.036536e+01 -3.011573e+01 -2.968636e+01 -2.948795e+01 -2.907838e+01 -2.888223e+01 -2.845806e+01 -2.822065e+01 -2.778128e+01 -2.750471e+01 -2.707637e+01 -2.678469e+01 -2.639652e+01 -2.610322e+01 -2.575170e+01 -2.544404e+01 -2.511285e+01 -2.478342e+01 -2.445972e+01 -2.410561e+01 -2.378414e+01 -2.341453e+01 -2.309064e+01 -2.270487e+01 -2.237454e+01 -2.199153e+01 -2.168570e+01 -2.133209e+01 -2.104845e+01 -2.070082e+01 -2.040128e+01 -2.002409e+01 -1.969146e+01 -1.927809e+01 -1.893653e+01 -1.852566e+01 -1.823281e+01 -1.785784e+01 -1.762264e+01 -1.726121e+01 -1.703206e+01 -1.662938e+01 -1.634692e+01 -1.589410e+01 -1.557281e+01 -1.513827e+01 -1.482329e+01 -1.446065e+01 -1.415745e+01 -1.387561e+01 -1.354482e+01 -1.329709e+01 -1.287071e+01 -1.261995e+01 -1.210213e+01 -1.188207e+01 -1.133460e+01 -1.117903e+01 -1.064919e+01 -1.054342e+01 -1.003352e+01 -9.908827e+00 -9.402674e+00 -9.198687e+00 -8.716060e+00 -8.414196e+00 -8.013239e+00 -7.635872e+00 -7.380684e+00 -6.929406e+00 -6.808480e+00 -6.239924e+00 -6.211464e+00 -5.521060e+00 -5.556596e+00 -4.776197e+00 -4.847316e+00 -4.050879e+00 -4.131576e+00 -3.399752e+00 -3.411546e+00 -2.805226e+00 -2.629739e+00 -2.256831e+00 -1.704637e+00 -1.968153e+00 2.362253e-01 0 0 0 0 
0 0 0 0 0 0 0 0 0 0 0 0 0 0 0 0 0 0 0 0 0 0 0 0 0 0 0 0 0 0 0 0 0 0 0 0 0 0 0 0 0 0 0 0 0 0 0 0 0 0 0 0 0 0 0 0 0 0 0 0 0 0 0 0 0 0 0 0 0 0 0 0 0 0 0 0 0 0 0 0 0 0 0 0 0 0 0 0 0 0 0 0 0 0 0 0 0 0 0 0 0 0 0 0 0 0 0 0 0 0 0 0 0 0 0 0 0 0 0 0 0 0 0 0 0 0 0 0 
