# vtk DataFile Version 2.0
Comment goes here
ASCII

DATASET STRUCTURED_POINTS
FIELD FieldData 1
TIME 1 1 double
0.20000000
DIMENSIONS    128   16   1

ORIGIN    0.000   0.000   0.000
SPACING   0.0078125 0.015625   1.000

POINT_DATA   2048
SCALARS fY double
LOOKUP_TABLE default

0 0 0 0 0 0 0 0 0 0 0 0 0 0 0 0 0 0 0 0 0 0 0 0 0 0 0 0 0 0 0 0 0 0 0 0 0 0 0 0 0 0 0 0 0 0 0 0 0 0 0 0 0 0 0 0 0 0 0 0 0 0 0 0 0 0 0 0 0 0 0 0 0 0 0 0 0 0 0 0 0 0 0 0 0 0 0 0 0 0 0 0 0 0 0 0 0 0 0 0 0 0 0 0 0 0 0 0 0 0 0 0 0 0 0 0 0 0 0 0 0 0 0 0 0 0 0 0 
0 0 0 0 0 0 0 0 0 0 0 0 0 0 0 0 0 0 0 0 0 0 0 0 0 0 0 0 0 0 0 0 0 0 0 0 0 0 0 0 0 0 0 0 0 0 0 0 0 0 0 0 0 0 0 0 0 0 0 0 0 0 0 0 0 0 0 0 0 0 0 0 0 0 0 0 0 0 0 0 0 0 0 0 0 0 0 0 0 0 0 0 0 0 0 0 0 0 0 0 0 0 0 0 0 0 0 0 0 0 0 0 0 0 0 0 0 0 0 0 0 0 0 0 0 0 0 0 
0 0 0 0 0 -1.191586e+00 -2.080029e+00 -1.873321e+00 -3.212963e+00 -2.606373e+00 -3.643455e+00 -2.697338e+00 -3.888840e+00 -2.352077e+00 4.022935e+00 8.234034e+00 1.320800e+01 1.843870e+01 2.343855e+01 2.825428e+01 3.544785e+01 3.651973e+01 3.547537e+01 3.486414e+01 3.346004e+01 3.320148e+01 3.329034e+01 3.418272e+01 3.427861e+01 3.395721e+01 3.294969e+01 3.197346e+01 3.164642e+01 3.197063e+01 3.270225e+01 3.303992e+01 3.291747e+01 3.164183e+01 3.006730e+01 2.860115e+01 2.840168e+01 2.890811e+01 2.990031e+01 3.025330e+01 3.013935e+01 2.921076e+01 2.791725e+01 2.638979e+01 2.510691e+01 2.397881e+01 2.355878e+01 2.410492e+01 2.532280e+01 2.692020e+01 2.794048e+01 2.772449e+01 2.555206e+01 2.196458e+01 1.855853e+01 1.756201e+01 1.855356e+01 2.065923e+01 2.197928e+01 2.340166e+01 2.474596e+01 2.297753e+01 1.987633e+01 1.999361e+01 1.995098e+01 1.877304e+01 1.663354e+01 1.432842e+01 1.354183e+01 1.371395e+01 1.561941e+01 1.816178e+01 1.994510e+01 1.997047e+01 1.855720e+01 1.613684e+01 1.363146e+01 1.206938e+01 1.181159e+01 1.258316e+01 1.392299e+01 1.531807e+01 1.641887e+01 1.713144e+01 1.728149e+01 1.650884e+01 1.482460e+01 1.236962e+01 1.023943e+01 8.974687e+00 9.087769e+00 9.600584e+00 1.026457e+01 1.010519e+01 9.662249e+00 8.816424e+00 8.459394e+00 8.343844e+00 8.440042e+00 8.069703e+00 7.313185e+00 6.637741e+00 5.838169e+00 5.449183e+00 4.924140e+00 5.148508e+00 5.111280e+00 6.111380e+00 6.285757e+00 6.476073e+00 4.893376e+00 3.706312e+00 2.241354e+00 2.372472e+00 2.508717e+00 3.114162e+00 3.094076e+00 2.288068e+00 2.128229e+00 -2.233598e-01 0 0 0 0 
0 0 0 0 0 -3.505886e+00 -6.125968e+00 -5.520772e+00 -9.455236e+00 -7.668097e+00 -1.071954e+01 -7.938206e+00 -1.144472e+01 -6.925231e+00 1.182813e+01 2.421303e+01 3.884018e+01 5.421882e+01 6.891852e+01 8.307342e+01 1.042163e+02 1.073673e+02 1.042983e+02 1.025020e+02 9.837561e+01 9.761580e+01 9.787694e+01 1.004995e+02 1.007813e+02 9.983674e+01 9.687558e+01 9.400652e+01 9.304532e+01 9.399817e+01 9.614849e+01 9.714091e+01 9.678104e+01 9.303194e+01 8.840419e+01 8.409491e+01 8.350864e+01 8.499715e+01 8.791340e+01 8.895091e+01 8.861596e+01 8.588657e+01 8.208460e+01 7.759475e+01 7.382379e+01 7.050763e+01 6.927294e+01 7.087842e+01 7.445833e+01 7.915390e+01 8.215286e+01 8.151799e+01 7.591751e+01 6.792347e+01 6.096230e+01 5.816412e+01 5.933167e+01 6.352925e+01 6.613968e+01 6.840113e+01 7.020483e+01 6.906923e+01 6.635056e+01 6.535797e+01 6.255132e+01 5.753131e+01 5.023628e+01 4.361368e+01 3.991764e+01 4.032968e+01 4.593212e+01 5.340688e+01 5.864982e+01 5.872445e+01 5.456947e+01 4.745346e+01 4.008710e+01 3.549409e+01 3.473609e+01 3.700479e+01 4.094433e+01 4.504621e+01 4.828275e+01 5.037780e+01 5.081895e+01 4.854726e+01 4.359526e+01 3.637680e+01 3.011311e+01 2.639403e+01 2.672654e+01 2.823452e+01 3.018693e+01 2.971822e+01 2.841568e+01 2.592831e+01 2.487839e+01 2.453855e+01 2.482137e+01 2.373227e+01 2.150766e+01 1.952133e+01 1.717006e+01 1.602617e+01 1.448217e+01 1.514209e+01 1.503260e+01 1.797370e+01 1.848642e+01 1.904578e+01 1.439074e+01 1.089929e+01 6.589710e+00 6.974003e+00 7.371971e+00 9.145504e+00 9.068013e+00 6.697125e+00 6.249515e+00 -6.570286e-01 0 0 0 0 
0 0 0 0 0 -2.422310e+00 -4.235551e+00 -3.818850e+00 -6.533867e+00 -5.297909e+00 -7.406298e+00 -5.485733e+00 -7.908897e+00 -9.890658e+00 1.201134e+01 1.139564e+01 3.252761e+01 3.159758e+01 5.296807e+01 5.183842e+01 7.427269e+01 7.414361e+01 7.202498e+01 7.078486e+01 6.793614e+01 6.741162e+01 6.759189e+01 6.940245e+01 6.959700e+01 6.894486e+01 6.690047e+01 6.491971e+01 6.425609e+01 6.491393e+01 6.639855e+01 6.708372e+01 6.683527e+01 6.424690e+01 6.105181e+01 5.807655e+01 5.767178e+01 5.869950e+01 6.071296e+01 6.142928e+01 6.119801e+01 5.931352e+01 5.668849e+01 5.358837e+01 5.098464e+01 4.869483e+01 4.784229e+01 4.895089e+01 5.142274e+01 5.466496e+01 5.673561e+01 5.629724e+01 5.319465e+01 5.071793e+01 4.753969e+01 4.584375e+01 4.589677e+01 4.712289e+01 4.837459e+01 4.905461e+01 4.772307e+01 5.013546e+01 5.319274e+01 5.080688e+01 4.724309e+01 4.284122e+01 3.760942e+01 3.183602e+01 2.765703e+01 2.785538e+01 3.172443e+01 3.688631e+01 4.050689e+01 4.055844e+01 3.768918e+01 3.277504e+01 2.768784e+01 2.451584e+01 2.399234e+01 2.555917e+01 2.827989e+01 3.111266e+01 3.334779e+01 3.479459e+01 3.509924e+01 3.353045e+01 3.011061e+01 2.512541e+01 2.079948e+01 1.823085e+01 1.846051e+01 1.950200e+01 2.085041e+01 2.052667e+01 1.962705e+01 1.790904e+01 1.718388e+01 1.694914e+01 1.714445e+01 1.639220e+01 1.485576e+01 1.348381e+01 1.185986e+01 1.106979e+01 1.000338e+01 1.045924e+01 1.038361e+01 1.241502e+01 1.276911e+01 1.315529e+01 9.939765e+00 7.527980e+00 4.550678e+00 4.815478e+00 5.089043e+00 6.310642e+00 6.248191e+00 4.610348e+00 4.312063e+00 -4.538903e-01 0 0 0 0 
0 0 0 0 0 -1.080100e-01 -1.896123e-01 -1.713982e-01 -2.915947e-01 -2.361852e-01 -3.302145e-01 -2.448644e-01 -3.530196e-01 -4.015979e+00 4.275285e+00 -4.520264e+00 6.805838e+00 -4.409769e+00 7.546172e+00 -2.454913e+00 5.586209e+00 3.296061e+00 3.202051e+00 3.147007e+00 3.020571e+00 2.997295e+00 3.005295e+00 3.085661e+00 3.094295e+00 3.065344e+00 2.974577e+00 2.886649e+00 2.857185e+00 2.886390e+00 2.952309e+00 2.982729e+00 2.971700e+00 2.856790e+00 2.714917e+00 2.582794e+00 2.564821e+00 2.610461e+00 2.699871e+00 2.731681e+00 2.721407e+00 2.637711e+00 2.521131e+00 2.383417e+00 2.267756e+00 2.166012e+00 2.128136e+00 2.177398e+00 2.287208e+00 2.431250e+00 2.523222e+00 2.503748e+00 2.839376e+00 4.999450e+00 4.889598e+00 5.041818e+00 5.111923e+00 3.977671e+00 3.708406e+00 3.711313e+00 1.825220e+00 3.622171e+00 6.240465e+00 4.977211e+00 4.384482e+00 3.660748e+00 3.988350e+00 2.493290e+00 1.278497e+00 1.239657e+00 1.411713e+00 1.641213e+00 1.802169e+00 1.804463e+00 1.676912e+00 1.458426e+00 1.232203e+00 1.091127e+00 1.067843e+00 1.137534e+00 1.258542e+00 1.384518e+00 1.483907e+00 1.548236e+00 1.561780e+00 1.492027e+00 1.339951e+00 1.118228e+00 9.257979e-01 8.115155e-01 8.217318e-01 8.680695e-01 9.280520e-01 9.136421e-01 8.736128e-01 7.971563e-01 7.648874e-01 7.544368e-01 7.631199e-01 7.296398e-01 6.612809e-01 6.002245e-01 5.279647e-01 4.928071e-01 4.453529e-01 4.656533e-01 4.622859e-01 5.526940e-01 5.684418e-01 5.855890e-01 4.424033e-01 3.350021e-01 2.023220e-01 2.139471e-01 2.257894e-01 2.793001e-01 2.742538e-01 2.012911e-01 1.907779e-01 -2.022146e-02 0 0 0 0 
0 0 0 0 0 0 0 0 0 0 0 0 0 -2.036844e+00 7.355847e-01 -1.999906e+00 1.717084e+00 -1.732843e+00 2.079528e+00 -8.640186e-01 2.131679e+00 0 0 0 0 0 0 0 0 0 0 0 0 0 0 0 0 0 0 0 0 0 0 0 0 0 0 0 0 0 0 0 0 0 0 0 1.017327e-02 2.404073e-01 -2.463126e-01 -1.998188e-01 -6.736601e-03 -2.751954e-01 -5.057815e-01 -3.438336e-01 -4.389863e-01 -4.215883e-01 -4.780439e-01 -4.653181e-01 -2.582656e-01 -4.221982e-01 -1.833074e-02 -5.746379e-02 -2.724729e-03 0 0 0 0 0 0 0 0 0 0 0 0 0 0 0 0 0 0 0 0 0 0 0 0 0 0 0 0 0 0 0 0 0 0 0 0 0 0 0 0 0 0 0 0 0 0 0 0 0 0 0 0 0 0 0 
0 0 0 0 0 0 0 0 0 0 0 0 0 -9.765976e-01 6.637597e-01 -1.281545e+00 1.239943e+00 -1.290239e+00 1.325651e+00 -7.484889e-01 1.044925e+00 0 0 0 0 0 0 0 0 0 0 0 0 0 0 0 0 0 0 0 0 0 0 0 0 0 0 0 0 0 0 0 0 0 0 0 0 0 0 0 0 0 0 0 0 0 0 0 0 0 0 0 0 0 0 0 0 0 0 0 0 0 0 0 0 0 0 0 0 0 0 0 0 0 0 0 0 0 0 0 0 0 0 0 0 0 0 0 0 0 0 0 0 0 0 0 0 0 0 0 0 0 0 0 0 0 0 0 
0 0 0 0 0 0 0 0 0 0 0 0 0 1.829279e-01 9.485578e-02 1.184186e-01 7.669775e-02 7.517508e-02 6.757430e-02 6.249056e-02 6.061453e-02 0 0 0 0 0 0 0 0 0 0 0 0 0 0 0 0 0 0 0 0 0 0 0 0 0 0 0 0 0 0 0 0 0 0 0 0 0 0 0 0 0 0 0 0 0 0 0 0 0 0 0 0 0 0 0 0 0 0 0 0 0 0 0 0 0 0 0 0 0 0 0 0 0 0 0 0 0 0 0 0 0 0 0 0 0 0 0 0 0 0 0 0 0 0 0 0 0 0 0 0 0 0 0 0 0 0 0 
0 0 0 0 0 0 0 0 0 0 0 0 0 1.193944e+00 -5.962927e-01 1.371363e+00 -1.170690e+00 1.293472e+00 -1.249613e+00 7.359223e-01 -9.156935e-01 0 0 0 0 0 0 0 0 0 0 0 0 0 0 0 0 0 0 0 0 0 0 0 0 0 0 0 0 0 0 0 0 0 0 0 0 0 0 0 0 0 0 0 0 0 0 0 0 0 0 0 0 0 0 0 0 0 0 0 0 0 0 0 0 0 0 0 0 0 0 0 0 0 0 0 0 0 0 0 0 0 0 0 0 0 0 0 0 0 0 0 0 0 0 0 0 0 0 0 0 0 0 0 0 0 0 0 
0 0 0 0 0 0 0 0 0 0 0 0 0 2.320239e+00 -6.155761e-01 2.150065e+00 -1.599830e+00 1.760967e+00 -1.945979e+00 8.882286e-01 -1.820072e+00 0 0 0 0 0 0 0 0 0 0 0 0 0 0 0 0 0 0 0 0 0 0 0 0 0 0 0 0 0 0 0 0 0 0 0 0 0 0 0 0 0 0 0 0 0 0 0 0 0 0 0 0 0 0 0 0 0 0 0 0 0 0 0 0 0 0 0 0 0 0 0 0 0 0 0 0 0 0 0 0 0 0 0 0 0 0 0 0 0 0 0 0 0 0 0 0 0 0 0 0 0 0 0 0 0 0 0 
0 0 0 0 0 1.063025e-01 1.709993e-01 1.124865e-01 1.982808e-01 1.443269e-01 2.747128e-01 2.268161e-01 3.477147e-01 3.422043e+00 -4.443221e+00 4.406724e+00 -6.790078e+00 4.107527e+00 -7.669210e+00 2.121590e+00 -5.779948e+00 -3.283916e+00 -3.158906e+00 -3.099526e+00 -3.003412e+00 -3.027665e+00 -3.008789e+00 -3.016758e+00 -2.968931e+00 -2.965358e+00 -2.956378e+00 -2.974203e+00 -2.968378e+00 -2.927657e+00 -2.847792e+00 -2.764101e+00 -2.732215e+00 -2.717260e+00 -2.708867e+00 -2.635659e+00 -2.535850e+00 -2.425567e+00 -2.418646e+00 -2.484690e+00 -2.591244e+00 -2.626431e+00 -2.600372e+00 -2.510341e+00 -2.436657e+00 -2.402429e+00 -2.409042e+00 -2.390929e+00 -2.328476e+00 -2.220320e+00 -2.102083e+00 -2.034759e+00 -2.047891e+00 -2.120395e+00 -2.177005e+00 -2.185587e+00 -2.143095e+00 -2.085535e+00 -2.007912e+00 -1.905300e+00 -1.758417e+00 -1.603840e+00 -1.506651e+00 -1.535819e+00 -1.659926e+00 -1.808969e+00 -1.903533e+00 -1.923974e+00 -1.861629e+00 -1.776745e+00 -1.690659e+00 -1.635450e+00 -1.581671e+00 -1.542016e+00 -1.490972e+00 -1.482104e+00 -1.500876e+00 -1.535033e+00 -1.519699e+00 -1.462091e+00 -1.358309e+00 -1.238708e+00 -1.118557e+00 -1.004484e+00 -9.318440e-01 -9.090379e-01 -9.844073e-01 -1.089189e+00 -1.197983e+00 -1.192963e+00 -1.146453e+00 -1.046815e+00 -1.004055e+00 -9.498033e-01 -9.392001e-01 -8.858750e-01 -8.423692e-01 -7.701854e-01 -7.340243e-01 -7.194007e-01 -7.306328e-01 -7.578672e-01 -7.525601e-01 -7.540492e-01 -6.877637e-01 -6.452498e-01 -5.326523e-01 -5.005922e-01 -4.248335e-01 -4.504297e-01 -4.004479e-01 -4.031420e-01 -2.923806e-01 -2.305217e-01 -1.384507e-01 -1.308468e-01 -1.374748e-01 -1.305417e-01 -1.755334e-01 2.148377e-02 0 0 0 0 
0 0 0 0 0 2.384046e+00 3.817635e+00 2.496320e+00 4.439297e+00 3.235491e+00 6.160019e+00 5.080593e+00 7.789663e+00 8.612445e+00 -1.281529e+01 -1.222441e+01 -3.330430e+01 -3.264937e+01 -5.404543e+01 -5.286690e+01 -7.468382e+01 -7.387083e+01 -7.105354e+01 -6.971569e+01 -6.754996e+01 -6.809593e+01 -6.767059e+01 -6.785013e+01 -6.677290e+01 -6.669252e+01 -6.649037e+01 -6.689205e+01 -6.676089e+01 -6.584363e+01 -6.404499e+01 -6.215987e+01 -6.144170e+01 -6.110484e+01 -6.091574e+01 -5.926705e+01 -5.701978e+01 -5.453669e+01 -5.438077e+01 -5.586771e+01 -5.826681e+01 -5.905905e+01 -5.847233e+01 -5.644533e+01 -5.478633e+01 -5.401581e+01 -5.416475e+01 -5.375703e+01 -5.235111e+01 -4.991681e+01 -4.725554e+01 -4.574047e+01 -4.603603e+01 -4.766758e+01 -4.894167e+01 -4.913481e+01 -4.817842e+01 -4.688303e+01 -4.513619e+01 -4.282735e+01 -3.952264e+01 -3.604548e+01 -3.385934e+01 -3.451536e+01 -3.730704e+01 -4.065989e+01 -4.278741e+01 -4.324735e+01 -4.184461e+01 -3.993487e+01 -3.799825e+01 -3.675634e+01 -3.554670e+01 -3.465479e+01 -3.350686e+01 -3.330743e+01 -3.372966e+01 -3.449801e+01 -3.415321e+01 -3.285754e+01 -3.052387e+01 -2.783433e+01 -2.513312e+01 -2.256845e+01 -2.093564e+01 -2.042293e+01 -2.211691e+01 -2.447247e+01 -2.691829e+01 -2.680532e+01 -2.575973e+01 -2.351994e+01 -2.255878e+01 -2.133960e+01 -2.110153e+01 -1.990336e+01 -1.892569e+01 -1.730390e+01 -1.649127e+01 -1.616273e+01 -1.641516e+01 -1.702690e+01 -1.690733e+01 -1.694047e+01 -1.545035e+01 -1.449484e+01 -1.196459e+01 -1.124427e+01 -9.542672e+00 -1.011841e+01 -8.996689e+00 -9.058897e+00 -6.573597e+00 -5.187562e+00 -3.128206e+00 -2.976853e+00 -3.178882e+00 -3.024820e+00 -3.970267e+00 4.822113e-01 0 0 0 0 
0 0 0 0 0 3.450512e+00 5.520981e+00 3.606295e+00 6.423229e+00 4.682500e+00 8.915363e+00 7.351739e+00 1.127208e+01 6.353332e+00 -1.292379e+01 -2.536164e+01 -3.992979e+01 -5.494645e+01 -6.985282e+01 -8.343212e+01 -1.044969e+02 -1.069724e+02 -1.028913e+02 -1.009535e+02 -9.781632e+01 -9.860704e+01 -9.799093e+01 -9.825099e+01 -9.669071e+01 -9.657430e+01 -9.628154e+01 -9.686338e+01 -9.667343e+01 -9.534482e+01 -9.273968e+01 -9.000920e+01 -8.896898e+01 -8.848106e+01 -8.820715e+01 -8.581920e+01 -8.256439e+01 -7.896805e+01 -7.874220e+01 -8.089578e+01 -8.437047e+01 -8.551790e+01 -8.466813e+01 -8.173238e+01 -7.932960e+01 -7.821367e+01 -7.842939e+01 -7.783890e+01 -7.580273e+01 -7.227727e+01 -6.842309e+01 -6.622895e+01 -6.665698e+01 -6.901979e+01 -7.086496e+01 -7.114468e+01 -6.975959e+01 -6.788359e+01 -6.535381e+01 -6.201022e+01 -5.722451e+01 -5.218923e+01 -4.902350e+01 -4.997346e+01 -5.401608e+01 -5.887138e+01 -6.195234e+01 -6.261839e+01 -6.058701e+01 -5.782143e+01 -5.501699e+01 -5.321857e+01 -5.146692e+01 -5.017538e+01 -4.851313e+01 -4.822436e+01 -4.883577e+01 -4.994842e+01 -4.944915e+01 -4.757295e+01 -4.419378e+01 -4.029927e+01 -3.638804e+01 -3.267449e+01 -3.031032e+01 -2.956795e+01 -3.202063e+01 -3.543135e+01 -3.897276e+01 -3.880917e+01 -3.729522e+01 -3.405215e+01 -3.266049e+01 -3.089529e+01 -3.055067e+01 -2.881594e+01 -2.740042e+01 -2.505240e+01 -2.387583e+01 -2.340018e+01 -2.376567e+01 -2.465131e+01 -2.447810e+01 -2.452601e+01 -2.236840e+01 -2.098495e+01 -1.732154e+01 -1.627866e+01 -1.381523e+01 -1.464895e+01 -1.302525e+01 -1.311574e+01 -9.518358e+00 -7.512626e+00 -4.533452e+00 -4.319271e+00 -4.625247e+00 -4.402632e+00 -5.754845e+00 6.980214e-01 0 0 0 0 
0 0 0 0 0 1.172769e+00 1.874345e+00 1.222461e+00 2.182213e+00 1.591336e+00 3.030057e+00 2.497962e+00 3.830131e+00 2.157588e+00 -4.395500e+00 -8.624620e+00 -1.357854e+01 -1.868614e+01 -2.375633e+01 -2.837623e+01 -3.554340e+01 -3.638546e+01 -3.499669e+01 -3.433729e+01 -3.326978e+01 -3.353878e+01 -3.332912e+01 -3.341762e+01 -3.288674e+01 -3.284714e+01 -3.274754e+01 -3.294554e+01 -3.288091e+01 -3.242885e+01 -3.154248e+01 -3.061343e+01 -3.025950e+01 -3.009348e+01 -3.000028e+01 -2.918781e+01 -2.808047e+01 -2.685693e+01 -2.678008e+01 -2.751275e+01 -2.869490e+01 -2.908527e+01 -2.879617e+01 -2.779739e+01 -2.697993e+01 -2.660028e+01 -2.667368e+01 -2.647280e+01 -2.578009e+01 -2.458078e+01 -2.326963e+01 -2.252324e+01 -2.266885e+01 -2.347261e+01 -2.410030e+01 -2.419545e+01 -2.372426e+01 -2.308609e+01 -2.222552e+01 -2.108816e+01 -1.946029e+01 -1.774759e+01 -1.667082e+01 -1.699392e+01 -1.836896e+01 -2.002046e+01 -2.106846e+01 -2.129502e+01 -2.060403e+01 -1.966331e+01 -1.870940e+01 -1.809769e+01 -1.750190e+01 -1.706261e+01 -1.649725e+01 -1.639903e+01 -1.660699e+01 -1.698545e+01 -1.681564e+01 -1.617750e+01 -1.502822e+01 -1.370365e+01 -1.237348e+01 -1.111053e+01 -1.030653e+01 -1.005406e+01 -1.088813e+01 -1.204807e+01 -1.325246e+01 -1.319681e+01 -1.268193e+01 -1.157903e+01 -1.110576e+01 -1.050550e+01 -1.038833e+01 -9.798450e+00 -9.317100e+00 -8.518688e+00 -8.118587e+00 -7.956851e+00 -8.081141e+00 -8.382272e+00 -8.323333e+00 -8.339584e+00 -7.605816e+00 -7.135352e+00 -5.889603e+00 -5.534985e+00 -4.697396e+00 -4.980972e+00 -4.429006e+00 -4.459982e+00 -3.237142e+00 -2.555585e+00 -1.543697e+00 -1.473264e+00 -1.583839e+00 -1.508354e+00 -1.960111e+00 2.372939e-01 0 0 0 0 
0 0 0 0 0 0 0 0 0 0 0 0 0 0 0 0 0 0 0 0 0 0 0 0 0 0 0 0 0 0 0 0 0 0 0 0 0 0 0 0 0 0 0 0 0 0 0 0 0 0 0 0 0 0 0 0 0 0 0 0 0 0 0 0 0 0 0 0 0 0 0 0 0 0 0 0 0 0 0 0 0 0 0 0 0 0 0 0 0 0 0 0 0 0 0 0 0 0 0 0 0 0 0 0 0 0 0 0 0 0 0 0 0 0 0 0 0 0 0 0 0 0 0 0 0 0 0 0 
