# vtk DataFile Version 2.0
Comment goes here
ASCII

DATASET STRUCTURED_POINTS
FIELD FieldData 1
TIME 1 1 double
0.50000000
DIMENSIONS    128   16   1

ORIGIN    0.000   0.000   0.000
SPACING   0.0078125 0.015625   1.000

POINT_DATA   2048
SCALARS fY double
LOOKUP_TABLE default

0 0 0 0 0 0 0 0 0 0 0 0 0 0 0 0 0 0 0 0 0 0 0 0 0 0 0 0 0 0 0 0 0 0 0 0 0 0 0 0 0 0 0 0 0 0 0 0 0 0 0 0 0 0 0 0 0 0 0 0 0 0 0 0 0 0 0 0 0 0 0 0 0 0 0 0 0 0 0 0 0 0 0 0 0 0 0 0 0 0 0 0 0 0 0 0 0 0 0 0 0 0 0 0 0 0 0 0 0 0 0 0 0 0 0 0 0 0 0 0 0 0 0 0 0 0 0 0 
0 0 0 0 0 0 0 0 0 0 0 0 0 0 0 0 0 0 0 0 0 0 0 0 0 0 0 0 0 0 0 0 0 0 0 0 0 0 0 0 0 0 0 0 0 0 0 0 0 0 0 0 0 0 0 0 0 0 0 0 0 0 0 0 0 0 0 0 0 0 0 0 0 0 0 0 0 0 0 0 0 0 0 0 0 0 0 0 0 0 0 0 0 0 0 0 0 0 0 0 0 0 0 0 0 0 0 0 0 0 0 0 0 0 0 0 0 0 0 0 0 0 0 0 0 0 0 0 
0 0 0 0 0 -1.190449e+00 -2.001036e+00 -1.615834e+00 -2.789148e+00 -2.206657e+00 -3.426892e+00 -2.658856e+00 -3.905994e+00 -2.279714e+00 4.244089e+00 8.493580e+00 1.345919e+01 1.866749e+01 2.344573e+01 2.786380e+01 3.462357e+01 3.550517e+01 3.485751e+01 3.511010e+01 3.458091e+01 3.458765e+01 3.393263e+01 3.366390e+01 3.310561e+01 3.290088e+01 3.263530e+01 3.247211e+01 3.230120e+01 3.203580e+01 3.186916e+01 3.146383e+01 3.116076e+01 3.051666e+01 3.009816e+01 2.950755e+01 2.932044e+01 2.899248e+01 2.890165e+01 2.850202e+01 2.818376e+01 2.764014e+01 2.726330e+01 2.684711e+01 2.658005e+01 2.629901e+01 2.605148e+01 2.585120e+01 2.560998e+01 2.542832e+01 2.498340e+01 2.454763e+01 2.348504e+01 2.191370e+01 2.036507e+01 2.024976e+01 2.081534e+01 2.185045e+01 2.224717e+01 2.285216e+01 2.357357e+01 2.128585e+01 1.782704e+01 1.767709e+01 1.804602e+01 1.813512e+01 1.802637e+01 1.780969e+01 1.818544e+01 1.802026e+01 1.788966e+01 1.765018e+01 1.746020e+01 1.711848e+01 1.669434e+01 1.612649e+01 1.556886e+01 1.511823e+01 1.480753e+01 1.462559e+01 1.446589e+01 1.433569e+01 1.419017e+01 1.400494e+01 1.374359e+01 1.329087e+01 1.279247e+01 1.215489e+01 1.173877e+01 1.129708e+01 1.118663e+01 1.088758e+01 1.076064e+01 1.025194e+01 9.899992e+00 9.295024e+00 8.950562e+00 8.467971e+00 8.124155e+00 7.736836e+00 7.402508e+00 7.247855e+00 6.931320e+00 6.844497e+00 6.269933e+00 6.134704e+00 5.451231e+00 5.507850e+00 4.873842e+00 5.009422e+00 4.280410e+00 4.312012e+00 3.552847e+00 3.512873e+00 2.907172e+00 2.720081e+00 2.326116e+00 1.735263e+00 1.971208e+00 -2.294394e-01 0 0 0 0 
0 0 0 0 0 -3.502545e+00 -5.893742e+00 -4.763544e+00 -8.208601e+00 -6.492353e+00 -1.008252e+01 -7.824935e+00 -1.149512e+01 -6.712398e+00 1.247857e+01 2.497635e+01 3.957881e+01 5.489152e+01 6.893965e+01 8.192583e+01 1.017940e+02 1.043857e+02 1.024825e+02 1.032249e+02 1.016698e+02 1.016896e+02 9.976459e+01 9.897478e+01 9.733396e+01 9.673224e+01 9.595168e+01 9.547207e+01 9.496975e+01 9.418977e+01 9.370001e+01 9.250876e+01 9.161804e+01 8.972500e+01 8.849495e+01 8.675906e+01 8.620909e+01 8.524514e+01 8.497814e+01 8.380349e+01 8.286801e+01 8.127007e+01 8.016240e+01 7.893902e+01 7.815402e+01 7.732793e+01 7.660033e+01 7.601161e+01 7.530257e+01 7.476861e+01 7.346081e+01 7.217986e+01 6.976460e+01 6.733193e+01 6.555856e+01 6.531548e+01 6.520162e+01 6.621471e+01 6.605435e+01 6.590945e+01 6.582682e+01 6.312038e+01 5.928297e+01 5.758342e+01 5.598439e+01 5.474444e+01 5.365829e+01 5.351532e+01 5.355822e+01 5.299093e+01 5.260699e+01 5.190291e+01 5.134436e+01 5.033970e+01 4.909268e+01 4.742313e+01 4.578362e+01 4.445868e+01 4.354515e+01 4.301020e+01 4.254064e+01 4.215782e+01 4.172996e+01 4.118532e+01 4.041688e+01 3.908576e+01 3.762028e+01 3.574552e+01 3.452197e+01 3.322318e+01 3.289838e+01 3.201899e+01 3.164567e+01 3.014973e+01 2.911478e+01 2.733572e+01 2.632275e+01 2.490354e+01 2.389248e+01 2.275345e+01 2.177033e+01 2.131557e+01 2.038481e+01 2.012955e+01 1.843999e+01 1.804235e+01 1.603238e+01 1.619884e+01 1.433412e+01 1.473258e+01 1.258816e+01 1.268055e+01 1.044693e+01 1.032802e+01 8.543766e+00 7.986630e+00 6.809394e+00 5.071372e+00 5.787871e+00 -6.749142e-01 0 0 0 0 
0 0 0 0 0 -2.420003e+00 -4.075191e+00 -3.295829e+00 -5.672686e+00 -4.485701e+00 -6.966244e+00 -5.407447e+00 -7.943688e+00 -9.444231e+00 1.220353e+01 1.154810e+01 3.270659e+01 3.194578e+01 5.349293e+01 5.215690e+01 7.419099e+01 7.208525e+01 7.077137e+01 7.128393e+01 7.021037e+01 7.022409e+01 6.889510e+01 6.834983e+01 6.721699e+01 6.680156e+01 6.626265e+01 6.593152e+01 6.558472e+01 6.504624e+01 6.470811e+01 6.388568e+01 6.327072e+01 6.196375e+01 6.111450e+01 5.991600e+01 5.953628e+01 5.887072e+01 5.868636e+01 5.787532e+01 5.722941e+01 5.612609e+01 5.536128e+01 5.451656e+01 5.397455e+01 5.340415e+01 5.290177e+01 5.249528e+01 5.200572e+01 5.163703e+01 5.073405e+01 4.984957e+01 4.881661e+01 4.955234e+01 4.961659e+01 4.955757e+01 4.870222e+01 4.779978e+01 4.712179e+01 4.628010e+01 4.358307e+01 4.495026e+01 4.719177e+01 4.445980e+01 4.176189e+01 3.997558e+01 3.909974e+01 3.813681e+01 3.705500e+01 3.659914e+01 3.633400e+01 3.584779e+01 3.546207e+01 3.476828e+01 3.390712e+01 3.275416e+01 3.162193e+01 3.070693e+01 3.007604e+01 2.970661e+01 2.938233e+01 2.911795e+01 2.882247e+01 2.844634e+01 2.791564e+01 2.699634e+01 2.598425e+01 2.468949e+01 2.384446e+01 2.294745e+01 2.272312e+01 2.211576e+01 2.185790e+01 2.082470e+01 2.010989e+01 1.888111e+01 1.818147e+01 1.720121e+01 1.650290e+01 1.571617e+01 1.503717e+01 1.472310e+01 1.408027e+01 1.390400e+01 1.273708e+01 1.246246e+01 1.107417e+01 1.118912e+01 9.901059e+00 1.017616e+01 8.694749e+00 8.758295e+00 7.215031e+00 7.132242e+00 5.898407e+00 5.510231e+00 4.688074e+00 3.487416e+00 3.993268e+00 -4.662470e-01 0 0 0 0 
0 0 0 0 0 -1.079074e-01 -1.824848e-01 -1.481198e-01 -2.532335e-01 -2.000061e-01 -3.106120e-01 -2.413676e-01 -3.545623e-01 -3.755168e+00 4.237869e+00 -4.588249e+00 6.762521e+00 -4.271561e+00 7.873762e+00 -2.187101e+00 5.809826e+00 3.204707e+00 3.146404e+00 3.169163e+00 3.121523e+00 3.122137e+00 3.063146e+00 3.038940e+00 2.988645e+00 2.970200e+00 2.946271e+00 2.931570e+00 2.916173e+00 2.892269e+00 2.877259e+00 2.840749e+00 2.813446e+00 2.755418e+00 2.717708e+00 2.664487e+00 2.647624e+00 2.618065e+00 2.609875e+00 2.573850e+00 2.545161e+00 2.496150e+00 2.462180e+00 2.424653e+00 2.400577e+00 2.375236e+00 2.352921e+00 2.334863e+00 2.313119e+00 2.296742e+00 2.256632e+00 2.217337e+00 2.537218e+00 4.316935e+00 4.138951e+00 4.192814e+00 4.220078e+00 3.143624e+00 2.807342e+00 2.928352e+00 9.372548e-01 2.774742e+00 5.341725e+00 4.190019e+00 3.661562e+00 3.008090e+00 3.422494e+00 2.307560e+00 1.674515e+00 1.628461e+00 1.616675e+00 1.595060e+00 1.577912e+00 1.547066e+00 1.508778e+00 1.457513e+00 1.407168e+00 1.366480e+00 1.338425e+00 1.321996e+00 1.307575e+00 1.295817e+00 1.282677e+00 1.265949e+00 1.242346e+00 1.201460e+00 1.156444e+00 1.098852e+00 1.061263e+00 1.021358e+00 1.011377e+00 9.843524e-01 9.728763e-01 9.269012e-01 8.950947e-01 8.404111e-01 8.092775e-01 7.656498e-01 7.345765e-01 6.995624e-01 6.693528e-01 6.553807e-01 6.267845e-01 6.189488e-01 5.670290e-01 5.548128e-01 4.930253e-01 4.981354e-01 4.407825e-01 4.529952e-01 3.869982e-01 3.897589e-01 3.209456e-01 3.170942e-01 2.618125e-01 2.436827e-01 2.047959e-01 1.513074e-01 1.766053e-01 -2.077221e-02 0 0 0 0 
0 0 0 0 0 0 0 0 0 0 0 0 0 -2.184576e+00 6.382887e-01 -2.124363e+00 1.618210e+00 -1.766448e+00 2.039863e+00 -7.742364e-01 2.005335e+00 0 0 0 0 0 0 0 0 0 0 0 0 0 0 0 0 0 0 0 0 0 0 0 0 0 0 0 0 0 0 0 0 0 0 0 1.639862e-04 1.828326e-01 -2.841477e-01 -2.990292e-01 -9.585674e-02 -2.918851e-01 -5.072630e-01 -2.944570e-01 -3.925626e-01 -3.409947e-01 -3.941100e-01 -3.634510e-01 -1.619561e-01 -3.581709e-01 -4.532350e-02 -1.236178e-01 -7.717449e-03 0 0 0 0 0 0 0 0 0 0 0 0 0 0 0 0 0 0 0 0 0 0 0 0 0 0 0 0 0 0 0 0 0 0 0 0 0 0 0 0 0 0 0 0 0 0 0 0 0 0 0 0 0 0 0 
0 0 0 0 0 0 0 0 0 0 0 0 0 -1.075433e+00 6.283641e-01 -1.336028e+00 1.215266e+00 -1.293486e+00 1.321954e+00 -7.225558e-01 9.850745e-01 0 0 0 0 0 0 0 0 0 0 0 0 0 0 0 0 0 0 0 0 0 0 0 0 0 0 0 0 0 0 0 0 0 0 0 0 0 0 0 0 0 0 0 0 0 0 0 0 0 0 0 0 0 0 0 0 0 0 0 0 0 0 0 0 0 0 0 0 0 0 0 0 0 0 0 0 0 0 0 0 0 0 0 0 0 0 0 0 0 0 0 0 0 0 0 0 0 0 0 0 0 0 0 0 0 0 0 
0 0 0 0 0 0 0 0 0 0 0 0 0 2.111129e-02 1.058167e-02 1.137629e-02 1.453413e-02 1.206582e-02 2.463601e-02 2.785689e-02 3.634823e-02 0 0 0 0 0 0 0 0 0 0 0 0 0 0 0 0 0 0 0 0 0 0 0 0 0 0 0 0 0 0 0 0 0 0 0 0 0 0 0 0 0 0 0 0 0 0 0 0 0 0 0 0 0 0 0 0 0 0 0 0 0 0 0 0 0 0 0 0 0 0 0 0 0 0 0 0 0 0 0 0 0 0 0 0 0 0 0 0 0 0 0 0 0 0 0 0 0 0 0 0 0 0 0 0 0 0 0 
0 0 0 0 0 0 0 0 0 0 0 0 0 1.094122e+00 -6.255873e-01 1.318393e+00 -1.195072e+00 1.257662e+00 -1.277735e+00 7.140808e-01 -9.353659e-01 0 0 0 0 0 0 0 0 0 0 0 0 0 0 0 0 0 0 0 0 0 0 0 0 0 0 0 0 0 0 0 0 0 0 0 0 0 0 0 0 0 0 0 0 0 0 0 0 0 0 0 0 0 0 0 0 0 0 0 0 0 0 0 0 0 0 0 0 0 0 0 0 0 0 0 0 0 0 0 0 0 0 0 0 0 0 0 0 0 0 0 0 0 0 0 0 0 0 0 0 0 0 0 0 0 0 0 
0 0 0 0 0 0 0 0 0 0 0 0 0 2.202447e+00 -6.483571e-01 2.104256e+00 -1.613741e+00 1.730173e+00 -1.996988e+00 7.933709e-01 -1.912137e+00 0 0 0 0 0 0 0 0 0 0 0 0 0 0 0 0 0 0 0 0 0 0 0 0 0 0 0 0 0 0 0 0 0 0 0 0 0 0 0 0 0 0 0 0 0 0 0 0 0 0 0 0 0 0 0 0 0 0 0 0 0 0 0 0 0 0 0 0 0 0 0 0 0 0 0 0 0 0 0 0 0 0 0 0 0 0 0 0 0 0 0 0 0 0 0 0 0 0 0 0 0 0 0 0 0 0 0 
0 0 0 0 0 1.075287e-01 1.810922e-01 1.415520e-01 2.409805e-01 1.855007e-01 3.000738e-01 2.365366e-01 3.523683e-01 3.668568e+00 -4.360590e+00 4.491320e+00 -6.774525e+00 4.057241e+00 -7.761188e+00 1.944017e+00 -5.834658e+00 -3.242082e+00 -3.178213e+00 -3.183714e+00 -3.104248e+00 -3.089466e+00 -3.023313e+00 -3.015707e+00 -2.975231e+00 -2.973695e+00 -2.950702e+00 -2.945117e+00 -2.921703e+00 -2.889804e+00 -2.846414e+00 -2.792454e+00 -2.755484e+00 -2.716869e+00 -2.703539e+00 -2.672895e+00 -2.657736e+00 -2.619358e+00 -2.601873e+00 -2.568045e+00 -2.553866e+00 -2.520346e+00 -2.498250e+00 -2.460917e+00 -2.437519e+00 -2.409179e+00 -2.389325e+00 -2.358547e+00 -2.321076e+00 -2.275119e+00 -2.230424e+00 -2.195713e+00 -2.165845e+00 -2.141868e+00 -2.110620e+00 -2.082678e+00 -2.050492e+00 -2.024037e+00 -1.987946e+00 -1.949638e+00 -1.901543e+00 -1.862795e+00 -1.831147e+00 -1.818044e+00 -1.807878e+00 -1.801387e+00 -1.779778e+00 -1.752886e+00 -1.710668e+00 -1.674215e+00 -1.628803e+00 -1.594910e+00 -1.550991e+00 -1.525204e+00 -1.495528e+00 -1.485959e+00 -1.461197e+00 -1.437178e+00 -1.390298e+00 -1.347731e+00 -1.303317e+00 -1.267979e+00 -1.235250e+00 -1.196069e+00 -1.165678e+00 -1.125832e+00 -1.110829e+00 -1.077368e+00 -1.069183e+00 -1.024423e+00 -1.006319e+00 -9.509044e-01 -9.367237e-01 -8.945927e-01 -8.929589e-01 -8.575824e-01 -8.447289e-01 -8.041606e-01 -7.788766e-01 -7.438019e-01 -7.045270e-01 -6.705655e-01 -6.193812e-01 -6.093079e-01 -5.713311e-01 -5.861041e-01 -5.307862e-01 -5.239793e-01 -4.300067e-01 -4.102727e-01 -3.203552e-01 -3.233332e-01 -2.665034e-01 -2.838176e-01 -2.453142e-01 -2.388589e-01 -2.063300e-01 -1.546030e-01 -1.786833e-01 2.117742e-02 0 0 0 0 
0 0 0 0 0 2.411520e+00 4.044087e+00 3.148654e+00 5.397753e+00 4.159987e+00 6.729554e+00 5.298895e+00 7.894275e+00 9.200351e+00 -1.245582e+01 -1.178564e+01 -3.294190e+01 -3.223217e+01 -5.371376e+01 -5.251033e+01 -7.451224e+01 -7.292808e+01 -7.148867e+01 -7.161236e+01 -6.982150e+01 -6.948821e+01 -6.799780e+01 -6.782643e+01 -6.691479e+01 -6.688031e+01 -6.636254e+01 -6.623684e+01 -6.570955e+01 -6.499103e+01 -6.401382e+01 -6.279838e+01 -6.196576e+01 -6.109599e+01 -6.079573e+01 -6.010553e+01 -5.976410e+01 -5.889984e+01 -5.850610e+01 -5.774438e+01 -5.742513e+01 -5.667043e+01 -5.617295e+01 -5.533250e+01 -5.480574e+01 -5.416778e+01 -5.372084e+01 -5.302805e+01 -5.218453e+01 -5.115011e+01 -5.014402e+01 -4.936278e+01 -4.869051e+01 -4.815087e+01 -4.744758e+01 -4.681876e+01 -4.609439e+01 -4.549906e+01 -4.468688e+01 -4.382489e+01 -4.274267e+01 -4.187086e+01 -4.115876e+01 -4.086395e+01 -4.063524e+01 -4.048921e+01 -4.000304e+01 -3.939807e+01 -3.844831e+01 -3.762830e+01 -3.660681e+01 -3.584443e+01 -3.485664e+01 -3.427665e+01 -3.360929e+01 -3.339413e+01 -3.283732e+01 -3.229717e+01 -3.124303e+01 -3.028575e+01 -2.928715e+01 -2.849249e+01 -2.775660e+01 -2.687556e+01 -2.619225e+01 -2.529627e+01 -2.495891e+01 -2.420657e+01 -2.402253e+01 -2.301630e+01 -2.260938e+01 -2.136391e+01 -2.104531e+01 -2.009864e+01 -2.006220e+01 -1.926745e+01 -1.897881e+01 -1.806742e+01 -1.749926e+01 -1.671118e+01 -1.582838e+01 -1.506515e+01 -1.391456e+01 -1.368787e+01 -1.283414e+01 -1.316575e+01 -1.192261e+01 -1.176976e+01 -9.658917e+00 -9.216202e+00 -7.197620e+00 -7.266052e+00 -5.992076e+00 -6.384933e+00 -5.528089e+00 -5.402689e+00 -4.724682e+00 -3.563817e+00 -4.040725e+00 4.753382e-01 0 0 0 0 
0 0 0 0 0 3.490270e+00 5.848757e+00 4.550563e+00 7.810646e+00 6.020833e+00 9.739865e+00 7.667770e+00 1.142355e+01 6.588742e+00 -1.262137e+01 -2.510554e+01 -3.976614e+01 -5.477231e+01 -6.923500e+01 -8.204713e+01 -1.025533e+02 -1.056067e+02 -1.035216e+02 -1.037008e+02 -1.011066e+02 -1.006237e+02 -9.846488e+01 -9.821665e+01 -9.689622e+01 -9.684630e+01 -9.609638e+01 -9.591434e+01 -9.515063e+01 -9.410989e+01 -9.269450e+01 -9.093401e+01 -8.972804e+01 -8.846824e+01 -8.803333e+01 -8.703362e+01 -8.653910e+01 -8.528731e+01 -8.471703e+01 -8.361379e+01 -8.315140e+01 -8.205835e+01 -8.133785e+01 -8.012062e+01 -7.935772e+01 -7.843377e+01 -7.778647e+01 -7.678313e+01 -7.556146e+01 -7.406337e+01 -7.260627e+01 -7.147485e+01 -7.050122e+01 -6.971971e+01 -6.870117e+01 -6.779051e+01 -6.674146e+01 -6.587931e+01 -6.470311e+01 -6.345479e+01 -6.188755e+01 -6.062502e+01 -5.959380e+01 -5.916687e+01 -5.883566e+01 -5.862419e+01 -5.792015e+01 -5.704408e+01 -5.566871e+01 -5.448125e+01 -5.300204e+01 -5.189806e+01 -5.046767e+01 -4.962782e+01 -4.866144e+01 -4.834990e+01 -4.754363e+01 -4.676148e+01 -4.523509e+01 -4.384892e+01 -4.240295e+01 -4.125228e+01 -4.018673e+01 -3.891097e+01 -3.792155e+01 -3.662417e+01 -3.613568e+01 -3.504630e+01 -3.477982e+01 -3.332285e+01 -3.273368e+01 -3.093038e+01 -3.046912e+01 -2.909851e+01 -2.904581e+01 -2.789521e+01 -2.747735e+01 -2.615786e+01 -2.533526e+01 -2.419429e+01 -2.291607e+01 -2.181102e+01 -2.014505e+01 -1.981676e+01 -1.858060e+01 -1.906063e+01 -1.726075e+01 -1.703948e+01 -1.398354e+01 -1.334275e+01 -1.042067e+01 -1.052014e+01 -8.676404e+00 -9.246157e+00 -8.007714e+00 -7.831142e+00 -6.862938e+00 -5.182582e+00 -5.856775e+00 6.880731e-01 0 0 0 0 
0 0 0 0 0 1.186279e+00 1.985762e+00 1.543461e+00 2.653874e+00 2.046346e+00 3.310385e+00 2.605412e+00 3.881644e+00 2.237648e+00 -4.292654e+00 -8.537519e+00 -1.352288e+01 -1.862689e+01 -2.354615e+01 -2.790501e+01 -3.488199e+01 -3.592074e+01 -3.521119e+01 -3.527210e+01 -3.438932e+01 -3.422499e+01 -3.349040e+01 -3.340593e+01 -3.295666e+01 -3.293969e+01 -3.268454e+01 -3.262262e+01 -3.236278e+01 -3.200866e+01 -3.152709e+01 -3.092808e+01 -3.051776e+01 -3.008912e+01 -2.994113e+01 -2.960099e+01 -2.943273e+01 -2.900683e+01 -2.881280e+01 -2.843745e+01 -2.828014e+01 -2.790827e+01 -2.766315e+01 -2.724904e+01 -2.698949e+01 -2.667517e+01 -2.645495e+01 -2.611362e+01 -2.569801e+01 -2.518837e+01 -2.469268e+01 -2.430778e+01 -2.397656e+01 -2.371071e+01 -2.336422e+01 -2.305443e+01 -2.269756e+01 -2.240429e+01 -2.200417e+01 -2.157954e+01 -2.104642e+01 -2.061696e+01 -2.026618e+01 -2.012096e+01 -2.000830e+01 -1.993636e+01 -1.969688e+01 -1.939889e+01 -1.893107e+01 -1.852717e+01 -1.802403e+01 -1.764853e+01 -1.716202e+01 -1.687636e+01 -1.654769e+01 -1.644173e+01 -1.616751e+01 -1.590149e+01 -1.538235e+01 -1.491090e+01 -1.441912e+01 -1.402777e+01 -1.366538e+01 -1.323148e+01 -1.289498e+01 -1.245374e+01 -1.228760e+01 -1.191710e+01 -1.182647e+01 -1.133098e+01 -1.113062e+01 -1.051737e+01 -1.036053e+01 -9.894461e+00 -9.876576e+00 -9.485337e+00 -9.343270e+00 -8.894604e+00 -8.614880e+00 -8.226904e+00 -7.792215e+00 -7.416436e+00 -6.849868e+00 -6.738194e+00 -6.317796e+00 -6.480987e+00 -5.868925e+00 -5.793698e+00 -4.754627e+00 -4.536816e+00 -3.543408e+00 -3.577416e+00 -2.950831e+00 -3.145041e+00 -2.724939e+00 -2.667313e+00 -2.344586e+00 -1.773368e+00 -1.994733e+00 2.339123e-01 0 0 0 0 
0 0 0 0 0 0 0 0 0 0 0 0 0 0 0 0 0 0 0 0 0 0 0 0 0 0 0 0 0 0 0 0 0 0 0 0 0 0 0 0 0 0 0 0 0 0 0 0 0 0 0 0 0 0 0 0 0 0 0 0 0 0 0 0 0 0 0 0 0 0 0 0 0 0 0 0 0 0 0 0 0 0 0 0 0 0 0 0 0 0 0 0 0 0 0 0 0 0 0 0 0 0 0 0 0 0 0 0 0 0 0 0 0 0 0 0 0 0 0 0 0 0 0 0 0 0 0 0 
