# vtk DataFile Version 2.0
Comment goes here
ASCII

DATASET STRUCTURED_POINTS
FIELD FieldData 1
TIME 1 1 double
0.61000000
DIMENSIONS    128   16   1

ORIGIN    0.000   0.000   0.000
SPACING   0.0078125 0.015625   1.000

POINT_DATA   2048
SCALARS fY double
LOOKUP_TABLE default

0 0 0 0 0 0 0 0 0 0 0 0 0 0 0 0 0 0 0 0 0 0 0 0 0 0 0 0 0 0 0 0 0 0 0 0 0 0 0 0 0 0 0 0 0 0 0 0 0 0 0 0 0 0 0 0 0 0 0 0 0 0 0 0 0 0 0 0 0 0 0 0 0 0 0 0 0 0 0 0 0 0 0 0 0 0 0 0 0 0 0 0 0 0 0 0 0 0 0 0 0 0 0 0 0 0 0 0 0 0 0 0 0 0 0 0 0 0 0 0 0 0 0 0 0 0 0 0 
0 0 0 0 0 0 0 0 0 0 0 0 0 0 0 0 0 0 0 0 0 0 0 0 0 0 0 0 0 0 0 0 0 0 0 0 0 0 0 0 0 0 0 0 0 0 0 0 0 0 0 0 0 0 0 0 0 0 0 0 0 0 0 0 0 0 0 0 0 0 0 0 0 0 0 0 0 0 0 0 0 0 0 0 0 0 0 0 0 0 0 0 0 0 0 0 0 0 0 0 0 0 0 0 0 0 0 0 0 0 0 0 0 0 0 0 0 0 0 0 0 0 0 0 0 0 0 0 
0 0 0 0 0 -1.349504e+00 -1.735707e+00 -1.417747e+00 -2.433820e+00 -1.866276e+00 -3.027197e+00 -2.302749e+00 -3.481316e+00 -2.047030e+00 3.866480e+00 8.138065e+00 1.210969e+01 1.686156e+01 2.116344e+01 2.469455e+01 3.143847e+01 3.205602e+01 3.142942e+01 3.150993e+01 3.091928e+01 3.098213e+01 3.049817e+01 3.055232e+01 3.013419e+01 3.007593e+01 2.961168e+01 2.935308e+01 2.884726e+01 2.852016e+01 2.819442e+01 2.801314e+01 2.792559e+01 2.777229e+01 2.766167e+01 2.729431e+01 2.698544e+01 2.638599e+01 2.597112e+01 2.539669e+01 2.517311e+01 2.491424e+01 2.495697e+01 2.489631e+01 2.486867e+01 2.466316e+01 2.427899e+01 2.386845e+01 2.325748e+01 2.294780e+01 2.244116e+01 2.247746e+01 2.176935e+01 2.229430e+01 2.121547e+01 2.085812e+01 2.108789e+01 2.124897e+01 2.127642e+01 2.111919e+01 2.226011e+01 2.010241e+01 1.500118e+01 1.626873e+01 1.614945e+01 1.624391e+01 1.602361e+01 1.379691e+01 1.585015e+01 1.582112e+01 1.573306e+01 1.539254e+01 1.514649e+01 1.470981e+01 1.443501e+01 1.401813e+01 1.384219e+01 1.350597e+01 1.340375e+01 1.302377e+01 1.285644e+01 1.239388e+01 1.223906e+01 1.182876e+01 1.173698e+01 1.134113e+01 1.120129e+01 1.075173e+01 1.052199e+01 1.004729e+01 9.768376e+00 9.371954e+00 9.127738e+00 8.885173e+00 8.655953e+00 8.506206e+00 8.161978e+00 7.982383e+00 7.424493e+00 7.220348e+00 6.560542e+00 6.481607e+00 5.838727e+00 5.897160e+00 5.290764e+00 5.478536e+00 4.952075e+00 5.154307e+00 4.563740e+00 4.533820e+00 3.843324e+00 3.618398e+00 3.076446e+00 2.802205e+00 2.569503e+00 2.175815e+00 2.211890e+00 1.434011e+00 2.030914e+00 1.821641e-01 0 0 0 0 
0 0 0 0 0 -3.970735e+00 -5.117563e+00 -4.187492e+00 -7.166444e+00 -5.491133e+00 -8.905643e+00 -6.775569e+00 -1.024350e+01 -6.025373e+00 1.136942e+01 2.393178e+01 3.561113e+01 4.958208e+01 6.223043e+01 7.261010e+01 9.243276e+01 9.424848e+01 9.240693e+01 9.264364e+01 9.090788e+01 9.109274e+01 8.967048e+01 8.982972e+01 8.860084e+01 8.842962e+01 8.706511e+01 8.630501e+01 8.481827e+01 8.385681e+01 8.289934e+01 8.236652e+01 8.210919e+01 8.165860e+01 8.133346e+01 8.025371e+01 7.934581e+01 7.758381e+01 7.636434e+01 7.467580e+01 7.401858e+01 7.325760e+01 7.338321e+01 7.320488e+01 7.312364e+01 7.251950e+01 7.139025e+01 7.018342e+01 6.838742e+01 6.747708e+01 6.598775e+01 6.609446e+01 6.496295e+01 6.694620e+01 6.611748e+01 6.518252e+01 6.406443e+01 6.290563e+01 6.156210e+01 5.972481e+01 5.943644e+01 5.730477e+01 5.213787e+01 5.253534e+01 5.005517e+01 4.887419e+01 4.771507e+01 4.453461e+01 4.694846e+01 4.652495e+01 4.626602e+01 4.526489e+01 4.454146e+01 4.325760e+01 4.244963e+01 4.122397e+01 4.070667e+01 3.971813e+01 3.941761e+01 3.830037e+01 3.780836e+01 3.644826e+01 3.599302e+01 3.478653e+01 3.451663e+01 3.335256e+01 3.294132e+01 3.161928e+01 3.094368e+01 2.954770e+01 2.872749e+01 2.756169e+01 2.684354e+01 2.613022e+01 2.545620e+01 2.501588e+01 2.400371e+01 2.347565e+01 2.183518e+01 2.123492e+01 1.929466e+01 1.906256e+01 1.717194e+01 1.734368e+01 1.556014e+01 1.611209e+01 1.456343e+01 1.515773e+01 1.342037e+01 1.333190e+01 1.130056e+01 1.063868e+01 9.044284e+00 8.237464e+00 7.552632e+00 6.394141e+00 6.499455e+00 4.213747e+00 5.972418e+00 5.357457e-01 0 0 0 0 
0 0 0 0 0 -2.743595e+00 -3.541074e+00 -2.901095e+00 -4.954226e+00 -3.794053e+00 -6.152670e+00 -4.681622e+00 -7.077882e+00 -7.915310e+00 1.108205e+01 1.058513e+01 2.946969e+01 2.905777e+01 4.800144e+01 4.746971e+01 6.646647e+01 6.508642e+01 6.381503e+01 6.397850e+01 6.278021e+01 6.290792e+01 6.192604e+01 6.203603e+01 6.118761e+01 6.106940e+01 6.012730e+01 5.960249e+01 5.857597e+01 5.791214e+01 5.725105e+01 5.688316e+01 5.670549e+01 5.639439e+01 5.616990e+01 5.542439e+01 5.479753e+01 5.358093e+01 5.273893e+01 5.157303e+01 5.111923e+01 5.059378e+01 5.068051e+01 5.055736e+01 5.050126e+01 5.008411e+01 4.930438e+01 4.847106e+01 4.723094e+01 4.660235e+01 4.557396e+01 4.564764e+01 4.561372e+01 4.470578e+01 4.440296e+01 4.469789e+01 4.277114e+01 4.166161e+01 3.988172e+01 3.927488e+01 3.598686e+01 3.689761e+01 4.226723e+01 3.795133e+01 3.718468e+01 3.543843e+01 3.437259e+01 3.680214e+01 3.292934e+01 3.213371e+01 3.195489e+01 3.126354e+01 3.076395e+01 2.987735e+01 2.931937e+01 2.847295e+01 2.811571e+01 2.743303e+01 2.722550e+01 2.645393e+01 2.611414e+01 2.517482e+01 2.486041e+01 2.402715e+01 2.384073e+01 2.303674e+01 2.275270e+01 2.183959e+01 2.137296e+01 2.040877e+01 1.984227e+01 1.903706e+01 1.854105e+01 1.804837e+01 1.758287e+01 1.727876e+01 1.657973e+01 1.621504e+01 1.508206e+01 1.466750e+01 1.332743e+01 1.316714e+01 1.186126e+01 1.197985e+01 1.074784e+01 1.112895e+01 1.005907e+01 1.046935e+01 9.269061e+00 9.207723e+00 7.804329e+00 7.346972e+00 6.245430e+00 5.688000e+00 5.214747e+00 4.414227e+00 4.486590e+00 2.908772e+00 4.125079e+00 3.700554e-01 0 0 0 0 
0 0 0 0 0 -1.223634e-01 -1.592186e-01 -1.313499e-01 -2.216023e-01 -1.691965e-01 -2.742244e-01 -2.088028e-01 -3.156947e-01 -2.852617e+00 3.906814e+00 -5.235672e+00 6.222325e+00 -3.898193e+00 7.042568e+00 -7.289836e-01 4.726987e+00 2.893964e+00 2.837525e+00 2.844793e+00 2.791613e+00 2.797304e+00 2.753724e+00 2.758619e+00 2.720952e+00 2.715705e+00 2.673869e+00 2.650562e+00 2.604970e+00 2.575488e+00 2.546125e+00 2.529786e+00 2.521895e+00 2.508079e+00 2.498109e+00 2.464999e+00 2.437155e+00 2.383116e+00 2.345713e+00 2.293918e+00 2.273758e+00 2.250411e+00 2.254263e+00 2.248790e+00 2.246297e+00 2.227762e+00 2.193122e+00 2.156096e+00 2.100997e+00 2.073067e+00 2.027369e+00 2.030645e+00 2.380954e+00 -8.764829e-01 -1.816858e+00 -5.277335e-01 -1.228176e+00 -8.897286e-01 -1.597217e+00 -2.616917e-01 -1.908131e+00 -1.082766e+00 4.929178e+00 1.190304e+00 3.549865e+00 2.785210e+00 2.683024e+00 6.865988e+00 1.900248e+00 1.429880e+00 1.421928e+00 1.391191e+00 1.368977e+00 1.329559e+00 1.304748e+00 1.267113e+00 1.251230e+00 1.220873e+00 1.211646e+00 1.177332e+00 1.162220e+00 1.120440e+00 1.106454e+00 1.069384e+00 1.061087e+00 1.025314e+00 1.012672e+00 9.720390e-01 9.512730e-01 9.083635e-01 8.831549e-01 8.473190e-01 8.252495e-01 8.033242e-01 7.826164e-01 7.690887e-01 7.379958e-01 7.217759e-01 6.713747e-01 6.529354e-01 5.933091e-01 5.861789e-01 5.280557e-01 5.333220e-01 4.784612e-01 4.953907e-01 4.477214e-01 4.659287e-01 4.124336e-01 4.096448e-01 3.470970e-01 3.266913e-01 2.775911e-01 2.527416e-01 2.316180e-01 1.959009e-01 1.990256e-01 1.290365e-01 1.835742e-01 1.647384e-02 0 0 0 0 
0 0 0 0 0 0 0 0 0 0 0 0 0 -2.073076e+00 6.005719e-01 -1.966935e+00 1.437041e+00 -1.543151e+00 1.751218e+00 -5.653787e-01 1.790368e+00 0 0 0 0 0 0 0 0 0 0 0 0 0 0 0 0 0 0 0 0 0 0 0 0 0 0 0 0 0 0 0 0 0 0 0 -3.915868e-02 -9.303530e-01 -1.317809e+00 -9.012200e-01 -1.022775e+00 -8.946709e-01 -1.193263e+00 -9.309529e-01 -7.186661e-01 -7.780169e-01 -2.013649e-01 -4.944205e-01 2.709071e-01 -2.293003e-02 1.891272e-03 8.015502e-01 6.922433e-02 0 0 0 0 0 0 0 0 0 0 0 0 0 0 0 0 0 0 0 0 0 0 0 0 0 0 0 0 0 0 0 0 0 0 0 0 0 0 0 0 0 0 0 0 0 0 0 0 0 0 0 0 0 0 0 
0 0 0 0 0 0 0 0 0 0 0 0 0 -1.025485e+00 5.970423e-01 -1.304646e+00 1.105296e+00 -1.174243e+00 1.158236e+00 -5.580381e-01 8.603937e-01 0 0 0 0 0 0 0 0 0 0 0 0 0 0 0 0 0 0 0 0 0 0 0 0 0 0 0 0 0 0 0 0 0 0 0 0 0 0 0 0 0 0 0 0 0 0 0 0 0 0 0 0 0 0 0 0 0 0 0 0 0 0 0 0 0 0 0 0 0 0 0 0 0 0 0 0 0 0 0 0 0 0 0 0 0 0 0 0 0 0 0 0 0 0 0 0 0 0 0 0 0 0 0 0 0 0 0 
0 0 0 0 0 0 0 0 0 0 0 0 0 -1.027843e-02 -4.272022e-03 -9.709999e-03 -3.021078e-03 -7.333366e-03 -6.352094e-03 -8.465400e-04 -1.413428e-02 0 0 0 0 0 0 0 0 0 0 0 0 0 0 0 0 0 0 0 0 0 0 0 0 0 0 0 0 0 0 0 0 0 0 0 0 0 0 0 0 0 0 0 0 0 0 0 0 0 0 0 0 0 0 0 0 0 0 0 0 0 0 0 0 0 0 0 0 0 0 0 0 0 0 0 0 0 0 0 0 0 0 0 0 0 0 0 0 0 0 0 0 0 0 0 0 0 0 0 0 0 0 0 0 0 0 0 
0 0 0 0 0 0 0 0 0 0 0 0 0 1.007347e+00 -5.967913e-01 1.268733e+00 -1.096893e+00 1.130331e+00 -1.156653e+00 5.354591e-01 -8.918436e-01 0 0 0 0 0 0 0 0 0 0 0 0 0 0 0 0 0 0 0 0 0 0 0 0 0 0 0 0 0 0 0 0 0 0 0 0 0 0 0 0 0 0 0 0 0 0 0 0 0 0 0 0 0 0 0 0 0 0 0 0 0 0 0 0 0 0 0 0 0 0 0 0 0 0 0 0 0 0 0 0 0 0 0 0 0 0 0 0 0 0 0 0 0 0 0 0 0 0 0 0 0 0 0 0 0 0 0 
0 0 0 0 0 0 0 0 0 0 0 0 0 2.050679e+00 -6.016488e-01 1.938780e+00 -1.424757e+00 1.512048e+00 -1.743058e+00 5.586284e-01 -1.807721e+00 0 0 0 0 0 0 0 0 0 0 0 0 0 0 0 0 0 0 0 0 0 0 0 0 0 0 0 0 0 0 0 0 0 0 0 0 0 0 0 0 0 0 0 0 0 0 0 0 0 0 0 0 0 0 0 0 0 0 0 0 0 0 0 0 0 0 0 0 0 0 0 0 0 0 0 0 0 0 0 0 0 0 0 0 0 0 0 0 0 0 0 0 0 0 0 0 0 0 0 0 0 0 0 0 0 0 0 
0 0 0 0 0 1.222597e-01 1.597821e-01 1.319067e-01 2.215036e-01 1.678652e-01 2.725607e-01 2.084976e-01 3.167506e-01 2.866552e+00 -3.918787e+00 5.160086e+00 -6.157753e+00 3.741783e+00 -6.930446e+00 6.232240e-01 -4.734225e+00 -2.905536e+00 -2.846602e+00 -2.855375e+00 -2.789893e+00 -2.791348e+00 -2.734321e+00 -2.741110e+00 -2.701094e+00 -2.710391e+00 -2.677498e+00 -2.673374e+00 -2.633454e+00 -2.606024e+00 -2.557414e+00 -2.516416e+00 -2.478247e+00 -2.447619e+00 -2.434768e+00 -2.417001e+00 -2.416552e+00 -2.395821e+00 -2.390484e+00 -2.355855e+00 -2.335781e+00 -2.285439e+00 -2.253471e+00 -2.199867e+00 -2.170619e+00 -2.131057e+00 -2.117118e+00 -2.098474e+00 -2.094920e+00 -2.081732e+00 -2.066009e+00 -2.036383e+00 -1.994379e+00 -1.946112e+00 -1.891121e+00 -1.849925e+00 -1.812375e+00 -1.797271e+00 -1.776836e+00 -1.767431e+00 -1.739081e+00 -1.716526e+00 -1.675797e+00 -1.644740e+00 -1.601030e+00 -1.572909e+00 -1.535405e+00 -1.515082e+00 -1.483558e+00 -1.465227e+00 -1.433918e+00 -1.410506e+00 -1.375756e+00 -1.346875e+00 -1.314465e+00 -1.287058e+00 -1.261814e+00 -1.234383e+00 -1.213024e+00 -1.183172e+00 -1.164998e+00 -1.129478e+00 -1.107853e+00 -1.062256e+00 -1.039653e+00 -9.952629e-01 -9.823151e-01 -9.462484e-01 -9.404252e-01 -9.080930e-01 -8.992018e-01 -8.634847e-01 -8.430897e-01 -8.044812e-01 -7.749003e-01 -7.425255e-01 -7.098073e-01 -6.911619e-01 -6.571017e-01 -6.502150e-01 -6.068087e-01 -6.037905e-01 -5.508348e-01 -5.562460e-01 -5.009942e-01 -5.094983e-01 -4.451777e-01 -4.453630e-01 -3.773599e-01 -3.743894e-01 -3.180884e-01 -3.137887e-01 -2.754363e-01 -2.619664e-01 -2.404426e-01 -2.047544e-01 -2.011734e-01 -1.307319e-01 -1.828409e-01 -1.549265e-02 0 0 0 0 
0 0 0 0 0 2.741275e+00 3.553856e+00 2.913811e+00 4.952116e+00 3.764176e+00 6.115324e+00 4.674786e+00 7.101613e+00 7.946363e+00 -1.108411e+01 -1.059624e+01 -2.945552e+01 -2.909784e+01 -4.796287e+01 -4.752386e+01 -6.648398e+01 -6.534789e+01 -6.402027e+01 -6.421747e+01 -6.274187e+01 -6.277402e+01 -6.148918e+01 -6.164175e+01 -6.074044e+01 -6.094978e+01 -6.020914e+01 -6.011640e+01 -5.921767e+01 -5.860010e+01 -5.750576e+01 -5.658265e+01 -5.572339e+01 -5.503375e+01 -5.474438e+01 -5.434429e+01 -5.433408e+01 -5.386723e+01 -5.374700e+01 -5.296733e+01 -5.251542e+01 -5.138216e+01 -5.066259e+01 -4.945611e+01 -4.879782e+01 -4.790753e+01 -4.759384e+01 -4.717434e+01 -4.709440e+01 -4.679767e+01 -4.644382e+01 -4.577718e+01 -4.483191e+01 -4.374587e+01 -4.250843e+01 -4.158154e+01 -4.073663e+01 -4.039677e+01 -3.993698e+01 -3.972537e+01 -3.908754e+01 -3.858012e+01 -3.766388e+01 -3.696527e+01 -3.598208e+01 -3.534957e+01 -3.450606e+01 -3.404898e+01 -3.334004e+01 -3.292780e+01 -3.222375e+01 -3.169727e+01 -3.091588e+01 -3.026642e+01 -2.953769e+01 -2.892137e+01 -2.835377e+01 -2.773693e+01 -2.725667e+01 -2.658542e+01 -2.617677e+01 -2.537809e+01 -2.489190e+01 -2.386677e+01 -2.335865e+01 -2.236081e+01 -2.206981e+01 -2.125922e+01 -2.112846e+01 -2.040192e+01 -2.020224e+01 -1.939971e+01 -1.894143e+01 -1.807394e+01 -1.740912e+01 -1.668165e+01 -1.594623e+01 -1.552713e+01 -1.476148e+01 -1.460652e+01 -1.363089e+01 -1.356292e+01 -1.237299e+01 -1.249468e+01 -1.125366e+01 -1.144529e+01 -1.000117e+01 -1.000633e+01 -8.480110e+00 -8.414634e+00 -7.151534e+00 -7.056153e+00 -6.196042e+00 -5.894462e+00 -5.412442e+00 -4.612906e+00 -4.535286e+00 -2.947349e+00 -4.108698e+00 -3.480075e-01 0 0 0 0 
0 0 0 0 0 3.967379e+00 5.136099e+00 4.205954e+00 7.163417e+00 5.447885e+00 8.851582e+00 6.765677e+00 1.027786e+01 6.095475e+00 -1.137096e+01 -2.387256e+01 -3.573126e+01 -4.942410e+01 -6.233336e+01 -7.257094e+01 -9.251556e+01 -9.462741e+01 -9.270439e+01 -9.298994e+01 -9.085245e+01 -9.089886e+01 -8.903776e+01 -8.925866e+01 -8.795319e+01 -8.825638e+01 -8.718369e+01 -8.704939e+01 -8.574775e+01 -8.485331e+01 -8.326839e+01 -8.193139e+01 -8.068694e+01 -7.968810e+01 -7.926900e+01 -7.868950e+01 -7.867470e+01 -7.799853e+01 -7.782438e+01 -7.669516e+01 -7.604065e+01 -7.439937e+01 -7.335725e+01 -7.160997e+01 -7.065662e+01 -6.936728e+01 -6.891301e+01 -6.830549e+01 -6.818973e+01 -6.776001e+01 -6.724757e+01 -6.628216e+01 -6.491321e+01 -6.334044e+01 -6.154839e+01 -6.020612e+01 -5.898254e+01 -5.849037e+01 -5.782451e+01 -5.751807e+01 -5.659440e+01 -5.585960e+01 -5.453278e+01 -5.352112e+01 -5.209737e+01 -5.118145e+01 -4.995999e+01 -4.929812e+01 -4.827155e+01 -4.767462e+01 -4.665515e+01 -4.589278e+01 -4.476134e+01 -4.382091e+01 -4.276571e+01 -4.187326e+01 -4.105140e+01 -4.015821e+01 -3.946280e+01 -3.849081e+01 -3.789909e+01 -3.674261e+01 -3.603861e+01 -3.455428e+01 -3.381855e+01 -3.237376e+01 -3.195242e+01 -3.077880e+01 -3.058949e+01 -2.953759e+01 -2.924851e+01 -2.808660e+01 -2.742310e+01 -2.616713e+01 -2.520456e+01 -2.415130e+01 -2.308648e+01 -2.247968e+01 -2.137107e+01 -2.114666e+01 -1.973405e+01 -1.963561e+01 -1.791279e+01 -1.808901e+01 -1.629235e+01 -1.656994e+01 -1.447940e+01 -1.448713e+01 -1.227789e+01 -1.218342e+01 -1.035518e+01 -1.021740e+01 -8.972534e+00 -8.536176e+00 -7.838708e+00 -6.681726e+00 -6.570068e+00 -4.269721e+00 -5.948727e+00 -5.038241e-01 0 0 0 0 
0 0 0 0 0 1.348364e+00 1.742025e+00 1.424050e+00 2.432804e+00 1.851575e+00 3.008819e+00 2.299388e+00 3.493001e+00 2.070869e+00 -3.866988e+00 -8.117893e+00 -1.215049e+01 -1.680773e+01 -2.119838e+01 -2.468116e+01 -3.146671e+01 -3.218506e+01 -3.153073e+01 -3.162784e+01 -3.090047e+01 -3.091619e+01 -3.028291e+01 -3.035803e+01 -2.991384e+01 -3.001699e+01 -2.965204e+01 -2.960636e+01 -2.916353e+01 -2.885923e+01 -2.832003e+01 -2.786516e+01 -2.744179e+01 -2.710197e+01 -2.695938e+01 -2.676222e+01 -2.675717e+01 -2.652712e+01 -2.646786e+01 -2.608368e+01 -2.586101e+01 -2.530265e+01 -2.494813e+01 -2.435373e+01 -2.402941e+01 -2.359081e+01 -2.343628e+01 -2.322963e+01 -2.319025e+01 -2.304408e+01 -2.286976e+01 -2.254136e+01 -2.207568e+01 -2.154068e+01 -2.093108e+01 -2.047450e+01 -2.005828e+01 -1.989087e+01 -1.966437e+01 -1.956013e+01 -1.924594e+01 -1.899600e+01 -1.854469e+01 -1.820059e+01 -1.771632e+01 -1.740479e+01 -1.698934e+01 -1.676422e+01 -1.641507e+01 -1.621204e+01 -1.586531e+01 -1.560602e+01 -1.522121e+01 -1.490136e+01 -1.454249e+01 -1.423896e+01 -1.395944e+01 -1.365565e+01 -1.341914e+01 -1.308856e+01 -1.288732e+01 -1.249400e+01 -1.225457e+01 -1.174976e+01 -1.149955e+01 -1.100821e+01 -1.086493e+01 -1.046582e+01 -1.040146e+01 -1.004376e+01 -9.945474e+00 -9.550374e+00 -9.324753e+00 -8.897672e+00 -8.570340e+00 -8.212182e+00 -7.850065e+00 -7.643707e+00 -7.266692e+00 -7.190356e+00 -6.709966e+00 -6.676474e+00 -6.090636e+00 -6.150571e+00 -5.539685e+00 -5.634145e+00 -4.923411e+00 -4.926163e+00 -4.175143e+00 -4.143174e+00 -3.521733e+00 -3.475033e+00 -3.051928e+00 -2.903680e+00 -2.666709e+00 -2.273575e+00 -2.235955e+00 -1.453104e+00 -2.022869e+00 -1.713092e-01 0 0 0 0 
0 0 0 0 0 0 0 0 0 0 0 0 0 0 0 0 0 0 0 0 0 0 0 0 0 0 0 0 0 0 0 0 0 0 0 0 0 0 0 0 0 0 0 0 0 0 0 0 0 0 0 0 0 0 0 0 0 0 0 0 0 0 0 0 0 0 0 0 0 0 0 0 0 0 0 0 0 0 0 0 0 0 0 0 0 0 0 0 0 0 0 0 0 0 0 0 0 0 0 0 0 0 0 0 0 0 0 0 0 0 0 0 0 0 0 0 0 0 0 0 0 0 0 0 0 0 0 0 
