# vtk DataFile Version 2.0
Comment goes here
ASCII

DATASET STRUCTURED_POINTS
FIELD FieldData 1
TIME 1 1 double
0.75000000
DIMENSIONS    128   16   1

ORIGIN    0.000   0.000   0.000
SPACING   0.0078125 0.015625   1.000

POINT_DATA   2048
SCALARS fY double
LOOKUP_TABLE default

0 0 0 0 0 0 0 0 0 0 0 0 0 0 0 0 0 0 0 0 0 0 0 0 0 0 0 0 0 0 0 0 0 0 0 0 0 0 0 0 0 0 0 0 0 0 0 0 0 0 0 0 0 0 0 0 0 0 0 0 0 0 0 0 0 0 0 0 0 0 0 0 0 0 0 0 0 0 0 0 0 0 0 0 0 0 0 0 0 0 0 0 0 0 0 0 0 0 0 0 0 0 0 0 0 0 0 0 0 0 0 0 0 0 0 0 0 0 0 0 0 0 0 0 0 0 0 0 
0 0 0 0 0 0 0 0 0 0 0 0 0 0 0 0 0 0 0 0 0 0 0 0 0 0 0 0 0 0 0 0 0 0 0 0 0 0 0 0 0 0 0 0 0 0 0 0 0 0 0 0 0 0 0 0 0 0 0 0 0 0 0 0 0 0 0 0 0 0 0 0 0 0 0 0 0 0 0 0 0 0 0 0 0 0 0 0 0 0 0 0 0 0 0 0 0 0 0 0 0 0 0 0 0 0 0 0 0 0 0 0 0 0 0 0 0 0 0 0 0 0 0 0 0 0 0 0 
0 0 0 0 0 1.145626e+00 2.007093e+00 1.569510e+00 2.715389e+00 2.099972e+00 3.341743e+00 2.606371e+00 3.876221e+00 2.256921e+00 -4.346800e+00 -8.560196e+00 -1.356583e+01 -1.873048e+01 -2.357175e+01 -2.797070e+01 -3.481666e+01 -3.577733e+01 -3.503046e+01 -3.517992e+01 -3.446456e+01 -3.450376e+01 -3.393302e+01 -3.391556e+01 -3.347551e+01 -3.333433e+01 -3.295652e+01 -3.264279e+01 -3.228509e+01 -3.180290e+01 -3.148984e+01 -3.095487e+01 -3.078490e+01 -3.031926e+01 -3.028708e+01 -2.986088e+01 -2.981458e+01 -2.932747e+01 -2.915061e+01 -2.861922e+01 -2.834016e+01 -2.786501e+01 -2.754039e+01 -2.720038e+01 -2.688222e+01 -2.671281e+01 -2.637379e+01 -2.627033e+01 -2.580428e+01 -2.567710e+01 -2.511055e+01 -2.500558e+01 -2.436562e+01 -2.475220e+01 -2.481943e+01 -2.482526e+01 -2.508086e+01 -2.639295e+01 -2.669999e+01 -2.698660e+01 -2.783651e+01 -2.556778e+01 -2.277916e+01 -2.271909e+01 -2.377784e+01 -2.415823e+01 -2.316525e+01 -2.035546e+01 -1.917777e+01 -1.843025e+01 -1.812401e+01 -1.756769e+01 -1.721149e+01 -1.682466e+01 -1.648164e+01 -1.625256e+01 -1.588351e+01 -1.570558e+01 -1.527624e+01 -1.506873e+01 -1.458804e+01 -1.430362e+01 -1.381299e+01 -1.345137e+01 -1.302945e+01 -1.265250e+01 -1.239194e+01 -1.203547e+01 -1.189177e+01 -1.146518e+01 -1.131986e+01 -1.080095e+01 -1.063225e+01 -1.007222e+01 -9.859469e+00 -9.317317e+00 -9.078967e+00 -8.649461e+00 -8.384052e+00 -8.072696e+00 -7.709965e+00 -7.493819e+00 -7.007266e+00 -6.890726e+00 -6.287748e+00 -6.256099e+00 -5.537243e+00 -5.540689e+00 -4.737120e+00 -4.775427e+00 -4.004821e+00 -4.073537e+00 -3.392182e+00 -3.379218e+00 -2.822825e+00 -2.620921e+00 -2.282415e+00 -1.698827e+00 -1.984208e+00 1.914463e-01 0 0 0 0 
0 0 0 0 0 3.368549e+00 5.896072e+00 4.606641e+00 7.982155e+00 6.174472e+00 9.825529e+00 7.661088e+00 1.139396e+01 6.630620e+00 -1.278970e+01 -2.518338e+01 -3.990892e+01 -5.510566e+01 -6.935114e+01 -8.229810e+01 -1.024484e+02 -1.052754e+02 -1.030767e+02 -1.035166e+02 -1.014107e+02 -1.015260e+02 -9.984602e+01 -9.979465e+01 -9.849938e+01 -9.808385e+01 -9.697180e+01 -9.604832e+01 -9.499544e+01 -9.357605e+01 -9.265455e+01 -9.107982e+01 -9.057950e+01 -8.920890e+01 -8.911416e+01 -8.785970e+01 -8.772343e+01 -8.628977e+01 -8.576929e+01 -8.420535e+01 -8.338403e+01 -8.198565e+01 -8.103025e+01 -8.002956e+01 -7.909314e+01 -7.859450e+01 -7.759665e+01 -7.729212e+01 -7.592041e+01 -7.554606e+01 -7.387866e+01 -7.356969e+01 -7.200551e+01 -7.290058e+01 -7.287675e+01 -7.270361e+01 -7.192749e+01 -7.289869e+01 -7.203932e+01 -7.084320e+01 -7.065779e+01 -6.737741e+01 -6.494656e+01 -6.398092e+01 -6.405824e+01 -6.306670e+01 -6.190323e+01 -5.839680e+01 -5.631566e+01 -5.422004e+01 -5.331893e+01 -5.168198e+01 -5.063389e+01 -4.949568e+01 -4.848634e+01 -4.781229e+01 -4.672639e+01 -4.620284e+01 -4.493953e+01 -4.432896e+01 -4.291464e+01 -4.207779e+01 -4.063426e+01 -3.957028e+01 -3.832894e+01 -3.721989e+01 -3.645328e+01 -3.540450e+01 -3.498173e+01 -3.372668e+01 -3.329916e+01 -3.177256e+01 -3.127632e+01 -2.962883e+01 -2.900301e+01 -2.740818e+01 -2.670704e+01 -2.544360e+01 -2.466281e+01 -2.374689e+01 -2.267973e+01 -2.204382e+01 -2.061234e+01 -2.026940e+01 -1.849546e+01 -1.840229e+01 -1.628762e+01 -1.629782e+01 -1.393423e+01 -1.404719e+01 -1.178090e+01 -1.198360e+01 -9.980276e+00 -9.943416e+00 -8.309416e+00 -7.721674e+00 -6.742236e+00 -5.025371e+00 -5.844696e+00 5.630421e-01 0 0 0 0 
0 0 0 0 0 2.326396e+00 4.069296e+00 3.177438e+00 5.511660e+00 4.264136e+00 6.785546e+00 5.289673e+00 7.867228e+00 9.294900e+00 -1.236362e+01 -1.172953e+01 -3.291487e+01 -3.217592e+01 -5.370558e+01 -5.247412e+01 -7.448379e+01 -7.274309e+01 -7.122333e+01 -7.152733e+01 -7.007171e+01 -7.015141e+01 -6.899025e+01 -6.895477e+01 -6.805957e+01 -6.777240e+01 -6.700383e+01 -6.636557e+01 -6.563789e+01 -6.465686e+01 -6.401997e+01 -6.293159e+01 -6.258578e+01 -6.163850e+01 -6.157302e+01 -6.070604e+01 -6.061188e+01 -5.962108e+01 -5.926140e+01 -5.818061e+01 -5.761301e+01 -5.664664e+01 -5.598637e+01 -5.529483e+01 -5.464766e+01 -5.430305e+01 -5.361342e+01 -5.340294e+01 -5.245495e+01 -5.219623e+01 -5.104393e+01 -5.083041e+01 -4.972737e+01 -4.813650e+01 -4.538912e+01 -4.526466e+01 -4.385406e+01 -4.135616e+01 -3.979453e+01 -3.833287e+01 -3.499729e+01 -3.588220e+01 -3.870686e+01 -3.691568e+01 -3.542745e+01 -3.350390e+01 -3.441537e+01 -3.676865e+01 -3.845494e+01 -3.745941e+01 -3.683676e+01 -3.570569e+01 -3.498149e+01 -3.419504e+01 -3.349762e+01 -3.303188e+01 -3.228155e+01 -3.191979e+01 -3.104690e+01 -3.062502e+01 -2.964781e+01 -2.906959e+01 -2.807221e+01 -2.733708e+01 -2.647942e+01 -2.571315e+01 -2.518348e+01 -2.445886e+01 -2.416677e+01 -2.329966e+01 -2.300430e+01 -2.194960e+01 -2.160678e+01 -2.046860e+01 -2.003627e+01 -1.893449e+01 -1.845013e+01 -1.757730e+01 -1.703789e+01 -1.640512e+01 -1.566783e+01 -1.522847e+01 -1.423946e+01 -1.400249e+01 -1.277690e+01 -1.271249e+01 -1.125158e+01 -1.125866e+01 -9.625916e+00 -9.704091e+00 -8.138719e+00 -8.279028e+00 -6.895538e+00 -6.870692e+00 -5.743180e+00 -5.340147e+00 -4.671427e+00 -3.485283e+00 -4.041529e+00 3.889087e-01 0 0 0 0 
0 0 0 0 0 1.034731e-01 1.803169e-01 1.403065e-01 2.448937e-01 1.896359e-01 3.017592e-01 2.349568e-01 3.494859e-01 3.684112e+00 -4.184271e+00 4.572218e+00 -6.706846e+00 4.266028e+00 -7.767835e+00 2.123638e+00 -5.838471e+00 -3.244981e+00 -3.177058e+00 -3.190631e+00 -3.125582e+00 -3.129137e+00 -3.077261e+00 -3.075681e+00 -3.035697e+00 -3.022874e+00 -2.988548e+00 -2.960036e+00 -2.927533e+00 -2.883706e+00 -2.855255e+00 -2.806634e+00 -2.791184e+00 -2.748871e+00 -2.745944e+00 -2.707225e+00 -2.703023e+00 -2.658784e+00 -2.642728e+00 -2.594477e+00 -2.569137e+00 -2.525997e+00 -2.496517e+00 -2.465645e+00 -2.436746e+00 -2.421358e+00 -2.390560e+00 -2.381156e+00 -2.338826e+00 -2.327270e+00 -2.275826e+00 -2.266294e+00 -2.019019e+00 4.580779e-01 3.448607e+00 3.290963e+00 3.516113e+00 5.835787e+00 6.228263e+00 5.798464e+00 8.137671e+00 5.890284e+00 3.449698e+00 4.464908e+00 4.642550e+00 5.043382e+00 4.164952e+00 1.557504e+00 -1.218008e+00 -1.669627e+00 -1.641851e+00 -1.591402e+00 -1.559099e+00 -1.524023e+00 -1.492914e+00 -1.472140e+00 -1.438671e+00 -1.422535e+00 -1.383602e+00 -1.364787e+00 -1.321207e+00 -1.295422e+00 -1.250948e+00 -1.218168e+00 -1.179928e+00 -1.145761e+00 -1.122146e+00 -1.089838e+00 -1.076816e+00 -1.038160e+00 -1.024996e+00 -9.779859e-01 -9.627112e-01 -9.119892e-01 -8.927280e-01 -8.436362e-01 -8.220553e-01 -7.831673e-01 -7.591276e-01 -7.309311e-01 -6.980634e-01 -6.784772e-01 -6.343851e-01 -6.238115e-01 -5.691807e-01 -5.663015e-01 -5.012036e-01 -5.015271e-01 -4.288059e-01 -4.323236e-01 -3.626446e-01 -3.689658e-01 -3.074438e-01 -3.064937e-01 -2.565898e-01 -2.393937e-01 -2.116069e-01 -1.587385e-01 -1.810415e-01 1.731283e-02 0 0 0 0 
0 0 0 0 0 0 0 0 0 0 0 0 0 2.139827e+00 -6.154619e-01 2.117210e+00 -1.598124e+00 1.769371e+00 -2.020996e+00 8.018970e-01 -2.041755e+00 0 0 0 0 0 0 0 0 0 0 0 0 0 0 0 0 0 0 0 0 0 0 0 0 0 0 0 0 0 0 0 0 0 0 0 6.845041e-02 4.461995e-01 7.804026e-01 6.772706e-01 5.235403e-01 6.862023e-01 6.834633e-01 2.747396e-01 3.136738e-01 -3.714060e-02 -1.085011e-02 1.187519e-01 -2.104041e-01 -3.611910e-01 -1.576613e-01 2.848257e-01 9.904320e-02 0 0 0 0 0 0 0 0 0 0 0 0 0 0 0 0 0 0 0 0 0 0 0 0 0 0 0 0 0 0 0 0 0 0 0 0 0 0 0 0 0 0 0 0 0 0 0 0 0 0 0 0 0 0 0 
0 0 0 0 0 0 0 0 0 0 0 0 0 1.039978e+00 -6.097640e-01 1.329848e+00 -1.192363e+00 1.296181e+00 -1.297504e+00 7.378160e-01 -1.003008e+00 0 0 0 0 0 0 0 0 0 0 0 0 0 0 0 0 0 0 0 0 0 0 0 0 0 0 0 0 0 0 0 0 0 0 0 0 0 0 0 0 0 0 0 0 0 0 0 0 0 0 0 0 0 0 0 0 0 0 0 0 0 0 0 0 0 0 0 0 0 0 0 0 0 0 0 0 0 0 0 0 0 0 0 0 0 0 0 0 0 0 0 0 0 0 0 0 0 0 0 0 0 0 0 0 0 0 0 
0 0 0 0 0 0 0 0 0 0 0 0 0 -3.425801e-03 -6.409788e-04 7.174573e-04 -4.653215e-04 4.766240e-03 1.464151e-03 6.370932e-03 5.762749e-03 0 0 0 0 0 0 0 0 0 0 0 0 0 0 0 0 0 0 0 0 0 0 0 0 0 0 0 0 0 0 0 0 0 0 0 0 0 0 0 0 0 0 0 0 0 0 0 0 0 0 0 0 0 0 0 0 0 0 0 0 0 0 0 0 0 0 0 0 0 0 0 0 0 0 0 0 0 0 0 0 0 0 0 0 0 0 0 0 0 0 0 0 0 0 0 0 0 0 0 0 0 0 0 0 0 0 0 
0 0 0 0 0 0 0 0 0 0 0 0 0 -1.047171e+00 6.066910e-01 -1.322877e+00 1.183567e+00 -1.272405e+00 1.290764e+00 -7.095365e-01 1.015985e+00 0 0 0 0 0 0 0 0 0 0 0 0 0 0 0 0 0 0 0 0 0 0 0 0 0 0 0 0 0 0 0 0 0 0 0 0 0 0 0 0 0 0 0 0 0 0 0 0 0 0 0 0 0 0 0 0 0 0 0 0 0 0 0 0 0 0 0 0 0 0 0 0 0 0 0 0 0 0 0 0 0 0 0 0 0 0 0 0 0 0 0 0 0 0 0 0 0 0 0 0 0 0 0 0 0 0 0 
0 0 0 0 0 0 0 0 0 0 0 0 0 -2.149966e+00 6.122383e-01 -2.114540e+00 1.590179e+00 -1.750060e+00 2.015385e+00 -7.728916e-01 2.054123e+00 0 0 0 0 0 0 0 0 0 0 0 0 0 0 0 0 0 0 0 0 0 0 0 0 0 0 0 0 0 0 0 0 0 0 0 0 0 0 0 0 0 0 0 0 0 0 0 0 0 0 0 0 0 0 0 0 0 0 0 0 0 0 0 0 0 0 0 0 0 0 0 0 0 0 0 0 0 0 0 0 0 0 0 0 0 0 0 0 0 0 0 0 0 0 0 0 0 0 0 0 0 0 0 0 0 0 0 
0 0 0 0 0 -1.031664e-01 -1.802917e-01 -1.399766e-01 -2.456800e-01 -1.910768e-01 -3.035235e-01 -2.359277e-01 -3.496967e-01 -3.682242e+00 4.195072e+00 -4.574644e+00 6.668071e+00 -4.196502e+00 7.691609e+00 -2.005187e+00 5.859927e+00 3.238523e+00 3.172845e+00 3.190691e+00 3.131058e+00 3.136955e+00 3.082711e+00 3.077997e+00 3.030564e+00 3.015709e+00 2.972728e+00 2.947025e+00 2.910024e+00 2.880700e+00 2.855316e+00 2.827040e+00 2.809733e+00 2.777138e+00 2.757546e+00 2.714912e+00 2.688916e+00 2.640494e+00 2.613549e+00 2.568665e+00 2.547361e+00 2.512525e+00 2.497529e+00 2.468119e+00 2.447949e+00 2.412178e+00 2.380340e+00 2.340111e+00 2.304457e+00 2.267885e+00 2.234895e+00 2.205116e+00 2.176320e+00 2.150869e+00 2.121238e+00 2.092567e+00 2.056564e+00 2.022050e+00 1.982288e+00 1.948943e+00 1.914255e+00 1.888355e+00 1.859494e+00 1.835212e+00 1.803899e+00 1.775519e+00 1.738523e+00 1.705835e+00 1.664252e+00 1.633293e+00 1.596653e+00 1.577523e+00 1.549618e+00 1.536250e+00 1.505461e+00 1.484249e+00 1.443071e+00 1.410757e+00 1.365094e+00 1.330421e+00 1.293953e+00 1.265996e+00 1.244701e+00 1.220627e+00 1.206807e+00 1.173074e+00 1.152875e+00 1.101565e+00 1.076732e+00 1.020965e+00 1.004436e+00 9.549522e-01 9.458911e-01 9.013864e-01 8.922252e-01 8.497680e-01 8.320326e-01 7.900472e-01 7.612104e-01 7.261122e-01 6.896180e-01 6.664119e-01 6.218271e-01 6.099927e-01 5.560619e-01 5.543083e-01 4.933741e-01 5.011956e-01 4.361159e-01 4.460816e-01 3.750524e-01 3.786945e-01 3.098834e-01 3.074650e-01 2.530045e-01 2.366786e-01 2.057939e-01 1.562602e-01 1.790951e-01 -1.856776e-02 0 0 0 0 
0 0 0 0 0 -2.319489e+00 -4.068557e+00 -3.169785e+00 -5.529236e+00 -4.296537e+00 -6.825282e+00 -5.311633e+00 -7.872130e+00 -9.304937e+00 1.235442e+01 1.170384e+01 3.289855e+01 3.215634e+01 5.367571e+01 5.244935e+01 7.442166e+01 7.259803e+01 7.112852e+01 7.152827e+01 7.019403e+01 7.032629e+01 6.911228e+01 6.900676e+01 6.794488e+01 6.761223e+01 6.664987e+01 6.607443e+01 6.524592e+01 6.458947e+01 6.402110e+01 6.338813e+01 6.300069e+01 6.227105e+01 6.183245e+01 6.087796e+01 6.029592e+01 5.921170e+01 5.860835e+01 5.760322e+01 5.712611e+01 5.634589e+01 5.601002e+01 5.535129e+01 5.489950e+01 5.409820e+01 5.338506e+01 5.248384e+01 5.168518e+01 5.086585e+01 5.012682e+01 4.945962e+01 4.881452e+01 4.824429e+01 4.758043e+01 4.693801e+01 4.613134e+01 4.535796e+01 4.446700e+01 4.371974e+01 4.294242e+01 4.236198e+01 4.171519e+01 4.117098e+01 4.046919e+01 3.983308e+01 3.900388e+01 3.827117e+01 3.733906e+01 3.664505e+01 3.582367e+01 3.539478e+01 3.476916e+01 3.446943e+01 3.377908e+01 3.330346e+01 3.238010e+01 3.165553e+01 3.063150e+01 2.985402e+01 2.903616e+01 2.840926e+01 2.793168e+01 2.739186e+01 2.708197e+01 2.632555e+01 2.587257e+01 2.472183e+01 2.416485e+01 2.291390e+01 2.254306e+01 2.143282e+01 2.122934e+01 2.023057e+01 2.002475e+01 1.907179e+01 1.867364e+01 1.773125e+01 1.708420e+01 1.629651e+01 1.547785e+01 1.495726e+01 1.395722e+01 1.369200e+01 1.248220e+01 1.244316e+01 1.107582e+01 1.125132e+01 9.790264e+00 1.001327e+01 8.417731e+00 8.497973e+00 6.950857e+00 6.892988e+00 5.662954e+00 5.278818e+00 4.538436e+00 3.426439e+00 3.996672e+00 -4.171100e-01 0 0 0 0 
0 0 0 0 0 -3.358546e+00 -5.894959e+00 -4.595501e+00 -8.007579e+00 -6.221388e+00 -9.883084e+00 -7.692918e+00 -1.140110e+01 -6.632864e+00 1.276572e+01 2.515457e+01 3.994584e+01 5.499395e+01 6.940936e+01 8.205698e+01 1.022957e+02 1.050654e+02 1.029394e+02 1.035179e+02 1.015876e+02 1.017790e+02 1.000226e+02 9.986990e+01 9.833350e+01 9.785218e+01 9.645972e+01 9.562711e+01 9.442831e+01 9.347851e+01 9.265613e+01 9.174032e+01 9.117974e+01 9.012404e+01 8.948945e+01 8.810840e+01 8.726624e+01 8.569745e+01 8.482444e+01 8.337006e+01 8.267970e+01 8.155073e+01 8.106472e+01 8.011152e+01 7.945777e+01 7.829827e+01 7.726635e+01 7.596224e+01 7.480654e+01 7.362092e+01 7.255152e+01 7.158602e+01 7.065251e+01 6.982734e+01 6.886670e+01 6.793704e+01 6.676971e+01 6.565054e+01 6.436122e+01 6.327984e+01 6.215496e+01 6.131497e+01 6.037897e+01 5.959141e+01 5.857580e+01 5.765524e+01 5.645523e+01 5.539484e+01 5.404589e+01 5.304152e+01 5.185278e+01 5.123208e+01 5.032664e+01 4.989285e+01 4.889373e+01 4.820537e+01 4.686900e+01 4.582033e+01 4.433824e+01 4.321300e+01 4.202928e+01 4.112196e+01 4.043075e+01 3.964947e+01 3.920097e+01 3.810620e+01 3.745060e+01 3.578509e+01 3.497893e+01 3.316834e+01 3.263157e+01 3.102455e+01 3.072999e+01 2.928426e+01 2.898628e+01 2.760682e+01 2.703047e+01 2.566633e+01 2.472973e+01 2.358954e+01 2.240462e+01 2.165111e+01 2.020369e+01 1.981987e+01 1.806881e+01 1.801238e+01 1.603320e+01 1.628722e+01 1.417220e+01 1.449483e+01 1.218491e+01 1.230068e+01 1.006050e+01 9.975817e+00 8.193349e+00 7.632801e+00 6.549085e+00 4.939375e+00 5.779467e+00 -6.038733e-01 0 0 0 0 
0 0 0 0 0 -1.142223e+00 -2.006694e+00 -1.565692e+00 -2.724023e+00 -2.115928e+00 -3.361325e+00 -2.617212e+00 -3.878668e+00 -2.257704e+00 4.338638e+00 8.550392e+00 1.357839e+01 1.869254e+01 2.359156e+01 2.788881e+01 3.476477e+01 3.570593e+01 3.498376e+01 3.518031e+01 3.452462e+01 3.458968e+01 3.399301e+01 3.394115e+01 3.341918e+01 3.325565e+01 3.278257e+01 3.249970e+01 3.209242e+01 3.176974e+01 3.149035e+01 3.117922e+01 3.098878e+01 3.063013e+01 3.041454e+01 2.994535e+01 2.965924e+01 2.912625e+01 2.882964e+01 2.833551e+01 2.810095e+01 2.771736e+01 2.755223e+01 2.722836e+01 2.700623e+01 2.661225e+01 2.626163e+01 2.581851e+01 2.542582e+01 2.502296e+01 2.465959e+01 2.433152e+01 2.401432e+01 2.373392e+01 2.340750e+01 2.309160e+01 2.269494e+01 2.231463e+01 2.187651e+01 2.150904e+01 2.112679e+01 2.084135e+01 2.052327e+01 2.025564e+01 1.991051e+01 1.959767e+01 1.918987e+01 1.882951e+01 1.837109e+01 1.802976e+01 1.762576e+01 1.741482e+01 1.710710e+01 1.695967e+01 1.662011e+01 1.638616e+01 1.593197e+01 1.557556e+01 1.507183e+01 1.468940e+01 1.428707e+01 1.397870e+01 1.374377e+01 1.347824e+01 1.332581e+01 1.295373e+01 1.273090e+01 1.216483e+01 1.189082e+01 1.127540e+01 1.109294e+01 1.054669e+01 1.044654e+01 9.955077e+00 9.853754e+00 9.384806e+00 9.188863e+00 8.725121e+00 8.406748e+00 8.019150e+00 7.616390e+00 7.360268e+00 6.868300e+00 6.737867e+00 6.142678e+00 6.123532e+00 5.450748e+00 5.537099e+00 4.818053e+00 4.927647e+00 4.142229e+00 4.181401e+00 3.419522e+00 3.390294e+00 2.783399e+00 2.590661e+00 2.216443e+00 1.669196e+00 1.961890e+00 -2.053311e-01 0 0 0 0 
0 0 0 0 0 0 0 0 0 0 0 0 0 0 0 0 0 0 0 0 0 0 0 0 0 0 0 0 0 0 0 0 0 0 0 0 0 0 0 0 0 0 0 0 0 0 0 0 0 0 0 0 0 0 0 0 0 0 0 0 0 0 0 0 0 0 0 0 0 0 0 0 0 0 0 0 0 0 0 0 0 0 0 0 0 0 0 0 0 0 0 0 0 0 0 0 0 0 0 0 0 0 0 0 0 0 0 0 0 0 0 0 0 0 0 0 0 0 0 0 0 0 0 0 0 0 0 0 
