# vtk DataFile Version 2.0
Comment goes here
ASCII

DATASET STRUCTURED_POINTS
FIELD FieldData 1
TIME 1 1 double
0.44000000
DIMENSIONS    128   16   1

ORIGIN    0.000   0.000   0.000
SPACING   0.0078125 0.015625   1.000

POINT_DATA   2048
SCALARS Omega double
LOOKUP_TABLE default

7.921367e-05 2.357692e-05 -1.240673e-05 -3.437536e-05 -1.386420e-04 -3.061856e-04 1.511740e-04 3.799195e-04 1.001776e-05 1.561762e-04 4.550429e-05 1.776898e-04 -1.953391e-04 6.836581e-05 -3.948655e-04 -2.572728e-05 -3.248297e-04 -4.438711e-04 -1.598561e-04 -6.760824e-04 1.912786e-04 5.844497e-04 4.268637e-05 -1.140194e-04 8.765329e-06 -2.834688e-05 2.906307e-05 -3.041743e-05 5.280852e-05 -4.303821e-05 8.444805e-05 -8.238959e-05 1.055158e-04 -1.562567e-04 1.144289e-04 -2.483682e-04 1.380547e-04 -3.159436e-04 2.150115e-04 -3.068688e-04 3.951712e-04 -1.438868e-04 7.574029e-04 2.654186e-04 1.357010e-03 8.875079e-04 1.941131e-03 1.083461e-03 1.305369e-03 -9.722866e-04 -2.822060e-03 -7.575799e-03 -1.234304e-02 -1.795640e-02 -1.245658e-02 9.290762e-03 -1.378479e-02 -4.367836e-02 -2.246730e-02 -4.529970e-02 -6.440115e-02 -4.836043e-02 -3.728250e-02 -3.396605e-02 5.284404e-03 1.488155e-01 9.025639e-02 -8.010049e-03 2.915728e-02 1.738741e-02 1.078259e-01 1.014603e-01 2.928874e-02 5.216175e-02 3.519791e-02 2.306497e-02 1.686081e-02 1.356603e-02 8.023376e-03 4.469710e-03 1.030865e-03 -1.698375e-04 -1.174424e-03 -1.014340e-03 -1.005348e-03 -6.277206e-04 -4.280956e-04 -2.351663e-04 -4.905453e-05 -5.139940e-05 1.308726e-04 -5.878804e-07 2.059294e-04 -5.673103e-06 2.310525e-04 -3.252453e-05 2.268342e-04 -6.618052e-05 2.075224e-04 -9.351748e-05 1.853271e-04 -1.085774e-04 1.626815e-04 -1.158708e-04 1.343355e-04 -1.184405e-04 1.024918e-04 -1.098770e-04 7.311256e-05 -8.580285e-05 4.866104e-05 -4.738526e-05 2.899179e-05 -1.195592e-06 6.963321e-06 3.898518e-05 -2.939753e-05 5.371519e-05 -9.981047e-05 1.010507e-05 -2.123959e-04 4.319603e-05 -2.479319e-04 -9.362475e-05 9.311951e-05 1.904333e-04 1.880265e-04 1.376752e-04 
-6.383341e-03 -3.581987e-03 -7.953202e-03 -5.080188e-02 -2.082336e-02 9.816350e-01 6.513268e-01 1.023086e-01 4.370827e-01 2.666634e-01 3.811001e-01 4.935134e-02 -3.698577e-01 -1.218619e+00 -1.701228e+00 -1.701187e+00 -1.475922e+00 -1.667351e+00 -1.470767e+00 -1.574414e+00 -1.335940e+00 -2.785179e-01 1.199529e-01 3.518741e-01 3.330429e-01 3.674185e-01 3.301493e-01 3.640648e-01 3.330245e-01 3.613288e-01 3.356654e-01 3.573324e-01 3.385601e-01 3.529351e-01 3.416164e-01 3.479966e-01 3.442798e-01 3.431038e-01 3.466715e-01 3.389766e-01 3.484365e-01 3.355677e-01 3.489826e-01 3.326586e-01 3.483540e-01 3.303794e-01 3.465190e-01 3.278558e-01 3.422468e-01 3.239144e-01 3.344259e-01 3.177435e-01 3.225633e-01 3.284480e-01 3.913825e-01 3.383397e-01 -1.151402e+00 -1.707947e+00 -4.837670e-01 -1.043896e+00 -1.393324e+00 -1.145318e+00 -1.348820e+00 -1.113501e+00 -1.268862e+00 6.939443e-01 -1.263026e-01 -1.566978e+00 -5.069491e-01 -1.588739e+00 3.845712e-01 2.315968e-01 -1.335121e+00 2.467426e-02 3.301004e-01 3.602405e-01 3.107814e-01 3.491616e-01 3.219087e-01 3.490344e-01 3.272399e-01 3.459910e-01 3.322494e-01 3.444527e-01 3.374584e-01 3.435107e-01 3.415432e-01 3.425044e-01 3.445523e-01 3.419209e-01 3.468174e-01 3.416906e-01 3.480678e-01 3.417955e-01 3.483347e-01 3.425399e-01 3.476217e-01 3.440864e-01 3.457643e-01 3.463241e-01 3.428184e-01 3.493821e-01 3.393551e-01 3.531065e-01 3.355614e-01 3.568663e-01 3.317623e-01 3.602478e-01 3.286860e-01 3.629857e-01 3.271056e-01 3.644372e-01 3.274359e-01 3.640947e-01 3.307496e-01 3.627392e-01 3.386440e-01 3.626558e-01 3.527964e-01 3.710668e-01 3.855475e-01 5.097543e-01 7.730709e-01 1.939682e-01 -2.756835e-02 -1.288587e-02 -8.619258e-03 -7.913673e-03 
-2.265062e-03 1.338175e-02 -1.959831e-02 -3.823771e-01 -9.945016e-01 2.055279e+00 1.375128e+00 -3.115541e-01 7.970067e-01 2.801664e-01 6.394978e-01 1.178150e-01 4.907401e-01 3.567369e-01 1.032437e+00 8.106583e-01 8.715444e-01 7.760544e-01 8.716184e-01 8.593643e-01 4.399014e-01 5.694493e-01 2.287139e-01 4.718798e-01 4.633374e-01 5.250525e-01 4.572236e-01 5.167454e-01 4.464411e-01 5.074873e-01 4.394500e-01 4.986124e-01 4.435685e-01 4.960019e-01 4.569359e-01 4.909222e-01 4.690223e-01 4.797499e-01 4.754542e-01 4.608926e-01 4.731827e-01 4.420762e-01 4.743339e-01 4.384072e-01 4.860313e-01 4.502591e-01 5.020811e-01 4.660570e-01 5.075842e-01 4.742407e-01 5.058535e-01 4.950517e-01 5.308595e-01 5.852332e-01 6.822483e-01 5.137305e-01 -1.906986e+00 -2.537548e+00 1.868291e-01 -2.063669e-01 -3.258431e-01 1.628860e-01 -3.020048e-01 4.095539e-01 -8.915435e-01 2.889905e-01 -9.941640e-02 -7.330838e-01 1.120499e+00 -1.038421e+00 8.029997e-01 3.010306e-01 -1.976798e+00 8.596543e-02 4.728107e-01 5.746992e-01 4.174167e-01 5.232251e-01 4.292205e-01 5.122560e-01 4.451302e-01 4.930328e-01 4.509786e-01 4.675509e-01 4.542502e-01 4.477489e-01 4.636874e-01 4.379681e-01 4.791672e-01 4.350588e-01 4.920941e-01 4.287704e-01 4.950556e-01 4.224372e-01 4.947230e-01 4.219918e-01 4.882970e-01 4.252477e-01 4.762987e-01 4.383498e-01 4.623463e-01 4.580633e-01 4.421224e-01 4.816123e-01 4.212308e-01 5.097070e-01 3.998852e-01 5.314984e-01 3.735260e-01 5.413285e-01 3.514965e-01 5.467131e-01 3.490758e-01 5.501006e-01 3.655812e-01 5.378345e-01 3.926364e-01 5.081312e-01 4.394885e-01 4.835276e-01 5.233893e-01 6.573967e-01 1.651837e+00 -5.449463e-01 -9.026779e-01 -3.607585e-02 2.926646e-02 1.365309e-03 
9.991957e-03 3.721002e-02 -2.575848e-02 -8.904625e-01 -3.219652e+00 -1.225493e+00 -2.231880e-02 -1.279610e+00 -6.052362e-01 -8.909385e-01 -6.200446e-01 -4.767115e-01 -4.062194e-01 -2.033712e-01 -4.716393e-01 -2.588987e-01 -3.736904e-01 -2.307127e-01 -3.829769e-01 -3.958561e-01 -1.965928e-01 -6.080183e-01 -4.671860e-01 -7.607122e-01 -7.186332e-01 -8.397849e-01 -7.989386e-01 -8.679979e-01 -8.628665e-01 -8.840929e-01 -9.073709e-01 -8.865471e-01 -9.181696e-01 -8.661940e-01 -9.015585e-01 -8.486141e-01 -8.850004e-01 -8.489767e-01 -8.823990e-01 -8.771551e-01 -9.002149e-01 -9.096930e-01 -8.982481e-01 -8.997902e-01 -8.557727e-01 -8.473179e-01 -7.922895e-01 -7.827468e-01 -7.478443e-01 -7.385304e-01 -7.128727e-01 -6.592002e-01 -5.977096e-01 -4.818920e-01 -3.677714e-01 -2.199753e-02 1.464438e+00 1.976982e+00 7.736250e-01 1.052430e+00 1.276104e+00 8.639542e-01 1.179375e+00 6.333587e-01 1.218965e+00 3.518455e-02 3.362592e-01 1.118107e+00 -1.340978e-01 1.220759e+00 -3.461472e-01 7.007082e-02 1.095115e+00 -9.829039e-03 -5.284462e-01 -5.835749e-01 -7.423579e-01 -7.184257e-01 -8.098574e-01 -7.795346e-01 -8.309860e-01 -8.368069e-01 -8.626123e-01 -9.067743e-01 -8.918396e-01 -9.578963e-01 -8.919422e-01 -9.785305e-01 -8.667269e-01 -9.829423e-01 -8.441721e-01 -1.000407e+00 -8.436196e-01 -1.020480e+00 -8.456618e-01 -1.027886e+00 -8.588654e-01 -1.030195e+00 -8.806374e-01 -1.008265e+00 -9.008738e-01 -9.724191e-01 -9.366591e-01 -9.294209e-01 -9.727527e-01 -8.721447e-01 -1.010676e+00 -8.292395e-01 -1.068876e+00 -8.153232e-01 -1.125073e+00 -8.035411e-01 -1.136472e+00 -7.825074e-01 -1.111237e+00 -7.965425e-01 -1.083111e+00 -8.653975e-01 -1.040786e+00 -9.833865e-01 -9.895483e-01 -1.142821e+00 -1.879668e-01 -3.158858e+00 -2.587158e+00 -4.972874e-02 1.269273e-01 3.226235e-02 
1.504523e-03 3.549289e-02 7.524700e-02 -3.700466e-01 -2.514373e+00 -4.583361e+00 -2.061678e+00 -1.211897e+00 -1.900986e+00 -1.528527e+00 -1.808392e+00 -1.528074e+00 -1.766801e+00 -1.560139e+00 -1.722830e+00 -1.606560e+00 -1.718419e+00 -1.649881e+00 -1.667736e+00 -1.674142e+00 -1.678975e+00 -1.654468e+00 -1.471825e+00 -1.705531e+00 -1.538213e+00 -1.759292e+00 -1.631121e+00 -1.792429e+00 -1.698342e+00 -1.802736e+00 -1.744381e+00 -1.796093e+00 -1.764832e+00 -1.770925e+00 -1.764950e+00 -1.745321e+00 -1.762488e+00 -1.732134e+00 -1.767848e+00 -1.740631e+00 -1.784546e+00 -1.754165e+00 -1.782936e+00 -1.739163e+00 -1.748994e+00 -1.695754e+00 -1.696863e+00 -1.643115e+00 -1.652430e+00 -1.602486e+00 -1.608135e+00 -1.535259e+00 -1.495461e+00 -1.383303e+00 -1.237146e+00 -1.112207e+00 -9.528588e-01 -7.246848e-01 -9.708707e-01 -9.958279e-01 -1.017445e+00 -1.298192e+00 -8.988964e-01 -1.523246e+00 -1.126206e+00 -7.227406e-01 -1.188050e+00 -1.084046e+00 -1.667794e+00 -9.733545e-01 -1.068221e+00 -9.005326e-01 -1.115505e+00 -1.376022e+00 -1.372930e+00 -1.578446e+00 -1.566678e+00 -1.672226e+00 -1.639781e+00 -1.712623e+00 -1.678767e+00 -1.748805e+00 -1.720732e+00 -1.792983e+00 -1.756993e+00 -1.823926e+00 -1.768315e+00 -1.834065e+00 -1.758880e+00 -1.835498e+00 -1.749244e+00 -1.847824e+00 -1.751525e+00 -1.863207e+00 -1.752438e+00 -1.871934e+00 -1.758236e+00 -1.879577e+00 -1.766699e+00 -1.872163e+00 -1.771196e+00 -1.857143e+00 -1.785727e+00 -1.838495e+00 -1.800329e+00 -1.808932e+00 -1.817009e+00 -1.786874e+00 -1.850749e+00 -1.781659e+00 -1.888310e+00 -1.772756e+00 -1.900772e+00 -1.750497e+00 -1.895759e+00 -1.746372e+00 -1.897593e+00 -1.774824e+00 -1.893759e+00 -1.832352e+00 -1.845243e+00 -2.071283e+00 -2.556601e+00 -3.425895e+00 -2.098079e+00 -1.027969e-01 8.200866e-02 1.444343e-02 
-1.731970e-02 -2.531772e-03 4.275170e-02 8.237120e-02 -3.062812e-01 -2.273469e+00 -1.360276e+00 -4.497841e-01 -1.041103e+00 -6.718654e-01 -9.074350e-01 -8.897944e-01 -1.065442e+00 -9.865763e-01 -8.660561e-01 -8.599782e-01 -8.672939e-01 -8.621825e-01 -8.636496e-01 -8.662492e-01 -9.376780e-01 -9.410036e-01 -9.566932e-01 -8.629140e-01 -7.397360e-01 -8.216716e-01 -7.598910e-01 -8.300544e-01 -7.771265e-01 -8.312121e-01 -7.901277e-01 -8.277743e-01 -8.002344e-01 -8.216010e-01 -8.079499e-01 -8.138269e-01 -8.135801e-01 -8.065199e-01 -8.182230e-01 -8.015627e-01 -8.216964e-01 -7.981018e-01 -8.218811e-01 -7.941191e-01 -8.185598e-01 -7.899071e-01 -8.130639e-01 -7.856226e-01 -8.060250e-01 -7.818062e-01 -7.965735e-01 -7.759763e-01 -7.731575e-01 -7.250738e-01 -6.031870e-01 -9.191619e-01 -4.338238e+00 -5.230726e+00 -1.597747e+00 -2.102794e+00 -2.193636e+00 -1.531323e+00 -2.317586e+00 -1.055014e+00 -2.702503e+00 -1.563037e+00 -1.824570e+00 -2.441953e+00 -3.148494e-01 -2.882390e+00 -8.732746e-01 -1.470553e+00 -4.174362e+00 -1.592636e+00 -6.602926e-01 -7.799685e-01 -7.519423e-01 -8.288919e-01 -7.744431e-01 -8.270989e-01 -7.880843e-01 -8.259289e-01 -8.003054e-01 -8.247936e-01 -8.098825e-01 -8.230132e-01 -8.157139e-01 -8.207353e-01 -8.189619e-01 -8.197708e-01 -8.211975e-01 -8.205713e-01 -8.222328e-01 -8.223525e-01 -8.215372e-01 -8.250478e-01 -8.195623e-01 -8.289616e-01 -8.159708e-01 -8.329934e-01 -8.107230e-01 -8.376203e-01 -8.056642e-01 -8.426102e-01 -8.006873e-01 -8.463898e-01 -7.964461e-01 -8.490845e-01 -7.948052e-01 -8.507059e-01 -7.962526e-01 -8.492446e-01 -7.996433e-01 -8.430509e-01 -8.056296e-01 -8.328663e-01 -8.134791e-01 -8.164448e-01 -8.137073e-01 -7.857728e-01 -7.714787e-01 -9.118938e-01 -1.760279e+00 -1.063465e+00 -2.135174e-01 3.830230e-02 9.950836e-03 -1.538503e-02 
-1.845795e-02 -1.292583e-02 -1.625729e-03 2.427698e-02 3.079010e-02 -1.447909e-01 -1.892530e-01 -1.118800e-01 -1.119247e-01 -4.087891e-02 -4.040818e-02 -3.485868e-01 -1.110445e+00 -9.409890e-01 -5.555812e-01 -5.545863e-01 -5.548851e-01 -5.546699e-01 -5.547400e-01 -5.551526e-01 -7.936460e-01 -9.558833e-01 -6.263923e-01 -2.223256e-01 -1.134516e-01 -1.048478e-01 -9.420247e-02 -9.574030e-02 -8.947636e-02 -9.288942e-02 -8.980067e-02 -9.277784e-02 -9.134256e-02 -9.299509e-02 -9.281643e-02 -9.298256e-02 -9.396041e-02 -9.279400e-02 -9.484680e-02 -9.262185e-02 -9.555844e-02 -9.261127e-02 -9.618062e-02 -9.291597e-02 -9.691489e-02 -9.378707e-02 -9.806103e-02 -9.546719e-02 -9.979413e-02 -9.781454e-02 -1.012509e-01 -9.868981e-02 -9.595767e-02 -7.110563e-02 4.347451e-03 -2.367764e-02 -1.264325e+00 -1.784798e+00 -5.280364e-01 -8.543724e-01 -9.312164e-01 -6.188627e-01 -1.274147e+00 -4.204431e-01 -6.947455e-01 -5.097585e-01 -4.104430e-01 -9.863898e-01 -3.468868e-01 -1.196980e+00 -5.954322e-01 -6.664049e-01 -1.331673e+00 -2.835517e-01 -1.564257e-02 -6.317586e-02 -8.372704e-02 -9.145946e-02 -8.907854e-02 -9.283115e-02 -9.184215e-02 -9.414808e-02 -9.359462e-02 -9.434269e-02 -9.430259e-02 -9.397064e-02 -9.450766e-02 -9.350451e-02 -9.455670e-02 -9.318507e-02 -9.456009e-02 -9.302507e-02 -9.447682e-02 -9.300238e-02 -9.428740e-02 -9.312814e-02 -9.398002e-02 -9.339790e-02 -9.352778e-02 -9.377330e-02 -9.293161e-02 -9.424475e-02 -9.225580e-02 -9.478340e-02 -9.153719e-02 -9.531617e-02 -9.082687e-02 -9.577821e-02 -9.019999e-02 -9.608546e-02 -8.968792e-02 -9.602203e-02 -8.911494e-02 -9.507564e-02 -8.782577e-02 -9.204685e-02 -8.402460e-02 -8.458588e-02 -7.437647e-02 -6.999809e-02 -5.870146e-02 -1.022809e-01 -1.839047e-01 -6.806739e-02 -2.246722e-03 -7.823657e-03 -2.029840e-02 -2.133099e-02 
-1.117095e-02 -9.944432e-03 -8.391792e-03 -5.080390e-03 7.554605e-04 -2.756743e-03 -1.237555e-02 -7.588864e-03 6.307777e-03 3.278684e-02 4.835434e-02 -1.196494e-01 -5.644544e-01 -4.903533e-01 -2.771362e-01 -2.767128e-01 -2.767122e-01 -2.767121e-01 -2.767124e-01 -2.768556e-01 -3.851897e-01 -4.651066e-01 -3.021578e-01 -8.872421e-02 -3.435385e-02 -2.484363e-02 -1.907420e-02 -1.506556e-02 -1.233245e-02 -1.110768e-02 -1.040376e-02 -1.020981e-02 -1.015631e-02 -1.019326e-02 -1.032428e-02 -1.034512e-02 -1.052469e-02 -1.047776e-02 -1.068498e-02 -1.058678e-02 -1.083555e-02 -1.072558e-02 -1.104093e-02 -1.097449e-02 -1.139547e-02 -1.144670e-02 -1.202311e-02 -1.226093e-02 -1.298803e-02 -1.331535e-02 -1.381559e-02 -1.355346e-02 -1.266468e-02 -8.381813e-03 7.263468e-03 3.790348e-02 1.955172e-02 -3.280723e-02 -1.527270e-03 2.004591e-02 1.020704e-02 3.852254e-02 3.518807e-02 6.478235e-02 5.965798e-02 4.566278e-02 6.152301e-02 5.844621e-02 8.732333e-02 4.800244e-02 6.239434e-02 8.635470e-02 5.801995e-02 5.482018e-02 2.527811e-02 5.448838e-03 -1.348735e-03 -3.939953e-03 -5.920727e-03 -7.444027e-03 -8.644051e-03 -9.381749e-03 -9.976167e-03 -1.023635e-02 -1.052548e-02 -1.054545e-02 -1.070820e-02 -1.062369e-02 -1.074819e-02 -1.062313e-02 -1.074017e-02 -1.060152e-02 -1.071683e-02 -1.057984e-02 -1.068997e-02 -1.056690e-02 -1.066289e-02 -1.056354e-02 -1.063119e-02 -1.056340e-02 -1.058733e-02 -1.056146e-02 -1.053065e-02 -1.056014e-02 -1.046631e-02 -1.056135e-02 -1.039571e-02 -1.055902e-02 -1.031218e-02 -1.053258e-02 -1.018456e-02 -1.041156e-02 -9.894269e-03 -9.978722e-03 -9.098354e-03 -8.716294e-03 -7.120300e-03 -5.912058e-03 -3.451030e-03 -1.708821e-03 5.550663e-04 -3.030419e-03 -6.922717e-03 -3.428686e-03 -6.382048e-03 -1.057371e-02 -1.240757e-02 -1.201168e-02 
-7.749969e-06 7.182560e-06 1.514817e-05 2.281788e-05 2.378583e-05 2.706875e-05 1.972224e-05 5.259587e-06 -1.007419e-05 -2.111115e-05 4.285013e-06 5.182595e-05 2.618388e-05 7.860740e-04 1.597484e-06 4.878563e-09 8.274904e-10 2.273114e-09 -6.024488e-09 -3.629027e-06 -2.640835e-03 1.509492e-03 1.457614e-03 4.563600e-04 1.955153e-04 1.587531e-04 9.339696e-05 6.180005e-05 2.974491e-05 2.113333e-05 1.225546e-05 9.489967e-06 6.297097e-06 1.169149e-06 -1.746313e-06 -9.181657e-06 -1.123797e-05 -1.923442e-05 -2.159190e-05 -3.374181e-05 -4.476766e-05 -7.265498e-05 -1.095168e-04 -1.755375e-04 -2.693859e-04 -4.139447e-04 -6.179539e-04 -9.094403e-04 -1.310137e-03 -1.842993e-03 -2.510743e-03 -3.273063e-03 -4.119987e-03 -4.899050e-03 -4.956553e-03 -2.401594e-03 8.097168e-04 -1.087813e-04 -5.251471e-04 2.164098e-03 4.260594e-03 8.002328e-03 1.181676e-02 1.528123e-02 1.778976e-02 1.902233e-02 2.118874e-02 2.393862e-02 2.747050e-02 2.809285e-02 2.815503e-02 2.979269e-02 2.827983e-02 2.184836e-02 1.501784e-02 1.051309e-02 7.667853e-03 5.519270e-03 3.848523e-03 2.645064e-03 1.770064e-03 1.176045e-03 7.472133e-04 4.684525e-04 2.708388e-04 1.519544e-04 6.909053e-05 2.510359e-05 -5.776222e-06 -1.770214e-05 -2.665462e-05 -2.612819e-05 -2.721623e-05 -2.348985e-05 -2.351554e-05 -2.058561e-05 -2.176611e-05 -1.964723e-05 -2.064395e-05 -1.727496e-05 -1.637759e-05 -1.150800e-05 -9.650649e-06 -5.311350e-06 -4.190223e-06 -1.645061e-06 -1.434563e-06 -5.088619e-07 -4.106053e-07 -4.250813e-07 6.742532e-07 2.960091e-07 2.809274e-06 1.272077e-06 4.031027e-06 -6.700356e-07 8.109925e-07 -8.290999e-06 -8.958407e-06 -2.189161e-05 -2.517854e-05 -4.058765e-05 -4.363446e-05 -4.341079e-05 -5.024018e-05 -4.013217e-05 -3.542026e-05 -1.936924e-05 
1.115405e-02 9.959509e-03 8.425406e-03 5.125264e-03 -6.859527e-04 2.897703e-03 1.243815e-02 7.581449e-03 -6.299080e-03 -3.281508e-02 -4.829246e-02 1.195558e-01 5.626314e-01 4.927856e-01 2.771410e-01 2.767128e-01 2.767122e-01 2.767121e-01 2.767124e-01 2.768517e-01 3.824767e-01 4.696741e-01 3.055968e-01 8.966278e-02 3.468194e-02 2.511983e-02 1.921307e-02 1.516996e-02 1.235077e-02 1.113859e-02 1.037888e-02 1.021234e-02 1.009901e-02 1.016370e-02 1.022085e-02 1.027066e-02 1.036543e-02 1.035250e-02 1.046451e-02 1.039516e-02 1.052257e-02 1.040504e-02 1.053757e-02 1.036927e-02 1.047733e-02 1.023023e-02 1.024335e-02 9.831674e-03 9.591965e-03 8.814309e-03 8.036277e-03 6.604887e-03 5.025944e-03 2.834800e-03 5.678142e-04 -1.772482e-03 -3.580642e-03 -5.008377e-03 -5.712979e-03 -5.348819e-03 -3.980882e-03 -1.645728e-03 1.435315e-03 5.070055e-03 8.946802e-03 1.314039e-02 1.677802e-02 2.047784e-02 2.338078e-02 2.562598e-02 2.671010e-02 2.686573e-02 2.589639e-02 2.381238e-02 2.125277e-02 1.886344e-02 1.665389e-02 1.484706e-02 1.341468e-02 1.236853e-02 1.165916e-02 1.114790e-02 1.088054e-02 1.064573e-02 1.060040e-02 1.047916e-02 1.053122e-02 1.044433e-02 1.053569e-02 1.045368e-02 1.055889e-02 1.047399e-02 1.057852e-02 1.049178e-02 1.058480e-02 1.050337e-02 1.057645e-02 1.051236e-02 1.055771e-02 1.052446e-02 1.053201e-02 1.054096e-02 1.049771e-02 1.055786e-02 1.045114e-02 1.056992e-02 1.039011e-02 1.057095e-02 1.031060e-02 1.054394e-02 1.018588e-02 1.042214e-02 9.899766e-03 9.987531e-03 9.105355e-03 8.715123e-03 7.118337e-03 5.885627e-03 3.425368e-03 1.641484e-03 -6.193174e-04 2.876628e-03 6.818248e-03 3.338240e-03 6.269201e-03 1.047701e-02 1.232553e-02 1.196280e-02 
1.843448e-02 1.292693e-02 1.614109e-03 -2.428665e-02 -3.048916e-02 1.458207e-01 1.896459e-01 1.111602e-01 1.122541e-01 4.053054e-02 4.081548e-02 3.482966e-01 1.109482e+00 9.427524e-01 5.555737e-01 5.545952e-01 5.548948e-01 5.547028e-01 5.547779e-01 5.551938e-01 7.877717e-01 9.581061e-01 6.289152e-01 2.231308e-01 1.133043e-01 1.052562e-01 9.379789e-02 9.618105e-02 8.887641e-02 9.344196e-02 8.907050e-02 9.344163e-02 9.044613e-02 9.368851e-02 9.174049e-02 9.366955e-02 9.274006e-02 9.338791e-02 9.348563e-02 9.299529e-02 9.407252e-02 9.261497e-02 9.450794e-02 9.228342e-02 9.475771e-02 9.198892e-02 9.472325e-02 9.157013e-02 9.410283e-02 9.054170e-02 9.222673e-02 8.805310e-02 8.828681e-02 8.348103e-02 8.224317e-02 7.744408e-02 7.538551e-02 7.097722e-02 7.123081e-02 6.959821e-02 7.045315e-02 7.277043e-02 7.475159e-02 8.015007e-02 8.279978e-02 9.069218e-02 9.340534e-02 9.661524e-02 1.005600e-01 1.018811e-01 1.046416e-01 1.055088e-01 1.029460e-01 1.035688e-01 1.001942e-01 9.946528e-02 9.658548e-02 9.563881e-02 9.398374e-02 9.323649e-02 9.286598e-02 9.225996e-02 9.281806e-02 9.210181e-02 9.319679e-02 9.221769e-02 9.359649e-02 9.236013e-02 9.387661e-02 9.249156e-02 9.401441e-02 9.263417e-02 9.400251e-02 9.282145e-02 9.384269e-02 9.308757e-02 9.353940e-02 9.345139e-02 9.310044e-02 9.391220e-02 9.254602e-02 9.445841e-02 9.191091e-02 9.504977e-02 9.122615e-02 9.561603e-02 9.053765e-02 9.607961e-02 8.991841e-02 9.635293e-02 8.942080e-02 9.624323e-02 8.889363e-02 9.523293e-02 8.765595e-02 9.210036e-02 8.390691e-02 8.451195e-02 7.430682e-02 6.977364e-02 5.865663e-02 1.016215e-01 1.838895e-01 6.821784e-02 2.248511e-03 7.767492e-03 2.022512e-02 2.127429e-02 
1.732969e-02 2.497199e-03 -4.290774e-02 -8.243303e-02 3.085269e-01 2.277437e+00 1.363509e+00 4.423770e-01 1.045161e+00 6.679868e-01 9.114001e-01 8.850397e-01 1.057276e+00 9.896686e-01 8.658204e-01 8.601812e-01 8.674802e-01 8.629353e-01 8.645505e-01 8.674515e-01 9.360159e-01 9.481275e-01 9.577787e-01 8.674724e-01 7.364840e-01 8.276947e-01 7.545342e-01 8.371265e-01 7.696189e-01 8.399385e-01 7.818692e-01 8.391956e-01 7.927553e-01 8.362563e-01 8.025319e-01 8.313989e-01 8.107166e-01 8.251946e-01 8.175155e-01 8.191960e-01 8.240293e-01 8.154170e-01 8.307750e-01 8.141002e-01 8.365563e-01 8.142544e-01 8.404218e-01 8.151218e-01 8.413907e-01 8.149745e-01 8.382925e-01 8.124051e-01 8.299242e-01 8.040327e-01 8.122477e-01 7.846851e-01 7.803309e-01 7.481006e-01 7.666839e-01 7.455333e-01 7.491039e-01 7.519948e-01 7.463814e-01 7.660862e-01 7.562467e-01 7.887932e-01 7.859710e-01 7.731122e-01 7.993190e-01 7.786119e-01 8.073788e-01 8.087722e-01 7.919421e-01 8.180626e-01 8.071298e-01 8.247645e-01 8.166185e-01 8.263695e-01 8.223915e-01 8.253929e-01 8.257418e-01 8.236151e-01 8.274912e-01 8.217020e-01 8.282806e-01 8.204739e-01 8.286369e-01 8.200364e-01 8.284758e-01 8.204875e-01 8.276421e-01 8.215343e-01 8.255655e-01 8.232793e-01 8.225612e-01 8.261595e-01 8.184859e-01 8.298462e-01 8.134394e-01 8.345436e-01 8.080523e-01 8.398671e-01 8.024586e-01 8.450971e-01 7.972719e-01 8.496939e-01 7.931532e-01 8.527419e-01 7.908495e-01 8.535968e-01 7.913641e-01 8.514581e-01 7.951519e-01 8.452634e-01 8.020946e-01 8.343586e-01 8.107971e-01 8.172374e-01 8.125900e-01 7.860498e-01 7.715211e-01 9.106264e-01 1.760946e+00 1.063327e+00 2.136081e-01 -3.841831e-02 -9.913023e-03 1.538880e-02 
-1.407572e-03 -3.545876e-02 -7.548019e-02 3.697622e-01 2.519824e+00 4.583683e+00 2.060690e+00 1.197486e+00 1.908118e+00 1.528533e+00 1.820338e+00 1.525349e+00 1.762542e+00 1.556190e+00 1.724845e+00 1.605930e+00 1.718408e+00 1.651966e+00 1.668834e+00 1.679836e+00 1.672406e+00 1.651287e+00 1.464361e+00 1.724011e+00 1.552027e+00 1.790531e+00 1.634266e+00 1.804058e+00 1.676749e+00 1.794353e+00 1.712480e+00 1.790897e+00 1.759383e+00 1.799701e+00 1.799593e+00 1.793797e+00 1.813089e+00 1.774466e+00 1.810981e+00 1.754752e+00 1.809069e+00 1.757455e+00 1.830069e+00 1.789105e+00 1.860281e+00 1.823763e+00 1.879939e+00 1.846692e+00 1.878356e+00 1.851803e+00 1.872784e+00 1.876162e+00 1.900273e+00 1.924881e+00 1.933271e+00 1.957174e+00 1.941057e+00 1.957845e+00 1.960117e+00 1.977545e+00 1.966402e+00 1.989355e+00 1.965659e+00 1.978334e+00 1.948595e+00 1.969596e+00 1.956758e+00 1.941923e+00 1.970957e+00 1.938931e+00 1.975759e+00 1.932526e+00 1.926376e+00 1.883051e+00 1.901762e+00 1.856097e+00 1.900105e+00 1.857992e+00 1.905905e+00 1.861169e+00 1.896175e+00 1.850861e+00 1.864469e+00 1.830920e+00 1.829784e+00 1.825063e+00 1.809224e+00 1.834732e+00 1.798982e+00 1.853476e+00 1.793562e+00 1.868370e+00 1.782270e+00 1.874729e+00 1.772654e+00 1.877200e+00 1.763878e+00 1.869805e+00 1.759699e+00 1.863599e+00 1.769209e+00 1.854542e+00 1.781000e+00 1.837518e+00 1.798881e+00 1.822534e+00 1.825080e+00 1.808124e+00 1.851632e+00 1.791717e+00 1.871385e+00 1.772403e+00 1.881975e+00 1.755879e+00 1.883882e+00 1.751008e+00 1.886071e+00 1.778865e+00 1.893815e+00 1.840710e+00 1.849248e+00 2.066085e+00 2.570631e+00 3.421126e+00 2.091233e+00 9.827061e-02 -8.272316e-02 -1.442490e-02 
-9.789017e-03 -3.703394e-02 2.568788e-02 8.897629e-01 3.222012e+00 1.218351e+00 1.422818e-02 1.275433e+00 6.054129e-01 9.007676e-01 6.290103e-01 4.838603e-01 4.129217e-01 1.964926e-01 4.692422e-01 2.619027e-01 3.673265e-01 2.374144e-01 3.779930e-01 3.984546e-01 1.818418e-01 5.917217e-01 4.597218e-01 7.795004e-01 7.484551e-01 8.729475e-01 8.173288e-01 8.675892e-01 8.481472e-01 8.478132e-01 8.782915e-01 8.476897e-01 9.280886e-01 8.713725e-01 9.683683e-01 8.761083e-01 9.694622e-01 8.629367e-01 9.488440e-01 8.485895e-01 9.286483e-01 8.633875e-01 9.431444e-01 9.169488e-01 9.743880e-01 9.714778e-01 9.941487e-01 1.005756e+00 9.880869e-01 1.014354e+00 9.857397e-01 1.058099e+00 1.047318e+00 1.153208e+00 1.140611e+00 1.251107e+00 1.233219e+00 1.343331e+00 1.291867e+00 1.376617e+00 1.344136e+00 1.374605e+00 1.349385e+00 1.321584e+00 1.300144e+00 1.256733e+00 1.249234e+00 1.263897e+00 1.239669e+00 1.246986e+00 1.227612e+00 1.159570e+00 1.192304e+00 1.052023e+00 1.110685e+00 9.878651e-01 1.080706e+00 9.843247e-01 1.074314e+00 9.922607e-01 1.052092e+00 9.831117e-01 1.000529e+00 9.597867e-01 9.464608e-01 9.564841e-01 9.148503e-01 9.750551e-01 8.999542e-01 1.005171e+00 8.936917e-01 1.027468e+00 8.810569e-01 1.034389e+00 8.731970e-01 1.031977e+00 8.693630e-01 1.011740e+00 8.754275e-01 9.903942e-01 9.040659e-01 9.624760e-01 9.371086e-01 9.218116e-01 9.790000e-01 8.855154e-01 1.031485e+00 8.537492e-01 1.080141e+00 8.244135e-01 1.111048e+00 7.981401e-01 1.118530e+00 7.857761e-01 1.101566e+00 8.001466e-01 1.071861e+00 8.694948e-01 1.043700e+00 9.951886e-01 9.966668e-01 1.138266e+00 2.102846e-01 3.148334e+00 2.574207e+00 4.331076e-02 -1.278103e-01 -3.207908e-02 
2.485448e-03 -1.322457e-02 1.951329e-02 3.812781e-01 9.914681e-01 -2.061508e+00 -1.379564e+00 3.193865e-01 -8.020721e-01 -2.716820e-01 -6.402487e-01 -1.121373e-01 -5.062861e-01 -3.448347e-01 -1.036244e+00 -8.098351e-01 -8.725624e-01 -7.778693e-01 -8.719067e-01 -8.637808e-01 -4.436800e-01 -5.699238e-01 -2.261581e-01 -4.692863e-01 -4.487666e-01 -5.196656e-01 -4.442715e-01 -5.254182e-01 -4.432311e-01 -5.318606e-01 -4.406387e-01 -5.276656e-01 -4.310180e-01 -5.130131e-01 -4.254722e-01 -5.038903e-01 -4.341198e-01 -5.001314e-01 -4.500557e-01 -4.969655e-01 -4.659003e-01 -4.854161e-01 -4.692429e-01 -4.622444e-01 -4.651459e-01 -4.403932e-01 -4.628066e-01 -4.270191e-01 -4.666001e-01 -4.226655e-01 -4.647399e-01 -4.038186e-01 -4.342460e-01 -3.612180e-01 -3.825487e-01 -3.055818e-01 -3.130269e-01 -2.313050e-01 -2.800656e-01 -2.196011e-01 -2.409481e-01 -2.313459e-01 -2.360802e-01 -2.686235e-01 -2.647034e-01 -3.163244e-01 -3.097418e-01 -2.846458e-01 -3.259429e-01 -2.955678e-01 -3.392791e-01 -3.652171e-01 -3.316692e-01 -4.212709e-01 -3.830785e-01 -4.562442e-01 -4.074571e-01 -4.608688e-01 -4.168680e-01 -4.556807e-01 -4.272713e-01 -4.540950e-01 -4.460515e-01 -4.573014e-01 -4.652232e-01 -4.542139e-01 -4.763865e-01 -4.442531e-01 -4.814432e-01 -4.313163e-01 -4.830886e-01 -4.223091e-01 -4.860334e-01 -4.201635e-01 -4.862080e-01 -4.232341e-01 -4.835135e-01 -4.343919e-01 -4.755446e-01 -4.476305e-01 -4.581332e-01 -4.647522e-01 -4.382771e-01 -4.873134e-01 -4.149699e-01 -5.081658e-01 -3.884012e-01 -5.260611e-01 -3.650136e-01 -5.406965e-01 -3.513772e-01 -5.506017e-01 -3.508289e-01 -5.508224e-01 -3.653990e-01 -5.378368e-01 -3.940181e-01 -5.074257e-01 -4.373299e-01 -4.798963e-01 -5.208562e-01 -6.599093e-01 -1.642605e+00 5.411618e-01 8.968422e-01 3.377658e-02 -2.923748e-02 -1.046302e-03 
6.571462e-03 3.667977e-03 7.937384e-03 5.043010e-02 1.907301e-02 -9.837348e-01 -6.517336e-01 -9.799573e-02 -4.390480e-01 -2.643930e-01 -3.825632e-01 -4.784353e-02 3.625026e-01 1.227474e+00 1.698395e+00 1.699208e+00 1.480215e+00 1.659527e+00 1.476184e+00 1.572019e+00 1.328489e+00 2.837438e-01 -1.171325e-01 -3.534187e-01 -3.314283e-01 -3.697430e-01 -3.275623e-01 -3.674157e-01 -3.297606e-01 -3.660692e-01 -3.321300e-01 -3.636438e-01 -3.347787e-01 -3.605466e-01 -3.379672e-01 -3.572042e-01 -3.415851e-01 -3.536094e-01 -3.451780e-01 -3.500697e-01 -3.487181e-01 -3.470373e-01 -3.518176e-01 -3.444861e-01 -3.540162e-01 -3.424623e-01 -3.552345e-01 -3.412829e-01 -3.559887e-01 -3.416696e-01 -3.572729e-01 -3.443994e-01 -3.598165e-01 -3.491198e-01 -3.616720e-01 -3.488020e-01 -3.519893e-01 -3.370436e-01 -3.525622e-01 -3.391678e-01 -3.401629e-01 -3.355924e-01 -3.273964e-01 -3.317710e-01 -3.196301e-01 -3.256251e-01 -3.179082e-01 -3.045373e-01 -3.105505e-01 -2.955509e-01 -3.075621e-01 -3.097259e-01 -3.023957e-01 -3.231515e-01 -3.209716e-01 -3.376760e-01 -3.344521e-01 -3.464754e-01 -3.443831e-01 -3.510321e-01 -3.492630e-01 -3.511086e-01 -3.504794e-01 -3.491184e-01 -3.503738e-01 -3.468597e-01 -3.500831e-01 -3.449592e-01 -3.498615e-01 -3.436303e-01 -3.496411e-01 -3.429181e-01 -3.491652e-01 -3.429028e-01 -3.482567e-01 -3.437310e-01 -3.467292e-01 -3.453888e-01 -3.443718e-01 -3.477628e-01 -3.412231e-01 -3.508674e-01 -3.375976e-01 -3.545233e-01 -3.337105e-01 -3.582496e-01 -3.299001e-01 -3.615803e-01 -3.267957e-01 -3.640976e-01 -3.251838e-01 -3.653043e-01 -3.257504e-01 -3.647737e-01 -3.294282e-01 -3.630936e-01 -3.377549e-01 -3.627390e-01 -3.524603e-01 -3.710489e-01 -3.857872e-01 -5.099257e-01 -7.726978e-01 -1.945385e-01 2.683214e-02 1.305369e-02 9.026418e-03 8.223384e-03 
