# vtk DataFile Version 2.0
Comment goes here
ASCII

DATASET STRUCTURED_POINTS
FIELD FieldData 1
TIME 1 1 double
0.45000000
DIMENSIONS    128   16   1

ORIGIN    0.000   0.000   0.000
SPACING   0.0078125 0.015625   1.000

POINT_DATA   2048
SCALARS Omega double
LOOKUP_TABLE default

8.077325e-05 2.751438e-05 -1.260044e-05 -6.468624e-05 -1.837928e-04 -2.012419e-04 9.408652e-05 3.681192e-04 3.909489e-05 1.704810e-04 3.919711e-05 1.037383e-04 -2.785403e-04 2.261186e-04 -2.866512e-04 -2.146076e-04 -1.008670e-04 -5.690645e-04 -6.588775e-05 -4.716031e-04 -1.187719e-04 4.744021e-04 2.135860e-04 -1.341388e-04 5.163422e-05 -1.139814e-04 9.002076e-05 -1.319860e-04 1.218171e-04 -1.601335e-04 1.504919e-04 -2.096751e-04 1.529277e-04 -2.875739e-04 1.229798e-04 -3.795222e-04 8.015443e-05 -4.479312e-04 6.248444e-05 -4.471338e-04 1.219148e-04 -3.133854e-04 3.361039e-04 2.623977e-05 7.480447e-04 5.138331e-04 1.083972e-03 5.051622e-04 1.653477e-04 -1.728206e-03 -4.136458e-03 -8.267803e-03 -1.303611e-02 -1.578163e-02 -9.787532e-03 -4.904306e-03 -6.744513e-02 -1.027380e-01 -6.073919e-02 -9.305148e-02 -1.156130e-01 -9.806041e-02 -9.878932e-02 -7.787054e-02 -4.234385e-02 9.241177e-02 4.515895e-02 -5.614592e-02 -1.338393e-02 -4.063012e-02 6.712365e-02 6.114453e-02 -2.697093e-02 2.378716e-02 3.048138e-02 2.285639e-02 1.553927e-02 1.247531e-02 7.033734e-03 4.171455e-03 5.194563e-04 -2.285786e-04 -1.607599e-03 -1.059986e-03 -1.410816e-03 -6.713097e-04 -7.784407e-04 -2.617682e-04 -3.363042e-04 -5.960345e-05 -1.022592e-04 5.815759e-06 1.475861e-05 1.059850e-05 7.408480e-05 -9.174322e-06 1.010467e-04 -3.799623e-05 1.107091e-04 -6.278961e-05 1.145766e-04 -7.706028e-05 1.137181e-04 -8.551299e-05 1.038403e-04 -9.225089e-05 8.727691e-05 -9.305178e-05 7.096847e-05 -8.326245e-05 5.864316e-05 -6.190423e-05 4.980839e-05 -3.375037e-05 3.814749e-05 -1.119520e-05 1.257511e-05 -1.186538e-05 -4.569970e-05 -6.386906e-05 -1.309948e-04 -1.041943e-04 -1.291870e-04 -6.193339e-05 5.505752e-05 1.624179e-04 1.793853e-04 1.371269e-04 
-5.846725e-03 -4.484088e-03 -1.362241e-02 -4.342431e-02 9.156288e-02 9.005151e-01 -9.112661e-02 -2.716102e-01 1.745500e-01 -1.050959e-02 9.882682e-02 -2.059532e-01 4.853456e-03 2.858617e-01 2.993744e-01 7.672491e-03 3.939166e-01 1.605305e-01 2.839592e-01 4.012942e-01 2.204761e-01 -5.591108e-02 -1.183343e-01 5.836493e-02 7.273718e-02 9.175896e-02 6.758750e-02 8.636128e-02 6.463161e-02 8.401453e-02 6.345393e-02 8.180750e-02 6.322667e-02 7.964904e-02 6.355822e-02 7.734368e-02 6.379685e-02 7.480437e-02 6.393529e-02 7.229938e-02 6.397050e-02 6.970791e-02 6.374261e-02 6.705023e-02 6.307189e-02 6.440833e-02 6.167976e-02 6.173925e-02 5.862643e-02 5.823503e-02 5.239546e-02 5.362907e-02 4.564041e-02 7.159737e-02 7.850456e-02 -1.434770e-01 -1.365452e+00 -1.530707e+00 -6.239446e-01 -1.226987e+00 -1.277513e+00 -1.038807e+00 -1.464936e+00 -9.852050e-01 -1.466991e+00 -9.170023e-01 -1.065640e+00 -1.547424e+00 -6.670638e-01 -1.805474e+00 -7.534849e-01 -9.978315e-01 -1.842209e+00 -4.903916e-01 -1.064813e-02 7.376413e-02 3.782344e-02 7.077141e-02 4.230279e-02 7.386671e-02 4.539071e-02 7.327928e-02 4.928681e-02 7.248706e-02 5.394070e-02 7.127869e-02 5.800707e-02 6.964203e-02 6.100113e-02 6.811330e-02 6.304719e-02 6.728646e-02 6.423146e-02 6.727630e-02 6.449156e-02 6.812763e-02 6.401609e-02 6.986050e-02 6.295713e-02 7.229851e-02 6.141389e-02 7.510414e-02 5.963530e-02 7.793463e-02 5.800151e-02 8.010608e-02 5.690507e-02 8.103688e-02 5.707626e-02 8.014855e-02 5.888657e-02 7.683702e-02 6.296409e-02 7.132044e-02 7.017913e-02 6.426052e-02 8.165357e-02 5.726508e-02 9.993966e-02 5.415656e-02 1.535345e-01 -3.723229e-03 1.629816e-01 1.723224e-01 -2.533152e-02 -1.638908e-02 -8.073759e-03 -6.978008e-03 
2.799607e-04 4.007036e-03 -6.641802e-02 -3.560267e-01 1.925168e-02 2.725724e+00 -4.828918e-01 -9.490550e-01 3.111085e-01 -1.727338e-01 1.514335e-01 -2.428459e-01 9.979238e-01 7.600100e-02 3.808452e-01 8.810292e-02 3.529349e-01 4.121240e-02 3.437117e-01 5.515757e-02 3.530749e-01 7.984381e-01 -6.943149e-02 -3.552197e-02 3.958428e-02 3.377754e-02 4.266917e-02 2.998304e-02 2.467083e-02 2.517404e-02 1.866401e-02 3.438900e-02 2.410417e-02 4.360985e-02 2.432573e-02 4.467278e-02 1.958668e-02 4.310735e-02 1.411789e-02 4.149217e-02 9.448067e-03 4.198974e-02 8.808121e-03 4.668716e-02 9.985456e-03 4.870852e-02 6.262592e-03 4.982499e-02 1.010884e-02 6.719973e-02 3.225902e-02 1.026984e-01 7.491344e-02 1.860792e-01 1.592922e-01 -1.243002e-01 -1.864731e+00 -1.769075e+00 9.446573e-02 -7.204627e-01 -4.969178e-01 -4.354566e-02 -8.129437e-01 1.585436e-01 -8.907626e-01 -8.072770e-01 -5.647062e-01 -1.022551e+00 4.514865e-01 -1.378227e+00 -3.056230e-01 -1.134476e+00 -2.596844e+00 -5.932784e-01 2.387849e-02 2.038930e-01 2.981165e-02 1.231872e-01 -1.369465e-02 8.127908e-02 -2.036787e-02 5.935293e-02 9.580115e-04 5.500675e-02 3.112564e-02 4.487549e-02 4.072129e-02 1.665214e-02 3.318985e-02 -6.882821e-03 3.247092e-02 -9.783986e-03 3.763586e-02 -2.934847e-03 3.795845e-02 1.058703e-02 3.639439e-02 2.902421e-02 2.471347e-02 4.078197e-02 1.430825e-03 5.245034e-02 -1.919582e-02 6.944458e-02 -3.573586e-02 8.477620e-02 -4.615985e-02 9.792721e-02 -4.572724e-02 1.022041e-01 -3.935837e-02 8.803982e-02 -2.544178e-02 5.906332e-02 4.501505e-03 1.756333e-02 5.100428e-02 -3.778063e-02 1.268728e-01 -9.793929e-02 2.967513e-01 -5.196824e-01 8.185742e-01 4.607279e-01 -8.903340e-01 -1.523322e-01 8.771752e-03 4.309615e-03 
1.527611e-02 1.598831e-02 -1.405622e-01 -9.058697e-01 -9.190592e-01 1.838900e+00 6.538972e-02 -3.691576e-01 5.517371e-02 -8.859909e-02 -4.657935e-03 2.447619e-02 -5.904441e-01 -2.534277e-01 -3.018220e-01 -2.333043e-01 -3.171679e-01 -2.305733e-01 -2.912258e-01 -2.859523e-01 -2.240488e-01 -6.772006e-01 8.341793e-02 -1.395074e-01 4.886244e-02 -1.313370e-01 3.698285e-02 -1.326259e-01 -5.823998e-03 -1.379998e-01 -1.892804e-02 -1.001414e-01 -2.804352e-03 -6.150652e-02 -5.015954e-03 -4.548026e-02 -2.057208e-02 -3.512258e-02 -3.716086e-02 -2.462181e-02 -5.038449e-02 -6.334714e-03 -4.935424e-02 2.627631e-02 -3.910621e-02 5.213101e-02 -3.887500e-02 7.367632e-02 -1.012669e-02 1.407072e-01 8.205358e-02 2.524964e-01 2.245083e-01 4.010922e-01 4.623993e-01 8.885266e-01 1.929370e+00 1.979756e+00 1.214919e+00 1.567782e+00 1.717660e+00 1.355489e+00 1.996473e+00 1.359979e+00 2.117456e+00 1.815104e+00 1.806588e+00 1.864724e+00 1.098917e+00 2.095013e+00 1.459165e+00 1.879118e+00 2.392277e+00 1.367099e+00 6.268958e-01 5.559163e-01 2.442926e-01 2.753654e-01 5.772412e-02 1.011519e-01 -9.542170e-03 1.816991e-02 1.424689e-02 3.861842e-03 6.943690e-02 -1.776799e-02 7.094271e-02 -8.858716e-02 2.935006e-02 -1.468184e-01 1.385147e-02 -1.497550e-01 2.133133e-02 -1.298676e-01 2.080381e-02 -9.637668e-02 1.935844e-02 -5.459545e-02 -8.513256e-03 -3.718084e-02 -6.781823e-02 -2.204883e-02 -1.182733e-01 9.290602e-03 -1.582178e-01 4.134744e-02 -1.841118e-01 7.680723e-02 -1.869180e-01 1.000450e-01 -1.832067e-01 8.723151e-02 -1.719206e-01 4.778647e-02 -1.327077e-01 -1.478200e-02 -6.968509e-02 -1.150057e-01 3.149527e-02 -2.584242e-01 2.295112e-01 -7.170760e-01 2.056299e+00 1.471193e-01 -2.600750e+00 -3.911798e-01 5.917639e-02 3.607806e-02 
7.729258e-03 2.812822e-02 -7.161517e-03 -5.189913e-01 -1.304351e+00 -1.867333e+00 5.820393e-01 7.108048e-01 -4.768535e-01 -5.310742e-03 -4.672153e-01 -1.274864e-01 -3.003544e-01 -1.130360e-01 -3.968181e-01 -1.780252e-01 -3.566358e-01 -2.151863e-01 -3.094846e-01 -2.742526e-01 -2.647000e-01 -2.019241e-01 -1.392206e-01 -3.194662e-01 -9.103405e-02 -2.811035e-01 -1.017138e-01 -2.862979e-01 -1.350580e-01 -2.902902e-01 -1.465430e-01 -2.614649e-01 -1.379818e-01 -2.308712e-01 -1.422490e-01 -2.148998e-01 -1.543372e-01 -2.017594e-01 -1.661258e-01 -1.883062e-01 -1.747951e-01 -1.684783e-01 -1.721771e-01 -1.373015e-01 -1.610376e-01 -1.095343e-01 -1.543292e-01 -8.444766e-02 -1.239724e-01 -2.693927e-02 -4.224840e-02 6.394572e-02 9.044187e-02 1.969849e-01 3.249695e-01 3.771025e-01 5.556945e-01 6.570884e-01 5.172254e-01 4.940983e-01 6.254074e-01 2.902472e-01 8.617916e-01 3.335731e-01 5.757927e-01 5.492453e-01 2.547346e-01 8.128499e-01 2.310066e-01 7.268815e-01 2.709954e-01 6.673913e-01 6.352557e-01 5.083472e-01 3.815854e-01 2.447463e-01 1.139848e-01 3.041644e-02 -3.207377e-02 -1.056427e-01 -9.597903e-02 -1.713076e-01 -9.613308e-02 -1.824693e-01 -7.206485e-02 -1.941586e-01 -8.203980e-02 -2.381197e-01 -1.186907e-01 -2.740366e-01 -1.347624e-01 -2.741968e-01 -1.326114e-01 -2.610945e-01 -1.334305e-01 -2.410085e-01 -1.331603e-01 -2.176026e-01 -1.501637e-01 -2.127003e-01 -1.881748e-01 -2.096982e-01 -2.200572e-01 -1.947378e-01 -2.458003e-01 -1.763736e-01 -2.638895e-01 -1.510205e-01 -2.700975e-01 -1.279307e-01 -2.765741e-01 -1.219030e-01 -2.838426e-01 -1.270459e-01 -2.789868e-01 -1.413612e-01 -2.643027e-01 -1.740533e-01 -2.276922e-01 -2.157267e-01 -1.300131e-01 -5.806001e-02 1.212825e+00 -9.052598e-01 -2.210799e+00 -3.872922e-01 2.312029e-02 1.865781e-02 
-1.388770e-02 1.605718e-03 3.256700e-02 -6.923927e-03 -4.879848e-01 -1.923591e+00 1.100738e-01 3.413672e-01 -4.807505e-01 -1.060596e-01 -3.986875e-01 -2.506465e-01 2.538304e-01 8.085547e-02 -5.364850e-02 -4.453637e-02 -5.186559e-02 -4.852854e-02 -4.748655e-02 -5.404619e-02 1.506488e-01 2.454110e-01 -3.618057e-01 -3.252980e-01 -2.118948e-01 -2.511410e-01 -2.035454e-01 -2.525265e-01 -2.089764e-01 -2.540158e-01 -2.134826e-01 -2.525373e-01 -2.166945e-01 -2.498517e-01 -2.198775e-01 -2.469033e-01 -2.220967e-01 -2.433293e-01 -2.234089e-01 -2.396251e-01 -2.239590e-01 -2.351647e-01 -2.231609e-01 -2.295499e-01 -2.209474e-01 -2.237174e-01 -2.179834e-01 -2.183794e-01 -2.124289e-01 -2.116472e-01 -2.007927e-01 -2.012991e-01 -1.705165e-01 -1.482637e-01 -8.513231e-02 -6.587588e-01 -3.056317e+00 -3.018982e+00 -5.343529e-01 -1.565458e+00 -1.247591e+00 -7.261706e-01 -1.824351e+00 -4.987297e-01 -1.661050e+00 -1.573644e+00 -1.374637e+00 -1.683826e+00 -5.130896e-01 -1.989148e+00 -1.100258e+00 -2.044189e+00 -4.041743e+00 -1.454167e+00 -2.243426e-01 -1.684343e-01 -1.508048e-01 -2.224398e-01 -1.792289e-01 -2.394039e-01 -1.925035e-01 -2.479512e-01 -2.020944e-01 -2.496319e-01 -2.085701e-01 -2.484766e-01 -2.146611e-01 -2.478040e-01 -2.202591e-01 -2.472092e-01 -2.235989e-01 -2.463993e-01 -2.249096e-01 -2.463676e-01 -2.250298e-01 -2.472667e-01 -2.242290e-01 -2.491973e-01 -2.237589e-01 -2.527031e-01 -2.239442e-01 -2.562763e-01 -2.239528e-01 -2.587385e-01 -2.244328e-01 -2.593794e-01 -2.258095e-01 -2.571576e-01 -2.289326e-01 -2.517278e-01 -2.346419e-01 -2.428528e-01 -2.433652e-01 -2.303252e-01 -2.543826e-01 -2.132124e-01 -2.652433e-01 -1.880314e-01 -2.676769e-01 -1.386914e-01 -2.618569e-01 6.872289e-02 -3.657604e-01 -8.617495e-01 -3.743048e-01 -2.646973e-02 7.300218e-03 -1.061065e-02 
-1.769660e-02 -1.150338e-02 7.268194e-04 1.803512e-02 -1.260587e-02 -1.996383e-01 -1.248013e-01 -7.710859e-02 -1.068019e-01 -4.016315e-02 -7.953368e-02 -2.971449e-01 1.142922e-01 1.822833e-01 -4.576520e-03 -4.507724e-03 -4.810433e-03 -4.666948e-03 -4.637404e-03 -4.450608e-03 2.790789e-01 1.993597e-01 -5.129436e-01 -2.530352e-01 -1.218904e-01 -9.794390e-02 -8.597082e-02 -8.681373e-02 -8.084609e-02 -8.410671e-02 -8.071432e-02 -8.416941e-02 -8.191168e-02 -8.461019e-02 -8.309784e-02 -8.484670e-02 -8.397739e-02 -8.486528e-02 -8.460472e-02 -8.481221e-02 -8.509549e-02 -8.480796e-02 -8.557166e-02 -8.500543e-02 -8.621079e-02 -8.564514e-02 -8.728071e-02 -8.703640e-02 -8.893530e-02 -8.906267e-02 -9.025292e-02 -8.935713e-02 -8.296578e-02 -5.951608e-02 -1.328468e-02 -1.647340e-01 -1.246606e+00 -1.566418e+00 -5.849159e-01 -9.483164e-01 -8.875733e-01 -5.775651e-01 -1.309761e+00 -5.920422e-01 -6.478037e-01 -5.042979e-01 -3.500788e-01 -1.072646e+00 -7.016528e-01 -9.918260e-01 -3.956482e-01 -7.418052e-01 -1.527282e+00 -5.225070e-01 -7.185204e-02 -5.058706e-02 -6.761713e-02 -7.914055e-02 -7.732316e-02 -8.283053e-02 -8.052103e-02 -8.495793e-02 -8.260867e-02 -8.562016e-02 -8.357941e-02 -8.546351e-02 -8.399542e-02 -8.508094e-02 -8.418531e-02 -8.475728e-02 -8.426417e-02 -8.458925e-02 -8.424561e-02 -8.457853e-02 -8.411804e-02 -8.471271e-02 -8.389590e-02 -8.497592e-02 -8.359296e-02 -8.532601e-02 -8.321642e-02 -8.570217e-02 -8.280260e-02 -8.605533e-02 -8.241790e-02 -8.630542e-02 -8.212445e-02 -8.636804e-02 -8.199990e-02 -8.613971e-02 -8.204146e-02 -8.542201e-02 -8.207877e-02 -8.378115e-02 -8.142742e-02 -8.004645e-02 -7.827809e-02 -7.181964e-02 -6.938694e-02 -5.626932e-02 -6.018529e-02 -7.030173e-02 -1.404015e-01 -1.027817e-01 -2.568711e-02 -9.860084e-03 -1.732150e-02 -1.997314e-02 
-1.096814e-02 -9.595190e-03 -7.563578e-03 -3.818445e-03 -6.627527e-04 -9.724242e-03 -1.558178e-02 -9.892420e-03 2.499618e-03 2.477895e-02 1.940030e-02 -1.141102e-01 5.030504e-02 7.173010e-02 -1.354199e-03 -1.473030e-03 -1.473364e-03 -1.473282e-03 -1.472912e-03 -1.232945e-03 1.516037e-01 1.105261e-01 -2.580527e-01 -1.146242e-01 -4.553894e-02 -2.839330e-02 -2.171828e-02 -1.786472e-02 -1.511330e-02 -1.393063e-02 -1.314345e-02 -1.301656e-02 -1.289044e-02 -1.300112e-02 -1.306428e-02 -1.315751e-02 -1.327244e-02 -1.329537e-02 -1.343931e-02 -1.340951e-02 -1.359486e-02 -1.355365e-02 -1.380556e-02 -1.380952e-02 -1.416891e-02 -1.429202e-02 -1.481194e-02 -1.511980e-02 -1.579466e-02 -1.617982e-02 -1.663751e-02 -1.638730e-02 -1.506773e-02 -9.409003e-03 6.117161e-03 1.999571e-02 -3.742271e-02 -8.710508e-02 -2.775381e-02 -1.710968e-02 -2.275964e-02 1.359010e-02 -3.813243e-03 3.520886e-02 3.591750e-02 2.636679e-02 4.535398e-02 2.604738e-02 5.211438e-02 1.448252e-02 3.970260e-02 5.329814e-02 9.632279e-03 3.201523e-02 2.351734e-02 5.711901e-03 -2.976064e-03 -6.483462e-03 -8.526709e-03 -1.012471e-02 -1.127833e-02 -1.211362e-02 -1.266125e-02 -1.300356e-02 -1.324004e-02 -1.332667e-02 -1.343708e-02 -1.340876e-02 -1.348271e-02 -1.340904e-02 -1.347592e-02 -1.338887e-02 -1.345132e-02 -1.336992e-02 -1.342151e-02 -1.336063e-02 -1.339035e-02 -1.336114e-02 -1.335438e-02 -1.336447e-02 -1.330734e-02 -1.336460e-02 -1.324971e-02 -1.336208e-02 -1.318784e-02 -1.335712e-02 -1.312461e-02 -1.334239e-02 -1.305423e-02 -1.329602e-02 -1.294474e-02 -1.314605e-02 -1.267465e-02 -1.267391e-02 -1.189810e-02 -1.136462e-02 -9.942095e-03 -8.503932e-03 -6.266927e-03 -4.217324e-03 -2.785768e-03 -6.354414e-03 -1.152534e-02 -7.358742e-03 -6.728685e-03 -9.708485e-03 -1.177435e-02 -1.177748e-02 
-8.203609e-06 5.995303e-06 1.469915e-05 2.163547e-05 2.528804e-05 2.883908e-05 2.043231e-05 4.836964e-06 -7.798499e-06 -1.640531e-05 1.551198e-06 -5.437486e-05 -1.512137e-03 3.847905e-04 5.866940e-07 1.112943e-09 8.788390e-11 -6.565637e-12 4.875659e-11 -1.017594e-07 -1.449182e-04 3.047185e-03 1.501712e-03 5.904073e-04 2.386597e-04 1.585052e-04 9.610415e-05 6.219632e-05 3.091476e-05 2.041272e-05 1.023861e-05 7.342136e-06 2.091354e-06 -2.371618e-06 -7.896567e-06 -1.470246e-05 -1.980602e-05 -2.786503e-05 -3.347631e-05 -4.686467e-05 -6.104419e-05 -9.204247e-05 -1.319755e-04 -2.039689e-04 -3.013172e-04 -4.557733e-04 -6.650095e-04 -9.701968e-04 -1.375758e-03 -1.914973e-03 -2.570625e-03 -3.307581e-03 -4.065336e-03 -4.518212e-03 -3.822405e-03 -1.045884e-03 -2.409142e-04 -2.520191e-03 -1.093791e-03 1.618483e-03 3.654113e-03 8.120331e-03 1.148113e-02 1.590847e-02 1.843536e-02 1.961106e-02 2.232255e-02 2.459213e-02 2.844477e-02 2.828517e-02 2.916775e-02 3.081736e-02 2.804159e-02 2.275723e-02 1.620516e-02 1.110910e-02 7.927559e-03 5.702835e-03 3.989686e-03 2.760023e-03 1.841278e-03 1.226462e-03 7.757660e-04 4.873348e-04 2.816008e-04 1.578880e-04 7.315789e-05 2.629410e-05 -3.982385e-06 -1.800739e-05 -2.566082e-05 -2.683933e-05 -2.657140e-05 -2.422824e-05 -2.300556e-05 -2.114656e-05 -2.118004e-05 -1.991181e-05 -1.995562e-05 -1.735454e-05 -1.582362e-05 -1.157101e-05 -9.309447e-06 -5.282834e-06 -3.942507e-06 -1.408970e-06 -1.239746e-06 -5.803027e-08 -3.135128e-07 2.264009e-07 5.632989e-07 1.013990e-06 2.314112e-06 1.925611e-06 3.079855e-06 -2.116884e-08 -5.327206e-07 -7.661660e-06 -1.056570e-05 -2.151391e-05 -2.704015e-05 -4.120475e-05 -4.355665e-05 -4.451497e-05 -4.845021e-05 -4.103022e-05 -3.503025e-05 -2.029932e-05 
1.094942e-02 9.607504e-03 7.594147e-03 3.864309e-03 7.482598e-04 9.863936e-03 1.565794e-02 9.878890e-03 -2.490380e-03 -2.480432e-02 -1.937798e-02 1.137496e-01 -5.353401e-02 -7.023442e-02 1.356746e-03 1.473043e-03 1.473366e-03 1.473282e-03 1.472913e-03 1.236508e-03 -1.494906e-01 -1.050156e-01 2.614061e-01 1.158814e-01 4.596258e-02 2.868145e-02 2.185372e-02 1.798195e-02 1.512399e-02 1.397365e-02 1.310526e-02 1.302911e-02 1.281815e-02 1.297823e-02 1.294697e-02 1.308396e-02 1.310203e-02 1.316190e-02 1.321055e-02 1.319752e-02 1.327571e-02 1.319857e-02 1.329475e-02 1.315258e-02 1.323396e-02 1.300091e-02 1.299241e-02 1.258469e-02 1.232506e-02 1.154807e-02 1.075971e-02 9.344221e-03 7.782675e-03 5.649682e-03 3.503300e-03 1.348860e-03 -3.408459e-04 -1.806724e-03 -2.412173e-03 -2.070492e-03 -7.461003e-04 1.577127e-03 4.590394e-03 8.205495e-03 1.200149e-02 1.607620e-02 1.973349e-02 2.327124e-02 2.626669e-02 2.837397e-02 2.957203e-02 2.981083e-02 2.882181e-02 2.682609e-02 2.423376e-02 2.180206e-02 1.955569e-02 1.775025e-02 1.626904e-02 1.521758e-02 1.446204e-02 1.395281e-02 1.365563e-02 1.342822e-02 1.336509e-02 1.325307e-02 1.329274e-02 1.321661e-02 1.329532e-02 1.322764e-02 1.331532e-02 1.325138e-02 1.332994e-02 1.327393e-02 1.332981e-02 1.329123e-02 1.331427e-02 1.330609e-02 1.328823e-02 1.332320e-02 1.325628e-02 1.334277e-02 1.321846e-02 1.335950e-02 1.317269e-02 1.336665e-02 1.311799e-02 1.335656e-02 1.305069e-02 1.331077e-02 1.294304e-02 1.316094e-02 1.267602e-02 1.268767e-02 1.189980e-02 1.136908e-02 9.933575e-03 8.483842e-03 6.233156e-03 4.156357e-03 2.707450e-03 6.216012e-03 1.141353e-02 7.266691e-03 6.625388e-03 9.615057e-03 1.169423e-02 1.172881e-02 
1.767130e-02 1.149954e-02 -7.367492e-04 -1.799647e-02 1.297599e-02 2.000660e-01 1.253111e-01 7.668878e-02 1.069613e-01 3.990126e-02 7.978091e-02 2.966542e-01 -1.173743e-01 -1.805688e-01 4.607007e-03 4.529942e-03 4.814075e-03 4.667566e-03 4.620937e-03 4.427790e-03 -2.806503e-01 -1.938032e-01 5.153215e-01 2.543899e-01 1.217210e-01 9.864057e-02 8.547985e-02 8.747272e-02 8.014889e-02 8.475736e-02 7.988240e-02 8.478371e-02 8.098139e-02 8.511254e-02 8.211561e-02 8.518576e-02 8.303918e-02 8.502884e-02 8.378253e-02 8.477558e-02 8.439629e-02 8.452490e-02 8.489388e-02 8.431575e-02 8.525026e-02 8.410990e-02 8.534515e-02 8.369879e-02 8.484997e-02 8.258495e-02 8.309973e-02 7.992687e-02 7.926408e-02 7.507250e-02 7.320631e-02 6.846557e-02 6.587890e-02 6.136101e-02 6.181419e-02 5.953521e-02 6.079594e-02 6.236908e-02 6.464032e-02 6.908725e-02 7.251064e-02 7.847262e-02 8.275356e-02 8.451141e-02 8.980136e-02 8.974798e-02 9.346757e-02 9.376422e-02 9.199341e-02 9.309380e-02 9.038456e-02 9.036534e-02 8.742007e-02 8.720016e-02 8.504103e-02 8.500805e-02 8.392401e-02 8.400983e-02 8.379414e-02 8.376433e-02 8.408865e-02 8.382225e-02 8.443119e-02 8.396499e-02 8.467406e-02 8.413937e-02 8.477909e-02 8.434060e-02 8.473119e-02 8.457268e-02 8.453049e-02 8.484333e-02 8.418847e-02 8.515710e-02 8.373753e-02 8.551639e-02 8.322651e-02 8.589475e-02 8.270201e-02 8.623317e-02 8.222438e-02 8.646812e-02 8.187550e-02 8.652906e-02 8.172818e-02 8.631969e-02 8.179846e-02 8.565818e-02 8.190547e-02 8.407543e-02 8.132844e-02 8.037290e-02 7.822555e-02 7.211772e-02 6.932133e-02 5.647291e-02 6.000509e-02 7.041276e-02 1.401079e-01 1.026600e-01 2.568488e-02 9.811317e-03 1.725373e-02 1.992230e-02 
1.389111e-02 -1.638809e-03 -3.267726e-02 7.140153e-03 4.898486e-01 1.919055e+00 -1.062567e-01 -3.430046e-01 4.818835e-01 1.037524e-01 3.996533e-01 2.474676e-01 -2.562849e-01 -7.573814e-02 5.424114e-02 4.502396e-02 5.192955e-02 4.855641e-02 4.711076e-02 5.356650e-02 -1.511740e-01 -2.408390e-01 3.600489e-01 3.332125e-01 2.077352e-01 2.602226e-01 1.985763e-01 2.612064e-01 2.016074e-01 2.612075e-01 2.050310e-01 2.591516e-01 2.090483e-01 2.558183e-01 2.145237e-01 2.529587e-01 2.215803e-01 2.503940e-01 2.279966e-01 2.470354e-01 2.332019e-01 2.445550e-01 2.390274e-01 2.447480e-01 2.457071e-01 2.463263e-01 2.509853e-01 2.471021e-01 2.539229e-01 2.467016e-01 2.540751e-01 2.433297e-01 2.491323e-01 2.343341e-01 2.366166e-01 2.157890e-01 2.106422e-01 1.847902e-01 2.024930e-01 1.782692e-01 1.875539e-01 1.815178e-01 1.809635e-01 1.852686e-01 1.860791e-01 1.882221e-01 2.051929e-01 1.796343e-01 2.159202e-01 1.821542e-01 2.124475e-01 2.045217e-01 1.996771e-01 2.248929e-01 2.209399e-01 2.430183e-01 2.328060e-01 2.498808e-01 2.379654e-01 2.499758e-01 2.391112e-01 2.471942e-01 2.395670e-01 2.455374e-01 2.411942e-01 2.455507e-01 2.424568e-01 2.456906e-01 2.422709e-01 2.461201e-01 2.414544e-01 2.476692e-01 2.403303e-01 2.500515e-01 2.386570e-01 2.530601e-01 2.364080e-01 2.558678e-01 2.325205e-01 2.570690e-01 2.273073e-01 2.576724e-01 2.233388e-01 2.586820e-01 2.217288e-01 2.591613e-01 2.227291e-01 2.579666e-01 2.263408e-01 2.535049e-01 2.320646e-01 2.449559e-01 2.406741e-01 2.333495e-01 2.529377e-01 2.184323e-01 2.655103e-01 1.948257e-01 2.685892e-01 1.461077e-01 2.620680e-01 -5.870726e-02 3.621570e-01 8.587295e-01 3.746628e-01 2.630706e-02 -7.329675e-03 1.061327e-02 
-7.658579e-03 -2.811268e-02 7.032007e-03 5.196238e-01 1.311573e+00 1.857979e+00 -5.761616e-01 -7.088124e-01 4.793913e-01 5.965324e-04 4.647377e-01 1.234212e-01 3.018563e-01 1.193728e-01 3.958870e-01 1.801776e-01 3.542145e-01 2.190316e-01 3.052545e-01 2.790474e-01 2.540059e-01 2.090642e-01 1.273000e-01 3.305957e-01 9.352620e-02 3.089411e-01 1.154306e-01 3.016029e-01 1.249361e-01 2.750373e-01 1.273127e-01 2.449697e-01 1.335304e-01 2.227005e-01 1.581381e-01 2.275614e-01 2.022513e-01 2.359182e-01 2.208425e-01 2.130559e-01 2.094381e-01 1.898152e-01 2.155879e-01 2.061937e-01 2.505516e-01 2.375740e-01 2.722148e-01 2.504143e-01 2.769077e-01 2.621535e-01 2.863472e-01 2.829984e-01 3.069115e-01 3.194721e-01 3.411528e-01 3.520753e-01 3.485292e-01 3.467253e-01 3.578561e-01 3.574948e-01 3.683756e-01 3.789075e-01 3.798082e-01 3.831146e-01 3.833224e-01 3.772905e-01 3.976488e-01 3.658403e-01 4.080022e-01 3.467578e-01 3.782249e-01 3.170182e-01 3.274197e-01 2.959214e-01 3.243152e-01 2.955176e-01 3.227606e-01 2.985941e-01 3.089663e-01 2.809934e-01 2.614618e-01 2.449395e-01 2.166618e-01 2.405891e-01 2.091843e-01 2.623209e-01 2.040796e-01 2.672040e-01 1.798697e-01 2.574467e-01 1.599167e-01 2.556911e-01 1.575176e-01 2.601364e-01 1.693914e-01 2.703013e-01 1.952915e-01 2.721932e-01 2.038922e-01 2.347331e-01 1.876304e-01 1.869369e-01 1.910748e-01 1.659741e-01 2.223599e-01 1.641326e-01 2.637223e-01 1.679126e-01 2.942914e-01 1.561324e-01 2.900668e-01 1.244336e-01 2.659928e-01 1.100104e-01 2.574604e-01 1.365783e-01 2.579944e-01 1.835556e-01 2.316217e-01 2.361452e-01 1.394494e-01 8.254252e-02 -1.222951e+00 9.072615e-01 2.218045e+00 3.840953e-01 -2.419394e-02 -1.876884e-02 
-1.509536e-02 -1.585869e-02 1.404988e-01 9.061239e-01 9.260573e-01 -1.839410e+00 -6.457235e-02 3.756440e-01 -5.421275e-02 8.678575e-02 -1.275036e-03 -2.434375e-02 5.950609e-01 2.495035e-01 2.951942e-01 2.364030e-01 3.115718e-01 2.395223e-01 2.868739e-01 2.953793e-01 2.165109e-01 6.714092e-01 -9.234717e-02 1.384486e-01 -3.418935e-02 1.514067e-01 -2.965616e-03 1.340688e-01 8.807311e-03 9.537579e-02 1.058789e-02 5.694263e-02 1.561353e-02 3.276028e-02 4.370685e-02 4.871936e-02 9.666437e-02 6.886456e-02 1.103428e-01 4.219692e-02 7.963344e-02 1.285315e-02 7.441260e-02 3.887305e-02 1.119221e-01 8.515416e-02 1.322984e-01 1.048822e-01 1.322703e-01 1.259617e-01 1.464407e-01 1.680718e-01 1.899423e-01 2.476636e-01 2.733844e-01 3.454534e-01 3.497871e-01 4.130402e-01 3.797410e-01 4.441772e-01 4.322610e-01 4.668946e-01 4.676269e-01 4.657850e-01 4.643032e-01 4.584002e-01 4.506045e-01 4.704417e-01 4.419076e-01 4.354403e-01 4.057868e-01 3.318209e-01 3.589904e-01 2.383544e-01 2.940777e-01 1.847025e-01 2.565902e-01 1.678831e-01 2.192977e-01 1.391846e-01 1.417162e-01 9.128126e-02 7.117763e-02 9.098010e-02 5.597906e-02 1.271522e-01 4.496033e-02 1.363138e-01 7.385189e-03 1.214981e-01 -2.213522e-02 1.159351e-01 -2.351235e-02 1.175216e-01 -1.021762e-03 1.261058e-01 4.520321e-02 1.218746e-01 6.891839e-02 5.978275e-02 5.755309e-02 -1.730139e-02 7.416372e-02 -5.380500e-02 1.284325e-01 -5.926385e-02 1.917888e-01 -5.160777e-02 2.314160e-01 -5.963834e-02 2.107725e-01 -8.802204e-02 1.505544e-01 -8.189223e-02 1.022085e-01 -6.281130e-03 5.846129e-02 1.117222e-01 -2.833143e-02 2.701972e-01 -2.150951e-01 7.293610e-01 -2.061034e+00 -1.380901e-01 2.609463e+00 3.863842e-01 -6.057152e-02 -3.608881e-02 
-6.791964e-05 -3.883043e-03 6.622117e-02 3.550849e-01 -1.920847e-02 -2.719240e+00 4.804980e-01 9.539148e-01 -3.120533e-01 1.748622e-01 -1.548325e-01 2.420310e-01 -1.007250e+00 -7.014483e-02 -3.808939e-01 -8.899508e-02 -3.530033e-01 -4.122820e-02 -3.424146e-01 -6.338330e-02 -3.447810e-01 -8.040592e-01 7.376673e-02 2.713592e-02 -2.929123e-02 -3.703258e-02 -2.391313e-02 -3.988279e-02 -1.452651e-02 -5.017287e-02 -1.114986e-02 -5.914518e-02 -9.164477e-03 -6.246801e-02 -2.043239e-03 -5.195047e-02 1.124251e-02 -4.043117e-02 9.611327e-03 -4.549948e-02 -7.786032e-03 -5.229632e-02 -1.645686e-02 -4.096668e-02 -9.919594e-03 -2.319684e-02 -7.861149e-03 -1.404528e-02 -1.031787e-02 -2.906691e-03 -4.297853e-03 1.873403e-02 1.771366e-02 5.956572e-02 6.282572e-02 1.182944e-01 1.222190e-01 1.792837e-01 1.399674e-01 1.973598e-01 1.775856e-01 2.003144e-01 1.997573e-01 1.957779e-01 1.947173e-01 1.943618e-01 1.755749e-01 2.173314e-01 1.620696e-01 2.017889e-01 1.526658e-01 1.333620e-01 1.501346e-01 6.598103e-02 9.444525e-02 1.797659e-02 6.135620e-02 -3.755020e-04 3.832120e-02 -1.203789e-02 7.155909e-03 -2.511242e-02 -1.942120e-02 -2.064341e-02 -2.658504e-02 -4.478192e-03 -3.227414e-02 9.590443e-04 -4.668014e-02 -3.370843e-03 -5.747231e-02 -5.969286e-03 -5.727999e-02 -7.354014e-03 -4.715736e-02 -7.300239e-03 -2.688943e-02 -1.239090e-02 -1.264803e-02 -3.806113e-02 -9.500597e-03 -6.923546e-02 3.278067e-03 -8.607346e-02 2.778805e-02 -9.092272e-02 5.274259e-02 -8.884276e-02 6.553340e-02 -8.845879e-02 5.258594e-02 -9.031729e-02 2.017466e-02 -7.516240e-02 -1.477644e-02 -3.159940e-02 -5.608698e-02 2.822015e-02 -1.272987e-01 9.279430e-02 -2.920903e-01 5.105457e-01 -8.146345e-01 -4.533624e-01 8.926003e-01 1.503849e-01 -9.046091e-03 -4.073671e-03 
6.035874e-03 4.567953e-03 1.355485e-02 4.291898e-02 -9.281856e-02 -8.983489e-01 9.025283e-02 2.733509e-01 -1.749725e-01 1.188371e-02 -9.936068e-02 2.057854e-01 -9.316796e-03 -2.790488e-01 -2.993072e-01 -1.234324e-02 -3.878028e-01 -1.670404e-01 -2.785817e-01 -4.016466e-01 -2.283448e-01 5.544266e-02 1.221835e-01 -6.153577e-02 -7.064085e-02 -9.587688e-02 -6.464841e-02 -9.064124e-02 -6.084438e-02 -8.841621e-02 -5.910714e-02 -8.615002e-02 -5.874334e-02 -8.377301e-02 -5.966442e-02 -8.139416e-02 -6.159122e-02 -7.918794e-02 -6.416913e-02 -7.722175e-02 -6.696536e-02 -7.548791e-02 -6.958175e-02 -7.388845e-02 -7.171721e-02 -7.235018e-02 -7.320758e-02 -7.087449e-02 -7.430452e-02 -7.015372e-02 -7.604633e-02 -7.115936e-02 -7.897848e-02 -7.333472e-02 -8.017297e-02 -6.935979e-02 -7.191715e-02 -5.978141e-02 -7.288906e-02 -5.816700e-02 -6.259555e-02 -5.324308e-02 -4.766971e-02 -4.394614e-02 -3.575292e-02 -2.369010e-02 -2.755346e-02 -1.167201e-02 -2.356102e-02 -3.202937e-03 -1.363441e-02 -1.264609e-02 -1.355511e-02 -3.401018e-02 -3.459516e-02 -5.546984e-02 -5.130032e-02 -6.815242e-02 -6.245527e-02 -7.436689e-02 -6.825673e-02 -7.507112e-02 -7.021861e-02 -7.314848e-02 -7.073044e-02 -7.096964e-02 -7.110968e-02 -6.951953e-02 -7.155302e-02 -6.891904e-02 -7.179484e-02 -6.902409e-02 -7.152426e-02 -6.970882e-02 -7.051572e-02 -7.084587e-02 -6.861887e-02 -7.237094e-02 -6.598666e-02 -7.434099e-02 -6.293111e-02 -7.656235e-02 -5.974648e-02 -7.866553e-02 -5.695216e-02 -8.030182e-02 -5.522024e-02 -8.101816e-02 -5.516517e-02 -8.030663e-02 -5.732992e-02 -7.773650e-02 -6.214627e-02 -7.312028e-02 -7.010006e-02 -6.691322e-02 -8.211373e-02 -6.048537e-02 -1.005119e-01 -5.762162e-02 -1.536771e-01 -1.549092e-03 -1.610154e-01 -1.710146e-01 2.487641e-02 1.640138e-02 8.402466e-03 7.277233e-03 
