# vtk DataFile Version 2.0
Comment goes here
ASCII

DATASET STRUCTURED_POINTS
FIELD FieldData 1
TIME 1 1 double
0.63000000
DIMENSIONS    128   16   1

ORIGIN    0.000   0.000   0.000
SPACING   0.0078125 0.015625   1.000

POINT_DATA   2048
SCALARS P double
LOOKUP_TABLE default

1.801722e-01 1.823931e-01 1.804822e-01 1.849242e-01 1.783172e-01 1.865972e-01 1.721002e-01 1.865548e-01 1.733416e-01 1.838598e-01 1.740232e-01 1.796189e-01 1.721419e-01 1.719469e-01 1.646059e-01 1.610936e-01 1.551112e-01 1.476663e-01 1.453343e-01 1.352677e-01 1.364679e-01 1.278844e-01 1.308344e-01 1.237900e-01 1.281014e-01 1.212472e-01 1.268129e-01 1.198263e-01 1.261401e-01 1.188820e-01 1.251336e-01 1.176055e-01 1.232214e-01 1.158328e-01 1.207851e-01 1.141543e-01 1.186028e-01 1.129726e-01 1.168269e-01 1.118913e-01 1.149389e-01 1.102772e-01 1.125888e-01 1.080478e-01 1.100055e-01 1.056208e-01 1.076251e-01 1.034206e-01 1.057028e-01 1.016301e-01 1.042403e-01 1.002417e-01 1.031730e-01 9.939363e-02 1.028468e-01 1.001093e-01 1.049840e-01 1.057811e-01 1.140437e-01 1.113753e-01 1.225817e-01 1.203211e-01 1.308363e-01 1.306745e-01 1.381855e-01 1.414917e-01 1.441702e-01 1.481388e-01 1.539144e-01 1.519620e-01 1.638346e-01 1.560214e-01 1.672327e-01 1.641080e-01 1.687798e-01 1.677005e-01 1.683115e-01 1.690058e-01 1.671611e-01 1.694252e-01 1.664036e-01 1.698472e-01 1.666007e-01 1.704899e-01 1.676384e-01 1.709728e-01 1.689670e-01 1.707771e-01 1.701682e-01 1.698356e-01 1.713724e-01 1.686542e-01 1.729889e-01 1.677620e-01 1.750823e-01 1.672777e-01 1.772910e-01 1.671203e-01 1.791972e-01 1.672745e-01 1.804630e-01 1.677307e-01 1.807911e-01 1.684832e-01 1.801134e-01 1.697363e-01 1.787624e-01 1.718099e-01 1.771522e-01 1.746395e-01 1.753470e-01 1.775968e-01 1.732327e-01 1.799839e-01 1.710718e-01 1.814938e-01 1.695593e-01 1.820316e-01 1.693504e-01 1.814460e-01 1.708048e-01 1.797181e-01 1.740693e-01 1.767992e-01 1.763192e-01 1.774583e-01 1.785268e-01 1.796720e-01 
1.673004e-01 1.699342e-01 1.672795e-01 1.719779e-01 1.642692e-01 1.733250e-01 1.553263e-01 1.713812e-01 1.571500e-01 1.664295e-01 1.585633e-01 1.599856e-01 1.582996e-01 1.507282e-01 1.552716e-01 1.415172e-01 1.514524e-01 1.340545e-01 1.469631e-01 1.280483e-01 1.412765e-01 1.233910e-01 1.347790e-01 1.202637e-01 1.308930e-01 1.183114e-01 1.286805e-01 1.171524e-01 1.270174e-01 1.158479e-01 1.245103e-01 1.134135e-01 1.208464e-01 1.106887e-01 1.178282e-01 1.095623e-01 1.166782e-01 1.097057e-01 1.157535e-01 1.085448e-01 1.127590e-01 1.048215e-01 1.080192e-01 1.002901e-01 1.040820e-01 9.762841e-02 1.027898e-01 9.741263e-02 1.030197e-01 9.744317e-02 1.022212e-01 9.602968e-02 9.996636e-02 9.419633e-02 9.824534e-02 9.494389e-02 1.008520e-01 1.036062e-01 1.142505e-01 1.095305e-01 1.239941e-01 1.187062e-01 1.293766e-01 1.277415e-01 1.304156e-01 1.352872e-01 1.326476e-01 1.376161e-01 1.404004e-01 1.362820e-01 1.519888e-01 1.411202e-01 1.577224e-01 1.536884e-01 1.601059e-01 1.582936e-01 1.585925e-01 1.588192e-01 1.558818e-01 1.582150e-01 1.542511e-01 1.585412e-01 1.548658e-01 1.601356e-01 1.569595e-01 1.615092e-01 1.586884e-01 1.612534e-01 1.594252e-01 1.597357e-01 1.600116e-01 1.580779e-01 1.612751e-01 1.570155e-01 1.633025e-01 1.564690e-01 1.654636e-01 1.563081e-01 1.676563e-01 1.569965e-01 1.696570e-01 1.579864e-01 1.700842e-01 1.582295e-01 1.683873e-01 1.583170e-01 1.659737e-01 1.599059e-01 1.642583e-01 1.632467e-01 1.629323e-01 1.669903e-01 1.611638e-01 1.698655e-01 1.588485e-01 1.714373e-01 1.569797e-01 1.721189e-01 1.567550e-01 1.716873e-01 1.582589e-01 1.693182e-01 1.616734e-01 1.639496e-01 1.638386e-01 1.653591e-01 1.658689e-01 1.675699e-01 
1.831762e-01 1.830574e-01 1.857275e-01 1.868605e-01 1.866516e-01 1.901736e-01 1.573127e-01 1.918058e-01 1.741533e-01 1.863855e-01 1.781427e-01 1.848947e-01 1.816063e-01 1.775934e-01 1.686549e-01 1.662562e-01 1.553683e-01 1.454813e-01 1.430954e-01 1.250382e-01 1.287084e-01 1.188989e-01 1.231481e-01 1.202767e-01 1.258478e-01 1.209732e-01 1.278654e-01 1.216119e-01 1.287327e-01 1.209160e-01 1.266239e-01 1.173040e-01 1.216986e-01 1.132443e-01 1.185922e-01 1.132607e-01 1.199514e-01 1.161911e-01 1.213961e-01 1.156793e-01 1.174278e-01 1.090202e-01 1.092173e-01 1.007950e-01 1.031076e-01 9.742297e-02 1.033424e-01 9.972696e-02 1.064537e-01 1.012376e-01 1.051628e-01 9.647161e-02 9.706295e-02 8.550698e-02 8.365070e-02 6.938842e-02 6.662698e-02 9.992624e-02 1.136876e-01 9.768458e-02 1.267028e-01 1.179942e-01 1.371698e-01 1.312959e-01 1.423188e-01 1.600666e-01 1.250577e-01 1.605769e-01 1.526822e-01 1.525899e-01 1.955917e-01 1.430848e-01 1.810887e-01 1.881891e-01 1.819675e-01 1.812592e-01 1.734736e-01 1.744900e-01 1.659137e-01 1.694682e-01 1.619820e-01 1.685385e-01 1.632483e-01 1.714492e-01 1.674821e-01 1.743124e-01 1.703113e-01 1.738290e-01 1.705579e-01 1.710052e-01 1.703511e-01 1.681755e-01 1.714297e-01 1.665917e-01 1.739498e-01 1.657869e-01 1.766472e-01 1.654427e-01 1.798563e-01 1.668879e-01 1.835614e-01 1.687210e-01 1.844890e-01 1.681086e-01 1.812260e-01 1.663483e-01 1.770886e-01 1.674881e-01 1.752762e-01 1.722762e-01 1.747394e-01 1.779028e-01 1.732759e-01 1.819447e-01 1.702126e-01 1.837900e-01 1.672939e-01 1.848464e-01 1.668076e-01 1.848634e-01 1.682683e-01 1.833012e-01 1.769671e-01 1.702021e-01 1.769616e-01 1.748117e-01 1.800491e-01 1.790107e-01 
1.734341e-01 1.714516e-01 1.795029e-01 1.748562e-01 1.877474e-01 1.765140e-01 1.252686e-01 1.915856e-01 1.728295e-01 1.859759e-01 1.811057e-01 1.860951e-01 1.865828e-01 1.601570e-01 1.386231e-01 1.149805e-01 8.659360e-02 3.673219e-02 3.555382e-02 -3.911154e-02 -2.258125e-02 -6.265684e-02 -4.937061e-02 -5.660441e-02 -4.545536e-02 -5.186026e-02 -4.183420e-02 -4.757662e-02 -3.884309e-02 -4.422830e-02 -3.715673e-02 -4.231296e-02 -3.661579e-02 -4.085148e-02 -3.544589e-02 -3.814445e-02 -3.259849e-02 -3.452413e-02 -2.953917e-02 -3.215327e-02 -2.813282e-02 -3.185549e-02 -2.792549e-02 -3.188940e-02 -2.673723e-02 -2.997318e-02 -2.321261e-02 -2.593860e-02 -1.875538e-02 -2.229102e-02 -1.613449e-02 -2.121078e-02 -1.643483e-02 -2.284582e-02 -1.950109e-02 -2.687365e-02 -2.210681e-02 1.255112e-01 1.609860e-01 9.021652e-02 1.493205e-01 9.900663e-02 1.227761e-01 9.563510e-02 9.586030e-02 1.589643e-01 -6.501524e-03 1.221122e-01 3.879954e-02 1.570844e-02 9.607155e-02 -1.081879e-01 2.920238e-02 5.155883e-02 5.495300e-02 5.354119e-02 5.473474e-02 5.542026e-02 5.537890e-02 5.764283e-02 5.741680e-02 6.108401e-02 6.143280e-02 6.585724e-02 6.678679e-02 7.082948e-02 7.208105e-02 7.501014e-02 7.696531e-02 7.880497e-02 8.215906e-02 8.296045e-02 8.814524e-02 8.776528e-02 9.479641e-02 9.292595e-02 1.014707e-01 9.822492e-02 1.080854e-01 1.040321e-01 1.144707e-01 1.097810e-01 1.193735e-01 1.144429e-01 1.222869e-01 1.184945e-01 1.244498e-01 1.234515e-01 1.271531e-01 1.297128e-01 1.302466e-01 1.364320e-01 1.331859e-01 1.428356e-01 1.359081e-01 1.486986e-01 1.390923e-01 1.544137e-01 1.434569e-01 1.599172e-01 1.485275e-01 1.690326e-01 1.699326e-01 1.565708e-01 1.646241e-01 1.625948e-01 1.686321e-01 1.672831e-01 
1.883542e-01 1.844594e-01 1.969116e-01 1.895242e-01 2.079427e-01 1.929901e-01 1.732095e-01 2.152923e-01 2.151518e-01 2.202278e-01 2.287452e-01 2.249355e-01 2.387878e-01 2.056090e-01 1.083028e-01 1.099701e-01 -4.674643e-02 -1.213447e-01 -2.031531e-01 -3.448328e-01 -3.604921e-01 -3.988201e-01 -3.803710e-01 -3.877126e-01 -3.749003e-01 -3.768050e-01 -3.681677e-01 -3.661932e-01 -3.602999e-01 -3.548819e-01 -3.498568e-01 -3.414442e-01 -3.370215e-01 -3.281952e-01 -3.260743e-01 -3.192894e-01 -3.192592e-01 -3.133399e-01 -3.120619e-01 -3.039816e-01 -2.989970e-01 -2.884071e-01 -2.811665e-01 -2.708880e-01 -2.647935e-01 -2.575324e-01 -2.540615e-01 -2.490528e-01 -2.455685e-01 -2.390459e-01 -2.320719e-01 -2.218680e-01 -2.108348e-01 -1.967313e-01 -1.824719e-01 -1.626205e-01 -1.430129e-01 -2.978318e-03 2.642801e-02 -4.460140e-02 -5.824312e-03 -6.796623e-02 -6.478637e-02 -9.311927e-02 -1.199667e-01 -6.153094e-02 -2.214127e-01 -1.116905e-01 -2.066570e-01 -2.397314e-01 -1.914413e-01 -3.697657e-01 -2.284209e-01 -2.157603e-01 -1.811260e-01 -1.837243e-01 -1.563612e-01 -1.574683e-01 -1.344925e-01 -1.361912e-01 -1.172837e-01 -1.207959e-01 -1.054797e-01 -1.100415e-01 -9.631675e-02 -9.942581e-02 -8.515497e-02 -8.528163e-02 -7.066931e-02 -6.836404e-02 -5.492656e-02 -5.092629e-02 -3.979847e-02 -3.432497e-02 -2.577343e-02 -1.828959e-02 -1.205063e-02 -2.694785e-03 6.109074e-04 1.101424e-02 1.188410e-02 2.409910e-02 2.474253e-02 3.927622e-02 4.053345e-02 5.532624e-02 5.618867e-02 6.844652e-02 6.892720e-02 7.806224e-02 8.018935e-02 8.701502e-02 9.257688e-02 9.766866e-02 1.071693e-01 1.105070e-01 1.225682e-01 1.239115e-01 1.366180e-01 1.379790e-01 1.495641e-01 1.576861e-01 1.725917e-01 1.663684e-01 1.740152e-01 1.729166e-01 1.810474e-01 1.788105e-01 
1.728597e-01 1.739667e-01 1.798662e-01 1.808461e-01 1.865092e-01 1.879455e-01 1.895177e-01 2.025327e-01 2.044956e-01 2.141372e-01 2.173894e-01 2.247202e-01 2.288296e-01 2.338804e-01 7.583443e-02 6.488940e-02 -8.227338e-02 -1.097554e-01 -2.456460e-01 -2.772804e-01 -4.166308e-01 -4.231185e-01 -4.080304e-01 -4.111606e-01 -3.983556e-01 -3.992705e-01 -3.890510e-01 -3.877377e-01 -3.794601e-01 -3.757167e-01 -3.681481e-01 -3.621424e-01 -3.551626e-01 -3.488137e-01 -3.437195e-01 -3.388758e-01 -3.354873e-01 -3.312411e-01 -3.270179e-01 -3.210566e-01 -3.141589e-01 -3.062243e-01 -2.977961e-01 -2.900852e-01 -2.827255e-01 -2.773836e-01 -2.721815e-01 -2.687343e-01 -2.636585e-01 -2.594012e-01 -2.518466e-01 -2.454409e-01 -2.351487e-01 -2.272330e-01 -2.152475e-01 -2.064771e-01 -1.938178e-01 -1.794090e-01 -1.760291e-01 -1.904467e-01 -1.884500e-01 -2.049311e-01 -2.054732e-01 -2.135322e-01 -2.168545e-01 -2.146387e-01 -2.265461e-01 -2.194733e-01 -2.273031e-01 -2.340862e-01 -2.302318e-01 -2.456067e-01 -2.151217e-01 -2.153017e-01 -1.920455e-01 -1.930632e-01 -1.711034e-01 -1.720807e-01 -1.516205e-01 -1.534145e-01 -1.353189e-01 -1.385338e-01 -1.230236e-01 -1.268702e-01 -1.127564e-01 -1.151778e-01 -1.010390e-01 -1.007392e-01 -8.685648e-02 -8.413962e-02 -7.177043e-02 -6.711361e-02 -5.721096e-02 -5.071833e-02 -4.354063e-02 -3.479096e-02 -3.012497e-02 -1.925697e-02 -1.744234e-02 -5.167055e-03 -5.624117e-03 8.455207e-03 7.628306e-03 2.363773e-02 2.332353e-02 3.941767e-02 3.909828e-02 5.286727e-02 5.276562e-02 6.350031e-02 6.531701e-02 7.345522e-02 7.865029e-02 8.456649e-02 9.352202e-02 9.724630e-02 1.088305e-01 1.103149e-01 1.229682e-01 1.237349e-01 1.362782e-01 1.388054e-01 1.497013e-01 1.540088e-01 1.581819e-01 1.606399e-01 1.657310e-01 1.672617e-01 
1.866270e-01 1.858813e-01 1.948409e-01 1.944512e-01 2.024773e-01 2.038316e-01 2.082924e-01 2.155505e-01 2.214512e-01 2.267583e-01 2.349695e-01 2.385995e-01 2.486091e-01 2.523077e-01 8.775848e-02 8.085878e-02 -7.734182e-02 -9.802113e-02 -2.470491e-01 -2.707159e-01 -4.229103e-01 -4.233575e-01 -4.091619e-01 -4.093913e-01 -3.972544e-01 -3.961883e-01 -3.862451e-01 -3.835056e-01 -3.754486e-01 -3.710150e-01 -3.643471e-01 -3.585175e-01 -3.529473e-01 -3.464235e-01 -3.418837e-01 -3.352872e-01 -3.313817e-01 -3.246990e-01 -3.205859e-01 -3.134689e-01 -3.085437e-01 -3.010653e-01 -2.954858e-01 -2.882618e-01 -2.826036e-01 -2.762007e-01 -2.707048e-01 -2.650521e-01 -2.592667e-01 -2.538228e-01 -2.471888e-01 -2.418319e-01 -2.344500e-01 -2.300082e-01 -2.227631e-01 -2.213611e-01 -2.160619e-01 -2.226969e-01 -2.219747e-01 -2.183548e-01 -2.207102e-01 -2.166193e-01 -2.128419e-01 -2.150243e-01 -2.013668e-01 -2.114339e-01 -1.925797e-01 -2.021672e-01 -1.886504e-01 -1.880495e-01 -1.870659e-01 -1.797961e-01 -1.796686e-01 -1.800274e-01 -1.697897e-01 -1.705339e-01 -1.562566e-01 -1.570897e-01 -1.416080e-01 -1.426506e-01 -1.273784e-01 -1.286609e-01 -1.141566e-01 -1.153000e-01 -1.015108e-01 -1.018084e-01 -8.854186e-02 -8.744384e-02 -7.486253e-02 -7.222242e-02 -6.076881e-02 -5.661149e-02 -4.669346e-02 -4.103672e-02 -3.285094e-02 -2.566642e-02 -1.920865e-02 -1.060615e-02 -5.797504e-03 3.975318e-03 7.514878e-03 1.829599e-02 2.124532e-02 3.269075e-02 3.556693e-02 4.687539e-02 4.993941e-02 6.019936e-02 6.384681e-02 7.256504e-02 7.745195e-02 8.454382e-02 9.120418e-02 9.673999e-02 1.052818e-01 1.093758e-01 1.193846e-01 1.222542e-01 1.330656e-01 1.352279e-01 1.462429e-01 1.481392e-01 1.590631e-01 1.594510e-01 1.690458e-01 1.688809e-01 1.780907e-01 1.775132e-01 
1.721499e-01 1.750690e-01 1.806448e-01 1.841873e-01 1.893749e-01 1.941755e-01 1.988401e-01 2.057387e-01 2.106862e-01 2.181729e-01 2.241376e-01 2.316752e-01 2.392732e-01 2.469028e-01 7.343160e-02 7.322685e-02 -9.298533e-02 -9.829992e-02 -2.620346e-01 -2.668957e-01 -4.350939e-01 -4.327917e-01 -4.184856e-01 -4.171465e-01 -4.044457e-01 -4.029534e-01 -3.919301e-01 -3.896871e-01 -3.801663e-01 -3.769255e-01 -3.685701e-01 -3.644063e-01 -3.569657e-01 -3.522888e-01 -3.456393e-01 -3.408774e-01 -3.347247e-01 -3.299582e-01 -3.237594e-01 -3.188454e-01 -3.121888e-01 -3.071850e-01 -3.001074e-01 -2.953724e-01 -2.881849e-01 -2.840592e-01 -2.769158e-01 -2.733855e-01 -2.660739e-01 -2.628491e-01 -2.550921e-01 -2.520680e-01 -2.439366e-01 -2.414638e-01 -2.334549e-01 -2.324160e-01 -2.254610e-01 -2.276254e-01 -2.228542e-01 -2.221092e-01 -2.194504e-01 -2.189167e-01 -2.135994e-01 -2.165671e-01 -2.064289e-01 -2.112519e-01 -1.994931e-01 -2.035341e-01 -1.950844e-01 -1.960399e-01 -1.911406e-01 -1.908016e-01 -1.851055e-01 -1.864243e-01 -1.754357e-01 -1.765554e-01 -1.630481e-01 -1.640993e-01 -1.496183e-01 -1.507092e-01 -1.362051e-01 -1.372917e-01 -1.232725e-01 -1.240199e-01 -1.106370e-01 -1.104939e-01 -9.780139e-02 -9.629809e-02 -8.453604e-02 -8.145674e-02 -7.102295e-02 -6.629983e-02 -5.754813e-02 -5.114698e-02 -4.424486e-02 -3.614555e-02 -3.106245e-02 -2.137322e-02 -1.794311e-02 -6.916779e-03 -4.738185e-03 7.330622e-03 8.867878e-03 2.151368e-02 2.296196e-02 3.543248e-02 3.720919e-02 4.869676e-02 5.126944e-02 6.125121e-02 6.517847e-02 7.345856e-02 7.913974e-02 8.572210e-02 9.317575e-02 9.820299e-02 1.070066e-01 1.108008e-01 1.202595e-01 1.233961e-01 1.327343e-01 1.358028e-01 1.442591e-01 1.473907e-01 1.543736e-01 1.572570e-01 1.635239e-01 1.662708e-01 
1.858767e-01 1.861829e-01 1.946854e-01 1.956461e-01 2.035219e-01 2.058178e-01 2.129922e-01 2.171183e-01 2.249545e-01 2.293619e-01 2.387719e-01 2.430183e-01 2.544862e-01 2.588686e-01 8.601626e-02 8.323567e-02 -8.339609e-02 -9.115888e-02 -2.558368e-01 -2.621710e-01 -4.325129e-01 -4.289414e-01 -4.152218e-01 -4.128311e-01 -4.008169e-01 -3.983430e-01 -3.881292e-01 -3.849209e-01 -3.763783e-01 -3.721897e-01 -3.650081e-01 -3.598719e-01 -3.536941e-01 -3.478595e-01 -3.423738e-01 -3.361943e-01 -3.311145e-01 -3.248970e-01 -3.199207e-01 -3.138565e-01 -3.087054e-01 -3.029163e-01 -2.974192e-01 -2.920177e-01 -2.861324e-01 -2.812232e-01 -2.749902e-01 -2.706488e-01 -2.641436e-01 -2.604210e-01 -2.537418e-01 -2.507022e-01 -2.439945e-01 -2.417645e-01 -2.352616e-01 -2.340245e-01 -2.280391e-01 -2.277590e-01 -2.224555e-01 -2.216615e-01 -2.164396e-01 -2.159733e-01 -2.094286e-01 -2.102770e-01 -2.017760e-01 -2.038688e-01 -1.942684e-01 -1.961610e-01 -1.871660e-01 -1.874988e-01 -1.799092e-01 -1.791450e-01 -1.714397e-01 -1.711453e-01 -1.616401e-01 -1.616445e-01 -1.504652e-01 -1.506037e-01 -1.383086e-01 -1.384598e-01 -1.256149e-01 -1.256363e-01 -1.126925e-01 -1.123684e-01 -9.965524e-02 -9.870526e-02 -8.648444e-02 -8.462888e-02 -7.315954e-02 -7.019055e-02 -5.974682e-02 -5.554610e-02 -4.635812e-02 -4.086483e-02 -3.304151e-02 -2.624310e-02 -1.974922e-02 -1.171794e-02 -6.390222e-03 2.686248e-03 7.124922e-03 1.694256e-02 2.085947e-02 3.100797e-02 3.481190e-02 4.480328e-02 4.890173e-02 5.824891e-02 6.303208e-02 7.135090e-02 7.715857e-02 8.422149e-02 9.125937e-02 9.698582e-02 1.052450e-01 1.096853e-01 1.189434e-01 1.222719e-01 1.321707e-01 1.346253e-01 1.447719e-01 1.465084e-01 1.565649e-01 1.575181e-01 1.671320e-01 1.675559e-01 1.767906e-01 1.769682e-01 
1.719394e-01 1.748672e-01 1.803953e-01 1.839326e-01 1.890894e-01 1.938675e-01 1.985323e-01 2.053929e-01 2.103985e-01 2.178345e-01 2.239247e-01 2.313703e-01 2.391298e-01 2.465887e-01 7.333037e-02 7.296674e-02 -9.316738e-02 -9.856913e-02 -2.623830e-01 -2.673095e-01 -4.355782e-01 -4.334694e-01 -4.188838e-01 -4.175271e-01 -4.045512e-01 -4.029731e-01 -3.918244e-01 -3.896218e-01 -3.802027e-01 -3.771622e-01 -3.690225e-01 -3.650608e-01 -3.576555e-01 -3.529379e-01 -3.459119e-01 -3.409090e-01 -3.341650e-01 -3.294488e-01 -3.229222e-01 -3.188245e-01 -3.122625e-01 -3.087538e-01 -3.017840e-01 -2.986630e-01 -2.910313e-01 -2.881770e-01 -2.799424e-01 -2.774891e-01 -2.690500e-01 -2.672765e-01 -2.590326e-01 -2.579883e-01 -2.500244e-01 -2.494645e-01 -2.416804e-01 -2.413443e-01 -2.337558e-01 -2.335706e-01 -2.264154e-01 -2.261654e-01 -2.195358e-01 -2.197962e-01 -2.131288e-01 -2.142387e-01 -2.069718e-01 -2.084452e-01 -2.006892e-01 -2.018789e-01 -1.941191e-01 -1.947366e-01 -1.869571e-01 -1.873543e-01 -1.789009e-01 -1.795244e-01 -1.696708e-01 -1.703969e-01 -1.591582e-01 -1.598542e-01 -1.475488e-01 -1.481132e-01 -1.351683e-01 -1.354664e-01 -1.223328e-01 -1.221860e-01 -1.093186e-01 -1.084889e-01 -9.628297e-02 -9.443877e-02 -8.320671e-02 -8.003601e-02 -7.012238e-02 -6.547002e-02 -5.719891e-02 -5.097043e-02 -4.446526e-02 -3.658454e-02 -3.174717e-02 -2.222700e-02 -1.878565e-02 -7.831606e-03 -5.456206e-03 6.462131e-03 8.155960e-03 2.044565e-02 2.198822e-02 3.406463e-02 3.606819e-02 4.736512e-02 5.037768e-02 6.039028e-02 6.482951e-02 7.323693e-02 7.932729e-02 8.600771e-02 9.364492e-02 9.868988e-02 1.074856e-01 1.112909e-01 1.206470e-01 1.237944e-01 1.329555e-01 1.360138e-01 1.442897e-01 1.474289e-01 1.542813e-01 1.571823e-01 1.633601e-01 1.661239e-01 
1.861842e-01 1.854421e-01 1.943254e-01 1.939009e-01 2.018802e-01 2.031634e-01 2.076566e-01 2.148344e-01 2.209539e-01 2.261521e-01 2.347551e-01 2.381541e-01 2.486192e-01 2.518426e-01 8.804361e-02 8.065880e-02 -7.733693e-02 -9.782656e-02 -2.476826e-01 -2.705926e-01 -4.239819e-01 -4.243130e-01 -4.100352e-01 -4.099727e-01 -3.976455e-01 -3.962970e-01 -3.863117e-01 -3.835956e-01 -3.758018e-01 -3.717207e-01 -3.654504e-01 -3.600090e-01 -3.544681e-01 -3.479094e-01 -3.426207e-01 -3.356320e-01 -3.305854e-01 -3.240686e-01 -3.193413e-01 -3.138438e-01 -3.091513e-01 -3.046015e-01 -2.993554e-01 -2.953583e-01 -2.890842e-01 -2.853669e-01 -2.780956e-01 -2.748607e-01 -2.672452e-01 -2.649881e-01 -2.576830e-01 -2.564548e-01 -2.494901e-01 -2.487410e-01 -2.417290e-01 -2.408079e-01 -2.334712e-01 -2.321493e-01 -2.246712e-01 -2.233324e-01 -2.161602e-01 -2.153649e-01 -2.085934e-01 -2.083917e-01 -2.016048e-01 -2.015155e-01 -1.943377e-01 -1.939800e-01 -1.863155e-01 -1.857167e-01 -1.776172e-01 -1.770828e-01 -1.685271e-01 -1.682708e-01 -1.589911e-01 -1.589150e-01 -1.486002e-01 -1.485302e-01 -1.371576e-01 -1.369879e-01 -1.247663e-01 -1.243902e-01 -1.116877e-01 -1.110176e-01 -9.833381e-02 -9.725552e-02 -8.504333e-02 -8.326189e-02 -7.180770e-02 -6.898322e-02 -5.862889e-02 -5.462784e-02 -4.573469e-02 -4.045454e-02 -3.313528e-02 -2.643311e-02 -2.055740e-02 -1.234540e-02 -7.608392e-03 1.989197e-03 5.856493e-03 1.635332e-02 1.960143e-02 3.040612e-02 3.350678e-02 4.413033e-02 4.770190e-02 5.767337e-02 6.223305e-02 7.106279e-02 7.696888e-02 8.432486e-02 9.177664e-02 9.749256e-02 1.063591e-01 1.104482e-01 1.203886e-01 1.232260e-01 1.337811e-01 1.359060e-01 1.465277e-01 1.483629e-01 1.589340e-01 1.593656e-01 1.687464e-01 1.686374e-01 1.777099e-01 1.771687e-01 
1.721977e-01 1.733522e-01 1.791053e-01 1.800840e-01 1.855978e-01 1.869589e-01 1.884251e-01 2.013150e-01 2.034144e-01 2.130171e-01 2.167719e-01 2.239761e-01 2.286345e-01 2.330650e-01 7.602279e-02 6.436135e-02 -8.247731e-02 -1.100208e-01 -2.468132e-01 -2.780451e-01 -4.188514e-01 -4.259584e-01 -4.100474e-01 -4.125602e-01 -3.983443e-01 -3.982264e-01 -3.873186e-01 -3.859942e-01 -3.784733e-01 -3.759641e-01 -3.702191e-01 -3.657982e-01 -3.598497e-01 -3.532091e-01 -3.461970e-01 -3.386644e-01 -3.315885e-01 -3.255953e-01 -3.197528e-01 -3.165878e-01 -3.116122e-01 -3.104029e-01 -3.045571e-01 -3.035338e-01 -2.952227e-01 -2.931022e-01 -2.821833e-01 -2.796913e-01 -2.685258e-01 -2.680061e-01 -2.589355e-01 -2.608507e-01 -2.534534e-01 -2.558503e-01 -2.482279e-01 -2.488883e-01 -2.397233e-01 -2.380593e-01 -2.281387e-01 -2.260841e-01 -2.177381e-01 -2.174306e-01 -2.116651e-01 -2.128523e-01 -2.080197e-01 -2.087314e-01 -2.030365e-01 -2.025327e-01 -1.955191e-01 -1.943989e-01 -1.863520e-01 -1.856971e-01 -1.773938e-01 -1.778118e-01 -1.690356e-01 -1.698978e-01 -1.596543e-01 -1.604018e-01 -1.485639e-01 -1.491391e-01 -1.359511e-01 -1.361753e-01 -1.221079e-01 -1.220183e-01 -1.080861e-01 -1.078954e-01 -9.492723e-02 -9.398959e-02 -8.190972e-02 -7.926806e-02 -6.857829e-02 -6.437487e-02 -5.609028e-02 -5.033965e-02 -4.462307e-02 -3.691088e-02 -3.340508e-02 -2.323321e-02 -2.109928e-02 -8.340936e-03 -7.304482e-03 6.833224e-03 6.564169e-03 2.083455e-02 2.002405e-02 3.397007e-02 3.400933e-02 4.713452e-02 4.891634e-02 6.024326e-02 6.429558e-02 7.331846e-02 8.023262e-02 8.664697e-02 9.601659e-02 9.949908e-02 1.106732e-01 1.121646e-01 1.244300e-01 1.253122e-01 1.370386e-01 1.393807e-01 1.495197e-01 1.538837e-01 1.576999e-01 1.602519e-01 1.651398e-01 1.667520e-01 
1.875102e-01 1.836453e-01 1.959149e-01 1.884505e-01 2.065754e-01 1.913809e-01 1.712503e-01 2.133214e-01 2.137115e-01 2.189540e-01 2.286253e-01 2.248079e-01 2.399153e-01 2.056087e-01 1.111067e-01 1.091680e-01 -4.524121e-02 -1.190660e-01 -2.050644e-01 -3.405791e-01 -3.626968e-01 -4.007201e-01 -3.827147e-01 -3.890159e-01 -3.751762e-01 -3.757590e-01 -3.665943e-01 -3.646633e-01 -3.598019e-01 -3.559990e-01 -3.532060e-01 -3.468454e-01 -3.435653e-01 -3.343332e-01 -3.295209e-01 -3.191538e-01 -3.141924e-01 -3.058419e-01 -3.024727e-01 -2.978090e-01 -2.955753e-01 -2.934906e-01 -2.901443e-01 -2.883978e-01 -2.818526e-01 -2.787969e-01 -2.688028e-01 -2.653545e-01 -2.549235e-01 -2.540907e-01 -2.462056e-01 -2.484973e-01 -2.425237e-01 -2.452877e-01 -2.386745e-01 -2.388900e-01 -2.297835e-01 -2.264605e-01 -2.156613e-01 -2.122503e-01 -2.029710e-01 -2.017693e-01 -1.959225e-01 -1.962563e-01 -1.920720e-01 -1.912225e-01 -1.866279e-01 -1.841640e-01 -1.776476e-01 -1.753659e-01 -1.669842e-01 -1.662331e-01 -1.578543e-01 -1.580271e-01 -1.500887e-01 -1.505304e-01 -1.413290e-01 -1.414070e-01 -1.304902e-01 -1.302962e-01 -1.177628e-01 -1.172344e-01 -1.035045e-01 -1.028652e-01 -8.909755e-02 -8.881382e-02 -7.592845e-02 -7.531444e-02 -6.301998e-02 -6.095209e-02 -4.974627e-02 -4.654153e-02 -3.764305e-02 -3.338366e-02 -2.693009e-02 -2.105772e-02 -1.659114e-02 -8.353507e-03 -4.858067e-03 6.106646e-03 8.809970e-03 2.116777e-02 2.253626e-02 3.496464e-02 3.568654e-02 4.792829e-02 4.947038e-02 6.118273e-02 6.434468e-02 7.449228e-02 7.966851e-02 8.777949e-02 9.559344e-02 1.013435e-01 1.112401e-01 1.141301e-01 1.253941e-01 1.265317e-01 1.384256e-01 1.396651e-01 1.498666e-01 1.574328e-01 1.713407e-01 1.655836e-01 1.730596e-01 1.721983e-01 1.802083e-01 1.780959e-01 
1.724313e-01 1.705949e-01 1.784344e-01 1.738899e-01 1.863598e-01 1.752109e-01 1.234051e-01 1.904656e-01 1.721723e-01 1.861610e-01 1.818568e-01 1.874944e-01 1.883844e-01 1.618012e-01 1.421690e-01 1.169403e-01 8.987731e-02 3.999904e-02 3.753798e-02 -3.494882e-02 -2.091157e-02 -6.108555e-02 -4.849440e-02 -5.719008e-02 -4.684592e-02 -5.496120e-02 -4.504586e-02 -5.172399e-02 -4.197558e-02 -4.727017e-02 -3.828765e-02 -4.275520e-02 -3.532167e-02 -3.946213e-02 -3.381919e-02 -3.743146e-02 -3.286978e-02 -3.523202e-02 -3.081916e-02 -3.173659e-02 -2.729529e-02 -2.756585e-02 -2.357367e-02 -2.432999e-02 -2.124572e-02 -2.326014e-02 -2.094361e-02 -2.386468e-02 -2.104687e-02 -2.357093e-02 -1.904676e-02 -2.067465e-02 -1.462213e-02 -1.598502e-02 -9.284554e-03 -1.113186e-02 -4.307483e-03 -6.599733e-03 9.479142e-04 -2.541041e-03 6.397389e-03 3.620579e-03 1.329006e-02 1.180949e-02 2.072449e-02 1.996007e-02 2.700979e-02 2.570006e-02 3.271442e-02 2.933161e-02 3.739559e-02 3.276257e-02 4.087987e-02 3.817895e-02 4.484999e-02 4.383975e-02 4.907299e-02 4.949371e-02 5.357999e-02 5.517191e-02 5.840080e-02 6.070533e-02 6.336310e-02 6.599739e-02 6.860234e-02 7.130430e-02 7.430090e-02 7.645608e-02 7.988184e-02 8.080437e-02 8.500543e-02 8.464322e-02 9.021500e-02 8.857561e-02 9.566480e-02 9.269687e-02 1.011290e-01 9.687783e-02 1.061259e-01 1.009050e-01 1.105730e-01 1.053971e-01 1.151980e-01 1.111180e-01 1.201873e-01 1.178334e-01 1.249347e-01 1.248791e-01 1.290404e-01 1.319846e-01 1.325425e-01 1.388007e-01 1.352844e-01 1.448586e-01 1.376011e-01 1.502739e-01 1.401005e-01 1.548529e-01 1.429202e-01 1.586182e-01 1.464200e-01 1.663938e-01 1.671472e-01 1.545621e-01 1.629633e-01 1.613235e-01 1.674591e-01 1.663413e-01 
1.825223e-01 1.825085e-01 1.851169e-01 1.863612e-01 1.860287e-01 1.897420e-01 1.567828e-01 1.918638e-01 1.745619e-01 1.872610e-01 1.792196e-01 1.862017e-01 1.831249e-01 1.791237e-01 1.708791e-01 1.679597e-01 1.577493e-01 1.476756e-01 1.454218e-01 1.277844e-01 1.315335e-01 1.212547e-01 1.252543e-01 1.202632e-01 1.243375e-01 1.169138e-01 1.232929e-01 1.161241e-01 1.248984e-01 1.181796e-01 1.272750e-01 1.198945e-01 1.268439e-01 1.180468e-01 1.219622e-01 1.130616e-01 1.156286e-01 1.093535e-01 1.127050e-01 1.102349e-01 1.142980e-01 1.139955e-01 1.168930e-01 1.160902e-01 1.160920e-01 1.129103e-01 1.100754e-01 1.054735e-01 1.031127e-01 1.004121e-01 1.017372e-01 1.018512e-01 1.063262e-01 1.070290e-01 1.122238e-01 1.109924e-01 1.153648e-01 1.116874e-01 1.165134e-01 1.116392e-01 1.195294e-01 1.169982e-01 1.280587e-01 1.281670e-01 1.392997e-01 1.396235e-01 1.483031e-01 1.468140e-01 1.544600e-01 1.502042e-01 1.580999e-01 1.528689e-01 1.605943e-01 1.579796e-01 1.636911e-01 1.632882e-01 1.658838e-01 1.670654e-01 1.668400e-01 1.693720e-01 1.670074e-01 1.702740e-01 1.665907e-01 1.701702e-01 1.666308e-01 1.703481e-01 1.681318e-01 1.707085e-01 1.697669e-01 1.696248e-01 1.707442e-01 1.679755e-01 1.726411e-01 1.672989e-01 1.757546e-01 1.674586e-01 1.791459e-01 1.675481e-01 1.811011e-01 1.664500e-01 1.811169e-01 1.655520e-01 1.811177e-01 1.668537e-01 1.816951e-01 1.698409e-01 1.814741e-01 1.731078e-01 1.798071e-01 1.764925e-01 1.771870e-01 1.795721e-01 1.733670e-01 1.815318e-01 1.693237e-01 1.830853e-01 1.665911e-01 1.837084e-01 1.652128e-01 1.825915e-01 1.660675e-01 1.809812e-01 1.750773e-01 1.686858e-01 1.757944e-01 1.738657e-01 1.792363e-01 1.783413e-01 
1.669020e-01 1.696156e-01 1.669162e-01 1.717087e-01 1.639355e-01 1.731451e-01 1.551183e-01 1.714590e-01 1.573177e-01 1.668442e-01 1.590358e-01 1.606082e-01 1.590378e-01 1.515543e-01 1.563031e-01 1.425066e-01 1.526276e-01 1.351452e-01 1.481658e-01 1.291708e-01 1.424786e-01 1.244058e-01 1.356059e-01 1.202445e-01 1.302871e-01 1.166706e-01 1.268837e-01 1.149504e-01 1.255290e-01 1.147503e-01 1.247908e-01 1.144207e-01 1.228730e-01 1.126023e-01 1.191995e-01 1.096672e-01 1.151823e-01 1.074542e-01 1.127278e-01 1.070770e-01 1.120569e-01 1.076323e-01 1.116739e-01 1.073300e-01 1.099736e-01 1.049801e-01 1.064951e-01 1.012447e-01 1.030782e-01 9.884693e-02 1.023302e-01 9.948070e-02 1.044850e-01 1.021919e-01 1.078825e-01 1.052050e-01 1.111859e-01 1.078109e-01 1.147691e-01 1.104940e-01 1.191251e-01 1.158397e-01 1.252183e-01 1.236340e-01 1.319431e-01 1.311098e-01 1.379131e-01 1.360840e-01 1.430790e-01 1.391421e-01 1.474300e-01 1.426088e-01 1.507666e-01 1.476557e-01 1.534738e-01 1.521948e-01 1.549607e-01 1.553039e-01 1.554574e-01 1.572470e-01 1.555981e-01 1.583822e-01 1.557785e-01 1.590068e-01 1.564197e-01 1.595062e-01 1.577185e-01 1.596809e-01 1.590400e-01 1.589419e-01 1.601457e-01 1.578445e-01 1.617704e-01 1.572050e-01 1.640392e-01 1.570541e-01 1.664253e-01 1.570359e-01 1.680841e-01 1.567523e-01 1.686720e-01 1.567446e-01 1.687769e-01 1.577795e-01 1.685952e-01 1.597518e-01 1.677466e-01 1.622316e-01 1.661490e-01 1.650699e-01 1.640273e-01 1.678041e-01 1.613088e-01 1.698102e-01 1.585411e-01 1.711723e-01 1.566578e-01 1.716122e-01 1.560459e-01 1.707135e-01 1.572999e-01 1.683348e-01 1.608323e-01 1.632132e-01 1.632069e-01 1.648329e-01 1.653876e-01 1.671770e-01 
