# vtk DataFile Version 2.0
Comment goes here
ASCII

DATASET STRUCTURED_POINTS
FIELD FieldData 1
TIME 1 1 double
0.39000000
DIMENSIONS    128   16   1

ORIGIN    0.000   0.000   0.000
SPACING   0.0078125 0.015625   1.000

POINT_DATA   2048
SCALARS P double
LOOKUP_TABLE default

-7.351621e-01 -7.265934e-01 -7.367251e-01 -7.330556e-01 -7.346918e-01 -7.389465e-01 -7.279285e-01 -7.474384e-01 -7.271383e-01 -7.494693e-01 -7.243285e-01 -7.448593e-01 -7.145077e-01 -7.275444e-01 -6.871336e-01 -6.925192e-01 -6.516984e-01 -6.505699e-01 -6.140904e-01 -6.104610e-01 -5.805939e-01 -5.801215e-01 -5.651518e-01 -5.680685e-01 -5.621422e-01 -5.642285e-01 -5.641252e-01 -5.633530e-01 -5.669662e-01 -5.628398e-01 -5.692858e-01 -5.627276e-01 -5.719139e-01 -5.642598e-01 -5.758695e-01 -5.678897e-01 -5.808489e-01 -5.724812e-01 -5.852658e-01 -5.762858e-01 -5.879981e-01 -5.789803e-01 -5.899562e-01 -5.821382e-01 -5.931674e-01 -5.872754e-01 -5.983888e-01 -5.938236e-01 -6.041228e-01 -5.996929e-01 -6.085151e-01 -6.038505e-01 -6.116638e-01 -6.075789e-01 -6.154565e-01 -6.132614e-01 -6.219005e-01 -6.229491e-01 -6.326693e-01 -6.318750e-01 -6.423499e-01 -6.384172e-01 -6.488946e-01 -6.442929e-01 -6.548621e-01 -6.526218e-01 -6.654234e-01 -6.628025e-01 -6.766123e-01 -6.700755e-01 -6.868267e-01 -6.752033e-01 -6.928770e-01 -6.809493e-01 -6.949231e-01 -6.847735e-01 -6.975081e-01 -6.894205e-01 -7.004349e-01 -6.925503e-01 -7.008734e-01 -6.921119e-01 -6.989470e-01 -6.901548e-01 -6.980261e-01 -6.897776e-01 -6.998165e-01 -6.908383e-01 -7.025829e-01 -6.912538e-01 -7.045774e-01 -6.906350e-01 -7.061366e-01 -6.900520e-01 -7.077035e-01 -6.896206e-01 -7.084943e-01 -6.889343e-01 -7.084448e-01 -6.890991e-01 -7.089282e-01 -6.913534e-01 -7.100288e-01 -6.945190e-01 -7.098525e-01 -6.966790e-01 -7.078095e-01 -6.983319e-01 -7.059978e-01 -7.013238e-01 -7.062662e-01 -7.056593e-01 -7.081214e-01 -7.092611e-01 -7.100348e-01 -7.104346e-01 -7.119561e-01 -7.096898e-01 -7.153703e-01 -7.084528e-01 -7.209221e-01 -7.076649e-01 -7.278308e-01 -7.094441e-01 -7.296573e-01 -7.135568e-01 -7.321826e-01 -7.196943e-01 
-6.325105e-01 -6.271566e-01 -6.318324e-01 -6.301768e-01 -6.270958e-01 -6.317651e-01 -6.150496e-01 -6.377343e-01 -6.147382e-01 -6.372711e-01 -6.159236e-01 -6.324323e-01 -6.169899e-01 -6.220654e-01 -6.173769e-01 -6.150163e-01 -6.181935e-01 -6.092084e-01 -6.181736e-01 -6.034635e-01 -6.154280e-01 -5.971817e-01 -6.084488e-01 -5.940509e-01 -6.069365e-01 -5.937600e-01 -6.076767e-01 -5.921146e-01 -6.053165e-01 -5.864241e-01 -6.004275e-01 -5.812561e-01 -5.986197e-01 -5.810071e-01 -6.008920e-01 -5.837710e-01 -6.038520e-01 -5.865552e-01 -6.058674e-01 -5.889685e-01 -6.073730e-01 -5.916175e-01 -6.091885e-01 -5.949392e-01 -6.112058e-01 -5.977341e-01 -6.117332e-01 -5.982961e-01 -6.101463e-01 -5.973388e-01 -6.083176e-01 -5.974938e-01 -6.090895e-01 -6.016375e-01 -6.141772e-01 -6.103753e-01 -6.221344e-01 -6.219193e-01 -6.313420e-01 -6.255248e-01 -6.352661e-01 -6.252140e-01 -6.350478e-01 -6.259285e-01 -6.354342e-01 -6.313481e-01 -6.444794e-01 -6.417562e-01 -6.570676e-01 -6.477620e-01 -6.658802e-01 -6.454214e-01 -6.653233e-01 -6.456980e-01 -6.609167e-01 -6.467783e-01 -6.617096e-01 -6.527765e-01 -6.659355e-01 -6.579325e-01 -6.662919e-01 -6.563153e-01 -6.607202e-01 -6.501441e-01 -6.546196e-01 -6.453090e-01 -6.520187e-01 -6.429508e-01 -6.515399e-01 -6.410620e-01 -6.516525e-01 -6.394888e-01 -6.523205e-01 -6.379367e-01 -6.518975e-01 -6.345172e-01 -6.483972e-01 -6.288723e-01 -6.431654e-01 -6.248582e-01 -6.410496e-01 -6.266182e-01 -6.427405e-01 -6.305589e-01 -6.418867e-01 -6.306860e-01 -6.363075e-01 -6.288929e-01 -6.311128e-01 -6.296229e-01 -6.291020e-01 -6.323087e-01 -6.287142e-01 -6.340730e-01 -6.280948e-01 -6.328306e-01 -6.265854e-01 -6.283616e-01 -6.259599e-01 -6.233044e-01 -6.289715e-01 -6.194163e-01 -6.346721e-01 -6.169462e-01 -6.320678e-01 -6.195645e-01 -6.318541e-01 -6.232576e-01 
-7.373962e-01 -7.268193e-01 -7.432882e-01 -7.334229e-01 -7.434481e-01 -7.327489e-01 -7.148541e-01 -7.594061e-01 -7.308623e-01 -7.630750e-01 -7.395170e-01 -7.718926e-01 -7.516158e-01 -7.650711e-01 -7.050177e-01 -7.089457e-01 -6.586419e-01 -6.496508e-01 -6.087334e-01 -5.932642e-01 -5.471471e-01 -5.466509e-01 -5.432510e-01 -5.553153e-01 -5.568512e-01 -5.641463e-01 -5.684417e-01 -5.668279e-01 -5.689533e-01 -5.583551e-01 -5.618659e-01 -5.505302e-01 -5.615557e-01 -5.534940e-01 -5.697422e-01 -5.616118e-01 -5.779519e-01 -5.681856e-01 -5.836613e-01 -5.741434e-01 -5.895304e-01 -5.818258e-01 -5.971069e-01 -5.909315e-01 -6.040664e-01 -5.967536e-01 -6.051406e-01 -5.952201e-01 -5.999880e-01 -5.898720e-01 -5.948822e-01 -5.877728e-01 -5.965109e-01 -5.939828e-01 -6.063568e-01 -6.050921e-01 -6.141587e-01 -6.362703e-01 -6.407729e-01 -6.398621e-01 -6.458945e-01 -6.284747e-01 -6.367930e-01 -6.230701e-01 -6.275910e-01 -6.440171e-01 -6.650073e-01 -6.818715e-01 -6.867493e-01 -6.831763e-01 -7.060158e-01 -6.701766e-01 -7.089561e-01 -6.863852e-01 -6.920153e-01 -6.784866e-01 -6.928303e-01 -6.892153e-01 -7.051721e-01 -7.022437e-01 -7.110006e-01 -7.026051e-01 -7.043753e-01 -6.937606e-01 -6.959449e-01 -6.876134e-01 -6.940752e-01 -6.867318e-01 -6.965200e-01 -6.876612e-01 -7.010898e-01 -6.904946e-01 -7.076128e-01 -6.934495e-01 -7.115330e-01 -6.914830e-01 -7.083963e-01 -6.835831e-01 -7.013340e-01 -6.784553e-01 -7.018977e-01 -6.861072e-01 -7.120684e-01 -6.982095e-01 -7.166780e-01 -7.006791e-01 -7.105380e-01 -6.985393e-01 -7.053972e-01 -7.019508e-01 -7.063577e-01 -7.092115e-01 -7.095221e-01 -7.151489e-01 -7.115839e-01 -7.161608e-01 -7.105955e-01 -7.109158e-01 -7.094269e-01 -7.045020e-01 -7.146372e-01 -6.993920e-01 -7.355802e-01 -7.030593e-01 -7.270115e-01 -7.085162e-01 -7.305209e-01 -7.174769e-01 
-6.371628e-01 -6.299768e-01 -6.473874e-01 -6.352568e-01 -6.560263e-01 -6.314543e-01 -6.144368e-01 -6.992992e-01 -6.699871e-01 -7.037625e-01 -6.921293e-01 -7.170805e-01 -7.103184e-01 -6.622405e-01 -5.226503e-01 -4.364653e-01 -3.211225e-01 -1.939433e-01 -1.055556e-01 3.215143e-02 1.370129e-01 2.075072e-01 1.862074e-01 1.956381e-01 1.731333e-01 1.817979e-01 1.585189e-01 1.683644e-01 1.460094e-01 1.572481e-01 1.346653e-01 1.446815e-01 1.198860e-01 1.274825e-01 1.011884e-01 1.075698e-01 8.165548e-02 8.809376e-02 6.350162e-02 6.984006e-02 4.603021e-02 5.161185e-02 2.849635e-02 3.384121e-02 1.216221e-02 1.821414e-02 -1.647422e-03 5.352655e-03 -1.366065e-02 -6.713420e-03 -2.650067e-02 -2.097454e-02 -4.301944e-02 -4.004403e-02 -6.342747e-02 -6.232063e-02 -7.811428e-02 -1.643681e-01 -1.694821e-01 -1.647808e-01 -1.753238e-01 -1.202013e-01 -1.361888e-01 -9.697460e-02 -9.383548e-02 -1.483624e-01 -1.573303e-01 -2.051374e-01 -1.586154e-01 -1.443358e-01 -1.818340e-01 -1.016263e-01 -2.385038e-01 -2.292447e-01 -2.478121e-01 -2.399083e-01 -2.607755e-01 -2.585323e-01 -2.797906e-01 -2.790860e-01 -2.975466e-01 -2.957250e-01 -3.117256e-01 -3.094194e-01 -3.251582e-01 -3.229900e-01 -3.394742e-01 -3.369054e-01 -3.539727e-01 -3.503974e-01 -3.681648e-01 -3.635100e-01 -3.817469e-01 -3.755914e-01 -3.938156e-01 -3.861802e-01 -4.038987e-01 -3.951542e-01 -4.128310e-01 -4.057849e-01 -4.256378e-01 -4.227955e-01 -4.436580e-01 -4.430795e-01 -4.607375e-01 -4.606309e-01 -4.744504e-01 -4.772476e-01 -4.892035e-01 -4.959309e-01 -5.055079e-01 -5.147157e-01 -5.216214e-01 -5.319200e-01 -5.367021e-01 -5.460885e-01 -5.498938e-01 -5.564892e-01 -5.625774e-01 -5.653206e-01 -5.783814e-01 -5.733422e-01 -6.304521e-01 -6.125421e-01 -6.215219e-01 -6.142304e-01 -6.275382e-01 -6.216393e-01 
-7.436209e-01 -7.381000e-01 -7.730417e-01 -7.635300e-01 -8.077375e-01 -7.915524e-01 -8.227959e-01 -8.726861e-01 -9.017230e-01 -9.066097e-01 -9.543798e-01 -9.423028e-01 -1.001445e+00 -9.209843e-01 -4.229374e-01 -1.978218e-01 2.335357e-01 5.702532e-01 9.395833e-01 1.278115e+00 1.731228e+00 1.790879e+00 1.746096e+00 1.753703e+00 1.715847e+00 1.716843e+00 1.681502e+00 1.672271e+00 1.633990e+00 1.614570e+00 1.576832e+00 1.555424e+00 1.524490e+00 1.505090e+00 1.478812e+00 1.458141e+00 1.431922e+00 1.409424e+00 1.383394e+00 1.361600e+00 1.336308e+00 1.316514e+00 1.291692e+00 1.273903e+00 1.247347e+00 1.228753e+00 1.197127e+00 1.175857e+00 1.139616e+00 1.117717e+00 1.080473e+00 1.060307e+00 1.025314e+00 1.006604e+00 9.751012e-01 9.520371e-01 9.252151e-01 8.257316e-01 8.081635e-01 7.956805e-01 7.697996e-01 7.986059e-01 7.704000e-01 7.856547e-01 7.795022e-01 7.269381e-01 7.327030e-01 6.915506e-01 7.334310e-01 7.437184e-01 7.002445e-01 7.534989e-01 6.020924e-01 5.839706e-01 5.311339e-01 5.213858e-01 4.817144e-01 4.775191e-01 4.417095e-01 4.359500e-01 3.945978e-01 3.824783e-01 3.347304e-01 3.204015e-01 2.733911e-01 2.627803e-01 2.204583e-01 2.128319e-01 1.740461e-01 1.669043e-01 1.319173e-01 1.249886e-01 9.402915e-02 8.495439e-02 5.470706e-02 3.981959e-02 7.969834e-03 -1.202168e-02 -4.306446e-02 -6.271816e-02 -8.868330e-02 -1.043156e-01 -1.278887e-01 -1.445939e-01 -1.742253e-01 -1.956132e-01 -2.318605e-01 -2.523359e-01 -2.897818e-01 -3.039964e-01 -3.414105e-01 -3.501538e-01 -3.898698e-01 -3.955193e-01 -4.386112e-01 -4.430909e-01 -4.894354e-01 -4.940010e-01 -5.404510e-01 -5.443895e-01 -5.874353e-01 -5.926153e-01 -6.562238e-01 -6.668688e-01 -6.865034e-01 -6.900822e-01 -7.156506e-01 -7.138316e-01 
-6.403741e-01 -6.461178e-01 -6.709121e-01 -6.776062e-01 -7.053313e-01 -7.167430e-01 -7.471188e-01 -7.662300e-01 -7.976072e-01 -8.093622e-01 -8.449680e-01 -8.506626e-01 -8.890637e-01 -8.857986e-01 -2.433790e-01 -1.769014e-01 4.206612e-01 5.193791e-01 1.107286e+00 1.191579e+00 1.818818e+00 1.832510e+00 1.784698e+00 1.793028e+00 1.748671e+00 1.753656e+00 1.710860e+00 1.708519e+00 1.663840e+00 1.653681e+00 1.610011e+00 1.597943e+00 1.560057e+00 1.549071e+00 1.515460e+00 1.503261e+00 1.470362e+00 1.456321e+00 1.423766e+00 1.409693e+00 1.377874e+00 1.364962e+00 1.333562e+00 1.321706e+00 1.288885e+00 1.276030e+00 1.239407e+00 1.224326e+00 1.184446e+00 1.168831e+00 1.128555e+00 1.114494e+00 1.076466e+00 1.064431e+00 1.029109e+00 1.015913e+00 9.803279e-01 9.573029e-01 9.235958e-01 9.105859e-01 8.743854e-01 8.633128e-01 8.286537e-01 8.175936e-01 7.880554e-01 7.783039e-01 7.601172e-01 7.557756e-01 7.379268e-01 7.365063e-01 7.049589e-01 7.005107e-01 6.491399e-01 6.340801e-01 5.910356e-01 5.812877e-01 5.449002e-01 5.402936e-01 5.055590e-01 5.000740e-01 4.605857e-01 4.502577e-01 4.059303e-01 3.936343e-01 3.500058e-01 3.397875e-01 3.000061e-01 2.913000e-01 2.548211e-01 2.457774e-01 2.128615e-01 2.030732e-01 1.737127e-01 1.613344e-01 1.331774e-01 1.157788e-01 8.710681e-02 6.523618e-02 3.763407e-02 1.571481e-02 -7.521390e-03 -2.627088e-02 -4.739844e-02 -6.671581e-02 -9.260373e-02 -1.151881e-01 -1.465103e-01 -1.678029e-01 -2.005244e-01 -2.165371e-01 -2.500463e-01 -2.615188e-01 -2.974234e-01 -3.061966e-01 -3.451111e-01 -3.530098e-01 -3.945986e-01 -4.029732e-01 -4.443393e-01 -4.530366e-01 -4.906832e-01 -5.021703e-01 -5.367791e-01 -5.554258e-01 -5.774978e-01 -5.881913e-01 -6.103303e-01 -6.173445e-01 
-7.451912e-01 -7.460967e-01 -7.834948e-01 -7.843373e-01 -8.236510e-01 -8.265065e-01 -8.664465e-01 -8.752525e-01 -9.170353e-01 -9.224514e-01 -9.684009e-01 -9.704915e-01 -1.019716e+00 -1.020668e+00 -3.262613e-01 -2.646810e-01 3.857928e-01 4.773244e-01 1.122170e+00 1.193810e+00 1.884661e+00 1.879572e+00 1.836098e+00 1.830648e+00 1.789684e+00 1.782143e+00 1.743205e+00 1.732136e+00 1.694485e+00 1.679750e+00 1.643870e+00 1.626883e+00 1.593610e+00 1.575461e+00 1.544384e+00 1.525144e+00 1.495235e+00 1.475127e+00 1.445821e+00 1.425473e+00 1.396405e+00 1.376306e+00 1.347010e+00 1.327270e+00 1.297025e+00 1.277297e+00 1.245423e+00 1.225520e+00 1.192103e+00 1.172483e+00 1.138307e+00 1.119658e+00 1.085523e+00 1.068356e+00 1.034459e+00 1.019249e+00 9.847738e-01 9.737266e-01 9.394747e-01 9.223111e-01 8.904955e-01 8.709953e-01 8.387981e-01 8.226053e-01 7.877405e-01 7.766937e-01 7.423013e-01 7.325123e-01 6.990132e-01 6.864142e-01 6.570127e-01 6.379132e-01 6.109439e-01 5.962104e-01 5.619942e-01 5.495645e-01 5.133443e-01 5.027731e-01 4.653313e-01 4.550068e-01 4.156574e-01 4.044689e-01 3.635602e-01 3.519536e-01 3.111137e-01 2.999667e-01 2.604865e-01 2.497369e-01 2.119987e-01 2.010514e-01 1.652017e-01 1.535300e-01 1.194210e-01 1.063066e-01 7.325588e-02 5.810424e-02 2.557810e-02 8.727070e-03 -2.313590e-02 -4.045553e-02 -7.142534e-02 -8.829812e-02 -1.193543e-01 -1.361151e-01 -1.690407e-01 -1.857942e-01 -2.211337e-01 -2.366340e-01 -2.737790e-01 -2.867966e-01 -3.254846e-01 -3.359030e-01 -3.763386e-01 -3.847091e-01 -4.268957e-01 -4.339412e-01 -4.774403e-01 -4.837600e-01 -5.275598e-01 -5.334464e-01 -5.765934e-01 -5.824724e-01 -6.249071e-01 -6.309303e-01 -6.677355e-01 -6.717988e-01 -7.071965e-01 -7.093313e-01 
-6.419847e-01 -6.519196e-01 -6.795517e-01 -6.902825e-01 -7.192567e-01 -7.317931e-01 -7.624160e-01 -7.770602e-01 -8.093495e-01 -8.250357e-01 -8.591901e-01 -8.769884e-01 -9.126055e-01 -9.356376e-01 -2.286910e-01 -2.227004e-01 4.588257e-01 4.786499e-01 1.155835e+00 1.169790e+00 1.865027e+00 1.855603e+00 1.808013e+00 1.802918e+00 1.757214e+00 1.753192e+00 1.709166e+00 1.704009e+00 1.661368e+00 1.654194e+00 1.613275e+00 1.604467e+00 1.565761e+00 1.555810e+00 1.519074e+00 1.508030e+00 1.472539e+00 1.460496e+00 1.425672e+00 1.412983e+00 1.378439e+00 1.365505e+00 1.330933e+00 1.318002e+00 1.283026e+00 1.270058e+00 1.234309e+00 1.221215e+00 1.184682e+00 1.171638e+00 1.134739e+00 1.122103e+00 1.085399e+00 1.073515e+00 1.037317e+00 1.026455e+00 9.906269e-01 9.816421e-01 9.460091e-01 9.344053e-01 9.005079e-01 8.882677e-01 8.541521e-01 8.433446e-01 8.085367e-01 7.988601e-01 7.641886e-01 7.551725e-01 7.218126e-01 7.120540e-01 6.798262e-01 6.670746e-01 6.350471e-01 6.235727e-01 5.885254e-01 5.784637e-01 5.425935e-01 5.337070e-01 4.971945e-01 4.883952e-01 4.508120e-01 4.413035e-01 4.030202e-01 3.929599e-01 3.551529e-01 3.449141e-01 3.085048e-01 2.978601e-01 2.631477e-01 2.515481e-01 2.186390e-01 2.056626e-01 1.745023e-01 1.597633e-01 1.299743e-01 1.132483e-01 8.444072e-02 6.609010e-02 3.818989e-02 1.917429e-02 -7.892058e-03 -2.677733e-02 -5.385085e-02 -7.254816e-02 -1.009448e-01 -1.192910e-01 -1.495569e-01 -1.666361e-01 -1.985306e-01 -2.135114e-01 -2.468910e-01 -2.597495e-01 -2.946648e-01 -3.059583e-01 -3.422228e-01 -3.526988e-01 -3.896393e-01 -3.999632e-01 -4.363912e-01 -4.470540e-01 -4.817284e-01 -4.931875e-01 -5.253167e-01 -5.374713e-01 -5.663694e-01 -5.775118e-01 -6.048278e-01 -6.149950e-01 
-7.456778e-01 -7.483712e-01 -7.867685e-01 -7.897202e-01 -8.293703e-01 -8.335994e-01 -8.746326e-01 -8.808191e-01 -9.237276e-01 -9.306489e-01 -9.759550e-01 -9.845269e-01 -1.031844e+00 -1.045553e+00 -3.125644e-01 -2.915416e-01 4.133733e-01 4.487158e-01 1.152761e+00 1.174566e+00 1.907111e+00 1.890958e+00 1.847357e+00 1.835208e+00 1.793701e+00 1.782477e+00 1.743102e+00 1.731094e+00 1.693741e+00 1.680165e+00 1.644710e+00 1.629447e+00 1.595754e+00 1.579022e+00 1.546809e+00 1.528875e+00 1.497659e+00 1.478735e+00 1.447947e+00 1.428268e+00 1.397469e+00 1.377419e+00 1.346427e+00 1.326483e+00 1.295256e+00 1.275757e+00 1.244177e+00 1.225176e+00 1.193033e+00 1.174434e+00 1.141634e+00 1.123464e+00 1.090183e+00 1.072681e+00 1.039265e+00 1.022721e+00 9.894686e-01 9.738772e-01 9.409766e-01 9.252402e-01 8.925961e-01 8.767343e-01 8.437396e-01 8.284075e-01 7.947574e-01 7.803397e-01 7.464739e-01 7.326177e-01 6.989170e-01 6.850414e-01 6.517199e-01 6.376037e-01 6.040620e-01 5.907607e-01 5.558859e-01 5.436079e-01 5.076094e-01 4.961944e-01 4.592535e-01 4.482377e-01 4.105054e-01 3.995514e-01 3.614787e-01 3.505459e-01 3.127683e-01 3.017844e-01 2.647050e-01 2.533027e-01 2.170148e-01 2.047465e-01 1.692957e-01 1.559335e-01 1.214035e-01 1.069264e-01 7.327216e-02 5.775174e-02 2.475683e-02 8.437575e-03 -2.414671e-02 -4.079454e-02 -7.327359e-02 -8.975805e-02 -1.226459e-01 -1.386153e-01 -1.725248e-01 -1.876195e-01 -2.229398e-01 -2.366718e-01 -2.734992e-01 -2.854724e-01 -3.238245e-01 -3.340128e-01 -3.739182e-01 -3.826376e-01 -4.239625e-01 -4.316119e-01 -4.738867e-01 -4.807760e-01 -5.232923e-01 -5.296622e-01 -5.717109e-01 -5.776833e-01 -6.185755e-01 -6.239704e-01 -6.627894e-01 -6.671188e-01 -7.047924e-01 -7.080633e-01 
-6.419672e-01 -6.519852e-01 -6.796881e-01 -6.904264e-01 -7.194741e-01 -7.319258e-01 -7.626390e-01 -7.770771e-01 -8.094922e-01 -8.248607e-01 -8.591928e-01 -8.765243e-01 -9.123965e-01 -9.348625e-01 -2.284112e-01 -2.221538e-01 4.590172e-01 4.787614e-01 1.155659e+00 1.169309e+00 1.864005e+00 1.854374e+00 1.806394e+00 1.800910e+00 1.754717e+00 1.750552e+00 1.706467e+00 1.702032e+00 1.660075e+00 1.654356e+00 1.614221e+00 1.606710e+00 1.568163e+00 1.559046e+00 1.522078e+00 1.511812e+00 1.476045e+00 1.464592e+00 1.429042e+00 1.416131e+00 1.380096e+00 1.366144e+00 1.329901e+00 1.316068e+00 1.280414e+00 1.267682e+00 1.232843e+00 1.221035e+00 1.186184e+00 1.174272e+00 1.138507e+00 1.125918e+00 1.089293e+00 1.076457e+00 1.039912e+00 1.027826e+00 9.924249e-01 9.816763e-01 9.476450e-01 9.373872e-01 9.039021e-01 8.931927e-01 8.590766e-01 8.476949e-01 8.127680e-01 8.011804e-01 7.660796e-01 7.548843e-01 7.201948e-01 7.095061e-01 6.750528e-01 6.644744e-01 6.295700e-01 6.193397e-01 5.836703e-01 5.742093e-01 5.381541e-01 5.293323e-01 4.927594e-01 4.838316e-01 4.466713e-01 4.373553e-01 4.004095e-01 3.910936e-01 3.554217e-01 3.460734e-01 3.118388e-01 3.014518e-01 2.680806e-01 2.556121e-01 2.229289e-01 2.083061e-01 1.768576e-01 1.606547e-01 1.307937e-01 1.132894e-01 8.464415e-02 6.597349e-02 3.807064e-02 1.877636e-02 -8.754917e-03 -2.800735e-02 -5.576228e-02 -7.449287e-02 -1.032135e-01 -1.209845e-01 -1.511582e-01 -1.673484e-01 -1.989907e-01 -2.130337e-01 -2.460835e-01 -2.580967e-01 -2.927708e-01 -3.035930e-01 -3.399030e-01 -3.502918e-01 -3.873409e-01 -3.976498e-01 -4.341081e-01 -4.449091e-01 -4.797822e-01 -4.916363e-01 -5.240593e-01 -5.365923e-01 -5.657015e-01 -5.771100e-01 -6.045587e-01 -6.148899e-01 
-7.453669e-01 -7.465078e-01 -7.840467e-01 -7.850344e-01 -8.245142e-01 -8.273700e-01 -8.675055e-01 -8.759860e-01 -9.179322e-01 -9.227331e-01 -9.689615e-01 -9.700398e-01 -1.019835e+00 -1.019241e+00 -3.255014e-01 -2.633854e-01 3.871560e-01 4.777365e-01 1.123499e+00 1.193151e+00 1.884258e+00 1.878354e+00 1.834101e+00 1.827610e+00 1.785435e+00 1.777400e+00 1.738034e+00 1.728236e+00 1.691674e+00 1.679735e+00 1.645246e+00 1.630839e+00 1.597850e+00 1.581473e+00 1.550053e+00 1.532579e+00 1.502336e+00 1.483649e+00 1.453132e+00 1.432592e+00 1.400786e+00 1.378876e+00 1.346364e+00 1.324855e+00 1.293112e+00 1.273632e+00 1.243191e+00 1.225474e+00 1.194980e+00 1.177290e+00 1.145155e+00 1.126506e+00 1.092691e+00 1.073687e+00 1.039559e+00 1.021701e+00 9.889048e-01 9.731744e-01 9.420264e-01 9.276350e-01 8.965929e-01 8.817498e-01 8.491759e-01 8.331704e-01 7.989788e-01 7.825990e-01 7.477352e-01 7.321377e-01 6.973714e-01 6.831101e-01 6.482621e-01 6.349069e-01 5.992279e-01 5.865229e-01 5.501619e-01 5.386703e-01 5.021789e-01 4.917743e-01 4.547363e-01 4.443784e-01 4.064630e-01 3.959068e-01 3.581293e-01 3.481608e-01 3.118333e-01 3.024821e-01 2.674297e-01 2.571667e-01 2.221453e-01 2.094686e-01 1.740815e-01 1.591130e-01 1.243418e-01 1.082173e-01 7.482363e-02 5.795726e-02 2.548778e-02 7.820074e-03 -2.426475e-02 -4.220779e-02 -7.414050e-02 -9.164289e-02 -1.239114e-01 -1.405280e-01 -1.738640e-01 -1.892521e-01 -2.241685e-01 -2.377167e-01 -2.741557e-01 -2.851894e-01 -3.230902e-01 -3.317859e-01 -3.716951e-01 -3.791688e-01 -4.215093e-01 -4.285230e-01 -4.724065e-01 -4.789014e-01 -5.229706e-01 -5.293364e-01 -5.730441e-01 -5.798357e-01 -6.228618e-01 -6.296096e-01 -6.667429e-01 -6.712991e-01 -7.068916e-01 -7.093639e-01 
-6.407122e-01 -6.466841e-01 -6.716133e-01 -6.783958e-01 -7.062839e-01 -7.175605e-01 -7.481328e-01 -7.665847e-01 -7.982728e-01 -8.092261e-01 -8.452626e-01 -8.493587e-01 -8.881768e-01 -8.826333e-01 -2.419037e-01 -1.744352e-01 4.223568e-01 5.203423e-01 1.108660e+00 1.190761e+00 1.818010e+00 1.830487e+00 1.780964e+00 1.786405e+00 1.738479e+00 1.740561e+00 1.696330e+00 1.696682e+00 1.656631e+00 1.654396e+00 1.615985e+00 1.609032e+00 1.570676e+00 1.560561e+00 1.524869e+00 1.515536e+00 1.483436e+00 1.473652e+00 1.440180e+00 1.425382e+00 1.386747e+00 1.367147e+00 1.326039e+00 1.307367e+00 1.270137e+00 1.258353e+00 1.227722e+00 1.221312e+00 1.191762e+00 1.183274e+00 1.148418e+00 1.134156e+00 1.093853e+00 1.076074e+00 1.034922e+00 1.019262e+00 9.833729e-01 9.742512e-01 9.451276e-01 9.399822e-01 9.116227e-01 9.033272e-01 8.699279e-01 8.561113e-01 8.185155e-01 8.026245e-01 7.647552e-01 7.509191e-01 7.156036e-01 7.055638e-01 6.716378e-01 6.622796e-01 6.257415e-01 6.150824e-01 5.772756e-01 5.689375e-01 5.332262e-01 5.274488e-01 4.910961e-01 4.831683e-01 4.432236e-01 4.325473e-01 3.927020e-01 3.842608e-01 3.500707e-01 3.456381e-01 3.158744e-01 3.099163e-01 2.785873e-01 2.655401e-01 2.308968e-01 2.123308e-01 1.791837e-01 1.604004e-01 1.319558e-01 1.131316e-01 8.654365e-02 6.538087e-02 3.895984e-02 1.672411e-02 -8.890140e-03 -3.043044e-02 -5.589788e-02 -7.641323e-02 -1.035087e-01 -1.231893e-01 -1.532085e-01 -1.707745e-01 -2.024105e-01 -2.150446e-01 -2.468992e-01 -2.547105e-01 -2.890984e-01 -2.964167e-01 -3.363628e-01 -3.452482e-01 -3.877277e-01 -3.957329e-01 -4.362033e-01 -4.449010e-01 -4.834380e-01 -4.972041e-01 -5.334051e-01 -5.535694e-01 -5.762575e-01 -5.877072e-01 -6.101120e-01 -6.175336e-01 
-7.443899e-01 -7.392922e-01 -7.744051e-01 -7.654035e-01 -8.099243e-01 -7.944800e-01 -8.264157e-01 -8.755748e-01 -9.042406e-01 -9.081637e-01 -9.556545e-01 -9.421568e-01 -1.000866e+00 -9.187434e-01 -4.201969e-01 -1.921088e-01 2.389634e-01 5.720912e-01 9.490368e-01 1.275116e+00 1.736531e+00 1.793352e+00 1.744551e+00 1.747401e+00 1.703217e+00 1.699538e+00 1.661196e+00 1.655095e+00 1.622391e+00 1.613336e+00 1.582379e+00 1.567822e+00 1.536424e+00 1.518559e+00 1.490202e+00 1.474179e+00 1.450056e+00 1.434008e+00 1.407550e+00 1.385302e+00 1.351571e+00 1.323189e+00 1.285568e+00 1.258297e+00 1.225161e+00 1.207005e+00 1.182232e+00 1.171362e+00 1.147719e+00 1.134378e+00 1.103602e+00 1.083258e+00 1.045432e+00 1.021139e+00 9.821352e-01 9.608683e-01 9.283645e-01 9.155649e-01 8.914380e-01 8.842780e-01 8.604348e-01 8.493580e-01 8.182537e-01 7.999102e-01 7.630404e-01 7.418588e-01 7.043465e-01 6.859361e-01 6.512071e-01 6.382109e-01 6.044849e-01 5.930667e-01 5.555016e-01 5.424809e-01 5.038347e-01 4.941867e-01 4.590544e-01 4.532751e-01 4.177700e-01 4.094813e-01 3.692604e-01 3.576685e-01 3.172628e-01 3.090195e-01 2.754076e-01 2.729022e-01 2.441211e-01 2.401711e-01 2.081981e-01 1.957057e-01 1.581636e-01 1.392532e-01 1.024488e-01 8.422894e-02 5.261670e-02 3.534644e-02 5.334905e-03 -1.425099e-02 -4.466884e-02 -6.507054e-02 -9.449474e-02 -1.134267e-01 -1.422495e-01 -1.597270e-01 -1.902165e-01 -2.070390e-01 -2.407423e-01 -2.554621e-01 -2.904944e-01 -2.995974e-01 -3.342527e-01 -3.380002e-01 -3.755283e-01 -3.793808e-01 -4.240070e-01 -4.303197e-01 -4.785301e-01 -4.835449e-01 -5.297999e-01 -5.346817e-01 -5.797418e-01 -5.885825e-01 -6.541043e-01 -6.662089e-01 -6.859805e-01 -6.902382e-01 -7.158696e-01 -7.145123e-01 
-6.386301e-01 -6.316593e-01 -6.491013e-01 -6.374740e-01 -6.584985e-01 -6.349309e-01 -6.186813e-01 -7.025305e-01 -6.716592e-01 -7.032717e-01 -6.900755e-01 -7.130095e-01 -7.052183e-01 -6.547400e-01 -5.160908e-01 -4.270292e-01 -3.127670e-01 -1.857077e-01 -9.575777e-02 3.713563e-02 1.447619e-01 2.123825e-01 1.898674e-01 1.972907e-01 1.738546e-01 1.813391e-01 1.571176e-01 1.648834e-01 1.401046e-01 1.483419e-01 1.242022e-01 1.338162e-01 1.112214e-01 1.213731e-01 9.885562e-02 1.072160e-01 8.369582e-02 9.033056e-02 6.766325e-02 7.469239e-02 5.449090e-02 6.186507e-02 4.249005e-02 4.757440e-02 2.611680e-02 2.687882e-02 2.584920e-03 3.894855e-04 -2.403960e-02 -2.535518e-02 -4.664748e-02 -4.467411e-02 -6.219951e-02 -5.761056e-02 -7.352070e-02 -6.944249e-02 -8.712781e-02 -8.625169e-02 -1.068652e-01 -1.071899e-01 -1.287041e-01 -1.273975e-01 -1.475134e-01 -1.441698e-01 -1.631258e-01 -1.595950e-01 -1.794667e-01 -1.769867e-01 -1.995899e-01 -1.979379e-01 -2.229129e-01 -2.197816e-01 -2.438663e-01 -2.392636e-01 -2.609165e-01 -2.566595e-01 -2.769121e-01 -2.731416e-01 -2.907673e-01 -2.856728e-01 -2.997663e-01 -2.933512e-01 -3.062842e-01 -3.012900e-01 -3.165660e-01 -3.143011e-01 -3.321641e-01 -3.302241e-01 -3.481786e-01 -3.438231e-01 -3.612651e-01 -3.553611e-01 -3.746643e-01 -3.694932e-01 -3.915237e-01 -3.866546e-01 -4.093064e-01 -4.035667e-01 -4.255125e-01 -4.195777e-01 -4.402427e-01 -4.347804e-01 -4.531493e-01 -4.488447e-01 -4.642194e-01 -4.616993e-01 -4.735175e-01 -4.735970e-01 -4.827146e-01 -4.870462e-01 -4.950475e-01 -5.037637e-01 -5.104559e-01 -5.208156e-01 -5.255425e-01 -5.356048e-01 -5.411209e-01 -5.507748e-01 -5.604760e-01 -5.665046e-01 -5.818406e-01 -5.782106e-01 -6.349546e-01 -6.163152e-01 -6.241267e-01 -6.164668e-01 -6.292331e-01 -6.233069e-01 
-7.385844e-01 -7.281156e-01 -7.445504e-01 -7.349819e-01 -7.450743e-01 -7.348819e-01 -7.171804e-01 -7.613668e-01 -7.316125e-01 -7.625140e-01 -7.376300e-01 -7.691921e-01 -7.482445e-01 -7.609416e-01 -7.004825e-01 -7.030738e-01 -6.528643e-01 -6.434131e-01 -6.024045e-01 -5.878123e-01 -5.416296e-01 -5.411574e-01 -5.379227e-01 -5.483115e-01 -5.475851e-01 -5.524996e-01 -5.563855e-01 -5.584294e-01 -5.670597e-01 -5.657175e-01 -5.754678e-01 -5.683451e-01 -5.769602e-01 -5.666335e-01 -5.779020e-01 -5.703203e-01 -5.859956e-01 -5.799235e-01 -5.936101e-01 -5.828683e-01 -5.895627e-01 -5.742808e-01 -5.777940e-01 -5.654272e-01 -5.742279e-01 -5.721531e-01 -5.895871e-01 -5.951434e-01 -6.136242e-01 -6.163600e-01 -6.271193e-01 -6.216445e-01 -6.242336e-01 -6.133599e-01 -6.139317e-01 -6.054617e-01 -6.125688e-01 -6.127380e-01 -6.288999e-01 -6.334987e-01 -6.513561e-01 -6.510355e-01 -6.633330e-01 -6.556909e-01 -6.638121e-01 -6.537924e-01 -6.633398e-01 -6.554742e-01 -6.703657e-01 -6.656757e-01 -6.842894e-01 -6.778531e-01 -6.933452e-01 -6.834234e-01 -6.956402e-01 -6.877933e-01 -7.008048e-01 -6.957007e-01 -7.056505e-01 -6.971336e-01 -7.002081e-01 -6.876940e-01 -6.894980e-01 -6.802296e-01 -6.892617e-01 -6.861904e-01 -7.016541e-01 -6.975271e-01 -7.117332e-01 -6.989856e-01 -7.098057e-01 -6.906349e-01 -7.046289e-01 -6.860511e-01 -7.069779e-01 -6.887806e-01 -7.119526e-01 -6.908837e-01 -7.134229e-01 -6.913866e-01 -7.134885e-01 -6.929547e-01 -7.130959e-01 -6.948514e-01 -7.104951e-01 -6.947069e-01 -7.041588e-01 -6.927680e-01 -6.982824e-01 -6.953225e-01 -6.998335e-01 -7.050421e-01 -7.064949e-01 -7.130862e-01 -7.084613e-01 -7.123800e-01 -7.073509e-01 -7.104309e-01 -7.127680e-01 -7.106117e-01 -7.217800e-01 -7.056774e-01 -7.404630e-01 -7.066214e-01 -7.295588e-01 -7.105096e-01 -7.320369e-01 -7.188608e-01 
-6.332135e-01 -6.278779e-01 -6.325134e-01 -6.309252e-01 -6.278372e-01 -6.325475e-01 -6.157899e-01 -6.382238e-01 -6.147842e-01 -6.366614e-01 -6.148169e-01 -6.307683e-01 -6.151496e-01 -6.197085e-01 -6.149636e-01 -6.120587e-01 -6.153616e-01 -6.060997e-01 -6.153030e-01 -6.006579e-01 -6.128366e-01 -5.948477e-01 -6.059790e-01 -5.911936e-01 -6.031019e-01 -5.893177e-01 -6.030829e-01 -5.892343e-01 -6.049096e-01 -5.898067e-01 -6.061299e-01 -5.888151e-01 -6.051757e-01 -5.869294e-01 -6.047300e-01 -5.879432e-01 -6.074235e-01 -5.915417e-01 -6.097180e-01 -5.923544e-01 -6.070377e-01 -5.885162e-01 -6.013240e-01 -5.850018e-01 -5.995039e-01 -5.884896e-01 -6.059721e-01 -5.989774e-01 -6.161470e-01 -6.086527e-01 -6.218476e-01 -6.116017e-01 -6.208291e-01 -6.092160e-01 -6.173352e-01 -6.077080e-01 -6.183641e-01 -6.129434e-01 -6.271509e-01 -6.232600e-01 -6.381194e-01 -6.316520e-01 -6.441405e-01 -6.344344e-01 -6.452667e-01 -6.346993e-01 -6.467292e-01 -6.368759e-01 -6.518202e-01 -6.422141e-01 -6.591365e-01 -6.475164e-01 -6.631486e-01 -6.500198e-01 -6.635360e-01 -6.521061e-01 -6.649388e-01 -6.556246e-01 -6.659060e-01 -6.557203e-01 -6.617326e-01 -6.500551e-01 -6.545509e-01 -6.443809e-01 -6.516992e-01 -6.442773e-01 -6.546993e-01 -6.467112e-01 -6.572787e-01 -6.451712e-01 -6.550704e-01 -6.394872e-01 -6.513853e-01 -6.351550e-01 -6.504433e-01 -6.336820e-01 -6.502020e-01 -6.320340e-01 -6.482943e-01 -6.301903e-01 -6.459230e-01 -6.295870e-01 -6.434787e-01 -6.294930e-01 -6.395889e-01 -6.282771e-01 -6.335614e-01 -6.263004e-01 -6.279332e-01 -6.266389e-01 -6.260888e-01 -6.301979e-01 -6.269992e-01 -6.328080e-01 -6.264995e-01 -6.311355e-01 -6.251810e-01 -6.280972e-01 -6.271831e-01 -6.256510e-01 -6.317522e-01 -6.219313e-01 -6.367335e-01 -6.186023e-01 -6.333759e-01 -6.206661e-01 -6.327394e-01 -6.240720e-01 
