# vtk DataFile Version 2.0
Comment goes here
ASCII

DATASET STRUCTURED_POINTS
FIELD FieldData 1
TIME 1 1 double
0.84000000
DIMENSIONS    128   16   1

ORIGIN    0.000   0.000   0.000
SPACING   0.0078125 0.015625   1.000

POINT_DATA   2048
SCALARS uMag double
LOOKUP_TABLE default

2.321251e-03 3.278234e-03 1.529078e-03 3.501377e-03 9.505196e-04 6.703931e-03 5.078693e-03 1.312971e-03 3.557477e-03 2.014137e-03 1.393943e-03 8.737661e-03 1.223488e-02 2.113237e-02 2.501894e-02 2.881459e-02 2.792522e-02 2.981199e-02 2.657591e-02 2.522316e-02 2.029996e-02 1.270450e-02 7.203222e-03 2.957085e-03 2.765706e-04 1.422771e-03 2.609850e-03 3.382246e-03 3.743679e-03 4.298392e-03 4.145475e-03 4.733425e-03 4.254219e-03 4.920729e-03 4.263498e-03 4.962054e-03 4.259375e-03 4.915100e-03 4.277897e-03 4.822371e-03 4.324722e-03 4.715207e-03 4.386711e-03 4.617550e-03 4.447055e-03 4.553048e-03 4.498388e-03 4.545525e-03 4.544769e-03 4.605543e-03 4.580593e-03 4.682374e-03 4.522936e-03 4.561844e-03 4.179077e-03 4.196685e-03 5.563687e-03 7.243215e-03 4.832127e-03 7.382273e-03 8.224031e-03 7.344750e-03 8.921599e-03 6.284268e-03 7.542469e-03 4.187674e-03 3.244028e-03 7.168517e-03 2.597972e-03 5.886752e-03 3.366597e-03 1.363627e-03 3.212648e-03 2.940811e-03 2.049978e-03 4.234664e-03 2.644126e-03 4.455172e-03 3.049285e-03 4.281207e-03 3.366344e-03 3.972529e-03 3.653142e-03 3.630347e-03 3.920110e-03 3.298015e-03 4.162549e-03 3.000687e-03 4.366943e-03 2.758411e-03 4.512773e-03 2.591431e-03 4.576957e-03 2.522407e-03 4.539120e-03 2.571189e-03 4.385082e-03 2.747897e-03 4.110480e-03 3.048304e-03 3.724155e-03 3.451023e-03 3.251826e-03 3.918450e-03 2.739482e-03 4.399000e-03 2.250716e-03 4.828993e-03 1.859156e-03 5.137293e-03 1.641298e-03 5.255127e-03 1.670710e-03 5.130242e-03 2.011316e-03 4.745214e-03 2.707917e-03 4.137595e-03 3.773603e-03 3.417608e-03 5.174970e-03 2.746609e-03 6.638279e-03 5.189143e-04 2.142810e-03 1.145553e-03 2.215717e-03 2.612383e-03 
6.863499e-04 1.369330e-03 8.072806e-04 1.167448e-03 4.178011e-03 6.446314e-03 6.642508e-03 1.639490e-03 5.606156e-03 5.042487e-03 7.930540e-03 1.088865e-02 1.310019e-02 1.278495e-02 9.713398e-03 4.374829e-03 5.731469e-03 4.444508e-03 6.517532e-03 7.633088e-03 1.271694e-02 1.353950e-02 9.703273e-03 7.363366e-03 4.442648e-03 3.533529e-03 2.227804e-03 2.199478e-03 1.412016e-03 1.851627e-03 1.104891e-03 1.781238e-03 9.677487e-04 1.736444e-03 9.021595e-04 1.657088e-03 8.889231e-04 1.546202e-03 9.207805e-04 1.424544e-03 9.826955e-04 1.319820e-03 1.052891e-03 1.264629e-03 1.105589e-03 1.298321e-03 1.135427e-03 1.499059e-03 1.257741e-03 2.059660e-03 1.939660e-03 3.447601e-03 4.049107e-03 6.740502e-03 9.337976e-03 1.531672e-02 2.016272e-02 1.533484e-02 8.723288e-03 1.288647e-02 9.100184e-03 6.446369e-03 9.863323e-03 5.895504e-03 1.290145e-02 1.229543e-02 1.058831e-02 9.413398e-03 3.488033e-03 1.033663e-02 1.748681e-02 4.320407e-03 9.668983e-03 9.238622e-03 5.867575e-03 4.642624e-03 2.638830e-03 2.863435e-03 1.081257e-03 1.894084e-03 2.050046e-04 1.277854e-03 3.029144e-04 8.665797e-04 6.207351e-04 6.513386e-04 8.448839e-04 6.427199e-04 1.020165e-03 7.374415e-04 1.150955e-03 8.307114e-04 1.206746e-03 8.811636e-04 1.163386e-03 8.536740e-04 1.023046e-03 7.308650e-04 8.068871e-04 5.535551e-04 5.834523e-04 5.251758e-04 5.436268e-04 8.013883e-04 8.350762e-04 1.188097e-03 1.252430e-03 1.560627e-03 1.609124e-03 1.854257e-03 1.800276e-03 1.998877e-03 1.765320e-03 1.941617e-03 1.467234e-03 1.694769e-03 9.376678e-04 1.413750e-03 8.689281e-04 1.426546e-03 2.117100e-03 1.819628e-03 4.430816e-03 6.144872e-03 2.272330e-03 1.691299e-03 1.517629e-03 3.579030e-04 
4.517691e-03 4.585846e-03 1.282085e-03 3.931355e-03 1.125355e-02 1.497377e-02 1.179231e-02 6.225344e-03 3.435080e-03 3.668917e-03 1.546095e-03 1.108235e-03 4.683471e-03 8.432696e-03 9.777523e-03 1.107144e-02 9.990486e-03 1.130074e-02 9.670608e-03 9.399081e-03 8.163363e-03 3.208386e-03 2.368049e-03 3.297186e-03 2.689922e-03 5.395055e-03 4.475472e-03 6.156349e-03 5.432353e-03 6.340991e-03 5.983534e-03 6.293614e-03 6.324600e-03 6.206063e-03 6.546915e-03 6.150652e-03 6.665768e-03 6.127185e-03 6.684224e-03 6.117757e-03 6.614701e-03 6.093364e-03 6.462474e-03 6.016528e-03 6.223288e-03 5.856238e-03 5.863915e-03 5.575392e-03 5.327482e-03 5.286825e-03 4.882620e-03 5.864220e-03 6.356492e-03 9.772736e-03 1.364065e-02 2.121730e-02 2.679857e-02 2.179759e-02 2.115596e-02 2.158276e-02 2.545416e-02 2.091696e-02 2.505665e-02 1.856808e-02 2.164841e-02 1.778145e-02 1.418863e-02 2.285819e-02 7.960603e-03 1.761845e-02 1.442332e-02 1.284845e-02 7.903643e-03 1.176364e-02 5.935260e-03 6.417801e-03 4.268648e-03 5.671213e-03 5.219458e-03 6.183332e-03 5.917729e-03 6.789726e-03 6.256800e-03 7.304014e-03 6.370871e-03 7.722103e-03 6.352724e-03 8.049434e-03 6.257627e-03 8.280931e-03 6.141346e-03 8.433296e-03 6.084417e-03 8.530826e-03 6.135073e-03 8.542916e-03 6.300587e-03 8.430862e-03 6.581560e-03 8.172430e-03 6.957366e-03 7.782341e-03 7.419292e-03 7.329974e-03 7.962476e-03 6.859811e-03 8.518898e-03 6.385519e-03 8.977303e-03 5.970157e-03 9.265477e-03 5.748774e-03 9.363773e-03 5.868806e-03 9.261956e-03 6.443336e-03 8.936919e-03 7.512017e-03 8.344110e-03 9.035284e-03 7.557026e-03 1.089004e-02 8.534125e-03 1.667212e-02 8.039872e-03 3.599003e-03 4.700306e-03 4.520667e-03 
5.977324e-03 7.874310e-03 1.077519e-02 1.940958e-02 1.059710e-02 2.469274e-02 1.566911e-02 1.186800e-02 1.705365e-02 1.116676e-02 1.745507e-02 1.141609e-02 1.772574e-02 1.358505e-02 1.918569e-02 1.597458e-02 1.880125e-02 1.708461e-02 1.765097e-02 1.753578e-02 1.515654e-02 1.627187e-02 1.283150e-02 1.541323e-02 1.265230e-02 1.515190e-02 1.279529e-02 1.494774e-02 1.303515e-02 1.471695e-02 1.329291e-02 1.445235e-02 1.354145e-02 1.417871e-02 1.377048e-02 1.391221e-02 1.395527e-02 1.365915e-02 1.406922e-02 1.342140e-02 1.409236e-02 1.319001e-02 1.400624e-02 1.293924e-02 1.378818e-02 1.262419e-02 1.339308e-02 1.216184e-02 1.271951e-02 1.141969e-02 1.158487e-02 1.022718e-02 9.753462e-03 8.681729e-03 7.816323e-03 9.841003e-03 9.821424e-03 6.947697e-03 2.290874e-03 2.184478e-03 1.844205e-03 4.814562e-03 1.756710e-03 7.168356e-03 2.423034e-03 7.908741e-03 7.883427e-03 5.665264e-03 1.257376e-02 2.443189e-03 1.174343e-02 7.074116e-03 3.052469e-03 9.729821e-03 8.509034e-03 1.164728e-02 1.054608e-02 1.291284e-02 1.174683e-02 1.363075e-02 1.247773e-02 1.400570e-02 1.294453e-02 1.419541e-02 1.324716e-02 1.429224e-02 1.343608e-02 1.434330e-02 1.354067e-02 1.436924e-02 1.359017e-02 1.438922e-02 1.361528e-02 1.442737e-02 1.363229e-02 1.448254e-02 1.364975e-02 1.454243e-02 1.367672e-02 1.459194e-02 1.371198e-02 1.462565e-02 1.374987e-02 1.464750e-02 1.380176e-02 1.463280e-02 1.387189e-02 1.455459e-02 1.394503e-02 1.442858e-02 1.402596e-02 1.429658e-02 1.416398e-02 1.419996e-02 1.442159e-02 1.417881e-02 1.483707e-02 1.426104e-02 1.541746e-02 1.440049e-02 1.620862e-02 1.439618e-02 1.749627e-02 1.139867e-02 2.381899e-02 1.744959e-02 1.134773e-02 6.521821e-03 
2.501255e-02 2.457798e-02 3.065333e-02 3.325275e-02 4.253775e-02 2.113387e-02 2.168798e-02 2.373254e-02 1.825561e-02 2.230494e-02 1.803540e-02 1.963993e-02 1.764750e-02 1.817438e-02 1.890413e-02 1.861184e-02 1.910664e-02 1.887341e-02 1.879560e-02 1.926982e-02 1.778816e-02 1.955592e-02 1.822978e-02 2.015792e-02 1.991795e-02 2.074516e-02 2.080251e-02 2.099113e-02 2.127053e-02 2.106838e-02 2.148341e-02 2.107991e-02 2.153622e-02 2.110699e-02 2.149261e-02 2.116378e-02 2.136683e-02 2.121530e-02 2.116409e-02 2.121625e-02 2.089230e-02 2.111011e-02 2.053820e-02 2.082507e-02 2.005670e-02 2.027164e-02 1.933450e-02 1.928013e-02 1.811049e-02 1.754039e-02 1.590605e-02 1.447852e-02 1.177219e-02 8.898230e-03 4.054465e-03 3.715599e-03 1.471699e-02 2.134655e-02 1.182417e-02 1.307828e-02 1.318910e-02 5.665414e-03 1.260143e-02 1.545858e-03 1.125483e-02 2.357987e-03 4.428354e-04 7.204485e-03 9.507118e-03 7.216054e-03 8.653605e-03 5.036053e-03 9.004782e-04 8.204034e-03 1.143742e-02 1.409482e-02 1.667574e-02 1.720833e-02 1.922689e-02 1.909707e-02 2.044724e-02 2.032559e-02 2.100311e-02 2.118896e-02 2.122764e-02 2.182681e-02 2.128045e-02 2.229800e-02 2.124043e-02 2.262377e-02 2.116872e-02 2.283551e-02 2.114524e-02 2.296517e-02 2.121607e-02 2.298961e-02 2.138528e-02 2.287780e-02 2.165317e-02 2.261512e-02 2.200535e-02 2.222316e-02 2.244261e-02 2.177930e-02 2.296215e-02 2.134100e-02 2.349347e-02 2.093057e-02 2.392394e-02 2.060408e-02 2.417716e-02 2.047637e-02 2.422586e-02 2.067476e-02 2.405543e-02 2.131621e-02 2.364591e-02 2.249018e-02 2.293955e-02 2.426450e-02 2.182493e-02 2.667053e-02 1.970266e-02 3.316883e-02 3.991038e-02 3.401803e-02 2.817098e-02 2.484897e-02 
3.018788e-02 3.089649e-02 3.353978e-02 3.751784e-02 4.487409e-02 4.846531e-02 4.159716e-02 4.163830e-02 4.063598e-02 3.968200e-02 3.894715e-02 3.716010e-02 3.502596e-02 3.445007e-02 3.484919e-02 3.456044e-02 3.475921e-02 3.470014e-02 3.460489e-02 3.484746e-02 3.441696e-02 3.496037e-02 3.532361e-02 3.817655e-02 3.792609e-02 4.019752e-02 3.954763e-02 4.123767e-02 4.054500e-02 4.169020e-02 4.114427e-02 4.182304e-02 4.150352e-02 4.182218e-02 4.171857e-02 4.177696e-02 4.182169e-02 4.170919e-02 4.182497e-02 4.161654e-02 4.173963e-02 4.148052e-02 4.156900e-02 4.127034e-02 4.131051e-02 4.095586e-02 4.094432e-02 4.049308e-02 4.041507e-02 3.984949e-02 3.969197e-02 3.910542e-02 3.891372e-02 3.883206e-02 3.935614e-02 4.267985e-02 4.174709e-02 2.846136e-02 3.345763e-02 3.033716e-02 3.183094e-02 3.298444e-02 2.954095e-02 3.401264e-02 3.242897e-02 3.347288e-02 3.522218e-02 3.221901e-02 3.566104e-02 3.041953e-02 3.586458e-02 3.402621e-02 3.330264e-02 3.987268e-02 3.837859e-02 3.946940e-02 3.963272e-02 4.033011e-02 4.055345e-02 4.112129e-02 4.109728e-02 4.173802e-02 4.140698e-02 4.222139e-02 4.157061e-02 4.260500e-02 4.163603e-02 4.290403e-02 4.163154e-02 4.312236e-02 4.159178e-02 4.327771e-02 4.157458e-02 4.338873e-02 4.161536e-02 4.343519e-02 4.171721e-02 4.339064e-02 4.188177e-02 4.323938e-02 4.210428e-02 4.299021e-02 4.239620e-02 4.269349e-02 4.276358e-02 4.238959e-02 4.315855e-02 4.209116e-02 4.350475e-02 4.182842e-02 4.375402e-02 4.167584e-02 4.389140e-02 4.172010e-02 4.391114e-02 4.203875e-02 4.381154e-02 4.267947e-02 4.359625e-02 4.365871e-02 4.336804e-02 4.496945e-02 4.386053e-02 4.770192e-02 4.277163e-02 3.634057e-02 3.276735e-02 3.063806e-02 
3.750089e-02 3.814231e-02 3.894867e-02 4.159009e-02 4.325801e-02 4.918440e-02 4.704886e-02 4.672136e-02 4.770159e-02 4.664203e-02 4.763598e-02 4.708156e-02 4.650382e-02 4.559960e-02 4.599956e-02 4.571582e-02 4.590435e-02 4.586805e-02 4.573611e-02 4.602689e-02 4.553766e-02 4.626186e-02 4.616273e-02 4.739233e-02 4.615597e-02 4.744678e-02 4.625731e-02 4.746288e-02 4.644348e-02 4.740586e-02 4.662918e-02 4.729581e-02 4.678786e-02 4.716390e-02 4.690822e-02 4.702913e-02 4.697927e-02 4.689545e-02 4.699218e-02 4.675838e-02 4.694327e-02 4.660928e-02 4.683510e-02 4.644127e-02 4.668113e-02 4.626224e-02 4.651725e-02 4.611843e-02 4.643655e-02 4.615587e-02 4.669044e-02 4.676407e-02 4.792593e-02 4.892185e-02 5.187620e-02 5.557261e-02 6.323467e-02 6.567119e-02 5.741235e-02 5.885279e-02 5.782982e-02 5.369032e-02 5.825624e-02 5.167635e-02 5.778047e-02 5.390125e-02 5.337645e-02 5.711715e-02 4.895261e-02 5.732186e-02 5.265608e-02 5.224357e-02 5.883693e-02 5.229904e-02 5.135814e-02 4.855336e-02 4.843854e-02 4.747747e-02 4.739355e-02 4.722174e-02 4.704459e-02 4.728821e-02 4.695631e-02 4.746864e-02 4.694890e-02 4.767374e-02 4.695375e-02 4.786417e-02 4.695091e-02 4.802200e-02 4.694530e-02 4.814135e-02 4.695463e-02 4.821961e-02 4.699420e-02 4.824867e-02 4.707116e-02 4.821991e-02 4.718852e-02 4.813026e-02 4.734567e-02 4.798722e-02 4.754060e-02 4.781040e-02 4.776410e-02 4.762113e-02 4.799106e-02 4.743824e-02 4.818702e-02 4.728488e-02 4.832192e-02 4.719091e-02 4.837432e-02 4.718136e-02 4.832792e-02 4.726191e-02 4.817258e-02 4.740312e-02 4.792438e-02 4.753320e-02 4.772433e-02 4.756942e-02 4.827402e-02 4.631656e-02 4.302228e-02 4.056896e-02 3.879043e-02 3.789643e-02 
3.744412e-02 3.808546e-02 3.843018e-02 4.018906e-02 4.099401e-02 4.356049e-02 4.369673e-02 4.489138e-02 4.562216e-02 4.630100e-02 4.803708e-02 4.922131e-02 5.238202e-02 5.202246e-02 5.220302e-02 5.204415e-02 5.212918e-02 5.210424e-02 5.206334e-02 5.218242e-02 5.202857e-02 5.228450e-02 5.028949e-02 4.924924e-02 4.722456e-02 4.711970e-02 4.563106e-02 4.598088e-02 4.488999e-02 4.535513e-02 4.460307e-02 4.499501e-02 4.454065e-02 4.477598e-02 4.457559e-02 4.463767e-02 4.463862e-02 4.454910e-02 4.469460e-02 4.449368e-02 4.473041e-02 4.446295e-02 4.474785e-02 4.445568e-02 4.476104e-02 4.448174e-02 4.479819e-02 4.457061e-02 4.491303e-02 4.479299e-02 4.521840e-02 4.530448e-02 4.595417e-02 4.642996e-02 4.765966e-02 4.905116e-02 5.212819e-02 5.469597e-02 5.214940e-02 5.315784e-02 5.358387e-02 5.153099e-02 5.430847e-02 5.055616e-02 5.188957e-02 5.102466e-02 4.984907e-02 5.248664e-02 4.956160e-02 5.203729e-02 5.075137e-02 4.953825e-02 5.134315e-02 4.753155e-02 4.751466e-02 4.590172e-02 4.606165e-02 4.536272e-02 4.539710e-02 4.520028e-02 4.506692e-02 4.521813e-02 4.488487e-02 4.531820e-02 4.476619e-02 4.544887e-02 4.467491e-02 4.558053e-02 4.459985e-02 4.569474e-02 4.454444e-02 4.578014e-02 4.452010e-02 4.582797e-02 4.453739e-02 4.582812e-02 4.460178e-02 4.577252e-02 4.471455e-02 4.565937e-02 4.487249e-02 4.549621e-02 4.506808e-02 4.530012e-02 4.528586e-02 4.509152e-02 4.549819e-02 4.489040e-02 4.566939e-02 4.471748e-02 4.576357e-02 4.459210e-02 4.574734e-02 4.452166e-02 4.558850e-02 4.448868e-02 4.525679e-02 4.443790e-02 4.473048e-02 4.426570e-02 4.401160e-02 4.380455e-02 4.310324e-02 4.238343e-02 4.070690e-02 3.956664e-02 3.832549e-02 3.789714e-02 
4.054478e-02 4.118685e-02 4.131183e-02 4.297286e-02 4.338458e-02 4.566808e-02 4.592814e-02 4.685458e-02 4.788646e-02 4.820427e-02 5.018128e-02 5.105254e-02 5.469629e-02 5.440993e-02 5.462585e-02 5.445181e-02 5.453880e-02 5.453770e-02 5.444621e-02 5.463445e-02 5.438521e-02 5.470951e-02 5.273163e-02 5.174593e-02 4.979557e-02 4.976702e-02 4.826318e-02 4.867208e-02 4.753328e-02 4.805166e-02 4.724929e-02 4.768829e-02 4.719472e-02 4.746583e-02 4.724593e-02 4.732805e-02 4.733631e-02 4.724952e-02 4.743340e-02 4.722064e-02 4.752729e-02 4.724202e-02 4.762548e-02 4.732360e-02 4.775118e-02 4.748734e-02 4.794511e-02 4.777383e-02 4.827204e-02 4.825257e-02 4.882967e-02 4.903037e-02 4.974706e-02 5.023474e-02 5.112229e-02 5.190921e-02 5.283101e-02 5.370229e-02 5.315117e-02 5.309609e-02 5.316589e-02 5.196456e-02 5.280888e-02 5.122398e-02 5.201993e-02 5.126435e-02 5.083613e-02 5.137977e-02 4.992323e-02 5.097172e-02 5.015796e-02 4.990443e-02 5.053415e-02 4.932616e-02 4.977767e-02 4.876025e-02 4.903747e-02 4.834984e-02 4.846476e-02 4.811199e-02 4.807004e-02 4.801284e-02 4.780319e-02 4.800581e-02 4.761699e-02 4.805192e-02 4.748102e-02 4.812198e-02 4.738036e-02 4.819453e-02 4.731098e-02 4.825325e-02 4.727475e-02 4.828538e-02 4.727549e-02 4.828151e-02 4.731638e-02 4.823636e-02 4.739814e-02 4.814973e-02 4.751745e-02 4.802693e-02 4.766567e-02 4.787831e-02 4.782802e-02 4.771790e-02 4.798404e-02 4.756149e-02 4.810897e-02 4.742305e-02 4.817522e-02 4.730924e-02 4.815361e-02 4.721202e-02 4.801482e-02 4.710065e-02 4.773167e-02 4.691409e-02 4.728042e-02 4.655166e-02 4.662109e-02 4.584497e-02 4.558007e-02 4.440017e-02 4.326301e-02 4.220781e-02 4.127579e-02 4.094404e-02 
3.744634e-02 3.808133e-02 3.843294e-02 4.018624e-02 4.099959e-02 4.355834e-02 4.370332e-02 4.488228e-02 4.562861e-02 4.629131e-02 4.804203e-02 4.921188e-02 5.238343e-02 5.202247e-02 5.220242e-02 5.204449e-02 5.212874e-02 5.210461e-02 5.206352e-02 5.218245e-02 5.202948e-02 5.228324e-02 5.029905e-02 4.925350e-02 4.724025e-02 4.712823e-02 4.565926e-02 4.599351e-02 4.493806e-02 4.537176e-02 4.467936e-02 4.501856e-02 4.465438e-02 4.481331e-02 4.473733e-02 4.470253e-02 4.486131e-02 4.466244e-02 4.499182e-02 4.468268e-02 4.511739e-02 4.476320e-02 4.524556e-02 4.491156e-02 4.539571e-02 4.513836e-02 4.559380e-02 4.545789e-02 4.587295e-02 4.589203e-02 4.627567e-02 4.647523e-02 4.685635e-02 4.725483e-02 4.766402e-02 4.825513e-02 4.865279e-02 4.931325e-02 4.924907e-02 4.953170e-02 4.967371e-02 4.938258e-02 4.976493e-02 4.920353e-02 4.937874e-02 4.916095e-02 4.891560e-02 4.909900e-02 4.862308e-02 4.868438e-02 4.846590e-02 4.791388e-02 4.811319e-02 4.712007e-02 4.733051e-02 4.646352e-02 4.665639e-02 4.603139e-02 4.614243e-02 4.578163e-02 4.575499e-02 4.566300e-02 4.545357e-02 4.563343e-02 4.521060e-02 4.566081e-02 4.501210e-02 4.571967e-02 4.485423e-02 4.578837e-02 4.473860e-02 4.584586e-02 4.466760e-02 4.587252e-02 4.464527e-02 4.585524e-02 4.467711e-02 4.578797e-02 4.476572e-02 4.567129e-02 4.490787e-02 4.551131e-02 4.509048e-02 4.531790e-02 4.529144e-02 4.510790e-02 4.548533e-02 4.490609e-02 4.564463e-02 4.473780e-02 4.573665e-02 4.461926e-02 4.572416e-02 4.455149e-02 4.557017e-02 4.451326e-02 4.524324e-02 4.445220e-02 4.472525e-02 4.427062e-02 4.401780e-02 4.380160e-02 4.311655e-02 4.237658e-02 4.071484e-02 3.955847e-02 3.832936e-02 3.789094e-02 
3.750605e-02 3.813435e-02 3.895547e-02 4.158647e-02 4.327443e-02 4.918356e-02 4.706965e-02 4.669137e-02 4.772449e-02 4.661193e-02 4.765384e-02 4.705479e-02 4.650452e-02 4.559904e-02 4.599720e-02 4.571770e-02 4.590119e-02 4.586979e-02 4.573594e-02 4.602540e-02 4.554340e-02 4.625614e-02 4.618907e-02 4.739817e-02 4.619932e-02 4.747065e-02 4.633268e-02 4.750658e-02 4.656692e-02 4.747198e-02 4.682014e-02 4.739467e-02 4.706927e-02 4.731516e-02 4.730808e-02 4.726795e-02 4.753378e-02 4.727358e-02 4.774300e-02 4.734267e-02 4.793985e-02 4.748694e-02 4.814202e-02 4.772065e-02 4.837380e-02 4.805288e-02 4.865772e-02 4.848526e-02 4.901159e-02 4.900996e-02 4.944158e-02 4.960477e-02 4.993505e-02 5.022461e-02 5.044177e-02 5.077548e-02 5.085022e-02 5.110370e-02 5.103170e-02 5.107998e-02 5.098632e-02 5.083537e-02 5.078930e-02 5.056432e-02 5.050060e-02 5.034928e-02 5.019631e-02 5.004763e-02 4.990969e-02 4.972173e-02 4.974097e-02 4.940006e-02 4.956318e-02 4.907345e-02 4.933085e-02 4.878243e-02 4.905214e-02 4.854316e-02 4.875823e-02 4.836745e-02 4.846917e-02 4.825614e-02 4.819514e-02 4.820344e-02 4.794350e-02 4.819933e-02 4.772124e-02 4.823032e-02 4.753589e-02 4.828023e-02 4.739359e-02 4.832797e-02 4.729573e-02 4.835094e-02 4.724512e-02 4.833522e-02 4.724856e-02 4.827505e-02 4.731058e-02 4.817113e-02 4.743026e-02 4.802828e-02 4.759498e-02 4.785224e-02 4.778243e-02 4.765763e-02 4.797132e-02 4.747229e-02 4.814263e-02 4.732746e-02 4.827224e-02 4.724630e-02 4.833135e-02 4.724170e-02 4.829463e-02 4.731215e-02 4.814918e-02 4.743330e-02 4.791777e-02 4.754484e-02 4.774019e-02 4.756535e-02 4.830272e-02 4.630107e-02 4.303887e-02 4.055177e-02 3.879877e-02 3.788365e-02 
3.018767e-02 3.088759e-02 3.354241e-02 3.751730e-02 4.489140e-02 4.845992e-02 4.161873e-02 4.160773e-02 4.065306e-02 3.965534e-02 3.895651e-02 3.713720e-02 3.502775e-02 3.444920e-02 3.484672e-02 3.456249e-02 3.475633e-02 3.470240e-02 3.460499e-02 3.484680e-02 3.442250e-02 3.495821e-02 3.531961e-02 3.817918e-02 3.794571e-02 4.021466e-02 3.961540e-02 4.126149e-02 4.067269e-02 4.171096e-02 4.135762e-02 4.184758e-02 4.182826e-02 4.186081e-02 4.218224e-02 4.187100e-02 4.246984e-02 4.192736e-02 4.269453e-02 4.203455e-02 4.286096e-02 4.220884e-02 4.301074e-02 4.248276e-02 4.319083e-02 4.286592e-02 4.342738e-02 4.335034e-02 4.373869e-02 4.391503e-02 4.412404e-02 4.452860e-02 4.458712e-02 4.517753e-02 4.512626e-02 4.581180e-02 4.566899e-02 4.631650e-02 4.613896e-02 4.663669e-02 4.642812e-02 4.672892e-02 4.652545e-02 4.665348e-02 4.645314e-02 4.646768e-02 4.630514e-02 4.610405e-02 4.608307e-02 4.565521e-02 4.578448e-02 4.515596e-02 4.535793e-02 4.459619e-02 4.490308e-02 4.408417e-02 4.444309e-02 4.368835e-02 4.401840e-02 4.342395e-02 4.362478e-02 4.326745e-02 4.325113e-02 4.319837e-02 4.290158e-02 4.320171e-02 4.258764e-02 4.326059e-02 4.232689e-02 4.335890e-02 4.213490e-02 4.345981e-02 4.200031e-02 4.351037e-02 4.192110e-02 4.349109e-02 4.191974e-02 4.339904e-02 4.201180e-02 4.324129e-02 4.220905e-02 4.302971e-02 4.248843e-02 4.275454e-02 4.279648e-02 4.242666e-02 4.310301e-02 4.210779e-02 4.340009e-02 4.187162e-02 4.365739e-02 4.176600e-02 4.382379e-02 4.183455e-02 4.386108e-02 4.212833e-02 4.375905e-02 4.271754e-02 4.356821e-02 4.367050e-02 4.340226e-02 4.496143e-02 4.394793e-02 4.767425e-02 4.278863e-02 3.630524e-02 3.276953e-02 3.061875e-02 
2.500770e-02 2.457022e-02 3.064567e-02 3.327342e-02 4.252501e-02 2.112486e-02 2.169130e-02 2.378289e-02 1.822837e-02 2.235842e-02 1.802217e-02 1.967828e-02 1.768006e-02 1.816815e-02 1.890355e-02 1.862155e-02 1.909058e-02 1.888408e-02 1.878583e-02 1.925215e-02 1.781338e-02 1.944992e-02 1.827395e-02 2.004048e-02 2.004116e-02 2.062159e-02 2.103714e-02 2.084759e-02 2.162844e-02 2.089239e-02 2.198989e-02 2.088112e-02 2.221103e-02 2.089988e-02 2.235214e-02 2.100742e-02 2.244952e-02 2.120825e-02 2.249690e-02 2.147361e-02 2.249931e-02 2.180201e-02 2.251523e-02 2.221990e-02 2.260762e-02 2.273210e-02 2.280782e-02 2.332952e-02 2.313618e-02 2.399562e-02 2.359082e-02 2.470887e-02 2.418406e-02 2.548229e-02 2.492513e-02 2.628333e-02 2.571363e-02 2.694604e-02 2.628957e-02 2.715538e-02 2.663830e-02 2.701498e-02 2.668507e-02 2.666971e-02 2.646068e-02 2.626504e-02 2.606011e-02 2.594060e-02 2.569589e-02 2.542791e-02 2.538702e-02 2.471401e-02 2.512437e-02 2.408402e-02 2.469202e-02 2.354569e-02 2.420815e-02 2.316426e-02 2.374834e-02 2.294119e-02 2.331655e-02 2.283255e-02 2.290158e-02 2.280470e-02 2.251127e-02 2.283724e-02 2.216289e-02 2.291149e-02 2.188220e-02 2.301276e-02 2.169207e-02 2.309967e-02 2.158043e-02 2.310667e-02 2.154959e-02 2.301286e-02 2.163050e-02 2.281979e-02 2.184024e-02 2.254245e-02 2.218808e-02 2.220012e-02 2.263657e-02 2.178149e-02 2.310325e-02 2.130890e-02 2.353160e-02 2.087500e-02 2.389898e-02 2.058594e-02 2.415765e-02 2.051734e-02 2.423034e-02 2.074617e-02 2.405667e-02 2.136055e-02 2.361008e-02 2.247534e-02 2.291029e-02 2.422810e-02 2.186199e-02 2.663402e-02 1.981638e-02 3.316493e-02 3.993792e-02 3.398272e-02 2.815890e-02 2.482298e-02 
5.959476e-03 7.880685e-03 1.076716e-02 1.941827e-02 1.063974e-02 2.468049e-02 1.576076e-02 1.174866e-02 1.715506e-02 1.103794e-02 1.755994e-02 1.130068e-02 1.783728e-02 1.348052e-02 1.924884e-02 1.593692e-02 1.880823e-02 1.710503e-02 1.760472e-02 1.759655e-02 1.506566e-02 1.638346e-02 1.269930e-02 1.560362e-02 1.248556e-02 1.541507e-02 1.259796e-02 1.527676e-02 1.280837e-02 1.510721e-02 1.305070e-02 1.490411e-02 1.330907e-02 1.469240e-02 1.358519e-02 1.450070e-02 1.387843e-02 1.434313e-02 1.416610e-02 1.422682e-02 1.443051e-02 1.416336e-02 1.467747e-02 1.416875e-02 1.491233e-02 1.424896e-02 1.512998e-02 1.439568e-02 1.532238e-02 1.458531e-02 1.547130e-02 1.477489e-02 1.555873e-02 1.492072e-02 1.555214e-02 1.496500e-02 1.541084e-02 1.487176e-02 1.524782e-02 1.481055e-02 1.502116e-02 1.475684e-02 1.485061e-02 1.474562e-02 1.477711e-02 1.476001e-02 1.480724e-02 1.462399e-02 1.483692e-02 1.459741e-02 1.488306e-02 1.469678e-02 1.485377e-02 1.467974e-02 1.489088e-02 1.461097e-02 1.487724e-02 1.451341e-02 1.481584e-02 1.442049e-02 1.471542e-02 1.434990e-02 1.458720e-02 1.431019e-02 1.444669e-02 1.430323e-02 1.430578e-02 1.432584e-02 1.417400e-02 1.437661e-02 1.405418e-02 1.444673e-02 1.393896e-02 1.451492e-02 1.383277e-02 1.457673e-02 1.374711e-02 1.463512e-02 1.368846e-02 1.469295e-02 1.366366e-02 1.474027e-02 1.367367e-02 1.474580e-02 1.369920e-02 1.470180e-02 1.372415e-02 1.462494e-02 1.376897e-02 1.452646e-02 1.386947e-02 1.441765e-02 1.404813e-02 1.432854e-02 1.432868e-02 1.429410e-02 1.474680e-02 1.432871e-02 1.536203e-02 1.441060e-02 1.619061e-02 1.437959e-02 1.749285e-02 1.129680e-02 2.384373e-02 1.745658e-02 1.130695e-02 6.522955e-03 
4.507924e-03 4.589142e-03 1.267148e-03 3.896360e-03 1.125957e-02 1.498101e-02 1.191584e-02 6.202141e-03 3.475278e-03 3.626842e-03 1.585141e-03 1.145532e-03 4.632611e-03 8.431110e-03 9.834219e-03 1.103218e-02 1.008153e-02 1.121117e-02 9.769527e-03 9.352657e-03 8.196074e-03 3.293816e-03 2.239516e-03 3.350711e-03 2.547425e-03 5.490574e-03 4.382156e-03 6.268200e-03 5.369925e-03 6.443510e-03 5.967291e-03 6.379809e-03 6.370837e-03 6.266180e-03 6.675141e-03 6.209080e-03 6.919758e-03 6.235999e-03 7.089331e-03 6.326293e-03 7.180334e-03 6.479068e-03 7.247146e-03 6.725526e-03 7.354983e-03 7.084458e-03 7.551919e-03 7.572436e-03 7.898357e-03 8.221729e-03 8.463887e-03 9.094129e-03 9.368928e-03 1.033314e-02 1.075237e-02 1.203686e-02 1.254223e-02 1.393736e-02 1.390667e-02 1.488284e-02 1.498287e-02 1.509081e-02 1.530345e-02 1.470170e-02 1.484697e-02 1.401303e-02 1.382202e-02 1.381904e-02 1.295150e-02 1.285266e-02 1.214627e-02 1.106601e-02 1.163715e-02 9.697371e-03 1.063443e-02 8.630482e-03 9.703494e-03 7.965086e-03 8.970213e-03 7.646012e-03 8.390729e-03 7.562698e-03 7.898308e-03 7.629115e-03 7.462590e-03 7.788053e-03 7.079403e-03 7.997042e-03 6.765058e-03 8.227768e-03 6.540168e-03 8.430823e-03 6.395264e-03 8.536035e-03 6.338296e-03 8.521147e-03 6.404746e-03 8.387044e-03 6.613074e-03 8.148535e-03 6.972218e-03 7.822905e-03 7.444230e-03 7.395136e-03 7.942175e-03 6.887107e-03 8.405661e-03 6.392824e-03 8.815542e-03 6.021309e-03 9.130795e-03 5.861745e-03 9.277854e-03 6.011428e-03 9.195606e-03 6.554360e-03 8.853689e-03 7.545278e-03 8.287478e-03 9.020722e-03 7.575742e-03 1.086201e-02 8.577621e-03 1.657760e-02 8.046970e-03 3.603596e-03 4.686117e-03 4.540560e-03 
6.798873e-04 1.366965e-03 8.083113e-04 1.166636e-03 4.159986e-03 6.467765e-03 6.699348e-03 1.616507e-03 5.624886e-03 5.020331e-03 7.940646e-03 1.086275e-02 1.310775e-02 1.283719e-02 9.624434e-03 4.423370e-03 5.718895e-03 4.399689e-03 6.565205e-03 7.607527e-03 1.277330e-02 1.336970e-02 9.893980e-03 7.194752e-03 4.636208e-03 3.356170e-03 2.397049e-03 2.076803e-03 1.512036e-03 1.805224e-03 1.108319e-03 1.777947e-03 8.749767e-04 1.751317e-03 7.239910e-04 1.667182e-03 6.375388e-04 1.526769e-03 6.088481e-04 1.355333e-03 6.091437e-04 1.166377e-03 5.805100e-04 9.735192e-04 4.519994e-04 8.683014e-04 1.762803e-04 1.065374e-03 4.798077e-04 1.704225e-03 1.430109e-03 2.803632e-03 2.885705e-03 4.413554e-03 4.862487e-03 6.405105e-03 6.939389e-03 7.981572e-03 7.199025e-03 7.876552e-03 7.615305e-03 6.981381e-03 7.517933e-03 6.243712e-03 6.801411e-03 5.902398e-03 5.183564e-03 6.102682e-03 4.409302e-03 5.341673e-03 4.863702e-03 3.387253e-03 4.730782e-03 2.981870e-03 3.782371e-03 2.177309e-03 2.666444e-03 1.456248e-03 1.714630e-03 9.323648e-04 9.923036e-04 5.617290e-04 4.744054e-04 3.206247e-04 2.978262e-04 3.056303e-04 5.320913e-04 4.748939e-04 7.876664e-04 6.675283e-04 9.687298e-04 8.171919e-04 1.062813e-03 8.781628e-04 1.063143e-03 8.321980e-04 9.543560e-04 6.854489e-04 7.366401e-04 4.896544e-04 4.617345e-04 4.269387e-04 4.334331e-04 6.843762e-04 7.890992e-04 1.102264e-03 1.202181e-03 1.518463e-03 1.551678e-03 1.826167e-03 1.760649e-03 1.962182e-03 1.747163e-03 1.900873e-03 1.448699e-03 1.669290e-03 8.902086e-04 1.392683e-03 8.334603e-04 1.379984e-03 2.086329e-03 1.782207e-03 4.371610e-03 6.121734e-03 2.277231e-03 1.674947e-03 1.517885e-03 3.703053e-04 
