# vtk DataFile Version 2.0
Comment goes here
ASCII

DATASET STRUCTURED_POINTS
FIELD FieldData 1
TIME 1 1 double
0.19000000
DIMENSIONS    128   16   1

ORIGIN    0.000   0.000   0.000
SPACING   0.0078125 0.015625   1.000

POINT_DATA   2048
SCALARS uMag double
LOOKUP_TABLE default

2.796423e-03 3.780108e-03 2.058264e-03 3.960763e-03 1.544380e-03 7.103726e-03 5.769872e-03 2.071653e-03 4.205851e-03 1.504745e-03 1.215631e-03 8.795409e-03 1.260766e-02 2.145906e-02 2.564655e-02 2.940305e-02 2.881899e-02 3.075176e-02 2.773183e-02 2.631489e-02 2.137351e-02 1.355264e-02 7.716038e-03 3.283742e-03 3.306153e-04 1.466682e-03 2.840582e-03 3.633276e-03 4.138016e-03 4.679684e-03 4.573387e-03 5.105001e-03 4.609403e-03 5.310306e-03 4.604963e-03 5.389621e-03 4.536277e-03 5.338138e-03 4.502698e-03 5.259785e-03 4.591292e-03 5.268419e-03 4.761426e-03 5.135553e-03 4.734558e-03 4.859825e-03 4.708047e-03 4.672004e-03 4.751421e-03 4.592451e-03 4.806944e-03 4.535551e-03 4.596696e-03 4.193134e-03 3.662207e-03 3.012372e-03 1.937241e-03 1.981589e-03 1.933286e-03 5.322669e-03 5.073151e-03 6.143822e-03 6.515389e-03 5.324847e-03 6.365304e-03 2.180337e-03 6.144804e-03 6.691916e-03 4.622018e-03 7.534380e-03 3.793942e-03 4.650182e-03 7.415280e-03 4.265583e-03 4.934811e-03 5.367494e-03 4.096866e-03 5.145515e-03 3.570455e-03 4.856261e-03 3.707586e-03 4.570473e-03 4.008090e-03 4.215680e-03 4.313166e-03 3.796169e-03 4.569156e-03 3.334717e-03 4.754596e-03 3.064734e-03 4.964813e-03 2.932162e-03 5.080736e-03 2.901452e-03 5.067640e-03 3.023543e-03 4.944158e-03 3.266305e-03 4.613452e-03 3.506201e-03 4.098025e-03 3.847964e-03 3.573159e-03 4.316104e-03 3.084277e-03 4.828954e-03 2.701648e-03 5.345128e-03 2.429959e-03 5.683825e-03 2.266399e-03 5.793409e-03 2.329027e-03 5.684436e-03 2.722956e-03 5.272774e-03 3.318429e-03 4.433251e-03 4.088805e-03 3.400030e-03 5.170352e-03 2.539992e-03 6.732519e-03 1.604983e-03 2.598014e-03 1.835012e-03 2.614624e-03 3.157468e-03 
8.446662e-04 1.660733e-03 5.030302e-04 1.290743e-03 3.901953e-03 6.584455e-03 6.716121e-03 1.631769e-03 6.148832e-03 5.472032e-03 8.440937e-03 1.131764e-02 1.322156e-02 1.287699e-02 9.875341e-03 4.655791e-03 5.949520e-03 4.669340e-03 6.655961e-03 8.060467e-03 1.312572e-02 1.429507e-02 1.034536e-02 8.028329e-03 4.933125e-03 3.944373e-03 2.602576e-03 2.586299e-03 1.972375e-03 2.326412e-03 1.547982e-03 2.018102e-03 1.156155e-03 1.942576e-03 1.115199e-03 1.947960e-03 9.460283e-04 1.758375e-03 8.408789e-04 1.596425e-03 1.072416e-03 1.843583e-03 1.406577e-03 1.777174e-03 1.273113e-03 1.388772e-03 1.109582e-03 1.106155e-03 9.999204e-04 1.055833e-03 9.645040e-04 1.736777e-03 1.886860e-03 4.226741e-03 5.955375e-03 1.095580e-02 1.590003e-02 1.303758e-02 1.215740e-02 1.406827e-02 8.658209e-03 8.698667e-03 8.361546e-03 5.387380e-03 1.085300e-02 6.473632e-03 1.436560e-02 7.733499e-03 3.722693e-03 9.069545e-03 8.647562e-03 8.354970e-03 1.697444e-02 1.442939e-02 9.198159e-03 7.523211e-03 4.444720e-03 4.305950e-03 2.081674e-03 2.687640e-03 8.920924e-04 1.976549e-03 5.979303e-04 1.557602e-03 1.052244e-03 9.581695e-04 1.425208e-03 3.290075e-04 1.340326e-03 6.408342e-04 1.410314e-03 7.367657e-04 1.599899e-03 5.936813e-04 1.708337e-03 4.182292e-04 1.624385e-03 5.826047e-04 1.264914e-03 9.015820e-04 5.919579e-04 9.058752e-04 3.781954e-04 9.082505e-04 8.771613e-04 1.248108e-03 1.200669e-03 1.884301e-03 1.256129e-03 2.275044e-03 1.275644e-03 2.470999e-03 1.159660e-03 2.420537e-03 8.776433e-04 2.062744e-03 1.086284e-03 1.139615e-03 1.380841e-03 9.193804e-04 2.040395e-03 1.913162e-03 4.084748e-03 5.148647e-03 1.603934e-03 8.521391e-04 1.284454e-03 9.509993e-04 
4.514966e-03 4.893798e-03 1.602100e-03 3.942409e-03 1.104953e-02 1.516568e-02 1.123534e-02 6.395582e-03 3.789244e-03 3.892022e-03 1.526018e-03 1.393296e-03 5.439932e-03 8.986982e-03 1.037884e-02 1.162037e-02 1.068556e-02 1.201236e-02 1.045165e-02 1.002541e-02 8.816471e-03 3.191217e-03 2.468201e-03 3.007506e-03 2.429882e-03 5.330182e-03 4.285197e-03 6.071079e-03 4.940352e-03 6.095422e-03 5.642856e-03 6.409734e-03 6.284022e-03 6.461145e-03 6.625594e-03 6.354531e-03 7.010832e-03 6.474796e-03 7.291710e-03 6.393481e-03 7.154032e-03 5.910164e-03 6.572925e-03 5.666887e-03 6.686087e-03 6.147212e-03 6.959159e-03 6.265536e-03 6.148268e-03 5.459193e-03 4.792655e-03 5.530580e-03 5.473363e-03 8.636775e-03 9.141513e-03 1.488071e-02 1.575768e-02 9.387809e-03 9.411902e-03 1.454869e-02 1.667774e-02 1.731227e-02 1.991789e-02 1.758158e-02 2.020170e-02 1.316554e-02 1.845431e-02 2.151186e-02 1.487831e-02 2.297542e-02 1.406291e-02 2.282331e-02 2.448207e-02 2.113137e-02 1.208583e-02 8.992389e-03 3.822438e-03 4.073732e-03 4.586834e-03 5.506072e-03 6.234741e-03 6.492487e-03 5.872017e-03 6.247283e-03 5.264154e-03 6.455615e-03 5.755148e-03 7.791569e-03 6.595890e-03 8.996398e-03 6.631998e-03 9.102150e-03 6.253679e-03 8.848639e-03 6.102349e-03 8.732198e-03 6.187509e-03 8.339456e-03 6.316685e-03 8.172934e-03 6.979196e-03 8.318437e-03 8.110376e-03 7.917184e-03 8.395206e-03 6.804637e-03 8.477045e-03 6.095711e-03 8.798651e-03 5.773747e-03 8.962753e-03 5.376364e-03 8.847439e-03 5.559549e-03 8.872245e-03 6.116791e-03 8.905074e-03 7.117189e-03 8.445575e-03 8.577524e-03 7.438654e-03 1.060241e-02 6.597650e-03 1.643028e-02 7.998023e-03 3.459916e-03 4.129063e-03 4.490934e-03 
6.016439e-03 7.668315e-03 1.079614e-02 1.947390e-02 1.119920e-02 2.390600e-02 1.598373e-02 1.209619e-02 1.735821e-02 1.115959e-02 1.737337e-02 1.109139e-02 1.773128e-02 1.379210e-02 1.931723e-02 1.630408e-02 1.907334e-02 1.747646e-02 1.806780e-02 1.804696e-02 1.567616e-02 1.680305e-02 1.366418e-02 1.613039e-02 1.350579e-02 1.595086e-02 1.343480e-02 1.556975e-02 1.349635e-02 1.533802e-02 1.347363e-02 1.481803e-02 1.350549e-02 1.464274e-02 1.398623e-02 1.446776e-02 1.424378e-02 1.422966e-02 1.445447e-02 1.383797e-02 1.464357e-02 1.383841e-02 1.482339e-02 1.356216e-02 1.475672e-02 1.354409e-02 1.478726e-02 1.325855e-02 1.386290e-02 1.240870e-02 1.225168e-02 1.081870e-02 9.630037e-03 8.709255e-03 5.864591e-03 6.313776e-03 6.037490e-03 1.838317e-03 3.953924e-03 4.300726e-03 3.232919e-03 5.248877e-03 1.567387e-03 5.563473e-03 2.829344e-03 5.846204e-03 4.280169e-03 4.220779e-03 8.298549e-03 1.551903e-03 6.457615e-03 4.424324e-03 5.344998e-03 1.050161e-02 7.562981e-03 1.056517e-02 1.048442e-02 1.206408e-02 1.195195e-02 1.257967e-02 1.222749e-02 1.301681e-02 1.219337e-02 1.301639e-02 1.239623e-02 1.331543e-02 1.349765e-02 1.421585e-02 1.412253e-02 1.499015e-02 1.424541e-02 1.519894e-02 1.429714e-02 1.526295e-02 1.441622e-02 1.547724e-02 1.452279e-02 1.534619e-02 1.420628e-02 1.510411e-02 1.394978e-02 1.527746e-02 1.417075e-02 1.494269e-02 1.405015e-02 1.443846e-02 1.391115e-02 1.458442e-02 1.420980e-02 1.470433e-02 1.441718e-02 1.454644e-02 1.453749e-02 1.468570e-02 1.532261e-02 1.498208e-02 1.609454e-02 1.483629e-02 1.640589e-02 1.469941e-02 1.704005e-02 1.482415e-02 1.867826e-02 1.368683e-02 2.331545e-02 1.825307e-02 1.215574e-02 6.985824e-03 
2.549642e-02 2.522177e-02 3.144328e-02 3.361623e-02 4.056142e-02 2.067186e-02 2.214003e-02 2.462602e-02 1.908812e-02 2.286689e-02 1.835594e-02 1.960561e-02 1.773493e-02 1.819682e-02 1.892381e-02 1.861310e-02 1.907855e-02 1.878880e-02 1.870617e-02 1.912810e-02 1.761270e-02 1.939654e-02 1.847740e-02 2.036483e-02 2.014783e-02 2.102577e-02 2.101580e-02 2.120671e-02 2.116220e-02 2.106060e-02 2.160113e-02 2.164946e-02 2.222958e-02 2.187010e-02 2.222414e-02 2.181825e-02 2.236624e-02 2.204376e-02 2.242666e-02 2.206052e-02 2.197721e-02 2.130846e-02 2.095573e-02 2.087918e-02 2.075389e-02 2.101636e-02 2.053995e-02 2.065839e-02 1.941507e-02 1.917883e-02 1.701027e-02 1.650966e-02 1.366458e-02 1.308285e-02 8.363364e-03 6.423429e-03 4.631584e-03 7.248445e-03 3.603329e-03 6.732773e-03 3.469936e-03 3.951857e-03 7.016485e-03 3.021580e-03 9.499922e-03 4.307816e-03 7.399380e-03 9.142985e-03 5.288912e-04 1.281886e-02 3.537504e-03 1.185992e-02 1.229424e-02 4.578441e-03 6.301181e-03 1.018994e-02 1.365560e-02 1.550115e-02 1.882784e-02 1.917138e-02 2.115498e-02 2.088943e-02 2.128946e-02 2.102569e-02 2.095938e-02 2.143585e-02 2.137359e-02 2.275825e-02 2.209336e-02 2.364337e-02 2.190819e-02 2.367045e-02 2.146800e-02 2.335495e-02 2.122690e-02 2.315561e-02 2.129802e-02 2.282365e-02 2.163963e-02 2.285742e-02 2.252250e-02 2.320636e-02 2.368584e-02 2.294672e-02 2.415802e-02 2.210602e-02 2.407602e-02 2.131997e-02 2.418573e-02 2.087560e-02 2.420702e-02 2.047564e-02 2.392418e-02 2.051281e-02 2.352509e-02 2.090923e-02 2.304300e-02 2.215285e-02 2.240326e-02 2.386503e-02 2.133302e-02 2.618738e-02 2.013514e-02 3.485603e-02 4.278539e-02 3.467678e-02 2.898193e-02 2.524509e-02 
3.024193e-02 3.126231e-02 3.430232e-02 3.871515e-02 4.562709e-02 4.801029e-02 4.200766e-02 4.168280e-02 4.076672e-02 3.915032e-02 3.843958e-02 3.577992e-02 3.495362e-02 3.443241e-02 3.482114e-02 3.456604e-02 3.475953e-02 3.472320e-02 3.461247e-02 3.486570e-02 3.440009e-02 3.504782e-02 3.690510e-02 3.928902e-02 3.930034e-02 4.128280e-02 4.047735e-02 4.203111e-02 4.101774e-02 4.227308e-02 4.149032e-02 4.242938e-02 4.196858e-02 4.263123e-02 4.238149e-02 4.257327e-02 4.266204e-02 4.258107e-02 4.283246e-02 4.234873e-02 4.266231e-02 4.194834e-02 4.232019e-02 4.159992e-02 4.219603e-02 4.169223e-02 4.224460e-02 4.141145e-02 4.121645e-02 4.017716e-02 3.944971e-02 3.857462e-02 3.755578e-02 3.755586e-02 3.611205e-02 3.848399e-02 3.430557e-02 2.719308e-02 2.802995e-02 2.717738e-02 2.784492e-02 2.822782e-02 2.604887e-02 2.974600e-02 2.809483e-02 2.907025e-02 3.167190e-02 3.112398e-02 3.379889e-02 2.982298e-02 3.525768e-02 3.531537e-02 3.860761e-02 4.350244e-02 3.894572e-02 3.895533e-02 3.931149e-02 3.958264e-02 4.086943e-02 4.100423e-02 4.178204e-02 4.147234e-02 4.137831e-02 4.139683e-02 4.104365e-02 4.193939e-02 4.150150e-02 4.313782e-02 4.230097e-02 4.419687e-02 4.249388e-02 4.432730e-02 4.225133e-02 4.421957e-02 4.218043e-02 4.425039e-02 4.227491e-02 4.397026e-02 4.230421e-02 4.370391e-02 4.267788e-02 4.385153e-02 4.349487e-02 4.369028e-02 4.354302e-02 4.288454e-02 4.355300e-02 4.248709e-02 4.393647e-02 4.229357e-02 4.409405e-02 4.194209e-02 4.404202e-02 4.206190e-02 4.428980e-02 4.254850e-02 4.440390e-02 4.320393e-02 4.420776e-02 4.419556e-02 4.424883e-02 4.566191e-02 4.492785e-02 4.882278e-02 4.270314e-02 3.613755e-02 3.258710e-02 3.053662e-02 
3.721926e-02 3.802677e-02 3.901702e-02 4.185620e-02 4.375797e-02 4.940748e-02 4.683670e-02 4.611989e-02 4.726587e-02 4.611647e-02 4.739082e-02 4.639944e-02 4.622709e-02 4.558676e-02 4.597605e-02 4.570831e-02 4.588970e-02 4.586350e-02 4.572676e-02 4.603647e-02 4.553853e-02 4.664656e-02 4.686737e-02 4.770929e-02 4.647966e-02 4.773516e-02 4.640109e-02 4.765060e-02 4.646735e-02 4.755905e-02 4.656020e-02 4.734264e-02 4.668343e-02 4.727934e-02 4.694321e-02 4.717286e-02 4.708069e-02 4.702064e-02 4.713800e-02 4.678185e-02 4.709868e-02 4.663809e-02 4.707618e-02 4.646082e-02 4.695894e-02 4.638704e-02 4.693022e-02 4.629132e-02 4.668775e-02 4.615722e-02 4.668294e-02 4.652944e-02 4.765772e-02 4.832834e-02 5.114010e-02 5.357082e-02 6.011468e-02 5.969952e-02 5.370243e-02 5.648114e-02 5.291075e-02 5.297700e-02 5.414536e-02 5.082328e-02 5.550379e-02 5.210439e-02 5.409891e-02 5.504377e-02 5.091345e-02 5.817727e-02 5.276336e-02 5.805873e-02 6.179343e-02 5.214105e-02 5.118748e-02 4.734831e-02 4.769866e-02 4.611553e-02 4.667393e-02 4.607675e-02 4.646026e-02 4.621453e-02 4.626543e-02 4.642579e-02 4.622765e-02 4.687345e-02 4.645755e-02 4.745407e-02 4.674258e-02 4.800373e-02 4.690116e-02 4.822786e-02 4.691521e-02 4.831637e-02 4.696887e-02 4.837654e-02 4.707374e-02 4.828958e-02 4.714700e-02 4.811083e-02 4.730910e-02 4.803617e-02 4.763226e-02 4.787510e-02 4.774613e-02 4.752500e-02 4.788939e-02 4.735198e-02 4.812573e-02 4.722142e-02 4.823922e-02 4.708273e-02 4.827062e-02 4.715907e-02 4.842645e-02 4.742815e-02 4.847952e-02 4.765752e-02 4.835275e-02 4.791382e-02 4.830995e-02 4.798359e-02 4.820844e-02 4.635548e-02 4.257620e-02 4.024307e-02 3.834688e-02 3.756329e-02 
3.686209e-02 3.766489e-02 3.807565e-02 3.992845e-02 4.076053e-02 4.322432e-02 4.329854e-02 4.458461e-02 4.545553e-02 4.668823e-02 4.852521e-02 5.029080e-02 5.231369e-02 5.202585e-02 5.220364e-02 5.205351e-02 5.213525e-02 5.212117e-02 5.207640e-02 5.220623e-02 5.205003e-02 5.240811e-02 4.897833e-02 4.830133e-02 4.593080e-02 4.627149e-02 4.462566e-02 4.529617e-02 4.406399e-02 4.476902e-02 4.387815e-02 4.445932e-02 4.389125e-02 4.427747e-02 4.399705e-02 4.413376e-02 4.410729e-02 4.401148e-02 4.418272e-02 4.388160e-02 4.419819e-02 4.377147e-02 4.418934e-02 4.371799e-02 4.419898e-02 4.375941e-02 4.423192e-02 4.383349e-02 4.422830e-02 4.396613e-02 4.438746e-02 4.442444e-02 4.512177e-02 4.566096e-02 4.712008e-02 4.852952e-02 5.203527e-02 5.355288e-02 5.143255e-02 5.317791e-02 5.223793e-02 5.248270e-02 5.308185e-02 5.084013e-02 5.189357e-02 5.054788e-02 5.064490e-02 5.154024e-02 5.033068e-02 5.227138e-02 4.908570e-02 5.029866e-02 5.142455e-02 4.698395e-02 4.727810e-02 4.518101e-02 4.559446e-02 4.445383e-02 4.483761e-02 4.423491e-02 4.444410e-02 4.418890e-02 4.412698e-02 4.424318e-02 4.392344e-02 4.445614e-02 4.388366e-02 4.478552e-02 4.392740e-02 4.509010e-02 4.393279e-02 4.524384e-02 4.389935e-02 4.529355e-02 4.390317e-02 4.528681e-02 4.396647e-02 4.520451e-02 4.408433e-02 4.508756e-02 4.428999e-02 4.497600e-02 4.455828e-02 4.480034e-02 4.475778e-02 4.454362e-02 4.493273e-02 4.432857e-02 4.510907e-02 4.417086e-02 4.521934e-02 4.406499e-02 4.524783e-02 4.407379e-02 4.522249e-02 4.417986e-02 4.507277e-02 4.428830e-02 4.471944e-02 4.425839e-02 4.408009e-02 4.377415e-02 4.286199e-02 4.202649e-02 3.999967e-02 3.891688e-02 3.756446e-02 3.729117e-02 
3.999271e-02 4.076550e-02 4.094098e-02 4.269580e-02 4.315901e-02 4.546851e-02 4.567669e-02 4.678374e-02 4.794931e-02 4.887953e-02 5.091789e-02 5.253609e-02 5.469690e-02 5.439992e-02 5.461803e-02 5.444511e-02 5.453325e-02 5.453642e-02 5.444694e-02 5.464098e-02 5.439603e-02 5.472153e-02 5.096747e-02 5.045072e-02 4.813501e-02 4.860047e-02 4.700695e-02 4.776353e-02 4.656683e-02 4.731792e-02 4.643850e-02 4.703304e-02 4.645660e-02 4.683652e-02 4.654643e-02 4.668553e-02 4.664354e-02 4.655855e-02 4.672285e-02 4.646043e-02 4.678753e-02 4.642072e-02 4.686700e-02 4.646194e-02 4.697966e-02 4.660338e-02 4.715624e-02 4.686187e-02 4.743071e-02 4.728565e-02 4.791082e-02 4.798306e-02 4.872425e-02 4.904395e-02 4.990574e-02 5.043943e-02 5.127217e-02 5.195702e-02 5.142538e-02 5.207390e-02 5.157086e-02 5.168480e-02 5.188657e-02 5.141371e-02 5.209389e-02 5.173473e-02 5.183945e-02 5.223626e-02 5.145286e-02 5.254798e-02 5.162864e-02 5.191622e-02 5.202515e-02 5.032985e-02 5.048229e-02 4.890940e-02 4.912811e-02 4.797262e-02 4.818964e-02 4.745584e-02 4.758360e-02 4.721755e-02 4.718626e-02 4.716036e-02 4.692590e-02 4.721755e-02 4.675978e-02 4.733064e-02 4.664940e-02 4.744915e-02 4.656593e-02 4.752553e-02 4.650978e-02 4.756305e-02 4.650452e-02 4.756938e-02 4.655187e-02 4.752833e-02 4.664448e-02 4.745007e-02 4.679178e-02 4.735604e-02 4.697989e-02 4.723167e-02 4.716297e-02 4.707998e-02 4.733888e-02 4.694224e-02 4.749667e-02 4.682817e-02 4.759860e-02 4.674027e-02 4.762840e-02 4.669975e-02 4.758701e-02 4.668755e-02 4.743226e-02 4.661835e-02 4.708865e-02 4.634235e-02 4.641639e-02 4.557773e-02 4.510089e-02 4.391496e-02 4.254345e-02 4.159791e-02 4.057347e-02 4.038906e-02 
3.683989e-02 3.764581e-02 3.806468e-02 3.991903e-02 4.076151e-02 4.322261e-02 4.330624e-02 4.458205e-02 4.546272e-02 4.668462e-02 4.853672e-02 5.029386e-02 5.231869e-02 5.202776e-02 5.220550e-02 5.205129e-02 5.213396e-02 5.211675e-02 5.207472e-02 5.220179e-02 5.204648e-02 5.238461e-02 4.902662e-02 4.832518e-02 4.601024e-02 4.630022e-02 4.471976e-02 4.533027e-02 4.419982e-02 4.482558e-02 4.405372e-02 4.451877e-02 4.406922e-02 4.430695e-02 4.415849e-02 4.416185e-02 4.426093e-02 4.404873e-02 4.433856e-02 4.397398e-02 4.439292e-02 4.396079e-02 4.447766e-02 4.408145e-02 4.464115e-02 4.433191e-02 4.487220e-02 4.470109e-02 4.520038e-02 4.522059e-02 4.569479e-02 4.594542e-02 4.642567e-02 4.690812e-02 4.740821e-02 4.809725e-02 4.855685e-02 4.933791e-02 4.922406e-02 4.991830e-02 4.974528e-02 5.006424e-02 5.002718e-02 4.989766e-02 4.987362e-02 4.967955e-02 4.947291e-02 4.945287e-02 4.905891e-02 4.907629e-02 4.863882e-02 4.828776e-02 4.832369e-02 4.725087e-02 4.746099e-02 4.641060e-02 4.667871e-02 4.579882e-02 4.600475e-02 4.537262e-02 4.548436e-02 4.518407e-02 4.513903e-02 4.515515e-02 4.485541e-02 4.516606e-02 4.457635e-02 4.517922e-02 4.431852e-02 4.518254e-02 4.410046e-02 4.518550e-02 4.396908e-02 4.519770e-02 4.394160e-02 4.519696e-02 4.398174e-02 4.514205e-02 4.409032e-02 4.505845e-02 4.428148e-02 4.494901e-02 4.451161e-02 4.479641e-02 4.475485e-02 4.462870e-02 4.499436e-02 4.446556e-02 4.520083e-02 4.433373e-02 4.533417e-02 4.422882e-02 4.535056e-02 4.417036e-02 4.524685e-02 4.418778e-02 4.503636e-02 4.424620e-02 4.466386e-02 4.418305e-02 4.399365e-02 4.367193e-02 4.278331e-02 4.195563e-02 3.994679e-02 3.886811e-02 3.752909e-02 3.725955e-02 
3.717948e-02 3.798879e-02 3.899357e-02 4.183355e-02 4.375956e-02 4.939768e-02 4.686299e-02 4.612070e-02 4.730373e-02 4.613084e-02 4.747178e-02 4.644611e-02 4.626100e-02 4.558012e-02 4.597913e-02 4.570333e-02 4.588882e-02 4.586216e-02 4.573157e-02 4.602026e-02 4.553854e-02 4.653635e-02 4.693808e-02 4.772775e-02 4.660254e-02 4.775495e-02 4.657105e-02 4.770481e-02 4.670030e-02 4.764670e-02 4.694292e-02 4.757282e-02 4.715454e-02 4.742473e-02 4.733699e-02 4.732243e-02 4.749627e-02 4.720399e-02 4.758473e-02 4.712962e-02 4.763590e-02 4.710678e-02 4.774584e-02 4.729298e-02 4.796994e-02 4.758756e-02 4.822767e-02 4.802161e-02 4.860996e-02 4.858569e-02 4.907836e-02 4.924633e-02 4.961615e-02 4.992063e-02 5.012931e-02 5.054629e-02 5.059916e-02 5.108030e-02 5.095350e-02 5.139509e-02 5.120402e-02 5.154214e-02 5.141498e-02 5.160376e-02 5.146524e-02 5.149654e-02 5.129984e-02 5.123011e-02 5.112702e-02 5.101677e-02 5.107366e-02 5.077395e-02 5.095380e-02 5.036972e-02 5.063283e-02 4.992508e-02 5.020225e-02 4.944382e-02 4.963197e-02 4.896973e-02 4.910837e-02 4.874370e-02 4.879913e-02 4.868717e-02 4.848729e-02 4.858283e-02 4.807524e-02 4.842357e-02 4.767861e-02 4.829562e-02 4.734639e-02 4.820819e-02 4.712443e-02 4.816274e-02 4.705287e-02 4.817945e-02 4.707240e-02 4.814423e-02 4.714795e-02 4.808273e-02 4.733629e-02 4.802763e-02 4.757415e-02 4.792532e-02 4.783795e-02 4.780480e-02 4.809029e-02 4.765954e-02 4.831991e-02 4.754744e-02 4.847566e-02 4.742071e-02 4.849868e-02 4.733383e-02 4.842402e-02 4.736919e-02 4.833821e-02 4.755380e-02 4.824604e-02 4.777743e-02 4.811891e-02 4.774442e-02 4.804657e-02 4.622876e-02 4.248785e-02 4.015944e-02 3.828832e-02 3.750682e-02 
3.019277e-02 3.122770e-02 3.428308e-02 3.871613e-02 4.565590e-02 4.803350e-02 4.204493e-02 4.167770e-02 4.074394e-02 3.908906e-02 3.845634e-02 3.580558e-02 3.499669e-02 3.444650e-02 3.482962e-02 3.455263e-02 3.474738e-02 3.470408e-02 3.461710e-02 3.485975e-02 3.442581e-02 3.496303e-02 3.709778e-02 3.955185e-02 3.963590e-02 4.136136e-02 4.065726e-02 4.204411e-02 4.147987e-02 4.254453e-02 4.215929e-02 4.264348e-02 4.252323e-02 4.256434e-02 4.283933e-02 4.257358e-02 4.307584e-02 4.248346e-02 4.315600e-02 4.239812e-02 4.304427e-02 4.223642e-02 4.303334e-02 4.255634e-02 4.340207e-02 4.310516e-02 4.375079e-02 4.365402e-02 4.413047e-02 4.433500e-02 4.467426e-02 4.515597e-02 4.528888e-02 4.583250e-02 4.562944e-02 4.625418e-02 4.604121e-02 4.683828e-02 4.663922e-02 4.748597e-02 4.732876e-02 4.804491e-02 4.791639e-02 4.833249e-02 4.798325e-02 4.788416e-02 4.747263e-02 4.712185e-02 4.705228e-02 4.677103e-02 4.709797e-02 4.659989e-02 4.690855e-02 4.611786e-02 4.655448e-02 4.577287e-02 4.622710e-02 4.517735e-02 4.524057e-02 4.421522e-02 4.442946e-02 4.415606e-02 4.446917e-02 4.450952e-02 4.431986e-02 4.447880e-02 4.375419e-02 4.424840e-02 4.312719e-02 4.390574e-02 4.249839e-02 4.371598e-02 4.222265e-02 4.379893e-02 4.232841e-02 4.394997e-02 4.233738e-02 4.379665e-02 4.239401e-02 4.372608e-02 4.274876e-02 4.365276e-02 4.303959e-02 4.337493e-02 4.339091e-02 4.319098e-02 4.382805e-02 4.296147e-02 4.422676e-02 4.285202e-02 4.456381e-02 4.267716e-02 4.458349e-02 4.243225e-02 4.432175e-02 4.248032e-02 4.418284e-02 4.303182e-02 4.408319e-02 4.394388e-02 4.385703e-02 4.517605e-02 4.459282e-02 4.857119e-02 4.253543e-02 3.599539e-02 3.249649e-02 3.046424e-02 
2.544474e-02 2.519244e-02 3.141052e-02 3.364633e-02 4.053423e-02 2.059882e-02 2.195219e-02 2.437406e-02 1.867656e-02 2.244292e-02 1.784376e-02 1.925103e-02 1.748619e-02 1.809776e-02 1.883055e-02 1.862285e-02 1.910440e-02 1.892955e-02 1.884586e-02 1.926701e-02 1.784382e-02 1.946430e-02 1.903457e-02 2.081607e-02 2.100150e-02 2.126592e-02 2.154276e-02 2.116386e-02 2.205727e-02 2.129918e-02 2.233948e-02 2.103590e-02 2.237470e-02 2.100021e-02 2.254050e-02 2.116791e-02 2.268606e-02 2.141114e-02 2.279646e-02 2.168492e-02 2.270692e-02 2.186557e-02 2.269601e-02 2.245818e-02 2.315506e-02 2.336993e-02 2.360091e-02 2.395619e-02 2.376016e-02 2.445247e-02 2.405775e-02 2.498309e-02 2.434183e-02 2.526222e-02 2.427092e-02 2.517419e-02 2.436539e-02 2.547980e-02 2.488189e-02 2.613148e-02 2.592323e-02 2.695042e-02 2.698742e-02 2.755896e-02 2.758339e-02 2.754071e-02 2.752090e-02 2.735503e-02 2.742552e-02 2.750635e-02 2.791339e-02 2.745722e-02 2.788141e-02 2.671133e-02 2.731419e-02 2.603795e-02 2.659520e-02 2.499904e-02 2.501571e-02 2.356022e-02 2.378750e-02 2.339361e-02 2.372225e-02 2.379070e-02 2.351003e-02 2.393447e-02 2.307558e-02 2.397030e-02 2.256674e-02 2.366212e-02 2.197649e-02 2.348429e-02 2.192206e-02 2.373080e-02 2.228913e-02 2.379809e-02 2.231717e-02 2.334775e-02 2.238217e-02 2.303243e-02 2.272629e-02 2.255071e-02 2.288816e-02 2.182211e-02 2.312321e-02 2.137318e-02 2.361096e-02 2.103969e-02 2.404102e-02 2.094920e-02 2.443585e-02 2.096548e-02 2.442526e-02 2.096467e-02 2.390206e-02 2.133348e-02 2.337058e-02 2.236589e-02 2.262540e-02 2.393636e-02 2.125696e-02 2.607432e-02 2.005663e-02 3.464805e-02 4.261190e-02 3.449838e-02 2.887438e-02 2.516350e-02 
6.004002e-03 7.670366e-03 1.077429e-02 1.949214e-02 1.133264e-02 2.408092e-02 1.632640e-02 1.237265e-02 1.787500e-02 1.146939e-02 1.796284e-02 1.152504e-02 1.823899e-02 1.395781e-02 1.956915e-02 1.632182e-02 1.912171e-02 1.746360e-02 1.786380e-02 1.794680e-02 1.521388e-02 1.654142e-02 1.330029e-02 1.622754e-02 1.307850e-02 1.591706e-02 1.307145e-02 1.576846e-02 1.325924e-02 1.579307e-02 1.376404e-02 1.578786e-02 1.408345e-02 1.554182e-02 1.431353e-02 1.530623e-02 1.449378e-02 1.488081e-02 1.449111e-02 1.445021e-02 1.435909e-02 1.393270e-02 1.435718e-02 1.381390e-02 1.460523e-02 1.377465e-02 1.466736e-02 1.394951e-02 1.499884e-02 1.436275e-02 1.542261e-02 1.489452e-02 1.581030e-02 1.533739e-02 1.597135e-02 1.549598e-02 1.593439e-02 1.555087e-02 1.585352e-02 1.558484e-02 1.564047e-02 1.550941e-02 1.543868e-02 1.537586e-02 1.519139e-02 1.498178e-02 1.472758e-02 1.436423e-02 1.438140e-02 1.428969e-02 1.453726e-02 1.447314e-02 1.469584e-02 1.463321e-02 1.498378e-02 1.492511e-02 1.536923e-02 1.518519e-02 1.548400e-02 1.500735e-02 1.538968e-02 1.514577e-02 1.579788e-02 1.539418e-02 1.570021e-02 1.528322e-02 1.522742e-02 1.495301e-02 1.473794e-02 1.467180e-02 1.423740e-02 1.437683e-02 1.385763e-02 1.430582e-02 1.370658e-02 1.447941e-02 1.368734e-02 1.464920e-02 1.368024e-02 1.494747e-02 1.393743e-02 1.530473e-02 1.426764e-02 1.558874e-02 1.449285e-02 1.581243e-02 1.467905e-02 1.576827e-02 1.481958e-02 1.566360e-02 1.493865e-02 1.531800e-02 1.492875e-02 1.494212e-02 1.490614e-02 1.457846e-02 1.523818e-02 1.440147e-02 1.573176e-02 1.445499e-02 1.620506e-02 1.419901e-02 1.821861e-02 1.344029e-02 2.322856e-02 1.818165e-02 1.209262e-02 6.985306e-03 
4.539743e-03 4.862928e-03 1.545414e-03 3.824853e-03 1.117817e-02 1.537994e-02 1.112133e-02 6.478436e-03 3.760464e-03 3.733309e-03 1.554148e-03 1.443282e-03 4.996454e-03 8.765977e-03 1.028038e-02 1.158357e-02 1.074888e-02 1.194900e-02 1.063435e-02 1.024348e-02 9.210573e-03 3.749697e-03 2.625037e-03 3.272096e-03 2.587676e-03 5.510502e-03 4.227870e-03 6.147575e-03 5.328022e-03 6.584668e-03 6.095928e-03 6.492514e-03 6.426608e-03 6.342768e-03 6.773292e-03 6.313628e-03 7.014877e-03 6.216423e-03 7.088038e-03 6.101161e-03 6.875267e-03 5.852768e-03 6.771952e-03 6.144870e-03 7.175243e-03 6.790170e-03 7.466115e-03 7.309229e-03 7.685697e-03 7.882225e-03 8.142832e-03 8.613419e-03 8.718803e-03 9.199711e-03 9.035623e-03 9.590171e-03 9.701481e-03 1.077665e-02 1.083162e-02 1.231718e-02 1.257014e-02 1.360195e-02 1.403725e-02 1.432670e-02 1.465360e-02 1.420969e-02 1.437401e-02 1.449697e-02 1.427176e-02 1.469597e-02 1.462107e-02 1.402643e-02 1.434803e-02 1.219909e-02 1.287755e-02 1.067374e-02 1.156517e-02 9.283119e-03 9.748313e-03 7.776076e-03 8.491946e-03 7.739091e-03 8.538318e-03 8.341952e-03 8.342311e-03 8.523315e-03 7.716614e-03 8.511749e-03 6.995192e-03 8.221802e-03 6.231744e-03 8.068511e-03 5.989982e-03 8.320538e-03 6.229118e-03 8.496692e-03 6.316839e-03 8.228732e-03 6.485244e-03 8.113416e-03 7.079455e-03 7.897734e-03 7.538750e-03 7.394267e-03 7.968436e-03 7.071476e-03 8.552121e-03 6.682709e-03 9.046332e-03 6.460853e-03 9.457111e-03 6.231580e-03 9.423899e-03 6.010138e-03 8.948430e-03 6.199414e-03 8.602064e-03 7.072920e-03 8.115800e-03 8.432202e-03 6.889509e-03 1.027660e-02 6.086879e-03 1.600257e-02 7.912131e-03 3.538854e-03 4.216695e-03 4.561037e-03 
9.005731e-04 1.629136e-03 5.327104e-04 1.243711e-03 3.974448e-03 6.677614e-03 6.657180e-03 1.496523e-03 6.206646e-03 5.412916e-03 8.625926e-03 1.151723e-02 1.357349e-02 1.329299e-02 1.005860e-02 4.912243e-03 6.028962e-03 4.571354e-03 6.548806e-03 7.673489e-03 1.293067e-02 1.381276e-02 1.037147e-02 7.559979e-03 5.053708e-03 3.756184e-03 2.852674e-03 2.492271e-03 1.930387e-03 2.185228e-03 1.585902e-03 2.229819e-03 1.315297e-03 2.197545e-03 1.104634e-03 2.121550e-03 9.857834e-04 1.978028e-03 9.406514e-04 1.840903e-03 1.054868e-03 1.729478e-03 1.150471e-03 1.412912e-03 1.009069e-03 8.626405e-04 6.108258e-04 6.870587e-04 3.524866e-04 8.470499e-04 4.411344e-04 1.285693e-03 1.017576e-03 1.846681e-03 1.821630e-03 2.429378e-03 2.860958e-03 2.885022e-03 3.009112e-03 3.599702e-03 3.374496e-03 3.925887e-03 4.513142e-03 4.538367e-03 5.759299e-03 5.390904e-03 6.699087e-03 7.324466e-03 7.032317e-03 8.397241e-03 8.068584e-03 7.945304e-03 8.990835e-03 6.654406e-03 7.240457e-03 4.601726e-03 4.903414e-03 2.477888e-03 2.707943e-03 1.183641e-03 1.414822e-03 8.608639e-04 8.786211e-04 5.648617e-04 5.223247e-04 3.296064e-04 5.914700e-04 4.571953e-04 9.591310e-04 4.964432e-04 1.370791e-03 4.917492e-04 1.486904e-03 6.490534e-04 1.354654e-03 6.007223e-04 1.305720e-03 3.094363e-04 1.112389e-03 1.360688e-04 8.117656e-04 4.086721e-04 6.289230e-04 9.962703e-04 5.108810e-04 1.531822e-03 7.658786e-04 1.942609e-03 1.105844e-03 2.171027e-03 1.360492e-03 2.232163e-03 1.325782e-03 2.221067e-03 9.728077e-04 1.931542e-03 6.947959e-04 1.376031e-03 9.345584e-04 1.290994e-03 1.939509e-03 2.148859e-03 4.051024e-03 4.848076e-03 1.552221e-03 7.829925e-04 1.383771e-03 1.003043e-03 
