# vtk DataFile Version 2.0
Comment goes here
ASCII

DATASET STRUCTURED_POINTS
FIELD FieldData 1
TIME 1 1 double
0.48000000
DIMENSIONS    128   16   1

ORIGIN    0.000   0.000   0.000
SPACING   0.0078125 0.015625   1.000

POINT_DATA   2048
SCALARS uMag double
LOOKUP_TABLE default

6.128225e-03 4.312823e-03 4.961488e-03 2.604099e-03 3.674665e-03 2.588985e-03 1.007196e-02 3.591733e-04 5.784631e-03 3.751109e-03 2.636177e-03 1.371898e-02 2.045519e-02 3.549970e-02 4.335986e-02 4.723331e-02 4.965976e-02 4.968848e-02 4.745975e-02 4.294476e-02 3.644845e-02 2.016403e-02 1.329980e-02 4.453119e-03 2.607010e-03 2.154159e-03 1.852802e-03 4.971719e-03 3.723553e-03 6.172405e-03 4.523615e-03 6.639346e-03 4.882488e-03 6.736909e-03 5.065729e-03 6.630591e-03 5.194810e-03 6.417193e-03 5.327182e-03 6.163407e-03 5.479506e-03 5.912342e-03 5.641691e-03 5.684768e-03 5.784539e-03 5.479740e-03 5.867996e-03 5.289496e-03 5.861241e-03 5.123133e-03 5.743577e-03 4.982418e-03 5.459713e-03 4.800771e-03 4.842427e-03 4.330667e-03 2.977093e-03 1.380397e-03 2.092633e-03 1.004250e-03 1.643056e-03 1.361694e-03 2.109854e-03 3.881719e-04 5.347419e-04 6.467077e-03 3.179664e-03 1.085762e-03 1.689669e-03 7.845779e-04 3.096441e-03 3.151230e-03 1.536765e-03 5.406015e-03 3.323740e-03 5.689028e-03 3.861076e-03 5.522923e-03 4.086057e-03 5.237777e-03 4.232712e-03 4.922178e-03 4.389002e-03 4.622818e-03 4.574854e-03 4.347021e-03 4.778147e-03 4.088189e-03 4.972703e-03 3.840023e-03 5.129327e-03 3.610209e-03 5.230649e-03 3.429852e-03 5.273577e-03 3.335394e-03 5.253546e-03 3.353239e-03 5.155047e-03 3.490963e-03 4.949610e-03 3.737186e-03 4.613253e-03 4.077557e-03 4.158143e-03 4.505639e-03 3.632520e-03 5.004720e-03 3.093558e-03 5.523571e-03 2.595310e-03 5.977029e-03 2.200661e-03 6.274324e-03 1.999822e-03 6.344036e-03 2.118280e-03 6.138230e-03 2.735469e-03 5.641875e-03 4.216853e-03 4.965165e-03 7.792048e-03 1.494279e-03 5.040578e-03 2.848263e-03 5.883866e-03 4.426386e-03 
2.149146e-03 1.366524e-03 1.771433e-03 1.882556e-03 2.723080e-03 6.648063e-03 8.046809e-03 4.670190e-03 6.777221e-03 8.572449e-03 1.027190e-02 1.791895e-02 2.181649e-02 2.293050e-02 1.204696e-02 7.167897e-03 3.804482e-03 5.070251e-03 6.882188e-03 1.177074e-02 2.271736e-02 2.321312e-02 1.557094e-02 1.089045e-02 6.448483e-03 4.977608e-03 2.707125e-03 2.973601e-03 1.184839e-03 2.494663e-03 7.002815e-04 2.386530e-03 6.827457e-04 2.248522e-03 7.495273e-04 2.043163e-03 8.538793e-04 1.827350e-03 1.017997e-03 1.591479e-03 1.190425e-03 1.342683e-03 1.347060e-03 1.118673e-03 1.451559e-03 9.299940e-04 1.467789e-03 8.303191e-04 1.381447e-03 9.435339e-04 1.114215e-03 1.464606e-03 8.907682e-04 2.627942e-03 2.262239e-03 6.098278e-03 9.080055e-03 8.040547e-03 7.059879e-03 1.059714e-02 5.328373e-03 4.441729e-03 6.871944e-03 4.513763e-03 1.442798e-02 7.488266e-03 1.476847e-02 5.583269e-03 1.645368e-03 7.346166e-03 9.506656e-03 5.741902e-03 9.536891e-03 6.703491e-03 3.030308e-03 2.560425e-03 1.183454e-03 1.758136e-03 4.531702e-04 1.273253e-03 3.062052e-04 8.742836e-04 3.980307e-04 6.226103e-04 4.638825e-04 5.548686e-04 5.543501e-04 6.275073e-04 6.911316e-04 7.451373e-04 8.473169e-04 8.833772e-04 9.352256e-04 1.051259e-03 9.403598e-04 1.165569e-03 9.001847e-04 1.170731e-03 8.233150e-04 1.043205e-03 7.208413e-04 8.123386e-04 5.450237e-04 6.540514e-04 4.763712e-04 6.424285e-04 8.887699e-04 7.791994e-04 1.389335e-03 1.169886e-03 1.802068e-03 1.625777e-03 2.138810e-03 1.930318e-03 2.362436e-03 2.014636e-03 2.323609e-03 1.972004e-03 1.806326e-03 2.119988e-03 7.156012e-04 3.674300e-03 4.772747e-03 6.048816e-03 1.369263e-03 1.462996e-03 2.527782e-03 8.682693e-04 
8.787032e-03 7.946487e-03 6.379697e-03 6.440704e-03 8.101646e-03 2.513813e-02 4.965836e-03 1.220921e-02 3.918638e-03 8.968964e-03 4.680651e-04 6.840298e-03 9.360736e-03 1.565785e-02 1.880363e-02 1.979414e-02 2.008629e-02 2.107164e-02 1.894995e-02 1.843607e-02 1.613136e-02 7.048530e-03 2.585470e-03 2.867111e-03 4.891795e-03 6.162891e-03 7.757943e-03 7.762363e-03 9.150003e-03 8.386216e-03 9.813213e-03 8.635251e-03 1.020099e-02 8.866848e-03 1.048457e-02 9.097951e-03 1.055948e-02 9.212470e-03 1.044718e-02 9.300537e-03 1.030794e-02 9.423942e-03 1.015385e-02 9.544227e-03 1.001236e-02 9.674019e-03 9.857264e-03 9.698666e-03 9.557131e-03 9.590609e-03 9.129813e-03 9.493894e-03 8.512182e-03 9.490451e-03 7.794315e-03 1.158597e-02 1.052696e-02 2.933601e-03 3.071537e-03 4.494568e-03 6.683356e-03 4.673909e-03 6.435360e-03 2.788744e-03 3.734179e-03 9.642698e-03 1.022384e-02 8.436489e-03 4.053016e-03 6.321896e-03 7.380323e-03 1.018248e-02 9.027549e-03 1.235367e-02 8.129463e-03 9.362070e-03 9.317452e-03 9.545519e-03 1.003194e-02 9.964577e-03 1.045884e-02 1.051170e-02 1.071178e-02 1.099834e-02 1.073823e-02 1.132716e-02 1.062578e-02 1.155234e-02 1.043726e-02 1.167251e-02 1.022361e-02 1.178058e-02 1.013644e-02 1.197158e-02 1.016884e-02 1.213228e-02 1.023685e-02 1.219404e-02 1.034297e-02 1.210453e-02 1.044036e-02 1.183129e-02 1.060655e-02 1.158328e-02 1.105853e-02 1.143260e-02 1.169515e-02 1.110595e-02 1.220091e-02 1.052262e-02 1.253628e-02 9.933583e-03 1.286428e-02 9.564928e-03 1.322506e-02 9.487406e-03 1.346630e-02 9.708887e-03 1.338972e-02 1.049787e-02 1.313470e-02 1.360036e-02 1.742194e-02 1.740409e-02 9.093164e-03 3.958414e-03 7.810872e-03 7.619751e-03 
9.369680e-03 1.206525e-02 1.713860e-02 2.707063e-02 2.865881e-02 2.370445e-02 2.620257e-02 2.017007e-02 2.506546e-02 2.004533e-02 2.373248e-02 2.005019e-02 2.209641e-02 2.312319e-02 2.509364e-02 2.588628e-02 2.538897e-02 2.695208e-02 2.444644e-02 2.639219e-02 2.173843e-02 2.276842e-02 2.050859e-02 2.290592e-02 2.067773e-02 2.287606e-02 2.102912e-02 2.278012e-02 2.142321e-02 2.260915e-02 2.178679e-02 2.240032e-02 2.213402e-02 2.220521e-02 2.245645e-02 2.200350e-02 2.268007e-02 2.176096e-02 2.280543e-02 2.151118e-02 2.287468e-02 2.128521e-02 2.287587e-02 2.107512e-02 2.280580e-02 2.088624e-02 2.263041e-02 2.065482e-02 2.225811e-02 2.029385e-02 2.157924e-02 1.968935e-02 2.035380e-02 1.856128e-02 1.808266e-02 1.646811e-02 1.400414e-02 1.131498e-02 1.524573e-02 1.481510e-02 1.555016e-02 1.818326e-02 1.477672e-02 1.988433e-02 1.356956e-02 1.828292e-02 1.758182e-02 1.475183e-02 2.029602e-02 1.315670e-02 1.897571e-02 1.507896e-02 1.432385e-02 1.963902e-02 1.829662e-02 2.065844e-02 1.996900e-02 2.133359e-02 2.091675e-02 2.176164e-02 2.149249e-02 2.205709e-02 2.183342e-02 2.222552e-02 2.200548e-02 2.227005e-02 2.208910e-02 2.223891e-02 2.211392e-02 2.216260e-02 2.210334e-02 2.210137e-02 2.210707e-02 2.212575e-02 2.211258e-02 2.220731e-02 2.209156e-02 2.232600e-02 2.204865e-02 2.245890e-02 2.197007e-02 2.258829e-02 2.186340e-02 2.278601e-02 2.181373e-02 2.302827e-02 2.182144e-02 2.315228e-02 2.179771e-02 2.314773e-02 2.171439e-02 2.308928e-02 2.167110e-02 2.301706e-02 2.177903e-02 2.292336e-02 2.206493e-02 2.280298e-02 2.259639e-02 2.267349e-02 2.393070e-02 2.253600e-02 2.999840e-02 2.030504e-02 3.702166e-02 2.142979e-02 1.541865e-02 1.010565e-02 
3.598097e-02 3.813823e-02 4.309167e-02 5.043179e-02 6.031735e-02 4.618549e-02 2.867952e-02 3.929872e-02 2.825158e-02 3.504178e-02 2.656467e-02 2.971445e-02 2.227205e-02 2.516559e-02 2.490389e-02 2.528647e-02 2.564610e-02 2.531208e-02 2.563046e-02 2.527721e-02 2.480213e-02 2.462166e-02 2.877753e-02 2.907455e-02 3.188769e-02 3.124227e-02 3.329376e-02 3.227450e-02 3.391260e-02 3.276648e-02 3.410984e-02 3.306796e-02 3.416035e-02 3.340944e-02 3.417482e-02 3.375147e-02 3.403511e-02 3.396466e-02 3.374464e-02 3.412483e-02 3.345237e-02 3.427176e-02 3.316119e-02 3.434236e-02 3.286782e-02 3.430732e-02 3.250133e-02 3.399642e-02 3.184887e-02 3.325226e-02 3.075624e-02 3.192949e-02 2.880551e-02 2.944909e-02 2.493976e-02 2.450658e-02 1.621543e-02 1.415716e-02 1.981460e-02 1.654967e-02 1.872474e-02 1.994008e-02 1.811144e-02 2.328157e-02 1.850812e-02 2.481660e-02 2.311078e-02 1.643587e-02 2.850058e-02 1.390667e-02 2.728426e-02 1.884762e-02 1.907811e-02 2.714122e-02 2.841573e-02 3.046759e-02 3.150257e-02 3.202766e-02 3.292655e-02 3.308056e-02 3.369342e-02 3.396120e-02 3.412849e-02 3.465881e-02 3.427669e-02 3.515533e-02 3.425706e-02 3.551890e-02 3.414522e-02 3.574557e-02 3.399699e-02 3.591890e-02 3.396765e-02 3.612379e-02 3.405698e-02 3.625316e-02 3.418026e-02 3.624679e-02 3.433375e-02 3.606248e-02 3.446976e-02 3.567730e-02 3.467691e-02 3.530528e-02 3.516843e-02 3.504782e-02 3.583258e-02 3.466722e-02 3.636918e-02 3.408346e-02 3.674760e-02 3.353973e-02 3.711036e-02 3.326963e-02 3.747437e-02 3.334753e-02 3.768429e-02 3.376899e-02 3.754916e-02 3.478595e-02 3.715492e-02 3.754329e-02 3.692874e-02 6.366402e-02 5.805661e-02 4.767330e-02 3.915012e-02 3.731761e-02 
4.177370e-02 4.367942e-02 4.653180e-02 5.237510e-02 6.099356e-02 6.882549e-02 6.157683e-02 6.292210e-02 5.902016e-02 5.934554e-02 5.579284e-02 5.483173e-02 5.024657e-02 4.990377e-02 4.999332e-02 4.993431e-02 5.003128e-02 4.996967e-02 4.999447e-02 5.002151e-02 4.987379e-02 5.045517e-02 5.538623e-02 5.662890e-02 5.860733e-02 5.941939e-02 6.036391e-02 6.076809e-02 6.136113e-02 6.136882e-02 6.191394e-02 6.163601e-02 6.226746e-02 6.183265e-02 6.252666e-02 6.198080e-02 6.261681e-02 6.201087e-02 6.255030e-02 6.200253e-02 6.244674e-02 6.200277e-02 6.231687e-02 6.198021e-02 6.217078e-02 6.193068e-02 6.197461e-02 6.174671e-02 6.160036e-02 6.133812e-02 6.099685e-02 6.067244e-02 6.001512e-02 5.955231e-02 5.836810e-02 5.828069e-02 5.614435e-02 5.302292e-02 5.460259e-02 5.450809e-02 5.538593e-02 5.614668e-02 5.407154e-02 5.733954e-02 5.426304e-02 5.392829e-02 5.587249e-02 5.522734e-02 5.770178e-02 5.430162e-02 5.847715e-02 5.733397e-02 5.869156e-02 6.052459e-02 6.018157e-02 6.045099e-02 6.116653e-02 6.115755e-02 6.177270e-02 6.178533e-02 6.217018e-02 6.237607e-02 6.243616e-02 6.284452e-02 6.253496e-02 6.315244e-02 6.252146e-02 6.335046e-02 6.243855e-02 6.345084e-02 6.232142e-02 6.353648e-02 6.228278e-02 6.368225e-02 6.232105e-02 6.381461e-02 6.237019e-02 6.388673e-02 6.242553e-02 6.386069e-02 6.245255e-02 6.370892e-02 6.252583e-02 6.357296e-02 6.280689e-02 6.351719e-02 6.321087e-02 6.335675e-02 6.351964e-02 6.300535e-02 6.373645e-02 6.263379e-02 6.399457e-02 6.242462e-02 6.433362e-02 6.245035e-02 6.469065e-02 6.272475e-02 6.504474e-02 6.342595e-02 6.576707e-02 6.505003e-02 6.868925e-02 6.885642e-02 5.558996e-02 4.956524e-02 4.412729e-02 4.286007e-02 
5.277819e-02 5.451882e-02 5.495052e-02 5.885551e-02 6.062987e-02 6.761650e-02 6.765230e-02 6.777226e-02 6.734833e-02 6.825302e-02 6.791732e-02 6.937221e-02 6.830644e-02 6.739205e-02 6.745477e-02 6.741824e-02 6.750751e-02 6.744933e-02 6.747384e-02 6.748900e-02 6.734942e-02 6.877354e-02 6.923947e-02 6.858006e-02 6.806022e-02 6.827465e-02 6.790220e-02 6.817040e-02 6.796961e-02 6.808148e-02 6.808107e-02 6.800671e-02 6.819639e-02 6.796379e-02 6.829364e-02 6.793924e-02 6.833886e-02 6.790900e-02 6.832546e-02 6.787774e-02 6.827477e-02 6.785046e-02 6.819812e-02 6.782192e-02 6.810832e-02 6.779357e-02 6.802027e-02 6.776777e-02 6.796820e-02 6.779480e-02 6.808184e-02 6.804124e-02 6.867486e-02 6.887993e-02 7.049166e-02 7.147784e-02 7.622528e-02 7.719512e-02 7.194958e-02 7.401293e-02 7.149266e-02 7.094135e-02 7.230152e-02 6.878290e-02 7.372186e-02 6.913277e-02 7.108957e-02 7.317813e-02 6.726595e-02 7.499384e-02 6.929275e-02 7.319438e-02 7.604067e-02 6.911430e-02 7.008574e-02 6.789609e-02 6.872973e-02 6.786219e-02 6.832199e-02 6.805939e-02 6.824779e-02 6.833437e-02 6.827473e-02 6.859830e-02 6.830049e-02 6.881113e-02 6.829787e-02 6.897145e-02 6.826874e-02 6.908906e-02 6.822890e-02 6.918890e-02 6.820729e-02 6.928875e-02 6.821050e-02 6.937372e-02 6.822935e-02 6.942576e-02 6.826291e-02 6.943131e-02 6.831278e-02 6.938849e-02 6.840198e-02 6.932477e-02 6.855889e-02 6.924944e-02 6.875842e-02 6.912852e-02 6.894625e-02 6.895221e-02 6.910751e-02 6.876803e-02 6.925603e-02 6.863387e-02 6.938627e-02 6.857917e-02 6.946105e-02 6.859959e-02 6.943608e-02 6.864817e-02 6.929777e-02 6.847159e-02 6.924708e-02 6.455748e-02 5.962503e-02 5.715977e-02 5.425106e-02 5.396613e-02 
5.213008e-02 5.341896e-02 5.391523e-02 5.658763e-02 5.787216e-02 6.137611e-02 6.224071e-02 6.455235e-02 6.571794e-02 6.788466e-02 7.060473e-02 7.307745e-02 7.812631e-02 7.788032e-02 7.794005e-02 7.788385e-02 7.792473e-02 7.789974e-02 7.790645e-02 7.792283e-02 7.788983e-02 7.821787e-02 7.184444e-02 7.075333e-02 6.745457e-02 6.723264e-02 6.558778e-02 6.550261e-02 6.475850e-02 6.459430e-02 6.440815e-02 6.410287e-02 6.428478e-02 6.384462e-02 6.426143e-02 6.371823e-02 6.426172e-02 6.366162e-02 6.425133e-02 6.364857e-02 6.422713e-02 6.366660e-02 6.419301e-02 6.370665e-02 6.416013e-02 6.376846e-02 6.414561e-02 6.385912e-02 6.418061e-02 6.401707e-02 6.434663e-02 6.434425e-02 6.480822e-02 6.502467e-02 6.585149e-02 6.644698e-02 6.847211e-02 6.967762e-02 6.805453e-02 6.913227e-02 6.847626e-02 6.844135e-02 6.939777e-02 6.701637e-02 6.862848e-02 6.751381e-02 6.731759e-02 6.835493e-02 6.652484e-02 6.864332e-02 6.615619e-02 6.684890e-02 6.761499e-02 6.462038e-02 6.543156e-02 6.420427e-02 6.485898e-02 6.414713e-02 6.460485e-02 6.421330e-02 6.449097e-02 6.434639e-02 6.442596e-02 6.449845e-02 6.436297e-02 6.464172e-02 6.428904e-02 6.476878e-02 6.420790e-02 6.488003e-02 6.413167e-02 6.498282e-02 6.407763e-02 6.507877e-02 6.405077e-02 6.515277e-02 6.404783e-02 6.518877e-02 6.407059e-02 6.517655e-02 6.412455e-02 6.511606e-02 6.422502e-02 6.502289e-02 6.438424e-02 6.490311e-02 6.458141e-02 6.474255e-02 6.477706e-02 6.454197e-02 6.494875e-02 6.433233e-02 6.508287e-02 6.414274e-02 6.514177e-02 6.396448e-02 6.504159e-02 6.372175e-02 6.463048e-02 6.322579e-02 6.363607e-02 6.208248e-02 6.157752e-02 5.929410e-02 5.670297e-02 5.508479e-02 5.312732e-02 5.287841e-02 
5.696131e-02 5.833482e-02 5.828598e-02 6.090140e-02 6.154349e-02 6.483197e-02 6.578497e-02 6.789437e-02 6.936154e-02 7.127487e-02 7.406149e-02 7.629601e-02 8.146011e-02 8.138224e-02 8.143736e-02 8.138830e-02 8.142779e-02 8.140691e-02 8.140658e-02 8.143108e-02 8.138016e-02 8.143849e-02 7.477118e-02 7.397374e-02 7.078116e-02 7.070050e-02 6.911917e-02 6.916016e-02 6.841688e-02 6.838730e-02 6.814817e-02 6.798113e-02 6.807491e-02 6.776800e-02 6.808540e-02 6.766831e-02 6.812388e-02 6.764061e-02 6.816268e-02 6.766128e-02 6.819220e-02 6.771845e-02 6.821735e-02 6.781132e-02 6.825676e-02 6.795160e-02 6.834277e-02 6.816495e-02 6.852219e-02 6.849447e-02 6.885935e-02 6.900488e-02 6.942937e-02 6.976399e-02 7.024844e-02 7.074311e-02 7.112626e-02 7.182725e-02 7.128529e-02 7.179429e-02 7.133961e-02 7.131825e-02 7.140792e-02 7.090640e-02 7.132738e-02 7.094800e-02 7.065524e-02 7.124976e-02 6.995817e-02 7.129159e-02 7.012768e-02 7.066224e-02 7.054788e-02 6.973826e-02 6.997276e-02 6.915401e-02 6.941589e-02 6.879044e-02 6.900570e-02 6.860882e-02 6.873131e-02 6.854641e-02 6.854247e-02 6.855480e-02 6.840078e-02 6.860358e-02 6.828515e-02 6.867571e-02 6.818732e-02 6.876119e-02 6.810600e-02 6.885127e-02 6.804177e-02 6.893471e-02 6.799525e-02 6.899890e-02 6.796896e-02 6.903362e-02 6.796874e-02 6.903368e-02 6.800259e-02 6.899871e-02 6.807617e-02 6.892984e-02 6.818712e-02 6.882792e-02 6.832404e-02 6.869630e-02 6.847018e-02 6.854406e-02 6.860539e-02 6.838252e-02 6.870208e-02 6.821337e-02 6.871548e-02 6.800788e-02 6.856661e-02 6.767188e-02 6.810850e-02 6.698374e-02 6.706204e-02 6.552291e-02 6.495245e-02 6.269589e-02 6.087412e-02 5.950481e-02 5.788626e-02 5.785636e-02 
5.213293e-02 5.342335e-02 5.391656e-02 5.659309e-02 5.787366e-02 6.138196e-02 6.224127e-02 6.454846e-02 6.571939e-02 6.787643e-02 7.060465e-02 7.306834e-02 7.812619e-02 7.787921e-02 7.793879e-02 7.788339e-02 7.792351e-02 7.790019e-02 7.790569e-02 7.792384e-02 7.789001e-02 7.820644e-02 7.186693e-02 7.074250e-02 6.746117e-02 6.722130e-02 6.560240e-02 6.548622e-02 6.479202e-02 6.456698e-02 6.446318e-02 6.405917e-02 6.435782e-02 6.378454e-02 6.435624e-02 6.366463e-02 6.440235e-02 6.365433e-02 6.445763e-02 6.371089e-02 6.449494e-02 6.380615e-02 6.451377e-02 6.393475e-02 6.453605e-02 6.411015e-02 6.460288e-02 6.436173e-02 6.475909e-02 6.471204e-02 6.503372e-02 6.517753e-02 6.545767e-02 6.578973e-02 6.605666e-02 6.655580e-02 6.676353e-02 6.736518e-02 6.720371e-02 6.772076e-02 6.756797e-02 6.780823e-02 6.782525e-02 6.773465e-02 6.776929e-02 6.774385e-02 6.749558e-02 6.769133e-02 6.719244e-02 6.741991e-02 6.693957e-02 6.678980e-02 6.672900e-02 6.602309e-02 6.620077e-02 6.545629e-02 6.574641e-02 6.508810e-02 6.540716e-02 6.487490e-02 6.514991e-02 6.476455e-02 6.493696e-02 6.472555e-02 6.475151e-02 6.474249e-02 6.458818e-02 6.480514e-02 6.444973e-02 6.490598e-02 6.433907e-02 6.502555e-02 6.424741e-02 6.513414e-02 6.416934e-02 6.521090e-02 6.411119e-02 6.524357e-02 6.408632e-02 6.523182e-02 6.411620e-02 6.518194e-02 6.420846e-02 6.508528e-02 6.434606e-02 6.493286e-02 6.451460e-02 6.474127e-02 6.470864e-02 6.453790e-02 6.490755e-02 6.433908e-02 6.506997e-02 6.415043e-02 6.514051e-02 6.395918e-02 6.504166e-02 6.370738e-02 6.464175e-02 6.321966e-02 6.366450e-02 6.208492e-02 6.160687e-02 5.929997e-02 5.671795e-02 5.508874e-02 5.313424e-02 5.288212e-02 
5.278387e-02 5.452423e-02 5.495563e-02 5.886637e-02 6.064005e-02 6.763473e-02 6.765443e-02 6.774390e-02 6.735492e-02 6.821600e-02 6.791706e-02 6.933931e-02 6.829981e-02 6.738963e-02 6.745295e-02 6.741718e-02 6.750362e-02 6.745117e-02 6.746908e-02 6.749276e-02 6.734843e-02 6.875736e-02 6.929858e-02 6.856097e-02 6.809517e-02 6.825488e-02 6.795374e-02 6.814334e-02 6.805741e-02 6.803757e-02 6.821375e-02 6.793895e-02 6.837172e-02 6.787482e-02 6.852259e-02 6.787655e-02 6.867342e-02 6.795485e-02 6.880982e-02 6.808190e-02 6.890601e-02 6.823330e-02 6.896566e-02 6.840931e-02 6.901564e-02 6.862785e-02 6.910375e-02 6.892261e-02 6.927017e-02 6.929486e-02 6.950378e-02 6.970818e-02 6.977815e-02 7.013839e-02 7.007492e-02 7.055458e-02 7.034344e-02 7.088034e-02 7.052699e-02 7.104159e-02 7.065033e-02 7.112651e-02 7.077841e-02 7.120963e-02 7.086835e-02 7.130022e-02 7.086354e-02 7.123620e-02 7.078715e-02 7.109446e-02 7.074339e-02 7.083781e-02 7.063513e-02 7.045156e-02 7.041222e-02 7.003424e-02 7.013354e-02 6.968212e-02 6.986828e-02 6.942308e-02 6.962209e-02 6.923983e-02 6.938672e-02 6.912645e-02 6.917000e-02 6.908467e-02 6.897790e-02 6.911030e-02 6.881803e-02 6.919915e-02 6.869358e-02 6.932423e-02 6.858410e-02 6.944125e-02 6.847718e-02 6.952492e-02 6.838155e-02 6.956230e-02 6.831465e-02 6.955770e-02 6.830930e-02 6.952502e-02 6.837605e-02 6.944641e-02 6.848634e-02 6.930238e-02 6.862755e-02 6.911999e-02 6.881157e-02 6.893958e-02 6.902621e-02 6.877860e-02 6.923199e-02 6.865006e-02 6.938910e-02 6.857443e-02 6.947017e-02 6.857896e-02 6.946846e-02 6.864058e-02 6.936164e-02 6.847242e-02 6.930626e-02 6.457190e-02 5.965050e-02 5.716498e-02 5.426260e-02 5.396961e-02 
4.177109e-02 4.368973e-02 4.653018e-02 5.239685e-02 6.100237e-02 6.885866e-02 6.158190e-02 6.291591e-02 5.903182e-02 5.932004e-02 5.578456e-02 5.479657e-02 5.024686e-02 4.989908e-02 4.998871e-02 4.993198e-02 5.002589e-02 4.997219e-02 4.999050e-02 5.002926e-02 4.987969e-02 5.044769e-02 5.534464e-02 5.659673e-02 5.853667e-02 5.938675e-02 6.036632e-02 6.072984e-02 6.145818e-02 6.129890e-02 6.210368e-02 6.149579e-02 6.248351e-02 6.155039e-02 6.272636e-02 6.164597e-02 6.296873e-02 6.187421e-02 6.319291e-02 6.212844e-02 6.328938e-02 6.233460e-02 6.327335e-02 6.250949e-02 6.319278e-02 6.269321e-02 6.317532e-02 6.302763e-02 6.335286e-02 6.350728e-02 6.361303e-02 6.395169e-02 6.383977e-02 6.433747e-02 6.409334e-02 6.472284e-02 6.438326e-02 6.505383e-02 6.467160e-02 6.533162e-02 6.497963e-02 6.560687e-02 6.530022e-02 6.581493e-02 6.551673e-02 6.592310e-02 6.563056e-02 6.580810e-02 6.560152e-02 6.556461e-02 6.547026e-02 6.521191e-02 6.521772e-02 6.472298e-02 6.486836e-02 6.419128e-02 6.452312e-02 6.380890e-02 6.428737e-02 6.357858e-02 6.406518e-02 6.338758e-02 6.379317e-02 6.324572e-02 6.352345e-02 6.319355e-02 6.327073e-02 6.322936e-02 6.307012e-02 6.339955e-02 6.296464e-02 6.365316e-02 6.286031e-02 6.385428e-02 6.270932e-02 6.397814e-02 6.254803e-02 6.400310e-02 6.239788e-02 6.395931e-02 6.238459e-02 6.394492e-02 6.255138e-02 6.386722e-02 6.274216e-02 6.359766e-02 6.292220e-02 6.324299e-02 6.321434e-02 6.294445e-02 6.361765e-02 6.269912e-02 6.402463e-02 6.250635e-02 6.436569e-02 6.241899e-02 6.463913e-02 6.261108e-02 6.503748e-02 6.340675e-02 6.590009e-02 6.509833e-02 6.881589e-02 6.890432e-02 5.561469e-02 4.957457e-02 4.413191e-02 4.286637e-02 
3.597010e-02 3.813617e-02 4.308476e-02 5.044644e-02 6.032542e-02 4.620206e-02 2.871906e-02 3.941191e-02 2.829626e-02 3.513702e-02 2.658627e-02 2.976922e-02 2.230957e-02 2.517450e-02 2.491875e-02 2.528363e-02 2.563372e-02 2.531407e-02 2.560857e-02 2.527476e-02 2.479500e-02 2.445811e-02 2.870928e-02 2.883272e-02 3.183860e-02 3.100557e-02 3.340930e-02 3.206714e-02 3.422211e-02 3.256279e-02 3.459661e-02 3.280809e-02 3.471311e-02 3.297529e-02 3.470820e-02 3.323128e-02 3.475479e-02 3.365202e-02 3.482051e-02 3.407541e-02 3.476024e-02 3.440465e-02 3.460387e-02 3.465988e-02 3.441299e-02 3.488435e-02 3.435233e-02 3.526617e-02 3.458388e-02 3.580372e-02 3.493171e-02 3.625071e-02 3.523502e-02 3.657469e-02 3.556554e-02 3.686461e-02 3.592543e-02 3.708769e-02 3.623552e-02 3.720362e-02 3.661519e-02 3.727947e-02 3.695267e-02 3.727193e-02 3.712276e-02 3.721409e-02 3.715857e-02 3.728895e-02 3.715623e-02 3.717956e-02 3.711105e-02 3.685249e-02 3.702319e-02 3.640820e-02 3.671212e-02 3.598482e-02 3.638831e-02 3.575699e-02 3.618591e-02 3.568274e-02 3.597412e-02 3.559881e-02 3.567275e-02 3.551553e-02 3.535791e-02 3.548601e-02 3.505612e-02 3.551286e-02 3.482705e-02 3.567203e-02 3.473665e-02 3.591318e-02 3.466134e-02 3.607065e-02 3.455291e-02 3.612584e-02 3.446475e-02 3.605560e-02 3.441907e-02 3.589697e-02 3.457080e-02 3.578397e-02 3.496507e-02 3.558296e-02 3.538234e-02 3.512020e-02 3.575231e-02 3.455079e-02 3.621616e-02 3.406937e-02 3.676309e-02 3.367299e-02 3.722951e-02 3.337514e-02 3.749605e-02 3.325752e-02 3.750620e-02 3.354470e-02 3.738351e-02 3.468944e-02 3.717641e-02 3.757555e-02 3.700430e-02 6.380961e-02 5.809061e-02 4.767906e-02 3.914101e-02 3.731270e-02 
9.336268e-03 1.206529e-02 1.713118e-02 2.708217e-02 2.870022e-02 2.366707e-02 2.622848e-02 1.999798e-02 2.512056e-02 1.981973e-02 2.380366e-02 1.981570e-02 2.220517e-02 2.289442e-02 2.523817e-02 2.568890e-02 2.555548e-02 2.683416e-02 2.457819e-02 2.639901e-02 2.186216e-02 2.290258e-02 2.045046e-02 2.312896e-02 2.058004e-02 2.315154e-02 2.089106e-02 2.305559e-02 2.124052e-02 2.286190e-02 2.156874e-02 2.262505e-02 2.186686e-02 2.239402e-02 2.215210e-02 2.223117e-02 2.247035e-02 2.216787e-02 2.277050e-02 2.215378e-02 2.298176e-02 2.215920e-02 2.311251e-02 2.218042e-02 2.317552e-02 2.221325e-02 2.323139e-02 2.232430e-02 2.332297e-02 2.251651e-02 2.336115e-02 2.268011e-02 2.331497e-02 2.278306e-02 2.321194e-02 2.283156e-02 2.304936e-02 2.278553e-02 2.286728e-02 2.273732e-02 2.269841e-02 2.279830e-02 2.268346e-02 2.295795e-02 2.278538e-02 2.314454e-02 2.293337e-02 2.305396e-02 2.299023e-02 2.299167e-02 2.305331e-02 2.299650e-02 2.305714e-02 2.290474e-02 2.306769e-02 2.270399e-02 2.302268e-02 2.250917e-02 2.298473e-02 2.235282e-02 2.291978e-02 2.221587e-02 2.281564e-02 2.212153e-02 2.270840e-02 2.209376e-02 2.260617e-02 2.212706e-02 2.252616e-02 2.224003e-02 2.247405e-02 2.241075e-02 2.238282e-02 2.256706e-02 2.224088e-02 2.268978e-02 2.206398e-02 2.276940e-02 2.186157e-02 2.282825e-02 2.169051e-02 2.293778e-02 2.158819e-02 2.303352e-02 2.151320e-02 2.305855e-02 2.143380e-02 2.307819e-02 2.140019e-02 2.312004e-02 2.146673e-02 2.312526e-02 2.161097e-02 2.307148e-02 2.182267e-02 2.296180e-02 2.213651e-02 2.282385e-02 2.276058e-02 2.269692e-02 2.418194e-02 2.257556e-02 3.012894e-02 2.053509e-02 3.708966e-02 2.143222e-02 1.539270e-02 1.009626e-02 
8.768651e-03 7.946560e-03 6.377307e-03 6.428936e-03 8.126772e-03 2.511697e-02 5.018846e-03 1.218825e-02 3.972197e-03 8.882439e-03 5.100422e-04 6.742778e-03 9.288191e-03 1.575471e-02 1.875168e-02 1.983421e-02 2.006277e-02 2.101223e-02 1.897697e-02 1.827146e-02 1.612671e-02 6.948921e-03 3.068948e-03 2.732202e-03 4.768980e-03 6.170810e-03 7.656404e-03 7.817477e-03 9.133680e-03 8.439223e-03 9.870639e-03 8.628480e-03 1.022731e-02 8.683775e-03 1.041130e-02 8.825274e-03 1.061593e-02 9.155967e-03 1.080034e-02 9.517938e-03 1.081385e-02 9.800633e-03 1.068837e-02 1.001266e-02 1.048734e-02 1.018621e-02 1.038392e-02 1.051506e-02 1.055276e-02 1.101462e-02 1.084098e-02 1.145427e-02 1.113901e-02 1.185601e-02 1.159938e-02 1.241205e-02 1.229970e-02 1.320987e-02 1.304187e-02 1.391990e-02 1.402117e-02 1.430010e-02 1.461642e-02 1.417986e-02 1.465331e-02 1.377273e-02 1.436228e-02 1.428903e-02 1.430007e-02 1.418728e-02 1.412208e-02 1.329076e-02 1.398950e-02 1.226270e-02 1.331813e-02 1.149274e-02 1.272650e-02 1.109364e-02 1.236208e-02 1.096104e-02 1.206160e-02 1.089797e-02 1.171830e-02 1.089567e-02 1.138548e-02 1.098651e-02 1.107033e-02 1.115457e-02 1.082326e-02 1.146429e-02 1.070624e-02 1.185400e-02 1.059111e-02 1.214354e-02 1.042847e-02 1.230501e-02 1.027347e-02 1.231064e-02 1.015226e-02 1.220565e-02 1.023103e-02 1.213588e-02 1.057292e-02 1.196407e-02 1.096687e-02 1.151875e-02 1.133231e-02 1.096275e-02 1.180705e-02 1.047899e-02 1.238974e-02 1.004855e-02 1.291819e-02 9.680590e-03 1.326792e-02 9.448239e-03 1.337474e-02 9.543614e-03 1.336253e-02 1.040445e-02 1.331164e-02 1.358801e-02 1.752846e-02 1.742916e-02 9.103021e-03 3.928974e-03 7.776051e-03 7.612235e-03 
2.138930e-03 1.374585e-03 1.784668e-03 1.872298e-03 2.728627e-03 6.638344e-03 8.047805e-03 4.662644e-03 6.764277e-03 8.531511e-03 1.025081e-02 1.784714e-02 2.178309e-02 2.287933e-02 1.197417e-02 7.155471e-03 3.720535e-03 4.955073e-03 7.154706e-03 1.156595e-02 2.286569e-02 2.308753e-02 1.589756e-02 1.065269e-02 6.749359e-03 4.659023e-03 2.981688e-03 2.718733e-03 1.413780e-03 2.376932e-03 7.926025e-04 2.365447e-03 6.197912e-04 2.319202e-03 6.576179e-04 2.155071e-03 7.477075e-04 1.870006e-03 8.282552e-04 1.563868e-03 9.273161e-04 1.309624e-03 1.050599e-03 1.104740e-03 1.167608e-03 9.042003e-04 1.188051e-03 6.661104e-04 9.997622e-04 6.240003e-04 6.273509e-04 9.621298e-04 3.872124e-04 1.499899e-03 1.019228e-03 2.139956e-03 1.981784e-03 2.623250e-03 2.119339e-03 2.714193e-03 2.194790e-03 2.003708e-03 2.504188e-03 1.675674e-03 2.732109e-03 1.734913e-03 2.399411e-03 2.193919e-03 1.820169e-03 2.371598e-03 2.362249e-03 1.613808e-03 2.797215e-03 1.642697e-03 2.227509e-03 1.377434e-03 1.653655e-03 1.099818e-03 1.171148e-03 7.905751e-04 7.601803e-04 4.827473e-04 3.982070e-04 2.518413e-04 1.307480e-04 2.073051e-04 2.805032e-04 3.629169e-04 5.282236e-04 5.977039e-04 6.901818e-04 8.555093e-04 7.818207e-04 1.050567e-03 8.406271e-04 1.147650e-03 8.554354e-04 1.121156e-03 8.106486e-04 9.915240e-04 6.305289e-04 8.322931e-04 3.496527e-04 6.052074e-04 4.467035e-04 4.107362e-04 8.348363e-04 7.053767e-04 1.291858e-03 1.167061e-03 1.776848e-03 1.576433e-03 2.173723e-03 1.881923e-03 2.365714e-03 2.045309e-03 2.250967e-03 2.031184e-03 1.762290e-03 2.046457e-03 7.874980e-04 3.565922e-03 4.738801e-03 6.062293e-03 1.351615e-03 1.448025e-03 2.508041e-03 8.647721e-04 
