# vtk DataFile Version 2.0
Comment goes here
ASCII

DATASET STRUCTURED_POINTS
FIELD FieldData 1
TIME 1 1 double
0.89000000
DIMENSIONS    128   16   1

ORIGIN    0.000   0.000   0.000
SPACING   0.0078125 0.015625   1.000

POINT_DATA   2048
SCALARS uX double
LOOKUP_TABLE default

-2.309567e-03 -3.246982e-03 -1.569759e-03 -3.434624e-03 -1.056714e-03 -6.508644e-03 -5.259306e-03 -1.598637e-03 -3.850375e-03 1.730912e-03 1.217457e-03 8.562877e-03 1.210989e-02 2.076416e-02 2.480092e-02 2.850855e-02 2.787727e-02 2.979292e-02 2.680934e-02 2.545964e-02 2.065731e-02 1.304193e-02 7.441954e-03 3.243879e-03 4.695713e-04 -1.130776e-03 -2.403563e-03 -3.099839e-03 -3.552525e-03 -4.036613e-03 -3.959974e-03 -4.500772e-03 -4.061288e-03 -4.727476e-03 -4.055658e-03 -4.817774e-03 -4.034141e-03 -4.818094e-03 -4.033671e-03 -4.752090e-03 -4.063016e-03 -4.636012e-03 -4.116190e-03 -4.484796e-03 -4.178538e-03 -4.310563e-03 -4.226391e-03 -4.114991e-03 -4.216629e-03 -3.874122e-03 -4.061219e-03 -3.506646e-03 -3.570508e-03 -2.805029e-03 -2.303106e-03 -1.113461e-03 1.264921e-03 3.078987e-03 2.009964e-03 5.059064e-03 5.153745e-03 5.330156e-03 6.385282e-03 4.228860e-03 5.582125e-03 7.356227e-04 2.782163e-03 5.927062e-03 2.669332e-03 6.417174e-03 1.917814e-03 2.120128e-03 4.060900e-03 -1.819928e-03 -6.218954e-04 -3.702143e-03 -2.140248e-03 -4.122313e-03 -2.790979e-03 -4.068565e-03 -3.179674e-03 -3.820154e-03 -3.500212e-03 -3.493747e-03 -3.801485e-03 -3.149323e-03 -4.079782e-03 -2.829874e-03 -4.313515e-03 -2.572117e-03 -4.474986e-03 -2.406452e-03 -4.536333e-03 -2.355842e-03 -4.476267e-03 -2.434887e-03 -4.286049e-03 -2.647006e-03 -3.971458e-03 -2.980803e-03 -3.552398e-03 -3.408405e-03 -3.062860e-03 -3.886372e-03 -2.550624e-03 -4.358721e-03 -2.075195e-03 -4.761030e-03 -1.703332e-03 -5.024105e-03 -1.501656e-03 -5.080451e-03 -1.529280e-03 -4.874046e-03 -1.829174e-03 -4.373060e-03 -2.418195e-03 -3.590440e-03 -3.283915e-03 -2.628546e-03 -4.419734e-03 -1.796083e-03 -6.081135e-03 -9.680595e-04 -2.199383e-03 -1.441802e-03 -2.234563e-03 -2.682268e-03 
-1.434649e-04 -9.676883e-04 9.109045e-04 -7.127434e-04 2.741440e-03 -4.592190e-03 -3.945483e-03 4.655331e-04 -4.598782e-03 9.220824e-04 -4.059680e-03 1.110459e-03 -4.011506e-03 -6.971576e-04 -5.589443e-03 -3.172875e-03 -5.392435e-03 -4.113336e-03 -4.477815e-03 -4.248825e-03 -2.226345e-03 -3.046041e-03 -1.048679e-03 -2.168483e-03 -1.249539e-03 -1.836992e-03 -1.235962e-03 -1.665523e-03 -1.125279e-03 -1.602923e-03 -9.821360e-04 -1.587686e-03 -8.446784e-04 -1.579354e-03 -7.404832e-04 -1.553499e-03 -6.806593e-04 -1.496535e-03 -6.667291e-04 -1.407762e-03 -6.958617e-04 -1.292189e-03 -7.551449e-04 -1.157399e-03 -8.260414e-04 -1.008418e-03 -8.754629e-04 -8.279558e-04 -8.339688e-04 -5.551713e-04 -5.533881e-04 -2.230599e-05 3.116657e-04 1.208839e-03 2.599128e-03 4.355690e-03 8.309652e-03 9.830692e-03 5.862797e-03 8.004327e-03 6.395575e-03 5.464228e-03 7.750753e-03 4.149142e-03 9.119684e-03 5.468710e-03 6.698397e-03 9.017031e-03 3.405146e-03 1.055648e-02 5.652306e-03 8.571868e-03 1.195512e-02 3.620808e-03 4.883204e-03 4.599920e-04 2.202540e-03 -4.940806e-04 9.984067e-04 -6.654290e-04 3.456449e-04 -4.935265e-04 -9.107114e-05 -1.695784e-04 -4.326554e-04 2.018400e-04 -7.239412e-04 5.455999e-04 -9.695511e-04 8.161146e-04 -1.142867e-03 9.896433e-04 -1.207680e-03 1.050671e-03 -1.137813e-03 9.825890e-04 -9.322075e-04 7.705270e-04 -6.079993e-04 4.216599e-04 -1.829598e-04 -2.488829e-05 3.202803e-04 -5.157645e-04 8.543334e-04 -9.989701e-04 1.351676e-03 -1.416431e-03 1.740102e-03 -1.702078e-03 1.951347e-03 -1.784862e-03 1.931124e-03 -1.599347e-03 1.634532e-03 -1.107984e-03 1.026897e-03 -3.073794e-04 8.731943e-05 7.510303e-04 -1.255392e-03 1.876040e-03 -3.453832e-03 3.370124e-03 1.902321e-03 1.172475e-03 1.954843e-04 -4.973686e-04 
-3.825171e-03 -3.807934e-03 -1.038436e-03 1.181527e-03 7.882789e-03 7.145195e-03 4.669790e-03 6.495498e-03 3.880626e-03 3.994495e-03 1.890427e-03 -8.131177e-04 -2.994274e-03 -7.440845e-03 -8.215075e-03 -1.078053e-02 -9.628323e-03 -1.102169e-02 -9.556348e-03 -8.264201e-03 -7.723968e-03 -1.656891e-03 -1.316955e-03 3.315409e-03 2.600841e-03 5.490535e-03 4.381847e-03 6.293503e-03 5.306732e-03 6.516669e-03 5.874189e-03 6.502547e-03 6.271701e-03 6.400569e-03 6.558975e-03 6.280765e-03 6.761456e-03 6.182494e-03 6.885744e-03 6.109798e-03 6.922296e-03 6.051303e-03 6.862203e-03 5.981512e-03 6.677519e-03 5.848148e-03 6.318149e-03 5.576022e-03 5.689679e-03 5.024097e-03 4.583674e-03 3.926384e-03 2.599821e-03 1.818862e-03 -1.046193e-03 -2.410691e-03 -8.696944e-03 -1.078094e-02 -1.047313e-02 -1.433431e-02 -1.580187e-02 -1.493706e-02 -1.805473e-02 -1.375027e-02 -1.728905e-02 -9.713251e-03 -1.201052e-02 -1.798971e-02 -9.640151e-03 -1.896775e-02 -8.110188e-03 -1.197108e-02 -1.089641e-02 -3.953591e-03 -7.072615e-04 1.198065e-03 3.505081e-03 3.658959e-03 5.430534e-03 5.125826e-03 6.252671e-03 6.135756e-03 6.518919e-03 6.935608e-03 6.519990e-03 7.605133e-03 6.387723e-03 8.131071e-03 6.199004e-03 8.503763e-03 6.038128e-03 8.734823e-03 5.980949e-03 8.836719e-03 6.070016e-03 8.801209e-03 6.295007e-03 8.601191e-03 6.620387e-03 8.239637e-03 7.033971e-03 7.774747e-03 7.536420e-03 7.273817e-03 8.087729e-03 6.777229e-03 8.613935e-03 6.326977e-03 9.040758e-03 5.976818e-03 9.302292e-03 5.796743e-03 9.354580e-03 5.860694e-03 9.149181e-03 6.208930e-03 8.626739e-03 6.870196e-03 7.759350e-03 7.904816e-03 6.595537e-03 9.487970e-03 5.523470e-03 1.198447e-02 7.070579e-03 9.413976e-04 -1.744947e-03 -3.873239e-03 
-5.601194e-03 -3.475525e-03 -2.833291e-03 4.186814e-03 6.380207e-03 2.102670e-02 1.536869e-02 1.189055e-02 1.712157e-02 1.097702e-02 1.710280e-02 1.099382e-02 1.757565e-02 1.333392e-02 1.897664e-02 1.592462e-02 1.865371e-02 1.703025e-02 1.756825e-02 1.735383e-02 1.514231e-02 1.628676e-02 1.315972e-02 1.560508e-02 1.287319e-02 1.530104e-02 1.283244e-02 1.506328e-02 1.293419e-02 1.483924e-02 1.311952e-02 1.460245e-02 1.334782e-02 1.434565e-02 1.358823e-02 1.407385e-02 1.381640e-02 1.380135e-02 1.400816e-02 1.353451e-02 1.413666e-02 1.327324e-02 1.417175e-02 1.300799e-02 1.406962e-02 1.270629e-02 1.376678e-02 1.230260e-02 1.315357e-02 1.166559e-02 1.201256e-02 1.053199e-02 9.924444e-03 8.380589e-03 6.061566e-03 4.004162e-03 -1.121255e-03 -2.043427e-03 1.944376e-03 1.360654e-03 2.383070e-03 5.202000e-03 1.236556e-03 6.906719e-03 5.371138e-04 3.790308e-03 3.974895e-03 4.001975e-04 8.790799e-03 -1.499823e-03 6.619948e-03 4.125997e-04 -5.548282e-04 5.980175e-03 6.508922e-03 9.865118e-03 9.823339e-03 1.169104e-02 1.157353e-02 1.269504e-02 1.250704e-02 1.330520e-02 1.299572e-02 1.372735e-02 1.324529e-02 1.404534e-02 1.336304e-02 1.428008e-02 1.341023e-02 1.444205e-02 1.343189e-02 1.454724e-02 1.345679e-02 1.461357e-02 1.349437e-02 1.465130e-02 1.353597e-02 1.465910e-02 1.356960e-02 1.463890e-02 1.359836e-02 1.460442e-02 1.363722e-02 1.456472e-02 1.369428e-02 1.451290e-02 1.376965e-02 1.443883e-02 1.386562e-02 1.433355e-02 1.398632e-02 1.419516e-02 1.413997e-02 1.402730e-02 1.432887e-02 1.383012e-02 1.455208e-02 1.361110e-02 1.484462e-02 1.339769e-02 1.538218e-02 1.322095e-02 1.689540e-02 1.115302e-02 4.740799e-03 -1.053335e-03 -3.652520e-03 -4.904164e-03 
-2.493676e-02 -2.343657e-02 -2.616651e-02 -2.398551e-02 -2.999568e-02 -1.967215e-02 -2.006384e-02 -2.405505e-02 -1.860946e-02 -2.246026e-02 -1.800912e-02 -1.936505e-02 -1.762036e-02 -1.817194e-02 -1.887978e-02 -1.859680e-02 -1.910004e-02 -1.885057e-02 -1.880347e-02 -1.926751e-02 -1.776897e-02 -1.955284e-02 -1.861601e-02 -2.048177e-02 -2.018636e-02 -2.099891e-02 -2.089395e-02 -2.115411e-02 -2.126727e-02 -2.118916e-02 -2.148735e-02 -2.119274e-02 -2.161117e-02 -2.119313e-02 -2.164960e-02 -2.119792e-02 -2.161428e-02 -2.120812e-02 -2.150978e-02 -2.120137e-02 -2.132435e-02 -2.114334e-02 -2.104138e-02 -2.098200e-02 -2.061304e-02 -2.062836e-02 -1.994374e-02 -1.994429e-02 -1.884618e-02 -1.866588e-02 -1.692593e-02 -1.628114e-02 -1.340440e-02 -1.183247e-02 -6.690898e-03 -3.170800e-03 6.790981e-03 9.599758e-03 3.213562e-03 6.685586e-03 4.660909e-03 2.151357e-03 6.828947e-03 -4.918481e-04 7.595825e-03 1.248687e-03 2.075780e-03 7.726606e-03 -4.154243e-03 1.031861e-02 -2.224467e-03 5.686406e-03 7.388132e-03 -4.493101e-03 -8.362283e-03 -1.227758e-02 -1.515534e-02 -1.614065e-02 -1.844755e-02 -1.841144e-02 -2.003856e-02 -1.987439e-02 -2.076984e-02 -2.092101e-02 -2.107460e-02 -2.171856e-02 -2.115105e-02 -2.230964e-02 -2.110652e-02 -2.271949e-02 -2.104039e-02 -2.297937e-02 -2.103895e-02 -2.311016e-02 -2.115463e-02 -2.310562e-02 -2.138605e-02 -2.293886e-02 -2.170424e-02 -2.261265e-02 -2.210043e-02 -2.218480e-02 -2.257590e-02 -2.172349e-02 -2.308970e-02 -2.127171e-02 -2.356654e-02 -2.087411e-02 -2.392986e-02 -2.058775e-02 -2.411115e-02 -2.048606e-02 -2.406316e-02 -2.064836e-02 -2.373412e-02 -2.112716e-02 -2.306294e-02 -2.198355e-02 -2.203001e-02 -2.337513e-02 -2.072830e-02 -2.576355e-02 -1.962965e-02 -3.133067e-02 -3.004943e-02 -2.688389e-02 -2.584317e-02 -2.426738e-02 
-3.027129e-02 -3.101639e-02 -3.294848e-02 -3.675488e-02 -4.143682e-02 -4.651022e-02 -4.120790e-02 -4.111069e-02 -4.029391e-02 -3.872665e-02 -3.805548e-02 -3.563313e-02 -3.494601e-02 -3.444277e-02 -3.483149e-02 -3.455267e-02 -3.474746e-02 -3.469081e-02 -3.459678e-02 -3.484249e-02 -3.440753e-02 -3.494921e-02 -3.675831e-02 -3.905945e-02 -3.898412e-02 -4.090603e-02 -4.007488e-02 -4.170444e-02 -4.072509e-02 -4.201643e-02 -4.116928e-02 -4.209070e-02 -4.149763e-02 -4.204491e-02 -4.173921e-02 -4.193970e-02 -4.190679e-02 -4.181149e-02 -4.199992e-02 -4.166596e-02 -4.200401e-02 -4.149188e-02 -4.189890e-02 -4.126120e-02 -4.164248e-02 -4.091500e-02 -4.116461e-02 -4.035832e-02 -4.034099e-02 -3.941724e-02 -3.892738e-02 -3.777468e-02 -3.648934e-02 -3.489369e-02 -3.228920e-02 -2.978137e-02 -2.525627e-02 -2.348594e-02 -2.518315e-02 -2.505864e-02 -2.476808e-02 -2.676515e-02 -2.380667e-02 -2.846136e-02 -2.618945e-02 -2.655741e-02 -2.884225e-02 -2.675041e-02 -3.090461e-02 -2.709029e-02 -3.255486e-02 -2.988218e-02 -3.103220e-02 -3.387758e-02 -3.583741e-02 -3.684948e-02 -3.854170e-02 -3.875999e-02 -4.012886e-02 -4.007771e-02 -4.098028e-02 -4.104417e-02 -4.138838e-02 -4.181352e-02 -4.154963e-02 -4.244549e-02 -4.156797e-02 -4.293726e-02 -4.151052e-02 -4.328950e-02 -4.144754e-02 -4.351895e-02 -4.143971e-02 -4.364290e-02 -4.151990e-02 -4.366188e-02 -4.168134e-02 -4.355996e-02 -4.190010e-02 -4.334075e-02 -4.217127e-02 -4.304625e-02 -4.250131e-02 -4.272277e-02 -4.286874e-02 -4.239480e-02 -4.322728e-02 -4.208664e-02 -4.353044e-02 -4.183112e-02 -4.373798e-02 -4.167578e-02 -4.382662e-02 -4.167736e-02 -4.377517e-02 -4.188242e-02 -4.357331e-02 -4.235736e-02 -4.328504e-02 -4.323253e-02 -4.313404e-02 -4.467575e-02 -4.366320e-02 -4.586659e-02 -3.967162e-02 -3.444137e-02 -3.189167e-02 -3.044356e-02 
-3.769571e-02 -3.842025e-02 -3.914968e-02 -4.179851e-02 -4.341000e-02 -4.916684e-02 -4.679724e-02 -4.594405e-02 -4.708559e-02 -4.573106e-02 -4.687468e-02 -4.576617e-02 -4.609638e-02 -4.559209e-02 -4.598569e-02 -4.570690e-02 -4.589588e-02 -4.585883e-02 -4.573130e-02 -4.602157e-02 -4.553019e-02 -4.611485e-02 -4.612894e-02 -4.732553e-02 -4.628677e-02 -4.765588e-02 -4.637767e-02 -4.769221e-02 -4.648283e-02 -4.760338e-02 -4.661133e-02 -4.746192e-02 -4.675085e-02 -4.729919e-02 -4.688250e-02 -4.712980e-02 -4.698803e-02 -4.696124e-02 -4.705079e-02 -4.679271e-02 -4.705561e-02 -4.661802e-02 -4.698976e-02 -4.642879e-02 -4.684510e-02 -4.621930e-02 -4.663034e-02 -4.600463e-02 -4.639998e-02 -4.586359e-02 -4.632778e-02 -4.604426e-02 -4.689551e-02 -4.721655e-02 -4.938750e-02 -5.123430e-02 -5.690241e-02 -5.808647e-02 -5.182374e-02 -5.387043e-02 -5.121485e-02 -4.983890e-02 -5.245774e-02 -4.777599e-02 -5.340023e-02 -4.981949e-02 -5.092662e-02 -5.350977e-02 -4.760024e-02 -5.586393e-02 -5.011141e-02 -5.453875e-02 -5.889156e-02 -4.969234e-02 -5.001215e-02 -4.660127e-02 -4.741764e-02 -4.600053e-02 -4.672269e-02 -4.614658e-02 -4.663090e-02 -4.653690e-02 -4.668699e-02 -4.697902e-02 -4.674345e-02 -4.739463e-02 -4.676663e-02 -4.774535e-02 -4.676515e-02 -4.801452e-02 -4.676427e-02 -4.819927e-02 -4.678981e-02 -4.830265e-02 -4.685785e-02 -4.832731e-02 -4.697129e-02 -4.827512e-02 -4.712528e-02 -4.815479e-02 -4.731479e-02 -4.798575e-02 -4.753347e-02 -4.779107e-02 -4.776654e-02 -4.759135e-02 -4.799092e-02 -4.740759e-02 -4.818172e-02 -4.726277e-02 -4.831689e-02 -4.718242e-02 -4.838159e-02 -4.719063e-02 -4.836956e-02 -4.730221e-02 -4.828970e-02 -4.751390e-02 -4.817608e-02 -4.776183e-02 -4.807120e-02 -4.775412e-02 -4.791941e-02 -4.593151e-02 -4.226203e-02 -4.023675e-02 -3.861615e-02 -3.800873e-02 
-3.760185e-02 -3.839971e-02 -3.875621e-02 -4.056966e-02 -4.132267e-02 -4.376493e-02 -4.386360e-02 -4.507266e-02 -4.588603e-02 -4.699157e-02 -4.864912e-02 -5.028696e-02 -5.227656e-02 -5.201335e-02 -5.219718e-02 -5.203501e-02 -5.212260e-02 -5.209449e-02 -5.205689e-02 -5.217141e-02 -5.202196e-02 -5.223955e-02 -4.884756e-02 -4.833857e-02 -4.610625e-02 -4.654240e-02 -4.496064e-02 -4.570256e-02 -4.449581e-02 -4.525030e-02 -4.435401e-02 -4.496719e-02 -4.436599e-02 -4.476418e-02 -4.444356e-02 -4.460617e-02 -4.453768e-02 -4.448014e-02 -4.461959e-02 -4.438023e-02 -4.467236e-02 -4.430277e-02 -4.468811e-02 -4.424599e-02 -4.466842e-02 -4.421432e-02 -4.463230e-02 -4.423231e-02 -4.463648e-02 -4.437484e-02 -4.482181e-02 -4.483295e-02 -4.551405e-02 -4.604219e-02 -4.743317e-02 -4.903007e-02 -5.216220e-02 -5.394573e-02 -5.173473e-02 -5.309319e-02 -5.254868e-02 -5.203345e-02 -5.348483e-02 -5.053270e-02 -5.188820e-02 -5.076191e-02 -5.014746e-02 -5.199593e-02 -4.986362e-02 -5.219720e-02 -4.916359e-02 -4.975515e-02 -5.125672e-02 -4.686227e-02 -4.720648e-02 -4.519909e-02 -4.576194e-02 -4.468880e-02 -4.517160e-02 -4.462964e-02 -4.491289e-02 -4.477172e-02 -4.476541e-02 -4.499437e-02 -4.464791e-02 -4.523578e-02 -4.453872e-02 -4.545823e-02 -4.444157e-02 -4.563845e-02 -4.437153e-02 -4.576344e-02 -4.434520e-02 -4.582623e-02 -4.437365e-02 -4.582257e-02 -4.445903e-02 -4.575131e-02 -4.459674e-02 -4.561861e-02 -4.477923e-02 -4.543986e-02 -4.499547e-02 -4.523575e-02 -4.522746e-02 -4.502836e-02 -4.545088e-02 -4.484131e-02 -4.563932e-02 -4.469948e-02 -4.576786e-02 -4.462644e-02 -4.581521e-02 -4.463711e-02 -4.576140e-02 -4.472307e-02 -4.558093e-02 -4.482778e-02 -4.522379e-02 -4.479627e-02 -4.457199e-02 -4.430041e-02 -4.336370e-02 -4.253600e-02 -4.057049e-02 -3.955278e-02 -3.826029e-02 -3.802254e-02 
-4.073896e-02 -4.151765e-02 -4.169837e-02 -4.344198e-02 -4.389200e-02 -4.617077e-02 -4.636549e-02 -4.743342e-02 -4.853751e-02 -4.936929e-02 -5.124735e-02 -5.270907e-02 -5.469935e-02 -5.440017e-02 -5.461986e-02 -5.444202e-02 -5.453232e-02 -5.452736e-02 -5.444053e-02 -5.462262e-02 -5.437991e-02 -5.468856e-02 -5.101997e-02 -5.057512e-02 -4.834117e-02 -4.888191e-02 -4.733952e-02 -4.815845e-02 -4.698318e-02 -4.778178e-02 -4.690495e-02 -4.753988e-02 -4.695027e-02 -4.736066e-02 -4.704785e-02 -4.722289e-02 -4.716154e-02 -4.712332e-02 -4.727326e-02 -4.706541e-02 -4.737747e-02 -4.705656e-02 -4.748019e-02 -4.710974e-02 -4.760175e-02 -4.724902e-02 -4.778360e-02 -4.751952e-02 -4.809890e-02 -4.800062e-02 -4.866308e-02 -4.881419e-02 -4.962603e-02 -5.009715e-02 -5.108620e-02 -5.187709e-02 -5.287176e-02 -5.374580e-02 -5.337645e-02 -5.379466e-02 -5.357818e-02 -5.320517e-02 -5.366646e-02 -5.273860e-02 -5.337570e-02 -5.287935e-02 -5.256457e-02 -5.313176e-02 -5.187613e-02 -5.308218e-02 -5.204097e-02 -5.219122e-02 -5.238399e-02 -5.072045e-02 -5.095225e-02 -4.941681e-02 -4.968613e-02 -4.855873e-02 -4.879698e-02 -4.809365e-02 -4.821937e-02 -4.789645e-02 -4.783857e-02 -4.786063e-02 -4.757335e-02 -4.791189e-02 -4.737908e-02 -4.799992e-02 -4.723599e-02 -4.809056e-02 -4.713839e-02 -4.816100e-02 -4.708709e-02 -4.819674e-02 -4.708429e-02 -4.818975e-02 -4.713044e-02 -4.813745e-02 -4.722275e-02 -4.804260e-02 -4.735456e-02 -4.791319e-02 -4.751523e-02 -4.776192e-02 -4.769033e-02 -4.760525e-02 -4.786250e-02 -4.746197e-02 -4.801295e-02 -4.735098e-02 -4.812341e-02 -4.728752e-02 -4.817686e-02 -4.727564e-02 -4.815497e-02 -4.729371e-02 -4.802677e-02 -4.726708e-02 -4.771987e-02 -4.702408e-02 -4.706941e-02 -4.626522e-02 -4.577072e-02 -4.460339e-02 -4.325342e-02 -4.231989e-02 -4.130748e-02 -4.112628e-02 
-3.760278e-02 -3.839483e-02 -3.875799e-02 -4.056572e-02 -4.132677e-02 -4.376070e-02 -4.386788e-02 -4.506430e-02 -4.589086e-02 -4.698452e-02 -4.865232e-02 -5.028232e-02 -5.227592e-02 -5.201322e-02 -5.219655e-02 -5.203533e-02 -5.212210e-02 -5.209496e-02 -5.205728e-02 -5.217138e-02 -5.202364e-02 -5.223922e-02 -4.886046e-02 -4.833746e-02 -4.613450e-02 -4.653587e-02 -4.500826e-02 -4.568904e-02 -4.456627e-02 -4.523291e-02 -4.445028e-02 -4.495430e-02 -4.449161e-02 -4.476975e-02 -4.460349e-02 -4.464861e-02 -4.473887e-02 -4.458266e-02 -4.487570e-02 -4.457533e-02 -4.500983e-02 -4.463543e-02 -4.515016e-02 -4.477569e-02 -4.531849e-02 -4.501592e-02 -4.555205e-02 -4.538872e-02 -4.590889e-02 -4.594758e-02 -4.647174e-02 -4.676747e-02 -4.733557e-02 -4.791951e-02 -4.855089e-02 -4.938410e-02 -4.996906e-02 -5.083290e-02 -5.085217e-02 -5.147350e-02 -5.146823e-02 -5.162095e-02 -5.175284e-02 -5.149257e-02 -5.152399e-02 -5.136770e-02 -5.105031e-02 -5.116245e-02 -5.059257e-02 -5.063042e-02 -5.009092e-02 -4.960385e-02 -4.956343e-02 -4.836051e-02 -4.844647e-02 -4.728074e-02 -4.744424e-02 -4.651808e-02 -4.667107e-02 -4.604474e-02 -4.609377e-02 -4.578932e-02 -4.565422e-02 -4.568312e-02 -4.530914e-02 -4.567201e-02 -4.503575e-02 -4.571429e-02 -4.482423e-02 -4.577505e-02 -4.467086e-02 -4.582550e-02 -4.457605e-02 -4.584468e-02 -4.454260e-02 -4.582022e-02 -4.457345e-02 -4.574769e-02 -4.466780e-02 -4.562792e-02 -4.481721e-02 -4.546598e-02 -4.500610e-02 -4.527395e-02 -4.521556e-02 -4.507237e-02 -4.542401e-02 -4.488663e-02 -4.560684e-02 -4.474339e-02 -4.573812e-02 -4.466594e-02 -4.579214e-02 -4.466776e-02 -4.574538e-02 -4.474211e-02 -4.557217e-02 -4.483570e-02 -4.522257e-02 -4.479518e-02 -4.457718e-02 -4.429303e-02 -4.337231e-02 -4.252705e-02 -4.057421e-02 -3.954364e-02 -3.826174e-02 -3.801568e-02 
-3.769966e-02 -3.840983e-02 -3.915638e-02 -4.179078e-02 -4.342598e-02 -4.915708e-02 -4.681490e-02 -4.591643e-02 -4.710858e-02 -4.570615e-02 -4.689278e-02 -4.574495e-02 -4.609457e-02 -4.559038e-02 -4.598258e-02 -4.570868e-02 -4.589123e-02 -4.586170e-02 -4.573051e-02 -4.601944e-02 -4.554064e-02 -4.611161e-02 -4.615672e-02 -4.732014e-02 -4.634590e-02 -4.764493e-02 -4.648040e-02 -4.767550e-02 -4.663854e-02 -4.758883e-02 -4.682773e-02 -4.746752e-02 -4.703719e-02 -4.735440e-02 -4.725118e-02 -4.727347e-02 -4.745616e-02 -4.724139e-02 -4.764872e-02 -4.727530e-02 -4.783724e-02 -4.739128e-02 -4.803778e-02 -4.760369e-02 -4.827366e-02 -4.792678e-02 -4.857370e-02 -4.837493e-02 -4.897090e-02 -4.896368e-02 -4.949721e-02 -4.970066e-02 -5.016328e-02 -5.055978e-02 -5.092526e-02 -5.144615e-02 -5.165731e-02 -5.217972e-02 -5.219107e-02 -5.257573e-02 -5.249736e-02 -5.271855e-02 -5.263897e-02 -5.273481e-02 -5.262567e-02 -5.268488e-02 -5.247472e-02 -5.244773e-02 -5.224325e-02 -5.209472e-02 -5.199385e-02 -5.158697e-02 -5.160830e-02 -5.091667e-02 -5.102228e-02 -5.019743e-02 -5.034729e-02 -4.955927e-02 -4.970002e-02 -4.906708e-02 -4.913112e-02 -4.872769e-02 -4.864821e-02 -4.851895e-02 -4.824448e-02 -4.841166e-02 -4.791476e-02 -4.837661e-02 -4.765448e-02 -4.838189e-02 -4.745773e-02 -4.839680e-02 -4.732113e-02 -4.839728e-02 -4.724558e-02 -4.836846e-02 -4.723527e-02 -4.830398e-02 -4.729198e-02 -4.820098e-02 -4.740815e-02 -4.805806e-02 -4.756789e-02 -4.788139e-02 -4.775384e-02 -4.768867e-02 -4.794730e-02 -4.750380e-02 -4.812571e-02 -4.735309e-02 -4.826474e-02 -4.726164e-02 -4.834093e-02 -4.725074e-02 -4.834123e-02 -4.733855e-02 -4.827445e-02 -4.752804e-02 -4.817465e-02 -4.775844e-02 -4.808166e-02 -4.773955e-02 -4.793691e-02 -4.591415e-02 -4.227001e-02 -4.021803e-02 -3.862083e-02 -3.799444e-02 
-3.026822e-02 -3.100537e-02 -3.294792e-02 -3.674788e-02 -4.145056e-02 -4.650185e-02 -4.122361e-02 -4.108649e-02 -4.030872e-02 -3.871020e-02 -3.806561e-02 -3.562277e-02 -3.494497e-02 -3.444116e-02 -3.482912e-02 -3.455466e-02 -3.474323e-02 -3.469431e-02 -3.459680e-02 -3.484171e-02 -3.441836e-02 -3.494449e-02 -3.677567e-02 -3.905416e-02 -3.905140e-02 -4.087431e-02 -4.020711e-02 -4.163497e-02 -4.093041e-02 -4.191408e-02 -4.145017e-02 -4.197738e-02 -4.186004e-02 -4.196513e-02 -4.219428e-02 -4.194504e-02 -4.245554e-02 -4.195096e-02 -4.265624e-02 -4.202084e-02 -4.282721e-02 -4.218252e-02 -4.299626e-02 -4.245098e-02 -4.319571e-02 -4.283629e-02 -4.345493e-02 -4.333766e-02 -4.380287e-02 -4.396143e-02 -4.427909e-02 -4.471839e-02 -4.490794e-02 -4.558895e-02 -4.566108e-02 -4.649374e-02 -4.644400e-02 -4.729257e-02 -4.714331e-02 -4.786421e-02 -4.764226e-02 -4.817199e-02 -4.792523e-02 -4.824397e-02 -4.799568e-02 -4.812126e-02 -4.790168e-02 -4.774290e-02 -4.764275e-02 -4.720505e-02 -4.722925e-02 -4.653578e-02 -4.665871e-02 -4.577775e-02 -4.601677e-02 -4.504055e-02 -4.534525e-02 -4.442549e-02 -4.471207e-02 -4.397287e-02 -4.414111e-02 -4.367620e-02 -4.363017e-02 -4.350504e-02 -4.317462e-02 -4.343629e-02 -4.279151e-02 -4.345440e-02 -4.249058e-02 -4.351871e-02 -4.226064e-02 -4.357989e-02 -4.209464e-02 -4.360103e-02 -4.199729e-02 -4.356520e-02 -4.198848e-02 -4.347598e-02 -4.208658e-02 -4.333392e-02 -4.227984e-02 -4.312344e-02 -4.253235e-02 -4.284340e-02 -4.282032e-02 -4.252816e-02 -4.312461e-02 -4.222014e-02 -4.341179e-02 -4.196507e-02 -4.364190e-02 -4.180562e-02 -4.376151e-02 -4.177704e-02 -4.372855e-02 -4.193656e-02 -4.354531e-02 -4.237273e-02 -4.328229e-02 -4.321933e-02 -4.315870e-02 -4.464240e-02 -4.371232e-02 -4.582259e-02 -3.967133e-02 -3.440434e-02 -3.188909e-02 -3.042388e-02 
-2.492999e-02 -2.341937e-02 -2.615196e-02 -2.397165e-02 -2.997328e-02 -1.967002e-02 -2.003971e-02 -2.409035e-02 -1.857320e-02 -2.249870e-02 -1.798488e-02 -1.939685e-02 -1.763673e-02 -1.816143e-02 -1.887487e-02 -1.860619e-02 -1.907778e-02 -1.887035e-02 -1.878177e-02 -1.924715e-02 -1.781999e-02 -1.937339e-02 -1.872361e-02 -2.030978e-02 -2.039695e-02 -2.079265e-02 -2.120614e-02 -2.089808e-02 -2.167818e-02 -2.088782e-02 -2.199300e-02 -2.087070e-02 -2.221573e-02 -2.090228e-02 -2.236725e-02 -2.099659e-02 -2.244305e-02 -2.114963e-02 -2.245873e-02 -2.137712e-02 -2.245519e-02 -2.168928e-02 -2.246624e-02 -2.208410e-02 -2.252725e-02 -2.255632e-02 -2.266418e-02 -2.308867e-02 -2.289767e-02 -2.367710e-02 -2.326279e-02 -2.433248e-02 -2.378427e-02 -2.504596e-02 -2.443953e-02 -2.576545e-02 -2.514540e-02 -2.639021e-02 -2.573158e-02 -2.674071e-02 -2.621321e-02 -2.681854e-02 -2.651631e-02 -2.673691e-02 -2.662208e-02 -2.659743e-02 -2.655377e-02 -2.650982e-02 -2.642624e-02 -2.619484e-02 -2.625111e-02 -2.558335e-02 -2.598581e-02 -2.484507e-02 -2.545518e-02 -2.418066e-02 -2.485506e-02 -2.368084e-02 -2.425883e-02 -2.335064e-02 -2.369085e-02 -2.316276e-02 -2.315756e-02 -2.307670e-02 -2.266806e-02 -2.306892e-02 -2.225975e-02 -2.312728e-02 -2.195697e-02 -2.320498e-02 -2.175227e-02 -2.324280e-02 -2.163986e-02 -2.319805e-02 -2.162533e-02 -2.305590e-02 -2.173064e-02 -2.283096e-02 -2.197330e-02 -2.253571e-02 -2.232917e-02 -2.216203e-02 -2.274104e-02 -2.172111e-02 -2.316778e-02 -2.127066e-02 -2.357438e-02 -2.087748e-02 -2.390650e-02 -2.061064e-02 -2.410098e-02 -2.053179e-02 -2.407401e-02 -2.068573e-02 -2.374844e-02 -2.113426e-02 -2.308194e-02 -2.196380e-02 -2.206473e-02 -2.333325e-02 -2.078606e-02 -2.570102e-02 -1.971745e-02 -3.126749e-02 -3.005695e-02 -2.683215e-02 -2.584184e-02 -2.423963e-02 
-5.580333e-03 -3.478596e-03 -2.792649e-03 4.174226e-03 6.461388e-03 2.099249e-02 1.547534e-02 1.178996e-02 1.725460e-02 1.086593e-02 1.725177e-02 1.087422e-02 1.773769e-02 1.320239e-02 1.910045e-02 1.583890e-02 1.869816e-02 1.703452e-02 1.750172e-02 1.745235e-02 1.499746e-02 1.640234e-02 1.297166e-02 1.578689e-02 1.267558e-02 1.552423e-02 1.263914e-02 1.531453e-02 1.275685e-02 1.511577e-02 1.296601e-02 1.491021e-02 1.322756e-02 1.470148e-02 1.351300e-02 1.449772e-02 1.379588e-02 1.430987e-02 1.406216e-02 1.415951e-02 1.431069e-02 1.406590e-02 1.454115e-02 1.404118e-02 1.475653e-02 1.409137e-02 1.495796e-02 1.421075e-02 1.514386e-02 1.438860e-02 1.531319e-02 1.460759e-02 1.545338e-02 1.483004e-02 1.552979e-02 1.499441e-02 1.550310e-02 1.504593e-02 1.542754e-02 1.505895e-02 1.526978e-02 1.508167e-02 1.515152e-02 1.513932e-02 1.512517e-02 1.520125e-02 1.517680e-02 1.507817e-02 1.519201e-02 1.501263e-02 1.520216e-02 1.504948e-02 1.517369e-02 1.505735e-02 1.521774e-02 1.497401e-02 1.518323e-02 1.482804e-02 1.508389e-02 1.467009e-02 1.494674e-02 1.453233e-02 1.478873e-02 1.442831e-02 1.461967e-02 1.436726e-02 1.445352e-02 1.435652e-02 1.429666e-02 1.438784e-02 1.414375e-02 1.444606e-02 1.399164e-02 1.451824e-02 1.384393e-02 1.459609e-02 1.371360e-02 1.467625e-02 1.361579e-02 1.474991e-02 1.355458e-02 1.479723e-02 1.352558e-02 1.480224e-02 1.353274e-02 1.476331e-02 1.358408e-02 1.468066e-02 1.368220e-02 1.455560e-02 1.382703e-02 1.438876e-02 1.401003e-02 1.417844e-02 1.422244e-02 1.393394e-02 1.446855e-02 1.367591e-02 1.478567e-02 1.343464e-02 1.534667e-02 1.324065e-02 1.688006e-02 1.116690e-02 4.738645e-03 -1.044973e-03 -3.643841e-03 -4.899946e-03 
-3.816207e-03 -3.815748e-03 -1.020924e-03 1.167191e-03 7.918840e-03 7.125964e-03 4.718665e-03 6.468109e-03 3.932053e-03 3.965714e-03 1.948896e-03 -8.420076e-04 -2.920253e-03 -7.481646e-03 -8.195085e-03 -1.074176e-02 -9.703736e-03 -1.087676e-02 -9.717434e-03 -8.091489e-03 -7.845672e-03 -1.618127e-03 -1.431774e-03 3.378712e-03 2.534711e-03 5.540195e-03 4.367376e-03 6.310348e-03 5.343775e-03 6.496588e-03 5.958122e-03 6.456649e-03 6.402778e-03 6.362226e-03 6.743034e-03 6.283351e-03 6.983719e-03 6.244959e-03 7.137182e-03 6.279874e-03 7.238543e-03 6.408862e-03 7.317311e-03 6.637273e-03 7.409794e-03 6.967865e-03 7.551784e-03 7.396673e-03 7.788567e-03 7.946561e-03 8.202305e-03 8.678669e-03 8.892150e-03 9.663754e-03 9.926675e-03 1.094361e-02 1.126589e-02 1.243006e-02 1.242041e-02 1.349686e-02 1.353879e-02 1.396237e-02 1.416796e-02 1.392524e-02 1.418276e-02 1.363576e-02 1.372022e-02 1.386080e-02 1.331890e-02 1.339329e-02 1.286216e-02 1.199049e-02 1.236501e-02 1.036681e-02 1.118127e-02 9.103482e-03 1.014459e-02 8.329039e-03 9.334494e-03 7.937788e-03 8.685782e-03 7.808250e-03 8.130433e-03 7.840123e-03 7.633401e-03 7.975516e-03 7.211290e-03 8.183264e-03 6.881588e-03 8.405468e-03 6.637876e-03 8.576528e-03 6.480207e-03 8.649663e-03 6.421911e-03 8.606378e-03 6.492711e-03 8.457852e-03 6.716585e-03 8.213571e-03 7.073513e-03 7.863148e-03 7.507942e-03 7.417197e-03 7.979062e-03 6.934797e-03 8.450859e-03 6.484659e-03 8.867303e-03 6.138180e-03 9.164504e-03 5.958804e-03 9.259219e-03 5.990123e-03 9.076297e-03 6.285678e-03 8.575226e-03 6.902278e-03 7.737884e-03 7.902127e-03 6.608796e-03 9.457244e-03 5.579785e-03 1.195645e-02 7.068605e-03 9.167839e-04 -1.743058e-03 -3.882376e-03 
-1.385765e-04 -9.740005e-04 9.179334e-04 -7.222737e-04 2.746080e-03 -4.601422e-03 -3.943253e-03 4.759788e-04 -4.605570e-03 9.357954e-04 -4.080051e-03 1.134557e-03 -4.066090e-03 -6.407611e-04 -5.641012e-03 -3.125085e-03 -5.431742e-03 -4.088986e-03 -4.492104e-03 -4.242477e-03 -2.249644e-03 -2.982708e-03 -1.048396e-03 -2.145972e-03 -1.230663e-03 -1.841793e-03 -1.192423e-03 -1.693388e-03 -1.055873e-03 -1.650486e-03 -8.873563e-04 -1.647515e-03 -7.231248e-04 -1.635907e-03 -5.879209e-04 -1.590673e-03 -5.004528e-04 -1.501549e-03 -4.598515e-04 -1.356006e-03 -4.457848e-04 -1.146465e-03 -4.320230e-04 -8.700210e-04 -3.827027e-04 -5.198350e-04 -2.530866e-04 -8.050058e-05 1.806698e-05 4.899638e-04 5.199647e-04 1.264092e-03 1.349702e-03 2.312738e-03 2.536151e-03 3.622898e-03 3.932328e-03 5.011827e-03 4.470949e-03 5.353494e-03 5.171127e-03 5.131516e-03 5.623031e-03 4.823304e-03 5.607659e-03 4.635903e-03 4.883904e-03 5.444180e-03 4.407895e-03 5.341564e-03 4.356503e-03 4.030899e-03 4.729378e-03 2.507653e-03 3.689565e-03 1.358633e-03 2.676319e-03 6.552501e-04 1.820072e-03 3.131548e-04 1.120925e-03 2.252924e-04 5.371051e-04 2.978619e-04 4.129936e-05 4.630132e-04 -3.663692e-04 6.698795e-04 -6.781435e-04 8.635824e-04 -8.899026e-04 9.927253e-04 -9.928450e-04 1.020243e-03 -9.747551e-04 9.277783e-04 -8.227496e-04 7.169472e-04 -5.338724e-04 3.986195e-04 -1.301415e-04 -1.335790e-05 3.444465e-04 -4.874256e-04 8.430245e-04 -9.656723e-04 1.313669e-03 -1.380442e-03 1.692763e-03 -1.660130e-03 1.913465e-03 -1.737394e-03 1.906648e-03 -1.559240e-03 1.616963e-03 -1.084032e-03 1.016491e-03 -2.981850e-04 8.837198e-05 7.478416e-04 -1.239256e-03 1.861832e-03 -3.417800e-03 3.350067e-03 1.898176e-03 1.155840e-03 1.959700e-04 -5.049748e-04 
