# vtk DataFile Version 2.0
Comment goes here
ASCII

DATASET STRUCTURED_POINTS
FIELD FieldData 1
TIME 1 1 double
0.58000000
DIMENSIONS    128   16   1

ORIGIN    0.000   0.000   0.000
SPACING   0.0078125 0.015625   1.000

POINT_DATA   2048
SCALARS uY double
LOOKUP_TABLE default

-6.339559e-07 -9.521661e-06 2.945923e-06 -1.378914e-05 7.784229e-06 -1.575215e-05 2.462500e-05 -1.960837e-05 1.821888e-05 -1.501709e-05 1.719795e-05 -7.651693e-06 1.174447e-05 9.728499e-06 -4.300661e-06 3.492720e-05 -3.668774e-05 7.158194e-05 -7.338594e-05 1.056340e-04 -9.470434e-05 1.253032e-04 -1.385184e-04 1.487632e-04 -1.656566e-04 1.535635e-04 -1.837773e-04 1.460590e-04 -1.864334e-04 1.276268e-04 -1.717740e-04 9.859883e-05 -1.415823e-04 5.497981e-05 -1.039520e-04 -8.009617e-06 -6.756065e-05 -9.522046e-05 -4.547652e-05 -2.125514e-04 -4.717346e-05 -3.541585e-04 -6.857032e-05 -5.029213e-04 -1.036326e-04 -6.551569e-04 -1.758742e-04 -8.467850e-04 -3.387455e-04 -1.121518e-03 -6.196168e-04 -1.461960e-03 -9.575506e-04 -1.700776e-03 -1.117494e-03 -1.497793e-03 -1.116711e-03 -2.879128e-04 3.488719e-04 -4.623673e-04 9.842030e-04 -1.053800e-04 9.084568e-04 3.713612e-04 5.708966e-04 1.677259e-03 -1.454809e-03 1.337048e-03 -1.530782e-04 4.155102e-04 1.419084e-03 -5.056541e-04 1.277374e-03 8.346986e-04 5.466523e-04 1.073127e-03 3.859671e-04 1.115291e-03 2.521562e-04 9.793789e-04 1.187996e-04 7.706748e-04 1.228006e-05 5.681507e-04 -2.963820e-05 4.113002e-04 -1.006101e-05 2.902465e-04 3.502128e-05 1.795918e-04 7.240153e-05 7.061009e-05 9.259689e-05 -2.437614e-05 1.039927e-04 -8.570789e-05 1.181922e-04 -1.051236e-04 1.330518e-04 -9.516289e-05 1.363744e-04 -7.527225e-05 1.174157e-04 -6.332764e-05 7.526443e-05 -5.866913e-05 3.265524e-05 -4.292533e-05 1.077697e-05 -1.439338e-05 4.004544e-06 1.000366e-05 -2.505615e-06 1.997220e-05 -1.174489e-05 1.941216e-05 -1.986085e-05 1.389483e-05 -2.433105e-05 8.191216e-06 -2.454361e-05 1.707246e-07 -2.980011e-05 -1.449248e-05 -1.545168e-05 -7.980134e-06 -5.851181e-06 -7.253808e-06 
-1.165003e-04 -1.172039e-03 -1.709655e-03 -1.298141e-03 -2.079108e-05 6.387134e-03 -2.189243e-03 -4.292222e-03 -4.083875e-03 -8.413921e-03 -9.937589e-03 -1.781438e-02 -2.175426e-02 -2.289038e-02 -1.173666e-02 -6.252112e-03 -2.517162e-03 2.311268e-03 6.641658e-03 1.114479e-02 2.273376e-02 2.323443e-02 1.556038e-02 1.082102e-02 6.435906e-03 4.599837e-03 2.642600e-03 2.022875e-03 1.011205e-03 9.297770e-04 2.914121e-04 4.719519e-04 -2.886095e-05 2.790101e-04 -1.656672e-04 1.892312e-04 -2.067423e-04 1.284939e-04 -2.010082e-04 4.856110e-05 -1.849036e-04 -6.961048e-05 -1.650856e-04 -2.073593e-04 -1.275342e-04 -3.478359e-04 -9.911800e-05 -5.432710e-04 -1.747144e-04 -9.071749e-04 -4.596957e-04 -1.562434e-03 -1.014970e-03 -2.642157e-03 -2.058643e-03 -5.729996e-03 -7.333501e-03 -2.755586e-03 -5.355461e-03 -8.435273e-03 -1.501121e-03 -1.464102e-03 3.742221e-03 3.884733e-03 1.261987e-02 7.675301e-03 -1.394630e-02 -1.114914e-03 -7.847297e-04 3.667247e-03 9.690522e-03 -3.600681e-03 5.374405e-03 6.214396e-03 1.109004e-03 2.218844e-03 9.253791e-05 1.419770e-03 -1.726910e-04 1.031786e-03 -3.283100e-04 7.839029e-04 -4.114518e-04 6.108517e-04 -4.184544e-04 4.841383e-04 -3.644085e-04 3.753788e-04 -2.730624e-04 2.650843e-04 -1.691157e-04 1.375724e-04 -7.517264e-05 -1.234839e-05 9.210837e-06 -1.575377e-04 1.143271e-04 -2.640596e-04 2.505397e-04 -3.391685e-04 3.848764e-04 -4.158372e-04 4.751515e-04 -5.101151e-04 5.100235e-04 -5.878824e-04 5.187056e-04 -5.939640e-04 5.103421e-04 -5.182348e-04 4.457768e-04 -3.793568e-04 2.914072e-04 -1.719424e-04 5.417215e-05 1.407063e-04 -2.360114e-04 6.268085e-04 -5.303262e-04 1.488573e-03 -7.018700e-04 3.579614e-03 -3.509585e-03 -2.761861e-03 1.348909e-03 8.427598e-04 1.573864e-03 2.387442e-04 
-2.251371e-04 -3.297260e-03 -4.163453e-03 -6.441378e-03 -8.599011e-04 2.089662e-02 -3.658609e-05 -4.729394e-03 7.168795e-04 -5.905129e-03 -1.268502e-05 -6.720082e-03 3.267485e-03 6.941170e-03 6.608452e-03 5.874295e-04 2.163184e-03 -1.739450e-03 -1.377975e-03 -5.206019e-03 -7.405029e-03 -1.246708e-04 1.956917e-03 1.929794e-03 1.011034e-03 8.441433e-04 3.901514e-04 4.205043e-04 6.829599e-05 2.557204e-04 -1.566309e-04 2.109129e-04 -3.262549e-04 2.069148e-04 -4.541629e-04 2.125094e-04 -5.102123e-04 2.174708e-04 -5.131908e-04 1.475002e-04 -5.383341e-04 -5.328325e-05 -5.976056e-04 -3.276248e-04 -6.095477e-04 -5.855424e-04 -5.915303e-04 -9.352208e-04 -7.777288e-04 -1.650834e-03 -1.434268e-03 -2.982996e-03 -2.719763e-03 -5.201101e-03 -5.159259e-03 -1.037078e-02 -1.077441e-02 3.080948e-03 3.621512e-03 -2.273130e-03 5.273890e-03 -1.581029e-03 4.267257e-03 -2.014067e-03 2.511504e-03 7.299736e-03 -9.768155e-03 7.382731e-03 -2.176585e-03 -2.389181e-03 6.277353e-03 -9.861859e-03 8.133443e-03 1.002554e-02 2.726814e-03 3.947047e-03 7.608436e-04 2.473596e-03 1.033664e-04 1.701161e-03 -3.086205e-04 1.230141e-03 -5.274384e-04 9.628724e-04 -5.811669e-04 7.937832e-04 -5.431318e-04 6.464879e-04 -4.394166e-04 5.064730e-04 -2.895173e-04 3.365822e-04 -1.574175e-04 8.172467e-05 -6.388279e-05 -2.003337e-04 9.635887e-05 -3.945554e-04 3.721873e-04 -5.211164e-04 6.699731e-04 -6.757989e-04 8.704805e-04 -9.132331e-04 9.398544e-04 -1.132969e-03 9.877969e-04 -1.165943e-03 1.046452e-03 -1.015427e-03 9.811483e-04 -7.647063e-04 7.037078e-04 -3.918699e-04 2.602594e-04 1.988998e-04 -2.903128e-04 1.117989e-03 -9.356063e-04 2.772692e-03 -1.816651e-03 7.168691e-03 -1.198347e-02 -6.283185e-03 8.409905e-03 3.653929e-03 4.026045e-03 3.459265e-04 
-8.686297e-04 -9.040501e-03 -1.613968e-02 -2.702966e-02 -2.783149e-02 1.255855e-02 3.120345e-03 -2.092077e-03 4.969026e-03 -1.637514e-03 5.729125e-03 6.628477e-04 4.115635e-03 -5.240571e-03 -2.775780e-04 -1.557615e-03 -1.150335e-04 1.278768e-04 -3.654278e-05 1.945164e-03 1.459379e-03 -1.825869e-03 -2.747293e-03 -2.139922e-03 -1.342670e-03 -1.230126e-03 -5.991812e-04 -7.935717e-04 -3.317074e-04 -5.203785e-04 -3.132028e-04 -3.002833e-04 -3.987922e-04 -1.261610e-04 -5.188232e-04 3.334415e-05 -5.406026e-04 2.230537e-04 -4.715515e-04 3.049120e-04 -4.660271e-04 1.663033e-04 -5.226508e-04 -1.969017e-05 -3.781625e-04 4.718736e-05 6.858046e-05 2.859336e-04 4.956041e-04 3.944101e-04 6.671818e-04 4.330775e-04 8.698740e-04 9.970769e-04 1.818989e-03 3.348880e-03 5.255064e-03 -3.746760e-04 1.587484e-03 2.240323e-03 -3.470224e-04 -8.024683e-04 -1.807175e-03 -1.516723e-03 -4.471371e-03 -4.940939e-03 7.301723e-03 -1.932346e-03 1.265776e-03 -4.002280e-04 -4.330250e-03 3.244671e-03 -4.294635e-03 -4.514208e-03 -2.179978e-03 -9.188529e-04 -1.309336e-03 1.505718e-04 -1.204068e-03 4.955425e-04 -1.292193e-03 5.467563e-04 -1.299894e-03 5.901661e-04 -1.149781e-03 6.125431e-04 -9.577588e-04 5.688034e-04 -7.293175e-04 5.120138e-04 -4.601116e-04 3.915776e-04 -2.801688e-04 7.278038e-05 -2.354050e-04 -3.251447e-04 -6.457558e-05 -5.348958e-04 3.635041e-04 -6.073360e-04 8.505087e-04 -7.689895e-04 1.143132e-03 -1.165084e-03 1.178433e-03 -1.586516e-03 1.238955e-03 -1.665278e-03 1.418242e-03 -1.450595e-03 1.410252e-03 -1.171077e-03 1.023601e-03 -7.961698e-04 3.671503e-04 -1.658005e-04 -4.786559e-04 7.314036e-04 -1.629527e-03 1.979603e-03 -3.654914e-03 4.275935e-03 -1.287735e-02 1.579440e-02 3.678049e-02 2.105158e-02 1.382359e-02 4.432666e-03 
-2.428238e-03 -1.060367e-02 -2.036981e-02 -3.128432e-02 -4.059563e-02 -1.745934e-02 5.207344e-05 -1.817716e-03 9.089760e-04 -2.841788e-03 -1.504475e-04 -4.093602e-03 -1.728951e-03 1.473349e-04 -7.383930e-05 -5.328547e-05 -1.090345e-04 1.039905e-04 -1.539109e-04 2.733700e-04 -1.850985e-04 2.653362e-03 1.801655e-03 1.366899e-03 1.009171e-03 1.555585e-04 6.251050e-04 -3.066595e-04 4.386354e-04 -4.479014e-04 2.767889e-04 -4.385468e-04 1.187453e-04 -3.753066e-04 -3.392468e-05 -2.780801e-04 -1.046210e-04 -1.364006e-04 -1.102923e-04 -6.242346e-05 -1.690001e-04 -1.460517e-04 -2.840502e-04 -2.667714e-04 -2.698563e-04 -2.194714e-04 -5.933984e-05 -8.397367e-05 9.927604e-05 -1.083643e-04 8.835890e-06 -2.964203e-04 -1.539182e-04 -2.855962e-04 2.868166e-05 -8.330370e-05 -1.031497e-03 -1.519001e-03 -3.426183e-03 -2.992030e-03 -1.935961e-03 -5.574187e-05 5.232747e-04 7.454705e-04 6.163727e-03 1.369182e-03 -3.783365e-03 -2.110825e-03 5.160856e-04 1.312232e-03 2.631504e-03 2.016758e-05 3.156454e-04 1.144344e-03 -1.748821e-04 6.517865e-04 -4.475613e-04 7.647358e-04 -5.943748e-04 7.535427e-04 -7.701835e-04 6.373485e-04 -8.309739e-04 5.569857e-04 -7.450915e-04 4.931903e-04 -6.154101e-04 4.158940e-04 -4.617272e-04 3.604357e-04 -2.903874e-04 2.823266e-04 -1.973784e-04 7.803358e-05 -2.092969e-04 -1.739348e-04 -1.291606e-04 -2.866434e-04 1.441051e-04 -3.021884e-04 4.700601e-04 -3.934160e-04 6.656454e-04 -6.719550e-04 6.890369e-04 -9.871651e-04 7.499663e-04 -1.074089e-03 9.187077e-04 -9.696904e-04 9.751245e-04 -8.418750e-04 7.799566e-04 -6.717466e-04 4.144444e-04 -3.533550e-04 -4.126661e-05 7.608309e-05 -5.523127e-04 4.988137e-04 -9.099632e-04 4.319517e-04 6.766004e-03 3.952262e-02 4.164207e-02 2.554272e-02 1.449116e-02 5.482733e-03 
-1.436965e-03 -4.958967e-03 -1.037733e-02 -1.375976e-02 -2.125987e-02 -1.911813e-02 -3.801936e-03 -2.922454e-03 -3.668912e-03 -4.983792e-03 -5.273758e-03 -8.066726e-03 -4.442842e-03 1.335898e-04 -5.936477e-05 -9.989200e-05 -8.173692e-05 8.539200e-05 -1.065617e-04 2.733583e-04 -1.358869e-04 5.994971e-03 6.303890e-03 4.078148e-03 2.991343e-03 1.576933e-03 1.482234e-03 5.222200e-04 7.866343e-04 4.438935e-05 4.195159e-04 -1.628219e-04 1.995050e-04 -2.437340e-04 5.262284e-05 -2.667181e-04 -4.367895e-05 -2.717171e-04 -1.166948e-04 -3.066805e-04 -2.056988e-04 -4.064885e-04 -3.286301e-04 -5.682698e-04 -4.846541e-04 -8.017394e-04 -7.310975e-04 -1.223465e-03 -1.247460e-03 -2.077278e-03 -2.312380e-03 -3.735492e-03 -4.307770e-03 -6.845274e-03 -8.326364e-03 -1.451116e-02 -1.584532e-02 6.367887e-03 6.431229e-03 3.107830e-04 7.326836e-03 -1.656664e-03 5.194700e-03 -2.243762e-03 -8.974441e-04 7.736497e-03 -8.864059e-03 1.002384e-02 -2.988754e-03 -3.184995e-03 6.470032e-03 -1.298200e-02 1.098749e-02 1.330758e-02 4.004957e-03 4.894058e-03 1.604312e-03 2.820189e-03 7.230568e-04 1.781217e-03 2.095356e-04 1.189955e-03 -6.344317e-05 8.280949e-04 -1.760516e-04 5.907769e-04 -1.970025e-04 4.239200e-04 -1.687997e-04 3.012253e-04 -1.206953e-04 1.926844e-04 -8.273686e-05 7.204867e-05 -5.619090e-05 -4.684823e-05 1.195528e-06 -1.302288e-04 1.097805e-04 -1.886907e-04 2.351480e-04 -2.637780e-04 3.288646e-04 -3.763450e-04 3.784919e-04 -4.844081e-04 4.214468e-04 -5.232492e-04 4.671252e-04 -4.857267e-04 4.696985e-04 -3.944993e-04 4.020016e-04 -2.347915e-04 3.028865e-04 4.616160e-05 2.770297e-04 5.290155e-04 5.906070e-04 1.387540e-03 1.996835e-03 2.646288e-03 1.190692e-02 2.400010e-02 1.731434e-02 1.286463e-02 7.188360e-03 3.531742e-03 
-1.067427e-03 -3.431344e-03 -6.159471e-03 -7.730152e-03 -9.443374e-03 -8.819895e-03 -6.427563e-03 -6.895663e-03 -6.505849e-03 -9.546061e-03 -9.924528e-03 -1.503766e-02 -1.035321e-02 4.205060e-05 -7.345931e-06 2.983808e-05 -3.165219e-05 3.640662e-05 -4.468145e-05 3.472342e-05 -1.420056e-05 1.293351e-02 1.447365e-02 8.263180e-03 6.735609e-03 3.698957e-03 3.302859e-03 1.700568e-03 1.684117e-03 7.366638e-04 8.680872e-04 2.654991e-04 4.336838e-04 3.228030e-05 1.890738e-04 -8.696112e-05 4.708077e-05 -1.590356e-04 -4.589808e-05 -2.339784e-04 -1.327547e-04 -3.427795e-04 -2.360122e-04 -4.906902e-04 -3.665496e-04 -6.902949e-04 -5.725633e-04 -1.016283e-03 -9.728262e-04 -1.610748e-03 -1.732086e-03 -2.654480e-03 -3.018930e-03 -4.333263e-03 -5.140158e-03 -7.780240e-03 -8.901898e-03 -8.481655e-04 1.604459e-04 -1.990580e-03 1.164023e-03 -2.453602e-03 2.877173e-03 1.947987e-03 -1.239243e-03 3.763118e-03 -1.703351e-03 2.800838e-03 2.725980e-04 1.868094e-03 5.460114e-03 -1.356104e-03 6.697534e-03 6.479844e-03 2.665009e-03 3.069008e-03 1.405895e-03 2.088300e-03 7.494442e-04 1.469577e-03 3.233733e-04 1.057564e-03 7.064012e-05 7.704049e-04 -5.498838e-05 5.623493e-04 -9.731607e-05 4.041048e-04 -8.969512e-05 2.780204e-04 -5.821668e-05 1.655416e-04 -2.573357e-05 5.252841e-05 4.600622e-06 -5.111745e-05 5.527960e-05 -1.259981e-04 1.363227e-04 -1.797113e-04 2.252409e-04 -2.383973e-04 2.915045e-04 -3.140803e-04 3.274934e-04 -3.805435e-04 3.546377e-04 -3.970337e-04 3.798999e-04 -3.538960e-04 3.806767e-04 -2.567276e-04 3.504664e-04 -8.214413e-05 3.369992e-04 2.388281e-04 4.591515e-04 8.443474e-04 9.664879e-04 2.023286e-03 2.319485e-03 4.231787e-03 5.780877e-03 9.802675e-03 8.276033e-03 7.004529e-03 4.239476e-03 1.939691e-03 
-4.808127e-04 -1.317246e-03 -2.558692e-03 -3.243042e-03 -3.919109e-03 -4.226683e-03 -3.051659e-03 -3.556659e-03 -3.354663e-03 -4.676027e-03 -4.986074e-03 -7.384715e-03 -5.065042e-03 2.298246e-05 -5.315408e-06 9.166708e-06 -1.749588e-05 2.142860e-05 -2.297719e-05 2.809370e-05 -5.355193e-06 6.698029e-03 7.323909e-03 4.064393e-03 3.135700e-03 1.732791e-03 1.405047e-03 7.608817e-04 6.407843e-04 3.027235e-04 2.807479e-04 6.984935e-05 9.870494e-05 -6.649954e-05 -4.627571e-06 -1.669832e-04 -7.614201e-05 -2.643809e-04 -1.445716e-04 -3.812957e-04 -2.330551e-04 -5.348952e-04 -3.621976e-04 -7.403019e-04 -5.560569e-04 -1.020973e-03 -8.531574e-04 -1.417372e-03 -1.306932e-03 -1.972079e-03 -1.956346e-03 -2.674044e-03 -2.748313e-03 -3.313678e-03 -3.368195e-03 -3.346234e-03 -3.461660e-03 -1.448936e-03 -5.398733e-04 -7.234612e-04 7.913356e-04 -2.639136e-04 8.193547e-04 5.304794e-04 -9.405321e-05 2.167174e-03 -5.139756e-04 2.364644e-03 4.094177e-04 5.599957e-04 2.235506e-03 1.669437e-04 3.043939e-03 2.395246e-03 2.320095e-03 2.463327e-03 1.732804e-03 2.094237e-03 1.179853e-03 1.632335e-03 7.580384e-04 1.222265e-03 4.667168e-04 8.894784e-04 2.837203e-04 6.301225e-04 1.807569e-04 4.312072e-04 1.300744e-04 2.785319e-04 1.086525e-04 1.594518e-04 1.005943e-04 6.564623e-05 9.968855e-05 -4.958492e-06 1.073244e-04 -5.282934e-05 1.231657e-04 -8.400433e-05 1.405365e-04 -1.080339e-04 1.514836e-04 -1.299263e-04 1.539508e-04 -1.446497e-04 1.527518e-04 -1.424590e-04 1.508385e-04 -1.183978e-04 1.467471e-04 -6.931560e-05 1.461924e-04 1.805808e-05 1.773321e-04 1.783586e-04 3.069704e-04 4.836521e-04 6.650401e-04 1.068886e-03 1.448431e-03 2.126344e-03 2.822264e-03 4.081767e-03 3.179661e-03 2.982068e-03 1.636750e-03 9.221285e-04 
-6.586928e-06 2.950481e-06 -6.438201e-06 3.982710e-06 -7.314996e-06 4.317489e-06 -9.135073e-06 4.196901e-06 -7.471466e-06 2.432852e-06 -5.664787e-06 -2.708406e-07 -7.279520e-06 1.506649e-06 1.425778e-06 1.238165e-06 1.438929e-06 1.633346e-06 1.593914e-06 2.587533e-06 2.031665e-06 8.955584e-05 -1.153874e-04 8.903834e-05 -1.098957e-04 8.903766e-05 -1.103496e-04 7.874348e-05 -1.078162e-04 5.801278e-05 -9.900975e-05 2.541143e-05 -8.418508e-05 -2.123530e-05 -6.735493e-05 -8.434570e-05 -5.522131e-05 -1.663777e-04 -5.693107e-05 -2.697934e-04 -8.238990e-05 -3.960886e-04 -1.417028e-04 -5.486548e-04 -2.498744e-04 -7.405377e-04 -4.337458e-04 -9.986157e-04 -7.286278e-04 -1.350666e-03 -1.156307e-03 -1.793149e-03 -1.685947e-03 -2.234374e-03 -2.168182e-03 -2.407559e-03 -2.265816e-03 -1.634596e-03 -1.139273e-03 -1.196527e-03 -3.998222e-04 -6.468764e-04 2.954840e-05 3.398766e-04 -1.016165e-04 1.068902e-03 1.097532e-04 1.295483e-03 8.090448e-04 1.316523e-03 1.813956e-03 1.370817e-03 2.231425e-03 2.125115e-03 1.809619e-03 1.959875e-03 1.331748e-03 1.615920e-03 9.217924e-04 1.255304e-03 6.101007e-04 9.318279e-04 3.950054e-04 6.627912e-04 2.652824e-04 4.504243e-04 2.000335e-04 2.862585e-04 1.729108e-04 1.586359e-04 1.613421e-04 6.027422e-05 1.526913e-04 -1.004528e-05 1.432911e-04 -5.131162e-05 1.332940e-04 -6.562065e-05 1.213992e-04 -6.052969e-05 1.044394e-04 -4.597688e-05 8.016779e-05 -3.021498e-05 5.019708e-05 -1.574285e-05 2.145328e-05 -5.380348e-07 2.639596e-07 1.493467e-05 -1.314267e-05 2.657830e-05 -2.173581e-05 3.153197e-05 -2.690396e-05 3.043366e-05 -2.836528e-05 2.538975e-05 -2.590745e-05 1.847908e-05 -2.026795e-05 1.078840e-05 -1.382562e-05 3.654597e-06 -1.038133e-05 1.726171e-06 -7.854028e-06 1.929727e-06 
4.741372e-04 1.320668e-03 2.553999e-03 3.247412e-03 3.913998e-03 4.228666e-03 3.040814e-03 3.556476e-03 3.356233e-03 4.665697e-03 4.998695e-03 7.362724e-03 5.084119e-03 -2.189110e-05 7.201706e-06 -9.255133e-06 1.991184e-05 -2.002612e-05 2.550594e-05 -2.343949e-05 9.119933e-06 -6.515612e-03 -7.584596e-03 -3.891020e-03 -3.382676e-03 -1.566709e-03 -1.652600e-03 -6.246063e-04 -8.867470e-04 -2.193664e-04 -5.174848e-04 -6.634106e-05 -3.197812e-04 -4.227132e-05 -2.030294e-04 -9.256459e-05 -1.344937e-04 -1.910087e-04 -1.052472e-04 -3.224600e-04 -1.142548e-04 -4.758898e-04 -1.634841e-04 -6.453194e-04 -2.594582e-04 -8.325616e-04 -4.137152e-04 -1.043672e-03 -6.333268e-04 -1.272697e-03 -9.011594e-04 -1.480539e-03 -1.156634e-03 -1.580164e-03 -1.286136e-03 -1.452144e-03 -1.158063e-03 -1.039887e-03 -6.618377e-04 -6.368828e-04 -2.634466e-04 -2.308434e-04 -9.388577e-05 2.221241e-04 -7.632584e-05 6.808187e-04 2.155568e-05 8.868909e-04 3.889703e-04 8.512236e-04 8.901371e-04 9.544966e-04 1.202315e-03 1.292626e-03 1.202160e-03 1.400247e-03 1.056053e-03 1.309918e-03 8.550638e-04 1.105678e-03 6.593789e-04 8.585130e-04 5.023459e-04 6.189162e-04 3.986662e-04 4.146884e-04 3.419752e-04 2.509468e-04 3.110250e-04 1.221484e-04 2.855806e-04 2.645833e-05 2.567034e-04 -3.229741e-05 2.227714e-04 -5.285793e-05 1.820941e-04 -4.101986e-05 1.322526e-04 -6.539688e-06 7.399139e-05 4.060407e-05 1.096766e-05 8.912064e-05 -5.235607e-05 1.286681e-04 -1.083013e-04 1.530758e-04 -1.484377e-04 1.562271e-04 -1.713562e-04 1.271339e-04 -1.883560e-04 4.739273e-05 -2.298177e-04 -1.161889e-04 -3.617903e-04 -4.318764e-04 -7.137619e-04 -1.031075e-03 -1.483836e-03 -2.104636e-03 -2.841212e-03 -4.076522e-03 -3.194661e-03 -2.980431e-03 -1.646944e-03 -9.202498e-04 
1.060005e-03 3.438379e-03 6.151856e-03 7.741927e-03 9.433148e-03 8.830256e-03 6.394062e-03 6.908935e-03 6.488617e-03 9.550468e-03 9.916363e-03 1.503331e-02 1.034453e-02 -4.054056e-05 9.402663e-06 -3.006029e-05 3.396281e-05 -3.537442e-05 4.745786e-05 -2.950436e-05 1.942200e-05 -1.274994e-02 -1.468883e-02 -8.066277e-03 -6.956990e-03 -3.492437e-03 -3.543035e-03 -1.505908e-03 -1.928507e-03 -5.755130e-04 -1.092233e-03 -1.600845e-04 -6.117974e-04 -1.059340e-05 -3.069487e-04 -8.163754e-06 -1.046113e-04 -9.113532e-05 2.330716e-05 -2.191156e-04 9.647861e-05 -3.541520e-04 1.341869e-04 -4.688828e-04 1.428115e-04 -5.618043e-04 1.036480e-04 -6.589532e-04 -1.000538e-05 -7.769564e-04 -1.911221e-04 -8.918169e-04 -3.885414e-04 -9.452595e-04 -5.268734e-04 -8.777650e-04 -5.441748e-04 -6.715123e-04 -4.022020e-04 -4.540586e-04 -2.633814e-04 -1.836310e-04 -1.728206e-04 1.456601e-04 -1.266894e-04 4.482083e-04 -3.241518e-05 6.566159e-04 2.268396e-04 8.025446e-04 5.181029e-04 9.065381e-04 6.598160e-04 1.027726e-03 6.405729e-04 1.019504e-03 5.709127e-04 9.153962e-04 4.881149e-04 7.358769e-04 3.972611e-04 5.086656e-04 3.235384e-04 2.926838e-04 3.049763e-04 1.319613e-04 3.370869e-04 1.814588e-05 3.715213e-04 -7.830185e-05 3.694604e-04 -1.566274e-04 3.347729e-04 -1.881925e-04 2.849378e-04 -1.588242e-04 2.193417e-04 -8.238714e-05 1.271799e-04 2.131222e-05 1.338603e-05 1.421353e-04 -1.079080e-04 2.592269e-04 -2.316977e-04 3.463546e-04 -3.418195e-04 3.949541e-04 -4.104909e-04 3.990676e-04 -4.262641e-04 3.365710e-04 -4.077837e-04 1.691940e-04 -4.060174e-04 -1.627011e-04 -5.323018e-04 -7.869850e-04 -1.032044e-03 -1.984288e-03 -2.364005e-03 -4.213005e-03 -5.796242e-03 -9.815810e-03 -8.292672e-03 -7.008716e-03 -4.249137e-03 -1.937861e-03 
1.438806e-03 4.967160e-03 1.038552e-02 1.378124e-02 2.127726e-02 1.911957e-02 3.717290e-03 2.948694e-03 3.670922e-03 4.971489e-03 5.297458e-03 8.021411e-03 4.494687e-03 -1.430481e-04 6.109874e-05 8.919782e-05 8.582053e-05 -9.102875e-05 1.060617e-04 -2.622553e-04 1.359288e-04 -5.787280e-03 -6.536869e-03 -3.858903e-03 -3.233575e-03 -1.346293e-03 -1.752932e-03 -3.017031e-04 -1.070257e-03 1.421537e-04 -6.866744e-04 2.923311e-04 -4.163362e-04 2.844681e-04 -2.004695e-04 1.816956e-04 -2.948071e-05 1.867725e-05 8.960713e-05 -1.748804e-04 1.639724e-04 -3.564258e-04 2.148307e-04 -4.906238e-04 2.512749e-04 -5.766001e-04 2.453404e-04 -6.562166e-04 1.543789e-04 -7.573950e-04 -1.516444e-05 -8.519821e-04 -2.028619e-04 -8.765543e-04 -3.353610e-04 -7.862750e-04 -3.885345e-04 -5.722662e-04 -2.916118e-04 -3.901755e-04 -1.534613e-04 -7.779124e-05 -5.214555e-05 2.543445e-04 -3.078635e-05 5.310807e-04 -2.196147e-04 6.394390e-04 3.375987e-05 7.163292e-04 3.379590e-04 7.113499e-04 4.125513e-04 8.428465e-04 3.722459e-04 8.465137e-04 3.585278e-04 7.840447e-04 3.555437e-04 6.360130e-04 3.248215e-04 4.104195e-04 2.901865e-04 1.875869e-04 3.152352e-04 3.367681e-05 3.993619e-04 -6.751899e-05 4.717797e-04 -1.643363e-04 4.782080e-04 -2.526494e-04 4.344098e-04 -2.823773e-04 3.735664e-04 -2.304675e-04 2.937572e-04 -1.202870e-04 1.748777e-04 1.966011e-05 2.589899e-05 1.831242e-04 -1.296686e-04 3.433486e-04 -2.905651e-04 4.615425e-04 -4.367203e-04 5.312508e-04 -5.246517e-04 5.520548e-04 -5.321752e-04 5.011769e-04 -4.734599e-04 3.429826e-04 -3.882821e-04 4.288529e-05 -3.674018e-04 -4.653133e-04 -6.707253e-04 -1.343742e-03 -2.045353e-03 -2.624805e-03 -1.187822e-02 -2.404274e-02 -1.732965e-02 -1.287633e-02 -7.191412e-03 -3.532794e-03 
2.437317e-03 1.061570e-02 2.038261e-02 3.131857e-02 4.063099e-02 1.748041e-02 -1.753221e-04 1.842450e-03 -9.345282e-04 2.839327e-03 1.577365e-04 4.092357e-03 1.738571e-03 -1.582198e-04 7.334313e-05 3.951763e-05 1.100817e-04 -1.153835e-04 1.502945e-04 -2.627838e-04 1.856790e-04 -2.527755e-03 -1.907661e-03 -1.089755e-03 -1.232156e-03 1.501390e-04 -9.583890e-04 6.231560e-04 -8.193570e-04 7.415979e-04 -6.387459e-04 7.077852e-04 -3.729773e-04 5.895243e-04 -7.913804e-05 4.046258e-04 1.866244e-04 1.542525e-04 3.528134e-04 -1.511336e-04 4.368400e-04 -4.034222e-04 5.352688e-04 -4.871878e-04 7.199201e-04 -3.862180e-04 9.040699e-04 -2.829581e-04 8.939103e-04 -3.142622e-04 6.839161e-04 -4.005494e-04 4.457775e-04 -3.567707e-04 3.598611e-04 -1.246626e-04 3.407322e-04 1.265071e-04 2.932247e-04 1.699189e-04 1.623012e-04 2.479782e-04 1.047352e-05 3.514682e-04 -1.157852e-04 4.900748e-04 -4.002524e-04 5.235524e-04 -2.743495e-04 5.584780e-04 -1.674861e-04 4.178922e-04 -2.881749e-04 3.905518e-04 -3.548002e-04 3.645219e-04 -1.985303e-04 4.205680e-04 3.995670e-05 3.487329e-04 1.017961e-04 2.223819e-05 4.178993e-05 -2.925226e-04 1.604145e-04 -3.596329e-04 4.803848e-04 -3.046324e-04 7.250156e-04 -3.750581e-04 7.104570e-04 -5.497825e-04 5.743229e-04 -6.000012e-04 4.816699e-04 -4.435943e-04 3.988957e-04 -1.942458e-04 2.013445e-04 5.324984e-05 -7.232647e-05 3.692421e-04 -3.182409e-04 6.980317e-04 -6.082533e-04 8.961155e-04 -9.181654e-04 1.001801e-03 -1.088079e-03 1.072331e-03 -1.047934e-03 1.051080e-03 -8.468578e-04 8.488481e-04 -5.258731e-04 4.698012e-04 -9.409085e-05 -2.068564e-05 4.189599e-04 -4.538406e-04 8.539402e-04 -3.845618e-04 -6.714857e-03 -3.968442e-02 -4.165616e-02 -2.554103e-02 -1.447529e-02 -5.478860e-03 
8.736942e-04 9.038745e-03 1.613646e-02 2.702920e-02 2.784503e-02 -1.252666e-02 -3.097928e-03 2.059469e-03 -5.002610e-03 1.627451e-03 -5.728491e-03 -6.283337e-04 -4.108381e-03 5.230787e-03 3.052819e-04 1.537927e-03 1.510994e-04 -1.503726e-04 2.748964e-05 -1.842126e-03 -1.644571e-03 2.089887e-03 2.608932e-03 2.536183e-03 1.045412e-03 1.627741e-03 1.663618e-04 1.189267e-03 -1.512943e-04 8.861913e-04 -1.380881e-04 6.530953e-04 8.897320e-05 4.414689e-04 3.832999e-04 2.134012e-04 6.457799e-04 -6.192166e-05 7.716810e-04 -3.918368e-04 7.849073e-04 -6.426445e-04 8.206318e-04 -6.661319e-04 9.826894e-04 -4.436608e-04 1.159672e-03 -2.286136e-04 1.089219e-03 -2.136252e-04 7.632237e-04 -2.952000e-04 4.131411e-04 -2.274229e-04 2.812352e-04 5.569829e-05 2.595239e-04 2.645645e-04 6.870783e-05 3.547669e-04 -1.731775e-04 3.487376e-04 -3.329602e-04 3.542755e-04 -3.562822e-04 4.125453e-04 -2.013951e-04 5.724070e-04 -1.795348e-04 6.651376e-04 -2.912452e-04 5.545667e-04 -4.282335e-04 2.924204e-04 -3.995151e-04 2.244812e-04 -1.436741e-04 3.113675e-04 1.825353e-04 2.577773e-04 2.466229e-04 -1.234952e-04 1.284970e-04 -4.791115e-04 2.424206e-04 -4.945859e-04 6.223677e-04 -3.488030e-04 8.952953e-04 -3.847940e-04 8.173656e-04 -5.747222e-04 5.840345e-04 -6.063550e-04 4.231216e-04 -3.689964e-04 2.874060e-04 -1.849492e-05 4.221980e-06 3.163223e-04 -3.718819e-04 7.358279e-04 -6.946635e-04 1.163151e-03 -1.061840e-03 1.397353e-03 -1.436601e-03 1.488551e-03 -1.594993e-03 1.510804e-03 -1.439804e-03 1.380653e-03 -1.038951e-03 9.699193e-04 -4.446887e-04 2.686687e-04 3.590596e-04 -7.008481e-04 1.493590e-03 -1.950079e-03 3.600989e-03 -4.207114e-03 1.287379e-02 -1.599227e-02 -3.680257e-02 -2.103526e-02 -1.380185e-02 -4.428641e-03 
2.262787e-04 3.280855e-03 4.158266e-03 6.405074e-03 8.504805e-04 -2.091290e-02 1.582764e-04 4.660903e-03 -6.982415e-04 5.857258e-03 5.644769e-05 6.665882e-03 -3.191673e-03 -6.947043e-03 -6.587681e-03 -5.481472e-04 -2.225808e-03 1.888152e-03 1.209666e-03 5.390613e-03 7.281273e-03 4.395306e-04 -2.278867e-03 -1.571393e-03 -1.380081e-03 -4.920763e-04 -8.163659e-04 -8.774818e-05 -5.086439e-04 3.854726e-05 -2.492505e-04 4.027652e-05 1.078190e-05 -2.497778e-05 2.469846e-04 -1.374306e-04 4.280623e-04 -2.918863e-04 5.155280e-04 -4.763623e-04 5.260516e-04 -6.220403e-04 5.238589e-04 -6.580483e-04 5.563841e-04 -5.760354e-04 5.779678e-04 -4.836359e-04 4.841199e-04 -4.578307e-04 2.885981e-04 -4.344694e-04 1.260417e-04 -2.757790e-04 1.399811e-04 6.228663e-05 2.960059e-04 3.725369e-04 3.394596e-04 5.386719e-04 1.672348e-04 4.473520e-04 -1.202236e-04 3.372010e-04 -3.128174e-04 3.546941e-04 -9.112646e-05 4.996784e-04 -1.156204e-04 4.417843e-04 -2.028235e-04 3.807410e-04 -1.739914e-04 2.728760e-04 -7.088759e-05 3.306031e-04 9.711332e-05 4.113317e-04 2.551040e-04 3.765973e-04 2.802438e-04 1.680801e-04 2.246352e-04 -4.330780e-05 2.716103e-04 -1.086932e-04 4.362303e-04 -9.509718e-05 5.537401e-04 -1.450184e-04 5.107096e-04 -2.459712e-04 3.811813e-04 -2.615767e-04 2.615310e-04 -1.361908e-04 1.368096e-04 6.880961e-05 -6.126122e-05 2.927254e-04 -3.097931e-04 5.583354e-04 -5.447594e-04 8.167185e-04 -7.893780e-04 9.721748e-04 -1.007046e-03 1.029988e-03 -1.086502e-03 1.004535e-03 -9.749230e-04 8.439349e-04 -6.983787e-04 4.751710e-04 -2.892461e-04 -1.400105e-04 2.335839e-04 -1.091329e-03 8.646744e-04 -2.752874e-03 1.770907e-03 -7.139006e-03 1.188590e-02 6.180006e-03 -8.428758e-03 -3.647435e-03 -4.020060e-03 -3.511421e-04 
1.121951e-04 1.159136e-03 1.706664e-03 1.274896e-03 1.709630e-05 -6.406022e-03 2.251675e-03 4.255633e-03 4.100761e-03 8.388826e-03 9.956046e-03 1.778658e-02 2.177734e-02 2.290162e-02 1.172204e-02 6.343546e-03 2.396264e-03 -2.085871e-03 -6.830199e-03 -1.085432e-02 -2.278935e-02 -2.301380e-02 -1.582135e-02 -1.053825e-02 -6.742795e-03 -4.286179e-03 -2.989298e-03 -1.706435e-03 -1.362519e-03 -6.322020e-04 -6.035121e-04 -2.113300e-04 -2.017866e-04 -8.053881e-05 4.165514e-05 -8.647879e-05 1.975730e-04 -1.631103e-04 2.871320e-04 -2.737626e-04 3.287600e-04 -3.797542e-04 3.477492e-04 -4.508713e-04 3.545250e-04 -4.921131e-04 3.182509e-04 -5.573794e-04 1.802984e-04 -7.046653e-04 -9.154437e-05 -9.502626e-04 -4.908979e-04 -1.266176e-03 -9.985320e-04 -1.576640e-03 -1.606013e-03 -1.459574e-03 -1.424785e-03 -1.527693e-03 -6.573034e-04 -4.709312e-04 3.015981e-04 6.788926e-04 8.081851e-04 1.342775e-03 -9.513797e-04 8.921892e-04 1.266092e-04 1.054195e-03 1.519146e-03 7.588671e-04 1.460285e-03 1.410204e-03 8.925232e-04 1.209968e-03 5.343755e-04 9.630900e-04 3.381846e-04 7.120410e-04 2.032429e-04 4.535334e-04 1.143836e-04 2.380486e-04 1.073432e-04 1.050831e-04 1.700778e-04 2.746756e-05 2.347094e-04 -4.531271e-05 2.484133e-04 -1.170346e-04 2.176274e-04 -1.479993e-04 1.690347e-04 -1.125666e-04 1.058485e-04 -2.187888e-05 1.408335e-05 1.003380e-04 -1.036139e-04 2.397581e-04 -2.324469e-04 3.685159e-04 -3.648270e-04 4.563422e-04 -4.717156e-04 4.988809e-04 -5.079309e-04 4.918079e-04 -4.507423e-04 4.103935e-04 -3.058005e-04 2.237541e-04 -8.690765e-05 -9.320914e-05 1.872308e-04 -5.938552e-04 4.754402e-04 -1.467254e-03 6.539495e-04 -3.571634e-03 3.434280e-03 2.727221e-03 -1.374856e-03 -8.519533e-04 -1.583965e-03 -2.478436e-04 
