# vtk DataFile Version 2.0
Comment goes here
ASCII

DATASET STRUCTURED_POINTS
FIELD FieldData 1
TIME 1 1 double
0.56000000
DIMENSIONS    128   16   1

ORIGIN    0.000   0.000   0.000
SPACING   0.0078125 0.015625   1.000

POINT_DATA   2048
SCALARS uY double
LOOKUP_TABLE default

-1.432698e-05 2.915789e-06 -1.040175e-05 2.153845e-06 -6.256798e-06 1.511624e-06 1.143414e-05 -4.026208e-07 1.813901e-05 2.497830e-06 2.414553e-05 -1.947918e-06 2.730328e-05 -1.491191e-05 4.182340e-05 -2.436547e-05 4.819094e-05 -2.761610e-05 4.192380e-05 -1.580532e-05 2.430775e-05 3.166009e-06 1.978675e-05 2.666868e-05 -4.179314e-06 4.960310e-05 -3.784200e-05 8.055096e-05 -8.460775e-05 1.096944e-04 -1.383636e-04 1.449419e-04 -1.774181e-04 1.873135e-04 -1.962822e-04 2.287747e-04 -1.845778e-04 2.713772e-04 -1.368563e-04 3.011012e-04 -6.941466e-05 3.005468e-04 1.488134e-05 2.858439e-04 1.437496e-04 2.954325e-04 3.453311e-04 3.621544e-04 6.408362e-04 5.194702e-04 1.043272e-03 7.792636e-04 1.535006e-03 1.141642e-03 2.147103e-03 1.701974e-03 2.546113e-03 9.038071e-04 2.042464e-03 1.517579e-03 1.609969e-03 1.505882e-03 1.812210e-03 8.210501e-04 1.943022e-03 8.251317e-04 1.700545e-03 1.104904e-03 6.030384e-04 1.002745e-03 -1.083226e-03 2.692061e-04 -3.108995e-03 -2.908644e-03 -4.044443e-03 -2.847733e-03 -3.230615e-03 -2.182921e-03 -2.254809e-03 -1.525346e-03 -1.432194e-03 -1.053575e-03 -8.518304e-04 -7.685063e-04 -4.802635e-04 -6.035823e-04 -2.554853e-04 -4.992351e-04 -1.247394e-04 -4.126087e-04 -4.135918e-05 -3.193630e-04 1.638261e-05 -2.311162e-04 4.274065e-05 -1.655732e-04 4.475862e-05 -1.199857e-04 3.421343e-05 -9.406008e-05 1.766174e-05 -7.544815e-05 1.454979e-05 -4.704081e-05 2.575887e-05 -1.850763e-05 3.278544e-05 -2.510797e-08 3.020039e-05 1.010884e-05 1.780452e-05 1.192099e-05 -2.071043e-06 1.267913e-05 -1.770037e-05 1.851726e-05 -3.047560e-05 1.791424e-05 -4.769665e-05 1.076367e-05 -5.853297e-05 5.160490e-06 -6.324852e-05 -6.390095e-06 -3.595702e-05 1.161284e-06 -2.188591e-05 3.056785e-06 
-1.164716e-03 -6.590345e-04 -3.102322e-03 -1.214182e-03 -5.104393e-03 3.551372e-03 4.584709e-03 -4.623299e-03 -1.189972e-03 -5.448225e-03 -5.069845e-03 -1.117133e-02 -1.542417e-02 -1.658476e-02 -6.406954e-03 -5.238754e-03 -2.015827e-03 1.786493e-03 3.821139e-03 7.809202e-03 1.674845e-02 1.606092e-02 9.609506e-03 6.008771e-03 3.593776e-03 2.550714e-03 1.344586e-03 1.191123e-03 3.258824e-04 6.647964e-04 -1.628035e-04 5.029865e-04 -3.935036e-04 4.896092e-04 -4.971478e-04 5.081404e-04 -5.209051e-04 5.257488e-04 -4.664442e-04 5.285049e-04 -3.518740e-04 4.947118e-04 -1.956354e-04 4.331789e-04 1.894187e-05 3.924055e-04 3.301178e-04 4.419937e-04 8.021155e-04 6.942507e-04 1.545886e-03 1.316815e-03 2.777521e-03 2.741354e-03 5.306734e-03 5.631913e-03 5.484190e-03 8.586296e-04 3.364864e-03 1.743660e-03 6.424036e-04 3.926177e-03 3.674949e-03 3.155393e-03 9.701431e-03 2.680469e-03 -3.354371e-03 -3.363990e-03 5.303400e-04 3.793312e-03 -6.435263e-04 -1.903372e-03 -1.136355e-02 -1.145033e-02 -1.007970e-02 -6.193851e-03 -4.990354e-03 -3.039949e-03 -2.399390e-03 -1.581998e-03 -1.010885e-03 -9.130448e-04 -2.900551e-04 -6.216152e-04 4.032491e-05 -4.794913e-04 1.382183e-04 -3.742850e-04 1.030907e-04 -2.500982e-04 1.652354e-05 -9.103376e-05 -7.869014e-05 6.774330e-05 -1.729063e-04 1.885887e-04 -2.409571e-04 2.564117e-04 -2.681212e-04 2.465910e-04 -2.519548e-04 1.677769e-04 -1.608528e-04 5.616380e-05 1.057487e-05 -8.841526e-05 2.196844e-04 -2.768029e-04 4.256650e-04 -4.925243e-04 6.055205e-04 -6.906206e-04 7.490869e-04 -8.036027e-04 8.355749e-04 -7.637573e-04 7.974546e-04 -4.631564e-04 5.581618e-04 4.339519e-04 1.005424e-04 3.174866e-03 -3.664925e-03 2.191756e-03 1.348079e-03 1.301620e-03 4.191290e-04 2.569494e-04 
-2.165733e-03 -1.964749e-03 -6.051076e-03 -4.329385e-03 -1.406990e-02 1.212261e-02 1.671335e-02 -9.798889e-03 2.591008e-03 -7.971184e-03 4.663640e-04 -1.074672e-02 -5.183153e-04 5.998313e-03 2.687174e-03 1.634560e-03 4.547610e-04 1.128901e-04 -2.506372e-03 -1.355093e-03 -7.839713e-03 3.547090e-03 6.322878e-03 2.244851e-03 2.938705e-03 1.133882e-03 1.440427e-03 7.890325e-04 5.220602e-04 6.530430e-04 -8.875917e-05 6.751619e-04 -4.230736e-04 7.729207e-04 -6.273258e-04 8.014266e-04 -7.466234e-04 7.996123e-04 -7.121931e-04 7.961704e-04 -5.675540e-04 7.201362e-04 -3.947771e-04 5.594772e-04 -1.785649e-04 3.861904e-04 1.122855e-04 2.654119e-04 5.455089e-04 3.571093e-04 1.254604e-03 7.804782e-04 2.315839e-03 1.812767e-03 4.386000e-03 3.446549e-03 2.273197e-03 -3.113378e-03 3.831971e-03 2.478709e-03 1.910801e-04 5.592738e-03 4.682229e-03 1.963169e-03 1.105656e-02 3.454595e-03 7.735280e-04 1.258193e-03 3.349283e-03 6.999845e-03 3.216966e-03 5.095853e-03 -1.069750e-02 -1.318064e-02 -1.261224e-02 -8.214010e-03 -6.619151e-03 -4.525381e-03 -3.386774e-03 -2.693059e-03 -1.528041e-03 -1.753805e-03 -5.246957e-04 -1.279412e-03 -5.840381e-05 -9.765717e-04 6.427253e-05 -7.266019e-04 -3.615904e-05 -4.499853e-04 -1.986999e-04 -9.848200e-05 -3.523605e-04 2.263283e-04 -5.239717e-04 4.513207e-04 -6.289372e-04 5.959722e-04 -6.410176e-04 5.636579e-04 -6.120638e-04 3.671512e-04 -4.278882e-04 1.419887e-04 -4.811747e-05 -1.336742e-04 4.032980e-04 -5.163540e-04 8.366066e-04 -9.754151e-04 1.216697e-03 -1.415402e-03 1.556114e-03 -1.678725e-03 1.857974e-03 -1.669905e-03 1.953232e-03 -1.320251e-03 1.640634e-03 -2.375082e-06 6.625422e-04 4.831917e-03 -1.315760e-02 7.701482e-03 6.261534e-03 3.245912e-04 7.803116e-04 -6.922858e-04 
-2.016236e-03 -4.117044e-03 -1.006090e-02 -1.351482e-02 -3.060838e-02 2.171976e-03 1.089321e-02 -3.586389e-03 5.337639e-03 -7.247180e-04 4.767007e-03 3.039751e-03 4.922959e-03 -4.774565e-03 1.316769e-03 -2.247520e-03 1.255507e-03 -1.444735e-03 1.880238e-03 -9.174866e-04 3.583342e-03 -3.826461e-03 -3.908228e-03 -2.275503e-03 -1.854388e-03 -1.093675e-03 -1.155892e-03 -3.914991e-04 -1.048128e-03 6.582514e-06 -1.208261e-03 4.003585e-04 -1.259753e-03 7.937308e-04 -1.351632e-03 9.304155e-04 -1.476367e-03 9.720927e-04 -1.384768e-03 1.021412e-03 -1.137633e-03 9.065931e-04 -9.168425e-04 5.724785e-04 -6.977936e-04 1.284983e-04 -4.687474e-04 -3.916944e-04 -1.961051e-04 -8.017160e-04 1.896440e-04 -1.243143e-03 1.737986e-04 -2.330647e-03 -7.913070e-04 -3.923784e-03 2.193135e-04 -1.336538e-03 -5.701820e-04 -2.360416e-03 2.341044e-04 -3.322476e-03 -2.285701e-03 -2.711605e-03 -6.908866e-03 -3.465407e-03 4.905170e-04 5.142768e-04 -3.419555e-03 -2.405623e-03 -4.128963e-03 2.492640e-03 4.315373e-03 9.038394e-03 5.394886e-03 4.991571e-03 2.876912e-03 2.052910e-03 1.900305e-03 6.501463e-04 1.716154e-03 -4.126481e-05 1.564756e-03 -4.386141e-04 1.282095e-03 -5.643015e-04 8.571451e-04 -5.168889e-04 3.006748e-04 -2.836110e-04 -1.676760e-04 1.963443e-04 -4.912600e-04 6.660278e-04 -8.239760e-04 9.747219e-04 -1.008693e-03 1.208077e-03 -1.027409e-03 1.132082e-03 -1.057176e-03 7.651516e-04 -8.345376e-04 4.289613e-04 -2.508354e-04 5.080178e-05 4.234620e-04 -5.267661e-04 1.022900e-03 -1.267319e-03 1.513035e-03 -2.012988e-03 1.978542e-03 -2.485279e-03 2.497001e-03 -2.625730e-03 2.725636e-03 -2.662225e-03 2.215282e-03 -2.186853e-03 3.010728e-04 6.593380e-04 -1.171978e-02 3.606273e-02 2.278233e-02 5.552198e-03 4.842803e-03 4.825858e-04 
-1.273124e-03 -5.217488e-03 -7.572435e-03 -1.439239e-02 -2.240007e-02 -2.067041e-02 -1.324834e-02 7.028813e-04 -7.508887e-05 -2.699121e-03 2.956324e-04 -4.937899e-03 -1.279426e-03 -3.848899e-04 3.033120e-04 -5.923768e-04 4.615694e-04 -5.186789e-04 4.871987e-04 -2.673230e-04 2.809081e-04 1.490422e-03 3.657140e-03 4.766014e-04 2.088953e-03 6.481515e-05 1.226009e-03 7.871736e-05 5.297983e-04 1.684542e-04 -6.618770e-05 3.880823e-04 -4.255972e-04 6.639065e-04 -7.180258e-04 7.760060e-04 -9.648354e-04 8.228128e-04 -9.956201e-04 8.699401e-04 -8.558607e-04 7.909076e-04 -6.786354e-04 5.474079e-04 -4.496443e-04 2.288766e-04 -1.569326e-04 -1.113264e-04 2.370662e-04 -2.893427e-04 8.198707e-04 -3.040877e-04 1.326661e-03 -3.313103e-04 1.686161e-03 -9.173688e-05 1.180226e-03 -4.850321e-04 9.345740e-04 -6.348519e-04 1.205319e-03 1.333241e-03 1.612744e-03 3.638303e-03 3.244541e-03 3.660849e-03 -4.014154e-03 -2.766331e-04 -5.505603e-04 3.004949e-03 7.479855e-04 -2.121264e-03 -3.185451e-03 -2.711429e-03 -2.518597e-03 -1.836464e-03 -1.314294e-03 -1.557404e-03 -3.405602e-04 -1.317823e-03 3.975004e-04 -1.131029e-03 7.079817e-04 -1.017008e-03 6.828236e-04 -8.543698e-04 4.378709e-04 -6.477480e-04 5.023965e-05 -3.524272e-04 -2.872696e-04 9.509509e-05 -5.188509e-04 5.174925e-04 -7.521526e-04 8.094222e-04 -8.789534e-04 1.030736e-03 -8.925089e-04 1.014320e-03 -9.222484e-04 7.751032e-04 -7.791046e-04 5.470222e-04 -3.817140e-04 2.819141e-04 7.812925e-05 -1.320832e-04 4.829990e-04 -6.673558e-04 8.154825e-04 -1.206566e-03 1.148019e-03 -1.551438e-03 1.544314e-03 -1.674506e-03 1.777533e-03 -1.776897e-03 1.631492e-03 -1.706325e-03 1.242319e-03 -1.178851e-03 8.476974e-03 4.240387e-02 2.200429e-02 8.412193e-03 5.107997e-03 9.270117e-04 
-5.865829e-04 -2.135647e-03 -2.955710e-03 -5.247635e-03 -5.504066e-03 -1.486678e-02 -1.394891e-02 -1.707685e-04 -3.655055e-03 -4.563506e-03 -3.305077e-03 -9.766908e-03 -4.927976e-03 -2.689350e-04 3.378323e-04 -5.900158e-04 4.938760e-04 -5.365376e-04 5.040252e-04 -2.950265e-04 2.044378e-04 6.427889e-03 7.969519e-03 2.724167e-03 3.303348e-03 1.043547e-03 1.489722e-03 4.991081e-04 5.529954e-04 3.389371e-04 1.183446e-05 3.586130e-04 -3.046186e-04 4.460886e-04 -4.990123e-04 5.182017e-04 -6.028233e-04 5.649900e-04 -5.963196e-04 5.871775e-04 -4.874857e-04 5.639646e-04 -2.995920e-04 4.997254e-04 -2.813171e-05 4.415272e-04 3.494118e-04 4.654300e-04 8.844677e-04 7.095854e-04 1.689234e-03 1.396457e-03 3.011989e-03 3.152410e-03 5.831939e-03 6.231774e-03 2.921836e-03 -2.334191e-03 4.275277e-03 4.022669e-03 -5.029385e-04 6.228194e-03 3.674779e-03 6.645286e-04 8.205463e-03 4.653903e-03 -5.084147e-06 4.655984e-03 2.840953e-03 4.893274e-03 5.027915e-03 5.474128e-03 -9.655339e-03 -1.864781e-02 -1.469601e-02 -1.100289e-02 -7.216870e-03 -5.731823e-03 -3.460545e-03 -3.267966e-03 -1.540286e-03 -2.027734e-03 -5.957460e-04 -1.363211e-03 -1.951762e-04 -9.490210e-04 -9.611155e-05 -6.380065e-04 -1.552403e-04 -3.551776e-04 -2.648468e-04 -6.917927e-05 -3.713198e-04 1.875100e-04 -4.661217e-04 3.823957e-04 -5.219792e-04 5.057850e-04 -5.316122e-04 5.253931e-04 -5.056928e-04 4.487490e-04 -4.087714e-04 3.242004e-04 -2.291336e-04 1.573962e-04 -1.212581e-05 -5.931435e-05 2.005537e-04 -3.009421e-04 3.930625e-04 -5.083127e-04 5.723443e-04 -5.993451e-04 7.411031e-04 -5.040094e-04 8.796641e-04 -1.228206e-04 1.099408e-03 8.516659e-04 2.030818e-03 2.403086e-03 1.086339e-02 1.672275e-02 6.079759e-03 5.457946e-03 2.229779e-03 1.437904e-03 
-6.412415e-04 -2.004699e-03 -2.985003e-03 -4.243324e-03 -4.705140e-03 -5.833098e-03 -6.047644e-03 -4.712406e-03 -4.725509e-03 -6.856136e-03 -5.640290e-03 -1.175746e-02 -1.033368e-02 -1.910548e-04 5.805414e-05 -1.907913e-04 1.425928e-04 -1.495950e-04 1.803530e-04 -5.150663e-05 2.037885e-04 1.147672e-02 1.185631e-02 4.353801e-03 5.018782e-03 1.820098e-03 2.543186e-03 9.360525e-04 1.272675e-03 5.883154e-04 5.556911e-04 4.834741e-04 1.363150e-04 4.826475e-04 -1.116217e-04 5.069708e-04 -2.381755e-04 5.344406e-04 -2.495136e-04 5.588547e-04 -1.582406e-04 5.691190e-04 1.976319e-05 5.741392e-04 2.882948e-04 6.130262e-04 6.654605e-04 7.468026e-04 1.188021e-03 1.074595e-03 1.930693e-03 1.756374e-03 3.074069e-03 3.235207e-03 5.404562e-03 6.447459e-03 6.719944e-03 1.952633e-03 2.491884e-03 2.798113e-03 -8.426457e-06 2.028206e-03 1.065612e-03 -2.027509e-03 -8.458336e-04 -5.411638e-04 7.926878e-04 1.894542e-03 -2.150609e-03 -2.943693e-03 -2.966709e-03 2.293551e-03 -3.184343e-03 -7.334808e-03 -6.249185e-03 -4.925208e-03 -3.466220e-03 -3.015189e-03 -1.924083e-03 -2.010336e-03 -9.937984e-04 -1.420699e-03 -4.621557e-04 -1.051875e-03 -2.020023e-04 -7.862100e-04 -1.193284e-04 -5.621503e-04 -1.419477e-04 -3.455705e-04 -2.060461e-04 -1.255509e-04 -2.752289e-04 7.419736e-05 -3.381658e-04 2.285468e-04 -3.762753e-04 3.257695e-04 -3.817489e-04 3.469677e-04 -3.557868e-04 2.980790e-04 -2.773965e-04 2.080293e-04 -1.412171e-04 8.335304e-05 2.449192e-05 -7.668824e-05 1.923826e-04 -2.521266e-04 3.523019e-04 -3.984407e-04 5.117391e-04 -4.506625e-04 6.854634e-04 -3.325708e-04 8.973889e-04 9.005225e-05 1.267911e-03 1.142943e-03 2.121241e-03 3.254926e-03 3.874463e-03 7.089931e-03 3.944854e-03 3.794478e-03 1.836990e-03 8.035821e-04 
-1.994274e-04 -6.787761e-04 -1.055254e-03 -1.745284e-03 -1.873623e-03 -2.763717e-03 -2.902960e-03 -2.326152e-03 -2.535538e-03 -3.348471e-03 -2.752676e-03 -5.742222e-03 -4.902996e-03 -9.212143e-05 5.806417e-05 -1.259641e-04 1.097456e-04 -1.136238e-04 1.191364e-04 -5.254447e-05 1.012293e-04 5.914131e-03 5.998685e-03 2.163848e-03 2.384999e-03 8.812126e-04 1.106735e-03 4.485815e-04 4.863226e-04 2.948028e-04 1.640523e-04 2.589941e-04 -9.093846e-06 2.713838e-04 -9.498305e-05 3.002472e-04 -1.156193e-04 3.341044e-04 -7.517053e-05 3.698463e-04 2.513760e-05 4.087028e-04 1.852480e-04 4.609417e-04 4.089337e-04 5.468511e-04 7.007087e-04 6.918915e-04 1.061816e-03 9.224844e-04 1.487321e-03 1.260457e-03 1.964396e-03 1.726264e-03 2.512247e-03 2.353402e-03 2.664002e-03 1.235159e-03 1.710971e-03 1.774125e-03 1.213847e-03 1.962456e-03 1.671593e-03 1.399971e-03 2.019024e-03 1.735157e-03 1.146061e-03 1.648305e-03 4.638509e-04 8.619560e-04 -8.289295e-04 -4.831939e-04 -3.078278e-03 -4.062400e-03 -4.298220e-03 -4.062594e-03 -3.590487e-03 -3.304245e-03 -2.632431e-03 -2.496786e-03 -1.788086e-03 -1.839966e-03 -1.166108e-03 -1.351617e-03 -7.533882e-04 -9.915923e-04 -5.015164e-04 -7.166473e-04 -3.594540e-04 -4.944494e-04 -2.835935e-04 -3.071967e-04 -2.439432e-04 -1.521146e-04 -2.229720e-04 -3.236938e-05 -2.079959e-04 4.946420e-05 -1.910672e-04 9.143203e-05 -1.671775e-04 9.779570e-05 -1.298111e-04 7.784645e-05 -7.761917e-05 3.787494e-05 -1.723856e-05 -1.617924e-05 4.405880e-05 -7.257167e-05 1.035626e-04 -1.119418e-04 1.650467e-04 -1.072326e-04 2.408440e-04 -2.179036e-05 3.626994e-04 2.041320e-04 6.114688e-04 6.703767e-04 1.132890e-03 1.464065e-03 1.969440e-03 2.624407e-03 1.509892e-03 1.638985e-03 6.900539e-04 4.756572e-04 
-1.730825e-06 4.315547e-07 -1.501496e-06 4.617560e-06 -3.091035e-06 9.823547e-06 -6.518488e-06 1.404732e-05 -7.966924e-06 1.508195e-05 -9.490355e-06 1.409516e-05 -1.325046e-05 2.361975e-06 1.783463e-06 2.107785e-06 2.567421e-06 2.545676e-06 3.671036e-06 3.892152e-06 4.656367e-06 1.657055e-05 3.311516e-06 4.371601e-05 8.474576e-06 6.050236e-05 7.516542e-07 7.949946e-05 -1.335321e-05 1.002721e-04 -2.892439e-05 1.245902e-04 -3.667588e-05 1.539485e-04 -2.786628e-05 1.887559e-04 6.943599e-06 2.305284e-04 7.552631e-05 2.793035e-04 1.818183e-04 3.375378e-04 3.319514e-04 4.173408e-04 5.368642e-04 5.383535e-04 8.058242e-04 7.203026e-04 1.141235e-03 9.782974e-04 1.534315e-03 1.313576e-03 1.955677e-03 1.694484e-03 2.325892e-03 1.973382e-03 2.313277e-03 1.477637e-03 1.490919e-03 1.118906e-03 7.115269e-04 5.964524e-04 2.914425e-04 -7.985960e-05 -1.848960e-04 -1.952958e-04 -4.870523e-04 -2.096650e-04 -1.105939e-03 -7.013582e-04 -1.558574e-03 -7.405099e-04 -1.814390e-03 -1.706723e-03 -2.084215e-03 -1.754609e-03 -1.767093e-03 -1.484538e-03 -1.329243e-03 -1.174611e-03 -9.262596e-04 -9.126352e-04 -6.120572e-04 -7.150777e-04 -3.913226e-04 -5.692038e-04 -2.466149e-04 -4.556216e-04 -1.545800e-04 -3.579558e-04 -9.388850e-05 -2.675826e-04 -5.190014e-05 -1.862550e-04 -2.484108e-05 -1.192331e-04 -9.962772e-06 -6.842885e-05 -4.081502e-06 -3.349030e-05 -4.056966e-06 -1.047511e-05 -5.335053e-06 5.533502e-06 -6.987304e-06 1.515476e-05 -1.174963e-05 1.835641e-05 -2.032282e-05 1.720356e-05 -3.113480e-05 1.420383e-05 -4.112608e-05 1.225283e-05 -4.638506e-05 1.232369e-05 -4.601467e-05 1.154936e-05 -4.098886e-05 8.176394e-06 -3.084711e-05 2.493851e-06 -1.784801e-05 -4.254883e-06 -8.989789e-06 -4.626710e-06 -3.965850e-06 -2.724102e-06 
2.013167e-04 6.786197e-04 1.059156e-03 1.753207e-03 1.875569e-03 2.782204e-03 2.892764e-03 2.354180e-03 2.527608e-03 3.375044e-03 2.745128e-03 5.762406e-03 4.886668e-03 9.471889e-05 -5.562141e-05 1.268275e-04 -1.052585e-04 1.144258e-04 -1.121904e-04 5.620521e-05 -9.278636e-05 -5.844146e-03 -6.017100e-03 -2.043963e-03 -2.385356e-03 -7.366658e-04 -1.114773e-03 -2.753457e-04 -5.155693e-04 -8.958466e-05 -2.201637e-04 -1.527889e-05 -6.233409e-05 1.981553e-05 3.600114e-05 4.761222e-05 1.152720e-04 8.226891e-05 1.951562e-04 1.259926e-04 2.839472e-04 1.801454e-04 3.915394e-04 2.544602e-04 5.312874e-04 3.614067e-04 7.098521e-04 5.065955e-04 9.219187e-04 6.861220e-04 1.148107e-03 8.807611e-04 1.350864e-03 1.052883e-03 1.477316e-03 1.142941e-03 1.446628e-03 1.040163e-03 1.223769e-03 1.007239e-03 1.000524e-03 9.348302e-04 8.605957e-04 7.803293e-04 6.641125e-04 6.473879e-04 2.685580e-04 4.191523e-04 -2.229368e-04 2.586404e-05 -8.241122e-04 -5.506145e-04 -1.457892e-03 -1.259393e-03 -1.839545e-03 -1.533838e-03 -1.831762e-03 -1.493032e-03 -1.596990e-03 -1.299547e-03 -1.276442e-03 -1.070479e-03 -9.615038e-04 -8.675803e-04 -6.920855e-04 -7.082727e-04 -4.739082e-04 -5.875846e-04 -2.987672e-04 -4.934374e-04 -1.559283e-04 -4.149514e-04 -4.042177e-05 -3.485123e-04 4.507442e-05 -2.934116e-04 9.871930e-05 -2.449782e-04 1.221332e-04 -1.972286e-04 1.181635e-04 -1.446538e-04 9.090430e-05 -8.509929e-05 4.263542e-05 -2.205504e-05 -2.346933e-05 4.025121e-05 -9.952987e-05 9.571205e-05 -1.784170e-04 1.307036e-04 -2.572738e-04 1.242190e-04 -3.403818e-04 4.157401e-05 -4.576953e-04 -1.831020e-04 -6.920282e-04 -6.538205e-04 -1.187687e-03 -1.458529e-03 -1.990692e-03 -2.635361e-03 -1.519637e-03 -1.649964e-03 -6.926053e-04 -4.822903e-04 
6.471281e-04 2.002687e-03 2.990343e-03 4.249437e-03 4.707145e-03 5.856592e-03 6.025291e-03 4.751678e-03 4.708793e-03 6.893591e-03 5.621283e-03 1.178481e-02 1.029998e-02 1.946538e-04 -5.599635e-05 1.921531e-04 -1.387367e-04 1.510522e-04 -1.724888e-04 5.796327e-05 -1.896281e-04 -1.146296e-02 -1.182863e-02 -4.288841e-03 -4.981534e-03 -1.719244e-03 -2.522769e-03 -7.889893e-04 -1.297073e-03 -4.043627e-04 -6.466655e-04 -2.559459e-04 -2.774297e-04 -1.980784e-04 -4.987365e-05 -1.591884e-04 1.147571e-04 -1.039202e-04 2.464481e-04 -4.235407e-05 3.404613e-04 1.117506e-05 4.127719e-04 7.838247e-05 5.050447e-04 1.870239e-04 6.374960e-04 3.367303e-04 8.049629e-04 5.167403e-04 9.881209e-04 6.938729e-04 1.134482e-03 8.131250e-04 1.186236e-03 8.246820e-04 1.081368e-03 6.682980e-04 7.912124e-04 4.644833e-04 4.618146e-04 2.352173e-04 1.763874e-04 7.747016e-06 -1.017095e-04 -1.376757e-04 -3.669968e-04 -2.055764e-04 -6.156098e-04 -2.497086e-04 -8.080611e-04 -2.842079e-04 -9.383506e-04 -4.151802e-04 -1.005599e-03 -4.503663e-04 -9.548283e-04 -4.029551e-04 -8.110778e-04 -3.079090e-04 -6.203540e-04 -2.286669e-04 -4.443693e-04 -2.084765e-04 -3.003664e-04 -2.373904e-04 -1.716682e-04 -2.898612e-04 -4.397529e-05 -3.418518e-04 9.314921e-05 -3.729807e-04 2.317465e-04 -3.889023e-04 3.377518e-04 -4.017015e-04 3.927551e-04 -3.987913e-04 3.974349e-04 -3.658158e-04 3.533809e-04 -2.905114e-04 2.687009e-04 -1.710049e-04 1.400088e-04 -2.713153e-05 -3.260597e-05 1.309010e-04 -2.240533e-04 2.939307e-04 -4.178882e-04 4.226220e-04 -6.130344e-04 4.669215e-04 -8.010823e-04 3.601502e-04 -1.008728e-03 -5.738265e-05 -1.371341e-03 -1.118411e-03 -2.195372e-03 -3.246320e-03 -3.893391e-03 -7.123747e-03 -3.947061e-03 -3.811979e-03 -1.832706e-03 -8.127493e-04 
6.006587e-04 2.131366e-03 2.978006e-03 5.250236e-03 5.552114e-03 1.488926e-02 1.387378e-02 2.382574e-04 3.653539e-03 4.606427e-03 3.304876e-03 9.780197e-03 4.902844e-03 2.622397e-04 -3.400640e-04 5.840840e-04 -4.910468e-04 5.256600e-04 -4.928311e-04 2.858570e-04 -1.932416e-04 -6.361074e-03 -7.967436e-03 -2.641941e-03 -3.269455e-03 -9.383990e-04 -1.455847e-03 -3.481854e-04 -5.663043e-04 -1.648260e-04 -1.183302e-04 -1.547367e-04 1.177726e-04 -1.961111e-04 2.496944e-04 -2.234283e-04 3.485292e-04 -1.999342e-04 4.311858e-04 -1.573477e-04 4.653461e-04 -1.312100e-04 4.619381e-04 -9.226797e-05 4.809258e-04 -2.203272e-06 5.463852e-04 1.291216e-04 6.497131e-04 2.898490e-04 7.802098e-04 4.485053e-04 8.897982e-04 5.590786e-04 9.495744e-04 6.135806e-04 9.301853e-04 5.530423e-04 8.102491e-04 5.468429e-04 6.918873e-04 5.427585e-04 6.298723e-04 4.509927e-04 4.787976e-04 2.974262e-04 9.814307e-05 1.444985e-04 -2.407470e-04 6.843425e-05 -6.255805e-04 -1.520867e-04 -1.035970e-03 -4.711778e-04 -1.245278e-03 -5.540387e-04 -1.230188e-03 -4.990567e-04 -1.067697e-03 -3.654498e-04 -8.289454e-04 -2.530859e-04 -6.116924e-04 -2.295071e-04 -4.372571e-04 -2.745118e-04 -2.752811e-04 -3.510056e-04 -1.068848e-04 -4.276455e-04 8.345186e-05 -4.731687e-04 2.851002e-04 -4.993436e-04 4.419732e-04 -5.285526e-04 5.274819e-04 -5.380979e-04 5.458525e-04 -5.069629e-04 4.974693e-04 -4.170636e-04 3.960000e-04 -2.643259e-04 2.337024e-04 -8.172915e-05 8.019038e-06 1.202716e-04 -2.374982e-04 3.377659e-04 -4.761494e-04 5.163950e-04 -7.052752e-04 5.974501e-04 -8.890579e-04 5.287431e-04 -1.016103e-03 1.646619e-04 -1.227860e-03 -8.117818e-04 -2.119546e-03 -2.376668e-03 -1.079502e-02 -1.679711e-02 -6.070802e-03 -5.484802e-03 -2.219263e-03 -1.450625e-03 
1.297349e-03 5.208957e-03 7.603103e-03 1.437875e-02 2.247856e-02 2.071571e-02 1.311340e-02 -6.183078e-04 7.852138e-05 2.779000e-03 -2.954105e-04 4.949824e-03 1.213293e-03 3.736940e-04 -3.077813e-04 5.813481e-04 -4.674281e-04 4.971142e-04 -4.882079e-04 2.526513e-04 -2.581099e-04 -1.535931e-03 -3.522343e-03 -5.028357e-04 -1.981915e-03 -4.359483e-05 -1.085410e-03 8.691298e-05 -4.757514e-04 -3.089586e-05 -1.357955e-04 -2.365155e-04 8.439298e-05 -4.259077e-04 2.040486e-04 -5.331706e-04 3.639169e-04 -4.325361e-04 5.683100e-04 -3.065000e-04 5.809858e-04 -3.492761e-04 4.046846e-04 -4.132017e-04 2.946806e-04 -3.326361e-04 2.887546e-04 -2.093265e-04 3.177201e-04 -4.132714e-05 4.229918e-04 1.065184e-04 4.335660e-04 7.530506e-05 3.390609e-04 -2.379069e-06 2.474879e-04 -1.307792e-04 1.379898e-04 -1.277804e-04 1.522668e-04 3.159460e-05 3.112059e-04 1.236776e-04 2.963009e-04 4.335872e-05 -2.239991e-05 4.896000e-06 -1.277913e-04 2.977505e-04 -1.265170e-04 5.193704e-04 -2.501148e-04 5.091397e-04 -4.097071e-04 4.537060e-04 -5.899630e-04 4.088093e-04 -5.528593e-04 5.764126e-04 -2.957173e-04 6.851359e-04 -1.603978e-04 5.105101e-04 -1.452524e-04 2.090026e-04 -8.498580e-05 -1.114062e-04 3.807116e-05 -4.035711e-04 2.847844e-04 -5.426377e-04 6.576299e-04 -6.152931e-04 9.171582e-04 -7.638365e-04 1.009528e-03 -8.688796e-04 1.004917e-03 -8.862267e-04 8.802426e-04 -7.617405e-04 7.189422e-04 -4.508880e-04 4.531995e-04 -1.198558e-04 -9.480359e-07 2.433595e-04 -4.597321e-04 7.378222e-04 -8.715827e-04 1.189310e-03 -1.348345e-03 1.483440e-03 -1.753032e-03 1.728895e-03 -1.921028e-03 1.867670e-03 -1.843594e-03 1.760163e-03 -1.413188e-03 1.288920e-03 -8.387272e-03 -4.266485e-02 -2.192735e-02 -8.406578e-03 -5.071729e-03 -9.345851e-04 
2.020761e-03 4.111884e-03 1.005487e-02 1.349271e-02 3.060692e-02 -2.110810e-03 -1.090875e-02 3.613085e-03 -5.321452e-03 8.062841e-04 -4.744951e-03 -3.010647e-03 -4.938749e-03 4.795078e-03 -1.334001e-03 2.256314e-03 -1.257400e-03 1.404578e-03 -1.829678e-03 8.418035e-04 -3.360668e-03 3.783833e-03 4.115004e-03 2.212714e-03 1.967061e-03 1.083346e-03 1.277807e-03 5.739771e-04 1.036434e-03 1.399032e-04 8.568490e-04 -2.195465e-04 7.581419e-04 -4.735063e-04 6.629220e-04 -5.889643e-04 7.092151e-04 -4.158726e-04 8.717633e-04 -2.163535e-04 8.038990e-04 -2.629518e-04 4.954541e-04 -3.544986e-04 2.876491e-04 -2.653893e-04 2.227086e-04 -1.380085e-04 2.011446e-04 3.634732e-05 2.820678e-04 1.718708e-04 2.250723e-04 4.908572e-05 2.295019e-05 -1.239987e-04 -9.922490e-05 -2.168194e-04 -1.339057e-04 -2.498624e-04 2.629737e-06 -6.609344e-05 1.803375e-04 6.992855e-05 7.339357e-05 -1.113418e-04 -2.111697e-04 -2.656409e-04 -2.569106e-04 -6.310981e-05 -2.960469e-05 3.272130e-04 1.307230e-04 6.527017e-04 -1.879241e-05 6.089459e-04 -4.177103e-04 5.105360e-04 -5.308652e-04 7.311154e-04 -2.953746e-04 9.046864e-04 -1.800629e-04 7.069262e-04 -1.922359e-04 3.386164e-04 -1.211775e-04 -6.699568e-05 3.727539e-05 -4.526639e-04 3.566178e-04 -6.419191e-04 8.392456e-04 -7.469398e-04 1.156591e-03 -9.555818e-04 1.241864e-03 -1.093767e-03 1.197402e-03 -1.099795e-03 9.918635e-04 -8.984338e-04 7.453766e-04 -4.264930e-04 3.645213e-04 8.031318e-05 -2.704497e-04 6.325444e-04 -9.049670e-04 1.360647e-03 -1.467945e-03 2.011954e-03 -2.113870e-03 2.416903e-03 -2.644983e-03 2.711862e-03 -2.805083e-03 2.770397e-03 -2.434129e-03 2.217722e-03 -5.214743e-04 -5.274847e-04 1.161393e-02 -3.634051e-02 -2.270788e-02 -5.503421e-03 -4.818572e-03 -4.748628e-04 
2.147228e-03 1.968553e-03 6.022928e-03 4.323235e-03 1.400716e-02 -1.209937e-02 -1.662978e-02 9.779819e-03 -2.559933e-03 8.001937e-03 -4.150684e-04 1.075939e-02 5.441229e-04 -6.037272e-03 -2.606945e-03 -1.693723e-03 -3.250879e-04 -2.263890e-04 2.649512e-03 1.263384e-03 7.878289e-03 -3.513780e-03 -6.232710e-03 -2.203091e-03 -2.910525e-03 -1.064969e-03 -1.464639e-03 -6.204719e-04 -6.648622e-04 -4.590881e-04 -2.492461e-04 -4.169926e-04 -1.636972e-05 -4.001451e-04 1.076987e-04 -3.551311e-04 2.289059e-04 -2.112577e-04 3.574387e-04 -7.538605e-05 3.639578e-04 -5.963149e-05 2.542119e-04 -8.003409e-05 1.795630e-04 -3.571337e-05 1.737834e-04 2.712925e-05 2.031040e-04 1.089784e-04 2.799548e-04 1.654985e-04 2.957863e-04 1.059759e-04 2.440023e-04 2.589357e-05 2.366003e-04 9.407704e-06 2.536473e-04 2.719316e-05 3.265890e-04 8.882833e-05 3.535970e-04 1.421750e-04 2.578757e-04 1.425116e-04 2.422634e-04 2.205924e-04 1.267120e-04 2.677054e-04 7.161418e-05 4.058193e-04 1.921188e-05 4.119841e-04 -2.538997e-04 2.355944e-04 -5.733129e-04 1.125230e-04 -6.712612e-04 1.865577e-04 -5.442683e-04 2.707205e-04 -4.161255e-04 1.968767e-04 -3.207688e-04 2.636999e-05 -1.874762e-04 -1.816972e-04 -1.511338e-05 -3.880607e-04 2.218674e-04 -5.117960e-04 5.109018e-04 -5.924175e-04 7.057607e-04 -6.992369e-04 7.671714e-04 -7.550977e-04 7.319004e-04 -7.211237e-04 5.921716e-04 -5.565024e-04 3.984039e-04 -2.364243e-04 1.153206e-04 1.366694e-04 -2.998722e-04 5.495329e-04 -7.369212e-04 1.029031e-03 -1.150610e-03 1.443748e-03 -1.576569e-03 1.683857e-03 -1.904653e-03 1.731927e-03 -1.997854e-03 1.379486e-03 -1.765955e-03 1.312071e-05 -8.138586e-04 -4.795710e-03 1.292330e-02 -7.785134e-03 -6.275436e-03 -2.937270e-04 -7.980293e-04 7.028178e-04 
1.140159e-03 6.659322e-04 3.079098e-03 1.221083e-03 5.069749e-03 -3.541296e-03 -4.547080e-03 4.621219e-03 1.211610e-03 5.462931e-03 5.102560e-03 1.117726e-02 1.545028e-02 1.655930e-02 6.517378e-03 5.200805e-03 2.097751e-03 -1.763296e-03 -3.782147e-03 -7.689977e-03 -1.665057e-02 -1.611218e-02 -9.528019e-03 -6.000196e-03 -3.565380e-03 -2.489914e-03 -1.394755e-03 -1.057502e-03 -4.854531e-04 -4.667369e-04 -1.250200e-04 -2.272763e-04 1.258903e-05 -1.189964e-04 6.817093e-05 -4.496079e-05 1.141481e-04 3.710762e-05 1.662629e-04 1.064299e-04 1.980740e-04 1.378970e-04 2.184083e-04 1.622964e-04 2.819973e-04 2.289359e-04 4.265556e-04 3.598155e-04 6.672355e-04 5.734129e-04 1.008485e-03 8.622537e-04 1.408022e-03 1.178168e-03 1.781514e-03 1.395323e-03 1.814539e-03 9.918483e-04 1.469862e-03 9.196245e-04 1.133024e-03 9.909798e-04 1.283726e-03 7.809796e-04 1.299166e-03 3.641398e-04 -5.678462e-05 -3.240823e-04 -5.778354e-04 -2.713025e-04 -1.361029e-03 -1.085804e-03 -2.658483e-03 -2.137313e-03 -2.829245e-03 -1.806314e-03 -2.199241e-03 -1.183103e-03 -1.502560e-03 -6.495300e-04 -9.290828e-04 -3.124584e-04 -5.305871e-04 -1.744018e-04 -2.739543e-04 -1.684986e-04 -9.600059e-05 -2.268085e-04 4.678977e-05 -2.977885e-04 1.846869e-04 -3.442170e-04 3.171669e-04 -3.719488e-04 4.047820e-04 -3.974887e-04 4.303681e-04 -4.027622e-04 4.011172e-04 -3.682468e-04 3.232470e-04 -2.743904e-04 2.121850e-04 -1.144587e-04 6.203529e-05 8.352798e-05 -1.348177e-04 3.030307e-04 -3.505417e-04 5.326516e-04 -5.622361e-04 7.264461e-04 -7.546027e-04 8.354902e-04 -8.758248e-04 8.083185e-04 -8.629184e-04 5.047903e-04 -6.595650e-04 -4.112004e-04 -2.177430e-04 -3.163716e-03 3.507657e-03 -2.201874e-03 -1.405859e-03 -1.297563e-03 -4.546412e-04 -2.508533e-04 
