# vtk DataFile Version 2.0
Comment goes here
ASCII

DATASET STRUCTURED_POINTS
FIELD FieldData 1
TIME 1 1 double
0.07100000
DIMENSIONS    64   64   1

ORIGIN    0.000   0.000   0.000
SPACING   0.03125 0.03125   1.000

POINT_DATA   4096
SCALARS Omega double
LOOKUP_TABLE default

-1.482139e-01 -9.803003e-03 -1.776592e-01 -3.783172e-01 -2.503048e-01 1.758836e-01 -1.552362e-01 -9.428046e-02 -1.354055e-01 -9.058669e-02 -7.206400e-02 -6.122620e-02 -5.419712e-03 -1.022495e-03 7.044617e-02 5.116368e-02 1.587024e-01 9.050694e-02 2.836308e-01 1.096478e-01 3.590882e-01 8.146035e-02 4.567786e-01 2.324650e-01 4.361733e-01 2.436477e-01 4.240591e-01 3.300981e-01 3.619549e-01 2.816695e-01 3.593386e-01 2.627120e-01 3.661539e-01 2.409166e-01 3.945949e-01 2.313860e-01 3.890944e-01 2.200925e-01 3.521813e-01 3.049491e-01 3.177309e-01 2.795750e-01 3.156614e-01 3.414209e-01 2.329304e-01 2.699369e-01 2.089313e-01 2.258708e-01 1.350814e-01 1.663768e-01 9.027600e-02 1.291636e-01 1.684829e-02 8.111042e-02 -3.970527e-02 2.872869e-02 -7.104105e-02 -1.791074e-02 -9.788154e-02 -4.841648e-02 -1.203880e-01 -8.064304e-02 -9.939087e-02 -1.181243e-01 
-2.156295e+01 -3.575032e+01 -1.806614e+01 -3.392632e+01 -2.133568e+01 -3.227699e+01 -2.413539e+01 -3.150343e+01 -2.875201e+01 -3.119844e+01 -3.239825e+01 -2.953328e+01 -3.629679e+01 -2.683255e+01 -4.059023e+01 -2.324969e+01 -4.556235e+01 -1.880532e+01 -5.097162e+01 -1.389933e+01 -5.674116e+01 -8.249554e+00 -6.338739e+01 -1.885513e+00 -7.055113e+01 4.929884e+00 -7.738914e+01 1.081396e+01 -8.300610e+01 1.531014e+01 -8.682775e+01 1.797498e+01 -8.911381e+01 1.957549e+01 -9.078781e+01 2.079279e+01 -9.232045e+01 2.195967e+01 -9.358958e+01 2.265912e+01 -9.406400e+01 2.246361e+01 -9.340383e+01 2.092847e+01 -9.113562e+01 1.765170e+01 -8.656835e+01 1.245171e+01 -8.036584e+01 6.305077e+00 -7.336254e+01 -4.334530e-01 -6.554735e+01 -7.806724e+00 -5.674333e+01 -1.585174e+01 -4.722223e+01 -2.416070e+01 -3.734675e+01 -3.237717e+01 -2.741539e+01 -4.003750e+01 -1.620069e+01 -4.759387e+01 
-6.278268e+01 -2.545252e+00 -5.103637e+01 4.849175e+00 -7.772508e+00 4.763998e+00 -5.946368e+01 -1.316249e+00 -7.727243e+01 -1.775102e+00 -8.876578e+01 -2.384880e+00 -9.665454e+01 -3.314959e+00 -1.024449e+02 -4.608511e+00 -1.064345e+02 -6.455385e+00 -1.092188e+02 -8.358522e+00 -1.110749e+02 -1.055639e+01 -1.116328e+02 -1.353170e+01 -1.111253e+02 -1.679355e+01 -1.102189e+02 -1.953136e+01 -1.096265e+02 -2.142465e+01 -1.096576e+02 -2.234813e+01 -1.102572e+02 -2.293973e+01 -1.107128e+02 -2.354710e+01 -1.107031e+02 -2.437748e+01 -1.102856e+02 -2.512798e+01 -1.099241e+02 -2.541755e+01 -1.096044e+02 -2.529426e+01 -1.094886e+02 -2.410973e+01 -1.100934e+02 -2.193087e+01 -1.107574e+02 -1.939307e+01 -1.108186e+02 -1.664545e+01 -1.102212e+02 -1.352982e+01 -1.091110e+02 -9.891024e+00 -1.072244e+02 -5.927115e+00 -1.042134e+02 -1.493280e+00 -9.967680e+01 3.285270e+00 -9.766095e+01 1.102913e+01 
-3.006416e+01 7.725400e-01 -2.808181e+01 9.122712e+00 -3.941675e+01 4.757450e+00 -2.177244e+01 1.182919e+01 -3.373254e+01 1.020347e+01 -4.084419e+01 8.070921e+00 -4.530578e+01 5.731601e+00 -4.817254e+01 3.182514e+00 -4.980412e+01 4.272074e-01 -5.054926e+01 -2.272032e+00 -5.055971e+01 -5.333707e+00 -4.968081e+01 -8.308134e+00 -4.800244e+01 -1.154811e+01 -4.629148e+01 -1.424946e+01 -4.480845e+01 -1.627514e+01 -4.392484e+01 -1.724310e+01 -4.347299e+01 -1.758616e+01 -4.303099e+01 -1.778237e+01 -4.240953e+01 -1.810817e+01 -4.158554e+01 -1.827745e+01 -4.104406e+01 -1.805682e+01 -4.070292e+01 -1.735070e+01 -4.082543e+01 -1.596317e+01 -4.178635e+01 -1.369249e+01 -4.319817e+01 -1.116698e+01 -4.449314e+01 -8.641759e+00 -4.565331e+01 -5.942811e+00 -4.690179e+01 -3.022002e+00 -4.795644e+01 5.173731e-02 -4.838120e+01 3.082888e+00 -4.800040e+01 7.277976e+00 -5.048780e+01 1.123465e+01 
-3.728773e+00 2.300120e+00 -3.707725e+00 -8.299893e+00 -6.164659e+01 -2.789073e+00 9.137004e+00 1.155161e+00 1.973708e+00 7.366714e-01 -4.586942e-01 3.886028e-01 -1.386899e+00 1.591336e-01 -1.800543e+00 -1.004072e-02 -1.999253e+00 -1.191175e-01 -2.126659e+00 -1.958913e-01 -2.212731e+00 -2.584643e-01 -2.197483e+00 -2.344019e-01 -2.232983e+00 -2.258647e-01 -2.218321e+00 -2.385963e-01 -2.137497e+00 -3.070720e-01 -2.007534e+00 -3.951084e-01 -1.825644e+00 -4.522600e-01 -1.639312e+00 -5.032686e-01 -1.452305e+00 -5.843959e-01 -1.268919e+00 -7.372155e-01 -1.125545e+00 -9.003505e-01 -9.833844e-01 -1.022540e+00 -8.043471e-01 -1.084469e+00 -6.413490e-01 -1.049442e+00 -4.925850e-01 -9.274249e-01 -4.082045e-01 -7.454202e-01 -3.948639e-01 -4.879351e-01 -4.413323e-01 -1.631205e-01 -5.608326e-01 2.282884e-01 -7.833373e-01 6.640276e-01 -1.117964e+00 1.290314e+00 -1.920997e+00 3.003373e+00 
-3.070250e+00 2.330758e+00 -3.413006e+00 -7.852708e+00 -8.169755e+01 -4.570535e+00 7.329220e+00 -1.349013e+00 4.252705e+00 -1.349722e-01 2.101812e+00 -4.205331e-02 1.022366e+00 -8.237482e-02 5.094982e-01 -1.050332e-01 2.704420e-01 -1.157029e-01 1.388408e-01 -1.461265e-01 4.999290e-02 -1.114878e-01 3.815454e-02 -1.208757e-01 2.015221e-03 -9.751963e-02 -3.126628e-02 -6.443771e-02 1.236698e-02 -3.112308e-02 -1.987745e-02 -2.630158e-02 -4.773911e-02 4.022015e-03 -5.247294e-02 1.028157e-02 -6.636771e-02 1.452862e-02 -3.492620e-02 3.687560e-02 -5.701094e-02 4.206177e-02 -8.923844e-02 6.226494e-02 -5.383447e-02 5.817821e-02 -7.825479e-02 5.493608e-02 -1.075461e-01 9.870541e-02 -1.008789e-01 1.470853e-01 -1.602405e-01 2.345517e-01 -2.625685e-01 4.044039e-01 -4.205057e-01 6.589758e-01 -6.861309e-01 1.039934e+00 -1.169355e+00 1.415046e+00 -1.831504e+00 2.079926e+00 
-2.968813e+00 1.456516e+00 -1.776868e+00 -9.088951e+00 -9.196372e+01 -2.929136e+00 5.511767e+00 -1.810554e+00 4.082579e+00 -5.663907e-01 2.260907e+00 -2.451403e-01 1.149637e+00 -1.822707e-01 6.040791e-01 -1.918958e-01 3.717457e-01 -1.792174e-01 2.218973e-01 -2.152679e-01 1.241015e-01 -1.894938e-01 1.825467e-01 -1.499825e-01 1.155284e-01 -1.124408e-01 8.699234e-02 -3.847403e-02 1.279752e-01 -6.146683e-03 8.486201e-02 3.635079e-03 7.636555e-02 4.183415e-02 1.854825e-02 6.155721e-02 -1.939962e-02 7.561318e-02 3.994443e-02 7.617876e-02 -3.621795e-02 7.919765e-02 -8.487543e-02 1.118851e-01 -6.824337e-02 1.063792e-01 -1.026413e-01 1.033275e-01 -9.639754e-02 1.429069e-01 -1.630246e-01 2.145888e-01 -2.692338e-01 3.521317e-01 -3.954976e-01 5.486863e-01 -5.876493e-01 7.913096e-01 -9.001424e-01 1.095230e+00 -1.380394e+00 1.451285e+00 -2.077704e+00 1.798322e+00 
-2.730427e+00 1.102871e+00 -1.284733e+00 -7.933402e+00 -1.039756e+02 -2.441126e+00 2.903408e+00 -2.709786e+00 3.140731e+00 -1.195589e+00 2.207908e+00 -5.145181e-01 1.250918e+00 -3.016783e-01 6.793569e-01 -2.912676e-01 4.193651e-01 -2.413092e-01 2.699366e-01 -3.278986e-01 1.172701e-01 -2.891420e-01 1.958968e-01 -1.981956e-01 9.236905e-02 -1.912472e-01 5.278063e-03 -8.094339e-02 1.193616e-01 -7.175454e-02 4.528026e-02 -8.913370e-02 -4.425175e-03 3.200605e-02 -1.736869e-03 4.788624e-02 -6.557508e-02 5.795590e-02 7.850180e-03 1.135338e-01 -4.989655e-02 9.623031e-02 -1.456815e-01 1.724548e-01 -3.402504e-02 1.593512e-01 -8.512725e-02 1.259127e-01 -1.361912e-01 2.488301e-01 -5.793647e-02 2.880041e-01 -1.593497e-01 4.080416e-01 -2.997388e-01 6.541945e-01 -5.007962e-01 9.619307e-01 -8.196661e-01 1.304844e+00 -1.291703e+00 1.657074e+00 -1.927311e+00 2.020582e+00 
-2.157399e+00 6.174269e-01 2.387344e-01 -8.218971e+00 -1.091939e+02 -1.340785e+00 1.860940e+00 -2.497359e+00 2.141780e+00 -1.415243e+00 1.789134e+00 -6.637601e-01 1.062847e+00 -3.513823e-01 5.928402e-01 -4.039276e-01 3.999757e-01 -3.485237e-01 2.553353e-01 -5.019966e-01 1.122661e-01 -3.442380e-01 3.161210e-01 -2.284154e-01 1.125444e-01 -2.370868e-01 5.772315e-02 -4.990697e-02 1.797024e-01 -4.958812e-02 6.584255e-02 -6.606971e-02 1.055766e-01 3.873229e-02 -2.002166e-02 5.927595e-02 -9.624602e-02 1.321784e-01 1.071272e-01 1.191222e-01 -9.172969e-02 8.934337e-02 -1.525580e-01 2.087013e-01 -6.370788e-02 1.721859e-01 -1.374617e-01 1.339978e-01 -3.597161e-02 1.860647e-01 -1.359558e-01 2.455206e-01 -2.637095e-01 4.447340e-01 -3.745915e-01 7.174872e-01 -5.652072e-01 1.008939e+00 -8.690539e-01 1.316215e+00 -1.283580e+00 1.632477e+00 -1.790991e+00 1.860255e+00 
-1.681467e+00 2.866623e-01 1.034069e+00 -7.476022e+00 -1.164885e+02 -8.088569e-01 7.933403e-01 -2.768629e+00 1.145088e+00 -1.836536e+00 1.342703e+00 -8.461062e-01 8.681693e-01 -3.155120e-01 4.623529e-01 -4.693598e-01 2.852870e-01 -4.777670e-01 2.886669e-01 -7.479521e-01 1.023759e-01 -4.463429e-01 3.438045e-01 -2.126531e-01 9.066607e-02 -3.599701e-01 -7.170015e-02 -3.946220e-02 2.347160e-01 -1.194854e-01 6.160124e-02 -2.126285e-01 -2.864110e-02 1.219810e-01 1.236337e-02 3.076965e-02 -1.195392e-01 9.835669e-02 5.274536e-02 2.202583e-01 -7.333180e-02 4.163334e-02 -2.773543e-01 3.364787e-01 1.738874e-02 2.345661e-01 -1.138426e-01 4.922718e-02 -2.487462e-01 3.513516e-01 5.390540e-02 1.989956e-01 -7.290960e-02 3.880587e-01 -2.032576e-01 7.824130e-01 -4.178539e-01 1.123426e+00 -7.309206e-01 1.413799e+00 -1.111359e+00 1.683561e+00 -1.532847e+00 1.810070e+00 
-1.031164e+00 -1.171915e-01 2.242687e+00 -7.226985e+00 -1.184904e+02 -9.134882e-02 4.395537e-01 -2.570945e+00 3.140562e-01 -1.951949e+00 7.665235e-01 -8.380202e-01 5.147653e-01 5.377313e-02 2.603181e-01 -2.656532e-01 7.896902e-02 -9.897081e-01 2.071403e-01 -1.184572e+00 1.583999e-01 -2.770013e-01 5.567227e-01 -2.752244e-01 -4.260401e-03 -3.711181e-01 6.463776e-03 -5.737184e-02 2.979839e-01 -1.509767e-01 3.943395e-02 1.305604e-02 1.832033e-01 -1.766418e-02 -1.399057e-01 -5.959767e-02 -1.930373e-01 3.670873e-01 3.035761e-01 1.199727e-01 -2.471451e-01 6.917261e-02 -2.443558e-01 3.575828e-01 -1.781539e-02 2.346107e-01 -2.405740e-01 2.276029e-01 8.124999e-02 7.040882e-02 -1.015042e-01 6.476196e-02 -1.590930e-01 4.611155e-01 -1.894875e-01 8.590248e-01 -3.990990e-01 1.152835e+00 -6.948620e-01 1.394091e+00 -1.000114e+00 1.619480e+00 -1.263310e+00 1.651621e+00 
-5.112863e-01 -4.689076e-01 3.041713e+00 -6.680934e+00 -1.223997e+02 4.732992e-01 1.603113e-01 -2.716874e+00 -2.475025e-01 -2.425803e+00 4.057703e-01 -1.048694e+00 2.764492e-01 6.807444e-01 -2.570411e-02 7.879561e-01 -7.350802e-01 -2.438249e+00 3.740478e-01 -1.443088e+00 3.776279e-01 8.354811e-02 4.176886e-01 -4.491021e-01 -2.037473e-03 -1.968201e-01 -2.257750e-01 -2.844051e-01 4.043214e-01 -3.974103e-01 2.171523e-01 2.160982e-01 -2.412784e-01 -1.207473e-01 -4.340605e-02 -1.955564e-01 5.997988e-03 5.639302e-01 -4.063395e-02 1.235592e-01 -1.244094e-01 -4.695065e-02 -4.440874e-01 5.477895e-01 1.164189e-01 2.278562e-01 -5.569040e-02 2.119323e-01 -7.448900e-01 3.034216e-01 2.030476e-01 -5.688170e-01 2.861577e-01 3.354247e-01 1.238964e-01 1.043696e+00 -2.551156e-01 1.284130e+00 -5.956985e-01 1.428149e+00 -8.438618e-01 1.582828e+00 -9.935839e-01 1.511874e+00 
9.494764e-02 -8.288318e-01 3.906510e+00 -6.149626e+00 -1.219746e+02 9.379392e-01 5.175789e-02 -2.707711e+00 -7.992419e-01 -2.901724e+00 -1.203116e-01 -1.674735e+00 5.117570e-02 9.254814e-01 4.036242e-01 3.014973e+00 -2.534678e+00 -4.966531e+00 6.653692e-01 -1.182708e+00 1.028848e+00 2.028073e+00 4.474351e-01 -1.780863e+00 -2.235552e-02 1.921907e+00 -4.272597e-01 -1.948199e+00 6.103946e-01 -8.554189e-01 6.075197e-01 3.206586e+00 -3.315638e-01 -2.365516e+00 -3.725265e-01 -9.382653e-02 9.823437e-02 2.078294e+00 3.445638e-01 -1.101022e+00 -2.969558e-01 1.591047e+00 -6.140829e-01 -8.195783e-01 2.497509e-01 2.123711e-01 -2.905817e-02 2.401638e+00 -4.257130e-01 -1.690190e+00 4.436684e-02 -3.576301e-01 3.639002e-01 6.629575e-01 2.535264e-01 1.222279e+00 -2.372417e-01 1.328587e+00 -5.769241e-01 1.386261e+00 -7.276689e-01 1.493300e+00 -7.132526e-01 1.338381e+00 
5.952459e-01 -1.181087e+00 4.554693e+00 -5.620415e+00 -1.230753e+02 1.479819e+00 1.832165e-02 -2.744394e+00 -1.040683e+00 -3.775391e+00 -1.567920e-01 -3.378382e+00 3.766595e-01 -1.879044e+00 2.274187e+00 2.189270e-01 -6.402152e+00 -6.191302e-01 4.543292e+00 4.816415e+00 2.118364e+00 3.172325e+00 -2.031337e-01 -3.116707e+00 1.686906e+00 7.527814e+00 -2.565256e+00 -2.883440e+00 1.403058e+00 -3.388067e+00 2.633437e+00 8.121925e+00 -3.335144e+00 -5.490138e+00 -6.876355e-02 7.368988e-02 1.565481e+00 3.939761e+00 -1.446500e+00 -4.688220e+00 8.091796e-01 4.945211e+00 -1.561823e+00 -2.249326e+00 2.576996e-01 -2.851887e+00 1.993143e+00 9.724783e+00 -4.831906e+00 -4.990953e+00 5.388994e-02 -3.306508e+00 1.956787e+00 1.604045e+00 5.743445e-01 1.807738e+00 -4.580625e-01 1.359801e+00 -6.773679e-01 1.296660e+00 -6.387543e-01 1.385778e+00 -4.649241e-01 1.153292e+00 
1.130414e+00 -1.495677e+00 5.065682e+00 -4.800248e+00 -1.206792e+02 1.667382e+00 -5.407509e-02 -2.456290e+00 -1.381098e+00 -3.910670e+00 -1.000544e+00 -5.511057e+00 -3.484807e-01 -1.345053e+01 1.012748e+01 -2.348335e+01 -4.721296e+00 3.489047e+01 3.512323e+01 3.827876e+01 4.576454e+00 -1.137175e+01 9.652515e+00 1.880814e+01 1.297722e+01 1.464353e+01 -5.440783e+00 4.092550e+00 1.728185e+01 1.340514e+01 8.568657e+00 -3.321450e+00 1.641950e+00 8.945329e+00 1.021191e+01 1.322209e+01 1.734343e+00 -9.535154e+00 1.190718e+01 5.182518e+00 7.022937e+00 7.632058e+00 -2.887970e+00 1.149395e+00 1.082079e+01 -6.163376e-02 3.804608e+00 -2.245749e+00 4.427004e+00 -2.904593e+00 2.900315e+00 -8.465078e+00 1.086330e+00 2.484612e+00 6.499515e-01 2.421600e+00 -7.134202e-01 1.333858e+00 -7.645481e-01 1.155096e+00 -5.316838e-01 1.243558e+00 -1.913815e-01 9.467395e-01 
1.601481e+00 -1.740978e+00 5.423801e+00 -3.961576e+00 -1.192924e+02 2.096603e+00 -2.449635e-01 -1.779528e+00 -1.870814e+00 -3.803545e+00 -1.038531e+00 -8.824348e+00 4.040368e+00 -2.715740e+01 2.417338e+01 -4.619334e+01 1.857027e+01 9.313023e+01 7.529208e+01 5.726862e+01 1.804984e+01 -3.827434e+01 3.604373e+01 8.462548e+01 4.363896e+01 4.429171e+00 5.688954e+00 3.618754e+01 6.879104e+01 8.293222e+01 3.713852e+01 -3.170301e+01 1.184291e+01 8.097463e+01 5.587187e+01 4.590867e+01 1.972335e+01 -3.631443e+01 3.276156e+01 7.342142e+01 4.933465e+01 1.400078e+01 4.028016e+00 2.621700e+01 6.112034e+01 6.693876e+01 4.185909e+01 -2.404684e+01 4.382690e+00 5.912426e+01 5.224906e+01 5.340025e+01 8.982061e+00 9.630016e+00 -3.283293e+00 5.022965e-01 -2.191361e+00 4.520031e-01 -9.384036e-01 9.122586e-01 -3.764592e-01 1.126888e+00 8.668431e-02 7.546892e-01 
2.044589e+00 -1.866497e+00 5.584280e+00 -3.060840e+00 -1.152953e+02 1.911153e+00 -1.398854e-01 -1.533634e+00 -1.250793e+00 -2.698030e+00 7.356933e-01 -4.809810e+00 5.527142e+00 -9.784314e+00 1.300381e+01 -2.108589e+01 1.945797e+01 3.140698e+01 2.419649e+01 -6.566906e+00 1.110206e+01 -1.964542e+01 4.345594e+01 5.402820e+01 2.063569e+01 -2.514458e+01 1.759809e+01 4.984760e+01 5.720383e+01 5.663115e+01 1.707916e+01 -3.942749e+01 3.982415e+01 1.013311e+02 3.440666e+01 1.647673e+01 4.170523e+00 -2.539349e+01 6.404571e+01 9.930633e+01 2.110485e+01 -2.223879e+01 1.621878e+01 6.595203e+01 7.332639e+01 8.279601e+01 2.107735e+01 -4.637726e+01 4.639771e+01 1.457613e+02 4.620939e+01 6.349545e+01 -7.491928e+00 4.300837e+00 -6.777780e+00 -2.095964e+00 -2.563657e+00 -5.112948e-01 -7.239258e-01 5.916605e-01 -1.095883e-01 9.763623e-01 3.927886e-01 5.703766e-01 
2.423648e+00 -1.918680e+00 5.662077e+00 -2.298688e+00 -1.119754e+02 1.944627e+00 1.207908e-01 -9.834124e-01 -9.421173e-01 -1.459653e-01 -3.717911e-01 5.188395e+00 -2.410457e+00 2.060367e+01 -1.804963e+01 4.017537e+01 -2.620612e+01 -1.109298e+02 -6.384292e+01 -4.958699e+01 -1.167154e+00 2.323595e+01 -5.051462e+01 -9.237686e+01 -1.664310e+01 1.502928e+01 -1.237874e+01 -5.663952e+01 -5.769031e+01 -6.443388e+01 -1.028041e+01 3.123846e+01 -3.424828e+01 -8.555884e+01 -2.491570e+01 -1.006635e+01 -2.237525e+00 1.473499e+01 -4.623111e+01 -6.162686e+01 -1.294366e+01 2.073132e+01 -1.526209e+01 -4.157021e+01 -3.827666e+01 -2.927663e+01 -1.202572e+01 2.337689e+01 -2.444817e+01 -4.530962e+01 -1.042404e+01 -3.533130e+00 -1.050306e+00 3.207516e+00 4.155619e-01 2.075733e+00 2.042064e-01 1.208398e+00 1.176117e-01 1.030832e+00 2.312924e-01 9.996675e-01 6.793403e-01 4.150223e-01 
2.694120e+00 -1.783444e+00 5.536083e+00 -1.529551e+00 -1.064713e+02 1.846855e+00 -1.038028e-02 -1.102061e+00 -1.331775e+00 -7.134091e-01 -1.649659e+00 4.551604e+00 -6.704604e+00 2.366238e+01 -2.680084e+01 3.370681e+01 -1.171893e+00 -4.682086e+01 -6.764773e+01 -5.059124e+01 -2.981398e+01 3.172523e+01 -2.720081e+01 -6.497458e+01 -5.247144e+01 -1.149664e+01 -6.825706e+00 -3.416545e+01 -7.041250e+01 -8.094447e+01 -4.116331e+01 3.433933e+01 -1.691339e+01 -9.424803e+01 -5.968151e+01 -4.409164e+01 -1.924380e+01 3.936253e+01 -4.604967e+01 -9.752533e+01 -4.891577e+01 6.592888e-01 -1.003974e+01 -4.845207e+01 -7.888515e+01 -8.973066e+01 -3.902445e+01 4.501736e+01 -2.988882e+01 -1.266711e+02 -5.866532e+01 -6.841895e+01 1.514113e+00 -2.823603e+00 5.097905e+00 4.104368e+00 1.962376e+00 2.377638e+00 6.120681e-01 1.369550e+00 4.420625e-01 1.020414e+00 8.995630e-01 3.184503e-01 
2.939333e+00 -1.729800e+00 5.478438e+00 -9.776195e-01 -1.016237e+02 2.218285e+00 -1.891486e-01 -4.845388e-01 -1.920342e+00 -1.060611e+00 -2.421311e+00 -9.134890e-01 -3.440598e+00 7.788532e-01 -8.251962e+00 6.975274e+00 -3.293406e+00 -8.152325e-01 -7.940048e+00 -1.427782e+00 -6.631102e+00 9.298783e+00 -1.089043e+01 -1.955886e+00 -9.743989e+00 -8.641820e+00 1.353620e+00 -1.313616e-01 -1.602128e+01 -8.509161e+00 -1.214602e+01 5.062797e+00 -1.741062e+00 -1.234723e+01 -1.531975e+01 -1.975103e+01 -6.402248e+00 1.555414e+01 -1.258517e+01 -1.777895e+01 -1.690050e+01 -1.665673e+01 4.317005e+00 -5.454444e+00 -2.385613e+01 -2.656365e+01 -1.710015e+01 7.205596e+00 1.380933e+00 -3.057818e+01 -2.928798e+01 -3.371628e+01 -5.374316e+00 -9.310001e+00 1.674001e+00 8.799855e-02 1.507604e+00 1.313939e+00 8.278526e-01 1.162175e+00 6.845533e-01 9.387234e-01 1.130702e+00 2.022058e-01 
3.054606e+00 -1.505637e+00 5.185691e+00 -3.489938e-01 -9.505252e+01 2.120247e+00 -3.843906e-01 -2.806778e-01 -2.215062e+00 -6.429128e-01 -2.827690e+00 -9.478180e-01 -2.859814e+00 -4.898538e+00 -8.239359e-01 -7.516957e+00 3.425288e+00 4.200502e+00 -3.090418e-01 2.406770e+00 -2.489142e+00 -4.400460e+00 5.569922e-01 4.321624e+00 -3.142355e-01 -4.226363e+00 1.412737e+00 2.438140e+00 -9.291826e-01 4.496515e+00 -1.870694e+00 -7.209167e+00 2.590860e+00 5.366519e+00 4.912112e-01 -6.342419e-01 -7.722020e-01 -2.365099e+00 -4.410682e-01 4.578917e+00 -5.825424e-01 -7.305785e+00 3.306585e+00 2.202240e+00 -1.877243e+00 2.772343e+00 -1.935834e+00 -8.579585e+00 3.962347e+00 4.594159e+00 -1.262350e+00 2.508708e+00 -9.457968e-01 -3.438781e+00 1.135076e-01 -1.193721e+00 8.541325e-01 4.728246e-01 7.906409e-01 8.719357e-01 7.849237e-01 8.124907e-01 1.272937e+00 1.190065e-01 
3.126735e+00 -1.472673e+00 5.074642e+00 -3.008280e-01 -8.927420e+01 2.300067e+00 -1.973377e-01 -3.200648e-01 -1.939104e+00 -1.270114e+00 -2.137512e+00 -1.598536e+00 -1.492021e+00 -2.675930e+00 -1.512960e-01 -2.859471e+00 9.115267e-01 1.265430e+00 1.036366e-01 1.114282e-01 -8.584187e-01 -2.241806e+00 -4.300652e-01 7.101859e-01 1.593538e-01 -1.662400e+00 1.428201e-01 1.138690e+00 -4.420387e-01 6.125142e-01 -7.290432e-01 -3.708486e+00 5.384372e-01 2.558863e+00 5.289501e-01 3.852906e-01 -5.875719e-01 -2.642492e+00 1.050102e-01 1.912438e+00 3.343735e-01 -2.161136e+00 4.702413e-01 1.852855e+00 -1.781697e-01 1.227028e+00 -7.661740e-01 -4.831149e+00 1.180704e+00 4.399597e+00 -8.263826e-02 2.766928e+00 -6.843038e-01 -9.523309e-01 -1.390182e-01 -9.125263e-01 4.858789e-01 3.584033e-02 6.789798e-01 5.368595e-01 8.198476e-01 6.136211e-01 1.361211e+00 -1.291875e-02 
3.084899e+00 -1.321978e+00 4.706526e+00 5.371554e-02 -8.197023e+01 2.115645e+00 -2.523255e-01 -2.698768e-01 -1.818287e+00 -1.268648e+00 -1.857962e+00 -1.775712e+00 -1.103547e+00 -2.168727e+00 -2.503396e-01 -1.028567e+00 6.674812e-01 -7.851829e-01 -2.616611e-01 7.216596e-02 -4.164035e-01 -5.350953e-01 -2.191787e-01 -4.446540e-01 -8.979879e-02 -6.741366e-02 1.793541e-01 -1.876390e-01 -4.235935e-01 -1.066453e-02 -2.177746e-01 -4.466603e-01 2.192163e-01 2.137170e-01 6.961698e-02 1.162284e-01 1.051299e-02 -6.945098e-01 -1.454310e-01 1.572690e-01 2.378884e-01 -1.138195e-01 4.097265e-01 2.865554e-01 -2.726746e-01 1.380349e-01 8.310628e-02 -6.121767e-01 2.395232e-01 1.827043e+00 -4.541027e-01 1.542583e+00 -2.237709e-01 -1.567323e-02 -3.182644e-02 -4.135427e-01 3.300195e-01 -1.019711e-02 5.777773e-01 3.749778e-01 8.000873e-01 4.722767e-01 1.383182e+00 -1.040449e-01 
2.999057e+00 -1.303144e+00 4.491333e+00 -3.821537e-02 -7.534710e+01 2.079507e+00 2.243690e-02 -2.237822e-01 -1.437303e+00 -1.199012e+00 -1.476628e+00 -1.407658e+00 -9.217560e-01 -1.475356e+00 -4.709726e-01 -9.928185e-01 -3.028698e-01 -7.474168e-01 -1.120340e-01 -3.215709e-01 -1.147117e-01 -5.119567e-01 -4.458405e-01 -3.522707e-01 3.515142e-02 -1.043006e-01 -2.233061e-02 -3.285807e-01 -2.427417e-01 -1.261827e-01 -3.023370e-02 -1.389845e-01 -1.180642e-01 -9.870431e-02 1.499841e-01 1.044392e-01 1.142671e-01 -3.101890e-01 -2.471623e-01 -4.322051e-02 2.309705e-01 2.403884e-01 1.526897e-01 -6.871839e-02 -1.181000e-01 1.822886e-01 4.520527e-02 2.559561e-01 -1.002576e-01 5.604235e-01 -1.584312e-01 1.055807e+00 -5.743662e-04 3.701647e-01 7.098000e-02 -4.753945e-02 2.850967e-01 5.632145e-02 5.056269e-01 2.836246e-01 7.542830e-01 3.453753e-01 1.353210e+00 -2.065017e-01 
2.818068e+00 -1.183743e+00 4.061765e+00 1.312780e-01 -6.742702e+01 1.846381e+00 2.157450e-02 -2.416669e-01 -1.263324e+00 -1.143653e+00 -1.297313e+00 -1.258049e+00 -8.676643e-01 -1.141060e+00 -4.987556e-01 -8.385337e-01 -1.623797e-01 -8.374466e-01 -3.018424e-01 -4.614752e-01 -1.406351e-01 -3.511456e-01 -2.137737e-01 -3.678207e-01 -9.429338e-02 -1.337042e-01 3.508955e-02 -2.731950e-01 -2.049951e-01 -1.202455e-01 -3.941484e-02 -1.209816e-03 5.011325e-03 -1.474026e-01 1.161344e-02 -2.919464e-02 1.062103e-01 -1.063682e-01 -1.278336e-01 -5.665340e-02 9.805894e-02 1.472299e-01 1.727251e-01 -3.537396e-02 -1.103743e-01 1.594612e-01 5.096539e-02 3.715491e-01 -6.877490e-02 4.304529e-01 -1.798933e-01 6.069078e-01 2.733699e-02 3.379392e-01 1.217243e-01 1.241773e-01 2.648038e-01 1.488259e-01 4.435315e-01 2.689824e-01 6.880015e-01 2.778279e-01 1.279146e+00 -2.570553e-01 
2.600942e+00 -1.138767e+00 3.731809e+00 2.224351e-02 -5.999093e+01 1.700275e+00 2.196468e-01 -1.679289e-01 -9.631016e-01 -9.530573e-01 -1.075736e+00 -9.626104e-01 -8.046246e-01 -8.760326e-01 -5.608786e-01 -7.506894e-01 -4.782218e-01 -5.535531e-01 -2.618654e-01 -4.979195e-01 -1.115921e-01 -5.088689e-01 -2.414850e-01 -2.511901e-01 -6.867554e-03 -2.242701e-01 -4.971049e-02 -2.012919e-01 -1.212159e-01 -1.104255e-01 2.576211e-02 -1.525709e-01 -5.842108e-02 -1.411407e-02 5.888980e-02 -1.757222e-02 7.846295e-02 -9.525109e-02 -1.180440e-01 6.127665e-02 9.099076e-02 8.212799e-02 3.833804e-02 9.362980e-02 -1.023956e-01 2.018989e-01 6.713931e-03 1.899250e-01 -1.164401e-01 2.986401e-01 -5.292377e-02 3.427794e-01 1.215654e-01 2.641036e-01 2.047086e-01 2.327336e-01 2.808792e-01 2.447419e-01 3.946974e-01 2.771275e-01 6.073665e-01 2.237341e-01 1.167689e+00 -3.028783e-01 
2.308572e+00 -1.015187e+00 3.247675e+00 7.493945e-02 -5.154711e+01 1.449861e+00 2.212902e-01 -1.954792e-01 -7.959461e-01 -8.650017e-01 -9.164638e-01 -7.545516e-01 -7.379666e-01 -5.836860e-01 -5.133675e-01 -6.582059e-01 -3.901891e-01 -4.886760e-01 -3.557333e-01 -6.075142e-01 -1.008490e-01 -4.550408e-01 -1.227738e-01 -2.193547e-01 -2.149975e-02 -2.885247e-01 -1.179907e-02 -5.758691e-02 -1.183291e-01 -9.881358e-02 3.282620e-02 -1.876972e-01 2.220583e-02 5.242769e-02 2.246687e-03 -5.759761e-02 4.734867e-02 -1.331779e-02 -6.200171e-02 6.222964e-02 4.431027e-02 -4.203474e-02 3.855398e-02 2.283456e-01 -1.256046e-01 1.954506e-01 -6.068662e-03 7.299691e-02 -5.931460e-02 3.012307e-01 -5.689304e-02 7.331577e-02 1.354214e-01 1.536895e-01 2.332787e-01 2.939999e-01 2.573885e-01 3.133667e-01 3.207935e-01 2.898502e-01 5.052889e-01 1.944293e-01 1.023083e+00 -3.069753e-01 
1.989260e+00 -9.463807e-01 2.824707e+00 -6.250132e-02 -4.339922e+01 1.248726e+00 3.463362e-01 -1.934255e-01 -5.186531e-01 -7.643626e-01 -6.625408e-01 -4.934460e-01 -6.363481e-01 -1.459318e-01 -5.632118e-01 -4.631035e-01 -5.191793e-01 -3.075056e-01 -5.463874e-01 -7.964805e-01 7.379650e-02 -4.314117e-01 -1.619150e-01 -1.645918e-01 2.969404e-02 -4.110335e-01 8.090427e-02 1.405668e-01 -2.583500e-01 -1.698618e-01 1.518838e-01 -3.016542e-01 5.278156e-02 1.657305e-01 -5.455446e-02 -1.109227e-01 1.393949e-01 1.537553e-01 -2.066679e-01 4.090036e-02 5.766423e-02 -1.720475e-01 1.041813e-01 4.886391e-01 -3.451668e-01 1.727827e-01 3.152094e-02 -5.430472e-02 -8.958825e-02 2.547658e-01 -1.320844e-01 -3.952208e-01 3.331957e-01 7.543157e-02 3.752284e-01 4.590579e-01 2.459659e-01 4.195660e-01 2.236766e-01 2.955057e-01 3.794080e-01 1.525925e-01 8.502472e-01 -3.151101e-01 
1.619687e+00 -8.162139e-01 2.292230e+00 -7.820967e-02 -3.454454e+01 9.943501e-01 3.240197e-01 -2.392451e-01 -3.508437e-01 -7.765102e-01 -4.289771e-01 -4.490296e-01 -4.216070e-01 4.198757e-01 -6.223632e-01 1.912112e-01 -4.691266e-01 -8.541807e-01 -8.922418e-01 -1.343151e+00 5.295199e-01 5.981959e-01 -2.339068e-01 -8.522274e-01 -4.355128e-02 -2.253989e-01 3.716825e-01 5.093965e-01 -5.655411e-01 -7.588847e-01 3.442081e-01 4.798549e-01 8.979489e-02 -3.540859e-01 -2.667579e-01 -3.832076e-01 4.646639e-01 1.217647e+00 -4.895156e-01 -9.123844e-01 3.337354e-02 3.163179e-02 3.757457e-01 8.373435e-01 -7.176171e-01 -4.539524e-01 2.373242e-01 7.960477e-01 -6.468329e-02 -2.778735e-01 -4.433419e-01 -1.079773e+00 6.206436e-01 2.823284e-01 4.449350e-01 6.675500e-01 1.369684e-01 4.640132e-01 8.811233e-02 2.682960e-01 2.434533e-01 1.147093e-01 6.616133e-01 -2.940271e-01 
1.236874e+00 -7.108563e-01 1.782540e+00 -1.997838e-01 -2.579158e+01 7.822311e-01 3.415724e-01 -3.210475e-01 -1.084229e-01 -9.981950e-01 4.638923e-03 -7.300998e-01 1.221506e-01 1.045455e+00 -6.608985e-01 1.559409e+00 -7.029608e-01 -1.756066e+00 -1.492761e+00 -2.047571e+00 2.084146e+00 2.760687e+00 -9.108253e-01 -2.226205e+00 3.698035e-02 5.088996e-01 1.264611e+00 1.199759e+00 -1.523135e+00 -2.213211e+00 1.238165e+00 2.473893e+00 -7.064538e-02 -1.457339e+00 -6.049793e-01 -8.728463e-01 1.773133e+00 3.415433e+00 -1.629301e+00 -2.841318e+00 4.092030e-01 9.821451e-01 1.247495e+00 1.360506e+00 -1.612179e+00 -1.904707e+00 1.234980e+00 3.392722e+00 -4.130538e-01 -1.465798e+00 -1.055539e+00 -2.948475e+00 1.627731e+00 1.171725e+00 6.543228e-01 1.216764e+00 -1.340064e-01 4.484923e-01 -1.435212e-01 1.471268e-01 8.284647e-02 3.130693e-02 4.646472e-01 -2.816246e-01 
8.275890e-01 -5.457452e-01 1.198228e+00 -1.966390e-01 -1.665642e+01 5.277474e-01 2.552848e-01 -2.627563e-01 -4.176861e-02 -9.484362e-01 1.238286e-01 -1.646672e+00 1.043936e+00 -2.617479e+00 1.559801e+00 4.753807e-01 -1.874416e+00 -3.441672e+00 4.258826e+00 7.276821e+00 8.684311e+00 1.996159e+00 -1.156133e+00 2.163417e+00 5.931447e+00 7.293545e+00 2.536010e+00 -2.124815e+00 2.401168e+00 6.424847e+00 8.482687e+00 5.763151e+00 -1.304218e+00 -1.321642e-01 5.399731e+00 7.410817e+00 6.773439e+00 -1.137572e+00 -8.125639e-01 4.023725e+00 7.389600e+00 8.271692e+00 2.450490e+00 -2.898447e+00 3.312261e+00 8.190144e+00 9.473049e+00 6.949492e+00 -1.490231e+00 -4.867592e-01 5.880872e+00 9.436738e+00 5.242231e+00 4.777714e+00 2.179096e-01 1.256796e+00 -5.733405e-01 1.862710e-01 -3.217355e-01 7.622323e-03 -3.446773e-02 -2.809965e-02 2.759617e-01 -2.382814e-01 
4.210705e-01 -3.318813e-01 5.790173e-01 -1.196560e-01 -7.417263e+00 3.210756e-01 5.984056e-02 -1.021834e-01 -1.531309e-01 -1.151288e+00 2.711707e-01 -4.902126e+00 3.777647e+00 -1.335855e+01 7.531248e+00 -4.402043e+00 -2.104914e+00 -6.359800e+00 2.376737e+01 4.453155e+01 3.475940e+01 -1.534090e+00 -1.241229e-01 2.369299e+01 2.709152e+01 2.718116e+01 9.506678e+00 -1.185470e+01 1.624847e+01 4.564635e+01 3.660265e+01 1.453527e+01 -2.459706e+00 9.009988e+00 2.743415e+01 3.854595e+01 2.438350e+01 -1.472422e+01 2.909411e+00 3.331339e+01 3.022404e+01 2.658314e+01 8.197923e+00 -1.356510e+01 1.937532e+01 4.861511e+01 3.729586e+01 1.443971e+01 -2.253392e+00 1.078837e+01 2.773461e+01 5.777466e+01 1.441362e+01 1.232187e+01 -2.459046e+00 -3.798054e-01 -1.715176e+00 -7.740892e-01 -5.332655e-01 -2.779491e-01 -9.720947e-02 -9.513627e-02 1.210454e-01 -1.727178e-01 
-4.796220e-03 -1.044555e-01 -4.023949e-02 -9.417747e-02 1.797910e+00 1.165401e-02 2.142239e-03 -4.893725e-02 2.351448e-03 -7.613307e-01 3.312321e-01 -3.686245e+00 2.967739e+00 -1.047402e+01 6.607161e+00 -5.086554e+00 -1.613028e+00 -5.612729e-01 2.275735e+01 3.889838e+01 2.483676e+01 -5.864428e+00 3.491584e+00 2.713302e+01 2.152035e+01 1.673632e+01 3.636697e+00 -8.116081e+00 1.819729e+01 4.084848e+01 2.580288e+01 5.084772e+00 -1.071988e+00 1.300031e+01 2.278051e+01 2.902819e+01 1.476757e+01 -1.404846e+01 7.377876e+00 3.185413e+01 2.047767e+01 1.351752e+01 2.645729e+00 -7.965937e+00 1.893653e+01 3.831974e+01 2.353903e+01 4.063624e+00 -8.835199e-01 1.409620e+01 2.151637e+01 3.928938e+01 6.965225e+00 6.626548e+00 -1.989106e+00 -6.770429e-01 -1.148531e+00 -6.465909e-01 -3.643148e-01 -2.388289e-01 -1.174780e-01 -9.255229e-02 -4.509112e-02 -8.915742e-02 
-4.284752e-01 1.946634e-01 -7.199315e-01 5.968356e-02 1.120081e+01 -4.265500e-01 -1.709098e-02 1.395583e-01 3.176009e-01 9.452284e-01 -6.463590e-02 3.450502e+00 -2.564670e+00 9.406138e+00 -6.004189e+00 5.042887e+00 1.264837e+00 7.306675e-02 -2.182213e+01 -3.410492e+01 -2.113986e+01 7.943152e+00 -3.833444e+00 -2.579131e+01 -2.054045e+01 -1.438244e+01 -3.261318e+00 8.131160e+00 -1.931564e+01 -4.123685e+01 -2.514995e+01 -3.327037e+00 1.329983e+00 -1.407165e+01 -2.462479e+01 -2.998509e+01 -1.481944e+01 1.590971e+01 -8.189970e+00 -3.549746e+01 -2.266318e+01 -1.464677e+01 -2.634154e+00 9.266605e+00 -2.274162e+01 -4.599069e+01 -2.723565e+01 -4.260427e+00 1.688833e+00 -1.721052e+01 -2.746597e+01 -4.945961e+01 -7.820285e+00 -7.796940e+00 2.580769e+00 8.009779e-01 1.321747e+00 7.498515e-01 3.118837e-01 2.305573e-01 -2.987031e-02 2.703037e-02 -1.815295e-01 3.306013e-02 