# vtk DataFile Version 2.0
Comment goes here
ASCII

DATASET STRUCTURED_POINTS
FIELD FieldData 1
TIME 1 1 double
0.06000000
DIMENSIONS    64   64   1

ORIGIN    0.000   0.000   0.000
SPACING   0.03125 0.03125   1.000

POINT_DATA   4096
SCALARS Omega double
LOOKUP_TABLE default

-3.334751e-02 -3.481360e-01 7.868128e-02 -5.027812e-01 6.831906e-02 -7.896379e-02 7.032921e-02 -2.917204e-01 1.013827e-01 -2.836877e-01 1.489588e-01 -2.426746e-01 1.828932e-01 -1.633261e-01 2.199278e-01 -9.134560e-02 2.596827e-01 -1.272033e-02 3.234457e-01 4.927579e-02 3.475232e-01 6.652212e-02 4.224498e-01 2.141817e-01 3.877964e-01 2.296458e-01 3.641344e-01 2.717554e-01 3.112106e-01 2.919876e-01 2.369698e-01 3.533410e-01 1.792918e-01 3.877719e-01 1.477788e-01 4.202480e-01 1.188034e-01 4.320248e-01 1.411477e-01 3.866481e-01 1.335788e-01 3.848404e-01 1.251445e-01 3.476827e-01 1.107130e-01 3.095679e-01 7.906019e-02 2.523010e-01 2.971507e-02 1.999806e-01 -1.913478e-02 1.639640e-01 -8.646727e-02 1.218119e-01 -1.434698e-01 8.529540e-02 -1.801563e-01 5.353998e-02 -2.105991e-01 3.784962e-02 -2.430939e-01 4.249464e-02 -3.017030e-01 1.018726e-01 
-9.218001e+00 -4.028083e+01 -1.075522e+01 -3.373459e+01 -1.565142e+01 -2.971638e+01 -2.129589e+01 -2.464682e+01 -2.930007e+01 -2.028478e+01 -3.535294e+01 -1.696379e+01 -3.936675e+01 -1.510474e+01 -4.164061e+01 -1.438571e+01 -4.291035e+01 -1.398746e+01 -4.415895e+01 -1.311255e+01 -4.613743e+01 -1.093655e+01 -4.966763e+01 -7.261247e+00 -5.472217e+01 -1.776609e+00 -6.093355e+01 4.289222e+00 -6.722235e+01 1.016212e+01 -7.288425e+01 1.528447e+01 -7.790808e+01 1.980264e+01 -8.231976e+01 2.358484e+01 -8.575316e+01 2.613554e+01 -8.742111e+01 2.677741e+01 -8.670738e+01 2.446156e+01 -8.289505e+01 1.963468e+01 -7.749288e+01 1.427198e+01 -7.168958e+01 8.708886e+00 -6.544044e+01 2.610635e+00 -5.840000e+01 -4.265457e+00 -5.048949e+01 -1.158592e+01 -4.225526e+01 -1.871591e+01 -3.481369e+01 -2.416606e+01 -2.905831e+01 -2.803727e+01 -2.399794e+01 -3.160466e+01 -1.893865e+01 -3.547206e+01 
-6.563825e+01 1.108844e+01 -4.704445e+01 7.676191e+00 -1.072568e+01 6.550202e+00 -4.928539e+01 8.330045e-01 -6.232154e+01 -1.472636e+00 -7.101111e+01 -2.928594e+00 -7.784206e+01 -3.583936e+00 -8.376193e+01 -3.625511e+00 -8.895177e+01 -3.618198e+00 -9.307934e+01 -3.899771e+00 -9.602002e+01 -4.700062e+00 -9.760026e+01 -6.496809e+00 -9.758033e+01 -9.238682e+00 -9.645042e+01 -1.214589e+01 -9.505907e+01 -1.492346e+01 -9.369924e+01 -1.732772e+01 -9.235633e+01 -1.960590e+01 -9.092097e+01 -2.169560e+01 -8.949637e+01 -2.348262e+01 -8.847284e+01 -2.429094e+01 -8.815495e+01 -2.365728e+01 -8.917470e+01 -2.160577e+01 -9.049926e+01 -1.963344e+01 -9.115097e+01 -1.773828e+01 -9.135961e+01 -1.557389e+01 -9.139254e+01 -1.287280e+01 -9.134017e+01 -9.787532e+00 -9.084995e+01 -6.521571e+00 -8.913376e+01 -4.226752e+00 -8.513832e+01 -2.687987e+00 -7.931882e+01 -1.037392e+00 -7.021213e+01 2.719989e-02 
-3.314748e+01 8.993441e+00 -2.558842e+01 1.145972e+01 -3.106753e+01 6.777149e+00 -1.881431e+01 9.032880e+00 -2.642383e+01 6.016238e+00 -3.101387e+01 3.596252e+00 -3.454573e+01 2.019610e+00 -3.759246e+01 1.099905e+00 -4.028339e+01 4.929465e-01 -4.229118e+01 -2.156109e-01 -4.351195e+01 -1.560924e+00 -4.355535e+01 -3.197002e+00 -4.256449e+01 -5.803278e+00 -4.084927e+01 -8.441687e+00 -3.889004e+01 -1.100534e+01 -3.702371e+01 -1.302675e+01 -3.517865e+01 -1.478088e+01 -3.339800e+01 -1.626349e+01 -3.181447e+01 -1.737528e+01 -3.081154e+01 -1.778231e+01 -3.061272e+01 -1.687503e+01 -3.167780e+01 -1.487312e+01 -3.322676e+01 -1.282867e+01 -3.453337e+01 -1.087860e+01 -3.580450e+01 -8.709917e+00 -3.712621e+01 -6.207631e+00 -3.855667e+01 -3.436533e+00 -3.990802e+01 -6.066634e-01 -4.051953e+01 1.486205e+00 -3.961974e+01 2.696964e+00 -3.750145e+01 4.129034e+00 -3.468589e+01 7.297664e+00 
-2.670104e+00 2.111080e+00 -2.820908e+00 -5.497073e+00 -5.253367e+01 -3.327248e-01 5.024921e+00 2.102945e-01 8.103222e-01 1.464216e-01 -5.804561e-01 1.011993e-01 -1.108664e+00 3.536495e-02 -1.308026e+00 -5.977019e-02 -1.347256e+00 -1.568396e-01 -1.352440e+00 -2.341204e-01 -1.346198e+00 -2.708530e-01 -1.312801e+00 -2.690280e-01 -1.347080e+00 -2.408195e-01 -1.368216e+00 -2.164637e-01 -1.359766e+00 -2.126962e-01 -1.319324e+00 -2.091841e-01 -1.230412e+00 -2.024622e-01 -1.139063e+00 -2.119628e-01 -1.045408e+00 -2.759963e-01 -9.517135e-01 -3.952814e-01 -8.797842e-01 -5.242525e-01 -7.929320e-01 -6.090050e-01 -6.767497e-01 -6.468009e-01 -5.733564e-01 -6.158320e-01 -4.848453e-01 -5.487518e-01 -4.451941e-01 -4.632786e-01 -4.358525e-01 -3.456055e-01 -4.382616e-01 -1.804941e-01 -4.587083e-01 5.837162e-02 -5.313668e-01 3.765555e-01 -6.806503e-01 8.440693e-01 -8.718495e-01 1.576564e+00 
-2.048543e+00 1.754129e+00 -2.517437e+00 -4.759628e+00 -6.746524e+01 -2.213020e+00 4.397440e+00 -9.124048e-01 2.486476e+00 -2.908626e-01 1.246044e+00 -1.701056e-01 6.260916e-01 -1.300218e-01 3.233104e-01 -1.071480e-01 1.831518e-01 -1.127150e-01 7.734648e-02 -1.164317e-01 2.058447e-02 -7.125687e-02 2.737398e-02 -8.503188e-02 3.599928e-03 -6.582178e-02 -1.220161e-02 -3.692728e-02 9.402384e-03 -2.389926e-02 -1.702355e-02 -1.304202e-02 -1.587746e-02 -3.312375e-03 -3.045152e-02 -2.224403e-03 -3.954875e-02 1.153075e-02 -3.743554e-03 1.207651e-02 -2.538748e-02 1.800539e-02 -4.344049e-02 4.114827e-02 -3.429537e-02 3.376597e-02 -5.483693e-02 4.035041e-02 -5.431871e-02 6.227683e-02 -5.315012e-02 8.845278e-02 -8.645527e-02 1.428287e-01 -1.463103e-01 2.349390e-01 -2.458799e-01 3.645113e-01 -4.059694e-01 5.707546e-01 -7.002344e-01 8.513379e-01 -1.171361e+00 7.369221e-01 
-2.095192e+00 1.158229e+00 -1.650236e+00 -5.626929e+00 -7.795401e+01 -1.637406e+00 3.428410e+00 -1.034440e+00 2.445827e+00 -4.623081e-01 1.348914e+00 -2.758442e-01 7.123769e-01 -1.904116e-01 3.902623e-01 -1.573911e-01 2.680911e-01 -1.679873e-01 1.307080e-01 -1.620506e-01 6.594410e-02 -1.079748e-01 1.143907e-01 -1.018885e-01 6.487397e-02 -7.435187e-02 5.609134e-02 -3.049249e-02 7.150170e-02 -1.307439e-02 3.807201e-02 9.756704e-03 5.012664e-02 1.166214e-02 -4.396483e-04 1.968733e-02 -2.492593e-02 4.535839e-02 2.728314e-02 2.541634e-02 -2.410106e-02 2.914050e-02 -4.785970e-02 5.293267e-02 -4.361636e-02 5.386097e-02 -6.277107e-02 7.338488e-02 -3.503914e-02 9.110630e-02 -6.629579e-02 1.343529e-01 -1.214652e-01 2.158840e-01 -2.019469e-01 3.204807e-01 -3.329819e-01 4.418581e-01 -5.394454e-01 5.967327e-01 -8.490642e-01 7.914636e-01 -1.286754e+00 8.761751e-01 
-1.830875e+00 9.644830e-01 -1.183197e+00 -4.906777e+00 -8.664403e+01 -1.649331e+00 1.807995e+00 -1.528392e+00 1.960269e+00 -7.631747e-01 1.314320e+00 -4.220588e-01 7.412197e-01 -2.674973e-01 3.972247e-01 -2.115642e-01 2.998024e-01 -2.212713e-01 1.392116e-01 -2.283163e-01 4.630131e-02 -1.376254e-01 1.496954e-01 -1.442783e-01 4.912794e-02 -1.288102e-01 1.012076e-02 -5.252754e-02 7.039147e-02 -5.811831e-02 1.156220e-03 -3.262543e-02 2.158247e-02 1.389015e-04 -1.844013e-02 6.633333e-03 -6.205448e-02 6.433332e-02 4.976001e-02 3.911574e-02 -2.494798e-02 3.472255e-02 -7.171306e-02 1.040289e-01 -1.179313e-02 8.381514e-02 -6.926141e-02 9.585821e-02 -4.583786e-02 1.338355e-01 -2.739631e-02 1.418956e-01 -8.510700e-02 2.353690e-01 -1.655291e-01 3.793520e-01 -2.912905e-01 5.414345e-01 -4.847203e-01 7.273153e-01 -7.761644e-01 9.245744e-01 -1.188630e+00 1.056290e+00 
-1.520229e+00 7.455190e-01 -2.566168e-01 -5.324635e+00 -9.236619e+01 -1.118199e+00 1.050747e+00 -1.465917e+00 1.436189e+00 -8.306267e-01 1.104370e+00 -4.764553e-01 6.424907e-01 -2.857781e-01 3.416577e-01 -2.478824e-01 3.437644e-01 -3.222709e-01 1.255113e-01 -3.134041e-01 3.638084e-02 -1.483809e-01 2.402500e-01 -1.707481e-01 6.459221e-02 -1.353220e-01 4.416709e-02 -6.245374e-02 1.041476e-01 -5.177958e-02 6.394520e-03 7.807081e-03 8.585809e-02 -1.787720e-02 -4.137974e-02 7.747957e-03 -9.266512e-02 1.118732e-01 9.971446e-02 3.785274e-02 -5.260947e-02 4.483642e-02 -8.007972e-02 1.003029e-01 -3.654976e-02 8.979430e-02 -9.850191e-02 1.260922e-01 6.439722e-03 9.488816e-02 -5.883898e-02 1.310905e-01 -1.164008e-01 2.603871e-01 -1.934296e-01 4.142848e-01 -3.270112e-01 5.661982e-01 -5.226346e-01 7.296430e-01 -7.844906e-01 9.054933e-01 -1.118292e+00 1.044393e+00 
-1.165084e+00 5.995418e-01 3.609612e-01 -4.919741e+00 -9.724359e+01 -9.278184e-01 2.394844e-01 -1.666618e+00 8.492051e-01 -1.050832e+00 8.570038e-01 -5.830272e-01 5.163789e-01 -2.846710e-01 2.051329e-01 -2.593289e-01 3.362823e-01 -4.334818e-01 1.195753e-01 -4.216126e-01 -4.351628e-02 -1.489927e-01 3.397468e-01 -2.197006e-01 3.975610e-02 -1.979640e-01 -5.543371e-02 -6.769318e-02 1.764476e-01 -1.077280e-01 -3.356517e-02 -1.742414e-02 4.341548e-02 -1.733809e-02 -3.572941e-02 -1.928164e-02 -1.693061e-01 1.720966e-01 1.707981e-01 3.783097e-02 -4.998489e-02 1.739258e-02 -1.737470e-01 1.841686e-01 5.870947e-02 1.087135e-01 -1.310704e-01 1.435412e-01 -8.135661e-02 1.385534e-01 3.952699e-02 5.666721e-02 -1.977483e-02 2.521235e-01 -1.113726e-01 4.700930e-01 -2.561457e-01 6.394817e-01 -4.392602e-01 7.966794e-01 -6.616587e-01 9.521556e-01 -9.280128e-01 1.062475e+00 
-8.121391e-01 4.271181e-01 1.141899e+00 -4.961383e+00 -9.991161e+01 -5.706240e-01 -1.358796e-01 -1.635360e+00 3.646886e-01 -1.077557e+00 5.510371e-01 -5.571179e-01 3.116835e-01 -1.188808e-01 3.481907e-02 -1.130536e-01 3.804760e-01 -8.113731e-01 6.468389e-02 -5.183105e-01 -1.143631e-01 -8.933112e-02 5.501653e-01 -2.941169e-01 1.211764e-02 -7.347020e-02 -5.681154e-02 -2.209530e-01 2.373212e-01 -1.045326e-01 -6.263888e-02 1.988276e-01 1.704080e-01 -1.945152e-01 -1.283176e-01 -2.280107e-02 -2.646503e-01 2.877464e-01 3.431113e-01 -2.444872e-02 -1.220230e-01 1.269856e-01 -1.844565e-01 8.261220e-02 3.793059e-02 1.229556e-01 -1.955857e-01 3.156330e-01 7.101695e-02 -5.999036e-02 -4.119531e-02 1.376976e-02 -2.010385e-02 2.872235e-01 -9.621250e-02 5.045519e-01 -2.529060e-01 6.515048e-01 -4.268985e-01 7.854266e-01 -6.038881e-01 9.244000e-01 -7.789505e-01 1.021051e+00 
-4.720638e-01 2.772148e-01 1.726082e+00 -4.699520e+00 -1.020577e+02 -2.731765e-01 -4.471572e-01 -1.742893e+00 -3.065466e-02 -1.294612e+00 3.426289e-01 -6.433597e-01 1.637978e-01 1.912849e-01 -2.975386e-01 4.254756e-01 1.238196e-01 -1.619620e+00 2.176042e-01 -4.372173e-01 -3.390599e-01 5.100267e-02 7.664121e-01 -5.570797e-01 6.849463e-02 2.032177e-01 -4.620845e-01 -5.289699e-01 5.604827e-01 -2.138851e-01 -4.784679e-02 5.628488e-01 -1.267470e-01 -5.373397e-01 4.289594e-02 1.385864e-02 -4.376686e-01 5.355035e-01 4.482263e-01 -2.677169e-01 1.395193e-02 2.718316e-01 -6.009804e-01 2.976481e-02 3.971422e-01 9.113876e-02 -1.743685e-01 6.650564e-01 -4.930789e-01 -2.669546e-01 2.532394e-01 -3.109082e-01 2.461665e-01 3.349859e-01 2.646653e-02 6.187876e-01 -2.027024e-01 7.179288e-01 -3.617142e-01 8.119708e-01 -4.825600e-01 9.230627e-01 -5.798813e-01 9.872501e-01 
-1.558513e-01 1.214219e-01 2.314241e+00 -4.540869e+00 -1.024867e+02 -3.979488e-02 -6.077075e-01 -1.805105e+00 -3.605953e-01 -1.462286e+00 6.973763e-02 -7.754567e-01 -6.855875e-02 5.915297e-01 -4.170542e-01 1.808268e+00 -2.520345e-01 -3.436679e+00 4.563224e-01 4.228819e-01 -7.248280e-01 4.255350e-01 1.307935e+00 -1.142712e+00 2.064248e-01 1.826261e+00 -9.779235e-01 -2.097238e+00 9.552076e-01 -8.988011e-02 2.768242e-04 2.268062e+00 -1.955765e-01 -1.968733e+00 -5.603620e-04 4.995684e-01 -8.345465e-01 8.141678e-01 9.888884e-01 -6.933952e-01 4.215089e-02 1.487852e+00 -9.780992e-01 -1.188501e+00 6.205755e-01 2.633960e-01 -2.055324e-01 2.021711e+00 -4.553756e-01 -1.319905e+00 1.603120e-01 -2.020099e-01 3.808071e-01 4.745802e-01 7.451068e-02 6.909267e-01 -2.127058e-01 7.300067e-01 -3.513130e-01 7.922335e-01 -4.129932e-01 8.888372e-01 -4.233223e-01 9.369964e-01 
1.408612e-01 -4.078545e-02 2.794599e+00 -4.326630e+00 -1.024385e+02 2.952324e-01 -6.891747e-01 -1.880548e+00 -5.880260e-01 -1.901221e+00 5.147241e-02 -1.464936e+00 1.166322e-01 3.999384e-01 -1.991767e-01 8.455936e-01 -8.419050e-01 -2.601894e+00 2.531203e+00 3.924705e+00 -1.829710e+00 1.860881e+00 2.105469e+00 -3.208303e+00 1.753772e+00 5.344821e+00 -3.488041e+00 -3.227909e+00 2.252509e+00 -9.335587e-01 1.079257e+00 5.378143e+00 -2.256471e+00 -5.301626e+00 1.353561e+00 1.998337e+00 -1.459401e+00 2.273629e+00 8.384645e-01 -4.130918e+00 1.731678e+00 4.857268e+00 -3.458637e+00 -3.142315e+00 1.868390e+00 -1.028586e+00 1.155538e+00 6.736725e+00 -4.096718e+00 -4.883247e+00 1.363942e+00 -8.678605e-01 1.124212e+00 1.111636e+00 2.760724e-03 8.883153e-01 -3.450197e-01 7.332025e-01 -3.585309e-01 7.641403e-01 -3.169926e-01 8.539008e-01 -2.457266e-01 8.794011e-01 
4.038911e-01 -1.932860e-01 3.181413e+00 -4.002625e+00 -1.010915e+02 3.923493e-01 -7.419944e-01 -1.904205e+00 -7.421035e-01 -2.157964e+00 -2.053253e-01 -2.364963e+00 -5.619865e-01 -3.110467e+00 2.280318e+00 -1.634510e+01 8.645028e+00 2.594589e+01 1.463144e+01 1.583311e+01 -4.315380e+00 -1.951411e+00 1.668146e+01 1.421049e+01 6.130325e+00 3.100350e+00 -1.764959e+00 9.520912e+00 1.240326e+01 8.105577e+00 1.846213e+00 -4.886475e+00 7.248044e+00 6.372219e+00 6.296866e+00 8.371669e+00 -3.600478e+00 -5.415607e-01 1.356650e+01 2.411272e+00 3.916693e+00 2.039636e+00 -5.701637e-01 3.986014e+00 7.566030e+00 1.527783e+00 1.358575e+00 -1.788822e+00 6.169631e+00 -4.149176e+00 2.126892e+00 -1.387781e+00 1.423447e+00 1.834092e+00 -1.240815e-01 1.033509e+00 -4.850977e-01 7.097176e-01 -3.774229e-01 7.167039e-01 -2.476729e-01 8.055672e-01 -1.018805e-01 8.168346e-01 
6.598917e-01 -3.463014e-01 3.500870e+00 -3.654771e+00 -9.917368e+01 6.870685e-01 -8.038260e-01 -1.662926e+00 -1.044538e+00 -2.311083e+00 -4.218561e-01 -4.361826e+00 1.040142e+00 -1.160312e+01 1.271175e+01 -3.935094e+01 3.321796e+01 8.911915e+01 3.907811e+01 1.965416e+01 3.192065e+00 -1.016657e+01 6.038896e+01 8.167539e+01 2.638675e+01 -1.407019e+01 1.054803e+01 6.211946e+01 5.871684e+01 4.751195e+01 1.437156e+01 -3.353671e+01 2.961849e+01 7.818417e+01 3.460845e+01 1.917027e+01 3.096820e+00 -9.002091e+00 5.861719e+01 7.460094e+01 2.965385e+01 -1.099743e+01 7.998838e+00 5.475133e+01 5.652510e+01 4.260824e+01 1.739876e+01 -3.181912e+01 2.171474e+01 6.717697e+01 3.407038e+01 2.634351e+01 1.812815e-01 2.267524e+00 -2.235276e+00 1.853127e-01 -9.427441e-01 4.373566e-01 -3.691635e-01 6.412052e-01 -1.286692e-01 7.631312e-01 6.691759e-02 7.508478e-01 
8.706984e-01 -4.593269e-01 3.676110e+00 -3.172268e+00 -9.634848e+01 6.090962e-01 -7.988595e-01 -1.508203e+00 -8.598568e-01 -1.899132e+00 3.841943e-01 -3.665865e+00 3.406239e+00 -8.234648e+00 9.408029e+00 -1.925006e+01 2.758013e+01 4.422117e+01 1.842251e+01 -7.583603e+00 6.626778e+00 1.683394e+00 5.451792e+01 5.357919e+01 1.229455e+01 -2.207031e+01 2.524814e+01 6.437299e+01 4.471378e+01 3.042633e+01 6.336197e+00 -2.677831e+01 4.890464e+01 8.408387e+01 1.608438e+01 4.424873e-01 2.566331e+00 7.382161e+00 7.486325e+01 8.011324e+01 9.571238e+00 -2.203484e+01 2.730564e+01 8.065090e+01 5.459591e+01 4.290804e+01 5.340746e+00 -3.195738e+01 5.620143e+01 1.130211e+02 1.683145e+01 2.446326e+01 -5.825364e+00 9.883466e-01 -3.109803e+00 -3.913965e-01 -9.804124e-01 2.079638e-01 -2.702412e-01 5.465743e-01 -1.295158e-02 7.050445e-01 2.054764e-01 6.832474e-01 
1.079385e+00 -5.569082e-01 3.810735e+00 -2.718080e+00 -9.294416e+01 7.444612e-01 -6.901088e-01 -1.046953e+00 -8.114913e-01 -4.369715e-01 -1.670688e-01 1.557510e+00 1.315453e-02 6.547770e+00 -5.175151e+00 2.800288e+01 -4.269211e+01 -9.047532e+01 -2.113230e+01 -1.187747e+01 2.205445e+00 -5.224020e+00 -6.161952e+01 -7.146966e+01 -4.647559e+00 1.495509e+01 -2.127173e+01 -6.217803e+01 -3.811780e+01 -2.980617e+01 -1.866677e+00 1.872109e+01 -3.896664e+01 -6.424646e+01 -9.360764e+00 1.355750e+00 -2.524302e+00 -8.354329e+00 -5.056323e+01 -4.838046e+01 -5.716817e+00 1.630463e+01 -2.021030e+01 -4.712543e+01 -2.851461e+01 -1.472818e+01 -5.782824e+00 1.529584e+01 -2.731719e+01 -4.182934e+01 -6.353135e+00 -2.603097e+00 2.372956e-01 1.694995e+00 4.339514e-01 1.137238e+00 1.564964e-01 7.562875e-01 9.918045e-02 6.836742e-01 1.709379e-01 7.077209e-01 3.637238e-01 6.212709e-01 
1.222117e+00 -5.688675e-01 3.791474e+00 -2.202596e+00 -8.882378e+01 6.625288e-01 -7.747421e-01 -1.037491e+00 -1.040536e+00 -3.958181e-01 -9.047768e-01 2.080504e+00 -2.440102e+00 1.079073e+01 -1.620941e+01 3.653638e+01 -2.234779e+01 -6.800349e+01 -4.446099e+01 -2.087516e+01 -6.216382e+00 1.211293e+01 -5.781694e+01 -7.620712e+01 -3.211160e+01 1.398705e+01 -1.243667e+01 -6.550549e+01 -6.233252e+01 -4.814221e+01 -1.570450e+01 3.632353e+01 -3.716463e+01 -9.105315e+01 -3.532785e+01 -1.592935e+01 -4.008466e+00 5.853220e+00 -7.262057e+01 -9.075230e+01 -2.733616e+01 1.922624e+01 -1.723369e+01 -7.664346e+01 -6.598159e+01 -5.066929e+01 -1.549992e+01 4.001618e+01 -4.220039e+01 -1.084443e+02 -3.070985e+01 -2.853155e+01 3.443545e+00 2.469342e-01 2.623820e+00 1.645003e+00 7.975520e-01 9.818680e-01 2.943155e-01 7.290922e-01 2.745944e-01 6.866503e-01 4.673036e-01 5.686353e-01 
1.355019e+00 -6.201739e-01 3.812719e+00 -1.913867e+00 -8.430109e+01 9.033237e-01 -7.800534e-01 -7.874640e-01 -1.315012e+00 -6.309523e-01 -1.362159e+00 -1.724738e-01 -1.828555e+00 6.651477e-01 -4.801993e+00 8.214071e+00 -6.726010e+00 -1.553296e+00 -8.506700e+00 -5.323914e+00 -6.552497e-01 3.895871e+00 -1.438623e+01 -5.089290e+00 -8.614611e+00 -8.799878e-01 9.386057e-02 -8.795403e+00 -1.539216e+01 -9.616480e+00 -5.388693e+00 9.333509e+00 -8.838855e+00 -1.458061e+01 -1.198882e+01 -1.257927e+01 2.298969e+00 4.574051e+00 -2.102323e+01 -1.848619e+01 -1.072238e+01 -1.717254e+00 1.079622e+00 -1.709083e+01 -2.155067e+01 -1.855041e+01 -5.565399e+00 1.262712e+01 -9.219386e+00 -2.780776e+01 -1.595767e+01 -1.570731e+01 -8.007509e-01 -2.781583e+00 1.181117e+00 2.230723e-01 6.746155e-01 5.883988e-01 4.032040e-01 6.180949e-01 3.917044e-01 6.284441e-01 5.788366e-01 5.018507e-01 
1.421444e+00 -5.999590e-01 3.669443e+00 -1.477634e+00 -7.923060e+01 8.200629e-01 -8.660353e-01 -6.769322e-01 -1.446005e+00 -4.752993e-01 -1.549809e+00 -3.244496e-01 -1.691204e+00 -2.168980e+00 -6.538146e-01 -5.624563e+00 2.723882e+00 5.812050e+00 -1.770542e+00 -8.271415e-01 3.985105e-01 -2.873225e+00 -9.516959e-01 5.018278e+00 -1.498462e+00 -4.741766e+00 3.000849e+00 3.394809e+00 -1.988361e+00 1.680217e+00 -9.058604e-01 -5.210187e+00 1.399360e+00 5.922622e+00 -1.138597e+00 -2.810488e+00 2.260626e+00 -2.081736e+00 -2.468090e+00 4.776651e+00 -1.273328e+00 -5.663247e+00 3.587208e+00 2.768147e+00 -2.249498e+00 1.840408e-01 -2.542455e-01 -5.273725e+00 1.247757e+00 5.184703e+00 -1.160072e+00 -1.519054e-01 -5.847744e-01 -1.634276e+00 4.017868e-01 -2.878411e-01 5.174450e-01 3.245313e-01 4.274672e-01 5.048083e-01 4.430139e-01 5.609941e-01 6.373475e-01 4.421219e-01 
1.465954e+00 -6.343994e-01 3.602711e+00 -1.385051e+00 -7.395360e+01 9.784991e-01 -7.229928e-01 -6.362326e-01 -1.344725e+00 -7.209264e-01 -1.255335e+00 -7.086297e-01 -9.433415e-01 -1.396553e+00 3.130407e-02 -2.542426e+00 9.331017e-01 1.532074e+00 -3.899882e-01 -4.040634e-01 1.786560e-01 -1.423288e+00 -7.013387e-01 8.320019e-01 -3.941234e-01 -1.856406e+00 1.093458e+00 1.652247e+00 -9.670876e-01 1.220392e-01 -2.869410e-01 -2.897747e+00 6.818509e-01 2.440080e+00 -1.686101e-01 -6.391157e-01 8.101551e-01 -1.058301e+00 -8.666900e-01 1.421161e+00 -3.242313e-01 -2.413227e+00 1.420353e+00 2.370710e+00 -8.946478e-01 1.045371e-01 -4.422500e-02 -3.429304e+00 8.772356e-01 3.611551e+00 -4.959427e-01 7.973575e-01 -3.750156e-01 -5.874954e-01 1.638350e-01 -2.521833e-01 3.592850e-01 1.623912e-01 3.989269e-01 3.783362e-01 4.695753e-01 4.727676e-01 6.796400e-01 3.669672e-01 
1.452401e+00 -6.154847e-01 3.381456e+00 -1.089229e+00 -6.818542e+01 8.751628e-01 -7.177905e-01 -6.003250e-01 -1.271761e+00 -7.298084e-01 -1.108832e+00 -8.428249e-01 -6.794290e-01 -1.260965e+00 9.043075e-02 -9.935155e-01 3.720224e-01 1.444599e-01 -2.609961e-01 -1.188966e-01 1.242163e-01 -7.198917e-01 -5.574162e-01 1.066023e-01 -8.781582e-02 -3.808080e-01 4.601770e-01 2.830041e-01 -5.907513e-01 -1.839531e-02 4.849352e-02 -7.773193e-01 9.549185e-02 6.531147e-01 -2.414560e-03 -1.388851e-01 5.219504e-01 -4.753620e-01 -6.692034e-01 3.870276e-01 8.178693e-02 -5.053653e-01 5.900891e-01 6.822565e-01 -4.798129e-01 -2.888385e-02 3.255509e-01 -8.401032e-01 3.607455e-02 1.522662e+00 -3.080630e-01 7.339144e-01 -1.718201e-01 -9.063499e-02 8.421380e-02 -1.095445e-01 2.692787e-01 1.257142e-01 3.628043e-01 3.092751e-01 4.630039e-01 4.069326e-01 6.821222e-01 3.065445e-01 
1.417214e+00 -6.280089e-01 3.221188e+00 -1.047706e+00 -6.227554e+01 9.264707e-01 -5.280134e-01 -5.397117e-01 -1.082770e+00 -7.187303e-01 -8.988356e-01 -7.280243e-01 -5.459560e-01 -8.527647e-01 -1.410283e-01 -7.275707e-01 -1.786833e-01 -2.190968e-01 -3.969892e-02 -1.927953e-01 5.043000e-02 -4.695135e-01 -4.019246e-01 -9.193704e-02 -5.005621e-03 -1.719896e-01 8.605375e-02 -3.255814e-02 -2.257337e-01 -4.475034e-02 4.489195e-02 -3.099304e-01 -1.040884e-01 1.651661e-01 1.114814e-01 2.564465e-02 2.577332e-01 -2.656959e-01 -3.667373e-01 1.249475e-01 9.623104e-02 -5.604734e-02 2.015402e-01 1.746911e-01 -1.443070e-01 1.016126e-01 1.544231e-01 -1.226043e-01 -1.488674e-01 6.179143e-01 -9.416120e-02 5.782834e-01 -2.318778e-02 1.356800e-01 1.017950e-01 3.241793e-02 2.289743e-01 1.377778e-01 3.286043e-01 2.631322e-01 4.445415e-01 3.439853e-01 6.684393e-01 2.421830e-01 
1.333062e+00 -5.960067e-01 2.937595e+00 -8.474893e-01 -5.593379e+01 8.124806e-01 -4.784621e-01 -5.207621e-01 -9.641635e-01 -6.915955e-01 -7.790891e-01 -6.733096e-01 -4.800583e-01 -6.703021e-01 -1.905525e-01 -5.354677e-01 -1.345291e-01 -3.810186e-01 -1.151377e-01 -2.382542e-01 -4.570835e-03 -3.216372e-01 -2.414760e-01 -1.497243e-01 -3.154849e-02 -8.694860e-02 3.804570e-02 -1.125759e-01 -1.444464e-01 -5.419163e-02 3.352501e-02 -1.026046e-01 -5.798119e-02 -3.920572e-04 5.660220e-02 -2.605823e-03 1.531652e-01 -1.296395e-01 -2.082423e-01 3.894666e-02 6.728185e-02 4.474904e-02 1.104941e-01 5.860736e-02 -7.203958e-02 9.263571e-02 1.139114e-01 9.621115e-02 -1.279158e-01 3.578389e-01 -7.509465e-02 3.721476e-01 1.514649e-02 1.811072e-01 9.815794e-02 1.109441e-01 1.923008e-01 1.605856e-01 2.867801e-01 2.417454e-01 4.053475e-01 3.012067e-01 6.249799e-01 1.959078e-01 
1.232129e+00 -5.790600e-01 2.691829e+00 -8.088911e-01 -4.946244e+01 7.929972e-01 -3.127866e-01 -4.505125e-01 -7.871908e-01 -6.126592e-01 -6.457979e-01 -5.326561e-01 -4.554446e-01 -4.733117e-01 -3.091780e-01 -4.528004e-01 -2.542691e-01 -3.165626e-01 -8.761180e-02 -2.958074e-01 -6.833778e-02 -2.653347e-01 -1.296407e-01 -1.468699e-01 -2.244752e-02 -1.485892e-01 -4.544696e-02 -7.562943e-02 -2.055054e-02 -7.681034e-02 6.442709e-03 -9.448124e-02 -5.486750e-02 2.337949e-03 6.104596e-02 -1.496600e-02 4.116859e-02 -3.012676e-02 -7.869290e-02 2.669739e-02 3.940505e-02 1.765104e-02 4.920359e-03 1.023950e-01 3.465254e-03 1.025446e-01 1.237971e-02 1.025704e-01 -1.199719e-01 2.209109e-01 1.157896e-02 1.985217e-01 8.573045e-02 1.725550e-01 1.321893e-01 1.706454e-01 1.805737e-01 1.923017e-01 2.512458e-01 2.297660e-01 3.619027e-01 2.605453e-01 5.715364e-01 1.491376e-01 
1.092621e+00 -5.278547e-01 2.356970e+00 -6.689102e-01 -4.264591e+01 6.751585e-01 -2.511982e-01 -4.257982e-01 -6.612926e-01 -5.649523e-01 -5.371705e-01 -4.400598e-01 -4.019447e-01 -2.943527e-01 -3.162621e-01 -3.373342e-01 -2.241484e-01 -3.866285e-01 -1.062386e-01 -3.281968e-01 -8.684327e-02 -1.575313e-01 -4.527090e-02 -1.713823e-01 -2.084780e-02 -1.360033e-01 -5.937458e-02 -5.494293e-02 2.315973e-02 -8.258784e-02 -4.416112e-04 -1.692266e-02 -2.477416e-02 -5.478189e-02 3.702829e-02 -4.053499e-02 -1.707517e-02 7.828696e-02 -1.018089e-02 -2.668589e-02 2.561153e-02 7.138151e-03 -3.468603e-02 1.227946e-01 2.932295e-02 8.218502e-02 -1.738048e-02 1.500221e-01 -1.006631e-01 1.098873e-01 2.995824e-02 4.134539e-02 1.134520e-01 1.556746e-01 1.317895e-01 2.062133e-01 1.455689e-01 2.099896e-01 1.991250e-01 2.181654e-01 3.014215e-01 2.286977e-01 4.957072e-01 1.170359e-01 
9.417484e-01 -4.882371e-01 2.044022e+00 -6.357817e-01 -3.570260e+01 6.140643e-01 -1.180496e-01 -3.776150e-01 -4.860155e-01 -5.190964e-01 -3.826843e-01 -3.302195e-01 -3.326299e-01 -1.455711e-02 -4.109709e-01 -1.155974e-01 -3.760910e-01 -5.187881e-01 -5.254315e-02 -3.803046e-01 -7.490582e-02 2.990877e-02 -4.043128e-02 -2.757458e-01 5.754327e-02 -1.222507e-01 -1.410875e-01 -3.535630e-02 1.103513e-01 -1.540145e-01 3.838324e-02 1.232114e-01 -1.148731e-01 -1.868836e-01 1.029450e-01 -3.895951e-02 -7.505948e-02 2.980249e-01 -2.983952e-02 -1.751014e-01 9.434515e-02 3.201433e-02 -1.501569e-01 1.591534e-01 8.736542e-02 4.543611e-02 -3.259391e-02 3.052368e-01 -2.600796e-01 -1.185837e-01 1.346845e-01 -2.019441e-01 2.452908e-01 1.803681e-01 1.656347e-01 2.823876e-01 1.073509e-01 2.373592e-01 1.389576e-01 2.024204e-01 2.357417e-01 1.901340e-01 4.144634e-01 8.115029e-02 
7.651298e-01 -4.229169e-01 1.668212e+00 -5.293075e-01 -2.851582e+01 4.937083e-01 -6.082898e-02 -3.476818e-01 -3.553733e-01 -5.017054e-01 -2.505212e-01 -3.233234e-01 -2.016903e-01 2.209739e-01 -3.695157e-01 5.680397e-01 -6.242476e-01 -1.338079e+00 5.774254e-02 -2.859361e-01 6.880605e-02 5.956993e-01 -1.713932e-01 -8.279885e-01 2.304744e-01 3.619287e-01 -2.844501e-01 -2.944363e-01 1.602559e-01 -3.242010e-01 2.212907e-01 8.649871e-01 -3.677541e-01 -9.005909e-01 2.072180e-01 7.858603e-02 -4.318361e-02 8.235321e-01 -1.924160e-01 -7.851074e-01 2.924578e-01 5.088618e-01 -3.431842e-01 -1.184083e-01 1.272205e-01 -1.456278e-01 1.639327e-01 1.128624e+00 -5.999382e-01 -9.136261e-01 2.420661e-01 -3.319191e-01 3.897366e-01 3.214847e-01 1.349654e-01 3.439984e-01 3.059798e-02 2.355129e-01 6.587649e-02 1.759395e-01 1.622763e-01 1.539922e-01 3.207479e-01 5.545447e-02 
5.843861e-01 -3.639330e-01 1.299745e+00 -4.808943e-01 -2.119250e+01 4.108893e-01 2.241927e-02 -3.206270e-01 -1.970135e-01 -5.827274e-01 -2.425613e-02 -5.057784e-01 1.417420e-01 4.762441e-01 -1.616060e-01 1.834768e+00 -1.538131e+00 -2.745225e+00 6.804533e-01 9.077360e-02 5.865236e-01 1.867632e+00 -7.653613e-01 -2.312465e+00 1.038849e+00 1.734210e+00 -8.265985e-01 -6.334175e-01 3.543652e-01 -1.077147e+00 1.009455e+00 2.661538e+00 -1.329393e+00 -2.486696e+00 8.485427e-01 5.909502e-01 1.885062e-01 1.963698e+00 -7.137027e-01 -2.470494e+00 1.205521e+00 1.969285e+00 -9.846142e-01 -5.499666e-01 4.220843e-01 -8.690747e-01 9.944547e-01 3.277155e+00 -1.810746e+00 -2.674434e+00 7.519102e-01 -6.442779e-01 8.476790e-01 8.376416e-01 4.394774e-02 4.761595e-01 -1.270698e-01 1.988309e-01 -3.505989e-02 1.177971e-01 8.625447e-02 1.016486e-01 2.287746e-01 2.411355e-02 
3.904038e-01 -2.824741e-01 8.890070e-01 -3.665352e-01 -1.374786e+01 2.855863e-01 5.755781e-02 -2.466946e-01 -9.392979e-02 -5.370056e-01 4.145455e-02 -7.698923e-01 3.545036e-01 -1.350269e+00 1.795880e+00 -1.997464e+00 -1.383529e+00 2.216155e+00 6.153363e+00 5.626899e+00 2.109045e+00 -2.151797e+00 2.681039e+00 5.720790e+00 5.991503e+00 4.034113e+00 -1.158850e+00 3.443011e-01 6.279798e+00 6.290246e+00 4.182545e+00 -5.634012e-02 -4.583786e-01 3.791793e+00 5.976411e+00 5.255966e+00 1.149459e+00 -2.938309e+00 4.259867e+00 7.186804e+00 6.403418e+00 4.010337e+00 -1.282568e+00 5.467700e-01 7.180920e+00 7.362693e+00 4.544358e+00 1.275846e-01 -9.340593e-01 4.190770e+00 6.405936e+00 5.390987e+00 1.307836e+00 1.615522e+00 -3.181393e-01 3.786120e-01 -2.889008e-01 1.032220e-01 -1.061902e-01 5.866338e-02 2.213272e-02 5.629650e-02 1.350482e-01 1.245206e-03 
2.015553e-01 -1.884750e-01 4.635839e-01 -2.222279e-01 -6.148322e+00 1.806488e-01 5.366087e-02 -1.193688e-01 -7.362020e-02 -5.648225e-01 2.113576e-02 -1.902691e+00 1.197216e+00 -7.375545e+00 7.856591e+00 -1.318831e+01 1.700683e-01 2.187650e+01 2.703021e+01 2.499510e+01 8.920066e+00 -1.528273e+01 1.466431e+01 4.223963e+01 2.575762e+01 8.706947e+00 1.057484e-01 5.379464e+00 2.941473e+01 3.932609e+01 1.648909e+01 -9.799540e+00 3.184907e+00 3.088432e+01 2.524378e+01 1.919875e+01 5.979585e+00 -1.697408e+01 2.044430e+01 4.809074e+01 2.510451e+01 6.668840e+00 3.207680e-02 6.356457e+00 3.153682e+01 4.069020e+01 1.708446e+01 -1.063386e+01 2.766353e+00 3.403796e+01 2.529380e+01 2.708225e+01 1.363401e+00 2.405255e+00 -1.639177e+00 -3.184970e-01 -6.194236e-01 -1.799309e-01 -1.651923e-01 -3.981962e-02 -1.840372e-02 5.893267e-03 5.591102e-02 -1.953730e-02 
5.161402e-03 -8.470490e-02 2.933547e-02 -7.898507e-02 1.412827e+00 3.867852e-02 8.668962e-02 -8.166172e-03 4.860716e-02 -3.461502e-01 1.022945e-01 -1.413393e+00 9.501878e-01 -5.444451e+00 5.826894e+00 -1.095505e+01 2.726812e+00 2.108042e+01 2.101243e+01 1.852249e+01 4.953757e+00 -1.153609e+01 1.603301e+01 3.697803e+01 1.745646e+01 3.178085e+00 7.315349e-01 7.372278e+00 2.471007e+01 3.133533e+01 1.032035e+01 -9.032187e+00 5.990112e+00 2.731056e+01 1.767394e+01 1.206370e+01 2.799466e+00 -1.123773e+01 1.980778e+01 3.832565e+01 1.525345e+01 1.165356e+00 9.592387e-01 7.751542e+00 2.444658e+01 2.977967e+01 1.006234e+01 -9.211974e+00 5.746461e+00 2.832904e+01 1.625162e+01 1.754177e+01 5.434684e-02 1.190732e+00 -1.147908e+00 -3.477066e-01 -4.229546e-01 -1.821461e-01 -1.290772e-01 -6.496825e-02 -5.058674e-02 -2.960441e-02 -2.794110e-02 -3.649381e-02 
-1.824061e-01 4.213892e-02 -4.328950e-01 1.544921e-01 9.090506e+00 -1.502719e-01 1.163950e-01 2.223117e-01 2.130923e-01 4.800198e-01 3.344400e-02 1.454152e+00 -8.918178e-01 5.213415e+00 -5.518307e+00 1.057167e+01 -2.908512e+00 -2.020682e+01 -1.987073e+01 -1.602473e+01 -4.502950e+00 1.133877e+01 -1.633413e+01 -3.600904e+01 -1.671105e+01 -1.966367e+00 -8.597453e-01 -8.014427e+00 -2.558577e+01 -3.110989e+01 -9.961692e+00 9.864455e+00 -6.535962e+00 -2.905310e+01 -1.851853e+01 -1.213573e+01 -2.753198e+00 1.201415e+01 -2.204596e+01 -4.211214e+01 -1.625892e+01 -8.272284e-01 -9.382091e-01 -9.273142e+00 -2.826996e+01 -3.374686e+01 -1.080762e+01 1.079010e+01 -6.631057e+00 -3.360668e+01 -1.925859e+01 -2.053989e+01 2.219693e-01 -1.434189e+00 1.328193e+00 3.693116e-01 4.337239e-01 1.755762e-01 7.219432e-02 2.504163e-02 -4.108854e-02 -3.170088e-02 -9.624294e-02 -4.354784e-02 