# vtk DataFile Version 2.0
Comment goes here
ASCII

DATASET STRUCTURED_POINTS
FIELD FieldData 1
TIME 1 1 double
0.08800000
DIMENSIONS    64   64   1

ORIGIN    0.000   0.000   0.000
SPACING   0.03125 0.03125   1.000

POINT_DATA   4096
SCALARS Omega double
LOOKUP_TABLE default

1.307893e+02 5.651398e+02 -1.660437e+02 2.144710e+02 -9.020496e+01 2.382796e+02 -5.394822e+01 2.773960e+02 -8.689388e+01 7.183943e+01 -2.093167e+01 -4.627405e+01 -3.427458e+01 -1.772318e+02 5.710773e+01 4.705668e+01 -6.208247e+01 4.290100e+01 -3.263650e+01 -9.102262e+00 5.993228e+01 2.245486e+01 -6.063772e+01 -9.247892e+01 3.124602e+01 -1.070024e+02 -2.596401e+02 -1.036067e+02 -2.639247e+02 -1.652008e+02 6.040558e+01 -4.053257e+01 1.116840e+02 8.456950e+01 1.730051e+02 2.438317e+02 8.893742e+01 5.922163e+01 -6.654488e+01 -2.244729e+02 -2.803993e+02 8.056807e+01 6.550904e+01 -1.674379e+02 -3.923661e+01 -8.703065e+00 -1.045095e+02 -3.733331e+01 -6.577023e+01 -4.081775e+01 -4.564686e+01 -5.225230e+01 -7.530628e+00 2.177519e+00 3.499454e+01 -7.958715e+01 1.014961e+02 -1.229063e+02 1.741473e+02 -5.734639e+01 1.821564e+02 -5.090828e+01 2.650509e+02 -5.798031e+02 
-7.986218e+00 5.101943e+02 -2.027204e+02 5.091787e+01 -1.030548e+02 -3.188917e+02 8.863089e+00 -1.436497e+02 2.999662e+00 -2.235204e+02 -9.377166e+01 -2.743588e+02 -8.158214e+01 -2.347024e+02 9.148703e+00 -7.636604e+01 -6.542629e+00 6.431560e+01 -1.896030e+02 -1.460956e+02 -8.365364e+01 1.767582e+02 9.609912e+01 2.263528e+02 1.646324e+02 1.409482e+02 3.313812e+02 4.612867e+02 -4.812150e+00 2.759513e+01 -2.358696e+01 -1.307762e+02 -3.000405e+02 1.166489e+01 2.552045e+01 -3.385636e+01 -1.419540e+02 -8.549531e+01 -5.425619e+02 -1.611287e+02 -2.317089e+02 -6.158207e+01 -7.514625e+01 -4.689268e+01 -2.660380e+01 1.269134e+02 3.424943e+01 1.734818e+02 8.224215e+01 2.509132e+02 1.199482e+02 1.939176e+02 1.087981e+02 1.318331e+02 1.138663e+02 1.446949e+02 6.204979e+01 5.801779e+00 1.164455e+02 -9.848112e+00 9.268564e+01 -3.027313e+01 2.957975e+02 -9.902607e+02 
-3.418438e+02 7.801052e+01 1.071076e+01 -4.755052e+02 -3.949250e+01 -5.203261e+02 -9.183291e+01 -4.651717e+02 -1.812901e+02 -4.052103e+02 -2.654663e+02 -2.799947e+02 -1.923972e+02 -2.170482e+02 -1.216770e+02 -1.323368e+02 -9.129483e+01 4.508063e+00 -1.664311e+02 1.316922e+02 2.381878e+01 2.638904e+02 2.946302e+02 4.155791e+02 6.948420e+02 9.548179e+02 9.623258e+02 9.358770e+02 2.987284e+02 1.828938e+02 -1.230654e+02 -2.259754e+02 -3.705721e+02 -6.283202e+01 -1.703238e+02 -2.950567e+02 -3.583198e+02 -9.841078e+00 -1.787966e+02 5.885401e+01 7.399570e+01 6.240325e+01 8.104515e+01 2.243935e+02 8.145995e+01 2.386249e+02 1.628197e+02 2.404874e+02 1.494852e+02 2.570713e+02 6.233047e+01 1.714874e+02 6.537766e+00 9.905145e+01 -1.259181e+02 3.755360e+01 -2.253088e+02 -8.038923e+01 -2.851108e+02 -2.191964e+02 -3.463083e+02 -3.333786e+02 -4.505207e+02 -8.770651e+02 
-4.599085e+01 -6.250901e+01 4.687868e+01 -2.303812e+02 -1.195961e+02 -1.801624e+02 -6.676439e+01 -1.717077e+02 -1.041612e+02 -1.387027e+02 -1.223478e+02 -8.567652e+01 -7.917431e+01 -6.870815e+01 -6.930935e+01 -4.443714e+01 -5.486719e+01 -8.412283e+00 -5.399867e+01 9.606896e+01 3.105480e+01 9.655834e+01 1.157851e+02 1.460027e+02 2.956251e+02 3.983126e+02 3.061392e+02 3.233434e+02 8.108516e+00 6.592949e+01 -7.608513e+01 -9.660575e+01 -1.112907e+02 -8.446669e+00 -8.368911e+01 -1.140822e+02 -1.397398e+02 1.062418e+00 1.125465e+01 5.988790e+01 6.122318e+01 3.842465e+01 4.399395e+01 1.069634e+02 3.640734e+01 8.649974e+01 5.342237e+01 8.089081e+01 4.642739e+01 6.719985e+01 -1.669774e+00 4.004039e+01 -2.446962e+01 2.706216e+01 -8.688197e+01 -8.674021e+00 -1.214779e+02 -3.739737e+01 -1.572778e+02 -9.463039e+01 -1.823161e+02 -8.820702e+01 -2.939200e+02 -2.311379e+02 
3.471622e+01 -4.236738e+00 5.487894e-01 1.323829e+01 -9.397599e-01 -3.740064e+01 1.208309e+01 4.627728e+00 6.784214e+00 3.080005e+00 1.441934e+00 1.393983e+00 -2.285266e+00 8.907963e-01 -2.963204e+00 8.550096e-01 -3.570841e+00 1.373223e+00 -3.661502e+00 3.014759e+00 -2.633541e+00 5.373218e+00 4.139069e+00 9.163705e+00 6.198222e-02 -1.494140e+01 -1.726633e+02 -5.532679e+02 -4.977598e+02 2.895176e+01 4.070556e+00 1.021135e+00 1.904442e+00 -3.410080e+00 -1.228582e-02 -1.898599e+00 -1.506029e-01 -6.167076e-01 -4.489658e-02 -1.152765e+00 -7.520718e-01 -1.688854e+00 -7.383477e-01 -2.036167e+00 -3.958153e-01 -1.139546e+00 -1.674339e+00 -4.705080e-01 -6.135114e-01 -1.998816e+00 -9.957979e-01 -6.506844e-01 -1.839378e+00 1.393206e+00 -3.523561e+00 2.937766e+00 -5.217327e+00 5.470572e+00 -8.022959e+00 7.370934e+00 -1.140016e+01 6.761792e+00 -1.428832e+01 2.125790e+01 
-6.006119e+00 -2.787623e+00 2.484321e+00 1.203379e+01 -4.336658e+01 -4.054807e+01 9.473961e+00 6.804976e-01 6.299065e+00 2.503532e+00 2.816857e+00 1.419363e+00 9.082924e-01 7.911877e-01 3.827739e-01 6.377761e-01 4.455200e-01 3.271629e-01 9.685151e-01 5.995102e-01 -4.295498e-01 1.623395e+00 -1.353538e+01 -1.295171e+01 -2.342492e+01 -1.221882e+02 -1.030068e+03 -2.740778e+03 -9.227071e+02 1.556114e+02 2.216382e+01 -9.199231e+00 2.190641e+00 -3.717664e+00 1.868316e+00 -2.294036e+00 8.670769e-01 -1.395579e+00 8.752795e-01 -8.089171e-01 1.583905e-01 -3.996894e-01 -1.620900e-01 -2.402132e-01 -1.233389e-01 5.337978e-01 -7.323645e-03 7.086015e-01 -2.689143e-01 5.237724e-01 -4.938109e-01 8.305625e-01 -5.763752e-01 1.590748e+00 -9.928060e-01 1.768985e+00 -8.273644e-01 1.690945e+00 -4.682248e-01 1.204958e+00 -1.374596e+00 1.828220e+00 -4.488131e+00 6.117880e+00 
-1.481358e+00 -2.213051e+00 5.334537e+00 1.497226e+01 -1.769297e+01 -3.877864e+01 8.511993e+00 -1.277651e+00 6.052733e+00 1.271314e+00 3.640960e+00 1.718547e+00 1.948795e+00 1.333688e+00 1.189636e+00 1.045115e-01 9.256809e-03 -3.120264e+00 -2.039829e+00 -7.163503e+00 -7.298008e-01 3.858621e+00 -2.907737e+00 4.885775e+01 5.498454e+00 -4.546021e+02 -3.428376e+03 -4.154102e+03 1.143695e+03 1.058162e+03 2.436325e+02 2.449896e+00 2.957590e+00 -6.515412e+00 2.663967e+00 -2.217082e+00 2.680685e+00 -3.367593e-01 2.166917e+00 2.479627e-01 9.403757e-01 2.837234e-01 -2.843379e-01 1.217199e-01 -5.404543e-01 3.832387e-01 -4.984312e-01 4.684772e-01 -5.114990e-01 3.216921e-01 -6.717115e-01 5.972791e-01 -1.082438e+00 1.529038e+00 -1.885659e+00 2.118064e+00 -1.790041e+00 2.225402e+00 -1.451454e+00 2.084655e+00 -2.565450e+00 2.600716e+00 -4.121180e+00 3.460073e+00 
-2.094293e+00 -3.355841e+00 9.193344e+00 7.854274e+00 -4.692455e+01 -2.781673e+01 1.078703e+01 -2.450600e+00 4.440369e+00 -1.210395e+00 3.053963e+00 -3.002715e-03 1.574762e+00 -4.275682e-01 7.101971e-01 -1.374216e+00 1.921301e+00 -1.542676e+00 1.057229e+01 9.706238e+00 1.816952e+01 1.334665e+01 -2.036374e+01 4.567223e+01 -7.030381e+02 -1.961207e+03 -6.397672e+03 -1.990179e+03 4.555850e+03 2.473698e+03 6.917935e+02 8.267051e+01 2.030074e+01 -1.482172e+00 4.933379e+00 -2.931627e+00 1.551797e+00 -2.418527e+00 4.776772e-01 -1.281108e+00 1.105972e-02 -7.385636e-01 -2.032465e-01 1.792518e-01 -2.070592e-01 8.573233e-01 -1.955616e-01 9.633898e-01 -2.394082e-01 8.086952e-01 2.665036e-02 1.002664e+00 -5.342665e-01 2.026528e+00 -1.513461e+00 2.849422e+00 -1.712741e+00 2.332285e+00 -1.533502e+00 2.350288e+00 -2.250025e+00 3.471858e+00 -3.470911e+00 3.895235e+00 
-4.776896e-01 -4.849656e+00 1.188235e+01 5.369079e+00 -4.024598e+01 -2.146691e+01 1.145279e+01 -7.291379e-01 3.410162e+00 -1.281888e+00 2.732701e+00 9.639484e-01 2.471766e+00 1.929409e+00 2.711218e+00 1.686857e+00 2.359482e+00 -4.237131e+00 -6.408949e+00 -3.424057e+01 -4.156421e+01 3.212568e+01 -5.978760e+00 -5.955333e+01 -5.487154e+02 -1.953743e+03 -7.289528e+03 -1.595331e+03 3.128387e+03 2.647924e+03 8.878775e+02 1.304019e+02 1.129044e+01 -1.040483e+01 2.591026e+00 -2.085582e+00 5.041712e+00 8.228374e-01 2.583852e+00 8.382590e-01 1.903455e+00 1.046691e+00 -1.044949e-01 4.784546e-01 -1.247443e+00 7.088489e-01 -5.190913e-01 5.103452e-01 -4.514670e-01 1.254619e-01 -2.290262e-01 4.532743e-02 -6.490933e-01 1.955888e+00 -2.922444e+00 2.928337e+00 -2.602693e+00 3.347588e+00 -1.583734e+00 2.874533e+00 -2.376563e+00 3.187309e+00 -3.050326e+00 2.554666e+00 
7.329877e-01 -7.289959e+00 1.839531e+01 -6.496776e+00 -6.390242e+01 -6.797571e+00 1.771801e+01 8.711200e-01 2.200600e+00 -3.062208e+00 1.112699e+00 -1.621482e+00 4.446946e-01 -2.128756e+00 -1.240037e+00 -4.379363e+00 -3.269010e+00 -2.426074e+00 6.161434e+00 -2.172136e+01 6.689475e+01 -8.662915e+01 3.453950e+01 3.740926e+02 -5.141687e+01 -1.160436e+03 -4.851961e+03 -3.922128e+03 -1.436099e+03 1.596076e+03 1.037913e+03 2.908866e+02 7.447703e+01 9.300499e+00 5.513280e+00 -4.980225e+00 -3.987614e-01 -3.615476e+00 -2.203152e-01 -9.434347e-01 -1.067082e+00 -2.831903e+00 -1.222937e+00 2.042598e-01 -4.658179e-01 1.474150e+00 -3.116057e-01 1.117912e+00 -4.150450e-01 7.885929e-01 1.293713e+00 3.309025e-01 -8.151437e-02 1.786699e+00 -2.678213e+00 3.673519e+00 -2.875589e+00 2.524978e+00 -2.266424e+00 2.826880e+00 -1.936142e+00 3.604113e+00 -2.175718e+00 2.337440e+00 
2.005502e+00 -8.081172e+00 1.954075e+01 -1.211847e+01 -7.232717e+01 1.783888e+00 1.837008e+01 2.686982e+00 1.540601e+00 -1.799732e+00 4.497802e-01 1.293481e+00 1.460114e+00 4.305578e+00 2.885429e+00 8.853314e+00 1.064954e+01 -2.110331e+01 2.311257e+00 1.095015e+02 2.312364e+01 -1.079882e+00 -2.132557e+01 -3.325876e+02 1.046856e+03 -2.496500e+03 -3.715476e+03 -2.592646e+03 -1.573997e+03 -6.604700e+01 1.216500e+02 -1.165037e+02 -7.803177e+01 -3.547840e+01 -1.343214e+00 2.167552e+00 1.324457e+01 3.157889e+00 -4.013926e-01 2.383649e-01 5.350928e+00 5.725677e+00 1.966596e+00 1.626290e+00 -2.438205e+00 2.216485e+00 2.275528e-02 5.248656e-01 -3.438790e-01 -4.763617e-01 -1.074098e+00 -3.569995e+00 3.316492e+00 4.402773e+00 -6.146749e+00 -4.981666e-01 -7.195940e+00 4.644548e+00 -4.931470e-01 3.415522e+00 -1.726067e+00 2.547882e+00 -1.687079e+00 1.057554e+00 
3.617221e+00 -1.142357e+01 2.832785e+01 -3.042926e+01 -9.637649e+01 2.231780e+01 2.761484e+01 5.302166e+00 1.182034e+00 -3.304093e+00 -1.400629e+00 -1.851945e+00 -1.205683e+00 -3.694107e+00 -1.013984e+00 -9.248932e+00 -5.486148e+01 1.129815e+02 1.476344e+02 -2.352421e+02 -8.849455e+02 8.823794e+01 1.371332e+01 -1.247647e+03 4.348875e+03 -1.729654e+03 -5.189451e+03 -1.503024e+03 4.884022e+02 9.649768e+02 8.175813e+02 4.991738e+02 1.595945e+02 5.318412e+01 1.787245e+01 2.191387e+00 7.548912e+00 3.625389e+00 4.881113e+00 7.976551e+00 6.059037e-01 -1.607043e+01 -8.087731e+00 -2.189736e+00 -3.680191e+00 1.080728e+00 2.355366e+00 -1.143934e+00 -5.583175e+00 -5.702781e+00 -1.963409e+00 -3.184260e+00 8.051393e-01 -7.351852e+00 -3.341230e+01 -5.827940e+01 -9.759238e+01 -5.927773e+01 -1.491220e+01 4.726791e+00 7.119486e-03 3.192932e+00 -3.693048e-01 3.995197e-01 
4.745633e+00 -1.110910e+01 2.786678e+01 -4.033792e+01 -1.185233e+02 3.460110e+01 2.741935e+01 5.846975e+00 1.090758e+00 -2.571505e+00 -2.581183e+00 2.573135e+00 -4.326578e+00 1.376545e+01 -3.290207e+00 1.506206e+01 1.012919e+02 -2.463298e+02 -3.118654e+02 4.996329e+02 9.405478e+02 2.423054e+02 -3.639293e+02 -1.425944e+03 2.872230e+03 6.778702e+02 -2.496977e+03 8.009352e+02 2.380203e+03 4.771453e+03 3.338631e+03 1.349811e+03 3.445108e+02 4.420823e+01 2.491161e+01 -1.241123e+01 -8.622767e+01 -7.190746e+01 -4.989901e+01 -2.776427e+01 -3.038333e+01 -8.283140e+00 5.926556e+00 -1.408162e+01 -3.499023e+01 3.732995e+00 -5.919057e+00 -4.051892e+01 -6.544911e+01 -9.898191e+01 -1.028098e+02 -4.593074e+01 2.287149e+01 -1.878502e+01 -2.334122e+02 -5.182798e+02 -7.749182e+02 -5.641624e+02 -1.815213e+02 -1.000880e+01 -3.173582e+00 1.770791e-02 -6.215130e-03 -7.200869e-01 
6.081587e+00 -1.537028e+01 3.873262e+01 -6.695216e+01 -1.471246e+02 6.354841e+01 3.865363e+01 9.381802e+00 1.453446e+00 -4.681260e+00 -2.617824e+00 -4.566362e+00 -2.833988e+00 -4.936532e+00 1.244063e+00 1.374825e+00 -9.864920e+01 -5.628855e+01 -4.372780e+02 6.945166e+02 -3.620679e+01 -8.945223e+02 1.448649e+03 -1.719664e+03 -2.876840e+03 1.876196e+03 2.672103e+03 6.658351e+03 5.510633e+03 1.142260e+03 -1.969724e+02 -7.408754e+02 -6.438157e+02 -1.640655e+02 -2.282618e+02 -1.798388e+02 3.471205e+02 3.391342e+02 2.046992e+02 1.362138e+02 2.197389e+02 2.994773e+02 5.116705e+01 -1.837966e+02 -4.062712e+02 -1.351379e+02 -7.565000e+01 -4.307211e+02 -6.354959e+02 -8.255983e+02 -6.268523e+02 -9.863612e+01 1.103159e+01 -4.855526e+02 -1.372684e+03 -2.441137e+03 -3.166482e+03 -2.263536e+03 -6.432424e+02 1.591213e+01 8.129001e+00 -3.150170e-01 1.127771e+00 -2.592803e+00 
7.516174e+00 -1.366532e+01 3.656006e+01 -7.960686e+01 -1.784071e+02 7.843705e+01 3.645601e+01 9.506596e+00 1.855950e+00 -5.131807e+00 -8.402272e-01 -7.712269e+00 -8.331541e+00 6.686062e+00 5.132476e+01 -1.465609e+02 -1.676944e+02 1.389042e+03 9.467472e+00 -1.153634e+03 -3.133298e+03 -1.694146e+03 4.544711e+02 1.941646e+02 -2.050615e+03 2.296307e+02 1.313109e+03 2.460607e+03 5.795206e+03 1.284110e+03 -5.327855e+02 5.507555e+01 9.248106e+02 7.091092e+02 7.307508e+02 7.170128e+02 2.454389e+01 -2.925911e+02 -3.971033e+02 -9.079589e+01 4.024170e+02 -1.040202e+03 -2.338091e+03 -2.705440e+03 -3.092893e+03 -2.129386e+03 -2.101608e+03 -3.342045e+03 -3.893359e+03 -3.994969e+03 -2.951637e+03 -1.764983e+03 -1.971307e+03 -2.991156e+03 -3.573396e+03 -4.686341e+03 -5.253176e+03 -3.411135e+03 -7.994392e+02 8.923201e+01 1.620720e+01 -1.925540e+00 4.145183e+00 -2.170316e+00 
8.038351e+00 -1.769076e+01 4.876922e+01 -1.136852e+02 -2.119681e+02 1.162464e+02 4.784263e+01 1.524570e+01 1.106675e+00 -6.906404e+00 5.314236e+00 -3.049736e+01 7.805031e+00 5.810370e+01 -2.993222e+02 2.598575e+02 1.218656e+03 -2.775949e+02 -3.138864e+03 3.923312e+02 1.404190e+03 1.072387e+03 -1.408763e+03 5.297592e+01 -2.261254e+03 -3.366717e+03 -1.771107e+03 -1.022654e+02 3.313125e+03 1.252649e+03 7.056491e+02 1.326512e+03 -2.709146e+01 -1.198333e+03 -8.945268e+02 -5.595996e+02 -1.218892e+03 -1.530949e+03 -2.499500e+03 -3.389709e+03 -4.382244e+03 -6.084551e+03 -5.471676e+03 -6.767637e+03 -9.617338e+03 -1.046332e+04 -1.017257e+04 -1.080079e+04 -1.357676e+04 -1.260408e+04 -8.063983e+03 -6.831394e+03 -6.978361e+03 -5.488905e+03 -2.787928e+03 -2.724434e+03 -3.585768e+03 -2.178216e+03 -2.697873e+02 2.426619e+02 1.207294e+02 1.828917e+01 7.095776e+00 -4.815260e+00 
6.927085e+00 -1.515196e+01 4.475040e+01 -1.230038e+02 -2.405968e+02 1.258205e+02 4.496816e+01 1.306530e+01 2.430811e+00 -4.807484e+00 6.456346e+00 -3.172750e+01 4.761108e+01 -1.439330e+02 1.125953e+02 1.416242e+02 -3.172313e+02 -1.143850e+03 3.114299e+03 3.287561e+03 -2.099275e+03 -1.156508e+03 3.085601e+03 -2.830452e+03 -3.450269e+03 5.928033e+02 3.919878e+02 3.525256e+02 5.930221e+02 3.567404e+02 2.213397e+01 -3.332832e+02 -1.629715e+03 -2.207320e+03 -2.497967e+03 -2.924701e+03 -3.009618e+03 -3.855826e+03 -2.431170e+03 3.014290e+02 -2.445639e+03 -5.756840e+03 -5.524172e+03 -5.979475e+03 -5.973797e+03 -5.547700e+03 -4.090134e+03 -5.623924e+03 -8.442292e+03 -6.915313e+03 -5.405428e+03 -5.908446e+03 -2.720715e+03 4.512927e+02 -2.288077e+02 -5.648037e+02 2.219918e+03 5.448437e+03 4.531352e+03 1.550403e+03 2.032085e+02 -2.259883e+01 -9.967926e+00 -8.681034e+00 
9.169502e+00 -1.659745e+01 5.844545e+01 -1.620834e+02 -2.745908e+02 1.655306e+02 5.907678e+01 1.730502e+01 2.974751e-01 8.429261e+00 -1.055466e+01 2.002627e+01 5.401699e-01 -3.748916e+01 1.476684e+02 -3.809855e+02 8.385426e+02 -1.242559e+03 -6.023054e+02 1.754115e+03 2.131744e+03 -1.431043e+03 -1.044947e+03 -3.236576e+03 1.191546e+03 2.845338e+03 4.088965e+03 3.683183e+02 -5.684271e+01 2.225604e+02 -4.471051e+02 -9.556970e+01 1.609510e+03 2.696315e+03 3.022974e+03 2.638557e+03 -5.338014e+01 -2.101913e+03 9.044217e+01 4.418350e+03 8.583949e+03 8.423530e+03 3.090513e+03 3.434274e+03 9.127602e+03 1.123244e+04 8.181817e+03 8.621268e+03 1.503316e+04 1.132491e+04 3.349954e+03 7.265438e+03 1.077412e+04 3.816223e+03 -4.409693e+02 4.647722e+03 8.504971e+03 6.178613e+03 2.634097e+03 7.864289e+02 1.830825e+02 4.836488e+01 1.484559e+01 1.011684e+00 
6.526107e+00 -1.425168e+01 5.215980e+01 -1.578499e+02 -2.846736e+02 1.611737e+02 5.345469e+01 1.406567e+01 3.573272e-01 8.046462e+00 -1.409001e+01 2.819445e+01 -1.658979e+01 3.567754e+01 -2.062309e+01 3.101488e+02 -2.780247e+02 -1.141529e+02 7.494600e+02 1.246866e+03 -7.047514e+02 -2.739200e+03 7.744715e+02 4.283328e+03 -2.866898e+03 -5.361230e+03 -2.612801e+02 4.450689e+02 3.955527e+01 -2.235298e+02 -2.470711e+02 6.140411e+01 8.655781e+02 2.458889e+03 3.331969e+03 2.761258e+03 1.830683e+03 1.726608e+03 2.118109e+03 3.680457e+03 5.144592e+03 5.325336e+03 4.944486e+03 6.225200e+03 9.365988e+03 1.025682e+04 7.647632e+03 7.743388e+03 1.087621e+04 1.212975e+04 7.649804e+03 4.249255e+03 5.683542e+03 6.090182e+03 3.214830e+03 1.732018e+03 2.080738e+03 1.400591e+03 4.112230e+02 9.070692e+01 3.497375e+00 9.426225e-01 2.015098e-01 -3.339029e+00 
7.495829e+00 -1.528936e+01 6.430831e+01 -1.940027e+02 -3.118064e+02 2.002071e+02 6.478373e+01 1.663893e+01 2.067816e+00 2.241594e-01 -4.294747e+00 4.207110e-01 -1.019751e+01 8.949827e+00 -4.560188e+01 1.037694e+02 -2.648958e+02 3.462687e+02 -9.352598e+01 2.089908e+02 1.121977e+03 5.629082e+02 -5.889933e+02 -6.455855e+02 -3.309719e+03 6.188569e+02 -4.590900e+01 4.732681e+02 1.218261e+02 5.271447e+02 -3.276174e+02 -8.488569e+02 -7.819990e+02 -4.176003e+02 6.595338e+02 5.616592e+02 -7.500217e+02 -1.733737e+03 -1.937524e+03 -6.557231e+02 7.550349e+02 5.025162e+02 -2.254043e+02 -1.469239e+01 1.434175e+03 2.665285e+03 1.648512e+03 1.323200e+03 2.493081e+03 3.195925e+03 2.140276e+03 2.395778e+02 -4.412456e+02 2.111500e+02 -8.337252e+01 2.871347e+02 6.379328e+02 3.287815e+02 6.203071e+01 1.329243e+01 -1.924190e+00 3.156499e+00 3.020781e+00 -1.113399e+00 
6.330094e+00 -1.238527e+01 5.717445e+01 -1.776179e+02 -3.052715e+02 1.851711e+02 5.668389e+01 1.576206e+01 1.247016e+00 6.924089e-01 -1.218063e+00 -5.947440e+00 1.996108e+00 -1.142442e+01 -1.330500e+01 5.667246e+00 -2.813031e+01 -8.326894e+01 -6.207309e+01 -3.041023e+02 5.616515e+02 -3.256471e+02 -6.308276e+02 5.344906e+02 1.707598e+03 2.635406e+03 5.875466e+02 -2.648056e+02 -4.059002e+02 -3.493987e+02 6.521136e+01 9.065536e+01 4.285354e+01 -7.658979e+01 -1.337859e+02 -3.022515e+01 1.010062e+02 2.543300e+02 2.063298e+02 -2.244179e+02 -3.142730e+02 3.262066e+01 6.180114e+01 -3.918846e+01 4.130616e+01 8.516126e+01 -4.722398e+01 1.323887e+02 3.400466e+02 5.420635e+02 1.936870e+02 -7.339746e+02 -4.772461e+02 1.784161e+02 9.771599e+01 -5.357375e+00 1.476222e+01 1.496236e+01 -4.300928e+00 2.008810e+00 -1.915282e+00 1.738204e+00 2.467295e+00 -1.374774e+00 
6.609723e+00 -1.358574e+01 6.692075e+01 -2.084217e+02 -3.232030e+02 2.161186e+02 6.687742e+01 1.611807e+01 2.789701e+00 -1.841411e+00 -7.384516e-02 -6.414132e+00 8.094230e-01 -7.595912e+00 -1.300176e+00 -3.331274e+00 2.990452e+00 -5.160545e+00 -1.008789e+01 -2.340053e+02 2.561555e+02 2.341074e+02 -1.684464e+02 -8.200316e+02 -1.393407e+03 -9.782878e+02 -5.340067e+02 -6.491005e+02 -1.649846e+02 2.148822e+02 1.741531e+02 5.282354e+01 3.622755e+01 5.382456e+01 4.263975e+01 -1.767777e+01 -5.375570e+01 4.053942e+01 1.279386e+02 1.010834e+02 2.589466e+01 -4.562407e+00 -2.108101e+01 1.161269e+01 4.447048e+01 1.735143e+01 1.401924e+01 1.322281e+00 6.020346e+01 8.938168e+01 1.026926e-01 -1.360257e+02 -1.595291e+01 9.890474e+01 2.791603e+01 -1.456608e+01 2.751006e+01 2.063129e+01 1.186629e+01 5.485591e+00 1.560028e+00 1.204382e+00 3.079264e+00 -1.178591e+00 
6.132768e+00 -1.173807e+01 6.066276e+01 -1.874918e+02 -3.086516e+02 1.955473e+02 5.976137e+01 1.454345e+01 2.773038e+00 -1.919880e+00 -1.536430e-01 -5.999646e+00 -3.323279e-01 -7.323111e+00 -2.369942e-01 -9.685293e+00 7.221633e+00 -1.686342e+00 1.829013e+01 2.444240e+01 1.323593e+02 7.821729e+01 -2.662049e+02 1.536582e+02 1.223846e+02 -8.699020e+02 -1.615011e+03 -1.812744e+03 -1.362015e+03 -4.187281e+02 -3.884671e+01 -4.770912e+01 -2.114950e+01 -3.621494e+01 -8.368730e+00 1.605030e+00 -9.933183e+00 -2.432075e+01 -2.606221e+01 -3.017832e+01 -5.057867e+00 1.301498e+01 4.264055e+00 -5.445010e+00 -5.162863e+00 -3.826492e+01 -9.706156e+00 4.995776e+00 3.390270e+00 1.811521e+00 -2.557349e+01 -7.827190e+00 -5.013483e+01 1.080640e+01 1.250869e+01 -1.398971e+01 -3.177593e+00 -5.062874e+00 -1.451984e+00 -5.197692e-01 1.614218e-01 -2.387252e-01 3.069454e+00 -1.403953e+00 
6.383702e+00 -1.289660e+01 6.709696e+01 -2.112034e+02 -3.185615e+02 2.184411e+02 6.645013e+01 1.540113e+01 3.398255e+00 -1.320688e+00 3.265320e-01 -3.959325e+00 3.662619e-01 -4.082387e+00 1.770524e+00 -4.408714e+00 6.725065e+00 -8.652981e+00 3.195558e+00 -7.597590e+00 -3.991566e+01 -5.860211e+01 -1.467851e+02 -2.254516e+02 -6.733146e+02 -2.537137e+03 -1.742214e+03 -1.784577e+03 -7.648889e+02 5.395977e+02 5.236519e+02 9.766860e+01 3.053392e+01 1.419040e+01 7.532796e+00 -6.521264e+00 3.048063e+00 1.094177e+01 1.573422e+01 1.042547e+01 6.705648e-01 -1.494970e+00 -2.009442e+00 -2.743193e+00 4.747640e+00 5.424685e+00 9.393579e+00 1.796012e+00 5.976298e+00 2.563114e+00 2.332457e+00 1.152914e+01 -4.550599e+00 2.820048e+00 6.535505e-01 -4.211508e+00 1.535170e+00 9.289254e-01 3.688565e+00 1.555525e+00 2.773660e+00 -1.495720e-01 3.859948e+00 -1.464034e+00 
5.994959e+00 -1.205411e+01 6.197329e+01 -1.907630e+02 -3.026967e+02 1.978245e+02 6.046854e+01 1.436324e+01 2.795599e+00 -1.024885e+00 -8.079602e-01 -3.746893e+00 -1.481423e+00 -5.338748e+00 -5.979958e-01 -7.986861e+00 2.877752e+00 -1.022306e+01 4.191829e+00 -1.740374e+00 2.562613e+01 4.282036e+01 -1.932695e+02 -6.963075e+02 -2.833720e+03 -5.183670e+03 -5.503582e+02 1.973103e+03 2.785082e+03 2.138984e+03 7.092544e+02 5.230491e+01 -4.010963e+00 -8.593932e+00 -5.549464e+00 -3.202016e+00 -3.911109e+00 -6.063511e+00 -1.752210e+00 -5.832952e+00 -1.002805e+00 1.016149e+00 1.527060e-01 -9.542653e-01 -3.432789e-01 -6.325249e+00 -1.689058e+00 -1.647424e+00 -1.399720e+00 -2.110556e+00 -3.823755e+00 2.445293e+00 -3.146517e+00 -1.264242e+00 2.615051e+00 -8.003068e-02 1.053832e+00 -4.768662e-01 -2.590636e-02 -1.442279e+00 9.556406e-01 -1.851348e+00 3.289051e+00 -2.093029e+00 
6.266071e+00 -1.282442e+01 6.546411e+01 -2.086549e+02 -3.084208e+02 2.147425e+02 6.404973e+01 1.507510e+01 2.887329e+00 1.321432e-01 -3.815081e-01 -1.469660e+00 -5.957813e-01 -1.241369e+00 7.515043e-01 -6.414605e-01 5.696354e+00 -2.379408e+00 2.287422e+01 -1.416927e+01 1.975024e+01 1.947894e+02 -1.691139e+02 -8.373956e+02 -4.657432e+03 -4.338516e+03 7.503883e+02 4.715337e+03 5.067189e+03 2.540739e+03 5.216413e+02 2.727696e+01 -9.655255e+00 8.240972e+00 5.073764e+00 2.958818e+00 5.363273e+00 2.782592e-01 2.966283e+00 2.218782e+00 5.114469e-01 1.132210e-01 7.814660e-01 -6.561554e-01 -4.823257e-02 6.653840e-01 3.291141e+00 2.067638e+00 3.819099e+00 6.128998e-01 1.509350e+00 3.029550e+00 2.630326e+00 -1.172181e+00 2.079911e+00 7.309796e-03 -6.175012e+00 2.916327e-01 1.423087e+00 7.584274e-01 3.339055e+00 -8.757134e-01 4.335958e+00 -1.922282e+00 
5.870490e+00 -1.250437e+01 6.156289e+01 -1.918315e+02 -2.951423e+02 1.975748e+02 5.941545e+01 1.454557e+01 2.118914e+00 4.673989e-01 -1.733860e+00 -1.432352e+00 -2.924628e+00 -2.790434e+00 -3.361616e+00 -5.515268e+00 -3.104505e+00 -1.151457e+01 -1.653750e+01 -6.843812e+00 -3.024051e+00 -2.721536e+02 -4.065935e+02 3.704493e+02 -4.580735e+03 -2.421871e+03 8.800617e+02 3.536030e+03 3.069300e+03 8.877407e+02 6.710970e+01 1.398915e+01 -4.168216e+00 -4.092810e+00 -2.383334e+01 -4.931930e+00 -3.001476e+00 -4.441439e+00 3.054505e+00 6.965903e-01 -1.621510e+00 6.872920e-01 -7.566146e-01 2.107653e+00 1.553597e-01 1.597023e-01 5.032702e-01 -7.733768e+00 -1.570174e+00 3.856518e+00 -7.136872e-01 -1.707413e+00 -1.854508e+00 -1.068802e+01 6.465410e-01 1.568252e+01 -3.583065e+00 3.683550e+00 1.312017e+00 -1.926839e+00 1.351308e+00 -2.877012e+00 3.458624e+00 -2.696304e+00 
5.998973e+00 -1.282602e+01 6.276006e+01 -2.062121e+02 -3.001994e+02 2.107412e+02 6.073503e+01 1.464023e+01 1.897079e+00 1.691334e+00 -1.643945e+00 1.207267e+00 -2.527387e+00 2.492745e+00 -3.765452e+00 8.045212e+00 -7.141631e+00 8.172667e+00 4.311162e+01 -6.128064e+01 -3.278745e+01 -1.769669e+02 6.817479e+02 -1.139350e+03 -3.498292e+03 -1.674602e+03 -6.226332e+02 1.033747e+03 1.049894e+03 3.936498e+01 2.171115e+01 -7.161144e+00 -8.826763e+01 -1.534105e+02 -9.080543e+01 -1.272910e+01 1.800456e+00 -3.924704e+00 -4.784816e+00 -4.181541e+00 -1.164520e+01 -1.241364e+01 1.117971e+00 3.577262e+00 -7.411021e+00 -8.363632e-01 -2.211725e-01 6.241192e+00 1.552891e+00 7.558160e-01 -2.234512e+00 2.268250e+00 6.764383e+00 -5.414035e+00 1.328951e+01 -1.040659e+02 -1.265019e+02 -2.672453e+01 4.008326e+00 6.357487e-01 4.671918e+00 -1.746172e+00 4.726046e+00 -2.502041e+00 
5.637497e+00 -1.269894e+01 6.000980e+01 -1.943909e+02 -2.904246e+02 1.983937e+02 5.753146e+01 1.410024e+01 1.480276e+00 1.758321e+00 -2.607439e+00 1.499359e+00 -4.418146e+00 9.229305e-01 -5.467466e+00 -4.722224e-02 -1.544685e+01 3.374466e+01 -6.371998e+01 -3.968652e+02 6.346152e+02 -1.395574e+03 1.445096e+03 -1.730643e+03 -2.669149e+03 -1.439266e+03 -1.194850e+03 2.352716e+02 1.510215e+02 -2.224237e+02 -1.512762e+01 -3.253605e+02 -1.047309e+03 -1.661683e+03 -1.151634e+03 -3.530529e+02 -1.848131e+01 -5.627198e+01 -1.529268e+01 -5.518622e+01 -8.784075e+01 -1.177240e+02 -2.185628e+01 1.237358e+00 -5.150159e+01 -1.678152e+01 -1.127220e+01 -4.141059e+01 -1.597594e+01 -9.814568e+00 -7.398826e+00 1.305571e+01 -7.931609e+01 -1.221857e+02 -2.220864e+02 -9.003134e+02 -8.441953e+02 -4.186293e+02 -5.107444e+01 -9.428006e+00 1.685651e+00 -4.650005e+00 4.022410e+00 -3.229479e+00 
5.211969e+00 -1.240038e+01 5.917704e+01 -2.063292e+02 -2.953280e+02 2.089756e+02 5.713985e+01 1.288193e+01 1.397631e+00 1.961096e+00 -3.052435e+00 4.358988e+00 -5.938023e+00 7.301974e+00 -7.683053e+00 1.200191e+01 -9.192337e+00 7.955637e+01 -4.762055e+02 1.428694e+03 -2.036227e+03 -1.477256e+03 2.301290e+03 -2.257586e+02 -2.464892e+03 3.204938e+02 -4.035930e+02 1.399253e+01 -8.787857e+02 -1.218557e+03 -1.679501e+03 -2.322978e+03 -3.406184e+03 -4.368394e+03 -2.973352e+03 -1.212642e+03 4.988836e+00 2.612085e+02 -4.442241e+02 -6.377940e+02 -8.506752e+02 -1.111402e+03 -4.251178e+02 -3.333242e+02 -4.559058e+02 -4.370366e+02 -3.728899e+02 2.120181e+01 3.452385e+01 -5.399390e+02 -3.409560e+02 -2.611539e+02 3.143696e+01 1.609944e+02 -2.235589e+03 -3.006150e+03 -1.726170e+03 -4.315720e+02 2.170186e+02 4.543005e+01 1.001645e+01 -4.359909e+00 5.273237e+00 -3.162581e+00 
4.486466e+00 -1.201165e+01 5.715446e+01 -1.987430e+02 -2.865589e+02 2.008806e+02 5.493494e+01 1.211580e+01 1.798805e+00 6.128421e-01 -1.467387e+00 2.112759e+00 -4.792553e+00 4.620772e+00 -1.072093e+00 -4.119095e+01 1.111178e+02 -3.003533e+02 1.524467e+01 1.309395e+03 -3.014959e+03 1.276124e+03 3.284552e+03 2.581729e+01 -7.934793e+02 -2.430322e+02 1.731466e+03 1.432230e+03 -9.195343e+02 -1.723967e+03 4.630992e+02 1.126585e+03 -4.353650e+03 -6.504595e+03 -4.120810e+03 -9.327610e+02 9.821389e+02 -3.121681e+02 -2.709187e+03 -2.955959e+03 -3.072693e+03 -3.467123e+03 -2.297421e+03 -2.089135e+03 -2.012726e+03 -2.208877e+03 -1.603841e+03 -4.812501e+02 -1.265803e+03 -2.421740e+03 -1.413094e+03 -6.239534e+02 -3.866771e+02 -8.516227e+02 -4.906380e+03 -3.986253e+03 -6.396347e+02 1.118245e+03 9.865547e+02 2.179556e+02 3.291276e+01 -4.163319e+00 4.915924e+00 -3.035082e+00 
2.493650e+00 -1.036153e+01 5.384387e+01 -2.056886e+02 -2.871301e+02 2.076352e+02 5.198223e+01 9.773869e+00 2.794115e+00 -4.938705e+00 3.651260e+00 -7.603554e+00 -3.933242e+00 8.550969e+00 -3.972910e+01 9.565849e+01 -7.131247e+01 -6.962761e+02 2.614930e+03 -2.079040e+03 5.168434e+01 3.589388e+03 1.975804e+03 -1.196601e+03 4.720248e+02 2.824781e+03 6.284138e+03 -1.748476e+03 -1.001782e+03 1.126302e+03 1.631020e+03 1.513228e+03 -3.338360e+02 4.469703e+02 4.555060e+03 6.112437e+03 -4.994557e+01 -5.710178e+03 -5.205081e+03 -2.649829e+03 -3.145985e+03 -6.028105e+03 -3.332088e+03 -9.777528e+02 -2.119966e+03 -3.313532e+03 -3.172653e+03 -4.240511e+02 -2.069766e+03 -3.651547e+03 -1.514366e+03 -1.207555e+03 4.370262e+02 -1.088678e+03 -4.171352e+03 -2.176289e+03 2.274829e+03 3.639885e+03 2.110546e+03 4.542312e+02 4.586794e+01 -5.856439e+00 1.420798e-01 -2.406521e+00 
1.009715e+00 -9.112083e+00 5.193113e+01 -1.995920e+02 -2.742553e+02 2.011113e+02 5.029426e+01 8.987436e+00 3.806807e+00 -6.660919e+00 7.873306e+00 -1.356043e+01 1.228910e+01 -2.300848e+01 4.279636e+01 1.860802e+00 -2.786630e+02 1.259468e+03 -7.205922e+02 4.933484e+02 2.506569e+03 3.583840e+02 -3.365588e+02 6.059592e+01 3.500240e+03 3.383248e+03 -2.210111e+03 -3.519323e+03 1.841124e+03 1.455889e+03 3.051102e+02 1.367764e+03 5.533941e+03 6.594416e+03 6.793253e+03 2.418092e+03 -3.079992e+03 -3.640092e+03 4.585261e+02 3.082437e+03 -8.558650e+02 7.667826e+02 5.475756e+03 2.637152e+03 -1.326966e+03 -1.585708e+03 2.951586e+03 4.281274e+03 -2.136932e+03 -1.758349e+03 6.959045e+02 3.036211e+03 5.630674e+03 -1.074903e+03 -1.517445e+03 2.408849e+03 5.106082e+03 3.405171e+03 9.814125e+02 1.645078e+02 1.315800e+01 6.262728e+00 -1.419003e+00 7.852819e-01 
-7.334774e-01 -6.861458e+00 4.657086e+01 -1.979816e+02 -2.648964e+02 1.980393e+02 4.507925e+01 8.517929e+00 -1.699865e-01 2.627005e+00 -2.801725e+00 4.245415e+00 -8.390407e-01 -2.230900e-01 3.236908e+00 3.539623e+01 -7.317023e+00 5.434284e+01 -3.318137e+02 1.601407e+03 -2.592487e+03 -1.567320e+02 2.174593e+02 -1.001315e+03 2.513031e+02 -1.534096e+03 -2.902687e+03 2.305171e+02 -1.172740e+03 3.148170e+03 2.369058e+02 -3.406384e+03 -7.130066e+02 6.531670e+02 1.295074e+03 2.699123e+03 5.075424e+03 4.469264e+03 2.614104e+03 2.690960e+03 6.423716e+03 9.610018e+03 2.980545e+03 -7.437186e+02 1.897407e+03 5.955731e+03 7.963929e+03 3.485867e+02 -2.011991e+03 2.658454e+03 4.598730e+03 5.674506e+03 9.384570e+02 -1.776740e+03 2.714053e+03 3.384807e+03 1.545560e+03 1.006447e+03 1.232394e+02 3.863063e+01 -6.564369e+00 6.205373e+00 -3.580088e+00 2.167437e+00 