# vtk DataFile Version 2.0
Comment goes here
ASCII

DATASET STRUCTURED_POINTS
FIELD FieldData 1
TIME 1 1 double
0.06000000
DIMENSIONS    64   64   1

ORIGIN    0.000   0.000   0.000
SPACING   0.03125 0.03125   1.000

POINT_DATA   4096
SCALARS P double
LOOKUP_TABLE default

-3.859909e+01 -2.079057e+02 -2.657390e+01 -2.171460e+02 7.988381e+01 1.293258e+02 -2.712336e+01 1.246197e+02 -3.623701e+01 1.166670e+02 -4.092915e+01 1.062220e+02 -4.104703e+01 9.163083e+01 -3.487836e+01 7.121767e+01 -2.404572e+01 5.021449e+01 -1.443471e+01 3.144952e+01 -7.967995e+00 1.647142e+01 -9.213702e+00 1.236035e+01 -2.052902e+01 1.223736e+01 -2.982397e+01 7.384638e+00 -3.450599e+01 -1.632160e+00 -3.593716e+01 -1.176211e+01 -3.942853e+01 -2.045117e+01 -4.182792e+01 -3.056824e+01 -4.492982e+01 -4.114952e+01 -4.560079e+01 -5.398377e+01 -4.741341e+01 -6.453688e+01 -4.957545e+01 -7.868750e+01 -4.843138e+01 -9.236744e+01 -5.164037e+01 -1.005633e+02 -6.005459e+01 -1.042259e+02 -7.175426e+01 -1.068137e+02 -7.981182e+01 -1.158784e+02 -8.030993e+01 -1.315812e+02 -7.483704e+01 -1.512935e+02 -6.499919e+01 -1.738384e+02 -5.418348e+01 -1.932752e+02 -4.342284e+01 -2.134582e+02 
-8.728563e+00 -1.339912e+02 -1.428380e+00 -1.416105e+02 7.764252e+01 1.153414e+02 -1.834016e+00 1.105695e+02 -7.665831e+00 1.041673e+02 -1.097473e+01 9.673893e+01 -1.224129e+01 8.747309e+01 -1.040341e+01 7.509498e+01 -6.156927e+00 6.243705e+01 -2.494157e+00 5.058836e+01 1.806031e-01 3.993628e+01 -5.414172e-01 3.478301e+01 -6.238661e+00 3.129084e+01 -1.019847e+01 2.500471e+01 -1.174750e+01 1.672441e+01 -1.170351e+01 8.084203e+00 -1.309319e+01 4.535878e-01 -1.376172e+01 -8.005042e+00 -1.493975e+01 -1.655853e+01 -1.474917e+01 -2.636935e+01 -1.533824e+01 -3.466043e+01 -1.626379e+01 -4.497324e+01 -1.512348e+01 -5.515832e+01 -1.616899e+01 -6.252105e+01 -1.976452e+01 -6.744098e+01 -2.521436e+01 -7.143419e+01 -2.888277e+01 -7.856081e+01 -2.888004e+01 -8.860179e+01 -2.617050e+01 -1.002817e+02 -2.129843e+01 -1.133072e+02 -1.604097e+01 -1.243274e+02 -1.062834e+01 -1.369070e+02 
8.327230e+00 -8.847599e+01 1.076861e+01 -9.227623e+01 3.732287e+01 1.005674e+02 1.086074e+01 9.706726e+01 8.706611e+00 9.241775e+01 7.045379e+00 8.723695e+01 5.577544e+00 8.157793e+01 4.611464e+00 7.516281e+01 4.095943e+00 6.857258e+01 3.611197e+00 6.174494e+01 3.423100e+00 5.453636e+01 3.093865e+00 4.798701e+01 2.151049e+00 4.135345e+01 1.824013e+00 3.407302e+01 1.831003e+00 2.658390e+01 1.982197e+00 1.921376e+01 1.699412e+00 1.210628e+01 1.675831e+00 4.753803e+00 1.549820e+00 -2.547131e+00 1.759659e+00 -1.009117e+01 1.879176e+00 -1.719414e+01 1.980781e+00 -2.460945e+01 2.581899e+00 -3.201452e+01 2.889105e+00 -3.900089e+01 2.923012e+00 -4.550637e+01 2.623556e+00 -5.160273e+01 2.607293e+00 -5.793769e+01 3.068502e+00 -6.426744e+01 3.790967e+00 -7.041074e+01 4.858861e+00 -7.644451e+01 6.056436e+00 -8.159716e+01 7.472831e+00 -8.724337e+01 
8.240885e+00 -9.332778e+01 1.103237e+01 -9.700072e+01 1.388365e+01 1.040678e+02 1.101838e+01 9.999863e+01 8.347782e+00 9.490920e+01 6.357339e+00 8.922514e+01 4.883713e+00 8.299179e+01 3.973377e+00 7.614888e+01 3.513092e+00 6.903419e+01 3.209487e+00 6.179169e+01 2.982141e+00 5.455214e+01 2.536337e+00 4.774667e+01 1.781386e+00 4.096697e+01 1.357077e+00 3.380103e+01 1.267648e+00 2.638256e+01 1.347428e+00 1.894467e+01 1.304419e+00 1.159699e+01 1.359797e+00 4.150623e+00 1.422310e+00 -3.326912e+00 1.603771e+00 -1.090288e+01 1.713725e+00 -1.833569e+01 1.752744e+00 -2.585812e+01 1.931060e+00 -3.327048e+01 1.933487e+00 -4.027196e+01 1.644863e+00 -4.680141e+01 1.138982e+00 -5.305349e+01 8.723046e-01 -5.946250e+01 1.125936e+00 -6.601102e+01 1.902478e+00 -7.256709e+01 3.181827e+00 -7.898365e+01 4.747377e+00 -8.483879e+01 6.513237e+00 -9.015113e+01 
8.523072e+00 -9.040056e+01 1.067893e+01 -9.395428e+01 1.327021e+01 1.008332e+02 1.080378e+01 9.712290e+01 8.689573e+00 9.245901e+01 7.031677e+00 8.717801e+01 5.713276e+00 8.140047e+01 4.746088e+00 7.514544e+01 4.068004e+00 6.859977e+01 3.549281e+00 6.182744e+01 3.172499e+00 5.489748e+01 2.784318e+00 4.805569e+01 2.308602e+00 4.114187e+01 2.027614e+00 3.397617e+01 1.910197e+00 2.666901e+01 1.872817e+00 1.935798e+01 1.765361e+00 1.210291e+01 1.719414e+00 4.795081e+00 1.699602e+00 -2.520984e+00 1.781964e+00 -9.874557e+00 1.892667e+00 -1.713365e+01 2.033278e+00 -2.442829e+01 2.287829e+00 -3.165192e+01 2.480167e+00 -3.864361e+01 2.561158e+00 -4.535609e+01 2.564943e+00 -5.184778e+01 2.714864e+00 -5.829124e+01 3.121052e+00 -6.463757e+01 3.765339e+00 -7.078548e+01 4.663508e+00 -7.665171e+01 5.764275e+00 -8.201823e+01 7.067673e+00 -8.693435e+01 
7.800609e+00 -9.508469e+01 1.002761e+01 -9.914924e+01 1.215808e+01 1.034841e+02 1.019602e+01 9.955771e+01 8.077634e+00 9.461623e+01 6.328772e+00 8.896793e+01 4.999443e+00 8.277406e+01 4.060797e+00 7.612425e+01 3.425946e+00 6.918576e+01 2.974011e+00 6.208837e+01 2.603366e+00 5.495838e+01 2.191724e+00 4.792483e+01 1.759095e+00 4.087990e+01 1.457712e+00 3.368008e+01 1.309972e+00 2.633905e+01 1.274196e+00 1.894499e+01 1.253937e+00 1.155005e+01 1.284921e+00 4.123098e+00 1.337118e+00 -3.327594e+00 1.410761e+00 -1.080365e+01 1.480194e+00 -1.824067e+01 1.512533e+00 -2.565718e+01 1.536691e+00 -3.296266e+01 1.493108e+00 -4.003575e+01 1.347819e+00 -4.684770e+01 1.181290e+00 -5.348115e+01 1.179783e+00 -6.008219e+01 1.489276e+00 -6.666658e+01 2.158368e+00 -7.315995e+01 3.183901e+00 -7.943990e+01 4.496992e+00 -8.531271e+01 6.052697e+00 -9.063639e+01 
7.915272e+00 -9.306700e+01 9.669403e+00 -9.744601e+01 1.156342e+01 1.014971e+02 9.924219e+00 9.747374e+01 8.198155e+00 9.273563e+01 6.734704e+00 8.738781e+01 5.566027e+00 8.155472e+01 4.660542e+00 7.532056e+01 3.960788e+00 6.879210e+01 3.423231e+00 6.203510e+01 3.012592e+00 5.513788e+01 2.641800e+00 4.819244e+01 2.329129e+00 4.116463e+01 2.105914e+00 3.400501e+01 1.945405e+00 2.674029e+01 1.865365e+00 1.944120e+01 1.799245e+00 1.215174e+01 1.762401e+00 4.845592e+00 1.765181e+00 -2.465364e+00 1.801653e+00 -9.773975e+00 1.889971e+00 -1.705773e+01 1.999179e+00 -2.432369e+01 2.109953e+00 -3.152470e+01 2.230789e+00 -3.858049e+01 2.325144e+00 -4.545187e+01 2.412774e+00 -5.217281e+01 2.621813e+00 -5.878137e+01 3.006637e+00 -6.525096e+01 3.577908e+00 -7.152240e+01 4.349882e+00 -7.752995e+01 5.321463e+00 -8.318282e+01 6.503471e+00 -8.841708e+01 
6.838626e+00 -9.754210e+01 8.550904e+00 -1.024325e+02 1.020343e+01 1.042027e+02 8.860037e+00 9.978055e+01 7.316842e+00 9.473141e+01 5.918951e+00 8.906337e+01 4.788747e+00 8.288624e+01 3.914651e+00 7.630617e+01 3.242140e+00 6.944800e+01 2.740904e+00 6.239203e+01 2.345177e+00 5.525583e+01 1.960250e+00 4.811458e+01 1.672718e+00 4.094341e+01 1.449817e+00 3.368998e+01 1.280789e+00 2.633882e+01 1.214240e+00 1.893871e+01 1.180761e+00 1.152957e+01 1.202876e+00 4.107963e+00 1.234835e+00 -3.329315e+00 1.239575e+00 -1.077567e+01 1.291382e+00 -1.819902e+01 1.300744e+00 -2.558918e+01 1.253744e+00 -3.290530e+01 1.200593e+00 -4.008299e+01 1.124763e+00 -4.709707e+01 1.110410e+00 -5.396913e+01 1.234674e+00 -6.075132e+01 1.565061e+00 -6.745290e+01 2.141120e+00 -7.403391e+01 2.975101e+00 -8.042339e+01 4.050309e+00 -8.652666e+01 5.345332e+00 -9.225808e+01 
6.823781e+00 -9.615317e+01 8.155492e+00 -1.014062e+02 9.550956e+00 1.032976e+02 8.481056e+00 9.856589e+01 7.272042e+00 9.348858e+01 6.149067e+00 8.796152e+01 5.205689e+00 8.201728e+01 4.428162e+00 7.572077e+01 3.770629e+00 6.916329e+01 3.246713e+00 6.234936e+01 2.873617e+00 5.539863e+01 2.522662e+00 4.839743e+01 2.312105e+00 4.130595e+01 2.150614e+00 3.412190e+01 1.945432e+00 2.683636e+01 1.871485e+00 1.951192e+01 1.827012e+00 1.221503e+01 1.786596e+00 4.899108e+00 1.807730e+00 -2.421355e+00 1.807320e+00 -9.711432e+00 1.892159e+00 -1.701219e+01 1.984043e+00 -2.429793e+01 1.975596e+00 -3.155363e+01 2.051505e+00 -3.871653e+01 2.138270e+00 -4.572330e+01 2.196046e+00 -5.263507e+01 2.406245e+00 -5.943778e+01 2.759357e+00 -6.609350e+01 3.247628e+00 -7.257018e+01 3.886975e+00 -7.884193e+01 4.690782e+00 -8.487824e+01 5.668424e+00 -9.065360e+01 
5.540010e+00 -1.003373e+02 6.768508e+00 -1.060238e+02 7.944060e+00 1.060815e+02 7.142244e+00 1.009159e+02 6.167668e+00 9.546995e+01 5.198804e+00 8.961180e+01 4.348765e+00 8.334160e+01 3.618042e+00 7.671604e+01 2.976616e+00 6.986843e+01 2.480656e+00 6.274704e+01 2.128716e+00 5.553639e+01 1.730973e+00 4.832883e+01 1.574238e+00 4.108168e+01 1.415763e+00 3.378695e+01 1.196690e+00 2.638296e+01 1.141219e+00 1.893779e+01 1.082022e+00 1.152087e+01 1.115175e+00 4.098094e+00 1.149895e+00 -3.344667e+00 1.065737e+00 -1.079066e+01 1.157229e+00 -1.821626e+01 1.156833e+00 -2.562041e+01 1.021694e+00 -3.301001e+01 9.673648e-01 -4.032002e+01 8.972922e-01 -4.750625e+01 9.475725e-01 -5.456612e+01 1.128189e+00 -6.152128e+01 1.445538e+00 -6.837747e+01 1.921939e+00 -7.511988e+01 2.576515e+00 -8.172320e+01 3.410063e+00 -8.815003e+01 4.407343e+00 -9.436298e+01 
5.419631e+00 -9.933574e+01 6.304081e+00 -1.053685e+02 7.180777e+00 1.059601e+02 6.656913e+00 1.004425e+02 5.995987e+00 9.483895e+01 5.309163e+00 8.898482e+01 4.683416e+00 8.282050e+01 4.105123e+00 7.635703e+01 3.525413e+00 6.974808e+01 3.001269e+00 6.276375e+01 2.732942e+00 5.568457e+01 2.365350e+00 4.867607e+01 2.290929e+00 4.152490e+01 2.228617e+00 3.432168e+01 1.887402e+00 2.696489e+01 1.866963e+00 1.956072e+01 1.857092e+00 1.229786e+01 1.770726e+00 4.955336e+00 1.855208e+00 -2.409140e+00 1.792787e+00 -9.649535e+00 1.919240e+00 -1.699396e+01 2.054378e+00 -2.432047e+01 1.836129e+00 -3.169144e+01 1.899633e+00 -3.902192e+01 1.995746e+00 -4.612162e+01 1.896149e+00 -5.323238e+01 2.093826e+00 -6.025806e+01 2.406094e+00 -6.711811e+01 2.792907e+00 -7.381864e+01 3.280835e+00 -8.038366e+01 3.885153e+00 -8.682273e+01 4.603638e+00 -9.313809e+01 
4.024405e+00 -1.031790e+02 4.762348e+00 -1.095744e+02 5.395503e+00 1.087675e+02 5.142329e+00 1.028438e+02 4.727719e+00 9.686059e+01 4.239239e+00 9.066782e+01 3.758675e+00 8.417917e+01 3.252756e+00 7.735627e+01 2.676500e+00 7.051211e+01 2.162527e+00 6.314101e+01 1.929777e+00 5.580135e+01 1.413074e+00 4.857641e+01 1.508425e+00 4.125288e+01 1.415978e+00 3.397967e+01 1.031444e+00 2.646313e+01 1.066719e+00 1.891838e+01 9.336209e-01 1.152732e+01 1.016832e+00 4.090882e+00 1.118734e+00 -3.369193e+00 8.319556e-01 -1.083617e+01 1.116261e+00 -1.828460e+01 1.123571e+00 -2.569168e+01 7.808185e-01 -3.322471e+01 7.669087e-01 -4.071245e+01 6.198139e-01 -4.805349e+01 6.880995e-01 -5.529141e+01 9.099331e-01 -6.240282e+01 1.191394e+00 -6.940212e+01 1.551652e+00 -7.631313e+01 2.022582e+00 -8.315535e+01 2.608685e+00 -8.992383e+01 3.288963e+00 -9.660323e+01 
3.818446e+00 -1.024014e+02 4.227486e+00 -1.091118e+02 4.513653e+00 1.091799e+02 4.559141e+00 1.029247e+02 4.447105e+00 9.674869e+01 4.250874e+00 9.049043e+01 4.046521e+00 8.400894e+01 3.778474e+00 7.720792e+01 3.331697e+00 7.060259e+01 2.626539e+00 6.319438e+01 2.569979e+00 5.593003e+01 2.100052e+00 4.905840e+01 2.308792e+00 4.177517e+01 2.438603e+00 3.465525e+01 1.690794e+00 2.711575e+01 1.850216e+00 1.951756e+01 1.909970e+00 1.245576e+01 1.649991e+00 5.004125e+00 1.937949e+00 -2.467181e+00 1.730278e+00 -9.522020e+00 2.002763e+00 -1.701981e+01 2.323655e+00 -2.430720e+01 1.604041e+00 -3.190448e+01 1.760252e+00 -3.954001e+01 1.959707e+00 -4.656734e+01 1.440310e+00 -5.398303e+01 1.700660e+00 -6.124985e+01 1.964197e+00 -6.825752e+01 2.226804e+00 -7.514032e+01 2.551186e+00 -8.198089e+01 2.941127e+00 -8.880167e+01 3.375049e+00 -9.560779e+01 
2.380369e+00 -1.058874e+02 2.613529e+00 -1.129019e+02 2.624216e+00 1.119607e+02 2.942567e+00 1.053394e+02 3.057280e+00 9.879857e+01 3.054286e+00 9.221989e+01 3.034554e+00 8.546495e+01 2.927307e+00 7.824563e+01 2.563625e+00 7.140048e+01 1.675954e+00 6.337136e+01 1.672728e+00 5.606746e+01 8.613473e-01 4.884313e+01 1.606739e+00 4.139995e+01 1.524081e+00 3.433121e+01 6.731272e-01 2.652046e+01 1.042121e+00 1.888837e+01 6.657395e-01 1.153648e+01 8.962917e-01 4.036659e+00 1.192119e+00 -3.320401e+00 3.741551e-01 -1.095368e+01 1.311596e+00 -1.841003e+01 1.281846e+00 -2.570666e+01 4.025114e-01 -3.354840e+01 6.564544e-01 -4.121127e+01 2.268836e-01 -4.876795e+01 2.894400e-01 -5.622913e+01 6.331303e-01 -6.339515e+01 8.447639e-01 -7.044246e+01 1.062991e+00 -7.748552e+01 1.348986e+00 -8.456608e+01 1.691297e+00 -9.167133e+01 2.051976e+00 -9.878326e+01 
2.115299e+00 -1.052303e+02 2.033325e+00 -1.125239e+02 1.668088e+00 1.126901e+02 2.298327e+00 1.057738e+02 2.679369e+00 9.906331e+01 2.929495e+00 9.245054e+01 3.180148e+00 8.570387e+01 3.456348e+00 7.850530e+01 3.633159e+00 7.130960e+01 1.700154e+00 6.337750e+01 2.130592e+00 5.615728e+01 1.683031e+00 4.940659e+01 2.438440e+00 4.210270e+01 2.966960e+00 3.518085e+01 1.114393e+00 2.711580e+01 1.753743e+00 1.945293e+01 2.000599e+00 1.265038e+01 1.272719e+00 4.938914e+00 1.999155e+00 -2.545630e+00 1.569244e+00 -9.399192e+00 2.266969e+00 -1.711639e+01 2.911574e+00 -2.407803e+01 1.083628e+00 -3.228507e+01 1.658201e+00 -4.020883e+01 2.097641e+00 -4.701599e+01 6.903641e-01 -5.514995e+01 1.244186e+00 -6.240531e+01 1.410572e+00 -6.936352e+01 1.548544e+00 -7.638149e+01 1.727193e+00 -8.349429e+01 1.909104e+00 -9.067773e+01 2.053963e+00 -9.792361e+01 
6.895688e-01 -1.083660e+02 4.193452e-01 -1.159146e+02 -2.105946e-01 1.154079e+02 6.879167e-01 1.081632e+02 1.254370e+00 1.010937e+02 1.591143e+00 9.411369e+01 1.835605e+00 8.720197e+01 2.359512e+00 8.063648e+01 2.959277e+00 7.070773e+01 -7.548583e-02 6.302203e+01 5.558473e-01 5.700375e+01 -1.884364e-01 4.792079e+01 1.572199e+00 4.236622e+01 1.735046e+00 3.405431e+01 -3.373380e-01 2.597761e+01 4.223739e-01 2.005938e+01 -4.252434e-01 1.024216e+01 5.280034e-01 3.901868e+00 1.020509e+00 -2.580533e+00 -1.071689e+00 -1.229406e+01 1.918513e+00 -1.782231e+01 1.509600e+00 -2.630250e+01 -6.272304e-01 -3.438568e+01 5.362473e-01 -4.063176e+01 -1.285994e+00 -5.080197e+01 -4.267742e-01 -5.766808e+01 4.010975e-01 -6.434728e+01 3.828538e-01 -7.127847e+01 4.588686e-01 -7.848563e+01 5.953864e-01 -8.584849e+01 7.140021e-01 -9.329379e+01 7.636965e-01 -1.008017e+02 
3.997011e-01 -1.077646e+02 -1.577344e-01 -1.155596e+02 -1.127098e+00 1.162897e+02 6.614935e-02 1.087487e+02 8.724150e-01 1.014788e+02 1.421017e+00 9.452409e+01 1.941981e+00 8.820563e+01 3.103230e+00 8.340771e+01 5.918482e+00 6.930878e+01 -4.032459e-01 6.309176e+01 5.990840e-01 5.847281e+01 2.342680e+00 4.661342e+01 2.045981e+00 4.520301e+01 3.568894e+00 3.476124e+01 6.160226e-01 2.503076e+01 2.642482e-01 2.288444e+01 2.239397e+00 9.322505e+00 7.351378e-02 4.913417e+00 8.373607e-01 -6.603018e-01 1.776700e+00 -1.289672e+01 2.083569e+00 -1.482830e+01 3.156524e+00 -2.472337e+01 2.396372e-01 -3.490308e+01 3.127703e-01 -3.720774e+01 1.452768e+00 -5.078389e+01 -8.648883e-01 -5.749708e+01 3.543060e-01 -6.307432e+01 6.037734e-01 -7.009279e+01 7.788689e-01 -7.742718e+01 8.676552e-01 -8.486733e+01 8.545255e-01 -9.239438e+01 7.141088e-01 -1.000233e+02 
-9.672678e-01 -1.105693e+02 -1.711251e+00 -1.185804e+02 -2.913111e+00 1.189019e+02 -1.430854e+00 1.111045e+02 -3.666543e-01 1.036077e+02 4.095700e-01 9.647866e+01 1.032715e+00 8.995518e+01 1.768883e+00 8.431710e+01 2.671522e+00 7.098636e+01 -2.430957e-01 6.387149e+01 4.593369e-01 5.920064e+01 1.458953e+00 4.708861e+01 2.123525e+00 4.541743e+01 3.213704e+00 3.472209e+01 4.056234e-01 2.502886e+01 2.344170e-01 2.323281e+01 2.250625e+00 8.427832e+00 -5.946019e-02 4.973386e+00 7.107456e-01 -7.073345e-01 1.892891e+00 -1.391069e+01 1.905361e+00 -1.435325e+01 3.588464e+00 -2.618496e+01 -2.506841e-02 -3.579287e+01 -1.088820e-01 -3.653090e+01 3.044790e+00 -5.402360e+01 -1.914296e+00 -5.846545e+01 -9.554275e-01 -6.404204e+01 -4.476696e-01 -7.160983e+01 -1.924037e-01 -7.931183e+01 -1.471986e-01 -8.701579e+01 -2.497784e-01 -9.477162e+01 -5.061521e-01 -1.026176e+02 
-1.248050e+00 -1.099801e+02 -2.246259e+00 -1.182114e+02 -3.742577e+00 1.198646e+02 -2.002547e+00 1.118043e+02 -6.942114e-01 1.040895e+02 3.103522e-01 9.669070e+01 1.063135e+00 8.950563e+01 1.410007e+00 8.207242e+01 -5.186038e-02 7.173336e+01 7.822995e-01 6.429890e+01 1.432890e+00 5.809142e+01 -5.007849e-01 4.828217e+01 2.534495e+00 4.293696e+01 2.026941e+00 3.448671e+01 1.949347e-01 2.621380e+01 9.909860e-01 2.076901e+01 -2.610129e-02 1.047027e+01 8.739037e-01 4.201565e+00 1.236211e+00 -1.944208e+00 -1.434481e-01 -1.198840e+01 2.139110e+00 -1.702930e+01 2.217976e+00 -2.564864e+01 -1.472994e-01 -3.425602e+01 2.304659e-01 -3.918734e+01 3.889000e-01 -5.030562e+01 -9.964536e-01 -5.751605e+01 -2.754235e-01 -6.386512e+01 -7.657865e-03 -7.102760e+01 1.232159e-01 -7.851410e+01 7.630017e-02 -8.616288e+01 -1.494579e-01 -9.394771e+01 -5.741649e-01 -1.018821e+02 
-2.522330e+00 -1.124770e+02 -3.697300e+00 -1.208950e+02 -5.419006e+00 1.222767e+02 -3.432072e+00 1.139795e+02 -1.911500e+00 1.060042e+02 -7.113265e-01 9.827588e+01 2.593777e-01 9.052076e+01 9.077597e-01 8.228591e+01 1.620117e+00 7.488748e+01 3.402350e-01 6.601871e+01 1.409692e+00 5.809848e+01 1.089938e+00 5.099077e+01 1.908841e+00 4.314056e+01 2.595064e+00 3.579958e+01 7.024322e-01 2.749700e+01 1.522591e+00 1.971138e+01 1.566127e+00 1.234624e+01 9.995114e-01 4.651554e+00 1.763133e+00 -2.894680e+00 8.972945e-01 -1.044751e+01 2.056655e+00 -1.792438e+01 2.485739e+00 -2.552111e+01 1.341317e-01 -3.390885e+01 8.741759e-01 -4.163850e+01 6.952757e-01 -5.001770e+01 -7.298166e-01 -5.780174e+01 -3.524682e-01 -6.515085e+01 -4.900918e-01 -7.261166e+01 -6.197709e-01 -8.028777e+01 -8.157580e-01 -8.812473e+01 -1.158809e+00 -9.609391e+01 -1.705494e+00 -1.042057e+02 
-2.764556e+00 -1.118697e+02 -4.166419e+00 -1.204808e+02 -6.147562e+00 1.231351e+02 -3.973825e+00 1.145557e+02 -2.301347e+00 1.062822e+02 -1.029308e+00 9.822032e+01 -1.096921e-01 9.019346e+01 4.228719e-01 8.197831e+01 7.254953e-01 7.400163e+01 6.832042e-01 6.589274e+01 1.206299e+00 5.802982e+01 7.652721e-01 5.031777e+01 1.664823e+00 4.269117e+01 1.855453e+00 3.530476e+01 1.011706e+00 2.740541e+01 1.440573e+00 1.960232e+01 1.217934e+00 1.221545e+01 1.298918e+00 4.594067e+00 1.656649e+00 -2.877845e+00 9.327492e-01 -1.034321e+01 1.817909e+00 -1.803041e+01 1.872150e+00 -2.526830e+01 7.310338e-01 -3.332555e+01 1.052260e+00 -4.124586e+01 7.175097e-01 -4.869631e+01 4.385305e-02 -5.686877e+01 1.783586e-01 -6.445151e+01 -4.896136e-03 -7.192306e+01 -2.504323e-01 -7.953584e+01 -5.728051e-01 -8.733092e+01 -1.051283e+00 -9.530824e+01 -1.756915e+00 -1.034811e+02 
-3.923146e+00 -1.140855e+02 -5.485536e+00 -1.228557e+02 -7.671101e+00 1.252668e+02 -5.281036e+00 1.164737e+02 -3.404556e+00 1.079557e+02 -1.933974e+00 9.962369e+01 -8.092127e-01 9.136631e+01 8.476033e-03 8.319250e+01 7.153723e-01 7.543233e+01 4.307448e-01 6.713088e+01 1.002018e+00 5.896267e+01 1.049059e+00 5.142855e+01 1.449174e+00 4.353903e+01 1.858396e+00 3.587737e+01 1.174683e+00 2.791190e+01 1.457543e+00 1.994555e+01 1.523047e+00 1.251798e+01 1.323636e+00 4.777482e+00 1.612267e+00 -2.956382e+00 1.169462e+00 -1.042212e+01 1.557996e+00 -1.820454e+01 1.655523e+00 -2.581926e+01 6.831475e-01 -3.390018e+01 7.462494e-01 -4.199847e+01 3.614743e-01 -4.970611e+01 -2.419396e-01 -5.770970e+01 -2.895424e-01 -6.554304e+01 -5.487116e-01 -7.330440e+01 -9.111143e-01 -8.113722e+01 -1.359671e+00 -8.910759e+01 -1.957390e+00 -9.723938e+01 -2.782891e+00 -1.055559e+02 
-4.108249e+00 -1.134337e+02 -5.879440e+00 -1.223666e+02 -8.326065e+00 1.259577e+02 -5.777404e+00 1.169277e+02 -3.786662e+00 1.081813e+02 -2.250006e+00 9.965328e+01 -1.103399e+00 9.127044e+01 -3.097525e-01 8.298938e+01 2.018004e-01 7.487931e+01 4.724374e-01 6.679844e+01 8.449590e-01 5.876300e+01 8.763251e-01 5.094738e+01 1.292828e+00 4.319284e+01 1.501109e+00 3.550499e+01 1.235363e+00 2.771820e+01 1.371238e+00 1.991861e+01 1.353337e+00 1.235481e+01 1.387419e+00 4.754842e+00 1.520365e+00 -2.869386e+00 1.224120e+00 -1.038320e+01 1.468300e+00 -1.801706e+01 1.479156e+00 -2.559134e+01 9.478028e-01 -3.341194e+01 8.740395e-01 -4.131225e+01 5.686394e-01 -4.898911e+01 1.765612e-01 -5.689708e+01 6.836386e-02 -6.474230e+01 -1.853638e-01 -7.251844e+01 -5.854364e-01 -8.034340e+01 -1.118446e+00 -8.830310e+01 -1.831065e+00 -9.644582e+01 -2.797634e+00 -1.048096e+02 
-5.142760e+00 -1.153959e+02 -7.053392e+00 -1.244577e+02 -9.674118e+00 1.278013e+02 -6.931989e+00 1.186047e+02 -4.757667e+00 1.096808e+02 -3.044598e+00 1.009835e+02 -1.720302e+00 9.247617e+01 -7.254445e-01 8.414965e+01 -2.036201e-02 7.602108e+01 2.342000e-01 6.781522e+01 6.574120e-01 5.966781e+01 8.754336e-01 5.178934e+01 1.187445e+00 4.388427e+01 1.439788e+00 3.602481e+01 1.263242e+00 2.812167e+01 1.374911e+00 2.023540e+01 1.427621e+00 1.254205e+01 1.375534e+00 4.811992e+00 1.436975e+00 -2.928522e+00 1.230663e+00 -1.056952e+01 1.304060e+00 -1.831551e+01 1.253959e+00 -2.609437e+01 7.673582e-01 -3.403226e+01 5.736916e-01 -4.202415e+01 2.322300e-01 -4.990215e+01 -1.828561e-01 -5.787328e+01 -4.214792e-01 -6.584143e+01 -7.525877e-01 -7.379714e+01 -1.223587e+00 -8.179677e+01 -1.841615e+00 -8.990668e+01 -2.648693e+00 -9.817907e+01 -3.717416e+00 -1.066593e+02 
-5.257010e+00 -1.146760e+02 -7.354294e+00 -1.238706e+02 -1.022077e+01 1.283178e+02 -7.337066e+00 1.189407e+02 -5.062942e+00 1.098544e+02 -3.282562e+00 1.010198e+02 -1.922529e+00 9.239911e+01 -9.270744e-01 8.395621e+01 -2.411016e-01 7.567864e+01 2.051612e-01 6.749772e+01 5.935035e-01 5.938946e+01 8.156264e-01 5.144974e+01 1.114845e+00 4.358624e+01 1.321765e+00 3.576362e+01 1.284656e+00 2.796134e+01 1.357787e+00 2.016866e+01 1.396619e+00 1.248526e+01 1.411670e+00 4.835263e+00 1.449263e+00 -2.814809e+00 1.321586e+00 -1.040445e+01 1.353524e+00 -1.805172e+01 1.308152e+00 -2.574463e+01 9.907341e-01 -3.352755e+01 7.905530e-01 -4.138909e+01 5.127810e-01 -4.921208e+01 1.583262e-01 -5.711045e+01 -1.008821e-01 -6.504143e+01 -4.391952e-01 -7.297815e+01 -9.336909e-01 -8.096312e+01 -1.607576e+00 -8.906502e+01 -2.501536e+00 -9.734676e+01 -3.685708e+00 -1.058640e+02 
-6.163828e+00 -1.164115e+02 -8.373647e+00 -1.257038e+02 -1.138109e+01 1.298764e+02 -8.329392e+00 1.203809e+02 -5.899042e+00 1.111720e+02 -3.971230e+00 1.022196e+02 -2.469678e+00 9.349888e+01 -1.334799e+00 8.498518e+01 -5.259328e-01 7.665150e+01 -5.133914e-02 6.836330e+01 3.914806e-01 6.014731e+01 6.936774e-01 5.212533e+01 9.903263e-01 4.414478e+01 1.229787e+00 3.620064e+01 1.221866e+00 2.828762e+01 1.299367e+00 2.038998e+01 1.354862e+00 1.260076e+01 1.326360e+00 4.829742e+00 1.328810e+00 -2.937865e+00 1.205898e+00 -1.064068e+01 1.171576e+00 -1.841104e+01 1.084236e+00 -2.624384e+01 7.433320e-01 -3.414805e+01 4.792568e-01 -4.212539e+01 1.628769e-01 -5.007918e+01 -2.412816e-01 -5.808446e+01 -5.794825e-01 -6.612924e+01 -9.848662e-01 -7.419127e+01 -1.538789e+00 -8.230132e+01 -2.275352e+00 -9.051882e+01 -3.239077e+00 -9.890379e+01 -4.501703e+00 -1.075130e+02 
-6.191498e+00 -1.156055e+02 -8.558220e+00 -1.250021e+02 -1.177729e+01 1.301994e+02 -8.606138e+00 1.205712e+02 -6.092074e+00 1.112470e+02 -4.104685e+00 1.021920e+02 -2.564979e+00 9.337895e+01 -1.404673e+00 8.478648e+01 -5.533327e-01 7.638749e+01 -4.375507e-02 6.807962e+01 4.090091e-01 5.983711e+01 7.300849e-01 5.185093e+01 9.985777e-01 4.390565e+01 1.268039e+00 3.599673e+01 1.280149e+00 2.817690e+01 1.340685e+00 2.032739e+01 1.424404e+00 1.260334e+01 1.388105e+00 4.907200e+00 1.423814e+00 -2.795571e+00 1.358758e+00 -1.037422e+01 1.314781e+00 -1.806056e+01 1.294133e+00 -2.581884e+01 1.001461e+00 -3.359923e+01 7.510474e-01 -4.150670e+01 5.019404e-01 -4.937937e+01 7.274457e-02 -5.731895e+01 -2.730080e-01 -6.533065e+01 -6.828469e-01 -7.335533e+01 -1.257513e+00 -8.143024e+01 -2.034290e+00 -8.962752e+01 -3.060692e+00 -9.801374e+01 -4.411587e+00 -1.066494e+02 
-6.965596e+00 -1.171411e+02 -9.413237e+00 -1.266041e+02 -1.273763e+01 1.314668e+02 -9.429621e+00 1.217639e+02 -6.791168e+00 1.123616e+02 -4.685954e+00 1.032255e+02 -3.037374e+00 9.432848e+01 -1.786572e+00 8.566388e+01 -8.462923e-01 7.721976e+01 -3.151364e-01 6.879784e+01 1.896462e-01 6.042376e+01 5.297242e-01 5.238292e+01 8.314292e-01 4.434252e+01 1.152732e+00 3.634159e+01 1.142715e+00 2.842007e+01 1.215139e+00 2.044752e+01 1.300997e+00 1.265624e+01 1.227121e+00 4.846200e+00 1.256549e+00 -2.991379e+00 1.151319e+00 -1.065440e+01 1.092536e+00 -1.846018e+01 1.069656e+00 -2.632803e+01 7.066375e-01 -3.422505e+01 4.132000e-01 -4.227012e+01 1.349820e-01 -5.022092e+01 -3.561871e-01 -5.827721e+01 -7.399668e-01 -6.639948e+01 -1.197832e+00 -7.451056e+01 -1.821223e+00 -8.266880e+01 -2.643726e+00 -9.095038e+01 -3.717612e+00 -9.941618e+01 -5.122102e+00 -1.081224e+02 
-6.887677e+00 -1.162371e+02 -9.457565e+00 -1.257755e+02 -1.295364e+01 1.315587e+02 -9.553300e+00 1.217686e+02 -6.854125e+00 1.122989e+02 -4.701827e+00 1.031017e+02 -3.015232e+00 9.413657e+01 -1.728616e+00 8.543022e+01 -6.885804e-01 7.700344e+01 -2.317631e-01 6.852153e+01 2.786708e-01 6.003502e+01 6.618540e-01 5.216385e+01 8.927394e-01 4.414846e+01 1.337572e+00 3.617385e+01 1.271204e+00 2.837698e+01 1.292169e+00 2.036799e+01 1.464686e+00 1.272162e+01 1.304379e+00 4.976160e+00 1.419709e+00 -2.851422e+00 1.383857e+00 -1.026688e+01 1.292757e+00 -1.802592e+01 1.430739e+00 -2.583445e+01 1.033466e+00 -3.360010e+01 7.172301e-01 -4.167659e+01 5.600867e-01 -4.948006e+01 -5.844499e-02 -5.750288e+01 -4.398464e-01 -6.561064e+01 -8.978472e-01 -7.364990e+01 -1.536840e+00 -8.174453e+01 -2.380862e+00 -8.999358e+01 -3.491857e+00 -9.845395e+01 -4.956609e+00 -1.071773e+02 
-7.521931e+00 -1.175992e+02 -1.013749e+01 -1.271732e+02 -1.369802e+01 1.325234e+02 -1.019951e+01 1.226987e+02 -7.415074e+00 1.131930e+02 -5.178390e+00 1.039603e+02 -3.405007e+00 9.493901e+01 -2.064048e+00 8.613429e+01 -9.657556e-01 7.774225e+01 -4.972766e-01 6.904714e+01 4.782341e-02 6.043827e+01 3.642383e-01 5.255821e+01 6.910052e-01 4.443988e+01 1.205966e+00 3.647835e+01 1.067209e+00 2.851296e+01 1.114993e+00 2.035590e+01 1.252539e+00 1.274887e+01 1.071237e+00 4.844601e+00 1.210784e+00 -3.102312e+00 1.064227e+00 -1.060195e+01 1.044385e+00 -1.849503e+01 1.204252e+00 -2.630026e+01 7.004377e-01 -3.425945e+01 3.565128e-01 -4.250271e+01 1.547116e-01 -5.025682e+01 -5.035111e-01 -5.850015e+01 -8.955746e-01 -6.667331e+01 -1.393132e+00 -7.473646e+01 -2.062615e+00 -8.288266e+01 -2.928805e+00 -9.119814e+01 -4.063170e+00 -9.972230e+01 -5.556099e+00 -1.084986e+02 
-7.316923e+00 -1.165887e+02 -1.001639e+01 -1.262092e+02 -1.370470e+01 1.323372e+02 -1.015061e+01 1.224663e+02 -7.341908e+00 1.129456e+02 -5.083132e+00 1.037287e+02 -3.274055e+00 9.470228e+01 -1.891188e+00 8.585552e+01 -6.037628e-01 7.761780e+01 -2.518033e-01 6.864075e+01 1.186090e-01 5.991904e+01 5.777507e-01 5.238534e+01 7.741744e-01 4.424662e+01 1.520718e+00 3.641332e+01 1.362170e+00 2.850170e+01 1.153517e+00 2.019542e+01 1.471993e+00 1.292313e+01 1.149876e+00 4.980805e+00 1.388336e+00 -2.953754e+00 1.381965e+00 -1.010343e+01 1.272755e+00 -1.801129e+01 1.694477e+00 -2.564222e+01 1.193994e+00 -3.358329e+01 6.401135e-01 -4.196764e+01 6.621144e-01 -4.938956e+01 -1.722062e-01 -5.785221e+01 -6.328208e-01 -6.590123e+01 -1.130933e+00 -7.379541e+01 -1.778590e+00 -8.186732e+01 -2.626480e+00 -9.015903e+01 -3.767966e+00 -9.867872e+01 -5.294020e+00 -1.074639e+02 
-7.803643e+00 -1.178018e+02 -1.051010e+01 -1.274284e+02 -1.421024e+01 1.329915e+02 -1.060658e+01 1.231175e+02 -7.758394e+00 1.135865e+02 -5.468366e+00 1.043684e+02 -3.619816e+00 9.541189e+01 -2.123212e+00 8.662103e+01 -9.679850e-01 7.806183e+01 -3.984309e-01 6.865296e+01 -3.619329e-01 6.058996e+01 -8.846490e-04 5.216013e+01 5.360504e-01 4.447462e+01 1.240104e+00 3.690145e+01 1.167732e+00 2.808825e+01 7.783245e-01 2.037875e+01 1.023146e+00 1.269051e+01 8.948351e-01 4.608560e+00 9.303837e-01 -2.760692e+00 7.372770e-01 -1.109863e+01 9.889640e-01 -1.844562e+01 1.293893e+00 -2.583822e+01 9.137691e-01 -3.476996e+01 9.819362e-02 -4.247920e+01 -1.979596e-03 -5.027205e+01 -5.266759e-01 -5.915991e+01 -1.204796e+00 -6.686814e+01 -1.650983e+00 -7.475824e+01 -2.263861e+00 -8.290315e+01 -3.101239e+00 -9.126339e+01 -4.244162e+00 -9.983577e+01 -5.775085e+00 -1.086571e+02 
-7.451233e+00 -1.166759e+02 -1.019737e+01 -1.263224e+02 -1.395803e+01 1.324972e+02 -1.035999e+01 1.225924e+02 -7.539513e+00 1.130444e+02 -5.289722e+00 1.038732e+02 -3.450158e+00 9.521496e+01 -1.785024e+00 8.698099e+01 -6.146391e-01 7.771629e+01 8.626688e-01 6.735052e+01 -9.754081e-01 6.109381e+01 4.231691e-01 5.087520e+01 9.420813e-01 4.471646e+01 1.059041e+00 3.753174e+01 2.579872e+00 2.704782e+01 3.358164e-01 2.113462e+01 1.036652e+00 1.238158e+01 1.431445e+00 4.413971e+00 6.404301e-01 -1.412095e+00 1.575230e+00 -1.179427e+01 1.413193e+00 -1.736992e+01 1.274087e+00 -2.443757e+01 2.601517e+00 -3.512820e+01 -1.369516e-01 -4.076915e+01 4.415975e-01 -4.968677e+01 6.095954e-01 -5.926708e+01 -1.464885e+00 -6.572873e+01 -1.515402e+00 -7.358302e+01 -1.936558e+00 -8.178583e+01 -2.714880e+00 -9.015206e+01 -3.850852e+00 -9.871252e+01 -5.395638e+00 -1.075265e+02 
-7.786756e+00 -1.177601e+02 -1.049938e+01 -1.273858e+02 -1.421479e+01 1.328510e+02 -1.061698e+01 1.229779e+02 -7.790763e+00 1.134503e+02 -5.531833e+00 1.042900e+02 -3.677969e+00 9.564176e+01 -1.977938e+00 8.742627e+01 -7.578064e-01 7.810045e+01 6.781363e-01 6.764796e+01 -1.201710e+00 6.144778e+01 2.647750e-01 5.115416e+01 7.799297e-01 4.496968e+01 8.972512e-01 3.772006e+01 2.391019e+00 2.713989e+01 1.742850e-01 2.115894e+01 8.583614e-01 1.237302e+01 1.237949e+00 4.290857e+00 4.662840e-01 -1.658776e+00 1.319912e+00 -1.200743e+01 1.188408e+00 -1.780525e+01 1.017695e+00 -2.496265e+01 2.196126e+00 -3.564973e+01 -3.997049e-01 -4.152288e+01 4.989259e-02 -5.036569e+01 1.649446e-01 -6.002549e+01 -1.751484e+00 -6.663681e+01 -1.856123e+00 -7.453669e+01 -2.307124e+00 -8.278199e+01 -3.093843e+00 -9.118917e+01 -4.224974e+00 -9.978088e+01 -5.755020e+00 -1.086115e+02 