# vtk DataFile Version 2.0
Comment goes here
ASCII

DATASET STRUCTURED_POINTS
FIELD FieldData 1
TIME 1 1 double
0.02900000
DIMENSIONS    64   64   1

ORIGIN    0.000   0.000   0.000
SPACING   0.03125 0.03125   1.000

POINT_DATA   4096
SCALARS P double
LOOKUP_TABLE default

-4.013128e+01 -2.122804e+02 -4.194135e+01 -2.150160e+02 -2.568741e+01 9.237304e+01 -4.620861e+01 9.050559e+01 -5.188736e+01 8.041732e+01 -5.166759e+01 6.931064e+01 -5.351493e+01 5.875282e+01 -5.281032e+01 4.561163e+01 -4.905027e+01 2.819343e+01 -4.063396e+01 6.937435e+00 -3.089459e+01 -1.446467e+01 -2.307692e+01 -3.046892e+01 -2.486119e+01 -3.614684e+01 -3.549986e+01 -3.602988e+01 -4.950446e+01 -3.255588e+01 -6.524067e+01 -3.079329e+01 -7.688952e+01 -3.618059e+01 -7.808024e+01 -5.421051e+01 -6.801188e+01 -7.724434e+01 -5.933474e+01 -9.438383e+01 -5.995178e+01 -1.016501e+02 -6.444291e+01 -1.081287e+02 -7.184585e+01 -1.084405e+02 -8.354157e+01 -1.087632e+02 -9.403906e+01 -1.079400e+02 -1.039668e+02 -1.109468e+02 -1.062069e+02 -1.198718e+02 -1.047824e+02 -1.290197e+02 -9.792196e+01 -1.450376e+02 -8.325467e+01 -1.655828e+02 -6.732213e+01 -1.829249e+02 -5.478947e+01 -1.901499e+02 
-1.006164e+01 -1.334949e+02 -1.123363e+01 -1.355464e+02 1.106161e+00 9.352354e+01 -1.289402e+01 9.146482e+01 -1.585690e+01 8.443907e+01 -1.546947e+01 7.702924e+01 -1.673359e+01 7.014501e+01 -1.684640e+01 6.185110e+01 -1.549657e+01 5.136626e+01 -1.191139e+01 3.892567e+01 -7.663791e+00 2.605208e+01 -3.907600e+00 1.545144e+01 -4.864678e+00 9.940919e+00 -9.827347e+00 6.693825e+00 -1.600692e+01 5.106503e+00 -2.323951e+01 2.776374e+00 -2.867967e+01 -2.843219e+00 -2.916814e+01 -1.479123e+01 -2.392308e+01 -2.926679e+01 -1.953011e+01 -4.062482e+01 -2.001538e+01 -4.691538e+01 -2.179727e+01 -5.379639e+01 -2.455839e+01 -5.735608e+01 -2.967093e+01 -6.117443e+01 -3.401542e+01 -6.411339e+01 -3.852327e+01 -6.884711e+01 -3.914741e+01 -7.642714e+01 -3.867955e+01 -8.314445e+01 -3.595194e+01 -9.329107e+01 -2.935825e+01 -1.054662e+02 -2.241574e+01 -1.156830e+02 -1.736024e+01 -1.196685e+02 
4.111434e+00 -8.547335e+01 4.460088e+00 -8.798959e+01 8.975233e+00 9.177865e+01 5.049578e+00 8.900572e+01 4.692350e+00 8.450689e+01 4.935532e+00 7.961267e+01 4.535426e+00 7.461747e+01 4.141544e+00 6.914995e+01 3.864176e+00 6.321786e+01 3.783282e+00 5.694450e+01 3.745329e+00 5.036219e+01 3.912492e+00 4.377446e+01 3.532750e+00 3.774355e+01 2.869654e+00 3.159382e+01 2.340374e+00 2.564540e+01 1.537869e+00 1.964231e+01 8.247889e-01 1.336379e+01 6.125929e-01 6.272036e+00 1.235951e+00 -1.192687e+00 1.705258e+00 -8.224406e+00 1.393218e+00 -1.451651e+01 1.278208e+00 -2.147116e+01 1.349641e+00 -2.782621e+01 9.608096e-01 -3.421417e+01 7.605307e-01 -4.026423e+01 3.799993e-01 -4.645432e+01 6.422912e-01 -5.290641e+01 7.328397e-01 -5.862606e+01 9.646072e-01 -6.464790e+01 1.755743e+00 -7.062607e+01 2.515867e+00 -7.590963e+01 2.921559e+00 -7.944042e+01 
3.912455e+00 -8.727098e+01 4.668205e+00 -9.043645e+01 5.550742e+00 9.319699e+01 4.851630e+00 9.010843e+01 4.268963e+00 8.571127e+01 4.036355e+00 8.070232e+01 3.673386e+00 7.536683e+01 3.393083e+00 6.956087e+01 3.347218e+00 6.326792e+01 3.537014e+00 5.661345e+01 3.819198e+00 4.977896e+01 4.028629e+00 4.310695e+01 3.703054e+00 3.693458e+01 2.932977e+00 3.097066e+01 1.987655e+00 2.516649e+01 9.363901e-01 1.920846e+01 1.569869e-01 1.275448e+01 -2.846504e-02 5.555711e+00 4.209378e-01 -1.997126e+00 8.788736e-01 -9.239974e+00 8.762391e-01 -1.594553e+01 7.466015e-01 -2.264262e+01 5.445039e-01 -2.894909e+01 5.756210e-02 -3.510274e+01 -4.065678e-01 -4.110632e+01 -8.171755e-01 -4.723105e+01 -8.201785e-01 -5.352860e+01 -6.679245e-01 -5.963006e+01 -2.140260e-01 -6.588268e+01 6.885004e-01 -7.202525e+01 1.714389e+00 -7.755377e+01 2.670118e+00 -8.215973e+01 
3.806322e+00 -8.532872e+01 4.475030e+00 -8.864212e+01 5.401548e+00 9.257160e+01 4.952838e+00 8.928233e+01 4.647252e+00 8.496663e+01 4.523722e+00 8.009445e+01 4.283478e+00 7.488234e+01 4.027301e+00 6.930329e+01 3.817145e+00 6.337713e+01 3.681534e+00 5.717770e+01 3.576931e+00 5.078784e+01 3.474768e+00 4.436741e+01 3.182481e+00 3.808768e+01 2.748290e+00 3.181979e+01 2.289561e+00 2.558164e+01 1.779758e+00 1.927328e+01 1.360731e+00 1.276229e+01 1.193990e+00 5.910503e+00 1.321365e+00 -1.109949e+00 1.439848e+00 -7.993859e+00 1.353433e+00 -1.464769e+01 1.265352e+00 -2.135163e+01 1.196604e+00 -2.787260e+01 1.019146e+00 -3.430179e+01 8.751764e-01 -4.059578e+01 7.640800e-01 -4.686904e+01 8.669925e-01 -5.312122e+01 1.036279e+00 -5.912931e+01 1.338624e+00 -6.506586e+01 1.859322e+00 -7.080175e+01 2.440984e+00 -7.606709e+01 3.003586e+00 -8.067965e+01 
3.375446e+00 -8.787363e+01 4.095471e+00 -9.166509e+01 4.678316e+00 9.432500e+01 4.420784e+00 9.069481e+01 4.074908e+00 8.620699e+01 3.814006e+00 8.113367e+01 3.569990e+00 7.564672e+01 3.390533e+00 6.977215e+01 3.323775e+00 6.354553e+01 3.360552e+00 5.706239e+01 3.418691e+00 5.045716e+01 3.381409e+00 4.390351e+01 3.097058e+00 3.753354e+01 2.575997e+00 3.128265e+01 1.927947e+00 2.507031e+01 1.261954e+00 1.874048e+01 7.542271e-01 1.213117e+01 5.395068e-01 5.176765e+00 5.984546e-01 -1.952536e+00 7.071547e-01 -8.985062e+00 6.878095e-01 -1.579744e+01 5.759864e-01 -2.247600e+01 3.899094e-01 -2.896112e+01 1.087583e-01 -3.531338e+01 -1.644123e-01 -4.157854e+01 -3.503558e-01 -4.784628e+01 -3.349383e-01 -5.412918e+01 -1.417161e-01 -6.033644e+01 2.672612e-01 -6.649358e+01 9.098761e-01 -7.246968e+01 1.678060e+00 -7.805209e+01 2.491584e+00 -8.313303e+01 
3.551675e+00 -8.667165e+01 4.168511e+00 -9.067698e+01 4.799170e+00 9.429448e+01 4.617985e+00 9.043014e+01 4.410343e+00 8.589870e+01 4.249229e+00 8.087563e+01 4.071569e+00 7.548952e+01 3.886213e+00 6.978422e+01 3.712336e+00 6.379668e+01 3.563248e+00 5.759031e+01 3.415855e+00 5.123610e+01 3.238977e+00 4.481875e+01 2.984440e+00 3.841719e+01 2.657088e+00 3.201396e+01 2.299440e+00 2.559149e+01 1.940809e+00 1.910372e+01 1.643533e+00 1.248710e+01 1.473723e+00 5.709541e+00 1.426223e+00 -1.154226e+00 1.398591e+00 -7.985268e+00 1.328421e+00 -1.472534e+01 1.244981e+00 -2.141829e+01 1.157522e+00 -2.801865e+01 1.050882e+00 -3.453185e+01 9.671319e-01 -4.095619e+01 9.438641e-01 -4.731447e+01 1.034245e+00 -5.358962e+01 1.216051e+00 -5.971662e+01 1.504253e+00 -6.570170e+01 1.912093e+00 -7.147539e+01 2.393146e+00 -7.692159e+01 2.923888e+00 -8.197031e+01 
2.948172e+00 -8.950524e+01 3.563569e+00 -9.396437e+01 4.090754e+00 9.632546e+01 3.961756e+00 9.205662e+01 3.766959e+00 8.723523e+01 3.585454e+00 8.195173e+01 3.423994e+00 7.629756e+01 3.296587e+00 7.032112e+01 3.215064e+00 6.406752e+01 3.175218e+00 5.762097e+01 3.121368e+00 5.107210e+01 2.989512e+00 4.450901e+01 2.734353e+00 3.800663e+01 2.350514e+00 3.155088e+01 1.891982e+00 2.508926e+01 1.433439e+00 1.854608e+01 1.058004e+00 1.184349e+01 8.331261e-01 4.970548e+00 7.380132e-01 -1.994467e+00 6.845864e-01 -8.937412e+00 6.106647e-01 -1.577466e+01 4.945077e-01 -2.250235e+01 3.388838e-01 -2.911201e+01 1.573316e-01 -3.562088e+01 -4.436589e-03 -4.206062e+01 -8.155602e-02 -4.846065e+01 -2.499423e-02 -5.482043e+01 1.732569e-01 -6.110897e+01 5.236584e-01 -6.730246e+01 1.020151e+00 -7.332646e+01 1.617425e+00 -7.907758e+01 2.270528e+00 -8.448337e+01 
3.267336e+00 -8.873244e+01 3.780562e+00 -9.343204e+01 4.281416e+00 9.676981e+01 4.212376e+00 9.223808e+01 4.104232e+00 8.730114e+01 3.997252e+00 8.200278e+01 3.881280e+00 7.640153e+01 3.748790e+00 7.053336e+01 3.599483e+00 6.442501e+01 3.456557e+00 5.814256e+01 3.294332e+00 5.174037e+01 3.092678e+00 4.525243e+01 2.868141e+00 3.874683e+01 2.603208e+00 3.222545e+01 2.317826e+00 2.566673e+01 2.045863e+00 1.906002e+01 1.802636e+00 1.236757e+01 1.632567e+00 5.592359e+00 1.517637e+00 -1.229289e+00 1.413000e+00 -8.062904e+00 1.327314e+00 -1.484759e+01 1.238086e+00 -2.157976e+01 1.146070e+00 -2.825617e+01 1.067715e+00 -3.485744e+01 1.009886e+00 -4.138998e+01 1.020469e+00 -4.784968e+01 1.118678e+00 -5.421203e+01 1.297819e+00 -6.045232e+01 1.559246e+00 -6.655724e+01 1.901303e+00 -7.248841e+01 2.306468e+00 -7.818980e+01 2.762299e+00 -8.361609e+01 
2.553675e+00 -9.168061e+01 3.046785e+00 -9.681602e+01 3.476534e+00 9.896264e+01 3.476019e+00 9.400697e+01 3.413905e+00 8.873006e+01 3.335587e+00 8.313800e+01 3.254946e+00 7.726455e+01 3.171727e+00 7.113700e+01 3.082543e+00 6.477529e+01 3.015117e+00 5.827393e+01 2.909137e+00 5.169126e+01 2.730195e+00 4.504937e+01 2.505913e+00 3.842892e+01 2.204660e+00 3.182013e+01 1.860639e+00 2.518740e+01 1.523818e+00 1.850673e+01 1.215485e+00 1.172284e+01 1.000004e+00 4.856554e+00 8.428008e-01 -2.055860e+00 6.979299e-01 -8.987933e+00 5.886611e-01 -1.585615e+01 4.636067e-01 -2.264765e+01 3.228323e-01 -2.936749e+01 1.917756e-01 -3.600612e+01 7.883539e-02 -4.259289e+01 5.903649e-02 -4.912498e+01 1.463872e-01 -5.559111e+01 3.401741e-01 -6.198331e+01 6.411296e-01 -6.828598e+01 1.040133e+00 -7.445909e+01 1.512277e+00 -8.044790e+01 2.027462e+00 -8.620336e+01 
2.944728e+00 -9.116118e+01 3.340790e+00 -9.654360e+01 3.709031e+00 9.974310e+01 3.760276e+00 9.452178e+01 3.763659e+00 8.909389e+01 3.747015e+00 8.344352e+01 3.710825e+00 7.758038e+01 3.636729e+00 7.151188e+01 3.499753e+00 6.522190e+01 3.379284e+00 5.881054e+01 3.217389e+00 5.232080e+01 2.983644e+00 4.570539e+01 2.798055e+00 3.909334e+01 2.575932e+00 3.246983e+01 2.329691e+00 2.579163e+01 2.122786e+00 1.909945e+01 1.897284e+00 1.232853e+01 1.738397e+00 5.522213e+00 1.599421e+00 -1.296532e+00 1.423189e+00 -8.184413e+00 1.336432e+00 -1.501858e+01 1.240875e+00 -2.180191e+01 1.130505e+00 -2.857004e+01 1.069089e+00 -3.525876e+01 9.996794e-01 -4.190599e+01 1.020261e+00 -4.848651e+01 1.127222e+00 -5.495710e+01 1.301761e+00 -6.132247e+01 1.539083e+00 -6.758463e+01 1.833067e+00 -7.372719e+01 2.172733e+00 -7.972235e+01 2.547181e+00 -8.554263e+01 
2.164751e+00 -9.413211e+01 2.532583e+00 -9.992393e+01 2.842762e+00 1.020011e+02 2.972716e+00 9.636518e+01 3.040226e+00 9.058503e+01 3.076014e+00 8.462866e+01 3.088962e+00 7.849224e+01 3.060596e+00 7.217429e+01 2.952956e+00 6.562142e+01 2.898688e+00 5.900646e+01 2.770630e+00 5.235405e+01 2.529657e+00 4.557112e+01 2.355415e+00 3.884024e+01 2.107614e+00 3.210484e+01 1.826133e+00 2.533529e+01 1.581582e+00 1.856605e+01 1.292318e+00 1.168329e+01 1.109639e+00 4.791919e+00 9.339468e-01 -2.104432e+00 6.940996e-01 -9.094222e+00 5.885739e-01 -1.600737e+01 4.565138e-01 -2.287118e+01 3.063723e-01 -2.970432e+01 2.088073e-01 -3.645214e+01 8.408727e-02 -4.319357e+01 9.951128e-02 -4.986170e+01 2.114198e-01 -5.643632e+01 4.004491e-01 -6.294446e+01 6.636780e-01 -6.939305e+01 9.915838e-01 -7.576464e+01 1.366513e+00 -8.203015e+01 1.766151e+00 -8.816092e+01 
2.591929e+00 -9.375232e+01 2.868487e+00 -9.978440e+01 3.100766e+00 1.029972e+02 3.278674e+00 9.710764e+01 3.402037e+00 9.116651e+01 3.496925e+00 8.513172e+01 3.569343e+00 7.898123e+01 3.584676e+00 7.269231e+01 3.423936e+00 6.613578e+01 3.341474e+00 5.956539e+01 3.202044e+00 5.300035e+01 2.855351e+00 4.616802e+01 2.757435e+00 3.946353e+01 2.581194e+00 3.274782e+01 2.310715e+00 2.594305e+01 2.201951e+00 1.921521e+01 1.953178e+00 1.231787e+01 1.819791e+00 5.476156e+00 1.702101e+00 -1.316390e+00 1.377226e+00 -8.347823e+00 1.348874e+00 -1.522474e+01 1.263339e+00 -2.206200e+01 1.079170e+00 -2.895336e+01 1.067357e+00 -3.570730e+01 9.338161e-01 -4.251421e+01 9.439116e-01 -4.923429e+01 1.063769e+00 -5.579902e+01 1.240616e+00 -6.228571e+01 1.462879e+00 -6.872003e+01 1.719682e+00 -7.509705e+01 2.000854e+00 -8.140282e+01 2.296012e+00 -8.762428e+01 
1.775701e+00 -9.668566e+01 2.019127e+00 -1.030953e+02 2.196922e+00 1.052449e+02 2.458650e+00 9.896575e+01 2.654620e+00 9.268239e+01 2.814571e+00 8.634541e+01 2.950251e+00 7.992600e+01 3.021500e+00 7.340423e+01 2.836419e+00 6.653099e+01 2.831343e+00 5.979785e+01 2.730099e+00 5.309449e+01 2.294898e+00 4.606465e+01 2.254986e+00 3.927515e+01 2.063921e+00 3.238643e+01 1.754979e+00 2.550396e+01 1.652699e+00 1.873050e+01 1.308980e+00 1.164137e+01 1.198317e+00 4.755012e+00 1.064729e+00 -2.100018e+00 5.997684e-01 -9.259516e+00 5.996337e-01 -1.618026e+01 4.764956e-01 -2.316352e+01 2.489630e-01 -3.010942e+01 2.283423e-01 -3.691108e+01 -7.899833e-03 -4.390967e+01 4.896404e-02 -5.069298e+01 1.885496e-01 -5.733610e+01 3.799765e-01 -6.395173e+01 6.194395e-01 -7.056196e+01 8.947130e-01 -7.715548e+01 1.191184e+00 -8.371503e+01 1.491702e+00 -9.022714e+01 
2.222631e+00 -9.636532e+01 2.380349e+00 -1.030002e+02 2.472588e+00 1.063523e+02 2.778257e+00 9.983893e+01 3.020727e+00 9.340086e+01 3.235798e+00 8.699077e+01 3.454955e+00 8.057114e+01 3.663862e+00 7.407789e+01 3.414966e+00 6.701715e+01 3.288509e+00 6.039268e+01 3.343338e+00 5.383437e+01 2.569975e+00 4.654398e+01 2.715774e+00 3.992036e+01 2.722064e+00 3.299117e+01 2.136353e+00 2.608239e+01 2.326988e+00 1.950649e+01 2.016514e+00 1.218245e+01 1.837041e+00 5.461188e+00 1.936874e+00 -1.198476e+00 1.149573e+00 -8.641188e+00 1.346865e+00 -1.538035e+01 1.401868e+00 -2.239937e+01 8.790416e-01 -2.941206e+01 1.097004e+00 -3.608207e+01 8.465134e-01 -4.333507e+01 7.469844e-01 -5.011483e+01 9.130946e-01 -5.668980e+01 1.122991e+00 -6.328075e+01 1.348482e+00 -6.989468e+01 1.577827e+00 -7.651597e+01 1.805677e+00 -8.313482e+01 2.024720e+00 -8.974920e+01 
1.391161e+00 -9.921747e+01 1.512561e+00 -1.061953e+02 1.550198e+00 1.085279e+02 1.939922e+00 1.016595e+02 2.254568e+00 9.490556e+01 2.535305e+00 8.821530e+01 2.827666e+00 8.154158e+01 3.141480e+00 7.481287e+01 2.790679e+00 6.720093e+01 2.636742e+00 6.070945e+01 2.974248e+00 5.389468e+01 1.766846e+00 4.638837e+01 2.121233e+00 3.992079e+01 2.206368e+00 3.242286e+01 1.404732e+00 2.567453e+01 1.797451e+00 1.916716e+01 1.281055e+00 1.124312e+01 1.179329e+00 4.827925e+00 1.414845e+00 -2.013112e+00 1.779149e-01 -9.645500e+00 5.839870e-01 -1.614507e+01 5.959462e-01 -2.373834e+01 -3.430968e-02 -3.056451e+01 3.066296e-01 -3.717425e+01 -2.671322e-01 -4.509743e+01 -1.287523e-01 -5.162081e+01 6.965265e-02 -5.822330e+01 2.951399e-01 -6.494060e+01 5.329573e-01 -7.172838e+01 7.705435e-01 -7.855705e+01 1.000870e+00 -8.541387e+01 1.213218e+00 -9.229760e+01 
1.852406e+00 -9.889744e+01 1.894233e+00 -1.060802e+02 1.845630e+00 1.096556e+02 2.271619e+00 1.025720e+02 2.616377e+00 9.566911e+01 2.924615e+00 8.892220e+01 3.270937e+00 8.236870e+01 3.846656e+00 7.612132e+01 3.986779e+00 6.699097e+01 2.614749e+00 6.157885e+01 4.063871e+00 5.501906e+01 1.897513e+00 4.623124e+01 2.277105e+00 4.111604e+01 3.720661e+00 3.256168e+01 1.133312e+00 2.614076e+01 2.433858e+00 2.067157e+01 2.619005e+00 1.092530e+01 1.168519e+00 5.816380e+00 2.757985e+00 -6.984561e-01 4.851580e-01 -9.699172e+00 9.463414e-01 -1.478965e+01 2.320968e+00 -2.342752e+01 -8.254421e-02 -2.995474e+01 1.060131e+00 -3.569903e+01 1.218575e+00 -4.529281e+01 4.501212e-03 -5.098292e+01 6.320501e-01 -5.749800e+01 9.786493e-01 -6.423123e+01 1.226551e+00 -7.104661e+01 1.430158e+00 -7.791718e+01 1.604845e+00 -8.484119e+01 1.749331e+00 -9.182817e+01 
1.021098e+00 -1.016358e+02 1.025735e+00 -1.091257e+02 9.248184e-01 1.117034e+02 1.430916e+00 1.043030e+02 1.841867e+00 9.712092e+01 2.201338e+00 9.014565e+01 2.578945e+00 8.343967e+01 3.168583e+00 7.710168e+01 3.351287e+00 6.731065e+01 2.198313e+00 6.199516e+01 3.642485e+00 5.528288e+01 1.417458e+00 4.614807e+01 1.833364e+00 4.117934e+01 3.363814e+00 3.219959e+01 5.726747e-01 2.583056e+01 1.980652e+00 2.045402e+01 2.167363e+00 1.021098e+01 5.331887e-01 5.318310e+00 2.352237e+00 -1.314631e+00 -2.338314e-01 -1.059576e+01 2.870176e-01 -1.548363e+01 1.930427e+00 -2.453289e+01 -9.343139e-01 -3.097445e+01 4.289153e-01 -3.666338e+01 6.663265e-01 -4.670116e+01 -9.527321e-01 -5.226325e+01 -2.060916e-01 -5.893578e+01 1.835300e-01 -6.584471e+01 4.423100e-01 -7.284317e+01 6.452270e-01 -7.991312e+01 8.127281e-01 -8.705826e+01 9.426232e-01 -9.429162e+01 
1.496682e+00 -1.012708e+02 1.429657e+00 -1.089418e+02 1.252266e+00 1.127769e+02 1.783538e+00 1.051751e+02 2.214032e+00 9.782126e+01 2.579886e+00 9.067475e+01 2.916624e+00 8.370407e+01 3.239061e+00 7.681002e+01 2.958499e+00 6.844576e+01 3.054520e+00 6.202137e+01 3.356547e+00 5.513894e+01 2.170790e+00 4.724045e+01 2.534598e+00 4.095561e+01 2.766120e+00 3.314120e+01 1.826353e+00 2.638487e+01 2.373232e+00 2.003612e+01 2.025005e+00 1.169373e+01 1.719929e+00 5.499142e+00 2.237332e+00 -1.299276e+00 8.119068e-01 -9.225256e+00 1.228461e+00 -1.548166e+01 1.606587e+00 -2.333131e+01 5.197635e-01 -3.017501e+01 1.094649e+00 -3.671167e+01 7.686048e-01 -4.499795e+01 3.710628e-01 -5.147264e+01 7.022494e-01 -5.822394e+01 9.538510e-01 -6.513247e+01 1.149300e+00 -7.214614e+01 1.301654e+00 -7.925364e+01 1.415132e+00 -8.646243e+01 1.484614e+00 -9.379160e+01 
6.768270e-01 -1.038708e+02 5.745954e-01 -1.118129e+02 3.520932e-01 1.146460e+02 9.560535e-01 1.067568e+02 1.451277e+00 9.913124e+01 1.875442e+00 9.171615e+01 2.265601e+00 8.444648e+01 2.621455e+00 7.719624e+01 2.450385e+00 6.941869e+01 2.537112e+00 6.228489e+01 2.682871e+00 5.525650e+01 1.894295e+00 4.755561e+01 2.155866e+00 4.061932e+01 2.161715e+00 3.329664e+01 1.597629e+00 2.616452e+01 1.855890e+00 1.936855e+01 1.472133e+00 1.171834e+01 1.350321e+00 4.864551e+00 1.460357e+00 -2.012493e+00 5.253846e-01 -9.669827e+00 7.927514e-01 -1.655566e+01 8.064913e-01 -2.389718e+01 2.231819e-01 -3.108401e+01 4.725937e-01 -3.800034e+01 6.529997e-02 -4.567188e+01 -3.374750e-02 -5.269459e+01 9.146212e-02 -5.964944e+01 2.565616e-01 -6.671700e+01 4.145993e-01 -7.389719e+01 5.460656e-01 -8.118675e+01 6.420549e-01 -8.859606e+01 6.913222e-01 -9.614665e+01 
1.168085e+00 -1.034248e+02 1.001838e+00 -1.115221e+02 7.099142e-01 1.156120e+02 1.328962e+00 1.075437e+02 1.830069e+00 9.975700e+01 2.240610e+00 9.218848e+01 2.576957e+00 8.476531e+01 2.817447e+00 7.739214e+01 2.760976e+00 6.988106e+01 2.858919e+00 6.260692e+01 2.891501e+00 5.547613e+01 2.471914e+00 4.806783e+01 2.543497e+00 4.096679e+01 2.479764e+00 3.379816e+01 2.210110e+00 2.666176e+01 2.253741e+00 1.970879e+01 1.991397e+00 1.240880e+01 1.921220e+00 5.398613e+00 1.869439e+00 -1.545166e+00 1.359881e+00 -8.899847e+00 1.415952e+00 -1.593358e+01 1.342046e+00 -2.310523e+01 1.063759e+00 -3.029139e+01 1.101603e+00 -3.730514e+01 8.386590e-01 -4.467373e+01 8.292428e-01 -5.180402e+01 9.087863e-01 -5.884253e+01 1.013975e+00 -6.594768e+01 1.118205e+00 -7.315546e+01 1.200383e+00 -8.048250e+01 1.246220e+00 -8.794916e+01 1.241488e+00 -9.558385e+01 
3.666878e-01 -1.058674e+02 1.684784e-01 -1.141999e+02 -1.621743e-01 1.172717e+02 5.213209e-01 1.089514e+02 1.080175e+00 1.009233e+02 1.540428e+00 9.312336e+01 1.915180e+00 8.548408e+01 2.177540e+00 7.793644e+01 2.198384e+00 7.037198e+01 2.287987e+00 6.291793e+01 2.302713e+00 5.560817e+01 2.027317e+00 4.814409e+01 2.044729e+00 4.087383e+01 1.953914e+00 3.365441e+01 1.748784e+00 2.640771e+01 1.712764e+00 1.928672e+01 1.479311e+00 1.201875e+01 1.379031e+00 4.866823e+00 1.255105e+00 -2.219342e+00 8.751356e-01 -9.563520e+00 8.425172e-01 -1.674644e+01 7.153264e-01 -2.394546e+01 5.033864e-01 -3.121597e+01 4.604478e-01 -3.839025e+01 2.350425e-01 -4.573606e+01 2.208303e-01 -5.300722e+01 2.655232e-01 -6.021689e+01 3.340954e-01 -6.747887e+01 4.085490e-01 -7.484313e+01 4.675488e-01 -8.233576e+01 4.927589e-01 -8.998171e+01 4.661226e-01 -9.781212e+01 
8.752750e-01 -1.053116e+02 6.208258e-01 -1.137717e+02 2.277867e-01 1.180972e+02 9.200548e-01 1.096293e+02 1.479065e+00 1.014717e+02 1.926099e+00 9.356051e+01 2.270480e+00 8.583278e+01 2.498662e+00 7.823041e+01 2.568763e+00 7.068927e+01 2.647736e+00 6.323983e+01 2.653692e+00 5.590271e+01 2.498852e+00 4.853301e+01 2.469351e+00 4.127315e+01 2.386472e+00 3.407279e+01 2.254108e+00 2.687372e+01 2.183575e+00 1.974605e+01 2.016688e+00 1.256390e+01 1.919227e+00 5.432871e+00 1.792783e+00 -1.661553e+00 1.545865e+00 -8.887567e+00 1.464888e+00 -1.604892e+01 1.347544e+00 -2.321458e+01 1.205106e+00 -3.042881e+01 1.133764e+00 -3.760376e+01 9.882554e-01 -4.487547e+01 9.774403e-01 -5.213264e+01 1.010050e+00 -5.936805e+01 1.053717e+00 -6.665494e+01 1.094562e+00 -7.404306e+01 1.115413e+00 -8.156735e+01 1.098671e+00 -8.926061e+01 1.025783e+00 -9.716016e+01 
9.647343e-02 -1.075827e+02 -1.857907e-01 -1.162422e+02 -6.119991e-01 1.195304e+02 1.367666e-01 1.108498e+02 7.459858e-01 1.024892e+02 1.235891e+00 9.438777e+01 1.615016e+00 8.648760e+01 1.872758e+00 7.873547e+01 1.989707e+00 7.106987e+01 2.078865e+00 6.349314e+01 2.094050e+00 5.601901e+01 1.991453e+00 4.855207e+01 1.950839e+00 4.118279e+01 1.866089e+00 3.388416e+01 1.742319e+00 2.659563e+01 1.646457e+00 1.936360e+01 1.486887e+00 1.211660e+01 1.364006e+00 4.897444e+00 1.216066e+00 -2.300021e+00 9.969083e-01 -9.580907e+00 8.809856e-01 -1.682836e+01 7.473929e-01 -2.407236e+01 6.041104e-01 -3.136129e+01 5.065495e-01 -3.863915e+01 3.745624e-01 -4.598044e+01 3.415932e-01 -5.333933e+01 3.524030e-01 -6.070517e+01 3.756897e-01 -6.812822e+01 3.966530e-01 -7.565630e+01 3.986901e-01 -8.332771e+01 3.633225e-01 -9.117828e+01 2.703096e-01 -9.924751e+01 
6.246109e-01 -1.068937e+02 2.945660e-01 -1.156522e+02 -1.852703e-01 1.201891e+02 5.683160e-01 1.113958e+02 1.176610e+00 1.029404e+02 1.659156e+00 9.476304e+01 2.025866e+00 8.680764e+01 2.275158e+00 7.902227e+01 2.407791e+00 7.135336e+01 2.495734e+00 6.378690e+01 2.516562e+00 5.632168e+01 2.452981e+00 4.889846e+01 2.410800e+00 4.156024e+01 2.339368e+00 3.428948e+01 2.242534e+00 2.704251e+01 2.154838e+00 1.984102e+01 2.028771e+00 1.264326e+01 1.919323e+00 5.464643e+00 1.790648e+00 -1.701530e+00 1.620494e+00 -8.918697e+00 1.508351e+00 -1.612340e+01 1.392182e+00 -2.333061e+01 1.274680e+00 -3.057505e+01 1.185702e+00 -3.782638e+01 1.086201e+00 -4.512889e+01 1.053528e+00 -5.246399e+01 1.056420e+00 -5.982542e+01 1.065558e+00 -6.725234e+01 1.065234e+00 -7.479038e+01 1.039869e+00 -8.248107e+01 9.718173e-01 -9.036472e+01 8.411215e-01 -9.848517e+01 
-1.287987e-01 -1.089831e+02 -4.815403e-01 -1.179058e+02 -9.886354e-01 1.213838e+02 -1.862821e-01 1.124173e+02 4.654201e-01 1.037964e+02 9.858356e-01 9.546361e+01 1.385200e+00 8.736449e+01 1.663564e+00 7.944697e+01 1.825139e+00 7.165548e+01 1.930577e+00 6.397389e+01 1.964661e+00 5.639746e+01 1.919404e+00 4.887317e+01 1.879823e+00 4.143859e+01 1.808581e+00 3.407645e+01 1.709846e+00 2.674239e+01 1.613418e+00 1.945475e+01 1.482904e+00 1.217905e+01 1.359586e+00 4.920797e+00 1.219158e+00 -2.326613e+00 1.045385e+00 -9.616176e+00 9.175823e-01 -1.689721e+01 7.892849e-01 -2.418099e+01 6.603613e-01 -3.150395e+01 5.589260e-01 -3.884123e+01 4.549251e-01 -4.622673e+01 4.063182e-01 -5.365577e+01 3.938187e-01 -6.112327e+01 3.891884e-01 -6.866390e+01 3.754234e-01 -7.632185e+01 3.363544e-01 -8.413925e+01 2.537362e-01 -9.215745e+01 1.067428e-01 -1.004213e+02 
4.217030e-01 -1.081423e+02 3.014294e-02 -1.171343e+02 -5.206399e-01 1.218518e+02 2.830226e-01 1.128078e+02 9.335379e-01 1.041263e+02 1.451825e+00 9.574952e+01 1.850242e+00 8.762257e+01 2.130025e+00 7.969309e+01 2.290473e+00 7.190270e+01 2.397682e+00 6.423248e+01 2.437629e+00 5.668347e+01 2.394796e+00 4.918470e+01 2.367363e+00 4.178748e+01 2.308150e+00 3.447030e+01 2.219845e+00 2.717329e+01 2.145937e+00 1.993119e+01 2.034167e+00 1.270176e+01 1.929144e+00 5.489778e+00 1.811147e+00 -1.705615e+00 1.651814e+00 -8.953573e+00 1.545239e+00 -1.618757e+01 1.434450e+00 -2.342206e+01 1.315513e+00 -3.071011e+01 1.232063e+00 -3.800985e+01 1.135830e+00 -4.536051e+01 1.085977e+00 -5.276428e+01 1.070006e+00 -6.020836e+01 1.057657e+00 -6.773206e+01 1.031193e+00 -7.538233e+01 9.738565e-01 -8.320286e+01 8.673996e-01 -9.123690e+01 6.913026e-01 -9.953174e+01 
-3.040820e-01 -1.100436e+02 -7.123112e-01 -1.191649e+02 -1.283648e+00 1.227982e+02 -4.390595e-01 1.136197e+02 2.482472e-01 1.048088e+02 7.997943e-01 9.630878e+01 1.228755e+00 8.806496e+01 1.535789e+00 8.002382e+01 1.712137e+00 7.212077e+01 1.838009e+00 6.434714e+01 1.890908e+00 5.670975e+01 1.845696e+00 4.910937e+01 1.827050e+00 4.162704e+01 1.768296e+00 3.423118e+01 1.671474e+00 2.684836e+01 1.598810e+00 1.953280e+01 1.476947e+00 1.222270e+01 1.363697e+00 4.937064e+00 1.239236e+00 -2.322635e+00 1.058451e+00 -9.653300e+00 9.461082e-01 -1.695758e+01 8.254344e-01 -2.426070e+01 6.884445e-01 -3.163029e+01 6.004830e-01 -3.900495e+01 4.900352e-01 -4.644049e+01 4.280694e-01 -5.393147e+01 4.034654e-01 -6.146080e+01 3.831505e-01 -6.907632e+01 3.488347e-01 -7.682592e+01 2.829436e-01 -8.475226e+01 1.667271e-01 -9.289789e+01 -2.079683e-02 -1.013100e+02 
2.719566e-01 -1.090365e+02 -1.661452e-01 -1.181964e+02 -7.712338e-01 1.230520e+02 7.013064e-02 1.138321e+02 7.542680e-01 1.049956e+02 1.306449e+00 9.648524e+01 1.744246e+00 8.824367e+01 2.066393e+00 8.021383e+01 2.226616e+00 7.231637e+01 2.347756e+00 6.455747e+01 2.412888e+00 5.697769e+01 2.329736e+00 4.937489e+01 2.338296e+00 4.194291e+01 2.295712e+00 3.461621e+01 2.180720e+00 2.725782e+01 2.154924e+00 2.000924e+01 2.042403e+00 1.273789e+01 1.941730e+00 5.505654e+00 1.852204e+00 -1.671364e+00 1.646546e+00 -8.995226e+00 1.574420e+00 -1.624182e+01 1.477292e+00 -2.347562e+01 1.322133e+00 -3.082787e+01 1.272909e+00 -3.814891e+01 1.152716e+00 -4.555590e+01 1.077479e+00 -5.302171e+01 1.054284e+00 -6.050383e+01 1.034427e+00 -6.808009e+01 9.966937e-01 -7.580373e+01 9.213305e-01 -8.371598e+01 7.894885e-01 -9.185876e+01 5.809337e-01 -1.002800e+02 
-4.243168e-01 -1.107466e+02 -8.722692e-01 -1.200014e+02 -1.490336e+00 1.237431e+02 -6.163437e-01 1.144264e+02 9.727247e-02 1.054959e+02 6.771390e-01 9.689538e+01 1.143225e+00 8.856739e+01 1.496273e+00 8.045039e+01 1.661998e+00 7.243138e+01 1.791719e+00 6.459201e+01 1.879902e+00 5.695962e+01 1.761895e+00 4.923366e+01 1.788896e+00 4.174523e+01 1.758426e+00 3.434616e+01 1.607284e+00 2.690073e+01 1.604869e+00 1.960861e+01 1.481638e+00 1.222888e+01 1.364478e+00 4.942243e+00 1.288131e+00 -2.269858e+00 1.028224e+00 -9.709427e+00 9.638887e-01 -1.700101e+01 8.709965e-01 -2.430191e+01 6.702692e-01 -3.174045e+01 6.368201e-01 -3.911015e+01 4.985784e-01 -4.662776e+01 4.027800e-01 -5.416388e+01 3.803933e-01 -6.170289e+01 3.611283e-01 -6.934986e+01 3.221831e-01 -7.715404e+01 2.436135e-01 -8.515225e+01 1.070182e-01 -9.338419e+01 -1.076496e-01 -1.018969e+02 
1.805193e-01 -1.095624e+02 -2.886674e-01 -1.188241e+02 -9.310795e-01 1.237605e+02 -6.708119e-02 1.144384e+02 6.373894e-01 1.055186e+02 1.214814e+00 9.694753e+01 1.696819e+00 8.866742e+01 2.101637e+00 8.059769e+01 2.258314e+00 7.252308e+01 2.307946e+00 6.474203e+01 2.472496e+00 5.724539e+01 2.229902e+00 4.940090e+01 2.305000e+00 4.204219e+01 2.354672e+00 3.472034e+01 2.058702e+00 2.726733e+01 2.188064e+00 2.012671e+01 2.097737e+00 1.268823e+01 1.911843e+00 5.511768e+00 1.954447e+00 -1.539399e+00 1.574696e+00 -9.105324e+00 1.580248e+00 -1.625745e+01 1.575904e+00 -2.348545e+01 1.233815e+00 -3.094210e+01 1.320301e+00 -3.818812e+01 1.189069e+00 -4.576555e+01 9.964696e-01 -5.324478e+01 9.949812e-01 -6.068938e+01 9.972643e-01 -6.827599e+01 9.686493e-01 -7.603960e+01 8.892274e-01 -8.400776e+01 7.439146e-01 -9.221772e+01 5.151741e-01 -1.007167e+02 
-4.847851e-01 -1.110813e+02 -9.562146e-01 -1.204041e+02 -1.602754e+00 1.241918e+02 -7.151818e-01 1.148095e+02 1.034068e-02 1.058295e+02 6.071323e-01 9.720228e+01 1.109402e+00 8.887849e+01 1.546263e+00 8.079598e+01 1.756645e+00 7.241009e+01 1.692970e+00 6.472123e+01 1.985039e+00 5.720998e+01 1.632409e+00 4.910997e+01 1.699519e+00 4.187889e+01 1.880281e+00 3.435566e+01 1.388901e+00 2.686005e+01 1.620372e+00 1.980558e+01 1.587917e+00 1.202539e+01 1.253590e+00 4.967701e+00 1.437573e+00 -2.088163e+00 9.115473e-01 -9.919757e+00 9.097903e-01 -1.692849e+01 1.029913e+00 -2.435942e+01 4.863432e-01 -3.185740e+01 6.606896e-01 -3.903408e+01 5.738504e-01 -4.695130e+01 2.490827e-01 -5.434809e+01 3.053698e-01 -6.181757e+01 3.275804e-01 -6.946314e+01 3.048256e-01 -7.729317e+01 2.264697e-01 -8.532928e+01 8.077414e-02 -9.360674e+01 -1.488223e-01 -1.021718e+02 
1.517576e-01 -1.097122e+02 -3.323069e-01 -1.190092e+02 -9.930257e-01 1.239531e+02 -1.253542e-01 1.145991e+02 5.803111e-01 1.056600e+02 1.159843e+00 9.709966e+01 1.657647e+00 8.891047e+01 2.166166e+00 8.113440e+01 2.761251e+00 7.205416e+01 1.935591e+00 6.491110e+01 2.735529e+00 5.770854e+01 2.144289e+00 4.887145e+01 1.999899e+00 4.239875e+01 2.872840e+00 3.459001e+01 1.538338e+00 2.710237e+01 2.146720e+00 2.068337e+01 2.614624e+00 1.207346e+01 1.453926e+00 5.650748e+00 2.290023e+00 -1.062495e+00 1.463298e+00 -9.681922e+00 1.299808e+00 -1.590893e+01 2.129300e+00 -2.363179e+01 7.446160e-01 -3.112177e+01 1.267308e+00 -3.773915e+01 1.688530e+00 -4.642367e+01 5.527229e-01 -5.335991e+01 8.603827e-01 -6.070335e+01 9.652356e-01 -6.829702e+01 9.648047e-01 -7.608069e+01 8.886150e-01 -8.407188e+01 7.374985e-01 -9.230741e+01 4.988706e-01 -1.008349e+02 
-4.819214e-01 -1.110429e+02 -9.597982e-01 -1.203677e+02 -1.613925e+00 1.241249e+02 -7.324178e-01 1.147445e+02 -1.348458e-02 1.057732e+02 5.786446e-01 9.717459e+01 1.088404e+00 8.894009e+01 1.606901e+00 8.111017e+01 2.200138e+00 7.199639e+01 1.387348e+00 6.479637e+01 2.188553e+00 5.752990e+01 1.594709e+00 4.865863e+01 1.461183e+00 4.211756e+01 2.316651e+00 3.425562e+01 9.938065e-01 2.671782e+01 1.591475e+00 2.022585e+01 2.033044e+00 1.158009e+01 8.905902e-01 5.089678e+00 1.697976e+00 -1.692798e+00 8.660371e-01 -1.033976e+01 7.042905e-01 -1.664151e+01 1.495829e+00 -2.441333e+01 1.356156e-01 -3.195156e+01 6.398119e-01 -3.864113e+01 1.028704e+00 -4.735645e+01 -6.987613e-02 -5.435724e+01 2.239435e-01 -6.175586e+01 3.218396e-01 -6.940309e+01 3.188663e-01 -7.723916e+01 2.429957e-01 -8.528029e+01 9.432796e-02 -9.356198e+01 -1.401813e-01 -1.021306e+02 