# vtk DataFile Version 2.0
Comment goes here
ASCII

DATASET STRUCTURED_POINTS
FIELD FieldData 1
TIME 1 1 double
0.04500000
DIMENSIONS    64   64   1

ORIGIN    0.000   0.000   0.000
SPACING   0.03125 0.03125   1.000

POINT_DATA   4096
SCALARS P double
LOOKUP_TABLE default

-2.649426e+01 -1.751736e+02 -1.909972e+01 -1.747197e+02 4.411062e+01 1.392006e+02 -4.511568e+00 1.231019e+02 2.857068e+00 1.057517e+02 7.456012e+00 9.595283e+01 4.341976e-01 9.566396e+01 -1.277322e+01 9.640785e+01 -2.241997e+01 9.211536e+01 -2.576387e+01 8.159146e+01 -2.281863e+01 6.653060e+01 -1.482276e+01 4.662372e+01 -5.604716e+00 2.885973e+01 1.057887e+00 1.031964e+01 9.178975e+00 -1.093793e+01 1.704691e+01 -2.859666e+01 1.951419e+01 -3.948906e+01 1.219172e+01 -4.042868e+01 -4.595199e+00 -3.348192e+01 -2.764017e+01 -2.413080e+01 -4.931284e+01 -2.203630e+01 -6.175555e+01 -2.739174e+01 -6.725265e+01 -3.948207e+01 -6.526886e+01 -5.680675e+01 -5.796823e+01 -7.709169e+01 -4.915953e+01 -9.591873e+01 -4.390263e+01 -1.084675e+02 -4.293386e+01 -1.208705e+02 -3.761071e+01 -1.364222e+02 -3.191634e+01 -1.478018e+02 -2.918392e+01 -1.554577e+02 -2.619995e+01 -1.561390e+02 
-7.700588e+00 -1.217066e+02 -3.308105e+00 -1.217026e+02 4.190551e+01 1.136887e+02 2.555581e+00 1.042678e+02 5.131821e+00 9.370628e+01 7.016077e+00 8.665526e+01 3.053933e+00 8.427359e+01 -3.803253e+00 8.209058e+01 -8.585058e+00 7.717678e+01 -1.025969e+01 6.922625e+01 -9.069242e+00 5.926501e+01 -5.584119e+00 4.684217e+01 -1.652632e+00 3.591677e+01 6.290121e-01 2.457448e+01 4.019796e+00 1.134489e+01 7.908124e+00 -5.244510e-01 9.765483e+00 -9.550822e+00 7.252734e+00 -1.397152e+01 4.348755e-01 -1.462181e+01 -9.455790e+00 -1.400760e+01 -1.874858e+01 -1.708467e+01 -2.348749e+01 -2.347588e+01 -2.536260e+01 -3.277728e+01 -2.389906e+01 -4.425534e+01 -2.011869e+01 -5.695781e+01 -1.579154e+01 -6.870615e+01 -1.355207e+01 -7.680525e+01 -1.384927e+01 -8.491903e+01 -1.150431e+01 -9.496591e+01 -8.925983e+00 -1.026314e+02 -8.011856e+00 -1.081571e+02 -6.764427e+00 -1.090067e+02 
4.324782e+00 -8.986878e+01 5.513707e+00 -9.172064e+01 1.995500e+01 9.703266e+01 5.553564e+00 9.302467e+01 4.899190e+00 8.798666e+01 4.506436e+00 8.286686e+01 3.326919e+00 7.803069e+01 1.889459e+00 7.278746e+01 9.496242e-01 6.687071e+01 4.090210e-01 6.043933e+01 1.745790e-01 5.374095e+01 2.384803e-01 4.662576e+01 2.994446e-01 3.989884e+01 -3.271226e-02 3.308021e+01 -1.563952e-02 2.565638e+01 4.475182e-01 1.812916e+01 9.972504e-01 1.065431e+01 1.231224e+00 3.533327e+00 1.155694e+00 -3.190631e+00 7.099412e-01 -9.640905e+00 3.324433e-01 -1.658946e+01 5.753752e-01 -2.372581e+01 9.214625e-01 -3.100230e+01 1.534731e+00 -3.834593e+01 2.276247e+00 -4.563766e+01 2.958346e+00 -5.258476e+01 3.221595e+00 -5.863228e+01 2.982931e+00 -6.454851e+01 3.405001e+00 -7.069430e+01 3.895935e+00 -7.609082e+01 4.039398e+00 -8.076502e+01 4.351159e+00 -8.383147e+01 
4.003935e+00 -9.039260e+01 5.569492e+00 -9.325705e+01 6.912037e+00 9.766548e+01 6.003897e+00 9.352583e+01 5.154400e+00 8.843541e+01 4.379157e+00 8.324204e+01 3.131411e+00 7.822244e+01 1.676886e+00 7.296058e+01 5.617624e-01 6.712116e+01 -6.301926e-02 6.069204e+01 -2.489471e-01 5.381950e+01 -1.028345e-01 4.658861e+01 1.374213e-01 3.940793e+01 2.823489e-01 3.211432e+01 6.435959e-01 2.451300e+01 1.262670e+00 1.689180e+01 1.774822e+00 9.527613e+00 1.832085e+00 2.660836e+00 1.385001e+00 -3.722679e+00 5.583479e-01 -9.920188e+00 -2.083775e-01 -1.647932e+01 -4.784370e-01 -2.343065e+01 -3.679085e-01 -3.072407e+01 1.241191e-01 -3.821462e+01 8.651920e-01 -4.566773e+01 1.594032e+00 -5.275470e+01 2.022731e+00 -5.920368e+01 2.151770e+00 -6.537531e+01 2.515215e+00 -7.142846e+01 2.953965e+00 -7.689434e+01 3.280939e+00 -8.163892e+01 3.680190e+00 -8.562093e+01 
4.576986e+00 -8.979536e+01 5.670813e+00 -9.301519e+01 6.857109e+00 9.701470e+01 5.660964e+00 9.318221e+01 4.717556e+00 8.845684e+01 3.936680e+00 8.335675e+01 3.010790e+00 7.809217e+01 2.051337e+00 7.251051e+01 1.302532e+00 6.651059e+01 8.071487e-01 6.013842e+01 5.280071e-01 5.349090e+01 4.160601e-01 4.662032e+01 3.574101e-01 3.974327e+01 2.576393e-01 3.276015e+01 2.996391e-01 2.555121e+01 5.260309e-01 1.825547e+01 7.914339e-01 1.099223e+01 9.371966e-01 3.891273e+00 9.241234e-01 -3.027142e+00 7.722187e-01 -9.864000e+00 6.713196e-01 -1.684070e+01 8.000222e-01 -2.392423e+01 1.067584e+00 -3.107790e+01 1.476008e+00 -3.822661e+01 1.954301e+00 -4.526827e+01 2.394728e+00 -5.204635e+01 2.675796e+00 -5.841094e+01 2.815396e+00 -6.454082e+01 3.103781e+00 -7.049764e+01 3.447311e+00 -7.600008e+01 3.755877e+00 -8.095739e+01 4.158973e+00 -8.532966e+01 
4.151104e+00 -9.153873e+01 5.354303e+00 -9.530561e+01 6.655220e+00 9.787571e+01 5.626484e+00 9.385299e+01 4.663711e+00 8.901696e+01 3.759107e+00 8.380929e+01 2.768355e+00 7.842297e+01 1.767137e+00 7.276970e+01 9.532852e-01 6.672875e+01 4.339289e-01 6.028546e+01 1.926124e-01 5.350052e+01 1.623977e-01 4.645796e+01 2.555044e-01 3.930897e+01 3.952973e-01 3.205646e+01 6.350883e-01 2.469013e+01 9.558053e-01 1.733262e+01 1.196919e+00 1.012426e+01 1.213686e+00 3.170623e+00 9.655689e-01 -3.551051e+00 5.334406e-01 -1.019821e+01 1.359019e-01 -1.697793e+01 -4.219506e-02 -2.395437e+01 2.091034e-02 -3.110788e+01 3.162136e-01 -3.834188e+01 7.645349e-01 -4.551126e+01 1.242245e+00 -5.244573e+01 1.626246e+00 -5.903748e+01 1.912779e+00 -6.535401e+01 2.243609e+00 -7.141114e+01 2.618137e+00 -7.706335e+01 3.016898e+00 -8.224185e+01 3.511769e+00 -8.698433e+01 
4.390102e+00 -9.156692e+01 5.272491e+00 -9.568297e+01 6.297948e+00 9.793682e+01 5.280355e+00 9.385200e+01 4.353160e+00 8.909572e+01 3.546233e+00 8.389786e+01 2.772721e+00 7.840065e+01 2.048845e+00 7.260475e+01 1.450984e+00 6.648844e+01 1.026330e+00 6.008088e+01 7.486043e-01 5.343770e+01 5.744995e-01 4.660905e+01 4.846341e-01 3.968694e+01 4.343971e-01 3.266926e+01 4.598153e-01 2.553526e+01 5.799414e-01 1.834859e+01 7.195414e-01 1.117500e+01 8.170793e-01 4.070459e+00 8.391780e-01 -2.955582e+00 7.958777e-01 -9.956443e+00 7.977508e-01 -1.699416e+01 9.020397e-01 -2.406915e+01 1.094258e+00 -3.116500e+01 1.379055e+00 -3.822120e+01 1.705643e+00 -4.516928e+01 2.026978e+00 -5.193419e+01 2.298643e+00 -5.845026e+01 2.523828e+00 -6.473930e+01 2.783532e+00 -7.079490e+01 3.082312e+00 -7.652388e+01 3.419163e+00 -8.187694e+01 3.844239e+00 -8.685941e+01 
3.808494e+00 -9.367189e+01 4.704454e+00 -9.824897e+01 5.673498e+00 9.921868e+01 4.884059e+00 9.479116e+01 4.054628e+00 8.982576e+01 3.251711e+00 8.446942e+01 2.462609e+00 7.883478e+01 1.719345e+00 7.292610e+01 1.099952e+00 6.670788e+01 6.885644e-01 6.019150e+01 4.500636e-01 5.341519e+01 3.370285e-01 4.642266e+01 3.548540e-01 3.931068e+01 4.365496e-01 3.211631e+01 5.746884e-01 2.486184e+01 7.480487e-01 1.762230e+01 8.618497e-01 1.046572e+01 8.726090e-01 3.442167e+00 7.347787e-01 -3.469208e+00 4.826478e-01 -1.035757e+01 2.699373e-01 -1.729289e+01 1.640924e-01 -2.431406e+01 1.979089e-01 -3.141751e+01 3.841347e-01 -3.853991e+01 6.703643e-01 -4.559809e+01 1.017999e+00 -5.249633e+01 1.353234e+00 -5.917437e+01 1.653358e+00 -6.562589e+01 1.959771e+00 -7.183754e+01 2.297200e+00 -7.775820e+01 2.686825e+00 -8.335908e+01 3.173248e+00 -8.865250e+01 
3.868371e+00 -9.399555e+01 4.514322e+00 -9.891641e+01 5.235566e+00 9.984618e+01 4.526384e+00 9.517728e+01 3.799945e+00 9.011066e+01 3.129163e+00 8.468435e+01 2.513572e+00 7.896564e+01 1.955230e+00 7.298223e+01 1.472443e+00 6.673090e+01 1.136531e+00 6.023444e+01 8.937981e-01 5.354619e+01 6.872974e-01 4.668187e+01 5.987571e-01 3.972130e+01 5.558052e-01 3.269296e+01 5.501246e-01 2.557463e+01 6.273968e-01 1.842897e+01 7.051525e-01 1.129246e+01 7.849209e-01 4.171266e+00 8.254378e-01 -2.918384e+00 7.954837e-01 -1.001695e+01 8.375040e-01 -1.711714e+01 9.293681e-01 -2.420458e+01 1.053563e+00 -3.129875e+01 1.265037e+00 -3.833393e+01 1.494519e+00 -4.526396e+01 1.743425e+00 -5.208199e+01 1.994390e+00 -5.873088e+01 2.220356e+00 -6.518809e+01 2.449504e+00 -7.144017e+01 2.705441e+00 -7.745681e+01 3.007502e+00 -8.321967e+01 3.384853e+00 -8.873037e+01 
3.178808e+00 -9.619653e+01 3.793429e+00 -1.015301e+02 4.431754e+00 1.014395e+02 3.917795e+00 9.637930e+01 3.325472e+00 9.102999e+01 2.721569e+00 8.538981e+01 2.133433e+00 7.949652e+01 1.580664e+00 7.336156e+01 1.090860e+00 6.696590e+01 8.044429e-01 6.033672e+01 6.004595e-01 5.352199e+01 4.204297e-01 4.650177e+01 4.135964e-01 3.939255e+01 4.407075e-01 3.223545e+01 5.041749e-01 2.502157e+01 6.115798e-01 1.782616e+01 6.506772e-01 1.067546e+01 6.891017e-01 3.595589e+00 6.166664e-01 -3.426624e+00 4.134816e-01 -1.047691e+01 3.064597e-01 -1.753097e+01 2.391846e-01 -2.460220e+01 2.442801e-01 -3.171609e+01 3.716873e-01 -3.881485e+01 5.484431e-01 -4.585510e+01 8.363354e-01 -5.278006e+01 1.137038e+00 -5.955200e+01 1.407177e+00 -6.615050e+01 1.668081e+00 -7.256593e+01 1.949578e+00 -7.878281e+01 2.277380e+00 -8.479203e+01 2.678737e+00 -9.059661e+01 
3.133323e+00 -9.666669e+01 3.529797e+00 -1.023264e+02 3.935386e+00 1.024561e+02 3.543704e+00 9.709652e+01 3.086941e+00 9.155529e+01 2.630074e+00 8.578482e+01 2.201540e+00 7.979304e+01 1.800897e+00 7.360043e+01 1.401170e+00 6.720179e+01 1.189217e+00 6.056259e+01 1.008068e+00 5.380134e+01 7.359434e-01 4.685028e+01 6.869708e-01 3.982284e+01 6.443762e-01 3.279903e+01 5.892610e-01 2.564795e+01 6.755995e-01 1.850052e+01 7.070632e-01 1.139845e+01 8.039917e-01 4.240907e+00 8.696868e-01 -2.888045e+00 7.641889e-01 -1.007407e+01 8.406167e-01 -1.725434e+01 9.228845e-01 -2.434708e+01 9.608594e-01 -3.149476e+01 1.145986e+00 -3.856449e+01 1.294754e+00 -4.548954e+01 1.496080e+00 -5.241101e+01 1.733181e+00 -5.920674e+01 1.924895e+00 -6.583976e+01 2.101343e+00 -7.231588e+01 2.294178e+00 -7.863649e+01 2.521653e+00 -8.480086e+01 2.797809e+00 -9.081160e+01 
2.379604e+00 -9.884212e+01 2.715448e+00 -1.048729e+02 3.015398e+00 1.042468e+02 2.805938e+00 9.849794e+01 2.493952e+00 9.264125e+01 2.133865e+00 8.661739e+01 1.762375e+00 8.041563e+01 1.386463e+00 7.403145e+01 9.597762e-01 6.744757e+01 8.632070e-01 6.065434e+01 7.081587e-01 5.379572e+01 3.981236e-01 4.667827e+01 4.468603e-01 3.952682e+01 4.140859e-01 3.240112e+01 4.214745e-01 2.517092e+01 5.315811e-01 1.798186e+01 4.776971e-01 1.082111e+01 6.201294e-01 3.687567e+00 5.980730e-01 -3.385501e+00 3.016853e-01 -1.058845e+01 3.061416e-01 -1.775384e+01 2.381280e-01 -2.486349e+01 2.000312e-01 -3.203486e+01 3.111415e-01 -3.916657e+01 3.586129e-01 -4.624310e+01 6.713747e-01 -5.323196e+01 9.614457e-01 -6.010462e+01 1.176988e+00 -6.684846e+01 1.366510e+00 -7.347531e+01 1.567389e+00 -7.998819e+01 1.797993e+00 -8.638625e+01 2.068194e+00 -9.267122e+01 
2.268971e+00 -9.937147e+01 2.403549e+00 -1.057036e+02 2.474985e+00 1.055077e+02 2.412091e+00 9.945558e+01 2.248164e+00 9.337828e+01 2.041546e+00 8.719560e+01 1.834613e+00 8.086971e+01 1.622271e+00 7.439974e+01 1.251764e+00 6.788207e+01 1.239896e+00 6.101231e+01 1.142389e+00 5.419062e+01 6.782217e-01 4.710810e+01 7.656169e-01 3.994555e+01 7.121531e-01 3.299164e+01 5.566983e-01 2.573802e+01 7.357190e-01 1.854308e+01 6.828113e-01 1.154791e+01 8.746620e-01 4.292790e+00 1.002855e+00 -2.837584e+00 6.621032e-01 -1.012943e+01 8.404950e-01 -1.745458e+01 9.112845e-01 -2.447906e+01 8.004268e-01 -3.175715e+01 1.040159e+00 -3.893289e+01 1.080473e+00 -4.578145e+01 1.273940e+00 -5.288843e+01 1.512388e+00 -5.982984e+01 1.634277e+00 -6.661952e+01 1.734554e+00 -7.331483e+01 1.847049e+00 -7.993372e+01 1.976098e+00 -8.648023e+01 2.119359e+00 -9.295858e+01 
1.486286e+00 -1.014554e+02 1.540479e+00 -1.081195e+02 1.486045e+00 1.074040e+02 1.599600e+00 1.009865e+02 1.578664e+00 9.459077e+01 1.476978e+00 8.813656e+01 1.343593e+00 8.158054e+01 1.182347e+00 7.487342e+01 7.276664e-01 6.807764e+01 9.504052e-01 6.106444e+01 8.353743e-01 5.422056e+01 1.979816e-01 4.691634e+01 5.012808e-01 3.969744e+01 3.446198e-01 3.258693e+01 2.957597e-01 2.530867e+01 5.106180e-01 1.813398e+01 2.304471e-01 1.091995e+01 7.023026e-01 3.739420e+00 7.177404e-01 -3.302694e+00 5.516659e-02 -1.072285e+01 3.416352e-01 -1.798304e+01 1.709434e-01 -2.514058e+01 7.616553e-02 -3.238121e+01 2.504237e-01 -3.956271e+01 -7.209612e-03 -4.679127e+01 5.606051e-01 -5.383466e+01 8.420198e-01 -6.076145e+01 9.566434e-01 -6.762246e+01 1.049209e+00 -7.445496e+01 1.153677e+00 -8.125708e+01 1.268332e+00 -8.802306e+01 1.384597e+00 -9.475423e+01 
1.338328e+00 -1.019877e+02 1.204194e+00 -1.089241e+02 9.224641e-01 1.087862e+02 1.191687e+00 1.020842e+02 1.309949e+00 9.547658e+01 1.346860e+00 8.888250e+01 1.378861e+00 8.221343e+01 1.430136e+00 7.529382e+01 1.123022e+00 6.859048e+01 1.286691e+00 6.156262e+01 1.348710e+00 5.468148e+01 4.290168e-01 4.738952e+01 8.338860e-01 4.011065e+01 7.901953e-01 3.318641e+01 3.588431e-01 2.583097e+01 7.804189e-01 1.857833e+01 5.855938e-01 1.169873e+01 1.037359e+00 4.347088e+00 1.274404e+00 -2.731338e+00 4.075417e-01 -1.024493e+01 8.661304e-01 -1.769793e+01 8.926888e-01 -2.465110e+01 5.117762e-01 -3.207052e+01 9.515866e-01 -3.938883e+01 8.123358e-01 -4.621269e+01 1.126800e+00 -5.355169e+01 1.321256e+00 -6.051946e+01 1.320774e+00 -6.742318e+01 1.340964e+00 -7.433679e+01 1.371930e+00 -8.124928e+01 1.393434e+00 -8.815652e+01 1.389331e+00 -9.506553e+01 
5.562578e-01 -1.039429e+02 3.313666e-01 -1.111734e+02 -8.456634e-02 1.107118e+02 3.567016e-01 1.036816e+02 6.055043e-01 9.677721e+01 7.235347e-01 8.991240e+01 7.762691e-01 8.299155e+01 7.971200e-01 7.600916e+01 4.588934e-01 6.806466e+01 7.638134e-01 6.172947e+01 1.030287e+00 5.459880e+01 -3.134881e-01 4.690899e+01 3.673943e-01 4.031632e+01 1.395819e-01 3.218949e+01 -1.341801e-01 2.547085e+01 3.413108e-01 1.862028e+01 -4.537742e-01 1.040014e+01 9.530869e-01 3.957184e+00 1.032320e+00 -3.280768e+00 -6.131600e-01 -1.121335e+01 4.104966e-01 -1.779637e+01 -2.231644e-01 -2.599968e+01 -2.592843e-01 -3.271292e+01 1.691006e-01 -3.957468e+01 -1.227433e+00 -4.821830e+01 6.735107e-01 -5.456965e+01 7.763159e-01 -6.135980e+01 7.048078e-01 -6.833955e+01 7.038211e-01 -7.540774e+01 7.177933e-01 -8.250593e+01 7.132794e-01 -8.962104e+01 6.686272e-01 -9.676139e+01 
3.947599e-01 -1.044402e+02 -1.335172e-03 -1.119118e+02 -6.263172e-01 1.121123e+02 -3.659479e-02 1.048144e+02 3.277198e-01 9.769911e+01 5.313020e-01 9.072611e+01 6.608723e-01 8.392204e+01 9.151217e-01 7.745679e+01 1.812776e+00 6.757036e+01 8.138104e-01 6.289203e+01 1.361386e+00 5.559975e+01 7.548687e-01 4.649339e+01 8.651690e-02 4.173965e+01 1.174126e+00 3.198051e+01 -2.044747e-01 2.582185e+01 8.303851e-02 1.981165e+01 8.593135e-01 1.003579e+01 8.721129e-01 5.103012e+00 1.378935e+00 -2.295904e+00 5.135861e-01 -1.175935e+01 1.523972e-01 -1.654909e+01 9.208284e-01 -2.630302e+01 -8.902922e-02 -3.251048e+01 1.302354e-01 -3.851284e+01 4.838105e-01 -4.893720e+01 9.403317e-01 -5.412453e+01 9.328817e-01 -6.096512e+01 9.283278e-01 -6.812621e+01 9.262720e-01 -7.531883e+01 8.891141e-01 -8.252647e+01 8.020100e-01 -8.976711e+01 6.468849e-01 -9.706360e+01 
-3.608885e-01 -1.062455e+02 -8.479132e-01 -1.139755e+02 -1.592905e+00 1.139931e+02 -8.331916e-01 1.064136e+02 -3.258292e-01 9.906388e+01 -6.875501e-03 9.193226e+01 1.876836e-01 8.507781e+01 3.743733e-01 7.858827e+01 8.274554e-01 6.792382e+01 1.011678e+00 6.328521e+01 1.257288e+00 5.601921e+01 6.393650e-01 4.649177e+01 2.347831e-01 4.198543e+01 1.145618e+00 3.172398e+01 -1.056465e-01 2.579072e+01 1.283871e-01 1.991135e+01 9.164892e-01 9.612347e+00 8.829565e-01 5.165961e+00 1.403126e+00 -2.475005e+00 4.352592e-01 -1.210830e+01 -9.009106e-02 -1.645970e+01 1.038203e+00 -2.703868e+01 -4.103479e-01 -3.270687e+01 -1.869748e-01 -3.860272e+01 7.430545e-01 -4.984892e+01 3.521489e-01 -5.431831e+01 2.675451e-01 -6.147059e+01 3.328586e-01 -6.891050e+01 3.433666e-01 -7.630991e+01 2.861657e-01 -8.370404e+01 1.632519e-01 -9.113601e+01 -4.143229e-02 -9.863952e+01 
-5.153090e-01 -1.066791e+02 -1.150596e+00 -1.146201e+02 -2.063515e+00 1.153416e+02 -1.175055e+00 1.075170e+02 -5.449484e-01 9.994968e+01 -1.069578e-01 9.259442e+01 1.833860e-01 8.539905e+01 2.908602e-01 7.822572e+01 -6.785536e-01 6.911274e+01 1.227896e+00 6.276654e+01 1.171892e+00 5.565608e+01 -1.505794e-01 4.739280e+01 7.531342e-01 4.106013e+01 2.189606e-01 3.263288e+01 1.270613e-01 2.587110e+01 4.606033e-01 1.920193e+01 -2.026596e-01 1.061562e+01 1.124759e+00 4.310405e+00 1.237415e+00 -2.972416e+00 -1.339504e-01 -1.123764e+01 4.831280e-01 -1.755638e+01 3.274467e-01 -2.609181e+01 -7.971164e-02 -3.280597e+01 1.993763e-01 -3.957318e+01 -2.667396e-01 -4.842244e+01 5.367823e-01 -5.469437e+01 5.908584e-01 -6.170312e+01 5.882820e-01 -6.896261e+01 5.450143e-01 -7.632297e+01 4.309950e-01 -8.375748e+01 2.323267e-01 -9.127737e+01 -7.166830e-02 -9.890747e+01 
-1.223924e+00 -1.083220e+02 -1.943040e+00 -1.164888e+02 -2.962297e+00 1.170944e+02 -1.921286e+00 1.090118e+02 -1.150381e+00 1.011995e+02 -5.729203e-01 9.359221e+01 -1.117989e-01 8.607372e+01 2.689511e-01 7.836697e+01 1.889729e-01 7.100313e+01 7.647347e-01 6.333232e+01 1.113538e+00 5.602053e+01 2.088258e-01 4.835072e+01 8.176360e-01 4.081715e+01 7.139210e-01 3.353143e+01 3.267738e-01 2.609292e+01 8.135267e-01 1.873584e+01 4.000675e-01 1.151866e+01 1.045174e+00 4.198327e+00 1.234911e+00 -3.054182e+00 5.305828e-02 -1.076190e+01 6.781597e-01 -1.819380e+01 4.921050e-01 -2.557091e+01 2.268786e-02 -3.294643e+01 4.359990e-01 -4.039614e+01 -1.593837e-01 -4.789775e+01 3.460216e-01 -5.510513e+01 3.528848e-01 -6.238174e+01 1.980055e-01 -6.977246e+01 6.449269e-02 -7.727054e+01 -1.062675e-01 -8.485670e+01 -3.546353e-01 -9.254126e+01 -7.134668e-01 -1.003512e+02 
-1.355918e+00 -1.086688e+02 -2.204640e+00 -1.170158e+02 -3.372073e+00 1.183062e+02 -2.229635e+00 1.099942e+02 -1.373559e+00 1.019571e+02 -7.430474e-01 9.412197e+01 -2.904911e-01 8.639370e+01 -1.805447e-03 7.864168e+01 2.774555e-02 7.103386e+01 5.483918e-01 6.343490e+01 7.875940e-01 5.605264e+01 2.696701e-01 4.845346e+01 6.376769e-01 4.092380e+01 5.807814e-01 3.363280e+01 4.551812e-01 2.618413e+01 6.948669e-01 1.882600e+01 4.505411e-01 1.155596e+01 9.101101e-01 4.150214e+00 9.965795e-01 -3.056714e+00 3.298140e-01 -1.064693e+01 6.695821e-01 -1.814287e+01 5.303979e-01 -2.538908e+01 3.502739e-01 -3.287948e+01 5.287304e-01 -4.026780e+01 1.526725e-01 -4.756334e+01 5.331460e-01 -5.505383e+01 5.713648e-01 -6.238897e+01 4.350950e-01 -6.977790e+01 2.634142e-01 -7.727773e+01 3.479947e-02 -8.489640e+01 -2.862994e-01 -9.264827e+01 -7.354704e-01 -1.005601e+02 
-2.005014e+00 -1.101427e+02 -2.927932e+00 -1.186834e+02 -4.186262e+00 1.198737e+02 -2.909296e+00 1.113333e+02 -1.923639e+00 1.030742e+02 -1.166487e+00 9.502520e+01 -5.849893e-01 8.711282e+01 -1.594013e-01 7.931122e+01 4.895228e-02 7.180534e+01 3.617808e-01 6.403647e+01 6.524577e-01 5.646622e+01 3.636689e-01 4.883704e+01 6.148478e-01 4.120300e+01 6.642409e-01 3.386682e+01 5.202814e-01 2.632368e+01 7.243075e-01 1.887656e+01 5.997736e-01 1.162640e+01 8.170644e-01 4.174379e+00 8.908306e-01 -3.161343e+00 3.926524e-01 -1.071906e+01 5.623139e-01 -1.826119e+01 4.600974e-01 -2.556659e+01 2.405891e-01 -3.310886e+01 3.345190e-01 -4.058817e+01 1.888851e-02 -4.794247e+01 1.856824e-01 -5.547192e+01 2.094693e-01 -6.297623e+01 5.241792e-02 -7.051726e+01 -1.676067e-01 -7.815196e+01 -4.475940e-01 -8.590490e+01 -8.193645e-01 -9.379856e+01 -1.322528e+00 -1.018641e+02 
-2.104301e+00 -1.103819e+02 -3.141986e+00 -1.190722e+02 -4.538255e+00 1.209116e+02 -3.178230e+00 1.121788e+02 -2.129137e+00 1.037372e+02 -1.333606e+00 9.552584e+01 -7.438413e-01 8.748863e+01 -3.294925e-01 7.959302e+01 -8.477064e-02 7.185420e+01 2.350171e-01 6.413764e+01 4.668926e-01 5.653153e+01 3.592503e-01 4.890315e+01 5.244195e-01 4.132592e+01 5.783269e-01 3.389856e+01 5.438226e-01 2.640789e+01 6.599334e-01 1.897662e+01 6.124626e-01 1.162496e+01 7.666097e-01 4.213896e+00 8.127711e-01 -3.142283e+00 5.372334e-01 -1.064270e+01 6.069351e-01 -1.812719e+01 5.465005e-01 -2.548752e+01 4.285432e-01 -3.297308e+01 4.533358e-01 -4.041905e+01 2.749299e-01 -4.782038e+01 3.659368e-01 -5.535553e+01 3.832576e-01 -6.288395e+01 2.451923e-01 -7.044749e+01 1.107349e-02 -7.810458e+01 -3.107411e-01 -8.589242e+01 -7.438596e-01 -9.384240e+01 -1.325628e+00 -1.019905e+02 
-2.687778e+00 -1.116833e+02 -3.788742e+00 -1.205347e+02 -5.261768e+00 1.222682e+02 -3.784228e+00 1.133474e+02 -2.623286e+00 1.047279e+02 -1.722171e+00 9.635783e+01 -1.032578e+00 8.819739e+01 -5.245860e-01 8.023082e+01 -1.920142e-01 7.243427e+01 1.072109e-01 6.462787e+01 3.559865e-01 5.691063e+01 3.516752e-01 4.921247e+01 5.027915e-01 4.157565e+01 5.850567e-01 3.406489e+01 5.605593e-01 2.652004e+01 6.535015e-01 1.904160e+01 6.396802e-01 1.163813e+01 7.101750e-01 4.192571e+00 7.210320e-01 -3.236423e+00 5.033407e-01 -1.075889e+01 5.029004e-01 -1.826743e+01 4.303821e-01 -2.570642e+01 2.843741e-01 -3.323144e+01 2.482525e-01 -4.073484e+01 8.322391e-02 -4.822783e+01 7.070503e-02 -5.581505e+01 3.322787e-02 -6.344389e+01 -1.285685e-01 -7.112471e+01 -3.925510e-01 -7.889799e+01 -7.518604e-01 -8.680202e+01 -1.227027e+00 -9.487274e+01 -1.855538e+00 -1.031501e+02 
-2.745644e+00 -1.117979e+02 -3.946232e+00 -1.207686e+02 -5.542709e+00 1.231134e+02 -3.996385e+00 1.140422e+02 -2.784062e+00 1.052842e+02 -1.848138e+00 9.679260e+01 -1.139802e+00 8.852889e+01 -6.223113e-01 8.046324e+01 -2.658517e-01 7.255355e+01 4.563196e-02 6.472406e+01 2.845866e-01 5.698412e+01 3.439835e-01 4.928614e+01 4.749470e-01 4.165791e+01 5.585517e-01 3.412087e+01 5.720457e-01 2.659347e+01 6.475315e-01 1.911903e+01 6.634233e-01 1.169324e+01 7.254959e-01 4.259541e+00 7.433764e-01 -3.167724e+00 6.123737e-01 -1.065490e+01 6.005379e-01 -1.813782e+01 5.534800e-01 -2.558379e+01 4.518260e-01 -3.308047e+01 4.134180e-01 -4.057191e+01 3.034592e-01 -4.807326e+01 2.669329e-01 -5.565932e+01 2.160724e-01 -6.329579e+01 5.396153e-02 -7.099073e+01 -2.230283e-01 -7.878356e+01 -6.140296e-01 -8.671717e+01 -1.138150e+00 -9.483302e+01 -1.831804e+00 -1.031756e+02 
-3.259608e+00 -1.129255e+02 -4.510780e+00 -1.220249e+02 -6.169477e+00 1.242422e+02 -4.523673e+00 1.150244e+02 -3.218823e+00 1.061296e+02 -2.197811e+00 9.751616e+01 -1.412501e+00 8.915039e+01 -8.280571e-01 8.100319e+01 -4.161705e-01 7.302548e+01 -7.986856e-02 6.511652e+01 1.843048e-01 5.729663e+01 2.846059e-01 4.953374e+01 4.295121e-01 4.184505e+01 5.255255e-01 3.425001e+01 5.417878e-01 2.667174e+01 6.098340e-01 1.915062e+01 6.252707e-01 1.168295e+01 6.578883e-01 4.206891e+00 6.541329e-01 -3.269239e+00 5.230449e-01 -1.079188e+01 4.812510e-01 -1.831441e+01 4.112385e-01 -2.581148e+01 2.789914e-01 -3.335662e+01 2.036732e-01 -4.090607e+01 7.455167e-02 -4.847111e+01 -1.263905e-02 -5.611919e+01 -1.048898e-01 -6.383125e+01 -2.950277e-01 -7.161235e+01 -5.978215e-01 -7.949653e+01 -1.017183e+00 -8.752514e+01 -1.573289e+00 -9.574044e+01 -2.303385e+00 -1.041887e+02 
-3.266882e+00 -1.129024e+02 -4.600841e+00 -1.220912e+02 -6.363650e+00 1.248750e+02 -4.663637e+00 1.155470e+02 -3.318203e+00 1.065522e+02 -2.266721e+00 9.784815e+01 -1.458902e+00 8.939899e+01 -8.568513e-01 8.117831e+01 -4.290490e-01 7.315803e+01 -8.364686e-02 6.520482e+01 1.993314e-01 5.736188e+01 3.026997e-01 4.960263e+01 4.479963e-01 4.190280e+01 5.506660e-01 3.431512e+01 5.622503e-01 2.673798e+01 6.456144e-01 1.921812e+01 6.763606e-01 1.177576e+01 7.189425e-01 4.302852e+00 7.460766e-01 -3.162483e+00 6.354654e-01 -1.065828e+01 6.121097e-01 -1.817533e+01 5.692616e-01 -2.565145e+01 4.446518e-01 -3.318897e+01 3.962492e-01 -4.073387e+01 2.884742e-01 -4.826617e+01 1.888466e-01 -5.591571e+01 9.562033e-02 -6.363198e+01 -1.037012e-01 -7.141592e+01 -4.233956e-01 -7.930873e+01 -8.689562e-01 -8.735638e+01 -1.463015e+00 -9.560380e+01 -2.244510e+00 -1.040996e+02 
-3.707557e+00 -1.138570e+02 -5.077451e+00 -1.231424e+02 -6.886253e+00 1.257594e+02 -5.106608e+00 1.163248e+02 -3.688861e+00 1.072303e+02 -2.571755e+00 9.843520e+01 -1.705559e+00 8.990180e+01 -1.056429e+00 8.159991e+01 -5.981572e-01 7.352678e+01 -2.106897e-01 6.549944e+01 1.039238e-01 5.759690e+01 2.062820e-01 4.978082e+01 3.800377e-01 4.202134e+01 4.881849e-01 3.440361e+01 4.891787e-01 2.677670e+01 5.777261e-01 1.920944e+01 5.896310e-01 1.174060e+01 6.316492e-01 4.224170e+00 6.517423e-01 -3.276740e+00 5.044717e-01 -1.081613e+01 4.738667e-01 -1.838253e+01 4.074606e-01 -2.588513e+01 2.429354e-01 -3.347602e+01 1.754382e-01 -4.108116e+01 3.246966e-02 -4.865396e+01 -8.669306e-02 -5.636476e+01 -1.996950e-01 -6.413674e+01 -4.249485e-01 -7.197957e+01 -7.672328e-01 -7.993982e+01 -1.233560e+00 -8.806164e+01 -1.849480e+00 -9.638779e+01 -2.655819e+00 -1.049664e+02 
-3.654465e+00 -1.136875e+02 -5.088947e+00 -1.230320e+02 -6.980860e+00 1.261564e+02 -5.163357e+00 1.166517e+02 -3.718707e+00 1.074966e+02 -2.578841e+00 9.864587e+01 -1.688870e+00 9.005270e+01 -1.015132e+00 8.168839e+01 -5.468519e-01 7.365751e+01 -1.589646e-01 6.555896e+01 2.041893e-01 5.763490e+01 2.571765e-01 4.984852e+01 4.383769e-01 4.204142e+01 5.604803e-01 3.447937e+01 5.132317e-01 2.683574e+01 6.504412e-01 1.925373e+01 6.659330e-01 1.188072e+01 7.281587e-01 4.345946e+00 8.109394e-01 -3.138923e+00 6.300774e-01 -1.064248e+01 6.320453e-01 -1.824267e+01 6.007432e-01 -2.567918e+01 4.039276e-01 -3.328580e+01 3.981539e-01 -4.091099e+01 2.568438e-01 -4.838211e+01 1.222728e-01 -5.611606e+01 2.349265e-02 -6.388493e+01 -2.206257e-01 -7.171382e+01 -5.813356e-01 -7.967051e+01 -1.066693e+00 -8.780067e+01 -1.709004e+00 -9.614572e+01 -2.552688e+00 -1.047542e+02 
-4.017925e+00 -1.144720e+02 -5.471677e+00 -1.238809e+02 -7.390696e+00 1.267810e+02 -5.515412e+00 1.172083e+02 -4.020540e+00 1.079902e+02 -2.836085e+00 9.908283e+01 -1.905128e+00 9.043429e+01 -1.197001e+00 8.198057e+01 -7.288744e-01 7.390603e+01 -2.759441e-01 6.574231e+01 1.129060e-01 5.780094e+01 1.242388e-01 4.994073e+01 3.597675e-01 4.208090e+01 4.682433e-01 3.452754e+01 3.996819e-01 2.682872e+01 5.563763e-01 1.920917e+01 5.232665e-01 1.181073e+01 6.310069e-01 4.239251e+00 7.106915e-01 -3.250681e+00 4.579179e-01 -1.083550e+01 4.830963e-01 -1.848300e+01 4.148905e-01 -2.591241e+01 1.722197e-01 -3.358024e+01 1.649982e-01 -4.125955e+01 -3.936886e-02 -4.877386e+01 -1.416250e-01 -5.656369e+01 -2.509166e-01 -6.434840e+01 -5.200359e-01 -7.220928e+01 -8.955872e-01 -8.021555e+01 -1.391811e+00 -8.840300e+01 -2.045025e+00 -9.680782e+01 -2.901137e+00 -1.054770e+02 
-3.894499e+00 -1.141504e+02 -5.393198e+00 -1.235877e+02 -7.373167e+00 1.269176e+02 -5.479994e+00 1.173138e+02 -3.978392e+00 1.080767e+02 -2.788097e+00 9.916471e+01 -1.838859e+00 9.050958e+01 -1.089488e+00 8.196325e+01 -5.929966e-01 7.399650e+01 -1.746548e-01 6.574831e+01 2.860011e-01 5.781727e+01 2.418063e-01 4.998810e+01 4.322412e-01 4.204737e+01 5.731944e-01 3.461661e+01 4.163826e-01 2.686914e+01 6.469176e-01 1.922537e+01 6.154809e-01 1.198936e+01 7.525061e-01 4.392685e+00 9.294291e-01 -3.062391e+00 6.316853e-01 -1.064483e+01 6.471079e-01 -1.835017e+01 6.273322e-01 -2.565350e+01 3.226602e-01 -3.336436e+01 4.163893e-01 -4.108586e+01 2.070926e-01 -4.846178e+01 9.241848e-02 -5.629234e+01 -1.455723e-02 -6.402359e+01 -3.161416e-01 -7.185439e+01 -6.972707e-01 -7.985573e+01 -1.198300e+00 -8.804566e+01 -1.864871e+00 -9.645651e+01 -2.744233e+00 -1.051368e+02 
-4.177232e+00 -1.147687e+02 -5.676204e+00 -1.242389e+02 -7.659634e+00 1.272702e+02 -5.732840e+00 1.176348e+02 -4.204178e+00 1.083680e+02 -2.995124e+00 9.943250e+01 -2.039807e+00 9.077505e+01 -1.288352e+00 8.230307e+01 -8.225257e-01 7.381392e+01 -3.205130e-01 6.585359e+01 1.180503e-01 5.804228e+01 1.073192e-01 4.974608e+01 2.680187e-01 4.215958e+01 4.236976e-01 3.450553e+01 2.655651e-01 2.675446e+01 4.325157e-01 1.934901e+01 3.640086e-01 1.161944e+01 6.210536e-01 4.314365e+00 7.513971e-01 -3.062931e+00 4.548755e-01 -1.112773e+01 4.083173e-01 -1.845920e+01 3.772364e-01 -2.601254e+01 6.391027e-02 -3.372042e+01 6.721680e-02 -4.119336e+01 -2.269980e-01 -4.916732e+01 -1.760295e-01 -5.671624e+01 -3.079966e-01 -6.439629e+01 -6.048251e-01 -7.226543e+01 -9.807372e-01 -8.031388e+01 -1.481038e+00 -8.854849e+01 -2.147972e+00 -9.700083e+01 -3.027325e+00 -1.057196e+02 
-3.974478e+00 -1.142914e+02 -5.496056e+00 -1.237590e+02 -7.511173e+00 1.271278e+02 -5.593433e+00 1.174925e+02 -4.083786e+00 1.082318e+02 -2.902644e+00 9.932546e+01 -1.981405e+00 9.078147e+01 -1.204369e+00 8.269284e+01 -2.993037e-01 7.314638e+01 -1.760160e-01 6.597951e+01 4.266489e-02 5.846627e+01 8.601532e-01 4.914956e+01 1.309133e-02 4.257066e+01 5.359543e-01 3.437855e+01 5.000343e-01 2.658304e+01 2.272047e-01 1.989254e+01 7.852076e-01 1.120449e+01 6.899699e-01 4.736339e+00 7.470435e-01 -2.432991e+00 1.289285e+00 -1.153445e+01 2.005928e-01 -1.782034e+01 6.027007e-01 -2.595141e+01 4.275595e-01 -3.363989e+01 2.266672e-02 -4.035693e+01 4.627068e-01 -4.950164e+01 1.178180e-01 -5.627906e+01 -1.918074e-01 -6.387013e+01 -4.182761e-01 -7.180274e+01 -7.558934e-01 -7.987198e+01 -1.247342e+00 -8.810161e+01 -1.917998e+00 -9.654192e+01 -2.808051e+00 -1.052495e+02 
-4.174927e+00 -1.147479e+02 -5.675525e+00 -1.242176e+02 -7.665239e+00 1.272044e+02 -5.739420e+00 1.175726e+02 -4.219639e+00 1.083131e+02 -3.027445e+00 9.940484e+01 -2.094107e+00 9.085443e+01 -1.301231e+00 8.275972e+01 -3.654685e-01 7.320910e+01 -2.721338e-01 6.603673e+01 -4.050519e-02 5.850238e+01 7.809451e-01 4.917810e+01 -6.507268e-02 4.257599e+01 4.620683e-01 3.437464e+01 4.187215e-01 2.655684e+01 1.523836e-01 1.983279e+01 6.902268e-01 1.115491e+01 5.954495e-01 4.631886e+00 6.365391e-01 -2.567070e+00 1.136016e+00 -1.165935e+01 7.450316e-02 -1.800890e+01 4.310406e-01 -2.612840e+01 2.449962e-01 -3.385641e+01 -1.564667e-01 -4.063257e+01 2.125594e-01 -4.972896e+01 -9.559637e-02 -5.659805e+01 -4.062856e-01 -6.421475e+01 -6.477497e-01 -7.216775e+01 -9.922536e-01 -8.026076e+01 -1.482969e+00 -8.851376e+01 -2.146919e+00 -9.697420e+01 -3.025101e+00 -1.056970e+02 