# vtk DataFile Version 2.0
Comment goes here
ASCII

DATASET STRUCTURED_POINTS
FIELD FieldData 1
TIME 1 1 double
0.03800000
DIMENSIONS    64   64   1

ORIGIN    0.000   0.000   0.000
SPACING   0.03125 0.03125   1.000

POINT_DATA   4096
SCALARS P double
LOOKUP_TABLE default

-3.356391e+01 -1.908621e+02 -1.967201e+01 -2.028560e+02 3.136140e+01 1.218179e+02 -2.298427e+01 1.166268e+02 -2.772407e+01 1.079380e+02 -2.990202e+01 9.528191e+01 -2.905611e+01 7.965855e+01 -2.392809e+01 6.137974e+01 -1.905267e+01 4.677247e+01 -2.156796e+01 4.228821e+01 -3.117647e+01 3.857862e+01 -3.532681e+01 2.788012e+01 -3.127593e+01 8.069984e+00 -2.031334e+01 -1.327959e+01 -1.173662e+01 -3.015563e+01 -7.976568e+00 -4.428123e+01 -8.443432e+00 -5.244489e+01 -1.631760e+01 -5.276244e+01 -3.056606e+01 -5.040671e+01 -4.501017e+01 -5.027442e+01 -5.642835e+01 -5.188932e+01 -6.712963e+01 -5.416600e+01 -7.501517e+01 -5.963341e+01 -7.967137e+01 -6.719431e+01 -8.156826e+01 -7.910755e+01 -7.519043e+01 -9.847565e+01 -6.491159e+01 -1.180960e+02 -5.688273e+01 -1.324165e+02 -5.360460e+01 -1.436583e+02 -5.114249e+01 -1.526477e+02 -5.031676e+01 -1.606420e+02 -4.457290e+01 -1.708449e+02 
-9.904460e+00 -1.269317e+02 -2.074474e+00 -1.345555e+02 3.510460e+01 1.073743e+02 -4.353184e+00 1.031205e+02 -6.992301e+00 9.690708e+01 -8.327127e+00 8.857356e+01 -8.166096e+00 7.867690e+01 -5.730322e+00 6.711471e+01 -3.218519e+00 5.713779e+01 -4.516153e+00 5.255865e+01 -9.737200e+00 4.829046e+01 -1.197928e+01 4.036934e+01 -1.022655e+01 2.778516e+01 -5.062878e+00 1.459216e+01 -1.374084e+00 3.830745e+00 -9.955136e-02 -5.995679e+00 -2.999919e-01 -1.333484e+01 -3.785714e+00 -1.690608e+01 -1.018643e+01 -1.946792e+01 -1.635562e+01 -2.341916e+01 -2.074205e+01 -2.821725e+01 -2.505080e+01 -3.303346e+01 -2.816061e+01 -3.921755e+01 -2.994908e+01 -4.604174e+01 -3.097937e+01 -5.456058e+01 -2.792782e+01 -6.688099e+01 -2.304485e+01 -7.913039e+01 -1.945224e+01 -8.843707e+01 -1.836837e+01 -9.626083e+01 -1.741550e+01 -1.028056e+02 -1.756574e+01 -1.085253e+02 -1.503540e+01 -1.149374e+02 
3.391707e+00 -8.778306e+01 5.356061e+00 -9.143639e+01 1.766620e+01 9.554934e+01 5.154555e+00 9.218228e+01 4.672538e+00 8.775025e+01 4.319991e+00 8.250416e+01 4.137189e+00 7.666843e+01 4.339756e+00 7.021325e+01 4.632656e+00 6.367431e+01 4.306909e+00 5.787832e+01 3.181046e+00 5.196409e+01 2.545232e+00 4.545938e+01 2.326208e+00 3.832019e+01 2.522930e+00 3.121823e+01 2.445539e+00 2.454730e+01 2.086683e+00 1.779163e+01 1.885386e+00 1.105191e+01 1.514879e+00 4.675261e+00 8.787425e-01 -1.739522e+00 4.059724e-01 -8.499405e+00 2.839553e-01 -1.539818e+01 4.133960e-02 -2.214309e+01 -1.444145e-01 -2.893892e+01 -2.534411e-01 -3.555243e+01 -5.030196e-01 -4.206366e+01 -1.027097e-01 -4.908617e+01 6.272541e-01 -5.597357e+01 1.209980e+00 -6.219837e+01 1.448279e+00 -6.812056e+01 1.865879e+00 -7.357747e+01 1.982064e+00 -7.846043e+01 2.540961e+00 -8.278095e+01 
3.362620e+00 -9.014562e+01 5.373435e+00 -9.402880e+01 6.710799e+00 9.745306e+01 5.476057e+00 9.384476e+01 4.558697e+00 8.915443e+01 3.984018e+00 8.363987e+01 3.747748e+00 7.750384e+01 3.806321e+00 7.093606e+01 3.850427e+00 6.439308e+01 3.456284e+00 5.828069e+01 2.658183e+00 5.211976e+01 2.173408e+00 4.543269e+01 2.166999e+00 3.818546e+01 2.496617e+00 3.082746e+01 2.666306e+00 2.371467e+01 2.526467e+00 1.675519e+01 2.198706e+00 1.001814e+01 1.573908e+00 3.626752e+00 7.015656e-01 -2.695911e+00 -7.870211e-02 -9.195593e+00 -5.863509e-01 -1.582739e+01 -9.857213e-01 -2.246269e+01 -1.252133e+00 -2.917019e+01 -1.380182e+00 -3.591552e+01 -1.406454e+00 -4.278229e+01 -1.008965e+00 -4.995470e+01 -3.403600e-01 -5.700211e+01 2.517383e-01 -6.352525e+01 6.232808e-01 -6.958969e+01 1.005942e+00 -7.517762e+01 1.381843e+00 -8.033743e+01 2.172310e+00 -8.521562e+01 
3.654876e+00 -8.834649e+01 5.021772e+00 -9.202572e+01 6.270723e+00 9.603012e+01 5.316149e+00 9.242695e+01 4.706304e+00 8.789144e+01 4.313657e+00 8.265745e+01 4.094824e+00 7.689802e+01 4.032430e+00 7.073420e+01 3.966549e+00 6.442986e+01 3.668054e+00 5.824170e+01 3.123087e+00 5.195498e+01 2.687931e+00 4.537973e+01 2.444116e+00 3.852687e+01 2.352122e+00 3.162337e+01 2.201635e+00 2.482105e+01 1.956701e+00 1.803927e+01 1.702250e+00 1.129951e+01 1.376822e+00 4.667055e+00 9.741528e-01 -1.979276e+00 6.281487e-01 -8.743303e+00 4.101448e-01 -1.556770e+01 2.168514e-01 -2.236434e+01 6.984192e-02 -2.914714e+01 -1.242778e-02 -3.586552e+01 -3.173402e-02 -4.255787e+01 2.055440e-01 -4.933025e+01 6.209885e-01 -5.597022e+01 1.038024e+00 -6.227378e+01 1.382933e+00 -6.825575e+01 1.770116e+00 -7.385746e+01 2.169449e+00 -7.903989e+01 2.793473e+00 -8.383218e+01 
3.322210e+00 -9.119191e+01 4.625654e+00 -9.529365e+01 5.635756e+00 9.804890e+01 5.046846e+00 9.414332e+01 4.408709e+00 8.934609e+01 3.930584e+00 8.385853e+01 3.644822e+00 7.785787e+01 3.494889e+00 7.151855e+01 3.337102e+00 6.506781e+01 3.035972e+00 5.866004e+01 2.619706e+00 5.216220e+01 2.310973e+00 4.540163e+01 2.208206e+00 3.837793e+01 2.239092e+00 3.125921e+01 2.218808e+00 2.420494e+01 2.052693e+00 1.725527e+01 1.737350e+00 1.044542e+01 1.263570e+00 3.792266e+00 6.779684e-01 -2.806312e+00 1.158575e-01 -9.454067e+00 -3.226335e-01 -1.615745e+01 -6.545986e-01 -2.289154e+01 -8.743229e-01 -2.967043e+01 -9.703435e-01 -3.649272e+01 -9.310167e-01 -4.337901e+01 -6.761904e-01 -5.032341e+01 -2.631597e-01 -5.714732e+01 1.765546e-01 -6.367345e+01 5.834354e-01 -6.985851e+01 1.021683e+00 -7.568617e+01 1.549260e+00 -8.117255e+01 2.307693e+00 -8.634988e+01 
3.534474e+00 -9.009321e+01 4.522687e+00 -9.434308e+01 5.462414e+00 9.741181e+01 4.969020e+00 9.334054e+01 4.498523e+00 8.857778e+01 4.151085e+00 8.324425e+01 3.918164e+00 7.746693e+01 3.756377e+00 7.136066e+01 3.581866e+00 6.506468e+01 3.324443e+00 5.869522e+01 2.980607e+00 5.221614e+01 2.655724e+00 4.556432e+01 2.419272e+00 3.876829e+01 2.244420e+00 3.191617e+01 2.059565e+00 2.507104e+01 1.844757e+00 1.824433e+01 1.602169e+00 1.144340e+01 1.329597e+00 4.676527e+00 1.029874e+00 -2.096864e+00 7.469679e-01 -8.920193e+00 5.332211e-01 -1.576767e+01 3.613025e-01 -2.260722e+01 2.336782e-01 -2.943526e+01 1.736492e-01 -3.622702e+01 1.928518e-01 -4.298745e+01 3.536889e-01 -4.971527e+01 6.335040e-01 -5.631324e+01 9.616383e-01 -6.268439e+01 1.305326e+00 -6.879380e+01 1.694907e+00 -7.460801e+01 2.154896e+00 -8.010488e+01 2.759266e+00 -8.527811e+01 
3.008805e+00 -9.310041e+01 3.957327e+00 -9.780127e+01 4.820798e+00 9.965799e+01 4.463915e+00 9.519109e+01 4.045908e+00 9.012088e+01 3.691277e+00 8.452058e+01 3.429611e+00 7.850409e+01 3.226641e+00 7.219025e+01 3.018296e+00 6.569839e+01 2.778267e+00 5.912609e+01 2.502155e+00 5.245299e+01 2.259110e+00 4.561524e+01 2.118485e+00 3.864246e+01 2.029599e+00 3.160636e+01 1.917598e+00 2.457847e+01 1.733492e+00 1.761039e+01 1.448403e+00 1.071966e+01 1.083576e+00 3.912005e+00 6.539782e-01 -2.855867e+00 2.170038e-01 -9.644082e+00 -1.401330e-01 -1.645278e+01 -4.193827e-01 -2.328267e+01 -6.108732e-01 -3.014550e+01 -6.947896e-01 -3.703262e+01 -6.678469e-01 -4.394094e+01 -4.909582e-01 -5.082981e+01 -1.955029e-01 -5.760500e+01 1.577558e-01 -6.417758e+01 5.416313e-01 -7.050553e+01 9.786586e-01 -7.657160e+01 1.507772e+00 -8.237285e+01 2.181605e+00 -8.790111e+01 
3.186837e+00 -9.243801e+01 3.931361e+00 -9.738668e+01 4.673854e+00 9.964784e+01 4.410529e+00 9.492987e+01 4.118472e+00 8.978619e+01 3.875434e+00 8.423194e+01 3.687654e+00 7.833033e+01 3.519217e+00 7.215191e+01 3.319674e+00 6.576211e+01 3.101845e+00 5.924813e+01 2.841026e+00 5.263467e+01 2.557025e+00 4.588386e+01 2.344792e+00 3.905646e+01 2.154376e+00 3.219380e+01 1.957962e+00 2.530080e+01 1.768176e+00 1.842273e+01 1.544801e+00 1.155558e+01 1.321359e+00 4.695269e+00 1.080046e+00 -2.164285e+00 8.187095e-01 -9.068627e+00 6.314045e-01 -1.597595e+01 4.748193e-01 -2.286896e+01 3.461135e-01 -2.977000e+01 2.923497e-01 -3.663582e+01 2.925376e-01 -4.346356e+01 4.019016e-01 -5.023903e+01 6.147766e-01 -5.688969e+01 8.871842e-01 -6.336392e+01 1.201750e+00 -6.963903e+01 1.568730e+00 -7.569911e+01 2.006278e+00 -8.153166e+01 2.542200e+00 -8.712339e+01 
2.546279e+00 -9.546439e+01 3.246016e+00 -1.008403e+02 3.907743e+00 1.020469e+02 3.765081e+00 9.690973e+01 3.554331e+00 9.142486e+01 3.348388e+00 8.558258e+01 3.168529e+00 7.942909e+01 2.990217e+00 7.302237e+01 2.775426e+00 6.640475e+01 2.589998e+00 5.968683e+01 2.370602e+00 5.289303e+01 2.126569e+00 4.595481e+01 1.983392e+00 3.895800e+01 1.845463e+00 3.193155e+01 1.694098e+00 2.488561e+01 1.518527e+00 1.788326e+01 1.254554e+00 1.091344e+01 9.816517e-01 3.996809e+00 6.494976e-01 -2.883516e+00 2.651504e-01 -9.805378e+00 -1.782336e-02 -1.672440e+01 -2.595824e-01 -2.364831e+01 -4.427057e-01 -3.060830e+01 -5.252705e-01 -3.757134e+01 -5.423716e-01 -4.454088e+01 -4.111744e-01 -5.146343e+01 -1.731704e-01 -5.827361e+01 1.238408e-01 -6.493118e+01 4.662808e-01 -7.141861e+01 8.640540e-01 -7.772743e+01 1.335519e+00 -8.385134e+01 1.897845e+00 -8.977636e+01 
2.699625e+00 -9.506775e+01 3.235545e+00 -1.007133e+02 3.756090e+00 1.024832e+02 3.715364e+00 9.707159e+01 3.620829e+00 9.145072e+01 3.526084e+00 8.558006e+01 3.440602e+00 7.946735e+01 3.326961e+00 7.313472e+01 3.117904e+00 6.657479e+01 2.947637e+00 5.989313e+01 2.731839e+00 5.316967e+01 2.418774e+00 4.627962e+01 2.257194e+00 3.937818e+01 2.074220e+00 3.249084e+01 1.865230e+00 2.551918e+01 1.724708e+00 1.858908e+01 1.505173e+00 1.166196e+01 1.339819e+00 4.717047e+00 1.147507e+00 -2.195781e+00 8.476470e-01 -9.207091e+00 7.101342e-01 -1.619493e+01 5.663582e-01 -2.313449e+01 4.049461e-01 -3.014392e+01 3.636354e-01 -3.709672e+01 3.067030e-01 -4.401044e+01 3.681849e-01 -5.089608e+01 5.460652e-01 -5.764248e+01 7.783844e-01 -6.423856e+01 1.055761e+00 -7.069439e+01 1.381289e+00 -7.701228e+01 1.760948e+00 -8.318825e+01 2.201360e+00 -8.921351e+01 
1.990943e+00 -9.803068e+01 2.471372e+00 -1.040684e+02 2.904222e+00 1.049532e+02 2.982882e+00 9.913390e+01 2.982730e+00 9.316307e+01 2.951050e+00 8.699193e+01 2.902026e+00 8.061721e+01 2.800703e+00 7.404396e+01 2.562234e+00 6.720958e+01 2.453694e+00 6.032212e+01 2.260176e+00 5.344806e+01 1.930551e+00 4.635801e+01 1.842225e+00 3.930279e+01 1.677866e+00 3.225826e+01 1.506400e+00 2.515224e+01 1.381364e+00 1.811827e+01 1.097861e+00 1.105621e+01 9.448921e-01 4.051542e+00 6.873746e-01 -2.885067e+00 2.523226e-01 -9.957733e+00 7.070575e-02 -1.698360e+01 -1.530293e-01 -2.399319e+01 -3.564809e-01 -3.107235e+01 -4.248614e-01 -3.812174e+01 -5.391890e-01 -4.521099e+01 -4.220780e-01 -5.222145e+01 -2.062759e-01 -5.909346e+01 4.895225e-02 -6.584562e+01 3.444408e-01 -7.249619e+01 6.854363e-01 -7.904791e+01 1.075799e+00 -8.549588e+01 1.515256e+00 -9.182985e+01 
2.124525e+00 -9.778496e+01 2.458345e+00 -1.040858e+02 2.740793e+00 1.056829e+02 2.927995e+00 9.959521e+01 3.041677e+00 9.346611e+01 3.127804e+00 8.723141e+01 3.203266e+00 8.085684e+01 3.218177e+00 7.431511e+01 2.960922e+00 6.749118e+01 2.846519e+00 6.059186e+01 2.682699e+00 5.382013e+01 2.202643e+00 4.670438e+01 2.177616e+00 3.970883e+01 2.014546e+00 3.282945e+01 1.737463e+00 2.571886e+01 1.724719e+00 1.875846e+01 1.458755e+00 1.177095e+01 1.387852e+00 4.727093e+00 1.274184e+00 -2.166034e+00 7.924964e-01 -9.352827e+00 7.876714e-01 -1.643419e+01 6.625545e-01 -2.337518e+01 3.866955e-01 -3.055923e+01 4.266405e-01 -3.759961e+01 2.514824e-01 -4.463844e+01 2.473102e-01 -5.170116e+01 4.139810e-01 -5.853035e+01 6.174324e-01 -6.523250e+01 8.611415e-01 -7.186524e+01 1.139635e+00 -7.843976e+01 1.447427e+00 -8.495414e+01 1.779491e+00 -9.140450e+01 
1.380234e+00 -1.006330e+02 1.649214e+00 -1.072892e+02 1.835897e+00 1.081539e+02 2.143318e+00 1.016864e+02 2.356214e+00 9.521894e+01 2.519399e+00 8.868593e+01 2.655694e+00 8.205008e+01 2.716663e+00 7.527081e+01 2.375323e+00 6.804419e+01 2.364780e+00 6.098397e+01 2.223399e+00 5.411768e+01 1.594468e+00 4.676158e+01 1.724654e+00 3.968170e+01 1.533969e+00 3.256859e+01 1.292993e+00 2.538273e+01 1.328280e+00 1.838269e+01 9.064393e-01 1.111706e+01 9.942919e-01 4.075938e+00 8.280695e-01 -2.827369e+00 9.433162e-02 -1.013250e+01 1.696217e-01 -1.720824e+01 -7.269756e-02 -2.434239e+01 -3.671740e-01 -3.154365e+01 -3.315306e-01 -3.863370e+01 -6.959211e-01 -4.603610e+01 -5.140178e-01 -5.313086e+01 -2.981566e-01 -6.001029e+01 -7.844839e-02 -6.683245e+01 1.745364e-01 -7.364203e+01 4.566943e-01 -8.043511e+01 7.596001e-01 -8.720195e+01 1.073381e+00 -9.393601e+01 
1.501433e+00 -1.004582e+02 1.633714e+00 -1.073591e+02 1.664998e+00 1.090455e+02 2.080561e+00 1.023285e+02 2.396729e+00 9.570704e+01 2.672488e+00 8.912022e+01 2.965617e+00 8.250902e+01 3.271049e+00 7.572622e+01 2.953111e+00 6.830645e+01 2.684639e+00 6.131129e+01 2.785461e+00 5.462113e+01 1.769179e+00 4.703212e+01 2.084493e+00 4.010498e+01 2.074406e+00 3.313907e+01 1.417981e+00 2.587096e+01 1.777168e+00 1.903733e+01 1.423016e+00 1.174668e+01 1.431923e+00 4.733199e+00 1.560479e+00 -1.999485e+00 5.277488e-01 -9.611128e+00 8.665282e-01 -1.661310e+01 8.588246e-01 -2.363831e+01 1.636959e-01 -3.102723e+01 5.322470e-01 -3.799035e+01 1.954015e-01 -4.553206e+01 -1.974683e-02 -5.271786e+01 1.794303e-01 -5.948385e+01 3.888964e-01 -6.625118e+01 6.230910e-01 -7.305921e+01 8.610168e-01 -7.988918e+01 1.093357e+00 -8.673116e+01 1.311964e+00 -9.358538e+01 
7.468134e-01 -1.031588e+02 8.086767e-01 -1.103780e+02 7.393078e-01 1.114558e+02 1.273910e+00 1.043973e+02 1.684416e+00 9.746737e+01 2.030606e+00 9.060461e+01 2.379251e+00 8.374586e+01 2.751234e+00 7.681886e+01 2.366787e+00 6.828642e+01 1.937863e+00 6.178228e+01 2.457522e+00 5.475950e+01 8.504670e-01 4.690700e+01 1.484362e+00 4.041497e+01 1.470749e+00 3.240612e+01 7.023139e-01 2.560479e+01 1.314343e+00 1.895821e+01 5.191662e-01 1.054372e+01 1.040160e+00 4.236118e+00 1.234838e+00 -2.794128e+00 -5.203667e-01 -1.059737e+01 2.613621e-01 -1.702998e+01 -6.824528e-02 -2.513804e+01 -7.113669e-01 -3.199728e+01 -1.698969e-01 -3.871774e+01 -1.291980e+00 -4.771089e+01 -7.113291e-01 -5.420932e+01 -4.864448e-01 -6.089771e+01 -2.746753e-01 -6.777844e+01 -3.553928e-02 -7.476626e+01 1.984293e-01 -8.180806e+01 4.153316e-01 -8.888589e+01 6.046234e-01 -9.599970e+01 
8.660736e-01 -1.029976e+02 8.013379e-01 -1.104371e+02 5.818397e-01 1.123953e+02 1.213624e+00 1.051034e+02 1.701863e+00 9.801761e+01 2.112092e+00 9.112280e+01 2.550127e+00 8.450095e+01 3.285019e+00 7.842100e+01 4.155657e+00 6.741953e+01 1.434863e+00 6.253965e+01 3.242360e+00 5.587565e+01 1.371152e+00 4.625407e+01 1.220132e+00 4.166034e+01 2.999000e+00 3.235449e+01 2.287631e-01 2.588540e+01 1.419252e+00 2.045756e+01 2.172696e+00 1.000584e+01 6.771498e-01 5.304362e+00 2.163180e+00 -1.475260e+00 1.843628e-01 -1.101856e+01 2.279602e-01 -1.558648e+01 1.785740e+00 -2.501958e+01 -9.361437e-01 -3.162638e+01 2.604101e-01 -3.698339e+01 8.193167e-01 -4.853641e+01 -1.081935e+00 -5.373862e+01 -2.955589e-01 -6.026487e+01 1.058286e-01 -6.717904e+01 3.747442e-01 -7.420384e+01 5.757440e-01 -8.129410e+01 7.284425e-01 -8.844773e+01 8.308918e-01 -9.567590e+01 
1.221447e-01 -1.055304e+02 -1.298676e-02 -1.132517e+02 -3.261177e-01 1.146830e+02 4.211526e-01 1.070921e+02 1.002801e+00 9.974561e+01 1.481692e+00 9.265097e+01 1.948357e+00 8.592309e+01 2.633359e+00 7.978483e+01 3.341516e+00 6.797889e+01 1.364689e+00 6.323523e+01 2.960372e+00 5.646104e+01 1.110087e+00 4.640099e+01 1.062478e+00 4.202971e+01 2.836516e+00 3.217497e+01 9.552839e-04 2.583853e+01 1.235954e+00 2.053297e+01 2.032302e+00 9.465553e+00 3.578638e-01 5.138952e+00 2.034828e+00 -1.844396e+00 -2.011155e-01 -1.165540e+01 -1.793162e-01 -1.588132e+01 1.794577e+00 -2.598533e+01 -1.549002e+00 -3.231202e+01 -1.029449e-01 -3.749290e+01 8.212465e-01 -4.992049e+01 -1.977456e+00 -5.468662e+01 -1.014411e+00 -6.143578e+01 -5.292243e-01 -6.858494e+01 -2.439045e-01 -7.581984e+01 -5.427829e-02 -8.311809e+01 7.333277e-02 -9.049002e+01 1.386985e-01 -9.795290e+01 
2.507058e-01 -1.053394e+02 2.645807e-03 -1.132544e+02 -4.369802e-01 1.155833e+02 3.881214e-01 1.077693e+02 1.038116e+00 1.002278e+02 1.569076e+00 9.292170e+01 2.029130e+00 8.581479e+01 2.410700e+00 7.875221e+01 1.812960e+00 6.923886e+01 2.341961e+00 6.283909e+01 2.598411e+00 5.581286e+01 1.115090e+00 4.745566e+01 1.759632e+00 4.125248e+01 1.708546e+00 3.293832e+01 9.216477e-01 2.612258e+01 1.544983e+00 1.969714e+01 1.011524e+00 1.082609e+01 1.287271e+00 4.740899e+00 1.737341e+00 -2.267195e+00 2.897533e-02 -1.045241e+01 6.183561e-01 -1.657715e+01 8.527390e-01 -2.498936e+01 -3.993856e-01 -3.188779e+01 3.286702e-01 -3.838895e+01 -1.097991e-01 -4.790435e+01 -7.136132e-01 -5.421649e+01 -2.883869e-01 -6.101834e+01 -3.357215e-03 -6.808859e+01 1.956192e-01 -7.530077e+01 3.220838e-01 -8.262240e+01 3.811690e-01 -9.005562e+01 3.646608e-01 -9.761845e+01 
-4.659378e-01 -1.076914e+02 -7.791059e-01 -1.158532e+02 -1.299712e+00 1.176852e+02 -3.704065e-01 1.095980e+02 3.736306e-01 1.017905e+02 9.932693e-01 9.420620e+01 1.550580e+00 8.675434e+01 2.060498e+00 7.919911e+01 1.860857e+00 7.105200e+01 1.950855e+00 6.350240e+01 2.214162e+00 5.632546e+01 1.181576e+00 4.832065e+01 1.689807e+00 4.109484e+01 1.635403e+00 3.368243e+01 1.034079e+00 2.625270e+01 1.497451e+00 1.921230e+01 9.903724e-01 1.150356e+01 1.186232e+00 4.420369e+00 1.336880e+00 -2.582763e+00 6.905346e-02 -1.041939e+01 5.938821e-01 -1.752215e+01 4.787544e-01 -2.500762e+01 -2.859492e-01 -3.247017e+01 1.483237e-01 -3.965624e+01 -5.260992e-01 -4.784012e+01 -6.882264e-01 -5.508699e+01 -5.825681e-01 -6.220061e+01 -4.616915e-01 -6.945381e+01 -3.400426e-01 -7.684222e+01 -2.597412e-01 -8.434750e+01 -2.401268e-01 -9.197501e+01 -2.997227e-01 -9.974565e+01 
-3.195204e-01 -1.074358e+02 -7.335838e-01 -1.157634e+02 -1.368323e+00 1.184767e+02 -3.818030e-01 1.101837e+02 4.024849e-01 1.021799e+02 1.028585e+00 9.439362e+01 1.524158e+00 8.672876e+01 1.864584e+00 7.903688e+01 1.800350e+00 7.117449e+01 2.000553e+00 6.355366e+01 2.102305e+00 5.622255e+01 1.522801e+00 4.854819e+01 1.743333e+00 4.117140e+01 1.659044e+00 3.386554e+01 1.390956e+00 2.646812e+01 1.541533e+00 1.930035e+01 1.215196e+00 1.187759e+01 1.362588e+00 4.630011e+00 1.343751e+00 -2.417884e+00 6.375535e-01 -9.978527e+00 8.296714e-01 -1.724379e+01 6.787338e-01 -2.453876e+01 3.107313e-01 -3.202210e+01 4.066903e-01 -3.928185e+01 -3.959921e-02 -4.697486e+01 -6.054245e-02 -5.441408e+01 -2.937895e-03 -6.162845e+01 5.212332e-02 -6.890544e+01 1.039660e-01 -7.630258e+01 1.188514e-01 -8.383275e+01 7.066926e-02 -9.151233e+01 -6.522492e-02 -9.936772e+01 
-9.988341e-01 -1.095995e+02 -1.470792e+00 -1.181390e+02 -2.174246e+00 1.203561e+02 -1.095724e+00 1.118233e+02 -2.258911e-01 1.035826e+02 4.788161e-01 9.556273e+01 1.045734e+00 8.768202e+01 1.447982e+00 7.986178e+01 1.509653e+00 7.205565e+01 1.643503e+00 6.425106e+01 1.745541e+00 5.670570e+01 1.378809e+00 4.897300e+01 1.514493e+00 4.142339e+01 1.453845e+00 3.406097e+01 1.238744e+00 2.654345e+01 1.315024e+00 1.920077e+01 1.061206e+00 1.181982e+01 1.088953e+00 4.444372e+00 1.012962e+00 -2.783585e+00 4.847000e-01 -1.033418e+01 5.386990e-01 -1.774826e+01 3.569462e-01 -2.508971e+01 5.052091e-02 -3.265120e+01 3.350811e-02 -4.010096e+01 -3.602697e-01 -4.772268e+01 -4.067117e-01 -5.529076e+01 -3.942511e-01 -6.272609e+01 -3.931036e-01 -7.018917e+01 -3.948344e-01 -7.775386e+01 -4.258304e-01 -8.544964e+01 -5.159776e-01 -9.330055e+01 -6.953179e-01 -1.013371e+02 
-8.285001e-01 -1.092506e+02 -1.390078e+00 -1.179274e+02 -2.198193e+00 1.210046e+02 -1.075938e+00 1.123002e+02 -1.795396e-01 1.039015e+02 5.270818e-01 9.574072e+01 1.064598e+00 8.774789e+01 1.423786e+00 7.986145e+01 1.555912e+00 7.203674e+01 1.709757e+00 6.428450e+01 1.783772e+00 5.669714e+01 1.591211e+00 4.906649e+01 1.632866e+00 4.155253e+01 1.579896e+00 3.416297e+01 1.457391e+00 2.672661e+01 1.453136e+00 1.938942e+01 1.290573e+00 1.204331e+01 1.280453e+00 4.709309e+00 1.190074e+00 -2.543829e+00 8.627846e-01 -9.975843e+00 8.179993e-01 -1.735274e+01 6.666885e-01 -2.469173e+01 4.625946e-01 -3.216424e+01 3.799779e-01 -3.958845e+01 1.244182e-01 -4.711328e+01 8.120560e-02 -5.464582e+01 8.409858e-02 -6.210365e+01 6.612306e-02 -6.958689e+01 2.651998e-02 -7.716727e+01 -5.361213e-02 -8.488736e+01 -2.013085e-01 -9.278164e+01 -4.474208e-01 -1.008875e+02 
-1.465154e+00 -1.112214e+02 -2.076289e+00 -1.200757e+02 -2.942438e+00 1.226461e+02 -1.739870e+00 1.137429e+02 -7.694957e-01 1.051510e+02 3.694808e-03 9.680923e+01 6.001387e-01 8.866006e+01 1.013032e+00 8.065547e+01 1.215281e+00 7.273851e+01 1.375390e+00 6.487316e+01 1.462989e+00 5.714004e+01 1.358058e+00 4.940947e+01 1.386879e+00 4.179051e+01 1.347837e+00 3.428931e+01 1.241576e+00 2.676531e+01 1.210198e+00 1.932479e+01 1.072425e+00 1.190650e+01 1.009873e+00 4.491052e+00 8.927920e-01 -2.883113e+00 6.169469e-01 -1.037170e+01 5.169274e-01 -1.783108e+01 3.525608e-01 -2.526842e+01 1.441356e-01 -3.281019e+01 1.590079e-02 -4.034088e+01 -2.149394e-01 -4.793586e+01 -3.012550e-01 -5.556067e+01 -3.360302e-01 -6.316360e+01 -3.847591e-01 -7.079808e+01 -4.580266e-01 -7.852501e+01 -5.731547e-01 -8.639038e+01 -7.567019e-01 -9.443312e+01 -1.041114e+00 -1.026940e+02 
-1.265260e+00 -1.107558e+02 -1.953586e+00 -1.197186e+02 -2.911572e+00 1.231286e+02 -1.674379e+00 1.140928e+02 -6.823202e-01 1.053847e+02 9.884159e-02 9.694661e+01 6.912001e-01 8.872442e+01 1.100780e+00 8.066986e+01 1.333281e+00 7.273007e+01 1.503609e+00 6.488073e+01 1.594633e+00 5.715197e+01 1.547936e+00 4.946957e+01 1.558685e+00 4.188695e+01 1.526708e+00 3.440148e+01 1.450151e+00 2.692841e+01 1.410445e+00 1.952007e+01 1.310694e+00 1.213787e+01 1.248198e+00 4.764374e+00 1.147088e+00 -2.585751e+00 9.453366e-01 -1.000656e+01 8.374780e-01 -1.741870e+01 6.981619e-01 -2.482520e+01 5.287002e-01 -3.230702e+01 4.049426e-01 -3.979724e+01 2.304113e-01 -4.733967e+01 1.430559e-01 -5.492695e+01 9.919336e-02 -6.251824e+01 3.827591e-02 -7.015120e+01 -5.825445e-02 -7.788263e+01 -2.080119e-01 -8.576290e+01 -4.363896e-01 -9.383681e+01 -7.756824e-01 -1.021502e+02 
-1.855761e+00 -1.125321e+02 -2.583971e+00 -1.216383e+02 -3.589108e+00 1.245224e+02 -2.283603e+00 1.153292e+02 -1.229255e+00 1.064690e+02 -3.920511e-01 9.788878e+01 2.503819e-01 8.953838e+01 7.049107e-01 8.137002e+01 9.798919e-01 7.332585e+01 1.174475e+00 6.536891e+01 1.286385e+00 5.752975e+01 1.273095e+00 4.974759e+01 1.293365e+00 4.206942e+01 1.269217e+00 3.449096e+01 1.196004e+00 2.693056e+01 1.149740e+00 1.943502e+01 1.050594e+00 1.197370e+01 9.686278e-01 4.518807e+00 8.539746e-01 -2.919468e+00 6.541008e-01 -1.041454e+01 5.248230e-01 -1.790533e+01 3.707528e-01 -2.539436e+01 1.841012e-01 -3.295629e+01 3.919164e-02 -4.053610e+01 -1.409614e-01 -4.816247e+01 -2.569305e-01 -5.584364e+01 -3.278902e-01 -6.354508e+01 -4.118812e-01 -7.129577e+01 -5.317799e-01 -7.914755e+01 -7.066261e-01 -8.715006e+01 -9.622659e-01 -9.534898e+01 -1.331791e+00 -1.037915e+02 
-1.620080e+00 -1.119309e+02 -2.411738e+00 -1.211165e+02 -3.492991e+00 1.248151e+02 -2.161107e+00 1.155280e+02 -1.088288e+00 1.065906e+02 -2.377999e-01 9.794992e+01 4.160014e-01 8.955539e+01 8.827316e-01 8.136049e+01 1.165292e+00 7.331339e+01 1.362515e+00 6.535138e+01 1.487703e+00 5.753254e+01 1.477306e+00 4.977961e+01 1.504399e+00 4.213509e+01 1.487611e+00 3.460648e+01 1.415766e+00 2.707948e+01 1.391044e+00 1.962680e+01 1.309420e+00 1.222105e+01 1.242368e+00 4.804771e+00 1.157011e+00 -2.584264e+00 9.760293e-01 -1.003210e+01 8.705703e-01 -1.747704e+01 7.401670e-01 -2.490748e+01 5.635735e-01 -3.243362e+01 4.465539e-01 -3.997138e+01 2.817846e-01 -4.754416e+01 1.565735e-01 -5.519991e+01 8.208586e-02 -6.287476e+01 -1.046059e-02 -7.060250e+01 -1.453843e-01 -7.844141e+01 -3.434345e-01 -8.644429e+01 -6.316063e-01 -9.465909e+01 -1.043508e+00 -1.031355e+02 
-2.161316e+00 -1.135135e+02 -2.981859e+00 -1.228089e+02 -4.098260e+00 1.259518e+02 -2.711009e+00 1.165470e+02 -1.587987e+00 1.074956e+02 -6.915668e-01 9.874630e+01 4.827126e-03 9.024807e+01 5.093484e-01 8.195082e+01 8.136333e-01 7.380659e+01 1.037341e+00 6.573952e+01 1.185671e+00 5.783756e+01 1.175592e+00 4.998649e+01 1.222038e+00 4.225518e+01 1.208993e+00 3.465808e+01 1.129163e+00 2.704211e+01 1.111620e+00 1.951239e+01 1.018278e+00 1.203214e+01 9.486702e-01 4.535434e+00 8.603119e-01 -2.918985e+00 6.526951e-01 -1.045176e+01 5.433832e-01 -1.797295e+01 3.985378e-01 -2.546598e+01 1.940957e-01 -3.308067e+01 7.107730e-02 -4.070006e+01 -1.153476e-01 -4.835571e+01 -2.612333e-01 -5.610590e+01 -3.493160e-01 -6.386405e+01 -4.570968e-01 -7.167930e+01 -6.070418e-01 -7.961284e+01 -8.211738e-01 -8.771499e+01 -1.127530e+00 -9.603168e+01 -1.560357e+00 -1.046120e+02 
-1.883081e+00 -1.127621e+02 -2.752769e+00 -1.221070e+02 -3.928987e+00 1.260285e+02 -2.524957e+00 1.165684e+02 -1.389322e+00 1.074791e+02 -4.782161e-01 9.870764e+01 2.419179e-01 9.019764e+01 7.784778e-01 8.189387e+01 1.075108e+00 7.377878e+01 1.274036e+00 6.567583e+01 1.454633e+00 5.782223e+01 1.399154e+00 4.998166e+01 1.466239e+00 4.228024e+01 1.465812e+00 3.478476e+01 1.348830e+00 2.717119e+01 1.390783e+00 1.969523e+01 1.302511e+00 1.230189e+01 1.245789e+00 4.829632e+00 1.211843e+00 -2.543252e+00 9.743881e-01 -1.005478e+01 9.108003e-01 -1.753408e+01 7.958226e-01 -2.492149e+01 5.606290e-01 -3.253958e+01 5.021347e-01 -4.011472e+01 3.073000e-01 -4.770154e+01 1.206084e-01 -5.545425e+01 3.722057e-02 -6.316319e+01 -7.279222e-02 -7.092973e+01 -2.274355e-01 -7.883198e+01 -4.528816e-01 -8.691922e+01 -7.797257e-01 -9.523548e+01 -1.242618e+00 -1.038300e+02 
-2.372041e+00 -1.141541e+02 -3.258370e+00 -1.235759e+02 -4.456183e+00 1.268994e+02 -3.011074e+00 1.173603e+02 -1.838897e+00 1.081940e+02 -8.938032e-01 9.934936e+01 -1.389096e-01 9.076840e+01 4.362223e-01 8.237654e+01 7.407782e-01 7.415100e+01 9.488280e-01 6.595191e+01 1.161027e+00 5.806484e+01 1.073551e+00 5.009793e+01 1.168620e+00 4.233694e+01 1.174041e+00 3.479757e+01 1.023230e+00 2.708680e+01 1.093623e+00 1.956287e+01 9.861392e-01 1.207303e+01 9.353186e-01 4.533120e+00 9.154905e-01 -2.865563e+00 6.188502e-01 -1.050340e+01 5.680260e-01 -1.803463e+01 4.457126e-01 -2.546543e+01 1.551019e-01 -3.318639e+01 1.149878e-01 -4.081394e+01 -1.067688e-01 -4.851775e+01 -3.217961e-01 -5.635833e+01 -4.037182e-01 -6.410658e+01 -5.173173e-01 -7.193155e+01 -6.760649e-01 -7.990725e+01 -9.080405e-01 -8.807375e+01 -1.243918e+00 -9.647027e+01 -1.718036e+00 -1.051442e+02 
-2.044300e+00 -1.132414e+02 -2.965267e+00 -1.226817e+02 -4.206796e+00 1.267325e+02 -2.757835e+00 1.171761e+02 -1.585267e+00 1.080120e+02 -6.337330e-01 9.919416e+01 1.510700e-01 9.066108e+01 8.058574e-01 8.228427e+01 1.145727e+00 7.406105e+01 1.173810e+00 6.580606e+01 1.497938e+00 5.806432e+01 1.338759e+00 4.999688e+01 1.409206e+00 4.232348e+01 1.492007e+00 3.495106e+01 1.194506e+00 2.716699e+01 1.399434e+00 1.976393e+01 1.334832e+00 1.233430e+01 1.208904e+00 4.831656e+00 1.325580e+00 -2.404714e+00 9.571310e-01 -1.014813e+01 9.293825e-01 -1.757345e+01 8.999834e-01 -2.484031e+01 4.629773e-01 -3.264710e+01 5.758940e-01 -4.016201e+01 3.915097e-01 -4.786861e+01 -1.142921e-02 -5.573045e+01 -6.233514e-02 -6.335606e+01 -1.537782e-01 -7.110518e+01 -2.959308e-01 -7.903855e+01 -5.251042e-01 -8.717828e+01 -8.703860e-01 -9.555835e+01 -1.363407e+00 -1.042260e+02 
-2.478394e+00 -1.144480e+02 -3.402379e+00 -1.239326e+02 -4.649246e+00 1.273312e+02 -3.175215e+00 1.177324e+02 -1.981401e+00 1.085257e+02 -1.012346e+00 9.967030e+01 -2.135860e-01 9.111877e+01 4.608730e-01 8.279190e+01 8.858999e-01 7.408226e+01 7.454653e-01 6.599843e+01 1.192389e+00 5.830896e+01 1.036773e+00 4.984740e+01 1.006035e+00 4.244177e+01 1.216551e+00 3.482298e+01 7.742915e-01 2.699949e+01 1.015340e+00 1.976147e+01 1.027921e+00 1.185082e+01 8.019242e-01 4.555948e+00 1.017955e+00 -2.664702e+00 6.050954e-01 -1.080173e+01 4.813327e-01 -1.794591e+01 5.689384e-01 -2.547189e+01 -4.185186e-02 -3.332901e+01 1.017621e-01 -4.065215e+01 3.774233e-04 -4.892986e+01 -5.692365e-01 -5.662467e+01 -5.365376e-01 -6.422047e+01 -5.949161e-01 -7.201978e+01 -7.262525e-01 -8.001632e+01 -9.537349e-01 -8.821933e+01 -1.300259e+00 -9.665944e+01 -1.795254e+00 -1.053825e+02 
-2.094854e+00 -1.133652e+02 -3.038085e+00 -1.228370e+02 -4.309530e+00 1.268962e+02 -2.849896e+00 1.173122e+02 -1.674715e+00 1.081353e+02 -7.258005e-01 9.934423e+01 6.124483e-02 9.095563e+01 8.102063e-01 8.309743e+01 2.004597e+00 7.338364e+01 5.858702e-01 6.587491e+01 1.451993e+00 5.867011e+01 1.812791e+00 4.912728e+01 8.169564e-01 4.278197e+01 1.843767e+00 3.484922e+01 8.474020e-01 2.686804e+01 1.071306e+00 2.043696e+01 1.977814e+00 1.160470e+01 7.082453e-01 5.034216e+00 1.379627e+00 -1.797207e+00 1.410337e+00 -1.099265e+01 4.166557e-01 -1.706174e+01 1.363759e+00 -2.491529e+01 1.332847e-01 -3.294877e+01 3.131237e-01 -3.937719e+01 1.264410e+00 -4.881041e+01 -6.528096e-01 -5.595713e+01 -3.168109e-01 -6.333066e+01 -2.366112e-01 -7.109191e+01 -3.229181e-01 -7.905448e+01 -5.408284e-01 -8.722058e+01 -8.911691e-01 -9.562635e+01 -1.396630e+00 -1.043209e+02 
-2.472887e+00 -1.143932e+02 -3.404064e+00 -1.238774e+02 -4.660951e+00 1.272223e+02 -3.193663e+00 1.176296e+02 -2.009749e+00 1.084372e+02 -1.051386e+00 9.962322e+01 -2.539558e-01 9.120285e+01 5.062218e-01 8.330456e+01 1.708714e+00 7.356009e+01 2.786612e-01 6.601242e+01 1.160721e+00 5.875187e+01 1.512736e+00 4.917713e+01 5.353766e-01 4.277083e+01 1.554262e+00 3.478936e+01 5.591169e-01 2.676010e+01 7.856638e-01 2.025674e+01 1.661164e+00 1.139184e+01 4.128348e-01 4.747381e+00 1.059321e+00 -2.152731e+00 1.062415e+00 -1.137229e+01 9.307750e-02 -1.752869e+01 9.876470e-01 -2.542410e+01 -2.222500e-01 -3.350737e+01 -5.267742e-02 -4.002493e+01 8.280047e-01 -4.946521e+01 -1.010584e+00 -5.668856e+01 -6.941912e-01 -6.411889e+01 -6.270623e-01 -7.193100e+01 -7.190646e-01 -7.994302e+01 -9.376868e-01 -8.815473e+01 -1.284946e+00 -9.660000e+01 -1.784031e+00 -1.053263e+02 