# vtk DataFile Version 2.0
Comment goes here
ASCII

DATASET STRUCTURED_POINTS
FIELD FieldData 1
TIME 1 1 double
0.04400000
DIMENSIONS    64   64   1

ORIGIN    0.000   0.000   0.000
SPACING   0.03125 0.03125   1.000

POINT_DATA   4096
SCALARS P double
LOOKUP_TABLE default

-2.673136e+01 -1.754276e+02 -1.815773e+01 -1.780968e+02 5.449037e+01 1.437343e+02 -1.232734e+01 1.252444e+02 -1.046912e+00 1.045796e+02 3.773453e+00 9.266473e+01 -8.013106e-01 9.115490e+01 -1.302445e+01 9.165928e+01 -2.148841e+01 8.644598e+01 -2.490037e+01 7.903054e+01 -2.452889e+01 6.467742e+01 -1.748901e+01 4.658579e+01 -9.710886e+00 2.815359e+01 -1.336148e+00 7.418268e+00 9.351597e+00 -1.484003e+01 1.717885e+01 -3.158400e+01 1.694884e+01 -4.124331e+01 1.064772e+01 -4.485314e+01 -5.494576e+00 -3.712660e+01 -3.054109e+01 -2.709675e+01 -5.172777e+01 -2.410580e+01 -6.516248e+01 -2.685514e+01 -7.133854e+01 -3.710161e+01 -6.712179e+01 -5.607753e+01 -5.737830e+01 -7.632603e+01 -4.686465e+01 -9.499645e+01 -4.085189e+01 -1.073815e+02 -3.981974e+01 -1.170136e+02 -3.843036e+01 -1.295202e+02 -3.263756e+01 -1.435755e+02 -2.704521e+01 -1.550663e+02 -2.441222e+01 -1.557079e+02 
-7.773392e+00 -1.219910e+02 -2.447677e+00 -1.240375e+02 5.063010e+01 1.163803e+02 -1.419992e+00 1.055863e+02 3.533840e+00 9.337671e+01 5.203197e+00 8.543488e+01 2.518391e+00 8.246053e+01 -3.821234e+00 8.000975e+01 -7.714705e+00 7.423405e+01 -9.150523e+00 6.787877e+01 -9.343409e+00 5.815349e+01 -6.218312e+00 4.671721e+01 -3.153144e+00 3.552412e+01 -2.361767e-03 2.305770e+01 4.802297e+00 9.302819e+00 8.555514e+00 -1.847035e+00 8.638707e+00 -9.923120e+00 6.623286e+00 -1.575847e+01 1.558996e-01 -1.590485e+01 -1.091869e+01 -1.497086e+01 -1.977991e+01 -1.781048e+01 -2.499269e+01 -2.297027e+01 -2.736761e+01 -3.120987e+01 -2.494202e+01 -4.363986e+01 -2.015965e+01 -5.622553e+01 -1.514425e+01 -6.801130e+01 -1.250292e+01 -7.635863e+01 -1.250153e+01 -8.318020e+01 -1.234769e+01 -9.149901e+01 -9.684218e+00 -1.005802e+02 -7.142522e+00 -1.081876e+02 -6.007720e+00 -1.090190e+02 
4.275204e+00 -8.955405e+01 5.826137e+00 -9.183737e+01 2.316417e+01 9.694088e+01 4.809526e+00 9.290041e+01 4.611067e+00 8.780115e+01 4.010035e+00 8.267234e+01 3.157731e+00 7.767738e+01 1.972778e+00 7.221552e+01 1.448663e+00 6.585618e+01 1.207723e+00 5.962979e+01 7.264229e-01 5.294385e+01 7.590077e-01 4.603669e+01 6.394802e-01 3.933567e+01 4.015801e-01 3.240537e+01 6.288071e-01 2.497484e+01 9.298623e-01 1.779711e+01 9.492900e-01 1.074573e+01 1.209123e+00 3.519460e+00 1.151141e+00 -2.964072e+00 4.358475e-01 -9.350087e+00 1.878758e-01 -1.635043e+01 3.561774e-01 -2.330918e+01 4.851845e-01 -3.030063e+01 1.055066e+00 -3.773054e+01 1.726997e+00 -4.487387e+01 2.403344e+00 -5.187052e+01 2.814001e+00 -5.817181e+01 2.827404e+00 -6.397415e+01 2.848527e+00 -6.976250e+01 3.398388e+00 -7.539930e+01 3.909392e+00 -8.045863e+01 4.303314e+00 -8.354671e+01 
4.016236e+00 -9.046629e+01 5.614667e+00 -9.357888e+01 6.660633e+00 9.793794e+01 5.407697e+00 9.371183e+01 4.739796e+00 8.845180e+01 3.998273e+00 8.311497e+01 2.979276e+00 7.790665e+01 1.784738e+00 7.242334e+01 9.905968e-01 6.634722e+01 5.539571e-01 5.999332e+01 2.613685e-01 5.320200e+01 3.285328e-01 4.609497e+01 4.656162e-01 3.892984e+01 6.798607e-01 3.156127e+01 1.171643e+00 2.396517e+01 1.664651e+00 1.657272e+01 1.846254e+00 9.462365e+00 1.789389e+00 2.622730e+00 1.254185e+00 -3.640315e+00 2.612362e-01 -9.752195e+00 -4.891995e-01 -1.625340e+01 -8.069252e-01 -2.303879e+01 -7.884368e-01 -3.014274e+01 -2.925653e-01 -3.763234e+01 4.725854e-01 -4.504431e+01 1.254580e+00 -5.217442e+01 1.776137e+00 -5.871844e+01 1.983617e+00 -6.479610e+01 2.161453e+00 -7.069382e+01 2.613852e+00 -7.634091e+01 3.137606e+00 -8.140278e+01 3.624708e+00 -8.555812e+01 
4.500564e+00 -8.951317e+01 5.631403e+00 -9.284621e+01 6.636356e+00 9.680512e+01 5.282604e+00 9.297072e+01 4.437931e+00 8.821415e+01 3.685400e+00 8.306546e+01 2.920958e+00 7.769431e+01 2.153996e+00 7.197224e+01 1.628666e+00 6.581198e+01 1.278351e+00 5.945510e+01 9.722734e-01 5.284087e+01 8.310056e-01 4.605034e+01 7.160666e-01 3.921195e+01 6.311846e-01 3.224112e+01 7.016570e-01 2.510008e+01 8.255475e-01 1.798966e+01 8.878595e-01 1.093278e+01 9.554018e-01 3.911713e+00 8.833129e-01 -2.883371e+00 6.279726e-01 -9.636696e+00 5.111184e-01 -1.655646e+01 5.796746e-01 -2.352928e+01 7.506113e-01 -3.055231e+01 1.105708e+00 -3.766559e+01 1.547052e+00 -4.465622e+01 1.990720e+00 -5.144980e+01 2.327842e+00 -5.787714e+01 2.531620e+00 -6.396910e+01 2.746553e+00 -6.984606e+01 3.126030e+00 -7.543977e+01 3.566751e+00 -8.055183e+01 4.039296e+00 -8.499349e+01 
4.063043e+00 -9.143610e+01 5.216430e+00 -9.524369e+01 6.333996e+00 9.786955e+01 5.253386e+00 9.384232e+01 4.358601e+00 8.892797e+01 3.533571e+00 8.361540e+01 2.687308e+00 7.810060e+01 1.861383e+00 7.231331e+01 1.227921e+00 6.616441e+01 8.189575e-01 5.971885e+01 5.779026e-01 5.297247e+01 5.193457e-01 4.598532e+01 5.775868e-01 3.886441e+01 7.268339e-01 3.162285e+01 9.773459e-01 2.430723e+01 1.215644e+00 1.707616e+01 1.302978e+00 1.000843e+01 1.207421e+00 3.139926e+00 8.662090e-01 -3.488935e+00 3.436246e-01 -1.004850e+01 -9.130142e-02 -1.674197e+01 -3.087224e-01 -2.360752e+01 -2.861420e-01 -3.065465e+01 1.133709e-03 -3.784335e+01 4.609267e-01 -4.498684e+01 9.668725e-01 -5.193055e+01 1.389381e+00 -5.854374e+01 1.698829e+00 -6.483478e+01 1.994195e+00 -7.087059e+01 2.385164e+00 -7.661311e+01 2.856720e+00 -8.194135e+01 3.401181e+00 -8.680112e+01 
4.265661e+00 -9.122408e+01 5.127299e+00 -9.536562e+01 6.046426e+00 9.768477e+01 5.023737e+00 9.359707e+01 4.148092e+00 8.881489e+01 3.402926e+00 8.357122e+01 2.736681e+00 7.800246e+01 2.142886e+00 7.212220e+01 1.677134e+00 6.593058e+01 1.341340e+00 5.950914e+01 1.084131e+00 5.288502e+01 9.047204e-01 4.609950e+01 7.944755e-01 3.921998e+01 7.353160e-01 3.224954e+01 7.437548e-01 2.519336e+01 7.958439e-01 1.812850e+01 8.323530e-01 1.108663e+01 8.532583e-01 4.081666e+00 8.107294e-01 -2.846228e+00 7.027113e-01 -9.761887e+00 6.622140e-01 -1.672293e+01 7.165369e-01 -2.371216e+01 8.527516e-01 -3.072482e+01 1.095839e+00 -3.773155e+01 1.396249e+00 -4.464643e+01 1.714752e+00 -5.140707e+01 2.005571e+00 -5.793416e+01 2.253310e+00 -6.421108e+01 2.510470e+00 -7.025388e+01 2.837408e+00 -7.602535e+01 3.232076e+00 -8.144845e+01 3.699168e+00 -8.648163e+01 
3.679933e+00 -9.342388e+01 4.534259e+00 -9.798150e+01 5.419014e+00 9.907293e+01 4.628923e+00 9.466312e+01 3.845255e+00 8.966022e+01 3.113498e+00 8.423695e+01 2.424870e+00 7.851974e+01 1.797603e+00 7.252896e+01 1.288985e+00 6.624936e+01 9.507572e-01 5.971759e+01 7.359686e-01 5.295787e+01 6.215807e-01 4.599790e+01 6.263687e-01 3.891849e+01 6.996557e-01 3.176032e+01 8.190095e-01 2.456379e+01 9.334208e-01 1.741224e+01 9.577908e-01 1.035287e+01 8.829398e-01 3.413792e+00 6.694882e-01 -3.413948e+00 3.543108e-01 -1.021908e+01 9.924252e-02 -1.707135e+01 -3.977397e-02 -2.400701e+01 -3.073673e-02 -3.103488e+01 1.451523e-01 -3.810940e+01 4.333288e-01 -4.514117e+01 7.919322e-01 -5.203337e+01 1.142836e+00 -5.871332e+01 1.454003e+00 -6.516000e+01 1.760135e+00 -7.137880e+01 2.112714e+00 -7.734797e+01 2.534013e+00 -8.302159e+01 3.043537e+00 -8.837576e+01 
3.733430e+00 -9.359834e+01 4.362353e+00 -9.851512e+01 5.037279e+00 9.956994e+01 4.346698e+00 9.490058e+01 3.661933e+00 8.981309e+01 3.048610e+00 8.435114e+01 2.510177e+00 7.858440e+01 2.039116e+00 7.254864e+01 1.639406e+00 6.625343e+01 1.361756e+00 5.974265e+01 1.144238e+00 5.306672e+01 9.446952e-01 4.623382e+01 8.482043e-01 3.931588e+01 7.920008e-01 3.234178e+01 7.642249e-01 2.529650e+01 7.932120e-01 1.824395e+01 8.062692e-01 1.120584e+01 8.260734e-01 4.175132e+00 8.112088e-01 -2.827186e+00 7.329555e-01 -9.844509e+00 7.334879e-01 -1.686841e+01 7.842776e-01 -2.388257e+01 8.714809e-01 -3.091188e+01 1.050513e+00 -3.790068e+01 1.256910e+00 -4.480267e+01 1.497861e+00 -5.160828e+01 1.752509e+00 -5.825222e+01 1.988587e+00 -6.470245e+01 2.228019e+00 -7.095359e+01 2.505706e+00 -7.699004e+01 2.838780e+00 -8.278444e+01 3.240701e+00 -8.832074e+01 
3.052172e+00 -9.585336e+01 3.643639e+00 -1.011500e+02 4.243619e+00 1.012164e+02 3.745215e+00 9.618088e+01 3.190112e+00 9.081600e+01 2.641957e+00 8.513623e+01 2.124729e+00 7.919175e+01 1.649151e+00 7.300562e+01 1.230526e+00 6.656864e+01 9.918488e-01 5.992464e+01 8.106911e-01 5.311954e+01 6.407711e-01 4.612473e+01 6.284631e-01 3.904930e+01 6.444278e-01 3.193403e+01 6.875820e-01 2.477633e+01 7.508968e-01 1.765200e+01 7.307784e-01 1.057759e+01 7.062886e-01 3.572181e+00 5.758506e-01 -3.373840e+00 3.279317e-01 -1.034643e+01 1.840649e-01 -1.732509e+01 8.946889e-02 -2.432502e+01 7.738203e-02 -3.137775e+01 1.933309e-01 -3.843261e+01 3.652015e-01 -4.544719e+01 6.522024e-01 -5.236126e+01 9.571179e-01 -5.912824e+01 1.233783e+00 -6.572442e+01 1.501745e+00 -7.214680e+01 1.796098e+00 -7.838708e+01 2.141072e+00 -8.442795e+01 2.554193e+00 -9.025515e+01 
3.016134e+00 -9.623484e+01 3.408258e+00 -1.018794e+02 3.798911e+00 1.021635e+02 3.429027e+00 9.680729e+01 3.006089e+00 9.125230e+01 2.594886e+00 8.545722e+01 2.221797e+00 7.943420e+01 1.879377e+00 7.320829e+01 1.531810e+00 6.677578e+01 1.355375e+00 6.012529e+01 1.191350e+00 5.337665e+01 9.319749e-01 4.645314e+01 8.802060e-01 3.946824e+01 8.253424e-01 3.249733e+01 7.570242e-01 2.541302e+01 8.069356e-01 1.834461e+01 7.913389e-01 1.132048e+01 8.447012e-01 4.241192e+00 8.642469e-01 -2.807507e+00 7.244334e-01 -9.917586e+00 7.670038e-01 -1.702464e+01 8.149622e-01 -2.405186e+01 8.311091e-01 -3.114320e+01 9.891913e-01 -3.816994e+01 1.112848e+00 -4.507477e+01 1.302816e+00 -5.198254e+01 1.534947e+00 -5.876613e+01 1.731462e+00 -6.538988e+01 1.919334e+00 -7.186285e+01 2.129891e+00 -7.818942e+01 2.378349e+00 -8.436445e+01 2.672024e+00 -9.038235e+01 
2.278363e+00 -9.844422e+01 2.608227e+00 -1.044353e+02 2.898318e+00 1.039788e+02 2.704135e+00 9.825607e+01 2.420042e+00 9.239701e+01 2.100451e+00 8.635254e+01 1.777995e+00 8.012130e+01 1.452555e+00 7.370719e+01 1.070742e+00 6.708596e+01 9.987811e-01 6.028148e+01 8.571786e-01 5.343280e+01 5.646899e-01 4.634069e+01 6.094369e-01 3.922464e+01 5.679189e-01 3.213871e+01 5.644776e-01 2.496295e+01 6.396407e-01 1.783745e+01 5.440097e-01 1.073877e+01 6.395417e-01 3.669181e+00 5.720315e-01 -3.334470e+00 2.491128e-01 -1.046206e+01 2.230039e-01 -1.755795e+01 1.334366e-01 -2.460654e+01 8.671467e-02 -3.172364e+01 1.854061e-01 -3.881467e+01 2.223136e-01 -4.587154e+01 5.223708e-01 -5.285098e+01 8.088996e-01 -5.971445e+01 1.028786e+00 -6.645248e+01 1.227264e+00 -7.307955e+01 1.440314e+00 -7.959920e+01 1.684089e+00 -8.600535e+01 1.964186e+00 -9.229045e+01 
2.185622e+00 -9.892331e+01 2.329047e+00 -1.052368e+02 2.408011e+00 1.052035e+02 2.360144e+00 9.915780e+01 2.219832e+00 9.307381e+01 2.045873e+00 8.687680e+01 1.877538e+00 8.053370e+01 1.703204e+00 7.404744e+01 1.360149e+00 6.748629e+01 1.361063e+00 6.060858e+01 1.267586e+00 5.380506e+01 8.221019e-01 4.674861e+01 9.098912e-01 3.963235e+01 8.439977e-01 3.272433e+01 6.955308e-01 2.553526e+01 8.432429e-01 1.841538e+01 7.491072e-01 1.147678e+01 9.143037e-01 4.289745e+00 9.990986e-01 -2.764366e+00 6.401741e-01 -9.984226e+00 7.951926e-01 -1.723490e+01 8.338128e-01 -2.420304e+01 7.223865e-01 -3.142655e+01 9.376630e-01 -3.855588e+01 9.439161e-01 -4.540708e+01 1.121500e+00 -5.250129e+01 1.346969e+00 -5.942361e+01 1.472990e+00 -6.619993e+01 1.585938e+00 -7.288737e+01 1.715162e+00 -7.950287e+01 1.862519e+00 -8.604763e+01 2.022741e+00 -9.252152e+01 
1.422348e+00 -1.010319e+02 1.485748e+00 -1.076592e+02 1.443666e+00 1.071091e+02 1.564402e+00 1.007165e+02 1.560660e+00 9.432668e+01 1.486128e+00 8.786528e+01 1.385710e+00 8.129546e+01 1.255907e+00 7.458039e+01 8.218422e-01 6.773130e+01 1.041771e+00 6.071413e+01 9.307062e-01 5.387927e+01 3.196248e-01 4.661112e+01 6.161886e-01 3.943062e+01 4.553227e-01 3.234843e+01 4.156894e-01 2.513133e+01 5.977313e-01 1.801591e+01 2.853420e-01 1.084958e+01 7.213116e-01 3.724771e+00 6.971199e-01 -3.259553e+00 3.039491e-02 -1.059239e+01 2.887495e-01 -1.778716e+01 1.029612e-01 -2.489819e+01 1.531324e-02 -3.208115e+01 1.757609e-01 -3.922192e+01 -9.696207e-02 -4.644926e+01 4.365320e-01 -5.348779e+01 7.083360e-01 -6.040085e+01 8.293573e-01 -6.725177e+01 9.340054e-01 -7.407766e+01 1.052201e+00 -8.087522e+01 1.180870e+00 -8.763540e+01 1.309985e+00 -9.435440e+01 
1.296815e+00 -1.015376e+02 1.184017e+00 -1.084554e+02 9.291149e-01 1.084733e+02 1.201809e+00 1.017796e+02 1.332774e+00 9.517122e+01 1.391127e+00 8.857103e+01 1.450484e+00 8.189703e+01 1.531820e+00 7.498685e+01 1.217019e+00 6.821046e+01 1.364031e+00 6.117206e+01 1.420869e+00 5.431505e+01 5.223987e-01 4.706306e+01 9.372811e-01 3.983162e+01 8.718663e-01 3.293550e+01 4.913612e-01 2.566028e+01 8.768853e-01 1.847906e+01 6.310861e-01 1.162951e+01 1.078278e+00 4.340396e+00 1.264041e+00 -2.674426e+00 3.963736e-01 -1.009810e+01 8.475083e-01 -1.747464e+01 8.374340e-01 -2.439482e+01 4.923105e-01 -3.174306e+01 9.084728e-01 -3.899881e+01 7.216256e-01 -4.588550e+01 9.952619e-01 -5.320303e+01 1.173331e+00 -6.014426e+01 1.185620e+00 -6.703197e+01 1.222594e+00 -7.393296e+01 1.271488e+00 -8.083508e+01 1.312101e+00 -8.773273e+01 1.327746e+00 -9.463051e+01 
5.347806e-01 -1.035138e+02 3.325732e-01 -1.107128e+02 -5.216865e-02 1.103998e+02 3.842592e-01 1.033922e+02 6.398242e-01 9.649911e+01 7.762720e-01 8.963822e+01 8.581246e-01 8.271844e+01 9.128454e-01 7.572340e+01 5.531513e-01 6.775251e+01 8.121053e-01 6.138325e+01 1.090553e+00 5.423212e+01 -2.440052e-01 4.667029e+01 4.574615e-01 4.005765e+01 2.066685e-01 3.196975e+01 -1.001761e-02 2.534054e+01 4.391138e-01 1.849204e+01 -4.000816e-01 1.035889e+01 9.741749e-01 3.945175e+00 1.011053e+00 -3.284434e+00 -6.106455e-01 -1.103243e+01 3.865340e-01 -1.760630e+01 -2.601663e-01 -2.576489e+01 -2.573665e-01 -3.239442e+01 1.619025e-01 -3.924350e+01 -1.230643e+00 -4.789803e+01 5.484925e-01 -5.425317e+01 6.460197e-01 -6.102931e+01 5.949917e-01 -6.799530e+01 6.116764e-01 -7.504956e+01 6.421066e-01 -8.213446e+01 6.545379e-01 -8.923533e+01 6.277647e-01 -9.635742e+01 
3.979093e-01 -1.039982e+02 3.434830e-02 -1.114533e+02 -5.480147e-01 1.117914e+02 3.158211e-02 1.045035e+02 3.977935e-01 9.739396e+01 6.148762e-01 9.042456e+01 7.685812e-01 8.362286e+01 1.054093e+00 7.714355e+01 1.938992e+00 6.725064e+01 7.959842e-01 6.248086e+01 1.405062e+00 5.514228e+01 7.543099e-01 4.631572e+01 1.838625e-01 4.140992e+01 1.192557e+00 3.174701e+01 -4.750237e-02 2.575251e+01 1.993468e-01 1.963450e+01 8.889234e-01 1.005783e+01 9.206398e-01 5.088037e+00 1.370371e+00 -2.369914e+00 4.816287e-01 -1.146051e+01 1.852668e-01 -1.638280e+01 8.880329e-01 -2.605296e+01 -4.065920e-02 -3.211039e+01 1.806511e-01 -3.815021e+01 5.268588e-01 -4.860475e+01 7.525648e-01 -5.381234e+01 7.964582e-01 -6.063220e+01 8.201787e-01 -6.776670e+01 8.375716e-01 -7.493834e+01 8.196976e-01 -8.212951e+01 7.538633e-01 -8.935576e+01 6.226643e-01 -9.663773e+01 
-3.389767e-01 -1.058237e+02 -7.917527e-01 -1.135282e+02 -1.491079e+00 1.136680e+02 -7.504504e-01 1.061087e+02 -2.495741e-01 9.877261e+01 7.432801e-02 9.164942e+01 2.852069e-01 8.480039e+01 5.032703e-01 7.830728e+01 9.866585e-01 6.761867e+01 9.705389e-01 6.292037e+01 1.277200e+00 5.558955e+01 6.337411e-01 4.634458e+01 2.945138e-01 4.167995e+01 1.138194e+00 3.150713e+01 2.966097e-02 2.573594e+01 2.176602e-01 1.972566e+01 9.166357e-01 9.643493e+00 9.097994e-01 5.129581e+00 1.371594e+00 -2.588806e+00 3.797809e-01 -1.181135e+01 -5.981045e-02 -1.634470e+01 9.835787e-01 -2.680721e+01 -3.563392e-01 -3.233357e+01 -1.182353e-01 -3.829075e+01 7.680225e-01 -4.952773e+01 1.547816e-01 -5.407139e+01 1.525892e-01 -6.119368e+01 2.457588e-01 -6.859697e+01 2.746288e-01 -7.597050e+01 2.361179e-01 -8.334464e+01 1.338397e-01 -9.075807e+01 -4.731221e-02 -9.824138e+01 
-4.681122e-01 -1.062518e+02 -1.061245e+00 -1.141790e+02 -1.919751e+00 1.150097e+02 -1.056059e+00 1.071943e+02 -4.389358e-01 9.963312e+01 -4.075083e-03 9.228135e+01 2.923178e-01 8.508862e+01 4.171674e-01 7.791684e+01 -5.152267e-01 6.878352e+01 1.261733e+00 6.242719e+01 1.205364e+00 5.529329e+01 -7.501326e-02 4.717129e+01 8.026987e-01 4.081807e+01 2.700913e-01 3.243109e+01 2.390972e-01 2.577128e+01 5.484285e-01 1.908639e+01 -1.381958e-01 1.060163e+01 1.158606e+00 4.319836e+00 1.238732e+00 -2.973718e+00 -1.134412e-01 -1.102216e+01 5.052929e-01 -1.736497e+01 3.239096e-01 -2.584998e+01 -3.227777e-02 -3.246564e+01 2.570356e-01 -3.924419e+01 -2.397104e-01 -4.811391e+01 4.215578e-01 -5.438947e+01 4.985043e-01 -6.137982e+01 5.135788e-01 -6.861749e+01 4.866548e-01 -7.595808e+01 3.920191e-01 -8.337547e+01 2.168690e-01 -9.087995e+01 -5.878382e-02 -9.849518e+01 
-1.160451e+00 -1.079155e+02 -1.835571e+00 -1.160621e+02 -2.797094e+00 1.167564e+02 -1.788758e+00 1.086906e+02 -1.038058e+00 1.008909e+02 -4.709196e-01 9.329281e+01 -1.257402e-02 8.578490e+01 3.727480e-01 7.810414e+01 2.616449e-01 7.066421e+01 8.113119e-01 6.300806e+01 1.127948e+00 5.572134e+01 2.380532e-01 4.809183e+01 8.549126e-01 4.060224e+01 7.275750e-01 3.333248e+01 4.033363e-01 2.596518e+01 8.608028e-01 1.865864e+01 4.071949e-01 1.146039e+01 1.061531e+00 4.183920e+00 1.211350e+00 -3.027857e+00 4.948810e-02 -1.063909e+01 6.754574e-01 -1.801930e+01 4.652924e-01 -2.537036e+01 5.120189e-02 -3.267990e+01 4.535146e-01 -4.008384e+01 -1.820493e-01 -4.763632e+01 2.706327e-01 -5.484062e+01 2.712880e-01 -6.209331e+01 1.350715e-01 -6.946309e+01 2.028550e-02 -7.694102e+01 -1.303017e-01 -8.450815e+01 -3.549639e-01 -9.217420e+01 -6.851694e-01 -9.996502e+01 
-1.267656e+00 -1.082596e+02 -2.065801e+00 -1.165956e+02 -3.168050e+00 1.179636e+02 -2.063117e+00 1.096611e+02 -1.232043e+00 1.016325e+02 -6.163668e-01 9.380504e+01 -1.709545e-01 8.608532e+01 1.144181e-01 7.834529e+01 1.237482e-01 7.071920e+01 6.188688e-01 6.312143e+01 8.387925e-01 5.576284e+01 3.313993e-01 4.820424e+01 6.922576e-01 4.071413e+01 6.293586e-01 3.345436e+01 5.274978e-01 2.606053e+01 7.501954e-01 1.875668e+01 4.891933e-01 1.152177e+01 9.396628e-01 4.161420e+00 1.004246e+00 -2.997268e+00 3.518963e-01 -1.051569e+01 6.801772e-01 -1.795385e+01 5.319899e-01 -2.516945e+01 3.728437e-01 -3.260922e+01 5.359267e-01 -3.995653e+01 1.382896e-01 -4.728032e+01 4.795192e-01 -5.475497e+01 5.085171e-01 -6.206883e+01 3.845761e-01 -6.944055e+01 2.304462e-01 -7.692423e+01 2.321707e-02 -8.452769e+01 -2.714332e-01 -9.226536e+01 -6.878340e-01 -1.001637e+02 
-1.903699e+00 -1.097550e+02 -2.774241e+00 -1.182801e+02 -3.964274e+00 1.195258e+02 -2.731734e+00 1.110008e+02 -1.777818e+00 1.027558e+02 -1.042301e+00 9.472006e+01 -4.752871e-01 8.682053e+01 -6.230068e-02 7.902835e+01 1.180217e-01 7.150082e+01 4.201588e-01 6.373857e+01 6.872758e-01 5.619563e+01 4.008861e-01 4.859186e+01 6.509270e-01 4.099623e+01 6.887202e-01 3.369317e+01 5.652160e-01 2.619609e+01 7.551982e-01 1.879908e+01 6.117898e-01 1.157915e+01 8.271507e-01 4.168152e+00 8.822201e-01 -3.117488e+00 3.942148e-01 -1.062046e+01 5.595046e-01 -1.810933e+01 4.481598e-01 -2.537817e+01 2.477428e-01 -3.287885e+01 3.305957e-01 -4.032275e+01 -2.415425e-03 -4.768646e+01 1.453568e-01 -5.520692e+01 1.599536e-01 -6.269155e+01 1.236178e-02 -7.021387e+01 -1.903295e-01 -7.783094e+01 -4.483662e-01 -8.556689e+01 -7.931223e-01 -9.344395e+01 -1.262868e+00 -1.014929e+02 
-1.979426e+00 -1.099921e+02 -2.958942e+00 -1.186735e+02 -4.279726e+00 1.205605e+02 -2.968517e+00 1.118378e+02 -1.955042e+00 1.034070e+02 -1.184828e+00 9.520654e+01 -6.133549e-01 8.717999e+01 -2.147478e-01 7.929358e+01 1.026730e-02 7.155649e+01 3.133598e-01 6.384697e+01 5.291300e-01 5.626474e+01 4.202591e-01 4.866683e+01 5.794208e-01 4.112549e+01 6.270519e-01 3.373680e+01 5.987240e-01 2.629025e+01 7.055853e-01 1.890767e+01 6.474680e-01 1.159715e+01 7.940335e-01 4.228824e+00 8.280626e-01 -3.077655e+00 5.570773e-01 -1.052621e+01 6.203137e-01 -1.796107e+01 5.531061e-01 -2.528193e+01 4.409584e-01 -3.273062e+01 4.551656e-01 -4.014529e+01 2.637783e-01 -4.754149e+01 3.400853e-01 -5.506407e+01 3.495112e-01 -6.257401e+01 2.182075e-01 -7.012060e+01 3.073611e-04 -7.776252e+01 -2.986463e-01 -8.553659e+01 -7.023516e-01 -9.347406e+01 -1.247099e+00 -1.016109e+02 
-2.553387e+00 -1.113153e+02 -3.594566e+00 -1.201549e+02 -4.989427e+00 1.219133e+02 -3.566790e+00 1.130067e+02 -2.447381e+00 1.044020e+02 -1.577365e+00 9.604642e+01 -9.118471e-01 8.789882e+01 -4.253332e-01 7.994119e+01 -1.154437e-01 7.214573e+01 1.695995e-01 6.434879e+01 4.013394e-01 5.665397e+01 3.919818e-01 4.898173e+01 5.373014e-01 4.137794e+01 6.122900e-01 3.390375e+01 5.920460e-01 2.639908e+01 6.768306e-01 1.896364e+01 6.526863e-01 1.159812e+01 7.180919e-01 4.192315e+00 7.200891e-01 -3.191148e+00 5.053929e-01 -1.066752e+01 5.016547e-01 -1.813114e+01 4.247830e-01 -2.553107e+01 2.846098e-01 -3.302182e+01 2.419751e-01 -4.049749e+01 6.806732e-02 -4.797907e+01 4.794569e-02 -5.555413e+01 6.559533e-03 -6.316602e+01 -1.482779e-01 -7.082937e+01 -3.961751e-01 -7.858619e+01 -7.323620e-01 -8.647484e+01 -1.177636e+00 -9.453113e+01 -1.768472e+00 -1.027949e+02 
-2.589444e+00 -1.114264e+02 -3.725119e+00 -1.203904e+02 -5.236747e+00 1.227555e+02 -3.749232e+00 1.136945e+02 -2.581632e+00 1.049486e+02 -1.679639e+00 9.646981e+01 -9.977358e-01 8.821863e+01 -5.027175e-01 8.016442e+01 -1.670903e-01 7.226411e+01 1.274676e-01 6.444696e+01 3.510041e-01 5.672964e+01 4.034727e-01 4.905998e+01 5.275741e-01 4.146606e+01 6.048590e-01 3.396806e+01 6.182260e-01 2.648214e+01 6.871493e-01 1.905188e+01 6.950809e-01 1.166829e+01 7.509707e-01 4.276700e+00 7.613731e-01 -3.104761e+00 6.303078e-01 -1.054635e+01 6.146398e-01 -1.798498e+01 5.628431e-01 -2.539129e+01 4.620754e-01 -3.285436e+01 4.170055e-01 -4.031833e+01 2.986743e-01 -4.780378e+01 2.558333e-01 -5.537587e+01 2.018681e-01 -6.299585e+01 4.610070e-02 -7.067454e+01 -2.149970e-01 -7.845278e+01 -5.819267e-01 -8.637367e+01 -1.074081e+00 -9.447857e+01 -1.726977e+00 -1.028118e+02 
-3.097590e+00 -1.125757e+02 -4.282584e+00 -1.216663e+02 -5.854309e+00 1.238818e+02 -4.272488e+00 1.146770e+02 -3.017249e+00 1.057970e+02 -2.034762e+00 9.719892e+01 -1.280100e+00 8.884748e+01 -7.217065e-01 8.071233e+01 -3.330656e-01 7.274327e+01 -1.406428e-02 6.484707e+01 2.333988e-01 5.704893e+01 3.249994e-01 4.931177e+01 4.624527e-01 4.165503e+01 5.514889e-01 3.409618e+01 5.673363e-01 2.655628e+01 6.293309e-01 1.907547e+01 6.373907e-01 1.164625e+01 6.653948e-01 4.209206e+00 6.558401e-01 -3.224531e+00 5.251017e-01 -1.070528e+01 4.815130e-01 -1.818657e+01 4.087917e-01 -2.564595e+01 2.792023e-01 -3.315900e+01 2.003120e-01 -4.068223e+01 6.574233e-02 -4.823051e+01 -2.445991e-02 -5.586472e+01 -1.171117e-01 -6.356066e+01 -2.996316e-01 -7.132519e+01 -5.859730e-01 -7.919386e+01 -9.808857e-01 -8.720845e+01 -1.504643e+00 -9.541123e+01 -2.193488e+00 -1.038484e+02 
-3.085297e+00 -1.125468e+02 -4.348666e+00 -1.217306e+02 -6.018665e+00 1.245112e+02 -4.385796e+00 1.151934e+02 -3.092341e+00 1.062115e+02 -2.081202e+00 9.752196e+01 -1.305176e+00 8.908784e+01 -7.297181e-01 8.088142e+01 -3.266349e-01 7.287203e+01 4.206779e-04 6.493286e+01 2.650642e-01 5.711428e+01 3.585589e-01 4.938144e+01 4.976233e-01 4.171640e+01 5.925365e-01 3.416789e+01 6.040393e-01 2.663103e+01 6.819242e-01 1.915420e+01 7.046521e-01 1.175184e+01 7.434511e-01 4.319605e+00 7.634531e-01 -3.101373e+00 6.514436e-01 -1.055582e+01 6.271558e-01 -1.803012e+01 5.799317e-01 -2.546708e+01 4.574913e-01 -3.297203e+01 4.050863e-01 -4.048921e+01 2.897779e-01 -4.800501e+01 1.874903e-01 -5.564137e+01 9.319969e-02 -6.334139e+01 -9.852697e-02 -7.110939e+01 -4.011196e-01 -7.898815e+01 -8.210083e-01 -8.702391e+01 -1.380844e+00 -9.526160e+01 -2.118476e+00 -1.037498e+02 
-3.523997e+00 -1.135222e+02 -4.822548e+00 -1.228010e+02 -6.537099e+00 1.253944e+02 -4.828724e+00 1.159717e+02 -3.466713e+00 1.068921e+02 -2.393383e+00 9.811339e+01 -1.561901e+00 8.959670e+01 -9.413433e-01 8.131034e+01 -5.099139e-01 7.324621e+01 -1.424128e-01 6.523215e+01 1.517874e-01 5.735432e+01 2.439907e-01 4.956245e+01 4.109420e-01 4.183612e+01 5.103994e-01 3.425426e+01 5.125376e-01 2.666526e+01 5.958803e-01 1.913862e+01 6.002845e-01 1.170516e+01 6.398250e-01 4.226248e+00 6.530599e-01 -3.232394e+00 5.058416e-01 -1.073316e+01 4.760497e-01 -1.825861e+01 4.064606e-01 -2.572468e+01 2.471858e-01 -3.328385e+01 1.782144e-01 -4.086104e+01 2.962846e-02 -4.841939e+01 -9.118860e-02 -5.611800e+01 -2.041453e-01 -6.387336e+01 -4.202576e-01 -7.169991e+01 -7.443929e-01 -7.964540e+01 -1.184528e+00 -8.775420e+01 -1.765957e+00 -9.606922e+01 -2.528193e+00 -1.046387e+02 
-3.454075e+00 -1.133439e+02 -4.813588e+00 -1.226845e+02 -6.606370e+00 1.257877e+02 -4.862404e+00 1.162928e+02 -3.474905e+00 1.071512e+02 -2.379641e+00 9.831666e+01 -1.524430e+00 8.974176e+01 -8.785712e-01 8.139597e+01 -4.413113e-01 7.337110e+01 -7.422061e-02 6.528435e+01 2.641834e-01 5.739105e+01 3.055619e-01 4.962590e+01 4.853400e-01 4.185793e+01 5.956077e-01 3.433488e+01 5.535332e-01 2.673169e+01 6.864430e-01 1.919546e+01 6.905892e-01 1.185554e+01 7.536221e-01 4.359704e+00 8.250564e-01 -3.078392e+00 6.419502e-01 -1.054601e+01 6.496218e-01 -1.810009e+01 6.112113e-01 -2.549830e+01 4.226814e-01 -3.307196e+01 4.160050e-01 -4.066418e+01 2.640542e-01 -4.812687e+01 1.267536e-01 -5.585205e+01 2.540205e-02 -6.360290e+01 -2.086491e-01 -7.141566e+01 -5.496660e-01 -7.935859e+01 -1.007410e+00 -8.747723e+01 -1.613594e+00 -9.581314e+01 -2.411032e+00 -1.044150e+02 
-3.819556e+00 -1.141474e+02 -5.198242e+00 -1.235514e+02 -7.017552e+00 1.264122e+02 -5.218747e+00 1.168506e+02 -3.783544e+00 1.076474e+02 -2.645930e+00 9.875747e+01 -1.751663e+00 9.012848e+01 -1.071936e+00 8.169672e+01 -6.353086e-01 7.362330e+01 -2.079873e-01 6.547041e+01 1.542733e-01 5.755989e+01 1.550275e-01 4.972061e+01 3.884026e-01 4.189994e+01 4.845151e-01 3.437791e+01 4.232586e-01 2.672142e+01 5.757713e-01 1.914582e+01 5.325553e-01 1.177320e+01 6.416632e-01 4.238862e+00 7.091780e-01 -3.207392e+00 4.554950e-01 -1.075526e+01 4.883669e-01 -1.835686e+01 4.141865e-01 -2.575513e+01 1.831328e-01 -3.338695e+01 1.776142e-01 -4.103143e+01 -3.397266e-02 -4.854377e+01 -1.439399e-01 -5.632581e+01 -2.550030e-01 -6.409190e+01 -5.115432e-01 -7.193653e+01 -8.661343e-01 -7.992822e+01 -1.334356e+00 -8.810285e+01 -1.951427e+00 -9.649706e+01 -2.761410e+00 -1.051581e+02 
-3.682540e+00 -1.138138e+02 -5.103424e+00 -1.232479e+02 -6.979859e+00 1.265451e+02 -5.164380e+00 1.169510e+02 -3.722742e+00 1.077277e+02 -2.579094e+00 9.883247e+01 -1.665604e+00 9.019834e+01 -9.406640e-01 8.168146e+01 -4.794331e-01 7.370681e+01 -9.593952e-02 6.546312e+01 3.352074e-01 5.757178e+01 2.745024e-01 4.975808e+01 4.785980e-01 4.186921e+01 6.001344e-01 3.446575e+01 4.558690e-01 2.677172e+01 6.876367e-01 1.917745e+01 6.376340e-01 1.195789e+01 7.821577e-01 4.402128e+00 9.387326e-01 -3.006083e+00 6.306556e-01 -1.055230e+01 6.712632e-01 -1.820111e+01 6.377281e-01 -2.547843e+01 3.475073e-01 -3.314492e+01 4.491251e-01 -4.082145e+01 2.284700e-01 -4.821112e+01 9.218370e-02 -5.604031e+01 -1.784212e-02 -6.374996e+01 -3.023018e-01 -7.156432e+01 -6.603394e-01 -7.955098e+01 -1.132234e+00 -8.772857e+01 -1.761440e+00 -9.613000e+01 -2.593047e+00 -1.048039e+02 
-3.971423e+00 -1.144487e+02 -5.393290e+00 -1.239146e+02 -7.273778e+00 1.268986e+02 -5.426292e+00 1.172740e+02 -3.958849e+00 1.080225e+02 -2.797207e+00 9.910522e+01 -1.877745e+00 9.046881e+01 -1.152063e+00 8.202269e+01 -7.095583e-01 7.353759e+01 -2.655381e-01 6.557298e+01 1.548715e-01 5.777830e+01 1.242412e-01 4.953668e+01 2.987067e-01 4.198338e+01 4.345149e-01 3.433831e+01 2.856620e-01 2.666957e+01 4.624999e-01 1.928450e+01 3.774239e-01 1.158177e+01 6.371869e-01 4.314323e+00 7.521838e-01 -3.045534e+00 4.385011e-01 -1.102731e+01 4.242796e-01 -1.832547e+01 3.796081e-01 -2.586902e+01 7.637058e-02 -3.350429e+01 9.935926e-02 -4.095542e+01 -1.902669e-01 -4.893173e+01 -1.950290e-01 -5.648919e+01 -3.192400e-01 -6.414957e+01 -5.958165e-01 -7.200047e+01 -9.482929e-01 -8.003226e+01 -1.419569e+00 -8.825278e+01 -2.049484e+00 -9.669404e+01 -2.881623e+00 -1.054048e+02 
-3.758760e+00 -1.139557e+02 -5.201531e+00 -1.234203e+02 -7.111468e+00 1.267525e+02 -5.272764e+00 1.171276e+02 -3.823420e+00 1.078822e+02 -2.688193e+00 9.899451e+01 -1.800746e+00 9.046979e+01 -1.049338e+00 8.239694e+01 -1.302563e-01 7.289531e+01 -1.514612e-01 6.568112e+01 9.507656e-02 5.814895e+01 8.534606e-01 4.897048e+01 6.569791e-02 4.238578e+01 5.720926e-01 3.418071e+01 5.161574e-01 2.655327e+01 2.900423e-01 1.980862e+01 8.187115e-01 1.119623e+01 7.192729e-01 4.753067e+00 7.678066e-01 -2.455510e+00 1.234801e+00 -1.137103e+01 2.492398e-01 -1.767551e+01 6.329870e-01 -2.581191e+01 4.313654e-01 -3.335712e+01 8.490761e-02 -4.010791e+01 5.529961e-01 -4.921261e+01 5.404680e-02 -5.604730e+01 -2.020110e-01 -6.361626e+01 -4.029891e-01 -7.152244e+01 -7.172483e-01 -7.957161e+01 -1.179266e+00 -8.778677e+01 -1.812089e+00 -9.621684e+01 -2.653829e+00 -1.049177e+02 
-3.969527e+00 -1.144262e+02 -5.392945e+00 -1.238913e+02 -7.279411e+00 1.268302e+02 -5.432915e+00 1.172100e+02 -3.973829e+00 1.079669e+02 -2.827904e+00 9.907829e+01 -1.928634e+00 9.054753e+01 -1.162017e+00 8.246756e+01 -2.148996e-01 7.296316e+01 -2.648657e-01 6.574142e+01 -3.967555e-03 5.818704e+01 7.570772e-01 4.900110e+01 -2.774885e-02 4.239004e+01 4.820747e-01 3.417431e+01 4.194961e-01 2.652117e+01 1.988835e-01 1.974108e+01 7.076099e-01 1.113480e+01 6.088541e-01 4.635377e+00 6.417963e-01 -2.602860e+00 1.069763e+00 -1.151510e+01 1.081745e-01 -1.788218e+01 4.480975e-01 -2.600887e+01 2.384072e-01 -3.359752e+01 -1.067840e-01 -4.040497e+01 2.918961e-01 -4.946831e+01 -1.656062e-01 -5.638781e+01 -4.246599e-01 -6.398201e+01 -6.399385e-01 -7.190855e+01 -9.607180e-01 -7.998072e+01 -1.422201e+00 -8.821796e+01 -2.048965e+00 -9.666654e+01 -2.879854e+00 -1.053808e+02 