# vtk DataFile Version 2.0
Comment goes here
ASCII

DATASET STRUCTURED_POINTS
FIELD FieldData 1
TIME 1 1 double
0.09400000
DIMENSIONS    64   64   1

ORIGIN    0.000   0.000   0.000
SPACING   0.03125 0.03125   1.000

POINT_DATA   4096
VECTORS u double

-35.089299 -4.440826 0.000000 -9.721689 30.119177 0.000000 -34.839669 0.857671 0.000000 3.241203 -5.842350 0.000000 -9.885067 8.811049 0.000000 21.982736 2.699072 0.000000 -34.807765 -12.441497 0.000000 20.600846 0.405095 0.000000 -24.449379 6.320485 0.000000 2.123653 7.812608 0.000000 2.628396 -3.557092 0.000000 -2.277904 5.110073 0.000000 -2.648831 -5.070189 0.000000 0.084637 -4.641117 0.000000 6.539397 5.632841 0.000000 4.490503 2.913858 0.000000 5.821659 -17.916070 0.000000 -1.338568 12.211104 0.000000 25.606916 -19.301941 0.000000 -1.621159 -5.878176 0.000000 20.568804 -8.720722 0.000000 -15.547075 3.304203 0.000000 -0.163703 15.809576 0.000000 -6.906363 24.651910 0.000000 36.594425 9.870122 0.000000 -6.079077 38.640394 0.000000 32.965002 20.298317 0.000000 -15.297326 3.914868 0.000000 18.712025 -33.626397 0.000000 -6.547410 4.996678 0.000000 9.795327 38.890050 0.000000 14.561507 18.918943 0.000000 7.246832 4.519380 0.000000 -20.635980 -6.085613 0.000000 9.500756 11.221979 0.000000 -3.545378 8.916761 0.000000 47.540120 10.758104 0.000000 24.570760 9.493699 0.000000 -4.413177 13.402771 0.000000 27.025037 -6.725656 0.000000 -5.161235 -25.034406 0.000000 -15.720455 -10.834799 0.000000 3.731754 -11.919554 0.000000 -12.787440 -10.375833 0.000000 -3.917714 12.223569 0.000000 4.677307 2.870539 0.000000 13.534149 -4.961165 0.000000 11.381592 -5.325408 0.000000 -2.982501 4.934991 0.000000 5.669561 -10.027633 0.000000 -3.495948 9.848932 0.000000 13.015531 -4.581408 0.000000 6.933657 11.382592 0.000000 -6.895262 -10.631644 0.000000 -4.617526 3.770744 0.000000 10.443262 -0.298280 0.000000 -15.873393 5.654001 0.000000 9.157265 6.174308 0.000000 -9.983749 19.635397 0.000000 0.540033 -4.696475 0.000000 0.058418 8.349516 0.000000 27.642066 16.844001 0.000000 -7.339131 55.430112 0.000000 8.271217 14.954785 0.000000 
32.568819 49.695363 0.000000 21.338524 -32.257137 0.000000 39.600840 -25.937326 0.000000 -28.865734 12.127751 0.000000 -0.532438 -22.260657 0.000000 -16.069219 21.107031 0.000000 -14.770424 2.253959 0.000000 -8.617521 -9.809568 0.000000 -9.395926 19.566199 0.000000 2.795857 -10.316781 0.000000 -4.595860 -2.158245 0.000000 3.719409 7.608833 0.000000 -2.089874 0.010842 0.000000 0.812573 -2.969849 0.000000 -6.965124 -0.993609 0.000000 9.518080 9.422542 0.000000 -16.952101 5.424275 0.000000 7.146333 -1.128526 0.000000 12.867554 0.509343 0.000000 -20.122450 8.674744 0.000000 29.445977 17.622333 0.000000 11.216705 -2.444724 0.000000 28.772666 -26.739294 0.000000 2.046295 -37.523873 0.000000 16.249014 -38.504628 0.000000 -44.427739 -26.846905 0.000000 25.362716 -27.027588 0.000000 -16.295635 24.229732 0.000000 -1.958108 30.434362 0.000000 -33.335689 0.437721 0.000000 16.857134 -36.383753 0.000000 -14.032084 -30.871110 0.000000 14.399719 9.809049 0.000000 -9.517813 9.032086 0.000000 15.143755 -15.973357 0.000000 -31.105177 -30.889552 0.000000 -30.183060 -33.634149 0.000000 -37.017493 29.773242 0.000000 -4.490003 -18.574688 0.000000 -1.751401 13.229074 0.000000 -39.192127 54.758401 0.000000 36.935013 -0.491165 0.000000 18.986732 18.905806 0.000000 11.208947 -6.448965 0.000000 25.464359 1.067943 0.000000 -1.791382 -17.765118 0.000000 24.750335 -3.240610 0.000000 -7.282543 5.041602 0.000000 3.935421 2.236480 0.000000 6.911516 -7.635858 0.000000 -3.299908 3.606591 0.000000 4.418055 -18.237273 0.000000 0.951758 14.216512 0.000000 15.245906 7.625017 0.000000 -20.730711 -13.619950 0.000000 18.690555 2.041716 0.000000 -18.762446 -3.471180 0.000000 18.865800 -9.682688 0.000000 -1.275176 -3.718052 0.000000 24.496288 -10.231835 0.000000 -16.497591 -23.936065 0.000000 -15.506207 -7.878829 0.000000 8.123497 -30.595178 0.000000 27.962132 1.563769 0.000000 
-106.042890 2.182781 0.000000 -37.289728 23.087157 0.000000 -63.378961 51.061930 0.000000 51.250586 34.290928 0.000000 17.650245 -3.985466 0.000000 26.116982 16.937058 0.000000 37.629514 -19.893195 0.000000 6.342369 -4.969404 0.000000 15.175701 -5.092894 0.000000 15.921779 3.012542 0.000000 -4.073864 -4.480643 0.000000 6.136144 2.604087 0.000000 -1.796771 -2.163353 0.000000 3.683786 0.234133 0.000000 -10.476443 -3.072665 0.000000 -1.372869 12.900835 0.000000 -14.129409 -15.544323 0.000000 5.295136 -17.608551 0.000000 -19.644598 7.966842 0.000000 -22.463685 -22.456600 0.000000 -55.416078 -40.059877 0.000000 -38.396043 3.977514 0.000000 -59.264015 24.979985 0.000000 -20.460103 37.175562 0.000000 -42.746758 56.344156 0.000000 -20.229116 29.526693 0.000000 -41.770788 -7.833787 0.000000 2.035141 31.235692 0.000000 31.606240 -16.586343 0.000000 20.849868 -13.818565 0.000000 -21.258719 19.586445 0.000000 -40.928338 21.376359 0.000000 -42.750077 0.005109 0.000000 41.807818 -6.829650 0.000000 16.659256 32.809343 0.000000 44.531510 54.243576 0.000000 27.759148 16.670420 0.000000 32.875330 -16.199358 0.000000 -1.551967 -21.863321 0.000000 26.262512 27.976467 0.000000 55.021245 -63.720820 0.000000 -34.165179 -69.013658 0.000000 -85.446891 13.806512 0.000000 -30.718873 -16.853461 0.000000 -26.016098 25.223897 0.000000 -9.295057 3.584564 0.000000 -21.504869 0.529997 0.000000 3.887912 15.489506 0.000000 -0.845628 -9.259069 0.000000 16.860534 -2.792304 0.000000 4.496753 12.342394 0.000000 10.525613 -8.833074 0.000000 -6.925359 0.554741 0.000000 19.416578 11.050825 0.000000 -4.550078 0.326094 0.000000 -4.207420 -2.266545 0.000000 -5.273808 5.478756 0.000000 -16.934897 -11.312962 0.000000 -20.521304 14.004910 0.000000 -16.887551 10.525941 0.000000 -13.079164 48.352012 0.000000 28.334459 -7.777087 0.000000 -82.785091 11.961773 0.000000 -34.789971 -9.490537 0.000000 
-88.085613 52.195120 0.000000 -105.551423 -74.921066 0.000000 -66.660274 -114.477641 0.000000 2.954908 -68.901455 0.000000 23.488147 2.872947 0.000000 -4.529115 1.127762 0.000000 56.010133 22.028573 0.000000 50.905963 12.644244 0.000000 36.692588 9.986789 0.000000 33.659530 8.932784 0.000000 9.752470 7.627391 0.000000 17.099128 5.331741 0.000000 -0.948482 2.463200 0.000000 5.696007 5.709823 0.000000 -5.849038 4.063047 0.000000 -2.439112 13.075508 0.000000 -2.682177 -1.243730 0.000000 -23.145431 4.386664 0.000000 -30.078832 28.268164 0.000000 -37.548878 44.446224 0.000000 -76.889926 33.554691 0.000000 -108.291171 1.403213 0.000000 -87.388724 -44.675234 0.000000 -73.225261 -54.041130 0.000000 -40.222267 -38.735615 0.000000 -23.557520 -27.822875 0.000000 -6.128014 -49.291845 0.000000 -82.495144 -49.147296 0.000000 -4.302211 11.619634 0.000000 -67.570129 53.302680 0.000000 -63.165423 25.394453 0.000000 -110.994621 -9.379752 0.000000 -36.823817 -72.927107 0.000000 -66.947879 -50.377247 0.000000 2.189395 -18.697048 0.000000 109.080432 -41.989444 0.000000 114.190178 -21.977969 0.000000 164.777735 59.084357 0.000000 87.811924 -11.961870 0.000000 109.950773 -43.344137 0.000000 130.514094 115.186093 0.000000 -37.263536 139.976971 0.000000 16.178948 15.459500 0.000000 56.891828 -65.879758 0.000000 -4.940738 -20.355873 0.000000 12.571912 -22.276347 0.000000 -27.460979 -16.423579 0.000000 32.718716 -15.617639 0.000000 15.921827 -10.736143 0.000000 38.009271 -12.978239 0.000000 21.938817 9.941512 0.000000 46.089310 -6.815161 0.000000 16.703895 5.325548 0.000000 41.256815 5.249736 0.000000 22.144126 10.004048 0.000000 41.412621 2.765446 0.000000 19.607881 9.256297 0.000000 36.055568 5.564807 0.000000 -8.694485 -3.765398 0.000000 1.078047 -17.673974 0.000000 -65.752897 -69.158075 0.000000 -32.556896 61.827098 0.000000 -103.569064 32.529252 0.000000 -138.375905 24.821569 0.000000 
49.972403 -30.641701 0.000000 45.360892 1.661818 0.000000 9.282230 -57.444402 0.000000 -70.240429 -55.857494 0.000000 13.834477 3.498557 0.000000 -83.880236 -15.584928 0.000000 51.321142 -75.328273 0.000000 44.655458 14.348141 0.000000 29.997817 12.153539 0.000000 50.644901 29.952659 0.000000 11.977470 12.079759 0.000000 23.086528 13.305040 0.000000 -0.565967 9.239768 0.000000 13.635292 5.134689 0.000000 -2.946883 5.062454 0.000000 5.199774 9.733974 0.000000 -0.984338 5.161996 0.000000 -7.332383 9.788104 0.000000 -12.563330 22.370289 0.000000 -0.034127 24.354494 0.000000 0.655871 30.682416 0.000000 9.254811 14.476312 0.000000 -3.671824 -10.085925 0.000000 -39.318272 -9.990894 0.000000 -11.301035 6.676416 0.000000 -79.216720 -4.567560 0.000000 -53.091759 51.103837 0.000000 -67.464545 29.409890 0.000000 -16.496606 -31.511357 0.000000 36.158330 45.044647 0.000000 45.393747 63.010937 0.000000 27.481268 -4.965247 0.000000 4.942964 -44.041632 0.000000 -20.875114 -45.842862 0.000000 50.678713 -143.218968 0.000000 80.384143 -57.757206 0.000000 110.340377 -39.026883 0.000000 104.916084 10.178896 0.000000 105.038718 32.963642 0.000000 72.402232 -14.725703 0.000000 45.547020 83.493490 0.000000 62.249605 45.321488 0.000000 164.676909 -80.348852 0.000000 207.096155 4.266225 0.000000 127.515029 69.543813 0.000000 56.928416 26.104805 0.000000 23.894569 -19.616807 0.000000 37.892388 -27.893300 0.000000 38.520811 -14.549624 0.000000 37.925619 -8.809293 0.000000 36.774633 4.262355 0.000000 36.933567 -3.598153 0.000000 29.383781 5.387236 0.000000 27.378460 5.610594 0.000000 27.957429 0.170288 0.000000 15.668408 0.269700 0.000000 14.241231 10.835809 0.000000 -0.820868 16.989403 0.000000 12.741527 48.982430 0.000000 39.377584 67.584353 0.000000 -24.043808 81.986955 0.000000 -86.600585 30.039080 0.000000 -99.840116 117.780782 0.000000 -33.813402 -24.973988 0.000000 
10.824894 -26.979174 0.000000 81.825430 -34.230892 0.000000 36.317631 1.123681 0.000000 63.263013 -73.453703 0.000000 22.534240 16.512755 0.000000 55.623577 -36.358902 0.000000 -48.960411 -106.507122 0.000000 11.120191 33.967569 0.000000 -31.063842 3.997346 0.000000 25.221309 26.953131 0.000000 -18.674855 35.185764 0.000000 21.596232 17.875177 0.000000 -14.568728 11.914436 0.000000 10.464822 8.090739 0.000000 -1.350996 12.498564 0.000000 2.757520 11.112963 0.000000 -0.261022 11.288426 0.000000 -4.018438 15.965656 0.000000 -7.476400 20.969909 0.000000 -1.763331 31.227023 0.000000 -11.154431 24.265754 0.000000 37.978309 5.730908 0.000000 -11.449533 3.897848 0.000000 30.653340 -46.411919 0.000000 -28.469904 1.162833 0.000000 -6.882905 13.967849 0.000000 15.497308 -61.044020 0.000000 26.001027 -85.742449 0.000000 -29.917434 -92.003240 0.000000 113.155155 -8.587673 0.000000 46.829656 34.071516 0.000000 119.821718 31.071031 0.000000 27.460520 -24.570726 0.000000 72.564039 -96.112997 0.000000 68.051166 -119.956305 0.000000 63.301842 -101.651108 0.000000 96.122942 -46.509910 0.000000 79.219197 64.386016 0.000000 77.116994 20.551981 0.000000 192.497314 16.147560 0.000000 47.888226 125.338720 0.000000 136.324982 20.847083 0.000000 161.115091 -129.387050 0.000000 193.767191 -28.717878 0.000000 186.591411 129.811867 0.000000 178.557994 81.344113 0.000000 129.074751 2.612449 0.000000 93.584713 -30.243881 0.000000 55.377396 -10.769373 0.000000 58.064378 -11.232062 0.000000 34.397632 10.933564 0.000000 50.100104 0.575691 0.000000 25.290118 14.880654 0.000000 46.202125 6.676088 0.000000 16.133779 21.714101 0.000000 49.543081 16.481645 0.000000 23.907235 25.745572 0.000000 40.479457 7.064512 0.000000 40.178398 -43.963850 0.000000 -36.163675 19.111360 0.000000 -64.967325 56.820094 0.000000 -155.326987 137.623406 0.000000 -156.533199 -20.257930 0.000000 13.843657 -124.990951 0.000000 
-50.660264 -98.623475 0.000000 -75.544255 -23.830918 0.000000 -52.756647 -38.881984 0.000000 -45.249058 -42.074103 0.000000 14.330354 11.137993 0.000000 -29.200163 55.909724 0.000000 -75.013934 -30.824887 0.000000 10.656709 -3.548427 0.000000 -76.747437 -1.947579 0.000000 19.807472 17.563672 0.000000 -68.898692 15.704835 0.000000 40.875844 9.198913 0.000000 -12.560476 20.371178 0.000000 16.504544 -8.083043 0.000000 0.462339 12.769757 0.000000 4.070582 8.644000 0.000000 3.433815 11.937953 0.000000 2.200068 17.003482 0.000000 3.315826 20.115182 0.000000 8.877831 28.032525 0.000000 1.353802 -9.059224 0.000000 26.656042 14.771414 0.000000 -47.378332 -2.760955 0.000000 9.212970 7.029476 0.000000 -24.708959 44.212661 0.000000 -7.681137 -48.534772 0.000000 39.575231 18.219904 0.000000 68.776872 74.824632 0.000000 -73.546812 -118.665485 0.000000 -7.445667 -31.702443 0.000000 49.204621 56.344374 0.000000 84.456690 14.403888 0.000000 116.456326 3.216047 0.000000 75.912042 -86.433508 0.000000 35.176922 -133.956772 0.000000 23.626419 -85.828981 0.000000 3.706262 -54.944238 0.000000 41.205827 29.184844 0.000000 18.052594 -80.314475 0.000000 99.321848 14.503065 0.000000 65.676387 139.665822 0.000000 150.297980 -67.905376 0.000000 216.461862 -137.791061 0.000000 188.959221 -21.210095 0.000000 224.364058 84.753010 0.000000 216.012510 83.621464 0.000000 165.487950 65.356474 0.000000 113.455985 45.804055 0.000000 80.887488 20.970712 0.000000 60.073897 12.170471 0.000000 50.290499 12.226629 0.000000 44.128990 5.509361 0.000000 33.271452 9.285215 0.000000 40.408794 14.766933 0.000000 32.213173 -3.170667 0.000000 20.363212 -7.503756 0.000000 7.702918 19.899433 0.000000 22.351139 0.718240 0.000000 -17.832981 125.625562 0.000000 -38.341188 172.730075 0.000000 -85.815721 201.150267 0.000000 -125.411898 121.604954 0.000000 -105.845372 -51.389861 0.000000 -72.168175 -192.332081 0.000000 
-48.517870 -23.603094 0.000000 -170.440589 -32.134509 0.000000 -36.314270 -29.171516 0.000000 -115.159151 -140.540704 0.000000 21.750427 0.463860 0.000000 -138.369316 52.985386 0.000000 28.947212 -146.363993 0.000000 -52.827567 35.701071 0.000000 -57.117860 -5.153417 0.000000 61.471432 19.104387 0.000000 -44.230357 14.117392 0.000000 56.847997 -38.463039 0.000000 3.916434 36.285736 0.000000 0.468059 -4.932076 0.000000 11.857899 24.932527 0.000000 1.037653 8.141486 0.000000 8.897860 13.158940 0.000000 0.851921 16.083645 0.000000 10.826055 14.292145 0.000000 -23.401807 33.189047 0.000000 8.227208 6.487543 0.000000 52.599099 54.463043 0.000000 -8.460477 21.340920 0.000000 52.525599 -69.081292 0.000000 19.826157 18.056940 0.000000 5.778032 -50.316340 0.000000 -68.481535 -137.502029 0.000000 137.374169 27.379593 0.000000 19.418878 -15.780701 0.000000 -27.283331 -131.339105 0.000000 60.788834 -57.830842 0.000000 84.963311 -36.180674 0.000000 121.966494 -16.026077 0.000000 114.635592 -14.833593 0.000000 57.344732 -67.670682 0.000000 -48.135952 -70.180447 0.000000 -13.722305 -64.089318 0.000000 -8.305434 50.039684 0.000000 29.086617 -37.564040 0.000000 -25.017591 -31.476234 0.000000 141.353363 74.362587 0.000000 127.960328 -129.938391 0.000000 175.926973 -168.048291 0.000000 112.142844 -36.620075 0.000000 130.551336 102.758577 0.000000 65.990282 140.220221 0.000000 53.579927 105.168974 0.000000 55.725969 54.356582 0.000000 42.348790 42.612715 0.000000 54.769331 19.364927 0.000000 30.726179 26.878471 0.000000 45.592187 17.594738 0.000000 32.142472 18.600850 0.000000 34.970453 7.734367 0.000000 3.260072 41.759684 0.000000 66.133340 40.991900 0.000000 -34.889779 23.757645 0.000000 86.550065 32.600411 0.000000 -2.031024 16.728477 0.000000 47.172319 87.094100 0.000000 84.074406 143.890804 0.000000 52.375887 157.653058 0.000000 122.126869 -73.501654 0.000000 62.366429 -180.176059 0.000000 
125.749599 134.183543 0.000000 -221.880415 -36.034517 0.000000 25.076791 -94.163421 0.000000 -30.591295 -100.138800 0.000000 19.566999 34.348157 0.000000 -29.313422 48.712938 0.000000 -8.948604 -116.366636 0.000000 -113.578278 82.516644 0.000000 25.593223 -116.246578 0.000000 -15.791971 4.676169 0.000000 -80.942043 20.328271 0.000000 -34.260346 -38.947879 0.000000 -33.936576 76.751116 0.000000 -42.882743 -16.024508 0.000000 12.899797 12.200162 0.000000 -6.473059 11.604038 0.000000 7.157548 12.123685 0.000000 7.621459 15.075288 0.000000 15.389117 44.368910 0.000000 -5.966725 30.631372 0.000000 19.810968 -85.060130 0.000000 72.920562 31.459099 0.000000 94.122403 -2.687455 0.000000 74.329489 -21.257158 0.000000 42.539019 90.960228 0.000000 116.467034 39.772920 0.000000 11.842820 -113.376233 0.000000 -0.994595 -13.075781 0.000000 41.397898 45.992016 0.000000 -15.609650 -73.072399 0.000000 -3.270891 -55.902269 0.000000 0.831984 -46.773772 0.000000 32.555156 -26.456233 0.000000 43.406069 -21.811746 0.000000 63.533578 28.814772 0.000000 13.999009 -14.761944 0.000000 2.457103 -94.774756 0.000000 15.652348 -13.624078 0.000000 86.437567 -63.602318 0.000000 3.013801 -97.763681 0.000000 126.346754 -13.312098 0.000000 132.214462 -102.478987 0.000000 158.969480 -121.973576 0.000000 46.680316 24.165541 0.000000 -12.687137 130.905571 0.000000 -38.455751 160.592874 0.000000 -1.271958 75.620787 0.000000 38.116599 57.035192 0.000000 42.053315 21.927350 0.000000 43.552375 23.793082 0.000000 44.621025 21.403773 0.000000 34.869798 4.093068 0.000000 38.429475 19.906949 0.000000 35.256364 43.649333 0.000000 82.410529 -34.333554 0.000000 21.982173 30.646095 0.000000 83.919582 -0.517292 0.000000 -0.782321 -32.140515 0.000000 38.548451 165.003308 0.000000 -55.582460 86.624644 0.000000 71.831466 195.946699 0.000000 124.043109 83.552491 0.000000 108.445177 -61.380404 0.000000 99.822633 -21.687342 0.000000 
112.817885 298.099954 0.000000 -18.191828 68.538298 0.000000 -26.384338 -220.460636 0.000000 -58.963078 -135.030912 0.000000 0.099841 -0.814013 0.000000 21.096483 81.500989 0.000000 31.495759 -62.099138 0.000000 -30.273202 1.159245 0.000000 -12.552652 -102.939724 0.000000 -107.092425 125.639652 0.000000 9.748920 32.585767 0.000000 -91.069034 -85.468505 0.000000 -33.479974 44.908133 0.000000 -6.564971 -51.768448 0.000000 1.646874 -11.477157 0.000000 12.058065 13.883735 0.000000 19.335579 -0.935577 0.000000 38.118197 7.852076 0.000000 -2.591103 27.880329 0.000000 3.549789 28.767196 0.000000 -40.539167 -72.399744 0.000000 -19.712657 -19.848392 0.000000 53.443686 19.931993 0.000000 65.712049 -17.497908 0.000000 61.662188 -24.080605 0.000000 74.841751 -19.620142 0.000000 87.534740 -20.040400 0.000000 69.354946 -2.175485 0.000000 75.633610 -1.165646 0.000000 41.873886 -86.670316 0.000000 10.211142 -74.272476 0.000000 33.641048 -72.006721 0.000000 15.944672 -58.600162 0.000000 6.692923 -45.812015 0.000000 -6.177125 -38.263622 0.000000 15.574344 -9.103972 0.000000 -22.695813 -65.742656 0.000000 35.986287 -33.940779 0.000000 31.406462 -24.925493 0.000000 26.007375 -71.385421 0.000000 37.342068 -54.838073 0.000000 78.201841 -162.561118 0.000000 30.195816 -82.514145 0.000000 32.953179 135.036542 0.000000 -73.406842 187.894644 0.000000 -25.158580 128.805042 0.000000 3.577851 28.596625 0.000000 25.128948 11.031308 0.000000 15.424611 37.176939 0.000000 61.323967 16.797217 0.000000 26.340002 35.561047 0.000000 64.126240 23.786288 0.000000 26.849202 18.214284 0.000000 22.873581 -36.246687 0.000000 1.424767 55.033875 0.000000 25.127980 39.482846 0.000000 -70.100254 46.522139 0.000000 49.392954 77.971541 0.000000 76.402296 71.528616 0.000000 64.541883 53.811086 0.000000 236.154573 -35.734765 0.000000 39.361511 121.039347 0.000000 164.568128 -49.281178 0.000000 -54.522761 -197.480481 0.000000 
-66.458310 97.852610 0.000000 126.040210 103.167706 0.000000 53.465057 -53.392172 0.000000 -43.076688 -126.622980 0.000000 7.471168 -45.711404 0.000000 -11.438329 17.317021 0.000000 24.115614 -64.996951 0.000000 -74.232174 126.565055 0.000000 28.883045 -39.427355 0.000000 -47.959979 -17.625403 0.000000 143.584205 4.304881 0.000000 36.957553 4.281015 0.000000 70.093063 -7.752948 0.000000 44.457424 -51.151355 0.000000 63.654303 -6.422874 0.000000 54.973817 -6.084666 0.000000 22.108769 -13.936447 0.000000 40.153754 37.001969 0.000000 14.449937 78.937318 0.000000 -44.286967 68.579436 0.000000 -57.430862 -61.797684 0.000000 -13.264011 -62.523753 0.000000 -0.185776 -88.112161 0.000000 -59.433241 -29.475660 0.000000 -13.696831 81.830525 0.000000 25.533184 13.900367 0.000000 15.003762 -107.889428 0.000000 74.502543 -1.174651 0.000000 40.269617 73.473076 0.000000 60.483376 -7.649930 0.000000 33.505575 -47.669431 0.000000 10.434781 -52.507302 0.000000 -30.332621 0.491892 0.000000 -33.475769 0.310051 0.000000 -40.700157 19.933351 0.000000 -46.090202 1.756744 0.000000 -70.990959 -115.186699 0.000000 -1.160981 -67.726353 0.000000 -2.926758 -53.623406 0.000000 33.697410 -103.699287 0.000000 9.171855 -65.506564 0.000000 24.709738 -95.332734 0.000000 -73.404465 -76.724914 0.000000 56.012708 127.768199 0.000000 47.014189 189.017330 0.000000 119.100420 83.608181 0.000000 72.054308 25.333259 0.000000 81.533256 45.188432 0.000000 61.138656 -14.267670 0.000000 36.134600 12.877691 0.000000 -2.663294 18.601501 0.000000 29.598722 3.583868 0.000000 26.257727 61.159607 0.000000 46.457586 69.073768 0.000000 19.148562 -36.587953 0.000000 146.780530 102.171117 0.000000 18.689477 -24.782266 0.000000 158.063218 -178.643065 0.000000 39.558556 149.854378 0.000000 177.937532 -73.127633 0.000000 150.764001 221.127072 0.000000 143.647794 155.138936 0.000000 259.705493 32.503868 0.000000 -63.829100 30.062901 0.000000 
41.805889 108.230645 0.000000 197.190972 -51.385069 0.000000 55.480988 -51.343738 0.000000 81.062505 -89.037023 0.000000 11.484707 -32.452373 0.000000 54.166018 64.856543 0.000000 -9.421880 0.694708 0.000000 -1.204839 -3.608186 0.000000 129.335091 -129.211918 0.000000 18.123032 10.938491 0.000000 191.504276 -52.331766 0.000000 56.444645 -11.977363 0.000000 56.581117 37.408262 0.000000 103.732073 -45.329689 0.000000 103.925446 -21.993551 0.000000 -13.812217 55.429269 0.000000 50.751691 13.884485 0.000000 30.609087 15.510907 0.000000 -77.042433 112.321051 0.000000 8.358719 100.647996 0.000000 29.491710 -103.422700 0.000000 105.338053 -77.093478 0.000000 108.871199 66.101223 0.000000 80.685803 -3.986852 0.000000 45.964974 -109.047030 0.000000 83.357542 -48.320735 0.000000 1.728035 -69.009759 0.000000 -78.023977 -27.441340 0.000000 -120.791366 12.853521 0.000000 -31.902943 -79.906274 0.000000 -31.468931 -24.223881 0.000000 6.255474 -8.168525 0.000000 11.469021 -14.689612 0.000000 8.012823 -35.444479 0.000000 -2.588918 -25.649190 0.000000 -34.668616 21.186830 0.000000 -13.849414 -110.671877 0.000000 30.380652 -102.004980 0.000000 66.291429 -59.783885 0.000000 77.834739 -83.484034 0.000000 36.899166 -45.850401 0.000000 11.090713 -79.984798 0.000000 -72.348398 -113.817115 0.000000 -37.174914 14.617889 0.000000 92.319706 124.806932 0.000000 129.911562 103.764922 0.000000 102.607778 66.163789 0.000000 72.630421 21.946960 0.000000 50.226212 82.575594 0.000000 49.594276 80.599167 0.000000 33.640487 42.096925 0.000000 13.131909 -5.134733 0.000000 -53.614478 1.355420 0.000000 8.543042 -29.137522 0.000000 77.106787 -45.289068 0.000000 -54.559548 39.941931 0.000000 156.708187 35.239451 0.000000 -105.050245 57.102463 0.000000 -104.298761 51.654302 0.000000 139.074155 -57.394359 0.000000 -224.014950 -1.445027 0.000000 119.133583 12.097855 0.000000 80.666104 158.195716 0.000000 172.468435 128.683322 0.000000 
61.169947 73.130073 0.000000 250.415096 89.492607 0.000000 125.660541 62.736295 0.000000 109.691528 -82.626699 0.000000 8.504714 -18.814916 0.000000 81.912071 38.223608 0.000000 77.197410 -9.626095 0.000000 130.841638 -12.191916 0.000000 77.941986 -58.755226 0.000000 74.031000 -79.794587 0.000000 162.397811 -34.016732 0.000000 140.353941 139.204173 0.000000 159.438566 -55.040376 0.000000 193.272927 -98.495683 0.000000 133.609042 111.121416 0.000000 72.061936 47.089088 0.000000 79.921395 -58.357750 0.000000 43.687583 164.796094 0.000000 17.820930 101.187686 0.000000 247.706929 -37.954707 0.000000 270.907992 -158.777018 0.000000 118.948164 -141.903243 0.000000 131.851263 -63.459911 0.000000 151.768732 33.430565 0.000000 82.396316 79.158786 0.000000 -42.285441 58.137306 0.000000 -35.530622 53.492092 0.000000 -64.314568 121.344751 0.000000 -83.170617 27.352042 0.000000 -58.687757 -96.972366 0.000000 -20.868693 -85.827848 0.000000 41.302490 -95.445254 0.000000 7.204197 -1.265457 0.000000 45.469634 14.367990 0.000000 17.726575 62.614790 0.000000 -4.269896 13.017240 0.000000 54.390836 -180.235968 0.000000 85.494064 -147.867196 0.000000 141.540353 -101.077492 0.000000 125.039192 -74.307024 0.000000 93.879262 1.237462 0.000000 32.382455 13.914831 0.000000 -42.712205 -28.459287 0.000000 -55.503345 -36.899905 0.000000 36.227108 21.930854 0.000000 71.977476 73.320108 0.000000 47.015732 82.614400 0.000000 69.130512 97.569999 0.000000 8.716377 8.768475 0.000000 93.878186 29.463416 0.000000 19.628360 55.063868 0.000000 85.195199 90.838833 0.000000 -17.619634 65.748475 0.000000 -1.779694 -61.647497 0.000000 -23.922091 26.514637 0.000000 -6.756850 22.569716 0.000000 2.047540 25.708430 0.000000 124.503009 82.363883 0.000000 70.800232 -94.270021 0.000000 214.919117 46.588557 0.000000 -38.787013 241.067645 0.000000 96.275924 -149.542118 0.000000 -37.434560 -20.830984 0.000000 95.698103 68.923116 0.000000 
82.648959 -46.486348 0.000000 152.805747 -115.875664 0.000000 106.170043 89.379829 0.000000 173.616736 28.118804 0.000000 6.566364 -4.672916 0.000000 167.593336 -3.836153 0.000000 44.779445 -48.234860 0.000000 148.413215 -4.352762 0.000000 110.477676 -72.401280 0.000000 118.478252 -73.517334 0.000000 26.165182 -118.654707 0.000000 196.718639 -9.018117 0.000000 226.230420 -15.510724 0.000000 163.153701 -19.500165 0.000000 121.288397 99.217441 0.000000 319.405461 109.116917 0.000000 185.479313 42.258838 0.000000 234.999930 77.611372 0.000000 231.561968 -91.698295 0.000000 233.982372 -152.439067 0.000000 140.425183 25.336065 0.000000 101.053993 61.963251 0.000000 -75.142407 33.280654 0.000000 -29.974873 45.468094 0.000000 -17.461328 85.007143 0.000000 14.060097 69.606203 0.000000 73.662434 -46.980631 0.000000 81.769452 20.198655 0.000000 145.344762 7.226710 0.000000 57.801804 -142.208198 0.000000 45.290148 -124.214128 0.000000 57.288245 -36.241415 0.000000 46.494722 -18.856756 0.000000 100.220158 -45.966857 0.000000 87.516793 24.090340 0.000000 84.252189 -15.477431 0.000000 101.370460 -200.435837 0.000000 69.888733 -189.154498 0.000000 130.412504 -99.329013 0.000000 54.104912 -35.822943 0.000000 -44.521574 46.806336 0.000000 -58.004985 56.606668 0.000000 -56.176712 -25.931315 0.000000 -76.784899 -64.321424 0.000000 -38.675766 -2.673889 0.000000 4.340719 92.976298 0.000000 18.713490 69.010753 0.000000 38.864305 60.246316 0.000000 89.537596 57.827920 0.000000 -2.964550 69.687184 0.000000 19.852790 50.779911 0.000000 69.960600 32.113260 0.000000 70.835295 88.330314 0.000000 62.081539 -22.835065 0.000000 -36.281283 -40.311912 0.000000 87.423991 13.972299 0.000000 -5.988936 -96.020408 0.000000 -68.733965 -11.650229 0.000000 100.049425 -38.761806 0.000000 -152.681521 52.192886 0.000000 224.706965 117.198166 0.000000 85.174974 10.745401 0.000000 218.399733 158.773537 0.000000 34.628240 30.078816 0.000000 
94.822824 -45.047434 0.000000 255.850447 65.971523 0.000000 -117.048586 41.925306 0.000000 284.559359 16.976980 0.000000 18.119942 -12.791515 0.000000 268.998155 0.010527 0.000000 147.443157 9.554027 0.000000 233.975053 -77.890147 0.000000 114.940165 -28.820264 0.000000 195.897882 4.517906 0.000000 55.813316 -112.257118 0.000000 74.930014 -60.861065 0.000000 179.918196 -21.475438 0.000000 97.456950 6.446340 0.000000 174.069193 -45.130344 0.000000 201.274136 -17.101829 0.000000 146.491342 26.047780 0.000000 220.783461 118.713439 0.000000 126.981660 102.205244 0.000000 -55.320700 53.182078 0.000000 -82.168217 -25.848639 0.000000 15.310002 73.664347 0.000000 17.471853 67.568955 0.000000 77.618771 -24.250514 0.000000 81.409607 35.123816 0.000000 95.502204 -32.986457 0.000000 101.743817 -14.217264 0.000000 227.578020 49.662423 0.000000 368.414919 51.319690 0.000000 365.351811 3.082247 0.000000 188.784649 -85.314288 0.000000 207.004706 -96.649828 0.000000 100.760222 -44.197370 0.000000 177.277099 -26.654080 0.000000 28.611512 78.582759 0.000000 169.748793 -0.836427 0.000000 126.640177 -165.872512 0.000000 100.213309 -176.909240 0.000000 53.625659 -85.293671 0.000000 -7.354814 100.627054 0.000000 -35.096888 113.347360 0.000000 49.656366 25.569969 0.000000 25.647360 -9.679373 0.000000 -25.842241 -54.400852 0.000000 1.118633 -59.194764 0.000000 8.917605 15.930853 0.000000 36.055822 48.090814 0.000000 55.201810 26.745892 0.000000 60.922624 50.597329 0.000000 62.766207 99.148222 0.000000 47.240245 -17.861282 0.000000 30.473327 39.856327 0.000000 -32.812703 73.627537 0.000000 25.936691 45.469081 0.000000 -78.890731 1.172184 0.000000 37.128742 -7.722630 0.000000 -25.579372 181.866386 0.000000 35.830745 -23.674478 0.000000 40.824888 -10.322465 0.000000 -152.145923 -78.068983 0.000000 213.889226 3.211149 0.000000 80.021386 -143.234886 0.000000 74.569275 29.715750 0.000000 41.038108 204.673890 0.000000 