# vtk DataFile Version 2.0
Comment goes here
ASCII

DATASET STRUCTURED_POINTS
FIELD FieldData 1
TIME 1 1 double
0.02500000
DIMENSIONS    64   64   1

ORIGIN    0.000   0.000   0.000
SPACING   0.03125 0.03125   1.000

POINT_DATA   4096
VECTORS u double

0.463965 0.007969 0.000000 -0.958518 0.000381 0.000000 0.568026 0.003999 0.000000 -1.006375 -0.001855 0.000000 0.542898 -0.002275 0.000000 -1.001524 -0.003471 0.000000 0.566960 0.004197 0.000000 -0.954459 -0.003048 0.000000 0.534710 0.003396 0.000000 -0.854305 -0.003228 0.000000 0.434219 0.003239 0.000000 -0.689576 -0.003278 0.000000 0.270289 0.002924 0.000000 -0.482560 -0.002980 0.000000 0.074829 0.002466 0.000000 -0.259626 -0.002520 0.000000 -0.130192 0.002394 0.000000 -0.036425 -0.002058 0.000000 -0.328046 0.001641 0.000000 0.157424 -0.001222 0.000000 -0.470129 0.001045 0.000000 0.265600 0.000111 0.000000 -0.519297 -0.000629 0.000000 0.289459 0.000905 0.000000 -0.500752 -0.000434 0.000000 0.262222 0.001123 0.000000 -0.459754 -0.000760 0.000000 0.229792 0.001265 0.000000 -0.426472 -0.000392 0.000000 0.208710 0.000914 0.000000 -0.411397 -0.000157 0.000000 0.209571 0.000575 0.000000 -0.416253 0.000071 0.000000 0.216352 0.000788 0.000000 -0.414586 -0.000284 0.000000 0.210155 0.001008 0.000000 -0.397850 -0.000473 0.000000 0.184433 0.001177 0.000000 -0.352650 -0.000876 0.000000 0.123861 0.001900 0.000000 -0.276775 -0.001410 0.000000 0.045336 0.002159 0.000000 -0.209491 -0.001284 0.000000 0.006514 0.001754 0.000000 -0.209340 -0.000963 0.000000 0.047202 0.002037 0.000000 -0.285114 -0.001130 0.000000 0.134729 0.002210 0.000000 -0.378654 -0.001298 0.000000 0.214912 0.002701 0.000000 -0.453367 -0.001735 0.000000 0.266146 0.002777 0.000000 -0.489970 -0.001790 0.000000 0.263796 0.002750 0.000000 -0.458379 -0.001937 0.000000 0.181971 0.002761 0.000000 -0.344768 -0.002053 0.000000 0.013706 0.002657 0.000000 -0.156276 -0.002021 0.000000 -0.220384 0.002412 0.000000 0.079715 -0.001654 0.000000 -0.494893 0.001631 0.000000 0.343409 0.000026 0.000000 -0.777854 -0.003147 0.000000 
-0.080545 0.099533 0.000000 0.147649 -0.058323 0.000000 -0.163026 0.026747 0.000000 0.193258 0.008494 0.000000 -0.123706 0.004746 0.000000 0.202427 -0.014182 0.000000 -0.197318 -0.022363 0.000000 0.199464 0.013968 0.000000 -0.240590 -0.048450 0.000000 0.175669 0.048137 0.000000 -0.245547 -0.080430 0.000000 0.120032 0.079712 0.000000 -0.212629 -0.101329 0.000000 0.043402 0.095405 0.000000 -0.161335 -0.109342 0.000000 -0.041264 0.100302 0.000000 -0.101505 -0.109759 0.000000 -0.130202 0.097213 0.000000 -0.037812 -0.095902 0.000000 -0.209477 0.069971 0.000000 0.003032 -0.053696 0.000000 -0.245809 0.023931 0.000000 0.002509 -0.012593 0.000000 -0.244079 -0.008589 0.000000 -0.028231 0.012038 0.000000 -0.219145 -0.019546 0.000000 -0.062664 0.014670 0.000000 -0.198030 -0.015673 0.000000 -0.085678 0.009050 0.000000 -0.185656 -0.006873 0.000000 -0.094934 -0.001496 0.000000 -0.189481 0.002504 0.000000 -0.088668 -0.003647 0.000000 -0.198387 -0.001348 0.000000 -0.084495 0.003071 0.000000 -0.201727 -0.008880 0.000000 -0.085384 0.012546 0.000000 -0.197394 -0.022518 0.000000 -0.100424 0.029072 0.000000 -0.172369 -0.036916 0.000000 -0.133546 0.037295 0.000000 -0.135689 -0.032090 0.000000 -0.162664 0.017207 0.000000 -0.120351 0.000981 0.000000 -0.150964 -0.022150 0.000000 -0.152912 0.039041 0.000000 -0.094356 -0.045748 0.000000 -0.209704 0.048086 0.000000 -0.029093 -0.042052 0.000000 -0.260399 0.038814 0.000000 0.027514 -0.027967 0.000000 -0.297995 0.020190 0.000000 0.067940 -0.001413 0.000000 -0.309976 -0.013698 0.000000 0.075784 0.038333 0.000000 -0.281498 -0.054690 0.000000 0.043997 0.081656 0.000000 -0.208516 -0.092150 0.000000 -0.024616 0.114668 0.000000 -0.101799 -0.116004 0.000000 -0.111729 0.135031 0.000000 0.021425 -0.130092 0.000000 -0.201166 0.139483 0.000000 0.128453 -0.059371 0.000000 
0.645828 -0.011228 0.000000 0.390367 0.082862 0.000000 0.408337 -0.041609 0.000000 0.414602 -0.041175 0.000000 0.293395 -0.011444 0.000000 0.425581 0.070142 0.000000 0.413166 0.007159 0.000000 0.404704 0.040224 0.000000 0.533781 0.027191 0.000000 0.354822 0.001729 0.000000 0.669813 0.058876 0.000000 0.266460 -0.036196 0.000000 0.827527 0.079554 0.000000 0.156209 -0.054274 0.000000 0.989832 0.087132 0.000000 0.040684 -0.062350 0.000000 1.147883 0.091332 0.000000 -0.075434 -0.065751 0.000000 1.297346 0.080916 0.000000 -0.176148 -0.042067 0.000000 1.405217 0.037378 0.000000 -0.220206 0.000634 0.000000 1.445089 -0.002360 0.000000 -0.212971 0.031645 0.000000 1.436733 -0.025368 0.000000 -0.178204 0.035556 0.000000 1.414452 -0.021875 0.000000 -0.148423 0.024280 0.000000 1.399462 -0.012765 0.000000 -0.132036 0.010170 0.000000 1.397274 0.003668 0.000000 -0.136177 -0.005691 0.000000 1.410275 0.008978 0.000000 -0.146028 -0.003385 0.000000 1.416785 0.003056 0.000000 -0.147247 0.001897 0.000000 1.412906 -0.004805 0.000000 -0.136562 0.016218 0.000000 1.387797 -0.025901 0.000000 -0.099771 0.035022 0.000000 1.336221 -0.038089 0.000000 -0.048031 0.031277 0.000000 1.285921 -0.016622 0.000000 -0.025431 -0.009946 0.000000 1.282058 0.031598 0.000000 -0.064697 -0.054571 0.000000 1.331214 0.055662 0.000000 -0.138362 -0.063053 0.000000 1.387455 0.049398 0.000000 -0.206064 -0.053907 0.000000 1.426860 0.035861 0.000000 -0.257146 -0.037649 0.000000 1.439863 0.010191 0.000000 -0.275040 -0.005094 0.000000 1.404267 -0.030414 0.000000 -0.240453 0.034547 0.000000 1.308502 -0.075035 0.000000 -0.148044 0.071270 0.000000 1.153586 -0.108737 0.000000 -0.012297 0.089525 0.000000 0.956087 -0.124878 0.000000 0.149222 0.091068 0.000000 0.724338 -0.107002 0.000000 0.314341 -0.123768 0.000000 
1.193921 0.023508 0.000000 -0.043329 0.179169 0.000000 0.912535 0.002513 0.000000 -0.074694 0.123436 0.000000 0.362094 -0.006234 0.000000 -0.087114 -0.133954 0.000000 0.936947 -0.001485 0.000000 -0.076204 -0.106647 0.000000 1.299713 0.001432 0.000000 -0.063100 -0.087895 0.000000 1.542697 0.007932 0.000000 -0.037086 -0.078002 0.000000 1.706691 0.008922 0.000000 -0.004464 -0.066900 0.000000 1.824142 0.006182 0.000000 0.028394 -0.057750 0.000000 1.908908 0.006360 0.000000 0.064080 -0.052250 0.000000 1.965295 0.004812 0.000000 0.097702 -0.037901 0.000000 2.013659 -0.009639 0.000000 0.108444 -0.015941 0.000000 2.069354 -0.019827 0.000000 0.100730 -0.000233 0.000000 2.127717 -0.022729 0.000000 0.083894 0.002736 0.000000 2.175165 -0.015111 0.000000 0.073276 -0.000683 0.000000 2.206868 -0.007337 0.000000 0.068552 -0.004684 0.000000 2.224771 0.002646 0.000000 0.074106 -0.010497 0.000000 2.227975 0.006204 0.000000 0.082107 -0.007858 0.000000 2.229207 0.004290 0.000000 0.086092 -0.005001 0.000000 2.228375 0.001861 0.000000 0.086687 0.002591 0.000000 2.231392 -0.007720 0.000000 0.073302 0.014660 0.000000 2.243373 -0.014445 0.000000 0.049394 0.018210 0.000000 2.251778 -0.005393 0.000000 0.035302 0.004844 0.000000 2.232014 0.017116 0.000000 0.048673 -0.010115 0.000000 2.180905 0.027917 0.000000 0.072902 -0.008155 0.000000 2.120649 0.025651 0.000000 0.090721 -0.000591 0.000000 2.056198 0.023115 0.000000 0.103832 0.007186 0.000000 1.985109 0.016481 0.000000 0.108973 0.021898 0.000000 1.913562 0.003746 0.000000 0.098824 0.041075 0.000000 1.842003 -0.010753 0.000000 0.070912 0.062766 0.000000 1.765801 -0.021079 0.000000 0.029583 0.081496 0.000000 1.670490 -0.026488 0.000000 -0.020339 0.101656 0.000000 1.546309 -0.025637 0.000000 -0.062513 0.019140 0.000000 
1.315344 -0.030412 0.000000 -0.004139 0.364247 0.000000 1.059386 -0.010244 0.000000 -0.014453 0.509267 0.000000 0.582284 0.000976 0.000000 -0.021814 -0.504712 0.000000 1.066624 -0.003750 0.000000 -0.012258 -0.322542 0.000000 1.380310 0.014087 0.000000 -0.001710 -0.241256 0.000000 1.600997 0.032862 0.000000 0.012853 -0.200190 0.000000 1.761689 0.046933 0.000000 0.027784 -0.171725 0.000000 1.884221 0.054273 0.000000 0.040482 -0.147116 0.000000 1.978387 0.055646 0.000000 0.053261 -0.122138 0.000000 2.047335 0.047294 0.000000 0.065710 -0.090430 0.000000 2.102374 0.026636 0.000000 0.068467 -0.055062 0.000000 2.153022 0.005354 0.000000 0.064660 -0.026718 0.000000 2.198242 -0.008532 0.000000 0.058622 -0.011891 0.000000 2.233328 -0.011257 0.000000 0.056667 -0.007423 0.000000 2.257614 -0.008042 0.000000 0.057385 -0.007733 0.000000 2.273208 -0.001886 0.000000 0.062779 -0.008895 0.000000 2.279454 0.000977 0.000000 0.068664 -0.004617 0.000000 2.282350 -0.000929 0.000000 0.072269 0.002729 0.000000 2.281237 -0.005400 0.000000 0.074382 0.013200 0.000000 2.279085 -0.012517 0.000000 0.069297 0.023041 0.000000 2.279063 -0.014181 0.000000 0.058096 0.022873 0.000000 2.276325 -0.002530 0.000000 0.050190 0.009818 0.000000 2.259222 0.018227 0.000000 0.054071 -0.003461 0.000000 2.225448 0.031433 0.000000 0.061209 -0.002798 0.000000 2.184906 0.031579 0.000000 0.063613 0.010545 0.000000 2.137275 0.022750 0.000000 0.064187 0.033440 0.000000 2.079013 0.005051 0.000000 0.062695 0.066454 0.000000 2.012000 -0.020266 0.000000 0.056570 0.106106 0.000000 1.935123 -0.047124 0.000000 0.044976 0.147472 0.000000 1.844904 -0.067408 0.000000 0.029807 0.184836 0.000000 1.732468 -0.074956 0.000000 0.011903 0.215249 0.000000 1.591875 -0.064829 0.000000 -0.008860 0.228620 0.000000 
1.339210 0.018786 0.000000 -0.052819 0.435127 0.000000 1.092564 0.012826 0.000000 -0.065610 0.600538 0.000000 0.768649 0.001127 0.000000 -0.066484 -0.618294 0.000000 1.109375 -0.011041 0.000000 -0.056878 -0.420333 0.000000 1.387101 -0.009117 0.000000 -0.042879 -0.308582 0.000000 1.594800 -0.006631 0.000000 -0.022196 -0.238693 0.000000 1.746959 -0.006010 0.000000 0.003336 -0.189433 0.000000 1.859703 -0.006515 0.000000 0.030550 -0.151915 0.000000 1.943694 -0.006419 0.000000 0.057268 -0.121197 0.000000 2.005952 -0.007637 0.000000 0.079430 -0.092940 0.000000 2.057485 -0.012396 0.000000 0.090270 -0.066589 0.000000 2.106073 -0.016020 0.000000 0.090195 -0.045453 0.000000 2.151030 -0.016691 0.000000 0.084427 -0.032350 0.000000 2.188481 -0.013156 0.000000 0.079302 -0.024970 0.000000 2.215975 -0.008056 0.000000 0.076882 -0.020278 0.000000 2.233616 -0.002748 0.000000 0.078571 -0.016744 0.000000 2.242609 0.000320 0.000000 0.081644 -0.010754 0.000000 2.246803 0.000685 0.000000 0.083301 -0.003888 0.000000 2.248553 -0.000252 0.000000 0.082015 0.004743 0.000000 2.250333 -0.002635 0.000000 0.074801 0.014682 0.000000 2.251812 -0.003244 0.000000 0.064666 0.020948 0.000000 2.247356 0.002513 0.000000 0.059313 0.021948 0.000000 2.227974 0.013235 0.000000 0.064007 0.023659 0.000000 2.191627 0.020778 0.000000 0.074056 0.032387 0.000000 2.144469 0.023247 0.000000 0.082332 0.047039 0.000000 2.089260 0.022540 0.000000 0.086682 0.065448 0.000000 2.027312 0.017974 0.000000 0.085048 0.088911 0.000000 1.960984 0.009871 0.000000 0.074549 0.117952 0.000000 1.889526 0.000840 0.000000 0.054113 0.152985 0.000000 1.807775 -0.005909 0.000000 0.025786 0.193932 0.000000 1.704563 -0.008585 0.000000 -0.006272 0.242248 0.000000 1.561871 -0.004873 0.000000 -0.035767 0.295670 0.000000 
1.461669 -0.013359 0.000000 0.000148 0.610892 0.000000 1.247509 0.002546 0.000000 -0.009981 0.833182 0.000000 0.970074 0.001850 0.000000 -0.010951 -0.845437 0.000000 1.247888 -0.013357 0.000000 -0.004797 -0.600268 0.000000 1.481819 0.000088 0.000000 0.003502 -0.448954 0.000000 1.665196 0.012180 0.000000 0.014942 -0.352350 0.000000 1.807756 0.021400 0.000000 0.028186 -0.284468 0.000000 1.919980 0.027060 0.000000 0.041324 -0.231107 0.000000 2.008133 0.028928 0.000000 0.052803 -0.184396 0.000000 2.075090 0.025132 0.000000 0.061597 -0.141963 0.000000 2.128496 0.015797 0.000000 0.065410 -0.103650 0.000000 2.174009 0.005429 0.000000 0.064533 -0.071675 0.000000 2.211364 -0.002763 0.000000 0.062626 -0.049342 0.000000 2.240869 -0.006132 0.000000 0.062213 -0.034917 0.000000 2.262389 -0.005622 0.000000 0.062933 -0.025375 0.000000 2.276745 -0.003575 0.000000 0.065798 -0.017887 0.000000 2.285317 -0.002097 0.000000 0.068897 -0.008812 0.000000 2.289037 -0.002586 0.000000 0.071084 0.000979 0.000000 2.289767 -0.004114 0.000000 0.071789 0.011420 0.000000 2.289041 -0.005303 0.000000 0.068650 0.021562 0.000000 2.285614 -0.004046 0.000000 0.063990 0.027328 0.000000 2.277879 0.002822 0.000000 0.061161 0.029200 0.000000 2.261337 0.013534 0.000000 0.061608 0.032886 0.000000 2.234381 0.021384 0.000000 0.063373 0.044360 0.000000 2.199544 0.023302 0.000000 0.062550 0.065753 0.000000 2.155561 0.018400 0.000000 0.059117 0.095388 0.000000 2.102505 0.006684 0.000000 0.053902 0.132782 0.000000 2.041453 -0.009766 0.000000 0.046684 0.177564 0.000000 1.971171 -0.026688 0.000000 0.037226 0.229223 0.000000 1.887850 -0.039080 0.000000 0.026006 0.288049 0.000000 1.784457 -0.042899 0.000000 0.013522 0.357940 0.000000 1.650241 -0.035333 0.000000 0.000765 0.451281 0.000000 
1.510106 0.019404 0.000000 -0.033845 0.649287 0.000000 1.337544 0.022955 0.000000 -0.044765 0.877973 0.000000 1.142813 0.002097 0.000000 -0.045711 -0.896108 0.000000 1.339177 -0.017194 0.000000 -0.039488 -0.654264 0.000000 1.527151 -0.017416 0.000000 -0.028150 -0.491960 0.000000 1.684743 -0.018070 0.000000 -0.011319 -0.381253 0.000000 1.810731 -0.019253 0.000000 0.010044 -0.301657 0.000000 1.910465 -0.019654 0.000000 0.033268 -0.240069 0.000000 1.988701 -0.017897 0.000000 0.054430 -0.188154 0.000000 2.047467 -0.016432 0.000000 0.071001 -0.146346 0.000000 2.095440 -0.016209 0.000000 0.080767 -0.112102 0.000000 2.137912 -0.015142 0.000000 0.082881 -0.082808 0.000000 2.173543 -0.014785 0.000000 0.081811 -0.061855 0.000000 2.203222 -0.012743 0.000000 0.080471 -0.046489 0.000000 2.225649 -0.008776 0.000000 0.079273 -0.034634 0.000000 2.241092 -0.005613 0.000000 0.080010 -0.025315 0.000000 2.251437 -0.002779 0.000000 0.081024 -0.014474 0.000000 2.256279 -0.001502 0.000000 0.081496 -0.004618 0.000000 2.258808 -0.000957 0.000000 0.080574 0.005469 0.000000 2.260417 0.000504 0.000000 0.076067 0.018109 0.000000 2.257918 0.001416 0.000000 0.071682 0.028683 0.000000 2.249851 0.005342 0.000000 0.070218 0.038491 0.000000 2.232084 0.012789 0.000000 0.071761 0.050615 0.000000 2.203259 0.019013 0.000000 0.075453 0.067224 0.000000 2.165612 0.024070 0.000000 0.076752 0.091022 0.000000 2.118371 0.025973 0.000000 0.074032 0.118504 0.000000 2.064315 0.023189 0.000000 0.067407 0.149964 0.000000 2.005880 0.017090 0.000000 0.056272 0.188234 0.000000 1.942140 0.010298 0.000000 0.040249 0.236306 0.000000 1.868810 0.005310 0.000000 0.020248 0.297325 0.000000 1.778565 0.003900 0.000000 -0.001525 0.376465 0.000000 1.661916 0.007883 0.000000 -0.021699 0.484242 0.000000 
1.633243 -0.001213 0.000000 0.002756 0.783455 0.000000 1.487425 0.013467 0.000000 -0.003103 1.027913 0.000000 1.326724 0.002795 0.000000 -0.004049 -1.041802 0.000000 1.482235 -0.019579 0.000000 0.000159 -0.788242 0.000000 1.635800 -0.011250 0.000000 0.006561 -0.606546 0.000000 1.770442 -0.004652 0.000000 0.016258 -0.478338 0.000000 1.884103 0.000037 0.000000 0.029439 -0.384202 0.000000 1.979705 0.003836 0.000000 0.044325 -0.309343 0.000000 2.058691 0.007765 0.000000 0.055751 -0.243163 0.000000 2.116093 0.008561 0.000000 0.062909 -0.189936 0.000000 2.162348 0.006031 0.000000 0.067218 -0.146122 0.000000 2.202720 0.003314 0.000000 0.065688 -0.107306 0.000000 2.232141 -0.001693 0.000000 0.065181 -0.079022 0.000000 2.256313 -0.004792 0.000000 0.066740 -0.057344 0.000000 2.274062 -0.004425 0.000000 0.066406 -0.040818 0.000000 2.286043 -0.004312 0.000000 0.068527 -0.028232 0.000000 2.296000 -0.003111 0.000000 0.070334 -0.013654 0.000000 2.298744 -0.003058 0.000000 0.071501 -0.001550 0.000000 2.299908 -0.003192 0.000000 0.072907 0.009812 0.000000 2.301477 -0.000796 0.000000 0.069522 0.024061 0.000000 2.296384 0.000340 0.000000 0.067755 0.035395 0.000000 2.288196 0.004286 0.000000 0.068547 0.046967 0.000000 2.273659 0.011991 0.000000 0.067568 0.061711 0.000000 2.251278 0.017692 0.000000 0.067784 0.082006 0.000000 2.223400 0.022003 0.000000 0.064181 0.112995 0.000000 2.182878 0.021120 0.000000 0.055876 0.149443 0.000000 2.134036 0.013309 0.000000 0.046905 0.191218 0.000000 2.080273 0.001368 0.000000 0.038558 0.241304 0.000000 2.020441 -0.010665 0.000000 0.030446 0.302552 0.000000 1.950967 -0.019079 0.000000 0.022124 0.378294 0.000000 1.866934 -0.021127 0.000000 0.013594 0.474590 0.000000 1.762648 -0.015159 0.000000 0.005931 0.603091 0.000000 
1.698186 0.022579 0.000000 -0.021807 0.795105 0.000000 1.592290 0.028814 0.000000 -0.029320 1.038675 0.000000 1.485712 0.003042 0.000000 -0.030181 -1.051619 0.000000 1.587885 -0.021402 0.000000 -0.026670 -0.807828 0.000000 1.701043 -0.023818 0.000000 -0.018285 -0.626602 0.000000 1.807536 -0.027768 0.000000 -0.004356 -0.494914 0.000000 1.901468 -0.032434 0.000000 0.015369 -0.397259 0.000000 1.983203 -0.034540 0.000000 0.038456 -0.319055 0.000000 2.052947 -0.029324 0.000000 0.056995 -0.245556 0.000000 2.099651 -0.023590 0.000000 0.069691 -0.192601 0.000000 2.138904 -0.020518 0.000000 0.078991 -0.152474 0.000000 2.175981 -0.013612 0.000000 0.078900 -0.112229 0.000000 2.201794 -0.014277 0.000000 0.079332 -0.086028 0.000000 2.225219 -0.014302 0.000000 0.081668 -0.064239 0.000000 2.242007 -0.008442 0.000000 0.079805 -0.046615 0.000000 2.253780 -0.007734 0.000000 0.081042 -0.035273 0.000000 2.265834 -0.004586 0.000000 0.081380 -0.017218 0.000000 2.268209 -0.002669 0.000000 0.081234 -0.005783 0.000000 2.270345 -0.002363 0.000000 0.082569 0.003900 0.000000 2.274330 0.003889 0.000000 0.077236 0.023202 0.000000 2.269506 0.003183 0.000000 0.075408 0.036871 0.000000 2.262133 0.004551 0.000000 0.077868 0.053027 0.000000 2.246969 0.013768 0.000000 0.077114 0.072997 0.000000 2.223869 0.018796 0.000000 0.078812 0.095101 0.000000 2.196568 0.027673 0.000000 0.075426 0.131544 0.000000 2.154318 0.034279 0.000000 0.065525 0.167346 0.000000 2.105846 0.032159 0.000000 0.054280 0.203727 0.000000 2.056317 0.025436 0.000000 0.042643 0.248065 0.000000 2.004547 0.018410 0.000000 0.029857 0.305779 0.000000 1.946794 0.013632 0.000000 0.015679 0.381358 0.000000 1.878590 0.012430 0.000000 0.000966 0.480751 0.000000 1.796012 0.015547 0.000000 -0.012376 0.613647 0.000000 
1.818370 0.008218 0.000000 0.005258 0.889351 0.000000 1.733811 0.020979 0.000000 0.001942 1.134491 0.000000 1.652984 0.003657 0.000000 0.001136 -1.143975 0.000000 1.726225 -0.023090 0.000000 0.002738 -0.901400 0.000000 1.812636 -0.019635 0.000000 0.006580 -0.713040 0.000000 1.898612 -0.018580 0.000000 0.014445 -0.572270 0.000000 1.979688 -0.019688 0.000000 0.029060 -0.465937 0.000000 2.057021 -0.019251 0.000000 0.050595 -0.379088 0.000000 2.130491 -0.010774 0.000000 0.064379 -0.289866 0.000000 2.168062 -0.004135 0.000000 0.067391 -0.229189 0.000000 2.202585 -0.003269 0.000000 0.074752 -0.183199 0.000000 2.241440 0.003405 0.000000 0.066402 -0.133118 0.000000 2.258162 -0.002125 0.000000 0.065327 -0.102447 0.000000 2.278742 -0.007128 0.000000 0.073704 -0.074132 0.000000 2.290885 -0.002562 0.000000 0.067621 -0.052592 0.000000 2.297673 -0.005549 0.000000 0.070845 -0.040285 0.000000 2.313898 -0.003449 0.000000 0.073304 -0.016030 0.000000 2.309891 -0.002912 0.000000 0.071689 -0.003686 0.000000 2.310318 -0.004527 0.000000 0.078253 0.005827 0.000000 2.319826 0.004537 0.000000 0.069201 0.028885 0.000000 2.310257 0.002168 0.000000 0.068409 0.042769 0.000000 2.305564 0.001825 0.000000 0.077805 0.062130 0.000000 2.293260 0.012745 0.000000 0.072211 0.084812 0.000000 2.274072 0.015994 0.000000 0.074892 0.109307 0.000000 2.260156 0.025389 0.000000 0.071209 0.155245 0.000000 2.217999 0.031022 0.000000 0.053632 0.197916 0.000000 2.170245 0.024554 0.000000 0.039125 0.240746 0.000000 2.125112 0.013006 0.000000 0.029797 0.293073 0.000000 2.079268 0.002120 0.000000 0.023338 0.360305 0.000000 2.028301 -0.004900 0.000000 0.017858 0.446498 0.000000 1.968806 -0.006414 0.000000 0.012671 0.557168 0.000000 1.898683 -0.001816 0.000000 0.008175 0.700916 0.000000 
1.890533 0.025496 0.000000 -0.013164 0.879664 0.000000 1.839493 0.032130 0.000000 -0.018105 1.119501 0.000000 1.798186 0.003848 0.000000 -0.018795 -1.124860 0.000000 1.832763 -0.023004 0.000000 -0.018190 -0.894238 0.000000 1.885719 -0.027660 0.000000 -0.013571 -0.712578 0.000000 1.945201 -0.035633 0.000000 -0.003045 -0.575990 0.000000 2.006134 -0.047050 0.000000 0.017021 -0.474592 0.000000 2.069708 -0.056075 0.000000 0.047797 -0.392525 0.000000 2.139320 -0.043108 0.000000 0.067460 -0.283127 0.000000 2.159192 -0.026601 0.000000 0.071667 -0.227123 0.000000 2.185670 -0.027879 0.000000 0.086573 -0.191329 0.000000 2.223573 -0.005263 0.000000 0.074991 -0.128951 0.000000 2.232504 -0.013202 0.000000 0.074047 -0.106608 0.000000 2.254796 -0.022680 0.000000 0.088040 -0.076381 0.000000 2.262285 -0.002359 0.000000 0.077384 -0.053403 0.000000 2.266790 -0.010958 0.000000 0.081781 -0.051498 0.000000 2.289832 -0.007045 0.000000 0.083609 -0.013211 0.000000 2.280071 -0.001055 0.000000 0.079375 -0.006210 0.000000 2.281235 -0.008927 0.000000 0.090535 -0.005607 0.000000 2.295739 0.012941 0.000000 0.075572 0.032771 0.000000 2.283586 0.003975 0.000000 0.073952 0.041564 0.000000 2.283451 -0.004845 0.000000 0.089046 0.065330 0.000000 2.268724 0.019363 0.000000 0.080007 0.092186 0.000000 2.249261 0.016115 0.000000 0.085653 0.109017 0.000000 2.243070 0.031356 0.000000 0.081657 0.173701 0.000000 2.195642 0.051856 0.000000 0.058904 0.215100 0.000000 2.148103 0.046666 0.000000 0.041529 0.248861 0.000000 2.108978 0.034765 0.000000 0.029896 0.293909 0.000000 2.072871 0.024869 0.000000 0.020476 0.356746 0.000000 2.034841 0.019112 0.000000 0.011236 0.440853 0.000000 1.991968 0.017617 0.000000 0.001935 0.550873 0.000000 1.943278 0.020043 0.000000 -0.006560 0.693961 0.000000 
2.004800 0.014823 0.000000 0.007467 0.940392 0.000000 1.970935 0.025919 0.000000 0.005605 1.175798 0.000000 1.949456 0.004347 0.000000 0.005002 -1.178552 0.000000 1.962041 -0.023695 0.000000 0.003345 -0.954356 0.000000 1.993319 -0.024254 0.000000 0.002815 -0.772521 0.000000 2.033815 -0.029106 0.000000 0.005940 -0.633203 0.000000 2.080835 -0.039754 0.000000 0.020844 -0.529511 0.000000 2.141430 -0.050028 0.000000 0.061832 -0.448700 0.000000 2.236658 -0.030437 0.000000 0.088884 -0.309738 0.000000 2.222073 -0.008341 0.000000 0.066671 -0.255667 0.000000 2.241759 -0.018175 0.000000 0.096939 -0.221103 0.000000 2.298497 0.014987 0.000000 0.062272 -0.142048 0.000000 2.280573 -0.001181 0.000000 0.053151 -0.124739 0.000000 2.312782 -0.021121 0.000000 0.097693 -0.081621 0.000000 2.309850 0.008094 0.000000 0.060146 -0.057097 0.000000 2.301488 -0.009947 0.000000 0.069961 -0.063327 0.000000 2.352186 -0.005276 0.000000 0.084513 -0.006269 0.000000 2.315009 0.001322 0.000000 0.062983 -0.004849 0.000000 2.314934 -0.015686 0.000000 0.097033 -0.008678 0.000000 2.353907 0.019500 0.000000 0.063347 0.041039 0.000000 2.319052 0.003788 0.000000 0.056142 0.042904 0.000000 2.334229 -0.013269 0.000000 0.103729 0.076857 0.000000 2.316465 0.021785 0.000000 0.069151 0.104275 0.000000 2.293146 0.010348 0.000000 0.083486 0.115498 0.000000 2.326658 0.029385 0.000000 0.095834 0.202672 0.000000 2.256314 0.053775 0.000000 0.049033 0.245455 0.000000 2.203216 0.041928 0.000000 0.025776 0.279871 0.000000 2.170620 0.024639 0.000000 0.017685 0.329180 0.000000 2.143071 0.011541 0.000000 0.014851 0.398336 0.000000 2.113649 0.004339 0.000000 0.013041 0.489371 0.000000 2.080238 0.002887 0.000000 0.011098 0.605858 0.000000 2.043106 0.006678 0.000000 0.009139 0.753661 0.000000 
2.077991 0.027168 0.000000 -0.006674 0.913529 0.000000 2.071722 0.033992 0.000000 -0.009775 1.140980 0.000000 2.080868 0.004452 0.000000 -0.010246 -1.137445 0.000000 2.063464 -0.021347 0.000000 -0.013097 -0.925517 0.000000 2.066939 -0.027130 0.000000 -0.014221 -0.753074 0.000000 2.083382 -0.038757 0.000000 -0.011250 -0.623009 0.000000 2.110346 -0.061955 0.000000 0.006027 -0.535187 0.000000 2.156343 -0.097063 0.000000 0.063860 -0.487753 0.000000 2.270933 -0.070159 0.000000 0.101548 -0.268543 0.000000 2.210962 -0.004389 0.000000 0.059419 -0.246809 0.000000 2.227497 -0.058147 0.000000 0.120904 -0.248068 0.000000 2.292337 0.029404 0.000000 0.063514 -0.111027 0.000000 2.250742 -0.004081 0.000000 0.047960 -0.138816 0.000000 2.304775 -0.067221 0.000000 0.123929 -0.073449 0.000000 2.279850 0.035188 0.000000 0.060162 -0.045041 0.000000 2.264529 -0.020773 0.000000 0.078699 -0.102196 0.000000 2.346690 -0.021597 0.000000 0.098372 0.023967 0.000000 2.278065 0.020475 0.000000 0.060376 -0.006134 0.000000 2.284734 -0.042978 0.000000 0.122403 -0.044580 0.000000 2.337596 0.046628 0.000000 0.064716 0.067626 0.000000 2.285031 0.011180 0.000000 0.050930 0.026386 0.000000 2.326254 -0.052432 0.000000 0.126995 0.083095 0.000000 2.289331 0.053941 0.000000 0.069410 0.115504 0.000000 2.263722 0.001780 0.000000 0.094731 0.075505 0.000000 2.334284 0.019008 0.000000 0.111500 0.244045 0.000000 2.232834 0.098657 0.000000 0.047802 0.268199 0.000000 2.181283 0.069923 0.000000 0.022650 0.281456 0.000000 2.158793 0.042856 0.000000 0.014475 0.321458 0.000000 2.143105 0.027703 0.000000 0.010547 0.386168 0.000000 2.127237 0.020922 0.000000 0.006604 0.474264 0.000000 2.110003 0.019559 0.000000 0.001999 0.588005 0.000000 2.092556 0.022002 0.000000 -0.002670 0.732267 0.000000 
2.184468 0.018827 0.000000 0.009671 0.946661 0.000000 2.192019 0.029020 0.000000 0.008887 1.166652 0.000000 2.216616 0.004818 0.000000 0.008524 -1.161147 0.000000 2.181908 -0.020844 0.000000 0.003410 -0.957832 0.000000 2.166915 -0.023130 0.000000 -0.003774 -0.788964 0.000000 2.163494 -0.032078 0.000000 -0.013382 -0.660166 0.000000 2.169033 -0.057031 0.000000 -0.015339 -0.575508 0.000000 2.202927 -0.107860 0.000000 0.063602 -0.563290 0.000000 2.442464 -0.068124 0.000000 0.181258 -0.249766 0.000000 2.234353 0.033787 0.000000 0.004235 -0.272202 0.000000 2.260259 -0.079660 0.000000 0.171111 -0.285943 0.000000 2.413400 0.072377 0.000000 0.045174 -0.100453 0.000000 2.252887 0.014373 0.000000 -0.029915 -0.178772 0.000000 2.394543 -0.097089 0.000000 0.213489 -0.056696 0.000000 2.318165 0.071860 0.000000 0.007464 -0.041775 0.000000 2.254868 -0.028483 0.000000 0.041362 -0.145488 0.000000 2.478076 -0.024950 0.000000 0.153511 0.062356 0.000000 2.272127 0.039318 0.000000 -0.007201 -0.011519 0.000000 2.296413 -0.077713 0.000000 0.171357 -0.061539 0.000000 2.447449 0.077187 0.000000 0.046882 0.093603 0.000000 2.274901 0.017574 0.000000 -0.026816 0.001681 0.000000 2.411164 -0.089335 0.000000 0.222197 0.113780 0.000000 2.328478 0.079370 0.000000 0.021625 0.129884 0.000000 2.262255 -0.014974 0.000000 0.069345 0.044936 0.000000 2.503937 0.012615 0.000000 0.202603 0.304122 0.000000 2.266296 0.117473 0.000000 0.019704 0.297006 0.000000 2.216101 0.067081 0.000000 -0.004371 0.302361 0.000000 2.211965 0.032814 0.000000 -0.000450 0.344868 0.000000 2.208903 0.015468 0.000000 0.005002 0.414204 0.000000 2.202530 0.008283 0.000000 0.008243 0.506605 0.000000 2.194376 0.007493 0.000000 0.009608 0.623305 0.000000 2.187093 0.011346 0.000000 0.009911 0.768226 0.000000 
2.254839 0.027407 0.000000 -0.001201 0.905979 0.000000 2.285132 0.034776 0.000000 -0.002717 1.116383 0.000000 2.334251 0.004815 0.000000 -0.002937 -1.102737 0.000000 2.275261 -0.016233 0.000000 -0.008919 -0.910524 0.000000 2.236679 -0.019947 0.000000 -0.017400 -0.749653 0.000000 2.210933 -0.029149 0.000000 -0.031480 -0.628549 0.000000 2.194164 -0.059998 0.000000 -0.048696 -0.569081 0.000000 2.200202 -0.176003 0.000000 -0.002118 -0.727289 0.000000 2.335609 -0.187815 0.000000 0.059975 -0.060432 0.000000 2.171820 0.172634 0.000000 -0.069492 -0.272715 0.000000 2.208291 -0.225023 0.000000 0.072127 -0.401209 0.000000 2.299094 0.155342 0.000000 -0.032704 0.049486 0.000000 2.176911 0.071008 0.000000 -0.069392 -0.280472 0.000000 2.299157 -0.310625 0.000000 0.117864 0.002928 0.000000 2.215328 0.241213 0.000000 -0.054547 0.018256 0.000000 2.182997 -0.054671 0.000000 -0.007703 -0.325404 0.000000 2.361357 -0.133746 0.000000 0.070462 0.229916 0.000000 2.178489 0.181188 0.000000 -0.060363 -0.030421 0.000000 2.225651 -0.221536 0.000000 0.096916 -0.195616 0.000000 2.331706 0.171102 0.000000 -0.017495 0.240174 0.000000 2.187383 0.084878 0.000000 -0.057650 -0.109876 0.000000 2.321320 -0.301444 0.000000 0.146248 0.165781 0.000000 2.228000 0.254513 0.000000 -0.029919 0.181727 0.000000 2.193830 -0.045940 0.000000 0.035181 -0.166177 0.000000 2.416593 -0.114250 0.000000 0.146811 0.481686 0.000000 2.195108 0.281555 0.000000 -0.006097 0.318393 0.000000 2.187723 0.093998 0.000000 -0.015346 0.285593 0.000000 2.203527 0.038935 0.000000 -0.006137 0.324520 0.000000 2.213945 0.022251 0.000000 0.000243 0.392541 0.000000 2.220594 0.017682 0.000000 0.002484 0.482418 0.000000 2.227202 0.018194 0.000000 0.002105 0.595288 0.000000 2.237275 0.021700 0.000000 0.000555 0.734892 0.000000 