# vtk DataFile Version 2.0
Comment goes here
ASCII

DATASET STRUCTURED_POINTS
FIELD FieldData 1
TIME 1 1 double
0.00500000
DIMENSIONS    64   64   1

ORIGIN    0.000   0.000   0.000
SPACING   0.03125 0.03125   1.000

POINT_DATA   4096
VECTORS u double

-0.119912 -0.000046 0.000000 0.052060 0.000086 0.000000 -0.042985 -0.000014 0.000000 0.066851 -0.000023 0.000000 -0.061722 0.000016 0.000000 0.092733 -0.000129 0.000000 -0.102851 0.000137 0.000000 0.132776 -0.000038 0.000000 -0.139163 -0.000018 0.000000 0.161873 0.000074 0.000000 -0.158211 -0.000092 0.000000 0.167846 0.000054 0.000000 -0.150017 -0.000094 0.000000 0.143387 0.000031 0.000000 -0.114847 -0.000132 0.000000 0.105117 0.000303 0.000000 -0.082704 -0.000426 0.000000 0.075522 0.000352 0.000000 -0.057319 -0.000352 0.000000 0.045053 0.000230 0.000000 -0.029662 -0.000006 0.000000 0.015408 -0.001218 0.000000 -0.000928 0.001417 0.000000 -0.015423 -0.000350 0.000000 0.022189 -0.000044 0.000000 -0.040652 -0.000040 0.000000 0.040679 0.000797 0.000000 -0.062529 -0.000841 0.000000 0.058172 0.000096 0.000000 -0.079104 -0.000124 0.000000 0.067733 0.000104 0.000000 -0.089260 -0.000074 0.000000 0.070650 -0.000094 0.000000 -0.093608 0.000151 0.000000 0.070545 -0.000159 0.000000 -0.097860 0.000124 0.000000 0.070960 -0.000159 0.000000 -0.102066 0.000186 0.000000 0.069550 -0.000327 0.000000 -0.103506 0.000342 0.000000 0.064527 -0.000293 0.000000 -0.102111 0.000313 0.000000 0.057989 -0.000394 0.000000 -0.100887 0.000178 0.000000 0.052700 -0.000008 0.000000 -0.100217 0.000063 0.000000 0.045792 -0.000033 0.000000 -0.096093 0.000024 0.000000 0.033978 -0.000107 0.000000 -0.086136 0.000072 0.000000 0.019267 0.000063 0.000000 -0.076932 -0.000130 0.000000 0.006810 0.000172 0.000000 -0.070430 -0.000161 0.000000 -0.003531 0.000083 0.000000 -0.069391 0.000035 0.000000 0.000601 -0.000090 0.000000 -0.085470 0.000080 0.000000 0.009294 -0.000071 0.000000 -0.080762 0.000058 0.000000 -0.026593 -0.000027 0.000000 -0.020773 0.000075 0.000000 -0.114462 -0.000119 0.000000 0.070720 0.000118 0.000000 
-0.075428 0.009257 0.000000 0.209957 -0.038426 0.000000 -0.250320 -0.007417 0.000000 0.224539 0.009296 0.000000 -0.249169 -0.012834 0.000000 0.206402 0.020514 0.000000 -0.209807 -0.019963 0.000000 0.162951 0.018133 0.000000 -0.167464 -0.014511 0.000000 0.119204 0.009515 0.000000 -0.129192 -0.002964 0.000000 0.082433 -0.004169 0.000000 -0.101934 0.012310 0.000000 0.059371 -0.017701 0.000000 -0.087403 0.019246 0.000000 0.041643 -0.016140 0.000000 -0.067023 0.014774 0.000000 0.017049 -0.012746 0.000000 -0.041052 0.015343 0.000000 -0.007422 -0.013947 0.000000 -0.017204 0.014886 0.000000 -0.031142 -0.014078 0.000000 -0.000545 0.014850 0.000000 -0.045785 -0.011245 0.000000 0.019562 0.012509 0.000000 -0.065002 -0.009207 0.000000 0.039462 0.010859 0.000000 -0.077943 -0.009099 0.000000 0.050246 0.008891 0.000000 -0.088509 -0.005319 0.000000 0.059471 0.005490 0.000000 -0.094494 -0.001687 0.000000 0.066184 0.002211 0.000000 -0.098880 0.000008 0.000000 0.071232 0.002135 0.000000 -0.100161 -0.000226 0.000000 0.072559 0.002092 0.000000 -0.098572 0.000750 0.000000 0.072989 0.000467 0.000000 -0.096820 0.002859 0.000000 0.073966 -0.001039 0.000000 -0.095272 0.003561 0.000000 0.074128 -0.000727 0.000000 -0.091805 0.002524 0.000000 0.071714 -0.000296 0.000000 -0.084797 0.003483 0.000000 0.067194 -0.002116 0.000000 -0.076936 0.006029 0.000000 0.061920 -0.005134 0.000000 -0.068573 0.007344 0.000000 0.055328 -0.004506 0.000000 -0.057730 0.006091 0.000000 0.047964 -0.003156 0.000000 -0.047468 0.005132 0.000000 0.042730 -0.000529 0.000000 -0.037008 -0.002042 0.000000 0.030309 0.007991 0.000000 -0.015887 -0.004290 0.000000 0.014261 -0.002422 0.000000 -0.005990 0.018013 0.000000 0.024163 -0.030067 0.000000 -0.025636 0.044013 0.000000 0.056585 -0.045844 0.000000 -0.043506 0.002877 0.000000 
0.076614 -0.253509 0.000000 0.106692 0.174979 0.000000 -0.068818 -0.014596 0.000000 0.115750 -0.001174 0.000000 -0.050783 0.018153 0.000000 0.093950 -0.039491 0.000000 -0.024012 0.043588 0.000000 0.055790 -0.042380 0.000000 0.022855 0.043729 0.000000 0.020220 -0.038198 0.000000 0.064831 0.036678 0.000000 -0.003362 -0.027205 0.000000 0.089548 0.022969 0.000000 -0.007561 -0.014500 0.000000 0.094727 0.017596 0.000000 -0.004206 -0.020077 0.000000 0.104188 0.024169 0.000000 -0.009967 -0.025619 0.000000 0.118927 0.024119 0.000000 -0.015320 -0.023618 0.000000 0.130018 0.023714 0.000000 -0.020832 -0.017878 0.000000 0.136682 0.016060 0.000000 -0.022072 -0.020457 0.000000 0.146003 0.019172 0.000000 -0.026444 -0.019940 0.000000 0.155486 0.013738 0.000000 -0.028744 -0.011625 0.000000 0.159006 0.010663 0.000000 -0.030118 -0.009349 0.000000 0.163338 0.006089 0.000000 -0.031322 -0.006787 0.000000 0.168358 0.004292 0.000000 -0.033839 -0.004897 0.000000 0.172698 0.001121 0.000000 -0.033905 -0.001203 0.000000 0.173699 -0.001748 0.000000 -0.031839 -0.000245 0.000000 0.174142 -0.002078 0.000000 -0.030658 -0.000636 0.000000 0.175959 -0.001842 0.000000 -0.030605 0.000151 0.000000 0.177157 -0.003860 0.000000 -0.028668 0.002592 0.000000 0.175056 -0.007016 0.000000 -0.024148 0.004583 0.000000 0.171861 -0.007893 0.000000 -0.020417 0.005298 0.000000 0.169713 -0.008470 0.000000 -0.018919 0.006664 0.000000 0.167074 -0.010780 0.000000 -0.015275 0.007234 0.000000 0.161990 -0.010090 0.000000 -0.010725 0.005073 0.000000 0.156417 -0.010377 0.000000 -0.003530 0.012456 0.000000 0.138421 -0.021211 0.000000 0.018966 0.016128 0.000000 0.113304 -0.009968 0.000000 0.027625 -0.009844 0.000000 0.120236 0.019619 0.000000 -0.003770 -0.032346 0.000000 0.162618 0.017752 0.000000 -0.048155 0.132130 0.000000 
0.049905 -0.145590 0.000000 -0.094259 0.107006 0.000000 0.078461 -0.016475 0.000000 -0.079292 -0.008738 0.000000 -0.060316 0.008966 0.000000 -0.060823 -0.006258 0.000000 0.028234 0.018197 0.000000 -0.037261 -0.028734 0.000000 0.079590 0.021059 0.000000 -0.019285 -0.032461 0.000000 0.113733 0.020619 0.000000 -0.007533 -0.028886 0.000000 0.142023 0.016509 0.000000 -0.005218 -0.022880 0.000000 0.170251 0.015891 0.000000 -0.006030 -0.025602 0.000000 0.187652 0.020535 0.000000 -0.001400 -0.027485 0.000000 0.196606 0.020696 0.000000 0.003202 -0.025038 0.000000 0.203536 0.020398 0.000000 0.008393 -0.020741 0.000000 0.211686 0.016089 0.000000 0.008704 -0.020567 0.000000 0.214799 0.016881 0.000000 0.013076 -0.018690 0.000000 0.215309 0.013159 0.000000 0.014779 -0.012619 0.000000 0.219180 0.010265 0.000000 0.016135 -0.009650 0.000000 0.221670 0.006694 0.000000 0.015862 -0.006708 0.000000 0.223512 0.004727 0.000000 0.016060 -0.004332 0.000000 0.224371 0.002201 0.000000 0.015420 -0.001227 0.000000 0.225961 0.000025 0.000000 0.013907 0.000307 0.000000 0.226434 -0.000714 0.000000 0.013190 0.001041 0.000000 0.224959 -0.001092 0.000000 0.013597 0.002363 0.000000 0.222356 -0.002663 0.000000 0.013485 0.004626 0.000000 0.219674 -0.004816 0.000000 0.012021 0.006678 0.000000 0.216397 -0.005847 0.000000 0.010895 0.008177 0.000000 0.211407 -0.006631 0.000000 0.010220 0.009984 0.000000 0.205066 -0.008151 0.000000 0.008513 0.011175 0.000000 0.196447 -0.007706 0.000000 0.008192 0.010705 0.000000 0.182476 -0.007724 0.000000 0.008794 0.015954 0.000000 0.169851 -0.014504 0.000000 0.001236 0.020827 0.000000 0.155385 -0.011081 0.000000 0.002138 0.011081 0.000000 0.112616 0.001328 0.000000 0.029453 0.001630 0.000000 0.030798 -0.001459 0.000000 0.072379 0.088882 0.000000 
0.093656 -0.086872 0.000000 -0.055462 0.146423 0.000000 0.088118 -0.029562 0.000000 -0.049574 0.137602 0.000000 -0.036684 -0.000316 0.000000 -0.040294 -0.128041 0.000000 0.062634 0.020026 0.000000 -0.028834 -0.093737 0.000000 0.113084 0.025752 0.000000 -0.019732 -0.072341 0.000000 0.144822 0.024927 0.000000 -0.012971 -0.055495 0.000000 0.168694 0.020653 0.000000 -0.010243 -0.042728 0.000000 0.189632 0.018408 0.000000 -0.008636 -0.037478 0.000000 0.202951 0.019538 0.000000 -0.004047 -0.034573 0.000000 0.210696 0.019517 0.000000 0.000238 -0.030548 0.000000 0.216657 0.018523 0.000000 0.004642 -0.026027 0.000000 0.222552 0.015749 0.000000 0.006375 -0.023570 0.000000 0.225376 0.014801 0.000000 0.009904 -0.020450 0.000000 0.226531 0.012035 0.000000 0.011841 -0.015496 0.000000 0.229287 0.009306 0.000000 0.013170 -0.011840 0.000000 0.231286 0.006362 0.000000 0.013346 -0.008629 0.000000 0.232870 0.004094 0.000000 0.013562 -0.005755 0.000000 0.233802 0.001762 0.000000 0.013200 -0.002793 0.000000 0.234920 -0.000235 0.000000 0.012329 -0.000718 0.000000 0.235223 -0.001362 0.000000 0.011851 0.000840 0.000000 0.234231 -0.002249 0.000000 0.011957 0.002754 0.000000 0.232350 -0.003749 0.000000 0.011754 0.005274 0.000000 0.230143 -0.005551 0.000000 0.010794 0.007860 0.000000 0.227289 -0.006767 0.000000 0.009892 0.010288 0.000000 0.223200 -0.007796 0.000000 0.009144 0.013005 0.000000 0.217926 -0.009072 0.000000 0.007866 0.015853 0.000000 0.210689 -0.009769 0.000000 0.007645 0.019044 0.000000 0.199418 -0.010978 0.000000 0.008428 0.025081 0.000000 0.187694 -0.013653 0.000000 0.004762 0.030594 0.000000 0.174456 -0.010870 0.000000 0.004563 0.032925 0.000000 0.146004 -0.007696 0.000000 0.016788 0.049472 0.000000 0.095065 -0.025174 0.000000 0.036483 0.113024 0.000000 
0.083445 -0.053646 0.000000 -0.037626 0.112544 0.000000 0.070411 -0.022363 0.000000 -0.044932 0.116063 0.000000 0.014428 -0.000314 0.000000 -0.044709 -0.105576 0.000000 0.062632 0.006737 0.000000 -0.031593 -0.079184 0.000000 0.101127 0.011957 0.000000 -0.020117 -0.064198 0.000000 0.130719 0.013858 0.000000 -0.011799 -0.052759 0.000000 0.154966 0.013781 0.000000 -0.007455 -0.043818 0.000000 0.175710 0.014283 0.000000 -0.004885 -0.038921 0.000000 0.190754 0.015946 0.000000 -0.001385 -0.035230 0.000000 0.200806 0.016411 0.000000 0.002261 -0.030999 0.000000 0.208217 0.015994 0.000000 0.005697 -0.026636 0.000000 0.214303 0.014356 0.000000 0.007825 -0.023391 0.000000 0.218060 0.013352 0.000000 0.010395 -0.019845 0.000000 0.220389 0.011222 0.000000 0.012142 -0.015376 0.000000 0.222961 0.008936 0.000000 0.013285 -0.011650 0.000000 0.225002 0.006518 0.000000 0.013684 -0.008292 0.000000 0.226500 0.004511 0.000000 0.013821 -0.005264 0.000000 0.227439 0.002564 0.000000 0.013516 -0.002345 0.000000 0.228140 0.000896 0.000000 0.012869 0.000005 0.000000 0.228092 -0.000236 0.000000 0.012387 0.002032 0.000000 0.226967 -0.001198 0.000000 0.012180 0.004244 0.000000 0.224963 -0.002460 0.000000 0.011763 0.006832 0.000000 0.222344 -0.003857 0.000000 0.010876 0.009532 0.000000 0.218906 -0.004945 0.000000 0.009929 0.012267 0.000000 0.214198 -0.005883 0.000000 0.009002 0.015257 0.000000 0.207984 -0.006872 0.000000 0.007862 0.018412 0.000000 0.199703 -0.007485 0.000000 0.007014 0.021976 0.000000 0.188568 -0.008507 0.000000 0.006142 0.027678 0.000000 0.175410 -0.010839 0.000000 0.004012 0.034066 0.000000 0.157793 -0.010882 0.000000 0.005233 0.039533 0.000000 0.129265 -0.010897 0.000000 0.011950 0.052569 0.000000 0.094019 -0.021153 0.000000 0.010792 0.090291 0.000000 
0.115926 -0.038454 0.000000 -0.023939 0.159458 0.000000 0.091853 -0.022256 0.000000 -0.029707 0.193585 0.000000 0.036517 -0.000540 0.000000 -0.029641 -0.176245 0.000000 0.088944 0.006910 0.000000 -0.023595 -0.132232 0.000000 0.128020 0.014276 0.000000 -0.017812 -0.101933 0.000000 0.156234 0.016609 0.000000 -0.013032 -0.079742 0.000000 0.177616 0.016309 0.000000 -0.009734 -0.063471 0.000000 0.194512 0.015839 0.000000 -0.006973 -0.052523 0.000000 0.206630 0.016037 0.000000 -0.003581 -0.044624 0.000000 0.214921 0.015872 0.000000 -0.000178 -0.037959 0.000000 0.221015 0.015087 0.000000 0.003009 -0.032113 0.000000 0.225796 0.013620 0.000000 0.005372 -0.027327 0.000000 0.228919 0.012231 0.000000 0.007775 -0.022780 0.000000 0.231000 0.010287 0.000000 0.009557 -0.018068 0.000000 0.233013 0.008163 0.000000 0.010753 -0.013880 0.000000 0.234645 0.005963 0.000000 0.011341 -0.010127 0.000000 0.235898 0.003957 0.000000 0.011615 -0.006695 0.000000 0.236721 0.002066 0.000000 0.011532 -0.003494 0.000000 0.237271 0.000412 0.000000 0.011198 -0.000670 0.000000 0.237250 -0.000880 0.000000 0.010888 0.001965 0.000000 0.236443 -0.002042 0.000000 0.010695 0.004757 0.000000 0.234939 -0.003332 0.000000 0.010357 0.007893 0.000000 0.232844 -0.004664 0.000000 0.009706 0.011298 0.000000 0.230025 -0.005820 0.000000 0.008953 0.014996 0.000000 0.226192 -0.006869 0.000000 0.008155 0.019219 0.000000 0.221084 -0.007933 0.000000 0.007251 0.024134 0.000000 0.214258 -0.008921 0.000000 0.006621 0.030179 0.000000 0.205125 -0.010106 0.000000 0.006093 0.038239 0.000000 0.194093 -0.011523 0.000000 0.004720 0.048210 0.000000 0.179947 -0.012091 0.000000 0.004550 0.061453 0.000000 0.159075 -0.014413 0.000000 0.006506 0.084718 0.000000 0.132747 -0.024016 0.000000 0.003779 0.123598 0.000000 
0.119390 -0.025928 0.000000 -0.021317 0.136616 0.000000 0.104726 -0.016595 0.000000 -0.029163 0.171399 0.000000 0.080821 -0.000380 0.000000 -0.029308 -0.158003 0.000000 0.106535 0.000691 0.000000 -0.024212 -0.118260 0.000000 0.131354 0.006174 0.000000 -0.017768 -0.092412 0.000000 0.152873 0.009078 0.000000 -0.012088 -0.074140 0.000000 0.171215 0.010483 0.000000 -0.007916 -0.060714 0.000000 0.186643 0.011522 0.000000 -0.004683 -0.051038 0.000000 0.198643 0.012555 0.000000 -0.001547 -0.043521 0.000000 0.207465 0.013008 0.000000 0.001478 -0.037093 0.000000 0.214060 0.012807 0.000000 0.004234 -0.031417 0.000000 0.219087 0.011993 0.000000 0.006438 -0.026514 0.000000 0.222606 0.010949 0.000000 0.008452 -0.021927 0.000000 0.225101 0.009441 0.000000 0.010020 -0.017389 0.000000 0.227148 0.007739 0.000000 0.011085 -0.013281 0.000000 0.228756 0.005930 0.000000 0.011680 -0.009545 0.000000 0.229931 0.004237 0.000000 0.011931 -0.006086 0.000000 0.230640 0.002647 0.000000 0.011862 -0.002895 0.000000 0.230964 0.001230 0.000000 0.011578 0.000026 0.000000 0.230727 0.000074 0.000000 0.011225 0.002839 0.000000 0.229760 -0.001005 0.000000 0.010890 0.005748 0.000000 0.228099 -0.002122 0.000000 0.010431 0.008927 0.000000 0.225750 -0.003205 0.000000 0.009719 0.012351 0.000000 0.222606 -0.004192 0.000000 0.008879 0.016100 0.000000 0.218422 -0.005086 0.000000 0.007937 0.020365 0.000000 0.212902 -0.005968 0.000000 0.006873 0.025238 0.000000 0.205752 -0.006855 0.000000 0.005826 0.031109 0.000000 0.196633 -0.007979 0.000000 0.004721 0.038710 0.000000 0.185390 -0.009465 0.000000 0.003441 0.048212 0.000000 0.171053 -0.010712 0.000000 0.002908 0.060405 0.000000 0.152554 -0.012853 0.000000 0.002333 0.078897 0.000000 0.132889 -0.018426 0.000000 -0.003766 0.107113 0.000000 
0.145453 -0.020904 0.000000 -0.014562 0.174122 0.000000 0.126699 -0.014410 0.000000 -0.020060 0.217489 0.000000 0.101252 -0.000394 0.000000 -0.020171 -0.201959 0.000000 0.128666 0.001814 0.000000 -0.018103 -0.157050 0.000000 0.153836 0.007832 0.000000 -0.014893 -0.123453 0.000000 0.174483 0.010929 0.000000 -0.011614 -0.098084 0.000000 0.191024 0.012137 0.000000 -0.008686 -0.078899 0.000000 0.204175 0.012607 0.000000 -0.005936 -0.064523 0.000000 0.214136 0.012901 0.000000 -0.003125 -0.053446 0.000000 0.221343 0.012847 0.000000 -0.000377 -0.044554 0.000000 0.226686 0.012331 0.000000 0.002198 -0.037141 0.000000 0.230697 0.011416 0.000000 0.004330 -0.030846 0.000000 0.233504 0.010217 0.000000 0.006268 -0.025274 0.000000 0.235538 0.008719 0.000000 0.007857 -0.020115 0.000000 0.237121 0.007098 0.000000 0.008945 -0.015488 0.000000 0.238381 0.005369 0.000000 0.009649 -0.011302 0.000000 0.239356 0.003706 0.000000 0.010025 -0.007404 0.000000 0.239913 0.002135 0.000000 0.010115 -0.003817 0.000000 0.240191 0.000696 0.000000 0.010042 -0.000433 0.000000 0.240064 -0.000527 0.000000 0.009808 0.002931 0.000000 0.239352 -0.001706 0.000000 0.009577 0.006418 0.000000 0.238117 -0.002873 0.000000 0.009273 0.010242 0.000000 0.236270 -0.003952 0.000000 0.008718 0.014441 0.000000 0.233775 -0.004980 0.000000 0.008058 0.019181 0.000000 0.230458 -0.005927 0.000000 0.007271 0.024739 0.000000 0.225961 -0.006869 0.000000 0.006361 0.031284 0.000000 0.220132 -0.007874 0.000000 0.005494 0.039298 0.000000 0.212732 -0.009001 0.000000 0.004602 0.049482 0.000000 0.203605 -0.010243 0.000000 0.003468 0.062547 0.000000 0.192155 -0.011558 0.000000 0.002401 0.079952 0.000000 0.177582 -0.013838 0.000000 0.000909 0.104384 0.000000 0.160954 -0.017917 0.000000 -0.003775 0.137097 0.000000 
0.156456 -0.015142 0.000000 -0.014807 0.155370 0.000000 0.148154 -0.011096 0.000000 -0.019985 0.196847 0.000000 0.140092 -0.000269 0.000000 -0.020112 -0.185417 0.000000 0.151411 -0.001378 0.000000 -0.018185 -0.143429 0.000000 0.164909 0.002964 0.000000 -0.014658 -0.113059 0.000000 0.178213 0.005798 0.000000 -0.010868 -0.090682 0.000000 0.190381 0.007555 0.000000 -0.007437 -0.073865 0.000000 0.201006 0.008773 0.000000 -0.004383 -0.060999 0.000000 0.209710 0.009743 0.000000 -0.001597 -0.050728 0.000000 0.216351 0.010260 0.000000 0.000966 -0.042436 0.000000 0.221470 0.010233 0.000000 0.003323 -0.035429 0.000000 0.225380 0.009860 0.000000 0.005241 -0.029320 0.000000 0.228176 0.009010 0.000000 0.006956 -0.023960 0.000000 0.230260 0.007852 0.000000 0.008401 -0.018972 0.000000 0.231775 0.006652 0.000000 0.009357 -0.014540 0.000000 0.232942 0.005225 0.000000 0.010018 -0.010521 0.000000 0.233830 0.003861 0.000000 0.010359 -0.006643 0.000000 0.234227 0.002557 0.000000 0.010424 -0.003173 0.000000 0.234349 0.001303 0.000000 0.010355 0.000152 0.000000 0.234091 0.000308 0.000000 0.010045 0.003552 0.000000 0.233247 -0.000773 0.000000 0.009723 0.006983 0.000000 0.231924 -0.001819 0.000000 0.009350 0.010774 0.000000 0.229950 -0.002650 0.000000 0.008689 0.014846 0.000000 0.227346 -0.003532 0.000000 0.007930 0.019417 0.000000 0.223981 -0.004298 0.000000 0.006993 0.024862 0.000000 0.219450 -0.005058 0.000000 0.005865 0.031067 0.000000 0.213769 -0.005989 0.000000 0.004697 0.038509 0.000000 0.206822 -0.007087 0.000000 0.003473 0.047836 0.000000 0.198464 -0.008332 0.000000 0.002120 0.059662 0.000000 0.188470 -0.009645 0.000000 0.000619 0.074978 0.000000 0.177001 -0.011361 0.000000 -0.001765 0.095525 0.000000 0.165614 -0.013741 0.000000 -0.006789 0.122614 0.000000 
0.178215 -0.012886 0.000000 -0.010511 0.182424 0.000000 0.168177 -0.009231 0.000000 -0.014211 0.225551 0.000000 0.158761 -0.000267 0.000000 -0.014305 -0.213278 0.000000 0.170670 -0.000113 0.000000 -0.013754 -0.170549 0.000000 0.184194 0.004304 0.000000 -0.012047 -0.136756 0.000000 0.196847 0.007140 0.000000 -0.009845 -0.110252 0.000000 0.207830 0.008706 0.000000 -0.007459 -0.089523 0.000000 0.217031 0.009552 0.000000 -0.004959 -0.073228 0.000000 0.224400 0.010115 0.000000 -0.002602 -0.060087 0.000000 0.229630 0.010284 0.000000 -0.000400 -0.049673 0.000000 0.233690 0.009973 0.000000 0.001829 -0.041051 0.000000 0.236803 0.009498 0.000000 0.003483 -0.033642 0.000000 0.238863 0.008503 0.000000 0.005112 -0.027358 0.000000 0.240525 0.007274 0.000000 0.006659 -0.021631 0.000000 0.241552 0.006142 0.000000 0.007519 -0.016655 0.000000 0.242400 0.004708 0.000000 0.008286 -0.012190 0.000000 0.243235 0.003365 0.000000 0.008722 -0.007800 0.000000 0.243382 0.002070 0.000000 0.008862 -0.003939 0.000000 0.243517 0.000764 0.000000 0.009046 -0.000175 0.000000 0.243464 -0.000216 0.000000 0.008727 0.003775 0.000000 0.242784 -0.001384 0.000000 0.008530 0.007742 0.000000 0.241909 -0.002500 0.000000 0.008441 0.012216 0.000000 0.240342 -0.003290 0.000000 0.007834 0.017045 0.000000 0.238348 -0.004221 0.000000 0.007290 0.022545 0.000000 0.235905 -0.004991 0.000000 0.006509 0.029270 0.000000 0.232167 -0.005740 0.000000 0.005428 0.036966 0.000000 0.227578 -0.006706 0.000000 0.004392 0.046245 0.000000 0.222063 -0.007777 0.000000 0.003351 0.057840 0.000000 0.215438 -0.008890 0.000000 0.002148 0.072542 0.000000 0.207479 -0.010057 0.000000 0.000673 0.091420 0.000000 0.198136 -0.011454 0.000000 -0.001490 0.115771 0.000000 0.188042 -0.012893 0.000000 -0.005197 0.146255 0.000000 
0.192638 -0.009827 0.000000 -0.011158 0.165408 0.000000 0.191285 -0.007396 0.000000 -0.014352 0.206263 0.000000 0.192955 -0.000174 0.000000 -0.014449 -0.197326 0.000000 0.194148 -0.001928 0.000000 -0.013758 -0.156953 0.000000 0.198687 0.001257 0.000000 -0.011810 -0.125713 0.000000 0.204700 0.003597 0.000000 -0.009291 -0.101665 0.000000 0.211098 0.005170 0.000000 -0.006582 -0.083066 0.000000 0.217292 0.006272 0.000000 -0.003812 -0.068368 0.000000 0.222844 0.007386 0.000000 -0.001421 -0.055958 0.000000 0.226761 0.008058 0.000000 0.000659 -0.046495 0.000000 0.230089 0.008004 0.000000 0.002852 -0.038542 0.000000 0.232786 0.008206 0.000000 0.004249 -0.031381 0.000000 0.234460 0.007381 0.000000 0.005730 -0.025622 0.000000 0.235987 0.006304 0.000000 0.007270 -0.020000 0.000000 0.236751 0.005792 0.000000 0.007924 -0.015388 0.000000 0.237407 0.004458 0.000000 0.008676 -0.011355 0.000000 0.238219 0.003426 0.000000 0.009066 -0.006790 0.000000 0.238087 0.002417 0.000000 0.009118 -0.003308 0.000000 0.238114 0.001119 0.000000 0.009375 0.000206 0.000000 0.238040 0.000627 0.000000 0.008877 0.004231 0.000000 0.237215 -0.000577 0.000000 0.008606 0.007858 0.000000 0.236399 -0.001729 0.000000 0.008559 0.012341 0.000000 0.234779 -0.002044 0.000000 0.007757 0.016840 0.000000 0.232847 -0.002988 0.000000 0.007158 0.021860 0.000000 0.230708 -0.003517 0.000000 0.006241 0.028600 0.000000 0.227147 -0.003977 0.000000 0.004895 0.035656 0.000000 0.223051 -0.004952 0.000000 0.003621 0.044025 0.000000 0.218420 -0.006046 0.000000 0.002355 0.054461 0.000000 0.213171 -0.007128 0.000000 0.000944 0.067620 0.000000 0.207356 -0.008169 0.000000 -0.000789 0.084322 0.000000 0.201361 -0.009199 0.000000 -0.003220 0.105619 0.000000 0.196106 -0.010034 0.000000 -0.006800 0.132440 0.000000 
0.211173 -0.008528 0.000000 -0.008087 0.183777 0.000000 0.209008 -0.006037 0.000000 -0.010472 0.223881 0.000000 0.209796 -0.000170 0.000000 -0.010545 -0.214471 0.000000 0.211078 -0.000804 0.000000 -0.010560 -0.175088 0.000000 0.215438 0.002356 0.000000 -0.009695 -0.142769 0.000000 0.220894 0.004621 0.000000 -0.008261 -0.116650 0.000000 0.226425 0.005997 0.000000 -0.006348 -0.095718 0.000000 0.231725 0.006782 0.000000 -0.003838 -0.078780 0.000000 0.236805 0.007723 0.000000 -0.001923 -0.064004 0.000000 0.239091 0.008204 0.000000 -0.000450 -0.053000 0.000000 0.241642 0.007780 0.000000 0.002035 -0.043748 0.000000 0.243961 0.008102 0.000000 0.002661 -0.035316 0.000000 0.244621 0.007022 0.000000 0.004036 -0.028885 0.000000 0.246147 0.005734 0.000000 0.006150 -0.022395 0.000000 0.246163 0.005488 0.000000 0.006185 -0.017311 0.000000 0.246433 0.003955 0.000000 0.007254 -0.013002 0.000000 0.247799 0.002976 0.000000 0.007714 -0.007668 0.000000 0.246864 0.002018 0.000000 0.007565 -0.003966 0.000000 0.247031 0.000507 0.000000 0.008553 -0.000101 0.000000 0.247488 0.000282 0.000000 0.007524 0.004599 0.000000 0.246412 -0.001114 0.000000 0.007376 0.008558 0.000000 0.246393 -0.002454 0.000000 0.008126 0.013836 0.000000 0.244841 -0.002488 0.000000 0.006888 0.018978 0.000000 0.243368 -0.003621 0.000000 0.006757 0.024683 0.000000 0.242646 -0.004074 0.000000 0.006047 0.032832 0.000000 0.239224 -0.004394 0.000000 0.004449 0.041062 0.000000 0.235949 -0.005432 0.000000 0.003293 0.050876 0.000000 0.232502 -0.006511 0.000000 0.002263 0.063089 0.000000 0.228600 -0.007479 0.000000 0.001098 0.078357 0.000000 0.224184 -0.008325 0.000000 -0.000368 0.097415 0.000000 0.219433 -0.009023 0.000000 -0.002339 0.121026 0.000000 0.214859 -0.009313 0.000000 -0.005004 0.149722 0.000000 
0.226687 -0.006744 0.000000 -0.008679 0.167574 0.000000 0.231369 -0.005012 0.000000 -0.010685 0.205475 0.000000 0.239909 -0.000102 0.000000 -0.010758 -0.198608 0.000000 0.233560 -0.001913 0.000000 -0.010586 -0.161313 0.000000 0.231007 0.000391 0.000000 -0.009532 -0.131169 0.000000 0.230816 0.002163 0.000000 -0.007904 -0.107196 0.000000 0.232026 0.003256 0.000000 -0.005789 -0.088367 0.000000 0.234228 0.003762 0.000000 -0.002864 -0.073448 0.000000 0.237613 0.005472 0.000000 -0.000931 -0.058244 0.000000 0.237763 0.006585 0.000000 0.000238 -0.049047 0.000000 0.239342 0.005519 0.000000 0.003179 -0.040861 0.000000 0.241214 0.007580 0.000000 0.003172 -0.032040 0.000000 0.240891 0.006007 0.000000 0.004442 -0.027149 0.000000 0.242478 0.004190 0.000000 0.007029 -0.020016 0.000000 0.241833 0.005757 0.000000 0.006393 -0.015658 0.000000 0.241716 0.003389 0.000000 0.007696 -0.012722 0.000000 0.243553 0.002966 0.000000 0.008111 -0.005855 0.000000 0.241789 0.002566 0.000000 0.007606 -0.003475 0.000000 0.241981 0.000131 0.000000 0.009149 -0.000251 0.000000 0.242738 0.001656 0.000000 0.007481 0.005307 0.000000 0.241173 -0.000429 0.000000 0.007264 0.007877 0.000000 0.241680 -0.002479 0.000000 0.008524 0.013894 0.000000 0.239919 -0.000806 0.000000 0.006623 0.018313 0.000000 0.238553 -0.002857 0.000000 0.006700 0.022582 0.000000 0.238859 -0.002807 0.000000 0.005918 0.032022 0.000000 0.235376 -0.002379 0.000000 0.003854 0.038930 0.000000 0.232866 -0.003796 0.000000 0.002537 0.047472 0.000000 0.230635 -0.005017 0.000000 0.001381 0.058363 0.000000 0.228443 -0.005963 0.000000 0.000089 0.072036 0.000000 0.226417 -0.006703 0.000000 -0.001499 0.089072 0.000000 0.224975 -0.007228 0.000000 -0.003524 0.110193 0.000000 0.224801 -0.007369 0.000000 -0.006030 0.136125 0.000000 
0.242603 -0.005879 0.000000 -0.006367 0.179094 0.000000 0.246873 -0.004031 0.000000 -0.007940 0.215342 0.000000 0.254883 -0.000098 0.000000 -0.007995 -0.208122 0.000000 0.248418 -0.000975 0.000000 -0.008245 -0.172535 0.000000 0.245597 0.001301 0.000000 -0.007912 -0.142578 0.000000 0.244873 0.002994 0.000000 -0.007157 -0.117860 0.000000 0.245257 0.003881 0.000000 -0.005834 -0.097919 0.000000 0.246648 0.003857 0.000000 -0.002127 -0.082164 0.000000 0.251999 0.005791 0.000000 -0.000800 -0.064155 0.000000 0.248287 0.007035 0.000000 -0.001514 -0.054579 0.000000 0.249831 0.004839 0.000000 0.004094 -0.045619 0.000000 0.252773 0.008109 0.000000 0.001094 -0.034993 0.000000 0.249513 0.005752 0.000000 0.002215 -0.030471 0.000000 0.253281 0.003146 0.000000 0.007720 -0.021751 0.000000 0.250514 0.006124 0.000000 0.003819 -0.017194 0.000000 0.249373 0.002652 0.000000 0.006823 -0.014839 0.000000 0.254661 0.002562 0.000000 0.007320 -0.005904 0.000000 0.249241 0.002523 0.000000 0.005128 -0.004158 0.000000 0.250260 -0.001037 0.000000 0.010071 -0.000858 0.000000 0.253037 0.001950 0.000000 0.005442 0.006164 0.000000 0.248981 -0.000896 0.000000 0.005321 0.008051 0.000000 0.252413 -0.003714 0.000000 0.009796 0.015596 0.000000 0.249254 -0.000587 0.000000 0.004837 0.020344 0.000000 0.247639 -0.003699 0.000000 0.006797 0.024378 0.000000 0.252086 -0.003292 0.000000 0.006475 0.036315 0.000000 0.246129 -0.002330 0.000000 0.003029 0.043571 0.000000 0.244491 -0.004116 0.000000 0.002067 0.053107 0.000000 0.243394 -0.005355 0.000000 0.001310 0.065281 0.000000 0.242273 -0.006186 0.000000 0.000349 0.080383 0.000000 0.241218 -0.006737 0.000000 -0.000905 0.098857 0.000000 0.240548 -0.006998 0.000000 -0.002493 0.121200 0.000000 0.240780 -0.006807 0.000000 -0.004393 0.147836 0.000000 
0.257929 -0.004771 0.000000 -0.006845 0.163303 0.000000 0.267584 -0.003439 0.000000 -0.008157 0.197466 0.000000 0.281332 -0.000046 0.000000 -0.008212 -0.192144 0.000000 0.269186 -0.001663 0.000000 -0.008296 -0.158491 0.000000 0.260977 0.000058 0.000000 -0.007826 -0.130446 0.000000 0.255540 0.001408 0.000000 -0.007006 -0.107579 0.000000 0.251968 0.001933 0.000000 -0.005807 -0.089758 0.000000 0.249991 0.000054 0.000000 -0.002616 -0.078799 0.000000 0.252213 0.004145 0.000000 -0.001407 -0.054532 0.000000 0.247338 0.007299 0.000000 -0.001960 -0.050591 0.000000 0.247423 -0.000088 0.000000 0.002984 -0.043803 0.000000 0.248974 0.010580 0.000000 0.000531 -0.028780 0.000000 0.245417 0.004886 0.000000 0.001547 -0.030918 0.000000 0.248166 -0.001316 0.000000 0.006279 -0.017248 0.000000 0.245407 0.009658 0.000000 0.002919 -0.014517 0.000000 0.244077 0.000385 0.000000 0.005560 -0.018010 0.000000 0.248365 0.002469 0.000000 0.005990 -0.000434 0.000000 0.243528 0.004759 0.000000 0.004045 -0.004495 0.000000 0.244307 -0.004812 0.000000 0.008307 -0.003028 0.000000 0.246594 0.006284 0.000000 0.004322 0.009363 0.000000 0.243058 -0.000308 0.000000 0.004155 0.004445 0.000000 0.246165 -0.006955 0.000000 0.007891 0.017053 0.000000 0.243672 0.004153 0.000000 0.003510 0.019929 0.000000 0.242588 -0.004817 0.000000 0.005191 0.018135 0.000000 0.246936 -0.002485 0.000000 0.004930 0.037979 0.000000 0.242623 0.001067 0.000000 0.002065 0.040568 0.000000 0.242402 -0.002834 0.000000 0.001292 0.048569 0.000000 0.242810 -0.004260 0.000000 0.000542 0.059485 0.000000 0.243545 -0.005002 0.000000 -0.000471 0.073091 0.000000 0.244889 -0.005449 0.000000 -0.001770 0.089742 0.000000 0.247315 -0.005639 0.000000 -0.003346 0.109961 0.000000 0.251428 -0.005470 0.000000 -0.005117 0.134303 0.000000 