# vtk DataFile Version 2.0
Comment goes here
ASCII

DATASET STRUCTURED_POINTS
FIELD FieldData 1
TIME 1 1 double
0.04300000
DIMENSIONS    64   64   1

ORIGIN    0.000   0.000   0.000
SPACING   0.03125 0.03125   1.000

POINT_DATA   4096
VECTORS u double

0.687199 -0.002116 0.000000 -1.208029 -0.000836 0.000000 0.379292 -0.002311 0.000000 -1.085282 0.002770 0.000000 0.149170 0.001020 0.000000 -0.983124 0.002898 0.000000 0.197129 -0.002668 0.000000 -0.906001 0.002770 0.000000 0.244860 -0.002078 0.000000 -0.881979 0.002543 0.000000 0.285313 -0.001858 0.000000 -0.850432 0.002160 0.000000 0.270263 -0.001307 0.000000 -0.757640 0.001592 0.000000 0.172297 -0.000434 0.000000 -0.596062 0.000922 0.000000 0.013522 0.000663 0.000000 -0.404901 0.000404 0.000000 -0.154991 0.001458 0.000000 -0.225648 -0.000024 0.000000 -0.297762 0.002499 0.000000 -0.086987 -0.000871 0.000000 -0.391718 0.002346 0.000000 0.005100 0.000393 0.000000 -0.450807 0.003244 0.000000 0.074575 0.000296 0.000000 -0.503673 0.003729 0.000000 0.144704 0.000176 0.000000 -0.560355 0.004068 0.000000 0.213913 0.000160 0.000000 -0.612782 0.004041 0.000000 0.271980 -0.000045 0.000000 -0.656413 0.004209 0.000000 0.317427 -0.000177 0.000000 -0.691245 0.004289 0.000000 0.349058 -0.000107 0.000000 -0.717995 0.004432 0.000000 0.377926 -0.000213 0.000000 -0.755624 0.004581 0.000000 0.414561 -0.000291 0.000000 -0.792827 0.004222 0.000000 0.435137 0.000430 0.000000 -0.803371 0.003301 0.000000 0.422511 0.001208 0.000000 -0.780604 0.003202 0.000000 0.376659 0.001394 0.000000 -0.725318 0.002976 0.000000 0.301165 0.001547 0.000000 -0.641800 0.002458 0.000000 0.197426 0.001729 0.000000 -0.535304 0.002057 0.000000 0.069171 0.001713 0.000000 -0.410153 0.001770 0.000000 -0.081740 0.001365 0.000000 -0.267756 0.001538 0.000000 -0.256207 0.000868 0.000000 -0.104158 0.001254 0.000000 -0.462714 0.000500 0.000000 0.084148 0.001026 0.000000 -0.699716 0.000243 0.000000 0.284585 0.000795 0.000000 -0.946577 -0.000066 0.000000 0.471948 -0.000446 0.000000 -1.185358 0.004899 0.000000 
-0.609280 0.010406 0.000000 0.374224 0.156777 0.000000 -0.257082 -0.063408 0.000000 0.293129 0.116901 0.000000 -0.022511 -0.056228 0.000000 0.235957 -0.022533 0.000000 -0.165700 -0.040491 0.000000 0.179094 -0.022758 0.000000 -0.265894 -0.013957 0.000000 0.160475 -0.019536 0.000000 -0.338090 -0.017403 0.000000 0.138508 0.007819 0.000000 -0.364538 -0.047856 0.000000 0.084125 0.048851 0.000000 -0.338701 -0.082032 0.000000 -0.006098 0.078546 0.000000 -0.275702 -0.096296 0.000000 -0.109757 0.082857 0.000000 -0.205954 -0.090319 0.000000 -0.206267 0.069447 0.000000 -0.147660 -0.069843 0.000000 -0.282426 0.044787 0.000000 -0.113408 -0.046271 0.000000 -0.334845 0.026532 0.000000 -0.093626 -0.035185 0.000000 -0.378297 0.022841 0.000000 -0.072103 -0.035104 0.000000 -0.424079 0.024255 0.000000 -0.045480 -0.034718 0.000000 -0.470533 0.022096 0.000000 -0.018827 -0.029047 0.000000 -0.509302 0.017756 0.000000 0.004934 -0.022714 0.000000 -0.540112 0.013327 0.000000 0.026225 -0.015770 0.000000 -0.560806 0.009170 0.000000 0.042740 -0.014442 0.000000 -0.576245 0.014633 0.000000 0.065757 -0.018253 0.000000 -0.594046 0.014537 0.000000 0.088185 -0.010301 0.000000 -0.599633 0.001349 0.000000 0.092994 0.005993 0.000000 -0.584421 -0.014414 0.000000 0.077199 0.021681 0.000000 -0.547331 -0.030179 0.000000 0.042369 0.036212 0.000000 -0.493771 -0.043931 0.000000 -0.007574 0.050394 0.000000 -0.424185 -0.055070 0.000000 -0.068241 0.062621 0.000000 -0.340259 -0.063880 0.000000 -0.135667 0.073786 0.000000 -0.243290 -0.071738 0.000000 -0.207802 0.085445 0.000000 -0.135016 -0.081792 0.000000 -0.284091 0.101639 0.000000 -0.012578 -0.094020 0.000000 -0.363818 0.117406 0.000000 0.123366 -0.100378 0.000000 -0.437876 0.123095 0.000000 0.260318 -0.094189 0.000000 -0.492033 0.120225 0.000000 0.395193 -0.109891 0.000000 
0.767943 0.018853 0.000000 0.599487 -0.353033 0.000000 0.794248 0.078784 0.000000 0.504087 -0.231801 0.000000 0.604420 0.058192 0.000000 0.417972 0.146087 0.000000 0.989100 0.054194 0.000000 0.396355 0.102964 0.000000 1.218823 0.016542 0.000000 0.389125 0.074739 0.000000 1.371651 0.020109 0.000000 0.368258 0.028608 0.000000 1.514941 0.053077 0.000000 0.302444 -0.024246 0.000000 1.684939 0.089788 0.000000 0.189812 -0.062077 0.000000 1.874393 0.104323 0.000000 0.063530 -0.069343 0.000000 2.051948 0.097967 0.000000 -0.048476 -0.058318 0.000000 2.199129 0.078658 0.000000 -0.127362 -0.035124 0.000000 2.304553 0.054765 0.000000 -0.167870 -0.019388 0.000000 2.376884 0.046696 0.000000 -0.193249 -0.021228 0.000000 2.440554 0.049510 0.000000 -0.220659 -0.026447 0.000000 2.502305 0.050523 0.000000 -0.250868 -0.026493 0.000000 2.555301 0.042810 0.000000 -0.276130 -0.023806 0.000000 2.596078 0.035019 0.000000 -0.298515 -0.021469 0.000000 2.624520 0.024983 0.000000 -0.317070 -0.016621 0.000000 2.639714 0.019870 0.000000 -0.339593 -0.023230 0.000000 2.658527 0.022383 0.000000 -0.372321 -0.022719 0.000000 2.674059 0.009809 0.000000 -0.394205 -0.004379 0.000000 2.665880 -0.011911 0.000000 -0.390421 0.017003 0.000000 2.631831 -0.033888 0.000000 -0.361119 0.036224 0.000000 2.571605 -0.050584 0.000000 -0.310698 0.051491 0.000000 2.487065 -0.067128 0.000000 -0.240534 0.062396 0.000000 2.379612 -0.081869 0.000000 -0.155752 0.069138 0.000000 2.250060 -0.095199 0.000000 -0.059170 0.073501 0.000000 2.097057 -0.106736 0.000000 0.048490 0.077157 0.000000 1.915314 -0.121185 0.000000 0.174266 0.080227 0.000000 1.697650 -0.134918 0.000000 0.318141 0.074302 0.000000 1.446628 -0.136157 0.000000 0.469659 0.054091 0.000000 1.166526 -0.135321 0.000000 0.629597 0.122146 0.000000 
2.572901 0.040516 0.000000 -0.068637 0.130472 0.000000 1.780689 0.031993 0.000000 -0.100278 0.306728 0.000000 0.845177 0.029887 0.000000 -0.044504 -0.407212 0.000000 1.868694 -0.018874 0.000000 -0.018656 -0.252482 0.000000 2.484132 -0.006727 0.000000 -0.014911 -0.172364 0.000000 2.912514 0.003464 0.000000 -0.008391 -0.135471 0.000000 3.218906 0.017958 0.000000 0.016586 -0.121147 0.000000 3.434520 0.030599 0.000000 0.060428 -0.110908 0.000000 3.586176 0.029986 0.000000 0.108168 -0.094698 0.000000 3.701346 0.021687 0.000000 0.148639 -0.077733 0.000000 3.795683 0.009044 0.000000 0.175608 -0.060636 0.000000 3.880909 -0.005764 0.000000 0.186541 -0.045800 0.000000 3.954303 -0.009806 0.000000 0.193408 -0.040829 0.000000 4.007728 -0.007694 0.000000 0.203860 -0.037496 0.000000 4.043004 -0.004509 0.000000 0.217242 -0.030899 0.000000 4.066165 -0.003785 0.000000 0.228816 -0.023021 0.000000 4.080628 -0.000329 0.000000 0.239700 -0.015115 0.000000 4.086156 0.002785 0.000000 0.248063 -0.006024 0.000000 4.085826 0.008082 0.000000 0.256315 -0.004179 0.000000 4.070499 0.014474 0.000000 0.269896 -0.000996 0.000000 4.042938 0.011583 0.000000 0.278747 0.009528 0.000000 4.014335 0.002209 0.000000 0.277531 0.019635 0.000000 3.984094 -0.007621 0.000000 0.266509 0.030047 0.000000 3.948241 -0.014209 0.000000 0.249702 0.040609 0.000000 3.902462 -0.019771 0.000000 0.227246 0.052383 0.000000 3.841969 -0.022160 0.000000 0.201425 0.065672 0.000000 3.762503 -0.022796 0.000000 0.173931 0.081265 0.000000 3.660526 -0.022215 0.000000 0.145668 0.099951 0.000000 3.531833 -0.024137 0.000000 0.111996 0.123644 0.000000 3.369963 -0.026469 0.000000 0.068211 0.150643 0.000000 3.158794 -0.028423 0.000000 0.014862 0.185914 0.000000 2.871885 -0.039713 0.000000 -0.064537 0.288692 0.000000 
2.568453 0.022953 0.000000 0.025225 0.439178 0.000000 1.957130 0.110426 0.000000 -0.031449 0.703711 0.000000 1.205420 0.002418 0.000000 -0.005395 -0.877430 0.000000 2.009602 0.028346 0.000000 -0.008927 -0.512473 0.000000 2.554954 0.012796 0.000000 0.005334 -0.353643 0.000000 2.948807 0.013589 0.000000 0.026468 -0.277784 0.000000 3.241957 0.028100 0.000000 0.056333 -0.239859 0.000000 3.461768 0.045947 0.000000 0.093335 -0.213732 0.000000 3.628531 0.056583 0.000000 0.127654 -0.184514 0.000000 3.758150 0.057496 0.000000 0.155392 -0.152655 0.000000 3.860441 0.051689 0.000000 0.173982 -0.120350 0.000000 3.943040 0.043832 0.000000 0.180935 -0.092782 0.000000 4.008388 0.039829 0.000000 0.184949 -0.074652 0.000000 4.055715 0.039058 0.000000 0.189626 -0.061724 0.000000 4.088813 0.037142 0.000000 0.194985 -0.049654 0.000000 4.111760 0.031236 0.000000 0.199380 -0.038269 0.000000 4.127839 0.024135 0.000000 0.204504 -0.026996 0.000000 4.137339 0.016620 0.000000 0.210192 -0.016291 0.000000 4.142555 0.011618 0.000000 0.217705 -0.007903 0.000000 4.138148 0.008803 0.000000 0.227654 0.004842 0.000000 4.121871 0.000957 0.000000 0.235316 0.024224 0.000000 4.098718 -0.010695 0.000000 0.236791 0.047244 0.000000 4.067025 -0.022866 0.000000 0.231511 0.072077 0.000000 4.023786 -0.033777 0.000000 0.221671 0.097270 0.000000 3.967182 -0.044672 0.000000 0.206665 0.122889 0.000000 3.894156 -0.056048 0.000000 0.189065 0.148604 0.000000 3.801804 -0.067706 0.000000 0.171011 0.175478 0.000000 3.687917 -0.078472 0.000000 0.153975 0.205849 0.000000 3.548278 -0.087513 0.000000 0.135713 0.242097 0.000000 3.376119 -0.091133 0.000000 0.114466 0.285470 0.000000 3.157993 -0.082808 0.000000 0.087027 0.341000 0.000000 2.877554 -0.055922 0.000000 0.036854 0.421129 0.000000 
2.654315 0.052145 0.000000 -0.051770 0.741795 0.000000 2.148198 0.088667 0.000000 -0.055045 1.058438 0.000000 1.545798 0.003833 0.000000 -0.058219 -1.211394 0.000000 2.139608 -0.015341 0.000000 -0.029133 -0.797835 0.000000 2.636645 -0.020988 0.000000 -0.010404 -0.566216 0.000000 3.012565 -0.017671 0.000000 0.008908 -0.428621 0.000000 3.294432 -0.011907 0.000000 0.036800 -0.340958 0.000000 3.504868 -0.006404 0.000000 0.073229 -0.277671 0.000000 3.661977 -0.004333 0.000000 0.111445 -0.224317 0.000000 3.779669 -0.006050 0.000000 0.145772 -0.180024 0.000000 3.871685 -0.009547 0.000000 0.171894 -0.143235 0.000000 3.947327 -0.012717 0.000000 0.188711 -0.111148 0.000000 4.006296 -0.013820 0.000000 0.201756 -0.088156 0.000000 4.050299 -0.012371 0.000000 0.214335 -0.070594 0.000000 4.081686 -0.009867 0.000000 0.226707 -0.053846 0.000000 4.102763 -0.008181 0.000000 0.237456 -0.039101 0.000000 4.116707 -0.005453 0.000000 0.245970 -0.024615 0.000000 4.123188 -0.002903 0.000000 0.253120 -0.011240 0.000000 4.123757 0.000569 0.000000 0.259686 0.000228 0.000000 4.116458 0.004525 0.000000 0.265791 0.015282 0.000000 4.098689 0.003921 0.000000 0.269655 0.032681 0.000000 4.074297 0.000734 0.000000 0.268480 0.051328 0.000000 4.043699 -0.002341 0.000000 0.261222 0.073287 0.000000 4.004201 -0.004369 0.000000 0.248733 0.097213 0.000000 3.953995 -0.004765 0.000000 0.230051 0.125409 0.000000 3.888804 -0.004560 0.000000 0.206468 0.158024 0.000000 3.806189 -0.004743 0.000000 0.179133 0.195152 0.000000 3.704257 -0.005178 0.000000 0.148388 0.239590 0.000000 3.579312 -0.005875 0.000000 0.112986 0.295802 0.000000 3.424543 -0.005223 0.000000 0.071803 0.368770 0.000000 3.228370 -0.000983 0.000000 0.025465 0.466353 0.000000 2.976009 0.010459 0.000000 -0.024695 0.597793 0.000000 
2.753134 0.050028 0.000000 0.033112 0.945296 0.000000 2.354201 0.113700 0.000000 0.009839 1.306111 0.000000 1.878273 0.005592 0.000000 0.006579 -1.471240 0.000000 2.326166 -0.000740 0.000000 0.010505 -1.009510 0.000000 2.732478 -0.005934 0.000000 0.021235 -0.729564 0.000000 3.058914 -0.005723 0.000000 0.040221 -0.559651 0.000000 3.315488 0.000208 0.000000 0.067057 -0.450295 0.000000 3.517316 0.009518 0.000000 0.098831 -0.370841 0.000000 3.676922 0.018367 0.000000 0.128920 -0.302206 0.000000 3.799486 0.023169 0.000000 0.154033 -0.244671 0.000000 3.895472 0.025567 0.000000 0.171931 -0.195992 0.000000 3.973529 0.027015 0.000000 0.181315 -0.151751 0.000000 4.030905 0.026784 0.000000 0.187865 -0.118655 0.000000 4.073678 0.026479 0.000000 0.193531 -0.093110 0.000000 4.106042 0.024770 0.000000 0.198287 -0.070732 0.000000 4.127656 0.020487 0.000000 0.203505 -0.052212 0.000000 4.143458 0.015621 0.000000 0.208721 -0.033478 0.000000 4.152080 0.009470 0.000000 0.214856 -0.016860 0.000000 4.155097 0.005052 0.000000 0.221574 -0.000604 0.000000 4.153151 0.002698 0.000000 0.226555 0.022611 0.000000 4.139144 -0.002906 0.000000 0.230718 0.048616 0.000000 4.117402 -0.009520 0.000000 0.231801 0.077842 0.000000 4.088863 -0.015608 0.000000 0.227502 0.111575 0.000000 4.048235 -0.021288 0.000000 0.219256 0.147475 0.000000 3.996072 -0.025990 0.000000 0.205327 0.188080 0.000000 3.927894 -0.032465 0.000000 0.187321 0.231219 0.000000 3.841068 -0.040371 0.000000 0.168064 0.277410 0.000000 3.735991 -0.047728 0.000000 0.149108 0.330794 0.000000 3.610457 -0.052111 0.000000 0.130013 0.396866 0.000000 3.458855 -0.049950 0.000000 0.109377 0.481644 0.000000 3.272472 -0.036469 0.000000 0.085074 0.593361 0.000000 3.041276 -0.005763 0.000000 0.054637 0.742823 0.000000 
2.903261 0.073670 0.000000 -0.011509 1.140728 0.000000 2.574237 0.111939 0.000000 -0.018921 1.534366 0.000000 2.192534 0.007094 0.000000 -0.022155 -1.659287 0.000000 2.523253 -0.019268 0.000000 -0.010949 -1.204147 0.000000 2.862513 -0.031718 0.000000 0.004411 -0.892653 0.000000 3.152935 -0.036656 0.000000 0.024773 -0.685195 0.000000 3.387614 -0.038743 0.000000 0.052526 -0.542785 0.000000 3.574538 -0.038177 0.000000 0.086184 -0.437277 0.000000 3.722711 -0.034422 0.000000 0.119905 -0.346882 0.000000 3.831544 -0.031163 0.000000 0.150561 -0.276010 0.000000 3.916000 -0.027445 0.000000 0.174411 -0.221292 0.000000 3.987106 -0.022100 0.000000 0.189892 -0.168524 0.000000 4.037143 -0.020371 0.000000 0.202967 -0.130929 0.000000 4.075257 -0.018036 0.000000 0.214702 -0.102958 0.000000 4.104405 -0.014624 0.000000 0.224978 -0.075460 0.000000 4.123108 -0.013399 0.000000 0.234866 -0.054902 0.000000 4.137288 -0.010669 0.000000 0.242561 -0.033238 0.000000 4.142078 -0.009038 0.000000 0.250443 -0.014257 0.000000 4.141758 -0.006149 0.000000 0.257134 0.002174 0.000000 4.139151 -0.000456 0.000000 0.259242 0.029289 0.000000 4.123899 -0.000242 0.000000 0.260653 0.054423 0.000000 4.102418 -0.000349 0.000000 0.259144 0.079867 0.000000 4.075873 0.001958 0.000000 0.252037 0.113916 0.000000 4.039316 0.003877 0.000000 0.240347 0.149375 0.000000 3.994063 0.009165 0.000000 0.220891 0.193587 0.000000 3.932631 0.013446 0.000000 0.196064 0.244850 0.000000 3.854992 0.014514 0.000000 0.168290 0.300229 0.000000 3.762747 0.013778 0.000000 0.138864 0.365124 0.000000 3.653828 0.013221 0.000000 0.107872 0.447404 0.000000 3.522565 0.015413 0.000000 0.075062 0.555152 0.000000 3.360700 0.023320 0.000000 0.041051 0.697549 0.000000 3.158426 0.040897 0.000000 0.008854 0.885936 0.000000 
3.047634 0.070392 0.000000 0.047160 1.274319 0.000000 2.791036 0.121112 0.000000 0.033410 1.687815 0.000000 2.498272 0.008826 0.000000 0.030308 -1.801960 0.000000 2.737876 -0.011946 0.000000 0.029846 -1.348769 0.000000 2.998877 -0.021293 0.000000 0.035820 -1.019987 0.000000 3.237346 -0.026085 0.000000 0.050773 -0.794330 0.000000 3.441327 -0.027544 0.000000 0.075762 -0.637220 0.000000 3.613634 -0.024140 0.000000 0.108164 -0.519013 0.000000 3.759708 -0.015354 0.000000 0.138810 -0.411039 0.000000 3.866092 -0.007486 0.000000 0.162877 -0.329127 0.000000 3.948018 0.001717 0.000000 0.179882 -0.267099 0.000000 4.022191 0.011534 0.000000 0.186550 -0.201788 0.000000 4.067283 0.013709 0.000000 0.192697 -0.156770 0.000000 4.101766 0.014744 0.000000 0.199071 -0.122258 0.000000 4.132726 0.014493 0.000000 0.201592 -0.089434 0.000000 4.149159 0.010599 0.000000 0.206810 -0.066392 0.000000 4.165240 0.007927 0.000000 0.212121 -0.038268 0.000000 4.171865 0.001587 0.000000 0.218477 -0.016540 0.000000 4.172986 -0.001639 0.000000 0.225693 0.002003 0.000000 4.178692 0.000589 0.000000 0.226319 0.037864 0.000000 4.164446 -0.004317 0.000000 0.229006 0.070097 0.000000 4.143874 -0.008011 0.000000 0.231666 0.104387 0.000000 4.122610 -0.008501 0.000000 0.226948 0.148132 0.000000 4.084935 -0.009599 0.000000 0.220823 0.192728 0.000000 4.040590 -0.006534 0.000000 0.207443 0.249512 0.000000 3.979224 -0.007637 0.000000 0.186064 0.308858 0.000000 3.897880 -0.012597 0.000000 0.162691 0.369655 0.000000 3.804541 -0.018302 0.000000 0.141113 0.439714 0.000000 3.699512 -0.021120 0.000000 0.121813 0.528129 0.000000 3.577921 -0.017139 0.000000 0.103375 0.643509 0.000000 3.433311 -0.002458 0.000000 0.084166 0.795635 0.000000 3.259072 0.026434 0.000000 0.064037 0.997988 0.000000 
3.214890 0.090547 0.000000 0.016023 1.397327 0.000000 3.011909 0.125689 0.000000 0.010421 1.827130 0.000000 2.786848 0.010195 0.000000 0.007566 -1.898891 0.000000 2.953182 -0.018806 0.000000 0.009710 -1.465148 0.000000 3.155670 -0.037692 0.000000 0.018904 -1.131121 0.000000 3.353682 -0.051609 0.000000 0.036289 -0.889176 0.000000 3.530202 -0.063732 0.000000 0.064200 -0.715092 0.000000 3.684499 -0.070580 0.000000 0.100736 -0.583352 0.000000 3.821000 -0.065068 0.000000 0.136465 -0.453266 0.000000 3.908219 -0.055230 0.000000 0.165488 -0.357936 0.000000 3.975283 -0.044451 0.000000 0.186723 -0.295464 0.000000 4.045588 -0.028768 0.000000 0.195802 -0.213616 0.000000 4.080192 -0.026518 0.000000 0.206124 -0.165412 0.000000 4.109734 -0.024410 0.000000 0.217681 -0.133918 0.000000 4.136152 -0.017144 0.000000 0.223892 -0.091893 0.000000 4.148029 -0.018617 0.000000 0.232601 -0.070983 0.000000 4.165660 -0.015980 0.000000 0.239489 -0.039862 0.000000 4.165586 -0.015394 0.000000 0.248457 -0.015378 0.000000 4.163044 -0.013365 0.000000 0.257304 -0.003532 0.000000 4.172579 -0.001082 0.000000 0.253816 0.043535 0.000000 4.156304 -0.002930 0.000000 0.254297 0.074994 0.000000 4.137768 -0.003009 0.000000 0.255724 0.101131 0.000000 4.118631 0.006676 0.000000 0.247580 0.151591 0.000000 4.085037 0.010003 0.000000 0.238058 0.193720 0.000000 4.050461 0.022544 0.000000 0.217697 0.254954 0.000000 3.991821 0.034824 0.000000 0.188856 0.326194 0.000000 3.917433 0.037887 0.000000 0.157791 0.393568 0.000000 3.837249 0.035356 0.000000 0.128415 0.470153 0.000000 3.750289 0.032521 0.000000 0.101293 0.568995 0.000000 3.650612 0.033851 0.000000 0.075647 0.699762 0.000000 3.531745 0.042529 0.000000 0.051407 0.871788 0.000000 3.388027 0.061025 0.000000 0.030417 1.097373 0.000000 
3.373269 0.084786 0.000000 0.059677 1.477300 0.000000 3.225210 0.126714 0.000000 0.052902 1.912876 0.000000 3.066525 0.011682 0.000000 0.050297 -1.968294 0.000000 3.169124 -0.014090 0.000000 0.045009 -1.551257 0.000000 3.309623 -0.030488 0.000000 0.044864 -1.217999 0.000000 3.459578 -0.043470 0.000000 0.053625 -0.970849 0.000000 3.604048 -0.055455 0.000000 0.077323 -0.791516 0.000000 3.741629 -0.060676 0.000000 0.118484 -0.655515 0.000000 3.880160 -0.051083 0.000000 0.162570 -0.498259 0.000000 3.956966 -0.036509 0.000000 0.181865 -0.396191 0.000000 4.011676 -0.019518 0.000000 0.197648 -0.337403 0.000000 4.094385 0.002455 0.000000 0.195745 -0.236392 0.000000 4.114649 0.003387 0.000000 0.196718 -0.186311 0.000000 4.136074 0.003187 0.000000 0.210531 -0.148676 0.000000 4.170516 0.008282 0.000000 0.203439 -0.101311 0.000000 4.172586 0.001890 0.000000 0.206441 -0.084023 0.000000 4.195711 0.001039 0.000000 0.217632 -0.038194 0.000000 4.196438 -0.007382 0.000000 0.221308 -0.013998 0.000000 4.189718 -0.010485 0.000000 0.232716 -0.007533 0.000000 4.219729 0.004077 0.000000 0.226055 0.054138 0.000000 4.196833 -0.004799 0.000000 0.225898 0.088634 0.000000 4.175029 -0.009437 0.000000 0.239001 0.123524 0.000000 4.170507 -0.000357 0.000000 0.227850 0.181726 0.000000 4.130976 -0.000076 0.000000 0.224961 0.227304 0.000000 4.103111 0.013827 0.000000 0.220105 0.308153 0.000000 4.047887 0.021203 0.000000 0.188753 0.383245 0.000000 3.964628 0.018469 0.000000 0.154504 0.449839 0.000000 3.883795 0.011073 0.000000 0.128554 0.526674 0.000000 3.804566 0.006003 0.000000 0.110219 0.627806 0.000000 3.718882 0.008506 0.000000 0.095790 0.762376 0.000000 3.620555 0.021782 0.000000 0.082655 0.939353 0.000000 3.505900 0.047424 0.000000 0.070261 1.171125 0.000000 
3.540475 0.101131 0.000000 0.036540 1.545386 0.000000 3.435916 0.132465 0.000000 0.034343 1.985816 0.000000 3.329735 0.012800 0.000000 0.032071 -2.001491 0.000000 3.381401 -0.013517 0.000000 0.027418 -1.605647 0.000000 3.475032 -0.037548 0.000000 0.028328 -1.281076 0.000000 3.587117 -0.060370 0.000000 0.038117 -1.033646 0.000000 3.702806 -0.087429 0.000000 0.064768 -0.852673 0.000000 3.821701 -0.111741 0.000000 0.112432 -0.721883 0.000000 3.964055 -0.109154 0.000000 0.172751 -0.530072 0.000000 4.005428 -0.074525 0.000000 0.189518 -0.412646 0.000000 4.038536 -0.060233 0.000000 0.211115 -0.378173 0.000000 4.130229 -0.026864 0.000000 0.204809 -0.233881 0.000000 4.129605 -0.027491 0.000000 0.203745 -0.186837 0.000000 4.152109 -0.038224 0.000000 0.231736 -0.168360 0.000000 4.177002 -0.010052 0.000000 0.221047 -0.093963 0.000000 4.169988 -0.021619 0.000000 0.224594 -0.094109 0.000000 4.209719 -0.027171 0.000000 0.240887 -0.040589 0.000000 4.190427 -0.019070 0.000000 0.245640 -0.008658 0.000000 4.178173 -0.024773 0.000000 0.265473 -0.033544 0.000000 4.224097 0.005580 0.000000 0.247832 0.066431 0.000000 4.191860 -0.002773 0.000000 0.243105 0.096798 0.000000 4.179870 -0.016112 0.000000 0.264691 0.105654 0.000000 4.172249 0.017827 0.000000 0.244959 0.191121 0.000000 4.135561 0.012892 0.000000 0.238965 0.221585 0.000000 4.132372 0.027400 0.000000 0.228298 0.310179 0.000000 4.063387 0.066176 0.000000 0.186578 0.409452 0.000000 3.982575 0.072136 0.000000 0.144604 0.474401 0.000000 3.916792 0.061307 0.000000 0.113453 0.549382 0.000000 3.858094 0.050856 0.000000 0.090883 0.654679 0.000000 3.795532 0.048280 0.000000 0.072823 0.798090 0.000000 3.722893 0.055664 0.000000 0.057369 0.986443 0.000000 3.637717 0.073420 0.000000 0.044877 1.230004 0.000000 
3.699112 0.093123 0.000000 0.070591 1.581859 0.000000 3.638348 0.128910 0.000000 0.069502 2.019057 0.000000 3.583805 0.013953 0.000000 0.067567 -2.019960 0.000000 3.586461 -0.009436 0.000000 0.057321 -1.644889 0.000000 3.629792 -0.031399 0.000000 0.047713 -1.330084 0.000000 3.698067 -0.053258 0.000000 0.041994 -1.086539 0.000000 3.781860 -0.082106 0.000000 0.054417 -0.910411 0.000000 3.886326 -0.108340 0.000000 0.110423 -0.797869 0.000000 4.058084 -0.111402 0.000000 0.239859 -0.539632 0.000000 4.064139 -0.053276 0.000000 0.200427 -0.429298 0.000000 4.064397 -0.041115 0.000000 0.228652 -0.429097 0.000000 4.209402 0.008761 0.000000 0.214589 -0.235768 0.000000 4.160815 0.004451 0.000000 0.172821 -0.208815 0.000000 4.174431 -0.024804 0.000000 0.257283 -0.173570 0.000000 4.223988 0.018971 0.000000 0.197808 -0.094296 0.000000 4.181194 -0.001657 0.000000 0.177201 -0.123754 0.000000 4.251868 -0.015255 0.000000 0.251348 -0.018902 0.000000 4.220204 -0.012134 0.000000 0.212547 -0.001744 0.000000 4.185725 -0.030319 0.000000 0.246958 -0.053457 0.000000 4.297337 0.021718 0.000000 0.232560 0.086376 0.000000 4.226195 -0.000071 0.000000 0.196314 0.100623 0.000000 4.208097 -0.031024 0.000000 0.279602 0.131144 0.000000 4.237497 0.019376 0.000000 0.222727 0.218414 0.000000 4.171724 0.005917 0.000000 0.207937 0.230493 0.000000 4.203681 0.024494 0.000000 0.277569 0.377138 0.000000 4.133323 0.062923 0.000000 0.199514 0.464057 0.000000 4.023573 0.060443 0.000000 0.135323 0.515622 0.000000 3.960256 0.042224 0.000000 0.105433 0.585372 0.000000 3.915433 0.028573 0.000000 0.092763 0.690367 0.000000 3.870380 0.026567 0.000000 0.085785 0.835016 0.000000 3.819155 0.037235 0.000000 0.080067 1.024529 0.000000 3.761281 0.059916 0.000000 0.074819 1.268367 0.000000 
3.858829 0.105359 0.000000 0.052893 1.606151 0.000000 3.834069 0.133553 0.000000 0.055015 2.040358 0.000000 3.821884 0.014735 0.000000 0.053475 -2.004146 0.000000 3.786052 -0.003271 0.000000 0.043761 -1.648978 0.000000 3.791697 -0.027940 0.000000 0.033431 -1.349352 0.000000 3.826421 -0.054651 0.000000 0.024046 -1.117438 0.000000 3.881480 -0.099852 0.000000 0.030360 -0.957139 0.000000 3.965036 -0.167748 0.000000 0.073735 -0.893641 0.000000 4.196747 -0.238590 0.000000 0.307183 -0.536127 0.000000 4.100032 -0.035092 0.000000 0.184109 -0.412904 0.000000 4.079093 -0.088458 0.000000 0.265466 -0.523178 0.000000 4.267692 -0.012802 0.000000 0.225941 -0.185294 0.000000 4.156391 0.014278 0.000000 0.130905 -0.200453 0.000000 4.223787 -0.122686 0.000000 0.323445 -0.217916 0.000000 4.220523 0.049423 0.000000 0.201767 -0.051170 0.000000 4.157565 -0.001011 0.000000 0.160402 -0.164783 0.000000 4.317666 -0.101318 0.000000 0.293776 -0.008925 0.000000 4.193719 0.019731 0.000000 0.213112 0.025821 0.000000 4.165068 -0.059184 0.000000 0.303339 -0.145155 0.000000 4.322701 0.019978 0.000000 0.248191 0.137573 0.000000 4.202261 0.033473 0.000000 0.172648 0.114896 0.000000 4.251749 -0.099399 0.000000 0.341234 0.076253 0.000000 4.228335 0.074702 0.000000 0.229835 0.256895 0.000000 4.161467 0.027682 0.000000 0.201203 0.189628 0.000000 4.299476 -0.042232 0.000000 0.298425 0.380536 0.000000 4.129839 0.144231 0.000000 0.188924 0.519202 0.000000 4.025222 0.136327 0.000000 0.116721 0.537717 0.000000 3.988314 0.091197 0.000000 0.086508 0.594206 0.000000 3.969367 0.063525 0.000000 0.073952 0.699733 0.000000 3.948223 0.055258 0.000000 0.066354 0.849314 0.000000 3.921271 0.061381 0.000000 0.060085 1.044317 0.000000 3.890138 0.078667 0.000000 0.055266 1.292173 0.000000 
4.010713 0.095496 0.000000 0.080812 1.606619 0.000000 4.021468 0.126788 0.000000 0.085613 2.031242 0.000000 4.050680 0.015493 0.000000 0.084487 -1.984128 0.000000 3.975094 0.000278 0.000000 0.072882 -1.650533 0.000000 3.937314 -0.021069 0.000000 0.054347 -1.364808 0.000000 3.926337 -0.043873 0.000000 0.020994 -1.141598 0.000000 3.938537 -0.088421 0.000000 -0.030934 -0.993967 0.000000 4.009831 -0.151715 0.000000 -0.062273 -1.029581 0.000000 4.372940 -0.344850 0.000000 0.568083 -0.442917 0.000000 4.120678 0.069798 0.000000 0.075058 -0.408359 0.000000 4.060131 -0.122472 0.000000 0.239761 -0.617696 0.000000 4.445634 0.048287 0.000000 0.329970 -0.124467 0.000000 4.118316 0.099487 0.000000 -0.082212 -0.276211 0.000000 4.262519 -0.217344 0.000000 0.515828 -0.170306 0.000000 4.291755 0.140649 0.000000 0.154842 -0.031339 0.000000 4.094547 0.039708 0.000000 -0.064263 -0.283854 0.000000 4.439873 -0.148628 0.000000 0.525445 0.105046 0.000000 4.181877 0.068530 0.000000 0.079824 0.026906 0.000000 4.115465 -0.120546 0.000000 0.259374 -0.211090 0.000000 4.502554 0.076867 0.000000 0.352124 0.206816 0.000000 4.163314 0.075472 0.000000 -0.053491 0.051135 0.000000 4.290811 -0.199609 0.000000 0.535683 0.154558 0.000000 4.321502 0.130775 0.000000 0.190314 0.285282 0.000000 4.122159 0.034549 0.000000 -0.026577 0.092485 0.000000 4.477849 -0.072728 0.000000 0.609233 0.546775 0.000000 4.201229 0.172424 0.000000 0.189858 0.568674 0.000000 4.029730 0.132646 0.000000 0.069566 0.552529 0.000000 4.023175 0.072437 0.000000 0.060898 0.604319 0.000000 4.028753 0.041129 0.000000 0.068433 0.711512 0.000000 4.026577 0.034164 0.000000 0.074329 0.861967 0.000000 4.019525 0.043504 0.000000 0.077340 1.055662 0.000000 4.012425 0.064735 0.000000 0.078969 1.299676 0.000000 
4.159159 0.103516 0.000000 0.067362 1.595396 0.000000 4.199749 0.128752 0.000000 0.075036 2.011146 0.000000 4.263809 0.015861 0.000000 0.074353 -1.928561 0.000000 4.156862 0.008334 0.000000 0.065652 -1.611198 0.000000 4.087323 -0.009404 0.000000 0.049934 -1.338374 0.000000 4.045699 -0.021298 0.000000 0.016385 -1.129639 0.000000 4.027223 -0.047923 0.000000 -0.046096 -1.028433 0.000000 4.039034 -0.136409 0.000000 -0.054461 -1.256751 0.000000 4.132765 -0.868947 0.000000 0.111422 -0.283865 0.000000 3.942329 0.457933 0.000000 -0.196392 -0.352358 0.000000 4.030588 -0.253161 0.000000 0.030472 -0.908681 0.000000 4.179879 -0.103010 0.000000 0.034039 0.142024 0.000000 3.967252 0.426459 0.000000 -0.156591 -0.344656 0.000000 4.164033 -0.720726 0.000000 0.275443 -0.247152 0.000000 4.052369 0.410409 0.000000 -0.041346 0.146039 0.000000 3.979682 0.218094 0.000000 -0.067298 -0.510109 0.000000 4.277763 -0.691026 0.000000 0.323434 0.249071 0.000000 3.957028 0.465352 0.000000 -0.081928 0.092234 0.000000 4.050525 -0.238734 0.000000 0.170953 -0.532245 0.000000 4.301189 -0.072772 0.000000 0.188173 0.476813 0.000000 3.979627 0.439088 0.000000 -0.081512 -0.012601 0.000000 4.220338 -0.688573 0.000000 0.433825 0.045562 0.000000 4.111318 0.420071 0.000000 0.070982 0.456239 0.000000 4.008565 0.244573 0.000000 0.021031 -0.166062 0.000000 4.441106 -0.678043 0.000000 0.602563 0.657156 0.000000 4.023210 0.563607 0.000000 0.119035 0.690701 0.000000 3.996086 0.256619 0.000000 0.029122 0.544272 0.000000 4.051837 0.099865 0.000000 0.036955 0.588628 0.000000 4.086719 0.055990 0.000000 0.050868 0.701909 0.000000 4.105495 0.049362 0.000000 0.058479 0.856366 0.000000 4.119029 0.058371 0.000000 0.061804 1.051417 0.000000 4.134753 0.077038 0.000000 0.063976 1.293885 0.000000 