# vtk DataFile Version 2.0
Comment goes here
ASCII

DATASET STRUCTURED_POINTS
FIELD FieldData 1
TIME 1 1 double
0.00600000
DIMENSIONS    64   64   1

ORIGIN    0.000   0.000   0.000
SPACING   0.03125 0.03125   1.000

POINT_DATA   4096
VECTORS u double

-0.092102 -0.000135 0.000000 -0.027548 0.000049 0.000000 0.007208 0.000009 0.000000 -0.007298 -0.000007 0.000000 -0.024587 0.000066 0.000000 0.035693 -0.000076 0.000000 -0.087895 -0.000051 0.000000 0.096511 0.000083 0.000000 -0.145171 -0.000137 0.000000 0.144878 0.000094 0.000000 -0.182093 -0.000135 0.000000 0.168295 0.000219 0.000000 -0.191533 -0.000314 0.000000 0.163626 0.000321 0.000000 -0.172162 -0.000399 0.000000 0.132980 0.000491 0.000000 -0.137003 -0.000424 0.000000 0.099301 0.000164 0.000000 -0.109714 -0.000222 0.000000 0.074470 0.000092 0.000000 -0.085269 0.000177 0.000000 0.045959 -0.001485 0.000000 -0.055334 0.001884 0.000000 0.017021 -0.001040 0.000000 -0.031580 0.000756 0.000000 -0.008777 -0.000937 0.000000 -0.007857 0.001689 0.000000 -0.038094 -0.001270 0.000000 0.020788 0.000079 0.000000 -0.065874 0.000097 0.000000 0.045097 -0.000047 0.000000 -0.088477 -0.000040 0.000000 0.061204 -0.000165 0.000000 -0.102724 0.000387 0.000000 0.070455 -0.000323 0.000000 -0.111277 0.000282 0.000000 0.076018 -0.000289 0.000000 -0.116851 0.000332 0.000000 0.077338 -0.000405 0.000000 -0.116968 0.000460 0.000000 0.073043 -0.000489 0.000000 -0.112862 0.000508 0.000000 0.066411 -0.000623 0.000000 -0.107226 0.000415 0.000000 0.059872 -0.000135 0.000000 -0.102528 0.000140 0.000000 0.051909 -0.000127 0.000000 -0.094783 0.000090 0.000000 0.041154 -0.000010 0.000000 -0.085132 -0.000019 0.000000 0.030864 0.000043 0.000000 -0.078484 0.000062 0.000000 0.022846 -0.000085 0.000000 -0.077605 0.000145 0.000000 0.029192 -0.000065 0.000000 -0.098622 0.000033 0.000000 0.052284 0.000044 0.000000 -0.118060 -0.000061 0.000000 0.048851 0.000058 0.000000 -0.091559 0.000014 0.000000 -0.009188 -0.000105 0.000000 -0.014040 0.000170 0.000000 -0.108520 -0.000233 0.000000 0.080145 0.000228 0.000000 
-0.067916 0.053655 0.000000 0.237941 -0.049623 0.000000 -0.278063 -0.010099 0.000000 0.256147 0.015853 0.000000 -0.274962 -0.021447 0.000000 0.233996 0.031612 0.000000 -0.228414 -0.030345 0.000000 0.185220 0.028569 0.000000 -0.181807 -0.024148 0.000000 0.138379 0.018444 0.000000 -0.143119 -0.011638 0.000000 0.100888 0.004592 0.000000 -0.114190 0.002549 0.000000 0.072580 -0.009919 0.000000 -0.096538 0.015572 0.000000 0.056497 -0.017732 0.000000 -0.084554 0.016780 0.000000 0.039723 -0.013647 0.000000 -0.063565 0.012514 0.000000 0.013378 -0.012382 0.000000 -0.038911 0.014431 0.000000 -0.009725 -0.014813 0.000000 -0.023813 0.014120 0.000000 -0.025704 -0.011742 0.000000 -0.003267 0.012803 0.000000 -0.046475 -0.011733 0.000000 0.017775 0.014381 0.000000 -0.062168 -0.014379 0.000000 0.033467 0.014442 0.000000 -0.082150 -0.012823 0.000000 0.051986 0.011981 0.000000 -0.098632 -0.008579 0.000000 0.067047 0.007525 0.000000 -0.110436 -0.004958 0.000000 0.077660 0.004403 0.000000 -0.117113 -0.002703 0.000000 0.081486 0.002570 0.000000 -0.117947 -0.000363 0.000000 0.082225 -0.000254 0.000000 -0.117735 0.002426 0.000000 0.083005 -0.002326 0.000000 -0.116611 0.003568 0.000000 0.081689 -0.003011 0.000000 -0.113330 0.003408 0.000000 0.077139 -0.002544 0.000000 -0.104785 0.004117 0.000000 0.070144 -0.003960 0.000000 -0.096424 0.005413 0.000000 0.063871 -0.004875 0.000000 -0.089105 0.005192 0.000000 0.058479 -0.003352 0.000000 -0.082562 0.004015 0.000000 0.057182 -0.000452 0.000000 -0.078278 -0.003128 0.000000 0.050660 0.010436 0.000000 -0.060162 -0.011464 0.000000 0.031400 0.009664 0.000000 -0.040700 0.001745 0.000000 0.027412 -0.013284 0.000000 -0.047471 0.029070 0.000000 0.053331 -0.038877 0.000000 -0.077787 0.049835 0.000000 0.091563 -0.047331 0.000000 -0.092921 -0.007930 0.000000 
0.108686 -0.330998 0.000000 0.152293 0.210196 0.000000 -0.069485 -0.018197 0.000000 0.159815 -0.003107 0.000000 -0.042960 0.022216 0.000000 0.127247 -0.046625 0.000000 -0.006592 0.048725 0.000000 0.079118 -0.046524 0.000000 0.051298 0.046705 0.000000 0.035778 -0.038595 0.000000 0.101644 0.037356 0.000000 0.006574 -0.028710 0.000000 0.135439 0.027994 0.000000 -0.007164 -0.017332 0.000000 0.149912 0.015683 0.000000 -0.004369 -0.011493 0.000000 0.153646 0.016350 0.000000 -0.002643 -0.020825 0.000000 0.165824 0.026124 0.000000 -0.011184 -0.024561 0.000000 0.180008 0.023279 0.000000 -0.016460 -0.016583 0.000000 0.186365 0.017864 0.000000 -0.019432 -0.021587 0.000000 0.197308 0.021527 0.000000 -0.025499 -0.021978 0.000000 0.207445 0.017382 0.000000 -0.027734 -0.016963 0.000000 0.211248 0.020061 0.000000 -0.030682 -0.018422 0.000000 0.215907 0.016435 0.000000 -0.033237 -0.015101 0.000000 0.221395 0.011639 0.000000 -0.036410 -0.010226 0.000000 0.225976 0.006354 0.000000 -0.038468 -0.003544 0.000000 0.227438 0.000546 0.000000 -0.037970 -0.000407 0.000000 0.227872 -0.000617 0.000000 -0.038542 -0.000320 0.000000 0.229521 -0.001612 0.000000 -0.039722 0.001823 0.000000 0.229853 -0.003904 0.000000 -0.039663 0.004965 0.000000 0.227177 -0.008680 0.000000 -0.036131 0.007134 0.000000 0.223002 -0.008488 0.000000 -0.033794 0.006363 0.000000 0.219550 -0.007330 0.000000 -0.032947 0.005373 0.000000 0.215611 -0.006500 0.000000 -0.031326 0.001360 0.000000 0.212090 -0.004369 0.000000 -0.028560 0.006667 0.000000 0.197811 -0.018180 0.000000 -0.007454 0.019293 0.000000 0.166178 -0.019418 0.000000 0.015321 0.003927 0.000000 0.151616 0.006829 0.000000 0.004580 -0.025905 0.000000 0.175004 0.030211 0.000000 -0.040947 -0.038062 0.000000 0.223186 0.014901 0.000000 -0.086743 0.159707 0.000000 
0.081947 -0.185381 0.000000 -0.116882 0.128548 0.000000 0.114876 -0.017620 0.000000 -0.094950 -0.010672 0.000000 -0.055211 0.011120 0.000000 -0.072421 -0.004755 0.000000 0.052732 0.017784 0.000000 -0.043599 -0.029321 0.000000 0.117412 0.019192 0.000000 -0.023172 -0.031902 0.000000 0.162781 0.017566 0.000000 -0.011142 -0.029203 0.000000 0.198069 0.016287 0.000000 -0.004794 -0.024392 0.000000 0.229411 0.012778 0.000000 -0.006435 -0.021465 0.000000 0.256903 0.015053 0.000000 -0.007097 -0.025826 0.000000 0.271841 0.021055 0.000000 -0.000395 -0.026567 0.000000 0.280137 0.019708 0.000000 0.004001 -0.021170 0.000000 0.291655 0.017092 0.000000 0.004628 -0.022685 0.000000 0.296440 0.018869 0.000000 0.008878 -0.021870 0.000000 0.298522 0.016617 0.000000 0.010381 -0.018182 0.000000 0.302093 0.017390 0.000000 0.015093 -0.017482 0.000000 0.301791 0.014536 0.000000 0.018498 -0.014067 0.000000 0.301203 0.010698 0.000000 0.020409 -0.009540 0.000000 0.301026 0.006461 0.000000 0.020736 -0.004165 0.000000 0.302688 0.002072 0.000000 0.018806 -0.000797 0.000000 0.303812 0.000318 0.000000 0.017834 0.000777 0.000000 0.302419 -0.001146 0.000000 0.017589 0.003235 0.000000 0.300238 -0.003071 0.000000 0.017056 0.006084 0.000000 0.297993 -0.006076 0.000000 0.014037 0.008292 0.000000 0.295095 -0.006296 0.000000 0.012025 0.008865 0.000000 0.289437 -0.005722 0.000000 0.011313 0.009131 0.000000 0.280860 -0.004973 0.000000 0.011670 0.007536 0.000000 0.266022 -0.003218 0.000000 0.015035 0.011152 0.000000 0.250905 -0.010671 0.000000 0.008776 0.020169 0.000000 0.241141 -0.013110 0.000000 0.001346 0.016306 0.000000 0.214579 -0.002544 0.000000 0.013913 0.005682 0.000000 0.155070 0.006651 0.000000 0.050589 0.001653 0.000000 0.058773 -0.001535 0.000000 0.099709 0.106570 0.000000 
0.137069 -0.114406 0.000000 -0.065983 0.177267 0.000000 0.129181 -0.040129 0.000000 -0.055624 0.166980 0.000000 -0.022747 -0.000314 0.000000 -0.044246 -0.154568 0.000000 0.098180 0.019903 0.000000 -0.031011 -0.111203 0.000000 0.161384 0.026278 0.000000 -0.021557 -0.083964 0.000000 0.202917 0.025325 0.000000 -0.015527 -0.063998 0.000000 0.233440 0.021646 0.000000 -0.011286 -0.048673 0.000000 0.258178 0.017324 0.000000 -0.010422 -0.038985 0.000000 0.278440 0.017012 0.000000 -0.008703 -0.035763 0.000000 0.290422 0.019422 0.000000 -0.003221 -0.032858 0.000000 0.297959 0.018883 0.000000 0.000704 -0.028101 0.000000 0.306390 0.017237 0.000000 0.002603 -0.026372 0.000000 0.310569 0.017276 0.000000 0.006256 -0.024060 0.000000 0.312669 0.015879 0.000000 0.008555 -0.020533 0.000000 0.314972 0.015349 0.000000 0.012360 -0.018120 0.000000 0.314975 0.013030 0.000000 0.015251 -0.014513 0.000000 0.314677 0.009728 0.000000 0.016980 -0.010049 0.000000 0.314644 0.006027 0.000000 0.017463 -0.005206 0.000000 0.315567 0.002475 0.000000 0.016440 -0.001531 0.000000 0.316132 0.000355 0.000000 0.015685 0.001074 0.000000 0.315197 -0.001367 0.000000 0.015155 0.004004 0.000000 0.313569 -0.003371 0.000000 0.014373 0.007209 0.000000 0.311544 -0.005662 0.000000 0.012227 0.010032 0.000000 0.308709 -0.006476 0.000000 0.010577 0.012021 0.000000 0.303837 -0.006618 0.000000 0.009698 0.013950 0.000000 0.296577 -0.006857 0.000000 0.009692 0.016198 0.000000 0.284739 -0.007734 0.000000 0.011947 0.021785 0.000000 0.271246 -0.011922 0.000000 0.009470 0.029057 0.000000 0.259562 -0.011988 0.000000 0.005844 0.030488 0.000000 0.238678 -0.005737 0.000000 0.011327 0.033604 0.000000 0.200162 -0.006465 0.000000 0.028068 0.058235 0.000000 0.139409 -0.034219 0.000000 0.051880 0.136534 0.000000 
0.122987 -0.067519 0.000000 -0.043750 0.136436 0.000000 0.105854 -0.027979 0.000000 -0.053137 0.141256 0.000000 0.036111 -0.000258 0.000000 -0.052921 -0.125682 0.000000 0.096212 0.004549 0.000000 -0.037311 -0.092525 0.000000 0.144884 0.009739 0.000000 -0.024144 -0.073435 0.000000 0.182984 0.011536 0.000000 -0.014813 -0.059727 0.000000 0.213669 0.012046 0.000000 -0.009097 -0.049129 0.000000 0.239432 0.011914 0.000000 -0.006732 -0.041728 0.000000 0.260468 0.013334 0.000000 -0.004657 -0.037808 0.000000 0.275061 0.015572 0.000000 -0.000873 -0.034104 0.000000 0.285184 0.015783 0.000000 0.002456 -0.029601 0.000000 0.293676 0.015193 0.000000 0.004750 -0.026864 0.000000 0.299015 0.015217 0.000000 0.007589 -0.023970 0.000000 0.302281 0.014318 0.000000 0.009977 -0.020484 0.000000 0.304735 0.013584 0.000000 0.012905 -0.017485 0.000000 0.305614 0.011645 0.000000 0.015330 -0.013769 0.000000 0.305865 0.008968 0.000000 0.016851 -0.009506 0.000000 0.306052 0.005979 0.000000 0.017334 -0.005088 0.000000 0.306542 0.003096 0.000000 0.016828 -0.001363 0.000000 0.306592 0.001073 0.000000 0.016246 0.001712 0.000000 0.305512 -0.000615 0.000000 0.015721 0.004864 0.000000 0.303593 -0.002289 0.000000 0.014900 0.008108 0.000000 0.300964 -0.003930 0.000000 0.013344 0.011127 0.000000 0.297227 -0.004646 0.000000 0.011989 0.013737 0.000000 0.291503 -0.004843 0.000000 0.011173 0.016391 0.000000 0.283238 -0.004967 0.000000 0.010872 0.019374 0.000000 0.271729 -0.005473 0.000000 0.010910 0.024645 0.000000 0.258276 -0.008194 0.000000 0.008763 0.031853 0.000000 0.242688 -0.009484 0.000000 0.007571 0.037190 0.000000 0.217862 -0.008026 0.000000 0.013079 0.044198 0.000000 0.179847 -0.010091 0.000000 0.022882 0.062406 0.000000 0.136481 -0.025346 0.000000 0.019773 0.108910 0.000000 
0.164638 -0.050884 0.000000 -0.025948 0.194400 0.000000 0.134406 -0.030742 0.000000 -0.032671 0.236723 0.000000 0.066023 -0.000529 0.000000 -0.032594 -0.214669 0.000000 0.131190 0.004293 0.000000 -0.025779 -0.159875 0.000000 0.180378 0.013112 0.000000 -0.019727 -0.122063 0.000000 0.216572 0.015994 0.000000 -0.014992 -0.094684 0.000000 0.244004 0.015930 0.000000 -0.011401 -0.074435 0.000000 0.265553 0.014958 0.000000 -0.008997 -0.060022 0.000000 0.282339 0.014937 0.000000 -0.006467 -0.050356 0.000000 0.294111 0.015639 0.000000 -0.003008 -0.042981 0.000000 0.302455 0.015553 0.000000 0.000122 -0.036593 0.000000 0.309124 0.014943 0.000000 0.002626 -0.031711 0.000000 0.313458 0.014437 0.000000 0.005357 -0.027327 0.000000 0.316155 0.013491 0.000000 0.007824 -0.022988 0.000000 0.317968 0.012421 0.000000 0.010423 -0.018998 0.000000 0.318691 0.010604 0.000000 0.012575 -0.014764 0.000000 0.318941 0.008207 0.000000 0.013992 -0.010236 0.000000 0.319062 0.005544 0.000000 0.014582 -0.005696 0.000000 0.319294 0.002981 0.000000 0.014418 -0.001582 0.000000 0.319208 0.000937 0.000000 0.013997 0.002155 0.000000 0.318349 -0.000842 0.000000 0.013481 0.005923 0.000000 0.316814 -0.002550 0.000000 0.012730 0.009838 0.000000 0.314566 -0.004106 0.000000 0.011511 0.013769 0.000000 0.311322 -0.005120 0.000000 0.010380 0.017745 0.000000 0.306493 -0.005802 0.000000 0.009573 0.022215 0.000000 0.299566 -0.006556 0.000000 0.009182 0.027707 0.000000 0.290015 -0.007772 0.000000 0.009219 0.035238 0.000000 0.278463 -0.009775 0.000000 0.008177 0.044644 0.000000 0.264925 -0.010796 0.000000 0.007309 0.055315 0.000000 0.245729 -0.011245 0.000000 0.009258 0.071619 0.000000 0.218430 -0.016268 0.000000 0.012759 0.101601 0.000000 0.185832 -0.031110 0.000000 0.009279 0.150028 0.000000 
0.167534 -0.032292 0.000000 -0.023384 0.166668 0.000000 0.148531 -0.021256 0.000000 -0.033935 0.209639 0.000000 0.117973 -0.000335 0.000000 -0.034078 -0.190849 0.000000 0.150808 -0.002266 0.000000 -0.028464 -0.141713 0.000000 0.182563 0.003687 0.000000 -0.021234 -0.109629 0.000000 0.210290 0.006801 0.000000 -0.014855 -0.087159 0.000000 0.233878 0.008455 0.000000 -0.010052 -0.070679 0.000000 0.253820 0.009510 0.000000 -0.006744 -0.058513 0.000000 0.270116 0.010804 0.000000 -0.003950 -0.049580 0.000000 0.282423 0.012113 0.000000 -0.000954 -0.042448 0.000000 0.291565 0.012654 0.000000 0.001853 -0.036270 0.000000 0.298553 0.012688 0.000000 0.004246 -0.031198 0.000000 0.303394 0.012486 0.000000 0.006645 -0.026668 0.000000 0.306620 0.011850 0.000000 0.008909 -0.022297 0.000000 0.308723 0.010985 0.000000 0.011090 -0.018209 0.000000 0.309847 0.009493 0.000000 0.012934 -0.014019 0.000000 0.310393 0.007552 0.000000 0.014189 -0.009627 0.000000 0.310593 0.005388 0.000000 0.014773 -0.005320 0.000000 0.310657 0.003259 0.000000 0.014784 -0.001277 0.000000 0.310330 0.001494 0.000000 0.014467 0.002571 0.000000 0.309280 -0.000099 0.000000 0.014011 0.006399 0.000000 0.307509 -0.001538 0.000000 0.013344 0.010356 0.000000 0.304897 -0.002711 0.000000 0.012329 0.014372 0.000000 0.301205 -0.003515 0.000000 0.011306 0.018566 0.000000 0.295977 -0.004036 0.000000 0.010416 0.023318 0.000000 0.288734 -0.004576 0.000000 0.009651 0.028925 0.000000 0.279266 -0.005510 0.000000 0.008902 0.036197 0.000000 0.267692 -0.007151 0.000000 0.007737 0.045391 0.000000 0.253378 -0.008616 0.000000 0.007117 0.056386 0.000000 0.234195 -0.009976 0.000000 0.008047 0.071496 0.000000 0.209868 -0.013592 0.000000 0.008008 0.095005 0.000000 0.184884 -0.021866 0.000000 -0.000241 0.130104 0.000000 
0.201253 -0.027740 0.000000 -0.014825 0.213404 0.000000 0.177504 -0.020192 0.000000 -0.021722 0.267281 0.000000 0.145368 -0.000386 0.000000 -0.021824 -0.247504 0.000000 0.180287 -0.001321 0.000000 -0.019806 -0.191631 0.000000 0.212399 0.005882 0.000000 -0.016583 -0.149790 0.000000 0.238996 0.009616 0.000000 -0.013313 -0.118271 0.000000 0.260452 0.011127 0.000000 -0.010329 -0.094378 0.000000 0.277695 0.011650 0.000000 -0.007692 -0.076318 0.000000 0.291253 0.012143 0.000000 -0.005152 -0.062662 0.000000 0.301231 0.012643 0.000000 -0.002462 -0.052123 0.000000 0.308624 0.012747 0.000000 0.000162 -0.043581 0.000000 0.314190 0.012549 0.000000 0.002427 -0.036552 0.000000 0.317984 0.012039 0.000000 0.004723 -0.030552 0.000000 0.320525 0.011227 0.000000 0.006962 -0.025091 0.000000 0.322054 0.010239 0.000000 0.008932 -0.020121 0.000000 0.322880 0.008760 0.000000 0.010635 -0.015311 0.000000 0.323332 0.006952 0.000000 0.011829 -0.010437 0.000000 0.323370 0.004961 0.000000 0.012454 -0.005759 0.000000 0.323338 0.002969 0.000000 0.012654 -0.001255 0.000000 0.323057 0.001255 0.000000 0.012404 0.003205 0.000000 0.322177 -0.000386 0.000000 0.012040 0.007694 0.000000 0.320772 -0.001884 0.000000 0.011557 0.012450 0.000000 0.318584 -0.003090 0.000000 0.010705 0.017461 0.000000 0.315518 -0.004098 0.000000 0.009856 0.022973 0.000000 0.311249 -0.004912 0.000000 0.009031 0.029458 0.000000 0.305178 -0.005791 0.000000 0.008243 0.037175 0.000000 0.297293 -0.007024 0.000000 0.007571 0.046813 0.000000 0.287669 -0.008610 0.000000 0.006706 0.058958 0.000000 0.275940 -0.010175 0.000000 0.005940 0.074497 0.000000 0.260868 -0.012176 0.000000 0.005624 0.095946 0.000000 0.241966 -0.016229 0.000000 0.004431 0.126585 0.000000 0.220913 -0.022861 0.000000 -0.001251 0.167378 0.000000 
0.213644 -0.018718 0.000000 -0.015804 0.190418 0.000000 0.202529 -0.014359 0.000000 -0.022880 0.241775 0.000000 0.191522 -0.000232 0.000000 -0.023017 -0.225768 0.000000 0.206621 -0.004284 0.000000 -0.021241 -0.173826 0.000000 0.224322 0.000464 0.000000 -0.017475 -0.136226 0.000000 0.241752 0.003531 0.000000 -0.013322 -0.108615 0.000000 0.257735 0.005470 0.000000 -0.009512 -0.087922 0.000000 0.271856 0.006873 0.000000 -0.006238 -0.072071 0.000000 0.283755 0.008264 0.000000 -0.003440 -0.059558 0.000000 0.292951 0.009423 0.000000 -0.000843 -0.049841 0.000000 0.300101 0.010030 0.000000 0.001662 -0.041836 0.000000 0.305577 0.010423 0.000000 0.003741 -0.034992 0.000000 0.309390 0.010191 0.000000 0.005836 -0.029208 0.000000 0.312079 0.009612 0.000000 0.007924 -0.023826 0.000000 0.313692 0.009014 0.000000 0.009613 -0.019035 0.000000 0.314657 0.007790 0.000000 0.011127 -0.014470 0.000000 0.315267 0.006359 0.000000 0.012200 -0.009665 0.000000 0.315271 0.004762 0.000000 0.012781 -0.005289 0.000000 0.315162 0.003060 0.000000 0.013070 -0.000996 0.000000 0.314791 0.001744 0.000000 0.012826 0.003451 0.000000 0.313768 0.000265 0.000000 0.012512 0.007804 0.000000 0.312266 -0.001056 0.000000 0.012137 0.012544 0.000000 0.309911 -0.001859 0.000000 0.011319 0.017439 0.000000 0.306719 -0.002666 0.000000 0.010488 0.022834 0.000000 0.302465 -0.003211 0.000000 0.009533 0.029388 0.000000 0.296455 -0.003788 0.000000 0.008413 0.036810 0.000000 0.288910 -0.004838 0.000000 0.007309 0.045821 0.000000 0.279847 -0.006286 0.000000 0.006163 0.057121 0.000000 0.268933 -0.007850 0.000000 0.005104 0.071458 0.000000 0.255668 -0.009660 0.000000 0.003974 0.090398 0.000000 0.240535 -0.012398 0.000000 0.001336 0.116058 0.000000 0.225699 -0.016185 0.000000 -0.005191 0.149764 0.000000 
0.241920 -0.017127 0.000000 -0.010460 0.224518 0.000000 0.228871 -0.013116 0.000000 -0.015186 0.278288 0.000000 0.216396 -0.000250 0.000000 -0.015283 -0.262603 0.000000 0.232258 -0.003097 0.000000 -0.015042 -0.209332 0.000000 0.249973 0.002117 0.000000 -0.013490 -0.167219 0.000000 0.266581 0.005462 0.000000 -0.011350 -0.134255 0.000000 0.281122 0.007317 0.000000 -0.008907 -0.108498 0.000000 0.293529 0.008375 0.000000 -0.006288 -0.088218 0.000000 0.303752 0.009345 0.000000 -0.003983 -0.071858 0.000000 0.310937 0.010047 0.000000 -0.001847 -0.059273 0.000000 0.316623 0.010242 0.000000 0.000562 -0.049058 0.000000 0.321028 0.010471 0.000000 0.002200 -0.040365 0.000000 0.323764 0.009944 0.000000 0.004146 -0.033241 0.000000 0.325905 0.009139 0.000000 0.006368 -0.026704 0.000000 0.326844 0.008550 0.000000 0.007710 -0.021086 0.000000 0.327445 0.007246 0.000000 0.009204 -0.015921 0.000000 0.328136 0.005879 0.000000 0.010235 -0.010441 0.000000 0.327747 0.004379 0.000000 0.010752 -0.005650 0.000000 0.327631 0.002681 0.000000 0.011338 -0.000884 0.000000 0.327504 0.001498 0.000000 0.010924 0.004228 0.000000 0.326530 -0.000072 0.000000 0.010718 0.009196 0.000000 0.325514 -0.001509 0.000000 0.010752 0.014805 0.000000 0.323480 -0.002272 0.000000 0.009895 0.020653 0.000000 0.320916 -0.003267 0.000000 0.009307 0.027227 0.000000 0.317806 -0.003957 0.000000 0.008450 0.035468 0.000000 0.312603 -0.004670 0.000000 0.007187 0.044720 0.000000 0.306310 -0.005920 0.000000 0.006116 0.055876 0.000000 0.298978 -0.007463 0.000000 0.005131 0.069872 0.000000 0.290290 -0.009117 0.000000 0.004115 0.087762 0.000000 0.279825 -0.011046 0.000000 0.002863 0.111079 0.000000 0.267639 -0.013591 0.000000 0.000605 0.141421 0.000000 0.254617 -0.016333 0.000000 -0.003828 0.179433 0.000000 
0.258758 -0.012086 0.000000 -0.011806 0.203467 0.000000 0.256314 -0.009632 0.000000 -0.016233 0.254250 0.000000 0.257461 -0.000136 0.000000 -0.016341 -0.241630 0.000000 0.259909 -0.004525 0.000000 -0.016005 -0.191541 0.000000 0.266401 -0.001088 0.000000 -0.014106 -0.152833 0.000000 0.274685 0.001391 0.000000 -0.011445 -0.123156 0.000000 0.283468 0.003027 0.000000 -0.008436 -0.100329 0.000000 0.292119 0.004255 0.000000 -0.005254 -0.082294 0.000000 0.300101 0.005959 0.000000 -0.002724 -0.066742 0.000000 0.305527 0.007287 0.000000 -0.000640 -0.055528 0.000000 0.310311 0.007620 0.000000 0.001899 -0.046241 0.000000 0.314265 0.008786 0.000000 0.003219 -0.037728 0.000000 0.316512 0.008244 0.000000 0.005035 -0.031349 0.000000 0.318616 0.007390 0.000000 0.007340 -0.024765 0.000000 0.319307 0.007672 0.000000 0.008312 -0.019635 0.000000 0.319823 0.006296 0.000000 0.009761 -0.015161 0.000000 0.320746 0.005329 0.000000 0.010702 -0.009276 0.000000 0.320061 0.004244 0.000000 0.011084 -0.005174 0.000000 0.319929 0.002475 0.000000 0.011886 -0.000869 0.000000 0.319901 0.002158 0.000000 0.011256 0.004426 0.000000 0.318737 0.000471 0.000000 0.011073 0.008820 0.000000 0.317878 -0.001090 0.000000 0.011371 0.014577 0.000000 0.315759 -0.001002 0.000000 0.010321 0.020003 0.000000 0.313295 -0.002079 0.000000 0.009793 0.025944 0.000000 0.310709 -0.002353 0.000000 0.008815 0.034591 0.000000 0.305709 -0.002526 0.000000 0.007157 0.043104 0.000000 0.300071 -0.003767 0.000000 0.005757 0.053152 0.000000 0.293850 -0.005300 0.000000 0.004497 0.065810 0.000000 0.286834 -0.006835 0.000000 0.003160 0.081922 0.000000 0.278999 -0.008408 0.000000 0.001406 0.102584 0.000000 0.270893 -0.010141 0.000000 -0.001439 0.129079 0.000000 0.263729 -0.011751 0.000000 -0.006024 0.162461 0.000000 
0.282910 -0.011346 0.000000 -0.008022 0.226962 0.000000 0.279615 -0.008689 0.000000 -0.011106 0.277141 0.000000 0.279809 -0.000142 0.000000 -0.011184 -0.265051 0.000000 0.282415 -0.003434 0.000000 -0.011586 -0.215824 0.000000 0.288686 0.000218 0.000000 -0.010987 -0.175504 0.000000 0.296252 0.002801 0.000000 -0.009692 -0.143038 0.000000 0.303941 0.004309 0.000000 -0.007662 -0.117149 0.000000 0.311557 0.005193 0.000000 -0.004571 -0.096200 0.000000 0.319293 0.006815 0.000000 -0.002639 -0.077284 0.000000 0.322144 0.007963 0.000000 -0.001506 -0.064057 0.000000 0.325909 0.007703 0.000000 0.001735 -0.053011 0.000000 0.329533 0.009150 0.000000 0.001665 -0.042611 0.000000 0.330142 0.008128 0.000000 0.003294 -0.035346 0.000000 0.332490 0.006834 0.000000 0.006656 -0.027394 0.000000 0.331970 0.007578 0.000000 0.006337 -0.021602 0.000000 0.331921 0.005797 0.000000 0.008235 -0.016844 0.000000 0.334019 0.004938 0.000000 0.009156 -0.009756 0.000000 0.331848 0.003998 0.000000 0.008982 -0.005518 0.000000 0.331940 0.001879 0.000000 0.011019 -0.000856 0.000000 0.332795 0.002128 0.000000 0.009239 0.005392 0.000000 0.330925 0.000112 0.000000 0.009153 0.010055 0.000000 0.331275 -0.001807 0.000000 0.010840 0.016925 0.000000 0.328905 -0.001222 0.000000 0.008815 0.023117 0.000000 0.326860 -0.002739 0.000000 0.009024 0.029813 0.000000 0.326457 -0.002979 0.000000 0.008275 0.040467 0.000000 0.321117 -0.003012 0.000000 0.005939 0.050359 0.000000 0.316361 -0.004519 0.000000 0.004573 0.062096 0.000000 0.311642 -0.006203 0.000000 0.003583 0.076888 0.000000 0.306408 -0.007780 0.000000 0.002526 0.095598 0.000000 0.300493 -0.009292 0.000000 0.001106 0.119184 0.000000 0.294135 -0.010747 0.000000 -0.001036 0.148586 0.000000 0.287991 -0.011748 0.000000 -0.004195 0.184404 0.000000 
0.301307 -0.008260 0.000000 -0.009176 0.206762 0.000000 0.306459 -0.006548 0.000000 -0.011999 0.254055 0.000000 0.316285 -0.000057 0.000000 -0.012082 -0.244236 0.000000 0.309193 -0.004123 0.000000 -0.012327 -0.197811 0.000000 0.306722 -0.001688 0.000000 -0.011497 -0.160400 0.000000 0.307142 0.000096 0.000000 -0.009916 -0.130845 0.000000 0.309348 0.000997 0.000000 -0.007536 -0.107945 0.000000 0.313065 0.001164 0.000000 -0.003619 -0.090031 0.000000 0.319001 0.004027 0.000000 -0.001556 -0.069593 0.000000 0.318749 0.006154 0.000000 -0.000895 -0.059292 0.000000 0.321360 0.004378 0.000000 0.003356 -0.049865 0.000000 0.324653 0.008857 0.000000 0.002204 -0.038338 0.000000 0.323778 0.006615 0.000000 0.003740 -0.033697 0.000000 0.326570 0.004028 0.000000 0.008093 -0.024245 0.000000 0.325093 0.007991 0.000000 0.006533 -0.019586 0.000000 0.324584 0.004398 0.000000 0.008898 -0.017260 0.000000 0.327833 0.004407 0.000000 0.009770 -0.007105 0.000000 0.324296 0.004418 0.000000 0.008963 -0.005265 0.000000 0.324598 0.000438 0.000000 0.012132 -0.001724 0.000000 0.326144 0.003938 0.000000 0.009244 0.006296 0.000000 0.323399 0.000557 0.000000 0.009148 0.008470 0.000000 0.324756 -0.002776 0.000000 0.011954 0.016947 0.000000 0.321945 0.001022 0.000000 0.008804 0.022048 0.000000 0.319994 -0.002288 0.000000 0.009541 0.026347 0.000000 0.321369 -0.001603 0.000000 0.008780 0.039931 0.000000 0.315598 -0.000190 0.000000 0.005645 0.047859 0.000000 0.311810 -0.002401 0.000000 0.004062 0.057872 0.000000 0.308647 -0.004311 0.000000 0.002907 0.071043 0.000000 0.305550 -0.005777 0.000000 0.001630 0.087837 0.000000 0.302591 -0.006988 0.000000 -0.000072 0.108943 0.000000 0.300300 -0.007998 0.000000 -0.002469 0.135223 0.000000 0.299548 -0.008593 0.000000 -0.005654 0.167543 0.000000 
0.322093 -0.007824 0.000000 -0.006335 0.221811 0.000000 0.326847 -0.005866 0.000000 -0.008396 0.267314 0.000000 0.336113 -0.000059 0.000000 -0.008458 -0.257958 0.000000 0.328926 -0.003189 0.000000 -0.009127 -0.213354 0.000000 0.326123 -0.000612 0.000000 -0.009178 -0.175924 0.000000 0.325817 0.001220 0.000000 -0.008769 -0.145243 0.000000 0.326845 0.001928 0.000000 -0.007479 -0.120867 0.000000 0.329482 0.001276 0.000000 -0.001713 -0.102135 0.000000 0.339706 0.004752 0.000000 -0.000487 -0.077032 0.000000 0.332440 0.007302 0.000000 -0.003282 -0.066668 0.000000 0.335350 0.003451 0.000000 0.006205 -0.056304 0.000000 0.341031 0.010302 0.000000 -0.000561 -0.041737 0.000000 0.334786 0.006592 0.000000 0.000692 -0.038138 0.000000 0.341947 0.002482 0.000000 0.010627 -0.025918 0.000000 0.336609 0.009139 0.000000 0.002748 -0.021093 0.000000 0.334258 0.003431 0.000000 0.008219 -0.020094 0.000000 0.344161 0.004066 0.000000 0.009184 -0.006218 0.000000 0.333680 0.004806 0.000000 0.004998 -0.005820 0.000000 0.335497 -0.001290 0.000000 0.014497 -0.002401 0.000000 0.340791 0.005016 0.000000 0.005871 0.008137 0.000000 0.333099 0.000207 0.000000 0.005803 0.008698 0.000000 0.339762 -0.004613 0.000000 0.014636 0.019735 0.000000 0.333986 0.001928 0.000000 0.005508 0.025068 0.000000 0.331167 -0.003476 0.000000 0.009678 0.028438 0.000000 0.340040 -0.002217 0.000000 0.009696 0.046238 0.000000 0.329034 0.000122 0.000000 0.003721 0.054147 0.000000 0.326375 -0.002936 0.000000 0.002652 0.065259 0.000000 0.324815 -0.005048 0.000000 0.002102 0.079985 0.000000 0.323204 -0.006503 0.000000 0.001297 0.098557 0.000000 0.321596 -0.007590 0.000000 0.000074 0.121476 0.000000 0.320407 -0.008350 0.000000 -0.001658 0.149337 0.000000 0.320291 -0.008563 0.000000 -0.003891 0.182645 0.000000 
0.340444 -0.005816 0.000000 -0.007248 0.202007 0.000000 0.351906 -0.004486 0.000000 -0.009128 0.244790 0.000000 0.368382 0.000005 0.000000 -0.009191 -0.237049 0.000000 0.353874 -0.003454 0.000000 -0.009722 -0.195008 0.000000 0.344176 -0.001636 0.000000 -0.009637 -0.160093 0.000000 0.337830 -0.000313 0.000000 -0.009186 -0.131872 0.000000 0.333726 -0.000293 0.000000 -0.008178 -0.110583 0.000000 0.331822 -0.004602 0.000000 -0.003415 -0.100255 0.000000 0.337468 0.002801 0.000000 -0.002374 -0.062327 0.000000 0.329111 0.008950 0.000000 -0.004757 -0.062202 0.000000 0.330057 -0.005109 0.000000 0.003548 -0.055546 0.000000 0.333691 0.015623 0.000000 -0.002068 -0.032093 0.000000 0.327389 0.005362 0.000000 -0.000920 -0.040858 0.000000 0.332995 -0.005907 0.000000 0.007595 -0.018907 0.000000 0.328010 0.015870 0.000000 0.000815 -0.017236 0.000000 0.325601 -0.001073 0.000000 0.005644 -0.027162 0.000000 0.333837 0.003443 0.000000 0.006512 0.003375 0.000000 0.324673 0.008603 0.000000 0.002865 -0.007082 0.000000 0.326180 -0.009061 0.000000 0.011138 -0.007019 0.000000 0.330621 0.012564 0.000000 0.003825 0.013987 0.000000 0.323955 0.000625 0.000000 0.003782 0.001807 0.000000 0.329969 -0.011610 0.000000 0.011311 0.022724 0.000000 0.325353 0.010150 0.000000 0.003399 0.024867 0.000000 0.323368 -0.006457 0.000000 0.007144 0.017474 0.000000 0.331768 -0.001622 0.000000 0.007359 0.050937 0.000000 0.323479 0.005784 0.000000 0.002581 0.050518 0.000000 0.322922 -0.001332 0.000000 0.001938 0.059432 0.000000 0.323376 -0.003760 0.000000 0.001437 0.072654 0.000000 0.324123 -0.004973 0.000000 0.000525 0.089445 0.000000 0.325510 -0.005765 0.000000 -0.000855 0.110133 0.000000 0.328155 -0.006267 0.000000 -0.002709 0.135339 0.000000 0.332841 -0.006360 0.000000 -0.004944 0.165740 0.000000 