# vtk DataFile Version 2.0
Comment goes here
ASCII

DATASET STRUCTURED_POINTS
FIELD FieldData 1
TIME 1 1 double
0.01700000
DIMENSIONS    64   64   1

ORIGIN    0.000   0.000   0.000
SPACING   0.03125 0.03125   1.000

POINT_DATA   4096
SCALARS uX double
LOOKUP_TABLE default

4.571944e-02 -5.823728e-01 3.835485e-01 -7.009544e-01 4.305715e-01 -6.788051e-01 3.606415e-01 -5.673033e-01 2.293804e-01 -4.011102e-01 7.081554e-02 -2.269918e-01 -7.876902e-02 -7.374988e-02 -1.969764e-01 3.900707e-02 -2.717383e-01 1.050669e-01 -3.041116e-01 1.273625e-01 -2.958627e-01 1.125737e-01 -2.574707e-01 7.444420e-02 -2.083170e-01 3.240690e-02 -1.625694e-01 8.278227e-04 -1.371119e-01 -5.126965e-03 -1.320448e-01 -6.776323e-03 -1.195220e-01 -1.904861e-02 -1.066403e-01 -1.907690e-02 -1.138164e-01 -6.107771e-04 -1.313796e-01 1.375981e-02 -1.382154e-01 1.706710e-02 -1.312588e-01 -5.451483e-03 -9.241429e-02 -5.684905e-02 -3.946209e-02 -1.058708e-01 -4.490582e-03 -1.214434e-01 -1.640992e-02 -8.192968e-02 -8.707366e-02 9.024326e-03 -1.995477e-01 1.245486e-01 -3.091287e-01 1.970493e-01 -3.414234e-01 1.646908e-01 -2.660503e-01 3.683315e-02 -1.177999e-01 -1.379946e-01 
-6.602515e-02 3.388412e-01 -4.103288e-01 4.245592e-01 -4.355140e-01 4.005651e-01 -3.844026e-01 3.265329e-01 -3.111029e-01 2.232793e-01 -2.249069e-01 1.158003e-01 -1.430151e-01 1.781178e-02 -7.528348e-02 -5.970123e-02 -2.720049e-02 -1.140777e-01 2.672312e-03 -1.480215e-01 1.400966e-02 -1.622249e-01 7.382029e-03 -1.594094e-01 -3.785090e-03 -1.555842e-01 -1.296308e-02 -1.546106e-01 -1.192182e-02 -1.705585e-01 2.517326e-03 -1.864435e-01 8.661848e-03 -1.905984e-01 1.019670e-02 -1.982359e-01 2.160016e-02 -2.159648e-01 3.765264e-02 -2.273533e-01 4.484635e-02 -2.309406e-01 4.362852e-02 -2.174695e-01 1.936614e-02 -1.801967e-01 -1.813403e-02 -1.389639e-01 -5.042901e-02 -1.118841e-01 -5.949910e-02 -1.113444e-01 -3.762712e-02 -1.374609e-01 7.765491e-03 -1.796220e-01 5.720997e-02 -2.029123e-01 6.928569e-02 -1.734053e-01 3.014479e-02 -9.968751e-02 -3.687386e-02 -1.780886e-02 
5.362154e-01 3.887489e-01 1.454553e-01 4.710930e-01 1.297475e-01 4.478061e-01 1.895727e-01 3.604366e-01 3.268184e-01 2.406261e-01 4.840079e-01 1.207024e-01 6.290404e-01 1.728567e-02 7.474657e-01 -5.812122e-02 8.320839e-01 -1.037882e-01 8.854149e-01 -1.235286e-01 9.086572e-01 -1.206829e-01 9.073110e-01 -1.026047e-01 8.962272e-01 -8.370547e-02 8.850321e-01 -7.205764e-02 8.862884e-01 -8.074326e-02 9.009445e-01 -9.043734e-02 9.046539e-01 -8.769991e-02 9.029151e-01 -9.219649e-02 9.138751e-01 -1.108805e-01 9.304434e-01 -1.247195e-01 9.355451e-01 -1.301811e-01 9.289762e-01 -1.156839e-01 8.938817e-01 -7.607370e-02 8.425054e-01 -3.514113e-02 7.977875e-01 -1.570886e-02 7.814254e-01 -3.400840e-02 8.028373e-01 -8.887883e-02 8.514956e-01 -1.645724e-01 8.988739e-01 -2.133902e-01 8.899686e-01 -1.896856e-01 8.036640e-01 -1.027832e-01 6.692907e-01 1.040017e-02 
6.159192e-01 -1.579658e-01 5.791981e-01 -1.785008e-01 1.670138e-01 -1.547441e-01 5.326243e-01 -1.122314e-01 7.541770e-01 -6.543319e-02 8.980683e-01 -2.348087e-02 1.000744e+00 1.130925e-02 1.079690e+00 3.563732e-02 1.144783e+00 5.016542e-02 1.199056e+00 5.718350e-02 1.246972e+00 5.664037e-02 1.292013e+00 4.911176e-02 1.328930e+00 4.307875e-02 1.357386e+00 3.918188e-02 1.373903e+00 4.659543e-02 1.377553e+00 5.317947e-02 1.384435e+00 5.078553e-02 1.391618e+00 5.129045e-02 1.388109e+00 6.003169e-02 1.377193e+00 6.565462e-02 1.367427e+00 6.909380e-02 1.355703e+00 6.447799e-02 1.353068e+00 4.542325e-02 1.353143e+00 2.380989e-02 1.345617e+00 8.791649e-03 1.319807e+00 7.395841e-03 1.270129e+00 2.104778e-02 1.197689e+00 4.774931e-02 1.107422e+00 6.937191e-02 1.019418e+00 6.680412e-02 9.340826e-01 5.051092e-02 8.243384e-01 5.671201e-02 
7.900402e-01 -8.104650e-02 6.932015e-01 -8.171185e-02 3.008062e-01 -6.964752e-02 6.606180e-01 -4.618483e-02 8.640568e-01 -2.404756e-02 9.993572e-01 -5.960884e-03 1.099087e+00 8.812780e-03 1.176338e+00 1.963367e-02 1.238115e+00 2.716867e-02 1.287122e+00 3.245343e-02 1.327119e+00 3.510533e-02 1.361331e+00 3.481471e-02 1.388161e+00 3.527548e-02 1.408614e+00 3.609505e-02 1.421505e+00 4.189994e-02 1.426610e+00 4.654681e-02 1.432484e+00 4.577792e-02 1.437595e+00 4.596881e-02 1.436436e+00 5.005798e-02 1.430573e+00 5.225070e-02 1.423741e+00 5.379279e-02 1.413491e+00 5.172145e-02 1.405568e+00 4.214058e-02 1.397028e+00 3.022023e-02 1.383482e+00 1.950373e-02 1.360001e+00 1.320037e-02 1.323820e+00 1.285223e-02 1.274308e+00 1.958139e-02 1.211089e+00 2.632165e-02 1.141380e+00 2.464153e-02 1.062721e+00 1.992226e-02 9.576827e-01 2.514077e-02 
7.622596e-01 -8.855240e-02 6.483695e-01 -1.124054e-01 4.410898e-01 -1.133591e-01 6.524618e-01 -8.643868e-02 8.211935e-01 -5.554554e-02 9.467277e-01 -2.512820e-02 1.041769e+00 1.900055e-03 1.116520e+00 2.311693e-02 1.177448e+00 3.760328e-02 1.227854e+00 4.583840e-02 1.271013e+00 4.852723e-02 1.308647e+00 4.699897e-02 1.339442e+00 4.510450e-02 1.363026e+00 4.472888e-02 1.378578e+00 4.770960e-02 1.387129e+00 5.094446e-02 1.393383e+00 5.202191e-02 1.396931e+00 5.377813e-02 1.395429e+00 5.753781e-02 1.389843e+00 5.999121e-02 1.382591e+00 6.020851e-02 1.374409e+00 5.577458e-02 1.367496e+00 4.513559e-02 1.359143e+00 3.270817e-02 1.343983e+00 2.315130e-02 1.316155e+00 2.015473e-02 1.272874e+00 2.477347e-02 1.214750e+00 3.447199e-02 1.145012e+00 4.120095e-02 1.069681e+00 3.714551e-02 9.876521e-01 2.203323e-02 8.881405e-01 -6.601990e-03 
8.939636e-01 -3.912392e-02 7.674000e-01 -5.081106e-02 5.633060e-01 -5.146712e-02 7.646922e-01 -3.721160e-02 9.221448e-01 -2.224220e-02 1.040346e+00 -7.823732e-03 1.131314e+00 5.454457e-03 1.203319e+00 1.670861e-02 1.260961e+00 2.508120e-02 1.306256e+00 3.076386e-02 1.342875e+00 3.421669e-02 1.372980e+00 3.545365e-02 1.396299e+00 3.681827e-02 1.413958e+00 3.891945e-02 1.425848e+00 4.188829e-02 1.433152e+00 4.464078e-02 1.438670e+00 4.574581e-02 1.441509e+00 4.678135e-02 1.441178e+00 4.870802e-02 1.438100e+00 4.942272e-02 1.432549e+00 4.938999e-02 1.424992e+00 4.729670e-02 1.416180e+00 4.123878e-02 1.405034e+00 3.337459e-02 1.389025e+00 2.518239e-02 1.364384e+00 1.844839e-02 1.330327e+00 1.499265e-02 1.286985e+00 1.495990e-02 1.234461e+00 1.528517e-02 1.173645e+00 1.238809e-02 1.101639e+00 5.732769e-03 1.010559e+00 -6.616863e-03 
8.959896e-01 -5.559965e-02 8.045355e-01 -7.572059e-02 6.923448e-01 -7.617491e-02 8.118898e-01 -6.389204e-02 9.248722e-01 -4.473930e-02 1.020038e+00 -2.303388e-02 1.098228e+00 -1.588684e-03 1.163003e+00 1.712540e-02 1.216809e+00 3.086465e-02 1.260216e+00 3.945025e-02 1.296872e+00 4.393702e-02 1.328173e+00 4.471370e-02 1.353050e+00 4.508125e-02 1.372424e+00 4.635973e-02 1.385790e+00 4.797914e-02 1.394554e+00 5.014418e-02 1.400696e+00 5.170630e-02 1.403040e+00 5.327018e-02 1.402599e+00 5.532829e-02 1.399876e+00 5.570164e-02 1.394566e+00 5.495824e-02 1.388009e+00 5.204239e-02 1.379789e+00 4.530547e-02 1.368663e+00 3.739564e-02 1.351741e+00 2.985184e-02 1.324360e+00 2.444970e-02 1.286492e+00 2.281017e-02 1.239501e+00 2.369389e-02 1.185117e+00 2.306785e-02 1.125104e+00 1.673617e-02 1.058689e+00 2.603134e-03 9.825237e-01 -2.127933e-02 
1.007246e+00 -2.686967e-02 9.141647e-01 -3.585453e-02 8.036505e-01 -3.625577e-02 9.155934e-01 -2.935751e-02 1.020175e+00 -1.963617e-02 1.108723e+00 -8.261228e-03 1.182511e+00 4.318270e-03 1.244627e+00 1.680736e-02 1.296050e+00 2.587078e-02 1.333970e+00 3.140875e-02 1.365089e+00 3.556960e-02 1.391284e+00 3.603952e-02 1.410062e+00 3.766971e-02 1.425054e+00 4.093129e-02 1.434745e+00 4.215058e-02 1.441494e+00 4.438425e-02 1.447509e+00 4.582202e-02 1.448541e+00 4.666422e-02 1.448658e+00 4.849536e-02 1.448036e+00 4.737649e-02 1.443406e+00 4.704873e-02 1.437794e+00 4.682433e-02 1.429135e+00 4.210184e-02 1.417883e+00 3.670005e-02 1.403125e+00 2.931679e-02 1.378102e+00 2.034242e-02 1.346124e+00 1.364880e-02 1.308958e+00 9.917611e-03 1.266271e+00 7.299800e-03 1.217101e+00 3.479697e-03 1.159294e+00 -2.915202e-03 1.089743e+00 -1.290564e-02 
1.032320e+00 -4.095191e-02 9.765170e-01 -5.370194e-02 9.218248e-01 -5.407090e-02 9.814014e-01 -4.823691e-02 1.047581e+00 -3.634946e-02 1.110763e+00 -2.053331e-02 1.168293e+00 -2.245813e-03 1.220529e+00 1.619249e-02 1.266467e+00 2.944089e-02 1.299245e+00 3.720578e-02 1.328047e+00 4.306415e-02 1.353961e+00 4.288786e-02 1.372130e+00 4.415365e-02 1.387867e+00 4.773573e-02 1.397574e+00 4.775613e-02 1.404653e+00 4.992468e-02 1.411806e+00 5.145913e-02 1.411907e+00 5.224474e-02 1.412095e+00 5.474378e-02 1.412441e+00 5.257360e-02 1.407844e+00 5.186828e-02 1.403379e+00 5.213359e-02 1.394964e+00 4.659266e-02 1.383963e+00 4.153532e-02 1.369895e+00 3.434029e-02 1.342936e+00 2.493109e-02 1.309223e+00 1.829564e-02 1.271774e+00 1.442272e-02 1.231062e+00 1.059899e-02 1.187094e+00 3.956434e-03 1.139432e+00 -7.164242e-03 1.087509e+00 -2.299075e-02 
1.129940e+00 -2.155575e-02 1.075426e+00 -2.711485e-02 1.022731e+00 -2.744776e-02 1.076076e+00 -2.450751e-02 1.135384e+00 -1.868689e-02 1.192444e+00 -9.836929e-03 1.245716e+00 3.287848e-03 1.296869e+00 2.029970e-02 1.344576e+00 3.052227e-02 1.368444e+00 3.349622e-02 1.392345e+00 4.059495e-02 1.416786e+00 3.561360e-02 1.427618e+00 3.681761e-02 1.441606e+00 4.514926e-02 1.446449e+00 4.145816e-02 1.450650e+00 4.475023e-02 1.461327e+00 4.670484e-02 1.456428e+00 4.552431e-02 1.457020e+00 5.108681e-02 1.461809e+00 4.465555e-02 1.455273e+00 4.449391e-02 1.453853e+00 5.091185e-02 1.444566e+00 4.361910e-02 1.434305e+00 4.170775e-02 1.427517e+00 3.515303e-02 1.398612e+00 1.997940e-02 1.367033e+00 9.278734e-03 1.336442e+00 3.659560e-03 1.304534e+00 3.780251e-04 1.269060e+00 -2.978832e-03 1.228447e+00 -7.728150e-03 1.181833e+00 -1.419987e-02 
1.167683e+00 -3.254276e-02 1.144515e+00 -4.035888e-02 1.130351e+00 -4.064601e-02 1.146552e+00 -3.853647e-02 1.174606e+00 -3.181459e-02 1.207871e+00 -2.047904e-02 1.244142e+00 -3.132084e-03 1.284767e+00 2.037448e-02 1.329058e+00 3.394107e-02 1.342213e+00 3.681444e-02 1.362358e+00 4.822235e-02 1.387078e+00 3.976753e-02 1.393672e+00 4.071715e-02 1.409598e+00 5.293264e-02 1.411736e+00 4.543301e-02 1.414834e+00 5.006215e-02 1.429948e+00 5.228288e-02 1.420582e+00 4.945077e-02 1.421706e+00 5.864924e-02 1.429645e+00 4.816637e-02 1.421008e+00 4.763191e-02 1.423056e+00 5.811938e-02 1.412469e+00 4.739811e-02 1.402423e+00 4.739823e-02 1.401046e+00 4.121009e-02 1.367997e+00 2.270963e-02 1.335589e+00 1.099988e-02 1.307333e+00 5.059314e-03 1.280304e+00 8.888797e-04 1.252726e+00 -4.410018e-03 1.224189e+00 -1.214895e-02 1.195252e+00 -2.213658e-02 
1.254295e+00 -1.855390e-02 1.233228e+00 -2.207004e-02 1.221236e+00 -2.232308e-02 1.232003e+00 -2.247800e-02 1.253824e+00 -2.074854e-02 1.280584e+00 -1.569321e-02 1.311562e+00 -1.842809e-03 1.353326e+00 2.994229e-02 1.416571e+00 4.360187e-02 1.402696e+00 3.124689e-02 1.419858e+00 5.744115e-02 1.454984e+00 2.960798e-02 1.442105e+00 2.814697e-02 1.468071e+00 6.203075e-02 1.458017e+00 3.394563e-02 1.453748e+00 4.547653e-02 1.490727e+00 5.175000e-02 1.458434e+00 3.745125e-02 1.461981e+00 6.511448e-02 1.486093e+00 3.635223e-02 1.462003e+00 3.470574e-02 1.478692e+00 6.911159e-02 1.460180e+00 3.991444e-02 1.447601e+00 5.019305e-02 1.474345e+00 5.042715e-02 1.421198e+00 1.527792e-02 1.386802e+00 -2.766632e-04 1.365211e+00 -5.059163e-03 1.346287e+00 -6.564218e-03 1.325982e+00 -8.066501e-03 1.303319e+00 -1.066669e-02 1.278804e+00 -1.438594e-02 
1.297537e+00 -2.703843e-02 1.301874e+00 -3.204289e-02 1.318561e+00 -3.224203e-02 1.301134e+00 -3.328495e-02 1.297403e+00 -3.177717e-02 1.302615e+00 -2.644479e-02 1.316279e+00 -1.062213e-02 1.346800e+00 3.365605e-02 1.421621e+00 5.093537e-02 1.378016e+00 2.709352e-02 1.393624e+00 7.327923e-02 1.436420e+00 2.801159e-02 1.406175e+00 2.471095e-02 1.446456e+00 7.892186e-02 1.423543e+00 3.109449e-02 1.413845e+00 5.112550e-02 1.472521e+00 5.970271e-02 1.418053e+00 3.425323e-02 1.425948e+00 8.158936e-02 1.461904e+00 3.489556e-02 1.423394e+00 3.132620e-02 1.457081e+00 8.577900e-02 1.427971e+00 3.786387e-02 1.412742e+00 5.774514e-02 1.464665e+00 6.144418e-02 1.391341e+00 1.390989e-02 1.357653e+00 -2.144971e-03 1.341709e+00 -6.172862e-03 1.330097e+00 -7.764031e-03 1.319186e+00 -1.036922e-02 1.309021e+00 -1.484797e-02 1.301023e+00 -2.080419e-02 
1.374527e+00 -1.637070e-02 1.380980e+00 -1.880410e-02 1.399710e+00 -1.896762e-02 1.377633e+00 -2.217078e-02 1.367944e+00 -2.597265e-02 1.364844e+00 -3.014929e-02 1.366927e+00 -2.524710e-02 1.391160e+00 5.210264e-02 1.562850e+00 8.702156e-02 1.404490e+00 -1.153187e-02 1.433288e+00 1.248813e-01 1.536717e+00 4.096942e-04 1.418115e+00 -2.008911e-02 1.533293e+00 1.428841e-01 1.459764e+00 -1.243818e-02 1.417976e+00 4.555973e-02 1.588792e+00 8.250722e-02 1.422128e+00 -1.382840e-02 1.450209e+00 1.321258e-01 1.554695e+00 4.885674e-03 1.427574e+00 -1.492915e-02 1.542163e+00 1.529831e-01 1.465691e+00 -1.958165e-03 1.423387e+00 6.282696e-02 1.602196e+00 1.061768e-01 1.422453e+00 -9.214938e-03 1.393894e+00 -2.097175e-02 1.391477e+00 -1.724804e-02 1.389404e+00 -1.359142e-02 1.385104e+00 -1.205392e-02 1.379765e+00 -1.240376e-02 1.375352e+00 -1.405605e-02 
1.418833e+00 -2.286074e-02 1.445902e+00 -2.625257e-02 1.486961e+00 -2.635648e-02 1.442625e+00 -3.037648e-02 1.411766e+00 -3.522236e-02 1.389002e+00 -4.245141e-02 1.371420e+00 -4.735737e-02 1.370778e+00 5.042214e-03 1.486675e+00 2.494702e-02 1.351984e+00 -5.522567e-02 1.374949e+00 5.927488e-02 1.449019e+00 -4.354371e-02 1.349619e+00 -5.530548e-02 1.446976e+00 7.747313e-02 1.380420e+00 -5.410998e-02 1.349177e+00 -3.796031e-04 1.490966e+00 2.745006e-02 1.347822e+00 -5.349811e-02 1.378319e+00 7.306003e-02 1.461235e+00 -3.650278e-02 1.352678e+00 -4.784831e-02 1.456927e+00 9.359973e-02 1.388042e+00 -4.026277e-02 1.358741e+00 2.350258e-02 1.520415e+00 6.401478e-02 1.368807e+00 -2.691824e-02 1.362598e+00 -2.779769e-02 1.372132e+00 -2.007635e-02 1.379260e+00 -1.549649e-02 1.384770e+00 -1.447532e-02 1.391378e+00 -1.604600e-02 1.401778e+00 -1.917807e-02 
1.487052e+00 -1.410679e-02 1.515853e+00 -1.574547e-02 1.558589e+00 -1.580878e-02 1.511150e+00 -2.110945e-02 1.475744e+00 -3.043461e-02 1.443592e+00 -5.239140e-02 1.397375e+00 -1.169173e-01 1.284576e+00 -3.456767e-01 8.762079e-01 -4.518818e-01 1.202072e+00 -2.780977e-01 1.137096e+00 -5.700825e-01 9.133907e-01 -3.011560e-01 1.158830e+00 -2.705727e-01 9.266004e-01 -6.123753e-01 1.091797e+00 -2.948904e-01 1.176214e+00 -4.179268e-01 8.199316e-01 -4.834707e-01 1.172700e+00 -2.937483e-01 1.114348e+00 -5.908617e-01 8.917291e-01 -3.069708e-01 1.148334e+00 -2.704989e-01 9.200149e-01 -6.124751e-01 1.091609e+00 -2.852673e-01 1.184300e+00 -4.012298e-01 8.386433e-01 -4.400289e-01 1.256389e+00 -1.430861e-01 1.378653e+00 -5.814041e-02 1.418076e+00 -2.958967e-02 1.434779e+00 -1.853758e-02 1.445115e+00 -1.412186e-02 1.455036e+00 -1.276761e-02 1.467976e+00 -1.300901e-02 
1.529665e+00 -1.895469e-02 1.575340e+00 -2.110371e-02 1.635955e+00 -2.110186e-02 1.570819e+00 -2.652883e-02 1.518253e+00 -3.568089e-02 1.469471e+00 -5.803684e-02 1.404622e+00 -1.288816e-01 1.260515e+00 -4.013410e-01 7.617697e-01 -5.273324e-01 1.151620e+00 -3.106881e-01 1.065323e+00 -6.788102e-01 7.855636e-01 -3.418631e-01 1.087826e+00 -3.056748e-01 7.914120e-01 -7.391740e-01 9.993677e-01 -3.355303e-01 1.103654e+00 -4.954909e-01 6.491777e-01 -5.795481e-01 1.099497e+00 -3.374097e-01 1.022115e+00 -7.214914e-01 7.383633e-01 -3.580393e-01 1.069374e+00 -3.142045e-01 7.711495e-01 -7.573697e-01 9.952745e-01 -3.356786e-01 1.114175e+00 -4.922431e-01 6.581308e-01 -5.484580e-01 1.204611e+00 -1.674440e-01 1.356438e+00 -6.371027e-02 1.405781e+00 -3.113599e-02 1.430064e+00 -1.969765e-02 1.449082e+00 -1.595240e-02 1.469663e+00 -1.562455e-02 1.495505e+00 -1.694879e-02 
1.589620e+00 -1.124676e-02 1.636439e+00 -1.186836e-02 1.698222e+00 -1.182375e-02 1.632674e+00 -1.617050e-02 1.580698e+00 -2.254590e-02 1.537127e+00 -3.281578e-02 1.496765e+00 -4.692146e-02 1.461084e+00 -4.115665e-02 1.483758e+00 -4.562457e-02 1.406654e+00 -8.535972e-02 1.406170e+00 -4.957099e-02 1.419121e+00 -8.774781e-02 1.373349e+00 -9.361013e-02 1.405015e+00 -5.554002e-02 1.376032e+00 -1.013916e-01 1.364760e+00 -8.362410e-02 1.406538e+00 -7.769878e-02 1.359159e+00 -1.048982e-01 1.372706e+00 -6.521895e-02 1.391862e+00 -9.703132e-02 1.359748e+00 -9.835918e-02 1.396092e+00 -6.000435e-02 1.378636e+00 -9.834767e-02 1.380169e+00 -7.289950e-02 1.432399e+00 -5.226645e-02 1.412557e+00 -5.721927e-02 1.441462e+00 -3.762179e-02 1.466150e+00 -2.409019e-02 1.486082e+00 -1.670128e-02 1.505280e+00 -1.302022e-02 1.527058e+00 -1.143222e-02 1.554225e+00 -1.101617e-02 
1.628750e+00 -1.479207e-02 1.689499e+00 -1.563579e-02 1.765867e+00 -1.553105e-02 1.686541e+00 -1.943721e-02 1.621830e+00 -2.424061e-02 1.568524e+00 -2.966828e-02 1.526567e+00 -2.606710e-02 1.515340e+00 5.692910e-02 1.675554e+00 9.559356e-02 1.471510e+00 -1.431141e-02 1.484421e+00 1.382548e-01 1.582735e+00 -7.952697e-04 1.435591e+00 -2.331333e-02 1.556603e+00 1.586909e-01 1.464262e+00 -1.716148e-02 1.412580e+00 4.898521e-02 1.601790e+00 8.933849e-02 1.410263e+00 -2.028295e-02 1.443675e+00 1.452474e-01 1.560939e+00 1.801730e-04 1.419001e+00 -2.145156e-02 1.554424e+00 1.683946e-01 1.471506e+00 -8.923090e-03 1.432131e+00 6.655031e-02 1.645325e+00 1.165458e-01 1.454148e+00 -1.370496e-02 1.442606e+00 -2.498094e-02 1.461954e+00 -2.013020e-02 1.485360e+00 -1.588519e-02 1.511476e+00 -1.384936e-02 1.542423e+00 -1.343045e-02 1.580657e+00 -1.392941e-02 
1.680680e+00 -7.862792e-03 1.741927e+00 -7.427326e-03 1.818867e+00 -7.283091e-03 1.740570e+00 -9.585770e-03 1.677762e+00 -1.156862e-02 1.628622e+00 -1.142546e-02 1.594279e+00 -1.855440e-03 1.585331e+00 4.296902e-02 1.643349e+00 6.092753e-02 1.552688e+00 2.244187e-02 1.546728e+00 8.269131e-02 1.581523e+00 2.239450e-02 1.519363e+00 1.447767e-02 1.561203e+00 8.861535e-02 1.518989e+00 1.952192e-02 1.495706e+00 4.613965e-02 1.572083e+00 6.005748e-02 1.492677e+00 1.983193e-02 1.503632e+00 8.692646e-02 1.554969e+00 2.379950e-02 1.501062e+00 1.673670e-02 1.556206e+00 9.606244e-02 1.523760e+00 2.612974e-02 1.511047e+00 5.623782e-02 1.602208e+00 6.935721e-02 1.520796e+00 5.967169e-03 1.507530e+00 -9.841248e-03 1.518383e+00 -1.190580e-02 1.537772e+00 -1.088868e-02 1.562640e+00 -9.653446e-03 1.593522e+00 -8.783239e-03 1.632114e+00 -8.245874e-03 
1.715103e+00 -1.048560e-02 1.787938e+00 -1.014652e-02 1.876917e+00 -9.946675e-03 1.787489e+00 -1.173766e-02 1.714245e+00 -1.241040e-02 1.656215e+00 -9.754063e-03 1.614907e+00 2.529877e-03 1.597483e+00 3.537836e-02 1.613725e+00 4.878378e-02 1.555692e+00 3.421552e-02 1.539338e+00 6.357219e-02 1.549328e+00 3.172049e-02 1.512406e+00 2.985484e-02 1.523917e+00 6.744206e-02 1.498678e+00 3.494429e-02 1.484267e+00 4.779056e-02 1.519641e+00 5.389780e-02 1.479312e+00 3.719772e-02 1.482829e+00 6.866270e-02 1.511552e+00 3.540959e-02 1.488402e+00 3.379026e-02 1.515018e+00 7.332091e-02 1.502907e+00 4.061204e-02 1.501645e+00 5.359716e-02 1.550380e+00 5.430002e-02 1.511677e+00 1.462998e-02 1.502306e+00 -2.921758e-03 1.514545e+00 -8.368392e-03 1.537836e+00 -9.678695e-03 1.568877e+00 -9.973708e-03 1.607743e+00 -1.017759e-02 1.655824e+00 -1.040473e-02 
1.759098e+00 -4.365506e-03 1.831790e+00 -3.084084e-03 1.920706e+00 -2.851812e-03 1.832707e+00 -3.509749e-03 1.761161e+00 -2.772156e-03 1.705126e+00 1.204928e-03 1.664908e+00 1.178791e-02 1.642358e+00 3.172261e-02 1.636087e+00 4.120611e-02 1.601120e+00 3.819303e-02 1.583580e+00 5.047915e-02 1.579586e+00 3.656905e-02 1.558037e+00 3.604028e-02 1.555892e+00 5.185952e-02 1.540744e+00 3.927042e-02 1.531508e+00 4.448699e-02 1.543714e+00 4.678478e-02 1.525818e+00 4.094531e-02 1.526503e+00 5.344611e-02 1.539962e+00 3.895367e-02 1.532669e+00 3.866375e-02 1.545011e+00 5.535467e-02 1.542676e+00 4.216247e-02 1.545436e+00 4.536660e-02 1.568544e+00 4.069799e-02 1.553956e+00 1.753468e-02 1.551080e+00 3.489820e-03 1.562405e+00 -2.841100e-03 1.583984e+00 -5.190965e-03 1.613921e+00 -5.790754e-03 1.652217e+00 -5.661804e-03 1.700003e+00 -5.173338e-03 
1.787954e+00 -6.424978e-03 1.870339e+00 -5.218762e-03 1.969264e+00 -4.936335e-03 1.871898e+00 -5.286800e-03 1.791309e+00 -3.858530e-03 1.726846e+00 1.027306e-03 1.678561e+00 1.166532e-02 1.646692e+00 2.802347e-02 1.626674e+00 3.725809e-02 1.593731e+00 3.889549e-02 1.571447e+00 4.609989e-02 1.559211e+00 3.917303e-02 1.539659e+00 3.979851e-02 1.530568e+00 4.869447e-02 1.517211e+00 4.322375e-02 1.508496e+00 4.608466e-02 1.511872e+00 4.741344e-02 1.501188e+00 4.528374e-02 1.500895e+00 5.119007e-02 1.509309e+00 4.319984e-02 1.507919e+00 4.330100e-02 1.516134e+00 5.183471e-02 1.518628e+00 4.493098e-02 1.524621e+00 4.436335e-02 1.540876e+00 3.757749e-02 1.537814e+00 1.980818e-02 1.541031e+00 6.503693e-03 1.556435e+00 -8.531875e-04 1.582654e+00 -4.438115e-03 1.618442e+00 -6.084524e-03 1.663823e+00 -6.772154e-03 1.719788e+00 -6.877768e-03 
1.824057e+00 -1.172366e-03 1.905673e+00 6.380522e-04 2.003877e+00 9.439810e-04 1.907988e+00 1.071749e-03 1.828818e+00 2.815883e-03 1.765507e+00 7.481554e-03 1.717440e+00 1.633857e-02 1.683497e+00 2.837935e-02 1.658912e+00 3.595420e-02 1.630300e+00 3.874939e-02 1.608515e+00 4.279747e-02 1.593713e+00 3.930816e-02 1.576852e+00 3.970005e-02 1.565955e+00 4.424569e-02 1.554523e+00 4.188534e-02 1.546688e+00 4.330733e-02 1.545831e+00 4.397877e-02 1.539172e+00 4.322452e-02 1.538572e+00 4.589357e-02 1.543641e+00 4.164609e-02 1.544646e+00 4.170155e-02 1.550555e+00 4.584865e-02 1.554553e+00 4.200488e-02 1.560874e+00 3.985434e-02 1.572383e+00 3.305733e-02 1.574486e+00 1.979976e-02 1.580651e+00 8.833129e-03 1.596372e+00 2.154445e-03 1.621932e+00 -1.213724e-03 1.656888e+00 -2.566832e-03 1.701466e+00 -2.775987e-03 1.756658e+00 -2.272633e-03 
1.846738e+00 -2.946900e-03 1.936485e+00 -1.238323e-03 2.043031e+00 -8.891439e-04 1.939083e+00 -7.115064e-04 1.851984e+00 1.235795e-03 1.781036e+00 6.132657e-03 1.725623e+00 1.495591e-02 1.684489e+00 2.647155e-02 1.653050e+00 3.435002e-02 1.620284e+00 3.801534e-02 1.594365e+00 4.191645e-02 1.575508e+00 3.991339e-02 1.556302e+00 4.077794e-02 1.542688e+00 4.474200e-02 1.530004e+00 4.343730e-02 1.521059e+00 4.475045e-02 1.518312e+00 4.551807e-02 1.512108e+00 4.513277e-02 1.511291e+00 4.701892e-02 1.515779e+00 4.366269e-02 1.517849e+00 4.356208e-02 1.524084e+00 4.644485e-02 1.529849e+00 4.299518e-02 1.538027e+00 4.013653e-02 1.550651e+00 3.313011e-02 1.557039e+00 2.065587e-02 1.567587e+00 9.866640e-03 1.587654e+00 2.831675e-03 1.618009e+00 -1.113928e-03 1.658487e+00 -3.075500e-03 1.709383e+00 -3.832015e-03 1.771645e+00 -3.763529e-03 
1.875011e+00 1.477029e-03 1.963352e+00 3.504427e-03 2.068491e+00 3.867556e-03 1.966070e+00 3.942279e-03 1.880308e+00 5.450006e-03 1.810385e+00 9.544092e-03 1.755722e+00 1.748249e-02 1.715537e+00 2.873338e-02 1.685990e+00 3.598104e-02 1.652272e+00 3.803651e-02 1.626820e+00 4.218864e-02 1.609439e+00 3.856041e-02 1.589640e+00 3.886623e-02 1.577101e+00 4.377037e-02 1.564206e+00 4.083733e-02 1.555070e+00 4.226975e-02 1.553808e+00 4.318770e-02 1.546237e+00 4.199653e-02 1.545439e+00 4.490283e-02 1.550865e+00 4.040898e-02 1.551743e+00 4.025949e-02 1.558543e+00 4.466676e-02 1.563681e+00 4.019709e-02 1.571446e+00 3.836174e-02 1.585588e+00 3.260654e-02 1.590591e+00 1.998335e-02 1.600642e+00 9.868544e-03 1.620602e+00 3.814247e-03 1.650594e+00 7.749003e-04 1.690341e+00 -4.103610e-04 1.740216e+00 -4.875186e-04 1.801260e+00 1.758010e-04 
1.891091e+00 -1.917657e-04 1.986236e+00 1.692727e-03 2.098315e+00 2.091226e-03 1.988918e+00 1.985681e-03 1.896196e+00 3.318652e-03 1.819454e+00 7.227303e-03 1.758347e+00 1.528072e-02 1.712850e+00 2.798274e-02 1.680792e+00 3.603483e-02 1.639744e+00 3.682894e-02 1.610507e+00 4.332934e-02 1.591723e+00 3.802501e-02 1.567336e+00 3.839692e-02 1.554293e+00 4.625356e-02 1.538669e+00 4.109133e-02 1.527570e+00 4.352703e-02 1.528241e+00 4.519646e-02 1.517472e+00 4.265303e-02 1.516748e+00 4.782247e-02 1.524253e+00 4.112825e-02 1.523627e+00 4.058695e-02 1.532959e+00 4.760902e-02 1.538323e+00 4.051614e-02 1.547216e+00 3.961120e-02 1.566696e+00 3.468114e-02 1.571772e+00 2.004579e-02 1.584562e+00 9.500658e-03 1.608668e+00 3.424382e-03 1.643357e+00 2.585675e-04 1.688229e+00 -1.195366e-03 1.743706e+00 -1.602646e-03 1.810834e+00 -1.251940e-03 
1.911648e+00 3.568420e-03 2.004699e+00 5.558951e-03 2.114639e+00 5.961957e-03 2.006955e+00 5.270303e-03 1.915601e+00 5.438821e-03 1.839717e+00 7.690271e-03 1.779413e+00 1.503126e-02 1.737254e+00 3.231336e-02 1.717201e+00 4.185078e-02 1.665623e+00 3.507027e-02 1.637518e+00 4.895101e-02 1.626979e+00 3.428719e-02 1.595155e+00 3.297716e-02 1.589173e+00 5.145894e-02 1.569561e+00 3.553033e-02 1.555814e+00 4.106595e-02 1.568142e+00 4.517498e-02 1.546254e+00 3.656047e-02 1.546613e+00 5.090954e-02 1.562084e+00 3.528258e-02 1.552913e+00 3.383470e-02 1.568820e+00 5.268568e-02 1.569659e+00 3.587736e-02 1.575940e+00 4.006972e-02 1.608064e+00 3.977241e-02 1.601227e+00 1.787905e-02 1.610693e+00 6.848382e-03 1.634912e+00 2.453207e-03 1.669641e+00 9.454409e-04 1.713808e+00 7.185613e-04 1.767959e+00 1.178171e-03 1.833360e+00 2.133782e-03 
1.920834e+00 1.913666e-03 2.019531e+00 3.726691e-03 2.135198e+00 4.156887e-03 2.021517e+00 3.120747e-03 1.924063e+00 2.764196e-03 1.841931e+00 4.129728e-03 1.775302e+00 1.071406e-02 1.728262e+00 3.302765e-02 1.717443e+00 4.604758e-02 1.646788e+00 2.961939e-02 1.617088e+00 5.602645e-02 1.612529e+00 3.114918e-02 1.566997e+00 2.773479e-02 1.569481e+00 6.130529e-02 1.541799e+00 3.132104e-02 1.522760e+00 4.201599e-02 1.549721e+00 5.012290e-02 1.512241e+00 3.223885e-02 1.514931e+00 5.994921e-02 1.539917e+00 3.320018e-02 1.519395e+00 2.931505e-02 1.546891e+00 6.337035e-02 1.542292e+00 3.208043e-02 1.546312e+00 4.198944e-02 1.597445e+00 4.700934e-02 1.578128e+00 1.549204e-02 1.590240e+00 4.640442e-03 1.619239e+00 1.101393e-03 1.658666e+00 -3.794714e-05 1.707514e+00 -2.754518e-04 1.766541e+00 -8.858088e-06 1.837104e+00 7.026058e-04 
1.933834e+00 5.281551e-03 2.029662e+00 7.087840e-03 2.142390e+00 7.514034e-03 2.030910e+00 5.606497e-03 1.935022e+00 3.318205e-03 1.853046e+00 8.615932e-04 1.784539e+00 2.655040e-03 1.737838e+00 4.035044e-02 1.779306e+00 6.674910e-02 1.653813e+00 1.066361e-02 1.632826e+00 8.197625e-02 1.663323e+00 1.873567e-02 1.574662e+00 5.045978e-03 1.616594e+00 9.441880e-02 1.566448e+00 9.347162e-03 1.531669e+00 3.792260e-02 1.616305e+00 6.261404e-02 1.522484e+00 7.492042e-03 1.534867e+00 8.459466e-02 1.595499e+00 1.817661e-02 1.528805e+00 4.931190e-03 1.595907e+00 9.725335e-02 1.567594e+00 1.122346e-02 1.555858e+00 4.273007e-02 1.669456e+00 7.133478e-02 1.594138e+00 4.732065e-03 1.606250e+00 -2.997358e-03 1.638967e+00 -1.829859e-03 1.679429e+00 -1.138474e-04 1.727450e+00 1.259456e-03 1.784639e+00 2.479017e-03 1.852810e+00 3.770433e-03 
1.935921e+00 3.604585e-03 2.036354e+00 5.224664e-03 2.153739e+00 5.669981e-03 2.037278e+00 3.418064e-03 1.936216e+00 4.559141e-04 1.848441e+00 -3.951829e-03 1.771884e+00 -8.909458e-03 1.708902e+00 2.997622e-03 1.696825e+00 1.169552e-02 1.608070e+00 -1.961545e-02 1.579154e+00 1.629736e-02 1.576185e+00 -1.505596e-02 1.518071e+00 -2.172992e-02 1.530628e+00 2.193206e-02 1.496720e+00 -2.150095e-02 1.474198e+00 -6.213611e-03 1.512082e+00 5.638606e-03 1.462438e+00 -2.281535e-02 1.469644e+00 1.658843e-02 1.498164e+00 -1.577117e-02 1.466552e+00 -2.180514e-02 1.505896e+00 2.315537e-02 1.497023e+00 -1.992220e-02 1.500686e+00 -1.784294e-03 1.569264e+00 1.582534e-02 1.549084e+00 -1.079567e-02 1.579748e+00 -7.806782e-03 1.619701e+00 -3.645906e-03 1.664726e+00 -1.167692e-03 1.716767e+00 2.518398e-04 1.778015e+00 1.280460e-03 1.850440e+00 2.323319e-03 
1.941550e+00 6.891431e-03 2.038233e+00 8.535554e-03 2.151797e+00 8.969629e-03 2.038645e+00 6.112604e-03 1.940174e+00 1.300481e-03 1.852362e+00 -9.658805e-03 1.765803e+00 -4.240912e-02 1.651203e+00 -1.636016e-01 1.377673e+00 -2.412891e-01 1.521743e+00 -1.333216e-01 1.459133e+00 -2.980071e-01 1.296247e+00 -1.513340e-01 1.421270e+00 -1.278330e-01 1.275225e+00 -3.324095e-01 1.347650e+00 -1.445904e-01 1.392102e+00 -2.108948e-01 1.178223e+00 -2.631728e-01 1.379021e+00 -1.458815e-01 1.347905e+00 -3.173932e-01 1.209715e+00 -1.586187e-01 1.368918e+00 -1.324177e-01 1.244279e+00 -3.403980e-01 1.343896e+00 -1.453570e-01 1.414959e+00 -2.093520e-01 1.223231e+00 -2.510202e-01 1.488044e+00 -7.141693e-02 1.583618e+00 -2.221775e-02 1.635740e+00 -6.632383e-03 1.681803e+00 -7.151873e-04 1.732054e+00 2.090852e-03 1.790514e+00 3.861240e-03 1.859652e+00 5.359628e-03 
1.936381e+00 5.157873e-03 2.036717e+00 6.637336e-03 2.153977e+00 7.081864e-03 2.037026e+00 4.151831e-03 1.934817e+00 -6.292947e-04 1.843454e+00 -1.139522e-02 1.753788e+00 -4.339803e-02 1.637437e+00 -1.609931e-01 1.367324e+00 -2.365943e-01 1.503133e+00 -1.315619e-01 1.439459e+00 -2.904809e-01 1.278598e+00 -1.482213e-01 1.397531e+00 -1.248269e-01 1.254638e+00 -3.224371e-01 1.323034e+00 -1.405872e-01 1.365191e+00 -2.041354e-01 1.157801e+00 -2.546500e-01 1.351236e+00 -1.411542e-01 1.321385e+00 -3.064228e-01 1.187936e+00 -1.533361e-01 1.342041e+00 -1.278391e-01 1.223022e+00 -3.284790e-01 1.319961e+00 -1.406416e-01 1.390307e+00 -2.019918e-01 1.208017e+00 -2.422496e-01 1.465536e+00 -6.903557e-02 1.561240e+00 -2.150248e-02 1.615267e+00 -6.561110e-03 1.663822e+00 -1.081730e-03 1.716904e+00 1.324450e-03 1.778471e+00 2.718256e-03 1.850953e+00 3.885191e-03 
1.934822e+00 8.591213e-03 2.030417e+00 1.024631e-02 2.142881e+00 1.067105e-02 2.031119e+00 8.176345e-03 1.934615e+00 4.727035e-03 1.851136e+00 -3.634714e-04 1.778704e+00 -5.750364e-03 1.720507e+00 8.387663e-03 1.717669e+00 1.774099e-02 1.625974e+00 -1.772182e-02 1.600678e+00 2.288155e-02 1.603797e+00 -1.381687e-02 1.543140e+00 -2.143015e-02 1.561779e+00 2.849968e-02 1.526169e+00 -2.147955e-02 1.503083e+00 -3.898123e-03 1.548681e+00 9.383545e-03 1.492339e+00 -2.308819e-02 1.500936e+00 2.253339e-02 1.533884e+00 -1.547415e-02 1.496368e+00 -2.206532e-02 1.540165e+00 3.066912e-02 1.526953e+00 -1.906578e-02 1.527775e+00 2.588676e-03 1.603365e+00 2.275880e-02 1.572832e+00 -8.944884e-03 1.600013e+00 -6.163677e-03 1.637513e+00 -1.251207e-03 1.679768e+00 2.038911e-03 1.728480e+00 4.137084e-03 1.785862e+00 5.686539e-03 1.853977e+00 7.097740e-03 