# vtk DataFile Version 2.0
Comment goes here
ASCII

DATASET STRUCTURED_POINTS
FIELD FieldData 1
TIME 1 1 double
0.05200000
DIMENSIONS    64   64   1

ORIGIN    0.000   0.000   0.000
SPACING   0.03125 0.03125   1.000

POINT_DATA   4096
SCALARS uX double
LOOKUP_TABLE default

7.596932e-01 -1.493493e+00 5.028939e-01 -1.433038e+00 3.097060e-01 -1.351224e+00 3.592882e-01 -1.175166e+00 2.796303e-01 -9.700348e-01 1.475786e-01 -7.762399e-01 2.002651e-02 -6.220932e-01 -7.449209e-02 -5.146536e-01 -1.314393e-01 -4.461574e-01 -1.611855e-01 -4.038793e-01 -1.725246e-01 -3.789082e-01 -1.742540e-01 -3.518962e-01 -2.018630e-01 -2.734329e-01 -3.034086e-01 -1.140865e-01 -4.804580e-01 1.091355e-01 -7.113910e-01 3.624641e-01 -9.510899e-01 6.024496e-01 -1.163462e+00 7.936581e-01 -1.308880e+00 8.959063e-01 -1.354049e+00 8.971312e-01 -1.305139e+00 8.054473e-01 -1.177387e+00 6.435897e-01 -9.973482e-01 4.392901e-01 -7.859002e-01 2.140494e-01 -5.667583e-01 -1.114088e-02 -3.633422e-01 -2.109765e-01 -1.980238e-01 -3.767258e-01 -7.134169e-02 -5.154136e-01 2.967679e-02 -6.479075e-01 1.294012e-01 -8.083613e-01 2.672823e-01 -1.034578e+00 4.605501e-01 -1.323435e+00 
-6.098459e-01 3.603427e-01 -2.266453e-01 3.005141e-01 -1.169889e-03 2.632219e-01 -1.847203e-01 1.568552e-01 -2.428053e-01 5.183338e-02 -2.464744e-01 -3.927770e-02 -2.380402e-01 -1.061376e-01 -2.372088e-01 -1.483894e-01 -2.480914e-01 -1.737121e-01 -2.652219e-01 -1.892841e-01 -2.856539e-01 -1.971564e-01 -3.088676e-01 -2.078446e-01 -3.163457e-01 -2.455434e-01 -2.799095e-01 -3.273237e-01 -2.014714e-01 -4.421140e-01 -9.349001e-02 -5.727440e-01 2.092727e-02 -6.964997e-01 1.238759e-01 -7.953259e-01 1.942583e-01 -8.467033e-01 2.149117e-01 -8.443242e-01 1.881275e-01 -7.940001e-01 1.245867e-01 -7.092840e-01 3.793307e-02 -6.018319e-01 -6.253422e-02 -4.842868e-01 -1.645044e-01 -3.661721e-01 -2.558252e-01 -2.611584e-01 -3.224866e-01 -1.738885e-01 -3.637269e-01 -1.015503e-01 -3.832945e-01 -3.472136e-02 -3.917189e-01 4.523591e-02 -4.112304e-01 1.626137e-01 -4.504596e-01 3.196107e-01 
1.066398e+00 6.632182e-01 1.021924e+00 6.226633e-01 7.580584e-01 5.638815e-01 1.221233e+00 5.109573e-01 1.581322e+00 3.908840e-01 1.877616e+00 2.642498e-01 2.110349e+00 1.627852e-01 2.283177e+00 9.504937e-02 2.405872e+00 5.759527e-02 2.493990e+00 4.087373e-02 2.556473e+00 3.979684e-02 2.602699e+00 4.773167e-02 2.651093e+00 2.058007e-02 2.742693e+00 -6.055129e-02 2.877446e+00 -1.855682e-01 3.042950e+00 -3.302493e-01 3.209547e+00 -4.683221e-01 3.354264e+00 -5.790007e-01 3.450735e+00 -6.355462e-01 3.474996e+00 -6.307455e-01 3.434492e+00 -5.706295e-01 3.338772e+00 -4.711825e-01 3.207186e+00 -3.486088e-01 3.050400e+00 -2.156102e-01 2.881182e+00 -8.237419e-02 2.713043e+00 3.220784e-02 2.558652e+00 1.216912e-01 2.414207e+00 1.900855e-01 2.268973e+00 2.504678e-01 2.103041e+00 3.249906e-01 1.879179e+00 4.500810e-01 1.565683e+00 6.394110e-01 
3.103316e+00 -3.349907e-02 2.178982e+00 -1.218058e-01 1.085795e+00 -8.863537e-02 2.377868e+00 -2.482264e-02 3.083296e+00 3.156517e-02 3.543530e+00 8.055654e-02 3.880508e+00 1.182256e-01 4.146486e+00 1.447529e-01 4.364358e+00 1.638003e-01 4.541805e+00 1.778764e-01 4.688355e+00 1.841002e-01 4.813268e+00 1.834018e-01 4.911527e+00 1.924611e-01 4.969504e+00 2.208952e-01 4.993630e+00 2.636036e-01 4.991488e+00 3.135815e-01 4.976233e+00 3.619641e-01 4.953606e+00 4.027890e-01 4.933003e+00 4.243805e-01 4.922627e+00 4.238063e-01 4.917310e+00 4.064614e-01 4.911864e+00 3.791909e-01 4.899821e+00 3.454630e-01 4.876283e+00 3.092305e-01 4.835224e+00 2.721260e-01 4.768767e+00 2.421602e-01 4.666855e+00 2.223713e-01 4.526072e+00 2.113380e-01 4.341453e+00 2.036979e-01 4.106772e+00 1.864418e-01 3.819831e+00 1.365706e-01 3.462876e+00 3.221861e-02 
3.137741e+00 1.043345e-01 2.418155e+00 -2.095700e-02 1.514926e+00 -8.079545e-03 2.521110e+00 -1.663879e-02 3.172667e+00 2.149910e-02 3.627263e+00 6.553782e-02 3.967921e+00 1.063289e-01 4.234574e+00 1.423241e-01 4.447872e+00 1.726808e-01 4.616088e+00 1.988506e-01 4.749882e+00 2.188937e-01 4.857178e+00 2.273506e-01 4.941228e+00 2.369610e-01 4.999064e+00 2.510325e-01 5.036655e+00 2.685279e-01 5.056721e+00 2.865088e-01 5.066363e+00 3.034530e-01 5.067454e+00 3.191318e-01 5.063784e+00 3.295490e-01 5.059400e+00 3.326721e-01 5.047163e+00 3.306573e-01 5.026087e+00 3.258314e-01 4.993429e+00 3.168014e-01 4.945758e+00 3.048522e-01 4.881589e+00 2.883957e-01 4.796011e+00 2.721623e-01 4.682239e+00 2.583725e-01 4.538289e+00 2.473776e-01 4.358389e+00 2.377475e-01 4.133612e+00 2.257174e-01 3.855446e+00 1.941717e-01 3.512890e+00 1.164045e-01 
3.243773e+00 -1.335121e-02 2.646907e+00 -4.693955e-02 1.932522e+00 -5.090476e-02 2.652549e+00 -1.745270e-02 3.250171e+00 2.565456e-02 3.686483e+00 6.741657e-02 4.014130e+00 1.050651e-01 4.271219e+00 1.374025e-01 4.478203e+00 1.643432e-01 4.642587e+00 1.868847e-01 4.774961e+00 2.038204e-01 4.882594e+00 2.164697e-01 4.961601e+00 2.327200e-01 5.013047e+00 2.569171e-01 5.040897e+00 2.880722e-01 5.048713e+00 3.225181e-01 5.044727e+00 3.552306e-01 5.032822e+00 3.832356e-01 5.020600e+00 4.011670e-01 5.012287e+00 4.053775e-01 5.001459e+00 3.982249e-01 4.986936e+00 3.816883e-01 4.965317e+00 3.580626e-01 4.931056e+00 3.304746e-01 4.880384e+00 3.006236e-01 4.805831e+00 2.728143e-01 4.702569e+00 2.485136e-01 4.567997e+00 2.261383e-01 4.398705e+00 2.016135e-01 4.189861e+00 1.680000e-01 3.935244e+00 1.165041e-01 3.623363e+00 4.608297e-02 
3.384549e+00 9.059044e-02 2.909465e+00 4.436886e-02 2.329468e+00 3.986062e-02 2.867533e+00 2.933088e-02 3.361710e+00 4.462795e-02 3.753245e+00 7.359232e-02 4.059979e+00 1.076355e-01 4.305369e+00 1.423218e-01 4.505177e+00 1.742840e-01 4.662174e+00 2.021245e-01 4.786576e+00 2.236769e-01 4.888026e+00 2.375344e-01 4.961022e+00 2.495556e-01 5.013160e+00 2.620930e-01 5.050818e+00 2.748849e-01 5.071690e+00 2.886257e-01 5.083892e+00 3.020753e-01 5.088307e+00 3.149798e-01 5.087821e+00 3.247939e-01 5.086312e+00 3.283006e-01 5.072654e+00 3.282806e-01 5.049861e+00 3.252460e-01 5.019259e+00 3.175810e-01 4.972471e+00 3.069231e-01 4.911117e+00 2.921769e-01 4.830797e+00 2.753642e-01 4.725274e+00 2.589254e-01 4.594182e+00 2.432497e-01 4.435239e+00 2.271849e-01 4.243027e+00 2.072045e-01 4.010778e+00 1.767834e-01 3.729674e+00 1.341509e-01 
3.568537e+00 3.583074e-02 3.177412e+00 1.911415e-02 2.714876e+00 1.451397e-02 3.098671e+00 2.013373e-02 3.505532e+00 4.266438e-02 3.853190e+00 7.306023e-02 4.134683e+00 1.066430e-01 4.364615e+00 1.402089e-01 4.555053e+00 1.711959e-01 4.701890e+00 1.989928e-01 4.818977e+00 2.202915e-01 4.917591e+00 2.361238e-01 4.982869e+00 2.530508e-01 5.027295e+00 2.724882e-01 5.056397e+00 2.951086e-01 5.067329e+00 3.199359e-01 5.070940e+00 3.433668e-01 5.064644e+00 3.657159e-01 5.057857e+00 3.811767e-01 5.056495e+00 3.846202e-01 5.043413e+00 3.807919e-01 5.025788e+00 3.694482e-01 5.003477e+00 3.508914e-01 4.967291e+00 3.278181e-01 4.918251e+00 2.996683e-01 4.846150e+00 2.714505e-01 4.750727e+00 2.446692e-01 4.632783e+00 2.187373e-01 4.490837e+00 1.916661e-01 4.320861e+00 1.600586e-01 4.116952e+00 1.209290e-01 3.870536e+00 7.668099e-02 
3.756323e+00 1.078265e-01 3.447452e+00 8.681260e-02 3.080407e+00 8.225652e-02 3.357979e+00 6.821537e-02 3.671221e+00 6.943467e-02 3.961037e+00 8.574279e-02 4.208958e+00 1.137453e-01 4.419200e+00 1.490290e-01 4.600456e+00 1.855406e-01 4.738569e+00 2.166818e-01 4.845346e+00 2.386635e-01 4.942329e+00 2.524482e-01 4.999889e+00 2.636931e-01 5.040748e+00 2.736658e-01 5.079236e+00 2.814379e-01 5.095003e+00 2.909222e-01 5.107741e+00 3.016328e-01 5.113873e+00 3.137463e-01 5.114084e+00 3.238709e-01 5.122736e+00 3.267914e-01 5.107282e+00 3.281202e-01 5.082461e+00 3.272030e-01 5.060450e+00 3.198912e-01 5.014864e+00 3.105940e-01 4.959132e+00 2.962681e-01 4.889562e+00 2.767093e-01 4.793288e+00 2.549304e-01 4.678250e+00 2.335246e-01 4.546928e+00 2.133133e-01 4.395543e+00 1.923118e-01 4.218244e+00 1.675073e-01 4.008289e+00 1.385795e-01 
3.960271e+00 7.305427e-02 3.716653e+00 6.697915e-02 3.434409e+00 6.278829e-02 3.619090e+00 5.608617e-02 3.856382e+00 6.318021e-02 4.094929e+00 8.229129e-02 4.309814e+00 1.119427e-01 4.500250e+00 1.487301e-01 4.672158e+00 1.891290e-01 4.791628e+00 2.236613e-01 4.883519e+00 2.440109e-01 4.980713e+00 2.580195e-01 5.024951e+00 2.723821e-01 5.057218e+00 2.865494e-01 5.088135e+00 3.011199e-01 5.094373e+00 3.173373e-01 5.105182e+00 3.342682e-01 5.098132e+00 3.554023e-01 5.092421e+00 3.701451e-01 5.108947e+00 3.709341e-01 5.090953e+00 3.697527e-01 5.071202e+00 3.633197e-01 5.055577e+00 3.474521e-01 5.018912e+00 3.276663e-01 4.978518e+00 2.995963e-01 4.909280e+00 2.693109e-01 4.820594e+00 2.380317e-01 4.720767e+00 2.083247e-01 4.610429e+00 1.807977e-01 4.484862e+00 1.536203e-01 4.338323e+00 1.252031e-01 4.165308e+00 9.700116e-02 
4.158680e+00 1.260011e-01 3.977806e+00 1.197426e-01 3.769074e+00 1.158508e-01 3.882065e+00 9.767909e-02 4.045855e+00 8.801521e-02 4.227952e+00 9.153768e-02 4.404735e+00 1.132719e-01 4.571244e+00 1.546030e-01 4.735783e+00 2.131751e-01 4.846833e+00 2.470897e-01 4.919053e+00 2.613366e-01 5.026519e+00 2.745339e-01 5.055981e+00 2.798867e-01 5.074154e+00 2.896469e-01 5.125090e+00 2.884454e-01 5.123777e+00 2.883980e-01 5.136853e+00 3.032009e-01 5.145679e+00 3.154199e-01 5.137602e+00 3.244374e-01 5.176257e+00 3.286674e-01 5.152504e+00 3.291795e-01 5.117549e+00 3.338915e-01 5.121613e+00 3.236977e-01 5.071342e+00 3.139812e-01 5.022415e+00 3.079823e-01 4.971599e+00 2.840722e-01 4.876830e+00 2.492263e-01 4.776552e+00 2.186498e-01 4.677496e+00 1.960198e-01 4.572166e+00 1.778728e-01 4.453388e+00 1.605133e-01 4.316575e+00 1.428408e-01 
4.362044e+00 1.013253e-01 4.234274e+00 1.039303e-01 4.092150e+00 1.005472e-01 4.142309e+00 8.615581e-02 4.246998e+00 7.937081e-02 4.381253e+00 8.336679e-02 4.522981e+00 1.048253e-01 4.669787e+00 1.471789e-01 4.835966e+00 2.352361e-01 4.910819e+00 2.672753e-01 4.952987e+00 2.729321e-01 5.080760e+00 2.858619e-01 5.081150e+00 2.860370e-01 5.094641e+00 3.094513e-01 5.137070e+00 3.070567e-01 5.121245e+00 3.030049e-01 5.153389e+00 3.312716e-01 5.131910e+00 3.513026e-01 5.114181e+00 3.659063e-01 5.183189e+00 3.632004e-01 5.142368e+00 3.581442e-01 5.119544e+00 3.700459e-01 5.123955e+00 3.472931e-01 5.079888e+00 3.245871e-01 5.067278e+00 3.102397e-01 4.989109e+00 2.731781e-01 4.896775e+00 2.283172e-01 4.815694e+00 1.918437e-01 4.742541e+00 1.657781e-01 4.665843e+00 1.455294e-01 4.578347e+00 1.277179e-01 4.477165e+00 1.122326e-01 
4.556453e+00 1.424556e-01 4.479085e+00 1.472322e-01 4.396325e+00 1.443179e-01 4.391355e+00 1.230257e-01 4.437129e+00 1.006183e-01 4.519922e+00 8.055667e-02 4.624882e+00 7.739981e-02 4.752456e+00 1.155043e-01 4.923879e+00 3.152676e-01 4.986765e+00 2.925463e-01 4.980374e+00 2.786944e-01 5.160586e+00 3.221404e-01 5.122430e+00 2.687469e-01 5.098942e+00 3.408069e-01 5.200138e+00 2.976763e-01 5.144138e+00 2.401210e-01 5.176708e+00 3.375860e-01 5.185833e+00 3.153188e-01 5.135194e+00 3.137096e-01 5.270394e+00 3.521742e-01 5.205622e+00 3.077358e-01 5.140048e+00 3.686281e-01 5.215503e+00 3.284314e-01 5.132974e+00 2.810729e-01 5.106423e+00 3.638287e-01 5.083282e+00 3.142321e-01 4.955068e+00 2.346155e-01 4.869846e+00 1.902158e-01 4.812860e+00 1.710446e-01 4.758904e+00 1.614114e-01 4.698617e+00 1.540320e-01 4.630586e+00 1.473108e-01 
4.750477e+00 1.242403e-01 4.717029e+00 1.354594e-01 4.688791e+00 1.331577e-01 4.637187e+00 1.164728e-01 4.637055e+00 9.622560e-02 4.678028e+00 7.137062e-02 4.746960e+00 4.840332e-02 4.857758e+00 2.419942e-02 5.091918e+00 4.419662e-01 5.044087e+00 2.915063e-01 4.986146e+00 2.918653e-01 5.253292e+00 3.564499e-01 5.119902e+00 1.972969e-01 5.151998e+00 4.371738e-01 5.202895e+00 3.085385e-01 5.110690e+00 1.744833e-01 5.266700e+00 4.106090e-01 5.146899e+00 3.254456e-01 5.090335e+00 3.666886e-01 5.323068e+00 3.859599e-01 5.167649e+00 2.690447e-01 5.188066e+00 4.662775e-01 5.204948e+00 3.424728e-01 5.117632e+00 2.367750e-01 5.250049e+00 3.967364e-01 5.065256e+00 2.926843e-01 4.945800e+00 2.023820e-01 4.898569e+00 1.582636e-01 4.877223e+00 1.417268e-01 4.854072e+00 1.339762e-01 4.823493e+00 1.282737e-01 4.787552e+00 1.242959e-01 
4.933823e+00 1.579862e-01 4.941524e+00 1.734878e-01 4.962761e+00 1.718057e-01 4.865570e+00 1.565693e-01 4.814201e+00 1.297766e-01 4.800205e+00 7.580090e-02 4.822365e+00 -3.053769e-02 4.931447e+00 -1.709889e-01 5.208121e+00 7.396957e-01 5.097526e+00 1.644546e-01 4.973454e+00 1.497482e-01 5.419137e+00 5.831807e-01 5.109142e+00 -6.934950e-02 5.144101e+00 6.349092e-01 5.327917e+00 3.249690e-01 5.065002e+00 -1.603296e-01 5.314145e+00 7.092776e-01 5.196882e+00 1.957563e-01 5.045622e+00 1.910039e-01 5.505606e+00 6.189794e-01 5.181137e+00 -1.129066e-02 5.176035e+00 6.493260e-01 5.365675e+00 3.664407e-01 5.111386e+00 -1.229045e-01 5.334122e+00 7.642950e-01 5.223111e+00 3.743756e-01 4.965554e+00 1.576764e-01 4.941000e+00 1.282144e-01 4.950302e+00 1.354348e-01 4.950566e+00 1.435091e-01 4.943875e+00 1.484835e-01 4.936355e+00 1.522809e-01 
5.114075e+00 1.447306e-01 5.158074e+00 1.653597e-01 5.224841e+00 1.643509e-01 5.089860e+00 1.580045e-01 5.001271e+00 1.439466e-01 4.951875e+00 1.093846e-01 4.936795e+00 4.270946e-02 4.938584e+00 2.684012e-02 4.971693e+00 8.546290e-02 4.789615e+00 -2.946319e-01 4.917613e+00 -2.290699e-02 5.066489e+00 1.073268e-01 4.845939e+00 -2.129828e-01 5.069492e+00 3.403120e-01 4.973270e+00 1.814488e-02 4.868415e+00 -9.751233e-02 5.172107e+00 4.782937e-01 4.849158e+00 -8.470019e-02 4.941420e+00 1.741161e-01 5.272865e+00 4.301065e-01 4.879430e+00 -7.712111e-02 5.134991e+00 6.006314e-01 5.087029e+00 2.241484e-01 4.921993e+00 -1.058840e-03 5.360328e+00 8.992389e-01 4.953431e+00 2.717510e-01 4.891794e+00 8.653960e-02 4.970505e+00 8.745817e-02 5.022773e+00 1.084986e-01 5.048997e+00 1.217531e-01 5.066332e+00 1.290622e-01 5.085531e+00 1.352314e-01 
5.282026e+00 1.730125e-01 5.360120e+00 1.976585e-01 5.468808e+00 1.972769e-01 5.299921e+00 2.003130e-01 5.170475e+00 2.092404e-01 5.055966e+00 2.347961e-01 4.897655e+00 2.689959e-01 4.526321e+00 2.220279e-01 3.513391e+00 -1.922587e+00 4.028593e+00 -8.588631e-01 4.238099e+00 -1.025892e+00 3.034490e+00 -1.740510e+00 3.965787e+00 -5.128563e-01 3.816760e+00 -1.895344e+00 3.589303e+00 -1.097359e+00 4.168872e+00 -2.890947e-01 3.511688e+00 -1.803390e+00 4.022932e+00 -7.827909e-01 4.204006e+00 -1.000848e+00 3.126425e+00 -1.536070e+00 3.945134e+00 -4.321912e-01 3.890457e+00 -1.658844e+00 3.686081e+00 -9.080227e-01 4.215681e+00 -1.656014e-01 3.797896e+00 -1.514927e+00 4.314418e+00 -6.103670e-01 4.879016e+00 -1.151719e-01 5.054426e+00 4.739489e-02 5.112789e+00 1.057262e-01 5.147508e+00 1.317000e-01 5.181814e+00 1.466111e-01 5.224482e+00 1.586389e-01 
5.445552e+00 1.631513e-01 5.553845e+00 1.901786e-01 5.700680e+00 1.904215e-01 5.499081e+00 1.976562e-01 5.333194e+00 2.149789e-01 5.172892e+00 2.618554e-01 4.953773e+00 3.395473e-01 4.538902e+00 3.137946e-01 3.749802e+00 -1.491829e+00 3.960518e+00 -6.099564e-01 4.154627e+00 -9.051118e-01 2.989885e+00 -1.624864e+00 3.827573e+00 -4.262508e-01 3.663094e+00 -2.047325e+00 3.416585e+00 -1.135382e+00 4.041248e+00 -2.821331e-01 3.216390e+00 -2.152804e+00 3.891922e+00 -8.605531e-01 4.055145e+00 -1.237721e+00 2.662135e+00 -1.962431e+00 3.789736e+00 -5.235152e-01 3.563670e+00 -2.298244e+00 3.372014e+00 -1.270116e+00 4.093899e+00 -3.074470e-01 3.235164e+00 -2.500240e+00 4.293294e+00 -9.509989e-01 4.999219e+00 -1.950404e-01 5.157761e+00 2.633225e-02 5.206381e+00 9.373031e-02 5.247849e+00 1.196720e-01 5.298082e+00 1.339912e-01 5.362169e+00 1.465794e-01 
5.595119e+00 1.861123e-01 5.732662e+00 2.129229e-01 5.914738e+00 2.136663e-01 5.692638e+00 2.135484e-01 5.510310e+00 2.068376e-01 5.356053e+00 1.910835e-01 5.221676e+00 1.623456e-01 5.133010e+00 1.463774e-01 5.355471e+00 6.447018e-01 4.933751e+00 9.282452e-02 4.952529e+00 1.886846e-01 5.156179e+00 3.017204e-01 4.811089e+00 -7.065768e-02 5.032351e+00 2.462439e-01 4.866254e+00 -2.939508e-02 4.805782e+00 -5.927685e-02 5.010235e+00 1.246241e-01 4.738766e+00 -2.406912e-01 4.886326e+00 -3.243560e-02 4.913926e+00 -6.828403e-02 4.753337e+00 -2.327309e-01 4.972494e+00 -4.348238e-02 4.791951e+00 -2.471311e-01 4.868786e+00 -1.080063e-01 4.993273e+00 -1.049372e-01 4.854018e+00 -2.184613e-01 5.054623e+00 -6.389285e-02 5.183686e+00 4.410788e-02 5.262487e+00 1.003199e-01 5.328760e+00 1.303616e-01 5.400246e+00 1.497409e-01 5.486542e+00 1.665587e-01 
5.739878e+00 1.773333e-01 5.903021e+00 2.034439e-01 6.116589e+00 2.047515e-01 5.873359e+00 2.034935e-01 5.672721e+00 1.884472e-01 5.511824e+00 1.426645e-01 5.404984e+00 2.969932e-02 5.427545e+00 -1.392639e-01 5.620340e+00 8.091681e-01 5.479383e+00 2.940100e-01 5.236423e+00 2.243012e-01 5.659303e+00 6.806869e-01 5.297669e+00 -7.634135e-03 5.299432e+00 7.269353e-01 5.449242e+00 3.639958e-01 5.152018e+00 -1.437336e-01 5.432411e+00 7.997053e-01 5.249100e+00 1.630679e-01 5.126075e+00 2.157044e-01 5.624107e+00 6.608880e-01 5.231365e+00 -8.126075e-02 5.311152e+00 7.213206e-01 5.469703e+00 3.159876e-01 5.225289e+00 -1.770688e-01 5.551354e+00 9.070241e-01 5.358370e+00 3.048136e-01 5.197852e+00 8.104971e-02 5.259657e+00 7.964208e-02 5.340050e+00 1.063366e-01 5.418129e+00 1.268643e-01 5.504857e+00 1.424835e-01 5.609558e+00 1.579154e-01 
5.869942e+00 1.970076e-01 6.057733e+00 2.219156e-01 6.300917e+00 2.236519e-01 6.048172e+00 2.220849e-01 5.841906e+00 2.111713e-01 5.683423e+00 1.896620e-01 5.582445e+00 1.573918e-01 5.569635e+00 1.251714e-01 5.666588e+00 4.278518e-01 5.508429e+00 3.453633e-01 5.382702e+00 3.348465e-01 5.572795e+00 4.065877e-01 5.394644e+00 2.310024e-01 5.373352e+00 4.787866e-01 5.411153e+00 3.354742e-01 5.283523e+00 1.272057e-01 5.431188e+00 4.514729e-01 5.318371e+00 3.031591e-01 5.230919e+00 3.043129e-01 5.512460e+00 4.141338e-01 5.339995e+00 1.783437e-01 5.350742e+00 4.929318e-01 5.442458e+00 3.385747e-01 5.326058e+00 9.358578e-02 5.505658e+00 5.285573e-01 5.417960e+00 3.239312e-01 5.307265e+00 1.642261e-01 5.335365e+00 1.266395e-01 5.407465e+00 1.310016e-01 5.494038e+00 1.443447e-01 5.595644e+00 1.593742e-01 5.718526e+00 1.762664e-01 
5.994747e+00 1.892131e-01 6.203971e+00 2.118108e-01 6.472895e+00 2.140147e-01 6.206101e+00 2.109468e-01 5.986466e+00 1.975496e-01 5.816413e+00 1.770965e-01 5.700291e+00 1.672662e-01 5.639133e+00 2.095682e-01 5.615666e+00 3.452769e-01 5.584476e+00 3.450664e-01 5.472458e+00 3.455446e-01 5.551199e+00 3.697977e-01 5.451624e+00 3.250068e-01 5.373237e+00 3.961173e-01 5.425938e+00 3.332619e-01 5.338856e+00 2.700204e-01 5.367701e+00 3.692000e-01 5.344028e+00 3.341070e-01 5.291100e+00 3.380439e-01 5.454736e+00 3.632194e-01 5.376318e+00 3.050806e-01 5.348918e+00 3.971929e-01 5.438951e+00 3.329653e-01 5.385397e+00 2.661187e-01 5.459142e+00 3.950296e-01 5.438394e+00 3.091376e-01 5.388001e+00 2.052919e-01 5.412000e+00 1.561135e-01 5.481404e+00 1.438301e-01 5.574192e+00 1.468188e-01 5.687380e+00 1.562580e-01 5.825315e+00 1.702181e-01 
6.104880e+00 2.073225e-01 6.334124e+00 2.295939e-01 6.627554e+00 2.322224e-01 6.353417e+00 2.334429e-01 6.127032e+00 2.292499e-01 5.948561e+00 2.250319e-01 5.818082e+00 2.320190e-01 5.733062e+00 2.638275e-01 5.685457e+00 3.180558e-01 5.619287e+00 3.429576e-01 5.541214e+00 3.550892e-01 5.556883e+00 3.526511e-01 5.485632e+00 3.423336e-01 5.428829e+00 3.562920e-01 5.435972e+00 3.322504e-01 5.386271e+00 3.054663e-01 5.393217e+00 3.277651e-01 5.373245e+00 3.311286e-01 5.346857e+00 3.295575e-01 5.435198e+00 3.340156e-01 5.402636e+00 3.195826e-01 5.387604e+00 3.393358e-01 5.440314e+00 3.224220e-01 5.420967e+00 2.901423e-01 5.463796e+00 3.135143e-01 5.471369e+00 2.798076e-01 5.451218e+00 2.186298e-01 5.477528e+00 1.792491e-01 5.545800e+00 1.642346e-01 5.643348e+00 1.642414e-01 5.766704e+00 1.728442e-01 5.918572e+00 1.874013e-01 
6.209036e+00 2.007402e-01 6.455625e+00 2.206598e-01 6.769727e+00 2.236996e-01 6.483845e+00 2.248734e-01 6.244499e+00 2.216468e-01 6.051088e+00 2.213453e-01 5.900966e+00 2.349391e-01 5.789086e+00 2.678506e-01 5.714922e+00 3.070413e-01 5.660316e+00 3.348356e-01 5.588103e+00 3.511303e-01 5.572115e+00 3.520897e-01 5.507820e+00 3.514405e-01 5.449238e+00 3.532392e-01 5.445060e+00 3.387642e-01 5.401686e+00 3.284813e-01 5.390587e+00 3.325171e-01 5.380256e+00 3.378185e-01 5.368165e+00 3.410447e-01 5.423692e+00 3.386372e-01 5.408266e+00 3.360177e-01 5.401518e+00 3.382902e-01 5.443506e+00 3.263906e-01 5.441443e+00 3.113696e-01 5.474158e+00 3.021905e-01 5.492257e+00 2.719850e-01 5.498496e+00 2.270292e-01 5.534861e+00 1.909655e-01 5.607576e+00 1.717371e-01 5.711447e+00 1.664683e-01 5.844216e+00 1.709803e-01 6.008196e+00 1.827830e-01 
6.298821e+00 2.174978e-01 6.561102e+00 2.378211e-01 6.894724e+00 2.412425e-01 6.601341e+00 2.460545e-01 6.354598e+00 2.479902e-01 6.152071e+00 2.528472e-01 5.990966e+00 2.672038e-01 5.867734e+00 2.914884e-01 5.780202e+00 3.162915e-01 5.705441e+00 3.391382e-01 5.633996e+00 3.535406e-01 5.598370e+00 3.525176e-01 5.538755e+00 3.504543e-01 5.486692e+00 3.458088e-01 5.467428e+00 3.351955e-01 5.431994e+00 3.267467e-01 5.417224e+00 3.229555e-01 5.405358e+00 3.264771e-01 5.398307e+00 3.286357e-01 5.432275e+00 3.254951e-01 5.428222e+00 3.231665e-01 5.428162e+00 3.196889e-01 5.458791e+00 3.115194e-01 5.466754e+00 2.985120e-01 5.495428e+00 2.820212e-01 5.521937e+00 2.585734e-01 5.540948e+00 2.269712e-01 5.583431e+00 1.994043e-01 5.659847e+00 1.834696e-01 5.769130e+00 1.794822e-01 5.910104e+00 1.850872e-01 6.084880e+00 1.982107e-01 
6.381852e+00 2.117527e-01 6.657540e+00 2.303259e-01 7.007136e+00 2.341014e-01 6.703323e+00 2.393432e-01 6.445014e+00 2.419602e-01 6.229611e+00 2.480744e-01 6.054333e+00 2.635893e-01 5.916607e+00 2.879813e-01 5.816337e+00 3.138510e-01 5.739180e+00 3.368069e-01 5.663498e+00 3.509828e-01 5.617366e+00 3.544382e-01 5.554807e+00 3.539626e-01 5.499000e+00 3.497236e-01 5.475824e+00 3.417129e-01 5.438935e+00 3.352959e-01 5.419270e+00 3.318532e-01 5.409450e+00 3.338197e-01 5.404491e+00 3.358308e-01 5.431960e+00 3.336763e-01 5.431712e+00 3.310939e-01 5.434645e+00 3.262020e-01 5.466203e+00 3.171671e-01 5.479887e+00 3.043317e-01 5.509310e+00 2.850518e-01 5.542772e+00 2.597379e-01 5.572213e+00 2.292821e-01 5.623025e+00 2.021782e-01 5.706311e+00 1.850375e-01 5.822754e+00 1.789865e-01 5.972045e+00 1.824968e-01 6.156575e+00 1.938829e-01 
6.450902e+00 2.269616e-01 6.738245e+00 2.464382e-01 7.102481e+00 2.505254e-01 6.791343e+00 2.573762e-01 6.526264e+00 2.605883e-01 6.303855e+00 2.653510e-01 6.121693e+00 2.782152e-01 5.976656e+00 3.009199e-01 5.866704e+00 3.272388e-01 5.785654e+00 3.471850e-01 5.699716e+00 3.548648e-01 5.647940e+00 3.604504e-01 5.584416e+00 3.554565e-01 5.522308e+00 3.467181e-01 5.502180e+00 3.382811e-01 5.461691e+00 3.278975e-01 5.437070e+00 3.244465e-01 5.431793e+00 3.231648e-01 5.422714e+00 3.217315e-01 5.449550e+00 3.244625e-01 5.451773e+00 3.193117e-01 5.450790e+00 3.126223e-01 5.489265e+00 3.055198e-01 5.502166e+00 2.933383e-01 5.528103e+00 2.807358e-01 5.571924e+00 2.587955e-01 5.602669e+00 2.286942e-01 5.655755e+00 2.034428e-01 5.743859e+00 1.895556e-01 5.866502e+00 1.868819e-01 6.022997e+00 1.933236e-01 6.215882e+00 2.071500e-01 
6.512517e+00 2.215929e-01 6.809451e+00 2.401147e-01 7.185175e+00 2.444865e-01 6.865103e+00 2.518159e-01 6.590502e+00 2.546931e-01 6.358202e+00 2.579298e-01 6.166946e+00 2.686923e-01 6.015154e+00 2.930849e-01 5.897717e+00 3.306153e-01 5.813558e+00 3.502880e-01 5.715950e+00 3.509742e-01 5.666158e+00 3.656525e-01 5.595168e+00 3.580522e-01 5.523834e+00 3.512020e-01 5.509847e+00 3.449520e-01 5.462911e+00 3.293503e-01 5.437182e+00 3.341675e-01 5.432977e+00 3.306956e-01 5.418814e+00 3.240419e-01 5.454979e+00 3.355666e-01 5.453780e+00 3.255629e-01 5.448652e+00 3.197497e-01 5.498883e+00 3.127859e-01 5.510997e+00 2.940333e-01 5.540249e+00 2.897375e-01 5.590072e+00 2.653451e-01 5.619979e+00 2.280893e-01 5.678575e+00 2.002572e-01 5.774667e+00 1.861852e-01 5.904983e+00 1.834333e-01 6.068783e+00 1.893779e-01 6.269215e+00 2.024966e-01 
6.560565e+00 2.355081e-01 6.865192e+00 2.555699e-01 7.250890e+00 2.601825e-01 6.923874e+00 2.681573e-01 6.642917e+00 2.684471e-01 6.404688e+00 2.634197e-01 6.209974e+00 2.623001e-01 6.057831e+00 2.863524e-01 5.931360e+00 3.612801e-01 5.862776e+00 3.679173e-01 5.737827e+00 3.427745e-01 5.699199e+00 3.898502e-01 5.625004e+00 3.565070e-01 5.527601e+00 3.513662e-01 5.543845e+00 3.468311e-01 5.477738e+00 3.051407e-01 5.442817e+00 3.398552e-01 5.455963e+00 3.190617e-01 5.422290e+00 2.949516e-01 5.481977e+00 3.445722e-01 5.475870e+00 3.096955e-01 5.448187e+00 3.096779e-01 5.533462e+00 3.075925e-01 5.530189e+00 2.707124e-01 5.552539e+00 3.107814e-01 5.623920e+00 2.811937e-01 5.635696e+00 2.240238e-01 5.693588e+00 1.926514e-01 5.797183e+00 1.836279e-01 5.934677e+00 1.868227e-01 6.104497e+00 1.974084e-01 6.310791e+00 2.139079e-01 
6.600609e+00 2.302624e-01 6.911061e+00 2.501133e-01 7.303906e+00 2.549345e-01 6.969717e+00 2.640807e-01 6.681043e+00 2.646697e-01 6.434283e+00 2.566478e-01 6.232211e+00 2.423280e-01 6.083892e+00 2.409635e-01 5.967076e+00 4.131539e-01 5.882021e+00 3.724157e-01 5.728510e+00 3.098817e-01 5.730135e+00 4.280993e-01 5.623069e+00 3.315267e-01 5.515902e+00 3.733743e-01 5.555621e+00 3.633535e-01 5.462649e+00 2.600606e-01 5.453134e+00 3.878317e-01 5.450073e+00 3.199982e-01 5.397561e+00 2.680805e-01 5.509512e+00 3.906487e-01 5.466848e+00 2.865448e-01 5.435635e+00 3.355904e-01 5.549281e+00 3.260379e-01 5.523757e+00 2.213327e-01 5.579337e+00 3.641550e-01 5.637033e+00 2.932206e-01 5.630430e+00 2.113296e-01 5.698931e+00 1.807776e-01 5.813924e+00 1.758517e-01 5.958966e+00 1.812653e-01 6.134333e+00 1.924776e-01 6.345644e+00 2.088818e-01 
6.627403e+00 2.433646e-01 6.941618e+00 2.654684e-01 7.340016e+00 2.704673e-01 6.999966e+00 2.822775e-01 6.704563e+00 2.831271e-01 6.447935e+00 2.642622e-01 6.237149e+00 2.058475e-01 6.103769e+00 1.299188e-01 5.996294e+00 5.744568e-01 5.932958e+00 3.781689e-01 5.702876e+00 1.902340e-01 5.789624e+00 5.923683e-01 5.637052e+00 2.356668e-01 5.486330e+00 4.007303e-01 5.619371e+00 4.146326e-01 5.438079e+00 9.736004e-02 5.458469e+00 5.239549e-01 5.469333e+00 2.743581e-01 5.356628e+00 1.313901e-01 5.577057e+00 5.483040e-01 5.468104e+00 1.716975e-01 5.404680e+00 3.571158e-01 5.613820e+00 3.665394e-01 5.506644e+00 4.600939e-02 5.603470e+00 5.346121e-01 5.682209e+00 3.289461e-01 5.609007e+00 1.727584e-01 5.694712e+00 1.550473e-01 5.825396e+00 1.672256e-01 5.976827e+00 1.826300e-01 6.155312e+00 1.994014e-01 6.369324e+00 2.193087e-01 
6.645731e+00 2.378866e-01 6.962153e+00 2.600059e-01 7.363387e+00 2.651142e-01 7.018837e+00 2.789801e-01 6.718034e+00 2.843974e-01 6.453016e+00 2.768108e-01 6.224676e+00 2.451168e-01 6.044849e+00 1.937162e-01 5.922033e+00 3.934112e-01 5.746311e+00 2.157871e-01 5.590798e+00 1.576830e-01 5.604574e+00 3.502214e-01 5.441336e+00 1.175013e-01 5.394757e+00 2.470155e-01 5.399547e+00 2.261776e-01 5.288146e+00 8.307633e-02 5.334893e+00 3.007188e-01 5.266430e+00 1.192528e-01 5.240207e+00 1.029890e-01 5.349953e+00 2.793207e-01 5.258494e+00 5.954525e-02 5.305856e+00 1.925341e-01 5.376620e+00 1.683166e-01 5.354927e+00 4.247573e-02 5.491211e+00 2.835703e-01 5.497735e+00 1.457725e-01 5.560084e+00 1.123754e-01 5.692338e+00 1.357834e-01 5.833606e+00 1.592597e-01 5.988628e+00 1.774649e-01 6.169441e+00 1.945565e-01 6.385551e+00 2.141180e-01 
6.650855e+00 2.499351e-01 6.967523e+00 2.739269e-01 7.369898e+00 2.790922e-01 7.023991e+00 2.981022e-01 6.719960e+00 3.176062e-01 6.440594e+00 3.488202e-01 6.159529e+00 4.060835e-01 5.807979e+00 4.198689e-01 5.446828e+00 -5.805036e-01 5.116886e+00 -2.692142e-01 5.231954e+00 -1.949510e-02 4.670769e+00 -8.583217e-01 4.828923e+00 -1.852141e-01 4.978115e+00 -5.695518e-01 4.508996e+00 -5.703300e-01 4.836887e+00 1.994678e-02 4.704525e+00 -8.518338e-01 4.664964e+00 -3.466858e-01 4.881385e+00 -1.432280e-01 4.310142e+00 -9.842959e-01 4.654720e+00 -2.403916e-01 4.871337e+00 -6.546272e-01 4.470649e+00 -6.314862e-01 4.895412e+00 -1.273516e-02 4.866328e+00 -9.866721e-01 4.988605e+00 -4.647744e-01 5.491529e+00 -3.334648e-02 5.705255e+00 1.087184e-01 5.846007e+00 1.575696e-01 5.996276e+00 1.824133e-01 6.175076e+00 2.025515e-01 6.390632e+00 2.242711e-01 
6.647333e+00 2.435058e-01 6.962875e+00 2.668771e-01 7.363640e+00 2.720268e-01 7.017044e+00 2.906485e-01 6.712088e+00 3.096317e-01 6.432108e+00 3.403050e-01 6.150892e+00 3.973640e-01 5.797719e+00 4.117497e-01 5.431885e+00 -6.052455e-01 5.101061e+00 -2.917256e-01 5.223495e+00 -2.756179e-02 4.661612e+00 -8.696715e-01 4.819187e+00 -1.925780e-01 4.973256e+00 -5.594565e-01 4.509093e+00 -5.651566e-01 4.832669e+00 2.198653e-02 4.709835e+00 -8.187050e-01 4.667457e+00 -3.324882e-01 4.882401e+00 -1.259333e-01 4.340922e+00 -9.304907e-01 4.663538e+00 -2.232637e-01 4.882110e+00 -6.025367e-01 4.506162e+00 -5.861081e-01 4.907382e+00 -2.324453e-03 4.898367e+00 -8.984312e-01 5.008410e+00 -4.238283e-01 5.487653e+00 -2.223447e-02 5.700167e+00 1.109736e-01 5.842638e+00 1.567382e-01 5.993827e+00 1.797712e-01 6.172753e+00 1.984285e-01 6.387903e+00 2.188708e-01 
6.630435e+00 2.538322e-01 6.943307e+00 2.769529e-01 7.340516e+00 2.819787e-01 6.998762e+00 2.955408e-01 6.701167e+00 3.000648e-01 6.439625e+00 2.906739e-01 6.214699e+00 2.567200e-01 6.035518e+00 2.029078e-01 5.909772e+00 3.762010e-01 5.729134e+00 1.947257e-01 5.584028e+00 1.507038e-01 5.597801e+00 3.329433e-01 5.433543e+00 1.016704e-01 5.395341e+00 2.468153e-01 5.406475e+00 2.175827e-01 5.291967e+00 6.879773e-02 5.348288e+00 3.165677e-01 5.279957e+00 1.159296e-01 5.250539e+00 9.840911e-02 5.388730e+00 3.142391e-01 5.277205e+00 5.805703e-02 5.321215e+00 2.257238e-01 5.419844e+00 1.993443e-01 5.372169e+00 3.631179e-02 5.521275e+00 3.637527e-01 5.525814e+00 1.877421e-01 5.558621e+00 1.251495e-01 5.685971e+00 1.427609e-01 5.827027e+00 1.673611e-01 5.981113e+00 1.879759e-01 6.159967e+00 2.073483e-01 6.373402e+00 2.287352e-01 