# vtk DataFile Version 2.0
Comment goes here
ASCII

DATASET STRUCTURED_POINTS
FIELD FieldData 1
TIME 1 1 double
0.08100000
DIMENSIONS    64   64   1

ORIGIN    0.000   0.000   0.000
SPACING   0.03125 0.03125   1.000

POINT_DATA   4096
SCALARS uX double
LOOKUP_TABLE default

5.101385e-01 -1.839088e+00 2.890222e-01 -1.783372e+00 2.372203e-02 -1.741143e+00 3.203328e-01 -1.605029e+00 4.523382e-01 -1.518184e+00 4.827189e-01 -1.414762e+00 4.209343e-01 -1.256569e+00 2.727382e-01 -1.046137e+00 7.372482e-02 -8.150595e-01 -1.383398e-01 -5.862443e-01 -3.475402e-01 -3.648212e-01 -5.487725e-01 -1.545172e-01 -7.335077e-01 3.585184e-02 -8.986769e-01 2.093249e-01 -1.051211e+00 3.729153e-01 -1.193731e+00 5.228866e-01 -1.311659e+00 6.385798e-01 -1.384630e+00 7.011966e-01 -1.404265e+00 7.135159e-01 -1.384091e+00 6.954420e-01 -1.342716e+00 6.584110e-01 -1.291242e+00 6.051730e-01 -1.222161e+00 5.186226e-01 -1.120614e+00 3.915961e-01 -9.830055e-01 2.179175e-01 -8.077905e-01 -4.097322e-03 -6.021850e-01 -2.674146e-01 -3.678329e-01 -5.787093e-01 -9.952253e-02 -9.388951e-01 1.853427e-01 -1.315503e+00 4.415084e-01 -1.665391e+00 6.287588e-01 -1.964037e+00 
-3.193992e-01 3.215341e-01 -6.459205e-02 2.944085e-01 2.689254e-01 2.686989e-01 -1.900995e-01 1.083162e-01 -4.169616e-01 3.279358e-02 -5.284245e-01 -2.604516e-02 -5.608988e-01 -1.048553e-01 -5.308296e-01 -2.083723e-01 -4.650351e-01 -3.198899e-01 -3.891536e-01 -4.277532e-01 -3.128233e-01 -5.311027e-01 -2.379403e-01 -6.310140e-01 -1.705870e-01 -7.197606e-01 -1.126351e-01 -7.997211e-01 -5.968145e-02 -8.726260e-01 -1.197201e-02 -9.399026e-01 2.330649e-02 -9.917509e-01 3.556531e-02 -1.016484e+00 2.139865e-02 -1.014026e+00 -8.722253e-03 -1.001253e+00 -4.710503e-02 -9.761459e-01 -8.612868e-02 -9.443748e-01 -1.298390e-01 -8.870819e-01 -1.881295e-01 -8.080339e-01 -2.588037e-01 -7.037918e-01 -3.417423e-01 -5.719834e-01 -4.295077e-01 -4.182504e-01 -5.185901e-01 -2.386575e-01 -6.115264e-01 -3.214539e-02 -6.966275e-01 1.815633e-01 -7.417502e-01 3.731020e-01 -7.179081e-01 5.307565e-01 
2.125486e+00 6.331916e-01 1.733729e+00 6.042866e-01 1.271748e+00 5.797359e-01 2.080821e+00 7.655590e-01 2.526664e+00 7.898422e-01 2.834191e+00 7.232820e-01 3.098746e+00 5.915827e-01 3.362652e+00 4.197889e-01 3.621216e+00 2.413968e-01 3.860644e+00 7.373722e-02 4.075683e+00 -8.007528e-02 4.268201e+00 -2.097446e-01 4.436724e+00 -3.172305e-01 4.579232e+00 -4.074161e-01 4.704336e+00 -4.892154e-01 4.818689e+00 -5.560216e-01 4.912974e+00 -5.911372e-01 4.974048e+00 -5.860730e-01 4.992965e+00 -5.492150e-01 4.981008e+00 -4.907772e-01 4.947369e+00 -4.287700e-01 4.901046e+00 -3.616950e-01 4.832349e+00 -2.847670e-01 4.726637e+00 -1.884293e-01 4.582825e+00 -7.306977e-02 4.398145e+00 5.813293e-02 4.172313e+00 1.994758e-01 3.898746e+00 3.544276e-01 3.567155e+00 5.269877e-01 3.183475e+00 6.979692e-01 2.763390e+00 8.445096e-01 2.327823e+00 8.631590e-01 
4.594006e+00 1.515565e-01 3.501700e+00 -2.844535e-01 1.841965e+00 -2.737897e-01 4.181557e+00 2.128512e-02 5.274348e+00 1.154343e-01 5.942746e+00 1.558012e-01 6.412886e+00 2.017666e-01 6.760239e+00 2.652249e-01 7.029293e+00 3.361493e-01 7.249956e+00 4.037748e-01 7.429191e+00 4.680450e-01 7.569998e+00 5.294205e-01 7.683049e+00 5.812490e-01 7.772971e+00 6.240682e-01 7.842683e+00 6.632366e-01 7.890448e+00 7.015409e-01 7.922938e+00 7.356945e-01 7.948595e+00 7.570530e-01 7.969161e+00 7.667561e-01 7.977077e+00 7.744220e-01 7.967345e+00 7.810997e-01 7.934437e+00 7.896474e-01 7.882138e+00 7.912395e-01 7.809182e+00 7.890046e-01 7.709598e+00 7.819624e-01 7.578948e+00 7.656111e-01 7.407944e+00 7.433258e-01 7.190615e+00 7.073947e-01 6.923498e+00 6.466838e-01 6.589928e+00 5.588696e-01 6.153546e+00 4.425622e-01 5.574733e+00 2.496992e-01 
4.810166e+00 3.954998e-01 3.897724e+00 -6.744138e-02 2.513212e+00 -7.141451e-02 4.179502e+00 -1.177398e-01 5.237502e+00 -2.981323e-02 5.942543e+00 6.166099e-02 6.449758e+00 1.496441e-01 6.833095e+00 2.370933e-01 7.136201e+00 3.208417e-01 7.384644e+00 3.970794e-01 7.580448e+00 4.678197e-01 7.733177e+00 5.281703e-01 7.850738e+00 5.766748e-01 7.941918e+00 6.186277e-01 8.010669e+00 6.588252e-01 8.056495e+00 6.948675e-01 8.083768e+00 7.231188e-01 8.100372e+00 7.420328e-01 8.104146e+00 7.565528e-01 8.091691e+00 7.687699e-01 8.065671e+00 7.805900e-01 8.019687e+00 7.897527e-01 7.954737e+00 7.967464e-01 7.869505e+00 7.971950e-01 7.756728e+00 7.935538e-01 7.615782e+00 7.869170e-01 7.434177e+00 7.768280e-01 7.205691e+00 7.633887e-01 6.924852e+00 7.397234e-01 6.577894e+00 6.975350e-01 6.149529e+00 6.162827e-01 5.613037e+00 5.554761e-01 
5.136322e+00 1.657495e-01 4.285903e+00 3.188610e-02 3.164038e+00 2.078705e-02 4.310482e+00 -3.970880e-02 5.352821e+00 2.600974e-02 6.078143e+00 1.020571e-01 6.586373e+00 1.750642e-01 6.960713e+00 2.512051e-01 7.249456e+00 3.314125e-01 7.484985e+00 4.080120e-01 7.667259e+00 4.803884e-01 7.804534e+00 5.468091e-01 7.908626e+00 6.026977e-01 7.985722e+00 6.517182e-01 8.042581e+00 6.970296e-01 8.078023e+00 7.382584e-01 8.097722e+00 7.745375e-01 8.109043e+00 8.009227e-01 8.110310e+00 8.206270e-01 8.099613e+00 8.400014e-01 8.074130e+00 8.556101e-01 8.031963e+00 8.671005e-01 7.973991e+00 8.697300e-01 7.893207e+00 8.616355e-01 7.786470e+00 8.438005e-01 7.650175e+00 8.132849e-01 7.478559e+00 7.715524e-01 7.270458e+00 7.161213e-01 7.019411e+00 6.423994e-01 6.710756e+00 5.468136e-01 6.322364e+00 4.206431e-01 5.828225e+00 2.631157e-01 
5.396956e+00 3.292290e-01 4.715601e+00 2.229664e-01 3.785449e+00 2.108029e-01 4.570428e+00 5.446128e-02 5.375192e+00 2.766691e-02 6.026837e+00 7.935673e-02 6.519117e+00 1.546382e-01 6.895623e+00 2.364583e-01 7.193577e+00 3.205736e-01 7.444928e+00 3.986094e-01 7.636712e+00 4.698736e-01 7.780243e+00 5.342166e-01 7.892923e+00 5.817758e-01 7.976368e+00 6.208591e-01 8.040756e+00 6.571890e-01 8.084665e+00 6.893013e-01 8.111136e+00 7.180355e-01 8.132446e+00 7.377699e-01 8.136398e+00 7.527088e-01 8.122556e+00 7.696050e-01 8.100094e+00 7.821076e-01 8.059336e+00 7.918212e-01 8.002385e+00 7.997510e-01 7.924425e+00 8.011755e-01 7.819233e+00 7.982609e-01 7.693764e+00 7.877774e-01 7.531471e+00 7.691703e-01 7.326463e+00 7.428751e-01 7.077214e+00 7.043805e-01 6.777454e+00 6.484358e-01 6.415448e+00 5.703271e-01 5.969296e+00 4.627803e-01 
5.752950e+00 2.402698e-01 5.149524e+00 2.566859e-01 4.386362e+00 2.443471e-01 4.942815e+00 1.326530e-01 5.601793e+00 8.844016e-02 6.199081e+00 1.182325e-01 6.670143e+00 1.806596e-01 7.031201e+00 2.563903e-01 7.312227e+00 3.419277e-01 7.557875e+00 4.258123e-01 7.738495e+00 5.034425e-01 7.864386e+00 5.714127e-01 7.959534e+00 6.187973e-01 8.027571e+00 6.594672e-01 8.081420e+00 6.970903e-01 8.114208e+00 7.319620e-01 8.132747e+00 7.648094e-01 8.148728e+00 7.861578e-01 8.150898e+00 8.045838e-01 8.140635e+00 8.257333e-01 8.117427e+00 8.391599e-01 8.081300e+00 8.488615e-01 8.035919e+00 8.494096e-01 7.964732e+00 8.386873e-01 7.868297e+00 8.195814e-01 7.745120e+00 7.834027e-01 7.587715e+00 7.358419e-01 7.405113e+00 6.774826e-01 7.192237e+00 6.064078e-01 6.938411e+00 5.215296e-01 6.629460e+00 4.230811e-01 6.246053e+00 3.174776e-01 
6.069442e+00 3.680785e-01 5.589950e+00 3.844464e-01 4.958974e+00 3.721103e-01 5.338292e+00 2.377882e-01 5.793812e+00 1.365483e-01 6.266864e+00 1.263877e-01 6.681199e+00 1.755466e-01 7.017199e+00 2.509619e-01 7.288603e+00 3.346977e-01 7.549245e+00 4.214965e-01 7.731517e+00 4.999313e-01 7.849933e+00 5.649293e-01 7.953186e+00 6.005973e-01 8.024991e+00 6.292496e-01 8.082649e+00 6.617356e-01 8.122944e+00 6.913648e-01 8.143062e+00 7.192365e-01 8.175502e+00 7.327842e-01 8.182502e+00 7.449657e-01 8.162801e+00 7.664366e-01 8.151200e+00 7.771638e-01 8.118983e+00 7.872370e-01 8.071963e+00 7.988552e-01 8.005953e+00 8.009304e-01 7.907581e+00 7.970662e-01 7.806443e+00 7.798744e-01 7.671290e+00 7.509840e-01 7.495743e+00 7.109609e-01 7.287803e+00 6.580741e-01 7.050416e+00 5.944110e-01 6.778162e+00 5.209321e-01 6.458106e+00 4.375872e-01 
6.420621e+00 3.239107e-01 6.014940e+00 3.944315e-01 5.511138e+00 3.829388e-01 5.767536e+00 2.748998e-01 6.109201e+00 1.771583e-01 6.501833e+00 1.526915e-01 6.872643e+00 1.950169e-01 7.178651e+00 2.763402e-01 7.418235e+00 3.643619e-01 7.688270e+00 4.745355e-01 7.862794e+00 5.608157e-01 7.951984e+00 6.230807e-01 8.033251e+00 6.509515e-01 8.085988e+00 6.717024e-01 8.137264e+00 7.017777e-01 8.164038e+00 7.361912e-01 8.173046e+00 7.643947e-01 8.200645e+00 7.715582e-01 8.206364e+00 7.856635e-01 8.194817e+00 8.133861e-01 8.176370e+00 8.236285e-01 8.147638e+00 8.321691e-01 8.124130e+00 8.346799e-01 8.063039e+00 8.243571e-01 7.975792e+00 8.075905e-01 7.870292e+00 7.608891e-01 7.722305e+00 7.014572e-01 7.568724e+00 6.351798e-01 7.402989e+00 5.627774e-01 7.216832e+00 4.875298e-01 7.000982e+00 4.134265e-01 6.741967e+00 3.485704e-01 
6.741041e+00 4.216111e-01 6.431821e+00 4.921809e-01 6.035891e+00 4.813862e-01 6.175630e+00 3.611968e-01 6.381091e+00 2.227832e-01 6.659716e+00 1.507598e-01 6.960911e+00 1.741966e-01 7.219700e+00 2.799980e-01 7.420771e+00 3.624118e-01 7.725238e+00 4.972987e-01 7.885364e+00 5.706991e-01 7.935986e+00 6.230448e-01 8.037204e+00 6.384902e-01 8.090566e+00 6.323061e-01 8.137378e+00 6.703725e-01 8.177193e+00 7.088543e-01 8.172580e+00 7.252714e-01 8.235667e+00 7.262872e-01 8.251321e+00 7.326904e-01 8.203603e+00 7.618911e-01 8.219990e+00 7.704493e-01 8.201817e+00 7.723178e-01 8.162885e+00 7.987307e-01 8.118279e+00 8.146550e-01 8.012525e+00 8.034012e-01 7.944267e+00 7.835462e-01 7.844017e+00 7.487386e-01 7.689871e+00 6.843452e-01 7.518497e+00 6.081103e-01 7.348231e+00 5.389142e-01 7.172829e+00 4.799985e-01 6.976928e+00 4.325360e-01 
7.072978e+00 3.959310e-01 6.830281e+00 4.963322e-01 6.540096e+00 4.869686e-01 6.594795e+00 3.858886e-01 6.723066e+00 2.482917e-01 6.931029e+00 1.386958e-01 7.192721e+00 1.248310e-01 7.421058e+00 2.870745e-01 7.543030e+00 4.098436e-01 7.917090e+00 6.371309e-01 8.058252e+00 6.512769e-01 8.044717e+00 6.976913e-01 8.135706e+00 7.191999e-01 8.143650e+00 6.581282e-01 8.213115e+00 7.086735e-01 8.234519e+00 7.589321e-01 8.198152e+00 7.733233e-01 8.269618e+00 7.601969e-01 8.279443e+00 7.425565e-01 8.256044e+00 8.085050e-01 8.252466e+00 8.199262e-01 8.217038e+00 7.986110e-01 8.249145e+00 8.270918e-01 8.193902e+00 8.215983e-01 8.098797e+00 8.287294e-01 8.027473e+00 7.670096e-01 7.857294e+00 6.737291e-01 7.729008e+00 5.880437e-01 7.615440e+00 5.086216e-01 7.505777e+00 4.446367e-01 7.388970e+00 3.981193e-01 7.250170e+00 3.728594e-01 
7.376966e+00 4.757564e-01 7.211458e+00 5.821487e-01 7.017558e+00 5.743214e-01 6.972420e+00 4.805638e-01 7.001818e+00 3.134124e-01 7.121476e+00 1.142212e-01 7.332621e+00 -1.707460e-02 7.533836e+00 2.161645e-01 7.559407e+00 5.021531e-01 8.054873e+00 7.844251e-01 8.093390e+00 5.954871e-01 7.990564e+00 7.090409e-01 8.176390e+00 7.326053e-01 8.141656e+00 5.627968e-01 8.214121e+00 7.101447e-01 8.269846e+00 7.517976e-01 8.148056e+00 7.240777e-01 8.338426e+00 7.539978e-01 8.356515e+00 6.702843e-01 8.213543e+00 7.606478e-01 8.327727e+00 8.072374e-01 8.294097e+00 6.886412e-01 8.278285e+00 8.020727e-01 8.290785e+00 8.855256e-01 8.104593e+00 7.926691e-01 8.109768e+00 8.636977e-01 8.049809e+00 8.069907e-01 7.868804e+00 6.508484e-01 7.723950e+00 5.318189e-01 7.635343e+00 4.700311e-01 7.564634e+00 4.410969e-01 7.484768e+00 4.351536e-01 
7.685398e+00 4.628787e-01 7.577275e+00 5.865050e-01 7.474264e+00 5.807102e-01 7.367081e+00 5.332803e-01 7.339202e+00 4.123726e-01 7.387249e+00 1.792764e-01 7.551058e+00 -1.519571e-01 7.780789e+00 9.588402e-03 7.697564e+00 6.451836e-01 8.379393e+00 1.200181e+00 8.241606e+00 3.855169e-01 8.087742e+00 8.714918e-01 8.361038e+00 8.366415e-01 8.076715e+00 5.117289e-01 8.372431e+00 8.464562e-01 8.338681e+00 6.097143e-01 8.128999e+00 9.096730e-01 8.416530e+00 8.666636e-01 8.310299e+00 4.031213e-01 8.342730e+00 9.532555e-01 8.382594e+00 8.225933e-01 8.188279e+00 6.825005e-01 8.485518e+00 9.008216e-01 8.351126e+00 6.769469e-01 8.218595e+00 1.029770e+00 8.268865e+00 8.492480e-01 7.917449e+00 6.273976e-01 7.831922e+00 5.045202e-01 7.796260e+00 4.162217e-01 7.787195e+00 3.831288e-01 7.775846e+00 3.790814e-01 7.745160e+00 3.965793e-01 
7.964234e+00 5.307152e-01 7.919031e+00 6.603108e-01 7.904825e+00 6.564999e-01 7.704661e+00 6.525256e-01 7.582906e+00 5.845771e-01 7.540883e+00 3.732547e-01 7.636108e+00 -1.822133e-02 7.820826e+00 -1.489768e-01 7.951223e+00 7.000948e-01 8.380563e+00 1.006731e+00 8.017426e+00 -2.797008e-01 7.990426e+00 9.435432e-01 8.496602e+00 5.898606e-01 8.003051e+00 2.138279e-01 8.334375e+00 1.137792e+00 8.429927e+00 2.864587e-01 7.945185e+00 8.438466e-01 8.683895e+00 1.218573e+00 8.417575e+00 2.923452e-02 8.147542e+00 1.026436e+00 8.649214e+00 9.939202e-01 8.195464e+00 3.153258e-01 8.479572e+00 1.089788e+00 8.650378e+00 5.730378e-01 8.052695e+00 7.758004e-01 8.507517e+00 1.421652e+00 8.262210e+00 9.023267e-01 7.919741e+00 4.745172e-01 7.871910e+00 3.742453e-01 7.917392e+00 3.819016e-01 7.953704e+00 4.068795e-01 7.970449e+00 4.452172e-01 
8.245741e+00 5.284737e-01 8.251338e+00 6.481509e-01 8.314096e+00 6.454169e-01 8.082120e+00 6.778545e-01 7.930503e+00 7.461402e-01 7.820542e+00 8.850909e-01 7.695706e+00 9.967924e-01 7.622094e+00 4.420481e-01 7.825747e+00 2.480156e-03 6.850296e+00 -1.423232e+00 7.034482e+00 -8.000337e-01 7.689225e+00 -2.088666e-01 7.411069e+00 -8.840424e-01 7.519660e+00 1.764526e-01 7.877493e+00 3.326468e-01 7.584232e+00 -5.177489e-01 7.921821e+00 8.867151e-01 7.897976e+00 3.353713e-01 7.542687e+00 -2.084794e-01 8.096971e+00 1.179842e+00 7.920006e+00 -2.848270e-02 7.709751e+00 6.109803e-01 8.351156e+00 1.315607e+00 8.097894e+00 1.044878e-01 8.103217e+00 1.885121e+00 8.433203e+00 1.938376e+00 7.892724e+00 6.442778e-01 7.811388e+00 2.106680e-01 7.966569e+00 2.395037e-01 8.100215e+00 3.213996e-01 8.173394e+00 3.764666e-01 8.218313e+00 4.308138e-01 
8.491695e+00 5.731988e-01 8.557381e+00 6.800577e-01 8.697918e+00 6.787250e-01 8.408375e+00 7.448195e-01 8.162469e+00 9.409768e-01 7.837128e+00 1.402848e+00 7.268448e+00 1.970611e+00 6.652717e+00 1.148819e+00 6.655627e+00 -1.863199e+00 4.442509e+00 -3.117229e+00 5.493828e+00 -3.501318e-01 5.635237e+00 -3.504505e+00 4.923150e+00 -1.841599e+00 6.159813e+00 -1.474310e+00 5.068645e+00 -3.132296e+00 5.508900e+00 -9.628404e-01 6.205613e+00 -2.905057e+00 5.016425e+00 -2.451413e+00 5.784398e+00 -2.073451e-01 5.830929e+00 -2.600845e+00 5.482858e+00 -1.451247e+00 6.279979e+00 -1.058336e+00 5.566313e+00 -2.037527e+00 5.803371e+00 -7.427451e-01 6.780267e+00 -1.554103e+00 6.584337e+00 -1.571945e+00 7.131564e+00 -7.129051e-01 7.839501e+00 -4.681953e-02 8.153748e+00 2.292737e-01 8.273560e+00 3.394118e-01 8.347769e+00 4.016718e-01 8.420810e+00 4.672775e-01 
8.739697e+00 5.726139e-01 8.854050e+00 6.617171e-01 9.059807e+00 6.623300e-01 8.718862e+00 7.038042e-01 8.418099e+00 8.082757e-01 8.061246e+00 1.052569e+00 7.573719e+00 1.364889e+00 7.143588e+00 9.913908e-01 7.157239e+00 7.137502e-02 6.037225e+00 -5.787121e-01 5.678035e+00 3.299641e-02 6.000122e+00 -1.779279e+00 5.346122e+00 -1.231316e+00 6.102477e+00 -1.114918e+00 5.205712e+00 -2.553261e+00 5.375767e+00 -8.329841e-01 6.076679e+00 -3.078525e+00 4.774987e+00 -2.632207e+00 5.594648e+00 -1.566670e-01 5.428817e+00 -3.581956e+00 5.031251e+00 -1.742802e+00 6.087154e+00 -1.683200e+00 4.599644e+00 -3.709826e+00 5.161122e+00 -1.057232e+00 6.105110e+00 -4.458738e+00 5.508909e+00 -4.478612e+00 7.589809e+00 -1.294892e+00 8.367560e+00 3.818546e-02 8.499317e+00 3.472342e-01 8.511618e+00 3.931071e-01 8.557727e+00 4.173394e-01 8.641083e+00 4.716783e-01 
8.949038e+00 5.926661e-01 9.123298e+00 6.724228e-01 9.396588e+00 6.750134e-01 9.009153e+00 6.749192e-01 8.693834e+00 6.011224e-01 8.439355e+00 3.892153e-01 8.303220e+00 1.044212e-01 8.256382e+00 2.491281e-01 8.057533e+00 1.371960e+00 8.651903e+00 1.666313e+00 7.996614e+00 3.929210e-01 8.135080e+00 1.561095e+00 8.182366e+00 3.050209e-01 7.719478e+00 7.227038e-01 8.169442e+00 1.035416e+00 7.739795e+00 -2.311776e-01 7.981576e+00 9.181436e-01 7.852409e+00 1.696408e-01 7.417287e+00 -2.438952e-01 7.994618e+00 4.131928e-01 7.602746e+00 -7.406629e-01 7.588915e+00 1.378694e-01 7.785179e+00 -1.988359e-01 7.462233e+00 -8.380641e-01 7.925117e+00 -2.489604e-01 7.405155e+00 -1.229314e+00 7.663255e+00 -8.055647e-01 8.111923e+00 -1.529619e-01 8.389509e+00 1.937141e-01 8.542727e+00 3.369955e-01 8.667624e+00 4.129599e-01 8.802107e+00 4.892786e-01 
9.166457e+00 5.845074e-01 9.384395e+00 6.496628e-01 9.711643e+00 6.535573e-01 9.301359e+00 6.583924e-01 8.977691e+00 5.864842e-01 8.754305e+00 3.327496e-01 8.710674e+00 -4.890749e-02 8.700446e+00 1.851438e-01 8.399711e+00 4.591745e-01 8.993569e+00 1.294115e+00 8.948695e+00 5.583616e-01 8.368344e+00 1.011951e+00 8.866675e+00 1.105914e+00 8.381974e+00 4.471567e-01 8.579102e+00 1.229854e+00 8.732488e+00 4.896880e-01 8.165080e+00 1.006745e+00 8.896404e+00 1.261005e+00 8.561616e+00 -2.430916e-02 8.384210e+00 1.179943e+00 8.840301e+00 6.902954e-01 8.352406e+00 3.228421e-01 8.794396e+00 1.228402e+00 8.820258e+00 1.948971e-02 8.522250e+00 1.255553e+00 8.909582e+00 1.573267e+00 8.427850e+00 3.934149e-01 8.364167e+00 1.058508e-01 8.524227e+00 2.151579e-01 8.689894e+00 3.338518e-01 8.837064e+00 4.128115e-01 8.992108e+00 4.890243e-01 
9.339478e+00 5.825326e-01 9.616946e+00 6.276970e-01 1.000206e+01 6.321107e-01 9.595386e+00 6.194611e-01 9.279879e+00 5.685033e-01 9.059206e+00 4.745161e-01 8.955809e+00 3.765687e-01 8.915597e+00 5.177417e-01 8.751539e+00 8.629699e-01 8.971025e+00 8.803074e-01 8.767333e+00 6.060260e-01 8.693031e+00 1.002752e+00 8.666496e+00 8.839332e-01 8.474235e+00 6.750377e-01 8.687121e+00 8.719175e-01 8.581382e+00 6.869864e-01 8.373029e+00 9.265379e-01 8.635651e+00 8.825968e-01 8.555222e+00 3.521331e-01 8.513216e+00 9.038372e-01 8.638172e+00 8.881805e-01 8.412200e+00 5.007326e-01 8.702155e+00 8.771672e-01 8.732099e+00 6.225775e-01 8.415410e+00 8.475368e-01 8.812099e+00 1.213112e+00 8.658674e+00 7.336405e-01 8.507682e+00 3.500964e-01 8.575478e+00 2.853569e-01 8.737695e+00 3.421212e-01 8.920055e+00 4.159056e-01 9.117597e+00 4.959850e-01 
9.525115e+00 5.623624e-01 9.841700e+00 5.960654e-01 1.027065e+01 6.017119e-01 9.856423e+00 5.925869e-01 9.538963e+00 5.469942e-01 9.306614e+00 4.889041e-01 9.136607e+00 5.017058e-01 8.962906e+00 5.775099e-01 8.834118e+00 6.071265e-01 8.917286e+00 7.712290e-01 8.931793e+00 8.287613e-01 8.717435e+00 8.738225e-01 8.739476e+00 8.770727e-01 8.655578e+00 7.447133e-01 8.629836e+00 8.234856e-01 8.633609e+00 8.457089e-01 8.484167e+00 8.359009e-01 8.647829e+00 7.969373e-01 8.639559e+00 6.569661e-01 8.528570e+00 8.184081e-01 8.645128e+00 8.111185e-01 8.600521e+00 6.609721e-01 8.726430e+00 8.145716e-01 8.751617e+00 8.292880e-01 8.616236e+00 9.094298e-01 8.775843e+00 9.227984e-01 8.672051e+00 6.952259e-01 8.666940e+00 4.805053e-01 8.742302e+00 3.820376e-01 8.885603e+00 3.842533e-01 9.067027e+00 4.289103e-01 9.277787e+00 4.928556e-01 
9.666461e+00 5.620850e-01 1.003265e+01 5.855844e-01 1.051482e+01 5.923881e-01 1.009488e+01 6.060118e-01 9.765135e+00 6.087561e-01 9.506558e+00 6.031633e-01 9.306080e+00 6.153837e-01 9.142283e+00 6.721828e-01 9.007946e+00 7.506851e-01 8.997265e+00 7.853790e-01 8.918139e+00 8.119305e-01 8.820572e+00 8.744117e-01 8.748615e+00 8.548647e-01 8.685927e+00 8.028225e-01 8.679114e+00 8.089762e-01 8.630566e+00 8.289226e-01 8.566665e+00 8.062111e-01 8.611699e+00 7.571332e-01 8.620679e+00 7.250654e-01 8.574442e+00 7.607751e-01 8.596956e+00 7.685707e-01 8.603383e+00 6.961271e-01 8.658313e+00 7.339024e-01 8.691041e+00 7.827414e-01 8.647889e+00 7.381032e-01 8.740141e+00 7.651695e-01 8.759724e+00 6.936008e-01 8.763534e+00 5.548959e-01 8.821990e+00 4.556313e-01 8.955275e+00 4.294471e-01 9.145882e+00 4.536953e-01 9.381509e+00 5.056789e-01 
9.820298e+00 5.435887e-01 1.021865e+01 5.566615e-01 1.073685e+01 5.644410e-01 1.030652e+01 5.826655e-01 9.962913e+00 5.983057e-01 9.678820e+00 6.138516e-01 9.437458e+00 6.350246e-01 9.232868e+00 6.616759e-01 9.081350e+00 7.031880e-01 9.035281e+00 7.566202e-01 8.987435e+00 8.122533e-01 8.871163e+00 8.557823e-01 8.821255e+00 8.470306e-01 8.756957e+00 8.227545e-01 8.705062e+00 8.255684e-01 8.674527e+00 8.281046e-01 8.620090e+00 8.189806e-01 8.656081e+00 7.841323e-01 8.657680e+00 7.624942e-01 8.617785e+00 7.804907e-01 8.654714e+00 7.672449e-01 8.673314e+00 7.476452e-01 8.717204e+00 7.722393e-01 8.746090e+00 7.866951e-01 8.739570e+00 7.700006e-01 8.802545e+00 7.356651e-01 8.813466e+00 6.666647e-01 8.855004e+00 5.766589e-01 8.939287e+00 4.997340e-01 9.077492e+00 4.647257e-01 9.270057e+00 4.711209e-01 9.514803e+00 5.053538e-01 
9.932643e+00 5.526761e-01 1.037011e+01 5.610046e-01 1.093457e+01 5.699953e-01 1.048773e+01 6.035224e-01 1.012939e+01 6.402207e-01 9.830610e+00 6.701305e-01 9.579168e+00 6.966744e-01 9.373763e+00 7.305024e-01 9.212498e+00 7.752043e-01 9.115779e+00 8.036561e-01 9.027149e+00 8.350819e-01 8.932051e+00 8.656641e-01 8.850303e+00 8.588577e-01 8.783522e+00 8.426388e-01 8.732966e+00 8.278077e-01 8.688596e+00 8.175113e-01 8.649829e+00 8.044339e-01 8.648175e+00 7.733671e-01 8.647830e+00 7.556382e-01 8.628173e+00 7.538543e-01 8.638158e+00 7.394546e-01 8.658258e+00 7.274580e-01 8.687658e+00 7.264782e-01 8.723429e+00 7.255700e-01 8.744925e+00 7.092632e-01 8.800526e+00 6.853504e-01 8.852068e+00 6.469951e-01 8.909614e+00 5.898425e-01 8.996889e+00 5.309443e-01 9.136601e+00 4.968468e-01 9.336925e+00 4.970542e-01 9.598866e+00 5.235713e-01 
1.005468e+01 5.390212e-01 1.051709e+01 5.390519e-01 1.110996e+01 5.488939e-01 1.065039e+01 5.857604e-01 1.027768e+01 6.286274e-01 9.961193e+00 6.648301e-01 9.687528e+00 6.918594e-01 9.458079e+00 7.186829e-01 9.280475e+00 7.551949e-01 9.169996e+00 7.924287e-01 9.087770e+00 8.332306e-01 8.981738e+00 8.627449e-01 8.904530e+00 8.619857e-01 8.832875e+00 8.500695e-01 8.766569e+00 8.369610e-01 8.727578e+00 8.249708e-01 8.687474e+00 8.162726e-01 8.685349e+00 7.944683e-01 8.687289e+00 7.764046e-01 8.668289e+00 7.709800e-01 8.688279e+00 7.589348e-01 8.711870e+00 7.528435e-01 8.739853e+00 7.500635e-01 8.781082e+00 7.414642e-01 8.809055e+00 7.249290e-01 8.859752e+00 6.909660e-01 8.912807e+00 6.484672e-01 8.979577e+00 5.967006e-01 9.077854e+00 5.441727e-01 9.225880e+00 5.105595e-01 9.433146e+00 5.055259e-01 9.704447e+00 5.225766e-01 
1.013898e+01 5.543697e-01 1.063135e+01 5.523723e-01 1.126114e+01 5.631727e-01 1.078332e+01 6.031985e-01 1.039866e+01 6.508497e-01 1.007458e+01 6.932716e-01 9.793646e+00 7.266478e-01 9.558069e+00 7.522776e-01 9.373872e+00 7.888042e-01 9.229557e+00 8.257012e-01 9.142611e+00 8.758722e-01 9.031033e+00 8.872430e-01 8.929652e+00 8.805153e-01 8.861468e+00 8.652242e-01 8.775451e+00 8.373262e-01 8.736792e+00 8.231983e-01 8.701253e+00 8.027765e-01 8.674907e+00 7.800281e-01 8.686747e+00 7.648287e-01 8.661818e+00 7.405402e-01 8.673708e+00 7.293410e-01 8.707364e+00 7.229286e-01 8.717173e+00 7.129677e-01 8.772027e+00 7.132324e-01 8.813095e+00 6.988613e-01 8.853743e+00 6.751970e-01 8.936639e+00 6.499484e-01 9.012420e+00 6.041201e-01 9.110248e+00 5.527148e-01 9.262716e+00 5.222467e-01 9.480549e+00 5.214095e-01 9.767067e+00 5.402819e-01 
1.023010e+01 5.444916e-01 1.073969e+01 5.378713e-01 1.138988e+01 5.493995e-01 1.089923e+01 5.899111e-01 1.050382e+01 6.349818e-01 1.017075e+01 6.743082e-01 9.877159e+00 7.122707e-01 9.621611e+00 7.370224e-01 9.432842e+00 7.690963e-01 9.280962e+00 8.234992e-01 9.207566e+00 8.987462e-01 9.069542e+00 8.904034e-01 8.966698e+00 8.873864e-01 8.903064e+00 8.689232e-01 8.799110e+00 8.394777e-01 8.771220e+00 8.403789e-01 8.726287e+00 8.054347e-01 8.702245e+00 7.917116e-01 8.731216e+00 7.890330e-01 8.689182e+00 7.494394e-01 8.715185e+00 7.511985e-01 8.757840e+00 7.379077e-01 8.756302e+00 7.255402e-01 8.828041e+00 7.422171e-01 8.864063e+00 7.100438e-01 8.899280e+00 6.894896e-01 8.994284e+00 6.700311e-01 9.063163e+00 6.080266e-01 9.160172e+00 5.466179e-01 9.321591e+00 5.166777e-01 9.549930e+00 5.184749e-01 9.846018e+00 5.362646e-01 
1.028740e+01 5.663101e-01 1.081702e+01 5.612191e-01 1.149452e+01 5.735517e-01 1.098362e+01 6.117584e-01 1.057790e+01 6.469294e-01 1.024406e+01 6.734584e-01 9.947671e+00 7.145051e-01 9.676703e+00 7.352461e-01 9.493920e+00 7.515873e-01 9.310039e+00 8.520208e-01 9.284966e+00 9.910234e-01 9.104317e+00 9.078200e-01 8.971423e+00 9.194349e-01 8.946148e+00 8.748654e-01 8.777848e+00 8.271419e-01 8.778848e+00 8.718524e-01 8.731031e+00 7.680604e-01 8.672454e+00 7.740147e-01 8.756674e+00 7.962243e-01 8.658555e+00 6.948169e-01 8.695394e+00 7.360665e-01 8.775456e+00 6.899667e-01 8.720575e+00 6.797193e-01 8.839491e+00 7.647141e-01 8.873664e+00 6.895349e-01 8.871754e+00 7.148211e-01 9.023952e+00 7.162577e-01 9.075251e+00 6.098738e-01 9.160735e+00 5.262843e-01 9.334178e+00 5.055896e-01 9.578961e+00 5.239865e-01 9.888735e+00 5.533570e-01 
1.034906e+01 5.612306e-01 1.088719e+01 5.547962e-01 1.157665e+01 5.677724e-01 1.105322e+01 6.114072e-01 1.063707e+01 6.429159e-01 1.029910e+01 6.406405e-01 1.000853e+01 6.587933e-01 9.718225e+00 7.200976e-01 9.523507e+00 6.876953e-01 9.372563e+00 9.271758e-01 9.387783e+00 1.037212e+00 9.080324e+00 8.878958e-01 9.012220e+00 9.772226e-01 8.972592e+00 8.110037e-01 8.780552e+00 8.509129e-01 8.843646e+00 9.223276e-01 8.700165e+00 7.143423e-01 8.704133e+00 8.263052e-01 8.827993e+00 7.875249e-01 8.634906e+00 6.984765e-01 8.761326e+00 8.200725e-01 8.803828e+00 6.185376e-01 8.741557e+00 7.122406e-01 8.932491e+00 8.283573e-01 8.873193e+00 6.346037e-01 8.926891e+00 8.125037e-01 9.088946e+00 7.646053e-01 9.084248e+00 5.772329e-01 9.174193e+00 4.863574e-01 9.369846e+00 4.831399e-01 9.628412e+00 5.145794e-01 9.944696e+00 5.489775e-01 
1.037971e+01 5.904649e-01 1.092718e+01 5.889833e-01 1.163479e+01 6.028364e-01 1.108802e+01 6.594987e-01 1.065432e+01 6.890885e-01 1.031187e+01 6.338090e-01 1.003666e+01 5.952991e-01 9.725114e+00 6.823023e-01 9.522330e+00 5.448013e-01 9.369120e+00 1.012212e+00 9.537403e+00 1.221515e+00 9.012421e+00 7.949662e-01 9.001358e+00 1.124709e+00 9.034413e+00 6.652302e-01 8.689693e+00 8.396187e-01 8.908639e+00 1.084853e+00 8.620895e+00 5.134014e-01 8.647048e+00 8.978898e-01 8.936967e+00 7.542277e-01 8.500183e+00 5.852562e-01 8.766717e+00 9.572884e-01 8.805628e+00 3.776209e-01 8.651984e+00 6.757793e-01 9.024603e+00 9.511100e-01 8.812727e+00 4.557400e-01 8.888325e+00 1.077445e+00 9.167453e+00 8.967727e-01 9.025243e+00 4.708263e-01 9.135534e+00 4.056390e-01 9.374995e+00 4.605906e-01 9.650013e+00 5.226101e-01 9.970802e+00 5.707284e-01 
1.041216e+01 5.875268e-01 1.096035e+01 5.838739e-01 1.167031e+01 5.979318e-01 1.111903e+01 6.676374e-01 1.067496e+01 7.339908e-01 1.030622e+01 7.417280e-01 9.996079e+00 7.208465e-01 9.696041e+00 7.588889e-01 9.417372e+00 6.965317e-01 9.286321e+00 9.189612e-01 9.171333e+00 7.581810e-01 8.760792e+00 6.803081e-01 8.813957e+00 7.750589e-01 8.645718e+00 4.177836e-01 8.558584e+00 6.935283e-01 8.603387e+00 6.007149e-01 8.330268e+00 4.144026e-01 8.472456e+00 6.249960e-01 8.491618e+00 3.601048e-01 8.334395e+00 5.135941e-01 8.489885e+00 5.089801e-01 8.375093e+00 1.899053e-01 8.498656e+00 4.783199e-01 8.623534e+00 3.651114e-01 8.501326e+00 2.997130e-01 8.796711e+00 5.913992e-01 8.812462e+00 3.534643e-01 8.894811e+00 2.577680e-01 9.143851e+00 3.505875e-01 9.411996e+00 4.483977e-01 9.687039e+00 5.191670e-01 1.000486e+01 5.687170e-01 
1.041336e+01 6.115286e-01 1.096495e+01 6.084818e-01 1.168193e+01 6.226389e-01 1.112699e+01 7.290727e-01 1.066098e+01 9.185182e-01 1.020703e+01 1.165853e+00 9.759488e+00 1.251392e+00 9.481007e+00 1.042259e+00 9.041675e+00 1.114790e+00 8.537656e+00 -1.012739e-01 7.477489e+00 -6.137742e-01 8.094927e+00 -1.561268e-01 7.603804e+00 -8.607067e-01 7.312241e+00 1.340852e-03 7.754211e+00 -6.176553e-01 7.076028e+00 -1.006288e+00 7.635648e+00 -7.059947e-02 7.355971e+00 -9.730651e-01 6.704844e+00 -5.997350e-01 7.698998e+00 -5.044046e-01 7.094578e+00 -1.191179e+00 7.187692e+00 -6.393170e-02 7.627586e+00 -9.419202e-01 6.979155e+00 -1.414365e+00 7.835284e+00 -5.283121e-01 7.920035e+00 -1.825841e+00 7.858559e+00 -1.176114e+00 8.757373e+00 -6.416922e-02 9.217888e+00 3.595896e-01 9.459177e+00 4.859122e-01 9.701338e+00 5.453005e-01 1.000752e+01 5.911345e-01 
1.041641e+01 6.050138e-01 1.096161e+01 6.018513e-01 1.167076e+01 6.158813e-01 1.111817e+01 7.240213e-01 1.065289e+01 9.211982e-01 1.019451e+01 1.185501e+00 9.738359e+00 1.275668e+00 9.465852e+00 1.040355e+00 9.020739e+00 1.111667e+00 8.495110e+00 -2.086660e-01 7.358057e+00 -7.776465e-01 8.063782e+00 -2.407047e-01 7.568115e+00 -9.703635e-01 7.261745e+00 -5.160610e-02 7.752575e+00 -6.382139e-01 7.073056e+00 -1.042755e+00 7.644124e+00 -7.274201e-02 7.404066e+00 -9.213609e-01 6.757145e+00 -5.963378e-01 7.730535e+00 -4.445460e-01 7.196435e+00 -1.089329e+00 7.264332e+00 -5.246459e-02 7.718581e+00 -7.765450e-01 7.153447e+00 -1.237769e+00 7.898916e+00 -4.240677e-01 8.048883e+00 -1.464903e+00 7.974028e+00 -9.893870e-01 8.762820e+00 -3.357911e-02 9.213961e+00 3.542541e-01 9.464258e+00 4.785825e-01 9.710113e+00 5.392111e-01 1.001486e+01 5.849953e-01 
1.038751e+01 6.172234e-01 1.093084e+01 6.184736e-01 1.163552e+01 6.323722e-01 1.108504e+01 7.047190e-01 1.064209e+01 7.819625e-01 1.027039e+01 8.119287e-01 9.954016e+00 7.945898e-01 9.668127e+00 7.971714e-01 9.381911e+00 7.422087e-01 9.236223e+00 8.503678e-01 9.013069e+00 5.596630e-01 8.675262e+00 5.913752e-01 8.743364e+00 6.503383e-01 8.535664e+00 3.300448e-01 8.510467e+00 6.570547e-01 8.555133e+00 5.306985e-01 8.284997e+00 3.729799e-01 8.470354e+00 6.453912e-01 8.492298e+00 3.267946e-01 8.306335e+00 5.183643e-01 8.534625e+00 5.756621e-01 8.405416e+00 1.653387e-01 8.517108e+00 5.894157e-01 8.740334e+00 5.392471e-01 8.526505e+00 3.676629e-01 8.846179e+00 9.098081e-01 8.918900e+00 5.697069e-01 8.889623e+00 3.126146e-01 9.110300e+00 3.588270e-01 9.382762e+00 4.555685e-01 9.663037e+00 5.338195e-01 9.982262e+00 5.910691e-01 