# vtk DataFile Version 2.0
Comment goes here
ASCII

DATASET STRUCTURED_POINTS
FIELD FieldData 1
TIME 1 1 double
0.06500000
DIMENSIONS    64   64   1

ORIGIN    0.000   0.000   0.000
SPACING   0.03125 0.03125   1.000

POINT_DATA   4096
SCALARS Omega double
LOOKUP_TABLE default

9.277747e-02 -2.785195e-01 -2.296530e-01 -5.269822e-01 -1.949100e-01 -1.923163e-01 -1.226473e-01 -3.835321e-01 -1.618378e-01 -3.307987e-01 -1.430998e-01 -2.285197e-01 -1.000903e-01 -5.637554e-02 -1.417376e-02 1.521041e-01 9.376913e-02 3.488918e-01 2.444954e-01 5.593753e-01 3.906665e-01 6.261438e-01 3.391552e-01 6.700014e-01 4.045627e-01 7.214481e-01 4.400526e-01 7.572401e-01 4.299965e-01 6.947257e-01 3.964293e-01 6.854720e-01 4.401192e-01 6.858660e-01 4.492959e-01 6.472415e-01 4.638077e-01 6.269598e-01 4.826188e-01 6.373755e-01 4.960666e-01 6.583395e-01 4.930432e-01 5.476055e-01 4.652132e-01 5.106136e-01 3.899293e-01 3.465908e-01 3.154224e-01 1.248752e-01 2.418166e-01 -5.914608e-02 1.318917e-01 -1.970012e-01 4.086874e-02 -2.994280e-01 -1.225766e-02 -3.750871e-01 -3.500492e-02 -4.378164e-01 -2.929482e-02 -4.828336e-01 1.517484e-02 -5.825452e-01 
-1.591974e+01 -3.901208e+01 -1.331736e+01 -3.237571e+01 -2.012108e+01 -2.731354e+01 -2.607364e+01 -2.324186e+01 -3.259116e+01 -2.151410e+01 -3.601174e+01 -2.127397e+01 -3.747189e+01 -2.154687e+01 -3.901216e+01 -2.069439e+01 -4.201538e+01 -1.804475e+01 -4.661499e+01 -1.391066e+01 -5.203451e+01 -9.129773e+00 -5.752856e+01 -4.088327e+00 -6.302974e+01 8.208809e-01 -6.834109e+01 5.596533e+00 -7.339721e+01 1.051114e+01 -7.859652e+01 1.544322e+01 -8.364191e+01 1.970033e+01 -8.746945e+01 2.242397e+01 -8.940128e+01 2.306131e+01 -8.956214e+01 2.260294e+01 -8.887963e+01 2.153585e+01 -8.756736e+01 1.990204e+01 -8.514641e+01 1.688728e+01 -8.086691e+01 1.198547e+01 -7.408818e+01 5.059426e+00 -6.563562e+01 -2.776541e+00 -5.679861e+01 -1.042795e+01 -4.804660e+01 -1.800446e+01 -3.929200e+01 -2.514799e+01 -3.122740e+01 -3.108321e+01 -2.423846e+01 -3.589417e+01 -1.724860e+01 -4.010956e+01 
-6.196695e+01 8.967845e+00 -5.193308e+01 8.810771e+00 -9.599270e+00 6.694462e+00 -5.319232e+01 5.088781e-01 -6.808441e+01 -6.716360e-01 -7.872665e+01 -7.957081e-01 -8.747463e+01 -7.554437e-01 -9.429079e+01 -1.681743e+00 -9.904036e+01 -3.731641e+00 -1.019007e+02 -6.451902e+00 -1.034523e+02 -9.234872e+00 -1.039892e+02 -1.190499e+01 -1.041053e+02 -1.440773e+01 -1.037247e+02 -1.671268e+01 -1.031869e+02 -1.895854e+01 -1.019219e+02 -2.145407e+01 -1.004622e+02 -2.372309e+01 -9.942123e+01 -2.521827e+01 -9.920295e+01 -2.556636e+01 -9.969246e+01 -2.551751e+01 -1.000058e+02 -2.530744e+01 -1.000335e+02 -2.487324e+01 -9.962229e+01 -2.392885e+01 -9.957406e+01 -2.160598e+01 -1.001545e+02 -1.809267e+01 -1.007283e+02 -1.413412e+01 -1.003647e+02 -1.055517e+01 -9.911680e+01 -6.850254e+00 -9.729616e+01 -3.203860e+00 -9.408061e+01 -3.102039e-02 -8.882178e+01 2.796860e+00 -8.266566e+01 4.607048e+00 
-3.014741e+01 7.463162e+00 -2.825102e+01 1.143812e+01 -3.505150e+01 5.764595e+00 -1.913967e+01 9.538419e+00 -2.863863e+01 7.465390e+00 -3.496225e+01 6.202226e+00 -4.007215e+01 5.329542e+00 -4.379757e+01 3.872642e+00 -4.595980e+01 1.641967e+00 -4.674301e+01 -1.127668e+00 -4.654613e+01 -3.882261e+00 -4.593692e+01 -6.799407e+00 -4.500833e+01 -9.195366e+00 -4.375005e+01 -1.126914e+01 -4.240616e+01 -1.354530e+01 -4.073844e+01 -1.561901e+01 -3.873156e+01 -1.730804e+01 -3.719914e+01 -1.828218e+01 -3.648826e+01 -1.819457e+01 -3.634884e+01 -1.787360e+01 -3.644328e+01 -1.728849e+01 -3.647814e+01 -1.666593e+01 -3.664625e+01 -1.549793e+01 -3.725122e+01 -1.348768e+01 -3.883691e+01 -1.051529e+01 -4.067361e+01 -7.293951e+00 -4.216300e+01 -4.227581e+00 -4.328039e+01 -1.129676e+00 -4.415134e+01 1.845303e+00 -4.411064e+01 4.065746e+00 -4.264347e+01 6.377494e+00 -4.193144e+01 9.373960e+00 
-3.121743e+00 2.348616e+00 -3.215217e+00 -7.053817e+00 -5.660488e+01 -7.611717e-01 6.734255e+00 4.776018e-01 1.245562e+00 3.307844e-01 -5.283055e-01 2.343243e-01 -1.214728e+00 1.526882e-01 -1.520021e+00 7.324256e-03 -1.564862e+00 -1.465225e-01 -1.655164e+00 -2.717511e-01 -1.623089e+00 -2.946512e-01 -1.763675e+00 -2.484466e-01 -1.679432e+00 -2.644493e-01 -1.743692e+00 -2.293400e-01 -1.707921e+00 -2.678435e-01 -1.638648e+00 -2.501089e-01 -1.574145e+00 -2.623519e-01 -1.366627e+00 -2.930921e-01 -1.298606e+00 -3.818653e-01 -1.084602e+00 -5.579538e-01 -1.043069e+00 -6.740529e-01 -8.863437e-01 -8.160999e-01 -7.997633e-01 -8.319555e-01 -6.756598e-01 -8.361789e-01 -4.886594e-01 -8.032670e-01 -4.745780e-01 -6.795851e-01 -4.548470e-01 -4.470632e-01 -4.549419e-01 -1.621152e-01 -5.207801e-01 1.669455e-01 -6.742856e-01 5.469296e-01 -9.089600e-01 1.077894e+00 -1.245297e+00 2.149455e+00 
-2.565694e+00 2.063574e+00 -2.907848e+00 -6.351704e+00 -7.397900e+01 -2.777268e+00 5.717022e+00 -1.158302e+00 3.239461e+00 -2.698573e-01 1.632360e+00 -4.657992e-02 7.448282e-01 8.805622e-02 2.178798e-01 3.318465e-02 1.168631e-01 -1.250406e-01 4.155072e-02 -2.724133e-01 1.498118e-01 -2.110093e-01 -1.559544e-02 -6.842224e-02 1.281210e-01 -1.286471e-01 -3.085551e-02 -3.581449e-02 7.172105e-02 -9.684350e-02 -2.978229e-02 4.143868e-02 -4.457444e-02 -2.258664e-02 -1.568833e-02 6.658159e-02 -1.160977e-01 4.083582e-02 1.464378e-02 4.159287e-02 -1.309178e-01 1.009611e-01 -1.277154e-02 2.745856e-02 -1.607377e-01 1.034743e-01 -6.870841e-02 -6.857744e-02 -4.948343e-02 -2.589051e-02 4.893930e-02 -4.849204e-02 -2.956983e-02 1.441758e-01 -1.319729e-01 3.581287e-01 -2.940621e-01 5.416882e-01 -5.191543e-01 8.035572e-01 -8.942628e-01 1.138601e+00 -1.421587e+00 1.222963e+00 
-2.553501e+00 1.353753e+00 -1.721762e+00 -7.304775e+00 -8.411720e+01 -1.919424e+00 4.418729e+00 -1.433545e+00 3.151142e+00 -5.727390e-01 1.761220e+00 -1.562395e-01 8.333041e-01 2.053042e-01 2.203034e-01 1.808121e-01 1.359743e-01 -4.248145e-01 7.827616e-02 -3.903109e-01 3.016097e-01 -3.149686e-01 -3.806633e-03 -2.156663e-02 2.701660e-01 -1.446761e-01 8.355133e-02 -2.825086e-02 1.322933e-01 -3.755684e-02 1.343156e-01 4.133854e-03 -6.417498e-02 8.071070e-02 1.328783e-01 2.416571e-02 -1.863536e-01 1.595328e-01 1.049096e-01 3.522029e-02 -1.623785e-01 1.666603e-01 -4.378922e-02 1.060503e-01 -1.478691e-01 1.088759e-01 -1.770793e-01 2.834331e-02 1.307269e-01 -1.781824e-01 -2.913139e-02 -1.971793e-02 -6.664258e-02 2.790008e-01 -1.787277e-01 5.035096e-01 -3.986832e-01 6.592686e-01 -6.904810e-01 8.426833e-01 -1.079985e+00 1.085108e+00 -1.611506e+00 1.250620e+00 
-2.277655e+00 1.096634e+00 -1.210023e+00 -6.493547e+00 -9.431068e+01 -1.716698e+00 2.397623e+00 -2.179271e+00 2.518188e+00 -1.133690e+00 1.815080e+00 -3.939095e-01 9.774883e-01 4.721511e-01 1.254643e-01 8.079011e-01 -2.244640e-01 -1.087481e+00 2.107167e-01 -4.406102e-01 3.885494e-01 -4.639850e-01 -2.241258e-02 3.683304e-02 3.469020e-01 -2.379623e-01 -2.898283e-02 -1.174718e-01 2.288826e-01 -9.028146e-02 -2.512312e-02 -8.944669e-02 -4.258387e-03 1.296790e-01 -7.264346e-03 -2.918250e-02 -1.758039e-01 2.664133e-01 7.323068e-02 -3.589266e-02 -1.945139e-01 2.686393e-01 8.048402e-02 9.839250e-02 -3.161576e-01 3.243172e-01 -1.046826e-01 8.523052e-03 -2.057337e-01 -3.084828e-01 2.732204e-01 -2.603085e-01 1.963448e-01 4.150931e-01 -7.744196e-02 7.141943e-01 -3.957726e-01 8.350891e-01 -6.906734e-01 1.008372e+00 -1.043863e+00 1.242508e+00 -1.518041e+00 1.458596e+00 
-1.863095e+00 7.670036e-01 -8.142319e-03 -6.908760e+00 -9.959214e+01 -9.686927e-01 1.519005e+00 -2.182099e+00 1.805230e+00 -1.488203e+00 1.530889e+00 -7.398089e-01 8.896857e-01 6.649916e-01 2.454071e-01 2.299409e+00 -1.031182e+00 -2.727315e+00 6.309985e-01 4.190872e-01 5.467695e-01 -7.031243e-01 -1.015264e-01 3.185623e-01 5.266490e-01 1.819487e-01 -3.446423e-02 -8.212604e-01 3.484011e-01 9.030848e-01 6.028670e-02 -1.067373e+00 -5.595948e-02 1.173169e+00 1.243041e-01 -7.311300e-01 -3.751791e-01 8.053462e-01 2.557469e-01 -1.671473e-02 -3.356951e-01 -1.464455e-02 1.394815e-01 8.135320e-01 -3.609822e-01 -3.111425e-01 -3.029723e-01 8.886176e-01 1.238516e-01 -1.172337e+00 1.667300e-01 -1.059034e-01 2.575944e-01 6.005148e-01 -7.943218e-02 8.340578e-01 -4.790738e-01 8.868051e-01 -7.769503e-01 1.012505e+00 -1.074185e+00 1.214416e+00 -1.445577e+00 1.396266e+00 
-1.452994e+00 5.315667e-01 7.124430e-01 -6.390384e+00 -1.054047e+02 -6.239885e-01 5.508406e-01 -2.519012e+00 1.035035e+00 -2.213251e+00 1.359669e+00 -1.734052e+00 1.166524e+00 -7.748171e-02 1.004117e+00 1.523869e+00 -2.224402e+00 -6.994008e-01 2.752370e+00 3.460835e+00 6.644712e-01 -5.184612e-02 2.712233e-01 1.981164e+00 1.098613e+00 9.626547e-01 -3.728296e-01 -1.303739e+00 1.275289e+00 2.807012e+00 -9.019581e-01 -2.943769e+00 9.874019e-01 3.593328e+00 -8.641581e-01 -2.600475e+00 4.500956e-01 2.564013e+00 -7.799373e-02 -1.123479e+00 4.809946e-03 6.043279e-02 6.622022e-01 1.453448e+00 -8.949937e-01 -1.508085e+00 5.346351e-01 3.882110e+00 -2.167375e+00 -3.984790e+00 1.097885e+00 -6.185424e-01 1.076468e+00 1.427039e+00 -1.706940e-01 1.105066e+00 -6.636959e-01 9.320935e-01 -8.114614e-01 1.041927e+00 -9.798909e-01 1.242871e+00 -1.242025e+00 1.387679e+00 
-9.745150e-01 2.175461e-01 1.704366e+00 -6.261974e+00 -1.075923e+02 -1.653314e-01 1.803107e-01 -2.409787e+00 4.509791e-01 -2.497341e+00 8.366587e-01 -2.815265e+00 4.233945e-01 -4.582994e+00 4.121374e+00 -1.573875e+01 4.717443e+00 2.758691e+01 1.784620e+01 7.920383e+00 8.727786e+00 1.819067e+01 2.799556e+00 4.105019e+00 1.303647e+01 1.452784e+01 1.979303e+00 6.606898e+00 1.121559e+01 7.851577e+00 3.286512e+00 6.399117e+00 7.012649e+00 2.776959e+00 6.349629e+00 8.063224e+00 3.076950e+00 1.662048e+00 9.699038e+00 7.414334e+00 1.467541e+00 2.816666e+00 8.628003e+00 4.149912e+00 2.394533e+00 1.725370e+00 4.012896e+00 8.435597e-01 6.164470e+00 -6.123671e+00 7.984763e-01 -2.320686e+00 1.152697e+00 2.201325e+00 -3.002022e-01 1.310789e+00 -8.618881e-01 9.221016e-01 -8.745448e-01 9.962361e-01 -9.199758e-01 1.185421e+00 -1.048384e+00 1.292214e+00 
-5.358605e-01 -2.291376e-02 2.353721e+00 -5.632125e+00 -1.102138e+02 1.852691e-01 -3.074434e-01 -2.217061e+00 -2.738730e-01 -2.652372e+00 2.974640e-01 -4.710883e+00 1.732655e+00 -1.340981e+01 1.394947e+01 -3.928285e+01 2.607855e+01 7.844884e+01 5.031430e+01 5.677388e-01 3.593312e+01 6.226929e+01 2.219138e+01 7.351163e+00 5.635573e+01 5.455067e+01 2.105170e+01 4.463485e+01 5.952356e+01 2.531021e+01 2.095975e+01 6.319567e+01 4.525621e+01 -8.859050e-01 2.896346e+01 6.715567e+01 3.211085e+01 -1.086448e+00 4.584686e+01 6.097284e+01 2.402609e+01 2.496542e+01 5.848334e+01 3.992866e+01 1.889308e+01 4.426539e+01 5.187583e+01 1.019711e+01 1.856935e+01 5.943212e+01 3.145001e+01 2.902668e+01 6.537431e-01 2.927343e+00 -2.772189e+00 1.509472e-01 -1.427359e+00 5.780542e-01 -8.459503e-01 9.364810e-01 -7.420540e-01 1.165046e+00 -7.847125e-01 1.224444e+00 
-7.497423e-02 -2.960065e-01 3.063941e+00 -5.156948e+00 -1.101041e+02 3.760228e-01 -4.088885e-01 -1.949723e+00 -3.436399e-01 -2.106524e+00 9.358635e-01 -3.553503e+00 3.800448e+00 -8.237674e+00 1.018004e+01 -2.016133e+01 2.194742e+01 3.149801e+01 2.274817e+01 -1.074349e+01 3.496195e+01 2.853790e+01 1.530855e+01 1.036869e+01 4.985750e+01 2.416144e+01 2.428212e+01 5.106910e+01 4.587415e+01 4.814324e+00 3.470206e+01 7.256008e+01 2.705126e+01 -1.108794e+01 4.561354e+01 6.982408e+01 1.427159e+01 2.112942e+00 5.850325e+01 5.374846e+01 1.779382e+01 4.448401e+01 6.093047e+01 2.871450e+01 3.049996e+01 7.914528e+01 4.257690e+01 -1.559352e+00 4.792795e+01 1.166973e+02 1.924518e+01 3.002567e+01 -6.576446e+00 1.089206e+00 -4.048554e+00 -6.790541e-01 -1.521008e+00 2.722199e-01 -7.254677e-01 8.220175e-01 -5.711280e-01 1.093731e+00 -5.358747e-01 1.122444e+00 
3.434206e-01 -4.894304e-01 3.532019e+00 -4.463187e+00 -1.103014e+02 5.746528e-01 -4.651125e-01 -1.614103e+00 -4.429029e-01 -8.818298e-01 4.506619e-01 1.531093e+00 5.426087e-01 8.225032e+00 -6.751283e+00 2.995716e+01 -3.202994e+01 -8.159740e+01 -2.935580e+01 -3.154820e+00 -3.813138e+01 -5.604648e+01 -7.488543e+00 -1.806704e+01 -4.896558e+01 -3.714713e+01 -1.786846e+01 -5.261358e+01 -3.792973e+01 -9.500759e+00 -2.783149e+01 -6.180712e+01 -1.818308e+01 6.819476e+00 -3.476411e+01 -4.983040e+01 -9.207558e+00 -2.941993e+00 -4.041866e+01 -3.016245e+01 -1.438234e+01 -2.947104e+01 -3.701315e+01 -9.076988e+00 -2.204306e+01 -4.036685e+01 -2.210565e+01 6.575475e+00 -2.498845e+01 -4.197538e+01 -7.644407e+00 -2.998957e+00 4.470041e-02 2.201265e+00 3.736552e-01 1.530345e+00 -3.229461e-02 1.078456e+00 -2.222792e-01 1.036362e+00 -2.894298e-01 1.114074e+00 -2.540738e-01 1.040822e+00 
7.339559e-01 -6.446542e-01 3.961799e+00 -3.897190e+00 -1.082877e+02 7.231632e-01 -5.647416e-01 -1.591356e+00 -8.612163e-01 -9.759412e-01 -5.029008e-01 1.762760e+00 -2.224606e+00 1.169666e+01 -1.621294e+01 3.409087e+01 -1.534868e+01 -5.512114e+01 -5.372407e+01 -1.942375e+00 -3.276008e+01 -5.347675e+01 -2.717762e+01 -6.679090e+00 -5.824697e+01 -5.190887e+01 -2.391085e+01 -4.683839e+01 -6.429081e+01 -2.316029e+01 -2.518764e+01 -7.209306e+01 -4.816837e+01 4.664753e+00 -3.679098e+01 -7.874820e+01 -3.225871e+01 1.720964e+00 -5.708075e+01 -6.961175e+01 -2.526876e+01 -3.566318e+01 -6.993963e+01 -4.145197e+01 -2.631428e+01 -6.927992e+01 -5.840781e+01 -3.504112e+00 -3.582842e+01 -1.056629e+02 -3.042928e+01 -3.310764e+01 3.559158e+00 5.991354e-01 3.051503e+00 2.462465e+00 7.843827e-01 1.493794e+00 3.597335e-02 1.138167e+00 -1.161061e-01 1.099526e+00 -2.884794e-02 9.563593e-01 
1.082141e+00 -7.801469e-01 4.270211e+00 -3.344668e+00 -1.065753e+02 1.049178e+00 -6.882488e-01 -1.280133e+00 -1.360858e+00 -1.127123e+00 -1.298104e+00 -4.865583e-01 -1.935177e+00 6.110048e-01 -5.097821e+00 6.265078e+00 -4.442819e+00 -1.673277e+00 -9.691137e+00 1.218319e+00 -8.832567e+00 -4.917947e+00 -5.431913e+00 6.415713e-01 -1.328934e+01 -9.142510e+00 -4.936479e+00 -4.109429e+00 -1.486864e+01 -7.638822e+00 -5.330981e+00 -9.131257e+00 -1.312106e+01 -2.505720e+00 -8.568289e+00 -1.650844e+01 -9.238869e+00 -9.734173e-01 -1.496882e+01 -2.111296e+01 -5.694288e+00 -6.989112e+00 -1.972250e+01 -1.875043e+01 -4.023049e+00 -1.491128e+01 -1.875621e+01 -8.923293e+00 -7.288181e+00 -2.367345e+01 -1.464293e+01 -1.740868e+01 -1.252175e+00 -3.418984e+00 1.216672e+00 5.502660e-01 6.518333e-01 1.015299e+00 2.251205e-01 1.031260e+00 9.976468e-02 1.041954e+00 2.124696e-01 8.585507e-01 
1.380996e+00 -8.640046e-01 4.479667e+00 -2.805167e+00 -1.031122e+02 1.163050e+00 -7.705362e-01 -1.124125e+00 -1.662584e+00 -9.414828e-01 -1.692268e+00 -5.538168e-01 -1.890515e+00 -2.256142e+00 -9.367994e-01 -5.764228e+00 2.871027e+00 3.861898e+00 -1.287244e+00 -1.892229e+00 -3.530286e-01 2.302017e+00 -3.824391e-01 -1.561461e+00 -7.222808e-01 5.427526e-01 3.068866e-01 1.663291e+00 -1.052393e+00 -2.141314e+00 6.938957e-01 3.375760e+00 -7.324184e-01 -3.455086e+00 3.310238e-01 2.610009e+00 9.952238e-02 -2.617797e+00 -8.643662e-01 4.934598e-01 7.344375e-01 -2.777556e-01 -1.330888e+00 -2.630490e+00 1.313448e+00 1.112083e+00 -6.211614e-01 -4.395720e+00 4.857747e-01 4.935518e+00 -6.581593e-01 -2.500285e-01 -6.188917e-01 -2.024024e+00 3.929862e-01 -1.983824e-01 4.994754e-01 6.554167e-01 3.025982e-01 8.943322e-01 2.294148e-01 9.623459e-01 3.932965e-01 7.622851e-01 
1.622682e+00 -9.693147e-01 4.648213e+00 -2.505726e+00 -1.000007e+02 1.404853e+00 -6.744008e-01 -1.075635e+00 -1.672871e+00 -1.248896e+00 -1.511145e+00 -1.031520e+00 -1.171553e+00 -1.538128e+00 -1.698204e-01 -2.560097e+00 1.064284e+00 6.128377e-01 6.412794e-03 -1.076353e+00 -1.827603e-01 1.830041e-01 -9.713941e-03 -9.315621e-01 -1.902423e-01 -3.496321e-01 5.096783e-03 4.813642e-01 -2.467190e-01 -1.109704e+00 3.738308e-02 1.176954e+00 -5.995077e-02 -1.586873e+00 1.305529e-01 1.170820e+00 1.668180e-01 -1.129621e+00 -4.635675e-02 4.418078e-01 1.199504e-01 2.190090e-01 -1.783684e-01 -8.596683e-01 2.408313e-01 1.120277e+00 -1.208105e-02 -1.414020e+00 -1.823529e-01 2.968802e+00 -2.992544e-01 7.139864e-01 -3.118767e-01 -7.311459e-01 1.613284e-01 -1.720401e-01 3.310244e-01 4.353380e-01 3.054297e-01 7.293280e-01 3.249714e-01 8.443446e-01 5.479195e-01 6.398564e-01 
1.811401e+00 -1.035988e+00 4.694321e+00 -2.106097e+00 -9.542182e+01 1.450487e+00 -6.382626e-01 -1.013212e+00 -1.671187e+00 -1.281152e+00 -1.428956e+00 -1.171842e+00 -9.294708e-01 -1.362153e+00 -1.324190e-01 -1.179115e+00 4.413346e-01 -6.229858e-01 -1.267674e-02 -4.515619e-01 -1.293162e-01 -2.456203e-01 4.897244e-02 -5.197744e-01 -2.357180e-01 -1.347839e-01 8.582563e-02 -1.085874e-01 -1.908137e-01 -1.800110e-01 5.774695e-02 9.776330e-02 2.508759e-02 -3.239982e-01 -1.225940e-02 1.564658e-01 2.110821e-01 -2.772512e-01 -1.805436e-01 1.419881e-01 1.996828e-01 3.407079e-02 -1.876170e-01 -8.646430e-02 1.995727e-01 3.126316e-01 -1.782660e-02 1.451838e-01 -2.719709e-01 1.390021e+00 -3.032712e-01 5.843459e-01 -8.948316e-02 -1.416804e-01 1.291371e-01 5.203331e-04 2.586219e-01 3.718297e-01 2.990223e-01 6.281990e-01 3.775317e-01 7.502632e-01 6.553406e-01 5.318215e-01 
1.942203e+00 -1.116887e+00 4.714518e+00 -1.922765e+00 -9.111065e+01 1.558720e+00 -4.451462e-01 -9.767211e-01 -1.496226e+00 -1.369399e+00 -1.216278e+00 -1.100900e+00 -7.868218e-01 -7.748985e-01 -4.044278e-01 -7.159456e-01 -3.382831e-01 -8.562554e-01 1.187038e-02 -7.253718e-01 -1.247541e-01 -4.490047e-01 1.423340e-01 -3.094061e-01 -2.061888e-01 -2.649516e-01 5.200798e-02 -1.418370e-01 -7.917400e-02 -1.867907e-01 -2.841951e-02 -3.436119e-02 9.459208e-02 -1.244776e-01 -9.205061e-02 1.281360e-02 1.898240e-01 -4.192633e-02 -1.714578e-01 3.824615e-02 1.585187e-01 8.549324e-02 -1.111779e-01 1.001518e-01 4.080243e-02 3.510344e-01 -1.261486e-01 3.085644e-01 -3.576484e-01 5.096745e-01 -1.673251e-02 3.289503e-01 2.075982e-01 2.362427e-01 2.159994e-01 2.880063e-01 2.130211e-01 4.165436e-01 2.652058e-01 5.564518e-01 3.988473e-01 6.465177e-01 7.301191e-01 4.090384e-01 
2.022193e+00 -1.162002e+00 4.619815e+00 -1.629243e+00 -8.557392e+01 1.544832e+00 -3.690964e-01 -9.737027e-01 -1.401214e+00 -1.479392e+00 -1.105580e+00 -1.234851e+00 -6.733807e-01 -4.785155e-01 -4.557297e-01 1.806877e-01 -6.988078e-01 -1.577121e+00 -6.551950e-02 -3.891128e-01 -5.834666e-02 -7.966119e-01 2.733196e-01 2.546733e-01 -3.672431e-01 -4.617502e-01 2.372738e-01 -7.809233e-02 -1.870605e-01 -3.195927e-02 1.086609e-01 -3.209819e-01 5.603478e-02 3.103384e-01 -9.747104e-02 -4.548843e-01 2.199893e-01 4.567963e-01 -2.909706e-01 -3.335055e-01 2.843278e-01 3.203485e-01 -2.538924e-01 1.011515e-01 1.505573e-01 3.535779e-01 -2.846225e-01 6.239455e-01 -2.961114e-01 -1.369669e-01 5.668913e-03 7.098495e-02 4.042655e-01 4.412124e-01 2.411569e-01 4.560214e-01 1.496422e-01 4.508224e-01 2.191380e-01 5.154112e-01 3.959592e-01 5.744262e-01 7.698988e-01 3.101256e-01 
2.055651e+00 -1.196996e+00 4.485038e+00 -1.455722e+00 -8.015143e+01 1.559409e+00 -2.310705e-01 -9.233889e-01 -1.228788e+00 -1.623297e+00 -8.923791e-01 -1.559185e+00 -3.864299e-01 -6.122396e-01 -2.872666e-01 1.096858e+00 -1.937155e+00 -1.747363e+00 7.191328e-01 1.070144e+00 -1.517123e-01 -6.655822e-01 9.949119e-01 1.506825e+00 -7.130725e-01 -3.116449e-01 7.322013e-01 2.688584e-01 -1.743484e-01 5.185633e-01 2.203176e-01 -7.478181e-01 4.197334e-01 1.383230e+00 -3.660909e-01 -1.270067e+00 8.335873e-01 1.589065e+00 -6.690953e-01 -1.064649e+00 9.571221e-01 8.396853e-01 -4.155809e-01 -7.240322e-02 6.118325e-01 3.033407e-01 -2.734698e-01 1.422912e+00 -4.708790e-01 -1.864379e+00 2.672926e-01 -6.908765e-01 1.049168e+00 1.095124e+00 2.289025e-01 7.485348e-01 -1.855756e-02 4.580349e-01 1.297173e-01 4.416401e-01 3.794308e-01 4.823518e-01 7.939913e-01 2.062693e-01 
2.042224e+00 -1.199474e+00 4.256665e+00 -1.194598e+00 -7.377230e+01 1.484996e+00 -1.809851e-01 -8.467141e-01 -1.140103e+00 -1.636018e+00 -8.866619e-01 -2.139043e+00 -1.898910e-01 -3.590535e+00 1.703427e+00 -2.700463e+00 -2.984771e+00 1.047417e+00 9.833021e+00 8.976536e+00 2.547146e+00 7.152070e+00 5.986142e+00 2.204729e+00 3.130661e+00 9.392855e+00 5.070146e+00 2.258495e+00 5.690977e+00 8.764654e+00 2.885176e+00 2.543018e+00 6.613559e+00 5.174862e+00 1.486153e+00 4.063722e+00 6.432166e+00 1.994664e+00 2.716282e+00 6.279344e+00 5.550885e+00 1.120717e+00 4.880605e+00 7.210294e+00 4.072633e+00 1.428730e+00 5.809968e+00 5.474328e+00 1.875831e+00 1.477160e+00 4.402359e+00 3.697863e+00 1.887657e+00 1.975882e+00 -6.770942e-02 7.828455e-01 -2.196712e-01 4.163698e-01 5.440212e-02 3.912340e-01 3.564640e-01 4.192739e-01 7.915769e-01 1.263103e-01 
1.996508e+00 -1.151440e+00 3.960852e+00 -9.315263e-01 -6.735199e+01 1.421218e+00 -1.740814e-01 -6.393535e-01 -1.124595e+00 -1.557831e+00 -9.004475e-01 -3.256142e+00 8.587360e-01 -9.480721e+00 6.756633e+00 -1.137593e+01 -1.297481e+00 6.612603e+00 3.198269e+01 2.035599e+01 1.239339e+01 2.698246e+01 2.154393e+01 2.945023e-01 1.686842e+01 3.706182e+01 2.014471e+01 7.542858e+00 2.592165e+01 3.390657e+01 1.361420e+01 1.611968e+01 2.847091e+01 1.631394e+01 8.870775e+00 2.630059e+01 2.651970e+01 2.616018e+00 1.415755e+01 3.596543e+01 2.266290e+01 3.064619e+00 2.339491e+01 3.809409e+01 1.763940e+01 9.655391e+00 2.895614e+01 2.533273e+01 9.072157e+00 2.720640e+01 2.201791e+01 3.123671e+01 3.497061e+00 3.938912e+00 -1.820891e+00 -1.165578e-01 -7.160708e-01 2.755084e-02 3.661892e-03 2.652322e-01 3.740491e-01 3.478365e-01 8.018140e-01 5.997360e-02 
1.901184e+00 -1.081502e+00 3.611938e+00 -6.945629e-01 -6.027769e+01 1.264400e+00 -1.206724e-01 -5.204221e-01 -9.059267e-01 -1.182556e+00 -5.459789e-01 -2.085884e+00 9.374386e-01 -5.233932e+00 4.474586e+00 -7.592956e+00 1.773125e+00 3.369292e+00 1.730812e+01 4.497022e+00 9.829941e+00 1.515634e+01 1.290937e+01 -2.687027e+00 1.452340e+01 2.204705e+01 1.228507e+01 5.408014e+00 1.992246e+01 2.000169e+01 1.001312e+01 1.452932e+01 2.009469e+01 8.276276e+00 8.807677e+00 2.289836e+01 1.677484e+01 -6.696119e-02 1.387433e+01 2.893905e+01 1.319074e+01 3.150406e+00 2.014668e+01 2.913428e+01 1.109601e+01 1.189049e+01 2.265886e+01 1.838640e+01 8.186777e+00 2.987973e+01 1.742967e+01 2.744389e+01 7.603425e-01 3.174304e+00 -1.867579e+00 -1.725819e-01 -6.041534e-01 -1.388467e-02 5.712863e-02 2.229280e-01 3.811801e-01 2.981606e-01 7.773640e-01 1.041502e-02 
1.775320e+00 -9.437801e-01 3.186765e+00 -4.160869e-01 -5.309611e+01 1.062570e+00 -6.870406e-02 -3.128079e-01 -6.694405e-01 -3.291065e-01 -5.698961e-01 1.226300e+00 -1.422031e+00 6.789884e+00 -6.205399e+00 8.769759e+00 1.114985e+00 -1.025217e+01 -2.822867e+01 -1.847776e+01 -1.158213e+01 -2.791678e+01 -1.594312e+01 -7.180520e-01 -1.728187e+01 -3.359370e+01 -1.430216e+01 -8.766359e+00 -2.386573e+01 -2.726520e+01 -1.082364e+01 -1.780454e+01 -2.331905e+01 -1.034002e+01 -9.429132e+00 -2.582002e+01 -1.910024e+01 5.833740e-01 -1.551943e+01 -3.083460e+01 -1.514550e+01 -2.104374e+00 -2.269317e+01 -2.885456e+01 -1.284742e+01 -1.024369e+01 -2.469450e+01 -1.556360e+01 -9.095181e+00 -2.597060e+01 -1.734734e+01 -2.148128e+01 -1.487563e+00 -1.108612e+00 1.296935e+00 9.432333e-01 6.567563e-01 6.070282e-01 3.964369e-01 3.984043e-01 4.541675e-01 3.100897e-01 7.654425e-01 -8.744508e-03 
1.601096e+00 -8.114569e-01 2.757347e+00 -2.455476e-01 -4.547156e+01 9.179899e-01 -6.097521e-02 -2.412214e-01 -6.208263e-01 -2.253687e-01 -7.339602e-01 1.344387e+00 -2.138775e+00 6.954098e+00 -7.069856e+00 7.833515e+00 8.813111e-01 -3.075656e+00 -2.864068e+01 -1.766354e+01 -1.112790e+01 -2.181139e+01 -2.131416e+01 -7.778942e-01 -1.521539e+01 -3.288283e+01 -1.974065e+01 -6.570053e+00 -2.432342e+01 -3.163039e+01 -1.301685e+01 -1.449857e+01 -2.733405e+01 -1.590325e+01 -8.269120e+00 -2.484814e+01 -2.570000e+01 -2.872664e+00 -1.340590e+01 -3.505710e+01 -2.187021e+01 -3.142319e+00 -2.259431e+01 -3.789519e+01 -1.679174e+01 -9.687865e+00 -2.835027e+01 -2.580317e+01 -8.670858e+00 -2.837659e+01 -2.211153e+01 -3.272868e+01 -3.178895e+00 -3.543600e+00 2.032340e+00 8.633829e-01 9.834180e-01 6.659960e-01 4.736181e-01 4.032510e-01 4.426139e-01 2.814500e-01 7.041838e-01 -2.526613e-02 
1.402255e+00 -6.653733e-01 2.285396e+00 -5.503725e-02 -3.775279e+01 7.853120e-01 -1.279104e-01 -7.003301e-02 -6.593657e-01 -1.888340e-01 -8.540193e-01 -4.468881e-03 -1.177678e+00 1.458253e-01 -1.760129e+00 -2.622923e-01 3.941280e-01 9.900494e-01 -4.860992e+00 -1.802502e+00 -2.266704e+00 -1.642846e+00 -4.213606e+00 -7.210130e-01 -2.634958e+00 -4.072028e+00 -3.614915e+00 -8.270276e-01 -4.233532e+00 -5.036643e+00 -2.145517e+00 -1.327734e+00 -5.047312e+00 -3.843073e+00 -1.100514e+00 -3.029910e+00 -5.005776e+00 -2.055471e+00 -2.028957e+00 -5.501521e+00 -4.168928e+00 -1.537457e+00 -3.815217e+00 -7.151415e+00 -2.720984e+00 -1.973332e+00 -4.980001e+00 -6.399324e+00 -8.661727e-01 -2.848512e+00 -4.697742e+00 -5.922513e+00 -1.591791e+00 -2.108927e+00 4.258015e-01 -2.219671e-01 5.380022e-01 2.152371e-01 4.226196e-01 2.615080e-01 4.284916e-01 2.190185e-01 6.448602e-01 -4.041213e-02 
1.167409e+00 -5.352568e-01 1.822812e+00 3.084201e-02 -2.978826e+01 6.371440e-01 -1.215671e-01 1.081129e-02 -5.704090e-01 -8.921119e-02 -7.627149e-01 -1.497489e-01 -7.909213e-01 -1.112871e+00 -1.659517e-01 -2.121920e+00 6.739068e-01 1.047584e+00 -2.120244e-02 -4.636618e-01 -1.807783e-01 1.021609e+00 -9.317306e-01 -1.357315e+00 5.974241e-01 7.050351e-01 -8.402912e-01 -2.399291e-01 2.423991e-01 -2.530902e-01 -3.487744e-01 7.251246e-01 -2.489457e-01 -1.321933e+00 3.449234e-01 1.251748e+00 -6.079364e-01 -1.671854e+00 7.437363e-01 1.088377e+00 -7.485924e-01 -9.156942e-01 5.585797e-01 9.941905e-02 -4.220192e-01 -2.046092e-01 3.179948e-01 -1.178131e+00 3.382476e-01 2.280424e+00 -3.391640e-01 9.095496e-01 -8.783680e-01 -9.300875e-01 3.939786e-02 -4.056264e-01 3.625335e-01 3.449782e-02 3.596094e-01 1.640795e-01 3.710524e-01 1.591644e-01 5.459340e-01 -5.253859e-02 
9.047482e-01 -4.144058e-01 1.343403e+00 7.584094e-02 -2.179251e+01 4.713889e-01 -1.086120e-01 1.762661e-02 -4.082359e-01 -1.723958e-01 -4.875049e-01 -3.338856e-01 -3.577241e-01 -7.164105e-01 2.377766e-03 -8.053625e-01 2.979170e-01 -4.318687e-02 1.485778e-01 -6.671141e-02 -4.978916e-02 2.098771e-01 -2.080228e-01 -4.178715e-01 1.169281e-01 1.647374e-01 -2.082171e-01 -1.169713e-01 3.602854e-02 -1.479035e-02 -1.138492e-01 1.183592e-01 -2.667771e-02 -3.098442e-01 6.378340e-02 2.932920e-01 -5.751870e-02 -4.739766e-01 1.881542e-01 3.425152e-01 -1.240649e-01 -2.911648e-01 1.676697e-01 9.535119e-02 -4.201369e-02 -1.021162e-01 1.498274e-01 -1.132252e-02 -3.998123e-02 9.625037e-01 -2.494441e-01 6.057417e-01 -3.463476e-01 -1.900015e-01 -4.191430e-02 -2.275084e-01 1.596920e-01 -5.104279e-02 2.310941e-01 6.029044e-02 2.804017e-01 8.407005e-02 4.278677e-01 -6.908496e-02 
6.275838e-01 -3.000697e-01 8.711013e-01 9.276343e-02 -1.366173e+01 3.082072e-01 -7.078625e-02 6.688604e-02 -2.462632e-01 -1.036416e-01 -2.986313e-01 -2.953183e-01 -1.648619e-01 -5.190134e-01 6.020788e-02 -3.722947e-01 2.142385e-01 -3.602128e-01 1.373188e-01 1.446105e-01 -2.400998e-03 -1.413713e-02 -8.489445e-02 -8.932671e-02 2.635891e-02 4.209723e-02 -1.034915e-01 -8.661947e-02 -1.716999e-02 1.177901e-01 -6.434152e-02 -1.059364e-01 -1.274177e-02 3.984668e-02 2.003162e-02 -8.234088e-02 1.527785e-02 -7.563576e-02 7.369564e-02 3.271866e-02 -2.106863e-02 -1.140349e-01 6.547648e-02 8.093749e-02 1.785435e-02 -1.444503e-01 7.552104e-02 2.952823e-01 -5.635077e-02 3.973519e-01 -2.196210e-01 4.724958e-01 -2.437934e-01 1.884123e-02 -9.026820e-02 -1.445041e-01 6.629337e-02 -7.586301e-02 1.455012e-01 5.894443e-03 1.909427e-01 3.302807e-02 2.961051e-01 -7.507764e-02 
3.289828e-01 -1.813430e-01 3.823514e-01 1.005564e-01 -5.518563e+00 1.113958e-01 -3.114777e-02 8.007173e-02 -6.259203e-02 -3.801774e-02 -9.505806e-02 -1.693273e-01 -2.081485e-02 -2.580486e-01 7.721791e-02 -1.955796e-01 1.391229e-01 -2.178476e-01 8.529993e-02 3.512255e-02 2.486187e-02 -1.193453e-02 1.228252e-02 -7.119351e-03 -2.196769e-02 1.609321e-02 -1.836919e-02 -2.352250e-02 -4.018632e-02 5.610547e-02 -2.007856e-02 -5.256433e-02 -5.944487e-03 2.801566e-02 -2.634358e-03 -6.370630e-02 4.041315e-02 -2.495140e-02 4.604334e-03 -1.383991e-02 3.807196e-02 -4.759817e-02 8.152186e-03 3.912973e-02 3.784363e-02 -2.605680e-02 -7.699474e-03 2.039415e-01 -1.003731e-01 2.057122e-01 -1.626628e-01 2.685131e-01 -1.303182e-01 8.135400e-02 -6.993213e-02 -5.153651e-02 3.676531e-03 -6.250957e-02 5.575552e-02 -3.136371e-02 8.901520e-02 -1.481724e-02 1.506646e-01 -7.788134e-02 
3.425217e-02 -6.829145e-02 -9.006647e-02 9.505682e-02 2.645895e+00 -5.121308e-02 1.681743e-02 1.366704e-01 1.017088e-01 6.867424e-02 6.068775e-02 -5.398989e-02 8.901734e-02 -1.127070e-01 1.349000e-01 -8.918382e-02 1.739650e-01 -1.362959e-01 9.066866e-02 4.564585e-02 6.412743e-02 1.045628e-02 2.855866e-02 5.024518e-02 -3.969850e-03 2.122234e-02 -2.817505e-03 1.865765e-02 -3.676981e-02 5.001361e-02 -5.974353e-04 -2.438691e-02 -1.523284e-02 3.159299e-02 1.276556e-02 -5.998038e-02 2.255146e-02 -3.685721e-03 9.125077e-03 -4.003360e-02 2.942710e-02 -1.965619e-02 -1.240933e-03 1.239915e-02 3.247341e-02 4.507873e-03 -3.086094e-02 1.496608e-01 -7.336160e-02 1.262393e-01 -1.532783e-01 1.720863e-01 -1.219433e-01 7.622302e-02 -8.733309e-02 -3.528760e-02 -4.523299e-02 -7.069374e-02 -1.432170e-02 -6.220031e-02 -3.289124e-03 -5.174624e-02 7.263173e-03 -7.425675e-02 
-2.711718e-01 6.145743e-02 -5.833737e-01 1.185881e-01 1.082679e+01 -2.551733e-01 4.519905e-02 1.657318e-01 2.588538e-01 1.775287e-01 2.127585e-01 7.933880e-02 1.898434e-01 2.747098e-02 1.842549e-01 1.675710e-02 1.727710e-01 -8.251033e-03 1.088648e-01 5.636296e-02 7.833490e-02 5.129090e-02 5.597990e-02 6.401084e-02 1.434335e-02 4.706198e-02 1.548096e-02 3.917659e-02 -1.399471e-02 4.193345e-02 4.478987e-03 7.199724e-03 -1.718435e-03 1.797064e-02 6.095258e-03 -2.280610e-02 2.020210e-02 -8.583143e-03 1.335152e-03 -2.288874e-02 2.262907e-02 -1.415489e-02 -6.492001e-03 5.659767e-03 6.905902e-03 1.302790e-02 -4.413435e-02 7.561761e-02 -8.578660e-02 7.107200e-02 -1.207985e-01 8.723834e-02 -9.989961e-02 3.762616e-02 -8.793190e-02 -3.434001e-02 -7.889531e-02 -7.525917e-02 -7.806885e-02 -8.655781e-02 -9.555583e-02 -8.483653e-02 -1.394516e-01 -6.504269e-02 