# vtk DataFile Version 2.0
Comment goes here
ASCII

DATASET STRUCTURED_POINTS
FIELD FieldData 1
TIME 1 1 double
0.09300000
DIMENSIONS    64   64   1

ORIGIN    0.000   0.000   0.000
SPACING   0.03125 0.03125   1.000

POINT_DATA   4096
SCALARS Omega double
LOOKUP_TABLE default

3.817416e+03 -7.994068e+02 1.974392e+03 1.028280e+03 -1.948544e+03 1.798407e+03 -1.884553e+03 8.271181e+02 -1.360959e+03 -2.382998e+02 -2.551977e+02 2.576473e+03 -3.061659e+03 2.342790e+03 -1.214311e+03 1.665888e+02 1.531879e+03 -1.684921e+03 -2.147165e+02 1.243304e+03 -2.239971e+02 -5.589319e+02 9.719386e+02 -7.038625e+00 -7.532698e+00 -8.889247e+02 -1.135274e+03 2.111116e+03 -8.281374e+02 9.975361e+02 -3.187963e+02 -5.437401e+02 -1.143344e+02 -8.717068e+02 2.591429e+02 -2.195778e+02 4.887124e+02 9.129747e+01 2.712958e+02 -7.300691e+02 1.033260e+03 -6.702044e+02 4.927903e+01 -1.252073e+02 -1.677529e+02 7.859588e+02 -7.056799e+02 1.123478e+03 -2.138703e+02 -1.382242e+02 3.978169e+02 -1.061180e+03 4.336477e+02 7.343793e+02 7.672535e+02 -8.407912e+02 1.977057e+02 2.520821e+01 1.332439e+03 2.174908e+03 2.054733e+03 6.359729e+02 -3.270252e+03 -1.337414e+03 
4.769488e+03 -3.028743e+03 -3.026872e+03 2.180675e+03 -7.400851e+02 4.350055e+02 2.580721e+02 -3.865946e+02 1.473125e+03 -4.932492e+02 1.469444e+03 1.585258e+03 5.760136e+02 -1.077289e+03 6.406266e+01 4.534501e+02 6.612567e+02 -1.855111e+03 1.152099e+03 -1.677249e+03 9.114650e+02 -5.585022e+01 9.873154e+02 1.031000e+03 1.184678e+03 7.485435e+01 1.825809e+03 -7.372079e+02 -6.961760e+00 1.159102e+03 -9.159467e+02 4.152122e+02 1.547085e+03 -7.243016e+02 9.641865e+01 6.521573e+02 6.505435e+01 -1.231806e+02 4.509636e+02 5.859618e+02 1.332561e+02 -2.215688e+02 -2.404633e+02 -3.160134e+02 1.113724e+02 1.575807e+01 3.922925e+02 2.982997e+02 -7.221649e+02 -3.296818e+02 4.914243e+02 3.658965e+02 -4.803014e+02 -6.561007e+02 -1.632904e+03 1.666303e+03 1.598968e+03 -1.858384e+03 -1.374331e+03 -2.602482e+03 -8.230113e+02 -2.094510e+03 2.869258e+03 2.924178e+03 
-5.356764e+03 2.780891e+03 1.184501e+03 -8.677275e+02 6.840288e+02 1.612904e+02 4.251516e+03 -1.328863e+03 1.803801e+02 2.628240e+03 -3.843115e+03 -3.065230e+03 1.818828e+03 -9.317003e+02 1.933388e+03 -1.090891e+03 -6.975049e+02 7.380499e+02 2.004105e+03 -1.941405e+03 1.376920e+03 1.902005e+03 2.108140e+02 8.092498e+02 1.804737e+03 8.550307e+02 9.710778e+02 -1.675287e+03 -8.337149e+02 -1.082183e+03 -1.177645e+03 -3.853714e+02 4.582677e+02 -7.993510e+02 -5.459771e+02 5.039275e+02 -7.917866e+01 -1.135863e+02 -4.442074e+02 1.864592e+02 -3.644267e+02 7.730201e+02 -3.398071e+02 3.026049e+01 2.987740e+02 1.068508e+02 -3.655500e+01 -8.321286e+02 -1.044017e+03 1.003727e+02 -1.274907e+03 -3.642439e+02 -1.037952e+03 -4.288009e+02 -2.394240e+03 -2.836851e+03 -4.329838e+03 -5.315257e+02 1.016670e+02 3.832919e+03 3.118030e+03 6.273565e+03 8.207899e+02 -2.964654e+03 
-4.498313e+03 6.558276e+03 3.545746e+03 3.427342e+02 -4.878518e+02 9.841734e+02 -9.540056e+02 5.410597e+03 -2.400678e+03 3.735959e+03 1.386674e+03 -2.046505e+03 -2.021585e+03 -1.055029e+03 -6.489382e+02 -6.254264e+02 -1.049601e+02 1.592601e+02 2.519579e+02 -9.892059e+02 -5.449046e+01 9.356243e+02 -3.606906e+02 -1.549718e+02 -7.021412e+02 -6.820612e+02 1.093258e+00 1.379254e+03 2.540507e+03 5.706883e+02 1.353029e+02 -6.916103e+02 1.613293e+02 -5.319536e+02 -1.406196e+02 9.904081e-01 -5.005452e+01 1.260169e+02 -5.369808e+01 -2.057719e+01 4.936753e+01 4.206833e+02 -2.276902e+02 2.322192e+02 1.442543e+02 2.065073e+02 -1.284992e+02 -2.018219e+02 -4.706547e+02 9.863772e+01 -8.339513e+02 -5.834161e+02 -3.418714e+02 2.232263e+03 4.688895e+03 1.220110e+03 -1.312708e+03 4.919471e+03 2.625320e+03 1.531769e+03 -1.598796e+03 2.420463e+02 5.116008e+03 2.638563e+03 
-4.675865e+03 -2.032822e+03 6.606673e+03 -3.134008e+03 2.770937e+03 -3.212837e+03 -6.816424e+03 2.110735e+03 -4.619886e+03 -2.805325e+03 4.228834e+03 7.271847e+02 1.034287e+03 -2.066525e+03 -3.443105e+03 -9.406364e+02 -4.450690e+02 -1.689255e+02 8.056292e+02 4.014741e+03 6.862482e+02 -1.086971e+03 -4.093554e+01 -7.590480e+02 -1.222882e+03 3.390319e+02 6.668676e+02 1.836636e+01 3.347173e+03 1.520105e+03 1.192337e+03 1.165704e+03 7.162253e+02 1.325339e+03 3.321592e+02 -2.077561e+02 -4.472303e+02 -1.502377e+00 -1.198547e+02 -7.478737e+01 9.912715e+01 -5.289372e+01 -3.617708e+02 -1.146892e+02 3.209770e+02 -4.985526e+02 -5.009648e+02 4.423329e+02 4.435636e+02 -9.179477e+01 3.061289e+02 -1.777105e+02 -1.065918e+03 2.357740e+03 4.391613e+03 5.296758e+03 5.843662e+03 1.611529e+03 8.286418e+02 -6.955197e+03 -4.096162e+03 -7.497636e+03 1.177682e+02 -2.279030e+03 
4.329365e+02 -1.860508e+04 -2.563326e+03 1.330165e+03 6.396855e+02 -1.072393e+03 2.408912e+03 -8.512731e+03 -1.828255e+03 -5.979270e+03 -4.625828e+03 7.919694e+02 3.730187e+03 3.474037e+03 2.940665e+03 -8.955974e+01 -8.623689e+01 7.875713e+02 -1.499722e+03 8.708135e+02 1.289493e+03 -8.400468e+02 -1.343802e+03 -1.409418e+03 -1.386966e+03 -4.037864e+02 -2.166986e+03 2.610644e+02 5.044936e+03 -6.195009e+02 -3.227611e+03 3.170842e+03 1.750275e+02 -4.796991e+02 -2.769575e+02 -1.140593e+03 1.589353e+02 2.100231e+03 -2.896627e+02 -8.080897e+02 3.263399e+02 1.555012e+02 -8.199465e+02 -3.346642e+02 6.778421e+02 -1.774279e+03 -1.016998e+03 1.189403e+03 2.614617e+02 5.479301e+02 -8.722407e+02 8.605802e+02 -1.445139e+03 -3.366540e+03 -7.536599e+03 -7.604238e+02 -2.132783e+03 2.704433e+02 8.458997e+02 8.111150e+02 -5.954409e+03 -2.166515e+03 -6.129608e+03 1.999270e+03 
5.268739e+03 -5.356538e+03 -1.124042e+04 -1.229361e+03 3.946992e+03 7.546141e+02 -3.632954e+03 -4.370127e+03 5.903611e+01 -3.824688e+03 -5.705778e+03 2.282189e+03 1.070199e+03 -2.676319e+02 2.550577e+03 1.437290e+03 7.356401e+02 -2.969001e+03 -1.007652e+02 1.464760e+02 -5.789699e+03 -2.884536e+03 -1.455150e+03 -6.573759e+02 -1.417244e+03 -1.697422e+03 -1.146225e+03 2.307509e+03 1.930767e+03 -3.766460e+03 -3.672176e+03 3.962732e+03 3.407636e+03 -2.449587e+03 -1.028866e+03 -2.408055e+03 1.068709e+03 2.174488e+03 1.913051e+03 7.751874e+02 -4.513347e+01 -8.433512e+02 -6.597518e+02 -2.010739e+02 9.235038e+02 -2.377107e+03 -1.805675e+03 8.973995e+02 3.106852e+03 2.292804e+02 1.942240e+03 -2.997408e+03 3.867010e+02 -8.571862e+02 -2.087941e+03 -2.418789e+03 5.115113e+03 2.787922e+03 3.557162e+02 -5.574249e+03 -3.490569e+03 9.162865e+03 -2.097418e+03 1.307703e+04 
-5.192509e+03 1.630425e+04 -5.748374e+03 -1.853210e+03 -7.855355e+02 -1.738382e+03 5.446437e+03 8.235817e+03 -5.658832e+03 1.789493e+03 2.591986e+03 5.857341e+03 3.097921e+03 -6.857099e+02 -1.673806e+03 -3.878111e+02 -4.241779e+03 -1.683527e+03 -3.191282e+02 -7.826534e+02 -7.658035e+02 2.850368e+03 -3.114745e+02 -8.397219e+02 -3.227999e+03 -3.897643e+02 2.465452e+03 1.814337e+03 -3.280184e+02 1.094009e+03 -1.498118e+03 -2.399440e+03 4.327406e+03 1.416682e+03 -4.520315e+03 -1.118751e+03 4.261078e+03 -9.608003e+02 -4.599796e+03 -4.105127e+02 2.861033e+03 6.142389e+02 -7.959408e+02 -9.070795e+02 -4.828527e+02 -5.653634e+02 1.403744e+02 2.031664e+03 3.959868e+03 5.251731e+02 -2.201868e+02 1.594340e+03 5.320446e+02 2.223966e+02 1.701601e+03 1.455494e+03 2.700427e+03 -1.079215e+04 2.610927e+03 8.067424e+03 2.804419e+03 -8.817768e+03 9.806917e+02 3.660372e+03 
-8.729805e+03 5.399426e+03 5.817242e+03 1.906950e+03 -3.142107e+03 1.410370e+03 1.091976e+04 -1.729174e+03 -1.817706e+03 9.850816e+03 2.874262e+03 -2.948582e+03 1.449684e+03 2.159435e+03 2.568675e+02 -5.451883e+02 5.848459e+02 1.232414e+03 3.162597e+03 2.140847e+03 3.262932e+03 -1.366456e+03 -1.568837e+03 -1.757260e+03 -3.372255e+03 -1.589088e+02 2.320170e+03 -6.528171e+02 -3.675473e+03 2.424415e+03 -2.790553e+03 1.316598e+03 4.202835e+03 -1.694125e+03 -5.705256e+03 -1.010513e+03 -1.885267e+02 3.330348e+03 1.263235e+03 1.413466e+03 -1.753703e+03 1.225512e+03 -6.039473e+02 -1.843033e+03 -2.848033e+03 1.409694e+03 1.792529e+03 2.560348e+03 -1.666121e+03 4.407168e+03 7.330394e+02 -3.671700e+03 6.093063e+02 5.950098e+02 2.518530e+02 7.190828e+03 -3.893120e+03 -7.331684e+03 -7.196444e+03 -1.098008e+04 2.511385e+03 7.179210e+03 3.174016e+03 -1.237367e+04 
-2.129694e+03 -1.504412e+04 3.649797e+03 5.886305e+03 -8.476622e+02 7.877209e+03 8.530808e+03 -1.564386e+04 -8.774547e+03 -1.710788e+03 -4.087508e+03 -2.697888e+03 -4.168765e+02 -4.640147e+02 -1.094959e+03 1.583478e+03 3.990768e+03 -7.916448e+03 -1.290862e+02 7.649296e+03 3.604671e+03 -7.057205e+03 -1.944995e+02 2.885292e+02 -1.126013e+03 -2.094253e+03 -1.514833e+03 -2.375859e+03 1.348641e+03 -9.779934e+02 -3.992412e+03 1.652528e+03 1.982235e+03 -2.141363e+01 -2.519077e+02 1.518209e+03 4.319570e+02 2.399773e+03 5.577931e+02 -2.003074e+03 -3.754236e+03 -1.409042e+03 -1.631699e+03 -3.111951e+03 -2.491843e+03 6.796972e+02 2.495254e+03 2.217179e+03 -3.585091e+02 3.168315e+03 6.861286e+02 -4.646572e+02 -3.622184e+02 -2.910510e+03 -4.248193e+03 -3.495858e+03 -2.308095e+02 5.691130e+00 -4.381614e+03 -8.222693e+03 3.819307e+03 9.070626e+03 1.850313e+03 2.154939e+03 
5.632814e+03 3.081570e+03 -5.540645e+03 -3.470538e+03 1.927433e+02 -6.382292e+03 3.863177e+03 2.398052e+03 -8.591142e+03 -4.135428e+02 2.010922e+03 3.091768e+02 4.471212e+03 -1.105440e+03 -8.713220e+02 1.584086e+03 -3.179594e+03 -2.679853e+02 -7.235609e+02 4.547769e+02 -6.112416e+03 -1.202943e+04 3.478099e+02 4.017784e+03 -1.128385e+03 -1.340957e+03 1.553284e+01 -5.094190e+03 1.269669e+02 -2.971703e+03 2.290553e+03 7.876699e+03 4.926368e+02 -5.473866e+03 2.667288e+03 -3.808607e+02 2.028546e+03 -3.351245e+03 -1.466019e+03 -8.486081e+02 8.284773e+02 -6.097701e+03 -5.486794e+03 -1.561500e+03 2.912549e+02 9.340249e+02 1.091312e+03 1.167540e+03 2.149892e+03 4.334916e+02 -8.264378e+03 -1.367339e+03 5.064261e+03 5.383714e+02 2.028330e+03 5.664483e+03 1.929753e+03 -4.792255e+03 4.606009e+03 -9.330022e+02 -2.581348e+03 -7.267004e+02 -9.187349e+02 4.703705e+03 
2.547060e+03 1.453468e+02 1.191633e+03 -4.431088e+03 -5.911852e+02 -1.090131e+04 -4.624396e+03 5.826362e+03 8.670393e+03 4.508082e+03 1.217406e+02 -7.583105e+02 3.327165e+03 -4.554492e+02 2.572199e+03 -4.214180e+02 -2.781353e+03 -1.866931e+03 -2.933038e+03 1.889368e+03 -3.777475e+03 -1.933185e+03 1.483552e+02 -4.042216e+03 2.405683e+03 -9.082662e+02 -4.694959e+03 -1.847457e+03 -2.043937e+03 -2.708928e+02 1.552398e+03 1.843264e+03 -6.293357e+02 -4.755189e+03 -4.860797e+03 -7.522209e+02 4.755290e+03 2.800318e+03 3.123577e+03 2.297282e+03 -4.616329e+03 -1.654446e+03 4.312052e+03 4.154407e+03 3.799937e+03 -1.625951e+03 -5.913243e+03 -5.892165e+03 9.374937e+02 -4.405816e+03 -3.780750e+03 5.928113e+03 7.337250e+03 4.994888e+03 4.708620e+02 -1.746413e+03 1.304125e+03 1.898891e+03 7.987936e+03 -2.845018e+03 5.120956e+03 7.025588e+03 1.477218e+03 -7.282268e+02 
5.428252e+03 5.015977e+03 -6.932780e+03 -2.169656e+03 1.884516e+03 -2.238371e+03 -2.930078e+03 7.992084e+03 5.179698e+03 -1.019543e+03 -4.272173e+03 3.150049e+03 4.877089e+03 -6.575039e+03 -1.100906e+03 3.960323e+03 -5.784375e+03 -3.434062e+03 5.988278e+03 3.252252e+03 -2.463972e+03 1.624613e+03 3.405816e+03 4.397041e+03 -9.852713e+02 -2.483209e+03 -1.234656e+02 4.713965e+02 3.044852e+03 -1.135169e+03 -3.767500e+03 -1.094421e+03 5.958836e+02 -3.631983e+02 -1.138059e+03 3.602086e+03 -2.342806e+03 -1.878241e+02 -1.882236e+03 2.330706e+02 2.670305e+03 3.598761e+03 -3.081828e+03 7.411746e+01 2.765111e+03 -2.663789e+03 1.406343e+03 1.444866e+03 -6.800424e+03 1.287896e+03 5.756289e+03 -1.800738e+03 7.033239e+03 8.240186e+02 -2.896679e+03 -2.051291e+03 -3.152810e+03 6.298502e+03 -5.499391e+03 8.623169e+03 -1.131304e+04 -6.109474e+03 3.569323e+03 -7.471610e+03 
-5.998668e+03 -1.412695e+03 -1.193455e+04 -6.507642e+03 7.191570e+02 -1.391576e+03 -3.202867e+03 4.534028e+03 2.674099e+03 9.165683e+03 5.860743e+03 6.678246e+03 4.529158e+03 1.192455e+04 -3.510035e+03 -6.754119e+03 1.914377e+03 -1.159601e+03 1.684168e+03 5.089391e+03 4.046042e+03 1.823427e+03 -2.849492e+03 1.025086e+03 2.903676e+02 5.671820e+02 3.219912e+03 2.047143e+03 4.905468e+03 -2.882823e+03 -3.101029e+03 -3.834568e+03 4.493231e+02 5.395292e+03 3.692400e+03 -9.030583e+02 -2.889046e+03 -5.238186e+02 -4.538418e+03 -2.382722e+03 4.702184e+03 -1.362628e+03 -1.249197e+03 -3.457867e+02 -1.280062e+03 2.111053e+02 1.097495e+03 8.185397e+02 -4.254551e+03 2.156311e+03 -2.532433e+02 -1.380985e+03 -7.462691e+02 -3.598210e+03 3.709118e+03 3.738023e+03 -7.683160e+03 1.289705e+03 -7.728155e+02 5.626412e+03 -1.364460e+04 -1.131806e+04 1.453245e+03 -3.482141e+02 
1.238010e+04 -5.774791e+03 -3.199905e+01 3.097980e+03 5.738735e+02 2.370480e+03 4.352457e+03 2.346555e+03 1.085656e+03 2.936778e+03 1.118364e+04 3.365655e+03 1.032450e+03 6.704275e+03 -5.101537e+03 -2.283613e+03 3.396134e+03 -4.236743e+03 -4.107433e+02 5.664056e+03 5.536044e+03 2.839039e+03 -2.904167e+03 -2.113132e+03 5.140820e+03 1.801590e+03 -2.106736e+03 2.408156e+03 -1.461281e+03 -1.893451e+02 1.448406e+03 3.128277e+03 5.352100e+02 1.279028e+03 9.186333e+02 -6.177114e+02 3.516799e+03 1.378126e+03 2.077265e+03 1.353905e+03 -1.694961e+02 2.775834e+03 8.955487e+02 -2.555416e+03 -2.765941e+03 4.818216e+03 1.943391e+03 -2.447460e+03 -2.302094e+03 -5.194238e+03 -5.328447e+03 2.331494e+03 1.657678e+03 -3.957356e+03 1.837856e+03 2.181140e+03 -6.650785e+03 -2.225849e+02 6.485481e+03 -5.231160e+03 8.948564e+03 -8.293534e+03 -1.213550e+04 9.757575e+03 
8.830444e+03 -1.417383e+03 9.318269e+03 9.701121e+03 -3.674691e+03 4.929007e+03 6.591105e+03 -1.409651e+03 -8.860232e+03 -1.248036e+04 1.726999e+03 -1.528580e+03 1.863018e+03 -2.330833e+03 4.338681e+03 -2.845870e+02 -4.152850e+03 3.125043e+03 8.824067e+03 1.936294e+03 3.693351e+03 -2.250099e+03 -3.079220e+03 -5.065107e+03 -1.108844e+03 5.019001e+03 -7.345774e+03 3.085582e+03 -4.555905e+02 -3.031491e+03 1.208042e+03 -1.596821e+03 -3.573621e+03 -3.385722e+02 -1.336408e+03 3.177329e+01 1.441837e+03 7.951829e+02 2.244769e+03 -1.877982e+03 -3.236451e+03 4.773811e+03 -1.706418e+03 -9.777296e+02 1.078628e+03 2.083147e+03 9.071523e+02 -4.224203e+03 7.925080e+02 5.509578e+02 5.819136e+03 8.909506e+03 2.450836e+03 -8.606967e+03 3.741038e+03 -2.658847e+03 -4.001047e+03 2.577792e+03 5.606090e+03 -3.384732e+03 7.456289e+03 7.745494e+03 -6.643836e+03 6.022792e+03 
7.342190e+03 7.077143e+03 -5.793110e+03 4.333140e+03 6.555443e+02 2.428655e+03 1.442125e+03 -4.744117e+03 -2.512378e+03 -4.277114e+03 -1.170367e+04 -2.436128e+03 -2.796041e+01 1.149929e+03 3.727646e+03 7.735158e+02 3.434862e+03 2.437570e+03 3.145073e+03 -1.794551e+03 -1.795495e+03 -4.507731e+03 -4.777257e+03 -1.972632e+03 -4.646298e+03 1.330364e+03 4.488283e+02 -3.520318e+03 -1.259714e+03 -7.922557e+02 -1.898642e+03 -6.162564e+03 -3.915869e+03 -2.200996e+03 -3.062324e+03 2.790831e+03 1.600521e+03 4.599405e+02 4.353260e+03 1.716648e+03 -2.606138e+03 -2.232154e+03 -2.751222e+03 -1.327505e+03 3.578297e+03 3.380895e+03 3.253201e+03 1.083593e+03 1.632785e+03 -4.691155e+02 1.093874e+02 3.394777e+03 -3.454866e+03 -4.070420e+03 9.304778e+02 -4.250728e+03 3.000133e+03 1.468039e+03 2.805671e+03 -1.295104e+03 -7.150252e+03 -2.079013e+03 -5.615612e+03 -3.783033e+03 
-8.432160e+03 -6.696152e+03 -4.941937e+03 2.605249e+03 -5.909061e+02 -3.459813e+03 -3.308228e+03 5.315058e+03 5.282390e+03 5.335283e+03 9.441111e+01 -5.371316e+02 -1.593026e+03 -1.620398e+03 -6.492571e+03 5.913389e+02 -2.731705e+03 -9.254730e+02 -3.019906e+03 3.712186e+03 -3.610391e+03 -7.526535e+02 3.546043e+02 5.443262e+02 -1.093678e+03 -1.747452e+03 5.242843e+03 -1.521392e+03 -9.851368e+02 2.391431e+03 6.686249e+02 -9.625258e+02 1.513027e+03 5.864739e+02 -9.256604e+02 1.353239e+03 3.170017e+03 2.849417e+03 4.147643e+03 -2.953871e+02 2.597625e+03 -1.832886e+03 -1.662247e+03 -3.949451e+03 8.580530e+02 5.288660e+03 1.767143e+03 5.041486e+03 1.489403e+03 -6.830035e+03 -2.765240e+03 -6.248966e+02 -2.021891e+03 -3.525802e+02 -4.882872e+02 1.709108e+03 1.986234e+03 -4.007791e+03 -4.963719e+03 5.729170e+03 -4.852726e+03 9.281040e+02 1.047709e+04 -1.655213e+03 
-3.046257e+03 1.189464e+03 -5.470996e+03 -3.538404e+03 2.539780e+03 -3.125312e+02 -9.941424e+02 6.726459e+03 -2.496871e+03 -8.753528e+03 -3.547488e+01 5.311104e+01 -5.569260e+03 -1.972808e+03 -5.577359e+02 -2.595545e+03 3.039920e+02 8.286556e+02 -6.254319e+01 1.200870e+03 2.761211e+03 5.076482e+03 8.094966e+02 -3.233277e+03 1.588923e+02 7.964490e+02 7.118910e+02 -9.592963e+02 3.286051e+03 -8.166051e+01 -1.422367e+03 1.058630e+03 1.085454e+03 4.935616e+03 2.413369e+03 -4.923262e+02 2.826182e+03 -8.334095e+02 2.482098e+03 3.004235e+03 -2.731562e+03 -6.986981e+03 -1.544827e+03 -3.108353e+03 -1.217495e+03 5.348982e+03 2.761135e+03 5.473079e+02 -2.939819e+03 -4.098367e+03 -1.668715e+03 2.905020e+03 2.757450e+03 7.389901e+02 8.762665e+02 3.461900e+03 6.657036e+02 6.547990e+02 -9.600621e+02 4.259469e+03 3.833509e+03 -2.731716e+03 -8.230934e+02 3.000582e+02 
6.681204e+03 6.764278e+02 -3.559063e+03 -3.101788e+03 -2.346726e+02 -2.468667e+03 -1.882767e+03 -7.795940e+03 -7.298350e+02 4.209403e+03 -5.316393e+02 -1.100104e+02 -1.342752e+03 -2.890570e+03 2.110293e+02 -1.015671e+03 3.801534e+03 9.366674e+02 1.336230e+03 3.528362e+03 8.258425e+03 3.315909e+03 -4.588842e+03 -2.194824e+03 -3.111396e+02 -1.328980e+03 1.273473e+03 1.838492e+03 -1.126405e+03 -1.015058e+03 -1.559989e+03 -1.337449e+03 -3.407163e+03 -8.808351e+00 2.628891e+03 1.089099e+03 -7.379137e+02 2.235629e+03 2.177501e+01 -2.694597e+03 -8.305304e+03 -6.107491e+03 -5.061952e+03 -2.647541e+03 -7.391605e+02 4.137110e+01 5.916194e+03 1.899941e+03 -5.084989e+03 -3.712000e+03 -2.890769e+03 1.108092e+03 -5.482569e+02 -8.810898e+02 -7.802987e+02 2.600209e+03 3.805247e+03 -5.898762e+03 1.080206e+03 7.490982e+03 -4.015562e+03 3.101917e+03 4.744264e+03 -1.071971e+04 
2.393402e+03 -3.829546e+03 1.288076e+03 4.467912e+03 -1.221320e+02 2.748804e+03 -1.048366e+03 -9.311415e+03 3.550110e+03 3.300593e+03 4.790658e+03 -5.009668e+03 -2.656713e+03 6.391647e+02 1.460022e+03 2.170438e+03 -1.486239e+03 -6.946711e+02 7.628219e+02 1.362237e+03 1.436353e+02 -1.515582e+03 -1.292478e+03 6.513216e+02 -5.492654e+02 -9.217012e+02 1.688932e+03 -4.827879e+02 1.508357e+02 1.615566e+02 -6.574436e+03 -1.332125e+03 1.899377e+03 -1.260696e+03 5.630097e+02 1.784267e+03 -2.217099e+03 9.158148e+02 -2.627420e+03 -2.920186e+03 -3.820536e+03 -2.577307e+03 -9.420594e+01 5.620327e+02 5.009778e+02 -3.335010e+02 1.250938e+03 8.855681e+02 4.176776e+03 -3.592496e+03 -9.555056e+03 -4.901871e+03 3.287930e+03 3.841549e+03 -5.095436e+02 4.266137e+03 -1.150754e+03 -4.694098e+03 2.508649e+03 -1.941583e+03 -1.670395e+03 7.721452e+03 5.800006e+03 -6.079950e+03 
1.594120e+01 -1.453663e+02 7.987040e+03 -2.222675e+02 -1.333835e+03 3.212830e+03 -7.994350e+03 -4.742521e+03 2.302833e+03 -6.918604e+03 4.495543e+03 -3.682131e+02 -2.369808e+03 -4.172109e+02 -3.008824e+03 -1.688686e+03 -1.064505e+03 -1.543467e+03 5.926315e+02 4.513452e+02 9.169775e+02 -1.250114e+03 -6.929722e+02 -9.065313e+02 -3.136149e+02 4.642443e+01 -8.567183e+02 -8.968062e+02 2.371291e+03 -8.416526e+02 -1.966101e+02 -1.456609e+03 -1.852399e+02 1.712122e+02 -2.411780e+02 1.146023e+03 1.920811e+03 -1.439025e+03 -1.176624e+03 4.880456e+02 2.660048e+03 -1.195735e+03 -2.725545e+03 -8.945377e+02 6.748061e+02 2.574566e+03 -2.099454e+03 -1.882537e+02 3.745883e+03 2.595080e+03 -1.406339e+03 -5.381956e+03 -3.700518e+03 3.085793e+02 4.577893e+03 5.470852e+03 3.742819e+03 1.552041e+03 2.535585e+03 5.937798e+03 4.010549e+03 -3.294884e+03 -5.507874e+02 -1.464271e+03 
-1.154228e+04 8.740412e+03 5.702237e+03 -4.234702e+03 -2.202273e+03 3.573868e+03 -6.481590e+01 3.787421e+03 4.807773e+03 8.194544e+03 5.988872e+02 7.227147e+02 -1.609032e+03 -5.508096e+02 -9.154512e+02 1.696977e+03 -5.997170e+01 2.104305e+03 3.074299e+03 1.126781e+03 -1.277700e+03 -3.431850e+03 6.988269e+02 1.715525e+03 -3.597709e+02 -7.489114e+02 -7.292918e+02 1.508758e+03 2.060108e+03 -8.460156e+02 1.289610e+03 1.114308e+03 -1.278478e+03 -1.741018e+03 -2.354659e+03 -6.214953e+02 2.847853e+03 1.671308e+02 5.859158e+03 2.097473e+03 -3.231643e+02 1.331422e+03 -3.230345e+03 -4.663397e+03 -3.503505e+03 2.309501e+03 4.240197e+03 -1.729414e+03 -1.685116e+03 4.812965e+03 1.627445e+02 -5.927307e+02 -4.288717e+02 -2.112580e+03 5.547280e+03 -4.325180e+03 -3.096546e+03 3.108929e+03 -4.159985e+02 6.238927e+03 -1.140475e+03 -5.322596e+03 -8.122777e+03 -2.667820e+02 
1.825041e+03 -1.278076e+03 4.682914e+02 3.493094e+03 -3.323736e+03 -8.216095e+02 6.918756e+03 1.313831e+04 1.066130e+03 1.907536e+03 -2.189366e+02 -3.968502e+02 -8.501453e+01 -2.586468e+03 6.239832e+02 -4.883381e+02 -1.184338e+03 1.522564e+03 -2.961830e+03 -1.237984e+03 1.508301e+03 1.236052e+03 1.586225e+02 8.239481e+02 6.440789e+02 -3.921307e+02 4.245297e+02 1.138551e+03 -2.001292e+02 7.661021e+02 -2.110676e+02 1.927847e+03 -1.219011e+03 1.032457e+03 2.922072e+03 2.391845e+03 2.854972e+03 2.495310e+03 3.405450e+03 6.887210e+02 -1.319058e+03 8.309797e+02 2.596005e+03 1.788832e+03 2.911105e+03 7.173755e+02 1.144765e+03 -1.023948e+03 1.302619e+03 -1.750754e+03 -3.869152e+03 -3.247981e+03 3.327628e+03 3.313842e+03 -1.146282e+02 -4.904646e+03 3.182536e+03 1.452460e+03 -1.052204e+04 -2.569728e+02 -6.074574e+03 1.831155e+03 -3.905087e+03 5.405661e+03 
-1.501438e+02 -9.573187e+02 6.147940e+03 -4.312950e+03 -2.393084e+03 -3.637800e+03 -6.421580e+03 -3.220899e+03 -3.083441e+03 1.140977e+03 2.981759e+03 -2.234094e+03 -3.136591e+03 -2.647476e+03 -8.811810e+02 -9.617554e+02 2.359444e+03 -1.507362e+03 1.083087e+02 1.044110e+03 -1.684711e+03 -6.500387e+02 -1.085437e+02 1.830172e+03 -1.124396e+03 -1.551660e+03 2.065006e+03 1.429070e+03 -5.455715e+02 -2.220905e+02 -1.265517e+03 -2.037619e+03 -2.346438e+03 2.819188e+03 1.385103e+03 -1.011744e+03 -8.582658e+01 -4.875710e+02 -6.248289e+02 1.075879e+03 -6.065511e+02 -6.920320e+02 3.575691e+03 2.017974e+03 8.238577e+02 -6.666782e+01 -4.973152e+03 -3.731606e+03 4.936276e+03 1.054505e+03 -3.900469e+01 2.144350e+03 2.786325e+02 2.135323e+03 9.708495e+02 -1.268546e+03 1.427182e+03 -1.682698e+03 7.308060e+03 -4.668365e+03 -4.823175e+03 2.378856e+03 1.498121e+04 9.070102e+03 
3.376491e+03 -3.520330e+03 -1.958851e+03 5.882833e+02 -6.631517e+02 -1.037857e+03 -4.376100e+03 4.958448e+03 7.564779e+03 -6.973369e+02 -2.583555e+03 -3.164913e+03 -3.811412e+03 -9.655095e+02 -5.205140e+02 7.774456e+02 1.545820e+02 -2.430461e+02 2.409313e+03 -3.538480e+02 -1.272226e+03 1.082392e+03 1.352717e+03 -7.995005e+02 -2.082715e+03 1.371281e+03 1.223031e+03 5.802807e+02 -4.665364e+01 -2.407770e+03 5.937300e+02 9.784779e+02 -1.496591e+03 -1.249699e+03 1.375441e+03 -1.020540e+02 -1.363896e+03 6.745011e+02 6.452966e+02 1.333890e+03 -3.723527e+03 -1.183195e+03 -3.882602e+02 -1.794706e+03 -2.491319e+03 2.535495e+03 7.750018e+02 -3.162759e+03 8.021219e+02 3.003716e+03 -1.344195e+03 -6.073153e+02 -6.187133e+02 8.595493e+02 5.475852e+02 1.540820e+03 -4.477725e+02 1.210729e+03 3.430726e+03 -1.027354e+03 8.337048e+03 2.888379e+02 -6.388775e+02 -3.388456e+02 
1.005156e+03 1.044539e+03 7.389526e+02 -2.717301e+03 -1.718149e+03 -2.432226e+03 3.407317e+02 3.330554e+03 4.006567e+03 -5.691794e+03 -7.302340e+03 -3.369431e+03 3.658796e+01 2.850946e+03 1.499319e+03 3.077386e+02 -5.488795e+02 4.603904e+02 -6.114605e+02 1.793047e+02 1.432938e+03 1.698037e+03 -1.039004e+03 -9.941192e+02 2.013638e+03 1.458407e+03 -1.024549e+03 8.271148e+02 -1.601765e+02 -2.033224e+03 1.089672e+03 1.067695e+03 -9.650279e+02 -9.933534e+02 1.658788e+03 1.517989e+03 -1.609917e+02 1.529331e+03 2.423481e+03 -1.044708e+03 -6.563182e+03 -9.101299e+01 2.724284e+03 9.315010e+01 1.702717e+03 -9.075563e+01 1.525446e+02 1.555996e+03 -2.633817e+03 -1.098200e+02 -5.662551e+02 -3.167242e+03 -2.180778e+03 -1.467576e+03 9.370231e+02 1.766259e+03 -2.271464e+03 1.164095e+03 -2.485701e+03 5.764187e+03 -3.631941e+03 -9.387748e+02 6.339679e+03 -4.066461e+03 
-5.087692e+03 -3.539073e+03 1.433358e+03 -1.859968e+03 -2.323281e+02 2.690017e+02 -5.352400e+03 -7.372739e+03 -2.179870e+03 -2.688576e+02 9.633847e+02 2.312701e+03 2.285164e+03 1.809099e+03 9.931666e+02 1.114792e+01 2.195356e+02 -1.152377e+02 -3.856124e+02 1.804158e+02 -6.938424e+02 3.219600e+02 6.739158e+02 3.694072e+02 1.494941e+03 -1.009908e+03 3.749166e+01 1.131071e+03 -6.453398e+02 -1.439525e+03 -2.382795e+03 8.265139e+02 2.562159e+03 -1.600935e+03 -2.192445e+03 -1.932565e+03 -6.040872e+02 1.298536e+03 1.360147e+03 -1.355850e+03 -1.339618e+03 -1.439875e+03 -5.149103e+02 2.213087e+03 2.056176e+03 -5.561938e+02 -4.925927e+02 2.007064e+02 -1.046137e+03 3.877375e+03 1.356315e+03 -1.625520e+03 -1.518015e+03 -1.051513e+03 7.652184e+02 3.315274e+03 -2.704733e+03 -1.264145e+03 -3.221829e+02 3.128869e+03 -3.189057e+03 -6.568218e+03 -2.104786e+03 8.753285e+03 
-3.161038e+03 -7.280678e+03 -1.586791e+03 -1.895992e+03 -5.692418e+02 -1.559947e+03 -4.768349e+03 3.192127e+03 9.975171e+02 5.521459e+02 2.110832e+03 1.947769e+03 1.239803e+03 4.677086e+02 3.631998e+02 -2.877839e+02 2.382355e+02 -1.351549e+02 -1.465919e+02 3.122425e+01 -2.301776e+02 -4.480271e+02 6.577937e+00 -2.565115e+02 7.123997e+02 -1.613044e+03 -5.835581e+02 5.820421e+02 3.288428e+02 1.726502e+01 -6.553085e+02 3.897229e+02 8.636777e+02 -1.822316e+03 -9.940081e+02 3.778708e+02 5.412116e+02 5.557819e+02 -7.666632e+01 -2.505305e+03 -2.069143e+02 6.633286e+02 -6.662090e+01 -2.727298e+03 -2.314217e+03 9.565860e+02 -7.087711e+02 -3.046525e+02 1.147943e+03 -2.460563e+02 -3.507845e+03 1.354820e+03 6.667367e+03 3.243538e+03 3.702327e+02 -7.994074e+02 -1.582780e+02 -1.071448e+03 -1.855584e+03 3.091924e+03 -1.266359e+02 -9.245442e+02 2.655954e+03 7.487083e+03 
-2.057679e+03 -7.302436e+02 2.372198e+03 1.797130e+02 -2.227112e+03 -8.156394e+02 1.090250e+03 1.777765e+03 1.168344e+03 2.067335e+03 1.032884e+03 1.019646e+03 2.760763e+02 -4.991889e+01 1.914343e+02 -2.211615e+02 2.204027e+02 -6.316297e+01 -1.540845e+02 3.051619e+02 -6.785920e+01 -3.969043e+02 -2.230604e+01 3.079011e+02 7.454194e+00 -9.815413e+02 -3.200845e+02 3.924245e+02 -2.031478e+02 9.795208e+01 3.727731e+02 -1.321493e+03 -1.182311e+02 2.238031e+03 1.281549e+03 -2.145099e+02 -2.610799e+02 7.115092e+02 -3.913627e+02 -1.424370e+03 1.809246e+03 -2.973514e+02 -2.343689e+03 -2.737025e+03 4.385589e+02 1.194818e+03 1.592118e+02 -3.869613e+02 -8.938171e+02 3.499202e+02 2.702046e+03 -2.494645e+02 2.966485e+02 1.736216e+03 1.368783e+03 -8.473919e+02 3.740419e+02 1.726016e+03 1.736765e+03 5.759446e+02 4.903399e+03 -1.529303e+03 -3.211841e+02 -1.179004e+03 
3.893356e+02 1.579347e+03 4.066150e+02 -2.620797e+02 -2.899553e+03 2.425485e+01 2.882982e+03 1.401132e+03 1.804658e+03 1.790378e+03 4.011952e+02 -2.324728e+02 4.825898e+01 -3.071347e+02 1.436186e+02 -1.757591e+02 1.130757e+02 -2.121874e+01 -9.122287e+01 1.753830e+02 -1.883398e+01 -9.533335e+01 -8.240312e+01 3.956544e+02 -3.581945e+02 -5.773418e+02 1.803272e+02 5.082446e+02 -2.306990e+02 -7.604812e+02 7.904977e+02 8.809705e+02 -9.410669e+02 2.099672e+02 6.911858e+02 -2.255993e+02 -1.563373e+02 1.973963e+02 -3.577493e+02 1.793199e+02 -3.759673e+02 -3.488400e+02 1.542165e+03 2.171337e+03 1.102991e+03 -9.608523e+02 3.674633e+02 1.356041e+03 -2.455304e+02 -1.535886e+03 -1.334283e+03 -2.929722e+03 -2.504810e+03 -6.228975e+02 1.305277e+02 1.461931e+02 -1.225018e+03 -3.044376e+02 -1.183524e+02 -3.474007e+02 6.843146e+02 2.412506e+02 1.412085e+03 -1.834102e+03 
2.105378e+03 2.878681e+03 5.373067e+02 1.568344e+03 -2.528710e+03 2.153754e+03 1.228889e+03 1.962959e+03 9.806818e+02 2.906453e+02 2.632383e+03 -1.224185e+03 2.907147e+02 -1.506270e+02 1.007865e+02 -8.063223e+01 4.659944e+01 -2.389750e+01 -4.213476e+01 9.341397e+01 -1.322766e+01 -5.933670e+01 -4.002729e+01 1.411369e+02 -8.988537e+01 -2.001682e+02 -1.366638e+02 7.635226e+01 1.319129e+02 -2.147785e+02 -3.058230e+02 -4.142208e+02 -3.716793e+02 1.190781e+02 4.359756e+01 9.383547e+00 2.760851e+00 3.365137e+01 1.643655e+01 -9.090441e+01 3.286657e+02 -4.378084e+02 -7.699229e+02 5.677213e+00 -6.740686e+02 2.374327e+02 -1.028144e+02 -6.023383e+02 -5.856203e+02 -4.681054e+02 4.149080e+02 8.448805e+01 3.517743e+02 -9.951033e+02 -4.361602e+02 4.334499e+02 -3.238527e+02 -8.083304e+02 -2.584910e+02 -2.602762e+01 6.811506e+02 -7.256078e+02 5.083732e+02 5.236173e+02 
1.766661e+03 2.197590e+03 1.312848e+03 1.756852e+03 -2.528897e+03 2.726659e+03 1.186404e+03 2.122889e+03 1.880624e+02 -4.718661e+02 3.456289e+03 -2.278627e+03 6.202080e+02 -1.776097e+02 7.554237e+01 -6.454350e+01 1.525251e+01 -1.443832e+01 -2.169958e+01 3.411865e+01 1.063985e+01 -8.731740e+00 -1.063854e+01 3.926696e+01 -3.627501e+01 -7.771360e+01 -2.594194e-01 3.714842e+01 -3.380581e+01 2.930579e+01 1.166968e+02 1.526171e+01 5.466828e+01 1.466110e+02 -3.012474e-01 -5.130801e+01 -3.473720e+01 4.656478e+00 3.387893e+00 -3.569616e+01 1.787925e+02 -2.252525e+02 -2.498316e+02 1.142267e+02 2.030137e+02 -1.258202e+02 6.008338e+01 9.435642e+01 -3.548368e+02 -4.576126e+02 -3.915300e+02 1.369839e+03 2.612154e+03 2.893162e+03 1.968672e+03 -6.552174e+02 6.597441e+02 1.159830e+03 6.880006e+02 1.560340e+02 -6.818831e+02 9.639532e+02 -5.906624e+02 2.298536e+03 
7.774006e+02 8.357547e+02 3.472016e+03 1.541749e+03 -2.688924e+03 1.572887e+03 -3.262885e+02 1.853156e+03 5.628344e+01 -1.193754e+03 1.694049e+03 -9.408018e+02 6.731486e+02 -1.166673e+02 1.228319e+02 -3.949018e+01 2.016735e+01 -1.306137e+01 -4.545358e+00 1.436586e+01 8.626249e+00 -3.606620e+00 3.437794e+00 3.055600e+00 1.509105e+01 -1.632550e+01 -3.758942e+00 5.361383e+00 1.465437e+01 -2.040274e+01 7.775083e-01 1.348826e+01 -6.321648e+01 -1.302988e+01 6.079104e+00 1.704629e+01 4.404579e+00 7.318145e+00 1.042076e+01 2.175806e+01 -6.749408e+01 -5.015189e+01 2.375165e+02 7.113212e+01 -1.442612e+01 2.379674e+01 -2.901267e+00 -3.597410e+01 -3.041747e+01 1.716332e+02 -7.942190e+01 -1.292071e+03 -2.433629e+03 -1.391574e+03 -3.630796e+02 9.229315e+01 -7.848616e+02 -4.857685e+02 -3.502968e+02 -2.320273e+02 9.109182e+01 -3.175822e+02 1.010784e+03 1.622702e+03 