# vtk DataFile Version 2.0
Comment goes here
ASCII

DATASET STRUCTURED_POINTS
FIELD FieldData 1
TIME 1 1 double
0.02400000
DIMENSIONS    64   64   1

ORIGIN    0.000   0.000   0.000
SPACING   0.03125 0.03125   1.000

POINT_DATA   4096
SCALARS Omega double
LOOKUP_TABLE default

1.600009e-01 1.601443e-01 -5.263439e-01 4.164342e-02 -5.046084e-01 4.645361e-01 -3.754983e-01 1.937666e-01 -3.260395e-01 1.654358e-01 -2.647305e-01 1.452481e-01 -1.780857e-01 1.221401e-01 -6.819408e-02 9.923095e-02 4.573627e-02 7.777969e-02 1.310631e-01 7.553396e-02 1.258970e-01 1.246368e-01 1.870716e-01 3.856845e-02 2.759393e-01 -3.058940e-02 3.434360e-01 -2.693599e-02 3.593167e-01 -8.791967e-02 4.116862e-01 -1.156421e-01 4.294372e-01 -1.216566e-01 4.453989e-01 -1.103568e-01 4.014740e-01 -7.089040e-02 4.052090e-01 -7.761477e-02 3.616661e-01 -2.158646e-02 2.760531e-01 5.750454e-02 1.945010e-01 3.529914e-02 1.928332e-01 6.303785e-02 9.727003e-02 7.533485e-02 -7.925355e-03 7.088264e-02 -8.671409e-02 6.092303e-02 -1.575039e-01 6.251480e-02 -2.039995e-01 5.902171e-02 -2.293567e-01 4.458050e-02 -2.143357e-01 3.328700e-03 -2.179463e-01 -3.698776e-03 
-3.612482e+00 -2.154224e+01 4.047384e+00 -2.237874e+01 4.426999e+00 -2.303573e+01 3.810078e+00 -2.174604e+01 1.179224e+00 -1.918360e+01 -2.707669e+00 -1.499006e+01 -8.340426e+00 -9.315711e+00 -1.470313e+01 -3.759573e+00 -2.043215e+01 1.297887e+00 -2.558924e+01 5.622702e+00 -2.954545e+01 8.124808e+00 -3.075382e+01 7.891992e+00 -2.991569e+01 6.606064e+00 -2.857052e+01 5.228164e+00 -2.750192e+01 4.474655e+00 -2.725556e+01 4.680142e+00 -2.784510e+01 5.512053e+00 -2.866410e+01 6.085431e+00 -2.885218e+01 5.817863e+00 -2.796141e+01 4.452043e+00 -2.588927e+01 1.884691e+00 -2.324657e+01 -1.338356e-01 -2.209594e+01 1.422806e-01 -2.332179e+01 2.557878e+00 -2.601495e+01 5.500981e+00 -2.848936e+01 7.961626e+00 -3.005247e+01 9.030797e+00 -2.951509e+01 7.435784e+00 -2.630095e+01 3.663622e+00 -2.140685e+01 -1.729385e+00 -1.460016e+01 -8.963897e+00 -5.477622e+00 -1.643001e+01 
-1.540931e+01 3.095548e+00 -1.867293e+01 5.279290e+00 -6.226749e+00 5.514161e+00 -1.793648e+01 5.078199e+00 -2.384388e+01 4.305021e+00 -2.755071e+01 2.835401e+00 -2.912446e+01 4.068979e-01 -2.965613e+01 -1.716831e+00 -3.018801e+01 -3.716625e+00 -3.018409e+01 -5.659443e+00 -2.992904e+01 -6.647323e+00 -3.118903e+01 -5.775770e+00 -3.315830e+01 -4.737167e+00 -3.482406e+01 -3.886215e+00 -3.597459e+01 -3.333210e+00 -3.653087e+01 -3.467230e+00 -3.637987e+01 -4.043644e+00 -3.592349e+01 -4.552661e+00 -3.557955e+01 -4.753049e+00 -3.572516e+01 -4.299494e+00 -3.638199e+01 -3.047319e+00 -3.749343e+01 -1.973424e+00 -3.758927e+01 -2.122677e+00 -3.607742e+01 -3.735026e+00 -3.336624e+01 -5.302523e+00 -3.075803e+01 -6.503919e+00 -2.834794e+01 -7.205269e+00 -2.672820e+01 -6.440598e+00 -2.634058e+01 -4.817887e+00 -2.602506e+01 -2.683494e+00 -2.620483e+01 8.196008e-01 -2.914828e+01 4.050103e+00 
-7.111120e+00 5.995101e+00 -1.113689e+01 6.751630e+00 -7.940802e+00 7.557152e+00 -9.877173e+00 6.761787e+00 -1.265910e+01 5.640190e+00 -1.400144e+01 3.951792e+00 -1.386167e+01 1.608539e+00 -1.295983e+01 -4.733119e-01 -1.211546e+01 -2.326267e+00 -1.110156e+01 -3.976410e+00 -1.017491e+01 -4.842723e+00 -1.054140e+01 -4.318606e+00 -1.166722e+01 -3.545825e+00 -1.275822e+01 -2.861461e+00 -1.354746e+01 -2.478881e+00 -1.389378e+01 -2.628721e+00 -1.373108e+01 -3.105108e+00 -1.334834e+01 -3.485093e+00 -1.313617e+01 -3.525459e+00 -1.335457e+01 -3.035805e+00 -1.405325e+01 -1.904486e+00 -1.510276e+01 -9.701457e-01 -1.537903e+01 -1.108732e+00 -1.440658e+01 -2.410060e+00 -1.257376e+01 -3.801071e+00 -1.081940e+01 -4.911296e+00 -9.303033e+00 -5.484171e+00 -8.546777e+00 -4.801380e+00 -8.883126e+00 -3.266369e+00 -9.565460e+00 -1.176067e+00 -1.086256e+01 1.874852e+00 -1.391916e+01 5.349645e+00 
-1.437605e-01 4.531188e-01 -5.120171e-01 5.097886e-02 -2.212307e+01 -3.869437e-01 1.303990e-01 -2.438726e-02 -9.555358e-02 -2.186478e-02 -1.624161e-01 -1.077968e-02 -1.710871e-01 -3.931088e-03 -1.585328e-01 -9.088114e-03 -1.387525e-01 -2.773460e-02 -1.291999e-01 -3.783693e-02 -1.235839e-01 -4.402326e-02 -1.259901e-01 -4.675901e-02 -1.246058e-01 -4.649683e-02 -1.329815e-01 -4.271407e-02 -1.379360e-01 -3.239029e-02 -1.464429e-01 -2.928275e-02 -1.521703e-01 -2.095239e-02 -1.500921e-01 -2.516325e-02 -1.447793e-01 -3.386192e-02 -1.332473e-01 -4.569348e-02 -1.294898e-01 -5.193924e-02 -1.231271e-01 -5.014452e-02 -1.326708e-01 -3.961671e-02 -1.438709e-01 -1.712928e-02 -1.501197e-01 -1.166100e-02 -1.453572e-01 -9.315981e-03 -1.342034e-01 -1.674622e-02 -1.145442e-01 -3.206447e-02 -9.049132e-02 -4.685927e-02 -6.693510e-02 -5.397323e-02 -5.217908e-02 -6.051980e-02 -2.204481e-02 1.082865e-01 
-9.952167e-02 -1.677210e-01 -3.253826e-01 -2.536303e-01 -2.446143e+01 -3.176992e-01 2.347436e-01 -8.025914e-02 1.441377e-01 -3.843310e-02 7.953418e-02 -1.917890e-02 4.118766e-02 -7.163869e-03 1.671771e-02 -6.359841e-04 1.372447e-02 -1.945343e-02 5.091553e-03 -8.453243e-03 1.136302e-02 -1.257132e-02 -1.122096e-03 -5.304959e-03 7.522286e-03 -6.124925e-03 -6.621700e-03 -9.980041e-03 1.739182e-03 8.850234e-04 -3.262250e-03 -7.847476e-03 5.233711e-06 9.057127e-03 6.146750e-03 -1.327082e-03 -2.028008e-03 8.077025e-03 5.908521e-03 6.336511e-05 -1.032492e-02 -1.804026e-04 -2.197884e-03 1.406773e-03 -1.580144e-02 -4.114478e-03 -6.019937e-03 1.115414e-02 2.622370e-03 -8.675709e-03 1.127855e-02 7.019053e-04 3.100945e-03 1.015667e-02 -5.625986e-03 1.438971e-02 -1.499862e-02 1.588922e-02 -2.896609e-02 1.699410e-02 -5.193307e-02 3.284640e-02 -6.424106e-02 2.102742e-01 
-1.651788e-01 -5.266073e-02 -3.270210e-01 -3.109376e-01 -3.171847e+01 -5.373536e-01 2.206886e-01 -5.724680e-02 1.609233e-01 -3.674261e-02 9.400915e-02 -1.974740e-02 5.189162e-02 -5.818448e-03 2.174397e-02 -1.879768e-04 2.820098e-02 -2.918058e-02 7.848939e-03 -1.146361e-02 1.977563e-02 -1.745083e-02 -7.574879e-03 -1.126486e-02 1.132517e-02 -7.428402e-03 -1.290408e-02 -1.638520e-02 3.423550e-03 3.587525e-03 -4.279348e-03 -1.274268e-02 5.177033e-04 1.379754e-02 1.154633e-02 -4.101873e-03 -4.379256e-03 1.087085e-02 1.232216e-02 -5.019591e-04 -1.682220e-02 -1.954875e-03 8.245591e-04 4.382005e-03 -2.152188e-02 -4.477619e-03 -5.229484e-03 1.897695e-02 4.393946e-03 -9.428700e-03 2.236114e-02 5.669729e-03 1.108457e-02 1.779953e-02 -1.056727e-03 2.211765e-02 -1.394517e-02 2.331910e-02 -3.154295e-02 2.601203e-02 -5.824747e-02 4.170943e-02 -9.323761e-02 1.178320e-01 
-9.190110e-02 9.579395e-03 -1.579011e-01 -4.281121e-01 -3.250082e+01 -3.633674e-01 1.065353e-01 -7.569619e-02 1.175006e-01 -5.501075e-02 7.715853e-02 -3.472015e-02 3.900252e-02 -9.837798e-03 -3.760809e-03 2.317222e-02 2.814089e-02 -6.552193e-02 4.394493e-04 2.766066e-03 4.194237e-02 -2.992690e-02 -2.354040e-02 -4.455192e-03 4.015569e-02 3.534215e-04 -3.031507e-02 -3.009278e-02 2.216152e-02 2.581833e-02 -1.438953e-02 -4.068868e-02 -6.076299e-04 3.963564e-02 1.903858e-02 -2.937808e-02 -2.236391e-02 2.737150e-02 3.525822e-02 -5.743273e-03 -4.014851e-02 -2.817316e-03 2.660613e-02 2.281155e-02 -4.026560e-02 -1.793802e-02 -1.031887e-03 5.651475e-02 -5.883400e-03 -5.149127e-02 3.510312e-02 -4.417171e-03 4.692281e-03 1.783266e-02 -1.106613e-02 2.444182e-02 -2.052177e-02 2.884419e-02 -3.170270e-02 3.726918e-02 -4.734202e-02 5.806193e-02 -6.297003e-02 9.327282e-02 
-1.107744e-01 3.692640e-02 -1.467418e-01 -3.978031e-01 -3.711009e+01 -5.476808e-01 7.421329e-02 -6.745231e-02 1.147160e-01 -4.988922e-02 8.028463e-02 -2.930829e-02 3.865438e-02 3.498315e-03 -3.067273e-02 3.942050e-02 6.498413e-02 -9.564539e-02 -1.922018e-02 7.097082e-03 7.910693e-02 -2.889298e-02 -5.630379e-02 -1.930124e-02 7.204377e-02 1.843446e-02 -6.021715e-02 -5.524404e-02 3.717508e-02 5.409594e-02 -2.684550e-02 -6.762970e-02 -4.702404e-03 6.327532e-02 3.593120e-02 -4.741987e-02 -4.295234e-02 3.465361e-02 6.691515e-02 -6.196647e-03 -7.233126e-02 -1.128624e-02 5.450509e-02 3.974039e-02 -7.063920e-02 -3.294196e-02 9.397885e-03 8.971260e-02 -2.180763e-02 -6.672982e-02 6.332472e-02 -1.261747e-03 9.976854e-03 2.355618e-02 -1.070957e-02 2.932478e-02 -2.169075e-02 3.232108e-02 -3.478184e-02 3.838416e-02 -5.414326e-02 5.140653e-02 -7.944824e-02 6.797085e-02 
-5.066031e-02 5.373017e-02 -3.654263e-02 -4.948077e-01 -3.682279e+01 -3.954223e-01 3.174961e-03 -7.671106e-02 6.712034e-02 -6.698634e-02 6.020537e-02 -5.239609e-02 3.494573e-02 -4.409617e-03 -1.079967e-01 2.427630e-01 1.359894e-01 -2.127561e-01 -5.413089e-02 1.804975e-01 1.849942e-01 -8.077744e-02 -1.517519e-01 5.930995e-02 2.078518e-01 6.719964e-02 -1.546430e-01 -1.154468e-01 1.368861e-01 2.058116e-01 -6.515155e-02 -2.122557e-01 9.915625e-03 2.505676e-01 9.323444e-02 -1.799061e-01 -1.136309e-01 1.511378e-01 1.948651e-01 -3.628220e-02 -1.846318e-01 -3.139637e-02 1.901401e-01 1.320373e-01 -1.579996e-01 -1.618494e-01 6.272566e-02 3.125128e-01 -7.881905e-02 -2.967243e-01 1.474626e-01 1.679385e-02 -7.904802e-03 3.975952e-02 -2.511400e-02 3.691646e-02 -2.572581e-02 3.856500e-02 -2.926319e-02 4.633246e-02 -3.629285e-02 5.955393e-02 -4.354050e-02 6.991852e-02 
-5.583655e-02 6.028769e-02 -2.722132e-02 -4.656486e-01 -3.970370e+01 -5.202283e-01 -2.043622e-02 -8.141817e-02 6.529304e-02 -7.140791e-02 6.924221e-02 -5.796788e-02 5.084159e-02 2.425356e-02 -2.651211e-01 1.223031e+00 2.849954e+00 1.725639e+00 5.840833e-02 1.919186e+00 2.135833e+00 6.608692e-01 5.208696e-01 2.246709e+00 1.609762e+00 3.068098e-01 1.382847e+00 2.032454e+00 7.577403e-01 7.020199e-01 1.989232e+00 1.515135e+00 1.812529e-01 1.534883e+00 2.242379e+00 7.944990e-01 3.053719e-01 2.016329e+00 1.910928e+00 2.559456e-01 9.769444e-01 1.997093e+00 1.171805e+00 3.216980e-01 1.564814e+00 1.512837e+00 4.249096e-01 1.149904e+00 2.210167e+00 9.969216e-01 3.193903e-01 5.199688e-02 -2.596807e-02 4.877842e-02 -3.433349e-02 4.183363e-02 -2.982307e-02 4.055083e-02 -3.232648e-02 4.504264e-02 -4.070675e-02 5.366264e-02 -5.063840e-02 6.171379e-02 
-9.243520e-03 6.450371e-02 4.370306e-02 -5.437000e-01 -3.863594e+01 -3.777647e-01 -6.048496e-02 -8.422037e-02 2.603956e-02 -8.858033e-02 5.732297e-02 -1.216999e-01 1.380731e-01 -2.064860e-01 -1.692273e-01 5.855021e+00 1.939859e+01 1.339804e+01 1.828237e+00 1.170219e+01 1.570680e+01 5.125400e+00 5.797851e+00 1.662318e+01 1.215202e+01 1.483519e+00 1.219644e+01 1.786770e+01 5.673151e+00 3.505638e+00 1.665490e+01 1.528978e+01 1.801912e+00 9.820887e+00 1.842026e+01 8.864491e+00 3.701379e+00 1.542792e+01 1.549656e+01 2.796507e+00 9.468186e+00 1.830894e+01 9.023540e+00 1.802733e+00 1.433854e+01 1.655110e+01 3.209744e+00 7.287470e+00 2.142860e+01 1.545369e+01 8.293190e-01 3.479444e-01 -2.084340e-01 7.994113e-02 -6.330431e-02 4.687606e-02 -2.966405e-02 4.358104e-02 -2.223065e-02 4.928152e-02 -2.095765e-02 5.821978e-02 -1.840084e-02 6.511963e-02 
-1.043199e-02 6.652257e-02 4.981043e-02 -5.211798e-01 -4.026250e+01 -4.574355e-01 -7.490324e-02 -9.166184e-02 2.802405e-02 -1.035934e-01 8.375030e-02 -1.852033e-01 2.467949e-01 -5.158914e-01 4.606683e-01 5.807102e+00 1.895793e+01 1.213092e+01 2.401713e+00 1.183517e+01 1.565484e+01 4.376235e+00 6.756614e+00 1.711964e+01 1.204644e+01 1.243394e+00 1.343935e+01 1.828833e+01 5.445189e+00 3.937530e+00 1.793776e+01 1.546538e+01 1.789099e+00 1.089967e+01 1.935571e+01 8.760176e+00 4.338481e+00 1.687615e+01 1.590415e+01 2.763109e+00 1.081918e+01 1.971839e+01 8.841853e+00 2.313039e+00 1.608563e+01 1.764949e+01 2.838260e+00 8.937216e+00 2.402171e+01 1.678124e+01 5.078154e-02 5.081258e-01 -2.620596e-01 1.155642e-01 -7.804355e-02 5.473121e-02 -3.229712e-02 4.463064e-02 -2.306258e-02 4.711462e-02 -2.255646e-02 5.381961e-02 -2.092522e-02 6.117127e-02 
2.334882e-02 6.572599e-02 9.714513e-02 -5.777874e-01 -3.861827e+01 -3.273728e-01 -9.800605e-02 -7.895960e-02 -1.253300e-02 -7.378333e-02 1.808693e-02 -7.490357e-02 3.817193e-02 -6.769445e-02 3.189320e-01 -4.939974e+00 -1.466206e+01 -9.889522e+00 -9.385293e-01 -9.189097e+00 -1.124820e+01 -3.768895e+00 -4.421837e+00 -1.234055e+01 -8.198735e+00 -1.285699e+00 -9.208279e+00 -1.270906e+01 -3.456713e+00 -2.954022e+00 -1.218484e+01 -1.048861e+01 -1.066368e+00 -7.472634e+00 -1.292038e+01 -5.787586e+00 -2.922956e+00 -1.122761e+01 -1.043866e+01 -1.698609e+00 -7.221426e+00 -1.278693e+01 -5.776111e+00 -1.319363e+00 -1.044767e+01 -1.103084e+01 -2.093576e+00 -5.469987e+00 -1.499845e+01 -1.016704e+01 -2.769282e-01 -1.074656e-01 4.887680e-02 2.614445e-02 5.500665e-03 3.648568e-02 -5.102456e-03 4.109586e-02 -6.084098e-03 4.767626e-02 -2.966204e-03 5.543491e-02 5.493010e-03 6.233444e-02 
2.267782e-02 6.524988e-02 9.988817e-02 -5.519326e-01 -3.928142e+01 -3.797460e-01 -1.113159e-01 -7.296398e-02 -3.039091e-02 -4.525120e-02 -3.471465e-02 2.440563e-02 -1.595544e-01 2.346072e-01 -4.729272e-02 -6.374179e+00 -2.184862e+01 -1.481548e+01 -2.362988e+00 -1.317607e+01 -1.795068e+01 -5.652346e+00 -6.956173e+00 -1.910610e+01 -1.395704e+01 -1.610899e+00 -1.441579e+01 -2.067607e+01 -6.493395e+00 -4.110179e+00 -1.960858e+01 -1.772698e+01 -2.090981e+00 -1.161029e+01 -2.156603e+01 -1.024869e+01 -4.490786e+00 -1.827775e+01 -1.804508e+01 -3.229916e+00 -1.141015e+01 -2.170812e+01 -1.038029e+01 -2.221777e+00 -1.722067e+01 -1.969537e+01 -3.578588e+00 -8.966330e+00 -2.579211e+01 -1.862545e+01 -6.070905e-01 -3.875320e-01 2.657621e-01 -3.274778e-02 5.673050e-02 1.885439e-02 9.696639e-03 3.417965e-02 -1.434275e-03 4.299635e-02 -1.996700e-03 5.106187e-02 4.900882e-03 5.905444e-02 
4.600401e-02 6.210451e-02 1.308625e-01 -5.809563e-01 -3.723111e+01 -2.760324e-01 -1.226095e-01 -6.461335e-02 -5.585697e-02 -4.059184e-02 -5.215579e-02 9.157085e-03 -1.038590e-01 1.379657e-01 -3.956089e-02 -1.473882e+00 -5.055070e+00 -2.972022e+00 -7.602255e-01 -3.086995e+00 -4.409307e+00 -1.123002e+00 -1.607117e+00 -4.551987e+00 -3.633687e+00 -3.321976e-01 -3.408804e+00 -4.893745e+00 -1.843841e+00 -1.093403e+00 -4.803962e+00 -4.176385e+00 -5.789139e-01 -3.072686e+00 -5.486407e+00 -2.458019e+00 -9.691190e-01 -4.711985e+00 -4.741010e+00 -8.515228e-01 -2.672913e+00 -5.495858e+00 -2.839955e+00 -7.180896e-01 -4.270600e+00 -5.007541e+00 -8.946479e-01 -2.632128e+00 -6.615739e+00 -4.593050e+00 -3.675569e-01 -2.264990e-01 9.605571e-02 -3.712890e-02 3.633789e-02 1.051997e-02 1.459918e-02 3.013539e-02 9.564323e-03 4.160166e-02 1.326608e-02 5.054668e-02 2.463378e-02 5.811102e-02 
4.436792e-02 6.028349e-02 1.300871e-01 -5.526661e-01 -3.714228e+01 -3.111244e-01 -1.284881e-01 -6.227542e-02 -6.146466e-02 -3.679784e-02 -5.620642e-02 -5.657132e-03 -6.749183e-02 1.415629e-02 2.396233e-02 -2.827261e-01 5.546098e-02 3.246440e-01 -7.207176e-02 -1.928481e-01 -1.393913e-01 1.734439e-01 1.215510e-01 -7.914891e-02 -2.344522e-01 -2.702398e-02 1.564783e-01 1.304622e-01 -1.890407e-01 -2.216658e-01 5.464402e-02 2.503289e-01 -3.183248e-02 -3.099368e-01 -1.248434e-01 2.050444e-01 1.239524e-01 -2.108446e-01 -2.375218e-01 2.432318e-02 1.783362e-01 2.122410e-03 -2.150908e-01 -1.879635e-01 1.011660e-01 1.467148e-01 -1.634808e-02 -4.190762e-01 -4.931619e-02 3.421069e-01 -1.271929e-01 -4.409487e-02 3.729135e-02 -2.217415e-02 3.243043e-02 8.086924e-03 1.761138e-02 2.591925e-02 1.162391e-02 3.740068e-02 1.371533e-02 4.655396e-02 2.383145e-02 5.490376e-02 
5.953082e-02 5.620791e-02 1.485240e-01 -5.562312e-01 -3.479856e+01 -2.345159e-01 -1.304052e-01 -5.812264e-02 -7.260245e-02 -3.881846e-02 -5.944216e-02 -1.931078e-02 -5.403888e-02 -1.767210e-02 3.651360e-04 -1.587167e-01 7.859515e-02 6.187501e-02 -3.055602e-02 -1.012081e-01 -4.335010e-02 5.175165e-02 5.549346e-02 -4.808136e-02 -8.718201e-02 -1.518316e-02 8.935452e-02 3.748843e-02 -6.932512e-02 -8.323031e-02 5.279366e-02 8.930515e-02 -8.558421e-03 -9.984396e-02 -3.384398e-02 7.863275e-02 5.648773e-02 -4.822370e-02 -8.948691e-02 9.936635e-03 9.267864e-02 3.564784e-02 -7.830812e-02 -6.810063e-02 7.200764e-02 8.743870e-02 2.156449e-03 -1.166106e-01 -2.313900e-02 1.615598e-01 -5.047591e-02 2.672053e-03 1.833846e-02 -3.845693e-03 2.166817e-02 1.222748e-02 1.757898e-02 2.604573e-02 1.782927e-02 3.659111e-02 2.408205e-02 4.526928e-02 3.729590e-02 5.277312e-02 
5.634521e-02 5.391880e-02 1.442297e-01 -5.260363e-01 -3.410392e+01 -2.574579e-01 -1.290694e-01 -5.852654e-02 -6.904307e-02 -4.076857e-02 -5.255415e-02 -2.793463e-02 -3.795862e-02 -3.148746e-02 2.647505e-03 -8.828716e-02 3.766756e-02 3.424339e-03 -1.180549e-02 -5.322329e-02 -2.147800e-02 1.113574e-02 2.268914e-02 -2.928583e-02 -3.757403e-02 -8.834168e-03 3.639800e-02 8.430162e-03 -2.833729e-02 -3.204295e-02 2.014969e-02 3.064429e-02 -2.109198e-03 -3.902299e-02 -1.612983e-02 2.772687e-02 2.519324e-02 -1.934744e-02 -3.765294e-02 4.577384e-03 3.974468e-02 1.554269e-02 -3.030365e-02 -2.189321e-02 3.077755e-02 3.707631e-02 5.161224e-03 -3.245973e-02 -2.172990e-02 8.132169e-02 -2.789857e-02 1.802289e-02 7.640928e-03 6.841407e-03 1.572521e-02 1.475654e-02 1.550506e-02 2.483199e-02 1.681970e-02 3.387137e-02 2.279811e-02 4.205181e-02 3.520325e-02 4.977821e-02 
6.518707e-02 4.959352e-02 1.530644e-01 -5.126314e-01 -3.153694e+01 -1.991495e-01 -1.248363e-01 -5.626243e-02 -7.213692e-02 -4.324313e-02 -5.264330e-02 -3.360487e-02 -3.889513e-02 -2.875718e-02 -2.488321e-02 -3.692906e-02 1.598579e-02 -4.439727e-02 -1.248377e-02 -2.502979e-02 6.038209e-03 -1.378955e-02 -1.003280e-02 -1.751406e-02 3.513927e-03 -4.073219e-03 -4.357795e-03 -1.279784e-02 1.251205e-03 -4.795168e-04 -1.487796e-03 -8.741408e-03 1.796937e-05 1.605073e-03 1.808621e-04 -5.345012e-03 -1.244168e-03 3.779009e-03 2.739390e-03 -1.868598e-03 -3.134869e-03 5.961344e-03 7.039733e-03 3.444626e-03 -5.569027e-03 9.124312e-03 6.592290e-03 2.154640e-02 -2.143424e-02 1.990590e-02 5.870846e-03 1.597499e-02 9.185001e-03 1.607004e-02 1.155476e-02 2.030353e-02 1.470158e-02 2.664186e-02 2.005617e-02 3.357462e-02 2.910989e-02 4.047596e-02 4.346560e-02 4.705445e-02 
6.040101e-02 4.711232e-02 1.456263e-01 -4.817732e-01 -3.034085e+01 -2.111644e-01 -1.184915e-01 -5.710516e-02 -6.438231e-02 -4.549438e-02 -4.392490e-02 -3.667998e-02 -3.182157e-02 -2.409975e-02 -4.147300e-02 5.413456e-04 1.766974e-02 -7.788075e-02 -1.866766e-02 -3.089968e-03 3.088596e-02 -2.423040e-02 -3.651310e-02 -1.513886e-02 3.559870e-02 6.833428e-03 -3.420332e-02 -3.274404e-02 2.353206e-02 2.701998e-02 -1.755592e-02 -3.906136e-02 2.154048e-03 3.180125e-02 1.061732e-02 -2.970131e-02 -1.969055e-02 1.965081e-02 3.175113e-02 -6.452151e-03 -3.459922e-02 -8.973280e-04 3.734372e-02 2.107860e-02 -3.440721e-02 -1.287840e-02 1.726529e-02 6.030387e-02 -3.437780e-02 -1.856237e-02 3.106993e-02 1.553236e-02 6.308687e-03 2.059717e-02 5.875863e-03 2.246459e-02 1.065349e-02 2.635020e-02 1.711563e-02 3.171316e-02 2.625829e-02 3.780575e-02 3.993933e-02 4.421784e-02 
6.437496e-02 4.265389e-02 1.474695e-01 -4.607602e-01 -2.760023e+01 -1.605748e-01 -1.102067e-01 -5.506803e-02 -6.286343e-02 -4.895625e-02 -3.897323e-02 -4.575972e-02 -2.425703e-02 -2.331369e-02 -8.523111e-02 1.254213e-01 4.113644e-02 -1.343730e-01 -3.058486e-02 1.075733e-01 9.638640e-02 -5.191280e-02 -9.493032e-02 4.420659e-02 1.203982e-01 3.179774e-02 -9.107691e-02 -5.317410e-02 8.614488e-02 1.108113e-01 -3.650801e-02 -1.093682e-01 1.425438e-02 1.416041e-01 5.081394e-02 -9.812696e-02 -5.721178e-02 9.449280e-02 1.128055e-01 -2.447494e-02 -9.563284e-02 -1.926738e-03 1.212782e-01 6.913853e-02 -7.941302e-02 -7.796965e-02 5.307163e-02 1.837383e-01 -4.630854e-02 -1.497996e-01 9.441001e-02 2.464219e-02 -4.439031e-04 3.291740e-02 -1.528430e-03 2.790480e-02 8.483750e-03 2.771862e-02 1.850807e-02 3.096134e-02 2.968552e-02 3.573516e-02 4.423585e-02 4.103119e-02 
5.824153e-02 3.980055e-02 1.375055e-01 -4.303246e-01 -2.598393e+01 -1.616839e-01 -1.005934e-01 -5.491001e-02 -5.315204e-02 -5.169850e-02 -2.689527e-02 -5.399295e-02 -4.611444e-03 -3.212321e-02 -1.400591e-01 5.953074e-01 2.107233e+00 1.573545e+00 1.345681e-01 1.296884e+00 1.804061e+00 6.530489e-01 4.242402e-01 1.783735e+00 1.475685e+00 2.326700e-01 1.112053e+00 1.885856e+00 7.553157e-01 4.189496e-01 1.672154e+00 1.596362e+00 2.268722e-01 1.061048e+00 1.993987e+00 9.557320e-01 2.795810e-01 1.625133e+00 1.788551e+00 3.326023e-01 8.154544e-01 1.881790e+00 1.157426e+00 2.099983e-01 1.374549e+00 1.676575e+00 4.587165e-01 7.716421e-01 2.150777e+00 1.536137e+00 2.489535e-01 6.474149e-02 -2.513401e-02 3.788957e-02 -1.133173e-02 2.916131e-02 3.533629e-03 2.707812e-02 1.491235e-02 2.907106e-02 2.600036e-02 3.307788e-02 3.964565e-02 3.805119e-02 
5.851377e-02 3.508850e-02 1.344042e-01 -4.071153e-01 -2.311346e+01 -1.118430e-01 -9.021891e-02 -5.018315e-02 -5.114880e-02 -5.428668e-02 -1.780199e-02 -8.485987e-02 5.723226e-02 -1.669959e-01 -8.958421e-02 2.199720e+00 1.026454e+01 8.092528e+00 1.062630e+00 5.788280e+00 8.813254e+00 3.309875e+00 2.812443e+00 8.817972e+00 7.147469e+00 9.120255e-01 6.272170e+00 1.000642e+01 3.569978e+00 1.601369e+00 8.928751e+00 8.884139e+00 1.158765e+00 4.850312e+00 1.026441e+01 5.488190e+00 1.803117e+00 8.141981e+00 8.936759e+00 1.883544e+00 4.775233e+00 1.010368e+01 5.512857e+00 8.700527e-01 7.648100e+00 9.531191e+00 2.070675e+00 3.420822e+00 1.187749e+01 9.509760e+00 6.390013e-01 2.675717e-01 -1.295684e-01 5.640683e-02 -2.834808e-02 3.016470e-02 2.413315e-03 2.552865e-02 1.649673e-02 2.681809e-02 2.792488e-02 3.017107e-02 4.114891e-02 3.434709e-02 
5.141013e-02 3.161148e-02 1.224505e-01 -3.760961e-01 -2.114637e+01 -1.035889e-01 -7.933419e-02 -4.642483e-02 -4.302723e-02 -5.179032e-02 -8.864539e-03 -8.853331e-02 7.482854e-02 -2.208226e-01 9.382183e-02 1.614370e+00 7.684812e+00 5.816928e+00 9.730635e-01 4.369838e+00 6.705423e+00 2.303889e+00 2.365191e+00 6.797222e+00 5.451042e+00 5.916260e-01 5.050077e+00 7.721327e+00 2.701918e+00 1.266334e+00 7.089483e+00 6.830816e+00 8.835254e-01 3.898666e+00 8.050755e+00 4.189075e+00 1.484843e+00 6.512111e+00 6.928895e+00 1.444887e+00 3.897740e+00 8.027969e+00 4.177615e+00 7.735594e-01 6.189393e+00 7.554104e+00 1.461863e+00 2.945659e+00 9.631924e+00 7.616736e+00 3.083262e-01 2.671031e-01 -1.201237e-01 5.882267e-02 -2.739461e-02 2.881277e-02 1.370704e-03 2.332713e-02 1.411974e-02 2.410439e-02 2.426428e-02 2.703951e-02 3.597980e-02 3.092691e-02 
4.889618e-02 2.666461e-02 1.155200e-01 -3.496698e-01 -1.819569e+01 -5.497040e-02 -6.899073e-02 -3.344324e-02 -4.852939e-02 -2.565099e-02 -4.003169e-02 -6.295850e-03 -6.082644e-02 5.019257e-02 1.039276e-01 -2.039232e+00 -8.822529e+00 -6.893016e+00 -7.870759e-01 -5.068730e+00 -7.409045e+00 -2.818561e+00 -2.423560e+00 -7.529874e+00 -5.870238e+00 -8.223439e-01 -5.396750e+00 -8.399962e+00 -2.825309e+00 -1.454047e+00 -7.585478e+00 -7.356482e+00 -8.950177e-01 -4.193679e+00 -8.575534e+00 -4.464298e+00 -1.577604e+00 -6.909044e+00 -7.349472e+00 -1.484346e+00 -4.144309e+00 -8.439906e+00 -4.449250e+00 -7.139959e-01 -6.515033e+00 -7.823006e+00 -1.668746e+00 -2.935455e+00 -9.964496e+00 -7.782298e+00 -4.366914e-01 -1.590544e-01 8.453486e-02 -2.405582e-03 2.688458e-02 1.356685e-02 1.642505e-02 1.749869e-02 1.877869e-02 2.028435e-02 2.556609e-02 2.336383e-02 3.544201e-02 2.677813e-02 
4.116604e-02 2.264162e-02 1.018746e-01 -3.157674e-01 -1.594279e+01 -4.138282e-02 -5.829944e-02 -2.596092e-02 -4.542255e-02 -1.319038e-02 -4.889436e-02 2.465624e-02 -1.073058e-01 1.296122e-01 9.184055e-03 -2.049311e+00 -9.833891e+00 -7.698346e+00 -1.119405e+00 -5.506817e+00 -8.527765e+00 -3.161587e+00 -2.760837e+00 -8.497492e+00 -6.962664e+00 -8.607735e-01 -6.103532e+00 -9.700678e+00 -3.503218e+00 -1.540339e+00 -8.696006e+00 -8.642694e+00 -1.144396e+00 -4.722017e+00 -1.001354e+01 -5.355727e+00 -1.757812e+00 -7.953537e+00 -8.728787e+00 -1.848615e+00 -4.657332e+00 -9.894452e+00 -5.382579e+00 -8.636038e-01 -7.480592e+00 -9.372986e+00 -1.995973e+00 -3.375259e+00 -1.166466e+01 -9.385631e+00 -5.987691e-01 -2.505244e-01 1.424501e-01 -2.417532e-02 4.084042e-02 4.820335e-03 1.905232e-02 1.272747e-02 1.737427e-02 1.652829e-02 2.193814e-02 1.969194e-02 2.988506e-02 2.290534e-02 
3.650582e-02 1.775606e-02 9.146772e-02 -2.853670e-01 -1.297381e+01 -2.698395e-04 -4.560807e-02 -1.862172e-02 -4.176591e-02 -1.030895e-02 -4.116624e-02 6.551823e-03 -5.345832e-02 3.240957e-02 1.104767e-02 -4.385866e-01 -1.593765e+00 -1.033234e+00 -2.379106e-01 -9.761435e-01 -1.476539e+00 -4.160143e-01 -4.085708e-01 -1.428845e+00 -1.268856e+00 -1.400778e-01 -9.545402e-01 -1.540900e+00 -6.838418e-01 -3.479892e-01 -1.435293e+00 -1.318312e+00 -2.145981e-01 -9.363210e-01 -1.732537e+00 -8.007912e-01 -2.361837e-01 -1.442800e+00 -1.567480e+00 -2.984772e-01 -6.972321e-01 -1.676364e+00 -1.006137e+00 -2.288731e-01 -1.209436e+00 -1.525855e+00 -3.483822e-01 -7.747915e-01 -1.973070e+00 -1.425714e+00 -1.872386e-01 -7.524879e-02 3.834147e-02 -1.763323e-02 2.423196e-02 5.241233e-04 1.737329e-02 8.428362e-03 1.712693e-02 1.267802e-02 2.079040e-02 1.578440e-02 2.725185e-02 1.856785e-02 
2.838370e-02 1.356288e-02 7.647694e-02 -2.496389e-01 -1.049595e+01 1.661500e-02 -3.298548e-02 -1.325608e-02 -3.415463e-02 -7.111657e-03 -3.334914e-02 1.273165e-03 -3.267339e-02 -5.378986e-03 2.875057e-02 -1.522287e-01 2.112031e-02 1.368266e-01 -2.368472e-02 -1.065680e-01 -8.317144e-02 6.637839e-02 7.687798e-02 -4.422356e-02 -1.287765e-01 -2.080104e-02 1.006907e-01 5.439582e-02 -1.027744e-01 -1.027608e-01 5.138375e-02 1.095585e-01 -2.332751e-02 -1.345625e-01 -4.606810e-02 9.438435e-02 6.197856e-02 -8.685318e-02 -1.163387e-01 1.757012e-02 1.096824e-01 9.855332e-03 -1.201096e-01 -7.514020e-02 8.912085e-02 8.240729e-02 -3.521638e-02 -1.732628e-01 1.969075e-02 1.677991e-01 -8.833132e-02 -1.002998e-02 1.316886e-02 -1.132951e-02 1.846318e-02 -8.974772e-04 1.483976e-02 5.529205e-03 1.416627e-02 9.354496e-03 1.652421e-02 1.213301e-02 2.127171e-02 1.454597e-02 
2.213534e-02 8.975856e-03 6.301801e-02 -2.132818e-01 -7.557181e+00 4.753605e-02 -1.901248e-02 -8.526674e-03 -2.588940e-02 -6.424006e-03 -2.255106e-02 -4.597345e-03 -1.590588e-02 -1.362706e-02 1.366476e-02 -6.659025e-02 2.000834e-02 3.921310e-02 -7.559659e-03 -3.854421e-02 -2.788828e-02 2.271018e-02 2.646904e-02 -1.678678e-02 -4.144680e-02 -6.316024e-03 3.818085e-02 1.971525e-02 -3.056296e-02 -3.393056e-02 2.231818e-02 4.000187e-02 -4.116620e-03 -4.386038e-02 -1.331310e-02 3.467673e-02 2.371031e-02 -2.550099e-02 -3.735431e-02 7.574077e-03 4.115131e-02 9.441064e-03 -3.571493e-02 -2.482502e-02 3.630850e-02 3.346606e-02 -4.905004e-03 -5.198255e-02 8.784681e-04 7.250914e-02 -3.447039e-02 9.131303e-03 1.206902e-03 -1.931234e-03 9.137381e-03 2.336057e-04 1.028652e-02 3.623815e-03 1.120847e-02 6.335891e-03 1.334463e-02 8.478609e-03 1.691308e-02 1.029973e-02 
1.391413e-02 4.848119e-03 4.718368e-02 -1.759502e-01 -4.904792e+00 6.704651e-02 -5.276648e-03 -3.980280e-03 -1.683253e-02 -4.013648e-03 -1.391624e-02 -4.888445e-03 -6.523403e-03 -1.429063e-02 1.432927e-02 -3.939421e-02 1.116219e-02 1.918659e-02 -1.822005e-03 -1.952583e-02 -1.796279e-02 1.086445e-02 1.467596e-02 -9.363379e-03 -2.334091e-02 -2.895870e-03 2.059437e-02 9.762121e-03 -1.585685e-02 -1.591986e-02 1.168960e-02 1.984502e-02 -1.482952e-03 -2.215613e-02 -7.954885e-03 1.706492e-02 1.317011e-02 -1.438497e-02 -2.042612e-02 4.562555e-03 2.301187e-02 3.095431e-03 -1.865131e-02 -1.096797e-02 2.124765e-02 1.510484e-02 -1.866129e-03 -2.424236e-02 -2.131647e-03 4.208144e-02 -2.515199e-02 1.205033e-02 -3.688097e-03 5.472673e-04 4.817486e-03 -7.381557e-05 6.805759e-03 1.706663e-03 7.513417e-03 3.520157e-03 8.682928e-03 5.038651e-03 1.073437e-02 6.324760e-03 
6.583167e-03 6.166379e-04 3.146637e-02 -1.344370e-01 -2.034997e+00 8.912448e-02 8.422403e-03 3.345449e-04 -7.798510e-03 -1.649803e-03 -5.639095e-03 -3.528609e-03 -6.234975e-04 -9.376345e-03 8.620424e-03 -1.823535e-02 6.153124e-03 4.123918e-03 7.141988e-04 -7.519476e-03 -6.816131e-03 3.653658e-03 4.388485e-03 -3.830555e-03 -8.097686e-03 -6.401175e-04 6.463569e-03 3.380079e-03 -4.516078e-03 -5.074356e-03 3.578955e-03 6.923531e-03 2.854757e-04 -8.105633e-03 -3.270169e-03 5.684307e-03 4.558795e-03 -5.923105e-03 -6.916807e-03 1.443856e-03 7.811699e-03 4.052867e-04 -5.128156e-03 -3.804666e-03 7.409431e-03 5.210087e-03 -1.421357e-04 -6.526592e-03 -4.685996e-03 1.956824e-02 -1.224768e-02 9.442717e-03 -4.070503e-03 2.091913e-03 9.952135e-04 3.310215e-05 2.997000e-03 1.826121e-04 3.790921e-03 8.963121e-04 4.406494e-03 1.633734e-03 5.247025e-03 2.261594e-03 
-1.366592e-03 -3.429665e-03 1.546299e-02 -9.608830e-02 7.479480e-01 1.115151e-01 2.227388e-02 5.092301e-03 7.547559e-04 1.722740e-03 1.318785e-03 -7.689339e-04 4.476615e-03 -5.512271e-03 9.693660e-03 -9.939116e-03 6.438459e-03 2.695645e-03 2.282372e-03 -2.722760e-03 -3.405048e-03 2.898507e-03 2.682584e-03 -1.232276e-03 -4.329735e-03 5.916067e-04 3.762882e-03 2.284977e-03 -2.037614e-03 -1.818948e-03 2.190160e-03 3.696210e-03 3.983202e-04 -4.045708e-03 -1.914558e-03 2.678414e-03 2.423806e-03 -3.524994e-03 -3.846120e-03 5.249622e-04 4.446363e-03 -5.324192e-04 -2.457069e-03 -2.143749e-03 4.390753e-03 1.918794e-03 -4.358970e-04 -2.864350e-03 -4.671428e-03 1.162403e-02 -1.014159e-02 6.916833e-03 -5.363147e-03 1.307884e-03 -1.477197e-03 -1.128575e-03 7.037881e-05 -1.757884e-03 2.654055e-04 -1.772693e-03 -1.117451e-04 -1.680020e-03 -7.239766e-04 -1.645111e-03 
-9.331949e-03 -7.362558e-03 -1.526562e-03 -5.173840e-02 3.511915e+00 1.271559e-01 3.509835e-02 9.549923e-03 9.528873e-03 5.283741e-03 8.114962e-03 2.795373e-03 8.445477e-03 -4.185060e-04 9.358208e-03 -2.492136e-03 6.521287e-03 2.161628e-03 3.740385e-03 6.543644e-04 3.601640e-04 2.578764e-03 1.847495e-03 9.267942e-04 -8.515385e-04 1.481535e-03 1.695775e-03 1.841548e-03 -1.196792e-04 2.225322e-04 9.944549e-04 1.790710e-03 4.778723e-04 -1.294749e-03 -6.881993e-04 8.058162e-04 8.225643e-04 -1.685242e-03 -1.349650e-03 -2.821078e-04 1.464094e-03 -8.362317e-04 -7.392196e-04 -1.298344e-03 1.124742e-03 2.384215e-04 -1.144029e-03 -7.704307e-04 -4.183956e-03 5.177680e-03 -6.669350e-03 3.393846e-03 -5.120356e-03 -5.764272e-05 -3.482355e-03 -2.383660e-03 -2.970772e-03 -3.650954e-03 -3.505621e-03 -4.397407e-03 -4.827552e-03 -4.974233e-03 -6.802200e-03 -5.545650e-03 