# vtk DataFile Version 2.0
Comment goes here
ASCII

DATASET STRUCTURED_POINTS
FIELD FieldData 1
TIME 1 1 double
0.00500000
DIMENSIONS    64   64   1

ORIGIN    0.000   0.000   0.000
SPACING   0.03125 0.03125   1.000

POINT_DATA   4096
SCALARS P double
LOOKUP_TABLE default

8.896781e+00 -1.371702e+01 3.539569e+01 -3.544854e+01 7.447763e+01 1.429740e+02 6.168058e+01 1.361557e+02 6.832714e+01 1.311174e+02 7.265856e+01 1.256015e+02 7.512469e+01 1.248436e+02 7.248622e+01 1.255686e+02 7.260288e+01 1.198950e+02 7.537327e+01 1.176264e+02 7.637012e+01 1.120315e+02 7.810518e+01 1.076556e+02 7.908032e+01 1.024505e+02 7.875018e+01 9.754031e+01 7.884965e+01 9.180202e+01 7.752064e+01 8.629480e+01 7.628968e+01 8.075631e+01 7.408116e+01 7.461096e+01 7.300246e+01 6.811467e+01 7.096689e+01 6.121590e+01 6.878058e+01 5.371438e+01 6.587510e+01 4.689241e+01 6.259183e+01 3.890820e+01 5.937489e+01 3.115235e+01 5.668029e+01 2.345231e+01 5.351598e+01 1.546113e+01 5.141232e+01 8.440946e+00 4.580027e+01 3.424862e+00 4.509784e+01 -1.042083e+01 5.033912e+01 -2.206071e+01 4.626427e+01 -2.113437e+01 3.301216e+01 -1.059660e+01 
-5.536698e+00 -3.862693e+01 9.549566e+00 -5.022921e+01 3.401977e+01 8.695678e+01 2.083773e+01 8.412641e+01 2.340052e+01 8.135087e+01 2.513608e+01 7.733328e+01 2.632420e+01 7.557154e+01 2.470387e+01 7.432584e+01 2.482020e+01 6.907368e+01 2.647313e+01 6.594247e+01 2.693200e+01 6.066748e+01 2.801627e+01 5.612525e+01 2.862068e+01 5.103648e+01 2.860335e+01 4.623995e+01 2.892078e+01 4.099337e+01 2.822632e+01 3.632745e+01 2.740745e+01 3.173274e+01 2.606716e+01 2.678041e+01 2.554998e+01 2.149971e+01 2.471939e+01 1.597417e+01 2.386378e+01 1.023229e+01 2.253451e+01 5.152742e+00 2.096393e+01 -6.365318e-01 1.960194e+01 -6.388109e+00 1.879637e+01 -1.210222e+01 1.760049e+01 -1.790718e+01 1.713079e+01 -2.314788e+01 1.431426e+01 -2.665220e+01 1.409976e+01 -3.517871e+01 1.744449e+01 -4.251963e+01 1.568983e+01 -4.281772e+01 8.999051e+00 -3.715697e+01 
-6.972827e+00 -6.309831e+01 -3.774612e+00 -6.727128e+01 2.551656e+00 6.567860e+01 -2.973868e+00 6.338481e+01 -2.822226e+00 6.050054e+01 -2.592814e+00 5.673237e+01 -2.155553e+00 5.302169e+01 -2.280125e+00 4.914588e+01 -1.968954e+00 4.413916e+01 -1.370250e+00 3.960689e+01 -1.132739e+00 3.438885e+01 -6.365703e-01 2.922083e+01 -2.692943e-01 2.390644e+01 -5.533026e-02 1.874710e+01 1.884572e-01 1.361107e+01 -3.097425e-02 8.932285e+00 -5.179973e-01 4.409940e+00 -1.141313e+00 -2.568614e-01 -1.439568e+00 -5.162698e+00 -1.597490e+00 -1.019994e+01 -1.709268e+00 -1.517560e+01 -2.039829e+00 -1.978316e+01 -2.477122e+00 -2.455044e+01 -2.666406e+00 -2.948027e+01 -2.488660e+00 -3.440942e+01 -2.453849e+00 -3.925881e+01 -2.200035e+00 -4.397300e+01 -2.613291e+00 -4.784157e+01 -2.723492e+00 -5.250302e+01 -2.077034e+00 -5.680755e+01 -2.366015e+00 -5.959042e+01 -3.488053e+00 -6.081570e+01 
-5.518058e+00 -5.882741e+01 -4.035408e+00 -6.107447e+01 -3.029682e+00 6.053518e+01 -2.321338e+00 5.911742e+01 -1.880596e+00 5.683511e+01 -1.546040e+00 5.382428e+01 -1.258501e+00 5.057032e+01 -1.233755e+00 4.697579e+01 -1.011556e+00 4.269792e+01 -5.974665e-01 3.833823e+01 -2.842648e-01 3.359248e+01 1.071238e-01 2.874046e+01 4.116331e-01 2.379517e+01 6.067263e-01 1.889901e+01 7.208440e-01 1.405929e+01 5.492277e-01 9.469556e+00 1.610357e-01 4.980302e+00 -2.977980e-01 4.135265e-01 -6.121384e-01 -4.300840e+00 -8.266217e-01 -9.099309e+00 -1.035471e+00 -1.385239e+01 -1.358138e+00 -1.843821e+01 -1.724855e+00 -2.307508e+01 -1.944107e+00 -2.778331e+01 -1.961155e+00 -3.246146e+01 -1.998956e+00 -3.702350e+01 -1.998889e+00 -4.139328e+01 -2.240634e+00 -4.537707e+01 -2.291764e+00 -4.954852e+01 -2.094669e+00 -5.323061e+01 -2.556970e+00 -5.565474e+01 -3.812177e+00 -5.703668e+01 
-4.385266e+00 -6.456584e+01 -3.665203e+00 -6.702499e+01 -3.208234e+00 6.546090e+01 -2.906791e+00 6.338354e+01 -2.680246e+00 6.047842e+01 -2.446777e+00 5.694252e+01 -2.187638e+00 5.309675e+01 -2.041730e+00 4.893926e+01 -1.787509e+00 4.431813e+01 -1.445306e+00 3.958738e+01 -1.168303e+00 3.459063e+01 -8.589813e-01 2.950018e+01 -6.082759e-01 2.434738e+01 -4.478881e-01 1.923708e+01 -3.763088e-01 1.419773e+01 -5.099355e-01 9.328747e+00 -8.022051e-01 4.544222e+00 -1.157899e+00 -2.804306e-01 -1.427335e+00 -5.194186e+00 -1.630919e+00 -1.016021e+01 -1.817079e+00 -1.509313e+01 -2.060442e+00 -1.992052e+01 -2.314879e+00 -2.476726e+01 -2.464335e+00 -2.964810e+01 -2.476287e+00 -3.450243e+01 -2.475113e+00 -3.926074e+01 -2.449137e+00 -4.384806e+01 -2.573878e+00 -4.813268e+01 -2.628437e+00 -5.241268e+01 -2.560962e+00 -5.634369e+01 -2.825338e+00 -5.953014e+01 -3.477267e+00 -6.204040e+01 
-3.806576e+00 -6.092143e+01 -3.386067e+00 -6.300387e+01 -2.846700e+00 6.221790e+01 -2.306540e+00 6.025209e+01 -1.900214e+00 5.764066e+01 -1.578211e+00 5.450191e+01 -1.318239e+00 5.100729e+01 -1.138443e+00 4.717145e+01 -9.176127e-01 4.295459e+01 -6.413656e-01 3.851608e+01 -3.800886e-01 3.385051e+01 -1.191053e-01 2.905749e+01 8.811008e-02 2.419346e+01 2.170845e-01 1.933081e+01 2.471825e-01 1.451246e+01 1.284158e-01 9.788367e+00 -1.156221e-01 5.116098e+00 -4.114262e-01 4.201947e-01 -6.755319e-01 -4.329693e+00 -9.057278e-01 -9.113844e+00 -1.131206e+00 -1.387832e+01 -1.388121e+00 -1.858744e+01 -1.643783e+00 -2.329003e+01 -1.835254e+00 -2.798668e+01 -1.942062e+00 -3.263311e+01 -2.022249e+00 -3.716631e+01 -2.092653e+00 -4.153160e+01 -2.213397e+00 -4.567697e+01 -2.299123e+00 -4.966836e+01 -2.383721e+00 -5.326665e+01 -2.718863e+00 -5.622385e+01 -3.307348e+00 -5.864043e+01 
-3.481045e+00 -6.611576e+01 -3.283331e+00 -6.860315e+01 -3.024048e+00 6.667900e+01 -2.768957e+00 6.420857e+01 -2.546219e+00 6.108606e+01 -2.326835e+00 5.746182e+01 -2.106540e+00 5.348323e+01 -1.910890e+00 4.919636e+01 -1.693701e+00 4.460634e+01 -1.455467e+00 3.983374e+01 -1.235631e+00 3.488630e+01 -1.022684e+00 2.984166e+01 -8.568998e-01 2.474563e+01 -7.517547e-01 1.965614e+01 -7.357602e-01 1.461391e+01 -8.302720e-01 9.640686e+00 -1.022937e+00 4.718642e+00 -1.260654e+00 -2.149215e-01 -1.480891e+00 -5.173402e+00 -1.681643e+00 -1.015352e+01 -1.867614e+00 -1.511628e+01 -2.069898e+00 -2.003848e+01 -2.257477e+00 -2.495008e+01 -2.399724e+00 -2.984250e+01 -2.476899e+00 -3.469152e+01 -2.521018e+00 -3.943367e+01 -2.547179e+00 -4.402586e+01 -2.604667e+00 -4.842897e+01 -2.655772e+00 -5.267167e+01 -2.712122e+00 -5.662495e+01 -2.896731e+00 -6.014782e+01 -3.207921e+00 -6.325909e+01 
-3.038268e+00 -6.321812e+01 -2.852950e+00 -6.580370e+01 -2.506838e+00 6.465732e+01 -2.161469e+00 6.203111e+01 -1.837120e+00 5.897245e+01 -1.549152e+00 5.553458e+01 -1.298068e+00 5.178516e+01 -1.083919e+00 4.774805e+01 -8.789564e-01 4.343266e+01 -6.703291e-01 3.892090e+01 -4.753159e-01 3.423608e+01 -2.914476e-01 2.944540e+01 -1.571230e-01 2.459027e+01 -7.368793e-02 1.971830e+01 -7.756501e-02 1.487127e+01 -1.670900e-01 1.005531e+01 -3.404679e-01 5.275507e+00 -5.566717e-01 4.808362e-01 -7.727650e-01 -4.324289e+00 -9.894506e-01 -9.148025e+00 -1.195421e+00 -1.395965e+01 -1.419276e+00 -1.874319e+01 -1.626787e+00 -2.351099e+01 -1.810991e+00 -2.824032e+01 -1.949463e+00 -3.291806e+01 -2.055198e+00 -3.747705e+01 -2.135919e+00 -4.188986e+01 -2.221104e+00 -4.613114e+01 -2.307676e+00 -5.018133e+01 -2.422066e+00 -5.394373e+01 -2.627329e+00 -5.733338e+01 -2.889349e+00 -6.038633e+01 
-3.056870e+00 -6.803614e+01 -2.963386e+00 -7.102881e+01 -2.781546e+00 6.873523e+01 -2.602833e+00 6.568634e+01 -2.410324e+00 6.219557e+01 -2.208313e+00 5.833547e+01 -2.000825e+00 5.417805e+01 -1.801278e+00 4.975666e+01 -1.620689e+00 4.507705e+01 -1.447180e+00 4.025493e+01 -1.295835e+00 3.527923e+01 -1.139106e+00 3.023444e+01 -1.044831e+00 2.513729e+01 -9.664435e-01 2.002791e+01 -9.846835e-01 1.496103e+01 -1.052396e+00 9.901406e+00 -1.198607e+00 4.904552e+00 -1.380800e+00 -1.244911e-01 -1.553890e+00 -5.131005e+00 -1.747049e+00 -1.016416e+01 -1.901758e+00 -1.518002e+01 -2.093987e+00 -2.016702e+01 -2.245287e+00 -2.515214e+01 -2.400115e+00 -3.008033e+01 -2.510399e+00 -3.498753e+01 -2.584745e+00 -3.975656e+01 -2.613726e+00 -4.439273e+01 -2.641744e+00 -4.888579e+01 -2.677798e+00 -5.322004e+01 -2.734582e+00 -5.733624e+01 -2.840896e+00 -6.117593e+01 -2.976976e+00 -6.473381e+01 
-2.609605e+00 -6.576014e+01 -2.481775e+00 -6.900525e+01 -2.240653e+00 6.754868e+01 -1.998270e+00 6.424378e+01 -1.739065e+00 6.068373e+01 -1.483908e+00 5.687882e+01 -1.241220e+00 5.285072e+01 -1.020165e+00 4.860284e+01 -8.438578e-01 4.410711e+01 -6.856329e-01 3.949870e+01 -5.592632e-01 3.472757e+01 -4.141317e-01 2.989767e+01 -3.514371e-01 2.500391e+01 -2.770691e-01 2.008080e+01 -3.166732e-01 1.519897e+01 -3.786513e-01 1.028604e+01 -5.224962e-01 5.449738e+00 -7.019273e-01 5.519530e-01 -8.693780e-01 -4.300329e+00 -1.083793e+00 -9.194261e+00 -1.241684e+00 -1.406913e+01 -1.466708e+00 -1.891463e+01 -1.632990e+00 -2.377050e+01 -1.832407e+00 -2.854555e+01 -1.989438e+00 -3.332185e+01 -2.113058e+00 -3.793395e+01 -2.174622e+00 -4.241963e+01 -2.227346e+00 -4.677637e+01 -2.288376e+00 -5.098201e+01 -2.369457e+00 -5.499326e+01 -2.478958e+00 -5.877907e+01 -2.584911e+00 -6.235411e+01 
-2.809164e+00 -7.026479e+01 -2.733815e+00 -7.387902e+01 -2.593256e+00 7.127961e+01 -2.453144e+00 6.760773e+01 -2.285263e+00 6.367537e+01 -2.095837e+00 5.950699e+01 -1.887325e+00 5.513719e+01 -1.672634e+00 5.057524e+01 -1.540336e+00 4.569045e+01 -1.416719e+00 4.082959e+01 -1.361256e+00 3.574145e+01 -1.192982e+00 3.067940e+01 -1.216869e+00 2.554132e+01 -1.084353e+00 2.035704e+01 -1.184253e+00 1.530092e+01 -1.195809e+00 1.009932e+01 -1.338453e+00 5.122567e+00 -1.509835e+00 -5.649657e-02 -1.606904e+00 -5.062122e+00 -1.850761e+00 -1.019191e+01 -1.898327e+00 -1.527282e+01 -2.158991e+00 -2.029728e+01 -2.229386e+00 -2.541128e+01 -2.445109e+00 -3.033911e+01 -2.579525e+00 -3.542182e+01 -2.693792e+00 -4.021222e+01 -2.681155e+00 -4.490259e+01 -2.670699e+00 -4.950131e+01 -2.678997e+00 -5.398618e+01 -2.707335e+00 -5.832343e+01 -2.755216e+00 -6.248490e+01 -2.803063e+00 -6.646358e+01 
-2.335728e+00 -6.846107e+01 -2.225751e+00 -7.237498e+01 -2.041588e+00 7.067623e+01 -1.853890e+00 6.671365e+01 -1.638151e+00 6.264092e+01 -1.406857e+00 5.844685e+01 -1.163071e+00 5.413645e+01 -9.117047e-01 4.970524e+01 -7.905087e-01 4.489460e+01 -6.691372e-01 4.023891e+01 -6.619428e-01 3.527821e+01 -4.542219e-01 3.041348e+01 -5.575816e-01 2.544714e+01 -3.661924e-01 2.040181e+01 -5.336801e-01 1.555781e+01 -5.080054e-01 1.044013e+01 -6.692162e-01 5.685265e+00 -8.588682e-01 5.777520e-01 -9.191960e-01 -4.235018e+00 -1.234491e+00 -9.259231e+00 -1.220813e+00 -1.420832e+01 -1.572888e+00 -1.907538e+01 -1.605886e+00 -2.411115e+01 -1.896346e+00 -2.884938e+01 -2.062466e+00 -3.389016e+01 -2.232960e+00 -3.851709e+01 -2.222153e+00 -4.307820e+01 -2.225250e+00 -4.757254e+01 -2.249016e+00 -5.197684e+01 -2.288464e+00 -5.626776e+01 -2.334346e+00 -6.043485e+01 -2.362565e+00 -6.449009e+01 
-2.644591e+00 -7.267865e+01 -2.571371e+00 -7.691900e+01 -2.453461e+00 7.407738e+01 -2.333053e+00 6.979154e+01 -2.182858e+00 6.539244e+01 -2.003034e+00 6.088081e+01 -1.780315e+00 5.628930e+01 -1.461975e+00 5.171657e+01 -1.450576e+00 4.628048e+01 -1.318699e+00 4.163103e+01 -1.538966e+00 3.617847e+01 -1.054856e+00 3.119951e+01 -1.545400e+00 2.599244e+01 -9.692926e-01 2.055726e+01 -1.472989e+00 1.578673e+01 -1.207044e+00 1.007216e+01 -1.450694e+00 5.542578e+00 -1.712104e+00 -1.614039e-01 -1.513918e+00 -4.869953e+00 -2.150268e+00 -1.026753e+01 -1.681786e+00 -1.542309e+01 -2.414600e+00 -2.033713e+01 -2.067424e+00 -2.585724e+01 -2.572279e+00 -3.044274e+01 -2.667644e+00 -3.614884e+01 -2.930208e+00 -4.076748e+01 -2.746430e+00 -4.550389e+01 -2.680854e+00 -5.023042e+01 -2.660118e+00 -5.489955e+01 -2.660551e+00 -5.948573e+01 -2.669779e+00 -6.397571e+01 -2.671690e+00 -6.836976e+01 
-2.146441e+00 -7.121705e+01 -2.045683e+00 -7.576349e+01 -1.895516e+00 7.387754e+01 -1.739113e+00 6.929573e+01 -1.553823e+00 6.472077e+01 -1.342960e+00 6.013214e+01 -1.093091e+00 5.554410e+01 -7.403966e-01 5.105527e+01 -7.384138e-01 4.564214e+01 -5.990222e-01 4.116613e+01 -8.642191e-01 3.580146e+01 -3.280891e-01 3.099358e+01 -9.009761e-01 2.593482e+01 -2.539141e-01 2.061578e+01 -8.309509e-01 1.605127e+01 -5.226907e-01 1.040192e+01 -7.889216e-01 6.098833e+00 -1.072782e+00 4.515324e-01 -8.332617e-01 -4.062131e+00 -1.549409e+00 -9.363911e+00 -1.007678e+00 -1.439355e+01 -1.840141e+00 -1.915233e+01 -1.441948e+00 -2.460918e+01 -2.019543e+00 -2.900592e+01 -2.132172e+00 -3.469380e+01 -2.445178e+00 -3.916544e+01 -2.255942e+00 -4.380332e+01 -2.202510e+00 -4.845853e+01 -2.194021e+00 -5.308469e+01 -2.201179e+00 -5.766557e+01 -2.207752e+00 -6.220166e+01 -2.196076e+00 -6.670915e+01 
-2.527380e+00 -7.515944e+01 -2.455279e+00 -7.999197e+01 -2.352549e+00 7.695812e+01 -2.244205e+00 7.209030e+01 -2.111043e+00 6.722327e+01 -1.953692e+00 6.233534e+01 -1.769240e+00 5.742320e+01 -1.552900e+00 5.249175e+01 -1.498711e+00 4.714775e+01 -1.419945e+00 4.214003e+01 -1.501140e+00 3.677128e+01 -1.277271e+00 3.160795e+01 -1.488552e+00 2.634085e+01 -1.239109e+00 2.097807e+01 -1.478175e+00 1.591719e+01 -1.392972e+00 1.044957e+01 -1.545884e+00 5.513347e+00 -1.716522e+00 6.224051e-02 -1.687130e+00 -4.948180e+00 -2.028619e+00 -1.026375e+01 -1.883547e+00 -1.547138e+01 -2.273490e+00 -2.056839e+01 -2.191604e+00 -2.592913e+01 -2.491455e+00 -3.087344e+01 -2.612515e+00 -3.630203e+01 -2.771752e+00 -4.120522e+01 -2.693333e+00 -4.611500e+01 -2.646117e+00 -5.101667e+01 -2.620095e+00 -5.589546e+01 -2.605102e+00 -6.074359e+01 -2.592000e+00 -6.556161e+01 -2.570054e+00 -7.035997e+01 
-2.009478e+00 -7.393284e+01 -1.916646e+00 -7.905987e+01 -1.790155e+00 7.702661e+01 -1.654589e+00 7.187262e+01 -1.495989e+00 6.681541e+01 -1.318571e+00 6.181737e+01 -1.125887e+00 5.685202e+01 -9.330390e-01 5.187869e+01 -8.441720e-01 4.670645e+01 -7.740405e-01 4.168962e+01 -7.856675e-01 3.650936e+01 -6.660288e-01 3.142427e+01 -7.543393e-01 2.629123e+01 -6.441577e-01 2.112078e+01 -7.724786e-01 1.609545e+01 -7.700958e-01 1.089385e+01 -8.924243e-01 5.940490e+00 -1.034600e+00 7.539835e-01 -1.091217e+00 -4.232792e+00 -1.321168e+00 -9.362155e+00 -1.333124e+00 -1.444331e+01 -1.594493e+00 -1.947331e+01 -1.647222e+00 -2.462206e+01 -1.878746e+00 -2.958065e+01 -2.029771e+00 -3.475281e+01 -2.164753e+00 -3.964862e+01 -2.153494e+00 -4.451126e+01 -2.134749e+00 -4.937341e+01 -2.123457e+00 -5.423750e+01 -2.114699e+00 -5.910763e+01 -2.099843e+00 -6.399627e+01 -2.068313e+00 -6.892663e+01 
-2.440682e+00 -7.760597e+01 -2.371324e+00 -8.298139e+01 -2.280776e+00 7.979368e+01 -2.181475e+00 7.438955e+01 -2.064298e+00 6.907595e+01 -1.931955e+00 6.381462e+01 -1.790130e+00 5.857637e+01 -1.654762e+00 5.332590e+01 -1.575445e+00 4.798408e+01 -1.519981e+00 4.269494e+01 -1.505514e+00 3.733961e+01 -1.447072e+00 3.202215e+01 -1.477252e+00 2.668989e+01 -1.439747e+00 2.135157e+01 -1.506928e+00 1.608070e+01 -1.536079e+00 1.075310e+01 -1.625382e+00 5.531872e+00 -1.730836e+00 2.264855e-01 -1.807395e+00 -4.997500e+00 -1.953826e+00 -1.027507e+01 -2.017044e+00 -1.553165e+01 -2.179252e+00 -2.076517e+01 -2.261771e+00 -2.604089e+01 -2.412723e+00 -3.123653e+01 -2.524748e+00 -3.650281e+01 -2.608000e+00 -4.163657e+01 -2.608864e+00 -4.673419e+01 -2.590169e+00 -5.182559e+01 -2.569137e+00 -5.692167e+01 -2.547982e+00 -6.203103e+01 -2.523481e+00 -6.716642e+01 -2.489855e+00 -7.234813e+01 
-1.907634e+00 -7.652662e+01 -1.822803e+00 -8.217591e+01 -1.714574e+00 8.002531e+01 -1.594420e+00 7.435397e+01 -1.457903e+00 6.885179e+01 -1.310072e+00 6.347051e+01 -1.159279e+00 5.816846e+01 -1.022398e+00 5.290093e+01 -9.302882e-01 4.761569e+01 -8.683598e-01 4.237607e+01 -8.377653e-01 3.712296e+01 -7.965148e-01 3.190197e+01 -8.062904e-01 2.668612e+01 -7.953893e-01 2.147979e+01 -8.457556e-01 1.631655e+01 -8.915519e-01 1.113732e+01 -9.775694e-01 6.015062e+00 -1.080720e+00 8.573567e-01 -1.176893e+00 -4.261784e+00 -1.310387e+00 -9.407449e+00 -1.409186e+00 -1.454532e+01 -1.558021e+00 -1.967457e+01 -1.672846e+00 -2.482572e+01 -1.819660e+00 -2.994158e+01 -1.942018e+00 -3.508856e+01 -2.031236e+00 -4.016465e+01 -2.058639e+00 -4.521957e+01 -2.059623e+00 -5.028616e+01 -2.050532e+00 -5.538398e+01 -2.034619e+00 -6.053069e+01 -2.009104e+00 -6.574849e+01 -1.968623e+00 -7.106736e+01 
-2.375217e+00 -7.993415e+01 -2.309993e+00 -8.579598e+01 -2.229848e+00 8.248499e+01 -2.137896e+00 7.659913e+01 -2.033633e+00 7.087705e+01 -1.920331e+00 6.527136e+01 -1.805047e+00 5.974226e+01 -1.701255e+00 5.425198e+01 -1.628046e+00 4.876763e+01 -1.579600e+00 4.331620e+01 -1.553443e+00 3.787033e+01 -1.528709e+00 3.245083e+01 -1.533468e+00 2.704550e+01 -1.535715e+00 2.165716e+01 -1.574013e+00 1.630129e+01 -1.618632e+00 1.095001e+01 -1.689290e+00 5.634478e+00 -1.773564e+00 3.095363e-01 -1.858207e+00 -4.993651e+00 -1.962082e+00 -1.030689e+01 -2.051528e+00 -1.561545e+01 -2.165001e+00 -2.091941e+01 -2.263088e+00 -2.623291e+01 -2.373425e+00 -3.152913e+01 -2.465184e+00 -3.683600e+01 -2.527100e+00 -4.210382e+01 -2.544110e+00 -4.735946e+01 -2.536688e+00 -5.262962e+01 -2.518494e+00 -5.793432e+01 -2.494514e+00 -6.329202e+01 -2.464567e+00 -6.872437e+01 -2.425928e+00 -7.425947e+01 
-1.830744e+00 -7.892960e+01 -1.753851e+00 -8.503967e+01 -1.660246e+00 8.279546e+01 -1.551953e+00 7.666696e+01 -1.432119e+00 7.076794e+01 -1.305263e+00 6.504496e+01 -1.179327e+00 5.945085e+01 -1.067521e+00 5.394122e+01 -9.862508e-01 4.847936e+01 -9.317055e-01 4.307611e+01 -9.004195e-01 3.770463e+01 -8.762172e-01 3.237436e+01 -8.788900e-01 2.707176e+01 -8.853745e-01 2.179551e+01 -9.237663e-01 1.655379e+01 -9.726302e-01 1.132372e+01 -1.045853e+00 6.125024e+00 -1.133623e+00 9.222734e-01 -1.225445e+00 -4.264463e+00 -1.334231e+00 -9.460296e+00 -1.435209e+00 -1.465619e+01 -1.555694e+00 -1.985376e+01 -1.666315e+00 -2.506477e+01 -1.785260e+00 -3.027145e+01 -1.887174e+00 -3.549513e+01 -1.959800e+00 -4.070166e+01 -1.990400e+00 -4.591604e+01 -1.994771e+00 -5.116751e+01 -1.984691e+00 -5.648131e+01 -1.964520e+00 -6.188230e+01 -1.933889e+00 -6.739914e+01 -1.890239e+00 -7.306708e+01 
-2.325318e+00 -8.207477e+01 -2.264996e+00 -8.836266e+01 -2.193801e+00 8.495321e+01 -2.107929e+00 7.864540e+01 -2.012974e+00 7.256223e+01 -1.911407e+00 6.665192e+01 -1.809024e+00 6.086967e+01 -1.717610e+00 5.517240e+01 -1.656028e+00 4.951836e+01 -1.617184e+00 4.393199e+01 -1.599970e+00 3.837479e+01 -1.581007e+00 3.286531e+01 -1.592225e+00 2.738424e+01 -1.595664e+00 2.193020e+01 -1.634886e+00 1.651736e+01 -1.675094e+00 1.111111e+01 -1.739740e+00 5.746466e+00 -1.815848e+00 3.708749e-01 -1.889899e+00 -4.979841e+00 -1.984747e+00 -1.034330e+01 -2.061998e+00 -1.570396e+01 -2.166213e+00 -2.106404e+01 -2.252091e+00 -2.644225e+01 -2.352835e+00 -3.181110e+01 -2.435378e+00 -3.720818e+01 -2.491292e+00 -4.258311e+01 -2.503984e+00 -4.797005e+01 -2.494193e+00 -5.339894e+01 -2.473908e+00 -5.889374e+01 -2.447395e+00 -6.447807e+01 -2.414885e+00 -7.017923e+01 -2.374837e+00 -7.603085e+01 
-1.772380e+00 -8.108471e+01 -1.703098e+00 -8.759220e+01 -1.621381e+00 8.527344e+01 -1.522403e+00 7.875086e+01 -1.414404e+00 7.250843e+01 -1.300331e+00 6.649088e+01 -1.185858e+00 6.064904e+01 -1.082563e+00 5.493394e+01 -1.015714e+00 4.928453e+01 -9.720551e-01 4.374440e+01 -9.561015e-01 3.824520e+01 -9.291851e-01 3.281905e+01 -9.477637e-01 2.743116e+01 -9.434910e-01 2.207662e+01 -9.914194e-01 1.677940e+01 -1.029334e+00 1.147873e+01 -1.099718e+00 6.239002e+00 -1.182445e+00 9.712068e-01 -1.257125e+00 -4.258123e+00 -1.365886e+00 -9.513012e+00 -1.441756e+00 -1.476545e+01 -1.563298e+00 -2.001947e+01 -1.651451e+00 -2.530821e+01 -1.768007e+00 -3.058434e+01 -1.861600e+00 -3.591886e+01 -1.930561e+00 -4.123071e+01 -1.948611e+00 -4.657527e+01 -1.944629e+00 -5.198640e+01 -1.929271e+00 -5.749126e+01 -1.905327e+00 -6.311782e+01 -1.872306e+00 -6.889842e+01 -1.828536e+00 -7.487187e+01 
-2.287297e+00 -8.397140e+01 -2.232291e+00 -9.062268e+01 -2.168971e+00 8.713455e+01 -2.088388e+00 8.046718e+01 -1.999951e+00 7.407472e+01 -1.904082e+00 6.790465e+01 -1.802637e+00 6.191234e+01 -1.704585e+00 5.604966e+01 -1.661460e+00 5.020154e+01 -1.633431e+00 4.451857e+01 -1.648356e+00 3.883170e+01 -1.603268e+00 3.325127e+01 -1.658872e+00 2.769610e+01 -1.619841e+00 2.216193e+01 -1.694939e+00 1.672691e+01 -1.707052e+00 1.123057e+01 -1.778920e+00 5.869352e+00 -1.860119e+00 4.073993e-01 -1.900932e+00 -4.953397e+00 -2.024993e+00 -1.038240e+01 -2.045549e+00 -1.579316e+01 -2.185852e+00 -2.119044e+01 -2.226202e+00 -2.666106e+01 -2.350612e+00 -3.206480e+01 -2.432138e+00 -3.760256e+01 -2.498900e+00 -4.305026e+01 -2.486574e+00 -4.853858e+01 -2.462455e+00 -5.410224e+01 -2.435883e+00 -5.976352e+01 -2.406713e+00 -6.554715e+01 -2.373340e+00 -7.148349e+01 -2.334024e+00 -7.760980e+01 
-1.728294e+00 -8.294519e+01 -1.666274e+00 -8.978560e+01 -1.594555e+00 8.740708e+01 -1.503294e+00 8.055467e+01 -1.403864e+00 7.402418e+01 -1.296653e+00 6.776128e+01 -1.181885e+00 6.172070e+01 -1.061666e+00 5.586093e+01 -1.022163e+00 4.998059e+01 -9.850811e-01 4.437159e+01 -1.022891e+00 3.871299e+01 -9.368088e-01 3.322524e+01 -1.039681e+00 2.775743e+01 -9.493636e-01 2.230026e+01 -1.069359e+00 1.700856e+01 -1.053422e+00 1.157273e+01 -1.141535e+00 6.380957e+00 -1.239176e+00 9.817986e-01 -1.254940e+00 -4.226438e+00 -1.430392e+00 -9.567946e+00 -1.402707e+00 -1.487338e+01 -1.604410e+00 -2.015024e+01 -1.608146e+00 -2.556445e+01 -1.773974e+00 -3.083876e+01 -1.860541e+00 -3.636538e+01 -1.952470e+00 -4.172691e+01 -1.929120e+00 -4.716785e+01 -1.906167e+00 -5.271145e+01 -1.882820e+00 -5.837943e+01 -1.855709e+00 -6.419919e+01 -1.822135e+00 -7.020476e+01 -1.780098e+00 -7.643719e+01 
-2.258665e+00 -8.557860e+01 -2.209337e+00 -9.252917e+01 -2.153439e+00 8.897758e+01 -2.078085e+00 8.201384e+01 -1.995431e+00 7.536478e+01 -1.903163e+00 6.897966e+01 -1.793542e+00 6.282561e+01 -1.637378e+00 5.691229e+01 -1.651645e+00 5.071973e+01 -1.607459e+00 4.510873e+01 -1.756590e+00 3.918267e+01 -1.525197e+00 3.361140e+01 -1.820283e+00 2.798755e+01 -1.529719e+00 2.229399e+01 -1.818545e+00 1.699810e+01 -1.678707e+00 1.121474e+01 -1.809535e+00 6.092807e+00 -1.944207e+00 3.430922e-01 -1.829273e+00 -4.859295e+00 -2.168528e+00 -1.043914e+01 -1.909414e+00 -1.589647e+01 -2.305759e+00 -2.124298e+01 -2.115892e+00 -2.694713e+01 -2.391961e+00 -3.218440e+01 -2.443098e+00 -3.808717e+01 -2.586122e+00 -4.347654e+01 -2.481246e+00 -4.903169e+01 -2.433467e+00 -5.470789e+01 -2.400829e+00 -6.051091e+01 -2.370722e+00 -6.646354e+01 -2.338381e+00 -7.259782e+01 -2.301469e+00 -7.895358e+01 
-1.695608e+00 -8.447357e+01 -1.640664e+00 -9.158164e+01 -1.577943e+00 8.915433e+01 -1.493809e+00 8.203631e+01 -1.402241e+00 7.527222e+01 -1.301427e+00 6.880934e+01 -1.184135e+00 6.261177e+01 -1.022226e+00 5.668440e+01 -1.028596e+00 5.051286e+01 -9.791953e-01 4.493735e+01 -1.120673e+00 3.907417e+01 -8.906015e-01 3.357626e+01 -1.178130e+00 2.804057e+01 -8.928696e-01 2.244689e+01 -1.177128e+00 1.725132e+01 -1.042361e+00 1.158269e+01 -1.174264e+00 6.566389e+00 -1.311267e+00 9.353919e-01 -1.204315e+00 -4.158968e+00 -1.544150e+00 -9.625743e+00 -1.297491e+00 -1.497620e+01 -1.694872e+00 -2.022335e+01 -1.517255e+00 -2.582921e+01 -1.797275e+00 -3.098665e+01 -1.856591e+00 -3.680966e+01 -2.005365e+00 -4.214347e+01 -1.909549e+00 -4.765772e+01 -1.868428e+00 -5.331213e+01 -1.840548e+00 -5.911584e+01 -1.813092e+00 -6.509482e+01 -1.781130e+00 -7.128431e+01 -1.742341e+00 -7.772713e+01 
-2.237698e+00 -8.686076e+01 -2.194414e+00 -9.404556e+01 -2.146030e+00 9.044222e+01 -2.076498e+00 8.324533e+01 -2.001620e+00 7.639061e+01 -1.920433e+00 6.982334e+01 -1.831570e+00 6.349774e+01 -1.736041e+00 5.737039e+01 -1.714209e+00 5.124802e+01 -1.691963e+00 4.540348e+01 -1.736717e+00 3.953024e+01 -1.661458e+00 3.383303e+01 -1.760955e+00 2.816644e+01 -1.675110e+00 2.251908e+01 -1.784259e+00 1.703535e+01 -1.762060e+00 1.142085e+01 -1.834992e+00 6.041140e+00 -1.914422e+00 4.683458e-01 -1.914106e+00 -4.922296e+00 -2.063000e+00 -1.043832e+01 -2.018449e+00 -1.592133e+01 -2.190045e+00 -2.137996e+01 -2.174282e+00 -2.697360e+01 -2.312820e+00 -3.244287e+01 -2.378766e+00 -3.816171e+01 -2.452014e+00 -4.373743e+01 -2.418920e+00 -4.940391e+01 -2.389616e+00 -5.518678e+01 -2.363640e+00 -6.110879e+01 -2.337488e+00 -6.719842e+01 -2.308676e+00 -7.349088e+01 -2.275690e+00 -8.002842e+01 
-1.672341e+00 -8.564085e+01 -1.624365e+00 -9.295079e+01 -1.570194e+00 9.048304e+01 -1.493235e+00 8.316349e+01 -1.411015e+00 7.621869e+01 -1.323537e+00 6.959172e+01 -1.231518e+00 6.323197e+01 -1.142094e+00 5.708429e+01 -1.104271e+00 5.102657e+01 -1.078927e+00 4.519477e+01 -1.094065e+00 3.941295e+01 -1.049645e+00 3.377866e+01 -1.102681e+00 2.820346e+01 -1.062163e+00 2.267494e+01 -1.131578e+00 1.726244e+01 -1.137803e+00 1.180330e+01 -1.200892e+00 6.484699e+00 -1.272165e+00 1.072120e+00 -1.303612e+00 -4.240999e+00 -1.416452e+00 -9.624105e+00 -1.428292e+00 -1.499715e+01 -1.557314e+00 -2.036976e+01 -1.588997e+00 -2.583247e+01 -1.703876e+00 -3.125483e+01 -1.779213e+00 -3.684097e+01 -1.843938e+00 -4.238018e+01 -1.835337e+00 -4.800762e+01 -1.817736e+00 -5.376365e+01 -1.798277e+00 -5.967708e+01 -1.775548e+00 -6.578008e+01 -1.747689e+00 -7.211077e+01 -1.713472e+00 -7.871381e+01 
-2.223190e+00 -8.779116e+01 -2.186075e+00 -9.514446e+01 -2.145056e+00 9.149949e+01 -2.081700e+00 8.413401e+01 -2.015247e+00 7.712849e+01 -1.946246e+00 7.042502e+01 -1.876913e+00 6.397134e+01 -1.814369e+00 5.771521e+01 -1.779063e+00 5.159182e+01 -1.758139e+00 4.563020e+01 -1.756694e+00 3.975754e+01 -1.740077e+00 3.399345e+01 -1.760082e+00 2.829765e+01 -1.753815e+00 2.265786e+01 -1.789460e+00 1.708955e+01 -1.809990e+00 1.153188e+01 -1.854698e+00 6.039729e+00 -1.906222e+00 5.283084e-01 -1.946995e+00 -4.944743e+00 -2.016522e+00 -1.044159e+01 -2.054009e+00 -1.594096e+01 -2.131868e+00 -2.145152e+01 -2.178559e+00 -2.700963e+01 -2.252349e+00 -3.257901e+01 -2.309036e+00 -3.823341e+01 -2.350209e+00 -4.390761e+01 -2.353050e+00 -4.965984e+01 -2.342758e+00 -5.552666e+01 -2.327052e+00 -6.153922e+01 -2.307468e+00 -6.773070e+01 -2.283861e+00 -7.413920e+01 -2.255835e+00 -8.080895e+01 
-1.657147e+00 -8.642593e+01 -1.615809e+00 -9.387155e+01 -1.569461e+00 9.137096e+01 -1.499425e+00 8.391522e+01 -1.426237e+00 7.684686e+01 -1.351125e+00 7.010656e+01 -1.277077e+00 6.364000e+01 -1.211217e+00 5.739398e+01 -1.167339e+00 5.131429e+01 -1.139039e+00 4.540184e+01 -1.126886e+00 3.960462e+01 -1.111702e+00 3.392137e+01 -1.120946e+00 2.832025e+01 -1.121424e+00 2.278645e+01 -1.149811e+00 1.732054e+01 -1.175878e+00 1.188323e+01 -1.220122e+00 6.496852e+00 -1.272358e+00 1.109736e+00 -1.322088e+00 -4.253570e+00 -1.389576e+00 -9.631889e+00 -1.441995e+00 -1.501916e+01 -1.517459e+00 -2.042556e+01 -1.577214e+00 -2.587644e+01 -1.650761e+00 -3.135920e+01 -1.711909e+00 -3.691940e+01 -1.756418e+00 -4.252852e+01 -1.770463e+00 -4.822901e+01 -1.769268e+00 -5.405788e+01 -1.759742e+00 -6.004892e+01 -1.743729e+00 -6.623791e+01 -1.721368e+00 -7.266523e+01 -1.692490e+00 -7.937702e+01 
-2.214344e+00 -8.835128e+01 -2.183138e+00 -9.580688e+01 -2.148822e+00 9.213017e+01 -2.091465e+00 8.466195e+01 -2.032587e+00 7.756376e+01 -1.973314e+00 7.077652e+01 -1.916219e+00 6.424716e+01 -1.866150e+00 5.792714e+01 -1.829773e+00 5.177367e+01 -1.805364e+00 4.576780e+01 -1.791951e+00 3.987634e+01 -1.782413e+00 3.408537e+01 -1.785623e+00 2.837301e+01 -1.790701e+00 2.272496e+01 -1.810044e+00 1.713321e+01 -1.833657e+00 1.157730e+01 -1.867922e+00 6.057537e+00 -1.908656e+00 5.499999e-01 -1.951388e+00 -4.943577e+00 -2.002089e+00 -1.044215e+01 -2.049287e+00 -1.594960e+01 -2.105070e+00 -2.147537e+01 -2.155694e+00 -2.703454e+01 -2.209332e+00 -3.263021e+01 -2.254738e+00 -3.828535e+01 -2.287111e+00 -4.399974e+01 -2.300640e+00 -4.980126e+01 -2.301686e+00 -5.572095e+01 -2.294801e+00 -6.179094e+01 -2.282054e+00 -6.804628e+01 -2.264202e+00 -7.452668e+01 -2.241538e+00 -8.127764e+01 
-1.649193e+00 -8.681512e+01 -1.613824e+00 -9.432991e+01 -1.574119e+00 9.180434e+01 -1.510290e+00 8.427878e+01 -1.444599e+00 7.714640e+01 -1.378624e+00 7.034727e+01 -1.315240e+00 6.382725e+01 -1.259016e+00 5.753716e+01 -1.215188e+00 5.143463e+01 -1.183464e+00 4.549351e+01 -1.162953e+00 3.968235e+01 -1.149617e+00 3.398179e+01 -1.148153e+00 2.836981e+01 -1.152899e+00 2.282994e+01 -1.170572e+00 1.735008e+01 -1.195793e+00 1.191218e+01 -1.231585e+00 6.509705e+00 -1.275049e+00 1.123592e+00 -1.322986e+00 -4.251237e+00 -1.377819e+00 -9.630609e+00 -1.432751e+00 -1.502218e+01 -1.493474e+00 -2.043678e+01 -1.551689e+00 -2.588863e+01 -1.610298e+00 -3.138618e+01 -1.661295e+00 -3.694899e+01 -1.699676e+00 -4.258551e+01 -1.721172e+00 -4.832209e+01 -1.729532e+00 -5.419007e+01 -1.728183e+00 -6.022301e+01 -1.718879e+00 -6.645773e+01 -1.702345e+00 -7.293564e+01 -1.678962e+00 -7.970369e+01 
-2.210713e+00 -8.853035e+01 -2.184821e+00 -9.602171e+01 -2.156158e+00 9.232345e+01 -2.104232e+00 8.481898e+01 -2.051505e+00 7.768745e+01 -1.999144e+00 7.086971e+01 -1.949253e+00 6.431335e+01 -1.904842e+00 5.797230e+01 -1.868930e+00 5.180775e+01 -1.841980e+00 4.579086e+01 -1.823590e+00 3.989458e+01 -1.812249e+00 3.409861e+01 -1.809475e+00 2.838405e+01 -1.813465e+00 2.273569e+01 -1.826516e+00 1.714104e+01 -1.846754e+00 1.158656e+01 -1.874822e+00 6.063093e+00 -1.909152e+00 5.577407e-01 -1.947936e+00 -4.937452e+00 -1.991237e+00 -1.043382e+01 -2.036078e+00 -1.593996e+01 -2.083559e+00 -2.146582e+01 -2.129916e+00 -2.702300e+01 -2.174731e+00 -3.262199e+01 -2.213609e+00 -3.827810e+01 -2.243123e+00 -4.400481e+01 -2.261033e+00 -4.982461e+01 -2.268928e+00 -5.576511e+01 -2.268890e+00 -6.185754e+01 -2.262344e+00 -6.813714e+01 -2.250110e+00 -7.464408e+01 -2.232723e+00 -8.142432e+01 