# vtk DataFile Version 2.0
Comment goes here
ASCII

DATASET STRUCTURED_POINTS
FIELD FieldData 1
TIME 1 1 double
0.07200000
DIMENSIONS    64   64   1

ORIGIN    0.000   0.000   0.000
SPACING   0.03125 0.03125   1.000

POINT_DATA   4096
VECTORS u double

0.559917 -0.020765 0.000000 -1.736458 0.006214 0.000000 0.358946 0.007358 0.000000 -1.668605 -0.003507 0.000000 0.079933 -0.006300 0.000000 -1.606019 -0.008712 0.000000 0.325370 0.011626 0.000000 -1.498598 -0.006978 0.000000 0.438216 0.008394 0.000000 -1.420632 -0.007819 0.000000 0.463002 0.006399 0.000000 -1.324146 -0.008571 0.000000 0.419244 0.005133 0.000000 -1.197819 -0.009246 0.000000 0.327341 0.004906 0.000000 -1.052109 -0.009783 0.000000 0.210295 0.005822 0.000000 -0.889729 -0.010111 0.000000 0.062898 0.007161 0.000000 -0.694689 -0.007027 0.000000 -0.131445 0.009885 0.000000 -0.457917 -0.004631 0.000000 -0.369033 0.012433 0.000000 -0.191603 -0.005913 0.000000 -0.623306 0.011785 0.000000 0.072486 -0.004486 0.000000 -0.855859 0.010774 0.000000 0.295116 -0.001399 0.000000 -1.036640 0.013023 0.000000 0.458364 -0.001536 0.000000 -1.161340 0.010696 0.000000 0.579743 -0.000801 0.000000 -1.256587 0.010356 0.000000 0.681579 0.000409 0.000000 -1.337252 0.011463 0.000000 0.767505 0.000641 0.000000 -1.400353 0.010759 0.000000 0.830474 0.000453 0.000000 -1.439312 0.009377 0.000000 0.867413 0.001040 0.000000 -1.449502 0.009652 0.000000 0.867578 0.002570 0.000000 -1.420368 0.012085 0.000000 0.812757 0.003899 0.000000 -1.333511 0.010221 0.000000 0.690490 0.007043 0.000000 -1.185893 0.010970 0.000000 0.506737 0.009638 0.000000 -0.992615 0.011091 0.000000 0.277673 0.010575 0.000000 -0.770777 0.007030 0.000000 0.011658 0.010967 0.000000 -0.524379 0.002555 0.000000 -0.291262 0.009718 0.000000 -0.251195 -0.000945 0.000000 -0.632200 0.008070 0.000000 0.043273 -0.003131 0.000000 -0.999672 0.006688 0.000000 0.337264 -0.004655 0.000000 -1.361446 0.005882 0.000000 0.588621 -0.005552 0.000000 -1.677087 0.004936 0.000000 0.755411 -0.006522 0.000000 -1.912676 0.006482 0.000000 
-0.195350 -0.114239 0.000000 0.185760 0.095214 0.000000 0.053088 -0.030298 0.000000 0.152600 0.130541 0.000000 0.387811 -0.012657 0.000000 0.119618 -0.130010 0.000000 -0.021779 -0.049455 0.000000 0.023642 -0.064578 0.000000 -0.243153 -0.032507 0.000000 -0.015891 -0.019673 0.000000 -0.367767 -0.041115 0.000000 -0.049993 0.015577 0.000000 -0.430910 -0.055921 0.000000 -0.095422 0.040271 0.000000 -0.455151 -0.065943 0.000000 -0.149218 0.052901 0.000000 -0.460721 -0.075221 0.000000 -0.210462 0.067840 0.000000 -0.445713 -0.092099 0.000000 -0.287979 0.088755 0.000000 -0.395556 -0.114183 0.000000 -0.388506 0.107003 0.000000 -0.317529 -0.129619 0.000000 -0.500438 0.116239 0.000000 -0.227444 -0.128528 0.000000 -0.614189 0.105298 0.000000 -0.146101 -0.108301 0.000000 -0.708861 0.078458 0.000000 -0.089747 -0.081191 0.000000 -0.768254 0.050958 0.000000 -0.060676 -0.058941 0.000000 -0.813562 0.036252 0.000000 -0.040012 -0.049249 0.000000 -0.854418 0.028340 0.000000 -0.021639 -0.042888 0.000000 -0.888349 0.019580 0.000000 -0.011571 -0.030960 0.000000 -0.910767 0.008468 0.000000 -0.009613 -0.018553 0.000000 -0.924977 -0.004913 0.000000 -0.018606 -0.001337 0.000000 -0.921901 -0.024718 0.000000 -0.041057 0.022975 0.000000 -0.890312 -0.052913 0.000000 -0.085242 0.055931 0.000000 -0.827187 -0.082449 0.000000 -0.152747 0.083037 0.000000 -0.729530 -0.104938 0.000000 -0.235054 0.103645 0.000000 -0.607365 -0.118012 0.000000 -0.323092 0.123944 0.000000 -0.466518 -0.128082 0.000000 -0.411353 0.144356 0.000000 -0.308259 -0.138119 0.000000 -0.502178 0.164627 0.000000 -0.130678 -0.145700 0.000000 -0.595289 0.178208 0.000000 0.062463 -0.142890 0.000000 -0.679783 0.175020 0.000000 0.253279 -0.119535 0.000000 -0.725006 0.151250 0.000000 0.409906 -0.075090 0.000000 -0.690432 0.109767 0.000000 0.492936 0.108760 0.000000 
1.933870 0.286411 0.000000 0.512930 -0.242224 0.000000 1.561975 0.040519 0.000000 0.480387 -0.338230 0.000000 1.116399 0.026681 0.000000 0.452463 0.400878 0.000000 1.840410 0.107603 0.000000 0.563539 0.214396 0.000000 2.236005 0.047927 0.000000 0.572674 0.116795 0.000000 2.514886 0.040501 0.000000 0.526433 0.054572 0.000000 2.748979 0.050561 0.000000 0.451640 0.014994 0.000000 2.963561 0.058702 0.000000 0.368825 -0.004213 0.000000 3.159932 0.067066 0.000000 0.282952 -0.025120 0.000000 3.353149 0.084678 0.000000 0.176079 -0.057183 0.000000 3.549356 0.110412 0.000000 0.042621 -0.082658 0.000000 3.749722 0.124366 0.000000 -0.112900 -0.095998 0.000000 3.947654 0.125536 0.000000 -0.259490 -0.085829 0.000000 4.121810 0.105446 0.000000 -0.370948 -0.057753 0.000000 4.252600 0.072416 0.000000 -0.441460 -0.030607 0.000000 4.336354 0.056004 0.000000 -0.479337 -0.021464 0.000000 4.405012 0.051212 0.000000 -0.504001 -0.017965 0.000000 4.459543 0.045394 0.000000 -0.520969 -0.009426 0.000000 4.499268 0.033177 0.000000 -0.524038 -0.001506 0.000000 4.524035 0.023586 0.000000 -0.511333 0.010034 0.000000 4.525922 0.006577 0.000000 -0.480080 0.025020 0.000000 4.495487 -0.019505 0.000000 -0.425600 0.048084 0.000000 4.417642 -0.052903 0.000000 -0.336378 0.074548 0.000000 4.291180 -0.086687 0.000000 -0.223628 0.091945 0.000000 4.116043 -0.111075 0.000000 -0.100395 0.098613 0.000000 3.911305 -0.133817 0.000000 0.028942 0.099229 0.000000 3.669583 -0.155703 0.000000 0.171614 0.100543 0.000000 3.385669 -0.178526 0.000000 0.332620 0.101180 0.000000 3.060832 -0.196272 0.000000 0.507692 0.091182 0.000000 2.704746 -0.195471 0.000000 0.675072 0.051105 0.000000 2.333919 -0.162180 0.000000 0.815106 -0.029638 0.000000 1.956984 -0.089552 0.000000 0.856909 -0.488599 0.000000 
4.032554 0.229740 0.000000 0.109745 0.467109 0.000000 3.079170 0.002245 0.000000 -0.216758 0.576118 0.000000 1.595157 0.015266 0.000000 -0.198179 -0.854022 0.000000 3.579661 -0.160530 0.000000 -0.049324 -0.460173 0.000000 4.562763 -0.041642 0.000000 -0.002258 -0.298554 0.000000 5.189952 0.005125 0.000000 0.034093 -0.218515 0.000000 5.643143 0.018872 0.000000 0.085254 -0.174311 0.000000 5.995057 0.016872 0.000000 0.148582 -0.143470 0.000000 6.286753 0.010653 0.000000 0.221018 -0.125377 0.000000 6.531189 0.014774 0.000000 0.293138 -0.107452 0.000000 6.702501 0.019274 0.000000 0.372685 -0.093363 0.000000 6.816598 0.025903 0.000000 0.448526 -0.081692 0.000000 6.897681 0.018062 0.000000 0.519799 -0.068858 0.000000 6.957474 0.003157 0.000000 0.574254 -0.052332 0.000000 7.014438 -0.010679 0.000000 0.602978 -0.032795 0.000000 7.062999 -0.021064 0.000000 0.622812 -0.032406 0.000000 7.095788 -0.024585 0.000000 0.641151 -0.026192 0.000000 7.112341 -0.025920 0.000000 0.663199 -0.020144 0.000000 7.117630 -0.027891 0.000000 0.682338 -0.016300 0.000000 7.114575 -0.031258 0.000000 0.705029 -0.006800 0.000000 7.096551 -0.032589 0.000000 0.724551 0.005717 0.000000 7.068295 -0.031505 0.000000 0.733227 0.024931 0.000000 7.022888 -0.033291 0.000000 0.725706 0.044013 0.000000 6.962764 -0.029713 0.000000 0.697297 0.070199 0.000000 6.872918 -0.019588 0.000000 0.659030 0.086725 0.000000 6.738716 -0.005393 0.000000 0.611220 0.113640 0.000000 6.566646 0.001683 0.000000 0.557698 0.145795 0.000000 6.364027 0.003620 0.000000 0.494431 0.179138 0.000000 6.127654 0.003136 0.000000 0.416917 0.213196 0.000000 5.843504 0.007640 0.000000 0.324080 0.251291 0.000000 5.480602 0.011216 0.000000 0.217614 0.301845 0.000000 4.996479 0.067964 0.000000 0.089191 0.131875 0.000000 
4.182922 0.265857 0.000000 0.263611 0.711160 0.000000 3.392845 0.367022 0.000000 -0.084615 1.145783 0.000000 2.199384 0.008102 0.000000 -0.082039 -1.583626 0.000000 3.622212 -0.041253 0.000000 -0.132523 -0.768706 0.000000 4.551825 0.000862 0.000000 -0.084506 -0.510394 0.000000 5.190291 0.004150 0.000000 -0.017505 -0.398619 0.000000 5.661728 -0.000600 0.000000 0.062120 -0.336920 0.000000 6.030383 -0.004625 0.000000 0.149731 -0.295908 0.000000 6.335673 -0.005370 0.000000 0.241428 -0.269555 0.000000 6.601781 0.012558 0.000000 0.322468 -0.228495 0.000000 6.788372 0.030865 0.000000 0.398184 -0.196756 0.000000 6.923029 0.048525 0.000000 0.462865 -0.177081 0.000000 7.024204 0.054263 0.000000 0.519165 -0.145622 0.000000 7.098775 0.050991 0.000000 0.559772 -0.114717 0.000000 7.160711 0.043692 0.000000 0.587832 -0.079168 0.000000 7.201442 0.036170 0.000000 0.606452 -0.054254 0.000000 7.226854 0.032873 0.000000 0.616545 -0.034517 0.000000 7.232191 0.023346 0.000000 0.632383 -0.014715 0.000000 7.234984 0.014039 0.000000 0.644957 0.001550 0.000000 7.221689 0.000896 0.000000 0.665220 0.028057 0.000000 7.199287 -0.012945 0.000000 0.681908 0.053277 0.000000 7.161568 -0.028181 0.000000 0.696776 0.093491 0.000000 7.100925 -0.045383 0.000000 0.697745 0.134672 0.000000 7.021264 -0.058278 0.000000 0.683034 0.181790 0.000000 6.909535 -0.072808 0.000000 0.662119 0.232816 0.000000 6.770365 -0.086006 0.000000 0.631623 0.271298 0.000000 6.584706 -0.102181 0.000000 0.594223 0.303162 0.000000 6.360586 -0.115260 0.000000 0.551845 0.337553 0.000000 6.100780 -0.118757 0.000000 0.504977 0.375333 0.000000 5.794470 -0.102634 0.000000 0.453620 0.414007 0.000000 5.421534 -0.055713 0.000000 0.378805 0.454485 0.000000 4.965373 0.038871 0.000000 0.298724 0.475326 0.000000 
4.509569 0.264853 0.000000 0.062651 1.257185 0.000000 3.753547 0.350471 0.000000 -0.040217 1.769579 0.000000 2.770495 0.012691 0.000000 -0.049824 -2.276850 0.000000 3.789876 -0.110047 0.000000 -0.081790 -1.389786 0.000000 4.689360 -0.089659 0.000000 -0.048773 -0.937020 0.000000 5.328656 -0.061876 0.000000 -0.002248 -0.689952 0.000000 5.794701 -0.060752 0.000000 0.060780 -0.542966 0.000000 6.155448 -0.070739 0.000000 0.142386 -0.448761 0.000000 6.444811 -0.081044 0.000000 0.239832 -0.391485 0.000000 6.708259 -0.066266 0.000000 0.330171 -0.294043 0.000000 6.872951 -0.056441 0.000000 0.407215 -0.228021 0.000000 6.984641 -0.038778 0.000000 0.470033 -0.182867 0.000000 7.071444 -0.038239 0.000000 0.531612 -0.143429 0.000000 7.132380 -0.037450 0.000000 0.582203 -0.114269 0.000000 7.186482 -0.038739 0.000000 0.619611 -0.073526 0.000000 7.216763 -0.039684 0.000000 0.645700 -0.057818 0.000000 7.234514 -0.034678 0.000000 0.663843 -0.031530 0.000000 7.237333 -0.041758 0.000000 0.686238 -0.022937 0.000000 7.230966 -0.040465 0.000000 0.707036 -0.003005 0.000000 7.223194 -0.051520 0.000000 0.737878 0.015601 0.000000 7.198960 -0.049277 0.000000 0.765690 0.043437 0.000000 7.172417 -0.046373 0.000000 0.784058 0.085574 0.000000 7.120490 -0.034261 0.000000 0.783915 0.123674 0.000000 7.053582 -0.015002 0.000000 0.757112 0.181928 0.000000 6.953900 0.001327 0.000000 0.715156 0.225895 0.000000 6.804950 0.025103 0.000000 0.652137 0.299300 0.000000 6.625193 0.039083 0.000000 0.580063 0.369915 0.000000 6.425520 0.045998 0.000000 0.500533 0.438944 0.000000 6.199361 0.050005 0.000000 0.415183 0.519506 0.000000 5.931152 0.058997 0.000000 0.324753 0.624227 0.000000 5.592970 0.086031 0.000000 0.225772 0.758006 0.000000 5.146075 0.148045 0.000000 0.115975 0.914326 0.000000 
4.720486 0.319180 0.000000 0.194044 1.467181 0.000000 4.122940 0.469891 0.000000 0.100325 2.128835 0.000000 3.329796 0.017709 0.000000 0.090523 -2.603006 0.000000 4.020696 -0.009287 0.000000 -0.020012 -1.668191 0.000000 4.723122 -0.032155 0.000000 -0.049005 -1.149689 0.000000 5.296227 -0.042375 0.000000 -0.025984 -0.864664 0.000000 5.745190 -0.063628 0.000000 0.035185 -0.697667 0.000000 6.103933 -0.086231 0.000000 0.135492 -0.585272 0.000000 6.389490 -0.102817 0.000000 0.257593 -0.533003 0.000000 6.689633 -0.077781 0.000000 0.360702 -0.393187 0.000000 6.846075 -0.046179 0.000000 0.432080 -0.308446 0.000000 6.966265 -0.014294 0.000000 0.472361 -0.263883 0.000000 7.056605 -0.007315 0.000000 0.526736 -0.206558 0.000000 7.130128 0.000400 0.000000 0.561428 -0.168818 0.000000 7.195684 0.006283 0.000000 0.594954 -0.109450 0.000000 7.221139 0.010081 0.000000 0.607263 -0.072004 0.000000 7.252894 0.014730 0.000000 0.614112 -0.037336 0.000000 7.246292 0.000951 0.000000 0.625669 -0.008348 0.000000 7.259752 -0.006760 0.000000 0.632898 0.009323 0.000000 7.244391 -0.029946 0.000000 0.659109 0.052290 0.000000 7.236238 -0.040757 0.000000 0.677825 0.079820 0.000000 7.207829 -0.046549 0.000000 0.704847 0.145418 0.000000 7.151766 -0.045240 0.000000 0.710315 0.201580 0.000000 7.082781 -0.031475 0.000000 0.707323 0.281473 0.000000 6.961636 -0.030852 0.000000 0.686427 0.381766 0.000000 6.840608 -0.022987 0.000000 0.648171 0.451055 0.000000 6.658697 -0.030107 0.000000 0.590747 0.502835 0.000000 6.440598 -0.035730 0.000000 0.525369 0.563712 0.000000 6.205402 -0.033407 0.000000 0.465416 0.643541 0.000000 5.943567 -0.012204 0.000000 0.409405 0.752190 0.000000 5.632289 0.043268 0.000000 0.347583 0.901381 0.000000 5.242010 0.148668 0.000000 0.274343 1.111831 0.000000 
5.054183 0.345153 0.000000 0.116138 1.854731 0.000000 4.522848 0.444190 0.000000 0.113941 2.562724 0.000000 3.857490 0.022493 0.000000 0.104497 -2.967750 0.000000 4.356494 0.000489 0.000000 0.023964 -2.092211 0.000000 4.939104 -0.060666 0.000000 -0.016861 -1.510126 0.000000 5.461640 -0.084897 0.000000 -0.022892 -1.138914 0.000000 5.889841 -0.121921 0.000000 0.006770 -0.901709 0.000000 6.245031 -0.171047 0.000000 0.109855 -0.734318 0.000000 6.498885 -0.203145 0.000000 0.284659 -0.691628 0.000000 6.833009 -0.169375 0.000000 0.408820 -0.450484 0.000000 6.937335 -0.127819 0.000000 0.463792 -0.348211 0.000000 7.023488 -0.079059 0.000000 0.479689 -0.273207 0.000000 7.111716 -0.092613 0.000000 0.550749 -0.216952 0.000000 7.163095 -0.072142 0.000000 0.584652 -0.179825 0.000000 7.234590 -0.072265 0.000000 0.632406 -0.098981 0.000000 7.244549 -0.051993 0.000000 0.644118 -0.089573 0.000000 7.267830 -0.041528 0.000000 0.650575 -0.024928 0.000000 7.260336 -0.053315 0.000000 0.670526 -0.036397 0.000000 7.257138 -0.047694 0.000000 0.673283 0.012356 0.000000 7.263370 -0.077731 0.000000 0.719996 0.023755 0.000000 7.238902 -0.067993 0.000000 0.741894 0.071846 0.000000 7.243818 -0.073396 0.000000 0.777683 0.141636 0.000000 7.189019 -0.039728 0.000000 0.785399 0.192660 0.000000 7.143378 -0.012011 0.000000 0.760755 0.303073 0.000000 7.047528 0.022223 0.000000 0.735453 0.346923 0.000000 6.878799 0.063359 0.000000 0.646610 0.481210 0.000000 6.686905 0.096508 0.000000 0.551937 0.588014 0.000000 6.502767 0.111375 0.000000 0.459485 0.674139 0.000000 6.312834 0.109958 0.000000 0.377836 0.781341 0.000000 6.098663 0.115008 0.000000 0.305204 0.935506 0.000000 5.834137 0.147853 0.000000 0.234906 1.148285 0.000000 5.493798 0.221285 0.000000 0.166477 1.435850 0.000000 
5.316384 0.369519 0.000000 0.220599 1.998516 0.000000 4.905152 0.472088 0.000000 0.220499 2.794193 0.000000 4.372766 0.027153 0.000000 0.211322 -3.102011 0.000000 4.693303 0.071246 0.000000 0.114414 -2.250800 0.000000 5.095061 0.008671 0.000000 0.026290 -1.672225 0.000000 5.509909 -0.036344 0.000000 -0.038770 -1.292865 0.000000 5.895397 -0.093291 0.000000 -0.073565 -1.052857 0.000000 6.250336 -0.189315 0.000000 0.028332 -0.839126 0.000000 6.474203 -0.277621 0.000000 0.371693 -0.867127 0.000000 6.898214 -0.201942 0.000000 0.464242 -0.497513 0.000000 6.926614 -0.101151 0.000000 0.515629 -0.394600 0.000000 7.026815 -0.030190 0.000000 0.454048 -0.352111 0.000000 7.101875 -0.078375 0.000000 0.568711 -0.257937 0.000000 7.161381 -0.033502 0.000000 0.557219 -0.240314 0.000000 7.265453 -0.041471 0.000000 0.639203 -0.119408 0.000000 7.228438 -0.001631 0.000000 0.608508 -0.095285 0.000000 7.310145 0.008273 0.000000 0.608877 -0.029843 0.000000 7.243066 -0.019000 0.000000 0.618986 -0.005150 0.000000 7.308664 -0.009516 0.000000 0.590604 0.003091 0.000000 7.266909 -0.076660 0.000000 0.664027 0.076758 0.000000 7.290766 -0.062655 0.000000 0.645466 0.074904 0.000000 7.286739 -0.082338 0.000000 0.736203 0.200217 0.000000 7.220155 -0.052956 0.000000 0.702022 0.247221 0.000000 7.201073 -0.006831 0.000000 0.759088 0.377323 0.000000 7.025543 -0.005550 0.000000 0.736169 0.550494 0.000000 6.958082 0.065855 0.000000 0.705187 0.642949 0.000000 6.751578 0.064567 0.000000 0.576240 0.686973 0.000000 6.529649 0.056722 0.000000 0.460876 0.753645 0.000000 6.343351 0.048241 0.000000 0.394639 0.857712 0.000000 6.156638 0.060429 0.000000 0.352226 1.016715 0.000000 5.935144 0.113565 0.000000 0.311315 1.241720 0.000000 5.659232 0.217098 0.000000 0.264145 1.551446 0.000000 
5.641794 0.388699 0.000000 0.181277 2.265963 0.000000 5.292225 0.444289 0.000000 0.227605 3.095109 0.000000 4.857723 0.031670 0.000000 0.219256 -3.288287 0.000000 5.073036 0.097397 0.000000 0.153700 -2.493969 0.000000 5.375447 0.027458 0.000000 0.079858 -1.924974 0.000000 5.712299 -0.019837 0.000000 -0.009512 -1.524402 0.000000 6.044781 -0.087126 0.000000 -0.153380 -1.256648 0.000000 6.411483 -0.272945 0.000000 -0.187230 -0.958185 0.000000 6.613159 -0.546506 0.000000 0.574099 -1.115639 0.000000 7.124072 -0.261923 0.000000 0.511795 -0.478885 0.000000 7.005612 -0.179206 0.000000 0.596822 -0.448412 0.000000 7.040547 -0.017477 0.000000 0.364743 -0.348267 0.000000 7.201451 -0.207277 0.000000 0.616936 -0.276457 0.000000 7.162886 -0.060650 0.000000 0.592318 -0.283897 0.000000 7.347590 -0.154249 0.000000 0.645799 -0.061966 0.000000 7.249423 -0.021297 0.000000 0.706032 -0.171281 0.000000 7.328610 -0.041897 0.000000 0.554588 0.042152 0.000000 7.284175 -0.063424 0.000000 0.730729 -0.101995 0.000000 7.270097 -0.019312 0.000000 0.532017 0.054110 0.000000 7.344553 -0.151154 0.000000 0.753059 -0.000103 0.000000 7.247396 -0.049432 0.000000 0.686135 0.075873 0.000000 7.382608 -0.164133 0.000000 0.769384 0.208221 0.000000 7.252759 -0.005547 0.000000 0.829124 0.211742 0.000000 7.294408 -0.069077 0.000000 0.716100 0.478603 0.000000 7.212553 0.045142 0.000000 0.895404 0.414383 0.000000 6.960123 0.094340 0.000000 0.654065 0.687715 0.000000 6.717401 0.225455 0.000000 0.496874 0.809943 0.000000 6.571842 0.226739 0.000000 0.376006 0.860437 0.000000 6.454161 0.176195 0.000000 0.308972 0.968055 0.000000 6.324110 0.157421 0.000000 0.267747 1.157000 0.000000 6.151755 0.188763 0.000000 0.230874 1.424197 0.000000 5.925717 0.268455 0.000000 0.196711 1.778698 0.000000 
5.914751 0.384953 0.000000 0.263734 2.348085 0.000000 5.656950 0.425761 0.000000 0.317694 3.228695 0.000000 5.329877 0.035502 0.000000 0.310254 -3.317323 0.000000 5.424346 0.136802 0.000000 0.260355 -2.553212 0.000000 5.587607 0.082513 0.000000 0.189927 -2.009077 0.000000 5.798784 0.053025 0.000000 0.070824 -1.625347 0.000000 6.051686 0.050578 0.000000 -0.186788 -1.419560 0.000000 6.397050 -0.155466 0.000000 -0.370290 -1.040802 0.000000 6.648430 -1.038949 0.000000 0.651848 -1.378040 0.000000 7.213518 -0.139637 0.000000 0.273061 -0.379053 0.000000 6.934916 -0.186178 0.000000 0.657629 -0.429534 0.000000 7.023973 0.201888 0.000000 0.049442 -0.513015 0.000000 7.175131 -0.330569 0.000000 0.686108 -0.219372 0.000000 7.102992 -0.008884 0.000000 0.444230 -0.425017 0.000000 7.458678 -0.094953 0.000000 0.672163 -0.021241 0.000000 7.116612 -0.061864 0.000000 0.714543 -0.174473 0.000000 7.476471 0.159717 0.000000 0.388740 0.014592 0.000000 7.161967 -0.195140 0.000000 0.821484 0.008927 0.000000 7.401511 0.189196 0.000000 0.268773 -0.071365 0.000000 7.280238 -0.297702 0.000000 0.884257 0.173916 0.000000 7.300802 0.004269 0.000000 0.437460 -0.060309 0.000000 7.460326 -0.165587 0.000000 0.892979 0.330066 0.000000 7.196765 -0.112697 0.000000 0.630385 0.205572 0.000000 7.500298 0.106193 0.000000 0.681289 0.459178 0.000000 7.070285 -0.184854 0.000000 1.003066 0.802924 0.000000 7.197319 0.307195 0.000000 0.936870 0.885671 0.000000 6.776048 0.221757 0.000000 0.458320 0.832532 0.000000 6.574586 0.177590 0.000000 0.302556 0.871327 0.000000 6.504287 0.115275 0.000000 0.290344 0.987763 0.000000 6.418061 0.101654 0.000000 0.291979 1.189071 0.000000 6.289448 0.150438 0.000000 0.282540 1.467758 0.000000 6.121177 0.251261 0.000000 0.266648 1.835370 0.000000 
6.222018 0.391612 0.000000 0.242491 2.523763 0.000000 6.017152 0.390329 0.000000 0.317942 3.422182 0.000000 5.772529 0.039110 0.000000 0.311415 -3.382756 0.000000 5.799079 0.147296 0.000000 0.290554 -2.657230 0.000000 5.897145 0.097885 0.000000 0.276189 -2.136151 0.000000 6.045935 0.099267 0.000000 0.276847 -1.777304 0.000000 6.197380 0.170486 0.000000 0.278235 -1.602013 0.000000 6.270707 -0.089442 0.000000 0.114808 -1.209564 0.000000 6.458198 -1.568644 0.000000 -0.317605 -1.680728 0.000000 6.050528 0.116864 0.000000 -0.777167 -0.200283 0.000000 6.499876 -0.563774 0.000000 -0.410634 -0.537469 0.000000 6.474596 0.590710 0.000000 -0.348875 -0.499425 0.000000 6.788059 -0.843943 0.000000 -0.264470 -0.204317 0.000000 6.716050 0.181227 0.000000 0.131045 -0.639584 0.000000 6.893362 -0.382183 0.000000 -0.142325 0.280100 0.000000 6.902581 -0.063677 0.000000 0.537485 -0.531139 0.000000 6.851334 0.283905 0.000000 -0.137317 0.356656 0.000000 7.001945 -0.496168 0.000000 0.593846 -0.341539 0.000000 6.759024 0.533400 0.000000 -0.018562 0.175384 0.000000 7.065651 -0.766639 0.000000 0.480327 -0.020667 0.000000 6.798036 0.397365 0.000000 0.393371 -0.083651 0.000000 7.164827 -0.619652 0.000000 0.487944 0.471782 0.000000 6.964074 0.257048 0.000000 0.914515 -0.091791 0.000000 7.191184 -0.119980 0.000000 0.501866 0.908616 0.000000 7.136879 -0.276635 0.000000 1.749259 0.287350 0.000000 7.014029 0.160537 0.000000 0.996488 1.108985 0.000000 6.615547 0.704005 0.000000 0.283083 1.011405 0.000000 6.606517 0.382503 0.000000 0.174756 0.930736 0.000000 6.641734 0.188408 0.000000 0.210025 1.054281 0.000000 6.605415 0.155786 0.000000 0.230854 1.285613 0.000000 6.512729 0.198202 0.000000 0.230101 1.592468 0.000000 6.382954 0.284348 0.000000 0.225633 1.985124 0.000000 
6.484907 0.368095 0.000000 0.306208 2.552951 0.000000 6.354766 0.350310 0.000000 0.382917 3.473319 0.000000 6.202090 0.042029 0.000000 0.377315 -3.343873 0.000000 6.148840 0.157663 0.000000 0.372694 -2.651278 0.000000 6.147658 0.096878 0.000000 0.413490 -2.157867 0.000000 6.149739 0.052367 0.000000 0.586510 -1.776792 0.000000 6.012573 0.049190 0.000000 0.945023 -1.492887 0.000000 5.517440 0.007961 0.000000 0.849177 -1.228293 0.000000 5.129929 -0.606536 0.000000 -2.215906 -0.970370 0.000000 3.880726 0.319925 0.000000 -1.465195 -0.828401 0.000000 4.602047 -0.552711 0.000000 -2.471787 -0.404255 0.000000 4.955542 0.140129 0.000000 -1.163140 -0.826477 0.000000 4.498732 -0.414974 0.000000 -2.294436 -0.147363 0.000000 4.940311 -0.404399 0.000000 -2.153994 -0.602330 0.000000 4.251215 0.178418 0.000000 -2.119924 -0.030460 0.000000 4.944071 -0.741674 0.000000 -2.564888 -0.123226 0.000000 4.633509 0.834519 0.000000 -1.307662 -0.136019 0.000000 5.031260 -0.926304 0.000000 -2.293216 0.251849 0.000000 5.010071 0.801604 0.000000 -0.965728 -0.377992 0.000000 4.874672 -0.796590 0.000000 -2.009301 0.441530 0.000000 5.060619 0.091224 0.000000 -1.454241 -0.427100 0.000000 4.566583 -0.260159 0.000000 -1.866993 0.530819 0.000000 5.055583 -0.539268 0.000000 -1.826980 -0.021538 0.000000 4.720908 0.518842 0.000000 -1.335681 0.513483 0.000000 5.375483 -1.432247 0.000000 -2.035946 0.925774 0.000000 5.582241 1.059966 0.000000 -1.252789 1.284153 0.000000 6.351476 0.935163 0.000000 -0.308868 0.841562 0.000000 6.714630 0.285917 0.000000 0.090899 0.836110 0.000000 6.772337 0.080007 0.000000 0.217977 1.024081 0.000000 6.733111 0.080825 0.000000 0.257826 1.281757 0.000000 6.665076 0.151190 0.000000 0.270432 1.597533 0.000000 6.582467 0.255729 0.000000 0.278601 1.996306 0.000000 
6.766781 0.364006 0.000000 0.293575 2.653904 0.000000 6.683987 0.313620 0.000000 0.374457 3.574859 0.000000 6.602723 0.044713 0.000000 0.370015 -3.329506 0.000000 6.491505 0.151916 0.000000 0.365198 -2.656047 0.000000 6.424180 0.057089 0.000000 0.393900 -2.138232 0.000000 6.350024 -0.073752 0.000000 0.530761 -1.640138 0.000000 6.158511 -0.188027 0.000000 0.816870 -1.106880 0.000000 5.759694 0.006404 0.000000 0.807739 -0.822053 0.000000 5.616409 1.496439 0.000000 -0.817554 -0.431525 0.000000 4.505204 -0.633846 0.000000 -0.670207 -0.921603 0.000000 4.864958 0.442817 0.000000 -1.493459 -0.890964 0.000000 4.897509 -0.717937 0.000000 -0.775468 -0.042615 0.000000 4.506616 0.287353 0.000000 -1.847714 -0.645896 0.000000 4.811288 0.040786 0.000000 -1.935710 0.049511 0.000000 4.081862 -0.416253 0.000000 -1.968705 -0.412755 0.000000 4.757917 0.381287 0.000000 -2.697050 -0.220578 0.000000 4.367792 -0.973320 0.000000 -1.302261 -0.041095 0.000000 4.743470 0.489386 0.000000 -2.732544 -0.320350 0.000000 4.780648 -0.794089 0.000000 -1.063607 0.310783 0.000000 4.444340 0.276934 0.000000 -2.608327 -0.206615 0.000000 4.845544 -0.157694 0.000000 -1.913627 0.410385 0.000000 3.949647 -0.206900 0.000000 -2.597146 -0.017218 0.000000 4.681763 0.217035 0.000000 -2.952615 0.242884 0.000000 3.990580 -0.611280 0.000000 -2.116747 0.254042 0.000000 4.690857 0.423630 0.000000 -4.379247 0.080591 0.000000 5.254114 -0.622619 0.000000 -2.504955 0.339751 0.000000 6.656821 -0.239917 0.000000 -0.549715 0.648251 0.000000 7.007368 -0.017265 0.000000 0.084312 0.873029 0.000000 6.995262 0.061330 0.000000 0.219655 1.093507 0.000000 6.935164 0.115937 0.000000 0.240801 1.353647 0.000000 6.880129 0.185596 0.000000 0.244721 1.675077 0.000000 6.826525 0.276179 0.000000 0.255412 2.082685 0.000000 
7.008314 0.329932 0.000000 0.340178 2.635744 0.000000 6.991524 0.269428 0.000000 0.417139 3.554583 0.000000 6.989892 0.046471 0.000000 0.413954 -3.232655 0.000000 6.818533 0.162480 0.000000 0.392610 -2.583954 0.000000 6.695392 0.068176 0.000000 0.344818 -2.083710 0.000000 6.612706 -0.084495 0.000000 0.259596 -1.585280 0.000000 6.580433 -0.236919 0.000000 0.107924 -1.094070 0.000000 6.662479 0.017093 0.000000 0.056559 -1.085008 0.000000 6.818210 1.018756 0.000000 1.081936 0.140836 0.000000 6.995236 0.172579 0.000000 0.483602 -1.188155 0.000000 6.847280 0.270540 0.000000 0.796605 -0.436805 0.000000 6.609262 -0.577861 0.000000 0.273398 -0.435584 0.000000 6.905674 0.657272 0.000000 0.368518 -0.452035 0.000000 6.694883 -0.316403 0.000000 0.485578 0.127096 0.000000 6.869057 0.211413 0.000000 0.063770 -0.706515 0.000000 6.814453 -0.013329 0.000000 0.520584 0.266899 0.000000 6.671901 -0.560270 0.000000 -0.210152 -0.511697 0.000000 6.853015 0.503979 0.000000 0.214626 0.214671 0.000000 6.541246 -0.867333 0.000000 -0.248593 -0.041684 0.000000 6.824444 0.748129 0.000000 -0.210914 0.040327 0.000000 6.593230 -0.603476 0.000000 -0.131030 0.468797 0.000000 6.730075 0.423360 0.000000 -0.518323 -0.201297 0.000000 6.707520 -0.183799 0.000000 -0.112537 0.669644 0.000000 6.552291 -0.317026 0.000000 -0.633736 -0.186793 0.000000 6.767574 0.830252 0.000000 -0.291470 0.362518 0.000000 6.482500 -0.814326 0.000000 -0.626527 -0.118555 0.000000 6.708549 -1.020078 0.000000 -0.288729 0.491015 0.000000 6.917604 -0.348110 0.000000 0.031080 0.848217 0.000000 6.996731 -0.055335 0.000000 0.181321 1.084179 0.000000 7.013503 0.059678 0.000000 0.241140 1.336791 0.000000 7.013175 0.147270 0.000000 0.269146 1.651137 0.000000 7.011091 0.245039 0.000000 0.294164 2.056050 0.000000 
7.262254 0.317992 0.000000 0.328439 2.670694 0.000000 7.288862 0.236658 0.000000 0.402787 3.576491 0.000000 7.348837 0.047898 0.000000 0.400755 -3.158148 0.000000 7.140982 0.173260 0.000000 0.382944 -2.532906 0.000000 6.988701 0.104881 0.000000 0.329952 -2.055546 0.000000 6.899165 0.011470 0.000000 0.200469 -1.607865 0.000000 6.920419 -0.036355 0.000000 -0.085380 -1.188927 0.000000 7.112782 0.057768 0.000000 -0.200717 -0.977784 0.000000 7.078647 0.471061 0.000000 0.626323 -0.608551 0.000000 7.762502 -0.035512 0.000000 0.643223 -0.773647 0.000000 7.316810 0.129814 0.000000 0.848682 -0.652947 0.000000 7.413877 -0.194729 0.000000 0.311541 -0.339027 0.000000 7.439853 0.192232 0.000000 0.883958 -0.435105 0.000000 7.339963 -0.076274 0.000000 0.600579 -0.124662 0.000000 7.671010 0.005556 0.000000 0.785869 -0.358151 0.000000 7.275686 -0.075528 0.000000 0.847213 -0.078026 0.000000 7.627455 -0.242584 0.000000 0.389282 -0.222209 0.000000 7.309560 0.064608 0.000000 0.921758 -0.008581 0.000000 7.500071 -0.330869 0.000000 0.196295 0.027586 0.000000 7.451471 0.239255 0.000000 0.887593 0.024599 0.000000 7.404111 -0.237579 0.000000 0.385144 0.273540 0.000000 7.674256 0.180393 0.000000 0.767280 0.005337 0.000000 7.380536 -0.188751 0.000000 0.684366 0.398113 0.000000 7.747564 -0.090082 0.000000 0.458621 0.038759 0.000000 7.421356 0.081364 0.000000 1.337862 0.365666 0.000000 7.489422 -0.287563 0.000000 0.822647 0.113702 0.000000 7.094808 -0.577715 0.000000 0.173562 0.439196 0.000000 7.075171 -0.337073 0.000000 0.109021 0.793902 0.000000 7.140152 -0.088912 0.000000 0.176538 1.076735 0.000000 7.180302 0.056118 0.000000 0.223502 1.353975 0.000000 7.205358 0.157590 0.000000 0.250282 1.677161 0.000000 7.231484 0.251161 0.000000 0.277822 2.085462 0.000000 