# vtk DataFile Version 2.0
Comment goes here
ASCII

DATASET STRUCTURED_POINTS
FIELD FieldData 1
TIME 1 1 double
0.05700000
DIMENSIONS    64   64   1

ORIGIN    0.000   0.000   0.000
SPACING   0.03125 0.03125   1.000

POINT_DATA   4096
VECTORS u double

0.670724 0.029517 0.000000 -1.542783 -0.012753 0.000000 0.441469 0.011433 0.000000 -1.414986 -0.006603 0.000000 0.156341 -0.003790 0.000000 -1.263859 -0.004152 0.000000 0.179983 0.007965 0.000000 -1.060948 -0.003716 0.000000 0.120741 0.004735 0.000000 -0.885282 -0.003495 0.000000 0.035679 0.002295 0.000000 -0.735117 -0.003049 0.000000 -0.045591 0.000283 0.000000 -0.623192 -0.002479 0.000000 -0.092573 -0.000978 0.000000 -0.560939 -0.001946 0.000000 -0.097563 -0.001575 0.000000 -0.543975 -0.000765 0.000000 -0.071472 -0.002241 0.000000 -0.549125 0.000800 0.000000 -0.050539 -0.000028 0.000000 -0.527125 0.003376 0.000000 -0.085661 0.000954 0.000000 -0.436991 0.002288 0.000000 -0.200570 0.001195 0.000000 -0.269187 0.002467 0.000000 -0.388379 0.002396 0.000000 -0.040393 0.002924 0.000000 -0.619620 0.003701 0.000000 0.207974 0.002984 0.000000 -0.849136 0.003227 0.000000 0.435546 0.002467 0.000000 -1.051230 0.002789 0.000000 0.634395 0.002371 0.000000 -1.221991 0.002425 0.000000 0.792974 0.003247 0.000000 -1.343782 0.001985 0.000000 0.889358 0.003412 0.000000 -1.397742 0.001937 0.000000 0.913214 0.004064 0.000000 -1.379215 0.001709 0.000000 0.855002 0.004544 0.000000 -1.280963 0.002979 0.000000 0.710002 0.005192 0.000000 -1.102266 0.003318 0.000000 0.489956 0.006612 0.000000 -0.864979 0.003984 0.000000 0.223844 0.006861 0.000000 -0.605956 0.004399 0.000000 -0.047776 0.006440 0.000000 -0.364046 0.003380 0.000000 -0.295184 0.005961 0.000000 -0.160754 0.002044 0.000000 -0.506735 0.004201 0.000000 0.002179 0.001278 0.000000 -0.694366 0.002167 0.000000 0.148126 0.001211 0.000000 -0.880254 0.000332 0.000000 0.284555 0.001420 0.000000 -1.062417 -0.001057 0.000000 0.402926 0.002228 0.000000 -1.238491 -0.003140 0.000000 0.503349 0.004969 0.000000 -1.422784 -0.008783 0.000000 
-0.529305 0.089331 0.000000 0.445531 0.105089 0.000000 -0.293959 -0.059625 0.000000 0.375803 0.136648 0.000000 -0.012091 -0.062079 0.000000 0.294591 -0.018121 0.000000 -0.196234 -0.099097 0.000000 0.161449 0.024331 0.000000 -0.267320 -0.084532 0.000000 0.061713 0.038534 0.000000 -0.291716 -0.071849 0.000000 -0.020999 0.037917 0.000000 -0.297773 -0.053176 0.000000 -0.085132 0.021842 0.000000 -0.310868 -0.029290 0.000000 -0.124813 0.001973 0.000000 -0.338927 -0.008321 0.000000 -0.141921 -0.012755 0.000000 -0.377999 0.001964 0.000000 -0.146811 -0.010416 0.000000 -0.410580 -0.013395 0.000000 -0.164301 0.015739 0.000000 -0.406648 -0.048394 0.000000 -0.216161 0.056997 0.000000 -0.360175 -0.087243 0.000000 -0.306995 0.093014 0.000000 -0.273148 -0.118010 0.000000 -0.428523 0.113114 0.000000 -0.161562 -0.127902 0.000000 -0.560602 0.112054 0.000000 -0.050446 -0.116766 0.000000 -0.679071 0.098633 0.000000 0.043457 -0.102366 0.000000 -0.782384 0.083124 0.000000 0.122569 -0.082456 0.000000 -0.866222 0.058176 0.000000 0.179973 -0.050579 0.000000 -0.919228 0.023591 0.000000 0.205534 -0.014973 0.000000 -0.933866 -0.011705 0.000000 0.198027 0.025771 0.000000 -0.907972 -0.051446 0.000000 0.153927 0.068163 0.000000 -0.837560 -0.092394 0.000000 0.074676 0.105368 0.000000 -0.728842 -0.121484 0.000000 -0.030967 0.126754 0.000000 -0.592272 -0.132073 0.000000 -0.145315 0.129166 0.000000 -0.450461 -0.123354 0.000000 -0.246786 0.118735 0.000000 -0.320200 -0.103951 0.000000 -0.322821 0.102605 0.000000 -0.208813 -0.082951 0.000000 -0.373448 0.092007 0.000000 -0.108899 -0.073717 0.000000 -0.412941 0.092127 0.000000 -0.007350 -0.068651 0.000000 -0.442379 0.091272 0.000000 0.091768 -0.060009 0.000000 -0.450122 0.089259 0.000000 0.184076 -0.051779 0.000000 -0.433518 0.094819 0.000000 0.289373 -0.089981 0.000000 
1.297795 -0.126641 0.000000 0.685820 -0.248099 0.000000 1.105837 0.081161 0.000000 0.615887 -0.288471 0.000000 0.857880 0.077422 0.000000 0.514361 0.179990 0.000000 1.417181 0.141106 0.000000 0.454587 0.067370 0.000000 1.801133 0.104471 0.000000 0.355674 0.020900 0.000000 2.092643 0.085007 0.000000 0.254996 0.003009 0.000000 2.321784 0.064416 0.000000 0.179075 0.010616 0.000000 2.491576 0.038703 0.000000 0.142309 0.026113 0.000000 2.609773 0.015533 0.000000 0.141974 0.038307 0.000000 2.685113 0.002649 0.000000 0.162304 0.033381 0.000000 2.743355 0.017462 0.000000 0.163001 -0.000555 0.000000 2.817681 0.052813 0.000000 0.114276 -0.044184 0.000000 2.935920 0.092029 0.000000 0.018938 -0.084561 0.000000 3.090681 0.123923 0.000000 -0.116295 -0.108661 0.000000 3.265287 0.135780 0.000000 -0.265499 -0.108133 0.000000 3.429536 0.121696 0.000000 -0.391758 -0.091436 0.000000 3.571925 0.106103 0.000000 -0.496922 -0.076741 0.000000 3.692371 0.086263 0.000000 -0.578015 -0.054157 0.000000 3.777732 0.054991 0.000000 -0.622178 -0.022150 0.000000 3.815139 0.016575 0.000000 -0.627828 0.011572 0.000000 3.800158 -0.024186 0.000000 -0.586499 0.048644 0.000000 3.730239 -0.067433 0.000000 -0.497648 0.084442 0.000000 3.596918 -0.105400 0.000000 -0.366980 0.112255 0.000000 3.417857 -0.132586 0.000000 -0.215463 0.121209 0.000000 3.212293 -0.137412 0.000000 -0.068348 0.107912 0.000000 3.007747 -0.126882 0.000000 0.056890 0.081996 0.000000 2.814039 -0.109342 0.000000 0.157422 0.054828 0.000000 2.631450 -0.098636 0.000000 0.244571 0.041660 0.000000 2.439821 -0.100338 0.000000 0.335562 0.029770 0.000000 2.229725 -0.097697 0.000000 0.423763 0.006686 0.000000 2.000453 -0.090080 0.000000 0.511117 -0.019744 0.000000 1.730012 -0.100328 0.000000 0.624859 0.087005 0.000000 
3.315267 0.028370 0.000000 -0.093740 0.297048 0.000000 2.441266 0.010309 0.000000 -0.212164 0.384604 0.000000 1.208464 0.039447 0.000000 -0.139788 -0.577423 0.000000 2.637940 -0.039323 0.000000 -0.056516 -0.359621 0.000000 3.408742 0.014381 0.000000 -0.003644 -0.252975 0.000000 3.918069 0.028829 0.000000 0.045844 -0.191224 0.000000 4.292417 0.022745 0.000000 0.094974 -0.147950 0.000000 4.595298 0.007475 0.000000 0.138634 -0.116224 0.000000 4.855234 -0.007986 0.000000 0.172678 -0.088095 0.000000 5.074485 -0.018366 0.000000 0.195540 -0.068658 0.000000 5.255335 -0.014092 0.000000 0.217035 -0.058586 0.000000 5.381903 0.000331 0.000000 0.247524 -0.061243 0.000000 5.466888 0.008095 0.000000 0.286927 -0.061747 0.000000 5.506247 0.017222 0.000000 0.334888 -0.061492 0.000000 5.520016 0.021303 0.000000 0.384515 -0.052195 0.000000 5.521442 0.009493 0.000000 0.424337 -0.043756 0.000000 5.521268 0.002798 0.000000 0.461554 -0.037323 0.000000 5.518260 -0.001363 0.000000 0.495421 -0.027185 0.000000 5.508104 -0.006415 0.000000 0.521533 -0.013815 0.000000 5.502026 -0.009323 0.000000 0.533361 0.003276 0.000000 5.486681 -0.015558 0.000000 0.531409 0.018473 0.000000 5.470711 -0.020687 0.000000 0.510839 0.040928 0.000000 5.446653 -0.025300 0.000000 0.473282 0.057577 0.000000 5.413810 -0.024762 0.000000 0.419961 0.073490 0.000000 5.360596 -0.017949 0.000000 0.362001 0.081193 0.000000 5.267831 -0.006503 0.000000 0.311206 0.089757 0.000000 5.135949 0.002074 0.000000 0.272654 0.099638 0.000000 4.966984 0.004858 0.000000 0.241355 0.117912 0.000000 4.765981 0.001135 0.000000 0.207862 0.141445 0.000000 4.520549 0.003071 0.000000 0.172939 0.169263 0.000000 4.202001 0.001905 0.000000 0.134232 0.218661 0.000000 3.776707 -0.018923 0.000000 0.062602 0.342235 0.000000 
3.391423 0.029701 0.000000 0.074240 0.625902 0.000000 2.688766 0.199586 0.000000 -0.093816 0.944330 0.000000 1.688424 0.005046 0.000000 -0.061599 -1.249485 0.000000 2.790447 0.057834 0.000000 -0.076265 -0.703432 0.000000 3.507908 0.051600 0.000000 -0.037811 -0.488427 0.000000 4.010068 0.035519 0.000000 0.013430 -0.371340 0.000000 4.386058 0.015286 0.000000 0.071099 -0.292265 0.000000 4.686052 -0.004957 0.000000 0.131652 -0.233823 0.000000 4.938070 -0.018512 0.000000 0.188916 -0.180944 0.000000 5.143278 -0.020212 0.000000 0.234375 -0.147468 0.000000 5.306887 -0.004032 0.000000 0.271857 -0.127124 0.000000 5.424125 0.022324 0.000000 0.306473 -0.129169 0.000000 5.514206 0.052626 0.000000 0.332257 -0.123919 0.000000 5.564455 0.075962 0.000000 0.355304 -0.122431 0.000000 5.601042 0.086154 0.000000 0.377143 -0.109559 0.000000 5.619638 0.081873 0.000000 0.391278 -0.091261 0.000000 5.634866 0.068886 0.000000 0.404360 -0.073734 0.000000 5.643295 0.052396 0.000000 0.419063 -0.044001 0.000000 5.643407 0.028879 0.000000 0.433436 -0.016071 0.000000 5.643213 0.004747 0.000000 0.445667 0.026916 0.000000 5.623361 -0.022234 0.000000 0.451492 0.064614 0.000000 5.597084 -0.046863 0.000000 0.448412 0.108500 0.000000 5.548733 -0.067843 0.000000 0.436222 0.145098 0.000000 5.490569 -0.079266 0.000000 0.413016 0.174422 0.000000 5.408798 -0.079451 0.000000 0.382885 0.200677 0.000000 5.299941 -0.076086 0.000000 0.350517 0.213878 0.000000 5.153936 -0.070791 0.000000 0.319834 0.223794 0.000000 4.978008 -0.067337 0.000000 0.291524 0.242663 0.000000 4.774794 -0.066845 0.000000 0.263184 0.275202 0.000000 4.531809 -0.062774 0.000000 0.237605 0.325233 0.000000 4.225749 -0.051373 0.000000 0.205169 0.405550 0.000000 3.838341 -0.028698 0.000000 0.133451 0.548445 0.000000 
3.540048 0.087581 0.000000 -0.049581 0.999705 0.000000 2.923440 0.178365 0.000000 -0.093688 1.384947 0.000000 2.138535 0.007229 0.000000 -0.099044 -1.679446 0.000000 2.922802 -0.024657 0.000000 -0.065354 -1.077082 0.000000 3.585441 -0.024072 0.000000 -0.023091 -0.755135 0.000000 4.070298 -0.022412 0.000000 0.020682 -0.567214 0.000000 4.436472 -0.034923 0.000000 0.069733 -0.447943 0.000000 4.731825 -0.053078 0.000000 0.123863 -0.368242 0.000000 4.984502 -0.065250 0.000000 0.179831 -0.293303 0.000000 5.185887 -0.063825 0.000000 0.224588 -0.232266 0.000000 5.346934 -0.051574 0.000000 0.261258 -0.175824 0.000000 5.453970 -0.034285 0.000000 0.293847 -0.151324 0.000000 5.540867 -0.017688 0.000000 0.327463 -0.111996 0.000000 5.580015 -0.005825 0.000000 0.359972 -0.098078 0.000000 5.604811 -0.000536 0.000000 0.394404 -0.070791 0.000000 5.610062 -0.004642 0.000000 0.424362 -0.058984 0.000000 5.608132 -0.010284 0.000000 0.455710 -0.045752 0.000000 5.608924 -0.016065 0.000000 0.484525 -0.027297 0.000000 5.597303 -0.020788 0.000000 0.510857 -0.013621 0.000000 5.598564 -0.021555 0.000000 0.527040 0.023129 0.000000 5.578500 -0.021383 0.000000 0.531551 0.044749 0.000000 5.562672 -0.017607 0.000000 0.521147 0.089279 0.000000 5.527287 -0.013110 0.000000 0.494993 0.115741 0.000000 5.481540 -0.001556 0.000000 0.453870 0.155261 0.000000 5.416130 0.012182 0.000000 0.400425 0.190050 0.000000 5.308979 0.025865 0.000000 0.346983 0.235762 0.000000 5.172497 0.032757 0.000000 0.297469 0.275566 0.000000 5.011463 0.033168 0.000000 0.252281 0.321126 0.000000 4.824158 0.029475 0.000000 0.208675 0.384429 0.000000 4.598943 0.028650 0.000000 0.163391 0.475323 0.000000 4.317880 0.034341 0.000000 0.109787 0.606070 0.000000 3.964554 0.052795 0.000000 0.036878 0.789153 0.000000 
3.710215 0.116159 0.000000 0.066256 1.242510 0.000000 3.216315 0.243694 0.000000 0.007979 1.729235 0.000000 2.581591 0.010402 0.000000 0.002239 -2.033752 0.000000 3.156211 0.024145 0.000000 -0.022856 -1.366070 0.000000 3.697364 0.009336 0.000000 -0.017148 -0.973284 0.000000 4.130707 -0.008254 0.000000 0.009038 -0.737515 0.000000 4.473839 -0.033765 0.000000 0.053268 -0.587618 0.000000 4.756828 -0.059087 0.000000 0.117582 -0.486499 0.000000 5.004763 -0.074479 0.000000 0.200021 -0.382329 0.000000 5.203661 -0.064970 0.000000 0.255086 -0.308515 0.000000 5.354755 -0.040702 0.000000 0.299733 -0.234160 0.000000 5.450597 -0.010265 0.000000 0.325197 -0.216066 0.000000 5.546773 0.019010 0.000000 0.350339 -0.163068 0.000000 5.580714 0.043453 0.000000 0.362604 -0.147227 0.000000 5.625592 0.051722 0.000000 0.376027 -0.114809 0.000000 5.632595 0.051915 0.000000 0.386129 -0.089331 0.000000 5.651750 0.037539 0.000000 0.397480 -0.074526 0.000000 5.660756 0.023581 0.000000 0.415036 -0.032380 0.000000 5.663592 0.002547 0.000000 0.429279 -0.017332 0.000000 5.676209 -0.011436 0.000000 0.446191 0.046981 0.000000 5.650835 -0.026746 0.000000 0.450266 0.080441 0.000000 5.640413 -0.036458 0.000000 0.451117 0.143885 0.000000 5.582470 -0.041689 0.000000 0.443229 0.190845 0.000000 5.534901 -0.038142 0.000000 0.426473 0.239832 0.000000 5.444539 -0.026006 0.000000 0.399807 0.307828 0.000000 5.342822 -0.022645 0.000000 0.359897 0.350360 0.000000 5.194086 -0.021276 0.000000 0.313154 0.384828 0.000000 5.028992 -0.022149 0.000000 0.272958 0.429968 0.000000 4.850758 -0.023239 0.000000 0.241262 0.500416 0.000000 4.644868 -0.017490 0.000000 0.212792 0.606296 0.000000 4.394547 0.002231 0.000000 0.178830 0.758876 0.000000 4.086792 0.044212 0.000000 0.132127 0.972951 0.000000 
3.922884 0.153452 0.000000 0.011075 1.493606 0.000000 3.506723 0.236641 0.000000 -0.007142 2.019670 0.000000 2.998154 0.012969 0.000000 -0.012898 -2.254066 0.000000 3.403783 0.000438 0.000000 -0.021478 -1.618235 0.000000 3.847580 -0.029780 0.000000 -0.012445 -1.188478 0.000000 4.233453 -0.048598 0.000000 0.007172 -0.910345 0.000000 4.551402 -0.079153 0.000000 0.041388 -0.730932 0.000000 4.824899 -0.117392 0.000000 0.100246 -0.616177 0.000000 5.075827 -0.147689 0.000000 0.213221 -0.492201 0.000000 5.258009 -0.118891 0.000000 0.259230 -0.383361 0.000000 5.404485 -0.096220 0.000000 0.306090 -0.271666 0.000000 5.474240 -0.059750 0.000000 0.324860 -0.247500 0.000000 5.579445 -0.042830 0.000000 0.356691 -0.145937 0.000000 5.594949 -0.018091 0.000000 0.372977 -0.142956 0.000000 5.631792 -0.013959 0.000000 0.393094 -0.077793 0.000000 5.631692 -0.014744 0.000000 0.414848 -0.078140 0.000000 5.628591 -0.021634 0.000000 0.435057 -0.054758 0.000000 5.644342 -0.033622 0.000000 0.467268 -0.030132 0.000000 5.622958 -0.035031 0.000000 0.489219 -0.026238 0.000000 5.654868 -0.038467 0.000000 0.511520 0.048503 0.000000 5.619727 -0.025458 0.000000 0.516472 0.055171 0.000000 5.625278 -0.018459 0.000000 0.509425 0.147222 0.000000 5.581457 -0.005223 0.000000 0.495301 0.163310 0.000000 5.539024 0.015201 0.000000 0.459880 0.245623 0.000000 5.478077 0.038848 0.000000 0.412583 0.291767 0.000000 5.349522 0.065774 0.000000 0.349103 0.384497 0.000000 5.207183 0.079500 0.000000 0.284285 0.440661 0.000000 5.063810 0.073365 0.000000 0.230907 0.499360 0.000000 4.912012 0.061171 0.000000 0.189095 0.590319 0.000000 4.734870 0.057120 0.000000 0.151294 0.725644 0.000000 4.517460 0.068303 0.000000 0.110273 0.913824 0.000000 4.249321 0.099498 0.000000 0.062932 1.165730 0.000000 
4.136937 0.168017 0.000000 0.092140 1.658671 0.000000 3.809916 0.261911 0.000000 0.070369 2.237804 0.000000 3.405567 0.016157 0.000000 0.064759 -2.439380 0.000000 3.689407 0.032724 0.000000 0.033088 -1.809868 0.000000 4.019814 0.000303 0.000000 0.011389 -1.359156 0.000000 4.334197 -0.027870 0.000000 -0.000459 -1.055464 0.000000 4.613505 -0.067982 0.000000 0.004298 -0.861115 0.000000 4.872884 -0.117945 0.000000 0.055149 -0.737427 0.000000 5.125760 -0.187455 0.000000 0.281106 -0.564511 0.000000 5.310443 -0.110978 0.000000 0.285230 -0.454991 0.000000 5.441286 -0.087563 0.000000 0.360091 -0.303914 0.000000 5.484099 -0.029034 0.000000 0.341967 -0.321271 0.000000 5.622369 -0.012822 0.000000 0.381604 -0.178572 0.000000 5.594313 0.027168 0.000000 0.379501 -0.184070 0.000000 5.676037 0.031605 0.000000 0.368819 -0.114709 0.000000 5.638357 0.030160 0.000000 0.394943 -0.086231 0.000000 5.677961 0.017330 0.000000 0.368330 -0.090276 0.000000 5.681318 -0.008629 0.000000 0.426179 -0.010996 0.000000 5.681824 -0.019404 0.000000 0.408555 -0.049242 0.000000 5.735524 -0.033737 0.000000 0.464105 0.082122 0.000000 5.673985 -0.031697 0.000000 0.449218 0.074890 0.000000 5.719003 -0.029412 0.000000 0.454287 0.187706 0.000000 5.619294 -0.027565 0.000000 0.458081 0.233279 0.000000 5.621615 -0.002721 0.000000 0.434321 0.300779 0.000000 5.499819 0.021291 0.000000 0.451422 0.436383 0.000000 5.418280 0.040835 0.000000 0.382931 0.492699 0.000000 5.241123 0.043542 0.000000 0.288030 0.528201 0.000000 5.093050 0.031230 0.000000 0.232462 0.581766 0.000000 4.959428 0.018573 0.000000 0.204636 0.677559 0.000000 4.809146 0.020310 0.000000 0.184466 0.823705 0.000000 4.626597 0.043251 0.000000 0.161031 1.027015 0.000000 4.404440 0.091553 0.000000 0.130491 1.299389 0.000000 
4.365497 0.191803 0.000000 0.058532 1.820627 0.000000 4.103426 0.258413 0.000000 0.058968 2.424019 0.000000 3.788838 0.018579 0.000000 0.053845 -2.537906 0.000000 3.971614 0.032110 0.000000 0.033190 -1.948641 0.000000 4.217186 -0.008082 0.000000 0.016518 -1.502861 0.000000 4.472423 -0.036750 0.000000 -0.003620 -1.189653 0.000000 4.711041 -0.083910 0.000000 -0.030972 -0.990311 0.000000 4.957305 -0.168243 0.000000 -0.059363 -0.869054 0.000000 5.259450 -0.373646 0.000000 0.405361 -0.676883 0.000000 5.360240 -0.123015 0.000000 0.257168 -0.514204 0.000000 5.514848 -0.171081 0.000000 0.392091 -0.314480 0.000000 5.479989 -0.041626 0.000000 0.346322 -0.385770 0.000000 5.675046 -0.082467 0.000000 0.372794 -0.117882 0.000000 5.610010 -0.015987 0.000000 0.431153 -0.224680 0.000000 5.674879 -0.003278 0.000000 0.335790 -0.040113 0.000000 5.668717 -0.040868 0.000000 0.462424 -0.117744 0.000000 5.631519 0.004979 0.000000 0.347756 -0.058114 0.000000 5.711551 -0.091471 0.000000 0.494304 -0.030639 0.000000 5.613975 -0.017407 0.000000 0.444216 -0.079939 0.000000 5.754893 -0.094017 0.000000 0.508346 0.110042 0.000000 5.641334 -0.010570 0.000000 0.533161 0.010154 0.000000 5.714639 -0.023528 0.000000 0.465029 0.246931 0.000000 5.655425 -0.009016 0.000000 0.545086 0.160989 0.000000 5.617058 0.038960 0.000000 0.427685 0.367420 0.000000 5.614611 0.021747 0.000000 0.487991 0.373305 0.000000 5.389198 0.134265 0.000000 0.356060 0.561654 0.000000 5.229126 0.174402 0.000000 0.246402 0.588734 0.000000 5.123825 0.128933 0.000000 0.186015 0.632982 0.000000 5.029520 0.088997 0.000000 0.156582 0.740602 0.000000 4.913966 0.077290 0.000000 0.134572 0.908193 0.000000 4.766352 0.091738 0.000000 0.110462 1.135982 0.000000 4.583975 0.130038 0.000000 0.083637 1.433234 0.000000 
4.588321 0.193122 0.000000 0.119894 1.920742 0.000000 4.395009 0.261475 0.000000 0.123624 2.552392 0.000000 4.161507 0.021280 0.000000 0.119003 -2.622155 0.000000 4.261335 0.053380 0.000000 0.094542 -2.055439 0.000000 4.415260 0.016975 0.000000 0.065386 -1.614394 0.000000 4.588715 -0.007732 0.000000 0.014500 -1.294082 0.000000 4.765596 -0.040630 0.000000 -0.096686 -1.107379 0.000000 4.999905 -0.089554 0.000000 -0.254412 -1.039572 0.000000 5.338354 -0.652178 0.000000 0.611260 -0.665301 0.000000 5.409335 0.037214 0.000000 0.074238 -0.609599 0.000000 5.572774 -0.222485 0.000000 0.513265 -0.269055 0.000000 5.452714 0.016735 0.000000 0.240624 -0.516328 0.000000 5.783749 -0.039293 0.000000 0.379026 -0.113536 0.000000 5.563387 -0.031192 0.000000 0.496255 -0.248939 0.000000 5.759654 0.126968 0.000000 0.161949 -0.108547 0.000000 5.636771 -0.096474 0.000000 0.611572 -0.049033 0.000000 5.683645 0.131998 0.000000 0.076951 -0.170308 0.000000 5.733968 -0.155177 0.000000 0.640395 0.086580 0.000000 5.641229 0.030684 0.000000 0.214420 -0.190160 0.000000 5.873837 -0.097868 0.000000 0.581461 0.195681 0.000000 5.630510 -0.056512 0.000000 0.471327 0.001586 0.000000 5.864235 0.038720 0.000000 0.358168 0.246920 0.000000 5.631809 -0.107622 0.000000 0.624209 0.271646 0.000000 5.767635 0.114680 0.000000 0.193893 0.303226 0.000000 5.629672 -0.039016 0.000000 0.785966 0.661796 0.000000 5.522176 0.172766 0.000000 0.425069 0.652772 0.000000 5.232711 0.153199 0.000000 0.186613 0.633502 0.000000 5.152898 0.091617 0.000000 0.151511 0.676071 0.000000 5.095223 0.048005 0.000000 0.155874 0.793113 0.000000 5.009220 0.042321 0.000000 0.156650 0.971319 0.000000 4.894324 0.067361 0.000000 0.148939 1.209393 0.000000 4.753622 0.118378 0.000000 0.135115 1.517866 0.000000 
4.814101 0.207024 0.000000 0.097628 2.013939 0.000000 4.674223 0.254682 0.000000 0.115129 2.657522 0.000000 4.511677 0.023200 0.000000 0.111178 -2.637735 0.000000 4.541766 0.056571 0.000000 0.099559 -2.102566 0.000000 4.629894 0.021074 0.000000 0.088146 -1.676316 0.000000 4.748098 0.014136 0.000000 0.063305 -1.366535 0.000000 4.873261 0.027275 0.000000 0.005385 -1.224620 0.000000 4.981027 -0.010517 0.000000 -0.048776 -1.207503 0.000000 5.095601 -1.239317 0.000000 -0.094281 -0.747864 0.000000 5.026597 0.414007 0.000000 -0.285963 -0.677642 0.000000 5.244858 -0.610107 0.000000 -0.158565 -0.194420 0.000000 5.217792 0.231015 0.000000 -0.066010 -0.716804 0.000000 5.393862 -0.220869 0.000000 -0.126992 0.102480 0.000000 5.391727 -0.133216 0.000000 0.222545 -0.420947 0.000000 5.369408 0.331029 0.000000 -0.128821 0.082770 0.000000 5.490213 -0.490492 0.000000 0.360897 -0.164619 0.000000 5.298127 0.539600 0.000000 -0.081905 -0.108437 0.000000 5.535308 -0.654915 0.000000 0.329103 0.062100 0.000000 5.302936 0.408568 0.000000 0.110554 -0.312546 0.000000 5.590709 -0.461058 0.000000 0.267014 0.353368 0.000000 5.409340 0.099564 0.000000 0.422951 -0.223571 0.000000 5.545605 0.089631 0.000000 0.158451 0.479356 0.000000 5.532817 -0.275057 0.000000 0.657921 0.025163 0.000000 5.460169 0.469276 0.000000 0.150319 0.505383 0.000000 5.658814 -0.570326 0.000000 1.006621 0.480802 0.000000 5.286347 0.495161 0.000000 0.333644 0.851119 0.000000 5.162992 0.412858 0.000000 0.102970 0.668547 0.000000 5.191586 0.164035 0.000000 0.096780 0.690657 0.000000 5.182156 0.084634 0.000000 0.113927 0.826605 0.000000 5.126872 0.076514 0.000000 0.118417 1.023089 0.000000 5.042073 0.099450 0.000000 0.112604 1.276684 0.000000 4.936503 0.143862 0.000000 0.103150 1.598534 0.000000 
5.030349 0.198644 0.000000 0.146176 2.060620 0.000000 4.945885 0.243974 0.000000 0.167889 2.714938 0.000000 4.850198 0.025232 0.000000 0.164562 -2.652244 0.000000 4.822372 0.064998 0.000000 0.159503 -2.143567 0.000000 4.842407 0.028388 0.000000 0.168487 -1.732599 0.000000 4.874052 0.017108 0.000000 0.209824 -1.419245 0.000000 4.842148 0.017290 0.000000 0.289867 -1.215145 0.000000 4.564245 -0.035392 0.000000 0.309374 -1.154147 0.000000 3.755135 -0.606674 0.000000 -1.833095 -0.596297 0.000000 3.942579 0.228896 0.000000 -0.956023 -0.827860 0.000000 3.501297 -0.349883 0.000000 -1.862163 -0.241988 0.000000 4.060282 -0.075820 0.000000 -1.478368 -0.692398 0.000000 3.351289 0.021688 0.000000 -1.577974 -0.111401 0.000000 3.929219 -0.380729 0.000000 -1.885278 -0.226620 0.000000 3.744875 0.478333 0.000000 -1.052965 -0.229352 0.000000 3.925416 -0.586191 0.000000 -1.889087 0.143053 0.000000 4.120964 0.574800 0.000000 -0.828141 -0.407489 0.000000 3.815876 -0.566185 0.000000 -1.770901 0.318952 0.000000 4.182954 0.249233 0.000000 -1.125844 -0.477933 0.000000 3.534491 -0.254327 0.000000 -1.597832 0.377051 0.000000 4.040072 -0.212449 0.000000 -1.578017 -0.134680 0.000000 3.623001 0.303220 0.000000 -1.129078 0.259708 0.000000 3.997451 -0.607093 0.000000 -1.670614 0.344294 0.000000 3.955165 0.622283 0.000000 -0.748675 0.104581 0.000000 4.113050 -0.895319 0.000000 -1.637338 1.034262 0.000000 4.603907 0.845744 0.000000 -0.688834 0.776127 0.000000 5.147167 0.383873 0.000000 -0.126749 0.604907 0.000000 5.285548 0.097806 0.000000 0.058309 0.685501 0.000000 5.280959 0.030858 0.000000 0.118658 0.848397 0.000000 5.236951 0.037831 0.000000 0.139118 1.056118 0.000000 5.177011 0.073174 0.000000 0.144425 1.314963 0.000000 5.107191 0.127832 0.000000 0.144264 1.640269 0.000000 
5.244048 0.205112 0.000000 0.130533 2.098402 0.000000 5.204307 0.232969 0.000000 0.159116 2.753210 0.000000 5.167414 0.026528 0.000000 0.156497 -2.609909 0.000000 5.085558 0.061630 0.000000 0.156130 -2.122601 0.000000 5.048264 0.012089 0.000000 0.172805 -1.707961 0.000000 5.017121 -0.027201 0.000000 0.231476 -1.334631 0.000000 4.914017 -0.052768 0.000000 0.346481 -0.946717 0.000000 4.595468 -0.030024 0.000000 0.388375 -0.398393 0.000000 3.998802 0.903152 0.000000 -1.298771 -0.935309 0.000000 3.895519 -0.463065 0.000000 -0.676239 -0.236360 0.000000 3.517585 0.296032 0.000000 -1.554577 -0.753405 0.000000 3.924752 -0.152780 0.000000 -1.348685 -0.007811 0.000000 3.196805 -0.121263 0.000000 -1.474097 -0.475450 0.000000 3.744252 0.174088 0.000000 -1.965171 -0.236603 0.000000 3.516907 -0.501285 0.000000 -1.041400 -0.097771 0.000000 3.672150 0.345630 0.000000 -2.140112 -0.360166 0.000000 3.919268 -0.521346 0.000000 -0.879237 0.196650 0.000000 3.480889 0.287845 0.000000 -2.110349 -0.304978 0.000000 3.991386 -0.236489 0.000000 -1.339574 0.335917 0.000000 3.099430 0.010931 0.000000 -1.978488 -0.152212 0.000000 3.772431 0.079749 0.000000 -2.068513 0.193500 0.000000 3.192846 -0.359308 0.000000 -1.476426 0.104906 0.000000 3.601627 0.266479 0.000000 -2.448275 0.067449 0.000000 3.623812 -0.452663 0.000000 -1.097379 0.347498 0.000000 3.573070 0.318337 0.000000 -2.786219 -0.010055 0.000000 4.579898 -0.453343 0.000000 -1.107255 0.307859 0.000000 5.293752 -0.149227 0.000000 -0.224162 0.530166 0.000000 5.413233 -0.021023 0.000000 0.029819 0.695245 0.000000 5.396651 0.024285 0.000000 0.097523 0.870614 0.000000 5.362063 0.056054 0.000000 0.115964 1.083029 0.000000 5.324015 0.094142 0.000000 0.120393 1.346503 0.000000 5.284010 0.144023 0.000000 0.122532 1.675377 0.000000 
5.445691 0.190643 0.000000 0.168966 2.100362 0.000000 5.452763 0.215390 0.000000 0.197832 2.751831 0.000000 5.472154 0.027851 0.000000 0.195850 -2.570389 0.000000 5.350869 0.065365 0.000000 0.186111 -2.106273 0.000000 5.274938 0.011713 0.000000 0.172699 -1.701456 0.000000 5.228264 -0.041562 0.000000 0.153364 -1.316141 0.000000 5.193421 -0.097715 0.000000 0.116965 -0.896596 0.000000 5.196351 -0.077287 0.000000 0.068264 -0.557480 0.000000 5.452985 1.080472 0.000000 0.585135 -0.493014 0.000000 5.173232 -0.393636 0.000000 0.149787 -0.449926 0.000000 5.389263 0.528455 0.000000 0.291835 -0.649155 0.000000 5.192179 -0.281712 0.000000 0.181816 0.035549 0.000000 5.354589 0.147100 0.000000 0.044525 -0.658848 0.000000 5.304667 0.110346 0.000000 0.217796 0.000725 0.000000 5.218440 -0.445437 0.000000 -0.122482 -0.384595 0.000000 5.358454 0.512520 0.000000 0.128466 -0.104065 0.000000 5.143548 -0.686075 0.000000 -0.172280 0.030890 0.000000 5.340212 0.664927 0.000000 -0.071746 -0.191545 0.000000 5.163968 -0.521542 0.000000 -0.143350 0.414023 0.000000 5.281063 0.384586 0.000000 -0.254439 -0.295951 0.000000 5.248694 -0.122423 0.000000 -0.096952 0.444905 0.000000 5.193204 -0.288868 0.000000 -0.350916 -0.149073 0.000000 5.313933 0.364757 0.000000 -0.137896 0.322109 0.000000 5.156616 -0.728613 0.000000 -0.303706 0.155323 0.000000 5.329592 0.793520 0.000000 -0.141066 0.027434 0.000000 5.188928 -0.833220 0.000000 -0.258858 0.062274 0.000000 5.346051 -0.499220 0.000000 -0.080543 0.485426 0.000000 5.433817 -0.156174 0.000000 0.045550 0.702083 0.000000 5.458210 -0.036846 0.000000 0.106245 0.882986 0.000000 5.458303 0.019390 0.000000 0.133503 1.094166 0.000000 5.451597 0.068745 0.000000 0.146708 1.354968 0.000000 5.445791 0.125692 0.000000 0.155983 1.680230 0.000000 
5.642277 0.192129 0.000000 0.156317 2.091330 0.000000 5.687785 0.204104 0.000000 0.187179 2.733819 0.000000 5.756580 0.028509 0.000000 0.185932 -2.488625 0.000000 5.598929 0.071370 0.000000 0.176765 -2.046669 0.000000 5.489844 0.025501 0.000000 0.156686 -1.661287 0.000000 5.424238 -0.007867 0.000000 0.108014 -1.299788 0.000000 5.410564 -0.016368 0.000000 -0.014243 -0.949647 0.000000 5.521743 0.018678 0.000000 -0.190823 -0.655027 0.000000 5.736853 0.386281 0.000000 0.681682 -0.655556 0.000000 5.794562 -0.027718 0.000000 0.206054 -0.452390 0.000000 5.853364 0.153984 0.000000 0.639685 -0.556322 0.000000 5.680963 -0.042761 0.000000 0.348335 -0.170221 0.000000 5.977678 0.016028 0.000000 0.470173 -0.425529 0.000000 5.706147 0.000817 0.000000 0.594875 -0.150376 0.000000 5.877636 -0.161007 0.000000 0.194832 -0.237785 0.000000 5.742686 0.094682 0.000000 0.698219 -0.145261 0.000000 5.744380 -0.220600 0.000000 0.070823 -0.000014 0.000000 5.829767 0.187311 0.000000 0.687009 -0.128734 0.000000 5.688958 -0.164885 0.000000 0.209713 0.218822 0.000000 5.975980 0.122020 0.000000 0.567516 -0.119844 0.000000 5.712875 -0.077739 0.000000 0.498371 0.248991 0.000000 5.969917 -0.105344 0.000000 0.274544 -0.015823 0.000000 5.782038 0.053459 0.000000 0.682047 0.224766 0.000000 5.892076 -0.286853 0.000000 0.092070 0.174522 0.000000 5.863004 0.155698 0.000000 0.938218 0.130608 0.000000 5.690365 -0.335552 0.000000 0.333325 0.150737 0.000000 5.497093 -0.327541 0.000000 0.077730 0.442400 0.000000 5.519867 -0.147116 0.000000 0.075384 0.670852 0.000000 5.553668 -0.036411 0.000000 0.103232 0.870521 0.000000 5.573035 0.028796 0.000000 0.120779 1.089734 0.000000 5.589109 0.080936 0.000000 0.131013 1.352310 0.000000 5.610282 0.134748 0.000000 0.140660 1.675477 0.000000 