# vtk DataFile Version 2.0
Comment goes here
ASCII

DATASET STRUCTURED_POINTS
FIELD FieldData 1
TIME 1 1 double
0.06000000
DIMENSIONS    64   64   1

ORIGIN    0.000   0.000   0.000
SPACING   0.03125 0.03125   1.000

POINT_DATA   4096
VECTORS u double

0.694378 0.028671 0.000000 -1.657780 -0.009788 0.000000 0.451449 0.010148 0.000000 -1.484272 -0.005066 0.000000 0.113821 -0.005661 0.000000 -1.312374 -0.003127 0.000000 0.146443 0.007049 0.000000 -1.093790 -0.002687 0.000000 0.091852 0.004037 0.000000 -0.917347 -0.003077 0.000000 0.024398 0.002189 0.000000 -0.790833 -0.003486 0.000000 -0.018301 0.001027 0.000000 -0.717821 -0.003844 0.000000 -0.025164 0.000599 0.000000 -0.682848 -0.003947 0.000000 -0.019025 0.000739 0.000000 -0.650399 -0.003468 0.000000 -0.030724 0.000504 0.000000 -0.593821 -0.001439 0.000000 -0.082301 0.002775 0.000000 -0.493884 0.000670 0.000000 -0.191616 0.004336 0.000000 -0.334733 -0.000438 0.000000 -0.360644 0.004197 0.000000 -0.128468 0.000663 0.000000 -0.563498 0.004139 0.000000 0.096327 0.002726 0.000000 -0.772054 0.004569 0.000000 0.312755 0.003223 0.000000 -0.965223 0.003957 0.000000 0.512671 0.002564 0.000000 -1.143099 0.003319 0.000000 0.695406 0.002871 0.000000 -1.299378 0.002923 0.000000 0.848382 0.004190 0.000000 -1.418153 0.001953 0.000000 0.948451 0.003772 0.000000 -1.470156 0.002625 0.000000 0.969611 0.004848 0.000000 -1.434477 0.001494 0.000000 0.885576 0.006274 0.000000 -1.301427 0.002353 0.000000 0.712472 0.006679 0.000000 -1.106149 0.004034 0.000000 0.498480 0.006562 0.000000 -0.893026 0.005106 0.000000 0.269952 0.007288 0.000000 -0.671677 0.005588 0.000000 0.022440 0.007066 0.000000 -0.433205 0.004223 0.000000 -0.251971 0.006208 0.000000 -0.174546 0.002773 0.000000 -0.546486 0.004438 0.000000 0.085164 0.001503 0.000000 -0.831821 0.002689 0.000000 0.304952 0.000875 0.000000 -1.066378 0.001169 0.000000 0.458665 0.000687 0.000000 -1.248894 -0.000147 0.000000 0.558555 0.001445 0.000000 -1.403620 -0.002188 0.000000 0.622437 0.004259 0.000000 -1.544630 -0.008158 0.000000 
-0.424430 0.087579 0.000000 0.411178 0.112000 0.000000 -0.226240 -0.083584 0.000000 0.331392 0.163876 0.000000 0.087052 -0.073108 0.000000 0.251126 -0.021470 0.000000 -0.132764 -0.107925 0.000000 0.114274 0.022576 0.000000 -0.223565 -0.085322 0.000000 0.021113 0.029930 0.000000 -0.271927 -0.060140 0.000000 -0.037625 0.018731 0.000000 -0.315747 -0.033784 0.000000 -0.064994 0.001819 0.000000 -0.369540 -0.015509 0.000000 -0.071452 -0.004025 0.000000 -0.424462 -0.015480 0.000000 -0.077784 0.005282 0.000000 -0.463648 -0.027926 0.000000 -0.097830 0.024117 0.000000 -0.473545 -0.050653 0.000000 -0.142095 0.050215 0.000000 -0.444962 -0.080667 0.000000 -0.217494 0.080874 0.000000 -0.379982 -0.103871 0.000000 -0.320802 0.097095 0.000000 -0.290255 -0.113314 0.000000 -0.437749 0.098708 0.000000 -0.191828 -0.109921 0.000000 -0.553427 0.091064 0.000000 -0.096779 -0.101205 0.000000 -0.662870 0.084258 0.000000 -0.009246 -0.093114 0.000000 -0.765694 0.074049 0.000000 0.070435 -0.079035 0.000000 -0.857294 0.055412 0.000000 0.138295 -0.052654 0.000000 -0.926959 0.022750 0.000000 0.174480 -0.015243 0.000000 -0.953886 -0.019231 0.000000 0.170404 0.036337 0.000000 -0.927329 -0.067184 0.000000 0.118606 0.079418 0.000000 -0.854541 -0.099131 0.000000 0.042376 0.099721 0.000000 -0.760424 -0.108763 0.000000 -0.037788 0.106719 0.000000 -0.659619 -0.114064 0.000000 -0.113664 0.117014 0.000000 -0.547753 -0.123119 0.000000 -0.194986 0.132364 0.000000 -0.418100 -0.132760 0.000000 -0.285525 0.144144 0.000000 -0.272904 -0.132013 0.000000 -0.376096 0.140865 0.000000 -0.128192 -0.110826 0.000000 -0.443115 0.116126 0.000000 -0.009310 -0.076823 0.000000 -0.468616 0.090467 0.000000 0.083725 -0.049567 0.000000 -0.458806 0.077067 0.000000 0.165760 -0.032034 0.000000 -0.419644 0.071654 0.000000 0.248101 -0.041195 0.000000 
1.433765 -0.134405 0.000000 0.695600 -0.207978 0.000000 1.182092 0.089934 0.000000 0.603028 -0.318358 0.000000 0.915495 0.074604 0.000000 0.491582 0.216689 0.000000 1.530072 0.143902 0.000000 0.441844 0.088114 0.000000 1.936086 0.097198 0.000000 0.351715 0.045285 0.000000 2.226136 0.060927 0.000000 0.275624 0.040334 0.000000 2.430141 0.028396 0.000000 0.237143 0.049948 0.000000 2.568608 0.007057 0.000000 0.231445 0.050976 0.000000 2.672435 0.007071 0.000000 0.232202 0.035719 0.000000 2.767432 0.020550 0.000000 0.219299 0.008458 0.000000 2.869471 0.047040 0.000000 0.174618 -0.027914 0.000000 2.987828 0.079735 0.000000 0.084606 -0.065417 0.000000 3.137550 0.107505 0.000000 -0.033063 -0.089063 0.000000 3.298958 0.121086 0.000000 -0.161868 -0.095701 0.000000 3.456172 0.120247 0.000000 -0.286851 -0.091827 0.000000 3.596242 0.113400 0.000000 -0.395584 -0.084969 0.000000 3.727286 0.106143 0.000000 -0.493347 -0.076811 0.000000 3.844194 0.094524 0.000000 -0.575329 -0.063670 0.000000 3.937345 0.071618 0.000000 -0.627672 -0.032413 0.000000 3.985726 0.029552 0.000000 -0.636429 0.008925 0.000000 3.971043 -0.025063 0.000000 -0.580161 0.058071 0.000000 3.885262 -0.070435 0.000000 -0.475127 0.082909 0.000000 3.748078 -0.090083 0.000000 -0.355822 0.086726 0.000000 3.594827 -0.095698 0.000000 -0.242970 0.083164 0.000000 3.425481 -0.106278 0.000000 -0.126457 0.088388 0.000000 3.231694 -0.125430 0.000000 0.004388 0.096747 0.000000 3.003508 -0.142423 0.000000 0.151965 0.095009 0.000000 2.752281 -0.143208 0.000000 0.297696 0.069708 0.000000 2.506847 -0.118007 0.000000 0.409919 0.026670 0.000000 2.282656 -0.092348 0.000000 0.486417 -0.009957 0.000000 2.058033 -0.080590 0.000000 0.554056 -0.041349 0.000000 1.794887 -0.078083 0.000000 0.632567 -0.003372 0.000000 
3.447845 0.024545 0.000000 -0.075929 0.363673 0.000000 2.583509 0.008988 0.000000 -0.211569 0.430474 0.000000 1.281779 0.038338 0.000000 -0.142900 -0.636047 0.000000 2.810385 -0.058187 0.000000 -0.044684 -0.383438 0.000000 3.615952 0.004806 0.000000 0.012250 -0.260120 0.000000 4.149012 0.015951 0.000000 0.055019 -0.185274 0.000000 4.551367 0.004697 0.000000 0.089919 -0.136648 0.000000 4.882555 -0.009811 0.000000 0.120903 -0.107851 0.000000 5.162856 -0.016237 0.000000 0.155379 -0.089715 0.000000 5.387628 -0.015022 0.000000 0.192218 -0.077923 0.000000 5.560076 -0.005973 0.000000 0.233066 -0.068142 0.000000 5.677702 0.009345 0.000000 0.280433 -0.068847 0.000000 5.756822 0.013799 0.000000 0.330506 -0.064314 0.000000 5.798746 0.015491 0.000000 0.377593 -0.058505 0.000000 5.824293 0.015062 0.000000 0.417473 -0.049006 0.000000 5.837471 0.007529 0.000000 0.452348 -0.046786 0.000000 5.841479 0.004648 0.000000 0.488421 -0.042859 0.000000 5.839560 0.002948 0.000000 0.525477 -0.037739 0.000000 5.824915 -0.000311 0.000000 0.559321 -0.025631 0.000000 5.814528 -0.006487 0.000000 0.576644 -0.004548 0.000000 5.799596 -0.019932 0.000000 0.570157 0.018598 0.000000 5.793131 -0.025616 0.000000 0.542629 0.038053 0.000000 5.771090 -0.019584 0.000000 0.509508 0.044488 0.000000 5.723738 -0.006134 0.000000 0.475420 0.055282 0.000000 5.645111 0.000501 0.000000 0.435128 0.070668 0.000000 5.534465 0.001520 0.000000 0.385886 0.095427 0.000000 5.402691 -0.003434 0.000000 0.329318 0.119213 0.000000 5.247580 -0.004866 0.000000 0.273307 0.134609 0.000000 5.050373 0.003902 0.000000 0.232739 0.147367 0.000000 4.787939 0.013969 0.000000 0.202543 0.175056 0.000000 4.445933 0.009428 0.000000 0.166043 0.231112 0.000000 3.996227 -0.006858 0.000000 0.103527 0.319926 0.000000 
3.537137 0.045051 0.000000 0.101088 0.656358 0.000000 2.833640 0.225574 0.000000 -0.091370 0.983372 0.000000 1.791889 0.005935 0.000000 -0.061428 -1.311918 0.000000 2.950421 0.045686 0.000000 -0.080323 -0.717453 0.000000 3.705762 0.040265 0.000000 -0.037970 -0.487775 0.000000 4.234683 0.018158 0.000000 0.013876 -0.362020 0.000000 4.634706 -0.006503 0.000000 0.068454 -0.281240 0.000000 4.956200 -0.023927 0.000000 0.125915 -0.229326 0.000000 5.225108 -0.027405 0.000000 0.185936 -0.189053 0.000000 5.441787 -0.016289 0.000000 0.239151 -0.163989 0.000000 5.608420 0.006192 0.000000 0.286859 -0.145540 0.000000 5.728613 0.032368 0.000000 0.331266 -0.144538 0.000000 5.821390 0.057432 0.000000 0.365382 -0.130987 0.000000 5.876228 0.073999 0.000000 0.390406 -0.121248 0.000000 5.919298 0.080367 0.000000 0.410057 -0.105004 0.000000 5.942324 0.078526 0.000000 0.423989 -0.088977 0.000000 5.957821 0.070069 0.000000 0.437732 -0.074891 0.000000 5.964565 0.057468 0.000000 0.455467 -0.049025 0.000000 5.961177 0.037774 0.000000 0.473646 -0.022027 0.000000 5.955871 0.012229 0.000000 0.489712 0.023857 0.000000 5.934284 -0.018576 0.000000 0.493614 0.064537 0.000000 5.910606 -0.042907 0.000000 0.487453 0.104950 0.000000 5.861492 -0.056961 0.000000 0.476995 0.134078 0.000000 5.794789 -0.061610 0.000000 0.462666 0.161790 0.000000 5.698084 -0.065986 0.000000 0.441680 0.199035 0.000000 5.577745 -0.076188 0.000000 0.411593 0.228520 0.000000 5.426037 -0.085855 0.000000 0.374408 0.250121 0.000000 5.248901 -0.087197 0.000000 0.336306 0.266915 0.000000 5.038733 -0.077439 0.000000 0.306422 0.289104 0.000000 4.778340 -0.062152 0.000000 0.283785 0.332050 0.000000 4.451723 -0.044090 0.000000 0.249584 0.408356 0.000000 4.044471 -0.015567 0.000000 0.177456 0.545010 0.000000 
3.724979 0.100913 0.000000 -0.030720 1.067170 0.000000 3.087553 0.201446 0.000000 -0.082871 1.472225 0.000000 2.260987 0.008396 0.000000 -0.088774 -1.794579 0.000000 3.090021 -0.039292 0.000000 -0.060244 -1.138779 0.000000 3.795183 -0.037546 0.000000 -0.018221 -0.789042 0.000000 4.310292 -0.035896 0.000000 0.022328 -0.585296 0.000000 4.701611 -0.049880 0.000000 0.065975 -0.458142 0.000000 5.018461 -0.067272 0.000000 0.116697 -0.376759 0.000000 5.285824 -0.076258 0.000000 0.176597 -0.306393 0.000000 5.498074 -0.068237 0.000000 0.230138 -0.244556 0.000000 5.658671 -0.053682 0.000000 0.278629 -0.188335 0.000000 5.764781 -0.035063 0.000000 0.321556 -0.161624 0.000000 5.852035 -0.020317 0.000000 0.363399 -0.119151 0.000000 5.894493 -0.009533 0.000000 0.397743 -0.101575 0.000000 5.925541 -0.004589 0.000000 0.430183 -0.072032 0.000000 5.935586 -0.006403 0.000000 0.457954 -0.062283 0.000000 5.935734 -0.009095 0.000000 0.488202 -0.049603 0.000000 5.935374 -0.014787 0.000000 0.519304 -0.034351 0.000000 5.920833 -0.018490 0.000000 0.549559 -0.020326 0.000000 5.919240 -0.022553 0.000000 0.571129 0.017039 0.000000 5.898289 -0.023834 0.000000 0.577265 0.042276 0.000000 5.883812 -0.019455 0.000000 0.567981 0.087167 0.000000 5.845727 -0.009126 0.000000 0.545488 0.111190 0.000000 5.790761 0.008195 0.000000 0.511617 0.151988 0.000000 5.711873 0.021487 0.000000 0.464845 0.191007 0.000000 5.592834 0.031607 0.000000 0.410262 0.247135 0.000000 5.452179 0.033751 0.000000 0.351137 0.296348 0.000000 5.291749 0.033236 0.000000 0.293270 0.344778 0.000000 5.101317 0.033787 0.000000 0.242420 0.407760 0.000000 4.864473 0.036605 0.000000 0.195112 0.501674 0.000000 4.565311 0.043630 0.000000 0.139996 0.638365 0.000000 4.187411 0.065271 0.000000 0.064363 0.827260 0.000000 
3.904684 0.140133 0.000000 0.089990 1.293784 0.000000 3.395394 0.277725 0.000000 0.024271 1.809938 0.000000 2.731782 0.011838 0.000000 0.017927 -2.140952 0.000000 3.327991 0.017156 0.000000 -0.018778 -1.422616 0.000000 3.899127 -0.001758 0.000000 -0.017397 -1.002884 0.000000 4.359196 -0.022392 0.000000 0.006773 -0.753339 0.000000 4.725046 -0.050150 0.000000 0.049739 -0.598090 0.000000 5.027040 -0.074650 0.000000 0.114964 -0.496688 0.000000 5.287163 -0.087304 0.000000 0.203568 -0.401303 0.000000 5.502999 -0.069830 0.000000 0.265048 -0.324586 0.000000 5.655926 -0.042300 0.000000 0.317366 -0.251650 0.000000 5.757246 -0.010559 0.000000 0.348649 -0.231792 0.000000 5.856188 0.015590 0.000000 0.382981 -0.173445 0.000000 5.895627 0.039654 0.000000 0.397192 -0.152296 0.000000 5.945349 0.047927 0.000000 0.412310 -0.115050 0.000000 5.953512 0.050754 0.000000 0.420939 -0.089125 0.000000 5.974418 0.039821 0.000000 0.431791 -0.074532 0.000000 5.979252 0.026367 0.000000 0.450723 -0.034484 0.000000 5.982124 0.007519 0.000000 0.466125 -0.020433 0.000000 5.989939 -0.009341 0.000000 0.487984 0.044808 0.000000 5.966227 -0.024713 0.000000 0.492493 0.079014 0.000000 5.954937 -0.033623 0.000000 0.496269 0.143035 0.000000 5.893970 -0.034468 0.000000 0.489048 0.189043 0.000000 5.840536 -0.027739 0.000000 0.477321 0.240679 0.000000 5.738559 -0.019215 0.000000 0.454584 0.318074 0.000000 5.630950 -0.021605 0.000000 0.416518 0.369175 0.000000 5.476028 -0.026730 0.000000 0.365960 0.410551 0.000000 5.303667 -0.029330 0.000000 0.319249 0.457348 0.000000 5.116340 -0.026589 0.000000 0.283741 0.525948 0.000000 4.897950 -0.014844 0.000000 0.253580 0.631211 0.000000 4.632570 0.011026 0.000000 0.216938 0.786256 0.000000 4.306695 0.060066 0.000000 0.166203 1.007442 0.000000 
4.142335 0.177127 0.000000 0.032303 1.576461 0.000000 3.705385 0.267164 0.000000 0.014443 2.135837 0.000000 3.166091 0.014741 0.000000 0.008117 -2.390787 0.000000 3.590105 -0.002587 0.000000 -0.010239 -1.709915 0.000000 4.061318 -0.038927 0.000000 -0.007821 -1.249110 0.000000 4.474244 -0.060066 0.000000 0.006276 -0.951146 0.000000 4.815836 -0.092845 0.000000 0.035683 -0.760136 0.000000 5.109958 -0.132497 0.000000 0.094777 -0.636883 0.000000 5.369143 -0.164861 0.000000 0.219989 -0.522229 0.000000 5.573022 -0.129717 0.000000 0.272337 -0.397484 0.000000 5.714278 -0.106000 0.000000 0.327045 -0.289655 0.000000 5.786655 -0.066347 0.000000 0.349296 -0.260566 0.000000 5.894531 -0.054649 0.000000 0.393483 -0.158590 0.000000 5.912827 -0.023744 0.000000 0.409844 -0.151298 0.000000 5.956200 -0.019708 0.000000 0.432347 -0.080195 0.000000 5.955946 -0.015032 0.000000 0.450548 -0.083189 0.000000 5.956014 -0.019947 0.000000 0.468224 -0.054437 0.000000 5.967708 -0.033719 0.000000 0.502571 -0.037223 0.000000 5.946197 -0.033892 0.000000 0.523865 -0.028141 0.000000 5.976434 -0.044413 0.000000 0.554982 0.040752 0.000000 5.941125 -0.028343 0.000000 0.561595 0.053566 0.000000 5.948322 -0.023231 0.000000 0.560692 0.148134 0.000000 5.899878 -0.001905 0.000000 0.548098 0.164624 0.000000 5.852344 0.019922 0.000000 0.515468 0.253965 0.000000 5.782228 0.044225 0.000000 0.472278 0.298616 0.000000 5.643277 0.069673 0.000000 0.406005 0.402056 0.000000 5.494821 0.084309 0.000000 0.334211 0.468710 0.000000 5.346883 0.079947 0.000000 0.271673 0.532105 0.000000 5.189771 0.069295 0.000000 0.223310 0.626150 0.000000 5.004230 0.066766 0.000000 0.182068 0.767053 0.000000 4.774441 0.080272 0.000000 0.138718 0.964239 0.000000 4.489576 0.116005 0.000000 0.088693 1.229271 0.000000 
4.366735 0.196524 0.000000 0.117431 1.730735 0.000000 4.026029 0.295584 0.000000 0.095944 2.349232 0.000000 3.598982 0.018164 0.000000 0.089747 -2.564966 0.000000 3.889827 0.035511 0.000000 0.047744 -1.893828 0.000000 4.235118 -0.004176 0.000000 0.016683 -1.415809 0.000000 4.569245 -0.036488 0.000000 -0.003331 -1.094931 0.000000 4.869056 -0.079557 0.000000 -0.006191 -0.892213 0.000000 5.148990 -0.133744 0.000000 0.044539 -0.755873 0.000000 5.403303 -0.212516 0.000000 0.297000 -0.605182 0.000000 5.623201 -0.122178 0.000000 0.301835 -0.465842 0.000000 5.738552 -0.097008 0.000000 0.383045 -0.324027 0.000000 5.793802 -0.032811 0.000000 0.359619 -0.339668 0.000000 5.932377 -0.028597 0.000000 0.423063 -0.191741 0.000000 5.910611 0.023293 0.000000 0.412969 -0.195669 0.000000 6.001478 0.025424 0.000000 0.413650 -0.114796 0.000000 5.955221 0.032553 0.000000 0.429262 -0.089193 0.000000 6.005852 0.022145 0.000000 0.403077 -0.086226 0.000000 5.993410 -0.007981 0.000000 0.460044 -0.012973 0.000000 6.005341 -0.013774 0.000000 0.437876 -0.050670 0.000000 6.046053 -0.040459 0.000000 0.508419 0.080116 0.000000 5.994435 -0.031325 0.000000 0.486907 0.071817 0.000000 6.038145 -0.032720 0.000000 0.508481 0.191479 0.000000 5.931506 -0.021874 0.000000 0.500676 0.236577 0.000000 5.935177 0.004891 0.000000 0.490394 0.310795 0.000000 5.793424 0.023975 0.000000 0.503797 0.457024 0.000000 5.717091 0.044669 0.000000 0.442719 0.517632 0.000000 5.532268 0.045063 0.000000 0.339802 0.558488 0.000000 5.372382 0.033208 0.000000 0.274710 0.614460 0.000000 5.230630 0.021774 0.000000 0.242056 0.711489 0.000000 5.072670 0.026398 0.000000 0.219642 0.861000 0.000000 4.880887 0.054376 0.000000 0.193999 1.071121 0.000000 4.647391 0.110091 0.000000 0.160267 1.354683 0.000000 
4.614256 0.219964 0.000000 0.082851 1.917166 0.000000 4.336471 0.288651 0.000000 0.087997 2.562884 0.000000 3.998719 0.020938 0.000000 0.082321 -2.681633 0.000000 4.188174 0.039415 0.000000 0.053849 -2.055206 0.000000 4.446639 -0.007865 0.000000 0.028513 -1.583237 0.000000 4.719540 -0.040053 0.000000 -0.002117 -1.250958 0.000000 4.976990 -0.089985 0.000000 -0.047282 -1.040070 0.000000 5.248092 -0.183227 0.000000 -0.092013 -0.891196 0.000000 5.545983 -0.417323 0.000000 0.445854 -0.742127 0.000000 5.696245 -0.134553 0.000000 0.269587 -0.512835 0.000000 5.817337 -0.187209 0.000000 0.424292 -0.344905 0.000000 5.790213 -0.042921 0.000000 0.352769 -0.399141 0.000000 5.997581 -0.118092 0.000000 0.423164 -0.136823 0.000000 5.923909 -0.013650 0.000000 0.468386 -0.242165 0.000000 6.011197 -0.020389 0.000000 0.379980 -0.033938 0.000000 5.986445 -0.030644 0.000000 0.505126 -0.133820 0.000000 5.965652 0.006238 0.000000 0.370731 -0.041994 0.000000 6.029514 -0.090687 0.000000 0.537716 -0.049154 0.000000 5.937648 -0.011723 0.000000 0.460090 -0.068853 0.000000 6.079349 -0.114956 0.000000 0.559690 0.092370 0.000000 5.959793 -0.006830 0.000000 0.572565 0.009856 0.000000 6.048320 -0.044805 0.000000 0.521674 0.254773 0.000000 5.972209 0.005900 0.000000 0.599691 0.160953 0.000000 5.940561 0.030204 0.000000 0.477200 0.395718 0.000000 5.925894 0.030823 0.000000 0.555666 0.374949 0.000000 5.689771 0.130750 0.000000 0.411299 0.586879 0.000000 5.520625 0.187227 0.000000 0.292251 0.628595 0.000000 5.408922 0.145039 0.000000 0.221247 0.673858 0.000000 5.311440 0.101948 0.000000 0.186593 0.784109 0.000000 5.191995 0.089180 0.000000 0.162440 0.958836 0.000000 5.037496 0.105914 0.000000 0.137004 1.197736 0.000000 4.845137 0.149737 0.000000 0.108819 1.509927 0.000000 
4.847969 0.222493 0.000000 0.147489 2.008520 0.000000 4.644786 0.290438 0.000000 0.156407 2.686984 0.000000 4.394723 0.023839 0.000000 0.151293 -2.754421 0.000000 4.493849 0.063983 0.000000 0.121344 -2.152294 0.000000 4.651249 0.021161 0.000000 0.085162 -1.688710 0.000000 4.833562 -0.005858 0.000000 0.023320 -1.352381 0.000000 5.024408 -0.034393 0.000000 -0.112708 -1.163314 0.000000 5.283290 -0.089013 0.000000 -0.289870 -1.053765 0.000000 5.605806 -0.750383 0.000000 0.651190 -0.755444 0.000000 5.756457 0.054089 0.000000 0.066466 -0.586934 0.000000 5.845838 -0.251713 0.000000 0.545061 -0.296903 0.000000 5.763761 0.038712 0.000000 0.205300 -0.547036 0.000000 6.096155 -0.098992 0.000000 0.457505 -0.118070 0.000000 5.867042 -0.021929 0.000000 0.511787 -0.282956 0.000000 6.111972 0.113830 0.000000 0.222671 -0.090044 0.000000 5.929114 -0.092592 0.000000 0.648984 -0.068401 0.000000 6.039086 0.156541 0.000000 0.095241 -0.150088 0.000000 6.021981 -0.174966 0.000000 0.689787 0.078894 0.000000 5.983162 0.063852 0.000000 0.201227 -0.192371 0.000000 6.171926 -0.140060 0.000000 0.660986 0.199672 0.000000 5.951725 -0.044200 0.000000 0.477042 -0.016710 0.000000 6.203388 0.018172 0.000000 0.447107 0.267590 0.000000 5.927891 -0.099892 0.000000 0.642792 0.268225 0.000000 6.113965 0.127382 0.000000 0.253753 0.325463 0.000000 5.905046 -0.054491 0.000000 0.841687 0.693147 0.000000 5.847541 0.189035 0.000000 0.510686 0.686777 0.000000 5.527525 0.164112 0.000000 0.229976 0.670192 0.000000 5.432584 0.104212 0.000000 0.181670 0.711942 0.000000 5.373772 0.056427 0.000000 0.185233 0.830934 0.000000 5.285962 0.050552 0.000000 0.186375 1.015500 0.000000 5.166850 0.079811 0.000000 0.178181 1.263480 0.000000 5.020252 0.138276 0.000000 0.163203 1.585564 0.000000 
5.089129 0.235678 0.000000 0.124985 2.120349 0.000000 4.938399 0.279732 0.000000 0.149886 2.812947 0.000000 4.760022 0.026053 0.000000 0.145495 -2.780759 0.000000 4.789692 0.069364 0.000000 0.131166 -2.212605 0.000000 4.881151 0.028317 0.000000 0.117786 -1.765551 0.000000 5.007437 0.021789 0.000000 0.093129 -1.441804 0.000000 5.141904 0.046043 0.000000 0.038742 -1.298952 0.000000 5.247871 -0.006065 0.000000 -0.022230 -1.213712 0.000000 5.364679 -1.358383 0.000000 -0.134758 -0.892777 0.000000 5.273374 0.450171 0.000000 -0.347899 -0.602216 0.000000 5.511174 -0.665804 0.000000 -0.201330 -0.262828 0.000000 5.485695 0.296840 0.000000 -0.111861 -0.731535 0.000000 5.682157 -0.370297 0.000000 -0.142639 0.092290 0.000000 5.671262 -0.067932 0.000000 0.224947 -0.487096 0.000000 5.679850 0.268727 0.000000 -0.136592 0.148920 0.000000 5.782354 -0.456956 0.000000 0.401960 -0.243792 0.000000 5.604654 0.559981 0.000000 -0.101413 -0.024889 0.000000 5.831514 -0.685233 0.000000 0.371564 -0.010335 0.000000 5.592868 0.476838 0.000000 0.087951 -0.257617 0.000000 5.892803 -0.574716 0.000000 0.312111 0.312571 0.000000 5.695423 0.177114 0.000000 0.441370 -0.241807 0.000000 5.876496 -0.014870 0.000000 0.211108 0.530270 0.000000 5.826759 -0.189785 0.000000 0.724553 -0.025121 0.000000 5.791439 0.419243 0.000000 0.189858 0.604637 0.000000 5.952727 -0.557111 0.000000 1.146494 0.432454 0.000000 5.605344 0.461752 0.000000 0.421056 0.906895 0.000000 5.445203 0.467936 0.000000 0.130596 0.723536 0.000000 5.475284 0.193345 0.000000 0.116832 0.732670 0.000000 5.472349 0.098385 0.000000 0.136958 0.871919 0.000000 5.417809 0.088038 0.000000 0.143291 1.077949 0.000000 5.329754 0.114109 0.000000 0.137978 1.344333 0.000000 5.218686 0.164715 0.000000 0.128786 1.682210 0.000000 
5.315951 0.226294 0.000000 0.175970 2.159249 0.000000 5.225405 0.265537 0.000000 0.204972 2.865361 0.000000 5.119812 0.028231 0.000000 0.201262 -2.784091 0.000000 5.086944 0.078312 0.000000 0.195466 -2.243753 0.000000 5.104120 0.034541 0.000000 0.208203 -1.814996 0.000000 5.134078 0.018798 0.000000 0.266545 -1.486848 0.000000 5.091779 0.019995 0.000000 0.388200 -1.269281 0.000000 4.772631 -0.028040 0.000000 0.430264 -1.170573 0.000000 4.011297 -0.637856 0.000000 -1.966106 -0.664138 0.000000 4.030523 0.267231 0.000000 -0.953728 -0.824734 0.000000 3.746694 -0.398282 0.000000 -1.971525 -0.271423 0.000000 4.270263 -0.050758 0.000000 -1.453487 -0.743498 0.000000 3.517821 -0.068214 0.000000 -1.776065 -0.107175 0.000000 4.137254 -0.389515 0.000000 -2.003144 -0.291544 0.000000 3.851526 0.475368 0.000000 -1.199419 -0.192548 0.000000 4.150753 -0.631144 0.000000 -2.028191 0.109299 0.000000 4.263132 0.659913 0.000000 -0.850743 -0.376947 0.000000 4.068141 -0.647943 0.000000 -1.874748 0.317540 0.000000 4.377418 0.347465 0.000000 -1.078897 -0.492306 0.000000 3.770298 -0.364220 0.000000 -1.720725 0.397053 0.000000 4.253058 -0.173459 0.000000 -1.598504 -0.197783 0.000000 3.780154 0.248434 0.000000 -1.259473 0.317326 0.000000 4.232236 -0.613336 0.000000 -1.718283 0.303546 0.000000 4.120961 0.662077 0.000000 -0.805377 0.164174 0.000000 4.390590 -1.011128 0.000000 -1.713124 1.040531 0.000000 4.818011 0.914474 0.000000 -0.768712 0.846918 0.000000 5.407294 0.454572 0.000000 -0.138449 0.640111 0.000000 5.574721 0.117976 0.000000 0.074745 0.714877 0.000000 5.575153 0.036302 0.000000 0.142920 0.885473 0.000000 5.530092 0.044218 0.000000 0.165620 1.103556 0.000000 5.467994 0.085124 0.000000 0.171612 1.374547 0.000000 5.395734 0.147468 0.000000 0.171962 1.715122 0.000000 
5.542274 0.231670 0.000000 0.160354 2.210895 0.000000 5.496143 0.250731 0.000000 0.196594 2.918539 0.000000 5.450762 0.029762 0.000000 0.193660 -2.747891 0.000000 5.363494 0.075159 0.000000 0.192182 -2.229781 0.000000 5.322060 0.015580 0.000000 0.211080 -1.795508 0.000000 5.286470 -0.036553 0.000000 0.283035 -1.399505 0.000000 5.171568 -0.075611 0.000000 0.431338 -0.979804 0.000000 4.829092 -0.048129 0.000000 0.493881 -0.452378 0.000000 4.313414 1.037986 0.000000 -1.281323 -0.912003 0.000000 4.037076 -0.562207 0.000000 -0.618116 -0.318387 0.000000 3.802864 0.351993 0.000000 -1.571213 -0.786397 0.000000 4.139908 -0.221198 0.000000 -1.268566 0.020907 0.000000 3.390236 -0.047719 0.000000 -1.621416 -0.527143 0.000000 3.961263 0.159147 0.000000 -2.039499 -0.201368 0.000000 3.619788 -0.534998 0.000000 -1.170605 -0.150307 0.000000 3.904687 0.371816 0.000000 -2.275303 -0.356170 0.000000 4.046585 -0.617467 0.000000 -0.885132 0.170101 0.000000 3.735159 0.338772 0.000000 -2.237137 -0.319612 0.000000 4.182554 -0.319014 0.000000 -1.271434 0.349502 0.000000 3.325250 0.067112 0.000000 -2.144766 -0.170189 0.000000 3.990701 0.054893 0.000000 -2.105728 0.231098 0.000000 3.308822 -0.353901 0.000000 -1.663318 0.078188 0.000000 3.830162 0.269025 0.000000 -2.573779 0.086154 0.000000 3.740226 -0.493663 0.000000 -1.195736 0.335009 0.000000 3.825278 0.350636 0.000000 -3.048445 0.005032 0.000000 4.775403 -0.482661 0.000000 -1.277799 0.317613 0.000000 5.581588 -0.162327 0.000000 -0.250546 0.556109 0.000000 5.726439 -0.019848 0.000000 0.046969 0.732237 0.000000 5.707651 0.030210 0.000000 0.122138 0.916980 0.000000 5.669003 0.065339 0.000000 0.141277 1.140047 0.000000 5.628041 0.108116 0.000000 0.145925 1.416593 0.000000 5.585434 0.164365 0.000000 0.149085 1.761993 0.000000 
5.753529 0.215025 0.000000 0.200229 2.205381 0.000000 5.758544 0.229296 0.000000 0.236122 2.910742 0.000000 5.774745 0.031166 0.000000 0.233920 -2.696824 0.000000 5.644205 0.079789 0.000000 0.221811 -2.202318 0.000000 5.560146 0.015643 0.000000 0.203998 -1.779407 0.000000 5.507790 -0.053157 0.000000 0.177817 -1.371945 0.000000 5.471340 -0.128308 0.000000 0.128879 -0.926806 0.000000 5.485700 -0.090583 0.000000 0.070263 -0.654896 0.000000 5.746167 1.137348 0.000000 0.696848 -0.387800 0.000000 5.495962 -0.395976 0.000000 0.176953 -0.590522 0.000000 5.685096 0.554816 0.000000 0.364963 -0.608467 0.000000 5.471307 -0.353404 0.000000 0.207488 0.006174 0.000000 5.674884 0.284636 0.000000 0.097874 -0.678202 0.000000 5.590459 0.028568 0.000000 0.278719 0.049930 0.000000 5.533242 -0.393525 0.000000 -0.109784 -0.477447 0.000000 5.655492 0.473555 0.000000 0.192613 -0.032599 0.000000 5.432789 -0.730259 0.000000 -0.183097 -0.065520 0.000000 5.642410 0.704062 0.000000 -0.037345 -0.129855 0.000000 5.436595 -0.618238 0.000000 -0.152780 0.364998 0.000000 5.584347 0.509113 0.000000 -0.258092 -0.268399 0.000000 5.524609 -0.212497 0.000000 -0.092277 0.484096 0.000000 5.488625 -0.193976 0.000000 -0.383595 -0.204014 0.000000 5.603237 0.297124 0.000000 -0.128931 0.393481 0.000000 5.430420 -0.715965 0.000000 -0.344890 0.079123 0.000000 5.620881 0.841581 0.000000 -0.155499 0.090405 0.000000 5.457796 -0.856172 0.000000 -0.302511 0.040733 0.000000 5.626906 -0.572681 0.000000 -0.096999 0.495261 0.000000 5.731149 -0.179539 0.000000 0.054056 0.733665 0.000000 5.761743 -0.038868 0.000000 0.125805 0.924122 0.000000 5.763728 0.025079 0.000000 0.157336 1.144518 0.000000 5.757951 0.080476 0.000000 0.172540 1.417154 0.000000 5.753033 0.144308 0.000000 0.183653 1.758281 0.000000 
5.960514 0.215093 0.000000 0.187318 2.205880 0.000000 6.004205 0.214838 0.000000 0.224946 2.902338 0.000000 6.071465 0.031964 0.000000 0.223556 -2.617350 0.000000 5.904704 0.087269 0.000000 0.212370 -2.145723 0.000000 5.788119 0.033393 0.000000 0.187223 -1.743152 0.000000 5.718588 -0.010372 0.000000 0.127134 -1.363055 0.000000 5.709321 -0.026673 0.000000 -0.022938 -0.994165 0.000000 5.840977 0.010486 0.000000 -0.212945 -0.712844 0.000000 6.013900 0.411401 0.000000 0.713776 -0.661798 0.000000 6.176411 -0.042312 0.000000 0.233006 -0.507521 0.000000 6.141124 0.163983 0.000000 0.689723 -0.572608 0.000000 6.016494 -0.063722 0.000000 0.332680 -0.182670 0.000000 6.305099 0.061895 0.000000 0.567606 -0.442718 0.000000 6.022220 -0.021698 0.000000 0.621472 -0.144151 0.000000 6.246062 -0.146495 0.000000 0.266961 -0.272557 0.000000 6.042168 0.069418 0.000000 0.747568 -0.133467 0.000000 6.111277 -0.241757 0.000000 0.088005 -0.039520 0.000000 6.126058 0.193020 0.000000 0.745360 -0.113797 0.000000 6.036671 -0.203578 0.000000 0.187454 0.201750 0.000000 6.286251 0.172424 0.000000 0.648191 -0.110450 0.000000 6.039125 -0.110922 0.000000 0.499394 0.267081 0.000000 6.326595 -0.062584 0.000000 0.352459 -0.036424 0.000000 6.089941 0.014361 0.000000 0.707695 0.258971 0.000000 6.254933 -0.277703 0.000000 0.129889 0.144548 0.000000 6.161062 0.161245 0.000000 1.022556 0.168118 0.000000 6.033494 -0.335649 0.000000 0.403654 0.148502 0.000000 5.809364 -0.367839 0.000000 0.095781 0.451866 0.000000 5.828339 -0.170903 0.000000 0.089018 0.701643 0.000000 5.866790 -0.041540 0.000000 0.122277 0.914995 0.000000 5.888687 0.033808 0.000000 0.143342 1.145824 0.000000 5.905943 0.092913 0.000000 0.155658 1.421511 0.000000 5.928008 0.153252 0.000000 0.167532 1.761497 0.000000 