# vtk DataFile Version 2.0
Comment goes here
ASCII

DATASET STRUCTURED_POINTS
FIELD FieldData 1
TIME 1 1 double
0.04600000
DIMENSIONS    64   64   1

ORIGIN    0.000   0.000   0.000
SPACING   0.03125 0.03125   1.000

POINT_DATA   4096
VECTORS u double

0.751523 -0.012836 0.000000 -1.303852 0.002727 0.000000 0.422847 -0.005928 0.000000 -1.216757 0.004728 0.000000 0.231263 0.003845 0.000000 -1.162341 0.003164 0.000000 0.333421 -0.005640 0.000000 -1.100759 0.003265 0.000000 0.367016 -0.004469 0.000000 -1.014322 0.002449 0.000000 0.317915 -0.003919 0.000000 -0.871727 0.001257 0.000000 0.202168 -0.003268 0.000000 -0.700070 -0.000296 0.000000 0.065247 -0.002112 0.000000 -0.534184 -0.001809 0.000000 -0.060663 -0.000597 0.000000 -0.392339 -0.002430 0.000000 -0.164837 0.000191 0.000000 -0.275894 -0.001954 0.000000 -0.248164 0.001790 0.000000 -0.179374 -0.000799 0.000000 -0.316192 0.003034 0.000000 -0.099356 -0.001576 0.000000 -0.372283 0.003036 0.000000 -0.026648 -0.001606 0.000000 -0.428752 0.003557 0.000000 0.052256 -0.001316 0.000000 -0.503680 0.005097 0.000000 0.157587 -0.002206 0.000000 -0.615690 0.005417 0.000000 0.298383 -0.003057 0.000000 -0.760338 0.005754 0.000000 0.457518 -0.003541 0.000000 -0.912344 0.005807 0.000000 0.603155 -0.003103 0.000000 -1.038783 0.005813 0.000000 0.699113 -0.002608 0.000000 -1.101263 0.005193 0.000000 0.720547 -0.001800 0.000000 -1.086815 0.004782 0.000000 0.658547 -0.001332 0.000000 -0.997395 0.005493 0.000000 0.531723 -0.000627 0.000000 -0.863165 0.005466 0.000000 0.379683 -0.000113 0.000000 -0.718153 0.006219 0.000000 0.228489 -0.000274 0.000000 -0.589105 0.006635 0.000000 0.100332 -0.000315 0.000000 -0.485849 0.005739 0.000000 -0.015260 0.000244 0.000000 -0.380793 0.004205 0.000000 -0.158683 0.000117 0.000000 -0.234624 0.002780 0.000000 -0.354737 -0.000070 0.000000 -0.045389 0.001365 0.000000 -0.590055 0.000349 0.000000 0.158873 -0.000385 0.000000 -0.831919 0.001360 0.000000 0.345608 -0.002151 0.000000 -1.056424 0.002251 0.000000 0.499586 -0.004731 0.000000 -1.272444 0.010391 0.000000 
-0.604023 0.007221 0.000000 0.328639 0.170301 0.000000 -0.191010 -0.046665 0.000000 0.258928 0.099489 0.000000 0.030057 -0.037823 0.000000 0.232763 -0.047001 0.000000 -0.160985 -0.032792 0.000000 0.190453 -0.013576 0.000000 -0.269246 -0.045330 0.000000 0.146073 0.027277 0.000000 -0.306770 -0.072816 0.000000 0.073403 0.060020 0.000000 -0.293819 -0.086481 0.000000 -0.013390 0.069878 0.000000 -0.263281 -0.082829 0.000000 -0.095507 0.063505 0.000000 -0.234475 -0.070244 0.000000 -0.164753 0.051690 0.000000 -0.212498 -0.056884 0.000000 -0.221527 0.040060 0.000000 -0.197288 -0.047655 0.000000 -0.267020 0.031083 0.000000 -0.186938 -0.039178 0.000000 -0.302431 0.024679 0.000000 -0.181262 -0.034289 0.000000 -0.335710 0.023854 0.000000 -0.172819 -0.036868 0.000000 -0.372310 0.031932 0.000000 -0.151370 -0.050247 0.000000 -0.421817 0.050414 0.000000 -0.108725 -0.067566 0.000000 -0.490457 0.066452 0.000000 -0.046675 -0.076251 0.000000 -0.568427 0.070353 0.000000 0.022149 -0.069974 0.000000 -0.639338 0.057966 0.000000 0.082665 -0.045809 0.000000 -0.685217 0.026425 0.000000 0.114126 -0.010024 0.000000 -0.691602 -0.010293 0.000000 0.107697 0.030934 0.000000 -0.654794 -0.047258 0.000000 0.063175 0.062598 0.000000 -0.584727 -0.070455 0.000000 0.001379 0.075662 0.000000 -0.506281 -0.076902 0.000000 -0.062056 0.075773 0.000000 -0.428264 -0.069715 0.000000 -0.114000 0.064832 0.000000 -0.364261 -0.056976 0.000000 -0.145178 0.059067 0.000000 -0.311250 -0.057312 0.000000 -0.169828 0.073078 0.000000 -0.245169 -0.076390 0.000000 -0.212517 0.098990 0.000000 -0.150081 -0.096203 0.000000 -0.275008 0.117808 0.000000 -0.033290 -0.102054 0.000000 -0.340341 0.120108 0.000000 0.087990 -0.091934 0.000000 -0.389238 0.110696 0.000000 0.201184 -0.074398 0.000000 -0.414993 0.106327 0.000000 0.326532 -0.124266 0.000000 
0.842303 -0.014942 0.000000 0.562374 -0.410285 0.000000 0.890950 0.063783 0.000000 0.494881 -0.216339 0.000000 0.647448 0.030010 0.000000 0.441734 0.194206 0.000000 1.026474 0.036670 0.000000 0.449849 0.111526 0.000000 1.278963 0.039911 0.000000 0.408912 0.039973 0.000000 1.503577 0.068751 0.000000 0.318203 -0.011694 0.000000 1.723913 0.083526 0.000000 0.209245 -0.030834 0.000000 1.925660 0.080005 0.000000 0.110405 -0.030615 0.000000 2.097242 0.068649 0.000000 0.033884 -0.024407 0.000000 2.235288 0.056966 0.000000 -0.020789 -0.017164 0.000000 2.344979 0.047282 0.000000 -0.061537 -0.011149 0.000000 2.428121 0.038445 0.000000 -0.088522 -0.007252 0.000000 2.495294 0.036314 0.000000 -0.105897 -0.010049 0.000000 2.551651 0.040157 0.000000 -0.126063 -0.022765 0.000000 2.613181 0.054604 0.000000 -0.166482 -0.044851 0.000000 2.694476 0.074057 0.000000 -0.233718 -0.065107 0.000000 2.794594 0.083724 0.000000 -0.319195 -0.072364 0.000000 2.896589 0.076717 0.000000 -0.405006 -0.063619 0.000000 2.977125 0.051692 0.000000 -0.467396 -0.034069 0.000000 3.011271 0.011578 0.000000 -0.487362 0.004629 0.000000 2.990238 -0.032025 0.000000 -0.454084 0.043190 0.000000 2.917448 -0.064574 0.000000 -0.381709 0.061170 0.000000 2.811539 -0.072980 0.000000 -0.295424 0.063322 0.000000 2.696739 -0.071798 0.000000 -0.212526 0.051670 0.000000 2.587469 -0.057367 0.000000 -0.150853 0.030862 0.000000 2.490147 -0.047273 0.000000 -0.103922 0.024894 0.000000 2.382178 -0.061875 0.000000 -0.038918 0.042806 0.000000 2.232647 -0.092308 0.000000 0.063746 0.062421 0.000000 2.037512 -0.115425 0.000000 0.193717 0.065682 0.000000 1.812276 -0.121665 0.000000 0.326492 0.050257 0.000000 1.572710 -0.115345 0.000000 0.450684 0.028007 0.000000 1.313124 -0.130080 0.000000 0.593426 0.199420 0.000000 
2.766156 0.038273 0.000000 -0.084705 0.121654 0.000000 1.893773 0.020829 0.000000 -0.131612 0.342991 0.000000 0.921211 0.015324 0.000000 -0.104048 -0.426026 0.000000 2.045157 -0.040907 0.000000 -0.084578 -0.266065 0.000000 2.700632 -0.004394 0.000000 -0.063646 -0.197337 0.000000 3.131540 0.017892 0.000000 -0.021069 -0.160316 0.000000 3.434181 0.022478 0.000000 0.034122 -0.131869 0.000000 3.667232 0.016011 0.000000 0.089568 -0.108076 0.000000 3.859533 0.006276 0.000000 0.136952 -0.086356 0.000000 4.013735 -0.002211 0.000000 0.174557 -0.069631 0.000000 4.140215 -0.006907 0.000000 0.200148 -0.052058 0.000000 4.238806 -0.012193 0.000000 0.215363 -0.042495 0.000000 4.321368 -0.016914 0.000000 0.223620 -0.032503 0.000000 4.382454 -0.016702 0.000000 0.230635 -0.029597 0.000000 4.425236 -0.009828 0.000000 0.244463 -0.030881 0.000000 4.444550 -0.000330 0.000000 0.270868 -0.033667 0.000000 4.443177 0.009226 0.000000 0.306808 -0.031642 0.000000 4.430457 0.015838 0.000000 0.341789 -0.022570 0.000000 4.407734 0.016581 0.000000 0.368501 -0.007721 0.000000 4.390775 0.009942 0.000000 0.375372 0.010741 0.000000 4.375784 -0.002344 0.000000 0.362414 0.025531 0.000000 4.368571 -0.009778 0.000000 0.332994 0.035454 0.000000 4.351762 -0.010623 0.000000 0.300907 0.037898 0.000000 4.319175 -0.007125 0.000000 0.266822 0.039555 0.000000 4.261383 0.003159 0.000000 0.237365 0.040346 0.000000 4.165994 0.012136 0.000000 0.215952 0.050657 0.000000 4.044513 0.008074 0.000000 0.191149 0.073141 0.000000 3.913996 -0.003674 0.000000 0.155158 0.098931 0.000000 3.770522 -0.012163 0.000000 0.112335 0.123182 0.000000 3.593525 -0.012667 0.000000 0.068950 0.147632 0.000000 3.356222 -0.013496 0.000000 0.025069 0.185188 0.000000 3.030941 -0.036415 0.000000 -0.053482 0.346555 0.000000 
2.754641 0.016281 0.000000 0.016933 0.462098 0.000000 2.089271 0.110690 0.000000 -0.059615 0.756223 0.000000 1.301916 0.002446 0.000000 -0.048482 -0.929740 0.000000 2.171751 0.017200 0.000000 -0.062969 -0.543949 0.000000 2.755607 0.018980 0.000000 -0.042064 -0.390934 0.000000 3.167139 0.026174 0.000000 -0.002667 -0.314335 0.000000 3.473836 0.028335 0.000000 0.047022 -0.263885 0.000000 3.717574 0.024560 0.000000 0.100884 -0.222915 0.000000 3.920758 0.021265 0.000000 0.149114 -0.178609 0.000000 4.078704 0.019361 0.000000 0.186877 -0.143644 0.000000 4.203698 0.021691 0.000000 0.212148 -0.109739 0.000000 4.294175 0.023230 0.000000 0.228405 -0.089814 0.000000 4.368715 0.028057 0.000000 0.233759 -0.071136 0.000000 4.418489 0.033142 0.000000 0.237265 -0.065547 0.000000 4.458782 0.040776 0.000000 0.241654 -0.064166 0.000000 4.481430 0.047652 0.000000 0.251026 -0.063734 0.000000 4.493687 0.047784 0.000000 0.265417 -0.059645 0.000000 4.500329 0.041737 0.000000 0.280809 -0.040895 0.000000 4.496474 0.024980 0.000000 0.296367 -0.017111 0.000000 4.494840 0.004707 0.000000 0.302872 0.019620 0.000000 4.479382 -0.019067 0.000000 0.301837 0.050403 0.000000 4.462843 -0.035155 0.000000 0.292169 0.077978 0.000000 4.427328 -0.040893 0.000000 0.280312 0.095909 0.000000 4.378514 -0.037713 0.000000 0.262994 0.109463 0.000000 4.307607 -0.027910 0.000000 0.241008 0.126251 0.000000 4.206783 -0.025859 0.000000 0.217405 0.146375 0.000000 4.079289 -0.037072 0.000000 0.191610 0.173323 0.000000 3.939255 -0.056317 0.000000 0.163762 0.205895 0.000000 3.783672 -0.072602 0.000000 0.137015 0.242679 0.000000 3.597491 -0.078280 0.000000 0.114200 0.287560 0.000000 3.360220 -0.071464 0.000000 0.089521 0.353287 0.000000 3.053130 -0.051529 0.000000 0.034114 0.464205 0.000000 
2.843323 0.055454 0.000000 -0.072976 0.787024 0.000000 2.303940 0.097377 0.000000 -0.091987 1.130345 0.000000 1.669253 0.004191 0.000000 -0.096012 -1.295861 0.000000 2.310200 -0.026420 0.000000 -0.076941 -0.849922 0.000000 2.841923 -0.025298 0.000000 -0.052727 -0.608869 0.000000 3.234424 -0.021505 0.000000 -0.017210 -0.467013 0.000000 3.528530 -0.027211 0.000000 0.030401 -0.375607 0.000000 3.761521 -0.037851 0.000000 0.085629 -0.311261 0.000000 3.957742 -0.041953 0.000000 0.138667 -0.244302 0.000000 4.103275 -0.039974 0.000000 0.180800 -0.194625 0.000000 4.223168 -0.032178 0.000000 0.208993 -0.142536 0.000000 4.305184 -0.028451 0.000000 0.228734 -0.117035 0.000000 4.379106 -0.022267 0.000000 0.240652 -0.082277 0.000000 4.424797 -0.020207 0.000000 0.252717 -0.069889 0.000000 4.460162 -0.014217 0.000000 0.267550 -0.053529 0.000000 4.477412 -0.009702 0.000000 0.288032 -0.045923 0.000000 4.480497 -0.005165 0.000000 0.313658 -0.038284 0.000000 4.481645 0.000446 0.000000 0.335775 -0.018715 0.000000 4.468615 0.001022 0.000000 0.354026 -0.006087 0.000000 4.465228 0.003438 0.000000 0.357375 0.026199 0.000000 4.448517 -0.001309 0.000000 0.351612 0.042070 0.000000 4.436673 -0.000110 0.000000 0.334502 0.070970 0.000000 4.408520 0.001235 0.000000 0.314454 0.086712 0.000000 4.367172 0.010193 0.000000 0.290436 0.110462 0.000000 4.305616 0.025145 0.000000 0.259086 0.141170 0.000000 4.208701 0.035739 0.000000 0.225665 0.178151 0.000000 4.089688 0.033870 0.000000 0.189894 0.213175 0.000000 3.961168 0.024174 0.000000 0.151030 0.254515 0.000000 3.819693 0.014584 0.000000 0.109798 0.309363 0.000000 3.651228 0.010148 0.000000 0.067036 0.384902 0.000000 3.438844 0.011182 0.000000 0.021252 0.492278 0.000000 3.169202 0.018992 0.000000 -0.032705 0.645045 0.000000 
2.948360 0.056553 0.000000 0.016173 1.001481 0.000000 2.525301 0.129701 0.000000 -0.018265 1.390910 0.000000 2.021930 0.006471 0.000000 -0.022212 -1.570686 0.000000 2.497555 -0.001871 0.000000 -0.030809 -1.075672 0.000000 2.930133 -0.005235 0.000000 -0.023446 -0.783435 0.000000 3.275215 -0.009344 0.000000 -0.000259 -0.608441 0.000000 3.549364 -0.019276 0.000000 0.039046 -0.496876 0.000000 3.777334 -0.030668 0.000000 0.095624 -0.419136 0.000000 3.981990 -0.031773 0.000000 0.158001 -0.324142 0.000000 4.126718 -0.022773 0.000000 0.197155 -0.263537 0.000000 4.249241 -0.006502 0.000000 0.221101 -0.191755 0.000000 4.320306 0.003488 0.000000 0.235277 -0.163736 0.000000 4.399155 0.016140 0.000000 0.238586 -0.116827 0.000000 4.433146 0.021077 0.000000 0.245539 -0.100913 0.000000 4.474487 0.025944 0.000000 0.247295 -0.081416 0.000000 4.490684 0.027170 0.000000 0.258755 -0.066818 0.000000 4.504250 0.022158 0.000000 0.269920 -0.060794 0.000000 4.519160 0.019620 0.000000 0.284296 -0.027864 0.000000 4.512595 0.006729 0.000000 0.296254 -0.013724 0.000000 4.523883 0.001357 0.000000 0.298560 0.036331 0.000000 4.498398 -0.013304 0.000000 0.300125 0.062247 0.000000 4.490009 -0.018044 0.000000 0.290761 0.106132 0.000000 4.446855 -0.020845 0.000000 0.286891 0.137257 0.000000 4.404759 -0.013694 0.000000 0.274331 0.171018 0.000000 4.337947 0.003440 0.000000 0.254651 0.223167 0.000000 4.241305 0.007562 0.000000 0.217013 0.265387 0.000000 4.114469 -0.001301 0.000000 0.178584 0.301843 0.000000 3.984295 -0.017453 0.000000 0.147724 0.347370 0.000000 3.846119 -0.031371 0.000000 0.123571 0.411145 0.000000 3.685398 -0.035518 0.000000 0.102378 0.499944 0.000000 3.488162 -0.025680 0.000000 0.078654 0.622929 0.000000 3.244396 0.002428 0.000000 0.046183 0.790084 0.000000 
3.112136 0.085464 0.000000 -0.032542 1.210082 0.000000 2.765447 0.131815 0.000000 -0.047590 1.633717 0.000000 2.360501 0.008139 0.000000 -0.051233 -1.771486 0.000000 2.709135 -0.017824 0.000000 -0.049875 -1.282500 0.000000 3.067909 -0.032661 0.000000 -0.038913 -0.953951 0.000000 3.373298 -0.044692 0.000000 -0.017351 -0.741162 0.000000 3.622845 -0.066516 0.000000 0.020584 -0.603577 0.000000 3.835566 -0.094429 0.000000 0.080352 -0.515916 0.000000 4.042343 -0.104330 0.000000 0.161086 -0.389030 0.000000 4.160700 -0.079128 0.000000 0.199265 -0.317148 0.000000 4.281856 -0.056124 0.000000 0.224983 -0.213601 0.000000 4.333512 -0.042627 0.000000 0.242278 -0.195884 0.000000 4.416651 -0.025577 0.000000 0.246763 -0.116268 0.000000 4.442754 -0.027160 0.000000 0.262758 -0.111231 0.000000 4.478018 -0.015973 0.000000 0.267993 -0.069726 0.000000 4.493599 -0.021162 0.000000 0.290200 -0.059490 0.000000 4.491668 -0.016330 0.000000 0.308005 -0.053194 0.000000 4.512436 -0.013930 0.000000 0.328251 -0.012150 0.000000 4.489159 -0.010936 0.000000 0.344781 -0.017375 0.000000 4.509377 0.001132 0.000000 0.342296 0.051684 0.000000 4.478762 -0.002874 0.000000 0.343868 0.050459 0.000000 4.476823 0.009253 0.000000 0.325329 0.114123 0.000000 4.443108 0.005105 0.000000 0.319340 0.128809 0.000000 4.403233 0.022753 0.000000 0.299649 0.177273 0.000000 4.354687 0.044826 0.000000 0.268086 0.237812 0.000000 4.247097 0.073377 0.000000 0.217607 0.304987 0.000000 4.126015 0.072299 0.000000 0.168662 0.343349 0.000000 4.011936 0.055034 0.000000 0.128942 0.392691 0.000000 3.894199 0.038737 0.000000 0.095236 0.470084 0.000000 3.756926 0.031341 0.000000 0.063131 0.582138 0.000000 3.587339 0.034906 0.000000 0.029890 0.736044 0.000000 3.375888 0.051463 0.000000 -0.004456 0.941081 0.000000 
3.267150 0.084639 0.000000 0.030677 1.348170 0.000000 2.997698 0.144749 0.000000 0.012022 1.795856 0.000000 2.685611 0.010114 0.000000 0.008498 -1.919321 0.000000 2.931971 -0.003229 0.000000 -0.003603 -1.434446 0.000000 3.202565 -0.016197 0.000000 -0.009885 -1.088824 0.000000 3.450495 -0.030905 0.000000 -0.008162 -0.857988 0.000000 3.667469 -0.057211 0.000000 0.010664 -0.709598 0.000000 3.868808 -0.090436 0.000000 0.069949 -0.625913 0.000000 4.100989 -0.112507 0.000000 0.213835 -0.442500 0.000000 4.198712 -0.060952 0.000000 0.219368 -0.384693 0.000000 4.333203 -0.032220 0.000000 0.248386 -0.243410 0.000000 4.347196 -0.013806 0.000000 0.252984 -0.246875 0.000000 4.459806 0.011655 0.000000 0.237604 -0.142930 0.000000 4.450014 0.005081 0.000000 0.267929 -0.136176 0.000000 4.506177 0.020708 0.000000 0.233509 -0.096997 0.000000 4.507597 0.004963 0.000000 0.279242 -0.064887 0.000000 4.512973 0.004353 0.000000 0.257529 -0.081562 0.000000 4.555139 -0.000626 0.000000 0.300357 -0.004587 0.000000 4.517968 -0.009801 0.000000 0.296890 -0.033942 0.000000 4.577955 0.003842 0.000000 0.297452 0.066946 0.000000 4.511705 -0.014875 0.000000 0.310307 0.064186 0.000000 4.541087 0.000494 0.000000 0.276629 0.139847 0.000000 4.476658 -0.014856 0.000000 0.307268 0.177132 0.000000 4.454649 0.005997 0.000000 0.276943 0.219564 0.000000 4.403127 0.035002 0.000000 0.302961 0.330757 0.000000 4.294877 0.058041 0.000000 0.219651 0.386469 0.000000 4.148680 0.047644 0.000000 0.151962 0.415922 0.000000 4.038140 0.022267 0.000000 0.118488 0.465107 0.000000 3.933604 0.002336 0.000000 0.101182 0.548418 0.000000 3.812859 -0.003413 0.000000 0.087498 0.669531 0.000000 3.665420 0.007561 0.000000 0.071589 0.834380 0.000000 3.485532 0.036773 0.000000 0.051684 1.053836 0.000000 
3.449897 0.106471 0.000000 -0.001939 1.479534 0.000000 3.237070 0.150469 0.000000 -0.010019 1.945804 0.000000 2.996221 0.011663 0.000000 -0.013259 -2.017846 0.000000 3.163157 -0.005724 0.000000 -0.021176 -1.553094 0.000000 3.368916 -0.026379 0.000000 -0.025662 -1.201881 0.000000 3.570989 -0.046415 0.000000 -0.028142 -0.958136 0.000000 3.754888 -0.085342 0.000000 -0.019576 -0.804915 0.000000 3.934493 -0.153714 0.000000 0.018135 -0.748097 0.000000 4.212448 -0.248216 0.000000 0.269671 -0.486753 0.000000 4.223160 -0.084661 0.000000 0.215863 -0.451639 0.000000 4.387581 -0.085141 0.000000 0.255420 -0.227594 0.000000 4.351474 -0.047225 0.000000 0.276414 -0.308494 0.000000 4.484765 -0.010197 0.000000 0.223323 -0.106476 0.000000 4.471671 -0.057485 0.000000 0.310673 -0.167394 0.000000 4.499744 0.018447 0.000000 0.220285 -0.071146 0.000000 4.537040 -0.066896 0.000000 0.326395 -0.064866 0.000000 4.481001 0.005384 0.000000 0.269770 -0.095360 0.000000 4.578938 -0.056758 0.000000 0.342888 0.025021 0.000000 4.480599 -0.007469 0.000000 0.344192 -0.077362 0.000000 4.582407 0.000569 0.000000 0.320004 0.117934 0.000000 4.501227 -0.015728 0.000000 0.369205 0.021077 0.000000 4.529329 0.042931 0.000000 0.281483 0.178552 0.000000 4.503908 -0.025534 0.000000 0.357046 0.150818 0.000000 4.446359 0.053078 0.000000 0.287921 0.228795 0.000000 4.472621 0.018808 0.000000 0.322961 0.346063 0.000000 4.284253 0.156687 0.000000 0.209650 0.451184 0.000000 4.149405 0.139987 0.000000 0.131824 0.453889 0.000000 4.067210 0.088508 0.000000 0.094955 0.497227 0.000000 3.990173 0.056043 0.000000 0.073962 0.590829 0.000000 3.895803 0.045026 0.000000 0.055364 0.729577 0.000000 3.776520 0.050814 0.000000 0.035402 0.915932 0.000000 3.628898 0.071369 0.000000 0.015169 1.159463 0.000000 
3.619670 0.101747 0.000000 0.046776 1.560997 0.000000 3.464980 0.152828 0.000000 0.040411 2.036705 0.000000 3.294135 0.013354 0.000000 0.037489 -2.086258 0.000000 3.389892 0.004688 0.000000 0.024279 -1.640205 0.000000 3.523633 -0.011711 0.000000 0.008153 -1.290896 0.000000 3.663402 -0.028425 0.000000 -0.019124 -1.041887 0.000000 3.797136 -0.065776 0.000000 -0.067530 -0.889203 0.000000 3.958457 -0.128147 0.000000 -0.116351 -0.903868 0.000000 4.335422 -0.364043 0.000000 0.451877 -0.453211 0.000000 4.230164 -0.007144 0.000000 0.127953 -0.549115 0.000000 4.492028 -0.071777 0.000000 0.310269 -0.207303 0.000000 4.319571 -0.034800 0.000000 0.268353 -0.380166 0.000000 4.574341 0.064745 0.000000 0.144979 -0.129836 0.000000 4.460395 -0.082269 0.000000 0.410992 -0.164249 0.000000 4.530394 0.111096 0.000000 0.046210 -0.134293 0.000000 4.564166 -0.101146 0.000000 0.455734 -0.008847 0.000000 4.457947 0.060978 0.000000 0.079184 -0.179499 0.000000 4.668452 -0.073745 0.000000 0.434761 0.093752 0.000000 4.443902 -0.011105 0.000000 0.242982 -0.135750 0.000000 4.708097 0.028030 0.000000 0.290827 0.148125 0.000000 4.483056 -0.064077 0.000000 0.398142 0.036084 0.000000 4.617015 0.088216 0.000000 0.134502 0.165268 0.000000 4.527186 -0.090419 0.000000 0.467053 0.234681 0.000000 4.490465 0.075122 0.000000 0.100368 0.193302 0.000000 4.588905 -0.000038 0.000000 0.580470 0.519124 0.000000 4.333762 0.171353 0.000000 0.194452 0.521317 0.000000 4.142655 0.125470 0.000000 0.076039 0.498117 0.000000 4.093098 0.059135 0.000000 0.067167 0.542144 0.000000 4.041637 0.023329 0.000000 0.071937 0.642788 0.000000 3.967830 0.015185 0.000000 0.072261 0.788814 0.000000 3.872213 0.027522 0.000000 0.066846 0.982002 0.000000 3.756009 0.057007 0.000000 0.057477 1.232838 0.000000 
3.802206 0.117171 0.000000 0.023674 1.634223 0.000000 3.692677 0.156834 0.000000 0.024117 2.116650 0.000000 3.577308 0.014585 0.000000 0.021614 -2.113603 0.000000 3.616848 0.007487 0.000000 0.012979 -1.686836 0.000000 3.697779 -0.010253 0.000000 0.001863 -1.341650 0.000000 3.792772 -0.019138 0.000000 -0.023472 -1.091871 0.000000 3.886866 -0.036936 0.000000 -0.078823 -0.966236 0.000000 3.983191 -0.104893 0.000000 -0.113162 -1.125063 0.000000 4.123063 -0.816445 0.000000 -0.010860 -0.381494 0.000000 4.060119 0.239264 0.000000 -0.132097 -0.713503 0.000000 4.238881 -0.267457 0.000000 -0.077608 -0.055136 0.000000 4.191968 -0.005308 0.000000 0.025439 -0.563264 0.000000 4.308948 0.113176 0.000000 -0.109799 0.007470 0.000000 4.325517 -0.323498 0.000000 0.178198 -0.237394 0.000000 4.273629 0.383229 0.000000 -0.109024 -0.104917 0.000000 4.408804 -0.476420 0.000000 0.224638 0.041352 0.000000 4.226880 0.381934 0.000000 -0.037095 -0.305865 0.000000 4.465169 -0.412335 0.000000 0.191854 0.249571 0.000000 4.253340 0.184310 0.000000 0.129418 -0.341558 0.000000 4.468701 -0.047276 0.000000 0.096296 0.342976 0.000000 4.341896 -0.123043 0.000000 0.298752 -0.112882 0.000000 4.377076 0.306571 0.000000 0.022276 0.268382 0.000000 4.425130 -0.358084 0.000000 0.389226 0.187539 0.000000 4.283611 0.419763 0.000000 0.077797 0.130354 0.000000 4.557344 -0.461294 0.000000 0.597005 0.601206 0.000000 4.176456 0.542705 0.000000 0.127005 0.642291 0.000000 4.117228 0.258400 0.000000 0.033843 0.503447 0.000000 4.129099 0.097380 0.000000 0.038876 0.548688 0.000000 4.108709 0.051273 0.000000 0.047331 0.664636 0.000000 4.059193 0.044701 0.000000 0.046767 0.825194 0.000000 3.989056 0.056229 0.000000 0.039900 1.032136 0.000000 3.902485 0.080739 0.000000 0.030961 1.295803 0.000000 
3.971710 0.109034 0.000000 0.063148 1.670525 0.000000 3.908429 0.152385 0.000000 0.067131 2.152075 0.000000 3.848292 0.015857 0.000000 0.065051 -2.125798 0.000000 3.836755 0.013323 0.000000 0.058360 -1.721136 0.000000 3.862140 -0.000595 0.000000 0.053032 -1.385889 0.000000 3.892654 -0.003090 0.000000 0.047112 -1.135981 0.000000 3.876458 -0.010426 0.000000 0.014581 -0.985528 0.000000 3.692142 -0.093808 0.000000 -0.147674 -1.043740 0.000000 2.827240 -0.466346 0.000000 -1.476958 -0.390267 0.000000 3.281822 0.114093 0.000000 -1.027079 -0.727876 0.000000 2.717286 -0.126265 0.000000 -1.358024 -0.160391 0.000000 3.247345 -0.137847 0.000000 -1.375921 -0.497145 0.000000 2.776955 0.199983 0.000000 -1.043001 -0.146406 0.000000 3.073851 -0.370266 0.000000 -1.582247 -0.112361 0.000000 3.073939 0.398318 0.000000 -0.848179 -0.269468 0.000000 2.975873 -0.434808 0.000000 -1.581747 0.173077 0.000000 3.324489 0.322711 0.000000 -0.932752 -0.417789 0.000000 2.811340 -0.302694 0.000000 -1.486662 0.305581 0.000000 3.322308 0.051331 0.000000 -1.238224 -0.351111 0.000000 2.745158 0.061153 0.000000 -1.164004 0.274930 0.000000 3.188474 -0.266533 0.000000 -1.421077 0.000904 0.000000 2.977243 0.364693 0.000000 -0.808893 0.117214 0.000000 3.116319 -0.457369 0.000000 -1.385585 0.376200 0.000000 3.284831 0.386552 0.000000 -0.698728 -0.080431 0.000000 3.053465 -0.519247 0.000000 -1.372717 0.900012 0.000000 3.708077 0.641353 0.000000 -0.472729 0.580545 0.000000 4.106316 0.218633 0.000000 -0.109667 0.486246 0.000000 4.186268 0.054102 0.000000 0.006917 0.562535 0.000000 4.178500 0.014875 0.000000 0.047741 0.692304 0.000000 4.142743 0.015750 0.000000 0.062268 0.858950 0.000000 4.093287 0.034388 0.000000 0.065902 1.068573 0.000000 4.035056 0.065946 0.000000 0.064921 1.333117 0.000000 
4.145680 0.118944 0.000000 0.046278 1.697504 0.000000 4.119551 0.152851 0.000000 0.054550 2.176787 0.000000 4.104396 0.016665 0.000000 0.052927 -2.102065 0.000000 4.049813 0.014178 0.000000 0.050053 -1.712221 0.000000 4.030656 -0.004925 0.000000 0.052484 -1.372165 0.000000 4.014285 -0.013218 0.000000 0.064478 -1.075674 0.000000 3.942680 -0.004406 0.000000 0.068593 -0.781920 0.000000 3.698425 0.057362 0.000000 -0.066801 -0.260160 0.000000 2.907490 0.512839 0.000000 -1.306934 -0.836076 0.000000 3.201312 -0.210615 0.000000 -0.926803 -0.148967 0.000000 2.632404 0.063489 0.000000 -1.292500 -0.585196 0.000000 3.119399 0.012588 0.000000 -1.414899 -0.092874 0.000000 2.593635 -0.219744 0.000000 -1.048922 -0.289425 0.000000 2.886209 0.215747 0.000000 -1.753878 -0.237482 0.000000 2.882048 -0.350838 0.000000 -0.893905 -0.006851 0.000000 2.726590 0.257148 0.000000 -1.830766 -0.307263 0.000000 3.161920 -0.267061 0.000000 -1.052136 0.207284 0.000000 2.492787 0.141575 0.000000 -1.765310 -0.261398 0.000000 3.145138 -0.064128 0.000000 -1.492453 0.235592 0.000000 2.389481 -0.121496 0.000000 -1.410174 -0.100340 0.000000 2.942178 0.134031 0.000000 -1.812552 0.098349 0.000000 2.678485 -0.305614 0.000000 -1.018276 0.129305 0.000000 2.793994 0.218607 0.000000 -1.884589 0.019027 0.000000 3.086471 -0.267094 0.000000 -0.961312 0.361721 0.000000 2.613895 0.212694 0.000000 -2.038024 -0.053406 0.000000 3.683728 -0.357283 0.000000 -0.681108 0.244051 0.000000 4.180918 -0.104662 0.000000 -0.165523 0.423495 0.000000 4.262969 -0.019204 0.000000 -0.014635 0.556456 0.000000 4.260400 0.010449 0.000000 0.031142 0.700393 0.000000 4.239022 0.030173 0.000000 0.044471 0.874651 0.000000 4.210246 0.052596 0.000000 0.046642 1.090367 0.000000 4.177825 0.081720 0.000000 0.045743 1.359149 0.000000 
4.307145 0.108499 0.000000 0.078958 1.696654 0.000000 4.318970 0.144113 0.000000 0.089133 2.167230 0.000000 4.348631 0.017480 0.000000 0.087900 -2.071215 0.000000 4.259898 0.016197 0.000000 0.081138 -1.701979 0.000000 4.209241 -0.003026 0.000000 0.072584 -1.369518 0.000000 4.179311 -0.015084 0.000000 0.060460 -1.064377 0.000000 4.153374 -0.014542 0.000000 0.040799 -0.741272 0.000000 4.140419 0.041586 0.000000 0.028344 -0.252805 0.000000 4.343567 0.773788 0.000000 0.258124 -0.684089 0.000000 4.095319 -0.266038 0.000000 0.051189 -0.158968 0.000000 4.262279 0.239432 0.000000 0.051690 -0.647387 0.000000 4.145442 -0.015448 0.000000 0.043829 0.028620 0.000000 4.198573 -0.165994 0.000000 -0.096678 -0.438981 0.000000 4.216013 0.334690 0.000000 0.024753 -0.108200 0.000000 4.123869 -0.461655 0.000000 -0.166272 -0.114010 0.000000 4.241107 0.502054 0.000000 -0.050001 -0.262253 0.000000 4.099432 -0.455920 0.000000 -0.180436 0.251344 0.000000 4.224546 0.410479 0.000000 -0.155697 -0.346769 0.000000 4.130847 -0.221525 0.000000 -0.155069 0.404546 0.000000 4.176434 -0.021127 0.000000 -0.239241 -0.277767 0.000000 4.185414 0.135846 0.000000 -0.131732 0.264598 0.000000 4.126287 -0.429584 0.000000 -0.263620 0.001705 0.000000 4.216282 0.408944 0.000000 -0.159779 0.083723 0.000000 4.128442 -0.536726 0.000000 -0.218144 0.392145 0.000000 4.232019 0.557466 0.000000 -0.118871 -0.169821 0.000000 4.158245 -0.715563 0.000000 -0.158588 0.083355 0.000000 4.263423 -0.296952 0.000000 -0.056245 0.404195 0.000000 4.311900 -0.096786 0.000000 0.011540 0.565104 0.000000 4.324124 -0.030902 0.000000 0.045944 0.713682 0.000000 4.321476 0.002420 0.000000 0.062260 0.887727 0.000000 4.314061 0.032218 0.000000 0.069990 1.100994 0.000000 4.307565 0.066846 0.000000 0.074386 1.365261 0.000000 
4.468117 0.114372 0.000000 0.066024 1.685679 0.000000 4.511132 0.142676 0.000000 0.077868 2.147127 0.000000 4.577957 0.017898 0.000000 0.077088 -2.013333 0.000000 4.459445 0.020940 0.000000 0.070338 -1.661564 0.000000 4.380931 0.003629 0.000000 0.058790 -1.342235 0.000000 4.333098 -0.001094 0.000000 0.034138 -1.049737 0.000000 4.315893 0.015255 0.000000 -0.017882 -0.768965 0.000000 4.372935 0.069818 0.000000 -0.084480 -0.463308 0.000000 4.685923 0.283058 0.000000 0.512518 -0.587828 0.000000 4.510320 -0.003680 0.000000 0.184810 -0.315928 0.000000 4.725210 0.062988 0.000000 0.378013 -0.468359 0.000000 4.491086 0.020450 0.000000 0.329282 -0.146004 0.000000 4.723929 -0.079237 0.000000 0.185196 -0.306866 0.000000 4.577564 0.094316 0.000000 0.476688 -0.145337 0.000000 4.613323 -0.159813 0.000000 0.060068 -0.124090 0.000000 4.654425 0.140876 0.000000 0.511936 -0.165588 0.000000 4.502869 -0.136626 0.000000 0.084125 0.082170 0.000000 4.749491 0.116837 0.000000 0.463231 -0.167699 0.000000 4.487534 -0.064757 0.000000 0.257913 0.190005 0.000000 4.785347 -0.037324 0.000000 0.278195 -0.109320 0.000000 4.553855 0.026522 0.000000 0.426476 0.157475 0.000000 4.691131 -0.173726 0.000000 0.088645 0.039310 0.000000 4.640819 0.114766 0.000000 0.497613 0.106867 0.000000 4.585344 -0.208728 0.000000 0.057767 0.258144 0.000000 4.771560 0.113421 0.000000 0.658558 0.020368 0.000000 4.477339 -0.317566 0.000000 0.146338 0.138873 0.000000 4.358483 -0.207005 0.000000 0.024297 0.375017 0.000000 4.379742 -0.086989 0.000000 0.028917 0.544232 0.000000 4.400654 -0.023954 0.000000 0.043926 0.703041 0.000000 4.413541 0.013857 0.000000 0.052759 0.882066 0.000000 4.425337 0.044866 0.000000 0.057195 1.096862 0.000000 4.441689 0.077324 0.000000 0.060634 1.359569 0.000000 