# vtk DataFile Version 2.0
Comment goes here
ASCII

DATASET STRUCTURED_POINTS
FIELD FieldData 1
TIME 1 1 double
0.08300000
DIMENSIONS    64   64   1

ORIGIN    0.000   0.000   0.000
SPACING   0.03125 0.03125   1.000

POINT_DATA   4096
SCALARS uX double
LOOKUP_TABLE default

5.658097e-01 -1.961079e+00 3.334655e-01 -1.905678e+00 6.189911e-02 -1.853653e+00 3.567457e-01 -1.690720e+00 4.651343e-01 -1.562420e+00 4.522761e-01 -1.408221e+00 3.464971e-01 -1.213048e+00 1.798056e-01 -9.943833e-01 -1.209991e-02 -7.676230e-01 -2.137784e-01 -5.395592e-01 -4.183182e-01 -3.194645e-01 -6.128682e-01 -1.135825e-01 -7.977994e-01 8.376752e-02 -9.747039e-01 2.685043e-01 -1.132087e+00 4.270844e-01 -1.255918e+00 5.502910e-01 -1.342049e+00 6.384797e-01 -1.391714e+00 6.913010e-01 -1.410430e+00 7.122073e-01 -1.402505e+00 7.056957e-01 -1.366954e+00 6.665572e-01 -1.304028e+00 5.926311e-01 -1.213502e+00 4.867111e-01 -1.096760e+00 3.473247e-01 -9.501072e-01 1.673517e-01 -7.743890e-01 -5.547672e-02 -5.680868e-01 -3.270413e-01 -3.248184e-01 -6.494320e-01 -5.622931e-02 -1.003638e+00 2.092544e-01 -1.357870e+00 4.373380e-01 -1.686438e+00 6.060948e-01 -1.988428e+00 
-3.328500e-01 3.726877e-01 -7.337352e-02 3.508525e-01 2.629095e-01 3.181884e-01 -2.111877e-01 1.482575e-01 -4.369122e-01 6.033688e-02 -5.374621e-01 -1.587965e-02 -5.593746e-01 -1.057289e-01 -5.347101e-01 -2.056382e-01 -4.905335e-01 -3.100827e-01 -4.390506e-01 -4.149943e-01 -3.754003e-01 -5.174966e-01 -3.100168e-01 -6.113427e-01 -2.425933e-01 -7.049963e-01 -1.743942e-01 -7.961926e-01 -1.125264e-01 -8.754757e-01 -6.536244e-02 -9.403431e-01 -3.798154e-02 -9.915931e-01 -2.646164e-02 -1.023014e+00 -2.912289e-02 -1.035252e+00 -4.218448e-02 -1.036691e+00 -6.886055e-02 -1.018806e+00 -1.043096e-01 -9.781445e-01 -1.483761e-01 -9.237066e-01 -1.994971e-01 -8.503184e-01 -2.583069e-01 -7.516822e-01 -3.239103e-01 -6.293479e-01 -3.933860e-01 -4.807513e-01 -4.703774e-01 -3.032610e-01 -5.489204e-01 -1.067694e-01 -6.123480e-01 9.142757e-02 -6.367595e-01 2.736887e-01 -6.052110e-01 4.499650e-01 
2.141721e+00 6.323594e-01 1.764975e+00 5.916572e-01 1.301238e+00 5.786865e-01 2.138902e+00 7.680374e-01 2.599117e+00 7.750405e-01 2.933077e+00 6.851903e-01 3.225770e+00 5.458322e-01 3.502189e+00 3.935653e-01 3.762522e+00 2.457872e-01 4.016236e+00 9.774791e-02 4.238728e+00 -3.759731e-02 4.429473e+00 -1.630746e-01 4.592485e+00 -2.760101e-01 4.744127e+00 -3.756466e-01 4.876209e+00 -4.556695e-01 4.980997e+00 -5.039491e-01 5.065102e+00 -5.170055e-01 5.116001e+00 -5.091526e-01 5.138213e+00 -4.887996e-01 5.137982e+00 -4.441223e-01 5.113154e+00 -3.833560e-01 5.054343e+00 -3.165361e-01 4.968788e+00 -2.353021e-01 4.858575e+00 -1.419030e-01 4.706670e+00 -4.336927e-02 4.520876e+00 6.447867e-02 4.290007e+00 1.919916e-01 4.001360e+00 3.409751e-01 3.661435e+00 4.965393e-01 3.286029e+00 6.393396e-01 2.881563e+00 7.584176e-01 2.458942e+00 7.704185e-01 
4.719859e+00 4.178741e-02 3.587477e+00 -4.208475e-01 1.888114e+00 -4.079577e-01 4.318310e+00 -8.942891e-02 5.427565e+00 1.111734e-02 6.097605e+00 6.415795e-02 6.569095e+00 1.286831e-01 6.930031e+00 2.103222e-01 7.229636e+00 3.096440e-01 7.505921e+00 4.122801e-01 7.712465e+00 5.111850e-01 7.870628e+00 5.865064e-01 7.981104e+00 6.518618e-01 8.062059e+00 7.072982e-01 8.127198e+00 7.559429e-01 8.176912e+00 7.984016e-01 8.221820e+00 8.326955e-01 8.250075e+00 8.606186e-01 8.269009e+00 8.776627e-01 8.266729e+00 8.958333e-01 8.252203e+00 9.065705e-01 8.222960e+00 9.128475e-01 8.170015e+00 9.136682e-01 8.093470e+00 9.041490e-01 7.972273e+00 8.852988e-01 7.803283e+00 8.514690e-01 7.587922e+00 8.055736e-01 7.339488e+00 7.445325e-01 7.047664e+00 6.675901e-01 6.688496e+00 5.733443e-01 6.226430e+00 4.543042e-01 5.622069e+00 2.410075e-01 
4.930687e+00 3.212830e-01 3.991944e+00 -1.713103e-01 2.575168e+00 -1.746080e-01 4.297015e+00 -2.391619e-01 5.385330e+00 -1.539972e-01 6.107564e+00 -5.239895e-02 6.627262e+00 5.642119e-02 7.025685e+00 1.679475e-01 7.355441e+00 2.829680e-01 7.665811e+00 4.045798e-01 7.888128e+00 5.154233e-01 8.056695e+00 5.974522e-01 8.167500e+00 6.622945e-01 8.251917e+00 7.098645e-01 8.310874e+00 7.571386e-01 8.355873e+00 8.009200e-01 8.390215e+00 8.306147e-01 8.400812e+00 8.549032e-01 8.409460e+00 8.759019e-01 8.385296e+00 8.921368e-01 8.357057e+00 9.006628e-01 8.305083e+00 9.162882e-01 8.237092e+00 9.229063e-01 8.138490e+00 9.167949e-01 8.005814e+00 9.035381e-01 7.840400e+00 8.837950e-01 7.625935e+00 8.511460e-01 7.363263e+00 8.084443e-01 7.052313e+00 7.585064e-01 6.681960e+00 6.985180e-01 6.238063e+00 6.083144e-01 5.685323e+00 5.392929e-01 
5.249577e+00 9.515262e-02 4.392168e+00 -5.208144e-02 3.242973e+00 -6.397189e-02 4.412077e+00 -1.565420e-01 5.484187e+00 -1.056561e-01 6.230776e+00 -2.850929e-02 6.755820e+00 6.407145e-02 7.143416e+00 1.710057e-01 7.450330e+00 2.847545e-01 7.765320e+00 4.276370e-01 7.975090e+00 5.435358e-01 8.125343e+00 6.221109e-01 8.213604e+00 6.821614e-01 8.283694e+00 7.367388e-01 8.337729e+00 7.887102e-01 8.373626e+00 8.428543e-01 8.407208e+00 8.828295e-01 8.413190e+00 9.164590e-01 8.417590e+00 9.377683e-01 8.396154e+00 9.624306e-01 8.370084e+00 9.829454e-01 8.332988e+00 1.000955e+00 8.272300e+00 1.011526e+00 8.197734e+00 1.000390e+00 8.064966e+00 9.740177e-01 7.883149e+00 9.177836e-01 7.654933e+00 8.425389e-01 7.409749e+00 7.544121e-01 7.134320e+00 6.546108e-01 6.809377e+00 5.415095e-01 6.412855e+00 4.014651e-01 5.920860e+00 2.268155e-01 
5.513982e+00 2.687209e-01 4.830062e+00 1.623981e-01 3.879396e+00 1.493668e-01 4.669738e+00 -4.735394e-02 5.493078e+00 -1.162371e-01 6.172706e+00 -8.839538e-02 6.695374e+00 3.070756e-03 7.086902e+00 1.405884e-01 7.394291e+00 2.564695e-01 7.761600e+00 4.461309e-01 7.965884e+00 5.671557e-01 8.125574e+00 6.304479e-01 8.197908e+00 6.740183e-01 8.284628e+00 7.102742e-01 8.331903e+00 7.501468e-01 8.379692e+00 7.953405e-01 8.422630e+00 8.318471e-01 8.427694e+00 8.538145e-01 8.449655e+00 8.690286e-01 8.415585e+00 8.827994e-01 8.406863e+00 8.962686e-01 8.347503e+00 9.139731e-01 8.295814e+00 9.359092e-01 8.202154e+00 9.428385e-01 8.074292e+00 9.304697e-01 7.920527e+00 9.019431e-01 7.722849e+00 8.536884e-01 7.471812e+00 7.817931e-01 7.187375e+00 7.025839e-01 6.872670e+00 6.243692e-01 6.509680e+00 5.372999e-01 6.069054e+00 4.213539e-01 
5.879499e+00 1.868889e-01 5.274136e+00 2.140465e-01 4.495861e+00 2.010116e-01 5.043192e+00 5.441951e-02 5.708755e+00 -4.872216e-02 6.327508e+00 -8.446212e-02 6.838246e+00 -4.366078e-02 7.221743e+00 1.218672e-01 7.476176e+00 2.442317e-01 7.905394e+00 5.494883e-01 8.071550e+00 6.365182e-01 8.207790e+00 6.698622e-01 8.242179e+00 7.009907e-01 8.317809e+00 7.327712e-01 8.368156e+00 7.867430e-01 8.399989e+00 8.369792e-01 8.454624e+00 8.841382e-01 8.441769e+00 9.016588e-01 8.468229e+00 9.125384e-01 8.432547e+00 9.353206e-01 8.423103e+00 9.473657e-01 8.398462e+00 9.818135e-01 8.344165e+00 1.005179e+00 8.313229e+00 1.009199e+00 8.171948e+00 1.004509e+00 7.982852e+00 9.173813e-01 7.730164e+00 8.019451e-01 7.510578e+00 6.928188e-01 7.284519e+00 5.871988e-01 7.032410e+00 4.868536e-01 6.733575e+00 3.834965e-01 6.362185e+00 2.729305e-01 
6.204721e+00 3.253003e-01 5.722576e+00 3.694665e-01 5.082614e+00 3.568313e-01 5.434964e+00 2.025905e-01 5.882660e+00 2.783551e-02 6.372260e+00 -1.160311e-01 6.847689e+00 -1.867032e-01 7.234988e+00 2.529870e-02 7.435815e+00 2.424227e-01 8.012079e+00 6.609609e-01 8.074125e+00 7.045074e-01 8.239898e+00 6.620171e-01 8.212122e+00 7.096042e-01 8.341705e+00 6.881644e-01 8.348448e+00 7.695967e-01 8.405720e+00 7.758766e-01 8.479428e+00 8.667378e-01 8.442370e+00 8.370625e-01 8.528817e+00 8.612487e-01 8.433587e+00 8.645765e-01 8.500378e+00 8.647215e-01 8.395477e+00 8.993120e-01 8.406939e+00 9.236278e-01 8.307200e+00 1.008987e+00 8.184521e+00 9.725957e-01 8.033229e+00 9.657155e-01 7.855654e+00 8.674137e-01 7.596751e+00 7.106544e-01 7.354255e+00 5.963737e-01 7.130327e+00 5.244785e-01 6.882751e+00 4.610378e-01 6.581737e+00 3.870183e-01 
6.573522e+00 2.930869e-01 6.159268e+00 4.003439e-01 5.648977e+00 3.890782e-01 5.872707e+00 2.970570e-01 6.198251e+00 1.601578e-01 6.580109e+00 -3.101246e-02 6.994695e+00 -3.012646e-01 7.407984e+00 -1.988612e-01 7.527583e+00 2.544190e-01 8.293947e+00 9.379343e-01 8.136080e+00 8.083826e-01 8.326268e+00 5.597306e-01 8.261794e+00 7.964233e-01 8.348541e+00 6.297311e-01 8.444874e+00 8.422277e-01 8.381509e+00 8.189458e-01 8.576530e+00 8.940937e-01 8.423506e+00 9.401132e-01 8.562955e+00 7.882852e-01 8.462042e+00 9.865364e-01 8.479160e+00 8.040667e-01 8.516847e+00 9.925141e-01 8.403726e+00 9.692353e-01 8.547632e+00 9.966926e-01 8.336418e+00 1.233047e+00 8.115089e+00 9.533494e-01 7.746483e+00 7.222157e-01 7.592540e+00 5.769480e-01 7.454179e+00 4.701607e-01 7.310903e+00 4.065456e-01 7.129965e+00 3.536627e-01 6.889559e+00 3.034412e-01 
6.904573e+00 4.025579e-01 6.582352e+00 5.231942e-01 6.186953e+00 5.131728e-01 6.276207e+00 4.582133e-01 6.441247e+00 3.547021e-01 6.675725e+00 1.608107e-01 7.000913e+00 -2.060179e-01 7.378502e+00 -3.643288e-01 7.625963e+00 2.414075e-01 8.271386e+00 5.924979e-01 7.973859e+00 7.190518e-01 8.349020e+00 1.950210e-01 8.163143e+00 8.216291e-01 8.378633e+00 3.357221e-01 8.368737e+00 9.172696e-01 8.306946e+00 5.684831e-01 8.681622e+00 1.006541e+00 8.300074e+00 8.297438e-01 8.760146e+00 7.486060e-01 8.335173e+00 1.019947e+00 8.670484e+00 6.121200e-01 8.403387e+00 1.080449e+00 8.506549e+00 5.816365e-01 8.583372e+00 1.205509e+00 8.290627e+00 1.036162e+00 8.235536e+00 1.283341e+00 7.960596e+00 8.250545e-01 7.642862e+00 4.916369e-01 7.522317e+00 4.194318e-01 7.439703e+00 4.146197e-01 7.314198e+00 4.027726e-01 7.137902e+00 3.839989e-01 
7.256622e+00 3.925740e-01 6.994120e+00 5.287662e-01 6.703828e+00 5.196930e-01 6.720324e+00 5.043423e-01 6.816649e+00 5.171725e-01 6.962214e+00 6.086966e-01 7.086787e+00 7.023140e-01 7.190725e+00 2.999543e-01 7.436400e+00 -1.832852e-03 6.729895e+00 -1.479757e+00 7.192091e+00 -8.195108e-01 7.157779e+00 -8.565395e-01 7.697967e+00 -4.194199e-01 7.533753e+00 -1.503113e-01 7.897890e+00 -2.400371e-01 7.768438e+00 4.582591e-01 7.987369e+00 -9.239702e-02 7.938327e+00 8.024225e-01 7.923412e+00 -4.238490e-02 8.068739e+00 7.948854e-01 7.844815e+00 2.721918e-01 8.179176e+00 7.201496e-01 7.914986e+00 8.709380e-01 8.405053e+00 1.016881e+00 8.159421e+00 2.165806e+00 8.193376e+00 1.876026e+00 7.738249e+00 6.369851e-01 7.608075e+00 2.562114e-01 7.659524e+00 2.805561e-01 7.661352e+00 3.307552e-01 7.580391e+00 3.413078e-01 7.443925e+00 3.424698e-01 
7.567189e+00 4.719711e-01 7.383855e+00 6.009675e-01 7.193424e+00 5.929886e-01 7.127062e+00 5.974288e-01 7.104607e+00 7.014300e-01 7.035392e+00 1.076696e+00 6.744472e+00 1.657850e+00 6.328836e+00 1.166280e+00 6.384723e+00 -9.721772e-01 4.141424e+00 -2.382890e+00 5.143864e+00 -3.248881e+00 4.736704e+00 -1.672668e+00 5.231514e+00 -2.951181e+00 5.346655e+00 -1.989205e+00 5.175690e+00 -2.613166e+00 5.599175e+00 -2.664572e+00 4.842742e+00 -2.491397e+00 5.632301e+00 -2.835932e+00 5.076140e+00 -1.661135e+00 5.655065e+00 -2.440463e+00 5.448041e+00 -1.433928e+00 5.598532e+00 -1.978306e+00 5.693263e+00 -1.616512e+00 5.506592e+00 -1.836244e+00 6.125349e+00 -1.995149e+00 6.582943e+00 -1.472379e+00 7.154229e+00 -5.525739e-01 7.686069e+00 5.451132e-02 7.857447e+00 2.850126e-01 7.846102e+00 3.581572e-01 7.778358e+00 3.814227e-01 7.688356e+00 4.021466e-01 
7.888336e+00 4.692527e-01 7.762953e+00 5.921969e-01 7.661243e+00 5.861344e-01 7.520344e+00 5.775156e-01 7.417467e+00 6.113433e-01 7.278450e+00 7.957558e-01 7.014947e+00 1.118791e+00 6.720788e+00 9.589792e-01 6.693550e+00 3.667436e-01 5.552209e+00 -6.677839e-01 5.572738e+00 -1.291330e+00 5.191607e+00 -8.678018e-01 5.454889e+00 -1.938334e+00 5.357389e+00 -1.525084e+00 5.138084e+00 -2.250675e+00 5.487802e+00 -2.533661e+00 4.624619e+00 -2.464512e+00 5.439594e+00 -3.224101e+00 4.727558e+00 -1.790236e+00 5.284868e+00 -3.268274e+00 5.137932e+00 -1.757315e+00 4.960188e+00 -3.041157e+00 5.359201e+00 -2.610902e+00 4.332916e+00 -3.324091e+00 5.430018e+00 -5.160789e+00 5.943562e+00 -4.160104e+00 7.638878e+00 -1.088636e+00 8.215713e+00 1.265756e-01 8.222485e+00 3.761372e-01 8.119754e+00 3.835712e-01 8.037547e+00 3.714258e-01 7.970521e+00 3.881930e-01 
8.165834e+00 5.215261e-01 8.115279e+00 6.379239e-01 8.102375e+00 6.338806e-01 7.889019e+00 6.004628e-01 7.731497e+00 4.946959e-01 7.628578e+00 2.758907e-01 7.637542e+00 -2.196643e-02 7.721572e+00 6.574263e-02 7.599961e+00 9.182117e-01 8.283836e+00 1.025949e+00 7.905218e+00 1.372298e+00 7.987990e+00 4.770523e-01 8.049338e+00 8.502154e-01 7.783528e+00 5.142391e-01 8.060825e+00 3.122940e-01 7.816163e+00 7.106483e-01 8.008736e+00 -7.417231e-02 7.890043e+00 5.545135e-01 7.733392e+00 -4.042177e-01 7.927036e+00 1.964373e-02 7.595674e+00 -3.278194e-01 7.904220e+00 -4.947791e-01 7.644475e+00 -1.386079e-01 7.705297e+00 -9.017335e-01 7.737720e+00 -3.427997e-01 7.508446e+00 -1.000837e+00 7.675369e+00 -6.308877e-01 7.972867e+00 -5.902569e-02 8.133304e+00 2.354246e-01 8.177170e+00 3.401232e-01 8.183877e+00 3.815959e-01 8.183110e+00 4.265963e-01 
8.454601e+00 5.154936e-01 8.459033e+00 6.198311e-01 8.521719e+00 6.171990e-01 8.266824e+00 5.894235e-01 8.080644e+00 4.931135e-01 7.981252e+00 2.575298e-01 8.045888e+00 -1.133893e-01 8.182645e+00 -4.011675e-02 8.113307e+00 7.446385e-02 8.827879e+00 1.163041e+00 8.559942e+00 9.373507e-01 8.829467e+00 7.066792e-01 8.458567e+00 1.067608e+00 8.698265e+00 5.890895e-01 8.610591e+00 1.125899e+00 8.527096e+00 7.146971e-01 8.904810e+00 1.065148e+00 8.470632e+00 9.575587e-01 8.939345e+00 6.266669e-01 8.539680e+00 1.081909e+00 8.805005e+00 3.989354e-01 8.681572e+00 9.786236e-01 8.663800e+00 4.659665e-01 8.982817e+00 9.508531e-01 8.659951e+00 1.451681e+00 8.652696e+00 1.375546e+00 8.264370e+00 3.135039e-01 8.196806e+00 9.667352e-02 8.290807e+00 2.117600e-01 8.364206e+00 3.097549e-01 8.404091e+00 3.616779e-01 8.434740e+00 4.153544e-01 
8.696254e+00 5.425506e-01 8.774292e+00 6.275861e-01 8.915041e+00 6.258701e-01 8.638802e+00 5.783532e-01 8.438222e+00 4.846562e-01 8.326601e+00 3.631280e-01 8.329366e+00 2.498396e-01 8.401564e+00 3.079127e-01 8.416207e+00 4.997473e-01 8.781833e+00 7.142949e-01 8.665772e+00 8.533599e-01 8.690177e+00 6.810359e-01 8.656284e+00 8.773572e-01 8.649276e+00 7.480186e-01 8.697609e+00 8.880912e-01 8.630884e+00 8.365851e-01 8.773380e+00 9.081203e-01 8.624781e+00 8.712704e-01 8.781484e+00 7.642286e-01 8.633696e+00 9.032325e-01 8.734932e+00 6.974509e-01 8.684944e+00 9.446397e-01 8.689532e+00 7.381609e-01 8.811864e+00 1.072162e+00 8.640255e+00 1.035016e+00 8.682770e+00 1.133319e+00 8.523825e+00 6.948910e-01 8.368653e+00 3.528832e-01 8.370455e+00 2.873202e-01 8.444512e+00 3.244603e-01 8.529288e+00 3.757085e-01 8.615690e+00 4.412121e-01 
8.950003e+00 5.254980e-01 9.080800e+00 5.999575e-01 9.286497e+00 5.997703e-01 8.987401e+00 5.581871e-01 8.772637e+00 4.715610e-01 8.640125e+00 3.759234e-01 8.580860e+00 3.487415e-01 8.540404e+00 3.914943e-01 8.555544e+00 4.274770e-01 8.721816e+00 6.866724e-01 8.787203e+00 8.059754e-01 8.843726e+00 8.440430e-01 8.727081e+00 8.568393e-01 8.766131e+00 8.272368e-01 8.709408e+00 8.675831e-01 8.716484e+00 8.572547e-01 8.772923e+00 9.100572e-01 8.704705e+00 8.805407e-01 8.803226e+00 8.484597e-01 8.708837e+00 8.759740e-01 8.793786e+00 8.130422e-01 8.748474e+00 8.939537e-01 8.781385e+00 8.793842e-01 8.839790e+00 1.008636e+00 8.741518e+00 1.067662e+00 8.695775e+00 9.512599e-01 8.569641e+00 6.903855e-01 8.526013e+00 4.599363e-01 8.544597e+00 3.498558e-01 8.618688e+00 3.380836e-01 8.719531e+00 3.694144e-01 8.833078e+00 4.300079e-01 
9.160037e+00 5.473021e-01 9.355007e+00 6.099370e-01 9.632292e+00 6.111337e-01 9.309521e+00 5.835432e-01 9.068747e+00 5.311407e-01 8.898456e+00 4.793829e-01 8.790272e+00 4.600458e-01 8.726758e+00 4.854281e-01 8.713998e+00 5.604491e-01 8.790385e+00 6.723807e-01 8.830900e+00 7.884985e-01 8.831751e+00 8.318120e-01 8.794751e+00 8.407785e-01 8.772801e+00 8.496824e-01 8.753977e+00 8.443505e-01 8.753974e+00 8.653636e-01 8.763162e+00 8.723286e-01 8.757714e+00 8.538032e-01 8.771231e+00 8.461804e-01 8.744164e+00 8.211098e-01 8.764061e+00 8.312920e-01 8.746590e+00 8.379775e-01 8.776228e+00 8.702848e-01 8.786185e+00 9.088717e-01 8.777263e+00 8.936764e-01 8.747000e+00 8.501371e-01 8.705370e+00 7.336320e-01 8.659229e+00 5.614680e-01 8.654287e+00 4.319376e-01 8.721159e+00 3.853355e-01 8.841949e+00 4.003599e-01 8.993398e+00 4.577673e-01 
9.379676e+00 5.304483e-01 9.621487e+00 5.847801e-01 9.955913e+00 5.874581e-01 9.608124e+00 5.656913e-01 9.346076e+00 5.214775e-01 9.147002e+00 4.820635e-01 8.994924e+00 4.788619e-01 8.880674e+00 4.911993e-01 8.843683e+00 5.488499e-01 8.851876e+00 6.742851e-01 8.936454e+00 8.211611e-01 8.938693e+00 8.817678e-01 8.877053e+00 8.684132e-01 8.848695e+00 8.752786e-01 8.802595e+00 8.548421e-01 8.802158e+00 8.757702e-01 8.799613e+00 8.787029e-01 8.803206e+00 8.780800e-01 8.816589e+00 8.679304e-01 8.800602e+00 8.465583e-01 8.822715e+00 8.536557e-01 8.813435e+00 8.508351e-01 8.842117e+00 8.855483e-01 8.855701e+00 8.998456e-01 8.844196e+00 8.979464e-01 8.814905e+00 8.306690e-01 8.776933e+00 7.205429e-01 8.757931e+00 5.770541e-01 8.779993e+00 4.563065e-01 8.865696e+00 3.994984e-01 9.005455e+00 4.025483e-01 9.180647e+00 4.512771e-01 
9.561686e+00 5.598889e-01 9.855228e+00 6.098122e-01 1.025410e+01 6.142562e-01 9.869239e+00 6.085486e-01 9.578515e+00 5.746954e-01 9.355806e+00 5.249869e-01 9.182199e+00 5.120051e-01 9.040149e+00 5.248501e-01 8.990839e+00 5.605070e-01 8.935594e+00 7.440805e-01 9.031844e+00 8.742033e-01 8.976933e+00 9.210047e-01 8.916945e+00 8.634254e-01 8.875120e+00 8.881027e-01 8.817674e+00 8.448303e-01 8.835006e+00 8.658977e-01 8.791300e+00 8.636263e-01 8.839762e+00 8.537719e-01 8.802963e+00 8.571965e-01 8.816849e+00 7.997959e-01 8.816318e+00 8.314732e-01 8.810440e+00 7.884750e-01 8.859292e+00 8.448326e-01 8.841903e+00 8.478832e-01 8.892658e+00 8.693038e-01 8.845723e+00 8.187767e-01 8.865718e+00 7.521775e-01 8.842306e+00 5.991047e-01 8.855761e+00 4.730275e-01 8.955491e+00 4.223204e-01 9.119686e+00 4.321202e-01 9.324586e+00 4.839858e-01 
9.749072e+00 5.497403e-01 1.008152e+01 5.931287e-01 1.052986e+01 5.992106e-01 1.011774e+01 6.128901e-01 9.802091e+00 5.960919e-01 9.555029e+00 5.308873e-01 9.362648e+00 4.828518e-01 9.182800e+00 4.969734e-01 9.110319e+00 4.448623e-01 9.044079e+00 8.409048e-01 9.158878e+00 9.444734e-01 9.074183e+00 9.540314e-01 8.968393e+00 8.746658e-01 8.949288e+00 8.869863e-01 8.855758e+00 8.759355e-01 8.880336e+00 8.440297e-01 8.827781e+00 9.023780e-01 8.876905e+00 8.473221e-01 8.861149e+00 8.940744e-01 8.849592e+00 8.091061e-01 8.887293e+00 8.406544e-01 8.853350e+00 8.059978e-01 8.932112e+00 8.120175e-01 8.915826e+00 8.750040e-01 8.965403e+00 8.888478e-01 8.926653e+00 8.672421e-01 8.934696e+00 7.602991e-01 8.896997e+00 5.769126e-01 8.936566e+00 4.541321e-01 9.069632e+00 4.152552e-01 9.259227e+00 4.309059e-01 9.485436e+00 4.816624e-01 
9.903666e+00 5.861617e-01 1.027663e+01 6.265845e-01 1.078040e+01 6.344707e-01 1.032747e+01 6.746075e-01 9.977041e+00 6.868846e-01 9.703816e+00 6.173156e-01 9.501720e+00 5.264868e-01 9.310292e+00 5.030176e-01 9.220674e+00 3.549053e-01 9.148265e+00 8.818006e-01 9.235411e+00 9.230920e-01 9.096200e+00 8.976651e-01 8.967197e+00 8.215945e-01 8.967444e+00 8.084000e-01 8.828423e+00 8.697410e-01 8.893570e+00 7.382110e-01 8.779534e+00 9.226285e-01 8.905388e+00 7.693061e-01 8.829209e+00 9.185083e-01 8.830945e+00 7.342583e-01 8.878329e+00 8.106762e-01 8.800974e+00 7.493390e-01 8.958576e+00 6.965047e-01 8.871463e+00 8.979269e-01 9.028469e+00 9.399810e-01 8.910314e+00 1.046463e+00 9.034397e+00 8.673376e-01 8.904598e+00 4.828131e-01 8.967723e+00 3.914465e-01 9.151883e+00 4.137733e-01 9.368605e+00 4.593500e-01 9.613843e+00 5.192714e-01 
1.005909e+01 5.802006e-01 1.046456e+01 6.085083e-01 1.100824e+01 6.174456e-01 1.053854e+01 6.801159e-01 1.016605e+01 7.619501e-01 9.850425e+00 8.239439e-01 9.585616e+00 8.163210e-01 9.386870e+00 7.691648e-01 9.162108e+00 6.969279e-01 9.072345e+00 4.314816e-01 8.696357e+00 2.400827e-01 8.679504e+00 1.798107e-01 8.582759e+00 3.722828e-01 8.578183e+00 2.625171e-01 8.556023e+00 4.601488e-01 8.473829e+00 3.404957e-01 8.521963e+00 4.683965e-01 8.435545e+00 4.558231e-01 8.515271e+00 4.521134e-01 8.442917e+00 5.400265e-01 8.515918e+00 4.135475e-01 8.502899e+00 5.748150e-01 8.550119e+00 3.935246e-01 8.643455e+00 6.283354e-01 8.676689e+00 6.839882e-01 8.788832e+00 9.043636e-01 8.872561e+00 6.255010e-01 8.853705e+00 3.362671e-01 9.031160e+00 3.349825e-01 9.260754e+00 3.998330e-01 9.493409e+00 4.605723e-01 9.750176e+00 5.219785e-01 
1.018247e+01 6.087336e-01 1.062352e+01 6.274027e-01 1.121105e+01 6.374029e-01 1.071918e+01 7.271121e-01 1.031103e+01 9.041974e-01 9.910597e+00 1.161740e+00 9.512924e+00 1.294863e+00 9.260094e+00 1.224499e+00 8.782966e+00 1.350101e+00 8.436259e+00 -2.207597e-01 7.520548e+00 -7.478933e-01 7.391291e+00 -8.894175e-01 7.451165e+00 -7.946349e-01 7.266098e+00 -7.262647e-01 7.455543e+00 -9.076873e-01 7.215828e+00 -6.194226e-01 7.319839e+00 -1.075886e+00 7.014965e+00 -8.159335e-01 7.087408e+00 -1.072114e+00 7.154006e+00 -7.699426e-01 7.070445e+00 -8.155251e-01 7.355418e+00 -8.230840e-01 7.169330e+00 -6.680901e-01 7.479837e+00 -1.193781e+00 7.423030e+00 -1.301675e+00 7.885480e+00 -1.519399e+00 8.050072e+00 -9.081252e-01 8.765293e+00 -2.537748e-03 9.171360e+00 3.464140e-01 9.387091e+00 4.506169e-01 9.596255e+00 5.036587e-01 9.853943e+00 5.589503e-01 
1.030467e+01 6.006362e-01 1.077272e+01 6.094123e-01 1.139088e+01 6.205575e-01 1.087925e+01 7.001206e-01 1.045370e+01 8.353628e-01 1.005046e+01 1.010661e+00 9.658036e+00 1.118625e+00 9.345654e+00 1.131728e+00 8.896923e+00 1.226569e+00 8.638777e+00 3.123712e-01 7.915347e+00 -8.460617e-02 7.721660e+00 -3.303050e-01 7.694667e+00 -3.337779e-01 7.498977e+00 -4.055627e-01 7.618600e+00 -5.896473e-01 7.384776e+00 -4.407488e-01 7.474802e+00 -8.489496e-01 7.191105e+00 -6.881416e-01 7.254213e+00 -9.591412e-01 7.303038e+00 -7.321830e-01 7.232588e+00 -8.225492e-01 7.494611e+00 -8.588386e-01 7.317427e+00 -7.581568e-01 7.601142e+00 -1.329447e+00 7.526578e+00 -1.528902e+00 7.959714e+00 -1.847600e+00 8.093580e+00 -1.176229e+00 8.864495e+00 -7.491864e-02 9.280877e+00 3.489677e-01 9.488383e+00 4.643141e-01 9.695578e+00 5.139198e-01 9.959809e+00 5.627096e-01 
1.039610e+01 6.166641e-01 1.089418e+01 6.230533e-01 1.154574e+01 6.353602e-01 1.101439e+01 6.901079e-01 1.058950e+01 7.270351e-01 1.024408e+01 6.979903e-01 9.954348e+00 6.771421e-01 9.645373e+00 7.198696e-01 9.432152e+00 5.984645e-01 9.298066e+00 1.038856e+00 9.241239e+00 1.059164e+00 9.094741e+00 9.159246e-01 8.911413e+00 8.875454e-01 8.859581e+00 6.812862e-01 8.750449e+00 7.897748e-01 8.693963e+00 5.536980e-01 8.693356e+00 6.899104e-01 8.654313e+00 5.585381e-01 8.692167e+00 5.347392e-01 8.617011e+00 5.123005e-01 8.693669e+00 3.461316e-01 8.666294e+00 4.628563e-01 8.728225e+00 2.252297e-01 8.810119e+00 4.263789e-01 8.832145e+00 3.989346e-01 8.928049e+00 5.477423e-01 8.958185e+00 2.946901e-01 9.015051e+00 2.283718e-01 9.237156e+00 3.438822e-01 9.481386e+00 4.486003e-01 9.734019e+00 5.225126e-01 1.002602e+01 5.814720e-01 
1.048729e+01 6.043095e-01 1.100505e+01 6.042657e-01 1.167775e+01 6.172247e-01 1.113981e+01 6.700799e-01 1.071296e+01 7.032624e-01 1.037435e+01 6.692284e-01 1.009682e+01 6.348232e-01 9.815691e+00 6.238295e-01 9.675030e+00 4.929646e-01 9.454723e+00 9.844837e-01 9.575205e+00 1.061237e+00 9.364683e+00 1.086979e+00 9.196912e+00 9.158496e-01 9.154804e+00 9.361087e-01 8.978882e+00 9.239032e-01 9.041964e+00 8.036110e-01 8.895814e+00 9.506435e-01 9.025143e+00 7.718773e-01 8.933088e+00 9.173220e-01 8.943493e+00 7.022973e-01 8.995255e+00 7.766662e-01 8.923210e+00 6.980500e-01 9.091449e+00 6.326330e-01 9.014363e+00 8.425811e-01 9.196064e+00 8.788291e-01 9.108323e+00 1.022174e+00 9.277152e+00 8.173784e-01 9.188799e+00 4.298677e-01 9.307566e+00 3.859398e-01 9.538883e+00 4.533622e-01 9.800210e+00 5.227829e-01 1.010269e+01 5.778771e-01 
1.054795e+01 6.109402e-01 1.108992e+01 6.041944e-01 1.178493e+01 6.174093e-01 1.125012e+01 6.623446e-01 1.082561e+01 7.041311e-01 1.048162e+01 7.240155e-01 1.018544e+01 7.396560e-01 9.919315e+00 7.375290e-01 9.746937e+00 7.222870e-01 9.557820e+00 9.223615e-01 9.518017e+00 9.811613e-01 9.373291e+00 1.005753e+00 9.218381e+00 9.353464e-01 9.149462e+00 9.244273e-01 9.026738e+00 8.980687e-01 9.014440e+00 8.471032e-01 8.944242e+00 8.816132e-01 8.967803e+00 8.111521e-01 8.943352e+00 8.447872e-01 8.928681e+00 7.519781e-01 8.967447e+00 7.714783e-01 8.938118e+00 7.256328e-01 9.029839e+00 7.208619e-01 9.022882e+00 7.875268e-01 9.122961e+00 7.999062e-01 9.134304e+00 8.156764e-01 9.244719e+00 7.429156e-01 9.267133e+00 5.631608e-01 9.370500e+00 4.859617e-01 9.569828e+00 4.999213e-01 9.828354e+00 5.471613e-01 1.014332e+01 5.933970e-01 
1.060906e+01 5.988461e-01 1.116247e+01 5.877079e-01 1.186920e+01 6.013383e-01 1.133373e+01 6.483171e-01 1.090804e+01 6.974686e-01 1.055800e+01 7.345993e-01 1.024978e+01 7.633523e-01 9.983066e+00 7.614597e-01 9.786534e+00 7.945365e-01 9.566286e+00 8.539567e-01 9.524522e+00 9.559495e-01 9.384055e+00 9.912650e-01 9.271206e+00 9.319867e-01 9.162651e+00 9.398119e-01 9.062268e+00 8.774061e-01 9.039241e+00 8.819263e-01 8.963622e+00 8.590556e-01 8.998306e+00 8.410278e-01 8.945600e+00 8.334096e-01 8.968495e+00 7.661659e-01 8.968016e+00 7.832402e-01 8.976746e+00 7.225093e-01 9.039168e+00 7.622757e-01 9.043187e+00 7.583931e-01 9.143121e+00 7.852589e-01 9.159439e+00 7.577891e-01 9.267681e+00 7.234038e-01 9.334078e+00 6.110197e-01 9.439404e+00 5.340394e-01 9.626190e+00 5.258395e-01 9.879174e+00 5.564795e-01 1.019622e+01 5.911259e-01 
1.064227e+01 6.116505e-01 1.120888e+01 5.971654e-01 1.192872e+01 6.111110e-01 1.139385e+01 6.650196e-01 1.096471e+01 7.286960e-01 1.060745e+01 7.806062e-01 1.029536e+01 8.144293e-01 1.002606e+01 8.308376e-01 9.807637e+00 8.555981e-01 9.612374e+00 8.897606e-01 9.496201e+00 9.328641e-01 9.367537e+00 9.499460e-01 9.249281e+00 9.264792e-01 9.150748e+00 9.144064e-01 9.063562e+00 8.782968e-01 9.016210e+00 8.651392e-01 8.967759e+00 8.429752e-01 8.959184e+00 8.246930e-01 8.938229e+00 8.048151e-01 8.938834e+00 7.693835e-01 8.946533e+00 7.607893e-01 8.958935e+00 7.294779e-01 9.001990e+00 7.344996e-01 9.035470e+00 7.213149e-01 9.105984e+00 7.219231e-01 9.161700e+00 6.979119e-01 9.254649e+00 6.739062e-01 9.344977e+00 6.211219e-01 9.467896e+00 5.767496e-01 9.651821e+00 5.673523e-01 9.900183e+00 5.871746e-01 1.021971e+01 6.117895e-01 
1.067442e+01 6.054196e-01 1.124320e+01 5.881916e-01 1.196519e+01 6.022856e-01 1.143058e+01 6.587119e-01 1.100013e+01 7.274153e-01 1.063941e+01 7.843175e-01 1.032393e+01 8.199965e-01 1.005148e+01 8.409864e-01 9.821571e+00 8.632010e-01 9.624131e+00 8.836121e-01 9.496737e+00 9.180954e-01 9.372698e+00 9.343067e-01 9.263581e+00 9.227678e-01 9.162613e+00 9.091180e-01 9.080696e+00 8.808933e-01 9.029268e+00 8.667113e-01 8.983677e+00 8.460617e-01 8.971320e+00 8.298405e-01 8.950910e+00 8.067335e-01 8.953633e+00 7.790635e-01 8.958530e+00 7.627965e-01 8.976520e+00 7.392847e-01 9.013899e+00 7.342097e-01 9.052789e+00 7.196562e-01 9.119938e+00 7.120741e-01 9.182025e+00 6.899908e-01 9.276069e+00 6.652884e-01 9.378491e+00 6.280329e-01 9.508551e+00 5.940581e-01 9.690467e+00 5.830807e-01 9.934214e+00 5.956564e-01 1.025118e+01 6.121664e-01 
1.067994e+01 6.253557e-01 1.125165e+01 6.078539e-01 1.197698e+01 6.220544e-01 1.144131e+01 6.820554e-01 1.100912e+01 7.553142e-01 1.064662e+01 8.152473e-01 1.033053e+01 8.535184e-01 1.005577e+01 8.767718e-01 9.822271e+00 8.924501e-01 9.627751e+00 9.053376e-01 9.477227e+00 9.165606e-01 9.347622e+00 9.190804e-01 9.234775e+00 9.090449e-01 9.139738e+00 8.925941e-01 9.061994e+00 8.704214e-01 9.006314e+00 8.509230e-01 8.965289e+00 8.304965e-01 8.942266e+00 8.108708e-01 8.928060e+00 7.883209e-01 8.924929e+00 7.655528e-01 8.932618e+00 7.453383e-01 8.950760e+00 7.248885e-01 8.985520e+00 7.091537e-01 9.030872e+00 6.924179e-01 9.092911e+00 6.782898e-01 9.165341e+00 6.600742e-01 9.257960e+00 6.412456e-01 9.367754e+00 6.215365e-01 9.507905e+00 6.064373e-01 9.694000e+00 6.052612e-01 9.937678e+00 6.193728e-01 1.025471e+01 6.339469e-01 
1.068290e+01 6.231701e-01 1.124795e+01 6.049883e-01 1.196564e+01 6.190648e-01 1.143258e+01 6.794947e-01 1.100205e+01 7.533273e-01 1.064034e+01 8.133008e-01 1.032468e+01 8.516246e-01 1.004953e+01 8.747660e-01 9.814623e+00 8.880366e-01 9.619720e+00 8.988981e-01 9.468181e+00 9.060820e-01 9.340912e+00 9.082310e-01 9.232287e+00 9.008148e-01 9.140376e+00 8.868371e-01 9.065260e+00 8.687529e-01 9.010970e+00 8.502305e-01 8.970829e+00 8.324868e-01 8.948058e+00 8.130042e-01 8.934371e+00 7.923191e-01 8.932140e+00 7.703214e-01 8.940473e+00 7.496688e-01 8.959551e+00 7.296165e-01 8.994203e+00 7.109966e-01 9.039705e+00 6.938148e-01 9.101827e+00 6.764366e-01 9.175780e+00 6.585918e-01 9.270415e+00 6.394357e-01 9.383812e+00 6.219117e-01 9.526485e+00 6.100487e-01 9.711578e+00 6.096523e-01 9.951376e+00 6.218344e-01 1.026334e+01 6.336267e-01 
1.065928e+01 6.463033e-01 1.121855e+01 6.303146e-01 1.192966e+01 6.441979e-01 1.139779e+01 7.042485e-01 1.096847e+01 7.772270e-01 1.060812e+01 8.360294e-01 1.029415e+01 8.732433e-01 1.002061e+01 8.939901e-01 9.787223e+00 9.033173e-01 9.593138e+00 9.071724e-01 9.435413e+00 9.053583e-01 9.304925e+00 8.992241e-01 9.195768e+00 8.879620e-01 9.106557e+00 8.721083e-01 9.034639e+00 8.537827e-01 8.980701e+00 8.342091e-01 8.941880e+00 8.149132e-01 8.917024e+00 7.946566e-01 8.904023e+00 7.737407e-01 8.901004e+00 7.525574e-01 8.909679e+00 7.313120e-01 8.929297e+00 7.107808e-01 8.963149e+00 6.905536e-01 9.009895e+00 6.721693e-01 9.071096e+00 6.548551e-01 9.147356e+00 6.391364e-01 9.242164e+00 6.250781e-01 9.358577e+00 6.155864e-01 9.505541e+00 6.131807e-01 9.693343e+00 6.206912e-01 9.933384e+00 6.379458e-01 1.024357e+01 6.532952e-01 