# vtk DataFile Version 2.0
Comment goes here
ASCII

DATASET STRUCTURED_POINTS
FIELD FieldData 1
TIME 1 1 double
0.01500000
DIMENSIONS    64   64   1

ORIGIN    0.000   0.000   0.000
SPACING   0.03125 0.03125   1.000

POINT_DATA   4096
SCALARS uX double
LOOKUP_TABLE default

1.041437e-01 -5.978120e-01 4.332042e-01 -6.685732e-01 4.336092e-01 -5.992713e-01 3.168655e-01 -4.599731e-01 1.712938e-01 -2.966047e-01 1.914362e-02 -1.390323e-01 -1.133968e-01 -9.992467e-03 -2.128497e-01 8.093234e-02 -2.700540e-01 1.264036e-01 -2.859998e-01 1.318217e-01 -2.676112e-01 1.096360e-01 -2.336707e-01 8.155293e-02 -2.024054e-01 5.678656e-02 -1.779596e-01 4.224211e-02 -1.655356e-01 3.881534e-02 -1.624462e-01 4.307020e-02 -1.661839e-01 4.713429e-02 -1.562652e-01 2.707149e-02 -1.278144e-01 7.920605e-03 -1.215104e-01 1.782080e-02 -1.387874e-01 3.397171e-02 -1.443757e-01 2.487916e-02 -1.191932e-01 -1.380383e-02 -6.837930e-02 -7.451517e-02 -7.176866e-03 -1.303981e-01 3.339262e-02 -1.510268e-01 2.345867e-02 -1.142205e-01 -4.346313e-02 -3.356224e-02 -1.392853e-01 5.693270e-02 -2.208444e-01 9.962204e-02 -2.236964e-01 3.895224e-02 -1.147452e-01 -1.246927e-01 
-1.413393e-02 3.316324e-01 -4.036907e-01 4.043012e-01 -4.164544e-01 3.627078e-01 -3.434195e-01 2.806357e-01 -2.670105e-01 1.856654e-01 -1.885661e-01 9.207278e-02 -1.196146e-01 1.121116e-02 -6.505366e-02 -5.121036e-02 -3.057469e-02 -9.000539e-02 -1.504050e-02 -1.081199e-01 -1.833128e-02 -1.082699e-01 -2.875880e-02 -1.060924e-01 -3.674533e-02 -1.042159e-01 -4.124244e-02 -1.067093e-01 -3.887225e-02 -1.174518e-01 -2.900337e-02 -1.320871e-01 -1.519401e-02 -1.480639e-01 -9.320912e-03 -1.468258e-01 -1.577226e-02 -1.453678e-01 -1.017689e-02 -1.608196e-01 1.175871e-02 -1.793913e-01 2.537629e-02 -1.833801e-01 2.231320e-02 -1.698868e-01 4.523236e-03 -1.427583e-01 -1.863233e-02 -1.168696e-01 -3.204208e-02 -1.057542e-01 -2.151809e-02 -1.221889e-01 1.650843e-02 -1.593328e-01 6.980064e-02 -2.041960e-01 1.211607e-01 -2.298413e-01 1.360889e-01 -2.036648e-01 9.453083e-02 -1.252038e-01 
4.634436e-01 3.790588e-01 6.330650e-02 4.397570e-01 8.427417e-02 3.895317e-01 1.582548e-01 2.892027e-01 2.894298e-01 1.779818e-01 4.304064e-01 7.422450e-02 5.552541e-01 -7.932655e-03 6.550827e-01 -6.450404e-02 7.229386e-01 -9.185398e-02 7.594467e-01 -9.511379e-02 7.688190e-01 -8.160818e-02 7.645978e-01 -6.682260e-02 7.606075e-01 -5.518937e-02 7.584559e-01 -5.083942e-02 7.632059e-01 -5.565674e-02 7.737731e-01 -6.643468e-02 7.889388e-01 -7.848850e-02 7.923116e-01 -7.046779e-02 7.781123e-01 -6.260803e-02 7.803662e-01 -7.883398e-02 8.005154e-01 -9.985628e-02 8.094115e-01 -1.025654e-01 7.937200e-01 -8.453014e-02 7.570701e-01 -5.125235e-02 7.089619e-01 -2.128685e-02 6.700676e-01 -1.423054e-02 6.621562e-01 -4.593339e-02 6.913040e-01 -1.067529e-01 7.389225e-01 -1.759982e-01 7.775071e-01 -2.150711e-01 7.603403e-01 -1.814485e-01 6.629365e-01 -7.051818e-02 
4.933518e-01 -1.981326e-01 5.086429e-01 -1.976261e-01 1.210128e-01 -1.586707e-01 4.266243e-01 -1.089145e-01 6.176083e-01 -6.480827e-02 7.451353e-01 -2.624604e-02 8.392838e-01 5.213274e-03 9.133182e-01 2.953184e-02 9.764635e-01 4.336000e-02 1.030432e+00 4.828045e-02 1.079953e+00 4.433593e-02 1.121471e+00 4.102073e-02 1.152460e+00 3.806075e-02 1.175188e+00 3.807493e-02 1.189018e+00 4.231516e-02 1.195378e+00 4.874548e-02 1.195230e+00 5.633248e-02 1.198285e+00 5.100653e-02 1.208185e+00 4.524061e-02 1.206719e+00 5.233457e-02 1.189793e+00 6.237628e-02 1.174353e+00 6.316082e-02 1.163784e+00 5.435918e-02 1.155744e+00 3.554631e-02 1.145815e+00 1.482820e-02 1.124547e+00 1.815889e-04 1.084672e+00 2.146675e-03 1.022790e+00 1.848116e-02 9.420009e-01 4.559531e-02 8.434470e-01 7.206388e-02 7.382393e-01 8.311129e-02 6.242430e-01 9.377574e-02 
6.541124e-01 -1.060126e-01 5.931261e-01 -9.868934e-02 2.302421e-01 -7.865086e-02 5.453061e-01 -5.391683e-02 7.231290e-01 -3.427421e-02 8.422306e-01 -1.729474e-02 9.318772e-01 -2.052907e-03 1.003223e+00 1.223132e-02 1.062361e+00 2.250273e-02 1.109063e+00 2.859380e-02 1.148747e+00 2.987145e-02 1.179873e+00 3.193504e-02 1.203273e+00 3.287340e-02 1.220501e+00 3.548962e-02 1.231565e+00 3.891497e-02 1.238306e+00 4.332382e-02 1.239898e+00 4.795310e-02 1.243019e+00 4.540284e-02 1.248226e+00 4.263426e-02 1.247460e+00 4.558412e-02 1.237289e+00 5.078012e-02 1.226250e+00 5.066753e-02 1.215237e+00 4.660536e-02 1.201962e+00 3.615812e-02 1.185594e+00 2.238050e-02 1.160213e+00 8.881611e-03 1.125607e+00 2.874010e-03 1.080637e+00 4.296075e-03 1.024845e+00 1.290721e-02 9.550395e-01 2.478158e-02 8.729155e-01 3.304306e-02 7.724349e-01 4.077991e-02 
6.244121e-01 -9.876082e-02 5.431924e-01 -1.207042e-01 3.606174e-01 -1.213677e-01 5.373555e-01 -9.082213e-02 6.807834e-01 -6.054054e-02 7.900414e-01 -3.175138e-02 8.756858e-01 -5.437455e-03 9.463105e-01 1.726001e-02 1.006860e+00 3.267238e-02 1.055718e+00 4.037668e-02 1.098671e+00 4.124379e-02 1.132977e+00 4.151351e-02 1.160350e+00 4.027910e-02 1.180213e+00 4.210555e-02 1.192890e+00 4.460462e-02 1.200972e+00 4.894226e-02 1.203870e+00 5.218935e-02 1.208055e+00 5.109925e-02 1.210585e+00 5.070996e-02 1.209259e+00 5.257994e-02 1.200400e+00 5.694747e-02 1.189766e+00 5.593990e-02 1.179419e+00 5.085345e-02 1.166777e+00 3.908862e-02 1.150470e+00 2.453115e-02 1.121743e+00 1.216043e-02 1.081423e+00 9.202305e-03 1.028791e+00 1.547964e-02 9.639212e-01 2.690204e-02 8.878832e-01 3.569191e-02 8.045335e-01 3.177597e-02 7.151871e-01 2.569375e-03 
7.443533e-01 -5.083136e-02 6.424661e-01 -6.237871e-02 4.612686e-01 -6.278792e-02 6.365701e-01 -4.841430e-02 7.732407e-01 -3.505924e-02 8.762919e-01 -2.172447e-02 9.574691e-01 -6.947552e-03 1.025713e+00 9.966406e-03 1.085243e+00 2.266643e-02 1.126366e+00 2.987939e-02 1.163294e+00 3.071034e-02 1.188836e+00 3.458458e-02 1.210677e+00 3.341364e-02 1.225907e+00 3.834066e-02 1.234755e+00 3.951851e-02 1.243055e+00 4.405162e-02 1.243922e+00 4.627299e-02 1.249743e+00 4.493211e-02 1.249571e+00 4.613056e-02 1.250590e+00 4.481853e-02 1.244100e+00 4.979188e-02 1.235830e+00 4.762564e-02 1.227032e+00 4.745459e-02 1.212075e+00 3.955571e-02 1.196288e+00 2.711787e-02 1.164007e+00 1.140349e-02 1.127543e+00 2.802050e-03 1.087117e+00 1.335604e-03 1.039855e+00 4.414283e-03 9.830795e-01 8.058677e-03 9.157503e-01 6.809013e-03 8.358257e-01 -6.406111e-03 
7.445920e-01 -6.185486e-02 6.738101e-01 -8.335311e-02 5.802607e-01 -8.365369e-02 6.792442e-01 -7.181370e-02 7.737120e-01 -5.435787e-02 8.547191e-01 -3.451484e-02 9.239509e-01 -1.248325e-02 9.866542e-01 1.198703e-02 1.046205e+00 2.944012e-02 1.084256e+00 3.883220e-02 1.122999e+00 3.845270e-02 1.148436e+00 4.315833e-02 1.172443e+00 3.900859e-02 1.189267e+00 4.511974e-02 1.197985e+00 4.447363e-02 1.208571e+00 4.970182e-02 1.208039e+00 5.159057e-02 1.216202e+00 4.991057e-02 1.213740e+00 5.305546e-02 1.215990e+00 4.963794e-02 1.209677e+00 5.626692e-02 1.201706e+00 5.193364e-02 1.194636e+00 5.308085e-02 1.178832e+00 4.431332e-02 1.165048e+00 3.124554e-02 1.127823e+00 1.399847e-02 1.087619e+00 6.502669e-03 1.044152e+00 7.020464e-03 9.946278e-01 1.053190e-02 9.384116e-01 1.108883e-02 8.768982e-01 2.347412e-03 8.115547e-01 -2.157105e-02 
8.443477e-01 -3.589998e-02 7.674332e-01 -4.660882e-02 6.724482e-01 -4.685525e-02 7.684087e-01 -4.220243e-02 8.574227e-01 -3.565825e-02 9.323200e-01 -2.740673e-02 9.960343e-01 -1.391943e-02 1.057106e+00 1.170773e-02 1.126361e+00 2.877818e-02 1.147920e+00 3.739569e-02 1.188860e+00 2.871374e-02 1.201764e+00 4.229183e-02 1.224317e+00 2.779109e-02 1.237974e+00 4.521148e-02 1.238293e+00 3.649673e-02 1.255359e+00 4.747779e-02 1.242978e+00 4.775977e-02 1.262271e+00 4.223826e-02 1.249957e+00 5.186630e-02 1.260845e+00 3.781921e-02 1.253068e+00 5.602847e-02 1.245682e+00 4.239250e-02 1.245304e+00 5.622737e-02 1.222933e+00 4.700362e-02 1.223497e+00 3.550507e-02 1.171687e+00 6.785710e-03 1.133423e+00 -4.506447e-03 1.100535e+00 -6.256056e-03 1.064498e+00 -4.779859e-03 1.021678e+00 -4.055759e-03 9.708938e-01 -7.462617e-03 9.116272e-01 -1.786286e-02 
8.667051e-01 -4.713251e-02 8.236586e-01 -6.150111e-02 7.808341e-01 -6.174451e-02 8.280376e-01 -5.843610e-02 8.808961e-01 -5.044516e-02 9.314247e-01 -3.937424e-02 9.789082e-01 -2.206364e-02 1.030648e+00 1.340016e-02 1.106587e+00 3.486380e-02 1.112413e+00 4.685892e-02 1.159918e+00 3.072563e-02 1.165896e+00 5.375940e-02 1.191038e+00 2.723390e-02 1.207008e+00 5.535251e-02 1.200867e+00 3.792936e-02 1.227541e+00 5.442769e-02 1.203563e+00 5.396324e-02 1.234622e+00 4.438668e-02 1.212631e+00 6.163493e-02 1.230612e+00 3.675023e-02 1.221323e+00 6.666820e-02 1.212204e+00 4.212830e-02 1.219223e+00 6.555136e-02 1.188642e+00 5.310022e-02 1.203253e+00 4.264410e-02 1.136359e+00 6.076571e-03 1.097054e+00 -4.309575e-03 1.065694e+00 -4.492356e-03 1.032205e+00 -2.936385e-03 9.943883e-01 -4.343019e-03 9.530915e-01 -1.194424e-02 9.099362e-01 -2.717913e-02 
9.530964e-01 -2.988383e-02 9.083837e-01 -3.720986e-02 8.647335e-01 -3.742338e-02 9.086192e-01 -3.797900e-02 9.564162e-01 -3.790368e-02 9.998030e-01 -3.816461e-02 1.037363e+00 -3.304069e-02 1.081426e+00 1.973236e-02 1.213814e+00 4.483033e-02 1.150912e+00 6.007964e-02 1.240588e+00 5.135618e-03 1.206520e+00 7.712934e-02 1.244808e+00 -1.048728e-02 1.264702e+00 7.904016e-02 1.223813e+00 1.158824e-02 1.297445e+00 6.354288e-02 1.210360e+00 5.236666e-02 1.305231e+00 2.616471e-02 1.228303e+00 7.953974e-02 1.287703e+00 -1.015711e-03 1.263314e+00 9.420051e-02 1.246649e+00 8.428896e-03 1.286825e+00 8.959488e-02 1.210110e+00 5.401379e-02 1.303550e+00 6.347007e-02 1.164687e+00 -1.548200e-02 1.134069e+00 -2.160468e-02 1.117231e+00 -1.722604e-02 1.095952e+00 -1.334939e-02 1.068155e+00 -1.212751e-02 1.034370e+00 -1.451198e-02 9.955568e-01 -2.085741e-02 
9.874781e-01 -3.883145e-02 9.712728e-01 -4.802672e-02 9.630664e-01 -4.822811e-02 9.726138e-01 -4.961276e-02 9.911959e-01 -4.941316e-02 1.011425e+00 -5.022085e-02 1.029581e+00 -5.006438e-02 1.052873e+00 -1.337366e-02 1.148343e+00 -1.453016e-04 1.091856e+00 1.240694e-02 1.162081e+00 -3.495155e-02 1.134264e+00 2.722607e-02 1.163502e+00 -4.761373e-02 1.182975e+00 2.775702e-02 1.146694e+00 -2.974912e-02 1.212176e+00 1.257715e-02 1.137281e+00 4.703774e-03 1.218469e+00 -1.888079e-02 1.153053e+00 3.002002e-02 1.201746e+00 -3.974233e-02 1.183132e+00 4.385546e-02 1.166666e+00 -2.965991e-02 1.205957e+00 4.122099e-02 1.139569e+00 1.530668e-02 1.229077e+00 3.050984e-02 1.114520e+00 -2.843044e-02 1.098934e+00 -2.561126e-02 1.089604e+00 -1.788775e-02 1.074218e+00 -1.352536e-02 1.053844e+00 -1.363451e-02 1.031005e+00 -1.852414e-02 1.008118e+00 -2.769341e-02 
1.063431e+00 -2.598405e-02 1.047137e+00 -3.080127e-02 1.038836e+00 -3.096989e-02 1.045768e+00 -3.430235e-02 1.060377e+00 -3.964336e-02 1.073192e+00 -5.373547e-02 1.071088e+00 -9.788629e-02 1.018257e+00 -2.560380e-01 7.656494e-01 -3.492068e-01 9.233093e-01 -4.073611e-01 7.671504e-01 -3.046985e-01 8.622923e-01 -4.599068e-01 8.060602e-01 -2.866967e-01 7.838292e-01 -4.732206e-01 8.852025e-01 -3.443043e-01 7.467170e-01 -4.492057e-01 9.322454e-01 -4.301442e-01 7.406767e-01 -3.678779e-01 8.939479e-01 -4.731308e-01 7.682503e-01 -3.004930e-01 8.102887e-01 -4.880077e-01 8.401926e-01 -3.090051e-01 7.545905e-01 -4.604766e-01 9.107901e-01 -3.690054e-01 7.330493e-01 -3.335575e-01 1.042295e+00 -1.134974e-01 1.122809e+00 -4.975345e-02 1.138682e+00 -2.785087e-02 1.133916e+00 -1.933633e-02 1.120499e+00 -1.659631e-02 1.102696e+00 -1.746233e-02 1.082911e+00 -2.098662e-02 
1.103048e+00 -3.270851e-02 1.109756e+00 -3.856254e-02 1.127539e+00 -3.870266e-02 1.108950e+00 -4.222993e-02 1.100428e+00 -4.702129e-02 1.093411e+00 -6.069966e-02 1.072913e+00 -1.088542e-01 9.949702e-01 -2.976877e-01 6.755258e-01 -4.072891e-01 8.619618e-01 -4.789432e-01 6.614996e-01 -3.484515e-01 7.749423e-01 -5.465481e-01 7.010372e-01 -3.262716e-01 6.687890e-01 -5.649569e-01 7.960119e-01 -4.004090e-01 6.168386e-01 -5.350552e-01 8.532617e-01 -5.118325e-01 6.072874e-01 -4.327136e-01 8.037907e-01 -5.702567e-01 6.430850e-01 -3.491009e-01 6.968719e-01 -5.930551e-01 7.369391e-01 -3.635966e-01 6.249425e-01 -5.622659e-01 8.288241e-01 -4.480857e-01 5.937748e-01 -4.086949e-01 9.952154e-01 -1.294339e-01 1.096844e+00 -5.267524e-02 1.119976e+00 -2.810578e-02 1.121234e+00 -1.969110e-02 1.115656e+00 -1.814820e-02 1.108744e+00 -2.076976e-02 1.103656e+00 -2.616600e-02 
1.170125e+00 -2.237954e-02 1.177232e+00 -2.528009e-02 1.195301e+00 -2.537984e-02 1.175719e+00 -2.859671e-02 1.166653e+00 -3.268078e-02 1.161999e+00 -3.941560e-02 1.156559e+00 -4.956427e-02 1.149627e+00 -4.903481e-02 1.173416e+00 -5.703178e-02 1.139250e+00 -6.099381e-02 1.159233e+00 -8.324276e-02 1.144375e+00 -6.518933e-02 1.149968e+00 -9.375989e-02 1.155978e+00 -7.166004e-02 1.141093e+00 -9.318170e-02 1.164119e+00 -8.213143e-02 1.138058e+00 -8.512197e-02 1.163708e+00 -9.321382e-02 1.142007e+00 -7.599817e-02 1.155169e+00 -9.776331e-02 1.150614e+00 -7.055625e-02 1.144724e+00 -9.254186e-02 1.160481e+00 -6.893663e-02 1.143707e+00 -7.025609e-02 1.178933e+00 -5.186027e-02 1.161148e+00 -5.111504e-02 1.173691e+00 -3.535876e-02 1.180126e+00 -2.493689e-02 1.180273e+00 -1.950497e-02 1.177033e+00 -1.740975e-02 1.172789e+00 -1.766321e-02 1.169682e+00 -1.957262e-02 
1.210806e+00 -2.731349e-02 1.236487e+00 -3.077124e-02 1.274708e+00 -3.083500e-02 1.235708e+00 -3.372889e-02 1.208939e+00 -3.628215e-02 1.190307e+00 -3.869877e-02 1.178274e+00 -3.488768e-02 1.184608e+00 2.211402e-02 1.299547e+00 4.935936e-02 1.201894e+00 6.672366e-02 1.282329e+00 5.078321e-03 1.227843e+00 8.652957e-02 1.258006e+00 -1.280296e-02 1.271836e+00 8.794233e-02 1.217854e+00 1.090916e-02 1.297519e+00 6.870440e-02 1.195158e+00 5.580188e-02 1.301432e+00 2.526949e-02 1.213774e+00 8.625625e-02 1.281858e+00 -6.210815e-03 1.257530e+00 1.020406e-01 1.241842e+00 3.907037e-03 1.293964e+00 9.657241e-02 1.212826e+00 5.689623e-02 1.329608e+00 6.936922e-02 1.184321e+00 -1.941608e-02 1.167992e+00 -2.574656e-02 1.170901e+00 -2.170292e-02 1.174660e+00 -1.883820e-02 1.178555e+00 -1.842570e-02 1.184400e+00 -2.017801e-02 1.194359e+00 -2.344837e-02 
1.269869e+00 -1.867939e-02 1.295969e+00 -2.010788e-02 1.334535e+00 -2.013156e-02 1.295429e+00 -2.215512e-02 1.269054e+00 -2.346583e-02 1.252414e+00 -2.276980e-02 1.245209e+00 -1.487098e-02 1.254272e+00 1.817186e-02 1.307149e+00 3.726488e-02 1.272989e+00 4.807843e-02 1.305097e+00 2.375762e-02 1.284222e+00 5.557415e-02 1.296543e+00 1.679445e-02 1.301163e+00 5.673174e-02 1.279154e+00 2.872109e-02 1.308943e+00 5.182702e-02 1.268158e+00 4.852948e-02 1.310208e+00 3.523897e-02 1.276452e+00 5.961184e-02 1.304761e+00 2.282942e-02 1.295764e+00 6.648944e-02 1.290160e+00 2.969515e-02 1.310362e+00 6.704829e-02 1.277518e+00 5.095150e-02 1.318911e+00 4.491401e-02 1.249223e+00 -2.859674e-03 1.230107e+00 -1.502503e-02 1.227486e+00 -1.676875e-02 1.229773e+00 -1.621235e-02 1.234374e+00 -1.578744e-02 1.241544e+00 -1.612338e-02 1.252671e+00 -1.719759e-02 
1.309029e+00 -2.228670e-02 1.350288e+00 -2.403088e-02 1.404909e+00 -2.401554e-02 1.350441e+00 -2.567999e-02 1.309725e+00 -2.582377e-02 1.280884e+00 -2.280606e-02 1.264261e+00 -1.199051e-02 1.264734e+00 1.465070e-02 1.289305e+00 3.277621e-02 1.270793e+00 4.218676e-02 1.282735e+00 3.168575e-02 1.269857e+00 4.732380e-02 1.274150e+00 2.982094e-02 1.273573e+00 4.946816e-02 1.261771e+00 3.827438e-02 1.273461e+00 4.988333e-02 1.253692e+00 4.945179e-02 1.273348e+00 4.253540e-02 1.258136e+00 5.386559e-02 1.272969e+00 3.658377e-02 1.269251e+00 5.749836e-02 1.268093e+00 4.174470e-02 1.277623e+00 5.939295e-02 1.263181e+00 5.066627e-02 1.279724e+00 3.854994e-02 1.238951e+00 5.051483e-03 1.222034e+00 -9.449817e-03 1.221141e+00 -1.403976e-02 1.227829e+00 -1.544231e-02 1.239337e+00 -1.646340e-02 1.255733e+00 -1.800017e-02 1.278318e+00 -2.007828e-02 
1.360559e+00 -1.498000e-02 1.402039e+00 -1.539139e-02 1.456844e+00 -1.534108e-02 1.402466e+00 -1.649095e-02 1.361937e+00 -1.630178e-02 1.333515e+00 -1.306633e-02 1.317087e+00 -3.498378e-03 1.314588e+00 1.545638e-02 1.325583e+00 2.961900e-02 1.316291e+00 3.698410e-02 1.319939e+00 3.298993e-02 1.311975e+00 4.039081e-02 1.312275e+00 3.257690e-02 1.309848e+00 4.214692e-02 1.302713e+00 3.799133e-02 1.306254e+00 4.401440e-02 1.296263e+00 4.436643e-02 1.305066e+00 4.101371e-02 1.298409e+00 4.614167e-02 1.306205e+00 3.827906e-02 1.305121e+00 4.836392e-02 1.305488e+00 4.183902e-02 1.310033e+00 4.981653e-02 1.303124e+00 4.361096e-02 1.308122e+00 3.145434e-02 1.283700e+00 7.814435e-03 1.270792e+00 -5.470824e-03 1.270044e+00 -1.092540e-02 1.276893e+00 -1.274026e-02 1.289028e+00 -1.333652e-02 1.306204e+00 -1.376948e-02 1.329437e+00 -1.434477e-02 
1.396552e+00 -1.765405e-02 1.450542e+00 -1.828153e-02 1.518399e+00 -1.819241e-02 1.451409e+00 -1.919683e-02 1.398763e+00 -1.850256e-02 1.359257e+00 -1.448151e-02 1.332900e+00 -4.327075e-03 1.321028e+00 1.373283e-02 1.321917e+00 2.805284e-02 1.308761e+00 3.571512e-02 1.306178e+00 3.411391e-02 1.295722e+00 4.022738e-02 1.292535e+00 3.521988e-02 1.287619e+00 4.284179e-02 1.280162e+00 4.053104e-02 1.280797e+00 4.548872e-02 1.272424e+00 4.603232e-02 1.278342e+00 4.366465e-02 1.273538e+00 4.726910e-02 1.279870e+00 4.156999e-02 1.279771e+00 4.890484e-02 1.281315e+00 4.421692e-02 1.285685e+00 4.958243e-02 1.282139e+00 4.354807e-02 1.286355e+00 3.138461e-02 1.268776e+00 9.952287e-03 1.260393e+00 -3.351266e-03 1.263958e+00 -9.632033e-03 1.276176e+00 -1.241031e-02 1.295149e+00 -1.393616e-02 1.320755e+00 -1.521811e-02 1.353998e+00 -1.651019e-02 
1.440842e+00 -1.143104e-02 1.494735e+00 -1.124435e-02 1.562467e+00 -1.112696e-02 1.495542e+00 -1.218738e-02 1.442722e+00 -1.214437e-02 1.402573e+00 -9.538287e-03 1.374902e+00 -1.345845e-03 1.361664e+00 1.630163e-02 1.364905e+00 2.986651e-02 1.346552e+00 3.631552e-02 1.345833e+00 3.165956e-02 1.332244e+00 3.999080e-02 1.329670e+00 3.092933e-02 1.324373e+00 4.180896e-02 1.314754e+00 3.615260e-02 1.317742e+00 4.302552e-02 1.305459e+00 4.270399e-02 1.314962e+00 3.934792e-02 1.306602e+00 4.497919e-02 1.315439e+00 3.600414e-02 1.314183e+00 4.710703e-02 1.315655e+00 3.870425e-02 1.322065e+00 4.766773e-02 1.316688e+00 4.081079e-02 1.326646e+00 3.092227e-02 1.306119e+00 8.002723e-03 1.299438e+00 -3.943370e-03 1.305103e+00 -8.799949e-03 1.318742e+00 -1.048513e-02 1.338604e+00 -1.100463e-02 1.364745e+00 -1.120708e-02 1.398248e+00 -1.135798e-02 
1.472596e+00 -1.345419e-02 1.536900e+00 -1.344256e-02 1.615380e+00 -1.328861e-02 1.537873e+00 -1.443561e-02 1.474629e+00 -1.446626e-02 1.424413e+00 -1.219404e-02 1.387020e+00 -4.615017e-03 1.365028e+00 1.568386e-02 1.368711e+00 3.076485e-02 1.336342e+00 3.792198e-02 1.336883e+00 2.925499e-02 1.315031e+00 4.406729e-02 1.311785e+00 2.783909e-02 1.305051e+00 4.660193e-02 1.289853e+00 3.484687e-02 1.297574e+00 4.632542e-02 1.276826e+00 4.469351e-02 1.293709e+00 3.951347e-02 1.278363e+00 4.948612e-02 1.292367e+00 3.368814e-02 1.289562e+00 5.248012e-02 1.290921e+00 3.616420e-02 1.302436e+00 5.175296e-02 1.293118e+00 4.160768e-02 1.314851e+00 3.449938e-02 1.288810e+00 6.757781e-03 1.286847e+00 -4.406579e-03 1.298225e+00 -8.799847e-03 1.317811e+00 -1.063828e-02 1.344313e+00 -1.161826e-02 1.378091e+00 -1.236648e-02 1.420310e+00 -1.301632e-02 
1.509863e+00 -8.056552e-03 1.573654e+00 -7.567586e-03 1.651599e+00 -7.391654e-03 1.574285e+00 -9.007972e-03 1.510726e+00 -1.050084e-02 1.459007e+00 -1.147282e-02 1.418144e+00 -8.673181e-03 1.392952e+00 1.942215e-02 1.425267e+00 3.810555e-02 1.359600e+00 4.507401e-02 1.383352e+00 1.781601e-02 1.342496e+00 5.607901e-02 1.348324e+00 8.922958e-03 1.344113e+00 5.833582e-02 1.313220e+00 2.038571e-02 1.344685e+00 5.035718e-02 1.292789e+00 4.226024e-02 1.341874e+00 2.978528e-02 1.298321e+00 5.714788e-02 1.333300e+00 1.394478e-02 1.321561e+00 6.526338e-02 1.319506e+00 1.740842e-02 1.346601e+00 6.226412e-02 1.314361e+00 3.928048e-02 1.375645e+00 4.506536e-02 1.313837e+00 -2.848351e-03 1.315867e+00 -9.671925e-03 1.332324e+00 -9.921542e-03 1.354427e+00 -9.399730e-03 1.381913e+00 -8.950296e-03 1.415921e+00 -8.631069e-03 1.457971e+00 -8.369916e-03 
1.536667e+00 -9.608607e-03 1.609162e+00 -9.254602e-03 1.696026e+00 -9.045033e-03 1.609814e+00 -1.082510e-02 1.537335e+00 -1.268197e-02 1.476556e+00 -1.505482e-02 1.425451e+00 -1.754217e-02 1.384518e+00 -9.255758e-03 1.374946e+00 -4.891555e-03 1.324223e+00 -2.974831e-03 1.320881e+00 -1.706778e-02 1.289622e+00 2.519111e-03 1.282683e+00 -2.133696e-02 1.274365e+00 3.547964e-03 1.253132e+00 -1.599862e-02 1.266015e+00 -1.140814e-03 1.236879e+00 -4.953612e-03 1.260128e+00 -1.102359e-02 1.237332e+00 3.923699e-03 1.254776e+00 -1.781198e-02 1.250774e+00 9.014484e-03 1.251689e+00 -1.532470e-02 1.270740e+00 8.216912e-03 1.259567e+00 -1.760914e-03 1.301412e+00 5.792985e-03 1.282629e+00 -1.335132e-02 1.300297e+00 -1.241484e-02 1.324459e+00 -1.059228e-02 1.352601e+00 -9.725173e-03 1.386220e+00 -9.491714e-03 1.426993e+00 -9.547243e-03 1.476566e+00 -9.651342e-03 
1.567086e+00 -4.759324e-03 1.638565e+00 -4.070599e-03 1.724403e+00 -3.843579e-03 1.638973e+00 -6.013343e-03 1.566729e+00 -9.345271e-03 1.504312e+00 -1.684138e-02 1.444725e+00 -3.977456e-02 1.367089e+00 -1.252627e-01 1.182736e+00 -1.857312e-01 1.241992e+00 -2.126176e-01 1.122434e+00 -1.563279e-01 1.159928e+00 -2.437739e-01 1.104756e+00 -1.425181e-01 1.082347e+00 -2.532324e-01 1.126755e+00 -1.738750e-01 1.040602e+00 -2.399873e-01 1.142733e+00 -2.240440e-01 1.026655e+00 -1.929410e-01 1.118435e+00 -2.515506e-01 1.042106e+00 -1.529805e-01 1.074303e+00 -2.634815e-01 1.091301e+00 -1.568236e-01 1.051466e+00 -2.510546e-01 1.149458e+00 -1.945768e-01 1.056288e+00 -1.858533e-01 1.252399e+00 -5.680233e-02 1.319105e+00 -2.228749e-02 1.354143e+00 -1.185229e-02 1.384790e+00 -8.212670e-03 1.418731e+00 -6.708215e-03 1.459087e+00 -5.920953e-03 1.507912e+00 -5.344806e-03 
1.588453e+00 -5.964238e-03 1.667212e+00 -5.351225e-03 1.760475e+00 -5.093738e-03 1.667709e+00 -7.234828e-03 1.588203e+00 -1.038686e-02 1.518793e+00 -1.743763e-02 1.452740e+00 -3.910995e-02 1.370165e+00 -1.202843e-01 1.188209e+00 -1.780285e-01 1.236973e+00 -2.040821e-01 1.118096e+00 -1.504701e-01 1.149242e+00 -2.344675e-01 1.092973e+00 -1.373454e-01 1.068817e+00 -2.439400e-01 1.109237e+00 -1.676629e-01 1.025074e+00 -2.315597e-01 1.122202e+00 -2.162868e-01 1.009783e+00 -1.865273e-01 1.097991e+00 -2.432036e-01 1.024341e+00 -1.483668e-01 1.055982e+00 -2.554378e-01 1.073268e+00 -1.527809e-01 1.036078e+00 -2.444134e-01 1.133094e+00 -1.899201e-01 1.044955e+00 -1.813565e-01 1.239231e+00 -5.551252e-02 1.308186e+00 -2.158127e-02 1.346867e+00 -1.143185e-02 1.381941e+00 -8.128534e-03 1.420992e+00 -7.007540e-03 1.467128e+00 -6.596418e-03 1.522355e+00 -6.336581e-03 
1.612154e+00 -1.451760e-03 1.689322e+00 -4.962728e-04 1.781006e+00 -2.253369e-04 1.690153e+00 -2.028329e-03 1.612859e+00 -4.291047e-03 1.547041e+00 -7.454625e-03 1.490716e+00 -1.059746e-02 1.445337e+00 -4.340804e-04 1.438576e+00 4.538614e-03 1.377409e+00 5.292060e-03 1.375301e+00 -1.273758e-02 1.338072e+00 9.116668e-03 1.330598e+00 -1.967752e-02 1.320971e+00 8.502149e-03 1.296199e+00 -1.482206e-02 1.311367e+00 1.721202e-03 1.277404e+00 -3.219246e-03 1.304253e+00 -1.077621e-02 1.277723e+00 5.896636e-03 1.297551e+00 -1.956580e-02 1.292698e+00 1.060956e-02 1.293699e+00 -1.759685e-02 1.315208e+00 8.996882e-03 1.303307e+00 -1.962053e-03 1.350543e+00 7.380368e-03 1.331142e+00 -1.265515e-02 1.351922e+00 -1.008801e-02 1.379852e+00 -6.758712e-03 1.411742e+00 -4.777008e-03 1.449130e+00 -3.658058e-03 1.493837e+00 -2.906589e-03 1.547597e+00 -2.226823e-03 
1.627734e+00 -2.436462e-03 1.710975e+00 -1.520690e-03 1.808835e+00 -1.224581e-03 1.712025e+00 -2.854790e-03 1.628986e+00 -4.592643e-03 1.558132e+00 -6.335616e-03 1.498674e+00 -5.172535e-03 1.455619e+00 1.993708e-02 1.470350e+00 3.648750e-02 1.392105e+00 4.235708e-02 1.403487e+00 1.576990e-02 1.354162e+00 5.306247e-02 1.352193e+00 7.340412e-03 1.342234e+00 5.551846e-02 1.307511e+00 1.842720e-02 1.334988e+00 4.753664e-02 1.281896e+00 3.953777e-02 1.328297e+00 2.728625e-02 1.285012e+00 5.390988e-02 1.319243e+00 1.138073e-02 1.308964e+00 6.114633e-02 1.309150e+00 1.384403e-02 1.339360e+00 5.768188e-02 1.313111e+00 3.587839e-02 1.380601e+00 4.344577e-02 1.330084e+00 -1.230332e-03 1.343738e+00 -5.960676e-03 1.372234e+00 -5.113005e-03 1.407146e+00 -4.206423e-03 1.448665e+00 -3.709913e-03 1.498218e+00 -3.393837e-03 1.557371e+00 -3.025092e-03 
1.644794e+00 1.800167e-03 1.725823e+00 3.036685e-03 1.821494e+00 3.340933e-03 1.727419e+00 2.239917e-03 1.647397e+00 1.459958e-03 1.580248e+00 1.667564e-03 1.525633e+00 5.260398e-03 1.486035e+00 1.934716e-02 1.471254e+00 2.934087e-02 1.427213e+00 3.357068e-02 1.415411e+00 2.466098e-02 1.386018e+00 3.740325e-02 1.375291e+00 2.228325e-02 1.363301e+00 3.877578e-02 1.344942e+00 2.750192e-02 1.348710e+00 3.741699e-02 1.327340e+00 3.557559e-02 1.341050e+00 3.066210e-02 1.326072e+00 3.963902e-02 1.338690e+00 2.487355e-02 1.337080e+00 4.168484e-02 1.340366e+00 2.628589e-02 1.354616e+00 4.083318e-02 1.351496e+00 3.297577e-02 1.379785e+00 2.976324e-02 1.366885e+00 8.208099e-03 1.377995e+00 1.473627e-03 1.401610e+00 -1.796699e-04 1.433196e+00 -3.691678e-04 1.472246e+00 -1.415553e-04 1.519611e+00 2.810051e-04 1.576614e+00 9.067988e-04 
1.654323e+00 8.932976e-04 1.740389e+00 2.088461e-03 1.841171e+00 2.412143e-03 1.742198e+00 1.477679e-03 1.657414e+00 1.102716e-03 1.585856e+00 2.018550e-03 1.527281e+00 6.292104e-03 1.483333e+00 1.768233e-02 1.456951e+00 2.640883e-02 1.417128e+00 3.043708e-02 1.396765e+00 2.638557e-02 1.369218e+00 3.375139e-02 1.354248e+00 2.631920e-02 1.339750e+00 3.573798e-02 1.324002e+00 3.063121e-02 1.320978e+00 3.639985e-02 1.306497e+00 3.584207e-02 1.311990e+00 3.306244e-02 1.303499e+00 3.766380e-02 1.311180e+00 2.962981e-02 1.311861e+00 3.841003e-02 1.316792e+00 3.029138e-02 1.328121e+00 3.761952e-02 1.332050e+00 3.245786e-02 1.352902e+00 2.707572e-02 1.351869e+00 1.114138e-02 1.365679e+00 3.886938e-03 1.391387e+00 1.199837e-03 1.425791e+00 2.132980e-04 1.468355e+00 -1.376660e-04 1.519793e+00 -1.419193e-04 1.581308e+00 1.802216e-04 
1.664794e+00 4.836078e-03 1.747990e+00 6.282559e-03 1.845918e+00 6.607642e-03 1.750243e+00 6.058640e-03 1.668838e+00 6.154267e-03 1.600683e+00 7.496535e-03 1.545096e+00 1.118282e-02 1.501944e+00 1.818712e-02 1.470226e+00 2.393479e-02 1.437781e+00 2.711538e-02 1.414863e+00 2.658537e-02 1.392382e+00 2.959255e-02 1.376635e+00 2.753475e-02 1.363028e+00 3.113784e-02 1.350871e+00 3.002462e-02 1.344565e+00 3.228419e-02 1.336103e+00 3.239077e-02 1.335862e+00 3.129269e-02 1.332365e+00 3.269593e-02 1.335615e+00 2.975425e-02 1.337634e+00 3.250362e-02 1.342296e+00 2.956837e-02 1.350241e+00 3.130125e-02 1.356971e+00 2.803555e-02 1.370283e+00 2.283569e-02 1.377240e+00 1.354713e-02 1.391962e+00 7.798682e-03 1.415554e+00 4.946349e-03 1.447273e+00 3.685144e-03 1.487131e+00 3.264543e-03 1.535857e+00 3.363966e-03 1.594607e+00 3.885177e-03 
1.668070e+00 3.868823e-03 1.755403e+00 5.246573e-03 1.857518e+00 5.584851e-03 1.757785e+00 5.131422e-03 1.672378e+00 5.449929e-03 1.600353e+00 7.064636e-03 1.540963e+00 1.076689e-02 1.493679e+00 1.686916e-02 1.456800e+00 2.218400e-02 1.422651e+00 2.548932e-02 1.396250e+00 2.626340e-02 1.372450e+00 2.866560e-02 1.354471e+00 2.828028e-02 1.339359e+00 3.085771e-02 1.326755e+00 3.090837e-02 1.318677e+00 3.257824e-02 1.310961e+00 3.292559e-02 1.308956e+00 3.237371e-02 1.306469e+00 3.301771e-02 1.308803e+00 3.126746e-02 1.311496e+00 3.246863e-02 1.316814e+00 3.053938e-02 1.324928e+00 3.072596e-02 1.333710e+00 2.762891e-02 1.347032e+00 2.244555e-02 1.358253e+00 1.464255e-02 1.375930e+00 9.059709e-03 1.401995e+00 5.814238e-03 1.436372e+00 4.051594e-03 1.479264e+00 3.167540e-03 1.531404e+00 2.880492e-03 1.593896e+00 3.107060e-03 
1.672008e+00 7.501352e-03 1.755765e+00 9.051094e-03 1.854304e+00 9.383561e-03 1.758398e+00 9.118402e-03 1.676783e+00 9.531377e-03 1.608330e+00 1.095875e-02 1.551935e+00 1.374800e-02 1.506455e+00 1.777605e-02 1.470004e+00 2.144223e-02 1.438776e+00 2.399431e-02 1.413613e+00 2.520368e-02 1.392285e+00 2.667898e-02 1.375439e+00 2.707141e-02 1.361685e+00 2.839393e-02 1.350645e+00 2.884012e-02 1.342783e+00 2.969591e-02 1.336605e+00 2.998888e-02 1.333788e+00 2.977173e-02 1.332156e+00 2.985619e-02 1.333400e+00 2.902894e-02 1.335954e+00 2.910022e-02 1.340593e+00 2.794570e-02 1.347414e+00 2.710409e-02 1.355798e+00 2.456779e-02 1.367148e+00 2.054496e-02 1.379631e+00 1.535346e-02 1.397139e+00 1.120000e-02 1.421475e+00 8.497130e-03 1.453305e+00 6.950557e-03 1.493253e+00 6.226453e-03 1.542208e+00 6.119252e-03 1.601333e+00 6.544149e-03 
1.668874e+00 6.353274e-03 1.755976e+00 7.794291e-03 1.857889e+00 8.133406e-03 1.758650e+00 7.897097e-03 1.673721e+00 8.420803e-03 1.602013e+00 9.967620e-03 1.542398e+00 1.274594e-02 1.493647e+00 1.652626e-02 1.453931e+00 2.011975e-02 1.420401e+00 2.286392e-02 1.392958e+00 2.460125e-02 1.370007e+00 2.627097e-02 1.351596e+00 2.723353e-02 1.336661e+00 2.859364e-02 1.324818e+00 2.939472e-02 1.316122e+00 3.027463e-02 1.309695e+00 3.069248e-02 1.306320e+00 3.065953e-02 1.304759e+00 3.063700e-02 1.305862e+00 3.000045e-02 1.308737e+00 2.970361e-02 1.313850e+00 2.856616e-02 1.321269e+00 2.728622e-02 1.330796e+00 2.466817e-02 1.343269e+00 2.075677e-02 1.358041e+00 1.598464e-02 1.377834e+00 1.190076e-02 1.404376e+00 8.971224e-03 1.438527e+00 7.063831e-03 1.481025e+00 5.950468e-03 1.532791e+00 5.482438e-03 1.594966e+00 5.608618e-03 
1.666367e+00 9.696095e-03 1.749118e+00 1.124627e-02 1.846654e+00 1.157257e-02 1.751873e+00 1.138228e-02 1.671325e+00 1.180193e-02 1.603729e+00 1.297855e-02 1.547732e+00 1.497028e-02 1.501902e+00 1.755046e-02 1.464538e+00 2.006788e-02 1.433667e+00 2.210964e-02 1.408445e+00 2.356135e-02 1.387732e+00 2.479165e-02 1.371062e+00 2.564807e-02 1.357687e+00 2.654612e-02 1.347184e+00 2.717948e-02 1.339350e+00 2.773365e-02 1.333741e+00 2.801591e-02 1.330497e+00 2.800603e-02 1.329114e+00 2.787974e-02 1.329812e+00 2.742354e-02 1.332266e+00 2.694225e-02 1.336660e+00 2.598063e-02 1.343098e+00 2.467164e-02 1.351661e+00 2.253397e-02 1.362872e+00 1.958110e-02 1.376950e+00 1.619199e-02 1.395517e+00 1.318495e-02 1.419965e+00 1.093109e-02 1.451305e+00 9.450146e-03 1.490473e+00 8.646258e-03 1.538522e+00 8.434279e-03 1.596684e+00 8.778762e-03 