# vtk DataFile Version 2.0
Comment goes here
ASCII

DATASET STRUCTURED_POINTS
FIELD FieldData 1
TIME 1 1 double
0.01900000
DIMENSIONS    64   64   1

ORIGIN    0.000   0.000   0.000
SPACING   0.03125 0.03125   1.000

POINT_DATA   4096
SCALARS Omega double
LOOKUP_TABLE default

-9.606913e-02 2.432195e-01 -2.640905e-01 7.581128e-02 -2.917981e-01 2.306653e-01 -2.232522e-01 1.424821e-01 -1.939266e-01 1.305875e-01 -1.540863e-01 1.174476e-01 -1.195617e-01 1.245565e-01 -1.094543e-01 1.603882e-01 -1.234539e-01 1.959950e-01 -1.372590e-01 2.262684e-01 -1.431023e-01 2.516438e-01 -1.440108e-01 1.946776e-01 -6.658183e-02 1.842049e-01 -6.368480e-02 1.753315e-01 -2.249076e-02 1.003364e-01 2.723891e-02 1.131538e-01 5.271217e-03 1.277791e-01 8.795153e-04 1.247323e-01 -2.148372e-03 1.195013e-01 2.770073e-02 6.927111e-02 8.246984e-02 2.895105e-02 5.991784e-02 2.607292e-02 1.276308e-01 -6.635514e-02 1.899470e-01 -1.245131e-01 2.042502e-01 -1.717202e-01 2.480116e-01 -2.361120e-01 2.648242e-01 -2.715165e-01 2.676662e-01 -3.065356e-01 2.780703e-01 -3.315372e-01 2.749397e-01 -3.446081e-01 2.796642e-01 -3.632867e-01 3.400103e-01 -4.071776e-01 
-8.537380e+00 -1.748932e+01 5.302125e+00 -2.018817e+01 5.704447e+00 -1.993710e+01 3.978975e+00 -1.745036e+01 2.309208e-01 -1.311965e+01 -5.208228e+00 -7.627363e+00 -1.113182e+01 -2.541925e+00 -1.585516e+01 1.204037e+00 -1.930278e+01 3.711978e+00 -2.131099e+01 4.724993e+00 -2.204163e+01 4.849780e+00 -2.168602e+01 3.728956e+00 -2.033717e+01 2.407464e+00 -1.947943e+01 1.769390e+00 -1.892155e+01 1.082870e+00 -1.817596e+01 4.029327e-01 -1.782303e+01 5.973252e-01 -1.863212e+01 1.873683e+00 -2.000877e+01 3.208875e+00 -2.102818e+01 3.773561e+00 -2.085696e+01 3.020229e+00 -1.953939e+01 1.388162e+00 -1.761311e+01 -2.995762e-01 -1.606173e+01 -1.468165e+00 -1.525086e+01 -1.322285e+00 -1.625750e+01 1.105779e+00 -1.947742e+01 4.990134e+00 -2.293636e+01 7.780734e+00 -2.388668e+01 7.222352e+00 -2.156048e+01 4.120543e+00 -1.740587e+01 -4.589836e-01 -1.143620e+01 -5.100416e+00 
-8.161527e+00 9.138270e+00 -2.066190e+01 9.796794e+00 -1.041935e+01 8.767412e+00 -1.650504e+01 7.367064e+00 -2.005858e+01 5.184621e+00 -2.125327e+01 2.340426e+00 -2.118902e+01 -2.909210e-01 -2.128223e+01 -2.162022e+00 -2.134527e+01 -3.591776e+00 -2.166741e+01 -4.280636e+00 -2.216234e+01 -4.830903e+00 -2.284058e+01 -4.401724e+00 -2.417333e+01 -3.987029e+00 -2.460374e+01 -4.225766e+00 -2.485897e+01 -4.076696e+00 -2.544567e+01 -3.766222e+00 -2.582568e+01 -3.872800e+00 -2.545381e+01 -4.567656e+00 -2.479512e+01 -5.211816e+00 -2.425905e+01 -5.399497e+00 -2.439381e+01 -4.814917e+00 -2.497660e+01 -3.734497e+00 -2.601683e+01 -2.488829e+00 -2.668829e+01 -1.425896e+00 -2.703250e+01 -9.192920e-01 -2.623479e+01 -1.808589e+00 -2.369080e+01 -3.833690e+00 -2.060064e+01 -5.338042e+00 -1.867445e+01 -4.904247e+00 -1.823808e+01 -3.394750e+00 -1.781702e+01 -1.494889e+00 -1.848906e+01 -2.782179e+00 
-2.549124e+00 8.053461e+00 -1.223635e+01 8.620287e+00 -4.059601e+00 8.502774e+00 -9.207302e+00 6.983976e+00 -1.046699e+01 4.940140e+00 -1.016673e+01 2.427593e+00 -9.080504e+00 1.700403e-01 -8.245458e+00 -1.416806e+00 -7.615461e+00 -2.541771e+00 -7.388562e+00 -3.020346e+00 -7.485979e+00 -3.289559e+00 -7.895057e+00 -2.864775e+00 -8.815457e+00 -2.427182e+00 -9.200234e+00 -2.453493e+00 -9.434717e+00 -2.276570e+00 -9.862144e+00 -1.998513e+00 -1.012345e+01 -2.086098e+00 -9.784230e+00 -2.673597e+00 -9.199607e+00 -3.247035e+00 -8.735109e+00 -3.460128e+00 -8.821845e+00 -3.031878e+00 -9.356533e+00 -2.183465e+00 -1.021937e+01 -1.246537e+00 -1.083400e+01 -4.929620e-01 -1.115898e+01 -2.668391e-01 -1.056921e+01 -1.182023e+00 -8.690639e+00 -2.953922e+00 -6.485684e+00 -4.264645e+00 -5.310223e+00 -3.961823e+00 -5.473855e+00 -2.640014e+00 -5.977798e+00 -9.002015e-01 -7.186482e+00 -5.531706e-03 
-1.020928e-01 3.369782e-01 -3.119139e-01 1.314365e-01 -1.946248e+01 -3.273740e-01 4.621112e-02 -1.200822e-02 -6.188192e-02 -1.056767e-02 -8.461081e-02 -5.789861e-03 -8.289041e-02 -6.133616e-03 -7.758740e-02 -1.066485e-02 -7.439451e-02 -1.609615e-02 -7.392797e-02 -1.976156e-02 -7.544984e-02 -2.155969e-02 -7.899603e-02 -2.119865e-02 -8.393001e-02 -1.565018e-02 -8.684731e-02 -1.381865e-02 -8.906543e-02 -1.438574e-02 -8.928336e-02 -1.666934e-02 -8.890334e-02 -1.804134e-02 -8.790430e-02 -1.916013e-02 -8.705479e-02 -1.798583e-02 -8.414835e-02 -1.879078e-02 -7.912060e-02 -2.395921e-02 -7.451836e-02 -2.693507e-02 -6.966992e-02 -2.936615e-02 -6.880912e-02 -2.567169e-02 -7.267587e-02 -1.874475e-02 -7.963585e-02 -1.026372e-02 -8.350616e-02 -2.205065e-03 -7.641842e-02 -2.141514e-03 -5.960168e-02 -1.310701e-02 -3.975369e-02 -3.055016e-02 -2.571527e-02 -6.009378e-02 3.379838e-02 1.971202e-02 
-5.534772e-02 -1.768752e-01 -1.879248e-01 -1.046998e-01 -1.861634e+01 -2.417691e-01 1.073457e-01 -3.958656e-02 6.935196e-02 -1.873680e-02 3.915830e-02 -1.121255e-02 2.164190e-02 -7.969202e-03 1.215484e-02 -6.188008e-03 6.945042e-03 -5.632715e-03 3.897405e-03 -4.602259e-03 2.117646e-03 -3.811665e-03 7.656908e-05 -4.321082e-03 4.574019e-04 -1.798664e-03 1.021323e-03 -2.932924e-04 5.409686e-04 -3.842723e-04 1.073060e-03 -4.736624e-04 -6.242127e-04 -2.811797e-04 -4.464587e-04 -1.048928e-04 -1.612855e-04 4.606313e-04 6.644824e-04 2.021389e-03 1.855892e-04 1.643597e-03 -2.692046e-04 9.982508e-04 -1.391185e-03 -5.186883e-04 -3.942460e-03 -1.453885e-03 -4.262142e-03 -1.579907e-03 -2.677252e-03 1.033479e-03 -8.449234e-04 5.245453e-03 -9.314838e-04 7.664113e-03 -5.246086e-03 7.801233e-03 -1.382262e-02 8.860802e-03 -2.481255e-02 2.739340e-02 -8.995212e-03 1.491730e-01 
-1.046737e-01 -6.994200e-02 -1.915611e-01 8.849732e-03 -2.671166e+01 -5.465440e-01 1.112246e-01 -2.615790e-02 8.392750e-02 -1.767572e-02 4.933737e-02 -1.219771e-02 2.918776e-02 -9.139844e-03 1.724821e-02 -8.027642e-03 1.011014e-02 -8.157834e-03 4.857431e-03 -7.220109e-03 1.294890e-03 -6.317722e-03 -6.239948e-04 -6.148206e-03 -1.602946e-04 -3.676835e-03 2.964859e-04 -1.530875e-03 5.075654e-04 -1.131239e-03 1.502495e-03 -7.103970e-04 4.122000e-04 1.003268e-04 2.143653e-04 5.447311e-04 1.189400e-03 9.112016e-04 1.270228e-03 2.086911e-03 3.462219e-04 1.958825e-03 -4.113809e-04 4.846079e-04 -2.225250e-03 -4.322110e-04 -4.481806e-03 -4.454941e-04 -3.988203e-03 1.013206e-04 -1.073339e-03 3.518294e-03 1.719274e-03 8.380047e-03 2.409734e-03 1.191051e-02 -1.140661e-03 1.324923e-02 -9.981223e-03 1.429139e-02 -2.449190e-02 2.382347e-02 -3.558324e-02 8.122514e-02 
-4.586244e-02 -1.887681e-02 -8.658379e-02 -1.402597e-01 -2.539285e+01 -3.463353e-01 4.269433e-02 -3.231498e-02 5.383801e-02 -2.525966e-02 3.576349e-02 -1.795804e-02 2.169771e-02 -1.256843e-02 1.310513e-02 -9.581717e-03 9.665535e-03 -1.016353e-02 6.498151e-03 -7.145489e-03 3.188821e-03 -4.563292e-03 1.782901e-03 -5.706426e-03 2.645031e-03 -3.380830e-03 1.139478e-03 -7.914348e-04 6.677275e-05 -1.629950e-03 2.192154e-03 -1.615903e-03 3.147298e-04 3.545875e-04 -9.147217e-04 7.827571e-04 1.565345e-03 -3.553764e-04 5.343070e-04 1.837952e-03 -1.057546e-03 3.105466e-03 2.419880e-04 6.000828e-04 -9.433833e-04 1.512681e-03 -3.442365e-03 2.718767e-03 -3.044547e-03 2.094589e-04 -1.264892e-03 1.930621e-03 -1.670030e-03 5.661202e-03 -3.789535e-03 9.144834e-03 -7.826548e-03 1.255916e-02 -1.358299e-02 1.872164e-02 -1.917195e-02 3.387542e-02 -1.938574e-02 5.383223e-02 
-6.140290e-02 4.581502e-03 -8.763634e-02 -8.391807e-02 -3.065001e+01 -5.087639e-01 3.362068e-02 -2.696469e-02 5.710806e-02 -2.128374e-02 3.934366e-02 -1.580424e-02 2.457888e-02 -1.173748e-02 1.528268e-02 -1.044864e-02 1.268494e-02 -1.237973e-02 7.210758e-03 -8.363396e-03 2.122195e-03 -5.684160e-03 9.463753e-04 -7.997687e-03 2.303935e-03 -4.641764e-03 8.031169e-06 -1.262075e-03 -1.045305e-03 -2.760142e-03 2.810600e-03 -2.117614e-03 3.019295e-04 7.146958e-04 -1.554010e-03 1.064392e-03 2.688662e-03 -5.981102e-04 6.542793e-04 1.996994e-03 -1.984106e-03 3.639491e-03 2.540546e-04 5.025826e-05 -1.219745e-03 1.699380e-03 -4.314083e-03 4.185019e-03 -3.226749e-03 1.392584e-03 6.394596e-04 3.619948e-03 9.486455e-04 7.993464e-03 -9.605064e-04 1.185252e-02 -5.162660e-03 1.491492e-02 -1.240104e-02 1.877698e-02 -2.293599e-02 2.655722e-02 -3.570005e-02 3.660081e-02 
-2.176053e-02 1.729241e-02 -2.320884e-02 -1.847855e-01 -2.899862e+01 -3.669117e-01 -8.349141e-03 -2.888248e-02 2.724607e-02 -2.573327e-02 2.218672e-02 -1.971151e-02 1.382657e-02 -1.303728e-02 7.551090e-03 -9.020629e-03 1.172933e-02 -1.872875e-02 9.011096e-03 -9.091140e-03 1.626682e-03 -1.473955e-03 4.684061e-04 -1.118763e-02 6.741127e-03 -5.216560e-03 2.292928e-04 2.315723e-03 -4.342052e-03 -4.183223e-03 6.817851e-03 -4.665657e-03 1.781778e-04 2.622599e-03 -5.709129e-03 2.894243e-03 6.183390e-03 -4.605652e-03 6.988443e-04 2.638275e-03 -5.708524e-03 8.096016e-03 2.532451e-03 -3.486222e-03 5.742437e-04 3.141738e-03 -6.291212e-03 1.053501e-02 -4.163787e-03 -2.459153e-03 2.451290e-03 7.974648e-04 -6.154031e-05 6.562489e-03 -3.738992e-03 1.126311e-02 -7.234794e-03 1.584915e-02 -1.064838e-02 2.206678e-02 -1.339543e-02 3.061112e-02 -1.490447e-02 3.471223e-02 
-2.855119e-02 2.351304e-02 -2.493173e-02 -1.403551e-01 -3.246715e+01 -4.774865e-01 -1.696391e-02 -2.953384e-02 2.730123e-02 -2.316468e-02 2.256602e-02 -1.636839e-02 1.286891e-02 -9.905647e-03 5.366506e-03 -9.537957e-03 1.878924e-02 -2.385259e-02 9.915077e-03 -7.857487e-03 -1.288279e-03 5.082192e-04 -1.600245e-04 -1.636109e-02 8.763138e-03 -5.390872e-03 -1.573645e-03 4.457330e-03 -7.850820e-03 -7.124668e-03 1.065585e-02 -5.575050e-03 -2.832369e-04 4.179214e-03 -9.598704e-03 3.107031e-03 1.041969e-02 -6.418985e-03 1.037911e-03 3.099311e-03 -9.214970e-03 1.037935e-02 4.288756e-03 -5.794773e-03 1.871806e-03 3.106976e-03 -8.305510e-03 1.443440e-02 -6.358234e-03 -2.338385e-03 6.511726e-03 1.124731e-03 3.216703e-03 7.794768e-03 -1.468094e-03 1.268449e-02 -5.767544e-03 1.650852e-02 -1.072926e-02 2.064700e-02 -1.670980e-02 2.576072e-02 -2.285555e-02 2.921916e-02 
-5.918061e-04 2.672056e-02 1.388014e-02 -2.052680e-01 -3.055336e+01 -3.691054e-01 -4.113845e-02 -3.017372e-02 4.375812e-03 -2.624328e-02 7.269930e-03 -1.944674e-02 1.229831e-03 -7.909562e-03 -1.075678e-02 5.948368e-03 2.031689e-02 -4.878649e-02 1.779271e-02 -8.111631e-03 -6.763936e-03 2.028039e-02 -9.602860e-03 -3.419880e-02 2.444458e-02 -7.991060e-03 -2.531559e-03 2.077565e-02 -2.557483e-02 -1.434817e-02 2.946767e-02 -1.499810e-02 -1.737963e-04 1.282744e-02 -2.857712e-02 1.133723e-02 2.781763e-02 -2.354876e-02 2.730109e-03 5.883562e-03 -2.489502e-02 2.946268e-02 1.401601e-02 -2.634873e-02 8.205851e-03 4.423824e-03 -1.798669e-02 3.961117e-02 -1.209035e-02 -2.213787e-02 1.693496e-02 -3.114437e-03 4.022004e-03 8.499176e-03 -2.926632e-03 1.389338e-02 -5.654456e-03 1.808428e-02 -6.755569e-03 2.296265e-02 -6.601447e-03 2.818660e-02 -4.668369e-03 3.052793e-02 
-4.317411e-03 2.943768e-02 1.186847e-02 -1.734604e-01 -3.275792e+01 -4.425617e-01 -4.635753e-02 -3.321653e-02 5.082375e-03 -2.576586e-02 7.655144e-03 -1.560175e-02 -3.247223e-03 1.912165e-03 -2.990960e-02 8.133448e-03 4.710936e-02 -6.884761e-02 1.809145e-02 1.752939e-03 -1.907292e-02 3.624081e-02 -1.276151e-02 -5.364426e-02 3.569812e-02 -3.868114e-03 -7.739421e-03 3.510579e-02 -4.289597e-02 -2.617971e-02 4.883229e-02 -1.668870e-02 -1.640615e-03 2.007087e-02 -4.764964e-02 9.687511e-03 4.915655e-02 -3.175081e-02 4.379304e-03 7.119190e-03 -3.973119e-02 3.786368e-02 2.465260e-02 -3.763046e-02 1.540741e-02 2.478229e-03 -2.427280e-02 5.450817e-02 -2.516843e-02 -2.539784e-02 3.160932e-02 -5.675121e-03 8.025306e-03 9.092258e-03 -2.259276e-03 1.490058e-02 -5.729933e-03 1.828123e-02 -7.629285e-03 2.167992e-02 -9.050637e-03 2.543160e-02 -8.859700e-03 2.840872e-02 
1.488238e-02 2.975794e-02 3.652989e-02 -2.222600e-01 -3.062715e+01 -3.487200e-01 -5.907850e-02 -3.373745e-02 -1.002590e-02 -2.991030e-02 -1.090213e-03 -2.318576e-02 -7.334796e-03 1.369825e-03 -7.770942e-02 1.190866e-01 6.603022e-02 -1.706701e-01 5.677152e-02 8.991229e-03 -4.006207e-02 1.393080e-01 -5.470136e-02 -1.330007e-01 1.041463e-01 -9.514695e-03 -9.264281e-03 1.099950e-01 -1.206895e-01 -5.446350e-02 1.336654e-01 -5.091787e-02 6.438171e-04 5.473865e-02 -1.305414e-01 5.594225e-02 1.290438e-01 -1.083055e-01 1.256730e-02 1.642586e-02 -1.073502e-01 1.340026e-01 6.992174e-02 -1.424026e-01 4.327122e-02 3.085138e-03 -6.186229e-02 1.745808e-01 -4.709051e-02 -1.330630e-01 7.997929e-02 3.779225e-04 2.699495e-03 1.661934e-02 -6.646140e-03 1.827248e-02 -5.571214e-03 2.006403e-02 -3.293271e-03 2.318836e-02 -6.863888e-05 2.677793e-02 5.338456e-03 2.925143e-02 
1.218764e-02 3.125500e-02 3.439119e-02 -2.029814e-01 -3.187290e+01 -3.919583e-01 -6.027431e-02 -3.810217e-02 -6.089270e-03 -3.397313e-02 5.893080e-03 -2.542720e-02 -3.037056e-03 2.914835e-02 -1.833744e-01 7.988604e-01 1.354914e+00 5.686160e-01 6.024334e-02 6.099788e-02 -1.003698e-01 3.484768e-01 1.013607e+00 7.614001e-01 2.559338e-01 4.086119e-02 -3.501962e-02 1.010786e-01 6.422667e-01 9.955201e-01 5.036967e-01 -4.463156e-03 -4.050196e-03 3.268819e-02 1.822759e-01 1.134428e+00 7.834698e-01 -3.875373e-02 2.633593e-02 3.865530e-04 -6.560386e-02 1.002912e+00 9.268325e-01 3.604217e-02 8.305563e-02 -8.513073e-03 -8.566772e-02 6.368155e-01 9.089749e-01 1.984867e-01 1.567985e-01 -9.483259e-04 -1.324622e-03 2.050222e-02 -1.142459e-02 2.065532e-02 -7.911120e-03 2.064255e-02 -4.806119e-03 2.236477e-02 -1.978870e-03 2.515713e-02 2.699285e-03 2.820968e-02 
2.494032e-02 3.032196e-02 5.070889e-02 -2.485004e-01 -2.956377e+01 -2.992115e-01 -6.571137e-02 -3.756061e-02 -1.580099e-02 -3.956028e-02 6.479831e-03 -5.242010e-02 5.047863e-02 -7.575345e-02 -2.238524e-01 7.477142e+00 1.983574e+01 1.267105e+01 3.986302e-01 9.416088e-02 -1.096324e-01 2.112876e+00 1.714970e+01 1.760330e+01 2.990385e+00 3.113357e-01 -1.236240e-02 -6.397461e-01 1.246433e+01 2.039196e+01 8.071660e+00 7.535131e-01 6.887466e-03 -5.004856e-01 5.645137e+00 1.908996e+01 1.495151e+01 2.240225e+00 5.496361e-02 -1.544380e-01 1.280796e+00 1.454147e+01 1.907191e+01 6.285650e+00 2.138982e-01 -1.169659e-02 -1.669830e-01 7.797166e+00 2.064921e+01 1.301392e+01 5.309473e-01 1.347349e-01 -8.409534e-02 3.878526e-02 -2.368273e-02 2.363031e-02 -7.168842e-03 2.121441e-02 -1.400497e-04 2.269922e-02 5.626628e-03 2.540232e-02 1.322272e-02 2.809210e-02 
2.245764e-02 3.066980e-02 4.840089e-02 -2.398521e-01 -3.005064e+01 -3.171439e-01 -6.437824e-02 -4.114886e-02 -1.002031e-02 -5.015124e-02 2.716641e-02 -9.787360e-02 1.340239e-01 -2.919312e-01 2.295134e-01 9.979914e+00 2.618628e+01 1.633348e+01 4.155028e-01 -1.031413e-01 1.287106e-01 3.140538e+00 2.358730e+01 2.367186e+01 3.613425e+00 2.079486e-01 8.108656e-02 -5.970136e-01 1.769350e+01 2.801850e+01 1.056355e+01 7.554913e-01 2.740763e-02 -5.743953e-01 8.477915e+00 2.670178e+01 2.038053e+01 2.706725e+00 4.584751e-04 -1.634255e-01 2.318027e+00 2.072141e+01 2.658499e+01 8.452049e+00 2.597216e-02 3.763695e-02 -2.502303e-02 1.160377e+01 2.958426e+01 1.836876e+01 1.433024e-01 2.660125e-01 -1.439671e-01 6.397012e-02 -3.748142e-02 2.840607e-02 -9.965407e-03 2.151981e-02 -1.082508e-03 2.167416e-02 4.401556e-03 2.397271e-02 1.129979e-02 2.708016e-02 
3.055335e-02 2.887712e-02 5.911346e-02 -2.804855e-01 -2.761164e+01 -2.264087e-01 -6.658280e-02 -3.465078e-02 -2.307429e-02 -3.630377e-02 -1.937331e-03 -5.020235e-02 3.053426e-02 -8.962610e-02 1.966230e-01 -4.449232e+00 -1.110343e+01 -6.898317e+00 1.768491e-01 -2.006605e-01 1.551624e-01 -1.468493e+00 -9.272542e+00 -9.169468e+00 -1.185213e+00 -2.205148e-01 7.638733e-02 7.214801e-02 -6.689903e+00 -1.043205e+01 -3.792598e+00 -3.240927e-01 3.019049e-02 1.658181e-01 -3.164728e+00 -9.740086e+00 -7.291161e+00 -9.135614e-01 -9.308273e-03 9.262828e-02 -9.292365e-01 -7.396214e+00 -9.311946e+00 -2.829229e+00 -7.040345e-02 8.037202e-02 -1.487113e-01 -3.966341e+00 -9.978259e+00 -6.033913e+00 -1.420180e-01 8.096159e-03 -1.855621e-03 2.182396e-02 -7.769212e-04 1.862194e-02 1.794102e-03 1.856128e-02 5.627068e-03 2.044936e-02 1.098499e-02 2.314550e-02 1.885299e-02 2.606461e-02 
2.795757e-02 2.797945e-02 5.634382e-02 -2.739431e-01 -2.748841e+01 -2.289570e-01 -6.685067e-02 -2.907855e-02 -3.066191e-02 -1.737690e-02 -3.446277e-02 1.669980e-02 -1.072295e-01 1.350562e-01 -5.781788e-04 -1.032694e+01 -2.760689e+01 -1.744895e+01 -4.477420e-01 -4.758957e-02 -2.675632e-03 -3.135238e+00 -2.447943e+01 -2.481258e+01 -3.922977e+00 -3.336987e-01 -3.642833e-02 7.296712e-01 -1.816232e+01 -2.910972e+01 -1.116818e+01 -9.126962e-01 -1.049524e-02 6.322619e-01 -8.547599e+00 -2.753887e+01 -2.123972e+01 -2.980093e+00 -1.593330e-02 1.912882e-01 -2.229883e+00 -2.121298e+01 -2.748570e+01 -8.897480e+00 -1.200837e-01 9.514482e-03 5.115810e-02 -1.166086e+01 -3.028813e+01 -1.901847e+01 -3.594836e-01 -1.842592e-01 1.356216e-01 -2.183016e-02 3.096859e-02 6.306607e-03 1.019699e-02 1.411263e-02 7.701729e-03 1.798781e-02 1.071987e-02 2.126333e-02 1.727880e-02 2.462013e-02 
3.271733e-02 2.564546e-02 6.242708e-02 -2.933419e-01 -2.498626e+01 -1.601089e-01 -6.618255e-02 -2.417253e-02 -3.737990e-02 -1.250614e-02 -3.860590e-02 1.683391e-02 -7.535311e-02 1.077386e-01 2.049299e-02 -3.287422e+00 -8.952314e+00 -5.503400e+00 -4.501410e-01 2.670815e-02 -5.652934e-03 -9.473050e-01 -8.105716e+00 -8.179283e+00 -1.628127e+00 -1.134499e-01 -2.959465e-02 3.475061e-01 -6.011862e+00 -9.857496e+00 -4.073271e+00 -3.474865e-01 -2.680876e-02 2.582211e-01 -2.679689e+00 -9.512632e+00 -7.476597e+00 -1.093594e+00 -4.805954e-02 6.651737e-02 -4.925031e-01 -7.449337e+00 -9.643052e+00 -3.142018e+00 -1.275082e-01 -3.559468e-02 2.456110e-01 -4.153248e+00 -1.066201e+01 -6.692625e+00 -2.993753e-01 -1.317131e-01 6.344362e-02 -2.341605e-02 2.303267e-02 1.998046e-03 1.231092e-02 1.131898e-02 1.151865e-02 1.619772e-02 1.518991e-02 1.980086e-02 2.217489e-02 2.299542e-02 
2.980842e-02 2.413388e-02 5.875073e-02 -2.819424e-01 -2.438071e+01 -1.593905e-01 -6.371530e-02 -2.176758e-02 -3.704413e-02 -1.117808e-02 -3.548867e-02 3.701908e-03 -3.822382e-02 1.440389e-02 2.626068e-02 -2.095825e-01 2.887265e-02 2.704861e-01 -1.577267e-01 2.005456e-02 3.438128e-03 -1.784188e-01 5.524615e-02 1.896846e-01 -1.638352e-01 2.943963e-02 -1.121485e-02 -1.209919e-01 8.737167e-02 3.630169e-02 -1.626544e-01 7.327633e-02 -1.097256e-02 -5.905835e-02 1.303138e-01 -1.677458e-01 -1.536087e-01 1.435776e-01 -1.673685e-02 -2.361577e-02 1.479200e-01 -2.830079e-01 -1.377375e-01 1.926255e-01 -4.231030e-02 -2.043412e-02 1.268269e-01 -3.065802e-01 -9.305093e-02 2.067947e-01 -7.779362e-02 -1.925984e-02 1.748941e-02 -1.195144e-02 1.797758e-02 1.340255e-03 1.276184e-02 9.266916e-03 1.170374e-02 1.419869e-02 1.437200e-02 1.795366e-02 2.032385e-02 2.132700e-02 
3.208261e-02 2.169744e-02 6.084454e-02 -2.790219e-01 -2.185849e+01 -1.146923e-01 -6.053294e-02 -1.937420e-02 -3.796212e-02 -1.147830e-02 -3.316736e-02 -3.641917e-03 -2.802397e-02 -9.166603e-03 1.647265e-02 -1.153783e-01 4.689419e-02 7.071505e-02 -7.752074e-02 8.101886e-03 -4.335396e-04 -9.155910e-02 8.286799e-02 5.031769e-02 -8.288256e-02 1.597182e-02 -6.039472e-03 -6.850541e-02 9.888196e-02 1.790691e-02 -8.939571e-02 3.942797e-02 -5.039878e-03 -3.581347e-02 9.019771e-02 -3.105303e-02 -8.814756e-02 7.151026e-02 -6.978950e-03 -1.355722e-02 7.724161e-02 -6.910301e-02 -6.158439e-02 9.327614e-02 -1.904273e-02 -8.570983e-03 6.005107e-02 -9.829910e-02 -4.335616e-03 1.097704e-01 -4.276525e-02 5.217145e-03 8.111227e-03 -3.346715e-03 1.301911e-02 2.741870e-03 1.228112e-02 8.575079e-03 1.323108e-02 1.296898e-02 1.674873e-02 1.647440e-02 2.294650e-02 1.950760e-02 
2.877058e-02 2.004780e-02 5.603132e-02 -2.607011e-01 -2.086145e+01 -1.149015e-01 -5.591615e-02 -1.867081e-02 -3.383043e-02 -1.278318e-02 -2.678075e-02 -9.852472e-03 -1.645044e-02 -1.819441e-02 1.045163e-02 -5.766934e-02 1.615806e-02 2.542675e-02 -3.895567e-02 1.200334e-03 7.344322e-04 -4.101727e-02 3.438420e-02 1.838329e-02 -4.040482e-02 6.377969e-03 -1.578272e-03 -3.068571e-02 4.423390e-02 5.994549e-03 -4.240137e-02 1.767298e-02 -1.836432e-03 -1.732047e-02 4.256275e-02 -1.376348e-02 -4.122649e-02 3.061094e-02 -3.154279e-03 -6.884003e-03 3.836089e-02 -2.796073e-02 -2.859499e-02 3.929479e-02 -8.741240e-03 -3.859606e-03 3.198414e-02 -3.810940e-02 -3.108868e-03 5.103926e-02 -2.282119e-02 1.335545e-02 7.777419e-04 2.812358e-03 8.660115e-03 4.314927e-03 1.037951e-02 8.095090e-03 1.189168e-02 1.171052e-02 1.507980e-02 1.492060e-02 2.056620e-02 1.786168e-02 
2.914023e-02 1.774043e-02 5.492258e-02 -2.422622e-01 -1.834244e+01 -8.726344e-02 -5.147069e-02 -1.716870e-02 -3.241619e-02 -1.289462e-02 -2.495975e-02 -1.148123e-02 -1.554857e-02 -1.734504e-02 1.534342e-03 -3.460061e-02 3.598968e-03 7.957300e-03 -2.006898e-02 -2.778092e-03 -1.380514e-03 -2.289658e-02 1.325192e-02 7.413793e-03 -1.903099e-02 1.814061e-03 -1.213446e-03 -1.654534e-02 1.880530e-02 1.921707e-03 -1.895074e-02 8.707853e-03 -9.093392e-04 -9.093168e-03 1.873350e-02 -8.096295e-03 -1.793916e-02 1.580268e-02 -1.294109e-03 -3.018860e-03 1.746222e-02 -1.454678e-02 -1.200591e-02 2.052203e-02 -3.548922e-03 -4.578371e-04 1.512870e-02 -1.725206e-02 -1.074816e-03 2.853124e-02 -1.096724e-02 1.225410e-02 1.472677e-03 5.162045e-03 7.276211e-03 5.468798e-03 9.768104e-03 8.024633e-03 1.217636e-02 1.088256e-02 1.585794e-02 1.358176e-02 2.138638e-02 1.606440e-02 
2.545172e-02 1.609709e-02 4.907505e-02 -2.187866e-01 -1.701844e+01 -8.741065e-02 -4.592460e-02 -1.650653e-02 -2.762180e-02 -1.308684e-02 -2.027580e-02 -1.218479e-02 -1.202068e-02 -1.523464e-02 -1.724439e-03 -2.068379e-02 -5.978727e-04 -2.172869e-03 -1.062782e-02 -4.286130e-03 -1.663850e-03 -1.172149e-02 4.519627e-03 6.580369e-05 -8.919249e-03 -7.896307e-04 -7.203730e-04 -7.865562e-03 7.612261e-03 -6.023857e-04 -8.264569e-03 2.926766e-03 -3.913472e-04 -4.246026e-03 7.957661e-03 -3.382276e-03 -7.771674e-03 6.217171e-03 -4.331305e-04 -1.102909e-03 7.972578e-03 -4.832829e-03 -5.101561e-03 8.683753e-03 -1.067620e-03 8.730172e-04 7.571920e-03 -4.210362e-03 -8.891997e-04 1.485370e-02 -5.227030e-03 1.002398e-02 7.417635e-04 6.169070e-03 5.152924e-03 6.056280e-03 7.762869e-03 7.729454e-03 1.021855e-02 9.938306e-03 1.360727e-02 1.223427e-02 1.854071e-02 1.449029e-02 
2.436242e-02 1.393031e-02 4.565477e-02 -1.927692e-01 -1.451909e+01 -6.855256e-02 -4.074891e-02 -1.509090e-02 -2.515519e-02 -1.240023e-02 -1.870533e-02 -1.120365e-02 -1.274627e-02 -1.140818e-02 -6.864143e-03 -1.211091e-02 -2.853422e-03 -8.130977e-03 -4.955401e-03 -5.272708e-03 -3.053311e-03 -5.523540e-03 -6.452589e-04 -3.947603e-03 -2.383432e-03 -2.318442e-03 -1.155329e-03 -2.840716e-03 4.777079e-04 -1.852555e-03 -1.182246e-03 -4.965615e-04 -3.124132e-04 -1.211209e-03 8.286622e-04 -6.879482e-04 -9.070884e-04 8.810253e-04 1.901675e-04 1.809031e-04 1.351086e-03 5.092161e-04 -6.242475e-04 2.474460e-03 6.519979e-04 1.896009e-03 1.841052e-03 2.844315e-03 -8.109809e-04 6.870404e-03 1.320032e-04 6.559085e-03 2.509774e-03 5.970578e-03 4.833393e-03 6.381135e-03 7.082165e-03 7.583254e-03 9.727976e-03 9.189241e-03 1.323981e-02 1.095221e-02 1.800310e-02 1.273396e-02 
2.040321e-02 1.225163e-02 3.910108e-02 -1.671257e-01 -1.291818e+01 -6.621000e-02 -3.469271e-02 -1.404852e-02 -2.038321e-02 -1.165618e-02 -1.496771e-02 -9.988242e-03 -1.109961e-02 -8.164163e-03 -8.570007e-03 -6.667209e-03 -1.712013e-03 -1.157879e-02 -1.275343e-03 -4.817303e-03 -3.568608e-03 -1.166428e-03 -2.644854e-03 -6.744169e-03 1.657804e-03 -2.753136e-03 -1.329248e-03 5.826974e-04 -3.434172e-03 -2.919766e-03 3.152501e-03 -2.402721e-03 -2.754870e-04 7.248450e-04 -3.388803e-03 9.230968e-04 3.165704e-03 -2.422842e-03 5.670571e-04 8.367242e-04 -2.539150e-03 3.941470e-03 1.722487e-03 -1.502780e-03 1.764463e-03 2.119734e-03 -1.362738e-03 7.151346e-03 -1.744384e-03 1.974210e-03 3.016803e-03 3.935531e-03 2.833108e-03 5.398059e-03 3.517499e-03 6.207662e-03 5.188797e-03 7.097194e-03 7.554861e-03 8.260789e-03 1.069191e-02 9.646209e-03 1.486583e-02 1.115812e-02 
1.821630e-02 1.013392e-02 3.423803e-02 -1.403303e-01 -1.045482e+01 -4.923332e-02 -2.871575e-02 -1.261397e-02 -1.694962e-02 -1.098722e-02 -1.232892e-02 -9.141333e-03 -1.077745e-02 -3.995720e-03 -1.490738e-02 6.519734e-03 -2.583760e-03 -2.417681e-02 6.946406e-03 -4.855264e-03 -5.869788e-03 1.059319e-02 -1.024879e-02 -1.584216e-02 1.189284e-02 -4.592487e-03 -1.814834e-03 9.728576e-03 -1.466969e-02 -6.058670e-03 1.451541e-02 -7.979134e-03 -8.489846e-05 5.661344e-03 -1.460436e-02 6.062158e-03 1.353790e-02 -1.216707e-02 1.662715e-03 2.489681e-03 -1.216695e-02 1.453424e-02 7.616345e-03 -1.348160e-02 5.150124e-03 2.774385e-03 -8.298715e-03 2.070208e-02 -4.125289e-03 -1.104247e-02 1.063259e-02 5.154196e-04 4.021870e-03 5.562621e-03 2.531667e-03 6.553760e-03 3.965135e-03 6.858962e-03 6.434418e-03 7.420262e-03 9.516801e-03 8.298079e-03 1.334858e-02 9.372914e-03 
1.413174e-02 8.318222e-03 2.739926e-02 -1.154626e-01 -8.618812e+00 -4.198038e-02 -2.212071e-02 -1.126204e-02 -1.204448e-02 -1.013193e-02 -8.266512e-03 -8.118835e-03 -8.806569e-03 -6.808747e-04 -1.951107e-02 1.535085e-02 1.088614e-04 -3.252611e-02 1.306993e-02 -3.119808e-03 -8.012546e-03 1.949435e-02 -1.578538e-02 -2.247861e-02 2.039014e-02 -4.499397e-03 -2.347313e-03 1.655875e-02 -2.455651e-02 -9.247010e-03 2.480774e-02 -1.052631e-02 1.247573e-06 9.138692e-03 -2.464057e-02 7.694963e-03 2.354061e-02 -1.778811e-02 2.613377e-03 3.486626e-03 -2.049440e-02 2.020191e-02 1.314777e-02 -2.100706e-02 8.158310e-03 2.789902e-03 -1.371351e-02 2.905629e-02 -7.688659e-03 -1.887999e-02 1.685129e-02 -1.412720e-03 4.001133e-03 5.383638e-03 8.025716e-04 6.336529e-03 1.907102e-03 6.229440e-03 4.186861e-03 6.371159e-03 6.896717e-03 6.894874e-03 1.011606e-02 7.691081e-03 
1.114355e-02 6.144116e-03 2.184065e-02 -9.318597e-02 -6.210365e+00 -2.151394e-02 -1.527925e-02 -9.682658e-03 -7.708067e-03 -1.035050e-02 -2.967996e-03 -1.105912e-02 -2.414817e-03 -2.279089e-03 -3.659356e-02 7.183239e-02 -5.467726e-03 -8.915592e-02 4.582817e-02 -1.297376e-03 -1.447279e-02 7.145675e-02 -4.907794e-02 -6.369991e-02 6.328913e-02 -9.454124e-03 -1.329437e-03 5.411244e-02 -7.138842e-02 -2.285629e-02 7.336688e-02 -2.982493e-02 1.704668e-03 2.695402e-02 -7.051888e-02 3.186728e-02 6.761534e-02 -5.733607e-02 6.904177e-03 8.884355e-03 -5.769906e-02 6.927896e-02 3.901478e-02 -7.402987e-02 2.228084e-02 4.213573e-03 -3.605547e-02 9.070291e-02 -1.588553e-02 -7.474348e-02 4.399649e-02 2.760909e-03 -2.767259e-04 9.423210e-03 -2.985466e-03 7.382420e-03 -1.623355e-04 5.814360e-03 2.676630e-03 5.262920e-03 5.258380e-03 5.353139e-03 7.957544e-03 5.793078e-03 
7.093223e-03 4.100520e-03 1.513055e-02 -7.156865e-02 -4.176056e+00 -7.236018e-03 -8.240317e-03 -7.881365e-03 -2.788260e-03 -9.819450e-03 2.521514e-03 -1.282728e-02 4.917572e-03 -5.740609e-03 -5.232486e-02 2.667069e-01 4.755783e-01 1.863670e-01 7.780451e-02 4.558951e-03 -2.263044e-02 1.326178e-01 3.764372e-01 3.345775e-01 1.600302e-01 1.383209e-03 -2.698669e-03 4.252138e-02 2.349219e-01 4.727495e-01 2.899790e-01 -1.310685e-02 3.070412e-03 1.667562e-02 5.232924e-02 5.353391e-01 4.444259e-01 -1.051266e-02 1.242840e-02 5.415096e-03 -4.945837e-02 4.759302e-01 5.247043e-01 6.385120e-02 3.655229e-02 5.426492e-03 -5.660151e-02 3.149276e-01 5.205143e-01 2.213464e-01 7.444037e-02 1.126194e-02 -5.842896e-03 1.168077e-02 -6.490336e-03 7.359252e-03 -2.413829e-03 4.905947e-03 6.085601e-04 3.935686e-03 2.823150e-03 3.736144e-03 4.839551e-03 3.923210e-03 
3.549058e-03 1.814414e-03 9.377462e-03 -5.653795e-02 -1.847017e+00 1.966230e-02 -1.115947e-03 -5.123214e-03 8.770703e-04 -9.545840e-03 9.800119e-03 -2.443294e-02 4.075362e-02 -6.742649e-02 -7.502617e-02 3.068509e+00 9.478957e+00 6.581074e+00 3.629080e-01 2.946645e-02 -2.508895e-02 7.569346e-01 8.180536e+00 8.894945e+00 1.715450e+00 1.629768e-01 1.394441e-02 -4.142744e-01 5.843135e+00 1.016657e+01 4.335188e+00 4.152213e-01 1.191960e-02 -2.597034e-01 2.564430e+00 9.353048e+00 7.742232e+00 1.288502e+00 3.213631e-02 -6.887101e-02 4.980351e-01 6.997706e+00 9.742046e+00 3.460885e+00 1.129066e-01 8.871255e-03 -1.140810e-01 3.564990e+00 1.041265e+01 7.052722e+00 3.246811e-01 9.749984e-02 -5.269887e-02 2.069301e-02 -1.430816e-02 7.233420e-03 -3.949305e-03 3.441174e-03 -4.758386e-04 2.250491e-03 1.165506e-03 1.896566e-03 2.347026e-03 1.871729e-03 
-3.090495e-04 -4.584973e-04 3.106115e-03 -3.943825e-02 3.508246e-01 4.202411e-02 5.798452e-03 -2.012772e-03 4.250870e-03 -7.145580e-03 1.374236e-02 -2.604663e-02 5.510489e-02 -9.504915e-02 -3.805062e-02 4.358456e+00 1.329832e+01 9.194934e+00 3.848518e-01 3.319950e-02 -1.023944e-02 1.143783e+00 1.153260e+01 1.241597e+01 2.227325e+00 2.044786e-01 2.018651e-02 -5.046767e-01 8.303083e+00 1.418038e+01 5.874538e+00 5.287588e-01 9.917605e-03 -3.358236e-01 3.746711e+00 1.305749e+01 1.065970e+01 1.708807e+00 2.170284e-02 -9.386800e-02 8.442955e-01 9.782636e+00 1.348915e+01 4.728675e+00 9.393532e-02 3.153487e-03 -7.285820e-02 5.027489e+00 1.450589e+01 9.750288e+00 3.152202e-01 1.239889e-01 -7.004432e-02 2.111483e-02 -1.762736e-02 5.331927e-03 -5.015516e-03 1.577610e-03 -1.753658e-03 4.574476e-04 -7.903564e-04 2.483683e-05 -4.626854e-04 -1.841855e-04 
-4.198947e-03 -2.795528e-03 -2.739057e-03 -2.910518e-02 2.564425e+00 7.250448e-02 1.213952e-02 3.906379e-03 2.881307e-03 5.187920e-03 -2.082990e-03 1.317408e-02 -1.925023e-02 4.661104e-02 -7.022837e-03 -1.574254e+00 -4.716673e+00 -3.215837e+00 -1.248279e-01 -2.492976e-04 -5.790061e-03 -4.312946e-01 -4.147727e+00 -4.410107e+00 -7.688177e-01 -6.226702e-02 -9.406139e-03 1.669511e-01 -3.024391e+00 -5.094486e+00 -2.076430e+00 -1.732858e-01 -5.150213e-03 1.177304e-01 -1.390747e+00 -4.743076e+00 -3.822566e+00 -5.896405e-01 -7.024485e-03 3.399397e-02 -3.312890e-01 -3.593904e+00 -4.889611e+00 -1.685543e+00 -2.340504e-02 -3.640816e-03 1.994882e-02 -1.884193e+00 -5.320988e+00 -3.531913e+00 -8.699246e-02 -5.349746e-02 2.385492e-02 -1.004398e-02 5.239688e-03 -3.209574e-03 2.936131e-04 -1.914301e-03 -1.310358e-03 -1.822838e-03 -2.225065e-03 -2.027644e-03 -3.123342e-03 -2.316827e-03 