# vtk DataFile Version 2.0
Comment goes here
ASCII

DATASET STRUCTURED_POINTS
FIELD FieldData 1
TIME 1 1 double
0.07400000
DIMENSIONS    64   64   1

ORIGIN    0.000   0.000   0.000
SPACING   0.03125 0.03125   1.000

POINT_DATA   4096
SCALARS Omega double
LOOKUP_TABLE default

-1.483495e-01 -5.290411e-02 -1.351636e-01 -3.760946e-01 -1.782824e-01 1.405702e-01 -6.273006e-02 -1.329907e-01 -5.908054e-02 -1.157602e-01 -8.540399e-03 -8.202481e-02 5.879049e-02 -1.979274e-02 1.266467e-01 4.204583e-02 2.045163e-01 8.643777e-02 3.045551e-01 1.057092e-01 3.889675e-01 9.672686e-02 4.482319e-01 2.169476e-01 4.558769e-01 2.267520e-01 4.615869e-01 1.527473e-01 4.931773e-01 2.289444e-01 3.962996e-01 1.294616e-01 4.050162e-01 1.231958e-01 4.030808e-01 6.565506e-02 3.842467e-01 1.926456e-01 3.188667e-01 2.073118e-01 2.664914e-01 2.386417e-01 2.239454e-01 2.817477e-01 1.579032e-01 2.779109e-01 1.082165e-01 2.681993e-01 5.274000e-02 2.218254e-01 2.957126e-02 1.854259e-01 -1.497043e-02 1.475726e-01 -7.163752e-02 1.223846e-01 -1.181337e-01 9.636269e-02 -1.546080e-01 8.093977e-02 -1.946383e-01 6.851509e-02 -2.172011e-01 8.886525e-02 
-2.291553e+01 -3.587192e+01 -1.961178e+01 -3.600208e+01 -2.074761e+01 -3.603226e+01 -2.288360e+01 -3.535481e+01 -2.803947e+01 -3.468761e+01 -3.233059e+01 -3.232851e+01 -3.714820e+01 -2.868313e+01 -4.234957e+01 -2.447136e+01 -4.777595e+01 -1.960796e+01 -5.366062e+01 -1.397428e+01 -6.045675e+01 -7.107067e+00 -6.827204e+01 3.172757e-01 -7.593243e+01 6.849084e+00 -8.183665e+01 1.159562e+01 -8.622227e+01 1.516218e+01 -8.964689e+01 1.798249e+01 -9.238349e+01 2.027891e+01 -9.466775e+01 2.192880e+01 -9.622826e+01 2.278640e+01 -9.697787e+01 2.292173e+01 -9.675994e+01 2.199926e+01 -9.544095e+01 1.999923e+01 -9.277428e+01 1.675909e+01 -8.884118e+01 1.250084e+01 -8.362524e+01 7.087269e+00 -7.711631e+01 5.950048e-01 -6.940924e+01 -6.709698e+00 -6.053795e+01 -1.498284e+01 -5.042978e+01 -2.398177e+01 -3.973013e+01 -3.282300e+01 -2.909540e+01 -4.096388e+01 -1.708553e+01 -4.892889e+01 
-6.559772e+01 -6.012243e+00 -5.065855e+01 4.120774e+00 -8.289127e+00 5.583692e+00 -6.324035e+01 -1.861679e+00 -8.127756e+01 -2.728117e+00 -9.284940e+01 -3.544803e+00 -1.005984e+02 -4.805114e+00 -1.061851e+02 -6.147502e+00 -1.104001e+02 -7.789837e+00 -1.134141e+02 -9.678353e+00 -1.149882e+02 -1.232840e+01 -1.150791e+02 -1.566461e+01 -1.144671e+02 -1.843791e+01 -1.145655e+02 -1.996588e+01 -1.149132e+02 -2.124933e+01 -1.152983e+02 -2.204626e+01 -1.156325e+02 -2.302707e+01 -1.157137e+02 -2.375003e+01 -1.157752e+02 -2.440233e+01 -1.157580e+02 -2.478216e+01 -1.156834e+02 -2.488416e+01 -1.156203e+02 -2.453152e+01 -1.157853e+02 -2.361970e+01 -1.158274e+02 -2.247150e+01 -1.156772e+02 -2.072602e+01 -1.153930e+02 -1.829164e+01 -1.146668e+02 -1.545479e+01 -1.133150e+02 -1.189801e+01 -1.114550e+02 -7.589406e+00 -1.085253e+02 -2.819945e+00 -1.038221e+02 2.289607e+00 -1.021135e+02 1.212350e+01 
-3.185465e+01 -1.243603e+00 -2.828171e+01 8.768909e+00 -4.136741e+01 5.237130e+00 -2.336840e+01 1.320736e+01 -3.572190e+01 1.118000e+01 -4.297962e+01 8.594645e+00 -4.732354e+01 5.728770e+00 -4.999635e+01 2.924402e+00 -5.171219e+01 5.739075e-02 -5.250364e+01 -2.942383e+00 -5.227323e+01 -6.433557e+00 -5.096321e+01 -1.009449e+01 -4.920291e+01 -1.290992e+01 -4.801798e+01 -1.495868e+01 -4.727957e+01 -1.630561e+01 -4.655413e+01 -1.735304e+01 -4.592963e+01 -1.805234e+01 -4.523732e+01 -1.851054e+01 -4.452241e+01 -1.855340e+01 -4.401977e+01 -1.845035e+01 -4.374506e+01 -1.793311e+01 -4.356985e+01 -1.706023e+01 -4.390193e+01 -1.566852e+01 -4.440018e+01 -1.399611e+01 -4.519242e+01 -1.195960e+01 -4.620677e+01 -9.658460e+00 -4.726195e+01 -7.115290e+00 -4.839748e+01 -4.214917e+00 -4.959222e+01 -9.301345e-01 -5.023016e+01 2.277876e+00 -5.006374e+01 6.956033e+00 -5.282714e+01 1.036558e+01 
-4.056960e+00 2.235599e+00 -3.973550e+00 -9.091019e+00 -6.459859e+01 -4.080609e+00 1.048258e+01 1.571764e+00 2.410010e+00 1.029491e+00 -4.160066e-01 5.521117e-01 -1.496364e+00 2.546152e-01 -1.971772e+00 4.229637e-02 -2.205592e+00 -9.547758e-02 -2.357059e+00 -1.966003e-01 -2.465535e+00 -2.369743e-01 -2.493843e+00 -2.303532e-01 -2.469124e+00 -2.194075e-01 -2.442477e+00 -3.010335e-01 -2.324198e+00 -3.824948e-01 -2.152134e+00 -4.947167e-01 -1.974639e+00 -5.645456e-01 -1.764225e+00 -6.100662e-01 -1.532087e+00 -7.047228e-01 -1.362493e+00 -8.415902e-01 -1.204139e+00 -1.001567e+00 -1.012575e+00 -1.159361e+00 -8.375734e-01 -1.227307e+00 -6.640356e-01 -1.176274e+00 -5.015505e-01 -1.018941e+00 -4.065170e-01 -8.022420e-01 -3.922960e-01 -5.177131e-01 -4.420320e-01 -1.648053e-01 -5.746401e-01 2.658377e-01 -8.298040e-01 7.435128e-01 -1.233288e+00 1.458492e+00 -2.377115e+00 3.454335e+00 
-3.269111e+00 2.523797e+00 -3.626328e+00 -8.806083e+00 -8.538916e+01 -5.586037e+00 8.248917e+00 -1.476630e+00 4.849539e+00 -3.524955e-02 2.407910e+00 3.664755e-02 1.181487e+00 -4.432903e-02 5.959521e-01 -8.847450e-02 3.097179e-01 -1.011559e-01 1.715470e-01 -1.439182e-01 4.928688e-02 -1.340082e-01 -1.264371e-02 -9.059356e-02 1.329810e-02 -1.088639e-01 -2.648903e-02 -7.205507e-02 -5.694311e-02 -5.424450e-02 -5.792770e-03 -1.356911e-02 -3.949082e-02 -2.197703e-02 -6.014580e-02 -1.044800e-02 -2.506608e-02 2.528955e-02 -3.149564e-02 2.680700e-02 -6.811614e-02 4.427716e-02 -6.353987e-02 8.888179e-02 -7.447169e-02 7.717964e-02 -1.219608e-01 7.455928e-02 -1.554619e-01 1.280854e-01 -1.296429e-01 1.863052e-01 -1.862625e-01 2.769024e-01 -3.058474e-01 4.620157e-01 -4.888392e-01 7.544220e-01 -7.921851e-01 1.187542e+00 -1.327687e+00 1.573682e+00 -2.083650e+00 2.571630e+00 
-3.122375e+00 1.524296e+00 -1.733995e+00 -1.013559e+01 -9.617504e+01 -3.494787e+00 6.129042e+00 -2.094184e+00 4.603645e+00 -5.815984e-01 2.571096e+00 -2.020404e-01 1.319393e+00 -1.549928e-01 7.155346e-01 -1.808476e-01 4.434778e-01 -1.649238e-01 2.804331e-01 -2.305140e-01 1.498144e-01 -2.219288e-01 1.297815e-01 -1.343026e-01 1.511497e-01 -1.106431e-01 8.115748e-02 -7.232406e-02 7.181715e-02 -1.063273e-02 1.304466e-01 1.324991e-02 4.579929e-02 3.225274e-02 2.716785e-02 5.678285e-02 1.043312e-01 7.415618e-02 1.006415e-02 9.027908e-02 -4.106829e-02 1.118731e-01 -1.086687e-02 1.388991e-01 -1.030622e-01 1.324625e-01 -1.642879e-01 1.384102e-01 -1.567811e-01 1.949611e-01 -2.079125e-01 2.646926e-01 -3.258002e-01 4.091363e-01 -4.710897e-01 6.240249e-01 -6.881579e-01 8.997948e-01 -1.035882e+00 1.251197e+00 -1.569165e+00 1.660617e+00 -2.357467e+00 2.099240e+00 
-2.930836e+00 1.090303e+00 -1.230206e+00 -8.869013e+00 -1.086290e+02 -2.792910e+00 3.269798e+00 -3.096171e+00 3.504137e+00 -1.347514e+00 2.512036e+00 -5.482424e-01 1.456782e+00 -3.274899e-01 8.261352e-01 -3.073270e-01 4.839456e-01 -2.027148e-01 3.537586e-01 -3.373850e-01 1.457144e-01 -3.407282e-01 5.492674e-02 -1.639085e-01 1.597558e-01 -1.679973e-01 3.699410e-02 -1.683322e-01 -2.547291e-02 -6.796662e-02 1.106027e-01 -2.608146e-02 2.181742e-02 -5.017363e-02 -2.850460e-02 -5.960212e-03 5.446898e-02 1.103960e-01 1.344675e-02 8.588587e-02 -6.643243e-02 9.960955e-02 -7.975665e-02 2.440094e-01 -6.849473e-02 2.048160e-01 -1.610864e-01 1.786879e-01 -2.246680e-01 3.211093e-01 -1.013028e-01 3.638865e-01 -1.967256e-01 4.683647e-01 -3.566338e-01 7.353868e-01 -5.797362e-01 1.094032e+00 -9.357225e-01 1.493708e+00 -1.464116e+00 1.901618e+00 -2.183631e+00 2.331704e+00 
-2.272656e+00 4.885443e-01 4.431462e-01 -9.011627e+00 -1.141194e+02 -1.530584e+00 2.140607e+00 -2.802715e+00 2.329177e+00 -1.624309e+00 1.987571e+00 -7.404751e-01 1.214787e+00 -4.097546e-01 7.452114e-01 -4.651647e-01 5.022598e-01 -3.073119e-01 3.555645e-01 -5.128674e-01 1.484807e-01 -4.678022e-01 1.547305e-01 -1.676919e-01 2.156387e-01 -2.111550e-01 2.953445e-02 -1.774280e-01 3.461048e-02 -3.525372e-03 2.129111e-01 -4.989498e-02 -9.533990e-03 -1.575554e-02 -1.641445e-02 8.152289e-02 2.165012e-01 8.968723e-02 -3.782525e-02 1.201595e-01 -1.016709e-01 1.637913e-01 4.538817e-02 2.355737e-01 -1.667334e-01 2.133669e-01 -2.461100e-01 1.902710e-01 -1.395778e-01 2.796924e-01 -1.794726e-01 3.057586e-01 -3.310862e-01 5.092323e-01 -4.516007e-01 8.084029e-01 -6.539136e-01 1.145162e+00 -9.873961e-01 1.505090e+00 -1.449826e+00 1.872196e+00 -2.008933e+00 2.109051e+00 
-1.767274e+00 7.298260e-02 1.285838e+00 -8.170971e+00 -1.217186e+02 -8.427162e-01 1.052755e+00 -3.043617e+00 1.214854e+00 -2.097203e+00 1.471647e+00 -9.707951e-01 1.011064e+00 -4.515985e-01 6.460540e-01 -6.356690e-01 3.381517e-01 -3.732868e-01 4.344210e-01 -7.135321e-01 1.402005e-01 -6.419859e-01 1.635441e-02 -7.905825e-02 2.815258e-01 -2.803555e-01 -1.981212e-03 -3.235774e-01 -9.170699e-02 1.370356e-03 2.060839e-01 -6.757143e-02 -1.542988e-03 -1.481775e-01 -3.816293e-02 -6.254432e-03 1.128759e-01 2.153632e-01 2.768280e-02 7.535698e-02 -6.471416e-02 7.774148e-02 -1.224999e-01 4.916625e-01 -7.127466e-02 2.820590e-01 -2.384040e-01 1.290361e-01 -4.072842e-01 4.868577e-01 -6.400760e-03 2.834481e-01 -1.147056e-01 3.980396e-01 -2.511767e-01 8.440994e-01 -4.695936e-01 1.267825e+00 -8.170580e-01 1.620027e+00 -1.252941e+00 1.931398e+00 -1.725838e+00 2.029560e+00 
-1.014028e+00 -4.074519e-01 2.573055e+00 -7.753611e+00 -1.238629e+02 -4.600165e-02 6.977149e-01 -2.755908e+00 2.730146e-01 -2.203754e+00 7.572497e-01 -9.269405e-01 5.380569e-01 -4.265353e-02 4.206559e-01 -5.879532e-01 2.385884e-01 -9.641781e-01 3.930237e-01 -1.047044e+00 1.354945e-01 -5.705793e-01 2.208318e-01 -1.245938e-01 2.893007e-01 -4.293863e-01 -1.071269e-01 -2.273191e-01 1.302473e-02 1.514600e-01 3.492176e-01 -3.197853e-01 -1.521995e-01 -3.047523e-02 -5.336321e-02 2.972706e-01 4.411271e-01 -1.146681e-01 -1.492630e-01 1.914260e-01 -1.572669e-01 3.625837e-01 2.084548e-01 2.407770e-01 -2.979314e-01 3.753250e-01 -4.101625e-01 3.047247e-01 -1.331954e-01 2.263430e-01 -1.078051e-01 9.312875e-02 -2.424459e-01 4.961357e-01 -2.417051e-01 9.359942e-01 -4.346199e-01 1.296249e+00 -7.612124e-01 1.590137e+00 -1.115303e+00 1.846824e+00 -1.402675e+00 1.816563e+00 
-4.351990e-01 -8.336535e-01 3.423462e+00 -7.131691e+00 -1.279526e+02 6.427010e-01 4.669957e-01 -2.867210e+00 -3.153277e-01 -2.711579e+00 3.495806e-01 -1.113470e+00 2.830102e-01 6.408524e-01 1.207147e-01 2.084137e-01 -6.445992e-01 -2.563423e+00 6.780807e-01 -1.304658e+00 2.770947e-01 2.306288e-02 -9.368039e-02 -3.914359e-01 3.246069e-01 -7.955696e-01 -5.873585e-02 -3.834050e-02 -6.987480e-02 1.834990e-01 4.761583e-02 -7.718279e-01 -9.170866e-03 -4.781450e-02 1.860576e-01 4.368630e-01 -1.592952e-01 -2.716497e-01 8.440781e-02 1.015931e-01 1.782952e-01 4.333654e-01 -4.080205e-01 4.547232e-01 -2.854905e-02 3.988045e-01 -2.377968e-01 3.632687e-01 -1.008596e+00 6.636628e-01 2.429108e-02 -6.747475e-01 2.466935e-01 1.498465e-01 1.624146e-01 1.095212e+00 -2.185748e-01 1.466313e+00 -6.287797e-01 1.648941e+00 -9.423166e-01 1.808429e+00 -1.108663e+00 1.632603e+00 
2.702276e-01 -1.243741e+00 4.320042e+00 -6.442986e+00 -1.275856e+02 1.143805e+00 3.679056e-01 -2.839058e+00 -9.106992e-01 -3.247851e+00 -2.966369e-01 -1.728820e+00 -8.179243e-02 1.213408e+00 3.147052e-01 2.613207e+00 -2.211677e+00 -6.385575e+00 1.340495e+00 -1.342445e+00 8.034637e-01 3.709433e+00 -4.346161e-01 -3.245205e+00 5.030252e-01 -1.035555e+00 -6.296859e-02 2.314306e+00 -2.071299e-01 -9.528292e-01 2.624278e-01 -1.652582e+00 -1.007174e-01 1.318310e+00 1.213885e-01 1.607852e+00 1.777852e-01 -2.245552e+00 1.069044e-01 1.134004e+00 1.775518e-01 2.718326e+00 -2.427828e-01 -2.104011e+00 5.929023e-02 1.381521e+00 -3.439648e-01 2.448209e+00 -1.044419e+00 -1.679638e+00 1.723374e-01 -5.153275e-01 2.382905e-01 5.565846e-01 3.106995e-01 1.284872e+00 -1.470539e-01 1.512315e+00 -5.823258e-01 1.590933e+00 -8.021011e-01 1.688581e+00 -7.779795e-01 1.398849e+00 
8.373429e-01 -1.652389e+00 4.998313e+00 -5.829148e+00 -1.287175e+02 1.798973e+00 3.520573e-01 -2.847970e+00 -1.154206e+00 -4.281868e+00 -3.093731e-01 -3.741776e+00 5.219616e-01 -1.775172e+00 2.149000e+00 2.134349e+00 -8.079167e+00 -4.508849e+00 5.248242e+00 3.906491e-01 3.052330e+00 1.104176e+01 -4.609385e+00 -5.265349e+00 1.448270e+00 -4.037087e+00 1.308698e+00 8.813476e+00 -1.607304e+00 -2.443653e+00 -8.774536e-01 -6.006172e+00 9.723345e-01 4.569318e+00 1.419217e+00 3.180024e+00 -3.382957e+00 -6.695234e+00 1.096033e+00 1.252114e+00 2.482755e+00 7.971413e+00 -4.397385e+00 -6.780629e+00 9.006828e-01 5.468240e-02 1.778407e+00 1.084091e+01 -5.384227e+00 -4.473846e+00 -8.883180e-01 -3.759591e+00 2.354575e+00 1.480635e+00 1.024047e+00 2.115583e+00 -3.042334e-01 1.657005e+00 -7.133328e-01 1.522032e+00 -7.317186e-01 1.563179e+00 -5.127236e-01 1.155756e+00 
1.460094e+00 -1.993649e+00 5.506377e+00 -4.863938e+00 -1.263117e+02 1.992013e+00 2.811410e-01 -2.526341e+00 -1.468758e+00 -4.484936e+00 -1.245551e+00 -6.371889e+00 -2.122401e-01 -1.500426e+01 1.000052e+01 -1.759401e+01 -1.129478e+01 2.259418e+01 3.435611e+01 3.064739e+01 1.022977e+01 6.518349e+00 -1.002746e+01 4.097973e+00 1.966370e+01 1.566108e+01 5.389263e+00 1.370998e+01 -6.751202e+00 -5.924562e+00 1.450136e+01 6.058554e+00 1.487438e+00 1.124793e+01 -6.975203e-01 -1.153358e+01 1.034578e+01 1.559609e+00 1.292873e+00 3.464931e+00 3.201463e+00 -8.873967e+00 4.949928e+00 -1.865470e-01 3.291797e+00 -5.031632e-01 3.517023e+00 -8.643732e-01 3.069167e-01 -1.399615e+00 3.485074e+00 -1.426176e+01 -1.141330e+00 6.455851e-02 1.093066e+00 2.855965e+00 -4.608344e-01 1.674185e+00 -8.171205e-01 1.334708e+00 -6.228953e-01 1.372167e+00 -1.942743e-01 8.837785e-01 
2.001087e+00 -2.259456e+00 5.850380e+00 -3.853418e+00 -1.248039e+02 2.518917e+00 2.752284e-03 -1.624690e+00 -2.133955e+00 -4.318261e+00 -1.436653e+00 -1.082894e+01 5.114988e+00 -3.311923e+01 2.599937e+01 -4.168881e+01 7.013295e+00 8.266335e+01 8.199019e+01 6.730027e+01 3.119336e+01 -2.492177e+01 -1.509985e+00 4.415819e+01 7.123626e+01 8.488454e+01 2.948227e+01 -1.929472e+00 1.601857e+00 -1.241884e+00 4.966229e+01 9.060360e+01 3.110648e+01 1.771994e+01 1.406990e+01 -3.667381e+01 2.304102e+01 7.483565e+01 3.787511e+01 2.651819e+01 2.683009e+01 -4.333218e+01 5.883479e+00 5.894109e+01 4.787779e+01 2.994064e+01 3.353035e+01 -2.974227e+01 -3.862783e+00 3.797401e+01 5.073694e+01 5.228965e+01 1.644747e+01 1.507506e+01 -1.705156e+00 1.916682e+00 -2.416354e+00 7.218291e-01 -1.198844e+00 1.018222e+00 -5.094911e-01 1.201503e+00 1.111678e-01 6.179461e-01 
2.515835e+00 -2.335614e+00 5.973787e+00 -2.831032e+00 -1.207136e+02 2.312493e+00 9.766005e-02 -1.418271e+00 -1.369768e+00 -3.327311e+00 9.118544e-01 -6.794088e+00 7.210120e+00 -1.528494e+01 1.806967e+01 -2.828152e+01 2.389544e+01 5.592406e+01 3.547053e+01 4.021496e+00 2.523863e+01 -3.991203e+01 2.195321e+01 6.776354e+01 5.756378e+01 4.867962e+01 2.149811e+01 -3.061453e+01 9.964471e+00 2.996848e+01 7.582968e+01 1.004503e+02 1.294048e+01 -9.884906e+00 6.559830e+00 -2.856413e+01 7.379259e+01 1.355457e+02 1.345733e+01 3.830617e+00 1.792189e+01 -5.910685e+01 5.314562e+01 1.510582e+02 3.455704e+01 1.084326e+01 2.974385e+01 -6.055844e+01 3.593960e+01 1.495997e+02 7.192924e+01 9.119132e+01 -4.390184e+00 8.769262e+00 -8.193348e+00 -2.563044e+00 -3.565744e+00 -9.567137e-01 -1.078954e+00 5.173330e-01 -2.021380e-01 1.007112e+00 4.846940e-01 3.938669e-01 
2.949151e+00 -2.363561e+00 6.032633e+00 -2.012734e+00 -1.172405e+02 2.267354e+00 4.820792e-01 -8.084595e-01 -8.176893e-01 -1.201571e-02 -2.442462e-01 6.188254e+00 -2.725251e+00 2.265155e+01 -1.717226e+01 3.473021e+01 -1.962160e+01 -1.066868e+02 -6.103558e+01 -5.576292e+01 -1.193652e+01 2.541949e+01 -1.181696e+01 -6.720037e+01 -4.801361e+01 -5.708837e+01 -7.422771e+00 1.606777e+01 -2.538956e+00 -2.523684e+01 -4.356730e+01 -5.845350e+01 -2.876423e+00 5.466575e+00 4.412903e-01 6.739645e+00 -3.495876e+01 -5.029546e+01 -3.469300e+00 1.128905e+00 -4.474097e+00 1.745896e+01 -2.107933e+01 -3.525289e+01 -8.248332e+00 2.916441e+00 -6.708431e+00 1.297813e+01 -7.482181e+00 -6.571336e+00 1.550875e+00 1.606259e+01 -4.463804e+00 4.370765e+00 -1.700450e+00 1.205737e+00 -5.242259e-01 7.783534e-01 -5.477960e-02 9.407774e-01 2.217567e-01 9.914189e-01 8.340147e-01 1.843098e-01 
3.243095e+00 -2.127358e+00 5.846222e+00 -1.166474e+00 -1.115161e+02 2.113936e+00 3.651128e-01 -9.881661e-01 -1.210592e+00 -3.818606e-01 -1.992372e+00 7.291976e+00 -9.541607e+00 3.178527e+01 -3.112581e+01 3.090961e+01 4.315149e+00 -4.996719e+01 -8.150914e+01 -5.593918e+01 -4.393569e+01 1.873732e+01 5.132819e-01 -4.868782e+01 -7.943633e+01 -8.383234e+01 -3.604414e+01 1.058869e+01 -5.718011e+00 -1.051935e+01 -7.131624e+01 -1.174521e+02 -3.059933e+01 -4.111000e+00 -1.525057e+01 4.040028e+01 -5.469810e+01 -1.333769e+02 -3.349540e+01 -1.273808e+01 -2.720552e+01 6.270095e+01 -3.881445e+01 -1.390351e+02 -4.873304e+01 -1.593785e+01 -3.477955e+01 6.134604e+01 -3.491170e+01 -1.374020e+02 -7.058687e+01 -8.381846e+01 1.693005e+00 -3.371769e+00 5.813104e+00 5.334636e+00 2.400000e+00 3.022673e+00 7.168161e-01 1.599026e+00 4.867253e-01 1.070124e+00 1.095846e+00 8.308887e-02 
3.513737e+00 -2.009619e+00 5.772214e+00 -5.776658e-01 -1.064310e+02 2.554771e+00 1.186872e-01 -3.548975e-01 -1.914635e+00 -1.291105e+00 -2.671821e+00 -7.474777e-01 -4.628649e+00 3.848026e+00 -1.123061e+01 8.164988e+00 -1.405648e+00 1.181671e+00 -1.555013e+01 -4.332247e-02 -1.373847e+01 -3.248147e+00 2.351797e+00 2.318804e+00 -2.145649e+01 -1.372272e+01 -1.374284e+01 -1.250839e+01 1.363278e+00 1.138064e+01 -2.073045e+01 -2.461505e+01 -1.441517e+01 -1.834622e+01 -7.762343e+00 2.456090e+01 -1.112521e+01 -2.885717e+01 -1.876972e+01 -1.916330e+01 -1.691375e+01 2.754998e+01 -1.249217e+00 -3.510421e+01 -2.919422e+01 -2.215856e+01 -2.329226e+01 2.086198e+01 6.236272e+00 -4.297587e+01 -4.751312e+01 -5.964863e+01 -1.084504e+01 -1.556933e+01 2.319590e+00 2.436367e-01 2.209363e+00 1.887198e+00 1.088729e+00 1.439622e+00 8.117408e-01 1.004743e+00 1.385479e+00 -3.490640e-02 
3.633384e+00 -1.678586e+00 5.421579e+00 1.630343e-01 -9.954111e+01 2.505067e+00 -1.938226e-01 4.579592e-02 -2.406539e+00 -6.214980e-01 -3.294978e+00 -1.565457e+00 -3.163778e+00 -6.649050e+00 -8.851190e-01 -7.216787e+00 2.838285e+00 4.032468e+00 -1.517455e+00 4.773773e+00 -1.417348e+00 -7.481370e+00 1.825187e+00 3.476636e+00 -1.674075e+00 6.436823e+00 2.246849e-01 -8.326761e+00 2.155169e+00 3.133873e+00 -2.416702e+00 7.204089e+00 1.242849e+00 -6.156000e+00 -2.945553e-02 1.488503e+00 -1.088114e+00 6.153233e+00 5.853442e-01 -2.400676e+00 -2.110547e+00 -1.614362e+00 1.961877e+00 4.909493e+00 -1.556458e+00 -1.511489e+00 -2.927682e+00 -6.732367e+00 6.139522e+00 1.661835e+00 -4.413237e+00 2.298595e+00 -7.494437e-01 -4.683258e+00 -1.000885e-02 -1.814700e+00 9.803729e-01 5.314055e-01 9.391060e-01 1.029184e+00 9.219083e-01 8.594440e-01 1.562392e+00 -1.110299e-01 
3.701602e+00 -1.581859e+00 5.305956e+00 1.657079e-01 -9.351174e+01 2.670144e+00 2.166559e-02 -9.751864e-02 -2.053461e+00 -1.346621e+00 -2.465183e+00 -1.854182e+00 -1.722156e+00 -3.429510e+00 -5.137019e-02 -3.292657e+00 6.677452e-01 2.018816e+00 -1.876798e-01 2.909677e-03 -6.621926e-01 -3.469727e+00 -1.871205e-01 1.539203e+00 1.898523e-01 1.103308e+00 -2.946122e-01 -3.245532e+00 -2.513765e-01 1.588170e-01 9.595359e-01 2.978167e+00 -2.285364e-01 -1.975282e+00 -1.079102e+00 -2.965979e+00 1.473893e+00 4.326067e+00 -1.607040e-01 -7.483209e-01 -1.597439e+00 -5.533197e+00 1.979658e+00 5.363893e+00 -3.579685e-02 6.504413e-03 -1.320584e+00 -7.576080e+00 3.173169e+00 5.561216e+00 2.087429e-01 5.005338e+00 -9.957792e-01 -1.009769e+00 -5.346395e-01 -1.445085e+00 4.688975e-01 -1.157828e-01 7.986472e-01 5.714263e-01 9.768759e-01 6.124589e-01 1.679645e+00 -2.422205e-01 
3.643003e+00 -1.394243e+00 4.919613e+00 5.043247e-01 -8.589768e+01 2.516821e+00 -6.111508e-02 -5.943381e-02 -1.905947e+00 -1.491736e+00 -2.059488e+00 -2.240528e+00 -1.198603e+00 -2.443418e+00 -4.050995e-01 -9.280162e-01 6.645537e-01 -8.348809e-01 -5.253684e-01 -2.264129e-01 -2.482773e-01 -2.561254e-01 1.038898e-01 -3.648500e-01 -4.984721e-01 -1.022731e-01 6.707621e-02 -5.605752e-01 9.207142e-02 -3.011338e-01 -2.296485e-01 6.993977e-01 1.185683e-01 -5.270569e-01 -1.289327e-01 -8.240730e-01 -5.710755e-02 1.252930e+00 -1.167764e-02 -5.718783e-01 -1.678621e-01 -1.338585e+00 1.995353e-01 1.509624e+00 5.203441e-03 -8.330095e-01 2.843140e-01 -1.712584e+00 6.506069e-01 2.910971e+00 -6.727110e-01 2.245715e+00 -3.119270e-01 1.764489e-03 -1.442244e-01 -6.493669e-01 3.051754e-01 -1.547928e-01 6.428589e-01 3.466297e-01 9.370550e-01 4.272665e-01 1.704425e+00 -3.421733e-01 
3.527825e+00 -1.341407e+00 4.686187e+00 3.837300e-01 -7.897183e+01 2.416725e+00 2.200290e-01 -1.825024e-02 -1.479191e+00 -1.317822e+00 -1.649551e+00 -1.698417e+00 -1.039109e+00 -1.737596e+00 -6.274909e-01 -1.036624e+00 -3.771214e-01 -9.962185e-01 -2.284449e-01 -3.455142e-01 -1.207925e-01 -2.484060e-01 -2.184514e-01 -6.973529e-01 -2.263151e-01 -1.151728e-01 6.216562e-02 -1.484690e-01 -5.308465e-02 -5.251465e-01 -1.830900e-01 1.919406e-01 1.390193e-01 -2.229464e-03 -9.705303e-02 -3.440188e-01 -2.107454e-01 1.629032e-01 1.307725e-01 3.994875e-02 -9.050921e-02 -1.456301e-01 -6.755542e-02 -4.863534e-02 1.775042e-01 6.128555e-03 1.412681e-01 1.324129e-01 2.810828e-01 5.524528e-01 -2.332782e-01 1.541370e+00 -6.568986e-02 6.497871e-01 -3.404228e-02 -8.758085e-02 2.343063e-01 -4.644534e-02 5.449079e-01 2.293117e-01 8.817329e-01 2.707894e-01 1.670522e+00 -4.441662e-01 
3.314470e+00 -1.221065e+00 4.256140e+00 4.872321e-01 -7.074085e+01 2.185787e+00 2.293217e-01 -5.685714e-02 -1.272117e+00 -1.275696e+00 -1.441801e+00 -1.491239e+00 -9.999325e-01 -1.305111e+00 -6.379840e-01 -9.485370e-01 -2.008908e-01 -1.020085e+00 -4.012963e-01 -5.119123e-01 -1.708088e-01 -2.599489e-01 -3.934629e-02 -5.178003e-01 -2.742363e-01 -2.292719e-01 1.720548e-03 -1.170126e-01 4.472230e-02 -2.986867e-01 -2.396069e-01 -1.617076e-02 7.420099e-02 -2.040131e-02 4.198032e-02 -1.316094e-01 -2.432966e-01 1.557703e-02 7.410390e-02 -1.721035e-02 6.453508e-02 -1.106918e-02 -1.092349e-01 -5.928886e-02 1.402599e-01 2.281742e-02 1.815346e-01 3.112123e-01 -2.681324e-03 5.342480e-01 -2.591067e-01 8.700287e-01 1.136645e-02 4.790283e-01 9.093524e-02 1.141746e-01 2.571207e-01 9.017621e-02 4.878674e-01 2.229946e-01 8.071174e-01 1.936955e-01 1.582601e+00 -4.946116e-01 
3.047064e+00 -1.153843e+00 3.893303e+00 3.613557e-01 -6.293971e+01 1.972939e+00 3.956415e-01 6.983611e-03 -9.669274e-01 -1.027444e+00 -1.212787e+00 -1.150838e+00 -9.280012e-01 -1.062582e+00 -6.715710e-01 -8.569815e-01 -5.308134e-01 -7.173016e-01 -3.536633e-01 -5.218849e-01 -1.475675e-01 -4.577114e-01 -1.201465e-01 -3.948014e-01 -1.622226e-01 -1.939123e-01 1.209945e-02 -1.963228e-01 8.703329e-03 -2.210604e-01 -1.655755e-01 -2.242190e-02 5.156707e-02 -6.236944e-02 2.849330e-02 -1.078543e-01 -1.770006e-01 2.472576e-02 5.079967e-02 3.992687e-03 4.367371e-02 1.167957e-02 -8.463121e-02 5.692177e-02 6.108270e-02 1.284037e-01 6.869327e-02 2.623982e-01 -4.132338e-03 3.141190e-01 -1.375229e-01 4.917500e-01 8.850109e-02 3.673156e-01 1.874037e-01 2.494943e-01 2.886416e-01 2.254913e-01 4.401467e-01 2.510444e-01 7.163994e-01 1.449139e-01 1.447461e+00 -5.228154e-01 
2.709792e+00 -1.039794e+00 3.412878e+00 3.395704e-01 -5.416535e+01 1.709887e+00 4.087493e-01 -1.819104e-02 -7.859039e-01 -8.955530e-01 -1.053637e+00 -8.875346e-01 -8.627106e-01 -7.843859e-01 -5.818867e-01 -7.813417e-01 -4.395762e-01 -5.916769e-01 -3.930329e-01 -6.413143e-01 -1.425424e-01 -5.293038e-01 -5.651058e-02 -2.129286e-01 -1.247490e-01 -2.202694e-01 -9.433560e-03 -2.073075e-01 1.088181e-02 -6.881276e-02 -1.145964e-01 -7.062801e-02 1.629481e-02 -8.466151e-02 3.502543e-02 -4.499639e-02 -1.012876e-01 2.896807e-02 3.111381e-02 -3.256087e-02 5.537603e-02 -1.565966e-02 -5.396770e-02 1.949470e-01 3.264591e-02 1.063605e-01 1.340806e-02 1.477997e-01 -9.695151e-02 3.834560e-01 -8.352075e-02 2.023710e-01 9.784842e-02 1.741811e-01 2.276199e-01 2.729374e-01 2.943965e-01 3.042571e-01 3.812083e-01 2.808094e-01 6.088229e-01 1.256819e-01 1.276410e+00 -5.115498e-01 
2.322647e+00 -9.555016e-01 2.950680e+00 1.744977e-01 -4.560600e+01 1.446175e+00 4.918701e-01 -4.964783e-02 -5.138023e-01 -7.555209e-01 -7.973817e-01 -5.518465e-01 -7.693874e-01 -3.734007e-01 -5.804925e-01 -6.531323e-01 -5.116931e-01 -2.879410e-01 -6.406973e-01 -8.073774e-01 -5.345999e-02 -7.171297e-01 1.308952e-01 9.003388e-02 -2.840237e-01 -3.037449e-01 5.375637e-02 -3.070256e-01 1.840644e-01 1.505898e-01 -3.126303e-01 -1.633881e-01 5.284344e-02 -1.687683e-01 1.858037e-01 5.735155e-02 -2.318489e-01 3.451049e-02 1.425542e-02 -1.060724e-01 1.482419e-01 -1.437918e-02 -7.481368e-02 3.963651e-01 -9.560216e-02 6.578619e-02 4.677553e-04 7.560300e-02 -8.165695e-02 5.132535e-01 -2.969677e-01 -3.460183e-01 2.709440e-01 -9.130443e-02 4.212677e-01 4.132638e-01 3.302334e-01 4.542868e-01 2.925117e-01 3.204713e-01 4.653420e-01 1.042242e-01 1.062129e+00 -4.889050e-01 
1.896789e+00 -8.493549e-01 2.427013e+00 6.421537e-02 -3.640226e+01 1.166646e+00 4.933738e-01 -1.064819e-01 -3.179902e-01 -6.995799e-01 -5.650435e-01 -3.394784e-01 -6.265165e-01 2.156894e-01 -6.201531e-01 -3.411254e-01 -3.793495e-01 -5.348909e-01 -8.466144e-01 -1.249710e+00 1.032444e-01 -3.290045e-01 3.295994e-01 3.225675e-01 -4.723632e-01 -7.972148e-01 1.267443e-01 3.057475e-02 3.058992e-01 6.141621e-01 -5.318508e-01 -9.587077e-01 1.640396e-01 1.108460e-01 3.088770e-01 7.620406e-01 -4.245817e-01 -9.114265e-01 1.372923e-01 7.696182e-02 2.486706e-01 6.970331e-01 -2.269824e-01 -3.503235e-01 -6.428619e-02 1.131299e-01 2.197344e-02 6.674526e-01 -1.950162e-01 1.776912e-01 -4.452116e-01 -1.056818e+00 4.426035e-01 -2.244549e-02 5.086065e-01 6.039317e-01 2.718450e-01 5.382302e-01 1.666465e-01 3.165309e-01 3.110092e-01 7.862245e-02 8.307407e-01 -4.478176e-01 
1.433399e+00 -7.348647e-01 1.874336e+00 -9.683013e-02 -2.720387e+01 9.028094e-01 4.613069e-01 -2.631464e-01 -7.008716e-02 -9.745314e-01 -7.133112e-02 -4.862883e-01 -1.690907e-01 1.402757e+00 -9.644529e-01 7.810524e-01 9.097807e-02 -1.063104e+00 -2.245791e+00 -2.840396e+00 7.728433e-01 1.160389e+00 1.605863e+00 1.096016e+00 -2.152169e+00 -2.946362e+00 6.936411e-01 1.239918e+00 1.557328e+00 2.224241e+00 -2.399038e+00 -3.711934e+00 7.135226e-01 6.671503e-01 1.523982e+00 3.423415e+00 -2.001822e+00 -3.856909e+00 3.270341e-01 -7.093649e-02 1.206733e+00 3.690695e+00 -9.588445e-01 -2.791402e+00 -4.030748e-01 -6.067924e-01 7.405026e-01 3.742630e+00 -1.470489e-01 -5.417083e-01 -2.209679e+00 -3.813578e+00 1.587138e+00 5.481651e-01 1.045434e+00 1.364310e+00 6.569777e-02 6.306997e-01 -1.045784e-01 2.147208e-01 1.048586e-01 4.518370e-03 5.758987e-01 -4.028652e-01 
9.609639e-01 -6.072492e-01 1.304710e+00 -2.222547e-01 -1.769464e+01 6.272267e-01 4.101445e-01 -2.951084e-01 8.492238e-02 -1.015846e+00 2.168474e-01 -1.032122e+00 6.061153e-01 -9.042329e-02 -2.335175e-03 1.347854e+00 -8.779326e-01 -3.043350e+00 7.254436e-01 3.847007e-01 2.647969e+00 3.368265e+00 8.930262e-01 -9.989357e-01 6.834170e-02 -3.723865e-02 2.050123e+00 3.197086e+00 1.591442e+00 -7.848252e-01 -7.987664e-01 -2.628869e-01 2.400967e+00 2.317475e+00 2.499510e+00 4.386193e-01 -2.018883e+00 -9.331380e-01 3.020312e+00 1.650197e+00 2.653430e+00 2.492381e+00 -2.553118e+00 -1.628856e+00 3.305865e+00 1.808433e+00 2.447104e+00 4.565801e+00 -1.796461e+00 -1.824116e+00 1.865254e+00 -5.714242e-02 3.053480e+00 2.451961e+00 9.114318e-01 1.836297e+00 -2.832525e-01 4.985431e-01 -3.300323e-01 5.912004e-02 -5.713718e-02 -6.764887e-02 3.335843e-01 -3.426479e-01 
4.690752e-01 -3.683279e-01 6.320009e-01 -1.520568e-01 -7.978541e+00 3.934178e-01 1.159544e-01 -1.301085e-01 -1.121793e-01 -1.343358e+00 4.926798e-01 -5.219485e+00 3.948658e+00 -1.131508e+01 4.578339e+00 -3.876686e-01 -2.426982e-01 -1.266115e+01 1.389953e+01 3.451912e+01 2.880082e+01 1.932065e+01 4.540054e+00 -1.319394e+01 9.028073e+00 3.575910e+01 2.713434e+01 1.869083e+01 9.428768e+00 -1.555605e+01 2.959766e+00 3.437308e+01 2.580322e+01 1.945752e+01 1.454582e+01 -1.300002e+01 -4.006280e+00 2.565318e+01 2.465345e+01 2.122065e+01 1.637579e+01 -4.267832e+00 -7.023766e+00 1.064996e+01 2.570949e+01 2.848042e+01 1.858801e+01 4.743089e+00 -3.297364e+00 -4.018278e+00 1.982250e+01 5.279085e+01 2.071588e+01 1.841808e+01 -8.045346e-01 9.974961e-01 -1.868196e+00 -6.837888e-01 -7.221850e-01 -3.309304e-01 -1.720056e-01 -1.445687e-01 1.261049e-01 -2.345289e-01 
-1.847421e-02 -1.513131e-01 1.053110e-02 -1.963693e-01 1.679410e+00 1.162719e-01 -1.009284e-02 -9.642403e-02 -6.569020e-02 -1.448796e+00 7.687870e-01 -6.667618e+00 5.286006e+00 -1.545661e+01 7.568037e+00 -2.978043e+00 -1.180387e+00 -9.092527e+00 2.639933e+01 5.326918e+01 3.752169e+01 1.913681e+01 1.762115e+00 -1.404192e+01 2.208143e+01 5.757702e+01 3.340040e+01 1.811093e+01 7.534865e+00 -2.102106e+01 1.580049e+01 5.922401e+01 2.897955e+01 1.857687e+01 1.383881e+01 -2.229747e+01 5.038102e+00 5.001846e+01 2.805687e+01 2.046586e+01 1.646360e+01 -1.389326e+01 -3.726033e+00 2.832819e+01 3.272507e+01 3.129471e+01 1.961631e+01 -3.169617e+00 -3.755748e+00 5.705805e+00 3.216400e+01 6.871525e+01 1.728191e+01 1.645899e+01 -2.870065e+00 -7.285156e-01 -2.195870e+00 -1.272797e+00 -7.166087e-01 -4.877162e-01 -2.074357e-01 -1.648261e-01 -7.296264e-02 -1.145532e-01 
-5.355142e-01 1.907024e-01 -7.197037e-01 -8.073537e-02 1.154640e+01 -4.158361e-01 -5.530924e-02 3.756873e-02 2.238745e-01 5.694215e-01 -2.723730e-04 1.756688e+00 -1.237191e+00 3.970536e+00 -2.267027e+00 1.415669e+00 4.543652e-01 1.189223e+00 -8.577440e+00 -1.271366e+01 -8.094091e+00 -1.626226e+00 2.178563e-01 3.416629e+00 -8.671526e+00 -1.716777e+01 -8.493287e+00 -2.856335e+00 -1.450037e+00 6.958791e+00 -7.624044e+00 -2.123905e+01 -8.284606e+00 -4.381705e+00 -3.995420e+00 8.967680e+00 -3.779352e+00 -2.096181e+01 -9.323189e+00 -6.123556e+00 -5.669509e+00 6.732279e+00 6.882087e-01 -1.435729e+01 -1.347392e+01 -1.193338e+01 -7.317499e+00 2.527152e+00 1.982020e+00 -4.728037e+00 -1.658616e+01 -3.249105e+01 -6.107524e+00 -6.566168e+00 1.650857e+00 3.618525e-01 9.268721e-01 5.481700e-01 1.960192e-01 1.765186e-01 -8.149379e-02 2.713628e-02 -2.494874e-01 7.886376e-02 