# vtk DataFile Version 2.0
Comment goes here
ASCII

DATASET STRUCTURED_POINTS
FIELD FieldData 1
TIME 1 1 double
0.03400000
DIMENSIONS    64   64   1

ORIGIN    0.000   0.000   0.000
SPACING   0.03125 0.03125   1.000

POINT_DATA   4096
SCALARS Omega double
LOOKUP_TABLE default

1.318246e-01 -5.392441e-01 4.072955e-01 -5.481296e-01 3.954359e-01 -3.433682e-01 2.863496e-01 -3.760691e-01 2.549756e-01 -3.065313e-01 2.074800e-01 -2.115979e-01 1.613145e-01 -1.197698e-01 1.403540e-01 -5.037487e-02 1.135048e-01 1.263996e-02 1.035337e-01 7.058914e-02 9.028108e-02 9.667763e-02 1.057283e-01 9.723180e-02 1.274712e-01 1.154794e-01 9.580581e-02 1.364752e-01 7.817395e-02 1.782852e-01 6.007907e-02 1.677380e-01 8.244838e-02 1.678023e-01 6.578367e-02 1.995915e-01 5.598970e-02 1.812629e-01 6.828585e-02 1.789554e-01 5.268703e-02 1.757796e-01 7.544007e-02 1.470405e-01 3.613677e-02 1.656643e-01 -3.864452e-03 1.677462e-01 -3.937734e-02 1.828277e-01 -1.201064e-01 2.137268e-01 -1.906539e-01 2.206274e-01 -2.322105e-01 2.164678e-01 -2.782354e-01 2.320677e-01 -3.201164e-01 2.375388e-01 -3.361963e-01 2.121624e-01 -3.525955e-01 1.522196e-01 
5.981914e-01 -2.422170e+01 -3.314940e+00 -2.359695e+01 -2.801939e+00 -2.324368e+01 -4.302244e+00 -2.126195e+01 -8.016049e+00 -1.887065e+01 -1.143555e+01 -1.644144e+01 -1.458551e+01 -1.413522e+01 -1.732471e+01 -1.200974e+01 -2.036424e+01 -8.721178e+00 -2.490599e+01 -3.889025e+00 -3.054415e+01 1.609757e+00 -3.661528e+01 7.665988e+00 -4.318171e+01 1.360295e+01 -4.810020e+01 1.636053e+01 -4.874368e+01 1.474084e+01 -4.571148e+01 1.036947e+01 -4.058349e+01 5.071570e+00 -3.576404e+01 1.287379e+00 -3.312292e+01 -1.706184e-01 -3.285324e+01 8.389429e-01 -3.486442e+01 3.846850e+00 -3.818770e+01 7.431412e+00 -4.163463e+01 1.095520e+01 -4.471128e+01 1.366817e+01 -4.614175e+01 1.407704e+01 -4.500183e+01 1.177208e+01 -4.105210e+01 6.790061e+00 -3.446900e+01 -2.197477e-01 -2.666828e+01 -7.491783e+00 -1.923005e+01 -1.385166e+01 -1.265066e+01 -1.943613e+01 -6.289117e+00 -2.580015e+01 
-3.994442e+01 3.643702e+00 -2.290718e+01 4.589504e+00 -6.653188e+00 4.821351e+00 -2.601797e+01 3.495097e+00 -3.404109e+01 2.450663e+00 -3.945766e+01 1.512387e+00 -4.332938e+01 7.398531e-01 -4.655427e+01 4.163355e-01 -4.899174e+01 -6.665783e-01 -4.982549e+01 -2.695587e+00 -4.961406e+01 -4.925422e+00 -4.890420e+01 -7.641897e+00 -4.710478e+01 -1.085098e+01 -4.545430e+01 -1.244236e+01 -4.598234e+01 -1.149628e+01 -4.832899e+01 -9.107779e+00 -5.141260e+01 -6.412106e+00 -5.397602e+01 -4.667934e+00 -5.515937e+01 -4.142306e+00 -5.495682e+01 -4.803777e+00 -5.355505e+01 -6.359507e+00 -5.152371e+01 -7.979111e+00 -4.933486e+01 -9.577749e+00 -4.700530e+01 -1.094042e+01 -4.517396e+01 -1.118306e+01 -4.425465e+01 -1.020805e+01 -4.429268e+01 -7.925905e+00 -4.532815e+01 -4.566612e+00 -4.639454e+01 -1.307802e+00 -4.632671e+01 1.328126e+00 -4.482494e+01 3.677933e+00 -4.227762e+01 8.059976e+00 
-2.092320e+01 6.673212e+00 -1.202929e+01 7.036782e+00 -1.512419e+01 6.899599e+00 -1.215080e+01 6.465344e+00 -1.616973e+01 5.079446e+00 -1.867407e+01 3.770227e+00 -2.033524e+01 2.655908e+00 -2.160448e+01 1.860284e+00 -2.233182e+01 6.346830e-01 -2.190474e+01 -1.244031e+00 -2.066100e+01 -3.241725e+00 -1.904650e+01 -5.545694e+00 -1.677247e+01 -8.108070e+00 -1.495223e+01 -9.306398e+00 -1.505131e+01 -8.448459e+00 -1.675144e+01 -6.416720e+00 -1.926855e+01 -4.103639e+00 -2.148611e+01 -2.573824e+00 -2.261043e+01 -2.095465e+00 -2.260123e+01 -2.681516e+00 -2.156604e+01 -4.087177e+00 -1.994913e+01 -5.626118e+00 -1.822585e+01 -7.146364e+00 -1.647945e+01 -8.375801e+00 -1.524936e+01 -8.571016e+00 -1.492469e+01 -7.618289e+00 -1.557567e+01 -5.465220e+00 -1.721269e+01 -2.395305e+00 -1.913419e+01 6.751018e-01 -2.049179e+01 3.189987e+00 -2.097860e+01 5.397482e+00 -2.098771e+01 8.758916e+00 
-4.471831e-01 7.094640e-01 -1.066524e+00 -9.807573e-01 -2.936327e+01 1.032175e-01 5.916449e-01 -5.633113e-02 -7.346925e-02 -4.506911e-02 -3.138462e-01 -3.045128e-02 -4.046839e-01 -2.197645e-02 -4.248170e-01 -2.178335e-02 -4.061573e-01 -3.060039e-02 -3.743934e-01 -4.887127e-02 -3.416750e-01 -7.129495e-02 -3.144233e-01 -8.370140e-02 -2.918757e-01 -8.603543e-02 -2.734394e-01 -9.560573e-02 -2.625269e-01 -1.127892e-01 -2.543425e-01 -1.245033e-01 -2.487491e-01 -1.196980e-01 -2.479771e-01 -1.029226e-01 -2.597512e-01 -8.514838e-02 -2.859967e-01 -6.678542e-02 -3.149395e-01 -4.822284e-02 -3.341729e-01 -3.468433e-02 -3.392941e-01 -2.942940e-02 -3.281033e-01 -4.052084e-02 -3.005066e-01 -6.549276e-02 -2.620442e-01 -9.890301e-02 -2.171663e-01 -1.271927e-01 -1.712656e-01 -1.326748e-01 -1.310253e-01 -1.013791e-01 -1.068475e-01 -3.375838e-02 -1.134996e-01 3.924968e-02 -2.130672e-01 3.528001e-01 
-2.616744e-01 1.821139e-02 -7.581800e-01 -9.493673e-01 -3.641555e+01 -3.765346e-01 7.316382e-01 -2.112780e-01 4.198397e-01 -1.101351e-01 2.230217e-01 -6.497605e-02 1.223497e-01 -3.949096e-02 7.049459e-02 -2.636980e-02 4.424508e-02 -2.424761e-02 2.478576e-02 -2.047069e-02 9.754505e-03 -1.774765e-02 2.608554e-03 -1.792688e-02 2.667091e-03 -1.427797e-02 1.024999e-05 -9.991450e-03 -1.989393e-03 -8.984075e-03 -4.718863e-05 -9.931781e-03 -6.086575e-03 -6.888775e-03 -9.641143e-03 -3.741699e-03 -5.839920e-03 -4.962459e-03 -7.448701e-03 1.730504e-03 -6.782347e-03 8.798982e-03 -1.055677e-03 7.991615e-03 -1.341548e-03 1.248966e-02 -3.657994e-03 1.673575e-02 -1.882712e-03 1.523428e-02 -2.487417e-03 1.764608e-02 -1.047056e-02 2.399570e-02 -2.510176e-02 3.191406e-02 -4.852724e-02 4.025605e-02 -8.425775e-02 5.059833e-02 -1.466565e-01 6.686556e-02 -2.617624e-01 3.517622e-01 
-3.579113e-01 8.866665e-02 -6.824457e-01 -1.210088e+00 -4.354129e+01 -5.282796e-01 6.163812e-01 -1.756627e-01 4.304202e-01 -1.166766e-01 2.445228e-01 -7.655187e-02 1.456997e-01 -4.705204e-02 9.590097e-02 -3.066898e-02 7.417770e-02 -2.877884e-02 4.966348e-02 -2.311399e-02 2.815426e-02 -1.944751e-02 1.660292e-02 -2.317954e-02 8.841280e-03 -2.021425e-02 -1.197503e-03 -1.588408e-02 -6.443051e-03 -1.785300e-02 -5.610237e-03 -1.890770e-02 -1.285253e-02 -1.319188e-02 -1.503821e-02 -7.743662e-03 -5.811142e-03 -7.086818e-03 -6.222456e-03 3.765930e-03 -3.892279e-03 1.553244e-02 7.996277e-03 1.701194e-02 8.906933e-03 2.522487e-02 6.985926e-03 3.235622e-02 1.020003e-02 2.854665e-02 6.358083e-03 2.887352e-02 -7.854237e-03 3.353623e-02 -3.141626e-02 3.977500e-02 -6.413516e-02 4.868412e-02 -1.079662e-01 6.604813e-02 -1.714111e-01 1.090264e-01 -2.777849e-01 2.325922e-01 
-2.785725e-01 1.490688e-01 -3.939225e-01 -1.129288e+00 -4.753119e+01 -5.453804e-01 3.424222e-01 -2.329154e-01 3.511471e-01 -1.550775e-01 2.279169e-01 -1.032066e-01 1.349224e-01 -6.759279e-02 7.963452e-02 -4.803200e-02 6.395781e-02 -5.554893e-02 4.021740e-02 -4.147421e-02 1.696552e-02 -2.538798e-02 1.171188e-02 -3.084954e-02 1.445843e-02 -2.399717e-02 1.401115e-03 -1.023761e-02 -4.232812e-03 -1.202994e-02 9.724645e-03 -1.592280e-02 -3.552837e-03 -2.993002e-03 -1.201530e-02 4.128483e-03 7.565286e-03 -7.623613e-03 -3.448047e-03 5.984696e-03 -1.246569e-02 2.108498e-02 5.326585e-03 7.479342e-03 -9.500582e-04 1.812202e-02 -1.223377e-02 3.175863e-02 -3.586250e-03 1.699707e-02 1.786768e-03 2.012031e-02 -7.982876e-03 3.663161e-02 -2.666526e-02 5.488719e-02 -5.313943e-02 7.372548e-02 -9.092506e-02 9.824999e-02 -1.480642e-01 1.399957e-01 -2.279424e-01 2.136103e-01 
-2.775747e-01 1.674826e-01 -2.844987e-01 -1.222986e+00 -5.174667e+01 -6.687115e-01 1.951588e-01 -2.130056e-01 2.943034e-01 -1.461305e-01 2.040483e-01 -1.011463e-01 1.257477e-01 -6.684133e-02 8.098356e-02 -5.062494e-02 8.739420e-02 -6.807430e-02 5.432619e-02 -4.188077e-02 2.340195e-02 -2.197376e-02 2.062622e-02 -4.091923e-02 1.966922e-02 -2.787679e-02 -2.924722e-03 -1.047735e-02 -1.122878e-02 -2.211205e-02 8.906714e-03 -2.400263e-02 -1.119782e-02 -5.354013e-03 -2.209475e-02 1.135531e-03 1.134488e-02 -1.265777e-02 -4.839348e-03 8.294747e-03 -1.716228e-02 2.909298e-02 1.352870e-02 1.018734e-02 4.201661e-03 2.722997e-02 -1.146414e-02 4.633332e-02 1.578899e-03 2.183402e-02 7.777870e-03 2.375384e-02 -5.480653e-03 4.007088e-02 -2.992589e-02 5.728960e-02 -6.150340e-02 7.586997e-02 -1.013865e-01 1.015305e-01 -1.545543e-01 1.395969e-01 -2.235711e-01 1.792576e-01 
-1.775226e-01 1.813633e-01 -7.287620e-02 -1.200287e+00 -5.365293e+01 -6.137957e-01 2.058259e-02 -2.390068e-01 1.865096e-01 -1.729006e-01 1.517937e-01 -1.199171e-01 9.012196e-02 -7.365880e-02 3.987025e-02 -4.633720e-02 8.148830e-02 -1.145027e-01 5.654880e-02 -5.990811e-02 5.987116e-03 -8.539492e-03 4.526982e-03 -6.411435e-02 4.077323e-02 -3.747474e-02 -4.326824e-03 9.284291e-03 -3.170461e-02 -2.255548e-02 4.238277e-02 -3.628005e-02 -4.774920e-03 1.063774e-02 -4.442956e-02 2.208813e-02 4.279371e-02 -3.477908e-02 4.492415e-05 1.214657e-02 -4.412898e-02 5.696403e-02 2.443971e-02 -1.879435e-02 5.672853e-03 2.402564e-02 -4.002524e-02 7.572961e-02 -1.511166e-02 -5.045295e-03 2.083998e-02 6.568969e-03 5.113239e-03 4.346839e-02 -2.089178e-02 7.161911e-02 -4.788862e-02 9.511631e-02 -7.843717e-02 1.216318e-01 -1.162126e-01 1.549349e-01 -1.569541e-01 1.868064e-01 
-1.505371e-01 1.812126e-01 1.667128e-02 -1.214851e+00 -5.593415e+01 -7.203463e-01 -8.831236e-02 -2.390040e-01 1.282025e-01 -1.642911e-01 1.137322e-01 -1.070248e-01 5.829203e-02 -5.528737e-02 8.640630e-03 -4.017779e-02 1.308952e-01 -1.628386e-01 6.743814e-02 -4.711387e-02 -5.604006e-03 2.113964e-02 1.285479e-02 -1.042890e-01 5.716014e-02 -3.427137e-02 -1.391340e-02 3.316808e-02 -5.132268e-02 -5.164842e-02 6.371705e-02 -4.412484e-02 -1.307619e-02 2.321070e-02 -7.420703e-02 1.593274e-02 7.140966e-02 -4.864874e-02 -7.748579e-04 1.973335e-02 -6.871705e-02 7.415997e-02 4.738767e-02 -3.268144e-02 1.397157e-02 3.219200e-02 -5.240366e-02 1.061513e-01 -1.677155e-02 -1.575413e-02 3.471433e-02 2.651924e-03 1.455562e-02 4.447886e-02 -1.979816e-02 7.268085e-02 -5.123106e-02 9.482669e-02 -8.123198e-02 1.196673e-01 -1.129507e-01 1.491988e-01 -1.424162e-01 1.760324e-01 
-6.098320e-02 1.829736e-01 1.650035e-01 -1.216292e+00 -5.632234e+01 -6.257753e-01 -1.838563e-01 -2.512559e-01 4.099716e-02 -1.848566e-01 6.295869e-02 -1.208582e-01 1.736235e-02 -3.500308e-02 -9.272240e-02 5.018475e-02 1.303815e-01 -3.282315e-01 1.256090e-01 -5.447490e-02 -4.068281e-02 1.388929e-01 -7.183327e-02 -2.197507e-01 1.591123e-01 -5.495036e-02 -1.318510e-02 1.364493e-01 -1.799570e-01 -9.534312e-02 1.907434e-01 -1.031986e-01 2.452072e-03 8.445494e-02 -2.028550e-01 7.017543e-02 1.839882e-01 -1.585507e-01 2.433634e-02 3.997248e-02 -1.740241e-01 1.938136e-01 9.516873e-02 -1.712308e-01 6.239480e-02 3.708894e-02 -1.192987e-01 2.622021e-01 -8.232237e-02 -1.445835e-01 1.102297e-01 -2.724351e-02 3.876495e-02 5.912697e-02 -1.373982e-02 9.134907e-02 -4.056404e-02 1.110885e-01 -5.801437e-02 1.330224e-01 -7.256315e-02 1.586211e-01 -7.915340e-02 1.823253e-01 
-3.306390e-02 1.820339e-01 2.283278e-01 -1.198233e+00 -5.718749e+01 -7.069468e-01 -2.522184e-01 -2.654090e-01 4.538927e-03 -1.871050e-01 3.476824e-02 -1.035414e-01 -3.035626e-02 3.653015e-02 -2.421587e-01 1.402862e-01 2.948701e-01 -5.294360e-01 1.401540e-01 2.910154e-02 -1.138873e-01 3.206004e-01 -9.035306e-02 -4.166875e-01 2.340973e-01 -1.161801e-02 -3.919756e-02 2.904517e-01 -2.927459e-01 -2.472146e-01 3.164113e-01 -9.806770e-02 -6.384460e-03 1.683866e-01 -3.403912e-01 8.723870e-03 3.351929e-01 -1.946017e-01 3.138803e-02 7.433972e-02 -2.858527e-01 2.399761e-01 1.895445e-01 -2.397138e-01 9.658604e-02 5.019197e-02 -1.698903e-01 3.897887e-01 -1.328425e-01 -2.016556e-01 1.706144e-01 -3.880937e-02 6.115915e-02 6.383808e-02 -1.509271e-02 9.481418e-02 -4.583496e-02 1.109318e-01 -5.955549e-02 1.299996e-01 -6.681625e-02 1.534242e-01 -6.344846e-02 1.772916e-01 
3.659629e-02 1.777318e-01 3.336086e-01 -1.214143e+00 -5.641089e+01 -5.846274e-01 -2.954852e-01 -2.752314e-01 -5.359920e-02 -2.219182e-01 1.442751e-02 -1.550008e-01 -8.330087e-03 8.417048e-02 -5.105149e-01 8.281670e-01 2.942588e-01 -1.170530e+00 4.708851e-01 1.265986e-01 -1.704947e-01 9.664278e-01 -5.053915e-01 -9.688389e-01 7.009478e-01 -2.690979e-02 3.677166e-02 8.036890e-01 -9.068722e-01 -4.969607e-01 8.459760e-01 -3.094872e-01 9.564673e-02 4.539071e-01 -9.305809e-01 2.407032e-01 7.666708e-01 -7.007700e-01 1.797185e-01 1.908530e-01 -7.128852e-01 8.210765e-01 3.276690e-01 -9.602587e-01 3.738981e-01 1.008947e-01 -3.404492e-01 1.175715e+00 -4.930810e-01 -9.312336e-01 5.545563e-01 2.181478e-02 5.778285e-02 1.279848e-01 -4.403453e-02 1.209375e-01 -4.861274e-02 1.233738e-01 -4.094345e-02 1.376585e-01 -3.084661e-02 1.579544e-01 -1.050710e-02 1.791532e-01 
5.722648e-02 1.753603e-01 3.740273e-01 -1.182920e+00 -5.617129e+01 -6.385084e-01 -3.282588e-01 -3.005764e-01 -5.715318e-02 -2.588939e-01 3.613817e-02 -2.033441e-01 9.541017e-03 2.427669e-01 -1.207139e+00 1.673527e+00 4.211297e+00 1.753815e+00 6.318304e-01 6.570491e-01 -5.421881e-01 6.767253e-01 2.356837e+00 1.441451e+00 1.221885e+00 4.421235e-01 -8.528174e-02 2.737992e-01 8.770202e-01 2.019586e+00 1.740478e+00 2.562350e-02 8.815374e-02 3.038416e-01 -5.363427e-01 2.771088e+00 2.144544e+00 -5.904349e-01 2.436580e-01 2.388176e-01 -1.011543e+00 2.582010e+00 2.206370e+00 -1.089256e+00 5.302521e-01 1.848708e-01 -5.731840e-01 1.663807e+00 1.626690e+00 -1.629294e+00 8.228961e-01 6.573354e-02 6.292663e-02 1.659556e-01 -7.784227e-02 1.333174e-01 -6.572632e-02 1.247687e-01 -4.481204e-02 1.344570e-01 -2.575379e-02 1.529286e-01 2.292409e-03 1.748499e-01 
1.076056e-01 1.656583e-01 4.475907e-01 -1.197429e+00 -5.447315e+01 -4.985309e-01 -3.404667e-01 -2.978802e-01 -1.024426e-01 -3.144090e-01 3.286596e-02 -4.698080e-01 2.843274e-01 -5.759628e-01 -6.887719e-01 2.225538e+00 3.246281e+01 3.219546e+01 3.859520e+00 1.311114e+00 -1.486484e-01 -4.624273e+00 2.524597e+01 3.578781e+01 9.412773e+00 2.894726e+00 4.776655e-01 -6.291575e+00 1.628950e+01 3.577522e+01 1.879412e+01 5.949629e+00 5.424646e-01 -2.968017e+00 5.922793e+00 2.811399e+01 2.940239e+01 1.204352e+01 1.028578e+00 -4.439200e-01 -1.527252e-01 1.575457e+01 3.386016e+01 2.042426e+01 2.239554e+00 4.726862e-01 -6.162509e-01 1.968542e+00 3.058539e+01 2.923977e+01 4.589096e+00 1.688976e+00 -6.093270e-01 2.131889e-01 -2.150735e-01 1.308893e-01 -7.552854e-02 1.241738e-01 -2.453839e-02 1.351966e-01 6.926486e-03 1.526148e-01 4.455005e-02 1.722813e-01 
1.197553e-01 1.591798e-01 4.682639e-01 -1.149190e+00 -5.333222e+01 -5.309954e-01 -3.531488e-01 -3.098693e-01 -8.600787e-02 -3.680381e-01 1.410933e-01 -7.454981e-01 7.923931e-01 -1.949507e+00 1.485638e+00 4.168972e+00 3.896409e+01 3.555834e+01 3.032835e+00 -4.239797e-01 8.837803e-01 -3.988515e+00 3.486547e+01 4.486720e+01 8.775172e+00 1.767775e+00 7.709671e-01 -6.909126e+00 2.535843e+01 4.798364e+01 2.162194e+01 5.751702e+00 4.495995e-01 -3.946150e+00 1.180296e+01 4.035146e+01 3.849177e+01 1.412976e+01 3.008622e-01 -1.022852e+00 2.358192e+00 2.509474e+01 4.790820e+01 2.726928e+01 4.621635e-01 3.517516e-01 -3.995202e-01 6.790204e+00 4.779217e+01 4.358818e+01 1.588736e+00 2.265764e+00 -1.099437e+00 3.241863e-01 -3.201654e-01 1.401156e-01 -9.275990e-02 1.200203e-01 -2.282802e-02 1.286562e-01 1.367211e-02 1.456107e-01 5.419577e-02 1.660693e-01 
1.541423e-01 1.449826e-01 5.144411e-01 -1.132108e+00 -5.091757e+01 -3.973459e-01 -3.478040e-01 -2.428933e-01 -1.356493e-01 -2.085206e-01 -3.210323e-03 -2.149000e-01 1.551052e-01 -3.105136e-01 1.229088e+00 -3.811218e+00 -2.232032e+01 -2.012140e+01 6.939518e-01 -1.388989e+00 9.236449e-01 4.587877e-01 -1.633689e+01 -2.021239e+01 -2.616542e+00 -1.572400e+00 3.309004e-01 2.036251e+00 -1.066847e+01 -1.926807e+01 -7.795717e+00 -2.384237e+00 5.750691e-02 1.357840e+00 -4.853231e+00 -1.529639e+01 -1.358341e+01 -4.574991e+00 -1.571719e-01 6.772361e-01 -1.408479e+00 -9.018365e+00 -1.578961e+01 -8.053692e+00 -4.767463e-01 5.293946e-01 -7.230012e-01 -2.166117e+00 -1.386655e+01 -1.147627e+01 -9.051683e-01 8.006588e-02 -1.893549e-02 1.837245e-01 -3.147990e-04 1.334124e-01 6.032652e-03 1.199467e-01 2.180370e-02 1.266509e-01 4.707845e-02 1.415852e-01 8.724693e-02 1.595668e-01 
1.588203e-01 1.352617e-01 5.164124e-01 -1.049324e+00 -4.903197e+01 -4.206556e-01 -3.678359e-01 -2.010761e-01 -1.902738e-01 -7.449225e-02 -2.023873e-01 2.543694e-01 -6.085161e-01 9.681858e-01 -4.236796e-01 -2.922409e+00 -4.250881e+01 -4.094348e+01 -4.361112e+00 -8.802653e-01 -3.647074e-01 5.333332e+00 -3.581428e+01 -4.851174e+01 -1.090798e+01 -2.912326e+00 -7.104179e-01 7.908227e+00 -2.503472e+01 -5.034202e+01 -2.415548e+01 -7.060393e+00 -5.182822e-01 4.161130e+00 -1.092978e+01 -4.109659e+01 -4.070645e+01 -1.582166e+01 -6.576815e-01 1.013654e+00 -1.748635e+00 -2.449298e+01 -4.915297e+01 -2.899117e+01 -1.401015e+00 -1.844472e-01 1.626369e-01 -5.089244e+00 -4.728486e+01 -4.478504e+01 -3.278198e+00 -1.928741e+00 1.015191e+00 -3.597302e-02 2.609448e-01 8.025819e-02 7.613104e-02 1.001700e-01 4.474697e-02 1.144932e-01 5.735927e-02 1.315849e-01 9.368629e-02 1.506542e-01 
1.791268e-01 1.201805e-01 5.373140e-01 -1.019536e+00 -4.610889e+01 -3.064221e-01 -3.563014e-01 -1.733021e-01 -2.269763e-01 -7.965775e-02 -2.368255e-01 1.134805e-01 -4.439879e-01 4.758110e-01 -1.720583e-01 -2.694188e-01 -1.232753e+01 -1.027288e+01 -3.305602e+00 -4.063584e-01 -3.681794e-01 2.347642e+00 -1.076077e+01 -1.426332e+01 -5.423032e+00 -1.304334e+00 -5.395027e-01 3.094782e+00 -7.175397e+00 -1.630462e+01 -9.730015e+00 -2.816419e+00 -4.946014e-01 1.301120e+00 -2.053867e+00 -1.418401e+01 -1.508987e+01 -5.820827e+00 -7.202838e-01 -1.091092e-01 1.083131e+00 -8.764302e+00 -1.803226e+01 -1.039849e+01 -1.345871e+00 -7.593469e-01 1.247844e+00 -1.619179e+00 -1.733122e+01 -1.629463e+01 -2.726785e+00 -1.536136e+00 4.292424e-01 -1.718312e-01 1.795181e-01 1.710117e-02 8.352303e-02 7.414282e-02 6.483096e-02 1.015085e-01 7.884069e-02 1.219791e-01 1.151401e-01 1.405349e-01 
1.759737e-01 1.089818e-01 5.234529e-01 -9.395617e-01 -4.365645e+01 -3.164716e-01 -3.587674e-01 -1.560097e-01 -2.382976e-01 -7.512430e-02 -2.380327e-01 2.349189e-03 -2.722129e-01 -5.253420e-02 1.587753e-01 -1.335177e+00 2.825426e-01 2.047916e+00 -9.471862e-01 -4.655624e-03 -7.249548e-02 -1.144570e+00 5.048066e-01 1.450923e+00 -9.258803e-01 1.093229e-01 -1.645439e-01 -8.535170e-01 7.676074e-01 4.634060e-01 -9.397097e-01 4.586157e-01 -1.535017e-01 -5.461400e-01 1.048407e+00 -8.125198e-01 -9.395279e-01 1.015652e+00 -1.811257e-01 -3.442695e-01 1.082086e+00 -1.512343e+00 -8.573693e-01 1.405075e+00 -3.282416e-01 -3.239287e-01 8.101534e-01 -1.640929e+00 -5.237300e-01 1.496311e+00 -5.036626e-01 -2.211345e-01 7.055908e-02 -1.268235e-01 1.157293e-01 -2.892100e-03 8.278586e-02 5.625532e-02 7.041702e-02 8.783131e-02 8.221512e-02 1.103830e-01 1.154649e-01 1.298480e-01 
1.841380e-01 9.473594e-02 5.209599e-01 -8.926093e-01 -4.036838e+01 -2.331871e-01 -3.322275e-01 -1.420435e-01 -2.345506e-01 -8.521047e-02 -2.097675e-01 -4.465233e-02 -1.805452e-01 -1.142568e-01 1.102515e-01 -7.651978e-01 3.660722e-01 4.961204e-01 -5.029873e-01 7.904876e-03 -4.260483e-02 -6.603583e-01 5.653916e-01 4.300053e-01 -5.232955e-01 6.287379e-02 -7.790769e-02 -5.330361e-01 6.728694e-01 2.574804e-01 -5.691887e-01 2.164428e-01 -6.957875e-02 -3.105406e-01 6.259714e-01 -9.645807e-02 -5.542031e-01 4.342279e-01 -9.063856e-02 -1.496515e-01 5.258645e-01 -4.323415e-01 -3.488789e-01 6.196230e-01 -1.743110e-01 -1.138381e-01 3.736425e-01 -7.159853e-01 7.538460e-02 7.975406e-01 -3.101415e-01 2.369484e-02 2.204871e-02 -4.764135e-02 7.698431e-02 4.803761e-03 7.366283e-02 4.869909e-02 7.502039e-02 7.825682e-02 9.163616e-02 1.002612e-01 1.256012e-01 1.183642e-01 
1.737252e-01 8.427659e-02 4.930801e-01 -8.170543e-01 -3.747189e+01 -2.356302e-01 -3.159378e-01 -1.372477e-01 -2.160166e-01 -9.460040e-02 -1.751900e-01 -8.455345e-02 -1.069263e-01 -1.493950e-01 9.112366e-02 -3.656312e-01 8.997221e-02 1.897252e-01 -2.313775e-01 -9.756022e-03 2.570207e-03 -2.817923e-01 1.968515e-01 1.602417e-01 -2.407417e-01 2.204082e-02 -9.809552e-03 -2.294055e-01 2.749274e-01 9.075326e-02 -2.686096e-01 9.894664e-02 -1.141573e-02 -1.428214e-01 2.873025e-01 -5.049306e-02 -2.821144e-01 1.911299e-01 -2.180113e-02 -6.901450e-02 2.676385e-01 -1.741297e-01 -2.054754e-01 2.645358e-01 -5.681391e-02 -4.991380e-02 2.220642e-01 -2.747239e-01 -2.657985e-02 3.732226e-01 -1.407679e-01 8.976689e-02 -1.008081e-02 1.865649e-03 4.669110e-02 1.532739e-02 6.099044e-02 4.442081e-02 6.962822e-02 6.951991e-02 8.722572e-02 9.015633e-02 1.191876e-01 1.077178e-01 
1.718676e-01 7.209432e-02 4.706168e-01 -7.526511e-01 -3.390319e+01 -1.781590e-01 -2.824257e-01 -1.261075e-01 -1.985951e-01 -9.442943e-02 -1.535901e-01 -8.813380e-02 -9.277623e-02 -1.265592e-01 2.422455e-02 -2.198582e-01 1.639813e-02 5.281022e-02 -1.188128e-01 -2.089477e-02 -7.249189e-03 -1.473592e-01 7.416145e-02 5.108741e-02 -1.155888e-01 7.644434e-03 -5.914490e-03 -1.109485e-01 1.186293e-01 1.891208e-02 -1.224764e-01 5.407312e-02 -4.014691e-03 -6.413554e-02 1.289117e-01 -4.706218e-02 -1.255385e-01 1.019609e-01 -9.491452e-03 -2.403726e-02 1.233092e-01 -9.523050e-02 -8.887006e-02 1.351928e-01 -2.548799e-02 -8.418579e-03 1.051428e-01 -1.172908e-01 -1.065029e-02 1.942719e-01 -7.214496e-02 8.715986e-02 -1.414413e-03 2.686819e-02 3.788002e-02 2.712689e-02 5.459839e-02 4.507350e-02 6.798359e-02 6.429005e-02 8.815512e-02 8.156341e-02 1.200723e-01 9.650008e-02 
1.556099e-01 6.332196e-02 4.307862e-01 -6.765925e-01 -3.064533e+01 -1.754214e-01 -2.563823e-01 -1.213195e-01 -1.730597e-01 -9.436701e-02 -1.273178e-01 -8.937861e-02 -7.298849e-02 -1.068188e-01 -3.125678e-03 -1.327927e-01 -1.485951e-02 -1.539671e-02 -5.961159e-02 -2.897173e-02 -7.026096e-03 -7.460256e-02 1.705126e-02 1.053636e-03 -5.149592e-02 -7.174315e-03 -2.404937e-04 -5.208235e-02 4.282465e-02 -2.228081e-03 -5.295363e-02 1.798800e-02 2.210485e-03 -2.960690e-02 5.323418e-02 -2.171658e-02 -5.830140e-02 4.079423e-02 7.828246e-04 -8.916009e-03 5.732724e-02 -3.425824e-02 -4.519738e-02 5.752136e-02 -3.243874e-03 3.408801e-03 5.583981e-02 -3.087961e-02 -1.746935e-02 1.015715e-01 -3.236622e-02 6.846672e-02 3.954433e-04 3.569738e-02 2.728118e-02 3.275058e-02 4.389998e-02 4.386463e-02 5.864929e-02 5.847345e-02 7.858601e-02 7.309592e-02 1.082638e-01 8.653368e-02 
1.457943e-01 5.321108e-02 3.931620e-01 -6.013334e-01 -2.685765e+01 -1.331840e-01 -2.205063e-01 -1.100397e-01 -1.519784e-01 -8.790349e-02 -1.116912e-01 -7.885926e-02 -7.457895e-02 -7.825507e-02 -3.985508e-02 -8.069911e-02 -2.285035e-02 -5.436607e-02 -2.690709e-02 -3.671061e-02 -1.620800e-02 -3.690857e-02 -7.963536e-03 -2.453373e-02 -1.307579e-02 -1.684906e-02 -4.977204e-03 -1.990757e-02 1.621035e-03 -1.060449e-02 -7.579060e-03 -4.416736e-03 4.635584e-04 -9.025914e-03 6.367082e-03 -4.188365e-03 -9.273750e-03 5.138759e-03 3.023834e-03 3.960633e-04 1.098206e-02 1.936695e-03 -9.928749e-03 1.603357e-02 5.174339e-03 1.168927e-02 1.353370e-02 1.629713e-02 -1.261921e-02 4.592719e-02 -1.884252e-03 4.286305e-02 1.283110e-02 3.683699e-02 2.602444e-02 3.786534e-02 3.858046e-02 4.475660e-02 5.344104e-02 5.456145e-02 7.366949e-02 6.537706e-02 1.021310e-01 7.579853e-02 
1.253486e-01 4.564911e-02 3.443243e-01 -5.240135e-01 -2.330633e+01 -1.246246e-01 -1.891547e-01 -1.024719e-01 -1.253481e-01 -8.169601e-02 -9.079710e-02 -6.857106e-02 -6.705719e-02 -5.445304e-02 -5.587129e-02 -4.452397e-02 -1.594263e-02 -7.899412e-02 -5.379578e-03 -3.447139e-02 -2.035618e-02 -7.811556e-03 -1.871637e-02 -4.265487e-02 1.156405e-02 -1.964545e-02 -7.044974e-03 3.157562e-03 -2.282582e-02 -1.740326e-02 2.074110e-02 -1.741756e-02 -4.404964e-04 4.121440e-03 -2.283784e-02 6.987065e-03 1.997152e-02 -1.746719e-02 5.130023e-03 5.093686e-03 -1.678701e-02 2.616359e-02 8.967608e-03 -1.116605e-02 1.218768e-02 1.402718e-02 -9.400297e-03 4.603236e-02 -1.569858e-02 1.102922e-02 1.576496e-02 2.293362e-02 1.769509e-02 3.400935e-02 2.043973e-02 3.830670e-02 2.890227e-02 4.268532e-02 4.236639e-02 4.922620e-02 6.109113e-02 5.744347e-02 8.670748e-02 6.609198e-02 
1.095221e-01 3.663714e-02 2.967463e-01 -4.459931e-01 -1.935527e+01 -8.808698e-02 -1.510151e-01 -9.136521e-02 -1.007385e-01 -7.629377e-02 -7.012509e-02 -5.974483e-02 -6.012504e-02 -2.173162e-02 -9.493302e-02 3.664050e-02 -3.397846e-02 -1.596545e-01 5.314400e-02 -3.613272e-02 -2.810400e-02 6.391782e-02 -7.217713e-02 -9.646316e-02 7.771595e-02 -3.304293e-02 -6.295412e-03 5.921970e-02 -9.707045e-02 -3.322402e-02 9.204968e-02 -5.582455e-02 4.672087e-03 3.586526e-02 -9.636341e-02 4.217804e-02 8.235702e-02 -8.277320e-02 1.829719e-02 1.713376e-02 -7.736795e-02 9.556761e-02 3.763847e-02 -9.005806e-02 4.141436e-02 2.098546e-02 -5.103501e-02 1.325131e-01 -4.515154e-02 -7.346250e-02 6.734116e-02 -3.313965e-03 3.059199e-02 3.763625e-02 1.520009e-02 4.299611e-02 2.002681e-02 4.255139e-02 3.364946e-02 4.464242e-02 5.203153e-02 4.941298e-02 7.556207e-02 5.532355e-02 
8.654679e-02 2.913777e-02 2.423252e-01 -3.690279e-01 -1.557332e+01 -7.198553e-02 -1.153624e-01 -8.155165e-02 -7.233148e-02 -7.020270e-02 -4.624544e-02 -5.164441e-02 -4.855257e-02 5.248643e-03 -1.252226e-01 1.086925e-01 -2.940131e-02 -2.353709e-01 9.586196e-02 -1.879740e-02 -3.728977e-02 1.399444e-01 -1.122359e-01 -1.624722e-01 1.317006e-01 -2.742483e-02 -6.464309e-03 1.201663e-01 -1.623496e-01 -7.627534e-02 1.579698e-01 -6.865528e-02 7.489717e-03 7.076732e-02 -1.646063e-01 4.112951e-02 1.469823e-01 -1.189291e-01 2.704236e-02 3.278484e-02 -1.333816e-01 1.355667e-01 7.053045e-02 -1.462224e-01 6.316123e-02 3.007806e-02 -8.500289e-02 2.030839e-01 -7.215494e-02 -1.446320e-01 1.067098e-01 -1.349764e-02 3.444499e-02 4.041524e-02 5.965741e-03 4.357931e-02 8.337749e-03 3.938202e-02 2.129869e-02 3.843846e-02 3.803390e-02 4.090450e-02 5.825236e-02 4.511623e-02 
6.664389e-02 2.006079e-02 1.893323e-01 -2.926137e-01 -1.151234e+01 -3.477018e-02 -7.545557e-02 -7.004207e-02 -4.517998e-02 -7.403078e-02 -1.185700e-02 -7.208816e-02 1.390796e-03 1.721820e-02 -1.807082e-01 4.724584e-01 -1.930384e-01 -6.460544e-01 3.645112e-01 1.836822e-02 -2.377581e-02 4.890751e-01 -4.113357e-01 -4.677543e-01 4.236840e-01 -4.716139e-02 4.267896e-02 3.849544e-01 -5.075230e-01 -2.013623e-01 4.501862e-01 -1.909386e-01 6.040375e-02 2.160898e-01 -4.649346e-01 1.654920e-01 3.636449e-01 -3.835241e-01 1.087255e-01 9.955431e-02 -3.406206e-01 4.368177e-01 1.260239e-01 -5.167201e-01 2.199241e-01 7.269600e-02 -1.712523e-01 6.066732e-01 -2.561925e-01 -5.463250e-01 3.317287e-01 2.722254e-02 2.212737e-02 7.532021e-02 -2.235896e-02 5.099574e-02 -8.477445e-03 3.635677e-02 1.000815e-02 3.143799e-02 2.691456e-02 3.153115e-02 4.417337e-02 3.374870e-02 
4.277168e-02 1.162876e-02 1.325637e-01 -2.166412e-01 -7.559410e+00 -9.429698e-03 -3.704781e-02 -5.692371e-02 -1.615735e-02 -7.190076e-02 2.097000e-02 -8.671894e-02 4.571378e-02 1.106382e-02 -2.469874e-01 5.101665e-01 7.493448e-01 -4.817281e-02 6.080609e-01 1.285142e-01 -4.137715e-02 3.631810e-01 3.026964e-01 3.047348e-01 7.994608e-01 7.792966e-02 6.674446e-02 2.324904e-01 -1.107967e-01 7.588375e-01 1.055786e+00 -3.620515e-02 9.451175e-02 1.844141e-01 -4.571972e-01 1.103517e+00 1.268436e+00 -1.500059e-01 1.663352e-01 1.447952e-01 -5.072465e-01 1.025696e+00 1.243508e+00 -1.012365e-01 3.342001e-01 1.485615e-01 -2.875533e-01 7.091314e-01 8.471329e-01 7.883209e-02 5.616038e-01 1.491279e-01 -9.507086e-03 9.883633e-02 -4.766549e-02 5.093427e-02 -2.320310e-02 3.001374e-02 -1.917824e-03 2.291647e-02 1.344546e-02 2.156481e-02 2.672978e-02 2.247400e-02 
2.073560e-02 1.948256e-03 7.708453e-02 -1.376956e-01 -3.444431e+00 2.933566e-02 4.569529e-04 -3.615679e-02 2.437281e-03 -7.678958e-02 5.070429e-02 -1.979603e-01 2.010060e-01 -3.983936e-01 8.261605e-02 -1.430317e+00 1.309713e+01 1.630887e+01 3.511392e+00 8.420335e-01 2.340250e-01 -3.104541e+00 9.814011e+00 1.741660e+01 6.377621e+00 1.777735e+00 4.292460e-01 -2.979874e+00 5.763175e+00 1.642324e+01 1.107258e+01 3.859972e+00 4.129446e-01 -1.237109e+00 1.602718e+00 1.191103e+01 1.589091e+01 7.737839e+00 6.957753e-01 -2.566799e-02 -4.390092e-01 5.380236e+00 1.732639e+01 1.284719e+01 1.440900e+00 4.108566e-01 -3.000021e-01 -6.891360e-01 1.484423e+01 1.742546e+01 3.192805e+00 1.284485e+00 -3.804812e-01 1.219748e-01 -1.319886e-01 3.530414e-02 -3.913382e-02 1.721543e-02 -8.982231e-03 1.204954e-02 3.814981e-03 1.055776e-02 1.192948e-02 1.040469e-02 
-2.532814e-03 -7.563145e-03 2.049540e-02 -6.031449e-02 6.195389e-01 6.432718e-02 3.774540e-02 -1.353429e-02 2.186999e-02 -6.490879e-02 7.015352e-02 -2.285667e-01 2.806382e-01 -6.062296e-01 2.514707e-01 -1.389971e+00 1.899465e+01 2.303590e+01 3.788033e+00 8.667516e-01 2.608568e-01 -3.844705e+00 1.465311e+01 2.453909e+01 7.726659e+00 2.088725e+00 4.447359e-01 -3.889866e+00 9.087262e+00 2.308002e+01 1.439860e+01 4.876495e+00 3.872352e-01 -1.807504e+00 3.210140e+00 1.691206e+01 2.147036e+01 1.017452e+01 5.802558e-01 -2.651308e-01 8.047786e-02 7.982937e+00 2.385239e+01 1.730551e+01 1.240119e+00 2.951223e-01 -1.813268e-01 -2.855230e-01 2.102339e+01 2.382520e+01 3.142329e+00 1.438161e+00 -5.170776e-01 9.933218e-02 -1.581676e-01 1.366115e-02 -4.506462e-02 2.989699e-03 -1.525871e-02 4.503178e-04 -6.742869e-03 -8.684952e-04 -4.099487e-03 -1.828050e-03 
-2.524960e-02 -1.741124e-02 -3.606888e-02 2.924502e-02 4.715806e+00 9.841237e-02 7.102392e-02 3.548986e-02 2.196929e-02 3.995218e-02 -6.805043e-03 1.021383e-01 -1.001112e-01 2.785562e-01 -1.364119e-01 3.590076e-01 -6.516397e+00 -7.592352e+00 -1.164840e+00 -1.821864e-01 -1.196407e-01 1.273426e+00 -5.272465e+00 -8.451153e+00 -2.504584e+00 -6.137970e-01 -1.611841e-01 1.363182e+00 -3.427832e+00 -8.257905e+00 -4.927417e+00 -1.582560e+00 -1.337008e-01 6.750011e-01 -1.313657e+00 -6.312589e+00 -7.673701e+00 -3.493059e+00 -1.664552e-01 1.159677e-01 -9.077989e-02 -3.180426e+00 -8.857952e+00 -6.219169e+00 -3.304798e-01 -1.177706e-01 1.022386e-01 -1.101713e-01 -8.121431e+00 -8.881628e+00 -9.710065e-01 -5.585700e-01 1.856553e-01 -5.447115e-02 5.206213e-02 -1.301648e-02 7.642777e-03 -9.225100e-03 -6.042688e-03 -1.032596e-02 -1.267419e-02 -1.212998e-02 -1.858025e-02 -1.406823e-02 