# vtk DataFile Version 2.0
Comment goes here
ASCII

DATASET STRUCTURED_POINTS
FIELD FieldData 1
TIME 1 1 double
0.03600000
DIMENSIONS    64   64   1

ORIGIN    0.000   0.000   0.000
SPACING   0.03125 0.03125   1.000

POINT_DATA   4096
SCALARS Omega double
LOOKUP_TABLE default

-1.026779e-02 -2.136104e-01 9.557825e-02 -3.191968e-01 8.058940e-02 -9.073463e-02 6.083913e-02 -1.865001e-01 7.815921e-02 -1.665610e-01 8.703211e-02 -1.275876e-01 1.126343e-01 -1.088759e-01 1.654750e-01 -1.118312e-01 2.265680e-01 -1.032431e-01 2.537222e-01 -8.046738e-02 2.688431e-01 -6.684135e-02 2.869426e-01 -2.234409e-02 2.573038e-01 1.471271e-02 2.261444e-01 3.620769e-02 1.914038e-01 1.259859e-01 1.258242e-01 1.474149e-01 1.183043e-01 1.581723e-01 1.196822e-01 1.613196e-01 1.298754e-01 1.344837e-01 1.383819e-01 1.400758e-01 1.041341e-01 1.451874e-01 1.613747e-01 8.871570e-02 1.016422e-01 1.283908e-01 4.487068e-02 1.417910e-01 -5.414243e-03 1.625651e-01 -9.109710e-02 1.902249e-01 -1.670179e-01 2.065994e-01 -2.279596e-01 2.128560e-01 -2.809911e-01 2.312284e-01 -3.415060e-01 2.642131e-01 -3.911567e-01 2.737149e-01 -4.393607e-01 2.195099e-01 
3.066915e+00 -2.727401e+01 -3.032376e+00 -2.449622e+01 -3.815944e+00 -2.348145e+01 -5.563413e+00 -2.144529e+01 -9.593139e+00 -1.880697e+01 -1.321482e+01 -1.670965e+01 -1.578793e+01 -1.510646e+01 -1.814308e+01 -1.315578e+01 -2.110166e+01 -1.031679e+01 -2.487569e+01 -6.082321e+00 -3.085884e+01 9.613509e-01 -3.924677e+01 9.000473e+00 -4.674649e+01 1.457483e+01 -5.054263e+01 1.611832e+01 -5.056144e+01 1.445810e+01 -4.796252e+01 1.079294e+01 -4.377105e+01 6.485461e+00 -3.976586e+01 3.136901e+00 -3.731202e+01 1.844268e+00 -3.720763e+01 3.020062e+00 -3.924249e+01 5.925696e+00 -4.245030e+01 9.512817e+00 -4.581374e+01 1.276383e+01 -4.820156e+01 1.455950e+01 -4.859246e+01 1.394758e+01 -4.641060e+01 1.049527e+01 -4.109078e+01 4.357973e+00 -3.383757e+01 -2.643105e+00 -2.635445e+01 -9.507444e+00 -1.913632e+01 -1.556380e+01 -1.278650e+01 -2.080238e+01 -6.849637e+00 -2.729493e+01 
-4.471343e+01 5.152787e+00 -2.414941e+01 3.891728e+00 -5.738463e+00 3.963123e+00 -2.707224e+01 2.734832e+00 -3.560311e+01 1.478547e+00 -4.126728e+01 8.095560e-01 -4.598019e+01 6.093300e-01 -4.965368e+01 2.247223e-01 -5.218060e+01 -5.233759e-01 -5.399082e+01 -1.645973e+00 -5.408851e+01 -4.723466e+00 -5.188707e+01 -8.816337e+00 -4.983761e+01 -1.124784e+01 -4.965962e+01 -1.163244e+01 -5.083870e+01 -1.071622e+01 -5.293964e+01 -8.769689e+00 -5.549240e+01 -6.722250e+00 -5.760864e+01 -5.066725e+00 -5.888674e+01 -4.495045e+00 -5.856770e+01 -5.341204e+00 -5.698125e+01 -6.914924e+00 -5.489639e+01 -8.750520e+00 -5.231297e+01 -1.062733e+01 -4.996844e+01 -1.178339e+01 -4.831016e+01 -1.186549e+01 -4.744910e+01 -1.058798e+01 -4.802972e+01 -7.700140e+00 -4.913778e+01 -4.655773e+00 -4.949311e+01 -1.814505e+00 -4.895697e+01 5.712916e-01 -4.690957e+01 2.529584e+00 -4.283924e+01 6.735326e+00 
-2.390625e+01 7.858711e+00 -1.282285e+01 7.017373e+00 -1.656587e+01 6.402309e+00 -1.239057e+01 6.288825e+00 -1.669125e+01 4.713869e+00 -1.932021e+01 3.568185e+00 -2.153551e+01 2.831078e+00 -2.311803e+01 1.979378e+00 -2.391928e+01 9.536412e-01 -2.415068e+01 -4.163546e-01 -2.302197e+01 -3.180948e+00 -2.023378e+01 -6.556396e+00 -1.763961e+01 -8.618864e+00 -1.673139e+01 -8.910445e+00 -1.722766e+01 -7.990842e+00 -1.870825e+01 -6.255813e+00 -2.078557e+01 -4.440740e+00 -2.263796e+01 -3.065387e+00 -2.380060e+01 -2.633381e+00 -2.372495e+01 -3.391791e+00 -2.261460e+01 -4.817630e+00 -2.099126e+01 -6.490018e+00 -1.907966e+01 -8.105264e+00 -1.743701e+01 -9.047212e+00 -1.645925e+01 -8.934632e+00 -1.632434e+01 -7.572709e+00 -1.748513e+01 -4.873661e+00 -1.929207e+01 -1.966633e+00 -2.081840e+01 7.976212e-01 -2.192065e+01 3.104930e+00 -2.209597e+01 5.046218e+00 -2.127521e+01 8.358595e+00 
-5.546197e-01 7.842367e-01 -1.188350e+00 -1.266198e+00 -3.072986e+01 2.215066e-01 7.439857e-01 -6.380128e-02 -4.911793e-02 -4.749521e-02 -3.316657e-01 -3.339363e-02 -4.404293e-01 -2.715492e-02 -4.726230e-01 -2.864717e-02 -4.639592e-01 -3.843529e-02 -4.415017e-01 -5.190330e-02 -4.129293e-01 -6.358160e-02 -3.789858e-01 -7.145518e-02 -3.410484e-01 -8.840236e-02 -3.080203e-01 -1.205973e-01 -2.864740e-01 -1.509777e-01 -2.717782e-01 -1.649297e-01 -2.665133e-01 -1.476741e-01 -2.736892e-01 -1.153162e-01 -2.992944e-01 -8.568226e-02 -3.405239e-01 -5.899209e-02 -3.773197e-01 -4.131079e-02 -3.957488e-01 -3.013835e-02 -3.938937e-01 -3.030692e-02 -3.715571e-01 -5.140588e-02 -3.316394e-01 -9.074481e-02 -2.826584e-01 -1.361212e-01 -2.293097e-01 -1.631946e-01 -1.779905e-01 -1.530331e-01 -1.377817e-01 -9.927586e-02 -1.201843e-01 -1.253414e-02 -1.372775e-01 7.908087e-02 -2.569074e-01 4.020724e-01 
-3.258939e-01 9.781634e-02 -8.643937e-01 -1.126196e+00 -3.884038e+01 -4.135885e-01 8.797605e-01 -2.452965e-01 5.020230e-01 -1.273680e-01 2.639155e-01 -7.783229e-02 1.415152e-01 -4.945379e-02 7.991156e-02 -3.375795e-02 4.964203e-02 -3.086448e-02 2.774187e-02 -2.377118e-02 1.323009e-02 -1.621345e-02 8.118783e-03 -1.500936e-02 6.999316e-03 -1.451588e-02 -5.900099e-04 -1.286442e-02 -4.946627e-03 -1.295688e-02 -3.991064e-03 -1.637246e-02 -1.146106e-02 -1.215078e-02 -1.343289e-02 -5.865357e-03 -6.299950e-03 -4.879202e-03 -5.798724e-03 5.297495e-03 -4.721482e-03 1.303889e-02 6.793119e-04 1.150198e-02 -2.471522e-04 1.623551e-02 -3.667160e-03 2.108180e-02 -2.383530e-03 1.849590e-02 -4.689935e-03 1.941334e-02 -1.560096e-02 2.578009e-02 -3.337101e-02 3.583238e-02 -5.904975e-02 4.936595e-02 -9.790014e-02 6.663911e-02 -1.688969e-01 8.972995e-02 -3.105502e-01 3.624450e-01 
-4.246344e-01 1.409839e-01 -7.605481e-01 -1.400184e+00 -4.587320e+01 -5.713676e-01 7.321119e-01 -2.097123e-01 5.103204e-01 -1.380610e-01 2.871677e-01 -9.261368e-02 1.668198e-01 -5.910975e-02 1.068878e-01 -3.948325e-02 8.309464e-02 -3.596923e-02 5.736977e-02 -2.559146e-02 3.714443e-02 -1.661129e-02 2.779666e-02 -1.950708e-02 1.759236e-02 -1.925710e-02 1.000617e-03 -1.878264e-02 -9.497280e-03 -2.455065e-02 -1.178351e-02 -2.833023e-02 -2.149366e-02 -2.083112e-02 -2.193683e-02 -1.130779e-02 -7.069182e-03 -7.488032e-03 -4.462704e-03 8.128464e-03 -9.004689e-05 2.285944e-02 1.414862e-02 2.403180e-02 1.377616e-02 3.253778e-02 9.612803e-03 3.943439e-02 1.114393e-02 3.271192e-02 3.364565e-03 3.069981e-02 -1.540456e-02 3.550167e-02 -4.304060e-02 4.455078e-02 -7.910510e-02 5.868646e-02 -1.274283e-01 8.241199e-02 -1.997548e-01 1.324291e-01 -3.243331e-01 2.571310e-01 
-3.408181e-01 1.945873e-01 -4.536883e-01 -1.278282e+00 -5.054342e+01 -6.236846e-01 4.093774e-01 -2.804473e-01 4.192695e-01 -1.841216e-01 2.711204e-01 -1.229037e-01 1.589094e-01 -8.114118e-02 9.273750e-02 -5.761848e-02 7.531386e-02 -6.602237e-02 4.752543e-02 -4.875956e-02 2.113059e-02 -2.796424e-02 1.641685e-02 -3.335698e-02 1.891273e-02 -2.744265e-02 1.208089e-03 -1.282593e-02 -6.585061e-03 -1.506004e-02 9.576683e-03 -2.136509e-02 -6.723789e-03 -5.823007e-03 -1.576921e-02 4.623678e-03 9.767224e-03 -8.619252e-03 -2.700519e-03 8.389362e-03 -1.320065e-02 2.694925e-02 8.463383e-03 1.050299e-02 3.348995e-05 2.234007e-02 -1.411881e-02 3.840481e-02 -4.090241e-03 2.118509e-02 1.128008e-03 2.355638e-02 -1.115217e-02 4.274041e-02 -3.338107e-02 6.499509e-02 -6.409382e-02 8.882304e-02 -1.078352e-01 1.191838e-01 -1.752329e-01 1.668893e-01 -2.732702e-01 2.434897e-01 
-3.289485e-01 2.068924e-01 -3.107399e-01 -1.396567e+00 -5.462942e+01 -7.286900e-01 2.290005e-01 -2.587559e-01 3.459640e-01 -1.754116e-01 2.396820e-01 -1.217341e-01 1.454857e-01 -8.107294e-02 9.176843e-02 -6.102453e-02 1.018413e-01 -8.184873e-02 6.373507e-02 -4.904546e-02 2.947097e-02 -2.268215e-02 2.900837e-02 -4.444249e-02 2.688572e-02 -3.087127e-02 -2.387153e-03 -1.228677e-02 -1.387758e-02 -2.743286e-02 8.340899e-03 -3.181094e-02 -1.686594e-02 -9.229231e-03 -2.871081e-02 8.065442e-04 1.398827e-02 -1.473859e-02 -4.684085e-03 1.172042e-02 -1.846147e-02 3.767607e-02 1.961668e-02 1.445317e-02 6.550592e-03 3.368709e-02 -1.322813e-02 5.545012e-02 1.890303e-03 2.532183e-02 6.353227e-03 2.615766e-02 -1.008604e-02 4.549570e-02 -3.859923e-02 6.714188e-02 -7.475396e-02 9.101582e-02 -1.202937e-01 1.228093e-01 -1.817087e-01 1.674351e-01 -2.627988e-01 2.116271e-01 
-2.186186e-01 2.175656e-01 -7.693223e-02 -1.357238e+00 -5.698733e+01 -6.826364e-01 2.527311e-02 -2.914278e-01 2.215628e-01 -2.077725e-01 1.812159e-01 -1.431874e-01 1.069190e-01 -8.781384e-02 4.574240e-02 -5.520194e-02 9.725119e-02 -1.353801e-01 6.727566e-02 -7.161364e-02 7.364380e-03 -9.585388e-03 6.696353e-03 -7.344125e-02 4.931252e-02 -4.469404e-02 -5.797196e-03 9.962262e-03 -3.874889e-02 -2.575582e-02 4.992041e-02 -4.509758e-02 -7.259100e-03 1.080904e-02 -5.431859e-02 2.720440e-02 5.214344e-02 -4.136900e-02 6.980565e-04 1.471112e-02 -5.226618e-02 6.945401e-02 3.097926e-02 -2.080958e-02 7.565176e-03 2.868096e-02 -4.750115e-02 8.963852e-02 -1.776330e-02 -4.085807e-03 2.382794e-02 7.194221e-03 5.521515e-03 5.136122e-02 -2.530454e-02 8.548244e-02 -5.753765e-02 1.139343e-01 -9.397779e-02 1.455364e-01 -1.395205e-01 1.840797e-01 -1.903609e-01 2.205276e-01 
-1.792303e-01 2.143467e-01 4.084058e-02 -1.383862e+00 -5.911023e+01 -7.755447e-01 -1.059515e-01 -2.914952e-01 1.473306e-01 -1.983464e-01 1.326480e-01 -1.286597e-01 6.654944e-02 -6.606812e-02 6.046321e-03 -4.633884e-02 1.548277e-01 -1.966916e-01 7.982671e-02 -5.641188e-02 -6.065160e-03 2.838998e-02 1.823680e-02 -1.227441e-01 6.970554e-02 -4.004942e-02 -1.642254e-02 4.032728e-02 -6.097289e-02 -6.188955e-02 7.537405e-02 -5.486801e-02 -1.797581e-02 2.636974e-02 -9.038945e-02 1.921902e-02 8.683108e-02 -5.824953e-02 -9.564148e-04 2.478360e-02 -8.179284e-02 9.092793e-02 6.015723e-02 -3.776806e-02 1.668303e-02 3.919900e-02 -6.253763e-02 1.261965e-01 -1.816266e-02 -1.933326e-02 3.757983e-02 1.378544e-03 1.541784e-02 5.194494e-02 -2.462892e-02 8.649572e-02 -6.164374e-02 1.136513e-01 -9.666177e-02 1.436842e-01 -1.336531e-01 1.786903e-01 -1.686123e-01 2.103839e-01 
-7.930126e-02 2.138724e-01 2.090362e-01 -1.379040e+00 -5.979254e+01 -6.780203e-01 -2.155819e-01 -3.072562e-01 4.734910e-02 -2.234045e-01 7.596587e-02 -1.441253e-01 2.178059e-02 -3.930260e-02 -1.128804e-01 6.003993e-02 1.517428e-01 -3.922360e-01 1.516135e-01 -6.545848e-02 -4.638247e-02 1.672967e-01 -8.789570e-02 -2.605406e-01 1.906776e-01 -6.664631e-02 -1.475539e-02 1.628206e-01 -2.172260e-01 -1.123283e-01 2.273444e-01 -1.259782e-01 3.553536e-03 1.004625e-01 -2.440562e-01 8.430046e-02 2.189788e-01 -1.903154e-01 3.152474e-02 4.871238e-02 -2.070751e-01 2.323037e-01 1.116066e-01 -2.034230e-01 7.709379e-02 4.513365e-02 -1.397320e-01 3.098518e-01 -1.018094e-01 -1.691717e-01 1.292715e-01 -3.485389e-02 4.787566e-02 7.072927e-02 -1.558800e-02 1.095959e-01 -4.882320e-02 1.328302e-01 -7.041395e-02 1.585540e-01 -8.871067e-02 1.884987e-01 -9.849081e-02 2.166174e-01 
-4.079247e-02 2.109364e-01 2.932589e-01 -1.364436e+00 -6.047562e+01 -7.500723e-01 -2.972898e-01 -3.242278e-01 2.699020e-04 -2.271523e-01 3.949396e-02 -1.246926e-01 -3.698424e-02 4.770493e-02 -2.915200e-01 1.834195e-01 3.395986e-01 -6.474182e-01 1.721041e-01 3.743420e-02 -1.315884e-01 3.996027e-01 -1.125622e-01 -5.102888e-01 2.819573e-01 -1.196863e-02 -4.397347e-02 3.581266e-01 -3.526373e-01 -3.078136e-01 3.793184e-01 -1.173278e-01 -7.100553e-03 2.075457e-01 -4.105475e-01 2.992205e-03 4.025980e-01 -2.309147e-01 3.865891e-02 9.473079e-02 -3.425970e-01 2.889547e-01 2.274639e-01 -2.856244e-01 1.148047e-01 6.485224e-02 -2.006018e-01 4.684106e-01 -1.571885e-01 -2.438572e-01 1.939991e-01 -4.812504e-02 7.492338e-02 7.690430e-02 -1.695440e-02 1.139776e-01 -5.493753e-02 1.328671e-01 -7.145363e-02 1.554678e-01 -7.993292e-02 1.832503e-01 -7.625019e-02 2.115360e-01 
3.764690e-02 2.042252e-01 4.146090e-01 -1.378786e+00 -5.987306e+01 -6.185808e-01 -3.454145e-01 -3.369718e-01 -6.619139e-02 -2.707185e-01 1.842791e-02 -1.876437e-01 -4.743188e-03 1.141138e-01 -5.968652e-01 9.819061e-01 3.170960e-01 -1.397899e+00 5.785431e-01 1.618134e-01 -1.791589e-01 1.167698e+00 -6.344225e-01 -1.172322e+00 8.402863e-01 -3.183610e-02 6.390677e-02 9.788660e-01 -1.104763e+00 -6.091763e-01 1.003853e+00 -3.780120e-01 1.319513e-01 5.631106e-01 -1.120211e+00 2.752954e-01 8.943664e-01 -8.467802e-01 2.355075e-01 2.463843e-01 -8.417766e-01 9.808165e-01 3.528535e-01 -1.157915e+00 4.657415e-01 1.356292e-01 -3.801634e-01 1.406765e+00 -6.331569e-01 -1.110402e+00 6.612966e-01 2.440935e-02 7.910633e-02 1.565863e-01 -5.180246e-02 1.453516e-01 -5.973675e-02 1.470019e-01 -5.113033e-02 1.635756e-01 -3.977583e-02 1.874961e-01 -1.700310e-02 2.126771e-01 
6.623388e-02 1.997976e-01 4.691669e-01 -1.345182e+00 -5.943025e+01 -6.670563e-01 -3.846429e-01 -3.673791e-01 -7.323160e-02 -3.172248e-01 4.123692e-02 -2.528019e-01 1.035059e-02 2.910268e-01 -1.400195e+00 1.616218e+00 4.945285e+00 2.260116e+00 8.318869e-01 8.414419e-01 -6.106970e-01 6.289874e-01 2.676222e+00 1.730336e+00 1.489482e+00 5.626879e-01 -7.053706e-02 2.831961e-01 8.851539e-01 2.345423e+00 2.072820e+00 3.199713e-02 1.255018e-01 3.961082e-01 -7.557166e-01 3.153255e+00 2.513509e+00 -7.534703e-01 3.020527e-01 3.392521e-01 -1.248212e+00 2.877160e+00 2.564379e+00 -1.408299e+00 6.255320e-01 2.636605e-01 -6.625396e-01 1.811018e+00 1.833183e+00 -2.084132e+00 9.279360e-01 7.121054e-02 9.374763e-02 2.060779e-01 -9.198324e-02 1.604057e-01 -8.037978e-02 1.485500e-01 -5.506626e-02 1.599623e-01 -3.200537e-02 1.819740e-01 1.063191e-03 2.078175e-01 
1.235144e-01 1.870134e-01 5.544007e-01 -1.356782e+00 -5.780901e+01 -5.159629e-01 -3.972217e-01 -3.634730e-01 -1.267804e-01 -3.856301e-01 3.331906e-02 -5.847692e-01 3.193214e-01 -7.284935e-01 -6.047420e-01 6.081229e-01 3.545911e+01 3.738613e+01 5.041967e+00 1.738903e+00 -3.431946e-02 -6.364984e+00 2.711680e+01 4.055120e+01 1.142632e+01 3.701869e+00 6.834948e-01 -7.520425e+00 1.696357e+01 3.965138e+01 2.206988e+01 7.487159e+00 7.446347e-01 -3.410042e+00 5.797046e+00 3.003980e+01 3.328272e+01 1.479454e+01 1.376091e+00 -3.753475e-01 -4.937311e-01 1.558635e+01 3.754666e+01 2.425158e+01 2.879165e+00 6.936045e-01 -5.846793e-01 3.963023e-01 3.287769e+01 3.327350e+01 5.844548e+00 2.216655e+00 -7.216452e-01 2.502229e-01 -2.693954e-01 1.517318e-01 -9.556793e-02 1.461235e-01 -3.254847e-02 1.600317e-01 5.033404e-03 1.808778e-01 4.886356e-02 2.040732e-01 
1.412183e-01 1.779982e-01 5.830437e-01 -1.299114e+00 -5.644409e+01 -5.471708e-01 -4.131257e-01 -3.754654e-01 -1.089642e-01 -4.446140e-01 1.602677e-01 -9.038719e-01 9.249714e-01 -2.324349e+00 1.814446e+00 2.673642e+00 4.195510e+01 4.036547e+01 3.870117e+00 -4.454883e-01 1.114556e+00 -5.717406e+00 3.756992e+01 5.033493e+01 1.046017e+01 2.247825e+00 9.846192e-01 -8.287425e+00 2.696473e+01 5.308001e+01 2.518514e+01 7.216505e+00 5.903680e-01 -4.662940e+00 1.230424e+01 4.345400e+01 4.357347e+01 1.743093e+01 4.065515e-01 -1.157522e+00 2.225034e+00 2.567604e+01 5.357215e+01 3.262078e+01 5.856159e-01 4.755109e-01 -4.602620e-01 5.361206e+00 5.242734e+01 5.038092e+01 2.255269e+00 2.864702e+00 -1.342220e+00 3.710702e-01 -3.999450e-01 1.578435e-01 -1.162849e-01 1.397914e-01 -2.944455e-02 1.521056e-01 1.474930e-02 1.727612e-01 6.270669e-02 1.967452e-01 
1.807865e-01 1.603142e-01 6.358458e-01 -1.271916e+00 -5.402883e+01 -4.053472e-01 -4.043765e-01 -2.916033e-01 -1.626008e-01 -2.422525e-01 -3.776611e-03 -2.312512e-01 1.804222e-01 -3.116987e-01 1.413506e+00 -3.366052e+00 -2.528374e+01 -2.398150e+01 6.232029e-01 -1.704286e+00 1.077710e+00 1.053440e+00 -1.817012e+01 -2.334120e+01 -3.225735e+00 -1.952249e+00 3.714241e-01 2.508041e+00 -1.158333e+01 -2.167305e+01 -9.178583e+00 -2.978844e+00 5.467093e-02 1.629574e+00 -5.162777e+00 -1.664168e+01 -1.539553e+01 -5.628484e+00 -1.882128e-01 7.983660e-01 -1.468249e+00 -9.297912e+00 -1.750631e+01 -9.484042e+00 -5.467461e-01 6.211536e-01 -8.442190e-01 -1.739045e+00 -1.478423e+01 -1.273449e+01 -1.103225e+00 1.073340e-01 -3.077323e-02 2.290763e-01 -7.876874e-04 1.624957e-01 6.479456e-03 1.437223e-01 2.450666e-02 1.507018e-01 5.377068e-02 1.679630e-01 1.006062e-01 1.887088e-01 
1.890245e-01 1.484211e-01 6.399432e-01 -1.171985e+00 -5.189937e+01 -4.303231e-01 -4.291946e-01 -2.423617e-01 -2.271662e-01 -8.365474e-02 -2.374605e-01 3.255041e-01 -6.997300e-01 1.182174e+00 -6.845581e-01 -8.803576e-01 -4.584624e+01 -4.687176e+01 -5.728641e+00 -1.209920e+00 -5.680615e-01 7.439185e+00 -3.840841e+01 -5.460071e+01 -1.317004e+01 -3.706335e+00 -9.558580e-01 9.468548e+00 -2.637742e+01 -5.571052e+01 -2.824375e+01 -8.865033e+00 -7.027078e-01 4.870086e+00 -1.121361e+01 -4.411427e+01 -4.607250e+01 -1.948395e+01 -8.869710e-01 1.105543e+00 -1.557621e+00 -2.475802e+01 -5.479614e+01 -3.460755e+01 -1.782875e+00 -2.940446e-01 9.214576e-02 -3.293731e+00 -5.156477e+01 -5.157465e+01 -4.294836e+00 -2.495109e+00 1.229413e+00 -2.244103e-02 3.257019e-01 1.060463e-01 9.389922e-02 1.226846e-01 5.343322e-02 1.372070e-01 6.748967e-02 1.565305e-01 1.101781e-01 1.782691e-01 
2.123938e-01 1.303920e-01 6.629132e-01 -1.135372e+00 -4.891818e+01 -3.071367e-01 -4.149291e-01 -2.097727e-01 -2.708601e-01 -9.621085e-02 -2.814656e-01 1.323349e-01 -5.174696e-01 5.324378e-01 -3.010801e-01 4.997689e-01 -1.297379e+01 -1.124053e+01 -4.041232e+00 -5.909059e-01 -5.344740e-01 3.133270e+00 -1.128892e+01 -1.569172e+01 -6.454995e+00 -1.673419e+00 -7.245750e-01 3.658059e+00 -7.295791e+00 -1.785247e+01 -1.133711e+01 -3.525408e+00 -6.617740e-01 1.440170e+00 -1.788364e+00 -1.513763e+01 -1.708695e+01 -7.120683e+00 -9.563246e-01 -2.599095e-01 1.452530e+00 -8.763001e+00 -2.014831e+01 -1.238913e+01 -1.736006e+00 -1.021642e+00 1.370543e+00 -7.755988e-01 -1.896253e+01 -1.887052e+01 -3.502682e+00 -2.000714e+00 5.073585e-01 -2.125727e-01 2.222512e-01 2.218193e-02 1.018439e-01 8.950375e-02 7.703388e-02 1.211295e-01 9.242021e-02 1.448037e-01 1.347784e-01 1.660517e-01 
2.106181e-01 1.171343e-01 6.468953e-01 -1.040767e+00 -4.621142e+01 -3.181721e-01 -4.196850e-01 -1.888107e-01 -2.861494e-01 -9.065047e-02 -2.865763e-01 -1.779049e-03 -3.289594e-01 -9.258436e-02 1.731864e-01 -1.577018e+00 3.445597e-01 2.455081e+00 -1.101387e+00 -1.722473e-02 -1.138263e-01 -1.366438e+00 6.156454e-01 1.745967e+00 -1.074116e+00 1.340990e-01 -2.171688e-01 -1.032770e+00 9.413098e-01 5.536104e-01 -1.097140e+00 5.710125e-01 -1.997844e-01 -6.850650e-01 1.279496e+00 -9.562336e-01 -1.114166e+00 1.253833e+00 -2.307567e-01 -4.496794e-01 1.300183e+00 -1.765217e+00 -1.026389e+00 1.721786e+00 -4.002631e-01 -4.227275e-01 9.412344e-01 -1.880052e+00 -6.183395e-01 1.786220e+00 -5.919719e-01 -2.747431e-01 7.353333e-02 -1.626953e-01 1.382190e-01 -5.788957e-03 9.973644e-02 6.693878e-02 8.412503e-02 1.046163e-01 9.745311e-02 1.310640e-01 1.366069e-01 1.534074e-01 
2.197030e-01 1.004816e-01 6.421651e-01 -9.886962e-01 -4.282247e+01 -2.284843e-01 -3.873110e-01 -1.724453e-01 -2.804482e-01 -1.042918e-01 -2.510980e-01 -5.787694e-02 -2.161551e-01 -1.481518e-01 1.249750e-01 -9.086400e-01 4.488077e-01 5.906863e-01 -5.941728e-01 3.421677e-03 -6.216221e-02 -7.989996e-01 6.808751e-01 5.275445e-01 -6.193357e-01 7.231365e-02 -1.018273e-01 -6.504304e-01 8.068966e-01 3.261442e-01 -6.742833e-01 2.583097e-01 -9.125974e-02 -3.837393e-01 7.496732e-01 -1.027707e-01 -6.505891e-01 5.190147e-01 -1.188033e-01 -1.901887e-01 6.245203e-01 -5.205521e-01 -3.948621e-01 7.473218e-01 -2.195827e-01 -1.466393e-01 4.320887e-01 -8.677446e-01 1.187171e-01 9.635831e-01 -3.727563e-01 2.964207e-02 1.896701e-02 -6.257437e-02 9.071914e-02 2.883615e-03 8.778790e-02 5.691194e-02 8.890341e-02 9.255231e-02 1.080108e-01 1.186442e-01 1.479605e-01 1.395855e-01 
2.086073e-01 8.832759e-02 6.087027e-01 -9.021101e-01 -3.966685e+01 -2.314483e-01 -3.692542e-01 -1.666820e-01 -2.592781e-01 -1.156077e-01 -2.107022e-01 -1.054198e-01 -1.288563e-01 -1.850233e-01 1.089430e-01 -4.297657e-01 1.057866e-01 2.256480e-01 -2.703871e-01 -1.450252e-02 1.326090e-03 -3.368158e-01 2.312403e-01 1.948185e-01 -2.832084e-01 2.466446e-02 -1.207902e-02 -2.768992e-01 3.257392e-01 1.131051e-01 -3.189887e-01 1.178979e-01 -1.383772e-02 -1.741039e-01 3.434054e-01 -5.639027e-02 -3.368247e-01 2.283680e-01 -2.698479e-02 -8.603601e-02 3.201078e-01 -2.088996e-01 -2.444359e-01 3.181656e-01 -6.884904e-02 -6.338821e-02 2.628718e-01 -3.312458e-01 -2.878846e-02 4.498876e-01 -1.652613e-01 1.090635e-01 -1.494190e-02 -7.285250e-04 5.411798e-02 1.580037e-02 7.225426e-02 5.160797e-02 8.267911e-02 8.201352e-02 1.034255e-01 1.066014e-01 1.413358e-01 1.269390e-01 
2.057985e-01 7.444762e-02 5.801104e-01 -8.320273e-01 -3.596129e+01 -1.705452e-01 -3.286162e-01 -1.531024e-01 -2.371822e-01 -1.151750e-01 -1.834496e-01 -1.081660e-01 -1.107283e-01 -1.539657e-01 2.865262e-02 -2.586075e-01 1.799872e-02 6.023292e-02 -1.386116e-01 -2.567890e-02 -8.952094e-03 -1.744173e-01 8.639037e-02 5.970146e-02 -1.360239e-01 9.020859e-03 -6.955576e-03 -1.319917e-01 1.404757e-01 2.168634e-02 -1.455383e-01 6.512086e-02 -4.688038e-03 -7.662176e-02 1.542383e-01 -5.631133e-02 -1.500352e-01 1.220843e-01 -1.193463e-02 -2.914223e-02 1.475972e-01 -1.142522e-01 -1.059839e-01 1.617683e-01 -3.142312e-02 -1.049448e-02 1.245538e-01 -1.393544e-01 -1.144705e-02 2.314642e-01 -8.510542e-02 1.061851e-01 -3.494784e-03 3.100788e-02 4.383478e-02 3.070516e-02 6.429843e-02 5.245694e-02 8.023348e-02 7.561404e-02 1.040010e-01 9.619730e-02 1.418349e-01 1.135130e-01 
1.871926e-01 6.461096e-02 5.317901e-01 -7.467756e-01 -3.244136e+01 -1.682960e-01 -2.986002e-01 -1.473000e-01 -2.072692e-01 -1.148642e-01 -1.524807e-01 -1.089857e-01 -8.737551e-02 -1.290899e-01 -3.888996e-03 -1.571229e-01 -1.990963e-02 -2.016082e-02 -6.923232e-02 -3.519094e-02 -7.906566e-03 -8.832887e-02 1.835143e-02 3.988207e-04 -6.024315e-02 -8.768356e-03 4.635184e-04 -6.180515e-02 4.993617e-02 -3.391760e-03 -6.308654e-02 2.164710e-02 3.478455e-03 -3.512713e-02 6.367117e-02 -2.640834e-02 -7.067446e-02 4.890933e-02 1.526092e-03 -1.062699e-02 6.908421e-02 -4.158351e-02 -5.561820e-02 6.884084e-02 -3.446803e-03 4.116437e-03 6.699095e-02 -3.664388e-02 -2.219156e-02 1.213353e-01 -3.774402e-02 8.256982e-02 -1.626211e-07 4.199475e-02 3.177699e-02 3.793114e-02 5.176761e-02 5.126329e-02 6.940095e-02 6.879572e-02 9.309407e-02 8.618952e-02 1.284621e-01 1.017152e-01 
1.749104e-01 5.351462e-02 4.849022e-01 -6.649377e-01 -2.848508e+01 -1.246930e-01 -2.555739e-01 -1.333952e-01 -1.812054e-01 -1.066730e-01 -1.329588e-01 -9.549714e-02 -8.869055e-02 -9.426331e-02 -4.775260e-02 -9.663217e-02 -2.892140e-02 -6.517516e-02 -3.132369e-02 -4.470064e-02 -1.879948e-02 -4.447925e-02 -1.026768e-02 -2.896339e-02 -1.510289e-02 -2.061516e-02 -5.493398e-03 -2.410613e-02 1.658563e-03 -1.238626e-02 -9.145234e-03 -5.494516e-03 1.069926e-03 -1.092400e-02 7.843107e-03 -4.948879e-03 -1.188388e-02 6.133182e-03 4.084457e-03 4.232386e-04 1.364119e-02 1.928185e-03 -1.328520e-02 1.939222e-02 6.416840e-03 1.398994e-02 1.653809e-02 1.910058e-02 -1.616856e-02 5.529095e-02 -2.368006e-03 5.126893e-02 1.508628e-02 4.362633e-02 3.058563e-02 4.454351e-02 4.536534e-02 5.261369e-02 6.290026e-02 6.421422e-02 8.685081e-02 7.699255e-02 1.207385e-01 8.896255e-02 
1.509015e-01 4.543915e-02 4.252720e-01 -5.792434e-01 -2.467032e+01 -1.167573e-01 -2.191774e-01 -1.241983e-01 -1.498384e-01 -9.899614e-02 -1.083059e-01 -8.274637e-02 -7.987721e-02 -6.538114e-02 -6.690019e-02 -5.401308e-02 -2.101633e-02 -9.435633e-02 -6.203466e-03 -4.226136e-02 -2.371650e-02 -1.009424e-02 -2.273556e-02 -5.005082e-02 1.401750e-02 -2.417268e-02 -8.069224e-03 3.145585e-03 -2.722207e-02 -1.983284e-02 2.459895e-02 -2.135980e-02 -1.294542e-04 4.569555e-03 -2.708444e-02 8.939178e-03 2.315303e-02 -2.112938e-02 6.661256e-03 5.992029e-03 -1.956265e-02 3.129280e-02 9.301960e-03 -1.322227e-02 1.485570e-02 1.673775e-02 -1.068137e-02 5.437918e-02 -1.969219e-02 1.379440e-02 1.812902e-02 2.679908e-02 2.131468e-02 4.033473e-02 2.442383e-02 4.542894e-02 3.414844e-02 5.043612e-02 4.998673e-02 5.804728e-02 7.222758e-02 6.767643e-02 1.028254e-01 7.752998e-02 
1.314775e-01 3.589442e-02 3.662129e-01 -4.941736e-01 -2.052287e+01 -8.001883e-02 -1.740395e-01 -1.105714e-01 -1.199442e-01 -9.228171e-02 -8.300481e-02 -7.148827e-02 -7.069252e-02 -2.506490e-02 -1.121034e-01 4.041366e-02 -4.561440e-02 -1.880166e-01 6.389877e-02 -4.506751e-02 -3.130836e-02 7.371153e-02 -8.727391e-02 -1.114410e-01 9.253307e-02 -4.140299e-02 -6.366814e-03 6.870318e-02 -1.154537e-01 -3.616037e-02 1.082608e-01 -6.860831e-02 7.083021e-03 4.193767e-02 -1.139376e-01 5.222284e-02 9.482377e-02 -9.988799e-02 2.427965e-02 2.054799e-02 -9.006309e-02 1.142304e-01 3.923118e-02 -1.072276e-01 5.191828e-02 2.525627e-02 -5.827297e-02 1.559414e-01 -5.836752e-02 -8.501481e-02 7.961024e-02 -6.002433e-03 3.790260e-02 4.495373e-02 1.856368e-02 5.150070e-02 2.342464e-02 5.052732e-02 3.931213e-02 5.268721e-02 6.113621e-02 5.816566e-02 8.924595e-02 6.480739e-02 
1.041635e-01 2.813303e-02 2.993965e-01 -4.092237e-01 -1.647834e+01 -6.470370e-02 -1.326460e-01 -9.866212e-02 -8.635146e-02 -8.490237e-02 -5.473402e-02 -6.156812e-02 -5.687486e-02 8.164887e-03 -1.465986e-01 1.288560e-01 -4.377758e-02 -2.822384e-01 1.154419e-01 -2.374917e-02 -4.076849e-02 1.672499e-01 -1.361102e-01 -1.936827e-01 1.569318e-01 -3.455453e-02 -5.872884e-03 1.436372e-01 -1.932822e-01 -9.015939e-02 1.865027e-01 -8.420336e-02 1.102054e-02 8.526152e-02 -1.951939e-01 5.065035e-02 1.706389e-01 -1.439172e-01 3.549223e-02 4.076029e-02 -1.559621e-01 1.642099e-01 7.564929e-02 -1.763660e-01 7.868401e-02 3.753377e-02 -9.722638e-02 2.431570e-01 -9.237388e-02 -1.732482e-01 1.259726e-01 -1.825132e-02 4.341183e-02 4.903130e-02 7.888736e-03 5.266899e-02 9.617999e-03 4.698483e-02 2.475223e-02 4.544124e-02 4.470007e-02 4.815695e-02 6.892012e-02 5.281028e-02 
7.997688e-02 1.867005e-02 2.334911e-01 -3.250639e-01 -1.219690e+01 -2.799148e-02 -8.618714e-02 -8.466860e-02 -5.396087e-02 -8.987287e-02 -1.368992e-02 -8.633599e-02 3.829644e-03 2.670014e-02 -1.990855e-01 5.595052e-01 -2.631350e-01 -7.746860e-01 4.427937e-01 2.144836e-02 -1.228800e-02 5.860305e-01 -5.065561e-01 -5.590437e-01 5.050390e-01 -6.148308e-02 6.102985e-02 4.631875e-01 -6.085661e-01 -2.381549e-01 5.255247e-01 -2.369297e-01 8.391283e-02 2.642807e-01 -5.483578e-01 2.006073e-01 4.078939e-01 -4.681070e-01 1.465250e-01 1.272334e-01 -3.895407e-01 5.254720e-01 1.105406e-01 -6.274628e-01 2.814603e-01 9.464096e-02 -1.841526e-01 7.248426e-01 -3.390610e-01 -6.554898e-01 4.009858e-01 2.942883e-02 3.344156e-02 9.300349e-02 -2.654577e-02 6.184746e-02 -1.126070e-02 4.326956e-02 1.087905e-02 3.704852e-02 3.124677e-02 3.703418e-02 5.198939e-02 3.942110e-02 
5.142841e-02 9.971878e-03 1.633698e-01 -2.408734e-01 -7.984919e+00 -3.583769e-03 -4.178327e-02 -6.875536e-02 -1.960336e-02 -8.750172e-02 2.497784e-02 -1.043038e-01 5.485661e-02 1.998133e-02 -2.626060e-01 5.154565e-01 7.670250e-01 -8.632573e-02 7.463446e-01 1.650853e-01 -2.238148e-02 4.034624e-01 2.450572e-01 3.145664e-01 9.587374e-01 9.608108e-02 9.715983e-02 2.826626e-01 -2.222862e-01 8.350756e-01 1.240084e+00 -4.349046e-02 1.300733e-01 2.396991e-01 -5.870397e-01 1.211563e+00 1.460573e+00 -1.830412e-01 2.200183e-01 1.965758e-01 -5.952252e-01 1.098412e+00 1.395717e+00 -1.301920e-01 4.264828e-01 1.990152e-01 -3.122427e-01 7.502256e-01 8.935517e-01 7.426975e-02 6.904181e-01 1.874100e-01 -2.423461e-03 1.235721e-01 -5.750593e-02 6.187357e-02 -2.911655e-02 3.559507e-02 -3.286342e-03 2.688480e-02 1.538063e-02 2.524470e-02 3.141285e-02 2.617169e-02 
2.491791e-02 -4.370103e-05 9.399892e-02 -1.516119e-01 -3.629226e+00 3.367035e-02 9.412802e-04 -4.334071e-02 1.788091e-03 -9.387088e-02 5.703809e-02 -2.415149e-01 2.233438e-01 -4.888025e-01 2.455687e-01 -2.562528e+00 1.359669e+01 1.863751e+01 4.634056e+00 1.183245e+00 3.785104e-01 -3.901478e+00 9.845661e+00 1.933655e+01 7.948664e+00 2.355473e+00 5.833868e-01 -3.410704e+00 5.498143e+00 1.765578e+01 1.309542e+01 5.038393e+00 5.749578e-01 -1.334719e+00 1.265893e+00 1.207465e+01 1.801586e+01 9.737826e+00 9.567494e-01 6.857242e-02 -5.699610e-01 4.551051e+00 1.901081e+01 1.553425e+01 1.972668e+00 5.822781e-01 -2.369269e-01 -1.812414e+00 1.564952e+01 2.004082e+01 4.230478e+00 1.719060e+00 -4.499596e-01 1.476292e-01 -1.667979e-01 3.958204e-02 -4.978872e-02 1.935527e-02 -1.186207e-02 1.381679e-02 3.986873e-03 1.224585e-02 1.385126e-02 1.202085e-02 
-2.967400e-03 -9.860243e-03 2.361870e-02 -6.463182e-02 6.870029e-01 6.756570e-02 4.377089e-02 -1.595363e-02 2.481736e-02 -8.016310e-02 7.938565e-02 -2.813300e-01 3.152781e-01 -7.387194e-01 4.422410e-01 -2.842744e+00 1.994370e+01 2.645552e+01 5.113215e+00 1.234490e+00 4.040231e-01 -4.895680e+00 1.495669e+01 2.735832e+01 9.709463e+00 2.777022e+00 5.990622e-01 -4.497549e+00 8.949804e+00 2.491199e+01 1.707761e+01 6.398940e+00 5.396136e-01 -2.015678e+00 2.900918e+00 1.727707e+01 2.439313e+01 1.285293e+01 7.995900e-01 -2.255118e-01 -4.223533e-02 7.011007e+00 2.626160e+01 2.095767e+01 1.729859e+00 4.348111e-01 -1.213411e-01 -1.675209e+00 2.231612e+01 2.741214e+01 4.259010e+00 1.911040e+00 -6.198672e-01 1.160572e-01 -1.992676e-01 1.172024e-02 -5.676495e-02 1.871974e-03 -1.905259e-02 -4.213070e-05 -8.351869e-03 -1.254150e-03 -5.072002e-03 -2.328578e-03 
-3.003453e-02 -1.991432e-02 -4.739091e-02 3.919007e-02 5.038295e+00 9.830130e-02 8.178453e-02 4.375307e-02 2.727907e-02 4.855841e-02 -6.556379e-03 1.237843e-01 -1.130704e-01 3.307389e-01 -1.983968e-01 8.233995e-01 -6.824390e+00 -8.642043e+00 -1.547250e+00 -2.657288e-01 -1.696681e-01 1.625772e+00 -5.406033e+00 -9.389216e+00 -3.121223e+00 -8.054232e-01 -2.134932e-01 1.581645e+00 -3.419912e+00 -8.931194e+00 -5.826103e+00 -2.065615e+00 -1.804711e-01 7.621860e-01 -1.228096e+00 -6.512045e+00 -8.737051e+00 -4.410897e+00 -2.214581e-01 1.088630e-01 -4.570248e-02 -2.889789e+00 -9.827650e+00 -7.559983e+00 -4.631792e-01 -1.679014e-01 9.562660e-02 3.750672e-01 -8.731204e+00 -1.029850e+01 -1.340794e+00 -7.311156e-01 2.258114e-01 -6.466786e-02 6.658902e-02 -1.378797e-02 1.044159e-02 -1.025660e-02 -6.782944e-03 -1.198490e-02 -1.491804e-02 -1.425795e-02 -2.203149e-02 -1.659264e-02 