# vtk DataFile Version 2.0
Comment goes here
ASCII

DATASET STRUCTURED_POINTS
FIELD FieldData 1
TIME 1 1 double
0.03500000
DIMENSIONS    64   64   1

ORIGIN    0.000   0.000   0.000
SPACING   0.03125 0.03125   1.000

POINT_DATA   4096
SCALARS Omega double
LOOKUP_TABLE default

5.485031e-02 -3.500869e-01 2.398526e-01 -4.625523e-01 2.878269e-01 -2.610751e-01 2.085990e-01 -2.920372e-01 1.568182e-01 -2.200487e-01 1.355215e-01 -1.648514e-01 1.359328e-01 -1.135682e-01 1.423631e-01 -6.394613e-02 1.558747e-01 -4.095561e-02 1.884125e-01 -2.540054e-02 2.001283e-01 8.123145e-03 1.845714e-01 6.287080e-02 1.566969e-01 1.000188e-01 1.360051e-01 1.047998e-01 1.179349e-01 1.704581e-01 8.097986e-02 1.588872e-01 1.132091e-01 1.328536e-01 1.363087e-01 1.303608e-01 1.512980e-01 1.077055e-01 1.339313e-01 1.496107e-01 7.426989e-02 1.620038e-01 1.286350e-01 1.005635e-01 8.090131e-02 1.511793e-01 -1.275457e-03 1.846683e-01 -4.846098e-02 1.937588e-01 -1.160562e-01 2.068682e-01 -1.839342e-01 2.242762e-01 -2.490413e-01 2.408184e-01 -3.030602e-01 2.391913e-01 -3.174139e-01 2.246363e-01 -3.411526e-01 2.400417e-01 -4.245998e-01 2.244257e-01 
1.876895e+00 -2.589455e+01 -3.121491e+00 -2.417283e+01 -3.204341e+00 -2.362283e+01 -4.737562e+00 -2.160741e+01 -8.737495e+00 -1.891725e+01 -1.249389e+01 -1.651228e+01 -1.526325e+01 -1.478141e+01 -1.772553e+01 -1.260233e+01 -2.083928e+01 -9.553635e+00 -2.490146e+01 -5.153507e+00 -3.051189e+01 1.023694e+00 -3.782685e+01 8.350274e+00 -4.527053e+01 1.450850e+01 -4.972511e+01 1.649371e+01 -4.984852e+01 1.480940e+01 -4.704673e+01 1.072678e+01 -4.222587e+01 5.779849e+00 -3.773940e+01 2.253333e+00 -3.522745e+01 7.907988e-01 -3.492211e+01 1.907223e+00 -3.712516e+01 4.990221e+00 -4.035134e+01 8.474401e+00 -4.370452e+01 1.181888e+01 -4.636790e+01 1.408215e+01 -4.740813e+01 1.413673e+01 -4.576711e+01 1.118256e+01 -4.105361e+01 5.620471e+00 -3.401405e+01 -1.589010e+00 -2.615278e+01 -8.622883e+00 -1.903392e+01 -1.463703e+01 -1.261550e+01 -1.997806e+01 -6.558226e+00 -2.626967e+01 
-4.241723e+01 4.316278e+00 -2.333081e+01 4.138106e+00 -6.103331e+00 4.409190e+00 -2.653079e+01 3.090496e+00 -3.469131e+01 1.810116e+00 -4.006604e+01 9.386208e-01 -4.456597e+01 8.013573e-01 -4.815632e+01 3.158360e-01 -5.053740e+01 -5.470742e-01 -5.196294e+01 -2.006207e+00 -5.207096e+01 -4.580448e+00 -5.055531e+01 -8.176170e+00 -4.831120e+01 -1.129516e+01 -4.740357e+01 -1.201546e+01 -4.849899e+01 -1.106090e+01 -5.065807e+01 -8.853965e+00 -5.363648e+01 -6.310047e+00 -5.605816e+01 -4.682748e+00 -5.719325e+01 -4.095388e+00 -5.700605e+01 -4.945124e+00 -5.525552e+01 -6.686451e+00 -5.322176e+01 -8.333452e+00 -5.081445e+01 -1.012476e+01 -4.846784e+01 -1.143439e+01 -4.656882e+01 -1.175162e+01 -4.568822e+01 -1.050049e+01 -4.604094e+01 -8.004195e+00 -4.712228e+01 -4.630335e+00 -4.806483e+01 -1.549038e+00 -4.764664e+01 9.328300e-01 -4.598630e+01 3.117843e+00 -4.258723e+01 7.316346e+00 
-2.246733e+01 7.257177e+00 -1.233559e+01 6.984147e+00 -1.584469e+01 6.710331e+00 -1.229501e+01 6.408289e+00 -1.637918e+01 4.835321e+00 -1.881892e+01 3.543398e+00 -2.087791e+01 2.836009e+00 -2.239358e+01 1.923014e+00 -2.308625e+01 8.213149e-01 -2.305288e+01 -7.240017e-01 -2.198273e+01 -3.039172e+00 -1.973859e+01 -6.022611e+00 -1.707158e+01 -8.562959e+00 -1.569200e+01 -9.140928e+00 -1.614996e+01 -8.228982e+00 -1.770554e+01 -6.314203e+00 -2.011218e+01 -4.142287e+00 -2.219842e+01 -2.740209e+00 -2.328352e+01 -2.249081e+00 -2.330311e+01 -2.968153e+00 -2.207084e+01 -4.494766e+00 -2.046733e+01 -6.043720e+00 -1.864830e+01 -7.629041e+00 -1.696701e+01 -8.739943e+00 -1.576114e+01 -8.890414e+00 -1.552900e+01 -7.661287e+00 -1.646845e+01 -5.276166e+00 -1.822055e+01 -2.155125e+00 -2.010631e+01 7.692827e-01 -2.123412e+01 3.124628e+00 -2.161289e+01 5.205513e+00 -2.115379e+01 8.466763e+00 
-4.999945e-01 7.454124e-01 -1.127115e+00 -1.108171e+00 -3.003798e+01 1.498416e-01 6.647081e-01 -6.026247e-02 -6.236824e-02 -4.646466e-02 -3.234525e-01 -3.177065e-02 -4.230363e-01 -2.467604e-02 -4.489198e-01 -2.544095e-02 -4.351637e-01 -3.391313e-02 -4.075315e-01 -5.031590e-02 -3.762018e-01 -6.915519e-02 -3.461815e-01 -7.768050e-02 -3.164918e-01 -8.491460e-02 -2.906691e-01 -1.071800e-01 -2.744072e-01 -1.322451e-01 -2.627344e-01 -1.454392e-01 -2.570665e-01 -1.340754e-01 -2.602141e-01 -1.087773e-01 -2.788599e-01 -8.556779e-02 -3.125147e-01 -6.298028e-02 -3.453270e-01 -4.487712e-02 -3.641462e-01 -3.281646e-02 -3.659485e-01 -2.981909e-02 -3.493168e-01 -4.551543e-02 -3.157372e-01 -7.782504e-02 -2.722156e-01 -1.166538e-01 -2.230168e-01 -1.451378e-01 -1.743076e-01 -1.436305e-01 -1.338971e-01 -1.006073e-01 -1.128537e-01 -2.350100e-02 -1.247857e-01 5.855715e-02 -2.353902e-01 3.777754e-01 
-2.916030e-01 5.666221e-02 -8.106053e-01 -1.033107e+00 -3.762752e+01 -3.966744e-01 8.035027e-01 -2.279262e-01 4.596191e-01 -1.186945e-01 2.429863e-01 -7.116100e-02 1.317904e-01 -4.442611e-02 7.497169e-02 -3.010592e-02 4.691930e-02 -2.708954e-02 2.668043e-02 -2.195756e-02 1.097250e-02 -1.768992e-02 4.815513e-03 -1.651287e-02 5.258371e-03 -1.375687e-02 2.443180e-04 -1.127854e-02 -3.449776e-03 -1.108270e-02 -2.126588e-03 -1.330674e-02 -8.953571e-03 -9.602243e-03 -1.148517e-02 -4.565142e-03 -5.934803e-03 -4.888460e-03 -6.715873e-03 3.523059e-03 -5.697781e-03 1.085093e-02 -3.083291e-04 9.531809e-03 -9.211412e-04 1.426449e-02 -3.601588e-03 1.887513e-02 -2.119034e-03 1.671798e-02 -3.530678e-03 1.869132e-02 -1.269860e-02 2.498809e-02 -2.927203e-02 3.357784e-02 -5.380207e-02 4.460762e-02 -9.095210e-02 5.814680e-02 -1.576330e-01 7.742023e-02 -2.858497e-01 3.579729e-01 
-3.896255e-01 1.141087e-01 -7.213337e-01 -1.303319e+00 -4.469656e+01 -5.489788e-01 6.727038e-01 -1.922030e-01 4.691643e-01 -1.271397e-01 2.653152e-01 -8.434528e-02 1.560674e-01 -5.294599e-02 1.012933e-01 -3.495501e-02 7.866007e-02 -3.206547e-02 5.364216e-02 -2.432364e-02 3.227144e-02 -1.844626e-02 2.178593e-02 -2.142163e-02 1.335365e-02 -1.937443e-02 2.123468e-04 -1.714006e-02 -7.915743e-03 -2.124147e-02 -8.814908e-03 -2.372943e-02 -1.728879e-02 -1.706665e-02 -1.845394e-02 -9.428282e-03 -6.382701e-03 -7.235638e-03 -5.359099e-03 5.926797e-03 -2.005020e-03 1.908226e-02 1.093935e-02 2.035203e-02 1.124019e-02 2.877525e-02 8.329269e-03 3.585205e-02 1.071973e-02 3.060909e-02 4.977388e-03 2.988579e-02 -1.140036e-02 3.452644e-02 -3.716451e-02 4.190870e-02 -7.157731e-02 5.338686e-02 -1.175336e-01 7.382874e-02 -1.852923e-01 1.202721e-01 -3.005978e-01 2.448548e-01 
-3.083351e-01 1.713469e-01 -4.232229e-01 -1.203831e+00 -4.903214e+01 -5.821866e-01 3.751218e-01 -2.559172e-01 3.842182e-01 -1.692316e-01 2.489375e-01 -1.128001e-01 1.466258e-01 -7.423265e-02 8.601888e-02 -5.272927e-02 6.951607e-02 -6.055922e-02 4.385957e-02 -4.500382e-02 1.885930e-02 -2.681226e-02 1.387708e-02 -3.208035e-02 1.676945e-02 -2.546468e-02 1.513458e-03 -1.141993e-02 -5.335466e-03 -1.358410e-02 9.573239e-03 -1.865664e-02 -5.177304e-03 -4.412734e-03 -1.384358e-02 4.398755e-03 8.637372e-03 -8.079915e-03 -3.098627e-03 7.180386e-03 -1.281184e-02 2.391185e-02 6.790455e-03 8.876977e-03 -5.228467e-04 2.014199e-02 -1.313875e-02 3.498351e-02 -3.820931e-03 1.899487e-02 1.490567e-03 2.184242e-02 -9.453347e-03 3.962780e-02 -2.996556e-02 5.971000e-02 -5.852962e-02 8.096582e-02 -9.920035e-02 1.082768e-01 -1.613624e-01 1.529131e-01 -2.500781e-01 2.283135e-01 
-3.023351e-01 1.868054e-01 -2.977195e-01 -1.306446e+00 -5.317764e+01 -7.001172e-01 2.118168e-01 -2.351113e-01 3.194734e-01 -1.603505e-01 2.214080e-01 -1.111603e-01 1.354044e-01 -7.378481e-02 8.630598e-02 -5.569161e-02 9.448039e-02 -7.469575e-02 5.897042e-02 -4.535735e-02 2.630283e-02 -2.242377e-02 2.463205e-02 -4.263924e-02 2.325792e-02 -2.919469e-02 -2.532877e-03 -1.129005e-02 -1.250663e-02 -2.477012e-02 8.522099e-03 -2.788527e-02 -1.404144e-02 -7.310024e-03 -2.534188e-02 9.380368e-04 1.259030e-02 -1.365301e-02 -4.747805e-03 9.972465e-03 -1.776262e-02 3.323644e-02 1.644731e-02 1.224075e-02 5.352551e-03 3.037355e-02 -1.227568e-02 5.078964e-02 1.748897e-03 2.356217e-02 7.131354e-03 2.497723e-02 -7.683028e-03 4.270844e-02 -3.418359e-02 6.198496e-02 -6.802390e-02 8.311723e-02 -1.106485e-01 1.117628e-01 -1.678243e-01 1.530571e-01 -2.427039e-01 1.950112e-01 
-1.972714e-01 1.991751e-01 -7.503723e-02 -1.276920e+00 -5.531332e+01 -6.483337e-01 2.302141e-02 -2.643148e-01 2.036009e-01 -1.898133e-01 1.660995e-01 -1.312465e-01 9.830747e-02 -8.059027e-02 4.278024e-02 -5.067073e-02 8.916896e-02 -1.246383e-01 6.176074e-02 -6.556153e-02 6.626994e-03 -9.075192e-03 5.570464e-03 -6.868893e-02 4.495223e-02 -4.087789e-02 -4.949852e-03 9.672360e-03 -3.507154e-02 -2.420411e-02 4.597709e-02 -4.056074e-02 -6.005002e-03 1.072560e-02 -4.920832e-02 2.452603e-02 4.728898e-02 -3.795796e-02 3.501707e-04 1.341296e-02 -4.806215e-02 6.299045e-02 2.757653e-02 -1.982291e-02 6.558908e-03 2.627973e-02 -4.364879e-02 8.250089e-02 -1.637132e-02 -4.632219e-03 2.229982e-02 6.923827e-03 5.314370e-03 4.731724e-02 -2.306349e-02 7.830310e-02 -5.261127e-02 1.041838e-01 -8.601945e-02 1.331584e-01 -1.275729e-01 1.690285e-01 -1.731821e-01 2.032186e-01 
-1.644077e-01 1.975487e-01 2.802665e-02 -1.295392e+00 -5.751269e+01 -7.505948e-01 -9.677275e-02 -2.643400e-01 1.376420e-01 -1.807864e-01 1.229805e-01 -1.175531e-01 6.236816e-02 -6.059882e-02 7.491998e-03 -4.326602e-02 1.425778e-01 -1.791365e-01 7.345948e-02 -5.158815e-02 -5.827506e-03 2.457359e-02 1.546911e-02 -1.132215e-01 6.325895e-02 -3.699639e-02 -1.506590e-02 3.664352e-02 -5.598362e-02 -5.667549e-02 6.926542e-02 -4.933729e-02 -1.547531e-02 2.469845e-02 -8.204332e-02 1.745689e-02 7.878944e-02 -5.327800e-02 -8.394491e-04 2.217688e-02 -7.501008e-02 8.223242e-02 5.351538e-02 -3.512786e-02 1.532430e-02 3.559092e-02 -5.727986e-02 1.158844e-01 -1.746948e-02 -1.745068e-02 3.617007e-02 2.098045e-03 1.496773e-02 4.810454e-02 -2.219396e-02 7.932774e-02 -5.634377e-02 1.038909e-01 -8.877414e-02 1.312631e-01 -1.230482e-01 1.634802e-01 -1.551582e-01 1.927130e-01 
-6.974887e-02 1.982730e-01 1.861132e-01 -1.294992e+00 -5.805018e+01 -6.534247e-01 -1.992615e-01 -2.782659e-01 4.418304e-02 -2.035006e-01 6.928128e-02 -1.321912e-01 1.951094e-02 -3.727009e-02 -1.024190e-01 5.483309e-02 1.409719e-01 -3.591355e-01 1.380933e-01 -5.975009e-02 -4.353742e-02 1.525528e-01 -7.944086e-02 -2.395395e-01 1.743570e-01 -6.049823e-02 -1.395399e-02 1.492117e-01 -1.978752e-01 -1.036977e-01 2.084110e-01 -1.140964e-01 2.925005e-03 9.219045e-02 -2.227706e-01 7.693201e-02 2.009687e-01 -1.738373e-01 2.772406e-02 4.418622e-02 -1.900764e-01 2.123865e-01 1.032749e-01 -1.868056e-01 6.940464e-02 4.095481e-02 -1.292995e-01 2.853310e-01 -9.154241e-02 -1.565806e-01 1.194686e-01 -3.078164e-02 4.309548e-02 6.476049e-02 -1.469542e-02 1.001540e-01 -4.459256e-02 1.215899e-01 -6.403621e-02 1.453737e-01 -8.039438e-02 1.731049e-01 -8.849274e-02 1.989977e-01 
-3.677755e-02 1.963993e-01 2.594279e-01 -1.277306e+00 -5.882305e+01 -7.317730e-01 -2.741855e-01 -2.937671e-01 2.627880e-03 -2.064313e-01 3.712127e-02 -1.138117e-01 -3.351972e-02 4.167191e-02 -2.660733e-01 1.604296e-01 3.171600e-01 -5.858875e-01 1.553517e-01 3.307423e-02 -1.226363e-01 3.582012e-01 -1.007209e-01 -4.615169e-01 2.571151e-01 -1.175256e-02 -4.157704e-02 3.228313e-01 -3.215180e-01 -2.762233e-01 3.466352e-01 -1.073397e-01 -6.787270e-03 1.870939e-01 -3.742331e-01 6.047539e-03 3.676787e-01 -2.121409e-01 3.488724e-02 8.403973e-02 -3.132868e-01 2.634529e-01 2.079519e-01 -2.618160e-01 1.054331e-01 5.714831e-02 -1.848404e-01 4.276029e-01 -1.445233e-01 -2.219300e-01 1.821386e-01 -4.319685e-02 6.769757e-02 7.014091e-02 -1.609088e-02 1.040375e-01 -5.028631e-02 1.215189e-01 -6.534288e-02 1.423245e-01 -7.318747e-02 1.678889e-01 -6.964408e-02 1.939339e-01 
3.720205e-02 1.909762e-01 3.725449e-01 -1.293560e+00 -5.813484e+01 -6.038993e-01 -3.199074e-01 -3.049753e-01 -5.959795e-02 -2.453910e-01 1.635584e-02 -1.707126e-01 -6.681896e-03 9.820033e-02 -5.528730e-01 9.026509e-01 3.064954e-01 -1.280344e+00 5.223661e-01 1.434287e-01 -1.756017e-01 1.063082e+00 -5.666274e-01 -1.066862e+00 7.682306e-01 -2.897434e-02 4.925086e-02 8.876754e-01 -1.001829e+00 -5.511769e-01 9.225335e-01 -3.418584e-01 1.126223e-01 5.059903e-01 -1.022165e+00 2.573186e-01 8.292640e-01 -7.705996e-01 2.060122e-01 2.171241e-01 -7.758018e-01 8.978212e-01 3.414004e-01 -1.055125e+00 4.176745e-01 1.172838e-01 -3.606595e-01 1.286826e+00 -5.590876e-01 -1.017818e+00 6.061756e-01 2.335859e-02 6.770418e-02 1.416895e-01 -4.784614e-02 1.326994e-01 -5.396330e-02 1.348091e-01 -4.583674e-02 1.502267e-01 -3.512865e-02 1.723009e-01 -1.357976e-02 1.954656e-01 
6.162684e-02 1.876529e-01 4.197108e-01 -1.260318e+00 -5.779326e+01 -6.562354e-01 -3.558858e-01 -3.327588e-01 -6.480913e-02 -2.868900e-01 3.866060e-02 -2.269271e-01 1.017319e-02 2.664275e-01 -1.302571e+00 1.657076e+00 4.568286e+00 1.993801e+00 7.254937e-01 7.440021e-01 -5.767378e-01 6.585408e-01 2.515113e+00 1.581893e+00 1.351041e+00 4.994198e-01 -7.916003e-02 2.791192e-01 8.844940e-01 2.178028e+00 1.902645e+00 2.926426e-02 1.056613e-01 3.469212e-01 -6.398963e-01 2.958471e+00 2.324456e+00 -6.663199e-01 2.717777e-01 2.855463e-01 -1.125521e+00 2.728889e+00 2.379858e+00 -1.238774e+00 5.769180e-01 2.218570e-01 -6.173334e-01 1.737952e+00 1.725625e+00 -1.845698e+00 8.759471e-01 6.939224e-02 7.714073e-02 1.850243e-01 -8.475457e-02 1.463376e-01 -7.276797e-02 1.362806e-01 -4.973761e-02 1.468323e-01 -2.875140e-02 1.670393e-01 1.744040e-03 1.908958e-01 
1.153892e-01 1.764975e-01 4.989556e-01 -1.274435e+00 -5.613441e+01 -5.098306e-01 -3.683234e-01 -3.295243e-01 -1.140900e-01 -3.486183e-01 3.326136e-02 -5.247184e-01 3.019026e-01 -6.472429e-01 -6.559012e-01 1.473576e+00 3.397133e+01 3.473201e+01 4.420052e+00 1.510719e+00 -9.815446e-02 -5.454760e+00 2.622238e+01 3.816631e+01 1.039264e+01 3.274734e+00 5.738793e-01 -6.889534e+00 1.666086e+01 3.774172e+01 2.041035e+01 6.676181e+00 6.372623e-01 -3.187595e+00 5.880249e+00 2.913657e+01 3.134433e+01 1.336768e+01 1.191549e+00 -4.163492e-01 -3.198191e-01 1.574668e+01 3.572799e+01 2.229163e+01 2.541225e+00 5.751864e-01 -6.063701e-01 1.233620e+00 3.175533e+01 3.122982e+01 5.186587e+00 1.936059e+00 -6.641208e-01 2.309442e-01 -2.408594e-01 1.410988e-01 -8.502794e-02 1.348672e-01 -2.832140e-02 1.472723e-01 6.083336e-03 1.663608e-01 4.673425e-02 1.877711e-01 
1.301732e-01 1.688268e-01 5.234302e-01 -1.221083e+00 -5.488168e+01 -5.423670e-01 -3.826044e-01 -3.415932e-01 -9.699377e-02 -4.050296e-01 1.504753e-01 -8.218047e-01 8.568358e-01 -2.130350e+00 1.641597e+00 3.464434e+00 4.047960e+01 3.793554e+01 3.437804e+00 -4.366290e-01 9.927403e-01 -4.819170e+00 3.625745e+01 4.761531e+01 9.610220e+00 1.994406e+00 8.724940e-01 -7.580867e+00 2.618804e+01 5.057042e+01 2.339483e+01 6.445419e+00 5.165860e-01 -4.296336e+00 1.206830e+01 4.197065e+01 4.103608e+01 1.572042e+01 3.519587e-01 -1.090680e+00 2.294036e+00 2.547067e+01 5.075578e+01 2.987494e+01 5.234311e-01 4.100151e-01 -4.319372e-01 6.133195e+00 5.010871e+01 4.691367e+01 1.906857e+00 2.548046e+00 -1.215617e+00 3.471229e-01 -3.579990e-01 1.490075e-01 -1.039196e-01 1.297196e-01 -2.595545e-02 1.400771e-01 1.424183e-02 1.588218e-01 5.838055e-02 1.810228e-01 
1.670849e-01 1.529605e-01 5.728523e-01 -1.200003e+00 -5.246722e+01 -4.037841e-01 -3.756696e-01 -2.665427e-01 -1.487131e-01 -2.251286e-01 -3.543229e-03 -2.237184e-01 1.672814e-01 -3.134436e-01 1.320778e+00 -3.616705e+00 -2.378077e+01 -2.199218e+01 6.634584e-01 -1.538509e+00 9.989665e-01 7.385562e-01 -1.725811e+01 -2.176050e+01 -2.916795e+00 -1.752215e+00 3.509729e-01 2.264226e+00 -1.113115e+01 -2.047407e+01 -8.481161e+00 -2.665215e+00 5.609699e-02 1.489655e+00 -5.011531e+00 -1.598802e+01 -1.448977e+01 -5.082912e+00 -1.728755e-01 7.364463e-01 -1.438175e+00 -9.183330e+00 -1.665633e+01 -8.755291e+00 -5.122633e-01 5.740380e-01 -7.816222e-01 -1.965591e+00 -1.433503e+01 -1.210743e+01 -1.002915e+00 9.282379e-02 -2.423613e-02 2.053774e-01 -4.864837e-04 1.473934e-01 6.277722e-03 1.314517e-01 2.315144e-02 1.383287e-01 5.037780e-02 1.544173e-01 9.380530e-02 1.737826e-01 
1.734338e-01 1.421880e-01 5.758402e-01 -1.108523e+00 -5.046027e+01 -4.283586e-01 -3.980311e-01 -2.210830e-01 -2.081669e-01 -7.911391e-02 -2.194799e-01 2.881435e-01 -6.533627e-01 1.069678e+00 -5.420318e-01 -1.964360e+00 -4.420463e+01 -4.385998e+01 -5.010321e+00 -1.032893e+00 -4.578178e-01 6.341562e+00 -3.716497e+01 -5.156364e+01 -1.201449e+01 -3.286488e+00 -8.258342e-01 8.668050e+00 -2.574439e+01 -5.306696e+01 -2.618013e+01 -7.913853e+00 -6.053609e-01 4.509218e+00 -1.109210e+01 -4.268251e+01 -4.339226e+01 -1.758451e+01 -7.661979e-01 1.062170e+00 -1.655022e+00 -2.472250e+01 -5.199787e+01 -3.172573e+01 -1.583484e+00 -2.353352e-01 1.333911e-01 -4.255933e+00 -4.943448e+01 -4.811352e+01 -3.764200e+00 -2.194565e+00 1.118013e+00 -2.984704e-02 2.916425e-01 9.239499e-02 8.458501e-02 1.109700e-01 4.893883e-02 1.254906e-01 6.229382e-02 1.437114e-01 1.017296e-01 1.641279e-01 
1.952308e-01 1.256743e-01 5.977728e-01 -1.076093e+00 -4.750842e+01 -3.090089e-01 -3.851735e-01 -1.909756e-01 -2.482355e-01 -8.769145e-02 -2.584528e-01 1.226560e-01 -4.798782e-01 5.035151e-01 -2.312843e-01 9.546944e-02 -1.266397e+01 -1.076468e+01 -3.660173e+00 -4.925568e-01 -4.453125e-01 2.725042e+00 -1.104753e+01 -1.499256e+01 -5.927385e+00 -1.478853e+00 -6.264649e-01 3.370324e+00 -7.255967e+00 -1.709764e+01 -1.052452e+01 -3.152856e+00 -5.730650e-01 1.372889e+00 -1.935559e+00 -1.469093e+01 -1.608836e+01 -6.448163e+00 -8.309748e-01 -1.774962e-01 1.262880e+00 -8.805019e+00 -1.909816e+01 -1.136893e+01 -1.529481e+00 -8.824081e-01 1.311440e+00 -1.231341e+00 -1.815207e+01 -1.755462e+01 -3.094177e+00 -1.753920e+00 4.672879e-01 -1.909926e-01 1.998192e-01 1.954335e-02 9.227220e-02 8.156497e-02 7.072737e-02 1.110304e-01 8.545489e-02 1.330851e-01 1.247227e-01 1.529947e-01 
1.927020e-01 1.134659e-01 5.828716e-01 -9.887185e-01 -4.492956e+01 -3.198495e-01 -3.887167e-01 -1.719238e-01 -2.614253e-01 -8.269424e-02 -2.614410e-01 3.753195e-04 -2.995376e-01 -7.110748e-02 1.664259e-01 -1.452385e+00 3.124071e-01 2.244866e+00 -1.022779e+00 -1.098622e-02 -9.153831e-02 -1.251634e+00 5.583394e-01 1.593703e+00 -9.987127e-01 1.205103e-01 -1.893893e-01 -9.396490e-01 8.511006e-01 5.081614e-01 -1.016744e+00 5.112234e-01 -1.754412e-01 -6.122167e-01 1.159485e+00 -8.813398e-01 -1.024116e+00 1.128537e+00 -2.047726e-01 -3.940213e-01 1.187643e+00 -1.635160e+00 -9.386286e-01 1.555995e+00 -3.629485e-01 -3.706976e-01 8.746646e-01 -1.758274e+00 -5.691650e-01 1.636110e+00 -5.467598e-01 -2.470264e-01 7.236493e-02 -1.436810e-01 1.265692e-01 -4.153490e-03 9.092674e-02 6.146581e-02 7.703535e-02 9.599203e-02 8.961261e-02 1.204512e-01 1.257482e-01 1.413585e-01 
2.013202e-01 9.803737e-02 5.793177e-01 -9.397360e-01 -4.159115e+01 -2.328221e-01 -3.593597e-01 -1.567795e-01 -2.567660e-01 -9.443399e-02 -2.297464e-01 -5.098385e-02 -1.977602e-01 -1.303159e-01 1.176214e-01 -8.346044e-01 4.055715e-01 5.418676e-01 -5.472928e-01 5.753362e-03 -5.165602e-02 -7.270109e-01 6.210025e-01 4.767941e-01 -5.699269e-01 6.734127e-02 -8.920908e-02 -5.893846e-01 7.375944e-01 2.903144e-01 -6.202025e-01 2.364304e-01 -7.979907e-02 -3.455909e-01 6.858492e-01 -9.959826e-02 -6.013160e-01 4.749666e-01 -1.038963e-01 -1.689195e-01 5.738813e-01 -4.744794e-01 -3.720865e-01 6.808773e-01 -1.958031e-01 -1.293855e-01 4.025130e-01 -7.885741e-01 9.513352e-02 8.773178e-01 -3.402743e-01 2.637826e-02 2.084166e-02 -5.461855e-02 8.365617e-02 4.025847e-03 8.048190e-02 5.275232e-02 8.174579e-02 8.523610e-02 9.959895e-02 1.092273e-01 1.364870e-01 1.287441e-01 
1.905484e-01 8.673880e-02 5.487439e-01 -8.585457e-01 -3.856588e+01 -2.357243e-01 -3.421866e-01 -1.515131e-01 -2.369353e-01 -1.047448e-01 -1.923408e-01 -9.456175e-02 -1.175171e-01 -1.664236e-01 9.975495e-02 -3.968661e-01 9.750896e-02 2.071375e-01 -2.503589e-01 -1.204101e-02 2.051355e-03 -3.084311e-01 2.135191e-01 1.769175e-01 -2.613615e-01 2.328877e-02 -1.090127e-02 -2.523284e-01 2.995343e-01 1.015322e-01 -2.929833e-01 1.080224e-01 -1.258172e-02 -1.578968e-01 3.144414e-01 -5.335563e-02 -3.086007e-01 2.090663e-01 -2.426554e-02 -7.715264e-02 2.930569e-01 -1.907889e-01 -2.244454e-01 2.903393e-01 -6.258132e-02 -5.629653e-02 2.419299e-01 -3.018211e-01 -2.788282e-02 4.101275e-01 -1.526190e-01 9.897701e-02 -1.231752e-02 7.209875e-04 5.033386e-02 1.567528e-02 6.644925e-02 4.797987e-02 7.595358e-02 7.563062e-02 9.509292e-02 9.818410e-02 1.299514e-01 1.171274e-01 
1.882415e-01 7.370667e-02 5.233353e-01 -7.916886e-01 -3.492877e+01 -1.760550e-01 -3.052256e-01 -1.391900e-01 -2.172901e-01 -1.044425e-01 -1.680511e-01 -9.777476e-02 -1.014778e-01 -1.397371e-01 2.638213e-02 -2.387462e-01 1.715903e-02 5.649093e-02 -1.284833e-01 -2.322489e-02 -8.051153e-03 -1.605236e-01 8.011721e-02 5.531151e-02 -1.255294e-01 8.277683e-03 -6.422425e-03 -1.211626e-01 1.292230e-01 2.033023e-02 -1.336476e-01 5.935409e-02 -4.337655e-03 -7.019794e-02 1.411718e-01 -5.149176e-02 -1.374099e-01 1.116578e-01 -1.064288e-02 -2.649852e-02 1.350827e-01 -1.043760e-01 -9.720842e-02 1.480217e-01 -2.831708e-02 -9.397373e-03 1.145937e-01 -1.279364e-01 -1.114396e-02 2.122715e-01 -7.841138e-02 9.625588e-02 -2.347006e-03 2.891234e-02 4.080775e-02 2.894200e-02 5.931565e-02 4.872178e-02 7.393724e-02 6.983793e-02 9.586437e-02 8.871688e-02 1.306603e-01 1.048383e-01 
1.708317e-01 6.439004e-02 4.794082e-01 -7.109061e-01 -3.154063e+01 -1.736756e-01 -2.772298e-01 -1.339061e-01 -1.896243e-01 -1.042584e-01 -1.395010e-01 -9.882703e-02 -7.996142e-02 -1.175601e-01 -3.501029e-03 -1.446266e-01 -1.728569e-02 -1.765059e-02 -6.431361e-02 -3.198226e-02 -7.461761e-03 -8.128728e-02 1.771812e-02 7.660484e-04 -5.575462e-02 -7.955046e-03 7.583875e-05 -5.681159e-02 4.628552e-02 -2.749979e-03 -5.784470e-02 1.973456e-02 2.799295e-03 -3.230107e-02 5.827652e-02 -2.395765e-02 -6.425232e-02 4.470780e-02 1.127680e-03 -9.746685e-03 6.300062e-02 -3.776516e-02 -5.020120e-02 6.299426e-02 -3.352058e-03 3.762262e-03 6.123249e-02 -3.365831e-02 -1.973856e-02 1.111274e-01 -3.497247e-02 7.525100e-02 2.303934e-04 3.876946e-02 2.948507e-02 3.531454e-02 4.772802e-02 4.750520e-02 6.387480e-02 6.352852e-02 8.563919e-02 7.949805e-02 1.180802e-01 9.397954e-02 
1.598362e-01 5.376273e-02 4.373258e-01 -6.326474e-01 -2.766868e+01 -1.303255e-01 -2.378737e-01 -1.213578e-01 -1.661567e-01 -9.696564e-02 -1.220124e-01 -8.689604e-02 -8.143153e-02 -8.599456e-02 -4.368232e-02 -8.841366e-02 -2.574514e-02 -5.961120e-02 -2.907701e-02 -4.055487e-02 -1.748225e-02 -4.056453e-02 -9.061006e-03 -2.670817e-02 -1.407571e-02 -1.865997e-02 -5.243177e-03 -2.193114e-02 1.644376e-03 -1.148021e-02 -8.326548e-03 -4.936294e-03 7.383122e-04 -9.943432e-03 7.069943e-03 -4.556572e-03 -1.050053e-02 5.617165e-03 3.519102e-03 4.125347e-04 1.224784e-02 1.956239e-03 -1.150023e-02 1.764716e-02 5.764911e-03 1.281065e-02 1.497321e-02 1.767579e-02 -1.430256e-02 5.043358e-02 -2.111077e-03 4.692897e-02 1.393360e-02 4.014366e-02 2.824858e-02 4.113403e-02 4.188676e-02 4.860480e-02 5.804984e-02 5.928539e-02 8.008993e-02 7.105925e-02 1.111852e-01 8.226081e-02 
1.376608e-01 4.591169e-02 3.832835e-01 -5.510290e-01 -2.398636e+01 -1.221134e-01 -2.040417e-01 -1.129974e-01 -1.372232e-01 -9.004850e-02 -9.929287e-02 -7.542742e-02 -7.328221e-02 -5.975335e-02 -6.122413e-02 -4.909790e-02 -1.832740e-02 -8.645293e-02 -5.800759e-03 -3.820203e-02 -2.200766e-02 -8.886059e-03 -2.064670e-02 -4.629374e-02 1.273509e-02 -2.180925e-02 -7.553084e-03 3.177764e-03 -2.495182e-02 -1.863113e-02 2.261668e-02 -1.930328e-02 -3.081192e-04 4.352636e-03 -2.490597e-02 7.900684e-03 2.155035e-02 -1.922829e-02 5.847211e-03 5.534952e-03 -1.815858e-02 2.864974e-02 9.196377e-03 -1.216745e-02 1.346381e-02 1.534848e-02 -1.004618e-02 5.009821e-02 -1.758260e-02 1.232953e-02 1.692552e-02 2.483607e-02 1.944115e-02 3.709234e-02 2.236834e-02 4.177438e-02 3.145602e-02 4.646676e-02 4.607995e-02 5.353621e-02 6.651448e-02 6.244748e-02 9.454593e-02 7.170925e-02 
1.201086e-01 3.659312e-02 3.301809e-01 -4.696987e-01 -1.993720e+01 -8.509298e-02 -1.624740e-01 -1.006693e-01 -1.100695e-01 -8.401048e-02 -7.639683e-02 -6.544017e-02 -6.528150e-02 -2.340351e-02 -1.033070e-01 3.856338e-02 -3.940870e-02 -1.735188e-01 5.831054e-02 -4.035300e-02 -2.973757e-02 6.876233e-02 -7.944737e-02 -1.039127e-01 8.488950e-02 -3.698362e-02 -6.369399e-03 6.388970e-02 -1.059898e-01 -3.482478e-02 9.997630e-02 -6.190642e-02 5.770295e-03 3.884496e-02 -1.049412e-01 4.693544e-02 8.857316e-02 -9.099707e-02 2.108457e-02 1.878868e-02 -8.363353e-02 1.045898e-01 3.867358e-02 -9.838286e-02 4.639431e-02 2.306250e-02 -5.465009e-02 1.439178e-01 -5.135167e-02 -7.917937e-02 7.328030e-02 -4.498897e-03 3.407641e-02 4.119514e-02 1.681239e-02 4.711045e-02 2.169063e-02 4.642709e-02 3.642430e-02 4.856815e-02 5.647846e-02 5.369366e-02 8.222717e-02 5.998479e-02 
9.503569e-02 2.891745e-02 2.697878e-01 -3.886614e-01 -1.602462e+01 -6.934261e-02 -1.239918e-01 -8.983657e-02 -7.914320e-02 -7.729190e-02 -5.038539e-02 -5.645984e-02 -5.262121e-02 6.568829e-03 -1.357050e-01 1.184555e-01 -3.600260e-02 -2.580512e-01 1.052577e-01 -2.108513e-02 -3.910970e-02 1.531926e-01 -1.237083e-01 -1.776931e-01 1.438950e-01 -3.074681e-02 -6.235181e-03 1.315624e-01 -1.773365e-01 -8.314558e-02 1.718660e-01 -7.603342e-02 9.109763e-03 7.778930e-02 -1.794999e-01 4.557081e-02 1.586802e-01 -1.308970e-01 3.099395e-02 3.660390e-02 -1.444881e-01 1.492815e-01 7.340765e-02 -1.607185e-01 7.053548e-02 3.365826e-02 -9.110103e-02 2.224188e-01 -8.164543e-02 -1.584958e-01 1.160323e-01 -1.565646e-02 3.869461e-02 4.457577e-02 6.869929e-03 4.795503e-02 8.975507e-03 4.306397e-02 2.300205e-02 4.185026e-02 4.129475e-02 4.445012e-02 6.344903e-02 4.889957e-02 
7.307353e-02 1.959755e-02 2.105878e-01 -3.085451e-01 -1.185361e+01 -3.203552e-02 -8.084757e-02 -7.711897e-02 -4.945375e-02 -8.164882e-02 -1.277904e-02 -7.896007e-02 2.495057e-03 2.162250e-02 -1.901705e-01 5.145926e-01 -2.258737e-01 -7.082791e-01 4.021693e-01 2.013026e-02 -1.873652e-02 5.359185e-01 -4.570277e-01 -5.122236e-01 4.631702e-01 -5.361900e-02 5.124355e-02 4.227278e-01 -5.564858e-01 -2.196332e-01 4.872361e-01 -2.125557e-01 7.131944e-02 2.392441e-01 -5.057563e-01 1.819825e-01 3.862496e-01 -4.237959e-01 1.263510e-01 1.126925e-01 -3.650926e-01 4.792960e-01 1.201530e-01 -5.697698e-01 2.490007e-01 8.315339e-02 -1.782498e-01 6.635936e-01 -2.950931e-01 -5.990699e-01 3.650706e-01 2.861187e-02 2.731881e-02 8.375480e-02 -2.438850e-02 5.619345e-02 -9.773449e-03 3.970167e-02 1.047613e-02 3.417370e-02 2.904986e-02 3.422429e-02 4.799000e-02 3.654178e-02 
4.694387e-02 1.097992e-02 1.473945e-01 -2.284382e-01 -7.771753e+00 -7.041639e-03 -3.947165e-02 -6.264420e-02 -1.783865e-02 -7.939131e-02 2.289181e-02 -9.518197e-02 5.014107e-02 1.532304e-02 -2.557606e-01 5.141770e-01 7.605140e-01 -6.622423e-02 6.745707e-01 1.461772e-01 -3.308893e-02 3.827393e-01 2.771768e-01 3.104375e-01 8.771895e-01 8.698486e-02 8.092372e-02 2.562834e-01 -1.632982e-01 7.968362e-01 1.146435e+00 -3.904557e-02 1.111014e-01 2.103993e-01 -5.198293e-01 1.157967e+00 1.363441e+00 -1.649083e-01 1.915202e-01 1.690797e-01 -5.508300e-01 1.063453e+00 1.319866e+00 -1.138668e-01 3.778131e-01 1.723699e-01 -3.007193e-01 7.305695e-01 8.720870e-01 7.699188e-02 6.234354e-01 1.675790e-01 -6.439162e-03 1.105580e-01 -5.239415e-02 5.616214e-02 -2.599754e-02 3.271501e-02 -2.533377e-03 2.485459e-02 1.441416e-02 2.336866e-02 2.902154e-02 2.429880e-02 
2.275048e-02 1.071806e-03 8.525001e-02 -1.445206e-01 -3.536733e+00 3.128768e-02 6.532393e-04 -3.963934e-02 2.141939e-03 -8.499403e-02 5.385787e-02 -2.188924e-01 2.122281e-01 -4.406829e-01 1.565288e-01 -1.975869e+00 1.337630e+01 1.746428e+01 4.043935e+00 9.991810e-01 3.006916e-01 -3.496952e+00 9.864255e+00 1.840048e+01 7.143278e+00 2.044849e+00 5.014657e-01 -3.195420e+00 5.652228e+00 1.707690e+01 1.207428e+01 4.415368e+00 4.880619e-01 -1.289862e+00 1.442346e+00 1.204401e+01 1.695986e+01 8.697292e+00 8.169045e-01 1.665646e-02 -5.070863e-01 5.010387e+00 1.819452e+01 1.416165e+01 1.687007e+00 4.899408e-01 -2.737340e-01 -1.225529e+00 1.527243e+01 1.871628e+01 3.684545e+00 1.486290e+00 -4.145052e-01 1.340207e-01 -1.484285e-01 3.743702e-02 -4.415155e-02 1.828949e-02 -1.032522e-02 1.292587e-02 3.923415e-03 1.139050e-02 1.287717e-02 1.120818e-02 
-2.746429e-03 -8.652069e-03 2.203641e-02 -6.240192e-02 6.528411e-01 6.592754e-02 4.070221e-02 -1.471134e-02 2.332499e-02 -7.221789e-02 7.472964e-02 -2.538637e-01 2.978893e-01 -6.687634e-01 3.384992e-01 -2.090044e+00 1.950319e+01 2.472820e+01 4.415590e+00 1.035201e+00 3.269771e-01 -4.361404e+00 1.484649e+01 2.597819e+01 8.693846e+00 2.405851e+00 5.171401e-01 -4.191682e+00 9.043674e+00 2.404424e+01 1.572541e+01 5.593355e+00 4.581217e-01 -1.913999e+00 3.064990e+00 1.716049e+01 2.293813e+01 1.145893e+01 6.826366e-01 -2.489912e-01 1.703048e-02 7.552375e+00 2.508700e+01 1.909211e+01 1.466477e+00 3.591758e-01 -1.561227e-01 -9.499932e-01 2.169790e+01 2.559546e+01 3.671880e+00 1.657798e+00 -5.668804e-01 1.071731e-01 -1.775968e-01 1.285743e-02 -5.059212e-02 2.506111e-03 -1.705716e-02 2.321343e-04 -7.508164e-03 -1.047065e-03 -4.562704e-03 -2.062975e-03 
-2.756717e-02 -1.867436e-02 -4.144829e-02 3.406836e-02 4.876215e+00 9.865388e-02 7.635253e-02 3.947482e-02 2.451039e-02 4.409615e-02 -6.716464e-03 1.125706e-01 -1.065318e-01 3.035413e-01 -1.650754e-01 5.832781e-01 -6.681336e+00 -8.113842e+00 -1.346908e+00 -2.204358e-01 -1.429248e-01 1.446513e+00 -5.352881e+00 -8.930697e+00 -2.806463e+00 -7.019998e-01 -1.858648e-01 1.471249e+00 -3.432221e+00 -8.610498e+00 -5.372991e+00 -1.810100e+00 -1.556549e-01 7.189627e-01 -1.274464e+00 -6.434602e+00 -8.206281e+00 -3.932956e+00 -1.923474e-01 1.135086e-01 -6.810379e-02 -3.054953e+00 -9.350823e+00 -6.873507e+00 -3.913687e-01 -1.409214e-01 1.001912e-01 1.204996e-01 -8.433755e+00 -9.577490e+00 -1.145718e+00 -6.388522e-01 2.049528e-01 -5.928810e-02 5.889487e-02 -1.344370e-02 8.938277e-03 -9.752408e-03 -6.419229e-03 -1.114272e-02 -1.376894e-02 -1.316954e-02 -2.025752e-02 -1.529924e-02 