# vtk DataFile Version 2.0
Comment goes here
ASCII

DATASET STRUCTURED_POINTS
FIELD FieldData 1
TIME 1 1 double
0.09000000
DIMENSIONS    64   64   1

ORIGIN    0.000   0.000   0.000
SPACING   0.03125 0.03125   1.000

POINT_DATA   4096
SCALARS Omega double
LOOKUP_TABLE default

6.587721e+02 -9.952194e+00 -1.218309e+02 2.232593e+01 -2.528670e+02 -2.103327e+00 -3.127116e+02 3.684473e+02 -1.541132e+02 4.081345e+02 -1.828421e+02 5.687713e+01 -2.785161e+02 4.541764e+01 -1.959310e+02 1.329990e+02 -6.718726e+00 2.698965e+01 8.257675e+01 -1.066334e+02 3.838537e+01 -3.315651e+02 1.233244e+02 2.653528e+02 -2.814809e+01 -4.878536e+02 -3.347120e+02 1.161574e+03 1.417789e+02 -4.960468e+02 1.970771e+02 -2.121492e+02 -7.896522e+01 3.312466e+01 -1.889750e+02 8.943558e+01 1.677003e+02 8.651563e+01 6.568455e+00 8.735854e+01 5.668458e+01 2.284479e+01 1.462249e+02 -7.452373e+01 8.199956e+01 2.949105e+02 5.964558e+01 -6.362715e+01 6.370993e+01 -1.360204e+01 9.949668e+01 -2.189286e+02 1.515889e+02 -3.076503e+01 2.082089e+02 -3.071835e+02 1.179468e+02 -3.146044e+02 -5.216652e+01 -1.841376e+02 -2.184266e+02 4.398553e+01 -4.486796e+02 -3.392140e+02 
5.706397e+02 2.791664e+02 -9.827951e+01 3.345275e+02 -1.321747e+01 2.590289e+02 -8.071599e+00 9.781061e+01 1.295501e+02 2.734902e+01 2.532309e+02 -2.272611e+02 8.923224e+00 -1.319282e+02 1.224303e+02 -9.499221e+01 -9.248156e+01 6.670464e+01 -4.723902e+01 1.338655e+02 -7.400463e+00 2.230946e+01 1.443364e+02 1.983549e+02 2.286696e+02 2.129367e+02 4.749454e+02 -1.223689e+03 6.560585e+02 8.753552e+01 -8.751585e+01 6.265404e+02 -3.424678e+02 8.792515e+01 -3.846824e+02 6.789963e+01 -1.692461e+02 -2.503314e+02 -3.884928e+02 8.826063e+01 -1.553114e+02 -2.434748e+02 -1.762490e+02 -5.973321e+01 -4.375910e+02 -9.033606e+00 3.548058e+01 6.449451e+01 -2.764643e+01 -1.090182e+01 -8.332689e+00 -3.521671e+01 -9.957262e+01 1.156180e+02 1.339009e+02 8.826302e+01 -2.673100e+01 -4.457229e+01 2.781574e+01 1.353964e+02 3.997608e+02 -6.307902e+01 3.336732e+02 -2.378161e+02 
-1.834134e+02 4.597753e+02 9.780318e+02 1.708800e+01 1.752708e+02 1.943502e+02 1.848581e+02 -4.053110e+02 1.828264e+02 -4.052527e+02 4.591503e+01 -3.977420e+02 7.149557e+01 -3.254370e+02 1.848525e+01 -2.895642e+02 -2.157273e+02 -1.615019e+02 -2.861804e+02 1.019129e+02 2.861900e+01 4.398136e+02 -5.176576e+01 5.099627e+02 1.727812e+03 1.909906e+03 8.260193e+02 -1.841459e+03 1.093504e+03 1.508614e+03 -7.137276e+00 1.696557e+02 -4.322827e+02 1.806977e+02 -2.195691e+02 -2.858542e+02 -4.883954e+02 -3.362519e+02 -6.323003e+02 -3.189975e+02 -2.247470e+02 -2.626887e+02 -4.996896e+02 -3.120369e+02 -6.105751e+02 -4.029243e+02 -4.293182e+02 -1.464849e+02 -2.449351e+02 -1.778258e+02 -3.406706e+02 3.996577e+01 -2.869737e+02 5.082335e+01 7.260728e+01 5.133028e+02 3.157590e+02 6.152745e+02 7.016615e+02 7.996420e+02 1.053009e+03 9.065885e+02 1.508113e+03 1.929760e+02 
7.757101e+01 2.036402e+02 4.301288e+02 -5.747864e+01 -4.685091e+01 -1.581113e+02 3.590180e+01 -2.260992e+02 7.140776e+00 -2.174223e+02 -7.116054e+01 -1.792911e+02 -9.363520e+00 -1.581600e+02 -3.967883e+01 -1.251336e+02 -7.521757e+01 -9.362352e+01 -1.099970e+02 6.735947e+01 4.232666e+01 3.568914e+02 1.059133e+02 5.153222e+02 -3.855415e+02 -1.718378e+03 8.334915e+02 5.627584e+03 -4.549237e+01 -6.567102e+02 8.171855e+01 -9.235647e+01 -1.431119e+02 6.656273e+01 -6.309678e+01 -1.331223e+02 -1.886591e+02 -1.004867e+02 -2.240836e+02 -1.711885e+02 -9.026442e+01 -9.573032e+01 -2.045825e+02 -1.421052e+02 -2.122811e+02 -1.647565e+02 -2.109643e+02 -9.803938e+01 -1.116397e+02 -7.623614e+01 -1.445042e+02 -1.985376e+00 -8.227315e+01 -3.691482e-01 5.607908e+01 1.951885e+02 1.762723e+02 2.738042e+02 3.157785e+02 3.477360e+02 4.734968e+02 5.285252e+02 4.619185e+02 9.243173e+01 
7.541786e+01 -2.688588e+01 -4.222815e+01 2.228934e+02 2.763052e+02 -2.475802e+02 -1.559303e+01 9.361241e+00 7.154235e+00 2.177298e+00 9.557459e+00 -5.622566e+00 6.068068e+00 -6.030426e+00 4.737133e+00 -3.174206e+00 -4.314922e+00 1.967227e+01 -1.073241e+01 8.635743e+01 -1.256875e+01 2.626904e+02 -4.041229e+02 -9.804534e+02 -2.919218e+03 -7.396118e+02 2.085866e+03 3.987598e+03 -5.269990e+03 -3.826516e+03 1.446845e+00 -7.161830e+00 1.908349e+01 -5.518953e+00 2.924768e+00 1.087540e+00 2.342728e+00 3.404204e+00 5.286810e-01 3.067682e+00 -1.162188e+00 4.666287e+00 -1.815275e+00 3.138813e+00 -3.126764e+00 -1.014301e+00 -5.341398e+00 -3.046652e+00 -3.248266e+00 -5.005169e+00 3.616024e+00 -7.790759e+00 9.257791e+00 -5.289239e+00 1.453227e+01 -2.292737e+00 1.370382e+01 1.547905e+00 -3.241028e+00 1.766569e+01 -2.187955e+01 1.560063e-01 -3.010589e+00 6.591649e+01 
-2.158676e+01 -1.235676e+01 -4.113165e+01 3.212289e+02 3.706003e+02 -3.512120e+02 -3.887397e+01 9.690665e+00 2.310269e+00 1.385571e+01 1.120892e+00 9.753039e+00 -2.993034e-01 5.780247e+00 -1.888967e+00 2.617072e+00 -4.583796e+00 6.906102e-02 -4.592369e+00 8.847534e+00 -1.349077e+00 -1.549958e+01 -2.029873e+02 -3.059409e+02 -2.131906e+03 -1.709052e+03 -2.487893e+03 -1.774674e+03 9.430919e+02 7.188731e+02 3.180561e+02 1.157229e+02 4.787595e+00 -1.842566e-01 -7.877799e-01 -6.928625e+00 -5.776393e-01 -8.053894e+00 -2.247849e+00 -8.534940e+00 -5.295719e+00 -6.582906e+00 -2.965592e+00 -5.049829e+00 -1.760005e+00 -8.032961e-01 4.384963e-01 -1.304764e+00 4.508505e+00 -1.719406e+00 7.504485e+00 -2.168185e+00 5.893702e+00 -3.294355e+00 2.973187e+00 -2.398917e-01 -5.043306e+00 1.308355e+01 -2.309449e+01 1.331316e+01 -3.535570e+01 -5.887435e+00 -1.616020e+01 -2.616675e+01 
2.896026e+01 -1.233194e+01 -5.278482e+01 4.327929e+02 6.450749e+02 -4.501568e+02 -4.107908e+01 1.520767e+01 -2.463626e+00 1.601123e+01 1.556156e-01 1.046355e+01 2.128183e+00 5.542594e+00 4.362576e+00 6.871997e-01 5.827343e+00 -1.746945e+00 1.159546e+01 2.255749e+01 1.922155e+00 1.498084e+02 8.984041e+01 -2.732242e+02 -1.055573e+03 -1.552021e+03 -1.264358e+03 -3.111313e+03 3.058593e+03 2.565089e+03 -7.778630e+02 1.711776e+02 4.947699e+01 3.141172e-01 1.562885e+00 6.202081e+00 7.473824e+00 1.190165e+01 1.057537e+01 1.296912e+01 1.463971e+01 1.381376e+01 1.031878e+01 6.013020e+00 -1.307098e+00 -1.773246e+00 -6.877324e+00 -7.877282e+00 -4.445616e+00 -8.160729e+00 1.495470e+00 -7.543997e+00 5.267247e+00 -6.764665e+00 2.930775e+00 -9.561908e+00 -3.728322e+00 2.431238e+00 -1.308500e+01 8.460859e+01 2.619244e+00 1.523403e+01 -5.091580e-02 1.525676e+01 
2.350483e+00 -3.198604e+01 -1.059336e+02 5.639807e+02 8.246315e+02 -5.739149e+02 -8.529375e+01 1.085330e+01 1.055240e+00 1.026108e+01 1.504416e+00 5.739183e+00 1.161470e+00 1.360113e+00 -5.185998e-01 -4.775796e+00 -7.018387e+00 -1.227152e+01 -2.588620e+01 -2.701338e+01 3.417277e+01 8.046614e+01 -3.237840e+02 1.467618e+02 7.248230e+02 -2.354927e+03 -2.576208e+03 -2.165883e+03 -8.212467e+02 -9.737708e+02 -1.874091e+03 -9.560577e+01 -5.922572e+01 -3.282696e+01 -7.289171e+00 -2.185689e+01 -7.656767e+00 -1.723526e+01 -8.727463e+00 -1.832705e+01 -1.670338e+01 -2.269990e+01 -1.459979e+01 -9.530865e+00 -3.269629e+00 -1.982581e-01 5.721635e+00 2.903250e+00 7.817077e+00 3.943976e+00 1.432183e+01 1.024921e+00 1.115204e+01 1.014422e+00 2.451422e+01 1.790847e+01 -1.036674e+00 -8.637225e+01 -1.916552e+02 -1.924090e+01 -4.512908e+01 9.368682e+01 -9.627538e+01 7.567304e+00 
-5.023219e+00 -2.606806e+01 -1.154361e+02 7.230507e+02 1.106346e+03 -7.145074e+02 -9.103198e+01 2.538810e+01 -7.854630e+00 1.667506e+01 -2.988765e+00 6.933953e+00 1.890283e+00 1.049020e+00 6.826413e+00 -8.216566e+00 1.557532e+01 -3.974968e+01 2.611351e+01 -8.578507e+01 -6.092804e+01 2.242048e+00 8.007744e+02 2.313536e+02 2.698019e+02 7.870493e+02 -5.623915e+02 -2.884975e+03 -4.820651e+03 -3.106679e+03 -1.566556e+03 -1.014749e+03 -4.584345e+02 -8.801986e+01 3.774765e+00 4.398589e+01 3.263508e+01 2.863859e+01 2.043265e+01 3.442428e+01 4.911053e+01 5.255168e+01 3.609778e+01 8.747738e+00 -6.624768e+00 -8.582014e+00 -2.409797e+01 -2.197615e+01 -9.467444e+00 -1.694690e+01 -8.360322e-01 -1.297813e+01 7.391922e+00 -1.743857e+01 -3.104366e+01 -7.547763e+01 8.175357e+01 5.617936e+02 7.966171e+02 -4.228643e+01 -8.767626e+01 3.586497e+02 -3.475824e+02 -4.250732e+01 
-4.544434e+02 1.402754e+01 -2.102554e+02 8.570046e+02 1.357030e+03 -8.394640e+02 -1.676888e+02 7.156468e+00 1.690172e+00 7.382161e+00 -9.439975e-01 6.644588e-01 -7.652771e-01 -1.755601e+00 -3.318425e-01 -4.049615e+00 -3.873418e+00 -2.064519e+01 -3.057076e+01 -1.022342e+02 -8.392734e+01 -4.972789e+02 -6.064333e+02 -1.917310e+03 -1.623941e+03 3.602124e+03 1.471374e+03 -1.664831e+03 -1.312911e+03 -2.485831e+03 -1.640209e+03 -1.669008e+03 -1.342559e+03 -9.050906e+02 -3.222948e+02 -1.533163e+02 -5.153629e+01 -2.911039e+01 -7.693007e+00 -1.922575e+01 -5.428318e+01 -9.083559e+01 -7.443670e+01 -3.046628e+01 -1.258099e+01 -6.255255e+00 2.674089e+01 1.418432e+01 8.992298e+00 7.869286e+00 3.347156e+01 1.311525e+01 1.160449e+01 -9.654886e+00 6.559557e+01 3.379995e+01 9.591981e+00 -4.975679e+02 -1.261312e+03 -2.176449e+03 -5.888049e+02 -6.382708e+01 -1.066786e+03 -1.219371e+03 
-1.706089e+03 -5.172265e+01 -2.420685e+02 1.011377e+03 1.572030e+03 -1.017233e+03 -1.790184e+02 3.885497e+01 -1.651842e+01 2.156420e+01 -7.155554e+00 4.942121e+00 -2.007692e+00 2.389076e+00 2.914119e+00 -1.519502e+00 -3.450206e+00 4.891814e+01 1.467275e+01 -3.498947e+02 -2.086091e+02 -5.350022e+02 3.132238e+02 -4.349862e+03 -4.951020e+03 9.429139e+02 4.456684e+03 9.622681e+02 -6.004084e+02 -1.246800e+03 7.139730e+02 1.205777e+03 1.340336e+01 -1.030973e+03 -4.946941e+02 -1.800910e+02 2.712996e+01 -2.766569e+01 -1.843715e+01 3.067927e+01 1.169048e+02 1.098663e+02 6.535250e+01 -1.514759e+01 -9.749907e+00 -2.510710e+01 -6.576302e+01 -6.445121e+01 7.076425e+00 -1.487096e+01 -7.210707e+00 -4.591705e+01 -3.600169e+01 -2.355932e+00 3.102977e+01 -1.219654e+01 -1.133288e+02 -1.321002e+03 -4.285157e+03 -6.344540e+03 -4.159403e+03 -2.549785e+03 -2.815705e+03 -4.004158e+03 
-2.943374e+03 -6.562137e+02 -4.159182e+02 1.047291e+03 1.752644e+03 -1.094408e+03 -2.787915e+02 -2.764204e+01 -1.038964e+00 1.762589e+00 -9.280139e+00 -4.708560e+00 -5.915580e+00 -1.020916e+00 -1.741972e+01 3.741606e+01 -3.132351e+01 -1.353639e+01 -7.357196e+01 1.232851e+03 -2.754633e+02 -2.141058e+03 3.495938e+03 -2.587023e+02 -4.397005e+03 -2.029837e+03 4.655193e+03 1.276911e+03 -1.661355e+03 7.445427e+02 1.568421e+03 2.614179e+03 2.766200e+03 1.120597e+03 4.361003e+02 1.379161e+02 1.644356e+02 1.026664e+02 1.654074e+01 9.814016e+01 2.323767e+02 3.203412e+02 1.722094e+02 2.078694e+01 -4.582520e+01 -1.040639e+02 7.759345e+01 9.845318e+01 8.408334e+00 -7.270653e+01 7.167351e+01 1.659758e+02 3.969439e+02 2.518984e+02 -3.756980e+00 -1.103720e+02 1.379667e+01 -1.065587e+03 -3.868035e+03 -5.858190e+03 -4.809796e+03 -3.980554e+03 -4.838562e+03 -5.001610e+03 
-3.816145e+03 -2.012051e+03 -9.836403e+02 4.762402e+02 1.502676e+03 -1.273690e+03 -2.746660e+02 8.398631e+01 -2.286329e+01 2.293162e+01 -9.060445e+00 4.737367e+00 -8.179254e+00 2.693936e-01 3.107599e+01 -6.264220e+01 5.535261e+01 4.743106e+01 -8.162115e+02 1.053202e+02 6.038518e+01 1.527650e+03 2.453085e+03 -5.790466e+02 -9.721807e+02 2.052654e+03 5.492436e+03 -2.614329e+03 -4.501866e+03 2.117425e+03 3.598573e+03 3.477686e+03 3.753615e+03 2.262311e+03 9.478252e+02 1.051333e+02 -9.776143e+01 -1.026763e+02 -3.921691e+01 7.759700e+01 -1.712272e+02 -8.487268e+02 -1.336543e+03 -3.814722e+02 2.526188e+01 -1.174820e+02 -4.044904e+02 -3.560520e+00 4.696887e+01 1.966405e+02 2.696412e+02 -2.879417e+02 -1.417326e+03 -1.708013e+03 -1.615439e+02 -1.792216e+02 5.030979e+02 -4.343493e+02 -2.723621e+03 -3.477243e+03 -1.906481e+03 -1.806336e+03 -4.923002e+03 -4.357185e+03 
-7.793074e+03 -4.852711e+03 1.345743e+03 1.549905e+03 1.499307e+03 -1.752551e+03 -5.020218e+02 -1.190997e+02 -6.169476e+01 -9.693622e+00 -4.040733e+01 -1.068143e+01 -2.770135e+01 2.107312e+01 -8.010186e+01 6.904264e+01 -8.064241e+01 -1.473301e+01 2.408646e+02 -8.442778e+02 1.100580e+03 -2.476696e+02 1.158096e+03 8.215182e+02 -1.820938e+03 -2.371606e+03 6.750282e+02 1.174791e+02 -2.101050e+03 2.647992e+02 2.566522e+03 1.098026e+03 1.830613e+03 1.025286e+03 -6.652690e+01 -1.744083e+02 -1.436332e+02 9.150638e+01 -1.239077e+02 -5.112608e+02 -6.931041e+02 -4.184243e+02 8.149537e+02 7.222256e+02 -2.483302e+01 -5.928480e+02 -7.449110e+02 9.190018e+02 -7.998435e+02 -1.001468e+03 1.391407e+03 1.895649e+03 2.099672e+03 1.979749e+03 3.918401e+01 1.712239e+01 6.027741e+02 4.940577e+02 1.337727e+02 -1.101353e+03 -1.516444e+03 -2.800737e+03 -5.628737e+03 -5.521513e+03 
-9.503349e+03 -1.117603e+04 -1.097671e+02 3.504832e+03 -2.844187e+02 -1.886720e+02 -1.292101e+03 -8.804691e+01 -9.043861e+00 -1.240174e+00 1.688166e+01 -8.652435e+00 1.785483e+01 -1.994089e+01 -9.261126e+01 3.807575e+02 -3.002227e+02 -1.404286e+03 1.135653e+03 1.903896e+03 1.318263e+02 -2.443807e+03 -2.946612e+03 -2.841029e+02 7.685947e+02 -2.900017e+03 -3.645035e+03 3.339654e+03 1.868118e+03 -2.096162e+03 1.619090e+01 7.922750e+02 -3.398426e+02 -7.037365e+02 -3.558716e+02 4.130464e+02 2.759456e+02 -7.187246e+02 4.890269e+02 1.538165e+03 2.571060e+02 1.519721e+03 2.534083e+03 -9.834966e+02 -1.745852e+03 -2.445366e+03 -2.494177e+03 -6.061268e+02 -1.899857e+03 -4.474082e+02 8.417378e+02 6.290854e+02 2.278284e+03 1.010170e+03 -3.782693e+03 -5.271766e+02 -1.199414e+02 -3.044709e+03 -3.587058e+03 -3.068319e+03 -1.477652e+03 -2.184979e+03 -5.116161e+03 -4.533448e+03 
-2.577856e+03 -1.780315e+03 -8.095866e+03 -1.555326e+04 -1.433386e+03 -7.106011e+03 -7.247183e+03 -2.004253e+03 -1.201035e+03 -2.690407e+02 -1.585392e+02 -1.300368e+01 -9.105130e+01 1.647692e+01 1.645377e+02 -2.226929e+02 -1.046478e+03 3.146395e+03 1.675833e+03 -2.829392e+03 -4.108412e+03 2.306224e+03 -5.524857e+01 6.387240e+02 -6.533516e+02 2.362832e+02 9.795855e+02 1.192426e+03 2.226179e+03 1.454880e+03 1.578530e+02 2.073384e+03 1.824294e+03 6.133520e+02 4.920801e+01 3.318952e+02 -5.332209e+02 -1.348608e+03 -4.975299e+02 1.811272e+03 3.904838e+03 1.648975e+03 -2.309060e+03 -6.072474e+03 -1.716955e+03 -3.173882e+03 -2.806846e+03 1.398054e+02 -4.997622e+03 -4.965111e+02 3.023292e+03 -1.591582e+03 -3.690038e+03 -7.039204e+03 -8.694612e+03 -3.978554e+03 1.631636e+02 -1.725320e+02 2.211509e+03 4.849982e+03 -3.521175e+03 -7.242183e+03 4.955118e+03 1.427762e+03 
7.413946e+03 5.205804e+03 1.168705e+04 -9.571005e+03 -8.777098e+03 -8.482780e+03 -3.926924e+03 -9.057043e+02 2.335400e+02 2.299609e+02 9.088188e+01 -3.616602e+01 4.697006e+01 -5.914974e+01 -1.341057e+02 3.008303e+02 -4.058160e+02 2.526808e+02 4.690133e+02 2.137495e+03 2.308184e+02 1.387150e+03 1.558114e+03 1.772158e+03 -1.419660e+02 -2.310543e+02 1.145768e+03 2.380219e+02 2.365364e+03 3.346273e+03 1.590088e+03 7.575654e+02 -4.542702e+02 -2.187685e+02 5.119437e+02 -8.603457e+01 -2.374193e+03 -3.456335e+03 2.698784e+03 2.512483e+03 -2.355270e+03 -2.485978e+03 -3.833529e+03 -1.589574e+03 3.064947e+03 -2.914948e+03 -5.995903e+03 -1.270034e+03 -1.659113e+03 -1.281110e+03 3.791031e+03 6.654900e+03 4.891371e+03 -2.437028e+03 -4.974243e+03 -3.877944e+03 1.392429e+03 5.638350e+03 6.918384e+03 1.009076e+04 8.745023e+03 2.074686e+03 6.708046e+03 1.194468e+04 
2.090842e+04 1.727755e+04 6.008742e+03 2.784466e+03 -1.432387e+03 3.839292e+03 6.288353e+03 3.163842e+03 1.243631e+03 2.855210e+02 1.664330e+02 -2.038006e+01 1.723539e+02 -2.720328e+02 5.169290e+02 -6.916377e+02 4.851347e+02 -3.297455e+02 -5.412864e+02 -9.430726e+02 3.447669e+02 1.760478e+03 -1.080508e+03 -3.489812e+02 2.588896e+03 -2.801607e+03 -2.671135e+03 -7.444597e+02 4.185255e+02 4.834192e+01 1.786152e+02 -8.754488e+02 -8.524726e+02 2.363858e+01 9.793150e+02 1.425974e+03 1.291353e+03 3.189865e+02 1.179911e+03 4.513588e+03 4.553980e+03 2.179641e+03 -1.961745e+03 1.930522e+03 1.766260e+03 3.173967e+03 4.808447e+03 1.662864e+03 2.118560e+03 1.281142e+03 2.187392e+03 6.513498e+03 7.489136e+03 4.348363e+03 3.277797e+03 8.282203e+02 8.914920e+02 4.619522e+03 3.862465e+03 -7.344897e+01 -1.197053e+03 -3.564449e+02 2.156566e+03 1.304530e+04 
1.305901e+04 1.227611e+04 4.222204e+03 6.514557e+03 -3.206807e+03 4.739573e+03 3.674017e+03 1.062107e+03 3.607937e+02 9.561410e+01 -4.101051e-02 4.431686e+01 3.283810e+01 3.835111e+01 6.976473e+01 -1.045187e+02 6.709528e+02 -2.408051e+02 -2.075008e+03 2.668823e+02 5.182346e+02 -3.882716e+03 -4.050600e+01 1.272413e+03 -4.545196e+03 -7.107020e+02 4.555511e+02 6.019382e+02 -2.091779e+03 5.397553e+02 1.476381e+03 -1.206358e+03 -1.233325e+03 -1.124092e+03 -1.773107e+03 -1.182280e+03 1.676047e+02 2.596075e+03 4.819858e+02 8.502536e+02 1.952289e+03 3.905186e+01 -7.152006e+02 -1.574275e+02 3.113567e+03 2.996101e+03 6.628233e+02 -1.691988e+03 -9.810405e+02 2.203115e+03 5.267594e+03 3.360163e+03 6.671677e+02 4.842538e+02 2.896314e+03 2.776728e+03 -3.224316e+03 -3.136368e+03 -1.158155e+03 -1.343959e+03 -1.410357e+03 -2.529879e+03 -1.414187e+03 5.761441e+03 
5.712151e+03 7.498919e+03 5.009567e+03 3.159018e+03 -5.142499e+03 4.229898e+03 1.738568e+03 4.052940e+02 1.880064e+02 6.135630e+01 1.778736e+01 4.067487e+01 -3.832090e+01 9.420753e+01 -1.870161e+02 2.816509e+02 -1.754835e+02 2.712509e+02 -8.991603e+02 1.564518e+03 2.621326e+03 -2.258073e+03 1.820154e+03 5.901681e+02 -1.376133e+03 3.673824e+03 7.007662e+02 -2.866795e+02 -1.272558e+03 -2.156523e+02 2.034847e+02 -3.622772e+02 -6.365739e+02 -6.529057e+02 -5.739427e+02 -3.436141e+02 -1.930029e+03 -2.205036e+03 4.287143e+02 5.238967e+02 1.034940e+03 2.342352e+02 -3.708134e+03 -5.681507e+03 -2.322909e+03 -3.420884e+00 1.169414e+02 4.835670e+02 3.000880e+02 -1.545488e+03 -9.671366e+01 -1.590216e+03 -2.420855e+03 -2.809453e+02 -2.139681e+03 -7.241512e+02 4.276494e+02 1.444861e+03 6.716083e+02 1.201512e+03 2.477186e+03 2.531887e+03 1.325989e+03 1.691066e+03 
2.033144e+03 3.144789e+03 2.539855e+03 -9.529076e+02 -4.302915e+03 3.083736e+03 5.935527e+02 -1.580697e+02 1.480999e+02 -3.713206e+01 1.745925e+01 -6.031946e+00 -1.922976e+01 2.169904e+01 -9.149960e+01 6.062926e+01 -1.088431e+02 -6.354844e+01 1.107561e+02 5.221426e+01 1.649848e+03 -9.077786e+02 -1.044461e+03 -1.171057e+03 2.487287e+03 -1.644370e+03 -8.673433e+02 -3.389630e+03 4.597391e+02 1.135938e+03 -4.694335e+02 4.616582e+01 -2.903462e+02 -4.381722e+02 3.829291e+02 1.188648e+03 1.829386e+03 6.690161e+02 -2.269903e+02 -1.679914e+02 -2.497202e+02 -1.276444e+03 -4.807479e+02 4.302218e+03 1.877488e+03 -1.121706e+03 -2.021232e+00 1.987811e+03 1.058371e+03 4.445691e+02 -1.790443e+02 -1.235987e+03 1.369539e+02 2.072508e+03 7.545759e+02 -4.341439e+02 -7.021615e+02 -4.593108e+02 1.786087e+00 1.223619e+02 1.746429e+02 6.265809e+02 4.789733e+02 4.460408e+02 
5.522954e+02 7.530906e+02 1.315674e+03 -1.888375e+03 -3.211785e+03 1.848439e+03 4.137786e+02 -7.760850e+01 6.143967e+01 -1.973060e+01 1.180298e+01 -7.890170e+00 -3.305807e-02 8.519841e-01 -1.398261e+01 7.817542e+00 8.347075e-01 -6.182383e+01 1.378472e+02 -3.091339e+02 5.470617e+02 1.317103e+02 -4.863289e+02 -3.044168e+02 -3.909808e+03 -8.198926e+03 -2.252854e+03 -3.295996e+03 -1.513789e+03 2.471763e+03 9.248852e+02 1.746374e+03 2.502021e+03 8.330733e+02 -2.934492e+02 -3.825388e+02 -1.094329e+02 -1.026288e+02 -1.845251e+02 3.297172e+02 2.348992e+02 -3.070046e+01 -1.031086e+03 -4.521779e+02 8.251260e+02 2.742585e+02 -6.650846e+02 -7.794918e+02 9.913793e+01 1.473944e+02 -2.215454e+02 -1.997430e+02 -5.948448e+02 -3.950973e+02 3.987836e+02 1.979300e+02 -1.380025e+02 -1.787009e+02 -2.648449e+02 -6.101904e+02 -6.383430e+02 -4.630063e+02 -2.194017e+02 5.806166e+01 
1.255255e+02 -7.950062e+01 6.614153e+02 -1.560555e+03 -2.281715e+03 1.184238e+03 1.754671e+02 -8.433643e+01 5.093653e+01 -4.934578e+01 1.411899e+01 -2.252557e+01 3.439942e-01 -1.190295e+01 -5.286319e+00 -1.451209e+01 2.131808e+01 -5.115760e+01 1.322689e+02 -6.826039e+01 -2.298540e+01 2.687042e+02 3.667239e+02 3.136341e+02 -2.016705e+03 2.369835e+02 -3.440107e+03 -2.632730e+03 -9.747194e+02 3.052474e+03 3.969786e+03 2.273538e+03 3.186197e+02 -1.189107e+03 -5.592703e+02 -1.549198e+02 -4.485236e+01 1.987450e+01 3.882323e+01 2.058056e+01 6.464955e+01 -1.663942e+02 -6.188843e+02 -3.577434e+02 1.281418e+02 -1.484347e+01 9.946652e+01 6.542760e+01 -1.145821e+02 -2.746111e+02 5.028381e+01 1.307930e+02 -3.540885e+01 1.597613e+02 -5.742161e+01 -1.562913e+02 -1.430247e+01 1.214041e+02 2.377940e+02 3.328907e+02 3.142482e+02 1.819555e+02 1.036114e+02 -5.347752e+01 
1.163711e+02 -8.983583e+01 6.115330e+02 -8.598398e+02 -1.794162e+03 7.857339e+02 2.878722e+02 1.294691e+01 3.636597e+01 -2.098388e+01 6.111149e+00 -1.250599e+01 2.763445e+00 -8.512889e+00 7.340772e+00 -9.405754e+00 2.220049e+01 -2.606151e+01 6.974812e+01 -1.515907e+01 -9.839931e+01 3.254991e+02 3.619129e+02 6.458404e+02 -2.149609e+03 1.229080e+03 -2.913795e+03 -7.805754e+01 2.598188e+03 2.827937e+03 4.630544e+03 1.470202e+03 -1.576638e+03 -1.514133e+03 -4.112776e+02 -8.804460e+00 1.826794e+01 -7.329799e+00 -1.486610e+01 6.401478e+00 2.843272e+01 -1.503162e+01 2.368902e+01 2.568668e+02 1.012462e+02 1.510063e+01 4.442698e-01 7.588627e+01 5.697456e+01 8.289821e+01 3.282334e+01 -3.423585e+01 1.973815e+00 7.063012e+01 3.301487e+01 -1.885598e+00 -6.617301e+01 -8.257291e+01 -7.998751e+01 -1.355441e+02 -8.402735e+01 -5.079806e+01 -5.030894e-01 -4.024385e+00 
2.433382e+01 -1.268563e+02 3.794666e+02 -6.163619e+02 -1.307818e+03 5.547017e+02 1.724853e+02 2.219890e+01 2.686508e+01 -2.418270e+01 6.018978e+00 -1.658056e+01 1.683365e+00 -1.204845e+01 4.532204e+00 -1.209427e+01 8.603824e+00 -5.317963e+00 5.260215e+00 -3.972247e+01 -1.710282e+00 1.627974e+02 -2.861523e+02 4.288492e+02 -7.645609e+02 -5.567525e+01 -1.999194e+03 8.908814e+01 1.699764e+03 1.430532e+03 3.320728e+03 1.255539e+03 -7.736885e+02 -1.455027e+02 1.494844e+02 7.742909e+01 1.634629e+01 -1.263563e+01 1.197075e+01 -4.869739e-01 -2.755023e+00 -1.960480e+01 -7.582072e+01 -7.486324e+01 -4.546782e+00 1.334377e+00 -2.035402e+01 -2.297568e+01 -1.273415e+01 -3.840870e+01 -2.365440e+01 1.635490e+01 -3.086593e+00 1.280497e+00 -9.378763e+00 -3.110250e+00 3.946941e+00 -1.450883e+01 5.358218e+00 -5.607290e+01 -5.342345e+01 5.028184e+00 1.234419e+00 -2.422484e+01 
6.147495e+01 -6.075654e+01 3.720685e+02 -3.836749e+02 -1.096551e+03 4.181771e+02 2.363164e+02 6.178538e+01 2.965150e+01 -5.893149e+00 3.395046e+00 -6.845425e+00 1.128521e+00 -5.619259e+00 3.879859e+00 -1.186029e+01 1.347146e+01 -3.221006e+01 2.599013e+00 6.873811e+01 -1.050575e+02 -2.794180e+02 1.622858e+02 -9.633049e+02 1.130225e+03 -1.221088e+03 -2.206116e+03 -1.370615e+03 -2.062953e+03 -7.041839e+02 1.373389e+03 7.316775e+02 -3.206771e+02 -2.927576e+01 3.381615e+01 1.584767e+01 9.706016e+00 1.508109e+01 1.917351e+01 -1.044815e+01 2.437908e+00 -5.738851e-01 2.798035e+00 3.714231e+01 1.150721e+01 4.574250e+00 1.309949e+01 1.132568e+01 -2.360608e+00 7.284920e+00 7.038911e-01 -6.446371e+00 -2.409510e+00 -9.512693e+00 -1.610577e+01 4.507132e+00 -5.161217e+01 -1.329115e+02 -3.237636e+02 -5.546416e+02 -6.780096e+02 -2.981759e+02 -8.484432e+01 3.150506e+01 
1.690900e-01 -1.096756e+02 2.506562e+02 -3.718974e+02 -8.777557e+02 3.495471e+02 1.617253e+02 5.597069e+01 1.932046e+01 -5.055321e+00 1.086059e+00 -7.448819e+00 -1.774029e+00 -5.598649e+00 -2.166309e-01 -1.384634e+00 1.499981e+00 -3.464158e-01 9.510047e+01 -2.193341e+02 2.722041e+02 -1.461331e+02 6.783991e+02 -2.648987e+03 1.115789e+03 2.698872e+02 1.706014e+02 -2.303746e+03 -4.109696e+03 -1.807207e+03 -2.858680e+01 8.383133e+02 -1.426877e+01 -1.044202e+01 2.998386e+01 -1.090034e+02 -1.790842e+02 -1.073967e+02 -3.553450e+01 -3.004684e-01 -7.458934e+01 -4.286392e+01 -5.634881e+01 3.864522e+00 -1.717737e+01 -6.276409e+01 -8.669157e+01 -1.369191e+01 -1.851361e+00 8.593345e+00 -1.214653e+01 -6.567617e+00 -9.994006e+01 -2.054409e+02 -1.251080e+02 2.608330e+01 -2.327034e+02 -6.091275e+02 -1.371946e+03 -1.987843e+03 -2.173127e+03 -9.525314e+02 -1.263437e+02 3.868687e+01 
1.310432e+02 -6.041882e+01 2.708734e+02 -3.005553e+02 -8.310080e+02 3.101380e+02 2.016151e+02 7.378176e+01 2.321555e+01 4.962444e+00 6.352631e-01 9.957603e-01 -2.068964e+00 3.853731e+00 -3.209947e+00 -7.457419e-01 -1.262093e+01 4.208249e+01 -2.942756e+02 5.580249e+02 -8.436780e+02 5.299084e+02 1.869850e+01 -1.883828e+03 1.795521e+03 7.242401e+02 -1.096410e+03 -1.718417e+03 -6.516776e+02 -7.004180e+02 -5.030449e+02 4.377180e+02 -4.794241e+01 -7.327170e+01 9.198633e+00 3.490887e+02 6.285555e+02 1.994092e+02 -3.670253e+02 -2.136230e+02 -4.970554e+02 -4.945451e+02 -6.338013e+02 -8.988272e+01 -6.425173e+01 2.083180e+01 -2.509838e+01 -3.049932e+02 -2.703091e+02 -7.558264e+01 -1.116604e+02 -2.017239e+02 -5.510646e+02 -1.170967e+03 -8.125355e+02 -1.815340e+02 -1.001215e+03 -1.923257e+03 -3.479412e+03 -4.542117e+03 -3.670470e+03 -9.122597e+02 6.121330e+02 4.132474e+02 
1.261763e+02 -1.009359e+02 2.169982e+02 -3.602927e+02 -7.874528e+02 3.418021e+02 1.575086e+02 6.407453e+01 1.564394e+01 4.441050e+00 -1.712721e+00 -1.158314e+00 -6.349212e+00 -7.872793e-01 -1.127422e+01 -7.548864e+00 8.096133e+01 -3.285324e+02 5.621184e+02 -2.871993e+02 -1.293904e+03 1.768634e+03 -2.093897e+03 -1.417391e+03 7.757703e+02 1.171454e+03 -3.189621e+02 -1.888127e+03 -6.896791e+02 -1.724038e+03 -9.256931e+02 1.032198e+02 1.355767e+02 -3.007220e+02 3.707457e+02 1.547919e+03 -4.140890e+00 -1.593728e+03 -1.969992e+03 -1.515589e+03 -2.590289e+03 -2.243734e+03 -2.534052e+03 -1.063880e+03 -2.908205e+02 -3.989202e+02 -1.135058e+03 -1.737156e+03 -9.613124e+02 -6.255362e+02 -1.144268e+03 -1.755331e+03 -2.714512e+03 -4.034402e+03 -3.269667e+03 -1.992426e+03 -2.628629e+03 -3.740073e+03 -5.130570e+03 -5.859877e+03 -3.233204e+03 4.451279e+02 1.523764e+03 5.178590e+02 
2.574732e+02 -1.047579e+02 2.138013e+02 -3.583794e+02 -8.158351e+02 3.414717e+02 1.844573e+02 7.244132e+01 1.664246e+01 9.557545e+00 -3.614828e+00 8.207707e+00 -8.307826e+00 2.210461e+01 -2.044065e+01 8.707840e+01 -1.434087e+02 3.099211e+02 3.397801e+01 -1.682759e+03 1.220028e+03 1.966161e+03 -1.988067e+03 -1.830734e+03 1.283589e+03 1.438662e+03 2.102397e+01 -1.905291e+03 1.324584e+03 -4.302107e+02 -2.138618e+03 -3.314760e+01 -1.037728e+03 2.563342e+02 2.321600e+03 -2.108843e+03 -5.638289e+03 -3.507467e+03 -2.634727e+03 -2.444714e+03 -5.506096e+02 -7.585769e+02 -6.100330e+03 -6.777051e+03 -2.763303e+03 -2.123696e+03 -3.016265e+03 -4.481724e+03 -3.325592e+03 -1.652042e+03 -2.299761e+03 -3.123853e+03 -4.607952e+03 -5.903249e+03 -4.669521e+03 -3.066886e+03 -2.850232e+03 -4.671132e+03 -5.096250e+03 -4.103742e+03 -1.273790e+03 1.785549e+03 2.496567e+03 9.523757e+02 
2.241242e+02 -3.940631e+01 2.094161e+02 -4.279134e+02 -8.473464e+02 4.271792e+02 1.615786e+02 6.150364e+01 1.346983e+01 7.886123e+00 -3.202181e+00 2.198487e+00 -1.188159e+00 -1.837726e+01 -9.450509e+00 7.734897e+01 -6.216253e+02 1.506663e+03 -1.461618e+03 -2.316690e+01 3.561435e+03 -2.104194e+02 -1.484830e+03 1.098233e+03 4.025119e+03 -5.399723e+01 2.562256e+02 9.729771e+01 -3.747822e+02 -8.350831e+02 -1.354006e+03 1.355259e+03 -1.291004e+03 -3.331142e+03 1.858217e+03 1.219003e+03 2.360003e+03 -1.235520e+03 -9.405896e+02 -5.116369e+02 -6.266398e+02 -1.070135e+03 -1.950746e+03 -2.389041e+03 -1.455399e+02 3.742790e+03 -2.411028e+02 -7.106223e+03 -2.681742e+03 -6.727763e+02 -1.296929e+03 -3.831140e+03 -7.630641e+03 -2.250327e+03 3.016895e+03 -1.497762e+02 -2.427666e+03 -1.098119e+03 4.076695e+02 1.766352e+03 2.791457e+03 3.009763e+03 2.288150e+03 7.396187e+02 
3.190569e+01 -7.380118e+01 1.788338e+02 -4.074531e+02 -8.337181e+02 4.032193e+02 1.704939e+02 5.976699e+01 1.158043e+01 4.427764e+00 -7.397283e+00 8.084257e+00 -2.933913e+01 2.323678e+01 1.293979e+01 -3.692974e+02 1.073816e+03 -1.690201e+03 8.674446e+02 1.919237e+03 -1.227536e+03 -9.697785e+02 2.277028e+03 2.308354e+03 8.825203e+02 1.414377e+03 -3.135488e+03 -1.530556e+02 1.402096e+03 1.595079e+03 1.312626e+03 1.794212e+03 1.523921e+03 -1.755572e+03 2.772490e+03 8.074247e+03 5.655953e+03 -4.262663e+03 2.333350e+03 4.218623e+03 -1.199434e+03 3.316074e+03 1.164226e+04 6.902442e+03 -9.204051e+01 7.372229e+03 1.267015e+03 -4.499896e+03 5.452270e+02 2.830502e+03 2.060023e+03 1.909211e+02 6.478271e+02 7.028893e+03 6.715030e+03 8.083931e+02 3.325947e+03 7.096851e+03 6.319374e+03 5.288244e+03 5.366155e+03 3.353125e+03 1.275222e+03 1.878104e+02 
1.548024e+01 -2.999541e+01 1.788994e+02 -4.566010e+02 -8.405435e+02 4.659208e+02 1.526155e+02 4.612256e+01 1.806123e+01 -8.664688e+00 1.431117e+01 -1.488246e+01 2.149587e+01 -2.436398e+00 -1.047317e+01 2.813066e+02 -2.515958e+02 5.323180e+02 8.772484e+02 -1.624972e+03 8.691015e+02 4.847503e+02 -9.898289e+02 -3.234660e+02 1.455714e+03 3.976037e+02 2.209283e+03 4.456694e+03 -8.111647e+02 -2.489823e+03 3.641211e+02 9.109849e+02 1.216376e+01 -2.021560e+03 3.040407e+02 4.075276e+03 -1.200947e+01 -1.967262e+03 -1.290870e+03 8.023274e+03 6.245657e+03 3.825357e+02 2.788141e+03 1.844922e+03 -1.212610e+03 5.466141e+03 6.225470e+03 3.445433e+03 3.067823e+03 5.250500e+03 6.041696e+03 7.538035e+03 2.759121e+03 2.519040e+03 9.360777e+03 6.406623e+03 5.792027e+02 3.776290e+03 6.333041e+03 4.799388e+03 3.009709e+03 1.421386e+03 3.350354e+02 8.172878e+01 
-1.163031e+01 -3.211821e+01 1.648574e+02 -3.997649e+02 -7.673680e+02 4.060441e+02 1.465908e+02 4.144566e+01 1.405316e+01 -6.802481e+00 7.277753e+00 -1.063967e+01 1.299946e+00 7.963337e+00 -6.626978e+01 1.693579e+02 -3.744520e+02 5.113404e+02 -1.476076e+03 2.531574e+03 -2.417791e+00 -2.189929e+03 -5.588199e+02 -1.258340e+03 1.586184e+03 3.099623e+03 9.114048e+01 -2.200339e+03 1.688452e+03 -1.263911e+03 -3.275148e+03 -1.389179e+03 -2.094318e+03 -1.664803e+03 -4.265103e+02 -3.084348e+02 -6.308993e+02 -5.349156e+02 -3.168728e+03 1.954130e+03 2.269176e+03 -3.110752e+03 -1.841350e+03 -1.187509e+02 -3.255114e+02 1.636722e+03 7.306918e+03 3.323448e+02 -2.879658e+03 1.964875e+03 2.325582e+03 5.051781e+03 3.086108e+03 -3.122320e+03 2.447416e+03 4.698955e+03 -1.424516e+03 2.398159e+02 1.608352e+03 1.447449e+03 8.905031e+02 3.777513e+02 3.474704e+00 4.294155e+01 