# vtk DataFile Version 2.0
Comment goes here
ASCII

DATASET STRUCTURED_POINTS
FIELD FieldData 1
TIME 1 1 double
0.05800000
DIMENSIONS    64   64   1

ORIGIN    0.000   0.000   0.000
SPACING   0.03125 0.03125   1.000

POINT_DATA   4096
SCALARS Omega double
LOOKUP_TABLE default

-1.734676e-02 -1.893757e-01 -2.233784e-02 -3.273253e-01 -2.377636e-03 -6.072653e-02 2.415269e-02 -1.928027e-01 2.144731e-02 -1.460623e-01 1.986824e-02 -8.103292e-02 3.727771e-02 -1.825338e-02 7.712886e-02 2.652369e-02 1.255847e-01 7.233816e-02 1.866169e-01 1.041607e-01 2.255673e-01 1.347729e-01 2.432609e-01 2.087587e-01 3.360699e-01 2.047605e-01 3.145439e-01 1.832546e-01 3.547015e-01 1.546191e-01 3.645065e-01 1.351328e-01 3.534755e-01 1.597426e-01 3.219451e-01 1.881048e-01 2.944992e-01 1.896085e-01 2.442302e-01 2.415600e-01 1.614722e-01 2.622497e-01 1.096936e-01 2.854509e-01 4.428536e-02 2.901628e-01 -1.143549e-02 2.747178e-01 -7.974382e-02 2.430600e-01 -9.394630e-02 1.990123e-01 -1.307520e-01 1.438761e-01 -1.452433e-01 8.390504e-02 -1.489522e-01 3.733754e-02 -1.547427e-01 -1.571378e-03 -1.453070e-01 -4.908134e-02 -1.193242e-01 -6.967233e-02 
-7.554404e+00 -3.885740e+01 -1.030245e+01 -3.329750e+01 -1.435697e+01 -2.931233e+01 -1.986905e+01 -2.448387e+01 -2.750320e+01 -2.002133e+01 -3.387965e+01 -1.593133e+01 -3.873642e+01 -1.313063e+01 -4.178055e+01 -1.173084e+01 -4.334141e+01 -1.146644e+01 -4.389448e+01 -1.176469e+01 -4.437848e+01 -1.121983e+01 -4.627574e+01 -8.940931e+00 -5.008553e+01 -4.393908e+00 -5.614135e+01 2.144155e+00 -6.322396e+01 8.668812e+00 -6.961788e+01 1.434663e+01 -7.499942e+01 1.907977e+01 -7.970354e+01 2.310712e+01 -8.321409e+01 2.566048e+01 -8.477265e+01 2.596281e+01 -8.394571e+01 2.408411e+01 -8.104353e+01 2.032948e+01 -7.613065e+01 1.455442e+01 -6.928591e+01 7.528926e+00 -6.184222e+01 7.215620e-01 -5.481273e+01 -5.608147e+00 -4.808216e+01 -1.132177e+01 -4.203633e+01 -1.627988e+01 -3.628240e+01 -2.103073e+01 -3.053843e+01 -2.535635e+01 -2.511343e+01 -2.931336e+01 -1.978157e+01 -3.436253e+01 
-6.670205e+01 1.108054e+01 -4.527880e+01 8.009629e+00 -1.157832e+01 6.663461e+00 -4.791407e+01 1.542754e+00 -6.069555e+01 -7.235405e-01 -6.878588e+01 -2.673442e+00 -7.476584e+01 -3.931957e+00 -7.985721e+01 -4.568203e+00 -8.436363e+01 -4.710116e+00 -8.841590e+01 -4.512602e+00 -9.174495e+01 -4.777721e+00 -9.379419e+01 -5.789511e+00 -9.445161e+01 -8.154475e+00 -9.319437e+01 -1.154517e+01 -9.120352e+01 -1.472170e+01 -8.955198e+01 -1.732784e+01 -8.817038e+01 -1.948654e+01 -8.666760e+01 -2.165662e+01 -8.524014e+01 -2.304602e+01 -8.445342e+01 -2.336838e+01 -8.436742e+01 -2.281059e+01 -8.480903e+01 -2.139916e+01 -8.585042e+01 -1.901059e+01 -8.751646e+01 -1.591389e+01 -8.890192e+01 -1.315995e+01 -8.931900e+01 -1.062024e+01 -8.905312e+01 -8.292423e+00 -8.763610e+01 -6.364743e+00 -8.526442e+01 -4.303883e+00 -8.190695e+01 -2.287618e+00 -7.666490e+01 -5.822558e-01 -6.760608e+01 1.491271e+00 
-3.401588e+01 8.996134e+00 -2.453547e+01 1.150990e+01 -2.943778e+01 7.067998e+00 -1.864492e+01 9.009668e+00 -2.598610e+01 6.069127e+00 -3.012136e+01 3.326515e+00 -3.302093e+01 1.313158e+00 -3.547939e+01 -2.702146e-03 -3.774431e+01 -6.301773e-01 -3.980645e+01 -8.923202e-01 -4.146236e+01 -1.460046e+00 -4.210425e+01 -2.570294e+00 -4.156670e+01 -4.553194e+00 -3.983413e+01 -7.674118e+00 -3.739787e+01 -1.037364e+01 -3.522673e+01 -1.268294e+01 -3.333821e+01 -1.441309e+01 -3.147510e+01 -1.596987e+01 -2.993355e+01 -1.700952e+01 -2.909046e+01 -1.705967e+01 -2.911992e+01 -1.638158e+01 -2.976904e+01 -1.494741e+01 -3.108902e+01 -1.261105e+01 -3.309940e+01 -9.773997e+00 -3.517791e+01 -7.164189e+00 -3.667996e+01 -4.830859e+00 -3.777515e+01 -2.717615e+00 -3.823196e+01 -9.102913e-01 -3.816989e+01 1.005193e+00 -3.757490e+01 2.608189e+00 -3.582065e+01 4.123331e+00 -3.295868e+01 7.970241e+00 
-2.487628e+00 2.008172e+00 -2.679587e+00 -5.093064e+00 -5.089403e+01 -6.859741e-02 4.443323e+00 1.242492e-01 6.727844e-01 8.902370e-02 -5.795328e-01 6.972572e-02 -1.062348e+00 2.572565e-02 -1.244277e+00 -5.101591e-02 -1.273122e+00 -1.404825e-01 -1.265360e+00 -2.201354e-01 -1.236199e+00 -2.586672e-01 -1.204552e+00 -2.668236e-01 -1.194403e+00 -2.517184e-01 -1.221393e+00 -2.271208e-01 -1.215297e+00 -2.045086e-01 -1.177571e+00 -1.972606e-01 -1.120396e+00 -1.843622e-01 -1.034860e+00 -1.939059e-01 -9.473905e-01 -2.519998e-01 -8.963095e-01 -3.465130e-01 -8.425464e-01 -4.416868e-01 -7.516600e-01 -5.283173e-01 -6.586710e-01 -5.667757e-01 -5.626566e-01 -5.489236e-01 -4.763198e-01 -4.987677e-01 -4.358571e-01 -4.284149e-01 -4.231867e-01 -3.264494e-01 -4.174356e-01 -1.820120e-01 -4.217747e-01 3.203227e-02 -4.726921e-01 3.270801e-01 -6.008149e-01 7.631208e-01 -7.735874e-01 1.400524e+00 
-1.832639e+00 1.622797e+00 -2.351519e+00 -4.382557e+00 -6.477956e+01 -1.863656e+00 3.962495e+00 -8.383270e-01 2.229473e+00 -2.956086e-01 1.121608e+00 -1.785715e-01 5.715475e-01 -1.326123e-01 3.064810e-01 -1.029887e-01 1.848303e-01 -1.035368e-01 9.025535e-02 -1.048820e-01 2.353384e-02 -8.074974e-02 1.439886e-03 -5.411156e-02 -3.082957e-03 -6.483383e-02 -2.101312e-02 -3.261766e-02 -2.457237e-02 -1.160717e-02 6.901245e-03 -1.485673e-02 -2.167652e-02 -1.286378e-02 -3.062323e-02 -2.565982e-03 4.319719e-03 -7.194377e-03 -1.409797e-02 1.569386e-03 -2.808873e-02 3.479743e-02 -6.813349e-03 3.777830e-02 -3.301287e-02 3.218293e-02 -6.116963e-02 4.447743e-02 -5.859445e-02 6.302835e-02 -5.430559e-02 8.370181e-02 -7.963173e-02 1.304000e-01 -1.309545e-01 2.088701e-01 -2.224266e-01 3.192313e-01 -3.689357e-01 4.983291e-01 -6.355099e-01 7.485464e-01 -1.086497e+00 6.151511e-01 
-1.901192e+00 1.080954e+00 -1.585785e+00 -5.170483e+00 -7.543761e+01 -1.420485e+00 3.100552e+00 -9.294432e-01 2.196403e+00 -4.404336e-01 1.211611e+00 -2.722685e-01 6.502029e-01 -1.869358e-01 3.748381e-01 -1.465905e-01 2.784180e-01 -1.537008e-01 1.504120e-01 -1.433966e-01 7.436315e-02 -1.064402e-01 7.173285e-02 -8.076800e-02 5.337931e-02 -6.605586e-02 2.110297e-02 -3.238063e-02 3.106910e-02 -2.553180e-03 5.780228e-02 -8.356964e-03 9.727535e-03 7.471570e-03 -3.743760e-03 2.742531e-02 4.375476e-02 2.672444e-03 -8.398079e-03 1.884499e-02 -3.296931e-02 5.487175e-02 7.165602e-03 4.166759e-02 -4.247355e-02 5.031785e-02 -6.832608e-02 7.845569e-02 -3.855379e-02 9.108143e-02 -6.249905e-02 1.264943e-01 -1.086200e-01 1.954235e-01 -1.812996e-01 2.832433e-01 -3.025968e-01 3.859036e-01 -4.921593e-01 5.203944e-01 -7.741882e-01 6.950552e-01 -1.176178e+00 7.676313e-01 
-1.658540e+00 9.088793e-01 -1.125600e+00 -4.530018e+00 -8.344354e+01 -1.469223e+00 1.653047e+00 -1.358319e+00 1.773426e+00 -7.005676e-01 1.182772e+00 -4.064876e-01 6.759216e-01 -2.670325e-01 3.801381e-01 -2.041960e-01 3.070236e-01 -2.020800e-01 1.702620e-01 -2.052268e-01 6.071967e-02 -1.494233e-01 5.407941e-02 -9.377559e-02 6.440301e-02 -1.062996e-01 -9.654069e-03 -6.605804e-02 -2.186500e-02 -1.040102e-02 6.573416e-02 -4.874706e-02 -1.317866e-02 -2.294970e-02 -4.422017e-02 3.565982e-02 7.064145e-02 -1.234911e-03 -2.263418e-03 1.730025e-02 -5.399545e-02 8.475894e-02 2.573762e-02 7.782422e-02 -2.727233e-02 7.126897e-02 -8.972676e-02 1.078025e-01 -5.752087e-02 1.315774e-01 -3.534611e-02 1.290987e-01 -8.055898e-02 2.090211e-01 -1.499517e-01 3.348375e-01 -2.626245e-01 4.771486e-01 -4.372917e-01 6.416497e-01 -7.027293e-01 8.179194e-01 -1.084620e+00 9.299729e-01 
-1.386399e+00 7.214407e-01 -2.957794e-01 -4.922885e+00 -8.936667e+01 -1.033806e+00 9.429821e-01 -1.307461e+00 1.308906e+00 -7.518779e-01 9.908443e-01 -4.519296e-01 5.808101e-01 -2.872206e-01 3.341493e-01 -2.390850e-01 3.806870e-01 -3.049721e-01 1.768733e-01 -2.531179e-01 6.042139e-02 -1.535682e-01 1.150718e-01 -1.392524e-01 8.728251e-02 -1.185273e-01 -1.128522e-02 -4.795263e-02 6.219689e-03 -1.696423e-02 1.060401e-01 -5.937619e-02 -2.565442e-02 1.315763e-03 -5.528000e-02 6.751365e-02 1.263979e-01 -1.969125e-02 -2.831956e-02 3.501102e-02 -9.054260e-02 1.252226e-01 7.135653e-02 4.827387e-02 -6.509324e-02 8.254111e-02 -1.241794e-01 1.427876e-01 -1.270505e-02 9.648661e-02 -6.204897e-02 1.224182e-01 -1.068343e-01 2.317849e-01 -1.745643e-01 3.643508e-01 -2.953099e-01 4.974978e-01 -4.727901e-01 6.430004e-01 -7.111597e-01 8.017435e-01 -1.016660e+00 9.275750e-01 
-1.059662e+00 5.949765e-01 2.877037e-01 -4.569571e+00 -9.374318e+01 -8.756431e-01 1.981726e-01 -1.480992e+00 7.844463e-01 -9.388311e-01 7.703466e-01 -5.505967e-01 4.679481e-01 -3.109277e-01 2.075077e-01 -2.789933e-01 3.752883e-01 -3.992103e-01 2.175645e-01 -3.356826e-01 2.328454e-02 -1.697638e-01 4.867360e-02 -1.482249e-01 1.576727e-01 -1.810335e-01 -4.348580e-02 -5.763073e-02 -1.151269e-01 4.633604e-03 1.892276e-01 -1.409803e-01 -3.451084e-02 -1.575460e-02 -1.634168e-01 1.179121e-01 2.025807e-01 -7.134910e-02 5.069935e-03 2.184466e-02 -1.568226e-01 1.928995e-01 9.145651e-02 6.773897e-02 -9.646808e-03 9.126740e-02 -1.767656e-01 1.982570e-01 -1.048770e-01 1.397288e-01 1.882335e-02 4.740099e-02 -2.238250e-02 2.185330e-01 -1.016217e-01 4.113768e-01 -2.293184e-01 5.639225e-01 -3.929445e-01 7.063879e-01 -5.947593e-01 8.469811e-01 -8.385141e-01 9.493974e-01 
-7.464346e-01 4.512872e-01 9.874272e-01 -4.612568e+00 -9.662636e+01 -5.938709e-01 -1.774398e-01 -1.459927e+00 3.499284e-01 -9.475347e-01 4.867239e-01 -5.147742e-01 2.578220e-01 -1.790541e-01 3.449540e-02 -1.879777e-01 5.136455e-01 -7.961248e-01 2.129595e-01 -3.383057e-01 -1.948364e-02 1.996025e-02 1.306924e-01 -3.889768e-01 1.937762e-01 -1.703986e-01 -8.488026e-02 1.057758e-01 -1.220428e-01 -1.335315e-01 2.999684e-01 -1.759598e-01 -8.628006e-02 9.464497e-02 -2.530680e-01 1.392420e-01 3.860459e-01 -1.752002e-01 -5.815484e-02 9.336959e-02 -2.698804e-01 3.227388e-01 2.637972e-01 -8.908362e-02 -9.098123e-02 1.496042e-01 -2.662963e-01 3.501295e-01 2.798707e-02 -4.305590e-02 -4.972780e-02 1.843156e-02 -2.213065e-02 2.483084e-01 -8.591092e-02 4.389439e-01 -2.238769e-01 5.726703e-01 -3.802325e-01 6.955650e-01 -5.414990e-01 8.229309e-01 -7.019488e-01 9.175567e-01 
-4.363553e-01 3.252383e-01 1.530596e+00 -4.389739e+00 -9.839979e+01 -3.248649e-01 -4.766821e-01 -1.543503e+00 -1.616202e-02 -1.113125e+00 2.949106e-01 -5.697014e-01 1.261791e-01 6.598676e-02 -2.950049e-01 1.444138e-01 2.848987e-01 -1.485989e+00 4.791178e-01 -3.553575e-01 -1.618302e-02 4.891652e-01 -2.770240e-01 -7.925873e-01 5.169692e-01 -3.112562e-01 -2.511810e-02 4.847889e-01 -6.187503e-01 -3.042459e-01 5.961835e-01 -5.075085e-01 4.321024e-02 3.223740e-01 -6.257662e-01 2.778295e-01 5.028787e-01 -5.893100e-01 1.690866e-01 1.794393e-01 -4.391642e-01 6.714381e-01 1.003071e-01 -4.327366e-01 2.292759e-01 1.994630e-01 -2.991909e-01 7.847172e-01 -5.227265e-01 -2.411970e-01 2.181321e-01 -2.924434e-01 2.183007e-01 2.755976e-01 2.368375e-02 5.330527e-01 -1.734763e-01 6.333971e-01 -3.146122e-01 7.244188e-01 -4.256304e-01 8.269984e-01 -5.159883e-01 8.940695e-01 
-1.573948e-01 1.980759e-01 2.056681e+00 -4.251937e+00 -9.906763e+01 -1.508849e-01 -6.467726e-01 -1.608849e+00 -3.039737e-01 -1.226293e+00 4.662138e-02 -5.954457e-01 -1.608799e-01 5.236853e-01 -6.195038e-01 1.358730e+00 3.064489e-01 -3.433855e+00 7.367250e-01 1.185499e-01 -4.358290e-02 2.211465e+00 -5.781026e-01 -2.625944e+00 8.844369e-01 -1.058415e-02 -3.315276e-02 1.824645e+00 -1.126806e+00 -1.727896e+00 1.204559e+00 -3.425505e-01 -1.683059e-02 1.104530e+00 -1.218238e+00 -1.288764e-01 1.230806e+00 -7.643568e-01 7.925605e-02 6.229764e-01 -8.909054e-01 1.250116e+00 5.767692e-01 -1.080311e+00 1.563308e-01 5.246766e-01 -4.989139e-01 1.788711e+00 -4.248727e-01 -1.130401e+00 1.326798e-01 -2.065074e-01 3.272676e-01 3.801725e-01 7.890722e-02 5.914983e-01 -1.719823e-01 6.423241e-01 -3.003267e-01 7.059156e-01 -3.610844e-01 7.968879e-01 -3.742838e-01 8.535167e-01 
1.088845e-01 6.282445e-02 2.501202e+00 -4.079557e+00 -9.876417e+01 1.638253e-01 -7.325934e-01 -1.672022e+00 -5.321912e-01 -1.578361e+00 1.225181e-02 -1.100261e+00 4.138941e-02 7.330112e-01 -6.235492e-01 1.807499e+00 -8.921063e-01 -4.439944e+00 2.236536e+00 8.169838e-01 9.233074e-01 5.164395e+00 -3.249537e+00 -4.691378e+00 2.242492e+00 -6.641698e-01 1.154991e+00 5.078017e+00 -3.958824e+00 -2.895530e+00 2.217253e+00 -2.263957e+00 1.188875e+00 3.463867e+00 -2.946317e+00 5.362504e-01 1.037276e+00 -3.733447e+00 1.486470e+00 1.752729e+00 -1.101290e+00 3.738620e+00 -1.332353e+00 -4.574113e+00 1.887413e+00 8.827807e-01 4.079366e-01 6.027484e+00 -4.053099e+00 -4.075007e+00 1.481559e+00 -5.167060e-01 1.013452e+00 9.011205e-01 2.413599e-02 7.620636e-01 -2.714939e-01 6.608120e-01 -2.966274e-01 6.930510e-01 -2.695300e-01 7.729316e-01 -2.105668e-01 8.091627e-01 
3.369448e-01 -6.228896e-02 2.849827e+00 -3.809998e+00 -9.768079e+01 2.270322e-01 -7.864024e-01 -1.750072e+00 -6.340701e-01 -1.862063e+00 -1.146990e-01 -1.784558e+00 -5.707245e-01 -1.112042e+00 1.130215e-01 -1.076632e+01 7.554809e+00 1.483592e+01 8.479130e+00 7.094284e+00 1.246803e+00 -3.096561e+00 1.601893e+00 7.763577e+00 8.152216e+00 4.306970e+00 1.733057e+00 1.964148e+00 -3.105809e+00 5.435464e+00 8.911075e+00 6.577677e-01 1.007040e+00 5.101173e+00 -5.333827e+00 2.540286e+00 1.013198e+01 -3.582312e+00 4.451581e-01 3.759179e+00 -3.203384e+00 -4.744293e-01 8.851052e+00 -5.572250e+00 6.459794e-01 1.557269e+00 1.343485e-02 1.662757e-01 4.880403e+00 -6.737018e+00 2.890934e-01 -2.720174e+00 1.133615e+00 1.383569e+00 -1.953319e-02 9.018200e-01 -3.769351e-01 6.416711e-01 -3.124731e-01 6.499808e-01 -2.093368e-01 7.305568e-01 -8.385738e-02 7.585360e-01 
5.616210e-01 -1.961326e-01 3.151039e+00 -3.532326e+00 -9.563102e+01 5.121945e-01 -8.341618e-01 -1.563932e+00 -9.251404e-01 -2.053748e+00 -4.167407e-01 -3.608855e+00 4.186884e-01 -8.991294e+00 1.013024e+01 -3.604103e+01 2.952804e+01 8.300224e+01 3.170143e+01 1.712359e+01 9.632921e+00 -3.211061e+01 1.684998e+01 7.270881e+01 4.609417e+01 2.928786e+01 1.005986e+01 -1.942869e+01 5.857835e+00 4.717764e+01 5.727569e+01 4.842556e+01 1.000840e+01 -2.184621e+00 1.672424e-01 6.956465e+00 5.629092e+01 6.385304e+01 1.515041e+01 8.050453e+00 2.504921e+00 -2.365417e+01 3.941846e+01 6.398527e+01 2.306397e+01 1.105794e+01 8.888184e+00 -3.184944e+01 2.008367e+01 5.359992e+01 2.959302e+01 2.119120e+01 8.598701e-01 2.157401e+00 -1.670653e+00 3.642310e-01 -7.554011e-01 4.626714e-01 -3.102297e-01 5.968277e-01 -1.064882e-01 6.959185e-01 6.650787e-02 7.040987e-01 
7.418645e-01 -2.946625e-01 3.313451e+00 -3.108933e+00 -9.307027e+01 4.411808e-01 -8.575972e-01 -1.464638e+00 -8.037575e-01 -1.903297e+00 3.230937e-01 -3.930851e+00 3.208046e+00 -9.213364e+00 1.014132e+01 -2.370570e+01 3.794686e+01 6.749382e+01 1.731857e+01 9.651797e-02 9.351944e+00 -3.147466e+01 3.671453e+01 8.417098e+01 3.502276e+01 1.665346e+01 8.609269e+00 -2.750612e+01 2.432620e+01 6.999753e+01 6.225297e+01 4.751463e+01 5.810121e+00 -1.348210e+01 7.988784e+00 2.732879e+01 8.403679e+01 8.376419e+01 3.877739e+00 -2.521759e-01 1.560055e+00 -1.506436e+01 7.760492e+01 1.047874e+02 7.631072e+00 4.774842e+00 5.002790e+00 -3.693891e+01 5.892563e+01 1.150318e+02 1.954768e+01 2.331325e+01 -5.327634e+00 8.696562e-01 -2.860061e+00 -2.945870e-01 -8.976883e-01 2.220497e-01 -2.512819e-01 5.070747e-01 -1.260288e-02 6.454564e-01 1.852784e-01 6.491971e-01 
9.236891e-01 -3.906496e-01 3.448458e+00 -2.718591e+00 -8.964265e+01 5.753651e-01 -7.486681e-01 -1.027490e+00 -7.319631e-01 -5.703105e-01 -1.921574e-02 6.677139e-01 6.763115e-01 3.392673e+00 -1.203634e+00 1.914561e+01 -3.834066e+01 -7.439339e+01 -8.170722e+00 -1.113006e+01 3.965170e-01 1.633972e+01 -2.507510e+01 -5.834528e+01 -1.798510e+01 -1.465109e+01 -9.120051e-01 1.196149e+01 -1.331036e+01 -3.794448e+01 -2.784500e+01 -2.227906e+01 -7.018714e-01 6.282382e+00 -4.008513e+00 -1.520400e+01 -3.270793e+01 -2.812658e+01 -6.309083e-01 2.245146e+00 -1.517968e+00 1.711978e+00 -2.482502e+01 -2.552302e+01 -2.534807e+00 2.180804e+00 -3.304729e+00 7.602989e+00 -1.219803e+01 -1.467403e+01 -3.299624e+00 2.048947e+00 -8.781822e-01 1.422955e+00 -1.625712e-01 7.814132e-01 -1.753897e-02 5.934375e-01 5.328430e-02 5.928511e-01 1.495680e-01 6.379247e-01 3.266416e-01 5.943688e-01 
1.047828e+00 -4.090781e-01 3.433039e+00 -2.219544e+00 -8.579164e+01 4.797305e-01 -8.260624e-01 -9.604010e-01 -9.250057e-01 -2.388512e-01 -7.768410e-01 2.194371e+00 -2.099000e+00 1.001196e+01 -1.490918e+01 3.779894e+01 -3.065352e+01 -8.433084e+01 -3.775073e+01 -1.546249e+01 -1.331705e+01 3.649108e+01 -2.592238e+01 -9.080912e+01 -5.187157e+01 -2.920633e+01 -1.179397e+01 2.716981e+01 -1.634386e+01 -6.914969e+01 -7.220775e+01 -5.844587e+01 -9.191891e+00 1.009428e+01 -5.967833e+00 -2.021376e+01 -8.403213e+01 -9.118442e+01 -1.043650e+01 -2.154830e+00 -4.023858e+00 2.303159e+01 -7.123233e+01 -1.064215e+02 -1.631157e+01 -5.469476e+00 -9.100624e+00 4.154183e+01 -5.132319e+01 -1.101173e+02 -2.528580e+01 -2.270610e+01 3.684773e+00 7.702149e-01 2.244275e+00 1.465408e+00 6.546321e-01 8.585433e-01 2.473848e-01 6.506621e-01 2.446614e-01 6.246760e-01 4.170176e-01 5.503525e-01 
1.162462e+00 -4.570632e-01 3.456072e+00 -1.972786e+00 -8.131584e+01 6.943279e-01 -8.164378e-01 -7.978071e-01 -1.161679e+00 -5.618063e-01 -1.165817e+00 9.461368e-02 -1.700807e+00 1.857472e+00 -5.811685e+00 1.249512e+01 -7.966514e+00 -8.039942e+00 -1.284977e+01 -4.847443e+00 -7.708528e+00 1.044027e+01 -3.810382e+00 -1.624692e+01 -1.919030e+01 -1.018564e+01 -7.352942e+00 5.257134e+00 1.161824e+00 -1.558520e+01 -2.655264e+01 -1.877108e+01 -6.712494e+00 -3.738680e+00 3.688901e+00 -9.674744e-01 -2.932148e+01 -2.796636e+01 -8.837202e+00 -8.614774e+00 9.409574e-01 1.523776e+01 -2.361779e+01 -3.468844e+01 -1.338211e+01 -1.032434e+01 -4.213383e+00 2.165293e+01 -1.400977e+01 -4.034552e+01 -2.031890e+01 -1.883236e+01 -4.649120e-01 -2.384373e+00 1.340088e+00 3.295646e-01 6.428596e-01 5.519575e-01 3.606447e-01 5.583612e-01 3.517956e-01 5.722560e-01 5.165251e-01 4.922208e-01 
1.220142e+00 -4.537082e-01 3.334557e+00 -1.562013e+00 -7.651863e+01 6.313621e-01 -9.027542e-01 -6.683144e-01 -1.306406e+00 -4.326123e-01 -1.382291e+00 -3.269352e-01 -1.498458e+00 -2.124130e+00 -4.077200e-01 -5.064183e+00 1.722301e+00 7.018761e+00 -2.006220e+00 6.917465e-01 -1.629385e+00 -5.443191e+00 2.445521e+00 5.356789e+00 -2.082802e+00 1.807641e+00 -1.423914e+00 -5.332732e+00 3.964065e+00 2.040311e+00 -3.032229e+00 3.895428e+00 -8.912243e-01 -4.835191e+00 4.435878e+00 -1.133437e+00 -3.985976e+00 5.881389e+00 -5.456589e-01 -3.434298e+00 2.860349e+00 -2.193648e+00 -3.293197e+00 5.875104e+00 -8.270389e-01 -2.483624e+00 7.326563e-01 -2.940002e+00 -7.163962e-01 4.093792e+00 -1.430274e+00 -7.072782e-01 -4.452579e-01 -1.565872e+00 4.131593e-01 -2.283675e-01 4.660554e-01 3.055301e-01 3.780110e-01 4.596458e-01 3.961727e-01 5.144425e-01 5.659846e-01 4.396138e-01 
1.258875e+00 -4.811507e-01 3.265429e+00 -1.453296e+00 -7.132110e+01 7.628372e-01 -7.783522e-01 -6.333320e-01 -1.226481e+00 -6.097315e-01 -1.139945e+00 -5.594369e-01 -8.952811e-01 -1.342366e+00 1.061277e-01 -3.081780e+00 1.454224e+00 2.259017e+00 -1.231295e+00 -2.061957e-01 -6.951006e-01 -3.297739e+00 1.778548e+00 2.488782e+00 -1.278519e+00 2.316885e-01 -6.346511e-01 -2.997000e+00 2.130634e+00 1.913517e+00 -1.299619e+00 1.058959e+00 -5.820127e-01 -2.019941e+00 1.783994e+00 -1.636034e-01 -9.258473e-01 2.074055e+00 -6.882662e-01 -1.207382e+00 1.036770e+00 -2.366443e+00 1.413561e-01 3.195962e+00 -8.182288e-01 -8.417130e-01 2.589842e-01 -3.983850e+00 1.548115e+00 4.140295e+00 -7.225700e-01 7.845663e-01 -4.695840e-01 -6.117784e-01 1.647237e-01 -2.276946e-01 3.435687e-01 1.594788e-01 3.670499e-01 3.503079e-01 4.268154e-01 4.376532e-01 6.064768e-01 3.744425e-01 
1.246460e+00 -4.787077e-01 3.078118e+00 -1.193892e+00 -6.584188e+01 6.982862e-01 -7.616055e-01 -6.057404e-01 -1.160204e+00 -6.663357e-01 -9.851278e-01 -7.697998e-01 -5.714701e-01 -1.182842e+00 2.184671e-01 -1.015367e+00 2.727941e-01 4.825418e-01 -5.656110e-01 -2.086356e-01 -8.275126e-02 -9.403386e-01 4.166512e-01 6.009827e-01 -6.496519e-01 -5.751092e-02 -5.517681e-04 -9.498603e-01 7.758222e-01 5.151156e-01 -8.230253e-01 3.454799e-01 9.975419e-03 -7.030171e-01 8.920698e-01 -8.502794e-02 -9.158511e-01 7.610937e-01 -6.170735e-02 -4.675337e-01 7.770409e-01 -7.670793e-01 -5.953056e-01 1.140488e+00 -1.280973e-01 -4.480309e-01 6.096663e-01 -1.270001e+00 3.801806e-02 1.855037e+00 -3.379111e-01 6.764081e-01 -1.834369e-01 -1.198856e-01 8.074226e-02 -1.027563e-01 2.481049e-01 1.203986e-01 3.286567e-01 2.865374e-01 4.180902e-01 3.787555e-01 6.057250e-01 3.198265e-01 
1.216311e+00 -4.863288e-01 2.918194e+00 -1.113473e+00 -6.004510e+01 7.336004e-01 -6.027686e-01 -5.456889e-01 -1.003087e+00 -6.389178e-01 -8.116068e-01 -6.587334e-01 -4.768240e-01 -8.284873e-01 -5.346411e-02 -7.197965e-01 -1.275667e-01 -6.570869e-02 -2.494935e-01 -1.640086e-01 -5.681627e-02 -4.528157e-01 5.636758e-02 6.125404e-03 -2.790080e-01 -1.559728e-02 5.165621e-03 -3.712040e-01 2.879167e-01 -3.290789e-02 -3.462614e-01 2.174211e-01 1.607426e-02 -2.261984e-01 3.722359e-01 -2.029442e-01 -4.051381e-01 3.743468e-01 -2.858313e-02 -9.751333e-02 3.419943e-01 -3.308969e-01 -2.797948e-01 4.333735e-01 -4.066348e-02 -4.509419e-02 2.863147e-01 -3.195431e-01 -1.182725e-02 6.894155e-01 -1.326353e-01 6.166468e-01 -6.997697e-02 1.322089e-01 7.726461e-02 2.774624e-02 2.083466e-01 1.280629e-01 3.017070e-01 2.443820e-01 4.059578e-01 3.227402e-01 5.966767e-01 2.626765e-01 
1.143314e+00 -4.701412e-01 2.674469e+00 -9.429284e-01 -5.400775e+01 6.616860e-01 -5.352556e-01 -5.259346e-01 -8.896537e-01 -6.260707e-01 -6.932474e-01 -6.134147e-01 -4.074425e-01 -6.270130e-01 -1.325701e-01 -5.029025e-01 -1.771822e-01 -2.868102e-01 -1.695056e-01 -2.059007e-01 -3.159976e-02 -2.362887e-01 -5.108195e-02 -1.283479e-01 -1.483543e-01 -8.339228e-02 3.758951e-02 -1.613211e-01 9.376950e-02 -8.278455e-02 -1.960154e-01 5.156417e-02 5.994110e-02 -8.435080e-02 1.799986e-01 -1.088763e-01 -2.726121e-01 1.404375e-01 4.113633e-02 -2.487789e-02 2.066562e-01 -1.226042e-01 -2.368479e-01 1.781321e-01 4.784459e-02 1.286134e-02 2.107224e-01 -2.639014e-02 -1.332846e-01 4.088323e-01 -6.997226e-02 3.902407e-01 1.399446e-03 1.709433e-01 8.331301e-02 9.758772e-02 1.754775e-01 1.456143e-01 2.632550e-01 2.230643e-01 3.697954e-01 2.833613e-01 5.562678e-01 2.192126e-01 
1.055971e+00 -4.523950e-01 2.435645e+00 -8.616740e-01 -4.769053e+01 6.365701e-01 -3.965985e-01 -4.592773e-01 -7.412769e-01 -5.511048e-01 -5.846413e-01 -4.898669e-01 -3.996495e-01 -4.551514e-01 -2.570969e-01 -4.220855e-01 -2.265735e-01 -2.842726e-01 -1.100717e-01 -2.417017e-01 -6.394852e-02 -2.076594e-01 -7.777731e-02 -1.277228e-01 -4.379354e-02 -1.094274e-01 1.946331e-03 -1.043786e-01 -4.558325e-03 -6.475274e-02 -4.933212e-02 -2.429769e-02 3.109064e-02 -4.078759e-02 3.662617e-02 -4.002298e-02 -9.463461e-02 3.400611e-02 3.202339e-02 2.143190e-03 6.083607e-02 -1.365102e-02 -1.005272e-01 8.540124e-02 3.690445e-02 6.007672e-02 6.293071e-02 8.204002e-02 -8.822274e-02 2.177758e-01 -1.053994e-03 2.222919e-01 6.093643e-02 1.721658e-01 1.089888e-01 1.527036e-01 1.628606e-01 1.720876e-01 2.327033e-01 2.110751e-01 3.334489e-01 2.465271e-01 5.111861e-01 1.760950e-01 
9.360085e-01 -4.172896e-01 2.143627e+00 -7.398491e-01 -4.118999e+01 5.589206e-01 -3.151277e-01 -4.261755e-01 -6.226185e-01 -5.006184e-01 -4.906944e-01 -3.978984e-01 -3.656916e-01 -2.994543e-01 -2.831778e-01 -3.259068e-01 -1.883863e-01 -3.471555e-01 -7.225034e-02 -2.524334e-01 -7.412796e-02 -1.430828e-01 -7.514113e-02 -1.351931e-01 1.961704e-02 -1.246695e-01 -1.581288e-02 -4.630660e-02 -6.494754e-02 -3.539046e-02 3.920126e-02 -8.587470e-02 1.594618e-02 -6.650088e-03 -5.090238e-02 3.359350e-02 1.056106e-02 -5.485136e-02 3.212889e-02 1.387009e-02 -1.888868e-02 7.389679e-02 -2.614919e-02 1.059195e-02 3.930539e-02 6.553601e-02 -9.681039e-03 1.430351e-01 -8.598046e-02 1.216036e-01 2.448968e-02 8.400058e-02 8.628925e-02 1.436055e-01 1.131015e-01 1.741754e-01 1.370673e-01 1.837904e-01 1.892818e-01 1.991410e-01 2.801251e-01 2.168100e-01 4.433125e-01 1.438663e-01 
8.050523e-01 -3.798604e-01 1.844615e+00 -6.642609e-01 -3.444501e+01 4.997436e-01 -2.014658e-01 -3.764722e-01 -4.748584e-01 -4.521505e-01 -3.629529e-01 -2.957162e-01 -3.111493e-01 -5.818439e-02 -3.758211e-01 -1.567176e-01 -3.120052e-01 -4.686318e-01 3.904120e-02 -3.166568e-01 -3.664123e-02 5.638146e-03 -1.771315e-01 -1.663712e-01 1.304961e-01 -2.265050e-01 2.652983e-02 9.541068e-02 -2.114565e-01 1.620125e-02 1.200575e-01 -2.779502e-01 9.437274e-02 8.730860e-02 -1.798497e-01 1.924786e-01 2.170924e-02 -2.868744e-01 1.525163e-01 5.064857e-02 -9.805573e-02 2.822393e-01 -1.008651e-01 -1.846147e-01 1.640358e-01 8.517491e-02 -6.560231e-02 3.551695e-01 -2.620618e-01 -6.694537e-02 1.254200e-01 -1.556737e-01 2.024027e-01 1.461401e-01 1.424330e-01 2.318397e-01 1.057045e-01 2.061116e-01 1.384884e-01 1.859848e-01 2.233411e-01 1.829603e-01 3.726821e-01 1.096552e-01 
6.532247e-01 -3.324657e-01 1.515406e+00 -5.727097e-01 -2.758282e+01 4.171263e-01 -1.177249e-01 -3.392569e-01 -3.453034e-01 -4.142944e-01 -2.504807e-01 -2.328914e-01 -2.475681e-01 1.595592e-01 -4.023877e-01 2.521526e-01 -4.034459e-01 -1.032672e+00 1.935200e-01 -2.390108e-01 7.441197e-03 4.363180e-01 -3.076741e-01 -5.546576e-01 2.787553e-01 -2.197192e-01 5.218799e-02 4.376965e-01 -4.044633e-01 -1.808277e-01 2.790932e-01 -4.054521e-01 1.275188e-01 3.149420e-01 -3.576860e-01 3.180943e-01 1.283503e-01 -6.011426e-01 2.168118e-01 1.980360e-01 -1.997938e-01 6.468867e-01 -1.227117e-01 -6.517751e-01 2.597811e-01 1.967484e-01 -1.018059e-01 8.152793e-01 -4.245048e-01 -5.951631e-01 2.178322e-01 -2.440967e-01 2.708629e-01 2.077103e-01 1.292854e-01 2.721718e-01 5.491839e-02 2.075376e-01 7.945560e-02 1.644284e-01 1.580392e-01 1.498617e-01 2.886476e-01 8.167035e-02 
4.958191e-01 -2.802200e-01 1.168798e+00 -4.876535e-01 -2.050425e+01 3.396740e-01 -4.183457e-02 -3.066405e-01 -2.096747e-01 -4.714989e-01 -6.091392e-02 -3.684693e-01 4.927496e-02 4.811864e-01 -2.907787e-01 1.734170e+00 -1.425599e+00 -2.806961e+00 8.344061e-01 -3.496787e-01 5.932926e-01 2.216594e+00 -1.286226e+00 -1.755450e+00 6.435945e-01 -7.564070e-01 6.730245e-01 1.915970e+00 -1.190285e+00 -5.079835e-01 2.314934e-01 -1.549567e+00 8.788215e-01 1.292684e+00 -6.610780e-01 1.122472e+00 -5.556792e-01 -2.348532e+00 1.109447e+00 7.236278e-01 -3.726005e-02 2.237371e+00 -1.297631e+00 -2.705989e+00 1.192084e+00 4.436120e-01 3.432096e-01 2.912441e+00 -1.867651e+00 -2.450645e+00 7.344542e-01 -4.920039e-01 6.899107e-01 5.921584e-01 5.974279e-02 3.792521e-01 -7.198192e-02 1.862261e-01 -6.371911e-03 1.208694e-01 8.978691e-02 1.057422e-01 2.064919e-01 5.049357e-02 
3.288158e-01 -2.228600e-01 8.107728e-01 -4.001264e-01 -1.338358e+01 2.542718e-01 3.006360e-02 -2.560374e-01 -8.061884e-02 -4.619360e-01 6.932042e-02 -4.657761e-01 1.922092e-01 4.542480e-02 4.311238e-01 2.901065e-01 -1.140632e+00 -1.124687e+00 2.459301e+00 6.172134e-01 1.172150e+00 1.959687e+00 -1.628438e+00 -4.886680e-01 2.506244e+00 1.450545e-01 1.145403e+00 2.292220e+00 -1.903323e+00 7.257578e-02 2.837516e+00 -4.252721e-01 1.233680e+00 2.167308e+00 -1.302908e+00 8.116086e-02 2.522851e+00 -6.982617e-01 1.642563e+00 1.641527e+00 -1.501337e-01 2.065060e-01 1.006783e+00 -5.671710e-01 2.229338e+00 1.343397e+00 7.516305e-01 1.212998e+00 -8.961496e-01 -4.594287e-01 2.385351e+00 6.759292e-01 7.542100e-01 9.995929e-01 -9.843157e-02 3.948394e-01 -1.827761e-01 1.331814e-01 -7.404305e-02 7.023135e-02 2.671769e-02 6.151446e-02 1.204093e-01 2.234700e-02 
1.642043e-01 -1.460933e-01 4.175744e-01 -2.387245e-01 -6.074506e+00 1.557292e-01 3.812059e-02 -1.406117e-01 -5.420493e-02 -4.718737e-01 3.647071e-02 -1.354441e+00 7.824057e-01 -5.100731e+00 6.061612e+00 -1.110332e+01 3.561075e-02 1.976955e+01 2.042921e+01 1.584824e+01 7.352364e+00 -5.846735e+00 -1.476092e+00 1.302655e+01 2.368766e+01 2.352567e+01 7.843381e+00 -1.667075e+00 -1.129686e+00 2.062043e+00 2.481116e+01 3.367303e+01 1.009523e+01 3.218675e+00 9.945113e-01 -1.060793e+01 2.024626e+01 3.986266e+01 1.464092e+01 6.890428e+00 3.688373e+00 -1.554381e+01 1.054744e+01 3.583569e+01 1.821922e+01 9.546520e+00 5.948826e+00 -1.322051e+01 2.576904e+00 2.748127e+01 2.015101e+01 1.924278e+01 1.244799e+00 1.985285e+00 -1.144282e+00 -7.504322e-02 -4.639194e-01 -7.249301e-02 -1.359375e-01 -8.249672e-03 -1.721583e-02 1.573975e-02 4.661080e-02 -2.810302e-03 
-2.836289e-03 -7.161392e-02 3.690153e-02 -1.151164e-01 1.192245e+00 6.758786e-02 8.399992e-02 -4.631219e-02 3.292494e-02 -4.365965e-01 1.214598e-01 -1.688421e+00 1.104514e+00 -6.562731e+00 7.589092e+00 -1.537381e+01 4.837994e+00 3.337422e+01 2.566742e+01 1.967043e+01 7.896958e+00 -1.084980e+01 1.908165e+00 2.329584e+01 3.199489e+01 3.141393e+01 8.462740e+00 -5.757962e+00 7.516818e-01 7.443957e+00 3.597480e+01 4.653720e+01 1.020024e+01 6.876947e-01 1.280428e+00 -1.026273e+01 3.270709e+01 5.641706e+01 1.408553e+01 5.429143e+00 3.424337e+00 -1.852178e+01 2.054373e+01 5.191863e+01 1.819622e+01 8.540882e+00 5.829294e+00 -1.781369e+01 9.443416e+00 4.126937e+01 2.208458e+01 2.163255e+01 -2.474585e-01 1.320983e+00 -1.448000e+00 -4.041983e-01 -4.999809e-01 -1.992021e-01 -1.470175e-01 -6.812544e-02 -5.404449e-02 -2.777179e-02 -2.903531e-02 -2.778545e-02 
-1.649611e-01 3.129723e-02 -3.870684e-01 1.257523e-01 8.552534e+00 -9.906428e-02 1.135860e-01 1.600691e-01 1.653035e-01 2.450643e-01 4.575272e-02 6.028830e-01 -3.469950e-01 1.958624e+00 -2.210728e+00 4.857223e+00 -2.227996e+00 -1.051273e+01 -7.024043e+00 -4.409898e+00 -2.216905e+00 4.032628e+00 -1.299352e+00 -8.491212e+00 -1.001275e+01 -8.745313e+00 -2.314597e+00 2.576715e+00 -5.451966e-01 -3.742584e+00 -1.285607e+01 -1.504667e+01 -2.742957e+00 3.364528e-01 -2.963328e-01 2.791014e+00 -1.324177e+01 -2.045880e+01 -4.010857e+00 -1.508924e+00 -9.371809e-01 6.723185e+00 -9.358965e+00 -2.081383e+01 -5.951678e+00 -2.873963e+00 -1.909182e+00 7.187674e+00 -4.929663e+00 -1.810086e+01 -8.464908e+00 -8.459683e+00 4.119866e-01 -5.751299e-01 5.751461e-01 1.311989e-01 1.612871e-01 5.118962e-02 2.361682e-03 -1.230696e-02 -5.426538e-02 -3.898682e-02 -9.235047e-02 -4.313529e-02 