# vtk DataFile Version 2.0
Comment goes here
ASCII

DATASET STRUCTURED_POINTS
FIELD FieldData 1
TIME 1 1 double
0.02400000
DIMENSIONS    64   64   1

ORIGIN    0.000   0.000   0.000
SPACING   0.03125 0.03125   1.000

POINT_DATA   4096
SCALARS P double
LOOKUP_TABLE default

-3.805401e+01 -2.137507e+02 -3.426959e+01 -2.136006e+02 -4.833597e+01 1.210201e+02 -3.446965e+01 1.179998e+02 -3.446489e+01 1.104667e+02 -2.921279e+01 9.757923e+01 -2.194196e+01 8.476499e+01 -1.263947e+01 6.639780e+01 1.421106e+00 4.562363e+01 1.071748e+01 3.355718e+01 6.506740e+00 3.076557e+01 -2.396469e-01 2.354430e+01 -2.995427e+00 1.301594e+01 -5.297159e+00 5.059661e+00 -1.295640e+01 -4.639222e-03 -2.010582e+01 -4.989836e+00 -3.185456e+01 -7.128950e+00 -4.062207e+01 -1.554271e+01 -4.256631e+01 -2.974220e+01 -4.153386e+01 -4.554613e+01 -3.787981e+01 -6.554880e+01 -2.999760e+01 -8.628220e+01 -2.669765e+01 -9.696102e+01 -3.924890e+01 -9.240773e+01 -5.862212e+01 -9.120760e+01 -7.060387e+01 -9.602518e+01 -7.771931e+01 -1.039859e+02 -8.401673e+01 -1.124178e+02 -8.530057e+01 -1.251704e+02 -8.038209e+01 -1.458080e+02 -7.026710e+01 -1.677702e+02 -5.881308e+01 -1.948614e+02 
-9.623228e+00 -1.388172e+02 -9.205258e+00 -1.395411e+02 -2.066141e+01 1.078980e+02 -1.123625e+01 1.044097e+02 -1.218073e+01 9.852508e+01 -1.019212e+01 8.971671e+01 -7.406520e+00 8.138532e+01 -3.784367e+00 6.992221e+01 2.815441e+00 5.677333e+01 7.296366e+00 4.814677e+01 4.666715e+00 4.433614e+01 1.338646e+00 3.753272e+01 5.976570e-01 2.872881e+01 3.483913e-01 2.133486e+01 -2.897181e+00 1.552914e+01 -5.486523e+00 9.660325e+00 -1.091311e+01 5.709654e+00 -1.484251e+01 -1.461288e+00 -1.540620e+01 -1.133904e+01 -1.494801e+01 -2.157551e+01 -1.337334e+01 -3.408899e+01 -9.151572e+00 -4.743871e+01 -6.799705e+00 -5.592203e+01 -1.253122e+01 -5.639798e+01 -2.149584e+01 -5.925452e+01 -2.604716e+01 -6.534740e+01 -2.826315e+01 -7.261490e+01 -3.092761e+01 -7.930768e+01 -3.151345e+01 -8.765818e+01 -2.937368e+01 -9.986255e+01 -2.492146e+01 -1.121380e+02 -2.026979e+01 -1.275324e+02 
4.233873e+00 -8.808227e+01 3.439400e+00 -8.949518e+01 -8.183943e-01 9.270598e+01 1.902406e+00 9.014620e+01 1.222498e+00 8.618308e+01 1.180877e+00 8.104782e+01 1.115056e+00 7.580898e+01 1.025772e+00 6.967984e+01 1.678911e+00 6.283664e+01 2.224734e+00 5.656424e+01 1.649113e+00 5.089352e+01 1.347745e+00 4.432536e+01 1.662147e+00 3.728406e+01 2.169847e+00 3.044582e+01 2.090254e+00 2.392659e+01 2.165603e+00 1.739998e+01 1.514104e+00 1.135633e+01 1.064353e+00 4.840532e+00 9.803109e-01 -1.887856e+00 7.760284e-01 -8.447013e+00 6.494169e-01 -1.538214e+01 1.196029e+00 -2.268551e+01 1.763813e+00 -2.949831e+01 1.222639e+00 -3.508484e+01 3.826555e-01 -4.133321e+01 5.664423e-01 -4.805396e+01 1.040692e+00 -5.462781e+01 1.014747e+00 -6.052851e+01 1.070918e+00 -6.622237e+01 1.369066e+00 -7.223433e+01 1.934915e+00 -7.768343e+01 2.320877e+00 -8.351576e+01 
3.024943e+00 -9.202745e+01 2.992626e+00 -9.497159e+01 2.648250e+00 9.675168e+01 1.797888e+00 9.341123e+01 1.152897e+00 8.885417e+01 1.001831e+00 8.335099e+01 1.098784e+00 7.740259e+01 1.417616e+00 7.082720e+01 2.120482e+00 6.388947e+01 2.620579e+00 5.733815e+01 2.399937e+00 5.115146e+01 2.116673e+00 4.456197e+01 2.123375e+00 3.764756e+01 2.219667e+00 3.081948e+01 2.017167e+00 2.422896e+01 1.714257e+00 1.775869e+01 1.081861e+00 1.145342e+01 5.955369e-01 4.834856e+00 4.274563e-01 -2.080756e+00 4.037308e-01 -9.127729e+00 5.750361e-01 -1.643532e+01 1.051490e+00 -2.379493e+01 1.321756e+00 -3.058490e+01 8.110243e-01 -3.655606e+01 5.588298e-03 -4.268061e+01 -2.927512e-01 -4.914594e+01 -2.787011e-01 -5.563562e+01 -3.502434e-01 -6.187912e+01 -2.829221e-01 -6.810857e+01 8.814030e-02 -7.454585e+01 7.627060e-01 -8.083282e+01 1.611371e+00 -8.699374e+01 
3.049758e+00 -8.770970e+01 3.026357e+00 -9.071184e+01 2.950262e+00 9.354901e+01 2.216143e+00 9.027871e+01 1.694887e+00 8.606193e+01 1.465753e+00 8.106544e+01 1.363291e+00 7.561519e+01 1.366330e+00 6.964452e+01 1.589806e+00 6.330996e+01 1.766417e+00 5.702043e+01 1.642529e+00 5.080187e+01 1.558618e+00 4.428532e+01 1.668110e+00 3.755128e+01 1.835082e+00 3.083296e+01 1.835723e+00 2.422160e+01 1.766775e+00 1.767025e+01 1.485470e+00 1.122982e+01 1.228614e+00 4.661218e+00 1.085145e+00 -2.014125e+00 9.732590e-01 -8.714141e+00 9.502430e-01 -1.554491e+01 1.122209e+00 -2.244366e+01 1.264449e+00 -2.910914e+01 1.080713e+00 -3.539197e+01 8.088926e-01 -4.176931e+01 8.312964e-01 -4.826158e+01 1.002437e+00 -5.465296e+01 1.101788e+00 -6.076518e+01 1.243135e+00 -6.669356e+01 1.506913e+00 -7.253708e+01 1.898058e+00 -7.808126e+01 2.339419e+00 -8.333307e+01 
2.184639e+00 -9.175775e+01 2.412681e+00 -9.554543e+01 2.426788e+00 9.713475e+01 1.908413e+00 9.335516e+01 1.497235e+00 8.866055e+01 1.323726e+00 8.324131e+01 1.348346e+00 7.732129e+01 1.536811e+00 7.097787e+01 1.854521e+00 6.439320e+01 2.086072e+00 5.783948e+01 2.072055e+00 5.133960e+01 1.977181e+00 4.469932e+01 1.931623e+00 3.792710e+01 1.885913e+00 3.116093e+01 1.727881e+00 2.447765e+01 1.479271e+00 1.785610e+01 1.129585e+00 1.125881e+01 8.295800e-01 4.534707e+00 6.649456e-01 -2.345364e+00 6.156789e-01 -9.335930e+00 6.762969e-01 -1.641797e+01 8.159449e-01 -2.345892e+01 8.448455e-01 -3.022946e+01 5.999126e-01 -3.667623e+01 2.405192e-01 -4.308224e+01 3.254076e-02 -4.955788e+01 -2.203902e-02 -5.602508e+01 -1.229156e-02 -6.239917e+01 1.144369e-01 -6.871873e+01 4.186927e-01 -7.500246e+01 8.998885e-01 -8.109750e+01 1.504298e+00 -8.682754e+01 
2.516464e+00 -8.878971e+01 2.658245e+00 -9.275190e+01 2.724813e+00 9.520078e+01 2.251832e+00 9.125450e+01 1.869507e+00 8.666441e+01 1.637740e+00 8.150963e+01 1.520599e+00 7.592276e+01 1.496294e+00 6.996013e+01 1.559724e+00 6.373111e+01 1.619448e+00 5.739834e+01 1.599240e+00 5.100005e+01 1.581315e+00 4.445779e+01 1.621041e+00 3.779915e+01 1.673154e+00 3.111573e+01 1.661999e+00 2.446037e+01 1.589610e+00 1.783269e+01 1.439545e+00 1.123086e+01 1.281287e+00 4.584725e+00 1.160828e+00 -2.119015e+00 1.080474e+00 -8.858674e+00 1.053192e+00 -1.564271e+01 1.087759e+00 -2.242572e+01 1.110390e+00 -2.909505e+01 1.037738e+00 -3.561137e+01 9.434533e-01 -4.210016e+01 9.516071e-01 -4.857870e+01 1.040639e+00 -5.496801e+01 1.150367e+00 -6.119510e+01 1.301816e+00 -6.726025e+01 1.523151e+00 -7.315960e+01 1.814473e+00 -7.880205e+01 2.149091e+00 -8.409136e+01 
1.744979e+00 -9.267833e+01 1.992966e+00 -9.716776e+01 2.117184e+00 9.853018e+01 1.830015e+00 9.415880e+01 1.582240e+00 8.915664e+01 1.452664e+00 8.361338e+01 1.445722e+00 7.764887e+01 1.537321e+00 7.135732e+01 1.684312e+00 6.485534e+01 1.802959e+00 5.827545e+01 1.826149e+00 5.165675e+01 1.790275e+00 4.496076e+01 1.743492e+00 3.819751e+01 1.671370e+00 3.142214e+01 1.539801e+00 2.466924e+01 1.355387e+00 1.793323e+01 1.134286e+00 1.119105e+01 9.303706e-01 4.386276e+00 7.876273e-01 -2.504602e+00 7.166337e-01 -9.458465e+00 6.999451e-01 -1.644170e+01 7.028445e-01 -2.338389e+01 6.597466e-01 -3.018881e+01 5.166122e-01 -3.683808e+01 3.301636e-01 -4.342164e+01 2.066515e-01 -4.998890e+01 1.701989e-01 -5.652123e+01 2.080789e-01 -6.298748e+01 3.374016e-01 -6.937852e+01 5.780038e-01 -7.566448e+01 9.234066e-01 -8.174884e+01 1.335620e+00 -8.749024e+01 
2.170521e+00 -9.061309e+01 2.322391e+00 -9.534691e+01 2.415674e+00 9.751410e+01 2.132207e+00 9.286957e+01 1.877166e+00 8.781716e+01 1.697849e+00 8.237350e+01 1.593054e+00 7.659484e+01 1.547578e+00 7.053222e+01 1.544497e+00 6.424941e+01 1.561399e+00 5.783675e+01 1.559519e+00 5.133733e+01 1.552915e+00 4.474310e+01 1.567511e+00 3.807086e+01 1.580396e+00 3.137159e+01 1.557178e+00 2.467242e+01 1.497495e+00 1.797109e+01 1.406510e+00 1.127622e+01 1.298943e+00 4.563003e+00 1.199917e+00 -2.189939e+00 1.135719e+00 -8.961434e+00 1.095987e+00 -1.574301e+01 1.073561e+00 -2.251828e+01 1.062323e+00 -2.923122e+01 1.025197e+00 -3.586157e+01 9.832589e-01 -4.244738e+01 9.973945e-01 -4.899096e+01 1.063356e+00 -5.545119e+01 1.162233e+00 -6.179258e+01 1.297273e+00 -6.799896e+01 1.476031e+00 -7.404806e+01 1.694758e+00 -7.988656e+01 1.935945e+00 -8.544251e+01 
1.441469e+00 -9.428135e+01 1.647789e+00 -9.943096e+01 1.784796e+00 1.006376e+02 1.652402e+00 9.561560e+01 1.527388e+00 9.019625e+01 1.456902e+00 8.440379e+01 1.450095e+00 7.829698e+01 1.490453e+00 7.193802e+01 1.551893e+00 6.538844e+01 1.620605e+00 5.874377e+01 1.642129e+00 5.204407e+01 1.618632e+00 4.528419e+01 1.584773e+00 3.847882e+01 1.521059e+00 3.166177e+01 1.411880e+00 2.484464e+01 1.275451e+00 1.801895e+01 1.125833e+00 1.118626e+01 9.724199e-01 4.320479e+00 8.417655e-01 -2.602707e+00 7.643086e-01 -9.552993e+00 7.068316e-01 -1.650728e+01 6.454026e-01 -2.344227e+01 5.852426e-01 -3.029995e+01 4.856228e-01 -3.706756e+01 3.650624e-01 -4.378338e+01 2.980474e-01 -5.046188e+01 2.894724e-01 -5.709081e+01 3.378804e-01 -6.365787e+01 4.516500e-01 -7.014926e+01 6.366847e-01 -7.653297e+01 8.843573e-01 -8.274517e+01 1.167634e+00 -8.869643e+01 
1.882460e+00 -9.283592e+01 1.998288e+00 -9.826751e+01 2.069590e+00 1.002733e+02 1.928141e+00 9.493873e+01 1.786341e+00 8.937968e+01 1.677546e+00 8.357816e+01 1.607472e+00 7.754906e+01 1.562041e+00 7.131634e+01 1.522045e+00 6.489324e+01 1.528579e+00 5.836105e+01 1.528252e+00 5.176676e+01 1.511670e+00 4.510253e+01 1.521222e+00 3.837140e+01 1.526639e+00 3.162911e+01 1.495188e+00 2.488350e+01 1.443937e+00 1.810570e+01 1.391464e+00 1.134162e+01 1.309614e+00 4.575687e+00 1.211191e+00 -2.241826e+00 1.166685e+00 -9.052981e+00 1.121783e+00 -1.585325e+01 1.058647e+00 -2.267192e+01 1.046140e+00 -2.944724e+01 1.022425e+00 -3.616010e+01 9.789018e-01 -4.284386e+01 9.985800e-01 -4.949014e+01 1.056564e+00 -5.605456e+01 1.141047e+00 -6.252529e+01 1.253062e+00 -6.889431e+01 1.392920e+00 -7.514475e+01 1.554706e+00 -8.124568e+01 1.724911e+00 -8.715694e+01 
1.184311e+00 -9.627200e+01 1.329452e+00 -1.020551e+02 1.427585e+00 1.031997e+02 1.416719e+00 9.752660e+01 1.394063e+00 9.163819e+01 1.389090e+00 8.552235e+01 1.406923e+00 7.919886e+01 1.427499e+00 7.269801e+01 1.425641e+00 6.601394e+01 1.486615e+00 5.926726e+01 1.503135e+00 5.248665e+01 1.465973e+00 4.564736e+01 1.458334e+00 3.877439e+01 1.416714e+00 3.190325e+01 1.318289e+00 2.502317e+01 1.215399e+00 1.811586e+01 1.120897e+00 1.121738e+01 9.928303e-01 4.303897e+00 8.506658e-01 -2.671837e+00 7.911153e-01 -9.640496e+00 7.172762e-01 -1.659752e+01 5.993773e-01 -2.357586e+01 5.553026e-01 -3.049653e+01 4.789302e-01 -3.735308e+01 3.591066e-01 -4.419181e+01 3.363813e-01 -5.098906e+01 3.517189e-01 -5.772375e+01 4.017326e-01 -6.440375e+01 4.951960e-01 -7.102551e+01 6.337921e-01 -7.756711e+01 8.089210e-01 -8.398905e+01 1.001526e+00 -9.024080e+01 
1.612244e+00 -9.525360e+01 1.674765e+00 -1.013313e+02 1.695177e+00 1.032881e+02 1.674125e+00 9.729556e+01 1.635452e+00 9.122221e+01 1.605262e+00 8.503197e+01 1.590857e+00 7.871499e+01 1.570503e+00 7.227515e+01 1.479607e+00 6.564118e+01 1.499591e+00 5.895681e+01 1.506958e+00 5.226657e+01 1.462725e+00 4.551542e+01 1.481277e+00 3.869315e+01 1.503112e+00 3.189855e+01 1.462625e+00 2.510788e+01 1.402928e+00 1.823602e+01 1.397754e+00 1.141897e+01 1.333965e+00 4.619834e+00 1.188923e+00 -2.293921e+00 1.190087e+00 -9.144922e+00 1.156165e+00 -1.595905e+01 1.018841e+00 -2.286869e+01 1.038310e+00 -2.971487e+01 1.032695e+00 -3.649344e+01 9.386609e-01 -4.329635e+01 9.675378e-01 -5.007188e+01 1.020662e+00 -5.674659e+01 1.091193e+00 -6.335359e+01 1.181711e+00 -6.990079e+01 1.288300e+00 -7.637995e+01 1.403557e+00 -8.277550e+01 1.516440e+00 -8.907050e+01 
9.423751e-01 -9.845591e+01 1.018503e+00 -1.048380e+02 1.050391e+00 1.060126e+02 1.145452e+00 9.971845e+01 1.214887e+00 9.335162e+01 1.282298e+00 8.687824e+01 1.352003e+00 8.029030e+01 1.386630e+00 7.360505e+01 1.274122e+00 6.670207e+01 1.377360e+00 5.984078e+01 1.404140e+00 5.298272e+01 1.313170e+00 4.602421e+01 1.357480e+00 3.908387e+01 1.355710e+00 3.216449e+01 1.245125e+00 2.519783e+01 1.154520e+00 1.821954e+01 1.135782e+00 1.127928e+01 1.024103e+00 4.314748e+00 8.004419e-01 -2.736935e+00 8.193116e-01 -9.722513e+00 7.572443e-01 -1.669174e+01 5.127502e-01 -2.376671e+01 5.503607e-01 -3.074020e+01 5.020431e-01 -3.766522e+01 2.883010e-01 -4.467156e+01 3.403793e-01 -5.157951e+01 3.724206e-01 -5.840416e+01 4.172615e-01 -6.520003e+01 4.911112e-01 -7.197296e+01 5.920325e-01 -7.870785e+01 7.110283e-01 -8.538175e+01 8.338576e-01 -9.197039e+01 
1.349666e+00 -9.772499e+01 1.350948e+00 -1.043977e+02 1.302958e+00 1.063997e+02 1.389680e+00 9.979595e+01 1.444714e+00 9.322750e+01 1.495389e+00 8.664902e+01 1.560424e+00 8.003283e+01 1.625039e+00 7.337405e+01 1.422082e+00 6.640779e+01 1.431330e+00 5.960354e+01 1.491108e+00 5.284231e+01 1.425167e+00 4.592376e+01 1.416466e+00 3.902974e+01 1.497498e+00 3.221060e+01 1.483115e+00 2.531482e+01 1.329002e+00 1.835058e+01 1.418120e+00 1.152998e+01 1.420897e+00 4.686329e+00 1.091271e+00 -2.385225e+00 1.203035e+00 -9.225164e+00 1.241961e+00 -1.602901e+01 9.185793e-01 -2.314098e+01 1.015116e+00 -3.000389e+01 1.074837e+00 -3.680786e+01 8.715125e-01 -4.385789e+01 8.992900e-01 -5.073831e+01 9.483188e-01 -5.748815e+01 1.014363e+00 -6.422862e+01 1.091871e+00 -7.096326e+01 1.172152e+00 -7.768340e+01 1.248117e+00 -8.438294e+01 1.311061e+00 -9.106088e+01 
7.074930e-01 -1.006937e+02 7.115852e-01 -1.076308e+02 6.624369e-01 1.089106e+02 8.530183e-01 1.020434e+02 1.004429e+00 9.522136e+01 1.145205e+00 8.839830e+01 1.300516e+00 8.153188e+01 1.454039e+00 7.456489e+01 1.050278e+00 6.730071e+01 1.204810e+00 6.048012e+01 1.343713e+00 5.356010e+01 1.133918e+00 4.624902e+01 1.209159e+00 3.943734e+01 1.324696e+00 3.252784e+01 1.187013e+00 2.520829e+01 9.944738e-01 1.834721e+01 1.171931e+00 1.144148e+01 1.130379e+00 4.232274e+00 5.661095e-01 -2.835792e+00 8.582004e-01 -9.748908e+00 8.969499e-01 -1.681940e+01 2.596150e-01 -2.409634e+01 5.656237e-01 -3.096744e+01 5.985264e-01 -3.793861e+01 5.016225e-02 -4.541482e+01 3.342528e-01 -5.222569e+01 3.514598e-01 -5.908779e+01 3.921700e-01 -6.600399e+01 4.546422e-01 -7.294602e+01 5.269794e-01 -7.989420e+01 6.007243e-01 -8.683694e+01 6.654170e-01 -9.376884e+01 
1.095958e+00 -1.001452e+02 1.033061e+00 -1.073579e+02 9.075419e-01 1.094726e+02 1.090223e+00 1.023134e+02 1.224434e+00 9.528696e+01 1.340483e+00 8.835255e+01 1.479140e+00 8.149445e+01 1.726571e+00 7.467115e+01 1.602598e+00 6.672014e+01 9.995375e-01 6.037051e+01 1.358413e+00 5.369244e+01 1.653789e+00 4.584766e+01 1.062417e+00 3.944466e+01 1.360098e+00 3.282823e+01 1.762988e+00 2.507671e+01 1.003040e+00 1.846720e+01 1.314070e+00 1.189028e+01 1.729246e+00 4.546049e+00 8.039899e-01 -2.653793e+00 1.053841e+00 -9.150515e+00 1.432249e+00 -1.606318e+01 8.104387e-01 -2.380512e+01 7.791275e-01 -3.018663e+01 1.075150e+00 -3.689072e+01 9.599782e-01 -4.504630e+01 6.141607e-01 -5.140136e+01 8.075199e-01 -5.819941e+01 9.179197e-01 -6.509494e+01 9.963036e-01 -7.202910e+01 1.055225e+00 -7.899305e+01 1.095705e+00 -8.599084e+01 1.112483e+00 -9.303441e+01 
4.815845e-01 -1.028810e+02 4.146705e-01 -1.103212e+02 2.801768e-01 1.117517e+02 5.548545e-01 1.043672e+02 7.716174e-01 9.713189e+01 9.585723e-01 9.002230e+01 1.156154e+00 8.305714e+01 1.482078e+00 7.616552e+01 1.441217e+00 6.749121e+01 8.672913e-01 6.130101e+01 1.250863e+00 5.461255e+01 1.609411e+00 4.617092e+01 9.190333e-01 3.992929e+01 1.229295e+00 3.331403e+01 1.743075e+00 2.502270e+01 7.652031e-01 1.852850e+01 1.095483e+00 1.195056e+01 1.652381e+00 4.222066e+00 4.527398e-01 -3.057844e+00 7.241647e-01 -9.535385e+00 1.235253e+00 -1.664907e+01 4.159459e-01 -2.467821e+01 3.146478e-01 -3.099720e+01 7.332680e-01 -3.780109e+01 6.115566e-01 -4.641058e+01 -2.802111e-02 -5.267117e+01 2.151051e-01 -5.967194e+01 3.335539e-01 -6.677085e+01 4.043298e-01 -7.390506e+01 4.540786e-01 -8.107396e+01 4.880245e-01 -8.828401e+01 5.009080e-01 -9.554641e+01 
8.568174e-01 -1.024333e+02 7.315178e-01 -1.101271e+02 5.309183e-01 1.123892e+02 7.960501e-01 1.047315e+02 9.961842e-01 9.728022e+01 1.155729e+00 8.999226e+01 1.296678e+00 8.283595e+01 1.437134e+00 7.572509e+01 1.207116e+00 6.768313e+01 1.260391e+00 6.099487e+01 1.369880e+00 5.414566e+01 1.315732e+00 4.640517e+01 1.248140e+00 3.972890e+01 1.394073e+00 3.294536e+01 1.470866e+00 2.537414e+01 1.121173e+00 1.857986e+01 1.357572e+00 1.181942e+01 1.536956e+00 4.544045e+00 8.504672e-01 -2.604334e+00 1.127478e+00 -9.337643e+00 1.357817e+00 -1.635358e+01 7.483840e-01 -2.383322e+01 8.737087e-01 -3.052839e+01 1.086069e+00 -3.745704e+01 7.983620e-01 -4.521700e+01 6.399194e-01 -5.191529e+01 7.776315e-01 -5.887748e+01 8.651025e-01 -6.593748e+01 9.206946e-01 -7.306463e+01 9.504634e-01 -8.026020e+01 9.541755e-01 -8.753736e+01 9.262832e-01 -9.491792e+01 
2.703771e-01 -1.049372e+02 1.380534e-01 -1.128233e+02 -7.170474e-02 1.144148e+02 2.737360e-01 1.065602e+02 5.503530e-01 9.891318e+01 7.834339e-01 9.142212e+01 9.960222e-01 8.403264e+01 1.181855e+00 7.666976e+01 9.433770e-01 6.899487e+01 1.163056e+00 6.179447e+01 1.261113e+00 5.464285e+01 1.098086e+00 4.722433e+01 1.188770e+00 4.012117e+01 1.285975e+00 3.304591e+01 1.189194e+00 2.573984e+01 1.031925e+00 1.862589e+01 1.178553e+00 1.159095e+01 1.156106e+00 4.400462e+00 6.861873e-01 -2.851251e+00 9.063867e-01 -9.889647e+00 9.449307e-01 -1.699529e+01 4.122772e-01 -2.437214e+01 6.223565e-01 -3.144183e+01 6.752177e-01 -3.856498e+01 2.387160e-01 -4.605320e+01 3.397187e-01 -5.317886e+01 3.408084e-01 -6.031998e+01 3.592604e-01 -6.754109e+01 3.803035e-01 -7.483653e+01 3.906998e-01 -8.220763e+01 3.824486e-01 -8.966617e+01 3.464370e-01 -9.723258e+01 
6.383155e-01 -1.045251e+02 4.556890e-01 -1.126389e+02 1.890116e-01 1.150527e+02 5.232281e-01 1.069508e+02 7.819475e-01 9.910053e+01 9.863513e-01 9.144375e+01 1.151382e+00 8.392195e+01 1.268355e+00 7.648079e+01 1.173596e+00 6.899312e+01 1.280862e+00 6.166777e+01 1.354714e+00 5.446842e+01 1.298760e+00 4.724334e+01 1.339502e+00 4.006932e+01 1.406998e+00 3.298792e+01 1.377215e+00 2.588664e+01 1.295272e+00 1.875464e+01 1.368871e+00 1.173073e+01 1.350177e+00 4.705181e+00 1.111529e+00 -2.472074e+00 1.196568e+00 -9.500144e+00 1.200845e+00 -1.650163e+01 9.332509e-01 -2.373496e+01 1.010297e+00 -3.082047e+01 1.025779e+00 -3.788201e+01 8.131792e-01 -4.516700e+01 8.463750e-01 -5.235859e+01 8.554909e-01 -5.951206e+01 8.669617e-01 -6.673040e+01 8.738713e-01 -7.403517e+01 8.642741e-01 -8.144162e+01 8.287310e-01 -8.897100e+01 7.574499e-01 -9.665256e+01 
7.888429e-02 -1.067988e+02 -1.119457e-01 -1.150704e+02 -3.878624e-01 1.168152e+02 1.562141e-02 1.085491e+02 3.396499e-01 1.005331e+02 6.027979e-01 9.270965e+01 8.141432e-01 8.502561e+01 9.541572e-01 7.743908e+01 9.332505e-01 6.987521e+01 1.062082e+00 6.240473e+01 1.136936e+00 5.504878e+01 1.097791e+00 4.772849e+01 1.148099e+00 4.042778e+01 1.188471e+00 3.320113e+01 1.132717e+00 2.599874e+01 1.076602e+00 1.876198e+01 1.099545e+00 1.159250e+01 1.031667e+00 4.439352e+00 8.526767e-01 -2.812802e+00 8.759663e-01 -9.989150e+00 8.204646e-01 -1.714386e+01 6.053122e-01 -2.443478e+01 6.308249e-01 -3.166751e+01 5.865097e-01 -3.888589e+01 3.881261e-01 -4.623128e+01 4.080710e-01 -5.355708e+01 3.972911e-01 -6.087118e+01 3.809692e-01 -6.824035e+01 3.634139e-01 -7.569386e+01 3.357176e-01 -8.325088e+01 2.872192e-01 -9.093326e+01 2.062329e-01 -9.876980e+01 
4.448403e-01 -1.063692e+02 2.111996e-01 -1.148402e+02 -1.134177e-01 1.173984e+02 2.782131e-01 1.089170e+02 5.849884e-01 1.007244e+02 8.240942e-01 9.276278e+01 1.004837e+00 8.498031e+01 1.120170e+00 7.733715e+01 1.140106e+00 6.978021e+01 1.225470e+00 6.230620e+01 1.286858e+00 5.495095e+01 1.285754e+00 4.766855e+01 1.320944e+00 4.040546e+01 1.355862e+00 3.321721e+01 1.337574e+00 2.607619e+01 1.310464e+00 1.890735e+01 1.324209e+00 1.179343e+01 1.285202e+00 4.706735e+00 1.185287e+00 -2.450424e+00 1.185590e+00 -9.564496e+00 1.145821e+00 -1.666110e+01 1.024844e+00 -2.385161e+01 1.022213e+00 -3.102716e+01 9.887967e-01 -3.819919e+01 8.804453e-01 -4.546118e+01 8.800181e-01 -5.275648e+01 8.747987e-01 -6.006427e+01 8.595296e-01 -6.743489e+01 8.340343e-01 -7.490331e+01 7.906885e-01 -8.249768e+01 7.194189e-01 -9.024798e+01 6.086866e-01 -9.819025e+01 
-8.904922e-02 -1.084152e+02 -3.308284e-01 -1.170102e+02 -6.647555e-01 1.188959e+02 -2.134381e-01 1.102856e+02 1.485353e-01 1.019626e+02 4.361753e-01 9.387116e+01 6.565085e-01 8.596334e+01 8.047203e-01 7.819927e+01 8.763200e-01 7.053100e+01 9.766029e-01 6.295067e+01 1.046229e+00 5.547649e+01 1.063245e+00 4.807551e+01 1.096422e+00 4.070965e+01 1.116873e+00 3.340648e+01 1.091824e+00 2.614597e+01 1.060230e+00 1.887895e+01 1.044117e+00 1.164884e+01 9.851396e-01 4.437641e+00 8.914935e-01 -2.814247e+00 8.545050e-01 -1.004540e+01 7.870677e-01 -1.727082e+01 6.734654e-01 -2.455680e+01 6.327544e-01 -3.184615e+01 5.699461e-01 -3.914444e+01 4.648890e-01 -4.650918e+01 4.385637e-01 -5.391338e+01 4.155296e-01 -6.134918e+01 3.837355e-01 -6.884913e+01 3.422114e-01 -7.644534e+01 2.850635e-01 -8.416662e+01 2.026556e-01 -9.204333e+01 8.284725e-02 -1.001114e+02 
2.797433e-01 -1.079248e+02 2.313899e-03 -1.166894e+02 -3.723291e-01 1.193798e+02 6.682414e-02 1.105882e+02 4.130654e-01 1.021178e+02 6.819625e-01 9.391301e+01 8.827705e-01 8.592527e+01 1.017695e+00 7.811240e+01 1.093634e+00 7.042767e+01 1.176371e+00 6.284986e+01 1.238011e+00 5.538824e+01 1.265082e+00 4.801493e+01 1.296629e+00 4.069150e+01 1.320816e+00 3.343536e+01 1.315714e+00 2.622897e+01 1.302112e+00 1.902856e+01 1.296741e+00 1.186297e+01 1.262868e+00 4.717845e+00 1.205077e+00 -2.453808e+00 1.179006e+00 -9.614297e+00 1.134410e+00 -1.677415e+01 1.061345e+00 -2.398187e+01 1.028960e+00 -3.120692e+01 9.852510e-01 -3.845183e+01 9.170738e-01 -4.575880e+01 8.921483e-01 -5.312439e+01 8.721937e-01 -6.054089e+01 8.413307e-01 -6.803583e+01 7.948373e-01 -7.564319e+01 7.261619e-01 -8.339683e+01 6.257876e-01 -9.133277e+01 4.817815e-01 -9.949233e+01 
-2.299344e-01 -1.097469e+02 -5.142210e-01 -1.186022e+02 -8.971586e-01 1.206130e+02 -4.065084e-01 1.117280e+02 -1.293852e-02 1.031611e+02 2.979619e-01 9.485817e+01 5.347843e-01 8.677182e+01 7.014268e-01 7.885918e+01 8.101107e-01 7.107482e+01 9.113443e-01 6.340161e+01 9.839091e-01 5.583962e+01 1.020926e+00 4.836269e+01 1.053377e+00 4.094166e+01 1.070791e+00 3.358345e+01 1.058860e+00 2.627097e+01 1.036094e+00 1.897136e+01 1.012785e+00 1.170110e+01 9.633070e-01 4.447081e+00 8.946521e-01 -2.825238e+00 8.457690e-01 -1.009187e+01 7.812384e-01 -1.736209e+01 6.963887e-01 -2.467141e+01 6.403516e-01 -3.200104e+01 5.765887e-01 -3.935461e+01 4.980226e-01 -4.676413e+01 4.548405e-01 -5.423089e+01 4.194762e-01 -6.175366e+01 3.756631e-01 -6.935590e+01 3.175469e-01 -7.706916e+01 2.387368e-01 -8.492643e+01 1.298572e-01 -9.296322e+01 -2.133573e-02 -1.012204e+02 
1.461817e-01 -1.091600e+02 -1.668948e-01 -1.181540e+02 -5.828033e-01 1.209590e+02 -1.052319e-01 1.119272e+02 2.734943e-01 1.032426e+02 5.693692e-01 9.485048e+01 7.929720e-01 8.670228e+01 9.492152e-01 7.875370e+01 1.046662e+00 7.095453e+01 1.139004e+00 6.328226e+01 1.206353e+00 5.574028e+01 1.241400e+00 4.829853e+01 1.275625e+00 4.091736e+01 1.301106e+00 3.361102e+01 1.300462e+00 2.636079e+01 1.289690e+00 1.912176e+01 1.285130e+00 1.191979e+01 1.256227e+00 4.740149e+00 1.205387e+00 -2.462375e+00 1.179583e+00 -9.656275e+00 1.138448e+00 -1.685205e+01 1.072640e+00 -2.409323e+01 1.037524e+00 -3.135924e+01 9.938980e-01 -3.865253e+01 9.291639e-01 -4.600884e+01 8.933998e-01 -5.343773e+01 8.619407e-01 -6.093240e+01 8.189716e-01 -6.851987e+01 7.578531e-01 -7.623520e+01 6.711113e-01 -8.411479e+01 5.488550e-01 -9.219774e+01 3.788205e-01 -1.005287e+02 
-3.402754e-01 -1.107643e+02 -6.577846e-01 -1.198157e+02 -1.079580e+00 1.219301e+02 -5.577162e-01 1.128399e+02 -1.380456e-01 1.040915e+02 1.949213e-01 9.563064e+01 4.511428e-01 8.740892e+01 6.342609e-01 7.938257e+01 7.504272e-01 7.149869e+01 8.642108e-01 6.374350e+01 9.427602e-01 5.611733e+01 9.809243e-01 4.858631e+01 1.019859e+00 4.111540e+01 1.043025e+00 3.371812e+01 1.033461e+00 2.637378e+01 1.013192e+00 1.903897e+01 9.981196e-01 1.174138e+01 9.539955e-01 4.464783e+00 8.841152e-01 -2.837752e+00 8.445029e-01 -1.012956e+01 7.862436e-01 -1.742291e+01 6.983598e-01 -2.476472e+01 6.491773e-01 -3.212783e+01 5.892957e-01 -3.951709e+01 5.049577e-01 -4.697046e+01 4.583797e-01 -5.449102e+01 4.158753e-01 -6.207360e+01 3.626956e-01 -6.974775e+01 2.929128e-01 -7.754779e+01 1.990660e-01 -8.550850e+01 7.111413e-02 -9.366768e+01 -1.035328e-01 -1.020690e+02 
4.736056e-02 -1.100514e+02 -2.924875e-01 -1.192098e+02 -7.400887e-01 1.221044e+02 -2.335113e-01 1.129024e+02 1.704314e-01 1.040671e+02 4.898738e-01 9.554334e+01 7.377614e-01 8.728071e+01 9.162994e-01 7.923527e+01 1.007455e+00 7.134228e+01 1.113261e+00 6.358804e+01 1.189897e+00 5.599307e+01 1.218651e+00 4.851009e+01 1.257380e+00 4.107455e+01 1.294247e+00 3.373638e+01 1.292550e+00 2.646823e+01 1.273649e+00 1.918386e+01 1.286168e+00 1.196096e+01 1.263149e+00 4.772497e+00 1.190731e+00 -2.474997e+00 1.185123e+00 -9.689118e+00 1.154604e+00 -1.689422e+01 1.065592e+00 -2.418004e+01 1.046072e+00 -3.147792e+01 1.011416e+00 -3.879659e+01 9.247703e-01 -4.619877e+01 8.851771e-01 -5.368373e+01 8.462827e-01 -6.122602e+01 7.951970e-01 -6.887281e+01 7.254973e-01 -7.666306e+01 6.276667e-01 -8.463300e+01 4.908231e-01 -9.282228e+01 3.023989e-01 -1.012770e+02 
-4.166471e-01 -1.114459e+02 -7.575008e-01 -1.206287e+02 -1.207316e+00 1.228172e+02 -6.630893e-01 1.135919e+02 -2.239348e-01 1.047256e+02 1.284400e-01 9.616269e+01 4.067729e-01 8.785176e+01 6.095531e-01 7.974967e+01 6.998988e-01 7.177926e+01 8.339157e-01 6.396187e+01 9.221422e-01 5.630125e+01 9.436834e-01 4.873451e+01 9.933222e-01 4.122350e+01 1.032498e+00 3.380754e+01 1.017636e+00 2.644895e+01 9.870448e-01 1.907718e+01 9.988983e-01 1.176969e+01 9.615389e-01 4.490571e+00 8.549741e-01 -2.855213e+00 8.495927e-01 -1.015617e+01 8.062220e-01 -1.744857e+01 6.767981e-01 -2.483762e+01 6.580280e-01 -3.222000e+01 6.112456e-01 -3.962248e+01 4.887894e-01 -4.712614e+01 4.512218e-01 -5.468695e+01 4.050702e-01 -6.229648e+01 3.464238e-01 -7.001075e+01 2.709478e-01 -7.786641e+01 1.689507e-01 -8.589652e+01 2.934233e-02 -9.413854e+01 -1.606905e-01 -1.026371e+02 
-1.357813e-02 -1.105829e+02 -3.707322e-01 -1.198403e+02 -8.397890e-01 1.227902e+02 -3.149129e-01 1.134882e+02 1.047523e-01 1.045675e+02 4.410426e-01 9.597280e+01 7.137085e-01 8.764999e+01 9.322349e-01 7.955083e+01 9.940487e-01 7.154923e+01 1.083083e+00 6.375471e+01 1.183479e+00 5.615089e+01 1.211261e+00 4.862609e+01 1.227970e+00 4.115575e+01 1.294714e+00 3.381972e+01 1.308693e+00 2.653960e+01 1.238735e+00 1.920419e+01 1.293565e+00 1.199536e+01 1.302150e+00 4.818665e+00 1.147854e+00 -2.509528e+00 1.186682e+00 -9.705375e+00 1.195667e+00 -1.688407e+01 1.038932e+00 -2.426211e+01 1.042050e+00 -3.155182e+01 1.043647e+00 -3.886060e+01 9.226024e-01 -4.634837e+01 8.600334e-01 -5.386095e+01 8.178054e-01 -6.140598e+01 7.690696e-01 -6.907970e+01 7.002072e-01 -7.691354e+01 5.989318e-01 -8.493834e+01 4.546454e-01 -9.319236e+01 2.554010e-01 -1.017221e+02 
-4.559173e-01 -1.117783e+02 -8.097305e-01 -1.210270e+02 -1.276065e+00 1.232507e+02 -7.200197e-01 1.139607e+02 -2.708912e-01 1.050424e+02 9.391217e-02 9.644094e+01 3.960293e-01 8.810072e+01 6.457375e-01 7.996374e+01 6.689465e-01 7.183590e+01 7.929688e-01 6.405459e+01 9.148023e-01 5.641593e+01 9.173677e-01 4.874617e+01 9.474510e-01 4.126825e+01 1.030867e+00 3.388217e+01 1.026779e+00 2.645023e+01 9.238689e-01 1.908078e+01 1.007513e+00 1.181218e+01 1.013950e+00 4.503879e+00 7.708222e-01 -2.901824e+00 8.510785e-01 -1.015300e+01 8.648893e-01 -1.743326e+01 6.132303e-01 -2.493265e+01 6.523111e-01 -3.225691e+01 6.543017e-01 -3.964077e+01 4.547859e-01 -4.729554e+01 4.222087e-01 -5.481402e+01 3.771180e-01 -6.240330e+01 3.255223e-01 -7.013019e+01 2.545619e-01 -7.801380e+01 1.520383e-01 -8.607992e+01 7.863736e-03 -9.436448e+01 -1.897661e-01 -1.029125e+02 
-3.390419e-02 -1.107454e+02 -3.981508e-01 -1.200357e+02 -8.767772e-01 1.229968e+02 -3.463480e-01 1.136640e+02 7.665169e-02 1.047220e+02 4.157762e-01 9.612271e+01 6.966330e-01 8.782933e+01 9.642559e-01 7.979665e+01 1.179985e+00 7.132034e+01 8.942082e-01 6.382484e+01 1.113160e+00 5.634704e+01 1.367309e+00 4.842706e+01 1.074712e+00 4.119073e+01 1.230289e+00 3.399348e+01 1.464093e+00 2.640643e+01 1.110017e+00 1.917754e+01 1.237139e+00 1.212432e+01 1.445743e+00 4.813653e+00 1.070629e+00 -2.646227e+00 1.095983e+00 -9.634851e+00 1.269596e+00 -1.678553e+01 1.084994e+00 -2.449810e+01 9.052648e-01 -3.151508e+01 1.038109e+00 -3.872550e+01 1.099813e+00 -4.668479e+01 6.987263e-01 -5.392250e+01 7.538256e-01 -6.144133e+01 7.446685e-01 -6.912780e+01 6.886938e-01 -7.697939e+01 5.898903e-01 -8.502407e+01 4.437903e-01 -9.330049e+01 2.405670e-01 -1.018556e+02 
-4.556951e-01 -1.117553e+02 -8.113221e-01 -1.210038e+02 -1.280652e+00 1.232143e+02 -7.256532e-01 1.139278e+02 -2.788633e-01 1.050192e+02 8.338664e-02 9.644452e+01 3.890566e-01 8.817707e+01 7.002984e-01 8.017471e+01 9.931870e-01 7.148565e+01 5.603397e-01 6.409627e+01 8.441295e-01 5.662483e+01 1.199571e+00 4.847592e+01 7.726377e-01 4.130092e+01 9.633391e-01 3.409391e+01 1.286972e+00 2.628462e+01 7.997712e-01 1.905562e+01 9.411734e-01 1.198924e+01 1.220653e+00 4.522123e+00 7.355171e-01 -3.047627e+00 7.405653e-01 -1.003035e+01 9.644548e-01 -1.725905e+01 7.437143e-01 -2.517554e+01 4.828535e-01 -3.215233e+01 6.557529e-01 -3.939371e+01 7.709579e-01 -4.761425e+01 2.295085e-01 -5.478877e+01 3.119745e-01 -6.236012e+01 3.087163e-01 -7.009743e+01 2.525585e-01 -7.798668e+01 1.538922e-01 -8.605525e+01 1.013427e-02 -9.434092e+01 -1.882558e-01 -1.028894e+02 