# vtk DataFile Version 2.0
Comment goes here
ASCII

DATASET STRUCTURED_POINTS
FIELD FieldData 1
TIME 1 1 double
0.03600000
DIMENSIONS    64   64   1

ORIGIN    0.000   0.000   0.000
SPACING   0.03125 0.03125   1.000

POINT_DATA   4096
SCALARS P double
LOOKUP_TABLE default

-3.537094e+01 -1.950472e+02 -1.797621e+01 -2.050409e+02 1.181326e+01 1.227885e+02 -1.802179e+01 1.194771e+02 -2.490363e+01 1.132463e+02 -2.570152e+01 1.006401e+02 -2.424478e+01 8.911922e+01 -2.444189e+01 7.709090e+01 -2.275114e+01 6.098993e+01 -1.524144e+01 4.345586e+01 -1.234298e+01 3.150034e+01 -1.518079e+01 2.564224e+01 -1.989970e+01 1.555314e+01 -1.770004e+01 -1.624739e-01 -1.373609e+01 -1.745594e+01 -1.015065e+01 -3.254629e+01 -1.084826e+01 -4.041657e+01 -1.924400e+01 -4.539001e+01 -2.806945e+01 -4.836924e+01 -3.881905e+01 -5.101577e+01 -4.766364e+01 -5.590913e+01 -5.559730e+01 -6.136498e+01 -6.397637e+01 -6.434368e+01 -7.270565e+01 -6.890593e+01 -7.755623e+01 -7.857919e+01 -7.611525e+01 -9.343947e+01 -6.952059e+01 -1.113599e+02 -6.063444e+01 -1.295093e+02 -5.464548e+01 -1.428833e+02 -5.069745e+01 -1.539859e+02 -4.537216e+01 -1.646684e+02 -4.144950e+01 -1.684546e+02 
-1.185500e+01 -1.296981e+02 -2.120989e+00 -1.359116e+02 1.900963e+01 1.082236e+02 -2.864014e+00 1.048284e+02 -6.804711e+00 9.971091e+01 -7.236185e+00 9.101528e+01 -6.696641e+00 8.323758e+01 -7.358530e+00 7.521323e+01 -7.129527e+00 6.482825e+01 -3.458744e+00 5.345570e+01 -2.261938e+00 4.485148e+01 -3.873757e+00 3.951956e+01 -6.523982e+00 3.176605e+01 -5.299946e+00 2.095776e+01 -3.358351e+00 9.365226e+00 -1.565336e+00 -1.263496e+00 -1.607357e+00 -8.375275e+00 -5.510800e+00 -1.426528e+01 -9.162956e+00 -1.931738e+01 -1.371601e+01 -2.431448e+01 -1.702937e+01 -3.068772e+01 -1.973587e+01 -3.742124e+01 -2.283128e+01 -4.242874e+01 -2.653116e+01 -4.799166e+01 -2.848572e+01 -5.589858e+01 -2.759076e+01 -6.598793e+01 -2.458019e+01 -7.721068e+01 -2.054710e+01 -8.853944e+01 -1.820867e+01 -9.705858e+01 -1.704797e+01 -1.043221e+02 -1.497855e+01 -1.113924e+02 -1.389886e+01 -1.135676e+02 
2.166874e+00 -8.795945e+01 4.367800e+00 -9.088278e+01 1.121668e+01 9.534093e+01 4.353449e+00 9.232982e+01 3.605628e+00 8.816127e+01 3.486468e+00 8.285003e+01 3.335957e+00 7.752957e+01 2.811728e+00 7.191330e+01 2.320998e+00 6.566047e+01 2.557071e+00 5.895669e+01 2.385252e+00 5.240273e+01 1.869673e+00 4.629613e+01 1.136446e+00 3.966687e+01 1.198823e+00 3.248073e+01 1.343481e+00 2.521805e+01 1.509304e+00 1.798994e+01 1.678944e+00 1.114524e+01 1.316214e+00 4.327031e+00 1.196582e+00 -2.466990e+00 8.868845e-01 -9.296991e+00 8.526442e-01 -1.644012e+01 9.879988e-01 -2.372793e+01 1.060450e+00 -3.049669e+01 8.393758e-01 -3.717074e+01 8.550393e-01 -4.398703e+01 1.162955e+00 -5.074883e+01 1.569232e+00 -5.730102e+01 2.115059e+00 -6.370277e+01 2.314368e+00 -6.929083e+01 2.262062e+00 -7.440979e+01 2.455641e+00 -7.923793e+01 2.332246e+00 -8.213182e+01 
2.524270e+00 -9.086074e+01 4.409870e+00 -9.459325e+01 5.582774e+00 9.811206e+01 4.587676e+00 9.462533e+01 3.637396e+00 9.007834e+01 3.150921e+00 8.466458e+01 2.800833e+00 7.894116e+01 2.377690e+00 7.286462e+01 2.099643e+00 6.630486e+01 2.189560e+00 5.946486e+01 2.124965e+00 5.275073e+01 1.853809e+00 4.625884e+01 1.521309e+00 3.944083e+01 1.571469e+00 3.216778e+01 1.740195e+00 2.472954e+01 1.847480e+00 1.738990e+01 1.770157e+00 1.036495e+01 1.321155e+00 3.529371e+00 8.614546e-01 -3.229392e+00 4.048007e-01 -1.003739e+01 1.644625e-01 -1.702800e+01 8.480497e-02 -2.407240e+01 -4.728341e-03 -3.085808e+01 -1.988585e-01 -3.760002e+01 -2.141765e-01 -4.449363e+01 3.273906e-02 -5.145675e+01 4.239241e-01 -5.831740e+01 8.971924e-01 -6.492032e+01 1.207636e+00 -7.089364e+01 1.377435e+00 -7.633791e+01 1.656644e+00 -8.134085e+01 1.940866e+00 -8.562885e+01 
2.951039e+00 -8.837359e+01 4.163009e+00 -9.185585e+01 5.245018e+00 9.609140e+01 4.420276e+00 9.263232e+01 3.788171e+00 8.826620e+01 3.429886e+00 8.316670e+01 3.136954e+00 7.769979e+01 2.785227e+00 7.188921e+01 2.483643e+00 6.568739e+01 2.369480e+00 5.920612e+01 2.172909e+00 5.267799e+01 1.862952e+00 4.617548e+01 1.528360e+00 3.944314e+01 1.427619e+00 3.245214e+01 1.425949e+00 2.535963e+01 1.449740e+00 1.827178e+01 1.439692e+00 1.130102e+01 1.279391e+00 4.373961e+00 1.134811e+00 -2.543415e+00 9.793023e-01 -9.489785e+00 9.186232e-01 -1.653161e+01 9.290424e-01 -2.359041e+01 9.378993e-01 -3.047987e+01 8.989924e-01 -3.727671e+01 9.539026e-01 -4.404526e+01 1.148310e+00 -5.072078e+01 1.425743e+00 -5.721602e+01 1.741009e+00 -6.345278e+01 1.959706e+00 -6.923533e+01 2.105547e+00 -7.459488e+01 2.313911e+00 -7.953101e+01 2.536053e+00 -8.384692e+01 
2.762059e+00 -9.178034e+01 3.866291e+00 -9.581891e+01 4.737819e+00 9.875564e+01 4.201759e+00 9.491724e+01 3.574487e+00 9.022919e+01 3.099380e+00 8.487428e+01 2.730317e+00 7.908575e+01 2.406359e+00 7.293497e+01 2.176656e+00 6.645015e+01 2.078752e+00 5.975703e+01 1.968799e+00 5.302146e+01 1.806330e+00 4.627101e+01 1.647404e+00 3.935104e+01 1.602758e+00 3.221808e+01 1.605035e+00 2.497845e+01 1.568279e+00 1.776452e+01 1.425581e+00 1.067632e+01 1.133573e+00 3.694295e+00 7.981022e-01 -3.235943e+00 4.865658e-01 -1.017031e+01 2.673885e-01 -1.715199e+01 1.303636e-01 -2.413873e+01 3.248666e-02 -3.104149e+01 -4.676261e-02 -3.790716e+01 -2.701960e-02 -4.478991e+01 1.339048e-01 -5.164801e+01 3.983279e-01 -5.838213e+01 7.144415e-01 -6.487213e+01 1.005543e+00 -7.097541e+01 1.280527e+00 -7.668091e+01 1.624366e+00 -8.200808e+01 2.074769e+00 -8.695860e+01 
3.030396e+00 -9.015015e+01 3.836072e+00 -9.428932e+01 4.632297e+00 9.760861e+01 4.150693e+00 9.361368e+01 3.675645e+00 8.896605e+01 3.315883e+00 8.376405e+01 3.020369e+00 7.816156e+01 2.738913e+00 7.222222e+01 2.490008e+00 6.597582e+01 2.306704e+00 5.950807e+01 2.115806e+00 5.292796e+01 1.894174e+00 4.626605e+01 1.683756e+00 3.946058e+01 1.559026e+00 3.251448e+01 1.486040e+00 2.548697e+01 1.428021e+00 1.843395e+01 1.360216e+00 1.141463e+01 1.241130e+00 4.418452e+00 1.108979e+00 -2.579401e+00 9.975661e-01 -9.584986e+00 9.267859e-01 -1.661045e+01 8.868434e-01 -2.362820e+01 8.739620e-01 -3.056752e+01 8.746182e-01 -3.742609e+01 9.251223e-01 -4.421324e+01 1.057457e+00 -5.089185e+01 1.256125e+00 -5.739867e+01 1.486419e+00 -6.366735e+01 1.704360e+00 -6.962110e+01 1.918992e+00 -7.524391e+01 2.181424e+00 -8.052726e+01 2.522007e+00 -8.545521e+01 
2.585866e+00 -9.360095e+01 3.359925e+00 -9.822381e+01 4.083573e+00 1.003403e+02 3.728470e+00 9.593566e+01 3.310893e+00 9.095063e+01 2.943300e+00 8.545285e+01 2.636166e+00 7.955207e+01 2.372276e+00 7.331655e+01 2.160895e+00 6.679804e+01 2.023669e+00 6.009884e+01 1.902578e+00 5.330589e+01 1.771017e+00 4.643392e+01 1.656070e+00 3.944908e+01 1.578211e+00 3.235184e+01 1.502974e+00 2.518435e+01 1.397281e+00 1.800770e+01 1.241297e+00 1.088607e+01 1.009671e+00 3.820564e+00 7.411874e-01 -3.220222e+00 5.031620e-01 -1.024402e+01 3.081730e-01 -1.726880e+01 1.540462e-01 -2.429358e+01 5.961252e-02 -3.127577e+01 8.809065e-03 -3.821892e+01 2.107334e-02 -4.513562e+01 1.333597e-01 -5.198689e+01 3.299439e-01 -5.870660e+01 5.776561e-01 -6.522272e+01 8.478441e-01 -7.147068e+01 1.146300e+00 -7.742986e+01 1.509691e+00 -8.310126e+01 1.973823e+00 -8.848911e+01 
2.796453e+00 -9.251457e+01 3.386939e+00 -9.736288e+01 3.998732e+00 9.989083e+01 3.712789e+00 9.523458e+01 3.403607e+00 9.017604e+01 3.136835e+00 8.472224e+01 2.906239e+00 7.892971e+01 2.684405e+00 7.283828e+01 2.463027e+00 6.647365e+01 2.283875e+00 5.992019e+01 2.115179e+00 5.325503e+01 1.930563e+00 4.648972e+01 1.762375e+00 3.960980e+01 1.643108e+00 3.265073e+01 1.536117e+00 2.563258e+01 1.426040e+00 1.856201e+01 1.340249e+00 1.150706e+01 1.226108e+00 4.466280e+00 1.082697e+00 -2.601068e+00 9.900852e-01 -9.656894e+00 9.147919e-01 -1.670073e+01 8.346472e-01 -2.374832e+01 8.093147e-01 -3.074288e+01 8.106034e-01 -3.765944e+01 8.293511e-01 -4.450376e+01 9.142427e-01 -5.124679e+01 1.067850e+00 -5.782678e+01 1.260006e+00 -6.420306e+01 1.470676e+00 -7.034747e+01 1.703966e+00 -7.625110e+01 1.983364e+00 -8.191207e+01 2.335228e+00 -8.733104e+01 
2.220275e+00 -9.587407e+01 2.784934e+00 -1.011538e+02 3.331008e+00 1.026593e+02 3.164594e+00 9.759286e+01 2.939487e+00 9.218274e+01 2.716270e+00 8.641841e+01 2.510107e+00 8.033510e+01 2.308871e+00 7.396377e+01 2.107923e+00 6.732292e+01 1.983669e+00 6.053613e+01 1.869335e+00 5.366448e+01 1.735711e+00 4.669865e+01 1.633058e+00 3.964739e+01 1.548066e+00 3.254181e+01 1.431042e+00 2.538633e+01 1.284478e+00 1.819359e+01 1.139793e+00 1.104229e+01 9.345106e-01 3.924894e+00 6.790157e-01 -3.210375e+00 4.941448e-01 -1.030859e+01 3.201364e-01 -1.738780e+01 1.371859e-01 -2.449371e+01 5.250583e-02 -3.155727e+01 4.880665e-03 -3.857429e+01 -2.133851e-02 -4.556531e+01 5.693375e-02 -5.247306e+01 2.190000e-01 -5.924420e+01 4.318852e-01 -6.584611e+01 6.804771e-01 -7.225763e+01 9.676498e-01 -7.847022e+01 1.309324e+00 -8.448220e+01 1.722932e+00 -9.029012e+01 
2.397042e+00 -9.514133e+01 2.817339e+00 -1.006860e+02 3.237224e+00 1.027165e+02 3.154433e+00 9.736834e+01 3.029137e+00 9.182007e+01 2.905178e+00 8.602881e+01 2.786539e+00 7.999190e+01 2.642575e+00 7.370845e+01 2.429270e+00 6.715210e+01 2.275182e+00 6.044514e+01 2.142862e+00 5.367769e+01 1.967308e+00 4.681765e+01 1.806512e+00 3.983805e+01 1.715847e+00 3.284418e+01 1.592020e+00 2.581838e+01 1.418430e+00 1.867822e+01 1.351165e+00 1.159029e+01 1.240547e+00 4.532241e+00 1.033304e+00 -2.627859e+00 9.730225e-01 -9.733907e+00 9.071400e-01 -1.679590e+01 7.538129e-01 -2.392380e+01 7.296254e-01 -3.099623e+01 7.324835e-01 -3.797659e+01 6.883253e-01 -4.491278e+01 7.206291e-01 -5.177426e+01 8.494121e-01 -5.846016e+01 1.022579e+00 -6.496798e+01 1.223978e+00 -7.131036e+01 1.452374e+00 -7.749546e+01 1.716237e+00 -8.352811e+01 2.027587e+00 -8.941129e+01 
1.749443e+00 -9.835250e+01 2.135500e+00 -1.042827e+02 2.488348e+00 1.054690e+02 2.527460e+00 9.973131e+01 2.500883e+00 9.383522e+01 2.447654e+00 8.773260e+01 2.376430e+00 8.141118e+01 2.255690e+00 7.485792e+01 2.026788e+00 6.799363e+01 1.949595e+00 6.106626e+01 1.859912e+00 5.411158e+01 1.692670e+00 4.703708e+01 1.600237e+00 3.990083e+01 1.542004e+00 3.277662e+01 1.391124e+00 2.560550e+01 1.187637e+00 1.834334e+01 1.096466e+00 1.117113e+01 9.083258e-01 4.032575e+00 5.817368e-01 -3.225799e+00 4.795837e-01 -1.038047e+01 3.361120e-01 -1.749357e+01 5.551450e-02 -2.473647e+01 1.419864e-02 -3.188444e+01 -2.562979e-02 -3.897238e+01 -1.460347e-01 -4.609961e+01 -9.030089e-02 -5.310872e+01 6.027530e-02 -5.995205e+01 2.546857e-01 -6.665295e+01 4.830838e-01 -7.323134e+01 7.442186e-01 -7.969287e+01 1.041268e+00 -8.603739e+01 1.377537e+00 -9.226129e+01 
1.901422e+00 -9.784361e+01 2.159169e+00 -1.040427e+02 2.379517e+00 1.058715e+02 2.510587e+00 9.985335e+01 2.582580e+00 9.379452e+01 2.634638e+00 8.763189e+01 2.677863e+00 8.132439e+01 2.662908e+00 7.482096e+01 2.403487e+00 6.796248e+01 2.252396e+00 6.105072e+01 2.197218e+00 5.419891e+01 2.018693e+00 4.723037e+01 1.801552e+00 4.009908e+01 1.803216e+00 3.308900e+01 1.694114e+00 2.607207e+01 1.351234e+00 1.875887e+01 1.387621e+00 1.166941e+01 1.323723e+00 4.658315e+00 9.064296e-01 -2.698768e+00 9.497075e-01 -9.828204e+00 9.497192e-01 -1.685102e+01 6.115013e-01 -2.416471e+01 6.238762e-01 -3.132062e+01 6.765830e-01 -3.834311e+01 5.167911e-01 -4.544292e+01 4.563798e-01 -5.248645e+01 5.806915e-01 -5.926076e+01 7.519815e-01 -6.588173e+01 9.505082e-01 -7.241140e+01 1.165859e+00 -7.886753e+01 1.395824e+00 -8.525568e+01 1.641769e+00 -9.158014e+01 
1.218778e+00 -1.008769e+02 1.432963e+00 -1.074196e+02 1.581081e+00 1.085590e+02 1.836217e+00 1.021831e+02 2.014221e+00 9.579655e+01 2.153707e+00 8.933491e+01 2.267518e+00 8.275326e+01 2.291456e+00 7.599714e+01 1.919614e+00 6.871307e+01 1.888776e+00 6.166303e+01 1.884348e+00 5.468144e+01 1.646294e+00 4.738587e+01 1.526424e+00 4.017331e+01 1.587055e+00 3.308525e+01 1.417913e+00 2.583613e+01 1.019421e+00 1.843260e+01 1.114745e+00 1.130591e+01 9.880140e-01 4.179216e+00 3.486044e-01 -3.322374e+00 4.787738e-01 -1.045216e+01 4.329282e-01 -1.752504e+01 -1.688010e-01 -2.508233e+01 -4.203180e-02 -3.224135e+01 -2.101970e-02 -3.934478e+01 -3.830390e-01 -4.681393e+01 -3.166233e-01 -5.392436e+01 -1.565614e-01 -6.078604e+01 3.375404e-02 -6.755877e+01 2.510778e-01 -7.429561e+01 4.845865e-01 -8.099951e+01 7.278333e-01 -8.766567e+01 9.760541e-01 -9.429175e+01 
1.354405e+00 -1.004983e+02 1.448745e+00 -1.072977e+02 1.460306e+00 1.091689e+02 1.807198e+00 1.025275e+02 2.074849e+00 9.597806e+01 2.316530e+00 8.946269e+01 2.580766e+00 8.292760e+01 2.850469e+00 7.622669e+01 2.504303e+00 6.867273e+01 2.038399e+00 6.169477e+01 2.253859e+00 5.492856e+01 2.237071e+00 4.758745e+01 1.580693e+00 4.032320e+01 1.896234e+00 3.348518e+01 2.029567e+00 2.637900e+01 1.027976e+00 1.867625e+01 1.420924e+00 1.181060e+01 1.644254e+00 4.940510e+00 5.465169e-01 -2.999021e+00 8.716112e-01 -9.909333e+00 1.160884e+00 -1.669602e+01 3.651850e-01 -2.466758e+01 4.094777e-01 -3.167707e+01 6.959342e-01 -3.856570e+01 4.084501e-01 -4.626497e+01 2.898556e-02 -5.345213e+01 2.138244e-01 -6.016723e+01 4.319919e-01 -6.685043e+01 6.525906e-01 -7.355554e+01 8.578460e-01 -8.027312e+01 1.045066e+00 -8.699856e+01 1.213134e+00 -9.373667e+01 
6.622689e-01 -1.033374e+02 7.062152e-01 -1.104413e+02 6.404219e-01 1.117441e+02 1.110497e+00 1.047852e+02 1.482195e+00 9.794558e+01 1.813658e+00 9.116723e+01 2.166594e+00 8.438122e+01 2.528783e+00 7.744741e+01 1.897243e+00 6.891833e+01 1.404626e+00 6.235931e+01 1.876568e+00 5.564769e+01 1.708067e+00 4.724039e+01 1.049706e+00 4.046441e+01 1.634464e+00 3.376320e+01 1.678486e+00 2.574270e+01 3.550993e-01 1.836125e+01 1.165473e+00 1.165789e+01 1.424917e+00 4.252974e+00 -4.171648e-01 -3.776609e+00 4.760706e-01 -1.040428e+01 8.336983e-01 -1.735614e+01 -8.027686e-01 -2.600112e+01 -1.564767e-01 -3.252099e+01 1.340765e-01 -3.933818e+01 -9.150061e-01 -4.828572e+01 -6.828857e-01 -5.496543e+01 -4.760465e-01 -6.164110e+01 -2.444486e-01 -6.845543e+01 -7.168877e-03 -7.535900e+01 2.071622e-01 -8.230705e+01 3.940102e-01 -8.928382e+01 5.497784e-01 -9.629047e+01 
7.920189e-01 -1.030198e+02 7.236751e-01 -1.103596e+02 5.237646e-01 1.124433e+02 1.074757e+00 1.052329e+02 1.510668e+00 9.822354e+01 1.897089e+00 9.139897e+01 2.342577e+00 8.483711e+01 3.117037e+00 7.883511e+01 3.707202e+00 6.761182e+01 4.739415e-01 6.246630e+01 1.943272e+00 5.694387e+01 3.628699e+00 4.643615e+01 6.071137e-02 4.040532e+01 1.612522e+00 3.496819e+01 3.499364e+00 2.593776e+01 -4.586137e-01 1.793579e+01 1.070847e+00 1.262101e+01 2.821687e+00 5.427500e+00 -4.010181e-01 -4.568095e+00 2.384369e-01 -9.629266e+00 1.734179e+00 -1.558785e+01 2.921099e-01 -2.702467e+01 -6.206200e-01 -3.179755e+01 6.053452e-01 -3.746993e+01 9.133082e-01 -4.914542e+01 -1.245473e+00 -5.456816e+01 -3.600464e-01 -6.097131e+01 8.225587e-02 -6.775300e+01 3.622647e-01 -7.466087e+01 5.562080e-01 -8.164009e+01 6.913370e-01 -8.868408e+01 7.730799e-01 -9.580378e+01 
1.101671e-01 -1.056562e+02 -1.083533e-02 -1.132630e+02 -2.850676e-01 1.148549e+02 3.842242e-01 1.073684e+02 9.188229e-01 1.001186e+02 1.385723e+00 9.312373e+01 1.897112e+00 8.653506e+01 2.767708e+00 8.070151e+01 3.416432e+00 6.792749e+01 3.279417e-01 6.337338e+01 1.898715e+00 5.821075e+01 3.859320e+00 4.627939e+01 -2.428640e-01 4.077025e+01 1.568304e+00 3.573848e+01 3.992445e+00 2.566429e+01 -9.509140e-01 1.769425e+01 8.800680e-01 1.287521e+01 3.209782e+00 5.294595e+00 -9.317114e-01 -5.370460e+00 -2.131242e-01 -9.788731e+00 1.833913e+00 -1.556002e+01 7.463514e-03 -2.834649e+01 -1.398755e+00 -3.227439e+01 4.094799e-01 -3.755918e+01 1.182688e+00 -5.101063e+01 -2.399482e+00 -5.561713e+01 -1.132103e+00 -6.219983e+01 -5.591946e-01 -6.922663e+01 -2.474973e-01 -7.635944e+01 -5.396776e-02 -8.355978e+01 6.822540e-02 -9.083132e+01 1.269986e-01 -9.818909e+01 
2.452955e-01 -1.053459e+02 2.211994e-02 -1.131640e+02 -3.686212e-01 1.155516e+02 3.635109e-01 1.078239e+02 9.473389e-01 1.003656e+02 1.437527e+00 9.314852e+01 1.886154e+00 8.616200e+01 2.318722e+00 7.930651e+01 1.882179e+00 6.918463e+01 1.533574e+00 6.303577e+01 2.012911e+00 5.679020e+01 2.181188e+00 4.729771e+01 9.609935e-01 4.075797e+01 1.750901e+00 3.461413e+01 2.373067e+00 2.609720e+01 1.947190e-01 1.838552e+01 1.264625e+00 1.229396e+01 2.158187e+00 4.971886e+00 -2.235936e-01 -3.990736e+00 5.274185e-01 -9.935966e+00 1.470412e+00 -1.646253e+01 -1.604899e-02 -2.644282e+01 -2.784294e-01 -3.218445e+01 5.718873e-01 -3.849232e+01 4.279695e-01 -4.882362e+01 -1.117526e+00 -5.493889e+01 -4.668451e-01 -6.161410e+01 -8.138075e-02 -6.858743e+01 1.573922e-01 -7.570365e+01 2.982705e-01 -8.292764e+01 3.618144e-01 -9.026167e+01 3.488947e-01 -9.772454e+01 
-4.113279e-01 -1.077755e+02 -6.841146e-01 -1.158252e+02 -1.137636e+00 1.177473e+02 -2.998258e-01 1.097668e+02 3.817321e-01 1.020575e+02 9.660486e-01 9.456797e+01 1.511294e+00 8.721390e+01 2.010620e+00 7.974531e+01 1.612974e+00 7.118738e+01 1.585752e+00 6.387952e+01 1.960736e+00 5.675913e+01 1.786241e+00 4.861580e+01 1.288335e+00 4.128376e+01 1.754778e+00 3.428692e+01 1.781227e+00 2.656029e+01 6.133329e-01 1.879577e+01 1.254532e+00 1.185955e+01 1.481992e+00 4.584822e+00 -9.047195e-02 -3.598601e+00 5.774709e-01 -1.050707e+01 9.220237e-01 -1.753998e+01 -4.341734e-01 -2.605206e+01 -8.840930e-02 -3.297917e+01 2.309515e-01 -4.007121e+01 -5.441344e-01 -4.868424e+01 -8.360715e-01 -5.582260e+01 -6.945134e-01 -6.284754e+01 -5.147462e-01 -7.001623e+01 -3.578611e-01 -7.731819e+01 -2.579074e-01 -8.473351e+01 -2.246618e-01 -9.226622e+01 -2.690502e-01 -9.993636e+01 
-2.616645e-01 -1.074296e+02 -6.271736e-01 -1.156637e+02 -1.187554e+00 1.183699e+02 -3.051005e-01 1.101666e+02 4.020649e-01 1.022487e+02 9.770004e-01 9.454697e+01 1.447724e+00 8.696388e+01 1.788761e+00 7.932807e+01 1.680123e+00 7.138258e+01 1.708745e+00 6.378878e+01 1.921631e+00 5.642985e+01 1.853030e+00 4.882813e+01 1.574041e+00 4.131980e+01 1.778237e+00 3.411353e+01 1.766843e+00 2.677662e+01 1.134674e+00 1.909912e+01 1.382607e+00 1.194891e+01 1.440234e+00 4.819440e+00 6.202701e-01 -3.013382e+00 8.556170e-01 -1.018529e+01 9.853015e-01 -1.725928e+01 2.804225e-01 -2.519174e+01 3.555275e-01 -3.245960e+01 4.885052e-01 -3.964455e+01 7.545402e-02 -4.751975e+01 -1.736924e-01 -5.497589e+01 -1.150022e-01 -6.212971e+01 -2.133012e-02 -6.933427e+01 6.334267e-02 -7.665275e+01 1.019436e-01 -8.409890e+01 7.375913e-02 -9.169029e+01 -3.943210e-02 -9.945455e+01 
-8.845152e-01 -1.096513e+02 -1.294892e+00 -1.180822e+02 -1.908796e+00 1.203207e+02 -9.346503e-01 1.118958e+02 -1.429097e-01 1.037527e+02 5.060167e-01 9.581983e+01 1.031810e+00 8.800920e+01 1.391024e+00 8.021705e+01 1.375060e+00 7.231327e+01 1.484446e+00 6.453738e+01 1.653070e+00 5.694427e+01 1.567658e+00 4.931904e+01 1.443580e+00 4.169854e+01 1.544669e+00 3.426292e+01 1.430473e+00 2.682219e+01 1.043635e+00 1.917452e+01 1.140674e+00 1.179759e+01 1.046990e+00 4.472731e+00 4.838012e-01 -3.229836e+00 5.910133e-01 -1.061990e+01 5.514008e-01 -1.793764e+01 2.654100e-04 -2.569743e+01 5.415820e-02 -3.317096e+01 2.761614e-02 -4.058850e+01 -3.988693e-01 -4.833921e+01 -4.789690e-01 -5.589335e+01 -4.691314e-01 -6.327672e+01 -4.401956e-01 -7.067610e+01 -4.112490e-01 -7.816863e+01 -4.146292e-01 -8.578459e+01 -4.774096e-01 -9.354836e+01 -6.244293e-01 -1.014905e+02 
-7.135706e-01 -1.092349e+02 -1.206865e+00 -1.178218e+02 -1.918158e+00 1.208302e+02 -9.108881e-01 1.122168e+02 -1.025527e-01 1.039033e+02 5.405829e-01 9.582015e+01 1.035617e+00 8.789148e+01 1.365203e+00 8.004422e+01 1.456211e+00 7.221763e+01 1.573971e+00 6.445247e+01 1.705283e+00 5.684098e+01 1.682098e+00 4.929145e+01 1.606591e+00 4.172035e+01 1.646086e+00 3.428734e+01 1.564423e+00 2.690772e+01 1.320674e+00 1.937968e+01 1.326698e+00 1.201110e+01 1.234237e+00 4.705740e+00 8.930536e-01 -2.830927e+00 8.885071e-01 -1.021724e+01 8.234578e-01 -1.754089e+01 4.925291e-01 -2.511028e+01 4.527602e-01 -3.257626e+01 3.969349e-01 -3.998528e+01 1.352787e-01 -4.755406e+01 2.648062e-02 -5.509949e+01 1.421566e-02 -6.252527e+01 1.075606e-02 -6.995559e+01 -3.938217e-03 -7.747166e+01 -5.636062e-02 -8.511949e+01 -1.733570e-01 -9.293550e+01 -3.820502e-01 -1.009585e+02 
-1.298390e+00 -1.112493e+02 -1.830686e+00 -1.199986e+02 -2.588260e+00 1.225276e+02 -1.501958e+00 1.137320e+02 -6.224914e-01 1.052363e+02 8.096892e-02 9.697594e+01 6.226640e-01 8.888639e+01 9.883650e-01 8.090696e+01 1.148865e+00 7.296952e+01 1.300893e+00 6.509947e+01 1.425947e+00 5.735486e+01 1.423145e+00 4.967800e+01 1.387296e+00 4.201814e+01 1.391779e+00 3.445741e+01 1.294586e+00 2.694190e+01 1.110832e+00 1.936025e+01 1.057459e+00 1.187181e+01 9.231270e-01 4.422936e+00 6.507192e-01 -3.150957e+00 5.806681e-01 -1.064649e+01 4.571920e-01 -1.811134e+01 1.770273e-01 -2.571968e+01 9.130900e-02 -3.328060e+01 -2.168781e-02 -4.081625e+01 -2.613121e-01 -4.845080e+01 -3.544110e-01 -5.607031e+01 -3.884111e-01 -6.363860e+01 -4.190888e-01 -7.122266e+01 -4.648119e-01 -7.888805e+01 -5.477685e-01 -8.668235e+01 -6.942308e-01 -9.464531e+01 -9.332393e-01 -1.028181e+02 
-1.100321e+00 -1.107335e+02 -1.704158e+00 -1.196099e+02 -2.546257e+00 1.228958e+02 -1.434551e+00 1.139509e+02 -5.408621e-01 1.053267e+02 1.657576e-01 9.696238e+01 7.032126e-01 8.879859e+01 1.072214e+00 8.078072e+01 1.273131e+00 7.285229e+01 1.429893e+00 6.500065e+01 1.551148e+00 5.727383e+01 1.575959e+00 4.963606e+01 1.555868e+00 4.202574e+01 1.555312e+00 3.450525e+01 1.485977e+00 2.704034e+01 1.349329e+00 1.953620e+01 1.289583e+00 1.209728e+01 1.181310e+00 4.694248e+00 9.842818e-01 -2.788946e+00 9.028578e-01 -1.023421e+01 7.962543e-01 -1.765810e+01 5.942568e-01 -2.517150e+01 4.942802e-01 -3.268036e+01 3.893220e-01 -4.017425e+01 2.099685e-01 -4.772948e+01 1.005317e-01 -5.531561e+01 4.830906e-02 -6.288229e+01 -2.193261e-03 -7.047339e+01 -7.545283e-02 -7.815082e+01 -1.939139e-01 -8.596797e+01 -3.836016e-01 -9.397162e+01 -6.741864e-01 -1.022090e+02 
-1.644342e+00 -1.125428e+02 -2.279754e+00 -1.215478e+02 -3.159983e+00 1.243359e+02 -1.981153e+00 1.152493e+02 -1.027557e+00 1.064840e+02 -2.694324e-01 9.798297e+01 3.106031e-01 8.969055e+01 7.158457e-01 8.155191e+01 9.575545e-01 7.350809e+01 1.141889e+00 6.555322e+01 1.271573e+00 5.771776e+01 1.308962e+00 4.996840e+01 1.303693e+00 4.226258e+01 1.294632e+00 3.463877e+01 1.220396e+00 2.706531e+01 1.093797e+00 1.947655e+01 1.011610e+00 1.194048e+01 8.848299e-01 4.431662e+00 6.939232e-01 -3.131305e+00 5.831589e-01 -1.066816e+01 4.494416e-01 -1.819440e+01 2.483246e-01 -2.578764e+01 1.226894e-01 -3.338252e+01 -7.950439e-03 -4.097447e+01 -1.872490e-01 -4.861839e+01 -3.014972e-01 -5.629034e+01 -3.683937e-01 -6.396372e+01 -4.351620e-01 -7.167248e+01 -5.269334e-01 -7.947048e+01 -6.656410e-01 -8.740869e+01 -8.769915e-01 -9.553381e+01 -1.191269e+00 -1.038937e+02 
-1.413286e+00 -1.119046e+02 -2.107578e+00 -1.210068e+02 -3.057290e+00 1.245347e+02 -1.860257e+00 1.153377e+02 -8.944066e-01 1.064831e+02 -1.270069e-01 9.791494e+01 4.633516e-01 8.957809e+01 8.830208e-01 8.141951e+01 1.135393e+00 7.338243e+01 1.315058e+00 6.543051e+01 1.453158e+00 5.762357e+01 1.501062e+00 4.992625e+01 1.492682e+00 4.225457e+01 1.501287e+00 3.468322e+01 1.449684e+00 2.718002e+01 1.329964e+00 1.964062e+01 1.272746e+00 1.216514e+01 1.178147e+00 4.728933e+00 1.006116e+00 -2.775171e+00 9.189231e-01 -1.025289e+01 8.178391e-01 -1.771189e+01 6.413953e-01 -2.523821e+01 5.259473e-01 -3.278204e+01 4.161738e-01 -4.031829e+01 2.510703e-01 -4.790118e+01 1.160956e-01 -5.554862e+01 3.729333e-02 -6.320060e+01 -4.197399e-02 -7.089258e+01 -1.506394e-01 -7.868412e+01 -3.130568e-01 -8.663002e+01 -5.561685e-01 -9.478022e+01 -9.108228e-01 -1.031858e+02 
-1.913944e+00 -1.135128e+02 -2.630858e+00 -1.227103e+02 -3.608756e+00 1.257135e+02 -2.356582e+00 1.164141e+02 -1.341068e+00 1.074566e+02 -5.294272e-01 9.878628e+01 9.944356e-02 9.034811e+01 5.495822e-01 8.208651e+01 8.175665e-01 7.394034e+01 1.023163e+00 6.588944e+01 1.174459e+00 5.799158e+01 1.223128e+00 5.020007e+01 1.221943e+00 4.243389e+01 1.235778e+00 3.477539e+01 1.177983e+00 2.718444e+01 1.047375e+00 1.954995e+01 9.879610e-01 1.199036e+01 8.816263e-01 4.471474e+00 6.848274e-01 -3.129226e+00 5.908274e-01 -1.068907e+01 4.754238e-01 -1.822976e+01 2.722491e-01 -2.585236e+01 1.482723e-01 -3.347845e+01 2.525536e-02 -4.109784e+01 -1.597241e-01 -4.877566e+01 -3.001451e-01 -5.650923e+01 -3.849256e-01 -6.424338e+01 -4.728401e-01 -7.202303e+01 -5.915873e-01 -7.990802e+01 -7.656667e-01 -8.795023e+01 -1.022316e+00 -9.619718e+01 -1.392767e+00 -1.046988e+02 
-1.643890e+00 -1.127335e+02 -2.406682e+00 -1.219976e+02 -3.439018e+00 1.257134e+02 -2.177371e+00 1.163422e+02 -1.154579e+00 1.073343e+02 -3.319304e-01 9.863467e+01 3.187514e-01 9.018446e+01 8.012001e-01 8.192163e+01 1.065085e+00 7.379699e+01 1.227292e+00 6.571945e+01 1.404669e+00 5.786739e+01 1.464558e+00 5.016498e+01 1.416465e+00 4.239429e+01 1.476662e+00 3.480613e+01 1.454002e+00 2.732852e+01 1.273127e+00 1.969094e+01 1.267277e+00 1.220894e+01 1.214701e+00 4.806254e+00 9.815162e-01 -2.783920e+00 9.284965e-01 -1.027354e+01 8.732827e-01 -1.771313e+01 6.617786e-01 -2.529571e+01 5.410480e-01 -3.287718e+01 4.632387e-01 -4.042203e+01 2.775801e-01 -4.803915e+01 7.680445e-02 -5.577882e+01 -1.118090e-02 -6.346771e+01 -1.003469e-01 -7.120254e+01 -2.230623e-01 -7.906031e+01 -4.084783e-01 -8.709320e+01 -6.854665e-01 -9.534781e+01 -1.085108e+00 -1.038748e+02 
-2.098654e+00 -1.141464e+02 -2.873919e+00 -1.234729e+02 -3.922962e+00 1.266272e+02 -2.618813e+00 1.171922e+02 -1.557141e+00 1.081191e+02 -6.976359e-01 9.935321e+01 -1.092197e-02 9.083322e+01 5.017879e-01 8.248714e+01 7.495815e-01 7.423706e+01 9.325909e-01 6.607952e+01 1.130760e+00 5.816689e+01 1.177991e+00 5.037067e+01 1.124580e+00 4.251182e+01 1.211349e+00 3.486322e+01 1.183095e+00 2.730843e+01 9.571496e-01 1.956069e+01 9.793890e-01 1.202041e+01 9.268636e-01 4.557674e+00 6.201222e-01 -3.164318e+00 5.933506e-01 -1.070772e+01 5.401335e-01 -1.820255e+01 2.617577e-01 -2.592697e+01 1.557457e-01 -3.356333e+01 7.791752e-02 -4.116644e+01 -1.546123e-01 -4.891753e+01 -3.563940e-01 -5.672912e+01 -4.395370e-01 -6.446498e+01 -5.282906e-01 -7.225899e+01 -6.520189e-01 -8.018726e+01 -8.406321e-01 -8.829485e+01 -1.123078e+00 -9.662342e+01 -1.530219e+00 -1.052211e+02 
-1.783592e+00 -1.132111e+02 -2.591913e+00 -1.225728e+02 -3.681137e+00 1.263984e+02 -2.379486e+00 1.169293e+02 -1.321717e+00 1.078448e+02 -4.586878e-01 9.909586e+01 2.562000e-01 9.062125e+01 8.502172e-01 8.230291e+01 1.149615e+00 7.402860e+01 1.094647e+00 6.581714e+01 1.386734e+00 5.803033e+01 1.537180e+00 5.034894e+01 1.256386e+00 4.238728e+01 1.465005e+00 3.489636e+01 1.570979e+00 2.752663e+01 1.126334e+00 1.960411e+01 1.242088e+00 1.224278e+01 1.343646e+00 4.999107e+00 9.054457e-01 -2.913213e+00 8.790414e-01 -1.028417e+01 9.808633e-01 -1.758233e+01 7.135801e-01 -2.542952e+01 4.700334e-01 -3.295503e+01 5.287273e-01 -4.040578e+01 3.873431e-01 -4.818535e+01 -7.088041e-02 -5.604519e+01 -1.217841e-01 -6.366198e+01 -1.787585e-01 -7.137801e+01 -2.837353e-01 -7.926294e+01 -4.698896e-01 -8.734649e+01 -7.623990e-01 -9.566524e+01 -1.188720e+00 -1.042669e+02 
-2.190227e+00 -1.144363e+02 -2.999855e+00 -1.238279e+02 -4.092735e+00 1.270439e+02 -2.762530e+00 1.175488e+02 -1.678476e+00 1.084369e+02 -7.886282e-01 9.966334e+01 -4.148369e-02 9.116954e+01 5.938736e-01 8.283209e+01 8.448991e-01 7.421141e+01 7.344111e-01 6.608076e+01 1.104663e+00 5.834153e+01 1.254799e+00 5.039066e+01 8.744677e-01 4.243464e+01 1.193132e+00 3.498505e+01 1.336020e+00 2.742578e+01 7.045860e-01 1.939394e+01 9.437374e-01 1.208297e+01 1.111240e+00 4.754420e+00 4.477695e-01 -3.411617e+00 5.206415e-01 -1.068577e+01 6.808743e-01 -1.799483e+01 2.564343e-01 -2.621745e+01 4.205738e-02 -3.360475e+01 1.460796e-01 -4.102381e+01 -8.487123e-02 -4.921594e+01 -5.660130e-01 -5.698989e+01 -5.683661e-01 -6.459324e+01 -6.037767e-01 -7.234962e+01 -6.970957e-01 -8.029145e+01 -8.783611e-01 -8.843311e+01 -1.169199e+00 -9.680540e+01 -1.595104e+00 -1.054537e+02 
-1.824720e+00 -1.133329e+02 -2.654317e+00 -1.227278e+02 -3.771358e+00 1.265601e+02 -2.460346e+00 1.170634e+02 -1.398287e+00 1.079679e+02 -5.307060e-01 9.924720e+01 2.042615e-01 9.090633e+01 9.157593e-01 8.303641e+01 1.919391e+00 7.336530e+01 4.083065e-01 6.568144e+01 1.196929e+00 5.858731e+01 2.178084e+00 5.006000e+01 6.098996e-01 4.205992e+01 1.280076e+00 3.532245e+01 2.163612e+00 2.768644e+01 6.933426e-01 1.899604e+01 9.497155e-01 1.249863e+01 1.734956e+00 5.575508e+00 9.379906e-01 -3.796140e+00 3.937575e-01 -1.011952e+01 1.079100e+00 -1.682372e+01 1.299142e+00 -2.642387e+01 -2.003532e-01 -3.289522e+01 4.332579e-01 -3.966183e+01 1.181819e+00 -4.903305e+01 -7.673638e-01 -5.633919e+01 -3.709601e-01 -6.368777e+01 -2.579979e-01 -7.137979e+01 -3.064972e-01 -7.927905e+01 -4.793004e-01 -8.738468e+01 -7.753836e-01 -9.572875e+01 -1.213248e+00 -1.043583e+02 
-2.181968e+00 -1.143802e+02 -3.000510e+00 -1.237728e+02 -4.105585e+00 1.269377e+02 -2.782022e+00 1.174490e+02 -1.707640e+00 1.083563e+02 -8.263308e-01 9.964338e+01 -6.825622e-02 9.134798e+01 7.189940e-01 8.366897e+01 2.071452e+00 7.334395e+01 -1.129043e-01 6.590838e+01 9.156857e-01 5.904203e+01 2.287005e+00 5.004186e+01 1.287160e-01 4.203888e+01 9.899202e-01 3.554427e+01 2.213045e+00 2.766593e+01 2.804151e-01 1.865594e+01 5.797933e-01 1.244812e+01 1.639525e+00 5.544949e+00 6.628614e-01 -4.452990e+00 -9.416383e-02 -1.041166e+01 8.203370e-01 -1.696380e+01 1.203509e+00 -2.732987e+01 -7.920738e-01 -3.341977e+01 7.122325e-02 -3.999852e+01 1.164958e+00 -5.009521e+01 -1.379410e+00 -5.717628e+01 -8.228858e-01 -6.450994e+01 -6.582824e-01 -7.226014e+01 -6.916954e-01 -8.021369e+01 -8.585158e-01 -8.836376e+01 -1.149124e+00 -9.674200e+01 -1.579787e+00 -1.053946e+02 