# vtk DataFile Version 2.0
Comment goes here
ASCII

DATASET STRUCTURED_POINTS
FIELD FieldData 1
TIME 1 1 double
0.05000000
DIMENSIONS    64   64   1

ORIGIN    0.000   0.000   0.000
SPACING   0.03125 0.03125   1.000

POINT_DATA   4096
SCALARS P double
LOOKUP_TABLE default

-2.522685e+01 -1.705075e+02 -1.103041e+01 -1.806786e+02 4.162815e+01 1.250476e+02 6.073137e+00 1.156002e+02 4.472028e+00 1.116239e+02 -2.671291e+00 1.104969e+02 -1.130118e+01 1.090150e+02 -1.778561e+01 1.021176e+02 -1.735955e+01 8.999977e+01 -1.336758e+01 7.702474e+01 -1.097043e+01 6.547308e+01 -5.912220e+00 4.755604e+01 5.221879e+00 2.543490e+01 1.655557e+01 5.572882e+00 1.983676e+01 -5.136565e+00 1.648545e+01 -1.198783e+01 8.478471e+00 -1.428406e+01 -3.450193e+00 -1.690707e+01 -1.248813e+01 -2.333388e+01 -2.205939e+01 -2.660541e+01 -3.307431e+01 -3.203546e+01 -4.115567e+01 -3.933876e+01 -5.020075e+01 -4.327540e+01 -6.038773e+01 -4.918440e+01 -6.301803e+01 -6.359066e+01 -5.747859e+01 -8.295322e+01 -4.898709e+01 -1.027441e+02 -4.063847e+01 -1.232211e+02 -3.186720e+01 -1.401011e+02 -2.911194e+01 -1.499472e+02 -3.071551e+01 -1.557075e+02 -3.069632e+01 -1.668911e+02 
-6.781386e+00 -1.172809e+02 1.342913e+00 -1.236517e+02 3.789863e+01 1.058751e+02 8.766285e+00 9.951211e+01 7.047857e+00 9.554283e+01 2.944914e+00 9.255965e+01 -1.564324e+00 8.923512e+01 -5.034259e+00 8.311716e+01 -5.003983e+00 7.438784e+01 -3.300209e+00 6.538886e+01 -2.966132e+00 5.767363e+01 -1.485969e+00 4.640893e+01 3.415597e+00 3.285126e+01 8.666064e+00 2.013086e+01 9.963910e+00 1.207185e+01 8.471691e+00 5.367260e+00 5.084942e+00 1.008867e+00 -2.518098e-01 -3.627780e+00 -3.668325e+00 -1.055781e+01 -7.498538e+00 -1.534926e+01 -1.233645e+01 -2.147422e+01 -1.538412e+01 -2.863731e+01 -1.913156e+01 -3.362490e+01 -2.386690e+01 -3.927951e+01 -2.483944e+01 -4.915912e+01 -2.182671e+01 -6.117264e+01 -1.771598e+01 -7.295783e+01 -1.390258e+01 -8.520432e+01 -9.545951e+00 -9.566500e+01 -8.261507e+00 -1.024790e+02 -9.067232e+00 -1.070005e+02 -9.024681e+00 -1.145730e+02 
5.469660e+00 -9.067432e+01 7.397081e+00 -9.444634e+01 1.875492e+01 9.837283e+01 7.906552e+00 9.407046e+01 6.728838e+00 8.941171e+01 5.474159e+00 8.429850e+01 4.413245e+00 7.879434e+01 3.513017e+00 7.271834e+01 3.111930e+00 6.615070e+01 2.979544e+00 5.946594e+01 2.442617e+00 5.318771e+01 1.971477e+00 4.619814e+01 2.162837e+00 3.875519e+01 2.507380e+00 3.125399e+01 2.321711e+00 2.440624e+01 1.945910e+00 1.741067e+01 1.442279e+00 1.078626e+01 6.014468e-01 4.114134e+00 2.571154e-01 -3.022405e+00 -1.621229e-01 -9.504269e+00 -7.004286e-01 -1.632091e+01 -6.025914e-01 -2.341316e+01 -6.042422e-01 -3.001149e+01 -9.068772e-01 -3.660215e+01 -6.545332e-01 -4.372679e+01 7.660286e-02 -5.087065e+01 8.059121e-01 -5.763986e+01 1.440383e+00 -6.442845e+01 2.426550e+00 -7.086252e+01 3.109813e+00 -7.660972e+01 3.684163e+00 -8.168311e+01 4.462668e+00 -8.705864e+01 
5.015364e+00 -8.995701e+01 7.609607e+00 -9.328422e+01 9.910376e+00 9.638619e+01 8.416118e+00 9.257876e+01 6.850413e+00 8.813024e+01 5.360919e+00 8.326226e+01 4.083671e+00 7.794938e+01 3.095515e+00 7.206681e+01 2.549732e+00 6.568151e+01 2.266563e+00 5.906809e+01 1.910072e+00 5.243992e+01 1.741288e+00 4.531365e+01 2.040179e+00 3.781193e+01 2.447916e+00 3.034805e+01 2.519928e+00 2.333313e+01 2.293211e+00 1.651842e+01 1.839702e+00 9.986952e+00 1.184587e+00 3.460185e+00 6.809487e-01 -3.255835e+00 1.182966e-01 -9.756645e+00 -5.578181e-01 -1.640095e+01 -1.022792e+00 -2.314667e+01 -1.469077e+00 -2.969101e+01 -1.877881e+00 -3.631399e+01 -1.789462e+00 -4.332899e+01 -1.181937e+00 -5.048944e+01 -3.638770e-01 -5.749264e+01 5.267142e-01 -6.431888e+01 1.531511e+00 -7.067937e+01 2.314391e+00 -7.635706e+01 2.988473e+00 -8.143658e+01 3.864425e+00 -8.620403e+01 
5.543121e+00 -9.137253e+01 7.346874e+00 -9.512290e+01 9.264930e+00 9.827999e+01 7.706808e+00 9.433030e+01 6.396143e+00 8.961954e+01 5.266371e+00 8.439312e+01 4.333507e+00 7.874550e+01 3.595665e+00 7.268241e+01 3.110088e+00 6.627790e+01 2.780237e+00 5.969333e+01 2.419521e+00 5.305651e+01 2.138319e+00 4.612951e+01 2.079091e+00 3.896803e+01 2.074255e+00 3.177003e+01 1.902650e+00 2.474939e+01 1.595111e+00 1.777471e+01 1.194343e+00 1.091798e+01 7.050673e-01 4.059681e+00 3.267807e-01 -2.888042e+00 -1.133870e-02 -9.704870e+00 -3.083010e-01 -1.659219e+01 -4.036237e-01 -2.353807e+01 -4.390743e-01 -3.036014e+01 -4.500282e-01 -3.717703e+01 -2.246689e-01 -4.412815e+01 2.406176e-01 -5.107087e+01 8.029480e-01 -5.785396e+01 1.410884e+00 -6.448105e+01 2.131150e+00 -7.080669e+01 2.822934e+00 -7.668578e+01 3.550993e+00 -8.210783e+01 4.457713e+00 -8.721085e+01 
5.029556e+00 -9.152122e+01 6.893997e+00 -9.541088e+01 8.621373e+00 9.696195e+01 7.504763e+00 9.314148e+01 6.210199e+00 8.858454e+01 4.996370e+00 8.350972e+01 3.962790e+00 7.799171e+01 3.152901e+00 7.203887e+01 2.598979e+00 6.570845e+01 2.243438e+00 5.912195e+01 1.975233e+00 5.235736e+01 1.839227e+00 4.533507e+01 1.888962e+00 3.812658e+01 1.986087e+00 3.092102e+01 1.950438e+00 2.388270e+01 1.748851e+00 1.698971e+01 1.412485e+00 1.023573e+01 9.702197e-01 3.517663e+00 5.209056e-01 -3.235064e+00 6.215464e-02 -9.949754e+00 -4.119462e-01 -1.670483e+01 -8.116468e-01 -2.349343e+01 -1.117993e+00 -3.024402e+01 -1.289240e+00 -3.703760e+01 -1.185862e+00 -4.395863e+01 -7.802328e-01 -5.091923e+01 -1.813854e-01 -5.778104e+01 5.246963e-01 -6.444741e+01 1.298783e+00 -7.077600e+01 2.053956e+00 -7.666131e+01 2.842891e+00 -8.209901e+01 3.805188e+00 -8.711179e+01 
5.189161e+00 -9.326839e+01 6.595028e+00 -9.765783e+01 8.035346e+00 9.906228e+01 6.964507e+00 9.490806e+01 5.862596e+00 9.009476e+01 4.899114e+00 8.476257e+01 4.106328e+00 7.901850e+01 3.477328e+00 7.292213e+01 3.004762e+00 6.653482e+01 2.658031e+00 5.993943e+01 2.367363e+00 5.319786e+01 2.130929e+00 4.627926e+01 1.973483e+00 3.921562e+01 1.846997e+00 3.211084e+01 1.652193e+00 2.505221e+01 1.370893e+00 1.802427e+01 1.053638e+00 1.104648e+01 7.021572e-01 4.083074e+00 3.674666e-01 -2.900024e+00 9.788660e-02 -9.854105e+00 -1.110327e-01 -1.681551e+01 -2.327642e-01 -2.378405e+01 -2.595445e-01 -3.071514e+01 -1.950231e-01 -3.762822e+01 2.591658e-03 -4.455403e+01 3.450604e-01 -5.145127e+01 7.973937e-01 -5.824213e+01 1.321124e+00 -6.487096e+01 1.914985e+00 -7.125696e+01 2.554533e+00 -7.732707e+01 3.275030e+00 -8.305256e+01 4.140268e+00 -8.841829e+01 
4.510986e+00 -9.386687e+01 5.869437e+00 -9.855674e+01 7.190455e+00 9.853893e+01 6.382158e+00 9.420424e+01 5.414155e+00 8.937379e+01 4.477235e+00 8.408061e+01 3.662928e+00 7.838513e+01 3.001609e+00 7.232585e+01 2.501866e+00 6.594774e+01 2.178524e+00 5.932691e+01 1.952272e+00 5.252031e+01 1.798469e+00 4.554087e+01 1.734485e+00 3.844472e+01 1.698072e+00 3.133749e+01 1.587632e+00 2.429572e+01 1.378328e+00 1.732568e+01 1.110542e+00 1.043751e+01 7.647062e-01 3.584666e+00 3.707181e-01 -3.281696e+00 1.098500e-02 -1.013392e+01 -3.440734e-01 -1.699630e+01 -6.683627e-01 -2.388081e+01 -8.674750e-01 -3.075404e+01 -9.387526e-01 -3.763906e+01 -8.410685e-01 -4.455822e+01 -5.289838e-01 -5.146366e+01 -6.152981e-02 -5.828577e+01 5.016978e-01 -6.494910e+01 1.128410e+00 -7.137259e+01 1.798808e+00 -7.749737e+01 2.544352e+00 -8.330188e+01 3.429886e+00 -8.877307e+01 
4.477625e+00 -9.572122e+01 5.516219e+00 -1.008676e+02 6.575885e+00 1.008942e+02 5.880130e+00 9.614379e+01 5.095496e+00 9.100729e+01 4.365349e+00 8.547021e+01 3.747069e+00 7.958436e+01 3.241757e+00 7.340238e+01 2.827910e+00 6.696540e+01 2.531910e+00 6.030848e+01 2.302391e+00 5.349939e+01 2.082796e+00 4.656358e+01 1.876733e+00 3.950287e+01 1.716842e+00 3.240506e+01 1.509722e+00 2.532256e+01 1.217083e+00 1.822603e+01 9.633484e-01 1.115679e+01 6.854357e-01 4.113409e+00 3.653520e-01 -2.949789e+00 1.564628e-01 -1.000584e+01 4.837978e-03 -1.704164e+01 -1.253590e-01 -2.406894e+01 -1.376760e-01 -3.109042e+01 -4.651665e-02 -3.807677e+01 1.192991e-01 -4.502260e+01 3.815158e-01 -5.195273e+01 7.593611e-01 -5.880733e+01 1.199219e+00 -6.552464e+01 1.689836e+00 -7.205554e+01 2.236974e+00 -7.836413e+01 2.864716e+00 -8.442933e+01 3.603681e+00 -9.023020e+01 
3.680951e+00 -9.656346e+01 4.632182e+00 -1.020341e+02 5.552147e+00 1.009690e+02 5.077524e+00 9.592027e+01 4.458289e+00 9.062891e+01 3.815959e+00 8.502122e+01 3.228500e+00 7.910093e+01 2.720147e+00 7.288675e+01 2.289477e+00 6.640503e+01 2.063372e+00 5.970075e+01 1.889594e+00 5.284312e+01 1.709206e+00 4.586289e+01 1.594721e+00 3.877998e+01 1.511492e+00 3.169106e+01 1.349224e+00 2.463662e+01 1.105963e+00 1.758256e+01 8.975599e-01 1.059408e+01 6.025266e-01 3.641475e+00 2.084755e-01 -3.357584e+00 -4.734903e-02 -1.032643e+01 -3.145263e-01 -1.728573e+01 -6.160631e-01 -2.428167e+01 -7.188301e-01 -3.125605e+01 -7.349470e-01 -3.821816e+01 -6.679355e-01 -4.517889e+01 -3.942099e-01 -5.210322e+01 -3.115344e-03 -5.896323e+01 4.483802e-01 -6.570644e+01 9.464691e-01 -7.228727e+01 1.496398e+00 -7.867627e+01 2.118715e+00 -8.485902e+01 2.840913e+00 -9.082603e+01 
3.533603e+00 -9.840390e+01 4.220414e+00 -1.042728e+02 4.884915e+00 1.034836e+02 4.563209e+00 9.802598e+01 4.129786e+00 9.240843e+01 3.680681e+00 8.654751e+01 3.277918e+00 8.043684e+01 2.929227e+00 7.410468e+01 2.592419e+00 6.759590e+01 2.396247e+00 6.081727e+01 2.252179e+00 5.391461e+01 2.043510e+00 4.696364e+01 1.785739e+00 3.983029e+01 1.650882e+00 3.268376e+01 1.449296e+00 2.559589e+01 1.080068e+00 1.840403e+01 9.064411e-01 1.123996e+01 6.887528e-01 4.145072e+00 3.019529e-01 -3.010453e+00 1.699224e-01 -1.017956e+01 8.252034e-02 -1.728683e+01 -9.304886e-02 -2.436141e+01 -8.333485e-02 -3.150011e+01 3.720403e-02 -3.857557e+01 1.662384e-01 -4.552635e+01 3.533698e-01 -5.254621e+01 6.895556e-01 -5.951765e+01 1.046915e+00 -6.636518e+01 1.427149e+00 -7.307424e+01 1.853457e+00 -7.964090e+01 2.341955e+00 -8.605922e+01 2.901904e+00 -9.231923e+01 
2.668643e+00 -9.935440e+01 3.242650e+00 -1.055359e+02 3.744135e+00 1.039818e+02 3.630444e+00 9.819368e+01 3.370122e+00 9.234592e+01 3.038798e+00 8.633386e+01 2.699290e+00 8.011912e+01 2.362052e+00 7.368236e+01 1.968206e+00 6.707240e+01 1.935421e+00 6.022171e+01 1.835847e+00 5.327882e+01 1.593253e+00 4.628672e+01 1.471142e+00 3.913235e+01 1.408599e+00 3.201147e+01 1.193636e+00 2.496192e+01 8.655983e-01 1.778194e+01 7.646573e-01 1.070909e+01 5.002480e-01 3.708662e+00 -1.859544e-02 -3.465240e+00 -1.044449e-01 -1.053606e+01 -2.928602e-01 -1.756512e+01 -6.898753e-01 -2.469873e+01 -6.409969e-01 -3.177215e+01 -6.189150e-01 -3.881799e+01 -6.461399e-01 -4.584315e+01 -3.425772e-01 -5.282454e+01 1.490094e-02 -5.976392e+01 3.639192e-01 -6.661846e+01 7.287259e-01 -7.337668e+01 1.134699e+00 -8.003426e+01 1.593347e+00 -8.658602e+01 2.107699e+00 -9.302768e+01 
2.448395e+00 -1.011096e+02 2.781973e+00 -1.076349e+02 3.021698e+00 1.065559e+02 3.085414e+00 1.003973e+02 3.010788e+00 9.423932e+01 2.868885e+00 8.797888e+01 2.722899e+00 8.156053e+01 2.578689e+00 7.496714e+01 2.314970e+00 6.845360e+01 2.272816e+00 6.145164e+01 2.248641e+00 5.439247e+01 2.043412e+00 4.751420e+01 1.670364e+00 4.018254e+01 1.644552e+00 3.292883e+01 1.483088e+00 2.593111e+01 8.878956e-01 1.855279e+01 8.821454e-01 1.127466e+01 7.514393e-01 4.203303e+00 1.261495e-01 -3.078350e+00 1.439708e-01 -1.039779e+01 1.547036e-01 -1.756361e+01 -1.557073e-01 -2.461812e+01 -8.806478e-02 -3.195713e+01 8.269238e-02 -3.917966e+01 1.638773e-01 -4.601939e+01 2.700101e-01 -5.322827e+01 6.079298e-01 -6.034553e+01 8.634704e-01 -6.731410e+01 1.116372e+00 -7.419771e+01 1.405811e+00 -8.102068e+01 1.732802e+00 -8.778367e+01 2.086795e+00 -9.448208e+01 
1.555937e+00 -1.020805e+02 1.759683e+00 -1.088963e+02 1.814940e+00 1.073435e+02 2.083042e+00 1.008588e+02 2.177785e+00 9.444074e+01 2.161379e+00 8.798205e+01 2.097595e+00 8.141829e+01 1.986522e+00 7.464370e+01 1.552067e+00 6.788846e+01 1.841913e+00 6.085613e+01 1.827107e+00 5.381740e+01 1.445535e+00 4.679960e+01 1.344749e+00 3.948370e+01 1.401555e+00 3.231827e+01 1.111946e+00 2.530916e+01 5.592104e-01 1.789535e+01 7.343995e-01 1.079150e+01 5.000708e-01 3.839820e+00 -4.429376e-01 -3.677315e+00 -1.195527e-01 -1.076219e+01 -2.300481e-01 -1.778190e+01 -9.965214e-01 -2.519168e+01 -5.582564e-01 -3.229816e+01 -5.298388e-01 -3.942915e+01 -8.453729e-01 -4.660181e+01 -3.177956e-01 -5.364468e+01 3.744673e-02 -6.063825e+01 2.521951e-01 -6.758246e+01 4.661888e-01 -7.451469e+01 7.173175e-01 -8.143748e+01 9.968903e-01 -8.834133e+01 1.285909e+00 -9.522207e+01 
1.291833e+00 -1.037099e+02 1.270345e+00 -1.108204e+02 1.056527e+00 1.098828e+02 1.510952e+00 1.030718e+02 1.772682e+00 9.638011e+01 1.922386e+00 8.971952e+01 2.053495e+00 8.298115e+01 2.189533e+00 7.589841e+01 2.160332e+00 6.935363e+01 2.077264e+00 6.221170e+01 2.236641e+00 5.498174e+01 2.206969e+00 4.817204e+01 1.391697e+00 4.048801e+01 1.661710e+00 3.319803e+01 1.702777e+00 2.636937e+01 4.982752e-01 1.852531e+01 8.641939e-01 1.130233e+01 9.300067e-01 4.382334e+00 -2.310113e-01 -3.347602e+00 5.029914e-02 -1.064768e+01 2.033628e-01 -1.780364e+01 -3.032700e-01 -2.495112e+01 -1.401476e-01 -3.244003e+01 6.816996e-02 -3.985075e+01 1.080224e-01 -4.655067e+01 1.970376e-01 -5.410211e+01 5.291427e-01 -6.124033e+01 6.243926e-01 -6.826050e+01 7.476632e-01 -7.531287e+01 9.052802e-01 -8.239355e+01 1.067817e+00 -8.948803e+01 1.207806e+00 -9.659273e+01 
4.058813e-01 -1.046459e+02 2.472959e-01 -1.120201e+02 -1.562805e-01 1.108506e+02 5.022725e-01 1.037400e+02 9.185810e-01 9.679502e+01 1.162581e+00 8.991367e+01 1.305516e+00 8.298232e+01 1.386526e+00 7.602876e+01 1.082633e+00 6.780300e+01 1.285017e+00 6.171184e+01 1.512746e+00 5.500381e+01 1.209634e+00 4.657988e+01 8.033668e-01 3.986061e+01 1.292745e+00 3.309928e+01 1.102961e+00 2.508098e+01 -2.192137e-01 1.777906e+01 7.441325e-01 1.114021e+01 7.208204e-01 3.886349e+00 -1.495116e+00 -4.506961e+00 -8.180712e-02 -1.084922e+01 -1.641901e-01 -1.767789e+01 -2.023687e+00 -2.648929e+01 -3.914831e-01 -3.269899e+01 -5.287974e-01 -3.956378e+01 -1.956750e+00 -4.818357e+01 -1.754751e-01 -5.462730e+01 1.184314e-01 -6.144372e+01 7.893359e-02 -6.844690e+01 1.447418e-01 -7.558608e+01 2.558914e-01 -8.279004e+01 3.606336e-01 -9.003219e+01 4.240496e-01 -9.731378e+01 
1.246939e-01 -1.061282e+02 -2.395153e-01 -1.137532e+02 -8.921922e-01 1.132801e+02 -5.864623e-02 1.058690e+02 4.904622e-01 9.865214e+01 8.291690e-01 9.159082e+01 1.064187e+00 8.474510e+01 1.474199e+00 7.851040e+01 2.791556e+00 6.775643e+01 1.069037e+00 6.318540e+01 1.555685e+00 5.758458e+01 3.115264e+00 4.672983e+01 1.640832e-01 4.034874e+01 9.874930e-01 3.512643e+01 2.376652e+00 2.573955e+01 -2.625899e-01 1.728828e+01 1.127838e-01 1.236000e+01 1.120292e+00 5.077003e+00 -3.561826e-01 -5.937771e+00 -8.703698e-01 -1.042726e+01 -3.747814e-01 -1.664344e+01 -2.604312e-01 -2.813064e+01 -8.723297e-01 -3.276527e+01 -7.596145e-01 -3.877874e+01 -6.921997e-01 -4.973343e+01 9.702309e-02 -5.518180e+01 2.328208e-01 -6.184597e+01 2.545370e-01 -6.903266e+01 3.248120e-01 -7.633957e+01 3.780238e-01 -8.369786e+01 3.834504e-01 -9.110605e+01 3.124056e-01 -9.857743e+01 
-7.252256e-01 -1.069942e+02 -1.221817e+00 -1.148555e+02 -2.041071e+00 1.143246e+02 -9.982940e-01 1.066539e+02 -2.690115e-01 9.924841e+01 2.263631e-01 9.211133e+01 5.769515e-01 8.535734e+01 9.715159e-01 7.928464e+01 1.760487e+00 6.711893e+01 1.510464e+00 6.326863e+01 1.787842e+00 5.812393e+01 3.196840e+00 4.580623e+01 3.788223e-01 4.031752e+01 1.200590e+00 3.567999e+01 2.871766e+00 2.501481e+01 -1.548394e-01 1.695823e+01 1.440761e-01 1.286422e+01 1.549464e+00 5.106254e+00 -1.451907e-01 -6.636136e+00 -1.090736e+00 -9.874190e+00 -2.079583e-01 -1.596817e+01 3.870633e-01 -2.901223e+01 -1.240102e+00 -3.205256e+01 -7.896294e-01 -3.778355e+01 4.274950e-01 -5.099543e+01 -2.687828e-01 -5.457088e+01 -4.016433e-01 -6.152994e+01 -2.954030e-01 -6.905683e+01 -2.220244e-01 -7.656070e+01 -2.159396e-01 -8.406393e+01 -2.780944e-01 -9.161522e+01 -4.328561e-01 -9.924932e+01 
-9.986583e-01 -1.083173e+02 -1.675889e+00 -1.163925e+02 -2.699384e+00 1.166103e+02 -1.503577e+00 1.086794e+02 -6.312954e-01 1.010251e+02 -6.426265e-03 9.361362e+01 4.114237e-01 8.641287e+01 5.657177e-01 7.929867e+01 -5.323407e-01 6.941352e+01 1.623720e+00 6.335603e+01 1.597597e+00 5.704464e+01 8.787116e-01 4.753451e+01 8.498092e-01 4.067843e+01 1.250551e+00 3.447847e+01 1.169616e+00 2.584145e+01 -1.529360e-01 1.782969e+01 5.400763e-01 1.178883e+01 8.212610e-01 4.482021e+00 -9.048583e-01 -5.196007e+00 -4.297209e-01 -1.091452e+01 -2.470385e-01 -1.749107e+01 -8.816133e-01 -2.761843e+01 -7.617394e-01 -3.330892e+01 -7.144178e-01 -3.972587e+01 -6.508917e-01 -4.953804e+01 -3.115472e-01 -5.560226e+01 -1.951286e-01 -6.252646e+01 -1.129590e-01 -6.987663e+01 -7.801134e-02 -7.736417e+01 -1.295450e-01 -8.493943e+01 -2.799540e-01 -9.260882e+01 -5.548694e-01 -1.003930e+02 
-1.789366e+00 -1.090890e+02 -2.585321e+00 -1.173760e+02 -3.755055e+00 1.176253e+02 -2.371659e+00 1.094511e+02 -1.321097e+00 1.015824e+02 -5.096389e-01 9.395288e+01 1.474984e-01 8.641569e+01 6.459772e-01 7.858508e+01 6.576954e-01 7.119547e+01 1.281435e+00 6.369006e+01 1.795962e+00 5.617419e+01 1.549159e+00 4.865117e+01 1.047033e+00 4.104046e+01 1.571997e+00 3.370293e+01 1.444420e+00 2.630133e+01 1.279014e-01 1.848004e+01 9.330588e-01 1.135982e+01 9.644024e-01 4.172299e+00 -8.102022e-01 -4.022824e+00 1.035572e-01 -1.097427e+01 1.727574e-01 -1.815628e+01 -1.047200e+00 -2.622463e+01 -2.736882e-01 -3.315118e+01 -2.661127e-01 -4.052933e+01 -9.442711e-01 -4.845866e+01 -3.563623e-01 -5.541422e+01 -2.725973e-01 -6.264801e+01 -4.184219e-01 -7.005156e+01 -5.229486e-01 -7.760838e+01 -6.619628e-01 -8.528069e+01 -8.892049e-01 -9.306844e+01 -1.247471e+00 -1.009941e+02 
-2.034644e+00 -1.102461e+02 -2.991575e+00 -1.187123e+02 -4.348000e+00 1.196815e+02 -2.847273e+00 1.112634e+02 -1.705137e+00 1.031328e+02 -8.482391e-01 9.521546e+01 -2.197678e-01 8.739675e+01 1.978792e-01 7.947520e+01 4.316875e-01 7.190479e+01 9.521442e-01 6.420692e+01 1.310609e+00 5.653851e+01 1.300432e+00 4.917211e+01 1.057075e+00 4.142217e+01 1.268514e+00 3.387989e+01 1.202573e+00 2.666577e+01 4.553294e-01 1.885571e+01 7.449340e-01 1.141023e+01 7.094106e-01 4.217406e+00 -2.602239e-01 -3.596001e+00 9.318610e-02 -1.106915e+01 1.639218e-01 -1.839147e+01 -4.657578e-01 -2.587617e+01 -1.286495e-01 -3.346306e+01 -3.198976e-02 -4.097446e+01 -2.927351e-01 -4.811365e+01 -1.169577e-01 -5.581885e+01 -4.018640e-02 -6.327502e+01 -1.879457e-01 -7.074580e+01 -3.533132e-01 -7.834535e+01 -5.685004e-01 -8.608167e+01 -8.867795e-01 -9.396156e+01 -1.356840e+00 -1.020059e+02 
-2.751887e+00 -1.109075e+02 -3.811620e+00 -1.195594e+02 -5.290959e+00 1.205744e+02 -3.626469e+00 1.119308e+02 -2.322571e+00 1.035886e+02 -1.306128e+00 9.547089e+01 -5.194768e-01 8.749247e+01 6.329028e-02 7.962338e+01 4.447822e-01 7.214249e+01 7.997449e-01 6.434321e+01 1.206089e+00 5.661120e+01 1.274683e+00 4.918811e+01 1.079020e+00 4.146717e+01 1.247079e+00 3.387732e+01 1.152669e+00 2.655957e+01 5.773325e-01 1.888073e+01 7.626235e-01 1.139323e+01 6.568120e-01 4.100076e+00 -1.342846e-01 -3.568389e+00 1.207120e-01 -1.103979e+01 1.049322e-01 -1.839942e+01 -5.245089e-01 -2.590915e+01 -2.441848e-01 -3.341350e+01 -2.264763e-01 -4.090097e+01 -6.399383e-01 -4.826663e+01 -4.402000e-01 -5.578979e+01 -3.773770e-01 -6.330672e+01 -5.360200e-01 -7.087289e+01 -7.612360e-01 -7.855462e+01 -1.047795e+00 -8.637646e+01 -1.438793e+00 -9.435616e+01 -1.986422e+00 -1.025206e+02 
-2.954981e+00 -1.118933e+02 -4.159902e+00 -1.206910e+02 -5.818090e+00 1.223754e+02 -4.056504e+00 1.135313e+02 -2.682533e+00 1.049810e+02 -1.625272e+00 9.666306e+01 -8.257544e-01 8.851733e+01 -2.408310e-01 8.051146e+01 1.677104e-01 7.272927e+01 5.464255e-01 6.489778e+01 9.028278e-01 5.712642e+01 1.038324e+00 4.954697e+01 9.634614e-01 4.184022e+01 1.061423e+00 3.421200e+01 1.011241e+00 2.676479e+01 6.442214e-01 1.913265e+01 6.822919e-01 1.157177e+01 5.912345e-01 4.146283e+00 1.114387e-01 -3.441591e+00 1.697337e-01 -1.101441e+01 1.592166e-01 -1.848365e+01 -1.797844e-01 -2.595314e+01 -9.854214e-02 -3.355169e+01 -5.858224e-02 -4.108887e+01 -2.387575e-01 -4.846286e+01 -2.381698e-01 -5.610017e+01 -2.085973e-01 -6.375326e+01 -3.538573e-01 -7.142004e+01 -6.055784e-01 -7.917648e+01 -9.505520e-01 -8.706891e+01 -1.421524e+00 -9.512887e+01 -2.068759e+00 -1.033897e+02 
-3.592549e+00 -1.124325e+02 -4.884302e+00 -1.213872e+02 -6.646654e+00 1.231024e+02 -4.741626e+00 1.140697e+02 -3.229749e+00 1.053504e+02 -2.042448e+00 9.689374e+01 -1.121800e+00 8.866030e+01 -4.265028e-01 8.063431e+01 5.880419e-02 7.280215e+01 4.462548e-01 6.494905e+01 8.080173e-01 5.716632e+01 9.696883e-01 4.951060e+01 9.546579e-01 4.181165e+01 1.025830e+00 3.418923e+01 9.600276e-01 2.667424e+01 6.838088e-01 1.906851e+01 6.647584e-01 1.153089e+01 5.338108e-01 4.068830e+00 1.416996e-01 -3.505185e+00 1.310127e-01 -1.102965e+01 5.134925e-02 -1.849717e+01 -2.688215e-01 -2.601581e+01 -2.534326e-01 -3.354913e+01 -2.931216e-01 -4.106073e+01 -5.141696e-01 -4.855669e+01 -5.270041e-01 -5.614797e+01 -5.507634e-01 -6.380007e+01 -7.164076e-01 -7.151621e+01 -9.997745e-01 -7.933666e+01 -1.392206e+00 -8.730099e+01 -1.920277e+00 -9.544454e+01 -2.632311e+00 -1.038058e+02 
-3.742359e+00 -1.132439e+02 -5.161349e+00 -1.223126e+02 -7.084657e+00 1.246476e+02 -5.097820e+00 1.154621e+02 -3.526890e+00 1.065879e+02 -2.299261e+00 9.798160e+01 -1.354404e+00 8.960719e+01 -6.440213e-01 8.143662e+01 -1.318385e-01 7.343909e+01 2.724611e-01 6.550590e+01 6.295621e-01 5.765490e+01 8.257873e-01 4.991008e+01 8.574731e-01 4.217476e+01 9.271867e-01 3.450252e+01 8.989923e-01 2.691371e+01 7.034534e-01 1.929162e+01 6.591008e-01 1.170048e+01 5.597964e-01 4.164926e+00 2.911474e-01 -3.413053e+00 2.339163e-01 -1.099422e+01 1.757705e-01 -1.853005e+01 -2.123712e-02 -2.606608e+01 -6.285067e-02 -3.365194e+01 -8.530275e-02 -4.121878e+01 -2.127003e-01 -4.875980e+01 -3.067460e-01 -5.641950e+01 -3.714590e-01 -6.415757e+01 -5.475351e-01 -7.195490e+01 -8.534592e-01 -7.984556e+01 -1.290363e+00 -8.787516e+01 -1.883052e+00 -9.608707e+01 -2.678628e+00 -1.045258e+02 
-4.296381e+00 -1.136515e+02 -5.784704e+00 -1.228475e+02 -7.793184e+00 1.251803e+02 -5.683850e+00 1.158467e+02 -3.998808e+00 1.068439e+02 -2.666646e+00 9.813469e+01 -1.629196e+00 8.968728e+01 -8.428168e-01 8.147023e+01 -2.751955e-01 7.343413e+01 1.685858e-01 6.547488e+01 5.422567e-01 5.760784e+01 7.526268e-01 4.983677e+01 8.164447e-01 4.209476e+01 8.833448e-01 3.442258e+01 8.486037e-01 2.681756e+01 6.809305e-01 1.919896e+01 6.183058e-01 1.162130e+01 4.958089e-01 4.083101e+00 2.409205e-01 -3.490456e+00 1.539486e-01 -1.104701e+01 5.112840e-02 -1.857373e+01 -1.634785e-01 -2.611849e+01 -2.407756e-01 -3.367998e+01 -3.164025e-01 -4.123796e+01 -4.788595e-01 -4.881295e+01 -5.857941e-01 -5.646736e+01 -6.858543e-01 -6.420331e+01 -8.894553e-01 -7.202236e+01 -1.223100e+00 -7.995296e+01 -1.694603e+00 -8.803585e+01 -2.329455e+00 -9.631394e+01 -3.174622e+00 -1.048337e+02 
-4.381738e+00 -1.142889e+02 -5.975772e+00 -1.235683e+02 -8.119175e+00 1.264641e+02 -5.944983e+00 1.170214e+02 -4.212951e+00 1.079070e+02 -2.846107e+00 9.908342e+01 -1.783174e+00 9.051887e+01 -9.742600e-01 8.218914e+01 -3.756237e-01 7.406979e+01 6.399657e-02 6.601877e+01 4.587667e-01 5.807051e+01 6.984870e-01 5.025047e+01 7.564917e-01 4.245044e+01 8.462872e-01 3.471733e+01 8.528465e-01 2.707261e+01 6.997596e-01 1.942097e+01 6.560723e-01 1.178311e+01 5.797174e-01 4.199447e+00 3.662165e-01 -3.384125e+00 2.809122e-01 -1.100563e+01 2.175251e-01 -1.858579e+01 5.656104e-02 -2.613260e+01 -3.827389e-02 -3.376087e+01 -8.687439e-02 -4.137972e+01 -2.083011e-01 -4.896727e+01 -3.695524e-01 -5.668182e+01 -4.899547e-01 -6.449223e+01 -7.115400e-01 -7.237378e+01 -1.071019e+00 -8.035819e+01 -1.579289e+00 -8.849275e+01 -2.264533e+00 -9.682465e+01 -3.175878e+00 -1.054035e+02 
-4.847906e+00 -1.145581e+02 -6.491707e+00 -1.239347e+02 -8.698517e+00 1.267751e+02 -6.425235e+00 1.172234e+02 -4.602891e+00 1.080159e+02 -3.154324e+00 9.911660e+01 -2.021125e+00 9.049206e+01 -1.161137e+00 8.211430e+01 -5.329063e-01 7.397424e+01 -4.187497e-02 6.589623e+01 3.805583e-01 5.793779e+01 6.217840e-01 5.012486e+01 6.928872e-01 4.231380e+01 7.965314e-01 3.458576e+01 7.964122e-01 2.695645e+01 6.291968e-01 1.929627e+01 5.961035e-01 1.167314e+01 5.029692e-01 4.107163e+00 2.485193e-01 -3.484474e+00 1.698271e-01 -1.108714e+01 7.645441e-02 -1.864953e+01 -1.387480e-01 -2.619536e+01 -2.352269e-01 -3.381094e+01 -3.183091e-01 -4.142096e+01 -4.870295e-01 -4.900520e+01 -6.455344e-01 -5.671649e+01 -7.765107e-01 -6.451777e+01 -1.022428e+00 -7.240070e+01 -1.407320e+00 -8.040413e+01 -1.941631e+00 -8.857403e+01 -2.656011e+00 -9.695506e+01 -3.601439e+00 -1.055960e+02 
-4.857047e+00 -1.150255e+02 -6.582560e+00 -1.244549e+02 -8.895994e+00 1.277850e+02 -6.577475e+00 1.181663e+02 -4.724516e+00 1.088896e+02 -3.251079e+00 9.991431e+01 -2.093904e+00 9.119764e+01 -1.209060e+00 8.272220e+01 -5.332068e-01 7.460173e+01 -8.274018e-02 6.640826e+01 3.822100e-01 5.835066e+01 6.605980e-01 5.055829e+01 6.630394e-01 4.265678e+01 8.052204e-01 3.484937e+01 8.658380e-01 2.722673e+01 6.576718e-01 1.952813e+01 6.577028e-01 1.181988e+01 6.357350e-01 4.227865e+00 3.825607e-01 -3.333416e+00 3.010059e-01 -1.104725e+01 2.707461e-01 -1.866730e+01 9.219381e-02 -2.613194e+01 -3.694735e-02 -3.387273e+01 -7.376215e-02 -4.156972e+01 -2.038135e-01 -4.907831e+01 -4.375731e-01 -5.687331e+01 -5.608249e-01 -6.475041e+01 -8.308125e-01 -7.267218e+01 -1.242864e+00 -8.070956e+01 -1.804535e+00 -8.891644e+01 -2.554088e+00 -9.733665e+01 -3.547370e+00 -1.060188e+02 
-5.230561e+00 -1.151514e+02 -6.984367e+00 -1.246479e+02 -9.336503e+00 1.278475e+02 -6.944615e+00 1.181583e+02 -5.026662e+00 1.088249e+02 -3.494030e+00 9.980546e+01 -2.283641e+00 9.104985e+01 -1.364401e+00 8.251594e+01 -7.041832e-01 7.439390e+01 -1.774302e-01 6.617492e+01 3.224177e-01 5.812672e+01 5.739066e-01 5.038287e+01 5.807147e-01 4.244786e+01 7.578542e-01 3.466539e+01 8.025832e-01 2.710092e+01 5.356417e-01 1.934535e+01 5.905017e-01 1.168270e+01 5.504830e-01 4.146727e+00 1.839190e-01 -3.493030e+00 1.759511e-01 -1.115363e+01 1.175409e-01 -1.872727e+01 -1.787611e-01 -2.623262e+01 -2.376699e-01 -3.394022e+01 -3.049181e-01 -4.161457e+01 -5.280697e-01 -4.911753e+01 -7.055119e-01 -5.690566e+01 -8.164697e-01 -6.474006e+01 -1.111712e+00 -7.263888e+01 -1.544295e+00 -8.068022e+01 -2.121765e+00 -8.890969e+01 -2.887102e+00 -9.736452e+01 -3.898658e+00 -1.060908e+02 
-5.151471e+00 -1.154551e+02 -6.960875e+00 -1.249739e+02 -9.389923e+00 1.285683e+02 -6.977250e+00 1.188515e+02 -5.053321e+00 1.094925e+02 -3.515501e+00 1.004536e+02 -2.286233e+00 9.166176e+01 -1.335655e+00 8.297891e+01 -5.805233e-01 7.501522e+01 -1.428157e-01 6.661426e+01 3.901904e-01 5.847075e+01 7.065449e-01 5.088554e+01 5.872189e-01 4.272424e+01 7.711354e-01 3.489231e+01 9.228645e-01 2.743207e+01 6.276023e-01 1.953214e+01 6.189587e-01 1.181370e+01 6.978995e-01 4.301277e+00 4.207141e-01 -3.320264e+00 2.543475e-01 -1.112941e+01 2.956653e-01 -1.875068e+01 1.341749e-01 -2.606256e+01 -6.621318e-02 -3.399311e+01 -6.793565e-02 -4.177924e+01 -1.984412e-01 -4.908327e+01 -4.781490e-01 -5.705528e+01 -5.879809e-01 -6.491801e+01 -9.250239e-01 -7.281779e+01 -1.369812e+00 -8.088326e+01 -1.955203e+00 -8.914208e+01 -2.737708e+00 -9.762338e+01 -3.778198e+00 -1.063730e+02 
-5.427751e+00 -1.154344e+02 -7.241903e+00 -1.249902e+02 -9.681074e+00 1.283573e+02 -7.223313e+00 1.186076e+02 -5.261835e+00 1.092294e+02 -3.691821e+00 1.001868e+02 -2.435298e+00 9.140627e+01 -1.457443e+00 8.273844e+01 -8.162086e-01 7.446058e+01 -2.759551e-01 6.626021e+01 3.202248e-01 5.827636e+01 5.906269e-01 5.054230e+01 4.465199e-01 4.239859e+01 7.029032e-01 3.474776e+01 8.570737e-01 2.725462e+01 4.163401e-01 1.916098e+01 5.231251e-01 1.171175e+01 5.949259e-01 4.317385e+00 6.984569e-02 -3.783952e+00 8.459391e-02 -1.121947e+01 8.437096e-02 -1.863867e+01 -3.238001e-01 -2.647141e+01 -3.082036e-01 -3.404178e+01 -3.424070e-01 -4.164280e+01 -7.059610e-01 -4.935759e+01 -7.570950e-01 -5.709215e+01 -8.248318e-01 -6.482052e+01 -1.187049e+00 -7.269205e+01 -1.636315e+00 -8.076523e+01 -2.223349e+00 -8.904199e+01 -3.008178e+00 -9.754546e+01 -4.051350e+00 -1.063212e+02 
-5.249438e+00 -1.155814e+02 -7.089714e+00 -1.251300e+02 -9.566175e+00 1.287823e+02 -7.121848e+00 1.190329e+02 -5.186877e+00 1.096475e+02 -3.655482e+00 1.006111e+02 -2.443690e+00 9.193988e+01 -1.416135e+00 8.369119e+01 -5.127392e-01 7.423631e+01 -1.192461e-01 6.650832e+01 1.916547e-01 5.919992e+01 8.057333e-01 5.075958e+01 6.845507e-01 4.220830e+01 3.796115e-01 3.543612e+01 8.706314e-01 2.773943e+01 1.109069e+00 1.859110e+01 4.887680e-02 1.213041e+01 4.465186e-01 5.062542e+00 1.120742e+00 -4.572752e+00 -3.896904e-01 -1.108761e+01 -1.042064e-01 -1.792586e+01 5.693197e-01 -2.717753e+01 -4.651183e-01 -3.406093e+01 -4.087792e-01 -4.101651e+01 -1.602090e-01 -5.004410e+01 -4.228194e-01 -5.726417e+01 -7.633738e-01 -6.478774e+01 -1.044906e+00 -7.274564e+01 -1.439490e+00 -8.087821e+01 -2.011768e+00 -8.918013e+01 -2.799279e+00 -9.769309e+01 -3.854162e+00 -1.064710e+02 
-5.425846e+00 -1.154105e+02 -7.244556e+00 -1.249667e+02 -9.696451e+00 1.282809e+02 -7.239314e+00 1.185318e+02 -5.292745e+00 1.091566e+02 -3.750899e+00 1.001509e+02 -2.523140e+00 9.157125e+01 -1.422891e+00 8.358227e+01 -2.772011e-01 7.341173e+01 -7.139670e-02 6.620167e+01 1.381219e-01 5.925556e+01 9.831071e-01 5.032740e+01 7.560173e-01 4.178416e+01 2.276964e-01 3.551630e+01 9.166849e-01 2.764652e+01 1.331259e+00 1.808570e+01 -1.880351e-01 1.224734e+01 3.850129e-01 5.322540e+00 1.445870e+00 -5.094841e+00 -6.572056e-01 -1.093098e+01 -2.377649e-01 -1.750876e+01 8.054508e-01 -2.757164e+01 -6.591007e-01 -3.384440e+01 -5.815819e-01 -4.053149e+01 -1.144993e-01 -5.035697e+01 -5.047039e-01 -5.708699e+01 -9.907036e-01 -6.451743e+01 -1.267159e+00 -7.252164e+01 -1.654182e+00 -8.067923e+01 -2.223233e+00 -8.899088e+01 -3.004334e+00 -9.750939e+01 -4.047504e+00 -1.062930e+02 