# vtk DataFile Version 2.0
Comment goes here
ASCII

DATASET STRUCTURED_POINTS
FIELD FieldData 1
TIME 1 1 double
0.01600000
DIMENSIONS    64   64   1

ORIGIN    0.000   0.000   0.000
SPACING   0.03125 0.03125   1.000

POINT_DATA   4096
SCALARS P double
LOOKUP_TABLE default

-1.299808e+01 -1.406897e+02 -2.313874e+01 -1.380429e+02 2.246791e+01 1.429759e+02 -7.315742e+00 1.287420e+02 6.202490e+00 1.154324e+02 1.603363e+01 1.012051e+02 2.559801e+01 8.886912e+01 2.998398e+01 7.960649e+01 3.196551e+01 7.185336e+01 3.040755e+01 6.576779e+01 2.718859e+01 6.118212e+01 2.005158e+01 5.741876e+01 1.400630e+01 5.082332e+01 9.847929e+00 4.234365e+01 8.522679e+00 3.093479e+01 5.742284e+00 2.357390e+01 2.481772e-01 1.242779e+01 1.792592e+00 -3.641612e+00 1.317885e+00 -1.089267e+01 -8.984150e+00 -1.419770e+01 -1.670544e+01 -2.311204e+01 -2.024766e+01 -3.068064e+01 -2.396686e+01 -4.363029e+01 -1.996648e+01 -6.026228e+01 -1.658928e+01 -7.628143e+01 -1.353158e+01 -8.630546e+01 -1.974972e+01 -9.129232e+01 -2.751525e+01 -9.006042e+01 -4.171723e+01 -8.459853e+01 -5.499451e+01 -8.799220e+01 -5.194539e+01 -1.080870e+02 -3.448249e+01 -1.393110e+02 
-1.254832e-01 -1.051871e+02 -8.049045e+00 -1.039289e+02 2.385181e+01 1.069950e+02 -1.712675e+00 9.885843e+01 4.212247e+00 9.137168e+01 7.928279e+00 8.295828e+01 1.194622e+01 7.513102e+01 1.343416e+01 6.856657e+01 1.405116e+01 6.236919e+01 1.313333e+01 5.664732e+01 1.181257e+01 5.159350e+01 8.346424e+00 4.701473e+01 5.702379e+00 4.076825e+01 3.976113e+00 3.381937e+01 3.688358e+00 2.524614e+01 2.566113e+00 1.926211e+01 -4.177742e-01 1.130271e+01 7.970929e-01 1.646894e-01 1.142100e+00 -6.000855e+00 -4.019172e+00 -1.007689e+01 -7.514175e+00 -1.750938e+01 -8.867548e+00 -2.352376e+01 -1.115224e+01 -3.220200e+01 -9.054335e+00 -4.293246e+01 -7.359713e+00 -5.355675e+01 -5.218448e+00 -6.124880e+01 -7.904721e+00 -6.682325e+01 -1.056917e+01 -6.936064e+01 -1.681124e+01 -6.915593e+01 -2.329137e+01 -7.295376e+01 -2.150191e+01 -8.529299e+01 -1.226553e+01 -1.042657e+02 
4.105912e+00 -8.915999e+01 1.911994e+00 -9.131948e+01 1.182582e+01 9.061900e+01 2.080174e+00 8.664639e+01 2.423318e+00 8.242530e+01 2.289190e+00 7.746444e+01 2.449517e+00 7.210220e+01 2.300930e+00 6.658732e+01 2.136373e+00 6.081660e+01 1.862487e+00 5.474553e+01 1.802056e+00 4.866006e+01 1.298679e+00 4.265154e+01 1.032198e+00 3.621090e+01 8.286962e-01 2.981943e+01 7.573139e-01 2.311012e+01 5.111502e-01 1.703313e+01 -2.990076e-01 1.067990e+01 -2.149789e-01 3.475471e+00 -9.889439e-02 -2.827343e+00 -1.029697e+00 -8.772653e+00 -1.532782e+00 -1.548900e+01 -1.717202e+00 -2.152922e+01 -2.562860e+00 -2.785526e+01 -2.464425e+00 -3.460453e+01 -2.365357e+00 -4.146362e+01 -1.767697e+00 -4.798980e+01 -1.822795e+00 -5.448498e+01 -1.295462e+00 -6.061341e+01 -1.379148e+00 -6.592599e+01 -1.813968e+00 -7.139400e+01 -9.952425e-01 -7.792910e+01 1.044797e+00 -8.580231e+01 
2.100467e+00 -8.598215e+01 1.562698e+00 -8.812851e+01 1.614154e+00 8.749123e+01 1.897650e+00 8.412946e+01 2.371792e+00 7.992643e+01 2.666435e+00 7.508234e+01 2.953359e+00 6.987446e+01 3.003110e+00 6.449136e+01 2.887152e+00 5.893196e+01 2.619366e+00 5.319352e+01 2.307603e+00 4.741149e+01 1.764466e+00 4.157590e+01 1.323370e+00 3.545235e+01 1.007225e+00 2.920919e+01 7.857140e-01 2.281135e+01 4.794377e-01 1.660820e+01 -7.320448e-03 1.022513e+01 -1.276098e-01 3.503620e+00 -3.064231e-01 -2.753743e+00 -1.020408e+00 -8.749977e+00 -1.619967e+00 -1.502512e+01 -2.020097e+00 -2.115653e+01 -2.501308e+00 -2.751882e+01 -2.450382e+00 -3.419864e+01 -2.214618e+00 -4.090554e+01 -1.840710e+00 -4.729675e+01 -1.831196e+00 -5.336158e+01 -1.809800e+00 -5.896028e+01 -2.099724e+00 -6.410753e+01 -2.327356e+00 -6.953254e+01 -1.549968e+00 -7.576204e+01 2.234987e-01 -8.217391e+01 
2.084274e+00 -8.865736e+01 1.862681e+00 -9.178775e+01 1.968903e+00 9.076492e+01 2.010366e+00 8.714260e+01 2.118334e+00 8.279637e+01 2.123965e+00 7.786493e+01 2.145337e+00 7.252973e+01 2.063850e+00 6.692775e+01 1.926739e+00 6.108946e+01 1.739976e+00 5.504965e+01 1.560475e+00 4.890904e+01 1.271597e+00 4.269709e+01 1.022702e+00 3.631971e+01 8.081146e-01 2.987793e+01 6.142927e-01 2.335707e+01 3.458339e-01 1.695143e+01 -3.779552e-02 1.044500e+01 -2.213592e-01 3.741397e+00 -4.165794e-01 -2.742362e+00 -8.749560e-01 -9.103958e+00 -1.264920e+00 -1.560580e+01 -1.565018e+00 -2.199433e+01 -1.925557e+00 -2.847081e+01 -1.998506e+00 -3.509487e+01 -1.932192e+00 -4.174925e+01 -1.702504e+00 -4.827185e+01 -1.556704e+00 -5.465907e+01 -1.298299e+00 -6.079838e+01 -1.150362e+00 -6.662335e+01 -9.720323e-01 -7.243773e+01 -2.981092e-01 -7.846611e+01 8.631133e-01 -8.438390e+01 
1.080305e+00 -8.618669e+01 1.348576e+00 -8.944723e+01 1.676619e+00 8.856659e+01 1.846672e+00 8.501007e+01 2.115306e+00 8.069343e+01 2.343780e+00 7.582855e+01 2.513892e+00 7.059456e+01 2.554903e+00 6.511650e+01 2.469305e+00 5.944848e+01 2.273261e+00 5.362914e+01 1.999889e+00 4.771016e+01 1.638811e+00 4.169184e+01 1.289448e+00 3.552711e+01 9.848344e-01 2.925706e+01 7.099852e-01 2.290779e+01 4.108992e-01 1.656224e+01 7.831913e-02 1.014408e+01 -1.791107e-01 3.648369e+00 -4.753909e-01 -2.719042e+00 -9.201955e-01 -8.992286e+00 -1.350185e+00 -1.531674e+01 -1.697934e+00 -2.164876e+01 -1.973501e+00 -2.807693e+01 -2.035484e+00 -3.461156e+01 -1.958544e+00 -4.112809e+01 -1.814267e+00 -4.747129e+01 -1.741832e+00 -5.357726e+01 -1.684843e+00 -5.940736e+01 -1.660832e+00 -6.502354e+01 -1.489791e+00 -7.066252e+01 -8.821465e-01 -7.640972e+01 1.155077e-01 -8.186593e+01 
1.321836e+00 -8.935318e+01 1.565773e+00 -9.327674e+01 1.807908e+00 9.231940e+01 1.854201e+00 8.833168e+01 1.916556e+00 8.373451e+01 1.946196e+00 7.865760e+01 1.947172e+00 7.321616e+01 1.886667e+00 6.749886e+01 1.770924e+00 6.155958e+01 1.613496e+00 5.545132e+01 1.431335e+00 4.922674e+01 1.208199e+00 4.290832e+01 9.842438e-01 3.649306e+01 7.687648e-01 3.001468e+01 5.495829e-01 2.349078e+01 2.990046e-01 1.696879e+01 2.172382e-02 1.040462e+01 -2.155832e-01 3.787868e+00 -4.665588e-01 -2.775848e+00 -7.840056e-01 -9.295923e+00 -1.088416e+00 -1.583952e+01 -1.352588e+00 -2.237388e+01 -1.575977e+00 -2.894157e+01 -1.671153e+00 -3.555593e+01 -1.657855e+00 -4.216526e+01 -1.546470e+00 -4.868824e+01 -1.396943e+00 -5.508253e+01 -1.185598e+00 -6.130312e+01 -9.494066e-01 -6.734189e+01 -6.253959e-01 -7.327814e+01 -8.340935e-02 -7.912141e+01 6.423677e-01 -8.464018e+01 
6.718491e-01 -8.746764e+01 1.078941e+00 -9.155862e+01 1.429277e+00 9.073279e+01 1.661376e+00 8.662949e+01 1.887109e+00 8.199361e+01 2.076895e+00 7.693274e+01 2.203878e+00 7.154978e+01 2.234813e+00 6.592414e+01 2.163568e+00 6.011041e+01 2.005880e+00 5.416009e+01 1.781760e+00 4.810551e+01 1.504532e+00 4.195411e+01 1.214901e+00 3.570791e+01 9.358262e-01 2.938472e+01 6.620360e-01 2.300167e+01 3.784945e-01 1.658804e+01 8.902280e-02 1.013909e+01 -1.905404e-01 3.665138e+00 -4.923838e-01 -2.776404e+00 -8.318837e-01 -9.184156e+00 -1.163005e+00 -1.560438e+01 -1.448503e+00 -2.204811e+01 -1.659176e+00 -2.853081e+01 -1.757347e+00 -3.504236e+01 -1.764161e+00 -4.152122e+01 -1.708514e+00 -4.787992e+01 -1.630443e+00 -5.406785e+01 -1.522928e+00 -6.007181e+01 -1.368762e+00 -6.592591e+01 -1.091679e+00 -7.169691e+01 -6.066454e-01 -7.736395e+01 4.267231e-02 -8.272172e+01 
9.444703e-01 -9.083701e+01 1.266695e+00 -9.546364e+01 1.522841e+00 9.470583e+01 1.646454e+00 9.013329e+01 1.738227e+00 8.514962e+01 1.796212e+00 7.981074e+01 1.812388e+00 7.417438e+01 1.768189e+00 6.828823e+01 1.661052e+00 6.219594e+01 1.515265e+00 5.596755e+01 1.346438e+00 4.963699e+01 1.149425e+00 4.321595e+01 9.408154e-01 3.672969e+01 7.354971e-01 3.019692e+01 5.190486e-01 2.362256e+01 2.810300e-01 1.702786e+01 4.170347e-02 1.041610e+01 -1.949445e-01 3.781008e+00 -4.473360e-01 -2.851965e+00 -7.039680e-01 -9.464595e+00 -9.516086e-01 -1.608436e+01 -1.179851e+00 -2.272169e+01 -1.353725e+00 -2.936698e+01 -1.450466e+00 -3.602296e+01 -1.477422e+00 -4.266788e+01 -1.423630e+00 -4.923316e+01 -1.294271e+00 -5.568017e+01 -1.093306e+00 -6.199163e+01 -8.323523e-01 -6.816653e+01 -4.935103e-01 -7.421533e+01 -4.923805e-02 -8.010371e+01 4.660598e-01 -8.570411e+01 
4.571996e-01 -8.939128e+01 8.500349e-01 -9.420437e+01 1.187129e+00 9.354504e+01 1.452789e+00 8.879315e+01 1.682754e+00 8.372024e+01 1.868739e+00 7.835673e+01 1.989364e+00 7.274356e+01 2.018137e+00 6.691495e+01 1.946404e+00 6.090540e+01 1.806410e+00 5.479296e+01 1.618582e+00 4.859593e+01 1.385668e+00 4.231043e+01 1.132501e+00 3.596621e+01 8.838608e-01 2.957268e+01 6.266377e-01 2.312589e+01 3.540696e-01 1.664918e+01 9.064860e-02 1.015885e+01 -1.783121e-01 3.648894e+00 -4.693634e-01 -2.866967e+00 -7.505495e-01 -9.363850e+00 -1.020969e+00 -1.587069e+01 -1.272790e+00 -2.241027e+01 -1.456380e+00 -2.895670e+01 -1.568332e+00 -3.550624e+01 -1.627482e+00 -4.203428e+01 -1.620130e+00 -4.845829e+01 -1.544349e+00 -5.474195e+01 -1.404955e+00 -6.088760e+01 -1.198698e+00 -6.691516e+01 -9.024191e-01 -7.284033e+01 -4.979302e-01 -7.863180e+01 -1.724153e-02 -8.418901e+01 
7.011382e-01 -9.280807e+01 1.011668e+00 -9.809415e+01 1.263327e+00 9.757477e+01 1.442268e+00 9.236722e+01 1.581387e+00 8.692954e+01 1.683817e+00 8.126496e+01 1.737582e+00 7.538235e+01 1.714875e+00 6.928116e+01 1.594768e+00 6.296716e+01 1.442460e+00 5.658615e+01 1.291887e+00 5.013719e+01 1.106631e+00 4.358766e+01 8.963536e-01 3.701386e+01 7.145682e-01 3.042134e+01 5.129771e-01 2.377301e+01 2.663477e-01 1.710460e+01 5.896484e-02 1.045134e+01 -1.574479e-01 3.770190e+00 -4.209459e-01 -2.947638e+00 -6.324449e-01 -9.625499e+00 -8.339425e-01 -1.631374e+01 -1.058586e+00 -2.306246e+01 -1.207951e+00 -2.978163e+01 -1.298266e+00 -3.650242e+01 -1.372435e+00 -4.325211e+01 -1.372544e+00 -4.989634e+01 -1.260320e+00 -5.641250e+01 -1.058077e+00 -6.281583e+01 -7.902268e-01 -6.911635e+01 -4.647340e-01 -7.531101e+01 -8.586201e-02 -8.136930e+01 3.199211e-01 -8.722591e+01 
3.077944e-01 -9.167990e+01 6.569552e-01 -9.716071e+01 9.644685e-01 9.670998e+01 1.256526e+00 9.130354e+01 1.510171e+00 8.575041e+01 1.720291e+00 8.003585e+01 1.864783e+00 7.415268e+01 1.902955e+00 6.808173e+01 1.801057e+00 6.180203e+01 1.654497e+00 5.551076e+01 1.501124e+00 4.917343e+01 1.291325e+00 4.272364e+01 1.046557e+00 3.627557e+01 8.410351e-01 2.981478e+01 6.098974e-01 2.327738e+01 3.222513e-01 1.672534e+01 9.743033e-02 1.019931e+01 -1.428503e-01 3.635474e+00 -4.531589e-01 -2.975449e+00 -6.802169e-01 -9.532479e+00 -8.978174e-01 -1.610726e+01 -1.161878e+00 -2.276657e+01 -1.324842e+00 -2.937864e+01 -1.431263e+00 -3.599272e+01 -1.551440e+00 -4.265429e+01 -1.596457e+00 -4.917679e+01 -1.519923e+00 -5.555269e+01 -1.352741e+00 -6.182052e+01 -1.118436e+00 -6.800634e+01 -8.225052e-01 -7.411630e+01 -4.687846e-01 -8.012960e+01 -7.890778e-02 -8.599975e+01 
5.130430e-01 -9.505132e+01 7.932538e-01 -1.009600e+02 1.028380e+00 1.006875e+02 1.254853e+00 9.485828e+01 1.448219e+00 8.895310e+01 1.613331e+00 8.294694e+01 1.735946e+00 7.681245e+01 1.759300e+00 7.048109e+01 1.570904e+00 6.380480e+01 1.365668e+00 5.727718e+01 1.270218e+00 5.073801e+01 1.098180e+00 4.397850e+01 8.227403e-01 3.732134e+01 7.106258e-01 3.070468e+01 5.577821e-01 2.393536e+01 2.149370e-01 1.717025e+01 8.145864e-02 1.051832e+01 -7.228669e-02 3.787660e+00 -4.395221e-01 -3.080187e+00 -5.744593e-01 -9.771861e+00 -6.959984e-01 -1.648892e+01 -1.003238e+00 -2.343323e+01 -1.123863e+00 -3.019081e+01 -1.164929e+00 -3.695534e+01 -1.329662e+00 -4.394887e+01 -1.431706e+00 -5.068671e+01 -1.316503e+00 -5.725454e+01 -1.087760e+00 -6.373940e+01 -8.045369e-01 -7.016797e+01 -4.888022e-01 -7.653735e+01 -1.513185e-01 -8.282746e+01 1.910397e-01 -8.900745e+01 
1.824388e-01 -9.414190e+01 4.861582e-01 -1.002441e+02 7.580403e-01 1.000170e+02 1.077800e+00 9.398966e+01 1.367989e+00 8.796125e+01 1.629366e+00 8.189594e+01 1.841882e+00 7.575368e+01 1.928686e+00 6.944211e+01 1.711584e+00 6.271161e+01 1.500676e+00 5.628162e+01 1.436147e+00 4.986055e+01 1.244501e+00 4.312707e+01 9.164275e-01 3.660510e+01 8.189001e-01 3.013755e+01 6.576838e-01 2.342994e+01 2.284496e-01 1.678245e+01 1.139735e-01 1.028378e+01 -3.699648e-02 3.654704e+00 -5.123421e-01 -3.132922e+00 -6.248729e-01 -9.676619e+00 -7.333071e-01 -1.626997e+01 -1.140108e+00 -2.317137e+01 -1.253998e+00 -2.979195e+01 -1.286060e+00 -3.643432e+01 -1.536971e+00 -4.342652e+01 -1.692443e+00 -5.004038e+01 -1.587690e+00 -5.646726e+01 -1.368861e+00 -6.283164e+01 -1.100948e+00 -6.916970e+01 -8.024939e-01 -7.548384e+01 -4.800695e-01 -8.176177e+01 -1.454558e-01 -8.798496e+01 
3.531064e-01 -9.740731e+01 5.994926e-01 -1.038966e+02 8.100116e-01 1.038635e+02 1.079776e+00 9.745185e+01 1.329502e+00 9.109766e+01 1.575707e+00 8.477335e+01 1.824901e+00 7.845060e+01 2.007789e+00 7.200018e+01 1.600997e+00 6.448866e+01 1.155467e+00 5.799892e+01 1.307601e+00 5.156032e+01 1.228389e+00 4.423878e+01 5.712163e-01 3.760760e+01 7.285346e-01 3.115620e+01 8.128065e-01 2.405261e+01 -4.314610e-02 1.714165e+01 1.048963e-01 1.068326e+01 2.239154e-01 3.901896e+00 -6.655592e-01 -3.375174e+00 -5.498203e-01 -9.873790e+00 -3.905281e-01 -1.646534e+01 -1.096483e+00 -2.399221e+01 -1.138394e+00 -3.057470e+01 -9.305729e-01 -3.718576e+01 -1.308131e+00 -4.493125e+01 -1.716212e+00 -5.163925e+01 -1.492725e+00 -5.817185e+01 -1.173932e+00 -6.471336e+01 -8.518699e-01 -7.127295e+01 -5.357471e-01 -7.783554e+01 -2.251355e-01 -8.438517e+01 7.477164e-02 -9.090963e+01 
6.807969e-02 -9.663598e+01 3.282294e-01 -1.033099e+02 5.608134e-01 1.033019e+02 9.082480e-01 9.670345e+01 1.239806e+00 9.023095e+01 1.574740e+00 8.385443e+01 1.931086e+00 7.754434e+01 2.251649e+00 7.114575e+01 1.660784e+00 6.331270e+01 1.147532e+00 5.707180e+01 1.472247e+00 5.084209e+01 1.379098e+00 4.326590e+01 5.138350e-01 3.690965e+01 8.305757e-01 3.071652e+01 9.904468e-01 2.344824e+01 -1.983381e-01 1.672004e+01 1.376250e-01 1.052666e+01 3.790330e-01 3.755642e+00 -9.182967e-01 -3.517673e+00 -6.037580e-01 -9.742990e+00 -3.049403e-01 -1.618568e+01 -1.368152e+00 -2.387233e+01 -1.293243e+00 -3.015684e+01 -9.611466e-01 -3.654663e+01 -1.574917e+00 -4.464798e+01 -2.061087e+00 -5.107648e+01 -1.779938e+00 -5.743346e+01 -1.438479e+00 -6.386267e+01 -1.116534e+00 -7.035177e+01 -8.095753e-01 -7.688109e+01 -5.087314e-01 -8.343886e+01 -2.138349e-01 -9.002117e+01 
2.116333e-01 -9.975373e+01 4.220294e-01 -1.067749e+02 5.996637e-01 1.069573e+02 9.047742e-01 1.000098e+02 1.199816e+00 9.323190e+01 1.522396e+00 8.662169e+01 1.959396e+00 8.026462e+01 2.765579e+00 7.448363e+01 1.841959e+00 6.407827e+01 2.166806e-01 5.873750e+01 1.476607e+00 5.327240e+01 2.084647e+00 4.364202e+01 -5.933505e-01 3.778465e+01 7.225565e-01 3.232771e+01 2.072500e+00 2.376788e+01 -1.328998e+00 1.673457e+01 6.762932e-02 1.125129e+01 1.489449e+00 4.311626e+00 -1.810982e+00 -4.401322e+00 -6.699248e-01 -9.810300e+00 6.742348e-01 -1.565569e+01 -1.690208e+00 -2.552197e+01 -1.511552e+00 -3.086361e+01 -2.394303e-01 -3.632958e+01 -1.082533e+00 -4.710062e+01 -2.721779e+00 -5.271715e+01 -1.781832e+00 -5.906596e+01 -1.266454e+00 -6.566304e+01 -8.944269e-01 -7.236952e+01 -5.794100e-01 -7.913979e+01 -2.929512e-01 -8.595847e+01 -2.839394e-02 -9.282525e+01 
-3.836749e-02 -9.905394e+01 1.783279e-01 -1.062448e+02 3.663209e-01 1.064294e+02 7.346971e-01 9.931062e+01 1.093269e+00 9.242273e+01 1.482201e+00 8.577558e+01 2.010627e+00 7.950725e+01 3.059344e+00 7.411244e+01 2.012324e+00 6.263314e+01 5.257404e-02 5.789062e+01 1.682766e+00 5.295572e+01 2.522686e+00 4.248533e+01 -8.801198e-01 3.710740e+01 8.408458e-01 3.218968e+01 2.657797e+00 2.312874e+01 -1.743544e+00 1.622964e+01 1.107245e-01 1.127282e+01 2.034121e+00 4.364069e+00 -2.263758e+00 -4.751999e+00 -7.279028e-01 -9.588044e+00 1.081024e+00 -1.501722e+01 -2.015157e+00 -2.567330e+01 -1.745726e+00 -3.038149e+01 -3.416533e-02 -3.524796e+01 -1.114144e+00 -4.710020e+01 -3.300351e+00 -5.212463e+01 -2.067524e+00 -5.831102e+01 -1.493998e+00 -6.482929e+01 -1.119380e+00 -7.149002e+01 -8.140117e-01 -7.824456e+01 -5.373912e-01 -8.508303e+01 -2.785919e-01 -9.201249e+01 
8.564112e-02 -1.019952e+02 2.573438e-01 -1.094940e+02 3.938163e-01 1.098512e+02 7.210021e-01 1.024110e+02 1.030246e+00 9.520783e+01 1.347934e+00 8.821984e+01 1.717740e+00 8.146156e+01 2.212843e+00 7.495821e+01 1.539990e+00 6.555797e+01 6.259061e-01 5.944695e+01 1.315808e+00 5.332451e+01 1.534708e+00 4.453284e+01 -6.119087e-02 3.820316e+01 6.980897e-01 3.217160e+01 1.408082e+00 2.411569e+01 -7.337489e-01 1.707556e+01 1.067076e-01 1.105917e+01 9.198948e-01 4.056900e+00 -1.275783e+00 -4.043909e+00 -5.470201e-01 -1.004199e+01 2.812212e-01 -1.636175e+01 -1.384874e+00 -2.522086e+01 -1.247023e+00 -3.123084e+01 -4.298319e-01 -3.736533e+01 -1.154428e+00 -4.689500e+01 -2.250234e+00 -5.314148e+01 -1.636023e+00 -5.973196e+01 -1.210788e+00 -6.650692e+01 -8.795833e-01 -7.340078e+01 -5.971489e-01 -8.039117e+01 -3.445437e-01 -8.747664e+01 -1.164405e-01 -9.466951e+01 
-1.362609e-01 -1.013115e+02 3.625610e-02 -1.089606e+02 1.754947e-01 1.092925e+02 5.528568e-01 1.016943e+02 9.075884e-01 9.437023e+01 1.257694e+00 8.727749e+01 1.616552e+00 8.036457e+01 1.915853e+00 7.343588e+01 1.452132e+00 6.527760e+01 1.032514e+00 5.859979e+01 1.302042e+00 5.202582e+01 1.231721e+00 4.432103e+01 4.944771e-01 3.767000e+01 7.671856e-01 3.123900e+01 9.136292e-01 2.392090e+01 -1.176289e-01 1.700116e+01 1.650372e-01 1.062474e+01 3.807839e-01 3.778263e+00 -7.401784e-01 -3.599897e+00 -4.804525e-01 -1.000803e+01 -2.099802e-01 -1.658672e+01 -1.134525e+00 -2.432060e+01 -1.101350e+00 -3.082876e+01 -8.055773e-01 -3.742760e+01 -1.361186e+00 -4.553986e+01 -1.878595e+00 -5.227015e+01 -1.645465e+00 -5.891440e+01 -1.335828e+00 -6.566689e+01 -1.050820e+00 -7.253652e+01 -7.927328e-01 -7.952156e+01 -5.548471e-01 -8.663061e+01 -3.351344e-01 -9.388339e+01 
-2.518443e-02 -1.040566e+02 1.067382e-01 -1.119750e+02 1.991914e-01 1.124624e+02 5.371247e-01 1.045780e+02 8.420511e-01 9.696378e+01 1.122853e+00 8.956290e+01 1.374988e+00 8.230378e+01 1.533851e+00 7.503581e+01 1.271051e+00 6.723211e+01 1.009321e+00 6.012245e+01 1.086540e+00 5.313345e+01 9.915880e-01 4.566364e+01 5.668957e-01 3.866943e+01 6.385631e-01 3.183707e+01 6.427582e-01 2.461808e+01 7.015501e-02 1.754247e+01 1.333538e-01 1.077588e+01 1.637257e-01 3.802368e+00 -4.488881e-01 -3.487883e+00 -3.984257e-01 -1.028530e+01 -3.294370e-01 -1.715579e+01 -8.369268e-01 -2.464702e+01 -8.880129e-01 -3.155153e+01 -7.934296e-01 -3.850003e+01 -1.115156e+00 -4.622375e+01 -1.412234e+00 -5.328589e+01 -1.280661e+00 -6.023477e+01 -1.052839e+00 -6.723847e+01 -8.150839e-01 -7.433643e+01 -5.883643e-01 -8.154541e+01 -3.783833e-01 -8.888332e+01 -1.889977e-01 -9.637533e+01 
-2.240118e-01 -1.033427e+02 -9.466799e-02 -1.113883e+02 -3.977013e-03 1.118265e+02 3.741632e-01 1.038059e+02 7.131995e-01 9.608502e+01 1.015292e+00 8.859736e+01 1.264394e+00 8.126022e+01 1.393040e+00 7.393968e+01 1.244405e+00 6.642623e+01 1.100715e+00 5.927221e+01 1.089281e+00 5.223963e+01 9.627289e-01 4.504158e+01 7.100818e-01 3.807804e+01 6.661272e-01 3.122843e+01 5.604412e-01 2.422679e+01 2.127134e-01 1.728984e+01 1.453799e-01 1.051568e+01 4.434389e-02 3.645147e+00 -3.399025e-01 -3.381214e+00 -4.076749e-01 -1.018749e+01 -4.754913e-01 -1.704210e+01 -8.121982e-01 -2.419710e+01 -9.099459e-01 -3.111807e+01 -9.489957e-01 -3.808394e+01 -1.198313e+00 -4.541234e+01 -1.375067e+00 -5.245939e+01 -1.317999e+00 -5.940569e+01 -1.154465e+00 -6.638929e+01 -9.575061e-01 -7.346821e+01 -7.561421e-01 -8.067321e+01 -5.621118e-01 -8.803132e+01 -3.824633e-01 -9.557433e+01 
-1.204626e-01 -1.058793e+02 -2.653424e-02 -1.141561e+02 2.392016e-02 1.147394e+02 3.665337e-01 1.064740e+02 6.631222e-01 9.850527e+01 9.136584e-01 9.076582e+01 1.103601e+00 8.317977e+01 1.189971e+00 7.565248e+01 1.103802e+00 6.808065e+01 9.995795e-01 6.071730e+01 9.501163e-01 5.346241e+01 8.357006e-01 4.617141e+01 6.560744e-01 3.901506e+01 5.766363e-01 3.194634e+01 4.619452e-01 2.482795e+01 2.271336e-01 1.774346e+01 1.283796e-01 1.075430e+01 1.141817e-02 3.724292e+00 -2.419895e-01 -3.394970e+00 -3.385843e-01 -1.040820e+01 -4.313997e-01 -1.745246e+01 -6.529640e-01 -2.466746e+01 -7.541477e-01 -3.178488e+01 -8.187728e-01 -3.893887e+01 -9.792385e-01 -4.628992e+01 -1.085636e+00 -5.351282e+01 -1.040993e+00 -6.067763e+01 -9.102859e-01 -6.787559e+01 -7.436731e-01 -7.516094e+01 -5.685882e-01 -8.256979e+01 -4.000222e-01 -9.013424e+01 -2.478448e-01 -9.788977e+01 
-3.000332e-01 -1.050960e+02 -2.100153e-01 -1.134744e+02 -1.631695e-01 1.139909e+02 2.130477e-01 1.056172e+02 5.384283e-01 9.756785e+01 8.099077e-01 8.977252e+01 1.011580e+00 8.215604e+01 1.110597e+00 7.463834e+01 1.079470e+00 6.716388e+01 1.016235e+00 5.984599e+01 9.570465e-01 5.263961e+01 8.480237e-01 4.546773e+01 7.044534e-01 3.839526e+01 5.965554e-01 3.139875e+01 4.592395e-01 2.440420e+01 2.658436e-01 1.743887e+01 1.306534e-01 1.053100e+01 -1.957727e-02 3.606936e+00 -2.307561e-01 -3.363823e+00 -3.645998e-01 -1.029265e+01 -4.967049e-01 -1.724911e+01 -6.863026e-01 -2.430381e+01 -8.095461e-01 -3.133765e+01 -9.114646e-01 -3.841083e+01 -1.051237e+00 -4.559393e+01 -1.134978e+00 -5.273463e+01 -1.113305e+00 -5.985287e+01 -1.014567e+00 -6.701435e+01 -8.748683e-01 -7.427310e+01 -7.195343e-01 -8.167099e+01 -5.646660e-01 -8.924602e+01 -4.215889e-01 -9.703866e+01 
-1.996554e-01 -1.074172e+02 -1.391935e-01 -1.159893e+02 -1.251143e-01 1.166463e+02 2.204756e-01 1.080704e+02 5.125354e-01 9.981743e+01 7.489504e-01 9.181944e+01 9.178222e-01 8.400735e+01 9.979867e-01 7.631443e+01 9.791094e-01 6.869858e+01 9.240859e-01 6.121465e+01 8.601652e-01 5.383766e+01 7.611909e-01 4.651905e+01 6.390274e-01 3.928436e+01 5.337331e-01 3.211922e+01 4.089864e-01 2.497612e+01 2.517920e-01 1.786017e+01 1.260932e-01 1.078686e+01 -8.562581e-03 3.709118e+00 -1.757878e-01 -3.398626e+00 -2.981317e-01 -1.048742e+01 -4.170490e-01 -1.760005e+01 -5.652746e-01 -2.478257e+01 -6.729739e-01 -3.196959e+01 -7.629070e-01 -3.919418e+01 -8.659711e-01 -4.649636e+01 -9.234253e-01 -5.378991e+01 -8.996628e-01 -6.108247e+01 -8.118504e-01 -6.842334e+01 -6.877751e-01 -7.586132e+01 -5.501879e-01 -8.343846e+01 -4.152859e-01 -9.119439e+01 -2.950526e-01 -9.917121e+01 
-3.628869e-01 -1.065313e+02 -3.059900e-01 -1.151773e+02 -2.952736e-01 1.157548e+02 7.976969e-02 1.071014e+02 3.984457e-01 9.879700e+01 6.575654e-01 9.077241e+01 8.456209e-01 8.295872e+01 9.457965e-01 7.529223e+01 9.553179e-01 6.773461e+01 9.212812e-01 6.031362e+01 8.645940e-01 5.300902e+01 7.732327e-01 4.578289e+01 6.596983e-01 3.864234e+01 5.479092e-01 3.157335e+01 4.166606e-01 2.453937e+01 2.621357e-01 1.753593e+01 1.229684e-01 1.056875e+01 -2.478646e-02 3.602829e+00 -1.921767e-01 -3.383516e+00 -3.308567e-01 -1.036382e+01 -4.662215e-01 -1.736837e+01 -6.168774e-01 -2.442982e+01 -7.378149e-01 -3.151194e+01 -8.423979e-01 -3.863540e+01 -9.465106e-01 -4.582457e+01 -1.006126e+00 -5.302871e+01 -9.949469e-01 -6.025288e+01 -9.239431e-01 -6.753995e+01 -8.158768e-01 -7.493802e+01 -6.914602e-01 -8.249165e+01 -5.665261e-01 -9.024381e+01 -4.533944e-01 -9.823995e+01 
-2.621254e-01 -1.086346e+02 -2.289073e-01 -1.174377e+02 -2.436367e-01 1.181529e+02 1.052623e-01 1.093388e+02 3.986888e-01 1.008730e+02 6.355298e-01 9.268857e+01 8.065706e-01 8.471830e+01 8.952528e-01 7.689699e+01 8.936674e-01 6.917879e+01 8.520855e-01 6.160749e+01 7.982299e-01 5.415596e+01 7.121099e-01 4.677681e+01 6.020373e-01 3.948717e+01 5.044024e-01 3.227316e+01 3.894455e-01 2.509044e+01 2.452340e-01 1.793712e+01 1.273137e-01 1.082704e+01 2.158331e-03 3.717476e+00 -1.507010e-01 -3.418701e+00 -2.661012e-01 -1.053941e+01 -3.774124e-01 -1.768313e+01 -5.125110e-01 -2.489260e+01 -6.140586e-01 -3.211377e+01 -6.979785e-01 -3.937615e+01 -7.905723e-01 -4.671579e+01 -8.460593e-01 -5.406609e+01 -8.300264e-01 -6.143623e+01 -7.576293e-01 -6.887236e+01 -6.535364e-01 -7.642220e+01 -5.383042e-01 -8.412921e+01 -4.271020e-01 -9.203577e+01 -3.316284e-01 -1.001871e+02 
-4.112794e-01 -1.076183e+02 -3.801704e-01 -1.164658e+02 -3.966645e-01 1.170905e+02 -2.105224e-02 1.082314e+02 2.981332e-01 9.974458e+01 5.595976e-01 9.156207e+01 7.539051e-01 8.361498e+01 8.628960e-01 7.583409e+01 8.740534e-01 6.816489e+01 8.434826e-01 6.066608e+01 8.010322e-01 5.330008e+01 7.205100e-01 4.600870e+01 6.099750e-01 3.881981e+01 5.141872e-01 3.171454e+01 3.970561e-01 2.463968e+01 2.423502e-01 1.759852e+01 1.198684e-01 1.060714e+01 -1.212855e-02 3.614910e+00 -1.807863e-01 -3.407685e+00 -3.039612e-01 -1.040860e+01 -4.234638e-01 -1.743429e+01 -5.746115e-01 -2.453510e+01 -6.854997e-01 -3.164323e+01 -7.767928e-01 -3.879744e+01 -8.826686e-01 -4.604402e+01 -9.509375e-01 -5.330192e+01 -9.431636e-01 -6.058781e+01 -8.783018e-01 -6.795305e+01 -7.818895e-01 -7.544713e+01 -6.738528e-01 -8.311478e+01 -5.686576e-01 -9.100003e+01 -4.776871e-01 -9.915011e+01 
-3.071614e-01 -1.095052e+02 -2.945889e-01 -1.184738e+02 -3.302944e-01 1.192314e+02 2.210263e-02 1.102516e+02 3.219167e-01 1.016437e+02 5.714595e-01 9.334292e+01 7.640353e-01 8.528026e+01 8.738007e-01 7.737177e+01 8.494336e-01 6.950744e+01 7.854729e-01 6.188235e+01 7.617869e-01 5.440205e+01 6.885580e-01 4.694002e+01 5.487057e-01 3.961705e+01 4.868710e-01 3.239810e+01 3.997809e-01 2.516951e+01 2.119753e-01 1.797342e+01 1.307634e-01 1.086944e+01 3.859850e-02 3.746865e+00 -1.601191e-01 -3.452162e+00 -2.427181e-01 -1.056545e+01 -3.180181e-01 -1.770480e+01 -4.887615e-01 -2.499097e+01 -5.768635e-01 -3.221425e+01 -6.287589e-01 -3.948381e+01 -7.467351e-01 -4.692943e+01 -8.434485e-01 -5.432147e+01 -8.238040e-01 -6.172194e+01 -7.430415e-01 -6.920664e+01 -6.390326e-01 -7.682636e+01 -5.322678e-01 -8.462241e+01 -4.351593e-01 -9.263604e+01 -3.571679e-01 -1.009129e+02 
-4.440799e-01 -1.083349e+02 -4.316039e-01 -1.173171e+02 -4.668122e-01 1.179730e+02 -8.990109e-02 1.089814e+02 2.351586e-01 1.003841e+02 5.116100e-01 9.211571e+01 7.332106e-01 8.410516e+01 8.683061e-01 7.625794e+01 8.366463e-01 6.841950e+01 7.686587e-01 6.088836e+01 7.677669e-01 5.351663e+01 7.004444e-01 4.612536e+01 5.403603e-01 3.891729e+01 4.954546e-01 3.182835e+01 4.161848e-01 2.469822e+01 1.895147e-01 1.761489e+01 1.205700e-01 1.065004e+01 3.497341e-02 3.649576e+00 -2.114968e-01 -3.450806e+00 -2.860276e-01 -1.042470e+01 -3.539349e-01 -1.743103e+01 -5.671531e-01 -2.463326e+01 -6.577105e-01 -3.172501e+01 -7.022897e-01 -3.887044e+01 -8.502516e-01 -4.625880e+01 -9.755932e-01 -5.354589e+01 -9.558878e-01 -6.084118e+01 -8.724240e-01 -6.823633e+01 -7.684998e-01 -7.578326e+01 -6.638037e-01 -8.352250e+01 -5.691867e-01 -9.149537e+01 -4.931125e-01 -9.974829e+01 
-3.340415e-01 -1.100104e+02 -3.362840e-01 -1.190787e+02 -3.863099e-01 1.198571e+02 -3.224590e-02 1.107827e+02 2.756048e-01 1.021020e+02 5.472280e-01 9.375818e+01 7.882262e-01 8.569097e+01 9.715298e-01 7.779282e+01 8.621349e-01 6.958378e+01 6.617982e-01 6.202127e+01 7.595971e-01 5.463390e+01 7.461770e-01 4.694523e+01 4.080711e-01 3.965279e+01 4.812042e-01 3.254271e+01 5.182817e-01 2.519369e+01 7.338144e-02 1.792747e+01 1.326218e-01 1.094121e+01 1.779754e-01 3.831950e+00 -2.725484e-01 -3.563910e+00 -2.392198e-01 -1.055508e+01 -1.746986e-01 -1.759458e+01 -5.280451e-01 -2.515210e+01 -5.885953e-01 -3.225870e+01 -5.079664e-01 -3.942077e+01 -7.023088e-01 -4.721092e+01 -9.663629e-01 -5.456338e+01 -8.885349e-01 -6.192021e+01 -7.601348e-01 -6.940537e+01 -6.359514e-01 -7.705565e+01 -5.266337e-01 -8.490126e+01 -4.363998e-01 -9.297832e+01 -3.700700e-01 -1.013307e+02 
-4.603650e-01 -1.086667e+02 -4.605490e-01 -1.177165e+02 -5.076796e-01 1.183796e+02 -1.314941e-01 1.093272e+02 2.003043e-01 1.006891e+02 5.005137e-01 9.241107e+01 7.810163e-01 8.443818e+01 1.020783e+00 7.665789e+01 8.612868e-01 6.834381e+01 6.016167e-01 6.096480e+01 7.799432e-01 5.375786e+01 7.930540e-01 4.602621e+01 3.395915e-01 3.891038e+01 4.923837e-01 3.199829e+01 5.905042e-01 2.467257e+01 -2.340456e-02 1.752758e+01 1.205497e-01 1.074505e+01 2.357217e-01 3.748585e+00 -3.996299e-01 -3.610123e+00 -2.924099e-01 -1.039286e+01 -1.565865e-01 -1.725959e+01 -6.566005e-01 -2.484398e+01 -6.942633e-01 -3.173866e+01 -5.458266e-01 -3.871248e+01 -8.116036e-01 -4.659988e+01 -1.159555e+00 -5.377305e+01 -1.043829e+00 -6.099069e+01 -8.957958e-01 -6.836746e+01 -7.647364e-01 -7.592879e+01 -6.540443e-01 -8.370002e+01 -5.639433e-01 -9.171593e+01 -4.974637e-01 -1.000205e+02 
-3.421482e-01 -1.101395e+02 -3.547375e-01 -1.192412e+02 -4.144085e-01 1.200096e+02 -6.397966e-02 1.109076e+02 2.463071e-01 1.022151e+02 5.369855e-01 9.389485e+01 8.499309e-01 8.595214e+01 1.304521e+00 7.850631e+01 1.063737e+00 6.894907e+01 1.736176e-01 6.202383e+01 8.110569e-01 5.519418e+01 1.204915e+00 4.645878e+01 -1.850457e-01 3.954679e+01 4.604243e-01 3.297494e+01 1.154184e+00 2.502684e+01 -5.683859e-01 1.764381e+01 1.014573e-01 1.118377e+01 7.962617e-01 4.105794e+00 -8.124545e-01 -4.050305e+00 -3.190332e-01 -1.045461e+01 3.349815e-01 -1.703627e+01 -7.674964e-01 -2.576753e+01 -7.994091e-01 -3.220975e+01 -1.780058e-01 -3.875087e+01 -4.844814e-01 -4.799090e+01 -1.484430e+00 -5.477130e+01 -1.018578e+00 -6.198572e+01 -7.805228e-01 -6.944023e+01 -6.258022e-01 -7.709268e+01 -5.116056e-01 -8.495316e+01 -4.259927e-01 -9.305168e+01 -3.681485e-01 -1.014300e+02 
-4.595253e-01 -1.086069e+02 -4.679125e-01 -1.176571e+02 -5.223804e-01 1.182932e+02 -1.528726e-01 1.092461e+02 1.776930e-01 1.006245e+02 4.928247e-01 9.239733e+01 8.482374e-01 8.459696e+01 1.429115e+00 7.744642e+01 1.147238e+00 6.744998e+01 -1.001701e-02 6.090800e+01 8.554102e-01 5.442304e+01 1.416535e+00 4.537519e+01 -4.021276e-01 3.875631e+01 4.730364e-01 3.252828e+01 1.428394e+00 2.445162e+01 -8.235251e-01 1.716978e+01 8.429481e-02 1.105158e+01 1.030874e+00 4.104231e+00 -1.062419e+00 -4.213355e+00 -3.928026e-01 -1.024980e+01 4.833428e-01 -1.652403e+01 -9.397829e-01 -2.559452e+01 -9.651676e-01 -3.163901e+01 -1.405108e-01 -3.780448e+01 -5.048983e-01 -4.750490e+01 -1.796171e+00 -5.392495e+01 -1.179832e+00 -6.097805e+01 -9.088955e-01 -6.831644e+01 -7.481022e-01 -7.586803e+01 -6.334706e-01 -8.363747e+01 -5.476616e-01 -9.165402e+01 -4.884122e-01 -9.995978e+01 