# vtk DataFile Version 2.0
Comment goes here
ASCII

DATASET STRUCTURED_POINTS
FIELD FieldData 1
TIME 1 1 double
0.01300000
DIMENSIONS    64   64   1

ORIGIN    0.000   0.000   0.000
SPACING   0.03125 0.03125   1.000

POINT_DATA   4096
SCALARS P double
LOOKUP_TABLE default

4.165822e+00 -8.578770e+01 2.474682e+00 -9.846520e+01 6.912267e+01 1.597641e+02 2.287951e+01 1.445628e+02 3.292782e+01 1.297722e+02 4.040571e+01 1.163172e+02 4.511853e+01 1.039466e+02 4.672672e+01 9.340880e+01 4.483717e+01 8.604014e+01 3.881093e+01 8.141368e+01 3.233997e+01 7.561495e+01 2.766075e+01 6.915926e+01 2.357608e+01 6.149008e+01 2.140992e+01 5.270053e+01 1.942627e+01 4.158411e+01 2.055709e+01 3.263904e+01 1.703000e+01 2.675919e+01 1.473265e+01 1.866555e+01 1.223081e+01 1.187392e+01 1.185806e+01 5.908211e-01 1.478469e+01 -7.181450e+00 7.115847e+00 -8.398417e+00 2.614650e-01 -1.400355e+01 -6.523700e-01 -2.713310e+01 3.982401e+00 -4.059927e+01 7.914706e+00 -5.539360e+01 1.169621e+01 -6.484936e+01 8.657823e+00 -6.895842e+01 1.629737e+00 -6.767997e+01 -9.003780e+00 -6.612120e+01 -1.608467e+01 -6.708405e+01 -1.627670e+01 -8.779337e+01 
3.678188e+00 -8.073870e+01 6.443015e-01 -8.752805e+01 4.733707e+01 1.094226e+02 9.006593e+00 1.019863e+02 1.317044e+01 9.417457e+01 1.627462e+01 8.645047e+01 1.830450e+01 7.877125e+01 1.902110e+01 7.157673e+01 1.821131e+01 6.574772e+01 1.533738e+01 6.117136e+01 1.235207e+01 5.571244e+01 1.033127e+01 4.998844e+01 8.436466e+00 4.355693e+01 7.562789e+00 3.661612e+01 6.567367e+00 2.821878e+01 7.478530e+00 2.101857e+01 5.554912e+00 1.550363e+01 4.523262e+00 8.510950e+00 3.207830e+00 2.559526e+00 3.008063e+00 -6.132609e+00 5.051579e+00 -1.297969e+01 8.934002e-01 -1.589692e+01 -2.724073e+00 -2.121402e+01 -3.173938e+00 -3.055725e+01 -6.769627e-01 -3.971479e+01 1.231106e+00 -4.976134e+01 3.440571e+00 -5.699689e+01 2.269920e+00 -6.196178e+01 -4.269507e-01 -6.412982e+01 -5.186296e+00 -6.607324e+01 -8.104334e+00 -6.869902e+01 -8.032003e+00 -8.270613e+01 
2.157770e+00 -8.840794e+01 8.424695e-01 -9.235430e+01 1.505765e+01 9.022476e+01 9.156269e-01 8.628240e+01 1.040681e+00 8.174517e+01 1.252442e+00 7.661536e+01 1.515181e+00 7.107542e+01 1.657094e+00 6.526684e+01 1.634183e+00 5.950367e+01 1.258766e+00 5.378359e+01 8.908798e-01 4.774924e+01 6.333680e-01 4.170509e+01 2.303805e-01 3.548101e+01 7.947882e-04 2.916099e+01 -3.636510e-01 2.244890e+01 -2.772480e-01 1.594542e+01 -8.554420e-01 9.720020e+00 -1.122040e+00 3.068539e+00 -1.537184e+00 -3.197662e+00 -1.807681e+00 -1.004502e+01 -1.454017e+00 -1.664924e+01 -2.373344e+00 -2.236772e+01 -3.128109e+00 -2.851040e+01 -3.312439e+00 -3.531027e+01 -2.955813e+00 -4.189689e+01 -2.754053e+00 -4.868144e+01 -2.271836e+00 -5.499231e+01 -2.086311e+00 -6.129194e+01 -1.741263e+00 -6.710541e+01 -1.767697e+00 -7.280806e+01 -1.320285e+00 -7.828796e+01 -6.528685e-01 -8.596399e+01 
5.945888e-01 -8.303851e+01 6.098343e-01 -8.574239e+01 8.838836e-01 8.482869e+01 1.194081e+00 8.174597e+01 1.580971e+00 7.769596e+01 1.964540e+00 7.298805e+01 2.271486e+00 6.785878e+01 2.384128e+00 6.248721e+01 2.247088e+00 5.708394e+01 1.820390e+00 5.164803e+01 1.327468e+00 4.600856e+01 8.909678e-01 4.023940e+01 4.620194e-01 3.427174e+01 1.553943e-01 2.813034e+01 -1.221374e-01 2.176445e+01 -2.444440e-01 1.549293e+01 -6.457512e-01 9.358426e+00 -9.797909e-01 3.076583e+00 -1.320013e+00 -3.129540e+00 -1.535732e+00 -9.547055e+00 -1.593138e+00 -1.576067e+01 -2.250748e+00 -2.152125e+01 -2.879050e+00 -2.751878e+01 -3.057149e+00 -3.397067e+01 -2.784164e+00 -4.047773e+01 -2.438446e+00 -4.697090e+01 -2.046535e+00 -5.307140e+01 -1.887174e+00 -5.885404e+01 -1.827138e+00 -6.417123e+01 -1.929086e+00 -6.927271e+01 -1.674415e+00 -7.437731e+01 -8.969776e-01 -7.995448e+01 
7.721081e-01 -8.855808e+01 7.102869e-01 -9.204462e+01 8.455995e-01 8.998148e+01 8.882710e-01 8.639542e+01 9.879401e-01 8.195158e+01 1.126854e+00 7.691751e+01 1.263399e+00 7.147469e+01 1.323400e+00 6.576698e+01 1.262832e+00 5.993855e+01 1.049583e+00 5.402084e+01 7.883802e-01 4.794885e+01 5.290526e-01 4.178105e+01 2.380778e-01 3.549434e+01 -1.726951e-02 2.909944e+01 -2.780555e-01 2.256804e+01 -4.619142e-01 1.606357e+01 -7.920767e-01 9.612470e+00 -1.082593e+00 3.073460e+00 -1.381764e+00 -3.421129e+00 -1.615496e+00 -1.002996e+01 -1.746746e+00 -1.653586e+01 -2.176964e+00 -2.280344e+01 -2.571070e+00 -2.917469e+01 -2.722891e+00 -3.575029e+01 -2.627355e+00 -4.231939e+01 -2.460315e+00 -4.887518e+01 -2.192777e+00 -5.523884e+01 -1.953395e+00 -6.145166e+01 -1.675754e+00 -6.741670e+01 -1.423255e+00 -7.321070e+01 -9.773150e-01 -7.885838e+01 -3.014927e-01 -8.452027e+01 
1.016830e-01 -8.405924e+01 4.447046e-01 -8.736801e+01 8.031441e-01 8.624312e+01 1.078754e+00 8.277729e+01 1.373431e+00 7.856472e+01 1.645058e+00 7.380207e+01 1.840390e+00 6.865473e+01 1.899721e+00 6.325731e+01 1.791855e+00 5.772096e+01 1.524264e+00 5.207709e+01 1.181910e+00 4.629524e+01 8.302081e-01 4.038500e+01 4.878438e-01 3.433712e+01 1.898652e-01 2.816354e+01 -7.881088e-02 2.188428e+01 -3.162359e-01 1.560111e+01 -6.181651e-01 9.340392e+00 -9.168311e-01 3.044361e+00 -1.203960e+00 -3.252383e+00 -1.448747e+00 -9.582317e+00 -1.678351e+00 -1.583066e+01 -2.052359e+00 -2.195496e+01 -2.394197e+00 -2.815043e+01 -2.534193e+00 -3.449741e+01 -2.454556e+00 -4.087813e+01 -2.269013e+00 -4.718901e+01 -2.043024e+00 -5.328055e+01 -1.866208e+00 -5.911711e+01 -1.719197e+00 -6.466718e+01 -1.565398e+00 -7.000132e+01 -1.235182e+00 -7.516994e+01 -6.578666e-01 -8.009438e+01 
2.315274e-01 -8.932720e+01 4.697716e-01 -9.324616e+01 6.836210e-01 9.127921e+01 7.874020e-01 8.734674e+01 8.948938e-01 8.273625e+01 1.004920e+00 7.762048e+01 1.090440e+00 7.213364e+01 1.112503e+00 6.638340e+01 1.046143e+00 6.045959e+01 8.912678e-01 5.441113e+01 6.869734e-01 4.824326e+01 4.586729e-01 4.197551e+01 2.127388e-01 3.561608e+01 -2.786683e-02 2.917429e+01 -2.681141e-01 2.265948e+01 -5.004711e-01 1.612686e+01 -7.672520e-01 9.594238e+00 -1.032111e+00 3.033518e+00 -1.292411e+00 -3.531914e+00 -1.524417e+00 -1.011606e+01 -1.737097e+00 -1.665938e+01 -2.014114e+00 -2.313665e+01 -2.257568e+00 -2.963735e+01 -2.380243e+00 -3.619767e+01 -2.368612e+00 -4.275583e+01 -2.264732e+00 -4.926011e+01 -2.080508e+00 -5.563636e+01 -1.854830e+00 -6.186377e+01 -1.584911e+00 -6.790887e+01 -1.273266e+00 -7.377084e+01 -8.615459e-01 -7.941942e+01 -3.408242e-01 -8.475160e+01 
-9.526847e-02 -8.574796e+01 2.863631e-01 -8.977677e+01 6.355737e-01 8.860608e+01 9.204757e-01 8.454022e+01 1.180028e+00 7.997260e+01 1.399102e+00 7.499276e+01 1.544865e+00 6.969457e+01 1.582681e+00 6.416109e+01 1.496963e+00 5.846192e+01 1.304374e+00 5.264245e+01 1.047776e+00 4.670955e+01 7.624042e-01 4.066822e+01 4.717688e-01 3.452872e+01 1.971173e-01 2.830256e+01 -6.534457e-02 2.200742e+01 -3.229486e-01 1.568606e+01 -5.928271e-01 9.358163e+00 -8.639517e-01 3.012515e+00 -1.129706e+00 -3.342549e+00 -1.375476e+00 -9.698008e+00 -1.616731e+00 -1.602391e+01 -1.884427e+00 -2.231864e+01 -2.111551e+00 -2.863298e+01 -2.230592e+00 -3.499177e+01 -2.229010e+00 -4.134835e+01 -2.136742e+00 -4.762461e+01 -1.985537e+00 -5.374287e+01 -1.811658e+00 -5.966766e+01 -1.617517e+00 -6.538440e+01 -1.380730e+00 -7.090429e+01 -1.046192e+00 -7.621669e+01 -5.974917e-01 -8.123409e+01 
-3.154210e-02 -9.075355e+01 2.586953e-01 -9.528174e+01 4.951391e-01 9.347598e+01 6.559434e-01 8.897724e+01 7.917392e-01 8.402395e+01 9.062816e-01 7.869164e+01 9.820440e-01 7.305324e+01 9.920400e-01 6.717083e+01 9.204996e-01 6.110357e+01 7.849305e-01 5.491997e+01 6.120174e-01 4.863697e+01 4.082989e-01 4.226126e+01 1.840606e-01 3.582026e+01 -3.729182e-02 2.932204e+01 -2.647832e-01 2.276815e+01 -5.038668e-01 1.618980e+01 -7.434979e-01 9.604380e+00 -9.849544e-01 2.997954e+00 -1.230535e+00 -3.624208e+00 -1.451523e+00 -1.024238e+01 -1.661273e+00 -1.684868e+01 -1.882998e+00 -2.344694e+01 -2.064261e+00 -3.004144e+01 -2.170913e+00 -3.664806e+01 -2.200164e+00 -4.324684e+01 -2.147195e+00 -4.977313e+01 -2.006680e+00 -5.618315e+01 -1.797616e+00 -6.246006e+01 -1.533617e+00 -6.858729e+01 -1.221252e+00 -7.454674e+01 -8.523678e-01 -8.029643e+01 -4.384385e-01 -8.574908e+01 
-2.018916e-01 -8.791207e+01 1.542326e-01 -9.264459e+01 4.794730e-01 9.153446e+01 7.667574e-01 8.681138e+01 1.018327e+00 8.179279e+01 1.223114e+00 7.649973e+01 1.356416e+00 7.096674e+01 1.389483e+00 6.522740e+01 1.310015e+00 5.932110e+01 1.149690e+00 5.332016e+01 9.439832e-01 4.723160e+01 7.019116e-01 4.104934e+01 4.414355e-01 3.480725e+01 1.936179e-01 2.851064e+01 -5.534611e-02 2.215625e+01 -3.164653e-01 1.577740e+01 -5.654897e-01 9.393827e+00 -8.154103e-01 2.989671e+00 -1.074363e+00 -3.432267e+00 -1.305679e+00 -9.842758e+00 -1.527284e+00 -1.624846e+01 -1.755568e+00 -2.266327e+01 -1.936376e+00 -2.907198e+01 -2.046722e+00 -3.548922e+01 -2.092086e+00 -4.189934e+01 -2.060892e+00 -4.821764e+01 -1.947941e+00 -5.439797e+01 -1.775118e+00 -6.042674e+01 -1.557606e+00 -6.630065e+01 -1.294508e+00 -7.201805e+01 -9.734676e-01 -7.756147e+01 -5.975230e-01 -8.288248e+01 
-1.984492e-01 -9.264370e+01 8.733478e-02 -9.780590e+01 3.292415e-01 9.619267e+01 5.296828e-01 9.107484e+01 7.009630e-01 8.569629e+01 8.433011e-01 8.007088e+01 9.390685e-01 7.421684e+01 9.544238e-01 6.814176e+01 8.616841e-01 6.186323e+01 7.176463e-01 5.552836e+01 5.694941e-01 4.912316e+01 3.810569e-01 4.261170e+01 1.538448e-01 3.608213e+01 -3.976182e-02 2.952569e+01 -2.482912e-01 2.290023e+01 -5.057440e-01 1.626006e+01 -7.176572e-01 9.635919e+00 -9.327621e-01 2.977172e+00 -1.191781e+00 -3.720180e+00 -1.389360e+00 -1.037992e+01 -1.572539e+00 -1.704661e+01 -1.790213e+00 -2.376120e+01 -1.944923e+00 -3.043348e+01 -2.038121e+00 -3.710721e+01 -2.111233e+00 -4.381155e+01 -2.115290e+00 -5.040256e+01 -1.999644e+00 -5.686279e+01 -1.793433e+00 -6.320579e+01 -1.528775e+00 -6.943305e+01 -1.224131e+00 -7.553070e+01 -8.883265e-01 -8.146702e+01 -5.363141e-01 -8.719113e+01 
-2.833053e-01 -9.035687e+01 3.995169e-02 -9.575596e+01 3.394005e-01 9.476443e+01 6.333224e-01 8.939370e+01 8.951119e-01 8.389500e+01 1.114622e+00 7.824960e+01 1.266683e+00 7.244515e+01 1.309076e+00 6.645813e+01 1.205619e+00 6.027425e+01 1.040525e+00 5.408571e+01 8.772944e-01 4.784679e+01 6.623397e-01 4.148944e+01 3.991845e-01 3.514120e+01 1.917586e-01 2.877686e+01 -3.137582e-02 2.232803e+01 -3.211870e-01 1.587413e+01 -5.372610e-01 9.450672e+00 -7.569738e-01 2.983068e+00 -1.045036e+00 -3.532833e+00 -1.245393e+00 -9.991423e+00 -1.430626e+00 -1.646501e+01 -1.671986e+00 -2.301430e+01 -1.831296e+00 -2.950218e+01 -1.927319e+00 -3.599467e+01 -2.028815e+00 -4.254373e+01 -2.064907e+00 -4.894844e+01 -1.968856e+00 -5.520375e+01 -1.782218e+00 -6.133998e+01 -1.542895e+00 -6.737307e+01 -1.266965e+00 -7.330512e+01 -9.582967e-01 -7.912627e+01 -6.241278e-01 -8.481644e+01 
-3.256371e-01 -9.480898e+01 -5.545295e-02 -1.005857e+02 1.829185e-01 9.917513e+01 4.175143e-01 9.344956e+01 6.304831e-01 8.762553e+01 8.225079e-01 8.168457e+01 9.745502e-01 7.560372e+01 1.025156e+00 6.931363e+01 8.593140e-01 6.267925e+01 6.536506e-01 5.620946e+01 5.667790e-01 4.971567e+01 3.976724e-01 4.297773e+01 8.974509e-02 3.637321e+01 -2.854997e-02 2.979984e+01 -1.795993e-01 2.304285e+01 -5.520012e-01 1.631640e+01 -6.903682e-01 9.704050e+00 -8.359248e-01 2.990750e+00 -1.210949e+00 -3.852059e+00 -1.343140e+00 -1.050824e+01 -1.450098e+00 -1.719969e+01 -1.755363e+00 -2.411774e+01 -1.888202e+00 -3.082218e+01 -1.926420e+00 -3.753716e+01 -2.085321e+00 -4.449298e+01 -2.202094e+00 -5.116230e+01 -2.083003e+00 -5.765812e+01 -1.847036e+00 -6.406542e+01 -1.563034e+00 -7.040590e+01 -1.257806e+00 -7.667214e+01 -9.421123e-01 -8.284395e+01 -6.262747e-01 -8.889616e+01 
-3.574809e-01 -9.292615e+01 -6.384332e-02 -9.894594e+01 2.115456e-01 9.810132e+01 5.189053e-01 9.212186e+01 8.058316e-01 8.615538e+01 1.068492e+00 8.016562e+01 1.283792e+00 7.410858e+01 1.374812e+00 6.787867e+01 1.167989e+00 6.123309e+01 9.254142e-01 5.490523e+01 8.607401e-01 4.857907e+01 6.775335e-01 4.191649e+01 2.988325e-01 3.549507e+01 2.033500e-01 2.912957e+01 6.367550e-02 2.249804e+01 -3.992997e-01 1.594398e+01 -5.081124e-01 9.554803e+00 -6.295204e-01 3.017539e+00 -1.099461e+00 -3.687969e+00 -1.202798e+00 -1.012153e+01 -1.279720e+00 -1.661112e+01 -1.664248e+00 -2.342701e+01 -1.791512e+00 -2.992453e+01 -1.804928e+00 -3.644516e+01 -2.024008e+00 -4.333864e+01 -2.200210e+00 -4.982771e+01 -2.080864e+00 -5.612633e+01 -1.842329e+00 -6.235421e+01 -1.565290e+00 -6.854434e+01 -1.273541e+00 -7.469996e+01 -9.717877e-01 -8.081672e+01 -6.636347e-01 -8.689068e+01 
-4.322860e-01 -9.709628e+01 -1.803739e-01 -1.034496e+02 4.836747e-02 1.022349e+02 3.139997e-01 9.593889e+01 5.723151e-01 8.968370e+01 8.359501e-01 8.344745e+01 1.106798e+00 7.720614e+01 1.308746e+00 7.081745e+01 9.147830e-01 6.332949e+01 4.594270e-01 5.692432e+01 6.379943e-01 5.055260e+01 5.714812e-01 4.319676e+01 -1.715789e-01 3.664307e+01 6.116753e-03 3.026517e+01 1.216897e-01 2.313447e+01 -8.314375e-01 1.626858e+01 -6.654736e-01 9.882780e+00 -5.097493e-01 3.113268e+00 -1.460773e+00 -4.162829e+00 -1.332024e+00 -1.059160e+01 -1.137397e+00 -1.714090e+01 -1.873793e+00 -2.468758e+01 -1.935620e+00 -3.119119e+01 -1.704636e+00 -3.773029e+01 -2.080597e+00 -4.547445e+01 -2.529029e+00 -5.209146e+01 -2.286189e+00 -5.853806e+01 -1.949468e+00 -6.498862e+01 -1.618713e+00 -7.144945e+01 -1.302728e+00 -7.790325e+01 -9.986222e-01 -8.433380e+01 -7.068411e-01 -9.073106e+01 
-4.284758e-01 -9.549663e+01 -1.622850e-01 -1.020853e+02 8.904765e-02 1.013912e+02 4.124025e-01 9.485341e+01 7.317886e-01 8.845210e+01 1.062451e+00 8.216094e+01 1.417987e+00 7.595561e+01 1.736018e+00 6.967910e+01 1.187268e+00 6.187361e+01 6.076780e-01 5.573739e+01 9.507145e-01 4.963896e+01 9.121349e-01 4.207764e+01 -1.048174e-01 3.580828e+01 2.448180e-01 2.975638e+01 4.930339e-01 2.255418e+01 -8.400155e-01 1.586453e+01 -4.807368e-01 9.821168e+00 -1.585973e-01 3.182287e+00 -1.511875e+00 -4.104927e+00 -1.201517e+00 -1.018121e+01 -8.368702e-01 -1.646091e+01 -1.891692e+00 -2.416333e+01 -1.879725e+00 -3.031025e+01 -1.495444e+00 -3.653281e+01 -2.039057e+00 -4.456985e+01 -2.637292e+00 -5.088986e+01 -2.316849e+00 -5.711411e+01 -1.943005e+00 -6.340274e+01 -1.603795e+00 -6.974702e+01 -1.292182e+00 -7.612964e+01 -9.953316e-01 -8.254384e+01 -7.072806e-01 -8.899389e+01 
-5.255346e-01 -9.938430e+01 -2.951724e-01 -1.062665e+02 -8.390374e-02 1.052231e+02 2.055139e-01 9.840080e+01 4.999721e-01 9.173458e+01 8.349118e-01 8.522872e+01 1.297418e+00 7.898177e+01 2.151370e+00 7.337006e+01 1.114655e+00 6.287004e+01 -4.309768e-01 5.764078e+01 9.061442e-01 5.237506e+01 1.499314e+00 4.253504e+01 -1.402277e+00 3.677473e+01 5.534666e-02 3.151689e+01 1.529685e+00 2.285741e+01 -2.241810e+00 1.578132e+01 -6.744606e-01 1.048620e+01 9.081714e-01 3.640380e+00 -2.747329e+00 -5.291523e+00 -1.436561e+00 -1.051701e+01 5.668520e-02 -1.616171e+01 -2.584634e+00 -2.630629e+01 -2.329456e+00 -3.149072e+01 -9.372759e-01 -3.674442e+01 -1.914520e+00 -4.764750e+01 -3.590998e+00 -5.316640e+01 -2.591316e+00 -5.940700e+01 -2.047400e+00 -6.589812e+01 -1.660373e+00 -7.249664e+01 -1.337342e+00 -7.915318e+01 -1.046102e+00 -8.585088e+01 -7.760891e-01 -9.258971e+01 
-4.962190e-01 -9.797033e+01 -2.588163e-01 -1.050720e+02 -3.637178e-02 1.045078e+02 2.976085e-01 9.746063e+01 6.372838e-01 9.064959e+01 1.022103e+00 8.408664e+01 1.566390e+00 7.791918e+01 2.673684e+00 7.273538e+01 1.434849e+00 6.116398e+01 -4.808000e-01 5.655791e+01 1.270907e+00 5.189796e+01 2.102787e+00 4.121089e+01 -1.624215e+00 3.596212e+01 3.076487e-01 3.133403e+01 2.303202e+00 2.221892e+01 -2.591968e+00 1.527039e+01 -4.845647e-01 1.059926e+01 1.660004e+00 3.894616e+00 -3.100705e+00 -5.494771e+00 -1.320403e+00 -1.004392e+01 6.894157e-01 -1.513855e+01 -2.754010e+00 -2.613869e+01 -2.366373e+00 -3.059761e+01 -5.003705e-01 -3.513705e+01 -1.743066e+00 -4.714118e+01 -3.934182e+00 -5.201589e+01 -2.622161e+00 -5.802935e+01 -2.011766e+00 -6.439302e+01 -1.616166e+00 -7.090901e+01 -1.298453e+00 -7.752426e+01 -1.014161e+00 -8.422980e+01 -7.480855e-01 -9.103658e+01 
-6.079358e-01 -1.015771e+02 -4.038741e-01 -1.089346e+02 -2.202550e-01 1.080227e+02 8.022403e-02 1.007148e+02 3.791699e-01 9.363114e+01 7.014206e-01 8.675367e+01 1.091857e+00 8.010527e+01 1.630927e+00 7.374654e+01 9.048482e-01 6.434913e+01 -5.679064e-02 5.832752e+01 7.188440e-01 5.234317e+01 9.772679e-01 4.346168e+01 -8.442465e-01 3.720129e+01 1.738382e-02 3.130952e+01 8.426184e-01 2.322150e+01 -1.577203e+00 1.616084e+01 -6.428828e-01 1.028424e+01 2.843304e-01 3.366610e+00 -2.120986e+00 -4.870345e+00 -1.322912e+00 -1.072874e+01 -4.052630e-01 -1.689456e+01 -2.200257e+00 -2.592975e+01 -2.061859e+00 -3.181691e+01 -1.181055e+00 -3.778397e+01 -1.938533e+00 -4.738364e+01 -3.080362e+00 -5.354844e+01 -2.434152e+00 -6.003419e+01 -1.986087e+00 -6.670133e+01 -1.638195e+00 -7.348437e+01 -1.342114e+00 -8.035891e+01 -1.076231e+00 -8.732230e+01 -8.321813e-01 -9.438652e+01 
-5.593241e-01 -1.002692e+02 -3.539002e-01 -1.078248e+02 -1.676149e-01 1.073532e+02 1.656477e-01 9.983705e+01 4.914053e-01 9.259841e+01 8.246797e-01 8.559748e+01 1.175249e+00 7.878691e+01 1.467241e+00 7.196566e+01 1.006341e+00 6.386137e+01 5.137141e-01 5.729600e+01 8.097372e-01 5.083755e+01 7.770604e-01 4.314085e+01 -1.004194e-01 3.659461e+01 2.042363e-01 3.029524e+01 4.186319e-01 2.301698e+01 -7.465317e-01 1.616729e+01 -4.414959e-01 9.932180e+00 -1.629064e-01 3.184402e+00 -1.348468e+00 -4.171585e+00 -1.088716e+00 -1.043747e+01 -7.675310e-01 -1.688305e+01 -1.699551e+00 -2.461450e+01 -1.710943e+00 -3.098585e+01 -1.376407e+00 -3.743601e+01 -1.883204e+00 -4.550328e+01 -2.468044e+00 -5.211088e+01 -2.200250e+00 -5.862081e+01 -1.858691e+00 -6.523693e+01 -1.550082e+00 -7.197220e+01 -1.273601e+00 -7.882667e+01 -1.019265e+00 -8.581082e+01 -7.815668e-01 -9.294694e+01 
-6.799743e-01 -1.035989e+02 -5.056393e-01 -1.113741e+02 -3.557175e-01 1.105529e+02 -5.489682e-02 1.028070e+02 2.283160e-01 9.532002e+01 4.995592e-01 8.803762e+01 7.503525e-01 8.089090e+01 9.099761e-01 7.372123e+01 6.477926e-01 6.596867e+01 3.534215e-01 5.895862e+01 4.411348e-01 5.204792e+01 3.553945e-01 4.458186e+01 -1.405138e-01 3.766466e+01 -6.244567e-02 3.090504e+01 -3.859947e-02 2.369234e+01 -6.837672e-01 1.666830e+01 -6.196828e-01 9.972549e+00 -5.688432e-01 3.029240e+00 -1.222781e+00 -4.237931e+00 -1.177366e+00 -1.096619e+01 -1.090790e+00 -1.778791e+01 -1.612761e+00 -2.526696e+01 -1.688353e+00 -3.209747e+01 -1.579568e+00 -3.897635e+01 -1.886511e+00 -4.666274e+01 -2.215729e+00 -5.363506e+01 -2.069014e+00 -6.048985e+01 -1.821035e+00 -6.739149e+01 -1.564352e+00 -7.438060e+01 -1.319131e+00 -8.147425e+01 -1.089038e+00 -8.869019e+01 -8.753526e-01 -9.605340e+01 
-6.160552e-01 -1.023314e+02 -4.439678e-01 -1.102798e+02 -2.963380e-01 1.098675e+02 2.896094e-02 1.019379e+02 3.295557e-01 9.430973e+01 6.042533e-01 8.691776e+01 8.334746e-01 7.967853e+01 9.471371e-01 7.244956e+01 7.932477e-01 6.501333e+01 6.138174e-01 5.796312e+01 5.942348e-01 5.102206e+01 4.676353e-01 4.388302e+01 1.674157e-01 3.701794e+01 1.160647e-01 3.026560e+01 1.913244e-02 2.333031e+01 -3.661408e-01 1.648714e+01 -4.401358e-01 9.816575e+00 -5.276774e-01 3.028750e+00 -9.224564e-01 -3.911979e+00 -9.968264e-01 -1.061276e+01 -1.049856e+00 -1.737402e+01 -1.378624e+00 -2.444716e+01 -1.491608e+00 -3.125869e+01 -1.515751e+00 -3.811866e+01 -1.738889e+00 -4.535332e+01 -1.932805e+00 -5.228114e+01 -1.860881e+00 -5.910422e+01 -1.673894e+00 -6.596248e+01 -1.453636e+00 -7.291621e+01 -1.229971e+00 -7.999832e+01 -1.012999e+00 -8.723778e+01 -8.071543e-01 -9.466819e+01 
-7.413754e-01 -1.053902e+02 -5.969780e-01 -1.135225e+02 -4.809397e-01 1.127625e+02 -1.847348e-01 1.046403e+02 8.020061e-02 9.680421e+01 3.104758e-01 8.918726e+01 4.880562e-01 8.171286e+01 5.669718e-01 7.428103e+01 4.774144e-01 6.678680e+01 3.541571e-01 5.951118e+01 2.971624e-01 5.232764e+01 1.772788e-01 4.508271e+01 -3.161116e-02 3.799246e+01 -1.227883e-01 3.098260e+01 -2.420904e-01 2.390114e+01 -5.037520e-01 1.687088e+01 -6.152097e-01 9.936488e+00 -7.340864e-01 2.946206e+00 -1.000507e+00 -4.126649e+00 -1.107767e+00 -1.108585e+01 -1.200162e+00 -1.808434e+01 -1.424377e+00 -2.525253e+01 -1.538132e+00 -3.230760e+01 -1.599680e+00 -3.939965e+01 -1.750819e+00 -4.668666e+01 -1.866662e+00 -5.382407e+01 -1.814601e+00 -6.089612e+01 -1.667828e+00 -6.799399e+01 -1.481761e+00 -7.517206e+01 -1.284794e+00 -8.246660e+01 -1.090871e+00 -8.990972e+01 -9.078236e-01 -9.753671e+01 
-6.648398e-01 -1.041082e+02 -5.241773e-01 -1.123862e+02 -4.122525e-01 1.120131e+02 -9.643624e-02 1.037372e+02 1.829523e-01 9.578582e+01 4.198203e-01 8.808854e+01 5.955070e-01 8.056850e+01 6.752676e-01 7.314209e+01 6.299357e-01 6.575536e+01 5.430513e-01 5.853279e+01 4.680680e-01 5.141487e+01 3.472069e-01 4.432187e+01 1.797083e-01 3.734057e+01 5.814821e-02 3.043344e+01 -8.567031e-02 2.351973e+01 -2.954318e-01 1.664652e+01 -4.397224e-01 9.832428e+00 -5.897419e-01 2.995706e+00 -8.038325e-01 -3.882175e+00 -9.411942e-01 -1.071445e+01 -1.068274e+00 -1.757858e+01 -1.252055e+00 -2.453870e+01 -1.377160e+00 -3.147067e+01 -1.470342e+00 -3.844257e+01 -1.595742e+00 -4.552222e+01 -1.677972e+00 -5.254864e+01 -1.644795e+00 -5.954909e+01 -1.526858e+00 -6.659149e+01 -1.364465e+00 -7.373137e+01 -1.184320e+00 -8.101210e+01 -1.001807e+00 -8.847307e+01 -8.263061e-01 -9.615590e+01 
-7.916920e-01 -1.069041e+02 -6.743185e-01 -1.153311e+02 -5.879384e-01 1.146153e+02 -2.966850e-01 1.061859e+02 -4.410525e-02 9.806916e+01 1.645118e-01 9.019649e+01 3.142530e-01 8.249749e+01 3.813775e-01 7.490367e+01 3.526381e-01 6.737593e+01 2.822804e-01 5.997736e+01 2.064726e-01 5.267375e+01 9.665036e-02 4.541628e+01 -4.402448e-02 3.824574e+01 -1.633419e-01 3.113873e+01 -2.987882e-01 2.404477e+01 -4.724809e-01 1.698339e+01 -6.112214e-01 9.963036e+00 -7.534250e-01 2.932509e+00 -9.295262e-01 -4.123979e+00 -1.060947e+00 -1.115986e+01 -1.183659e+00 -1.822187e+01 -1.334549e+00 -2.534947e+01 -1.448308e+00 -3.247473e+01 -1.537404e+00 -3.963475e+01 -1.635143e+00 -4.686550e+01 -1.692456e+00 -5.407438e+01 -1.661249e+00 -6.127415e+01 -1.558494e+00 -6.851532e+01 -1.414311e+00 -7.584672e+01 -1.252347e+00 -8.331035e+01 -1.088156e+00 -9.094564e+01 -9.320209e-01 -9.879434e+01 
-7.044326e-01 -1.055616e+02 -5.906281e-01 -1.141047e+02 -5.080398e-01 1.137606e+02 -1.997243e-01 1.052102e+02 6.714654e-02 9.700788e+01 2.865121e-01 8.908380e+01 4.442712e-01 8.136762e+01 5.213354e-01 7.379434e+01 5.118498e-01 6.632826e+01 4.563757e-01 5.900062e+01 3.823328e-01 5.178480e+01 2.760686e-01 4.464319e+01 1.438745e-01 3.759200e+01 1.801275e-02 3.061107e+01 -1.231173e-01 2.366207e+01 -2.898216e-01 1.674960e+01 -4.377338e-01 9.874091e+00 -5.887322e-01 2.997531e+00 -7.587547e-01 -3.895491e+00 -8.997696e-01 -1.078106e+01 -1.032827e+00 -1.769234e+01 -1.179411e+00 -2.465760e+01 -1.298492e+00 -3.163973e+01 -1.395968e+00 -3.866243e+01 -1.489335e+00 -4.574745e+01 -1.541856e+00 -5.284023e+01 -1.518488e+00 -5.995003e+01 -1.429007e+00 -6.712196e+01 -1.297862e+00 -7.440534e+01 -1.146630e+00 -8.184575e+01 -9.905938e-01 -8.948706e+01 -8.404058e-01 -9.737524e+01 
-8.304982e-01 -1.081049e+02 -7.353434e-01 -1.167624e+02 -6.721957e-01 1.160807e+02 -3.840912e-01 1.074156e+02 -1.360474e-01 9.908880e+01 6.764194e-02 9.103249e+01 2.147160e-01 8.317809e+01 2.858575e-01 7.545906e+01 2.702907e-01 6.783308e+01 2.124093e-01 6.034987e+01 1.458682e-01 5.297445e+01 4.784972e-02 4.565990e+01 -7.975951e-02 3.843707e+01 -1.909220e-01 3.128341e+01 -3.167065e-01 2.415244e+01 -4.763279e-01 1.705636e+01 -6.066393e-01 1.000140e+01 -7.397304e-01 2.941533e+00 -9.015666e-01 -4.140607e+00 -1.025463e+00 -1.120602e+01 -1.140962e+00 -1.829647e+01 -1.279257e+00 -2.544847e+01 -1.385601e+00 -3.260560e+01 -1.468662e+00 -3.980121e+01 -1.556393e+00 -4.706826e+01 -1.609034e+00 -5.433280e+01 -1.583704e+00 -6.160945e+01 -1.495150e+00 -6.894568e+01 -1.369515e+00 -7.638917e+01 -1.227798e+00 -8.398313e+01 -1.084397e+00 -9.176961e+01 -9.493317e-01 -9.979336e+01 
-7.339098e-01 -1.066623e+02 -6.411622e-01 -1.154052e+02 -5.803081e-01 1.150841e+02 -2.764773e-01 1.063317e+02 -1.339447e-02 9.795027e+01 2.046826e-01 8.987117e+01 3.655478e-01 8.202405e+01 4.485639e-01 7.433776e+01 4.385438e-01 6.676083e+01 3.847674e-01 5.935726e+01 3.254628e-01 5.208059e+01 2.305307e-01 4.487218e+01 9.968518e-02 3.777418e+01 -9.363415e-03 3.075758e+01 -1.352061e-01 2.376572e+01 -3.036429e-01 1.681666e+01 -4.348211e-01 9.917774e+00 -5.696010e-01 3.013714e+00 -7.421382e-01 -3.915461e+00 -8.682175e-01 -1.082087e+01 -9.854115e-01 -1.775388e+01 -1.133204e+00 -2.475960e+01 -1.243200e+00 -3.176740e+01 -1.327413e+00 -3.882151e+01 -1.422346e+00 -4.596676e+01 -1.483546e+00 -5.311437e+01 -1.462192e+00 -6.028782e+01 -1.377451e+00 -6.754036e+01 -1.256561e+00 -7.492237e+01 -1.119888e+00 -8.247934e+01 -9.810838e-01 -9.025583e+01 -8.497917e-01 -9.829922e+01 
-8.574428e-01 -1.089653e+02 -7.793144e-01 -1.177883e+02 -7.327493e-01 1.171316e+02 -4.460518e-01 1.083022e+02 -1.956484e-01 9.983539e+01 1.741374e-02 9.166578e+01 1.829554e-01 8.372296e+01 2.715797e-01 7.591883e+01 2.299757e-01 6.814518e+01 1.469835e-01 6.061545e+01 1.129096e-01 5.321431e+01 2.920373e-02 4.580928e+01 -1.343705e-01 3.856060e+01 -2.068848e-01 3.140655e+01 -3.004620e-01 2.422227e+01 -5.100473e-01 1.708955e+01 -6.019463e-01 1.004607e+01 -6.982319e-01 2.970008e+00 -9.103453e-01 -4.172853e+00 -1.000813e+00 -1.122565e+01 -1.077490e+00 -1.831174e+01 -1.253889e+00 -2.554229e+01 -1.348480e+00 -3.269677e+01 -1.397640e+00 -3.989775e+01 -1.510328e+00 -4.727589e+01 -1.605720e+00 -5.457865e+01 -1.573425e+00 -6.188427e+01 -1.473520e+00 -6.926848e+01 -1.345973e+00 -7.678167e+01 -1.211012e+00 -8.446486e+01 -1.079758e+00 -9.235884e+01 -9.597587e-01 -1.005085e+02 
-7.526290e-01 -1.073892e+02 -6.753680e-01 -1.162660e+02 -6.292022e-01 1.159598e+02 -3.277646e-01 1.070773e+02 -6.151319e-02 9.858763e+01 1.696101e-01 9.042571e+01 3.560951e-01 8.251933e+01 4.630392e-01 7.476841e+01 4.090482e-01 6.701749e+01 3.134312e-01 5.958827e+01 2.998598e-01 5.230805e+01 2.219629e-01 4.498743e+01 3.060993e-02 3.787680e+01 -2.338886e-02 3.088085e+01 -1.041109e-01 2.382252e+01 -3.555228e-01 1.683536e+01 -4.313472e-01 9.968496e+00 -5.137724e-01 3.051096e+00 -7.705855e-01 -3.957740e+00 -8.483745e-01 -1.083110e+01 -9.098539e-01 -1.774574e+01 -1.122334e+00 -2.485954e+01 -1.216437e+00 -3.184709e+01 -1.251211e+00 -3.889120e+01 -1.386382e+00 -4.618688e+01 -1.510233e+00 -5.336205e+01 -1.473552e+00 -6.054556e+01 -1.366877e+00 -6.782902e+01 -1.236485e+00 -7.526506e+01 -1.101709e+00 -8.289497e+01 -9.719457e-01 -9.076037e+01 -8.536134e-01 -9.890753e+01 
-8.722735e-01 -1.094665e+02 -8.068983e-01 -1.183897e+02 -7.717064e-01 1.177435e+02 -4.865962e-01 1.088197e+02 -2.301501e-01 1.002811e+02 4.321476e-03 9.207118e+01 2.186679e-01 8.413012e+01 3.791575e-01 7.634259e+01 2.387020e-01 6.820740e+01 2.335277e-02 6.075676e+01 1.215015e-01 5.345962e+01 9.777169e-02 4.579304e+01 -2.854880e-01 3.859455e+01 -2.087768e-01 3.156480e+01 -1.640351e-01 2.422932e+01 -6.615359e-01 1.703864e+01 -5.993385e-01 1.012874e+01 -5.423248e-01 3.054653e+00 -1.034734e+00 -4.291036e+00 -9.964405e-01 -1.120674e+01 -9.198612e-01 -1.819041e+01 -1.300881e+00 -2.571163e+01 -1.363450e+00 -3.273660e+01 -1.270467e+00 -3.982033e+01 -1.471005e+00 -4.756541e+01 -1.735279e+00 -5.481917e+01 -1.636160e+00 -6.207913e+01 -1.484450e+00 -6.946234e+01 -1.335112e+00 -7.700534e+01 -1.196747e+00 -8.473801e+01 -1.071536e+00 -9.269582e+01 -9.621066e-01 -1.009217e+02 
-7.602007e-01 -1.077283e+02 -6.942419e-01 -1.166727e+02 -6.577804e-01 1.163665e+02 -3.592862e-01 1.074234e+02 -8.720117e-02 9.889345e+01 1.682681e-01 9.072386e+01 4.156827e-01 8.286180e+01 6.277899e-01 7.519080e+01 4.330586e-01 6.694231e+01 1.467776e-01 5.967699e+01 3.277205e-01 5.257795e+01 3.372440e-01 4.487696e+01 -1.844440e-01 3.787230e+01 -2.028109e-02 3.107378e+01 1.024567e-01 2.378958e+01 -5.846681e-01 1.674157e+01 -4.301192e-01 1.007801e+01 -2.865513e-01 3.162038e+00 -9.711570e-01 -4.129615e+00 -8.538591e-01 -1.079222e+01 -6.917520e-01 -1.755247e+01 -1.217255e+00 -2.508584e+01 -1.258420e+00 -3.186296e+01 -1.085392e+00 -3.871570e+01 -1.347458e+00 -4.653866e+01 -1.705029e+00 -5.359722e+01 -1.561116e+00 -6.070161e+01 -1.385171e+00 -6.796523e+01 -1.226222e+00 -7.541519e+01 -1.084980e+00 -8.307742e+01 -9.593777e-01 -9.098663e+01 -8.501075e-01 -9.918630e+01 
-8.748570e-01 -1.095973e+02 -8.196273e-01 -1.185551e+02 -7.932408e-01 1.178967e+02 -5.133216e-01 1.089444e+02 -2.546687e-01 1.003930e+02 1.174503e-03 9.220609e+01 2.966740e-01 8.439375e+01 7.586341e-01 7.710135e+01 3.702708e-01 6.755759e+01 -4.474408e-01 6.076385e+01 2.228642e-01 5.408577e+01 5.659119e-01 4.526312e+01 -9.185060e-01 3.848081e+01 -2.045856e-01 3.205234e+01 5.349940e-01 2.403756e+01 -1.373682e+00 1.672954e+01 -6.150540e-01 1.039969e+01 1.563942e-01 3.360459e+00 -1.662727e+00 -4.821502e+00 -1.056377e+00 -1.109860e+01 -3.293217e-01 -1.756876e+01 -1.620723e+00 -2.637543e+01 -1.562869e+00 -3.269845e+01 -8.821527e-01 -3.909497e+01 -1.316345e+00 -4.837207e+01 -2.255070e+00 -5.503944e+01 -1.759126e+00 -6.214895e+01 -1.497512e+00 -6.949742e+01 -1.318163e+00 -7.704134e+01 -1.175410e+00 -8.478895e+01 -1.055221e+00 -9.276890e+01 -9.545574e-01 -1.010217e+02 
-7.564752e-01 -1.076725e+02 -6.994858e-01 -1.166187e+02 -6.707499e-01 1.162879e+02 -3.796398e-01 1.073486e+02 -1.084245e-01 9.883311e+01 1.648895e-01 9.071197e+01 4.983912e-01 8.302308e+01 1.091015e+00 7.603109e+01 6.107835e-01 6.602229e+01 -4.434872e-01 5.961966e+01 4.609782e-01 5.332131e+01 9.526198e-01 4.416264e+01 -9.808348e-01 3.770281e+01 -1.265094e-02 3.166860e+01 1.004162e+00 2.352935e+01 -1.484421e+00 1.634614e+01 -4.495601e-01 1.041311e+01 6.036886e-01 3.548657e+00 -1.762505e+00 -4.795606e+00 -9.314474e-01 -1.064793e+01 4.861210e-02 -1.674797e+01 -1.620544e+00 -2.590722e+01 -1.515736e+00 -3.178474e+01 -6.066572e-01 -3.774750e+01 -1.139456e+00 -4.749161e+01 -2.343853e+00 -5.377121e+01 -1.688801e+00 -6.069729e+01 -1.390641e+00 -6.791664e+01 -1.203051e+00 -7.535529e+01 -1.058806e+00 -8.301585e+01 -9.384070e-01 -9.092648e+01 -8.372827e-01 -9.912840e+01 