# vtk DataFile Version 2.0
Comment goes here
ASCII

DATASET STRUCTURED_POINTS
FIELD FieldData 1
TIME 1 1 double
0.08900000
DIMENSIONS    64   64   1

ORIGIN    0.000   0.000   0.000
SPACING   0.03125 0.03125   1.000

POINT_DATA   4096
VECTORS u double

9.704100 -33.848195 0.000000 -3.214290 7.705374 0.000000 6.196660 -1.853258 0.000000 -4.968160 1.604945 0.000000 4.596999 -1.280689 0.000000 -4.986042 -1.224673 0.000000 9.006197 1.043806 0.000000 -6.745339 4.850387 0.000000 8.687482 1.823587 0.000000 -6.551042 -2.315491 0.000000 7.617554 -1.415502 0.000000 -6.237476 1.736139 0.000000 4.145068 -0.317025 0.000000 -7.278408 2.177599 0.000000 4.010566 -0.849488 0.000000 -2.434040 4.164054 0.000000 -0.359224 -0.743605 0.000000 -1.294564 5.342431 0.000000 -3.794373 0.314754 0.000000 -1.212224 2.032372 0.000000 -6.452883 -4.284901 0.000000 -3.773877 5.448055 0.000000 -6.933146 0.132717 0.000000 -7.977914 10.771210 0.000000 -11.903935 1.175806 0.000000 -7.352502 6.926899 0.000000 -10.362878 1.215217 0.000000 -5.175190 -5.914468 0.000000 -7.203910 1.545680 0.000000 6.567204 4.172247 0.000000 -7.954026 -0.286063 0.000000 1.435590 -1.269568 0.000000 -4.763963 4.841557 0.000000 4.143819 -2.660276 0.000000 0.304682 -0.318022 0.000000 5.861643 0.396213 0.000000 -0.582364 -2.112216 0.000000 7.734578 1.656209 0.000000 -1.846664 3.860179 0.000000 3.493701 1.665874 0.000000 -3.233810 0.887416 0.000000 4.833907 1.783432 0.000000 -3.136688 3.781301 0.000000 -0.104299 2.493240 0.000000 -4.812410 2.649454 0.000000 1.002738 -2.380038 0.000000 -3.541132 2.511313 0.000000 1.578674 -4.308264 0.000000 -2.944289 0.286999 0.000000 -0.955759 -1.633063 0.000000 -4.379685 3.339798 0.000000 -0.000530 -1.820735 0.000000 -1.447067 2.123202 0.000000 0.403504 -2.146896 0.000000 1.976642 4.307489 0.000000 3.086314 -4.486705 0.000000 3.045602 4.314699 0.000000 6.981806 -4.757165 0.000000 5.396986 4.728975 0.000000 7.770648 -7.771938 0.000000 8.663471 3.792967 0.000000 7.912122 -5.129496 0.000000 11.718538 2.471559 0.000000 6.695708 -1.446974 0.000000 
-7.787180 -31.631434 0.000000 -12.046970 7.021834 0.000000 10.204303 -0.623067 0.000000 -14.469521 -1.947925 0.000000 12.356990 3.948299 0.000000 -15.257184 -4.569848 0.000000 11.567308 -0.489394 0.000000 -13.220092 2.179827 0.000000 13.030839 -0.265730 0.000000 -9.798958 0.150377 0.000000 7.138593 -3.002312 0.000000 -8.635499 2.378576 0.000000 5.028827 -3.526885 0.000000 -5.763238 3.735029 0.000000 2.348433 -5.088767 0.000000 -3.482084 5.434072 0.000000 -0.325230 -4.831400 0.000000 1.204781 4.232332 0.000000 3.285276 -4.058498 0.000000 4.648206 2.038939 0.000000 0.117274 -6.359656 0.000000 6.523411 3.271613 0.000000 0.909787 -1.369398 0.000000 10.940636 3.908188 0.000000 6.353028 -6.311527 0.000000 19.829542 -6.628853 0.000000 12.161637 -5.463015 0.000000 15.010342 3.897360 0.000000 -7.872616 -4.671361 0.000000 5.289465 -2.396783 0.000000 -1.961195 2.087156 0.000000 0.952129 -5.347029 0.000000 -3.448575 -0.965922 0.000000 1.251118 -6.833824 0.000000 -6.617053 -3.568833 0.000000 -2.124903 -2.007679 0.000000 -8.472928 -2.607985 0.000000 -8.254426 0.770772 0.000000 -8.852057 1.627392 0.000000 -1.357892 -0.949453 0.000000 -6.664617 -0.532517 0.000000 -3.944962 -1.047710 0.000000 -1.832092 3.508408 0.000000 -0.503142 0.371989 0.000000 0.166167 2.336584 0.000000 1.210269 -1.841749 0.000000 1.459107 0.028317 0.000000 6.018902 -4.058630 0.000000 0.867102 2.913567 0.000000 5.294895 0.668500 0.000000 -1.461978 2.668774 0.000000 5.820378 -2.410094 0.000000 -1.189215 1.851426 0.000000 6.845251 -4.465043 0.000000 0.526757 3.524165 0.000000 7.837965 -3.467198 0.000000 -2.082233 4.242510 0.000000 5.848976 -5.623823 0.000000 -2.564426 6.682347 0.000000 3.806302 -7.883184 0.000000 -6.281432 6.016099 0.000000 2.486462 -7.178232 0.000000 -7.893024 5.918754 0.000000 -0.691215 2.221000 0.000000 
-5.942005 -22.492439 0.000000 -7.821003 -10.286109 0.000000 8.565177 0.569292 0.000000 -3.591523 -0.547742 0.000000 8.231940 -0.493026 0.000000 1.227190 -0.434991 0.000000 6.903855 -0.993286 0.000000 4.040333 3.386856 0.000000 8.834304 -1.597547 0.000000 6.761358 3.576755 0.000000 7.329066 -2.578961 0.000000 6.703272 3.845905 0.000000 6.561664 -3.189286 0.000000 5.781844 4.857993 0.000000 6.060600 -3.130642 0.000000 3.066845 6.837717 0.000000 5.202984 -5.430470 0.000000 1.064737 1.731924 0.000000 4.969417 -3.128671 0.000000 -1.846523 5.200374 0.000000 -0.796803 -6.160106 0.000000 -6.432191 4.655542 0.000000 -8.281072 -4.284509 0.000000 -7.647066 5.327970 0.000000 -22.362116 -7.713099 0.000000 -16.934579 1.118289 0.000000 -54.057688 6.034417 0.000000 24.194048 14.119785 0.000000 9.144734 11.266557 0.000000 1.348372 -1.739174 0.000000 10.580834 4.051273 0.000000 8.455972 0.217812 0.000000 13.026911 4.542569 0.000000 9.960485 0.508201 0.000000 11.298884 3.057999 0.000000 8.116722 2.252088 0.000000 11.224493 4.017307 0.000000 5.703724 2.035338 0.000000 12.414323 -3.036355 0.000000 9.184711 -0.521566 0.000000 11.580072 3.474485 0.000000 5.732824 -3.049094 0.000000 10.902089 0.339481 0.000000 6.721165 0.494981 0.000000 8.556214 0.936044 0.000000 5.011784 -3.672978 0.000000 5.547374 -2.297320 0.000000 1.302706 -3.716259 0.000000 -0.720746 1.011006 0.000000 -1.419296 0.696017 0.000000 -4.393738 2.814315 0.000000 -5.797653 -2.093498 0.000000 -9.390639 1.098329 0.000000 -9.722533 -3.862869 0.000000 -14.659400 3.314775 0.000000 -11.908386 -1.877715 0.000000 -17.876534 6.303688 0.000000 -13.041179 -4.274972 0.000000 -19.226032 6.771649 0.000000 -8.908686 -4.054932 0.000000 -19.565562 5.112807 0.000000 -1.016648 -3.517904 0.000000 -18.296558 5.649236 0.000000 6.910313 -1.552818 0.000000 
5.156966 -16.900118 0.000000 6.013477 -7.485349 0.000000 5.096419 -4.852547 0.000000 14.569175 -1.614688 0.000000 11.493664 -0.870414 0.000000 14.960092 -3.241763 0.000000 12.269952 -3.302537 0.000000 18.152336 0.249378 0.000000 14.612288 -2.986754 0.000000 19.070254 1.655616 0.000000 15.458162 -2.944226 0.000000 18.087106 3.145978 0.000000 15.385272 -2.605457 0.000000 15.772522 4.236092 0.000000 15.131821 -2.373768 0.000000 12.565875 6.291688 0.000000 15.562056 -2.829292 0.000000 6.166834 4.465898 0.000000 10.227691 -1.147238 0.000000 -0.523448 7.805160 0.000000 3.523624 -1.773988 0.000000 -14.152332 10.755882 0.000000 -14.434789 -0.154523 0.000000 -37.893568 17.989232 0.000000 -57.578540 2.975986 0.000000 -83.224234 25.066718 0.000000 -101.716044 -46.591642 0.000000 42.647143 -59.305061 0.000000 13.306014 18.174314 0.000000 6.582270 -3.832884 0.000000 13.531251 -5.020444 0.000000 9.612965 -7.793105 0.000000 19.130471 -2.470435 0.000000 12.557489 -5.105796 0.000000 20.425377 -1.725070 0.000000 13.309620 -1.933288 0.000000 20.360289 -0.194987 0.000000 13.771495 -0.419058 0.000000 18.576789 -1.853595 0.000000 7.571913 -0.115202 0.000000 14.147021 2.919370 0.000000 5.975167 -0.369726 0.000000 7.673354 2.520067 0.000000 1.567268 2.717864 0.000000 4.557132 4.045966 0.000000 -1.992330 1.167091 0.000000 -1.525546 3.737394 0.000000 -8.128472 2.209490 0.000000 -7.634529 5.635568 0.000000 -12.180291 4.341491 0.000000 -10.442004 7.047131 0.000000 -15.371964 2.586807 0.000000 -15.270047 5.776306 0.000000 -19.881960 0.803718 0.000000 -20.310546 5.710018 0.000000 -21.614491 -0.250064 0.000000 -21.353758 5.375303 0.000000 -18.520132 -4.274325 0.000000 -20.320393 2.549854 0.000000 -10.871691 -7.543653 0.000000 -14.471987 -1.875939 0.000000 -0.114981 -8.447237 0.000000 -5.845642 -2.008207 0.000000 14.447583 -10.133552 0.000000 
-1.643363 -14.058333 0.000000 6.623071 -10.225562 0.000000 4.684309 -7.986407 0.000000 13.856891 -6.944988 0.000000 12.323393 -0.883942 0.000000 14.563379 -1.211279 0.000000 12.657579 -4.185531 0.000000 17.399142 1.044520 0.000000 13.836786 -2.515465 0.000000 18.019606 2.730881 0.000000 13.985385 -1.595813 0.000000 16.778658 3.918795 0.000000 13.661159 -0.874702 0.000000 14.201345 5.111444 0.000000 12.762096 0.076005 0.000000 10.118148 6.407482 0.000000 12.145650 0.968571 0.000000 3.426854 7.066290 0.000000 8.120105 3.561611 0.000000 -5.004543 11.904441 0.000000 2.712076 7.468779 0.000000 -18.924937 22.613956 0.000000 -10.343460 19.456727 0.000000 -40.902522 48.471720 0.000000 -39.791080 37.617566 0.000000 -77.810456 45.255793 0.000000 -61.768445 -119.836959 0.000000 -8.712777 -100.902272 0.000000 6.013607 47.331430 0.000000 17.267215 -1.964410 0.000000 20.912072 1.020577 0.000000 13.565451 -5.381408 0.000000 23.268824 1.598044 0.000000 15.315434 -0.786705 0.000000 24.716352 2.305868 0.000000 16.946011 2.317177 0.000000 24.844183 3.555432 0.000000 17.383792 3.818838 0.000000 23.163619 3.163226 0.000000 13.881576 3.908202 0.000000 19.540100 5.071232 0.000000 11.829633 3.424574 0.000000 14.002182 4.747380 0.000000 7.414173 3.611204 0.000000 9.615947 4.495642 0.000000 2.725237 2.409700 0.000000 2.817345 3.838822 0.000000 -3.570266 2.392724 0.000000 -4.080994 5.062825 0.000000 -9.400190 3.503492 0.000000 -9.614206 6.005988 0.000000 -14.587214 2.734545 0.000000 -15.951927 5.608325 0.000000 -20.167118 1.177630 0.000000 -21.778517 5.047306 0.000000 -23.592534 -0.834503 0.000000 -24.765290 3.209330 0.000000 -22.773884 -5.308337 0.000000 -24.331066 -0.876791 0.000000 -16.743347 -9.903337 0.000000 -18.285367 -5.643904 0.000000 -6.629490 -12.144249 0.000000 -8.891117 -8.913327 0.000000 6.473605 -12.555426 0.000000 
3.394764 -17.049584 0.000000 11.826674 -13.813020 0.000000 9.046168 -12.086367 0.000000 17.049414 -9.253772 0.000000 13.606119 -1.576903 0.000000 17.857974 -3.575950 0.000000 14.668256 -6.138300 0.000000 19.566137 -0.929829 0.000000 15.767879 -3.607218 0.000000 19.943035 1.507016 0.000000 16.344518 -1.703278 0.000000 19.001658 3.470205 0.000000 16.484346 -0.028145 0.000000 16.855915 5.135155 0.000000 16.466606 1.709430 0.000000 13.507700 6.908134 0.000000 16.431560 3.862002 0.000000 8.233576 8.491443 0.000000 15.427898 7.284159 0.000000 1.371370 13.213189 0.000000 15.394340 12.146407 0.000000 -7.882787 23.811418 0.000000 17.791543 21.823062 0.000000 -19.287246 47.436852 0.000000 28.981534 39.883920 0.000000 -32.037050 47.044083 0.000000 44.929112 -115.689321 0.000000 -95.548502 -127.087113 0.000000 17.330537 -7.805678 0.000000 12.586873 -18.731349 0.000000 23.516318 -1.318680 0.000000 10.579731 -10.149857 0.000000 23.309217 -4.220418 0.000000 13.377261 -6.553324 0.000000 23.453577 -3.355646 0.000000 14.425017 -2.061119 0.000000 21.900757 -0.632768 0.000000 13.365970 1.261506 0.000000 18.643468 1.648620 0.000000 9.488513 3.508318 0.000000 13.693798 4.971314 0.000000 5.616044 5.168192 0.000000 7.964961 6.935526 0.000000 1.327612 7.104099 0.000000 3.349161 8.734903 0.000000 -2.536067 7.965692 0.000000 -1.501637 10.032897 0.000000 -6.894135 9.107829 0.000000 -6.531775 11.465492 0.000000 -11.169508 9.874704 0.000000 -11.274380 12.234155 0.000000 -15.721921 8.924528 0.000000 -16.741357 11.356210 0.000000 -20.558549 6.630309 0.000000 -22.031823 9.135434 0.000000 -23.740588 2.736708 0.000000 -25.258604 4.556652 0.000000 -23.135567 -4.708548 0.000000 -24.058637 -3.480683 0.000000 -16.270323 -13.589352 0.000000 -15.692172 -11.989797 0.000000 -3.764421 -17.841487 0.000000 -4.898969 -15.111301 0.000000 7.567123 -17.381307 0.000000 
2.530672 -18.317884 0.000000 11.879261 -15.876967 0.000000 9.624509 -13.209147 0.000000 17.528648 -11.504939 0.000000 15.061292 -1.692503 0.000000 18.556460 -2.273416 0.000000 15.643976 -5.893694 0.000000 19.884299 -0.055103 0.000000 15.916024 -2.892363 0.000000 19.662299 2.154242 0.000000 15.764984 -0.654436 0.000000 18.284986 3.778967 0.000000 15.306217 1.271041 0.000000 15.886683 5.129184 0.000000 14.587971 3.424220 0.000000 12.290865 6.442527 0.000000 13.856027 6.242694 0.000000 6.946918 8.069953 0.000000 12.849216 10.423817 0.000000 -0.477084 11.937999 0.000000 13.649036 16.722935 0.000000 -10.046262 20.216753 0.000000 18.689973 30.861187 0.000000 -16.539966 37.281729 0.000000 36.724489 50.367370 0.000000 -33.141884 29.308215 0.000000 58.775886 -56.325507 0.000000 -127.952150 -73.303697 0.000000 13.108885 -60.803945 0.000000 -19.772780 -8.150191 0.000000 16.332876 3.027719 0.000000 5.026478 -5.174308 0.000000 27.005196 -1.199486 0.000000 16.356755 -0.931065 0.000000 29.262415 1.258113 0.000000 19.896946 3.869997 0.000000 28.218812 4.614479 0.000000 19.980703 7.076127 0.000000 25.508651 7.040683 0.000000 17.478525 8.857872 0.000000 21.349424 8.943701 0.000000 13.976974 9.153411 0.000000 16.035750 9.035812 0.000000 9.387455 8.227003 0.000000 10.583090 8.359321 0.000000 4.084259 7.260498 0.000000 4.003673 8.196890 0.000000 -2.138787 7.422863 0.000000 -3.299089 9.338198 0.000000 -8.660320 8.246097 0.000000 -10.524101 10.558402 0.000000 -15.540796 8.201523 0.000000 -18.192489 10.444952 0.000000 -22.574184 6.468096 0.000000 -25.590095 8.229345 0.000000 -28.478845 2.392278 0.000000 -32.007320 2.604309 0.000000 -31.101850 -6.508305 0.000000 -32.953636 -7.742036 0.000000 -25.184878 -18.269802 0.000000 -22.432909 -18.149805 0.000000 -9.585627 -22.937452 0.000000 -8.240221 -20.244871 0.000000 4.526142 -20.849158 0.000000 
8.174068 -24.402703 0.000000 17.119305 -20.906857 0.000000 13.785405 -17.735754 0.000000 21.461408 -14.690555 0.000000 16.652321 -2.604714 0.000000 22.201270 -4.158634 0.000000 17.352695 -7.466140 0.000000 22.659659 -1.201878 0.000000 17.656800 -3.385218 0.000000 22.043138 1.658056 0.000000 17.726511 -0.325965 0.000000 20.790644 3.928973 0.000000 17.661030 2.370159 0.000000 18.930598 5.853400 0.000000 17.600327 5.305247 0.000000 16.308824 7.640079 0.000000 17.836591 9.205948 0.000000 12.394556 9.498254 0.000000 18.966205 14.708162 0.000000 6.709228 12.413369 0.000000 23.462807 21.715584 0.000000 -0.204289 18.770481 0.000000 35.198262 28.316766 0.000000 -3.189672 29.402336 0.000000 46.255575 56.485838 0.000000 16.123152 24.992685 0.000000 10.149749 -20.879055 0.000000 -85.473526 -81.420112 0.000000 -17.707364 -115.985048 0.000000 -38.230958 -21.955340 0.000000 12.586302 -26.117938 0.000000 3.616672 -20.822177 0.000000 27.480641 -15.550695 0.000000 15.807713 -8.810543 0.000000 28.096503 -6.895838 0.000000 17.534594 -1.017517 0.000000 24.742164 -0.716524 0.000000 15.422510 3.971667 0.000000 19.994602 4.150799 0.000000 10.984363 7.667545 0.000000 13.622562 8.472865 0.000000 5.445897 10.481866 0.000000 6.954142 11.525045 0.000000 0.591832 12.556759 0.000000 2.422853 14.038099 0.000000 -2.693129 14.545109 0.000000 -1.294769 16.255944 0.000000 -5.785075 16.410590 0.000000 -5.705372 17.987025 0.000000 -9.986645 17.099717 0.000000 -11.307278 19.114631 0.000000 -15.890841 16.592915 0.000000 -18.416185 18.389599 0.000000 -22.870343 14.027915 0.000000 -25.943991 15.040094 0.000000 -29.569343 9.153933 0.000000 -33.862045 7.179658 0.000000 -33.864912 -3.762232 0.000000 -35.597142 -9.397655 0.000000 -27.075345 -24.110079 0.000000 -20.416335 -27.589047 0.000000 -5.974349 -32.034175 0.000000 -2.715211 -29.223071 0.000000 9.394280 -28.152199 0.000000 
9.782026 -26.042909 0.000000 18.813396 -21.488303 0.000000 16.106198 -17.551250 0.000000 23.286370 -14.371855 0.000000 18.799491 -2.432364 0.000000 24.171784 -2.973790 0.000000 18.987396 -6.352082 0.000000 24.084739 -0.359208 0.000000 18.529043 -2.275842 0.000000 22.757188 2.084531 0.000000 17.874727 0.598058 0.000000 20.952668 3.844448 0.000000 17.164527 3.131087 0.000000 18.866859 5.189886 0.000000 16.418288 6.045995 0.000000 16.429746 6.206264 0.000000 15.910498 10.156963 0.000000 13.023618 6.940338 0.000000 16.312095 16.109144 0.000000 7.498144 7.441397 0.000000 18.134866 23.636453 0.000000 -2.332763 8.481298 0.000000 32.537975 33.846569 0.000000 -6.163873 26.224416 0.000000 61.420158 31.054546 0.000000 51.170265 65.414041 0.000000 30.780113 45.271170 0.000000 2.349090 -45.446585 0.000000 -29.818053 -108.046513 0.000000 -33.264091 -38.443857 0.000000 24.688699 -38.819911 0.000000 15.473301 -20.068647 0.000000 38.862776 -13.390527 0.000000 25.812897 -1.546927 0.000000 37.373005 -0.468768 0.000000 26.718125 7.224336 0.000000 33.448732 6.726564 0.000000 25.389954 11.823688 0.000000 29.504257 11.478830 0.000000 22.487974 15.229913 0.000000 24.596833 14.482167 0.000000 17.637704 15.821831 0.000000 18.401999 13.889876 0.000000 12.209236 12.758292 0.000000 12.734689 11.644282 0.000000 6.350491 10.978120 0.000000 5.896703 11.288836 0.000000 -0.440987 11.833466 0.000000 -2.638569 13.539768 0.000000 -7.598397 13.848004 0.000000 -11.039415 16.462598 0.000000 -16.346721 15.310430 0.000000 -20.750967 17.424454 0.000000 -26.111694 13.995901 0.000000 -30.517430 14.928345 0.000000 -36.723658 10.310333 0.000000 -44.756946 6.899878 0.000000 -48.075762 -4.773208 0.000000 -52.772107 -14.531603 0.000000 -43.300076 -33.450609 0.000000 -30.000280 -39.250802 0.000000 -11.028230 -40.638577 0.000000 -4.172829 -35.613499 0.000000 9.247299 -31.738437 0.000000 
18.304039 -33.968800 0.000000 26.000254 -27.231030 0.000000 21.193141 -22.208728 0.000000 27.702883 -17.383847 0.000000 20.396969 -3.490128 0.000000 28.016019 -4.346539 0.000000 20.413145 -7.379095 0.000000 26.759757 -0.743525 0.000000 19.884210 -2.057667 0.000000 24.991616 2.312373 0.000000 19.328382 1.478555 0.000000 23.300036 4.639172 0.000000 18.828327 4.455968 0.000000 21.817588 6.599640 0.000000 18.356765 7.742361 0.000000 20.545468 8.147868 0.000000 18.057609 12.612076 0.000000 19.430125 9.096657 0.000000 18.560853 20.233636 0.000000 15.901729 10.590598 0.000000 28.090367 31.546491 0.000000 7.569024 4.367372 0.000000 41.112873 32.147876 0.000000 -25.674816 0.520153 0.000000 80.975732 -0.848300 0.000000 91.018367 55.632731 0.000000 88.034078 27.942121 0.000000 61.056265 -20.821946 0.000000 49.003540 -80.371867 0.000000 13.037916 -76.462093 0.000000 45.485203 -74.855331 0.000000 22.614042 -34.996254 0.000000 44.057492 -25.890291 0.000000 27.620254 -7.320772 0.000000 35.804007 -7.801066 0.000000 23.828366 2.906756 0.000000 28.423521 0.611646 0.000000 19.376859 7.916142 0.000000 22.255129 7.052778 0.000000 12.642556 12.574969 0.000000 12.946961 13.323135 0.000000 4.024603 16.676701 0.000000 3.737371 16.953513 0.000000 -1.625482 18.224069 0.000000 0.774346 19.896844 0.000000 -2.934458 21.383096 0.000000 -0.313985 23.047422 0.000000 -3.537330 24.945862 0.000000 -3.670713 25.144435 0.000000 -7.027832 25.500563 0.000000 -9.920966 27.862955 0.000000 -14.993551 26.304467 0.000000 -19.732951 28.154573 0.000000 -25.329899 23.794378 0.000000 -29.298381 25.652058 0.000000 -37.487620 23.393448 0.000000 -48.391241 18.531761 0.000000 -55.514209 4.252929 0.000000 -63.705157 -14.173341 0.000000 -52.460499 -46.881906 0.000000 -27.866816 -59.860894 0.000000 -2.642067 -57.861625 0.000000 6.112748 -49.498600 0.000000 18.861619 -42.107055 0.000000 
24.452453 -33.181544 0.000000 31.066736 -24.377405 0.000000 25.997427 -19.253879 0.000000 31.373402 -13.575683 0.000000 23.339874 -2.745500 0.000000 31.580457 -2.989966 0.000000 22.726401 -5.095819 0.000000 29.223558 0.169727 0.000000 21.389379 -0.507702 0.000000 26.451155 2.640359 0.000000 20.160529 2.289637 0.000000 24.018653 4.344503 0.000000 19.118293 4.613535 0.000000 22.249155 5.661449 0.000000 18.068974 7.318115 0.000000 21.505020 6.505419 0.000000 17.256279 11.272306 0.000000 21.119468 6.437095 0.000000 20.154586 19.637540 0.000000 22.082052 -2.088118 0.000000 17.267553 31.969157 0.000000 15.190905 -4.541208 0.000000 54.225416 67.090410 0.000000 -8.136223 -13.638443 0.000000 43.323400 -85.638637 0.000000 118.785161 58.355695 0.000000 119.729150 75.233273 0.000000 83.318753 -6.416046 0.000000 130.371808 -60.028164 0.000000 127.943506 -34.925520 0.000000 119.087151 -48.396036 0.000000 77.561497 -18.640936 0.000000 71.159484 -18.396740 0.000000 45.952980 6.706558 0.000000 48.323726 3.323120 0.000000 36.375415 14.604821 0.000000 38.954628 11.178071 0.000000 32.308246 17.992081 0.000000 34.749951 18.213133 0.000000 30.706040 24.538081 0.000000 30.665274 23.100120 0.000000 23.382072 25.031421 0.000000 20.859955 19.539962 0.000000 15.935094 15.721317 0.000000 16.403963 12.953259 0.000000 9.410087 12.066450 0.000000 9.290908 11.891708 0.000000 1.391840 15.190194 0.000000 -2.335888 17.030270 0.000000 -5.136829 20.098257 0.000000 -10.251431 24.428316 0.000000 -15.951864 25.122415 0.000000 -23.162345 27.760803 0.000000 -28.828036 23.561330 0.000000 -31.597667 27.086065 0.000000 -44.749164 29.403194 0.000000 -64.135112 24.926467 0.000000 -80.495343 10.540708 0.000000 -98.674417 -17.585313 0.000000 -80.191151 -69.288950 0.000000 -35.430967 -89.069234 0.000000 -0.265301 -74.618141 0.000000 11.633656 -57.117185 0.000000 24.637424 -43.929728 0.000000 
37.712465 -40.398112 0.000000 40.486865 -28.776004 0.000000 32.045506 -22.515394 0.000000 35.562887 -14.726294 0.000000 24.475839 -3.697183 0.000000 34.783198 -3.733066 0.000000 23.614383 -5.022195 0.000000 31.054917 0.593497 0.000000 22.175406 0.714735 0.000000 27.873850 3.541224 0.000000 21.037694 3.911057 0.000000 25.585002 5.681407 0.000000 20.120087 6.225465 0.000000 24.336032 7.648959 0.000000 19.139070 8.486496 0.000000 24.346822 8.960563 0.000000 17.247986 12.997628 0.000000 27.124415 6.198351 0.000000 13.278156 19.271052 0.000000 33.835220 13.477631 0.000000 21.048007 38.437638 0.000000 48.068307 -32.590491 0.000000 15.033994 55.475004 0.000000 83.868710 11.422170 0.000000 6.820011 -127.769684 0.000000 92.037409 -20.773019 0.000000 97.878952 63.408529 0.000000 94.088440 -31.464603 0.000000 128.874153 -124.996621 0.000000 133.076519 -65.177436 0.000000 137.714097 -24.473321 0.000000 110.149369 12.931413 0.000000 78.986540 5.718226 0.000000 53.826113 15.514987 0.000000 41.574373 1.776499 0.000000 31.339488 12.275853 0.000000 30.871579 4.678816 0.000000 26.608379 12.120819 0.000000 26.892416 8.654984 0.000000 13.325056 16.659646 0.000000 8.473286 20.647103 0.000000 -2.268737 26.482020 0.000000 -5.534351 24.400491 0.000000 -7.976396 22.680061 0.000000 -2.996611 26.421850 0.000000 -3.637973 28.496151 0.000000 3.463450 31.065668 0.000000 1.886378 36.572658 0.000000 1.726014 31.673105 0.000000 1.094586 33.416105 0.000000 -5.296196 38.677989 0.000000 -12.059904 39.215381 0.000000 -21.686859 41.030745 0.000000 -25.717914 32.229700 0.000000 -22.375311 41.573186 0.000000 -38.050931 55.930893 0.000000 -64.263952 54.277940 0.000000 -87.790777 38.792235 0.000000 -106.174067 -14.477532 0.000000 -62.292674 -110.125357 0.000000 -1.159637 -139.786745 0.000000 30.881038 -104.926249 0.000000 36.288436 -74.401325 0.000000 42.788675 -54.925851 0.000000 
50.299525 -30.879734 0.000000 49.777571 -18.710445 0.000000 39.600381 -14.329902 0.000000 41.127211 -6.006017 0.000000 28.138619 -1.965812 0.000000 39.817029 -2.128509 0.000000 26.448698 -1.367539 0.000000 34.325523 1.608703 0.000000 24.111025 2.673365 0.000000 29.770102 3.778071 0.000000 22.385926 4.578485 0.000000 26.440747 5.262111 0.000000 21.102408 5.862506 0.000000 24.650276 6.642465 0.000000 19.659706 7.307324 0.000000 25.081300 8.396504 0.000000 17.275063 8.494713 0.000000 27.275859 10.406924 0.000000 16.269067 12.926735 0.000000 6.374028 -9.857969 0.000000 44.366271 17.736070 0.000000 27.791608 1.472805 0.000000 7.166108 31.290007 0.000000 85.168147 -5.424461 0.000000 -23.150105 -93.807336 0.000000 16.887098 -32.703245 0.000000 60.792390 73.182241 0.000000 90.573142 -37.411248 0.000000 140.666915 -99.016243 0.000000 126.572985 -43.765463 0.000000 77.577245 -25.468886 0.000000 64.136923 40.086621 0.000000 53.735885 37.926517 0.000000 42.221119 44.118725 0.000000 38.374051 25.809745 0.000000 35.756722 25.307615 0.000000 36.705924 15.909180 0.000000 33.404678 21.971243 0.000000 35.603554 31.496455 0.000000 38.678305 42.957212 0.000000 41.178011 38.693913 0.000000 31.501227 39.039057 0.000000 19.422182 25.247620 0.000000 20.762751 13.183578 0.000000 25.841289 8.614836 0.000000 14.214918 5.606389 0.000000 15.468745 6.367357 0.000000 0.197306 16.927630 0.000000 -6.780721 17.822062 0.000000 0.059340 27.120467 0.000000 -4.407825 37.582807 0.000000 -12.406084 41.513078 0.000000 -29.391006 41.418813 0.000000 -28.091266 24.249782 0.000000 -8.474415 39.419082 0.000000 -30.921085 71.291834 0.000000 -64.976764 74.666313 0.000000 -79.414341 52.450823 0.000000 -68.011743 -43.083416 0.000000 -8.568532 -174.303381 0.000000 35.369518 -182.242946 0.000000 55.969269 -112.066214 0.000000 57.187006 -69.024821 0.000000 58.347497 -45.353757 0.000000 
64.129188 -31.828186 0.000000 57.748821 -18.076861 0.000000 43.912380 -13.865033 0.000000 42.981643 -3.264531 0.000000 27.992020 -2.387002 0.000000 40.614993 -2.043145 0.000000 26.286105 0.469311 0.000000 34.375892 2.931170 0.000000 24.114048 5.270157 0.000000 29.795683 5.266322 0.000000 22.771252 7.240412 0.000000 26.614460 6.964926 0.000000 21.952974 8.015936 0.000000 25.061317 9.091661 0.000000 20.902730 8.055472 0.000000 27.540049 11.345206 0.000000 14.307794 10.803070 0.000000 31.930522 7.204347 0.000000 39.066093 40.172882 0.000000 30.170580 -14.619573 0.000000 -22.979884 17.020057 0.000000 -13.244710 4.609672 0.000000 -26.837350 -1.901535 0.000000 40.972829 41.738382 0.000000 -17.055092 -59.488635 0.000000 -42.756624 -104.715514 0.000000 5.372316 -10.277514 0.000000 71.926793 -111.339128 0.000000 31.354783 -160.996464 0.000000 77.113077 -2.087767 0.000000 27.833737 37.962741 0.000000 29.444148 36.772773 0.000000 1.168152 27.634030 0.000000 11.040636 30.876821 0.000000 19.926212 8.240896 0.000000 28.385268 13.943980 0.000000 33.297258 7.030860 0.000000 47.606503 13.223189 0.000000 54.061740 3.381357 0.000000 34.496547 11.085189 0.000000 28.679372 27.824181 0.000000 5.068707 48.237848 0.000000 -27.058050 35.138968 0.000000 -23.097707 16.260955 0.000000 -13.873267 32.969683 0.000000 -8.555610 38.868695 0.000000 16.925295 45.083280 0.000000 13.651909 58.822124 0.000000 14.221247 31.811071 0.000000 25.575722 31.043209 0.000000 10.293041 51.143413 0.000000 -8.282199 64.198562 0.000000 -36.168375 56.715927 0.000000 -23.208688 11.313110 0.000000 16.429792 44.403005 0.000000 6.957212 112.433241 0.000000 6.722386 102.771196 0.000000 37.249904 41.827214 0.000000 103.631407 -85.323341 0.000000 130.492914 -213.506618 0.000000 103.633274 -204.324546 0.000000 98.282139 -126.743736 0.000000 88.663193 -76.779553 0.000000 79.923752 -48.038370 0.000000 
78.542533 -8.704804 0.000000 69.182305 1.506362 0.000000 52.728018 0.437276 0.000000 49.564344 9.914344 0.000000 31.955387 0.400839 0.000000 46.281137 -0.422595 0.000000 29.218746 4.871562 0.000000 37.920357 3.780760 0.000000 26.090344 7.253575 0.000000 31.878766 5.120867 0.000000 24.234401 7.759709 0.000000 27.417309 6.080389 0.000000 23.253565 7.415649 0.000000 24.632755 7.692709 0.000000 23.928040 4.828592 0.000000 22.089665 14.991441 0.000000 25.012285 4.104240 0.000000 55.055598 -14.351375 0.000000 -18.843270 14.686677 0.000000 11.829485 52.188008 0.000000 -3.504770 61.151360 0.000000 88.362145 5.330272 0.000000 -38.094117 -22.927532 0.000000 52.558838 -15.206719 0.000000 23.564576 -10.077883 0.000000 -11.611631 -55.130653 0.000000 -17.630100 -41.501176 0.000000 70.933400 -63.393714 0.000000 -62.531653 -104.202527 0.000000 -31.845578 -40.244418 0.000000 -17.115656 22.200042 0.000000 41.664458 66.752206 0.000000 42.774885 56.330029 0.000000 53.134155 25.360665 0.000000 39.177183 8.465113 0.000000 39.423511 11.936569 0.000000 33.820301 -3.312055 0.000000 40.183983 1.206762 0.000000 51.700132 44.606411 0.000000 52.177577 68.339580 0.000000 10.152905 68.121753 0.000000 -33.515073 94.776478 0.000000 -38.641509 53.414035 0.000000 16.229635 -0.001205 0.000000 43.238618 -5.927261 0.000000 24.831001 -25.192173 0.000000 22.447553 -15.840163 0.000000 -6.721446 19.631678 0.000000 4.547361 5.898249 0.000000 24.439762 31.048672 0.000000 29.513547 71.440728 0.000000 20.360512 87.974494 0.000000 9.242723 56.345301 0.000000 42.700651 -28.348384 0.000000 137.453922 9.253182 0.000000 155.150894 80.999240 0.000000 133.077642 44.373621 0.000000 188.356642 -44.458198 0.000000 285.908036 -136.326425 0.000000 300.696358 -174.305248 0.000000 208.076194 -150.032172 0.000000 135.105218 -97.096133 0.000000 107.656582 -50.666434 0.000000 96.439024 -20.819751 0.000000 
84.758688 -4.571466 0.000000 67.561403 7.737654 0.000000 49.591644 5.752927 0.000000 45.823654 17.508099 0.000000 29.625719 0.896206 0.000000 42.508524 0.693496 0.000000 27.446859 8.830091 0.000000 35.446987 6.059572 0.000000 25.020489 11.311748 0.000000 30.457666 7.122264 0.000000 23.865851 11.701869 0.000000 26.467253 7.945762 0.000000 23.914827 10.800490 0.000000 23.272376 8.417186 0.000000 24.344602 10.598563 0.000000 22.756293 10.260961 0.000000 31.784665 -22.162864 0.000000 20.263208 51.059902 0.000000 33.009261 83.398996 0.000000 73.549540 -29.958074 0.000000 34.047650 -59.512603 0.000000 87.834935 39.199019 0.000000 66.563393 33.901773 0.000000 35.279858 -19.920311 0.000000 3.144701 4.681834 0.000000 52.265538 -63.520838 0.000000 25.282103 -92.822546 0.000000 94.396765 -66.437575 0.000000 13.179398 -58.217486 0.000000 25.869530 -47.503764 0.000000 -12.266748 -35.547295 0.000000 9.012859 -23.117768 0.000000 -1.422916 16.164333 0.000000 4.727049 34.474522 0.000000 2.575368 21.951540 0.000000 -6.537533 19.300863 0.000000 0.897907 6.270388 0.000000 37.475797 -4.656642 0.000000 32.055798 -8.612237 0.000000 5.760097 52.632416 0.000000 17.316650 113.516831 0.000000 13.805679 97.032262 0.000000 34.105713 -14.605741 0.000000 78.185251 -65.619172 0.000000 146.378438 24.368318 0.000000 168.422231 59.659760 0.000000 219.407430 76.635727 0.000000 234.520964 76.722316 0.000000 275.564380 0.649863 0.000000 283.955630 6.077023 0.000000 406.427589 55.222663 0.000000 428.291190 84.469387 0.000000 336.980112 34.375788 0.000000 321.002907 -116.898089 0.000000 381.744797 -68.047238 0.000000 417.036523 116.809521 0.000000 415.798625 69.565448 0.000000 486.450434 -111.003181 0.000000 505.228559 -197.663058 0.000000 424.802948 -135.674775 0.000000 345.486177 -38.733406 0.000000 267.086577 -26.324125 0.000000 182.555601 -38.113359 0.000000 123.216300 -18.924320 0.000000 