# vtk DataFile Version 2.0
Comment goes here
ASCII

DATASET STRUCTURED_POINTS
FIELD FieldData 1
TIME 1 1 double
0.01600000
DIMENSIONS    64   64   1

ORIGIN    0.000   0.000   0.000
SPACING   0.03125 0.03125   1.000

POINT_DATA   4096
VECTORS u double

0.061745 -0.012992 0.000000 -0.582605 0.002827 0.000000 0.396777 -0.001178 0.000000 -0.680054 0.001167 0.000000 0.424827 -0.002218 0.000000 -0.636368 -0.000075 0.000000 0.330330 0.000155 0.000000 -0.510006 -0.000367 0.000000 0.193323 0.000183 0.000000 -0.349351 -0.000473 0.000000 0.042500 0.000201 0.000000 -0.185998 -0.000674 0.000000 -0.097270 0.000329 0.000000 -0.046710 -0.000831 0.000000 -0.203795 0.000510 0.000000 0.054380 -0.000973 0.000000 -0.271369 0.000870 0.000000 0.112418 -0.001144 0.000000 -0.298207 0.001113 0.000000 0.128667 -0.001563 0.000000 -0.286864 0.001699 0.000000 0.110884 -0.002161 0.000000 -0.249321 0.002729 0.000000 0.073990 -0.002780 0.000000 -0.205086 0.002188 0.000000 0.041316 -0.001924 0.000000 -0.172058 0.001871 0.000000 0.019439 -0.001917 0.000000 -0.148839 0.002169 0.000000 0.009595 -0.001973 0.000000 -0.143310 0.001553 0.000000 0.017036 -0.001306 0.000000 -0.145948 0.001191 0.000000 0.016702 -0.000924 0.000000 -0.131701 0.000818 0.000000 0.001345 -0.000774 0.000000 -0.113502 0.001107 0.000000 -0.006867 -0.000820 0.000000 -0.114389 0.000629 0.000000 0.010553 -0.000128 0.000000 -0.133238 -0.000227 0.000000 0.025092 0.000707 0.000000 -0.129509 -0.001010 0.000000 0.007207 0.001742 0.000000 -0.095609 -0.001680 0.000000 -0.038342 0.002036 0.000000 -0.040712 -0.001763 0.000000 -0.095382 0.002143 0.000000 0.009741 -0.001833 0.000000 -0.131589 0.002191 0.000000 0.022081 -0.001589 0.000000 -0.118303 0.001720 0.000000 -0.022812 -0.000821 0.000000 -0.051494 0.000826 0.000000 -0.115774 -0.000049 0.000000 0.048279 0.000093 0.000000 -0.223703 0.000497 0.000000 0.137161 -0.000517 0.000000 -0.291392 0.001062 0.000000 0.149082 -0.001212 0.000000 -0.259048 0.001356 0.000000 0.053040 -0.001138 0.000000 -0.127008 -0.000036 0.000000 -0.120877 0.005613 0.000000 
-0.045546 0.221487 0.000000 0.343208 -0.165925 0.000000 -0.416737 0.048060 0.000000 0.424805 -0.014168 0.000000 -0.438953 -0.020241 0.000000 0.391963 0.047076 0.000000 -0.372026 -0.062728 0.000000 0.308388 0.067678 0.000000 -0.292242 -0.079104 0.000000 0.206861 0.073978 0.000000 -0.207489 -0.079918 0.000000 0.103312 0.068183 0.000000 -0.128158 -0.067793 0.000000 0.012216 0.051628 0.000000 -0.066154 -0.048787 0.000000 -0.057679 0.032248 0.000000 -0.023295 -0.027433 0.000000 -0.104028 0.012054 0.000000 -0.000894 -0.006835 0.000000 -0.127623 -0.006847 0.000000 0.001742 0.010012 0.000000 -0.132680 -0.019919 0.000000 -0.008613 0.019446 0.000000 -0.125939 -0.023034 0.000000 -0.021981 0.017495 0.000000 -0.124906 -0.017857 0.000000 -0.024117 0.012346 0.000000 -0.130053 -0.013047 0.000000 -0.023933 0.006168 0.000000 -0.137174 -0.004017 0.000000 -0.015394 -0.002502 0.000000 -0.156184 0.000058 0.000000 0.000450 0.001329 0.000000 -0.169410 -0.008250 0.000000 0.003959 0.008592 0.000000 -0.171283 -0.009779 0.000000 0.002873 0.004774 0.000000 -0.175307 -0.000195 0.000000 0.013345 -0.008519 0.000000 -0.195370 0.009557 0.000000 0.035057 -0.007926 0.000000 -0.211551 -0.000817 0.000000 0.040001 0.007215 0.000000 -0.205931 -0.014941 0.000000 0.026894 0.020198 0.000000 -0.182560 -0.024658 0.000000 -0.001413 0.025290 0.000000 -0.147142 -0.022042 0.000000 -0.032955 0.014682 0.000000 -0.117944 -0.003019 0.000000 -0.046682 -0.009848 0.000000 -0.112207 0.025285 0.000000 -0.031445 -0.036223 0.000000 -0.132424 0.048683 0.000000 0.008610 -0.051726 0.000000 -0.170973 0.054926 0.000000 0.061277 -0.044834 0.000000 -0.209422 0.033476 0.000000 0.099111 -0.005174 0.000000 -0.210310 -0.017405 0.000000 0.085709 0.049442 0.000000 -0.154216 -0.067437 0.000000 0.023703 0.088371 0.000000 -0.066368 -0.095738 0.000000 
0.502750 -0.422568 0.000000 0.392430 0.374019 0.000000 0.106695 -0.082776 0.000000 0.466154 0.023382 0.000000 0.108551 0.030625 0.000000 0.429781 -0.067001 0.000000 0.176036 0.083730 0.000000 0.331844 -0.080151 0.000000 0.311408 0.101711 0.000000 0.216327 -0.085226 0.000000 0.458706 0.103749 0.000000 0.103001 -0.080004 0.000000 0.594126 0.091425 0.000000 0.008405 -0.062834 0.000000 0.701186 0.070405 0.000000 -0.059350 -0.043832 0.000000 0.777399 0.047219 0.000000 -0.098918 -0.023545 0.000000 0.822108 0.024708 0.000000 -0.111950 -0.004199 0.000000 0.837443 0.006756 0.000000 -0.103984 0.008195 0.000000 0.832328 -0.004012 0.000000 -0.084520 0.010588 0.000000 0.821191 0.001155 0.000000 -0.071318 0.000212 0.000000 0.818112 0.007018 0.000000 -0.066213 -0.002101 0.000000 0.817941 0.009290 0.000000 -0.067616 -0.010513 0.000000 0.828457 0.020564 0.000000 -0.083108 -0.017150 0.000000 0.844354 0.014416 0.000000 -0.091293 -0.004433 0.000000 0.843469 0.002692 0.000000 -0.085950 0.000312 0.000000 0.836709 0.005131 0.000000 -0.085524 -0.011292 0.000000 0.843413 0.020693 0.000000 -0.106444 -0.021840 0.000000 0.863810 0.015954 0.000000 -0.124674 -0.004236 0.000000 0.863627 -0.006630 0.000000 -0.117427 0.014849 0.000000 0.838756 -0.025050 0.000000 -0.088946 0.030343 0.000000 0.794260 -0.037181 0.000000 -0.048789 0.033685 0.000000 0.746312 -0.031032 0.000000 -0.020119 0.015918 0.000000 0.719860 -0.007325 0.000000 -0.024582 -0.013517 0.000000 0.729316 0.019396 0.000000 -0.065910 -0.039229 0.000000 0.769065 0.038500 0.000000 -0.131844 -0.052574 0.000000 0.818837 0.038946 0.000000 -0.194549 -0.038351 0.000000 0.840774 0.001950 0.000000 -0.205444 0.012190 0.000000 0.789196 -0.054738 0.000000 -0.140237 0.060868 0.000000 0.666856 -0.087884 0.000000 -0.021314 0.074862 0.000000 
0.554193 -0.192256 0.000000 -0.170232 0.230130 0.000000 0.544865 -0.025665 0.000000 -0.182295 -0.016025 0.000000 0.145981 0.016132 0.000000 -0.151705 -0.020409 0.000000 0.480947 0.035209 0.000000 -0.102765 -0.067694 0.000000 0.685621 0.036413 0.000000 -0.057576 -0.073320 0.000000 0.821065 0.033408 0.000000 -0.017595 -0.067237 0.000000 0.916923 0.026803 0.000000 0.013786 -0.055431 0.000000 0.992229 0.018968 0.000000 0.034824 -0.043966 0.000000 1.053685 0.012135 0.000000 0.046269 -0.032654 0.000000 1.106541 0.006196 0.000000 0.048904 -0.022182 0.000000 1.154604 0.002046 0.000000 0.044790 -0.014804 0.000000 1.197490 -0.000017 0.000000 0.036434 -0.011897 0.000000 1.232616 0.004293 0.000000 0.033282 -0.014778 0.000000 1.253940 0.007242 0.000000 0.033823 -0.012875 0.000000 1.270433 0.007571 0.000000 0.034454 -0.014534 0.000000 1.277919 0.012990 0.000000 0.043099 -0.015840 0.000000 1.277116 0.009513 0.000000 0.047319 -0.007364 0.000000 1.282618 0.003250 0.000000 0.043367 -0.003019 0.000000 1.288432 0.004348 0.000000 0.041466 -0.006899 0.000000 1.282584 0.012400 0.000000 0.052062 -0.010840 0.000000 1.264437 0.010305 0.000000 0.061417 -0.000634 0.000000 1.253049 -0.000033 0.000000 0.058245 0.009930 0.000000 1.247165 -0.008283 0.000000 0.046050 0.019838 0.000000 1.244998 -0.014867 0.000000 0.026665 0.025905 0.000000 1.240479 -0.013987 0.000000 0.009711 0.023434 0.000000 1.220869 -0.005385 0.000000 0.005164 0.015829 0.000000 1.178755 0.005104 0.000000 0.015029 0.008934 0.000000 1.114294 0.014208 0.000000 0.037516 0.005153 0.000000 1.028811 0.017871 0.000000 0.066331 0.011540 0.000000 0.931054 0.005721 0.000000 0.081739 0.034173 0.000000 0.835660 -0.015765 0.000000 0.076658 0.054903 0.000000 0.727649 -0.030553 0.000000 0.081987 0.068368 0.000000 
0.724100 -0.170349 0.000000 -0.085245 0.383347 0.000000 0.645607 -0.070713 0.000000 -0.083089 0.422266 0.000000 0.267243 0.000034 0.000000 -0.067392 -0.401967 0.000000 0.605547 0.034790 0.000000 -0.041809 -0.284825 0.000000 0.795330 0.056522 0.000000 -0.021176 -0.220671 0.000000 0.921990 0.063768 0.000000 -0.004226 -0.175862 0.000000 1.014462 0.060044 0.000000 0.008767 -0.138140 0.000000 1.086803 0.049368 0.000000 0.017787 -0.105288 0.000000 1.144248 0.035774 0.000000 0.023499 -0.076401 0.000000 1.190667 0.022073 0.000000 0.026214 -0.052261 0.000000 1.229351 0.010870 0.000000 0.026816 -0.034692 0.000000 1.261485 0.004344 0.000000 0.025806 -0.024538 0.000000 1.286700 0.004306 0.000000 0.027278 -0.021112 0.000000 1.302957 0.006478 0.000000 0.029933 -0.018594 0.000000 1.315782 0.008658 0.000000 0.031680 -0.017999 0.000000 1.322909 0.011919 0.000000 0.036978 -0.016347 0.000000 1.324590 0.010196 0.000000 0.039692 -0.009934 0.000000 1.328604 0.006643 0.000000 0.037935 -0.005502 0.000000 1.331888 0.007031 0.000000 0.036781 -0.005445 0.000000 1.328354 0.010097 0.000000 0.041890 -0.003692 0.000000 1.317311 0.006599 0.000000 0.046300 0.007152 0.000000 1.308154 -0.003457 0.000000 0.044645 0.020733 0.000000 1.299285 -0.012856 0.000000 0.038895 0.032509 0.000000 1.290085 -0.017796 0.000000 0.029121 0.038205 0.000000 1.278310 -0.014078 0.000000 0.018996 0.035528 0.000000 1.258075 -0.002778 0.000000 0.012903 0.028597 0.000000 1.225929 0.009531 0.000000 0.012240 0.025231 0.000000 1.181211 0.016013 0.000000 0.017547 0.032910 0.000000 1.122310 0.010132 0.000000 0.027868 0.059406 0.000000 1.050411 -0.013458 0.000000 0.034920 0.107584 0.000000 0.969952 -0.049657 0.000000 0.035473 0.168879 0.000000 0.869175 -0.093213 0.000000 0.040250 0.248318 0.000000 
0.694603 -0.066761 0.000000 -0.085947 0.308623 0.000000 0.597324 -0.027821 0.000000 -0.109541 0.362339 0.000000 0.402963 0.000435 0.000000 -0.110355 -0.358713 0.000000 0.596601 0.009625 0.000000 -0.080823 -0.257477 0.000000 0.752073 0.015780 0.000000 -0.050140 -0.199980 0.000000 0.868855 0.016458 0.000000 -0.021185 -0.159708 0.000000 0.957585 0.013810 0.000000 0.003387 -0.127773 0.000000 1.027962 0.009948 0.000000 0.021747 -0.101411 0.000000 1.085495 0.006423 0.000000 0.033271 -0.079073 0.000000 1.133724 0.003481 0.000000 0.038477 -0.060866 0.000000 1.175384 0.001445 0.000000 0.039015 -0.046938 0.000000 1.211045 0.000992 0.000000 0.037038 -0.037113 0.000000 1.239650 0.002821 0.000000 0.035937 -0.031035 0.000000 1.260144 0.004586 0.000000 0.036555 -0.025700 0.000000 1.274785 0.005824 0.000000 0.038312 -0.021662 0.000000 1.283342 0.007693 0.000000 0.041988 -0.017521 0.000000 1.287244 0.006799 0.000000 0.044487 -0.011378 0.000000 1.290701 0.005007 0.000000 0.044682 -0.006303 0.000000 1.292189 0.005502 0.000000 0.045331 -0.003365 0.000000 1.288026 0.007291 0.000000 0.049223 0.000203 0.000000 1.278853 0.005894 0.000000 0.052196 0.008522 0.000000 1.270097 0.001622 0.000000 0.049668 0.018800 0.000000 1.262161 -0.002532 0.000000 0.042138 0.029037 0.000000 1.253746 -0.005092 0.000000 0.031531 0.037680 0.000000 1.240835 -0.003863 0.000000 0.022068 0.043669 0.000000 1.217141 0.000707 0.000000 0.018251 0.047974 0.000000 1.178839 0.005768 0.000000 0.021870 0.053653 0.000000 1.125375 0.008902 0.000000 0.031622 0.064054 0.000000 1.058082 0.007550 0.000000 0.042694 0.083439 0.000000 0.980877 -0.001331 0.000000 0.046288 0.114631 0.000000 0.897712 -0.016317 0.000000 0.036086 0.155680 0.000000 0.803816 -0.035330 0.000000 0.006011 0.213443 0.000000 
0.821643 -0.078392 0.000000 -0.036800 0.480626 0.000000 0.707105 -0.047118 0.000000 -0.048663 0.616627 0.000000 0.513996 0.000849 0.000000 -0.049186 -0.595605 0.000000 0.703085 0.005258 0.000000 -0.034183 -0.440297 0.000000 0.850377 0.025839 0.000000 -0.019775 -0.337453 0.000000 0.960868 0.034813 0.000000 -0.006437 -0.264592 0.000000 1.045620 0.035471 0.000000 0.005212 -0.208518 0.000000 1.112724 0.031008 0.000000 0.014496 -0.162821 0.000000 1.166336 0.024250 0.000000 0.020764 -0.124631 0.000000 1.208740 0.016867 0.000000 0.024351 -0.093921 0.000000 1.243210 0.010332 0.000000 0.026500 -0.070352 0.000000 1.271296 0.006321 0.000000 0.027757 -0.053143 0.000000 1.292732 0.005407 0.000000 0.029075 -0.041607 0.000000 1.308247 0.005859 0.000000 0.031194 -0.033236 0.000000 1.319822 0.006902 0.000000 0.033583 -0.026555 0.000000 1.327010 0.008243 0.000000 0.036078 -0.020249 0.000000 1.330725 0.007697 0.000000 0.037894 -0.013392 0.000000 1.333704 0.006449 0.000000 0.038487 -0.006990 0.000000 1.334886 0.006382 0.000000 0.038595 -0.001282 0.000000 1.331909 0.006205 0.000000 0.040417 0.005481 0.000000 1.325614 0.003626 0.000000 0.041982 0.015908 0.000000 1.318426 -0.000929 0.000000 0.040401 0.028669 0.000000 1.309485 -0.005326 0.000000 0.036271 0.040924 0.000000 1.298792 -0.007189 0.000000 0.030355 0.051115 0.000000 1.284436 -0.004615 0.000000 0.023628 0.059222 0.000000 1.262512 0.001039 0.000000 0.017986 0.066899 0.000000 1.231706 0.005912 0.000000 0.015264 0.078696 0.000000 1.191708 0.006261 0.000000 0.015958 0.100203 0.000000 1.141892 -0.000940 0.000000 0.018679 0.136611 0.000000 1.082101 -0.017052 0.000000 0.019539 0.190749 0.000000 1.011924 -0.039455 0.000000 0.015092 0.262776 0.000000 0.926441 -0.063138 0.000000 0.001653 0.357530 0.000000 
0.822200 -0.028308 0.000000 -0.050721 0.423160 0.000000 0.741030 -0.015958 0.000000 -0.071687 0.555449 0.000000 0.638347 0.000958 0.000000 -0.072024 -0.547802 0.000000 0.747860 -0.005377 0.000000 -0.059305 -0.404769 0.000000 0.851801 0.001371 0.000000 -0.040517 -0.310471 0.000000 0.939907 0.003120 0.000000 -0.020065 -0.244460 0.000000 1.012614 0.002162 0.000000 -0.000716 -0.194876 0.000000 1.073068 0.000663 0.000000 0.015310 -0.155024 0.000000 1.123366 0.000155 0.000000 0.026203 -0.121477 0.000000 1.164297 -0.000106 0.000000 0.032216 -0.095336 0.000000 1.198924 -0.000704 0.000000 0.035228 -0.075023 0.000000 1.228262 -0.000264 0.000000 0.036312 -0.058549 0.000000 1.251158 0.001503 0.000000 0.036487 -0.046550 0.000000 1.268480 0.002468 0.000000 0.037645 -0.037275 0.000000 1.281445 0.003434 0.000000 0.039693 -0.028850 0.000000 1.289590 0.005198 0.000000 0.041456 -0.021235 0.000000 1.294076 0.004983 0.000000 0.043240 -0.014357 0.000000 1.297116 0.004413 0.000000 0.044639 -0.007484 0.000000 1.297904 0.005393 0.000000 0.045157 -0.000388 0.000000 1.294762 0.005470 0.000000 0.046574 0.006498 0.000000 1.289248 0.004329 0.000000 0.047556 0.015710 0.000000 1.282822 0.003203 0.000000 0.045190 0.027740 0.000000 1.274404 0.001598 0.000000 0.040221 0.039731 0.000000 1.264027 0.000824 0.000000 0.034094 0.052037 0.000000 1.249093 0.002864 0.000000 0.027751 0.065593 0.000000 1.224938 0.006349 0.000000 0.023081 0.078780 0.000000 1.190681 0.008489 0.000000 0.022004 0.093650 0.000000 1.146859 0.008208 0.000000 0.024026 0.113870 0.000000 1.094490 0.004829 0.000000 0.026067 0.143230 0.000000 1.035254 -0.002191 0.000000 0.023307 0.184808 0.000000 0.970503 -0.011870 0.000000 0.011405 0.241163 0.000000 0.899392 -0.021891 0.000000 -0.013106 0.318241 0.000000 
0.928325 -0.040776 0.000000 -0.023086 0.561797 0.000000 0.842851 -0.026152 0.000000 -0.032794 0.719309 0.000000 0.739663 0.001186 0.000000 -0.033087 -0.705117 0.000000 0.844812 -0.007462 0.000000 -0.026337 -0.544238 0.000000 0.942792 0.007051 0.000000 -0.017110 -0.425560 0.000000 1.025617 0.014361 0.000000 -0.006728 -0.337299 0.000000 1.094425 0.016122 0.000000 0.004186 -0.268972 0.000000 1.152098 0.014981 0.000000 0.014347 -0.213119 0.000000 1.199540 0.013357 0.000000 0.020858 -0.165562 0.000000 1.234654 0.010854 0.000000 0.024004 -0.128548 0.000000 1.263405 0.007320 0.000000 0.027102 -0.099691 0.000000 1.287697 0.005238 0.000000 0.029707 -0.076039 0.000000 1.304630 0.005231 0.000000 0.030143 -0.058929 0.000000 1.317474 0.004701 0.000000 0.032193 -0.046201 0.000000 1.328244 0.004854 0.000000 0.035408 -0.034700 0.000000 1.334553 0.006479 0.000000 0.035910 -0.024734 0.000000 1.337585 0.005914 0.000000 0.037314 -0.016432 0.000000 1.340609 0.005049 0.000000 0.039465 -0.007778 0.000000 1.341952 0.005865 0.000000 0.038696 0.001860 0.000000 1.338781 0.004787 0.000000 0.039215 0.010994 0.000000 1.334849 0.002644 0.000000 0.040751 0.022334 0.000000 1.330431 0.001436 0.000000 0.038743 0.037087 0.000000 1.321468 -0.000357 0.000000 0.035406 0.051301 0.000000 1.311174 -0.001062 0.000000 0.032284 0.066050 0.000000 1.298084 0.001729 0.000000 0.027096 0.083377 0.000000 1.275767 0.005708 0.000000 0.020071 0.101156 0.000000 1.246678 0.006989 0.000000 0.014814 0.122518 0.000000 1.212109 0.004239 0.000000 0.012282 0.152572 0.000000 1.171566 -0.002981 0.000000 0.011213 0.195846 0.000000 1.124174 -0.014293 0.000000 0.009131 0.255500 0.000000 1.068883 -0.027553 0.000000 0.003642 0.333888 0.000000 1.003846 -0.038627 0.000000 -0.006998 0.434722 0.000000 
0.951682 -0.012220 0.000000 -0.035901 0.508634 0.000000 0.902034 -0.006250 0.000000 -0.049308 0.658636 0.000000 0.853229 0.001251 0.000000 -0.049589 -0.652951 0.000000 0.907612 -0.012127 0.000000 -0.043893 -0.502748 0.000000 0.968370 -0.007856 0.000000 -0.032455 -0.393296 0.000000 1.026720 -0.007261 0.000000 -0.017724 -0.313269 0.000000 1.080041 -0.008752 0.000000 -0.001410 -0.252549 0.000000 1.128371 -0.009498 0.000000 0.014083 -0.202466 0.000000 1.170504 -0.006357 0.000000 0.024136 -0.156591 0.000000 1.201080 -0.003251 0.000000 0.028986 -0.124087 0.000000 1.227708 -0.003802 0.000000 0.033354 -0.099315 0.000000 1.251875 -0.002870 0.000000 0.036565 -0.075482 0.000000 1.268181 0.001067 0.000000 0.036104 -0.059394 0.000000 1.281192 0.000418 0.000000 0.037843 -0.048046 0.000000 1.292969 0.000219 0.000000 0.041409 -0.035158 0.000000 1.299463 0.004696 0.000000 0.040957 -0.024268 0.000000 1.302366 0.003579 0.000000 0.042360 -0.017381 0.000000 1.305824 0.002263 0.000000 0.045442 -0.008827 0.000000 1.307476 0.006162 0.000000 0.044107 0.002784 0.000000 1.303879 0.004951 0.000000 0.044362 0.010430 0.000000 1.300634 0.002793 0.000000 0.046219 0.020128 0.000000 1.297540 0.005211 0.000000 0.043357 0.036704 0.000000 1.288619 0.004934 0.000000 0.039425 0.050024 0.000000 1.278887 0.003946 0.000000 0.036740 0.065127 0.000000 1.266532 0.008052 0.000000 0.031687 0.087909 0.000000 1.242743 0.013374 0.000000 0.024257 0.107870 0.000000 1.212068 0.013747 0.000000 0.019002 0.128219 0.000000 1.176979 0.010740 0.000000 0.016399 0.154414 0.000000 1.137935 0.005897 0.000000 0.014209 0.190622 0.000000 1.095297 -0.000108 0.000000 0.009332 0.240099 0.000000 1.049628 -0.006381 0.000000 -0.000722 0.306201 0.000000 1.001367 -0.011251 0.000000 -0.016750 0.393762 0.000000 
1.043943 -0.021626 0.000000 -0.017524 0.611445 0.000000 0.993816 -0.012745 0.000000 -0.023628 0.768114 0.000000 0.945212 0.001468 0.000000 -0.023880 -0.759500 0.000000 0.995523 -0.013159 0.000000 -0.021131 -0.604996 0.000000 1.051301 -0.004386 0.000000 -0.015613 -0.483910 0.000000 1.104860 -0.000370 0.000000 -0.007502 -0.390620 0.000000 1.154635 -0.000192 0.000000 0.003937 -0.317302 0.000000 1.201878 -0.000511 0.000000 0.017843 -0.255252 0.000000 1.245018 0.003304 0.000000 0.024580 -0.196138 0.000000 1.266854 0.006004 0.000000 0.023765 -0.155175 0.000000 1.288104 0.002952 0.000000 0.028110 -0.123858 0.000000 1.311499 0.002027 0.000000 0.034004 -0.092345 0.000000 1.320500 0.005693 0.000000 0.029663 -0.071940 0.000000 1.328805 0.002962 0.000000 0.031936 -0.057977 0.000000 1.341257 0.001288 0.000000 0.040027 -0.041195 0.000000 1.345234 0.006931 0.000000 0.034936 -0.027636 0.000000 1.344463 0.004512 0.000000 0.035921 -0.019890 0.000000 1.349336 0.001966 0.000000 0.043290 -0.009431 0.000000 1.353382 0.007200 0.000000 0.037625 0.005457 0.000000 1.346407 0.004533 0.000000 0.036969 0.014240 0.000000 1.344713 0.000786 0.000000 0.042917 0.025428 0.000000 1.346919 0.004298 0.000000 0.038545 0.046007 0.000000 1.334755 0.003575 0.000000 0.034291 0.061033 0.000000 1.326450 0.001623 0.000000 0.036051 0.078406 0.000000 1.320989 0.006782 0.000000 0.032467 0.107165 0.000000 1.295677 0.013139 0.000000 0.020396 0.131831 0.000000 1.267068 0.012243 0.000000 0.011582 0.157606 0.000000 1.238470 0.006842 0.000000 0.007056 0.191616 0.000000 1.208051 -0.000790 0.000000 0.004646 0.238484 0.000000 1.174021 -0.009416 0.000000 0.002035 0.301170 0.000000 1.135387 -0.017499 0.000000 -0.002412 0.382148 0.000000 1.091778 -0.022599 0.000000 -0.009270 0.484407 0.000000 
1.079766 -0.003966 0.000000 -0.027751 0.558761 0.000000 1.059778 -0.000146 0.000000 -0.035951 0.707240 0.000000 1.048427 0.001504 0.000000 -0.036176 -0.703262 0.000000 1.062835 -0.014876 0.000000 -0.034150 -0.558526 0.000000 1.088442 -0.013374 0.000000 -0.027633 -0.446855 0.000000 1.119168 -0.015373 0.000000 -0.016946 -0.363043 0.000000 1.152850 -0.020191 0.000000 -0.001331 -0.299792 0.000000 1.190174 -0.023403 0.000000 0.018278 -0.245606 0.000000 1.229019 -0.013095 0.000000 0.027604 -0.178427 0.000000 1.241726 -0.002436 0.000000 0.026220 -0.145337 0.000000 1.259049 -0.008147 0.000000 0.032460 -0.122710 0.000000 1.283381 -0.008764 0.000000 0.040749 -0.084483 0.000000 1.288310 0.005408 0.000000 0.033552 -0.067699 0.000000 1.295191 -0.001856 0.000000 0.036050 -0.060497 0.000000 1.309979 -0.007872 0.000000 0.047278 -0.039136 0.000000 1.312697 0.009788 0.000000 0.038710 -0.023496 0.000000 1.310119 0.002593 0.000000 0.039694 -0.022254 0.000000 1.316572 -0.005106 0.000000 0.050594 -0.012874 0.000000 1.322056 0.011827 0.000000 0.041631 0.009759 0.000000 1.312631 0.005607 0.000000 0.040510 0.012124 0.000000 1.312088 -0.003154 0.000000 0.049408 0.017923 0.000000 1.317976 0.009583 0.000000 0.042780 0.048867 0.000000 1.303574 0.009188 0.000000 0.037349 0.058329 0.000000 1.296497 0.002187 0.000000 0.041450 0.070589 0.000000 1.295488 0.011635 0.000000 0.038091 0.113221 0.000000 1.267240 0.025446 0.000000 0.023300 0.136479 0.000000 1.237780 0.022560 0.000000 0.013329 0.156817 0.000000 1.211062 0.015266 0.000000 0.008323 0.184832 0.000000 1.184998 0.008307 0.000000 0.004990 0.224652 0.000000 1.158330 0.002503 0.000000 0.000487 0.278733 0.000000 1.131147 -0.001934 0.000000 -0.006789 0.349809 0.000000 1.104383 -0.004393 0.000000 -0.016860 0.441597 0.000000 
1.161049 -0.010735 0.000000 -0.014575 0.631433 0.000000 1.141899 -0.004546 0.000000 -0.018410 0.779465 0.000000 1.131357 0.001693 0.000000 -0.018607 -0.773909 0.000000 1.141917 -0.015185 0.000000 -0.018652 -0.630603 0.000000 1.162842 -0.010903 0.000000 -0.016709 -0.514636 0.000000 1.188419 -0.011058 0.000000 -0.011616 -0.424302 0.000000 1.217804 -0.015807 0.000000 0.001074 -0.354626 0.000000 1.256325 -0.020120 0.000000 0.028074 -0.294097 0.000000 1.311551 -0.006022 0.000000 0.036741 -0.208845 0.000000 1.299400 0.007388 0.000000 0.018342 -0.172498 0.000000 1.310919 -0.003288 0.000000 0.026925 -0.148190 0.000000 1.349991 -0.006262 0.000000 0.049237 -0.097274 0.000000 1.336540 0.012890 0.000000 0.022654 -0.078821 0.000000 1.336080 0.000464 0.000000 0.025307 -0.072765 0.000000 1.363375 -0.009941 0.000000 0.058141 -0.043912 0.000000 1.359982 0.015500 0.000000 0.028194 -0.025059 0.000000 1.345714 0.003528 0.000000 0.027836 -0.026343 0.000000 1.359571 -0.008934 0.000000 0.059895 -0.014914 0.000000 1.375174 0.016164 0.000000 0.032106 0.014881 0.000000 1.348697 0.005653 0.000000 0.028018 0.014783 0.000000 1.351256 -0.008111 0.000000 0.054766 0.019541 0.000000 1.377426 0.010926 0.000000 0.038914 0.060409 0.000000 1.343972 0.009006 0.000000 0.027129 0.068111 0.000000 1.339241 -0.002478 0.000000 0.044303 0.079415 0.000000 1.363963 0.010140 0.000000 0.046898 0.135414 0.000000 1.318450 0.027930 0.000000 0.017559 0.161290 0.000000 1.287318 0.022214 0.000000 0.003990 0.184325 0.000000 1.266605 0.011848 0.000000 -0.000381 0.217680 0.000000 1.248070 0.002544 0.000000 -0.001793 0.265152 0.000000 1.228318 -0.004913 0.000000 -0.003235 0.328352 0.000000 1.206635 -0.010224 0.000000 -0.005908 0.408913 0.000000 1.183635 -0.012528 0.000000 -0.009941 0.509024 0.000000 
1.202292 0.000668 0.000000 -0.022570 0.577912 0.000000 1.207529 0.003689 0.000000 -0.027776 0.717781 0.000000 1.224566 0.001701 0.000000 -0.027935 -0.713822 0.000000 1.207918 -0.014832 0.000000 -0.028772 -0.579452 0.000000 1.204220 -0.015317 0.000000 -0.026903 -0.472432 0.000000 1.209209 -0.020465 0.000000 -0.021119 -0.392428 0.000000 1.222564 -0.032882 0.000000 -0.005590 -0.338313 0.000000 1.251515 -0.050403 0.000000 0.032274 -0.300832 0.000000 1.312825 -0.021761 0.000000 0.043088 -0.166276 0.000000 1.277538 0.015962 0.000000 0.015551 -0.156856 0.000000 1.283919 -0.016730 0.000000 0.028485 -0.161782 0.000000 1.334644 -0.031076 0.000000 0.061528 -0.071032 0.000000 1.305686 0.031992 0.000000 0.021268 -0.067240 0.000000 1.301482 -0.004509 0.000000 0.024630 -0.087792 0.000000 1.340094 -0.040705 0.000000 0.073504 -0.035743 0.000000 1.330080 0.039734 0.000000 0.027250 -0.009227 0.000000 1.308896 0.002951 0.000000 0.026640 -0.036112 0.000000 1.329422 -0.037164 0.000000 0.075390 -0.028476 0.000000 1.350378 0.039616 0.000000 0.032075 0.036236 0.000000 1.312416 0.009695 0.000000 0.026519 0.009565 0.000000 1.318032 -0.029902 0.000000 0.067294 -0.008248 0.000000 1.358090 0.025435 0.000000 0.041970 0.082321 0.000000 1.310822 0.020973 0.000000 0.025769 0.063060 0.000000 1.308520 -0.014987 0.000000 0.052438 0.045866 0.000000 1.352215 0.009040 0.000000 0.056603 0.158734 0.000000 1.292191 0.054785 0.000000 0.017709 0.167612 0.000000 1.260601 0.036129 0.000000 0.002644 0.177530 0.000000 1.244501 0.019637 0.000000 -0.001496 0.203367 0.000000 1.232651 0.009719 0.000000 -0.003113 0.244404 0.000000 1.221766 0.003945 0.000000 -0.005604 0.300416 0.000000 1.211985 0.000739 0.000000 -0.010017 0.372809 0.000000 1.204761 -0.000360 0.000000 -0.016086 0.464184 0.000000 
1.274159 -0.004251 0.000000 -0.012574 0.626196 0.000000 1.280580 0.000660 0.000000 -0.015183 0.762429 0.000000 1.298650 0.001852 0.000000 -0.015312 -0.757261 0.000000 1.278567 -0.014348 0.000000 -0.018035 -0.626905 0.000000 1.270258 -0.012772 0.000000 -0.020852 -0.519624 0.000000 1.268496 -0.016842 0.000000 -0.023228 -0.437657 0.000000 1.272162 -0.031335 0.000000 -0.016354 -0.383577 0.000000 1.296096 -0.057984 0.000000 0.053379 -0.355407 0.000000 1.444002 -0.016836 0.000000 0.079520 -0.173558 0.000000 1.307193 0.034926 0.000000 -0.014533 -0.178878 0.000000 1.307224 -0.016223 0.000000 0.008479 -0.198915 0.000000 1.442258 -0.039305 0.000000 0.116279 -0.068316 0.000000 1.337198 0.053150 0.000000 -0.013523 -0.074617 0.000000 1.315855 -0.002898 0.000000 -0.014167 -0.111377 0.000000 1.418982 -0.058815 0.000000 0.140182 -0.033899 0.000000 1.382421 0.061754 0.000000 -0.007046 -0.003875 0.000000 1.318864 0.004137 0.000000 -0.013918 -0.046869 0.000000 1.371118 -0.057685 0.000000 0.134949 -0.035870 0.000000 1.435907 0.059479 0.000000 0.005424 0.052843 0.000000 1.321722 0.011209 0.000000 -0.012081 0.009167 0.000000 1.336681 -0.048885 0.000000 0.106051 -0.020517 0.000000 1.465768 0.036249 0.000000 0.038661 0.107677 0.000000 1.323489 0.025208 0.000000 -0.008933 0.070413 0.000000 1.323924 -0.029147 0.000000 0.063151 0.035719 0.000000 1.478059 0.005976 0.000000 0.096491 0.195438 0.000000 1.325004 0.066824 0.000000 -0.001145 0.192880 0.000000 1.297182 0.037279 0.000000 -0.013042 0.200425 0.000000 1.292646 0.015988 0.000000 -0.010913 0.229529 0.000000 1.289271 0.004160 0.000000 -0.008264 0.276038 0.000000 1.284407 -0.002421 0.000000 -0.007264 0.338132 0.000000 1.278972 -0.005811 0.000000 -0.007966 0.416137 0.000000 1.274743 -0.006459 0.000000 -0.009948 0.511493 0.000000 
1.316504 0.003295 0.000000 -0.018751 0.571490 0.000000 1.342681 0.006297 0.000000 -0.022274 0.699711 0.000000 1.382139 0.001830 0.000000 -0.022360 -0.693738 0.000000 1.340554 -0.012109 0.000000 -0.025941 -0.571142 0.000000 1.311754 -0.012500 0.000000 -0.029848 -0.470670 0.000000 1.291022 -0.018090 0.000000 -0.034760 -0.396095 0.000000 1.276766 -0.039755 0.000000 -0.033014 -0.362246 0.000000 1.285031 -0.120136 0.000000 0.041149 -0.448739 0.000000 1.436932 -0.047902 0.000000 0.068386 -0.029467 0.000000 1.270544 0.110015 0.000000 -0.037214 -0.156887 0.000000 1.266880 -0.039742 0.000000 -0.008696 -0.296816 0.000000 1.419028 -0.138876 0.000000 0.115904 0.034027 0.000000 1.289503 0.161793 0.000000 -0.035862 -0.045896 0.000000 1.265816 -0.003865 0.000000 -0.035000 -0.190919 0.000000 1.386629 -0.195053 0.000000 0.145880 0.000818 0.000000 1.338034 0.186962 0.000000 -0.030207 0.054331 0.000000 1.266107 0.009823 0.000000 -0.036255 -0.088366 0.000000 1.329405 -0.186032 0.000000 0.140929 -0.093265 0.000000 1.402318 0.169141 0.000000 -0.015964 0.150421 0.000000 1.268072 0.027199 0.000000 -0.033591 -0.005393 0.000000 1.288729 -0.148034 0.000000 0.108459 -0.137336 0.000000 1.441743 0.092825 0.000000 0.025340 0.224600 0.000000 1.271159 0.068567 0.000000 -0.028284 0.062625 0.000000 1.276349 -0.087070 0.000000 0.060507 -0.108268 0.000000 1.467395 -0.024300 0.000000 0.101107 0.311788 0.000000 1.284935 0.152420 0.000000 -0.011787 0.195434 0.000000 1.268216 0.048026 0.000000 -0.019299 0.182065 0.000000 1.273942 0.017508 0.000000 -0.014014 0.206742 0.000000 1.279385 0.007070 0.000000 -0.010409 0.249268 0.000000 1.283984 0.002945 0.000000 -0.009787 0.305851 0.000000 1.290015 0.001441 0.000000 -0.011562 0.377037 0.000000 1.299970 0.001622 0.000000 -0.014878 0.464768 0.000000 