# vtk DataFile Version 2.0
Comment goes here
ASCII

DATASET STRUCTURED_POINTS
FIELD FieldData 1
TIME 1 1 double
0.08700000
DIMENSIONS    64   64   1

ORIGIN    0.000   0.000   0.000
SPACING   0.03125 0.03125   1.000

POINT_DATA   4096
VECTORS u double

1.769525 -17.582051 0.000000 -4.126583 1.453238 0.000000 1.916681 1.576561 0.000000 -4.355661 -0.915206 0.000000 0.668633 -0.366897 0.000000 -3.272929 -0.938560 0.000000 1.350760 2.598735 0.000000 -4.073488 -0.802087 0.000000 2.706991 1.676455 0.000000 -3.262090 -0.114347 0.000000 1.417458 -1.047498 0.000000 -3.520286 1.546226 0.000000 0.273996 -0.466694 0.000000 -2.327414 0.398905 0.000000 -0.839566 0.841206 0.000000 -2.163649 0.830237 0.000000 -0.446174 -0.040992 0.000000 -1.803278 0.705729 0.000000 -0.736028 2.038773 0.000000 -1.343310 1.931447 0.000000 -0.778795 1.384460 0.000000 -1.386767 2.617378 0.000000 -2.255764 1.151024 0.000000 -1.674586 0.757770 0.000000 -2.159420 0.515309 0.000000 -0.540732 -0.295948 0.000000 -2.825780 0.105955 0.000000 -0.221334 1.880595 0.000000 -2.478599 -0.673566 0.000000 0.986918 -0.616028 0.000000 -3.425005 0.403942 0.000000 0.473434 0.417804 0.000000 -2.376096 1.358377 0.000000 1.730721 1.426381 0.000000 -3.139616 0.357769 0.000000 3.761720 0.062492 0.000000 -2.361201 0.161735 0.000000 3.753710 0.210012 0.000000 -3.183366 -0.595441 0.000000 3.333240 0.447773 0.000000 -0.928423 -0.689614 0.000000 2.057897 -0.272322 0.000000 0.453373 -0.614186 0.000000 1.951448 1.124260 0.000000 0.072731 -0.325721 0.000000 1.422518 0.270144 0.000000 -0.573558 1.264848 0.000000 1.629574 0.541027 0.000000 0.806702 0.865126 0.000000 1.857168 -0.558813 0.000000 0.394289 0.325615 0.000000 1.989244 -1.005007 0.000000 0.972582 0.320320 0.000000 1.272848 0.581786 0.000000 1.068812 0.930000 0.000000 0.921302 -0.099978 0.000000 0.101162 1.732956 0.000000 -0.419695 -2.691516 0.000000 0.011131 3.146611 0.000000 -0.215814 -1.950413 0.000000 1.152690 2.082056 0.000000 -2.174202 -2.029784 0.000000 1.026947 0.945875 0.000000 -3.663317 1.432127 0.000000 
-0.489481 -19.882938 0.000000 -4.812303 0.223585 0.000000 3.083809 2.480275 0.000000 -5.682398 -2.114817 0.000000 4.891720 1.375398 0.000000 -6.244595 -0.577658 0.000000 3.139724 1.173598 0.000000 -2.898285 -1.378014 0.000000 1.220051 -0.174708 0.000000 -0.788603 0.971927 0.000000 -0.668936 -0.985056 0.000000 -2.073607 1.104586 0.000000 -0.070508 -1.632255 0.000000 -1.694810 0.094345 0.000000 0.401030 -1.104476 0.000000 0.703876 -0.778246 0.000000 1.168661 -1.286890 0.000000 0.644409 -0.182387 0.000000 2.226756 -0.484581 0.000000 2.952314 -0.494368 0.000000 4.516559 -0.328461 0.000000 3.955997 0.737124 0.000000 6.616746 -1.237362 0.000000 6.429204 -0.528338 0.000000 6.609804 -1.268000 0.000000 6.305622 -0.016468 0.000000 4.961844 -0.524304 0.000000 6.026951 0.930762 0.000000 4.135535 -0.841504 0.000000 3.242871 1.110034 0.000000 0.506745 -0.214069 0.000000 2.701503 -0.447595 0.000000 -1.183433 -0.747224 0.000000 3.406115 0.224731 0.000000 -0.776548 -0.244018 0.000000 2.166603 -0.698702 0.000000 -1.910232 -0.518701 0.000000 1.345407 0.717879 0.000000 -2.946924 -0.226296 0.000000 0.021751 -2.334838 0.000000 -2.136692 -0.173777 0.000000 -2.248146 -0.847358 0.000000 -2.344506 -1.107147 0.000000 -3.152301 0.424724 0.000000 -1.424496 0.649352 0.000000 -3.589923 -0.062570 0.000000 -1.730131 -0.104595 0.000000 -3.230715 -0.250721 0.000000 -1.825399 -0.153219 0.000000 -2.091871 -0.470770 0.000000 -2.401586 0.743833 0.000000 -1.930074 -0.667944 0.000000 -3.912047 0.238241 0.000000 -2.377968 0.279894 0.000000 -3.642859 0.457962 0.000000 -1.590356 -0.211923 0.000000 -3.352938 2.519907 0.000000 -2.086127 -1.589009 0.000000 -5.534081 2.289830 0.000000 -0.478372 -2.609970 0.000000 -5.542129 2.974550 0.000000 -0.245082 -2.590217 0.000000 -5.738279 2.642952 0.000000 -0.296951 -0.823104 0.000000 
6.598280 -13.066699 0.000000 -0.993317 -2.120052 0.000000 7.339219 2.446655 0.000000 1.280710 -2.723116 0.000000 5.329982 0.195301 0.000000 2.512093 0.813435 0.000000 5.658707 -0.747575 0.000000 4.143604 1.117587 0.000000 3.780104 -0.433227 0.000000 3.899779 1.774640 0.000000 3.424875 0.237506 0.000000 2.340080 0.947799 0.000000 3.172383 -0.845491 0.000000 0.468316 -0.072633 0.000000 2.233966 -1.557479 0.000000 -0.933424 0.062606 0.000000 0.082496 0.018474 0.000000 -3.807228 -0.352366 0.000000 -1.563575 -0.269132 0.000000 -6.396545 -0.358357 0.000000 -4.132488 0.380778 0.000000 -9.495835 0.517190 0.000000 -6.244324 -1.322183 0.000000 -12.281463 0.764713 0.000000 -9.333310 0.638890 0.000000 -13.961305 1.352011 0.000000 -9.619535 0.384626 0.000000 -10.733538 2.706904 0.000000 -5.536722 2.110514 0.000000 -7.257652 3.012762 0.000000 -0.974627 0.945310 0.000000 -3.491442 2.107982 0.000000 1.203872 0.653765 0.000000 -1.310160 1.019497 0.000000 3.512956 1.597281 0.000000 0.087610 1.196176 0.000000 4.100608 0.982931 0.000000 0.717119 1.246704 0.000000 5.836670 0.728215 0.000000 1.501044 -0.362458 0.000000 4.887406 1.580282 0.000000 1.539876 -0.064509 0.000000 5.307685 0.289969 0.000000 1.123855 0.204250 0.000000 6.531229 0.111901 0.000000 2.622017 0.575779 0.000000 6.907235 0.905640 0.000000 2.617249 0.636295 0.000000 7.041755 -0.273718 0.000000 3.190092 0.017374 0.000000 7.183415 0.163819 0.000000 4.409202 0.505455 0.000000 6.887139 0.768214 0.000000 4.582003 0.312597 0.000000 7.620187 0.142388 0.000000 5.071933 -0.389898 0.000000 8.137872 2.228727 0.000000 6.451653 -0.510372 0.000000 7.415314 1.538856 0.000000 7.713187 -1.942365 0.000000 6.309675 1.848766 0.000000 9.712216 -1.833634 0.000000 4.990237 0.997745 0.000000 12.601162 -3.816671 0.000000 
11.870681 -6.288459 0.000000 5.254664 -0.517354 0.000000 10.393955 0.206248 0.000000 7.485542 -0.105581 0.000000 7.605974 0.144015 0.000000 7.707936 -0.906382 0.000000 8.899298 -0.457912 0.000000 6.966750 0.500588 0.000000 8.963134 0.069117 0.000000 5.889102 1.327157 0.000000 8.853618 0.574643 0.000000 4.855321 1.357078 0.000000 7.642792 0.239509 0.000000 2.413835 1.032762 0.000000 5.144934 0.297264 0.000000 -1.441882 1.373223 0.000000 2.061660 1.586914 0.000000 -5.278905 1.463684 0.000000 -2.326647 2.104736 0.000000 -10.833344 2.074546 0.000000 -7.899591 2.770829 0.000000 -17.055495 2.848960 0.000000 -13.777738 1.548267 0.000000 -24.701881 2.560648 0.000000 -19.046568 0.411842 0.000000 -27.337983 0.269757 0.000000 -19.562699 -3.752071 0.000000 -21.573893 -3.152050 0.000000 -10.212223 -4.317390 0.000000 -12.381255 -3.452061 0.000000 -1.595076 -3.980279 0.000000 -6.417622 -2.626093 0.000000 3.523697 -2.928506 0.000000 -3.013565 -2.084353 0.000000 5.886971 -1.641788 0.000000 -0.255937 -1.286354 0.000000 7.552221 -1.148210 0.000000 1.340084 -1.018183 0.000000 9.087963 -1.010221 0.000000 2.456131 -1.385574 0.000000 9.390430 -0.212609 0.000000 4.214556 -1.267636 0.000000 9.994574 -0.691125 0.000000 4.900355 -0.798820 0.000000 10.709083 -0.848811 0.000000 5.468137 -0.438576 0.000000 11.596106 -0.099826 0.000000 6.703153 -0.385240 0.000000 12.512889 -0.726062 0.000000 6.963009 -0.612431 0.000000 12.942409 -0.475278 0.000000 7.614159 -0.371668 0.000000 13.841778 0.065440 0.000000 8.700644 -0.453153 0.000000 14.727891 -0.031968 0.000000 9.097792 -0.729608 0.000000 15.157689 1.140188 0.000000 10.906852 -0.866452 0.000000 15.549983 1.028295 0.000000 11.944454 -1.504330 0.000000 14.800390 0.975521 0.000000 13.391603 -1.270779 0.000000 14.161793 -0.245993 0.000000 14.983402 -2.431146 0.000000 
11.786539 -3.337961 0.000000 7.689022 -0.643325 0.000000 10.557814 0.215778 0.000000 7.426968 0.064864 0.000000 8.600654 -0.027093 0.000000 7.538032 -0.479888 0.000000 8.739863 -0.006389 0.000000 6.504835 1.053750 0.000000 8.554844 0.644420 0.000000 5.404094 1.884156 0.000000 8.060482 1.271287 0.000000 4.113499 2.158624 0.000000 6.838192 1.595995 0.000000 1.823426 2.425225 0.000000 4.592663 2.298238 0.000000 -1.520323 3.145880 0.000000 1.665991 3.855497 0.000000 -5.458918 4.035942 0.000000 -2.454499 5.285306 0.000000 -11.030604 5.214588 0.000000 -7.727026 6.602928 0.000000 -17.879543 6.395337 0.000000 -13.973148 6.324203 0.000000 -25.770354 6.033543 0.000000 -20.290220 3.274992 0.000000 -29.949642 1.868142 0.000000 -22.076660 -5.379464 0.000000 -22.141227 -6.643572 0.000000 -9.878192 -7.082123 0.000000 -11.725873 -5.604385 0.000000 -0.680346 -5.018323 0.000000 -5.350299 -3.010791 0.000000 4.437962 -2.750292 0.000000 -1.852806 -1.343777 0.000000 6.876772 -1.160347 0.000000 0.472458 -0.469075 0.000000 8.432614 -0.613089 0.000000 2.049740 -0.289038 0.000000 9.563882 -0.387831 0.000000 3.149679 -0.664924 0.000000 10.169060 -0.178144 0.000000 4.596080 -0.668653 0.000000 10.712739 -0.395829 0.000000 5.417802 -0.510258 0.000000 11.384879 -0.455881 0.000000 5.936180 -0.311244 0.000000 12.148588 -0.329376 0.000000 6.961691 -0.280489 0.000000 12.847561 -0.533575 0.000000 7.384888 -0.412146 0.000000 13.322980 -0.487330 0.000000 7.988308 -0.393914 0.000000 14.063974 -0.318272 0.000000 9.009400 -0.573515 0.000000 14.839660 -0.254760 0.000000 9.752677 -0.819696 0.000000 15.325088 0.419666 0.000000 11.073792 -0.902667 0.000000 15.477110 0.501255 0.000000 11.944558 -1.192772 0.000000 14.799588 0.401616 0.000000 12.671692 -1.195038 0.000000 13.981506 -0.594054 0.000000 12.679204 -1.525558 0.000000 
12.632769 -1.298277 0.000000 8.833211 0.711370 0.000000 11.181175 0.468303 0.000000 8.331798 1.851579 0.000000 9.146665 0.032951 0.000000 8.266226 -1.045591 0.000000 9.423395 0.575285 0.000000 7.288973 0.685607 0.000000 9.490356 1.169858 0.000000 6.293556 1.821519 0.000000 9.156142 1.865238 0.000000 5.055786 2.579367 0.000000 8.070302 2.529582 0.000000 3.051920 3.278291 0.000000 6.072200 3.641013 0.000000 0.095875 4.299896 0.000000 3.158516 5.525509 0.000000 -3.807611 5.584174 0.000000 -0.999389 7.676422 0.000000 -9.462048 7.347073 0.000000 -6.599078 9.619768 0.000000 -17.313776 9.095082 0.000000 -13.990897 9.439078 0.000000 -27.696258 8.877720 0.000000 -23.034033 4.591129 0.000000 -35.732218 2.056197 0.000000 -27.712057 -11.560486 0.000000 -23.498890 -15.350519 0.000000 -8.779400 -14.732744 0.000000 -10.383569 -12.649907 0.000000 1.150217 -10.355853 0.000000 -4.130305 -7.744401 0.000000 5.259728 -6.425999 0.000000 -1.349955 -4.523164 0.000000 6.818342 -3.967051 0.000000 0.333478 -2.842196 0.000000 7.824864 -2.725491 0.000000 1.641070 -2.149451 0.000000 8.780432 -2.110161 0.000000 2.793076 -1.990752 0.000000 9.465873 -1.659010 0.000000 4.041265 -1.811315 0.000000 10.221778 -1.512846 0.000000 4.984929 -1.470960 0.000000 10.958125 -1.367189 0.000000 5.728955 -1.202285 0.000000 11.695947 -1.125338 0.000000 6.554879 -1.084213 0.000000 12.406204 -1.149259 0.000000 7.167747 -1.087849 0.000000 12.986389 -1.078697 0.000000 7.845072 -1.112663 0.000000 13.718362 -0.955651 0.000000 8.801076 -1.228839 0.000000 14.566438 -0.775245 0.000000 9.752524 -1.215036 0.000000 15.185364 -0.180927 0.000000 10.909513 -1.018474 0.000000 15.432730 0.157529 0.000000 11.713599 -0.826809 0.000000 15.027323 0.248387 0.000000 12.168234 -0.452697 0.000000 14.195442 -0.253505 0.000000 11.743227 -0.236178 0.000000 
13.048409 -0.427945 0.000000 9.326057 0.808269 0.000000 11.708956 0.717191 0.000000 8.400055 2.099374 0.000000 10.011171 0.038479 0.000000 8.337971 -0.756619 0.000000 9.658752 0.970863 0.000000 7.177532 0.986789 0.000000 9.243324 1.639838 0.000000 6.018625 2.218371 0.000000 8.605214 2.509057 0.000000 4.725396 3.244464 0.000000 7.441224 3.599861 0.000000 2.923248 4.423327 0.000000 5.552730 5.254283 0.000000 0.386309 6.059564 0.000000 2.879448 7.758983 0.000000 -3.226627 8.193847 0.000000 -0.862089 10.939744 0.000000 -9.007225 10.814276 0.000000 -6.226508 14.454656 0.000000 -18.039553 13.787156 0.000000 -14.381773 16.706685 0.000000 -30.655084 15.076679 0.000000 -27.336709 11.310952 0.000000 -45.762802 6.546166 0.000000 -39.611447 -17.612792 0.000000 -25.734349 -25.576229 0.000000 -6.785364 -20.197444 0.000000 -7.446090 -15.534002 0.000000 4.265463 -11.271587 0.000000 -1.374065 -7.120302 0.000000 7.614529 -5.530642 0.000000 0.692080 -2.902391 0.000000 8.531729 -2.843780 0.000000 1.750738 -1.475597 0.000000 9.087746 -1.920682 0.000000 2.695384 -1.244605 0.000000 9.713183 -1.539837 0.000000 3.624364 -1.350365 0.000000 10.350170 -1.426332 0.000000 4.734611 -1.424559 0.000000 11.045936 -1.339493 0.000000 5.574352 -1.246605 0.000000 11.662868 -1.199907 0.000000 6.180370 -1.049066 0.000000 12.267693 -1.155300 0.000000 6.919166 -0.990746 0.000000 12.853071 -1.146442 0.000000 7.462430 -0.992330 0.000000 13.322722 -1.164656 0.000000 8.084742 -1.125888 0.000000 13.972444 -1.274276 0.000000 9.150825 -1.421591 0.000000 14.890864 -1.206207 0.000000 10.287732 -1.438622 0.000000 15.575607 -0.737324 0.000000 11.321052 -1.150033 0.000000 15.743189 -0.302830 0.000000 11.905380 -0.787365 0.000000 15.288337 -0.053019 0.000000 11.991824 -0.363157 0.000000 14.417379 -0.169047 0.000000 11.289145 0.037115 0.000000 
13.642346 0.664811 0.000000 9.936536 2.050823 0.000000 12.288575 1.394305 0.000000 9.178789 3.549364 0.000000 10.618937 0.095035 0.000000 9.105704 -0.693172 0.000000 10.492754 1.735724 0.000000 8.137041 1.101035 0.000000 10.299832 2.328765 0.000000 7.152327 2.459630 0.000000 9.938298 3.158468 0.000000 6.094632 3.743357 0.000000 9.117477 4.331729 0.000000 4.678100 5.166785 0.000000 7.618621 6.177952 0.000000 2.637345 6.973178 0.000000 5.216517 9.138446 0.000000 -0.446237 9.325710 0.000000 1.552461 13.457020 0.000000 -5.574337 12.711492 0.000000 -3.665130 18.652096 0.000000 -14.685959 17.250347 0.000000 -12.855913 22.054609 0.000000 -32.868077 21.832655 0.000000 -31.633169 19.698848 0.000000 -62.119880 14.330935 0.000000 -57.106761 -31.588940 0.000000 -24.862745 -48.176601 0.000000 1.178899 -33.021003 0.000000 -1.536560 -23.700734 0.000000 9.425383 -16.427878 0.000000 1.670391 -11.093467 0.000000 9.329754 -8.492145 0.000000 1.384997 -5.440364 0.000000 8.156212 -5.025709 0.000000 1.279562 -3.398213 0.000000 7.998402 -3.670138 0.000000 2.028166 -2.774888 0.000000 8.649130 -3.039141 0.000000 2.907990 -2.627740 0.000000 9.385143 -2.769256 0.000000 4.119659 -2.507081 0.000000 10.391159 -2.352588 0.000000 5.115878 -2.087891 0.000000 11.155461 -1.973207 0.000000 5.762734 -1.807111 0.000000 11.758433 -1.864134 0.000000 6.545182 -1.669590 0.000000 12.414136 -1.692522 0.000000 7.134349 -1.557500 0.000000 12.877844 -1.701010 0.000000 7.698418 -1.762385 0.000000 13.469040 -2.021734 0.000000 8.811054 -2.147260 0.000000 14.613195 -1.912152 0.000000 10.142724 -1.899778 0.000000 15.554705 -1.214247 0.000000 11.238363 -1.186056 0.000000 15.901998 -0.426799 0.000000 11.822826 -0.371957 0.000000 15.606691 0.161942 0.000000 11.867641 0.418261 0.000000 14.828308 0.449174 0.000000 11.259191 1.132791 0.000000 
14.184852 0.894710 0.000000 10.071245 2.162040 0.000000 12.906340 1.474937 0.000000 9.175066 3.769012 0.000000 11.359079 0.111564 0.000000 9.100856 -0.630436 0.000000 10.880976 1.939527 0.000000 8.039046 1.179711 0.000000 10.300833 2.624552 0.000000 6.953380 2.579905 0.000000 9.667645 3.566752 0.000000 5.916709 4.065285 0.000000 8.740703 5.016393 0.000000 4.796450 5.922183 0.000000 7.287424 7.295038 0.000000 3.419010 8.461668 0.000000 5.121774 10.842566 0.000000 1.230601 11.857903 0.000000 2.125072 16.067843 0.000000 -3.733016 16.031867 0.000000 -2.595406 23.566278 0.000000 -14.368230 22.977939 0.000000 -10.634073 34.888803 0.000000 -33.034200 33.853934 0.000000 -35.353626 40.562755 0.000000 -85.722500 32.019758 0.000000 -52.569487 -54.869927 0.000000 -5.090550 -83.861889 0.000000 17.037794 -43.523629 0.000000 9.330128 -23.780486 0.000000 16.779246 -14.478538 0.000000 6.863359 -7.024673 0.000000 13.168777 -5.245248 0.000000 4.345776 -1.728849 0.000000 10.508436 -2.738345 0.000000 3.197626 -1.317787 0.000000 9.678679 -2.669285 0.000000 3.374750 -1.895333 0.000000 9.837630 -2.419662 0.000000 3.898613 -2.086379 0.000000 10.464956 -2.638001 0.000000 5.146210 -2.430575 0.000000 11.471061 -2.335713 0.000000 5.957932 -2.010907 0.000000 11.941240 -1.846763 0.000000 6.274537 -1.652038 0.000000 12.408637 -1.937748 0.000000 7.073557 -1.646449 0.000000 12.979121 -1.735609 0.000000 7.443284 -1.456038 0.000000 13.132983 -1.728725 0.000000 7.715328 -1.717084 0.000000 13.622523 -2.386912 0.000000 9.184114 -2.565746 0.000000 15.192181 -2.537877 0.000000 10.891869 -2.380132 0.000000 16.359967 -1.832963 0.000000 11.983421 -1.497326 0.000000 16.654677 -0.887293 0.000000 12.325561 -0.492057 0.000000 16.223537 -0.097834 0.000000 12.059354 0.415225 0.000000 15.347739 0.439402 0.000000 11.263649 1.223077 0.000000 
14.715868 1.857215 0.000000 10.610051 3.329335 0.000000 13.451189 2.290483 0.000000 9.910693 5.096625 0.000000 11.981747 0.169245 0.000000 9.833967 -0.215068 0.000000 11.767026 2.797534 0.000000 9.012748 1.681177 0.000000 11.495221 3.414430 0.000000 8.214569 3.092818 0.000000 11.245662 4.195139 0.000000 7.541692 4.670299 0.000000 10.843929 5.451988 0.000000 6.917901 6.620064 0.000000 10.042019 7.555392 0.000000 6.174337 9.138827 0.000000 8.460476 11.326855 0.000000 4.977717 12.322413 0.000000 5.626734 18.420637 0.000000 3.327430 17.431970 0.000000 3.949121 29.287310 0.000000 -3.150595 25.289014 0.000000 -2.049988 40.720579 0.000000 -24.799679 46.552209 0.000000 -28.206124 72.387148 0.000000 -74.747361 31.546796 0.000000 17.615173 -112.220890 0.000000 37.085881 -117.783883 0.000000 48.388101 -47.441682 0.000000 26.859144 -23.442186 0.000000 25.774356 -13.961108 0.000000 11.105197 -7.482998 0.000000 14.256723 -5.974562 0.000000 3.969351 -2.780023 0.000000 8.414217 -3.877560 0.000000 1.384551 -2.568456 0.000000 7.358577 -3.847261 0.000000 2.283431 -2.933839 0.000000 8.408436 -3.563004 0.000000 2.683646 -3.255065 0.000000 9.046702 -4.016853 0.000000 4.412236 -3.513187 0.000000 10.808274 -3.164310 0.000000 5.589225 -2.558070 0.000000 11.497772 -2.289812 0.000000 5.652614 -2.274508 0.000000 11.774293 -2.663154 0.000000 6.735309 -2.240075 0.000000 12.611257 -2.062249 0.000000 7.126144 -1.711362 0.000000 12.620116 -1.973053 0.000000 6.994685 -2.251925 0.000000 12.683717 -3.490520 0.000000 8.578522 -3.716917 0.000000 14.880617 -3.619908 0.000000 10.744606 -3.067564 0.000000 16.523544 -2.305799 0.000000 12.052502 -1.480766 0.000000 17.014669 -0.768939 0.000000 12.444210 0.059182 0.000000 16.662087 0.428150 0.000000 12.199624 1.294059 0.000000 15.827239 1.244879 0.000000 11.520102 2.295678 0.000000 
15.300755 1.804762 0.000000 10.675340 3.426719 0.000000 14.034865 2.174295 0.000000 9.840930 5.238453 0.000000 12.604692 0.188290 0.000000 9.754399 -0.415715 0.000000 12.149256 2.760746 0.000000 8.825369 1.451515 0.000000 11.614053 3.422731 0.000000 7.922368 2.829464 0.000000 11.151162 4.239629 0.000000 7.252366 4.467018 0.000000 10.638452 5.640184 0.000000 6.977495 6.724094 0.000000 9.834926 8.038602 0.000000 7.335631 10.043210 0.000000 8.405116 12.039186 0.000000 8.608646 14.691646 0.000000 6.955492 17.718130 0.000000 7.102908 17.709480 0.000000 2.062824 30.044304 0.000000 3.678325 28.977048 0.000000 9.382610 56.537886 0.000000 3.346916 60.010070 0.000000 9.762191 90.510437 0.000000 12.713803 -13.801539 0.000000 68.105113 -166.703168 0.000000 36.910201 -114.634817 0.000000 51.747521 -33.296892 0.000000 31.692070 -1.166741 0.000000 31.815999 1.275409 0.000000 15.778346 4.492960 0.000000 17.728327 1.890598 0.000000 6.780790 4.113656 0.000000 10.596110 -0.153545 0.000000 3.318027 -0.262146 0.000000 9.291422 -3.568165 0.000000 3.738764 -2.945192 0.000000 9.484292 -2.819877 0.000000 3.409302 -2.724644 0.000000 10.200942 -4.366590 0.000000 5.978505 -4.192147 0.000000 12.452083 -3.512702 0.000000 6.849432 -2.700405 0.000000 12.207191 -1.910153 0.000000 5.861431 -1.928559 0.000000 12.452398 -3.020443 0.000000 7.663319 -2.483413 0.000000 13.527072 -2.126444 0.000000 7.549699 -1.464897 0.000000 12.581084 -1.597266 0.000000 6.140008 -1.780685 0.000000 12.205430 -3.970749 0.000000 8.951511 -4.762646 0.000000 15.906438 -4.703961 0.000000 12.100087 -4.023059 0.000000 18.012793 -3.140859 0.000000 13.382190 -1.988451 0.000000 18.280971 -1.279001 0.000000 13.343100 -0.139475 0.000000 17.584336 0.146752 0.000000 12.665219 1.250073 0.000000 16.509827 1.118924 0.000000 11.703299 2.334448 0.000000 
15.809047 2.885174 0.000000 11.200993 4.595226 0.000000 14.552227 3.124893 0.000000 10.530023 6.526797 0.000000 13.216093 0.255775 0.000000 10.441728 0.240368 0.000000 13.016517 3.726564 0.000000 9.762238 2.216381 0.000000 12.839982 4.317431 0.000000 9.180374 3.555709 0.000000 12.855577 4.865141 0.000000 8.916670 5.183009 0.000000 13.061649 5.726858 0.000000 9.176852 7.423591 0.000000 13.306658 7.197257 0.000000 9.930597 10.568637 0.000000 13.007567 10.053840 0.000000 10.708348 13.772037 0.000000 7.821298 19.926374 0.000000 13.874896 22.324637 0.000000 13.386078 32.711893 0.000000 15.610484 17.969228 0.000000 18.459651 41.051988 0.000000 42.580781 46.172628 0.000000 44.897112 63.020260 0.000000 119.776046 -26.796126 0.000000 120.539307 -136.417288 0.000000 47.503554 -101.426290 0.000000 44.348378 -42.223551 0.000000 30.890460 -3.510664 0.000000 25.649662 1.952615 0.000000 11.561242 6.604673 0.000000 13.169630 3.022994 0.000000 2.036365 4.352195 0.000000 3.955283 -0.414796 0.000000 -1.945586 -1.263768 0.000000 4.692748 -4.267998 0.000000 3.046989 -3.126709 0.000000 8.527666 -3.233542 0.000000 1.118044 -3.971715 0.000000 7.674716 -6.586056 0.000000 5.244624 -5.764329 0.000000 12.294348 -4.035238 0.000000 7.167051 -2.313177 0.000000 12.220987 -1.301811 0.000000 4.494064 -2.519715 0.000000 11.277762 -4.465042 0.000000 7.624615 -3.314749 0.000000 13.619671 -1.948630 0.000000 7.675948 -0.765374 0.000000 12.250209 -0.563362 0.000000 4.602997 -1.876271 0.000000 9.803452 -6.302023 0.000000 7.734682 -7.417925 0.000000 15.726867 -6.768484 0.000000 12.190455 -5.173919 0.000000 18.624030 -3.587902 0.000000 13.773779 -1.748944 0.000000 18.940292 -0.729849 0.000000 13.699603 0.755817 0.000000 18.160289 1.106031 0.000000 12.982920 2.368568 0.000000 17.031343 2.206799 0.000000 12.075512 3.504749 0.000000 
16.331223 2.679280 0.000000 11.216259 4.683539 0.000000 15.034539 2.845265 0.000000 10.392565 6.574588 0.000000 13.723192 0.276585 0.000000 10.290295 -0.216139 0.000000 13.330008 3.440236 0.000000 9.467737 1.628050 0.000000 12.969044 4.004595 0.000000 8.679419 2.813869 0.000000 12.832755 4.503333 0.000000 8.168094 4.260945 0.000000 12.942954 5.380002 0.000000 8.486797 6.479085 0.000000 13.114846 7.284857 0.000000 10.576345 10.342302 0.000000 12.763753 11.261435 0.000000 16.412984 19.877914 0.000000 11.477173 14.551582 0.000000 32.818014 12.144700 0.000000 20.127185 28.308716 0.000000 11.977128 23.903476 0.000000 49.133499 29.567588 0.000000 41.530243 33.572608 0.000000 84.939849 13.315172 0.000000 168.485704 -89.443734 0.000000 174.185456 -94.430676 0.000000 82.590158 -38.443887 0.000000 50.104248 -16.683799 0.000000 42.500054 17.531976 0.000000 36.898491 20.604627 0.000000 17.847830 16.972992 0.000000 15.432520 11.415475 0.000000 3.407741 13.328003 0.000000 4.538756 3.828405 0.000000 -0.876979 -0.999611 0.000000 7.398068 -8.560739 0.000000 4.968496 -6.780110 0.000000 8.577046 -0.890932 0.000000 -0.149708 -1.871695 0.000000 8.391517 -8.493170 0.000000 8.421132 -8.811779 0.000000 15.945290 -5.435129 0.000000 9.657131 -2.627043 0.000000 11.947654 0.762834 0.000000 2.546155 -0.985334 0.000000 11.724927 -6.150994 0.000000 10.177376 -4.825322 0.000000 16.095966 -2.177776 0.000000 9.011814 -0.095434 0.000000 11.332304 1.475685 0.000000 0.403610 0.666072 0.000000 6.745606 -7.102434 0.000000 8.328882 -10.686061 0.000000 18.212738 -9.159735 0.000000 15.163507 -6.920222 0.000000 21.463213 -4.724182 0.000000 16.091839 -2.304713 0.000000 20.834190 -1.204825 0.000000 15.003468 0.640528 0.000000 19.282472 0.863436 0.000000 13.586850 2.379020 0.000000 17.731587 2.026333 0.000000 12.289739 3.556744 0.000000 
16.804069 3.958655 0.000000 11.697895 5.891910 0.000000 15.517184 3.948588 0.000000 10.999496 7.838145 0.000000 14.306721 0.358045 0.000000 10.900277 0.633552 0.000000 14.113064 4.549123 0.000000 10.347397 2.577344 0.000000 14.074111 5.105749 0.000000 9.905098 3.691998 0.000000 14.430010 5.376466 0.000000 9.740822 5.072811 0.000000 15.466151 5.408155 0.000000 10.469015 7.251699 0.000000 17.484961 5.107708 0.000000 12.762099 10.919730 0.000000 21.275436 4.217201 0.000000 20.454272 15.058617 0.000000 13.336171 3.521345 0.000000 12.601026 13.674625 0.000000 -22.076515 53.552779 0.000000 10.064303 -11.037087 0.000000 64.367634 11.498874 0.000000 68.763317 10.366278 0.000000 158.218813 -63.935201 0.000000 172.284567 -116.041732 0.000000 163.603736 -50.521742 0.000000 165.442665 22.654918 0.000000 96.716917 -2.133446 0.000000 52.896938 9.695092 0.000000 19.031565 26.604839 0.000000 3.183952 28.070645 0.000000 10.123379 17.463083 0.000000 -5.296332 15.245959 0.000000 -9.196948 3.869924 0.000000 -13.702692 -4.123080 0.000000 -0.398800 -10.113473 0.000000 10.988881 -4.305687 0.000000 13.654124 1.884662 0.000000 -6.520188 -3.786186 0.000000 1.681658 -15.156896 0.000000 8.067384 -13.318102 0.000000 18.335129 -5.271237 0.000000 13.473376 1.684459 0.000000 14.013891 5.809165 0.000000 -2.803447 -2.296988 0.000000 7.933145 -12.096263 0.000000 11.456966 -7.685788 0.000000 18.256014 -0.783068 0.000000 11.566912 3.998288 0.000000 13.006345 8.044842 0.000000 -3.677009 2.710427 0.000000 -1.224795 -14.227295 0.000000 5.561333 -18.885057 0.000000 19.596906 -13.603110 0.000000 16.492431 -8.424394 0.000000 23.227521 -4.516234 0.000000 17.143437 -1.119920 0.000000 21.904878 0.358522 0.000000 15.606185 2.307535 0.000000 19.958180 2.522648 0.000000 13.994836 3.919452 0.000000 18.250091 3.503909 0.000000 12.682331 4.905114 0.000000 
17.130626 3.663716 0.000000 11.603805 5.970424 0.000000 15.840730 3.543664 0.000000 10.782149 7.785050 0.000000 14.697217 0.375804 0.000000 10.672083 -0.022482 0.000000 14.344828 3.993117 0.000000 9.989161 1.667004 0.000000 14.140985 4.446894 0.000000 9.288787 2.457970 0.000000 14.334350 4.667609 0.000000 8.490664 3.224804 0.000000 15.210627 4.651809 0.000000 8.161384 4.460274 0.000000 16.557883 4.991773 0.000000 10.205156 6.551828 0.000000 23.652993 3.569262 0.000000 0.640566 27.817179 0.000000 20.790863 22.404827 0.000000 73.737744 47.557386 0.000000 34.916892 30.845440 0.000000 30.213744 -62.540672 0.000000 26.981625 -29.131426 0.000000 110.711431 -60.278571 0.000000 108.469594 -90.206078 0.000000 175.726967 -94.828656 0.000000 75.463442 -87.588774 0.000000 102.755774 28.442932 0.000000 78.979122 95.861929 0.000000 44.511385 95.217327 0.000000 28.099987 70.317613 0.000000 7.249245 25.881177 0.000000 -2.443273 19.895759 0.000000 -12.691074 32.648331 0.000000 -8.362801 12.234766 0.000000 -8.800073 -9.797759 0.000000 10.531886 -33.252312 0.000000 17.427477 -20.833035 0.000000 7.721372 16.618138 0.000000 -13.458736 10.100771 0.000000 4.295340 -23.080743 0.000000 17.755389 -25.465250 0.000000 30.690998 -10.841121 0.000000 21.698039 1.694195 0.000000 8.930094 17.039657 0.000000 -14.970814 5.095412 0.000000 9.137115 -20.411407 0.000000 20.702762 -15.148192 0.000000 27.501817 -2.287723 0.000000 18.089907 5.154235 0.000000 10.580521 16.719606 0.000000 -21.118818 14.897212 0.000000 -9.184983 -16.340776 0.000000 9.729999 -31.507763 0.000000 28.418638 -20.090832 0.000000 24.058371 -10.550836 0.000000 28.694789 -5.375188 0.000000 20.814624 -0.982071 0.000000 24.276212 0.332426 0.000000 17.022084 2.587226 0.000000 20.949545 2.474785 0.000000 14.444918 4.087109 0.000000 18.730026 3.338837 0.000000 12.747105 5.002766 0.000000 
17.524377 5.101955 0.000000 11.980537 7.181807 0.000000 16.278849 4.770244 0.000000 11.237242 8.981658 0.000000 15.239704 0.468111 0.000000 11.137500 0.985940 0.000000 14.996356 5.232045 0.000000 10.707444 2.781188 0.000000 14.942826 5.806124 0.000000 10.492546 3.498632 0.000000 15.314463 6.174589 0.000000 10.486080 4.196534 0.000000 16.721201 5.737435 0.000000 10.687809 5.904443 0.000000 20.638762 3.063936 0.000000 15.257939 3.824620 0.000000 23.901698 13.781792 0.000000 30.227293 17.920746 0.000000 87.125793 -69.575833 0.000000 33.303298 -0.451403 0.000000 45.014761 97.076779 0.000000 46.152566 -3.101820 0.000000 30.962255 -68.998814 0.000000 40.148892 -71.121690 0.000000 -83.717793 -128.950737 0.000000 -21.475520 -83.035581 0.000000 -103.364581 22.449451 0.000000 -75.619637 19.139238 0.000000 -31.195260 56.110944 0.000000 3.523758 60.574227 0.000000 -29.345763 63.866979 0.000000 -30.821449 58.613905 0.000000 17.667375 37.403402 0.000000 50.875958 21.165487 0.000000 44.232339 -0.021078 0.000000 38.146367 -23.017767 0.000000 48.433662 -36.341023 0.000000 60.365390 -1.495173 0.000000 40.476844 32.770875 0.000000 19.853234 -0.360154 0.000000 32.148164 -46.371021 0.000000 40.766723 -39.713760 0.000000 47.501929 -9.213887 0.000000 36.614686 23.445362 0.000000 6.274417 42.478018 0.000000 -5.667407 -2.504009 0.000000 22.455844 -47.769839 0.000000 33.267816 -26.050490 0.000000 38.358853 1.829787 0.000000 30.248642 20.919584 0.000000 12.020435 47.253567 0.000000 -14.459231 22.475931 0.000000 13.963400 -45.076112 0.000000 25.268273 -56.488678 0.000000 42.140078 -27.931481 0.000000 31.078295 -8.700545 0.000000 32.565187 -1.272487 0.000000 22.652589 3.298657 0.000000 25.427470 4.151062 0.000000 17.627410 5.634202 0.000000 21.489165 5.099815 0.000000 14.778832 6.138971 0.000000 19.135334 5.201722 0.000000 13.060013 6.504513 0.000000 