# vtk DataFile Version 2.0
Comment goes here
ASCII

DATASET STRUCTURED_POINTS
FIELD FieldData 1
TIME 1 1 double
0.06500000
DIMENSIONS    64   64   1

ORIGIN    0.000   0.000   0.000
SPACING   0.03125 0.03125   1.000

POINT_DATA   4096
VECTORS u double

0.602542 0.002103 0.000000 -1.675189 0.002891 0.000000 0.385062 0.000913 0.000000 -1.472870 0.000670 0.000000 -0.009921 -0.001248 0.000000 -1.277953 0.001578 0.000000 0.061411 0.001909 0.000000 -1.082725 0.001631 0.000000 0.081945 0.002092 0.000000 -0.980040 0.000803 0.000000 0.109334 0.003131 0.000000 -0.943215 -0.000152 0.000000 0.152225 0.004578 0.000000 -0.933637 -0.000779 0.000000 0.179632 0.006268 0.000000 -0.902507 -0.000830 0.000000 0.153953 0.007717 0.000000 -0.815568 -0.001138 0.000000 0.060903 0.009118 0.000000 -0.667778 -0.000592 0.000000 -0.088981 0.009828 0.000000 -0.480806 -0.000062 0.000000 -0.267833 0.009661 0.000000 -0.279031 -0.000100 0.000000 -0.454478 0.010815 0.000000 -0.076134 0.002308 0.000000 -0.640806 0.011313 0.000000 0.121889 0.002195 0.000000 -0.823339 0.010749 0.000000 0.314882 0.003449 0.000000 -1.001525 0.010852 0.000000 0.503761 0.003580 0.000000 -1.173589 0.009590 0.000000 0.676655 0.003818 0.000000 -1.312209 0.009212 0.000000 0.796304 0.004324 0.000000 -1.386671 0.007995 0.000000 0.851026 0.005000 0.000000 -1.401054 0.007727 0.000000 0.849099 0.005779 0.000000 -1.370647 0.006927 0.000000 0.810055 0.006480 0.000000 -1.316678 0.006107 0.000000 0.743402 0.007049 0.000000 -1.228871 0.005708 0.000000 0.620806 0.007347 0.000000 -1.074446 0.005071 0.000000 0.420173 0.007600 0.000000 -0.849441 0.004196 0.000000 0.151855 0.006820 0.000000 -0.580044 0.003310 0.000000 -0.152658 0.006590 0.000000 -0.295945 0.002239 0.000000 -0.471815 0.005997 0.000000 -0.011643 0.000988 0.000000 -0.793400 0.005182 0.000000 0.251322 0.000156 0.000000 -1.088049 0.004217 0.000000 0.461398 -0.000295 0.000000 -1.331569 0.003319 0.000000 0.602764 -0.000541 0.000000 -1.522289 0.002285 0.000000 0.675134 -0.000343 0.000000 -1.662778 -0.000667 0.000000 
-0.332769 0.003106 0.000000 0.392438 0.108033 0.000000 -0.203124 -0.102825 0.000000 0.304919 0.197412 0.000000 0.161454 -0.096617 0.000000 0.211434 -0.037669 0.000000 -0.104524 -0.099090 0.000000 0.069151 -0.013022 0.000000 -0.241537 -0.052017 0.000000 0.001736 -0.017323 0.000000 -0.336188 -0.018345 0.000000 -0.020732 -0.026392 0.000000 -0.416344 -0.004147 0.000000 -0.024396 -0.020218 0.000000 -0.474877 -0.014950 0.000000 -0.038867 0.004953 0.000000 -0.495844 -0.043139 0.000000 -0.082944 0.037769 0.000000 -0.475296 -0.073819 0.000000 -0.158697 0.065047 0.000000 -0.420936 -0.093619 0.000000 -0.254000 0.078937 0.000000 -0.349543 -0.100778 0.000000 -0.356406 0.082805 0.000000 -0.272711 -0.102705 0.000000 -0.460563 0.081278 0.000000 -0.191269 -0.100949 0.000000 -0.561231 0.080014 0.000000 -0.110793 -0.098490 0.000000 -0.659717 0.077447 0.000000 -0.030904 -0.097301 0.000000 -0.757754 0.075379 0.000000 0.049340 -0.089250 0.000000 -0.850109 0.059420 0.000000 0.112291 -0.063292 0.000000 -0.913135 0.027987 0.000000 0.140157 -0.031715 0.000000 -0.939826 -0.000315 0.000000 0.136015 -0.004745 0.000000 -0.934650 -0.021945 0.000000 0.111342 0.013243 0.000000 -0.912516 -0.033079 0.000000 0.082560 0.026310 0.000000 -0.879755 -0.049296 0.000000 0.042611 0.054102 0.000000 -0.818934 -0.082191 0.000000 -0.025826 0.093093 0.000000 -0.718518 -0.116831 0.000000 -0.124197 0.126915 0.000000 -0.583573 -0.137765 0.000000 -0.238422 0.145666 0.000000 -0.431093 -0.144346 0.000000 -0.351185 0.153586 0.000000 -0.270570 -0.143249 0.000000 -0.457426 0.155514 0.000000 -0.105126 -0.131489 0.000000 -0.547169 0.142678 0.000000 0.049263 -0.104242 0.000000 -0.600678 0.117790 0.000000 0.177788 -0.069468 0.000000 -0.604387 0.091977 0.000000 0.273572 -0.034414 0.000000 -0.547663 0.067076 0.000000 0.330660 0.038649 0.000000 
1.658889 -0.059675 0.000000 0.713806 -0.126754 0.000000 1.292241 0.088432 0.000000 0.611583 -0.363908 0.000000 1.002382 0.092237 0.000000 0.466700 0.267556 0.000000 1.700402 0.144192 0.000000 0.464398 0.138644 0.000000 2.109076 0.069507 0.000000 0.429218 0.095454 0.000000 2.365425 0.025599 0.000000 0.405782 0.080003 0.000000 2.529127 0.008241 0.000000 0.393592 0.057754 0.000000 2.654290 0.020739 0.000000 0.366302 0.020136 0.000000 2.782809 0.051794 0.000000 0.304456 -0.021686 0.000000 2.933603 0.084871 0.000000 0.205033 -0.054952 0.000000 3.102577 0.105130 0.000000 0.085194 -0.071456 0.000000 3.274970 0.112067 0.000000 -0.035625 -0.076932 0.000000 3.440122 0.114972 0.000000 -0.152068 -0.079134 0.000000 3.591312 0.111981 0.000000 -0.266618 -0.078281 0.000000 3.732453 0.109235 0.000000 -0.372367 -0.076440 0.000000 3.865921 0.108889 0.000000 -0.477300 -0.076664 0.000000 3.994207 0.101945 0.000000 -0.568631 -0.059132 0.000000 4.097433 0.072238 0.000000 -0.620105 -0.023542 0.000000 4.152398 0.034687 0.000000 -0.627620 0.009142 0.000000 4.161133 0.002551 0.000000 -0.599862 0.030452 0.000000 4.134938 -0.015207 0.000000 -0.556282 0.035262 0.000000 4.092874 -0.026653 0.000000 -0.507567 0.046998 0.000000 4.024410 -0.055113 0.000000 -0.430013 0.075784 0.000000 3.903123 -0.095346 0.000000 -0.308410 0.105971 0.000000 3.723255 -0.130749 0.000000 -0.150613 0.121046 0.000000 3.503365 -0.149170 0.000000 0.019984 0.119353 0.000000 3.258646 -0.158284 0.000000 0.191817 0.112237 0.000000 2.990126 -0.164456 0.000000 0.361889 0.094925 0.000000 2.707040 -0.154232 0.000000 0.512135 0.057727 0.000000 2.428040 -0.128820 0.000000 0.624793 0.007027 0.000000 2.153929 -0.096325 0.000000 0.709053 -0.054439 0.000000 1.860818 -0.057430 0.000000 0.763793 -0.215561 0.000000 
3.677748 0.053092 0.000000 0.026664 0.474681 0.000000 2.836628 -0.000602 0.000000 -0.163098 0.487271 0.000000 1.415639 0.048267 0.000000 -0.078064 -0.735690 0.000000 3.112990 -0.096789 0.000000 0.047093 -0.421696 0.000000 3.993813 -0.016837 0.000000 0.095792 -0.273672 0.000000 4.577570 0.005091 0.000000 0.115470 -0.190095 0.000000 5.016936 0.008043 0.000000 0.125756 -0.145381 0.000000 5.360469 0.012340 0.000000 0.143026 -0.123566 0.000000 5.623923 0.018707 0.000000 0.175926 -0.113025 0.000000 5.817523 0.025604 0.000000 0.223269 -0.103928 0.000000 5.956804 0.026220 0.000000 0.275969 -0.093456 0.000000 6.060283 0.020041 0.000000 0.325656 -0.082347 0.000000 6.138161 0.013739 0.000000 0.371730 -0.069912 0.000000 6.194297 0.013600 0.000000 0.411348 -0.061128 0.000000 6.235214 0.007259 0.000000 0.446920 -0.056021 0.000000 6.262030 0.007632 0.000000 0.482621 -0.052907 0.000000 6.269935 0.002081 0.000000 0.518138 -0.043806 0.000000 6.271096 -0.011817 0.000000 0.539823 -0.026977 0.000000 6.275720 -0.024200 0.000000 0.544676 -0.009050 0.000000 6.277381 -0.032503 0.000000 0.538801 0.004249 0.000000 6.270386 -0.030337 0.000000 0.533778 0.008985 0.000000 6.243658 -0.022405 0.000000 0.535524 0.019167 0.000000 6.198714 -0.023452 0.000000 0.532882 0.039096 0.000000 6.146582 -0.028509 0.000000 0.517042 0.063036 0.000000 6.086408 -0.030882 0.000000 0.488489 0.082126 0.000000 6.004445 -0.024931 0.000000 0.455407 0.100373 0.000000 5.888571 -0.018247 0.000000 0.420250 0.125271 0.000000 5.735440 -0.014557 0.000000 0.379076 0.151596 0.000000 5.535193 -0.007568 0.000000 0.336705 0.174758 0.000000 5.266271 0.005132 0.000000 0.295018 0.204643 0.000000 4.906110 0.007717 0.000000 0.248787 0.258698 0.000000 4.423151 0.012336 0.000000 0.187934 0.240578 0.000000 
3.796843 0.101595 0.000000 0.208651 0.714366 0.000000 3.092248 0.278194 0.000000 -0.036633 1.057081 0.000000 1.965781 0.007203 0.000000 0.001094 -1.429795 0.000000 3.228059 0.019036 0.000000 -0.023197 -0.742179 0.000000 4.056200 0.020808 0.000000 0.023259 -0.488302 0.000000 4.632927 0.005921 0.000000 0.072911 -0.359363 0.000000 5.064420 -0.002044 0.000000 0.118561 -0.285779 0.000000 5.399041 0.003469 0.000000 0.165456 -0.243317 0.000000 5.660803 0.018895 0.000000 0.215080 -0.215286 0.000000 5.861934 0.037528 0.000000 0.266055 -0.194233 0.000000 6.014898 0.052431 0.000000 0.314324 -0.174934 0.000000 6.133492 0.062380 0.000000 0.354653 -0.154810 0.000000 6.225999 0.068898 0.000000 0.385667 -0.135270 0.000000 6.296037 0.072363 0.000000 0.414682 -0.119198 0.000000 6.348494 0.073663 0.000000 0.436389 -0.103256 0.000000 6.385897 0.073188 0.000000 0.456557 -0.084569 0.000000 6.403175 0.066428 0.000000 0.472603 -0.060294 0.000000 6.408373 0.050552 0.000000 0.480405 -0.028165 0.000000 6.408901 0.029834 0.000000 0.481801 0.007480 0.000000 6.400523 0.008426 0.000000 0.479158 0.037447 0.000000 6.381124 -0.010184 0.000000 0.479740 0.061990 0.000000 6.345515 -0.028399 0.000000 0.486300 0.091941 0.000000 6.292641 -0.052470 0.000000 0.490285 0.127917 0.000000 6.225298 -0.079506 0.000000 0.488676 0.166145 0.000000 6.144052 -0.102195 0.000000 0.481551 0.203008 0.000000 6.039871 -0.116089 0.000000 0.472089 0.235226 0.000000 5.902059 -0.123127 0.000000 0.460956 0.265369 0.000000 5.728522 -0.123281 0.000000 0.445861 0.295172 0.000000 5.511725 -0.111861 0.000000 0.427577 0.326649 0.000000 5.235269 -0.087134 0.000000 0.407187 0.367188 0.000000 4.881951 -0.050093 0.000000 0.368036 0.428520 0.000000 4.440890 0.003423 0.000000 0.295564 0.529842 0.000000 
4.056471 0.140005 0.000000 0.061172 1.179275 0.000000 3.378334 0.244681 0.000000 -0.001261 1.613738 0.000000 2.476863 0.010540 0.000000 -0.008546 -1.997967 0.000000 3.382540 -0.072497 0.000000 0.014738 -1.249837 0.000000 4.169846 -0.063293 0.000000 0.058995 -0.850399 0.000000 4.740691 -0.044561 0.000000 0.095239 -0.621587 0.000000 5.166165 -0.037607 0.000000 0.127532 -0.480001 0.000000 5.494854 -0.034555 0.000000 0.162993 -0.385328 0.000000 5.749664 -0.030916 0.000000 0.205599 -0.314156 0.000000 5.940640 -0.025371 0.000000 0.253582 -0.256892 0.000000 6.081288 -0.022049 0.000000 0.302438 -0.212050 0.000000 6.186735 -0.020289 0.000000 0.348217 -0.174853 0.000000 6.264828 -0.017275 0.000000 0.389535 -0.139950 0.000000 6.319699 -0.015415 0.000000 0.427024 -0.113585 0.000000 6.358365 -0.014448 0.000000 0.460581 -0.093424 0.000000 6.383104 -0.012535 0.000000 0.490867 -0.070185 0.000000 6.390126 -0.013965 0.000000 0.517844 -0.049004 0.000000 6.389634 -0.019619 0.000000 0.537442 -0.027505 0.000000 6.387396 -0.025597 0.000000 0.548555 -0.000673 0.000000 6.375745 -0.029860 0.000000 0.554974 0.023648 0.000000 6.356711 -0.030919 0.000000 0.559318 0.044595 0.000000 6.327112 -0.028966 0.000000 0.561207 0.072041 0.000000 6.280815 -0.027436 0.000000 0.556943 0.106440 0.000000 6.223641 -0.026901 0.000000 0.542489 0.144282 0.000000 6.154940 -0.023757 0.000000 0.517237 0.186307 0.000000 6.064490 -0.015469 0.000000 0.484142 0.238185 0.000000 5.945623 -0.007114 0.000000 0.445617 0.298809 0.000000 5.793475 0.000538 0.000000 0.401621 0.368393 0.000000 5.599291 0.010716 0.000000 0.353274 0.451214 0.000000 5.348735 0.025522 0.000000 0.300325 0.557962 0.000000 5.023671 0.046869 0.000000 0.237156 0.699758 0.000000 4.601917 0.084807 0.000000 0.154166 0.884625 0.000000 
4.253326 0.194589 0.000000 0.187978 1.392503 0.000000 3.708403 0.340627 0.000000 0.112622 1.958552 0.000000 2.985176 0.014488 0.000000 0.105001 -2.335472 0.000000 3.624898 -0.004249 0.000000 0.054581 -1.529484 0.000000 4.254907 -0.023449 0.000000 0.058146 -1.059147 0.000000 4.761683 -0.030323 0.000000 0.088969 -0.784838 0.000000 5.156247 -0.034337 0.000000 0.129877 -0.614467 0.000000 5.468173 -0.031993 0.000000 0.176550 -0.498128 0.000000 5.717494 -0.023711 0.000000 0.228051 -0.406262 0.000000 5.911927 -0.010455 0.000000 0.277451 -0.334880 0.000000 6.057694 0.003574 0.000000 0.322544 -0.280380 0.000000 6.170683 0.016602 0.000000 0.361743 -0.232903 0.000000 6.260628 0.027580 0.000000 0.392864 -0.190141 0.000000 6.323908 0.034874 0.000000 0.418628 -0.157864 0.000000 6.371157 0.040106 0.000000 0.439657 -0.127995 0.000000 6.408631 0.042901 0.000000 0.455729 -0.091592 0.000000 6.426004 0.039451 0.000000 0.467483 -0.059801 0.000000 6.432352 0.030955 0.000000 0.474302 -0.025927 0.000000 6.435617 0.018721 0.000000 0.477285 0.019131 0.000000 6.426381 0.002007 0.000000 0.477943 0.056482 0.000000 6.405338 -0.014528 0.000000 0.479753 0.091590 0.000000 6.374728 -0.030287 0.000000 0.484523 0.138238 0.000000 6.329971 -0.048207 0.000000 0.487924 0.185090 0.000000 6.268088 -0.065052 0.000000 0.488218 0.234846 0.000000 6.191395 -0.076944 0.000000 0.484167 0.293458 0.000000 6.096659 -0.082994 0.000000 0.473103 0.354093 0.000000 5.970432 -0.084602 0.000000 0.457518 0.417517 0.000000 5.810676 -0.079285 0.000000 0.437362 0.489356 0.000000 5.614633 -0.063513 0.000000 0.412296 0.577206 0.000000 5.374382 -0.034185 0.000000 0.380476 0.692252 0.000000 5.079131 0.013076 0.000000 0.336142 0.850274 0.000000 4.714192 0.086412 0.000000 0.275330 1.075287 0.000000 
4.533467 0.227357 0.000000 0.125951 1.724199 0.000000 4.053815 0.320038 0.000000 0.113977 2.336965 0.000000 3.457913 0.018161 0.000000 0.106438 -2.637689 0.000000 3.919188 -0.022077 0.000000 0.079004 -1.879846 0.000000 4.444808 -0.066858 0.000000 0.084721 -1.357175 0.000000 4.907248 -0.075384 0.000000 0.109481 -1.016151 0.000000 5.280466 -0.078515 0.000000 0.143138 -0.791928 0.000000 5.580363 -0.081228 0.000000 0.182892 -0.634649 0.000000 5.820014 -0.082417 0.000000 0.230428 -0.508590 0.000000 6.000396 -0.074772 0.000000 0.279511 -0.402659 0.000000 6.129972 -0.067141 0.000000 0.324940 -0.325039 0.000000 6.228228 -0.059489 0.000000 0.365486 -0.264798 0.000000 6.302156 -0.048396 0.000000 0.402168 -0.203230 0.000000 6.349436 -0.041179 0.000000 0.435085 -0.160834 0.000000 6.385055 -0.035476 0.000000 0.463020 -0.130898 0.000000 6.413462 -0.028608 0.000000 0.486899 -0.087558 0.000000 6.419832 -0.025720 0.000000 0.507558 -0.055352 0.000000 6.422442 -0.026438 0.000000 0.521879 -0.030770 0.000000 6.427571 -0.028579 0.000000 0.530241 0.008563 0.000000 6.413364 -0.030518 0.000000 0.536312 0.044691 0.000000 6.394824 -0.032729 0.000000 0.539380 0.075204 0.000000 6.373943 -0.033736 0.000000 0.539379 0.116798 0.000000 6.332186 -0.030838 0.000000 0.535698 0.168322 0.000000 6.280157 -0.027194 0.000000 0.524507 0.220976 0.000000 6.218319 -0.019707 0.000000 0.503493 0.281043 0.000000 6.132439 -0.004404 0.000000 0.471867 0.364411 0.000000 6.020874 0.008470 0.000000 0.434085 0.458566 0.000000 5.883085 0.020694 0.000000 0.391699 0.564436 0.000000 5.714322 0.035783 0.000000 0.345987 0.691465 0.000000 5.506246 0.057341 0.000000 0.297156 0.853213 0.000000 5.247762 0.091203 0.000000 0.243733 1.064698 0.000000 4.926718 0.145619 0.000000 0.185331 1.345490 0.000000 
4.773608 0.253969 0.000000 0.215527 1.872155 0.000000 4.399954 0.352601 0.000000 0.195241 2.554453 0.000000 3.925635 0.022027 0.000000 0.187828 -2.796747 0.000000 4.241767 0.023184 0.000000 0.134957 -2.055104 0.000000 4.623845 -0.029165 0.000000 0.109097 -1.521587 0.000000 4.997468 -0.055083 0.000000 0.116811 -1.158056 0.000000 5.320462 -0.067994 0.000000 0.147175 -0.914365 0.000000 5.591906 -0.071747 0.000000 0.191850 -0.737779 0.000000 5.819065 -0.071246 0.000000 0.249659 -0.586644 0.000000 6.003414 -0.059539 0.000000 0.301792 -0.464456 0.000000 6.130010 -0.041855 0.000000 0.344007 -0.378637 0.000000 6.227083 -0.023944 0.000000 0.379739 -0.306830 0.000000 6.315891 -0.009102 0.000000 0.408660 -0.237422 0.000000 6.366323 0.001957 0.000000 0.431003 -0.193483 0.000000 6.402808 0.012172 0.000000 0.447517 -0.156401 0.000000 6.446080 0.019023 0.000000 0.461525 -0.097961 0.000000 6.458458 0.018791 0.000000 0.468932 -0.062412 0.000000 6.459781 0.016634 0.000000 0.469959 -0.031056 0.000000 6.469730 0.010359 0.000000 0.473313 0.033338 0.000000 6.462476 -0.004064 0.000000 0.473909 0.075022 0.000000 6.440136 -0.017596 0.000000 0.473136 0.112470 0.000000 6.416187 -0.030286 0.000000 0.478806 0.179995 0.000000 6.384097 -0.044526 0.000000 0.484633 0.237119 0.000000 6.328155 -0.053860 0.000000 0.487532 0.296685 0.000000 6.258064 -0.055930 0.000000 0.486556 0.379338 0.000000 6.183536 -0.051368 0.000000 0.473105 0.465657 0.000000 6.072539 -0.046820 0.000000 0.451028 0.555307 0.000000 5.930705 -0.036900 0.000000 0.422234 0.658118 0.000000 5.765347 -0.017800 0.000000 0.389665 0.785283 0.000000 5.574890 0.014646 0.000000 0.354206 0.950735 0.000000 5.352073 0.066499 0.000000 0.313935 1.171318 0.000000 5.087657 0.144813 0.000000 0.267142 1.468539 0.000000 
5.051932 0.278972 0.000000 0.179065 2.097852 0.000000 4.741464 0.340323 0.000000 0.191272 2.811285 0.000000 4.360389 0.025574 0.000000 0.184406 -2.953822 0.000000 4.576190 0.030793 0.000000 0.144926 -2.261924 0.000000 4.869486 -0.040998 0.000000 0.125610 -1.730797 0.000000 5.184257 -0.083099 0.000000 0.133122 -1.339145 0.000000 5.473212 -0.108879 0.000000 0.161743 -1.063373 0.000000 5.727446 -0.125904 0.000000 0.204473 -0.861808 0.000000 5.942125 -0.140226 0.000000 0.263926 -0.692938 0.000000 6.108386 -0.126905 0.000000 0.319650 -0.529255 0.000000 6.210839 -0.109356 0.000000 0.358956 -0.422112 0.000000 6.291115 -0.095221 0.000000 0.389744 -0.353606 0.000000 6.363466 -0.077318 0.000000 0.423237 -0.253662 0.000000 6.393701 -0.063521 0.000000 0.450981 -0.197320 0.000000 6.420934 -0.051990 0.000000 0.469690 -0.174170 0.000000 6.462077 -0.042616 0.000000 0.490443 -0.099936 0.000000 6.456597 -0.033126 0.000000 0.505392 -0.056674 0.000000 6.456620 -0.027465 0.000000 0.509563 -0.040719 0.000000 6.480697 -0.031933 0.000000 0.515486 0.015817 0.000000 6.457259 -0.031114 0.000000 0.519352 0.067030 0.000000 6.439040 -0.031955 0.000000 0.517496 0.099153 0.000000 6.436523 -0.039406 0.000000 0.519094 0.148888 0.000000 6.396240 -0.036665 0.000000 0.518858 0.224265 0.000000 6.350842 -0.030093 0.000000 0.512245 0.291067 0.000000 6.303566 -0.018731 0.000000 0.498453 0.355570 0.000000 6.225859 0.009046 0.000000 0.464888 0.475408 0.000000 6.122258 0.030548 0.000000 0.423247 0.600401 0.000000 6.002739 0.049488 0.000000 0.377593 0.729793 0.000000 5.867776 0.068351 0.000000 0.332068 0.881922 0.000000 5.712769 0.092800 0.000000 0.288586 1.076030 0.000000 5.529669 0.131475 0.000000 0.247039 1.329114 0.000000 5.310919 0.192412 0.000000 0.208338 1.659539 0.000000 
5.300538 0.283243 0.000000 0.244965 2.182624 0.000000 5.074196 0.340395 0.000000 0.254926 2.935528 0.000000 4.788505 0.028893 0.000000 0.248557 -3.012548 0.000000 4.908097 0.062664 0.000000 0.195998 -2.348400 0.000000 5.093750 -0.009848 0.000000 0.152343 -1.836358 0.000000 5.322920 -0.062596 0.000000 0.136853 -1.447010 0.000000 5.554467 -0.096615 0.000000 0.154340 -1.168599 0.000000 5.771705 -0.114478 0.000000 0.204194 -0.952458 0.000000 5.961688 -0.130699 0.000000 0.289578 -0.752906 0.000000 6.148988 -0.115262 0.000000 0.349113 -0.566909 0.000000 6.234008 -0.081161 0.000000 0.378564 -0.458913 0.000000 6.292736 -0.054732 0.000000 0.404745 -0.379181 0.000000 6.402605 -0.042595 0.000000 0.437428 -0.267657 0.000000 6.425369 -0.025787 0.000000 0.452041 -0.220717 0.000000 6.433813 -0.006538 0.000000 0.454598 -0.197544 0.000000 6.506322 -0.001731 0.000000 0.480167 -0.092482 0.000000 6.503646 0.003842 0.000000 0.478632 -0.062434 0.000000 6.485020 0.012464 0.000000 0.458422 -0.055133 0.000000 6.513327 0.004435 0.000000 0.473999 0.056776 0.000000 6.512896 -0.007930 0.000000 0.471602 0.093241 0.000000 6.481265 -0.015741 0.000000 0.455156 0.114987 0.000000 6.463047 -0.031884 0.000000 0.468133 0.220278 0.000000 6.461396 -0.044290 0.000000 0.482273 0.282518 0.000000 6.408056 -0.047247 0.000000 0.488023 0.343960 0.000000 6.334686 -0.042138 0.000000 0.496757 0.457045 0.000000 6.302752 -0.017803 0.000000 0.487916 0.569258 0.000000 6.201129 -0.005179 0.000000 0.451850 0.674825 0.000000 6.069562 0.008754 0.000000 0.404652 0.793082 0.000000 5.937450 0.027725 0.000000 0.362437 0.940290 0.000000 5.803554 0.058128 0.000000 0.327673 1.133835 0.000000 5.657578 0.108046 0.000000 0.296840 1.390068 0.000000 5.491369 0.183514 0.000000 0.267812 1.727525 0.000000 
5.565835 0.301820 0.000000 0.220525 2.324195 0.000000 5.394730 0.330362 0.000000 0.249023 3.096975 0.000000 5.185544 0.031944 0.000000 0.243410 -3.073414 0.000000 5.239134 0.083352 0.000000 0.199581 -2.447577 0.000000 5.360164 0.002657 0.000000 0.160494 -1.959967 0.000000 5.534495 -0.067609 0.000000 0.142347 -1.570692 0.000000 5.728961 -0.126365 0.000000 0.154000 -1.280610 0.000000 5.934518 -0.175757 0.000000 0.208459 -1.051791 0.000000 6.109989 -0.225610 0.000000 0.338936 -0.880239 0.000000 6.277428 -0.186439 0.000000 0.388661 -0.614275 0.000000 6.317949 -0.138807 0.000000 0.392942 -0.480841 0.000000 6.360427 -0.121402 0.000000 0.424399 -0.463475 0.000000 6.459979 -0.110000 0.000000 0.456778 -0.276426 0.000000 6.447302 -0.078134 0.000000 0.468387 -0.205763 0.000000 6.450154 -0.054547 0.000000 0.477768 -0.246679 0.000000 6.545104 -0.068185 0.000000 0.511149 -0.097260 0.000000 6.493791 -0.031591 0.000000 0.509490 -0.038049 0.000000 6.477709 -0.007255 0.000000 0.487203 -0.069026 0.000000 6.564170 -0.047510 0.000000 0.515389 0.016249 0.000000 6.499621 -0.028717 0.000000 0.503643 0.098661 0.000000 6.477113 -0.015509 0.000000 0.477672 0.117372 0.000000 6.523546 -0.052383 0.000000 0.508321 0.150539 0.000000 6.469756 -0.050805 0.000000 0.501694 0.277606 0.000000 6.433275 -0.035844 0.000000 0.494780 0.364436 0.000000 6.415597 -0.027464 0.000000 0.521149 0.387504 0.000000 6.344772 0.017887 0.000000 0.474834 0.577031 0.000000 6.233542 0.066614 0.000000 0.415729 0.731967 0.000000 6.129117 0.096687 0.000000 0.357072 0.861906 0.000000 6.033809 0.110566 0.000000 0.309733 1.015818 0.000000 5.939010 0.127564 0.000000 0.274340 1.222005 0.000000 5.833040 0.162308 0.000000 0.247223 1.495323 0.000000 5.709304 0.221439 0.000000 0.227381 1.850370 0.000000 
5.807009 0.290099 0.000000 0.272139 2.353728 0.000000 5.703886 0.311897 0.000000 0.302956 3.144714 0.000000 5.574757 0.034505 0.000000 0.298166 -3.066137 0.000000 5.552428 0.106493 0.000000 0.249174 -2.469431 0.000000 5.590294 0.029239 0.000000 0.187225 -2.010688 0.000000 5.690143 -0.044449 0.000000 0.126964 -1.641476 0.000000 5.833570 -0.108268 0.000000 0.089885 -1.374156 0.000000 6.011185 -0.168936 0.000000 0.144771 -1.127929 0.000000 6.131298 -0.261177 0.000000 0.449721 -0.920344 0.000000 6.377650 -0.164987 0.000000 0.435229 -0.607431 0.000000 6.362675 -0.085442 0.000000 0.368293 -0.501391 0.000000 6.329116 -0.086189 0.000000 0.464796 -0.478732 0.000000 6.555911 -0.074974 0.000000 0.500950 -0.254980 0.000000 6.497885 -0.037397 0.000000 0.449818 -0.223568 0.000000 6.427273 -0.015919 0.000000 0.452926 -0.292495 0.000000 6.624535 -0.035111 0.000000 0.559519 -0.041168 0.000000 6.559426 0.005500 0.000000 0.485800 -0.046353 0.000000 6.481609 0.034751 0.000000 0.394584 -0.141594 0.000000 6.579559 -0.023751 0.000000 0.530021 0.121325 0.000000 6.583005 0.003817 0.000000 0.473627 0.115749 0.000000 6.515640 0.010231 0.000000 0.375775 0.068554 0.000000 6.502773 -0.062533 0.000000 0.483222 0.274068 0.000000 6.576667 -0.037664 0.000000 0.480445 0.318998 0.000000 6.511746 -0.040332 0.000000 0.451547 0.361639 0.000000 6.403449 -0.068507 0.000000 0.539508 0.527870 0.000000 6.482424 0.028511 0.000000 0.566392 0.680488 0.000000 6.339749 0.053926 0.000000 0.463536 0.779250 0.000000 6.194640 0.067411 0.000000 0.370789 0.888390 0.000000 6.104428 0.075064 0.000000 0.321035 1.035090 0.000000 6.037285 0.093522 0.000000 0.296244 1.239805 0.000000 5.969399 0.135162 0.000000 0.281407 1.513804 0.000000 5.892987 0.203357 0.000000 0.271797 1.870994 0.000000 
6.054154 0.301478 0.000000 0.255644 2.427318 0.000000 5.997936 0.299545 0.000000 0.298502 3.226103 0.000000 5.934248 0.036734 0.000000 0.294698 -3.051084 0.000000 5.862930 0.132344 0.000000 0.259302 -2.485443 0.000000 5.853855 0.064607 0.000000 0.206563 -2.059816 0.000000 5.906247 -0.007348 0.000000 0.137154 -1.714119 0.000000 6.008764 -0.089287 0.000000 0.041302 -1.458224 0.000000 6.198280 -0.230643 0.000000 -0.002184 -1.171904 0.000000 6.346785 -0.530561 0.000000 0.736696 -1.126591 0.000000 6.523804 -0.171947 0.000000 0.477942 -0.599300 0.000000 6.407907 -0.071871 0.000000 0.201813 -0.447282 0.000000 6.431784 -0.217905 0.000000 0.646731 -0.690269 0.000000 6.621810 -0.146154 0.000000 0.509571 -0.218400 0.000000 6.479374 -0.027002 0.000000 0.344731 -0.135151 0.000000 6.449540 -0.057655 0.000000 0.580241 -0.443941 0.000000 6.725927 -0.174779 0.000000 0.593038 -0.032152 0.000000 6.490648 0.042127 0.000000 0.452278 0.039768 0.000000 6.444452 0.083960 0.000000 0.410493 -0.166976 0.000000 6.762668 -0.182947 0.000000 0.618618 0.012803 0.000000 6.488355 0.027677 0.000000 0.455138 0.166026 0.000000 6.468820 0.082343 0.000000 0.289136 0.130238 0.000000 6.707627 -0.159830 0.000000 0.627795 0.076645 0.000000 6.507430 -0.048028 0.000000 0.445992 0.342527 0.000000 6.504372 -0.006945 0.000000 0.330156 0.472733 0.000000 6.620236 -0.115426 0.000000 0.708087 0.308529 0.000000 6.493265 -0.008997 0.000000 0.520001 0.719706 0.000000 6.310300 0.169470 0.000000 0.399241 0.877076 0.000000 6.226950 0.189434 0.000000 0.310472 0.952117 0.000000 6.192305 0.160320 0.000000 0.268556 1.082961 0.000000 6.169700 0.152355 0.000000 0.251795 1.289890 0.000000 6.139657 0.177146 0.000000 0.244413 1.571735 0.000000 6.100112 0.231049 0.000000 0.243562 1.936348 0.000000 
6.279926 0.278017 0.000000 0.298480 2.409947 0.000000 6.279057 0.269039 0.000000 0.347292 3.208402 0.000000 6.285085 0.038309 0.000000 0.344628 -2.994820 0.000000 6.149353 0.141889 0.000000 0.322506 -2.460356 0.000000 6.067953 0.081978 0.000000 0.272257 -2.063080 0.000000 6.040437 0.024960 0.000000 0.161506 -1.743994 0.000000 6.084470 -0.012416 0.000000 -0.074808 -1.563672 0.000000 6.271032 -0.125450 0.000000 -0.239206 -1.276433 0.000000 6.366607 -1.000057 0.000000 1.091810 -1.097364 0.000000 6.707440 0.093766 0.000000 0.491480 -0.491534 0.000000 6.397365 0.190687 0.000000 -0.236260 -0.525268 0.000000 6.361945 -0.531107 0.000000 0.867021 -0.668758 0.000000 6.885182 0.062187 0.000000 0.739525 -0.112543 0.000000 6.482390 0.127443 0.000000 -0.025042 -0.193734 0.000000 6.374087 -0.251428 0.000000 0.534591 -0.568882 0.000000 6.939531 -0.047908 0.000000 1.020094 0.194110 0.000000 6.537934 0.146261 0.000000 0.236607 -0.000156 0.000000 6.398056 0.076535 0.000000 0.056609 -0.459810 0.000000 6.789717 -0.231875 0.000000 1.064361 0.395638 0.000000 6.625909 0.167296 0.000000 0.398319 0.135284 0.000000 6.467244 0.176233 0.000000 -0.200511 -0.170253 0.000000 6.635157 -0.401192 0.000000 0.960301 0.474265 0.000000 6.720750 0.144140 0.000000 0.469371 0.322057 0.000000 6.565552 0.075504 0.000000 -0.175517 0.245775 0.000000 6.570461 -0.446438 0.000000 0.946987 0.654841 0.000000 6.833334 0.216597 0.000000 0.839202 0.863453 0.000000 6.395108 0.174686 0.000000 0.404684 0.862601 0.000000 6.251934 0.156180 0.000000 0.266076 0.923034 0.000000 6.256607 0.116980 0.000000 0.251326 1.057694 0.000000 6.272431 0.110283 0.000000 0.259117 1.269849 0.000000 6.277922 0.142544 0.000000 0.267760 1.553349 0.000000 6.278426 0.204208 0.000000 0.277876 1.916952 0.000000 
6.506093 0.280874 0.000000 0.288661 2.428188 0.000000 6.544304 0.250732 0.000000 0.343771 3.220075 0.000000 6.607108 0.039399 0.000000 0.342130 -2.915353 0.000000 6.430664 0.154466 0.000000 0.340513 -2.404043 0.000000 6.313475 0.114855 0.000000 0.327652 -2.032299 0.000000 6.253138 0.103403 0.000000 0.290786 -1.758153 0.000000 6.245702 0.147028 0.000000 0.232660 -1.644786 0.000000 6.238620 -0.066245 0.000000 0.185879 -1.267479 0.000000 6.381405 -1.861577 0.000000 0.389201 -1.467424 0.000000 6.014764 0.428383 0.000000 -0.260480 -0.289226 0.000000 6.123453 0.655869 0.000000 -0.358859 -0.411862 0.000000 6.462587 -1.321186 0.000000 0.608922 -1.213506 0.000000 6.339346 -0.018659 0.000000 0.096312 0.184392 0.000000 6.204031 0.737566 0.000000 -0.376330 -0.026848 0.000000 6.448859 -0.617289 0.000000 0.552719 -1.009385 0.000000 6.681781 -0.660281 0.000000 0.676192 0.369445 0.000000 6.225452 0.825615 0.000000 -0.142498 0.179647 0.000000 6.319741 0.263957 0.000000 0.276479 -0.558636 0.000000 6.816704 -1.190699 0.000000 1.200150 0.176610 0.000000 6.222430 0.693719 0.000000 0.177557 0.324691 0.000000 6.253800 0.681173 0.000000 0.024480 -0.037674 0.000000 6.755845 -1.320641 0.000000 1.427536 -0.008948 0.000000 6.313952 0.442902 0.000000 0.319362 0.497725 0.000000 6.334554 0.637942 0.000000 -0.121043 0.467823 0.000000 6.758436 -1.237930 0.000000 1.687501 0.045657 0.000000 6.687225 0.098788 0.000000 0.901226 1.157931 0.000000 6.243931 0.603988 0.000000 0.273703 1.020250 0.000000 6.266581 0.328041 0.000000 0.175784 0.947444 0.000000 6.357807 0.175070 0.000000 0.201919 1.067138 0.000000 6.412515 0.144564 0.000000 0.227529 1.284399 0.000000 6.444559 0.168503 0.000000 0.243719 1.571231 0.000000 6.472540 0.220932 0.000000 0.259916 1.934848 0.000000 