# vtk DataFile Version 2.0
Comment goes here
ASCII

DATASET STRUCTURED_POINTS
FIELD FieldData 1
TIME 1 1 double
0.03900000
DIMENSIONS    64   64   1

ORIGIN    0.000   0.000   0.000
SPACING   0.03125 0.03125   1.000

POINT_DATA   4096
SCALARS uX double
LOOKUP_TABLE default

7.556124e-01 -1.219154e+00 4.824145e-01 -1.080635e+00 2.515763e-01 -9.790221e-01 2.861820e-01 -8.962112e-01 2.988828e-01 -8.351766e-01 2.949918e-01 -7.793182e-01 2.785402e-01 -7.226082e-01 2.420665e-01 -6.384547e-01 1.482965e-01 -4.844083e-01 -2.348314e-02 -2.635803e-01 -2.434318e-01 -2.443082e-02 -4.566381e-01 1.834748e-01 -6.217241e-01 3.297668e-01 -7.179455e-01 4.012211e-01 -7.403224e-01 3.964421e-01 -6.986379e-01 3.413517e-01 -6.301938e-01 2.740940e-01 -5.661479e-01 2.193280e-01 -5.284657e-01 1.963014e-01 -5.325217e-01 2.207620e-01 -5.907825e-01 2.982147e-01 -6.911734e-01 3.983234e-01 -7.933897e-01 4.729638e-01 -8.413684e-01 4.705194e-01 -7.974574e-01 3.722807e-01 -6.680947e-01 1.972900e-01 -4.820330e-01 -1.946676e-02 -2.708286e-01 -2.568039e-01 -5.333221e-02 -5.003691e-01 1.585306e-01 -7.420416e-01 3.582361e-01 -9.785913e-01 5.449459e-01 -1.216004e+00 
-4.881690e-01 2.971890e-01 -2.031279e-01 2.189513e-01 1.099782e-02 1.768177e-01 -1.280530e-01 1.361367e-01 -2.160701e-01 1.123430e-01 -2.736569e-01 9.305405e-02 -3.124906e-01 7.477316e-02 -3.337306e-01 4.292120e-02 -3.193889e-01 -2.746516e-02 -2.584452e-01 -1.354794e-01 -1.677669e-01 -2.544477e-01 -7.899189e-02 -3.574565e-01 -1.404410e-02 -4.290573e-01 1.922010e-02 -4.653079e-01 1.894837e-02 -4.621238e-01 -1.325337e-02 -4.310226e-01 -5.541955e-02 -3.953501e-01 -9.193253e-02 -3.643212e-01 -1.134501e-01 -3.486404e-01 -1.122878e-01 -3.574745e-01 -8.022069e-02 -3.955073e-01 -2.444070e-02 -4.467671e-01 3.668436e-02 -4.891427e-01 7.309838e-02 -4.925832e-01 6.363539e-02 -4.481389e-01 1.451872e-02 -3.669520e-01 -5.763091e-02 -2.673670e-01 -1.360402e-01 -1.586502e-01 -2.116912e-01 -4.699602e-02 -2.782983e-01 6.416437e-02 -3.325329e-01 1.745670e-01 -3.753428e-01 2.959447e-01 
6.979722e-01 5.587926e-01 6.967035e-01 4.563548e-01 5.343464e-01 3.818404e-01 8.697796e-01 3.563815e-01 1.089034e+00 3.264434e-01 1.248982e+00 2.952748e-01 1.371904e+00 2.671093e-01 1.476951e+00 2.249993e-01 1.599913e+00 1.376543e-01 1.763301e+00 6.173408e-03 1.949974e+00 -1.333785e-01 2.123709e+00 -2.469002e-01 2.258982e+00 -3.181376e-01 2.342079e+00 -3.418879e-01 2.372156e+00 -3.176631e-01 2.353450e+00 -2.653606e-01 2.312585e+00 -2.130447e-01 2.270810e+00 -1.744646e-01 2.241580e+00 -1.602088e-01 2.235802e+00 -1.806755e-01 2.264546e+00 -2.400044e-01 2.322005e+00 -3.168845e-01 2.381285e+00 -3.791405e-01 2.402747e+00 -3.888691e-01 2.358450e+00 -3.341599e-01 2.252415e+00 -2.314431e-01 2.102951e+00 -1.067812e-01 1.928701e+00 2.662180e-02 1.737592e+00 1.609639e-01 1.532371e+00 2.926971e-01 1.310406e+00 4.259608e-01 1.058520e+00 5.797188e-01 
2.293605e+00 -7.223524e-02 1.598753e+00 -8.128430e-02 7.377103e-01 -4.067052e-02 1.658298e+00 -2.071389e-02 2.211752e+00 -7.304998e-03 2.590839e+00 4.831354e-03 2.872395e+00 1.311349e-02 3.091106e+00 2.325932e-02 3.252234e+00 5.109394e-02 3.356423e+00 9.682039e-02 3.420530e+00 1.453740e-01 3.466755e+00 1.836960e-01 3.508065e+00 2.069418e-01 3.548418e+00 2.164536e-01 3.590062e+00 2.092810e-01 3.636252e+00 1.919169e-01 3.675177e+00 1.773005e-01 3.702142e+00 1.659948e-01 3.715496e+00 1.606688e-01 3.711877e+00 1.659258e-01 3.686346e+00 1.857198e-01 3.640726e+00 2.121255e-01 3.581248e+00 2.352463e-01 3.521873e+00 2.390265e-01 3.471827e+00 2.199806e-01 3.423122e+00 1.870187e-01 3.363663e+00 1.517740e-01 3.282485e+00 1.175056e-01 3.172376e+00 8.497827e-02 3.024300e+00 5.195247e-02 2.826702e+00 1.245693e-02 2.564274e+00 -5.563055e-02 
2.294773e+00 1.236319e-02 1.754742e+00 -2.130281e-02 1.067075e+00 -2.759397e-03 1.793984e+00 -4.018150e-03 2.284335e+00 1.351870e-02 2.635383e+00 3.484533e-02 2.900928e+00 5.348088e-02 3.108901e+00 7.046094e-02 3.269358e+00 9.139070e-02 3.386087e+00 1.171068e-01 3.469782e+00 1.403473e-01 3.533277e+00 1.560751e-01 3.583503e+00 1.642504e-01 3.624573e+00 1.678049e-01 3.659033e+00 1.655264e-01 3.690930e+00 1.599789e-01 3.715322e+00 1.575060e-01 3.732003e+00 1.569714e-01 3.741575e+00 1.575762e-01 3.740982e+00 1.617235e-01 3.727894e+00 1.706555e-01 3.701523e+00 1.804045e-01 3.661706e+00 1.882453e-01 3.613411e+00 1.871120e-01 3.560033e+00 1.751940e-01 3.496304e+00 1.575455e-01 3.416286e+00 1.401842e-01 3.315309e+00 1.245922e-01 3.189341e+00 1.106988e-01 3.031246e+00 9.760795e-02 2.830216e+00 7.954619e-02 2.575164e+00 3.841380e-02 
2.369932e+00 -5.075383e-02 1.917964e+00 -5.002660e-02 1.372381e+00 -5.204287e-02 1.910169e+00 -2.565191e-02 2.354804e+00 -6.629418e-03 2.691316e+00 1.026440e-02 2.948643e+00 2.711497e-02 3.147824e+00 4.677844e-02 3.297883e+00 7.338359e-02 3.402959e+00 1.070508e-01 3.474766e+00 1.417881e-01 3.526890e+00 1.709644e-01 3.568045e+00 1.916894e-01 3.603880e+00 2.032474e-01 3.638436e+00 2.045414e-01 3.672097e+00 1.983942e-01 3.700023e+00 1.907715e-01 3.720557e+00 1.842788e-01 3.731738e+00 1.809793e-01 3.729038e+00 1.844394e-01 3.711383e+00 1.950436e-01 3.679791e+00 2.078269e-01 3.635634e+00 2.180183e-01 3.585760e+00 2.185226e-01 3.534252e+00 2.056318e-01 3.476793e+00 1.824404e-01 3.407584e+00 1.539887e-01 3.320987e+00 1.231077e-01 3.211272e+00 9.092816e-02 3.071131e+00 5.704183e-02 2.891406e+00 1.967849e-02 2.661618e+00 -2.373592e-02 
2.463158e+00 2.743025e-02 2.105509e+00 8.713050e-03 1.676262e+00 6.319496e-03 2.085233e+00 1.244292e-02 2.450167e+00 2.399841e-02 2.742665e+00 4.054397e-02 2.974961e+00 5.949635e-02 3.160981e+00 7.954328e-02 3.308174e+00 9.964394e-02 3.417629e+00 1.196248e-01 3.498492e+00 1.377814e-01 3.561191e+00 1.512863e-01 3.610040e+00 1.595351e-01 3.647889e+00 1.646909e-01 3.679819e+00 1.664401e-01 3.707513e+00 1.650009e-01 3.726656e+00 1.648140e-01 3.740121e+00 1.658725e-01 3.748581e+00 1.662427e-01 3.745662e+00 1.692464e-01 3.733600e+00 1.749239e-01 3.713625e+00 1.791270e-01 3.680921e+00 1.815394e-01 3.638921e+00 1.795334e-01 3.589956e+00 1.699041e-01 3.528704e+00 1.545762e-01 3.451573e+00 1.377545e-01 3.357500e+00 1.217322e-01 3.243831e+00 1.068668e-01 3.105229e+00 9.189837e-02 2.934535e+00 7.350805e-02 2.723965e+00 4.703164e-02 
2.595164e+00 -1.400125e-02 2.299741e+00 -2.051268e-02 1.958051e+00 -2.303588e-02 2.261085e+00 -1.088417e-02 2.565776e+00 3.868670e-03 2.826302e+00 2.092779e-02 3.039295e+00 4.108822e-02 3.211473e+00 6.417915e-02 3.347187e+00 8.863928e-02 3.443200e+00 1.150754e-01 3.511940e+00 1.413996e-01 3.565060e+00 1.635420e-01 3.605388e+00 1.801350e-01 3.637653e+00 1.916294e-01 3.667973e+00 1.967019e-01 3.695598e+00 1.954661e-01 3.715171e+00 1.935239e-01 3.730095e+00 1.919831e-01 3.739651e+00 1.894637e-01 3.734866e+00 1.916836e-01 3.720585e+00 1.980547e-01 3.699337e+00 2.024492e-01 3.664716e+00 2.053506e-01 3.623373e+00 2.031553e-01 3.578457e+00 1.903348e-01 3.522840e+00 1.689337e-01 3.454948e+00 1.430671e-01 3.374154e+00 1.156584e-01 3.277133e+00 8.796781e-02 3.158209e+00 6.000211e-02 3.010511e+00 3.136940e-02 2.826370e+00 3.369464e-03 
2.728479e+00 3.945492e-02 2.497626e+00 2.738534e-02 2.237381e+00 2.491185e-02 2.458958e+00 2.723865e-02 2.695067e+00 3.432806e-02 2.909410e+00 4.748169e-02 3.093732e+00 6.680062e-02 3.250626e+00 9.018441e-02 3.382401e+00 1.106440e-01 3.476214e+00 1.261385e-01 3.544953e+00 1.410611e-01 3.602428e+00 1.533107e-01 3.646624e+00 1.589646e-01 3.676887e+00 1.649477e-01 3.704867e+00 1.705838e-01 3.731446e+00 1.691120e-01 3.743271e+00 1.703289e-01 3.753445e+00 1.745098e-01 3.765653e+00 1.725421e-01 3.759290e+00 1.739084e-01 3.747996e+00 1.796339e-01 3.737873e+00 1.798209e-01 3.709481e+00 1.788593e-01 3.672229e+00 1.781965e-01 3.632178e+00 1.699361e-01 3.576387e+00 1.526305e-01 3.503344e+00 1.330518e-01 3.419243e+00 1.153205e-01 3.323702e+00 1.000594e-01 3.212295e+00 8.585508e-02 3.079651e+00 7.062669e-02 2.920453e+00 5.354452e-02 
2.876604e+00 9.289185e-03 2.694470e+00 3.673937e-03 2.496092e+00 1.402880e-03 2.650699e+00 5.637999e-03 2.834284e+00 1.527930e-02 3.012536e+00 3.084437e-02 3.172263e+00 5.373263e-02 3.312531e+00 8.167166e-02 3.434401e+00 1.055438e-01 3.510242e+00 1.253026e-01 3.565617e+00 1.459567e-01 3.616155e+00 1.638695e-01 3.650222e+00 1.747249e-01 3.673683e+00 1.858937e-01 3.700446e+00 1.952610e-01 3.725390e+00 1.934451e-01 3.734520e+00 1.948646e-01 3.745479e+00 1.995566e-01 3.760133e+00 1.937735e-01 3.750307e+00 1.945644e-01 3.738404e+00 2.019562e-01 3.731918e+00 1.994897e-01 3.701271e+00 1.978018e-01 3.666415e+00 1.971261e-01 3.633897e+00 1.840691e-01 3.580760e+00 1.601064e-01 3.514607e+00 1.327623e-01 3.443056e+00 1.066334e-01 3.364521e+00 8.276739e-02 3.273576e+00 6.061212e-02 3.164772e+00 3.980099e-02 3.033625e+00 2.158198e-02 
3.022563e+00 4.907851e-02 2.889630e+00 4.256940e-02 2.751514e+00 4.047958e-02 2.848779e+00 3.850109e-02 2.977707e+00 4.075597e-02 3.113289e+00 4.995296e-02 3.243969e+00 7.051808e-02 3.369115e+00 1.035159e-01 3.492746e+00 1.320772e-01 3.558321e+00 1.352138e-01 3.603888e+00 1.457277e-01 3.657795e+00 1.650652e-01 3.694725e+00 1.595233e-01 3.708705e+00 1.637963e-01 3.733834e+00 1.824934e-01 3.766801e+00 1.724588e-01 3.761559e+00 1.715832e-01 3.767842e+00 1.873587e-01 3.797860e+00 1.781193e-01 3.777612e+00 1.737662e-01 3.764438e+00 1.865033e-01 3.778640e+00 1.841566e-01 3.746342e+00 1.754583e-01 3.711002e+00 1.804891e-01 3.691210e+00 1.808659e-01 3.639488e+00 1.543103e-01 3.564743e+00 1.258095e-01 3.491702e+00 1.047954e-01 3.418924e+00 9.026085e-02 3.339611e+00 7.891918e-02 3.248703e+00 6.835232e-02 3.143339e+00 5.796471e-02 
3.171268e+00 2.619244e-02 3.078102e+00 2.314412e-02 2.987435e+00 2.132613e-02 3.037652e+00 1.953093e-02 3.124104e+00 2.274973e-02 3.225812e+00 3.399366e-02 3.330872e+00 5.996491e-02 3.438813e+00 1.017850e-01 3.563346e+00 1.360461e-01 3.596433e+00 1.353862e-01 3.627060e+00 1.491493e-01 3.684681e+00 1.777336e-01 3.702344e+00 1.698399e-01 3.707595e+00 1.776742e-01 3.738453e+00 2.077241e-01 3.765513e+00 1.900401e-01 3.752119e+00 1.900022e-01 3.762113e+00 2.160634e-01 3.799117e+00 1.950297e-01 3.767617e+00 1.898095e-01 3.756018e+00 2.114587e-01 3.785363e+00 2.000329e-01 3.741388e+00 1.888115e-01 3.711076e+00 1.978424e-01 3.711316e+00 1.922391e-01 3.649318e+00 1.566348e-01 3.577480e+00 1.206583e-01 3.517671e+00 9.375239e-02 3.463226e+00 7.408372e-02 3.404970e+00 5.830864e-02 3.337694e+00 4.477391e-02 3.259511e+00 3.370640e-02 
3.317581e+00 5.720780e-02 3.263672e+00 5.513357e-02 3.219410e+00 5.357468e-02 3.225698e+00 4.691933e-02 3.267703e+00 4.167203e-02 3.330425e+00 4.112103e-02 3.406383e+00 5.756830e-02 3.501857e+00 1.119680e-01 3.657367e+00 1.998347e-01 3.653436e+00 1.364892e-01 3.658515e+00 1.272260e-01 3.738136e+00 2.168033e-01 3.754414e+00 1.521560e-01 3.729870e+00 1.358301e-01 3.769439e+00 2.300323e-01 3.826180e+00 1.733422e-01 3.767223e+00 1.488504e-01 3.773737e+00 2.206767e-01 3.867256e+00 1.908965e-01 3.786128e+00 1.536840e-01 3.765760e+00 1.954441e-01 3.860011e+00 2.095507e-01 3.780433e+00 1.568943e-01 3.741248e+00 1.700435e-01 3.789454e+00 2.317371e-01 3.717304e+00 1.615838e-01 3.620766e+00 1.094762e-01 3.562987e+00 8.581194e-02 3.520007e+00 7.579689e-02 3.476746e+00 7.025814e-02 3.428308e+00 6.557946e-02 3.374432e+00 6.106019e-02 
3.459928e+00 3.940662e-02 3.439008e+00 3.952674e-02 3.432744e+00 3.828589e-02 3.403059e+00 3.117337e-02 3.410395e+00 2.472826e-02 3.443097e+00 2.215049e-02 3.494676e+00 4.063601e-02 3.572036e+00 1.090023e-01 3.770550e+00 2.395346e-01 3.676925e+00 1.231479e-01 3.670996e+00 1.058319e-01 3.804646e+00 2.610502e-01 3.749650e+00 1.468083e-01 3.717741e+00 1.203553e-01 3.804108e+00 2.892970e-01 3.821456e+00 1.738289e-01 3.745184e+00 1.435724e-01 3.777682e+00 2.818942e-01 3.881230e+00 1.941163e-01 3.761700e+00 1.519452e-01 3.753648e+00 2.379704e-01 3.899088e+00 2.203519e-01 3.760031e+00 1.569569e-01 3.735880e+00 1.851377e-01 3.862277e+00 2.487697e-01 3.715901e+00 1.575786e-01 3.623074e+00 9.729623e-02 3.586072e+00 7.132867e-02 3.565206e+00 5.998982e-02 3.543466e+00 5.290022e-02 3.517385e+00 4.698233e-02 3.488280e+00 4.223757e-02 
3.600234e+00 6.474210e-02 3.611104e+00 6.701159e-02 3.641626e+00 6.608936e-02 3.576762e+00 5.645060e-02 3.546141e+00 4.212691e-02 3.538883e+00 1.923119e-02 3.550948e+00 -6.960160e-03 3.611241e+00 1.415707e-02 3.971959e+00 4.994983e-01 3.703564e+00 6.413665e-02 3.646247e+00 -7.214015e-02 3.929263e+00 4.979917e-01 3.802739e+00 9.375996e-02 3.678153e+00 -7.078827e-02 3.861374e+00 4.702548e-01 3.940028e+00 1.634078e-01 3.694954e+00 -1.016393e-02 3.763482e+00 3.415571e-01 4.060069e+00 2.652483e-01 3.715188e+00 3.649153e-02 3.701768e+00 1.716625e-01 4.100889e+00 3.800688e-01 3.740884e+00 6.354446e-02 3.700097e+00 2.165298e-02 4.056162e+00 4.903069e-01 3.776734e+00 1.462002e-01 3.634346e+00 5.730559e-02 3.622381e+00 5.024475e-02 3.622436e+00 5.579522e-02 3.617675e+00 6.041928e-02 3.609559e+00 6.277763e-02 3.602057e+00 6.383893e-02 
3.732650e+00 5.096475e-02 3.770918e+00 5.515093e-02 3.832531e+00 5.458513e-02 3.737937e+00 4.574733e-02 3.677182e+00 3.067118e-02 3.641371e+00 8.017604e-04 3.629232e+00 -4.699034e-02 3.666530e+00 -9.813157e-03 3.912254e+00 3.364640e-01 3.607460e+00 -6.032013e-02 3.609301e+00 -1.043069e-01 3.907749e+00 4.343115e-01 3.675269e+00 -1.433399e-02 3.608012e+00 -1.202681e-01 3.858543e+00 4.496116e-01 3.838491e+00 6.094253e-02 3.616507e+00 -9.077275e-02 3.762820e+00 3.391814e-01 4.023670e+00 1.974626e-01 3.622323e+00 -4.013547e-02 3.674173e+00 1.860229e-01 4.116827e+00 3.914021e-01 3.624304e+00 1.310349e-02 3.644225e+00 4.979817e-02 4.135420e+00 6.234592e-01 3.676776e+00 1.198932e-01 3.609099e+00 2.821931e-02 3.644380e+00 3.047073e-02 3.670365e+00 4.050779e-02 3.685169e+00 4.607631e-02 3.696405e+00 4.821261e-02 3.710246e+00 4.925602e-02 
3.863188e+00 7.264838e-02 3.927268e+00 7.961518e-02 4.018598e+00 7.939685e-02 3.897422e+00 7.268295e-02 3.806336e+00 6.089840e-02 3.727721e+00 3.515765e-02 3.624500e+00 -4.254035e-02 3.393734e+00 -2.965535e-01 2.486673e+00 -1.236261e+00 3.139602e+00 -4.571764e-01 3.266562e+00 -2.854610e-01 2.671437e+00 -1.282707e+00 3.003112e+00 -5.377386e-01 3.257006e+00 -3.031726e-01 2.887375e+00 -1.266952e+00 2.777926e+00 -6.636001e-01 3.249498e+00 -3.923025e-01 3.105241e+00 -1.060315e+00 2.554787e+00 -8.005030e-01 3.204211e+00 -4.129709e-01 3.222885e+00 -7.141227e-01 2.494042e+00 -9.161357e-01 3.163133e+00 -3.642922e-01 3.261593e+00 -3.464365e-01 2.687822e+00 -9.779943e-01 3.242896e+00 -3.287076e-01 3.581732e+00 -8.352605e-02 3.689083e+00 2.284657e-03 3.733094e+00 3.705025e-02 3.760626e+00 5.322701e-02 3.786663e+00 6.185057e-02 3.818730e+00 6.752550e-02 
3.983442e+00 6.211182e-02 4.070204e+00 7.066573e-02 4.187213e+00 7.080280e-02 4.041057e+00 6.676825e-02 3.922014e+00 6.113530e-02 3.807047e+00 4.986361e-02 3.642780e+00 -9.940245e-03 3.293923e+00 -3.392787e-01 2.141487e+00 -1.582914e+00 2.980624e+00 -4.931489e-01 3.109129e+00 -3.190758e-01 2.205497e+00 -1.861356e+00 2.756570e+00 -6.666912e-01 3.091671e+00 -3.559439e-01 2.439585e+00 -1.960371e+00 2.339841e+00 -9.108774e-01 3.078268e+00 -5.041104e-01 2.762099e+00 -1.700882e+00 1.871634e+00 -1.217307e+00 3.017938e+00 -5.774764e-01 2.974863e+00 -1.192400e+00 1.657874e+00 -1.561072e+00 2.976119e+00 -5.643944e-01 3.063306e+00 -6.341272e-01 1.834582e+00 -1.914077e+00 3.100606e+00 -5.791576e-01 3.613932e+00 -1.450706e-01 3.739404e+00 -1.647209e-02 3.790129e+00 2.664462e-02 3.828482e+00 4.345184e-02 3.869114e+00 5.134082e-02 3.918750e+00 5.657418e-02 
4.101724e+00 8.110111e-02 4.209492e+00 9.137038e-02 4.350670e+00 9.177302e-02 4.188311e+00 8.744787e-02 4.056395e+00 7.994355e-02 3.943279e+00 6.830586e-02 3.834383e+00 4.979495e-02 3.727366e+00 4.076994e-02 3.743782e+00 4.786130e-02 3.522894e+00 -6.235710e-02 3.541737e+00 -6.562977e-02 3.575663e+00 -1.231213e-01 3.449515e+00 -1.603446e-01 3.501683e+00 -1.446060e-01 3.529724e+00 -2.411919e-01 3.408882e+00 -2.487737e-01 3.489291e+00 -2.206143e-01 3.528496e+00 -2.850274e-01 3.374008e+00 -3.057323e-01 3.468724e+00 -2.459879e-01 3.525598e+00 -2.561837e-01 3.349478e+00 -3.380933e-01 3.455326e+00 -2.345097e-01 3.535142e+00 -1.880358e-01 3.392868e+00 -3.767959e-01 3.521974e+00 -2.042686e-01 3.707934e+00 -6.474826e-02 3.795978e+00 3.522640e-03 3.851421e+00 3.675617e-02 3.900272e+00 5.423539e-02 3.953737e+00 6.488495e-02 4.018786e+00 7.302692e-02 
4.208176e+00 7.272826e-02 4.334777e+00 8.307851e-02 4.497122e+00 8.377122e-02 4.318148e+00 7.837229e-02 4.171478e+00 6.705867e-02 4.052528e+00 4.453291e-02 3.965727e+00 1.010510e-02 3.958127e+00 2.602628e-02 4.333427e+00 6.099028e-01 3.907213e+00 8.152649e-02 3.803049e+00 -6.925018e-02 4.137542e+00 6.190654e-01 3.894513e+00 9.168947e-02 3.740447e+00 -9.456184e-02 3.985419e+00 5.766440e-01 4.013743e+00 1.533927e-01 3.715348e+00 -5.539835e-02 3.836907e+00 4.070795e-01 4.167787e+00 2.729718e-01 3.723494e+00 -1.891869e-02 3.754101e+00 1.894157e-01 4.249424e+00 4.309212e-01 3.763717e+00 1.979719e-03 3.774184e+00 -4.280192e-03 4.264104e+00 6.145258e-01 3.869566e+00 1.028822e-01 3.794069e+00 1.442821e-02 3.846426e+00 2.355863e-02 3.904192e+00 3.956364e-02 3.962564e+00 5.066945e-02 4.028514e+00 5.835767e-02 4.108351e+00 6.508075e-02 
4.312678e+00 8.977773e-02 4.456196e+00 1.014442e-01 4.638139e+00 1.023826e-01 4.449638e+00 9.900707e-02 4.296266e+00 9.244330e-02 4.176834e+00 8.292185e-02 4.096555e+00 7.652087e-02 4.079894e+00 1.029670e-01 4.234702e+00 3.285292e-01 4.028571e+00 1.412818e-01 3.940656e+00 6.479891e-02 4.078485e+00 3.578126e-01 3.967651e+00 1.450862e-01 3.866114e+00 4.940698e-02 3.966760e+00 3.654174e-01 3.998699e+00 1.758328e-01 3.835816e+00 7.556595e-02 3.871965e+00 3.051449e-01 4.066439e+00 2.273118e-01 3.845846e+00 9.185560e-02 3.835495e+00 1.957822e-01 4.121586e+00 2.970080e-01 3.889560e+00 9.835930e-02 3.870887e+00 8.382100e-02 4.150172e+00 3.923080e-01 3.966387e+00 1.478031e-01 3.888538e+00 6.335566e-02 3.916311e+00 5.126355e-02 3.968260e+00 5.650073e-02 4.030927e+00 6.438720e-02 4.106037e+00 7.225407e-02 4.198116e+00 8.040765e-02 
4.404256e+00 8.311869e-02 4.563236e+00 9.423886e-02 4.762509e+00 9.542740e-02 4.562343e+00 9.159689e-02 4.398191e+00 8.547116e-02 4.270649e+00 8.053086e-02 4.183537e+00 9.076442e-02 4.147388e+00 1.498487e-01 4.190201e+00 2.307129e-01 4.080764e+00 1.609068e-01 4.007099e+00 1.535443e-01 4.039517e+00 2.543478e-01 3.985213e+00 1.681830e-01 3.919486e+00 1.495813e-01 3.948018e+00 2.721185e-01 3.969211e+00 1.840841e-01 3.883499e+00 1.570891e-01 3.892784e+00 2.618484e-01 3.994820e+00 1.989468e-01 3.890612e+00 1.552393e-01 3.884408e+00 2.208963e-01 4.030071e+00 2.188165e-01 3.931663e+00 1.514581e-01 3.926130e+00 1.750560e-01 4.064176e+00 2.554742e-01 3.985633e+00 1.575467e-01 3.942736e+00 9.168443e-02 3.965066e+00 6.745160e-02 4.017476e+00 6.232737e-02 4.086597e+00 6.402823e-02 4.171586e+00 6.840369e-02 4.275792e+00 7.466014e-02 
4.493931e+00 9.847561e-02 4.666293e+00 1.107522e-01 4.881187e+00 1.121685e-01 4.673760e+00 1.107570e-01 4.503038e+00 1.087141e-01 4.369037e+00 1.097977e-01 4.272540e+00 1.229629e-01 4.215164e+00 1.615418e-01 4.200126e+00 2.007530e-01 4.130767e+00 1.740271e-01 4.064763e+00 1.737662e-01 4.051069e+00 2.166688e-01 4.020505e+00 1.789898e-01 3.969030e+00 1.712685e-01 3.964546e+00 2.240604e-01 3.981407e+00 1.869086e-01 3.929176e+00 1.736783e-01 3.924578e+00 2.177249e-01 3.985761e+00 1.921785e-01 3.934174e+00 1.688411e-01 3.928012e+00 1.957471e-01 4.011204e+00 1.973300e-01 3.972841e+00 1.631796e-01 3.969802e+00 1.720418e-01 4.044937e+00 2.065490e-01 4.025259e+00 1.529435e-01 4.002729e+00 1.065207e-01 4.024323e+00 8.386461e-02 4.075838e+00 7.652923e-02 4.148234e+00 7.697034e-02 4.240085e+00 8.146920e-02 4.353829e+00 8.869532e-02 
4.569898e+00 9.305096e-02 4.754688e+00 1.047951e-01 4.983509e+00 1.064370e-01 4.766581e+00 1.053869e-01 4.586098e+00 1.049454e-01 4.442121e+00 1.097274e-01 4.333953e+00 1.271570e-01 4.260515e+00 1.609628e-01 4.219242e+00 1.816416e-01 4.155214e+00 1.772237e-01 4.092471e+00 1.854171e-01 4.060739e+00 2.014360e-01 4.027696e+00 1.873059e-01 3.985260e+00 1.903342e-01 3.970466e+00 2.119084e-01 3.972227e+00 1.940756e-01 3.939793e+00 1.927968e-01 3.934174e+00 2.128453e-01 3.966365e+00 1.939572e-01 3.941957e+00 1.862503e-01 3.941903e+00 2.006847e-01 3.990928e+00 1.902131e-01 3.979640e+00 1.772061e-01 3.985509e+00 1.834535e-01 4.033292e+00 1.812837e-01 4.033046e+00 1.480583e-01 4.032234e+00 1.130821e-01 4.060617e+00 9.049866e-02 4.116466e+00 7.966023e-02 4.194953e+00 7.662901e-02 4.294965e+00 7.857350e-02 4.418564e+00 8.416541e-02 
4.643954e+00 1.066183e-01 4.839060e+00 1.193263e-01 5.079920e+00 1.211654e-01 4.856576e+00 1.215605e-01 4.669563e+00 1.227338e-01 4.518215e+00 1.284533e-01 4.400859e+00 1.433391e-01 4.314971e+00 1.672977e-01 4.256157e+00 1.816897e-01 4.193554e+00 1.821108e-01 4.130834e+00 1.878612e-01 4.089093e+00 1.955840e-01 4.056108e+00 1.878003e-01 4.016220e+00 1.891801e-01 3.994844e+00 1.994621e-01 3.991582e+00 1.896322e-01 3.966907e+00 1.882423e-01 3.959157e+00 1.975503e-01 3.979409e+00 1.868571e-01 3.967258e+00 1.812367e-01 3.968652e+00 1.876360e-01 4.002255e+00 1.815032e-01 4.004423e+00 1.727787e-01 4.013346e+00 1.740362e-01 4.048646e+00 1.693902e-01 4.063518e+00 1.448151e-01 4.073828e+00 1.177394e-01 4.106203e+00 9.872624e-02 4.164531e+00 8.914933e-02 4.246828e+00 8.688979e-02 4.352551e+00 8.977388e-02 4.483625e+00 9.651375e-02 
4.703783e+00 1.018414e-01 4.908558e+00 1.141855e-01 5.160213e+00 1.162187e-01 4.928790e+00 1.169865e-01 4.733229e+00 1.190965e-01 4.572968e+00 1.262961e-01 4.446190e+00 1.420089e-01 4.350530e+00 1.640188e-01 4.281304e+00 1.774654e-01 4.212717e+00 1.823613e-01 4.147256e+00 1.894558e-01 4.100118e+00 1.947444e-01 4.062086e+00 1.917988e-01 4.022256e+00 1.949153e-01 3.998280e+00 2.010680e-01 3.989138e+00 1.952199e-01 3.967766e+00 1.955917e-01 3.960144e+00 2.008686e-01 3.973366e+00 1.921930e-01 3.966482e+00 1.886120e-01 3.970340e+00 1.918398e-01 3.997367e+00 1.844548e-01 4.005055e+00 1.777744e-01 4.018293e+00 1.760581e-01 4.050539e+00 1.651089e-01 4.071002e+00 1.426445e-01 4.091018e+00 1.183466e-01 4.130386e+00 9.983193e-02 4.194479e+00 8.916238e-02 4.282880e+00 8.531427e-02 4.395594e+00 8.673554e-02 4.534614e+00 9.238624e-02 
4.761660e+00 1.136100e-01 4.974010e+00 1.267502e-01 5.234424e+00 1.289411e-01 4.997346e+00 1.299589e-01 4.795885e+00 1.314492e-01 4.629286e+00 1.367302e-01 4.495905e+00 1.495752e-01 4.393792e+00 1.701774e-01 4.319793e+00 1.862857e-01 4.248172e+00 1.864433e-01 4.176585e+00 1.898585e-01 4.125918e+00 1.968571e-01 4.089133e+00 1.898904e-01 4.044739e+00 1.896721e-01 4.018017e+00 1.975147e-01 4.012371e+00 1.896956e-01 3.987193e+00 1.868778e-01 3.977424e+00 1.932226e-01 3.994531e+00 1.857983e-01 3.985372e+00 1.791971e-01 3.987729e+00 1.827271e-01 4.017576e+00 1.796760e-01 4.026072e+00 1.703627e-01 4.038957e+00 1.693357e-01 4.073515e+00 1.661566e-01 4.099836e+00 1.439078e-01 4.121159e+00 1.197986e-01 4.163071e+00 1.028954e-01 4.230754e+00 9.435805e-02 4.323388e+00 9.254499e-02 4.441033e+00 9.574252e-02 4.585822e+00 1.029082e-01 
4.805004e+00 1.090124e-01 5.024450e+00 1.219473e-01 5.292702e+00 1.242919e-01 5.048917e+00 1.253373e-01 4.840392e+00 1.268028e-01 4.666716e+00 1.320713e-01 4.526659e+00 1.452872e-01 4.419147e+00 1.676790e-01 4.342851e+00 1.875278e-01 4.262239e+00 1.859576e-01 4.184956e+00 1.892687e-01 4.133488e+00 2.000637e-01 4.092447e+00 1.915369e-01 4.044136e+00 1.914112e-01 4.017293e+00 2.032970e-01 4.011293e+00 1.936912e-01 3.982329e+00 1.903963e-01 3.972515e+00 1.998640e-01 3.992929e+00 1.909980e-01 3.979857e+00 1.828521e-01 3.982702e+00 1.876845e-01 4.017939e+00 1.845502e-01 4.023478e+00 1.723642e-01 4.038250e+00 1.707054e-01 4.079355e+00 1.689814e-01 4.105104e+00 1.437488e-01 4.128650e+00 1.179282e-01 4.175913e+00 1.005996e-01 4.249562e+00 9.182374e-02 4.348051e+00 8.954624e-02 4.471592e+00 9.212364e-02 4.622561e+00 9.870441e-02 
4.846369e+00 1.192753e-01 5.070809e+00 1.329809e-01 5.344775e+00 1.354419e-01 5.096187e+00 1.360121e-01 4.882416e+00 1.351658e-01 4.703090e+00 1.353717e-01 4.558150e+00 1.422662e-01 4.449459e+00 1.669709e-01 4.382854e+00 2.162587e-01 4.295177e+00 1.877371e-01 4.202192e+00 1.791276e-01 4.155039e+00 2.182003e-01 4.121279e+00 1.871168e-01 4.055565e+00 1.749033e-01 4.029368e+00 2.126709e-01 4.043540e+00 1.900648e-01 3.991446e+00 1.722244e-01 3.978391e+00 1.978296e-01 4.027799e+00 1.925501e-01 3.990083e+00 1.653985e-01 3.987333e+00 1.753476e-01 4.050654e+00 1.942162e-01 4.039406e+00 1.587436e-01 4.048571e+00 1.560639e-01 4.110469e+00 1.929074e-01 4.134659e+00 1.497887e-01 4.145854e+00 1.145114e-01 4.195009e+00 9.802172e-02 4.273762e+00 9.292667e-02 4.376829e+00 9.406428e-02 4.504424e+00 9.921566e-02 4.659472e+00 1.076559e-01 
4.873037e+00 1.146112e-01 5.102082e+00 1.282433e-01 5.381049e+00 1.308142e-01 5.127101e+00 1.311770e-01 4.907587e+00 1.295427e-01 4.722501e+00 1.280873e-01 4.572634e+00 1.331863e-01 4.462512e+00 1.592216e-01 4.411440e+00 2.342097e-01 4.298579e+00 1.832826e-01 4.197792e+00 1.673167e-01 4.165691e+00 2.362164e-01 4.118725e+00 1.838933e-01 4.044187e+00 1.645764e-01 4.028658e+00 2.325697e-01 4.043745e+00 1.911495e-01 3.976623e+00 1.658540e-01 3.967898e+00 2.136338e-01 4.034805e+00 1.991774e-01 3.974649e+00 1.611131e-01 3.973153e+00 1.804868e-01 4.063902e+00 2.070404e-01 4.027178e+00 1.545652e-01 4.038293e+00 1.500852e-01 4.130075e+00 2.114999e-01 4.132840e+00 1.493235e-01 4.140506e+00 1.081906e-01 4.196276e+00 9.209745e-02 4.281771e+00 8.818809e-02 4.390211e+00 8.989064e-02 4.522372e+00 9.503726e-02 4.681747e+00 1.032243e-01 
4.897722e+00 1.238795e-01 5.129222e+00 1.384006e-01 5.411044e+00 1.410494e-01 5.153520e+00 1.413773e-01 4.929250e+00 1.376930e-01 4.736972e+00 1.285623e-01 4.578032e+00 1.123627e-01 4.468060e+00 9.759035e-02 4.487830e+00 3.717955e-01 4.316381e+00 1.638583e-01 4.178689e+00 7.900525e-02 4.205897e+00 3.459109e-01 4.152683e+00 1.677505e-01 4.020329e+00 7.780261e-02 4.039951e+00 3.042640e-01 4.109212e+00 2.003455e-01 3.949111e+00 9.537510e-02 3.950632e+00 2.209534e-01 4.126436e+00 2.521474e-01 3.948119e+00 1.048830e-01 3.942676e+00 1.253355e-01 4.157210e+00 3.063678e-01 4.011855e+00 1.078914e-01 4.013182e+00 5.702830e-02 4.211298e+00 3.461381e-01 4.156104e+00 1.453417e-01 4.132136e+00 8.613526e-02 4.200994e+00 8.078990e-02 4.295335e+00 8.581619e-02 4.408058e+00 9.280178e-02 4.542752e+00 1.010604e-01 4.704237e+00 1.112003e-01 
4.907622e+00 1.190397e-01 5.141255e+00 1.335438e-01 5.425319e+00 1.362565e-01 5.163965e+00 1.365822e-01 4.935040e+00 1.324015e-01 4.736733e+00 1.211190e-01 4.570031e+00 9.882947e-02 4.452228e+00 8.076267e-02 4.490487e+00 3.943542e-01 4.270509e+00 1.292141e-01 4.137470e+00 4.419908e-02 4.195133e+00 3.589847e-01 4.109253e+00 1.325445e-01 3.974977e+00 3.809894e-02 4.021476e+00 3.056280e-01 4.077686e+00 1.698182e-01 3.901007e+00 5.316348e-02 3.922971e+00 2.095885e-01 4.107291e+00 2.355766e-01 3.893656e+00 6.657206e-02 3.904838e+00 1.062314e-01 4.141940e+00 3.073197e-01 3.952180e+00 7.336443e-02 3.971215e+00 3.350542e-02 4.203985e+00 3.605511e-01 4.108326e+00 1.161231e-01 4.106973e+00 6.670544e-02 4.192343e+00 7.058640e-02 4.294299e+00 7.987445e-02 4.410947e+00 8.827914e-02 4.548287e+00 9.671980e-02 4.712008e+00 1.066172e-01 
4.915526e+00 1.277338e-01 5.149119e+00 1.430243e-01 5.433285e+00 1.457631e-01 5.171122e+00 1.473530e-01 4.939766e+00 1.460595e-01 4.732345e+00 1.418469e-01 4.533564e+00 1.262462e-01 4.304525e+00 6.608450e-02 3.902790e+00 -4.230045e-01 3.923215e+00 -1.022207e-01 3.948204e+00 -4.000395e-03 3.713322e+00 -4.697819e-01 3.655967e+00 -1.688184e-01 3.783056e+00 -4.657026e-02 3.654230e+00 -4.582431e-01 3.445901e+00 -2.635212e-01 3.695864e+00 -1.023102e-01 3.663311e+00 -3.550202e-01 3.309982e+00 -3.753975e-01 3.652963e+00 -1.304442e-01 3.693504e+00 -2.047025e-01 3.325344e+00 -4.856531e-01 3.670858e+00 -1.419282e-01 3.771878e+00 -8.286290e-02 3.520245e+00 -5.546616e-01 3.796531e+00 -1.637942e-01 4.064183e+00 -7.108029e-04 4.194089e+00 5.545181e-02 4.301904e+00 7.881575e-02 4.419155e+00 9.214167e-02 4.556434e+00 1.029748e-01 4.720015e+00 1.143297e-01 
4.908607e+00 1.225426e-01 5.141883e+00 1.376001e-01 5.425556e+00 1.403458e-01 5.162085e+00 1.421567e-01 4.928445e+00 1.418754e-01 4.715530e+00 1.402678e-01 4.499961e+00 1.251432e-01 4.214842e+00 3.645508e-02 3.589166e+00 -8.372692e-01 3.747608e+00 -2.190172e-01 3.843628e+00 -3.891931e-02 3.456785e+00 -8.734478e-01 3.429798e+00 -3.082867e-01 3.677825e+00 -8.829874e-02 3.455704e+00 -8.183589e-01 3.134795e+00 -4.562326e-01 3.585619e+00 -1.683768e-01 3.518862e+00 -6.163120e-01 2.922635e+00 -6.451197e-01 3.529999e+00 -2.114579e-01 3.576369e+00 -3.482389e-01 2.934361e+00 -8.352894e-01 3.535326e+00 -2.299890e-01 3.666193e+00 -1.388429e-01 3.195058e+00 -9.568043e-01 3.655602e+00 -2.778037e-01 4.037390e+00 -2.674240e-02 4.184601e+00 4.847074e-02 4.294582e+00 7.535798e-02 4.412234e+00 8.880682e-02 4.549672e+00 9.902946e-02 4.713256e+00 1.096914e-01 
4.899680e+00 1.308341e-01 5.130506e+00 1.458217e-01 5.411517e+00 1.484962e-01 5.151932e+00 1.490837e-01 4.924039e+00 1.455500e-01 4.723567e+00 1.363780e-01 4.543634e+00 1.156857e-01 4.372877e+00 7.977359e-02 4.190862e+00 -2.550129e-02 4.081226e+00 3.014056e-03 4.037850e+00 1.855035e-02 3.960068e+00 -5.373575e-02 3.874168e+00 -2.752073e-02 3.877788e+00 -8.509833e-03 3.850236e+00 -6.342989e-02 3.766198e+00 -5.256961e-02 3.799986e+00 -2.893479e-02 3.805381e+00 -5.423064e-02 3.730294e+00 -6.547634e-02 3.775324e+00 -3.311097e-02 3.807854e+00 -3.268018e-02 3.769222e+00 -6.571060e-02 3.812475e+00 -2.995736e-02 3.876472e+00 -1.250302e-02 3.902477e+00 -4.995817e-02 3.953927e+00 -1.201728e-02 4.080502e+00 3.715493e-02 4.188617e+00 6.663428e-02 4.293571e+00 8.396093e-02 4.409597e+00 9.591694e-02 4.545222e+00 1.064104e-01 4.706669e+00 1.176139e-01 