# vtk DataFile Version 2.0
Comment goes here
ASCII

DATASET STRUCTURED_POINTS
FIELD FieldData 1
TIME 1 1 double
0.06200000
DIMENSIONS    64   64   1

ORIGIN    0.000   0.000   0.000
SPACING   0.03125 0.03125   1.000

POINT_DATA   4096
SCALARS uX double
LOOKUP_TABLE default

6.887256e-01 -1.706408e+00 4.547699e-01 -1.504175e+00 7.553969e-02 -1.308476e+00 1.129685e-01 -1.087567e+00 7.871149e-02 -9.313966e-01 4.487372e-02 -8.397576e-01 3.802692e-02 -7.944007e-01 4.807194e-02 -7.687100e-01 5.280661e-02 -7.294219e-01 2.074783e-02 -6.421487e-01 -7.642805e-02 -4.906722e-01 -2.352727e-01 -2.948861e-01 -4.229767e-01 -8.705945e-02 -6.133151e-01 1.180101e-01 -8.071168e-01 3.304533e-01 -1.006481e+00 5.403241e-01 -1.193823e+00 7.282351e-01 -1.350174e+00 8.717886e-01 -1.452599e+00 9.528749e-01 -1.484759e+00 9.520918e-01 -1.433245e+00 8.688442e-01 -1.315217e+00 7.257106e-01 -1.150705e+00 5.412797e-01 -9.608535e-01 3.321062e-01 -7.468633e-01 8.096345e-02 -4.887180e-01 -2.221817e-01 -1.952074e-01 -5.481093e-01 9.140691e-02 -8.567542e-01 3.339725e-01 -1.118375e+00 5.129095e-01 -1.323194e+00 6.210010e-01 -1.475865e+00 6.680598e-01 -1.598645e+00 
-3.790818e-01 4.036797e-01 -2.173854e-01 3.122583e-01 1.253829e-01 2.224981e-01 -1.114082e-01 8.039507e-02 -2.192342e-01 -4.008869e-03 -2.873912e-01 -4.385696e-02 -3.497175e-01 -5.547394e-02 -4.085000e-01 -5.526391e-02 -4.573603e-01 -6.204998e-02 -4.809832e-01 -9.550091e-02 -4.624713e-01 -1.660505e-01 -4.063909e-01 -2.615152e-01 -3.329529e-01 -3.628247e-01 -2.558619e-01 -4.606334e-01 -1.748503e-01 -5.661416e-01 -8.598494e-02 -6.740451e-01 1.955588e-03 -7.756934e-01 7.915394e-02 -8.590259e-01 1.331951e-01 -9.123808e-01 1.567570e-01 -9.265344e-01 1.418320e-01 -8.994607e-01 9.691620e-02 -8.421033e-01 3.467081e-02 -7.666210e-01 -3.245375e-02 -6.819919e-01 -1.039127e-01 -5.755929e-01 -1.950880e-01 -4.379667e-01 -3.032551e-01 -2.836159e-01 -4.040987e-01 -1.344468e-01 -4.773424e-01 -6.298799e-03 -5.115924e-01 9.595705e-02 -4.997293e-01 1.714607e-01 -4.402716e-01 2.341592e-01 
1.525542e+00 7.315404e-01 1.218922e+00 6.294407e-01 9.505883e-01 4.967788e-01 1.603497e+00 4.627807e-01 2.016020e+00 3.903181e-01 2.292815e+00 3.345122e-01 2.475473e+00 3.041110e-01 2.601343e+00 2.888381e-01 2.698202e+00 2.703729e-01 2.796403e+00 2.231041e-01 2.921617e+00 1.341832e-01 3.076036e+00 2.135866e-02 3.237787e+00 -9.357355e-02 3.385169e+00 -2.060438e-01 3.529064e+00 -3.204397e-01 3.674813e+00 -4.365499e-01 3.811666e+00 -5.378606e-01 3.928029e+00 -6.127382e-01 4.007867e+00 -6.526855e-01 4.039949e+00 -6.428893e-01 4.011928e+00 -5.854992e-01 3.937000e+00 -4.987064e-01 3.826987e+00 -3.945530e-01 3.695837e+00 -2.864031e-01 3.541266e+00 -1.569402e-01 3.343471e+00 4.433104e-03 3.101491e+00 1.791015e-01 2.840853e+00 3.405522e-01 2.583735e+00 4.701997e-01 2.338408e+00 5.608558e-01 2.100238e+00 6.240445e-01 1.838833e+00 6.830112e-01 
3.548171e+00 -1.836402e-02 2.695803e+00 -1.607897e-01 1.335020e+00 -8.209937e-02 2.929240e+00 3.224506e-02 3.763910e+00 8.886524e-02 4.316454e+00 1.185617e-01 4.732293e+00 1.351856e-01 5.062534e+00 1.464699e-01 5.329345e+00 1.600021e-01 5.536878e+00 1.852441e-01 5.685752e+00 2.273309e-01 5.787473e+00 2.765775e-01 5.859259e+00 3.225583e-01 5.913996e+00 3.595798e-01 5.952943e+00 3.978643e-01 5.973850e+00 4.365160e-01 5.979695e+00 4.727236e-01 5.976270e+00 5.021057e-01 5.968645e+00 5.196778e-01 5.956556e+00 5.222562e-01 5.946382e+00 5.107677e-01 5.932577e+00 4.927624e-01 5.906095e+00 4.755912e-01 5.858151e+00 4.645595e-01 5.786778e+00 4.473950e-01 5.699684e+00 4.142945e-01 5.594168e+00 3.728969e-01 5.452245e+00 3.332964e-01 5.257111e+00 3.006164e-01 4.992862e+00 2.719019e-01 4.638234e+00 2.424491e-01 4.162255e+00 1.925565e-01 
3.646845e+00 1.709310e-01 2.943724e+00 -3.635452e-02 1.861587e+00 -1.569381e-03 3.061347e+00 -1.882684e-02 3.845718e+00 2.767959e-02 4.393135e+00 7.637526e-02 4.803569e+00 1.201905e-01 5.123675e+00 1.602812e-01 5.379314e+00 1.971783e-01 5.579782e+00 2.350057e-01 5.731496e+00 2.765525e-01 5.845169e+00 3.154367e-01 5.932232e+00 3.452826e-01 6.001134e+00 3.710136e-01 6.052481e+00 3.917212e-01 6.087198e+00 4.105874e-01 6.104548e+00 4.249326e-01 6.109476e+00 4.355932e-01 6.106455e+00 4.432629e-01 6.092336e+00 4.452460e-01 6.071169e+00 4.438742e-01 6.040921e+00 4.417686e-01 5.996056e+00 4.398012e-01 5.930870e+00 4.417479e-01 5.845322e+00 4.403805e-01 5.740765e+00 4.304518e-01 5.611528e+00 4.155826e-01 5.448042e+00 4.000228e-01 5.239638e+00 3.843803e-01 4.973493e+00 3.679348e-01 4.632444e+00 3.374872e-01 4.203662e+00 2.697311e-01 
3.862982e+00 3.789226e-02 3.207812e+00 -1.580376e-02 2.346835e+00 -2.202029e-02 3.207328e+00 1.024232e-02 3.946146e+00 5.707762e-02 4.483408e+00 9.513352e-02 4.886446e+00 1.267403e-01 5.201791e+00 1.558534e-01 5.452296e+00 1.863727e-01 5.644377e+00 2.217010e-01 5.786785e+00 2.621879e-01 5.891381e+00 3.040155e-01 5.966975e+00 3.434197e-01 6.020412e+00 3.795582e-01 6.057397e+00 4.138460e-01 6.079296e+00 4.457837e-01 6.084373e+00 4.746935e-01 6.080937e+00 4.982247e-01 6.073577e+00 5.140920e-01 6.057337e+00 5.227212e-01 6.038221e+00 5.230938e-01 6.014740e+00 5.158378e-01 5.976624e+00 5.044626e-01 5.922943e+00 4.898697e-01 5.852873e+00 4.679243e-01 5.762893e+00 4.364402e-01 5.649791e+00 3.984938e-01 5.504802e+00 3.580411e-01 5.316718e+00 3.168221e-01 5.073037e+00 2.728074e-01 4.758679e+00 2.189933e-01 4.357517e+00 1.417876e-01 
4.049224e+00 1.622128e-01 3.523563e+00 9.326680e-02 2.833088e+00 8.653095e-02 3.449254e+00 4.979978e-02 4.046228e+00 5.816561e-02 4.524905e+00 8.843295e-02 4.898883e+00 1.261268e-01 5.196561e+00 1.665415e-01 5.437450e+00 2.086006e-01 5.626222e+00 2.491027e-01 5.768414e+00 2.881589e-01 5.877961e+00 3.237241e-01 5.964116e+00 3.525825e-01 6.025511e+00 3.766742e-01 6.071637e+00 3.968869e-01 6.107710e+00 4.124854e-01 6.124219e+00 4.246452e-01 6.129809e+00 4.335644e-01 6.131543e+00 4.389228e-01 6.119442e+00 4.411373e-01 6.097674e+00 4.417065e-01 6.069864e+00 4.420097e-01 6.027886e+00 4.420166e-01 5.967133e+00 4.421981e-01 5.890342e+00 4.389277e-01 5.796495e+00 4.278797e-01 5.675296e+00 4.118206e-01 5.523038e+00 3.926010e-01 5.335536e+00 3.704078e-01 5.105449e+00 3.430036e-01 4.822847e+00 3.044142e-01 4.476105e+00 2.488504e-01 
4.303315e+00 1.040149e-01 3.846603e+00 8.827349e-02 3.282163e+00 8.146330e-02 3.724563e+00 6.575989e-02 4.221271e+00 7.826361e-02 4.655463e+00 1.046039e-01 5.007341e+00 1.362285e-01 5.293132e+00 1.702740e-01 5.525586e+00 2.081880e-01 5.701214e+00 2.481204e-01 5.829623e+00 2.868604e-01 5.927449e+00 3.231144e-01 5.999555e+00 3.577465e-01 6.045836e+00 3.901101e-01 6.080256e+00 4.188421e-01 6.106588e+00 4.443281e-01 6.111407e+00 4.673063e-01 6.111749e+00 4.846500e-01 6.114142e+00 4.950483e-01 6.097923e+00 5.014779e-01 6.079228e+00 5.021394e-01 6.061262e+00 4.966457e-01 6.023056e+00 4.883816e-01 5.972797e+00 4.754598e-01 5.911506e+00 4.543061e-01 5.826966e+00 4.242288e-01 5.719572e+00 3.887084e-01 5.587301e+00 3.501950e-01 5.424697e+00 3.101565e-01 5.224084e+00 2.678568e-01 4.976100e+00 2.204147e-01 4.671455e+00 1.654406e-01 
4.533913e+00 1.897429e-01 4.177444e+00 1.664637e-01 3.729414e+00 1.597538e-01 4.036580e+00 1.184443e-01 4.403179e+00 1.013461e-01 4.756831e+00 1.113689e-01 5.062061e+00 1.396252e-01 5.319942e+00 1.790008e-01 5.538644e+00 2.280072e-01 5.713008e+00 2.720661e-01 5.835052e+00 3.090268e-01 5.930469e+00 3.413782e-01 6.015675e+00 3.677566e-01 6.064243e+00 3.892860e-01 6.100393e+00 4.063818e-01 6.143094e+00 4.200264e-01 6.153722e+00 4.286948e-01 6.154640e+00 4.327953e-01 6.165809e+00 4.368444e-01 6.155195e+00 4.374570e-01 6.131590e+00 4.362282e-01 6.110745e+00 4.384544e-01 6.078014e+00 4.407845e-01 6.021625e+00 4.418663e-01 5.953065e+00 4.394156e-01 5.878323e+00 4.260636e-01 5.770233e+00 4.048076e-01 5.634646e+00 3.783213e-01 5.477157e+00 3.495765e-01 5.295403e+00 3.187045e-01 5.082588e+00 2.831056e-01 4.831010e+00 2.402999e-01 
4.792496e+00 1.542075e-01 4.499404e+00 1.589159e-01 4.142607e+00 1.527130e-01 4.350271e+00 1.231072e-01 4.630863e+00 1.126919e-01 4.927579e+00 1.237216e-01 5.199190e+00 1.510967e-01 5.439877e+00 1.884841e-01 5.648383e+00 2.379949e-01 5.803050e+00 2.843709e-01 5.903791e+00 3.186621e-01 5.986208e+00 3.472991e-01 6.055639e+00 3.785079e-01 6.085781e+00 4.063338e-01 6.113073e+00 4.276523e-01 6.151939e+00 4.491779e-01 6.145700e+00 4.666253e-01 6.144201e+00 4.753530e-01 6.167514e+00 4.815171e-01 6.142721e+00 4.849142e-01 6.123249e+00 4.823914e-01 6.123144e+00 4.788412e-01 6.083364e+00 4.743126e-01 6.037632e+00 4.651489e-01 5.991372e+00 4.485208e-01 5.913861e+00 4.171240e-01 5.814139e+00 3.787608e-01 5.699469e+00 3.375456e-01 5.570091e+00 2.973909e-01 5.421272e+00 2.592095e-01 5.245801e+00 2.218471e-01 5.037502e+00 1.852342e-01 
5.031845e+00 2.168069e-01 4.817966e+00 2.198278e-01 4.551839e+00 2.140733e-01 4.669761e+00 1.711037e-01 4.851419e+00 1.380268e-01 5.069956e+00 1.281513e-01 5.288423e+00 1.455380e-01 5.494062e+00 1.893721e-01 5.680781e+00 2.650541e-01 5.848792e+00 3.127334e-01 5.930598e+00 3.383512e-01 5.993774e+00 3.668420e-01 6.097435e+00 3.935186e-01 6.117934e+00 4.075208e-01 6.128762e+00 4.170920e-01 6.202415e+00 4.387521e-01 6.194453e+00 4.379749e-01 6.176437e+00 4.268166e-01 6.213687e+00 4.416362e-01 6.203348e+00 4.357189e-01 6.168487e+00 4.212113e-01 6.159889e+00 4.326920e-01 6.150830e+00 4.392142e-01 6.093920e+00 4.408647e-01 6.026160e+00 4.481452e-01 5.989793e+00 4.379481e-01 5.888613e+00 4.029300e-01 5.764213e+00 3.606633e-01 5.640135e+00 3.243597e-01 5.512927e+00 2.945719e-01 5.373113e+00 2.674069e-01 5.213932e+00 2.405593e-01 
5.280854e+00 1.923519e-01 5.121552e+00 2.116680e-01 4.929339e+00 2.066146e-01 4.981440e+00 1.710601e-01 5.099313e+00 1.424410e-01 5.264763e+00 1.319066e-01 5.446545e+00 1.464437e-01 5.638813e+00 1.923621e-01 5.818953e+00 3.059309e-01 5.956329e+00 3.413011e-01 6.000868e+00 3.458306e-01 6.056642e+00 3.839149e-01 6.144108e+00 4.076846e-01 6.134190e+00 4.201668e-01 6.142238e+00 4.420650e-01 6.229929e+00 4.675191e-01 6.180191e+00 4.692665e-01 6.163966e+00 4.621816e-01 6.251915e+00 4.822213e-01 6.185017e+00 4.701522e-01 6.158569e+00 4.498415e-01 6.211614e+00 4.703743e-01 6.152636e+00 4.593200e-01 6.112469e+00 4.493522e-01 6.099021e+00 4.661221e-01 6.022688e+00 4.247167e-01 5.917887e+00 3.707333e-01 5.819104e+00 3.182651e-01 5.728952e+00 2.770887e-01 5.638002e+00 2.462321e-01 5.535786e+00 2.216990e-01 5.417113e+00 2.023020e-01 
5.513376e+00 2.411302e-01 5.418111e+00 2.627083e-01 5.301252e+00 2.583790e-01 5.283274e+00 2.167001e-01 5.324056e+00 1.669707e-01 5.420556e+00 1.197411e-01 5.554066e+00 9.322240e-02 5.719605e+00 1.363307e-01 5.856316e+00 4.121984e-01 6.052801e+00 3.798858e-01 6.045133e+00 3.189211e-01 6.038532e+00 4.363605e-01 6.240153e+00 4.445010e-01 6.180109e+00 3.943818e-01 6.124469e+00 4.334889e-01 6.321197e+00 5.087614e-01 6.239776e+00 4.355345e-01 6.167586e+00 3.815553e-01 6.296424e+00 5.031586e-01 6.264513e+00 4.323170e-01 6.191577e+00 3.484165e-01 6.214460e+00 4.619271e-01 6.256543e+00 4.349841e-01 6.182597e+00 3.980443e-01 6.098321e+00 4.944708e-01 6.155250e+00 5.038317e-01 6.012278e+00 4.059545e-01 5.882244e+00 3.274154e-01 5.801078e+00 2.870989e-01 5.737064e+00 2.668151e-01 5.670592e+00 2.537766e-01 5.596035e+00 2.440963e-01 
5.746578e+00 2.240029e-01 5.697439e+00 2.564413e-01 5.643166e+00 2.530012e-01 5.576243e+00 2.220338e-01 5.569803e+00 1.789842e-01 5.620665e+00 1.248318e-01 5.714880e+00 5.600244e-02 5.884069e+00 8.780229e-03 6.069071e+00 6.593909e-01 6.160576e+00 4.002181e-01 6.079553e+00 1.684759e-01 6.149192e+00 6.039671e-01 6.283017e+00 4.414444e-01 6.159549e+00 2.958161e-01 6.156966e+00 5.669549e-01 6.390486e+00 5.268556e-01 6.176175e+00 4.059443e-01 6.136357e+00 4.306502e-01 6.445089e+00 5.645166e-01 6.176539e+00 4.225566e-01 6.146249e+00 3.004985e-01 6.400480e+00 5.713703e-01 6.185940e+00 4.116623e-01 6.171571e+00 3.029124e-01 6.303521e+00 6.232228e-01 6.149618e+00 4.632694e-01 5.990111e+00 3.523778e-01 5.915049e+00 2.753533e-01 5.883573e+00 2.408799e-01 5.860111e+00 2.266483e-01 5.829136e+00 2.193803e-01 5.790079e+00 2.168890e-01 
5.964572e+00 2.643371e-01 5.967627e+00 3.023499e-01 5.978292e+00 2.999016e-01 5.852583e+00 2.783675e-01 5.779547e+00 2.342101e-01 5.756627e+00 1.405768e-01 5.794132e+00 -5.839278e-02 5.965261e+00 -2.362624e-01 6.103261e+00 1.046414e+00 6.326081e+00 3.956511e-01 6.070006e+00 -2.439724e-01 6.101998e+00 8.841089e-01 6.533835e+00 6.083086e-01 6.146844e+00 -6.823182e-02 6.091327e+00 5.931934e-01 6.631646e+00 8.851975e-01 6.191171e+00 1.708942e-01 6.084158e+00 1.309121e-01 6.547442e+00 1.003724e+00 6.272317e+00 3.281065e-01 6.125478e+00 -1.654647e-01 6.389986e+00 9.425915e-01 6.367266e+00 3.991065e-01 6.209601e+00 -1.860752e-01 6.290417e+00 9.063243e-01 6.453438e+00 7.146440e-01 6.053705e+00 3.387146e-01 5.945536e+00 2.350643e-01 5.952351e+00 2.274557e-01 5.963368e+00 2.349917e-01 5.965147e+00 2.420092e-01 5.963520e+00 2.495064e-01 
6.178681e+00 2.532629e-01 6.220103e+00 2.978985e-01 6.284667e+00 2.964034e-01 6.117981e+00 2.922460e-01 6.007575e+00 2.769131e-01 5.950757e+00 2.356867e-01 5.946180e+00 1.670174e-01 5.954684e+00 1.418449e-01 6.080354e+00 4.237174e-01 5.766360e+00 -1.987245e-01 5.848738e+00 -3.039027e-01 6.168515e+00 6.291458e-01 6.045424e+00 7.563979e-02 5.908043e+00 -3.387132e-01 6.162182e+00 5.685181e-01 6.369605e+00 5.633116e-01 5.926548e+00 -1.574440e-01 6.041580e+00 2.963365e-01 6.539622e+00 1.078724e+00 5.920704e+00 1.292759e-01 5.953035e+00 4.313798e-02 6.487321e+00 1.333250e+00 5.993690e+00 2.746653e-01 6.004323e+00 -1.068486e-01 6.462518e+00 1.556923e+00 6.279683e+00 7.317234e-01 5.925351e+00 2.252831e-01 5.966498e+00 1.601177e-01 6.046594e+00 1.846132e-01 6.092358e+00 2.057323e-01 6.119976e+00 2.186787e-01 6.145723e+00 2.312951e-01 
6.377115e+00 2.863968e-01 6.462351e+00 3.338521e-01 6.583355e+00 3.332462e-01 6.376335e+00 3.469308e-01 6.216566e+00 3.808416e-01 6.071545e+00 4.683239e-01 5.856839e+00 6.373446e-01 5.337519e+00 6.047457e-01 4.574857e+00 -2.441000e+00 4.478857e+00 -1.083811e+00 5.029675e+00 -2.440661e-02 4.774121e+00 -2.239655e+00 4.203692e+00 -1.478655e+00 5.011170e+00 -3.313544e-01 5.028824e+00 -1.621624e+00 4.040199e+00 -1.838326e+00 5.020575e+00 -5.654956e-01 5.205832e+00 -6.502647e-01 4.194223e+00 -1.811694e+00 4.963692e+00 -5.842805e-01 5.225423e+00 7.412412e-02 4.637614e+00 -1.456924e+00 4.910985e+00 -4.974167e-01 5.204270e+00 2.443705e-01 5.157043e+00 -1.160413e+00 5.064323e+00 -7.189566e-01 5.707756e+00 -1.594654e-01 6.028840e+00 8.031870e-02 6.144646e+00 1.720672e-01 6.202562e+00 2.130316e-01 6.251330e+00 2.369237e-01 6.307062e+00 2.577298e-01 
6.569262e+00 2.784056e-01 6.687183e+00 3.263669e-01 6.854233e+00 3.266782e-01 6.608799e+00 3.459065e-01 6.402741e+00 3.928674e-01 6.188306e+00 5.148709e-01 5.867264e+00 7.399864e-01 5.262395e+00 7.165457e-01 4.658939e+00 -2.068530e+00 4.330899e+00 -7.487784e-01 4.764720e+00 1.812802e-01 4.437289e+00 -2.682554e+00 3.796622e+00 -1.544390e+00 4.708439e+00 -1.853127e-01 4.560765e+00 -2.344342e+00 3.214698e+00 -2.514594e+00 4.729033e+00 -5.878890e-01 4.802537e+00 -1.134167e+00 3.013533e+00 -3.163314e+00 4.717773e+00 -8.112762e-01 4.910075e+00 -6.054442e-02 3.425043e+00 -3.285176e+00 4.652094e+00 -8.566188e-01 4.877911e+00 2.581010e-01 3.975901e+00 -3.660606e+00 4.622137e+00 -1.697948e+00 5.908106e+00 -3.312806e-01 6.228036e+00 7.276543e-02 6.295117e+00 1.744303e-01 6.339647e+00 2.068942e-01 6.397521e+00 2.259637e-01 6.473051e+00 2.465382e-01 
6.744619e+00 3.039033e-01 6.901609e+00 3.487181e-01 7.116620e+00 3.498366e-01 6.844140e+00 3.545499e-01 6.616887e+00 3.504012e-01 6.416735e+00 3.383480e-01 6.233796e+00 3.232833e-01 6.108632e+00 3.397829e-01 6.326471e+00 1.007569e+00 5.868429e+00 2.990414e-01 5.733219e+00 6.770347e-02 6.038053e+00 4.374543e-01 5.693653e+00 -1.541751e-02 5.638488e+00 -1.791213e-01 5.899059e+00 7.423844e-02 5.633118e+00 -2.216272e-01 5.575339e+00 -3.175568e-01 5.769349e+00 3.815390e-02 5.642381e+00 -2.873001e-01 5.498528e+00 -3.145776e-01 5.671138e+00 1.031102e-01 5.661171e+00 -3.836292e-01 5.462815e+00 -3.698715e-01 5.640918e+00 1.362679e-02 5.708897e+00 -7.595421e-01 5.474861e+00 -7.208872e-01 5.949700e+00 -2.248505e-01 6.211601e+00 4.401531e-02 6.333417e+00 1.568238e-01 6.420425e+00 2.084516e-01 6.509843e+00 2.398080e-01 6.615412e+00 2.680085e-01 
6.913145e+00 2.938169e-01 7.099201e+00 3.349785e-01 7.352092e+00 3.369433e-01 7.055896e+00 3.380537e-01 6.810371e+00 3.111672e-01 6.613427e+00 2.178763e-01 6.502872e+00 -1.438810e-02 6.588582e+00 -1.920979e-01 6.580793e+00 1.164696e+00 6.790277e+00 5.619444e-01 6.413977e+00 -1.228816e-01 6.383002e+00 1.117048e+00 6.754991e+00 6.861406e-01 6.292354e+00 -9.483221e-02 6.281004e+00 7.778455e-01 6.809060e+00 9.865485e-01 6.230846e+00 4.000637e-02 6.198475e+00 2.192159e-01 6.762078e+00 1.239189e+00 6.247522e+00 1.775935e-01 6.191149e+00 -1.663232e-01 6.632017e+00 1.266599e+00 6.345083e+00 2.071926e-01 6.300537e+00 -3.004391e-01 6.635309e+00 1.312603e+00 6.569077e+00 5.554723e-01 6.257711e+00 1.259974e-01 6.318663e+00 1.147606e-01 6.430392e+00 1.674983e-01 6.531610e+00 2.056167e-01 6.637051e+00 2.325104e-01 6.761242e+00 2.589357e-01 
7.064678e+00 3.144737e-01 7.284823e+00 3.511189e-01 7.578541e+00 3.536965e-01 7.272702e+00 3.546678e-01 7.023413e+00 3.378785e-01 6.832925e+00 2.953540e-01 6.723858e+00 2.086636e-01 6.747799e+00 1.354070e-01 6.773626e+00 6.567858e-01 6.699476e+00 4.879446e-01 6.552678e+00 2.264096e-01 6.505532e+00 6.907951e-01 6.633801e+00 5.593292e-01 6.428120e+00 2.681339e-01 6.347368e+00 5.824280e-01 6.659459e+00 6.790229e-01 6.375734e+00 3.518667e-01 6.277323e+00 2.790252e-01 6.641427e+00 7.385122e-01 6.402223e+00 3.777106e-01 6.308836e+00 1.220618e-02 6.567499e+00 7.509487e-01 6.498279e+00 3.804038e-01 6.419073e+00 -5.794265e-02 6.538526e+00 8.674780e-01 6.686807e+00 6.506163e-01 6.426437e+00 2.952725e-01 6.409588e+00 1.945146e-01 6.498467e+00 1.990698e-01 6.609814e+00 2.236706e-01 6.735852e+00 2.499509e-01 6.884617e+00 2.787208e-01 
7.208666e+00 3.028035e-01 7.454187e+00 3.331957e-01 7.778732e+00 3.364058e-01 7.460831e+00 3.329838e-01 7.201448e+00 3.093170e-01 7.003527e+00 2.719356e-01 6.874446e+00 2.529287e-01 6.805506e+00 3.070371e-01 6.730942e+00 4.872805e-01 6.772944e+00 4.591972e-01 6.648202e+00 4.304816e-01 6.545949e+00 5.622623e-01 6.636988e+00 5.038757e-01 6.506425e+00 4.506248e-01 6.420567e+00 5.417128e-01 6.595068e+00 5.471122e-01 6.435217e+00 4.556341e-01 6.363824e+00 4.254306e-01 6.573371e+00 5.467280e-01 6.428902e+00 4.223294e-01 6.387842e+00 3.100682e-01 6.549632e+00 5.278711e-01 6.490272e+00 3.995678e-01 6.487082e+00 3.086514e-01 6.574463e+00 6.156515e-01 6.590005e+00 5.012440e-01 6.505810e+00 3.401530e-01 6.516738e+00 2.491720e-01 6.596531e+00 2.254771e-01 6.709362e+00 2.311879e-01 6.845553e+00 2.478616e-01 7.009353e+00 2.714724e-01 
7.336672e+00 3.225823e-01 7.610363e+00 3.507529e-01 7.969385e+00 3.546207e-01 7.643270e+00 3.600795e-01 7.376317e+00 3.540393e-01 7.166323e+00 3.427185e-01 7.014610e+00 3.428809e-01 6.914547e+00 3.757986e-01 6.835238e+00 4.446350e-01 6.791815e+00 4.686481e-01 6.697403e+00 4.702955e-01 6.609298e+00 4.953456e-01 6.628013e+00 5.032208e-01 6.545490e+00 4.855789e-01 6.473806e+00 4.836258e-01 6.553786e+00 5.118208e-01 6.480378e+00 4.724321e-01 6.424740e+00 4.225104e-01 6.518220e+00 4.746795e-01 6.481039e+00 4.307428e-01 6.444307e+00 3.619542e-01 6.504988e+00 4.300817e-01 6.532774e+00 4.123600e-01 6.521079e+00 3.772637e-01 6.540323e+00 4.651168e-01 6.626987e+00 4.608364e-01 6.594345e+00 3.673434e-01 6.600372e+00 2.909379e-01 6.670872e+00 2.584682e-01 6.785490e+00 2.555307e-01 6.933281e+00 2.685232e-01 7.114907e+00 2.915440e-01 
7.455802e+00 3.119237e-01 7.750328e+00 3.344363e-01 8.134282e+00 3.388655e-01 7.797939e+00 3.445745e-01 7.518756e+00 3.418381e-01 7.291969e+00 3.408987e-01 7.113841e+00 3.551729e-01 6.977764e+00 3.851126e-01 6.880567e+00 4.338569e-01 6.836547e+00 4.618273e-01 6.745692e+00 4.814104e-01 6.665970e+00 5.005142e-01 6.653297e+00 5.024080e-01 6.580725e+00 5.027135e-01 6.526815e+00 5.017217e-01 6.559563e+00 5.011623e-01 6.501902e+00 4.858149e-01 6.467563e+00 4.615296e-01 6.525485e+00 4.654067e-01 6.490705e+00 4.447728e-01 6.475747e+00 4.158730e-01 6.532286e+00 4.306647e-01 6.537291e+00 4.263215e-01 6.545190e+00 4.189307e-01 6.589513e+00 4.359850e-01 6.626961e+00 4.123169e-01 6.633177e+00 3.572998e-01 6.668421e+00 3.029108e-01 6.748375e+00 2.707250e-01 6.868689e+00 2.610051e-01 7.024907e+00 2.675082e-01 7.218456e+00 2.855717e-01 
7.560275e+00 3.315706e-01 7.877169e+00 3.533324e-01 8.289167e+00 3.583586e-01 7.942805e+00 3.707349e-01 7.654276e+00 3.771785e-01 7.415404e+00 3.837295e-01 7.222912e+00 3.978677e-01 7.073428e+00 4.183340e-01 6.962767e+00 4.464341e-01 6.880912e+00 4.716336e-01 6.789178e+00 4.869916e-01 6.709093e+00 4.938335e-01 6.670010e+00 4.983771e-01 6.607449e+00 4.964618e-01 6.556290e+00 4.876061e-01 6.559495e+00 4.848915e-01 6.524611e+00 4.717573e-01 6.495746e+00 4.491253e-01 6.520102e+00 4.433740e-01 6.513160e+00 4.291313e-01 6.502806e+00 4.074499e-01 6.531191e+00 4.087298e-01 6.556709e+00 4.101755e-01 6.568349e+00 4.051904e-01 6.599318e+00 4.081580e-01 6.657412e+00 3.958236e-01 6.687180e+00 3.604037e-01 6.729010e+00 3.190489e-01 6.809849e+00 2.904873e-01 6.933784e+00 2.803975e-01 7.098734e+00 2.864375e-01 7.305603e+00 3.048538e-01 
7.654361e+00 3.222879e-01 7.987336e+00 3.399721e-01 8.418720e+00 3.454971e-01 8.062285e+00 3.593767e-01 7.762157e+00 3.686322e-01 7.509063e+00 3.792212e-01 7.299878e+00 3.965494e-01 7.133593e+00 4.184143e-01 7.010523e+00 4.481386e-01 6.923683e+00 4.741254e-01 6.828191e+00 4.911926e-01 6.746879e+00 5.010162e-01 6.698702e+00 5.053698e-01 6.634780e+00 5.046800e-01 6.586365e+00 4.988441e-01 6.578301e+00 4.930897e-01 6.542561e+00 4.823437e-01 6.518649e+00 4.660016e-01 6.536040e+00 4.555579e-01 6.525552e+00 4.431175e-01 6.521294e+00 4.280352e-01 6.551161e+00 4.232111e-01 6.569983e+00 4.207336e-01 6.588195e+00 4.135652e-01 6.628818e+00 4.032065e-01 6.677494e+00 3.826306e-01 6.716761e+00 3.513684e-01 6.773131e+00 3.165817e-01 6.864872e+00 2.905794e-01 6.997306e+00 2.795065e-01 7.170796e+00 2.831094e-01 7.387551e+00 2.987905e-01 
7.735037e+00 3.410748e-01 8.084927e+00 3.589669e-01 8.537884e+00 3.649774e-01 8.171072e+00 3.815658e-01 7.862417e+00 3.925575e-01 7.600892e+00 4.023331e-01 7.382981e+00 4.175894e-01 7.205591e+00 4.368734e-01 7.067482e+00 4.603326e-01 6.974525e+00 4.907331e-01 6.869826e+00 5.005185e-01 6.773566e+00 4.983032e-01 6.722468e+00 5.069348e-01 6.658550e+00 4.994019e-01 6.599995e+00 4.838605e-01 6.587215e+00 4.852638e-01 6.562201e+00 4.699520e-01 6.531154e+00 4.466549e-01 6.536686e+00 4.423329e-01 6.545184e+00 4.292560e-01 6.536407e+00 4.099146e-01 6.551441e+00 4.065520e-01 6.591235e+00 4.074117e-01 6.608540e+00 4.011023e-01 6.638167e+00 3.949210e-01 6.709073e+00 3.870528e-01 6.758245e+00 3.583841e-01 6.814556e+00 3.237696e-01 6.908221e+00 2.994912e-01 7.046172e+00 2.911845e-01 7.227901e+00 2.976388e-01 7.455190e+00 3.158608e-01 
7.804117e+00 3.327384e-01 8.165258e+00 3.482143e-01 8.632056e+00 3.546287e-01 8.256107e+00 3.721690e-01 7.938163e+00 3.834242e-01 7.666871e+00 3.926536e-01 7.439704e+00 4.087749e-01 7.254186e+00 4.344947e-01 7.106568e+00 4.646863e-01 7.014468e+00 4.994194e-01 6.898949e+00 5.060998e-01 6.795308e+00 5.028292e-01 6.749438e+00 5.162754e-01 6.676824e+00 5.067003e-01 6.614485e+00 4.897293e-01 6.610463e+00 4.990964e-01 6.574570e+00 4.808236e-01 6.541590e+00 4.545495e-01 6.557109e+00 4.594638e-01 6.555142e+00 4.421756e-01 6.545401e+00 4.185320e-01 6.568231e+00 4.208727e-01 6.605267e+00 4.161552e-01 6.622669e+00 4.037862e-01 6.657384e+00 3.976929e-01 6.731555e+00 3.878871e-01 6.777370e+00 3.526327e-01 6.839226e+00 3.152094e-01 6.942729e+00 2.916114e-01 7.090262e+00 2.845230e-01 7.280344e+00 2.913412e-01 7.515557e+00 3.090200e-01 
7.860796e+00 3.506796e-01 8.233396e+00 3.676921e-01 8.715573e+00 3.744920e-01 8.329331e+00 3.931377e-01 8.003391e+00 4.009666e-01 7.725945e+00 3.988669e-01 7.496074e+00 4.027319e-01 7.304464e+00 4.363452e-01 7.131390e+00 4.732428e-01 7.075038e+00 5.380482e-01 6.939050e+00 5.162063e-01 6.795085e+00 4.878112e-01 6.781016e+00 5.409976e-01 6.701654e+00 4.999020e-01 6.606813e+00 4.534841e-01 6.621652e+00 5.197522e-01 6.600751e+00 4.695286e-01 6.539495e+00 4.090054e-01 6.547292e+00 4.692881e-01 6.586533e+00 4.340536e-01 6.552855e+00 3.793008e-01 6.548664e+00 4.125898e-01 6.642191e+00 4.113218e-01 6.643520e+00 3.833843e-01 6.646375e+00 3.969984e-01 6.777650e+00 4.299828e-01 6.811581e+00 3.666168e-01 6.858501e+00 3.115263e-01 6.965619e+00 2.888246e-01 7.121761e+00 2.884247e-01 7.320044e+00 3.014382e-01 7.563269e+00 3.237564e-01 
7.905082e+00 3.433462e-01 8.283882e+00 3.594611e-01 8.774338e+00 3.665588e-01 8.380162e+00 3.863731e-01 8.046713e+00 3.933034e-01 7.762118e+00 3.850365e-01 7.528798e+00 3.748068e-01 7.343544e+00 4.087113e-01 7.160127e+00 5.195736e-01 7.117190e+00 5.560114e-01 6.949961e+00 4.938603e-01 6.795595e+00 5.089202e-01 6.817097e+00 5.608799e-01 6.702324e+00 4.847487e-01 6.599888e+00 4.567624e-01 6.667924e+00 5.595173e-01 6.594252e+00 4.660087e-01 6.529103e+00 3.866513e-01 6.596456e+00 5.273029e-01 6.578906e+00 4.353500e-01 6.543133e+00 3.418084e-01 6.581818e+00 4.717511e-01 6.647053e+00 4.107325e-01 6.643489e+00 3.430047e-01 6.668242e+00 4.425040e-01 6.806217e+00 4.480723e-01 6.807120e+00 3.524432e-01 6.860322e+00 2.912247e-01 6.982012e+00 2.732095e-01 7.149071e+00 2.777073e-01 7.354315e+00 2.933384e-01 7.602647e+00 3.165551e-01 
7.937532e+00 3.608253e-01 8.322325e+00 3.799308e-01 8.822294e+00 3.873395e-01 8.418951e+00 4.125444e-01 8.076220e+00 4.218206e-01 7.779611e+00 3.945199e-01 7.543018e+00 3.108310e-01 7.382534e+00 3.041343e-01 7.140731e+00 6.116967e-01 7.225292e+00 6.917637e-01 6.966290e+00 3.814070e-01 6.738405e+00 4.878691e-01 6.900313e+00 7.269947e-01 6.709134e+00 3.760023e-01 6.544158e+00 3.271214e-01 6.718741e+00 7.809573e-01 6.618488e+00 3.945954e-01 6.485997e+00 1.659263e-01 6.595112e+00 7.530161e-01 6.633330e+00 4.152008e-01 6.517045e+00 1.083730e-01 6.541909e+00 6.377761e-01 6.723035e+00 4.246633e-01 6.639713e+00 1.341325e-01 6.629047e+00 5.400071e-01 6.925059e+00 6.168458e-01 6.806401e+00 3.295560e-01 6.843712e+00 2.517404e-01 6.987678e+00 2.565711e-01 7.166963e+00 2.771629e-01 7.377824e+00 3.014966e-01 7.630401e+00 3.299935e-01 
7.957096e+00 3.543539e-01 8.343036e+00 3.735595e-01 8.845633e+00 3.811412e-01 8.436379e+00 4.095674e-01 8.087054e+00 4.230224e-01 7.781359e+00 3.984811e-01 7.533595e+00 3.111023e-01 7.366556e+00 2.842444e-01 7.149526e+00 6.706200e-01 7.187111e+00 6.548150e-01 6.891582e+00 2.647516e-01 6.713544e+00 4.967554e-01 6.876323e+00 7.145655e-01 6.628563e+00 2.576924e-01 6.499685e+00 3.200744e-01 6.710002e+00 8.107494e-01 6.517191e+00 2.952705e-01 6.412673e+00 1.574757e-01 6.599164e+00 8.170973e-01 6.510099e+00 3.285662e-01 6.427925e+00 7.740541e-02 6.547178e+00 6.995068e-01 6.608979e+00 3.332628e-01 6.554154e+00 5.924970e-02 6.638492e+00 5.784093e-01 6.857070e+00 5.460462e-01 6.732693e+00 2.468976e-01 6.825925e+00 2.100153e-01 6.995408e+00 2.380621e-01 7.182495e+00 2.673968e-01 7.395611e+00 2.942727e-01 7.649162e+00 3.232989e-01 
7.964700e+00 3.699157e-01 8.352146e+00 3.914035e-01 8.858080e+00 3.990619e-01 8.446902e+00 4.366847e-01 8.093570e+00 4.792356e-01 7.766896e+00 5.365690e-01 7.437745e+00 6.197981e-01 7.083626e+00 5.399368e-01 6.909014e+00 -4.398153e-02 6.276827e+00 -2.453422e-01 6.331712e+00 1.388734e-01 6.402926e+00 -1.090375e-01 5.845547e+00 -5.198011e-01 5.995922e+00 -1.098746e-02 6.129548e+00 -1.090744e-03 5.645702e+00 -7.617092e-01 5.785758e+00 -1.467858e-01 5.980594e+00 1.672245e-01 5.699569e+00 -8.225422e-01 5.709795e+00 -2.459590e-01 5.964983e+00 2.129738e-01 5.948318e+00 -6.977582e-01 5.771376e+00 -3.133208e-01 6.068179e+00 1.201833e-01 6.258333e+00 -5.953301e-01 5.961114e+00 -6.557254e-01 6.491894e+00 -9.205221e-02 6.821410e+00 1.483817e-01 7.011494e+00 2.332009e-01 7.191994e+00 2.732989e-01 7.402099e+00 3.039546e-01 7.655659e+00 3.359174e-01 
7.959326e+00 3.626275e-01 8.343480e+00 3.841162e-01 8.845952e+00 3.917613e-01 8.433832e+00 4.334591e-01 8.077686e+00 4.894518e-01 7.739165e+00 5.853093e-01 7.367497e+00 7.474241e-01 6.913537e+00 6.328451e-01 6.732795e+00 -4.947943e-01 5.783108e+00 -7.390456e-01 6.052503e+00 7.954279e-02 6.220712e+00 -4.602490e-01 5.304250e+00 -1.154572e+00 5.696242e+00 -1.249104e-01 5.938260e+00 -1.870561e-01 5.097841e+00 -1.530074e+00 5.464011e+00 -3.249782e-01 5.783674e+00 1.540551e-01 5.240458e+00 -1.590190e+00 5.381721e+00 -4.590812e-01 5.775532e+00 2.792997e-01 5.649267e+00 -1.321193e+00 5.437424e+00 -5.396682e-01 5.880545e+00 1.721607e-01 6.075773e+00 -1.093812e+00 5.613728e+00 -1.107241e+00 6.425967e+00 -1.958738e-01 6.833187e+00 1.366650e-01 7.022408e+00 2.330064e-01 7.196185e+00 2.711662e-01 7.402284e+00 2.992887e-01 7.653046e+00 3.295006e-01 
7.941649e+00 3.743556e-01 8.323944e+00 3.962515e-01 8.822871e+00 4.037399e-01 8.415269e+00 4.367846e-01 8.067126e+00 4.657127e-01 7.754570e+00 4.866527e-01 7.467134e+00 4.965617e-01 7.200502e+00 4.318400e-01 7.025156e+00 2.938098e-01 6.653184e+00 9.261470e-02 6.553921e+00 1.522883e-01 6.548674e+00 1.941035e-01 6.321985e+00 1.504454e-02 6.263836e+00 7.201920e-02 6.306271e+00 1.778735e-01 6.194720e+00 7.684302e-03 6.114189e+00 3.623623e-02 6.188215e+00 1.739275e-01 6.206511e+00 6.087376e-02 6.088791e+00 2.571867e-02 6.190347e+00 1.361165e-01 6.304719e+00 1.185656e-01 6.197702e+00 2.273812e-02 6.312928e+00 7.626107e-02 6.489653e+00 1.438895e-01 6.464004e+00 4.417829e-02 6.590750e+00 9.558864e-02 6.800639e+00 1.812613e-01 6.986982e+00 2.384362e-01 7.173483e+00 2.762712e-01 7.384771e+00 3.077159e-01 7.636308e+00 3.402120e-01 