# vtk DataFile Version 2.0
Comment goes here
ASCII

DATASET STRUCTURED_POINTS
FIELD FieldData 1
TIME 1 1 double
0.08600000
DIMENSIONS    64   64   1

ORIGIN    0.000   0.000   0.000
SPACING   0.03125 0.03125   1.000

POINT_DATA   4096
SCALARS uX double
LOOKUP_TABLE default

8.241621e-01 -2.594941e+00 1.206636e+00 -2.466768e+00 1.172968e+00 -2.045390e+00 1.393817e+00 -3.129863e+00 4.795378e-01 -2.762484e+00 3.489840e-01 -1.860706e+00 -1.581458e-01 -2.243406e+00 -3.124380e-01 -2.658311e+00 -1.430955e+00 -1.892383e+00 -9.082280e-01 -6.260596e-01 -1.326800e+00 8.133171e-02 -9.024547e-01 -1.758582e+00 -1.540110e+00 -8.496137e-01 -5.718649e-01 2.021438e+00 -1.031524e+00 1.877857e+00 -5.192474e-01 3.828134e+00 -8.414765e-01 3.977181e+00 -2.253417e+00 1.169137e+00 -5.964358e-01 1.685838e+00 1.294302e-01 2.486163e+00 1.070717e-01 1.982342e+00 -1.234864e+00 1.047988e+00 -1.380575e+00 3.606472e-01 -1.536486e+00 7.462261e-01 -6.034269e-01 -7.142258e-01 -1.609307e+00 4.919615e-01 -2.699302e-01 -7.494752e-02 1.075895e-02 -5.508692e-01 -2.327167e-01 -1.304714e+00 -4.064338e-01 -2.169195e+00 -2.664435e-01 -2.957247e+00 3.871162e-01 -3.512407e+00 
1.620804e-01 -1.447289e+00 9.570806e-01 -1.487910e+00 1.607106e+00 -1.302396e+00 8.478947e-01 -1.585961e+00 6.493654e-01 -1.207441e+00 -1.276806e+00 -8.040569e-01 -1.017784e-01 -1.599786e-01 3.570836e-01 2.680360e-01 1.658946e+00 1.095208e+00 1.244760e+00 1.587605e+00 2.373859e+00 2.667723e+00 2.844456e+00 2.963223e+00 3.231903e+00 1.059843e+00 2.134902e+00 1.168247e+00 5.659005e-03 2.535599e+00 -1.537604e+00 2.899424e-01 -1.547547e+00 -1.272618e+00 -3.881544e+00 -1.018202e+00 -1.625677e+00 -3.892726e+00 -1.771450e+00 -2.602279e+00 -1.509976e+00 -1.753976e+00 -1.589889e+00 -2.807970e+00 -2.927310e+00 -3.287283e+00 -2.614097e+00 -1.504358e+00 8.443258e-01 -1.333662e+00 -2.598453e+00 -1.608949e+00 -1.581737e+00 -1.351821e+00 -1.863355e+00 -7.010260e-01 -1.492206e+00 -3.061357e-01 -1.494130e+00 -6.132771e-01 -1.626310e+00 2.518897e-01 -1.330029e+00 3.082929e-01 
4.483308e+00 1.277519e-01 4.047172e+00 1.878870e-01 2.810881e+00 5.321789e-01 2.420134e+00 9.552116e-01 2.922875e+00 4.692997e-01 1.736379e+00 -7.385059e-01 1.158348e+00 -1.942154e+00 6.744804e-01 -2.792393e+00 -1.233698e-01 -4.029675e+00 -2.463226e+00 -6.441736e+00 -3.017776e+00 -7.899061e+00 -4.264162e+00 -7.323109e+00 -2.994923e+00 -6.469147e+00 -1.609647e+00 -5.589040e+00 1.379730e+00 -2.181087e+00 2.691354e+00 -1.311198e+00 4.528783e+00 -8.725147e-02 5.797964e+00 1.821394e+00 6.725029e+00 1.713669e+00 7.258470e+00 1.962124e+00 7.343830e+00 2.620386e+00 8.216850e+00 3.111447e+00 8.017253e+00 3.216450e+00 8.051756e+00 2.963018e+00 7.946723e+00 3.700168e+00 7.449460e+00 3.081198e+00 7.246585e+00 3.200674e+00 6.666121e+00 3.498819e+00 6.390481e+00 3.569136e+00 6.212563e+00 3.603630e+00 5.331950e+00 4.327179e+00 4.475060e+00 5.077031e+00 
7.997425e+00 2.161880e+00 6.807980e+00 1.783406e+00 4.224462e+00 1.813866e+00 5.589001e+00 1.885959e+00 5.920833e+00 6.974676e-01 6.141076e+00 -3.869735e-01 4.240508e+00 -2.418996e+00 2.742857e+00 -4.508321e+00 -1.018278e-01 -7.188888e+00 -2.865496e+00 -1.021494e+01 -5.995596e+00 -1.361892e+01 -7.992922e+00 -1.467328e+01 -7.538115e+00 -1.193295e+01 -3.305975e+00 -7.837111e+00 1.774430e+00 -5.056579e+00 5.856003e+00 -7.568463e-01 8.197528e+00 2.023118e+00 1.099240e+01 3.176672e+00 1.134272e+01 5.850712e+00 1.284110e+01 5.816332e+00 1.296092e+01 6.016640e+00 1.361276e+01 6.919725e+00 1.421415e+01 7.182401e+00 1.411230e+01 5.960751e+00 1.192061e+01 6.104780e+00 1.328962e+01 6.062029e+00 1.270508e+01 5.789498e+00 1.219655e+01 5.635269e+00 1.159409e+01 5.378131e+00 1.123214e+01 5.450198e+00 1.019842e+01 5.430588e+00 9.313347e+00 5.354336e+00 
8.086820e+00 2.886277e+00 6.949274e+00 1.880345e+00 4.926607e+00 1.842557e+00 5.547864e+00 1.253102e+00 5.629824e+00 1.819808e-01 5.458229e+00 -9.616466e-01 3.986874e+00 -2.740719e+00 2.312862e+00 -4.858453e+00 -2.930324e-01 -7.650641e+00 -3.151393e+00 -1.082546e+01 -6.328686e+00 -1.406887e+01 -8.271262e+00 -1.506600e+01 -7.539662e+00 -1.248210e+01 -2.926770e+00 -7.827774e+00 2.250964e+00 -4.054483e+00 6.488331e+00 -8.736796e-02 9.130040e+00 2.582110e+00 1.144609e+01 4.122985e+00 1.223654e+01 5.958694e+00 1.327918e+01 6.280773e+00 1.357300e+01 6.559227e+00 1.398332e+01 7.048897e+00 1.424826e+01 7.126095e+00 1.402407e+01 6.442924e+00 1.279961e+01 6.331073e+00 1.320767e+01 6.165476e+00 1.271471e+01 5.910385e+00 1.221814e+01 5.727090e+00 1.166542e+01 5.528644e+00 1.113901e+01 5.469551e+00 1.024668e+01 5.281596e+00 9.338914e+00 4.820149e+00 
8.611643e+00 3.190868e+00 7.470583e+00 2.538710e+00 5.803929e+00 2.468184e+00 6.144773e+00 1.801997e+00 6.412580e+00 9.401677e-01 6.224707e+00 -1.522774e-01 5.074471e+00 -1.796729e+00 3.336825e+00 -3.983976e+00 5.978486e-01 -6.966661e+00 -2.923946e+00 -1.075927e+01 -6.894308e+00 -1.471877e+01 -9.837620e+00 -1.663440e+01 -9.486482e+00 -1.404572e+01 -3.831643e+00 -8.544771e+00 2.184310e+00 -3.865234e+00 6.532195e+00 -7.010583e-02 9.266458e+00 2.535517e+00 1.127200e+01 4.191040e+00 1.229484e+01 5.657676e+00 1.315878e+01 6.236532e+00 1.355917e+01 6.587816e+00 1.388266e+01 6.928385e+00 1.402244e+01 6.931538e+00 1.375703e+01 6.488141e+00 1.301427e+01 6.293972e+00 1.300681e+01 6.115359e+00 1.266994e+01 5.897976e+00 1.224462e+01 5.695633e+00 1.175055e+01 5.474285e+00 1.122418e+01 5.291420e+00 1.047575e+01 4.996535e+00 9.649256e+00 4.437055e+00 
8.831107e+00 3.327372e+00 7.806024e+00 2.602442e+00 6.391475e+00 2.536353e+00 6.325134e+00 1.670966e+00 6.217206e+00 6.971527e-01 5.813515e+00 -4.253528e-01 4.698220e+00 -1.985203e+00 2.921112e+00 -4.146604e+00 1.779531e-01 -7.262728e+00 -3.573032e+00 -1.158521e+01 -8.186901e+00 -1.658478e+01 -1.199099e+01 -1.921450e+01 -1.168177e+01 -1.595507e+01 -3.986456e+00 -8.237952e+00 3.217384e+00 -2.444397e+00 7.871481e+00 1.380382e+00 1.055220e+01 3.798339e+00 1.232318e+01 5.296665e+00 1.325731e+01 6.371256e+00 1.388467e+01 6.847307e+00 1.418260e+01 7.088148e+00 1.432827e+01 7.213839e+00 1.428642e+01 7.093749e+00 1.395755e+01 6.712555e+00 1.336372e+01 6.429258e+00 1.311974e+01 6.188234e+00 1.275141e+01 5.964454e+00 1.232546e+01 5.758631e+00 1.183297e+01 5.536732e+00 1.127249e+01 5.298539e+00 1.056112e+01 4.938383e+00 9.764774e+00 4.325196e+00 
9.335207e+00 3.617023e+00 8.406901e+00 3.143457e+00 7.227598e+00 3.086456e+00 7.196951e+00 2.401339e+00 7.201245e+00 1.629503e+00 6.992130e+00 7.225094e-01 6.208555e+00 -5.817070e-01 4.646696e+00 -2.595340e+00 1.812406e+00 -5.861588e+00 -2.791851e+00 -1.100057e+01 -9.054025e+00 -1.780012e+01 -1.513313e+01 -2.323741e+01 -1.672646e+01 -1.925297e+01 -4.804463e+00 -8.441423e+00 4.058368e+00 -1.807824e+00 8.628035e+00 1.795949e+00 1.089227e+01 3.961879e+00 1.239317e+01 5.335424e+00 1.327332e+01 6.263090e+00 1.383216e+01 6.792493e+00 1.414554e+01 7.063067e+00 1.426388e+01 7.146582e+00 1.417524e+01 6.992955e+00 1.383916e+01 6.647064e+00 1.334324e+01 6.341024e+00 1.303004e+01 6.096175e+00 1.271824e+01 5.894779e+00 1.236661e+01 5.695910e+00 1.194592e+01 5.465852e+00 1.144906e+01 5.197403e+00 1.083906e+01 4.835072e+00 1.014439e+01 4.315177e+00 
9.611837e+00 3.654826e+00 8.788759e+00 3.164687e+00 7.737495e+00 3.110039e+00 7.515412e+00 2.371399e+00 7.256313e+00 1.533841e+00 6.866853e+00 6.181277e-01 6.033534e+00 -5.863590e-01 4.457228e+00 -2.430025e+00 1.595815e+00 -5.635910e+00 -3.301283e+00 -1.162495e+01 -1.101319e+01 -2.146520e+01 -1.973707e+01 -2.957435e+01 -2.297173e+01 -2.413980e+01 -4.472870e+00 -6.686151e+00 6.667267e+00 1.204798e+00 1.119807e+01 4.300833e+00 1.286146e+01 5.954695e+00 1.401814e+01 6.910001e+00 1.458111e+01 7.378921e+00 1.480874e+01 7.643869e+00 1.493796e+01 7.726477e+00 1.486737e+01 7.612915e+00 1.461007e+01 7.308258e+00 1.415393e+01 6.874090e+00 1.358516e+01 6.468321e+00 1.315809e+01 6.170915e+00 1.284645e+01 5.976179e+00 1.250614e+01 5.778048e+00 1.208036e+01 5.527096e+00 1.157276e+01 5.215401e+00 1.098339e+01 4.812427e+00 1.033466e+01 4.282667e+00 
1.009371e+01 3.949097e+00 9.378966e+00 3.655885e+00 8.519941e+00 3.608063e+00 8.461863e+00 3.110462e+00 8.432445e+00 2.579300e+00 8.399176e+00 2.057345e+00 8.121491e+00 1.371203e+00 7.203791e+00 6.968557e-02 4.759362e+00 -2.841878e+00 -9.503078e-01 -9.129832e+00 -1.127491e+01 -2.214145e+01 -2.473945e+01 -3.942123e+01 -3.632887e+01 -3.137082e+01 -2.733414e+00 -4.037762e+00 1.007842e+01 3.361001e+00 1.294576e+01 5.133061e+00 1.325338e+01 6.196092e+00 1.411690e+01 6.936835e+00 1.456306e+01 7.262129e+00 1.474437e+01 7.605663e+00 1.492493e+01 7.725325e+00 1.485768e+01 7.590105e+00 1.457530e+01 7.241360e+00 1.408239e+01 6.767088e+00 1.349393e+01 6.319564e+00 1.304707e+01 6.027082e+00 1.280834e+01 5.877586e+00 1.255864e+01 5.708131e+00 1.221607e+01 5.470635e+00 1.178374e+01 5.171145e+00 1.127828e+01 4.809526e+00 1.071833e+01 4.385432e+00 
1.037593e+01 3.978730e+00 9.742302e+00 3.679645e+00 8.976233e+00 3.629164e+00 8.811557e+00 3.101373e+00 8.640264e+00 2.523489e+00 8.486280e+00 2.001615e+00 8.166233e+00 1.496998e+00 7.308890e+00 7.300571e-01 5.115366e+00 -1.103301e+00 -4.848581e-01 -8.401219e+00 -1.403410e+01 -2.766958e+01 -3.251291e+01 -5.225690e+01 -4.765248e+01 -3.699193e+01 2.848464e+00 4.622994e+00 1.654058e+01 9.828147e+00 1.733773e+01 8.757349e+00 1.565810e+01 8.833793e+00 1.629263e+01 9.027563e+00 1.624550e+01 8.582791e+00 1.581974e+01 8.622416e+00 1.588500e+01 8.563359e+00 1.561292e+01 8.181653e+00 1.512843e+01 7.643433e+00 1.446051e+01 7.013187e+00 1.368151e+01 6.397350e+00 1.307664e+01 6.043493e+00 1.296319e+01 5.998117e+00 1.276776e+01 5.847553e+00 1.240058e+01 5.563289e+00 1.194332e+01 5.210011e+00 1.144824e+01 4.815910e+00 1.093145e+01 4.389255e+00 
1.082089e+01 4.248234e+00 1.028654e+01 4.109000e+00 9.689753e+00 4.061187e+00 9.715346e+00 3.786252e+00 9.848159e+00 3.558325e+00 1.019503e+01 3.550596e+00 1.075637e+01 3.887688e+00 1.131338e+01 4.286195e+00 1.096248e+01 3.203510e+00 5.246425e+00 4.644836e-01 -7.138072e+00 -2.622240e+01 -3.200553e+01 -4.860653e+01 -2.642971e+01 -3.726989e-01 3.285658e+01 2.032726e+01 2.565070e+01 1.421861e+01 1.960742e+01 9.226960e+00 1.504432e+01 8.767742e+00 1.624549e+01 8.945797e+00 1.609961e+01 8.240967e+00 1.565561e+01 8.644928e+00 1.594876e+01 8.637168e+00 1.567651e+01 8.219565e+00 1.518569e+01 7.609590e+00 1.442515e+01 6.865487e+00 1.351238e+01 6.144479e+00 1.283971e+01 5.832595e+00 1.290745e+01 5.880727e+00 1.283058e+01 5.779395e+00 1.255434e+01 5.525005e+00 1.216677e+01 5.199341e+00 1.173951e+01 4.854815e+00 1.129535e+01 4.518942e+00 
1.108682e+01 4.298778e+00 1.061843e+01 4.159837e+00 1.011079e+01 4.107100e+00 1.006550e+01 3.806624e+00 1.013025e+01 3.491517e+00 1.041566e+01 3.341065e+00 1.095617e+01 3.739980e+00 1.158967e+01 5.130914e+00 1.216893e+01 8.380783e+00 1.269636e+01 1.182202e+01 -1.747842e+01 -7.257463e+00 1.480555e+01 4.987777e+01 9.331482e+01 7.886978e+01 6.189582e+01 4.392727e+01 3.907604e+01 2.525959e+01 2.605688e+01 1.236415e+01 1.613927e+01 1.158525e+01 1.922445e+01 1.174861e+01 1.830259e+01 9.308097e+00 1.634226e+01 9.727452e+00 1.714861e+01 9.733357e+00 1.659945e+01 8.833579e+00 1.583575e+01 8.081277e+00 1.487810e+01 7.174826e+00 1.362910e+01 6.025528e+00 1.250180e+01 5.659875e+00 1.315519e+01 6.189498e+00 1.317273e+01 6.043894e+00 1.277620e+01 5.643505e+00 1.232592e+01 5.238919e+00 1.190491e+01 4.872526e+00 1.150292e+01 4.546036e+00 
1.148286e+01 4.509317e+00 1.109738e+01 4.483544e+00 1.073662e+01 4.432398e+00 1.082579e+01 4.378105e+00 1.114544e+01 4.412959e+00 1.191854e+01 4.731030e+00 1.355821e+01 5.973154e+00 1.658144e+01 9.267335e+00 2.294702e+01 1.441311e+01 2.370056e+01 1.715919e+01 -2.272141e+00 4.974484e+01 9.712098e+01 1.534150e+02 1.899110e+02 1.564463e+02 1.056836e+02 4.234076e+01 3.527943e+01 2.316144e+01 2.426757e+01 9.082145e+00 1.106150e+01 1.070152e+01 1.966779e+01 1.158174e+01 1.788977e+01 8.352070e+00 1.584349e+01 1.006166e+01 1.750304e+01 9.768627e+00 1.671803e+01 9.171433e+00 1.607170e+01 8.053823e+00 1.490761e+01 6.842205e+00 1.331987e+01 5.661928e+00 1.188236e+01 5.364783e+00 1.312176e+01 6.028007e+00 1.326608e+01 5.990024e+00 1.296265e+01 5.625399e+00 1.256029e+01 5.242060e+00 1.218577e+01 4.917169e+00 1.183677e+01 4.659014e+00 
1.172599e+01 4.592137e+00 1.140311e+01 4.570978e+00 1.113918e+01 4.515447e+00 1.118369e+01 4.467297e+00 1.145828e+01 4.434742e+00 1.217332e+01 4.415500e+00 1.371470e+01 4.908205e+00 1.613929e+01 8.419601e+00 1.970919e+01 6.514748e+00 6.148260e+01 4.775737e+01 4.391548e+01 7.218908e+01 1.413561e+02 1.628535e+02 2.228165e+02 1.837910e+02 7.365930e+01 3.759287e+01 4.370456e+01 3.386654e+01 3.218798e+01 4.947725e+00 4.503935e+00 1.370290e+01 2.591966e+01 1.652530e+01 2.147722e+01 7.709151e+00 1.423801e+01 1.142434e+01 1.974893e+01 1.121361e+01 1.776330e+01 9.629029e+00 1.688911e+01 8.886677e+00 1.567721e+01 7.050317e+00 1.332911e+01 4.822095e+00 1.041961e+01 4.808499e+00 1.392608e+01 6.992547e+00 1.383707e+01 6.338579e+00 1.315965e+01 5.671329e+00 1.268204e+01 5.238889e+00 1.232913e+01 4.930695e+00 1.202586e+01 4.705599e+00 
1.206072e+01 4.711804e+00 1.180825e+01 4.720842e+00 1.165907e+01 4.669258e+00 1.172362e+01 4.765785e+00 1.204757e+01 5.073119e+00 1.284109e+01 5.746923e+00 1.476595e+01 7.048111e+00 1.995214e+01 1.202778e+01 2.680821e+01 4.382053e+01 7.990224e+01 1.483053e+01 1.028225e+02 8.707675e+01 1.704517e+02 1.025176e+02 6.066517e+01 -8.643486e+00 -4.765224e+01 -4.165041e+00 2.441770e+01 3.342032e+01 2.786925e+01 -5.829645e+00 9.420520e+00 2.225089e+01 3.219931e+01 1.877859e+01 2.012543e+01 3.929388e+00 1.316408e+01 1.396342e+01 2.112451e+01 1.134952e+01 1.803719e+01 1.075221e+01 1.695794e+01 8.874877e+00 1.579849e+01 6.659771e+00 1.315987e+01 4.695507e+00 7.581813e+00 4.751551e+00 1.486336e+01 7.706279e+00 1.425178e+01 6.431430e+00 1.342587e+01 5.660168e+00 1.294032e+01 5.249783e+00 1.259991e+01 4.969156e+00 1.232033e+01 4.779366e+00 
1.227738e+01 4.817682e+00 1.210659e+01 4.824953e+00 1.205744e+01 4.770175e+00 1.215714e+01 4.902560e+00 1.245588e+01 5.336712e+00 1.301565e+01 6.138774e+00 1.439111e+01 6.211420e+00 1.937478e+01 1.296495e+00 3.325155e+01 9.400586e-01 6.146881e+00 1.440955e+01 7.719358e+01 -3.110803e+01 -1.544112e+01 -4.541609e+01 -8.570902e+01 -7.460722e+01 6.531198e+01 1.464083e+02 1.491874e+02 1.009470e+02 6.481760e+01 5.465224e+01 1.052489e+02 8.363878e+01 6.042171e+01 3.603533e+01 2.973609e+01 2.180228e+01 4.104337e+01 2.918677e+01 2.659949e+01 1.466152e+01 1.867453e+01 8.826488e+00 1.506463e+01 7.493355e+00 1.418440e+01 6.423371e+00 1.369015e+01 3.987359e+00 1.262908e+01 1.196707e+01 1.871696e+01 8.275511e+00 1.465193e+01 6.189963e+00 1.352224e+01 5.540031e+00 1.302305e+01 5.207083e+00 1.270628e+01 4.981480e+00 1.247471e+01 4.845026e+00 
1.253447e+01 4.812653e+00 1.242830e+01 4.794031e+00 1.245983e+01 4.752021e+00 1.238752e+01 4.840088e+00 1.242007e+01 5.169044e+00 1.240893e+01 5.874841e+00 1.208772e+01 6.658141e+00 1.035093e+01 5.392909e+00 5.657107e+00 -1.847869e+01 -1.033942e+01 -1.142254e+01 -8.232447e+00 -2.964774e-01 -3.059646e+01 -3.075879e+01 7.217855e+00 6.941744e+01 1.507491e+02 1.452251e+02 1.068986e+02 6.478450e+01 6.023061e+01 9.864537e+01 1.257849e+02 7.119745e+01 4.683250e+01 3.416979e+01 3.606461e+01 3.980725e+01 5.216805e+01 2.634905e+01 2.357399e+01 1.381300e+01 1.767595e+01 5.972110e+00 1.337450e+01 6.298989e+00 1.347349e+01 8.057550e+00 1.724839e+01 8.573638e+00 2.798622e+01 1.994465e+01 2.163050e+01 9.126750e+00 1.582383e+01 6.764127e+00 1.410333e+01 5.866075e+00 1.333705e+01 5.330249e+00 1.293239e+01 5.011253e+00 1.269802e+01 4.850180e+00 
1.272131e+01 4.950811e+00 1.271665e+01 4.985709e+00 1.286122e+01 4.947031e+00 1.284830e+01 5.056658e+00 1.302611e+01 5.260481e+00 1.339058e+01 5.750386e+00 1.380346e+01 7.617058e+00 1.291699e+01 1.458370e+01 6.036611e+00 3.295413e+01 3.975484e+00 -1.625602e+00 4.924507e+01 6.803901e+01 4.196509e+01 7.009159e+00 7.859485e+00 -8.852275e+00 -1.640672e+01 -6.107235e+01 -5.149992e+01 -2.341582e+01 2.424034e+01 3.961871e+01 1.875305e+01 -7.011677e+00 9.661465e+00 1.132775e+01 2.633646e+01 2.418543e+01 2.097371e+01 4.806397e+00 1.435489e+01 7.622159e+00 1.599921e+01 8.217040e+00 1.481388e+01 6.439613e+00 1.458895e+01 7.820430e+00 1.810302e+01 1.356701e+01 2.627733e+01 1.041597e+01 1.317473e+01 5.175445e+00 1.338926e+01 5.322409e+00 1.328249e+01 5.299070e+00 1.307136e+01 5.134407e+00 1.289806e+01 4.988205e+00 1.278797e+01 4.925325e+00 
1.290332e+01 4.817317e+00 1.295297e+01 4.789822e+00 1.314671e+01 4.763412e+00 1.290625e+01 4.716647e+00 1.279718e+01 4.560067e+00 1.279917e+01 4.102092e+00 1.283508e+01 3.403887e+00 1.264487e+01 1.995575e+00 1.602037e+01 -4.819399e-01 6.261713e+00 3.335451e+01 4.466330e+01 -6.600977e+00 -1.732543e+01 -1.571490e+01 -1.176759e+01 -4.225959e+01 -4.384109e+01 -5.583773e+01 -2.279550e+01 -1.456305e+01 1.416665e+01 -6.407833e+00 -1.869824e+01 -1.741011e+01 7.866855e+00 4.189749e+00 1.776254e+01 5.938241e+00 4.612525e+00 -1.927103e-01 1.301260e+01 5.870209e+00 1.518357e+01 8.428444e+00 1.583048e+01 7.411957e+00 1.555117e+01 6.987900e+00 1.540880e+01 9.226213e+00 1.220173e+01 -2.012366e-01 9.146458e+00 3.832599e+00 1.240726e+01 4.771524e+00 1.296674e+01 4.950293e+00 1.302426e+01 4.942213e+00 1.297466e+01 4.869683e+00 1.292444e+01 4.820239e+00 
1.307041e+01 4.984520e+00 1.323647e+01 5.031759e+00 1.354982e+01 5.011667e+00 1.343478e+01 5.121571e+00 1.346333e+01 5.289383e+00 1.358901e+01 5.541632e+00 1.371179e+01 5.936339e+00 1.361302e+01 5.757664e+00 1.436341e+01 -8.028902e-01 2.232714e+01 -3.375429e+00 -1.370258e+00 1.252141e+01 1.230823e+01 -2.555911e+00 -3.367941e+00 -7.147424e+00 -9.145087e+00 -3.964383e+01 -2.479665e+01 -2.565007e+01 -5.239221e+00 -1.213108e+01 -9.866641e+00 -1.315226e+01 4.148197e+00 -8.827494e-01 1.100639e+01 1.853289e+00 6.571801e+00 1.264736e+00 1.189804e+01 4.804811e+00 1.351123e+01 6.504408e+00 1.469260e+01 6.970551e+00 1.482261e+01 6.856617e+00 1.403220e+01 6.122450e+00 1.060258e+01 1.557871e+00 1.123305e+01 4.698638e+00 1.246541e+01 4.882911e+00 1.273355e+01 4.840413e+00 1.285168e+01 4.852646e+00 1.292242e+01 4.872308e+00 1.298432e+01 4.914453e+00 
1.318387e+01 4.739296e+00 1.339353e+01 4.701490e+00 1.372844e+01 4.690462e+00 1.340330e+01 4.603328e+00 1.315982e+01 4.449975e+00 1.290861e+01 4.203359e+00 1.252844e+01 3.849135e+00 1.201916e+01 3.282510e+00 1.168430e+01 4.008198e+00 9.032328e+00 1.091586e+01 1.243061e+01 -1.576816e+00 -5.932202e+00 -1.438928e+01 -7.113900e+00 -2.217316e+01 -1.772009e+01 -2.512324e+01 -1.010694e+01 -1.406210e+01 7.571980e-01 -7.725623e+00 -2.664821e+00 -7.401405e+00 5.842444e+00 -9.943114e-02 1.053130e+01 2.604458e+00 9.391948e+00 2.591689e+00 1.195891e+01 4.921671e+00 1.340992e+01 6.217879e+00 1.430664e+01 6.449285e+00 1.423109e+01 6.471648e+00 1.361825e+01 5.880286e+00 1.229699e+01 3.366201e+00 1.139585e+01 4.143519e+00 1.219227e+01 4.580464e+00 1.263060e+01 4.678726e+00 1.283652e+01 4.703561e+00 1.295734e+01 4.714177e+00 1.305828e+01 4.728889e+00 
1.334059e+01 4.951390e+00 1.365867e+01 5.019437e+00 1.412174e+01 5.019567e+00 1.390415e+01 5.146275e+00 1.378511e+01 5.270423e+00 1.366378e+01 5.302424e+00 1.341746e+01 5.026970e+00 1.294094e+01 3.923143e+00 1.229408e+01 1.529504e+00 1.091739e+01 1.720864e+00 1.092877e+00 -1.537044e+00 -8.967495e-01 -9.072182e+00 -6.334910e+00 -1.375156e+01 -6.957435e+00 -1.961866e+01 -9.034859e+00 -1.579686e+01 -3.450621e+00 -1.010713e+01 -1.302801e+00 -7.082832e+00 4.319014e+00 -1.854561e+00 8.122300e+00 7.605673e-01 8.848473e+00 2.135606e+00 1.104681e+01 4.079903e+00 1.243846e+01 5.131296e+00 1.326199e+01 5.649793e+00 1.341348e+01 5.722365e+00 1.293552e+01 4.946194e+00 1.181077e+01 3.579715e+00 1.180604e+01 4.255482e+00 1.229683e+01 4.616887e+00 1.259583e+01 4.707801e+00 1.278630e+01 4.742290e+00 1.294990e+01 4.791281e+00 1.312287e+01 4.866447e+00 
1.339462e+01 4.658259e+00 1.373816e+01 4.640306e+00 1.420756e+01 4.645946e+00 1.380537e+01 4.627583e+00 1.344576e+01 4.562527e+00 1.301651e+01 4.361813e+00 1.237472e+01 3.889794e+00 1.132618e+01 2.994941e+00 9.460940e+00 1.584830e+00 5.705237e+00 -9.929927e-01 1.040652e+00 -9.243782e+00 -7.930647e+00 -1.725307e+01 -9.214627e+00 -1.682842e+01 -6.851167e+00 -1.366880e+01 -2.399565e+00 -8.593401e+00 2.221998e+00 -5.103885e+00 3.547527e+00 -3.032664e+00 6.963376e+00 2.396184e-01 9.533737e+00 2.205111e+00 1.042577e+01 3.232389e+00 1.172870e+01 4.512306e+00 1.271592e+01 5.305256e+00 1.328848e+01 5.603359e+00 1.332079e+01 5.529545e+00 1.297139e+01 4.993409e+00 1.237595e+01 4.123106e+00 1.202075e+01 4.211453e+00 1.227474e+01 4.449698e+00 1.257022e+01 4.566753e+00 1.278916e+01 4.603999e+00 1.296913e+01 4.622920e+00 1.315607e+01 4.646109e+00 
1.354021e+01 4.906049e+00 1.397978e+01 4.999193e+00 1.457371e+01 5.016070e+00 1.427373e+01 5.181321e+00 1.405492e+01 5.315130e+00 1.380547e+01 5.273074e+00 1.338168e+01 4.800254e+00 1.254550e+01 3.499542e+00 1.077573e+01 9.506911e-01 6.794938e+00 -2.953943e+00 -1.648237e+00 -1.034054e+01 -1.055498e+01 -1.872508e+01 -1.052733e+01 -1.414794e+01 -1.898088e+00 -1.017834e+01 8.428946e-02 -7.520582e+00 2.233220e+00 -5.137022e+00 3.768555e+00 -3.245242e+00 6.180369e+00 -6.104756e-01 8.387307e+00 1.285659e+00 9.651068e+00 2.556544e+00 1.094180e+01 3.783496e+00 1.194743e+01 4.589004e+00 1.254008e+01 4.938428e+00 1.268020e+01 4.905712e+00 1.243727e+01 4.501684e+00 1.200743e+01 3.994775e+00 1.194755e+01 4.121560e+00 1.223400e+01 4.399439e+00 1.253487e+01 4.576256e+00 1.277178e+01 4.665550e+00 1.298563e+01 4.734220e+00 1.322597e+01 4.816478e+00 
1.354118e+01 4.599050e+00 1.398941e+01 4.616664e+00 1.458055e+01 4.635155e+00 1.414762e+01 4.710700e+00 1.376594e+01 4.757218e+00 1.332285e+01 4.665988e+00 1.265117e+01 4.249351e+00 1.144769e+01 3.140305e+00 9.057716e+00 5.226174e-01 4.142141e+00 -5.315049e+00 -5.051253e+00 -1.712217e+01 -1.833658e+01 -2.911323e+01 -1.484454e+01 -1.520759e+01 1.997635e+00 -4.979898e+00 5.085769e+00 -1.927187e+00 6.971729e+00 -6.785060e-01 7.631293e+00 5.900989e-02 8.859263e+00 1.742675e+00 1.023632e+01 2.919327e+00 1.102630e+01 3.632152e+00 1.178556e+01 4.461609e+00 1.245620e+01 4.974857e+00 1.281203e+01 5.101382e+00 1.281335e+01 4.938601e+00 1.255734e+01 4.551475e+00 1.220925e+01 4.129774e+00 1.204168e+01 4.121501e+00 1.228888e+01 4.336099e+00 1.256862e+01 4.475803e+00 1.278854e+01 4.529173e+00 1.298920e+01 4.553531e+00 1.322340e+01 4.579142e+00 
1.366713e+01 4.854898e+00 1.419806e+01 4.979347e+00 1.490107e+01 5.006732e+00 1.457240e+01 5.244892e+00 1.434535e+01 5.478737e+00 1.412503e+01 5.585272e+00 1.378848e+01 5.330894e+00 1.310690e+01 4.275767e+00 1.146072e+01 1.556786e+00 7.105525e+00 -4.520524e+00 -4.144196e+00 -1.731839e+01 -2.855631e+01 -4.083880e+01 -1.949814e+01 -1.224364e+01 9.661726e+00 5.982613e-01 9.131496e+00 1.036134e+00 8.553740e+00 3.910846e-01 7.939690e+00 -1.128966e-01 8.245134e+00 1.363423e+00 9.592162e+00 2.444684e+00 1.040758e+01 3.043599e+00 1.110121e+01 3.909055e+00 1.188529e+01 4.460746e+00 1.227049e+01 4.606272e+00 1.233098e+01 4.485450e+00 1.213270e+01 4.174266e+00 1.182581e+01 3.854263e+00 1.175229e+01 3.895444e+00 1.214735e+01 4.262329e+00 1.251879e+01 4.487026e+00 1.277761e+01 4.591277e+00 1.300910e+01 4.666799e+00 1.328658e+01 4.755138e+00 
1.361923e+01 4.545169e+00 1.414555e+01 4.606542e+00 1.483963e+01 4.631459e+00 1.444373e+01 4.812209e+00 1.414789e+01 5.019586e+00 1.386801e+01 5.198566e+00 1.348579e+01 5.222965e+00 1.278890e+01 4.749181e+00 1.119505e+01 2.785744e+00 6.776096e+00 -3.522950e+00 -7.803554e+00 -2.408002e+01 -4.168417e+01 -5.010897e+01 -8.018681e+00 6.888656e+00 2.611091e+01 1.107831e+01 1.377981e+01 6.484795e+00 1.289233e+01 4.328198e+00 1.109190e+01 2.217034e+00 1.058818e+01 3.751265e+00 1.152719e+01 4.088587e+00 1.163605e+01 3.927802e+00 1.191711e+01 4.734229e+00 1.253702e+01 4.990965e+00 1.268502e+01 4.886204e+00 1.256024e+01 4.602793e+00 1.225030e+01 4.168932e+00 1.183970e+01 3.768649e+00 1.164802e+01 3.851268e+00 1.226879e+01 4.293784e+00 1.261728e+01 4.440069e+00 1.280813e+01 4.461056e+00 1.299437e+01 4.474238e+00 1.324845e+01 4.506363e+00 
1.371524e+01 4.785392e+00 1.430821e+01 4.948545e+00 1.509799e+01 4.980110e+00 1.478907e+01 5.311385e+00 1.463586e+01 5.707596e+00 1.457925e+01 6.153425e+00 1.457868e+01 6.566459e+00 1.466757e+01 6.610760e+00 1.486228e+01 5.351404e+00 1.445444e+01 1.315284e-01 8.139668e+00 -1.214865e+01 -5.001835e+01 -1.532655e+01 4.094221e+01 6.212291e+01 5.569681e+01 2.289703e+01 1.792499e+01 1.067816e+01 1.482698e+01 5.787965e+00 1.112905e+01 1.089977e+00 9.305919e+00 3.742317e+00 1.132606e+01 4.047164e+00 1.127996e+01 3.287596e+00 1.115895e+01 4.376350e+00 1.222821e+01 4.676024e+00 1.233855e+01 4.540661e+00 1.223709e+01 4.303034e+00 1.194215e+01 3.854309e+00 1.140658e+01 3.380009e+00 1.109641e+01 3.413415e+00 1.207866e+01 4.276574e+00 1.259997e+01 4.485413e+00 1.281237e+01 4.518679e+00 1.301139e+01 4.571374e+00 1.329554e+01 4.666123e+00 
1.362019e+01 4.479839e+00 1.419904e+01 4.588640e+00 1.497531e+01 4.614280e+00 1.465515e+01 4.891901e+00 1.451503e+01 5.253148e+00 1.452839e+01 5.757524e+00 1.469280e+01 6.550709e+00 1.513004e+01 7.788195e+00 1.625756e+01 9.684484e+00 1.916001e+01 1.236274e+01 2.537714e+01 1.664773e+01 1.172056e+01 5.883480e+01 9.048440e+01 8.597465e+01 5.029849e+01 1.868572e+01 7.897586e+00 1.236012e+01 1.966326e+01 9.428957e+00 1.319041e+01 7.719746e-01 1.087646e+01 6.872166e+00 1.363336e+01 5.754281e+00 1.207316e+01 3.285515e+00 1.169846e+01 5.554961e+00 1.308413e+01 5.306299e+00 1.286564e+01 4.874312e+00 1.248688e+01 4.448312e+00 1.203479e+01 3.713444e+00 1.126173e+01 3.027742e+00 1.045049e+01 3.281770e+00 1.250622e+01 4.531403e+00 1.280777e+01 4.486368e+00 1.284163e+01 4.374360e+00 1.296584e+01 4.360696e+00 1.321799e+01 4.409396e+00 
1.367485e+01 4.683066e+00 1.430428e+01 4.886267e+00 1.515942e+01 4.918927e+00 1.487899e+01 5.348707e+00 1.481839e+01 5.886993e+00 1.497044e+01 6.627556e+00 1.536497e+01 7.925542e+00 1.626041e+01 1.006058e+01 1.899085e+01 1.273014e+01 2.893330e+01 5.714479e+00 7.184455e+01 1.396233e+01 9.647739e+01 1.124427e+02 9.931848e+01 5.420425e+01 2.161096e+01 -2.019039e+01 -6.859919e+00 1.561939e+01 2.118014e+01 1.110767e+01 1.250608e+01 -4.831854e+00 6.820862e+00 8.221566e+00 1.498159e+01 6.763352e+00 1.235480e+01 1.855235e+00 1.004321e+01 5.562851e+00 1.336214e+01 5.186770e+00 1.279864e+01 4.744389e+00 1.236752e+01 4.346416e+00 1.184319e+01 3.277423e+00 1.088732e+01 2.764076e+00 9.216382e+00 2.239551e+00 1.239168e+01 4.820919e+00 1.295707e+01 4.584518e+00 1.289147e+01 4.417696e+00 1.297889e+01 4.430933e+00 1.323898e+01 4.536591e+00 
1.353212e+01 4.385490e+00 1.414341e+01 4.539501e+00 1.498074e+01 4.564244e+00 1.471930e+01 4.930256e+00 1.470662e+01 5.383380e+00 1.498215e+01 5.993628e+00 1.564864e+01 7.185495e+00 1.699410e+01 9.840511e+00 1.981191e+01 1.835279e+01 2.395340e+01 3.752005e+01 9.264492e+01 2.617933e+01 1.275050e+02 1.014426e+02 6.812604e+01 -2.425823e+00 -1.463000e+01 -5.758986e+01 2.319416e+01 4.241500e+01 4.607018e+01 2.083957e+01 1.038006e+01 -1.563774e+01 1.081922e+01 1.711679e+01 1.988377e+01 8.982718e+00 1.126419e+01 -2.074016e+00 9.816849e+00 8.733879e+00 1.516278e+01 5.936533e+00 1.325546e+01 4.806718e+00 1.241641e+01 4.512645e+00 1.197841e+01 3.156804e+00 1.085158e+01 1.545147e+00 6.706118e+00 2.468732e+00 1.471575e+01 5.844751e+00 1.324696e+01 4.526885e+00 1.283790e+01 4.207458e+00 1.286911e+01 4.193372e+00 1.311157e+01 4.274583e+00 
1.352963e+01 4.511998e+00 1.418823e+01 4.738721e+00 1.508464e+01 4.772251e+00 1.483084e+01 5.301607e+00 1.478207e+01 6.066685e+00 1.490918e+01 7.143288e+00 1.534937e+01 8.805118e+00 1.625494e+01 1.271291e+01 1.715580e+01 2.556645e+01 9.849292e+00 8.082955e+01 -1.450529e+01 7.013679e+01 8.246631e+01 3.373565e+01 -1.362307e+01 -1.896736e+01 -4.381380e+01 7.142633e+00 8.476429e+01 8.355492e+01 6.385933e+01 3.097310e+01 1.061919e+01 4.219366e+00 4.843393e+01 4.112976e+01 3.126392e+01 1.405874e+01 1.227374e+01 2.582220e+00 2.183235e+01 1.671827e+01 1.826761e+01 7.009106e+00 1.254188e+01 3.183258e+00 1.078633e+01 3.037362e+00 1.129649e+01 2.885575e+00 1.132613e+01 6.848302e-01 1.069393e+01 9.139007e+00 1.948478e+01 7.294547e+00 1.411452e+01 4.783057e+00 1.295448e+01 4.253537e+00 1.283584e+01 4.217310e+00 1.307390e+01 4.338267e+00 
1.334228e+01 4.219943e+00 1.398395e+01 4.406895e+00 1.485621e+01 4.432570e+00 1.462837e+01 4.913641e+00 1.460164e+01 5.635253e+00 1.475695e+01 6.515142e+00 1.538033e+01 7.162163e+00 1.696253e+01 7.433851e+00 2.027548e+01 3.745479e+00 3.108435e+01 -8.529364e+00 -1.969657e+01 3.860953e+01 -3.384320e+01 -2.663658e+01 -3.872281e+01 -1.116060e+01 1.406347e+00 1.051402e+02 7.607290e+01 2.876457e+01 1.160457e+01 1.495247e+01 2.194365e+01 5.087459e+01 6.113732e+01 2.868444e+01 2.442232e+01 1.291354e+01 1.832956e+01 1.763451e+01 2.860920e+01 1.183513e+01 1.512045e+01 5.676489e+00 1.139325e+01 2.557333e+00 1.024587e+01 2.176358e+00 1.108603e+01 3.854947e+00 1.312423e+01 4.971477e+00 1.918362e+01 1.053843e+01 1.475481e+01 4.191677e+00 1.287272e+01 3.912925e+00 1.253053e+01 3.873961e+00 1.260281e+01 3.937031e+00 1.288519e+01 4.066394e+00 
1.327497e+01 4.250382e+00 1.396662e+01 4.497046e+00 1.487984e+01 4.533605e+00 1.463788e+01 5.014058e+00 1.459880e+01 5.646631e+00 1.471247e+01 6.400719e+00 1.501272e+01 7.170924e+00 1.544447e+01 7.651626e+00 1.568706e+01 4.069938e+00 2.100966e+01 -2.608378e+01 3.855123e+01 -1.705500e+01 8.861280e+00 -1.373550e+01 -1.590405e+00 -2.347566e+01 4.200437e+01 3.439636e+01 -2.080612e+01 -4.767863e+01 -2.410545e+01 -4.368207e+00 2.804734e+01 3.801362e+01 9.862951e+00 -1.366668e+01 4.118380e+00 2.211111e+00 1.679649e+01 1.430092e+01 1.240268e+01 -3.760104e+00 7.139369e+00 1.407733e+00 9.948027e+00 2.596538e+00 1.048279e+01 2.197139e+00 1.060292e+01 3.604452e+00 1.256297e+01 6.953188e+00 1.663196e+01 2.777615e+00 7.112875e+00 8.649741e-01 1.078290e+01 2.838119e+00 1.180555e+01 3.449217e+00 1.229786e+01 3.766875e+00 1.273972e+01 4.019501e+00 