# vtk DataFile Version 2.0
Comment goes here
ASCII

DATASET STRUCTURED_POINTS
FIELD FieldData 1
TIME 1 1 double
0.63000000
DIMENSIONS    128   16   1

ORIGIN    0.000   0.000   0.000
SPACING   0.0078125 0.015625   1.000

POINT_DATA   2048
SCALARS fMag double
LOOKUP_TABLE default

0 0 0 0 0 0 0 0 0 0 0 0 0 0 0 0 0 0 0 0 0 0 0 0 0 0 0 0 0 0 0 0 0 0 0 0 0 0 0 0 0 0 0 0 0 0 0 0 0 0 0 0 0 0 0 0 0 0 0 0 0 0 0 0 0 0 0 0 0 0 0 0 0 0 0 0 0 0 0 0 0 0 0 0 0 0 0 0 0 0 0 0 0 0 0 0 0 0 0 0 0 0 0 0 0 0 0 0 0 0 0 0 0 0 0 0 0 0 0 0 0 0 0 0 0 0 0 0 
0 0 0 0 0 0 0 0 0 0 0 0 0 0 0 0 0 0 0 0 0 0 0 0 0 0 0 0 0 0 0 0 0 0 0 0 0 0 0 0 0 0 0 0 0 0 0 0 0 0 0 0 0 0 0 0 0 0 0 0 0 0 0 0 0 0 0 0 0 0 0 0 0 0 0 0 0 0 0 0 0 0 0 0 0 0 0 0 0 0 0 0 0 0 0 0 0 0 0 0 0 0 0 0 0 0 0 0 0 0 0 0 0 0 0 0 0 0 0 0 0 0 0 0 0 0 0 0 
0 0 0 0 0 1.736224e+00 5.383580e-01 1.193632e+00 4.949695e-01 5.434959e-01 5.379198e-01 5.572810e-01 9.121963e-01 1.010956e+00 1.312041e+00 1.329532e+00 2.873861e+00 3.290712e+00 4.227413e+00 5.522504e+00 5.567192e+00 5.930680e+00 5.760105e+00 5.748305e+00 5.719588e+00 5.620622e+00 5.664464e+00 5.514757e+00 5.643261e+00 5.465153e+00 5.577933e+00 5.290332e+00 5.315695e+00 5.013797e+00 5.092799e+00 4.947716e+00 5.102991e+00 5.024453e+00 5.060341e+00 4.903212e+00 4.777922e+00 4.620978e+00 4.457295e+00 4.389952e+00 4.242498e+00 4.274114e+00 4.149854e+00 4.215806e+00 4.029453e+00 4.019214e+00 3.779202e+00 3.778055e+00 3.638802e+00 3.693809e+00 3.595567e+00 3.533080e+00 3.668570e+00 4.271442e+00 9.991420e-01 1.725395e+00 4.387529e+00 1.787822e+00 2.233223e+00 4.870331e+00 1.764095e+00 2.754909e+00 4.609095e+00 2.107303e+00 5.829708e+00 6.159753e+00 3.280798e+00 5.904609e+00 5.079662e+00 3.820066e+00 3.525299e+00 3.377237e+00 3.250851e+00 3.283411e+00 3.185909e+00 3.262944e+00 3.088138e+00 3.152337e+00 2.928852e+00 3.006214e+00 2.765494e+00 2.820335e+00 2.568578e+00 2.621979e+00 2.459965e+00 2.545325e+00 2.460845e+00 2.470366e+00 2.403556e+00 2.299757e+00 2.257661e+00 2.011759e+00 1.985827e+00 1.659043e+00 1.785466e+00 1.524950e+00 1.815821e+00 1.527512e+00 1.778528e+00 1.360437e+00 1.527966e+00 1.120053e+00 1.312731e+00 1.046771e+00 1.206594e+00 1.014044e+00 1.012352e+00 9.133264e-01 7.990711e-01 8.703933e-01 6.412179e-01 8.497919e-01 5.108543e-01 8.457048e-01 4.128188e-01 7.544552e-01 3.264058e-01 7.611161e-01 2.684611e-01 6.517737e-01 0 0 0 0 
0 0 0 0 0 5.107249e+00 1.576578e+00 3.496910e+00 1.456532e+00 1.595894e+00 1.581354e+00 1.638047e+00 2.682539e+00 2.973225e+00 3.859278e+00 3.910638e+00 8.453078e+00 9.679176e+00 1.243451e+01 1.624422e+01 1.637581e+01 1.744519e+01 1.694359e+01 1.690891e+01 1.682445e+01 1.653329e+01 1.666221e+01 1.622174e+01 1.659968e+01 1.607566e+01 1.640736e+01 1.556128e+01 1.563586e+01 1.474777e+01 1.498016e+01 1.455340e+01 1.501019e+01 1.477918e+01 1.488478e+01 1.442259e+01 1.405404e+01 1.359239e+01 1.311089e+01 1.291278e+01 1.247901e+01 1.257199e+01 1.220645e+01 1.240043e+01 1.185225e+01 1.182212e+01 1.111612e+01 1.111275e+01 1.070315e+01 1.086496e+01 1.057600e+01 1.039219e+01 1.084880e+01 1.331007e+01 4.598640e+00 8.298266e+00 1.118078e+01 4.470133e+00 8.978217e+00 1.280813e+01 7.441651e+00 1.021560e+01 1.057536e+01 1.549602e+01 1.434626e+01 1.356113e+01 2.015204e+01 1.527837e+01 1.435225e+01 1.123643e+01 1.036939e+01 9.933884e+00 9.562117e+00 9.657871e+00 9.371040e+00 9.597613e+00 9.083389e+00 9.272213e+00 8.614827e+00 8.842389e+00 8.134341e+00 8.295687e+00 7.555210e+00 7.712338e+00 7.235845e+00 7.486983e+00 7.238533e+00 7.266564e+00 7.070060e+00 6.764718e+00 6.640867e+00 5.917502e+00 5.841165e+00 4.879889e+00 5.251692e+00 4.485396e+00 5.340975e+00 4.493018e+00 5.231484e+00 4.001923e+00 4.494909e+00 3.295388e+00 3.862414e+00 3.080437e+00 3.550808e+00 2.984666e+00 2.979801e+00 2.688543e+00 2.352383e+00 2.561921e+00 1.887552e+00 2.500624e+00 1.503373e+00 2.488170e+00 1.215732e+00 2.226287e+00 9.769937e-01 2.268867e+00 7.821027e-01 1.916465e+00 0 0 0 0 
0 0 0 0 0 3.528215e+00 1.085730e+00 2.408843e+00 1.006489e+00 1.101106e+00 1.091964e+00 1.131002e+00 1.852795e+00 8.808486e+00 6.920956e+00 1.041229e+01 1.614435e+01 1.159481e+01 1.728052e+01 1.325356e+01 1.361410e+01 1.205137e+01 1.170493e+01 1.168100e+01 1.162266e+01 1.142149e+01 1.151053e+01 1.120620e+01 1.146725e+01 1.110521e+01 1.133432e+01 1.074979e+01 1.080130e+01 1.018777e+01 1.034831e+01 1.005350e+01 1.036908e+01 1.020950e+01 1.028247e+01 9.963186e+00 9.708583e+00 9.389666e+00 9.057028e+00 8.920167e+00 8.620498e+00 8.684716e+00 8.432179e+00 8.566177e+00 8.187475e+00 8.166661e+00 7.678944e+00 7.676619e+00 7.393666e+00 7.505454e+00 7.305841e+00 7.178867e+00 7.835162e+00 1.146559e+01 1.170074e+01 1.003675e+01 9.996537e+00 1.356795e+01 1.026043e+01 1.200280e+01 1.638510e+01 9.857951e+00 1.305031e+01 1.786092e+01 6.317156e+00 1.485492e+01 1.991976e+01 7.087254e+00 9.027369e+00 7.762109e+00 7.163154e+00 6.862312e+00 6.605490e+00 6.671627e+00 6.473468e+00 6.629974e+00 6.274728e+00 6.405159e+00 5.951028e+00 6.108231e+00 5.619118e+00 5.730593e+00 5.219096e+00 5.327665e+00 4.998532e+00 5.172047e+00 5.000438e+00 5.019814e+00 4.884076e+00 4.673134e+00 4.587563e+00 4.087833e+00 4.035071e+00 3.370992e+00 3.627804e+00 3.098443e+00 3.689478e+00 3.103751e+00 3.613940e+00 2.764668e+00 3.105325e+00 2.276854e+00 2.668690e+00 2.128659e+00 2.453718e+00 2.062739e+00 2.059434e+00 1.858241e+00 1.625981e+00 1.770608e+00 1.304624e+00 1.727925e+00 1.038883e+00 1.719112e+00 8.405318e-01 1.541364e+00 6.834244e-01 1.582097e+00 5.367458e-01 1.323563e+00 0 0 0 0 
0 0 0 0 0 1.571899e-01 4.750972e-02 1.055655e-01 4.492625e-02 4.870731e-02 4.852911e-02 5.023597e-02 8.245233e-02 1.073572e+01 1.172948e+01 1.102879e+01 1.208974e+01 1.136821e+01 1.165305e+01 1.204704e+01 1.036352e+01 5.368653e-01 5.214508e-01 5.203889e-01 5.177914e-01 5.088232e-01 5.127841e-01 4.992146e-01 5.108362e-01 4.946947e-01 5.048949e-01 4.788438e-01 4.811347e-01 4.537976e-01 4.609504e-01 4.478175e-01 4.618805e-01 4.547740e-01 4.580280e-01 4.438060e-01 4.324631e-01 4.182559e-01 4.034346e-01 3.973357e-01 3.839823e-01 3.868404e-01 3.755866e-01 3.815540e-01 3.646808e-01 3.637527e-01 3.420255e-01 3.419225e-01 3.293190e-01 3.343002e-01 3.254098e-01 3.197534e-01 7.724154e-01 4.143867e+00 7.776305e+00 4.026619e+00 4.297772e+00 7.858416e+00 3.361110e+00 4.254678e+00 7.705528e+00 1.738113e+00 4.374452e+00 4.144113e+00 3.218319e+00 4.282482e+00 2.526298e+00 4.136332e+00 6.467648e-01 3.457438e-01 3.190639e-01 3.056646e-01 2.942237e-01 2.971672e-01 2.883363e-01 2.953049e-01 2.794760e-01 2.852838e-01 2.650531e-01 2.720563e-01 2.502714e-01 2.552410e-01 2.324637e-01 2.373059e-01 2.226527e-01 2.303887e-01 2.227501e-01 2.236163e-01 2.175716e-01 2.081728e-01 2.043575e-01 1.820905e-01 1.797330e-01 1.501452e-01 1.615769e-01 1.379967e-01 1.643234e-01 1.382439e-01 1.609838e-01 1.231822e-01 1.383823e-01 1.015198e-01 1.190074e-01 9.499300e-02 1.095045e-01 9.211727e-02 9.198408e-02 8.302460e-02 7.266849e-02 7.907971e-02 5.829065e-02 7.709239e-02 4.636481e-02 7.664666e-02 3.761904e-02 6.953263e-02 3.281415e-02 7.433709e-02 2.310929e-02 5.887151e-02 0 0 0 0 
0 0 0 0 0 0 0 0 0 0 0 0 0 1.148437e+01 1.219579e+01 1.177797e+01 1.265529e+01 1.209708e+01 1.225295e+01 1.249084e+01 1.098023e+01 0 0 0 0 0 0 0 0 0 0 0 0 0 0 0 0 0 0 0 0 0 0 0 0 0 0 0 0 0 0 0 0 0 0 0 9.495651e-02 7.084243e-01 1.093937e+00 7.046795e-01 3.985120e-01 3.283228e-01 1.546335e-01 1.213938e-01 8.359857e-02 4.416612e-01 7.034201e-01 6.566843e-01 8.676153e-01 8.269404e-01 1.170597e+00 7.358080e-01 1.247234e-01 0 0 0 0 0 0 0 0 0 0 0 0 0 0 0 0 0 0 0 0 0 0 0 0 0 0 0 0 0 0 0 0 0 0 0 0 0 0 0 0 0 0 0 0 0 0 0 0 0 0 0 0 0 0 0 
0 0 0 0 0 0 0 0 0 0 0 0 0 1.203238e+01 1.253580e+01 1.207405e+01 1.239811e+01 1.224697e+01 1.220797e+01 1.250209e+01 1.203268e+01 0 0 0 0 0 0 0 0 0 0 0 0 0 0 0 0 0 0 0 0 0 0 0 0 0 0 0 0 0 0 0 0 0 0 0 0 0 0 0 0 0 0 0 0 0 0 0 0 0 0 0 0 0 0 0 0 0 0 0 0 0 0 0 0 0 0 0 0 0 0 0 0 0 0 0 0 0 0 0 0 0 0 0 0 0 0 0 0 0 0 0 0 0 0 0 0 0 0 0 0 0 0 0 0 0 0 0 
0 0 0 0 0 0 0 0 0 0 0 0 0 1.226351e+01 1.272911e+01 1.233072e+01 1.264855e+01 1.253283e+01 1.242403e+01 1.280920e+01 1.214499e+01 0 0 0 0 0 0 0 0 0 0 0 0 0 0 0 0 0 0 0 0 0 0 0 0 0 0 0 0 0 0 0 0 0 0 0 0 0 0 0 0 0 0 0 0 0 0 0 0 0 0 0 0 0 0 0 0 0 0 0 0 0 0 0 0 0 0 0 0 0 0 0 0 0 0 0 0 0 0 0 0 0 0 0 0 0 0 0 0 0 0 0 0 0 0 0 0 0 0 0 0 0 0 0 0 0 0 0 
0 0 0 0 0 0 0 0 0 0 0 0 0 1.202781e+01 1.253024e+01 1.207718e+01 1.240138e+01 1.225878e+01 1.221891e+01 1.252025e+01 1.204602e+01 0 0 0 0 0 0 0 0 0 0 0 0 0 0 0 0 0 0 0 0 0 0 0 0 0 0 0 0 0 0 0 0 0 0 0 0 0 0 0 0 0 0 0 0 0 0 0 0 0 0 0 0 0 0 0 0 0 0 0 0 0 0 0 0 0 0 0 0 0 0 0 0 0 0 0 0 0 0 0 0 0 0 0 0 0 0 0 0 0 0 0 0 0 0 0 0 0 0 0 0 0 0 0 0 0 0 0 
0 0 0 0 0 0 0 0 0 0 0 0 0 1.148460e+01 1.218780e+01 1.178827e+01 1.266662e+01 1.212259e+01 1.227391e+01 1.254116e+01 1.099592e+01 0 0 0 0 0 0 0 0 0 0 0 0 0 0 0 0 0 0 0 0 0 0 0 0 0 0 0 0 0 0 0 0 0 0 0 0 0 0 0 0 0 0 0 0 0 0 0 0 0 0 0 0 0 0 0 0 0 0 0 0 0 0 0 0 0 0 0 0 0 0 0 0 0 0 0 0 0 0 0 0 0 0 0 0 0 0 0 0 0 0 0 0 0 0 0 0 0 0 0 0 0 0 0 0 0 0 0 
0 0 0 0 0 1.571782e-01 4.786456e-02 1.090948e-01 3.608051e-02 4.688629e-02 4.359348e-02 5.085055e-02 7.954818e-02 1.070739e+01 1.170338e+01 1.103762e+01 1.210554e+01 1.141112e+01 1.171014e+01 1.214182e+01 1.043261e+01 5.460504e-01 5.275794e-01 5.199931e-01 5.119924e-01 5.030295e-01 5.119060e-01 5.026816e-01 5.141819e-01 4.931984e-01 4.990668e-01 4.723930e-01 4.786176e-01 4.547319e-01 4.613000e-01 4.415193e-01 4.472977e-01 4.349480e-01 4.402576e-01 4.333489e-01 4.317996e-01 4.259116e-01 4.194798e-01 4.205720e-01 4.135912e-01 4.158681e-01 3.992544e-01 3.961048e-01 3.767491e-01 3.794621e-01 3.678201e-01 3.748040e-01 3.652302e-01 3.694050e-01 3.611022e-01 3.618968e-01 3.539640e-01 3.475732e-01 3.385835e-01 3.286209e-01 3.275833e-01 3.249835e-01 3.345551e-01 3.312813e-01 3.368502e-01 3.233080e-01 3.259835e-01 3.166395e-01 3.248032e-01 3.196637e-01 3.240434e-01 3.154907e-01 3.165385e-01 3.114544e-01 3.100295e-01 3.062731e-01 2.987598e-01 2.982750e-01 2.892605e-01 2.944905e-01 2.812092e-01 2.842874e-01 2.613289e-01 2.611158e-01 2.377140e-01 2.445036e-01 2.294996e-01 2.381310e-01 2.221492e-01 2.221994e-01 2.087465e-01 2.073849e-01 2.034838e-01 1.956942e-01 1.944160e-01 1.764393e-01 1.825574e-01 1.607513e-01 1.758750e-01 1.494368e-01 1.707100e-01 1.421286e-01 1.674991e-01 1.363890e-01 1.572556e-01 1.219032e-01 1.342897e-01 1.032568e-01 1.132796e-01 9.781105e-02 1.022250e-01 9.522307e-02 7.995301e-02 7.956058e-02 5.282828e-02 7.031170e-02 3.587304e-02 6.221442e-02 1.729278e-02 4.831266e-02 1.888828e-02 6.513148e-02 2.566561e-02 5.901449e-02 0 0 0 0 
0 0 0 0 0 3.527946e+00 1.094310e+00 2.488021e+00 8.092114e-01 1.060849e+00 9.815076e-01 1.144824e+00 1.787608e+00 8.866493e+00 7.042004e+00 1.044506e+01 1.623766e+01 1.165031e+01 1.740543e+01 1.337893e+01 1.365903e+01 1.225747e+01 1.184243e+01 1.167209e+01 1.149246e+01 1.129141e+01 1.149079e+01 1.128398e+01 1.154231e+01 1.107161e+01 1.120350e+01 1.060500e+01 1.074480e+01 1.020874e+01 1.035616e+01 9.912137e+00 1.004177e+01 9.764500e+00 9.883600e+00 9.728472e+00 9.693667e+00 9.561490e+00 9.417148e+00 9.441702e+00 9.285071e+00 9.336239e+00 8.963408e+00 8.892760e+00 8.458348e+00 8.519277e+00 8.257968e+00 8.414732e+00 8.199815e+00 8.293505e+00 8.107104e+00 8.124918e+00 7.946825e+00 7.803368e+00 7.601564e+00 7.377945e+00 7.354671e+00 7.296331e+00 7.511220e+00 7.437753e+00 7.562776e+00 7.258791e+00 7.318848e+00 7.109073e+00 7.292303e+00 7.176897e+00 7.275171e+00 7.083137e+00 7.106625e+00 6.992467e+00 6.960472e+00 6.876146e+00 6.707515e+00 6.696664e+00 6.494351e+00 6.611804e+00 6.313703e+00 6.382825e+00 5.867431e+00 5.862618e+00 5.337180e+00 5.489510e+00 5.152537e+00 5.346161e+00 4.987200e+00 4.988203e+00 4.686050e+00 4.655424e+00 4.567828e+00 4.393013e+00 4.364413e+00 3.960998e+00 4.098533e+00 3.609143e+00 3.948828e+00 3.355301e+00 3.832858e+00 3.190936e+00 3.760170e+00 3.061139e+00 3.528960e+00 2.734385e+00 3.011698e+00 2.314043e+00 2.538399e+00 2.190532e+00 2.289335e+00 2.132124e+00 1.789595e+00 1.781420e+00 1.182001e+00 1.575755e+00 8.033302e-01 1.395019e+00 3.844630e-01 1.064415e+00 4.030753e-01 1.375648e+00 5.952152e-01 1.326781e+00 0 0 0 0 
0 0 0 0 0 5.106859e+00 1.589151e+00 3.611514e+00 1.171307e+00 1.537776e+00 1.421547e+00 1.658061e+00 2.588177e+00 2.895206e+00 3.868248e+00 3.930192e+00 8.519457e+00 9.775435e+00 1.252974e+01 1.641866e+01 1.661377e+01 1.774351e+01 1.714260e+01 1.689601e+01 1.663598e+01 1.634498e+01 1.663363e+01 1.633432e+01 1.670832e+01 1.602703e+01 1.621799e+01 1.535168e+01 1.555408e+01 1.477813e+01 1.499152e+01 1.434877e+01 1.453640e+01 1.413502e+01 1.430740e+01 1.408283e+01 1.403244e+01 1.384111e+01 1.363217e+01 1.366773e+01 1.344101e+01 1.351509e+01 1.297542e+01 1.287317e+01 1.224435e+01 1.233255e+01 1.195430e+01 1.218122e+01 1.187011e+01 1.200573e+01 1.173589e+01 1.176168e+01 1.150387e+01 1.129621e+01 1.100408e+01 1.068038e+01 1.064669e+01 1.056225e+01 1.087332e+01 1.076698e+01 1.094796e+01 1.050792e+01 1.059486e+01 1.029119e+01 1.055642e+01 1.038935e+01 1.053160e+01 1.025361e+01 1.028760e+01 1.012234e+01 1.007602e+01 9.953955e+00 9.709856e+00 9.694156e+00 9.401305e+00 9.571340e+00 9.139826e+00 9.239892e+00 8.493815e+00 8.486841e+00 7.726203e+00 7.946689e+00 7.458856e+00 7.739106e+00 7.219434e+00 7.220854e+00 6.783424e+00 6.739075e+00 6.612268e+00 6.359221e+00 6.317845e+00 5.733905e+00 5.933047e+00 5.224647e+00 5.716414e+00 4.857230e+00 5.548532e+00 4.619220e+00 5.443157e+00 4.431087e+00 5.108142e+00 3.957688e+00 4.358930e+00 3.348763e+00 3.673372e+00 3.169650e+00 3.312604e+00 3.085022e+00 2.589250e+00 2.577578e+00 1.710045e+00 2.280359e+00 1.162384e+00 2.018991e+00 5.555971e-01 1.535714e+00 5.810963e-01 1.970183e+00 8.669551e-01 1.921125e+00 0 0 0 0 
0 0 0 0 0 1.736091e+00 5.427058e-01 1.232587e+00 3.981764e-01 5.238136e-01 4.836331e-01 5.640879e-01 8.801176e-01 9.844266e-01 1.315087e+00 1.336178e+00 2.896428e+00 3.323437e+00 4.259789e+00 5.581804e+00 5.648081e+00 6.032090e+00 5.827752e+00 5.743917e+00 5.655512e+00 5.556601e+00 5.654747e+00 5.553022e+00 5.680189e+00 5.448619e+00 5.513558e+00 5.219079e+00 5.287894e+00 5.024116e+00 5.096659e+00 4.878150e+00 4.941928e+00 4.805468e+00 4.864061e+00 4.787711e+00 4.770577e+00 4.705529e+00 4.634504e+00 4.646595e+00 4.569529e+00 4.594722e+00 4.411268e+00 4.376512e+00 4.162747e+00 4.192737e+00 4.064149e+00 4.141293e+00 4.035527e+00 4.081628e+00 3.989892e+00 3.998655e+00 3.911008e+00 3.840411e+00 3.741098e+00 3.631055e+00 3.619605e+00 3.590899e+00 3.696656e+00 3.660507e+00 3.722035e+00 3.572441e+00 3.601994e+00 3.498756e+00 3.588921e+00 3.532120e+00 3.580474e+00 3.485961e+00 3.497513e+00 3.441328e+00 3.425580e+00 3.384082e+00 3.301101e+00 3.295767e+00 3.196215e+00 3.254026e+00 3.107332e+00 3.141354e+00 2.887713e+00 2.885339e+00 2.626736e+00 2.701683e+00 2.535818e+00 2.631076e+00 2.454383e+00 2.454850e+00 2.306120e+00 2.291036e+00 2.247924e+00 2.161903e+00 2.147848e+00 1.949346e+00 2.017071e+00 1.776256e+00 1.943461e+00 1.651366e+00 1.886384e+00 1.570413e+00 1.850486e+00 1.506338e+00 1.736438e+00 1.345206e+00 1.481522e+00 1.137977e+00 1.248253e+00 1.076930e+00 1.125494e+00 1.048121e+00 8.796079e-01 8.757181e-01 5.808719e-01 7.749154e-01 3.949268e-01 6.861872e-01 1.884268e-01 5.196123e-01 1.969331e-01 6.596789e-01 2.974013e-01 6.533589e-01 0 0 0 0 
0 0 0 0 0 0 0 0 0 0 0 0 0 0 0 0 0 0 0 0 0 0 0 0 0 0 0 0 0 0 0 0 0 0 0 0 0 0 0 0 0 0 0 0 0 0 0 0 0 0 0 0 0 0 0 0 0 0 0 0 0 0 0 0 0 0 0 0 0 0 0 0 0 0 0 0 0 0 0 0 0 0 0 0 0 0 0 0 0 0 0 0 0 0 0 0 0 0 0 0 0 0 0 0 0 0 0 0 0 0 0 0 0 0 0 0 0 0 0 0 0 0 0 0 0 0 0 0 
