# vtk DataFile Version 2.0
Comment goes here
ASCII

DATASET STRUCTURED_POINTS
FIELD FieldData 1
TIME 1 1 double
0.51000000
DIMENSIONS    128   16   1

ORIGIN    0.000   0.000   0.000
SPACING   0.0078125 0.015625   1.000

POINT_DATA   2048
SCALARS fMag double
LOOKUP_TABLE default

0 0 0 0 0 0 0 0 0 0 0 0 0 0 0 0 0 0 0 0 0 0 0 0 0 0 0 0 0 0 0 0 0 0 0 0 0 0 0 0 0 0 0 0 0 0 0 0 0 0 0 0 0 0 0 0 0 0 0 0 0 0 0 0 0 0 0 0 0 0 0 0 0 0 0 0 0 0 0 0 0 0 0 0 0 0 0 0 0 0 0 0 0 0 0 0 0 0 0 0 0 0 0 0 0 0 0 0 0 0 0 0 0 0 0 0 0 0 0 0 0 0 0 0 0 0 0 0 
0 0 0 0 0 0 0 0 0 0 0 0 0 0 0 0 0 0 0 0 0 0 0 0 0 0 0 0 0 0 0 0 0 0 0 0 0 0 0 0 0 0 0 0 0 0 0 0 0 0 0 0 0 0 0 0 0 0 0 0 0 0 0 0 0 0 0 0 0 0 0 0 0 0 0 0 0 0 0 0 0 0 0 0 0 0 0 0 0 0 0 0 0 0 0 0 0 0 0 0 0 0 0 0 0 0 0 0 0 0 0 0 0 0 0 0 0 0 0 0 0 0 0 0 0 0 0 0 
0 0 0 0 0 1.754663e+00 3.143694e+00 1.579187e+00 2.540723e+00 2.021556e+00 3.084655e+00 2.439015e+00 3.504290e+00 4.772162e+00 7.105353e+00 9.396292e+00 1.323628e+01 1.761452e+01 2.174446e+01 2.540273e+01 3.196833e+01 3.231629e+01 3.166665e+01 3.167503e+01 3.091484e+01 3.092946e+01 3.039588e+01 3.051179e+01 3.004721e+01 3.000895e+01 2.952057e+01 2.940364e+01 2.898492e+01 2.872193e+01 2.819261e+01 2.773133e+01 2.731109e+01 2.705900e+01 2.700359e+01 2.689031e+01 2.682973e+01 2.651850e+01 2.633602e+01 2.597540e+01 2.583801e+01 2.547819e+01 2.527506e+01 2.483568e+01 2.461461e+01 2.427145e+01 2.414397e+01 2.383166e+01 2.359660e+01 2.320380e+01 2.298750e+01 2.278920e+01 2.254581e+01 2.382706e+01 2.642263e+01 2.289257e+01 2.168299e+01 2.324516e+01 1.851376e+01 2.346227e+01 2.456511e+01 2.003036e+01 2.243672e+01 1.967698e+01 1.755004e+01 2.417349e+01 2.079582e+01 1.509506e+01 1.600646e+01 1.612167e+01 1.596058e+01 1.575893e+01 1.537013e+01 1.502248e+01 1.470245e+01 1.444706e+01 1.419545e+01 1.378649e+01 1.340596e+01 1.290380e+01 1.267050e+01 1.227939e+01 1.211873e+01 1.159778e+01 1.135747e+01 1.083822e+01 1.076905e+01 1.041397e+01 1.038455e+01 9.947532e+00 9.762747e+00 9.336640e+00 9.222079e+00 9.015206e+00 8.884706e+00 8.631917e+00 8.214857e+00 7.938333e+00 7.486156e+00 7.449320e+00 6.981530e+00 6.989067e+00 6.355060e+00 6.421334e+00 5.773729e+00 5.877535e+00 5.068640e+00 4.981445e+00 4.093869e+00 4.056618e+00 3.459143e+00 3.527757e+00 3.114746e+00 2.970186e+00 2.617470e+00 2.261505e+00 2.125774e+00 1.922467e+00 3.060144e+00 2.378687e-01 0 0 0 0 
0 0 0 0 0 5.162817e+00 9.259788e+00 4.664477e+00 7.481347e+00 5.947945e+00 9.074950e+00 7.176924e+00 1.031073e+01 1.403529e+01 2.089471e+01 2.763166e+01 3.892396e+01 5.179623e+01 6.393887e+01 7.469236e+01 9.399035e+01 9.501316e+01 9.310392e+01 9.312865e+01 9.089467e+01 9.093787e+01 8.936978e+01 8.971058e+01 8.834519e+01 8.823276e+01 8.679732e+01 8.645359e+01 8.522283e+01 8.444981e+01 8.289395e+01 8.153809e+01 8.030285e+01 7.956186e+01 7.939902e+01 7.906606e+01 7.888800e+01 7.797321e+01 7.743685e+01 7.637687e+01 7.597303e+01 7.491539e+01 7.431828e+01 7.302671e+01 7.237687e+01 7.136812e+01 7.099337e+01 7.007529e+01 6.938428e+01 6.822957e+01 6.759368e+01 6.701069e+01 6.666752e+01 6.863471e+01 7.022085e+01 6.652755e+01 6.292299e+01 6.495575e+01 5.878403e+01 6.346921e+01 6.259427e+01 5.664765e+01 5.824954e+01 5.701909e+01 5.158158e+01 5.624453e+01 5.516467e+01 4.668647e+01 4.740306e+01 4.740888e+01 4.693522e+01 4.634232e+01 4.519913e+01 4.417698e+01 4.323601e+01 4.248511e+01 4.174530e+01 4.054288e+01 3.942401e+01 3.794754e+01 3.726158e+01 3.611161e+01 3.563920e+01 3.410739e+01 3.340078e+01 3.187389e+01 3.167048e+01 3.062628e+01 3.053969e+01 2.925451e+01 2.871106e+01 2.745793e+01 2.712099e+01 2.651259e+01 2.612884e+01 2.538545e+01 2.415911e+01 2.334598e+01 2.201639e+01 2.190817e+01 2.053264e+01 2.055487e+01 1.869043e+01 1.888529e+01 1.698064e+01 1.728568e+01 1.490643e+01 1.464961e+01 1.203868e+01 1.192864e+01 1.017083e+01 1.037211e+01 9.156874e+00 8.731260e+00 7.693220e+00 6.645002e+00 6.244669e+00 5.648180e+00 8.999069e+00 6.995777e-01 0 0 0 0 
0 0 0 0 0 3.567246e+00 6.402877e+00 3.231624e+00 5.171983e+00 4.109651e+00 6.269772e+00 4.959140e+00 7.124150e+00 4.837343e+01 6.785559e+01 5.470114e+01 6.412316e+01 6.557169e+01 7.036727e+01 8.207536e+01 8.280801e+01 6.561423e+01 6.429612e+01 6.431324e+01 6.277102e+01 6.280095e+01 6.171840e+01 6.195376e+01 6.101109e+01 6.093348e+01 5.994240e+01 5.970507e+01 5.885528e+01 5.832155e+01 5.724728e+01 5.631113e+01 5.545824e+01 5.494662e+01 5.483419e+01 5.460431e+01 5.448138e+01 5.384976e+01 5.347943e+01 5.274756e+01 5.246873e+01 5.173846e+01 5.132617e+01 5.043437e+01 4.998566e+01 4.928912e+01 4.903035e+01 4.839641e+01 4.791926e+01 4.712191e+01 4.668281e+01 4.628023e+01 4.638241e+01 4.491879e+01 3.718791e+01 4.222723e+01 4.014808e+01 3.652727e+01 4.195488e+01 3.666881e+01 3.243851e+01 3.774466e+01 3.159638e+01 3.701634e+01 3.734779e+01 2.635749e+01 3.537607e+01 3.679056e+01 3.328601e+01 3.274427e+01 3.241715e+01 3.200769e+01 3.121819e+01 3.051231e+01 2.986246e+01 2.934389e+01 2.883298e+01 2.800259e+01 2.722988e+01 2.621023e+01 2.573650e+01 2.494231e+01 2.461606e+01 2.355815e+01 2.307013e+01 2.201557e+01 2.187507e+01 2.115386e+01 2.109402e+01 2.020635e+01 1.983098e+01 1.896543e+01 1.873269e+01 1.831246e+01 1.804741e+01 1.753397e+01 1.668701e+01 1.612542e+01 1.520716e+01 1.513246e+01 1.418246e+01 1.419785e+01 1.291011e+01 1.304469e+01 1.172907e+01 1.193965e+01 1.029608e+01 1.011851e+01 8.314793e+00 8.238548e+00 7.024066e+00 7.162843e+00 6.323173e+00 6.028965e+00 5.311621e+00 4.586945e+00 4.309868e+00 3.898551e+00 6.215521e+00 4.832212e-01 0 0 0 0 
0 0 0 0 0 1.590923e-01 2.867830e-01 1.463338e-01 2.313579e-01 1.832625e-01 2.794773e-01 2.212307e-01 3.177125e-01 5.386023e+01 5.893561e+01 5.541062e+01 5.712059e+01 5.708604e+01 5.545099e+01 5.868033e+01 5.427123e+01 2.917367e+00 2.858855e+00 2.859627e+00 2.791187e+00 2.792542e+00 2.744498e+00 2.754964e+00 2.713114e+00 2.709670e+00 2.665657e+00 2.655115e+00 2.617370e+00 2.593663e+00 2.545945e+00 2.504367e+00 2.466481e+00 2.443758e+00 2.438765e+00 2.428557e+00 2.423099e+00 2.395048e+00 2.378599e+00 2.346092e+00 2.333708e+00 2.301268e+00 2.282953e+00 2.243332e+00 2.223397e+00 2.192448e+00 2.180950e+00 2.152780e+00 2.131577e+00 2.096143e+00 2.076629e+00 2.058734e+00 2.269064e+00 2.032302e-01 7.894500e+00 3.382342e+00 1.748947e+00 6.913191e+00 1.989911e+00 3.535507e+00 7.105010e+00 1.989965e+00 4.513968e+00 2.474243e+00 4.114614e+00 5.422999e+00 2.418978e+00 5.937165e+00 1.952375e+00 1.457062e+00 1.442513e+00 1.424305e+00 1.389192e+00 1.357804e+00 1.328903e+00 1.305843e+00 1.283122e+00 1.246197e+00 1.211831e+00 1.166486e+00 1.145418e+00 1.110097e+00 1.095586e+00 1.048529e+00 1.026820e+00 9.799030e-01 9.736483e-01 9.415545e-01 9.388832e-01 8.993774e-01 8.826682e-01 8.441425e-01 8.337802e-01 8.150750e-01 8.032805e-01 7.804324e-01 7.427564e-01 7.177722e-01 6.769262e-01 6.736152e-01 6.313530e-01 6.320470e-01 5.747416e-01 5.807268e-01 5.221541e-01 5.314978e-01 4.582951e-01 4.503434e-01 3.699780e-01 3.665241e-01 3.123805e-01 3.184948e-01 2.810455e-01 2.678913e-01 2.358712e-01 2.034479e-01 1.909729e-01 1.728381e-01 2.765953e-01 2.151222e-02 0 0 0 0 
0 0 0 0 0 0 0 0 0 0 0 0 0 5.894867e+01 6.432303e+01 6.045675e+01 6.202755e+01 6.246335e+01 5.998027e+01 6.440955e+01 5.886411e+01 0 0 0 0 0 0 0 0 0 0 0 0 0 0 0 0 0 0 0 0 0 0 0 0 0 0 0 0 0 0 0 0 0 0 0 8.371606e-03 2.666031e-01 1.053905e+00 5.207521e-01 2.428677e-01 8.516279e-01 1.211196e-01 1.737479e-01 2.804919e-01 5.333048e-01 3.543302e-02 1.011230e-01 6.880797e-01 3.947128e-01 8.713391e-01 7.516035e-01 6.262862e-02 0 0 0 0 0 0 0 0 0 0 0 0 0 0 0 0 0 0 0 0 0 0 0 0 0 0 0 0 0 0 0 0 0 0 0 0 0 0 0 0 0 0 0 0 0 0 0 0 0 0 0 0 0 0 0 
0 0 0 0 0 0 0 0 0 0 0 0 0 5.803205e+01 6.011796e+01 5.834670e+01 5.915772e+01 5.907042e+01 5.840991e+01 5.994375e+01 5.813544e+01 0 0 0 0 0 0 0 0 0 0 0 0 0 0 0 0 0 0 0 0 0 0 0 0 0 0 0 0 0 0 0 0 0 0 0 0 0 0 0 0 0 0 0 0 0 0 0 0 0 0 0 0 0 0 0 0 0 0 0 0 0 0 0 0 0 0 0 0 0 0 0 0 0 0 0 0 0 0 0 0 0 0 0 0 0 0 0 0 0 0 0 0 0 0 0 0 0 0 0 0 0 0 0 0 0 0 0 
0 0 0 0 0 0 0 0 0 0 0 0 0 6.157571e+01 6.431974e+01 6.217378e+01 6.303378e+01 6.327486e+01 6.188949e+01 6.442911e+01 6.135339e+01 0 0 0 0 0 0 0 0 0 0 0 0 0 0 0 0 0 0 0 0 0 0 0 0 0 0 0 0 0 0 0 0 0 0 0 0 0 0 0 0 0 0 0 0 0 0 0 0 0 0 0 0 0 0 0 0 0 0 0 0 0 0 0 0 0 0 0 0 0 0 0 0 0 0 0 0 0 0 0 0 0 0 0 0 0 0 0 0 0 0 0 0 0 0 0 0 0 0 0 0 0 0 0 0 0 0 0 
0 0 0 0 0 0 0 0 0 0 0 0 0 5.804330e+01 6.012956e+01 5.834132e+01 5.914964e+01 5.904439e+01 5.838119e+01 5.989945e+01 5.809483e+01 0 0 0 0 0 0 0 0 0 0 0 0 0 0 0 0 0 0 0 0 0 0 0 0 0 0 0 0 0 0 0 0 0 0 0 0 0 0 0 0 0 0 0 0 0 0 0 0 0 0 0 0 0 0 0 0 0 0 0 0 0 0 0 0 0 0 0 0 0 0 0 0 0 0 0 0 0 0 0 0 0 0 0 0 0 0 0 0 0 0 0 0 0 0 0 0 0 0 0 0 0 0 0 0 0 0 0 
0 0 0 0 0 0 0 0 0 0 0 0 0 5.898495e+01 6.435361e+01 6.044821e+01 6.201180e+01 6.241590e+01 5.992258e+01 6.431867e+01 5.876796e+01 0 0 0 0 0 0 0 0 0 0 0 0 0 0 0 0 0 0 0 0 0 0 0 0 0 0 0 0 0 0 0 0 0 0 0 0 0 0 0 0 0 0 0 0 0 0 0 0 0 0 0 0 0 0 0 0 0 0 0 0 0 0 0 0 0 0 0 0 0 0 0 0 0 0 0 0 0 0 0 0 0 0 0 0 0 0 0 0 0 0 0 0 0 0 0 0 0 0 0 0 0 0 0 0 0 0 0 
0 0 0 0 0 1.585975e-01 2.814880e-01 1.439896e-01 2.364518e-01 1.897926e-01 2.886412e-01 2.240002e-01 3.255199e-01 5.393062e+01 5.898954e+01 5.541822e+01 5.709330e+01 5.700435e+01 5.532158e+01 5.850021e+01 5.409608e+01 2.894307e+00 2.842085e+00 2.853247e+00 2.790536e+00 2.783883e+00 2.721054e+00 2.723620e+00 2.693563e+00 2.715195e+00 2.693426e+00 2.687479e+00 2.641403e+00 2.612870e+00 2.576784e+00 2.557692e+00 2.534285e+00 2.504422e+00 2.472991e+00 2.434131e+00 2.410533e+00 2.377077e+00 2.357426e+00 2.317908e+00 2.295012e+00 2.258507e+00 2.244950e+00 2.214211e+00 2.192624e+00 2.145829e+00 2.110757e+00 2.072590e+00 2.061660e+00 2.051866e+00 2.045659e+00 2.020056e+00 1.985071e+00 1.946205e+00 1.912035e+00 1.885978e+00 1.856686e+00 1.830854e+00 1.800061e+00 1.781540e+00 1.755368e+00 1.737314e+00 1.696317e+00 1.662546e+00 1.613339e+00 1.584934e+00 1.548787e+00 1.528313e+00 1.485524e+00 1.448786e+00 1.395493e+00 1.362519e+00 1.331403e+00 1.318017e+00 1.298803e+00 1.279290e+00 1.258177e+00 1.237386e+00 1.224864e+00 1.198122e+00 1.177171e+00 1.135696e+00 1.120012e+00 1.089705e+00 1.089512e+00 1.054590e+00 1.038559e+00 9.839018e-01 9.621596e-01 9.191674e-01 9.130569e-01 8.822233e-01 8.651484e-01 8.213628e-01 7.845819e-01 7.484395e-01 7.156750e-01 6.952418e-01 6.482394e-01 6.249739e-01 5.688239e-01 5.726384e-01 5.355854e-01 5.615227e-01 5.130513e-01 5.242445e-01 4.557616e-01 4.590005e-01 3.902438e-01 3.912617e-01 3.333130e-01 3.377055e-01 3.056955e-01 3.099832e-01 2.922347e-01 2.652486e-01 2.374358e-01 2.001534e-01 2.845503e-01 2.183698e-02 0 0 0 0 
0 0 0 0 0 3.556152e+00 6.283784e+00 3.179406e+00 5.286450e+00 4.256208e+00 6.475625e+00 5.021444e+00 7.299723e+00 4.852731e+01 6.785054e+01 5.460095e+01 6.395913e+01 6.538315e+01 7.008581e+01 8.176588e+01 8.234502e+01 6.509484e+01 6.391843e+01 6.416948e+01 6.275633e+01 6.260596e+01 6.119046e+01 6.124789e+01 6.057085e+01 6.105790e+01 6.056770e+01 6.043385e+01 5.939643e+01 5.875399e+01 5.794158e+01 5.751174e+01 5.698478e+01 5.631234e+01 5.560474e+01 5.472975e+01 5.419845e+01 5.344518e+01 5.300275e+01 5.211309e+01 5.159766e+01 5.077591e+01 5.047075e+01 4.977887e+01 4.929302e+01 4.823986e+01 4.745054e+01 4.659168e+01 4.634573e+01 4.612536e+01 4.598570e+01 4.540963e+01 4.462233e+01 4.374782e+01 4.297892e+01 4.239265e+01 4.173353e+01 4.115236e+01 4.045950e+01 4.004280e+01 3.945395e+01 3.904777e+01 3.812547e+01 3.736577e+01 3.625889e+01 3.561997e+01 3.480696e+01 3.434650e+01 3.338422e+01 3.255801e+01 3.135962e+01 3.061811e+01 2.991849e+01 2.961753e+01 2.918554e+01 2.874675e+01 2.827205e+01 2.780450e+01 2.752293e+01 2.692155e+01 2.645046e+01 2.551787e+01 2.516520e+01 2.448382e+01 2.447947e+01 2.369443e+01 2.333412e+01 2.210565e+01 2.161704e+01 2.065096e+01 2.051383e+01 1.982108e+01 1.943746e+01 1.845367e+01 1.762700e+01 1.681487e+01 1.607839e+01 1.561909e+01 1.456252e+01 1.403952e+01 1.277749e+01 1.286297e+01 1.203035e+01 1.261322e+01 1.152452e+01 1.177660e+01 1.023902e+01 1.031285e+01 8.769790e+00 8.794010e+00 7.494058e+00 7.594097e+00 6.876625e+00 6.974367e+00 6.577577e+00 5.975043e+00 5.354363e+00 4.512018e+00 6.394251e+00 4.905163e-01 0 0 0 0 
0 0 0 0 0 5.146761e+00 9.087334e+00 4.588992e+00 7.647077e+00 6.160088e+00 9.372972e+00 7.267148e+00 1.056496e+01 1.438733e+01 2.096227e+01 2.752215e+01 3.879318e+01 5.165893e+01 6.369061e+01 7.422900e+01 9.330067e+01 9.426085e+01 9.255687e+01 9.292041e+01 9.087339e+01 9.065546e+01 8.860512e+01 8.868821e+01 8.770755e+01 8.841296e+01 8.770298e+01 8.750912e+01 8.600660e+01 8.507613e+01 8.389951e+01 8.327696e+01 8.251376e+01 8.153984e+01 8.051502e+01 7.924773e+01 7.847823e+01 7.738725e+01 7.674648e+01 7.545797e+01 7.471148e+01 7.352136e+01 7.307940e+01 7.207739e+01 7.137376e+01 6.984855e+01 6.870544e+01 6.746165e+01 6.710546e+01 6.678633e+01 6.658409e+01 6.574983e+01 6.460967e+01 6.334323e+01 6.222972e+01 6.138071e+01 6.042619e+01 5.958456e+01 5.858119e+01 5.797776e+01 5.712501e+01 5.653681e+01 5.520120e+01 5.410107e+01 5.249821e+01 5.157300e+01 5.039571e+01 4.972894e+01 4.833552e+01 4.713913e+01 4.540385e+01 4.433013e+01 4.331709e+01 4.288131e+01 4.225580e+01 4.162042e+01 4.093308e+01 4.025605e+01 3.984834e+01 3.897753e+01 3.829538e+01 3.694501e+01 3.643434e+01 3.544771e+01 3.544142e+01 3.430474e+01 3.378305e+01 3.200436e+01 3.129693e+01 2.989821e+01 2.969970e+01 2.869675e+01 2.814136e+01 2.671701e+01 2.552010e+01 2.434427e+01 2.327791e+01 2.261289e+01 2.108305e+01 2.032580e+01 1.849852e+01 1.862220e+01 1.741672e+01 1.826062e+01 1.668449e+01 1.704960e+01 1.482377e+01 1.493094e+01 1.269734e+01 1.273275e+01 1.085120e+01 1.099638e+01 9.958062e+00 1.009993e+01 9.525962e+00 8.654577e+00 7.757030e+00 6.536292e+00 9.257834e+00 7.101390e-01 0 0 0 0 
0 0 0 0 0 1.749206e+00 3.085037e+00 1.553576e+00 2.597079e+00 2.093673e+00 3.185989e+00 2.469705e+00 3.590759e+00 4.891837e+00 7.128309e+00 9.359052e+00 1.319180e+01 1.756783e+01 2.166002e+01 2.524510e+01 3.173368e+01 3.206032e+01 3.148052e+01 3.160417e+01 3.090760e+01 3.083338e+01 3.013571e+01 3.016394e+01 2.983027e+01 3.007026e+01 2.982870e+01 2.976276e+01 2.925158e+01 2.893501e+01 2.853472e+01 2.832292e+01 2.806327e+01 2.773192e+01 2.738327e+01 2.695211e+01 2.669032e+01 2.631915e+01 2.610115e+01 2.566279e+01 2.540883e+01 2.500395e+01 2.485360e+01 2.451273e+01 2.427336e+01 2.375452e+01 2.336565e+01 2.294255e+01 2.282139e+01 2.271284e+01 2.264404e+01 2.236026e+01 2.197241e+01 2.154162e+01 2.116283e+01 2.087404e+01 2.054935e+01 2.026306e+01 1.992176e+01 1.971649e+01 1.942643e+01 1.922635e+01 1.877205e+01 1.839785e+01 1.785266e+01 1.753796e+01 1.713753e+01 1.691075e+01 1.643682e+01 1.602991e+01 1.543972e+01 1.507454e+01 1.473001e+01 1.458180e+01 1.436906e+01 1.415297e+01 1.391920e+01 1.368894e+01 1.355027e+01 1.325410e+01 1.302210e+01 1.256283e+01 1.238915e+01 1.205360e+01 1.205146e+01 1.166489e+01 1.148749e+01 1.088261e+01 1.064204e+01 1.016641e+01 1.009893e+01 9.757894e+00 9.569041e+00 9.084706e+00 8.677676e+00 8.277840e+00 7.915197e+00 7.689040e+00 7.168775e+00 6.911245e+00 6.289845e+00 6.331875e+00 5.921951e+00 6.208924e+00 5.673021e+00 5.797246e+00 5.040517e+00 5.077088e+00 4.317797e+00 4.330003e+00 3.690456e+00 3.739988e+00 3.387133e+00 3.435547e+00 3.240620e+00 2.944782e+00 2.640102e+00 2.224427e+00 3.148133e+00 2.414597e-01 0 0 0 0 
0 0 0 0 0 0 0 0 0 0 0 0 0 0 0 0 0 0 0 0 0 0 0 0 0 0 0 0 0 0 0 0 0 0 0 0 0 0 0 0 0 0 0 0 0 0 0 0 0 0 0 0 0 0 0 0 0 0 0 0 0 0 0 0 0 0 0 0 0 0 0 0 0 0 0 0 0 0 0 0 0 0 0 0 0 0 0 0 0 0 0 0 0 0 0 0 0 0 0 0 0 0 0 0 0 0 0 0 0 0 0 0 0 0 0 0 0 0 0 0 0 0 0 0 0 0 0 0 
