# vtk DataFile Version 2.0
Comment goes here
ASCII

DATASET STRUCTURED_POINTS
FIELD FieldData 1
TIME 1 1 double
0.49000000
DIMENSIONS    128   16   1

ORIGIN    0.000   0.000   0.000
SPACING   0.0078125 0.015625   1.000

POINT_DATA   2048
SCALARS fX double
LOOKUP_TABLE default

0 0 0 0 0 0 0 0 0 0 0 0 0 0 0 0 0 0 0 0 0 0 0 0 0 0 0 0 0 0 0 0 0 0 0 0 0 0 0 0 0 0 0 0 0 0 0 0 0 0 0 0 0 0 0 0 0 0 0 0 0 0 0 0 0 0 0 0 0 0 0 0 0 0 0 0 0 0 0 0 0 0 0 0 0 0 0 0 0 0 0 0 0 0 0 0 0 0 0 0 0 0 0 0 0 0 0 0 0 0 0 0 0 0 0 0 0 0 0 0 0 0 0 0 0 0 0 0 
0 0 0 0 0 0 0 0 0 0 0 0 0 0 0 0 0 0 0 0 0 0 0 0 0 0 0 0 0 0 0 0 0 0 0 0 0 0 0 0 0 0 0 0 0 0 0 0 0 0 0 0 0 0 0 0 0 0 0 0 0 0 0 0 0 0 0 0 0 0 0 0 0 0 0 0 0 0 0 0 0 0 0 0 0 0 0 0 0 0 0 0 0 0 0 0 0 0 0 0 0 0 0 0 0 0 0 0 0 0 0 0 0 0 0 0 0 0 0 0 0 0 0 0 0 0 0 0 
0 0 0 0 0 9.637519e-01 -1.959198e+00 -1.622435e+00 -3.998178e-01 -9.518859e-01 -5.374526e-01 -8.688621e-01 1.030638e+00 3.642281e+00 4.745563e+00 3.960933e+00 5.027921e+00 4.325215e+00 4.591238e+00 4.968921e+00 3.519336e+00 7.505680e-01 -6.187903e-01 -5.790380e-01 -6.617279e-01 -6.309713e-01 -7.230954e-01 -6.956852e-01 -8.018394e-01 -7.707167e-01 -8.812335e-01 -8.422405e-01 -9.505998e-01 -9.018941e-01 -9.964128e-01 -9.309751e-01 -9.998512e-01 -9.186750e-01 -9.620869e-01 -8.762605e-01 -8.998354e-01 -8.209606e-01 -8.305709e-01 -7.710744e-01 -7.764475e-01 -7.508690e-01 -7.619516e-01 -7.781912e-01 -7.949486e-01 -8.483611e-01 -8.615556e-01 -9.419289e-01 -9.394233e-01 -1.035385e+00 -1.005504e+00 -1.252909e+00 -1.163621e+00 -1.149262e+00 -7.915987e-01 -1.247181e+00 -2.425605e+00 -1.164321e+00 -5.006787e-01 -1.189847e+00 -2.338049e-01 -1.728513e+00 -2.856538e+00 -1.492970e-02 -9.201686e-01 -1.419489e+00 -1.226932e+00 -3.951478e+00 -2.817471e+00 -7.588630e-01 -6.062692e-01 -6.252776e-01 -6.601351e-01 -6.840084e-01 -7.163305e-01 -7.333532e-01 -7.523455e-01 -7.510338e-01 -7.456114e-01 -7.223103e-01 -6.925673e-01 -6.502262e-01 -5.998930e-01 -5.394260e-01 -4.771718e-01 -4.074744e-01 -3.535534e-01 -2.894696e-01 -2.628133e-01 -2.126733e-01 -2.229998e-01 -1.888275e-01 -2.401287e-01 -2.204590e-01 -3.090015e-01 -2.968040e-01 -4.105402e-01 -3.959113e-01 -5.172770e-01 -4.894319e-01 -5.987786e-01 -5.522653e-01 -6.343156e-01 -5.713468e-01 -6.149624e-01 -5.487486e-01 -5.541270e-01 -5.087066e-01 -4.770457e-01 -4.738081e-01 -4.045845e-01 -4.643791e-01 -3.574551e-01 -4.972091e-01 -3.449796e-01 -5.784810e-01 -3.580796e-01 -1.420680e+00 -1.177603e+00 1.512104e-01 0 0 0 0 
0 0 0 0 0 2.835110e+00 -5.758767e+00 -4.767284e+00 -1.175367e+00 -2.801547e+00 -1.582965e+00 -2.557584e+00 3.029923e+00 1.071109e+01 1.395628e+01 1.164875e+01 1.478663e+01 1.271996e+01 1.350160e+01 1.461176e+01 1.034836e+01 2.206876e+00 -1.819471e+00 -1.702534e+00 -1.945620e+00 -1.855148e+00 -2.126007e+00 -2.045415e+00 -2.357559e+00 -2.266086e+00 -2.591081e+00 -2.476464e+00 -2.795119e+00 -2.651929e+00 -2.929877e+00 -2.737486e+00 -2.940029e+00 -2.701353e+00 -2.829014e+00 -2.576652e+00 -2.645979e+00 -2.414048e+00 -2.442310e+00 -2.267355e+00 -2.283155e+00 -2.207940e+00 -2.240534e+00 -2.288293e+00 -2.337583e+00 -2.494656e+00 -2.533474e+00 -2.769831e+00 -2.762483e+00 -3.044687e+00 -2.956834e+00 -3.684381e+00 -3.448846e+00 -3.451605e+00 -1.392927e+00 -1.866351e+00 -5.562928e+00 -8.159140e-01 6.745113e-01 -2.572969e+00 2.238930e+00 -1.980655e+00 -5.924199e+00 3.314857e+00 -1.076047e+00 -3.073693e+00 -1.027919e+00 -1.013830e+01 -8.215876e+00 -2.231679e+00 -1.782939e+00 -1.838841e+00 -1.941347e+00 -2.011554e+00 -2.106607e+00 -2.156667e+00 -2.212523e+00 -2.208670e+00 -2.192728e+00 -2.124207e+00 -2.036737e+00 -1.912214e+00 -1.764187e+00 -1.586362e+00 -1.403277e+00 -1.198311e+00 -1.039736e+00 -8.512790e-01 -7.728904e-01 -6.254428e-01 -6.558209e-01 -5.553317e-01 -7.062116e-01 -6.483640e-01 -9.087580e-01 -8.728704e-01 -1.207341e+00 -1.164283e+00 -1.521173e+00 -1.439228e+00 -1.760761e+00 -1.623906e+00 -1.865181e+00 -1.679945e+00 -1.808216e+00 -1.613475e+00 -1.629340e+00 -1.495800e+00 -1.402787e+00 -1.393352e+00 -1.189873e+00 -1.365809e+00 -1.051337e+00 -1.462099e+00 -1.013263e+00 -1.696025e+00 -1.033433e+00 -4.155026e+00 -3.455431e+00 4.448658e-01 0 0 0 0 
0 0 0 0 0 1.958639e+00 -3.976178e+00 -3.290816e+00 -8.116185e-01 -1.936103e+00 -1.094522e+00 -1.767692e+00 2.092281e+00 3.841928e+01 4.794775e+01 4.331809e+01 5.045939e+01 4.675331e+01 4.647699e+01 5.224198e+01 3.422214e+01 1.524089e+00 -1.256571e+00 -1.175787e+00 -1.343642e+00 -1.281143e+00 -1.468196e+00 -1.412538e+00 -1.628119e+00 -1.564964e+00 -1.789430e+00 -1.710291e+00 -1.930380e+00 -1.831501e+00 -2.023472e+00 -1.890612e+00 -2.030503e+00 -1.865674e+00 -1.953847e+00 -1.779559e+00 -1.827442e+00 -1.667260e+00 -1.686780e+00 -1.565946e+00 -1.576858e+00 -1.524910e+00 -1.547423e+00 -1.580411e+00 -1.614461e+00 -1.722949e+00 -1.749768e+00 -1.913016e+00 -1.907952e+00 -2.102867e+00 -2.042199e+00 -2.544703e+00 -2.383616e+00 -2.405528e+00 -3.913028e-01 -2.237562e-01 -2.921825e+00 9.949433e-01 1.741078e+00 -1.257159e+00 3.282958e+00 4.148612e-01 -2.662311e+00 4.294288e+00 1.649614e-01 -1.504841e+00 7.739617e-01 -6.171518e+00 -5.638716e+00 -1.541419e+00 -1.231480e+00 -1.270092e+00 -1.340891e+00 -1.389383e+00 -1.455035e+00 -1.489611e+00 -1.528192e+00 -1.525534e+00 -1.514524e+00 -1.467198e+00 -1.406782e+00 -1.320772e+00 -1.218527e+00 -1.095702e+00 -9.692427e-01 -8.276739e-01 -7.181439e-01 -5.879781e-01 -5.338366e-01 -4.319971e-01 -4.529838e-01 -3.835788e-01 -4.877972e-01 -4.478407e-01 -6.276977e-01 -6.029020e-01 -8.339176e-01 -8.041591e-01 -1.050651e+00 -9.940240e-01 -1.216089e+00 -1.121530e+00 -1.288169e+00 -1.160199e+00 -1.248798e+00 -1.114282e+00 -1.125264e+00 -1.033044e+00 -9.688458e-01 -9.623707e-01 -8.218749e-01 -9.434379e-01 -7.262183e-01 -1.009820e+00 -6.992489e-01 -1.168930e+00 -7.042853e-01 -2.858755e+00 -2.382937e+00 3.073572e-01 0 0 0 0 
0 0 0 0 0 8.728053e-02 -1.766090e-01 -1.459678e-01 -3.606952e-02 -8.644162e-02 -4.900983e-02 -7.897031e-02 9.299627e-02 4.392203e+01 4.797180e+01 4.511243e+01 4.714404e+01 4.660410e+01 4.561255e+01 4.824321e+01 4.370796e+01 6.778065e-02 -5.589047e-02 -5.229115e-02 -5.975054e-02 -5.696617e-02 -6.528369e-02 -6.280852e-02 -7.239878e-02 -6.959457e-02 -7.958268e-02 -7.606731e-02 -8.586131e-02 -8.146602e-02 -9.000810e-02 -8.410119e-02 -9.032599e-02 -8.299606e-02 -8.691974e-02 -7.916744e-02 -8.129830e-02 -7.417232e-02 -7.504101e-02 -6.966488e-02 -7.015039e-02 -6.783918e-02 -6.884143e-02 -7.030976e-02 -7.182641e-02 -7.665423e-02 -7.784975e-02 -8.511449e-02 -8.489170e-02 -9.356603e-02 -9.086894e-02 -1.132301e-01 -9.300493e-02 -9.046450e-02 2.163325e-01 3.972367e-01 2.127606e-01 6.340576e-01 5.597763e-01 1.173216e-01 8.065983e-01 6.680646e-01 4.005138e-01 9.604471e-01 3.174775e-01 1.492082e-01 5.772197e-01 1.856522e-02 -2.400722e-01 -6.860228e-02 -5.480954e-02 -5.652818e-02 -5.967874e-02 -6.183687e-02 -6.475869e-02 -6.629740e-02 -6.801492e-02 -6.789719e-02 -6.740773e-02 -6.530183e-02 -6.261273e-02 -5.878411e-02 -5.423297e-02 -4.876620e-02 -4.313721e-02 -3.683676e-02 -3.196154e-02 -2.616866e-02 -2.375939e-02 -1.922755e-02 -2.016276e-02 -1.707452e-02 -2.171435e-02 -1.993574e-02 -2.794123e-02 -2.683560e-02 -3.711635e-02 -3.578731e-02 -4.675466e-02 -4.422737e-02 -5.410616e-02 -4.988933e-02 -5.730333e-02 -5.160090e-02 -5.554477e-02 -4.955572e-02 -5.005048e-02 -4.595022e-02 -4.310479e-02 -4.282719e-02 -3.658608e-02 -4.200756e-02 -3.233652e-02 -4.493027e-02 -3.096568e-02 -5.138631e-02 -2.893158e-02 -1.244100e-01 -1.051094e-01 1.370178e-02 0 0 0 0 
0 0 0 0 0 0 0 0 0 0 0 0 0 4.796442e+01 5.194856e+01 4.916065e+01 5.102638e+01 5.073926e+01 4.936270e+01 5.238707e+01 4.737911e+01 0 0 0 0 0 0 0 0 0 0 0 0 0 0 0 0 0 0 0 0 0 0 0 0 0 0 0 0 0 0 0 0 0 0 0 5.386670e-03 1.271988e-02 6.306909e-03 1.823565e-03 -2.737524e-03 -1.247888e-02 -6.112047e-03 -8.641296e-03 -3.624806e-03 1.061095e-03 -4.835232e-03 -4.054856e-03 -3.362116e-03 -1.553343e-04 2.270310e-03 3.257121e-03 2.391345e-04 0 0 0 0 0 0 0 0 0 0 0 0 0 0 0 0 0 0 0 0 0 0 0 0 0 0 0 0 0 0 0 0 0 0 0 0 0 0 0 0 0 0 0 0 0 0 0 0 0 0 0 0 0 0 0 
0 0 0 0 0 0 0 0 0 0 0 0 0 4.788893e+01 4.972742e+01 4.811658e+01 4.897549e+01 4.872308e+01 4.831006e+01 4.949033e+01 4.795154e+01 0 0 0 0 0 0 0 0 0 0 0 0 0 0 0 0 0 0 0 0 0 0 0 0 0 0 0 0 0 0 0 0 0 0 0 0 0 0 0 0 0 0 0 0 0 0 0 0 0 0 0 0 0 0 0 0 0 0 0 0 0 0 0 0 0 0 0 0 0 0 0 0 0 0 0 0 0 0 0 0 0 0 0 0 0 0 0 0 0 0 0 0 0 0 0 0 0 0 0 0 0 0 0 0 0 0 0 
0 0 0 0 0 0 0 0 0 0 0 0 0 5.035213e+01 5.255784e+01 5.077872e+01 5.166454e+01 5.164278e+01 5.071699e+01 5.259349e+01 5.008041e+01 0 0 0 0 0 0 0 0 0 0 0 0 0 0 0 0 0 0 0 0 0 0 0 0 0 0 0 0 0 0 0 0 0 0 0 0 0 0 0 0 0 0 0 0 0 0 0 0 0 0 0 0 0 0 0 0 0 0 0 0 0 0 0 0 0 0 0 0 0 0 0 0 0 0 0 0 0 0 0 0 0 0 0 0 0 0 0 0 0 0 0 0 0 0 0 0 0 0 0 0 0 0 0 0 0 0 0 
0 0 0 0 0 0 0 0 0 0 0 0 0 4.790533e+01 4.974316e+01 4.811956e+01 4.897490e+01 4.871237e+01 4.829222e+01 4.947178e+01 4.792496e+01 0 0 0 0 0 0 0 0 0 0 0 0 0 0 0 0 0 0 0 0 0 0 0 0 0 0 0 0 0 0 0 0 0 0 0 0 0 0 0 0 0 0 0 0 0 0 0 0 0 0 0 0 0 0 0 0 0 0 0 0 0 0 0 0 0 0 0 0 0 0 0 0 0 0 0 0 0 0 0 0 0 0 0 0 0 0 0 0 0 0 0 0 0 0 0 0 0 0 0 0 0 0 0 0 0 0 0 
0 0 0 0 0 0 0 0 0 0 0 0 0 4.798991e+01 5.198951e+01 4.916234e+01 5.103521e+01 5.071530e+01 4.934246e+01 5.233251e+01 4.734337e+01 0 0 0 0 0 0 0 0 0 0 0 0 0 0 0 0 0 0 0 0 0 0 0 0 0 0 0 0 0 0 0 0 0 0 0 0 0 0 0 0 0 0 0 0 0 0 0 0 0 0 0 0 0 0 0 0 0 0 0 0 0 0 0 0 0 0 0 0 0 0 0 0 0 0 0 0 0 0 0 0 0 0 0 0 0 0 0 0 0 0 0 0 0 0 0 0 0 0 0 0 0 0 0 0 0 0 0 
0 0 0 0 0 8.805349e-02 -1.715175e-01 -1.348027e-01 -2.180138e-02 -7.173094e-02 -3.466052e-02 -6.624079e-02 1.035296e-01 4.399175e+01 4.804409e+01 4.512241e+01 4.714696e+01 4.655078e+01 4.552836e+01 4.811642e+01 4.355265e+01 5.620979e-02 -7.033857e-02 -6.832852e-02 -7.622718e-02 -7.241886e-02 -7.844455e-02 -7.198221e-02 -7.703937e-02 -6.880538e-02 -7.387655e-02 -6.525591e-02 -7.115248e-02 -6.348896e-02 -7.071218e-02 -6.494410e-02 -7.351408e-02 -7.013652e-02 -7.958136e-02 -7.827977e-02 -8.734957e-02 -8.719432e-02 -9.457922e-02 -9.472840e-02 -9.941705e-02 -9.910989e-02 -1.003842e-01 -9.919283e-02 -9.704800e-02 -9.518831e-02 -9.035936e-02 -8.843330e-02 -8.196107e-02 -8.057694e-02 -7.370568e-02 -7.361199e-02 -6.793852e-02 -6.959143e-02 -6.600743e-02 -6.886277e-02 -6.834936e-02 -7.198486e-02 -7.175308e-02 -7.716698e-02 -7.734106e-02 -8.160774e-02 -8.374161e-02 -8.426356e-02 -8.582043e-02 -8.634310e-02 -8.424064e-02 -8.397996e-02 -7.984433e-02 -7.519560e-02 -7.006914e-02 -6.413830e-02 -5.882975e-02 -5.259538e-02 -4.779922e-02 -4.226046e-02 -3.840886e-02 -3.417059e-02 -3.168316e-02 -2.947675e-02 -2.907113e-02 -2.938421e-02 -3.123414e-02 -3.347217e-02 -3.683494e-02 -3.968217e-02 -4.367862e-02 -4.585678e-02 -4.967274e-02 -4.984110e-02 -5.265893e-02 -4.983502e-02 -5.144300e-02 -4.549148e-02 -4.626361e-02 -3.775734e-02 -3.849629e-02 -2.870783e-02 -3.057420e-02 -2.132432e-02 -2.527746e-02 -1.806606e-02 -2.397544e-02 -1.957370e-02 -2.645217e-02 -2.544810e-02 -3.193147e-02 -3.470207e-02 -3.894242e-02 -4.551443e-02 -4.552089e-02 -5.594774e-02 -5.011882e-02 -6.472793e-02 -5.145590e-02 -7.066869e-02 -4.612185e-02 -1.360669e-01 -1.095505e-01 1.335018e-02 0 0 0 0 
0 0 0 0 0 1.975985e+00 -3.861852e+00 -3.040143e+00 -4.912618e-01 -1.605769e+00 -7.723523e-01 -1.481883e+00 2.328769e+00 3.833118e+01 4.784643e+01 4.332906e+01 5.048736e+01 4.677475e+01 4.646392e+01 5.226594e+01 3.434985e+01 1.263907e+00 -1.581416e+00 -1.536393e+00 -1.714115e+00 -1.628571e+00 -1.764103e+00 -1.618779e+00 -1.732442e+00 -1.547264e+00 -1.661197e+00 -1.467291e+00 -1.599772e+00 -1.427386e+00 -1.589700e+00 -1.459970e+00 -1.652589e+00 -1.576619e+00 -1.788911e+00 -1.759621e+00 -1.963477e+00 -1.959970e+00 -2.125948e+00 -2.129291e+00 -2.234659e+00 -2.227748e+00 -2.256370e+00 -2.229580e+00 -2.181333e+00 -2.139509e+00 -2.030917e+00 -1.987600e+00 -1.842091e+00 -1.810961e+00 -1.656492e+00 -1.654361e+00 -1.526824e+00 -1.563955e+00 -1.483404e+00 -1.547570e+00 -1.536026e+00 -1.617708e+00 -1.612481e+00 -1.734114e+00 -1.738007e+00 -1.833852e+00 -1.881780e+00 -1.893463e+00 -1.928419e+00 -1.940128e+00 -1.892865e+00 -1.886988e+00 -1.794043e+00 -1.689563e+00 -1.574358e+00 -1.441088e+00 -1.321810e+00 -1.181745e+00 -1.073986e+00 -9.495379e-01 -8.630006e-01 -7.677719e-01 -7.118903e-01 -6.623258e-01 -6.532181e-01 -6.602579e-01 -7.018184e-01 -7.520963e-01 -8.276343e-01 -8.915840e-01 -9.813466e-01 -1.030251e+00 -1.115953e+00 -1.119699e+00 -1.182981e+00 -1.119504e+00 -1.155615e+00 -1.021906e+00 -1.039273e+00 -8.482486e-01 -8.649376e-01 -6.451779e-01 -6.872390e-01 -4.796259e-01 -5.685613e-01 -4.067518e-01 -5.395961e-01 -4.408441e-01 -5.953561e-01 -5.728032e-01 -7.183108e-01 -7.803803e-01 -8.753723e-01 -1.022722e+00 -1.022536e+00 -1.256528e+00 -1.125589e+00 -1.454459e+00 -1.159457e+00 -1.602101e+00 -1.090429e+00 -3.120630e+00 -2.482764e+00 2.994722e-01 0 0 0 0 
0 0 0 0 0 2.860218e+00 -5.593263e+00 -4.404405e+00 -7.116106e-01 -2.323337e+00 -1.116586e+00 -2.143840e+00 3.372264e+00 1.097409e+01 1.414810e+01 1.176851e+01 1.485718e+01 1.270091e+01 1.345087e+01 1.445997e+01 1.007453e+01 1.830134e+00 -2.289838e+00 -2.224690e+00 -2.482059e+00 -2.358214e+00 -2.554475e+00 -2.344043e+00 -2.508614e+00 -2.240467e+00 -2.405419e+00 -2.124626e+00 -2.316431e+00 -2.066799e+00 -2.301804e+00 -2.113947e+00 -2.392838e+00 -2.282827e+00 -2.590205e+00 -2.547787e+00 -2.842949e+00 -2.837868e+00 -3.078183e+00 -3.083021e+00 -3.235578e+00 -3.225570e+00 -3.267008e+00 -3.228215e+00 -3.158348e+00 -3.097786e+00 -2.940542e+00 -2.877817e+00 -2.667127e+00 -2.622048e+00 -2.398386e+00 -2.395295e+00 -2.210630e+00 -2.264386e+00 -2.147759e+00 -2.240661e+00 -2.223945e+00 -2.342205e+00 -2.334632e+00 -2.510731e+00 -2.516362e+00 -2.655122e+00 -2.724508e+00 -2.741411e+00 -2.792015e+00 -2.808958e+00 -2.740525e+00 -2.732010e+00 -2.597438e+00 -2.446164e+00 -2.279365e+00 -2.086413e+00 -1.913721e+00 -1.710937e+00 -1.554924e+00 -1.374747e+00 -1.249459e+00 -1.111586e+00 -1.030682e+00 -9.589249e-01 -9.457403e-01 -9.559339e-01 -1.016104e+00 -1.088895e+00 -1.198255e+00 -1.290835e+00 -1.420786e+00 -1.491580e+00 -1.615652e+00 -1.621064e+00 -1.712678e+00 -1.620768e+00 -1.673046e+00 -1.479465e+00 -1.504612e+00 -1.228072e+00 -1.252256e+00 -9.341307e-01 -9.950591e-01 -6.945314e-01 -8.233215e-01 -5.891087e-01 -7.814588e-01 -6.385230e-01 -8.622167e-01 -8.295664e-01 -1.040191e+00 -1.130010e+00 -1.267468e+00 -1.480722e+00 -1.480369e+00 -1.819071e+00 -1.629505e+00 -2.105803e+00 -1.679508e+00 -2.323152e+00 -1.592469e+00 -4.534159e+00 -3.599972e+00 4.334537e-01 0 0 0 0 
0 0 0 0 0 9.722871e-01 -1.902928e+00 -1.499065e+00 -2.421502e-01 -7.892990e-01 -3.788946e-01 -7.281978e-01 1.147025e+00 3.731692e+00 4.810774e+00 4.001648e+00 5.051901e+00 4.318727e+00 4.573979e+00 4.917289e+00 3.426200e+00 6.224359e-01 -7.787605e-01 -7.566248e-01 -8.441715e-01 -8.020622e-01 -8.688163e-01 -7.972458e-01 -8.532108e-01 -7.620091e-01 -8.180982e-01 -7.225911e-01 -7.878115e-01 -7.029025e-01 -7.828158e-01 -7.189211e-01 -8.137630e-01 -7.763449e-01 -8.808754e-01 -8.664463e-01 -9.668217e-01 -9.650915e-01 -1.046814e+00 -1.048459e+00 -1.100337e+00 -1.096932e+00 -1.111021e+00 -1.097828e+00 -1.074063e+00 -1.053465e+00 -9.999846e-01 -9.786503e-01 -9.069966e-01 -8.916640e-01 -8.156000e-01 -8.145458e-01 -7.517447e-01 -7.700229e-01 -7.303621e-01 -7.619537e-01 -7.562688e-01 -7.964814e-01 -7.939041e-01 -8.537835e-01 -8.556962e-01 -9.028773e-01 -9.264692e-01 -9.322115e-01 -9.494159e-01 -9.551728e-01 -9.319001e-01 -9.290021e-01 -8.832394e-01 -8.317967e-01 -7.750757e-01 -7.094629e-01 -6.507402e-01 -5.817872e-01 -5.287370e-01 -4.674697e-01 -4.248669e-01 -3.779846e-01 -3.504750e-01 -3.260759e-01 -3.215934e-01 -3.250602e-01 -3.455200e-01 -3.702708e-01 -4.074551e-01 -4.389334e-01 -4.831179e-01 -5.071863e-01 -5.493712e-01 -5.512071e-01 -5.823555e-01 -5.510990e-01 -5.688735e-01 -5.030497e-01 -5.116032e-01 -4.175806e-01 -4.258148e-01 -3.176607e-01 -3.383943e-01 -2.362298e-01 -2.800376e-01 -2.004230e-01 -2.658382e-01 -2.172526e-01 -2.933128e-01 -2.822113e-01 -3.538119e-01 -3.843313e-01 -4.310379e-01 -5.035140e-01 -5.033533e-01 -6.184907e-01 -5.540342e-01 -7.160713e-01 -5.715078e-01 -7.917199e-01 -5.481623e-01 -1.549596e+00 -1.226758e+00 1.473317e-01 0 0 0 0 
0 0 0 0 0 0 0 0 0 0 0 0 0 0 0 0 0 0 0 0 0 0 0 0 0 0 0 0 0 0 0 0 0 0 0 0 0 0 0 0 0 0 0 0 0 0 0 0 0 0 0 0 0 0 0 0 0 0 0 0 0 0 0 0 0 0 0 0 0 0 0 0 0 0 0 0 0 0 0 0 0 0 0 0 0 0 0 0 0 0 0 0 0 0 0 0 0 0 0 0 0 0 0 0 0 0 0 0 0 0 0 0 0 0 0 0 0 0 0 0 0 0 0 0 0 0 0 0 
