# vtk DataFile Version 2.0
Comment goes here
ASCII

DATASET STRUCTURED_POINTS
FIELD FieldData 1
TIME 1 1 double
0.73000000
DIMENSIONS    128   16   1

ORIGIN    0.000   0.000   0.000
SPACING   0.0078125 0.015625   1.000

POINT_DATA   2048
SCALARS fX double
LOOKUP_TABLE default

0 0 0 0 0 0 0 0 0 0 0 0 0 0 0 0 0 0 0 0 0 0 0 0 0 0 0 0 0 0 0 0 0 0 0 0 0 0 0 0 0 0 0 0 0 0 0 0 0 0 0 0 0 0 0 0 0 0 0 0 0 0 0 0 0 0 0 0 0 0 0 0 0 0 0 0 0 0 0 0 0 0 0 0 0 0 0 0 0 0 0 0 0 0 0 0 0 0 0 0 0 0 0 0 0 0 0 0 0 0 0 0 0 0 0 0 0 0 0 0 0 0 0 0 0 0 0 0 
0 0 0 0 0 0 0 0 0 0 0 0 0 0 0 0 0 0 0 0 0 0 0 0 0 0 0 0 0 0 0 0 0 0 0 0 0 0 0 0 0 0 0 0 0 0 0 0 0 0 0 0 0 0 0 0 0 0 0 0 0 0 0 0 0 0 0 0 0 0 0 0 0 0 0 0 0 0 0 0 0 0 0 0 0 0 0 0 0 0 0 0 0 0 0 0 0 0 0 0 0 0 0 0 0 0 0 0 0 0 0 0 0 0 0 0 0 0 0 0 0 0 0 0 0 0 0 0 
0 0 0 0 0 -1.702289e+00 3.972412e-01 1.215170e+00 -1.237992e-01 3.732210e-01 -3.094532e-02 2.776477e-01 -6.507219e-01 -9.399025e-01 -1.105453e+00 -1.107771e+00 -1.786724e+00 -1.150849e+00 -1.713276e+00 -1.363581e+00 -5.782209e-01 -6.854004e-01 1.172927e-01 -9.974499e-03 9.771546e-02 -2.976954e-03 1.046585e-01 1.299525e-02 1.161131e-01 3.120656e-02 1.249285e-01 4.551224e-02 1.250374e-01 5.043915e-02 1.127786e-01 4.401461e-02 8.803115e-02 2.785954e-02 5.376745e-02 6.126705e-03 1.511433e-02 -1.497065e-02 -2.059553e-02 -2.857392e-02 -4.529699e-02 -2.885841e-02 -5.285168e-02 -1.255940e-02 -4.041463e-02 1.960381e-02 -8.991401e-03 6.301664e-02 3.690723e-02 1.127931e-01 8.852309e-02 3.256111e-01 1.838422e+00 3.698154e+00 8.477050e-01 -8.336278e-02 4.262236e+00 1.438801e+00 4.164371e-02 4.776588e+00 7.095789e-01 1.168492e+00 4.523305e+00 -1.932062e+00 3.244930e+00 5.929782e+00 -3.186475e+00 -1.080784e+00 2.350248e+00 6.974375e-01 1.644691e-01 1.709085e-01 1.959239e-01 2.008273e-01 2.360117e-01 2.321756e-01 2.667450e-01 2.556063e-01 2.803811e-01 2.634689e-01 2.748653e-01 2.534254e-01 2.532725e-01 2.292411e-01 2.226037e-01 1.993191e-01 1.923735e-01 1.732095e-01 1.718192e-01 1.584345e-01 1.676032e-01 1.588480e-01 1.818256e-01 1.737443e-01 2.116704e-01 1.980228e-01 2.502052e-01 2.240981e-01 2.884578e-01 2.442632e-01 3.174653e-01 2.527670e-01 3.307923e-01 2.470754e-01 3.248653e-01 2.278454e-01 2.990523e-01 1.990982e-01 2.568022e-01 1.684867e-01 2.053155e-01 1.453771e-01 1.539665e-01 1.376592e-01 1.145036e-01 1.482771e-01 1.840616e-01 5.476520e-01 -2.902631e-01 -1.731881e-01 0 0 0 0 
0 0 0 0 0 -5.007427e+00 1.160474e+00 3.560687e+00 -3.721267e-01 1.094994e+00 -9.225126e-02 8.160740e-01 -1.914071e+00 -2.764478e+00 -3.251381e+00 -3.258207e+00 -5.255339e+00 -3.384980e+00 -5.039304e+00 -4.010493e+00 -1.700331e+00 -2.015558e+00 3.454738e-01 -2.895625e-02 2.877434e-01 -8.504282e-03 3.080421e-01 3.836517e-02 3.416360e-01 9.184870e-02 3.674993e-01 1.338825e-01 3.677941e-01 1.483688e-01 3.317452e-01 1.294951e-01 2.589832e-01 8.201133e-02 1.582346e-01 1.811759e-02 4.456118e-02 -4.392431e-02 -6.047296e-02 -8.394715e-02 -1.331479e-01 -8.481084e-02 -1.554032e-01 -3.690275e-02 -1.188542e-01 5.767077e-02 -2.645040e-02 1.853475e-01 1.085430e-01 3.317542e-01 2.603669e-01 9.577339e-01 5.473422e+00 1.080301e+01 2.646133e-01 -3.736804e+00 9.424972e+00 -7.356342e-01 -3.818108e+00 1.086270e+01 -4.940019e+00 -2.653353e+00 7.319768e+00 -1.307090e+01 5.413072e+00 1.116521e+01 -1.714996e+01 -5.900289e+00 6.852161e+00 2.051405e+00 4.836928e-01 5.026356e-01 5.762218e-01 5.906520e-01 6.941531e-01 6.828792e-01 7.845720e-01 7.518183e-01 8.246977e-01 7.749608e-01 8.084861e-01 7.454292e-01 7.449819e-01 6.742988e-01 6.547761e-01 5.862873e-01 5.658567e-01 5.094867e-01 5.053947e-01 4.660215e-01 4.929856e-01 4.672284e-01 5.348092e-01 5.110359e-01 6.225898e-01 5.824510e-01 7.359489e-01 6.591773e-01 8.485138e-01 7.185644e-01 9.339350e-01 7.437053e-01 9.732867e-01 7.271424e-01 9.560438e-01 6.707759e-01 8.802960e-01 5.863694e-01 7.561174e-01 4.963543e-01 6.046176e-01 4.282122e-01 4.532968e-01 4.051094e-01 3.367969e-01 4.364142e-01 5.454762e-01 1.617865e+00 -8.502981e-01 -5.092396e-01 0 0 0 0 
0 0 0 0 0 -3.459256e+00 7.977864e-01 2.453106e+00 -2.609319e-01 7.550598e-01 -6.432209e-02 5.634493e-01 -1.322248e+00 -8.526724e+00 -6.603764e+00 -1.027214e+01 -1.513576e+01 -1.050639e+01 -1.460888e+01 -1.067889e+01 -3.995590e+00 -1.392104e+00 2.388787e-01 -1.981734e-02 1.989281e-01 -5.752524e-03 2.128906e-01 2.657075e-02 2.360491e-01 6.347655e-02 2.538833e-01 9.249149e-02 2.540746e-01 1.024958e-01 2.291766e-01 8.946927e-02 1.789276e-01 5.668462e-02 1.093479e-01 1.256229e-02 3.083296e-02 -3.028918e-02 -4.172266e-02 -5.794169e-02 -9.193485e-02 -5.855135e-02 -1.073251e-01 -2.547310e-02 -8.209352e-02 3.984260e-02 -1.827329e-02 1.280324e-01 7.497315e-02 2.291666e-01 1.798528e-01 6.615884e-01 3.781694e+00 7.094050e+00 -1.720361e+00 -4.984243e+00 4.323375e+00 -4.071266e+00 -5.326715e+00 5.279571e+00 -8.219192e+00 -5.549643e+00 1.191515e+00 -1.379955e+01 1.448919e+00 3.684959e+00 -1.659046e+01 -5.457774e+00 4.762135e+00 1.417081e+00 3.340953e-01 3.471818e-01 3.980176e-01 4.079894e-01 4.794922e-01 4.717087e-01 5.419626e-01 5.193413e-01 5.696893e-01 5.353355e-01 5.584965e-01 5.149402e-01 5.146325e-01 4.658064e-01 4.523203e-01 4.050090e-01 3.908952e-01 3.519546e-01 3.491267e-01 3.219263e-01 3.405506e-01 3.227554e-01 3.694372e-01 3.530133e-01 4.300732e-01 4.023475e-01 5.083872e-01 4.553635e-01 5.861701e-01 4.964234e-01 6.452263e-01 5.138525e-01 6.724838e-01 5.024973e-01 6.606650e-01 4.636550e-01 6.084253e-01 4.054204e-01 5.226898e-01 3.432508e-01 4.180069e-01 2.960974e-01 3.133384e-01 2.799436e-01 2.326556e-01 3.016043e-01 3.787883e-01 1.121005e+00 -5.856939e-01 -3.516947e-01 0 0 0 0 
0 0 0 0 0 -1.541177e-01 3.455367e-02 1.075893e-01 -1.260436e-02 3.328690e-02 -3.016150e-03 2.502297e-02 -5.889903e-02 -1.062496e+01 -1.168469e+01 -1.099909e+01 -1.205450e+01 -1.138549e+01 -1.161784e+01 -1.191328e+01 -1.027577e+01 -6.194688e-02 1.069763e-02 -8.355841e-04 8.900236e-03 -2.251957e-04 9.506953e-03 1.200835e-03 1.052629e-02 2.834416e-03 1.131249e-02 4.121244e-03 1.131789e-02 4.566144e-03 1.021001e-02 3.988811e-03 7.975585e-03 2.532829e-03 4.880695e-03 5.714130e-04 1.386117e-03 -1.335531e-03 -1.845236e-03 -2.568460e-03 -4.083963e-03 -2.598921e-03 -4.773640e-03 -1.129745e-03 -3.653907e-03 1.775635e-03 -8.142923e-04 5.701512e-03 3.337421e-03 1.020544e-02 8.008999e-03 2.946558e-02 1.357979e-01 -9.452119e-02 -1.261195e+00 -1.411504e+00 -8.885666e-01 -1.940122e+00 -1.493974e+00 -7.994433e-01 -2.583370e+00 -1.702871e+00 -1.559029e+00 -2.627547e+00 -6.676346e-01 -1.506049e+00 -2.575436e+00 -6.105873e-01 2.655575e-01 6.311362e-02 1.487156e-02 1.545467e-02 1.771968e-02 1.816472e-02 2.135075e-02 2.100522e-02 2.413568e-02 2.312931e-02 2.537269e-02 2.384362e-02 2.487571e-02 2.293646e-02 2.292305e-02 2.074864e-02 2.014800e-02 1.804078e-02 1.741203e-02 1.567745e-02 1.555118e-02 1.433923e-02 1.516819e-02 1.437500e-02 1.645358e-02 1.572168e-02 1.915379e-02 1.791936e-02 2.264353e-02 2.028426e-02 2.611406e-02 2.212216e-02 2.875663e-02 2.291419e-02 2.998936e-02 2.243034e-02 2.948642e-02 2.072447e-02 2.718157e-02 1.814916e-02 2.337460e-02 1.538321e-02 1.870491e-02 1.326232e-02 1.400809e-02 1.249343e-02 1.036226e-02 1.346723e-02 1.737369e-02 5.079278e-02 -2.565884e-02 -1.564323e-02 0 0 0 0 
0 0 0 0 0 0 0 0 0 0 0 0 0 -1.147133e+01 -1.218189e+01 -1.177772e+01 -1.265489e+01 -1.210990e+01 -1.226524e+01 -1.252334e+01 -1.100790e+01 0 0 0 0 0 0 0 0 0 0 0 0 0 0 0 0 0 0 0 0 0 0 0 0 0 0 0 0 0 0 0 0 0 0 0 -1.089646e-02 -8.371741e-02 -1.239252e-01 -8.070322e-02 -4.920531e-02 -4.329104e-02 -2.701031e-02 7.097941e-03 -1.377565e-02 2.492607e-02 4.591956e-02 3.315734e-02 5.158845e-02 4.441698e-02 5.153854e-02 2.768196e-02 5.335070e-03 0 0 0 0 0 0 0 0 0 0 0 0 0 0 0 0 0 0 0 0 0 0 0 0 0 0 0 0 0 0 0 0 0 0 0 0 0 0 0 0 0 0 0 0 0 0 0 0 0 0 0 0 0 0 0 
0 0 0 0 0 0 0 0 0 0 0 0 0 -1.201971e+01 -1.252323e+01 -1.206841e+01 -1.239213e+01 -1.224570e+01 -1.220734e+01 -1.250132e+01 -1.203368e+01 0 0 0 0 0 0 0 0 0 0 0 0 0 0 0 0 0 0 0 0 0 0 0 0 0 0 0 0 0 0 0 0 0 0 0 0 0 0 0 0 0 0 0 0 0 0 0 0 0 0 0 0 0 0 0 0 0 0 0 0 0 0 0 0 0 0 0 0 0 0 0 0 0 0 0 0 0 0 0 0 0 0 0 0 0 0 0 0 0 0 0 0 0 0 0 0 0 0 0 0 0 0 0 0 0 0 0 
0 0 0 0 0 0 0 0 0 0 0 0 0 -1.225616e+01 -1.272380e+01 -1.232319e+01 -1.264378e+01 -1.252368e+01 -1.241895e+01 -1.279608e+01 -1.213743e+01 0 0 0 0 0 0 0 0 0 0 0 0 0 0 0 0 0 0 0 0 0 0 0 0 0 0 0 0 0 0 0 0 0 0 0 0 0 0 0 0 0 0 0 0 0 0 0 0 0 0 0 0 0 0 0 0 0 0 0 0 0 0 0 0 0 0 0 0 0 0 0 0 0 0 0 0 0 0 0 0 0 0 0 0 0 0 0 0 0 0 0 0 0 0 0 0 0 0 0 0 0 0 0 0 0 0 0 
0 0 0 0 0 0 0 0 0 0 0 0 0 -1.202046e+01 -1.252386e+01 -1.206312e+01 -1.238572e+01 -1.223390e+01 -1.219290e+01 -1.248552e+01 -1.201599e+01 0 0 0 0 0 0 0 0 0 0 0 0 0 0 0 0 0 0 0 0 0 0 0 0 0 0 0 0 0 0 0 0 0 0 0 0 0 0 0 0 0 0 0 0 0 0 0 0 0 0 0 0 0 0 0 0 0 0 0 0 0 0 0 0 0 0 0 0 0 0 0 0 0 0 0 0 0 0 0 0 0 0 0 0 0 0 0 0 0 0 0 0 0 0 0 0 0 0 0 0 0 0 0 0 0 0 0 
0 0 0 0 0 0 0 0 0 0 0 0 0 -1.148542e+01 -1.219337e+01 -1.177307e+01 -1.265122e+01 -1.208922e+01 -1.223846e+01 -1.249209e+01 -1.095811e+01 0 0 0 0 0 0 0 0 0 0 0 0 0 0 0 0 0 0 0 0 0 0 0 0 0 0 0 0 0 0 0 0 0 0 0 0 0 0 0 0 0 0 0 0 0 0 0 0 0 0 0 0 0 0 0 0 0 0 0 0 0 0 0 0 0 0 0 0 0 0 0 0 0 0 0 0 0 0 0 0 0 0 0 0 0 0 0 0 0 0 0 0 0 0 0 0 0 0 0 0 0 0 0 0 0 0 0 
0 0 0 0 0 -1.545707e-01 3.228200e-02 1.025160e-01 -1.912923e-02 2.654061e-02 -9.507762e-03 1.938264e-02 -6.337862e-02 -1.063672e+01 -1.169431e+01 -1.098567e+01 -1.203952e+01 -1.134022e+01 -1.155553e+01 -1.182777e+01 -1.017298e+01 -5.518555e-02 1.777150e-02 6.203670e-03 1.510067e-02 4.855803e-03 1.269307e-02 2.607587e-03 9.539662e-03 3.590850e-05 6.325338e-03 -2.071513e-03 3.758083e-03 -3.126038e-03 2.334342e-03 -2.828766e-03 2.213564e-03 -1.228551e-03 3.195812e-03 1.290455e-03 4.775185e-03 4.104824e-03 6.297764e-03 6.538386e-03 7.175990e-03 8.045184e-03 7.031872e-03 8.306657e-03 5.758751e-03 7.315729e-03 3.621501e-03 5.481246e-03 1.301913e-03 3.622720e-03 -1.993490e-04 2.831296e-03 2.732055e-04 4.084764e-03 1.274028e-03 3.386673e-03 4.569934e-03 7.134730e-03 6.135319e-03 1.266720e-02 1.098339e-02 1.435400e-02 1.755611e-02 1.655192e-02 1.959436e-02 2.201810e-02 1.764229e-02 2.001772e-02 1.978231e-02 1.872061e-02 1.803889e-02 1.608144e-02 1.559361e-02 1.334374e-02 1.316474e-02 1.124238e-02 1.151627e-02 1.040813e-02 1.123365e-02 1.118726e-02 1.256368e-02 1.355524e-02 1.533934e-02 1.708582e-02 1.900319e-02 2.103431e-02 2.278402e-02 2.455086e-02 2.592657e-02 2.688454e-02 2.784596e-02 2.753091e-02 2.825848e-02 2.637995e-02 2.728206e-02 2.375801e-02 2.537047e-02 2.030512e-02 2.315781e-02 1.682372e-02 2.130066e-02 1.408390e-02 2.026733e-02 1.261404e-02 2.017600e-02 1.258607e-02 2.076877e-02 1.382659e-02 2.151237e-02 1.592399e-02 2.177058e-02 1.834692e-02 2.101628e-02 2.053427e-02 1.923176e-02 2.203476e-02 2.549947e-02 5.621014e-02 -2.339045e-02 -1.540407e-02 0 0 0 0 
0 0 0 0 0 -3.469424e+00 7.468003e-01 2.339211e+00 -4.074355e-01 6.035846e-01 -2.100944e-01 4.367928e-01 -1.422837e+00 -8.599539e+00 -6.650655e+00 -1.026217e+01 -1.516561e+01 -1.044972e+01 -1.456276e+01 -1.058922e+01 -3.784665e+00 -1.240375e+00 3.976502e-01 1.381726e-01 3.380958e-01 1.082863e-01 2.843885e-01 5.812916e-02 2.138781e-01 6.336153e-04 1.419067e-01 -4.654570e-02 8.435360e-02 -7.019507e-02 5.237281e-02 -6.357334e-02 4.958352e-02 -2.773963e-02 7.154550e-02 2.872818e-02 1.069363e-01 9.186801e-02 1.411018e-01 1.465105e-01 1.608538e-01 1.803975e-01 1.576896e-01 1.863526e-01 1.291970e-01 1.641910e-01 8.129382e-02 1.230754e-01 2.926757e-02 8.138744e-02 -4.415902e-03 6.362559e-02 6.189196e-03 9.175493e-02 2.863950e-02 7.606257e-02 1.026221e-01 1.601981e-01 1.377534e-01 2.843989e-01 2.465922e-01 3.222711e-01 3.941656e-01 3.716270e-01 4.399387e-01 4.943673e-01 3.961337e-01 4.494795e-01 4.442005e-01 4.203687e-01 4.050636e-01 3.611128e-01 3.501557e-01 2.996331e-01 2.956075e-01 2.524374e-01 2.585804e-01 2.336922e-01 2.522233e-01 2.511761e-01 2.820798e-01 3.043396e-01 3.443999e-01 3.836090e-01 4.266622e-01 4.722613e-01 5.115506e-01 5.512200e-01 5.821133e-01 6.036270e-01 6.252183e-01 6.181549e-01 6.344947e-01 5.923279e-01 6.125776e-01 5.334466e-01 5.696186e-01 4.558375e-01 5.198081e-01 3.774698e-01 4.778405e-01 3.156044e-01 4.542161e-01 2.821205e-01 4.516533e-01 2.809689e-01 4.644877e-01 3.084279e-01 4.809254e-01 3.554513e-01 4.868956e-01 4.103097e-01 4.707356e-01 4.605206e-01 4.318226e-01 4.939728e-01 5.612871e-01 1.242712e+00 -5.347283e-01 -3.463185e-01 0 0 0 0 
0 0 0 0 0 -5.022146e+00 1.086670e+00 3.395812e+00 -5.842098e-01 8.757137e-01 -3.032796e-01 6.327187e-01 -2.059689e+00 -2.871885e+00 -3.319580e+00 -3.274585e+00 -5.252195e+00 -3.325665e+00 -4.958795e+00 -3.896992e+00 -1.511950e+00 -1.795931e+00 5.753013e-01 1.997387e-01 4.891937e-01 1.565702e-01 4.115344e-01 8.404306e-02 3.095360e-01 8.734079e-04 2.053987e-01 -6.738954e-02 1.221059e-01 -1.016180e-01 7.580619e-02 -9.204561e-02 7.174866e-02 -4.019604e-02 1.035180e-01 4.152519e-02 1.547328e-01 1.329152e-01 2.041863e-01 2.120177e-01 2.327885e-01 2.610874e-01 2.282261e-01 2.697296e-01 1.870029e-01 2.376701e-01 1.176783e-01 1.781687e-01 4.237766e-02 1.178306e-01 -6.377332e-03 9.212008e-02 8.973602e-03 1.328372e-01 4.146794e-02 1.101159e-01 1.485621e-01 2.319080e-01 1.994151e-01 4.116995e-01 3.569694e-01 4.665240e-01 5.705999e-01 5.379746e-01 6.368645e-01 7.156591e-01 5.734575e-01 6.506849e-01 6.430447e-01 6.085468e-01 5.863911e-01 5.227665e-01 5.069037e-01 4.337642e-01 4.279349e-01 3.654387e-01 3.743300e-01 3.382992e-01 3.651242e-01 3.636070e-01 4.083436e-01 4.405667e-01 4.985596e-01 5.553187e-01 6.176444e-01 6.836535e-01 7.405307e-01 7.979567e-01 8.426800e-01 8.738249e-01 9.050823e-01 8.948597e-01 9.185146e-01 8.574758e-01 8.867885e-01 7.722348e-01 8.245901e-01 6.598649e-01 7.524501e-01 5.463668e-01 6.916282e-01 4.567203e-01 6.573214e-01 4.081258e-01 6.534814e-01 4.063257e-01 6.719402e-01 4.459761e-01 6.956703e-01 5.140308e-01 7.043567e-01 5.935613e-01 6.811603e-01 6.665270e-01 6.251219e-01 7.148928e-01 8.096797e-01 1.794069e+00 -7.765103e-01 -5.014551e-01 0 0 0 0 
0 0 0 0 0 -1.707293e+00 3.721517e-01 1.159117e+00 -1.959035e-01 2.986698e-01 -1.026930e-01 2.153086e-01 -7.002302e-01 -9.764201e-01 -1.128640e+00 -1.113339e+00 -1.785656e+00 -1.130685e+00 -1.685909e+00 -1.325000e+00 -5.141856e-01 -6.107416e-01 1.954226e-01 6.776976e-02 1.661985e-01 5.313973e-02 1.398389e-01 2.852150e-02 1.051975e-01 2.757011e-04 6.981736e-02 -2.291535e-02 4.151043e-02 -3.454894e-02 2.576772e-02 -3.130103e-02 2.437871e-02 -1.368496e-02 3.516831e-02 1.408746e-02 5.257165e-02 4.515204e-02 6.938234e-02 7.204557e-02 7.911061e-02 8.873510e-02 7.756831e-02 9.168364e-02 6.356462e-02 8.079483e-02 4.000595e-02 6.057460e-02 1.441200e-02 4.006590e-02 -2.160779e-03 3.132579e-02 3.057611e-03 4.516701e-02 1.410247e-02 3.743996e-02 5.050994e-02 7.884457e-02 6.779701e-02 1.399678e-01 1.213606e-01 1.586069e-01 1.939905e-01 1.828995e-01 2.165202e-01 2.433099e-01 1.949661e-01 2.212232e-01 2.186265e-01 2.068987e-01 1.993664e-01 1.777351e-01 1.723416e-01 1.474748e-01 1.454922e-01 1.242437e-01 1.272658e-01 1.150151e-01 1.241346e-01 1.236181e-01 1.388276e-01 1.497823e-01 1.694991e-01 1.887955e-01 2.099853e-01 2.324265e-01 2.517641e-01 2.712876e-01 2.864933e-01 2.970825e-01 3.077099e-01 3.042358e-01 3.122784e-01 2.915279e-01 3.014930e-01 2.625462e-01 2.803420e-01 2.243325e-01 2.557998e-01 1.857207e-01 2.350884e-01 1.551998e-01 2.233727e-01 1.386194e-01 2.220041e-01 1.379430e-01 2.282213e-01 1.513748e-01 2.362573e-01 1.745035e-01 2.392317e-01 2.015985e-01 2.314409e-01 2.265407e-01 2.125311e-01 2.429548e-01 2.738920e-01 6.075668e-01 -2.651725e-01 -1.705407e-01 0 0 0 0 
0 0 0 0 0 0 0 0 0 0 0 0 0 0 0 0 0 0 0 0 0 0 0 0 0 0 0 0 0 0 0 0 0 0 0 0 0 0 0 0 0 0 0 0 0 0 0 0 0 0 0 0 0 0 0 0 0 0 0 0 0 0 0 0 0 0 0 0 0 0 0 0 0 0 0 0 0 0 0 0 0 0 0 0 0 0 0 0 0 0 0 0 0 0 0 0 0 0 0 0 0 0 0 0 0 0 0 0 0 0 0 0 0 0 0 0 0 0 0 0 0 0 0 0 0 0 0 0 
