# vtk DataFile Version 2.0
Comment goes here
ASCII

DATASET STRUCTURED_POINTS
FIELD FieldData 1
TIME 1 1 double
0.39000000
DIMENSIONS    128   16   1

ORIGIN    0.000   0.000   0.000
SPACING   0.0078125 0.015625   1.000

POINT_DATA   2048
SCALARS fY double
LOOKUP_TABLE default

0 0 0 0 0 0 0 0 0 0 0 0 0 0 0 0 0 0 0 0 0 0 0 0 0 0 0 0 0 0 0 0 0 0 0 0 0 0 0 0 0 0 0 0 0 0 0 0 0 0 0 0 0 0 0 0 0 0 0 0 0 0 0 0 0 0 0 0 0 0 0 0 0 0 0 0 0 0 0 0 0 0 0 0 0 0 0 0 0 0 0 0 0 0 0 0 0 0 0 0 0 0 0 0 0 0 0 0 0 0 0 0 0 0 0 0 0 0 0 0 0 0 0 0 0 0 0 0 
0 0 0 0 0 0 0 0 0 0 0 0 0 0 0 0 0 0 0 0 0 0 0 0 0 0 0 0 0 0 0 0 0 0 0 0 0 0 0 0 0 0 0 0 0 0 0 0 0 0 0 0 0 0 0 0 0 0 0 0 0 0 0 0 0 0 0 0 0 0 0 0 0 0 0 0 0 0 0 0 0 0 0 0 0 0 0 0 0 0 0 0 0 0 0 0 0 0 0 0 0 0 0 0 0 0 0 0 0 0 0 0 0 0 0 0 0 0 0 0 0 0 0 0 0 0 0 0 
0 0 0 0 0 -5.745478e-01 -1.511180e+00 -1.136310e+00 -1.935439e+00 -1.511902e+00 -2.356908e+00 -1.926477e+00 -2.825204e+00 -1.619370e+00 3.091485e+00 5.767142e+00 9.800920e+00 1.352645e+01 1.701703e+01 2.067880e+01 2.514002e+01 2.598239e+01 2.551065e+01 2.555817e+01 2.511603e+01 2.504559e+01 2.471722e+01 2.450818e+01 2.415932e+01 2.378843e+01 2.351768e+01 2.320569e+01 2.307826e+01 2.271338e+01 2.246260e+01 2.195167e+01 2.172454e+01 2.144500e+01 2.151059e+01 2.144659e+01 2.145846e+01 2.124889e+01 2.107126e+01 2.082635e+01 2.060187e+01 2.034876e+01 2.000495e+01 1.967201e+01 1.927229e+01 1.898472e+01 1.862490e+01 1.839798e+01 1.812721e+01 1.800113e+01 1.781322e+01 1.765109e+01 1.728798e+01 1.685399e+01 1.601095e+01 1.664086e+01 1.616337e+01 1.551823e+01 1.715016e+01 1.662872e+01 1.631125e+01 1.742380e+01 1.548189e+01 1.567293e+01 1.767774e+01 1.636527e+01 1.706657e+01 1.638687e+01 1.415180e+01 1.365678e+01 1.341349e+01 1.326297e+01 1.308755e+01 1.299711e+01 1.272701e+01 1.248017e+01 1.191588e+01 1.143223e+01 1.076683e+01 1.046392e+01 1.018495e+01 1.025664e+01 1.017787e+01 1.009137e+01 9.720570e+00 9.279216e+00 8.859437e+00 8.465594e+00 8.307926e+00 8.045792e+00 8.109018e+00 7.895146e+00 7.992083e+00 7.522214e+00 7.322903e+00 6.616749e+00 6.533457e+00 6.228098e+00 6.498976e+00 6.293400e+00 6.197460e+00 5.615924e+00 5.142583e+00 4.686451e+00 4.332352e+00 4.223748e+00 3.843362e+00 3.868199e+00 3.392442e+00 3.627235e+00 3.144149e+00 3.376675e+00 2.543575e+00 2.434516e+00 1.467973e+00 1.459600e+00 1.017981e+00 1.084761e+00 1.086424e+00 -5.552724e-01 0 0 0 0 
0 0 0 0 0 -1.690139e+00 -4.446108e+00 -3.343853e+00 -5.693905e+00 -4.448460e+00 -6.934914e+00 -5.669831e+00 -8.314374e+00 -4.767981e+00 9.089845e+00 1.695957e+01 2.882264e+01 3.977743e+01 5.004084e+01 6.080594e+01 7.392090e+01 7.639743e+01 7.501079e+01 7.515046e+01 7.385077e+01 7.364367e+01 7.267837e+01 7.206388e+01 7.103834e+01 6.994810e+01 6.915220e+01 6.823511e+01 6.786050e+01 6.678792e+01 6.605072e+01 6.454876e+01 6.388109e+01 6.305930e+01 6.325211e+01 6.306396e+01 6.309887e+01 6.248277e+01 6.196056e+01 6.124055e+01 6.058063e+01 5.983651e+01 5.882580e+01 5.784698e+01 5.667187e+01 5.582641e+01 5.476858e+01 5.410144e+01 5.330539e+01 5.293472e+01 5.238225e+01 5.190560e+01 5.081122e+01 4.957369e+01 4.811015e+01 4.828019e+01 4.777067e+01 4.754203e+01 4.895709e+01 4.795298e+01 4.652570e+01 4.635238e+01 4.410818e+01 4.397144e+01 4.606127e+01 4.470778e+01 4.549962e+01 4.427731e+01 4.130947e+01 4.016164e+01 3.944627e+01 3.900371e+01 3.848791e+01 3.822198e+01 3.742780e+01 3.670200e+01 3.504274e+01 3.362060e+01 3.166395e+01 3.077324e+01 2.995287e+01 3.016365e+01 2.993199e+01 2.967762e+01 2.858722e+01 2.728941e+01 2.605497e+01 2.489686e+01 2.443323e+01 2.366242e+01 2.384838e+01 2.321948e+01 2.350454e+01 2.212276e+01 2.153660e+01 1.945985e+01 1.921481e+01 1.831664e+01 1.911306e+01 1.850833e+01 1.822605e+01 1.651563e+01 1.512360e+01 1.378208e+01 1.274080e+01 1.242151e+01 1.130300e+01 1.137623e+01 9.977249e+00 1.066794e+01 9.247259e+00 9.931017e+00 7.480414e+00 7.158472e+00 4.312309e+00 4.277447e+00 2.943725e+00 3.131467e+00 3.174550e+00 -1.633630e+00 0 0 0 0 
0 0 0 0 0 -1.167618e+00 -3.071892e+00 -2.310648e+00 -3.933805e+00 -3.073627e+00 -4.791718e+00 -3.918284e+00 -5.745617e+00 -7.123482e+00 9.078000e+00 8.477181e+00 2.402501e+01 2.313860e+01 3.923444e+01 3.764004e+01 5.444388e+01 5.276177e+01 5.180433e+01 5.190077e+01 5.100334e+01 5.086033e+01 5.019378e+01 4.976947e+01 4.906133e+01 4.830853e+01 4.775896e+01 4.712573e+01 4.686707e+01 4.612646e+01 4.561742e+01 4.458031e+01 4.411927e+01 4.355181e+01 4.368495e+01 4.355502e+01 4.357912e+01 4.315368e+01 4.279308e+01 4.229589e+01 4.184019e+01 4.132635e+01 4.062842e+01 3.995250e+01 3.914103e+01 3.855720e+01 3.782672e+01 3.736602e+01 3.681630e+01 3.656033e+01 3.617881e+01 3.584965e+01 3.535664e+01 3.451602e+01 3.393382e+01 3.228646e+01 3.268880e+01 3.358353e+01 3.172264e+01 3.113579e+01 2.974247e+01 2.643102e+01 2.777162e+01 2.730598e+01 2.516727e+01 2.672751e+01 2.541314e+01 2.582614e+01 2.812959e+01 2.773936e+01 2.724531e+01 2.693967e+01 2.658346e+01 2.639980e+01 2.585132e+01 2.535007e+01 2.420412e+01 2.322194e+01 2.187057e+01 2.125540e+01 2.068879e+01 2.083435e+01 2.067435e+01 2.049865e+01 1.974554e+01 1.884920e+01 1.799661e+01 1.719675e+01 1.687655e+01 1.634419e+01 1.647265e+01 1.603828e+01 1.623517e+01 1.528080e+01 1.487592e+01 1.344147e+01 1.327217e+01 1.265174e+01 1.320173e+01 1.278396e+01 1.258892e+01 1.140743e+01 1.044594e+01 9.519308e+00 8.800123e+00 8.579632e+00 7.807148e+00 7.857819e+00 6.891609e+00 7.368774e+00 6.387501e+00 6.859743e+00 5.166820e+00 4.943864e+00 2.976214e+00 2.947170e+00 2.009008e+00 2.134492e+00 2.182759e+00 -1.128673e+00 0 0 0 0 
0 0 0 0 0 -5.202714e-02 -1.369637e-01 -1.031048e-01 -1.753395e-01 -1.370688e-01 -2.137121e-01 -1.749297e-01 -2.564475e-01 -3.179823e+00 3.151162e+00 -2.170262e+00 4.980059e+00 -2.963324e+00 5.838843e+00 -2.616073e+00 4.685690e+00 2.346726e+00 2.304195e+00 2.308477e+00 2.268603e+00 2.262246e+00 2.232627e+00 2.213774e+00 2.182308e+00 2.148863e+00 2.124443e+00 2.096310e+00 2.084819e+00 2.051914e+00 2.029296e+00 1.983211e+00 1.962724e+00 1.937505e+00 1.943422e+00 1.937647e+00 1.938718e+00 1.919808e+00 1.903782e+00 1.881683e+00 1.861430e+00 1.838591e+00 1.807571e+00 1.777527e+00 1.741458e+00 1.715506e+00 1.683035e+00 1.662555e+00 1.638118e+00 1.626738e+00 1.609777e+00 1.595143e+00 1.931846e+00 2.057447e+00 2.058489e+00 7.808271e-01 1.091714e+00 1.336428e+00 -1.632164e-01 -2.879909e-01 -4.573728e-01 -2.415803e+00 -1.058759e+00 -1.277266e+00 -3.359739e+00 -1.564917e+00 -3.198309e+00 -2.265047e+00 9.480387e-01 1.234504e+00 1.212532e+00 1.198938e+00 1.183095e+00 1.174927e+00 1.150532e+00 1.128236e+00 1.077262e+00 1.033570e+00 9.734507e-01 9.460822e-01 9.208700e-01 9.273421e-01 9.202207e-01 9.124014e-01 8.788901e-01 8.390127e-01 8.010752e-01 7.654896e-01 7.512445e-01 7.275605e-01 7.332810e-01 7.139556e-01 7.227171e-01 6.802451e-01 6.622216e-01 5.983701e-01 5.908240e-01 5.631916e-01 5.876471e-01 5.690332e-01 5.603350e-01 5.077245e-01 4.649296e-01 4.236751e-01 3.916742e-01 3.818723e-01 3.475096e-01 3.497879e-01 3.068022e-01 3.280650e-01 2.843905e-01 3.054007e-01 2.299809e-01 2.199081e-01 1.318767e-01 1.293237e-01 8.326395e-02 8.778657e-02 9.463344e-02 -5.031563e-02 0 0 0 0 
0 0 0 0 0 0 0 0 0 0 0 0 0 -1.507454e+00 4.854538e-01 -1.462696e+00 1.226278e+00 -1.313412e+00 1.529807e+00 -7.227601e-01 1.274787e+00 0 0 0 0 0 0 0 0 0 0 0 0 0 0 0 0 0 0 0 0 0 0 0 0 0 0 0 0 0 0 0 0 0 0 0 9.844354e-02 2.611175e-01 2.238751e-01 1.337109e-01 1.021323e-02 -2.233026e-01 -7.892126e-02 -9.952185e-02 1.460945e-02 8.174285e-02 -2.040894e-01 -2.847359e-01 -1.434896e-01 5.009370e-02 -1.783905e-01 -2.007444e-01 -2.389041e-02 0 0 0 0 0 0 0 0 0 0 0 0 0 0 0 0 0 0 0 0 0 0 0 0 0 0 0 0 0 0 0 0 0 0 0 0 0 0 0 0 0 0 0 0 0 0 0 0 0 0 0 0 0 0 0 
0 0 0 0 0 0 0 0 0 0 0 0 0 -7.452531e-01 4.564493e-01 -8.471161e-01 8.978063e-01 -9.062509e-01 9.747238e-01 -6.137643e-01 6.298527e-01 0 0 0 0 0 0 0 0 0 0 0 0 0 0 0 0 0 0 0 0 0 0 0 0 0 0 0 0 0 0 0 0 0 0 0 0 0 0 0 0 0 0 0 0 0 0 0 0 0 0 0 0 0 0 0 0 0 0 0 0 0 0 0 0 0 0 0 0 0 0 0 0 0 0 0 0 0 0 0 0 0 0 0 0 0 0 0 0 0 0 0 0 0 0 0 0 0 0 0 0 0 0 0 0 0 0 0 
0 0 0 0 0 0 0 0 0 0 0 0 0 4.986365e-02 2.257097e-02 3.378260e-02 1.364203e-02 1.451643e-02 -1.249551e-03 -9.645234e-03 -2.227600e-02 0 0 0 0 0 0 0 0 0 0 0 0 0 0 0 0 0 0 0 0 0 0 0 0 0 0 0 0 0 0 0 0 0 0 0 0 0 0 0 0 0 0 0 0 0 0 0 0 0 0 0 0 0 0 0 0 0 0 0 0 0 0 0 0 0 0 0 0 0 0 0 0 0 0 0 0 0 0 0 0 0 0 0 0 0 0 0 0 0 0 0 0 0 0 0 0 0 0 0 0 0 0 0 0 0 0 0 
0 0 0 0 0 0 0 0 0 0 0 0 0 8.258396e-01 -4.078090e-01 9.218139e-01 -8.405150e-01 9.664138e-01 -9.356295e-01 6.350525e-01 -6.272633e-01 0 0 0 0 0 0 0 0 0 0 0 0 0 0 0 0 0 0 0 0 0 0 0 0 0 0 0 0 0 0 0 0 0 0 0 0 0 0 0 0 0 0 0 0 0 0 0 0 0 0 0 0 0 0 0 0 0 0 0 0 0 0 0 0 0 0 0 0 0 0 0 0 0 0 0 0 0 0 0 0 0 0 0 0 0 0 0 0 0 0 0 0 0 0 0 0 0 0 0 0 0 0 0 0 0 0 0 
0 0 0 0 0 0 0 0 0 0 0 0 0 1.626936e+00 -4.249839e-01 1.543669e+00 -1.175143e+00 1.362034e+00 -1.503655e+00 7.186837e-01 -1.296079e+00 0 0 0 0 0 0 0 0 0 0 0 0 0 0 0 0 0 0 0 0 0 0 0 0 0 0 0 0 0 0 0 0 0 0 0 0 0 0 0 0 0 0 0 0 0 0 0 0 0 0 0 0 0 0 0 0 0 0 0 0 0 0 0 0 0 0 0 0 0 0 0 0 0 0 0 0 0 0 0 0 0 0 0 0 0 0 0 0 0 0 0 0 0 0 0 0 0 0 0 0 0 0 0 0 0 0 0 
0 0 0 0 0 5.169696e-02 1.344223e-01 9.946236e-02 1.764141e-01 1.455568e-01 2.255775e-01 1.833206e-01 2.584633e-01 3.106587e+00 -3.024182e+00 2.284668e+00 -4.810816e+00 3.124263e+00 -5.714384e+00 2.785555e+00 -4.638304e+00 -2.314419e+00 -2.269146e+00 -2.277444e+00 -2.239784e+00 -2.228137e+00 -2.193430e+00 -2.180544e+00 -2.173038e+00 -2.173500e+00 -2.178743e+00 -2.159650e+00 -2.138281e+00 -2.089602e+00 -2.064829e+00 -2.031970e+00 -2.029425e+00 -2.006432e+00 -1.992430e+00 -1.952568e+00 -1.923679e+00 -1.885455e+00 -1.856646e+00 -1.824587e+00 -1.800827e+00 -1.787175e+00 -1.776008e+00 -1.767082e+00 -1.739753e+00 -1.712007e+00 -1.677398e+00 -1.665474e+00 -1.655082e+00 -1.653145e+00 -1.630623e+00 -1.598405e+00 -1.552278e+00 -1.514713e+00 -1.493074e+00 -1.488519e+00 -1.494780e+00 -1.493516e+00 -1.485584e+00 -1.457046e+00 -1.423139e+00 -1.371972e+00 -1.326257e+00 -1.284656e+00 -1.275421e+00 -1.288824e+00 -1.312262e+00 -1.312053e+00 -1.272055e+00 -1.204658e+00 -1.130832e+00 -1.091462e+00 -1.077510e+00 -1.098869e+00 -1.106130e+00 -1.112263e+00 -1.075318e+00 -1.037653e+00 -9.766380e-01 -9.451734e-01 -9.146427e-01 -9.158028e-01 -9.125393e-01 -9.180735e-01 -9.105275e-01 -8.925196e-01 -8.687208e-01 -8.318465e-01 -8.148801e-01 -7.841903e-01 -7.784348e-01 -7.294179e-01 -7.014559e-01 -6.306590e-01 -6.115593e-01 -5.657005e-01 -5.758712e-01 -5.483145e-01 -5.600811e-01 -5.343684e-01 -5.353582e-01 -5.053806e-01 -4.788721e-01 -4.365028e-01 -3.861186e-01 -3.584174e-01 -3.187332e-01 -3.331268e-01 -3.038990e-01 -3.247838e-01 -2.624681e-01 -2.681710e-01 -2.052075e-01 -2.404343e-01 -2.049485e-01 -2.270569e-01 -1.644240e-01 -1.285736e-01 -1.047029e-01 4.989993e-02 0 0 0 0 
0 0 0 0 0 1.160211e+00 3.014845e+00 2.228855e+00 3.957912e+00 3.264226e+00 5.058091e+00 4.106635e+00 5.790917e+00 7.124877e+00 -8.912543e+00 -8.319068e+00 -2.379879e+01 -2.292513e+01 -3.897655e+01 -3.729046e+01 -5.397234e+01 -5.203452e+01 -5.101541e+01 -5.120225e+01 -5.035467e+01 -5.009259e+01 -4.931156e+01 -4.902155e+01 -4.885266e+01 -4.886305e+01 -4.898101e+01 -4.855120e+01 -4.807023e+01 -4.697458e+01 -4.641702e+01 -4.567752e+01 -4.562022e+01 -4.510280e+01 -4.478773e+01 -4.389080e+01 -4.324077e+01 -4.238077e+01 -4.173256e+01 -4.101133e+01 -4.047675e+01 -4.016962e+01 -3.991836e+01 -3.971754e+01 -3.910268e+01 -3.847851e+01 -3.769993e+01 -3.743168e+01 -3.719789e+01 -3.715433e+01 -3.664771e+01 -3.592302e+01 -3.488552e+01 -3.404061e+01 -3.355391e+01 -3.345146e+01 -3.359228e+01 -3.356386e+01 -3.338546e+01 -3.274365e+01 -3.198111e+01 -3.083046e+01 -2.980245e+01 -2.886704e+01 -2.865939e+01 -2.896076e+01 -2.948781e+01 -2.948310e+01 -2.858369e+01 -2.706837e+01 -2.540847e+01 -2.452334e+01 -2.420967e+01 -2.468985e+01 -2.485308e+01 -2.499098e+01 -2.416046e+01 -2.331379e+01 -2.194234e+01 -2.123511e+01 -2.054899e+01 -2.057515e+01 -2.050187e+01 -2.062634e+01 -2.045676e+01 -2.005195e+01 -1.951705e+01 -1.868813e+01 -1.830674e+01 -1.761686e+01 -1.748742e+01 -1.638576e+01 -1.575740e+01 -1.416661e+01 -1.373756e+01 -1.270746e+01 -1.293634e+01 -1.231764e+01 -1.258250e+01 -1.200530e+01 -1.202795e+01 -1.135484e+01 -1.075933e+01 -9.807665e+00 -8.675378e+00 -8.052873e+00 -7.160834e+00 -7.483544e+00 -6.826407e+00 -7.295103e+00 -5.895066e+00 -6.023424e+00 -4.610438e+00 -5.404934e+00 -4.617225e+00 -5.142704e+00 -3.832199e+00 -3.050750e+00 -2.409315e+00 1.119358e+00 0 0 0 0 
0 0 0 0 0 1.679418e+00 4.363528e+00 3.225444e+00 5.728798e+00 4.724382e+00 7.320512e+00 5.942482e+00 8.379961e+00 4.744198e+00 -9.041820e+00 -1.681551e+01 -2.867401e+01 -3.966658e+01 -4.987216e+01 -6.046269e+01 -7.320221e+01 -7.534417e+01 -7.386822e+01 -7.413883e+01 -7.291134e+01 -7.253180e+01 -7.140071e+01 -7.098072e+01 -7.073613e+01 -7.075118e+01 -7.092200e+01 -7.029952e+01 -6.960295e+01 -6.801617e+01 -6.720870e+01 -6.613773e+01 -6.605474e+01 -6.530543e+01 -6.484915e+01 -6.355023e+01 -6.260888e+01 -6.136348e+01 -6.042477e+01 -5.938033e+01 -5.860618e+01 -5.816141e+01 -5.779755e+01 -5.750673e+01 -5.661633e+01 -5.571246e+01 -5.458499e+01 -5.419652e+01 -5.385798e+01 -5.379490e+01 -5.306125e+01 -5.201185e+01 -5.050947e+01 -4.928598e+01 -4.858121e+01 -4.843286e+01 -4.863677e+01 -4.859562e+01 -4.833729e+01 -4.740792e+01 -4.630373e+01 -4.463757e+01 -4.314899e+01 -4.179451e+01 -4.149383e+01 -4.193022e+01 -4.269340e+01 -4.268658e+01 -4.138423e+01 -3.919008e+01 -3.678658e+01 -3.550495e+01 -3.505077e+01 -3.574604e+01 -3.598239e+01 -3.618207e+01 -3.497954e+01 -3.375362e+01 -3.176790e+01 -3.074390e+01 -2.975049e+01 -2.978840e+01 -2.968231e+01 -2.986254e+01 -2.961702e+01 -2.903089e+01 -2.825641e+01 -2.705620e+01 -2.650396e+01 -2.550507e+01 -2.531764e+01 -2.372256e+01 -2.281280e+01 -2.050962e+01 -1.988846e+01 -1.839716e+01 -1.872862e+01 -1.783298e+01 -1.821657e+01 -1.738103e+01 -1.741393e+01 -1.643951e+01 -1.557735e+01 -1.419960e+01 -1.256022e+01 -1.165892e+01 -1.036733e+01 -1.083437e+01 -9.882857e+00 -1.056130e+01 -8.534343e+00 -8.720236e+00 -6.674943e+00 -7.825980e+00 -6.687970e+00 -7.456052e+00 -5.583260e+00 -4.457988e+00 -3.502637e+00 1.620150e+00 0 0 0 0 
0 0 0 0 0 5.709039e-01 1.483106e+00 1.096052e+00 1.947299e+00 1.605713e+00 2.487998e+00 2.019167e+00 2.847507e+00 1.611287e+00 -3.075155e+00 -5.718155e+00 -9.750374e+00 -1.348875e+01 -1.695966e+01 -2.056204e+01 -2.489552e+01 -2.562407e+01 -2.512195e+01 -2.521402e+01 -2.479645e+01 -2.466735e+01 -2.428258e+01 -2.413971e+01 -2.405651e+01 -2.406163e+01 -2.411973e+01 -2.390796e+01 -2.367100e+01 -2.313119e+01 -2.285651e+01 -2.249218e+01 -2.246395e+01 -2.220906e+01 -2.205385e+01 -2.161200e+01 -2.129179e+01 -2.086816e+01 -2.054885e+01 -2.019359e+01 -1.993026e+01 -1.977897e+01 -1.965520e+01 -1.955628e+01 -1.925341e+01 -1.894596e+01 -1.856246e+01 -1.843032e+01 -1.831517e+01 -1.829371e+01 -1.804417e+01 -1.768723e+01 -1.717623e+01 -1.676008e+01 -1.652037e+01 -1.646992e+01 -1.653927e+01 -1.652528e+01 -1.643741e+01 -1.612131e+01 -1.574576e+01 -1.517908e+01 -1.467279e+01 -1.421213e+01 -1.410987e+01 -1.425828e+01 -1.451785e+01 -1.451553e+01 -1.407259e+01 -1.332637e+01 -1.250894e+01 -1.207307e+01 -1.191861e+01 -1.215506e+01 -1.223544e+01 -1.230335e+01 -1.189439e+01 -1.147748e+01 -1.080219e+01 -1.045396e+01 -1.011614e+01 -1.012905e+01 -1.009298e+01 -1.015428e+01 -1.007079e+01 -9.871454e+00 -9.608080e+00 -9.199910e+00 -9.012103e+00 -8.672403e+00 -8.608654e+00 -8.066224e+00 -7.756857e+00 -6.973674e+00 -6.762465e+00 -6.255396e+00 -6.368150e+00 -6.063657e+00 -6.194149e+00 -5.910100e+00 -5.921335e+00 -5.590050e+00 -5.296893e+00 -4.828442e+00 -4.270956e+00 -3.964469e+00 -3.525226e+00 -3.683955e+00 -3.360349e+00 -3.590977e+00 -2.901745e+00 -2.964983e+00 -2.269713e+00 -2.661480e+00 -2.275693e+00 -2.540405e+00 -1.915485e+00 -1.535811e+00 -1.198025e+00 5.506916e-01 0 0 0 0 
0 0 0 0 0 0 0 0 0 0 0 0 0 0 0 0 0 0 0 0 0 0 0 0 0 0 0 0 0 0 0 0 0 0 0 0 0 0 0 0 0 0 0 0 0 0 0 0 0 0 0 0 0 0 0 0 0 0 0 0 0 0 0 0 0 0 0 0 0 0 0 0 0 0 0 0 0 0 0 0 0 0 0 0 0 0 0 0 0 0 0 0 0 0 0 0 0 0 0 0 0 0 0 0 0 0 0 0 0 0 0 0 0 0 0 0 0 0 0 0 0 0 0 0 0 0 0 0 
