# vtk DataFile Version 2.0
Comment goes here
ASCII

DATASET STRUCTURED_POINTS
FIELD FieldData 1
TIME 1 1 double
0.72000000
DIMENSIONS    128   16   1

ORIGIN    0.000   0.000   0.000
SPACING   0.0078125 0.015625   1.000

POINT_DATA   2048
SCALARS Omega double
LOOKUP_TABLE default

2.295037e-05 1.998415e-05 1.506070e-05 9.091379e-06 2.011474e-05 4.071585e-05 -8.710876e-06 -4.663347e-05 -2.943880e-06 -2.428543e-05 -1.016523e-05 -2.996247e-05 6.061096e-06 -4.745816e-06 1.389897e-05 -5.338726e-05 2.587863e-05 -3.431223e-05 7.587731e-06 4.470304e-05 -1.095690e-04 -4.913808e-05 -3.446721e-05 -1.145816e-05 -3.416884e-05 -2.852279e-05 -4.346713e-05 -3.796576e-05 -5.193807e-05 -4.680983e-05 -6.393202e-05 -5.798740e-05 -8.190037e-05 -7.272153e-05 -1.066631e-04 -9.008858e-05 -1.361825e-04 -1.066539e-04 -1.679433e-04 -1.226489e-04 -2.117589e-04 -1.651736e-04 -3.247788e-04 -3.358193e-04 -6.624156e-04 -8.485121e-04 -1.472408e-03 -1.946703e-03 -2.906277e-03 -3.604703e-03 -4.693123e-03 -5.547762e-03 -7.671720e-03 -1.098874e-02 -1.023951e-02 1.569672e-02 5.170165e-02 3.354664e-02 2.049249e-02 4.631860e-02 3.299075e-02 3.887324e-02 4.162445e-02 2.778874e-02 5.433301e-02 5.179233e-02 4.336562e-02 4.761117e-02 4.942945e-02 4.988007e-02 4.467529e-02 3.630420e-02 3.203669e-02 1.674314e-02 1.444367e-03 8.841186e-04 3.327487e-03 4.408680e-03 3.813849e-03 3.100259e-03 2.082160e-03 1.465660e-03 8.338404e-04 5.869674e-04 3.383191e-04 3.149838e-04 2.555078e-04 2.811161e-04 2.762845e-04 2.729745e-04 2.767653e-04 2.355109e-04 2.446025e-04 1.785677e-04 1.981282e-04 1.199988e-04 1.526927e-04 7.022315e-05 1.154061e-04 3.294079e-05 8.727990e-05 7.947042e-06 6.686768e-05 -6.603545e-06 5.225481e-05 -1.219183e-05 4.216438e-05 -1.049666e-05 3.520668e-05 -3.927427e-06 2.988914e-05 5.001037e-06 2.502269e-05 1.372202e-05 1.950333e-05 1.990702e-05 1.215803e-05 2.120061e-05 4.615283e-07 1.286667e-05 -1.809918e-05 1.176988e-05 -3.202097e-05 -1.107529e-05 1.924707e-05 3.076042e-05 2.753073e-05 2.450080e-05 
-5.355349e-03 -2.510989e-03 5.595476e-03 -1.824797e-02 -1.877796e-01 1.562314e-01 1.204245e+00 5.900790e-01 4.122672e-01 4.402435e-01 4.537489e-01 4.131051e-01 -6.118763e-01 -2.437641e+00 -3.253227e+00 -2.789787e+00 -3.034056e+00 -2.972297e+00 -2.846493e+00 -3.207924e+00 -2.515341e+00 -3.562046e-01 3.929775e-01 4.745338e-01 4.279291e-01 4.484434e-01 4.338427e-01 4.528150e-01 4.434254e-01 4.526737e-01 4.492537e-01 4.505792e-01 4.531804e-01 4.480421e-01 4.557944e-01 4.456914e-01 4.572979e-01 4.438216e-01 4.577472e-01 4.425359e-01 4.571846e-01 4.417556e-01 4.556566e-01 4.412325e-01 4.532344e-01 4.405530e-01 4.500457e-01 4.393249e-01 4.464451e-01 4.376934e-01 4.433039e-01 4.354295e-01 4.380802e-01 4.351387e-01 5.047661e-01 6.674087e-01 1.330570e-01 -1.592572e+00 -4.336951e-01 1.306498e+00 -3.781412e-01 6.312037e-01 4.089008e-01 -1.934752e+00 5.654411e-01 7.970786e-01 2.481346e-02 1.674881e+00 -1.087754e+00 -1.249360e+00 2.965369e+00 2.425974e+00 5.830816e-01 5.873498e-01 4.814522e-01 4.419349e-01 4.353713e-01 4.485431e-01 4.458897e-01 4.509700e-01 4.479428e-01 4.503597e-01 4.487661e-01 4.495589e-01 4.495979e-01 4.487225e-01 4.505357e-01 4.477264e-01 4.514808e-01 4.465527e-01 4.524017e-01 4.452990e-01 4.532973e-01 4.441369e-01 4.541183e-01 4.432517e-01 4.547357e-01 4.428326e-01 4.549461e-01 4.430789e-01 4.544577e-01 4.442090e-01 4.529604e-01 4.464260e-01 4.502248e-01 4.498971e-01 4.461495e-01 4.546996e-01 4.408314e-01 4.608106e-01 4.346649e-01 4.681454e-01 4.284098e-01 4.767223e-01 4.232859e-01 4.872105e-01 4.209469e-01 5.026175e-01 4.225907e-01 5.349718e-01 4.141999e-01 8.935834e-01 1.025284e+00 -2.323633e-02 -3.916060e-02 -1.496980e-02 -1.266170e-02 -8.409512e-03 
-5.310012e-03 1.500334e-02 7.310767e-02 -5.378437e-02 -1.651284e+00 -1.001407e+00 3.031525e+00 1.014940e+00 7.812796e-01 7.360937e-01 8.082454e-01 6.059526e-01 -8.110881e-01 4.742728e-01 1.079916e+00 1.184632e+00 8.621604e-01 1.209037e+00 8.739738e-01 1.316029e+00 1.824621e-01 -3.548060e-01 4.905471e-01 8.099173e-01 6.988592e-01 7.923269e-01 6.959205e-01 7.838101e-01 7.040963e-01 7.733035e-01 7.108736e-01 7.610266e-01 7.184772e-01 7.493768e-01 7.266003e-01 7.388118e-01 7.342992e-01 7.293173e-01 7.393029e-01 7.201951e-01 7.417755e-01 7.144500e-01 7.442686e-01 7.123728e-01 7.448471e-01 7.108515e-01 7.433454e-01 7.107153e-01 7.433919e-01 7.143388e-01 7.485719e-01 7.241055e-01 7.646636e-01 7.667240e-01 9.262684e-01 1.090064e+00 2.661432e-01 -2.058051e+00 -6.028831e-01 1.669256e+00 -5.212923e-01 6.341455e-01 1.402252e+00 -1.056789e+00 1.269881e+00 1.087303e+00 -2.468068e-01 2.139771e+00 2.587743e-01 -4.128373e-01 2.800590e+00 2.047151e+00 5.525513e-01 8.521203e-01 7.102510e-01 6.756991e-01 6.469099e-01 6.933729e-01 6.724969e-01 7.089268e-01 6.831138e-01 7.146055e-01 6.884493e-01 7.165700e-01 6.935811e-01 7.148768e-01 6.982264e-01 7.096609e-01 7.048930e-01 7.032703e-01 7.133271e-01 6.941186e-01 7.215677e-01 6.834894e-01 7.304817e-01 6.736461e-01 7.388244e-01 6.652583e-01 7.446959e-01 6.602206e-01 7.474306e-01 6.613128e-01 7.452296e-01 6.681302e-01 7.343016e-01 6.810882e-01 7.158599e-01 7.027803e-01 6.897978e-01 7.298020e-01 6.556259e-01 7.624654e-01 6.203476e-01 8.013857e-01 5.861526e-01 8.412194e-01 5.527642e-01 8.864672e-01 5.186535e-01 9.744021e-01 4.179010e-01 2.003689e+00 1.384784e+00 -1.753483e+00 -4.142467e-02 1.753014e-01 2.472252e-02 -9.361921e-03 
-2.215068e-04 4.077726e-02 1.818929e-01 1.479900e-02 -3.748747e+00 -4.929259e+00 -1.187489e-01 -1.450707e+00 -1.041831e+00 -1.289959e+00 -9.904762e-01 -8.087003e-01 3.129898e-01 8.453506e-02 -2.712013e-01 -2.773281e-02 -8.730971e-02 1.559970e-02 -1.431098e-01 -1.567561e-01 5.273062e-02 1.314545e-01 -8.709824e-01 -1.001249e+00 -1.222668e+00 -1.145413e+00 -1.320278e+00 -1.209382e+00 -1.372479e+00 -1.247386e+00 -1.400834e+00 -1.273837e+00 -1.410496e+00 -1.293029e+00 -1.407652e+00 -1.308861e+00 -1.397278e+00 -1.324011e+00 -1.386977e+00 -1.341689e+00 -1.377021e+00 -1.352985e+00 -1.360841e+00 -1.356061e+00 -1.345619e+00 -1.358339e+00 -1.333952e+00 -1.355631e+00 -1.317877e+00 -1.341210e+00 -1.291385e+00 -1.309690e+00 -1.243881e+00 -1.251763e+00 -1.199690e+00 -1.225902e+00 -5.322976e-01 8.931107e-01 -3.660228e-02 -1.645212e+00 -1.482024e-01 -1.124253e+00 -1.281129e+00 4.815731e-01 -1.458549e+00 -1.588029e+00 -8.036427e-01 -2.516017e+00 -7.000660e-01 -5.264550e-01 -3.609828e+00 -2.948874e+00 -1.745009e+00 -1.731621e+00 -1.638094e+00 -1.526682e+00 -1.527548e+00 -1.462014e+00 -1.494318e+00 -1.424818e+00 -1.479239e+00 -1.406975e+00 -1.473728e+00 -1.397709e+00 -1.466960e+00 -1.396950e+00 -1.460884e+00 -1.404676e+00 -1.448369e+00 -1.414793e+00 -1.430237e+00 -1.432977e+00 -1.412142e+00 -1.456712e+00 -1.391051e+00 -1.480641e+00 -1.369653e+00 -1.504055e+00 -1.352185e+00 -1.522697e+00 -1.338698e+00 -1.529754e+00 -1.332514e+00 -1.527604e+00 -1.343411e+00 -1.515828e+00 -1.367352e+00 -1.486949e+00 -1.405557e+00 -1.450252e+00 -1.462180e+00 -1.403351e+00 -1.521453e+00 -1.343219e+00 -1.584216e+00 -1.288234e+00 -1.661108e+00 -1.244781e+00 -1.766439e+00 -1.191423e+00 -1.999077e+00 -6.801931e-01 -3.688126e+00 -5.323935e+00 1.407836e-01 5.913695e-01 1.284011e-01 4.840106e-03 
1.478168e-03 3.898593e-02 1.897319e-01 3.130820e-01 -1.969392e+00 -4.490070e+00 -4.278232e+00 -3.090270e+00 -2.307097e+00 -2.484385e+00 -2.199102e+00 -2.293254e+00 -2.374012e+00 -2.334616e+00 -2.153344e+00 -2.314936e+00 -2.213198e+00 -2.324881e+00 -2.209768e+00 -2.268850e+00 -2.306501e+00 -2.349336e+00 -2.150914e+00 -2.221319e+00 -2.330820e+00 -2.380378e+00 -2.463631e+00 -2.448166e+00 -2.535688e+00 -2.479805e+00 -2.578424e+00 -2.495838e+00 -2.600217e+00 -2.503951e+00 -2.607829e+00 -2.509285e+00 -2.606001e+00 -2.515011e+00 -2.600670e+00 -2.523956e+00 -2.592571e+00 -2.530047e+00 -2.577838e+00 -2.531808e+00 -2.562420e+00 -2.533922e+00 -2.549398e+00 -2.533049e+00 -2.534607e+00 -2.524535e+00 -2.515454e+00 -2.506137e+00 -2.489125e+00 -2.472274e+00 -2.441848e+00 -2.390558e+00 -2.517561e+00 -2.730625e+00 -2.193893e+00 -2.126502e+00 -2.308311e+00 -2.154304e+00 -2.707804e+00 -3.221073e+00 -2.654436e+00 -2.503038e+00 -2.507509e+00 -2.404212e+00 -3.545227e+00 -3.356598e+00 -1.839955e+00 -2.006491e+00 -2.780138e+00 -2.825491e+00 -2.744103e+00 -2.721294e+00 -2.682230e+00 -2.654101e+00 -2.651953e+00 -2.616690e+00 -2.641286e+00 -2.597634e+00 -2.638822e+00 -2.585757e+00 -2.636182e+00 -2.579939e+00 -2.634433e+00 -2.580006e+00 -2.628342e+00 -2.582002e+00 -2.618232e+00 -2.590238e+00 -2.607731e+00 -2.603460e+00 -2.594394e+00 -2.618502e+00 -2.579633e+00 -2.635350e+00 -2.565804e+00 -2.651487e+00 -2.552199e+00 -2.662648e+00 -2.540433e+00 -2.670793e+00 -2.536855e+00 -2.675733e+00 -2.538694e+00 -2.672149e+00 -2.547447e+00 -2.665924e+00 -2.567337e+00 -2.654507e+00 -2.589578e+00 -2.634844e+00 -2.617373e+00 -2.619334e+00 -2.659648e+00 -2.615039e+00 -2.719332e+00 -2.621950e+00 -2.772140e+00 -3.238585e+00 -6.136330e+00 -3.960113e+00 1.932512e-01 4.024049e-01 6.880904e-02 -6.433857e-03 
-2.591229e-03 3.338899e-03 4.494764e-02 2.066583e-01 3.587788e-01 -5.774403e-01 -2.406222e+00 -1.333104e+00 -9.533403e-01 -9.338576e-01 -8.171113e-01 -1.020494e+00 -2.136082e+00 -1.729859e+00 -1.314025e+00 -1.319460e+00 -1.319883e+00 -1.317220e+00 -1.322057e+00 -1.315537e+00 -1.742104e+00 -1.903678e+00 -9.877962e-01 -8.882027e-01 -8.731757e-01 -9.237141e-01 -9.072522e-01 -9.328290e-01 -9.269845e-01 -9.365972e-01 -9.417645e-01 -9.370996e-01 -9.515961e-01 -9.358109e-01 -9.575686e-01 -9.340549e-01 -9.606410e-01 -9.327428e-01 -9.616297e-01 -9.324644e-01 -9.611062e-01 -9.332218e-01 -9.596037e-01 -9.352147e-01 -9.584291e-01 -9.389987e-01 -9.591278e-01 -9.449318e-01 -9.629091e-01 -9.531324e-01 -9.702225e-01 -9.633141e-01 -9.793115e-01 -9.426960e-01 -8.014712e-01 -4.838019e-01 -1.564030e+00 -4.548073e+00 -2.972754e+00 -9.147844e-02 -2.764076e+00 -1.483986e+00 -5.195340e-02 -2.850069e+00 -4.399991e-01 -4.738568e-01 -2.533928e+00 6.946321e-01 -8.558997e-01 -2.148656e+00 1.189461e+00 3.789571e-01 -9.812694e-01 -6.390729e-01 -8.215962e-01 -9.794351e-01 -9.750987e-01 -9.804954e-01 -9.632750e-01 -9.662387e-01 -9.582657e-01 -9.575159e-01 -9.558668e-01 -9.509456e-01 -9.549189e-01 -9.456927e-01 -9.549877e-01 -9.414227e-01 -9.553893e-01 -9.379213e-01 -9.557845e-01 -9.354543e-01 -9.560170e-01 -9.341419e-01 -9.556937e-01 -9.340767e-01 -9.545799e-01 -9.354568e-01 -9.524410e-01 -9.383434e-01 -9.488644e-01 -9.427331e-01 -9.435912e-01 -9.488068e-01 -9.367354e-01 -9.565413e-01 -9.282646e-01 -9.655460e-01 -9.186490e-01 -9.756875e-01 -9.087933e-01 -9.861772e-01 -8.992366e-01 -9.958589e-01 -8.907100e-01 -1.003664e+00 -8.819662e-01 -1.007542e+00 -8.632008e-01 -1.009045e+00 -7.732042e-01 -1.581445e+00 -2.300742e+00 -2.912202e-01 2.238203e-01 7.014283e-02 -8.246034e-03 -9.608430e-03 
-3.217977e-03 -1.471515e-04 3.790874e-03 2.602555e-02 9.121995e-02 9.619768e-02 -1.189993e-01 -7.632715e-02 -1.161196e-02 3.141670e-02 1.387732e-01 -2.037535e-02 -2.020054e+00 -1.854604e+00 -8.917703e-01 -8.900502e-01 -8.900596e-01 -8.899570e-01 -8.901466e-01 -8.908593e-01 -1.691214e+00 -1.822198e+00 -2.432435e-01 -2.718630e-02 -3.668472e-02 -3.542799e-02 -2.556276e-02 -1.981257e-02 -1.765598e-02 -1.586574e-02 -1.711731e-02 -1.562409e-02 -1.809115e-02 -1.611463e-02 -1.909440e-02 -1.665625e-02 -1.985241e-02 -1.721522e-02 -2.045640e-02 -1.795361e-02 -2.114002e-02 -1.913805e-02 -2.227265e-02 -2.117011e-02 -2.438727e-02 -2.455799e-02 -2.803692e-02 -2.958291e-02 -3.314403e-02 -3.522304e-02 -3.736620e-02 -3.731333e-02 -3.421297e-02 -1.571048e-02 6.950287e-02 2.775636e-01 2.503533e-01 -3.989890e-01 -4.767410e-01 9.307468e-02 -4.116824e-01 -3.704924e-01 3.927148e-01 4.858341e-02 1.503059e-01 1.633989e-01 -4.800457e-01 1.714462e-01 6.411250e-01 2.376419e-02 -2.208383e-01 -1.751497e-01 4.737132e-02 1.784345e-01 5.192288e-02 -1.053855e-02 -1.919191e-02 -2.133704e-02 -2.154423e-02 -2.258220e-02 -2.218239e-02 -2.200419e-02 -2.149389e-02 -2.079497e-02 -2.065633e-02 -1.966811e-02 -2.005387e-02 -1.879643e-02 -1.972275e-02 -1.816005e-02 -1.959020e-02 -1.769752e-02 -1.957103e-02 -1.736563e-02 -1.959458e-02 -1.714698e-02 -1.960137e-02 -1.704152e-02 -1.953644e-02 -1.706145e-02 -1.934750e-02 -1.722857e-02 -1.899071e-02 -1.756353e-02 -1.843515e-02 -1.807725e-02 -1.766267e-02 -1.875091e-02 -1.664852e-02 -1.948788e-02 -1.530198e-02 -2.001222e-02 -1.331654e-02 -1.965472e-02 -9.856812e-03 -1.700825e-02 -3.117405e-03 -9.893922e-03 9.583364e-03 3.313854e-03 3.381740e-02 -2.969595e-02 -6.604786e-02 5.322403e-02 2.367959e-02 -9.262775e-03 -1.339179e-02 -7.567124e-03 
-3.301613e-03 -2.059655e-03 -1.261464e-03 -3.359592e-04 5.028783e-03 1.306538e-02 4.826789e-03 6.099114e-03 1.952075e-02 4.791281e-02 1.067755e-01 3.843803e-02 -1.023709e+00 -9.372983e-01 -4.463804e-01 -4.453479e-01 -4.453459e-01 -4.453457e-01 -4.453464e-01 -4.457964e-01 -8.331308e-01 -8.971158e-01 -1.146260e-01 -1.560352e-02 -2.189797e-02 -1.725476e-02 -9.077017e-03 -3.626198e-03 -8.732656e-04 7.606571e-04 1.291847e-03 1.751069e-03 1.626124e-03 1.746000e-03 1.464010e-03 1.500878e-03 1.199731e-03 1.195340e-03 8.783935e-04 7.884921e-04 3.946600e-04 1.199354e-04 -4.656957e-04 -1.069979e-03 -1.988612e-03 -3.038432e-03 -4.308975e-03 -5.634172e-03 -6.764782e-03 -7.368941e-03 -6.684737e-03 -4.118205e-03 1.245913e-03 1.033359e-02 2.961548e-02 7.492013e-02 1.412512e-01 1.630195e-01 1.394033e-01 1.433932e-01 1.288920e-01 1.167676e-01 1.321153e-01 1.193195e-01 1.233512e-01 1.182047e-01 9.715122e-02 1.118300e-01 1.168706e-01 1.089921e-01 1.346517e-01 1.519921e-01 1.201985e-01 6.599352e-02 2.988783e-02 1.626091e-02 1.022245e-02 6.084719e-03 3.221241e-03 1.561046e-03 6.901126e-04 3.625774e-04 2.825777e-04 3.878776e-04 5.040581e-04 6.796404e-04 7.800463e-04 9.247453e-04 9.666751e-04 1.079162e-03 1.071066e-03 1.170509e-03 1.125031e-03 1.226818e-03 1.151916e-03 1.265277e-03 1.166376e-03 1.295633e-03 1.178222e-03 1.323113e-03 1.194335e-03 1.349776e-03 1.219410e-03 1.375920e-03 1.257898e-03 1.403853e-03 1.319550e-03 1.447758e-03 1.434598e-03 1.558754e-03 1.691107e-03 1.880153e-03 2.308900e-03 2.738302e-03 3.732600e-03 4.700298e-03 6.579911e-03 8.249526e-03 1.083513e-02 1.242392e-02 1.476165e-02 1.314283e-02 1.132808e-02 5.986185e-03 -2.782864e-03 -5.800592e-03 -5.568404e-03 -4.419902e-03 
-7.685990e-06 -5.025729e-06 -3.112541e-06 -1.764500e-06 -9.220311e-07 -1.343183e-06 -1.330866e-06 -1.824707e-06 -3.188859e-06 -5.048345e-06 -1.174337e-05 -2.375158e-05 1.469634e-04 5.689315e-05 1.751257e-07 4.218713e-10 -2.581949e-10 -6.976795e-10 -2.959697e-11 1.093202e-06 1.038574e-03 -6.584359e-06 -1.789289e-04 1.913344e-05 4.483825e-05 1.740714e-05 -1.826556e-06 -1.635444e-05 -2.638262e-05 -3.667012e-05 -4.727007e-05 -6.009382e-05 -7.612238e-05 -9.673485e-05 -1.235533e-04 -1.592005e-04 -2.064241e-04 -2.714906e-04 -3.599427e-04 -4.851345e-04 -6.581309e-04 -9.028084e-04 -1.236187e-03 -1.689512e-03 -2.272682e-03 -2.998857e-03 -3.826299e-03 -4.686196e-03 -5.405260e-03 -5.743320e-03 -5.323735e-03 -3.708423e-03 -4.703783e-04 4.611638e-03 1.165606e-02 2.159981e-02 3.515507e-02 4.809283e-02 5.428604e-02 5.592668e-02 5.611201e-02 5.430311e-02 5.064062e-02 4.763638e-02 4.559940e-02 4.222112e-02 3.968829e-02 3.715413e-02 3.490908e-02 3.606587e-02 3.847729e-02 3.794383e-02 3.165259e-02 2.276877e-02 1.592824e-02 1.091330e-02 6.938733e-03 3.928748e-03 1.862434e-03 5.903435e-04 -1.279011e-04 -4.611126e-04 -5.712677e-04 -5.520725e-04 -4.790564e-04 -3.905173e-04 -3.067024e-04 -2.380507e-04 -1.822507e-04 -1.414206e-04 -1.091251e-04 -8.618428e-05 -6.804970e-05 -5.491575e-05 -4.484972e-05 -3.697223e-05 -3.141394e-05 -2.626700e-05 -2.303383e-05 -1.923151e-05 -1.705634e-05 -1.398702e-05 -1.225715e-05 -9.716664e-06 -8.127721e-06 -6.000676e-06 -4.349484e-06 -2.561237e-06 -8.045300e-07 5.634332e-07 2.199856e-06 2.794866e-06 3.787077e-06 3.002304e-06 2.680399e-06 -9.665348e-09 -1.922050e-06 -6.218182e-06 -8.832739e-06 -1.299526e-05 -1.441321e-05 -1.693201e-05 -1.653262e-05 -1.624701e-05 -1.715520e-05 -1.456503e-05 -1.324457e-05 -9.964958e-06 
3.287215e-03 2.050011e-03 1.256243e-03 3.334737e-04 -5.031498e-03 -1.307410e-02 -4.828469e-03 -6.096463e-03 -1.952851e-02 -4.792340e-02 -1.068039e-01 -3.845647e-02 1.024156e+00 9.371264e-01 4.463801e-01 4.453479e-01 4.453459e-01 4.453457e-01 4.453464e-01 4.457998e-01 8.361481e-01 8.981245e-01 1.142252e-01 1.558639e-02 2.196943e-02 1.727581e-02 9.057561e-03 3.572355e-03 7.974448e-04 -8.635708e-04 -1.419164e-03 -1.913427e-03 -1.826630e-03 -2.001564e-03 -1.783947e-03 -1.912740e-03 -1.723850e-03 -1.880638e-03 -1.769381e-03 -1.977610e-03 -1.977241e-03 -2.268991e-03 -2.433650e-03 -2.869853e-03 -3.275730e-03 -3.923956e-03 -4.613344e-03 -5.451733e-03 -6.295601e-03 -7.048511e-03 -7.587581e-03 -7.625283e-03 -7.100739e-03 -5.702238e-03 -3.632183e-03 -7.528366e-04 2.562035e-03 6.096661e-03 8.884097e-03 1.072809e-02 1.184571e-02 1.249695e-02 1.242413e-02 1.257854e-02 1.252678e-02 1.244997e-02 1.264495e-02 1.279932e-02 1.310373e-02 1.364758e-02 1.353954e-02 1.283742e-02 1.121015e-02 8.898833e-03 6.404491e-03 4.003044e-03 1.929650e-03 3.090376e-04 -8.261296e-04 -1.555631e-03 -1.939359e-03 -2.110829e-03 -2.102080e-03 -2.043887e-03 -1.907067e-03 -1.811621e-03 -1.670008e-03 -1.608397e-03 -1.492180e-03 -1.475206e-03 -1.378049e-03 -1.399804e-03 -1.308814e-03 -1.363066e-03 -1.267998e-03 -1.350488e-03 -1.245307e-03 -1.352364e-03 -1.235507e-03 -1.362435e-03 -1.236923e-03 -1.376668e-03 -1.250132e-03 -1.392660e-03 -1.277930e-03 -1.411678e-03 -1.329502e-03 -1.447549e-03 -1.435111e-03 -1.551656e-03 -1.683719e-03 -1.868643e-03 -2.297154e-03 -2.727137e-03 -3.722630e-03 -4.696525e-03 -6.579456e-03 -8.260142e-03 -1.084913e-02 -1.244956e-02 -1.478632e-02 -1.317995e-02 -1.135414e-02 -6.009455e-03 2.753186e-03 5.773692e-03 5.543487e-03 4.400902e-03 
3.205270e-03 1.397744e-04 -3.790600e-03 -2.602755e-02 -9.126170e-02 -9.628611e-02 1.189717e-01 7.642058e-02 1.155247e-02 -3.140244e-02 -1.388717e-01 2.035365e-02 2.020401e+00 1.854615e+00 8.917623e-01 8.900459e-01 8.900608e-01 8.899597e-01 8.901555e-01 8.908733e-01 1.693243e+00 1.822040e+00 2.429782e-01 2.715490e-02 3.672379e-02 3.533441e-02 2.549109e-02 1.962136e-02 1.750051e-02 1.558024e-02 1.686443e-02 1.520911e-02 1.770183e-02 1.550698e-02 1.849930e-02 1.575295e-02 1.892858e-02 1.583747e-02 1.897869e-02 1.577527e-02 1.867465e-02 1.554597e-02 1.798798e-02 1.504485e-02 1.681328e-02 1.408429e-02 1.499873e-02 1.247118e-02 1.247532e-02 1.019783e-02 9.473518e-03 7.650580e-03 6.636916e-03 5.572283e-03 4.788626e-03 4.728211e-03 4.430568e-03 4.451706e-03 3.991516e-03 6.380428e-03 5.394594e-03 7.465986e-03 7.773962e-03 8.417411e-03 1.003771e-02 1.203205e-02 1.235933e-02 1.546704e-02 1.533262e-02 1.747662e-02 1.880812e-02 2.002691e-02 1.912554e-02 1.900250e-02 1.739925e-02 1.694910e-02 1.591893e-02 1.561851e-02 1.529464e-02 1.516047e-02 1.546092e-02 1.535686e-02 1.610876e-02 1.584694e-02 1.690294e-02 1.633779e-02 1.763163e-02 1.668930e-02 1.822006e-02 1.688056e-02 1.866965e-02 1.694738e-02 1.900119e-02 1.694103e-02 1.922543e-02 1.691238e-02 1.933696e-02 1.691134e-02 1.931867e-02 1.698729e-02 1.914697e-02 1.718540e-02 1.879839e-02 1.754294e-02 1.825628e-02 1.807992e-02 1.750828e-02 1.877784e-02 1.652915e-02 1.953779e-02 1.522426e-02 2.007908e-02 1.327897e-02 1.972553e-02 9.848886e-03 1.706680e-02 3.121908e-03 9.923751e-03 -9.584342e-03 -3.321482e-03 -3.383301e-02 2.964952e-02 6.605270e-02 -5.318647e-02 -2.367371e-02 9.251737e-03 1.337137e-02 7.549517e-03 
2.580953e-03 -3.339744e-03 -4.493669e-02 -2.067056e-01 -3.591219e-01 5.771798e-01 2.405680e+00 1.333608e+00 9.523587e-01 9.338778e-01 8.160262e-01 1.020510e+00 2.135839e+00 1.728998e+00 1.313849e+00 1.319362e+00 1.319908e+00 1.317280e+00 1.322269e+00 1.315827e+00 1.744827e+00 1.904276e+00 9.886130e-01 8.882287e-01 8.741453e-01 9.236987e-01 9.081083e-01 9.326766e-01 9.276334e-01 9.361405e-01 9.422539e-01 9.363451e-01 9.521221e-01 9.346948e-01 9.582239e-01 9.326671e-01 9.618813e-01 9.314697e-01 9.638757e-01 9.313143e-01 9.642804e-01 9.319104e-01 9.630691e-01 9.327994e-01 9.602562e-01 9.335312e-01 9.560057e-01 9.334927e-01 9.500938e-01 9.315236e-01 9.418503e-01 9.263922e-01 9.306517e-01 9.172159e-01 9.159917e-01 9.036251e-01 8.963725e-01 8.791891e-01 8.757771e-01 8.987242e-01 8.755225e-01 8.922095e-01 8.902585e-01 8.756619e-01 8.969587e-01 9.092326e-01 8.966525e-01 9.319623e-01 9.076359e-01 9.243536e-01 9.516838e-01 9.577126e-01 9.451341e-01 9.497468e-01 9.387377e-01 9.416630e-01 9.366749e-01 9.375212e-01 9.377027e-01 9.354225e-01 9.401327e-01 9.343516e-01 9.432694e-01 9.338919e-01 9.466595e-01 9.335145e-01 9.496541e-01 9.329978e-01 9.521870e-01 9.326620e-01 9.541906e-01 9.325574e-01 9.553495e-01 9.328139e-01 9.554862e-01 9.336779e-01 9.544103e-01 9.354435e-01 9.519491e-01 9.383925e-01 9.479002e-01 9.427499e-01 9.421159e-01 9.485767e-01 9.345622e-01 9.560346e-01 9.258751e-01 9.653911e-01 9.166519e-01 9.759531e-01 9.071685e-01 9.867791e-01 8.982489e-01 9.968889e-01 8.903327e-01 1.004746e+00 8.818645e-01 1.008463e+00 8.632995e-01 1.009803e+00 7.734187e-01 1.582216e+00 2.300934e+00 2.909712e-01 -2.239269e-01 -7.011284e-02 8.251884e-03 9.594622e-03 
-1.489127e-03 -3.898270e-02 -1.897039e-01 -3.130851e-01 1.968966e+00 4.489531e+00 4.277053e+00 3.090890e+00 2.306380e+00 2.485248e+00 2.197700e+00 2.292760e+00 2.372350e+00 2.334505e+00 2.152795e+00 2.314997e+00 2.213228e+00 2.324907e+00 2.210833e+00 2.269539e+00 2.310308e+00 2.350375e+00 2.152185e+00 2.218961e+00 2.330208e+00 2.379369e+00 2.465483e+00 2.450158e+00 2.538683e+00 2.482620e+00 2.582252e+00 2.500518e+00 2.605327e+00 2.507605e+00 2.610482e+00 2.510867e+00 2.610803e+00 2.521483e+00 2.613136e+00 2.537069e+00 2.613582e+00 2.551874e+00 2.609768e+00 2.562843e+00 2.602544e+00 2.572816e+00 2.598897e+00 2.586818e+00 2.600533e+00 2.600731e+00 2.601060e+00 2.608201e+00 2.597457e+00 2.610308e+00 2.593270e+00 2.609463e+00 2.584377e+00 2.591550e+00 2.570465e+00 2.612741e+00 2.565788e+00 2.600037e+00 2.568349e+00 2.569456e+00 2.564343e+00 2.588736e+00 2.552786e+00 2.593081e+00 2.546122e+00 2.564792e+00 2.580574e+00 2.584263e+00 2.569764e+00 2.569753e+00 2.574444e+00 2.562246e+00 2.584515e+00 2.557792e+00 2.596044e+00 2.554649e+00 2.606268e+00 2.552374e+00 2.616288e+00 2.555501e+00 2.626256e+00 2.559959e+00 2.628090e+00 2.563256e+00 2.624922e+00 2.572017e+00 2.619479e+00 2.584447e+00 2.609007e+00 2.598940e+00 2.595089e+00 2.615721e+00 2.579992e+00 2.634420e+00 2.565855e+00 2.652798e+00 2.553196e+00 2.667669e+00 2.541813e+00 2.673853e+00 2.530508e+00 2.672093e+00 2.529318e+00 2.671837e+00 2.542728e+00 2.667690e+00 2.561998e+00 2.655672e+00 2.587242e+00 2.639530e+00 2.617915e+00 2.622435e+00 2.658273e+00 2.615339e+00 2.718526e+00 2.622844e+00 2.774402e+00 3.239589e+00 6.143848e+00 3.957804e+00 -1.971220e-01 -4.029164e-01 -6.877108e-02 6.435262e-03 
2.068305e-04 -4.078832e-02 -1.818935e-01 -1.472993e-02 3.748851e+00 4.928839e+00 1.183871e-01 1.450637e+00 1.043379e+00 1.291338e+00 9.910999e-01 8.081411e-01 -3.142976e-01 -8.304286e-02 2.720255e-01 2.779162e-02 8.730148e-02 -1.701847e-02 1.453335e-01 1.564541e-01 -5.054734e-02 -1.304060e-01 8.699704e-01 9.970642e-01 1.218902e+00 1.143399e+00 1.320473e+00 1.212278e+00 1.374829e+00 1.252180e+00 1.404592e+00 1.281987e+00 1.415666e+00 1.299966e+00 1.407860e+00 1.312333e+00 1.398073e+00 1.333317e+00 1.395198e+00 1.358654e+00 1.393098e+00 1.380015e+00 1.388108e+00 1.393656e+00 1.381367e+00 1.404933e+00 1.383038e+00 1.422975e+00 1.396050e+00 1.444301e+00 1.412267e+00 1.462726e+00 1.429378e+00 1.483451e+00 1.455589e+00 1.512721e+00 1.489326e+00 1.543427e+00 1.513093e+00 1.517971e+00 1.505202e+00 1.513939e+00 1.469240e+00 1.510311e+00 1.441706e+00 1.451146e+00 1.427371e+00 1.399862e+00 1.392133e+00 1.378301e+00 1.329564e+00 1.329335e+00 1.342302e+00 1.335371e+00 1.372539e+00 1.349695e+00 1.398993e+00 1.357940e+00 1.419456e+00 1.362452e+00 1.434007e+00 1.365127e+00 1.445939e+00 1.373974e+00 1.456383e+00 1.383955e+00 1.454252e+00 1.391862e+00 1.444587e+00 1.407418e+00 1.431919e+00 1.427962e+00 1.412908e+00 1.450847e+00 1.390586e+00 1.475872e+00 1.369096e+00 1.501730e+00 1.352385e+00 1.524133e+00 1.341908e+00 1.537357e+00 1.337898e+00 1.532992e+00 1.338772e+00 1.511598e+00 1.358719e+00 1.487033e+00 1.403301e+00 1.452470e+00 1.458081e+00 1.403702e+00 1.520422e+00 1.347856e+00 1.586080e+00 1.290168e+00 1.659241e+00 1.242665e+00 1.764874e+00 1.190549e+00 2.002061e+00 6.797882e-01 3.700010e+00 5.320603e+00 -1.469610e-01 -5.921786e-01 -1.283453e-01 -4.814963e-03 
5.315693e-03 -1.500136e-02 -7.310199e-02 5.388648e-02 1.651751e+00 1.001492e+00 -3.031020e+00 -1.015511e+00 -7.794611e-01 -7.356040e-01 -8.067930e-01 -6.060129e-01 8.132891e-01 -4.754245e-01 -1.078347e+00 -1.185080e+00 -8.619180e-01 -1.208989e+00 -8.748145e-01 -1.314224e+00 -1.815554e-01 3.541132e-01 -4.924821e-01 -8.117906e-01 -7.015674e-01 -7.933433e-01 -6.971411e-01 -7.828976e-01 -7.043698e-01 -7.713905e-01 -7.106148e-01 -7.576826e-01 -7.180592e-01 -7.463862e-01 -7.287053e-01 -7.373546e-01 -7.376760e-01 -7.267259e-01 -7.423213e-01 -7.163468e-01 -7.448858e-01 -7.090634e-01 -7.467344e-01 -7.058696e-01 -7.476182e-01 -7.043997e-01 -7.442322e-01 -7.007701e-01 -7.356377e-01 -6.951042e-01 -7.243024e-01 -6.880505e-01 -7.100791e-01 -6.759760e-01 -6.887937e-01 -6.555267e-01 -6.585870e-01 -6.212410e-01 -6.323445e-01 -6.609338e-01 -6.367944e-01 -6.557628e-01 -6.697065e-01 -6.363591e-01 -6.911189e-01 -6.995669e-01 -6.933640e-01 -7.439525e-01 -7.155956e-01 -7.393102e-01 -7.912543e-01 -7.902845e-01 -7.680495e-01 -7.711581e-01 -7.429895e-01 -7.510402e-01 -7.254794e-01 -7.390691e-01 -7.145392e-01 -7.318091e-01 -7.078685e-01 -7.270695e-01 -7.034058e-01 -7.212812e-01 -7.004061e-01 -7.156909e-01 -7.024428e-01 -7.110999e-01 -7.076034e-01 -7.040270e-01 -7.140924e-01 -6.953049e-01 -7.226961e-01 -6.858952e-01 -7.319617e-01 -6.761167e-01 -7.399953e-01 -6.668453e-01 -7.449168e-01 -6.601416e-01 -7.457229e-01 -6.586530e-01 -7.419172e-01 -6.658711e-01 -7.337629e-01 -6.820212e-01 -7.164167e-01 -7.024742e-01 -6.883270e-01 -7.292110e-01 -6.552221e-01 -7.629998e-01 -6.195054e-01 -8.008668e-01 -5.849561e-01 -8.418387e-01 -5.533160e-01 -8.884716e-01 -5.193789e-01 -9.758624e-01 -4.171255e-01 -2.005152e+00 -1.380182e+00 1.752583e+00 3.907756e-02 -1.755705e-01 -2.466689e-02 9.389683e-03 
5.389916e-03 2.540459e-03 -5.572629e-03 1.829629e-02 1.879929e-01 -1.560615e-01 -1.204014e+00 -5.903766e-01 -4.117644e-01 -4.402747e-01 -4.532684e-01 -4.130813e-01 6.130145e-01 2.436996e+00 3.253852e+00 2.789198e+00 3.034149e+00 2.972583e+00 2.845378e+00 3.208987e+00 2.514959e+00 3.553607e-01 -3.936874e-01 -4.747130e-01 -4.285090e-01 -4.486049e-01 -4.343954e-01 -4.528944e-01 -4.439147e-01 -4.526303e-01 -4.497467e-01 -4.504414e-01 -4.538303e-01 -4.479020e-01 -4.568108e-01 -4.457158e-01 -4.589408e-01 -4.442079e-01 -4.602995e-01 -4.434856e-01 -4.609092e-01 -4.435298e-01 -4.608247e-01 -4.442560e-01 -4.601876e-01 -4.455614e-01 -4.592470e-01 -4.473295e-01 -4.582592e-01 -4.493023e-01 -4.572404e-01 -4.509382e-01 -4.560168e-01 -4.522486e-01 -4.555555e-01 -4.521978e-01 -4.475643e-01 -4.384124e-01 -4.406633e-01 -4.555392e-01 -4.411050e-01 -4.510640e-01 -4.480009e-01 -4.348258e-01 -4.477689e-01 -4.527167e-01 -4.447578e-01 -4.609623e-01 -4.393531e-01 -4.433662e-01 -4.639861e-01 -4.654455e-01 -4.553782e-01 -4.565098e-01 -4.517149e-01 -4.518338e-01 -4.490227e-01 -4.492240e-01 -4.488953e-01 -4.485375e-01 -4.495635e-01 -4.482049e-01 -4.501329e-01 -4.476891e-01 -4.505428e-01 -4.470053e-01 -4.510117e-01 -4.462777e-01 -4.516857e-01 -4.455541e-01 -4.525588e-01 -4.448217e-01 -4.535090e-01 -4.440883e-01 -4.543601e-01 -4.434441e-01 -4.549016e-01 -4.430646e-01 -4.548911e-01 -4.432075e-01 -4.540906e-01 -4.441846e-01 -4.522906e-01 -4.462887e-01 -4.493332e-01 -4.497361e-01 -4.451703e-01 -4.546234e-01 -4.399185e-01 -4.608938e-01 -4.339285e-01 -4.683983e-01 -4.279098e-01 -4.771107e-01 -4.230342e-01 -4.876670e-01 -4.208862e-01 -5.030647e-01 -4.226439e-01 -5.353731e-01 -4.143135e-01 -8.940943e-01 -1.025135e+00 2.325402e-02 3.905621e-02 1.501844e-02 1.271740e-02 8.449273e-03 
