# vtk DataFile Version 2.0
Comment goes here
ASCII

DATASET STRUCTURED_POINTS
FIELD FieldData 1
TIME 1 1 double
0.06000000
DIMENSIONS    128   16   1

ORIGIN    0.000   0.000   0.000
SPACING   0.0078125 0.015625   1.000

POINT_DATA   2048
SCALARS Omega double
LOOKUP_TABLE default

-5.564466e-07 4.402804e-07 -1.712238e-06 -1.371639e-06 -5.485976e-06 -1.851991e-04 -6.792746e-04 -2.359728e-04 6.838324e-04 2.592463e-04 -2.110641e-04 -3.285483e-04 -1.335339e-04 6.743426e-06 1.502077e-03 1.119258e-03 -2.105397e-03 -1.458283e-03 4.433626e-05 -6.026990e-04 7.869344e-04 2.549397e-05 -1.327094e-03 6.597413e-04 1.278333e-03 -1.021242e-03 3.535334e-04 1.833228e-03 -1.465848e-03 -2.262059e-03 1.834776e-03 6.299961e-05 -2.848860e-03 2.664799e-03 1.612188e-03 -4.198868e-03 2.687360e-03 1.560844e-03 -4.878789e-03 2.224781e-03 -7.928940e-04 -3.111841e-03 1.671938e-03 4.590728e-04 -8.319370e-04 1.641677e-03 -1.411425e-05 -2.879465e-04 1.278075e-03 2.109404e-03 7.565678e-03 1.152346e-02 1.403792e-02 3.532107e-03 -6.024079e-02 -2.455548e-01 -5.559806e-01 -8.422365e-01 -7.892377e-01 -4.178366e-01 -2.989883e-01 -2.167217e-01 -4.635725e-02 -1.947528e-01 -1.101329e-01 8.853386e-02 5.627253e-02 2.392623e-01 1.715501e-01 1.314695e-01 6.588381e-01 8.763575e-01 5.973423e-01 2.679065e-01 5.843910e-02 -2.289347e-02 -3.544088e-02 -2.895886e-02 -2.044896e-02 -1.266236e-02 -8.423924e-03 -5.895670e-03 -3.436741e-03 -3.881779e-03 -3.412469e-03 -4.046638e-04 -1.160154e-03 -1.726373e-03 2.623783e-03 -2.862179e-03 -2.524362e-03 4.615999e-03 -3.649117e-03 -1.515737e-04 4.816097e-03 -3.404061e-03 -2.534301e-03 3.193478e-03 -7.758146e-04 -1.201742e-03 1.946399e-03 -1.315382e-04 -2.051398e-03 4.962460e-04 9.878241e-04 -3.357119e-04 4.496466e-04 5.483940e-04 -1.433792e-03 -1.254025e-03 1.629952e-03 1.841717e-03 -7.957656e-04 -1.767425e-03 5.815869e-04 1.583357e-03 -3.102361e-04 -1.637510e-03 -4.156072e-04 1.217912e-03 9.589034e-04 -1.155727e-04 -1.643577e-04 8.939238e-05 1.728625e-05 4.038243e-06 -4.256020e-06 3.482033e-07 
-1.034490e-03 -3.169663e-03 -6.442981e-03 1.632851e-02 1.927026e-01 2.721167e-01 -7.751634e-01 -4.868405e-01 -2.232784e-01 -3.574430e-01 -2.394351e-01 -3.864609e-01 4.152520e-01 1.852307e+00 2.492839e+00 2.253205e+00 2.538773e+00 2.193898e+00 2.064534e+00 2.326131e+00 1.945024e+00 6.085033e-01 -2.773204e-01 -4.447589e-01 -2.673333e-01 -1.356028e-01 -2.189633e-01 -4.400686e-02 -1.660361e-01 -6.638781e-01 -2.925472e-01 1.709128e-01 -6.743400e-01 -7.076495e-01 3.141905e-01 -2.594340e-01 -5.640649e-01 2.889855e-01 -3.333683e-01 -5.821063e-01 -7.511170e-02 -4.207294e-01 -4.411406e-01 -1.643217e-01 -2.725905e-01 -1.138896e-01 -7.364783e-02 -3.814992e-01 -3.350877e-01 -3.003591e-01 -2.854125e-01 -2.794780e-01 -3.941221e-01 -3.256290e-01 -4.979185e-01 -1.206555e+00 -1.364255e+00 -1.001072e+00 -1.571401e+00 -1.602631e+00 -9.165883e-01 -1.126524e+00 -4.816417e-01 -1.148664e-01 -9.293733e-01 -8.372268e-01 -7.265638e-01 -5.697169e-01 4.114599e-02 -3.836863e-02 -6.575250e-01 -2.309175e-01 5.447498e-01 4.280077e-01 3.097286e-02 -2.370346e-01 -2.821261e-01 -3.620731e-01 -2.755838e-01 -2.407787e-01 -2.750659e-01 -1.656022e-01 -2.480603e-01 -4.048314e-01 -2.670840e-01 -2.874390e-01 -3.553138e-01 7.330968e-02 -1.543627e-01 -5.495291e-01 4.328668e-02 -4.563992e-01 -6.268636e-01 4.983424e-01 -7.522342e-02 -5.776319e-01 8.162108e-02 -3.102314e-01 -7.415274e-01 2.422255e-02 2.482005e-01 -1.687242e-01 -2.360177e-01 -2.514359e-01 -4.534118e-01 -1.926834e-01 7.121845e-02 -2.654297e-01 -5.371619e-01 -2.464636e-01 -3.060824e-02 -2.857502e-01 -3.701007e-01 -1.233579e-01 3.597746e-02 -3.146483e-01 -4.900571e-01 -3.480105e-01 4.101074e-02 -3.781172e-02 -8.938984e-02 -6.392251e-01 -6.342296e-01 1.805817e-01 4.614586e-02 -8.521860e-03 -6.350581e-03 -1.807963e-03 
-9.385455e-03 -3.034279e-02 -1.137483e-01 -1.593476e-01 1.081695e+00 1.786322e+00 -2.041922e+00 -1.078256e+00 -6.402751e-01 -7.509580e-01 -3.966078e-01 -5.521151e-01 1.066155e+00 -3.652019e-01 -6.176618e-01 -1.681151e-01 2.874288e-02 -7.932561e-01 -7.298358e-01 -1.451422e+00 -2.188349e-02 1.554398e+00 -9.824993e-03 -8.185060e-01 -5.241124e-01 -1.975598e-01 -4.002479e-01 5.732703e-02 -2.464908e-01 -1.829263e+00 -6.865630e-01 7.044282e-01 -1.746930e+00 -1.839222e+00 1.201355e+00 -6.721531e-01 -1.535280e+00 1.082938e+00 -6.004823e-01 -1.450299e+00 -2.644698e-01 -1.115051e+00 -8.831435e-01 -1.788897e-01 -7.712253e-01 -2.442102e-01 1.650312e-01 -7.336792e-01 -9.261473e-01 -7.549406e-01 -4.545560e-01 -4.464776e-01 -8.511674e-01 -5.317381e-01 -3.830292e-01 -1.999763e-01 8.905082e-01 1.228131e+00 -3.600975e-01 -8.878674e-01 1.473402e-01 -1.905389e-01 -1.939279e-01 1.443045e-01 -9.983446e-01 -8.892795e-01 -7.002495e-01 -1.503794e+00 -5.411191e-01 -4.135143e-01 -2.240491e+00 -2.465821e+00 -1.939944e+00 -1.339495e+00 -8.075873e-01 -1.036306e+00 -5.357980e-01 -4.707125e-01 -6.524739e-01 -2.624984e-01 -5.558846e-01 -5.950139e-01 -2.523746e-01 -9.298024e-01 -6.429979e-01 -3.416784e-01 -9.684229e-01 4.343251e-01 -8.496299e-02 -1.661777e+00 4.571846e-01 -1.111634e+00 -1.599940e+00 1.958975e+00 -1.740270e-01 -1.541361e+00 4.739051e-01 -7.899575e-01 -1.657256e+00 3.746867e-01 8.298632e-01 -4.032790e-01 -8.077468e-01 -3.816570e-01 -1.095821e+00 -2.854944e-01 4.963226e-01 -6.994262e-01 -1.403116e+00 -5.777523e-01 1.225198e-01 -5.678389e-01 -8.571297e-01 1.328782e-01 4.538551e-01 -7.247012e-01 -1.181599e+00 -8.480754e-01 4.462407e-01 3.969239e-02 1.042750e-01 -1.848145e+00 -8.391093e-01 1.591918e+00 -3.105014e-01 -3.092101e-01 -9.860776e-02 -2.314026e-02 
-2.366621e-02 -8.195918e-02 -3.276556e-01 -6.365864e-01 1.968330e+00 4.141553e+00 3.862067e-01 8.756239e-01 3.403472e-01 8.132992e-01 6.092776e-01 2.675628e-01 -5.863642e-01 -2.650136e-01 -2.876653e-01 -3.491152e-01 -3.251603e-01 -2.976812e-01 1.153792e-01 -6.320390e-02 -6.153123e-01 -7.981052e-01 1.140210e+00 9.885716e-01 8.603161e-01 8.712634e-01 9.466911e-01 9.870543e-01 9.733205e-01 1.000469e-01 7.004583e-01 1.214548e+00 4.097773e-01 4.775670e-01 1.611094e+00 3.772491e-01 2.802450e-01 1.451800e+00 1.142832e+00 6.658720e-01 2.306833e-01 3.343615e-01 1.243326e+00 1.181467e+00 2.343992e-01 6.251471e-01 1.494798e+00 1.201302e+00 2.981942e-01 5.379131e-01 1.369424e+00 1.363875e+00 9.741598e-01 8.491787e-01 5.708481e-01 1.888964e+00 2.169043e+00 2.784591e-02 3.881191e-01 1.390926e+00 6.095092e-01 2.113851e+00 2.215902e+00 1.125993e-01 8.942828e-01 1.957730e+00 1.410183e+00 1.588808e+00 1.619422e+00 1.972501e-01 1.930753e+00 3.209266e+00 1.319231e+00 1.162120e+00 1.197340e+00 -3.424010e-03 9.884072e-01 1.643598e+00 4.697777e-01 1.420645e+00 8.420093e-01 -8.497003e-02 1.581648e+00 7.711258e-01 5.680908e-01 1.650880e+00 2.955846e-01 1.143547e+00 1.414595e+00 -2.886191e-01 1.430148e+00 7.379180e-01 4.624757e-01 2.404813e+00 5.845834e-01 2.614092e-01 1.181316e+00 5.428364e-01 1.211953e+00 1.337460e+00 1.022205e+00 5.422928e-01 -1.725525e-01 1.255221e+00 6.829816e-01 1.071892e+00 1.356176e+00 4.232264e-01 3.834754e-01 6.057721e-01 1.057266e+00 9.791649e-01 7.247547e-01 1.744306e+00 1.516232e+00 7.291289e-01 7.057047e-01 5.606703e-01 1.453344e+00 8.450717e-01 1.552388e+00 -8.669038e-02 3.057358e+00 3.915451e+00 -1.239357e+00 -9.075384e-01 -2.615387e-01 -5.719554e-02 
-1.893968e-02 -6.317760e-02 -2.626054e-01 -6.507452e-01 5.651240e-01 2.198520e+00 3.062940e+00 2.319825e+00 1.124290e+00 1.792866e+00 1.001469e+00 1.146156e+00 1.510493e+00 1.508166e+00 1.179301e+00 1.271231e+00 1.066328e+00 1.173515e+00 1.166109e+00 1.279092e+00 1.234166e+00 9.122703e-01 1.459317e+00 2.045365e+00 1.567643e+00 1.144957e+00 1.529441e+00 9.379437e-01 1.340410e+00 2.488493e+00 1.628190e+00 3.112810e-01 2.745822e+00 2.948265e+00 8.421501e-02 1.213223e+00 2.296237e+00 6.896910e-02 2.009506e+00 2.634749e+00 4.947200e-01 1.777723e+00 2.516672e+00 1.491861e+00 1.203514e+00 9.384304e-01 1.365775e+00 2.254460e+00 1.485466e+00 1.554677e+00 2.132061e+00 2.127542e+00 2.189046e+00 1.425103e+00 3.555163e-01 8.693149e-01 1.635112e+00 1.711624e+00 1.687033e+00 1.348555e+00 6.693571e-01 1.240511e+00 2.098555e+00 1.366841e+00 1.317355e+00 2.106006e+00 1.861502e+00 1.929022e+00 2.591224e+00 1.212886e+00 1.370084e+00 2.517416e+00 2.198275e+00 2.446740e+00 2.346058e+00 1.320198e+00 1.718765e+00 2.352759e+00 1.252253e+00 1.849223e+00 1.598704e+00 5.998566e-01 2.051225e+00 2.024532e+00 1.391528e+00 2.234964e+00 1.539358e+00 5.980134e-01 1.628230e+00 1.817003e+00 8.790744e-01 2.250537e+00 2.604763e+00 -5.119973e-02 7.956144e-01 2.288141e+00 5.629637e-01 1.582163e+00 3.550902e+00 8.911684e-01 -8.913736e-02 1.041839e+00 7.649170e-01 1.843341e+00 2.160975e+00 1.502673e+00 7.404088e-01 1.318334e+00 2.229771e+00 1.356295e+00 9.212191e-01 1.783072e+00 1.877817e+00 1.691771e+00 9.878525e-01 1.710491e+00 2.307408e+00 1.676490e+00 9.327388e-01 7.881307e-01 1.569786e+00 2.356033e+00 4.695707e+00 2.074425e+00 -1.511714e+00 -8.816519e-01 -2.451112e-01 -5.123490e-02 
-4.731705e-03 -1.739246e-02 -7.830728e-02 -2.774139e-01 -6.132118e-01 -4.946305e-01 1.420510e+00 8.059094e-01 3.099642e-01 5.468695e-01 1.426592e-01 4.182862e-01 1.646559e+00 1.221193e+00 8.199117e-01 7.955013e-01 7.392687e-01 7.229807e-01 7.418150e-01 7.618938e-01 1.190591e+00 1.160814e+00 2.155950e-01 5.738689e-01 3.972119e-01 1.639682e-01 3.621213e-01 -4.504209e-03 2.454291e-01 1.225898e+00 4.985968e-01 -4.467187e-01 1.265185e+00 1.341135e+00 -7.268758e-01 3.929960e-01 1.035296e+00 -6.746162e-01 5.727985e-01 1.091516e+00 2.344903e-02 7.318530e-01 8.124054e-01 2.514320e-01 4.337052e-01 1.331336e-01 6.385329e-02 6.856805e-01 5.734155e-01 5.324212e-01 5.561853e-01 5.583433e-01 7.284484e-01 2.833919e-01 -3.927551e-01 -7.635790e-01 5.811354e-01 2.727673e+00 1.375673e+00 1.004335e-01 1.194064e+00 -2.377696e-01 -2.964425e-01 1.237435e+00 -1.947365e-01 3.182617e-02 8.795109e-01 -8.412431e-01 -7.364353e-02 6.434488e-01 -1.420116e+00 -1.464275e+00 -6.833928e-01 -4.864944e-01 1.913888e-01 4.510662e-01 4.251610e-01 5.664577e-01 3.609358e-01 3.579244e-01 4.262867e-01 1.925842e-01 4.182517e-01 7.010582e-01 4.091422e-01 4.934995e-01 5.945257e-01 -2.599903e-01 2.284241e-01 9.776282e-01 -2.032571e-01 8.311565e-01 1.160683e+00 -1.107739e+00 4.807146e-02 1.053111e+00 -2.947239e-01 5.216708e-01 1.427858e+00 -1.632423e-01 -6.169319e-01 2.199258e-01 3.255164e-01 4.170915e-01 8.120172e-01 2.923001e-01 -2.587563e-01 4.221965e-01 9.684609e-01 3.776667e-01 -4.548544e-02 4.841490e-01 6.379224e-01 1.552539e-01 -1.778037e-01 5.362847e-01 8.908099e-01 5.852714e-01 -1.811744e-01 -3.772602e-02 1.555982e-01 1.193048e+00 1.351385e+00 -5.464456e-01 -6.470100e-01 -2.549699e-01 -6.400845e-02 -1.193677e-02 
-6.501117e-04 -1.871752e-03 -1.045684e-02 -4.310815e-02 -1.290157e-01 -2.187640e-01 -7.744334e-02 -8.244029e-02 -1.206094e-01 -1.127315e-01 -2.013293e-01 -1.622821e-01 1.424730e+00 1.292479e+00 5.498091e-01 5.476531e-01 5.451778e-01 5.444908e-01 5.452404e-01 5.474912e-01 1.288353e+00 1.231074e+00 -2.935617e-01 -2.612458e-01 -1.465227e-01 -1.085005e-01 -9.138091e-02 -1.110446e-01 -9.435717e-02 -5.020333e-02 -9.083670e-02 -1.287996e-01 -4.820591e-02 -5.516854e-02 -1.456154e-01 -8.403546e-02 -6.943386e-02 -1.424878e-01 -7.611625e-02 -6.657507e-02 -1.073404e-01 -7.273807e-02 -7.828293e-02 -9.904453e-02 -8.624149e-02 -1.051394e-01 -1.073806e-01 -8.048349e-02 -8.481120e-02 -8.335322e-02 -8.712720e-02 -8.919368e-02 -8.941424e-02 -1.348353e-01 -2.437661e-01 -4.449629e-01 -4.547720e-01 -2.809289e-01 -5.340140e-01 -4.672230e-01 1.962713e-01 -1.239299e-01 -4.681893e-01 -1.242696e-01 -4.938419e-01 -3.230707e-01 2.353877e-01 -5.125072e-01 -7.161394e-01 6.004442e-03 2.220098e-01 2.582178e-01 -2.173964e-01 -6.411185e-01 -3.669872e-01 -1.479213e-01 -8.869065e-02 -7.591906e-02 -8.562321e-02 -9.097598e-02 -8.677455e-02 -9.549759e-02 -9.086961e-02 -7.702419e-02 -9.014638e-02 -9.274567e-02 -8.289638e-02 -1.184552e-01 -1.055220e-01 -6.167742e-02 -1.156055e-01 -8.369693e-02 -5.216521e-02 -1.593626e-01 -1.165272e-01 -5.682051e-02 -1.189563e-01 -9.349571e-02 -4.680093e-02 -1.151697e-01 -1.404107e-01 -1.003149e-01 -8.994017e-02 -9.410989e-02 -7.508936e-02 -9.721277e-02 -1.218871e-01 -9.271905e-02 -6.409740e-02 -9.093934e-02 -1.142987e-01 -9.224841e-02 -8.012636e-02 -1.006342e-01 -1.203326e-01 -8.841363e-02 -7.156835e-02 -7.902556e-02 -1.196593e-01 -1.114432e-01 -1.139328e-01 -5.926195e-02 -8.648230e-02 -1.847862e-01 -1.094762e-01 -3.784389e-02 -9.588200e-03 -1.965708e-03 
-7.500074e-05 -2.578552e-04 -1.131547e-03 -4.222494e-03 -1.307300e-02 -2.698518e-02 -2.669903e-02 -2.318738e-02 -2.475924e-02 -3.503028e-02 -7.635501e-02 -8.274213e-02 7.142305e-01 6.430946e-01 2.748259e-01 2.743289e-01 2.743271e-01 2.743271e-01 2.743287e-01 2.750265e-01 6.356460e-01 6.064846e-01 -1.655835e-01 -1.334737e-01 -5.584217e-02 -2.668675e-02 -1.970271e-02 -1.877266e-02 -1.844890e-02 -1.856236e-02 -1.898705e-02 -1.876179e-02 -1.863203e-02 -1.918319e-02 -1.906142e-02 -1.860420e-02 -1.929632e-02 -1.897848e-02 -1.851711e-02 -1.921340e-02 -1.892038e-02 -1.884326e-02 -1.915361e-02 -1.895105e-02 -1.875004e-02 -1.907722e-02 -1.908688e-02 -1.931153e-02 -1.933258e-02 -1.910067e-02 -1.931047e-02 -1.982807e-02 -2.139539e-02 -2.514448e-02 -3.259818e-02 -4.233684e-02 -2.711907e-02 1.282602e-02 -2.967070e-02 -8.648477e-02 -3.330690e-02 1.048309e-02 -2.433767e-03 -3.705036e-02 -1.037918e-01 -1.290011e-01 -9.329441e-02 -7.642483e-02 -8.947436e-02 -8.849080e-02 -1.169598e-01 -1.923757e-01 -2.191701e-01 -1.583588e-01 -7.268197e-02 -2.997059e-02 -1.870576e-02 -1.772170e-02 -1.815423e-02 -1.853785e-02 -1.851319e-02 -1.847389e-02 -1.871360e-02 -1.887727e-02 -1.897762e-02 -1.923413e-02 -1.905239e-02 -1.876114e-02 -1.915951e-02 -1.894142e-02 -1.872109e-02 -1.955891e-02 -1.877686e-02 -1.877607e-02 -1.943717e-02 -1.876718e-02 -1.869430e-02 -1.931695e-02 -1.895996e-02 -1.879230e-02 -1.908152e-02 -1.905197e-02 -1.872896e-02 -1.904964e-02 -1.896979e-02 -1.896468e-02 -1.888660e-02 -1.910863e-02 -1.882171e-02 -1.887553e-02 -1.898766e-02 -1.917460e-02 -1.888203e-02 -1.879117e-02 -1.905626e-02 -1.912424e-02 -1.906592e-02 -1.875583e-02 -1.913210e-02 -1.925259e-02 -2.080297e-02 -2.250086e-02 -2.547500e-02 -2.170164e-02 -1.040980e-02 -3.228489e-03 -6.913379e-04 -7.344807e-05 
1.150709e-06 5.299215e-07 7.591221e-07 9.260931e-08 4.924870e-07 -1.028112e-07 1.287818e-06 -2.168078e-07 -8.775276e-07 -2.216684e-06 -1.445902e-05 -2.610996e-04 9.556862e-03 7.142779e-04 -5.537994e-06 -2.290949e-07 -2.065491e-07 -3.086499e-07 -3.029901e-07 -3.229259e-05 -2.446008e-02 -6.265459e-02 6.649770e-04 1.679666e-04 9.126979e-06 6.286961e-06 -4.118357e-06 3.222133e-06 1.313924e-06 -4.368343e-06 -4.634012e-06 6.674902e-06 5.251941e-07 -8.394256e-06 1.482389e-06 -5.438032e-06 -1.231807e-05 1.347409e-05 3.025453e-06 -1.002864e-05 -1.928832e-06 -2.356006e-05 -2.008051e-05 -1.814235e-05 -2.511000e-05 -4.952296e-05 -7.790067e-05 -1.293772e-04 -1.607831e-04 -1.877250e-04 -2.429638e-04 -3.153920e-04 -4.805245e-04 -7.088358e-04 -7.380028e-04 6.463688e-04 6.298634e-03 1.297162e-02 7.503487e-03 -1.441689e-03 4.899042e-04 6.641218e-03 8.468047e-03 1.802895e-03 -6.294153e-03 -8.480493e-03 -6.399522e-03 -1.575109e-03 -2.286325e-03 -8.206303e-03 -1.507660e-02 -2.496043e-02 -2.590721e-02 -1.558810e-02 -5.592055e-03 -9.919856e-04 3.225717e-04 4.873184e-04 4.351722e-04 3.530241e-04 2.853251e-04 2.249568e-04 1.532976e-04 9.053033e-05 4.428400e-05 1.733247e-05 1.803017e-05 1.380186e-05 9.560803e-06 3.381438e-06 -1.032324e-05 -9.144590e-06 -2.862196e-06 -5.680927e-06 2.908080e-06 -3.399666e-06 -8.400074e-06 -2.843314e-06 -3.000729e-06 -5.615000e-07 -1.749336e-06 -2.899636e-06 -2.861139e-06 -1.574377e-06 7.724234e-08 2.506896e-06 -3.033612e-06 9.942538e-07 -5.065689e-06 -4.653967e-07 -8.280848e-07 4.150996e-07 5.036293e-06 -3.062271e-06 2.196816e-06 -1.929531e-06 4.629589e-06 4.065498e-07 -1.516925e-06 -7.061051e-07 -3.391427e-06 1.988996e-06 -6.820729e-06 -3.555337e-06 9.195698e-07 -1.054331e-07 1.464306e-06 7.768713e-07 
7.407864e-05 2.565766e-04 1.130681e-03 4.221070e-03 1.307082e-02 2.699424e-02 2.675410e-02 2.322787e-02 2.469115e-02 3.499355e-02 7.634756e-02 8.189294e-02 -6.934206e-01 -6.237405e-01 -2.748109e-01 -2.743291e-01 -2.743285e-01 -2.743290e-01 -2.743307e-01 -2.751338e-01 -7.113230e-01 -7.405119e-01 1.673859e-01 1.333957e-01 5.562103e-02 2.680600e-02 1.967514e-02 1.860847e-02 1.857031e-02 1.871974e-02 1.882270e-02 1.882195e-02 1.893656e-02 1.893299e-02 1.892002e-02 1.892457e-02 1.898911e-02 1.892070e-02 1.900450e-02 1.899304e-02 1.897153e-02 1.896454e-02 1.892627e-02 1.887546e-02 1.883082e-02 1.877476e-02 1.869415e-02 1.862125e-02 1.846903e-02 1.827725e-02 1.799568e-02 1.760445e-02 1.712167e-02 1.645101e-02 1.567712e-02 1.491972e-02 1.450724e-02 1.446690e-02 1.410105e-02 1.435705e-02 1.535186e-02 1.669476e-02 1.817619e-02 1.817753e-02 1.837578e-02 1.939965e-02 2.017276e-02 2.166888e-02 2.236511e-02 2.231435e-02 2.296279e-02 2.300557e-02 2.300948e-02 2.298553e-02 2.254753e-02 2.180574e-02 2.105698e-02 2.045550e-02 1.999010e-02 1.966824e-02 1.944750e-02 1.931569e-02 1.919058e-02 1.914329e-02 1.905917e-02 1.903476e-02 1.899454e-02 1.898005e-02 1.892615e-02 1.901442e-02 1.893299e-02 1.897445e-02 1.898559e-02 1.890826e-02 1.893656e-02 1.896909e-02 1.894187e-02 1.897148e-02 1.897781e-02 1.895898e-02 1.890278e-02 1.897945e-02 1.889818e-02 1.901307e-02 1.889632e-02 1.901443e-02 1.886122e-02 1.900591e-02 1.890078e-02 1.900772e-02 1.888183e-02 1.897996e-02 1.892151e-02 1.895862e-02 1.899284e-02 1.896041e-02 1.910532e-02 1.894327e-02 1.922046e-02 1.914120e-02 2.065469e-02 2.246984e-02 2.548574e-02 2.169786e-02 1.042048e-02 3.231069e-03 6.923718e-04 7.260745e-05 
6.549043e-04 1.873065e-03 1.045680e-02 4.310330e-02 1.290848e-01 2.191062e-01 7.772732e-02 8.507765e-02 1.295914e-01 1.220260e-01 2.002341e-01 1.598106e-01 -1.399147e+00 -1.285090e+00 -5.471860e-01 -5.468430e-01 -5.472933e-01 -5.481002e-01 -5.489463e-01 -5.506771e-01 -1.389951e+00 -1.458037e+00 2.986705e-01 2.867655e-01 1.567747e-01 1.061845e-01 8.742683e-02 8.512046e-02 7.808701e-02 8.230692e-02 9.107640e-02 9.744047e-02 1.023043e-01 1.037387e-01 9.713174e-02 8.679380e-02 8.892626e-02 8.241748e-02 7.943651e-02 9.040685e-02 9.020393e-02 9.414750e-02 9.898460e-02 9.325041e-02 8.887467e-02 8.737047e-02 8.284795e-02 8.411556e-02 8.685827e-02 9.124359e-02 9.879300e-02 9.987360e-02 9.461363e-02 8.349565e-02 7.222760e-02 6.591901e-02 6.292074e-02 6.297017e-02 6.445369e-02 7.071746e-02 7.585646e-02 7.703800e-02 8.010974e-02 7.807305e-02 8.150334e-02 8.976157e-02 9.496293e-02 1.033267e-01 1.079487e-01 1.107601e-01 1.185359e-01 1.217495e-01 1.204979e-01 1.155111e-01 1.114304e-01 1.064744e-01 1.036666e-01 1.022266e-01 1.004927e-01 9.934413e-02 9.675541e-02 9.423225e-02 9.310747e-02 9.288325e-02 9.293343e-02 9.845979e-02 9.974813e-02 9.710187e-02 9.657258e-02 9.167579e-02 8.775185e-02 9.491387e-02 8.816096e-02 8.819664e-02 9.031472e-02 8.482870e-02 8.669751e-02 9.715007e-02 9.850648e-02 9.827644e-02 9.528235e-02 9.238095e-02 8.822356e-02 9.687100e-02 1.008783e-01 1.030491e-01 1.026543e-01 1.004503e-01 9.632454e-02 9.623726e-02 9.988466e-02 9.852589e-02 9.479790e-02 8.840539e-02 9.736699e-02 9.479062e-02 9.741299e-02 8.300511e-02 9.122705e-02 8.007858e-02 1.005175e-01 5.925929e-02 8.858267e-02 1.848330e-01 1.094611e-01 3.787734e-02 9.607744e-03 1.976657e-03 
4.737050e-03 1.739059e-02 7.830239e-02 2.775322e-01 6.124855e-01 4.918170e-01 -1.434098e+00 -7.559187e-01 -9.223585e-02 -3.271804e-01 -1.800135e-01 -4.767717e-01 -1.498846e+00 -1.110315e+00 -7.616860e-01 -7.780576e-01 -7.882882e-01 -8.068482e-01 -8.265007e-01 -8.291849e-01 -1.457325e+00 -1.629183e+00 -1.743633e-01 6.176058e-02 -1.015040e-01 -2.576797e-01 -4.393821e-01 -5.009753e-01 -6.662134e-01 -5.885770e-01 -4.123539e-01 -2.633502e-01 -1.956481e-01 -1.407591e-01 -2.728214e-01 -5.031704e-01 -4.912755e-01 -6.130808e-01 -7.081440e-01 -4.698301e-01 -4.638091e-01 -3.795814e-01 -2.544991e-01 -3.749594e-01 -4.710658e-01 -5.034645e-01 -5.920782e-01 -5.796533e-01 -4.986770e-01 -3.733644e-01 -1.568561e-01 -9.219751e-02 -1.666116e-01 -3.334812e-01 -4.869513e-01 -4.951264e-01 -4.133429e-01 -3.070126e-01 -2.592997e-01 -2.458855e-01 -2.376282e-01 -3.169459e-01 -4.151766e-01 -5.280977e-01 -5.690481e-01 -5.370066e-01 -5.110002e-01 -4.719666e-01 -4.602604e-01 -4.563323e-01 -4.636771e-01 -4.604474e-01 -4.403383e-01 -4.240527e-01 -3.714642e-01 -3.761127e-01 -3.538095e-01 -3.205117e-01 -3.121790e-01 -3.191992e-01 -3.627588e-01 -4.070433e-01 -4.193884e-01 -4.190065e-01 -4.017224e-01 -2.786798e-01 -2.513013e-01 -3.058131e-01 -2.968797e-01 -4.364886e-01 -4.926811e-01 -3.620422e-01 -5.137012e-01 -4.783413e-01 -4.470268e-01 -5.712765e-01 -5.190943e-01 -3.157590e-01 -2.880380e-01 -2.684254e-01 -3.188546e-01 -4.076744e-01 -4.784765e-01 -3.245366e-01 -2.028395e-01 -1.729889e-01 -1.360626e-01 -2.294310e-01 -3.098527e-01 -3.251993e-01 -2.108224e-01 -2.517876e-01 -3.329017e-01 -4.824577e-01 -3.145169e-01 -3.361629e-01 -3.216169e-01 -5.679657e-01 -4.790304e-01 -6.281142e-01 -4.133328e-01 -1.195246e+00 -1.320847e+00 5.549003e-01 6.472161e-01 2.548273e-01 6.402833e-02 1.195610e-02 
1.893716e-02 6.317578e-02 2.627491e-01 6.528243e-01 -6.176984e-01 -2.299020e+00 -2.925547e+00 -2.213011e+00 -1.067067e+00 -1.498199e+00 -1.144481e+00 -1.323776e+00 -1.302399e+00 -1.367840e+00 -1.132227e+00 -1.346499e+00 -1.260792e+00 -1.410534e+00 -1.345302e+00 -1.315464e+00 -1.582595e+00 -1.491282e+00 -8.786920e-01 -5.543501e-01 -1.008550e+00 -1.136555e+00 -1.570865e+00 -1.634038e+00 -1.920075e+00 -1.458962e+00 -1.426607e+00 -1.412148e+00 -1.489240e+00 -1.132465e+00 -1.228863e+00 -1.556944e+00 -1.699812e+00 -1.911538e+00 -2.005048e+00 -1.684809e+00 -1.762194e+00 -1.583600e+00 -1.286189e+00 -1.519755e+00 -1.750901e+00 -1.772991e+00 -1.812021e+00 -1.955528e+00 -1.827532e+00 -1.502456e+00 -8.928615e-01 -9.449890e-01 -1.137001e+00 -1.373945e+00 -1.567637e+00 -1.465720e+00 -1.197862e+00 -9.863935e-01 -1.135545e+00 -1.278756e+00 -1.221732e+00 -1.392326e+00 -1.609035e+00 -1.796698e+00 -1.829999e+00 -1.738811e+00 -1.912581e+00 -1.843965e+00 -1.773449e+00 -1.557302e+00 -1.519984e+00 -1.473749e+00 -1.489544e+00 -1.621200e+00 -1.336173e+00 -1.459644e+00 -1.419096e+00 -1.213720e+00 -1.229122e+00 -1.492048e+00 -1.635648e+00 -1.643650e+00 -1.685184e+00 -1.505122e+00 -1.477017e+00 -1.354076e+00 -1.486283e+00 -1.663885e+00 -1.411984e+00 -1.438990e+00 -1.641818e+00 -1.493064e+00 -1.810251e+00 -1.702053e+00 -1.632065e+00 -1.636265e+00 -1.582426e+00 -1.655566e+00 -1.585347e+00 -1.391709e+00 -1.361625e+00 -1.543870e+00 -1.607825e+00 -1.574455e+00 -1.316229e+00 -1.214322e+00 -9.476307e-01 -1.309788e+00 -1.467462e+00 -1.497460e+00 -1.148293e+00 -1.118243e+00 -1.274441e+00 -1.800316e+00 -1.763942e+00 -1.580553e+00 -1.384520e+00 -1.599328e+00 -1.948580e+00 -2.081139e+00 -1.885527e+00 -2.148366e+00 -4.619495e+00 -1.962449e+00 1.529879e+00 8.780327e-01 2.448565e-01 5.122296e-02 
2.367097e-02 8.197026e-02 3.278548e-01 6.391210e-01 -2.048066e+00 -4.287567e+00 -1.298596e-01 -8.428544e-01 -8.443317e-01 -9.474122e-01 -7.291892e-01 -3.849337e-01 6.797601e-01 1.758142e-01 6.437431e-02 2.057336e-01 2.294055e-02 8.853311e-02 1.650145e-01 3.917586e-01 5.012846e-01 6.809751e-01 -3.344624e-01 -3.813067e-01 -7.897329e-01 -5.949826e-01 -8.056999e-01 -7.188010e-01 -7.270702e-01 -1.993473e-01 -6.319037e-01 -1.007258e+00 -1.311211e+00 -8.995457e-01 -6.956776e-01 -5.834777e-01 -8.365406e-01 -8.433204e-01 -7.242073e-01 -8.679782e-01 -1.006178e+00 -9.555544e-01 -8.240674e-01 -8.695483e-01 -9.652462e-01 -9.145352e-01 -7.309347e-01 -9.893916e-01 -1.004837e+00 -8.348913e-01 -4.619931e-01 -7.202495e-01 -8.188930e-01 -7.416385e-01 -6.338249e-01 -4.582873e-01 -2.733558e-01 -2.440383e-01 -6.226320e-01 -8.769659e-01 -8.047553e-01 -8.519529e-01 -9.156833e-01 -9.029051e-01 -8.421787e-01 -7.754545e-01 -1.116056e+00 -1.104615e+00 -1.019415e+00 -6.908051e-01 -5.956869e-01 -5.165046e-01 -5.955285e-01 -8.560558e-01 -5.608730e-01 -7.516107e-01 -7.519656e-01 -5.254182e-01 -5.746469e-01 -9.706698e-01 -1.076416e+00 -9.707358e-01 -1.002435e+00 -7.204759e-01 -7.263947e-01 -8.661777e-01 -1.149178e+00 -1.280302e+00 -9.094487e-01 -5.692396e-01 -7.427049e-01 -8.568239e-01 -9.482649e-01 -8.736874e-01 -8.495628e-01 -5.153389e-01 -5.777585e-01 -1.238448e+00 -1.203998e+00 -9.551985e-01 -7.730566e-01 -8.164889e-01 -7.264687e-01 -1.089097e+00 -1.014223e+00 -9.376278e-01 -6.172627e-01 -9.353341e-01 -9.587423e-01 -9.716315e-01 -7.279718e-01 -5.761293e-01 -5.946171e-01 -1.022809e+00 -1.410226e+00 -1.071505e+00 -7.957857e-01 -4.743066e-01 -1.263618e+00 -1.075305e+00 -1.355178e+00 4.140636e-01 -3.019230e+00 -3.764990e+00 1.268058e+00 9.030216e-01 2.613892e-01 5.720851e-02 
9.383054e-03 3.034114e-02 1.138305e-01 1.603066e-01 -1.109842e+00 -1.835983e+00 2.156319e+00 1.027820e+00 1.746002e-01 4.239155e-01 3.999829e-01 5.743418e-01 -1.184953e+00 1.185660e-01 5.518587e-01 7.504339e-01 5.674077e-01 8.961882e-01 5.686078e-01 9.324858e-01 -1.016474e-01 -1.007669e+00 2.718498e-01 2.454356e-01 1.797443e-01 4.234060e-01 5.506645e-01 6.779633e-01 8.734626e-01 9.894224e-01 5.968632e-01 2.762785e-01 7.277609e-02 1.632532e-01 4.047648e-01 7.387906e-01 6.283911e-01 7.771581e-01 9.473452e-01 5.911436e-01 5.332149e-01 4.446404e-01 3.428030e-01 4.718044e-01 5.647575e-01 6.210703e-01 8.084078e-01 6.940355e-01 5.928827e-01 5.019299e-01 3.785003e-01 2.029531e-01 2.659652e-01 5.113755e-01 7.519783e-01 8.356137e-01 8.013648e-01 6.713632e-01 4.543697e-01 3.417161e-01 3.555425e-01 4.332876e-01 5.259880e-01 6.648921e-01 7.269145e-01 7.062902e-01 5.383089e-01 4.875266e-01 5.003233e-01 6.133967e-01 6.601778e-01 6.935874e-01 6.375507e-01 5.183771e-01 5.665891e-01 5.022356e-01 4.802089e-01 5.248591e-01 4.995054e-01 3.592405e-01 3.779944e-01 4.729965e-01 4.789814e-01 5.854366e-01 5.607413e-01 3.551059e-01 2.126721e-01 2.321280e-01 3.612209e-01 6.659357e-01 6.679614e-01 4.652147e-01 6.168683e-01 6.043360e-01 5.706396e-01 8.575207e-01 7.632409e-01 2.625896e-01 2.388906e-01 3.082072e-01 4.402584e-01 5.352956e-01 6.593627e-01 3.269583e-01 2.051754e-01 1.914331e-01 2.729995e-01 2.622970e-01 3.634474e-01 3.675027e-01 3.260389e-01 4.259254e-01 5.295784e-01 5.470450e-01 1.981143e-01 3.476965e-01 4.364888e-01 8.665538e-01 4.477309e-01 7.079245e-01 2.932110e-01 1.977566e+00 8.183472e-01 -1.553422e+00 3.180384e-01 3.075350e-01 9.855940e-02 2.312894e-02 
1.025899e-03 3.167706e-03 6.437202e-03 -1.629020e-02 -1.930632e-01 -2.725168e-01 7.839310e-01 4.624444e-01 1.112357e-01 2.493867e-01 2.559619e-01 4.094397e-01 -4.731270e-01 -1.927324e+00 -2.481429e+00 -2.027279e+00 -2.303786e+00 -2.173196e+00 -2.160534e+00 -2.498070e+00 -1.949857e+00 -3.838241e-01 2.704542e-01 1.453577e-01 1.278397e-01 1.841260e-01 2.590059e-01 2.963217e-01 3.725501e-01 3.481041e-01 2.529212e-01 1.801890e-01 1.398848e-01 1.216839e-01 1.889464e-01 3.031679e-01 2.926438e-01 3.520084e-01 4.010785e-01 2.817138e-01 2.788341e-01 2.370919e-01 1.819435e-01 2.377281e-01 2.872725e-01 3.019993e-01 3.512213e-01 3.403382e-01 3.048721e-01 2.488324e-01 1.547418e-01 1.241343e-01 1.650024e-01 2.549928e-01 3.358779e-01 3.360946e-01 2.652197e-01 1.617392e-01 1.162624e-01 1.567942e-01 1.748041e-01 2.182190e-01 2.844730e-01 3.163036e-01 3.306074e-01 3.362498e-01 3.087347e-01 3.019495e-01 2.903247e-01 2.884577e-01 3.560658e-01 3.710472e-01 3.047929e-01 2.442933e-01 2.050676e-01 2.055579e-01 2.037086e-01 1.970377e-01 1.985635e-01 1.993702e-01 2.227871e-01 2.469032e-01 2.549144e-01 2.592391e-01 2.514805e-01 1.907796e-01 1.736417e-01 1.991192e-01 2.007185e-01 2.719016e-01 2.970168e-01 2.327184e-01 3.034618e-01 2.907257e-01 2.733523e-01 3.403050e-01 3.122569e-01 2.053419e-01 1.913305e-01 1.863425e-01 2.138323e-01 2.552411e-01 2.923977e-01 2.099554e-01 1.548456e-01 1.380359e-01 1.297294e-01 1.650405e-01 2.085175e-01 2.104255e-01 1.643496e-01 1.816240e-01 2.250261e-01 2.877538e-01 2.031875e-01 2.173624e-01 2.129367e-01 3.405978e-01 2.783954e-01 3.591393e-01 2.185924e-01 6.472098e-01 6.238850e-01 -1.835107e-01 -4.649009e-02 8.537046e-03 6.338160e-03 1.796548e-03 
