# vtk DataFile Version 2.0
Comment goes here
ASCII

DATASET STRUCTURED_POINTS
FIELD FieldData 1
TIME 1 1 double
0.34000000
DIMENSIONS    128   16   1

ORIGIN    0.000   0.000   0.000
SPACING   0.0078125 0.015625   1.000

POINT_DATA   2048
SCALARS Omega double
LOOKUP_TABLE default

3.947810e-05 1.723593e-05 5.146947e-06 5.199326e-06 1.685878e-05 -1.301289e-05 -1.867636e-05 -4.484420e-05 -2.753477e-05 -4.016723e-05 -3.873547e-05 -4.186780e-05 -2.353701e-05 -7.618672e-05 -9.762028e-05 -1.100911e-04 -1.438365e-04 -9.017016e-05 -1.458570e-04 -8.657426e-05 -6.638282e-05 -5.107758e-05 -9.893087e-05 -4.466173e-05 -7.939491e-05 -3.706001e-05 -7.622712e-05 -3.773532e-05 -9.362748e-05 -3.563486e-05 -1.001703e-04 -3.669138e-05 -1.197679e-04 -5.812052e-05 -1.646504e-04 -8.852131e-05 -1.906885e-04 -9.333497e-05 -1.740131e-04 -5.681233e-05 -8.492002e-05 9.871628e-05 2.025546e-04 4.993491e-04 7.784906e-04 1.125130e-03 1.353633e-03 1.080528e-03 -1.180218e-04 -3.361054e-03 -9.161928e-03 -1.865267e-02 -3.098809e-02 -4.352785e-02 -4.638613e-02 -3.984959e-02 -8.547017e-02 -1.913660e-01 -1.131433e-01 -5.518091e-03 -9.742445e-02 -2.350280e-02 -2.800273e-02 -1.538751e-01 1.866536e-02 4.904516e-02 1.004488e-02 1.255584e-01 -3.304271e-02 -2.649570e-02 2.570416e-01 2.099987e-01 9.199141e-02 8.831690e-02 6.932614e-02 4.542035e-02 2.640823e-02 1.259478e-02 2.695725e-03 -2.401414e-03 -4.705380e-03 -4.531400e-03 -3.949576e-03 -2.728532e-03 -2.031747e-03 -1.159051e-03 -8.282226e-04 -3.374923e-04 -2.554717e-04 9.123582e-06 -2.353805e-05 1.257730e-04 5.761533e-05 1.423631e-04 7.111628e-05 1.180980e-04 5.990931e-05 8.300617e-05 4.903984e-05 5.901593e-05 4.667544e-05 4.359124e-05 4.341800e-05 2.563432e-05 4.037747e-05 1.358579e-05 3.395409e-05 4.941820e-06 3.998508e-05 7.961112e-06 4.214929e-05 5.533918e-07 2.923312e-05 -1.073388e-05 2.379126e-05 -8.088125e-06 3.486071e-05 1.540620e-05 6.350313e-05 4.680424e-05 1.005460e-04 6.131641e-05 1.494077e-04 1.379567e-04 1.271606e-04 1.265445e-04 1.039047e-04 7.068113e-05 
-7.395644e-03 -5.089361e-03 -9.569318e-03 -5.224963e-02 -2.112204e-02 9.840889e-01 6.414676e-01 9.052011e-02 4.330267e-01 2.607511e-01 3.808043e-01 4.937291e-02 -3.605042e-01 -1.213378e+00 -1.680369e+00 -1.690318e+00 -1.458816e+00 -1.650623e+00 -1.454747e+00 -1.553008e+00 -1.326341e+00 -2.754885e-01 1.250406e-01 3.553419e-01 3.340523e-01 3.677960e-01 3.266906e-01 3.627061e-01 3.254367e-01 3.584715e-01 3.248814e-01 3.549338e-01 3.256985e-01 3.510725e-01 3.258984e-01 3.461839e-01 3.272549e-01 3.429800e-01 3.306875e-01 3.405483e-01 3.341760e-01 3.382952e-01 3.379054e-01 3.357971e-01 3.412514e-01 3.328039e-01 3.416145e-01 3.263316e-01 3.372882e-01 3.160541e-01 3.268503e-01 2.999862e-01 3.114903e-01 3.016136e-01 3.643092e-01 2.004584e-01 -9.723382e-01 -2.584888e+00 -8.857046e-01 3.593290e-01 -1.702887e+00 -3.769336e-01 -3.699339e-01 -2.761995e+00 -2.796060e-01 -3.007820e-01 -1.364950e+00 9.805087e-01 -1.943647e+00 -2.311111e+00 2.303400e+00 1.233579e+00 -5.593558e-01 8.931810e-02 3.499381e-01 3.504597e-01 3.313367e-01 3.323278e-01 3.227397e-01 3.298775e-01 3.219002e-01 3.322769e-01 3.265521e-01 3.366580e-01 3.317125e-01 3.396377e-01 3.373704e-01 3.433606e-01 3.423332e-01 3.452365e-01 3.454888e-01 3.475254e-01 3.491998e-01 3.498529e-01 3.497468e-01 3.495615e-01 3.473224e-01 3.486149e-01 3.436996e-01 3.486658e-01 3.386586e-01 3.472845e-01 3.312988e-01 3.474394e-01 3.267418e-01 3.503232e-01 3.222155e-01 3.519560e-01 3.191961e-01 3.553939e-01 3.194884e-01 3.587841e-01 3.229902e-01 3.605386e-01 3.276944e-01 3.592410e-01 3.365035e-01 3.603807e-01 3.524885e-01 3.687783e-01 3.841396e-01 5.044513e-01 7.685150e-01 1.899669e-01 -2.926069e-02 -1.329064e-02 -8.333570e-03 -8.083877e-03 
-6.766567e-03 8.966174e-03 -2.163923e-02 -3.793419e-01 -9.900020e-01 2.061384e+00 1.349193e+00 -3.437808e-01 7.831706e-01 2.605381e-01 6.321721e-01 1.056627e-01 4.927580e-01 3.304530e-01 1.019524e+00 7.928474e-01 8.626349e-01 7.622641e-01 8.688414e-01 8.423989e-01 4.398170e-01 5.676432e-01 2.310078e-01 4.663652e-01 4.558057e-01 5.132247e-01 4.450129e-01 5.169123e-01 4.419103e-01 5.186346e-01 4.255706e-01 5.019115e-01 4.076836e-01 4.987684e-01 4.124044e-01 4.971879e-01 4.083726e-01 4.783758e-01 4.039577e-01 4.696128e-01 4.233709e-01 4.752523e-01 4.445611e-01 4.660569e-01 4.568970e-01 4.576194e-01 4.747647e-01 4.500017e-01 4.846921e-01 4.395786e-01 5.062707e-01 4.708825e-01 5.755616e-01 5.655385e-01 7.336651e-01 4.534831e-01 -9.479046e-01 -2.737433e+00 -6.465731e-01 9.563442e-01 -1.301332e+00 1.877895e-02 8.917938e-01 -1.317676e+00 7.133927e-01 4.572615e-01 -1.186384e+00 1.424324e+00 -1.645995e-01 -9.555156e-01 1.607136e+00 -1.612567e-01 -1.156675e+00 6.801996e-02 4.450747e-01 4.899368e-01 4.297323e-01 4.662442e-01 4.158283e-01 4.665659e-01 4.286205e-01 4.765858e-01 4.408243e-01 4.646980e-01 4.378645e-01 4.527115e-01 4.595518e-01 4.610843e-01 4.775100e-01 4.460353e-01 4.714307e-01 4.321775e-01 4.868821e-01 4.499608e-01 5.060982e-01 4.527396e-01 4.877025e-01 4.355849e-01 4.654007e-01 4.465799e-01 4.550134e-01 4.578047e-01 4.225811e-01 4.647419e-01 3.979077e-01 4.887437e-01 3.741698e-01 5.036950e-01 3.529871e-01 5.277431e-01 3.542271e-01 5.477628e-01 3.519604e-01 5.354985e-01 3.508905e-01 5.189644e-01 3.922375e-01 5.138147e-01 4.531339e-01 4.864774e-01 5.168740e-01 6.440943e-01 1.617928e+00 -5.500115e-01 -8.900413e-01 -3.370471e-02 2.829001e-02 -1.672803e-03 
2.959247e-04 2.914107e-02 -2.701121e-02 -8.796210e-01 -3.214369e+00 -1.234313e+00 -3.920299e-02 -1.300222e+00 -6.225177e-01 -9.020616e-01 -6.222171e-01 -4.797747e-01 -4.212887e-01 -2.114872e-01 -4.868584e-01 -2.722151e-01 -3.823274e-01 -2.424315e-01 -3.906095e-01 -4.053066e-01 -1.966412e-01 -6.221152e-01 -4.725523e-01 -7.873417e-01 -7.436422e-01 -8.836525e-01 -8.176880e-01 -8.703237e-01 -8.307660e-01 -8.428015e-01 -8.787336e-01 -8.706481e-01 -9.391201e-01 -8.546997e-01 -9.273789e-01 -8.255126e-01 -9.494150e-01 -8.590925e-01 -9.879274e-01 -8.685816e-01 -9.565967e-01 -8.364102e-01 -9.211371e-01 -8.448688e-01 -9.080308e-01 -8.470208e-01 -8.578218e-01 -8.263845e-01 -8.103553e-01 -8.134032e-01 -7.275370e-01 -6.931964e-01 -5.245254e-01 -5.042130e-01 -3.177831e-01 -8.364403e-02 1.147913e+00 2.263049e+00 1.074684e+00 1.548503e-01 1.532486e+00 5.684817e-01 2.650956e-01 1.707452e+00 2.665712e-01 1.306470e-01 1.102109e+00 -7.821340e-01 7.405806e-01 1.122212e+00 -1.623946e+00 -6.073183e-01 2.939474e-01 -2.868906e-01 -6.718120e-01 -6.526326e-01 -8.000233e-01 -7.586690e-01 -8.887765e-01 -8.131707e-01 -8.833949e-01 -8.144128e-01 -8.788908e-01 -8.740777e-01 -9.161543e-01 -9.246893e-01 -8.881513e-01 -9.251600e-01 -8.690259e-01 -9.831661e-01 -9.085192e-01 -1.042065e+00 -8.897990e-01 -1.008747e+00 -8.365295e-01 -9.994829e-01 -8.717281e-01 -1.043389e+00 -9.099618e-01 -1.011329e+00 -9.031483e-01 -9.667177e-01 -9.444794e-01 -9.453978e-01 -9.852168e-01 -8.935140e-01 -1.024313e+00 -8.577690e-01 -1.067583e+00 -8.078821e-01 -1.069775e+00 -7.687739e-01 -1.105554e+00 -8.112538e-01 -1.143937e+00 -8.406428e-01 -1.083058e+00 -8.495836e-01 -1.015437e+00 -9.761000e-01 -1.012944e+00 -1.158327e+00 -2.650487e-01 -3.152387e+00 -2.539129e+00 -3.736878e-02 1.251386e-01 2.463637e-02 
-1.234771e-02 2.368572e-02 7.013494e-02 -3.636769e-01 -2.511781e+00 -4.603215e+00 -2.051702e+00 -1.195387e+00 -1.903988e+00 -1.515061e+00 -1.799513e+00 -1.508657e+00 -1.762270e+00 -1.558078e+00 -1.722607e+00 -1.601617e+00 -1.718282e+00 -1.648416e+00 -1.670016e+00 -1.675704e+00 -1.678148e+00 -1.653075e+00 -1.475763e+00 -1.727139e+00 -1.556714e+00 -1.796538e+00 -1.638431e+00 -1.799362e+00 -1.657866e+00 -1.774252e+00 -1.695074e+00 -1.785796e+00 -1.742765e+00 -1.764458e+00 -1.736932e+00 -1.729507e+00 -1.757353e+00 -1.743322e+00 -1.795821e+00 -1.743083e+00 -1.785895e+00 -1.714332e+00 -1.773247e+00 -1.711910e+00 -1.773818e+00 -1.702835e+00 -1.738776e+00 -1.668499e+00 -1.696509e+00 -1.639919e+00 -1.629824e+00 -1.541600e+00 -1.471338e+00 -1.374370e+00 -1.277333e+00 -1.209712e+00 -1.317520e+00 -1.353052e+00 -8.039965e-01 -9.761125e-01 -1.222477e+00 -9.047223e-01 -1.322425e+00 -1.772730e+00 -1.131327e+00 -1.335074e+00 -1.153919e+00 -8.588688e-01 -1.965713e+00 -1.777894e+00 -3.787439e-01 -3.179595e-01 -1.343525e+00 -1.401777e+00 -1.514597e+00 -1.529735e+00 -1.641882e+00 -1.638217e+00 -1.719176e+00 -1.692937e+00 -1.723990e+00 -1.703011e+00 -1.730969e+00 -1.752690e+00 -1.766920e+00 -1.793499e+00 -1.762116e+00 -1.805419e+00 -1.762963e+00 -1.852508e+00 -1.798886e+00 -1.902654e+00 -1.797151e+00 -1.889657e+00 -1.760789e+00 -1.883789e+00 -1.775446e+00 -1.911737e+00 -1.788636e+00 -1.889948e+00 -1.766642e+00 -1.853343e+00 -1.770678e+00 -1.837034e+00 -1.785298e+00 -1.808170e+00 -1.800010e+00 -1.785061e+00 -1.823522e+00 -1.757697e+00 -1.830542e+00 -1.737313e+00 -1.871638e+00 -1.767233e+00 -1.916487e+00 -1.775306e+00 -1.900635e+00 -1.768596e+00 -1.887485e+00 -1.832125e+00 -1.867280e+00 -2.070796e+00 -2.601572e+00 -3.413853e+00 -2.058703e+00 -9.234489e-02 7.690518e-02 2.637887e-03 
-3.024746e-02 -1.433969e-02 3.384711e-02 7.835214e-02 -3.087205e-01 -2.286572e+00 -1.353828e+00 -4.375607e-01 -1.041571e+00 -6.638526e-01 -9.036978e-01 -8.764629e-01 -1.058236e+00 -9.920974e-01 -8.660962e-01 -8.600389e-01 -8.675320e-01 -8.626998e-01 -8.643486e-01 -8.673044e-01 -9.381912e-01 -9.439385e-01 -9.576510e-01 -8.668389e-01 -7.438915e-01 -8.310186e-01 -7.614656e-01 -8.380739e-01 -7.699785e-01 -8.348872e-01 -7.763911e-01 -8.325288e-01 -7.837836e-01 -8.268838e-01 -7.861018e-01 -8.178598e-01 -7.905945e-01 -8.137545e-01 -7.991806e-01 -8.104695e-01 -8.054062e-01 -8.061769e-01 -8.115858e-01 -8.023712e-01 -8.174781e-01 -7.977301e-01 -8.174953e-01 -7.885384e-01 -8.147331e-01 -7.829947e-01 -8.142752e-01 -7.783766e-01 -7.988539e-01 -7.194545e-01 -6.499677e-01 -8.753638e-01 -2.939020e+00 -5.131334e+00 -2.770765e+00 -8.501440e-01 -2.997112e+00 -2.022655e+00 -7.181221e-01 -2.715452e+00 -1.193861e+00 -1.011740e+00 -3.000310e+00 -4.752079e-01 -1.258576e+00 -2.270823e+00 -4.449334e-01 -2.167978e+00 -2.944192e+00 -1.312461e+00 -7.411434e-01 -7.473541e-01 -7.839271e-01 -8.020328e-01 -8.007611e-01 -8.103587e-01 -8.017902e-01 -8.124866e-01 -8.051044e-01 -8.174533e-01 -8.108772e-01 -8.215938e-01 -8.176648e-01 -8.280080e-01 -8.245824e-01 -8.338263e-01 -8.302431e-01 -8.413225e-01 -8.356457e-01 -8.464484e-01 -8.337706e-01 -8.468775e-01 -8.287884e-01 -8.472204e-01 -8.218926e-01 -8.467627e-01 -8.113638e-01 -8.422042e-01 -7.982033e-01 -8.405789e-01 -7.915633e-01 -8.428238e-01 -7.857774e-01 -8.422356e-01 -7.837208e-01 -8.442501e-01 -7.874502e-01 -8.461751e-01 -7.985067e-01 -8.467548e-01 -8.101247e-01 -8.381642e-01 -8.203386e-01 -8.239243e-01 -8.251238e-01 -7.938350e-01 -7.814480e-01 -9.103316e-01 -1.761785e+00 -1.059709e+00 -2.108693e-01 3.412468e-02 3.996084e-04 -2.762115e-02 
-2.534048e-02 -1.975938e-02 -8.413810e-03 1.785502e-02 2.451703e-02 -1.530060e-01 -1.970977e-01 -1.199335e-01 -1.204860e-01 -4.719854e-02 -4.394454e-02 -3.473135e-01 -1.104290e+00 -9.386230e-01 -5.555761e-01 -5.545883e-01 -5.548947e-01 -5.546905e-01 -5.547684e-01 -5.551917e-01 -7.904959e-01 -9.517006e-01 -6.258948e-01 -2.238286e-01 -1.171875e-01 -1.102154e-01 -1.001946e-01 -1.024113e-01 -9.560992e-02 -9.968109e-02 -9.562149e-02 -9.969953e-02 -9.687946e-02 -1.000245e-01 -9.792835e-02 -1.000133e-01 -9.873061e-02 -9.993257e-02 -9.950322e-02 -9.986594e-02 -1.002105e-01 -9.989053e-02 -1.010330e-01 -1.001757e-01 -1.022560e-01 -1.012202e-01 -1.044964e-01 -1.040803e-01 -1.095218e-01 -1.109089e-01 -1.185556e-01 -1.198193e-01 -1.222895e-01 -1.001303e-01 -4.040457e-02 -3.569413e-02 -5.764939e-01 -1.278957e+00 -9.905795e-01 -3.479231e-01 -6.049002e-01 -9.042184e-01 -4.161590e-01 -5.137635e-01 -7.416491e-01 -3.863881e-01 -8.691390e-01 -9.119012e-01 -3.090371e-01 -5.102898e-01 -1.141699e+00 -1.414958e+00 -8.444165e-01 -2.070574e-01 -5.572466e-02 -7.964080e-02 -9.845483e-02 -1.045003e-01 -1.039283e-01 -1.038860e-01 -1.018806e-01 -1.017748e-01 -1.005619e-01 -1.008130e-01 -1.003134e-01 -1.004933e-01 -1.005332e-01 -1.004777e-01 -1.007630e-01 -1.004203e-01 -1.008904e-01 -1.005295e-01 -1.010807e-01 -1.007194e-01 -1.009646e-01 -1.007631e-01 -1.005640e-01 -1.008111e-01 -1.000072e-01 -1.009933e-01 -9.927815e-02 -1.010715e-01 -9.828907e-02 -1.012812e-01 -9.753656e-02 -1.017395e-01 -9.678835e-02 -1.020336e-01 -9.619336e-02 -1.023909e-01 -9.589486e-02 -1.025395e-01 -9.577352e-02 -1.020072e-01 -9.505645e-02 -9.955008e-02 -9.216143e-02 -9.305292e-02 -8.353791e-02 -7.892235e-02 -6.778037e-02 -1.099351e-01 -1.911353e-01 -7.383421e-02 -7.963000e-03 -1.434839e-02 -2.734180e-02 -2.834031e-02 
-1.296059e-02 -1.195851e-02 -1.096056e-02 -8.312554e-03 -3.164213e-03 -7.542092e-03 -1.794928e-02 -1.370353e-02 2.825424e-04 2.785867e-02 4.560418e-02 -1.192102e-01 -5.601302e-01 -4.900133e-01 -2.771359e-01 -2.767128e-01 -2.767122e-01 -2.767121e-01 -2.767124e-01 -2.768526e-01 -3.833491e-01 -4.637389e-01 -3.023439e-01 -8.960097e-02 -3.632129e-02 -2.765690e-02 -2.234047e-02 -1.852252e-02 -1.586458e-02 -1.468710e-02 -1.401972e-02 -1.387673e-02 -1.383297e-02 -1.390668e-02 -1.399712e-02 -1.404503e-02 -1.414297e-02 -1.413672e-02 -1.424020e-02 -1.421157e-02 -1.434144e-02 -1.432819e-02 -1.452090e-02 -1.459872e-02 -1.496665e-02 -1.532297e-02 -1.614968e-02 -1.720791e-02 -1.903575e-02 -2.126882e-02 -2.402911e-02 -2.612929e-02 -2.657561e-02 -2.197416e-02 -6.064221e-03 2.432214e-02 3.262390e-02 -1.222460e-02 -1.626973e-02 2.613109e-02 7.466839e-03 5.576601e-03 4.873313e-02 4.528260e-02 4.054255e-02 4.515382e-02 1.584085e-02 3.661302e-02 7.053453e-02 5.397260e-02 3.475373e-02 2.116413e-02 2.893644e-02 2.650762e-02 4.356545e-03 -1.227967e-02 -1.859785e-02 -1.973965e-02 -1.880544e-02 -1.737086e-02 -1.604422e-02 -1.516072e-02 -1.467830e-02 -1.446852e-02 -1.443682e-02 -1.441005e-02 -1.445586e-02 -1.440452e-02 -1.445086e-02 -1.437403e-02 -1.443361e-02 -1.434420e-02 -1.441060e-02 -1.431414e-02 -1.438361e-02 -1.429517e-02 -1.435931e-02 -1.428676e-02 -1.432921e-02 -1.428283e-02 -1.429000e-02 -1.428278e-02 -1.424050e-02 -1.428483e-02 -1.418356e-02 -1.429211e-02 -1.412254e-02 -1.429778e-02 -1.405011e-02 -1.428457e-02 -1.395223e-02 -1.421987e-02 -1.377127e-02 -1.396700e-02 -1.325999e-02 -1.310274e-02 -1.179976e-02 -1.087636e-02 -8.683786e-03 -7.055907e-03 -4.775472e-03 -8.071058e-03 -1.154714e-02 -7.460646e-03 -9.913960e-03 -1.362761e-02 -1.489326e-02 -1.398519e-02 
-1.906113e-06 1.530676e-06 3.065277e-06 4.382482e-06 4.672115e-06 4.380796e-06 4.459313e-06 2.827950e-06 -2.104093e-06 -8.679453e-06 -1.746881e-05 -1.508142e-05 4.367739e-04 4.229707e-04 1.921758e-07 8.149183e-09 8.936172e-09 9.273053e-09 1.567151e-08 6.215771e-07 -1.466212e-04 1.128253e-03 1.831199e-04 -2.125073e-05 -8.444689e-07 6.840219e-06 5.791522e-06 5.790752e-06 8.167304e-06 1.029741e-05 1.305164e-05 1.323273e-05 1.326609e-05 9.202319e-06 6.847005e-06 1.051950e-06 -9.001823e-07 -8.764413e-06 -1.519493e-05 -3.336087e-05 -5.456676e-05 -9.537253e-05 -1.518714e-04 -2.500344e-04 -4.014206e-04 -6.486507e-04 -1.036459e-03 -1.637068e-03 -2.525989e-03 -3.725211e-03 -5.140147e-03 -6.434293e-03 -7.091694e-03 -6.426407e-03 -3.555552e-03 2.565497e-03 1.054145e-02 1.528229e-02 1.732474e-02 1.989311e-02 1.918522e-02 1.803529e-02 1.842196e-02 1.698499e-02 1.641090e-02 1.566502e-02 1.395805e-02 1.530867e-02 1.728518e-02 1.873723e-02 2.075921e-02 2.043712e-02 1.594820e-02 8.450824e-03 1.747186e-03 -2.078033e-03 -3.372597e-03 -3.171780e-03 -2.297539e-03 -1.321015e-03 -5.761310e-04 -1.270631e-04 6.519830e-05 1.106223e-04 8.158829e-05 3.845174e-05 8.773331e-07 -2.266671e-05 -3.574802e-05 -4.322958e-05 -4.595922e-05 -4.693391e-05 -4.416908e-05 -4.132558e-05 -3.701760e-05 -3.413744e-05 -3.060436e-05 -2.773571e-05 -2.426299e-05 -2.122342e-05 -1.841528e-05 -1.585162e-05 -1.388424e-05 -1.189970e-05 -1.114487e-05 -1.047950e-05 -1.083152e-05 -1.014934e-05 -9.386982e-06 -7.324910e-06 -5.674127e-06 -3.822165e-06 -2.381621e-06 -6.189307e-07 1.491416e-06 2.643703e-06 2.406342e-06 -1.857020e-06 -8.042062e-06 -1.742365e-05 -2.469777e-05 -3.160808e-05 -3.218530e-05 -3.075424e-05 -2.726259e-05 -1.910360e-05 -1.292937e-05 -5.556672e-06 
1.295605e-02 1.196243e-02 1.096899e-02 8.321574e-03 3.170364e-03 7.548825e-03 1.795911e-02 1.371669e-02 -2.862221e-04 -2.787815e-02 -4.564543e-02 1.191983e-01 5.600259e-01 4.903726e-01 2.771360e-01 2.767128e-01 2.767122e-01 2.767122e-01 2.767124e-01 2.768555e-01 3.846306e-01 4.682297e-01 3.030776e-01 8.959822e-02 3.632544e-02 2.767167e-02 2.235801e-02 1.853164e-02 1.588335e-02 1.469919e-02 1.404396e-02 1.388855e-02 1.385117e-02 1.390019e-02 1.399192e-02 1.400852e-02 1.410870e-02 1.406404e-02 1.415725e-02 1.406399e-02 1.414522e-02 1.401154e-02 1.406359e-02 1.387717e-02 1.385452e-02 1.356205e-02 1.336534e-02 1.283515e-02 1.227176e-02 1.128517e-02 1.016644e-02 8.693273e-03 7.284160e-03 5.930388e-03 5.099140e-03 4.805751e-03 5.352109e-03 6.303698e-03 7.622523e-03 8.928642e-03 1.015072e-02 1.161768e-02 1.272780e-02 1.387172e-02 1.531032e-02 1.666128e-02 1.829264e-02 2.026154e-02 2.200602e-02 2.388562e-02 2.506248e-02 2.494448e-02 2.345341e-02 2.109983e-02 1.861300e-02 1.670167e-02 1.540777e-02 1.476892e-02 1.448097e-02 1.441317e-02 1.438600e-02 1.435200e-02 1.432871e-02 1.426053e-02 1.426170e-02 1.419372e-02 1.423820e-02 1.417284e-02 1.424749e-02 1.417374e-02 1.426348e-02 1.417997e-02 1.427606e-02 1.418874e-02 1.428230e-02 1.419932e-02 1.427970e-02 1.421199e-02 1.426737e-02 1.422692e-02 1.424326e-02 1.424156e-02 1.420506e-02 1.425471e-02 1.415477e-02 1.426672e-02 1.409531e-02 1.427542e-02 1.402758e-02 1.427170e-02 1.394014e-02 1.421749e-02 1.376751e-02 1.397284e-02 1.326479e-02 1.311639e-02 1.180568e-02 1.087761e-02 8.662634e-03 7.017749e-03 4.712336e-03 7.997475e-03 1.146493e-02 7.385525e-03 9.844339e-03 1.357596e-02 1.485749e-02 1.396943e-02 
2.533593e-02 1.976653e-02 8.424532e-03 -1.786300e-02 -2.455304e-02 1.531052e-01 1.972193e-01 1.202643e-01 1.208826e-01 4.756369e-02 4.426941e-02 3.476674e-01 1.103792e+00 9.382457e-01 5.555943e-01 5.546049e-01 5.549101e-01 5.547013e-01 5.547759e-01 5.551953e-01 7.896891e-01 9.539049e-01 6.258331e-01 2.233082e-01 1.167985e-01 1.097148e-01 9.995150e-02 1.021263e-01 9.575270e-02 9.977606e-02 9.608458e-02 9.999535e-02 9.747805e-02 1.004283e-01 9.868282e-02 1.005451e-01 9.940517e-02 1.002290e-01 9.967261e-02 9.967126e-02 9.976696e-02 9.913495e-02 9.978063e-02 9.859565e-02 9.963375e-02 9.798140e-02 9.928828e-02 9.714653e-02 9.833750e-02 9.542696e-02 9.589165e-02 9.183381e-02 9.112650e-02 8.596948e-02 8.431295e-02 7.894355e-02 7.723864e-02 7.272404e-02 7.400183e-02 7.618802e-02 7.710561e-02 8.058949e-02 8.493117e-02 8.506173e-02 9.176643e-02 9.524217e-02 9.785023e-02 1.045819e-01 1.058649e-01 1.093259e-01 1.156973e-01 1.159796e-01 1.147127e-01 1.131763e-01 1.098018e-01 1.073468e-01 1.041499e-01 1.026895e-01 1.009093e-01 1.005388e-01 9.994786e-02 1.000263e-01 1.000718e-01 1.000021e-01 1.003542e-01 9.997683e-02 1.005682e-01 9.990808e-02 1.006608e-01 9.976854e-02 1.005705e-01 9.957925e-02 1.002866e-01 9.939770e-02 9.995276e-02 9.952542e-02 9.975314e-02 9.991129e-02 9.944177e-02 1.003718e-01 9.902334e-02 1.009693e-01 9.854734e-02 1.016316e-01 9.800090e-02 1.022385e-01 9.738480e-02 1.027208e-01 9.680345e-02 1.029543e-01 9.620602e-02 1.027136e-01 9.561713e-02 1.018545e-01 9.471835e-02 9.932723e-02 9.170297e-02 9.259346e-02 8.277103e-02 7.832556e-02 6.712113e-02 1.097461e-01 1.908771e-01 7.370008e-02 7.874600e-03 1.428108e-02 2.728830e-02 2.831629e-02 
3.025902e-02 1.435782e-02 -3.384492e-02 -7.845056e-02 3.086357e-01 2.288488e+00 1.356161e+00 4.431662e-01 1.049855e+00 6.724654e-01 9.134138e-01 8.857988e-01 1.060807e+00 9.889912e-01 8.665109e-01 8.604309e-01 8.679017e-01 8.629580e-01 8.645283e-01 8.673784e-01 9.394931e-01 9.408694e-01 9.510295e-01 8.575403e-01 7.350539e-01 8.205251e-01 7.553294e-01 8.340491e-01 7.746610e-01 8.416887e-01 7.883180e-01 8.430038e-01 7.986584e-01 8.424045e-01 8.077817e-01 8.390213e-01 8.114567e-01 8.303531e-01 8.115212e-01 8.213293e-01 8.121235e-01 8.131083e-01 8.114732e-01 8.053192e-01 8.123284e-01 8.026135e-01 8.182684e-01 8.039257e-01 8.231582e-01 8.034709e-01 8.240969e-01 8.007434e-01 8.204223e-01 7.917979e-01 8.040220e-01 7.681759e-01 7.699563e-01 7.307824e-01 7.496478e-01 7.550865e-01 7.457971e-01 7.502683e-01 7.698503e-01 7.352261e-01 7.762959e-01 7.738926e-01 7.686758e-01 8.010581e-01 7.867611e-01 7.878745e-01 8.439942e-01 8.322645e-01 8.330296e-01 8.342896e-01 8.337906e-01 8.359838e-01 8.335744e-01 8.375801e-01 8.349827e-01 8.394034e-01 8.383680e-01 8.429643e-01 8.419228e-01 8.423930e-01 8.399552e-01 8.387223e-01 8.381372e-01 8.374467e-01 8.364157e-01 8.339222e-01 8.295051e-01 8.274003e-01 8.205194e-01 8.223973e-01 8.134444e-01 8.226496e-01 8.100878e-01 8.272142e-01 8.086443e-01 8.350985e-01 8.081359e-01 8.426242e-01 8.050245e-01 8.486705e-01 8.027108e-01 8.551316e-01 8.010119e-01 8.584151e-01 7.986143e-01 8.569973e-01 7.959384e-01 8.499327e-01 7.952578e-01 8.411722e-01 8.017091e-01 8.316189e-01 8.117618e-01 8.148182e-01 8.105437e-01 7.802632e-01 7.672626e-01 9.043094e-01 1.757539e+00 1.058340e+00 2.105810e-01 -3.424462e-02 -4.531588e-04 2.760689e-02 
1.239267e-02 -2.363542e-02 -7.012173e-02 3.636045e-01 2.511710e+00 4.603014e+00 2.043925e+00 1.185813e+00 1.903604e+00 1.531159e+00 1.831978e+00 1.540845e+00 1.768192e+00 1.550370e+00 1.726243e+00 1.603639e+00 1.720428e+00 1.647350e+00 1.669116e+00 1.671537e+00 1.669249e+00 1.636552e+00 1.472471e+00 1.722603e+00 1.540236e+00 1.762439e+00 1.611892e+00 1.798983e+00 1.695248e+00 1.821744e+00 1.733378e+00 1.801291e+00 1.764145e+00 1.808364e+00 1.806223e+00 1.793274e+00 1.795131e+00 1.754656e+00 1.797873e+00 1.763883e+00 1.818221e+00 1.751670e+00 1.783963e+00 1.718602e+00 1.779714e+00 1.765416e+00 1.843079e+00 1.827637e+00 1.860857e+00 1.834859e+00 1.859263e+00 1.871449e+00 1.900369e+00 1.914683e+00 1.904536e+00 1.908964e+00 1.891676e+00 1.917459e+00 1.929348e+00 1.980049e+00 1.935125e+00 1.960260e+00 1.944712e+00 1.931988e+00 1.957338e+00 1.949188e+00 1.922151e+00 1.917503e+00 1.895127e+00 1.869601e+00 1.945110e+00 1.889844e+00 1.906179e+00 1.849546e+00 1.893290e+00 1.856625e+00 1.917584e+00 1.869351e+00 1.906806e+00 1.854396e+00 1.896174e+00 1.867185e+00 1.887898e+00 1.850491e+00 1.835205e+00 1.831815e+00 1.828818e+00 1.879797e+00 1.847720e+00 1.891657e+00 1.796823e+00 1.853985e+00 1.753848e+00 1.854089e+00 1.741797e+00 1.842297e+00 1.710584e+00 1.827641e+00 1.736005e+00 1.878409e+00 1.793963e+00 1.878724e+00 1.782852e+00 1.834711e+00 1.796684e+00 1.836856e+00 1.841132e+00 1.820511e+00 1.850043e+00 1.785151e+00 1.861305e+00 1.760192e+00 1.867324e+00 1.743119e+00 1.883936e+00 1.766621e+00 1.918700e+00 1.803497e+00 1.898818e+00 1.809956e+00 1.811296e+00 2.020486e+00 2.573992e+00 3.406867e+00 2.057971e+00 9.148367e-02 -7.710790e-02 -2.651068e-03 
-2.296926e-04 -2.906871e-02 2.707672e-02 8.797083e-01 3.214241e+00 1.228845e+00 2.079211e-02 1.270225e+00 5.995130e-01 9.039924e-01 6.466919e-01 5.050549e-01 4.287338e-01 2.045855e-01 4.783231e-01 2.687067e-01 3.866472e-01 2.457787e-01 3.897468e-01 3.944899e-01 1.823254e-01 6.197666e-01 4.863196e-01 8.051909e-01 7.417595e-01 8.583830e-01 7.926530e-01 8.802574e-01 8.766245e-01 8.984449e-01 9.064781e-01 8.661693e-01 9.322103e-01 8.808079e-01 9.769180e-01 8.672820e-01 9.515622e-01 8.307899e-01 9.566993e-01 8.702284e-01 9.873952e-01 8.739702e-01 9.354493e-01 8.439681e-01 9.262597e-01 9.256118e-01 1.009330e+00 1.020702e+00 1.023644e+00 1.033721e+00 1.016859e+00 1.096459e+00 1.086291e+00 1.182615e+00 1.128861e+00 1.229252e+00 1.191329e+00 1.331814e+00 1.291535e+00 1.363737e+00 1.316518e+00 1.348496e+00 1.275575e+00 1.347568e+00 1.276791e+00 1.278894e+00 1.248390e+00 1.162847e+00 1.167923e+00 1.122717e+00 1.098786e+00 1.050427e+00 1.073732e+00 9.783614e-01 1.046462e+00 9.772229e-01 1.079136e+00 9.875886e-01 1.056531e+00 9.585623e-01 1.032341e+00 9.709662e-01 1.012376e+00 9.488256e-01 9.371309e-01 9.316163e-01 9.330838e-01 1.012036e+00 9.675727e-01 1.041703e+00 9.060618e-01 1.001787e+00 8.622021e-01 1.016976e+00 8.614725e-01 9.992910e-01 8.205658e-01 9.652168e-01 8.632333e-01 1.024373e+00 9.545682e-01 1.005049e+00 9.450084e-01 9.197272e-01 9.727721e-01 9.051024e-01 1.047375e+00 8.696143e-01 1.068677e+00 8.165841e-01 1.094834e+00 7.946945e-01 1.107391e+00 7.888380e-01 1.115538e+00 8.450994e-01 1.134502e+00 9.291776e-01 1.072419e+00 9.780798e-01 9.632367e-01 1.096268e+00 2.338556e-01 3.144276e+00 2.537974e+00 3.609931e-02 -1.254183e-01 -2.462031e-02 
6.845166e-03 -8.899465e-03 2.172825e-02 3.795163e-01 9.899778e-01 -2.065849e+00 -1.359033e+00 3.254588e-01 -8.022881e-01 -2.706822e-01 -6.352169e-01 -1.074961e-01 -4.980918e-01 -3.387869e-01 -1.028408e+00 -7.972409e-01 -8.633589e-01 -7.576951e-01 -8.656890e-01 -8.386287e-01 -4.364514e-01 -5.557804e-01 -2.168650e-01 -4.480821e-01 -4.454265e-01 -5.096749e-01 -4.467841e-01 -5.082303e-01 -4.305094e-01 -5.062572e-01 -4.300449e-01 -5.167687e-01 -4.289416e-01 -5.084844e-01 -4.209870e-01 -5.081213e-01 -4.338642e-01 -5.100068e-01 -4.313706e-01 -4.826439e-01 -4.202394e-01 -4.696001e-01 -4.389663e-01 -4.696026e-01 -4.432564e-01 -4.332978e-01 -4.185324e-01 -3.963744e-01 -4.179789e-01 -3.882865e-01 -4.211851e-01 -3.607534e-01 -3.930957e-01 -3.211018e-01 -3.634705e-01 -2.813033e-01 -3.049545e-01 -2.043772e-01 -2.517515e-01 -2.259820e-01 -2.330384e-01 -2.227394e-01 -2.732662e-01 -2.007566e-01 -2.833760e-01 -2.737491e-01 -2.804756e-01 -3.495183e-01 -3.261463e-01 -3.471155e-01 -4.233801e-01 -4.222811e-01 -4.134294e-01 -4.555931e-01 -4.293829e-01 -4.650089e-01 -4.214065e-01 -4.665746e-01 -4.316824e-01 -4.782824e-01 -4.416994e-01 -4.743369e-01 -4.501523e-01 -4.784590e-01 -4.738751e-01 -4.776403e-01 -4.722712e-01 -4.435105e-01 -4.572045e-01 -4.260069e-01 -4.725498e-01 -4.311551e-01 -4.789184e-01 -4.174575e-01 -4.714640e-01 -4.229667e-01 -4.837294e-01 -4.404080e-01 -4.664853e-01 -4.273004e-01 -4.316152e-01 -4.440972e-01 -4.310199e-01 -4.846966e-01 -4.166513e-01 -4.998269e-01 -3.846797e-01 -5.194712e-01 -3.713799e-01 -5.403044e-01 -3.555349e-01 -5.425167e-01 -3.473559e-01 -5.367958e-01 -3.511958e-01 -5.088152e-01 -3.620298e-01 -4.720768e-01 -4.133831e-01 -4.687311e-01 -5.181116e-01 -6.601198e-01 -1.623767e+00 5.484573e-01 8.894895e-01 3.318467e-02 -2.834864e-02 1.752933e-03 
7.478726e-03 5.135966e-03 9.608955e-03 5.232875e-02 2.118080e-02 -9.851157e-01 -6.428734e-01 -9.372011e-02 -4.374176e-01 -2.649758e-01 -3.852212e-01 -5.341849e-02 3.574971e-01 1.210769e+00 1.677927e+00 1.689354e+00 1.457198e+00 1.651936e+00 1.455133e+00 1.554172e+00 1.330379e+00 2.803876e-01 -1.215495e-01 -3.506796e-01 -3.299067e-01 -3.631459e-01 -3.242080e-01 -3.607069e-01 -3.272193e-01 -3.610395e-01 -3.304251e-01 -3.601244e-01 -3.332114e-01 -3.583305e-01 -3.360092e-01 -3.560223e-01 -3.377250e-01 -3.516340e-01 -3.375116e-01 -3.459280e-01 -3.372522e-01 -3.410002e-01 -3.374987e-01 -3.364937e-01 -3.374651e-01 -3.323202e-01 -3.380163e-01 -3.296477e-01 -3.393960e-01 -3.290725e-01 -3.429113e-01 -3.331693e-01 -3.519033e-01 -3.440398e-01 -3.632346e-01 -3.499381e-01 -3.594047e-01 -3.413437e-01 -3.532699e-01 -3.483027e-01 -3.397509e-01 -3.294007e-01 -3.316563e-01 -3.038812e-01 -3.142882e-01 -3.037135e-01 -2.953628e-01 -3.002809e-01 -2.845765e-01 -2.789111e-01 -2.947732e-01 -2.911970e-01 -2.956993e-01 -3.072130e-01 -3.165456e-01 -3.328834e-01 -3.384174e-01 -3.516095e-01 -3.510084e-01 -3.587627e-01 -3.541122e-01 -3.586721e-01 -3.534357e-01 -3.556142e-01 -3.512814e-01 -3.517569e-01 -3.493811e-01 -3.484195e-01 -3.478286e-01 -3.451567e-01 -3.456735e-01 -3.416605e-01 -3.424626e-01 -3.381932e-01 -3.395920e-01 -3.378906e-01 -3.390155e-01 -3.401074e-01 -3.379272e-01 -3.428607e-01 -3.363155e-01 -3.469673e-01 -3.345581e-01 -3.517371e-01 -3.322779e-01 -3.561073e-01 -3.292516e-01 -3.596041e-01 -3.263840e-01 -3.613830e-01 -3.232256e-01 -3.601692e-01 -3.214125e-01 -3.581157e-01 -3.240449e-01 -3.559175e-01 -3.315297e-01 -3.546857e-01 -3.445124e-01 -3.621212e-01 -3.779399e-01 -5.024687e-01 -7.664654e-01 -1.893665e-01 2.931222e-02 1.340904e-02 8.495196e-03 8.216377e-03 
