# vtk DataFile Version 2.0
Comment goes here
ASCII

DATASET STRUCTURED_POINTS
FIELD FieldData 1
TIME 1 1 double
0.69000000
DIMENSIONS    128   16   1

ORIGIN    0.000   0.000   0.000
SPACING   0.0078125 0.015625   1.000

POINT_DATA   2048
SCALARS P double
LOOKUP_TABLE default

-7.434968e-01 -7.343263e-01 -7.453210e-01 -7.410705e-01 -7.436070e-01 -7.473178e-01 -7.372671e-01 -7.562864e-01 -7.370637e-01 -7.588822e-01 -7.349881e-01 -7.548739e-01 -7.259042e-01 -7.380037e-01 -6.991023e-01 -7.031266e-01 -6.641585e-01 -6.614266e-01 -6.270577e-01 -6.220140e-01 -5.942995e-01 -5.927982e-01 -5.798320e-01 -5.816836e-01 -5.771861e-01 -5.782908e-01 -5.792835e-01 -5.783773e-01 -5.832467e-01 -5.802788e-01 -5.878747e-01 -5.832509e-01 -5.925438e-01 -5.867911e-01 -5.968256e-01 -5.905008e-01 -6.005195e-01 -5.942258e-01 -6.037811e-01 -5.981011e-01 -6.069921e-01 -6.022905e-01 -6.103952e-01 -6.066660e-01 -6.138925e-01 -6.108592e-01 -6.173076e-01 -6.146673e-01 -6.207174e-01 -6.181767e-01 -6.242947e-01 -6.214423e-01 -6.280001e-01 -6.243641e-01 -6.316932e-01 -6.269617e-01 -6.354335e-01 -6.295349e-01 -6.388969e-01 -6.322091e-01 -6.432437e-01 -6.366376e-01 -6.476212e-01 -6.395576e-01 -6.520772e-01 -6.428778e-01 -6.568293e-01 -6.495056e-01 -6.603704e-01 -6.550319e-01 -6.666800e-01 -6.613437e-01 -6.761129e-01 -6.691691e-01 -6.816391e-01 -6.740909e-01 -6.853531e-01 -6.776835e-01 -6.880989e-01 -6.801993e-01 -6.901444e-01 -6.818447e-01 -6.919834e-01 -6.831375e-01 -6.942218e-01 -6.845176e-01 -6.970718e-01 -6.859860e-01 -7.002479e-01 -6.872877e-01 -7.033301e-01 -6.882805e-01 -7.060405e-01 -6.890444e-01 -7.082705e-01 -6.898314e-01 -7.100604e-01 -6.910086e-01 -7.115618e-01 -6.929222e-01 -7.128602e-01 -6.956177e-01 -7.137578e-01 -6.987329e-01 -7.139368e-01 -7.018722e-01 -7.134627e-01 -7.050022e-01 -7.129015e-01 -7.082375e-01 -7.128475e-01 -7.113730e-01 -7.135867e-01 -7.138850e-01 -7.152626e-01 -7.153141e-01 -7.181220e-01 -7.155469e-01 -7.224669e-01 -7.149006e-01 -7.283795e-01 -7.143670e-01 -7.354930e-01 -7.164479e-01 -7.375410e-01 -7.208117e-01 -7.402860e-01 -7.271834e-01 
-6.394737e-01 -6.340060e-01 -6.389397e-01 -6.372255e-01 -6.344421e-01 -6.390979e-01 -6.227120e-01 -6.452768e-01 -6.225804e-01 -6.448370e-01 -6.240825e-01 -6.402365e-01 -6.257830e-01 -6.301481e-01 -6.268306e-01 -6.233833e-01 -6.284184e-01 -6.182258e-01 -6.294727e-01 -6.137799e-01 -6.283597e-01 -6.093751e-01 -6.230415e-01 -6.071075e-01 -6.211469e-01 -6.059412e-01 -6.210602e-01 -6.055508e-01 -6.218600e-01 -6.057197e-01 -6.229578e-01 -6.063750e-01 -6.241337e-01 -6.075543e-01 -6.252793e-01 -6.090996e-01 -6.261052e-01 -6.105997e-01 -6.263507e-01 -6.118817e-01 -6.262808e-01 -6.132821e-01 -6.264776e-01 -6.150570e-01 -6.270981e-01 -6.169097e-01 -6.278622e-01 -6.184633e-01 -6.286853e-01 -6.197040e-01 -6.296868e-01 -6.206330e-01 -6.307547e-01 -6.210271e-01 -6.315807e-01 -6.207028e-01 -6.320203e-01 -6.198609e-01 -6.308160e-01 -6.182664e-01 -6.313170e-01 -6.189666e-01 -6.324714e-01 -6.193704e-01 -6.337166e-01 -6.203291e-01 -6.351892e-01 -6.245501e-01 -6.362714e-01 -6.282342e-01 -6.395037e-01 -6.321001e-01 -6.477614e-01 -6.382629e-01 -6.513763e-01 -6.414361e-01 -6.529138e-01 -6.431684e-01 -6.532397e-01 -6.435632e-01 -6.525605e-01 -6.428538e-01 -6.515875e-01 -6.418337e-01 -6.511473e-01 -6.409677e-01 -6.513198e-01 -6.400583e-01 -6.516783e-01 -6.388132e-01 -6.518538e-01 -6.372075e-01 -6.517183e-01 -6.354953e-01 -6.512977e-01 -6.339695e-01 -6.505033e-01 -6.327454e-01 -6.492255e-01 -6.320901e-01 -6.476991e-01 -6.323309e-01 -6.458906e-01 -6.330355e-01 -6.432389e-01 -6.336417e-01 -6.398651e-01 -6.343692e-01 -6.365755e-01 -6.353975e-01 -6.338387e-01 -6.363121e-01 -6.318034e-01 -6.365358e-01 -6.306830e-01 -6.356463e-01 -6.308484e-01 -6.335260e-01 -6.327832e-01 -6.303542e-01 -6.366688e-01 -6.265358e-01 -6.419759e-01 -6.238324e-01 -6.390947e-01 -6.263147e-01 -6.387809e-01 -6.300031e-01 
-7.462802e-01 -7.351214e-01 -7.523803e-01 -7.420292e-01 -7.528986e-01 -7.418426e-01 -7.248812e-01 -7.688330e-01 -7.406364e-01 -7.719557e-01 -7.491385e-01 -7.808453e-01 -7.616660e-01 -7.740693e-01 -7.149530e-01 -7.164794e-01 -6.682630e-01 -6.566130e-01 -6.181188e-01 -6.013994e-01 -5.575788e-01 -5.568825e-01 -5.563057e-01 -5.662487e-01 -5.676226e-01 -5.714605e-01 -5.758432e-01 -5.753116e-01 -5.824708e-01 -5.786398e-01 -5.879153e-01 -5.819345e-01 -5.927449e-01 -5.858283e-01 -5.974562e-01 -5.903676e-01 -6.016964e-01 -5.946695e-01 -6.047107e-01 -5.981693e-01 -6.068379e-01 -6.016248e-01 -6.093689e-01 -6.058714e-01 -6.127905e-01 -6.105174e-01 -6.165142e-01 -6.148159e-01 -6.202545e-01 -6.187190e-01 -6.242012e-01 -6.222458e-01 -6.281594e-01 -6.249771e-01 -6.315747e-01 -6.265673e-01 -6.365983e-01 -6.285114e-01 -6.340271e-01 -6.233070e-01 -6.413245e-01 -6.415103e-01 -6.453391e-01 -6.366139e-01 -6.491316e-01 -6.276092e-01 -6.602226e-01 -6.535301e-01 -6.468052e-01 -6.518579e-01 -6.526689e-01 -6.554538e-01 -6.941928e-01 -6.829743e-01 -6.911533e-01 -6.803590e-01 -6.899635e-01 -6.812540e-01 -6.906210e-01 -6.824927e-01 -6.911411e-01 -6.830615e-01 -6.918907e-01 -6.838808e-01 -6.939679e-01 -6.853971e-01 -6.971397e-01 -6.869118e-01 -7.005006e-01 -6.878367e-01 -7.035334e-01 -6.882001e-01 -7.062363e-01 -6.885313e-01 -7.088411e-01 -6.892720e-01 -7.110924e-01 -6.902524e-01 -7.125426e-01 -6.917683e-01 -7.137554e-01 -6.946609e-01 -7.148606e-01 -6.981751e-01 -7.146269e-01 -7.012594e-01 -7.132176e-01 -7.046295e-01 -7.120707e-01 -7.087450e-01 -7.116254e-01 -7.128084e-01 -7.117738e-01 -7.159320e-01 -7.127345e-01 -7.175211e-01 -7.150321e-01 -7.172919e-01 -7.194678e-01 -7.149825e-01 -7.263609e-01 -7.095156e-01 -7.459149e-01 -7.121185e-01 -7.362930e-01 -7.168799e-01 -7.394123e-01 -7.256681e-01 
-6.444219e-01 -6.371677e-01 -6.547858e-01 -6.426779e-01 -6.637444e-01 -6.393345e-01 -6.229721e-01 -7.076775e-01 -6.776421e-01 -7.106742e-01 -6.986442e-01 -7.228181e-01 -7.160605e-01 -6.666035e-01 -5.273932e-01 -4.368176e-01 -3.246190e-01 -1.928374e-01 -1.066356e-01 3.162056e-02 1.378811e-01 2.064688e-01 1.828396e-01 1.918665e-01 1.676597e-01 1.765491e-01 1.516400e-01 1.605624e-01 1.353352e-01 1.441961e-01 1.190547e-01 1.275721e-01 1.028191e-01 1.106265e-01 8.654947e-02 9.342405e-02 7.041376e-02 7.633060e-02 5.469087e-02 5.958288e-02 3.926114e-02 4.292415e-02 2.363446e-02 2.605167e-02 7.590407e-03 9.087013e-03 -8.689361e-03 -7.717912e-03 -2.509910e-02 -2.433026e-02 -4.171403e-02 -4.073604e-02 -5.851916e-02 -5.677582e-02 -7.546568e-02 -7.245938e-02 -9.963439e-02 -9.128303e-02 -1.032126e-01 -7.609139e-02 -1.137680e-01 -1.241949e-01 -9.919381e-02 -9.018891e-02 -1.099413e-01 -3.480012e-02 -1.154560e-01 -1.039636e-01 -4.229788e-02 -1.019377e-01 -7.991362e-02 -1.079817e-01 -2.280138e-01 -2.292616e-01 -2.485096e-01 -2.422245e-01 -2.613856e-01 -2.567894e-01 -2.755201e-01 -2.717037e-01 -2.898999e-01 -2.864903e-01 -3.044900e-01 -3.013377e-01 -3.195690e-01 -3.163108e-01 -3.350048e-01 -3.311718e-01 -3.504782e-01 -3.457928e-01 -3.658270e-01 -3.602561e-01 -3.810503e-01 -3.747909e-01 -3.961965e-01 -3.895516e-01 -4.111038e-01 -4.044334e-01 -4.255448e-01 -4.195010e-01 -4.396881e-01 -4.350535e-01 -4.536292e-01 -4.508629e-01 -4.670268e-01 -4.666045e-01 -4.800366e-01 -4.825368e-01 -4.932454e-01 -4.987755e-01 -5.068642e-01 -5.149520e-01 -5.209173e-01 -5.306555e-01 -5.355597e-01 -5.455758e-01 -5.510662e-01 -5.594850e-01 -5.678650e-01 -5.719680e-01 -5.863343e-01 -5.815230e-01 -6.390169e-01 -6.207155e-01 -6.292692e-01 -6.216421e-01 -6.348679e-01 -6.288016e-01 
-7.521942e-01 -7.461978e-01 -7.820283e-01 -7.719862e-01 -8.171994e-01 -8.004379e-01 -8.330564e-01 -8.822606e-01 -9.118390e-01 -9.156640e-01 -9.639869e-01 -9.504898e-01 -1.010508e+00 -9.285723e-01 -4.273027e-01 -1.939767e-01 2.343359e-01 5.800549e-01 9.507480e-01 1.290358e+00 1.753229e+00 1.809436e+00 1.763794e+00 1.766537e+00 1.725202e+00 1.720051e+00 1.682317e+00 1.671847e+00 1.637157e+00 1.622657e+00 1.590475e+00 1.573062e+00 1.543085e+00 1.523840e+00 1.495623e+00 1.475180e+00 1.447810e+00 1.426325e+00 1.398884e+00 1.376783e+00 1.349102e+00 1.327320e+00 1.299629e+00 1.278800e+00 1.250884e+00 1.230912e+00 1.202290e+00 1.182988e+00 1.153587e+00 1.135041e+00 1.104964e+00 1.087167e+00 1.056239e+00 1.039054e+00 1.006827e+00 9.902591e-01 9.516013e-01 9.390448e-01 9.133570e-01 9.217269e-01 8.807789e-01 8.630465e-01 8.722527e-01 8.625697e-01 8.295260e-01 8.802537e-01 8.053965e-01 8.008204e-01 8.369666e-01 7.606997e-01 7.632181e-01 7.233620e-01 6.065716e-01 5.807709e-01 5.391375e-01 5.246916e-01 4.852414e-01 4.730484e-01 4.337008e-01 4.224635e-01 3.824750e-01 3.718013e-01 3.317984e-01 3.218922e-01 2.826434e-01 2.731138e-01 2.347264e-01 2.246810e-01 1.871524e-01 1.758782e-01 1.394337e-01 1.266039e-01 9.161641e-02 7.726237e-02 4.399507e-02 2.820787e-02 -3.587170e-03 -2.075072e-02 -5.149835e-02 -6.933879e-02 -9.917659e-02 -1.167518e-01 -1.465676e-01 -1.637166e-01 -1.950054e-01 -2.112416e-01 -2.445478e-01 -2.585969e-01 -2.940703e-01 -3.052387e-01 -3.434065e-01 -3.517502e-01 -3.929013e-01 -3.987596e-01 -4.425850e-01 -4.466470e-01 -4.922195e-01 -4.955784e-01 -5.413954e-01 -5.456705e-01 -5.903249e-01 -5.972064e-01 -6.626895e-01 -6.736767e-01 -6.940937e-01 -6.974589e-01 -7.237977e-01 -7.215923e-01 
-6.470755e-01 -6.528310e-01 -6.778747e-01 -6.844999e-01 -7.125052e-01 -7.237380e-01 -7.544516e-01 -7.733606e-01 -8.049678e-01 -8.163927e-01 -8.520730e-01 -8.571154e-01 -8.956282e-01 -8.917631e-01 -2.445401e-01 -1.763624e-01 4.249289e-01 5.252222e-01 1.117528e+00 1.201930e+00 1.835186e+00 1.847907e+00 1.799712e+00 1.805143e+00 1.758425e+00 1.759423e+00 1.714982e+00 1.712265e+00 1.670267e+00 1.664284e+00 1.624584e+00 1.615967e+00 1.578411e+00 1.567924e+00 1.532154e+00 1.520306e+00 1.485562e+00 1.472541e+00 1.438051e+00 1.424259e+00 1.389826e+00 1.376043e+00 1.341793e+00 1.328546e+00 1.294296e+00 1.281523e+00 1.246902e+00 1.234438e+00 1.199375e+00 1.187225e+00 1.151801e+00 1.139846e+00 1.103958e+00 1.091884e+00 1.055284e+00 1.042718e+00 1.005010e+00 9.922429e-01 9.557645e-01 9.466335e-01 9.120216e-01 9.016439e-01 8.711731e-01 8.578221e-01 8.216246e-01 8.168223e-01 7.799544e-01 7.716322e-01 7.420898e-01 7.229021e-01 6.928770e-01 6.818837e-01 6.426246e-01 6.307641e-01 5.940714e-01 5.837340e-01 5.465931e-01 5.369787e-01 4.990879e-01 4.895582e-01 4.509429e-01 4.413348e-01 4.027880e-01 3.932544e-01 3.555823e-01 3.457616e-01 3.092323e-01 2.983682e-01 2.631161e-01 2.506080e-01 2.168798e-01 2.024563e-01 1.705516e-01 1.542622e-01 1.243326e-01 1.063260e-01 7.807259e-02 5.852753e-02 3.146627e-02 1.108728e-02 -1.509593e-02 -3.538849e-02 -6.158203e-02 -8.143938e-02 -1.089716e-01 -1.278163e-01 -1.572738e-01 -1.739887e-01 -2.055983e-01 -2.195814e-01 -2.537666e-01 -2.650887e-01 -3.019873e-01 -3.110568e-01 -3.502345e-01 -3.578386e-01 -3.982793e-01 -4.056188e-01 -4.457630e-01 -4.546305e-01 -4.927904e-01 -5.056936e-01 -5.412555e-01 -5.606510e-01 -5.832094e-01 -5.942231e-01 -6.166651e-01 -6.237982e-01 
-7.534894e-01 -7.538929e-01 -7.921236e-01 -7.923921e-01 -8.325859e-01 -8.347960e-01 -8.756575e-01 -8.837319e-01 -9.263933e-01 -9.309455e-01 -9.778130e-01 -9.788756e-01 -1.029173e+00 -1.028938e+00 -3.294465e-01 -2.658226e-01 3.891229e-01 4.822961e-01 1.132581e+00 1.203882e+00 1.901903e+00 1.894251e+00 1.851842e+00 1.843561e+00 1.802941e+00 1.792784e+00 1.754344e+00 1.741941e+00 1.705708e+00 1.691068e+00 1.656868e+00 1.640247e+00 1.607805e+00 1.589587e+00 1.558529e+00 1.539097e+00 1.508954e+00 1.488655e+00 1.458980e+00 1.438201e+00 1.408699e+00 1.387867e+00 1.358350e+00 1.337793e+00 1.308056e+00 1.287921e+00 1.257758e+00 1.238101e+00 1.207389e+00 1.188247e+00 1.156916e+00 1.138270e+00 1.106234e+00 1.088005e+00 1.055158e+00 1.037217e+00 1.003475e+00 9.857625e-01 9.503370e-01 9.325930e-01 8.994409e-01 8.807184e-01 8.492112e-01 8.310481e-01 7.984548e-01 7.829865e-01 7.491226e-01 7.357810e-01 7.013867e-01 6.888796e-01 6.542891e-01 6.428369e-01 6.112129e-01 5.993805e-01 5.641279e-01 5.517611e-01 5.147803e-01 5.025876e-01 4.646179e-01 4.526900e-01 4.141381e-01 4.024226e-01 3.637275e-01 3.521316e-01 3.137019e-01 3.019868e-01 2.640909e-01 2.519090e-01 2.147299e-01 2.017701e-01 1.654623e-01 1.515447e-01 1.162208e-01 1.013237e-01 6.699298e-02 5.122212e-02 1.772526e-02 1.304674e-03 -3.164893e-02 -4.832335e-02 -8.110485e-02 -9.755696e-02 -1.307074e-01 -1.465280e-01 -1.806712e-01 -1.954169e-01 -2.310016e-01 -2.441842e-01 -2.814888e-01 -2.928043e-01 -3.320057e-01 -3.414283e-01 -3.825096e-01 -3.902515e-01 -4.329268e-01 -4.394053e-01 -4.831324e-01 -4.889066e-01 -5.329899e-01 -5.386468e-01 -5.824731e-01 -5.883796e-01 -6.316630e-01 -6.375702e-01 -6.751632e-01 -6.789398e-01 -7.151122e-01 -7.168354e-01 
-6.485494e-01 -6.584723e-01 -6.862796e-01 -6.969753e-01 -7.261307e-01 -7.386224e-01 -7.694279e-01 -7.840356e-01 -8.164939e-01 -8.321499e-01 -8.664714e-01 -8.842501e-01 -9.200880e-01 -9.431681e-01 -2.302269e-01 -2.241419e-01 4.632014e-01 4.829122e-01 1.166196e+00 1.179381e+00 1.881369e+00 1.870227e+00 1.822964e+00 1.816137e+00 1.770392e+00 1.764836e+00 1.720864e+00 1.714966e+00 1.672881e+00 1.665860e+00 1.625621e+00 1.617213e+00 1.578645e+00 1.568889e+00 1.531700e+00 1.520779e+00 1.484602e+00 1.472772e+00 1.437255e+00 1.424835e+00 1.389718e+00 1.377047e+00 1.342135e+00 1.329461e+00 1.294567e+00 1.282005e+00 1.246973e+00 1.234568e+00 1.199324e+00 1.187090e+00 1.151623e+00 1.139529e+00 1.103841e+00 1.091831e+00 1.055956e+00 1.044017e+00 1.008077e+00 9.963263e-01 9.600900e-01 9.481118e-01 9.127982e-01 9.001569e-01 8.665040e-01 8.544939e-01 8.202394e-01 8.097649e-01 7.743746e-01 7.638236e-01 7.297385e-01 7.189981e-01 6.838278e-01 6.731692e-01 6.379100e-01 6.274497e-01 5.914256e-01 5.811826e-01 5.446185e-01 5.345519e-01 4.975946e-01 4.875307e-01 4.504050e-01 4.401739e-01 4.032418e-01 3.926793e-01 3.563298e-01 3.451897e-01 3.097223e-01 2.976880e-01 2.633115e-01 2.501010e-01 2.169614e-01 2.024146e-01 1.705879e-01 1.547028e-01 1.241552e-01 1.070796e-01 7.762707e-02 5.964757e-02 3.097176e-02 1.251607e-02 -1.581132e-02 -3.425340e-02 -6.279376e-02 -8.076534e-02 -1.101184e-01 -1.271577e-01 -1.577740e-01 -1.734347e-01 -2.055792e-01 -2.195968e-01 -2.533714e-01 -2.657629e-01 -3.010457e-01 -3.121010e-01 -3.484804e-01 -3.587204e-01 -3.954895e-01 -4.055872e-01 -4.418164e-01 -4.524634e-01 -4.871599e-01 -4.987970e-01 -5.310873e-01 -5.434008e-01 -5.724755e-01 -5.837061e-01 -6.111938e-01 -6.213890e-01 
-7.539102e-01 -7.560010e-01 -7.951388e-01 -7.974702e-01 -8.378954e-01 -8.415046e-01 -8.833393e-01 -8.889272e-01 -9.326534e-01 -9.389942e-01 -9.851351e-01 -9.931468e-01 -1.041319e+00 -1.054502e+00 -3.157093e-01 -2.939287e-01 4.167319e-01 4.525157e-01 1.162955e+00 1.184020e+00 1.924385e+00 1.905606e+00 1.863605e+00 1.849024e+00 1.808780e+00 1.795330e+00 1.757010e+00 1.743106e+00 1.706742e+00 1.691670e+00 1.657141e+00 1.640680e+00 1.607734e+00 1.589943e+00 1.558243e+00 1.539341e+00 1.508536e+00 1.488837e+00 1.458604e+00 1.438460e+00 1.408514e+00 1.388239e+00 1.358322e+00 1.338149e+00 1.308030e+00 1.288113e+00 1.257621e+00 1.238064e+00 1.207109e+00 1.187978e+00 1.156518e+00 1.137823e+00 1.105840e+00 1.087549e+00 1.055052e+00 1.037116e+00 1.004167e+00 9.865416e-01 9.532733e-01 9.359184e-01 9.027654e-01 8.856908e-01 8.526128e-01 8.361334e-01 8.027645e-01 7.872505e-01 7.534332e-01 7.389133e-01 7.046827e-01 6.909884e-01 6.564122e-01 6.434084e-01 6.085731e-01 5.960098e-01 5.602935e-01 5.480261e-01 5.114338e-01 4.994133e-01 4.621177e-01 4.502596e-01 4.125113e-01 4.007079e-01 3.628186e-01 3.509429e-01 3.132319e-01 3.011123e-01 2.638402e-01 2.512625e-01 2.146065e-01 2.013687e-01 1.654336e-01 1.514119e-01 1.162343e-01 1.014229e-01 6.696021e-02 5.148443e-02 1.760123e-02 1.706943e-03 -3.183580e-02 -4.781826e-02 -8.136906e-02 -9.707658e-02 -1.310701e-01 -1.461392e-01 -1.810199e-01 -1.950919e-01 -2.312174e-01 -2.439666e-01 -2.815579e-01 -2.927691e-01 -3.319076e-01 -3.415489e-01 -3.821658e-01 -3.903953e-01 -4.322428e-01 -4.393554e-01 -4.820036e-01 -4.883471e-01 -5.312320e-01 -5.370976e-01 -5.795904e-01 -5.850739e-01 -6.264898e-01 -6.313775e-01 -6.707877e-01 -6.745776e-01 -7.129001e-01 -7.155974e-01 
-6.485389e-01 -6.584531e-01 -6.862506e-01 -6.969321e-01 -7.260792e-01 -7.385482e-01 -7.693501e-01 -7.839260e-01 -8.164019e-01 -8.320228e-01 -8.663914e-01 -8.841096e-01 -9.200098e-01 -9.429881e-01 -2.301825e-01 -2.240348e-01 4.632066e-01 4.829421e-01 1.166154e+00 1.179324e+00 1.881287e+00 1.870082e+00 1.822803e+00 1.815910e+00 1.770154e+00 1.764521e+00 1.720558e+00 1.714610e+00 1.672606e+00 1.665605e+00 1.625525e+00 1.617172e+00 1.578756e+00 1.568994e+00 1.531858e+00 1.520840e+00 1.484640e+00 1.472719e+00 1.437215e+00 1.424821e+00 1.389793e+00 1.377244e+00 1.342415e+00 1.329852e+00 1.294938e+00 1.282413e+00 1.247261e+00 1.234855e+00 1.199480e+00 1.187279e+00 1.151756e+00 1.139747e+00 1.104122e+00 1.092226e+00 1.056562e+00 1.044729e+00 1.009149e+00 9.973593e-01 9.619636e-01 9.501396e-01 9.150595e-01 9.031798e-01 8.683975e-01 8.566631e-01 8.218751e-01 8.104536e-01 7.755119e-01 7.643203e-01 7.292910e-01 7.183203e-01 6.829422e-01 6.722673e-01 6.365184e-01 6.262085e-01 5.900485e-01 5.800708e-01 5.435080e-01 5.336806e-01 4.967606e-01 4.868418e-01 4.497585e-01 4.395625e-01 4.026883e-01 3.920835e-01 3.558582e-01 3.446652e-01 3.094246e-01 2.973489e-01 2.632638e-01 2.499917e-01 2.171368e-01 2.024731e-01 1.708611e-01 1.547884e-01 1.243597e-01 1.070676e-01 7.769061e-02 5.956455e-02 3.098875e-02 1.249603e-02 -1.572892e-02 -3.414905e-02 -6.263644e-02 -8.056996e-02 -1.099412e-01 -1.269603e-01 -1.576765e-01 -1.733399e-01 -2.056122e-01 -2.195961e-01 -2.534495e-01 -2.657484e-01 -3.010636e-01 -3.120197e-01 -3.484307e-01 -3.586121e-01 -3.954310e-01 -4.055197e-01 -4.418083e-01 -4.524743e-01 -4.872074e-01 -4.988507e-01 -5.311358e-01 -5.434438e-01 -5.725033e-01 -5.837277e-01 -6.112012e-01 -6.213900e-01 
-7.534814e-01 -7.538733e-01 -7.920900e-01 -7.923383e-01 -8.325213e-01 -8.346986e-01 -8.755557e-01 -8.835836e-01 -9.262827e-01 -9.307768e-01 -9.777445e-01 -9.786764e-01 -1.029116e+00 -1.028589e+00 -3.293003e-01 -2.655193e-01 3.892146e-01 4.824949e-01 1.132501e+00 1.203833e+00 1.901725e+00 1.893677e+00 1.851420e+00 1.842866e+00 1.802356e+00 1.791979e+00 1.753651e+00 1.741114e+00 1.705104e+00 1.690482e+00 1.656637e+00 1.640107e+00 1.607996e+00 1.589755e+00 1.558826e+00 1.539190e+00 1.509015e+00 1.488516e+00 1.458861e+00 1.438090e+00 1.408736e+00 1.388088e+00 1.358691e+00 1.338293e+00 1.308469e+00 1.288348e+00 1.257896e+00 1.238175e+00 1.207141e+00 1.187970e+00 1.156454e+00 1.137842e+00 1.105863e+00 1.087703e+00 1.055304e+00 1.037545e+00 1.004867e+00 9.875094e-01 9.546674e-01 9.376600e-01 9.046754e-01 8.879800e-01 8.547880e-01 8.385244e-01 8.050033e-01 7.893279e-01 7.554212e-01 7.403922e-01 7.060566e-01 6.917147e-01 6.568007e-01 6.432463e-01 6.076825e-01 5.949647e-01 5.587623e-01 5.467887e-01 5.098983e-01 4.983881e-01 4.607705e-01 4.494131e-01 4.112246e-01 3.998425e-01 3.614829e-01 3.500145e-01 3.119811e-01 3.003134e-01 2.629568e-01 2.507915e-01 2.142394e-01 2.012193e-01 1.655098e-01 1.514077e-01 1.165463e-01 1.013207e-01 6.726641e-02 5.110281e-02 1.778873e-02 1.100332e-03 -3.163835e-02 -4.838046e-02 -8.096247e-02 -9.737884e-02 -1.304385e-01 -1.461899e-01 -1.803775e-01 -1.950791e-01 -2.308611e-01 -2.440381e-01 -2.815898e-01 -2.928249e-01 -3.321755e-01 -3.414038e-01 -3.825465e-01 -3.900849e-01 -4.328229e-01 -4.391782e-01 -4.830030e-01 -4.887510e-01 -5.329521e-01 -5.386425e-01 -5.825435e-01 -5.884641e-01 -6.317374e-01 -6.376425e-01 -6.752087e-01 -6.789811e-01 -7.151293e-01 -7.168459e-01 
-6.470464e-01 -6.527879e-01 -6.778039e-01 -6.843987e-01 -7.123654e-01 -7.235329e-01 -7.541706e-01 -7.729604e-01 -8.045862e-01 -8.159951e-01 -8.518741e-01 -8.567981e-01 -8.954843e-01 -8.911862e-01 -2.443852e-01 -1.760238e-01 4.249790e-01 5.253499e-01 1.117368e+00 1.201766e+00 1.834963e+00 1.847466e+00 1.799232e+00 1.804481e+00 1.757669e+00 1.758294e+00 1.713672e+00 1.710631e+00 1.668845e+00 1.663064e+00 1.624181e+00 1.616112e+00 1.579382e+00 1.569004e+00 1.533300e+00 1.520767e+00 1.485503e+00 1.471780e+00 1.437166e+00 1.423521e+00 1.389691e+00 1.376699e+00 1.343092e+00 1.330427e+00 1.296112e+00 1.283299e+00 1.247957e+00 1.235219e+00 1.199413e+00 1.187282e+00 1.151523e+00 1.139925e+00 1.104105e+00 1.092517e+00 1.056571e+00 1.044915e+00 1.009291e+00 9.977742e-01 9.627004e-01 9.511201e-01 9.163477e-01 9.044264e-01 8.697320e-01 8.576032e-01 8.228734e-01 8.108368e-01 7.760776e-01 7.642828e-01 7.293545e-01 7.178516e-01 6.823507e-01 6.713794e-01 6.352958e-01 6.252722e-01 5.889459e-01 5.799630e-01 5.432216e-01 5.346012e-01 4.969443e-01 4.879136e-01 4.493840e-01 4.397498e-01 4.011740e-01 3.912448e-01 3.538010e-01 3.437328e-01 3.080355e-01 2.971736e-01 2.630811e-01 2.505273e-01 2.179072e-01 2.031958e-01 1.720374e-01 1.550172e-01 1.252350e-01 1.061842e-01 7.788568e-02 5.774249e-02 3.106935e-02 1.078155e-02 -1.488680e-02 -3.494187e-02 -6.088998e-02 -8.049702e-02 -1.080415e-01 -1.268061e-01 -1.567779e-01 -1.737382e-01 -2.060389e-01 -2.200104e-01 -2.544217e-01 -2.652577e-01 -3.020711e-01 -3.106531e-01 -3.498498e-01 -3.572434e-01 -3.978674e-01 -4.052655e-01 -4.457183e-01 -4.548054e-01 -4.931509e-01 -5.060692e-01 -5.414885e-01 -5.608231e-01 -5.832917e-01 -5.942842e-01 -6.166773e-01 -6.238002e-01 
-7.521804e-01 -7.461755e-01 -7.819818e-01 -7.719152e-01 -8.170960e-01 -8.002769e-01 -8.327711e-01 -8.819173e-01 -9.115043e-01 -9.154202e-01 -9.639701e-01 -9.505338e-01 -1.010657e+00 -9.286234e-01 -4.264606e-01 -1.931582e-01 2.349722e-01 5.810070e-01 9.503155e-01 1.291381e+00 1.752170e+00 1.808032e+00 1.762608e+00 1.765061e+00 1.723779e+00 1.718136e+00 1.680295e+00 1.669429e+00 1.635125e+00 1.620929e+00 1.589913e+00 1.573250e+00 1.544432e+00 1.525333e+00 1.497247e+00 1.475867e+00 1.447819e+00 1.425338e+00 1.397700e+00 1.375693e+00 1.348737e+00 1.327889e+00 1.300948e+00 1.280789e+00 1.252677e+00 1.232567e+00 1.202867e+00 1.183114e+00 1.152534e+00 1.133869e+00 1.103020e+00 1.085381e+00 1.054043e+00 1.036787e+00 1.004798e+00 9.878859e-01 9.557959e-01 9.395286e-01 9.076511e-01 8.917820e-01 8.598080e-01 8.437634e-01 8.115478e-01 7.957052e-01 7.628496e-01 7.476092e-01 7.143262e-01 6.993819e-01 6.660931e-01 6.514237e-01 6.171231e-01 6.035413e-01 5.679354e-01 5.560288e-01 5.202221e-01 5.100372e-01 4.736828e-01 4.642479e-01 4.265644e-01 4.168781e-01 3.777765e-01 3.676594e-01 3.280544e-01 3.180239e-01 2.792899e-01 2.696890e-01 2.324805e-01 2.225839e-01 1.866032e-01 1.753492e-01 1.403797e-01 1.272337e-01 9.327587e-02 7.802740e-02 4.502274e-02 2.792209e-02 -3.875388e-03 -2.178215e-02 -5.199463e-02 -6.969958e-02 -9.888917e-02 -1.161669e-01 -1.457267e-01 -1.625627e-01 -1.939253e-01 -2.100527e-01 -2.440683e-01 -2.584201e-01 -2.948034e-01 -3.059175e-01 -3.443547e-01 -3.520107e-01 -3.930169e-01 -3.981949e-01 -4.420239e-01 -4.457823e-01 -4.915881e-01 -4.950115e-01 -5.412462e-01 -5.458156e-01 -5.907354e-01 -5.976561e-01 -6.629295e-01 -6.738913e-01 -6.941833e-01 -6.975403e-01 -7.238190e-01 -7.216111e-01 
-6.443756e-01 -6.371521e-01 -6.547819e-01 -6.427023e-01 -6.637960e-01 -6.394277e-01 -6.230460e-01 -7.078953e-01 -6.778352e-01 -7.108584e-01 -6.987293e-01 -7.228931e-01 -7.160015e-01 -6.666715e-01 -5.272164e-01 -4.368517e-01 -3.245409e-01 -1.928049e-01 -1.069307e-01 3.162053e-02 1.373170e-01 2.058461e-01 1.819426e-01 1.909887e-01 1.667062e-01 1.758756e-01 1.511181e-01 1.604166e-01 1.353013e-01 1.443188e-01 1.190771e-01 1.275305e-01 1.026618e-01 1.105077e-01 8.660223e-02 9.378392e-02 7.110586e-02 7.726790e-02 5.564566e-02 6.037441e-02 3.960990e-02 4.288624e-02 2.305118e-02 2.532421e-02 6.609126e-03 8.413698e-03 -9.327256e-03 -7.794225e-03 -2.514174e-02 -2.384186e-02 -4.132454e-02 -3.994601e-02 -5.774333e-02 -5.579663e-02 -7.403880e-02 -7.132511e-02 -9.031438e-02 -8.693628e-02 -1.067262e-01 -1.026655e-01 -1.230470e-01 -1.186487e-01 -1.392774e-01 -1.343342e-01 -1.556713e-01 -1.504544e-01 -1.721231e-01 -1.677634e-01 -1.885889e-01 -1.852438e-01 -2.059612e-01 -2.026704e-01 -2.237935e-01 -2.205289e-01 -2.409643e-01 -2.379071e-01 -2.576190e-01 -2.546990e-01 -2.735137e-01 -2.705064e-01 -2.885382e-01 -2.853976e-01 -3.031497e-01 -2.999933e-01 -3.181326e-01 -3.149674e-01 -3.338632e-01 -3.303161e-01 -3.499302e-01 -3.455591e-01 -3.658011e-01 -3.604390e-01 -3.812049e-01 -3.749096e-01 -3.959864e-01 -3.891011e-01 -4.103089e-01 -4.035622e-01 -4.246910e-01 -4.188560e-01 -4.393066e-01 -4.348880e-01 -4.537580e-01 -4.511416e-01 -4.675667e-01 -4.671214e-01 -4.805748e-01 -4.827901e-01 -4.933717e-01 -4.986539e-01 -5.067657e-01 -5.147893e-01 -5.208752e-01 -5.305597e-01 -5.355186e-01 -5.454140e-01 -5.508993e-01 -5.591684e-01 -5.675058e-01 -5.714778e-01 -5.858493e-01 -5.810900e-01 -6.386420e-01 -6.205099e-01 -6.290827e-01 -6.215363e-01 -6.347695e-01 -6.287495e-01 
-7.462510e-01 -7.351267e-01 -7.524179e-01 -7.421068e-01 -7.530334e-01 -7.420489e-01 -7.251788e-01 -7.692837e-01 -7.410984e-01 -7.723074e-01 -7.493114e-01 -7.808838e-01 -7.616327e-01 -7.740499e-01 -7.148261e-01 -7.163627e-01 -6.681189e-01 -6.563879e-01 -6.180436e-01 -6.011044e-01 -5.576536e-01 -5.570055e-01 -5.566715e-01 -5.665656e-01 -5.678957e-01 -5.712485e-01 -5.752695e-01 -5.741843e-01 -5.813581e-01 -5.776324e-01 -5.876655e-01 -5.822927e-01 -5.938905e-01 -5.870752e-01 -5.985464e-01 -5.905715e-01 -6.010725e-01 -5.931803e-01 -6.030551e-01 -5.967764e-01 -6.063795e-01 -6.022108e-01 -6.110451e-01 -6.081901e-01 -6.153239e-01 -6.127407e-01 -6.181227e-01 -6.157138e-01 -6.205102e-01 -6.186084e-01 -6.238759e-01 -6.220102e-01 -6.278912e-01 -6.250394e-01 -6.316489e-01 -6.275231e-01 -6.355893e-01 -6.304804e-01 -6.402650e-01 -6.340432e-01 -6.451365e-01 -6.377734e-01 -6.496295e-01 -6.411166e-01 -6.539340e-01 -6.449279e-01 -6.583839e-01 -6.500502e-01 -6.630121e-01 -6.555155e-01 -6.682322e-01 -6.609896e-01 -6.738680e-01 -6.670064e-01 -6.793569e-01 -6.731366e-01 -6.846125e-01 -6.784200e-01 -6.883784e-01 -6.813872e-01 -6.899746e-01 -6.820384e-01 -6.904791e-01 -6.820444e-01 -6.920296e-01 -6.832856e-01 -6.956993e-01 -6.857269e-01 -7.003703e-01 -6.879758e-01 -7.046141e-01 -6.892778e-01 -7.077650e-01 -6.894675e-01 -7.094601e-01 -6.888326e-01 -7.101811e-01 -6.888218e-01 -7.113921e-01 -6.909496e-01 -7.135673e-01 -6.948971e-01 -7.155288e-01 -6.991941e-01 -7.158594e-01 -7.025218e-01 -7.140583e-01 -7.049534e-01 -7.117073e-01 -7.081293e-01 -7.109031e-01 -7.124319e-01 -7.116601e-01 -7.161689e-01 -7.130636e-01 -7.178913e-01 -7.152763e-01 -7.173165e-01 -7.191985e-01 -7.143719e-01 -7.255960e-01 -7.087705e-01 -7.453845e-01 -7.117654e-01 -7.360494e-01 -7.167233e-01 -7.393052e-01 -7.256095e-01 
-6.394500e-01 -6.340040e-01 -6.389500e-01 -6.372603e-01 -6.344949e-01 -6.391896e-01 -6.228340e-01 -6.454625e-01 -6.227577e-01 -6.449909e-01 -6.241523e-01 -6.402839e-01 -6.257880e-01 -6.302019e-01 -6.268506e-01 -6.234460e-01 -6.284495e-01 -6.182760e-01 -6.295098e-01 -6.138035e-01 -6.284283e-01 -6.094403e-01 -6.231939e-01 -6.072049e-01 -6.212439e-01 -6.058198e-01 -6.208285e-01 -6.050813e-01 -6.214262e-01 -6.053015e-01 -6.228538e-01 -6.064768e-01 -6.245536e-01 -6.079864e-01 -6.256664e-01 -6.091274e-01 -6.258336e-01 -6.099817e-01 -6.256856e-01 -6.113020e-01 -6.260732e-01 -6.134587e-01 -6.270824e-01 -6.158875e-01 -6.280114e-01 -6.176712e-01 -6.283670e-01 -6.186468e-01 -6.285673e-01 -6.193916e-01 -6.291915e-01 -6.201437e-01 -6.300932e-01 -6.205409e-01 -6.308535e-01 -6.205237e-01 -6.315984e-01 -6.205705e-01 -6.325295e-01 -6.208729e-01 -6.337307e-01 -6.215358e-01 -6.349773e-01 -6.224171e-01 -6.363005e-01 -6.239059e-01 -6.378958e-01 -6.264076e-01 -6.398638e-01 -6.293888e-01 -6.424388e-01 -6.325763e-01 -6.455973e-01 -6.360771e-01 -6.484031e-01 -6.393100e-01 -6.506080e-01 -6.416776e-01 -6.516702e-01 -6.424998e-01 -6.513927e-01 -6.418484e-01 -6.504391e-01 -6.406173e-01 -6.499330e-01 -6.397549e-01 -6.504190e-01 -6.393002e-01 -6.513864e-01 -6.386527e-01 -6.521116e-01 -6.374728e-01 -6.521993e-01 -6.357443e-01 -6.514595e-01 -6.337195e-01 -6.501012e-01 -6.321368e-01 -6.487442e-01 -6.317305e-01 -6.476018e-01 -6.324020e-01 -6.461478e-01 -6.334315e-01 -6.437241e-01 -6.341364e-01 -6.401999e-01 -6.345064e-01 -6.364491e-01 -6.351719e-01 -6.335653e-01 -6.361654e-01 -6.317511e-01 -6.366160e-01 -6.307962e-01 -6.357737e-01 -6.309233e-01 -6.335128e-01 -6.326530e-01 -6.300921e-01 -6.363434e-01 -6.262160e-01 -6.417371e-01 -6.236602e-01 -6.389677e-01 -6.262291e-01 -6.387171e-01 -6.299665e-01 
