# vtk DataFile Version 2.0
Comment goes here
ASCII

DATASET STRUCTURED_POINTS
FIELD FieldData 1
TIME 1 1 double
0.51000000
DIMENSIONS    128   16   1

ORIGIN    0.000   0.000   0.000
SPACING   0.0078125 0.015625   1.000

POINT_DATA   2048
SCALARS P double
LOOKUP_TABLE default

-9.370982e-01 -9.189055e-01 -9.389964e-01 -9.252031e-01 -9.390949e-01 -9.320594e-01 -9.379809e-01 -9.461187e-01 -9.350042e-01 -9.540167e-01 -9.299225e-01 -9.537256e-01 -9.173152e-01 -9.376840e-01 -8.846035e-01 -8.977617e-01 -8.427661e-01 -8.518143e-01 -7.983339e-01 -8.081637e-01 -7.595848e-01 -7.726167e-01 -7.437824e-01 -7.590284e-01 -7.409486e-01 -7.549881e-01 -7.440787e-01 -7.558293e-01 -7.503599e-01 -7.590459e-01 -7.575537e-01 -7.624717e-01 -7.639204e-01 -7.650857e-01 -7.691958e-01 -7.673515e-01 -7.741543e-01 -7.701352e-01 -7.793715e-01 -7.736614e-01 -7.846553e-01 -7.774752e-01 -7.894873e-01 -7.811495e-01 -7.936789e-01 -7.846196e-01 -7.972855e-01 -7.878692e-01 -8.003351e-01 -7.909302e-01 -8.030387e-01 -7.940688e-01 -8.056293e-01 -7.971836e-01 -8.074665e-01 -7.990442e-01 -8.066078e-01 -7.972469e-01 -7.989014e-01 -7.915202e-01 -7.979764e-01 -7.848284e-01 -7.949321e-01 -7.823734e-01 -7.842958e-01 -7.809326e-01 -7.816677e-01 -7.752938e-01 -7.835372e-01 -7.686268e-01 -7.788306e-01 -7.743840e-01 -7.819685e-01 -7.752189e-01 -7.855187e-01 -7.774032e-01 -7.899405e-01 -7.805280e-01 -7.952224e-01 -7.843826e-01 -8.010071e-01 -7.885060e-01 -8.068230e-01 -7.926931e-01 -8.125705e-01 -7.971534e-01 -8.183915e-01 -8.021547e-01 -8.243111e-01 -8.077595e-01 -8.301909e-01 -8.139407e-01 -8.359593e-01 -8.207477e-01 -8.416486e-01 -8.281450e-01 -8.471428e-01 -8.357822e-01 -8.521707e-01 -8.432678e-01 -8.567747e-01 -8.505805e-01 -8.614433e-01 -8.579209e-01 -8.667805e-01 -8.653666e-01 -8.730714e-01 -8.723995e-01 -8.798159e-01 -8.778933e-01 -8.863285e-01 -8.813607e-01 -8.929813e-01 -8.836776e-01 -9.008666e-01 -8.859272e-01 -9.102028e-01 -8.882153e-01 -9.198597e-01 -8.902913e-01 -9.284209e-01 -8.931176e-01 -9.347456e-01 -9.008464e-01 -9.345212e-01 -9.062261e-01 -9.350591e-01 -9.123206e-01 
-7.922181e-01 -7.788897e-01 -7.908922e-01 -7.802862e-01 -7.878306e-01 -7.806987e-01 -7.824991e-01 -7.937133e-01 -7.791512e-01 -8.008098e-01 -7.789097e-01 -8.033442e-01 -7.810800e-01 -8.010029e-01 -7.858225e-01 -8.034959e-01 -7.931349e-01 -8.062143e-01 -8.010375e-01 -8.081189e-01 -8.074295e-01 -8.074891e-01 -8.068265e-01 -8.058160e-01 -8.064022e-01 -8.041986e-01 -8.076222e-01 -8.041647e-01 -8.104117e-01 -8.046252e-01 -8.131216e-01 -8.045548e-01 -8.150352e-01 -8.035137e-01 -8.156047e-01 -8.017178e-01 -8.161525e-01 -8.015787e-01 -8.187344e-01 -8.035838e-01 -8.218142e-01 -8.051837e-01 -8.232690e-01 -8.055100e-01 -8.233022e-01 -8.049563e-01 -8.220693e-01 -8.035047e-01 -8.199697e-01 -8.020324e-01 -8.179698e-01 -8.008555e-01 -8.155387e-01 -7.990587e-01 -8.119256e-01 -7.961025e-01 -8.055995e-01 -7.886580e-01 -7.900665e-01 -7.755492e-01 -7.839574e-01 -7.631692e-01 -7.772580e-01 -7.611439e-01 -7.658392e-01 -7.602082e-01 -7.617149e-01 -7.515900e-01 -7.629745e-01 -7.451370e-01 -7.572716e-01 -7.480088e-01 -7.545542e-01 -7.441853e-01 -7.539794e-01 -7.424984e-01 -7.539582e-01 -7.412377e-01 -7.546139e-01 -7.410746e-01 -7.561600e-01 -7.411662e-01 -7.573424e-01 -7.410645e-01 -7.587279e-01 -7.418484e-01 -7.605512e-01 -7.429370e-01 -7.618982e-01 -7.443288e-01 -7.635110e-01 -7.469400e-01 -7.653890e-01 -7.499413e-01 -7.665672e-01 -7.531449e-01 -7.678362e-01 -7.574416e-01 -7.694382e-01 -7.618076e-01 -7.702395e-01 -7.656156e-01 -7.712302e-01 -7.701196e-01 -7.735225e-01 -7.748479e-01 -7.763638e-01 -7.786723e-01 -7.793664e-01 -7.806726e-01 -7.815446e-01 -7.796525e-01 -7.830203e-01 -7.771577e-01 -7.861887e-01 -7.751516e-01 -7.912488e-01 -7.728845e-01 -7.964420e-01 -7.700731e-01 -8.012510e-01 -7.685112e-01 -8.047102e-01 -7.728834e-01 -7.972820e-01 -7.745160e-01 -7.936446e-01 -7.766478e-01 
-9.363383e-01 -9.184780e-01 -9.416768e-01 -9.231049e-01 -9.405638e-01 -9.169724e-01 -9.410110e-01 -9.580280e-01 -9.397917e-01 -9.718353e-01 -9.470430e-01 -9.879996e-01 -9.605326e-01 -9.880332e-01 -9.052350e-01 -9.124246e-01 -8.503389e-01 -8.497164e-01 -7.895763e-01 -7.945276e-01 -7.168076e-01 -7.322364e-01 -7.201553e-01 -7.411457e-01 -7.291546e-01 -7.450403e-01 -7.372613e-01 -7.501670e-01 -7.463820e-01 -7.550161e-01 -7.542185e-01 -7.586525e-01 -7.607371e-01 -7.607450e-01 -7.647230e-01 -7.611509e-01 -7.688780e-01 -7.653594e-01 -7.782090e-01 -7.744885e-01 -7.889079e-01 -7.822839e-01 -7.960321e-01 -7.871158e-01 -8.005857e-01 -7.902804e-01 -8.030068e-01 -7.917694e-01 -8.044235e-01 -7.941073e-01 -8.076380e-01 -7.984782e-01 -8.120814e-01 -8.040956e-01 -8.191708e-01 -8.146047e-01 -8.355805e-01 -8.155052e-01 -7.713301e-01 -7.969353e-01 -8.089109e-01 -7.667722e-01 -8.280454e-01 -7.767178e-01 -7.470796e-01 -7.954463e-01 -7.579057e-01 -7.751232e-01 -8.084912e-01 -7.114367e-01 -7.426696e-01 -7.919143e-01 -7.783577e-01 -7.698716e-01 -7.841503e-01 -7.767234e-01 -7.901524e-01 -7.801959e-01 -7.952693e-01 -7.843150e-01 -8.014456e-01 -7.880177e-01 -8.061564e-01 -7.906439e-01 -8.113121e-01 -7.951039e-01 -8.175343e-01 -7.995455e-01 -8.223439e-01 -8.039031e-01 -8.279797e-01 -8.107172e-01 -8.345205e-01 -8.176370e-01 -8.392609e-01 -8.241952e-01 -8.444720e-01 -8.332511e-01 -8.510421e-01 -8.424422e-01 -8.557106e-01 -8.501450e-01 -8.605949e-01 -8.597182e-01 -8.680433e-01 -8.699808e-01 -8.757343e-01 -8.787263e-01 -8.832977e-01 -8.849332e-01 -8.888125e-01 -8.859049e-01 -8.921120e-01 -8.847890e-01 -8.984341e-01 -8.854910e-01 -9.080057e-01 -8.853980e-01 -9.173563e-01 -8.831466e-01 -9.273289e-01 -8.783202e-01 -9.438678e-01 -9.026430e-01 -9.307538e-01 -9.030364e-01 -9.306530e-01 -9.101320e-01 
-7.905369e-01 -7.811058e-01 -7.967993e-01 -7.832032e-01 -7.959612e-01 -7.723035e-01 -8.287173e-01 -8.606320e-01 -8.416959e-01 -8.756463e-01 -8.629708e-01 -8.956140e-01 -8.816470e-01 -8.475135e-01 -6.559301e-01 -5.502366e-01 -4.131353e-01 -2.860248e-01 -1.460325e-01 -4.811662e-02 1.491817e-01 1.950633e-01 1.810501e-01 1.828736e-01 1.659756e-01 1.687186e-01 1.489959e-01 1.521343e-01 1.301075e-01 1.339875e-01 1.102262e-01 1.147525e-01 8.960210e-02 9.493801e-02 6.914985e-02 7.522191e-02 4.864333e-02 5.451302e-02 2.712194e-02 3.315295e-02 6.467028e-03 1.377353e-02 -1.134807e-02 -2.955047e-03 -2.685714e-02 -1.788089e-02 -4.088724e-02 -3.183414e-02 -5.475546e-02 -4.666795e-02 -7.031345e-02 -6.361631e-02 -8.804974e-02 -8.302253e-02 -1.088504e-01 -1.064109e-01 -1.412576e-01 -8.558393e-02 7.465419e-02 -5.945847e-02 -1.123590e-01 1.159974e-02 -2.159496e-01 -5.101693e-02 3.777763e-02 -1.639141e-01 -3.615682e-02 -1.320574e-01 -2.644842e-01 3.656808e-02 -1.164593e-01 -3.071552e-01 -2.457544e-01 -2.317002e-01 -2.537401e-01 -2.500465e-01 -2.726544e-01 -2.688329e-01 -2.929553e-01 -2.897320e-01 -3.153054e-01 -3.119393e-01 -3.382724e-01 -3.345241e-01 -3.616581e-01 -3.575791e-01 -3.846679e-01 -3.795333e-01 -4.056591e-01 -3.998265e-01 -4.251148e-01 -4.192607e-01 -4.432104e-01 -4.374126e-01 -4.596725e-01 -4.550026e-01 -4.763493e-01 -4.741018e-01 -4.945500e-01 -4.946814e-01 -5.137943e-01 -5.166052e-01 -5.350931e-01 -5.409626e-01 -5.589584e-01 -5.666911e-01 -5.838452e-01 -5.920817e-01 -6.087209e-01 -6.157739e-01 -6.320785e-01 -6.360444e-01 -6.533136e-01 -6.535476e-01 -6.740373e-01 -6.696000e-01 -6.946439e-01 -6.837105e-01 -7.148932e-01 -6.956092e-01 -7.373424e-01 -6.980809e-01 -7.821523e-01 -7.763095e-01 -7.799201e-01 -7.705126e-01 -7.831160e-01 -7.747611e-01 
-9.369921e-01 -9.330060e-01 -9.702936e-01 -9.645173e-01 -1.006266e+00 -1.000429e+00 -1.085560e+00 -1.099591e+00 -1.145592e+00 -1.146697e+00 -1.208170e+00 -1.196395e+00 -1.266871e+00 -1.193421e+00 -5.449350e-01 -1.694843e-01 2.695945e-01 6.957950e-01 1.163607e+00 1.473916e+00 2.184604e+00 2.216070e+00 2.170663e+00 2.163521e+00 2.117191e+00 2.107597e+00 2.062987e+00 2.052526e+00 2.008813e+00 1.995664e+00 1.951932e+00 1.935824e+00 1.892551e+00 1.873180e+00 1.830233e+00 1.808519e+00 1.768672e+00 1.748407e+00 1.713910e+00 1.695061e+00 1.663097e+00 1.643118e+00 1.611793e+00 1.591143e+00 1.560654e+00 1.539783e+00 1.509074e+00 1.487806e+00 1.456813e+00 1.436324e+00 1.405467e+00 1.385557e+00 1.353969e+00 1.334600e+00 1.304324e+00 1.288299e+00 1.258233e+00 1.285907e+00 1.394475e+00 1.253460e+00 1.181828e+00 1.256457e+00 1.038347e+00 1.142498e+00 1.169831e+00 9.763313e-01 1.047519e+00 9.394404e-01 7.952765e-01 9.970665e-01 8.221590e-01 6.627788e-01 6.934293e-01 6.930805e-01 6.593785e-01 6.471515e-01 6.075140e-01 5.915430e-01 5.493024e-01 5.313529e-01 4.878197e-01 4.671016e-01 4.221904e-01 3.998246e-01 3.561017e-01 3.341545e-01 2.920333e-01 2.699434e-01 2.289938e-01 2.081187e-01 1.697652e-01 1.513462e-01 1.142047e-01 9.668629e-02 5.856883e-02 4.226270e-02 3.348697e-03 -1.083469e-02 -5.225162e-02 -6.619348e-02 -1.125833e-01 -1.261016e-01 -1.761482e-01 -1.871576e-01 -2.402876e-01 -2.494237e-01 -3.061094e-01 -3.133735e-01 -3.724099e-01 -3.781452e-01 -4.395486e-01 -4.449350e-01 -5.067291e-01 -5.100009e-01 -5.685340e-01 -5.696444e-01 -6.251799e-01 -6.272928e-01 -6.812979e-01 -6.851960e-01 -7.388355e-01 -7.368581e-01 -8.127117e-01 -8.420080e-01 -8.653148e-01 -8.730047e-01 -9.031365e-01 -9.029638e-01 
-7.937438e-01 -8.007053e-01 -8.317632e-01 -8.399410e-01 -8.756954e-01 -8.897627e-01 -9.369240e-01 -9.475284e-01 -9.939947e-01 -9.988458e-01 -1.049176e+00 -1.048280e+00 -1.100964e+00 -1.090404e+00 -3.048313e-01 -2.158349e-01 5.129155e-01 6.270820e-01 1.358767e+00 1.442329e+00 2.231382e+00 2.242810e+00 2.188054e+00 2.191723e+00 2.136675e+00 2.137814e+00 2.084317e+00 2.084285e+00 2.031951e+00 2.029457e+00 1.977790e+00 1.972580e+00 1.922010e+00 1.913792e+00 1.864261e+00 1.853684e+00 1.807211e+00 1.797031e+00 1.755167e+00 1.745308e+00 1.705810e+00 1.694331e+00 1.655617e+00 1.642845e+00 1.604957e+00 1.591311e+00 1.553467e+00 1.538971e+00 1.501110e+00 1.486753e+00 1.449041e+00 1.434690e+00 1.396101e+00 1.381551e+00 1.342659e+00 1.329365e+00 1.290642e+00 1.280195e+00 1.241907e+00 1.209138e+00 1.160263e+00 1.145318e+00 1.085274e+00 1.076828e+00 1.028882e+00 1.000930e+00 9.634814e-01 9.388944e-01 8.897156e-01 8.842921e-01 8.263222e-01 8.100106e-01 7.778808e-01 7.716054e-01 7.339380e-01 7.233287e-01 6.826207e-01 6.686417e-01 6.269645e-01 6.110314e-01 5.691622e-01 5.506565e-01 5.084372e-01 4.881296e-01 4.473282e-01 4.266929e-01 3.874392e-01 3.660604e-01 3.278724e-01 3.068360e-01 2.706203e-01 2.509824e-01 2.155895e-01 1.964165e-01 1.601600e-01 1.419649e-01 1.049536e-01 8.868820e-02 4.961899e-02 3.409600e-02 -8.893231e-03 -2.340688e-02 -6.935891e-02 -8.132676e-02 -1.298410e-01 -1.398960e-01 -1.913192e-01 -1.997622e-01 -2.531439e-01 -2.606057e-01 -3.157593e-01 -3.234699e-01 -3.785962e-01 -3.855949e-01 -4.375935e-01 -4.441732e-01 -4.927716e-01 -5.016151e-01 -5.472743e-01 -5.597429e-01 -6.016374e-01 -6.180375e-01 -6.570764e-01 -6.822844e-01 -7.132472e-01 -7.272915e-01 -7.560025e-01 -7.647840e-01 
-9.401326e-01 -9.420277e-01 -9.889047e-01 -9.898885e-01 -1.041121e+00 -1.042499e+00 -1.100290e+00 -1.102657e+00 -1.160527e+00 -1.160997e+00 -1.221469e+00 -1.219450e+00 -1.282046e+00 -1.278315e+00 -4.205160e-01 -3.320463e-01 4.647073e-01 5.779493e-01 1.381575e+00 1.455666e+00 2.329114e+00 2.315806e+00 2.270099e+00 2.256382e+00 2.210778e+00 2.196771e+00 2.151780e+00 2.137299e+00 2.093034e+00 2.077504e+00 2.033986e+00 2.017058e+00 1.974483e+00 1.956054e+00 1.914681e+00 1.895054e+00 1.855464e+00 1.835326e+00 1.797837e+00 1.777352e+00 1.741445e+00 1.720368e+00 1.685432e+00 1.663833e+00 1.629483e+00 1.607528e+00 1.573312e+00 1.551146e+00 1.516733e+00 1.494596e+00 1.459660e+00 1.437549e+00 1.401490e+00 1.379211e+00 1.341297e+00 1.318450e+00 1.276948e+00 1.251928e+00 1.201589e+00 1.178898e+00 1.137565e+00 1.107970e+00 1.071999e+00 1.048973e+00 1.003848e+00 9.913465e-01 9.444676e-01 9.262641e-01 8.904056e-01 8.658194e-01 8.280969e-01 8.115337e-01 7.655596e-01 7.488070e-01 7.054707e-01 6.885565e-01 6.455745e-01 6.278085e-01 5.846947e-01 5.659895e-01 5.227151e-01 5.029867e-01 4.596450e-01 4.391822e-01 3.962063e-01 3.755044e-01 3.330582e-01 3.123898e-01 2.704223e-01 2.502486e-01 2.087264e-01 1.894457e-01 1.478656e-01 1.295214e-01 8.717387e-02 6.996254e-02 2.634482e-02 1.049001e-02 -3.506338e-02 -4.964872e-02 -9.773699e-02 -1.109046e-01 -1.615058e-01 -1.729185e-01 -2.258775e-01 -2.355854e-01 -2.907181e-01 -2.988791e-01 -3.556985e-01 -3.626079e-01 -4.205528e-01 -4.265896e-01 -4.847276e-01 -4.899801e-01 -5.472331e-01 -5.520667e-01 -6.080053e-01 -6.132040e-01 -6.678112e-01 -6.738474e-01 -7.271404e-01 -7.341296e-01 -7.861210e-01 -7.958034e-01 -8.413240e-01 -8.481644e-01 -8.918375e-01 -8.957732e-01 
-7.959276e-01 -8.070945e-01 -8.432135e-01 -8.545110e-01 -8.932079e-01 -9.053934e-01 -9.473882e-01 -9.599802e-01 -1.003969e+00 -1.017436e+00 -1.062799e+00 -1.079292e+00 -1.124834e+00 -1.148746e+00 -2.860256e-01 -2.771594e-01 5.576225e-01 5.792547e-01 1.412611e+00 1.423899e+00 2.281335e+00 2.264242e+00 2.212409e+00 2.202162e+00 2.149979e+00 2.143132e+00 2.091310e+00 2.085867e+00 2.034793e+00 2.029346e+00 1.979221e+00 1.972891e+00 1.923935e+00 1.916283e+00 1.868753e+00 1.859782e+00 1.814060e+00 1.804073e+00 1.760316e+00 1.749394e+00 1.707247e+00 1.695280e+00 1.654286e+00 1.641359e+00 1.601177e+00 1.587478e+00 1.547764e+00 1.533499e+00 1.493983e+00 1.479406e+00 1.439838e+00 1.425070e+00 1.385094e+00 1.370126e+00 1.329373e+00 1.314082e+00 1.271946e+00 1.255748e+00 1.211040e+00 1.194371e+00 1.150912e+00 1.133269e+00 1.089959e+00 1.074802e+00 1.030051e+00 1.016037e+00 9.712165e-01 9.556809e-01 9.127041e-01 8.973453e-01 8.535892e-01 8.382197e-01 7.937699e-01 7.795641e-01 7.367676e-01 7.225033e-01 6.803649e-01 6.653557e-01 6.236948e-01 6.077136e-01 5.665368e-01 5.494401e-01 5.087877e-01 4.906812e-01 4.507288e-01 4.318875e-01 3.926467e-01 3.732999e-01 3.346285e-01 3.151390e-01 2.768518e-01 2.575935e-01 2.192525e-01 2.004667e-01 1.615215e-01 1.435311e-01 1.035271e-01 8.664956e-02 4.508381e-02 2.946200e-02 -1.406211e-02 -2.821567e-02 -7.370639e-02 -8.617340e-02 -1.334906e-01 -1.443674e-01 -1.932951e-01 -2.028902e-01 -2.530050e-01 -2.618029e-01 -3.125209e-01 -3.210575e-01 -3.714728e-01 -3.801259e-01 -4.292038e-01 -4.384935e-01 -4.855647e-01 -4.962104e-01 -5.408986e-01 -5.533507e-01 -5.953663e-01 -6.095535e-01 -6.488100e-01 -6.640579e-01 -7.004920e-01 -7.142165e-01 -7.490860e-01 -7.611437e-01 
-9.414383e-01 -9.446726e-01 -9.938069e-01 -9.963324e-01 -1.048296e+00 -1.050827e+00 -1.105942e+00 -1.109010e+00 -1.165910e+00 -1.169854e+00 -1.228103e+00 -1.234712e+00 -1.293305e+00 -1.307017e+00 -4.018948e-01 -3.725743e-01 4.988966e-01 5.416801e-01 1.416915e+00 1.437940e+00 2.352949e+00 2.325709e+00 2.281240e+00 2.260484e+00 2.215834e+00 2.198107e+00 2.153811e+00 2.137294e+00 2.093708e+00 2.077303e+00 2.034594e+00 2.017595e+00 1.975863e+00 1.957907e+00 1.917276e+00 1.898287e+00 1.858859e+00 1.838903e+00 1.800656e+00 1.779829e+00 1.742590e+00 1.720998e+00 1.684507e+00 1.662306e+00 1.626288e+00 1.603684e+00 1.567862e+00 1.545065e+00 1.509161e+00 1.486363e+00 1.450101e+00 1.427442e+00 1.390509e+00 1.368000e+00 1.329988e+00 1.307506e+00 1.268019e+00 1.245464e+00 1.204505e+00 1.182203e+00 1.141483e+00 1.119168e+00 1.078487e+00 1.057484e+00 1.015566e+00 9.961107e-01 9.536223e-01 9.340819e-01 8.921767e-01 8.723322e-01 8.299840e-01 8.110333e-01 7.676216e-01 7.491439e-01 7.056743e-01 6.874474e-01 6.441989e-01 6.259959e-01 5.830435e-01 5.646577e-01 5.219899e-01 5.032650e-01 4.608423e-01 4.417262e-01 3.995009e-01 3.800552e-01 3.379376e-01 3.183069e-01 2.761280e-01 2.565173e-01 2.140290e-01 1.947035e-01 1.516062e-01 1.328788e-01 8.884131e-02 7.103442e-02 2.571410e-02 9.126403e-03 -3.777514e-02 -5.286814e-02 -1.015311e-01 -1.148919e-01 -1.653534e-01 -1.768435e-01 -2.290194e-01 -2.386681e-01 -2.923903e-01 -3.004376e-01 -3.554679e-01 -3.623094e-01 -4.182715e-01 -4.243153e-01 -4.806520e-01 -4.862564e-01 -5.423519e-01 -5.478837e-01 -6.032444e-01 -6.090840e-01 -6.633714e-01 -6.697740e-01 -7.226700e-01 -7.296282e-01 -7.806520e-01 -7.878806e-01 -8.362909e-01 -8.424101e-01 -8.894985e-01 -8.940535e-01 
-7.963384e-01 -8.076221e-01 -8.438477e-01 -8.552460e-01 -8.940270e-01 -9.063028e-01 -9.483507e-01 -9.610042e-01 -1.004978e+00 -1.018460e+00 -1.063703e+00 -1.080192e+00 -1.125572e+00 -1.149603e+00 -2.865808e-01 -2.777932e-01 5.569688e-01 5.785061e-01 1.411513e+00 1.422676e+00 2.279503e+00 2.262355e+00 2.210577e+00 2.200310e+00 2.148199e+00 2.141361e+00 2.089688e+00 2.084470e+00 2.033854e+00 2.028973e+00 1.979510e+00 1.973810e+00 1.925443e+00 1.918345e+00 1.871294e+00 1.862712e+00 1.817111e+00 1.807000e+00 1.762768e+00 1.751215e+00 1.708251e+00 1.695457e+00 1.653548e+00 1.639715e+00 1.598613e+00 1.584034e+00 1.543531e+00 1.528483e+00 1.488309e+00 1.473026e+00 1.433027e+00 1.417869e+00 1.377980e+00 1.363081e+00 1.322885e+00 1.307946e+00 1.266942e+00 1.251807e+00 1.209933e+00 1.194753e+00 1.152366e+00 1.137220e+00 1.094257e+00 1.079388e+00 1.035701e+00 1.020823e+00 9.764968e-01 9.612508e-01 9.166219e-01 9.012311e-01 8.564561e-01 8.410507e-01 7.964107e-01 7.811076e-01 7.371687e-01 7.220027e-01 6.791652e-01 6.640369e-01 6.223696e-01 6.069165e-01 5.662718e-01 5.501630e-01 5.103759e-01 4.933717e-01 4.542211e-01 4.362569e-01 3.975976e-01 3.788335e-01 3.404186e-01 3.209802e-01 2.823733e-01 2.625299e-01 2.234422e-01 2.037529e-01 1.639359e-01 1.448810e-01 1.038960e-01 8.583511e-02 4.335924e-02 2.678834e-02 -1.723737e-02 -3.190464e-02 -7.749372e-02 -9.007575e-02 -1.370592e-01 -1.475250e-01 -1.956491e-01 -2.044597e-01 -2.536416e-01 -2.616337e-01 -3.115386e-01 -3.193918e-01 -3.692330e-01 -3.774620e-01 -4.262958e-01 -4.354180e-01 -4.824697e-01 -4.931153e-01 -5.379982e-01 -5.507154e-01 -5.932134e-01 -6.078840e-01 -6.476743e-01 -6.633119e-01 -7.001147e-01 -7.140906e-01 -7.491894e-01 -7.614075e-01 
-9.410451e-01 -9.431652e-01 -9.902509e-01 -9.914653e-01 -1.042886e+00 -1.044471e+00 -1.102363e+00 -1.104748e+00 -1.162436e+00 -1.162720e+00 -1.222792e+00 -1.220524e+00 -1.282775e+00 -1.279123e+00 -4.208002e-01 -3.323489e-01 4.641776e-01 5.773888e-01 1.380193e+00 1.454178e+00 2.326182e+00 2.312865e+00 2.266964e+00 2.253126e+00 2.207307e+00 2.193169e+00 2.148151e+00 2.133984e+00 2.090414e+00 2.075963e+00 2.033675e+00 2.018048e+00 1.976665e+00 1.959485e+00 1.919193e+00 1.900573e+00 1.861398e+00 1.841240e+00 1.802930e+00 1.781333e+00 1.743801e+00 1.721070e+00 1.684122e+00 1.660503e+00 1.623924e+00 1.599829e+00 1.563515e+00 1.539319e+00 1.503021e+00 1.479004e+00 1.442676e+00 1.419420e+00 1.383234e+00 1.360992e+00 1.324471e+00 1.302749e+00 1.265257e+00 1.243875e+00 1.205451e+00 1.184595e+00 1.145299e+00 1.124959e+00 1.084678e+00 1.064753e+00 1.023363e+00 1.003498e+00 9.607867e-01 9.407731e-01 8.969365e-01 8.770413e-01 8.325356e-01 8.128818e-01 7.680081e-01 7.486958e-01 7.039820e-01 6.853525e-01 6.415407e-01 6.237276e-01 5.809835e-01 5.635436e-01 5.216410e-01 5.041273e-01 4.628154e-01 4.447992e-01 4.036827e-01 3.849152e-01 3.438027e-01 3.243890e-01 2.829912e-01 2.628826e-01 2.206274e-01 2.000043e-01 1.567150e-01 1.363149e-01 9.195842e-02 7.236060e-02 2.653163e-02 8.108857e-03 -3.942018e-02 -5.597078e-02 -1.050597e-01 -1.191671e-01 -1.698270e-01 -1.812765e-01 -2.333418e-01 -2.419712e-01 -2.952366e-01 -3.015862e-01 -3.563343e-01 -3.614739e-01 -4.176824e-01 -4.222999e-01 -4.792989e-01 -4.837866e-01 -5.406999e-01 -5.454070e-01 -6.015456e-01 -6.070039e-01 -6.622470e-01 -6.690439e-01 -7.234726e-01 -7.315385e-01 -7.845761e-01 -7.949020e-01 -8.410122e-01 -8.482262e-01 -8.922500e-01 -8.964413e-01 
-7.953130e-01 -8.025134e-01 -8.338196e-01 -8.422778e-01 -8.783193e-01 -8.927303e-01 -9.401995e-01 -9.510566e-01 -9.976272e-01 -1.002420e+00 -1.052126e+00 -1.050655e+00 -1.102535e+00 -1.092136e+00 -3.053689e-01 -2.163855e-01 5.123373e-01 6.262765e-01 1.356636e+00 1.439414e+00 2.226063e+00 2.236966e+00 2.182353e+00 2.185979e+00 2.130916e+00 2.131337e+00 2.077349e+00 2.077490e+00 2.026950e+00 2.027258e+00 1.978698e+00 1.975942e+00 1.927276e+00 1.921076e+00 1.873970e+00 1.865959e+00 1.820799e+00 1.810221e+00 1.765922e+00 1.752928e+00 1.709997e+00 1.695570e+00 1.653737e+00 1.637823e+00 1.596636e+00 1.580072e+00 1.539863e+00 1.523086e+00 1.482869e+00 1.465441e+00 1.425271e+00 1.409195e+00 1.371059e+00 1.357416e+00 1.319781e+00 1.305822e+00 1.266203e+00 1.251530e+00 1.211060e+00 1.197048e+00 1.155986e+00 1.142369e+00 1.100345e+00 1.086911e+00 1.043942e+00 1.029634e+00 9.844621e-01 9.686142e-01 9.217040e-01 9.057599e-01 8.588405e-01 8.429300e-01 7.958339e-01 7.792929e-01 7.326105e-01 7.169394e-01 6.731294e-01 6.593330e-01 6.182507e-01 6.046486e-01 5.651964e-01 5.510357e-01 5.129985e-01 4.973548e-01 4.595872e-01 4.418601e-01 4.047693e-01 3.860868e-01 3.496733e-01 3.292093e-01 2.914371e-01 2.687738e-01 2.299321e-01 2.074186e-01 1.684846e-01 1.469268e-01 1.062517e-01 8.502425e-02 4.187411e-02 2.269938e-02 -2.177352e-02 -3.768155e-02 -8.404429e-02 -9.686652e-02 -1.445302e-01 -1.527414e-01 -2.003921e-01 -2.050743e-01 -2.546601e-01 -2.591292e-01 -3.113660e-01 -3.164795e-01 -3.695200e-01 -3.752566e-01 -4.269451e-01 -4.333788e-01 -4.819605e-01 -4.904115e-01 -5.363614e-01 -5.498132e-01 -5.940999e-01 -6.131979e-01 -6.547045e-01 -6.812606e-01 -7.132257e-01 -7.278354e-01 -7.570053e-01 -7.660791e-01 
-9.390818e-01 -9.354014e-01 -9.730439e-01 -9.678472e-01 -1.010243e+00 -1.005481e+00 -1.091584e+00 -1.105595e+00 -1.150743e+00 -1.150756e+00 -1.210391e+00 -1.196723e+00 -1.265267e+00 -1.190617e+00 -5.425451e-01 -1.668625e-01 2.710978e-01 6.974631e-01 1.163838e+00 1.473430e+00 2.182533e+00 2.212534e+00 2.165460e+00 2.157353e+00 2.109570e+00 2.098145e+00 2.051802e+00 2.040930e+00 1.998988e+00 1.989375e+00 1.949694e+00 1.937136e+00 1.896788e+00 1.880828e+00 1.841904e+00 1.824632e+00 1.787451e+00 1.767635e+00 1.730589e+00 1.708219e+00 1.671919e+00 1.648109e+00 1.612187e+00 1.586733e+00 1.550726e+00 1.524784e+00 1.489406e+00 1.463645e+00 1.427811e+00 1.401701e+00 1.365717e+00 1.342042e+00 1.308843e+00 1.289137e+00 1.256852e+00 1.237407e+00 1.202842e+00 1.183102e+00 1.148038e+00 1.129483e+00 1.092983e+00 1.075841e+00 1.037416e+00 1.020569e+00 9.813844e-01 9.625224e-01 9.200887e-01 8.996001e-01 8.535486e-01 8.340079e-01 7.872773e-01 7.671607e-01 7.200498e-01 6.996878e-01 6.524234e-01 6.338854e-01 5.898146e-01 5.745770e-01 5.335413e-01 5.194410e-01 4.799652e-01 4.660255e-01 4.277979e-01 4.127151e-01 3.741353e-01 3.569283e-01 3.184833e-01 3.004401e-01 2.621365e-01 2.419155e-01 2.011281e-01 1.779838e-01 1.353438e-01 1.123096e-01 6.946674e-02 4.755038e-02 2.669058e-03 -1.901617e-02 -6.657672e-02 -8.575583e-02 -1.342068e-01 -1.493032e-01 -1.993600e-01 -2.107019e-01 -2.617288e-01 -2.673003e-01 -3.178305e-01 -3.190040e-01 -3.720532e-01 -3.730500e-01 -4.300485e-01 -4.316957e-01 -4.907217e-01 -4.926089e-01 -5.513161e-01 -5.530487e-01 -6.095465e-01 -6.122179e-01 -6.677225e-01 -6.740259e-01 -7.318747e-01 -7.343852e-01 -8.133133e-01 -8.431116e-01 -8.667257e-01 -8.745565e-01 -9.048596e-01 -9.048472e-01 
-7.935813e-01 -7.841309e-01 -7.999563e-01 -7.867336e-01 -8.000101e-01 -7.772482e-01 -8.344212e-01 -8.651398e-01 -8.438732e-01 -8.753359e-01 -8.605549e-01 -8.910941e-01 -8.758739e-01 -8.399643e-01 -6.481244e-01 -5.414763e-01 -4.049016e-01 -2.774179e-01 -1.385680e-01 -4.111720e-02 1.544881e-01 1.989116e-01 1.821856e-01 1.815180e-01 1.619047e-01 1.627212e-01 1.413009e-01 1.431940e-01 1.198157e-01 1.228768e-01 9.890532e-02 1.045859e-01 8.135698e-02 8.935756e-02 6.601539e-02 7.480399e-02 5.089860e-02 6.008763e-02 3.584627e-02 4.473611e-02 1.964343e-02 2.735367e-02 1.445699e-03 8.018068e-03 -1.822988e-02 -1.271999e-02 -3.895632e-02 -3.400489e-02 -5.918583e-02 -5.382489e-02 -7.744081e-02 -7.198153e-02 -9.463012e-02 -8.927510e-02 -1.102032e-01 -1.037380e-01 -1.220414e-01 -1.146541e-01 -1.311790e-01 -1.245370e-01 -1.423089e-01 -1.355680e-01 -1.547734e-01 -1.497097e-01 -1.684883e-01 -1.663458e-01 -1.854651e-01 -1.833792e-01 -2.046037e-01 -2.017255e-01 -2.242000e-01 -2.231499e-01 -2.450003e-01 -2.428390e-01 -2.646290e-01 -2.616655e-01 -2.840979e-01 -2.805872e-01 -3.033499e-01 -2.985801e-01 -3.212875e-01 -3.153888e-01 -3.383743e-01 -3.316045e-01 -3.548447e-01 -3.477201e-01 -3.719786e-01 -3.658424e-01 -3.915226e-01 -3.864980e-01 -4.126484e-01 -4.086619e-01 -4.350833e-01 -4.330421e-01 -4.595645e-01 -4.593144e-01 -4.843049e-01 -4.848361e-01 -5.071746e-01 -5.086543e-01 -5.283901e-01 -5.308477e-01 -5.475915e-01 -5.506275e-01 -5.651427e-01 -5.694953e-01 -5.834213e-01 -5.886431e-01 -6.022748e-01 -6.066829e-01 -6.209765e-01 -6.238755e-01 -6.409342e-01 -6.417249e-01 -6.635102e-01 -6.612235e-01 -6.892977e-01 -6.820367e-01 -7.170139e-01 -7.010734e-01 -7.453533e-01 -7.078231e-01 -7.916223e-01 -7.835896e-01 -7.855323e-01 -7.749931e-01 -7.868497e-01 -7.780402e-01 
-9.384294e-01 -9.204407e-01 -9.435666e-01 -9.250360e-01 -9.425098e-01 -9.190049e-01 -9.428737e-01 -9.587575e-01 -9.386631e-01 -9.690853e-01 -9.431331e-01 -9.834694e-01 -9.555703e-01 -9.826253e-01 -8.996998e-01 -9.066536e-01 -8.448100e-01 -8.439092e-01 -7.837906e-01 -7.882066e-01 -7.106209e-01 -7.264906e-01 -7.162128e-01 -7.390127e-01 -7.289450e-01 -7.454564e-01 -7.382860e-01 -7.519980e-01 -7.506812e-01 -7.622399e-01 -7.641936e-01 -7.695382e-01 -7.714674e-01 -7.708193e-01 -7.749353e-01 -7.714805e-01 -7.783959e-01 -7.719411e-01 -7.802672e-01 -7.716846e-01 -7.822100e-01 -7.732245e-01 -7.855037e-01 -7.760009e-01 -7.891116e-01 -7.798412e-01 -7.937925e-01 -7.847242e-01 -7.976313e-01 -7.874440e-01 -7.988937e-01 -7.897570e-01 -8.021965e-01 -7.952990e-01 -8.065638e-01 -7.981185e-01 -8.050096e-01 -7.947430e-01 -7.993978e-01 -7.899482e-01 -7.955082e-01 -7.859119e-01 -7.922136e-01 -7.840983e-01 -7.895004e-01 -7.831797e-01 -7.874139e-01 -7.795709e-01 -7.849564e-01 -7.762021e-01 -7.836408e-01 -7.765466e-01 -7.839668e-01 -7.752134e-01 -7.834381e-01 -7.743401e-01 -7.862983e-01 -7.779471e-01 -7.931686e-01 -7.833776e-01 -8.004461e-01 -7.887407e-01 -8.077637e-01 -7.936503e-01 -8.135357e-01 -7.970388e-01 -8.188552e-01 -8.023498e-01 -8.264380e-01 -8.093100e-01 -8.328485e-01 -8.146607e-01 -8.377150e-01 -8.214971e-01 -8.448168e-01 -8.311347e-01 -8.516790e-01 -8.389200e-01 -8.549949e-01 -8.447858e-01 -8.575803e-01 -8.509060e-01 -8.596179e-01 -8.557053e-01 -8.617038e-01 -8.624062e-01 -8.685945e-01 -8.722326e-01 -8.772618e-01 -8.789609e-01 -8.832832e-01 -8.814198e-01 -8.889204e-01 -8.828346e-01 -8.974980e-01 -8.862088e-01 -9.111282e-01 -8.918832e-01 -9.267779e-01 -8.944461e-01 -9.385299e-01 -8.883614e-01 -9.519170e-01 -9.086498e-01 -9.352708e-01 -9.065450e-01 -9.334685e-01 -9.125089e-01 
-7.935301e-01 -7.800954e-01 -7.920320e-01 -7.813728e-01 -7.888638e-01 -7.815988e-01 -7.831884e-01 -7.938598e-01 -7.786115e-01 -7.995342e-01 -7.771692e-01 -8.011699e-01 -7.787129e-01 -7.982258e-01 -7.829582e-01 -8.003682e-01 -7.901229e-01 -8.030605e-01 -7.980523e-01 -8.050284e-01 -8.046497e-01 -8.049727e-01 -8.051724e-01 -8.049406e-01 -8.064117e-01 -8.045675e-01 -8.083814e-01 -8.053415e-01 -8.126232e-01 -8.079871e-01 -8.175625e-01 -8.093456e-01 -8.197618e-01 -8.079274e-01 -8.199543e-01 -8.059342e-01 -8.198551e-01 -8.039596e-01 -8.191848e-01 -8.019947e-01 -8.185234e-01 -8.008238e-01 -8.181522e-01 -8.000805e-01 -8.175976e-01 -7.996263e-01 -8.170818e-01 -7.993475e-01 -8.158160e-01 -7.979819e-01 -8.131576e-01 -7.961690e-01 -8.107839e-01 -7.950774e-01 -8.080438e-01 -7.920569e-01 -8.019399e-01 -7.854589e-01 -7.932793e-01 -7.775026e-01 -7.856477e-01 -7.702439e-01 -7.787771e-01 -7.651771e-01 -7.727206e-01 -7.610282e-01 -7.677842e-01 -7.556811e-01 -7.634360e-01 -7.508881e-01 -7.596271e-01 -7.480260e-01 -7.566239e-01 -7.445240e-01 -7.538783e-01 -7.415434e-01 -7.530329e-01 -7.407519e-01 -7.543211e-01 -7.411542e-01 -7.561985e-01 -7.418162e-01 -7.582292e-01 -7.424580e-01 -7.597439e-01 -7.427789e-01 -7.611893e-01 -7.441562e-01 -7.635535e-01 -7.465254e-01 -7.655212e-01 -7.486934e-01 -7.669136e-01 -7.517875e-01 -7.690864e-01 -7.562208e-01 -7.710453e-01 -7.600882e-01 -7.714409e-01 -7.631437e-01 -7.713169e-01 -7.661479e-01 -7.710066e-01 -7.686323e-01 -7.710628e-01 -7.717972e-01 -7.733750e-01 -7.758308e-01 -7.766531e-01 -7.779653e-01 -7.790206e-01 -7.775588e-01 -7.814807e-01 -7.761904e-01 -7.857376e-01 -7.754815e-01 -7.926306e-01 -7.756745e-01 -8.004423e-01 -7.748692e-01 -8.060397e-01 -7.728434e-01 -8.083358e-01 -7.758574e-01 -7.997313e-01 -7.765403e-01 -7.953517e-01 -7.781204e-01 
