# vtk DataFile Version 2.0
Comment goes here
ASCII

DATASET STRUCTURED_POINTS
FIELD FieldData 1
TIME 1 1 double
0.23000000
DIMENSIONS    128   16   1

ORIGIN    0.000   0.000   0.000
SPACING   0.0078125 0.015625   1.000

POINT_DATA   2048
SCALARS P double
LOOKUP_TABLE default

1.209615e-01 1.228177e-01 1.205244e-01 1.248234e-01 1.179178e-01 1.262891e-01 1.115635e-01 1.264474e-01 1.131267e-01 1.241966e-01 1.142256e-01 1.204260e-01 1.127995e-01 1.132932e-01 1.058993e-01 1.031497e-01 9.741040e-02 9.079416e-02 8.910378e-02 8.002802e-02 8.233622e-02 7.448808e-02 7.873298e-02 7.156366e-02 7.762314e-02 7.085363e-02 7.956148e-02 7.334746e-02 8.371579e-02 7.783677e-02 8.913832e-02 8.435604e-02 9.634670e-02 9.392477e-02 1.067642e-01 1.073196e-01 1.196947e-01 1.220051e-01 1.320845e-01 1.352073e-01 1.421982e-01 1.456205e-01 1.501098e-01 1.550458e-01 1.590273e-01 1.656893e-01 1.688484e-01 1.751625e-01 1.768318e-01 1.821964e-01 1.841414e-01 1.892271e-01 1.925546e-01 1.972139e-01 2.026411e-01 2.066454e-01 2.145161e-01 2.175470e-01 2.281106e-01 2.262757e-01 2.339389e-01 2.368947e-01 2.425048e-01 2.433278e-01 2.549373e-01 2.480657e-01 2.604163e-01 2.580447e-01 2.637230e-01 2.676193e-01 2.721932e-01 2.637304e-01 2.670813e-01 2.559520e-01 2.541057e-01 2.431823e-01 2.403291e-01 2.325211e-01 2.301758e-01 2.247870e-01 2.216751e-01 2.172047e-01 2.130949e-01 2.092799e-01 2.057152e-01 2.025160e-01 1.994639e-01 1.945824e-01 1.909207e-01 1.831274e-01 1.806360e-01 1.720459e-01 1.739039e-01 1.653576e-01 1.706478e-01 1.597572e-01 1.663812e-01 1.527887e-01 1.607913e-01 1.459054e-01 1.553220e-01 1.406153e-01 1.503848e-01 1.364090e-01 1.445744e-01 1.321743e-01 1.375335e-01 1.280939e-01 1.295772e-01 1.240217e-01 1.207668e-01 1.194621e-01 1.116517e-01 1.158450e-01 1.062115e-01 1.173548e-01 1.083663e-01 1.236927e-01 1.143019e-01 1.276869e-01 1.178196e-01 1.258285e-01 1.195044e-01 1.211203e-01 1.198172e-01 1.200504e-01 1.204428e-01 1.209690e-01 
1.070231e-01 1.089337e-01 1.062640e-01 1.104128e-01 1.027008e-01 1.110587e-01 9.255758e-02 1.070185e-01 9.159329e-02 9.943698e-02 9.162551e-02 9.253247e-02 9.138510e-02 8.278897e-02 8.799835e-02 7.368139e-02 8.537704e-02 6.841546e-02 8.407157e-02 6.630584e-02 8.291074e-02 6.645377e-02 8.151652e-02 6.887090e-02 8.409583e-02 7.392225e-02 8.911560e-02 7.930400e-02 9.363499e-02 8.441754e-02 9.830256e-02 8.987565e-02 1.028247e-01 9.706938e-02 1.114535e-01 1.102439e-01 1.237627e-01 1.228131e-01 1.319656e-01 1.320615e-01 1.393816e-01 1.409956e-01 1.455228e-01 1.477753e-01 1.511154e-01 1.560317e-01 1.607490e-01 1.672919e-01 1.703182e-01 1.741364e-01 1.758483e-01 1.788182e-01 1.836134e-01 1.894245e-01 1.994577e-01 2.058178e-01 2.181716e-01 2.219010e-01 2.346175e-01 2.308247e-01 2.384006e-01 2.409714e-01 2.469620e-01 2.450070e-01 2.543882e-01 2.413442e-01 2.489635e-01 2.444608e-01 2.489940e-01 2.537569e-01 2.596131e-01 2.522386e-01 2.543468e-01 2.399677e-01 2.365242e-01 2.252738e-01 2.244859e-01 2.189639e-01 2.186602e-01 2.137118e-01 2.103353e-01 2.058301e-01 2.012831e-01 1.974332e-01 1.934495e-01 1.909469e-01 1.881786e-01 1.850146e-01 1.818089e-01 1.746698e-01 1.704494e-01 1.616140e-01 1.632319e-01 1.575067e-01 1.645107e-01 1.560205e-01 1.613470e-01 1.464224e-01 1.507743e-01 1.344064e-01 1.412269e-01 1.257568e-01 1.326232e-01 1.173962e-01 1.233256e-01 1.124083e-01 1.189963e-01 1.129181e-01 1.145494e-01 1.103739e-01 1.053751e-01 1.053175e-01 9.653986e-02 1.034604e-01 9.275296e-02 1.066560e-01 9.619572e-02 1.147910e-01 1.036889e-01 1.198467e-01 1.070157e-01 1.160637e-01 1.074711e-01 1.079631e-01 1.069061e-01 1.069701e-01 1.068902e-01 1.075395e-01 
1.281561e-01 1.278133e-01 1.300903e-01 1.312808e-01 1.305960e-01 1.340290e-01 9.966574e-02 1.318626e-01 1.095587e-01 1.189832e-01 1.089671e-01 1.162705e-01 1.121928e-01 1.071365e-01 9.725025e-02 9.418923e-02 8.443453e-02 7.595039e-02 7.498969e-02 5.907459e-02 6.392957e-02 5.637376e-02 6.542583e-02 6.545982e-02 7.840318e-02 7.771234e-02 9.216943e-02 8.664153e-02 9.867129e-02 9.234748e-02 1.059423e-01 9.866812e-02 1.080985e-01 1.011167e-01 1.145843e-01 1.168956e-01 1.307501e-01 1.296163e-01 1.351319e-01 1.362678e-01 1.416451e-01 1.430325e-01 1.423613e-01 1.435940e-01 1.428983e-01 1.499681e-01 1.539857e-01 1.635743e-01 1.627690e-01 1.668394e-01 1.646746e-01 1.670594e-01 1.677741e-01 1.751105e-01 1.831868e-01 1.904036e-01 1.998404e-01 2.205899e-01 2.602388e-01 2.238646e-01 2.329233e-01 2.687841e-01 2.367142e-01 2.580752e-01 2.889392e-01 2.283157e-01 2.699125e-01 2.570639e-01 2.293657e-01 3.061697e-01 3.036087e-01 2.519398e-01 2.711189e-01 2.510904e-01 2.389883e-01 2.254394e-01 2.246366e-01 2.224877e-01 2.242459e-01 2.202892e-01 2.166742e-01 2.149247e-01 2.100454e-01 2.070813e-01 2.024958e-01 2.021689e-01 2.011150e-01 2.018790e-01 1.995855e-01 1.913972e-01 1.827870e-01 1.710713e-01 1.752147e-01 1.749504e-01 1.882809e-01 1.797008e-01 1.839431e-01 1.631196e-01 1.661103e-01 1.445857e-01 1.531385e-01 1.334278e-01 1.409793e-01 1.189335e-01 1.262094e-01 1.134410e-01 1.277610e-01 1.229027e-01 1.289181e-01 1.226426e-01 1.190533e-01 1.175064e-01 1.091264e-01 1.157515e-01 1.043671e-01 1.211328e-01 1.121633e-01 1.373359e-01 1.267352e-01 1.470308e-01 1.297956e-01 1.409203e-01 1.317682e-01 1.220561e-01 1.264077e-01 1.225454e-01 1.264940e-01 1.246686e-01 
1.169694e-01 1.147764e-01 1.237363e-01 1.197124e-01 1.345310e-01 1.250069e-01 7.652001e-02 1.427677e-01 1.199462e-01 1.258508e-01 1.160255e-01 1.154852e-01 1.130154e-01 7.924385e-02 5.653274e-02 2.770468e-02 2.912491e-03 -5.017856e-02 -4.794611e-02 -1.238928e-01 -1.028098e-01 -1.391207e-01 -1.185229e-01 -1.216090e-01 -1.041073e-01 -1.036567e-01 -8.490770e-02 -8.727355e-02 -7.371348e-02 -7.291370e-02 -5.460574e-02 -5.492932e-02 -5.032000e-02 -6.187434e-02 -5.923498e-02 -6.043074e-02 -5.255133e-02 -5.339062e-02 -4.539745e-02 -3.582796e-02 -2.456569e-02 -2.127192e-02 -1.749782e-02 -8.708993e-03 5.144477e-03 2.257302e-02 3.849325e-02 5.026867e-02 5.786032e-02 6.990747e-02 8.611755e-02 9.512873e-02 9.908167e-02 9.541282e-02 9.412426e-02 8.805285e-02 1.025822e-01 1.716638e-01 3.044325e-01 1.711319e-01 1.817459e-01 2.939061e-01 1.270226e-01 2.166322e-01 3.043839e-01 1.041973e-01 2.541448e-01 2.055296e-01 5.575304e-02 3.101462e-01 2.091354e-01 4.809971e-02 1.451081e-01 1.538439e-01 1.618624e-01 1.590680e-01 1.617214e-01 1.523594e-01 1.489722e-01 1.336298e-01 1.279583e-01 1.207305e-01 1.127486e-01 9.771478e-02 8.631286e-02 7.336418e-02 6.899059e-02 6.467376e-02 6.339897e-02 5.620886e-02 5.352380e-02 5.096159e-02 6.724661e-02 8.121472e-02 9.878546e-02 9.493844e-02 9.870805e-02 9.494154e-02 1.075971e-01 1.063458e-01 1.180958e-01 1.118424e-01 1.131037e-01 9.666520e-02 9.228735e-02 8.001264e-02 7.912179e-02 7.094662e-02 6.492511e-02 6.024084e-02 5.727505e-02 6.151251e-02 5.390575e-02 5.764380e-02 4.757527e-02 6.316691e-02 6.303075e-02 8.981964e-02 8.919766e-02 1.111873e-01 1.023392e-01 1.234111e-01 1.234696e-01 1.067897e-01 1.124009e-01 1.080798e-01 1.131868e-01 1.107652e-01 
1.341408e-01 1.312933e-01 1.448251e-01 1.394268e-01 1.600418e-01 1.487477e-01 1.328089e-01 1.791441e-01 1.773625e-01 1.781252e-01 1.783156e-01 1.679380e-01 1.732493e-01 1.351682e-01 3.919476e-02 3.304380e-02 -1.212534e-01 -2.002259e-01 -2.847582e-01 -4.253958e-01 -4.563190e-01 -4.922790e-01 -4.663574e-01 -4.722158e-01 -4.556527e-01 -4.541447e-01 -4.385447e-01 -4.320006e-01 -4.200552e-01 -4.071637e-01 -3.926429e-01 -3.791152e-01 -3.772294e-01 -3.773138e-01 -3.843826e-01 -3.829638e-01 -3.837607e-01 -3.745938e-01 -3.627700e-01 -3.416545e-01 -3.250251e-01 -3.103879e-01 -2.939344e-01 -2.707844e-01 -2.409132e-01 -2.144271e-01 -1.883322e-01 -1.729875e-01 -1.508794e-01 -1.290958e-01 -9.518622e-02 -7.736252e-02 -6.393121e-02 -7.163831e-02 -7.539122e-02 -8.718088e-02 -7.197197e-02 -1.409583e-02 9.454365e-02 -1.877113e-02 -1.552363e-02 5.923272e-02 -9.231944e-02 -2.177915e-02 4.098861e-02 -1.184779e-01 6.075265e-03 -3.628714e-02 -1.680649e-01 2.414893e-02 -8.857080e-02 -1.963566e-01 -9.333458e-02 -5.128004e-02 -1.384355e-02 5.026118e-04 1.084414e-02 -3.081001e-03 -7.468550e-03 -2.891927e-02 -3.103448e-02 -4.683070e-02 -5.135352e-02 -7.560190e-02 -8.473915e-02 -1.095145e-01 -1.134478e-01 -1.275245e-01 -1.235026e-01 -1.266339e-01 -1.123107e-01 -1.024714e-01 -7.920476e-02 -6.347017e-02 -4.966649e-02 -4.443803e-02 -3.454302e-02 -1.263991e-02 9.932187e-03 3.507868e-02 4.741065e-02 6.215645e-02 6.015973e-02 6.389708e-02 5.235984e-02 4.780883e-02 2.845619e-02 1.914913e-02 3.754907e-03 3.414941e-03 4.617770e-03 1.197012e-02 1.387090e-02 1.261641e-02 1.629687e-02 1.908110e-02 3.315452e-02 4.031911e-02 5.725401e-02 6.487642e-02 8.185651e-02 9.791079e-02 1.161096e-01 1.108568e-01 1.185718e-01 1.176443e-01 1.258951e-01 1.241407e-01 
1.134066e-01 1.149341e-01 1.220147e-01 1.237184e-01 1.310794e-01 1.337100e-01 1.376637e-01 1.522585e-01 1.553870e-01 1.630181e-01 1.638194e-01 1.665948e-01 1.685776e-01 1.706660e-01 8.182570e-03 -5.265247e-03 -1.552017e-01 -1.843456e-01 -3.236200e-01 -3.538752e-01 -4.980437e-01 -4.972076e-01 -4.845086e-01 -4.828287e-01 -4.710834e-01 -4.678032e-01 -4.556806e-01 -4.487060e-01 -4.367820e-01 -4.269766e-01 -4.157049e-01 -4.053165e-01 -3.981432e-01 -3.923911e-01 -3.906788e-01 -3.870269e-01 -3.828743e-01 -3.732816e-01 -3.603860e-01 -3.457248e-01 -3.299487e-01 -3.160702e-01 -2.968350e-01 -2.788829e-01 -2.540714e-01 -2.368003e-01 -2.147861e-01 -2.029539e-01 -1.810240e-01 -1.666713e-01 -1.418713e-01 -1.311619e-01 -1.171965e-01 -1.207137e-01 -1.185951e-01 -1.266193e-01 -1.225467e-01 -1.210777e-01 -1.128734e-01 -1.286639e-01 -1.293201e-01 -1.355788e-01 -1.506697e-01 -1.443676e-01 -1.380343e-01 -1.438368e-01 -1.238863e-01 -1.260583e-01 -1.275196e-01 -1.168181e-01 -1.273958e-01 -1.244709e-01 -9.585502e-02 -7.523933e-02 -5.060655e-02 -4.336554e-02 -3.444605e-02 -4.433124e-02 -4.404321e-02 -5.814555e-02 -5.696413e-02 -7.116460e-02 -7.136968e-02 -8.812441e-02 -8.999877e-02 -1.069396e-01 -1.072150e-01 -1.187065e-01 -1.137459e-01 -1.151538e-01 -1.017743e-01 -9.439723e-02 -8.085561e-02 -7.380425e-02 -6.632410e-02 -5.865988e-02 -4.934893e-02 -3.097032e-02 -1.777217e-02 1.801679e-03 7.517612e-03 2.157545e-02 1.989416e-02 2.948337e-02 2.192679e-02 2.429513e-02 9.731511e-03 7.995073e-03 -2.300620e-03 1.235138e-03 8.198734e-04 7.171982e-03 9.721416e-03 1.206892e-02 1.764526e-02 1.950714e-02 2.928003e-02 3.082933e-02 4.343281e-02 4.691270e-02 6.284647e-02 7.053508e-02 8.443042e-02 9.051664e-02 9.604038e-02 9.913087e-02 1.050687e-01 1.069364e-01 
1.285281e-01 1.285929e-01 1.381263e-01 1.386723e-01 1.473749e-01 1.496963e-01 1.546811e-01 1.624575e-01 1.678965e-01 1.722425e-01 1.789514e-01 1.807674e-01 1.896738e-01 1.917763e-01 2.309096e-02 1.365899e-02 -1.467896e-01 -1.697865e-01 -3.206040e-01 -3.457170e-01 -4.993454e-01 -5.005563e-01 -4.843003e-01 -4.841520e-01 -4.690020e-01 -4.663440e-01 -4.524140e-01 -4.470163e-01 -4.346022e-01 -4.268898e-01 -4.159477e-01 -4.073346e-01 -3.990019e-01 -3.911357e-01 -3.845068e-01 -3.759752e-01 -3.681309e-01 -3.572962e-01 -3.463473e-01 -3.330346e-01 -3.195607e-01 -3.055888e-01 -2.900156e-01 -2.748569e-01 -2.568098e-01 -2.417843e-01 -2.235485e-01 -2.105461e-01 -1.928603e-01 -1.812025e-01 -1.642321e-01 -1.559643e-01 -1.437652e-01 -1.415094e-01 -1.345873e-01 -1.362610e-01 -1.323841e-01 -1.366057e-01 -1.369478e-01 -1.359519e-01 -1.334559e-01 -1.362523e-01 -1.298116e-01 -1.257019e-01 -1.217763e-01 -1.124595e-01 -1.059243e-01 -1.025935e-01 -8.940834e-02 -9.036065e-02 -8.023516e-02 -7.822066e-02 -7.063869e-02 -6.740424e-02 -5.646545e-02 -5.601719e-02 -4.825349e-02 -5.368790e-02 -4.925227e-02 -5.821894e-02 -5.499205e-02 -6.517214e-02 -6.278762e-02 -7.396456e-02 -7.183873e-02 -8.207384e-02 -7.849895e-02 -8.523752e-02 -7.906891e-02 -8.106312e-02 -7.201745e-02 -6.933412e-02 -5.894545e-02 -5.339574e-02 -4.418707e-02 -3.721483e-02 -2.885994e-02 -1.874801e-02 -1.058635e-02 3.851101e-04 5.452436e-03 1.449021e-02 1.545938e-02 2.166187e-02 1.933529e-02 2.285371e-02 1.874596e-02 2.089431e-02 1.821041e-02 2.122444e-02 2.222052e-02 2.600834e-02 2.960081e-02 3.256867e-02 3.866323e-02 4.173879e-02 5.075036e-02 5.423621e-02 6.518277e-02 6.896653e-02 8.090879e-02 8.487980e-02 9.670612e-02 9.837425e-02 1.084844e-01 1.091807e-01 1.187921e-01 1.189657e-01 
1.081297e-01 1.112253e-01 1.174297e-01 1.211275e-01 1.270123e-01 1.319146e-01 1.372632e-01 1.440460e-01 1.494028e-01 1.561651e-01 1.621083e-01 1.684598e-01 1.760391e-01 1.825607e-01 7.007740e-03 5.537727e-03 -1.618960e-01 -1.682566e-01 -3.324651e-01 -3.376404e-01 -5.053332e-01 -5.022659e-01 -4.879112e-01 -4.848416e-01 -4.709362e-01 -4.668496e-01 -4.535563e-01 -4.478935e-01 -4.353550e-01 -4.281937e-01 -4.165560e-01 -4.085224e-01 -3.980596e-01 -3.899334e-01 -3.802937e-01 -3.718523e-01 -3.615905e-01 -3.520170e-01 -3.399388e-01 -3.292788e-01 -3.154873e-01 -3.044472e-01 -2.891081e-01 -2.779210e-01 -2.613811e-01 -2.508613e-01 -2.341587e-01 -2.249216e-01 -2.083958e-01 -2.002548e-01 -1.845141e-01 -1.784235e-01 -1.652674e-01 -1.622508e-01 -1.521017e-01 -1.512099e-01 -1.430247e-01 -1.432626e-01 -1.365514e-01 -1.356659e-01 -1.290500e-01 -1.279077e-01 -1.226424e-01 -1.199848e-01 -1.143392e-01 -1.122323e-01 -1.048697e-01 -1.044774e-01 -9.847155e-02 -9.818219e-02 -9.274344e-02 -9.354856e-02 -8.623912e-02 -8.542943e-02 -7.641179e-02 -7.733446e-02 -6.977940e-02 -7.409570e-02 -6.823965e-02 -7.480081e-02 -6.959527e-02 -7.712336e-02 -7.225251e-02 -8.004455e-02 -7.525707e-02 -8.219875e-02 -7.682984e-02 -8.139959e-02 -7.486311e-02 -7.609986e-02 -6.857451e-02 -6.677377e-02 -5.968215e-02 -5.588751e-02 -5.020564e-02 -4.445478e-02 -3.971901e-02 -3.148977e-02 -2.769184e-02 -1.829197e-02 -1.657321e-02 -7.496173e-03 -8.008729e-03 1.152367e-04 -1.988295e-03 4.850792e-03 2.166324e-03 8.113435e-03 6.790065e-03 1.266644e-02 1.389757e-02 1.941221e-02 2.284841e-02 2.715470e-02 3.244238e-02 3.564292e-02 4.256189e-02 4.516671e-02 5.342171e-02 5.628235e-02 6.539988e-02 6.894212e-02 7.771572e-02 8.130857e-02 8.874387e-02 9.195482e-02 9.872277e-02 1.016956e-01 
1.231497e-01 1.237674e-01 1.324314e-01 1.336531e-01 1.417058e-01 1.441946e-01 1.515593e-01 1.557655e-01 1.638090e-01 1.680479e-01 1.776804e-01 1.814159e-01 1.931412e-01 1.965934e-01 2.170788e-02 1.707701e-02 -1.507738e-01 -1.610726e-01 -3.259190e-01 -3.351274e-01 -5.039963e-01 -5.033079e-01 -4.874690e-01 -4.859356e-01 -4.710231e-01 -4.677365e-01 -4.539520e-01 -4.486384e-01 -4.359483e-01 -4.286357e-01 -4.168794e-01 -4.080295e-01 -3.971523e-01 -3.873433e-01 -3.769702e-01 -3.664219e-01 -3.559279e-01 -3.448070e-01 -3.337182e-01 -3.222621e-01 -3.103660e-01 -2.989840e-01 -2.863831e-01 -2.754907e-01 -2.623976e-01 -2.523033e-01 -2.389321e-01 -2.297357e-01 -2.162661e-01 -2.079849e-01 -1.947897e-01 -1.876730e-01 -1.754044e-01 -1.696410e-01 -1.586308e-01 -1.539696e-01 -1.442451e-01 -1.402857e-01 -1.317993e-01 -1.279036e-01 -1.200632e-01 -1.168632e-01 -1.096416e-01 -1.066326e-01 -1.004262e-01 -9.807796e-02 -9.232487e-02 -9.186109e-02 -8.597193e-02 -8.708601e-02 -8.137524e-02 -8.288569e-02 -7.697724e-02 -7.867856e-02 -7.201488e-02 -7.448277e-02 -6.774880e-02 -7.156047e-02 -6.505014e-02 -6.990172e-02 -6.333075e-02 -6.849986e-02 -6.171800e-02 -6.676052e-02 -5.983278e-02 -6.418907e-02 -5.696314e-02 -5.985226e-02 -5.229802e-02 -5.340927e-02 -4.604460e-02 -4.562158e-02 -3.915470e-02 -3.746521e-02 -3.229911e-02 -2.937389e-02 -2.541887e-02 -2.109104e-02 -1.810364e-02 -1.263722e-02 -1.065253e-02 -4.624133e-03 -3.482974e-03 2.779396e-03 3.724550e-03 1.013919e-02 1.160968e-02 1.796258e-02 2.048129e-02 2.648697e-02 3.040239e-02 3.572737e-02 4.097213e-02 4.514416e-02 5.141279e-02 5.428138e-02 6.141699e-02 6.335074e-02 7.142311e-02 7.302840e-02 8.200708e-02 8.352141e-02 9.302422e-02 9.413596e-02 1.035882e-01 1.043232e-01 1.135970e-01 1.141140e-01 
1.032531e-01 1.060009e-01 1.116263e-01 1.148829e-01 1.200642e-01 1.245109e-01 1.292067e-01 1.358181e-01 1.411009e-01 1.485137e-01 1.552802e-01 1.627486e-01 1.711986e-01 1.781130e-01 5.323257e-03 3.425503e-03 -1.619280e-01 -1.698100e-01 -3.321144e-01 -3.404383e-01 -5.057581e-01 -5.074963e-01 -4.897329e-01 -4.893228e-01 -4.725167e-01 -4.697966e-01 -4.547404e-01 -4.500613e-01 -4.363200e-01 -4.292958e-01 -4.161951e-01 -4.073966e-01 -3.950526e-01 -3.854431e-01 -3.736575e-01 -3.636938e-01 -3.521011e-01 -3.423637e-01 -3.306920e-01 -3.212058e-01 -3.087371e-01 -2.996034e-01 -2.867728e-01 -2.790933e-01 -2.666733e-01 -2.604440e-01 -2.476953e-01 -2.417993e-01 -2.282448e-01 -2.225000e-01 -2.086209e-01 -2.030549e-01 -1.890177e-01 -1.832582e-01 -1.692453e-01 -1.634010e-01 -1.500321e-01 -1.443036e-01 -1.318792e-01 -1.263685e-01 -1.155426e-01 -1.113374e-01 -1.031014e-01 -1.008560e-01 -9.493468e-02 -9.489126e-02 -9.100740e-02 -9.338209e-02 -9.119992e-02 -9.503345e-02 -9.284003e-02 -9.664046e-02 -9.270444e-02 -9.553676e-02 -8.942479e-02 -9.187499e-02 -8.473942e-02 -8.808414e-02 -8.085446e-02 -8.498622e-02 -7.702035e-02 -8.068763e-02 -7.174689e-02 -7.503273e-02 -6.624336e-02 -6.927118e-02 -6.060349e-02 -6.209504e-02 -5.326834e-02 -5.315172e-02 -4.578998e-02 -4.539103e-02 -4.084518e-02 -4.015724e-02 -3.812751e-02 -3.638006e-02 -3.625115e-02 -3.294224e-02 -3.397717e-02 -2.877892e-02 -3.044672e-02 -2.383066e-02 -2.573472e-02 -1.775035e-02 -1.843979e-02 -8.702683e-03 -7.275024e-03 3.070641e-03 5.946296e-03 1.532669e-02 1.960108e-02 2.766476e-02 3.339965e-02 3.925652e-02 4.513215e-02 4.763425e-02 5.287370e-02 5.313091e-02 5.892164e-02 5.945914e-02 6.656841e-02 6.846399e-02 7.598562e-02 7.875382e-02 8.550544e-02 8.829763e-02 9.460875e-02 9.727774e-02 
1.188031e-01 1.179646e-01 1.266730e-01 1.259064e-01 1.335704e-01 1.344520e-01 1.387888e-01 1.461534e-01 1.531592e-01 1.593618e-01 1.698365e-01 1.743427e-01 1.864089e-01 1.891290e-01 2.451824e-02 1.502772e-02 -1.441035e-01 -1.687381e-01 -3.195054e-01 -3.480350e-01 -5.020455e-01 -5.067198e-01 -4.906023e-01 -4.912098e-01 -4.756745e-01 -4.727850e-01 -4.592635e-01 -4.539010e-01 -4.415719e-01 -4.328050e-01 -4.204493e-01 -4.090489e-01 -3.971247e-01 -3.844940e-01 -3.728753e-01 -3.596439e-01 -3.483946e-01 -3.360390e-01 -3.256586e-01 -3.144236e-01 -3.036937e-01 -2.932408e-01 -2.827617e-01 -2.749025e-01 -2.659066e-01 -2.603450e-01 -2.511198e-01 -2.456610e-01 -2.349172e-01 -2.290169e-01 -2.169899e-01 -2.102690e-01 -1.966069e-01 -1.883398e-01 -1.731370e-01 -1.637439e-01 -1.483610e-01 -1.387521e-01 -1.238081e-01 -1.144980e-01 -1.014051e-01 -9.425119e-02 -8.466585e-02 -8.085417e-02 -7.463452e-02 -7.434924e-02 -7.173015e-02 -7.538058e-02 -7.551136e-02 -8.150660e-02 -8.172753e-02 -8.757590e-02 -8.556829e-02 -8.990646e-02 -8.477803e-02 -8.785470e-02 -8.097496e-02 -8.438101e-02 -7.693273e-02 -8.055985e-02 -7.124437e-02 -7.317953e-02 -6.173895e-02 -6.288620e-02 -5.176482e-02 -5.336652e-02 -4.260924e-02 -4.289199e-02 -3.188029e-02 -3.113431e-02 -2.261791e-02 -2.338375e-02 -1.922714e-02 -2.127413e-02 -2.050997e-02 -2.229847e-02 -2.371838e-02 -2.411740e-02 -2.616527e-02 -2.389605e-02 -2.563243e-02 -2.129981e-02 -2.257824e-02 -1.592773e-02 -1.459743e-02 -4.429384e-03 5.270733e-04 1.222688e-02 1.855419e-02 2.888555e-02 3.599064e-02 4.474172e-02 5.286164e-02 5.883981e-02 6.591048e-02 6.709826e-02 7.207818e-02 7.003568e-02 7.535271e-02 7.383130e-02 8.136665e-02 8.166806e-02 9.111694e-02 9.149693e-02 1.008056e-01 1.009550e-01 1.101560e-01 1.097664e-01 
9.943371e-02 1.001142e-01 1.054756e-01 1.055407e-01 1.100902e-01 1.101589e-01 1.100421e-01 1.219722e-01 1.236045e-01 1.346096e-01 1.412791e-01 1.521718e-01 1.596746e-01 1.645681e-01 9.142315e-03 -4.495363e-03 -1.502184e-01 -1.817925e-01 -3.179338e-01 -3.575164e-01 -5.001402e-01 -5.180425e-01 -4.965348e-01 -4.994175e-01 -4.764479e-01 -4.736240e-01 -4.585223e-01 -4.563547e-01 -4.441038e-01 -4.349308e-01 -4.199026e-01 -4.064858e-01 -3.930540e-01 -3.801347e-01 -3.676664e-01 -3.538573e-01 -3.420218e-01 -3.320210e-01 -3.236291e-01 -3.149099e-01 -3.020240e-01 -2.903893e-01 -2.769781e-01 -2.728215e-01 -2.674794e-01 -2.700076e-01 -2.631219e-01 -2.612952e-01 -2.487873e-01 -2.453279e-01 -2.326448e-01 -2.290920e-01 -2.134444e-01 -2.045082e-01 -1.841519e-01 -1.725538e-01 -1.528032e-01 -1.407110e-01 -1.199527e-01 -1.054587e-01 -8.646254e-02 -7.657470e-02 -6.646157e-02 -6.366326e-02 -5.857221e-02 -5.972877e-02 -6.066982e-02 -6.964482e-02 -7.813808e-02 -9.206356e-02 -1.000418e-01 -1.105791e-01 -1.117494e-01 -1.158765e-01 -1.080608e-01 -1.069311e-01 -9.649726e-02 -9.929955e-02 -9.326442e-02 -9.997235e-02 -9.020159e-02 -8.967574e-02 -7.216127e-02 -7.044668e-02 -5.777486e-02 -6.200131e-02 -5.115827e-02 -4.985896e-02 -3.224645e-02 -2.547294e-02 -1.287073e-02 -1.390024e-02 -1.309920e-02 -1.860098e-02 -2.268407e-02 -2.694918e-02 -3.437347e-02 -3.729759e-02 -4.528790e-02 -4.240675e-02 -4.904590e-02 -4.469468e-02 -5.379190e-02 -4.748612e-02 -5.037000e-02 -3.315921e-02 -2.494206e-02 -3.903211e-03 3.368712e-03 1.765870e-02 2.472838e-02 3.890218e-02 5.221259e-02 6.421367e-02 7.378058e-02 7.114752e-02 6.995102e-02 5.776291e-02 5.801077e-02 5.191338e-02 6.062179e-02 6.278862e-02 7.368012e-02 7.895696e-02 8.379455e-02 8.679216e-02 9.227437e-02 9.386679e-02 
1.172482e-01 1.128711e-01 1.244098e-01 1.152575e-01 1.313795e-01 1.126442e-01 8.873077e-02 1.307719e-01 1.337248e-01 1.442379e-01 1.618546e-01 1.665818e-01 1.903115e-01 1.618574e-01 5.644241e-02 5.422492e-02 -1.035348e-01 -1.855502e-01 -2.738456e-01 -4.279020e-01 -4.605218e-01 -5.015599e-01 -4.877073e-01 -4.902717e-01 -4.709962e-01 -4.661282e-01 -4.554643e-01 -4.527106e-01 -4.445585e-01 -4.324299e-01 -4.185473e-01 -4.006229e-01 -3.879639e-01 -3.701891e-01 -3.566514e-01 -3.358762e-01 -3.218666e-01 -3.066426e-01 -2.998965e-01 -2.895270e-01 -2.784731e-01 -2.639839e-01 -2.526082e-01 -2.486501e-01 -2.485012e-01 -2.535121e-01 -2.528333e-01 -2.537438e-01 -2.463830e-01 -2.447627e-01 -2.351410e-01 -2.305219e-01 -2.151482e-01 -2.034933e-01 -1.802654e-01 -1.632400e-01 -1.399556e-01 -1.227829e-01 -9.682201e-02 -7.680399e-02 -5.380539e-02 -3.886391e-02 -2.673875e-02 -2.075680e-02 -1.328436e-02 -1.411371e-02 -1.785361e-02 -3.115831e-02 -4.552661e-02 -6.407231e-02 -7.749892e-02 -9.230993e-02 -9.722908e-02 -1.038009e-01 -9.649381e-02 -9.640348e-02 -8.681296e-02 -9.057625e-02 -8.617919e-02 -9.398062e-02 -8.255329e-02 -7.896956e-02 -5.631612e-02 -5.003732e-02 -3.449498e-02 -3.803299e-02 -2.501118e-02 -2.175092e-02 4.665430e-04 9.995340e-03 2.504586e-02 2.258683e-02 2.193655e-02 1.105856e-02 3.164525e-03 -8.077564e-03 -2.010211e-02 -2.977871e-02 -3.947892e-02 -3.913615e-02 -4.501160e-02 -4.369800e-02 -5.333724e-02 -4.988389e-02 -5.074635e-02 -3.132094e-02 -1.633498e-02 9.070045e-03 2.144988e-02 3.749076e-02 4.758590e-02 6.342505e-02 7.955456e-02 9.247157e-02 1.020953e-01 9.708075e-02 9.232829e-02 7.592854e-02 7.193779e-02 6.358519e-02 6.850039e-02 7.431766e-02 8.938263e-02 8.786239e-02 9.868704e-02 9.969488e-02 1.091502e-01 1.075632e-01 
9.945177e-02 9.679216e-02 1.039986e-01 9.766631e-02 1.084279e-01 9.395664e-02 3.932812e-02 1.099241e-01 9.749005e-02 1.189243e-01 1.195917e-01 1.312857e-01 1.349798e-01 1.153374e-01 9.556240e-02 7.372514e-02 4.574631e-02 -4.372113e-03 -8.058688e-03 -8.273308e-02 -7.501292e-02 -1.163854e-01 -1.125285e-01 -1.277503e-01 -1.231353e-01 -1.351961e-01 -1.257014e-01 -1.328509e-01 -1.209061e-01 -1.250392e-01 -1.112860e-01 -1.112634e-01 -9.490945e-02 -8.877811e-02 -6.820530e-02 -5.634896e-02 -3.423733e-02 -2.054176e-02 -3.514314e-03 4.111511e-03 1.316270e-02 1.750858e-02 2.310332e-02 2.787152e-02 3.479403e-02 4.066268e-02 4.296236e-02 4.230839e-02 4.084242e-02 4.050686e-02 4.481153e-02 5.131673e-02 6.010113e-02 6.547653e-02 7.685052e-02 8.532358e-02 9.943411e-02 1.066288e-01 1.214013e-01 1.249204e-01 1.363432e-01 1.408672e-01 1.540329e-01 1.582594e-01 1.719115e-01 1.694779e-01 1.746796e-01 1.672954e-01 1.709124e-01 1.650876e-01 1.669154e-01 1.566778e-01 1.544462e-01 1.406977e-01 1.360020e-01 1.201344e-01 1.139880e-01 1.043914e-01 1.040902e-01 1.009440e-01 1.049140e-01 1.035956e-01 1.069683e-01 1.089031e-01 1.141954e-01 1.168356e-01 1.222309e-01 1.211843e-01 1.213151e-01 1.149807e-01 1.134008e-01 1.068413e-01 1.070366e-01 9.686366e-02 9.422041e-02 7.970751e-02 7.716401e-02 6.380454e-02 6.687892e-02 5.837294e-02 6.531215e-02 5.873703e-02 6.774035e-02 6.408333e-02 7.288277e-02 7.064428e-02 7.733239e-02 7.779996e-02 8.302629e-02 8.738222e-02 8.792357e-02 9.134105e-02 8.229721e-02 8.474968e-02 7.248755e-02 8.308626e-02 7.467371e-02 9.100985e-02 7.976267e-02 9.219310e-02 7.483711e-02 8.776718e-02 8.624631e-02 7.636507e-02 8.749452e-02 8.687233e-02 9.423637e-02 9.312210e-02 
1.176018e-01 1.172128e-01 1.196172e-01 1.204672e-01 1.200715e-01 1.236385e-01 9.152492e-02 1.306198e-01 1.183554e-01 1.352505e-01 1.286876e-01 1.362304e-01 1.331755e-01 1.315633e-01 1.233262e-01 1.226504e-01 1.113795e-01 1.011767e-01 9.851189e-02 8.235097e-02 8.832703e-02 7.974806e-02 8.046589e-02 6.802836e-02 6.442217e-02 5.106575e-02 5.808135e-02 5.206094e-02 6.370319e-02 5.521000e-02 6.520105e-02 5.784898e-02 7.176191e-02 7.142941e-02 8.889126e-02 9.258202e-02 1.108018e-01 1.203277e-01 1.381404e-01 1.453033e-01 1.515601e-01 1.521613e-01 1.538342e-01 1.616244e-01 1.715407e-01 1.860910e-01 1.910619e-01 1.965076e-01 1.935879e-01 1.975632e-01 1.991889e-01 2.075661e-01 2.106320e-01 2.135397e-01 2.149226e-01 2.169878e-01 2.220142e-01 2.225599e-01 2.267932e-01 2.211073e-01 2.238166e-01 2.217758e-01 2.326829e-01 2.347743e-01 2.485614e-01 2.468441e-01 2.594541e-01 2.605358e-01 2.770466e-01 2.820441e-01 2.950546e-01 2.914151e-01 2.942820e-01 2.807725e-01 2.724472e-01 2.524935e-01 2.415276e-01 2.308447e-01 2.294915e-01 2.286766e-01 2.269915e-01 2.208549e-01 2.113407e-01 2.068355e-01 2.044195e-01 2.075421e-01 2.069796e-01 2.013712e-01 1.892215e-01 1.733638e-01 1.642751e-01 1.554464e-01 1.586894e-01 1.514137e-01 1.570586e-01 1.452831e-01 1.541129e-01 1.421123e-01 1.549908e-01 1.408476e-01 1.553782e-01 1.434654e-01 1.632852e-01 1.539962e-01 1.678626e-01 1.502898e-01 1.509698e-01 1.332526e-01 1.336518e-01 1.273502e-01 1.236949e-01 1.176479e-01 9.946991e-02 9.543127e-02 7.766077e-02 9.426386e-02 8.942537e-02 1.194211e-01 1.115145e-01 1.317476e-01 1.131428e-01 1.222186e-01 1.125704e-01 1.052279e-01 1.119249e-01 1.095856e-01 1.148044e-01 1.135867e-01 
1.005763e-01 1.026728e-01 9.991615e-02 1.042775e-01 9.662534e-02 1.059595e-01 8.872483e-02 1.067379e-01 9.456043e-02 1.059823e-01 9.899076e-02 1.014839e-01 1.003932e-01 9.476377e-02 1.006037e-01 8.875652e-02 9.945658e-02 8.335751e-02 9.682547e-02 7.978192e-02 9.430031e-02 7.770361e-02 8.826881e-02 7.035261e-02 7.819863e-02 6.241891e-02 7.424415e-02 6.327524e-02 7.708637e-02 6.679364e-02 8.005948e-02 7.188597e-02 8.685482e-02 8.334078e-02 9.965194e-02 9.947754e-02 1.154044e-01 1.187029e-01 1.332928e-01 1.367152e-01 1.453470e-01 1.467054e-01 1.521210e-01 1.568936e-01 1.645514e-01 1.724899e-01 1.778591e-01 1.826733e-01 1.845945e-01 1.884760e-01 1.919297e-01 1.970012e-01 2.017333e-01 2.048641e-01 2.100084e-01 2.121705e-01 2.193897e-01 2.200099e-01 2.269417e-01 2.240082e-01 2.302475e-01 2.282537e-01 2.376280e-01 2.363030e-01 2.466577e-01 2.430296e-01 2.529351e-01 2.509876e-01 2.616953e-01 2.611438e-01 2.692889e-01 2.637747e-01 2.659730e-01 2.548668e-01 2.507617e-01 2.371729e-01 2.316237e-01 2.226802e-01 2.206283e-01 2.165435e-01 2.137878e-01 2.083142e-01 2.022348e-01 1.977645e-01 1.945232e-01 1.932699e-01 1.907913e-01 1.854533e-01 1.785117e-01 1.680875e-01 1.629649e-01 1.545452e-01 1.558648e-01 1.479346e-01 1.521086e-01 1.417447e-01 1.481724e-01 1.365405e-01 1.449827e-01 1.317820e-01 1.414414e-01 1.294755e-01 1.412757e-01 1.309254e-01 1.394392e-01 1.269087e-01 1.285877e-01 1.176475e-01 1.168527e-01 1.124040e-01 1.073814e-01 1.056723e-01 9.296240e-02 9.536080e-02 8.169051e-02 9.516565e-02 8.611460e-02 1.065192e-01 9.637344e-02 1.124026e-01 9.898565e-02 1.074720e-01 9.850994e-02 9.938976e-02 9.883672e-02 9.952945e-02 9.988873e-02 1.009532e-01 
