# vtk DataFile Version 2.0
Comment goes here
ASCII

DATASET STRUCTURED_POINTS
FIELD FieldData 1
TIME 1 1 double
0.80000000
DIMENSIONS    128   16   1

ORIGIN    0.000   0.000   0.000
SPACING   0.0078125 0.015625   1.000

POINT_DATA   2048
SCALARS uMag double
LOOKUP_TABLE default

2.423801e-03 9.060146e-04 2.464064e-03 2.884620e-03 2.021797e-03 7.825040e-03 1.684480e-03 2.090466e-03 3.488993e-04 7.750187e-04 5.607486e-04 3.512961e-04 7.990309e-04 1.719535e-03 3.348125e-03 1.005480e-03 4.647584e-03 1.466022e-03 4.044857e-03 1.767399e-03 2.836471e-03 1.099361e-03 1.011242e-03 9.164971e-04 1.550750e-03 3.822595e-04 1.702344e-03 4.942997e-05 1.657595e-03 4.400238e-04 1.510080e-03 7.908754e-04 1.319201e-03 1.093811e-03 1.130472e-03 1.337794e-03 9.772328e-04 1.511480e-03 8.802345e-04 1.606856e-03 8.504525e-04 1.625449e-03 8.934232e-04 1.581944e-03 1.009698e-03 1.503878e-03 1.193357e-03 1.435414e-03 1.430835e-03 1.450706e-03 1.697402e-03 1.653185e-03 1.956422e-03 2.170380e-03 2.357902e-03 3.645986e-03 4.123567e-03 5.457375e-03 4.035506e-03 5.073664e-03 5.815203e-03 5.776234e-03 5.158703e-03 7.544133e-03 5.657724e-03 5.823612e-03 7.327699e-03 3.864956e-03 6.535896e-03 6.552649e-03 2.416319e-03 3.510871e-03 3.780940e-03 2.500092e-03 2.488769e-03 2.088888e-03 1.996904e-03 1.859742e-03 1.634968e-03 1.557289e-03 1.419253e-03 1.246608e-03 1.379678e-03 9.584350e-04 1.465016e-03 7.104942e-04 1.596771e-03 5.176378e-04 1.709685e-03 3.926633e-04 1.756977e-03 3.525245e-04 1.709836e-03 4.193571e-04 1.558079e-03 6.022313e-04 1.307018e-03 8.876458e-04 9.742553e-04 1.244307e-03 5.910545e-04 1.628392e-03 2.048694e-04 1.987582e-03 1.279524e-04 2.262018e-03 3.402355e-04 2.386806e-03 3.794992e-04 2.301710e-03 2.002103e-04 1.963810e-03 2.216135e-04 1.355068e-03 8.667506e-04 4.893301e-04 1.647694e-03 5.660769e-04 2.369961e-03 1.636435e-03 2.664094e-03 2.289934e-03 1.812960e-03 1.435532e-04 1.531905e-03 4.681687e-04 2.300766e-03 8.562013e-05 
2.152476e-03 8.412021e-04 2.815172e-03 2.493968e-03 5.257489e-03 9.052222e-03 5.928899e-03 2.216844e-03 2.331263e-03 3.330012e-04 4.144841e-03 6.724567e-04 7.582492e-03 2.612807e-03 6.400157e-03 1.825356e-03 5.738770e-03 1.863305e-03 5.098397e-03 2.950866e-03 5.000075e-03 4.793913e-03 2.331099e-03 2.176331e-03 1.791148e-03 1.085259e-03 1.346378e-03 5.852169e-04 9.822198e-04 4.419110e-04 6.602130e-04 4.683851e-04 3.871942e-04 5.538984e-04 2.173447e-04 6.526187e-04 2.238442e-04 7.349440e-04 2.906017e-04 7.719622e-04 3.337533e-04 7.458667e-04 3.554640e-04 6.587896e-04 4.006237e-04 5.382783e-04 5.623337e-04 5.123260e-04 9.322886e-04 9.198429e-04 1.632923e-03 2.006815e-03 3.021914e-03 4.325112e-03 6.283110e-03 9.199182e-03 9.211655e-03 6.669066e-03 4.443517e-03 7.082558e-03 5.651546e-03 4.885663e-03 5.673513e-03 4.828265e-03 5.268725e-03 5.064033e-03 7.631576e-03 4.186394e-03 6.807910e-03 1.200730e-02 8.642398e-03 8.480709e-03 9.967043e-03 8.279906e-03 6.007327e-03 3.641204e-03 2.709633e-03 1.812704e-03 1.283229e-03 1.086408e-03 5.585967e-04 7.094063e-04 2.335590e-04 4.994635e-04 3.049377e-04 4.684366e-04 4.674539e-04 5.420940e-04 5.913698e-04 6.128323e-04 6.378641e-04 6.368582e-04 5.894692e-04 5.853922e-04 4.642337e-04 4.543482e-04 3.304223e-04 3.315030e-04 3.918558e-04 4.393942e-04 6.814316e-04 7.290365e-04 1.031826e-03 1.040659e-03 1.343956e-03 1.293636e-03 1.550217e-03 1.417273e-03 1.608971e-03 1.350957e-03 1.492927e-03 1.084591e-03 1.214862e-03 7.443288e-04 9.550798e-04 9.402802e-04 1.138308e-03 1.830187e-03 1.704548e-03 2.951004e-03 2.166353e-03 3.898728e-03 3.193756e-03 3.347582e-03 3.298583e-03 9.888456e-04 2.307246e-03 1.260995e-04 
3.194261e-03 1.245514e-03 4.634114e-03 2.163941e-03 1.409488e-02 2.080111e-03 1.656630e-02 6.919729e-03 3.550299e-03 4.124916e-03 2.993540e-03 6.607790e-03 4.904771e-03 2.956680e-03 4.874462e-03 3.016298e-03 4.736458e-03 3.865166e-03 4.032857e-03 5.158905e-03 3.985849e-03 5.781756e-03 4.671451e-03 3.621041e-03 2.097568e-03 3.095508e-03 1.014878e-03 2.690252e-03 3.570943e-04 2.321980e-03 2.243654e-04 1.972214e-03 5.242892e-04 1.634330e-03 7.974989e-04 1.312176e-03 1.006747e-03 1.024740e-03 1.147221e-03 8.038412e-04 1.234566e-03 6.598709e-04 1.269070e-03 5.654822e-04 1.239774e-03 4.759268e-04 1.203795e-03 5.266468e-04 1.464654e-03 1.203173e-03 2.482146e-03 2.820429e-03 4.736550e-03 6.149044e-03 9.378291e-03 1.217803e-02 1.327772e-02 1.331611e-02 1.337073e-02 1.413410e-02 1.653346e-02 1.567604e-02 1.566852e-02 1.772951e-02 1.654310e-02 1.627586e-02 1.855518e-02 1.287014e-02 1.706937e-02 1.641547e-02 1.027367e-02 1.335976e-02 1.441361e-02 1.352608e-02 9.883728e-03 6.879136e-03 4.572720e-03 3.542208e-03 2.126170e-03 1.954901e-03 9.406505e-04 1.335712e-03 5.174532e-04 1.371085e-03 4.605463e-04 1.624320e-03 3.826484e-04 1.846061e-03 2.548628e-04 1.995741e-03 1.784215e-04 2.092423e-03 2.806961e-04 2.108594e-03 5.217550e-04 2.010627e-03 8.201239e-04 1.810398e-03 1.154491e-03 1.538491e-03 1.520762e-03 1.215932e-03 1.897153e-03 8.507603e-04 2.233217e-03 4.693880e-04 2.480333e-03 1.911221e-04 2.633542e-03 3.767418e-04 2.682171e-03 8.052488e-04 2.606448e-03 1.329440e-03 2.469050e-03 1.921533e-03 2.413351e-03 2.561062e-03 2.579291e-03 3.216201e-03 2.822555e-03 3.872680e-03 8.518384e-03 1.114012e-02 8.420790e-03 3.764817e-03 4.257617e-03 1.679512e-03 
1.582077e-03 2.724671e-03 1.190695e-03 7.351746e-03 1.370755e-02 1.475015e-02 8.985461e-03 2.413557e-03 3.930476e-03 2.209216e-03 4.868773e-03 3.415123e-03 7.207051e-03 2.057936e-03 5.857975e-03 1.376235e-03 4.909568e-03 1.609479e-03 4.242583e-03 2.646800e-03 3.590583e-03 4.401531e-03 2.643447e-03 2.662657e-03 1.403999e-03 2.106290e-03 1.221021e-03 1.874969e-03 1.189980e-03 1.784510e-03 1.135313e-03 1.703681e-03 1.029418e-03 1.561817e-03 8.814628e-04 1.346065e-03 6.962380e-04 1.088599e-03 4.583557e-04 8.272861e-04 2.124026e-04 5.769545e-04 1.406159e-04 3.962941e-04 1.914592e-04 4.900937e-04 1.043119e-04 8.467030e-04 1.985716e-04 1.438227e-03 8.903645e-04 2.503717e-03 2.334766e-03 4.527581e-03 5.322929e-03 8.364145e-03 9.285112e-03 9.597327e-03 8.231519e-03 8.174366e-03 8.204598e-03 7.903364e-03 6.795679e-03 7.612928e-03 7.439395e-03 6.721090e-03 9.942141e-03 7.490090e-03 9.419976e-03 1.057618e-02 9.120654e-03 1.454706e-02 1.170949e-02 1.036606e-02 6.667616e-03 5.221364e-03 3.399161e-03 2.597706e-03 1.883715e-03 1.221203e-03 1.260171e-03 5.071700e-04 1.043404e-03 4.195031e-04 8.851456e-04 6.416805e-04 6.782682e-04 7.681854e-04 4.634805e-04 7.961938e-04 2.487172e-04 8.837977e-04 1.171380e-04 1.058075e-03 4.682850e-04 1.255998e-03 8.197032e-04 1.449440e-03 1.074987e-03 1.590676e-03 1.206929e-03 1.609181e-03 1.210589e-03 1.444558e-03 1.076001e-03 1.098137e-03 7.846897e-04 6.391577e-04 6.025631e-04 3.728291e-04 1.033367e-03 1.023135e-03 1.728943e-03 1.891897e-03 2.466840e-03 2.746130e-03 3.091118e-03 3.456463e-03 3.393062e-03 3.676078e-03 2.882699e-03 1.891549e-03 3.393540e-03 2.755190e-02 3.493507e-03 8.044863e-03 3.910261e-03 2.798235e-03 
4.645192e-03 2.364265e-03 7.011939e-03 4.629068e-03 4.268331e-03 1.481544e-02 1.376801e-02 1.808112e-03 2.118691e-03 1.909045e-03 2.691612e-03 3.107002e-03 6.356615e-03 4.258295e-03 5.680381e-03 4.863290e-03 5.289035e-03 5.276872e-03 4.831277e-03 5.934521e-03 4.044435e-03 7.037676e-03 2.997162e-03 4.057542e-03 1.659162e-03 2.677686e-03 1.127480e-03 1.862459e-03 1.034306e-03 1.400092e-03 1.188049e-03 1.138348e-03 1.388352e-03 9.534313e-04 1.542713e-03 7.746141e-04 1.605969e-03 6.000707e-04 1.560375e-03 4.548932e-04 1.421171e-03 3.244274e-04 1.191579e-03 1.838190e-04 8.294315e-04 1.434855e-04 2.690736e-04 5.165096e-04 7.494505e-04 1.341819e-03 2.300443e-03 3.041103e-03 5.022091e-03 6.474144e-03 1.011800e-02 1.348348e-02 1.901886e-02 1.964910e-02 1.783246e-02 1.934443e-02 1.869713e-02 1.887240e-02 1.801800e-02 1.807320e-02 1.904715e-02 1.745369e-02 2.139012e-02 1.806438e-02 1.967479e-02 2.146377e-02 1.974148e-02 2.479131e-02 2.225753e-02 1.626601e-02 1.107939e-02 8.335073e-03 5.367837e-03 4.379099e-03 2.518393e-03 2.225394e-03 1.138838e-03 9.898787e-04 6.908717e-04 5.334333e-04 6.648619e-04 8.157743e-04 6.264139e-04 1.092224e-03 5.469603e-04 1.235977e-03 4.916487e-04 1.312675e-03 5.396441e-04 1.327493e-03 7.720020e-04 1.264597e-03 1.122191e-03 1.167837e-03 1.511536e-03 1.091995e-03 1.901899e-03 1.040235e-03 2.256877e-03 9.679310e-04 2.520094e-03 8.566879e-04 2.632415e-03 7.001231e-04 2.586959e-03 4.328323e-04 2.387966e-03 3.918478e-04 2.027771e-03 1.002269e-03 1.656203e-03 1.831982e-03 1.760554e-03 2.762720e-03 2.702437e-03 3.673950e-03 4.051755e-03 4.462763e-03 6.579623e-03 1.725515e-02 9.995862e-03 7.966523e-03 6.612298e-03 3.025989e-03 
7.370287e-03 7.060985e-03 8.999520e-03 9.832893e-03 1.227893e-02 1.023665e-02 1.350573e-02 4.055537e-03 6.457404e-03 3.695390e-03 6.023043e-03 5.953636e-03 6.886263e-03 5.850886e-03 6.398733e-03 6.015950e-03 6.231324e-03 6.210896e-03 6.026756e-03 6.389040e-03 5.830324e-03 6.859570e-03 5.813945e-03 6.882754e-03 5.104166e-03 6.957062e-03 4.970002e-03 6.836000e-03 5.017245e-03 6.669516e-03 5.173006e-03 6.486632e-03 5.372730e-03 6.293647e-03 5.567211e-03 6.094153e-03 5.719602e-03 5.896083e-03 5.811834e-03 5.715846e-03 5.840143e-03 5.558156e-03 5.790868e-03 5.398624e-03 5.632408e-03 5.185747e-03 5.327036e-03 4.874589e-03 4.895672e-03 4.548016e-03 4.649537e-03 4.869996e-03 5.924353e-03 7.838498e-03 1.112619e-02 1.400716e-02 1.086156e-02 7.381645e-03 7.452030e-03 6.838579e-03 6.766419e-03 7.947448e-03 8.540730e-03 7.901978e-03 9.866087e-03 9.120775e-03 9.678842e-03 1.079756e-02 1.028692e-02 9.831108e-03 1.271815e-02 1.149995e-02 1.576248e-02 1.816129e-02 1.283292e-02 9.209640e-03 6.448826e-03 5.278213e-03 4.547289e-03 4.499055e-03 4.515582e-03 4.862413e-03 4.833852e-03 5.398707e-03 5.061648e-03 5.855846e-03 5.154101e-03 6.192690e-03 5.165186e-03 6.428849e-03 5.172914e-03 6.587591e-03 5.224450e-03 6.657501e-03 5.329067e-03 6.621492e-03 5.493145e-03 6.487457e-03 5.722795e-03 6.277594e-03 6.009043e-03 6.015541e-03 6.322945e-03 5.723847e-03 6.619481e-03 5.432112e-03 6.856835e-03 5.193302e-03 7.011016e-03 5.066173e-03 7.046971e-03 5.078211e-03 6.913798e-03 5.238805e-03 6.579846e-03 5.550362e-03 6.027039e-03 6.006390e-03 5.241394e-03 6.614954e-03 4.234110e-03 7.331636e-03 4.669776e-03 9.976498e-03 1.254848e-02 8.230554e-03 8.398222e-03 6.630613e-03 
8.176314e-03 7.721272e-03 8.814285e-03 9.360077e-03 1.046323e-02 1.258253e-02 8.647707e-03 6.845362e-03 9.087248e-03 6.337913e-03 8.654961e-03 7.150326e-03 8.663062e-03 6.397296e-03 6.974168e-03 6.561945e-03 6.772314e-03 6.779480e-03 6.541036e-03 6.996454e-03 6.348474e-03 7.467400e-03 7.198106e-03 8.548645e-03 7.379534e-03 8.944545e-03 7.440884e-03 9.004259e-03 7.485769e-03 8.909815e-03 7.570761e-03 8.749102e-03 7.684789e-03 8.560489e-03 7.804281e-03 8.362351e-03 7.906480e-03 8.165287e-03 7.974154e-03 7.975930e-03 7.995110e-03 7.794155e-03 7.958403e-03 7.611601e-03 7.856724e-03 7.420733e-03 7.703072e-03 7.245949e-03 7.578473e-03 7.222189e-03 7.741161e-03 7.756805e-03 8.822870e-03 9.760162e-03 1.209324e-02 1.439870e-02 1.575760e-02 1.283992e-02 1.019258e-02 1.056097e-02 9.847875e-03 1.025786e-02 9.160984e-03 9.480404e-03 1.001573e-02 9.197962e-03 1.191178e-02 1.033092e-02 1.189836e-02 1.231665e-02 1.311719e-02 1.743960e-02 1.973269e-02 1.608444e-02 1.306216e-02 1.025451e-02 9.194731e-03 8.026768e-03 7.840964e-03 7.412319e-03 7.491799e-03 7.449812e-03 7.485769e-03 7.696992e-03 7.551776e-03 7.972687e-03 7.604231e-03 8.210710e-03 7.635251e-03 8.392422e-03 7.665280e-03 8.513971e-03 7.715123e-03 8.570360e-03 7.796789e-03 8.558054e-03 7.916519e-03 8.481635e-03 8.074993e-03 8.352913e-03 8.264559e-03 8.188011e-03 8.468432e-03 8.006445e-03 8.663164e-03 7.832543e-03 8.825120e-03 7.696604e-03 8.935482e-03 7.628776e-03 8.978234e-03 7.649999e-03 8.943585e-03 7.771745e-03 8.840467e-03 7.996266e-03 8.704416e-03 8.311368e-03 8.599759e-03 8.668357e-03 8.594491e-03 8.896531e-03 8.497888e-03 1.055733e-02 9.416619e-03 8.331552e-03 8.367743e-03 7.485345e-03 
8.491634e-03 8.546125e-03 8.710112e-03 9.044794e-03 9.035103e-03 9.523747e-03 8.766685e-03 8.437371e-03 8.588973e-03 8.376231e-03 8.376905e-03 8.982403e-03 7.093003e-03 6.297338e-03 6.537952e-03 6.329808e-03 6.431572e-03 6.410620e-03 6.343067e-03 6.510869e-03 6.303063e-03 6.683644e-03 7.507963e-03 7.444179e-03 7.154232e-03 7.928792e-03 7.162287e-03 8.279178e-03 7.262215e-03 8.442427e-03 7.397652e-03 8.472240e-03 7.547592e-03 8.420425e-03 7.697231e-03 8.325915e-03 7.833031e-03 8.216523e-03 7.944356e-03 8.112046e-03 8.024779e-03 8.025093e-03 8.072450e-03 7.963954e-03 8.095365e-03 7.943552e-03 8.126561e-03 8.009299e-03 8.253286e-03 8.273218e-03 8.651154e-03 8.938617e-03 9.579520e-03 1.026106e-02 1.133562e-02 1.258389e-02 1.405039e-02 1.435684e-02 1.350412e-02 1.338555e-02 1.275392e-02 1.373666e-02 1.356536e-02 1.346620e-02 1.454873e-02 1.365794e-02 1.435011e-02 1.490827e-02 1.463244e-02 1.443792e-02 1.491522e-02 1.498380e-02 1.435970e-02 1.229064e-02 1.135837e-02 1.010286e-02 9.649506e-03 8.933238e-03 8.683886e-03 8.383729e-03 8.186392e-03 8.227598e-03 7.944689e-03 8.271301e-03 7.817528e-03 8.390066e-03 7.736756e-03 8.516381e-03 7.682811e-03 8.617642e-03 7.660191e-03 8.677418e-03 7.678136e-03 8.684600e-03 7.741833e-03 8.633505e-03 7.852249e-03 8.527117e-03 8.005641e-03 8.376702e-03 8.191411e-03 8.199632e-03 8.391329e-03 8.017819e-03 8.581649e-03 7.857480e-03 8.738009e-03 7.748748e-03 8.839782e-03 7.721282e-03 8.871459e-03 7.798238e-03 8.827179e-03 7.994647e-03 8.718989e-03 8.314056e-03 8.580278e-03 8.735974e-03 8.462832e-03 9.191858e-03 8.433573e-03 9.538935e-03 8.542066e-03 9.535254e-03 8.864270e-03 8.790579e-03 8.579817e-03 8.424990e-03 
8.648897e-03 8.561801e-03 8.928193e-03 9.177779e-03 9.281444e-03 9.722396e-03 9.091168e-03 8.765041e-03 9.135376e-03 8.663785e-03 8.955216e-03 9.129958e-03 7.070431e-03 6.657445e-03 6.961415e-03 6.720559e-03 6.827050e-03 6.841776e-03 6.697878e-03 6.972052e-03 6.625473e-03 7.068278e-03 7.609544e-03 7.627082e-03 7.201564e-03 8.109409e-03 7.280480e-03 8.474335e-03 7.439977e-03 8.632501e-03 7.597289e-03 8.641944e-03 7.744932e-03 8.566931e-03 7.884761e-03 8.455415e-03 8.015750e-03 8.339824e-03 8.135331e-03 8.242256e-03 8.243066e-03 8.179449e-03 8.344826e-03 8.168857e-03 8.459363e-03 8.238442e-03 8.629029e-03 8.441024e-03 8.933394e-03 8.867869e-03 9.494573e-03 9.641165e-03 1.044272e-02 1.084400e-02 1.179686e-02 1.236926e-02 1.326139e-02 1.356805e-02 1.366433e-02 1.367137e-02 1.359686e-02 1.347915e-02 1.337457e-02 1.305040e-02 1.341261e-02 1.285200e-02 1.351405e-02 1.298968e-02 1.349391e-02 1.333896e-02 1.382541e-02 1.371720e-02 1.381965e-02 1.265055e-02 1.232702e-02 1.114024e-02 1.087554e-02 9.958662e-03 9.803755e-03 9.215453e-03 9.100482e-03 8.821910e-03 8.656847e-03 8.652517e-03 8.373727e-03 8.606087e-03 8.187763e-03 8.614678e-03 8.066966e-03 8.636074e-03 7.999022e-03 8.644462e-03 7.980528e-03 8.624122e-03 8.009945e-03 8.566971e-03 8.084224e-03 8.472353e-03 8.197262e-03 8.346733e-03 8.338832e-03 8.202510e-03 8.494268e-03 8.056596e-03 8.645804e-03 7.929299e-03 8.775481e-03 7.842875e-03 8.868530e-03 7.819025e-03 8.916757e-03 7.875809e-03 8.922431e-03 8.024525e-03 8.901344e-03 8.264270e-03 8.879848e-03 8.570466e-03 8.879030e-03 8.880090e-03 8.888458e-03 9.108047e-03 8.862370e-03 9.224502e-03 8.822968e-03 8.672464e-03 8.633582e-03 8.373174e-03 
8.491399e-03 8.546197e-03 8.709687e-03 9.045183e-03 9.034531e-03 9.524419e-03 8.766498e-03 8.437126e-03 8.588917e-03 8.375943e-03 8.376822e-03 8.981844e-03 7.092884e-03 6.296943e-03 6.537776e-03 6.329762e-03 6.431730e-03 6.411033e-03 6.343516e-03 6.511670e-03 6.303562e-03 6.681975e-03 7.506001e-03 7.450618e-03 7.154626e-03 7.938194e-03 7.166929e-03 8.293603e-03 7.274949e-03 8.463480e-03 7.421785e-03 8.502086e-03 7.587616e-03 8.463640e-03 7.760576e-03 8.391249e-03 7.931557e-03 8.318324e-03 8.094992e-03 8.270893e-03 8.250237e-03 8.269834e-03 8.403933e-03 8.334953e-03 8.574723e-03 8.492045e-03 8.799774e-03 8.780120e-03 9.138382e-03 9.252996e-03 9.665536e-03 9.966457e-03 1.044370e-02 1.094053e-02 1.146507e-02 1.209420e-02 1.256266e-02 1.312374e-02 1.326424e-02 1.366815e-02 1.367609e-02 1.399728e-02 1.403822e-02 1.409261e-02 1.427499e-02 1.410248e-02 1.424515e-02 1.404163e-02 1.405414e-02 1.366766e-02 1.366129e-02 1.306696e-02 1.287891e-02 1.197747e-02 1.173177e-02 1.088761e-02 1.068278e-02 1.003386e-02 9.841027e-03 9.451741e-03 9.205237e-03 9.104427e-03 8.736568e-03 8.928319e-03 8.392169e-03 8.858957e-03 8.140307e-03 8.843254e-03 7.963532e-03 8.841737e-03 7.855057e-03 8.826908e-03 7.813576e-03 8.780998e-03 7.837594e-03 8.693763e-03 7.921748e-03 8.563150e-03 8.056700e-03 8.396671e-03 8.228694e-03 8.209714e-03 8.418145e-03 8.023017e-03 8.600868e-03 7.861747e-03 8.751781e-03 7.753856e-03 8.848500e-03 7.726903e-03 8.875294e-03 7.804231e-03 8.827352e-03 8.000877e-03 8.716482e-03 8.319916e-03 8.576220e-03 8.741582e-03 8.458821e-03 9.197337e-03 8.430336e-03 9.543253e-03 8.539738e-03 9.536524e-03 8.863566e-03 8.790628e-03 8.579596e-03 8.424864e-03 
8.176672e-03 7.721034e-03 8.814218e-03 9.360905e-03 1.046328e-02 1.258560e-02 8.648762e-03 6.842549e-03 9.088613e-03 6.335553e-03 8.655623e-03 7.147318e-03 8.664009e-03 6.396216e-03 6.973801e-03 6.561691e-03 6.772817e-03 6.780381e-03 6.541870e-03 6.998746e-03 6.349091e-03 7.466946e-03 7.198339e-03 8.562877e-03 7.389566e-03 8.969985e-03 7.462420e-03 9.044320e-03 7.525729e-03 8.968456e-03 7.636895e-03 8.832097e-03 7.787904e-03 8.678898e-03 7.961248e-03 8.535739e-03 8.143061e-03 8.424400e-03 8.326385e-03 8.363789e-03 8.510562e-03 8.369915e-03 8.701308e-03 8.457514e-03 8.913337e-03 8.644194e-03 9.173861e-03 8.952862e-03 9.520893e-03 9.408096e-03 9.993422e-03 1.002300e-02 1.060805e-02 1.077223e-02 1.132409e-02 1.156299e-02 1.202175e-02 1.224031e-02 1.255318e-02 1.267732e-02 1.286863e-02 1.285469e-02 1.305290e-02 1.285223e-02 1.314126e-02 1.282377e-02 1.313424e-02 1.275298e-02 1.307041e-02 1.256576e-02 1.294889e-02 1.226588e-02 1.254417e-02 1.170334e-02 1.188670e-02 1.100707e-02 1.112739e-02 1.034181e-02 1.040042e-02 9.806964e-03 9.771144e-03 9.428889e-03 9.254692e-03 9.189175e-03 8.842962e-03 9.050810e-03 8.522984e-03 8.974594e-03 8.285220e-03 8.925967e-03 8.124819e-03 8.877978e-03 8.040671e-03 8.811902e-03 8.030739e-03 8.714600e-03 8.087979e-03 8.579895e-03 8.201563e-03 8.411647e-03 8.357212e-03 8.221564e-03 8.535017e-03 8.026298e-03 8.710504e-03 7.847706e-03 8.858715e-03 7.711473e-03 8.957121e-03 7.643462e-03 8.989017e-03 7.664870e-03 8.946531e-03 7.786758e-03 8.837667e-03 8.010117e-03 8.698173e-03 8.324289e-03 8.593097e-03 8.681076e-03 8.588278e-03 8.907636e-03 8.492820e-03 1.055858e-02 9.416176e-03 8.330617e-03 8.368291e-03 7.484537e-03 
7.370468e-03 7.060714e-03 8.999187e-03 9.834766e-03 1.227976e-02 1.023999e-02 1.351818e-02 4.055291e-03 6.458168e-03 3.694942e-03 6.024060e-03 5.956157e-03 6.884138e-03 5.849244e-03 6.398279e-03 6.015384e-03 6.232118e-03 6.212310e-03 6.029151e-03 6.393263e-03 5.833123e-03 6.861143e-03 5.797497e-03 6.894590e-03 5.096387e-03 6.977925e-03 4.975148e-03 6.870533e-03 5.044196e-03 6.719504e-03 5.225269e-03 6.550727e-03 5.455180e-03 6.377767e-03 5.693605e-03 6.217489e-03 5.919517e-03 6.096101e-03 6.128634e-03 6.039782e-03 6.322982e-03 6.066284e-03 6.506353e-03 6.183985e-03 6.689092e-03 6.402933e-03 6.900057e-03 6.740475e-03 7.181462e-03 7.214473e-03 7.577904e-03 7.833069e-03 8.112094e-03 8.567699e-03 8.754250e-03 9.337593e-03 9.416965e-03 1.002878e-02 1.001957e-02 1.058435e-02 1.051227e-02 1.093496e-02 1.089601e-02 1.108463e-02 1.110904e-02 1.108707e-02 1.112764e-02 1.090590e-02 1.098314e-02 1.049236e-02 1.067357e-02 9.939333e-03 1.012210e-02 9.271965e-03 9.444738e-03 8.579728e-03 8.717910e-03 7.970502e-03 8.024907e-03 7.508382e-03 7.408418e-03 7.206453e-03 6.882302e-03 7.042817e-03 6.444225e-03 6.975689e-03 6.088883e-03 6.960851e-03 5.816164e-03 6.956782e-03 5.629139e-03 6.931576e-03 5.539639e-03 6.868438e-03 5.555228e-03 6.749189e-03 5.664417e-03 6.560471e-03 5.851643e-03 6.311917e-03 6.102046e-03 6.025632e-03 6.386741e-03 5.723838e-03 6.664296e-03 5.438055e-03 6.893893e-03 5.209823e-03 7.035539e-03 5.083453e-03 7.053913e-03 5.096675e-03 6.911561e-03 5.259715e-03 6.569415e-03 5.566668e-03 6.010706e-03 6.020796e-03 5.229421e-03 6.632839e-03 4.226732e-03 7.346939e-03 4.651248e-03 9.977658e-03 1.255234e-02 8.225932e-03 8.399518e-03 6.628585e-03 
4.647574e-03 2.363119e-03 7.012935e-03 4.631032e-03 4.266415e-03 1.481846e-02 1.378586e-02 1.819259e-03 2.114837e-03 1.911282e-03 2.690513e-03 3.112479e-03 6.357402e-03 4.262382e-03 5.684109e-03 4.864305e-03 5.292132e-03 5.276650e-03 4.832623e-03 5.937142e-03 4.038495e-03 7.040896e-03 2.988386e-03 4.067514e-03 1.656826e-03 2.696123e-03 1.145681e-03 1.900033e-03 1.083485e-03 1.455849e-03 1.270007e-03 1.200658e-03 1.501744e-03 1.025614e-03 1.692652e-03 8.792135e-04 1.818527e-03 7.580966e-04 1.892119e-03 6.789119e-04 1.935648e-03 6.918320e-04 1.961901e-03 8.507818e-04 1.978471e-03 1.147644e-03 2.011236e-03 1.547460e-03 2.098700e-03 2.036539e-03 2.282805e-03 2.614629e-03 2.590555e-03 3.259734e-03 3.017266e-03 3.910573e-03 3.512967e-03 4.453637e-03 3.934254e-03 4.763613e-03 4.289704e-03 4.931567e-03 4.542797e-03 4.967908e-03 4.758544e-03 4.820697e-03 4.931616e-03 4.616061e-03 4.934069e-03 4.420482e-03 4.721333e-03 4.034423e-03 4.461854e-03 3.526597e-03 4.006030e-03 2.984809e-03 3.476738e-03 2.527460e-03 2.946258e-03 2.201126e-03 2.453616e-03 2.004442e-03 2.018317e-03 1.907286e-03 1.641071e-03 1.864801e-03 1.318023e-03 1.835529e-03 1.052633e-03 1.787429e-03 8.722079e-04 1.702110e-03 8.384767e-04 1.589353e-03 9.841081e-04 1.448964e-03 1.265792e-03 1.285188e-03 1.604505e-03 1.142588e-03 1.950601e-03 1.040111e-03 2.270382e-03 9.461180e-04 2.513326e-03 8.264243e-04 2.633201e-03 6.386436e-04 2.596062e-03 3.828859e-04 2.391087e-03 4.261265e-04 2.035753e-03 1.043119e-03 1.660910e-03 1.854635e-03 1.775391e-03 2.756268e-03 2.717793e-03 3.662861e-03 4.042219e-03 4.452001e-03 6.542258e-03 1.727742e-02 1.001233e-02 7.963228e-03 6.617505e-03 3.022326e-03 
1.581573e-03 2.726411e-03 1.191780e-03 7.354415e-03 1.371024e-02 1.475884e-02 8.989904e-03 2.409575e-03 3.944720e-03 2.223563e-03 4.882266e-03 3.427143e-03 7.222010e-03 2.064714e-03 5.878809e-03 1.381326e-03 4.937537e-03 1.604502e-03 4.273343e-03 2.645574e-03 3.609702e-03 4.399005e-03 2.659492e-03 2.668338e-03 1.415134e-03 2.126666e-03 1.224310e-03 1.918847e-03 1.197182e-03 1.846184e-03 1.158649e-03 1.776403e-03 1.055775e-03 1.654630e-03 8.861234e-04 1.482319e-03 6.513149e-04 1.288853e-03 4.025067e-04 1.101535e-03 3.295211e-04 9.486692e-04 5.217205e-04 8.627794e-04 7.667794e-04 8.508450e-04 1.002229e-03 8.789608e-04 1.219485e-03 9.166022e-04 1.415334e-03 9.660165e-04 1.569408e-03 1.031143e-03 1.656869e-03 1.083127e-03 1.664817e-03 1.107680e-03 1.664387e-03 1.150176e-03 1.648159e-03 1.157426e-03 1.660159e-03 1.171159e-03 1.642433e-03 1.261465e-03 1.594196e-03 1.317900e-03 1.618475e-03 1.280847e-03 1.714272e-03 1.339481e-03 1.683516e-03 1.376136e-03 1.614234e-03 1.380923e-03 1.468034e-03 1.351709e-03 1.296026e-03 1.317249e-03 1.140447e-03 1.282250e-03 1.009276e-03 1.241291e-03 8.726471e-04 1.187017e-03 7.004278e-04 1.120826e-03 4.785229e-04 1.067105e-03 2.535636e-04 1.063771e-03 2.773999e-04 1.155074e-03 5.536352e-04 1.305999e-03 8.681102e-04 1.453859e-03 1.109316e-03 1.560972e-03 1.222449e-03 1.564333e-03 1.203177e-03 1.405920e-03 1.039557e-03 1.075653e-03 7.656101e-04 6.055503e-04 6.419304e-04 4.047560e-04 1.060670e-03 1.058880e-03 1.746627e-03 1.922068e-03 2.459305e-03 2.763893e-03 3.085800e-03 3.435117e-03 3.398300e-03 3.642660e-03 2.869218e-03 1.867419e-03 3.401731e-03 2.756856e-02 3.483341e-03 8.055984e-03 3.908148e-03 2.803152e-03 
3.193488e-03 1.246434e-03 4.634220e-03 2.165716e-03 1.409821e-02 2.079945e-03 1.658793e-02 6.921543e-03 3.559064e-03 4.124527e-03 3.002425e-03 6.613857e-03 4.909890e-03 2.945440e-03 4.886351e-03 3.000755e-03 4.753622e-03 3.853730e-03 4.049295e-03 5.162641e-03 4.007739e-03 5.789366e-03 4.638582e-03 3.631028e-03 2.065809e-03 3.110928e-03 9.815325e-04 2.714798e-03 3.104282e-04 2.351423e-03 2.398717e-04 1.997773e-03 5.678626e-04 1.655724e-03 8.502700e-04 1.343145e-03 1.084071e-03 1.094403e-03 1.278504e-03 9.464369e-04 1.436837e-03 9.264369e-04 1.554204e-03 1.033136e-03 1.632495e-03 1.244042e-03 1.703869e-03 1.552337e-03 1.828672e-03 1.981926e-03 2.092025e-03 2.585585e-03 2.584945e-03 3.411738e-03 3.367246e-03 4.458099e-03 4.397184e-03 5.519909e-03 5.243712e-03 6.160338e-03 5.991450e-03 6.663536e-03 6.400163e-03 6.986750e-03 6.755111e-03 6.744783e-03 6.981519e-03 6.306582e-03 6.638175e-03 6.027031e-03 5.759269e-03 5.132314e-03 5.084807e-03 4.068694e-03 4.116988e-03 3.119289e-03 3.278444e-03 2.466475e-03 2.610370e-03 2.090837e-03 2.072275e-03 1.937640e-03 1.626324e-03 1.939042e-03 1.242995e-03 2.021825e-03 9.060367e-04 2.125235e-03 6.153988e-04 2.201850e-03 4.051885e-04 2.221102e-03 3.869209e-04 2.174107e-03 5.807153e-04 2.044690e-03 8.759955e-04 1.823342e-03 1.211473e-03 1.534109e-03 1.569765e-03 1.204319e-03 1.933320e-03 8.468480e-04 2.261495e-03 4.833628e-04 2.514605e-03 1.889275e-04 2.661687e-03 3.862933e-04 2.691206e-03 8.164455e-04 2.606664e-03 1.344228e-03 2.457633e-03 1.932607e-03 2.407157e-03 2.562081e-03 2.589307e-03 3.225224e-03 2.829358e-03 3.887571e-03 8.507072e-03 1.113812e-02 8.423373e-03 3.770791e-03 4.256804e-03 1.683035e-03 
2.152276e-03 8.407366e-04 2.814862e-03 2.495562e-03 5.257447e-03 9.057275e-03 5.940257e-03 2.217295e-03 2.333993e-03 3.342688e-04 4.144224e-03 6.746248e-04 7.581551e-03 2.617653e-03 6.402570e-03 1.826353e-03 5.742842e-03 1.858042e-03 5.103266e-03 2.954790e-03 4.996226e-03 4.789726e-03 2.334125e-03 2.168651e-03 1.797583e-03 1.076284e-03 1.350690e-03 5.765450e-04 9.850495e-04 4.344774e-04 6.678469e-04 4.576964e-04 4.099703e-04 5.354144e-04 2.707846e-04 6.198090e-04 3.010197e-04 6.742267e-04 3.930394e-04 6.705530e-04 4.667586e-04 5.992645e-04 5.058251e-04 4.823116e-04 5.235536e-04 4.203927e-04 5.724114e-04 6.205267e-04 7.484031e-04 1.115831e-03 1.154228e-03 1.877074e-03 1.861178e-03 2.903222e-03 2.869679e-03 4.108466e-03 3.996302e-03 4.988177e-03 4.279734e-03 4.922902e-03 4.636664e-03 4.927877e-03 4.584894e-03 5.154834e-03 4.731032e-03 4.528600e-03 5.176836e-03 4.296056e-03 5.088688e-03 5.026588e-03 4.442896e-03 4.196340e-03 4.505448e-03 3.538944e-03 3.576689e-03 2.419364e-03 2.561751e-03 1.518435e-03 1.738831e-03 9.336863e-04 1.117709e-03 6.345783e-04 6.647954e-04 5.612904e-04 3.834716e-04 6.127698e-04 3.407000e-04 6.933173e-04 4.375202e-04 7.458512e-04 5.097312e-04 7.388516e-04 5.012535e-04 6.605254e-04 4.112262e-04 5.167747e-04 3.183995e-04 3.804638e-04 4.154932e-04 4.581720e-04 7.023051e-04 7.350677e-04 1.043663e-03 1.043112e-03 1.351913e-03 1.290039e-03 1.561126e-03 1.408144e-03 1.619322e-03 1.345134e-03 1.498111e-03 1.084249e-03 1.217807e-03 7.511389e-04 9.556617e-04 9.458298e-04 1.142422e-03 1.829253e-03 1.708497e-03 2.951366e-03 2.164969e-03 3.898436e-03 3.184102e-03 3.343729e-03 3.301541e-03 9.863187e-04 2.307571e-03 1.226636e-04 
