# vtk DataFile Version 2.0
Comment goes here
ASCII

DATASET STRUCTURED_POINTS
FIELD FieldData 1
TIME 1 1 double
0.53000000
DIMENSIONS    128   16   1

ORIGIN    0.000   0.000   0.000
SPACING   0.0078125 0.015625   1.000

POINT_DATA   2048
SCALARS uMag double
LOOKUP_TABLE default

5.938367e-03 4.121817e-03 4.727715e-03 2.458004e-03 3.374822e-03 2.574890e-03 9.687632e-03 1.241543e-04 5.278844e-03 4.173294e-03 2.992136e-03 1.399398e-02 2.069216e-02 3.593521e-02 4.373432e-02 4.766271e-02 4.978101e-02 4.991920e-02 4.726418e-02 4.292867e-02 3.617970e-02 2.008478e-02 1.310821e-02 4.474454e-03 2.437083e-03 2.082145e-03 1.987073e-03 4.881244e-03 3.796327e-03 6.064349e-03 4.487703e-03 6.528208e-03 4.725831e-03 6.666693e-03 4.814431e-03 6.650856e-03 4.875488e-03 6.538610e-03 4.940032e-03 6.352012e-03 5.022537e-03 6.125981e-03 5.141827e-03 5.894166e-03 5.294156e-03 5.666367e-03 5.457356e-03 5.450194e-03 5.614931e-03 5.261625e-03 5.735238e-03 5.073011e-03 5.673929e-03 4.667539e-03 4.939226e-03 3.627232e-03 3.184792e-03 6.320112e-03 3.798718e-03 1.116528e-03 4.433156e-03 4.080577e-03 1.554785e-03 8.907685e-03 4.635125e-03 1.480765e-03 4.833220e-03 4.816352e-03 2.996189e-03 4.324634e-03 9.607353e-03 7.789621e-03 4.693350e-03 5.915320e-03 4.202552e-03 5.379344e-03 3.876606e-03 5.152023e-03 3.788026e-03 5.022653e-03 3.807313e-03 4.881874e-03 3.895932e-03 4.696299e-03 4.036745e-03 4.458581e-03 4.216814e-03 4.180632e-03 4.428027e-03 3.892068e-03 4.657082e-03 3.621586e-03 4.868358e-03 3.388153e-03 5.018192e-03 3.220287e-03 5.077269e-03 3.155998e-03 5.024965e-03 3.223088e-03 4.844037e-03 3.432821e-03 4.528958e-03 3.781101e-03 4.092485e-03 4.244861e-03 3.564249e-03 4.778365e-03 2.992947e-03 5.321606e-03 2.454621e-03 5.812692e-03 2.051971e-03 6.190737e-03 1.902344e-03 6.394797e-03 2.137679e-03 6.381634e-03 2.948263e-03 6.144838e-03 4.675949e-03 5.631312e-03 8.039617e-03 8.066338e-04 4.772495e-03 2.333466e-03 5.666215e-03 4.134571e-03 
1.960721e-03 1.381200e-03 1.730580e-03 1.845877e-03 2.757583e-03 6.491982e-03 8.039850e-03 4.880022e-03 6.506762e-03 8.409008e-03 1.009176e-02 1.773646e-02 2.193939e-02 2.302867e-02 1.199192e-02 6.936350e-03 3.688212e-03 5.089347e-03 7.310434e-03 1.170831e-02 2.288203e-02 2.308543e-02 1.565967e-02 1.071272e-02 6.555962e-03 4.689355e-03 2.812698e-03 2.663111e-03 1.280021e-03 2.272556e-03 6.929952e-04 2.245514e-03 5.051988e-04 2.226248e-03 4.882639e-04 2.175718e-03 5.484224e-04 2.064124e-03 6.387517e-04 1.888275e-03 7.535836e-04 1.669715e-03 8.962274e-04 1.436208e-03 1.083167e-03 1.216913e-03 1.325686e-03 1.036357e-03 1.624565e-03 1.157797e-03 2.155773e-03 2.167904e-03 3.531531e-03 4.816094e-03 7.392876e-03 1.211399e-02 1.829689e-02 1.661745e-02 1.712320e-02 6.051899e-03 1.212410e-02 1.001756e-02 1.412148e-02 1.023221e-02 1.854702e-02 4.845578e-03 1.315123e-02 3.880482e-03 1.048092e-02 2.925706e-02 2.273530e-02 8.038599e-03 3.286801e-03 2.620655e-04 1.215761e-03 5.143622e-04 8.664026e-04 5.221769e-04 6.907037e-04 5.628172e-04 5.495595e-04 5.313786e-04 4.201555e-04 4.123585e-04 3.242867e-04 2.820753e-04 2.666794e-04 3.364619e-04 3.193653e-04 5.464578e-04 4.692177e-04 7.899745e-04 6.424871e-04 1.001559e-03 7.760275e-04 1.171381e-03 8.141825e-04 1.252744e-03 7.692684e-04 1.200869e-03 6.361635e-04 1.031665e-03 4.744831e-04 7.561258e-04 5.386001e-04 5.142431e-04 8.692062e-04 7.034487e-04 1.343117e-03 1.130846e-03 1.838727e-03 1.581683e-03 2.201344e-03 1.984762e-03 2.322915e-03 2.280476e-03 2.089895e-03 2.471604e-03 1.371362e-03 2.707047e-03 5.791136e-04 3.562901e-03 5.916654e-03 7.169113e-03 1.539015e-03 2.052185e-03 2.413384e-03 5.546299e-04 
9.116313e-03 8.107573e-03 6.319938e-03 6.433911e-03 8.022185e-03 2.482886e-02 4.843064e-03 1.187398e-02 3.691405e-03 8.298343e-03 5.281556e-04 6.661914e-03 9.352772e-03 1.594566e-02 1.895797e-02 2.001788e-02 2.014889e-02 2.113597e-02 1.892680e-02 1.830283e-02 1.607128e-02 6.878986e-03 2.664053e-03 2.954833e-03 4.803497e-03 6.234958e-03 7.580179e-03 7.739797e-03 8.968513e-03 8.323637e-03 9.754497e-03 8.582665e-03 1.024353e-02 8.687487e-03 1.047963e-02 8.714993e-03 1.055909e-02 8.782109e-03 1.057352e-02 8.910870e-03 1.052063e-02 9.062022e-03 1.038467e-02 9.165680e-03 1.009277e-02 9.106486e-03 9.629310e-03 8.895002e-03 9.064910e-03 8.477598e-03 8.276188e-03 7.706222e-03 7.666127e-03 7.969833e-03 1.081277e-02 1.600021e-02 2.339807e-02 1.856800e-02 2.465546e-02 5.301117e-03 1.505652e-02 2.088222e-02 9.034637e-03 1.840135e-02 2.021572e-02 8.456357e-03 1.459245e-02 1.203336e-02 1.127394e-02 1.804767e-02 2.134106e-02 1.825233e-02 1.158842e-02 1.125623e-02 1.154873e-02 1.043624e-02 1.132463e-02 1.017654e-02 1.129338e-02 1.012594e-02 1.123771e-02 1.016434e-02 1.115307e-02 1.033187e-02 1.108363e-02 1.062349e-02 1.097040e-02 1.094581e-02 1.077891e-02 1.128321e-02 1.056167e-02 1.161558e-02 1.031641e-02 1.188667e-02 1.011310e-02 1.213126e-02 1.002369e-02 1.228268e-02 1.000846e-02 1.226572e-02 1.011704e-02 1.212826e-02 1.039730e-02 1.183929e-02 1.077593e-02 1.136939e-02 1.122652e-02 1.085101e-02 1.181226e-02 1.038008e-02 1.245182e-02 9.922257e-03 1.298491e-02 9.563353e-03 1.337960e-02 9.471549e-03 1.362844e-02 9.854529e-03 1.379208e-02 1.105251e-02 1.392838e-02 1.387996e-02 2.008968e-02 1.737544e-02 9.390675e-03 4.326675e-03 8.628258e-03 8.078406e-03 
9.568354e-03 1.257723e-02 1.749378e-02 2.744662e-02 2.850102e-02 2.437516e-02 2.624808e-02 1.983323e-02 2.494585e-02 1.988462e-02 2.382420e-02 2.021912e-02 2.217240e-02 2.306493e-02 2.524109e-02 2.584755e-02 2.557521e-02 2.685996e-02 2.462700e-02 2.629844e-02 2.190279e-02 2.273078e-02 2.024383e-02 2.270568e-02 2.043174e-02 2.271906e-02 2.083267e-02 2.263928e-02 2.122343e-02 2.248327e-02 2.156970e-02 2.230421e-02 2.186309e-02 2.211299e-02 2.207697e-02 2.192980e-02 2.222680e-02 2.178362e-02 2.233371e-02 2.166866e-02 2.238347e-02 2.155569e-02 2.235503e-02 2.140614e-02 2.220443e-02 2.115672e-02 2.189903e-02 2.076208e-02 2.140456e-02 2.016022e-02 2.057753e-02 1.916264e-02 1.918973e-02 1.748657e-02 1.705614e-02 1.529898e-02 1.481017e-02 5.309561e-03 1.154013e-02 1.284349e-02 7.799623e-03 1.434830e-02 1.809157e-02 1.232272e-02 2.152636e-02 1.858561e-02 1.616662e-02 2.265585e-02 2.119377e-02 2.389027e-02 2.488993e-02 1.922944e-02 1.896066e-02 1.985482e-02 2.061782e-02 2.098698e-02 2.123785e-02 2.143748e-02 2.157332e-02 2.164739e-02 2.175843e-02 2.174553e-02 2.187320e-02 2.182682e-02 2.196831e-02 2.193370e-02 2.202988e-02 2.205161e-02 2.205107e-02 2.217664e-02 2.204306e-02 2.230650e-02 2.199181e-02 2.242016e-02 2.191650e-02 2.253675e-02 2.183005e-02 2.264514e-02 2.172210e-02 2.272577e-02 2.161731e-02 2.280532e-02 2.154324e-02 2.286869e-02 2.149314e-02 2.290397e-02 2.145562e-02 2.295398e-02 2.147226e-02 2.301181e-02 2.156371e-02 2.302812e-02 2.169878e-02 2.302100e-02 2.191308e-02 2.301957e-02 2.229363e-02 2.304849e-02 2.302165e-02 2.308653e-02 2.446785e-02 2.299801e-02 2.953568e-02 2.135638e-02 3.768521e-02 2.094164e-02 1.506183e-02 1.012975e-02 
3.567007e-02 3.784237e-02 4.281213e-02 5.060251e-02 6.255440e-02 4.724861e-02 2.869609e-02 3.884082e-02 2.793289e-02 3.488245e-02 2.662456e-02 2.999636e-02 2.236466e-02 2.517328e-02 2.495320e-02 2.531317e-02 2.566697e-02 2.533188e-02 2.562931e-02 2.530404e-02 2.478471e-02 2.465034e-02 2.825377e-02 2.880020e-02 3.138364e-02 3.099653e-02 3.293435e-02 3.203630e-02 3.370903e-02 3.253631e-02 3.413245e-02 3.283775e-02 3.435946e-02 3.300627e-02 3.438133e-02 3.307616e-02 3.426819e-02 3.314179e-02 3.409726e-02 3.321616e-02 3.385668e-02 3.325918e-02 3.351826e-02 3.319676e-02 3.298814e-02 3.289466e-02 3.219353e-02 3.229716e-02 3.109360e-02 3.120767e-02 2.930527e-02 2.899173e-02 2.607568e-02 2.463494e-02 2.016591e-02 1.591260e-02 8.106860e-03 3.940224e-03 3.696413e-03 1.215482e-02 2.551029e-03 1.060241e-02 1.818276e-02 8.076638e-03 2.066441e-02 2.333045e-02 1.554522e-02 3.164907e-02 2.475095e-02 2.618211e-02 3.957028e-02 3.162510e-02 3.011081e-02 3.179586e-02 3.289711e-02 3.282737e-02 3.387736e-02 3.335566e-02 3.443846e-02 3.374011e-02 3.470157e-02 3.402301e-02 3.479293e-02 3.431319e-02 3.482250e-02 3.464174e-02 3.477149e-02 3.494581e-02 3.462914e-02 3.523386e-02 3.446085e-02 3.550161e-02 3.427243e-02 3.570538e-02 3.413450e-02 3.588456e-02 3.411591e-02 3.597837e-02 3.417136e-02 3.591475e-02 3.434157e-02 3.573882e-02 3.466469e-02 3.542196e-02 3.506435e-02 3.493406e-02 3.552148e-02 3.440602e-02 3.610006e-02 3.394723e-02 3.671787e-02 3.353909e-02 3.722917e-02 3.327609e-02 3.761478e-02 3.333429e-02 3.787692e-02 3.393252e-02 3.805991e-02 3.541373e-02 3.800447e-02 3.834723e-02 3.683495e-02 6.219299e-02 5.635172e-02 4.767496e-02 3.872763e-02 3.714493e-02 
4.150164e-02 4.318798e-02 4.583085e-02 5.148620e-02 6.044972e-02 6.959052e-02 6.182635e-02 6.306097e-02 5.923628e-02 5.999537e-02 5.640594e-02 5.620791e-02 5.037342e-02 4.992323e-02 5.002668e-02 4.995620e-02 5.005436e-02 4.999127e-02 5.000611e-02 5.003810e-02 4.987801e-02 5.034393e-02 5.381996e-02 5.574843e-02 5.735703e-02 5.866036e-02 5.952102e-02 6.015547e-02 6.080689e-02 6.085315e-02 6.159514e-02 6.118114e-02 6.208511e-02 6.130854e-02 6.233118e-02 6.132688e-02 6.242152e-02 6.134386e-02 6.243514e-02 6.138784e-02 6.237926e-02 6.143785e-02 6.225021e-02 6.145324e-02 6.200780e-02 6.137083e-02 6.165437e-02 6.123445e-02 6.128302e-02 6.108389e-02 6.088098e-02 6.086694e-02 6.048690e-02 6.080327e-02 6.076032e-02 6.253969e-02 6.441907e-02 5.846751e-02 5.888088e-02 5.627022e-02 5.567774e-02 5.923377e-02 5.747002e-02 5.904930e-02 5.950701e-02 5.783079e-02 5.652706e-02 5.667794e-02 5.985964e-02 5.743039e-02 5.232603e-02 5.279945e-02 5.574608e-02 5.746599e-02 5.940665e-02 5.963982e-02 6.098332e-02 6.076760e-02 6.181816e-02 6.137719e-02 6.224026e-02 6.174113e-02 6.244481e-02 6.204399e-02 6.255408e-02 6.235512e-02 6.257447e-02 6.264595e-02 6.250379e-02 6.292817e-02 6.239214e-02 6.319752e-02 6.224349e-02 6.342093e-02 6.210654e-02 6.362541e-02 6.203519e-02 6.376396e-02 6.199845e-02 6.378405e-02 6.203163e-02 6.371888e-02 6.217188e-02 6.354986e-02 6.237312e-02 6.325555e-02 6.263817e-02 6.292850e-02 6.302594e-02 6.265073e-02 6.348049e-02 6.240311e-02 6.390392e-02 6.223619e-02 6.429329e-02 6.226534e-02 6.467181e-02 6.262822e-02 6.514098e-02 6.350267e-02 6.588755e-02 6.500403e-02 6.839075e-02 6.857850e-02 5.605444e-02 4.984312e-02 4.420642e-02 4.276047e-02 
5.270998e-02 5.428575e-02 5.462607e-02 5.839936e-02 6.013635e-02 6.730203e-02 6.772609e-02 6.826745e-02 6.779755e-02 6.869963e-02 6.819534e-02 7.003773e-02 6.876989e-02 6.741556e-02 6.748636e-02 6.744386e-02 6.753046e-02 6.747480e-02 6.748749e-02 6.751390e-02 6.735754e-02 6.833106e-02 6.858959e-02 6.834010e-02 6.774471e-02 6.799227e-02 6.766435e-02 6.789246e-02 6.781497e-02 6.782592e-02 6.800910e-02 6.776447e-02 6.818037e-02 6.770456e-02 6.829440e-02 6.765088e-02 6.834622e-02 6.761607e-02 6.834199e-02 6.759894e-02 6.828050e-02 6.758525e-02 6.815964e-02 6.755802e-02 6.798022e-02 6.751053e-02 6.777048e-02 6.748186e-02 6.761227e-02 6.757493e-02 6.766451e-02 6.803483e-02 6.832078e-02 6.951883e-02 7.062355e-02 7.402820e-02 7.845701e-02 8.613360e-02 8.216839e-02 7.555245e-02 8.039359e-02 7.705458e-02 7.137635e-02 7.825006e-02 7.177779e-02 7.076797e-02 7.673880e-02 6.784332e-02 7.123543e-02 7.364579e-02 6.688279e-02 7.109775e-02 7.278559e-02 7.018956e-02 6.996968e-02 6.897221e-02 6.920363e-02 6.859996e-02 6.890730e-02 6.846495e-02 6.878495e-02 6.845619e-02 6.872460e-02 6.852914e-02 6.868035e-02 6.865904e-02 6.862533e-02 6.881944e-02 6.854841e-02 6.899420e-02 6.845644e-02 6.916833e-02 6.835736e-02 6.932492e-02 6.826906e-02 6.945545e-02 6.821023e-02 6.954121e-02 6.818609e-02 6.956499e-02 6.820895e-02 6.952668e-02 6.828805e-02 6.942500e-02 6.841670e-02 6.926611e-02 6.859105e-02 6.907926e-02 6.880844e-02 6.889320e-02 6.903892e-02 6.871821e-02 6.923540e-02 6.856937e-02 6.935817e-02 6.846432e-02 6.936703e-02 6.840309e-02 6.923323e-02 6.834720e-02 6.901699e-02 6.816207e-02 6.951994e-02 6.449081e-02 5.990563e-02 5.719399e-02 5.436280e-02 5.392555e-02 
5.239548e-02 5.348236e-02 5.393813e-02 5.646941e-02 5.778464e-02 6.131990e-02 6.232454e-02 6.445620e-02 6.562580e-02 6.719512e-02 7.004460e-02 7.193044e-02 7.825395e-02 7.790643e-02 7.795655e-02 7.791029e-02 7.794188e-02 7.792720e-02 7.792193e-02 7.795230e-02 7.790372e-02 7.812558e-02 7.309718e-02 7.156907e-02 6.855671e-02 6.788367e-02 6.631845e-02 6.593162e-02 6.526386e-02 6.489038e-02 6.482319e-02 6.433542e-02 6.467661e-02 6.403979e-02 6.464851e-02 6.388943e-02 6.465524e-02 6.383385e-02 6.466249e-02 6.384584e-02 6.465477e-02 6.390465e-02 6.462723e-02 6.399511e-02 6.458460e-02 6.411227e-02 6.454793e-02 6.427036e-02 6.455423e-02 6.449414e-02 6.464571e-02 6.482532e-02 6.490383e-02 6.538331e-02 6.553455e-02 6.656755e-02 6.757588e-02 7.019532e-02 7.018668e-02 6.924217e-02 6.987219e-02 7.049826e-02 6.820496e-02 6.922109e-02 6.902086e-02 6.806902e-02 6.977878e-02 6.842824e-02 6.750941e-02 6.839973e-02 6.880400e-02 6.869101e-02 6.768787e-02 6.584316e-02 6.571894e-02 6.482881e-02 6.517140e-02 6.452395e-02 6.499178e-02 6.446073e-02 6.493035e-02 6.450225e-02 6.489256e-02 6.460218e-02 6.484675e-02 6.474166e-02 6.477991e-02 6.490380e-02 6.468970e-02 6.507529e-02 6.458492e-02 6.524293e-02 6.447832e-02 6.539269e-02 6.438842e-02 6.551315e-02 6.433237e-02 6.558732e-02 6.431877e-02 6.560035e-02 6.435713e-02 6.554836e-02 6.445224e-02 6.543047e-02 6.459695e-02 6.525299e-02 6.478073e-02 6.503613e-02 6.498720e-02 6.479938e-02 6.517816e-02 6.454814e-02 6.529718e-02 6.427952e-02 6.527972e-02 6.397368e-02 6.504433e-02 6.357132e-02 6.448098e-02 6.294304e-02 6.342544e-02 6.183398e-02 6.161489e-02 5.934025e-02 5.710091e-02 5.536462e-02 5.355917e-02 5.313081e-02 
5.730535e-02 5.849665e-02 5.842406e-02 6.086889e-02 6.150617e-02 6.466803e-02 6.571116e-02 6.756875e-02 6.899988e-02 7.027233e-02 7.321241e-02 7.469026e-02 8.146416e-02 8.141007e-02 8.145716e-02 8.141678e-02 8.144843e-02 8.143700e-02 8.142511e-02 8.146442e-02 8.139617e-02 8.148670e-02 7.650644e-02 7.514609e-02 7.231623e-02 7.172322e-02 7.020964e-02 6.990592e-02 6.919997e-02 6.895066e-02 6.877692e-02 6.845600e-02 6.864204e-02 6.820680e-02 6.863119e-02 6.809435e-02 6.866204e-02 6.806801e-02 6.869946e-02 6.810466e-02 6.873205e-02 6.819244e-02 6.876221e-02 6.832924e-02 6.880706e-02 6.852685e-02 6.889916e-02 6.881171e-02 6.908449e-02 6.922569e-02 6.942452e-02 6.983296e-02 7.000463e-02 7.072390e-02 7.092022e-02 7.195619e-02 7.218592e-02 7.338622e-02 7.307374e-02 7.277600e-02 7.265114e-02 7.246579e-02 7.124760e-02 7.177073e-02 7.071315e-02 7.036266e-02 7.066114e-02 6.952464e-02 6.966132e-02 6.961662e-02 6.900775e-02 6.930651e-02 6.933508e-02 6.913960e-02 6.935227e-02 6.904485e-02 6.930770e-02 6.895845e-02 6.923303e-02 6.890319e-02 6.915243e-02 6.888923e-02 6.906861e-02 6.891860e-02 6.897958e-02 6.898716e-02 6.888310e-02 6.908533e-02 6.877880e-02 6.920021e-02 6.867070e-02 6.931909e-02 6.856859e-02 6.943054e-02 6.848494e-02 6.952224e-02 6.843070e-02 6.958137e-02 6.841440e-02 6.959776e-02 6.844192e-02 6.956584e-02 6.851464e-02 6.948514e-02 6.862782e-02 6.936035e-02 6.876948e-02 6.920001e-02 6.891893e-02 6.901240e-02 6.904410e-02 6.879878e-02 6.909936e-02 6.854573e-02 6.902483e-02 6.821470e-02 6.874367e-02 6.772361e-02 6.815297e-02 6.691563e-02 6.709261e-02 6.549771e-02 6.521979e-02 6.288343e-02 6.133606e-02 5.982543e-02 5.835677e-02 5.816107e-02 
5.239322e-02 5.347802e-02 5.393591e-02 5.646637e-02 5.778227e-02 6.131844e-02 6.232235e-02 6.445680e-02 6.562571e-02 6.719889e-02 7.004624e-02 7.193502e-02 7.825349e-02 7.790627e-02 7.795719e-02 7.791124e-02 7.794370e-02 7.792959e-02 7.792498e-02 7.795599e-02 7.790720e-02 7.813144e-02 7.311177e-02 7.158430e-02 6.857574e-02 6.790322e-02 6.634073e-02 6.595716e-02 6.529406e-02 6.492588e-02 6.486439e-02 6.438268e-02 6.473215e-02 6.410372e-02 6.472449e-02 6.397573e-02 6.475685e-02 6.394974e-02 6.480001e-02 6.400631e-02 6.484352e-02 6.412485e-02 6.487994e-02 6.429107e-02 6.492246e-02 6.451075e-02 6.499708e-02 6.478759e-02 6.511812e-02 6.511446e-02 6.529413e-02 6.548807e-02 6.554147e-02 6.592189e-02 6.589778e-02 6.645560e-02 6.641473e-02 6.709986e-02 6.694928e-02 6.736018e-02 6.714435e-02 6.755075e-02 6.712966e-02 6.742556e-02 6.723816e-02 6.722317e-02 6.726870e-02 6.708600e-02 6.701156e-02 6.686091e-02 6.690018e-02 6.652700e-02 6.655059e-02 6.591080e-02 6.609506e-02 6.542658e-02 6.576117e-02 6.511133e-02 6.553003e-02 6.493238e-02 6.536166e-02 6.485717e-02 6.522126e-02 6.485843e-02 6.508624e-02 6.491849e-02 6.494966e-02 6.502296e-02 6.480742e-02 6.514865e-02 6.465803e-02 6.527811e-02 6.451842e-02 6.540376e-02 6.440798e-02 6.550877e-02 6.433723e-02 6.557491e-02 6.431784e-02 6.558992e-02 6.435679e-02 6.554419e-02 6.445512e-02 6.543770e-02 6.460969e-02 6.527761e-02 6.480455e-02 6.507168e-02 6.501092e-02 6.483283e-02 6.519424e-02 6.457567e-02 6.530625e-02 6.429929e-02 6.528091e-02 6.398373e-02 6.503988e-02 6.357319e-02 6.447321e-02 6.293683e-02 6.341650e-02 6.182400e-02 6.160988e-02 5.933050e-02 5.709748e-02 5.535674e-02 5.355658e-02 5.312490e-02 
5.270652e-02 5.427697e-02 5.462206e-02 5.839290e-02 6.013199e-02 6.730094e-02 6.772378e-02 6.827362e-02 6.780334e-02 6.871440e-02 6.820449e-02 7.005177e-02 6.876947e-02 6.741270e-02 6.748633e-02 6.744452e-02 6.753376e-02 6.747944e-02 6.749415e-02 6.752206e-02 6.736675e-02 6.833809e-02 6.860866e-02 6.836829e-02 6.778220e-02 6.803844e-02 6.771961e-02 6.796289e-02 6.790085e-02 6.793234e-02 6.813484e-02 6.791366e-02 6.835648e-02 6.791119e-02 6.853932e-02 6.793380e-02 6.867923e-02 6.800037e-02 6.879703e-02 6.813198e-02 6.890881e-02 6.832236e-02 6.901372e-02 6.856299e-02 6.913605e-02 6.887383e-02 6.931363e-02 6.926191e-02 6.955429e-02 6.970705e-02 6.984795e-02 7.018079e-02 7.017272e-02 7.064054e-02 7.048762e-02 7.102485e-02 7.072700e-02 7.124211e-02 7.080471e-02 7.123042e-02 7.065783e-02 7.095417e-02 7.036771e-02 7.050373e-02 7.006765e-02 7.010478e-02 6.978558e-02 6.975501e-02 6.954225e-02 6.946307e-02 6.948331e-02 6.933296e-02 6.942405e-02 6.917534e-02 6.938530e-02 6.904321e-02 6.934665e-02 6.894021e-02 6.929507e-02 6.887388e-02 6.922816e-02 6.884976e-02 6.913858e-02 6.886289e-02 6.902146e-02 6.891373e-02 6.888733e-02 6.900305e-02 6.873964e-02 6.910951e-02 6.857556e-02 6.921927e-02 6.841996e-02 6.933506e-02 6.829672e-02 6.943946e-02 6.821260e-02 6.951296e-02 6.818110e-02 6.954471e-02 6.820917e-02 6.952190e-02 6.829733e-02 6.944448e-02 6.844682e-02 6.932053e-02 6.864353e-02 6.915453e-02 6.885998e-02 6.896260e-02 6.907382e-02 6.877415e-02 6.925446e-02 6.860757e-02 6.935865e-02 6.848077e-02 6.935398e-02 6.840251e-02 6.921277e-02 6.833178e-02 6.899506e-02 6.814302e-02 6.951007e-02 6.447182e-02 5.990096e-02 5.717938e-02 5.435949e-02 5.391435e-02 
4.149771e-02 4.317660e-02 4.582661e-02 5.147686e-02 6.044657e-02 6.958552e-02 6.181224e-02 6.305279e-02 5.923397e-02 6.001070e-02 5.642185e-02 5.622604e-02 5.036941e-02 4.992129e-02 5.002870e-02 4.995787e-02 5.005948e-02 4.999859e-02 5.001788e-02 5.005342e-02 4.989337e-02 5.036020e-02 5.386575e-02 5.580871e-02 5.741763e-02 5.871513e-02 5.956736e-02 6.021893e-02 6.088227e-02 6.095513e-02 6.170134e-02 6.130716e-02 6.222382e-02 6.148398e-02 6.253673e-02 6.156825e-02 6.268847e-02 6.165034e-02 6.279791e-02 6.183777e-02 6.291856e-02 6.207679e-02 6.296582e-02 6.229549e-02 6.298877e-02 6.259642e-02 6.311404e-02 6.301010e-02 6.331803e-02 6.346327e-02 6.356520e-02 6.392579e-02 6.384375e-02 6.436427e-02 6.413497e-02 6.476811e-02 6.444156e-02 6.511934e-02 6.472685e-02 6.540642e-02 6.488084e-02 6.541051e-02 6.495334e-02 6.525087e-02 6.496480e-02 6.512013e-02 6.483851e-02 6.485328e-02 6.466807e-02 6.445626e-02 6.459092e-02 6.412541e-02 6.434136e-02 6.371518e-02 6.411211e-02 6.336384e-02 6.391971e-02 6.308956e-02 6.374919e-02 6.291469e-02 6.360757e-02 6.284118e-02 6.345191e-02 6.281827e-02 6.324488e-02 6.285474e-02 6.304237e-02 6.299256e-02 6.284393e-02 6.314279e-02 6.257595e-02 6.326547e-02 6.232271e-02 6.343428e-02 6.214988e-02 6.359399e-02 6.202092e-02 6.369485e-02 6.197494e-02 6.373957e-02 6.202183e-02 6.368532e-02 6.215248e-02 6.354321e-02 6.240212e-02 6.334801e-02 6.274903e-02 6.307838e-02 6.312229e-02 6.275773e-02 6.352289e-02 6.248628e-02 6.393404e-02 6.229940e-02 6.429027e-02 6.228839e-02 6.465388e-02 6.263445e-02 6.511471e-02 6.346844e-02 6.584513e-02 6.495662e-02 6.838565e-02 6.854013e-02 5.604421e-02 4.981831e-02 4.420126e-02 4.274509e-02 
3.566812e-02 3.782614e-02 4.280754e-02 5.058299e-02 6.254889e-02 4.720799e-02 2.864956e-02 3.877464e-02 2.787850e-02 3.484245e-02 2.660168e-02 2.997468e-02 2.234600e-02 2.517332e-02 2.495008e-02 2.531562e-02 2.566998e-02 2.533560e-02 2.563198e-02 2.531552e-02 2.479536e-02 2.471382e-02 2.833875e-02 2.895038e-02 3.149787e-02 3.113501e-02 3.300519e-02 3.216515e-02 3.377905e-02 3.268809e-02 3.420399e-02 3.299958e-02 3.444696e-02 3.323150e-02 3.455488e-02 3.340770e-02 3.454882e-02 3.360140e-02 3.456367e-02 3.392877e-02 3.465069e-02 3.430375e-02 3.467804e-02 3.462545e-02 3.470469e-02 3.503138e-02 3.489285e-02 3.557254e-02 3.520743e-02 3.616741e-02 3.561562e-02 3.679891e-02 3.611841e-02 3.743820e-02 3.669630e-02 3.806158e-02 3.731934e-02 3.856442e-02 3.775406e-02 3.854980e-02 3.774792e-02 3.831936e-02 3.741044e-02 3.795429e-02 3.710075e-02 3.726088e-02 3.678530e-02 3.654233e-02 3.633389e-02 3.605291e-02 3.584760e-02 3.550017e-02 3.570336e-02 3.517371e-02 3.564865e-02 3.497791e-02 3.560759e-02 3.484845e-02 3.553789e-02 3.479859e-02 3.546315e-02 3.483620e-02 3.534572e-02 3.490489e-02 3.515429e-02 3.502426e-02 3.497697e-02 3.525611e-02 3.481273e-02 3.548231e-02 3.456052e-02 3.563757e-02 3.433214e-02 3.581808e-02 3.420677e-02 3.595250e-02 3.413264e-02 3.597558e-02 3.416441e-02 3.589995e-02 3.431681e-02 3.567834e-02 3.458047e-02 3.534015e-02 3.500236e-02 3.494348e-02 3.555213e-02 3.446644e-02 3.612390e-02 3.395426e-02 3.670000e-02 3.354990e-02 3.724355e-02 3.330611e-02 3.763718e-02 3.335885e-02 3.792077e-02 3.396998e-02 3.811275e-02 3.540884e-02 3.803076e-02 3.830932e-02 3.687793e-02 6.217173e-02 5.634379e-02 4.764637e-02 3.872382e-02 3.712728e-02 
9.574773e-03 1.256576e-02 1.748652e-02 2.743305e-02 2.848370e-02 2.442608e-02 2.627677e-02 1.989952e-02 2.498495e-02 1.997541e-02 2.387461e-02 2.029228e-02 2.220875e-02 2.310633e-02 2.526856e-02 2.585571e-02 2.558750e-02 2.683977e-02 2.462696e-02 2.625510e-02 2.187227e-02 2.266308e-02 2.024765e-02 2.264541e-02 2.043345e-02 2.266114e-02 2.086744e-02 2.262359e-02 2.132622e-02 2.252653e-02 2.174352e-02 2.239834e-02 2.210053e-02 2.226399e-02 2.237923e-02 2.213339e-02 2.257436e-02 2.203695e-02 2.273588e-02 2.202048e-02 2.287945e-02 2.206094e-02 2.296253e-02 2.212480e-02 2.302957e-02 2.225524e-02 2.313963e-02 2.246882e-02 2.326546e-02 2.271460e-02 2.338236e-02 2.295238e-02 2.346072e-02 2.312962e-02 2.345774e-02 2.320173e-02 2.334412e-02 2.315784e-02 2.317468e-02 2.319470e-02 2.296616e-02 2.294461e-02 2.279881e-02 2.260050e-02 2.261653e-02 2.256856e-02 2.241181e-02 2.252449e-02 2.238120e-02 2.238457e-02 2.265308e-02 2.251591e-02 2.264663e-02 2.246669e-02 2.264766e-02 2.238751e-02 2.265553e-02 2.230724e-02 2.266039e-02 2.224682e-02 2.266317e-02 2.221087e-02 2.263740e-02 2.218028e-02 2.256592e-02 2.215850e-02 2.248141e-02 2.217555e-02 2.237281e-02 2.220704e-02 2.221312e-02 2.223119e-02 2.205848e-02 2.229904e-02 2.192773e-02 2.240428e-02 2.180388e-02 2.252534e-02 2.170814e-02 2.266923e-02 2.164252e-02 2.281009e-02 2.159786e-02 2.294802e-02 2.158341e-02 2.307655e-02 2.160055e-02 2.314988e-02 2.162134e-02 2.317019e-02 2.165246e-02 2.315726e-02 2.173668e-02 2.309858e-02 2.188741e-02 2.304024e-02 2.221692e-02 2.303386e-02 2.290743e-02 2.304957e-02 2.434567e-02 2.295231e-02 2.947446e-02 2.139245e-02 3.766817e-02 2.094118e-02 1.505785e-02 1.012857e-02 
9.123875e-03 8.102998e-03 6.314949e-03 6.419075e-03 8.014886e-03 2.485070e-02 4.824128e-03 1.186560e-02 3.680094e-03 8.341382e-03 5.052094e-04 6.687957e-03 9.327289e-03 1.591494e-02 1.892077e-02 2.001797e-02 2.013073e-02 2.116259e-02 1.893453e-02 1.835457e-02 1.612102e-02 6.897338e-03 2.594417e-03 3.003313e-03 4.874639e-03 6.269592e-03 7.616470e-03 7.754106e-03 9.019721e-03 8.358307e-03 9.815364e-03 8.612974e-03 1.030658e-02 8.743714e-03 1.058089e-02 8.808982e-03 1.067188e-02 8.895518e-03 1.072366e-02 9.131917e-03 1.079121e-02 9.436066e-03 1.074817e-02 9.701830e-03 1.067183e-02 1.007579e-02 1.075425e-02 1.063524e-02 1.100225e-02 1.133276e-02 1.144219e-02 1.220968e-02 1.216114e-02 1.332514e-02 1.324293e-02 1.473239e-02 1.469727e-02 1.619536e-02 1.586486e-02 1.626416e-02 1.624875e-02 1.655289e-02 1.581356e-02 1.671904e-02 1.541440e-02 1.527844e-02 1.503632e-02 1.376908e-02 1.393292e-02 1.297122e-02 1.201755e-02 1.133526e-02 1.169169e-02 1.070569e-02 1.165326e-02 1.046258e-02 1.170817e-02 1.037289e-02 1.174118e-02 1.038618e-02 1.174386e-02 1.048597e-02 1.166301e-02 1.060925e-02 1.146633e-02 1.077924e-02 1.125035e-02 1.106446e-02 1.101819e-02 1.134825e-02 1.067703e-02 1.156865e-02 1.035611e-02 1.182838e-02 1.014494e-02 1.205395e-02 9.999416e-03 1.217558e-02 9.981074e-03 1.220067e-02 1.010689e-02 1.207298e-02 1.036140e-02 1.181554e-02 1.078389e-02 1.147693e-02 1.133967e-02 1.102211e-02 1.191384e-02 1.049010e-02 1.248276e-02 1.001439e-02 1.301009e-02 9.638988e-03 1.337227e-02 9.504003e-03 1.360898e-02 9.876206e-03 1.376171e-02 1.103647e-02 1.386611e-02 1.384125e-02 2.006503e-02 1.731873e-02 9.396996e-03 4.351902e-03 8.642830e-03 8.085124e-03 
1.964646e-03 1.370818e-03 1.720983e-03 1.837045e-03 2.754521e-03 6.500481e-03 8.049621e-03 4.873128e-03 6.531455e-03 8.430059e-03 1.012650e-02 1.776747e-02 2.197729e-02 2.305676e-02 1.204296e-02 6.961139e-03 3.720016e-03 5.066819e-03 7.258010e-03 1.165571e-02 2.282129e-02 2.305755e-02 1.561750e-02 1.071700e-02 6.556517e-03 4.725537e-03 2.837598e-03 2.687696e-03 1.306872e-03 2.264555e-03 7.090676e-04 2.222361e-03 4.953537e-04 2.181185e-03 4.410642e-04 2.099103e-03 4.667875e-04 1.951625e-03 5.005269e-04 1.698148e-03 4.994459e-04 1.384513e-03 5.019324e-04 1.058594e-03 4.851192e-04 6.842472e-04 3.758265e-04 5.581520e-04 4.651010e-04 1.206135e-03 1.107142e-03 2.310394e-03 2.203927e-03 3.787000e-03 3.697412e-03 5.497844e-03 5.291313e-03 6.849258e-03 5.872335e-03 5.770034e-03 5.716131e-03 5.544620e-03 4.192336e-03 5.278571e-03 4.030362e-03 3.166855e-03 3.821544e-03 2.880886e-03 2.078851e-03 4.463965e-03 3.067928e-03 1.388776e-03 1.132837e-03 9.417868e-04 5.028035e-04 7.910289e-04 4.297419e-04 7.351938e-04 4.753466e-04 6.429752e-04 4.971790e-04 4.935825e-04 4.590187e-04 3.146285e-04 3.702900e-04 1.274744e-04 3.106484e-04 2.469460e-04 3.134761e-04 5.282771e-04 4.379036e-04 7.714996e-04 6.215286e-04 9.973470e-04 7.476256e-04 1.166069e-03 8.066848e-04 1.231068e-03 7.687370e-04 1.183711e-03 6.292288e-04 1.009109e-03 4.360599e-04 7.584230e-04 4.278062e-04 5.787694e-04 8.223352e-04 7.115266e-04 1.333533e-03 1.123102e-03 1.825207e-03 1.570385e-03 2.203376e-03 1.962608e-03 2.329128e-03 2.260784e-03 2.101823e-03 2.453498e-03 1.376149e-03 2.720187e-03 5.253380e-04 3.591692e-03 5.886275e-03 7.143414e-03 1.557586e-03 2.054443e-03 2.426241e-03 5.645092e-04 
