# vtk DataFile Version 2.0
Comment goes here
ASCII

DATASET STRUCTURED_POINTS
FIELD FieldData 1
TIME 1 1 double
0.93000000
DIMENSIONS    128   16   1

ORIGIN    0.000   0.000   0.000
SPACING   0.0078125 0.015625   1.000

POINT_DATA   2048
SCALARS uX double
LOOKUP_TABLE default

6.158975e-03 4.343120e-03 4.949920e-03 2.686095e-03 3.607542e-03 2.820969e-03 9.922822e-03 1.000681e-04 5.490787e-03 -3.978442e-03 -2.814541e-03 -1.383904e-02 -2.056104e-02 -3.584240e-02 -4.366479e-02 -4.759880e-02 -4.973157e-02 -4.986094e-02 -4.721195e-02 -4.285900e-02 -3.610157e-02 -1.996260e-02 -1.296879e-02 -4.308547e-03 -2.262420e-03 2.271745e-03 2.178985e-03 5.082459e-03 3.996900e-03 6.273422e-03 4.697410e-03 6.746339e-03 4.943251e-03 6.886293e-03 5.027128e-03 6.858175e-03 5.074372e-03 6.733416e-03 5.132821e-03 6.545768e-03 5.215492e-03 6.316067e-03 5.319925e-03 6.060275e-03 5.434266e-03 5.787617e-03 5.534730e-03 5.491518e-03 5.572862e-03 5.125140e-03 5.437547e-03 4.536685e-03 4.857566e-03 3.318211e-03 3.168922e-03 3.195640e-04 -1.787173e-03 -6.923766e-03 -4.164799e-03 -1.175694e-03 -5.277724e-03 -3.575775e-03 -2.324393e-03 -9.114377e-03 -2.424280e-03 -1.189419e-03 -4.183728e-03 3.279940e-03 -2.398668e-03 -1.688110e-03 1.129398e-02 1.144976e-02 7.295431e-03 7.534645e-03 5.268295e-03 6.079219e-03 4.385646e-03 5.529423e-03 4.113096e-03 5.294619e-03 4.082220e-03 5.125441e-03 4.165250e-03 4.939237e-03 4.316583e-03 4.715215e-03 4.515376e-03 4.457938e-03 4.742327e-03 4.183074e-03 4.972185e-03 3.914272e-03 5.175949e-03 3.683181e-03 5.324164e-03 3.525152e-03 5.387332e-03 3.471304e-03 5.337636e-03 3.543134e-03 5.154991e-03 3.750938e-03 4.834587e-03 4.092137e-03 4.391396e-03 4.547347e-03 3.859603e-03 5.076469e-03 3.291812e-03 5.621346e-03 2.760731e-03 6.113726e-03 2.359460e-03 6.484508e-03 2.200854e-03 6.675514e-03 2.425186e-03 6.653912e-03 3.230101e-03 6.414336e-03 4.953477e-03 5.896964e-03 8.310307e-03 1.068031e-03 5.014855e-03 2.565215e-03 5.889891e-03 4.356198e-03 
2.138550e-03 8.313416e-04 6.326782e-04 -1.070497e-03 -2.573450e-03 -1.336592e-03 7.767320e-03 -1.897783e-03 5.291816e-03 -1.391620e-03 2.575926e-03 -1.171539e-03 -6.860582e-04 3.519071e-04 2.812826e-03 3.624746e-03 3.128172e-03 4.611537e-03 2.237153e-03 3.882888e-03 -4.122826e-04 1.897068e-04 -7.652029e-04 1.139391e-03 1.499086e-04 1.777587e-03 5.425026e-04 2.132108e-03 6.773867e-04 2.325344e-03 6.917780e-04 2.407238e-03 6.682847e-04 2.404442e-03 6.568247e-04 2.336843e-03 6.847424e-04 2.217648e-03 7.568375e-04 2.053241e-03 8.663195e-04 1.853596e-03 1.004476e-03 1.630347e-03 1.154285e-03 1.384278e-03 1.281121e-03 1.092590e-03 1.311877e-03 6.680071e-04 1.069891e-03 -1.402447e-04 1.298398e-04 -1.974301e-03 -2.578382e-03 -6.662380e-03 -1.026951e-02 -1.687288e-02 -1.287047e-02 -7.819500e-03 -1.140700e-02 -8.765425e-03 -3.810091e-03 -1.003407e-02 -3.582166e-03 -1.847552e-03 -6.540515e-03 2.284768e-03 -8.842607e-04 -2.390518e-03 6.115751e-03 4.341724e-03 1.198973e-03 2.195909e-03 5.445863e-04 1.507291e-03 8.286091e-06 1.129179e-03 -1.864379e-04 9.173184e-04 -2.116343e-04 7.362416e-04 -1.392032e-04 5.364704e-04 2.971052e-07 3.012154e-04 1.873816e-04 3.334156e-05 4.059751e-04 -2.498594e-04 6.332474e-04 -5.266436e-04 8.376309e-04 -7.670753e-04 9.900973e-04 -9.327803e-04 1.061503e-03 -9.924133e-04 1.020666e-03 -9.248799e-04 8.462331e-04 -7.176151e-04 5.327426e-04 -3.718815e-04 9.429905e-05 9.553707e-05 -4.336260e-04 6.473521e-04 -9.993645e-04 1.224561e-03 -1.532018e-03 1.761636e-03 -1.934670e-03 2.195158e-03 -2.096057e-03 2.463306e-03 -1.890470e-03 2.517245e-03 -1.148510e-03 2.284580e-03 4.126359e-04 1.408285e-03 3.608703e-03 -6.173130e-03 -7.846754e-05 -1.675446e-03 1.787580e-03 6.642709e-04 
9.240681e-03 7.648747e-03 5.152825e-03 2.822566e-04 -7.914639e-03 -1.371072e-02 -4.620036e-03 -1.070621e-02 -3.445967e-03 -6.205148e-03 -1.629837e-04 1.517727e-03 8.972980e-03 1.447993e-02 1.795004e-02 2.017734e-02 2.023152e-02 2.124406e-02 1.906367e-02 1.771185e-02 1.448131e-02 6.990019e-03 1.943385e-03 -2.220673e-03 -4.543190e-03 -6.094815e-03 -7.469396e-03 -7.661305e-03 -8.913864e-03 -8.261404e-03 -9.692977e-03 -8.477054e-03 -1.014237e-02 -8.565027e-03 -1.039323e-02 -8.624332e-03 -1.049224e-02 -8.691022e-03 -1.047197e-02 -8.780764e-03 -1.035494e-02 -8.877391e-03 -1.013682e-02 -8.934456e-03 -9.792938e-03 -8.880916e-03 -9.261620e-03 -8.588010e-03 -8.399276e-03 -7.821746e-03 -6.917579e-03 -6.136833e-03 -4.211940e-03 -2.621001e-03 9.958786e-04 4.806108e-03 1.212977e-02 1.925456e-02 1.658209e-02 9.321627e-03 1.765454e-02 1.268854e-02 1.057671e-02 2.008540e-02 8.905266e-03 4.793532e-03 9.633058e-03 -4.907296e-03 2.189182e-03 1.457423e-03 -2.306059e-02 -2.086925e-02 -1.705612e-02 -1.457837e-02 -1.396292e-02 -1.197026e-02 -1.243107e-02 -1.087551e-02 -1.180569e-02 -1.048191e-02 -1.151688e-02 -1.040957e-02 -1.133242e-02 -1.050336e-02 -1.115609e-02 -1.069979e-02 -1.095749e-02 -1.096340e-02 -1.072750e-02 -1.125911e-02 -1.047876e-02 -1.156324e-02 -1.024585e-02 -1.184573e-02 -1.005528e-02 -1.206042e-02 -9.934335e-03 -1.217470e-02 -9.921638e-03 -1.216830e-02 -1.004387e-02 -1.202509e-02 -1.031049e-02 -1.174333e-02 -1.071208e-02 -1.133525e-02 -1.121688e-02 -1.083661e-02 -1.178694e-02 -1.031641e-02 -1.237395e-02 -9.850167e-03 -1.290468e-02 -9.517495e-03 -1.331900e-02 -9.429925e-03 -1.359432e-02 -9.716878e-03 -1.373154e-02 -1.054378e-02 -1.372203e-02 -1.223503e-02 -1.307668e-02 -1.567163e-02 -2.498375e-03 2.276995e-03 7.364366e-03 8.172111e-03 
9.584490e-03 8.461541e-03 6.288193e-03 5.944774e-04 -6.125919e-03 -2.078209e-02 -2.610667e-02 -1.980640e-02 -2.452117e-02 -1.989803e-02 -2.322811e-02 -2.029413e-02 -2.188504e-02 -2.255890e-02 -2.529997e-02 -2.587172e-02 -2.562486e-02 -2.691257e-02 -2.466243e-02 -2.625657e-02 -2.186190e-02 -2.264842e-02 -2.004171e-02 -2.256131e-02 -2.036115e-02 -2.262479e-02 -2.079287e-02 -2.256775e-02 -2.120196e-02 -2.242115e-02 -2.154959e-02 -2.222953e-02 -2.182788e-02 -2.202844e-02 -2.203268e-02 -2.183397e-02 -2.215864e-02 -2.165026e-02 -2.220639e-02 -2.147421e-02 -2.217640e-02 -2.128829e-02 -2.205733e-02 -2.105935e-02 -2.182367e-02 -2.073721e-02 -2.142306e-02 -2.023723e-02 -2.074873e-02 -1.940965e-02 -1.959531e-02 -1.797014e-02 -1.754786e-02 -1.533031e-02 -1.370123e-02 -1.001774e-02 -5.389424e-03 1.759417e-04 -1.671975e-03 -8.473299e-03 -5.184216e-03 -8.595641e-03 -1.491110e-02 -1.097842e-02 -1.615733e-02 -1.873247e-02 -1.433975e-02 -2.186627e-02 -2.200071e-02 -1.858390e-02 -2.394591e-02 -2.073667e-02 -2.110012e-02 -2.150966e-02 -2.200482e-02 -2.195886e-02 -2.210101e-02 -2.207480e-02 -2.217763e-02 -2.214266e-02 -2.224794e-02 -2.218975e-02 -2.229979e-02 -2.223204e-02 -2.232507e-02 -2.228041e-02 -2.232315e-02 -2.234027e-02 -2.229394e-02 -2.241178e-02 -2.224073e-02 -2.249739e-02 -2.217188e-02 -2.259644e-02 -2.209104e-02 -2.270176e-02 -2.200164e-02 -2.280873e-02 -2.191288e-02 -2.291321e-02 -2.183261e-02 -2.300866e-02 -2.176650e-02 -2.308857e-02 -2.171912e-02 -2.314629e-02 -2.169354e-02 -2.317831e-02 -2.169847e-02 -2.318843e-02 -2.174729e-02 -2.317984e-02 -2.185400e-02 -2.315697e-02 -2.204830e-02 -2.313625e-02 -2.239256e-02 -2.312947e-02 -2.300841e-02 -2.307760e-02 -2.419259e-02 -2.255913e-02 -2.717774e-02 -1.173529e-02 -4.779573e-03 4.057631e-03 6.674021e-03 9.378192e-03 
3.575769e-02 3.672887e-02 3.825681e-02 3.997771e-02 4.533989e-02 4.317493e-02 2.868544e-02 3.878678e-02 2.790230e-02 3.475018e-02 2.660949e-02 2.973424e-02 2.230309e-02 2.516760e-02 2.494834e-02 2.531207e-02 2.566323e-02 2.533099e-02 2.562555e-02 2.530775e-02 2.479275e-02 2.451135e-02 2.822990e-02 2.884496e-02 3.143244e-02 3.106752e-02 3.299556e-02 3.211743e-02 3.379246e-02 3.261906e-02 3.419362e-02 3.287339e-02 3.437334e-02 3.302555e-02 3.440605e-02 3.312804e-02 3.431596e-02 3.319500e-02 3.412006e-02 3.322890e-02 3.382277e-02 3.320174e-02 3.339604e-02 3.305018e-02 3.278160e-02 3.267346e-02 3.186776e-02 3.188858e-02 3.043116e-02 3.036083e-02 2.804248e-02 2.745107e-02 2.382223e-02 2.184503e-02 1.586752e-02 1.036279e-02 -1.239818e-03 -1.180607e-02 -7.224078e-03 3.844134e-03 -2.485432e-03 3.861001e-03 1.256790e-02 5.479501e-03 1.492424e-02 2.286069e-02 1.379250e-02 3.119566e-02 2.805417e-02 2.493748e-02 4.223101e-02 3.895094e-02 3.609665e-02 3.600003e-02 3.604751e-02 3.497072e-02 3.546786e-02 3.445037e-02 3.523500e-02 3.432028e-02 3.512371e-02 3.437300e-02 3.502917e-02 3.452037e-02 3.491117e-02 3.472744e-02 3.476368e-02 3.497288e-02 3.458741e-02 3.522980e-02 3.439736e-02 3.547987e-02 3.422659e-02 3.569807e-02 3.409933e-02 3.584376e-02 3.404004e-02 3.588951e-02 3.408354e-02 3.582020e-02 3.425303e-02 3.562441e-02 3.455580e-02 3.530477e-02 3.498171e-02 3.487715e-02 3.549980e-02 3.438053e-02 3.607383e-02 3.388770e-02 3.665899e-02 3.348249e-02 3.718891e-02 3.326174e-02 3.761409e-02 3.337007e-02 3.792306e-02 3.400108e-02 3.810639e-02 3.545140e-02 3.801713e-02 3.837459e-02 3.628792e-02 4.974882e-02 3.927455e-02 3.971316e-02 3.572450e-02 3.669375e-02 
4.156614e-02 4.304949e-02 4.486020e-02 4.986864e-02 5.666556e-02 6.667489e-02 6.166794e-02 6.302957e-02 5.921047e-02 5.988971e-02 5.626432e-02 5.564249e-02 5.010158e-02 4.992217e-02 5.002859e-02 4.995717e-02 5.005690e-02 4.999374e-02 5.001052e-02 5.004232e-02 4.988443e-02 5.011011e-02 5.350975e-02 5.561795e-02 5.729273e-02 5.866628e-02 5.953900e-02 6.020557e-02 6.087266e-02 6.091850e-02 6.165965e-02 6.121374e-02 6.212002e-02 6.132026e-02 6.236890e-02 6.134752e-02 6.246054e-02 6.134490e-02 6.243192e-02 6.133594e-02 6.230795e-02 6.131648e-02 6.209355e-02 6.126296e-02 6.178553e-02 6.114683e-02 6.137368e-02 6.093056e-02 6.083467e-02 6.057246e-02 6.014011e-02 6.002808e-02 5.923549e-02 5.920886e-02 5.796120e-02 5.775873e-02 5.521854e-02 5.361198e-02 5.116987e-02 5.335655e-02 5.373955e-02 5.291663e-02 5.585231e-02 5.798880e-02 5.465183e-02 5.676281e-02 5.480633e-02 5.314403e-02 5.820059e-02 5.457141e-02 4.887920e-02 4.873253e-02 5.373616e-02 5.601417e-02 5.873788e-02 5.921628e-02 6.080699e-02 6.066614e-02 6.182459e-02 6.143623e-02 6.235197e-02 6.190957e-02 6.261484e-02 6.225192e-02 6.271458e-02 6.254253e-02 6.270819e-02 6.281586e-02 6.262733e-02 6.307777e-02 6.249999e-02 6.332878e-02 6.236054e-02 6.355807e-02 6.223287e-02 6.373962e-02 6.213912e-02 6.385437e-02 6.210892e-02 6.388973e-02 6.216356e-02 6.383437e-02 6.231260e-02 6.368563e-02 6.255350e-02 6.344990e-02 6.286947e-02 6.315014e-02 6.324196e-02 6.283419e-02 6.364846e-02 6.255778e-02 6.405364e-02 6.238631e-02 6.443853e-02 6.241831e-02 6.482256e-02 6.277564e-02 6.527135e-02 6.360332e-02 6.596714e-02 6.509689e-02 6.761252e-02 6.445502e-02 5.346608e-02 4.812113e-02 4.366907e-02 4.265217e-02 
5.266139e-02 5.416718e-02 5.428796e-02 5.791035e-02 5.938260e-02 6.671598e-02 6.745962e-02 6.798718e-02 6.761755e-02 6.818566e-02 6.764999e-02 6.817731e-02 6.755084e-02 6.741429e-02 6.748729e-02 6.744457e-02 6.753281e-02 6.747735e-02 6.749175e-02 6.751770e-02 6.736387e-02 6.757470e-02 6.734066e-02 6.778963e-02 6.736954e-02 6.785798e-02 6.756358e-02 6.786454e-02 6.779320e-02 6.781779e-02 6.800206e-02 6.774528e-02 6.816531e-02 6.766931e-02 6.826861e-02 6.760079e-02 6.830315e-02 6.754208e-02 6.826678e-02 6.749011e-02 6.816214e-02 6.743702e-02 6.799497e-02 6.737579e-02 6.778059e-02 6.731320e-02 6.755837e-02 6.729360e-02 6.742521e-02 6.745331e-02 6.761717e-02 6.814427e-02 6.869557e-02 7.022020e-02 7.202993e-02 7.605654e-02 8.194497e-02 9.000593e-02 8.558664e-02 7.945649e-02 8.233174e-02 8.015586e-02 7.353443e-02 7.920894e-02 7.435875e-02 7.101892e-02 7.758478e-02 6.875427e-02 7.013677e-02 7.389761e-02 6.683497e-02 6.858374e-02 7.065723e-02 6.912443e-02 6.952097e-02 6.893708e-02 6.936939e-02 6.887043e-02 6.922681e-02 6.879554e-02 6.910790e-02 6.877223e-02 6.900803e-02 6.880598e-02 6.891143e-02 6.888811e-02 6.880802e-02 6.900595e-02 6.869467e-02 6.914523e-02 6.857575e-02 6.929213e-02 6.846192e-02 6.943147e-02 6.836522e-02 6.954631e-02 6.829855e-02 6.962213e-02 6.827563e-02 6.964796e-02 6.830662e-02 6.961680e-02 6.839542e-02 6.952735e-02 6.853847e-02 6.938519e-02 6.872421e-02 6.920419e-02 6.893507e-02 6.900630e-02 6.914674e-02 6.881582e-02 6.932654e-02 6.865486e-02 6.943637e-02 6.853854e-02 6.943408e-02 6.845982e-02 6.928236e-02 6.836679e-02 6.903067e-02 6.810629e-02 6.937505e-02 6.389226e-02 5.941378e-02 5.677086e-02 5.417061e-02 5.384229e-02 
5.220114e-02 5.328453e-02 5.370970e-02 5.623325e-02 5.752449e-02 6.106883e-02 6.216192e-02 6.429849e-02 6.550974e-02 6.702254e-02 6.988001e-02 7.144468e-02 7.796415e-02 7.790534e-02 7.795659e-02 7.790966e-02 7.794238e-02 7.792679e-02 7.792270e-02 7.795176e-02 7.790439e-02 7.797204e-02 7.281003e-02 7.142081e-02 6.843016e-02 6.779087e-02 6.622114e-02 6.583217e-02 6.515897e-02 6.477110e-02 6.470160e-02 6.419425e-02 6.453849e-02 6.388230e-02 6.449979e-02 6.372198e-02 6.449722e-02 6.365543e-02 6.448985e-02 6.365278e-02 6.446334e-02 6.369715e-02 6.441820e-02 6.377958e-02 6.436629e-02 6.390046e-02 6.433201e-02 6.407463e-02 6.435856e-02 6.434326e-02 6.452501e-02 6.479955e-02 6.498589e-02 6.564859e-02 6.608513e-02 6.751253e-02 6.928091e-02 7.256023e-02 7.241559e-02 7.118797e-02 7.109404e-02 7.193981e-02 6.932554e-02 6.983055e-02 7.015180e-02 6.833883e-02 7.022460e-02 6.915764e-02 6.739152e-02 6.885602e-02 6.977929e-02 6.912026e-02 6.785206e-02 6.576073e-02 6.558884e-02 6.465914e-02 6.503601e-02 6.438202e-02 6.488117e-02 6.435455e-02 6.484245e-02 6.442658e-02 6.482057e-02 6.454538e-02 6.478079e-02 6.469149e-02 6.471447e-02 6.485436e-02 6.462464e-02 6.502425e-02 6.452137e-02 6.519032e-02 6.441895e-02 6.533925e-02 6.433243e-02 6.545586e-02 6.427672e-02 6.552645e-02 6.426572e-02 6.554066e-02 6.430907e-02 6.549228e-02 6.440945e-02 6.538051e-02 6.456099e-02 6.521069e-02 6.474843e-02 6.499443e-02 6.494743e-02 6.474737e-02 6.512295e-02 6.448236e-02 6.522676e-02 6.420120e-02 6.519611e-02 6.388376e-02 6.494897e-02 6.346882e-02 6.437216e-02 6.282405e-02 6.329778e-02 6.168878e-02 6.144126e-02 5.908621e-02 5.687934e-02 5.512717e-02 5.335853e-02 5.293378e-02 
5.707145e-02 5.827063e-02 5.820588e-02 6.067458e-02 6.132737e-02 6.451903e-02 6.557698e-02 6.746158e-02 6.891189e-02 7.021150e-02 7.317463e-02 7.467291e-02 8.146471e-02 8.141008e-02 8.145797e-02 8.141687e-02 8.144934e-02 8.143701e-02 8.142605e-02 8.146404e-02 8.139695e-02 8.148536e-02 7.648933e-02 7.511188e-02 7.226118e-02 7.164543e-02 7.011388e-02 6.978807e-02 6.907095e-02 6.880211e-02 6.862428e-02 6.828631e-02 6.847462e-02 6.802492e-02 6.845694e-02 6.790812e-02 6.848663e-02 6.788250e-02 6.852577e-02 6.792370e-02 6.856394e-02 6.802306e-02 6.860855e-02 6.818348e-02 6.868194e-02 6.842115e-02 6.882328e-02 6.877130e-02 6.909391e-02 6.929648e-02 6.958420e-02 7.009335e-02 7.041322e-02 7.128019e-02 7.168407e-02 7.290698e-02 7.335283e-02 7.475418e-02 7.435854e-02 7.417783e-02 7.368637e-02 7.354703e-02 7.207809e-02 7.223420e-02 7.123022e-02 7.033847e-02 7.055528e-02 6.922816e-02 6.897742e-02 6.891284e-02 6.816080e-02 6.819018e-02 6.830792e-02 6.818805e-02 6.858241e-02 6.840251e-02 6.880942e-02 6.855404e-02 6.892017e-02 6.864975e-02 6.895009e-02 6.872391e-02 6.892707e-02 6.880101e-02 6.886869e-02 6.889253e-02 6.878602e-02 6.900002e-02 6.868825e-02 6.911882e-02 6.858518e-02 6.924010e-02 6.848754e-02 6.935218e-02 6.840639e-02 6.944232e-02 6.835255e-02 6.949882e-02 6.833561e-02 6.951275e-02 6.836209e-02 6.947887e-02 6.843324e-02 6.939617e-02 6.854351e-02 6.926809e-02 6.867973e-02 6.910175e-02 6.882033e-02 6.890480e-02 6.893367e-02 6.867955e-02 6.897604e-02 6.841440e-02 6.888917e-02 6.807169e-02 6.859681e-02 6.757016e-02 6.799732e-02 6.675489e-02 6.693159e-02 6.533234e-02 6.505207e-02 6.270809e-02 6.114822e-02 5.962348e-02 5.813852e-02 5.793397e-02 
5.220221e-02 5.328319e-02 5.371038e-02 5.623271e-02 5.752460e-02 6.106901e-02 6.216150e-02 6.429890e-02 6.550918e-02 6.702283e-02 6.987941e-02 7.144478e-02 7.796400e-02 7.790525e-02 7.795659e-02 7.790976e-02 7.794257e-02 7.792716e-02 7.792303e-02 7.795238e-02 7.790476e-02 7.797264e-02 7.281433e-02 7.142771e-02 6.843992e-02 6.780575e-02 6.623891e-02 6.585774e-02 6.518795e-02 6.481071e-02 6.474602e-02 6.425231e-02 6.460376e-02 6.396474e-02 6.459392e-02 6.383857e-02 6.463277e-02 6.382048e-02 6.468305e-02 6.388360e-02 6.473279e-02 6.401327e-02 6.478422e-02 6.420094e-02 6.484774e-02 6.444216e-02 6.493933e-02 6.473712e-02 6.507929e-02 6.509120e-02 6.529247e-02 6.551851e-02 6.561292e-02 6.604844e-02 6.608636e-02 6.671911e-02 6.673787e-02 6.748970e-02 6.728319e-02 6.767140e-02 6.732674e-02 6.770259e-02 6.721126e-02 6.738710e-02 6.723949e-02 6.708498e-02 6.714828e-02 6.695708e-02 6.681978e-02 6.670107e-02 6.676701e-02 6.633372e-02 6.634892e-02 6.565941e-02 6.585536e-02 6.517094e-02 6.553391e-02 6.488800e-02 6.533728e-02 6.475141e-02 6.520467e-02 6.471443e-02 6.509523e-02 6.474779e-02 6.498588e-02 6.483113e-02 6.486598e-02 6.494867e-02 6.473582e-02 6.508735e-02 6.460350e-02 6.523303e-02 6.448012e-02 6.536881e-02 6.437800e-02 6.547698e-02 6.431000e-02 6.554182e-02 6.428848e-02 6.555207e-02 6.432299e-02 6.550161e-02 6.441628e-02 6.538896e-02 6.456187e-02 6.521875e-02 6.474470e-02 6.500252e-02 6.494057e-02 6.475530e-02 6.511431e-02 6.448997e-02 6.521849e-02 6.420895e-02 6.519023e-02 6.389106e-02 6.494593e-02 6.347437e-02 6.437207e-02 6.282716e-02 6.330042e-02 6.168914e-02 6.144533e-02 5.908385e-02 5.688162e-02 5.512434e-02 5.336003e-02 5.293158e-02 
5.266383e-02 5.416417e-02 5.428955e-02 5.790916e-02 5.938269e-02 6.671751e-02 6.745781e-02 6.798779e-02 6.761519e-02 6.818603e-02 6.764761e-02 6.817767e-02 6.755006e-02 6.741422e-02 6.748744e-02 6.744467e-02 6.753354e-02 6.747807e-02 6.749252e-02 6.751970e-02 6.736418e-02 6.757717e-02 6.735606e-02 6.781372e-02 6.740459e-02 6.790736e-02 6.762434e-02 6.794615e-02 6.788856e-02 6.794174e-02 6.814500e-02 6.792592e-02 6.837362e-02 6.792660e-02 6.856823e-02 6.796580e-02 6.873315e-02 6.805973e-02 6.887879e-02 6.821782e-02 6.901919e-02 6.844489e-02 6.917150e-02 6.874305e-02 6.935397e-02 6.911251e-02 6.958426e-02 6.955153e-02 6.987478e-02 7.005095e-02 7.022403e-02 7.058655e-02 7.060865e-02 7.111070e-02 7.097343e-02 7.153967e-02 7.122288e-02 7.175276e-02 7.125364e-02 7.165937e-02 7.099944e-02 7.124280e-02 7.057293e-02 7.060927e-02 7.010490e-02 7.002679e-02 6.965067e-02 6.953581e-02 6.927368e-02 6.913506e-02 6.914609e-02 6.895828e-02 6.906020e-02 6.879830e-02 6.904661e-02 6.872065e-02 6.907511e-02 6.869953e-02 6.910265e-02 6.871289e-02 6.910451e-02 6.875410e-02 6.907264e-02 6.882345e-02 6.900635e-02 6.891909e-02 6.890829e-02 6.903672e-02 6.878735e-02 6.917167e-02 6.865728e-02 6.931486e-02 6.853141e-02 6.945138e-02 6.842239e-02 6.956418e-02 6.834318e-02 6.963764e-02 6.830692e-02 6.966105e-02 6.832521e-02 6.962891e-02 6.840308e-02 6.953951e-02 6.853639e-02 6.939769e-02 6.871444e-02 6.921765e-02 6.892023e-02 6.902024e-02 6.912913e-02 6.882984e-02 6.931016e-02 6.866980e-02 6.942494e-02 6.855314e-02 6.942824e-02 6.847149e-02 6.928205e-02 6.837436e-02 6.903525e-02 6.810937e-02 6.938235e-02 6.388549e-02 5.941777e-02 5.676429e-02 5.417381e-02 5.383746e-02 
4.156918e-02 4.304551e-02 4.486267e-02 4.986739e-02 5.666648e-02 6.667725e-02 6.166660e-02 6.303041e-02 5.920928e-02 5.989014e-02 5.626213e-02 5.564167e-02 5.010029e-02 4.992174e-02 5.002843e-02 4.995724e-02 5.005773e-02 4.999492e-02 5.001186e-02 5.004514e-02 4.988558e-02 5.011319e-02 5.351936e-02 5.563470e-02 5.731327e-02 5.870398e-02 5.958036e-02 6.027241e-02 6.094293e-02 6.102362e-02 6.177151e-02 6.136890e-02 6.228453e-02 6.153480e-02 6.260289e-02 6.164885e-02 6.280645e-02 6.178386e-02 6.294607e-02 6.197042e-02 6.305327e-02 6.221815e-02 6.315385e-02 6.252599e-02 6.326725e-02 6.288676e-02 6.341291e-02 6.329758e-02 6.360964e-02 6.374950e-02 6.385920e-02 6.422023e-02 6.415065e-02 6.468340e-02 6.446188e-02 6.509808e-02 6.474878e-02 6.541531e-02 6.499849e-02 6.567016e-02 6.515849e-02 6.569599e-02 6.525805e-02 6.554242e-02 6.525181e-02 6.540107e-02 6.513814e-02 6.515717e-02 6.499522e-02 6.475462e-02 6.489984e-02 6.441318e-02 6.460659e-02 6.393665e-02 6.430700e-02 6.352027e-02 6.406091e-02 6.321093e-02 6.386202e-02 6.301024e-02 6.368936e-02 6.291279e-02 6.352737e-02 6.291034e-02 6.335882e-02 6.297963e-02 6.316402e-02 6.309757e-02 6.294737e-02 6.325859e-02 6.273209e-02 6.344981e-02 6.253317e-02 6.364122e-02 6.236267e-02 6.380036e-02 6.223612e-02 6.389828e-02 6.217376e-02 6.391953e-02 6.220142e-02 6.385943e-02 6.233134e-02 6.371001e-02 6.255368e-02 6.347265e-02 6.285495e-02 6.317459e-02 6.321843e-02 6.285723e-02 6.361588e-02 6.257680e-02 6.402248e-02 6.240946e-02 6.442034e-02 6.244287e-02 6.481425e-02 6.279274e-02 6.527318e-02 6.361231e-02 6.598183e-02 6.509538e-02 6.763839e-02 6.443900e-02 5.346850e-02 4.810788e-02 4.367207e-02 4.264473e-02 
3.576277e-02 3.672251e-02 3.826207e-02 3.997287e-02 4.534648e-02 4.316918e-02 2.869465e-02 3.878592e-02 2.791295e-02 3.475145e-02 2.661625e-02 2.973477e-02 2.230381e-02 2.517170e-02 2.495153e-02 2.531208e-02 2.566616e-02 2.532964e-02 2.562708e-02 2.531141e-02 2.478750e-02 2.452402e-02 2.823512e-02 2.887752e-02 3.145033e-02 3.113303e-02 3.304057e-02 3.222927e-02 3.387622e-02 3.279083e-02 3.433331e-02 3.312110e-02 3.458308e-02 3.336088e-02 3.470795e-02 3.358664e-02 3.476938e-02 3.384579e-02 3.481035e-02 3.415608e-02 3.485912e-02 3.452368e-02 3.494275e-02 3.495084e-02 3.508427e-02 3.543857e-02 3.531149e-02 3.599904e-02 3.565688e-02 3.664036e-02 3.613496e-02 3.735327e-02 3.674271e-02 3.811410e-02 3.744507e-02 3.884508e-02 3.812066e-02 3.936431e-02 3.850775e-02 3.932811e-02 3.847683e-02 3.905672e-02 3.809300e-02 3.853262e-02 3.762168e-02 3.763175e-02 3.709183e-02 3.673615e-02 3.641251e-02 3.602450e-02 3.569960e-02 3.525760e-02 3.542506e-02 3.488759e-02 3.535746e-02 3.470938e-02 3.534620e-02 3.462917e-02 3.532450e-02 3.461803e-02 3.527108e-02 3.467248e-02 3.518414e-02 3.479186e-02 3.505817e-02 3.495519e-02 3.488054e-02 3.514029e-02 3.466747e-02 3.534694e-02 3.445769e-02 3.556399e-02 3.427659e-02 3.575673e-02 3.414368e-02 3.588689e-02 3.408086e-02 3.592041e-02 3.411379e-02 3.584075e-02 3.427366e-02 3.564605e-02 3.457187e-02 3.533072e-02 3.498869e-02 3.490293e-02 3.549769e-02 3.440700e-02 3.606549e-02 3.390760e-02 3.664001e-02 3.349032e-02 3.717017e-02 3.326836e-02 3.760930e-02 3.337339e-02 3.792777e-02 3.399199e-02 3.812215e-02 3.543226e-02 3.804988e-02 3.834507e-02 3.633564e-02 4.972342e-02 3.928197e-02 3.969469e-02 3.573010e-02 3.668363e-02 
9.591619e-03 8.457467e-03 6.295785e-03 5.889379e-04 -6.115021e-03 -2.079223e-02 -2.609046e-02 -1.981006e-02 -2.450387e-02 -1.989826e-02 -2.321167e-02 -2.029162e-02 -2.187274e-02 -2.255615e-02 -2.529769e-02 -2.586527e-02 -2.563335e-02 -2.690418e-02 -2.467931e-02 -2.624905e-02 -2.188493e-02 -2.264702e-02 -2.007737e-02 -2.256745e-02 -2.041044e-02 -2.263973e-02 -2.086091e-02 -2.259516e-02 -2.129446e-02 -2.246806e-02 -2.167666e-02 -2.230776e-02 -2.200143e-02 -2.215249e-02 -2.226964e-02 -2.203176e-02 -2.249053e-02 -2.196705e-02 -2.267426e-02 -2.196733e-02 -2.282977e-02 -2.203410e-02 -2.296763e-02 -2.216373e-02 -2.309704e-02 -2.234801e-02 -2.322654e-02 -2.257753e-02 -2.336042e-02 -2.283366e-02 -2.348611e-02 -2.308049e-02 -2.357141e-02 -2.326606e-02 -2.356622e-02 -2.332659e-02 -2.342267e-02 -2.324297e-02 -2.322882e-02 -2.322790e-02 -2.299618e-02 -2.296520e-02 -2.280753e-02 -2.261455e-02 -2.258850e-02 -2.255783e-02 -2.240101e-02 -2.252427e-02 -2.242898e-02 -2.241388e-02 -2.274362e-02 -2.259996e-02 -2.273902e-02 -2.250382e-02 -2.268422e-02 -2.237271e-02 -2.264759e-02 -2.226648e-02 -2.263179e-02 -2.219606e-02 -2.262356e-02 -2.216317e-02 -2.261290e-02 -2.216742e-02 -2.259031e-02 -2.220119e-02 -2.254511e-02 -2.225729e-02 -2.247732e-02 -2.233750e-02 -2.239468e-02 -2.244067e-02 -2.229987e-02 -2.255783e-02 -2.219379e-02 -2.267904e-02 -2.207952e-02 -2.279547e-02 -2.196386e-02 -2.290342e-02 -2.185865e-02 -2.300199e-02 -2.177244e-02 -2.308494e-02 -2.170726e-02 -2.314564e-02 -2.166852e-02 -2.318421e-02 -2.166587e-02 -2.320154e-02 -2.170939e-02 -2.320024e-02 -2.181722e-02 -2.318856e-02 -2.201869e-02 -2.317624e-02 -2.236816e-02 -2.317105e-02 -2.298840e-02 -2.311742e-02 -2.417722e-02 -2.259221e-02 -2.716701e-02 -1.174197e-02 -4.766617e-03 4.054177e-03 6.682874e-03 9.374637e-03 
9.245604e-03 7.648195e-03 5.157375e-03 2.803951e-04 -7.909553e-03 -1.371345e-02 -4.614890e-03 -1.070968e-02 -3.442315e-03 -6.207804e-03 -1.580617e-04 1.517841e-03 8.977937e-03 1.447799e-02 1.794457e-02 2.018462e-02 2.021736e-02 2.125725e-02 1.904773e-02 1.771997e-02 1.447741e-02 6.993401e-03 1.936725e-03 -2.215063e-03 -4.550075e-03 -6.094834e-03 -7.485118e-03 -7.673199e-03 -8.942048e-03 -8.290127e-03 -9.740318e-03 -8.527863e-03 -1.020845e-02 -8.635094e-03 -1.047930e-02 -8.729804e-03 -1.062800e-02 -8.874081e-03 -1.070021e-02 -9.088193e-03 -1.072534e-02 -9.375645e-03 -1.073452e-02 -9.735736e-03 -1.076131e-02 -1.017218e-02 -1.085588e-02 -1.071414e-02 -1.109315e-02 -1.141189e-02 -1.156042e-02 -1.233493e-02 -1.236561e-02 -1.357401e-02 -1.360243e-02 -1.514330e-02 -1.518173e-02 -1.670847e-02 -1.633740e-02 -1.691845e-02 -1.682338e-02 -1.728276e-02 -1.653628e-02 -1.734213e-02 -1.615839e-02 -1.578731e-02 -1.556200e-02 -1.412926e-02 -1.408268e-02 -1.298338e-02 -1.174347e-02 -1.082784e-02 -1.122398e-02 -1.026124e-02 -1.129795e-02 -1.015588e-02 -1.146019e-02 -1.016403e-02 -1.155414e-02 -1.021577e-02 -1.156024e-02 -1.031816e-02 -1.149149e-02 -1.048512e-02 -1.135391e-02 -1.070435e-02 -1.114204e-02 -1.095699e-02 -1.087760e-02 -1.124300e-02 -1.060430e-02 -1.154856e-02 -1.035176e-02 -1.183386e-02 -1.014349e-02 -1.205476e-02 -1.000578e-02 -1.217169e-02 -9.969105e-03 -1.216412e-02 -1.006935e-02 -1.202747e-02 -1.032112e-02 -1.175390e-02 -1.070569e-02 -1.134973e-02 -1.119620e-02 -1.085756e-02 -1.175743e-02 -1.033815e-02 -1.233292e-02 -9.868146e-03 -1.286422e-02 -9.542761e-03 -1.329334e-02 -9.459009e-03 -1.357844e-02 -9.738147e-03 -1.372644e-02 -1.055685e-02 -1.373358e-02 -1.223616e-02 -1.310428e-02 -1.566105e-02 -2.490371e-03 2.284745e-03 7.370606e-03 8.174012e-03 
2.140785e-03 8.312855e-04 6.344953e-04 -1.070561e-03 -2.572636e-03 -1.334731e-03 7.765936e-03 -1.898769e-03 5.288663e-03 -1.392972e-03 2.572085e-03 -1.171972e-03 -6.920809e-04 3.529941e-04 2.808737e-03 3.622759e-03 3.124561e-03 4.606960e-03 2.230583e-03 3.875477e-03 -4.259307e-04 1.820991e-04 -7.750835e-04 1.132539e-03 1.397055e-04 1.764399e-03 5.259815e-04 2.107269e-03 6.506329e-04 2.284287e-03 6.498078e-04 2.345196e-03 6.083326e-04 2.318741e-03 5.740922e-04 2.216311e-03 5.615525e-04 2.039338e-03 5.670186e-04 1.789914e-03 5.766030e-04 1.468092e-03 5.647612e-04 1.067610e-03 4.937288e-04 5.690686e-04 3.046648e-04 -7.336232e-05 -9.078661e-05 -9.367644e-04 -8.111584e-04 -2.131148e-03 -2.001414e-03 -3.774280e-03 -3.754630e-03 -5.837391e-03 -5.910401e-03 -7.892966e-03 -7.101774e-03 -7.121026e-03 -6.737323e-03 -6.684412e-03 -5.124335e-03 -5.877480e-03 -3.972819e-03 -3.205492e-03 -3.041955e-03 -1.065795e-03 -1.099069e-03 -2.504765e-04 1.242552e-03 1.639572e-03 1.090537e-03 1.690955e-03 6.494833e-04 1.502002e-03 2.966165e-04 1.309366e-03 8.489654e-05 1.113329e-03 -1.120961e-05 8.976610e-04 -1.201181e-05 6.519107e-04 6.911655e-05 3.799739e-04 2.223269e-04 9.211400e-05 4.242172e-04 -2.044713e-04 6.393277e-04 -4.928909e-04 8.354527e-04 -7.416541e-04 9.828592e-04 -9.148794e-04 1.051804e-03 -9.799598e-04 1.013297e-03 -9.161412e-04 8.420948e-04 -7.150689e-04 5.306170e-04 -3.753699e-04 9.613128e-05 8.875614e-05 -4.277513e-04 6.378341e-04 -9.905584e-04 1.215674e-03 -1.518794e-03 1.755870e-03 -1.921373e-03 2.188797e-03 -2.088064e-03 2.457537e-03 -1.886411e-03 2.516061e-03 -1.149324e-03 2.287950e-03 4.041087e-04 1.417207e-03 3.592658e-03 -6.169338e-03 -7.676527e-05 -1.672529e-03 1.789938e-03 6.649881e-04 
