# vtk DataFile Version 2.0
Comment goes here
ASCII

DATASET STRUCTURED_POINTS
FIELD FieldData 1
TIME 1 1 double
0.83000000
DIMENSIONS    128   16   1

ORIGIN    0.000   0.000   0.000
SPACING   0.0078125 0.015625   1.000

POINT_DATA   2048
SCALARS uX double
LOOKUP_TABLE default

6.110214e-03 4.295059e-03 4.899584e-03 2.635132e-03 3.553257e-03 2.765110e-03 9.867362e-03 4.739002e-05 5.438421e-03 -4.027248e-03 -2.861750e-03 -1.388100e-02 -2.059832e-02 -3.586796e-02 -4.368428e-02 -4.761621e-02 -4.974529e-02 -4.987673e-02 -4.722718e-02 -4.287882e-02 -3.612512e-02 -1.999845e-02 -1.300861e-02 -4.354191e-03 -2.308922e-03 2.221582e-03 2.128045e-03 5.027828e-03 3.941455e-03 6.215021e-03 4.639405e-03 6.687340e-03 4.886112e-03 6.829719e-03 4.972326e-03 6.803842e-03 5.019789e-03 6.678248e-03 5.075434e-03 6.488050e-03 5.155656e-03 6.258321e-03 5.261625e-03 6.006484e-03 5.380957e-03 5.739616e-03 5.487803e-03 5.449953e-03 5.534998e-03 5.093904e-03 5.418977e-03 4.529007e-03 4.883657e-03 3.362158e-03 3.290113e-03 4.691074e-04 -1.490442e-03 -6.771677e-03 -4.047530e-03 -7.203269e-04 -5.058505e-03 -3.142891e-03 -1.962503e-03 -8.962801e-03 -1.902458e-03 -9.358629e-04 -3.896532e-03 3.528172e-03 -2.496109e-03 -1.688583e-03 1.083430e-02 1.042224e-02 6.549020e-03 7.085876e-03 4.979654e-03 5.901577e-03 4.262902e-03 5.446339e-03 4.045507e-03 5.243002e-03 4.031102e-03 5.083554e-03 4.117715e-03 4.899168e-03 4.267832e-03 4.673099e-03 4.463387e-03 4.412156e-03 4.687931e-03 4.135035e-03 4.918583e-03 3.866363e-03 5.124903e-03 3.635160e-03 5.274097e-03 3.474707e-03 5.336016e-03 3.417259e-03 5.284459e-03 3.486437e-03 5.101001e-03 3.693889e-03 4.781585e-03 4.036857e-03 4.339978e-03 4.494029e-03 3.808610e-03 5.023791e-03 3.239246e-03 5.567325e-03 2.704767e-03 6.057209e-03 2.300492e-03 6.427158e-03 2.142001e-03 6.620046e-03 2.368520e-03 6.600302e-03 3.174553e-03 6.360488e-03 4.897323e-03 5.841796e-03 8.252985e-03 1.011704e-03 4.961243e-03 2.514484e-03 5.840216e-03 4.308254e-03 
2.100216e-03 7.937266e-04 5.932117e-04 -1.110775e-03 -2.617138e-03 -1.382621e-03 7.721055e-03 -1.944007e-03 5.244902e-03 -1.437845e-03 2.530643e-03 -1.218035e-03 -7.318418e-04 3.028189e-04 2.764796e-03 3.574487e-03 3.080137e-03 4.561683e-03 2.189022e-03 3.833863e-03 -4.585183e-04 1.458990e-04 -8.043262e-04 1.102639e-03 1.149993e-04 1.740413e-03 5.039533e-04 2.090059e-03 6.340382e-04 2.277903e-03 6.424219e-04 2.355169e-03 6.179606e-04 2.356284e-03 6.121424e-04 2.292465e-03 6.374287e-04 2.165231e-03 6.977118e-04 1.990291e-03 7.991525e-04 1.787086e-03 9.358772e-04 1.565324e-03 1.089198e-03 1.324900e-03 1.221915e-03 1.035828e-03 1.254022e-03 6.110661e-04 1.026081e-03 -1.729611e-04 1.495854e-04 -1.923854e-03 -2.387515e-03 -6.386705e-03 -9.673395e-03 -1.633099e-02 -1.248642e-02 -7.165077e-03 -1.119592e-02 -8.273925e-03 -3.471836e-03 -1.005909e-02 -3.183587e-03 -1.982522e-03 -6.620607e-03 2.256112e-03 -1.457993e-03 -2.726749e-03 5.608514e-03 3.224219e-03 3.404195e-04 1.634262e-03 1.503665e-04 1.250486e-03 -1.786664e-04 9.997835e-04 -2.894473e-04 8.437746e-04 -2.758520e-04 6.911000e-04 -1.865988e-04 5.004876e-04 -4.550636e-05 2.653655e-04 1.420934e-04 -3.483856e-07 3.636573e-04 -2.833619e-04 5.917259e-04 -5.608040e-04 8.002444e-04 -7.987315e-04 9.559652e-04 -9.679791e-04 1.023379e-03 -1.034646e-03 9.791824e-04 -9.709923e-04 8.022790e-04 -7.670342e-04 4.877156e-04 -4.189239e-04 5.489963e-05 5.624940e-05 -4.680853e-04 6.103524e-04 -1.036553e-03 1.185085e-03 -1.572457e-03 1.721465e-03 -1.976978e-03 2.154245e-03 -2.138516e-03 2.426033e-03 -1.927083e-03 2.485125e-03 -1.184152e-03 2.247922e-03 3.704541e-04 1.365439e-03 3.563099e-03 -6.218264e-03 -1.209497e-04 -1.715206e-03 1.748573e-03 6.267063e-04 
9.211033e-03 7.621406e-03 5.124367e-03 2.573951e-04 -7.942669e-03 -1.373316e-02 -4.646969e-03 -1.073184e-02 -3.473063e-03 -6.230137e-03 -1.876318e-04 1.491104e-03 8.941488e-03 1.444084e-02 1.790739e-02 2.013319e-02 2.018417e-02 2.119638e-02 1.901349e-02 1.766163e-02 1.443363e-02 6.949875e-03 1.914620e-03 -2.241800e-03 -4.559131e-03 -6.113674e-03 -7.487800e-03 -7.683741e-03 -8.932860e-03 -8.286863e-03 -9.716602e-03 -8.507398e-03 -1.016199e-02 -8.582109e-03 -1.039461e-02 -8.630603e-03 -1.049801e-02 -8.716826e-03 -1.050592e-02 -8.831711e-03 -1.040828e-02 -8.937351e-03 -1.019698e-02 -8.993514e-03 -9.852039e-03 -8.930426e-03 -9.320306e-03 -8.644249e-03 -8.492514e-03 -7.922940e-03 -7.077860e-03 -6.303666e-03 -4.473578e-03 -2.908546e-03 5.237708e-04 4.267098e-03 1.128898e-02 1.863510e-02 1.605804e-02 8.153499e-03 1.696885e-02 1.157414e-02 9.648531e-03 1.957117e-02 7.790395e-03 4.273802e-03 9.094466e-03 -5.305737e-03 2.535425e-03 1.681746e-03 -2.195134e-02 -1.877211e-02 -1.542403e-02 -1.352828e-02 -1.321226e-02 -1.148989e-02 -1.208010e-02 -1.065135e-02 -1.164286e-02 -1.037074e-02 -1.143341e-02 -1.034070e-02 -1.128754e-02 -1.046562e-02 -1.114707e-02 -1.068983e-02 -1.096810e-02 -1.096366e-02 -1.074483e-02 -1.127121e-02 -1.050817e-02 -1.158758e-02 -1.027547e-02 -1.186839e-02 -1.008053e-02 -1.208988e-02 -9.967536e-03 -1.221398e-02 -9.955827e-03 -1.220668e-02 -1.007546e-02 -1.206288e-02 -1.033822e-02 -1.176929e-02 -1.072059e-02 -1.133826e-02 -1.121024e-02 -1.083416e-02 -1.178733e-02 -1.032292e-02 -1.238390e-02 -9.862247e-03 -1.292295e-02 -9.538506e-03 -1.334490e-02 -9.450064e-03 -1.361176e-02 -9.728808e-03 -1.374896e-02 -1.056725e-02 -1.375301e-02 -1.226791e-02 -1.310631e-02 -1.569993e-02 -2.526974e-03 2.249902e-03 7.335574e-03 8.144012e-03 
9.571580e-03 8.452736e-03 6.280587e-03 5.963512e-04 -6.122544e-03 -2.076342e-02 -2.609305e-02 -1.978835e-02 -2.450316e-02 -1.987729e-02 -2.320803e-02 -2.027312e-02 -2.186744e-02 -2.254057e-02 -2.528414e-02 -2.585617e-02 -2.561360e-02 -2.690201e-02 -2.465566e-02 -2.625139e-02 -2.186133e-02 -2.265225e-02 -2.004458e-02 -2.256464e-02 -2.036090e-02 -2.262625e-02 -2.078818e-02 -2.256480e-02 -2.118876e-02 -2.241202e-02 -2.152892e-02 -2.221624e-02 -2.179954e-02 -2.200830e-02 -2.199673e-02 -2.181310e-02 -2.212925e-02 -2.164446e-02 -2.219826e-02 -2.148979e-02 -2.219142e-02 -2.132263e-02 -2.209493e-02 -2.111063e-02 -2.188458e-02 -2.080482e-02 -2.151258e-02 -2.033327e-02 -2.089014e-02 -1.956285e-02 -1.982461e-02 -1.822123e-02 -1.792849e-02 -1.576938e-02 -1.437823e-02 -1.084578e-02 -6.647577e-03 -1.195850e-03 -2.818194e-03 -9.762309e-03 -5.931547e-03 -9.579234e-03 -1.566767e-02 -1.128275e-02 -1.684430e-02 -1.873513e-02 -1.441829e-02 -2.199955e-02 -2.153794e-02 -1.840098e-02 -2.375554e-02 -2.005583e-02 -2.049133e-02 -2.107645e-02 -2.163756e-02 -2.171226e-02 -2.188308e-02 -2.192337e-02 -2.203577e-02 -2.203441e-02 -2.214279e-02 -2.210059e-02 -2.221801e-02 -2.216165e-02 -2.226827e-02 -2.223238e-02 -2.228835e-02 -2.231184e-02 -2.227800e-02 -2.240393e-02 -2.224429e-02 -2.250753e-02 -2.218648e-02 -2.261443e-02 -2.210885e-02 -2.272359e-02 -2.202041e-02 -2.282852e-02 -2.192428e-02 -2.292237e-02 -2.183177e-02 -2.300502e-02 -2.175268e-02 -2.306941e-02 -2.168952e-02 -2.311179e-02 -2.165456e-02 -2.314039e-02 -2.166358e-02 -2.315808e-02 -2.172259e-02 -2.316036e-02 -2.184214e-02 -2.315145e-02 -2.204939e-02 -2.314020e-02 -2.239836e-02 -2.313658e-02 -2.301723e-02 -2.308950e-02 -2.420337e-02 -2.256923e-02 -2.717985e-02 -1.173457e-02 -4.783971e-03 4.051420e-03 6.663176e-03 9.367060e-03 
3.574074e-02 3.671351e-02 3.824436e-02 3.997040e-02 4.533884e-02 4.318018e-02 2.869382e-02 3.879779e-02 2.791402e-02 3.476012e-02 2.661611e-02 2.973918e-02 2.230650e-02 2.517032e-02 2.495032e-02 2.531252e-02 2.566334e-02 2.533047e-02 2.562565e-02 2.530753e-02 2.479068e-02 2.450441e-02 2.821790e-02 2.882700e-02 3.141584e-02 3.105412e-02 3.298991e-02 3.211512e-02 3.379710e-02 3.262796e-02 3.421284e-02 3.289496e-02 3.439758e-02 3.304057e-02 3.441897e-02 3.313644e-02 3.433645e-02 3.322436e-02 3.416900e-02 3.328471e-02 3.389225e-02 3.327177e-02 3.347851e-02 3.313290e-02 3.287913e-02 3.277394e-02 3.199770e-02 3.204352e-02 3.065456e-02 3.064051e-02 2.843564e-02 2.793130e-02 2.449796e-02 2.268075e-02 1.708713e-02 1.189175e-02 1.006118e-03 -9.500341e-03 -5.257258e-03 6.268249e-03 -9.808158e-04 5.823896e-03 1.412957e-02 6.247463e-03 1.637556e-02 2.318770e-02 1.410506e-02 3.154137e-02 2.719928e-02 2.447451e-02 4.134111e-02 3.686861e-02 3.435965e-02 3.480107e-02 3.514210e-02 3.435648e-02 3.500736e-02 3.413358e-02 3.500172e-02 3.415032e-02 3.499693e-02 3.426848e-02 3.495650e-02 3.445850e-02 3.487951e-02 3.469477e-02 3.474954e-02 3.494545e-02 3.457379e-02 3.520633e-02 3.438859e-02 3.546150e-02 3.421328e-02 3.567432e-02 3.408073e-02 3.582732e-02 3.403233e-02 3.588805e-02 3.408388e-02 3.582678e-02 3.426033e-02 3.564089e-02 3.456879e-02 3.531902e-02 3.498300e-02 3.487486e-02 3.548905e-02 3.437375e-02 3.606776e-02 3.388551e-02 3.665578e-02 3.347793e-02 3.718509e-02 3.325683e-02 3.760920e-02 3.335652e-02 3.790390e-02 3.397484e-02 3.808485e-02 3.543562e-02 3.801047e-02 3.837093e-02 3.628461e-02 4.974540e-02 3.926664e-02 3.970112e-02 3.570926e-02 3.667709e-02 
4.155564e-02 4.303802e-02 4.485022e-02 4.985667e-02 5.665739e-02 6.666148e-02 6.166118e-02 6.302379e-02 5.920632e-02 5.988544e-02 5.625989e-02 5.563943e-02 5.010025e-02 4.992240e-02 5.002814e-02 4.995771e-02 5.005726e-02 4.999492e-02 5.001164e-02 5.004418e-02 4.988599e-02 5.011203e-02 5.350762e-02 5.561173e-02 5.728407e-02 5.865895e-02 5.953148e-02 6.019985e-02 6.086427e-02 6.091413e-02 6.165372e-02 6.121302e-02 6.211160e-02 6.131169e-02 6.234963e-02 6.133501e-02 6.244906e-02 6.135252e-02 6.244793e-02 6.136993e-02 6.234738e-02 6.136733e-02 6.214965e-02 6.132581e-02 6.185562e-02 6.121917e-02 6.146270e-02 6.103028e-02 6.097427e-02 6.073646e-02 6.036275e-02 6.028554e-02 5.957865e-02 5.962458e-02 5.852723e-02 5.849537e-02 5.626517e-02 5.503756e-02 5.250138e-02 5.440980e-02 5.453520e-02 5.369700e-02 5.652670e-02 5.844220e-02 5.524346e-02 5.704328e-02 5.517232e-02 5.371889e-02 5.853189e-02 5.517175e-02 4.989699e-02 4.978917e-02 5.445638e-02 5.647291e-02 5.900701e-02 5.940389e-02 6.091644e-02 6.074645e-02 6.186946e-02 6.146239e-02 6.236055e-02 6.190116e-02 6.260658e-02 6.223428e-02 6.271058e-02 6.252975e-02 6.270804e-02 6.280367e-02 6.262748e-02 6.307149e-02 6.250714e-02 6.333067e-02 6.236719e-02 6.355868e-02 6.223564e-02 6.374454e-02 6.214631e-02 6.386496e-02 6.211485e-02 6.389766e-02 6.216500e-02 6.383918e-02 6.230835e-02 6.367906e-02 6.253263e-02 6.342439e-02 6.283573e-02 6.311930e-02 6.321244e-02 6.280960e-02 6.362615e-02 6.253794e-02 6.403826e-02 6.237400e-02 6.442974e-02 6.240647e-02 6.480853e-02 6.275861e-02 6.525754e-02 6.359448e-02 6.596205e-02 6.509311e-02 6.760330e-02 6.444339e-02 5.345460e-02 4.810866e-02 4.365759e-02 4.264050e-02 
5.266381e-02 5.416777e-02 5.428877e-02 5.790671e-02 5.937917e-02 6.670612e-02 6.745260e-02 6.797869e-02 6.761061e-02 6.817849e-02 6.764477e-02 6.817334e-02 6.754982e-02 6.741447e-02 6.748701e-02 6.744479e-02 6.753285e-02 6.747776e-02 6.749215e-02 6.751860e-02 6.736460e-02 6.757616e-02 6.733947e-02 6.778726e-02 6.736479e-02 6.785350e-02 6.755714e-02 6.785954e-02 6.778567e-02 6.781302e-02 6.799424e-02 6.774134e-02 6.815700e-02 6.766542e-02 6.826044e-02 6.759992e-02 6.830116e-02 6.755083e-02 6.827727e-02 6.751137e-02 6.818591e-02 6.746900e-02 6.802999e-02 6.741522e-02 6.782357e-02 6.735568e-02 6.760426e-02 6.733375e-02 6.746430e-02 6.747641e-02 6.761828e-02 6.810564e-02 6.857893e-02 7.001608e-02 7.161161e-02 7.543922e-02 8.081595e-02 8.881084e-02 8.463099e-02 7.833012e-02 8.176230e-02 7.928451e-02 7.285042e-02 7.896604e-02 7.360898e-02 7.090284e-02 7.739391e-02 6.837759e-02 7.045550e-02 7.383914e-02 6.678007e-02 6.925621e-02 7.116850e-02 6.938281e-02 6.964971e-02 6.895735e-02 6.933924e-02 6.881018e-02 6.915385e-02 6.871843e-02 6.903341e-02 6.869957e-02 6.894566e-02 6.874621e-02 6.886563e-02 6.884342e-02 6.877689e-02 6.897413e-02 6.867485e-02 6.912472e-02 6.856517e-02 6.928077e-02 6.845668e-02 6.942562e-02 6.836247e-02 6.954457e-02 6.829758e-02 6.962258e-02 6.827387e-02 6.964730e-02 6.830179e-02 6.961279e-02 6.838596e-02 6.951747e-02 6.852255e-02 6.936867e-02 6.870385e-02 6.918497e-02 6.891525e-02 6.898860e-02 6.913018e-02 6.880119e-02 6.931403e-02 6.864393e-02 6.942733e-02 6.852969e-02 6.942592e-02 6.845165e-02 6.927514e-02 6.836064e-02 6.902479e-02 6.810080e-02 6.936769e-02 6.388447e-02 5.940866e-02 5.676740e-02 5.417036e-02 5.384283e-02 
5.222871e-02 5.330984e-02 5.373449e-02 5.625302e-02 5.754277e-02 6.108111e-02 6.217318e-02 6.430573e-02 6.551578e-02 6.702579e-02 6.988199e-02 7.144531e-02 7.796413e-02 7.790555e-02 7.795670e-02 7.791003e-02 7.794271e-02 7.792734e-02 7.792329e-02 7.795246e-02 7.790520e-02 7.797274e-02 7.281044e-02 7.142216e-02 6.843173e-02 6.779483e-02 6.622538e-02 6.583970e-02 6.516591e-02 6.478183e-02 6.471055e-02 6.420712e-02 6.454802e-02 6.389570e-02 6.450939e-02 6.373672e-02 6.450961e-02 6.367454e-02 6.450805e-02 6.367732e-02 6.448730e-02 6.372529e-02 6.444584e-02 6.380839e-02 6.439471e-02 6.392645e-02 6.435747e-02 6.409356e-02 6.437458e-02 6.434554e-02 6.451426e-02 6.476058e-02 6.490949e-02 6.551707e-02 6.586180e-02 6.716723e-02 6.869730e-02 7.175092e-02 7.165680e-02 7.052189e-02 7.064269e-02 7.142834e-02 6.889038e-02 6.958117e-02 6.972603e-02 6.817769e-02 7.003917e-02 6.885268e-02 6.736997e-02 6.866471e-02 6.941762e-02 6.891518e-02 6.774435e-02 6.574720e-02 6.560449e-02 6.469202e-02 6.506388e-02 6.441294e-02 6.490501e-02 6.437753e-02 6.486156e-02 6.444293e-02 6.483733e-02 6.455875e-02 6.479797e-02 6.470471e-02 6.473274e-02 6.486833e-02 6.464372e-02 6.503962e-02 6.454110e-02 6.520708e-02 6.443827e-02 6.535667e-02 6.435095e-02 6.547424e-02 6.429497e-02 6.554557e-02 6.428305e-02 6.555915e-02 6.432453e-02 6.550887e-02 6.442218e-02 6.539372e-02 6.457009e-02 6.522013e-02 6.475515e-02 6.500232e-02 6.495464e-02 6.475620e-02 6.513236e-02 6.449314e-02 6.523875e-02 6.421408e-02 6.521000e-02 6.389764e-02 6.496318e-02 6.348294e-02 6.438675e-02 6.283927e-02 6.331345e-02 6.170517e-02 6.145798e-02 5.910403e-02 5.689965e-02 5.514936e-02 5.338381e-02 5.295972e-02 
5.710344e-02 5.830020e-02 5.823492e-02 6.069831e-02 6.134934e-02 6.453463e-02 6.559107e-02 6.747080e-02 6.891957e-02 7.021561e-02 7.317733e-02 7.467361e-02 8.146464e-02 8.141006e-02 8.145794e-02 8.141688e-02 8.144942e-02 8.143710e-02 8.142630e-02 8.146431e-02 8.139748e-02 8.148594e-02 7.648968e-02 7.511365e-02 7.226335e-02 7.165019e-02 7.011909e-02 6.979653e-02 6.907913e-02 6.881360e-02 6.863422e-02 6.829927e-02 6.848470e-02 6.803778e-02 6.846606e-02 6.791997e-02 6.849446e-02 6.789288e-02 6.853205e-02 6.793162e-02 6.856738e-02 6.802620e-02 6.860633e-02 6.817810e-02 6.866964e-02 6.840186e-02 6.879393e-02 6.872956e-02 6.903574e-02 6.921797e-02 6.947783e-02 6.995546e-02 7.023078e-02 7.105281e-02 7.139538e-02 7.256057e-02 7.294214e-02 7.427505e-02 7.390348e-02 7.368470e-02 7.329366e-02 7.315069e-02 7.173982e-02 7.201481e-02 7.099476e-02 7.025439e-02 7.051321e-02 6.922679e-02 6.910207e-02 6.904576e-02 6.833238e-02 6.844542e-02 6.854431e-02 6.840965e-02 6.875893e-02 6.854616e-02 6.891704e-02 6.863746e-02 6.898160e-02 6.869665e-02 6.898580e-02 6.875121e-02 6.895018e-02 6.881897e-02 6.888657e-02 6.890692e-02 6.880237e-02 6.901375e-02 6.870440e-02 6.913280e-02 6.860112e-02 6.925436e-02 6.850303e-02 6.936682e-02 6.842159e-02 6.945763e-02 6.836780e-02 6.951488e-02 6.835099e-02 6.952923e-02 6.837735e-02 6.949522e-02 6.844808e-02 6.941195e-02 6.855794e-02 6.928339e-02 6.869422e-02 6.911711e-02 6.883557e-02 6.892093e-02 6.895025e-02 6.869688e-02 6.899398e-02 6.843271e-02 6.890784e-02 6.809037e-02 6.861551e-02 6.758881e-02 6.801581e-02 6.677356e-02 6.695021e-02 6.535160e-02 6.507214e-02 6.272953e-02 6.117249e-02 5.964973e-02 5.816811e-02 5.796418e-02 
5.222881e-02 5.330759e-02 5.373438e-02 5.625171e-02 5.754223e-02 6.108075e-02 6.217246e-02 6.430620e-02 6.551557e-02 6.702697e-02 6.988231e-02 7.144647e-02 7.796423e-02 7.790544e-02 7.795684e-02 7.790990e-02 7.794280e-02 7.792724e-02 7.792324e-02 7.795246e-02 7.790504e-02 7.797296e-02 7.281530e-02 7.142961e-02 6.844253e-02 6.780999e-02 6.624378e-02 6.586535e-02 6.519579e-02 6.482135e-02 6.475516e-02 6.426348e-02 6.461187e-02 6.397454e-02 6.459975e-02 6.384567e-02 6.463521e-02 6.382380e-02 6.468176e-02 6.388284e-02 6.472756e-02 6.400730e-02 6.477346e-02 6.418779e-02 6.483013e-02 6.442097e-02 6.491398e-02 6.470606e-02 6.504281e-02 6.504561e-02 6.523858e-02 6.545066e-02 6.553140e-02 6.594586e-02 6.596367e-02 6.656871e-02 6.656804e-02 6.729409e-02 6.710341e-02 6.749945e-02 6.719101e-02 6.758009e-02 6.710563e-02 6.731958e-02 6.715935e-02 6.704293e-02 6.710633e-02 6.691187e-02 6.680017e-02 6.667037e-02 6.673283e-02 6.631826e-02 6.634312e-02 6.567299e-02 6.587374e-02 6.519962e-02 6.556239e-02 6.492100e-02 6.536819e-02 6.478341e-02 6.523450e-02 6.474311e-02 6.512206e-02 6.477201e-02 6.500905e-02 6.485175e-02 6.488686e-02 6.496749e-02 6.475476e-02 6.510362e-02 6.461859e-02 6.524550e-02 6.449130e-02 6.537886e-02 6.438721e-02 6.548645e-02 6.431886e-02 6.555205e-02 6.429833e-02 6.556379e-02 6.433403e-02 6.551421e-02 6.442809e-02 6.540237e-02 6.457513e-02 6.523359e-02 6.475963e-02 6.501833e-02 6.495652e-02 6.477185e-02 6.513153e-02 6.450756e-02 6.523635e-02 6.422606e-02 6.520662e-02 6.390626e-02 6.496022e-02 6.348788e-02 6.438458e-02 6.283947e-02 6.331205e-02 6.170168e-02 6.145843e-02 5.909886e-02 5.689962e-02 5.514476e-02 5.338388e-02 5.295635e-02 
5.266451e-02 5.416289e-02 5.428861e-02 5.790362e-02 5.937766e-02 6.670645e-02 6.745071e-02 6.798062e-02 6.761078e-02 6.818241e-02 6.764628e-02 6.817706e-02 6.755082e-02 6.741400e-02 6.748742e-02 6.744426e-02 6.753332e-02 6.747748e-02 6.749224e-02 6.751887e-02 6.736413e-02 6.757623e-02 6.735314e-02 6.780938e-02 6.739812e-02 6.790002e-02 6.761551e-02 6.793838e-02 6.787991e-02 6.793446e-02 6.813506e-02 6.791620e-02 6.835954e-02 6.791230e-02 6.854828e-02 6.794454e-02 6.870439e-02 6.802847e-02 6.883918e-02 6.817518e-02 6.896752e-02 6.838848e-02 6.910447e-02 6.866933e-02 6.926940e-02 6.902065e-02 6.948193e-02 6.944037e-02 6.975248e-02 6.991780e-02 7.008008e-02 7.043035e-02 7.044251e-02 7.093009e-02 7.078556e-02 7.133768e-02 7.102305e-02 7.154457e-02 7.106187e-02 7.147424e-02 7.083995e-02 7.110198e-02 7.045694e-02 7.052364e-02 7.004052e-02 6.999484e-02 6.963908e-02 6.954792e-02 6.930583e-02 6.918522e-02 6.920453e-02 6.902859e-02 6.913254e-02 6.887687e-02 6.912031e-02 6.879434e-02 6.914148e-02 6.876254e-02 6.915813e-02 6.876356e-02 6.914850e-02 6.879251e-02 6.910467e-02 6.884927e-02 6.902656e-02 6.893450e-02 6.892022e-02 6.904559e-02 6.879278e-02 6.917313e-02 6.865372e-02 6.930734e-02 6.851984e-02 6.943824e-02 6.840707e-02 6.954907e-02 6.832722e-02 6.962341e-02 6.829323e-02 6.964979e-02 6.831463e-02 6.962012e-02 6.839504e-02 6.953344e-02 6.853208e-02 6.939532e-02 6.871348e-02 6.921705e-02 6.892006e-02 6.901978e-02 6.912935e-02 6.882950e-02 6.930936e-02 6.866667e-02 6.941961e-02 6.854516e-02 6.941816e-02 6.845993e-02 6.926853e-02 6.836047e-02 6.901984e-02 6.809560e-02 6.936819e-02 6.387311e-02 5.940915e-02 5.675818e-02 5.417142e-02 5.383605e-02 
4.155678e-02 4.303186e-02 4.485058e-02 4.985276e-02 5.665576e-02 6.666090e-02 6.165718e-02 6.302262e-02 5.920504e-02 5.988969e-02 5.626411e-02 5.564549e-02 5.010163e-02 4.992202e-02 5.002901e-02 4.995713e-02 5.005777e-02 4.999428e-02 5.001132e-02 5.004358e-02 4.988413e-02 5.011078e-02 5.352205e-02 5.563624e-02 5.731246e-02 5.869832e-02 5.957276e-02 6.026760e-02 6.094115e-02 6.102484e-02 6.176908e-02 6.136394e-02 6.227368e-02 6.152361e-02 6.258673e-02 6.163036e-02 6.277865e-02 6.175130e-02 6.290574e-02 6.192906e-02 6.300628e-02 6.216726e-02 6.309198e-02 6.245604e-02 6.318836e-02 6.280503e-02 6.332729e-02 6.320824e-02 6.351363e-02 6.364770e-02 6.375471e-02 6.411364e-02 6.404260e-02 6.456622e-02 6.433687e-02 6.496004e-02 6.460936e-02 6.527239e-02 6.486279e-02 6.554223e-02 6.503518e-02 6.557997e-02 6.514413e-02 6.543296e-02 6.514219e-02 6.528921e-02 6.502157e-02 6.504041e-02 6.488231e-02 6.465270e-02 6.480489e-02 6.432384e-02 6.452488e-02 6.386463e-02 6.424570e-02 6.347425e-02 6.402839e-02 6.319139e-02 6.385198e-02 6.300848e-02 6.369385e-02 6.292025e-02 6.353364e-02 6.291155e-02 6.335476e-02 6.297400e-02 6.316097e-02 6.309980e-02 6.295013e-02 6.325750e-02 6.272019e-02 6.343009e-02 6.250640e-02 6.361481e-02 6.233452e-02 6.377408e-02 6.220862e-02 6.387514e-02 6.215351e-02 6.390486e-02 6.218730e-02 6.384574e-02 6.231664e-02 6.369802e-02 6.254683e-02 6.347131e-02 6.285706e-02 6.317549e-02 6.321832e-02 6.285625e-02 6.361925e-02 6.258261e-02 6.402971e-02 6.241103e-02 6.441598e-02 6.243204e-02 6.480077e-02 6.277715e-02 6.525438e-02 6.359103e-02 6.595683e-02 6.507318e-02 6.761516e-02 6.441880e-02 5.345158e-02 4.809172e-02 4.365800e-02 4.263081e-02 
3.574395e-02 3.670390e-02 3.824560e-02 3.995935e-02 4.533768e-02 4.316266e-02 2.868731e-02 3.877603e-02 2.790359e-02 3.474397e-02 2.661102e-02 2.973108e-02 2.229971e-02 2.516886e-02 2.494808e-02 2.531035e-02 2.566438e-02 2.532795e-02 2.562447e-02 2.530873e-02 2.478676e-02 2.452976e-02 2.824633e-02 2.889228e-02 3.146031e-02 3.113821e-02 3.304035e-02 3.223182e-02 3.387957e-02 3.279577e-02 3.433090e-02 3.311276e-02 3.456673e-02 3.334266e-02 3.468609e-02 3.356177e-02 3.473804e-02 3.380964e-02 3.477209e-02 3.411907e-02 3.482372e-02 3.448589e-02 3.489816e-02 3.489739e-02 3.502346e-02 3.537418e-02 3.524139e-02 3.592181e-02 3.556397e-02 3.653525e-02 3.601356e-02 3.722322e-02 3.659345e-02 3.794638e-02 3.724801e-02 3.862542e-02 3.788517e-02 3.912160e-02 3.827765e-02 3.909599e-02 3.826880e-02 3.885815e-02 3.791590e-02 3.838758e-02 3.748757e-02 3.753362e-02 3.701033e-02 3.668711e-02 3.640457e-02 3.605280e-02 3.576692e-02 3.535027e-02 3.552010e-02 3.497596e-02 3.544076e-02 3.478434e-02 3.542044e-02 3.469315e-02 3.538645e-02 3.466843e-02 3.532012e-02 3.470910e-02 3.521446e-02 3.480512e-02 3.506421e-02 3.495425e-02 3.488652e-02 3.515277e-02 3.468615e-02 3.536241e-02 3.446422e-02 3.556270e-02 3.426975e-02 3.575208e-02 3.413752e-02 3.588282e-02 3.407242e-02 3.591520e-02 3.410707e-02 3.583743e-02 3.426432e-02 3.563272e-02 3.455065e-02 3.530931e-02 3.496949e-02 3.488891e-02 3.548644e-02 3.439388e-02 3.605237e-02 3.389509e-02 3.663779e-02 3.349469e-02 3.718315e-02 3.327738e-02 3.761794e-02 3.337604e-02 3.793395e-02 3.399571e-02 3.812693e-02 3.543078e-02 3.804677e-02 3.833970e-02 3.633081e-02 4.971882e-02 3.927412e-02 3.968200e-02 3.571431e-02 3.666542e-02 
9.579525e-03 8.447419e-03 6.285719e-03 5.860348e-04 -6.118285e-03 -2.078397e-02 -2.609085e-02 -1.981174e-02 -2.450835e-02 -1.990369e-02 -2.321693e-02 -2.029453e-02 -2.187130e-02 -2.254906e-02 -2.528923e-02 -2.585136e-02 -2.561926e-02 -2.688532e-02 -2.466125e-02 -2.622672e-02 -2.186331e-02 -2.262110e-02 -2.005840e-02 -2.254645e-02 -2.039380e-02 -2.262112e-02 -2.084781e-02 -2.258513e-02 -2.129255e-02 -2.246966e-02 -2.168205e-02 -2.231330e-02 -2.200736e-02 -2.215829e-02 -2.227321e-02 -2.203263e-02 -2.248382e-02 -2.195508e-02 -2.265272e-02 -2.194145e-02 -2.279367e-02 -2.199211e-02 -2.291250e-02 -2.210137e-02 -2.302380e-02 -2.227146e-02 -2.314414e-02 -2.249291e-02 -2.327188e-02 -2.274300e-02 -2.339695e-02 -2.299139e-02 -2.348774e-02 -2.317856e-02 -2.348392e-02 -2.323766e-02 -2.334339e-02 -2.316099e-02 -2.315746e-02 -2.316731e-02 -2.294149e-02 -2.291976e-02 -2.277078e-02 -2.257812e-02 -2.256566e-02 -2.253065e-02 -2.237563e-02 -2.250055e-02 -2.239797e-02 -2.239217e-02 -2.271250e-02 -2.256940e-02 -2.271204e-02 -2.249215e-02 -2.267987e-02 -2.238757e-02 -2.266995e-02 -2.230497e-02 -2.267423e-02 -2.224950e-02 -2.267767e-02 -2.222243e-02 -2.266728e-02 -2.221959e-02 -2.263363e-02 -2.224077e-02 -2.257824e-02 -2.228758e-02 -2.249998e-02 -2.235174e-02 -2.239708e-02 -2.243306e-02 -2.228487e-02 -2.253843e-02 -2.217293e-02 -2.265684e-02 -2.205945e-02 -2.277770e-02 -2.195279e-02 -2.289712e-02 -2.185906e-02 -2.300549e-02 -2.178135e-02 -2.309775e-02 -2.172649e-02 -2.316899e-02 -2.169459e-02 -2.320955e-02 -2.168857e-02 -2.322218e-02 -2.172722e-02 -2.321665e-02 -2.182757e-02 -2.319348e-02 -2.201341e-02 -2.316621e-02 -2.235029e-02 -2.315258e-02 -2.296355e-02 -2.309429e-02 -2.414951e-02 -2.257120e-02 -2.714453e-02 -1.172598e-02 -4.759730e-03 4.054609e-03 6.676754e-03 9.365552e-03 
9.217357e-03 7.621267e-03 5.128857e-03 2.550872e-04 -7.938210e-03 -1.373600e-02 -4.640843e-03 -1.073348e-02 -3.468869e-03 -6.237225e-03 -1.910666e-04 1.481635e-03 8.940408e-03 1.443541e-02 1.790118e-02 2.014021e-02 2.017286e-02 2.121559e-02 1.900794e-02 1.768515e-02 1.444289e-02 6.962076e-03 1.902545e-03 -2.247588e-03 -4.579297e-03 -6.117951e-03 -7.507181e-03 -7.699479e-03 -8.974920e-03 -8.326976e-03 -9.775003e-03 -8.558466e-03 -1.023460e-02 -8.660337e-03 -1.050250e-02 -8.749879e-03 -1.064122e-02 -8.881603e-03 -1.070404e-02 -9.092287e-03 -1.072910e-02 -9.376315e-03 -1.072704e-02 -9.719915e-03 -1.073905e-02 -1.014950e-02 -1.083165e-02 -1.068871e-02 -1.105848e-02 -1.137290e-02 -1.151144e-02 -1.228531e-02 -1.229866e-02 -1.349371e-02 -1.348650e-02 -1.500485e-02 -1.501591e-02 -1.652915e-02 -1.617220e-02 -1.670047e-02 -1.663918e-02 -1.706447e-02 -1.632362e-02 -1.716191e-02 -1.594027e-02 -1.562532e-02 -1.540446e-02 -1.401722e-02 -1.405152e-02 -1.300460e-02 -1.185291e-02 -1.101323e-02 -1.139502e-02 -1.041796e-02 -1.142415e-02 -1.026435e-02 -1.155330e-02 -1.024590e-02 -1.162935e-02 -1.028365e-02 -1.162738e-02 -1.037773e-02 -1.154658e-02 -1.052560e-02 -1.138818e-02 -1.073113e-02 -1.117576e-02 -1.099418e-02 -1.092001e-02 -1.127722e-02 -1.062818e-02 -1.155944e-02 -1.035695e-02 -1.183785e-02 -1.014789e-02 -1.206023e-02 -1.001077e-02 -1.218140e-02 -9.982615e-03 -1.218428e-02 -1.008890e-02 -1.204672e-02 -1.033681e-02 -1.177276e-02 -1.072938e-02 -1.138093e-02 -1.123034e-02 -1.089039e-02 -1.178786e-02 -1.036832e-02 -1.236916e-02 -9.909146e-03 -1.290811e-02 -9.580186e-03 -1.332395e-02 -9.481764e-03 -1.359914e-02 -9.756439e-03 -1.374179e-02 -1.056831e-02 -1.374133e-02 -1.224651e-02 -1.311506e-02 -1.567710e-02 -2.510270e-03 2.263183e-03 7.345799e-03 8.148159e-03 
2.103384e-03 7.941725e-04 5.954286e-04 -1.110418e-03 -2.615552e-03 -1.378856e-03 7.723488e-03 -1.938886e-03 5.248527e-03 -1.433718e-03 2.530656e-03 -1.215659e-03 -7.350375e-04 3.067619e-04 2.762516e-03 3.573642e-03 3.076801e-03 4.557227e-03 2.183033e-03 3.826925e-03 -4.725697e-04 1.342994e-04 -8.234606e-04 1.084070e-03 9.353115e-05 1.720228e-03 4.832574e-04 2.062738e-03 6.047901e-04 2.236989e-03 6.046723e-04 2.302179e-03 5.683981e-04 2.280133e-03 5.369230e-04 2.180878e-03 5.277452e-04 2.007501e-03 5.344151e-04 1.757148e-03 5.420492e-04 1.435828e-03 5.352499e-04 1.044012e-03 4.749845e-04 5.551258e-04 2.979999e-04 -7.243811e-05 -7.266256e-05 -9.051587e-04 -7.501847e-04 -2.049480e-03 -1.870876e-03 -3.606575e-03 -3.515278e-03 -5.545843e-03 -5.550870e-03 -7.491759e-03 -6.737668e-03 -6.703308e-03 -6.410488e-03 -6.337118e-03 -4.831931e-03 -5.680590e-03 -3.752853e-03 -3.129442e-03 -3.000239e-03 -1.104487e-03 -1.265816e-03 -4.642602e-04 9.318266e-04 1.229933e-03 7.188492e-04 1.351974e-03 3.607429e-04 1.254911e-03 8.523830e-05 1.132149e-03 -7.056021e-05 9.836876e-04 -1.295255e-04 7.998294e-04 -1.030917e-04 5.795265e-04 -3.142715e-07 3.229284e-04 1.605215e-04 3.584095e-05 3.628619e-04 -2.578434e-04 5.872549e-04 -5.365816e-04 7.925703e-04 -7.820476e-04 9.421168e-04 -9.555275e-04 1.012359e-03 -1.021498e-03 9.727800e-04 -9.596107e-04 8.023196e-04 -7.550886e-04 4.956902e-04 -4.117091e-04 6.106165e-05 5.047101e-05 -4.657058e-04 5.995155e-04 -1.028595e-03 1.176630e-03 -1.562387e-03 1.709660e-03 -1.971757e-03 2.140873e-03 -2.136393e-03 2.413320e-03 -1.932331e-03 2.472816e-03 -1.193704e-03 2.246974e-03 3.626687e-04 1.377218e-03 3.551030e-03 -6.210914e-03 -1.161759e-04 -1.709954e-03 1.752853e-03 6.286687e-04 
