# vtk DataFile Version 2.0
Comment goes here
ASCII

DATASET STRUCTURED_POINTS
FIELD FieldData 1
TIME 1 1 double
0.36000000
DIMENSIONS    128   16   1

ORIGIN    0.000   0.000   0.000
SPACING   0.0078125 0.015625   1.000

POINT_DATA   2048
SCALARS uX double
LOOKUP_TABLE default

-6.524999e-03 -2.021263e-03 -5.882749e-03 1.038311e-03 -4.706183e-03 6.052355e-03 -8.313153e-03 1.463656e-03 -3.618011e-03 2.730216e-03 1.955572e-03 7.938022e-03 1.329883e-02 2.353679e-02 3.008672e-02 3.011606e-02 3.532210e-02 3.224913e-02 3.344582e-02 2.846645e-02 2.552336e-02 1.156875e-02 9.273717e-03 1.951719e-03 3.124354e-03 -1.658440e-03 4.604254e-04 -3.054126e-03 -7.823730e-04 -3.465806e-03 -1.394315e-03 -3.421169e-03 -1.730970e-03 -3.201381e-03 -1.967970e-03 -2.946487e-03 -2.157875e-03 -2.707299e-03 -2.307990e-03 -2.518755e-03 -2.430235e-03 -2.402097e-03 -2.518347e-03 -2.342136e-03 -2.551520e-03 -2.316991e-03 -2.529282e-03 -2.321001e-03 -2.479430e-03 -2.373261e-03 -2.465720e-03 -2.518926e-03 -2.577982e-03 -2.833449e-03 -3.013423e-03 -3.627722e-03 -4.031367e-03 -3.091037e-03 -2.962002e-03 -6.269470e-03 -4.605509e-03 -5.766096e-03 -5.870520e-03 -3.976812e-03 -6.376271e-03 -6.864550e-03 -6.689915e-03 -7.571733e-03 -6.269739e-03 -6.664851e-03 -9.184042e-03 -9.780328e-03 -7.647336e-03 -6.193835e-03 -4.252344e-03 -3.654100e-03 -2.655178e-03 -2.725901e-03 -2.006436e-03 -2.454393e-03 -1.721475e-03 -2.444564e-03 -1.588394e-03 -2.515801e-03 -1.511713e-03 -2.555531e-03 -1.455814e-03 -2.525982e-03 -1.456692e-03 -2.442950e-03 -1.554191e-03 -2.311163e-03 -1.747307e-03 -2.111018e-03 -2.000106e-03 -1.837639e-03 -2.287272e-03 -1.525114e-03 -2.586716e-03 -1.224396e-03 -2.861015e-03 -9.763911e-04 -3.044831e-03 -8.189154e-04 -3.094829e-03 -8.224965e-04 -2.992056e-03 -1.024391e-03 -2.687536e-03 -1.416398e-03 -2.158986e-03 -1.993622e-03 -1.451392e-03 -2.748446e-03 -6.556870e-04 -3.611565e-03 1.023083e-04 -4.434106e-03 5.792794e-04 -5.007006e-03 1.766020e-04 -5.114645e-03 -2.957819e-03 -1.465224e-03 -5.031283e-03 -2.744782e-03 -6.269977e-03 -3.158817e-03 
-3.502091e-03 2.331295e-04 -2.529385e-03 3.229663e-03 -4.152865e-04 1.014849e-02 -6.552467e-03 1.750761e-03 -1.642793e-03 4.381247e-04 2.360616e-03 1.949914e-04 7.726569e-03 3.867214e-04 4.682084e-03 -9.522123e-04 3.825318e-03 -1.124468e-03 3.692868e-03 2.306440e-04 4.328969e-03 4.265722e-03 2.627480e-03 1.282079e-03 1.507560e-03 -1.050054e-04 8.827102e-04 -7.893636e-04 4.616092e-04 -1.057743e-03 1.323209e-04 -1.098990e-03 -1.434167e-04 -9.878114e-04 -3.502871e-04 -8.025280e-04 -5.242413e-04 -6.290457e-04 -6.888548e-04 -5.107946e-04 -8.237196e-04 -4.217746e-04 -8.759466e-04 -3.415315e-04 -8.616116e-04 -2.973242e-04 -7.910540e-04 -2.381610e-04 -6.081252e-04 -9.593093e-05 -3.094634e-04 1.237374e-04 2.085140e-05 3.468273e-04 2.427749e-04 5.010981e-04 6.702054e-04 3.397850e-03 3.460883e-03 -8.257744e-04 2.085054e-03 3.499933e-04 -1.324964e-03 1.860220e-03 -2.253753e-03 -2.385786e-03 -2.332760e-03 -4.875682e-03 -4.249954e-03 -4.468773e-03 -8.888470e-03 -1.003541e-02 -8.012988e-03 -6.188453e-03 -4.053903e-03 -2.851171e-03 -1.851214e-03 -1.397069e-03 -8.127020e-04 -8.158018e-04 -2.954838e-04 -6.447832e-04 -4.986299e-05 -6.601598e-04 7.467012e-05 -6.784306e-04 1.594036e-04 -6.594907e-04 1.457086e-04 -6.138604e-04 4.437325e-05 -4.775813e-04 -1.100006e-04 -2.431900e-04 -3.305865e-04 3.781354e-05 -6.320694e-04 3.308332e-04 -9.626247e-04 6.163423e-04 -1.272024e-03 8.525742e-04 -1.485791e-03 1.023070e-03 -1.543399e-03 1.030342e-03 -1.478365e-03 8.128746e-04 -1.191164e-03 4.565271e-04 -6.127663e-04 -7.767750e-05 1.168319e-04 -8.794668e-04 9.067092e-04 -1.842841e-03 1.729473e-03 -2.807825e-03 2.406462e-03 -3.624761e-03 2.401896e-03 -3.972579e-03 -1.072849e-05 2.587805e-03 -3.733568e-03 -4.438637e-04 -3.842970e-03 -8.325870e-04 
-8.121972e-03 -5.631427e-03 -6.384566e-03 -2.119679e-03 -2.580589e-04 1.060903e-02 4.888921e-04 7.421727e-03 -6.729221e-05 4.105765e-03 -2.469630e-03 -8.645161e-04 -9.645216e-03 -1.111738e-02 -1.564338e-02 -1.507275e-02 -1.712738e-02 -1.679650e-02 -1.550375e-02 -1.586657e-02 -1.114162e-02 -9.054054e-03 -1.116067e-03 -2.067108e-03 3.043846e-03 7.804401e-04 4.776655e-03 2.143897e-03 5.534226e-03 2.926561e-03 5.773845e-03 3.399155e-03 5.759151e-03 3.833002e-03 5.723284e-03 4.263871e-03 5.629018e-03 4.587906e-03 5.445556e-03 4.771508e-03 5.242611e-03 4.931933e-03 5.182367e-03 5.146963e-03 5.233086e-03 5.321502e-03 5.338114e-03 5.529403e-03 5.643528e-03 5.934823e-03 6.213485e-03 6.516586e-03 6.921492e-03 7.191774e-03 7.957104e-03 8.604321e-03 9.816461e-03 7.660805e-03 8.223551e-03 1.424317e-02 1.145957e-02 1.335455e-02 1.465256e-02 1.028783e-02 1.602556e-02 1.634693e-02 1.644709e-02 1.862239e-02 1.649067e-02 1.715406e-02 2.279994e-02 2.310963e-02 1.985492e-02 1.640221e-02 1.298566e-02 1.094386e-02 9.386800e-03 8.300586e-03 7.765199e-03 6.933367e-03 7.061218e-03 6.143274e-03 6.744865e-03 5.614322e-03 6.624451e-03 5.317754e-03 6.609813e-03 5.141235e-03 6.502967e-03 5.021154e-03 6.346811e-03 5.095317e-03 6.202770e-03 5.342019e-03 5.992535e-03 5.648298e-03 5.673557e-03 5.973153e-03 5.294659e-03 6.298790e-03 4.929168e-03 6.622415e-03 4.687727e-03 6.935214e-03 4.590831e-03 7.046741e-03 4.511726e-03 6.885630e-03 4.670005e-03 6.698392e-03 5.222796e-03 6.362791e-03 5.865033e-03 5.631180e-03 6.534653e-03 4.693553e-03 7.416287e-03 3.755946e-03 8.533162e-03 2.930130e-03 9.805629e-03 2.800257e-03 1.105995e-02 6.837192e-03 -5.816981e-03 -3.800410e-03 -7.967545e-03 -6.054968e-03 
-5.927935e-03 -7.106602e-03 -4.264886e-03 -6.242998e-03 8.709803e-04 -1.886673e-03 1.749236e-02 1.313978e-02 1.224268e-02 1.448834e-02 9.610791e-03 1.458514e-02 6.723744e-03 1.499997e-02 9.938441e-03 1.616921e-02 1.107341e-02 1.608847e-02 1.143625e-02 1.446609e-02 1.090650e-02 1.030494e-02 1.184421e-02 1.158710e-02 1.268032e-02 1.200620e-02 1.316573e-02 1.215349e-02 1.351077e-02 1.222450e-02 1.371769e-02 1.225123e-02 1.381499e-02 1.231733e-02 1.385617e-02 1.241408e-02 1.381353e-02 1.249543e-02 1.368764e-02 1.254291e-02 1.350688e-02 1.259484e-02 1.335679e-02 1.270010e-02 1.326191e-02 1.282603e-02 1.318404e-02 1.295395e-02 1.314548e-02 1.311649e-02 1.314879e-02 1.325525e-02 1.308268e-02 1.325417e-02 1.294908e-02 1.326765e-02 1.274101e-02 1.117197e-02 1.019750e-02 1.438350e-02 1.157049e-02 1.334654e-02 1.585019e-02 1.317880e-02 1.701005e-02 1.646369e-02 1.706102e-02 1.908250e-02 1.967754e-02 1.951118e-02 2.170722e-02 2.375410e-02 2.140557e-02 2.065365e-02 1.800300e-02 1.743467e-02 1.595367e-02 1.579260e-02 1.495719e-02 1.487382e-02 1.447354e-02 1.430377e-02 1.425003e-02 1.391647e-02 1.416175e-02 1.363067e-02 1.411103e-02 1.339009e-02 1.404140e-02 1.319844e-02 1.397621e-02 1.310071e-02 1.392608e-02 1.308477e-02 1.387009e-02 1.313896e-02 1.382285e-02 1.325433e-02 1.375237e-02 1.339547e-02 1.367771e-02 1.360106e-02 1.362647e-02 1.383758e-02 1.352873e-02 1.401847e-02 1.334071e-02 1.415342e-02 1.314836e-02 1.433522e-02 1.300193e-02 1.450609e-02 1.281284e-02 1.458685e-02 1.261729e-02 1.463434e-02 1.255112e-02 1.467553e-02 1.275363e-02 1.464747e-02 1.359675e-02 1.435127e-02 1.662889e-02 3.571017e-03 -8.626964e-04 -4.403797e-03 -5.051136e-03 -6.664546e-03 
-1.769593e-02 -2.128793e-02 -1.865537e-02 -2.478258e-02 -2.266562e-02 -3.717416e-02 -1.406887e-02 -2.468782e-02 -1.574213e-02 -2.015387e-02 -1.381866e-02 -1.613404e-02 -7.442285e-03 -1.127436e-02 -9.720507e-03 -1.079255e-02 -1.057478e-02 -1.039648e-02 -1.101087e-02 -9.695519e-03 -1.128263e-02 -8.158336e-03 -1.637773e-02 -1.426844e-02 -1.883582e-02 -1.692946e-02 -1.979387e-02 -1.831897e-02 -2.019477e-02 -1.914715e-02 -2.026948e-02 -1.962898e-02 -2.018942e-02 -2.002216e-02 -2.015319e-02 -2.038271e-02 -2.011345e-02 -2.062467e-02 -2.002096e-02 -2.072570e-02 -1.993106e-02 -2.080177e-02 -1.997112e-02 -2.090567e-02 -2.007043e-02 -2.092444e-02 -2.015958e-02 -2.092259e-02 -2.035876e-02 -2.101759e-02 -2.067688e-02 -2.112649e-02 -2.093108e-02 -2.109984e-02 -2.126187e-02 -2.154830e-02 -2.189118e-02 -1.785480e-02 -1.750022e-02 -2.613237e-02 -2.038901e-02 -2.467622e-02 -2.818388e-02 -2.261016e-02 -3.045654e-02 -3.125022e-02 -2.968805e-02 -3.672527e-02 -3.418245e-02 -3.475316e-02 -4.227353e-02 -4.290037e-02 -3.996835e-02 -3.577690e-02 -3.124919e-02 -2.859372e-02 -2.624387e-02 -2.496963e-02 -2.377132e-02 -2.305741e-02 -2.251918e-02 -2.198248e-02 -2.183935e-02 -2.131741e-02 -2.147331e-02 -2.097620e-02 -2.130990e-02 -2.080256e-02 -2.112091e-02 -2.069077e-02 -2.092912e-02 -2.075935e-02 -2.078732e-02 -2.097625e-02 -2.059960e-02 -2.120779e-02 -2.029417e-02 -2.141344e-02 -1.993751e-02 -2.160267e-02 -1.959716e-02 -2.176303e-02 -1.937914e-02 -2.191752e-02 -1.934221e-02 -2.190758e-02 -1.935921e-02 -2.165284e-02 -1.963267e-02 -2.139053e-02 -2.031713e-02 -2.100922e-02 -2.111502e-02 -2.026200e-02 -2.195492e-02 -1.933870e-02 -2.301646e-02 -1.848137e-02 -2.433245e-02 -1.794067e-02 -2.581391e-02 -1.875948e-02 -2.666493e-02 -3.003227e-02 -1.715936e-02 -2.185780e-02 -1.720877e-02 -2.058482e-02 
-1.856286e-02 -2.015827e-02 -2.018043e-02 -2.249886e-02 -2.526947e-02 -3.138803e-02 -3.278347e-02 -3.496392e-02 -3.003435e-02 -3.259337e-02 -2.790782e-02 -2.957582e-02 -2.444972e-02 -2.500720e-02 -2.452829e-02 -2.487348e-02 -2.471824e-02 -2.469742e-02 -2.488139e-02 -2.452130e-02 -2.496656e-02 -2.448886e-02 -2.997947e-02 -2.871740e-02 -3.192625e-02 -3.026807e-02 -3.274761e-02 -3.101082e-02 -3.316213e-02 -3.145035e-02 -3.331123e-02 -3.171219e-02 -3.330978e-02 -3.197409e-02 -3.329871e-02 -3.225184e-02 -3.323983e-02 -3.246675e-02 -3.311226e-02 -3.259380e-02 -3.296689e-02 -3.271886e-02 -3.292936e-02 -3.290575e-02 -3.298491e-02 -3.308241e-02 -3.307547e-02 -3.327528e-02 -3.327553e-02 -3.357045e-02 -3.358041e-02 -3.388190e-02 -3.378721e-02 -3.402080e-02 -3.383441e-02 -3.427273e-02 -3.430340e-02 -3.473131e-02 -3.327554e-02 -3.378120e-02 -3.315387e-02 -3.385652e-02 -3.619570e-02 -3.586025e-02 -3.654441e-02 -3.593691e-02 -3.568019e-02 -3.690569e-02 -3.808741e-02 -3.627061e-02 -3.458578e-02 -3.525727e-02 -3.515063e-02 -3.540739e-02 -3.470545e-02 -3.472664e-02 -3.432343e-02 -3.428655e-02 -3.410026e-02 -3.390377e-02 -3.397872e-02 -3.356877e-02 -3.391567e-02 -3.327664e-02 -3.390464e-02 -3.307680e-02 -3.391617e-02 -3.292444e-02 -3.384362e-02 -3.280719e-02 -3.373617e-02 -3.283264e-02 -3.363727e-02 -3.298357e-02 -3.348957e-02 -3.318649e-02 -3.327184e-02 -3.341313e-02 -3.300120e-02 -3.364181e-02 -3.273539e-02 -3.389188e-02 -3.255712e-02 -3.414632e-02 -3.245591e-02 -3.426233e-02 -3.234897e-02 -3.420440e-02 -3.240142e-02 -3.414993e-02 -3.272346e-02 -3.400304e-02 -3.310226e-02 -3.359493e-02 -3.351985e-02 -3.308203e-02 -3.415065e-02 -3.265312e-02 -3.509352e-02 -3.246374e-02 -3.649554e-02 -3.287690e-02 -3.872154e-02 -3.058543e-02 -2.105541e-02 -2.156445e-02 -1.868163e-02 -1.985595e-02 
-2.447741e-02 -2.607069e-02 -2.522949e-02 -2.707842e-02 -2.704404e-02 -2.896985e-02 -3.317665e-02 -3.450661e-02 -3.209742e-02 -3.506054e-02 -3.268875e-02 -3.530801e-02 -3.465894e-02 -3.526390e-02 -3.473553e-02 -3.511604e-02 -3.496094e-02 -3.491484e-02 -3.516355e-02 -3.471678e-02 -3.527623e-02 -3.466929e-02 -3.503715e-02 -3.374418e-02 -3.474506e-02 -3.332284e-02 -3.462474e-02 -3.315856e-02 -3.456654e-02 -3.314263e-02 -3.451316e-02 -3.320695e-02 -3.444805e-02 -3.333368e-02 -3.437765e-02 -3.349219e-02 -3.429027e-02 -3.364708e-02 -3.418663e-02 -3.378151e-02 -3.408310e-02 -3.390633e-02 -3.401490e-02 -3.403920e-02 -3.399387e-02 -3.417278e-02 -3.400556e-02 -3.430306e-02 -3.404791e-02 -3.444131e-02 -3.410325e-02 -3.456668e-02 -3.410314e-02 -3.461931e-02 -3.388553e-02 -3.437892e-02 -3.363478e-02 -3.738681e-02 -3.704795e-02 -3.260516e-02 -3.603490e-02 -3.404396e-02 -3.130052e-02 -3.567024e-02 -3.095803e-02 -3.150392e-02 -3.279481e-02 -2.885255e-02 -3.005376e-02 -3.093749e-02 -2.628993e-02 -2.624324e-02 -2.728474e-02 -2.988595e-02 -3.183267e-02 -3.345687e-02 -3.402145e-02 -3.469259e-02 -3.474757e-02 -3.496561e-02 -3.494630e-02 -3.489318e-02 -3.497209e-02 -3.472506e-02 -3.495036e-02 -3.455660e-02 -3.490327e-02 -3.441988e-02 -3.482826e-02 -3.433834e-02 -3.473423e-02 -3.433321e-02 -3.462344e-02 -3.439757e-02 -3.448774e-02 -3.451533e-02 -3.433425e-02 -3.466719e-02 -3.416355e-02 -3.482718e-02 -3.400340e-02 -3.499431e-02 -3.388505e-02 -3.513764e-02 -3.380256e-02 -3.521066e-02 -3.376063e-02 -3.520665e-02 -3.379899e-02 -3.514730e-02 -3.393028e-02 -3.500986e-02 -3.410679e-02 -3.477611e-02 -3.430501e-02 -3.449240e-02 -3.451362e-02 -3.421833e-02 -3.466083e-02 -3.396468e-02 -3.456502e-02 -3.351516e-02 -3.410565e-02 -2.907579e-02 -2.700290e-02 -2.672627e-02 -2.500705e-02 -2.588494e-02 
-2.357853e-02 -2.443347e-02 -2.458846e-02 -2.594683e-02 -2.674147e-02 -2.832754e-02 -2.970416e-02 -3.137683e-02 -3.210658e-02 -3.378195e-02 -3.560441e-02 -3.665850e-02 -4.154845e-02 -4.184285e-02 -4.164399e-02 -4.181256e-02 -4.173838e-02 -4.173999e-02 -4.181201e-02 -4.165071e-02 -4.183968e-02 -4.155621e-02 -3.606669e-02 -3.561876e-02 -3.383566e-02 -3.308520e-02 -3.287245e-02 -3.179077e-02 -3.238022e-02 -3.113226e-02 -3.209412e-02 -3.082137e-02 -3.189968e-02 -3.071530e-02 -3.175049e-02 -3.072582e-02 -3.161895e-02 -3.079119e-02 -3.149412e-02 -3.087503e-02 -3.138096e-02 -3.096570e-02 -3.129501e-02 -3.105983e-02 -3.123934e-02 -3.114583e-02 -3.120441e-02 -3.121518e-02 -3.118031e-02 -3.126094e-02 -3.114621e-02 -3.126426e-02 -3.106589e-02 -3.118556e-02 -3.083789e-02 -3.078804e-02 -3.014496e-02 -3.075010e-02 -3.134988e-02 -3.048124e-02 -3.122321e-02 -3.058693e-02 -2.892451e-02 -2.995593e-02 -2.876716e-02 -2.892502e-02 -2.950491e-02 -2.790586e-02 -2.766287e-02 -2.889891e-02 -2.863187e-02 -2.850821e-02 -2.859098e-02 -2.932876e-02 -3.005780e-02 -3.055896e-02 -3.092147e-02 -3.106157e-02 -3.134844e-02 -3.124639e-02 -3.159508e-02 -3.128787e-02 -3.175071e-02 -3.126881e-02 -3.185251e-02 -3.123971e-02 -3.191127e-02 -3.122557e-02 -3.192182e-02 -3.124146e-02 -3.188665e-02 -3.130321e-02 -3.181176e-02 -3.141253e-02 -3.169997e-02 -3.155883e-02 -3.155878e-02 -3.172669e-02 -3.140160e-02 -3.189818e-02 -3.125154e-02 -3.205830e-02 -3.113426e-02 -3.218379e-02 -3.106232e-02 -3.224197e-02 -3.104364e-02 -3.221783e-02 -3.110214e-02 -3.211732e-02 -3.124418e-02 -3.192666e-02 -3.143316e-02 -3.162903e-02 -3.162626e-02 -3.123564e-02 -3.176385e-02 -3.074625e-02 -3.170205e-02 -3.008338e-02 -3.112455e-02 -2.900870e-02 -2.950003e-02 -2.706626e-02 -2.593933e-02 -2.506950e-02 -2.400477e-02 -2.411951e-02 
-2.642674e-02 -2.745754e-02 -2.710602e-02 -2.852215e-02 -2.887026e-02 -3.041263e-02 -3.166810e-02 -3.333579e-02 -3.404345e-02 -3.591786e-02 -3.747326e-02 -3.873405e-02 -4.329204e-02 -4.364803e-02 -4.338613e-02 -4.359138e-02 -4.351377e-02 -4.348409e-02 -4.362923e-02 -4.336971e-02 -4.368532e-02 -4.327501e-02 -3.777872e-02 -3.725146e-02 -3.560846e-02 -3.482635e-02 -3.472405e-02 -3.367814e-02 -3.430161e-02 -3.315259e-02 -3.407380e-02 -3.294808e-02 -3.392609e-02 -3.291427e-02 -3.380879e-02 -3.296986e-02 -3.370317e-02 -3.306855e-02 -3.360397e-02 -3.318034e-02 -3.351103e-02 -3.328838e-02 -3.343069e-02 -3.338847e-02 -3.337147e-02 -3.348100e-02 -3.333609e-02 -3.356559e-02 -3.332281e-02 -3.364606e-02 -3.333557e-02 -3.373952e-02 -3.339481e-02 -3.387490e-02 -3.352034e-02 -3.402633e-02 -3.364311e-02 -3.414092e-02 -3.402617e-02 -3.386179e-02 -3.374951e-02 -3.376646e-02 -3.288032e-02 -3.344854e-02 -3.226561e-02 -3.242940e-02 -3.180956e-02 -3.153301e-02 -3.102330e-02 -3.120990e-02 -3.031815e-02 -3.067623e-02 -3.054154e-02 -3.136092e-02 -3.155176e-02 -3.224427e-02 -3.240246e-02 -3.286744e-02 -3.300649e-02 -3.324538e-02 -3.340874e-02 -3.344273e-02 -3.366479e-02 -3.353134e-02 -3.382335e-02 -3.357200e-02 -3.391591e-02 -3.360519e-02 -3.395567e-02 -3.365090e-02 -3.394543e-02 -3.371805e-02 -3.389019e-02 -3.381238e-02 -3.380096e-02 -3.393411e-02 -3.369006e-02 -3.407377e-02 -3.356812e-02 -3.421564e-02 -3.345018e-02 -3.434511e-02 -3.335344e-02 -3.444415e-02 -3.328967e-02 -3.449352e-02 -3.326859e-02 -3.448165e-02 -3.329882e-02 -3.440431e-02 -3.337794e-02 -3.425694e-02 -3.348373e-02 -3.403381e-02 -3.357347e-02 -3.372642e-02 -3.357536e-02 -3.330133e-02 -3.335856e-02 -3.264375e-02 -3.268721e-02 -3.148724e-02 -3.122706e-02 -2.950817e-02 -2.858838e-02 -2.797722e-02 -2.692153e-02 -2.726518e-02 
-2.358050e-02 -2.443261e-02 -2.458787e-02 -2.594434e-02 -2.673851e-02 -2.832354e-02 -2.969899e-02 -3.137398e-02 -3.210167e-02 -3.378065e-02 -3.559924e-02 -3.665673e-02 -4.154356e-02 -4.184239e-02 -4.164354e-02 -4.181740e-02 -4.174392e-02 -4.175101e-02 -4.182388e-02 -4.166668e-02 -4.185457e-02 -4.157003e-02 -3.608082e-02 -3.562859e-02 -3.384332e-02 -3.308499e-02 -3.286545e-02 -3.176630e-02 -3.234855e-02 -3.108796e-02 -3.205894e-02 -3.078466e-02 -3.187553e-02 -3.068273e-02 -3.172057e-02 -3.068420e-02 -3.157933e-02 -3.074817e-02 -3.145287e-02 -3.083321e-02 -3.132674e-02 -3.090150e-02 -3.119906e-02 -3.094939e-02 -3.109280e-02 -3.099035e-02 -3.101808e-02 -3.101859e-02 -3.095923e-02 -3.101885e-02 -3.089988e-02 -3.099177e-02 -3.084833e-02 -3.096466e-02 -3.082614e-02 -3.094665e-02 -3.082113e-02 -3.092940e-02 -3.088872e-02 -3.084792e-02 -3.072406e-02 -3.069110e-02 -3.029085e-02 -3.041203e-02 -3.001535e-02 -3.008130e-02 -2.986678e-02 -2.984133e-02 -2.964155e-02 -2.986470e-02 -2.970341e-02 -2.990868e-02 -2.987449e-02 -3.012215e-02 -3.024368e-02 -3.041565e-02 -3.062938e-02 -3.065793e-02 -3.097391e-02 -3.082564e-02 -3.125394e-02 -3.091721e-02 -3.146300e-02 -3.096251e-02 -3.161999e-02 -3.100622e-02 -3.174281e-02 -3.107713e-02 -3.182340e-02 -3.116825e-02 -3.183272e-02 -3.126525e-02 -3.176764e-02 -3.138350e-02 -3.165924e-02 -3.154051e-02 -3.153110e-02 -3.172343e-02 -3.138754e-02 -3.190279e-02 -3.124285e-02 -3.206274e-02 -3.112554e-02 -3.218432e-02 -3.105119e-02 -3.223908e-02 -3.103193e-02 -3.221187e-02 -3.108337e-02 -3.209800e-02 -3.121199e-02 -3.190005e-02 -3.140599e-02 -3.161540e-02 -3.161618e-02 -3.123331e-02 -3.176193e-02 -3.074605e-02 -3.170657e-02 -3.008882e-02 -3.114023e-02 -2.902013e-02 -2.951865e-02 -2.707491e-02 -2.595055e-02 -2.507387e-02 -2.401040e-02 -2.412076e-02 
-2.448049e-02 -2.607027e-02 -2.522976e-02 -2.707639e-02 -2.704037e-02 -2.896421e-02 -3.316686e-02 -3.450377e-02 -3.208341e-02 -3.505777e-02 -3.267068e-02 -3.530381e-02 -3.463596e-02 -3.525942e-02 -3.473048e-02 -3.512365e-02 -3.496978e-02 -3.493623e-02 -3.518674e-02 -3.475397e-02 -3.530986e-02 -3.471499e-02 -3.507273e-02 -3.378028e-02 -3.476769e-02 -3.333790e-02 -3.462148e-02 -3.312663e-02 -3.451539e-02 -3.306894e-02 -3.445427e-02 -3.314615e-02 -3.440934e-02 -3.327860e-02 -3.432951e-02 -3.342485e-02 -3.423566e-02 -3.359225e-02 -3.414698e-02 -3.375079e-02 -3.404323e-02 -3.386051e-02 -3.392109e-02 -3.393021e-02 -3.382220e-02 -3.399646e-02 -3.377111e-02 -3.405719e-02 -3.374389e-02 -3.408603e-02 -3.371363e-02 -3.408196e-02 -3.369642e-02 -3.409113e-02 -3.373012e-02 -3.413157e-02 -3.378391e-02 -3.414377e-02 -3.378060e-02 -3.408554e-02 -3.364812e-02 -3.393357e-02 -3.338081e-02 -3.369623e-02 -3.309690e-02 -3.341473e-02 -3.283096e-02 -3.314369e-02 -3.256973e-02 -3.296273e-02 -3.241913e-02 -3.288263e-02 -3.247119e-02 -3.296372e-02 -3.270545e-02 -3.313694e-02 -3.302279e-02 -3.332808e-02 -3.336121e-02 -3.349882e-02 -3.367130e-02 -3.361633e-02 -3.392037e-02 -3.369463e-02 -3.412230e-02 -3.377848e-02 -3.430076e-02 -3.390138e-02 -3.444393e-02 -3.403841e-02 -3.449697e-02 -3.415479e-02 -3.445241e-02 -3.427815e-02 -3.435924e-02 -3.444186e-02 -3.424714e-02 -3.463273e-02 -3.411211e-02 -3.481529e-02 -3.396569e-02 -3.497946e-02 -3.384105e-02 -3.511086e-02 -3.375475e-02 -3.518204e-02 -3.371765e-02 -3.517766e-02 -3.374718e-02 -3.509727e-02 -3.385954e-02 -3.495531e-02 -3.405647e-02 -3.475562e-02 -3.429352e-02 -3.449590e-02 -3.451824e-02 -3.422668e-02 -3.467938e-02 -3.398333e-02 -3.460095e-02 -3.353684e-02 -3.413798e-02 -2.908736e-02 -2.701859e-02 -2.673102e-02 -2.501450e-02 -2.588624e-02 
-1.856429e-02 -2.015391e-02 -2.017792e-02 -2.249043e-02 -2.526026e-02 -3.136972e-02 -3.275976e-02 -3.495312e-02 -3.002690e-02 -3.260040e-02 -2.789500e-02 -2.956517e-02 -2.441507e-02 -2.500103e-02 -2.452225e-02 -2.488514e-02 -2.473326e-02 -2.473447e-02 -2.492849e-02 -2.459487e-02 -2.503905e-02 -2.456932e-02 -3.003423e-02 -2.876252e-02 -3.197887e-02 -3.032054e-02 -3.276478e-02 -3.091876e-02 -3.298308e-02 -3.121252e-02 -3.315110e-02 -3.162656e-02 -3.331229e-02 -3.194598e-02 -3.323400e-02 -3.211450e-02 -3.309357e-02 -3.234252e-02 -3.303456e-02 -3.257418e-02 -3.291339e-02 -3.262540e-02 -3.266318e-02 -3.256497e-02 -3.248054e-02 -3.257973e-02 -3.244721e-02 -3.262998e-02 -3.244400e-02 -3.258999e-02 -3.233962e-02 -3.238901e-02 -3.214276e-02 -3.216809e-02 -3.202044e-02 -3.204283e-02 -3.194345e-02 -3.192661e-02 -3.184483e-02 -3.186936e-02 -3.175258e-02 -3.178249e-02 -3.162192e-02 -3.172106e-02 -3.158495e-02 -3.181600e-02 -3.164491e-02 -3.192150e-02 -3.167509e-02 -3.199088e-02 -3.175389e-02 -3.211564e-02 -3.193649e-02 -3.226382e-02 -3.216187e-02 -3.233759e-02 -3.235819e-02 -3.236980e-02 -3.261243e-02 -3.242743e-02 -3.286868e-02 -3.240004e-02 -3.302808e-02 -3.232462e-02 -3.316961e-02 -3.233315e-02 -3.339266e-02 -3.252084e-02 -3.365703e-02 -3.274507e-02 -3.371831e-02 -3.281653e-02 -3.353112e-02 -3.287483e-02 -3.332319e-02 -3.309812e-02 -3.318405e-02 -3.342097e-02 -3.299103e-02 -3.367778e-02 -3.273201e-02 -3.391802e-02 -3.255111e-02 -3.415178e-02 -3.242692e-02 -3.425769e-02 -3.234957e-02 -3.423343e-02 -3.237995e-02 -3.407326e-02 -3.255808e-02 -3.384215e-02 -3.296990e-02 -3.355573e-02 -3.351863e-02 -3.310580e-02 -3.414372e-02 -3.263097e-02 -3.507641e-02 -3.246982e-02 -3.656554e-02 -3.294651e-02 -3.881530e-02 -3.061508e-02 -2.108043e-02 -2.157186e-02 -1.869010e-02 -1.985533e-02 
-1.769622e-02 -2.128687e-02 -1.866005e-02 -2.478604e-02 -2.267679e-02 -3.718251e-02 -1.408399e-02 -2.471492e-02 -1.581324e-02 -2.022765e-02 -1.389581e-02 -1.618334e-02 -7.484529e-03 -1.132088e-02 -9.758330e-03 -1.081491e-02 -1.058736e-02 -1.040975e-02 -1.102983e-02 -9.727632e-03 -1.128749e-02 -8.162189e-03 -1.634732e-02 -1.424455e-02 -1.884061e-02 -1.698318e-02 -1.980435e-02 -1.826074e-02 -2.000750e-02 -1.899618e-02 -2.018576e-02 -1.978963e-02 -2.040262e-02 -2.035089e-02 -2.032111e-02 -2.060210e-02 -2.016711e-02 -2.085205e-02 -2.015112e-02 -2.106954e-02 -2.008312e-02 -2.102907e-02 -1.987049e-02 -2.084769e-02 -1.977839e-02 -2.078780e-02 -1.990101e-02 -2.080233e-02 -2.008429e-02 -2.074428e-02 -2.015144e-02 -2.049814e-02 -2.006130e-02 -2.019073e-02 -1.998076e-02 -1.994780e-02 -1.987801e-02 -1.969706e-02 -1.974048e-02 -1.946380e-02 -1.949281e-02 -1.925451e-02 -1.913501e-02 -1.907254e-02 -1.886713e-02 -1.898126e-02 -1.871197e-02 -1.891141e-02 -1.853887e-02 -1.881452e-02 -1.841798e-02 -1.883582e-02 -1.856349e-02 -1.911223e-02 -1.889257e-02 -1.937659e-02 -1.919534e-02 -1.959426e-02 -1.955896e-02 -1.981875e-02 -1.989112e-02 -1.989319e-02 -2.007106e-02 -1.987266e-02 -2.021436e-02 -1.992930e-02 -2.044705e-02 -2.017496e-02 -2.071476e-02 -2.043443e-02 -2.072111e-02 -2.047778e-02 -2.041816e-02 -2.050164e-02 -2.012578e-02 -2.076005e-02 -1.997598e-02 -2.116220e-02 -1.979277e-02 -2.146584e-02 -1.955100e-02 -2.173418e-02 -1.945329e-02 -2.197328e-02 -1.944719e-02 -2.198858e-02 -1.951289e-02 -2.178711e-02 -1.973892e-02 -2.135557e-02 -2.016327e-02 -2.078399e-02 -2.090825e-02 -2.012119e-02 -2.184732e-02 -1.923388e-02 -2.285444e-02 -1.828747e-02 -2.412986e-02 -1.779178e-02 -2.575864e-02 -1.876015e-02 -2.671250e-02 -3.003097e-02 -1.715845e-02 -2.185159e-02 -1.720701e-02 -2.058038e-02 
-5.917436e-03 -7.101066e-03 -4.271734e-03 -6.252211e-03 8.419395e-04 -1.917608e-03 1.743265e-02 1.310554e-02 1.216347e-02 1.445152e-02 9.522521e-03 1.455315e-02 6.640838e-03 1.500325e-02 9.901763e-03 1.621164e-02 1.107943e-02 1.617017e-02 1.148718e-02 1.459012e-02 1.099821e-02 1.044461e-02 1.194857e-02 1.168475e-02 1.276276e-02 1.204817e-02 1.319693e-02 1.205140e-02 1.339756e-02 1.195770e-02 1.355400e-02 1.196461e-02 1.367689e-02 1.198849e-02 1.367132e-02 1.202400e-02 1.363559e-02 1.216887e-02 1.362626e-02 1.237129e-02 1.357001e-02 1.252924e-02 1.343576e-02 1.265805e-02 1.331748e-02 1.283597e-02 1.326557e-02 1.303515e-02 1.322187e-02 1.317587e-02 1.312354e-02 1.322509e-02 1.300112e-02 1.327319e-02 1.295878e-02 1.337124e-02 1.295744e-02 1.342828e-02 1.291818e-02 1.351236e-02 1.292720e-02 1.348611e-02 1.291512e-02 1.340894e-02 1.291349e-02 1.343293e-02 1.292731e-02 1.339144e-02 1.289643e-02 1.328184e-02 1.291751e-02 1.324059e-02 1.293534e-02 1.312603e-02 1.295050e-02 1.298976e-02 1.298479e-02 1.288178e-02 1.308866e-02 1.284671e-02 1.323679e-02 1.281952e-02 1.336199e-02 1.279675e-02 1.348832e-02 1.283056e-02 1.366725e-02 1.297117e-02 1.388610e-02 1.313799e-02 1.401154e-02 1.322119e-02 1.401278e-02 1.327807e-02 1.398400e-02 1.338107e-02 1.395212e-02 1.350394e-02 1.385952e-02 1.359095e-02 1.370269e-02 1.368504e-02 1.354168e-02 1.381273e-02 1.337549e-02 1.395052e-02 1.319737e-02 1.410163e-02 1.302566e-02 1.426859e-02 1.288310e-02 1.447391e-02 1.280585e-02 1.468843e-02 1.274906e-02 1.481194e-02 1.272312e-02 1.485220e-02 1.293889e-02 1.482671e-02 1.379327e-02 1.450404e-02 1.677247e-02 3.654399e-03 -7.971207e-04 -4.361384e-03 -5.019714e-03 -6.643999e-03 
-8.111383e-03 -5.626857e-03 -6.387135e-03 -2.125913e-03 -2.738259e-04 1.058911e-02 4.535968e-04 7.410676e-03 -7.018780e-05 4.128853e-03 -2.473921e-03 -8.630965e-04 -9.675000e-03 -1.110567e-02 -1.564750e-02 -1.505763e-02 -1.712322e-02 -1.676408e-02 -1.545699e-02 -1.578912e-02 -1.107533e-02 -8.987725e-03 -1.079133e-03 -2.048551e-03 3.094308e-03 8.248673e-04 4.796272e-03 2.000409e-03 5.298822e-03 2.593875e-03 5.581795e-03 3.288957e-03 5.812200e-03 3.815126e-03 5.699810e-03 4.101480e-03 5.503389e-03 4.451143e-03 5.436961e-03 4.802265e-03 5.304027e-03 4.903365e-03 5.009133e-03 4.853564e-03 4.819650e-03 4.905119e-03 4.829372e-03 4.989517e-03 4.858423e-03 4.920848e-03 4.697859e-03 4.562274e-03 4.308106e-03 4.064722e-03 3.899797e-03 3.603466e-03 3.510758e-03 3.200729e-03 3.298739e-03 2.722106e-03 2.925152e-03 2.633414e-03 2.563362e-03 2.733849e-03 2.459784e-03 2.644294e-03 2.543039e-03 2.662414e-03 2.612044e-03 2.735752e-03 2.567686e-03 2.756141e-03 3.086586e-03 3.438490e-03 3.963178e-03 4.065772e-03 4.619159e-03 4.424468e-03 5.151654e-03 4.654143e-03 5.561766e-03 4.676351e-03 5.776041e-03 4.589716e-03 5.935796e-03 4.597494e-03 6.187746e-03 4.835864e-03 6.482110e-03 5.121788e-03 6.499096e-03 5.206164e-03 6.180915e-03 5.282144e-03 5.845755e-03 5.595636e-03 5.620182e-03 6.048441e-03 5.330979e-03 6.399382e-03 4.964148e-03 6.717222e-03 4.733935e-03 7.014297e-03 4.605241e-03 7.105274e-03 4.564159e-03 6.991828e-03 4.698963e-03 6.660146e-03 5.049213e-03 6.193303e-03 5.721480e-03 5.613142e-03 6.560145e-03 4.752451e-03 7.424388e-03 3.740490e-03 8.513497e-03 2.948246e-03 9.908371e-03 2.920411e-03 1.121086e-02 6.909741e-03 -5.759173e-03 -3.763750e-03 -7.938747e-03 -6.037499e-03 
-3.495377e-03 2.377053e-04 -2.528334e-03 3.230917e-03 -4.169419e-04 1.014952e-02 -6.555185e-03 1.756669e-03 -1.622865e-03 4.632750e-04 2.383523e-03 2.078336e-04 7.736627e-03 3.884399e-04 4.686775e-03 -9.551432e-04 3.826620e-03 -1.126376e-03 3.700447e-03 2.316196e-04 4.337169e-03 4.254042e-03 2.611927e-03 1.258251e-03 1.504439e-03 -1.056646e-04 8.758958e-04 -8.439647e-04 3.750143e-04 -1.156476e-03 8.235756e-05 -1.087157e-03 -8.019609e-05 -9.149983e-04 -3.024534e-04 -7.742965e-04 -5.222197e-04 -6.017299e-04 -6.602651e-04 -4.422794e-04 -7.942107e-04 -4.059474e-04 -9.590016e-04 -4.517713e-04 -1.049209e-03 -4.814480e-04 -1.042411e-03 -5.270054e-04 -1.029174e-03 -6.713050e-04 -1.125770e-03 -9.922417e-04 -1.389472e-03 -1.450175e-03 -1.760776e-03 -2.004839e-03 -2.284730e-03 -2.575762e-03 -2.346612e-03 -3.005457e-03 -2.858045e-03 -3.180697e-03 -3.536396e-03 -3.413784e-03 -3.886920e-03 -3.666699e-03 -4.087800e-03 -3.938971e-03 -4.386111e-03 -4.214240e-03 -4.190337e-03 -4.084575e-03 -3.904347e-03 -3.384204e-03 -2.859809e-03 -2.449506e-03 -1.983791e-03 -1.816556e-03 -1.327129e-03 -1.416593e-03 -8.474363e-04 -1.219717e-03 -5.337195e-04 -1.135580e-03 -3.070134e-04 -1.042014e-03 -1.037814e-04 -8.688882e-04 4.363787e-05 -6.756949e-04 1.270528e-05 -5.417904e-04 -2.100872e-04 -3.803083e-04 -4.805562e-04 -8.898352e-05 -7.261462e-04 2.800187e-04 -9.969063e-04 6.027029e-04 -1.275595e-03 8.771684e-04 -1.443346e-03 1.077733e-03 -1.493498e-03 1.086628e-03 -1.414626e-03 8.845221e-04 -1.145004e-03 4.630837e-04 -6.635651e-04 -1.455187e-04 4.676478e-05 -9.158244e-04 8.788327e-04 -1.861756e-03 1.687419e-03 -2.858624e-03 2.350552e-03 -3.658748e-03 2.404936e-03 -3.945586e-03 3.586347e-05 2.613360e-03 -3.709927e-03 -4.263806e-04 -3.828292e-03 -8.224120e-04 
