# vtk DataFile Version 2.0
Comment goes here
ASCII

DATASET STRUCTURED_POINTS
FIELD FieldData 1
TIME 1 1 double
0.01100000
DIMENSIONS    230   46   1

ORIGIN    0.000   0.000   0.000
SPACING   0.013043 0.013043   1.000

POINT_DATA   10580
SCALARS Omega double
LOOKUP_TABLE default

5.223567e+01 1.906739e+02 3.500309e+02 5.297636e+02 7.281682e+02 9.423930e+02 1.168248e+03 1.400547e+03 1.633130e+03 1.859556e+03 2.073292e+03 2.268413e+03 2.439702e+03 2.582818e+03 2.694171e+03 2.770435e+03 2.808490e+03 2.804921e+03 2.756431e+03 2.660160e+03 2.514353e+03 2.319702e+03 2.079342e+03 1.800653e+03 1.493694e+03 1.172685e+03 8.530275e+02 5.519655e+02 2.853671e+02 6.756538e+01 -9.066809e+01 -1.826944e+02 -2.060971e+02 -1.632052e+02 -5.960946e+01 9.559339e+01 2.918070e+02 5.168534e+02 7.584085e+02 1.003768e+03 1.240155e+03 1.454375e+03 1.632410e+03 1.759706e+03 1.821123e+03 1.802558e+03 1.691824e+03 1.481150e+03 1.168227e+03 7.579411e+02 2.622074e+02 -3.003241e+02 -9.059868e+02 -1.527996e+03 -2.138842e+03 -2.712518e+03 -3.226746e+03 -3.664456e+03 -4.015174e+03 -4.274751e+03 -4.445319e+03 -4.533139e+03 -4.547547e+03 -4.498430e+03 -4.395430e+03 -4.246753e+03 -4.059170e+03 -3.838409e+03 -3.589407e+03 -3.317352e+03 -3.027503e+03 -2.725955e+03 -2.418940e+03 -2.113066e+03 -1.814492e+03 -1.528893e+03 -1.260899e+03 -1.014064e+03 -7.907049e+02 -5.919807e+02 -4.180135e+02 -2.680603e+02 -1.407347e+02 -3.419520e+01 5.365845e+01 1.250332e+02 1.821253e+02 2.270201e+02 2.616522e+02 2.877496e+02 3.068461e+02 3.202542e+02 3.291042e+02 3.343320e+02 3.367257e+02 3.369200e+02 3.354402e+02 3.326987e+02 3.290313e+02 3.246950e+02 3.198958e+02 3.147863e+02 3.094867e+02 3.040822e+02 2.986384e+02 2.931985e+02 2.877942e+02 2.824437e+02 2.771591e+02 2.719441e+02 2.668000e+02 2.617231e+02 2.567092e+02 2.517515e+02 2.468433e+02 2.419772e+02 2.371463e+02 2.323433e+02 2.275623e+02 2.227969e+02 2.180423e+02 2.132934e+02 2.085465e+02 2.037980e+02 1.990452e+02 1.942855e+02 1.895175e+02 1.847393e+02 1.799503e+02 1.751496e+02 1.703369e+02 1.655118e+02 1.606747e+02 1.558256e+02 1.509649e+02 1.460929e+02 1.412102e+02 1.363171e+02 1.314143e+02 1.265020e+02 1.215809e+02 1.166511e+02 1.117130e+02 1.067665e+02 1.018120e+02 9.684906e+01 9.187782e+01 8.689759e+01 8.190819e+01 7.690867e+01 7.189853e+01 6.687652e+01 6.184184e+01 5.679289e+01 5.172857e+01 4.664699e+01 4.154671e+01 3.642554e+01 3.128174e+01 2.611282e+01 2.091675e+01 1.569075e+01 1.043252e+01 5.139001e+00 -1.923578e-01 -5.564896e+00 -1.098139e+01 -1.644545e+01 -2.196008e+01 -2.752912e+01 -3.315582e+01 -3.884427e+01 -4.459794e+01 -5.042116e+01 -5.631766e+01 -6.229204e+01 -6.834828e+01 -7.449128e+01 -8.072532e+01 -8.705565e+01 -9.348689e+01 -1.000247e+02 -1.066742e+02 -1.134414e+02 -1.203320e+02 -1.273528e+02 -1.345098e+02 -1.418106e+02 -1.492621e+02 -1.568727e+02 -1.646501e+02 -1.726037e+02 -1.807421e+02 -1.890759e+02 -1.976146e+02 -2.063697e+02 -2.153516e+02 -2.245725e+02 -2.340432e+02 -2.437759e+02 -2.537806e+02 -2.640684e+02 -2.746465e+02 -2.855222e+02 -2.966964e+02 -3.081681e+02 -3.199262e+02 -3.319537e+02 -3.442179e+02 -3.566738e+02 -3.692519e+02 -3.818604e+02 -3.943698e+02 -4.066136e+02 -4.183687e+02 -4.293533e+02 -4.392038e+02 -4.474685e+02 -4.535825e+02 -4.568566e+02 -4.564532e+02 -4.513736e+02 -4.404404e+02 -4.222896e+02 -3.953734e+02 -3.579681e+02 -3.082168e+02 -2.441732e+02 -1.639082e+02 -6.560769e+01 
-4.106364e+00 1.351023e+02 2.970411e+02 4.812999e+02 6.861905e+02 9.085749e+02 1.143766e+03 1.385677e+03 1.627063e+03 1.860110e+03 2.076965e+03 2.270474e+03 2.434611e+03 2.564719e+03 2.657523e+03 2.710595e+03 2.722226e+03 2.690734e+03 2.614737e+03 2.493177e+03 2.325926e+03 2.114857e+03 1.863870e+03 1.580609e+03 1.274972e+03 9.606752e+02 6.524078e+02 3.665156e+02 1.180450e+02 -7.966660e+01 -2.166873e+02 -2.874635e+02 -2.906795e+02 -2.299663e+02 -1.123554e+02 5.172634e+01 2.504160e+02 4.708538e+02 7.005145e+02 9.274129e+02 1.140217e+03 1.328027e+03 1.479674e+03 1.583807e+03 1.628516e+03 1.602533e+03 1.495851e+03 1.301772e+03 1.017934e+03 6.478505e+02 2.010941e+02 -3.068476e+02 -8.557692e+02 -1.422448e+03 -1.982672e+03 -2.513357e+03 -2.994617e+03 -3.410953e+03 -3.752708e+03 -4.015303e+03 -4.199642e+03 -4.309594e+03 -4.351729e+03 -4.332706e+03 -4.259224e+03 -4.136922e+03 -3.970725e+03 -3.765332e+03 -3.525404e+03 -3.256605e+03 -2.965142e+03 -2.658433e+03 -2.344116e+03 -2.030172e+03 -1.723926e+03 -1.431949e+03 -1.159461e+03 -9.103128e+02 -6.868648e+02 -4.901252e+02 -3.199300e+02 -1.751784e+02 -5.409660e+01 4.552635e+01 1.261277e+02 1.901927e+02 2.401431e+02 2.782275e+02 3.064955e+02 3.267426e+02 3.405364e+02 3.491942e+02 3.538318e+02 3.553564e+02 3.545192e+02 3.519133e+02 3.480205e+02 3.432109e+02 3.377791e+02 3.319441e+02 3.258770e+02 3.196991e+02 3.135023e+02 3.073473e+02 3.012777e+02 2.953180e+02 2.894836e+02 2.837786e+02 2.782029e+02 2.727501e+02 2.674125e+02 2.621791e+02 2.570394e+02 2.519812e+02 2.469935e+02 2.420649e+02 2.371856e+02 2.323457e+02 2.275369e+02 2.227512e+02 2.179821e+02 2.132236e+02 2.084708e+02 2.037192e+02 1.989655e+02 1.942067e+02 1.894408e+02 1.846656e+02 1.798801e+02 1.750833e+02 1.702748e+02 1.654540e+02 1.606212e+02 1.557762e+02 1.509195e+02 1.460513e+02 1.411723e+02 1.362826e+02 1.313830e+02 1.264736e+02 1.215552e+02 1.166279e+02 1.116920e+02 1.067476e+02 1.017950e+02 9.683384e+01 9.186415e+01 8.688533e+01 8.189720e+01 7.689882e+01 7.188971e+01 6.686862e+01 6.183476e+01 5.678655e+01 5.172289e+01 4.664189e+01 4.154213e+01 3.642141e+01 3.127802e+01 2.610944e+01 2.091368e+01 1.568792e+01 1.042990e+01 5.136543e+00 -1.947021e-01 -5.567174e+00 -1.098366e+01 -1.644776e+01 -2.196249e+01 -2.753172e+01 -3.315869e+01 -3.884751e+01 -4.460167e+01 -5.042553e+01 -5.632283e+01 -6.229823e+01 -6.835573e+01 -7.450031e+01 -8.073629e+01 -8.706901e+01 -9.350320e+01 -1.000446e+02 -1.066985e+02 -1.134711e+02 -1.203682e+02 -1.273969e+02 -1.345636e+02 -1.418762e+02 -1.493419e+02 -1.569698e+02 -1.647682e+02 -1.727471e+02 -1.809163e+02 -1.892872e+02 -1.978707e+02 -2.066799e+02 -2.157270e+02 -2.250265e+02 -2.345917e+02 -2.444381e+02 -2.545795e+02 -2.650311e+02 -2.758057e+02 -2.869164e+02 -2.983716e+02 -3.101785e+02 -3.223358e+02 -3.348377e+02 -3.476646e+02 -3.607861e+02 -3.741496e+02 -3.876816e+02 -4.012737e+02 -4.147808e+02 -4.280046e+02 -4.406861e+02 -4.524877e+02 -4.629782e+02 -4.716138e+02 -4.777157e+02 -4.804523e+02 -4.788111e+02 -4.715889e+02 -4.573639e+02 -4.345069e+02 -4.011679e+02 -3.553283e+02 -2.948279e+02 -2.174821e+02 -1.211843e+02 
-6.843429e+01 7.092993e+01 2.352530e+02 4.244310e+02 6.369864e+02 8.696361e+02 1.117315e+03 1.373025e+03 1.628333e+03 1.873814e+03 2.099933e+03 2.297952e+03 2.460569e+03 2.582567e+03 2.660578e+03 2.693002e+03 2.679184e+03 2.619140e+03 2.513061e+03 2.361670e+03 2.166294e+03 1.930070e+03 1.657820e+03 1.357768e+03 1.040169e+03 7.188881e+02 4.087678e+02 1.262746e+02 -1.134068e+02 -2.969022e+02 -4.146729e+02 -4.618420e+02 -4.386801e+02 -3.505461e+02 -2.070390e+02 -2.077607e+01 1.940137e+02 4.230307e+02 6.529499e+02 8.721462e+02 1.070660e+03 1.239818e+03 1.371385e+03 1.457104e+03 1.488208e+03 1.456006e+03 1.352493e+03 1.171918e+03 9.119026e+02 5.748419e+02 1.682872e+02 -2.949222e+02 -7.976737e+02 -1.319790e+03 -1.840072e+03 -2.337903e+03 -2.795479e+03 -3.198483e+03 -3.537726e+03 -3.807987e+03 -4.008670e+03 -4.141327e+03 -4.209635e+03 -4.217363e+03 -4.168308e+03 -4.066038e+03 -3.913843e+03 -3.715918e+03 -3.476987e+03 -3.203649e+03 -2.903431e+03 -2.585375e+03 -2.258777e+03 -1.933065e+03 -1.616772e+03 -1.317236e+03 -1.040137e+03 -7.893927e+02 -5.672007e+02 -3.741973e+02 -2.097405e+02 -7.221815e+01 4.066039e+01 1.315506e+02 2.032895e+02 2.586553e+02 3.003093e+02 3.306435e+02 3.518111e+02 3.656431e+02 3.737208e+02 3.773348e+02 3.775673e+02 3.752719e+02 3.711478e+02 3.657291e+02 3.594442e+02 3.526089e+02 3.454708e+02 3.382041e+02 3.309410e+02 3.237679e+02 3.167466e+02 3.099112e+02 3.032827e+02 2.968659e+02 2.906596e+02 2.846537e+02 2.788360e+02 2.731899e+02 2.676992e+02 2.623458e+02 2.571129e+02 2.519836e+02 2.469425e+02 2.419749e+02 2.370679e+02 2.322095e+02 2.273893e+02 2.225978e+02 2.178272e+02 2.130704e+02 2.083216e+02 2.035759e+02 1.988292e+02 1.940781e+02 1.893203e+02 1.845534e+02 1.797763e+02 1.749876e+02 1.701869e+02 1.653736e+02 1.605479e+02 1.557096e+02 1.508591e+02 1.459967e+02 1.411230e+02 1.362382e+02 1.313431e+02 1.264379e+02 1.215233e+02 1.165993e+02 1.116666e+02 1.067250e+02 1.017749e+02 9.681601e+01 9.184838e+01 8.687142e+01 8.188496e+01 7.688808e+01 7.188033e+01 6.686045e+01 6.182767e+01 5.678044e+01 5.171766e+01 4.663745e+01 4.153841e+01 3.641834e+01 3.127553e+01 2.610748e+01 2.091219e+01 1.568688e+01 1.042926e+01 5.136255e+00 -1.946628e-01 -5.566839e+00 -1.098306e+01 -1.644693e+01 -2.196147e+01 -2.753053e+01 -3.315739e+01 -3.884614e+01 -4.460030e+01 -5.042424e+01 -5.632173e+01 -6.229742e+01 -6.835538e+01 -7.450059e+01 -8.073745e+01 -8.707134e+01 -9.350707e+01 -1.000505e+02 -1.067069e+02 -1.134828e+02 -1.203841e+02 -1.274180e+02 -1.345912e+02 -1.419120e+02 -1.493880e+02 -1.570285e+02 -1.648426e+02 -1.728409e+02 -1.810339e+02 -1.894342e+02 -1.980538e+02 -2.069072e+02 -2.160084e+02 -2.253740e+02 -2.350198e+02 -2.449644e+02 -2.552251e+02 -2.658216e+02 -2.767718e+02 -2.880948e+02 -2.998067e+02 -3.119226e+02 -3.244521e+02 -3.374005e+02 -3.507627e+02 -3.645231e+02 -3.786486e+02 -3.930849e+02 -4.077487e+02 -4.225184e+02 -4.372263e+02 -4.516405e+02 -4.654577e+02 -4.782734e+02 -4.895774e+02 -4.987088e+02 -5.048587e+02 -5.070087e+02 -5.039488e+02 -4.942039e+02 -4.760793e+02 -4.475918e+02 -4.065612e+02 -3.505818e+02 -2.771784e+02 -1.838766e+02 
-1.413052e+02 -2.725099e+00 1.634383e+02 3.576158e+02 5.787678e+02 8.237031e+02 1.087124e+03 1.361183e+03 1.636138e+03 1.900660e+03 2.143107e+03 2.352587e+03 2.520074e+03 2.639268e+03 2.706552e+03 2.720808e+03 2.682468e+03 2.592897e+03 2.453857e+03 2.267514e+03 2.036681e+03 1.765693e+03 1.460480e+03 1.130221e+03 7.859497e+02 4.425266e+02 1.158297e+02 -1.763240e+02 -4.172969e+02 -5.926530e+02 -6.923239e+02 -7.121610e+02 -6.542302e+02 -5.267632e+02 -3.429665e+02 -1.190852e+02 1.271495e+02 3.789657e+02 6.215662e+02 8.433991e+02 1.035839e+03 1.192717e+03 1.308955e+03 1.379660e+03 1.399199e+03 1.361406e+03 1.260042e+03 1.090164e+03 8.492911e+02 5.387938e+02 1.644491e+02 -2.632654e+02 -7.298936e+02 -1.218037e+03 -1.709056e+03 -2.184573e+03 -2.628449e+03 -3.027220e+03 -3.371804e+03 -3.655836e+03 -3.876999e+03 -4.034028e+03 -4.127794e+03 -4.158985e+03 -4.128951e+03 -4.039412e+03 -3.892653e+03 -3.692833e+03 -3.445364e+03 -3.158328e+03 -2.841065e+03 -2.504662e+03 -2.160298e+03 -1.818984e+03 -1.490382e+03 -1.182472e+03 -9.011227e+02 -6.500632e+02 -4.310282e+02 -2.440280e+02 -8.771775e+01 4.020321e+01 1.426619e+02 2.228457e+02 2.840228e+02 3.292844e+02 3.615109e+02 3.832219e+02 3.966337e+02 4.035848e+02 4.056299e+02 4.040071e+02 3.997324e+02 3.935868e+02 3.861948e+02 3.780191e+02 3.694201e+02 3.606527e+02 3.519085e+02 3.433133e+02 3.349561e+02 3.268865e+02 3.191340e+02 3.117057e+02 3.045990e+02 2.977993e+02 2.912886e+02 2.850429e+02 2.790382e+02 2.732484e+02 2.676489e+02 2.622148e+02 2.569239e+02 2.517545e+02 2.466876e+02 2.417053e+02 2.367923e+02 2.319343e+02 2.271194e+02 2.223369e+02 2.175777e+02 2.128339e+02 2.080992e+02 2.033680e+02 1.986360e+02 1.938995e+02 1.891557e+02 1.844024e+02 1.796381e+02 1.748615e+02 1.700721e+02 1.652694e+02 1.604535e+02 1.556242e+02 1.507820e+02 1.459272e+02 1.410604e+02 1.361819e+02 1.312926e+02 1.263926e+02 1.214827e+02 1.165630e+02 1.116341e+02 1.066960e+02 1.017490e+02 9.679288e+01 9.182777e+01 8.685307e+01 8.186864e+01 7.687358e+01 7.186746e+01 6.684905e+01 6.181760e+01 5.677156e+01 5.170986e+01 4.663062e+01 4.153246e+01 3.641320e+01 3.127113e+01 2.610376e+01 2.090911e+01 1.568438e+01 1.042732e+01 5.134846e+00 -1.955622e-01 -5.567245e+00 -1.098299e+01 -1.644638e+01 -2.196045e+01 -2.752906e+01 -3.315545e+01 -3.884376e+01 -4.459747e+01 -5.042098e+01 -5.631806e+01 -6.229338e+01 -6.835101e+01 -7.449597e+01 -8.073269e+01 -8.706658e+01 -9.350249e+01 -1.000464e+02 -1.067036e+02 -1.134807e+02 -1.203837e+02 -1.274201e+02 -1.345968e+02 -1.419222e+02 -1.494043e+02 -1.570527e+02 -1.648771e+02 -1.728886e+02 -1.810985e+02 -1.895201e+02 -1.981667e+02 -2.070539e+02 -2.161974e+02 -2.256157e+02 -2.353272e+02 -2.453529e+02 -2.557141e+02 -2.664342e+02 -2.775365e+02 -2.890460e+02 -3.009860e+02 -3.133803e+02 -3.262490e+02 -3.396090e+02 -3.534700e+02 -3.678329e+02 -3.826843e+02 -3.979919e+02 -4.136987e+02 -4.297113e+02 -4.458954e+02 -4.620533e+02 -4.779209e+02 -4.931314e+02 -5.072156e+02 -5.195466e+02 -5.293479e+02 -5.356166e+02 -5.371465e+02 -5.324325e+02 -5.197215e+02 -4.969146e+02 -4.616622e+02 -4.113061e+02 -3.430387e+02 -2.539583e+02 
-2.234053e+02 -8.698914e+01 7.999382e+01 2.787766e+02 5.090803e+02 7.681028e+02 1.050596e+03 1.347961e+03 1.649084e+03 1.940382e+03 2.207520e+03 2.436776e+03 2.616624e+03 2.739263e+03 2.800366e+03 2.799356e+03 2.737454e+03 2.617402e+03 2.442027e+03 2.214791e+03 1.939655e+03 1.622232e+03 1.269764e+03 8.928960e+02 5.040938e+02 1.202220e+02 -2.405480e+02 -5.573547e+02 -8.104467e+02 -9.826933e+02 -1.062899e+03 -1.047549e+03 -9.417587e+02 -7.579103e+02 -5.148397e+02 -2.339399e+02 6.187459e+01 3.522530e+02 6.201750e+02 8.539439e+02 1.046606e+03 1.195066e+03 1.298155e+03 1.354861e+03 1.362969e+03 1.318763e+03 1.217553e+03 1.054930e+03 8.281443e+02 5.375731e+02 1.873446e+02 -2.140923e+02 -6.547059e+02 -1.119492e+03 -1.592186e+03 -2.056320e+03 -2.497195e+03 -2.901813e+03 -3.260725e+03 -3.565858e+03 -3.812437e+03 -3.995978e+03 -4.114093e+03 -4.164685e+03 -4.146787e+03 -4.061099e+03 -3.909361e+03 -3.696563e+03 -3.429403e+03 -3.118178e+03 -2.774625e+03 -2.412302e+03 -2.044565e+03 -1.684013e+03 -1.341359e+03 -1.024923e+03 -7.404582e+02 -4.911212e+02 -2.778485e+02 -9.971669e+01 4.556913e+01 1.611697e+02 2.507759e+02 3.181585e+02 3.670491e+02 4.008301e+02 4.225803e+02 4.348959e+02 4.400182e+02 4.397418e+02 4.355585e+02 4.286136e+02 4.198306e+02 4.098901e+02 3.993258e+02 3.885119e+02 3.777317e+02 3.671696e+02 3.569569e+02 3.471662e+02 3.378414e+02 3.289933e+02 3.206188e+02 3.126974e+02 3.052033e+02 2.981027e+02 2.913612e+02 2.849416e+02 2.788087e+02 2.729273e+02 2.672650e+02 2.617913e+02 2.564784e+02 2.513008e+02 2.462361e+02 2.412637e+02 2.363662e+02 2.315276e+02 2.267347e+02 2.219756e+02 2.172405e+02 2.125210e+02 2.078101e+02 2.031020e+02 1.983921e+02 1.936766e+02 1.889526e+02 1.842177e+02 1.794706e+02 1.747099e+02 1.699353e+02 1.651460e+02 1.603424e+02 1.555243e+02 1.506924e+02 1.458469e+02 1.409886e+02 1.361177e+02 1.312353e+02 1.263414e+02 1.214371e+02 1.165225e+02 1.115981e+02 1.066641e+02 1.017207e+02 9.676790e+01 9.180573e+01 8.683366e+01 8.185159e+01 7.685865e+01 7.185444e+01 6.683774e+01 6.180783e+01 5.676319e+01 5.170275e+01 4.662466e+01 4.152755e+01 3.640925e+01 3.126808e+01 2.610155e+01 2.090769e+01 1.568372e+01 1.042739e+01 5.135634e+00 -1.940692e-01 -5.565045e+00 -1.098007e+01 -1.644273e+01 -2.195605e+01 -2.752386e+01 -3.314943e+01 -3.883685e+01 -4.458965e+01 -5.041218e+01 -5.630823e+01 -6.228246e+01 -6.833896e+01 -7.448273e+01 -8.071823e+01 -8.705087e+01 -9.348556e+01 -1.000282e+02 -1.066843e+02 -1.134605e+02 -1.203629e+02 -1.273989e+02 -1.345757e+02 -1.419019e+02 -1.493857e+02 -1.570372e+02 -1.648661e+02 -1.728842e+02 -1.811034e+02 -1.895377e+02 -1.982013e+02 -2.071109e+02 -2.162839e+02 -2.257402e+02 -2.355005e+02 -2.455885e+02 -2.560286e+02 -2.668482e+02 -2.780755e+02 -2.897411e+02 -3.018757e+02 -3.145111e+02 -3.276783e+02 -3.414058e+02 -3.557186e+02 -3.706340e+02 -3.861603e+02 -4.022875e+02 -4.189882e+02 -4.361992e+02 -4.538244e+02 -4.717045e+02 -4.896233e+02 -5.072585e+02 -5.241958e+02 -5.398527e+02 -5.535057e+02 -5.641815e+02 -5.707050e+02 -5.715575e+02 -5.649575e+02 -5.487009e+02 -5.202903e+02 -4.768028e+02 -4.150849e+02 -3.317418e+02 
-3.152760e+02 -1.829310e+02 -1.677612e+01 1.855541e+02 4.249292e+02 6.993891e+02 1.004131e+03 1.330072e+03 1.664728e+03 1.991874e+03 2.293773e+03 2.552824e+03 2.754099e+03 2.887470e+03 2.947772e+03 2.934832e+03 2.850980e+03 2.699962e+03 2.485403e+03 2.211197e+03 1.882193e+03 1.504925e+03 1.088345e+03 6.450911e+02 1.897904e+02 -2.574230e+02 -6.745045e+02 -1.035242e+03 -1.314085e+03 -1.489119e+03 -1.546719e+03 -1.484740e+03 -1.312879e+03 -1.050242e+03 -7.235201e+02 -3.615449e+02 5.765398e+00 3.529146e+02 6.597586e+02 9.142351e+02 1.111645e+03 1.253114e+03 1.342716e+03 1.384461e+03 1.380112e+03 1.328402e+03 1.225740e+03 1.067718e+03 8.508383e+02 5.743269e+02 2.406743e+02 -1.434910e+02 -5.682712e+02 -1.020888e+03 -1.487145e+03 -1.952415e+03 -2.403096e+03 -2.826263e+03 -3.211419e+03 -3.547588e+03 -3.826554e+03 -4.039376e+03 -4.180304e+03 -4.244470e+03 -4.229620e+03 -4.136217e+03 -3.966526e+03 -3.727151e+03 -3.426991e+03 -3.079349e+03 -2.699067e+03 -2.302683e+03 -1.905931e+03 -1.522990e+03 -1.165328e+03 -8.412338e+02 -5.558476e+02 -3.113041e+02 -1.073015e+02 5.835530e+01 1.891763e+02 2.893594e+02 3.634514e+02 4.158513e+02 4.507341e+02 4.717441e+02 4.820912e+02 4.843953e+02 4.808514e+02 4.731618e+02 4.626999e+02 4.504837e+02 4.373075e+02 4.237313e+02 4.101756e+02 3.969160e+02 3.841468e+02 3.719776e+02 3.604737e+02 3.496534e+02 3.395133e+02 3.300260e+02 3.211551e+02 3.128537e+02 3.050732e+02 2.977616e+02 2.908689e+02 2.843459e+02 2.781468e+02 2.722284e+02 2.665515e+02 2.610801e+02 2.557820e+02 2.506285e+02 2.455940e+02 2.406561e+02 2.357955e+02 2.309949e+02 2.262401e+02 2.215186e+02 2.168199e+02 2.121353e+02 2.074575e+02 2.027805e+02 1.980997e+02 1.934112e+02 1.887122e+02 1.840005e+02 1.792745e+02 1.745332e+02 1.697762e+02 1.650030e+02 1.602140e+02 1.554092e+02 1.505893e+02 1.457545e+02 1.409059e+02 1.360439e+02 1.311693e+02 1.262826e+02 1.213846e+02 1.164756e+02 1.115564e+02 1.066269e+02 1.016877e+02 9.673853e+01 9.177965e+01 8.681052e+01 8.183109e+01 7.684051e+01 7.183842e+01 6.682363e+01 6.179545e+01 5.675236e+01 5.169333e+01 4.661654e+01 4.152062e+01 3.640342e+01 3.126327e+01 2.609770e+01 2.090476e+01 1.568168e+01 1.042621e+01 5.135318e+00 -1.935192e-01 -5.563612e+00 -1.097773e+01 -1.643943e+01 -2.195174e+01 -2.751848e+01 -3.314290e+01 -3.882909e+01 -4.458054e+01 -5.040160e+01 -5.629606e+01 -6.226856e+01 -6.832317e+01 -7.446489e+01 -8.069816e+01 -8.702841e+01 -9.346052e+01 -1.000004e+02 -1.066537e+02 -1.134268e+02 -1.203261e+02 -1.273590e+02 -1.345327e+02 -1.418560e+02 -1.493373e+02 -1.569867e+02 -1.648145e+02 -1.728326e+02 -1.810536e+02 -1.894917e+02 -1.981623e+02 -2.070829e+02 -2.162720e+02 -2.257511e+02 -2.355429e+02 -2.456732e+02 -2.561697e+02 -2.670630e+02 -2.783862e+02 -2.901750e+02 -3.024673e+02 -3.153027e+02 -3.287225e+02 -3.427670e+02 -3.574763e+02 -3.728849e+02 -3.890223e+02 -4.059035e+02 -4.235305e+02 -4.418742e+02 -4.608791e+02 -4.804307e+02 -5.003651e+02 -5.204163e+02 -5.402323e+02 -5.592941e+02 -5.769437e+02 -5.922654e+02 -6.041337e+02 -6.110529e+02 -6.112361e+02 -6.024135e+02 -5.819577e+02 -5.467053e+02 -4.931452e+02 -4.173569e+02 
-4.173851e+02 -2.916639e+02 -1.287845e+02 7.512491e+01 3.225846e+02 6.130635e+02 9.428439e+02 1.302815e+03 1.679313e+03 2.053089e+03 2.402060e+03 2.703389e+03 2.937205e+03 3.090211e+03 3.155978e+03 3.135450e+03 3.032324e+03 2.851585e+03 2.596314e+03 2.269594e+03 1.875738e+03 1.421934e+03 9.192525e+02 3.834336e+02 -1.677649e+02 -7.091070e+02 -1.212474e+03 -1.642570e+03 -1.963995e+03 -2.146276e+03 -2.172604e+03 -2.043778e+03 -1.778142e+03 -1.404971e+03 -9.623294e+02 -4.886741e+02 -2.335694e+01 4.012972e+02 7.607986e+02 1.042618e+03 1.245444e+03 1.376699e+03 1.448139e+03 1.470764e+03 1.451196e+03 1.390427e+03 1.285033e+03 1.129514e+03 9.187920e+02 6.505988e+02 3.257689e+02 -5.059512e+01 -4.705229e+02 -9.232115e+02 -1.396483e+03 -1.877480e+03 -2.353515e+03 -2.811223e+03 -3.237888e+03 -3.617842e+03 -3.937235e+03 -4.181289e+03 -4.340517e+03 -4.408683e+03 -4.383556e+03 -4.267256e+03 -4.063327e+03 -3.781116e+03 -3.432461e+03 -3.034645e+03 -2.606413e+03 -2.167740e+03 -1.736943e+03 -1.329508e+03 -9.572621e+02 -6.278276e+02 -3.451361e+02 -1.097075e+02 8.048357e+01 2.292730e+02 3.416529e+02 4.229950e+02 4.787774e+02 5.140071e+02 5.332651e+02 5.403688e+02 5.385839e+02 5.304592e+02 5.180739e+02 5.029653e+02 4.863401e+02 4.690423e+02 4.517091e+02 4.347537e+02 4.184697e+02 4.030213e+02 3.885085e+02 3.749606e+02 3.623759e+02 3.507169e+02 3.399338e+02 3.299612e+02 3.207311e+02 3.121711e+02 3.042114e+02 2.967830e+02 2.898221e+02 2.832682e+02 2.770664e+02 2.711664e+02 2.655231e+02 2.600961e+02 2.548494e+02 2.497516e+02 2.447750e+02 2.398955e+02 2.350924e+02 2.303479e+02 2.256468e+02 2.209763e+02 2.163256e+02 2.116859e+02 2.070499e+02 2.024116e+02 1.977665e+02 1.931106e+02 1.884416e+02 1.837571e+02 1.790559e+02 1.743372e+02 1.696005e+02 1.648458e+02 1.600734e+02 1.552836e+02 1.504772e+02 1.456546e+02 1.408169e+02 1.359646e+02 1.310988e+02 1.262199e+02 1.213290e+02 1.164263e+02 1.115127e+02 1.065882e+02 1.016535e+02 9.670832e+01 9.175303e+01 8.678711e+01 8.181056e+01 7.682256e+01 7.182278e+01 6.681008e+01 6.178378e+01 5.674240e+01 5.168492e+01 4.660955e+01 4.151494e+01 3.639896e+01 3.125995e+01 2.609548e+01 2.090358e+01 1.568152e+01 1.042707e+01 5.137184e+00 -1.906209e-01 -5.559647e+00 -1.097264e+01 -1.643317e+01 -2.194422e+01 -2.750959e+01 -3.313253e+01 -3.881709e+01 -4.456677e+01 -5.038587e+01 -5.627817e+01 -6.224827e+01 -6.830024e+01 -7.443903e+01 -8.066908e+01 -8.699576e+01 -9.342396e+01 -9.995958e+01 -1.066081e+02 -1.133761e+02 -1.202699e+02 -1.272969e+02 -1.344644e+02 -1.417810e+02 -1.492554e+02 -1.568978e+02 -1.647186e+02 -1.727301e+02 -1.809450e+02 -1.893781e+02 -1.980453e+02 -2.069648e+02 -2.161563e+02 -2.256423e+02 -2.354472e+02 -2.455988e+02 -2.561275e+02 -2.670670e+02 -2.784545e+02 -2.903305e+02 -3.027396e+02 -3.157287e+02 -3.293491e+02 -3.436524e+02 -3.586937e+02 -3.745241e+02 -3.911952e+02 -4.087465e+02 -4.272118e+02 -4.465968e+02 -4.668904e+02 -4.880262e+02 -5.099002e+02 -5.323088e+02 -5.549766e+02 -5.774595e+02 -5.991883e+02 -6.193239e+02 -6.368265e+02 -6.502513e+02 -6.578553e+02 -6.573372e+02 -6.459953e+02 -6.204506e+02 -5.768704e+02 -5.107843e+02 
-5.298425e+02 -4.140122e+02 -2.578188e+02 -5.547824e+01 1.977633e+02 5.036132e+02 8.603455e+02 1.259665e+03 1.687241e+03 2.120525e+03 2.531982e+03 2.891399e+03 3.171786e+03 3.354903e+03 3.433137e+03 3.409637e+03 3.291514e+03 3.085190e+03 2.791663e+03 2.409608e+03 1.940462e+03 1.390493e+03 7.742388e+02 1.118209e+02 -5.743990e+02 -1.252077e+03 -1.883942e+03 -2.420203e+03 -2.808200e+03 -3.002898e+03 -2.982649e+03 -2.756078e+03 -2.357213e+03 -1.831485e+03 -1.231598e+03 -6.080759e+02 -1.191334e+01 5.151537e+02 9.425417e+02 1.256574e+03 1.460977e+03 1.572728e+03 1.615653e+03 1.611343e+03 1.572972e+03 1.503173e+03 1.396726e+03 1.244768e+03 1.038890e+03 7.747435e+02 4.513783e+02 7.289478e+01 -3.543376e+02 -8.212974e+02 -1.317770e+03 -1.832961e+03 -2.354938e+03 -2.869299e+03 -3.359307e+03 -3.801027e+03 -4.171293e+03 -4.446526e+03 -4.614436e+03 -4.670267e+03 -4.615607e+03 -4.456180e+03 -4.197869e+03 -3.853229e+03 -3.437999e+03 -2.974454e+03 -2.486236e+03 -1.997259e+03 -1.528397e+03 -1.096008e+03 -7.114940e+02 -3.810099e+02 -1.064238e+02 1.140305e+02 2.846702e+02 4.113468e+02 5.007686e+02 5.595888e+02 5.942097e+02 6.101933e+02 6.124069e+02 6.047336e+02 5.903600e+02 5.716668e+02 5.505138e+02 5.282083e+02 5.057254e+02 4.837003e+02 4.625779e+02 4.426094e+02 4.239458e+02 4.066349e+02 3.906768e+02 3.760208e+02 3.625973e+02 3.503152e+02 3.390796e+02 3.287895e+02 3.193472e+02 3.106574e+02 3.026306e+02 2.951832e+02 2.882388e+02 2.817277e+02 2.755869e+02 2.697606e+02 2.641986e+02 2.588571e+02 2.536974e+02 2.486859e+02 2.437935e+02 2.389951e+02 2.342691e+02 2.295974e+02 2.249644e+02 2.203573e+02 2.157653e+02 2.111796e+02 2.065932e+02 2.020003e+02 1.973965e+02 1.927783e+02 1.881434e+02 1.834897e+02 1.788165e+02 1.741229e+02 1.694090e+02 1.646747e+02 1.599206e+02 1.551472e+02 1.503555e+02 1.455461e+02 1.407203e+02 1.358785e+02 1.310222e+02 1.261517e+02 1.212683e+02 1.163724e+02 1.114648e+02 1.065457e+02 1.016157e+02 9.667483e+01 9.172335e+01 8.676084e+01 8.178733e+01 7.680207e+01 7.180475e+01 6.679425e+01 6.176994e+01 5.673037e+01 5.167455e+01 4.660069e+01 4.150748e+01 3.639280e+01 3.125502e+01 2.609172e+01 2.090097e+01 1.568002e+01 1.042668e+01 5.137923e+00 -1.887245e-01 -5.556543e+00 -1.096827e+01 -1.642743e+01 -2.193700e+01 -2.750078e+01 -3.312196e+01 -3.880459e+01 -4.455211e+01 -5.036883e+01 -5.625847e+01 -6.222560e+01 -6.827426e+01 -7.440935e+01 -8.063526e+01 -8.695732e+01 -9.338037e+01 -9.991027e+01 -1.065524e+02 -1.133134e+02 -1.201994e+02 -1.272178e+02 -1.343760e+02 -1.416824e+02 -1.491458e+02 -1.567764e+02 -1.645847e+02 -1.725829e+02 -1.807842e+02 -1.892035e+02 -1.978571e+02 -2.067637e+02 -2.159437e+02 -2.254206e+02 -2.352202e+02 -2.453718e+02 -2.559079e+02 -2.668651e+02 -2.782841e+02 -2.902099e+02 -3.026927e+02 -3.157866e+02 -3.295516e+02 -3.440507e+02 -3.593525e+02 -3.755252e+02 -3.926414e+02 -4.107659e+02 -4.299636e+02 -4.502776e+02 -4.717416e+02 -4.943426e+02 -5.180391e+02 -5.427005e+02 -5.681347e+02 -5.939911e+02 -6.198035e+02 -6.448410e+02 -6.681741e+02 -6.884581e+02 -7.040333e+02 -7.126346e+02 -7.115391e+02 -6.972273e+02 -6.655926e+02 -6.116540e+02 
-6.523536e+02 -5.504600e+02 -4.054999e+02 -2.093702e+02 4.557315e+01 3.642866e+02 7.483410e+02 1.191606e+03 1.680183e+03 2.188308e+03 2.681663e+03 3.119739e+03 3.464560e+03 3.690309e+03 3.787751e+03 3.765668e+03 3.638733e+03 3.417598e+03 3.097296e+03 2.664641e+03 2.110947e+03 1.439669e+03 6.713640e+02 -1.658015e+02 -1.043176e+03 -1.918405e+03 -2.741378e+03 -3.438495e+03 -3.926762e+03 -4.133786e+03 -4.033404e+03 -3.654683e+03 -3.063334e+03 -2.328202e+03 -1.519204e+03 -6.990083e+02 6.732760e+01 7.256649e+02 1.236014e+03 1.582272e+03 1.775237e+03 1.847233e+03 1.841845e+03 1.797791e+03 1.737045e+03 1.662104e+03 1.561553e+03 1.418781e+03 1.219239e+03 9.557089e+02 6.258431e+02 2.336893e+02 -2.153466e+02 -7.138421e+02 -1.253784e+03 -1.827192e+03 -2.423042e+03 -3.025365e+03 -3.610121e+03 -4.138875e+03 -4.571029e+03 -4.869931e+03 -5.023988e+03 -5.039162e+03 -4.926816e+03 -4.698890e+03 -4.362340e+03 -3.932879e+03 -3.430706e+03 -2.884579e+03 -2.324296e+03 -1.778115e+03 -1.269249e+03 -8.139815e+02 -4.222212e+02 -9.747903e+01 1.614307e+02 3.593525e+02 5.034765e+02 6.020060e+02 6.635554e+02 6.960626e+02 7.067932e+02 7.017043e+02 6.857943e+02 6.628269e+02 6.357656e+02 6.066820e+02 5.771211e+02 5.480756e+02 5.202391e+02 4.939959e+02 4.695781e+02 4.470578e+02 4.264382e+02 4.076463e+02 3.905836e+02 3.751205e+02 3.611232e+02 3.484496e+02 3.369633e+02 3.265311e+02 3.170289e+02 3.083407e+02 3.003606e+02 2.929924e+02 2.861491e+02 2.797535e+02 2.737365e+02 2.680375e+02 2.626031e+02 2.573867e+02 2.523480e+02 2.474520e+02 2.426687e+02 2.379726e+02 2.333420e+02 2.287585e+02 2.242069e+02 2.196745e+02 2.151509e+02 2.106275e+02 2.060977e+02 2.015561e+02 1.969988e+02 1.924225e+02 1.878253e+02 1.832058e+02 1.785631e+02 1.738970e+02 1.692076e+02 1.644954e+02 1.597610e+02 1.550053e+02 1.502293e+02 1.454340e+02 1.406207e+02 1.357901e+02 1.309438e+02 1.260822e+02 1.212067e+02 1.163179e+02 1.114165e+02 1.065031e+02 1.015781e+02 9.664169e+01 9.169418e+01 8.673523e+01 8.176490e+01 7.678249e+01 7.178772e+01 6.677953e+01 6.175730e+01 5.671962e+01 5.166552e+01 4.659325e+01 4.150151e+01 3.638821e+01 3.125175e+01 2.608970e+01 2.090017e+01 1.568044e+01 1.042831e+01 5.140791e+00 -1.845736e-01 -5.551045e+00 -1.096133e+01 -1.641895e+01 -2.192685e+01 -2.748879e+01 -3.310795e+01 -3.878833e+01 -4.453335e+01 -5.034727e+01 -5.623377e+01 -6.219738e+01 -6.824208e+01 -7.437272e+01 -8.059363e+01 -8.691007e+01 -9.332681e+01 -9.984962e+01 -1.064839e+02 -1.132359e+02 -1.201120e+02 -1.271194e+02 -1.342652e+02 -1.415581e+02 -1.490065e+02 -1.566206e+02 -1.644109e+02 -1.723896e+02 -1.805699e+02 -1.889667e+02 -1.975966e+02 -2.064786e+02 -2.156335e+02 -2.250854e+02 -2.348612e+02 -2.449911e+02 -2.555096e+02 -2.664553e+02 -2.778721e+02 -2.898085e+02 -3.023198e+02 -3.154662e+02 -3.293162e+02 -3.439422e+02 -3.594265e+02 -3.758526e+02 -3.933138e+02 -4.118991e+02 -4.317049e+02 -4.528111e+02 -4.752982e+02 -4.992076e+02 -5.245655e+02 -5.513187e+02 -5.793697e+02 -6.084721e+02 -6.382845e+02 -6.682055e+02 -6.974551e+02 -7.248271e+02 -7.488095e+02 -7.672342e+02 -7.774528e+02 -7.758859e+02 -7.582688e+02 -7.191775e+02 