# vtk DataFile Version 2.0
Comment goes here
ASCII

DATASET STRUCTURED_POINTS
FIELD FieldData 1
TIME 1 1 double
0.00600000
DIMENSIONS    230   46   1

ORIGIN    0.000   0.000   0.000
SPACING   0.013043 0.013043   1.000

POINT_DATA   10580
SCALARS Omega double
LOOKUP_TABLE default

8.848741e+02 1.111831e+03 1.353585e+03 1.606129e+03 1.864598e+03 2.123550e+03 2.377368e+03 2.620640e+03 2.848639e+03 3.057426e+03 3.244071e+03 3.406001e+03 3.540894e+03 3.645268e+03 3.714595e+03 3.741927e+03 3.719018e+03 3.636079e+03 3.483899e+03 3.255150e+03 2.946268e+03 2.559665e+03 2.103649e+03 1.594352e+03 1.052784e+03 5.056004e+02 -1.989563e+01 -4.960743e+02 -8.996468e+02 -1.212074e+03 -1.421564e+03 -1.522924e+03 -1.516854e+03 -1.409895e+03 -1.212845e+03 -9.411871e+02 -6.134115e+02 -2.509186e+02 1.240304e+02 4.893500e+02 8.246501e+02 1.112223e+03 1.336726e+03 1.485989e+03 1.549374e+03 1.519657e+03 1.391656e+03 1.165285e+03 8.448351e+02 4.411217e+02 -2.947692e+01 -5.456738e+02 -1.082779e+03 -1.615633e+03 -2.119836e+03 -2.574955e+03 -2.964792e+03 -3.279289e+03 -3.513821e+03 -3.669202e+03 -3.750417e+03 -3.765130e+03 -3.722595e+03 -3.631881e+03 -3.501567e+03 -3.338782e+03 -3.149618e+03 -2.939192e+03 -2.712110e+03 -2.472970e+03 -2.226328e+03 -1.977061e+03 -1.729868e+03 -1.489387e+03 -1.259624e+03 -1.043989e+03 -8.449733e+02 -6.642235e+02 -5.025072e+02 -3.598504e+02 -2.356634e+02 -1.288945e+02 -3.818706e+01 3.799373e+01 1.012467e+02 1.531503e+02 1.952091e+02 2.288055e+02 2.551948e+02 2.754791e+02 2.906315e+02 3.014802e+02 3.087453e+02 3.130262e+02 3.148405e+02 3.146125e+02 3.127082e+02 3.094237e+02 3.050161e+02 2.996912e+02 2.936290e+02 2.869728e+02 2.798492e+02 2.723583e+02 2.645901e+02 2.566149e+02 2.484974e+02 2.402877e+02 2.320325e+02 2.237682e+02 2.155292e+02 2.073417e+02 1.992315e+02 1.912177e+02 1.833195e+02 1.755510e+02 1.679266e+02 1.604563e+02 1.531506e+02 1.460166e+02 1.390618e+02 1.322905e+02 1.257077e+02 1.193158e+02 1.131176e+02 1.071135e+02 1.013044e+02 9.568915e+01 9.026711e+01 8.503565e+01 7.999261e+01 7.513413e+01 7.045678e+01 6.595557e+01 6.162593e+01 5.746190e+01 5.345790e+01 4.960711e+01 4.590308e+01 4.233824e+01 3.890537e+01 3.559625e+01 3.240302e+01 2.931689e+01 2.632943e+01 2.343138e+01 2.061382e+01 1.786709e+01 1.518187e+01 1.254813e+01 9.956207e+00 7.395783e+00 4.856899e+00 2.328987e+00 -1.981521e-01 -2.735302e+00 -5.292855e+00 -7.881771e+00 -1.051259e+01 -1.319643e+01 -1.594392e+01 -1.876629e+01 -2.167424e+01 -2.467905e+01 -2.779145e+01 -3.102274e+01 -3.438362e+01 -3.788535e+01 -4.153854e+01 -4.535439e+01 -4.934332e+01 -5.351641e+01 -5.788382e+01 -6.245644e+01 -6.724413e+01 -7.225747e+01 -7.750592e+01 -8.299971e+01 -8.874778e+01 -9.475993e+01 -1.010445e+02 -1.076106e+02 -1.144660e+02 -1.216192e+02 -1.290768e+02 -1.368467e+02 -1.449342e+02 -1.533463e+02 -1.620869e+02 -1.711613e+02 -1.805720e+02 -1.903222e+02 -2.004116e+02 -2.108409e+02 -2.216060e+02 -2.327034e+02 -2.441237e+02 -2.558570e+02 -2.678855e+02 -2.801897e+02 -2.927390e+02 -3.054986e+02 -3.184187e+02 -3.314410e+02 -3.444861e+02 -3.574597e+02 -3.702378e+02 -3.826721e+02 -3.945721e+02 -4.057095e+02 -4.157975e+02 -4.244921e+02 -4.313702e+02 -4.359263e+02 -4.375516e+02 -4.355245e+02 -4.289965e+02 -4.169747e+02 -3.983233e+02 -3.717407e+02 -3.357883e+02 -2.888691e+02 -2.293000e+02 -1.553028e+02 -6.513901e+01 4.287376e+01 1.701561e+02 3.178138e+02 4.863800e+02 6.757380e+02 
8.345079e+02 1.069357e+03 1.320548e+03 1.583440e+03 1.852322e+03 2.120531e+03 2.381139e+03 2.627201e+03 2.852680e+03 3.052466e+03 3.223053e+03 3.361814e+03 3.467139e+03 3.536914e+03 3.568574e+03 3.557608e+03 3.498421e+03 3.383948e+03 3.207483e+03 2.963770e+03 2.650641e+03 2.270984e+03 1.832571e+03 1.349868e+03 8.413037e+02 3.301260e+02 -1.599394e+02 -6.048001e+02 -9.836531e+02 -1.279380e+03 -1.479783e+03 -1.577962e+03 -1.571846e+03 -1.464965e+03 -1.265969e+03 -9.892519e+02 -6.541477e+02 -2.838890e+02 9.648415e+01 4.625100e+02 7.923171e+02 1.068165e+03 1.276374e+03 1.407502e+03 1.454650e+03 1.414096e+03 1.283905e+03 1.065858e+03 7.650235e+02 3.913323e+02 -4.078756e+01 -5.130135e+02 -1.004004e+03 -1.491987e+03 -1.955677e+03 -2.377115e+03 -2.742022e+03 -3.041277e+03 -3.270628e+03 -3.430187e+03 -3.523813e+03 -3.557220e+03 -3.537592e+03 -3.471625e+03 -3.365744e+03 -3.225187e+03 -3.054638e+03 -2.858421e+03 -2.640892e+03 -2.407008e+03 -2.162022e+03 -1.911805e+03 -1.662080e+03 -1.418457e+03 -1.185740e+03 -9.679130e+02 -7.678209e+02 -5.872532e+02 -4.269648e+02 -2.868468e+02 -1.661108e+02 -6.347277e+01 2.265459e+01 9.401673e+01 1.523925e+02 1.995018e+02 2.369565e+02 2.662110e+02 2.885667e+02 3.051474e+02 3.169323e+02 3.247425e+02 3.292831e+02 3.311332e+02 3.307872e+02 3.286455e+02 3.250498e+02 3.202737e+02 3.145520e+02 3.080711e+02 3.009926e+02 2.934436e+02 2.855358e+02 2.773566e+02 2.689838e+02 2.604781e+02 2.518947e+02 2.432760e+02 2.346617e+02 2.260820e+02 2.175657e+02 2.091347e+02 2.008104e+02 1.926084e+02 1.845446e+02 1.766305e+02 1.688779e+02 1.612948e+02 1.538898e+02 1.466683e+02 1.396363e+02 1.327971e+02 1.261544e+02 1.197098e+02 1.134649e+02 1.074197e+02 1.015744e+02 9.592724e+01 9.047699e+01 8.522063e+01 8.015560e+01 7.527773e+01 7.058324e+01 6.606690e+01 6.172389e+01 5.754805e+01 5.353361e+01 4.967359e+01 4.596140e+01 4.238932e+01 3.895004e+01 3.563523e+01 3.243694e+01 2.934630e+01 2.635481e+01 2.345314e+01 2.063233e+01 1.788265e+01 1.519473e+01 1.255851e+01 9.964282e+00 7.401688e+00 4.860734e+00 2.330819e+00 -1.982920e-01 -2.737411e+00 -5.296967e+00 -7.887951e+00 -1.052094e+01 -1.320708e+01 -1.595705e+01 -1.878211e+01 -2.169301e+01 -2.470108e+01 -2.781710e+01 -3.105244e+01 -3.441786e+01 -3.792470e+01 -4.158366e+01 -4.540602e+01 -4.940232e+01 -5.358377e+01 -5.796069e+01 -6.254411e+01 -6.734408e+01 -7.237141e+01 -7.763581e+01 -8.314778e+01 -8.891662e+01 -9.495246e+01 -1.012641e+02 -1.078613e+02 -1.147521e+02 -1.219459e+02 -1.294501e+02 -1.372733e+02 -1.454222e+02 -1.539046e+02 -1.627261e+02 -1.718936e+02 -1.814114e+02 -1.912848e+02 -2.015164e+02 -2.121095e+02 -2.230636e+02 -2.343791e+02 -2.460511e+02 -2.580750e+02 -2.704391e+02 -2.831306e+02 -2.961273e+02 -3.094031e+02 -3.229187e+02 -3.366272e+02 -3.504627e+02 -3.643450e+02 -3.781667e+02 -3.917964e+02 -4.050635e+02 -4.177587e+02 -4.296167e+02 -4.403131e+02 -4.494454e+02 -4.565236e+02 -4.609536e+02 -4.620177e+02 -4.588660e+02 -4.504862e+02 -4.357109e+02 -4.131779e+02 -3.813685e+02 -3.385633e+02 -2.829315e+02 -2.124961e+02 -1.252938e+02 -1.937221e+01 1.069691e+02 2.551261e+02 4.258889e+02 6.193271e+02 
7.705340e+02 1.013854e+03 1.275906e+03 1.551498e+03 1.834132e+03 2.115839e+03 2.388238e+03 2.642565e+03 2.871138e+03 3.067326e+03 3.226691e+03 3.346390e+03 3.425332e+03 3.462901e+03 3.458428e+03 3.410061e+03 3.314672e+03 3.167956e+03 2.965308e+03 2.703309e+03 2.380750e+03 2.000672e+03 1.570154e+03 1.101872e+03 6.119997e+02 1.207339e+02 -3.509472e+02 -7.815176e+02 -1.151497e+03 -1.443711e+03 -1.644385e+03 -1.743362e+03 -1.735152e+03 -1.619501e+03 -1.403495e+03 -1.101210e+03 -7.347244e+02 -3.310966e+02 7.966911e+01 4.688414e+02 8.118231e+02 1.090055e+03 1.291506e+03 1.409658e+03 1.441877e+03 1.388398e+03 1.250982e+03 1.033692e+03 7.427625e+02 3.877687e+02 -1.830543e+01 -4.594203e+02 -9.170612e+02 -1.372204e+03 -1.806296e+03 -2.203402e+03 -2.550937e+03 -2.840555e+03 -3.068305e+03 -3.233789e+03 -3.339834e+03 -3.390620e+03 -3.391363e+03 -3.346781e+03 -3.261141e+03 -3.138055e+03 -2.980795e+03 -2.793154e+03 -2.579411e+03 -2.345186e+03 -2.096719e+03 -1.841109e+03 -1.585304e+03 -1.335945e+03 -1.098650e+03 -8.778711e+02 -6.766913e+02 -4.968693e+02 -3.389864e+02 -2.026463e+02 -8.672453e+01 1.039023e+01 9.060325e+01 1.559094e+02 2.083082e+02 2.496616e+02 2.816992e+02 3.059295e+02 3.236952e+02 3.361196e+02 3.441784e+02 3.486655e+02 3.502618e+02 3.495108e+02 3.468767e+02 3.427249e+02 3.373681e+02 3.310498e+02 3.239799e+02 3.163203e+02 3.082123e+02 2.997638e+02 2.910705e+02 2.822049e+02 2.732327e+02 2.642031e+02 2.551617e+02 2.461425e+02 2.371778e+02 2.282915e+02 2.195069e+02 2.108408e+02 2.023103e+02 1.939277e+02 1.857055e+02 1.776523e+02 1.697776e+02 1.620872e+02 1.545879e+02 1.472835e+02 1.401786e+02 1.332752e+02 1.265760e+02 1.200816e+02 1.137929e+02 1.077091e+02 1.018297e+02 9.615244e+01 9.067566e+01 8.539590e+01 8.031021e+01 7.541409e+01 7.070348e+01 6.617291e+01 6.181731e+01 5.763035e+01 5.360606e+01 4.973733e+01 4.601742e+01 4.243850e+01 3.899315e+01 3.567296e+01 3.246986e+01 2.937495e+01 2.637963e+01 2.347453e+01 2.065062e+01 1.789814e+01 1.520766e+01 1.256909e+01 9.972679e+00 7.408036e+00 4.865133e+00 2.333340e+00 -1.976100e-01 -2.738557e+00 -5.299961e+00 -7.892841e+00 -1.052781e+01 -1.321603e+01 -1.596824e+01 -1.879571e+01 -2.170925e+01 -2.472023e+01 -2.783947e+01 -3.107839e+01 -3.444782e+01 -3.795916e+01 -4.162318e+01 -4.545126e+01 -4.945404e+01 -5.364282e+01 -5.802806e+01 -6.262093e+01 -6.743166e+01 -7.247124e+01 -7.774960e+01 -8.327751e+01 -8.906455e+01 -9.512120e+01 -1.014567e+02 -1.080811e+02 -1.150032e+02 -1.222329e+02 -1.297783e+02 -1.376490e+02 -1.458524e+02 -1.543977e+02 -1.632917e+02 -1.725429e+02 -1.821574e+02 -1.921427e+02 -2.025037e+02 -2.132466e+02 -2.243746e+02 -2.358915e+02 -2.477974e+02 -2.600927e+02 -2.727722e+02 -2.858299e+02 -2.992521e+02 -3.130220e+02 -3.271117e+02 -3.414862e+02 -3.560945e+02 -3.708719e+02 -3.857299e+02 -4.005564e+02 -4.152041e+02 -4.294864e+02 -4.431654e+02 -4.559414e+02 -4.674414e+02 -4.771984e+02 -4.846445e+02 -4.890760e+02 -4.896571e+02 -4.853666e+02 -4.750233e+02 -4.572135e+02 -4.303536e+02 -3.926035e+02 -3.419888e+02 -2.763163e+02 -1.933781e+02 -9.090051e+01 3.315825e+01 1.805823e+02 3.525348e+02 5.494154e+02 
6.913400e+02 9.434991e+02 1.217756e+03 1.508558e+03 1.808691e+03 2.108868e+03 2.399067e+03 2.668376e+03 2.907010e+03 3.106257e+03 3.260285e+03 3.365569e+03 3.421435e+03 3.428628e+03 3.388679e+03 3.302406e+03 3.169516e+03 2.988289e+03 2.756314e+03 2.471604e+03 2.133699e+03 1.745415e+03 1.312843e+03 8.468268e+02 3.612109e+02 -1.264189e+02 -5.973854e+02 -1.031817e+03 -1.410363e+03 -1.714479e+03 -1.926882e+03 -2.032694e+03 -2.021121e+03 -1.887535e+03 -1.637246e+03 -1.285459e+03 -8.590332e+02 -3.917620e+02 7.855782e+01 5.164693e+02 8.929437e+02 1.187919e+03 1.391067e+03 1.499577e+03 1.515958e+03 1.445404e+03 1.294042e+03 1.068806e+03 7.775027e+02 4.297353e+02 3.749786e+01 -3.850797e+02 -8.217440e+02 -1.255882e+03 -1.671134e+03 -2.053318e+03 -2.391193e+03 -2.677005e+03 -2.907127e+03 -3.080638e+03 -3.199724e+03 -3.267088e+03 -3.286403e+03 -3.260320e+03 -3.191154e+03 -3.080760e+03 -2.931177e+03 -2.745807e+03 -2.529220e+03 -2.288127e+03 -2.030167e+03 -1.764054e+03 -1.498168e+03 -1.240298e+03 -9.968146e+02 -7.725251e+02 -5.705381e+02 -3.923757e+02 -2.382288e+02 -1.072264e+02 2.240634e+00 9.223148e+01 1.650379e+02 2.229600e+02 2.682280e+02 3.028589e+02 3.286799e+02 3.472458e+02 3.599119e+02 3.677872e+02 3.718176e+02 3.727573e+02 3.712431e+02 3.677735e+02 3.627687e+02 3.565533e+02 3.494020e+02 3.415246e+02 3.331005e+02 3.242652e+02 3.151359e+02 3.058007e+02 2.963369e+02 2.868019e+02 2.772475e+02 2.677116e+02 2.582296e+02 2.488268e+02 2.395278e+02 2.303501e+02 2.213112e+02 2.124233e+02 2.036990e+02 1.951470e+02 1.867766e+02 1.785938e+02 1.706055e+02 1.628156e+02 1.552290e+02 1.478480e+02 1.406758e+02 1.337134e+02 1.269623e+02 1.204221e+02 1.140932e+02 1.079740e+02 1.020634e+02 9.635865e+01 9.085761e+01 8.555646e+01 8.045188e+01 7.553909e+01 7.081375e+01 6.627016e+01 6.190305e+01 5.770591e+01 5.367262e+01 4.979591e+01 4.606893e+01 4.248374e+01 3.903282e+01 3.570768e+01 3.250018e+01 2.940133e+01 2.640249e+01 2.349423e+01 2.066747e+01 1.791241e+01 1.521958e+01 1.257884e+01 9.980418e+00 7.413894e+00 4.869206e+00 2.335698e+00 -1.969253e-01 -2.739529e+00 -5.302599e+00 -7.897181e+00 -1.053391e+01 -1.322399e+01 -1.597817e+01 -1.880777e+01 -2.172361e+01 -2.473711e+01 -2.785914e+01 -3.110115e+01 -3.447402e+01 -3.798922e+01 -4.165757e+01 -4.549053e+01 -4.949881e+01 -5.369381e+01 -5.808610e+01 -6.268697e+01 -6.750680e+01 -7.255673e+01 -7.784690e+01 -8.338827e+01 -8.919071e+01 -9.526498e+01 -1.016206e+02 -1.082682e+02 -1.152170e+02 -1.224773e+02 -1.300580e+02 -1.379693e+02 -1.462198e+02 -1.548194e+02 -1.637764e+02 -1.731006e+02 -1.827998e+02 -1.928835e+02 -2.033591e+02 -2.142355e+02 -2.255189e+02 -2.372173e+02 -2.493352e+02 -2.618781e+02 -2.748472e+02 -2.882435e+02 -3.020620e+02 -3.162955e+02 -3.309277e+02 -3.459366e+02 -3.612866e+02 -3.769303e+02 -3.927996e+02 -4.088042e+02 -4.248228e+02 -4.406962e+02 -4.562180e+02 -4.711206e+02 -4.850665e+02 -4.976229e+02 -5.082575e+02 -5.162958e+02 -5.209280e+02 -5.211444e+02 -5.157635e+02 -5.033424e+02 -4.822441e+02 -4.505264e+02 -4.060719e+02 -3.464731e+02 -2.692521e+02 -1.717794e+02 -5.160012e+01 9.355384e+01 2.653534e+02 4.647003e+02 
5.948155e+02 8.557200e+02 1.143223e+03 1.451658e+03 1.773301e+03 2.097569e+03 2.412675e+03 2.705153e+03 2.962537e+03 3.173284e+03 3.329380e+03 3.426039e+03 3.462543e+03 3.441071e+03 3.365405e+03 3.239597e+03 3.066347e+03 2.846980e+03 2.581144e+03 2.268295e+03 1.908317e+03 1.503454e+03 1.058448e+03 5.819408e+02 8.543671e+01 -4.160846e+02 -9.057559e+02 -1.364632e+03 -1.772313e+03 -2.107054e+03 -2.345991e+03 -2.466708e+03 -2.451031e+03 -2.288126e+03 -1.981925e+03 -1.550181e+03 -1.027938e+03 -4.594797e+02 1.056471e+02 6.219950e+02 1.054092e+03 1.379590e+03 1.590553e+03 1.689250e+03 1.685097e+03 1.589771e+03 1.414821e+03 1.170751e+03 8.672886e+02 5.143759e+02 1.232249e+02 -2.935844e+02 -7.217864e+02 -1.146726e+03 -1.553915e+03 -1.930481e+03 -2.266233e+03 -2.553798e+03 -2.789820e+03 -2.973162e+03 -3.105578e+03 -3.188792e+03 -3.224937e+03 -3.214786e+03 -3.158337e+03 -3.055718e+03 -2.907574e+03 -2.717304e+03 -2.490179e+03 -2.234657e+03 -1.960377e+03 -1.678111e+03 -1.397966e+03 -1.128902e+03 -8.779687e+02 -6.500786e+02 -4.481124e+02 -2.730602e+02 -1.244659e+02 -7.715139e-01 1.002894e+02 1.813270e+02 2.451008e+02 2.942356e+02 3.312105e+02 3.581733e+02 3.770360e+02 3.893627e+02 3.965002e+02 3.995093e+02 3.992878e+02 3.965248e+02 3.918002e+02 3.855508e+02 3.781448e+02 3.698557e+02 3.609158e+02 3.514950e+02 3.417396e+02 3.317554e+02 3.216346e+02 3.114430e+02 3.012393e+02 2.910646e+02 2.809568e+02 2.709420e+02 2.610450e+02 2.512826e+02 2.416716e+02 2.322231e+02 2.229488e+02 2.138563e+02 2.049539e+02 1.962468e+02 1.877412e+02 1.794405e+02 1.713491e+02 1.634692e+02 1.558038e+02 1.483539e+02 1.411213e+02 1.341058e+02 1.273082e+02 1.207272e+02 1.143624e+02 1.082115e+02 1.022731e+02 9.654386e+01 9.102121e+01 8.570100e+01 8.057959e+01 7.565194e+01 7.091347e+01 6.635827e+01 6.198088e+01 5.777465e+01 5.373329e+01 4.984945e+01 4.611612e+01 4.252531e+01 3.906939e+01 3.573979e+01 3.252831e+01 2.942592e+01 2.642390e+01 2.351278e+01 2.068345e+01 1.792605e+01 1.523109e+01 1.258840e+01 9.988171e+00 7.419961e+00 4.873679e+00 2.338649e+00 -1.954503e-01 -2.739503e+00 -5.304021e+00 -7.900066e+00 -1.053830e+01 -1.322995e+01 -1.598578e+01 -1.881714e+01 -2.173489e+01 -2.475046e+01 -2.787476e+01 -3.111927e+01 -3.449492e+01 -3.801321e+01 -4.168502e+01 -4.552186e+01 -4.953452e+01 -5.373445e+01 -5.813233e+01 -6.273953e+01 -6.756657e+01 -7.262469e+01 -7.792421e+01 -8.347625e+01 -8.929092e+01 -9.537920e+01 -1.017510e+02 -1.084171e+02 -1.153872e+02 -1.226722e+02 -1.302814e+02 -1.382258e+02 -1.465147e+02 -1.551589e+02 -1.641680e+02 -1.735529e+02 -1.833230e+02 -1.934898e+02 -2.040627e+02 -2.150531e+02 -2.264708e+02 -2.383268e+02 -2.506304e+02 -2.633919e+02 -2.766189e+02 -2.903192e+02 -3.044966e+02 -3.191534e+02 -3.342854e+02 -3.498839e+02 -3.659297e+02 -3.823932e+02 -3.992283e+02 -4.163687e+02 -4.337218e+02 -4.511592e+02 -4.685112e+02 -4.855476e+02 -5.019753e+02 -5.174039e+02 -5.313500e+02 -5.431809e+02 -5.521319e+02 -5.572215e+02 -5.572926e+02 -5.508932e+02 -5.363603e+02 -5.116668e+02 -4.745743e+02 -4.224626e+02 -3.525824e+02 -2.619116e+02 -1.475293e+02 -6.578252e+00 1.632589e+02 3.635828e+02 
4.786294e+02 7.475324e+02 1.048768e+03 1.376966e+03 1.724197e+03 2.078774e+03 2.427073e+03 2.752675e+03 3.039725e+03 3.272787e+03 3.440603e+03 3.536015e+03 3.557729e+03 3.509039e+03 3.396485e+03 3.227760e+03 3.009511e+03 2.746427e+03 2.440760e+03 2.093172e+03 1.703760e+03 1.273602e+03 8.055764e+02 3.056359e+02 -2.175312e+02 -7.516078e+02 -1.281529e+03 -1.788693e+03 -2.250444e+03 -2.640006e+03 -2.925637e+03 -3.073938e+03 -3.055151e+03 -2.850101e+03 -2.460991e+03 -1.910887e+03 -1.247327e+03 -5.305881e+02 1.729270e+02 8.034136e+02 1.316257e+03 1.686022e+03 1.908366e+03 1.993096e+03 1.959371e+03 1.827770e+03 1.616716e+03 1.341021e+03 1.012516e+03 6.414870e+02 2.383844e+02 -1.857308e+02 -6.182984e+02 -1.046424e+03 -1.456962e+03 -1.837948e+03 -2.179678e+03 -2.474767e+03 -2.720169e+03 -2.914731e+03 -3.060631e+03 -3.158930e+03 -3.210693e+03 -3.214328e+03 -3.167197e+03 -3.067088e+03 -2.913268e+03 -2.709453e+03 -2.462435e+03 -2.183355e+03 -1.884700e+03 -1.579911e+03 -1.281081e+03 -9.983451e+02 -7.391804e+02 -5.082765e+02 -3.078796e+02 -1.380896e+02 2.521174e+00 1.164429e+02 2.067711e+02 2.767813e+02 3.297451e+02 3.686351e+02 3.961523e+02 4.145546e+02 4.257882e+02 4.313954e+02 4.326672e+02 4.305901e+02 4.259791e+02 4.194413e+02 4.114769e+02 4.024515e+02 3.926680e+02 3.823438e+02 3.716610e+02 3.607479e+02 3.497136e+02 3.386331e+02 3.275716e+02 3.165727e+02 3.056752e+02 2.949044e+02 2.842835e+02 2.738270e+02 2.635493e+02 2.534587e+02 2.435643e+02 2.338710e+02 2.243850e+02 2.151093e+02 2.060481e+02 1.972033e+02 1.885781e+02 1.801735e+02 1.719917e+02 1.640331e+02 1.562990e+02 1.487892e+02 1.415042e+02 1.344429e+02 1.276052e+02 1.209890e+02 1.145933e+02 1.084154e+02 1.024531e+02 9.670285e+01 9.116170e+01 8.582519e+01 8.068939e+01 7.574904e+01 7.099933e+01 6.643420e+01 6.204802e+01 5.783399e+01 5.378573e+01 4.989575e+01 4.615698e+01 4.256133e+01 3.910110e+01 3.576766e+01 3.255276e+01 2.944729e+01 2.644252e+01 2.352894e+01 2.069737e+01 1.793795e+01 1.524115e+01 1.259677e+01 9.994984e+00 7.425322e+00 4.877673e+00 2.341344e+00 -1.940070e-01 -2.739280e+00 -5.305005e+00 -7.902260e+00 -1.054173e+01 -1.323464e+01 -1.599180e+01 -1.882455e+01 -2.174379e+01 -2.476097e+01 -2.788701e+01 -3.113342e+01 -3.451116e+01 -3.803177e+01 -4.170616e+01 -4.554587e+01 -4.956175e+01 -5.376530e+01 -5.816726e+01 -6.277907e+01 -6.761134e+01 -7.267541e+01 -7.798171e+01 -8.354151e+01 -8.936508e+01 -9.546358e+01 -1.018471e+02 -1.085269e+02 -1.155128e+02 -1.228161e+02 -1.304468e+02 -1.384160e+02 -1.467342e+02 -1.554126e+02 -1.644620e+02 -1.738942e+02 -1.837204e+02 -1.939533e+02 -2.046045e+02 -2.156879e+02 -2.272158e+02 -2.392030e+02 -2.516626e+02 -2.646099e+02 -2.780583e+02 -2.920225e+02 -3.065147e+02 -3.215468e+02 -3.371267e+02 -3.532590e+02 -3.699413e+02 -3.871627e+02 -4.049000e+02 -4.231127e+02 -4.417388e+02 -4.606844e+02 -4.798198e+02 -4.989593e+02 -5.178599e+02 -5.361852e+02 -5.535102e+02 -5.692619e+02 -5.827358e+02 -5.930041e+02 -5.989552e+02 -5.991615e+02 -5.919594e+02 -5.752742e+02 -5.467684e+02 -5.036377e+02 -4.428632e+02 -3.610223e+02 -2.546781e+02 -1.202969e+02 4.522874e+01 2.444146e+02 
3.400923e+02 6.152262e+02 9.297230e+02 1.279048e+03 1.655614e+03 2.046986e+03 2.437857e+03 2.808497e+03 3.138887e+03 3.408346e+03 3.600753e+03 3.705036e+03 3.718089e+03 3.644079e+03 3.492471e+03 3.275821e+03 3.005623e+03 2.691258e+03 2.337994e+03 1.948100e+03 1.521391e+03 1.057182e+03 5.555717e+02 1.886245e+01 -5.477444e+02 -1.135208e+03 -1.730422e+03 -2.314864e+03 -2.862531e+03 -3.339053e+03 -3.699661e+03 -3.893853e+03 -3.874436e+03 -3.609796e+03 -3.101347e+03 -2.381479e+03 -1.517332e+03 -5.922603e+02 3.036946e+02 1.090892e+03 1.712025e+03 2.137697e+03 2.369413e+03 2.428757e+03 2.349321e+03 2.164271e+03 1.900663e+03 1.578172e+03 1.210377e+03 8.074709e+02 3.787227e+02 -6.643026e+01 -5.170992e+02 -9.618046e+02 -1.388235e+03 -1.784534e+03 -2.140605e+03 -2.448371e+03 -2.705013e+03 -2.910370e+03 -3.068244e+03 -3.180313e+03 -3.246557e+03 -3.262547e+03 -3.221504e+03 -3.118211e+03 -2.950108e+03 -2.722108e+03 -2.443674e+03 -2.130100e+03 -1.797882e+03 -1.463777e+03 -1.142104e+03 -8.439284e+02 -5.767665e+02 -3.445252e+02 -1.483072e+02 1.314342e+01 1.425939e+02 2.437172e+02 3.206164e+02 3.773008e+02 4.175926e+02 4.447767e+02 4.617446e+02 4.707945e+02 4.738586e+02 4.723928e+02 4.675923e+02 4.603238e+02 4.512935e+02 4.409986e+02 4.298460e+02 4.181144e+02 4.060348e+02 3.937608e+02 3.814218e+02 3.691004e+02 3.568678e+02 3.447668e+02 3.328355e+02 3.210947e+02 3.095639e+02 2.982519e+02 2.871682e+02 2.763158e+02 2.656989e+02 2.553176e+02 2.451737e+02 2.352662e+02 2.255960e+02 2.161618e+02 2.069640e+02 1.980015e+02 1.892745e+02 1.807819e+02 1.725239e+02 1.644992e+02 1.567078e+02 1.491481e+02 1.418197e+02 1.347206e+02 1.278497e+02 1.212047e+02 1.147837e+02 1.085835e+02 1.026017e+02 9.683436e+01 9.127811e+01 8.592830e+01 8.078076e+01 7.583004e+01 7.107115e+01 6.649790e+01 6.210451e+01 5.788410e+01 5.383016e+01 4.993514e+01 4.619187e+01 4.259222e+01 3.912842e+01 3.579179e+01 3.257403e+01 2.946601e+01 2.645895e+01 2.354329e+01 2.070986e+01 1.794875e+01 1.525040e+01 1.260462e+01 1.000153e+01 7.430673e+00 4.881904e+00 2.344521e+00 -1.918332e-01 -2.738070e+00 -5.304733e+00 -7.902910e+00 -1.054330e+01 -1.323714e+01 -1.599525e+01 -1.882898e+01 -2.174925e+01 -2.476750e+01 -2.789469e+01 -3.114234e+01 -3.452142e+01 -3.804348e+01 -4.171947e+01 -4.556093e+01 -4.957877e+01 -5.378449e+01 -5.818890e+01 -6.280345e+01 -6.763883e+01 -7.270642e+01 -7.801676e+01 -8.358118e+01 -8.941009e+01 -9.551476e+01 -1.019055e+02 -1.085936e+02 -1.155894e+02 -1.229043e+02 -1.305486e+02 -1.385342e+02 -1.468716e+02 -1.555732e+02 -1.646501e+02 -1.741155e+02 -1.839815e+02 -1.942622e+02 -2.049712e+02 -2.161241e+02 -2.277362e+02 -2.398251e+02 -2.524078e+02 -2.655039e+02 -2.791325e+02 -2.933147e+02 -3.080709e+02 -3.234222e+02 -3.393883e+02 -3.559870e+02 -3.732327e+02 -3.911334e+02 -4.096897e+02 -4.288873e+02 -4.486974e+02 -4.690621e+02 -4.898962e+02 -5.110625e+02 -5.323761e+02 -5.535622e+02 -5.742679e+02 -5.939931e+02 -6.121146e+02 -6.277802e+02 -6.399550e+02 -6.472668e+02 -6.480935e+02 -6.403508e+02 -6.216505e+02 -5.890380e+02 -5.392614e+02 -4.685016e+02 -3.727930e+02 -2.478499e+02 -8.965094e+01 1.054564e+02 
1.765609e+02 4.548514e+02 7.807604e+02 1.151359e+03 1.560158e+03 1.994711e+03 2.438447e+03 2.868231e+03 3.259106e+03 3.583415e+03 3.818006e+03 3.945229e+03 3.958362e+03 3.861313e+03 3.667160e+03 3.394542e+03 3.062138e+03 2.685583e+03 2.274828e+03 1.833910e+03 1.362233e+03 8.560342e+02 3.113777e+02 -2.746495e+02 -9.016179e+02 -1.564721e+03 -2.253729e+03 -2.950463e+03 -3.624860e+03 -4.232440e+03 -4.709116e+03 -4.978423e+03 -4.964684e+03 -4.618244e+03 -3.941321e+03 -2.983868e+03 -1.842436e+03 -6.330559e+02 5.229603e+02 1.519042e+03 2.280157e+03 2.771073e+03 3.002574e+03 3.014842e+03 2.863988e+03 2.601408e+03 2.265067e+03 1.879236e+03 1.457840e+03 1.009574e+03 5.415224e+02 6.100345e+01 -4.227705e+02 -8.995073e+02 -1.356807e+03 -1.781713e+03 -2.161919e+03 -2.487015e+03 -2.754315e+03 -2.966300e+03 -3.131867e+03 -3.255375e+03 -3.336196e+03 -3.364805e+03 -3.327862e+03 -3.215099e+03 -3.021996e+03 -2.755929e+03 -2.431288e+03 -2.069668e+03 -1.693160e+03 -1.322538e+03 -9.743368e+02 -6.600594e+02 -3.865091e+02 -1.560581e+02 3.205005e+01 1.809696e+02 2.952221e+02 3.799233e+02 4.403191e+02 4.812050e+02 5.069190e+02 5.210078e+02 5.264563e+02 5.255284e+02 5.200491e+02 5.113286e+02 5.004004e+02 4.879759e+02 4.746134e+02 4.606830e+02 4.464771e+02 4.321815e+02 4.179450e+02 4.038560e+02 3.899866e+02 3.763746e+02 3.630515e+02 3.500289e+02 3.373175e+02 3.249162e+02 3.128255e+02 3.010388e+02 2.895522e+02 2.783576e+02 2.674498e+02 2.568211e+02 2.464665e+02 2.363797e+02 2.265563e+02 2.169915e+02 2.076819e+02 1.986238e+02 1.898149e+02 1.812519e+02 1.729335e+02 1.648567e+02 1.570204e+02 1.494219e+02 1.420598e+02 1.349316e+02 1.280354e+02 1.213683e+02 1.149281e+02 1.087111e+02 1.027146e+02 9.693430e+01 9.136669e+01 8.600689e+01 8.085052e+01 7.589200e+01 7.112621e+01 6.654685e+01 6.214803e+01 5.792280e+01 5.386456e+01 4.996572e+01 4.621904e+01 4.261634e+01 3.914980e+01 3.581073e+01 3.259078e+01 2.948079e+01 2.647194e+01 2.355469e+01 2.071981e+01 1.795739e+01 1.525785e+01 1.261098e+01 1.000690e+01 7.435123e+00 4.885508e+00 2.347338e+00 -1.897534e-01 -2.736683e+00 -5.304005e+00 -7.902811e+00 -1.054381e+01 -1.323823e+01 -1.599692e+01 -1.883122e+01 -2.175205e+01 -2.477086e+01 -2.789862e+01 -3.114685e+01 -3.452652e+01 -3.804919e+01 -4.172581e+01 -4.556793e+01 -4.958647e+01 -5.379294e+01 -5.819815e+01 -6.281358e+01 -6.764994e+01 -7.271863e+01 -7.803024e+01 -8.359612e+01 -8.942676e+01 -9.553350e+01 -1.019268e+02 -1.086179e+02 -1.156175e+02 -1.229370e+02 -1.305873e+02 -1.385801e+02 -1.469268e+02 -1.556398e+02 -1.647313e+02 -1.742149e+02 -1.841038e+02 -1.944132e+02 -2.051583e+02 -2.163564e+02 -2.280250e+02 -2.401842e+02 -2.528547e+02 -2.660599e+02 -2.798241e+02 -2.941743e+02 -3.091384e+02 -3.247464e+02 -3.410290e+02 -3.580172e+02 -3.757416e+02 -3.942293e+02 -4.135039e+02 -4.335789e+02 -4.544584e+02 -4.761235e+02 -4.985352e+02 -5.216098e+02 -5.452247e+02 -5.691772e+02 -5.931947e+02 -6.168678e+02 -6.396706e+02 -6.608549e+02 -6.794893e+02 -6.943002e+02 -7.037466e+02 -7.057939e+02 -6.980533e+02 -6.774886e+02 -6.406620e+02 -5.834084e+02 -5.012422e+02 -3.890986e+02 -2.419425e+02 -5.478231e+01 
-1.450619e+01 2.621055e+02 5.955981e+02 9.855870e+02 1.427801e+03 1.910914e+03 2.418082e+03 2.923091e+03 3.395551e+03 3.798905e+03 4.099915e+03 4.270550e+03 4.296936e+03 4.180977e+03 3.939316e+03 3.599192e+03 3.189293e+03 2.735163e+03 2.253602e+03 1.752038e+03 1.228794e+03 6.753773e+02 8.110610e+01 -5.648970e+02 -1.268875e+03 -2.031921e+03 -2.848081e+03 -3.700711e+03 -4.556018e+03 -5.356632e+03 -6.010788e+03 -6.400036e+03 -6.401280e+03 -5.937718e+03 -5.020463e+03 -3.732390e+03 -2.214843e+03 -6.266735e+02 8.718378e+02 2.139499e+03 3.075376e+03 3.634500e+03 3.841389e+03 3.767043e+03 3.503949e+03 3.130913e+03 2.698532e+03 2.233406e+03 1.745912e+03 1.240322e+03 7.196945e+02 1.885187e+02 -3.457850e+02 -8.736370e+02 -1.381188e+03 -1.852015e+03 -2.267907e+03 -2.612611e+03 -2.882830e+03 -3.088664e+03 -3.251195e+03 -3.382633e+03 -3.480653e+03 -3.526137e+03 -3.493180e+03 -3.363798e+03 -3.131209e+03 -2.808425e+03 -2.418383e+03 -1.992263e+03 -1.559654e+03 -1.145760e+03 -7.688921e+02 -4.399053e+02 -1.637715e+02 5.974769e+01 2.341210e+02 3.650098e+02 4.591147e+02 5.231933e+02 5.637354e+02 5.862766e+02 5.956008e+02 5.953772e+02 5.885691e+02 5.772728e+02 5.631127e+02 5.471623e+02 5.302384e+02 5.128461e+02 4.953702e+02 4.780293e+02 4.609928e+02 4.443431e+02 4.281458e+02 4.124206e+02 3.971839e+02 3.824277e+02 3.681461e+02 3.543201e+02 3.409345e+02 3.279674e+02 3.154014e+02 3.032156e+02 2.913934e+02 2.799169e+02 2.687719e+02 2.579438e+02 2.474213e+02 2.371931e+02 2.272506e+02 2.175852e+02 2.081908e+02 1.990610e+02 1.901913e+02 1.815770e+02 1.732148e+02 1.651009e+02 1.572329e+02 1.496073e+02 1.422221e+02 1.350739e+02 1.281606e+02 1.214787e+02 1.150255e+02 1.087974e+02 1.027912e+02 9.700239e+01 9.142732e+01 8.606096e+01 8.089880e+01 7.593517e+01 7.116484e+01 6.658144e+01 6.217903e+01 5.795058e+01 5.388947e+01 4.998805e+01 4.623906e+01 4.263428e+01 3.916587e+01 3.582511e+01 3.260363e+01 2.949227e+01 2.648218e+01 2.356380e+01 2.072790e+01 1.796455e+01 1.526417e+01 1.261655e+01 1.001178e+01 7.439377e+00 4.889198e+00 2.350520e+00 -1.870269e-01 -2.734363e+00 -5.302044e+00 -7.901164e+00 -1.054243e+01 -1.323708e+01 -1.599593e+01 -1.883035e+01 -2.175125e+01 -2.477008e+01 -2.789779e+01 -3.114589e+01 -3.452536e+01 -3.804773e+01 -4.172397e+01 -4.556560e+01 -4.958352e+01 -5.378923e+01 -5.819355e+01 -6.280794e+01 -6.764307e+01 -7.271036e+01 -7.802039e+01 -8.358449e+01 -8.941318e+01 -9.551777e+01 -1.019088e+02 -1.085975e+02 -1.155947e+02 -1.229119e+02 -1.305599e+02 -1.385509e+02 -1.468964e+02 -1.556091e+02 -1.647017e+02 -1.741882e+02 -1.840826e+02 -1.944010e+02 -2.051597e+02 -2.163773e+02 -2.280734e+02 -2.402701e+02 -2.529912e+02 -2.662633e+02 -2.801153e+02 -2.945795e+02 -3.096907e+02 -3.254869e+02 -3.420093e+02 -3.593010e+02 -3.774081e+02 -3.963761e+02 -4.162515e+02 -4.370749e+02 -4.588838e+02 -4.816985e+02 -5.055283e+02 -5.303454e+02 -5.560948e+02 -5.826510e+02 -6.098329e+02 -6.373337e+02 -6.647450e+02 -6.914451e+02 -7.166406e+02 -7.391950e+02 -7.577030e+02 -7.702385e+02 -7.744899e+02 -7.674158e+02 -7.454859e+02 -7.042637e+02 -6.388161e+02 -5.433144e+02 -4.116775e+02 -2.374151e+02 