# vtk DataFile Version 2.0
Comment goes here
ASCII

DATASET STRUCTURED_POINTS
FIELD FieldData 1
TIME 1 1 double
0.04800000
DIMENSIONS    230   46   1

ORIGIN    0.000   0.000   0.000
SPACING   0.013043 0.013043   1.000

POINT_DATA   10580
SCALARS Omega double
LOOKUP_TABLE default

-1.087551e+02 1.115596e+01 1.601781e+02 3.400101e+02 5.511345e+02 7.924344e+02 1.060916e+03 1.351716e+03 1.658130e+03 1.972255e+03 2.285455e+03 2.589355e+03 2.876456e+03 3.140583e+03 3.377192e+03 3.582597e+03 3.753984e+03 3.887906e+03 3.980497e+03 4.026546e+03 4.020190e+03 3.955518e+03 3.827302e+03 3.632967e+03 3.372466e+03 3.050661e+03 2.675816e+03 2.261256e+03 1.822808e+03 1.378927e+03 9.482317e+02 5.481899e+02 1.941960e+02 -1.021396e+02 -3.319964e+02 -4.905259e+02 -5.754383e+02 -5.873450e+02 -5.298854e+02 -4.088687e+02 -2.342795e+02 -1.763705e+01 2.253769e+02 4.790878e+02 7.255392e+02 9.486099e+02 1.132048e+03 1.262330e+03 1.327243e+03 1.318042e+03 1.228975e+03 1.059407e+03 8.133739e+02 5.010682e+02 1.368854e+02 -2.602499e+02 -6.704415e+02 -1.073029e+03 -1.450393e+03 -1.787634e+03 -2.075208e+03 -2.307510e+03 -2.483861e+03 -2.606336e+03 -2.679662e+03 -2.709239e+03 -2.700881e+03 -2.659777e+03 -2.590554e+03 -2.497166e+03 -2.383142e+03 -2.251860e+03 -2.106661e+03 -1.951033e+03 -1.788522e+03 -1.622687e+03 -1.456952e+03 -1.294437e+03 -1.137887e+03 -9.895138e+02 -8.510466e+02 -7.236271e+02 -6.079598e+02 -5.042553e+02 -4.124122e+02 -3.319935e+02 -2.623905e+02 -2.028132e+02 -1.524132e+02 -1.102790e+02 -7.551496e+01 -4.723714e+01 -2.461717e+01 -6.877631e+00 6.688588e+00 1.672254e+01 2.379529e+01 2.841117e+01 3.101232e+01 3.198091e+01 3.164750e+01 3.029231e+01 2.815466e+01 2.543364e+01 2.229698e+01 1.888137e+01 1.530018e+01 1.164349e+01 7.984506e+00 4.379443e+00 8.725924e-01 -2.503806e+00 -5.725680e+00 -8.777260e+00 -1.164817e+01 -1.433355e+01 -1.683194e+01 -1.914533e+01 -2.127772e+01 -2.323515e+01 -2.502465e+01 -2.665431e+01 -2.813256e+01 -2.946822e+01 -3.067007e+01 -3.174683e+01 -3.270692e+01 -3.355847e+01 -3.430920e+01 -3.496637e+01 -3.553678e+01 -3.602677e+01 -3.644216e+01 -3.678834e+01 -3.707022e+01 -3.729229e+01 -3.745864e+01 -3.757295e+01 -3.763860e+01 -3.765860e+01 -3.763571e+01 -3.757240e+01 -3.747096e+01 -3.733341e+01 -3.716167e+01 -3.695745e+01 -3.672240e+01 -3.645803e+01 -3.616579e+01 -3.584708e+01 -3.550327e+01 -3.513571e+01 -3.474579e+01 -3.433487e+01 -3.390441e+01 -3.345588e+01 -3.299087e+01 -3.251102e+01 -3.201812e+01 -3.151406e+01 -3.100088e+01 -3.048076e+01 -2.995609e+01 -2.942941e+01 -2.890350e+01 -2.838135e+01 -2.786622e+01 -2.736160e+01 -2.687132e+01 -2.639947e+01 -2.595054e+01 -2.552931e+01 -2.514102e+01 -2.479128e+01 -2.448617e+01 -2.423225e+01 -2.403660e+01 -2.390688e+01 -2.385131e+01 -2.387879e+01 -2.399887e+01 -2.422190e+01 -2.455897e+01 -2.502209e+01 -2.562413e+01 -2.637905e+01 -2.730176e+01 -2.840849e+01 -2.971653e+01 -3.124477e+01 -3.301327e+01 -3.504400e+01 -3.736027e+01 -3.998763e+01 -4.295314e+01 -4.628648e+01 -5.001902e+01 -5.418513e+01 -5.882098e+01 -6.396610e+01 -6.966175e+01 -7.595282e+01 -8.288551e+01 -9.050959e+01 -9.887511e+01 -1.080350e+02 -1.180402e+02 -1.289427e+02 -1.407886e+02 -1.536205e+02 -1.674684e+02 -1.823508e+02 -1.982616e+02 -2.151698e+02 -2.330000e+02 -2.516303e+02 -2.708637e+02 -2.904229e+02 -3.099105e+02 -3.288004e+02 -3.463844e+02 -3.617624e+02 -3.737752e+02 -3.810014e+02 -3.816820e+02 -3.737424e+02 -3.547249e+02 -3.218696e+02 -2.720887e+02 -2.021525e+02 
-1.598957e+02 -4.080448e+01 1.096249e+02 2.935998e+02 5.120226e+02 7.639210e+02 1.046144e+03 1.353180e+03 1.677239e+03 2.008866e+03 2.337620e+03 2.653265e+03 2.946711e+03 3.210682e+03 3.440269e+03 3.632134e+03 3.784631e+03 3.895985e+03 3.964592e+03 3.987579e+03 3.961571e+03 3.882724e+03 3.747534e+03 3.554355e+03 3.303424e+03 2.998995e+03 2.648110e+03 2.262094e+03 1.854494e+03 1.441062e+03 1.038052e+03 6.607946e+02 3.235240e+02 3.751135e+01 -1.876592e+02 -3.455092e+02 -4.316710e+02 -4.444171e+02 -3.857367e+02 -2.603535e+02 -7.863501e+01 1.466707e+02 3.976430e+02 6.562241e+02 9.026846e+02 1.120017e+03 1.293025e+03 1.410159e+03 1.462722e+03 1.445163e+03 1.354817e+03 1.192598e+03 9.628269e+02 6.744219e+02 3.393222e+02 -2.658745e+01 -4.068921e+02 -7.838646e+02 -1.142611e+03 -1.469659e+03 -1.756455e+03 -1.996911e+03 -2.189588e+03 -2.334667e+03 -2.435018e+03 -2.493698e+03 -2.514475e+03 -2.500671e+03 -2.455478e+03 -2.382015e+03 -2.283363e+03 -2.163093e+03 -2.024929e+03 -1.873161e+03 -1.712088e+03 -1.546168e+03 -1.379527e+03 -1.215948e+03 -1.058618e+03 -9.100806e+02 -7.722289e+02 -6.462718e+02 -5.328814e+02 -4.321822e+02 -3.439478e+02 -2.676002e+02 -2.023883e+02 -1.473869e+02 -1.016293e+02 -6.410135e+01 -3.382625e+01 -9.855295e+00 8.685834e+00 2.260712e+01 3.263429e+01 3.941780e+01 4.352880e+01 4.546627e+01 4.566143e+01 4.448288e+01 4.224468e+01 3.920986e+01 3.559939e+01 3.159440e+01 2.734460e+01 2.296972e+01 1.856667e+01 1.421042e+01 9.959840e+00 5.858229e+00 1.937834e+00 -1.779815e+00 -5.280493e+00 -8.557080e+00 -1.160707e+01 -1.443243e+01 -1.703784e+01 -1.943059e+01 -2.161941e+01 -2.361431e+01 -2.542588e+01 -2.706518e+01 -2.854323e+01 -2.987103e+01 -3.105919e+01 -3.211798e+01 -3.305709e+01 -3.388571e+01 -3.461241e+01 -3.524515e+01 -3.579126e+01 -3.625750e+01 -3.665004e+01 -3.697446e+01 -3.723586e+01 -3.743883e+01 -3.758750e+01 -3.768558e+01 -3.773643e+01 -3.774303e+01 -3.770809e+01 -3.763400e+01 -3.752297e+01 -3.737696e+01 -3.719778e+01 -3.698707e+01 -3.674639e+01 -3.647716e+01 -3.618077e+01 -3.585853e+01 -3.551176e+01 -3.514173e+01 -3.474976e+01 -3.433717e+01 -3.390536e+01 -3.345576e+01 -3.298992e+01 -3.250945e+01 -3.201610e+01 -3.151171e+01 -3.099833e+01 -3.047810e+01 -2.995338e+01 -2.942671e+01 -2.890085e+01 -2.837876e+01 -2.786370e+01 -2.735915e+01 -2.686893e+01 -2.639711e+01 -2.594816e+01 -2.552686e+01 -2.513842e+01 -2.478844e+01 -2.448299e+01 -2.422861e+01 -2.403234e+01 -2.390182e+01 -2.384523e+01 -2.387142e+01 -2.398993e+01 -2.421104e+01 -2.454578e+01 -2.500610e+01 -2.560480e+01 -2.635577e+01 -2.727384e+01 -2.837516e+01 -2.967695e+01 -3.119800e+01 -3.295834e+01 -3.497987e+01 -3.728591e+01 -3.990203e+01 -4.285542e+01 -4.617593e+01 -4.989528e+01 -5.404830e+01 -5.867189e+01 -6.380653e+01 -6.949487e+01 -7.578356e+01 -8.272124e+01 -9.036069e+01 -9.875604e+01 -1.079651e+02 -1.180455e+02 -1.290568e+02 -1.410552e+02 -1.540950e+02 -1.682211e+02 -1.834691e+02 -1.998539e+02 -2.173685e+02 -2.359659e+02 -2.555553e+02 -2.759760e+02 -2.969879e+02 -3.182352e+02 -3.392301e+02 -3.593033e+02 -3.775818e+02 -3.929255e+02 -4.039054e+02 -4.087302e+02 -4.052445e+02 -3.908601e+02 -3.626122e+02 -3.171303e+02 -2.508137e+02 
-2.175305e+02 -1.004424e+02 5.045601e+01 2.380890e+02 4.640369e+02 7.277015e+02 1.026000e+03 1.352856e+03 1.699378e+03 2.054345e+03 2.405142e+03 2.739267e+03 3.045515e+03 3.315246e+03 3.542781e+03 3.725114e+03 3.861429e+03 3.951637e+03 3.995990e+03 3.993927e+03 3.944258e+03 3.845282e+03 3.695233e+03 3.493617e+03 3.241240e+03 2.942060e+03 2.602324e+03 2.231788e+03 1.842209e+03 1.447234e+03 1.061171e+03 6.978850e+02 3.706622e+02 9.107583e+01 -1.304378e+02 -2.851253e+02 -3.664162e+02 -3.697071e+02 -2.954133e+02 -1.472471e+02 6.323069e+01 3.209277e+02 6.040107e+02 8.901922e+02 1.156135e+03 1.382405e+03 1.553928e+03 1.660770e+03 1.698059e+03 1.664155e+03 1.560500e+03 1.390739e+03 1.160615e+03 8.789712e+02 5.562043e+02 2.060676e+02 -1.579853e+02 -5.207217e+02 -8.698416e+02 -1.193342e+03 -1.483775e+03 -1.734922e+03 -1.944732e+03 -2.111905e+03 -2.237487e+03 -2.322497e+03 -2.368619e+03 -2.377556e+03 -2.351117e+03 -2.291876e+03 -2.202672e+03 -2.087585e+03 -1.950985e+03 -1.798187e+03 -1.634426e+03 -1.465125e+03 -1.295153e+03 -1.128892e+03 -9.698985e+02 -8.209238e+02 -6.839019e+02 -5.599805e+02 -4.496838e+02 -3.529521e+02 -2.693494e+02 -1.980973e+02 -1.382537e+02 -8.873157e+01 -4.842411e+01 -1.621006e+01 8.972998e+00 2.813173e+01 4.218175e+01 5.195465e+01 5.818668e+01 6.152642e+01 6.253675e+01 6.170156e+01 5.943384e+01 5.608098e+01 5.193482e+01 4.723553e+01 4.218147e+01 3.693187e+01 3.161545e+01 2.633231e+01 2.116096e+01 1.615955e+01 1.137141e+01 6.825919e+00 2.542582e+00 -1.468298e+00 -5.202680e+00 -8.662299e+00 -1.185261e+01 -1.478243e+01 -1.746254e+01 -1.990541e+01 -2.212433e+01 -2.413318e+01 -2.594590e+01 -2.757633e+01 -2.903791e+01 -3.034359e+01 -3.150568e+01 -3.253575e+01 -3.344467e+01 -3.424248e+01 -3.493846e+01 -3.554111e+01 -3.605822e+01 -3.649681e+01 -3.686328e+01 -3.716335e+01 -3.740221e+01 -3.758444e+01 -3.771419e+01 -3.779512e+01 -3.783052e+01 -3.782328e+01 -3.777602e+01 -3.769104e+01 -3.757042e+01 -3.741603e+01 -3.722957e+01 -3.701258e+01 -3.676652e+01 -3.649271e+01 -3.619245e+01 -3.586697e+01 -3.551752e+01 -3.514529e+01 -3.475154e+01 -3.433753e+01 -3.390461e+01 -3.345417e+01 -3.298771e+01 -3.250680e+01 -3.201316e+01 -3.150862e+01 -3.099517e+01 -3.047495e+01 -2.995030e+01 -2.942374e+01 -2.889801e+01 -2.837607e+01 -2.786116e+01 -2.735675e+01 -2.686663e+01 -2.639489e+01 -2.594597e+01 -2.552464e+01 -2.513609e+01 -2.478592e+01 -2.448017e+01 -2.422534e+01 -2.402849e+01 -2.389718e+01 -2.383958e+01 -2.386450e+01 -2.398142e+01 -2.420057e+01 -2.453291e+01 -2.499033e+01 -2.558554e+01 -2.633232e+01 -2.724543e+01 -2.834090e+01 -2.963584e+01 -3.114892e+01 -3.290006e+01 -3.491106e+01 -3.720516e+01 -3.980786e+01 -4.274636e+01 -4.605057e+01 -4.975240e+01 -5.388695e+01 -5.849167e+01 -6.360774e+01 -6.927895e+01 -7.555337e+01 -8.248179e+01 -9.011959e+01 -9.852467e+01 -1.077593e+02 -1.178873e+02 -1.289756e+02 -1.410902e+02 -1.542970e+02 -1.686559e+02 -1.842198e+02 -2.010260e+02 -2.190918e+02 -2.384025e+02 -2.588999e+02 -2.804663e+02 -3.029028e+02 -3.259064e+02 -3.490351e+02 -3.716763e+02 -3.929958e+02 -4.118974e+02 -4.269595e+02 -4.363884e+02 -4.379602e+02 -4.289812e+02 -4.062776e+02 -3.661934e+02 -3.047095e+02 
-2.819952e+02 -1.684792e+02 -1.851622e+01 1.717882e+02 4.049866e+02 6.811935e+02 9.976695e+02 1.347976e+03 1.722095e+03 2.106812e+03 2.486877e+03 2.846896e+03 3.173003e+03 3.454634e+03 3.685224e+03 3.861815e+03 3.984600e+03 4.054843e+03 4.074710e+03 4.045539e+03 3.968334e+03 3.843412e+03 3.670900e+03 3.451696e+03 3.187372e+03 2.881992e+03 2.541223e+03 2.173679e+03 1.789689e+03 1.401145e+03 1.020972e+03 6.617575e+02 3.365552e+02 5.736111e+01 -1.636124e+02 -3.149875e+02 -3.868909e+02 -3.713379e+02 -2.665559e+02 -7.539466e+01 1.886002e+02 5.065045e+02 8.502918e+02 1.191022e+03 1.499157e+03 1.750948e+03 1.930270e+03 2.028733e+03 2.045980e+03 1.985612e+03 1.854609e+03 1.660798e+03 1.412609e+03 1.119872e+03 7.923250e+02 4.422237e+02 8.052179e+01 -2.797954e+02 -6.289895e+02 -9.565194e+02 -1.256317e+03 -1.522045e+03 -1.751385e+03 -1.941443e+03 -2.091667e+03 -2.200881e+03 -2.268843e+03 -2.295662e+03 -2.282046e+03 -2.230334e+03 -2.143548e+03 -2.026715e+03 -1.885230e+03 -1.725760e+03 -1.554652e+03 -1.378401e+03 -1.202588e+03 -1.032121e+03 -8.707748e+02 -7.213536e+02 -5.856605e+02 -4.646275e+02 -3.584928e+02 -2.668994e+02 -1.891168e+02 -1.241014e+02 -7.068015e+01 -2.757768e+01 6.461848e+00 3.267077e+01 5.218976e+01 6.607619e+01 7.527356e+01 8.062408e+01 8.286067e+01 8.261926e+01 8.044258e+01 7.679040e+01 7.204834e+01 6.653568e+01 6.051543e+01 5.419999e+01 4.776053e+01 4.133110e+01 3.501645e+01 2.889496e+01 2.302485e+01 1.744627e+01 1.218594e+01 7.258685e+00 2.670762e+00 -1.579008e+00 -5.496921e+00 -9.093580e+00 -1.238235e+01 -1.537875e+01 -1.809948e+01 -2.056200e+01 -2.278393e+01 -2.478275e+01 -2.657552e+01 -2.817861e+01 -2.960765e+01 -3.087730e+01 -3.200133e+01 -3.299246e+01 -3.386248e+01 -3.462212e+01 -3.528125e+01 -3.584873e+01 -3.633263e+01 -3.674018e+01 -3.707786e+01 -3.735144e+01 -3.756609e+01 -3.772635e+01 -3.783629e+01 -3.789946e+01 -3.791903e+01 -3.789776e+01 -3.783815e+01 -3.774235e+01 -3.761233e+01 -3.744980e+01 -3.725635e+01 -3.703340e+01 -3.678229e+01 -3.650425e+01 -3.620047e+01 -3.587210e+01 -3.552028e+01 -3.514617e+01 -3.475093e+01 -3.433578e+01 -3.390201e+01 -3.345096e+01 -3.298409e+01 -3.250293e+01 -3.200919e+01 -3.150463e+01 -3.099126e+01 -3.047118e+01 -2.994672e+01 -2.942036e+01 -2.889486e+01 -2.837314e+01 -2.785845e+01 -2.735424e+01 -2.686430e+01 -2.639269e+01 -2.594386e+01 -2.552256e+01 -2.513397e+01 -2.478366e+01 -2.447767e+01 -2.422247e+01 -2.402509e+01 -2.389306e+01 -2.383453e+01 -2.385825e+01 -2.397364e+01 -2.419088e+01 -2.452086e+01 -2.497539e+01 -2.556708e+01 -2.630962e+01 -2.721763e+01 -2.830701e+01 -2.959475e+01 -3.109934e+01 -3.284057e+01 -3.484004e+01 -3.712087e+01 -3.970838e+01 -4.262971e+01 -4.591465e+01 -4.959519e+01 -5.370650e+01 -5.828637e+01 -6.337642e+01 -6.902130e+01 -7.527017e+01 -8.217557e+01 -8.979511e+01 -9.818992e+01 -1.074263e+02 -1.175738e+02 -1.287061e+02 -1.408986e+02 -1.542285e+02 -1.687703e+02 -1.845944e+02 -2.017607e+02 -2.203123e+02 -2.402673e+02 -2.616046e+02 -2.842517e+02 -3.080590e+02 -3.327820e+02 -3.580385e+02 -3.832829e+02 -4.077425e+02 -4.303816e+02 -4.498178e+02 -4.642774e+02 -4.715052e+02 -4.687217e+02 -4.525718e+02 -4.191098e+02 -3.638819e+02 
-3.536219e+02 -2.456688e+02 -9.855918e+01 9.285820e+01 3.324919e+02 6.215827e+02 9.581709e+02 1.335719e+03 1.743160e+03 2.164990e+03 2.582689e+03 2.977168e+03 3.330973e+03 3.631130e+03 3.869795e+03 4.044301e+03 4.155787e+03 4.207070e+03 4.201803e+03 4.143118e+03 4.033807e+03 3.876356e+03 3.672943e+03 3.426276e+03 3.139054e+03 2.815795e+03 2.461912e+03 2.085158e+03 1.694690e+03 1.300975e+03 9.156760e+02 5.505417e+02 2.184429e+02 -6.746558e+01 -2.927669e+02 -4.421039e+02 -5.012390e+02 -4.572506e+02 -3.055086e+02 -4.773089e+01 2.994221e+02 7.112538e+02 1.150505e+03 1.578168e+03 1.955085e+03 2.250532e+03 2.446108e+03 2.535221e+03 2.523628e+03 2.422368e+03 2.246115e+03 2.008747e+03 1.722685e+03 1.399789e+03 1.049705e+03 6.836821e+02 3.103075e+02 -5.959975e+01 -4.189632e+02 -7.589070e+02 -1.074825e+03 -1.360487e+03 -1.613139e+03 -1.828356e+03 -2.003592e+03 -2.135508e+03 -2.221670e+03 -2.260900e+03 -2.253006e+03 -2.200727e+03 -2.107833e+03 -1.980950e+03 -1.827024e+03 -1.654435e+03 -1.470878e+03 -1.283940e+03 -1.099871e+03 -9.239197e+02 -7.598943e+02 -6.104146e+02 -4.769482e+02 -3.600173e+02 -2.594195e+02 -1.743805e+02 -1.037850e+02 -4.626980e+01 -3.936519e-01 3.531897e+01 6.227844e+01 8.181764e+01 9.514601e+01 1.033535e+02 1.073974e+02 1.081123e+02 1.062143e+02 1.023116e+02 9.691587e+01 9.045135e+01 8.326816e+01 7.564956e+01 6.782403e+01 5.997092e+01 5.223055e+01 4.470839e+01 3.748296e+01 3.060893e+01 2.412299e+01 1.804619e+01 1.238805e+01 7.148366e+00 2.319988e+00 -2.109832e+00 -6.157652e+00 -9.842799e+00 -1.318632e+01 -1.621019e+01 -1.893674e+01 -2.138808e+01 -2.358589e+01 -2.555092e+01 -2.730304e+01 -2.886085e+01 -3.024189e+01 -3.146227e+01 -3.253699e+01 -3.347967e+01 -3.430282e+01 -3.501768e+01 -3.563448e+01 -3.616235e+01 -3.660949e+01 -3.698316e+01 -3.728987e+01 -3.753531e+01 -3.772455e+01 -3.786201e+01 -3.795161e+01 -3.799673e+01 -3.800039e+01 -3.796518e+01 -3.789341e+01 -3.778709e+01 -3.764801e+01 -3.747774e+01 -3.727773e+01 -3.704926e+01 -3.679354e+01 -3.651170e+01 -3.620482e+01 -3.587395e+01 -3.552016e+01 -3.514451e+01 -3.474812e+01 -3.433213e+01 -3.389778e+01 -3.344637e+01 -3.297931e+01 -3.249811e+01 -3.200443e+01 -3.150003e+01 -3.098688e+01 -3.046706e+01 -2.994288e+01 -2.941683e+01 -2.889164e+01 -2.837022e+01 -2.785582e+01 -2.735187e+01 -2.686215e+01 -2.639073e+01 -2.594203e+01 -2.552080e+01 -2.513221e+01 -2.478181e+01 -2.447562e+01 -2.422010e+01 -2.402224e+01 -2.388955e+01 -2.383013e+01 -2.385269e+01 -2.396661e+01 -2.418197e+01 -2.450963e+01 -2.496127e+01 -2.554942e+01 -2.628764e+01 -2.719043e+01 -2.827351e+01 -2.955372e+01 -3.104935e+01 -3.278000e+01 -3.476702e+01 -3.703333e+01 -3.960401e+01 -4.250599e+01 -4.576887e+01 -4.942449e+01 -5.350796e+01 -5.805715e+01 -6.311387e+01 -6.872332e+01 -7.493536e+01 -8.180391e+01 -8.938827e+01 -9.775236e+01 -1.069659e+02 -1.171033e+02 -1.282447e+02 -1.404742e+02 -1.538793e+02 -1.685490e+02 -1.845706e+02 -2.020268e+02 -2.209867e+02 -2.415030e+02 -2.635928e+02 -2.872338e+02 -3.123295e+02 -3.387035e+02 -3.660420e+02 -3.938844e+02 -4.215345e+02 -4.480471e+02 -4.721026e+02 -4.919902e+02 -5.054541e+02 -5.096796e+02 -5.011542e+02 -4.756771e+02 -4.283419e+02 
-4.324625e+02 -3.325762e+02 -1.909249e+02 -7.822459e-01 2.435632e+02 5.450497e+02 9.030886e+02 1.311539e+03 1.758479e+03 2.225843e+03 2.691057e+03 3.130108e+03 3.520777e+03 3.846733e+03 4.098807e+03 4.274774e+03 4.377480e+03 4.411144e+03 4.380833e+03 4.290597e+03 4.144719e+03 3.947704e+03 3.704280e+03 3.419561e+03 3.097867e+03 2.744692e+03 2.365385e+03 1.967106e+03 1.558010e+03 1.147154e+03 7.452110e+02 3.628541e+02 1.324038e+01 -2.893259e+02 -5.269061e+02 -6.790005e+02 -7.244775e+02 -6.435330e+02 -4.268713e+02 -7.478968e+01 3.917635e+02 9.397105e+02 1.518496e+03 2.074445e+03 2.553760e+03 2.914868e+03 3.135156e+03 3.210501e+03 3.155521e+03 2.992450e+03 2.746957e+03 2.441528e+03 2.094128e+03 1.719568e+03 1.327811e+03 9.292264e+02 5.299138e+02 1.382852e+02 -2.416665e+02 -6.029679e+02 -9.428682e+02 -1.255031e+03 -1.536310e+03 -1.780069e+03 -1.981517e+03 -2.134566e+03 -2.234575e+03 -2.279215e+03 -2.268014e+03 -2.204934e+03 -2.095413e+03 -1.948537e+03 -1.773444e+03 -1.580649e+03 -1.379342e+03 -1.178178e+03 -9.838790e+02 -8.017785e+02 -6.354060e+02 -4.869111e+02 -3.571573e+02 -2.460420e+02 -1.527525e+02 -7.597635e+01 -1.413628e+01 3.449696e+01 7.164901e+01 9.899834e+01 1.180953e+02 1.303573e+02 1.370380e+02 1.392396e+02 1.379091e+02 1.338556e+02 1.277589e+02 1.201856e+02 1.116022e+02 1.023876e+02 9.284690e+01 8.322078e+01 7.369704e+01 6.441790e+01 5.548907e+01 4.698508e+01 3.895609e+01 3.143186e+01 2.442648e+01 1.794142e+01 1.196864e+01 6.492876e+00 1.493583e+00 -3.053325e+00 -7.174402e+00 -1.089735e+01 -1.425052e+01 -1.726193e+01 -1.995915e+01 -2.236854e+01 -2.451540e+01 -2.642340e+01 -2.811484e+01 -2.961024e+01 -3.092867e+01 -3.208746e+01 -3.310252e+01 -3.398814e+01 -3.475731e+01 -3.542160e+01 -3.599143e+01 -3.647598e+01 -3.688348e+01 -3.722110e+01 -3.749523e+01 -3.771140e+01 -3.787451e+01 -3.798877e+01 -3.805788e+01 -3.808502e+01 -3.807299e+01 -3.802417e+01 -3.794068e+01 -3.782431e+01 -3.767669e+01 -3.749923e+01 -3.729320e+01 -3.705974e+01 -3.679993e+01 -3.651478e+01 -3.620527e+01 -3.587235e+01 -3.551699e+01 -3.514018e+01 -3.474298e+01 -3.432646e+01 -3.389182e+01 -3.344030e+01 -3.297328e+01 -3.249224e+01 -3.199880e+01 -3.149471e+01 -3.098190e+01 -3.046246e+01 -2.993868e+01 -2.941302e+01 -2.888821e+01 -2.836717e+01 -2.785311e+01 -2.734948e+01 -2.686005e+01 -2.638886e+01 -2.594035e+01 -2.551925e+01 -2.513072e+01 -2.478029e+01 -2.447398e+01 -2.421821e+01 -2.401996e+01 -2.388670e+01 -2.382649e+01 -2.384801e+01 -2.396056e+01 -2.417418e+01 -2.449963e+01 -2.494850e+01 -2.553322e+01 -2.626721e+01 -2.716482e+01 -2.824160e+01 -2.951419e+01 -3.100067e+01 -3.272037e+01 -3.469439e+01 -3.694536e+01 -3.949802e+01 -4.237902e+01 -4.561760e+01 -4.924536e+01 -5.329710e+01 -5.781059e+01 -6.282754e+01 -6.839336e+01 -7.455828e+01 -8.137709e+01 -8.891032e+01 -9.722400e+01 -1.063906e+02 -1.164890e+02 -1.276045e+02 -1.398291e+02 -1.532599e+02 -1.679995e+02 -1.841515e+02 -2.018203e+02 -2.211018e+02 -2.420826e+02 -2.648207e+02 -2.893447e+02 -3.156179e+02 -3.435361e+02 -3.728671e+02 -4.032456e+02 -4.340760e+02 -4.645242e+02 -4.933733e+02 -5.190098e+02 -5.392350e+02 -5.512461e+02 -5.514388e+02 -5.353981e+02 -4.978000e+02 
-5.184105e+02 -4.296240e+02 -2.967876e+02 -1.112556e+02 1.350164e+02 4.473819e+02 8.274854e+02 1.270326e+03 1.763599e+03 2.286442e+03 2.811188e+03 3.307227e+03 3.745565e+03 4.105405e+03 4.375942e+03 4.556611e+03 4.652980e+03 4.671354e+03 4.617165e+03 4.494206e+03 4.306817e+03 4.061706e+03 3.766883e+03 3.431184e+03 3.061404e+03 2.664771e+03 2.246845e+03 1.814445e+03 1.374701e+03 9.352889e+02 5.054698e+02 9.469601e+01 -2.842967e+02 -6.156226e+02 -8.771629e+02 -1.040620e+03 -1.074732e+03 -9.489107e+02 -6.468803e+02 -1.667240e+02 4.645066e+02 1.201972e+03 1.976640e+03 2.713992e+03 3.338547e+03 3.791744e+03 4.043733e+03 4.094132e+03 3.971498e+03 3.715527e+03 3.367913e+03 2.963103e+03 2.526219e+03 2.075717e+03 1.621824e+03 1.173776e+03 7.346103e+02 3.096157e+02 -1.010209e+02 -4.930136e+02 -8.656548e+02 -1.212577e+03 -1.529442e+03 -1.806769e+03 -2.036259e+03 -2.208682e+03 -2.316653e+03 -2.357405e+03 -2.330947e+03 -2.243923e+03 -2.104693e+03 -1.925943e+03 -1.719774e+03 -1.499175e+03 -1.274920e+03 -1.056489e+03 -8.507675e+02 -6.627324e+02 -4.952467e+02 -3.496005e+02 -2.257527e+02 -1.227320e+02 -3.894599e+01 2.756380e+01 7.889971e+01 1.171760e+02 1.444039e+02 1.624416e+02 1.729551e+02 1.774109e+02 1.770785e+02 1.730392e+02 1.662058e+02 1.573365e+02 1.470571e+02 1.358748e+02 1.241990e+02 1.123518e+02 1.005855e+02 8.909117e+01 7.801136e+01 6.744702e+01 5.746670e+01 4.811186e+01 3.940307e+01 3.134421e+01 2.392643e+01 1.713138e+01 1.093355e+01 5.302835e+00 2.056684e-01 -4.392961e+00 -8.529106e+00 -1.223833e+01 -1.555578e+01 -1.851497e+01 -2.114820e+01 -2.348559e+01 -2.555559e+01 -2.738435e+01 -2.899619e+01 -3.041316e+01 -3.165555e+01 -3.274153e+01 -3.368767e+01 -3.450865e+01 -3.521774e+01 -3.582659e+01 -3.634564e+01 -3.678397e+01 -3.714967e+01 -3.744971e+01 -3.769026e+01 -3.787658e+01 -3.801331e+01 -3.810439e+01 -3.815325e+01 -3.816280e+01 -3.813559e+01 -3.807375e+01 -3.797917e+01 -3.785343e+01 -3.769796e+01 -3.751397e+01 -3.730257e+01 -3.706476e+01 -3.680147e+01 -3.651358e+01 -3.620197e+01 -3.586747e+01 -3.551099e+01 -3.513343e+01 -3.473578e+01 -3.431906e+01 -3.388441e+01 -3.343304e+01 -3.296629e+01 -3.248560e+01 -3.199258e+01 -3.148895e+01 -3.097663e+01 -3.045767e+01 -2.993438e+01 -2.940920e+01 -2.888485e+01 -2.836424e+01 -2.785058e+01 -2.734731e+01 -2.685821e+01 -2.638730e+01 -2.593902e+01 -2.551809e+01 -2.512966e+01 -2.477925e+01 -2.447286e+01 -2.421691e+01 -2.401833e+01 -2.388457e+01 -2.382366e+01 -2.384423e+01 -2.395552e+01 -2.416751e+01 -2.449086e+01 -2.493708e+01 -2.551848e+01 -2.624833e+01 -2.714083e+01 -2.821134e+01 -2.947629e+01 -3.095347e+01 -3.266199e+01 -3.462257e+01 -3.685752e+01 -3.939118e+01 -4.224980e+01 -4.546215e+01 -4.905941e+01 -5.307594e+01 -5.754913e+01 -6.252034e+01 -6.803485e+01 -7.414286e+01 -8.089957e+01 -8.836617e+01 -9.661018e+01 -1.057061e+02 -1.157362e+02 -1.267902e+02 -1.389669e+02 -1.523720e+02 -1.671204e+02 -1.833307e+02 -2.011284e+02 -2.206348e+02 -2.419708e+02 -2.652347e+02 -2.905090e+02 -3.178181e+02 -3.471380e+02 -3.783240e+02 -4.111228e+02 -4.450546e+02 -4.794279e+02 -5.131582e+02 -5.447844e+02 -5.722139e+02 -5.927388e+02 -6.027279e+02 -5.976485e+02 -5.718065e+02 
-6.108265e+02 -5.367386e+02 -4.169676e+02 -2.406398e+02 3.204711e+00 3.232429e+02 7.245292e+02 1.204425e+03 1.751180e+03 2.341156e+03 2.940414e+03 3.509174e+03 4.008692e+03 4.411404e+03 4.704970e+03 4.892386e+03 4.985264e+03 4.992869e+03 4.919823e+03 4.765951e+03 4.533168e+03 4.230016e+03 3.869783e+03 3.467176e+03 3.033082e+03 2.577508e+03 2.106556e+03 1.626837e+03 1.144511e+03 6.653927e+02 1.970650e+02 -2.536902e+02 -6.753965e+02 -1.051799e+03 -1.355214e+03 -1.546656e+03 -1.578436e+03 -1.403437e+03 -9.940876e+02 -3.456762e+02 5.062352e+02 1.500694e+03 2.544119e+03 3.533701e+03 4.362153e+03 4.943642e+03 5.234645e+03 5.239931e+03 5.010915e+03 4.615734e+03 4.120034e+03 3.574667e+03 3.013566e+03 2.458975e+03 1.920877e+03 1.406540e+03 9.148144e+02 4.464151e+02 -3.908340e+00 -4.357397e+02 -8.511473e+02 -1.242972e+03 -1.604865e+03 -1.922371e+03 -2.182350e+03 -2.371066e+03 -2.478370e+03 -2.501897e+03 -2.443904e+03 -2.315726e+03 -2.130543e+03 -1.905983e+03 -1.657892e+03 -1.401930e+03 -1.150244e+03 -9.126821e+02 -6.957007e+02 -5.033418e+02 -3.372477e+02 -1.974125e+02 -8.253691e+01 9.455116e+00 8.109038e+01 1.350522e+02 1.739920e+02 2.004003e+02 2.165375e+02 2.244000e+02 2.257183e+02 2.219649e+02 2.143793e+02 2.039887e+02 1.916379e+02 1.780108e+02 1.636571e+02 1.490099e+02 1.344073e+02 1.201060e+02 1.062973e+02 9.311756e+01 8.065965e+01 6.898081e+01 5.811019e+01 4.805521e+01 3.880603e+01 3.034057e+01 2.262698e+01 1.562748e+01 9.299544e+00 3.598794e+00 -1.520715e+00 -6.104224e+00 -1.019660e+01 -1.384058e+01 -1.707739e+01 -1.994547e+01 -2.248116e+01 -2.471780e+01 -2.668647e+01 -2.841526e+01 -2.993009e+01 -3.125410e+01 -3.240844e+01 -3.341180e+01 -3.428108e+01 -3.503111e+01 -3.567516e+01 -3.622477e+01 -3.669021e+01 -3.708032e+01 -3.740287e+01 -3.766454e+01 -3.787113e+01 -3.802759e+01 -3.813821e+01 -3.820657e+01 -3.823579e+01 -3.822849e+01 -3.818689e+01 -3.811287e+01 -3.800805e+01 -3.787379e+01 -3.771129e+01 -3.752157e+01 -3.730557e+01 -3.706411e+01 -3.679800e+01 -3.650799e+01 -3.619482e+01 -3.585926e+01 -3.550212e+01 -3.512422e+01 -3.472649e+01 -3.430989e+01 -3.387553e+01 -3.342456e+01 -3.295830e+01 -3.247815e+01 -3.198571e+01 -3.148267e+01 -3.097095e+01 -3.045258e+01 -2.992986e+01 -2.940523e+01 -2.888140e+01 -2.836128e+01 -2.784807e+01 -2.734522e+01 -2.685648e+01 -2.638590e+01 -2.593789e+01 -2.551718e+01 -2.512891e+01 -2.477859e+01 -2.447219e+01 -2.421613e+01 -2.401732e+01 -2.388319e+01 -2.382171e+01 -2.384146e+01 -2.395166e+01 -2.416219e+01 -2.448366e+01 -2.492744e+01 -2.550575e+01 -2.623170e+01 -2.711933e+01 -2.818379e+01 -2.944128e+01 -3.090932e+01 -3.260669e+01 -3.455376e+01 -3.677244e+01 -3.928659e+01 -4.212197e+01 -4.530680e+01 -4.887168e+01 -5.285033e+01 -5.727956e+01 -6.220012e+01 -6.765681e+01 -7.369941e+01 -8.038303e+01 -8.776899e+01 -9.592553e+01 -1.049285e+02 -1.148624e+02 -1.258206e+02 -1.379073e+02 -1.512355e+02 -1.659305e+02 -1.821251e+02 -1.999636e+02 -2.195918e+02 -2.411630e+02 -2.648163e+02 -2.906864e+02 -3.188626e+02 -3.494018e+02 -3.822572e+02 -4.172942e+02 -4.541710e+02 -4.923579e+02 -5.309463e+02 -5.686685e+02 -6.036147e+02 -6.332463e+02 -6.540211e+02 -6.613957e+02 -6.494351e+02 
-7.086856e+02 -6.533976e+02 -5.518657e+02 -3.907217e+02 -1.555190e+02 1.668375e+02 5.863875e+02 1.104693e+03 1.712261e+03 2.383236e+03 3.076105e+03 3.738336e+03 4.316254e+03 4.771776e+03 5.090420e+03 5.283494e+03 5.375035e+03 5.381170e+03 5.301981e+03 5.125697e+03 4.844775e+03 4.470027e+03 4.024015e+03 3.532155e+03 3.012002e+03 2.478170e+03 1.937490e+03 1.396728e+03 8.608398e+02 3.335501e+02 -1.806832e+02 -6.797203e+02 -1.157285e+03 -1.598875e+03 -1.971441e+03 -2.219492e+03 -2.268725e+03 -2.044878e+03 -1.503609e+03 -6.376814e+02 5.042465e+02 1.839653e+03 3.244693e+03 4.580648e+03 5.694992e+03 6.456550e+03 6.793533e+03 6.717261e+03 6.319339e+03 5.715800e+03 5.008206e+03 4.268960e+03 3.541552e+03 2.851118e+03 2.206033e+03 1.610257e+03 1.056651e+03 5.386368e+02 4.266244e+01 -4.375993e+02 -9.074374e+02 -1.358080e+03 -1.778271e+03 -2.145758e+03 -2.439164e+03 -2.639177e+03 -2.732456e+03 -2.719473e+03 -2.607384e+03 -2.415558e+03 -2.164424e+03 -1.878081e+03 -1.576748e+03 -1.278519e+03 -9.963652e+02 -7.396029e+02 -5.134350e+02 -3.201370e+02 -1.594881e+02 -2.966715e+01 7.223280e+01 1.496121e+02 2.060452e+02 2.449654e+02 2.695544e+02 2.826181e+02 2.866012e+02 2.835610e+02 2.752281e+02 2.630169e+02 2.480893e+02 2.313733e+02 2.136150e+02 1.953958e+02 1.771707e+02 1.592820e+02 1.419863e+02 1.254654e+02 1.098443e+02 9.520014e+01 8.157342e+01 6.897568e+01 5.739598e+01 4.680710e+01 3.716904e+01 2.843402e+01 2.054789e+01 1.345417e+01 7.094139e+00 1.410066e+00 -3.655453e+00 -8.156999e+00 -1.214736e+01 -1.567559e+01 -1.878825e+01 -2.152786e+01 -2.393420e+01 -2.604313e+01 -2.788778e+01 -2.949767e+01 -3.089981e+01 -3.211803e+01 -3.317391e+01 -3.408631e+01 -3.487218e+01 -3.554620e+01 -3.612142e+01 -3.660907e+01 -3.701904e+01 -3.735976e+01 -3.763861e+01 -3.786178e+01 -3.803468e+01 -3.816181e+01 -3.824703e+01 -3.829355e+01 -3.830412e+01 -3.828099e+01 -3.822606e+01 -3.814092e+01 -3.802690e+01 -3.788512e+01 -3.771655e+01 -3.752201e+01 -3.730225e+01 -3.705793e+01 -3.678972e+01 -3.649823e+01 -3.618411e+01 -3.584802e+01 -3.549070e+01 -3.511288e+01 -3.471544e+01 -3.429930e+01 -3.386551e+01 -3.341518e+01 -3.294962e+01 -3.247020e+01 -3.197849e+01 -3.147618e+01 -3.096517e+01 -3.044749e+01 -2.992542e+01 -2.940140e+01 -2.887814e+01 -2.835855e+01 -2.784584e+01 -2.734342e+01 -2.685509e+01 -2.638486e+01 -2.593716e+01 -2.551670e+01 -2.512862e+01 -2.477843e+01 -2.447210e+01 -2.421600e+01 -2.401704e+01 -2.388261e+01 -2.382067e+01 -2.383974e+01 -2.394900e+01 -2.415824e+01 -2.447801e+01 -2.491957e+01 -2.549502e+01 -2.621732e+01 -2.710035e+01 -2.815903e+01 -2.940932e+01 -3.086844e+01 -3.255484e+01 -3.448849e+01 -3.669085e+01 -3.918525e+01 -4.199687e+01 -4.515326e+01 -4.868434e+01 -5.262300e+01 -5.700528e+01 -6.187103e+01 -6.726427e+01 -7.323395e+01 -7.983462e+01 -8.712708e+01 -9.517965e+01 -1.040685e+02 -1.138797e+02 -1.247089e+02 -1.366640e+02 -1.498641e+02 -1.644433e+02 -1.805460e+02 -1.983340e+02 -2.179747e+02 -2.396521e+02 -2.635438e+02 -2.898364e+02 -3.186826e+02 -3.502234e+02 -3.845118e+02 -4.215431e+02 -4.611240e+02 -5.029139e+02 -5.462082e+02 -5.899912e+02 -6.325965e+02 -6.717647e+02 -7.041533e+02 -7.253850e+02 -7.294386e+02 