# vtk DataFile Version 2.0
Comment goes here
ASCII

DATASET STRUCTURED_POINTS
FIELD FieldData 1
TIME 1 1 double
0.01000000
DIMENSIONS    230   46   1

ORIGIN    0.000   0.000   0.000
SPACING   0.013043 0.013043   1.000

POINT_DATA   10580
VECTORS u double

0.332010 -306.622456 0.000000 0.842598 -312.768727 0.000000 1.662776 -315.670826 0.000000 2.733875 -317.146980 0.000000 3.897943 -314.194695 0.000000 5.165137 -309.081270 0.000000 6.144958 -298.412133 0.000000 6.968036 -285.028678 0.000000 6.997239 -265.277923 0.000000 6.588878 -242.672602 0.000000 4.885581 -213.467525 0.000000 2.617808 -181.855321 0.000000 -1.241421 -144.158612 0.000000 -5.453765 -105.134608 0.000000 -11.191042 -61.311896 0.000000 -16.673246 -17.807103 0.000000 -23.260870 28.518924 0.000000 -28.741318 72.405488 0.000000 -34.747387 116.562415 0.000000 -38.836323 155.779030 0.000000 -42.936485 192.350603 0.000000 -44.578737 221.362641 0.000000 -45.886693 244.905586 0.000000 -44.539455 258.748586 0.000000 -42.695003 265.131675 0.000000 -38.354892 260.967831 0.000000 -33.548352 248.943675 0.000000 -26.767295 227.492946 0.000000 -19.776427 199.777252 0.000000 -11.674545 165.858667 0.000000 -3.857944 129.022031 0.000000 3.963025 90.656748 0.000000 10.862392 53.545513 0.000000 16.651656 19.775402 0.000000 21.000146 -8.931247 0.000000 23.425086 -30.426350 0.000000 24.275268 -44.304208 0.000000 22.965138 -48.757823 0.000000 20.506967 -44.640554 0.000000 16.376004 -30.604365 0.000000 12.085868 -8.548954 0.000000 7.243738 22.469294 0.000000 3.544669 59.670966 0.000000 0.676361 103.669844 0.000000 0.111038 150.852754 0.000000 1.501117 201.570042 0.000000 5.757990 251.445667 0.000000 12.419701 300.761075 0.000000 21.688932 344.683732 0.000000 33.019035 383.827123 0.000000 45.984056 413.439480 0.000000 60.093082 434.922305 0.000000 74.518447 444.129551 0.000000 88.996501 443.525817 0.000000 102.516521 429.883132 0.000000 115.166251 406.727992 0.000000 125.878863 371.835188 0.000000 135.175454 329.532111 0.000000 141.984411 278.496746 0.000000 147.315891 223.352717 0.000000 150.084471 163.435878 0.000000 151.777369 103.003866 0.000000 151.235538 41.767449 0.000000 150.313734 -16.962557 0.000000 147.714677 -73.275252 0.000000 145.472633 -125.058958 0.000000 142.090575 -172.257554 0.000000 139.592130 -213.908151 0.000000 136.281123 -249.836819 0.000000 134.045579 -280.024959 0.000000 131.083095 -304.234125 0.000000 129.096511 -323.138809 0.000000 126.325129 -336.496062 0.000000 124.280568 -345.418851 0.000000 121.382626 -349.690879 0.000000 118.954145 -350.626990 0.000000 115.682114 -348.032071 0.000000 112.695640 -343.227446 0.000000 108.976140 -336.015230 0.000000 105.448677 -327.588223 0.000000 101.372905 -317.725445 0.000000 97.462908 -307.421164 0.000000 93.218843 -296.425918 0.000000 89.146787 -285.519465 0.000000 84.944962 -274.432612 0.000000 80.925611 -263.749513 0.000000 76.946818 -253.197124 0.000000 73.149580 -243.199019 0.000000 69.520631 -233.494234 0.000000 66.056359 -224.383504 0.000000 62.847488 -215.629723 0.000000 59.772584 -207.444038 0.000000 57.006791 -199.619661 0.000000 54.335227 -192.304389 0.000000 52.001648 -185.323602 0.000000 49.718484 -178.781099 0.000000 47.785121 -172.533089 0.000000 45.858208 -166.653063 0.000000 44.282025 -161.024912 0.000000 42.670810 -155.701269 0.000000 41.404863 -150.589806 0.000000 40.066377 -145.728733 0.000000 39.064382 -141.045525 0.000000 37.956961 -136.568332 0.000000 37.175937 -132.240743 0.000000 36.261305 -128.083817 0.000000 35.662884 -124.054031 0.000000 34.907125 -120.167379 0.000000 34.457998 -116.390505 0.000000 33.831827 -112.735731 0.000000 33.503673 -109.177645 0.000000 32.982296 -105.725857 0.000000 32.751421 -102.361104 0.000000 32.314159 -99.090967 0.000000 32.160994 -95.900902 0.000000 31.790816 -92.796945 0.000000 31.699366 -89.768149 0.000000 31.382386 -86.819353 0.000000 31.339698 -83.942338 0.000000 31.064692 -81.140999 0.000000 31.060353 -78.409170 0.000000 30.818316 -75.749991 0.000000 30.844013 -73.158835 0.000000 30.627766 -70.638233 0.000000 30.676899 -68.184698 0.000000 30.480751 -65.800266 0.000000 30.548108 -63.482295 0.000000 30.367572 -61.232411 0.000000 30.449055 -59.048592 0.000000 30.280607 -56.932128 0.000000 30.373008 -54.881452 0.000000 30.213893 -52.897576 0.000000 30.314709 -50.979261 0.000000 30.162779 -49.127294 0.000000 30.270064 -47.340677 0.000000 30.123651 -45.620009 0.000000 30.235894 -43.964473 0.000000 30.093704 -42.374517 0.000000 30.209736 -40.849458 0.000000 30.070769 -39.389627 0.000000 30.189687 -37.994445 0.000000 30.053168 -36.664155 0.000000 30.174272 -35.398264 0.000000 30.039601 -34.196952 0.000000 30.162351 -33.059798 0.000000 30.029063 -31.986947 0.000000 30.153035 -30.978044 0.000000 30.020767 -30.033219 0.000000 30.145630 -29.152182 0.000000 30.014091 -28.335068 0.000000 30.139580 -27.581654 0.000000 30.008538 -26.892100 0.000000 30.134434 -26.266248 0.000000 30.003692 -25.704305 0.000000 30.129810 -25.206180 0.000000 29.999195 -24.772141 0.000000 30.125365 -24.402169 0.000000 29.994717 -24.096614 0.000000 30.120777 -23.855523 0.000000 29.989933 -23.679348 0.000000 30.115713 -23.568201 0.000000 29.984500 -23.522656 0.000000 30.109813 -23.542885 0.000000 29.978033 -23.629605 0.000000 30.102662 -23.783038 0.000000 29.970079 -24.004069 0.000000 30.093759 -24.292957 0.000000 29.960084 -24.650787 0.000000 30.082489 -25.077831 0.000000 29.947359 -25.575411 0.000000 30.068077 -26.143782 0.000000 29.931034 -26.784554 0.000000 30.049543 -27.497923 0.000000 29.910001 -28.285847 0.000000 30.025633 -29.148411 0.000000 29.882848 -30.087998 0.000000 29.994749 -31.104513 0.000000 29.847767 -32.200869 0.000000 29.954846 -33.376696 0.000000 29.802448 -34.635575 0.000000 29.903314 -35.976740 0.000000 29.743946 -37.404619 0.000000 29.836826 -38.917894 0.000000 29.668514 -40.522078 0.000000 29.751156 -42.215093 0.000000 29.571400 -44.003854 0.000000 29.640956 -45.885254 0.000000 29.446600 -47.868021 0.000000 29.499489 -49.947674 0.000000 29.286576 -52.135296 0.000000 29.318312 -54.424575 0.000000 29.081909 -56.829660 0.000000 29.086919 -59.341812 0.000000 28.820924 -61.979183 0.000000 28.792339 -64.729820 0.000000 28.489275 -67.617090 0.000000 28.418715 -70.624802 0.000000 28.069528 -73.783118 0.000000 27.946901 -77.070241 0.000000 27.540786 -80.525182 0.000000 27.354131 -84.118731 0.000000 26.878434 -87.901383 0.000000 26.613874 -91.834111 0.000000 26.054145 -95.982279 0.000000 25.696024 -100.293822 0.000000 25.036324 -104.853271 0.000000 24.567673 -109.591204 0.000000 23.791287 -114.616738 0.000000 23.194780 -119.837269 0.000000 22.285549 -125.393249 0.000000 21.545201 -131.161013 0.000000 20.489738 -137.320638 0.000000 19.593613 -143.706720 0.000000 18.384689 -150.548980 0.000000 17.328927 -157.625790 0.000000 15.970315 -165.228374 0.000000 14.764682 -173.059312 0.000000 13.277556 -181.485032 0.000000 11.952460 -190.106073 0.000000 10.383045 -199.379516 0.000000 8.997351 -208.769163 0.000000 7.424675 -218.839761 0.000000 6.072531 -228.873595 0.000000 4.613696 -239.561686 0.000000 3.426814 -249.949114 0.000000 2.235137 -260.874085 0.000000 1.374633 -271.079176 0.000000 0.623625 -281.575255 0.000000 0.253408 -290.732696 0.000000 0.098234 -299.770016 0.000000 
-8.019534 -306.955903 0.000000 -7.644408 -313.492364 0.000000 -6.728539 -316.778097 0.000000 -5.352653 -318.553922 0.000000 -3.582497 -315.826984 0.000000 -1.452720 -310.759465 0.000000 0.711153 -299.991740 0.000000 2.958533 -286.242965 0.000000 4.662758 -265.953686 0.000000 6.061564 -242.515793 0.000000 6.235815 -212.368662 0.000000 5.787145 -179.596459 0.000000 3.554467 -140.801911 0.000000 0.694553 -100.629646 0.000000 -4.164552 -55.941241 0.000000 -9.209568 -11.695747 0.000000 -16.077333 34.931573 0.000000 -22.355477 78.905600 0.000000 -30.052770 122.692464 0.000000 -36.330159 161.336444 0.000000 -43.581128 196.969877 0.000000 -48.731070 224.884572 0.000000 -54.380456 247.090615 0.000000 -57.425697 259.476814 0.000000 -60.425177 264.307256 0.000000 -60.529733 258.524123 0.000000 -60.021674 244.957601 0.000000 -56.641323 221.999334 0.000000 -52.242208 193.058059 0.000000 -45.459043 158.111240 0.000000 -37.678562 120.728591 0.000000 -28.564365 82.175075 0.000000 -19.017066 45.453848 0.000000 -9.564499 12.455889 0.000000 -0.483434 -14.984277 0.000000 7.147589 -34.987468 0.000000 13.823191 -47.142760 0.000000 18.244172 -49.943833 0.000000 21.715193 -44.313411 0.000000 22.966980 -29.158023 0.000000 23.963894 -6.457068 0.000000 23.554221 24.614411 0.000000 24.005293 61.254723 0.000000 24.210615 104.141882 0.000000 26.286566 149.720538 0.000000 29.066717 198.549170 0.000000 34.171443 246.357046 0.000000 40.360208 293.681724 0.000000 48.627653 335.788188 0.000000 57.747661 373.493620 0.000000 68.153086 402.090944 0.000000 78.775310 423.073866 0.000000 89.655478 432.273809 0.000000 100.037864 432.142836 0.000000 109.730071 419.376559 0.000000 118.428502 397.430590 0.000000 125.772439 363.965211 0.000000 132.025051 323.225935 0.000000 136.613250 273.755383 0.000000 140.431706 220.122900 0.000000 142.567860 161.541832 0.000000 144.521278 102.257886 0.000000 144.926867 41.909611 0.000000 145.778732 -16.184067 0.000000 145.278508 -72.103450 0.000000 145.729115 -123.713209 0.000000 144.967905 -170.872626 0.000000 145.396712 -212.597876 0.000000 144.609629 -248.592763 0.000000 144.947778 -278.852369 0.000000 143.945933 -303.018013 0.000000 143.797956 -321.830795 0.000000 142.180380 -334.947933 0.000000 141.098343 -343.594272 0.000000 138.524629 -347.471380 0.000000 136.246264 -348.027335 0.000000 132.607987 -344.991675 0.000000 129.149542 -339.816064 0.000000 124.591879 -332.225912 0.000000 120.203705 -323.526361 0.000000 115.042540 -313.416682 0.000000 110.096519 -302.980691 0.000000 104.703968 -291.889336 0.000000 99.581101 -280.991157 0.000000 94.293121 -269.942329 0.000000 89.308789 -259.379731 0.000000 84.375517 -248.964511 0.000000 79.748777 -239.161520 0.000000 75.323386 -229.654712 0.000000 71.178785 -220.778038 0.000000 67.330154 -212.250130 0.000000 63.716323 -204.309426 0.000000 60.451219 -196.714615 0.000000 57.363943 -189.636129 0.000000 54.649331 -182.872976 0.000000 52.052195 -176.547724 0.000000 49.833312 -170.496715 0.000000 47.673397 -164.808907 0.000000 45.886562 -159.353358 0.000000 44.105091 -154.195343 0.000000 42.685899 -149.231519 0.000000 41.224809 -144.510339 0.000000 40.112839 -139.951127 0.000000 38.918424 -135.590269 0.000000 38.059580 -131.365333 0.000000 37.084203 -127.303957 0.000000 36.431564 -123.358174 0.000000 35.634165 -119.549202 0.000000 35.147944 -115.840412 0.000000 34.493872 -112.248253 0.000000 34.140905 -108.744901 0.000000 33.601380 -105.343218 0.000000 33.354393 -102.022161 0.000000 32.905811 -98.791863 0.000000 32.742612 -95.636469 0.000000 32.365817 -92.564011 0.000000 32.268515 -89.562578 0.000000 31.948093 -86.638564 0.000000 31.902370 -83.783039 0.000000 31.626011 -81.001109 0.000000 31.620490 -78.286085 0.000000 31.378426 -75.642047 0.000000 31.404115 -73.063981 0.000000 31.188640 -70.555146 0.000000 31.238471 -68.111770 0.000000 31.043537 -65.736453 0.000000 31.111981 -63.426340 0.000000 30.932862 -61.183494 0.000000 31.015610 -59.005736 0.000000 30.848630 -56.894692 0.000000 30.942339 -54.848677 0.000000 30.784647 -52.868962 0.000000 30.886730 -50.954222 0.000000 30.736125 -49.105442 0.000000 30.844589 -47.321559 0.000000 30.699375 -45.603326 0.000000 30.812684 -43.949876 0.000000 30.671558 -42.361774 0.000000 30.788537 -40.838301 0.000000 30.650499 -39.379877 0.000000 30.770245 -37.985897 0.000000 30.634529 -36.656671 0.000000 30.756349 -35.391684 0.000000 30.622368 -34.191170 0.000000 30.745732 -33.054692 0.000000 30.613033 -31.982433 0.000000 30.737532 -30.974026 0.000000 30.605764 -30.029632 0.000000 30.731077 -29.148951 0.000000 30.599965 -28.332140 0.000000 30.725839 -27.578968 0.000000 30.595162 -26.889611 0.000000 30.721391 -26.263906 0.000000 30.590964 -25.702070 0.000000 30.717371 -25.204008 0.000000 30.587031 -24.769996 0.000000 30.713456 -24.400008 0.000000 30.583052 -24.094400 0.000000 30.709341 -23.853214 0.000000 30.578717 -23.676903 0.000000 30.704707 -23.565577 0.000000 30.573696 -23.519804 0.000000 30.699206 -23.539755 0.000000 30.567614 -23.626140 0.000000 30.692428 -23.779177 0.000000 30.560022 -23.999743 0.000000 30.683878 -24.288090 0.000000 30.550367 -24.645291 0.000000 30.672936 -25.071611 0.000000 30.537953 -25.568355 0.000000 30.658817 -26.135770 0.000000 30.521894 -26.775442 0.000000 30.640516 -27.487558 0.000000 30.501051 -28.274044 0.000000 30.616742 -29.134973 0.000000 30.473959 -30.072689 0.000000 30.585831 -31.087079 0.000000 30.438732 -32.181007 0.000000 30.545641 -33.354081 0.000000 30.392941 -34.609820 0.000000 30.493417 -35.947428 0.000000 30.333466 -37.371256 0.000000 30.425620 -38.879947 0.000000 30.256301 -40.478918 0.000000 30.337718 -42.166045 0.000000 30.156329 -43.948116 0.000000 30.223926 -45.821974 0.000000 30.027027 -47.796186 0.000000 30.076889 -49.866212 0.000000 29.860120 -52.042932 0.000000 29.887298 -54.319969 0.000000 29.645170 -56.711221 0.000000 29.643444 -59.207878 0.000000 29.369082 -61.827780 0.000000 29.330693 -64.558907 0.000000 29.015559 -67.424246 0.000000 28.930909 -70.407547 0.000000 28.564506 -73.538514 0.000000 28.421846 -76.795323 0.000000 27.991418 -80.216438 0.000000 27.776563 -83.772679 0.000000 27.266846 -87.513908 0.000000 26.962952 -91.401229 0.000000 26.356041 -95.499286 0.000000 25.943558 -99.756316 0.000000 25.219003 -104.256066 0.000000 24.675912 -108.929687 0.000000 23.811210 -113.885475 0.000000 23.113780 -119.031823 0.000000 22.085513 -124.508383 0.000000 21.209842 -130.193112 0.000000 19.995788 -136.265400 0.000000 18.920516 -142.562360 0.000000 17.503173 -149.313243 0.000000 16.213828 -156.300187 0.000000 14.585815 -163.814272 0.000000 13.081270 -171.563488 0.000000 11.253051 -179.914505 0.000000 9.554413 -188.475322 0.000000 7.564467 -197.703528 0.000000 5.726223 -207.072722 0.000000 3.653060 -217.147926 0.000000 1.775222 -227.223531 0.000000 -0.250893 -237.989350 0.000000 -2.012921 -248.504290 0.000000 -3.803184 -259.601379 0.000000 -5.237421 -270.037319 0.000000 -6.550916 -280.809608 0.000000 -7.406608 -290.300841 0.000000 -7.981908 -299.701772 0.000000 
-16.745434 -306.959956 0.000000 -16.348091 -314.059721 0.000000 -15.426732 -317.962581 0.000000 -13.548601 -320.293022 0.000000 -11.226202 -318.094628 0.000000 -7.978083 -313.374920 0.000000 -4.609904 -302.823386 0.000000 -0.618398 -288.980283 0.000000 2.880461 -268.380955 0.000000 6.443200 -244.245659 0.000000 8.708648 -213.193105 0.000000 10.406990 -179.173973 0.000000 10.078052 -139.066020 0.000000 8.795995 -97.415589 0.000000 5.137050 -51.407776 0.000000 0.621867 -5.894323 0.000000 -6.141011 41.664833 0.000000 -13.237168 86.380925 0.000000 -22.162497 130.537096 0.000000 -30.752313 169.307387 0.000000 -40.661983 204.751515 0.000000 -49.577225 232.161969 0.000000 -59.124161 253.600213 0.000000 -66.936848 264.793307 0.000000 -74.401709 268.235711 0.000000 -79.343274 260.564327 0.000000 -82.763307 245.055265 0.000000 -83.039329 219.713481 0.000000 -80.780451 188.594972 0.000000 -75.303333 151.295020 0.000000 -67.001262 112.127353 0.000000 -56.312588 71.995251 0.000000 -43.578019 34.545646 0.000000 -30.056399 1.241770 0.000000 -15.890715 -25.643335 0.000000 -2.689373 -44.732975 0.000000 9.867315 -55.400791 0.000000 20.235720 -56.649825 0.000000 29.380822 -49.363362 0.000000 36.071096 -32.853067 0.000000 41.873449 -9.136195 0.000000 45.874264 22.427895 0.000000 49.913546 59.014571 0.000000 53.209040 101.388571 0.000000 57.396362 145.996652 0.000000 61.668355 193.685165 0.000000 67.131747 240.152177 0.000000 72.988881 286.304865 0.000000 79.744089 327.296279 0.000000 86.756974 364.301690 0.000000 94.015425 392.411831 0.000000 101.165929 413.419913 0.000000 107.834006 422.866997 0.000000 114.050583 423.451224 0.000000 119.224836 411.492494 0.000000 123.860584 390.685624 0.000000 127.213965 358.238639 0.000000 130.329384 318.691300 0.000000 132.237370 270.090091 0.000000 134.514883 217.398106 0.000000 135.774059 159.346306 0.000000 138.015217 100.644860 0.000000 139.303092 40.509996 0.000000 141.928514 -17.314198 0.000000 143.571663 -73.225635 0.000000 146.630775 -124.748355 0.000000 148.590299 -171.925152 0.000000 151.763092 -213.549875 0.000000 153.610149 -249.387884 0.000000 156.243017 -279.361263 0.000000 157.284563 -303.084304 0.000000 158.617485 -321.373256 0.000000 158.191511 -333.796449 0.000000 157.669324 -341.763100 0.000000 155.420254 -344.838799 0.000000 152.888192 -344.710349 0.000000 148.869190 -340.935350 0.000000 144.574001 -335.211338 0.000000 139.171718 -327.069392 0.000000 133.623073 -318.038883 0.000000 127.392116 -307.618260 0.000000 121.184198 -297.082593 0.000000 114.683932 -285.910500 0.000000 108.353390 -275.108617 0.000000 102.040281 -264.160299 0.000000 95.990484 -253.831909 0.000000 90.175537 -243.637111 0.000000 84.660361 -234.146888 0.000000 79.514685 -224.924242 0.000000 74.658936 -216.390271 0.000000 70.243629 -208.167261 0.000000 66.077684 -200.565103 0.000000 62.379340 -193.267280 0.000000 58.873406 -186.502501 0.000000 55.835015 -180.011854 0.000000 52.926398 -173.965080 0.000000 50.470118 -168.154290 0.000000 48.082194 -162.706313 0.000000 46.124273 -157.456606 0.000000 44.178359 -152.500605 0.000000 42.637931 -147.709525 0.000000 41.059971 -143.155673 0.000000 39.863613 -138.739140 0.000000 38.587423 -134.515074 0.000000 37.671031 -130.406521 0.000000 36.639440 -126.455801 0.000000 35.948531 -122.603993 0.000000 35.113310 -118.883759 0.000000 34.602474 -115.250212 0.000000 33.923646 -111.728693 0.000000 33.555587 -108.285153 0.000000 33.000465 -104.939345 0.000000 32.744907 -101.665535 0.000000 32.287048 -98.479187 0.000000 32.119649 -95.360909 0.000000 31.737854 -92.322847 0.000000 31.639196 -89.350425 0.000000 31.316601 -86.453209 0.000000 31.271302 -83.620257 0.000000 30.994578 -80.859119 0.000000 30.990525 -78.161585 0.000000 30.749198 -75.533616 0.000000 30.776907 -72.969049 0.000000 30.562792 -70.472589 0.000000 30.614869 -68.039595 0.000000 30.421597 -65.673776 0.000000 30.492307 -63.371620 0.000000 30.314945 -61.136040 0.000000 30.399855 -58.964359 0.000000 30.234598 -56.858857 0.000000 30.330295 -54.817469 0.000000 30.174219 -52.841967 0.000000 30.278085 -50.930740 0.000000 30.128949 -49.085152 0.000000 30.238982 -47.303926 0.000000 30.095075 -45.588105 0.000000 30.209746 -43.936656 0.000000 30.069764 -42.350370 0.000000 30.187912 -40.828399 0.000000 30.050864 -39.371334 0.000000 30.171606 -37.978475 0.000000 30.036740 -36.650260 0.000000 30.159405 -35.386103 0.000000 30.026148 -34.186335 0.000000 30.150226 -33.050463 0.000000 30.018144 -31.978746 0.000000 30.143244 -30.970775 0.000000 30.012002 -30.026764 0.000000 30.137824 -29.146383 0.000000 30.007163 -28.329831 0.000000 30.133470 -27.576851 0.000000 30.003183 -26.887652 0.000000 30.129783 -26.262050 0.000000 29.999699 -25.700285 0.000000 30.126430 -25.202247 0.000000 29.996398 -24.768227 0.000000 30.123112 -24.398190 0.000000 29.992993 -24.092498 0.000000 30.119545 -23.851188 0.000000 29.989194 -23.674714 0.000000 30.115431 -23.563180 0.000000 29.984690 -23.517154 0.000000 30.110439 -23.536803 0.000000 29.979124 -23.622827 0.000000 30.104176 -23.775445 0.000000 29.972062 -23.995519 0.000000 30.096160 -24.283302 0.000000 29.962963 -24.639845 0.000000 30.085780 -25.065417 0.000000 29.951140 -25.561292 0.000000 30.072256 -26.127723 0.000000 29.935709 -26.766253 0.000000 30.054584 -27.477080 0.000000 29.915527 -28.262073 0.000000 30.031458 -29.121319 0.000000 29.889113 -30.057087 0.000000 30.001189 -31.069286 0.000000 29.854542 -32.160680 0.000000 29.961583 -33.330906 0.000000 29.809324 -34.583351 0.000000 29.909800 -35.917264 0.000000 29.750231 -37.336822 0.000000 29.842166 -38.840729 0.000000 29.673098 -40.434176 0.000000 29.753940 -42.115121 0.000000 29.572556 -43.890062 0.000000 29.639030 -45.755951 0.000000 29.441714 -47.720984 0.000000 29.489622 -49.780768 0.000000 29.271759 -51.945706 0.000000 29.295748 -54.209624 0.000000 29.051471 -56.585806 0.000000 29.044752 -59.065724 0.000000 28.766647 -61.666431 0.000000 28.720661 -64.376298 0.000000 28.399426 -67.217306 0.000000 28.303462 -70.173748 0.000000 27.927524 -73.274055 0.000000 27.768302 -76.497153 0.000000 27.323415 -79.879898 0.000000 27.084657 -83.394158 0.000000 26.553516 -87.087773 0.000000 26.215552 -90.923307 0.000000 25.577490 -94.962884 0.000000 25.116992 -99.156783 0.000000 24.347877 -103.585625 0.000000 23.737859 -108.183411 0.000000 22.810372 -113.054607 0.000000 22.020679 -118.111572 0.000000 20.905244 -123.489311 0.000000 19.903863 -129.071288 0.000000 18.570628 -135.031312 0.000000 17.326293 -141.214104 0.000000 15.748710 -147.842291 0.000000 14.235407 -154.708432 0.000000 12.396084 -162.095817 0.000000 10.600208 -169.726547 0.000000 8.499787 -177.958174 0.000000 6.430678 -186.417490 0.000000 4.100339 -195.551326 0.000000 1.804586 -204.857756 0.000000 -0.677838 -214.888760 0.000000 -3.098904 -224.969642 0.000000 -5.590713 -235.773543 0.000000 -7.963050 -246.396823 0.000000 -10.240784 -257.649584 0.000000 -12.305701 -268.331444 0.000000 -14.060717 -279.406069 0.000000 -15.481133 -289.301703 0.000000 -16.342071 -299.157090 0.000000 
-24.500743 -306.949883 0.000000 -24.343885 -314.811066 0.000000 -23.416413 -319.577587 0.000000 -21.309665 -322.754453 0.000000 -18.406930 -321.397502 0.000000 -14.274910 -317.375763 0.000000 -9.614196 -307.351425 0.000000 -4.018521 -293.733330 0.000000 1.435235 -273.015284 0.000000 7.145265 -248.343980 0.000000 11.693865 -216.332451 0.000000 15.623657 -180.965863 0.000000 17.330375 -139.190917 0.000000 17.761521 -95.688644 0.000000 15.291561 -47.767112 0.000000 11.478554 -0.417686 0.000000 4.654278 48.790608 0.000000 -3.017986 94.927087 0.000000 -13.472691 140.207609 0.000000 -24.083757 179.835930 0.000000 -37.134169 215.794789 0.000000 -49.603410 243.346750 0.000000 -63.769136 264.450238 0.000000 -76.304245 274.754362 0.000000 -89.134031 276.713682 0.000000 -99.005186 266.885720 0.000000 -107.245750 248.653656 0.000000 -111.273518 220.016478 0.000000 -111.783486 185.322064 0.000000 -107.536504 144.332051 0.000000 -98.898657 101.737845 0.000000 -86.361186 58.751832 0.000000 -70.282952 19.197659 0.000000 -52.438580 -15.231415 0.000000 -32.935677 -42.351303 0.000000 -14.149695 -60.745498 0.000000 4.439202 -70.067854 0.000000 20.438498 -69.457340 0.000000 35.234973 -60.148787 0.000000 46.772162 -41.650650 0.000000 57.258568 -16.260236 0.000000 64.985732 16.574315 0.000000 72.567655 53.919947 0.000000 78.380158 96.659065 0.000000 84.830432 141.261224 0.000000 90.199221 188.813786 0.000000 96.338672 235.036520 0.000000 101.571324 281.069382 0.000000 107.185097 322.020095 0.000000 111.798141 359.222284 0.000000 116.248706 387.681989 0.000000 119.580660 409.255284 0.000000 122.308712 419.389155 0.000000 123.957161 420.752007 0.000000 124.816001 409.566558 0.000000 124.975990 389.441460 0.000000 124.498905 357.496411 0.000000 124.149575 318.202531 0.000000 123.560873 269.569883 0.000000 124.187256 216.586210 0.000000 124.843882 158.041498 0.000000 127.547502 98.728853 0.000000 130.049556 37.996315 0.000000 134.821159 -20.452639 0.000000 138.893723 -76.805712 0.000000 145.026074 -128.731845 0.000000 149.885931 -176.004943 0.000000 156.279580 -217.617726 0.000000 160.814381 -253.072688 0.000000 166.168316 -282.526782 0.000000 169.186083 -305.392481 0.000000 172.341590 -322.737743 0.000000 172.950876 -333.999772 0.000000 173.248989 -340.823015 0.000000 171.129656 -342.690249 0.000000 168.551608 -341.476271 0.000000 163.969084 -336.677484 0.000000 159.024488 -330.118593 0.000000 152.641809 -321.274984 0.000000 146.121404 -311.746758 0.000000 138.745722 -300.977807 0.000000 131.473142 -290.272508 0.000000 123.847311 -279.058528 0.000000 116.510810 -268.347506 0.000000 109.198008 -257.579424 0.000000 102.279774 -247.514986 0.000000 95.635344 -237.634388 0.000000 89.414924 -228.500668 0.000000 83.613467 -219.653286 0.000000 78.209574 -211.506982 0.000000 73.294027 -203.668877 0.000000 68.715874 -196.445137 0.000000 64.646375 -189.510337 0.000000 60.838520 -183.091804 0.000000 57.530994 -176.925968 0.000000 54.406222 -171.182827 0.000000 51.758782 -165.652510 0.000000 49.219442 -160.463062 0.000000 47.128522 -155.449523 0.000000 45.078970 -150.709001 0.000000 43.448093 -146.113131 0.000000 41.801103 -141.736021 0.000000 40.544910 -137.478579 0.000000 39.224331 -133.397688 0.000000 38.269778 -129.417350 0.000000 37.211036 -125.581457 0.000000 36.497053 -121.832044 0.000000 35.646510 -118.203144 0.000000 35.122896 -114.650749 0.000000 34.436676 -111.201367 0.000000 34.062699 -107.821720 0.000000 33.505340 -104.532538 0.000000 33.248295 -101.308744 0.000000 32.791412 -98.166604 0.000000 32.625260 -95.087276 0.000000 32.246319 -92.083558 0.000000 32.150480 -89.141325 0.000000 31.831714 -86.270669 0.000000 31.790028 -83.461015 0.000000 31.517517 -80.720333 0.000000 31.517364 -78.040706 0.000000 31.280260 -75.428429 0.000000 31.311836 -72.877574 0.000000 31.101729 -70.393108 0.000000 31.157452 -67.970575 0.000000 30.967852 -65.613891 0.000000 31.041885 -63.319688 0.000000 30.867804 -61.091042 0.000000 30.955672 -58.925389 0.000000 30.793292 -56.825133 0.000000 30.891576 -54.788298 0.000000 30.737987 -52.816752 0.000000 30.844085 -50.908952 0.000000 30.697075 -49.066338 0.000000 30.809014 -47.287685 0.000000 30.666908 -45.574090 0.000000 30.783193 -43.924565 0.000000 30.644728 -42.339940 0.000000 30.764234 -40.819401 0.000000 30.628456 -39.363571 0.000000 30.750335 -37.971772 0.000000 30.616529 -36.644469 0.000000 30.740144 -35.381092 0.000000 30.607771 -34.181991 0.000000 30.732641 -33.046687 0.000000 30.601296 -31.975451 0.000000 30.727059 -30.967885 0.000000 30.596434 -30.024212 0.000000 30.722813 -29.144112 0.000000 30.592672 -28.327786 0.000000 30.719452 -27.574988 0.000000 30.589607 -26.885924 0.000000 30.716615 -26.260422 0.000000 30.586915 -25.698717 0.000000 30.714004 -25.200707 0.000000 30.584314 -24.766678 0.000000 30.711353 -24.396602 0.000000 30.581546 -24.090833 0.000000 30.708403 -23.849415 0.000000 30.578349 -23.672790 0.000000 30.704883 -23.561073 0.000000 30.574436 -23.514812 0.000000 30.700486 -23.534189 0.000000 30.569473 -23.619877 0.000000 30.694841 -23.772115 0.000000 30.563048 -23.991726 0.000000 30.687487 -24.278991 0.000000 30.554641 -24.634911 0.000000 30.677835 -25.059788 0.000000 30.543583 -25.554832 0.000000 30.665123 -26.120339 0.000000 30.529008 -26.757770 0.000000 30.648358 -27.467376 0.000000 30.509783 -28.250919 0.000000 30.626246 -29.108558 0.000000 30.484432 -30.042420 0.000000 30.597095 -31.052508 0.000000 30.451024 -32.141402 0.000000 30.558697 -33.308863 0.000000 30.407038 -34.558037 0.000000 30.508170 -35.888335 0.000000 30.349192 -37.303621 0.000000 30.441762 -38.802814 0.000000 30.273215 -40.390693 0.000000 30.354602 -42.065503 0.000000 30.173569 -43.833205 0.000000 30.240378 -45.691132 0.000000 30.043091 -47.646778 0.000000 30.090945 -49.696257 0.000000 29.872554 -51.849058 0.000000 29.895825 -54.099681 0.000000 29.650115 -56.460225 0.000000 29.641608 -58.923054 0.000000 29.360657 -61.503689 0.000000 29.311220 -64.191686 0.000000 28.984991 -67.007047 0.000000 28.883063 -69.935644 0.000000 28.498938 -73.003355 0.000000 28.330031 -76.191214 0.000000 27.872292 -79.532793 0.000000 27.618434 -83.002780 0.000000 27.067726 -86.644803 0.000000 26.706900 -90.425203 0.000000 26.039740 -94.400726 0.000000 25.545408 -98.526704 0.000000 24.733844 -102.876933 0.000000 24.074693 -107.392182 0.000000 23.086306 -112.168295 0.000000 22.226457 -117.126694 0.000000 21.024991 -122.391567 0.000000 19.925022 -127.858497 0.000000 18.472101 -133.687830 0.000000 17.091437 -139.740442 0.000000 15.350000 -146.222357 0.000000 13.651417 -152.947561 0.000000 11.591746 -160.179074 0.000000 9.548979 -167.667191 0.000000 7.158387 -175.744975 0.000000 4.767978 -184.075874 0.000000 2.065256 -193.077436 0.000000 -0.636366 -202.294546 0.000000 -3.581036 -212.244436 0.000000 -6.495017 -222.310656 0.000000 -9.535349 -233.125204 0.000000 -12.474282 -243.854219 0.000000 -15.362046 -255.258728 0.000000 -18.026361 -266.217386 0.000000 -20.393779 -277.634176 0.000000 -22.364016 -288.019488 0.000000 -23.732464 -298.437471 0.000000 