# vtk DataFile Version 2.0
Comment goes here
ASCII

DATASET STRUCTURED_POINTS
FIELD FieldData 1
TIME 1 1 double
0.04900000
DIMENSIONS    230   46   1

ORIGIN    0.000   0.000   0.000
SPACING   0.013043 0.013043   1.000

POINT_DATA   10580
VECTORS u double

32.049991 -378.945377 0.000000 33.156885 -386.423839 0.000000 35.102635 -391.369031 0.000000 37.371351 -395.084598 0.000000 40.497707 -394.938871 0.000000 43.911947 -392.519432 0.000000 48.031444 -384.816833 0.000000 52.260610 -373.836709 0.000000 56.847741 -356.362688 0.000000 61.269539 -334.959719 0.000000 65.589411 -306.429743 0.000000 69.535762 -273.960101 0.000000 73.003998 -234.576177 0.000000 76.183257 -191.993473 0.000000 78.796523 -143.596494 0.000000 81.623526 -93.394819 0.000000 84.127658 -39.223526 0.000000 87.649212 14.863863 0.000000 91.244235 70.491260 0.000000 96.649301 123.730417 0.000000 102.420859 175.614909 0.000000 110.476909 222.485431 0.000000 118.920739 264.872721 0.000000 129.622335 299.637558 0.000000 140.379441 327.029511 0.000000 152.794102 344.802796 0.000000 164.592790 353.177001 0.000000 176.955820 351.235556 0.000000 187.875522 339.319518 0.000000 198.075884 318.211359 0.000000 206.238593 288.295624 0.000000 212.689622 252.187470 0.000000 217.178918 209.969248 0.000000 219.651767 165.931910 0.000000 221.051973 119.401780 0.000000 220.810655 76.025542 0.000000 220.833074 34.015065 0.000000 219.814514 -0.013631 0.000000 220.163487 -29.231157 0.000000 219.747441 -46.548686 0.000000 221.099832 -56.795539 0.000000 221.472686 -52.960568 0.000000 223.394353 -41.769830 0.000000 223.991919 -16.680486 0.000000 225.815525 13.692014 0.000000 226.403327 55.397685 0.000000 228.251517 98.327769 0.000000 229.594568 148.366732 0.000000 232.511786 194.584904 0.000000 235.879317 243.151581 0.000000 240.840555 283.006765 0.000000 246.778951 320.978808 0.000000 253.566050 346.475173 0.000000 261.120649 367.227088 0.000000 268.048758 373.559256 0.000000 274.993296 374.152701 0.000000 279.575627 360.469695 0.000000 283.367003 341.921103 0.000000 283.419254 311.071400 0.000000 282.303175 277.597399 0.000000 276.903747 234.949703 0.000000 270.632445 192.492695 0.000000 260.462519 144.300932 0.000000 250.276121 98.897108 0.000000 237.215032 50.809056 0.000000 225.184671 7.377985 0.000000 211.475313 -36.440769 0.000000 199.647089 -74.594470 0.000000 187.115951 -111.636272 0.000000 176.892043 -142.737660 0.000000 166.542848 -171.897321 0.000000 158.484294 -195.366181 0.000000 150.503920 -216.575432 0.000000 144.483768 -232.686855 0.000000 138.506500 -246.595624 0.000000 134.020855 -256.202128 0.000000 129.452888 -263.915572 0.000000 125.914179 -268.207682 0.000000 122.182356 -271.053046 0.000000 119.104973 -271.343310 0.000000 115.784928 -270.667585 0.000000 112.855700 -268.212599 0.000000 109.699061 -265.231273 0.000000 106.768553 -261.112024 0.000000 103.672367 -256.822278 0.000000 100.709893 -251.888035 0.000000 97.666594 -247.041803 0.000000 94.709808 -241.905924 0.000000 91.760826 -237.025556 0.000000 88.875300 -232.093758 0.000000 86.077531 -227.510381 0.000000 83.330416 -223.023174 0.000000 80.736198 -218.921898 0.000000 78.182212 -214.998436 0.000000 75.829837 -211.460701 0.000000 73.505940 -208.137161 0.000000 71.417030 -205.175787 0.000000 69.342340 -202.435748 0.000000 67.523057 -200.021638 0.000000 65.701407 -197.818450 0.000000 64.145414 -195.899698 0.000000 62.568894 -194.172019 0.000000 61.260791 -192.686837 0.000000 59.913333 -191.368816 0.000000 58.831874 -190.253792 0.000000 57.692398 -189.281330 0.000000 56.813199 -188.476332 0.000000 55.858145 -187.790588 0.000000 55.155779 -187.241369 0.000000 54.361006 -186.790421 0.000000 53.810516 -186.449712 0.000000 53.152637 -186.189039 0.000000 52.730551 -186.016699 0.000000 52.187797 -185.908950 0.000000 51.872740 -185.871558 0.000000 51.425457 -185.885936 0.000000 51.198454 -185.956103 0.000000 50.829325 -186.067558 0.000000 50.673887 -186.223115 0.000000 50.367965 -186.411497 0.000000 50.270018 -186.634678 0.000000 50.014625 -186.883908 0.000000 49.962350 -187.160579 0.000000 49.746897 -187.457909 0.000000 49.730508 -187.776876 0.000000 49.546279 -188.112226 0.000000 49.557780 -188.464642 0.000000 49.397690 -188.830049 0.000000 49.430631 -189.208912 0.000000 49.288993 -189.598060 0.000000 49.338230 -189.997800 0.000000 49.210536 -190.405652 0.000000 49.272016 -190.821797 0.000000 49.154730 -191.244285 0.000000 49.225295 -191.673201 0.000000 49.115679 -192.106995 0.000000 49.192897 -192.545677 0.000000 49.088854 -192.988002 0.000000 49.170874 -193.433919 0.000000 49.070818 -193.882415 0.000000 49.156248 -194.333393 0.000000 49.058994 -194.786015 0.000000 49.146802 -195.240150 0.000000 49.051477 -195.695097 0.000000 49.140906 -196.150697 0.000000 49.046876 -196.606358 0.000000 49.137380 -197.061903 0.000000 49.044189 -197.516830 0.000000 49.135379 -197.970949 0.000000 49.042707 -198.423836 0.000000 49.134311 -198.875295 0.000000 49.041936 -199.324976 0.000000 49.133766 -199.772683 0.000000 49.041535 -200.218133 0.000000 49.133462 -200.661139 0.000000 49.041271 -201.101491 0.000000 49.133207 -201.539011 0.000000 49.040984 -201.973569 0.000000 49.132866 -202.405004 0.000000 49.040558 -202.833275 0.000000 49.132340 -203.258237 0.000000 49.039904 -203.679958 0.000000 49.131542 -204.098310 0.000000 49.038936 -204.513487 0.000000 49.130388 -204.925380 0.000000 49.037564 -205.334333 0.000000 49.128777 -205.740256 0.000000 49.035675 -206.143671 0.000000 49.126582 -206.544501 0.000000 49.033123 -206.943491 0.000000 49.123633 -207.340560 0.000000 49.029709 -207.736730 0.000000 49.119697 -208.131900 0.000000 49.025160 -208.527426 0.000000 49.114459 -208.923165 0.000000 49.019108 -209.320889 0.000000 49.107486 -209.720371 0.000000 49.011048 -210.123901 0.000000 49.098191 -210.531114 0.000000 49.000291 -210.944949 0.000000 49.085773 -211.364825 0.000000 48.985904 -211.794494 0.000000 49.069143 -212.233057 0.000000 48.966617 -212.685293 0.000000 49.046825 -213.149838 0.000000 48.940709 -213.632772 0.000000 49.016822 -214.132078 0.000000 48.905856 -214.655489 0.000000 48.976436 -215.200079 0.000000 48.858928 -215.775689 0.000000 48.922046 -216.378142 0.000000 48.795730 -217.019989 0.000000 48.848812 -217.695347 0.000000 48.710676 -218.420246 0.000000 48.750311 -219.186502 0.000000 48.596380 -220.014637 0.000000 48.618092 -220.893373 0.000000 48.443175 -221.849035 0.000000 48.441151 -222.866213 0.000000 48.238554 -223.978745 0.000000 48.205350 -225.165712 0.000000 47.966567 -226.470679 0.000000 47.892822 -227.865405 0.000000 47.607252 -229.406042 0.000000 47.481445 -231.054614 0.000000 47.136210 -232.883531 0.000000 46.944580 -234.841872 0.000000 46.524546 -237.022975 0.000000 46.251306 -239.358668 0.000000 45.739518 -241.969093 0.000000 45.367616 -244.763013 0.000000 44.746420 -247.894660 0.000000 44.259175 -251.241828 0.000000 43.512430 -255.001691 0.000000 42.896511 -259.010264 0.000000 42.013421 -263.518128 0.000000 41.263749 -268.304666 0.000000 40.244910 -273.685815 0.000000 39.372057 -279.363896 0.000000 38.238275 -285.733187 0.000000 37.278797 -292.390983 0.000000 36.082841 -299.823110 0.000000 35.112248 -307.484067 0.000000 33.952696 -315.963498 0.000000 33.099293 -324.523416 0.000000 32.133516 -333.867510 0.000000 31.588497 -343.002868 0.000000 31.038330 -352.755411 0.000000 31.053224 -361.804779 0.000000 31.192122 -371.108380 0.000000 
24.661870 -379.656616 0.000000 25.439276 -387.732873 0.000000 27.236006 -393.331812 0.000000 29.523516 -397.726445 0.000000 32.933799 -398.258973 0.000000 36.868613 -396.446599 0.000000 41.822001 -389.267072 0.000000 47.135259 -378.618521 0.000000 53.080833 -361.323873 0.000000 59.027660 -339.821969 0.000000 64.988309 -311.055529 0.000000 70.559059 -278.086547 0.000000 75.511045 -238.208091 0.000000 79.935799 -195.000987 0.000000 83.372865 -146.210416 0.000000 86.612918 -95.655514 0.000000 88.870305 -41.542948 0.000000 91.660671 12.354418 0.000000 93.694844 67.351324 0.000000 97.081456 119.856259 0.000000 99.932481 170.690186 0.000000 104.744660 216.504750 0.000000 109.136210 257.737387 0.000000 115.708802 291.480301 0.000000 121.805834 318.017905 0.000000 129.792251 335.210533 0.000000 137.052006 343.412339 0.000000 145.414836 341.636195 0.000000 152.721973 330.398802 0.000000 160.098744 310.199268 0.000000 166.310402 281.590119 0.000000 171.741315 246.718112 0.000000 176.458215 205.835567 0.000000 180.103949 162.703379 0.000000 184.142199 116.885028 0.000000 187.387145 73.612708 0.000000 192.391746 31.450828 0.000000 196.962373 -3.168043 0.000000 204.158973 -33.005496 0.000000 210.724448 -50.976131 0.000000 219.774073 -61.601236 0.000000 227.272709 -57.836969 0.000000 236.288955 -46.355388 0.000000 242.633891 -20.639115 0.000000 249.465894 10.462018 0.000000 253.152525 52.966614 0.000000 256.984734 96.374323 0.000000 258.295286 146.701171 0.000000 260.166979 192.662285 0.000000 260.819960 240.834162 0.000000 262.506889 279.892019 0.000000 264.104777 317.271361 0.000000 266.560744 342.124782 0.000000 269.354651 362.815052 0.000000 272.012923 369.335808 0.000000 274.780451 370.869418 0.000000 275.958101 358.458104 0.000000 276.794545 341.797344 0.000000 274.732224 313.008721 0.000000 272.161473 281.830827 0.000000 266.051612 241.365187 0.000000 259.826141 200.887777 0.000000 250.234923 154.320846 0.000000 241.379930 110.038361 0.000000 229.900308 62.645502 0.000000 220.110424 19.328354 0.000000 208.586050 -24.695545 0.000000 199.441785 -63.527392 0.000000 189.260015 -101.359994 0.000000 181.697410 -133.534503 0.000000 173.463914 -163.675448 0.000000 167.663537 -188.233518 0.000000 161.278903 -210.306444 0.000000 156.878998 -227.283580 0.000000 151.840690 -241.787422 0.000000 148.263964 -251.956887 0.000000 143.984662 -259.985696 0.000000 140.703992 -264.574015 0.000000 136.719873 -267.525103 0.000000 133.391753 -267.932807 0.000000 129.437473 -267.246354 0.000000 125.918582 -264.820732 0.000000 121.908251 -261.791801 0.000000 118.206730 -257.681937 0.000000 114.174051 -253.359600 0.000000 110.383241 -248.454465 0.000000 106.419549 -243.615743 0.000000 102.662068 -238.544812 0.000000 98.870444 -233.717665 0.000000 95.261915 -228.887294 0.000000 91.730581 -224.397093 0.000000 88.361510 -220.040306 0.000000 85.152554 -216.061387 0.000000 82.082908 -212.286921 0.000000 79.230742 -208.889020 0.000000 76.491799 -205.722779 0.000000 74.006667 -202.908258 0.000000 71.606181 -200.325189 0.000000 69.479611 -198.056659 0.000000 67.407861 -196.003635 0.000000 65.618293 -194.223220 0.000000 63.853749 -192.634529 0.000000 62.371484 -191.276576 0.000000 60.885555 -190.083817 0.000000 59.676725 -189.082772 0.000000 58.437433 -188.220725 0.000000 57.466967 -187.515635 0.000000 56.441631 -186.925394 0.000000 55.675333 -186.462135 0.000000 54.832402 -186.092438 0.000000 54.238296 -185.824494 0.000000 53.548505 -185.631934 0.000000 53.097619 -185.520297 0.000000 52.534637 -185.468888 0.000000 52.201366 -185.481469 0.000000 51.742061 -185.541873 0.000000 51.504238 -185.652672 0.000000 51.128694 -185.801290 0.000000 50.967459 -185.989501 0.000000 50.658824 -186.207554 0.000000 50.558379 -186.456683 0.000000 50.302606 -186.729347 0.000000 50.249901 -187.026410 0.000000 50.035441 -187.342049 0.000000 50.019833 -187.676868 0.000000 49.837314 -188.026371 0.000000 49.850226 -188.390975 0.000000 49.692132 -188.767202 0.000000 49.726733 -189.155331 0.000000 49.587107 -189.552659 0.000000 49.638017 -189.959362 0.000000 49.512191 -190.373325 0.000000 49.575219 -190.794638 0.000000 49.459577 -191.221635 0.000000 49.531496 -191.654337 0.000000 49.423269 -192.091413 0.000000 49.501622 -192.532829 0.000000 49.398713 -192.977508 0.000000 49.481652 -193.425367 0.000000 49.382494 -193.875523 0.000000 49.468644 -194.327855 0.000000 49.372082 -194.781627 0.000000 49.460435 -195.236685 0.000000 49.365627 -195.692408 0.000000 49.455455 -196.148621 0.000000 49.361796 -196.604791 0.000000 49.452579 -197.060728 0.000000 49.359645 -197.515974 0.000000 49.451019 -197.970330 0.000000 49.358512 -198.423405 0.000000 49.450225 -198.874995 0.000000 49.357944 -199.324774 0.000000 49.449825 -199.772538 0.000000 49.357633 -200.218025 0.000000 49.449566 -200.661039 0.000000 49.357370 -201.101386 0.000000 49.449276 -201.538879 0.000000 49.357013 -201.973403 0.000000 49.448834 -202.404785 0.000000 49.356455 -202.832997 0.000000 49.448148 -203.257886 0.000000 49.355610 -203.679527 0.000000 49.447131 -204.097784 0.000000 49.354392 -204.512857 0.000000 49.445693 -204.924629 0.000000 49.352699 -205.333450 0.000000 49.443722 -205.739219 0.000000 49.350404 -206.142466 0.000000 49.441071 -206.543097 0.000000 49.347336 -206.941868 0.000000 49.437542 -207.338681 0.000000 49.343265 -207.734563 0.000000 49.432865 -208.129394 0.000000 49.337875 -208.524542 0.000000 49.426675 -208.919831 0.000000 49.330741 -209.317050 0.000000 49.418476 -209.715932 0.000000 49.321281 -210.118787 0.000000 49.407591 -210.525196 0.000000 49.308709 -210.938123 0.000000 49.393107 -211.356918 0.000000 49.291958 -211.785365 0.000000 49.373784 -212.222472 0.000000 49.269584 -212.673058 0.000000 49.347941 -213.135641 0.000000 49.239629 -213.616348 0.000000 49.313308 -214.113007 0.000000 49.199450 -214.633412 0.000000 49.266818 -215.174433 0.000000 49.145486 -215.745992 0.000000 49.204345 -216.343643 0.000000 49.072950 -216.980041 0.000000 49.120359 -217.648951 0.000000 48.975443 -218.366545 0.000000 49.007484 -219.124178 0.000000 48.844462 -219.942561 0.000000 48.855958 -220.809821 0.000000 48.668793 -221.752540 0.000000 48.652963 -222.754542 0.000000 48.433793 -223.850019 0.000000 48.381854 -225.017076 0.000000 48.120564 -226.299775 0.000000 48.021310 -227.668639 0.000000 47.705093 -229.180524 0.000000 47.544477 -230.795915 0.000000 47.157447 -232.588225 0.000000 46.918282 -234.504644 0.000000 46.441250 -236.639954 0.000000 46.103162 -238.923700 0.000000 45.513792 -241.478116 0.000000 45.053693 -244.209267 0.000000 44.327334 -247.274407 0.000000 43.720804 -250.548236 0.000000 42.832489 -254.232270 0.000000 42.056627 -258.159093 0.000000 40.984895 -262.585474 0.000000 40.023417 -267.287155 0.000000 38.756825 -272.588752 0.000000 37.608316 -278.188921 0.000000 36.155601 -284.493832 0.000000 34.845859 -291.097307 0.000000 33.250550 -298.500906 0.000000 31.849460 -306.155970 0.000000 30.208870 -314.671907 0.000000 28.850836 -323.307667 0.000000 27.337250 -332.789813 0.000000 26.241049 -342.121515 0.000000 25.118615 -352.151599 0.000000 24.596917 -361.552843 0.000000 24.220943 -371.299102 0.000000 
17.594006 -380.163711 0.000000 18.181938 -388.997975 0.000000 19.754319 -395.453271 0.000000 22.215202 -400.782391 0.000000 25.848511 -402.283967 0.000000 30.489216 -401.407633 0.000000 36.267945 -395.083479 0.000000 42.893015 -385.095541 0.000000 50.272748 -368.255089 0.000000 57.998223 -346.867195 0.000000 65.760780 -317.961142 0.000000 73.176373 -284.482837 0.000000 79.827777 -243.952917 0.000000 85.611796 -199.855293 0.000000 90.121767 -150.273613 0.000000 93.754478 -98.892259 0.000000 96.072871 -44.271279 0.000000 98.008780 10.039324 0.000000 98.878996 65.070475 0.000000 100.043591 117.492780 0.000000 100.428200 167.951705 0.000000 101.695960 213.281701 0.000000 102.488714 253.908580 0.000000 104.553486 286.967934 0.000000 106.411250 312.946062 0.000000 109.567290 329.556624 0.000000 112.646318 337.554417 0.000000 116.622240 335.565590 0.000000 120.549658 324.635610 0.000000 124.720878 304.622931 0.000000 129.001241 276.653053 0.000000 132.997268 242.039656 0.000000 137.698547 201.606614 0.000000 142.076394 158.247926 0.000000 148.312296 112.118583 0.000000 154.688063 67.775994 0.000000 164.223491 24.439838 0.000000 174.278492 -11.780857 0.000000 188.026054 -42.993232 0.000000 201.773009 -62.163785 0.000000 218.383271 -73.343800 0.000000 233.393782 -69.475451 0.000000 249.374528 -57.131012 0.000000 261.818243 -29.857425 0.000000 273.332788 3.173380 0.000000 280.258095 47.878845 0.000000 285.468491 93.185007 0.000000 286.689179 145.184487 0.000000 286.755689 192.060230 0.000000 284.616478 240.811672 0.000000 282.306528 279.721948 0.000000 279.611511 316.924952 0.000000 277.156072 341.225298 0.000000 275.388747 361.774909 0.000000 273.343212 368.133456 0.000000 272.215711 370.207524 0.000000 269.646090 358.455601 0.000000 267.774607 343.146980 0.000000 263.283342 315.704472 0.000000 259.371981 286.278011 0.000000 252.260371 247.285035 0.000000 246.059554 208.309384 0.000000 236.849527 162.747143 0.000000 229.249485 119.231723 0.000000 219.334205 72.078562 0.000000 211.738579 28.692243 0.000000 202.591831 -15.772130 0.000000 196.145481 -55.268436 0.000000 188.665652 -93.891897 0.000000 183.809263 -126.941558 0.000000 178.109095 -157.863448 0.000000 174.592037 -183.181170 0.000000 170.197544 -205.790892 0.000000 167.389192 -223.248643 0.000000 163.610952 -237.980590 0.000000 160.857358 -248.346100 0.000000 157.104885 -256.355599 0.000000 153.959178 -260.942893 0.000000 149.893594 -263.740807 0.000000 146.181750 -264.060910 0.000000 141.720262 -263.194414 0.000000 137.491612 -260.683377 0.000000 132.730984 -257.519421 0.000000 128.164333 -253.377823 0.000000 123.287607 -248.998790 0.000000 118.604129 -244.133534 0.000000 113.807326 -239.320630 0.000000 109.212114 -234.356819 0.000000 104.661252 -229.625403 0.000000 100.314453 -224.953895 0.000000 96.128227 -220.609976 0.000000 92.137498 -216.445147 0.000000 88.386343 -212.643296 0.000000 84.811342 -209.076623 0.000000 81.524652 -205.869592 0.000000 78.386579 -202.913086 0.000000 75.562631 -200.290169 0.000000 72.854696 -197.908692 0.000000 70.470329 -195.823318 0.000000 68.167128 -193.957132 0.000000 66.185910 -192.345587 0.000000 64.250980 -190.925210 0.000000 62.629536 -189.718643 0.000000 61.021036 -188.674057 0.000000 59.713636 -187.805670 0.000000 58.388374 -187.071572 0.000000 57.350070 -186.480530 0.000000 56.266189 -185.998954 0.000000 55.454809 -185.632139 0.000000 54.573452 -185.353384 0.000000 53.950743 -185.165816 0.000000 53.236959 -185.048363 0.000000 52.769115 -185.002830 0.000000 52.192239 -185.012697 0.000000 51.850009 -185.078982 0.000000 51.383670 -185.188807 0.000000 51.142193 -185.342736 0.000000 50.764105 -185.530780 0.000000 50.602573 -185.753245 0.000000 50.294184 -186.002417 0.000000 50.195425 -186.278460 0.000000 49.941500 -186.575430 0.000000 49.891518 -186.893415 0.000000 49.679704 -187.227841 0.000000 49.667229 -187.578748 0.000000 49.487627 -187.942619 0.000000 49.503687 -188.319460 0.000000 49.348454 -188.706555 0.000000 49.385985 -189.103886 0.000000 49.248977 -189.509344 0.000000 49.302477 -189.922884 0.000000 49.178936 -190.342854 0.000000 49.244168 -190.769183 0.000000 49.130447 -191.200562 0.000000 49.204183 -191.636893 0.000000 49.097521 -192.077121 0.000000 49.177332 -192.521122 0.000000 49.075665 -192.968031 0.000000 49.159743 -193.417700 0.000000 49.061545 -193.869407 0.000000 49.148563 -194.322980 0.000000 49.052722 -194.777806 0.000000 49.141719 -195.233695 0.000000 49.047438 -195.690116 0.000000 49.137729 -196.146866 0.000000 49.044442 -196.603483 0.000000 49.135546 -197.059752 0.000000 49.042863 -197.515269 0.000000 49.134446 -197.969816 0.000000 49.042099 -198.423042 0.000000 49.133937 -198.874727 0.000000 49.041746 -199.324576 0.000000 49.133689 -199.772371 0.000000 49.041536 -200.217874 0.000000 49.133482 -200.660876 0.000000 49.041288 -201.101201 0.000000 49.133170 -201.538653 0.000000 49.040879 -201.973128 0.000000 49.132647 -202.404446 0.000000 49.040218 -202.832588 0.000000 49.131830 -203.257392 0.000000 49.039223 -203.678941 0.000000 49.130637 -204.097092 0.000000 49.037809 -204.512049 0.000000 49.128973 -204.923688 0.000000 49.035869 -205.332362 0.000000 49.126720 -205.737961 0.000000 49.033267 -206.141020 0.000000 49.123717 -206.541433 0.000000 49.029816 -206.939961 0.000000 49.119746 -207.336489 0.000000 49.025262 -207.732053 0.000000 49.114511 -208.126510 0.000000 49.019261 -208.521237 0.000000 49.107611 -208.916030 0.000000 49.011346 -209.312689 0.000000 49.098502 -209.710911 0.000000 49.000885 -210.113017 0.000000 49.086448 -210.518542 0.000000 48.987022 -210.930465 0.000000 49.070452 -211.348074 0.000000 48.968601 -211.775170 0.000000 49.049166 -212.210682 0.000000 48.944056 -212.659450 0.000000 49.020768 -213.119883 0.000000 48.911267 -213.598139 0.000000 48.982790 -214.091900 0.000000 48.867370 -214.609000 0.000000 48.931900 -215.146114 0.000000 48.808500 -215.713216 0.000000 48.863607 -216.305606 0.000000 48.729450 -216.936003 0.000000 48.771870 -217.597840 0.000000 48.623237 -218.307372 0.000000 48.648608 -219.055521 0.000000 48.480537 -219.863111 0.000000 48.483060 -220.717704 0.000000 48.288979 -221.646040 0.000000 48.261009 -222.631213 0.000000 48.032290 -223.707636 0.000000 47.963841 -224.852483 0.000000 47.689279 -226.110135 0.000000 47.567466 -227.449934 0.000000 47.232707 -228.929210 0.000000 47.041164 -230.506967 0.000000 46.628150 -232.257336 0.000000 46.346494 -234.125675 0.000000 45.833024 -236.207855 0.000000 45.436542 -238.431210 0.000000 44.796161 -240.919624 0.000000 44.255961 -243.576555 0.000000 43.458516 -246.561770 0.000000 42.742586 -249.746983 0.000000 41.755975 -253.337515 0.000000 40.831795 -257.162671 0.000000 39.625696 -261.484918 0.000000 38.465346 -266.076596 0.000000 37.018007 -271.270714 0.000000 35.607003 -276.762672 0.000000 33.916453 -282.970730 0.000000 32.267753 -289.485931 0.000000 30.368836 -296.826711 0.000000 28.543257 -304.442388 0.000000 26.531296 -312.964874 0.000000 24.664368 -321.651796 0.000000 22.724225 -331.257722 0.000000 21.056292 -340.784233 0.000000 19.490861 -351.111280 0.000000 18.390541 -360.907106 0.000000 17.633894 -371.173333 0.000000 
10.329134 -380.204659 0.000000 10.415185 -389.893186 0.000000 11.651642 -397.365076 0.000000 13.930412 -403.820637 0.000000 17.665413 -406.532986 0.000000 22.661075 -406.866032 0.000000 29.173099 -401.670871 0.000000 36.828776 -392.623324 0.000000 45.611260 -376.429081 0.000000 54.952178 -355.310001 0.000000 64.529152 -326.233678 0.000000 73.739293 -292.153545 0.000000 82.069833 -250.643514 0.000000 89.234304 -205.294977 0.000000 94.689352 -154.353098 0.000000 98.805919 -101.606618 0.000000 100.953487 -45.797250 0.000000 102.254900 9.548293 0.000000 101.667976 65.316513 0.000000 100.973103 118.307054 0.000000 98.519772 169.037817 0.000000 96.668332 214.444235 0.000000 93.401821 254.879860 0.000000 91.397064 287.557765 0.000000 88.528666 313.004101 0.000000 87.286094 328.975465 0.000000 85.745100 336.357389 0.000000 85.710758 333.732855 0.000000 85.889254 322.300164 0.000000 87.078948 301.747684 0.000000 89.087611 273.313730 0.000000 91.609116 238.020807 0.000000 95.927110 196.756440 0.000000 100.700453 152.089629 0.000000 108.776186 104.273359 0.000000 117.797450 57.701513 0.000000 131.706006 11.860400 0.000000 146.886820 -26.970606 0.000000 167.399621 -60.500014 0.000000 188.235259 -81.333348 0.000000 212.967802 -93.222009 0.000000 235.573490 -88.828226 0.000000 259.216101 -74.779848 0.000000 277.776482 -44.597375 0.000000 294.522332 -7.977834 0.000000 304.412185 40.830911 0.000000 311.253001 89.943239 0.000000 311.832982 145.413973 0.000000 310.209174 194.734986 0.000000 304.699501 245.283323 0.000000 298.618434 284.896986 0.000000 291.230786 322.421817 0.000000 284.312093 346.347546 0.000000 277.810126 366.627912 0.000000 271.677092 372.508844 0.000000 266.634141 374.566539 0.000000 260.939924 362.899208 0.000000 256.367710 348.160092 0.000000 249.895397 321.411347 0.000000 244.590460 292.853798 0.000000 236.675047 254.677613 0.000000 230.417528 216.298621 0.000000 221.601948 171.130915 0.000000 215.256664 127.553683 0.000000 206.859493 80.156409 0.000000 201.622468 36.070728 0.000000 194.830781 -9.102447 0.000000 191.403998 -49.601213 0.000000 186.630384 -89.023776 0.000000 184.877564 -122.977947 0.000000 181.698071 -154.458222 0.000000 180.843184 -180.321967 0.000000 178.371418 -203.103599 0.000000 177.457269 -220.696989 0.000000 174.812152 -235.255588 0.000000 173.097601 -245.450819 0.000000 169.709086 -253.087517 0.000000 166.847846 -257.362724 0.000000 162.535385 -259.747675 0.000000 158.552212 -259.759475 0.000000 153.442869 -258.556217 0.000000 148.603338 -255.831454 0.000000 142.990859 -252.464522 0.000000 137.657313 -248.238560 0.000000 131.876201 -243.799396 0.000000 126.401260 -238.974183 0.000000 120.746478 -234.223728 0.000000 115.415889 -229.398739 0.000000 110.107360 -224.820004 0.000000 105.121983 -220.354269 0.000000 100.299744 -216.220138 0.000000 95.780747 -212.298422 0.000000 91.515971 -208.735231 0.000000 87.520146 -205.425230 0.000000 83.831596 -202.464257 0.000000 80.368749 -199.760758 0.000000 77.238971 -197.376375 0.000000 74.287481 -195.232887 0.000000 71.676335 -193.369090 0.000000 69.195538 -191.719216 0.000000 67.050503 -190.307072 0.000000 64.989857 -189.078155 0.000000 63.253382 -188.046632 0.000000 61.558859 -187.167917 0.000000 60.173307 -186.450110 0.000000 58.791621 -185.857159 0.000000 57.702387 -185.393450 0.000000 56.583593 -185.030133 0.000000 55.740893 -184.769398 0.000000 54.839826 -184.588372 0.000000 54.199543 -184.488001 0.000000 53.476454 -184.450306 0.000000 53.000368 -184.475576 0.000000 52.421022 -184.549782 0.000000 52.076633 -184.672900 0.000000 51.612070 -184.834056 0.000000 51.372177 -185.033107 0.000000 50.998282 -185.261671 0.000000 50.840438 -185.519581 0.000000 50.537403 -185.800406 0.000000 50.443321 -186.103999 0.000000 50.195084 -186.425440 0.000000 50.150043 -186.764614 0.000000 49.943734 -187.117760 0.000000 49.936015 -187.484791 0.000000 49.761439 -187.862828 0.000000 49.781816 -188.251802 0.000000 49.630986 -188.649499 0.000000 49.672275 -189.055854 0.000000 49.539001 -189.469152 0.000000 49.595667 -189.889320 0.000000 49.475208 -190.315015 0.000000 49.543035 -190.746149 0.000000 49.431800 -191.181650 0.000000 49.507612 -191.621412 0.000000 49.402911 -192.064563 0.000000 49.484344 -192.510973 0.000000 49.384191 -192.959919 0.000000 49.469508 -193.411247 0.000000 49.372455 -193.864343 0.000000 49.460398 -194.319033 0.000000 49.365403 -194.774783 0.000000 49.455073 -195.231401 0.000000 49.361399 -195.688418 0.000000 49.452165 -196.145625 0.000000 49.359303 -196.602608 0.000000 49.450728 -197.059148 0.000000 49.358328 -197.514875 0.000000 49.450118 -197.969566 0.000000 49.357949 -198.422896 0.000000 49.449908 -198.874643 0.000000 49.357817 -199.324526 0.000000 49.449817 -199.772328 0.000000 49.357706 -200.217819 0.000000 49.449663 -200.660791 0.000000 49.357468 -201.101073 0.000000 49.449327 -201.538471 0.000000 49.357004 -201.972880 0.000000 49.448721 -202.404124 0.000000 49.356233 -202.832180 0.000000 49.447772 -203.256892 0.000000 49.355083 -203.678333 0.000000 49.446401 -204.096369 0.000000 49.353466 -204.511193 0.000000 49.444512 -204.922690 0.000000 49.351273 -205.331197 0.000000 49.441977 -205.736617 0.000000 49.348356 -206.139462 0.000000 49.438622 -206.539646 0.000000 49.344510 -206.937897 0.000000 49.434210 -207.334127 0.000000 49.339459 -207.729328 0.000000 49.428418 -208.123393 0.000000 49.332828 -208.517642 0.000000 49.420809 -208.911916 0.000000 49.324110 -209.307941 0.000000 49.410794 -209.705471 0.000000 49.312620 -210.106732 0.000000 49.397576 -210.511334 0.000000 49.297433 -210.922127 0.000000 49.380079 -211.338497 0.000000 49.277302 -211.764079 0.000000 49.356853 -212.197927 0.000000 49.250540 -212.644659 0.000000 49.325935 -213.102852 0.000000 49.214868 -213.578370 0.000000 49.284673 -214.069110 0.000000 49.167205 -214.582523 0.000000 49.229483 -215.115563 0.000000 49.103391 -215.677699 0.000000 49.155529 -216.264593 0.000000 49.017813 -216.888305 0.000000 49.056292 -217.542738 0.000000 48.902921 -218.243282 0.000000 48.923021 -218.981477 0.000000 48.748597 -219.777013 0.000000 48.744021 -220.618263 0.000000 48.541357 -221.530489 0.000000 48.503747 -222.497853 0.000000 48.263346 -223.552851 0.000000 48.181710 -224.674065 0.000000 47.891138 -225.903400 0.000000 47.751166 -227.212068 0.000000 47.394335 -228.654221 0.000000 47.177647 -230.191358 0.000000 46.734061 -231.893556 0.000000 46.417457 -233.709518 0.000000 45.861517 -235.730002 0.000000 45.416365 -237.886837 0.000000 44.716934 -240.297535 0.000000 44.108980 -242.871622 0.000000 43.229559 -245.761032 0.000000 42.419591 -248.845695 0.000000 41.319659 -252.321479 0.000000 40.265745 -256.028814 0.000000 38.904166 -260.219025 0.000000 37.566548 -264.679467 0.000000 35.908302 -269.730408 0.000000 34.258452 -275.087367 0.000000 32.286435 -281.154582 0.000000 30.322219 -287.549690 0.000000 28.056159 -294.776410 0.000000 25.825156 -302.318430 0.000000 23.349451 -310.793017 0.000000 20.981672 -319.500597 0.000000 18.482307 -329.181737 0.000000 16.230550 -338.888151 0.000000 14.036411 -349.485847 0.000000 12.315207 -359.695876 0.000000 10.928903 -370.502567 0.000000 