# vtk DataFile Version 2.0
Comment goes here
ASCII

DATASET STRUCTURED_POINTS
FIELD FieldData 1
TIME 1 1 double
0.06200000
DIMENSIONS    230   46   1

ORIGIN    0.000   0.000   0.000
SPACING   0.013043 0.013043   1.000

POINT_DATA   10580
SCALARS uX double
LOOKUP_TABLE default

5.498562e+01 5.604592e+01 5.763476e+01 5.957518e+01 6.199156e+01 6.471296e+01 6.768577e+01 7.076390e+01 7.365931e+01 7.632182e+01 7.820740e+01 7.950040e+01 7.942324e+01 7.857137e+01 7.596778e+01 7.275910e+01 6.776527e+01 6.272818e+01 5.622276e+01 5.053856e+01 4.398105e+01 3.925810e+01 3.442838e+01 3.236424e+01 3.092997e+01 3.281723e+01 3.578667e+01 4.197871e+01 4.920121e+01 5.873458e+01 6.869073e+01 7.935932e+01 8.951302e+01 9.855142e+01 1.061896e+02 1.111883e+02 1.143064e+02 1.139898e+02 1.119668e+02 1.066858e+02 1.006169e+02 9.241735e+01 8.493005e+01 7.704407e+01 7.151394e+01 6.733025e+01 6.672247e+01 6.862672e+01 7.445200e+01 8.301672e+01 9.483787e+01 1.087077e+02 1.244026e+02 1.408918e+02 1.574612e+02 1.734583e+02 1.879073e+02 2.006866e+02 2.107508e+02 2.186168e+02 2.233096e+02 2.259904e+02 2.257655e+02 2.243011e+02 2.206610e+02 2.168020e+02 2.115845e+02 2.070312e+02 2.017218e+02 1.975766e+02 1.929479e+02 1.895683e+02 1.857076e+02 1.828913e+02 1.794702e+02 1.767739e+02 1.733585e+02 1.703720e+02 1.666392e+02 1.631331e+02 1.589557e+02 1.549059e+02 1.503362e+02 1.458725e+02 1.410762e+02 1.364067e+02 1.315912e+02 1.269356e+02 1.222962e+02 1.178433e+02 1.135328e+02 1.094202e+02 1.055392e+02 1.018511e+02 9.845055e+01 9.522416e+01 9.231497e+01 8.955128e+01 8.711502e+01 8.478994e+01 8.278931e+01 8.086331e+01 7.925058e+01 7.767630e+01 7.639966e+01 7.512743e+01 7.413544e+01 7.311702e+01 7.236142e+01 7.155225e+01 7.098960e+01 7.035007e+01 6.994244e+01 6.943831e+01 6.915343e+01 6.875581e+01 6.856678e+01 6.825179e+01 6.813659e+01 6.788484e+01 6.782577e+01 6.762176e+01 6.760478e+01 6.743631e+01 6.745047e+01 6.730807e+01 6.734492e+01 6.722136e+01 6.727448e+01 6.716429e+01 6.722889e+01 6.712802e+01 6.720055e+01 6.710603e+01 6.718390e+01 6.709358e+01 6.717497e+01 6.708734e+01 6.717093e+01 6.708495e+01 6.716987e+01 6.708481e+01 6.717046e+01 6.708587e+01 6.717186e+01 6.708744e+01 6.717352e+01 6.708909e+01 6.717514e+01 6.709060e+01 6.717652e+01 6.709183e+01 6.717760e+01 6.709273e+01 6.717833e+01 6.709328e+01 6.717871e+01 6.709348e+01 6.717874e+01 6.709334e+01 6.717844e+01 6.709287e+01 6.717779e+01 6.709203e+01 6.717676e+01 6.709080e+01 6.717530e+01 6.708909e+01 6.717332e+01 6.708681e+01 6.717070e+01 6.708379e+01 6.716723e+01 6.707981e+01 6.716265e+01 6.707456e+01 6.715662e+01 6.706763e+01 6.714863e+01 6.705843e+01 6.713802e+01 6.704620e+01 6.712389e+01 6.702990e+01 6.710504e+01 6.700813e+01 6.707985e+01 6.697901e+01 6.704614e+01 6.694003e+01 6.700101e+01 6.688785e+01 6.694062e+01 6.681806e+01 6.685989e+01 6.672486e+01 6.675221e+01 6.660071e+01 6.660901e+01 6.643590e+01 6.641934e+01 6.621819e+01 6.616950e+01 6.593233e+01 6.584265e+01 6.555986e+01 6.541870e+01 6.507917e+01 6.487464e+01 6.446616e+01 6.418561e+01 6.369585e+01 6.332728e+01 6.274564e+01 6.228008e+01 6.160083e+01 6.103628e+01 6.026337e+01 5.961057e+01 5.876457e+01 5.805499e+01 5.718213e+01 5.647777e+01 5.566027e+01 5.506378e+01 5.442908e+01 5.409025e+01 5.381358e+01 5.392492e+01 5.421593e+01 
4.893198e+01 4.977342e+01 5.131752e+01 5.337328e+01 5.615782e+01 5.947107e+01 6.333583e+01 6.754394e+01 7.183748e+01 7.605889e+01 7.962331e+01 8.257411e+01 8.401662e+01 8.441821e+01 8.261755e+01 7.971514e+01 7.428008e+01 6.816355e+01 5.961450e+01 5.126423e+01 4.103000e+01 3.224885e+01 2.256556e+01 1.571257e+01 9.151027e+00 6.515064e+00 5.215614e+00 8.221863e+00 1.307798e+01 2.157382e+01 3.166403e+01 4.369615e+01 5.643269e+01 6.890347e+01 8.097644e+01 9.073895e+01 9.926207e+01 1.041657e+02 1.076427e+02 1.072792e+02 1.061420e+02 1.020391e+02 9.849481e+01 9.355168e+01 9.067540e+01 8.799982e+01 8.848736e+01 9.025594e+01 9.549801e+01 1.023199e+02 1.120716e+02 1.229571e+02 1.355836e+02 1.484408e+02 1.615788e+02 1.739838e+02 1.853245e+02 1.952675e+02 2.032230e+02 2.096497e+02 2.137443e+02 2.167295e+02 2.175364e+02 2.179867e+02 2.166565e+02 2.157739e+02 2.135143e+02 2.122884e+02 2.099234e+02 2.088128e+02 2.065919e+02 2.055089e+02 2.032148e+02 2.017533e+02 1.989781e+02 1.967080e+02 1.931180e+02 1.897934e+02 1.852728e+02 1.809008e+02 1.755626e+02 1.703591e+02 1.644737e+02 1.587677e+02 1.526663e+02 1.468062e+02 1.408021e+02 1.350900e+02 1.294320e+02 1.240925e+02 1.189490e+02 1.141242e+02 1.095870e+02 1.053469e+02 1.014457e+02 9.780458e+01 9.452413e+01 9.145767e+01 8.875348e+01 8.621359e+01 8.402485e+01 8.195098e+01 8.021009e+01 7.853750e+01 7.717656e+01 7.584173e+01 7.479672e+01 7.374074e+01 7.295383e+01 7.212414e+01 7.154479e+01 7.089592e+01 7.048106e+01 6.997458e+01 6.968830e+01 6.929242e+01 6.910533e+01 6.879421e+01 6.868264e+01 6.843562e+01 6.838079e+01 6.818159e+01 6.816882e+01 6.800481e+01 6.802278e+01 6.788426e+01 6.792438e+01 6.780404e+01 6.785984e+01 6.775222e+01 6.781892e+01 6.772003e+01 6.779415e+01 6.770110e+01 6.778014e+01 6.769087e+01 6.777306e+01 6.768616e+01 6.777028e+01 6.768476e+01 6.776999e+01 6.768521e+01 6.777102e+01 6.768656e+01 6.777259e+01 6.768820e+01 6.777427e+01 6.768980e+01 6.777577e+01 6.769116e+01 6.777698e+01 6.769218e+01 6.777782e+01 6.769283e+01 6.777830e+01 6.769312e+01 6.777841e+01 6.769305e+01 6.777816e+01 6.769262e+01 6.777756e+01 6.769183e+01 6.777659e+01 6.769066e+01 6.777520e+01 6.768903e+01 6.777332e+01 6.768687e+01 6.777084e+01 6.768403e+01 6.776759e+01 6.768031e+01 6.776334e+01 6.767545e+01 6.775777e+01 6.766908e+01 6.775046e+01 6.766068e+01 6.774081e+01 6.764960e+01 6.772805e+01 6.763490e+01 6.771111e+01 6.761537e+01 6.768857e+01 6.758936e+01 6.765852e+01 6.755466e+01 6.761841e+01 6.750831e+01 6.756482e+01 6.744637e+01 6.749320e+01 6.736362e+01 6.739755e+01 6.725313e+01 6.726993e+01 6.710588e+01 6.710004e+01 6.691011e+01 6.687456e+01 6.665079e+01 6.657653e+01 6.630891e+01 6.618477e+01 6.586098e+01 6.567338e+01 6.527866e+01 6.501163e+01 6.452905e+01 6.416469e+01 6.357585e+01 6.309553e+01 6.238233e+01 6.176906e+01 6.091692e+01 6.015952e+01 5.916268e+01 5.826248e+01 5.713224e+01 5.611290e+01 5.488929e+01 5.381017e+01 5.257689e+01 5.154893e+01 5.044972e+01 4.965052e+01 4.890151e+01 4.858133e+01 4.846819e+01 
4.245835e+01 4.323468e+01 4.465017e+01 4.699762e+01 5.008468e+01 5.420593e+01 5.895543e+01 6.456544e+01 7.034872e+01 7.645208e+01 8.190455e+01 8.684697e+01 9.012528e+01 9.206285e+01 9.146818e+01 8.905443e+01 8.365054e+01 7.650220e+01 6.640147e+01 5.524841e+01 4.176293e+01 2.858338e+01 1.438326e+01 2.289245e+00 -9.087551e+00 -1.663800e+01 -2.181607e+01 -2.214797e+01 -1.912363e+01 -1.150852e+01 -6.670444e-01 1.308220e+01 2.893290e+01 4.522089e+01 6.202849e+01 7.684643e+01 9.076920e+01 1.010222e+02 1.096850e+02 1.142006e+02 1.174436e+02 1.173063e+02 1.170540e+02 1.149533e+02 1.141122e+02 1.129482e+02 1.139829e+02 1.157032e+02 1.198401e+02 1.250212e+02 1.321471e+02 1.401013e+02 1.490394e+02 1.582400e+02 1.672839e+02 1.760045e+02 1.835889e+02 1.905642e+02 1.958518e+02 2.007063e+02 2.038135e+02 2.070052e+02 2.086750e+02 2.109738e+02 2.119762e+02 2.140024e+02 2.148502e+02 2.168475e+02 2.176291e+02 2.193844e+02 2.197604e+02 2.207298e+02 2.201379e+02 2.197244e+02 2.176698e+02 2.154898e+02 2.117569e+02 2.077689e+02 2.024761e+02 1.969570e+02 1.904809e+02 1.839052e+02 1.767465e+02 1.696462e+02 1.623036e+02 1.551598e+02 1.480471e+02 1.412314e+02 1.346434e+02 1.284026e+02 1.225155e+02 1.169841e+02 1.118753e+02 1.070999e+02 1.027742e+02 9.873995e+01 9.515419e+01 9.180746e+01 8.889086e+01 8.615720e+01 8.382601e+01 8.162274e+01 7.979050e+01 7.803508e+01 7.661904e+01 7.523417e+01 7.415896e+01 7.307531e+01 7.227468e+01 7.143207e+01 7.084941e+01 7.019688e+01 6.978486e+01 6.928018e+01 6.899998e+01 6.860879e+01 6.842913e+01 6.812392e+01 6.801993e+01 6.777899e+01 6.773122e+01 6.753769e+01 6.753112e+01 6.737204e+01 6.739522e+01 6.726081e+01 6.730514e+01 6.718809e+01 6.724718e+01 6.714211e+01 6.721131e+01 6.711432e+01 6.719028e+01 6.709859e+01 6.717893e+01 6.709060e+01 6.717367e+01 6.708737e+01 6.717206e+01 6.708689e+01 6.717246e+01 6.708785e+01 6.717382e+01 6.708941e+01 6.717549e+01 6.709106e+01 6.717709e+01 6.709254e+01 6.717843e+01 6.709370e+01 6.717941e+01 6.709448e+01 6.718000e+01 6.709487e+01 6.718020e+01 6.709489e+01 6.718004e+01 6.709454e+01 6.717952e+01 6.709385e+01 6.717864e+01 6.709278e+01 6.717737e+01 6.709131e+01 6.717567e+01 6.708936e+01 6.717344e+01 6.708682e+01 6.717054e+01 6.708354e+01 6.716679e+01 6.707928e+01 6.716192e+01 6.707375e+01 6.715557e+01 6.706651e+01 6.714725e+01 6.705700e+01 6.713630e+01 6.704448e+01 6.712185e+01 6.702792e+01 6.710272e+01 6.700595e+01 6.707730e+01 6.697675e+01 6.704349e+01 6.693785e+01 6.699841e+01 6.688596e+01 6.693825e+01 6.681668e+01 6.685792e+01 6.672415e+01 6.675064e+01 6.660061e+01 6.660748e+01 6.643583e+01 6.641668e+01 6.621643e+01 6.616298e+01 6.592513e+01 6.582676e+01 6.553985e+01 6.538315e+01 6.503289e+01 6.480128e+01 6.437025e+01 6.404375e+01 6.351142e+01 6.306689e+01 6.241020e+01 6.182228e+01 6.101722e+01 6.026058e+01 5.928543e+01 5.833906e+01 5.718011e+01 5.603466e+01 5.469551e+01 5.336474e+01 5.188025e+01 5.041768e+01 4.887315e+01 4.739371e+01 4.594818e+01 4.465229e+01 4.356098e+01 4.275280e+01 4.237620e+01 
3.650307e+01 3.692788e+01 3.816118e+01 4.048068e+01 4.381887e+01 4.844139e+01 5.406316e+01 6.084646e+01 6.817876e+01 7.606902e+01 8.353450e+01 9.051761e+01 9.576043e+01 9.939341e+01 1.000542e+02 9.835939e+01 9.289124e+01 8.496184e+01 7.298542e+01 5.919128e+01 4.180296e+01 2.421868e+01 4.578069e+00 -1.287476e+01 -3.006274e+01 -4.261735e+01 -5.248041e+01 -5.605244e+01 -5.524484e+01 -4.815691e+01 -3.648881e+01 -2.056353e+01 -1.263690e+00 1.919008e+01 4.110925e+01 6.107795e+01 8.066669e+01 9.604999e+01 1.099775e+02 1.188641e+02 1.264101e+02 1.295790e+02 1.325393e+02 1.326798e+02 1.339644e+02 1.338849e+02 1.357494e+02 1.371291e+02 1.405433e+02 1.438312e+02 1.487201e+02 1.534618e+02 1.590484e+02 1.642557e+02 1.694584e+02 1.741124e+02 1.781004e+02 1.817351e+02 1.844537e+02 1.874839e+02 1.897262e+02 1.931237e+02 1.958694e+02 2.002948e+02 2.038794e+02 2.092756e+02 2.134385e+02 2.191831e+02 2.232245e+02 2.283347e+02 2.313049e+02 2.347233e+02 2.357271e+02 2.366550e+02 2.351507e+02 2.332743e+02 2.292145e+02 2.247343e+02 2.185143e+02 2.120090e+02 2.042940e+02 1.965147e+02 1.880418e+02 1.797271e+02 1.711541e+02 1.629123e+02 1.547389e+02 1.470019e+02 1.395531e+02 1.325813e+02 1.260281e+02 1.199427e+02 1.143391e+02 1.091604e+02 1.044808e+02 1.001644e+02 9.633522e+01 9.279944e+01 8.972260e+01 8.686882e+01 8.443797e+01 8.216386e+01 8.027462e+01 7.848234e+01 7.703825e+01 7.563900e+01 7.455456e+01 7.347063e+01 7.267231e+01 7.183758e+01 7.126369e+01 7.062318e+01 7.022298e+01 6.973181e+01 6.946428e+01 6.908645e+01 6.891897e+01 6.862601e+01 6.853300e+01 6.830276e+01 6.826443e+01 6.807988e+01 6.808113e+01 6.792937e+01 6.795884e+01 6.783022e+01 6.787946e+01 6.776687e+01 6.782971e+01 6.772799e+01 6.779997e+01 6.770543e+01 6.778338e+01 6.769342e+01 6.777514e+01 6.768800e+01 6.777199e+01 6.768645e+01 6.777171e+01 6.768701e+01 6.777289e+01 6.768853e+01 6.777464e+01 6.769033e+01 6.777644e+01 6.769201e+01 6.777799e+01 6.769338e+01 6.777917e+01 6.769433e+01 6.777992e+01 6.769487e+01 6.778026e+01 6.769500e+01 6.778020e+01 6.769475e+01 6.777977e+01 6.769414e+01 6.777898e+01 6.769317e+01 6.777783e+01 6.769183e+01 6.777628e+01 6.769007e+01 6.777427e+01 6.768780e+01 6.777170e+01 6.768489e+01 6.776840e+01 6.768116e+01 6.776416e+01 6.767636e+01 6.775868e+01 6.767014e+01 6.775156e+01 6.766203e+01 6.774226e+01 6.765141e+01 6.773005e+01 6.763744e+01 6.771395e+01 6.761900e+01 6.769268e+01 6.759458e+01 6.766447e+01 6.756217e+01 6.762700e+01 6.751907e+01 6.757711e+01 6.746165e+01 6.751062e+01 6.738507e+01 6.742191e+01 6.728285e+01 6.730348e+01 6.714640e+01 6.714543e+01 6.696432e+01 6.693464e+01 6.672167e+01 6.665399e+01 6.639893e+01 6.628127e+01 6.597100e+01 6.578804e+01 6.540599e+01 6.513852e+01 6.466415e+01 6.428868e+01 6.369723e+01 6.318587e+01 6.244871e+01 6.176986e+01 6.085573e+01 5.997611e+01 5.885422e+01 5.774306e+01 5.638889e+01 5.502569e+01 5.343101e+01 5.181819e+01 5.000688e+01 4.818920e+01 4.624031e+01 4.433183e+01 4.240995e+01 4.062719e+01 3.901610e+01 3.770977e+01 3.683698e+01 
3.006667e+01 3.024714e+01 3.114819e+01 3.355304e+01 3.699357e+01 4.227089e+01 4.868339e+01 5.688294e+01 6.582905e+01 7.586591e+01 8.559833e+01 9.505511e+01 1.026782e+02 1.084091e+02 1.108531e+02 1.101762e+02 1.052691e+02 9.671908e+01 8.350409e+01 6.695733e+01 4.608283e+01 2.358360e+01 -1.343766e+00 -2.491728e+01 -4.786591e+01 -6.613222e+01 -8.049513e+01 -8.761526e+01 -8.850342e+01 -8.167963e+01 -6.840046e+01 -4.972678e+01 -2.624524e+01 -1.021404e+00 2.647308e+01 5.207008e+01 7.742045e+01 9.818490e+01 1.170818e+02 1.303362e+02 1.415854e+02 1.479190e+02 1.534102e+02 1.557387e+02 1.585914e+02 1.597092e+02 1.619415e+02 1.631358e+02 1.653097e+02 1.667757e+02 1.687786e+02 1.702593e+02 1.717284e+02 1.727872e+02 1.733132e+02 1.736628e+02 1.732200e+02 1.732488e+02 1.726984e+02 1.737364e+02 1.747473e+02 1.784052e+02 1.822957e+02 1.890475e+02 1.955394e+02 2.044687e+02 2.123309e+02 2.218308e+02 2.294435e+02 2.377186e+02 2.434543e+02 2.489523e+02 2.515794e+02 2.533660e+02 2.523407e+02 2.502584e+02 2.457651e+02 2.403313e+02 2.330969e+02 2.252390e+02 2.162476e+02 2.070082e+02 1.972396e+02 1.875550e+02 1.778164e+02 1.684003e+02 1.592606e+02 1.505804e+02 1.423781e+02 1.346868e+02 1.275750e+02 1.209641e+02 1.149652e+02 1.094185e+02 1.044723e+02 9.990919e+01 9.591020e+01 9.221773e+01 8.904106e+01 8.609490e+01 8.361286e+01 8.129069e+01 7.938261e+01 7.757158e+01 7.612903e+01 7.472941e+01 7.365835e+01 7.258471e+01 7.180575e+01 7.098672e+01 7.043429e+01 6.981142e+01 6.943235e+01 6.895862e+01 6.871053e+01 6.834870e+01 6.819825e+01 6.791928e+01 6.784065e+01 6.762216e+01 6.759563e+01 6.742066e+01 6.743134e+01 6.728717e+01 6.732400e+01 6.720123e+01 6.725609e+01 6.714791e+01 6.721493e+01 6.711643e+01 6.719144e+01 6.709919e+01 6.717928e+01 6.709089e+01 6.717407e+01 6.708795e+01 6.717288e+01 6.708797e+01 6.717381e+01 6.708944e+01 6.717564e+01 6.709142e+01 6.717767e+01 6.709337e+01 6.717949e+01 6.709500e+01 6.718091e+01 6.709619e+01 6.718187e+01 6.709690e+01 6.718237e+01 6.709717e+01 6.718243e+01 6.709703e+01 6.718209e+01 6.709651e+01 6.718140e+01 6.709565e+01 6.718036e+01 6.709444e+01 6.717897e+01 6.709287e+01 6.717718e+01 6.709087e+01 6.717493e+01 6.708835e+01 6.717209e+01 6.708517e+01 6.716849e+01 6.708113e+01 6.716390e+01 6.707595e+01 6.715799e+01 6.706926e+01 6.715033e+01 6.706057e+01 6.714034e+01 6.704921e+01 6.712725e+01 6.703429e+01 6.711004e+01 6.701462e+01 6.708730e+01 6.698861e+01 6.705721e+01 6.695414e+01 6.701727e+01 6.690834e+01 6.696416e+01 6.684737e+01 6.689341e+01 6.676611e+01 6.679907e+01 6.665766e+01 6.667314e+01 6.651288e+01 6.650502e+01 6.631957e+01 6.628062e+01 6.606163e+01 6.598142e+01 6.571797e+01 6.558323e+01 6.526118e+01 6.505486e+01 6.465612e+01 6.435659e+01 6.385851e+01 6.343889e+01 6.281373e+01 6.224152e+01 6.145651e+01 6.069390e+01 5.971222e+01 5.871775e+01 5.750130e+01 5.623385e+01 5.474900e+01 5.317547e+01 5.140344e+01 4.951229e+01 4.746632e+01 4.528909e+01 4.304067e+01 4.068379e+01 3.839937e+01 3.608631e+01 3.407216e+01 3.219021e+01 3.093418e+01 
2.414139e+01 2.372958e+01 2.417534e+01 2.624828e+01 2.964656e+01 3.515302e+01 4.225713e+01 5.154795e+01 6.214061e+01 7.421182e+01 8.640946e+01 9.847003e+01 1.087534e+02 1.168829e+02 1.213398e+02 1.220963e+02 1.178740e+02 1.092054e+02 9.464559e+01 7.568858e+01 5.065477e+01 2.319541e+01 -8.206170e+00 -3.821360e+01 -6.830298e+01 -9.261828e+01 -1.126426e+02 -1.233589e+02 -1.264444e+02 -1.194354e+02 -1.042975e+02 -8.226409e+01 -5.406738e+01 -2.366006e+01 9.920040e+00 4.122541e+01 7.266510e+01 9.850762e+01 1.224208e+02 1.393710e+02 1.541192e+02 1.627697e+02 1.706143e+02 1.744951e+02 1.791103e+02 1.811509e+02 1.842494e+02 1.851408e+02 1.866160e+02 1.860991e+02 1.856800e+02 1.836409e+02 1.813679e+02 1.779206e+02 1.740368e+02 1.696237e+02 1.648745e+02 1.607948e+02 1.570121e+02 1.557243e+02 1.556674e+02 1.597204e+02 1.652077e+02 1.748743e+02 1.847514e+02 1.979459e+02 2.098043e+02 2.237101e+02 2.349425e+02 2.468427e+02 2.551613e+02 2.629933e+02 2.669048e+02 2.696535e+02 2.687148e+02 2.664620e+02 2.611817e+02 2.548344e+02 2.463288e+02 2.372043e+02 2.267949e+02 2.162375e+02 2.051352e+02 1.942661e+02 1.834003e+02 1.730170e+02 1.629954e+02 1.535803e+02 1.447297e+02 1.365129e+02 1.289509e+02 1.219861e+02 1.156928e+02 1.099238e+02 1.047993e+02 1.001097e+02 9.601511e+01 9.226286e+01 8.904680e+01 8.608504e+01 8.359989e+01 8.128964e+01 7.940027e+01 7.761677e+01 7.620461e+01 7.483993e+01 7.380412e+01 7.276745e+01 7.202419e+01 7.124081e+01 7.072190e+01 7.013146e+01 6.978232e+01 6.933690e+01 6.911454e+01 6.877665e+01 6.864768e+01 6.838840e+01 6.832726e+01 6.812462e+01 6.811201e+01 6.794950e+01 6.797103e+01 6.783647e+01 6.788158e+01 6.776609e+01 6.782714e+01 6.772433e+01 6.779588e+01 6.770127e+01 6.777951e+01 6.769000e+01 6.777232e+01 6.768581e+01 6.777048e+01 6.768559e+01 6.777148e+01 6.768733e+01 6.777373e+01 6.768980e+01 6.777629e+01 6.769228e+01 6.777864e+01 6.769440e+01 6.778052e+01 6.769599e+01 6.778183e+01 6.769701e+01 6.778259e+01 6.769750e+01 6.778284e+01 6.769752e+01 6.778264e+01 6.769711e+01 6.778205e+01 6.769635e+01 6.778111e+01 6.769524e+01 6.777984e+01 6.769381e+01 6.777822e+01 6.769201e+01 6.777622e+01 6.768979e+01 6.777374e+01 6.768704e+01 6.777066e+01 6.768361e+01 6.776679e+01 6.767927e+01 6.776187e+01 6.767374e+01 6.775557e+01 6.766661e+01 6.774743e+01 6.765737e+01 6.773682e+01 6.764531e+01 6.772295e+01 6.762949e+01 6.770472e+01 6.760867e+01 6.768068e+01 6.758117e+01 6.764889e+01 6.754476e+01 6.760676e+01 6.749644e+01 6.755079e+01 6.743219e+01 6.747631e+01 6.734661e+01 6.737702e+01 6.723246e+01 6.724454e+01 6.708005e+01 6.706764e+01 6.687650e+01 6.683137e+01 6.660465e+01 6.651598e+01 6.624194e+01 6.609552e+01 6.575880e+01 6.553620e+01 6.511704e+01 6.479465e+01 6.426794e+01 6.381607e+01 6.315061e+01 6.253276e+01 6.169092e+01 6.086370e+01 5.980193e+01 5.871626e+01 5.738739e+01 5.599192e+01 5.435044e+01 5.259905e+01 5.061132e+01 4.847669e+01 4.613880e+01 4.363536e+01 4.100162e+01 3.822116e+01 3.544648e+01 3.260857e+01 3.000482e+01 2.751921e+01 2.561722e+01 
1.772593e+01 1.679102e+01 1.655737e+01 1.834450e+01 2.143324e+01 2.723681e+01 3.481272e+01 4.537872e+01 5.758682e+01 7.208163e+01 8.700007e+01 1.022199e+02 1.156493e+02 1.267023e+02 1.337773e+02 1.363621e+02 1.336387e+02 1.252242e+02 1.103297e+02 8.904466e+01 6.039482e+01 2.728922e+01 -1.059928e+01 -4.821833e+01 -8.568610e+01 -1.172126e+02 -1.429387e+02 -1.577597e+02 -1.624218e+02 -1.546554e+02 -1.365462e+02 -1.103075e+02 -7.650399e+01 -4.019698e+01 -5.618935e-02 3.750022e+01 7.507559e+01 1.062856e+02 1.348151e+02 1.554147e+02 1.728930e+02 1.836266e+02 1.930636e+02 1.985583e+02 2.045812e+02 2.079635e+02 2.117407e+02 2.126898e+02 2.130211e+02 2.105796e+02 2.069633e+02 2.012219e+02 1.942353e+02 1.859706e+02 1.766111e+02 1.670295e+02 1.568762e+02 1.482461e+02 1.402953e+02 1.364678e+02 1.350051e+02 1.398152e+02 1.474167e+02 1.606228e+02 1.746401e+02 1.925079e+02 2.089892e+02 2.273349e+02 2.425523e+02 2.577398e+02 2.687150e+02 2.782637e+02 2.833059e+02 2.862711e+02 2.851578e+02 2.820118e+02 2.756907e+02 2.678341e+02 2.578831e+02 2.470675e+02 2.351702e+02 2.230360e+02 2.106235e+02 1.984437e+02 1.865386e+02 1.751530e+02 1.643712e+02 1.542400e+02 1.448724e+02 1.361755e+02 1.282885e+02 1.210241e+02 1.145475e+02 1.086095e+02 1.034005e+02 9.863208e+01 9.451846e+01 9.074642e+01 8.755196e+01 8.460686e+01 8.216623e+01 7.989311e+01 7.805903e+01 7.632225e+01 7.496815e+01 7.365269e+01 7.267275e+01 7.168343e+01 7.099104e+01 7.025067e+01 6.977628e+01 6.922335e+01 6.891200e+01 6.849827e+01 6.830718e+01 6.799536e+01 6.789171e+01 6.765340e+01 6.761235e+01 6.742623e+01 6.742925e+01 6.727950e+01 6.731299e+01 6.718808e+01 6.724216e+01 6.713382e+01 6.720146e+01 6.710384e+01 6.718013e+01 6.708920e+01 6.717077e+01 6.708378e+01 6.716837e+01 6.708352e+01 6.716969e+01 6.708584e+01 6.717266e+01 6.708912e+01 6.717605e+01 6.709242e+01 6.717918e+01 6.709528e+01 6.718172e+01 6.709746e+01 6.718356e+01 6.709894e+01 6.718470e+01 6.709975e+01 6.718521e+01 6.709998e+01 6.718518e+01 6.709972e+01 6.718471e+01 6.709905e+01 6.718386e+01 6.709804e+01 6.718269e+01 6.709672e+01 6.718121e+01 6.709509e+01 6.717941e+01 6.709312e+01 6.717724e+01 6.709074e+01 6.717460e+01 6.708784e+01 6.717136e+01 6.708425e+01 6.716733e+01 6.707975e+01 6.716223e+01 6.707404e+01 6.715572e+01 6.706670e+01 6.714732e+01 6.705720e+01 6.713640e+01 6.704482e+01 6.712215e+01 6.702860e+01 6.710343e+01 6.700729e+01 6.707879e+01 6.697917e+01 6.704624e+01 6.694197e+01 6.700312e+01 6.689265e+01 6.694590e+01 6.682710e+01 6.686979e+01 6.673983e+01 6.676837e+01 6.662345e+01 6.663305e+01 6.646804e+01 6.645227e+01 6.626034e+01 6.621065e+01 6.598265e+01 6.588767e+01 6.561151e+01 6.545627e+01 6.511605e+01 6.488094e+01 6.445598e+01 6.411567e+01 6.357943e+01 6.310168e+01 6.242076e+01 6.176536e+01 6.089876e+01 6.001696e+01 5.891617e+01 5.775125e+01 5.636193e+01 5.485198e+01 5.311861e+01 5.120321e+01 4.907880e+01 4.671227e+01 4.417612e+01 4.135084e+01 3.843842e+01 3.522307e+01 3.207264e+01 2.866975e+01 2.558905e+01 2.241301e+01 1.996207e+01 
1.195321e+01 1.009305e+01 8.992229e+00 9.956305e+00 1.247322e+01 1.796023e+01 2.576408e+01 3.707803e+01 5.084866e+01 6.754776e+01 8.545243e+01 1.040094e+02 1.210458e+02 1.354287e+02 1.455060e+02 1.504630e+02 1.496088e+02 1.423516e+02 1.275137e+02 1.046683e+02 7.176924e+01 3.301396e+01 -1.286743e+01 -5.854362e+01 -1.052321e+02 -1.445365e+02 -1.776252e+02 -1.967442e+02 -2.036232e+02 -1.943203e+02 -1.726017e+02 -1.413682e+02 -1.012763e+02 -5.880654e+01 -1.162200e+01 3.202027e+01 7.599856e+01 1.120328e+02 1.451194e+02 1.684000e+02 1.881499e+02 1.997477e+02 2.103723e+02 2.168426e+02 2.247596e+02 2.296225e+02 2.350612e+02 2.363026e+02 2.362783e+02 2.318663e+02 2.255786e+02 2.158870e+02 2.046209e+02 1.911802e+02 1.766985e+02 1.614244e+02 1.460019e+02 1.321103e+02 1.199124e+02 1.129976e+02 1.103088e+02 1.162300e+02 1.268814e+02 1.447390e+02 1.636551e+02 1.872449e+02 2.086187e+02 2.321189e+02 2.511390e+02 2.699420e+02 2.830537e+02 2.943328e+02 2.998242e+02 3.028597e+02 3.009119e+02 2.967188e+02 2.888432e+02 2.794107e+02 2.676970e+02 2.552426e+02 2.417266e+02 2.281714e+02 2.144593e+02 2.011897e+02 1.883435e+02 1.762011e+02 1.647988e+02 1.541911e+02 1.444553e+02 1.354942e+02 1.274218e+02 1.200423e+02 1.135040e+02 1.075489e+02 1.023568e+02 9.763137e+01 9.358044e+01 8.988450e+01 8.677600e+01 8.392189e+01 8.157552e+01 7.939642e+01 7.765547e+01 7.600848e+01 7.474085e+01 7.350687e+01 7.260385e+01 7.168581e+01 7.105968e+01 7.037990e+01 6.996115e+01 6.945852e+01 6.919286e+01 6.882004e+01 6.866575e+01 6.838660e+01 6.831207e+01 6.809940e+01 6.808101e+01 6.791466e+01 6.793503e+01 6.780029e+01 6.784682e+01 6.773310e+01 6.779683e+01 6.769669e+01 6.777133e+01 6.767960e+01 6.776086e+01 6.767406e+01 6.775907e+01 6.767490e+01 6.776182e+01 6.767884e+01 6.776650e+01 6.768383e+01 6.777157e+01 6.768872e+01 6.777618e+01 6.769292e+01 6.777993e+01 6.769617e+01 6.778270e+01 6.769845e+01 6.778452e+01 6.769983e+01 6.778550e+01 6.770044e+01 6.778579e+01 6.770043e+01 6.778551e+01 6.769992e+01 6.778479e+01 6.769901e+01 6.778371e+01 6.769778e+01 6.778233e+01 6.769627e+01 6.778067e+01 6.769447e+01 6.777872e+01 6.769235e+01 6.777640e+01 6.768984e+01 6.777364e+01 6.768682e+01 6.777028e+01 6.768311e+01 6.776612e+01 6.767848e+01 6.776090e+01 6.767263e+01 6.775424e+01 6.766513e+01 6.774567e+01 6.765544e+01 6.773455e+01 6.764283e+01 6.772004e+01 6.762634e+01 6.770102e+01 6.760467e+01 6.767600e+01 6.757613e+01 6.764299e+01 6.753841e+01 6.759931e+01 6.748845e+01 6.754138e+01 6.742210e+01 6.746439e+01 6.733382e+01 6.736185e+01 6.721612e+01 6.722503e+01 6.705894e+01 6.704222e+01 6.684877e+01 6.679770e+01 6.656753e+01 6.647047e+01 6.619108e+01 6.603259e+01 6.568746e+01 6.544720e+01 6.501463e+01 6.466607e+01 6.411794e+01 6.362693e+01 6.292735e+01 6.225071e+01 6.135486e+01 6.043928e+01 5.929290e+01 5.807482e+01 5.661504e+01 5.502249e+01 5.318148e+01 5.113968e+01 4.885316e+01 4.629665e+01 4.352069e+01 4.041605e+01 3.715687e+01 3.354188e+01 2.990491e+01 2.595122e+01 2.221639e+01 1.832166e+01 1.504735e+01 
5.773755e+00 3.039795e+00 7.813244e-01 9.045800e-01 2.430323e+00 7.547881e+00 1.512844e+01 2.724732e+01 4.233415e+01 6.162353e+01 8.271045e+01 1.053386e+02 1.265148e+02 1.448691e+02 1.584545e+02 1.660610e+02 1.679296e+02 1.624858e+02 1.495889e+02 1.258977e+02 8.963386e+01 4.436862e+01 -9.633939e+00 -6.501690e+01 -1.213775e+02 -1.702012e+02 -2.109050e+02 -2.351069e+02 -2.431982e+02 -2.308349e+02 -2.037444e+02 -1.664837e+02 -1.193375e+02 -7.026553e+01 -1.592661e+01 3.414305e+01 8.424898e+01 1.253179e+02 1.623032e+02 1.880995e+02 2.090189e+02 2.209765e+02 2.318642e+02 2.396720e+02 2.497035e+02 2.572113e+02 2.647696e+02 2.670280e+02 2.662678e+02 2.598108e+02 2.497861e+02 2.357104e+02 2.189043e+02 1.998283e+02 1.789389e+02 1.574535e+02 1.353673e+02 1.155448e+02 9.774544e+01 8.738574e+01 8.308975e+01 9.115451e+01 1.063324e+02 1.301391e+02 1.552187e+02 1.850595e+02 2.120784e+02 2.405787e+02 2.636811e+02 2.853990e+02 3.004873e+02 3.124583e+02 3.179681e+02 3.199725e+02 3.167063e+02 3.105184e+02 3.007073e+02 2.890100e+02 2.753208e+02 2.608072e+02 2.456233e+02 2.304466e+02 2.155055e+02 2.010952e+02 1.874456e+02 1.745810e+02 1.627191e+02 1.517085e+02 1.417617e+02 1.326204e+02 1.245018e+02 1.170867e+02 1.106032e+02 1.046998e+02 9.961854e+01 9.499232e+01 9.107784e+01 8.750242e+01 8.453663e+01 8.180758e+01 7.959843e+01 7.753886e+01 7.592307e+01 7.438453e+01 7.322689e+01 7.208775e+01 7.127866e+01 7.044121e+01 6.989347e+01 6.928059e+01 6.892594e+01 6.847773e+01 6.826357e+01 6.793421e+01 6.782063e+01 6.757561e+01 6.753274e+01 6.734642e+01 6.735228e+01 6.720596e+01 6.724462e+01 6.712484e+01 6.718494e+01 6.708222e+01 6.715584e+01 6.706362e+01 6.714534e+01 6.705919e+01 6.714541e+01 6.706244e+01 6.715084e+01 6.706923e+01 6.715838e+01 6.707703e+01 6.716612e+01 6.708443e+01 6.717302e+01 6.709071e+01 6.717862e+01 6.709561e+01 6.718282e+01 6.709912e+01 6.718569e+01 6.710139e+01 6.718740e+01 6.710260e+01 6.718817e+01 6.710297e+01 6.718819e+01 6.710270e+01 6.718765e+01 6.710193e+01 6.718668e+01 6.710078e+01 6.718538e+01 6.709935e+01 6.718382e+01 6.709767e+01 6.718201e+01 6.709574e+01 6.717993e+01 6.709353e+01 6.717753e+01 6.709094e+01 6.717470e+01 6.708787e+01 6.717131e+01 6.708414e+01 6.716713e+01 6.707952e+01 6.716191e+01 6.707369e+01 6.715528e+01 6.706624e+01 6.714676e+01 6.705664e+01 6.713573e+01 6.704416e+01 6.712136e+01 6.702785e+01 6.710253e+01 6.700646e+01 6.707780e+01 6.697830e+01 6.704520e+01 6.694113e+01 6.700210e+01 6.689193e+01 6.694498e+01 6.682664e+01 6.686911e+01 6.673980e+01 6.676809e+01 6.662403e+01 6.663329e+01 6.646939e+01 6.645310e+01 6.626247e+01 6.621187e+01 6.598524e+01 6.588857e+01 6.561351e+01 6.545508e+01 6.511501e+01 6.487400e+01 6.444698e+01 6.409597e+01 6.355325e+01 6.305660e+01 6.236103e+01 6.167301e+01 6.077749e+01 5.984069e+01 5.868702e+01 5.743141e+01 5.595029e+01 5.429390e+01 5.240744e+01 5.026054e+01 4.788928e+01 4.516472e+01 4.224283e+01 3.887700e+01 3.538081e+01 3.137204e+01 2.736970e+01 2.284329e+01 1.857570e+01 1.388714e+01 9.890277e+00 