# vtk DataFile Version 2.0
Comment goes here
ASCII

DATASET STRUCTURED_POINTS
FIELD FieldData 1
TIME 1 1 double
0.70000000
DIMENSIONS    128   16   1

ORIGIN    0.000   0.000   0.000
SPACING   0.0078125 0.015625   1.000

POINT_DATA   2048
SCALARS fMag double
LOOKUP_TABLE default

0 0 0 0 0 0 0 0 0 0 0 0 0 0 0 0 0 0 0 0 0 0 0 0 0 0 0 0 0 0 0 0 0 0 0 0 0 0 0 0 0 0 0 0 0 0 0 0 0 0 0 0 0 0 0 0 0 0 0 0 0 0 0 0 0 0 0 0 0 0 0 0 0 0 0 0 0 0 0 0 0 0 0 0 0 0 0 0 0 0 0 0 0 0 0 0 0 0 0 0 0 0 0 0 0 0 0 0 0 0 0 0 0 0 0 0 0 0 0 0 0 0 0 0 0 0 0 0 
0 0 0 0 0 0 0 0 0 0 0 0 0 0 0 0 0 0 0 0 0 0 0 0 0 0 0 0 0 0 0 0 0 0 0 0 0 0 0 0 0 0 0 0 0 0 0 0 0 0 0 0 0 0 0 0 0 0 0 0 0 0 0 0 0 0 0 0 0 0 0 0 0 0 0 0 0 0 0 0 0 0 0 0 0 0 0 0 0 0 0 0 0 0 0 0 0 0 0 0 0 0 0 0 0 0 0 0 0 0 0 0 0 0 0 0 0 0 0 0 0 0 0 0 0 0 0 0 
0 0 0 0 0 1.189971e+00 3.423877e+00 2.087350e+00 2.805099e+00 2.373007e+00 3.458093e+00 2.815093e+00 4.053852e+00 5.459954e+00 7.858115e+00 1.002324e+01 1.482072e+01 1.946695e+01 2.407465e+01 2.848293e+01 3.501690e+01 3.550734e+01 3.487887e+01 3.496825e+01 3.435634e+01 3.429905e+01 3.374925e+01 3.361321e+01 3.315352e+01 3.296381e+01 3.257705e+01 3.233177e+01 3.198122e+01 3.166527e+01 3.131689e+01 3.095101e+01 3.063208e+01 3.027674e+01 3.000149e+01 2.964928e+01 2.936671e+01 2.898611e+01 2.867952e+01 2.829500e+01 2.799464e+01 2.764055e+01 2.735156e+01 2.701501e+01 2.670426e+01 2.636167e+01 2.601538e+01 2.566620e+01 2.528800e+01 2.494217e+01 2.456054e+01 2.427021e+01 2.359786e+01 2.156591e+01 1.951696e+01 2.044168e+01 2.242377e+01 2.231687e+01 2.009452e+01 2.037683e+01 2.256940e+01 2.256625e+01 2.053015e+01 2.089820e+01 2.357560e+01 2.341485e+01 2.033221e+01 1.877752e+01 1.870079e+01 1.844203e+01 1.804364e+01 1.776393e+01 1.735310e+01 1.705536e+01 1.663302e+01 1.633795e+01 1.594390e+01 1.564766e+01 1.528398e+01 1.496073e+01 1.463531e+01 1.426263e+01 1.396866e+01 1.352319e+01 1.327278e+01 1.278033e+01 1.260570e+01 1.209236e+01 1.198128e+01 1.143891e+01 1.133817e+01 1.076035e+01 1.063724e+01 1.007118e+01 9.919968e+00 9.406434e+00 9.191052e+00 8.762318e+00 8.475839e+00 8.175516e+00 7.785919e+00 7.583245e+00 7.037804e+00 6.926099e+00 6.260671e+00 6.264986e+00 5.523096e+00 5.617663e+00 4.830002e+00 4.963254e+00 4.169010e+00 4.278216e+00 3.532846e+00 3.555894e+00 2.925405e+00 2.804058e+00 2.352759e+00 2.454643e+00 2.950907e+00 2.323228e-01 0 0 0 0 
0 0 0 0 0 3.501126e+00 1.007291e+01 6.143837e+00 8.254594e+00 6.981760e+00 1.017480e+01 8.285293e+00 1.192915e+01 1.605878e+01 2.310743e+01 2.947446e+01 4.358256e+01 5.724236e+01 7.078894e+01 8.374634e+01 1.029502e+02 1.043919e+02 1.025451e+02 1.028078e+02 1.010097e+02 1.008414e+02 9.922565e+01 9.882586e+01 9.747487e+01 9.691732e+01 9.578061e+01 9.505973e+01 9.402943e+01 9.310085e+01 9.207693e+01 9.100157e+01 9.006422e+01 8.901984e+01 8.821082e+01 8.717562e+01 8.634511e+01 8.522644e+01 8.432530e+01 8.319510e+01 8.231226e+01 8.127146e+01 8.042202e+01 7.943277e+01 7.851937e+01 7.751235e+01 7.649446e+01 7.546805e+01 7.435634e+01 7.333976e+01 7.221795e+01 7.136453e+01 7.025434e+01 6.847455e+01 6.572921e+01 6.573143e+01 6.644766e+01 6.604150e+01 6.320157e+01 6.276010e+01 6.388804e+01 6.337507e+01 6.095531e+01 6.072599e+01 6.241461e+01 6.200201e+01 5.866695e+01 5.614535e+01 5.506184e+01 5.423092e+01 5.305962e+01 5.223725e+01 5.102936e+01 5.015399e+01 4.891223e+01 4.804468e+01 4.688606e+01 4.601507e+01 4.494574e+01 4.399533e+01 4.303851e+01 4.194277e+01 4.107845e+01 3.976869e+01 3.903242e+01 3.758451e+01 3.707107e+01 3.556165e+01 3.523503e+01 3.364019e+01 3.334391e+01 3.164472e+01 3.128261e+01 2.961790e+01 2.917313e+01 2.766284e+01 2.702939e+01 2.576850e+01 2.492606e+01 2.404288e+01 2.289731e+01 2.230140e+01 2.069762e+01 2.036928e+01 1.841261e+01 1.842542e+01 1.624370e+01 1.652177e+01 1.420514e+01 1.459672e+01 1.226036e+01 1.258089e+01 1.038771e+01 1.045396e+01 8.596395e+00 8.231444e+00 6.883140e+00 7.184484e+00 8.668888e+00 6.833962e-01 0 0 0 0 
0 0 0 0 0 2.419017e+00 6.959245e+00 4.246127e+00 5.704010e+00 4.823833e+00 7.030228e+00 5.725849e+00 8.243094e+00 5.374964e+01 7.160342e+01 6.068791e+01 7.355874e+01 7.221193e+01 8.020083e+01 8.975488e+01 8.994685e+01 7.208945e+01 7.081451e+01 7.099593e+01 6.975460e+01 6.963845e+01 6.852302e+01 6.824703e+01 6.731433e+01 6.692940e+01 6.614461e+01 6.564691e+01 6.493559e+01 6.429449e+01 6.358755e+01 6.284512e+01 6.219795e+01 6.147689e+01 6.091833e+01 6.020360e+01 5.963019e+01 5.885783e+01 5.823564e+01 5.745531e+01 5.684575e+01 5.612713e+01 5.554063e+01 5.485759e+01 5.422693e+01 5.353161e+01 5.282878e+01 5.212008e+01 5.135246e+01 5.065053e+01 4.987593e+01 4.928667e+01 4.948381e+01 5.140323e+01 5.208981e+01 5.010721e+01 4.620480e+01 4.570832e+01 4.764989e+01 4.611733e+01 4.181490e+01 4.123146e+01 4.316801e+01 4.214430e+01 3.697178e+01 3.730013e+01 4.049894e+01 3.984680e+01 3.810842e+01 3.745541e+01 3.664654e+01 3.607864e+01 3.524448e+01 3.463997e+01 3.378242e+01 3.318330e+01 3.238315e+01 3.178165e+01 3.104316e+01 3.038682e+01 2.972603e+01 2.896932e+01 2.837242e+01 2.746791e+01 2.695944e+01 2.595951e+01 2.560494e+01 2.456250e+01 2.433692e+01 2.323545e+01 2.303080e+01 2.185721e+01 2.160707e+01 2.045724e+01 2.014999e+01 1.910680e+01 1.866925e+01 1.779832e+01 1.721647e+01 1.660647e+01 1.581531e+01 1.540377e+01 1.429616e+01 1.406947e+01 1.271810e+01 1.272702e+01 1.122013e+01 1.141217e+01 9.811952e+00 1.008227e+01 8.468243e+00 8.689326e+00 7.173932e+00 7.218949e+00 5.934276e+00 5.678283e+00 4.736781e+00 4.945760e+00 5.983135e+00 4.721068e-01 0 0 0 0 
0 0 0 0 0 1.078621e-01 3.102113e-01 1.896406e-01 2.545156e-01 2.150799e-01 3.135233e-01 2.556484e-01 3.677913e-01 6.019033e+01 6.578690e+01 6.179711e+01 6.419148e+01 6.373749e+01 6.221574e+01 6.561576e+01 6.023247e+01 3.204872e+00 3.148299e+00 3.156360e+00 3.101279e+00 3.096134e+00 3.046630e+00 3.034382e+00 2.992978e+00 2.975890e+00 2.941048e+00 2.918951e+00 2.887368e+00 2.858905e+00 2.827516e+00 2.794552e+00 2.765815e+00 2.733799e+00 2.708996e+00 2.677259e+00 2.651795e+00 2.617496e+00 2.589864e+00 2.555208e+00 2.528136e+00 2.496218e+00 2.470168e+00 2.439829e+00 2.411815e+00 2.380929e+00 2.349708e+00 2.318225e+00 2.284123e+00 2.252939e+00 2.218524e+00 2.192347e+00 3.041025e+00 4.518669e+00 5.597180e+00 4.616254e+00 1.946090e+00 1.511852e+00 4.202484e+00 3.328543e+00 4.829385e-01 6.803152e-02 2.095447e+00 1.951279e+00 2.638659e+00 2.105496e+00 1.676454e+00 2.000984e+00 1.717520e+00 1.666524e+00 1.630562e+00 1.605314e+00 1.568224e+00 1.541346e+00 1.503212e+00 1.476572e+00 1.440988e+00 1.414241e+00 1.381398e+00 1.352213e+00 1.322826e+00 1.289179e+00 1.262634e+00 1.222414e+00 1.199803e+00 1.155336e+00 1.139568e+00 1.093203e+00 1.083169e+00 1.034168e+00 1.025057e+00 9.728344e-01 9.616928e-01 9.105158e-01 8.968301e-01 8.503922e-01 8.309128e-01 7.921437e-01 7.662532e-01 7.391068e-01 7.039160e-01 6.856142e-01 6.363508e-01 6.262824e-01 5.661665e-01 5.665788e-01 4.995190e-01 5.080613e-01 4.368104e-01 4.488055e-01 3.768936e-01 3.866559e-01 3.190669e-01 3.208821e-01 2.632867e-01 2.508977e-01 2.063996e-01 2.159193e-01 2.651544e-01 2.103333e-02 0 0 0 0 
0 0 0 0 0 0 0 0 0 0 0 0 0 6.574081e+01 7.146490e+01 6.738700e+01 6.945672e+01 6.957042e+01 6.715019e+01 7.174624e+01 6.524846e+01 0 0 0 0 0 0 0 0 0 0 0 0 0 0 0 0 0 0 0 0 0 0 0 0 0 0 0 0 0 0 0 0 0 0 0 2.457994e-01 1.256494e-01 1.382521e-01 1.266569e-01 2.715135e-01 5.185258e-01 3.717228e-01 4.646200e-01 6.058674e-01 5.817484e-01 8.269874e-01 6.110598e-01 9.503546e-01 9.232572e-01 7.265063e-01 5.813525e-01 3.609655e-02 0 0 0 0 0 0 0 0 0 0 0 0 0 0 0 0 0 0 0 0 0 0 0 0 0 0 0 0 0 0 0 0 0 0 0 0 0 0 0 0 0 0 0 0 0 0 0 0 0 0 0 0 0 0 0 
0 0 0 0 0 0 0 0 0 0 0 0 0 6.511453e+01 6.749354e+01 6.543991e+01 6.643388e+01 6.624900e+01 6.555363e+01 6.725062e+01 6.515812e+01 0 0 0 0 0 0 0 0 0 0 0 0 0 0 0 0 0 0 0 0 0 0 0 0 0 0 0 0 0 0 0 0 0 0 0 3.095613e-02 1.082565e-01 1.436672e-01 7.218383e-02 1.841426e-02 4.159998e-02 1.859057e-02 5.661478e-02 1.269420e-01 1.423148e-01 1.545536e-01 1.877500e-01 2.734758e-01 2.931820e-01 2.179203e-01 1.004310e-01 6.182559e-03 0 0 0 0 0 0 0 0 0 0 0 0 0 0 0 0 0 0 0 0 0 0 0 0 0 0 0 0 0 0 0 0 0 0 0 0 0 0 0 0 0 0 0 0 0 0 0 0 0 0 0 0 0 0 0 
0 0 0 0 0 0 0 0 0 0 0 0 0 6.880833e+01 7.181385e+01 6.943474e+01 7.047270e+01 7.064299e+01 6.918224e+01 7.194384e+01 6.845831e+01 0 0 0 0 0 0 0 0 0 0 0 0 0 0 0 0 0 0 0 0 0 0 0 0 0 0 0 0 0 0 0 0 0 0 0 0 0 0 0 0 0 0 0 0 0 0 0 0 0 0 0 0 0 0 0 0 0 0 0 0 0 0 0 0 0 0 0 0 0 0 0 0 0 0 0 0 0 0 0 0 0 0 0 0 0 0 0 0 0 0 0 0 0 0 0 0 0 0 0 0 0 0 0 0 0 0 0 
0 0 0 0 0 0 0 0 0 0 0 0 0 6.511726e+01 6.749999e+01 6.543887e+01 6.643903e+01 6.624456e+01 6.555411e+01 6.724706e+01 6.515089e+01 0 0 0 0 0 0 0 0 0 0 0 0 0 0 0 0 0 0 0 0 0 0 0 0 0 0 0 0 0 0 0 0 0 0 0 0 0 0 0 0 0 0 0 0 0 0 0 0 0 0 0 0 0 0 0 0 0 0 0 0 0 0 0 0 0 0 0 0 0 0 0 0 0 0 0 0 0 0 0 0 0 0 0 0 0 0 0 0 0 0 0 0 0 0 0 0 0 0 0 0 0 0 0 0 0 0 0 
0 0 0 0 0 0 0 0 0 0 0 0 0 6.575298e+01 7.147953e+01 6.738195e+01 6.948241e+01 6.954899e+01 6.716792e+01 7.173790e+01 6.520833e+01 0 0 0 0 0 0 0 0 0 0 0 0 0 0 0 0 0 0 0 0 0 0 0 0 0 0 0 0 0 0 0 0 0 0 0 0 0 0 0 0 0 0 0 0 0 0 0 0 0 0 0 0 0 0 0 0 0 0 0 0 0 0 0 0 0 0 0 0 0 0 0 0 0 0 0 0 0 0 0 0 0 0 0 0 0 0 0 0 0 0 0 0 0 0 0 0 0 0 0 0 0 0 0 0 0 0 0 
0 0 0 0 0 1.078970e-01 3.099977e-01 1.895240e-01 2.551496e-01 2.153770e-01 3.137031e-01 2.556803e-01 3.684364e-01 6.020926e+01 6.580619e+01 6.179139e+01 6.421757e+01 6.370767e+01 6.223252e+01 6.559270e+01 6.017250e+01 3.202427e+00 3.144127e+00 3.156469e+00 3.103374e+00 3.102687e+00 3.053198e+00 3.040439e+00 2.997017e+00 2.977246e+00 2.942051e+00 2.916655e+00 2.887088e+00 2.856074e+00 2.830222e+00 2.794820e+00 2.770496e+00 2.731982e+00 2.709099e+00 2.671766e+00 2.651522e+00 2.616397e+00 2.594771e+00 2.558355e+00 2.531702e+00 2.494357e+00 2.465404e+00 2.431757e+00 2.404279e+00 2.375160e+00 2.347647e+00 2.319586e+00 2.289773e+00 2.260493e+00 2.227737e+00 2.196911e+00 2.164025e+00 2.135948e+00 2.107210e+00 2.081929e+00 2.052934e+00 2.024213e+00 1.990581e+00 1.958532e+00 1.923476e+00 1.893571e+00 1.861342e+00 1.835842e+00 1.805556e+00 1.781564e+00 1.748980e+00 1.722141e+00 1.684732e+00 1.655492e+00 1.616819e+00 1.590894e+00 1.557050e+00 1.535769e+00 1.503252e+00 1.478442e+00 1.442403e+00 1.413186e+00 1.379093e+00 1.349748e+00 1.321077e+00 1.290540e+00 1.266147e+00 1.231175e+00 1.208316e+00 1.166022e+00 1.143865e+00 1.096488e+00 1.078267e+00 1.031045e+00 1.018693e+00 9.738743e-01 9.630112e-01 9.176887e-01 9.015201e-01 8.567196e-01 8.347520e-01 7.954526e-01 7.661816e-01 7.342135e-01 6.966615e-01 6.761237e-01 6.312817e-01 6.219029e-01 5.669463e-01 5.659721e-01 5.028692e-01 5.102352e-01 4.427134e-01 4.536729e-01 3.830809e-01 3.905165e-01 3.213194e-01 3.214760e-01 2.632215e-01 2.526550e-01 2.081458e-01 2.178578e-01 2.652888e-01 2.084961e-02 0 0 0 0 
0 0 0 0 0 2.419797e+00 6.954468e+00 4.243325e+00 5.718178e+00 4.830527e+00 7.034345e+00 5.726666e+00 8.257753e+00 5.380931e+01 7.154829e+01 6.066964e+01 7.365204e+01 7.206426e+01 8.036045e+01 8.972614e+01 8.979074e+01 7.203405e+01 7.072019e+01 7.099808e+01 6.980157e+01 6.978591e+01 6.867093e+01 6.838348e+01 6.740540e+01 6.696005e+01 6.616738e+01 6.559535e+01 6.492943e+01 6.423087e+01 6.364860e+01 6.285122e+01 6.230337e+01 6.143595e+01 6.092061e+01 6.007987e+01 5.962399e+01 5.883304e+01 5.834609e+01 5.752617e+01 5.692605e+01 5.608529e+01 5.543343e+01 5.467598e+01 5.405736e+01 5.340188e+01 5.278251e+01 5.215087e+01 5.147976e+01 5.082071e+01 5.008338e+01 4.938959e+01 4.864939e+01 4.801750e+01 4.737070e+01 4.680176e+01 4.614924e+01 4.550292e+01 4.474609e+01 4.402492e+01 4.323611e+01 4.256324e+01 4.183808e+01 4.126435e+01 4.058296e+01 4.004319e+01 3.931014e+01 3.870636e+01 3.786483e+01 3.720710e+01 3.633722e+01 3.575410e+01 3.499291e+01 3.451428e+01 3.378300e+01 3.322501e+01 3.241460e+01 3.175753e+01 3.099089e+01 3.033098e+01 2.968628e+01 2.899956e+01 2.845106e+01 2.766463e+01 2.715062e+01 2.619962e+01 2.570145e+01 2.463630e+01 2.422669e+01 2.316523e+01 2.288769e+01 2.188047e+01 2.163650e+01 2.061814e+01 2.025497e+01 1.924845e+01 1.875489e+01 1.787196e+01 1.721411e+01 1.649577e+01 1.565161e+01 1.518990e+01 1.418180e+01 1.397070e+01 1.273540e+01 1.271326e+01 1.129535e+01 1.146100e+01 9.944551e+00 1.019158e+01 8.607139e+00 8.775882e+00 7.224285e+00 7.231948e+00 5.932368e+00 5.717112e+00 4.774795e+00 4.988665e+00 5.985940e+00 4.679849e-01 0 0 0 0 
0 0 0 0 0 3.502253e+00 1.006600e+01 6.139734e+00 8.275088e+00 6.991457e+00 1.018078e+01 8.286501e+00 1.195042e+01 1.614000e+01 2.311754e+01 2.944503e+01 4.361404e+01 5.725258e+01 7.074720e+01 8.387499e+01 1.028022e+02 1.043116e+02 1.024084e+02 1.028109e+02 1.010776e+02 1.010549e+02 9.943987e+01 9.902350e+01 9.760680e+01 9.696175e+01 9.581363e+01 9.498508e+01 9.402056e+01 9.300874e+01 9.216538e+01 9.101042e+01 9.021692e+01 8.896054e+01 8.821412e+01 8.699639e+01 8.633612e+01 8.519053e+01 8.448526e+01 8.329774e+01 8.242857e+01 8.121088e+01 8.026678e+01 7.916977e+01 7.827381e+01 7.732450e+01 7.642747e+01 7.551269e+01 7.454073e+01 7.358626e+01 7.251841e+01 7.151363e+01 7.044165e+01 6.952652e+01 6.858981e+01 6.776587e+01 6.682087e+01 6.588487e+01 6.478883e+01 6.374445e+01 6.260211e+01 6.162768e+01 6.057754e+01 5.974669e+01 5.875994e+01 5.797828e+01 5.691673e+01 5.604238e+01 5.482376e+01 5.387130e+01 5.261165e+01 5.176724e+01 5.066500e+01 4.997191e+01 4.891299e+01 4.810500e+01 4.693151e+01 4.598004e+01 4.486995e+01 4.391437e+01 4.298085e+01 4.198646e+01 4.119222e+01 4.005346e+01 3.930918e+01 3.793213e+01 3.721080e+01 3.566850e+01 3.507542e+01 3.353852e+01 3.313669e+01 3.167837e+01 3.132518e+01 2.985079e+01 2.932502e+01 2.786779e+01 2.715322e+01 2.587493e+01 2.492244e+01 2.388241e+01 2.266013e+01 2.199160e+01 2.053191e+01 2.022620e+01 1.843760e+01 1.840548e+01 1.635260e+01 1.659246e+01 1.439711e+01 1.475496e+01 1.246142e+01 1.270615e+01 1.046055e+01 1.047269e+01 8.593520e+00 8.287495e+00 6.937867e+00 7.246435e+00 8.672894e+00 6.774300e-01 0 0 0 0 
0 0 0 0 0 1.190354e+00 3.421530e+00 2.085933e+00 2.812059e+00 2.376307e+00 3.460136e+00 2.815516e+00 4.061103e+00 5.487583e+00 7.861544e+00 1.001321e+01 1.483141e+01 1.947040e+01 2.406044e+01 2.852669e+01 3.496651e+01 3.547997e+01 3.483231e+01 3.496924e+01 3.437945e+01 3.437169e+01 3.382214e+01 3.368046e+01 3.319842e+01 3.297894e+01 3.258830e+01 3.230639e+01 3.197822e+01 3.163394e+01 3.134699e+01 3.095402e+01 3.068404e+01 3.025656e+01 3.000260e+01 2.958829e+01 2.936365e+01 2.897389e+01 2.873394e+01 2.832992e+01 2.803422e+01 2.761995e+01 2.729875e+01 2.692555e+01 2.662074e+01 2.629778e+01 2.599261e+01 2.568140e+01 2.535074e+01 2.502604e+01 2.466277e+01 2.432095e+01 2.395628e+01 2.364497e+01 2.332632e+01 2.304603e+01 2.272456e+01 2.240616e+01 2.203332e+01 2.167806e+01 2.128948e+01 2.095801e+01 2.060080e+01 2.031818e+01 1.998253e+01 1.971665e+01 1.935557e+01 1.905816e+01 1.864366e+01 1.831969e+01 1.789124e+01 1.760404e+01 1.722914e+01 1.699340e+01 1.663324e+01 1.635843e+01 1.595931e+01 1.563570e+01 1.525815e+01 1.493314e+01 1.461564e+01 1.427744e+01 1.400732e+01 1.362001e+01 1.336688e+01 1.289854e+01 1.265321e+01 1.212869e+01 1.192699e+01 1.140433e+01 1.126769e+01 1.077178e+01 1.065169e+01 1.015034e+01 9.971568e+00 9.476061e+00 9.233083e+00 8.798422e+00 8.474516e+00 8.120857e+00 7.705179e+00 7.477821e+00 6.981400e+00 6.877401e+00 6.269144e+00 6.258191e+00 5.560121e+00 5.641700e+00 4.895276e+00 5.017056e+00 4.237364e+00 4.320789e+00 3.557582e+00 3.562222e+00 2.924373e+00 2.823038e+00 2.371218e+00 2.475627e+00 2.952243e+00 2.302947e-01 0 0 0 0 
0 0 0 0 0 0 0 0 0 0 0 0 0 0 0 0 0 0 0 0 0 0 0 0 0 0 0 0 0 0 0 0 0 0 0 0 0 0 0 0 0 0 0 0 0 0 0 0 0 0 0 0 0 0 0 0 0 0 0 0 0 0 0 0 0 0 0 0 0 0 0 0 0 0 0 0 0 0 0 0 0 0 0 0 0 0 0 0 0 0 0 0 0 0 0 0 0 0 0 0 0 0 0 0 0 0 0 0 0 0 0 0 0 0 0 0 0 0 0 0 0 0 0 0 0 0 0 0 
