# vtk DataFile Version 2.0
Comment goes here
ASCII

DATASET STRUCTURED_POINTS
FIELD FieldData 1
TIME 1 1 double
0.79000000
DIMENSIONS    128   16   1

ORIGIN    0.000   0.000   0.000
SPACING   0.0078125 0.015625   1.000

POINT_DATA   2048
SCALARS fMag double
LOOKUP_TABLE default

0 0 0 0 0 0 0 0 0 0 0 0 0 0 0 0 0 0 0 0 0 0 0 0 0 0 0 0 0 0 0 0 0 0 0 0 0 0 0 0 0 0 0 0 0 0 0 0 0 0 0 0 0 0 0 0 0 0 0 0 0 0 0 0 0 0 0 0 0 0 0 0 0 0 0 0 0 0 0 0 0 0 0 0 0 0 0 0 0 0 0 0 0 0 0 0 0 0 0 0 0 0 0 0 0 0 0 0 0 0 0 0 0 0 0 0 0 0 0 0 0 0 0 0 0 0 0 0 
0 0 0 0 0 0 0 0 0 0 0 0 0 0 0 0 0 0 0 0 0 0 0 0 0 0 0 0 0 0 0 0 0 0 0 0 0 0 0 0 0 0 0 0 0 0 0 0 0 0 0 0 0 0 0 0 0 0 0 0 0 0 0 0 0 0 0 0 0 0 0 0 0 0 0 0 0 0 0 0 0 0 0 0 0 0 0 0 0 0 0 0 0 0 0 0 0 0 0 0 0 0 0 0 0 0 0 0 0 0 0 0 0 0 0 0 0 0 0 0 0 0 0 0 0 0 0 0 
0 0 0 0 0 1.119251e+00 2.448502e+00 1.929836e+00 1.996226e+00 1.800360e+00 2.463585e+00 2.106936e+00 3.012646e+00 4.017356e+00 5.658601e+00 6.922801e+00 1.091463e+01 1.408490e+01 1.744866e+01 2.109204e+01 2.512630e+01 2.564036e+01 2.518714e+01 2.520310e+01 2.482298e+01 2.468829e+01 2.439827e+01 2.416656e+01 2.396133e+01 2.366680e+01 2.352628e+01 2.319976e+01 2.308807e+01 2.273133e+01 2.258530e+01 2.220154e+01 2.201682e+01 2.168059e+01 2.149895e+01 2.124086e+01 2.102879e+01 2.081021e+01 2.054471e+01 2.035937e+01 2.004930e+01 1.987421e+01 1.951802e+01 1.934261e+01 1.898211e+01 1.882385e+01 1.848559e+01 1.831672e+01 1.798041e+01 1.776909e+01 1.743933e+01 1.721813e+01 1.664402e+01 1.597530e+01 1.576734e+01 1.608763e+01 1.603324e+01 1.631788e+01 1.669518e+01 1.663231e+01 1.654854e+01 1.674271e+01 1.755126e+01 1.755173e+01 1.753070e+01 1.736132e+01 1.838838e+01 1.755220e+01 1.468621e+01 1.390674e+01 1.352568e+01 1.327369e+01 1.290839e+01 1.269180e+01 1.234369e+01 1.216244e+01 1.182876e+01 1.163316e+01 1.128749e+01 1.105188e+01 1.073125e+01 1.047976e+01 1.021737e+01 9.936847e+00 9.730862e+00 9.415754e+00 9.277893e+00 8.922409e+00 8.821568e+00 8.392103e+00 8.303292e+00 7.830738e+00 7.785871e+00 7.322991e+00 7.309562e+00 6.853474e+00 6.821519e+00 6.385185e+00 6.314666e+00 5.926685e+00 5.778605e+00 5.442132e+00 5.187564e+00 4.948855e+00 4.611643e+00 4.510634e+00 4.071954e+00 4.073630e+00 3.506293e+00 3.594554e+00 2.941669e+00 3.108142e+00 2.413353e+00 2.599193e+00 1.919735e+00 2.069037e+00 1.519678e+00 1.987653e+00 1.677716e+00 5.667185e-01 0 0 0 0 
0 0 0 0 0 3.292537e+00 7.199568e+00 5.673317e+00 5.872587e+00 5.297581e+00 7.249069e+00 6.201146e+00 8.864871e+00 1.181643e+01 1.664038e+01 2.035844e+01 3.209810e+01 4.141989e+01 5.131030e+01 6.202128e+01 7.388082e+01 7.539205e+01 7.405985e+01 7.410673e+01 7.298933e+01 7.259340e+01 7.174084e+01 7.105972e+01 7.045644e+01 6.959066e+01 6.917758e+01 6.821777e+01 6.788945e+01 6.684076e+01 6.641149e+01 6.528334e+01 6.474029e+01 6.375186e+01 6.321787e+01 6.245912e+01 6.183570e+01 6.119311e+01 6.041259e+01 5.986774e+01 5.895620e+01 5.844145e+01 5.739431e+01 5.687861e+01 5.581879e+01 5.535349e+01 5.435900e+01 5.386251e+01 5.287373e+01 5.225247e+01 5.128293e+01 5.063261e+01 4.942044e+01 4.798766e+01 4.723218e+01 4.738746e+01 4.779913e+01 4.774825e+01 4.723699e+01 4.713584e+01 4.792010e+01 4.759374e+01 4.749192e+01 4.727592e+01 4.835868e+01 4.746909e+01 4.701279e+01 4.682964e+01 4.290540e+01 4.089659e+01 3.977615e+01 3.903522e+01 3.796108e+01 3.732422e+01 3.630061e+01 3.576764e+01 3.478643e+01 3.421126e+01 3.319478e+01 3.250197e+01 3.155913e+01 3.081963e+01 3.004802e+01 2.922317e+01 2.861747e+01 2.769091e+01 2.728555e+01 2.624026e+01 2.594375e+01 2.468088e+01 2.441972e+01 2.303007e+01 2.289809e+01 2.153680e+01 2.149721e+01 2.015581e+01 2.006170e+01 1.877833e+01 1.857080e+01 1.742963e+01 1.699406e+01 1.600442e+01 1.525578e+01 1.455377e+01 1.356219e+01 1.326526e+01 1.197535e+01 1.198047e+01 1.031216e+01 1.057187e+01 8.651776e+00 9.141257e+00 7.097365e+00 7.642674e+00 5.640688e+00 6.068744e+00 4.415504e+00 5.790537e+00 4.914391e+00 1.667299e+00 0 0 0 0 
0 0 0 0 0 2.274646e+00 4.972234e+00 3.917593e+00 4.057182e+00 3.660511e+00 5.008918e+00 4.285562e+00 6.125488e+00 3.891729e+01 4.848999e+01 4.380738e+01 5.568487e+01 5.173497e+01 6.040259e+01 6.402682e+01 6.360514e+01 5.206759e+01 5.114773e+01 5.118009e+01 5.040853e+01 5.013514e+01 4.954645e+01 4.907614e+01 4.865958e+01 4.806177e+01 4.777654e+01 4.711380e+01 4.688710e+01 4.616297e+01 4.586656e+01 4.508755e+01 4.471256e+01 4.403002e+01 4.366129e+01 4.313734e+01 4.270685e+01 4.226312e+01 4.172415e+01 4.134791e+01 4.071847e+01 4.036302e+01 3.963993e+01 3.928381e+01 3.855195e+01 3.823063e+01 3.754387e+01 3.720101e+01 3.651819e+01 3.608916e+01 3.541961e+01 3.497053e+01 3.496243e+01 3.480351e+01 3.438477e+01 3.334140e+01 3.259020e+01 3.131534e+01 3.095485e+01 3.038086e+01 2.967678e+01 2.868162e+01 2.795176e+01 2.770683e+01 2.656813e+01 2.624587e+01 2.482203e+01 2.717638e+01 2.931747e+01 2.824693e+01 2.747314e+01 2.696144e+01 2.621960e+01 2.577976e+01 2.507281e+01 2.470472e+01 2.402705e+01 2.362980e+01 2.292775e+01 2.244926e+01 2.179808e+01 2.128734e+01 2.075442e+01 2.018475e+01 1.976642e+01 1.912651e+01 1.884655e+01 1.812463e+01 1.791986e+01 1.704764e+01 1.686727e+01 1.590746e+01 1.581629e+01 1.487602e+01 1.484864e+01 1.392207e+01 1.385700e+01 1.297049e+01 1.282708e+01 1.203878e+01 1.173789e+01 1.105428e+01 1.053720e+01 1.005231e+01 9.367475e+00 9.162447e+00 8.271587e+00 8.275220e+00 7.122975e+00 7.302435e+00 5.976188e+00 6.314231e+00 4.902205e+00 5.278261e+00 3.893639e+00 4.183958e+00 3.023809e+00 3.973031e+00 3.384938e+00 1.151932e+00 0 0 0 0 
0 0 0 0 0 1.013608e-01 2.211672e-01 1.741131e-01 1.808207e-01 1.632895e-01 2.234328e-01 1.913518e-01 2.732637e-01 4.390869e+01 4.791331e+01 4.499405e+01 4.722623e+01 4.651300e+01 4.575710e+01 4.811486e+01 4.365581e+01 2.315889e+00 2.275025e+00 2.276461e+00 2.242180e+00 2.230032e+00 2.203874e+00 2.182979e+00 2.164470e+00 2.137910e+00 2.125238e+00 2.095793e+00 2.085721e+00 2.053545e+00 2.040373e+00 2.005754e+00 1.989089e+00 1.958754e+00 1.942367e+00 1.919079e+00 1.899947e+00 1.880225e+00 1.856272e+00 1.839550e+00 1.811575e+00 1.795777e+00 1.763637e+00 1.747808e+00 1.715275e+00 1.700991e+00 1.670460e+00 1.655217e+00 1.624858e+00 1.605784e+00 1.576014e+00 1.556051e+00 2.454760e+00 3.292498e+00 3.139325e+00 2.374988e+00 1.295898e+00 7.842027e-01 9.556812e-01 1.349548e+00 2.445354e+00 2.705166e+00 2.961622e+00 3.099022e+00 5.418540e+00 4.649054e+00 4.497754e+00 3.295024e+00 1.002161e+00 1.257081e+00 1.222665e+00 1.199906e+00 1.166908e+00 1.147343e+00 1.115895e+00 1.099519e+00 1.069370e+00 1.051696e+00 1.020461e+00 9.991733e-01 9.701997e-01 9.474788e-01 9.237679e-01 8.984267e-01 8.798159e-01 8.513510e-01 8.388989e-01 8.067844e-01 7.976769e-01 7.588710e-01 7.508460e-01 7.081339e-01 7.040719e-01 6.622191e-01 6.609885e-01 6.197346e-01 6.168219e-01 5.773438e-01 5.709436e-01 5.358360e-01 5.224331e-01 4.919919e-01 4.689788e-01 4.473965e-01 4.169300e-01 4.078202e-01 3.681921e-01 3.683777e-01 3.171109e-01 3.251171e-01 2.660813e-01 2.811157e-01 2.181931e-01 2.347804e-01 1.726861e-01 1.842515e-01 1.279831e-01 1.701495e-01 1.482630e-01 5.135180e-02 0 0 0 0 
0 0 0 0 0 0 0 0 0 0 0 0 0 4.782031e+01 5.176407e+01 4.898514e+01 5.084634e+01 5.055226e+01 4.916105e+01 5.220785e+01 4.714349e+01 0 0 0 0 0 0 0 0 0 0 0 0 0 0 0 0 0 0 0 0 0 0 0 0 0 0 0 0 0 0 0 0 0 0 0 2.920763e-01 5.603680e-01 2.238894e-01 2.375377e-01 1.610662e-01 4.078844e-02 7.135457e-02 2.093769e-01 2.148313e-01 2.543988e-01 7.117087e-01 4.650736e-01 8.846017e-01 7.702148e-01 8.565595e-01 1.238161e+00 1.169426e-01 0 0 0 0 0 0 0 0 0 0 0 0 0 0 0 0 0 0 0 0 0 0 0 0 0 0 0 0 0 0 0 0 0 0 0 0 0 0 0 0 0 0 0 0 0 0 0 0 0 0 0 0 0 0 0 
0 0 0 0 0 0 0 0 0 0 0 0 0 4.773880e+01 4.955276e+01 4.796439e+01 4.880528e+01 4.857273e+01 4.813844e+01 4.934461e+01 4.777799e+01 0 0 0 0 0 0 0 0 0 0 0 0 0 0 0 0 0 0 0 0 0 0 0 0 0 0 0 0 0 0 0 0 0 0 0 2.199681e-02 6.854175e-02 4.207445e-02 3.687390e-02 7.557109e-02 5.913468e-02 1.911067e-02 1.062314e-02 7.518198e-02 4.656662e-02 9.417723e-02 8.813781e-02 3.351562e-02 6.958740e-02 1.703386e-01 1.607212e-01 1.564676e-02 0 0 0 0 0 0 0 0 0 0 0 0 0 0 0 0 0 0 0 0 0 0 0 0 0 0 0 0 0 0 0 0 0 0 0 0 0 0 0 0 0 0 0 0 0 0 0 0 0 0 0 0 0 0 0 
0 0 0 0 0 0 0 0 0 0 0 0 0 5.017087e+01 5.235297e+01 5.059476e+01 5.146373e+01 5.146278e+01 5.051978e+01 5.242992e+01 4.989201e+01 0 0 0 0 0 0 0 0 0 0 0 0 0 0 0 0 0 0 0 0 0 0 0 0 0 0 0 0 0 0 0 0 0 0 0 0 0 0 0 0 0 0 0 0 0 0 0 0 0 0 0 0 0 0 0 0 0 0 0 0 0 0 0 0 0 0 0 0 0 0 0 0 0 0 0 0 0 0 0 0 0 0 0 0 0 0 0 0 0 0 0 0 0 0 0 0 0 0 0 0 0 0 0 0 0 0 0 
0 0 0 0 0 0 0 0 0 0 0 0 0 4.774080e+01 4.955249e+01 4.796173e+01 4.880560e+01 4.856297e+01 4.814082e+01 4.933024e+01 4.778156e+01 0 0 0 0 0 0 0 0 0 0 0 0 0 0 0 0 0 0 0 0 0 0 0 0 0 0 0 0 0 0 0 0 0 0 0 0 0 0 0 0 0 0 0 0 0 0 0 0 0 0 0 0 0 0 0 0 0 0 0 0 0 0 0 0 0 0 0 0 0 0 0 0 0 0 0 0 0 0 0 0 0 0 0 0 0 0 0 0 0 0 0 0 0 0 0 0 0 0 0 0 0 0 0 0 0 0 0 
0 0 0 0 0 0 0 0 0 0 0 0 0 4.783808e+01 5.175339e+01 4.898963e+01 5.084416e+01 5.052775e+01 4.917769e+01 5.215780e+01 4.715766e+01 0 0 0 0 0 0 0 0 0 0 0 0 0 0 0 0 0 0 0 0 0 0 0 0 0 0 0 0 0 0 0 0 0 0 0 0 0 0 0 0 0 0 0 0 0 0 0 0 0 0 0 0 0 0 0 0 0 0 0 0 0 0 0 0 0 0 0 0 0 0 0 0 0 0 0 0 0 0 0 0 0 0 0 0 0 0 0 0 0 0 0 0 0 0 0 0 0 0 0 0 0 0 0 0 0 0 0 
0 0 0 0 0 1.015381e-01 2.205997e-01 1.731682e-01 1.819086e-01 1.637816e-01 2.244435e-01 1.915160e-01 2.743822e-01 4.392862e+01 4.790271e+01 4.499562e+01 4.721653e+01 4.647251e+01 4.576189e+01 4.803861e+01 4.366244e+01 2.313187e+00 2.269371e+00 2.277472e+00 2.241356e+00 2.234982e+00 2.204145e+00 2.186680e+00 2.163786e+00 2.140925e+00 2.126086e+00 2.098752e+00 2.087392e+00 2.055504e+00 2.045061e+00 2.010947e+00 1.999277e+00 1.963927e+00 1.949864e+00 1.917644e+00 1.904072e+00 1.877656e+00 1.861462e+00 1.836398e+00 1.814139e+00 1.790834e+00 1.765963e+00 1.746580e+00 1.720324e+00 1.703025e+00 1.675642e+00 1.659959e+00 1.633600e+00 1.618794e+00 1.593095e+00 1.576125e+00 1.550635e+00 1.531943e+00 1.509613e+00 1.490760e+00 1.471132e+00 1.449832e+00 1.431130e+00 1.408850e+00 1.392480e+00 1.370078e+00 1.352983e+00 1.328508e+00 1.309563e+00 1.286007e+00 1.267765e+00 1.247080e+00 1.227719e+00 1.207780e+00 1.185154e+00 1.167403e+00 1.142671e+00 1.127293e+00 1.099039e+00 1.083628e+00 1.052423e+00 1.038560e+00 1.008825e+00 9.967646e-01 9.682983e-01 9.536036e-01 9.260663e-01 9.078104e-01 8.838604e-01 8.607787e-01 8.398494e-01 8.099364e-01 7.938230e-01 7.601097e-01 7.514126e-01 7.140796e-01 7.089183e-01 6.659038e-01 6.618301e-01 6.169119e-01 6.143365e-01 5.711880e-01 5.666758e-01 5.270078e-01 5.177631e-01 4.856742e-01 4.695836e-01 4.461870e-01 4.184366e-01 4.039765e-01 3.649832e-01 3.637643e-01 3.167214e-01 3.274001e-01 2.707762e-01 2.869201e-01 2.232509e-01 2.415837e-01 1.782677e-01 1.912314e-01 1.311324e-01 1.731846e-01 1.484400e-01 5.157925e-02 0 0 0 0 
0 0 0 0 0 2.278624e+00 4.959477e+00 3.896295e+00 4.081582e+00 3.671618e+00 5.031692e+00 4.289306e+00 6.150728e+00 3.898768e+01 4.841150e+01 4.387355e+01 5.562324e+01 5.167834e+01 6.045229e+01 6.382292e+01 6.357839e+01 5.200675e+01 5.102047e+01 5.120288e+01 5.039007e+01 5.024669e+01 4.955277e+01 4.915971e+01 4.864452e+01 4.812994e+01 4.779596e+01 4.718070e+01 4.692496e+01 4.620723e+01 4.597215e+01 4.520442e+01 4.494177e+01 4.414633e+01 4.382990e+01 4.310498e+01 4.279963e+01 4.220533e+01 4.184100e+01 4.127714e+01 4.077632e+01 4.025204e+01 3.969248e+01 3.925640e+01 3.866569e+01 3.827651e+01 3.766046e+01 3.730766e+01 3.671470e+01 3.638164e+01 3.580357e+01 3.542186e+01 3.484853e+01 3.442809e+01 3.392587e+01 3.350186e+01 3.306041e+01 3.258138e+01 3.216077e+01 3.165972e+01 3.129160e+01 3.078782e+01 3.040340e+01 2.985304e+01 2.942703e+01 2.889737e+01 2.848718e+01 2.802209e+01 2.758675e+01 2.713846e+01 2.662974e+01 2.623062e+01 2.567456e+01 2.532883e+01 2.469363e+01 2.434718e+01 2.364572e+01 2.333409e+01 2.266573e+01 2.239468e+01 2.175490e+01 2.142464e+01 2.080576e+01 2.039544e+01 1.985719e+01 1.933836e+01 1.886796e+01 1.819557e+01 1.783337e+01 1.707558e+01 1.688006e+01 1.604103e+01 1.592505e+01 1.495854e+01 1.486714e+01 1.385811e+01 1.380055e+01 1.283152e+01 1.273053e+01 1.183981e+01 1.163244e+01 1.091191e+01 1.055052e+01 1.002500e+01 9.401313e+00 9.076215e+00 8.199681e+00 8.171785e+00 7.114410e+00 7.353843e+00 6.081675e+00 6.444545e+00 5.015619e+00 5.430769e+00 4.018577e+00 4.340248e+00 3.094231e+00 4.041404e+00 3.388907e+00 1.157029e+00 0 0 0 0 
0 0 0 0 0 3.298294e+00 7.181099e+00 5.642464e+00 5.907902e+00 5.313675e+00 7.282059e+00 6.206581e+00 8.901440e+00 1.190039e+01 1.663019e+01 2.033450e+01 3.211487e+01 4.134179e+01 5.131126e+01 6.195202e+01 7.367822e+01 7.530395e+01 7.387554e+01 7.413974e+01 7.296261e+01 7.275499e+01 7.175006e+01 7.118082e+01 7.043472e+01 6.968948e+01 6.920579e+01 6.831472e+01 6.794434e+01 6.690489e+01 6.656443e+01 6.545260e+01 6.507222e+01 6.392027e+01 6.346203e+01 6.241224e+01 6.197005e+01 6.110943e+01 6.058183e+01 5.976529e+01 5.904002e+01 5.828079e+01 5.747047e+01 5.683898e+01 5.598354e+01 5.541997e+01 5.452785e+01 5.401694e+01 5.315827e+01 5.267597e+01 5.183887e+01 5.128612e+01 5.045589e+01 4.984707e+01 4.911982e+01 4.850583e+01 4.786660e+01 4.717293e+01 4.656388e+01 4.583833e+01 4.530529e+01 4.457581e+01 4.401916e+01 4.322224e+01 4.260536e+01 4.183842e+01 4.124447e+01 4.057103e+01 3.994066e+01 3.929154e+01 3.855492e+01 3.797701e+01 3.717185e+01 3.667124e+01 3.575151e+01 3.524987e+01 3.423420e+01 3.378299e+01 3.281526e+01 3.242283e+01 3.149650e+01 3.101832e+01 3.012228e+01 2.952817e+01 2.874885e+01 2.799764e+01 2.731656e+01 2.634298e+01 2.581856e+01 2.472135e+01 2.443825e+01 2.322344e+01 2.305552e+01 2.165619e+01 2.152390e+01 2.006307e+01 1.997982e+01 1.857696e+01 1.843085e+01 1.714141e+01 1.684127e+01 1.579820e+01 1.527500e+01 1.451420e+01 1.361118e+01 1.314045e+01 1.187129e+01 1.183078e+01 1.029980e+01 1.064633e+01 8.804500e+00 9.329900e+00 7.261509e+00 7.863387e+00 5.821454e+00 6.294884e+00 4.517376e+00 5.889568e+00 4.920138e+00 1.674674e+00 0 0 0 0 
0 0 0 0 0 1.121208e+00 2.442221e+00 1.919337e+00 2.008229e+00 1.805839e+00 2.474810e+00 2.108791e+00 3.025095e+00 4.045911e+00 5.655133e+00 6.914649e+00 1.092033e+01 1.405831e+01 1.744897e+01 2.106845e+01 2.505737e+01 2.561038e+01 2.512444e+01 2.521433e+01 2.481390e+01 2.474328e+01 2.440143e+01 2.420779e+01 2.395398e+01 2.370046e+01 2.353592e+01 2.323278e+01 2.310678e+01 2.275317e+01 2.263734e+01 2.225912e+01 2.212972e+01 2.173787e+01 2.158199e+01 2.122490e+01 2.107449e+01 2.078175e+01 2.060229e+01 2.032454e+01 2.007784e+01 1.981959e+01 1.954396e+01 1.932915e+01 1.903817e+01 1.884648e+01 1.854302e+01 1.836924e+01 1.807717e+01 1.791312e+01 1.762840e+01 1.744038e+01 1.715800e+01 1.695092e+01 1.670357e+01 1.649473e+01 1.627732e+01 1.604139e+01 1.583424e+01 1.558747e+01 1.540617e+01 1.515806e+01 1.496874e+01 1.469770e+01 1.448790e+01 1.422706e+01 1.402505e+01 1.379602e+01 1.358163e+01 1.336086e+01 1.311034e+01 1.291379e+01 1.263996e+01 1.246971e+01 1.215692e+01 1.198632e+01 1.164091e+01 1.148746e+01 1.115836e+01 1.102491e+01 1.070990e+01 1.054729e+01 1.024258e+01 1.004054e+01 9.775527e+00 9.520057e+00 9.288445e+00 8.957354e+00 8.779009e+00 8.405880e+00 8.309600e+00 7.896489e+00 7.839389e+00 7.363555e+00 7.318589e+00 6.821876e+00 6.793603e+00 6.316630e+00 6.266998e+00 5.828603e+00 5.726586e+00 5.371958e+00 5.194068e+00 4.935385e+00 4.628300e+00 4.468208e+00 4.036595e+00 4.022754e+00 3.502115e+00 3.619886e+00 2.993602e+00 3.172276e+00 2.469141e+00 2.674202e+00 1.981145e+00 2.145868e+00 1.554277e+00 2.021345e+00 1.679670e+00 5.692245e-01 0 0 0 0 
0 0 0 0 0 0 0 0 0 0 0 0 0 0 0 0 0 0 0 0 0 0 0 0 0 0 0 0 0 0 0 0 0 0 0 0 0 0 0 0 0 0 0 0 0 0 0 0 0 0 0 0 0 0 0 0 0 0 0 0 0 0 0 0 0 0 0 0 0 0 0 0 0 0 0 0 0 0 0 0 0 0 0 0 0 0 0 0 0 0 0 0 0 0 0 0 0 0 0 0 0 0 0 0 0 0 0 0 0 0 0 0 0 0 0 0 0 0 0 0 0 0 0 0 0 0 0 0 
