# vtk DataFile Version 2.0
Comment goes here
ASCII

DATASET STRUCTURED_POINTS
FIELD FieldData 1
TIME 1 1 double
0.47000000
DIMENSIONS    128   16   1

ORIGIN    0.000   0.000   0.000
SPACING   0.0078125 0.015625   1.000

POINT_DATA   2048
SCALARS fX double
LOOKUP_TABLE default

0 0 0 0 0 0 0 0 0 0 0 0 0 0 0 0 0 0 0 0 0 0 0 0 0 0 0 0 0 0 0 0 0 0 0 0 0 0 0 0 0 0 0 0 0 0 0 0 0 0 0 0 0 0 0 0 0 0 0 0 0 0 0 0 0 0 0 0 0 0 0 0 0 0 0 0 0 0 0 0 0 0 0 0 0 0 0 0 0 0 0 0 0 0 0 0 0 0 0 0 0 0 0 0 0 0 0 0 0 0 0 0 0 0 0 0 0 0 0 0 0 0 0 0 0 0 0 0 
0 0 0 0 0 0 0 0 0 0 0 0 0 0 0 0 0 0 0 0 0 0 0 0 0 0 0 0 0 0 0 0 0 0 0 0 0 0 0 0 0 0 0 0 0 0 0 0 0 0 0 0 0 0 0 0 0 0 0 0 0 0 0 0 0 0 0 0 0 0 0 0 0 0 0 0 0 0 0 0 0 0 0 0 0 0 0 0 0 0 0 0 0 0 0 0 0 0 0 0 0 0 0 0 0 0 0 0 0 0 0 0 0 0 0 0 0 0 0 0 0 0 0 0 0 0 0 0 
0 0 0 0 0 1.681610e+00 1.394284e+00 -2.620978e-01 6.001625e-01 3.330672e-01 5.643680e-01 3.548013e-01 -4.381919e-02 -2.126217e+00 -2.989011e+00 -2.199817e+00 -2.109492e+00 -2.470534e+00 -1.781096e+00 -2.696578e+00 -2.574216e+00 3.316249e-01 4.350505e-01 5.634444e-01 4.816280e-01 6.093480e-01 5.341099e-01 6.550187e-01 5.873272e-01 6.937785e-01 6.349781e-01 7.201717e-01 6.740046e-01 7.366731e-01 7.094493e-01 7.461693e-01 7.344299e-01 7.397352e-01 7.409547e-01 7.218578e-01 7.380326e-01 7.051682e-01 7.337723e-01 6.924188e-01 7.280313e-01 6.845845e-01 7.238257e-01 6.867587e-01 7.201610e-01 6.929693e-01 7.100841e-01 6.973142e-01 6.911259e-01 7.020975e-01 6.602076e-01 3.355861e-01 4.998437e-02 1.298318e+00 5.993957e-01 -3.916063e+00 -3.492602e+00 2.194476e+00 9.465568e-01 -4.889804e+00 -4.186611e+00 2.104073e+00 1.138228e+00 -5.573571e+00 -5.122855e+00 3.166563e+00 4.740852e+00 -2.928410e+00 -3.375809e+00 8.507826e-02 3.079149e-01 3.517442e-01 3.373509e-01 3.292756e-01 3.482772e-01 3.071432e-01 3.467494e-01 2.836608e-01 3.313303e-01 2.584724e-01 3.025515e-01 2.308275e-01 2.643572e-01 2.036529e-01 2.245677e-01 1.759239e-01 1.880108e-01 1.503164e-01 1.576139e-01 1.354330e-01 1.431224e-01 1.353860e-01 1.429170e-01 1.510496e-01 1.557470e-01 1.807192e-01 1.770532e-01 2.186414e-01 1.971632e-01 2.542466e-01 2.093538e-01 2.848936e-01 2.150694e-01 3.096352e-01 2.140320e-01 3.257315e-01 2.083203e-01 3.363714e-01 2.072718e-01 3.470784e-01 2.169675e-01 3.586971e-01 2.386190e-01 3.747019e-01 2.699700e-01 4.172525e-01 1.536551e-01 3.613861e-01 1.520688e+00 3.223097e-01 0 0 0 0 
0 0 0 0 0 4.944629e+00 4.087601e+00 -7.903986e-01 1.756232e+00 9.778707e-01 1.659417e+00 1.043180e+00 -1.294507e-01 -6.254581e+00 -8.792191e+00 -6.471219e+00 -6.205694e+00 -7.268062e+00 -5.239906e+00 -7.932810e+00 -7.572237e+00 9.762264e-01 1.280430e+00 1.658011e+00 1.417185e+00 1.792805e+00 1.571379e+00 1.927006e+00 1.727823e+00 2.040958e+00 1.867965e+00 2.118594e+00 1.982788e+00 2.167166e+00 2.087097e+00 2.195139e+00 2.160620e+00 2.176240e+00 2.179833e+00 2.123655e+00 2.171231e+00 2.074538e+00 2.158667e+00 2.036991e+00 2.141733e+00 2.013898e+00 2.129317e+00 2.020255e+00 2.118506e+00 2.038501e+00 2.088847e+00 2.051272e+00 2.033069e+00 2.065336e+00 1.942116e+00 9.871913e-01 7.258126e-02 4.584160e+00 5.325474e+00 -6.751170e+00 -5.547553e+00 1.060282e+01 7.012735e+00 -9.223017e+00 -6.677075e+00 1.117932e+01 8.420257e+00 -1.029974e+01 -8.493568e+00 1.507111e+01 1.780383e+01 -6.585117e+00 -9.804386e+00 2.502627e-01 9.057486e-01 1.034684e+00 9.923573e-01 9.686108e-01 1.024507e+00 9.035085e-01 1.020003e+00 8.344154e-01 9.746223e-01 7.602980e-01 8.899465e-01 6.789655e-01 7.775923e-01 5.990384e-01 6.605701e-01 5.175038e-01 5.530779e-01 4.422248e-01 4.637122e-01 3.984898e-01 4.211234e-01 3.983807e-01 4.205346e-01 4.444555e-01 4.582584e-01 5.316947e-01 5.208841e-01 6.431834e-01 5.799753e-01 7.478559e-01 6.157860e-01 8.379768e-01 6.326084e-01 9.108036e-01 6.296647e-01 9.583110e-01 6.130837e-01 9.898699e-01 6.103003e-01 1.021672e+00 6.391158e-01 1.056084e+00 7.029396e-01 1.103134e+00 7.948977e-01 1.227832e+00 4.540974e-01 1.067485e+00 4.475652e+00 9.482352e-01 0 0 0 0 
0 0 0 0 0 3.414920e+00 2.817129e+00 -5.554359e-01 1.208793e+00 6.746292e-01 1.146018e+00 7.204130e-01 -8.969568e-02 -2.400476e+01 -3.688476e+01 -2.669057e+01 -2.549227e+01 -2.954383e+01 -2.230902e+01 -3.425289e+01 -2.777569e+01 6.747523e-01 8.848889e-01 1.145683e+00 9.792378e-01 1.238687e+00 1.085669e+00 1.331328e+00 1.193696e+00 1.410017e+00 1.290497e+00 1.463649e+00 1.369830e+00 1.497219e+00 1.441912e+00 1.516563e+00 1.492723e+00 1.503520e+00 1.506006e+00 1.467195e+00 1.500060e+00 1.433252e+00 1.491365e+00 1.407293e+00 1.479643e+00 1.391316e+00 1.471045e+00 1.395689e+00 1.463561e+00 1.408283e+00 1.443063e+00 1.417101e+00 1.404526e+00 1.426814e+00 1.341691e+00 6.819941e-01 3.185486e-02 3.786441e+00 6.008122e+00 -1.728250e+00 -8.927319e-01 9.939426e+00 7.483725e+00 -3.254473e+00 -1.217709e+00 1.078374e+01 8.863429e+00 -3.534695e+00 -2.010717e+00 1.384162e+01 1.449579e+01 -3.458149e+00 -6.708078e+00 1.728866e-01 6.257093e-01 7.147849e-01 6.855507e-01 6.691496e-01 7.077654e-01 6.241763e-01 7.046485e-01 5.764365e-01 6.732868e-01 5.252229e-01 6.147807e-01 4.690303e-01 5.371623e-01 4.138192e-01 4.563313e-01 3.575089e-01 3.820937e-01 3.055272e-01 3.203816e-01 2.753363e-01 2.909792e-01 2.752751e-01 2.905799e-01 3.071040e-01 3.166323e-01 3.673535e-01 3.598723e-01 4.443423e-01 4.006630e-01 5.166220e-01 4.253781e-01 5.788654e-01 4.370041e-01 6.291989e-01 4.350228e-01 6.620951e-01 4.236749e-01 6.840230e-01 4.218979e-01 7.061413e-01 4.419472e-01 7.300279e-01 4.861033e-01 7.625163e-01 5.495025e-01 8.484346e-01 3.147232e-01 7.395958e-01 3.093064e+00 6.551294e-01 0 0 0 0 
0 0 0 0 0 1.519003e-01 1.238112e-01 -2.713508e-02 5.272288e-02 2.982568e-02 5.096926e-02 3.203472e-02 -4.064157e-03 -2.645980e+01 -2.891138e+01 -2.705059e+01 -2.735657e+01 -2.783877e+01 -2.647896e+01 -2.847040e+01 -2.672836e+01 3.015082e-02 3.950906e-02 5.111563e-02 4.368086e-02 5.523020e-02 4.839968e-02 5.933992e-02 5.320038e-02 6.283793e-02 5.750970e-02 6.522704e-02 6.104708e-02 6.672662e-02 6.426409e-02 6.759320e-02 6.653280e-02 6.701551e-02 6.712702e-02 6.539756e-02 6.686128e-02 6.388250e-02 6.647002e-02 6.272060e-02 6.594203e-02 6.200280e-02 6.555346e-02 6.219294e-02 6.521617e-02 6.275128e-02 6.430084e-02 6.314285e-02 6.258265e-02 6.357485e-02 5.978273e-02 3.038885e-02 2.828272e-02 5.892096e-01 1.349579e+00 1.150277e+00 1.214890e+00 1.550046e+00 1.450213e+00 1.099475e+00 1.275564e+00 1.719147e+00 1.568683e+00 1.191348e+00 1.351257e+00 1.925433e+00 1.407864e+00 1.486713e-01 -2.870695e-01 7.702220e-03 2.787563e-02 3.184512e-02 3.054422e-02 2.981445e-02 3.153509e-02 2.781102e-02 3.139494e-02 2.568194e-02 2.999476e-02 2.339735e-02 2.738567e-02 2.089229e-02 2.392726e-02 1.843367e-02 2.032879e-02 1.592893e-02 1.702661e-02 1.361885e-02 1.428327e-02 1.227944e-02 1.297815e-02 1.228030e-02 1.296227e-02 1.369820e-02 1.412089e-02 1.637797e-02 1.604138e-02 1.980029e-02 1.785083e-02 2.301275e-02 1.894591e-02 2.578218e-02 1.946506e-02 2.803046e-02 1.939004e-02 2.951559e-02 1.891158e-02 3.052459e-02 1.886943e-02 3.154773e-02 1.979893e-02 3.264081e-02 2.178269e-02 3.408457e-02 2.457486e-02 3.785489e-02 1.428087e-02 3.349651e-02 1.381005e-01 2.920398e-02 0 0 0 0 
0 0 0 0 0 0 0 0 0 0 0 0 0 -2.908307e+01 -3.191843e+01 -2.980900e+01 -3.017304e+01 -3.079742e+01 -2.912583e+01 -3.168139e+01 -2.921876e+01 0 0 0 0 0 0 0 0 0 0 0 0 0 0 0 0 0 0 0 0 0 0 0 0 0 0 0 0 0 0 0 0 0 0 0 1.924113e-02 8.854057e-02 6.409758e-02 4.408832e-02 6.114096e-02 2.554236e-02 3.385863e-02 2.399074e-02 1.703645e-02 2.686533e-02 -6.402374e-03 9.445078e-03 1.448240e-02 1.283133e-02 -1.754215e-02 -5.380503e-02 -8.413928e-03 0 0 0 0 0 0 0 0 0 0 0 0 0 0 0 0 0 0 0 0 0 0 0 0 0 0 0 0 0 0 0 0 0 0 0 0 0 0 0 0 0 0 0 0 0 0 0 0 0 0 0 0 0 0 0 
0 0 0 0 0 0 0 0 0 0 0 0 0 -2.819749e+01 -2.904073e+01 -2.834349e+01 -2.853601e+01 -2.866780e+01 -2.818191e+01 -2.905469e+01 -2.811006e+01 0 0 0 0 0 0 0 0 0 0 0 0 0 0 0 0 0 0 0 0 0 0 0 0 0 0 0 0 0 0 0 0 0 0 0 2.163848e-04 -7.004255e-05 -3.438436e-03 6.682619e-04 8.470465e-03 6.583574e-03 1.191626e-03 3.256376e-03 1.422685e-02 1.620400e-02 6.314474e-03 9.568252e-03 2.322166e-02 2.447450e-02 7.409427e-03 -3.918308e-03 -8.458345e-04 0 0 0 0 0 0 0 0 0 0 0 0 0 0 0 0 0 0 0 0 0 0 0 0 0 0 0 0 0 0 0 0 0 0 0 0 0 0 0 0 0 0 0 0 0 0 0 0 0 0 0 0 0 0 0 
0 0 0 0 0 0 0 0 0 0 0 0 0 -3.024699e+01 -3.149490e+01 -3.055447e+01 -3.076968e+01 -3.109073e+01 -3.019918e+01 -3.163322e+01 -3.002482e+01 0 0 0 0 0 0 0 0 0 0 0 0 0 0 0 0 0 0 0 0 0 0 0 0 0 0 0 0 0 0 0 0 0 0 0 0 0 0 0 0 0 0 0 0 0 0 0 0 0 0 0 0 0 0 0 0 0 0 0 0 0 0 0 0 0 0 0 0 0 0 0 0 0 0 0 0 0 0 0 0 0 0 0 0 0 0 0 0 0 0 0 0 0 0 0 0 0 0 0 0 0 0 0 0 0 0 0 
0 0 0 0 0 0 0 0 0 0 0 0 0 -2.819680e+01 -2.903565e+01 -2.834143e+01 -2.853128e+01 -2.866510e+01 -2.817664e+01 -2.905341e+01 -2.810303e+01 0 0 0 0 0 0 0 0 0 0 0 0 0 0 0 0 0 0 0 0 0 0 0 0 0 0 0 0 0 0 0 0 0 0 0 0 0 0 0 0 0 0 0 0 0 0 0 0 0 0 0 0 0 0 0 0 0 0 0 0 0 0 0 0 0 0 0 0 0 0 0 0 0 0 0 0 0 0 0 0 0 0 0 0 0 0 0 0 0 0 0 0 0 0 0 0 0 0 0 0 0 0 0 0 0 0 0 
0 0 0 0 0 0 0 0 0 0 0 0 0 -2.910157e+01 -3.191412e+01 -2.980794e+01 -3.017019e+01 -3.078196e+01 -2.911210e+01 -3.167994e+01 -2.916209e+01 0 0 0 0 0 0 0 0 0 0 0 0 0 0 0 0 0 0 0 0 0 0 0 0 0 0 0 0 0 0 0 0 0 0 0 0 0 0 0 0 0 0 0 0 0 0 0 0 0 0 0 0 0 0 0 0 0 0 0 0 0 0 0 0 0 0 0 0 0 0 0 0 0 0 0 0 0 0 0 0 0 0 0 0 0 0 0 0 0 0 0 0 0 0 0 0 0 0 0 0 0 0 0 0 0 0 0 
0 0 0 0 0 1.513614e-01 1.228663e-01 -2.863943e-02 4.987256e-02 2.726376e-02 4.804099e-02 2.949742e-02 -6.581816e-03 -2.646439e+01 -2.888493e+01 -2.704197e+01 -2.734565e+01 -2.782138e+01 -2.646618e+01 -2.846647e+01 -2.668534e+01 3.059682e-02 4.020157e-02 5.118451e-02 4.282149e-02 5.311607e-02 4.545273e-02 5.438478e-02 4.756494e-02 5.489150e-02 4.943544e-02 5.518180e-02 5.148851e-02 5.591443e-02 5.426836e-02 5.747977e-02 5.758591e-02 5.943990e-02 6.090934e-02 6.155988e-02 6.411775e-02 6.377163e-02 6.689619e-02 6.550882e-02 6.853320e-02 6.611200e-02 6.858596e-02 6.523107e-02 6.684210e-02 6.284379e-02 6.372491e-02 5.968819e-02 6.017836e-02 5.650231e-02 5.670249e-02 5.345884e-02 5.345612e-02 5.100967e-02 5.133800e-02 4.824268e-02 4.857966e-02 4.925517e-02 4.889147e-02 4.675375e-02 4.649337e-02 4.752990e-02 4.665619e-02 4.406205e-02 4.332723e-02 4.430100e-02 4.389518e-02 4.028300e-02 3.880505e-02 3.848835e-02 3.663317e-02 3.579412e-02 3.373451e-02 3.251087e-02 3.058684e-02 2.930941e-02 2.767903e-02 2.655994e-02 2.537879e-02 2.458787e-02 2.402033e-02 2.347395e-02 2.360322e-02 2.313936e-02 2.407030e-02 2.349046e-02 2.513809e-02 2.426072e-02 2.629701e-02 2.500235e-02 2.686837e-02 2.516209e-02 2.625174e-02 2.455496e-02 2.456340e-02 2.368771e-02 2.242518e-02 2.311570e-02 2.026485e-02 2.309912e-02 1.851191e-02 2.405704e-02 1.780897e-02 2.633375e-02 1.846247e-02 2.963202e-02 2.021137e-02 3.332587e-02 2.281755e-02 3.686609e-02 2.595301e-02 3.963235e-02 2.917139e-02 4.153230e-02 3.195949e-02 4.452472e-02 2.055966e-02 3.736304e-02 1.400571e-01 2.946653e-02 0 0 0 0 
0 0 0 0 0 3.402804e+00 2.795824e+00 -5.893301e-01 1.144739e+00 6.170867e-01 1.080252e+00 6.634176e-01 -1.462711e-01 -2.419739e+01 -3.698714e+01 -2.668228e+01 -2.552782e+01 -2.937829e+01 -2.236809e+01 -3.410505e+01 -2.734379e+01 6.849749e-01 9.006315e-01 1.147417e+00 9.601044e-01 1.191364e+00 1.019632e+00 1.220202e+00 1.067285e+00 1.231740e+00 1.109339e+00 1.238273e+00 1.155378e+00 1.254651e+00 1.217679e+00 1.289705e+00 1.292062e+00 1.333661e+00 1.366633e+00 1.381245e+00 1.438661e+00 1.430919e+00 1.501064e+00 1.469972e+00 1.537877e+00 1.483600e+00 1.539155e+00 1.463914e+00 1.500091e+00 1.410387e+00 1.430169e+00 1.339587e+00 1.350588e+00 1.268093e+00 1.272586e+00 1.199792e+00 1.199735e+00 1.144828e+00 1.152200e+00 1.082728e+00 1.090305e+00 1.105476e+00 1.097335e+00 1.049364e+00 1.043547e+00 1.066827e+00 1.047246e+00 9.890325e-01 9.725638e-01 9.944334e-01 9.853499e-01 9.042867e-01 8.711374e-01 8.640394e-01 8.224123e-01 8.035825e-01 7.573505e-01 7.298824e-01 6.866895e-01 6.580127e-01 6.214115e-01 5.962860e-01 5.697606e-01 5.519963e-01 5.392363e-01 5.269569e-01 5.298342e-01 5.194040e-01 5.402796e-01 5.272414e-01 5.642061e-01 5.444812e-01 5.901640e-01 5.610677e-01 6.029296e-01 5.646011e-01 5.890584e-01 5.509659e-01 5.511918e-01 5.315640e-01 5.032870e-01 5.188469e-01 4.549175e-01 5.185989e-01 4.156500e-01 5.401344e-01 3.998037e-01 5.910720e-01 4.141552e-01 6.646623e-01 4.528063e-01 7.468567e-01 5.104880e-01 8.254957e-01 5.800765e-01 8.869656e-01 6.519736e-01 9.297263e-01 7.153076e-01 9.982156e-01 4.556609e-01 8.262972e-01 3.136922e+00 6.610179e-01 0 0 0 0 
0 0 0 0 0 4.927087e+00 4.056737e+00 -8.394945e-01 1.663493e+00 8.945655e-01 1.564207e+00 9.606649e-01 -2.113628e-01 -6.331897e+00 -8.824001e+00 -6.501349e+00 -6.228511e+00 -7.204971e+00 -5.275160e+00 -7.847538e+00 -7.471921e+00 9.910779e-01 1.303269e+00 1.660570e+00 1.389528e+00 1.724335e+00 1.475816e+00 1.766172e+00 1.544856e+00 1.782914e+00 1.605749e+00 1.792377e+00 1.672382e+00 1.816066e+00 1.762542e+00 1.866788e+00 1.870195e+00 1.930407e+00 1.978132e+00 1.999286e+00 2.082400e+00 2.071200e+00 2.172742e+00 2.127746e+00 2.226047e+00 2.147496e+00 2.227921e+00 2.119021e+00 2.171394e+00 2.041554e+00 2.070190e+00 1.939075e+00 1.954999e+00 1.835587e+00 1.842091e+00 1.736721e+00 1.736640e+00 1.657161e+00 1.667833e+00 1.567270e+00 1.578241e+00 1.600204e+00 1.588425e+00 1.518989e+00 1.510575e+00 1.544278e+00 1.515941e+00 1.431678e+00 1.407845e+00 1.439505e+00 1.426363e+00 1.309024e+00 1.261045e+00 1.250773e+00 1.190519e+00 1.163263e+00 1.096340e+00 1.056577e+00 9.940521e-01 9.525401e-01 8.995565e-01 8.631846e-01 8.247844e-01 7.990667e-01 7.805907e-01 7.628118e-01 7.669706e-01 7.518677e-01 7.820811e-01 7.632018e-01 8.167054e-01 7.881447e-01 8.542667e-01 8.121391e-01 8.727306e-01 8.172406e-01 8.526436e-01 7.975010e-01 7.978373e-01 7.694322e-01 7.285155e-01 7.510546e-01 6.585292e-01 7.507272e-01 6.017074e-01 7.819095e-01 5.787519e-01 8.556021e-01 5.994458e-01 9.620154e-01 6.552417e-01 1.080814e+00 7.385314e-01 1.194438e+00 8.390636e-01 1.283261e+00 9.430511e-01 1.345188e+00 1.034921e+00 1.444665e+00 6.581128e-01 1.192968e+00 4.539123e+00 9.567578e-01 0 0 0 0 
0 0 0 0 0 1.675644e+00 1.383779e+00 -2.788039e-01 5.686260e-01 3.047425e-01 5.319959e-01 3.267447e-01 -7.167345e-02 -2.152509e+00 -2.999830e+00 -2.210065e+00 -2.117255e+00 -2.449091e+00 -1.793081e+00 -2.667582e+00 -2.540091e+00 3.366998e-01 4.428389e-01 5.643374e-01 4.722452e-01 5.860872e-01 5.016364e-01 6.003544e-01 5.251369e-01 6.060661e-01 5.458462e-01 6.092851e-01 5.684930e-01 6.173303e-01 5.991314e-01 6.345632e-01 6.357182e-01 6.561857e-01 6.724087e-01 6.796015e-01 7.078565e-01 7.040524e-01 7.385734e-01 7.232830e-01 7.567033e-01 7.300081e-01 7.573518e-01 7.203386e-01 7.381449e-01 6.940102e-01 7.037460e-01 6.591762e-01 6.645893e-01 6.239966e-01 6.262079e-01 5.903885e-01 5.903612e-01 5.633426e-01 5.669710e-01 5.327851e-01 5.365162e-01 5.439836e-01 5.399821e-01 5.163787e-01 5.135216e-01 5.249808e-01 5.153510e-01 4.867073e-01 4.786083e-01 4.893729e-01 4.849082e-01 4.450202e-01 4.287127e-01 4.252219e-01 4.047402e-01 3.954748e-01 3.727236e-01 3.592060e-01 3.379494e-01 3.238368e-01 3.058241e-01 2.934585e-01 2.804025e-01 2.716583e-01 2.653747e-01 2.593288e-01 2.607396e-01 2.556031e-01 2.658717e-01 2.594508e-01 2.776374e-01 2.679242e-01 2.903997e-01 2.760737e-01 2.966693e-01 2.778016e-01 2.898369e-01 2.710901e-01 2.712089e-01 2.615560e-01 2.476537e-01 2.553234e-01 2.238765e-01 2.552274e-01 2.045694e-01 2.658322e-01 1.967571e-01 2.908639e-01 2.037531e-01 3.269851e-01 2.226468e-01 3.672827e-01 2.508609e-01 4.058084e-01 2.849400e-01 4.359276e-01 3.202489e-01 4.569941e-01 3.515732e-01 4.909745e-01 2.230116e-01 4.040338e-01 1.542259e+00 3.252064e-01 0 0 0 0 
0 0 0 0 0 0 0 0 0 0 0 0 0 0 0 0 0 0 0 0 0 0 0 0 0 0 0 0 0 0 0 0 0 0 0 0 0 0 0 0 0 0 0 0 0 0 0 0 0 0 0 0 0 0 0 0 0 0 0 0 0 0 0 0 0 0 0 0 0 0 0 0 0 0 0 0 0 0 0 0 0 0 0 0 0 0 0 0 0 0 0 0 0 0 0 0 0 0 0 0 0 0 0 0 0 0 0 0 0 0 0 0 0 0 0 0 0 0 0 0 0 0 0 0 0 0 0 0 
