# vtk DataFile Version 2.0
Comment goes here
ASCII

DATASET STRUCTURED_POINTS
FIELD FieldData 1
TIME 1 1 double
0.15000000
DIMENSIONS    128   16   1

ORIGIN    0.000   0.000   0.000
SPACING   0.0078125 0.015625   1.000

POINT_DATA   2048
SCALARS fY double
LOOKUP_TABLE default

0 0 0 0 0 0 0 0 0 0 0 0 0 0 0 0 0 0 0 0 0 0 0 0 0 0 0 0 0 0 0 0 0 0 0 0 0 0 0 0 0 0 0 0 0 0 0 0 0 0 0 0 0 0 0 0 0 0 0 0 0 0 0 0 0 0 0 0 0 0 0 0 0 0 0 0 0 0 0 0 0 0 0 0 0 0 0 0 0 0 0 0 0 0 0 0 0 0 0 0 0 0 0 0 0 0 0 0 0 0 0 0 0 0 0 0 0 0 0 0 0 0 0 0 0 0 0 0 
0 0 0 0 0 0 0 0 0 0 0 0 0 0 0 0 0 0 0 0 0 0 0 0 0 0 0 0 0 0 0 0 0 0 0 0 0 0 0 0 0 0 0 0 0 0 0 0 0 0 0 0 0 0 0 0 0 0 0 0 0 0 0 0 0 0 0 0 0 0 0 0 0 0 0 0 0 0 0 0 0 0 0 0 0 0 0 0 0 0 0 0 0 0 0 0 0 0 0 0 0 0 0 0 0 0 0 0 0 0 0 0 0 0 0 0 0 0 0 0 0 0 0 0 0 0 0 0 
0 0 0 0 0 1.163231e+00 2.063822e+00 1.487928e+00 2.288994e+00 1.527949e+00 2.991748e+00 2.456340e+00 3.777888e+00 2.195297e+00 -4.288729e+00 -8.517294e+00 -1.359072e+01 -1.870519e+01 -2.357284e+01 -2.841144e+01 -3.591068e+01 -3.689713e+01 -3.533324e+01 -3.422618e+01 -3.292174e+01 -3.332141e+01 -3.386713e+01 -3.477477e+01 -3.453252e+01 -3.345650e+01 -3.168484e+01 -3.044749e+01 -3.016550e+01 -3.072955e+01 -3.129731e+01 -3.090582e+01 -3.026282e+01 -2.955093e+01 -2.894933e+01 -2.831954e+01 -2.821202e+01 -2.828611e+01 -2.868095e+01 -2.918479e+01 -2.949073e+01 -2.927484e+01 -2.814931e+01 -2.670644e+01 -2.606618e+01 -2.645720e+01 -2.670846e+01 -2.668985e+01 -2.635050e+01 -2.568385e+01 -2.490332e+01 -2.422775e+01 -2.385252e+01 -2.255215e+01 -2.144561e+01 -2.093903e+01 -2.208246e+01 -2.220527e+01 -2.120156e+01 -2.261219e+01 -2.526109e+01 -2.459693e+01 -2.243891e+01 -2.316702e+01 -2.580951e+01 -2.574425e+01 -2.183996e+01 -1.928549e+01 -1.826907e+01 -1.889046e+01 -1.925183e+01 -1.949542e+01 -1.913554e+01 -1.878364e+01 -1.808363e+01 -1.714624e+01 -1.648374e+01 -1.615306e+01 -1.557289e+01 -1.449225e+01 -1.373044e+01 -1.320409e+01 -1.328038e+01 -1.333027e+01 -1.344747e+01 -1.280811e+01 -1.214841e+01 -1.111197e+01 -1.061667e+01 -1.000240e+01 -9.753160e+00 -9.309907e+00 -9.843003e+00 -1.046887e+01 -1.124406e+01 -1.125496e+01 -1.067744e+01 -9.769164e+00 -9.782552e+00 -1.032124e+01 -1.040806e+01 -9.960283e+00 -8.749147e+00 -7.832763e+00 -6.760443e+00 -6.574629e+00 -5.593773e+00 -5.219820e+00 -4.254143e+00 -4.394246e+00 -3.860942e+00 -3.971033e+00 -2.924942e+00 -2.598199e+00 -2.090088e+00 -2.331624e+00 -2.548149e+00 -2.231363e+00 -2.240926e+00 2.027681e-01 0 0 0 0 
0 0 0 0 0 3.420299e+00 6.062760e+00 4.366596e+00 6.728129e+00 4.492019e+00 8.796051e+00 7.219768e+00 1.110466e+01 6.449273e+00 -1.261901e+01 -2.505737e+01 -3.998225e+01 -5.503133e+01 -6.935443e+01 -8.359561e+01 -1.056690e+02 -1.085719e+02 -1.039680e+02 -1.007092e+02 -9.686928e+01 -9.804564e+01 -9.965201e+01 -1.023238e+02 -1.016107e+02 -9.844335e+01 -9.322854e+01 -8.958639e+01 -8.875641e+01 -9.041668e+01 -9.208776e+01 -9.093538e+01 -8.904281e+01 -8.694744e+01 -8.517676e+01 -8.332309e+01 -8.300661e+01 -8.322469e+01 -8.438677e+01 -8.586973e+01 -8.677019e+01 -8.613477e+01 -8.282209e+01 -7.857546e+01 -7.669110e+01 -7.784192e+01 -7.858138e+01 -7.852661e+01 -7.752790e+01 -7.556589e+01 -7.326878e+01 -7.128057e+01 -7.084456e+01 -7.054750e+01 -6.952965e+01 -6.481691e+01 -6.262194e+01 -6.198522e+01 -6.314511e+01 -6.634965e+01 -6.852584e+01 -6.579393e+01 -6.289856e+01 -6.395111e+01 -6.611429e+01 -6.551156e+01 -5.986195e+01 -5.625095e+01 -5.373663e+01 -5.557434e+01 -5.663772e+01 -5.735459e+01 -5.629568e+01 -5.526022e+01 -5.320051e+01 -5.044217e+01 -4.849283e+01 -4.751985e+01 -4.581281e+01 -4.263309e+01 -4.039164e+01 -3.884294e+01 -3.906734e+01 -3.921409e+01 -3.955889e+01 -3.767773e+01 -3.573681e+01 -3.268753e+01 -3.123034e+01 -2.942324e+01 -2.869002e+01 -2.738612e+01 -2.895458e+01 -3.079591e+01 -3.307668e+01 -3.310881e+01 -3.140973e+01 -2.873781e+01 -2.877726e+01 -3.036194e+01 -3.061730e+01 -2.929995e+01 -2.573665e+01 -2.304075e+01 -1.988604e+01 -1.933933e+01 -1.645391e+01 -1.535392e+01 -1.251349e+01 -1.292587e+01 -1.135757e+01 -1.168203e+01 -8.605964e+00 -7.646106e+00 -6.154415e+00 -6.871706e+00 -7.526873e+00 -6.595461e+00 -6.601116e+00 5.963362e-01 0 0 0 0 
0 0 0 0 0 2.362129e+00 4.184358e+00 3.011577e+00 4.645469e+00 3.101952e+00 6.074386e+00 4.984803e+00 7.667349e+00 9.278074e+00 -1.244384e+01 -1.185073e+01 -3.336625e+01 -3.275914e+01 -5.481960e+01 -5.362839e+01 -7.637096e+01 -7.502159e+01 -7.183931e+01 -6.958696e+01 -6.693291e+01 -6.774590e+01 -6.885615e+01 -7.070284e+01 -7.020996e+01 -6.802081e+01 -6.441668e+01 -6.189944e+01 -6.132583e+01 -6.247330e+01 -6.362820e+01 -6.283173e+01 -6.152374e+01 -6.007558e+01 -5.885186e+01 -5.757077e+01 -5.735204e+01 -5.750275e+01 -5.830587e+01 -5.933075e+01 -5.995306e+01 -5.951392e+01 -5.722455e+01 -5.428974e+01 -5.298750e+01 -5.378281e+01 -5.429384e+01 -5.425599e+01 -5.356580e+01 -5.220991e+01 -5.062247e+01 -4.924851e+01 -4.938978e+01 -5.020264e+01 -4.911656e+01 -4.427026e+01 -3.762381e+01 -3.520160e+01 -4.023550e+01 -4.149147e+01 -3.724040e+01 -3.512002e+01 -3.633844e+01 -3.651757e+01 -3.290865e+01 -3.249940e+01 -3.511279e+01 -3.674411e+01 -3.696620e+01 -3.839527e+01 -3.913006e+01 -3.962546e+01 -3.889380e+01 -3.817832e+01 -3.675514e+01 -3.484916e+01 -3.350225e+01 -3.282996e+01 -3.165050e+01 -2.945342e+01 -2.790472e+01 -2.683465e+01 -2.698966e+01 -2.709104e+01 -2.732925e+01 -2.602948e+01 -2.468848e+01 -2.258172e+01 -2.157494e+01 -2.032646e+01 -1.981991e+01 -1.891914e+01 -2.000282e+01 -2.127498e+01 -2.285084e+01 -2.287307e+01 -2.169918e+01 -1.985328e+01 -1.988056e+01 -2.097533e+01 -2.115173e+01 -2.024159e+01 -1.777966e+01 -1.591713e+01 -1.373760e+01 -1.335986e+01 -1.136646e+01 -1.060657e+01 -8.644422e+00 -8.929431e+00 -7.846228e+00 -8.070674e+00 -5.946184e+00 -5.283713e+00 -4.254649e+00 -4.753463e+00 -5.214909e+00 -4.571680e+00 -4.564696e+00 4.119043e-01 0 0 0 0 
0 0 0 0 0 1.050607e-01 1.854204e-01 1.329090e-01 2.063337e-01 1.378824e-01 2.700829e-01 2.213752e-01 3.405749e-01 3.856755e+00 -4.205564e+00 4.573737e+00 -6.945907e+00 4.021053e+00 -8.376565e+00 1.772470e+00 -6.772075e+00 -3.346802e+00 -3.204577e+00 -3.103949e+00 -2.985363e+00 -3.021668e+00 -3.071267e+00 -3.153776e+00 -3.131756e+00 -3.033956e+00 -2.872975e+00 -2.760535e+00 -2.734917e+00 -2.786171e+00 -2.837746e+00 -2.802166e+00 -2.743750e+00 -2.679073e+00 -2.624427e+00 -2.567218e+00 -2.557450e+00 -2.564179e+00 -2.600040e+00 -2.645806e+00 -2.673595e+00 -2.653986e+00 -2.551763e+00 -2.420725e+00 -2.362586e+00 -2.398094e+00 -2.420908e+00 -2.419218e+00 -2.388407e+00 -2.327874e+00 -2.257015e+00 -2.195684e+00 -2.447853e+00 -2.046786e+00 7.236608e-03 1.014931e-01 3.660927e+00 5.295870e+00 2.274628e+00 3.025587e+00 6.962327e+00 6.632342e+00 4.873535e+00 4.914370e+00 7.909780e+00 7.847831e+00 3.099875e+00 1.074791e+00 -1.406701e+00 -1.711391e+00 -1.744175e+00 -1.766286e+00 -1.733655e+00 -1.701738e+00 -1.638261e+00 -1.553230e+00 -1.493158e+00 -1.463172e+00 -1.410573e+00 -1.312575e+00 -1.243515e+00 -1.195791e+00 -1.202695e+00 -1.207211e+00 -1.217828e+00 -1.159868e+00 -1.100079e+00 -1.006156e+00 -9.612756e-01 -9.056291e-01 -8.830557e-01 -8.429202e-01 -8.912391e-01 -9.479502e-01 -1.018220e+00 -1.019219e+00 -9.668882e-01 -8.846310e-01 -8.858533e-01 -9.346370e-01 -9.424942e-01 -9.019238e-01 -7.921602e-01 -7.091455e-01 -6.119954e-01 -5.951511e-01 -5.063227e-01 -4.724703e-01 -3.850754e-01 -3.978050e-01 -3.496017e-01 -3.596776e-01 -2.651621e-01 -2.358056e-01 -1.903224e-01 -2.133814e-01 -2.361846e-01 -2.075820e-01 -2.045055e-01 1.833612e-02 0 0 0 0 
0 0 0 0 0 0 0 0 0 0 0 0 0 2.209211e+00 -6.079766e-01 2.109195e+00 -1.643700e+00 1.706972e+00 -2.082734e+00 7.908468e-01 -1.904822e+00 0 0 0 0 0 0 0 0 0 0 0 0 0 0 0 0 0 0 0 0 0 0 0 0 0 0 0 0 0 0 0 0 0 0 0 -7.097987e-02 -6.413046e-03 8.124826e-01 3.228858e-01 6.753309e-01 5.993481e-01 4.145684e-01 6.740960e-01 8.990325e-01 5.107791e-01 7.011917e-01 6.340755e-01 5.751252e-01 6.818785e-01 2.250719e-01 9.133220e-01 9.814845e-02 0 0 0 0 0 0 0 0 0 0 0 0 0 0 0 0 0 0 0 0 0 0 0 0 0 0 0 0 0 0 0 0 0 0 0 0 0 0 0 0 0 0 0 0 0 0 0 0 0 0 0 0 0 0 0 
0 0 0 0 0 0 0 0 0 0 0 0 0 1.086536e+00 -5.992784e-01 1.336320e+00 -1.200128e+00 1.276967e+00 -1.280770e+00 7.420183e-01 -8.499438e-01 0 0 0 0 0 0 0 0 0 0 0 0 0 0 0 0 0 0 0 0 0 0 0 0 0 0 0 0 0 0 0 0 0 0 0 -2.087112e-02 -1.669250e-01 -2.272711e-01 -1.709812e-01 -6.992533e-02 -1.181658e-01 -1.520100e-01 -1.055064e-01 -3.894875e-02 -4.458367e-02 -5.114587e-02 -1.376592e-02 6.148013e-02 1.019663e-01 3.440384e-02 5.987968e-02 6.206170e-03 0 0 0 0 0 0 0 0 0 0 0 0 0 0 0 0 0 0 0 0 0 0 0 0 0 0 0 0 0 0 0 0 0 0 0 0 0 0 0 0 0 0 0 0 0 0 0 0 0 0 0 0 0 0 0 
0 0 0 0 0 0 0 0 0 0 0 0 0 4.101739e-02 7.281410e-02 6.221224e-02 1.250109e-01 1.142307e-01 2.173605e-01 2.038797e-01 3.468575e-01 0 0 0 0 0 0 0 0 0 0 0 0 0 0 0 0 0 0 0 0 0 0 0 0 0 0 0 0 0 0 0 0 0 0 0 0 0 0 0 0 0 0 0 0 0 0 0 0 0 0 0 0 0 0 0 0 0 0 0 0 0 0 0 0 0 0 0 0 0 0 0 0 0 0 0 0 0 0 0 0 0 0 0 0 0 0 0 0 0 0 0 0 0 0 0 0 0 0 0 0 0 0 0 0 0 0 0 
0 0 0 0 0 0 0 0 0 0 0 0 0 -1.067401e+00 6.011657e-01 -1.351897e+00 1.233834e+00 -1.259971e+00 1.484227e+00 -5.581388e-01 1.424736e+00 0 0 0 0 0 0 0 0 0 0 0 0 0 0 0 0 0 0 0 0 0 0 0 0 0 0 0 0 0 0 0 0 0 0 0 0 0 0 0 0 0 0 0 0 0 0 0 0 0 0 0 0 0 0 0 0 0 0 0 0 0 0 0 0 0 0 0 0 0 0 0 0 0 0 0 0 0 0 0 0 0 0 0 0 0 0 0 0 0 0 0 0 0 0 0 0 0 0 0 0 0 0 0 0 0 0 0 
0 0 0 0 0 0 0 0 0 0 0 0 0 -2.183856e+00 6.254757e-01 -2.112473e+00 1.733105e+00 -1.629030e+00 2.372897e+00 -4.407779e-01 2.731071e+00 0 0 0 0 0 0 0 0 0 0 0 0 0 0 0 0 0 0 0 0 0 0 0 0 0 0 0 0 0 0 0 0 0 0 0 0 0 0 0 0 0 0 0 0 0 0 0 0 0 0 0 0 0 0 0 0 0 0 0 0 0 0 0 0 0 0 0 0 0 0 0 0 0 0 0 0 0 0 0 0 0 0 0 0 0 0 0 0 0 0 0 0 0 0 0 0 0 0 0 0 0 0 0 0 0 0 0 
0 0 0 0 0 -1.049123e-01 -1.898316e-01 -1.749119e-01 -3.059768e-01 -2.469576e-01 -3.375028e-01 -2.551546e-01 -3.658327e-01 -3.903262e+00 3.864797e+00 -4.890539e+00 6.381512e+00 -4.595165e+00 7.718505e+00 -2.079770e+00 6.505923e+00 3.166501e+00 3.131769e+00 3.154592e+00 3.085272e+00 3.082603e+00 3.037262e+00 3.042841e+00 3.045810e+00 3.098150e+00 3.071637e+00 2.976255e+00 2.884739e+00 2.875862e+00 2.927169e+00 2.954979e+00 2.924980e+00 2.816413e+00 2.734255e+00 2.699608e+00 2.719052e+00 2.697502e+00 2.651848e+00 2.578021e+00 2.522631e+00 2.465781e+00 2.461113e+00 2.476578e+00 2.467684e+00 2.420061e+00 2.372725e+00 2.307047e+00 2.229251e+00 2.212637e+00 2.257877e+00 2.285985e+00 2.231314e+00 2.143482e+00 2.080364e+00 2.066463e+00 2.074849e+00 2.099100e+00 2.106687e+00 2.092732e+00 2.067218e+00 2.040176e+00 1.995847e+00 1.946052e+00 1.867341e+00 1.765299e+00 1.686650e+00 1.667543e+00 1.626098e+00 1.555831e+00 1.493239e+00 1.474345e+00 1.444973e+00 1.425682e+00 1.396448e+00 1.363449e+00 1.324462e+00 1.351826e+00 1.430402e+00 1.478443e+00 1.427928e+00 1.315109e+00 1.219463e+00 1.174718e+00 1.212000e+00 1.246490e+00 1.270178e+00 1.232680e+00 1.190644e+00 1.083561e+00 1.015430e+00 9.319233e-01 8.615652e-01 7.456631e-01 7.104479e-01 6.935942e-01 6.946495e-01 6.706571e-01 6.733864e-01 6.817098e-01 6.708939e-01 6.634217e-01 6.253755e-01 5.929631e-01 4.810166e-01 4.403560e-01 4.031170e-01 4.734227e-01 4.454933e-01 4.369625e-01 3.121849e-01 2.970758e-01 3.029382e-01 4.145088e-01 4.215800e-01 3.808572e-01 2.845309e-01 1.749657e-01 1.781897e-01 -2.012056e-02 0 0 0 0 
0 0 0 0 0 -2.358786e+00 -4.283327e+00 -3.955275e+00 -6.884141e+00 -5.551690e+00 -7.588408e+00 -5.743511e+00 -8.234672e+00 -1.009396e+01 1.151057e+01 1.070584e+01 3.174697e+01 3.080178e+01 5.238688e+01 5.111205e+01 7.355009e+01 7.098659e+01 7.020941e+01 7.072046e+01 6.916932e+01 6.910981e+01 6.809498e+01 6.821988e+01 6.828625e+01 6.945761e+01 6.886406e+01 6.672906e+01 6.468012e+01 6.448138e+01 6.563017e+01 6.625276e+01 6.558114e+01 6.315071e+01 6.131118e+01 6.053543e+01 6.097089e+01 6.048839e+01 5.946603e+01 5.781273e+01 5.657223e+01 5.529892e+01 5.519436e+01 5.554075e+01 5.534153e+01 5.427478e+01 5.321451e+01 5.174317e+01 5.000048e+01 4.962830e+01 5.064174e+01 5.127148e+01 5.004675e+01 4.807888e+01 4.666473e+01 4.635329e+01 4.654119e+01 4.708459e+01 4.725459e+01 4.694190e+01 4.637022e+01 4.576427e+01 4.477096e+01 4.365508e+01 4.189107e+01 3.960399e+01 3.784111e+01 3.741281e+01 3.648370e+01 3.490845e+01 3.350513e+01 3.308148e+01 3.242288e+01 3.199031e+01 3.133473e+01 3.059480e+01 2.972042e+01 3.033392e+01 3.209597e+01 3.317303e+01 3.204024e+01 2.951069e+01 2.736571e+01 2.636232e+01 2.719860e+01 2.797214e+01 2.850342e+01 2.766253e+01 2.671972e+01 2.431783e+01 2.278958e+01 2.091606e+01 1.933744e+01 1.673640e+01 1.594608e+01 1.556765e+01 1.559108e+01 1.505240e+01 1.511352e+01 1.530038e+01 1.505787e+01 1.489040e+01 1.403704e+01 1.330989e+01 1.079812e+01 9.885797e+00 9.049971e+00 1.062784e+01 1.000062e+01 9.808290e+00 7.005821e+00 6.665415e+00 6.794723e+00 9.294522e+00 9.446194e+00 8.513476e+00 6.301275e+00 3.842167e+00 3.974785e+00 -4.520070e-01 0 0 0 0 
0 0 0 0 0 -3.415458e+00 -6.206011e+00 -5.732875e+00 -9.969248e+00 -8.038501e+00 -1.098786e+01 -8.318162e+00 -1.192599e+01 -7.081948e+00 1.230492e+01 2.431626e+01 3.847775e+01 5.328281e+01 6.730337e+01 7.974761e+01 9.962747e+01 1.027341e+02 1.016097e+02 1.023492e+02 1.001050e+02 1.000190e+02 9.855072e+01 9.873143e+01 9.882743e+01 1.005222e+02 9.966335e+01 9.657435e+01 9.360974e+01 9.332218e+01 9.498438e+01 9.588520e+01 9.491343e+01 9.139691e+01 8.873527e+01 8.761282e+01 8.824292e+01 8.754478e+01 8.606548e+01 8.367322e+01 8.187824e+01 8.003575e+01 7.988445e+01 8.038569e+01 8.009740e+01 7.855379e+01 7.701955e+01 7.489046e+01 7.236871e+01 7.183015e+01 7.329664e+01 7.420792e+01 7.243568e+01 6.958801e+01 6.754162e+01 6.709093e+01 6.736284e+01 6.814921e+01 6.839522e+01 6.794273e+01 6.711544e+01 6.623857e+01 6.480112e+01 6.318630e+01 6.063350e+01 5.732369e+01 5.477246e+01 5.415262e+01 5.280799e+01 5.052824e+01 4.849727e+01 4.788413e+01 4.693094e+01 4.630489e+01 4.535607e+01 4.428516e+01 4.301964e+01 4.390754e+01 4.645777e+01 4.801654e+01 4.637704e+01 4.271609e+01 3.961160e+01 3.815939e+01 3.936982e+01 4.048939e+01 4.125834e+01 4.004131e+01 3.867674e+01 3.520030e+01 3.298835e+01 3.027655e+01 2.799160e+01 2.422658e+01 2.308258e+01 2.253475e+01 2.256861e+01 2.178880e+01 2.187724e+01 2.214774e+01 2.179676e+01 2.155439e+01 2.031928e+01 1.926680e+01 1.563113e+01 1.431058e+01 1.310069e+01 1.538469e+01 1.447666e+01 1.419805e+01 1.014090e+01 9.647822e+00 9.834423e+00 1.345186e+01 1.366962e+01 1.231473e+01 9.099742e+00 5.540112e+00 5.747387e+00 -6.543994e-01 0 0 0 0 
0 0 0 0 0 -1.161584e+00 -2.112515e+00 -1.952512e+00 -3.391084e+00 -2.733769e+00 -3.736950e+00 -2.829805e+00 -4.057149e+00 -2.410417e+00 4.181973e+00 8.265440e+00 1.307940e+01 1.811099e+01 2.287591e+01 2.710414e+01 3.385836e+01 3.491402e+01 3.453207e+01 3.478330e+01 3.402099e+01 3.399179e+01 3.349300e+01 3.355439e+01 3.358699e+01 3.416270e+01 3.387093e+01 3.282154e+01 3.181436e+01 3.171666e+01 3.228139e+01 3.258742e+01 3.225728e+01 3.106261e+01 3.015834e+01 2.977700e+01 2.999108e+01 2.975390e+01 2.925130e+01 2.843850e+01 2.782864e+01 2.720261e+01 2.715120e+01 2.732151e+01 2.722356e+01 2.669907e+01 2.617777e+01 2.545433e+01 2.459749e+01 2.441449e+01 2.491278e+01 2.522243e+01 2.462025e+01 2.365261e+01 2.295725e+01 2.280411e+01 2.289650e+01 2.316372e+01 2.324732e+01 2.309356e+01 2.281244e+01 2.251447e+01 2.202601e+01 2.147727e+01 2.060977e+01 1.948500e+01 1.861800e+01 1.840735e+01 1.795039e+01 1.717562e+01 1.648538e+01 1.627699e+01 1.595303e+01 1.574026e+01 1.541778e+01 1.505381e+01 1.462368e+01 1.492544e+01 1.579220e+01 1.632195e+01 1.576473e+01 1.452051e+01 1.346536e+01 1.297179e+01 1.338322e+01 1.376374e+01 1.402510e+01 1.361146e+01 1.314766e+01 1.196604e+01 1.121420e+01 1.029242e+01 9.515716e+00 8.235845e+00 7.846949e+00 7.660695e+00 7.672175e+00 7.407056e+00 7.437105e+00 7.529067e+00 7.409783e+00 7.327419e+00 6.907615e+00 6.549865e+00 5.314024e+00 4.865140e+00 4.453837e+00 5.230266e+00 4.921540e+00 4.826718e+00 3.447262e+00 3.279483e+00 3.342638e+00 4.571846e+00 4.645009e+00 4.182110e+00 3.082998e+00 1.872911e+00 1.950792e+00 -2.225130e-01 0 0 0 0 
0 0 0 0 0 0 0 0 0 0 0 0 0 0 0 0 0 0 0 0 0 0 0 0 0 0 0 0 0 0 0 0 0 0 0 0 0 0 0 0 0 0 0 0 0 0 0 0 0 0 0 0 0 0 0 0 0 0 0 0 0 0 0 0 0 0 0 0 0 0 0 0 0 0 0 0 0 0 0 0 0 0 0 0 0 0 0 0 0 0 0 0 0 0 0 0 0 0 0 0 0 0 0 0 0 0 0 0 0 0 0 0 0 0 0 0 0 0 0 0 0 0 0 0 0 0 0 0 
