# vtk DataFile Version 2.0
Comment goes here
ASCII

DATASET STRUCTURED_POINTS
FIELD FieldData 1
TIME 1 1 double
0.26000000
DIMENSIONS    128   16   1

ORIGIN    0.000   0.000   0.000
SPACING   0.0078125 0.015625   1.000

POINT_DATA   2048
SCALARS fY double
LOOKUP_TABLE default

0 0 0 0 0 0 0 0 0 0 0 0 0 0 0 0 0 0 0 0 0 0 0 0 0 0 0 0 0 0 0 0 0 0 0 0 0 0 0 0 0 0 0 0 0 0 0 0 0 0 0 0 0 0 0 0 0 0 0 0 0 0 0 0 0 0 0 0 0 0 0 0 0 0 0 0 0 0 0 0 0 0 0 0 0 0 0 0 0 0 0 0 0 0 0 0 0 0 0 0 0 0 0 0 0 0 0 0 0 0 0 0 0 0 0 0 0 0 0 0 0 0 0 0 0 0 0 0 
0 0 0 0 0 0 0 0 0 0 0 0 0 0 0 0 0 0 0 0 0 0 0 0 0 0 0 0 0 0 0 0 0 0 0 0 0 0 0 0 0 0 0 0 0 0 0 0 0 0 0 0 0 0 0 0 0 0 0 0 0 0 0 0 0 0 0 0 0 0 0 0 0 0 0 0 0 0 0 0 0 0 0 0 0 0 0 0 0 0 0 0 0 0 0 0 0 0 0 0 0 0 0 0 0 0 0 0 0 0 0 0 0 0 0 0 0 0 0 0 0 0 0 0 0 0 0 0 
0 0 0 0 0 1.350204e+00 1.778896e+00 1.481856e+00 2.563525e+00 1.929924e+00 3.076700e+00 2.288154e+00 3.493515e+00 2.048311e+00 -3.862220e+00 -8.030860e+00 -1.200847e+01 -1.662566e+01 -2.098496e+01 -2.447091e+01 -3.129732e+01 -3.203075e+01 -3.143798e+01 -3.142271e+01 -3.070142e+01 -3.071991e+01 -3.034136e+01 -3.056155e+01 -3.018137e+01 -3.004089e+01 -2.943232e+01 -2.920705e+01 -2.877877e+01 -2.860104e+01 -2.820543e+01 -2.800579e+01 -2.776426e+01 -2.762645e+01 -2.734325e+01 -2.697469e+01 -2.653752e+01 -2.609732e+01 -2.575075e+01 -2.541894e+01 -2.528754e+01 -2.517122e+01 -2.511830e+01 -2.467662e+01 -2.422987e+01 -2.364743e+01 -2.349416e+01 -2.328453e+01 -2.331851e+01 -2.293201e+01 -2.268707e+01 -2.219996e+01 -2.205475e+01 -2.106467e+01 -2.021312e+01 -2.116887e+01 -2.496407e+01 -2.480109e+01 -2.082511e+01 -2.088428e+01 -2.416156e+01 -2.360995e+01 -1.970818e+01 -2.040223e+01 -2.453371e+01 -2.493383e+01 -1.866562e+01 -1.581578e+01 -1.646645e+01 -1.628992e+01 -1.558090e+01 -1.530270e+01 -1.476192e+01 -1.461106e+01 -1.434315e+01 -1.429469e+01 -1.408701e+01 -1.380536e+01 -1.357858e+01 -1.323344e+01 -1.303904e+01 -1.240211e+01 -1.203612e+01 -1.142970e+01 -1.149402e+01 -1.119106e+01 -1.124696e+01 -1.060621e+01 -1.032269e+01 -9.755879e+00 -9.710976e+00 -9.375107e+00 -9.328887e+00 -9.122999e+00 -8.944153e+00 -8.605116e+00 -8.027590e+00 -7.596581e+00 -7.011785e+00 -6.970460e+00 -6.488725e+00 -6.446340e+00 -5.689980e+00 -5.672570e+00 -5.049046e+00 -5.290905e+00 -4.767127e+00 -5.059940e+00 -4.607624e+00 -4.694268e+00 -3.935042e+00 -3.594209e+00 -2.961942e+00 -2.767076e+00 -2.653516e+00 -2.325024e+00 -2.284590e+00 -1.477792e+00 -2.054583e+00 -1.997026e-01 0 0 0 0 
0 0 0 0 0 3.969816e+00 5.220015e+00 4.341324e+00 7.532132e+00 5.674398e+00 9.047303e+00 6.727119e+00 1.027080e+01 6.019578e+00 -1.136300e+01 -2.362543e+01 -3.532669e+01 -4.891233e+01 -6.173873e+01 -7.199791e+01 -9.208936e+01 -9.424746e+01 -9.250260e+01 -9.245760e+01 -9.033429e+01 -9.038851e+01 -8.927415e+01 -8.992213e+01 -8.880303e+01 -8.838954e+01 -8.659830e+01 -8.593528e+01 -8.467476e+01 -8.415167e+01 -8.298736e+01 -8.239977e+01 -8.168895e+01 -8.128336e+01 -8.044988e+01 -7.936513e+01 -7.807854e+01 -7.678293e+01 -7.576298e+01 -7.478641e+01 -7.439967e+01 -7.405731e+01 -7.390156e+01 -7.260164e+01 -7.128688e+01 -6.957276e+01 -6.912167e+01 -6.850473e+01 -6.860475e+01 -6.746735e+01 -6.674655e+01 -6.531313e+01 -6.514872e+01 -6.517304e+01 -6.547360e+01 -6.538981e+01 -6.837371e+01 -6.735528e+01 -6.296422e+01 -6.092843e+01 -6.079844e+01 -5.874218e+01 -5.489819e+01 -5.517227e+01 -5.685272e+01 -5.700704e+01 -5.200289e+01 -4.985733e+01 -4.875041e+01 -4.792219e+01 -4.583606e+01 -4.501755e+01 -4.342648e+01 -4.298268e+01 -4.219448e+01 -4.205197e+01 -4.144095e+01 -4.061224e+01 -3.994498e+01 -3.892945e+01 -3.835744e+01 -3.648338e+01 -3.540656e+01 -3.362234e+01 -3.381154e+01 -3.292020e+01 -3.308470e+01 -3.119970e+01 -3.036563e+01 -2.869824e+01 -2.856625e+01 -2.757828e+01 -2.744239e+01 -2.683676e+01 -2.631063e+01 -2.531325e+01 -2.361414e+01 -2.234616e+01 -2.062566e+01 -2.050396e+01 -1.908669e+01 -1.896193e+01 -1.673691e+01 -1.668573e+01 -1.485170e+01 -1.556338e+01 -1.402298e+01 -1.488474e+01 -1.355470e+01 -1.381007e+01 -1.157739e+01 -1.057516e+01 -8.715876e+00 -8.142971e+00 -7.809295e+00 -6.843597e+00 -6.725297e+00 -4.350211e+00 -6.044038e+00 -5.874326e-01 0 0 0 0 
0 0 0 0 0 2.741515e+00 3.599935e+00 2.990527e+00 5.199172e+00 3.918737e+00 6.248615e+00 4.645478e+00 7.092579e+00 8.104551e+00 -1.082072e+01 -1.031173e+01 -2.905922e+01 -2.862474e+01 -4.751473e+01 -4.706793e+01 -6.620096e+01 -6.512125e+01 -6.391529e+01 -6.388415e+01 -6.241655e+01 -6.245394e+01 -6.168370e+01 -6.213148e+01 -6.135801e+01 -6.107222e+01 -5.983428e+01 -5.937606e+01 -5.850492e+01 -5.814343e+01 -5.733881e+01 -5.693273e+01 -5.644151e+01 -5.616121e+01 -5.558523e+01 -5.483557e+01 -5.394644e+01 -5.305107e+01 -5.234621e+01 -5.167132e+01 -5.140405e+01 -5.116745e+01 -5.105981e+01 -5.016146e+01 -4.925289e+01 -4.806833e+01 -4.775661e+01 -4.733027e+01 -4.739939e+01 -4.661342e+01 -4.611533e+01 -4.512483e+01 -4.470060e+01 -4.403214e+01 -4.504476e+01 -4.453856e+01 -4.001141e+01 -3.853933e+01 -4.151101e+01 -3.835745e+01 -3.107429e+01 -2.986814e+01 -3.342643e+01 -3.265737e+01 -2.687172e+01 -2.657959e+01 -3.336304e+01 -3.692199e+01 -3.393031e+01 -3.310779e+01 -3.166640e+01 -3.110087e+01 -3.000158e+01 -2.969497e+01 -2.915041e+01 -2.905196e+01 -2.862981e+01 -2.805721e+01 -2.759618e+01 -2.689448e+01 -2.649925e+01 -2.520437e+01 -2.446036e+01 -2.322760e+01 -2.335829e+01 -2.274247e+01 -2.285614e+01 -2.155383e+01 -2.097761e+01 -1.982570e+01 -1.973456e+01 -1.905206e+01 -1.895822e+01 -1.853984e+01 -1.817635e+01 -1.748731e+01 -1.631339e+01 -1.543737e+01 -1.424867e+01 -1.416453e+01 -1.318535e+01 -1.309912e+01 -1.156196e+01 -1.152662e+01 -1.025968e+01 -1.075144e+01 -9.687461e+00 -1.028299e+01 -9.364399e+00 -9.541057e+00 -7.998981e+00 -7.306791e+00 -6.022634e+00 -5.627007e+00 -5.396675e+00 -4.729832e+00 -4.648417e+00 -3.006767e+00 -4.175521e+00 -4.058086e-01 0 0 0 0 
0 0 0 0 0 1.219040e-01 1.588157e-01 1.310592e-01 2.305651e-01 1.742641e-01 2.780121e-01 2.065138e-01 3.152931e-01 2.928766e+00 -3.777491e+00 5.183962e+00 -6.047172e+00 3.854914e+00 -6.873395e+00 6.592058e-01 -4.743918e+00 -2.904538e+00 -2.850665e+00 -2.849266e+00 -2.783687e+00 -2.785334e+00 -2.750914e+00 -2.770898e+00 -2.736344e+00 -2.723578e+00 -2.668294e+00 -2.647832e+00 -2.608936e+00 -2.592797e+00 -2.556875e+00 -2.538746e+00 -2.516817e+00 -2.504304e+00 -2.478590e+00 -2.445118e+00 -2.405427e+00 -2.365450e+00 -2.333984e+00 -2.303853e+00 -2.291920e+00 -2.281355e+00 -2.276547e+00 -2.236442e+00 -2.195886e+00 -2.143010e+00 -2.129095e+00 -2.110066e+00 -2.113151e+00 -2.078075e+00 -2.055849e+00 -2.011654e+00 -1.464887e+00 1.099888e+00 1.403096e+00 4.414229e-01 4.671046e+00 4.899754e+00 1.477922e+00 2.413247e+00 6.075795e+00 5.694171e+00 1.978351e+00 2.332847e+00 5.523760e+00 5.473362e+00 -3.739059e-01 -3.053807e+00 -1.703655e+00 -1.475520e+00 -1.411242e+00 -1.386027e+00 -1.337015e+00 -1.323348e+00 -1.299074e+00 -1.294689e+00 -1.275870e+00 -1.250333e+00 -1.229773e+00 -1.198476e+00 -1.180847e+00 -1.123099e+00 -1.089922e+00 -1.034955e+00 -1.040776e+00 -1.013322e+00 -1.018394e+00 -9.603487e-01 -9.346701e-01 -8.833410e-01 -8.792919e-01 -8.488880e-01 -8.447152e-01 -8.260772e-01 -8.098775e-01 -7.791704e-01 -7.268366e-01 -6.877915e-01 -6.347986e-01 -6.310332e-01 -5.873824e-01 -5.835311e-01 -5.150324e-01 -5.134612e-01 -4.570305e-01 -4.789686e-01 -4.316074e-01 -4.581911e-01 -4.173259e-01 -4.252580e-01 -3.566348e-01 -3.258405e-01 -2.687000e-01 -2.511121e-01 -2.408959e-01 -2.112590e-01 -2.077103e-01 -1.343472e-01 -1.860668e-01 -1.807855e-02 0 0 0 0 
0 0 0 0 0 0 0 0 0 0 0 0 0 1.913933e+00 -5.715635e-01 1.923660e+00 -1.411585e+00 1.514591e+00 -1.767982e+00 5.503464e-01 -1.973109e+00 0 0 0 0 0 0 0 0 0 0 0 0 0 0 0 0 0 0 0 0 0 0 0 0 0 0 0 0 0 0 0 0 0 0 0 1.319843e-01 9.311032e-01 1.004273e+00 6.693071e-01 1.368548e+00 9.313165e-01 7.924598e-01 6.952665e-01 6.537202e-01 6.102224e-01 2.658928e-01 3.340492e-01 4.284782e-01 3.729654e-01 -2.303145e-01 -1.966809e-01 -6.749216e-02 0 0 0 0 0 0 0 0 0 0 0 0 0 0 0 0 0 0 0 0 0 0 0 0 0 0 0 0 0 0 0 0 0 0 0 0 0 0 0 0 0 0 0 0 0 0 0 0 0 0 0 0 0 0 0 
0 0 0 0 0 0 0 0 0 0 0 0 0 8.959835e-01 -5.930850e-01 1.242525e+00 -1.095909e+00 1.129774e+00 -1.164839e+00 5.401090e-01 -9.625678e-01 0 0 0 0 0 0 0 0 0 0 0 0 0 0 0 0 0 0 0 0 0 0 0 0 0 0 0 0 0 0 0 0 0 0 0 -9.767017e-03 -9.255619e-02 -1.831053e-01 -8.973436e-02 9.572433e-02 4.642395e-02 -5.736252e-02 -3.128255e-02 1.405173e-01 1.801360e-01 5.111944e-02 1.138666e-01 3.520056e-01 3.932267e-01 1.178234e-01 -2.330850e-02 -1.018356e-02 0 0 0 0 0 0 0 0 0 0 0 0 0 0 0 0 0 0 0 0 0 0 0 0 0 0 0 0 0 0 0 0 0 0 0 0 0 0 0 0 0 0 0 0 0 0 0 0 0 0 0 0 0 0 0 
0 0 0 0 0 0 0 0 0 0 0 0 0 -5.024707e-02 -3.042890e-02 -4.107710e-02 -2.920442e-02 -3.927144e-02 -2.763300e-02 -4.247409e-02 -2.164529e-02 0 0 0 0 0 0 0 0 0 0 0 0 0 0 0 0 0 0 0 0 0 0 0 0 0 0 0 0 0 0 0 0 0 0 0 0 0 0 0 0 0 0 0 0 0 0 0 0 0 0 0 0 0 0 0 0 0 0 0 0 0 0 0 0 0 0 0 0 0 0 0 0 0 0 0 0 0 0 0 0 0 0 0 0 0 0 0 0 0 0 0 0 0 0 0 0 0 0 0 0 0 0 0 0 0 0 0 
0 0 0 0 0 0 0 0 0 0 0 0 0 -9.970523e-01 5.310221e-01 -1.320268e+00 1.032474e+00 -1.195006e+00 1.107170e+00 -5.965778e-01 9.103286e-01 0 0 0 0 0 0 0 0 0 0 0 0 0 0 0 0 0 0 0 0 0 0 0 0 0 0 0 0 0 0 0 0 0 0 0 0 0 0 0 0 0 0 0 0 0 0 0 0 0 0 0 0 0 0 0 0 0 0 0 0 0 0 0 0 0 0 0 0 0 0 0 0 0 0 0 0 0 0 0 0 0 0 0 0 0 0 0 0 0 0 0 0 0 0 0 0 0 0 0 0 0 0 0 0 0 0 0 
0 0 0 0 0 0 0 0 0 0 0 0 0 -1.994551e+00 5.335993e-01 -1.976996e+00 1.351788e+00 -1.573111e+00 1.689014e+00 -6.343634e-01 1.856002e+00 0 0 0 0 0 0 0 0 0 0 0 0 0 0 0 0 0 0 0 0 0 0 0 0 0 0 0 0 0 0 0 0 0 0 0 0 0 0 0 0 0 0 0 0 0 0 0 0 0 0 0 0 0 0 0 0 0 0 0 0 0 0 0 0 0 0 0 0 0 0 0 0 0 0 0 0 0 0 0 0 0 0 0 0 0 0 0 0 0 0 0 0 0 0 0 0 0 0 0 0 0 0 0 0 0 0 0 
0 0 0 0 0 -1.214104e-01 -1.513504e-01 -1.111389e-01 -2.044379e-01 -1.549049e-01 -2.716534e-01 -2.102888e-01 -3.213004e-01 -2.806143e+00 3.683806e+00 -5.213082e+00 5.968155e+00 -3.893651e+00 6.813883e+00 -8.299263e-01 4.697297e+00 2.877382e+00 2.818326e+00 2.840251e+00 2.806425e+00 2.822426e+00 2.756494e+00 2.726251e+00 2.654214e+00 2.643149e+00 2.614549e+00 2.621913e+00 2.601196e+00 2.591047e+00 2.555730e+00 2.515890e+00 2.475398e+00 2.449298e+00 2.442563e+00 2.423773e+00 2.398402e+00 2.347823e+00 2.325299e+00 2.313873e+00 2.327340e+00 2.299447e+00 2.250223e+00 2.171746e+00 2.124143e+00 2.092883e+00 2.091776e+00 2.086626e+00 2.083571e+00 2.059387e+00 2.023136e+00 1.978607e+00 1.939972e+00 1.910147e+00 1.880192e+00 1.848121e+00 1.805700e+00 1.780177e+00 1.761902e+00 1.753039e+00 1.719915e+00 1.688461e+00 1.649791e+00 1.635026e+00 1.612282e+00 1.598173e+00 1.560639e+00 1.530784e+00 1.486859e+00 1.455762e+00 1.412665e+00 1.392353e+00 1.385327e+00 1.394427e+00 1.382421e+00 1.343121e+00 1.287165e+00 1.226489e+00 1.188162e+00 1.155904e+00 1.157104e+00 1.153005e+00 1.173516e+00 1.144335e+00 1.103359e+00 1.013359e+00 9.749388e-01 9.431793e-01 9.628449e-01 9.440411e-01 9.272812e-01 8.673982e-01 8.265852e-01 7.872722e-01 7.718385e-01 7.658809e-01 7.559922e-01 7.488530e-01 6.974121e-01 6.667426e-01 6.095970e-01 6.219433e-01 5.877812e-01 5.998804e-01 5.289130e-01 5.208480e-01 4.482823e-01 4.497923e-01 3.834995e-01 3.834197e-01 3.383638e-01 3.460691e-01 3.075469e-01 2.726351e-01 2.308256e-01 1.896543e-01 1.976832e-01 1.366535e-01 1.886930e-01 1.853678e-02 0 0 0 0 
0 0 0 0 0 -2.730410e+00 -3.432467e+00 -2.543388e+00 -4.612368e+00 -3.483947e+00 -6.105819e+00 -4.730162e+00 -7.227410e+00 -7.891703e+00 1.094662e+01 1.054462e+01 2.926423e+01 2.890928e+01 4.762268e+01 4.704614e+01 6.572631e+01 6.451307e+01 6.319112e+01 6.368237e+01 6.292562e+01 6.328440e+01 6.180875e+01 6.113181e+01 5.951892e+01 5.927123e+01 5.863072e+01 5.879558e+01 5.833153e+01 5.810419e+01 5.731313e+01 5.642090e+01 5.551392e+01 5.492938e+01 5.477858e+01 5.435778e+01 5.378951e+01 5.265665e+01 5.215216e+01 5.189624e+01 5.219797e+01 5.157315e+01 5.047039e+01 4.871222e+01 4.764570e+01 4.694526e+01 4.692043e+01 4.680501e+01 4.673654e+01 4.619460e+01 4.538232e+01 4.438443e+01 4.351869e+01 4.285027e+01 4.217899e+01 4.146021e+01 4.050950e+01 3.993745e+01 3.952785e+01 3.932921e+01 3.858678e+01 3.788173e+01 3.701489e+01 3.668390e+01 3.617402e+01 3.585769e+01 3.501618e+01 3.434683e+01 3.336193e+01 3.266470e+01 3.169827e+01 3.124279e+01 3.108520e+01 3.128920e+01 3.101995e+01 3.013878e+01 2.888389e+01 2.752332e+01 2.666378e+01 2.594039e+01 2.596739e+01 2.587552e+01 2.633561e+01 2.568119e+01 2.476205e+01 2.274319e+01 2.188133e+01 2.116867e+01 2.160959e+01 2.118752e+01 2.081133e+01 1.946749e+01 1.855178e+01 1.766950e+01 1.732320e+01 1.718955e+01 1.696781e+01 1.680780e+01 1.565396e+01 1.496595e+01 1.368393e+01 1.396123e+01 1.319468e+01 1.346605e+01 1.187298e+01 1.169143e+01 1.006173e+01 1.009458e+01 8.605083e+00 8.602040e+00 7.589136e+00 7.760810e+00 6.894804e+00 6.110490e+00 5.170569e+00 4.244923e+00 4.423695e+00 3.058727e+00 4.234476e+00 4.160907e-01 0 0 0 0 
0 0 0 0 0 -3.953733e+00 -4.977621e+00 -3.694066e+00 -6.682614e+00 -5.044952e+00 -8.840582e+00 -6.849689e+00 -1.046597e+01 -6.122546e+00 1.141192e+01 2.382869e+01 3.574828e+01 4.928700e+01 6.196977e+01 7.190548e+01 9.159323e+01 9.336743e+01 9.145476e+01 9.216566e+01 9.107086e+01 9.159012e+01 8.945511e+01 8.847569e+01 8.614197e+01 8.578361e+01 8.485681e+01 8.509533e+01 8.442385e+01 8.409487e+01 8.295021e+01 8.165917e+01 8.034676e+01 7.950094e+01 7.928274e+01 7.867386e+01 7.785155e+01 7.621232e+01 7.548230e+01 7.511199e+01 7.554861e+01 7.464448e+01 7.304873e+01 7.050453e+01 6.896118e+01 6.794758e+01 6.791164e+01 6.774462e+01 6.764552e+01 6.686126e+01 6.568581e+01 6.424172e+01 6.298888e+01 6.202158e+01 6.105014e+01 6.000995e+01 5.863412e+01 5.780627e+01 5.721350e+01 5.692604e+01 5.585160e+01 5.483125e+01 5.357675e+01 5.309773e+01 5.235981e+01 5.190201e+01 5.068413e+01 4.971541e+01 4.828999e+01 4.728089e+01 4.588217e+01 4.522297e+01 4.499488e+01 4.529011e+01 4.490042e+01 4.362511e+01 4.180888e+01 3.983973e+01 3.859569e+01 3.754873e+01 3.758783e+01 3.745487e+01 3.812080e+01 3.717363e+01 3.584331e+01 3.292122e+01 3.167376e+01 3.064222e+01 3.128034e+01 3.066938e+01 3.012482e+01 2.817962e+01 2.685419e+01 2.557707e+01 2.507582e+01 2.488238e+01 2.456145e+01 2.432988e+01 2.265985e+01 2.166402e+01 1.980840e+01 2.020986e+01 1.910029e+01 1.949306e+01 1.718698e+01 1.692404e+01 1.456476e+01 1.461203e+01 1.245554e+01 1.245082e+01 1.098418e+01 1.123237e+01 9.978440e+00 8.842933e+00 7.481979e+00 6.141675e+00 6.400089e+00 4.425475e+00 6.129379e+00 6.023155e-01 0 0 0 0 
0 0 0 0 0 -1.344734e+00 -1.696505e+00 -1.261817e+00 -2.274684e+00 -1.715911e+00 -3.006416e+00 -2.329816e+00 -3.559864e+00 -2.083313e+00 3.878859e+00 8.099963e+00 1.215178e+01 1.675303e+01 2.106350e+01 2.443953e+01 3.112877e+01 3.173174e+01 3.108197e+01 3.132354e+01 3.095166e+01 3.112814e+01 3.040286e+01 3.007013e+01 2.927727e+01 2.915553e+01 2.884064e+01 2.892167e+01 2.869352e+01 2.858173e+01 2.819280e+01 2.775416e+01 2.730823e+01 2.702086e+01 2.694672e+01 2.673985e+01 2.646045e+01 2.590349e+01 2.565544e+01 2.552962e+01 2.567799e+01 2.537078e+01 2.482856e+01 2.396406e+01 2.343963e+01 2.309520e+01 2.308299e+01 2.302623e+01 2.299255e+01 2.272605e+01 2.232662e+01 2.183590e+01 2.141017e+01 2.108146e+01 2.075134e+01 2.039786e+01 1.993032e+01 1.964899e+01 1.944756e+01 1.934987e+01 1.898474e+01 1.863798e+01 1.821165e+01 1.804886e+01 1.779808e+01 1.764249e+01 1.722859e+01 1.689936e+01 1.641491e+01 1.607196e+01 1.559657e+01 1.537253e+01 1.529500e+01 1.539533e+01 1.526288e+01 1.482946e+01 1.421216e+01 1.354290e+01 1.312008e+01 1.276424e+01 1.277754e+01 1.273236e+01 1.295871e+01 1.263678e+01 1.218461e+01 1.119139e+01 1.076737e+01 1.041672e+01 1.063359e+01 1.042589e+01 1.024077e+01 9.579527e+00 9.128987e+00 8.694845e+00 8.524455e+00 8.458703e+00 8.349628e+00 8.270936e+00 7.703299e+00 7.364812e+00 6.734068e+00 6.870568e+00 6.493395e+00 6.626895e+00 5.842915e+00 5.753464e+00 4.951305e+00 4.967246e+00 4.233954e+00 4.232194e+00 3.733412e+00 3.817625e+00 3.391183e+00 3.005078e+00 2.542235e+00 2.086406e+00 2.174077e+00 1.503402e+00 2.083596e+00 2.047616e-01 0 0 0 0 
0 0 0 0 0 0 0 0 0 0 0 0 0 0 0 0 0 0 0 0 0 0 0 0 0 0 0 0 0 0 0 0 0 0 0 0 0 0 0 0 0 0 0 0 0 0 0 0 0 0 0 0 0 0 0 0 0 0 0 0 0 0 0 0 0 0 0 0 0 0 0 0 0 0 0 0 0 0 0 0 0 0 0 0 0 0 0 0 0 0 0 0 0 0 0 0 0 0 0 0 0 0 0 0 0 0 0 0 0 0 0 0 0 0 0 0 0 0 0 0 0 0 0 0 0 0 0 0 
