# vtk DataFile Version 2.0
Comment goes here
ASCII

DATASET STRUCTURED_POINTS
FIELD FieldData 1
TIME 1 1 double
0.62000000
DIMENSIONS    128   16   1

ORIGIN    0.000   0.000   0.000
SPACING   0.0078125 0.015625   1.000

POINT_DATA   2048
SCALARS fY double
LOOKUP_TABLE default

0 0 0 0 0 0 0 0 0 0 0 0 0 0 0 0 0 0 0 0 0 0 0 0 0 0 0 0 0 0 0 0 0 0 0 0 0 0 0 0 0 0 0 0 0 0 0 0 0 0 0 0 0 0 0 0 0 0 0 0 0 0 0 0 0 0 0 0 0 0 0 0 0 0 0 0 0 0 0 0 0 0 0 0 0 0 0 0 0 0 0 0 0 0 0 0 0 0 0 0 0 0 0 0 0 0 0 0 0 0 0 0 0 0 0 0 0 0 0 0 0 0 0 0 0 0 0 0 
0 0 0 0 0 0 0 0 0 0 0 0 0 0 0 0 0 0 0 0 0 0 0 0 0 0 0 0 0 0 0 0 0 0 0 0 0 0 0 0 0 0 0 0 0 0 0 0 0 0 0 0 0 0 0 0 0 0 0 0 0 0 0 0 0 0 0 0 0 0 0 0 0 0 0 0 0 0 0 0 0 0 0 0 0 0 0 0 0 0 0 0 0 0 0 0 0 0 0 0 0 0 0 0 0 0 0 0 0 0 0 0 0 0 0 0 0 0 0 0 0 0 0 0 0 0 0 0 
0 0 0 0 0 -1.033752e+00 -8.565894e-01 -7.494689e-01 -1.265337e+00 -9.123454e-01 -1.555264e+00 -1.115459e+00 -1.790745e+00 -1.099680e+00 1.905633e+00 4.500092e+00 6.030880e+00 8.345798e+00 1.061322e+01 1.174368e+01 1.583055e+01 1.602883e+01 1.570570e+01 1.580071e+01 1.542657e+01 1.556957e+01 1.520990e+01 1.538194e+01 1.500868e+01 1.511305e+01 1.470337e+01 1.473274e+01 1.436160e+01 1.437087e+01 1.410269e+01 1.411415e+01 1.394390e+01 1.391002e+01 1.376170e+01 1.363432e+01 1.349315e+01 1.331523e+01 1.320705e+01 1.300000e+01 1.291114e+01 1.268406e+01 1.262532e+01 1.240722e+01 1.239981e+01 1.221381e+01 1.226644e+01 1.209752e+01 1.216511e+01 1.197311e+01 1.203769e+01 1.186206e+01 1.206967e+01 1.128353e+01 1.030175e+01 1.080808e+01 1.437883e+01 1.408131e+01 1.001708e+01 1.059142e+01 1.451948e+01 1.410151e+01 9.671406e+00 1.010614e+01 1.394512e+01 1.415408e+01 7.035877e+00 4.942803e+00 7.364107e+00 7.661004e+00 7.393813e+00 7.363589e+00 7.146125e+00 7.046417e+00 6.925716e+00 6.774541e+00 6.725638e+00 6.496034e+00 6.493532e+00 6.223134e+00 6.274058e+00 5.971219e+00 6.014979e+00 5.671334e+00 5.693169e+00 5.357596e+00 5.356466e+00 5.061780e+00 5.036549e+00 4.828367e+00 4.769899e+00 4.636966e+00 4.484149e+00 4.400830e+00 4.138960e+00 4.125440e+00 3.785668e+00 3.872056e+00 3.485947e+00 3.644716e+00 3.186938e+00 3.356277e+00 2.863041e+00 3.054879e+00 2.594246e+00 2.758238e+00 2.338000e+00 2.426502e+00 2.114559e+00 2.113982e+00 1.933064e+00 1.775517e+00 1.723551e+00 1.393420e+00 1.497618e+00 1.004482e+00 1.284184e+00 6.127753e-01 1.273389e+00 4.906832e-01 0 0 0 0 
0 0 0 0 0 -3.041448e+00 -2.528283e+00 -2.217705e+00 -3.728245e+00 -2.684957e+00 -4.574985e+00 -3.281194e+00 -5.267595e+00 -3.235074e+00 5.604472e+00 1.323483e+01 1.773677e+01 2.454406e+01 3.121197e+01 3.453578e+01 4.655185e+01 4.713479e+01 4.618468e+01 4.646408e+01 4.536425e+01 4.578490e+01 4.472763e+01 4.523368e+01 4.413638e+01 4.444333e+01 4.323885e+01 4.332524e+01 4.223399e+01 4.226122e+01 4.147264e+01 4.150632e+01 4.100569e+01 4.090604e+01 4.046992e+01 4.009537e+01 3.968027e+01 3.915717e+01 3.883908e+01 3.823031e+01 3.796905e+01 3.730139e+01 3.712869e+01 3.648744e+01 3.646567e+01 3.591877e+01 3.607353e+01 3.557683e+01 3.577558e+01 3.521099e+01 3.540086e+01 3.488439e+01 3.559879e+01 3.652334e+01 3.683763e+01 3.541676e+01 3.706806e+01 3.635436e+01 3.332774e+01 3.294966e+01 3.392330e+01 3.287005e+01 2.908620e+01 2.876005e+01 2.878125e+01 2.859593e+01 2.303681e+01 2.120552e+01 2.217359e+01 2.253084e+01 2.174506e+01 2.165614e+01 2.101658e+01 2.072335e+01 2.036839e+01 1.992384e+01 1.978005e+01 1.910489e+01 1.909757e+01 1.830243e+01 1.845222e+01 1.756164e+01 1.769033e+01 1.667970e+01 1.674387e+01 1.575692e+01 1.575353e+01 1.488680e+01 1.481253e+01 1.420021e+01 1.402823e+01 1.363726e+01 1.318786e+01 1.294286e+01 1.217280e+01 1.213311e+01 1.113395e+01 1.138809e+01 1.025259e+01 1.071954e+01 9.373143e+00 9.871057e+00 8.420216e+00 8.984159e+00 7.629060e+00 8.111019e+00 6.874652e+00 7.134611e+00 6.216830e+00 6.214956e+00 5.682760e+00 5.219513e+00 5.066902e+00 4.096399e+00 4.403284e+00 2.952733e+00 3.770094e+00 1.791107e+00 3.739720e+00 1.442892e+00 0 0 0 0 
0 0 0 0 0 -2.101388e+00 -1.750745e+00 -1.538383e+00 -2.578544e+00 -1.855424e+00 -3.160535e+00 -2.266720e+00 -3.638971e+00 -3.613634e+00 5.418789e+00 5.278384e+00 1.453444e+01 1.469176e+01 2.360321e+01 2.416846e+01 3.274294e+01 3.255444e+01 3.189828e+01 3.209126e+01 3.133182e+01 3.162243e+01 3.089239e+01 3.124196e+01 3.048424e+01 3.069628e+01 2.986449e+01 2.992417e+01 2.917054e+01 2.918934e+01 2.864471e+01 2.866795e+01 2.832219e+01 2.825336e+01 2.795216e+01 2.769349e+01 2.740681e+01 2.704556e+01 2.682588e+01 2.640547e+01 2.622505e+01 2.576397e+01 2.564471e+01 2.520186e+01 2.518683e+01 2.480914e+01 2.491602e+01 2.457299e+01 2.471024e+01 2.432031e+01 2.445142e+01 2.409471e+01 2.370063e+01 2.259150e+01 2.279674e+01 2.190658e+01 1.714783e+01 1.620777e+01 2.069889e+01 1.932400e+01 1.338859e+01 1.327415e+01 1.731425e+01 1.660163e+01 1.072452e+01 9.637347e+00 1.679886e+01 2.001261e+01 1.574349e+01 1.556262e+01 1.501986e+01 1.495843e+01 1.451667e+01 1.431414e+01 1.406896e+01 1.376193e+01 1.366263e+01 1.319632e+01 1.319129e+01 1.264211e+01 1.274558e+01 1.213047e+01 1.221935e+01 1.152129e+01 1.156559e+01 1.088387e+01 1.088149e+01 1.028279e+01 1.023146e+01 9.808489e+00 9.689683e+00 9.419623e+00 9.109228e+00 8.940016e+00 8.408156e+00 8.380780e+00 7.690679e+00 7.866258e+00 7.081963e+00 7.404499e+00 6.474473e+00 6.818340e+00 5.816090e+00 6.205500e+00 5.269312e+00 5.602048e+00 4.747839e+00 4.927241e+00 4.293131e+00 4.291750e+00 3.924091e+00 3.604160e+00 3.498856e+00 2.828701e+00 3.040888e+00 2.038835e+00 2.600869e+00 1.231806e+00 2.580555e+00 9.965461e-01 0 0 0 0 
0 0 0 0 0 -9.369273e-02 -7.905173e-02 -7.014714e-02 -1.156361e-01 -8.281287e-02 -1.408146e-01 -1.009848e-01 -1.621205e-01 -9.762473e-01 2.000573e+00 -3.779590e+00 3.135393e+00 -1.792668e+00 3.306895e+00 1.200156e+00 1.795012e+00 1.448483e+00 1.419299e+00 1.427887e+00 1.394143e+00 1.407092e+00 1.374658e+00 1.390226e+00 1.356551e+00 1.365992e+00 1.329011e+00 1.331668e+00 1.298152e+00 1.298986e+00 1.274760e+00 1.275788e+00 1.260406e+00 1.257341e+00 1.243942e+00 1.232438e+00 1.219687e+00 1.203622e+00 1.193853e+00 1.175159e+00 1.167137e+00 1.146633e+00 1.141331e+00 1.121637e+00 1.120972e+00 1.104174e+00 1.108929e+00 1.093671e+00 1.099775e+00 1.082427e+00 1.088255e+00 1.072382e+00 -1.541794e-01 -4.217262e+00 -5.391764e+00 -3.859438e+00 -7.070984e+00 -7.282852e+00 -3.630273e+00 -3.986421e+00 -6.770062e+00 -6.075698e+00 -2.314701e+00 -2.409820e+00 -4.006877e+00 -4.467079e+00 1.168755e+00 4.291477e+00 9.979488e-01 6.927785e-01 6.686192e-01 6.658806e-01 6.462157e-01 6.372007e-01 6.262886e-01 6.126273e-01 6.082113e-01 5.874649e-01 5.872462e-01 5.628107e-01 5.674201e-01 5.400457e-01 5.440016e-01 5.129289e-01 5.148958e-01 4.845440e-01 4.844302e-01 4.577704e-01 4.554778e-01 4.366416e-01 4.313494e-01 4.193254e-01 4.055121e-01 3.979839e-01 3.743188e-01 3.731095e-01 3.424014e-01 3.502266e-01 3.153187e-01 3.296776e-01 2.882674e-01 3.035612e-01 2.589155e-01 2.762200e-01 2.344974e-01 2.492675e-01 2.111860e-01 2.191323e-01 1.908599e-01 1.907765e-01 1.743951e-01 1.601648e-01 1.555045e-01 1.257219e-01 1.352217e-01 9.058425e-02 1.149588e-01 5.347417e-02 1.142237e-01 4.433757e-02 0 0 0 0 
0 0 0 0 0 0 0 0 0 0 0 0 0 -1.191645e+00 3.206089e-01 -1.027579e+00 6.684659e-01 -6.795810e-01 7.648232e-01 -9.554510e-02 8.747062e-01 0 0 0 0 0 0 0 0 0 0 0 0 0 0 0 0 0 0 0 0 0 0 0 0 0 0 0 0 0 0 0 0 0 0 0 -3.192152e-01 -1.470607e+00 -1.406788e+00 -1.013736e+00 -1.605760e+00 -1.220756e+00 -8.378574e-01 -8.274649e-01 -8.671646e-01 -7.015604e-01 -1.169966e-01 -3.445995e-01 -1.609604e-01 9.720875e-02 4.224185e-01 6.682154e-01 7.902428e-02 0 0 0 0 0 0 0 0 0 0 0 0 0 0 0 0 0 0 0 0 0 0 0 0 0 0 0 0 0 0 0 0 0 0 0 0 0 0 0 0 0 0 0 0 0 0 0 0 0 0 0 0 0 0 0 
0 0 0 0 0 0 0 0 0 0 0 0 0 -5.869037e-01 3.300650e-01 -7.295888e-01 5.519950e-01 -5.414162e-01 5.414309e-01 -1.321863e-01 4.205627e-01 0 0 0 0 0 0 0 0 0 0 0 0 0 0 0 0 0 0 0 0 0 0 0 0 0 0 0 0 0 0 0 0 0 0 0 6.472738e-03 9.833824e-02 2.458435e-01 1.436059e-01 -7.617380e-02 -3.175633e-03 1.806544e-01 1.247135e-01 -1.123356e-01 -1.202449e-01 9.715599e-02 1.294125e-02 -2.656925e-01 -2.402127e-01 5.159110e-02 1.266303e-01 1.508020e-02 0 0 0 0 0 0 0 0 0 0 0 0 0 0 0 0 0 0 0 0 0 0 0 0 0 0 0 0 0 0 0 0 0 0 0 0 0 0 0 0 0 0 0 0 0 0 0 0 0 0 0 0 0 0 0 
0 0 0 0 0 0 0 0 0 0 0 0 0 8.191499e-03 4.597577e-03 9.877144e-03 4.746315e-03 1.069444e-02 8.198124e-03 8.395510e-03 1.450055e-02 0 0 0 0 0 0 0 0 0 0 0 0 0 0 0 0 0 0 0 0 0 0 0 0 0 0 0 0 0 0 0 0 0 0 0 0 0 0 0 0 0 0 0 0 0 0 0 0 0 0 0 0 0 0 0 0 0 0 0 0 0 0 0 0 0 0 0 0 0 0 0 0 0 0 0 0 0 0 0 0 0 0 0 0 0 0 0 0 0 0 0 0 0 0 0 0 0 0 0 0 0 0 0 0 0 0 0 
0 0 0 0 0 0 0 0 0 0 0 0 0 5.988674e-01 -3.290883e-01 7.568428e-01 -5.573839e-01 5.804927e-01 -5.401387e-01 1.626817e-01 -3.896058e-01 0 0 0 0 0 0 0 0 0 0 0 0 0 0 0 0 0 0 0 0 0 0 0 0 0 0 0 0 0 0 0 0 0 0 0 0 0 0 0 0 0 0 0 0 0 0 0 0 0 0 0 0 0 0 0 0 0 0 0 0 0 0 0 0 0 0 0 0 0 0 0 0 0 0 0 0 0 0 0 0 0 0 0 0 0 0 0 0 0 0 0 0 0 0 0 0 0 0 0 0 0 0 0 0 0 0 0 
0 0 0 0 0 0 0 0 0 0 0 0 0 1.206280e+00 -3.175757e-01 1.051431e+00 -6.721853e-01 7.134332e-01 -7.604920e-01 1.249824e-01 -8.349828e-01 0 0 0 0 0 0 0 0 0 0 0 0 0 0 0 0 0 0 0 0 0 0 0 0 0 0 0 0 0 0 0 0 0 0 0 0 0 0 0 0 0 0 0 0 0 0 0 0 0 0 0 0 0 0 0 0 0 0 0 0 0 0 0 0 0 0 0 0 0 0 0 0 0 0 0 0 0 0 0 0 0 0 0 0 0 0 0 0 0 0 0 0 0 0 0 0 0 0 0 0 0 0 0 0 0 0 0 
0 0 0 0 0 9.379300e-02 7.823624e-02 6.851242e-02 1.134622e-01 8.171713e-02 1.408760e-01 1.016635e-01 1.622057e-01 9.535894e-01 -1.992884e+00 3.819718e+00 -3.191272e+00 1.908781e+00 -3.397064e+00 -1.080590e+00 -1.746798e+00 -1.447351e+00 -1.421048e+00 -1.426387e+00 -1.395010e+00 -1.402434e+00 -1.369966e+00 -1.379394e+00 -1.348404e+00 -1.358020e+00 -1.328362e+00 -1.333875e+00 -1.305529e+00 -1.306513e+00 -1.281982e+00 -1.278089e+00 -1.257321e+00 -1.248612e+00 -1.233268e+00 -1.221400e+00 -1.210793e+00 -1.195214e+00 -1.188437e+00 -1.170949e+00 -1.167164e+00 -1.146791e+00 -1.142066e+00 -1.118269e+00 -1.111826e+00 -1.086727e+00 -1.078929e+00 -1.055566e+00 -1.048391e+00 -1.029196e+00 -1.020808e+00 -1.002998e+00 -9.900675e-01 -9.728119e-01 -9.549323e-01 -9.380001e-01 -9.157163e-01 -9.015677e-01 -8.797723e-01 -8.702605e-01 -8.472385e-01 -8.385879e-01 -8.139393e-01 -8.064816e-01 -7.818138e-01 -7.746599e-01 -7.503306e-01 -7.427078e-01 -7.196312e-01 -7.106200e-01 -6.904508e-01 -6.800413e-01 -6.658035e-01 -6.543604e-01 -6.453368e-01 -6.293171e-01 -6.228810e-01 -6.005750e-01 -5.952562e-01 -5.668904e-01 -5.644949e-01 -5.369208e-01 -5.418115e-01 -5.167760e-01 -5.214040e-01 -4.932350e-01 -4.924305e-01 -4.652959e-01 -4.615410e-01 -4.408474e-01 -4.338763e-01 -4.216411e-01 -4.087517e-01 -4.033437e-01 -3.802973e-01 -3.802885e-01 -3.468615e-01 -3.523831e-01 -3.104851e-01 -3.231837e-01 -2.804881e-01 -3.036034e-01 -2.642250e-01 -2.899222e-01 -2.498879e-01 -2.673707e-01 -2.256478e-01 -2.279445e-01 -1.892635e-01 -1.798388e-01 -1.598264e-01 -1.470901e-01 -1.509576e-01 -1.268948e-01 -1.439948e-01 -9.876415e-02 -1.241067e-01 -5.662826e-02 -1.162184e-01 -4.514171e-02 0 0 0 0 
0 0 0 0 0 2.103632e+00 1.732307e+00 1.501469e+00 2.529616e+00 1.830781e+00 3.161903e+00 2.281969e+00 3.640903e+00 3.575087e+00 -5.430186e+00 -5.301881e+00 -1.456987e+01 -1.469621e+01 -2.365504e+01 -2.415070e+01 -3.272280e+01 -3.252825e+01 -3.193689e+01 -3.205691e+01 -3.135084e+01 -3.151734e+01 -3.078668e+01 -3.099828e+01 -3.030101e+01 -3.051700e+01 -2.984991e+01 -2.997378e+01 -2.933637e+01 -2.935853e+01 -2.880701e+01 -2.871953e+01 -2.825266e+01 -2.805688e+01 -2.771192e+01 -2.744508e+01 -2.720659e+01 -2.685625e+01 -2.670385e+01 -2.631059e+01 -2.622543e+01 -2.576733e+01 -2.566106e+01 -2.512600e+01 -2.498113e+01 -2.441688e+01 -2.424158e+01 -2.371641e+01 -2.355513e+01 -2.312369e+01 -2.293517e+01 -2.253486e+01 -2.224420e+01 -2.185634e+01 -2.145442e+01 -2.107383e+01 -2.057290e+01 -2.025487e+01 -1.976493e+01 -1.955111e+01 -1.903363e+01 -1.883919e+01 -1.828520e+01 -1.811759e+01 -1.756322e+01 -1.740248e+01 -1.685577e+01 -1.668452e+01 -1.616601e+01 -1.596356e+01 -1.551040e+01 -1.527651e+01 -1.495661e+01 -1.469945e+01 -1.449667e+01 -1.413663e+01 -1.399196e+01 -1.349065e+01 -1.337107e+01 -1.273364e+01 -1.267979e+01 -1.206025e+01 -1.217019e+01 -1.160781e+01 -1.171194e+01 -1.107927e+01 -1.106140e+01 -1.045205e+01 -1.036788e+01 -9.903193e+00 -9.746667e+00 -9.471862e+00 -9.182212e+00 -9.060604e+00 -8.542612e+00 -8.542171e+00 -7.790945e+00 -7.914753e+00 -6.973411e+00 -7.258647e+00 -6.299784e+00 -6.819399e+00 -5.935533e+00 -6.513598e+00 -5.615437e+00 -6.009254e+00 -5.073380e+00 -5.125964e+00 -4.258232e+00 -4.047008e+00 -3.597823e+00 -3.311400e+00 -3.397431e+00 -2.855623e+00 -3.238313e+00 -2.222845e+00 -2.807139e+00 -1.303835e+00 -2.625924e+00 -1.014637e+00 0 0 0 0 
0 0 0 0 0 3.044695e+00 2.501559e+00 2.164214e+00 3.657386e+00 2.649273e+00 4.576962e+00 3.303271e+00 5.270397e+00 3.212301e+00 -5.623494e+00 -1.330987e+01 -1.768204e+01 -2.469319e+01 -3.113028e+01 -3.463566e+01 -4.660962e+01 -4.709667e+01 -4.624040e+01 -4.641418e+01 -4.539167e+01 -4.563266e+01 -4.457451e+01 -4.488080e+01 -4.387105e+01 -4.418373e+01 -4.321773e+01 -4.339709e+01 -4.247410e+01 -4.250621e+01 -4.170762e+01 -4.158096e+01 -4.090497e+01 -4.062148e+01 -4.012201e+01 -3.973562e+01 -3.939030e+01 -3.888300e+01 -3.866231e+01 -3.809286e+01 -3.796954e+01 -3.730621e+01 -3.715232e+01 -3.637757e+01 -3.616779e+01 -3.535079e+01 -3.509697e+01 -3.433656e+01 -3.410306e+01 -3.347836e+01 -3.320541e+01 -3.262580e+01 -3.220495e+01 -3.164338e+01 -3.106143e+01 -3.051037e+01 -2.978506e+01 -2.932457e+01 -2.861518e+01 -2.830559e+01 -2.755633e+01 -2.727479e+01 -2.647267e+01 -2.623000e+01 -2.542735e+01 -2.519462e+01 -2.440309e+01 -2.415515e+01 -2.340445e+01 -2.311134e+01 -2.245526e+01 -2.211663e+01 -2.165348e+01 -2.128116e+01 -2.098756e+01 -2.046627e+01 -2.025679e+01 -1.953096e+01 -1.935782e+01 -1.843493e+01 -1.835695e+01 -1.745998e+01 -1.761915e+01 -1.680497e+01 -1.695577e+01 -1.603986e+01 -1.601404e+01 -1.513190e+01 -1.501008e+01 -1.433738e+01 -1.411079e+01 -1.371295e+01 -1.329358e+01 -1.311749e+01 -1.236750e+01 -1.236680e+01 -1.127912e+01 -1.145831e+01 -1.009544e+01 -1.050839e+01 -9.120253e+00 -9.872617e+00 -8.593183e+00 -9.430282e+00 -8.130263e+00 -8.700689e+00 -7.346126e+00 -7.422507e+00 -6.166549e+00 -5.860874e+00 -5.210660e+00 -4.795909e+00 -4.920245e+00 -4.135522e+00 -4.689196e+00 -3.219199e+00 -4.068919e+00 -1.895686e+00 -3.805546e+00 -1.469090e+00 0 0 0 0 
0 0 0 0 0 1.034855e+00 8.474879e-01 7.312570e-01 1.241233e+00 9.002088e-01 1.555935e+00 1.122966e+00 1.791699e+00 1.091940e+00 -1.912103e+00 -4.525616e+00 -6.012291e+00 -8.396543e+00 -1.058546e+01 -1.177766e+01 -1.585013e+01 -1.601578e+01 -1.572457e+01 -1.578366e+01 -1.543584e+01 -1.551775e+01 -1.515779e+01 -1.526191e+01 -1.491844e+01 -1.502476e+01 -1.469619e+01 -1.475718e+01 -1.444326e+01 -1.445418e+01 -1.418259e+01 -1.413952e+01 -1.390962e+01 -1.381322e+01 -1.364335e+01 -1.351194e+01 -1.339450e+01 -1.322196e+01 -1.314690e+01 -1.295322e+01 -1.291127e+01 -1.268567e+01 -1.263333e+01 -1.236984e+01 -1.229850e+01 -1.202064e+01 -1.193432e+01 -1.167572e+01 -1.159631e+01 -1.138387e+01 -1.129105e+01 -1.109394e+01 -1.095082e+01 -1.075985e+01 -1.056194e+01 -1.037454e+01 -1.012787e+01 -9.971272e+00 -9.730023e+00 -9.624737e+00 -9.369932e+00 -9.274189e+00 -9.001415e+00 -8.918891e+00 -8.645946e+00 -8.566807e+00 -8.297647e+00 -8.213338e+00 -7.958069e+00 -7.858403e+00 -7.635312e+00 -7.520162e+00 -7.362673e+00 -7.236063e+00 -7.136226e+00 -6.958954e+00 -6.887715e+00 -6.640888e+00 -6.582005e+00 -6.268172e+00 -6.241652e+00 -5.936648e+00 -5.990781e+00 -5.713942e+00 -5.765237e+00 -5.453823e+00 -5.445068e+00 -5.145143e+00 -5.103747e+00 -4.875033e+00 -4.797996e+00 -4.662728e+00 -4.520120e+00 -4.460231e+00 -4.205181e+00 -4.204913e+00 -3.835041e+00 -3.895940e+00 -3.432517e+00 -3.572924e+00 -3.100957e+00 -3.356822e+00 -2.921875e+00 -3.206606e+00 -2.764714e+00 -2.958805e+00 -2.498394e+00 -2.524487e+00 -2.097580e+00 -1.993705e+00 -1.772663e+00 -1.631600e+00 -1.673772e+00 -1.406793e+00 -1.594877e+00 -1.095118e+00 -1.385886e+00 -6.484787e-01 -1.295841e+00 -4.995947e-01 0 0 0 0 
0 0 0 0 0 0 0 0 0 0 0 0 0 0 0 0 0 0 0 0 0 0 0 0 0 0 0 0 0 0 0 0 0 0 0 0 0 0 0 0 0 0 0 0 0 0 0 0 0 0 0 0 0 0 0 0 0 0 0 0 0 0 0 0 0 0 0 0 0 0 0 0 0 0 0 0 0 0 0 0 0 0 0 0 0 0 0 0 0 0 0 0 0 0 0 0 0 0 0 0 0 0 0 0 0 0 0 0 0 0 0 0 0 0 0 0 0 0 0 0 0 0 0 0 0 0 0 0 
