# vtk DataFile Version 2.0
Comment goes here
ASCII

DATASET STRUCTURED_POINTS
FIELD FieldData 1
TIME 1 1 double
0.53000000
DIMENSIONS    128   16   1

ORIGIN    0.000   0.000   0.000
SPACING   0.0078125 0.015625   1.000

POINT_DATA   2048
SCALARS P double
LOOKUP_TABLE default

1.767987e-01 1.782711e-01 1.773174e-01 1.810910e-01 1.753981e-01 1.830961e-01 1.694866e-01 1.834455e-01 1.710790e-01 1.811283e-01 1.721259e-01 1.772249e-01 1.705803e-01 1.698130e-01 1.633205e-01 1.590285e-01 1.541230e-01 1.456725e-01 1.446446e-01 1.335251e-01 1.361839e-01 1.267012e-01 1.314446e-01 1.235050e-01 1.298366e-01 1.219019e-01 1.294720e-01 1.211180e-01 1.293870e-01 1.207449e-01 1.291251e-01 1.206487e-01 1.286117e-01 1.208772e-01 1.279168e-01 1.213842e-01 1.269649e-01 1.218999e-01 1.256084e-01 1.222332e-01 1.239834e-01 1.225039e-01 1.224351e-01 1.228028e-01 1.210977e-01 1.229822e-01 1.199747e-01 1.229530e-01 1.191874e-01 1.227626e-01 1.188416e-01 1.224548e-01 1.190282e-01 1.223500e-01 1.203308e-01 1.236934e-01 1.244907e-01 1.294964e-01 1.328773e-01 1.347760e-01 1.418368e-01 1.433188e-01 1.483276e-01 1.493269e-01 1.583594e-01 1.586603e-01 1.646174e-01 1.641360e-01 1.732576e-01 1.709967e-01 1.754910e-01 1.682804e-01 1.766333e-01 1.704352e-01 1.763504e-01 1.709518e-01 1.752080e-01 1.710520e-01 1.739226e-01 1.711462e-01 1.727650e-01 1.711517e-01 1.717598e-01 1.708551e-01 1.709458e-01 1.701603e-01 1.704161e-01 1.690626e-01 1.702254e-01 1.676346e-01 1.704277e-01 1.660807e-01 1.710729e-01 1.646378e-01 1.720937e-01 1.634884e-01 1.733216e-01 1.627808e-01 1.745021e-01 1.625375e-01 1.752373e-01 1.626434e-01 1.751664e-01 1.630723e-01 1.742308e-01 1.640048e-01 1.727054e-01 1.657172e-01 1.710357e-01 1.683132e-01 1.695052e-01 1.713777e-01 1.680105e-01 1.740528e-01 1.664315e-01 1.756794e-01 1.651786e-01 1.761587e-01 1.650504e-01 1.756301e-01 1.666396e-01 1.742123e-01 1.701076e-01 1.717460e-01 1.725641e-01 1.727625e-01 1.749624e-01 1.752740e-01 
1.627754e-01 1.648804e-01 1.628858e-01 1.671489e-01 1.600597e-01 1.688057e-01 1.513982e-01 1.672423e-01 1.535418e-01 1.625747e-01 1.552778e-01 1.564447e-01 1.554860e-01 1.475745e-01 1.530672e-01 1.387747e-01 1.499242e-01 1.317987e-01 1.461185e-01 1.262783e-01 1.412240e-01 1.222770e-01 1.359258e-01 1.200929e-01 1.331803e-01 1.188387e-01 1.316895e-01 1.181634e-01 1.307839e-01 1.179095e-01 1.298958e-01 1.177047e-01 1.286055e-01 1.175601e-01 1.272362e-01 1.179176e-01 1.259239e-01 1.182553e-01 1.238645e-01 1.178814e-01 1.211624e-01 1.173460e-01 1.186452e-01 1.170694e-01 1.167212e-01 1.172948e-01 1.158123e-01 1.179826e-01 1.155350e-01 1.182858e-01 1.152410e-01 1.180256e-01 1.153924e-01 1.183153e-01 1.174703e-01 1.214272e-01 1.242740e-01 1.320157e-01 1.374172e-01 1.373363e-01 1.440044e-01 1.432141e-01 1.493360e-01 1.478940e-01 1.538901e-01 1.525652e-01 1.585315e-01 1.562082e-01 1.620229e-01 1.578272e-01 1.666437e-01 1.586106e-01 1.683407e-01 1.609415e-01 1.677167e-01 1.612301e-01 1.662430e-01 1.611975e-01 1.645860e-01 1.610381e-01 1.628058e-01 1.606559e-01 1.611463e-01 1.600648e-01 1.598303e-01 1.592672e-01 1.591692e-01 1.585381e-01 1.593428e-01 1.576265e-01 1.596945e-01 1.560753e-01 1.600756e-01 1.544144e-01 1.607972e-01 1.529493e-01 1.615720e-01 1.518186e-01 1.624451e-01 1.515128e-01 1.632354e-01 1.516595e-01 1.629558e-01 1.516840e-01 1.614289e-01 1.521628e-01 1.595197e-01 1.537814e-01 1.576886e-01 1.564410e-01 1.560825e-01 1.597920e-01 1.546873e-01 1.628562e-01 1.530873e-01 1.647507e-01 1.518104e-01 1.656154e-01 1.518101e-01 1.652155e-01 1.533301e-01 1.630946e-01 1.568452e-01 1.582376e-01 1.591199e-01 1.599130e-01 1.612417e-01 1.623245e-01 
1.798504e-01 1.790336e-01 1.825567e-01 1.830786e-01 1.836935e-01 1.867525e-01 1.547294e-01 1.889877e-01 1.719403e-01 1.837527e-01 1.761542e-01 1.825375e-01 1.800278e-01 1.756172e-01 1.674112e-01 1.638004e-01 1.545779e-01 1.429653e-01 1.422667e-01 1.227699e-01 1.275972e-01 1.169937e-01 1.236622e-01 1.195211e-01 1.274973e-01 1.206356e-01 1.298186e-01 1.213201e-01 1.314107e-01 1.220919e-01 1.321399e-01 1.223510e-01 1.314671e-01 1.222263e-01 1.304965e-01 1.230795e-01 1.298535e-01 1.238437e-01 1.275639e-01 1.228657e-01 1.237501e-01 1.215046e-01 1.201845e-01 1.207015e-01 1.176430e-01 1.211560e-01 1.171073e-01 1.227259e-01 1.171761e-01 1.226811e-01 1.153636e-01 1.194221e-01 1.112511e-01 1.129755e-01 1.045391e-01 1.019599e-01 1.033048e-01 1.298610e-01 1.285910e-01 1.203177e-01 1.516625e-01 1.550034e-01 1.336945e-01 1.369534e-01 1.753340e-01 1.782279e-01 1.570718e-01 1.623121e-01 2.029559e-01 2.151237e-01 1.835065e-01 1.501228e-01 1.853439e-01 1.789777e-01 1.827045e-01 1.744824e-01 1.787740e-01 1.727076e-01 1.759847e-01 1.719103e-01 1.733180e-01 1.711725e-01 1.709895e-01 1.704401e-01 1.693075e-01 1.696691e-01 1.688808e-01 1.695673e-01 1.701127e-01 1.693709e-01 1.711838e-01 1.676034e-01 1.717008e-01 1.654196e-01 1.726532e-01 1.633619e-01 1.734862e-01 1.615562e-01 1.747002e-01 1.612871e-01 1.763656e-01 1.616600e-01 1.762777e-01 1.611164e-01 1.740335e-01 1.609840e-01 1.716095e-01 1.627841e-01 1.696335e-01 1.661603e-01 1.680856e-01 1.707716e-01 1.669519e-01 1.750992e-01 1.651029e-01 1.776806e-01 1.633777e-01 1.792312e-01 1.633182e-01 1.791899e-01 1.646613e-01 1.778669e-01 1.734061e-01 1.656546e-01 1.734730e-01 1.704361e-01 1.766141e-01 1.748000e-01 
1.688835e-01 1.664091e-01 1.749566e-01 1.698311e-01 1.831984e-01 1.714900e-01 1.208357e-01 1.872134e-01 1.686088e-01 1.816057e-01 1.770152e-01 1.818128e-01 1.826314e-01 1.558926e-01 1.347596e-01 1.085358e-01 8.287693e-02 2.943855e-02 3.061109e-02 -4.549785e-02 -2.934786e-02 -6.931867e-02 -5.388202e-02 -6.234852e-02 -4.888758e-02 -5.697710e-02 -4.458809e-02 -5.225474e-02 -4.085827e-02 -4.801598e-02 -3.777954e-02 -4.439550e-02 -3.544048e-02 -4.116735e-02 -3.329272e-02 -3.763881e-02 -3.093923e-02 -3.399379e-02 -2.890330e-02 -3.065443e-02 -2.701726e-02 -2.706541e-02 -2.457586e-02 -2.293035e-02 -2.129122e-02 -1.815065e-02 -1.691196e-02 -1.305293e-02 -1.215074e-02 -8.942549e-03 -8.260012e-03 -6.742740e-03 -5.932697e-03 -6.855028e-03 -5.901656e-03 -1.058415e-02 2.176603e-02 1.224713e-01 1.376957e-01 9.499830e-02 1.753836e-01 1.737354e-01 9.993241e-02 1.098775e-01 1.903385e-01 1.853313e-01 9.019361e-02 9.968737e-02 1.667599e-01 1.847156e-01 4.136002e-02 -5.235911e-02 4.781403e-02 5.558117e-02 6.021595e-02 5.742032e-02 6.288145e-02 5.983903e-02 6.510550e-02 6.215686e-02 6.668320e-02 6.427604e-02 6.812376e-02 6.648716e-02 6.998580e-02 6.909117e-02 7.285024e-02 7.255130e-02 7.702050e-02 7.664218e-02 8.181506e-02 8.074860e-02 8.693325e-02 8.508129e-02 9.250843e-02 8.960944e-02 9.811289e-02 9.419002e-02 1.036985e-01 9.911915e-02 1.090781e-01 1.039987e-01 1.133220e-01 1.082519e-01 1.162403e-01 1.123857e-01 1.185914e-01 1.170783e-01 1.207847e-01 1.224036e-01 1.231234e-01 1.284776e-01 1.259466e-01 1.349351e-01 1.291489e-01 1.413141e-01 1.331061e-01 1.477118e-01 1.381807e-01 1.538102e-01 1.438136e-01 1.635079e-01 1.654596e-01 1.518298e-01 1.602115e-01 1.576333e-01 1.641089e-01 1.622472e-01 
1.848869e-01 1.803058e-01 1.934932e-01 1.853077e-01 2.045203e-01 1.885801e-01 1.697711e-01 2.112269e-01 2.119094e-01 2.163395e-01 2.259292e-01 2.212799e-01 2.363402e-01 2.021193e-01 1.029356e-01 9.811602e-02 -5.357872e-02 -1.374700e-01 -2.146952e-01 -3.607775e-01 -3.801644e-01 -4.161556e-01 -3.979928e-01 -4.044023e-01 -3.913964e-01 -3.922959e-01 -3.830674e-01 -3.802928e-01 -3.742842e-01 -3.690410e-01 -3.651326e-01 -3.578829e-01 -3.549863e-01 -3.466588e-01 -3.446492e-01 -3.363386e-01 -3.344067e-01 -3.255743e-01 -3.220196e-01 -3.124960e-01 -3.073241e-01 -2.982636e-01 -2.918152e-01 -2.837999e-01 -2.761308e-01 -2.699343e-01 -2.612239e-01 -2.567441e-01 -2.457949e-01 -2.416759e-01 -2.275077e-01 -2.229267e-01 -2.058457e-01 -1.995936e-01 -1.796150e-01 -1.683821e-01 -1.218220e-01 -2.129796e-02 2.823142e-03 -3.709258e-02 1.226067e-02 -1.440978e-03 -5.334618e-02 -5.223704e-02 -2.228665e-02 -3.758590e-02 -1.204938e-01 -1.209112e-01 -1.070662e-01 -1.099657e-01 -2.159133e-01 -2.769854e-01 -1.924718e-01 -1.725353e-01 -1.603209e-01 -1.512283e-01 -1.411825e-01 -1.361533e-01 -1.260967e-01 -1.242293e-01 -1.130409e-01 -1.135118e-01 -1.011518e-01 -1.031090e-01 -8.978368e-02 -9.227988e-02 -7.878506e-02 -8.122618e-02 -6.815574e-02 -6.900456e-02 -5.609067e-02 -5.422363e-02 -4.242277e-02 -3.824443e-02 -2.849176e-02 -2.193158e-02 -1.423391e-02 -5.734827e-03 -6.281291e-04 8.808902e-03 1.179006e-02 2.239046e-02 2.482683e-02 3.646458e-02 3.877904e-02 4.983022e-02 5.188995e-02 6.126406e-02 6.396134e-02 7.142219e-02 7.561051e-02 8.091753e-02 8.746998e-02 9.133048e-02 1.011656e-01 1.039990e-01 1.161517e-01 1.178840e-01 1.308584e-01 1.331858e-01 1.450778e-01 1.537327e-01 1.687232e-01 1.625394e-01 1.704325e-01 1.688791e-01 1.775179e-01 1.746932e-01 
1.681513e-01 1.688320e-01 1.751734e-01 1.756552e-01 1.817978e-01 1.826424e-01 1.847424e-01 1.972320e-01 1.997467e-01 2.089401e-01 2.128076e-01 2.195679e-01 2.242934e-01 2.286365e-01 6.843278e-02 5.564505e-02 -9.266647e-02 -1.222593e-01 -2.594809e-01 -2.920059e-01 -4.341303e-01 -4.402762e-01 -4.249059e-01 -4.278066e-01 -4.145434e-01 -4.149274e-01 -4.040615e-01 -4.022230e-01 -3.937496e-01 -3.901090e-01 -3.833408e-01 -3.780846e-01 -3.722388e-01 -3.660646e-01 -3.609947e-01 -3.547980e-01 -3.498038e-01 -3.432979e-01 -3.370186e-01 -3.302048e-01 -3.225614e-01 -3.164266e-01 -3.076383e-01 -3.027145e-01 -2.928476e-01 -2.897323e-01 -2.789940e-01 -2.775512e-01 -2.652180e-01 -2.643664e-01 -2.499978e-01 -2.491917e-01 -2.334772e-01 -2.322814e-01 -2.160870e-01 -2.131923e-01 -1.961454e-01 -1.864112e-01 -1.797860e-01 -1.885301e-01 -1.848523e-01 -1.957175e-01 -1.932258e-01 -1.981119e-01 -2.023284e-01 -2.071330e-01 -2.136538e-01 -2.137229e-01 -2.191827e-01 -2.220452e-01 -2.232626e-01 -2.168941e-01 -2.003902e-01 -1.885449e-01 -1.781206e-01 -1.696994e-01 -1.603779e-01 -1.551409e-01 -1.454036e-01 -1.427485e-01 -1.318116e-01 -1.311665e-01 -1.191036e-01 -1.197855e-01 -1.069247e-01 -1.081131e-01 -9.525142e-02 -9.632148e-02 -8.408143e-02 -8.368398e-02 -7.201119e-02 -6.913220e-02 -5.883811e-02 -5.364495e-02 -4.549343e-02 -3.786568e-02 -3.188584e-02 -2.215237e-02 -1.868408e-02 -7.645669e-03 -6.199567e-03 6.168972e-03 6.981974e-03 2.036366e-02 2.109913e-02 3.401058e-02 3.480520e-02 4.612863e-02 4.786352e-02 5.714846e-02 6.062931e-02 6.750799e-02 7.348347e-02 7.840164e-02 8.753630e-02 9.084364e-02 1.023301e-01 1.041064e-01 1.167304e-01 1.182650e-01 1.307783e-01 1.338279e-01 1.446311e-01 1.489507e-01 1.533300e-01 1.555675e-01 1.609754e-01 1.621616e-01 
1.830686e-01 1.816979e-01 1.913686e-01 1.902815e-01 1.990806e-01 1.996858e-01 2.049798e-01 2.114917e-01 2.182659e-01 2.227927e-01 2.319495e-01 2.346975e-01 2.457267e-01 2.483805e-01 8.147628e-02 7.243445e-02 -8.712392e-02 -1.101974e-01 -2.608647e-01 -2.857181e-01 -4.411327e-01 -4.408981e-01 -4.269024e-01 -4.264571e-01 -4.143570e-01 -4.126254e-01 -4.026148e-01 -3.993015e-01 -3.912459e-01 -3.864443e-01 -3.799437e-01 -3.738928e-01 -3.684548e-01 -3.615472e-01 -3.567389e-01 -3.493898e-01 -3.446877e-01 -3.371086e-01 -3.319411e-01 -3.243798e-01 -3.184683e-01 -3.113370e-01 -3.045721e-01 -2.982137e-01 -2.905277e-01 -2.852084e-01 -2.765617e-01 -2.723373e-01 -2.626030e-01 -2.593582e-01 -2.486087e-01 -2.464340e-01 -2.352280e-01 -2.346674e-01 -2.241300e-01 -2.267211e-01 -2.190120e-01 -2.292792e-01 -2.227554e-01 -2.242477e-01 -2.184246e-01 -2.185125e-01 -2.128950e-01 -2.124309e-01 -2.042415e-01 -2.027640e-01 -1.966754e-01 -1.932698e-01 -1.873088e-01 -1.808052e-01 -1.817213e-01 -1.723693e-01 -1.722945e-01 -1.649410e-01 -1.602654e-01 -1.542080e-01 -1.470876e-01 -1.427084e-01 -1.339551e-01 -1.311752e-01 -1.211382e-01 -1.196456e-01 -1.086411e-01 -1.079789e-01 -9.636364e-02 -9.598961e-02 -8.420705e-02 -8.357046e-02 -7.203210e-02 -7.050396e-02 -5.951499e-02 -5.661980e-02 -4.658439e-02 -4.217332e-02 -3.342918e-02 -2.748061e-02 -2.014554e-02 -1.283003e-02 -6.901009e-03 1.458508e-03 6.269326e-03 1.540080e-02 1.962020e-02 2.912162e-02 3.318431e-02 4.241821e-02 4.669008e-02 5.508988e-02 6.004271e-02 6.725879e-02 7.334171e-02 7.920551e-02 8.676782e-02 9.136617e-02 1.005481e-01 1.040516e-01 1.145428e-01 1.171529e-01 1.283970e-01 1.304935e-01 1.419196e-01 1.437127e-01 1.550391e-01 1.551734e-01 1.652365e-01 1.646587e-01 1.744253e-01 1.733148e-01 
1.674074e-01 1.699241e-01 1.759376e-01 1.790411e-01 1.846948e-01 1.890420e-01 1.941907e-01 2.006560e-01 2.060956e-01 2.131817e-01 2.196460e-01 2.268058e-01 2.349104e-01 2.421921e-01 6.584609e-02 6.502924e-02 -1.038035e-01 -1.097509e-01 -2.761376e-01 -2.813146e-01 -4.524757e-01 -4.500213e-01 -4.354672e-01 -4.339160e-01 -4.209021e-01 -4.191206e-01 -4.077294e-01 -4.051619e-01 -3.953143e-01 -3.918022e-01 -3.832340e-01 -3.788585e-01 -3.712108e-01 -3.662357e-01 -3.591388e-01 -3.538848e-01 -3.469042e-01 -3.416052e-01 -3.342985e-01 -3.292090e-01 -3.213225e-01 -3.167673e-01 -3.081843e-01 -3.044174e-01 -2.950825e-01 -2.922579e-01 -2.821674e-01 -2.802810e-01 -2.694349e-01 -2.683572e-01 -2.568881e-01 -2.565636e-01 -2.448540e-01 -2.454433e-01 -2.341040e-01 -2.362151e-01 -2.261062e-01 -2.314580e-01 -2.211514e-01 -2.238658e-01 -2.171339e-01 -2.167583e-01 -2.103818e-01 -2.104299e-01 -2.040085e-01 -2.041476e-01 -1.976215e-01 -1.961691e-01 -1.926900e-01 -1.878591e-01 -1.853951e-01 -1.791954e-01 -1.776770e-01 -1.723933e-01 -1.671502e-01 -1.624941e-01 -1.551444e-01 -1.515615e-01 -1.427491e-01 -1.402809e-01 -1.303324e-01 -1.287762e-01 -1.180059e-01 -1.169988e-01 -1.057824e-01 -1.048645e-01 -9.365204e-02 -9.232657e-02 -8.155784e-02 -7.929380e-02 -6.934033e-02 -6.571874e-02 -5.695349e-02 -5.177279e-02 -4.446574e-02 -3.766390e-02 -3.188888e-02 -2.357844e-02 -1.924508e-02 -9.690786e-03 -6.473109e-03 4.002562e-03 6.611040e-03 1.754230e-02 2.002751e-02 3.077841e-02 3.358599e-02 4.354895e-02 4.715116e-02 5.588663e-02 6.070496e-02 6.798078e-02 7.430836e-02 8.014555e-02 8.803114e-02 9.260420e-02 1.017025e-01 1.053008e-01 1.149889e-01 1.180719e-01 1.276116e-01 1.306115e-01 1.392809e-01 1.422426e-01 1.495047e-01 1.521197e-01 1.587303e-01 1.611310e-01 
1.823099e-01 1.819736e-01 1.911992e-01 1.914823e-01 2.001147e-01 2.017192e-01 2.096696e-01 2.131154e-01 2.217296e-01 2.254726e-01 2.356608e-01 2.392519e-01 2.515008e-01 2.552264e-01 7.934565e-02 7.555467e-02 -9.378900e-02 -1.026378e-01 -2.700878e-01 -2.770277e-01 -4.507347e-01 -4.467889e-01 -4.331352e-01 -4.303290e-01 -4.182588e-01 -4.152987e-01 -4.048941e-01 -4.011160e-01 -3.922811e-01 -3.874813e-01 -3.799785e-01 -3.742495e-01 -3.677565e-01 -3.613526e-01 -3.555007e-01 -3.487293e-01 -3.431380e-01 -3.363013e-01 -3.306303e-01 -3.240153e-01 -3.180114e-01 -3.118757e-01 -3.053698e-01 -2.999027e-01 -2.927893e-01 -2.881047e-01 -2.803585e-01 -2.765234e-01 -2.682170e-01 -2.652699e-01 -2.565732e-01 -2.545476e-01 -2.457364e-01 -2.447067e-01 -2.361605e-01 -2.362273e-01 -2.283116e-01 -2.293104e-01 -2.218476e-01 -2.219681e-01 -2.154432e-01 -2.143291e-01 -2.077185e-01 -2.061465e-01 -2.002143e-01 -1.979695e-01 -1.918670e-01 -1.887252e-01 -1.839996e-01 -1.796452e-01 -1.746023e-01 -1.694733e-01 -1.649452e-01 -1.604123e-01 -1.544363e-01 -1.505579e-01 -1.431096e-01 -1.400350e-01 -1.312901e-01 -1.290102e-01 -1.192020e-01 -1.175546e-01 -1.069609e-01 -1.056748e-01 -9.462816e-02 -9.337216e-02 -8.224529e-02 -8.066647e-02 -6.984027e-02 -6.760715e-02 -5.743562e-02 -5.427810e-02 -4.504303e-02 -4.077619e-02 -3.264314e-02 -2.718631e-02 -2.018161e-02 -1.357124e-02 -7.574660e-03 3.810686e-05 5.279489e-03 1.363075e-02 1.845506e-02 2.717240e-02 3.194789e-02 4.058558e-02 4.567234e-02 5.378050e-02 5.950775e-02 6.671917e-02 7.336859e-02 7.947036e-02 8.723387e-02 9.217443e-02 1.010754e-01 1.049142e-01 1.147621e-01 1.176257e-01 1.280748e-01 1.301194e-01 1.407948e-01 1.421085e-01 1.527054e-01 1.531884e-01 1.633812e-01 1.632729e-01 1.731366e-01 1.727220e-01 
1.672250e-01 1.696947e-01 1.757052e-01 1.787754e-01 1.844253e-01 1.887521e-01 1.938985e-01 2.003666e-01 2.058060e-01 2.129276e-01 2.194023e-01 2.266345e-01 2.347396e-01 2.420781e-01 6.560088e-02 6.488145e-02 -1.042021e-01 -1.101087e-01 -2.767784e-01 -2.820513e-01 -4.534430e-01 -4.511432e-01 -4.364697e-01 -4.349919e-01 -4.218025e-01 -4.200118e-01 -4.083889e-01 -4.057097e-01 -3.955402e-01 -3.918294e-01 -3.828964e-01 -3.783466e-01 -3.703761e-01 -3.653175e-01 -3.579333e-01 -3.526852e-01 -3.454885e-01 -3.403786e-01 -3.330601e-01 -3.283947e-01 -3.207324e-01 -3.167407e-01 -3.085852e-01 -3.053582e-01 -2.965710e-01 -2.940537e-01 -2.846106e-01 -2.827987e-01 -2.729094e-01 -2.718270e-01 -2.617263e-01 -2.612397e-01 -2.510885e-01 -2.510224e-01 -2.410702e-01 -2.413668e-01 -2.319423e-01 -2.324707e-01 -2.237422e-01 -2.237693e-01 -2.161249e-01 -2.154594e-01 -2.086905e-01 -2.076180e-01 -2.015262e-01 -2.000592e-01 -1.945657e-01 -1.925150e-01 -1.876389e-01 -1.848656e-01 -1.800893e-01 -1.769432e-01 -1.716786e-01 -1.686475e-01 -1.620970e-01 -1.594280e-01 -1.514768e-01 -1.493774e-01 -1.401837e-01 -1.387099e-01 -1.284942e-01 -1.274768e-01 -1.164965e-01 -1.156396e-01 -1.042682e-01 -1.032300e-01 -9.190816e-02 -9.031096e-02 -7.952731e-02 -7.707272e-02 -6.734659e-02 -6.378909e-02 -5.547217e-02 -5.055289e-02 -4.379410e-02 -3.736935e-02 -3.215922e-02 -2.421447e-02 -2.031819e-02 -1.095989e-02 -7.994773e-03 2.449419e-03 4.911424e-03 1.593445e-02 1.838835e-02 2.940770e-02 3.234022e-02 4.270013e-02 4.648397e-02 5.559864e-02 6.058112e-02 6.817079e-02 7.465325e-02 8.071334e-02 8.872707e-02 9.341109e-02 1.026056e-01 1.061907e-01 1.158862e-01 1.187883e-01 1.282235e-01 1.309698e-01 1.395428e-01 1.423202e-01 1.495329e-01 1.520323e-01 1.586245e-01 1.609540e-01 
1.826355e-01 1.811719e-01 1.908326e-01 1.896660e-01 1.984401e-01 1.989904e-01 2.042715e-01 2.108163e-01 2.176259e-01 2.223020e-01 2.315060e-01 2.345183e-01 2.455078e-01 2.484621e-01 8.113292e-02 7.275748e-02 -8.779733e-02 -1.102885e-01 -2.619185e-01 -2.868519e-01 -4.427367e-01 -4.430575e-01 -4.287748e-01 -4.286733e-01 -4.162480e-01 -4.146443e-01 -4.042118e-01 -4.007618e-01 -3.920907e-01 -3.869154e-01 -3.796972e-01 -3.732716e-01 -3.671952e-01 -3.600658e-01 -3.546910e-01 -3.472894e-01 -3.421685e-01 -3.349268e-01 -3.297638e-01 -3.230657e-01 -3.176459e-01 -3.117490e-01 -3.059228e-01 -3.008917e-01 -2.944527e-01 -2.901355e-01 -2.829989e-01 -2.793990e-01 -2.718411e-01 -2.690585e-01 -2.613118e-01 -2.591381e-01 -2.512038e-01 -2.493012e-01 -2.412849e-01 -2.394878e-01 -2.316495e-01 -2.297987e-01 -2.223120e-01 -2.201658e-01 -2.132119e-01 -2.107170e-01 -2.043785e-01 -2.016302e-01 -1.958450e-01 -1.929073e-01 -1.875675e-01 -1.845183e-01 -1.794016e-01 -1.762695e-01 -1.708896e-01 -1.678512e-01 -1.617875e-01 -1.590616e-01 -1.518779e-01 -1.495807e-01 -1.411017e-01 -1.393675e-01 -1.296977e-01 -1.285681e-01 -1.178774e-01 -1.171597e-01 -1.056463e-01 -1.050621e-01 -9.309271e-02 -9.236689e-02 -8.037178e-02 -7.917694e-02 -6.764687e-02 -6.578921e-02 -5.530810e-02 -5.262764e-02 -4.353125e-02 -3.973065e-02 -3.210420e-02 -2.699233e-02 -2.080014e-02 -1.428909e-02 -9.238024e-03 -1.314931e-03 3.003042e-03 1.206516e-02 1.602005e-02 2.573764e-02 2.978441e-02 3.962650e-02 4.421054e-02 5.349654e-02 5.887141e-02 6.692989e-02 7.337855e-02 7.992448e-02 8.779627e-02 9.284133e-02 1.022239e-01 1.058919e-01 1.164792e-01 1.189733e-01 1.301243e-01 1.317658e-01 1.429015e-01 1.441330e-01 1.552744e-01 1.550774e-01 1.651022e-01 1.643340e-01 1.741074e-01 1.728748e-01 
1.674972e-01 1.680797e-01 1.744249e-01 1.748097e-01 1.809316e-01 1.816750e-01 1.837650e-01 1.962239e-01 1.987038e-01 2.079875e-01 2.119701e-01 2.191564e-01 2.240070e-01 2.287348e-01 6.801323e-02 5.590656e-02 -9.350705e-02 -1.226570e-01 -2.610655e-01 -2.941907e-01 -4.371484e-01 -4.441638e-01 -4.284647e-01 -4.315873e-01 -4.178010e-01 -4.182343e-01 -4.068106e-01 -4.045746e-01 -3.949468e-01 -3.902641e-01 -3.820632e-01 -3.760170e-01 -3.692290e-01 -3.628102e-01 -3.567354e-01 -3.501817e-01 -3.440071e-01 -3.378603e-01 -3.314197e-01 -3.262604e-01 -3.194200e-01 -3.156276e-01 -3.084545e-01 -3.059872e-01 -2.978450e-01 -2.956509e-01 -2.860168e-01 -2.841834e-01 -2.743113e-01 -2.737586e-01 -2.643820e-01 -2.644343e-01 -2.548436e-01 -2.543528e-01 -2.444733e-01 -2.434782e-01 -2.340726e-01 -2.327131e-01 -2.240051e-01 -2.221177e-01 -2.143913e-01 -2.122884e-01 -2.059217e-01 -2.036802e-01 -1.982305e-01 -1.959125e-01 -1.913754e-01 -1.892850e-01 -1.850793e-01 -1.829640e-01 -1.782289e-01 -1.761836e-01 -1.703614e-01 -1.685943e-01 -1.611973e-01 -1.596858e-01 -1.505020e-01 -1.496609e-01 -1.392047e-01 -1.394016e-01 -1.278904e-01 -1.285933e-01 -1.159109e-01 -1.165705e-01 -1.032822e-01 -1.036334e-01 -9.024816e-02 -8.957206e-02 -7.669658e-02 -7.503332e-02 -6.412759e-02 -6.167003e-02 -5.320528e-02 -4.912297e-02 -4.294939e-02 -3.696110e-02 -3.325363e-02 -2.525035e-02 -2.332028e-02 -1.284914e-02 -1.184695e-02 5.920896e-04 9.294710e-04 1.437256e-02 1.484992e-02 2.875942e-02 3.032715e-02 4.342644e-02 4.600284e-02 5.661578e-02 6.055616e-02 6.847898e-02 7.498871e-02 8.065965e-02 9.019908e-02 9.388850e-02 1.058920e-01 1.078030e-01 1.205404e-01 1.211524e-01 1.328726e-01 1.345935e-01 1.449535e-01 1.487206e-01 1.530152e-01 1.550041e-01 1.604287e-01 1.614814e-01 
1.839716e-01 1.792674e-01 1.924277e-01 1.840385e-01 2.030927e-01 1.867937e-01 1.677956e-01 2.092258e-01 2.102098e-01 2.150182e-01 2.251045e-01 2.212284e-01 2.367512e-01 2.033120e-01 1.031657e-01 1.013952e-01 -5.462473e-02 -1.351520e-01 -2.160299e-01 -3.628758e-01 -3.823329e-01 -4.204316e-01 -4.023763e-01 -4.095877e-01 -3.963036e-01 -3.976174e-01 -3.879144e-01 -3.847433e-01 -3.773076e-01 -3.705901e-01 -3.647758e-01 -3.562183e-01 -3.520254e-01 -3.430099e-01 -3.395965e-01 -3.304109e-01 -3.268307e-01 -3.181539e-01 -3.143267e-01 -3.068730e-01 -3.027188e-01 -2.969506e-01 -2.926435e-01 -2.885089e-01 -2.832302e-01 -2.793236e-01 -2.723079e-01 -2.687453e-01 -2.615348e-01 -2.595601e-01 -2.529450e-01 -2.516587e-01 -2.444591e-01 -2.423161e-01 -2.342030e-01 -2.312316e-01 -2.230004e-01 -2.192937e-01 -2.112037e-01 -2.071987e-01 -1.995546e-01 -1.954637e-01 -1.895139e-01 -1.855223e-01 -1.801876e-01 -1.765095e-01 -1.725932e-01 -1.696683e-01 -1.658075e-01 -1.634067e-01 -1.592395e-01 -1.576874e-01 -1.517452e-01 -1.505470e-01 -1.429291e-01 -1.419016e-01 -1.322933e-01 -1.318614e-01 -1.209208e-01 -1.215557e-01 -1.095251e-01 -1.106216e-01 -9.727459e-02 -9.831125e-02 -8.429895e-02 -8.517517e-02 -7.099335e-02 -7.095584e-02 -5.716127e-02 -5.643365e-02 -4.473349e-02 -4.371033e-02 -3.452688e-02 -3.218198e-02 -2.518722e-02 -2.117906e-02 -1.658570e-02 -1.071889e-02 -7.682281e-03 7.956252e-04 3.231917e-03 1.388550e-02 1.580749e-02 2.765180e-02 2.981976e-02 4.248916e-02 4.584394e-02 5.797577e-02 6.207261e-02 7.167860e-02 7.668113e-02 8.361859e-02 9.092969e-02 9.580878e-02 1.060148e-01 1.091349e-01 1.216232e-01 1.231366e-01 1.357865e-01 1.364051e-01 1.467365e-01 1.531911e-01 1.676958e-01 1.611966e-01 1.694206e-01 1.677766e-01 1.766081e-01 1.736972e-01 
1.677057e-01 1.652188e-01 1.737856e-01 1.685209e-01 1.817417e-01 1.697202e-01 1.189261e-01 1.855745e-01 1.679125e-01 1.817637e-01 1.780471e-01 1.835371e-01 1.849343e-01 1.589674e-01 1.372806e-01 1.124669e-01 8.506210e-02 3.289984e-02 3.275703e-02 -4.410714e-02 -2.785480e-02 -6.895642e-02 -5.502826e-02 -6.432674e-02 -5.223680e-02 -6.074263e-02 -4.920415e-02 -5.675766e-02 -4.587661e-02 -5.250041e-02 -4.240512e-02 -4.783279e-02 -3.846560e-02 -4.252848e-02 -3.415133e-02 -3.708681e-02 -3.003450e-02 -3.193884e-02 -2.621613e-02 -2.711349e-02 -2.266323e-02 -2.261052e-02 -1.924007e-02 -1.844491e-02 -1.624206e-02 -1.533150e-02 -1.422974e-02 -1.320180e-02 -1.218674e-02 -1.058797e-02 -8.862193e-03 -6.970191e-03 -4.450443e-03 -2.727465e-03 8.700082e-04 2.537360e-03 7.719938e-03 9.522918e-03 1.602175e-02 1.670696e-02 2.425864e-02 2.435865e-02 3.159560e-02 3.096970e-02 3.846662e-02 3.694717e-02 4.350455e-02 4.134280e-02 4.805946e-02 4.505497e-02 5.076652e-02 4.668474e-02 5.296338e-02 4.929679e-02 5.504408e-02 5.208567e-02 5.737172e-02 5.554710e-02 6.058980e-02 6.011609e-02 6.486403e-02 6.531491e-02 6.949678e-02 7.029348e-02 7.399826e-02 7.467175e-02 7.806619e-02 7.800454e-02 8.142099e-02 8.049397e-02 8.475268e-02 8.301444e-02 8.847784e-02 8.559351e-02 9.231241e-02 8.835008e-02 9.649586e-02 9.173438e-02 1.009417e-01 9.555913e-02 1.052223e-01 9.990267e-02 1.095539e-01 1.051919e-01 1.139605e-01 1.111706e-01 1.180426e-01 1.176974e-01 1.221709e-01 1.251652e-01 1.266014e-01 1.329147e-01 1.304972e-01 1.396773e-01 1.333365e-01 1.448802e-01 1.353851e-01 1.486619e-01 1.376062e-01 1.520203e-01 1.409492e-01 1.597913e-01 1.618330e-01 1.487633e-01 1.579639e-01 1.557310e-01 1.626215e-01 1.608857e-01 
1.790306e-01 1.782365e-01 1.818093e-01 1.823028e-01 1.829113e-01 1.859270e-01 1.539617e-01 1.885176e-01 1.721942e-01 1.845918e-01 1.775408e-01 1.840917e-01 1.818534e-01 1.775962e-01 1.694321e-01 1.662599e-01 1.565250e-01 1.454657e-01 1.444181e-01 1.252824e-01 1.301447e-01 1.194659e-01 1.250386e-01 1.202966e-01 1.269598e-01 1.197760e-01 1.280001e-01 1.192631e-01 1.280859e-01 1.182944e-01 1.271249e-01 1.176500e-01 1.264862e-01 1.184160e-01 1.263666e-01 1.196549e-01 1.256948e-01 1.206865e-01 1.247262e-01 1.218515e-01 1.239098e-01 1.233901e-01 1.238418e-01 1.253824e-01 1.236943e-01 1.256423e-01 1.214987e-01 1.238243e-01 1.194315e-01 1.233125e-01 1.201889e-01 1.246737e-01 1.223408e-01 1.259348e-01 1.247145e-01 1.276367e-01 1.288024e-01 1.313629e-01 1.348843e-01 1.359268e-01 1.416444e-01 1.418593e-01 1.488383e-01 1.481577e-01 1.562682e-01 1.545404e-01 1.627051e-01 1.602650e-01 1.687298e-01 1.649747e-01 1.720320e-01 1.668138e-01 1.734611e-01 1.684375e-01 1.734331e-01 1.690819e-01 1.722084e-01 1.694203e-01 1.713466e-01 1.707372e-01 1.716003e-01 1.723404e-01 1.717632e-01 1.728639e-01 1.714451e-01 1.722633e-01 1.705952e-01 1.698792e-01 1.687657e-01 1.664021e-01 1.679003e-01 1.641132e-01 1.689435e-01 1.626800e-01 1.707061e-01 1.618446e-01 1.733479e-01 1.621451e-01 1.760865e-01 1.623875e-01 1.773349e-01 1.623316e-01 1.775152e-01 1.630122e-01 1.767887e-01 1.639042e-01 1.743796e-01 1.651158e-01 1.718799e-01 1.685922e-01 1.707772e-01 1.735420e-01 1.693990e-01 1.772002e-01 1.664421e-01 1.782672e-01 1.624608e-01 1.771160e-01 1.598861e-01 1.756205e-01 1.610686e-01 1.748299e-01 1.707087e-01 1.635189e-01 1.718367e-01 1.690887e-01 1.755408e-01 1.738427e-01 
1.622854e-01 1.644150e-01 1.624614e-01 1.667332e-01 1.596753e-01 1.684554e-01 1.511296e-01 1.671286e-01 1.537070e-01 1.629986e-01 1.559201e-01 1.572241e-01 1.563486e-01 1.485755e-01 1.540837e-01 1.399197e-01 1.509662e-01 1.329303e-01 1.471509e-01 1.274169e-01 1.422290e-01 1.232767e-01 1.364316e-01 1.203737e-01 1.328459e-01 1.183944e-01 1.307514e-01 1.171626e-01 1.291930e-01 1.162008e-01 1.276498e-01 1.156663e-01 1.264135e-01 1.159217e-01 1.254726e-01 1.165624e-01 1.243410e-01 1.172000e-01 1.230224e-01 1.178628e-01 1.217295e-01 1.186726e-01 1.208188e-01 1.196823e-01 1.200574e-01 1.200566e-01 1.187902e-01 1.197124e-01 1.179698e-01 1.200306e-01 1.187596e-01 1.213766e-01 1.207848e-01 1.232284e-01 1.238182e-01 1.260695e-01 1.285875e-01 1.305120e-01 1.348325e-01 1.350882e-01 1.407978e-01 1.399048e-01 1.464840e-01 1.446119e-01 1.516516e-01 1.489147e-01 1.561985e-01 1.526590e-01 1.600696e-01 1.554958e-01 1.627788e-01 1.572587e-01 1.640395e-01 1.586131e-01 1.640504e-01 1.592811e-01 1.631712e-01 1.596535e-01 1.622514e-01 1.602981e-01 1.617203e-01 1.609216e-01 1.611802e-01 1.609279e-01 1.605141e-01 1.602470e-01 1.597505e-01 1.586489e-01 1.587806e-01 1.564600e-01 1.583737e-01 1.546506e-01 1.589199e-01 1.532477e-01 1.599580e-01 1.522600e-01 1.614388e-01 1.519459e-01 1.629173e-01 1.518791e-01 1.636079e-01 1.519315e-01 1.634881e-01 1.524773e-01 1.625859e-01 1.534078e-01 1.607483e-01 1.548743e-01 1.587657e-01 1.575980e-01 1.573234e-01 1.610594e-01 1.557951e-01 1.638105e-01 1.536861e-01 1.650234e-01 1.514395e-01 1.647568e-01 1.503952e-01 1.637263e-01 1.518105e-01 1.618015e-01 1.556510e-01 1.572116e-01 1.582528e-01 1.591611e-01 1.606130e-01 1.617581e-01 
