# vtk DataFile Version 2.0
Comment goes here
ASCII

DATASET STRUCTURED_POINTS
FIELD FieldData 1
TIME 1 1 double
0.27000000
DIMENSIONS    128   16   1

ORIGIN    0.000   0.000   0.000
SPACING   0.0078125 0.015625   1.000

POINT_DATA   2048
SCALARS P double
LOOKUP_TABLE default

4.683957e-01 4.557942e-01 4.694314e-01 4.581211e-01 4.706663e-01 4.612056e-01 4.733844e-01 4.695043e-01 4.702506e-01 4.754508e-01 4.659039e-01 4.771083e-01 4.581388e-01 4.702800e-01 4.405693e-01 4.509887e-01 4.195416e-01 4.300485e-01 3.976137e-01 4.102547e-01 3.788326e-01 3.930359e-01 3.717723e-01 3.858176e-01 3.696488e-01 3.825555e-01 3.695363e-01 3.812138e-01 3.710764e-01 3.813228e-01 3.736687e-01 3.818358e-01 3.764252e-01 3.822950e-01 3.794660e-01 3.831850e-01 3.830560e-01 3.846442e-01 3.872220e-01 3.869297e-01 3.921148e-01 3.901544e-01 3.975042e-01 3.939407e-01 4.027273e-01 3.976454e-01 4.071430e-01 4.009295e-01 4.108641e-01 4.044774e-01 4.148559e-01 4.090736e-01 4.193066e-01 4.138444e-01 4.226213e-01 4.171646e-01 4.238819e-01 4.186459e-01 4.239946e-01 4.183700e-01 4.177287e-01 4.126024e-01 4.149510e-01 4.085059e-01 4.048718e-01 3.991144e-01 4.005030e-01 3.943929e-01 3.910519e-01 3.858843e-01 3.899390e-01 3.868007e-01 3.847930e-01 3.818219e-01 3.838956e-01 3.803304e-01 3.849945e-01 3.801163e-01 3.867295e-01 3.803824e-01 3.887813e-01 3.811550e-01 3.911812e-01 3.824926e-01 3.936119e-01 3.839396e-01 3.955596e-01 3.856403e-01 3.975699e-01 3.883884e-01 4.000401e-01 3.923228e-01 4.028915e-01 3.971524e-01 4.055964e-01 4.018951e-01 4.074214e-01 4.062281e-01 4.093675e-01 4.114837e-01 4.129882e-01 4.178163e-01 4.174995e-01 4.230930e-01 4.213120e-01 4.265036e-01 4.253717e-01 4.297376e-01 4.316478e-01 4.338412e-01 4.398335e-01 4.375674e-01 4.481129e-01 4.397094e-01 4.552717e-01 4.400819e-01 4.606999e-01 4.392327e-01 4.644662e-01 4.388835e-01 4.673880e-01 4.410747e-01 4.691003e-01 4.477787e-01 4.684066e-01 4.508327e-01 4.678954e-01 4.533413e-01 
3.888409e-01 3.787953e-01 3.881252e-01 3.783858e-01 3.878840e-01 3.776417e-01 3.896867e-01 3.865081e-01 3.859635e-01 3.933060e-01 3.839471e-01 3.980409e-01 3.841604e-01 4.008072e-01 3.867514e-01 4.062931e-01 3.919546e-01 4.111107e-01 3.982803e-01 4.147804e-01 4.044685e-01 4.161765e-01 4.056554e-01 4.133494e-01 4.031399e-01 4.090965e-01 4.013525e-01 4.074854e-01 4.030169e-01 4.084816e-01 4.059888e-01 4.091477e-01 4.077998e-01 4.081446e-01 4.085017e-01 4.065997e-01 4.095231e-01 4.063298e-01 4.125893e-01 4.082335e-01 4.168022e-01 4.104681e-01 4.207289e-01 4.129256e-01 4.245268e-01 4.150006e-01 4.262724e-01 4.145846e-01 4.254319e-01 4.137065e-01 4.255723e-01 4.156357e-01 4.280558e-01 4.187368e-01 4.293003e-01 4.193595e-01 4.268903e-01 4.157101e-01 4.220461e-01 4.150944e-01 4.179965e-01 4.122429e-01 4.156287e-01 4.086807e-01 4.093397e-01 4.019664e-01 4.040065e-01 3.965630e-01 3.959996e-01 3.872879e-01 3.859057e-01 3.783349e-01 3.746082e-01 3.706098e-01 3.730272e-01 3.682975e-01 3.717941e-01 3.642717e-01 3.687643e-01 3.603943e-01 3.673881e-01 3.586538e-01 3.671023e-01 3.569698e-01 3.657032e-01 3.543525e-01 3.637189e-01 3.528948e-01 3.634553e-01 3.540716e-01 3.647717e-01 3.571257e-01 3.667441e-01 3.607738e-01 3.674746e-01 3.627760e-01 3.655724e-01 3.629921e-01 3.631375e-01 3.648070e-01 3.645068e-01 3.708790e-01 3.696017e-01 3.770010e-01 3.727051e-01 3.781878e-01 3.729562e-01 3.776396e-01 3.760841e-01 3.799601e-01 3.830072e-01 3.822814e-01 3.889342e-01 3.811895e-01 3.926113e-01 3.781177e-01 3.948809e-01 3.736375e-01 3.951452e-01 3.697571e-01 3.959918e-01 3.705896e-01 3.970158e-01 3.776171e-01 3.927660e-01 3.783207e-01 3.901722e-01 3.786756e-01 
4.662257e-01 4.549653e-01 4.679759e-01 4.554576e-01 4.665676e-01 4.492683e-01 4.837416e-01 4.735797e-01 4.727750e-01 4.844978e-01 4.734494e-01 4.943932e-01 4.784702e-01 4.974098e-01 4.508969e-01 4.571053e-01 4.248577e-01 4.310625e-01 3.953621e-01 4.099607e-01 3.599072e-01 3.751064e-01 3.611591e-01 3.728944e-01 3.560683e-01 3.669005e-01 3.538342e-01 3.678105e-01 3.602381e-01 3.745616e-01 3.689163e-01 3.797811e-01 3.742701e-01 3.809053e-01 3.769243e-01 3.804462e-01 3.794264e-01 3.819872e-01 3.865334e-01 3.886181e-01 3.959053e-01 3.945256e-01 4.036697e-01 4.006692e-01 4.122240e-01 4.064561e-01 4.162174e-01 4.055662e-01 4.139534e-01 4.033076e-01 4.149618e-01 4.090273e-01 4.236814e-01 4.190745e-01 4.319548e-01 4.274203e-01 4.341307e-01 4.320646e-01 4.566091e-01 4.444541e-01 4.043188e-01 4.056238e-01 4.472968e-01 4.326393e-01 3.848657e-01 3.825510e-01 4.251741e-01 4.102643e-01 3.549684e-01 3.421933e-01 4.030433e-01 4.072809e-01 3.645842e-01 3.690668e-01 3.809029e-01 3.832522e-01 3.899108e-01 3.841117e-01 3.885138e-01 3.810944e-01 3.891348e-01 3.820328e-01 3.920917e-01 3.824322e-01 3.917429e-01 3.789065e-01 3.890190e-01 3.774339e-01 3.912746e-01 3.822367e-01 3.972430e-01 3.900048e-01 4.040673e-01 3.980711e-01 4.079405e-01 4.019322e-01 4.058217e-01 4.012181e-01 4.016003e-01 4.031310e-01 4.051631e-01 4.153684e-01 4.177393e-01 4.290194e-01 4.250132e-01 4.311197e-01 4.236846e-01 4.291783e-01 4.279257e-01 4.350434e-01 4.404242e-01 4.415430e-01 4.496742e-01 4.407975e-01 4.546034e-01 4.376972e-01 4.586648e-01 4.321747e-01 4.591980e-01 4.265331e-01 4.632889e-01 4.269103e-01 4.700865e-01 4.519705e-01 4.658293e-01 4.501147e-01 4.644433e-01 4.521990e-01 
3.848701e-01 3.794492e-01 3.847698e-01 3.782695e-01 3.780704e-01 3.684628e-01 4.351130e-01 4.148489e-01 4.157024e-01 4.276265e-01 4.225327e-01 4.392992e-01 4.288902e-01 4.237357e-01 3.177813e-01 2.693259e-01 2.003870e-01 1.556694e-01 6.862947e-02 5.763974e-02 -7.539340e-02 -7.680160e-02 -8.076842e-02 -7.854293e-02 -8.070177e-02 -7.877616e-02 -7.679834e-02 -7.341030e-02 -6.740613e-02 -6.445573e-02 -5.697832e-02 -5.572898e-02 -4.657682e-02 -4.571364e-02 -3.360484e-02 -3.355896e-02 -2.126962e-02 -2.277979e-02 -8.473129e-03 -9.883213e-03 3.926397e-03 -5.439012e-05 1.300574e-02 9.301584e-03 2.334035e-02 1.885025e-02 3.019073e-02 2.355647e-02 3.373153e-02 2.856305e-02 4.182139e-02 4.204928e-02 5.799373e-02 5.810571e-02 7.233973e-02 7.215843e-02 7.351437e-02 7.557569e-02 1.461645e-01 1.428218e-01 2.291011e-02 4.361965e-02 1.810255e-01 1.479236e-01 2.097212e-02 3.002207e-02 1.825459e-01 1.487128e-01 1.280402e-02 4.864410e-03 2.377839e-01 2.626941e-01 1.159857e-01 1.056120e-01 1.187011e-01 1.176933e-01 1.307901e-01 1.267413e-01 1.383537e-01 1.339040e-01 1.470455e-01 1.452358e-01 1.605910e-01 1.603103e-01 1.739639e-01 1.706292e-01 1.815381e-01 1.787513e-01 1.915516e-01 1.902203e-01 2.018914e-01 1.994691e-01 2.090130e-01 2.065654e-01 2.144513e-01 2.126119e-01 2.187404e-01 2.180949e-01 2.231342e-01 2.254892e-01 2.325224e-01 2.404794e-01 2.498112e-01 2.591950e-01 2.664463e-01 2.731771e-01 2.793269e-01 2.853428e-01 2.948729e-01 3.005231e-01 3.124533e-01 3.126696e-01 3.249747e-01 3.188346e-01 3.346859e-01 3.243268e-01 3.447440e-01 3.280616e-01 3.518846e-01 3.298193e-01 3.619826e-01 3.280274e-01 3.736245e-01 3.820157e-01 3.832316e-01 3.774817e-01 3.832303e-01 3.779352e-01 
4.640771e-01 4.630285e-01 4.786825e-01 4.784020e-01 4.922591e-01 4.954331e-01 5.605243e-01 5.431434e-01 5.733010e-01 5.697032e-01 6.029129e-01 5.968222e-01 6.305253e-01 6.045910e-01 2.671078e-01 3.812099e-02 -1.363792e-01 -3.468100e-01 -5.829490e-01 -6.815535e-01 -1.103273e+00 -1.097308e+00 -1.083166e+00 -1.071913e+00 -1.052974e+00 -1.043649e+00 -1.023937e+00 -1.019528e+00 -1.000674e+00 -9.992687e-01 -9.791392e-01 -9.766553e-01 -9.524289e-01 -9.458806e-01 -9.181290e-01 -9.095243e-01 -8.841708e-01 -8.774362e-01 -8.563430e-01 -8.499843e-01 -8.326695e-01 -8.255817e-01 -8.113562e-01 -8.023402e-01 -7.899999e-01 -7.785519e-01 -7.668589e-01 -7.515000e-01 -7.390518e-01 -7.219745e-01 -7.099043e-01 -6.930750e-01 -6.817888e-01 -6.682620e-01 -6.571961e-01 -6.470457e-01 -6.439265e-01 -6.400603e-01 -5.756568e-01 -5.458482e-01 -6.080472e-01 -5.678067e-01 -4.505829e-01 -4.523745e-01 -5.070498e-01 -4.819473e-01 -3.464776e-01 -3.564386e-01 -4.146508e-01 -4.007949e-01 -2.123166e-01 -1.919852e-01 -3.016890e-01 -3.224119e-01 -3.149505e-01 -3.199005e-01 -3.006531e-01 -2.968388e-01 -2.732943e-01 -2.669554e-01 -2.446119e-01 -2.348129e-01 -2.112807e-01 -1.956482e-01 -1.726869e-01 -1.564495e-01 -1.380957e-01 -1.231471e-01 -1.079739e-01 -9.496436e-02 -8.326597e-02 -7.422005e-02 -6.430599e-02 -5.687248e-02 -4.342539e-02 -3.475214e-02 -1.513005e-02 -6.253938e-03 1.724864e-02 2.203536e-02 4.638489e-02 4.653536e-02 7.419368e-02 7.458657e-02 1.097394e-01 1.133299e-01 1.534020e-01 1.554482e-01 1.928897e-01 1.898405e-01 2.230213e-01 2.184801e-01 2.505436e-01 2.485551e-01 2.795638e-01 2.800302e-01 3.091779e-01 3.120898e-01 3.391599e-01 3.419702e-01 3.669741e-01 3.607975e-01 3.919419e-01 4.158583e-01 4.289383e-01 4.330771e-01 4.480378e-01 4.482230e-01 
3.865564e-01 3.891808e-01 4.052854e-01 4.085053e-01 4.274239e-01 4.334437e-01 4.617484e-01 4.593174e-01 4.879178e-01 4.838651e-01 5.137555e-01 5.073914e-01 5.372734e-01 5.269050e-01 1.443136e-01 9.648738e-02 -2.581880e-01 -3.108157e-01 -6.735341e-01 -7.053581e-01 -1.099109e+00 -1.104486e+00 -1.078878e+00 -1.078454e+00 -1.051863e+00 -1.050883e+00 -1.025357e+00 -1.027352e+00 -1.003411e+00 -1.006931e+00 -9.822215e-01 -9.842948e-01 -9.571341e-01 -9.562589e-01 -9.276604e-01 -9.249258e-01 -8.979864e-01 -8.956097e-01 -8.724925e-01 -8.701053e-01 -8.498632e-01 -8.457454e-01 -8.278979e-01 -8.221409e-01 -8.064476e-01 -7.982675e-01 -7.825449e-01 -7.705406e-01 -7.542087e-01 -7.409823e-01 -7.259093e-01 -7.141936e-01 -7.002727e-01 -6.903304e-01 -6.754150e-01 -6.673925e-01 -6.511838e-01 -6.471836e-01 -6.211404e-01 -6.058865e-01 -5.842702e-01 -5.694355e-01 -5.426540e-01 -5.314354e-01 -5.054080e-01 -4.958513e-01 -4.647083e-01 -4.584674e-01 -4.318486e-01 -4.201746e-01 -3.871997e-01 -3.813616e-01 -3.712223e-01 -3.760813e-01 -3.608111e-01 -3.617630e-01 -3.410089e-01 -3.359390e-01 -3.128136e-01 -3.056998e-01 -2.843382e-01 -2.753158e-01 -2.544913e-01 -2.417484e-01 -2.213640e-01 -2.068047e-01 -1.890924e-01 -1.753957e-01 -1.610128e-01 -1.491046e-01 -1.370077e-01 -1.273822e-01 -1.158644e-01 -1.074157e-01 -9.293287e-02 -8.402920e-02 -6.456094e-02 -5.602524e-02 -3.300822e-02 -2.812728e-02 -4.359972e-03 -4.366974e-03 2.161457e-02 2.111467e-02 5.329020e-02 5.537442e-02 9.157118e-02 9.245662e-02 1.261708e-01 1.233759e-01 1.536721e-01 1.511192e-01 1.805252e-01 1.811642e-01 2.086617e-01 2.118912e-01 2.366362e-01 2.433003e-01 2.654887e-01 2.739242e-01 2.916696e-01 2.996927e-01 3.152454e-01 3.287956e-01 3.459875e-01 3.525721e-01 3.678355e-01 3.714764e-01 
4.662001e-01 4.669990e-01 4.908027e-01 4.905925e-01 5.176151e-01 5.163371e-01 5.496628e-01 5.454557e-01 5.782289e-01 5.739193e-01 6.068270e-01 6.018892e-01 6.347137e-01 6.287611e-01 2.067239e-01 1.566904e-01 -2.325671e-01 -2.882422e-01 -6.873662e-01 -7.169523e-01 -1.156410e+00 -1.147256e+00 -1.128942e+00 -1.119445e+00 -1.100269e+00 -1.091681e+00 -1.071821e+00 -1.064755e+00 -1.044403e+00 -1.038350e+00 -1.017205e+00 -1.011102e+00 -9.889344e-01 -9.820059e-01 -9.593257e-01 -9.516220e-01 -9.296471e-01 -9.215629e-01 -9.011180e-01 -8.924727e-01 -8.737057e-01 -8.641050e-01 -8.468594e-01 -8.360118e-01 -8.199156e-01 -8.076234e-01 -7.921048e-01 -7.783065e-01 -7.629092e-01 -7.482196e-01 -7.328044e-01 -7.179271e-01 -7.020829e-01 -6.873597e-01 -6.701699e-01 -6.551142e-01 -6.351971e-01 -6.180471e-01 -5.972778e-01 -5.865514e-01 -5.644164e-01 -5.549517e-01 -5.337657e-01 -5.242724e-01 -5.046462e-01 -4.949163e-01 -4.756565e-01 -4.658491e-01 -4.458525e-01 -4.353675e-01 -4.113255e-01 -4.022175e-01 -3.744136e-01 -3.682109e-01 -3.453452e-01 -3.399170e-01 -3.178320e-01 -3.110508e-01 -2.890926e-01 -2.808648e-01 -2.594488e-01 -2.495914e-01 -2.286303e-01 -2.170828e-01 -1.968661e-01 -1.845519e-01 -1.656039e-01 -1.534517e-01 -1.356497e-01 -1.242991e-01 -1.071586e-01 -9.705467e-02 -7.961442e-02 -7.060424e-02 -5.146403e-02 -4.328738e-02 -2.156538e-02 -1.454401e-02 9.689531e-03 1.483451e-02 4.120884e-02 4.441666e-02 7.319648e-02 7.538907e-02 1.069018e-01 1.087084e-01 1.419925e-01 1.429095e-01 1.761516e-01 1.759042e-01 2.082094e-01 2.077030e-01 2.390762e-01 2.393409e-01 2.695805e-01 2.709659e-01 2.998302e-01 3.023915e-01 3.297934e-01 3.330856e-01 3.589795e-01 3.626630e-01 3.874239e-01 3.936218e-01 4.160285e-01 4.201184e-01 4.418104e-01 4.440060e-01 
3.877483e-01 3.919706e-01 4.113884e-01 4.150450e-01 4.363478e-01 4.395030e-01 4.632716e-01 4.651548e-01 4.902925e-01 4.919486e-01 5.176381e-01 5.204241e-01 5.456691e-01 5.517479e-01 1.345846e-01 1.273814e-01 -2.790186e-01 -2.894778e-01 -6.978237e-01 -7.011318e-01 -1.122612e+00 -1.111812e+00 -1.090460e+00 -1.083832e+00 -1.061015e+00 -1.056994e+00 -1.033381e+00 -1.031264e+00 -1.007255e+00 -1.006168e+00 -9.817375e-01 -9.806859e-01 -9.558558e-01 -9.541586e-01 -9.293676e-01 -9.268296e-01 -9.027931e-01 -8.994349e-01 -8.766989e-01 -8.723639e-01 -8.510439e-01 -8.454655e-01 -8.254690e-01 -8.185279e-01 -7.996089e-01 -7.912517e-01 -7.729817e-01 -7.633207e-01 -7.454137e-01 -7.350254e-01 -7.173793e-01 -7.068621e-01 -6.891065e-01 -6.786064e-01 -6.600094e-01 -6.491932e-01 -6.289625e-01 -6.168132e-01 -5.959782e-01 -5.859392e-01 -5.623552e-01 -5.545207e-01 -5.310052e-01 -5.231955e-01 -5.003146e-01 -4.916962e-01 -4.702860e-01 -4.623720e-01 -4.401133e-01 -4.334597e-01 -4.114525e-01 -4.078668e-01 -3.845604e-01 -3.807631e-01 -3.594150e-01 -3.550061e-01 -3.342122e-01 -3.283917e-01 -3.080295e-01 -3.008400e-01 -2.812483e-01 -2.727125e-01 -2.538904e-01 -2.440276e-01 -2.259624e-01 -2.152259e-01 -1.980004e-01 -1.870679e-01 -1.705303e-01 -1.599715e-01 -1.436190e-01 -1.338266e-01 -1.168793e-01 -1.079756e-01 -8.947716e-02 -8.151201e-02 -6.084204e-02 -5.416528e-02 -3.134246e-02 -2.648147e-02 -1.775483e-03 1.239729e-03 2.790495e-02 2.977891e-02 5.845593e-02 5.975615e-02 8.960818e-02 9.026493e-02 1.199307e-01 1.201008e-01 1.488221e-01 1.494009e-01 1.769633e-01 1.788282e-01 2.049107e-01 2.084338e-01 2.327486e-01 2.379883e-01 2.603959e-01 2.669273e-01 2.873982e-01 2.946418e-01 3.137216e-01 3.213516e-01 3.397774e-01 3.462109e-01 3.642578e-01 3.694112e-01 
4.672055e-01 4.683310e-01 4.937848e-01 4.938319e-01 5.214643e-01 5.204738e-01 5.505776e-01 5.485992e-01 5.796138e-01 5.776957e-01 6.088729e-01 6.081324e-01 6.387831e-01 6.411153e-01 1.971515e-01 1.796921e-01 -2.494270e-01 -2.706274e-01 -7.045571e-01 -7.123889e-01 -1.168368e+00 -1.151874e+00 -1.134824e+00 -1.122586e+00 -1.104035e+00 -1.094145e+00 -1.074535e+00 -1.066152e+00 -1.045864e+00 -1.038397e+00 -1.017636e+00 -1.010471e+00 -9.894106e-01 -9.820543e-01 -9.609987e-01 -9.531308e-01 -9.324035e-01 -9.237660e-01 -9.036019e-01 -8.940131e-01 -8.745715e-01 -8.639540e-01 -8.452617e-01 -8.336008e-01 -8.155636e-01 -8.029784e-01 -7.854525e-01 -7.721721e-01 -7.549449e-01 -7.412780e-01 -7.241087e-01 -7.103918e-01 -6.929918e-01 -6.794540e-01 -6.614454e-01 -6.481806e-01 -6.292868e-01 -6.164734e-01 -5.968462e-01 -5.850276e-01 -5.641052e-01 -5.534170e-01 -5.326399e-01 -5.222890e-01 -5.007626e-01 -4.907168e-01 -4.698260e-01 -4.601284e-01 -4.381112e-01 -4.290695e-01 -4.075187e-01 -3.995403e-01 -3.767877e-01 -3.687756e-01 -3.465694e-01 -3.385633e-01 -3.171261e-01 -3.088254e-01 -2.881705e-01 -2.793356e-01 -2.594291e-01 -2.499319e-01 -2.306746e-01 -2.205276e-01 -2.017448e-01 -1.910944e-01 -1.725104e-01 -1.616191e-01 -1.429010e-01 -1.321488e-01 -1.129376e-01 -1.027291e-01 -8.259397e-02 -7.323345e-02 -5.169215e-02 -4.339576e-02 -2.009448e-02 -1.312404e-02 1.200067e-02 1.740205e-02 4.429233e-02 4.815745e-02 7.676221e-02 7.935242e-02 1.094207e-01 1.109602e-01 1.419257e-01 1.425999e-01 1.738086e-01 1.739720e-01 2.049514e-01 2.051456e-01 2.355949e-01 2.363484e-01 2.660504e-01 2.676948e-01 2.964534e-01 2.990308e-01 3.266690e-01 3.299949e-01 3.564227e-01 3.602783e-01 3.854971e-01 3.897260e-01 4.137708e-01 4.172317e-01 4.408343e-01 4.431321e-01 
3.883249e-01 3.926857e-01 4.121386e-01 4.159458e-01 4.372432e-01 4.405728e-01 4.642655e-01 4.663419e-01 4.912734e-01 4.931630e-01 5.185032e-01 5.216689e-01 5.464262e-01 5.531090e-01 1.349295e-01 1.282470e-01 -2.790410e-01 -2.889609e-01 -6.981773e-01 -7.007999e-01 -1.123422e+00 -1.111778e+00 -1.091662e+00 -1.084854e+00 -1.063007e+00 -1.058703e+00 -1.035388e+00 -1.032636e+00 -1.008656e+00 -1.006942e+00 -9.827096e-01 -9.812568e-01 -9.570018e-01 -9.552634e-01 -9.314189e-01 -9.289952e-01 -9.056784e-01 -9.019643e-01 -8.791488e-01 -8.739322e-01 -8.519039e-01 -8.453416e-01 -8.241803e-01 -8.162683e-01 -7.958382e-01 -7.868548e-01 -7.671818e-01 -7.575574e-01 -7.384835e-01 -7.285390e-01 -7.098038e-01 -6.999024e-01 -6.812429e-01 -6.715214e-01 -6.524030e-01 -6.428153e-01 -6.229466e-01 -6.137333e-01 -5.932248e-01 -5.848803e-01 -5.634854e-01 -5.557326e-01 -5.334811e-01 -5.258969e-01 -5.032321e-01 -4.959399e-01 -4.733483e-01 -4.665456e-01 -4.439611e-01 -4.376131e-01 -4.150711e-01 -4.089520e-01 -3.864355e-01 -3.800297e-01 -3.582771e-01 -3.517040e-01 -3.313545e-01 -3.246031e-01 -3.056484e-01 -2.982858e-01 -2.804690e-01 -2.723400e-01 -2.555733e-01 -2.467739e-01 -2.306987e-01 -2.210718e-01 -2.049424e-01 -1.944938e-01 -1.778130e-01 -1.670327e-01 -1.495445e-01 -1.390955e-01 -1.205433e-01 -1.109861e-01 -9.095295e-02 -8.252761e-02 -6.058016e-02 -5.365433e-02 -2.994555e-02 -2.498629e-02 3.561243e-04 3.573324e-03 3.071407e-02 3.268916e-02 6.121724e-02 6.200972e-02 9.096483e-02 9.076318e-02 1.194153e-01 1.189678e-01 1.469728e-01 1.471728e-01 1.741749e-01 1.757777e-01 2.015945e-01 2.051783e-01 2.296147e-01 2.351323e-01 2.578601e-01 2.648069e-01 2.857849e-01 2.935356e-01 3.130640e-01 3.210453e-01 3.397477e-01 3.464037e-01 3.646009e-01 3.699103e-01 
4.673273e-01 4.684115e-01 4.922794e-01 4.924076e-01 5.194364e-01 5.185321e-01 5.516945e-01 5.477514e-01 5.799716e-01 5.759035e-01 6.080464e-01 6.036778e-01 6.356239e-01 6.309662e-01 2.073665e-01 1.582797e-01 -2.320801e-01 -2.872445e-01 -6.870257e-01 -7.169296e-01 -1.156395e+00 -1.149294e+00 -1.130232e+00 -1.122531e+00 -1.102775e+00 -1.094866e+00 -1.073971e+00 -1.066619e+00 -1.045564e+00 -1.039139e+00 -1.018061e+00 -1.011802e+00 -9.906324e-01 -9.841337e-01 -9.634060e-01 -9.564062e-01 -9.359849e-01 -9.275226e-01 -9.070014e-01 -8.967784e-01 -8.765548e-01 -8.649801e-01 -8.452175e-01 -8.322666e-01 -8.128642e-01 -7.990699e-01 -7.803865e-01 -7.663897e-01 -7.482960e-01 -7.343052e-01 -7.165367e-01 -7.030627e-01 -6.856171e-01 -6.728876e-01 -6.551639e-01 -6.429842e-01 -6.246171e-01 -6.132455e-01 -5.944312e-01 -5.841596e-01 -5.646637e-01 -5.548600e-01 -5.341033e-01 -5.243156e-01 -5.026289e-01 -4.932362e-01 -4.712206e-01 -4.622547e-01 -4.399550e-01 -4.311807e-01 -4.086207e-01 -3.995880e-01 -3.767033e-01 -3.671508e-01 -3.446958e-01 -3.353121e-01 -3.144666e-01 -3.056055e-01 -2.863884e-01 -2.774608e-01 -2.594609e-01 -2.502744e-01 -2.334189e-01 -2.240884e-01 -2.078413e-01 -1.978051e-01 -1.809167e-01 -1.697668e-01 -1.515678e-01 -1.397966e-01 -1.202369e-01 -1.087069e-01 -8.780634e-02 -7.723086e-02 -5.470396e-02 -4.524020e-02 -2.061405e-02 -1.272124e-02 1.352500e-02 1.905269e-02 4.666197e-02 5.014036e-02 7.957234e-02 8.166495e-02 1.125528e-01 1.130850e-01 1.443467e-01 1.433612e-01 1.744256e-01 1.728345e-01 2.036908e-01 2.024725e-01 2.328665e-01 2.327823e-01 2.627315e-01 2.644683e-01 2.938282e-01 2.971620e-01 3.253933e-01 3.296311e-01 3.565738e-01 3.612199e-01 3.867204e-01 3.934658e-01 4.162481e-01 4.206780e-01 4.425602e-01 4.450273e-01 
3.885261e-01 3.914475e-01 4.076502e-01 4.112753e-01 4.302972e-01 4.368595e-01 4.651761e-01 4.632388e-01 4.912717e-01 4.874961e-01 5.163196e-01 5.107801e-01 5.393937e-01 5.310987e-01 1.451683e-01 9.849786e-02 -2.583985e-01 -3.099190e-01 -6.740964e-01 -7.039123e-01 -1.099411e+00 -1.101696e+00 -1.080894e+00 -1.082998e+00 -1.060941e+00 -1.060107e+00 -1.033857e+00 -1.032514e+00 -1.006915e+00 -1.007682e+00 -9.827234e-01 -9.830555e-01 -9.576470e-01 -9.574656e-01 -9.340995e-01 -9.342101e-01 -9.117200e-01 -9.084977e-01 -8.844600e-01 -8.777339e-01 -8.546790e-01 -8.471480e-01 -8.253658e-01 -8.153698e-01 -7.933244e-01 -7.819939e-01 -7.615494e-01 -7.506780e-01 -7.314786e-01 -7.205256e-01 -7.017530e-01 -6.919206e-01 -6.744956e-01 -6.657387e-01 -6.472639e-01 -6.379407e-01 -6.179915e-01 -6.097401e-01 -5.905396e-01 -5.849997e-01 -5.656760e-01 -5.596961e-01 -5.369359e-01 -5.290818e-01 -5.046866e-01 -4.979339e-01 -4.744250e-01 -4.688707e-01 -4.458199e-01 -4.406833e-01 -4.176763e-01 -4.110841e-01 -3.864015e-01 -3.769106e-01 -3.521966e-01 -3.435047e-01 -3.236324e-01 -3.176805e-01 -3.011624e-01 -2.942455e-01 -2.785556e-01 -2.704480e-01 -2.571723e-01 -2.500638e-01 -2.389628e-01 -2.304211e-01 -2.173772e-01 -2.054512e-01 -1.896525e-01 -1.759982e-01 -1.584016e-01 -1.450536e-01 -1.265643e-01 -1.153931e-01 -9.555827e-02 -8.520266e-02 -6.136539e-02 -5.232337e-02 -2.721647e-02 -2.305866e-02 2.263340e-03 3.680757e-03 3.294326e-02 3.477911e-02 6.700173e-02 6.653007e-02 9.751077e-02 9.345567e-02 1.224729e-01 1.178321e-01 1.465450e-01 1.433439e-01 1.705159e-01 1.695438e-01 1.958727e-01 1.997069e-01 2.255713e-01 2.333876e-01 2.565846e-01 2.664483e-01 2.866951e-01 2.972297e-01 3.145830e-01 3.290789e-01 3.469185e-01 3.539218e-01 3.694217e-01 3.733347e-01 
4.664436e-01 4.658086e-01 4.816556e-01 4.821231e-01 4.964403e-01 5.009362e-01 5.665300e-01 5.492036e-01 5.774575e-01 5.729612e-01 6.043234e-01 5.977723e-01 6.296432e-01 6.034531e-01 2.676765e-01 4.095390e-02 -1.356120e-01 -3.434171e-01 -5.817437e-01 -6.776584e-01 -1.105616e+00 -1.103476e+00 -1.086991e+00 -1.080803e+00 -1.061487e+00 -1.052437e+00 -1.028178e+00 -1.020753e+00 -9.994577e-01 -9.966230e-01 -9.762801e-01 -9.725385e-01 -9.504427e-01 -9.460361e-01 -9.266186e-01 -9.237391e-01 -9.053757e-01 -8.985878e-01 -8.772257e-01 -8.657596e-01 -8.446217e-01 -8.323771e-01 -8.119635e-01 -7.963757e-01 -7.748113e-01 -7.582477e-01 -7.391118e-01 -7.241183e-01 -7.062288e-01 -6.906461e-01 -6.725575e-01 -6.588809e-01 -6.434726e-01 -6.325466e-01 -6.168542e-01 -6.056595e-01 -5.879297e-01 -5.776044e-01 -5.607463e-01 -5.542270e-01 -5.383243e-01 -5.312797e-01 -5.102435e-01 -5.005506e-01 -4.776476e-01 -4.691765e-01 -4.464864e-01 -4.392922e-01 -4.172347e-01 -4.103966e-01 -3.873901e-01 -3.784428e-01 -3.535928e-01 -3.410917e-01 -3.154486e-01 -3.042170e-01 -2.840339e-01 -2.765883e-01 -2.601168e-01 -2.522543e-01 -2.369025e-01 -2.285651e-01 -2.161971e-01 -2.099845e-01 -2.003249e-01 -1.927852e-01 -1.800740e-01 -1.678186e-01 -1.506116e-01 -1.356141e-01 -1.160005e-01 -1.014443e-01 -8.108966e-02 -6.897207e-02 -4.718156e-02 -3.522200e-02 -8.484963e-03 2.570998e-03 3.003006e-02 3.492568e-02 6.129063e-02 6.255960e-02 9.287706e-02 9.476724e-02 1.285503e-01 1.279442e-01 1.603881e-01 1.552007e-01 1.854723e-01 1.791045e-01 2.097614e-01 2.045168e-01 2.343160e-01 2.311212e-01 2.616220e-01 2.636666e-01 2.952110e-01 3.006661e-01 3.302299e-01 3.357051e-01 3.643685e-01 3.611169e-01 3.936181e-01 4.178224e-01 4.309479e-01 4.352111e-01 4.501486e-01 4.505471e-01 
3.881867e-01 3.828885e-01 3.882959e-01 3.823387e-01 3.826547e-01 3.741792e-01 4.413473e-01 4.199451e-01 4.182328e-01 4.281492e-01 4.217582e-01 4.368548e-01 4.256747e-01 4.183924e-01 3.124498e-01 2.626672e-01 1.935152e-01 1.472874e-01 6.143593e-02 4.700678e-02 -8.117972e-02 -8.513614e-02 -8.127672e-02 -7.281658e-02 -6.573604e-02 -5.885669e-02 -5.335519e-02 -5.150735e-02 -4.827266e-02 -4.982886e-02 -4.563750e-02 -4.769088e-02 -4.099473e-02 -4.339103e-02 -3.506105e-02 -3.854788e-02 -2.918226e-02 -3.370337e-02 -2.307580e-02 -2.706300e-02 -1.367410e-02 -1.603563e-02 -3.111397e-04 -1.623828e-03 1.475991e-02 1.294279e-02 2.857044e-02 2.631270e-02 4.206088e-02 4.110351e-02 5.709112e-02 5.591485e-02 6.967685e-02 6.626320e-02 7.641875e-02 7.144112e-02 8.046629e-02 7.686024e-02 8.645641e-02 8.385919e-02 9.168698e-02 8.879157e-02 9.616423e-02 9.274605e-02 9.898990e-02 9.673153e-02 1.050518e-01 1.039444e-01 1.121007e-01 1.114876e-01 1.208541e-01 1.198509e-01 1.269065e-01 1.240336e-01 1.312553e-01 1.286077e-01 1.386260e-01 1.373163e-01 1.486532e-01 1.454833e-01 1.554512e-01 1.501139e-01 1.603829e-01 1.550510e-01 1.662027e-01 1.605674e-01 1.718926e-01 1.667841e-01 1.792386e-01 1.758432e-01 1.886632e-01 1.866015e-01 1.993874e-01 1.999183e-01 2.126338e-01 2.152866e-01 2.263550e-01 2.304915e-01 2.400262e-01 2.459362e-01 2.535699e-01 2.591775e-01 2.631597e-01 2.668433e-01 2.693073e-01 2.734938e-01 2.780860e-01 2.828519e-01 2.901899e-01 2.931814e-01 3.031203e-01 3.030597e-01 3.171639e-01 3.139229e-01 3.329147e-01 3.249032e-01 3.478636e-01 3.341374e-01 3.613028e-01 3.414956e-01 3.743239e-01 3.393182e-01 3.827636e-01 3.893413e-01 3.888520e-01 3.822152e-01 3.871455e-01 3.815532e-01 
4.684255e-01 4.571720e-01 4.700367e-01 4.577189e-01 4.687765e-01 4.517843e-01 4.859297e-01 4.749156e-01 4.724106e-01 4.832482e-01 4.711982e-01 4.915914e-01 4.746340e-01 4.932787e-01 4.463329e-01 4.530456e-01 4.196878e-01 4.264714e-01 3.888188e-01 4.029427e-01 3.510379e-01 3.680758e-01 3.608320e-01 3.820708e-01 3.749571e-01 3.904004e-01 3.786263e-01 3.887990e-01 3.777213e-01 3.864689e-01 3.777734e-01 3.841070e-01 3.774471e-01 3.819635e-01 3.798126e-01 3.836472e-01 3.843827e-01 3.839955e-01 3.850031e-01 3.814848e-01 3.863389e-01 3.835366e-01 3.920044e-01 3.875383e-01 3.964607e-01 3.905158e-01 4.008461e-01 3.952372e-01 4.066923e-01 4.014531e-01 4.129123e-01 4.084172e-01 4.194657e-01 4.144000e-01 4.214860e-01 4.142807e-01 4.183010e-01 4.123926e-01 4.169177e-01 4.140339e-01 4.169291e-01 4.129952e-01 4.119232e-01 4.053086e-01 4.017903e-01 3.970429e-01 3.962553e-01 3.935184e-01 3.934143e-01 3.916866e-01 3.930348e-01 3.898335e-01 3.879154e-01 3.805598e-01 3.788495e-01 3.722698e-01 3.775148e-01 3.741927e-01 3.836725e-01 3.776427e-01 3.870339e-01 3.780179e-01 3.901448e-01 3.821157e-01 3.974117e-01 3.879591e-01 4.018487e-01 3.896579e-01 4.020245e-01 3.897953e-01 4.013109e-01 3.910601e-01 4.023020e-01 3.965812e-01 4.067724e-01 4.034959e-01 4.085369e-01 4.075451e-01 4.104368e-01 4.155258e-01 4.172522e-01 4.244849e-01 4.200557e-01 4.246266e-01 4.166234e-01 4.225905e-01 4.181950e-01 4.268167e-01 4.277328e-01 4.341474e-01 4.388681e-01 4.399283e-01 4.510321e-01 4.456998e-01 4.628546e-01 4.473527e-01 4.693650e-01 4.442886e-01 4.730719e-01 4.410662e-01 4.762329e-01 4.371949e-01 4.776708e-01 4.579083e-01 4.702198e-01 4.537278e-01 4.672906e-01 4.547594e-01 
3.902700e-01 3.801713e-01 3.894146e-01 3.796825e-01 3.891194e-01 3.788145e-01 3.906479e-01 3.870205e-01 3.859622e-01 3.927623e-01 3.830830e-01 3.965788e-01 3.824438e-01 3.984251e-01 3.844192e-01 4.034153e-01 3.893310e-01 4.079320e-01 3.955855e-01 4.113897e-01 4.020171e-01 4.140484e-01 4.069334e-01 4.178738e-01 4.116936e-01 4.192354e-01 4.121702e-01 4.168632e-01 4.111978e-01 4.144641e-01 4.106784e-01 4.117981e-01 4.097225e-01 4.089511e-01 4.098497e-01 4.078295e-01 4.112001e-01 4.066310e-01 4.114345e-01 4.048067e-01 4.122734e-01 4.051895e-01 4.150073e-01 4.066192e-01 4.172431e-01 4.077972e-01 4.193061e-01 4.096804e-01 4.216248e-01 4.120194e-01 4.237604e-01 4.146792e-01 4.258691e-01 4.168344e-01 4.256386e-01 4.159130e-01 4.223394e-01 4.133595e-01 4.189446e-01 4.120520e-01 4.161742e-01 4.094291e-01 4.110508e-01 4.034170e-01 4.034853e-01 3.966376e-01 3.971783e-01 3.911831e-01 3.916145e-01 3.858958e-01 3.862436e-01 3.798901e-01 3.791628e-01 3.714147e-01 3.716880e-01 3.641140e-01 3.680351e-01 3.613033e-01 3.678609e-01 3.597589e-01 3.673439e-01 3.577779e-01 3.671837e-01 3.576409e-01 3.687332e-01 3.584571e-01 3.691978e-01 3.579851e-01 3.680325e-01 3.573615e-01 3.667410e-01 3.579008e-01 3.664534e-01 3.606253e-01 3.674957e-01 3.639576e-01 3.672595e-01 3.661580e-01 3.671969e-01 3.701756e-01 3.696384e-01 3.748941e-01 3.710222e-01 3.758900e-01 3.699612e-01 3.752187e-01 3.709495e-01 3.766980e-01 3.759803e-01 3.796817e-01 3.826266e-01 3.819587e-01 3.898195e-01 3.834579e-01 3.962775e-01 3.824782e-01 3.998182e-01 3.791841e-01 4.013628e-01 3.761982e-01 4.018215e-01 3.754422e-01 4.008763e-01 3.808423e-01 3.953397e-01 3.805156e-01 3.919837e-01 3.803030e-01 
