# vtk DataFile Version 2.0
Comment goes here
ASCII

DATASET STRUCTURED_POINTS
FIELD FieldData 1
TIME 1 1 double
0.52000000
DIMENSIONS    128   16   1

ORIGIN    0.000   0.000   0.000
SPACING   0.0078125 0.015625   1.000

POINT_DATA   2048
SCALARS uMag double
LOOKUP_TABLE default

7.055392e-03 3.180287e-03 5.860045e-03 2.503103e-04 4.198178e-03 2.793898e-03 1.025071e-02 1.822563e-03 4.616853e-03 5.047229e-03 3.801394e-03 1.415814e-02 2.159618e-02 3.716147e-02 4.595358e-02 4.838313e-02 5.278108e-02 5.100420e-02 5.001804e-02 4.430727e-02 3.834438e-02 1.990692e-02 1.422940e-02 4.499255e-03 3.950870e-03 1.662591e-03 3.532641e-04 4.153815e-03 2.179901e-03 5.073131e-03 2.971887e-03 5.314120e-03 3.347247e-03 5.260629e-03 3.562390e-03 5.077783e-03 3.713146e-03 4.842200e-03 3.830877e-03 4.599945e-03 3.924423e-03 4.382055e-03 3.992766e-03 4.207823e-03 4.034826e-03 4.090934e-03 4.063212e-03 4.050728e-03 4.119497e-03 4.129804e-03 4.291688e-03 4.420089e-03 4.749546e-03 5.138831e-03 5.891691e-03 6.845919e-03 8.040322e-03 7.905243e-03 5.579973e-03 2.896885e-03 2.875456e-03 6.382407e-03 6.375196e-03 2.485477e-03 3.543729e-03 6.682618e-03 6.789906e-03 3.547663e-03 3.570209e-03 8.584347e-03 9.494733e-03 6.449037e-03 5.265823e-03 5.672706e-03 4.116405e-03 4.635695e-03 3.330738e-03 4.211311e-03 2.964402e-03 4.005259e-03 2.766005e-03 3.861582e-03 2.674749e-03 3.724540e-03 2.673916e-03 3.567587e-03 2.754550e-03 3.375709e-03 2.902974e-03 3.141090e-03 3.101003e-03 2.869010e-03 3.330087e-03 2.580636e-03 3.567325e-03 2.305320e-03 3.779711e-03 2.075702e-03 3.927670e-03 1.928384e-03 3.972133e-03 1.900587e-03 3.880918e-03 2.024389e-03 3.634471e-03 2.319561e-03 3.229226e-03 2.784156e-03 2.679137e-03 3.389364e-03 2.023326e-03 4.085122e-03 1.338480e-03 4.809094e-03 7.508240e-04 5.492965e-03 4.562964e-04 6.061059e-03 7.698195e-04 6.401656e-03 2.259026e-03 6.228217e-03 6.231452e-03 3.927351e-04 5.310647e-03 2.310319e-03 6.708836e-03 3.836931e-03 
2.921090e-03 1.213506e-03 3.208525e-03 3.610637e-03 3.679587e-03 9.767188e-03 8.094311e-03 6.407262e-03 4.706548e-03 8.633542e-03 9.141013e-03 1.786431e-02 2.379394e-02 2.435407e-02 1.143413e-02 7.092029e-03 2.930583e-03 3.793368e-03 6.962019e-03 1.166655e-02 2.469256e-02 2.435690e-02 1.568244e-02 1.031216e-02 6.378737e-03 4.306427e-03 2.683024e-03 2.069546e-03 1.106319e-03 1.487412e-03 4.332657e-04 1.375463e-03 1.368720e-04 1.276603e-03 1.058975e-04 1.118983e-03 2.207160e-04 9.179867e-04 3.182135e-04 7.022995e-04 3.887828e-04 5.081945e-04 4.497449e-04 3.691657e-04 5.049814e-04 3.084539e-04 5.764339e-04 4.210791e-04 7.694789e-04 8.029758e-04 1.231873e-03 1.576270e-03 2.197741e-03 3.122507e-03 4.236538e-03 5.078858e-03 2.467396e-03 5.422027e-03 1.107167e-02 6.041092e-03 7.126663e-03 7.743123e-03 8.236799e-03 6.183659e-03 9.336874e-03 7.807203e-03 6.187984e-03 6.079343e-03 1.110320e-02 1.356740e-02 6.935579e-03 9.728369e-03 3.033668e-03 3.599108e-03 2.770902e-03 2.179291e-03 1.592943e-03 1.156060e-03 1.305009e-03 6.707537e-04 1.189506e-03 3.634562e-04 1.092369e-03 1.800687e-04 9.860326e-04 2.155165e-04 8.564417e-04 3.910329e-04 7.032155e-04 6.182116e-04 5.297683e-04 8.797851e-04 3.723507e-04 1.158691e-03 3.068222e-04 1.416213e-03 3.913095e-04 1.629726e-03 4.962025e-04 1.775865e-03 5.241639e-04 1.815584e-03 4.529144e-04 1.713112e-03 3.435484e-04 1.457266e-03 4.750404e-04 1.076831e-03 9.194852e-04 7.233925e-04 1.510304e-03 8.301060e-04 2.154068e-03 1.378367e-03 2.718207e-03 2.052999e-03 3.039214e-03 2.749068e-03 2.873165e-03 3.521009e-03 1.800903e-03 4.875049e-03 6.014757e-03 6.627662e-03 2.443093e-03 2.132482e-03 3.185704e-03 4.213374e-04 
1.040105e-02 8.434917e-03 8.969897e-03 6.886276e-03 1.038388e-02 2.548441e-02 9.910165e-03 1.483741e-02 3.388415e-03 1.067521e-02 1.155973e-03 1.081220e-02 1.100182e-02 1.710402e-02 2.072270e-02 2.109909e-02 2.222546e-02 2.274507e-02 2.060911e-02 2.028654e-02 1.773745e-02 9.286494e-03 5.055840e-03 2.756613e-03 5.809222e-03 5.036001e-03 8.195583e-03 6.694117e-03 9.460874e-03 7.502307e-03 1.009112e-02 7.938139e-03 1.036554e-02 8.225108e-03 1.044236e-02 8.493305e-03 1.042546e-02 8.787442e-03 1.036396e-02 9.113669e-03 1.029725e-02 9.444315e-03 1.022899e-02 9.747992e-03 1.022035e-02 1.008214e-02 1.037048e-02 1.050674e-02 1.074825e-02 1.109939e-02 1.144921e-02 1.202245e-02 1.267014e-02 1.365965e-02 1.490230e-02 1.648149e-02 1.822759e-02 1.785448e-02 1.377755e-02 1.048686e-02 9.832223e-03 1.721978e-02 1.559051e-02 1.004774e-02 1.287895e-02 1.781996e-02 1.690251e-02 1.272657e-02 1.532533e-02 2.326806e-02 2.390326e-02 1.880577e-02 1.693516e-02 1.527852e-02 1.469145e-02 1.262225e-02 1.306558e-02 1.133816e-02 1.234623e-02 1.071829e-02 1.195283e-02 1.039638e-02 1.171386e-02 1.025775e-02 1.153395e-02 1.023513e-02 1.135923e-02 1.032563e-02 1.117624e-02 1.051531e-02 1.095137e-02 1.078033e-02 1.069143e-02 1.110011e-02 1.038926e-02 1.141093e-02 1.007017e-02 1.169829e-02 9.815569e-03 1.194677e-02 9.672468e-03 1.210208e-02 9.668963e-03 1.210901e-02 9.826055e-03 1.194397e-02 1.016513e-02 1.160420e-02 1.066679e-02 1.110546e-02 1.131447e-02 1.052375e-02 1.208767e-02 9.894773e-03 1.290351e-02 9.300403e-03 1.373761e-02 8.940467e-03 1.459379e-02 9.259394e-03 1.549021e-02 1.204014e-02 2.449929e-02 1.420685e-02 1.010024e-02 4.450409e-03 9.983479e-03 8.523732e-03 
9.638664e-03 1.287256e-02 1.772636e-02 2.602331e-02 3.647067e-02 1.521582e-02 2.811649e-02 2.052419e-02 2.334388e-02 2.122876e-02 2.111831e-02 2.164751e-02 1.827664e-02 2.386441e-02 2.156011e-02 2.585252e-02 2.248875e-02 2.632406e-02 2.213159e-02 2.496269e-02 2.026877e-02 2.052219e-02 1.998973e-02 2.109626e-02 2.040377e-02 2.130727e-02 2.100464e-02 2.135504e-02 2.152676e-02 2.128605e-02 2.192304e-02 2.117261e-02 2.219457e-02 2.106697e-02 2.236048e-02 2.101058e-02 2.243920e-02 2.102178e-02 2.243814e-02 2.110449e-02 2.236733e-02 2.124644e-02 2.223361e-02 2.142535e-02 2.207530e-02 2.164316e-02 2.194642e-02 2.189477e-02 2.189449e-02 2.217150e-02 2.196862e-02 2.248909e-02 2.222607e-02 2.295312e-02 2.276689e-02 2.353727e-02 2.193012e-02 2.130591e-02 2.213573e-02 2.400788e-02 2.264265e-02 2.451651e-02 2.523219e-02 2.387129e-02 2.556136e-02 2.608398e-02 2.652858e-02 2.646295e-02 2.692750e-02 2.902817e-02 2.912008e-02 2.798394e-02 2.743734e-02 2.557525e-02 2.515756e-02 2.377099e-02 2.379149e-02 2.287848e-02 2.312251e-02 2.239413e-02 2.277989e-02 2.209936e-02 2.260520e-02 2.190929e-02 2.251294e-02 2.178218e-02 2.245711e-02 2.171248e-02 2.241437e-02 2.170099e-02 2.235573e-02 2.174510e-02 2.226947e-02 2.184378e-02 2.213893e-02 2.197519e-02 2.197105e-02 2.213109e-02 2.179176e-02 2.231282e-02 2.161394e-02 2.250681e-02 2.145018e-02 2.269598e-02 2.131306e-02 2.287287e-02 2.121433e-02 2.302968e-02 2.115295e-02 2.316174e-02 2.112756e-02 2.327557e-02 2.116155e-02 2.334856e-02 2.127217e-02 2.338904e-02 2.153141e-02 2.340536e-02 2.212240e-02 2.332638e-02 2.354511e-02 2.296635e-02 3.055436e-02 3.553325e-02 3.768914e-02 1.684341e-02 1.331066e-02 1.016469e-02 
3.273947e-02 3.671738e-02 3.882831e-02 4.913312e-02 5.927009e-02 5.558534e-02 2.756999e-02 3.913834e-02 2.693335e-02 3.415483e-02 2.507206e-02 2.904147e-02 1.846506e-02 2.258271e-02 2.147026e-02 2.234020e-02 2.244828e-02 2.210325e-02 2.268835e-02 2.169772e-02 2.230176e-02 2.048150e-02 2.765332e-02 2.664332e-02 3.094409e-02 2.969765e-02 3.252052e-02 3.128129e-02 3.327416e-02 3.215189e-02 3.360130e-02 3.267688e-02 3.368787e-02 3.302872e-02 3.365402e-02 3.331661e-02 3.358948e-02 3.357780e-02 3.353682e-02 3.381896e-02 3.352654e-02 3.401854e-02 3.354832e-02 3.415530e-02 3.364370e-02 3.429838e-02 3.388405e-02 3.452367e-02 3.430271e-02 3.491687e-02 3.494815e-02 3.561913e-02 3.594368e-02 3.693815e-02 3.767434e-02 3.917488e-02 3.821343e-02 3.584136e-02 3.679260e-02 3.657243e-02 3.407655e-02 4.033725e-02 4.003888e-02 3.718833e-02 3.799911e-02 4.327451e-02 4.315975e-02 4.193646e-02 4.178352e-02 4.791338e-02 5.049327e-02 4.617718e-02 4.408117e-02 4.195424e-02 3.995365e-02 3.822500e-02 3.753611e-02 3.638028e-02 3.631365e-02 3.542121e-02 3.561440e-02 3.490700e-02 3.518284e-02 3.465479e-02 3.488028e-02 3.455622e-02 3.463305e-02 3.458291e-02 3.442061e-02 3.470342e-02 3.420705e-02 3.488291e-02 3.399570e-02 3.509680e-02 3.377475e-02 3.528507e-02 3.355944e-02 3.543889e-02 3.341806e-02 3.554966e-02 3.338510e-02 3.557173e-02 3.347677e-02 3.545840e-02 3.370694e-02 3.519218e-02 3.409720e-02 3.477701e-02 3.463648e-02 3.423648e-02 3.532299e-02 3.366246e-02 3.614799e-02 3.312089e-02 3.704596e-02 3.272445e-02 3.801206e-02 3.268777e-02 3.904684e-02 3.335914e-02 3.996709e-02 3.564763e-02 4.013160e-02 6.962380e-02 5.106373e-02 4.345263e-02 3.460753e-02 3.538936e-02 
3.699509e-02 3.896786e-02 4.064664e-02 4.578219e-02 5.327940e-02 6.458464e-02 5.956035e-02 6.058727e-02 5.529921e-02 5.765120e-02 5.248301e-02 5.426771e-02 4.655084e-02 4.633957e-02 4.610814e-02 4.628198e-02 4.625141e-02 4.620350e-02 4.633329e-02 4.614189e-02 4.631225e-02 4.664895e-02 5.182913e-02 5.191133e-02 5.477493e-02 5.465526e-02 5.670581e-02 5.614247e-02 5.786287e-02 5.690486e-02 5.851531e-02 5.729840e-02 5.884626e-02 5.752314e-02 5.898560e-02 5.770764e-02 5.902625e-02 5.790687e-02 5.901632e-02 5.813870e-02 5.899260e-02 5.839044e-02 5.896355e-02 5.864511e-02 5.897932e-02 5.894752e-02 5.912023e-02 5.934029e-02 5.943773e-02 5.986403e-02 5.997483e-02 6.058042e-02 6.077447e-02 6.161974e-02 6.189195e-02 6.286166e-02 6.205646e-02 6.080608e-02 6.283586e-02 6.496470e-02 6.375977e-02 6.456788e-02 6.440787e-02 6.598833e-02 6.669845e-02 6.534018e-02 6.504823e-02 6.755546e-02 6.704152e-02 6.563616e-02 6.511533e-02 6.757074e-02 6.762837e-02 6.541592e-02 6.462614e-02 6.263619e-02 6.253130e-02 6.107304e-02 6.138089e-02 6.016632e-02 6.069369e-02 5.961217e-02 6.026451e-02 5.928392e-02 5.997375e-02 5.910394e-02 5.974992e-02 5.905167e-02 5.956130e-02 5.910492e-02 5.936674e-02 5.923980e-02 5.915821e-02 5.943665e-02 5.892291e-02 5.964734e-02 5.867203e-02 5.986009e-02 5.846148e-02 6.006041e-02 5.832250e-02 6.020615e-02 5.827039e-02 6.025480e-02 5.831733e-02 6.018705e-02 5.848173e-02 6.000138e-02 5.876002e-02 5.971163e-02 5.916134e-02 5.938240e-02 5.968981e-02 5.906207e-02 6.031372e-02 5.882777e-02 6.105899e-02 5.882225e-02 6.200112e-02 5.922745e-02 6.332974e-02 6.031653e-02 6.695799e-02 6.341980e-02 4.805160e-02 4.451483e-02 3.890427e-02 3.862377e-02 
4.768757e-02 4.957994e-02 4.930180e-02 5.276735e-02 5.390826e-02 5.971351e-02 6.258277e-02 6.384841e-02 6.203264e-02 6.466411e-02 6.275013e-02 6.651924e-02 6.496471e-02 6.349037e-02 6.320560e-02 6.341774e-02 6.337918e-02 6.331842e-02 6.348054e-02 6.323045e-02 6.346843e-02 6.446931e-02 6.480333e-02 6.313536e-02 6.337677e-02 6.253588e-02 6.314208e-02 6.238064e-02 6.320759e-02 6.235601e-02 6.332941e-02 6.238101e-02 6.342812e-02 6.243883e-02 6.348626e-02 6.253343e-02 6.350927e-02 6.266732e-02 6.350733e-02 6.283808e-02 6.349394e-02 6.303841e-02 6.348325e-02 6.326255e-02 6.349950e-02 6.351535e-02 6.357188e-02 6.379804e-02 6.371625e-02 6.409655e-02 6.392180e-02 6.436467e-02 6.412246e-02 6.446833e-02 6.410198e-02 6.425375e-02 6.539148e-02 6.824469e-02 6.572676e-02 6.520346e-02 6.601489e-02 6.413353e-02 6.295614e-02 6.529360e-02 6.381915e-02 6.275999e-02 6.183994e-02 6.278479e-02 6.279262e-02 6.098800e-02 5.913878e-02 6.122592e-02 6.227751e-02 6.313794e-02 6.418866e-02 6.427167e-02 6.474545e-02 6.442561e-02 6.474294e-02 6.428045e-02 6.458041e-02 6.407967e-02 6.439335e-02 6.391410e-02 6.422017e-02 6.381161e-02 6.406299e-02 6.377950e-02 6.391400e-02 6.381351e-02 6.376118e-02 6.390301e-02 6.359968e-02 6.403297e-02 6.342970e-02 6.418180e-02 6.326219e-02 6.433190e-02 6.311938e-02 6.446518e-02 6.302012e-02 6.455897e-02 6.297782e-02 6.459228e-02 6.300132e-02 6.455297e-02 6.309500e-02 6.443886e-02 6.325395e-02 6.425793e-02 6.346657e-02 6.402969e-02 6.370782e-02 6.377208e-02 6.393027e-02 6.350315e-02 6.407106e-02 6.323931e-02 6.405276e-02 6.298188e-02 6.385784e-02 6.267367e-02 6.418307e-02 5.803082e-02 5.393186e-02 5.197694e-02 4.913755e-02 4.929271e-02 
4.722604e-02 4.831998e-02 4.871153e-02 5.104458e-02 5.238074e-02 5.557514e-02 5.706879e-02 5.935319e-02 6.045770e-02 6.233181e-02 6.514671e-02 6.712224e-02 7.428354e-02 7.404075e-02 7.394355e-02 7.402585e-02 7.399599e-02 7.399404e-02 7.403137e-02 7.395774e-02 7.403740e-02 7.416669e-02 6.812545e-02 6.671287e-02 6.383443e-02 6.282780e-02 6.171795e-02 6.074904e-02 6.068228e-02 5.965607e-02 6.019806e-02 5.909982e-02 5.997263e-02 5.884083e-02 5.985755e-02 5.875549e-02 5.978358e-02 5.877648e-02 5.972070e-02 5.886254e-02 5.965850e-02 5.898354e-02 5.959446e-02 5.911544e-02 5.953095e-02 5.923799e-02 5.946512e-02 5.932126e-02 5.937211e-02 5.931141e-02 5.918992e-02 5.911205e-02 5.879736e-02 5.854353e-02 5.796597e-02 5.743305e-02 5.763714e-02 5.911847e-02 5.823139e-02 5.856796e-02 5.907413e-02 5.847648e-02 5.790427e-02 5.877043e-02 5.786045e-02 5.817157e-02 5.780044e-02 5.756834e-02 5.758328e-02 5.740505e-02 5.673308e-02 5.609908e-02 5.662167e-02 5.756118e-02 5.885267e-02 5.902086e-02 5.986782e-02 5.952269e-02 6.022583e-02 5.966185e-02 6.032572e-02 5.967908e-02 6.031987e-02 5.967355e-02 6.026497e-02 5.968603e-02 6.018039e-02 5.973459e-02 6.007295e-02 5.982404e-02 5.994453e-02 5.995003e-02 5.979927e-02 6.010130e-02 5.964445e-02 6.026061e-02 5.949395e-02 6.041088e-02 5.936797e-02 6.053368e-02 5.928483e-02 6.060812e-02 5.925797e-02 6.061513e-02 5.929512e-02 6.054222e-02 5.939725e-02 6.038478e-02 5.955461e-02 6.014529e-02 5.974488e-02 5.983020e-02 5.992549e-02 5.943756e-02 6.002402e-02 5.894885e-02 5.993375e-02 5.831677e-02 5.949683e-02 5.743952e-02 5.847302e-02 5.611218e-02 5.649254e-02 5.354664e-02 5.163252e-02 4.995641e-02 4.826802e-02 4.797697e-02 
5.198852e-02 5.326547e-02 5.300270e-02 5.530634e-02 5.591227e-02 5.878400e-02 6.019987e-02 6.230696e-02 6.354297e-02 6.528204e-02 6.803351e-02 6.961711e-02 7.712512e-02 7.732361e-02 7.718418e-02 7.729124e-02 7.725842e-02 7.723688e-02 7.731479e-02 7.718439e-02 7.733048e-02 7.714600e-02 7.121441e-02 7.004245e-02 6.736237e-02 6.640196e-02 6.536851e-02 6.446065e-02 6.436981e-02 6.347083e-02 6.390467e-02 6.299737e-02 6.369898e-02 6.280130e-02 6.360554e-02 6.275651e-02 6.355136e-02 6.279604e-02 6.350317e-02 6.288129e-02 6.344750e-02 6.298641e-02 6.337952e-02 6.308995e-02 6.329509e-02 6.316869e-02 6.318365e-02 6.319238e-02 6.302204e-02 6.312012e-02 6.277035e-02 6.289991e-02 6.237182e-02 6.247296e-02 6.175151e-02 6.177914e-02 6.096524e-02 6.155395e-02 6.134686e-02 6.227669e-02 6.190393e-02 6.183988e-02 6.125457e-02 6.214922e-02 6.141940e-02 6.150815e-02 6.098892e-02 6.151265e-02 6.105154e-02 6.067569e-02 6.013444e-02 6.045257e-02 6.065552e-02 6.127194e-02 6.185521e-02 6.218687e-02 6.269681e-02 6.275621e-02 6.321428e-02 6.309891e-02 6.352314e-02 6.331068e-02 6.369653e-02 6.345368e-02 6.377716e-02 6.356729e-02 6.379083e-02 6.367629e-02 6.375468e-02 6.379475e-02 6.368170e-02 6.392726e-02 6.358319e-02 6.407015e-02 6.347099e-02 6.421399e-02 6.335913e-02 6.434613e-02 6.326300e-02 6.445214e-02 6.319709e-02 6.451743e-02 6.317266e-02 6.452924e-02 6.319566e-02 6.447854e-02 6.326490e-02 6.436114e-02 6.336985e-02 6.417643e-02 6.348668e-02 6.392211e-02 6.357239e-02 6.358570e-02 6.355866e-02 6.313303e-02 6.334653e-02 6.249199e-02 6.280127e-02 6.152300e-02 6.172999e-02 5.994578e-02 5.977716e-02 5.719127e-02 5.584491e-02 5.445031e-02 5.299506e-02 5.299605e-02 
4.722519e-02 4.832081e-02 4.871210e-02 5.104330e-02 5.238289e-02 5.557153e-02 5.707190e-02 5.934948e-02 6.045969e-02 6.232790e-02 6.514782e-02 6.711791e-02 7.428454e-02 7.404099e-02 7.394272e-02 7.402512e-02 7.399458e-02 7.399180e-02 7.402971e-02 7.395432e-02 7.403624e-02 7.416839e-02 6.812058e-02 6.670785e-02 6.383143e-02 6.281788e-02 6.171144e-02 6.073656e-02 6.066863e-02 5.964215e-02 6.017489e-02 5.908366e-02 5.993873e-02 5.881883e-02 5.981010e-02 5.871887e-02 5.971702e-02 5.871301e-02 5.962628e-02 5.875553e-02 5.952194e-02 5.881456e-02 5.939883e-02 5.886536e-02 5.925106e-02 5.888121e-02 5.906710e-02 5.883491e-02 5.883146e-02 5.870114e-02 5.852860e-02 5.846617e-02 5.815689e-02 5.814645e-02 5.775214e-02 5.782718e-02 5.744144e-02 5.774509e-02 5.730937e-02 5.757479e-02 5.725522e-02 5.746793e-02 5.706764e-02 5.733814e-02 5.694633e-02 5.719340e-02 5.693976e-02 5.703335e-02 5.695728e-02 5.703240e-02 5.708543e-02 5.702696e-02 5.734569e-02 5.740718e-02 5.801233e-02 5.794246e-02 5.864290e-02 5.838849e-02 5.913295e-02 5.872559e-02 5.948568e-02 5.898053e-02 5.972216e-02 5.918330e-02 5.986059e-02 5.935765e-02 5.991438e-02 5.952064e-02 5.989779e-02 5.968729e-02 5.982926e-02 5.986498e-02 5.972430e-02 6.004911e-02 5.959894e-02 6.022981e-02 5.947208e-02 6.039170e-02 5.936227e-02 6.051681e-02 5.928838e-02 6.058848e-02 5.926655e-02 6.059213e-02 5.930596e-02 6.051641e-02 5.940674e-02 6.035756e-02 5.956156e-02 6.012039e-02 5.974893e-02 5.980958e-02 5.992604e-02 5.942433e-02 6.002346e-02 5.894568e-02 5.993162e-02 5.832169e-02 5.949099e-02 5.745030e-02 5.846332e-02 5.612601e-02 5.648134e-02 5.355815e-02 5.162701e-02 4.996327e-02 4.826544e-02 4.798032e-02 
4.768625e-02 4.958241e-02 4.930307e-02 5.276613e-02 5.391281e-02 5.970378e-02 6.259133e-02 6.383995e-02 6.203651e-02 6.465406e-02 6.275188e-02 6.650888e-02 6.496647e-02 6.349388e-02 6.320318e-02 6.341859e-02 6.337509e-02 6.331383e-02 6.347766e-02 6.321952e-02 6.346762e-02 6.446678e-02 6.479615e-02 6.312128e-02 6.337114e-02 6.251517e-02 6.312930e-02 6.235792e-02 6.318187e-02 6.233372e-02 6.328702e-02 6.235839e-02 6.336757e-02 6.241027e-02 6.340320e-02 6.248334e-02 6.339471e-02 6.257367e-02 6.334716e-02 6.266940e-02 6.326294e-02 6.275837e-02 6.314968e-02 6.283014e-02 6.300915e-02 6.286665e-02 6.283633e-02 6.285088e-02 6.262627e-02 6.276981e-02 6.237648e-02 6.262212e-02 6.209550e-02 6.242194e-02 6.180143e-02 6.219906e-02 6.153301e-02 6.201418e-02 6.135547e-02 6.186123e-02 6.121475e-02 6.167907e-02 6.104371e-02 6.148554e-02 6.088897e-02 6.128998e-02 6.078799e-02 6.112982e-02 6.074777e-02 6.103764e-02 6.082465e-02 6.106769e-02 6.108443e-02 6.131875e-02 6.154903e-02 6.168898e-02 6.206325e-02 6.206830e-02 6.253411e-02 6.240648e-02 6.292278e-02 6.269484e-02 6.321859e-02 6.294101e-02 6.342050e-02 6.315564e-02 6.352959e-02 6.334821e-02 6.355528e-02 6.353520e-02 6.351916e-02 6.372814e-02 6.343774e-02 6.392356e-02 6.332783e-02 6.411450e-02 6.320989e-02 6.428716e-02 6.310199e-02 6.442474e-02 6.302390e-02 6.451321e-02 6.299377e-02 6.454051e-02 6.302278e-02 6.449655e-02 6.311349e-02 6.438060e-02 6.326661e-02 6.420569e-02 6.347283e-02 6.398722e-02 6.370663e-02 6.374560e-02 6.392716e-02 6.349785e-02 6.406563e-02 6.325088e-02 6.404072e-02 6.300617e-02 6.383859e-02 6.270501e-02 6.416046e-02 5.804851e-02 5.392166e-02 5.198723e-02 4.913313e-02 4.929855e-02 
3.699431e-02 3.897048e-02 4.064778e-02 4.578062e-02 5.328318e-02 6.457319e-02 5.957588e-02 6.058124e-02 5.530523e-02 5.764221e-02 5.248396e-02 5.425968e-02 4.655583e-02 4.634175e-02 4.610521e-02 4.628171e-02 4.624620e-02 4.619562e-02 4.632562e-02 4.612388e-02 4.630523e-02 4.664057e-02 5.183769e-02 5.187623e-02 5.479119e-02 5.461511e-02 5.670997e-02 5.610342e-02 5.784272e-02 5.687186e-02 5.846531e-02 5.727273e-02 5.877537e-02 5.750453e-02 5.889193e-02 5.766585e-02 5.889780e-02 5.781438e-02 5.883974e-02 5.794240e-02 5.871959e-02 5.804189e-02 5.857453e-02 5.812567e-02 5.841412e-02 5.816382e-02 5.822464e-02 5.814233e-02 5.800753e-02 5.805316e-02 5.776431e-02 5.791590e-02 5.753261e-02 5.777375e-02 5.733701e-02 5.764180e-02 5.717003e-02 5.749960e-02 5.698479e-02 5.729949e-02 5.682463e-02 5.715821e-02 5.671594e-02 5.696603e-02 5.657984e-02 5.682558e-02 5.654175e-02 5.670008e-02 5.656251e-02 5.669864e-02 5.674281e-02 5.673615e-02 5.698710e-02 5.690700e-02 5.738328e-02 5.717845e-02 5.784865e-02 5.747269e-02 5.828205e-02 5.773373e-02 5.864484e-02 5.797176e-02 5.893517e-02 5.820324e-02 5.914434e-02 5.842809e-02 5.924163e-02 5.862643e-02 5.922042e-02 5.883363e-02 5.913574e-02 5.907965e-02 5.899726e-02 5.933692e-02 5.881884e-02 5.960152e-02 5.863743e-02 5.984690e-02 5.846780e-02 6.003821e-02 5.834251e-02 6.015883e-02 5.829876e-02 6.019339e-02 5.835665e-02 6.011388e-02 5.850960e-02 5.991327e-02 5.877925e-02 5.963571e-02 5.917501e-02 5.931188e-02 5.968242e-02 5.901248e-02 6.031494e-02 5.882398e-02 6.106248e-02 5.884080e-02 6.198547e-02 5.926380e-02 6.329345e-02 6.036532e-02 6.690251e-02 6.345317e-02 4.804980e-02 4.452874e-02 3.890177e-02 3.863059e-02 
3.274075e-02 3.672766e-02 3.882621e-02 4.915077e-02 5.926150e-02 5.561149e-02 2.758541e-02 3.917000e-02 2.695030e-02 3.418275e-02 2.508817e-02 2.906403e-02 1.848599e-02 2.258297e-02 2.146254e-02 2.234527e-02 2.243451e-02 2.210089e-02 2.268705e-02 2.166659e-02 2.231658e-02 2.040930e-02 2.765199e-02 2.655962e-02 3.096069e-02 2.961751e-02 3.254677e-02 3.120481e-02 3.329989e-02 3.208393e-02 3.361999e-02 3.262264e-02 3.370903e-02 3.299806e-02 3.367032e-02 3.328878e-02 3.357943e-02 3.354710e-02 3.347824e-02 3.375463e-02 3.335733e-02 3.390144e-02 3.326074e-02 3.401325e-02 3.319472e-02 3.406141e-02 3.313582e-02 3.403996e-02 3.307840e-02 3.394840e-02 3.301025e-02 3.381320e-02 3.295794e-02 3.368074e-02 3.292645e-02 3.355765e-02 3.290263e-02 3.345582e-02 3.290745e-02 3.338288e-02 3.287616e-02 3.323409e-02 3.273729e-02 3.308052e-02 3.260685e-02 3.281734e-02 3.244773e-02 3.263351e-02 3.240843e-02 3.246859e-02 3.239686e-02 3.249167e-02 3.263117e-02 3.266612e-02 3.299141e-02 3.292906e-02 3.337964e-02 3.318950e-02 3.370789e-02 3.340397e-02 3.395884e-02 3.360192e-02 3.414928e-02 3.380944e-02 3.427571e-02 3.402471e-02 3.429829e-02 3.421667e-02 3.420766e-02 3.442438e-02 3.407404e-02 3.468080e-02 3.390258e-02 3.494320e-02 3.370844e-02 3.520333e-02 3.353693e-02 3.542422e-02 3.340431e-02 3.555676e-02 3.335407e-02 3.557964e-02 3.343629e-02 3.547520e-02 3.367704e-02 3.520846e-02 3.406235e-02 3.477394e-02 3.460713e-02 3.423587e-02 3.530659e-02 3.364045e-02 3.611852e-02 3.309364e-02 3.703802e-02 3.272066e-02 3.801719e-02 3.267942e-02 3.903482e-02 3.335261e-02 3.993718e-02 3.565127e-02 4.007963e-02 6.957974e-02 5.110683e-02 4.346685e-02 3.461638e-02 3.539817e-02 
9.639180e-03 1.288299e-02 1.772645e-02 2.603939e-02 3.648193e-02 1.517705e-02 2.812156e-02 2.047768e-02 2.333655e-02 2.118142e-02 2.110308e-02 2.161618e-02 1.826957e-02 2.384027e-02 2.152785e-02 2.587801e-02 2.244070e-02 2.636851e-02 2.208951e-02 2.498815e-02 2.025296e-02 2.052622e-02 1.998737e-02 2.110573e-02 2.040186e-02 2.132897e-02 2.097691e-02 2.139121e-02 2.146807e-02 2.133740e-02 2.183677e-02 2.123657e-02 2.209675e-02 2.113684e-02 2.226521e-02 2.106304e-02 2.236404e-02 2.103237e-02 2.240304e-02 2.103831e-02 2.238261e-02 2.107361e-02 2.232595e-02 2.114522e-02 2.224000e-02 2.123862e-02 2.212908e-02 2.134354e-02 2.200431e-02 2.144949e-02 2.187631e-02 2.155620e-02 2.176953e-02 2.167070e-02 2.169001e-02 2.177047e-02 2.159912e-02 2.177693e-02 2.139456e-02 2.162870e-02 2.121193e-02 2.160238e-02 2.117261e-02 2.149158e-02 2.108430e-02 2.150877e-02 2.112500e-02 2.145833e-02 2.114362e-02 2.152746e-02 2.131895e-02 2.146639e-02 2.135319e-02 2.141402e-02 2.144601e-02 2.138520e-02 2.158330e-02 2.137641e-02 2.172832e-02 2.137731e-02 2.186524e-02 2.139697e-02 2.199245e-02 2.143963e-02 2.210108e-02 2.150034e-02 2.216768e-02 2.156540e-02 2.218509e-02 2.164321e-02 2.217487e-02 2.174758e-02 2.212954e-02 2.186480e-02 2.205083e-02 2.199363e-02 2.194662e-02 2.213109e-02 2.181790e-02 2.226993e-02 2.167818e-02 2.241473e-02 2.154158e-02 2.256954e-02 2.141863e-02 2.272332e-02 2.131033e-02 2.287198e-02 2.122498e-02 2.302305e-02 2.118058e-02 2.315876e-02 2.118324e-02 2.328079e-02 2.127884e-02 2.337328e-02 2.153643e-02 2.342456e-02 2.211333e-02 2.337695e-02 2.352363e-02 2.304151e-02 3.054057e-02 3.540861e-02 3.774825e-02 1.685525e-02 1.332874e-02 1.016604e-02 
1.040241e-02 8.438886e-03 8.977445e-03 6.889712e-03 1.041256e-02 2.548311e-02 9.907663e-03 1.483428e-02 3.387695e-03 1.066279e-02 1.168458e-03 1.079427e-02 1.101966e-02 1.708927e-02 2.080249e-02 2.106153e-02 2.230666e-02 2.271339e-02 2.063389e-02 2.031733e-02 1.768864e-02 9.359796e-03 5.028548e-03 2.773952e-03 5.815474e-03 5.005904e-03 8.194192e-03 6.672116e-03 9.437409e-03 7.492110e-03 1.004354e-02 7.939255e-03 1.031228e-02 8.240354e-03 1.038784e-02 8.488752e-03 1.036358e-02 8.738854e-03 1.028875e-02 8.967324e-03 1.015876e-02 9.155785e-03 1.002263e-02 9.322686e-03 9.887828e-03 9.427911e-03 9.729051e-03 9.450820e-03 9.533979e-03 9.371733e-03 9.279630e-03 9.198986e-03 8.988160e-03 8.974493e-03 8.691028e-03 8.756392e-03 8.509728e-03 8.795123e-03 8.816751e-03 9.262346e-03 9.095928e-03 9.163178e-03 8.847467e-03 9.277321e-03 8.829597e-03 8.763341e-03 8.444667e-03 8.574864e-03 8.426671e-03 7.991474e-03 8.060939e-03 8.092359e-03 8.649264e-03 8.405324e-03 9.342215e-03 8.796695e-03 9.967209e-03 9.118290e-03 1.044339e-02 9.348156e-03 1.077808e-02 9.540417e-03 1.100815e-02 9.740731e-03 1.114389e-02 9.960296e-03 1.115237e-02 1.017320e-02 1.102796e-02 1.042034e-02 1.084530e-02 1.073511e-02 1.061034e-02 1.106964e-02 1.033952e-02 1.141105e-02 1.008134e-02 1.171913e-02 9.857038e-03 1.194214e-02 9.716841e-03 1.205708e-02 9.716721e-03 1.204388e-02 9.887171e-03 1.186253e-02 1.021351e-02 1.150284e-02 1.070415e-02 1.101946e-02 1.134816e-02 1.043735e-02 1.209033e-02 9.832463e-03 1.291274e-02 9.290337e-03 1.375088e-02 8.953692e-03 1.458097e-02 9.296180e-03 1.545406e-02 1.209418e-02 2.450824e-02 1.425565e-02 1.011307e-02 4.447465e-03 9.985443e-03 8.521514e-03 
2.923762e-03 1.212740e-03 3.218273e-03 3.609837e-03 3.694818e-03 9.775306e-03 8.093631e-03 6.412891e-03 4.703559e-03 8.632813e-03 9.128394e-03 1.786317e-02 2.377381e-02 2.438953e-02 1.137042e-02 7.115546e-03 2.917656e-03 3.869750e-03 6.897164e-03 1.184467e-02 2.469633e-02 2.432740e-02 1.567502e-02 1.031904e-02 6.337449e-03 4.332020e-03 2.614422e-03 2.111352e-03 1.020203e-03 1.526043e-03 3.565789e-04 1.403348e-03 1.847557e-04 1.297633e-03 2.635954e-04 1.146787e-03 3.707582e-04 9.589455e-04 4.710553e-04 7.709973e-04 5.749328e-04 6.098719e-04 6.749464e-04 4.917868e-04 7.635528e-04 4.581822e-04 8.584805e-04 5.350137e-04 9.788939e-04 7.164640e-04 1.144942e-03 9.667602e-04 1.336327e-03 1.195309e-03 1.467596e-03 1.238613e-03 1.439002e-03 1.157626e-03 1.600402e-03 1.118331e-03 1.308777e-03 1.354445e-03 1.759261e-03 1.266543e-03 2.083689e-03 2.027333e-03 2.304521e-03 2.152234e-03 2.529679e-03 2.728450e-03 2.453434e-03 2.441550e-03 2.037254e-03 2.038428e-03 1.317169e-03 1.473739e-03 7.877771e-04 1.039603e-03 5.546897e-04 7.049764e-04 5.699010e-04 4.390248e-04 6.599623e-04 2.312052e-04 7.149420e-04 1.716945e-04 6.865355e-04 3.278437e-04 5.743538e-04 5.533183e-04 4.281733e-04 8.260418e-04 2.904941e-04 1.112731e-03 2.668278e-04 1.390432e-03 3.673733e-04 1.624761e-03 4.741413e-04 1.773736e-03 5.184046e-04 1.807829e-03 4.684717e-04 1.704142e-03 3.842623e-04 1.444420e-03 5.175859e-04 1.055560e-03 9.390306e-04 7.024096e-04 1.520691e-03 8.203879e-04 2.149548e-03 1.385199e-03 2.714887e-03 2.054225e-03 3.038272e-03 2.757222e-03 2.865281e-03 3.537557e-03 1.793321e-03 4.892513e-03 6.062077e-03 6.644793e-03 2.435390e-03 2.141246e-03 3.184410e-03 4.232742e-04 
