# vtk DataFile Version 2.0
Comment goes here
ASCII

DATASET STRUCTURED_POINTS
FIELD FieldData 1
TIME 1 1 double
0.19000000
DIMENSIONS    128   16   1

ORIGIN    0.000   0.000   0.000
SPACING   0.0078125 0.015625   1.000

POINT_DATA   2048
SCALARS uMag double
LOOKUP_TABLE default

2.516314e-03 3.488275e-03 1.747999e-03 3.635928e-03 1.175004e-03 6.721512e-03 5.324957e-03 1.648060e-03 3.768701e-03 1.924905e-03 1.607134e-03 9.165276e-03 1.291420e-02 2.170164e-02 2.570751e-02 2.962536e-02 2.877932e-02 3.094672e-02 2.773465e-02 2.649825e-02 2.157248e-02 1.388654e-02 7.943806e-03 3.642929e-03 5.913714e-04 1.069036e-03 2.455347e-03 3.190425e-03 3.605702e-03 4.223750e-03 3.951844e-03 4.734854e-03 3.948790e-03 5.022688e-03 3.887832e-03 5.188521e-03 3.800676e-03 5.247300e-03 3.777022e-03 5.220944e-03 3.797492e-03 5.128649e-03 3.878358e-03 4.924974e-03 3.933368e-03 4.645509e-03 4.030810e-03 4.349353e-03 4.138589e-03 4.059407e-03 4.267836e-03 3.796009e-03 4.363856e-03 3.514526e-03 4.470387e-03 3.141295e-03 4.135189e-03 2.411153e-03 1.617012e-03 4.979475e-03 4.113895e-03 1.634896e-03 2.771003e-03 6.477579e-03 5.439846e-03 1.602859e-03 3.121639e-03 5.331816e-03 4.220599e-03 2.193479e-03 4.139233e-03 1.545898e-03 2.650237e-03 2.718244e-03 3.365180e-03 4.048199e-03 3.625910e-03 4.166725e-03 3.372283e-03 4.022117e-03 3.295557e-03 3.795837e-03 3.380515e-03 3.575772e-03 3.576834e-03 3.364286e-03 3.828212e-03 3.138775e-03 4.054165e-03 2.969333e-03 4.253011e-03 2.804714e-03 4.355756e-03 2.712941e-03 4.377883e-03 2.743789e-03 4.304518e-03 2.864782e-03 4.057723e-03 3.044056e-03 3.683972e-03 3.382748e-03 3.296810e-03 3.852873e-03 2.855850e-03 4.322502e-03 2.427806e-03 4.808696e-03 2.123235e-03 5.147784e-03 1.888045e-03 5.232172e-03 1.859391e-03 5.101908e-03 2.171076e-03 4.720095e-03 2.784240e-03 3.994352e-03 3.624398e-03 3.026472e-03 4.715968e-03 2.147814e-03 6.284933e-03 1.262483e-03 2.279997e-03 1.536929e-03 2.333658e-03 2.873987e-03 
7.242623e-04 1.472397e-03 7.406425e-04 1.074102e-03 4.085130e-03 6.288034e-03 6.474550e-03 1.649649e-03 5.788772e-03 5.475214e-03 8.191057e-03 1.129689e-02 1.300031e-02 1.270273e-02 9.646248e-03 4.215745e-03 5.564332e-03 3.963592e-03 6.423923e-03 7.344078e-03 1.296043e-02 1.399625e-02 1.046182e-02 7.685788e-03 5.012392e-03 3.519697e-03 2.567941e-03 2.077809e-03 1.634138e-03 1.865609e-03 1.014890e-03 1.796108e-03 6.338619e-04 1.821663e-03 4.025334e-04 1.809072e-03 1.910895e-04 1.820632e-03 2.595416e-04 1.864667e-03 2.993186e-04 1.811500e-03 4.078785e-04 1.572308e-03 4.997662e-04 1.360544e-03 7.338330e-04 9.608027e-04 8.259749e-04 3.574694e-04 7.805251e-04 4.468920e-04 9.650160e-04 1.936868e-03 2.491767e-03 5.245145e-03 6.334721e-03 1.210716e-02 1.729842e-02 1.295851e-02 7.462116e-03 5.950789e-03 1.262035e-02 9.547060e-03 1.097285e-02 8.396416e-03 8.980316e-03 5.350463e-03 1.643982e-02 1.890172e-02 7.481165e-03 1.211217e-02 8.751372e-03 6.895850e-03 5.204484e-03 4.025475e-03 3.242169e-03 2.709548e-03 1.890522e-03 1.677614e-03 7.878178e-04 9.256241e-04 2.112953e-04 4.698415e-04 8.182257e-05 3.712576e-04 4.137623e-04 2.839515e-04 6.516565e-04 3.829394e-04 8.331972e-04 5.979843e-04 8.923931e-04 6.711303e-04 9.571426e-04 6.471504e-04 8.917810e-04 6.698823e-04 6.094480e-04 6.904733e-04 2.056935e-04 5.064787e-04 4.596238e-04 5.089262e-04 8.302820e-04 8.653884e-04 1.210220e-03 1.442063e-03 1.319001e-03 1.842206e-03 1.525395e-03 1.912084e-03 1.654861e-03 1.764968e-03 1.420992e-03 1.505960e-03 1.203322e-03 8.301447e-04 1.233000e-03 1.024754e-03 1.641600e-03 2.247855e-03 3.568700e-03 5.127374e-03 1.842534e-03 1.058944e-03 1.324837e-03 7.667559e-04 
4.296392e-03 4.691579e-03 1.389878e-03 4.151665e-03 1.121211e-02 1.524722e-02 1.150224e-02 6.809785e-03 4.220205e-03 4.330777e-03 2.000743e-03 9.164640e-04 4.958772e-03 8.491522e-03 9.796771e-03 1.108824e-02 1.009157e-02 1.146185e-02 9.987863e-03 9.485943e-03 8.405662e-03 2.725163e-03 2.009482e-03 3.310019e-03 2.405478e-03 5.655722e-03 4.557010e-03 6.639746e-03 5.621338e-03 6.699313e-03 6.258044e-03 6.667076e-03 6.887869e-03 6.668244e-03 7.473192e-03 6.649670e-03 7.812942e-03 6.308027e-03 7.530422e-03 5.961919e-03 7.518132e-03 6.152127e-03 7.603627e-03 6.375846e-03 7.389699e-03 6.403560e-03 7.047156e-03 6.469763e-03 6.802483e-03 6.530565e-03 6.300581e-03 6.116420e-03 5.993422e-03 6.177795e-03 7.407555e-03 7.929184e-03 4.765641e-03 1.476942e-03 4.445770e-03 9.563101e-03 1.181117e-02 5.655384e-03 9.662983e-03 1.426048e-02 1.464373e-02 7.760811e-03 9.640145e-03 1.304616e-02 1.106898e-02 4.505287e-03 6.353805e-03 9.930067e-03 1.475987e-02 1.069386e-02 6.998833e-03 4.763720e-03 4.726485e-03 4.589311e-03 6.032485e-03 5.781046e-03 6.691846e-03 6.253689e-03 6.936146e-03 6.832628e-03 7.272155e-03 7.361599e-03 7.146526e-03 7.605814e-03 7.108435e-03 8.078649e-03 7.116451e-03 8.492644e-03 7.076623e-03 8.696327e-03 6.925350e-03 8.802241e-03 6.979092e-03 8.870754e-03 7.159014e-03 8.799101e-03 7.437846e-03 8.638416e-03 7.994473e-03 8.182528e-03 8.186529e-03 7.408815e-03 8.494032e-03 6.750186e-03 8.811629e-03 6.373831e-03 9.147370e-03 6.147972e-03 9.455367e-03 6.341105e-03 9.447211e-03 6.567629e-03 9.076766e-03 7.213583e-03 8.579247e-03 8.573848e-03 7.768608e-03 1.083968e-02 6.878262e-03 1.628245e-02 8.291997e-03 3.649544e-03 4.083365e-03 4.269480e-03 
5.931814e-03 7.699374e-03 1.088139e-02 1.976695e-02 1.151002e-02 2.398362e-02 1.595697e-02 1.209881e-02 1.738449e-02 1.119587e-02 1.750682e-02 1.108690e-02 1.784931e-02 1.367808e-02 1.942525e-02 1.611369e-02 1.913861e-02 1.727867e-02 1.805429e-02 1.782123e-02 1.557024e-02 1.675332e-02 1.353429e-02 1.607211e-02 1.319608e-02 1.594656e-02 1.323930e-02 1.578171e-02 1.345089e-02 1.556879e-02 1.344229e-02 1.509265e-02 1.352743e-02 1.499874e-02 1.397392e-02 1.475953e-02 1.404086e-02 1.431026e-02 1.394535e-02 1.396429e-02 1.406809e-02 1.413826e-02 1.437691e-02 1.414670e-02 1.420010e-02 1.403100e-02 1.398884e-02 1.367389e-02 1.328316e-02 1.298108e-02 1.229603e-02 1.184916e-02 1.072487e-02 9.757166e-03 8.465520e-03 6.495986e-03 4.723311e-03 5.493025e-03 8.157436e-03 8.503467e-03 8.185288e-03 8.241353e-03 9.360340e-03 9.438709e-03 8.959434e-03 8.808371e-03 7.878909e-03 8.250687e-03 8.599409e-03 7.057612e-03 7.743894e-03 4.640751e-03 6.749323e-03 9.328841e-03 9.883201e-03 1.088413e-02 1.151884e-02 1.205487e-02 1.242858e-02 1.265542e-02 1.293383e-02 1.271056e-02 1.315685e-02 1.287856e-02 1.349317e-02 1.319002e-02 1.385149e-02 1.350816e-02 1.418974e-02 1.404119e-02 1.442727e-02 1.438960e-02 1.448067e-02 1.473696e-02 1.446066e-02 1.509523e-02 1.445322e-02 1.530071e-02 1.424163e-02 1.524497e-02 1.391449e-02 1.527720e-02 1.397532e-02 1.522584e-02 1.382841e-02 1.494630e-02 1.381239e-02 1.505050e-02 1.414339e-02 1.508868e-02 1.429675e-02 1.485170e-02 1.454044e-02 1.480146e-02 1.502565e-02 1.475002e-02 1.544048e-02 1.438722e-02 1.588453e-02 1.416118e-02 1.672177e-02 1.439316e-02 1.844364e-02 1.328597e-02 2.363607e-02 1.833651e-02 1.220184e-02 6.919891e-03 
2.543588e-02 2.516849e-02 3.146141e-02 3.370185e-02 4.070085e-02 2.069540e-02 2.227420e-02 2.472496e-02 1.916147e-02 2.296227e-02 1.837609e-02 1.963139e-02 1.767194e-02 1.819986e-02 1.892154e-02 1.862041e-02 1.909806e-02 1.881386e-02 1.871343e-02 1.923283e-02 1.770104e-02 1.949073e-02 1.847940e-02 2.030096e-02 2.013309e-02 2.097518e-02 2.125522e-02 2.132213e-02 2.179077e-02 2.117633e-02 2.223331e-02 2.134392e-02 2.273310e-02 2.147045e-02 2.303985e-02 2.154876e-02 2.331222e-02 2.140651e-02 2.291200e-02 2.111354e-02 2.265892e-02 2.108040e-02 2.238809e-02 2.111212e-02 2.197517e-02 2.085047e-02 2.125822e-02 2.052694e-02 2.054484e-02 1.995878e-02 1.913532e-02 1.819843e-02 1.654737e-02 1.522523e-02 1.295445e-02 1.036492e-02 6.398858e-03 8.095055e-03 9.708491e-03 8.971132e-03 4.587822e-03 8.687554e-03 6.648004e-03 7.365015e-03 4.924032e-03 7.399997e-03 4.971103e-03 5.225327e-03 7.924653e-03 7.699661e-03 6.279968e-03 3.980935e-03 2.706238e-03 7.975608e-03 1.204997e-02 1.384880e-02 1.680841e-02 1.769783e-02 1.983939e-02 1.991702e-02 2.119214e-02 2.112796e-02 2.183312e-02 2.206046e-02 2.232779e-02 2.262041e-02 2.216112e-02 2.280917e-02 2.209927e-02 2.306814e-02 2.205024e-02 2.332463e-02 2.202550e-02 2.332928e-02 2.189958e-02 2.323297e-02 2.199125e-02 2.319956e-02 2.233313e-02 2.318234e-02 2.283145e-02 2.310979e-02 2.340537e-02 2.267827e-02 2.370204e-02 2.204855e-02 2.388673e-02 2.134446e-02 2.397625e-02 2.091490e-02 2.420612e-02 2.082139e-02 2.436649e-02 2.105154e-02 2.407212e-02 2.129690e-02 2.338010e-02 2.226333e-02 2.268082e-02 2.393642e-02 2.178032e-02 2.643690e-02 2.057643e-02 3.510089e-02 4.285958e-02 3.460049e-02 2.893267e-02 2.515413e-02 
3.021273e-02 3.124191e-02 3.430846e-02 3.873157e-02 4.569754e-02 4.803695e-02 4.195897e-02 4.169512e-02 4.076005e-02 3.921497e-02 3.849373e-02 3.584010e-02 3.499785e-02 3.445758e-02 3.485431e-02 3.459226e-02 3.479113e-02 3.475510e-02 3.464045e-02 3.491304e-02 3.444996e-02 3.511945e-02 3.686476e-02 3.920735e-02 3.911322e-02 4.115721e-02 4.049900e-02 4.210984e-02 4.133053e-02 4.234950e-02 4.183129e-02 4.231682e-02 4.230548e-02 4.245306e-02 4.286390e-02 4.243384e-02 4.306488e-02 4.209051e-02 4.280376e-02 4.172755e-02 4.276129e-02 4.183808e-02 4.280328e-02 4.185433e-02 4.245025e-02 4.165475e-02 4.192927e-02 4.131481e-02 4.109945e-02 4.065982e-02 3.984800e-02 3.923618e-02 3.786215e-02 3.720237e-02 3.582611e-02 3.491018e-02 3.033691e-02 3.041890e-02 3.171895e-02 3.245986e-02 3.239445e-02 3.307806e-02 3.212349e-02 3.518598e-02 3.345849e-02 3.472163e-02 3.421281e-02 3.604304e-02 3.756544e-02 3.409196e-02 3.764248e-02 3.596197e-02 4.133224e-02 4.062577e-02 4.013279e-02 3.972106e-02 4.052400e-02 4.051232e-02 4.141110e-02 4.126857e-02 4.187633e-02 4.155737e-02 4.204153e-02 4.200286e-02 4.236862e-02 4.243975e-02 4.245216e-02 4.274262e-02 4.254361e-02 4.323045e-02 4.262999e-02 4.358656e-02 4.263870e-02 4.381460e-02 4.255402e-02 4.399952e-02 4.261238e-02 4.409792e-02 4.268158e-02 4.401460e-02 4.276628e-02 4.393332e-02 4.313279e-02 4.367661e-02 4.316965e-02 4.308757e-02 4.332796e-02 4.272403e-02 4.370958e-02 4.247736e-02 4.398676e-02 4.225321e-02 4.424127e-02 4.237908e-02 4.441784e-02 4.252416e-02 4.425537e-02 4.291987e-02 4.404275e-02 4.388876e-02 4.418081e-02 4.551694e-02 4.495743e-02 4.881005e-02 4.262281e-02 3.609279e-02 3.254113e-02 3.050145e-02 
3.716389e-02 3.796499e-02 3.897198e-02 4.180867e-02 4.372449e-02 4.936130e-02 4.674239e-02 4.606293e-02 4.720795e-02 4.609096e-02 4.738191e-02 4.639994e-02 4.625568e-02 4.559989e-02 4.599591e-02 4.572533e-02 4.591043e-02 4.589027e-02 4.574844e-02 4.607323e-02 4.556464e-02 4.666440e-02 4.688071e-02 4.764033e-02 4.641611e-02 4.762151e-02 4.640384e-02 4.758603e-02 4.655999e-02 4.747251e-02 4.670504e-02 4.723467e-02 4.688109e-02 4.713410e-02 4.715020e-02 4.697919e-02 4.722241e-02 4.673716e-02 4.718455e-02 4.654116e-02 4.716984e-02 4.653951e-02 4.717359e-02 4.651452e-02 4.700284e-02 4.649593e-02 4.683733e-02 4.650713e-02 4.662399e-02 4.662582e-02 4.666715e-02 4.714764e-02 4.728443e-02 4.856603e-02 4.926323e-02 5.235250e-02 5.348288e-02 5.352785e-02 5.016820e-02 4.940199e-02 4.952776e-02 4.911115e-02 4.967926e-02 4.790971e-02 4.929716e-02 4.914617e-02 5.100766e-02 4.949762e-02 5.143726e-02 5.480068e-02 5.347492e-02 5.728724e-02 5.493296e-02 5.030021e-02 4.903840e-02 4.733398e-02 4.726083e-02 4.643156e-02 4.672634e-02 4.628210e-02 4.664801e-02 4.631821e-02 4.667534e-02 4.654058e-02 4.680554e-02 4.684594e-02 4.694610e-02 4.715249e-02 4.703874e-02 4.750028e-02 4.710351e-02 4.775378e-02 4.712120e-02 4.796626e-02 4.713337e-02 4.813962e-02 4.718812e-02 4.821459e-02 4.722644e-02 4.815526e-02 4.726955e-02 4.806170e-02 4.744348e-02 4.790943e-02 4.753515e-02 4.761833e-02 4.768554e-02 4.745439e-02 4.795332e-02 4.731350e-02 4.811362e-02 4.717093e-02 4.822832e-02 4.719122e-02 4.834113e-02 4.730661e-02 4.831202e-02 4.744227e-02 4.819321e-02 4.767420e-02 4.816425e-02 4.777414e-02 4.810134e-02 4.626837e-02 4.250684e-02 4.017012e-02 3.828754e-02 3.749359e-02 
3.684748e-02 3.766032e-02 3.807110e-02 3.993847e-02 4.076556e-02 4.324771e-02 4.329269e-02 4.460825e-02 4.545877e-02 4.671736e-02 4.854173e-02 5.031739e-02 5.233574e-02 5.204175e-02 5.222376e-02 5.206968e-02 5.215446e-02 5.213803e-02 5.209440e-02 5.222318e-02 5.206737e-02 5.241500e-02 4.898499e-02 4.828007e-02 4.592283e-02 4.624474e-02 4.466389e-02 4.529009e-02 4.416728e-02 4.475663e-02 4.401880e-02 4.441412e-02 4.405136e-02 4.419892e-02 4.416243e-02 4.402234e-02 4.423563e-02 4.385076e-02 4.424678e-02 4.372799e-02 4.425174e-02 4.370701e-02 4.424714e-02 4.373971e-02 4.419574e-02 4.381593e-02 4.414465e-02 4.396944e-02 4.415910e-02 4.428283e-02 4.440026e-02 4.492366e-02 4.507978e-02 4.611117e-02 4.644085e-02 4.838990e-02 4.950740e-02 5.041104e-02 4.964964e-02 5.094811e-02 5.027854e-02 4.936874e-02 4.971567e-02 4.926107e-02 5.000325e-02 4.799301e-02 4.872831e-02 4.830679e-02 4.792210e-02 4.746048e-02 4.506406e-02 4.700570e-02 4.665495e-02 4.515210e-02 4.542832e-02 4.469272e-02 4.499280e-02 4.435701e-02 4.463391e-02 4.415794e-02 4.441788e-02 4.410965e-02 4.430126e-02 4.419458e-02 4.425091e-02 4.435007e-02 4.420767e-02 4.453185e-02 4.416800e-02 4.473671e-02 4.413306e-02 4.491812e-02 4.410215e-02 4.506024e-02 4.408822e-02 4.515709e-02 4.411854e-02 4.519128e-02 4.418855e-02 4.515082e-02 4.430161e-02 4.505117e-02 4.446792e-02 4.488398e-02 4.462819e-02 4.465751e-02 4.480770e-02 4.445240e-02 4.500162e-02 4.428673e-02 4.515087e-02 4.417339e-02 4.523144e-02 4.414741e-02 4.520963e-02 4.417350e-02 4.502882e-02 4.421148e-02 4.466607e-02 4.415767e-02 4.403866e-02 4.369498e-02 4.283815e-02 4.198936e-02 3.997549e-02 3.889234e-02 3.754339e-02 3.727548e-02 
3.993363e-02 4.070747e-02 4.088652e-02 4.264803e-02 4.310621e-02 4.543039e-02 4.561918e-02 4.675317e-02 4.790476e-02 4.886193e-02 5.089826e-02 5.253515e-02 5.470901e-02 5.441249e-02 5.463058e-02 5.445824e-02 5.454515e-02 5.455136e-02 5.445746e-02 5.465846e-02 5.440568e-02 5.473914e-02 5.094385e-02 5.042071e-02 4.809671e-02 4.854551e-02 4.698160e-02 4.770255e-02 4.656247e-02 4.724601e-02 4.644893e-02 4.694799e-02 4.647716e-02 4.673710e-02 4.656199e-02 4.656783e-02 4.663601e-02 4.642819e-02 4.668914e-02 4.634545e-02 4.673738e-02 4.634159e-02 4.678988e-02 4.641790e-02 4.685372e-02 4.658428e-02 4.696504e-02 4.686616e-02 4.717343e-02 4.730934e-02 4.756548e-02 4.797670e-02 4.819283e-02 4.881722e-02 4.891332e-02 4.957625e-02 4.961285e-02 5.014944e-02 5.020669e-02 5.084321e-02 5.064469e-02 4.991317e-02 5.031940e-02 5.041599e-02 5.077254e-02 4.962153e-02 5.012732e-02 5.031395e-02 5.018950e-02 4.937324e-02 4.877622e-02 4.962706e-02 4.966954e-02 4.915913e-02 4.920598e-02 4.849283e-02 4.851421e-02 4.779000e-02 4.787764e-02 4.730755e-02 4.744764e-02 4.706028e-02 4.717583e-02 4.697919e-02 4.699352e-02 4.699663e-02 4.685647e-02 4.706882e-02 4.674545e-02 4.717131e-02 4.665588e-02 4.727289e-02 4.659079e-02 4.736084e-02 4.656293e-02 4.742587e-02 4.657927e-02 4.744741e-02 4.663544e-02 4.741842e-02 4.673530e-02 4.734797e-02 4.687679e-02 4.723647e-02 4.703407e-02 4.709352e-02 4.720109e-02 4.695143e-02 4.736032e-02 4.682084e-02 4.747369e-02 4.671335e-02 4.752452e-02 4.664870e-02 4.749427e-02 4.660128e-02 4.733625e-02 4.649896e-02 4.698963e-02 4.620834e-02 4.632197e-02 4.545480e-02 4.501730e-02 4.382054e-02 4.247149e-02 4.152071e-02 4.050900e-02 4.032190e-02 
3.682740e-02 3.764557e-02 3.806096e-02 3.993166e-02 4.076402e-02 4.324818e-02 4.329873e-02 4.461213e-02 4.545828e-02 4.671619e-02 4.853826e-02 5.031661e-02 5.232681e-02 5.203289e-02 5.221461e-02 5.205616e-02 5.214182e-02 5.212043e-02 5.208008e-02 5.220572e-02 5.205293e-02 5.240197e-02 4.898482e-02 4.830309e-02 4.596061e-02 4.627557e-02 4.469900e-02 4.533004e-02 4.420922e-02 4.482966e-02 4.407145e-02 4.451633e-02 4.409850e-02 4.429856e-02 4.418047e-02 4.412401e-02 4.425331e-02 4.398687e-02 4.431678e-02 4.392540e-02 4.437584e-02 4.393468e-02 4.443696e-02 4.405086e-02 4.454402e-02 4.428505e-02 4.470858e-02 4.463164e-02 4.494928e-02 4.509310e-02 4.531702e-02 4.572035e-02 4.587277e-02 4.648143e-02 4.654043e-02 4.724952e-02 4.725447e-02 4.791220e-02 4.780202e-02 4.838314e-02 4.827603e-02 4.844102e-02 4.848527e-02 4.845009e-02 4.857957e-02 4.822467e-02 4.827894e-02 4.797069e-02 4.780827e-02 4.744295e-02 4.708633e-02 4.686646e-02 4.681223e-02 4.627504e-02 4.642724e-02 4.578905e-02 4.601367e-02 4.537226e-02 4.562059e-02 4.508183e-02 4.530997e-02 4.494189e-02 4.506051e-02 4.488290e-02 4.481679e-02 4.487628e-02 4.458910e-02 4.491416e-02 4.438544e-02 4.496939e-02 4.420725e-02 4.503218e-02 4.408144e-02 4.509151e-02 4.402617e-02 4.513632e-02 4.403593e-02 4.513539e-02 4.411432e-02 4.509412e-02 4.426452e-02 4.500250e-02 4.445622e-02 4.485982e-02 4.468251e-02 4.469904e-02 4.491893e-02 4.452373e-02 4.511672e-02 4.435797e-02 4.525131e-02 4.423155e-02 4.529826e-02 4.417517e-02 4.523898e-02 4.418698e-02 4.503446e-02 4.420671e-02 4.463864e-02 4.411674e-02 4.396641e-02 4.362209e-02 4.276498e-02 4.193387e-02 3.992705e-02 3.885626e-02 3.751142e-02 3.725153e-02 
3.711978e-02 3.793060e-02 3.894481e-02 4.178673e-02 4.371199e-02 4.935675e-02 4.675683e-02 4.608127e-02 4.721406e-02 4.610615e-02 4.740893e-02 4.643433e-02 4.625792e-02 4.559138e-02 4.598865e-02 4.570762e-02 4.589481e-02 4.586231e-02 4.572891e-02 4.602704e-02 4.552790e-02 4.658116e-02 4.683753e-02 4.765121e-02 4.647053e-02 4.766330e-02 4.646600e-02 4.764778e-02 4.660668e-02 4.758171e-02 4.682145e-02 4.749955e-02 4.704269e-02 4.737121e-02 4.721879e-02 4.724249e-02 4.733780e-02 4.709877e-02 4.741768e-02 4.704320e-02 4.749304e-02 4.703396e-02 4.756853e-02 4.717482e-02 4.772833e-02 4.743094e-02 4.792851e-02 4.780172e-02 4.819372e-02 4.822794e-02 4.849902e-02 4.874458e-02 4.890791e-02 4.926310e-02 4.926760e-02 4.965833e-02 4.957910e-02 4.996192e-02 4.983632e-02 5.013345e-02 5.003363e-02 5.018563e-02 5.020923e-02 5.023697e-02 5.032631e-02 5.019241e-02 5.030615e-02 5.010429e-02 5.020977e-02 4.991351e-02 5.004765e-02 4.969285e-02 4.993762e-02 4.942957e-02 4.973091e-02 4.912215e-02 4.946441e-02 4.881159e-02 4.913790e-02 4.853324e-02 4.882819e-02 4.838007e-02 4.855745e-02 4.826102e-02 4.822835e-02 4.815286e-02 4.788220e-02 4.808174e-02 4.758150e-02 4.805949e-02 4.732143e-02 4.805733e-02 4.712080e-02 4.805747e-02 4.702398e-02 4.809559e-02 4.701819e-02 4.809195e-02 4.707739e-02 4.805822e-02 4.724324e-02 4.800896e-02 4.745681e-02 4.789928e-02 4.770642e-02 4.777446e-02 4.796081e-02 4.760845e-02 4.816365e-02 4.743747e-02 4.829693e-02 4.728130e-02 4.835621e-02 4.722782e-02 4.836471e-02 4.729433e-02 4.829567e-02 4.744084e-02 4.815945e-02 4.762781e-02 4.803058e-02 4.762055e-02 4.795777e-02 4.615633e-02 4.241340e-02 4.009989e-02 3.822292e-02 3.744417e-02 
3.016818e-02 3.121069e-02 3.429199e-02 3.872362e-02 4.571582e-02 4.806869e-02 4.201323e-02 4.172239e-02 4.073799e-02 3.917954e-02 3.848122e-02 3.586409e-02 3.499743e-02 3.444414e-02 3.483492e-02 3.455033e-02 3.474845e-02 3.468874e-02 3.459459e-02 3.483425e-02 3.439633e-02 3.498738e-02 3.695105e-02 3.939922e-02 3.938987e-02 4.124436e-02 4.054811e-02 4.213542e-02 4.146539e-02 4.262103e-02 4.203670e-02 4.269695e-02 4.249275e-02 4.272348e-02 4.280193e-02 4.258276e-02 4.286801e-02 4.235940e-02 4.297156e-02 4.239890e-02 4.306369e-02 4.232668e-02 4.302262e-02 4.248727e-02 4.324169e-02 4.292846e-02 4.356926e-02 4.346228e-02 4.381976e-02 4.384454e-02 4.401534e-02 4.445813e-02 4.456024e-02 4.513744e-02 4.489147e-02 4.551429e-02 4.525602e-02 4.601317e-02 4.567510e-02 4.632256e-02 4.599127e-02 4.653218e-02 4.634229e-02 4.665622e-02 4.647282e-02 4.649515e-02 4.637354e-02 4.612616e-02 4.606844e-02 4.569364e-02 4.586731e-02 4.529920e-02 4.561228e-02 4.483688e-02 4.526414e-02 4.446168e-02 4.507108e-02 4.420607e-02 4.472682e-02 4.391896e-02 4.448935e-02 4.399155e-02 4.432582e-02 4.390566e-02 4.385016e-02 4.378184e-02 4.343181e-02 4.381190e-02 4.307088e-02 4.376017e-02 4.264690e-02 4.375433e-02 4.237138e-02 4.379333e-02 4.230785e-02 4.389929e-02 4.227824e-02 4.382922e-02 4.236693e-02 4.382425e-02 4.267733e-02 4.371014e-02 4.291896e-02 4.343471e-02 4.331633e-02 4.330488e-02 4.382064e-02 4.304912e-02 4.412959e-02 4.274700e-02 4.435796e-02 4.249181e-02 4.444491e-02 4.240202e-02 4.446727e-02 4.261328e-02 4.432903e-02 4.297572e-02 4.399120e-02 4.373192e-02 4.378462e-02 4.511103e-02 4.462016e-02 4.860359e-02 4.247542e-02 3.600048e-02 3.246287e-02 3.044692e-02 
2.537547e-02 2.513144e-02 3.144636e-02 3.369881e-02 4.072308e-02 2.065866e-02 2.221703e-02 2.452735e-02 1.895647e-02 2.265786e-02 1.809790e-02 1.939829e-02 1.757266e-02 1.815830e-02 1.888321e-02 1.861347e-02 1.911266e-02 1.886867e-02 1.881044e-02 1.923102e-02 1.771791e-02 1.947409e-02 1.876630e-02 2.073832e-02 2.060592e-02 2.125886e-02 2.133647e-02 2.149169e-02 2.208111e-02 2.168430e-02 2.233885e-02 2.144435e-02 2.253597e-02 2.147076e-02 2.270398e-02 2.134091e-02 2.263197e-02 2.132256e-02 2.277701e-02 2.168672e-02 2.295477e-02 2.192149e-02 2.292869e-02 2.227680e-02 2.316704e-02 2.297731e-02 2.354890e-02 2.357702e-02 2.358465e-02 2.380032e-02 2.350098e-02 2.418947e-02 2.374838e-02 2.460224e-02 2.371621e-02 2.462358e-02 2.379477e-02 2.491699e-02 2.416340e-02 2.526052e-02 2.465070e-02 2.554609e-02 2.518410e-02 2.596090e-02 2.571836e-02 2.603866e-02 2.601136e-02 2.606800e-02 2.612077e-02 2.588662e-02 2.619214e-02 2.582554e-02 2.622327e-02 2.536323e-02 2.584061e-02 2.481090e-02 2.545113e-02 2.428473e-02 2.479692e-02 2.373120e-02 2.434639e-02 2.364192e-02 2.395019e-02 2.341934e-02 2.333276e-02 2.331341e-02 2.302829e-02 2.353417e-02 2.278019e-02 2.352076e-02 2.240257e-02 2.353455e-02 2.225896e-02 2.363073e-02 2.231312e-02 2.363801e-02 2.227125e-02 2.335783e-02 2.239476e-02 2.318713e-02 2.269935e-02 2.271156e-02 2.284661e-02 2.210846e-02 2.324351e-02 2.182336e-02 2.388063e-02 2.146986e-02 2.425575e-02 2.116210e-02 2.452656e-02 2.107274e-02 2.452614e-02 2.117024e-02 2.426037e-02 2.167531e-02 2.362171e-02 2.242607e-02 2.252127e-02 2.372939e-02 2.119126e-02 2.603050e-02 2.016137e-02 3.477366e-02 4.258437e-02 3.445216e-02 2.881179e-02 2.507910e-02 
5.903349e-03 7.716072e-03 1.089191e-02 1.980764e-02 1.155927e-02 2.410387e-02 1.608502e-02 1.234539e-02 1.756862e-02 1.141215e-02 1.767012e-02 1.135374e-02 1.786706e-02 1.367118e-02 1.927362e-02 1.600611e-02 1.895555e-02 1.714136e-02 1.783865e-02 1.762495e-02 1.532389e-02 1.631273e-02 1.337030e-02 1.588688e-02 1.316333e-02 1.567180e-02 1.318701e-02 1.561999e-02 1.338350e-02 1.552355e-02 1.373160e-02 1.549453e-02 1.405336e-02 1.534828e-02 1.430498e-02 1.511748e-02 1.438581e-02 1.472353e-02 1.436604e-02 1.441722e-02 1.432105e-02 1.401809e-02 1.423596e-02 1.386209e-02 1.438901e-02 1.385763e-02 1.451461e-02 1.401342e-02 1.469282e-02 1.422210e-02 1.491868e-02 1.459964e-02 1.531158e-02 1.498447e-02 1.545495e-02 1.512899e-02 1.550804e-02 1.520769e-02 1.539980e-02 1.502559e-02 1.512854e-02 1.488878e-02 1.501922e-02 1.472490e-02 1.481283e-02 1.457146e-02 1.468236e-02 1.437801e-02 1.457171e-02 1.438654e-02 1.469272e-02 1.436276e-02 1.466956e-02 1.432965e-02 1.466224e-02 1.440701e-02 1.483657e-02 1.457382e-02 1.495680e-02 1.469111e-02 1.512669e-02 1.495931e-02 1.525567e-02 1.509953e-02 1.509500e-02 1.497523e-02 1.478855e-02 1.482407e-02 1.445888e-02 1.473065e-02 1.413528e-02 1.460785e-02 1.385079e-02 1.453020e-02 1.371840e-02 1.466760e-02 1.370875e-02 1.480331e-02 1.372579e-02 1.503285e-02 1.396331e-02 1.528699e-02 1.419840e-02 1.548795e-02 1.434689e-02 1.566016e-02 1.453820e-02 1.552661e-02 1.461679e-02 1.531556e-02 1.464854e-02 1.497954e-02 1.471892e-02 1.472757e-02 1.497360e-02 1.460956e-02 1.529606e-02 1.453998e-02 1.570422e-02 1.442138e-02 1.640181e-02 1.414072e-02 1.841694e-02 1.336869e-02 2.339755e-02 1.818843e-02 1.212304e-02 6.871276e-03 
4.289943e-03 4.674518e-03 1.350458e-03 4.148148e-03 1.129771e-02 1.535890e-02 1.137296e-02 6.880415e-03 4.146997e-03 4.235682e-03 1.941590e-03 1.005348e-03 4.679355e-03 8.379510e-03 9.815534e-03 1.113609e-02 1.018697e-02 1.151077e-02 1.003674e-02 9.750268e-03 8.683323e-03 3.214270e-03 2.355912e-03 3.409004e-03 2.726184e-03 5.641649e-03 4.547099e-03 6.565146e-03 5.830698e-03 6.978415e-03 6.497537e-03 6.839739e-03 6.995057e-03 6.789099e-03 7.349803e-03 6.516529e-03 7.364254e-03 6.223495e-03 7.493470e-03 6.284605e-03 7.566542e-03 6.187032e-03 7.418487e-03 6.327429e-03 7.585099e-03 6.857325e-03 7.843372e-03 7.423084e-03 7.874439e-03 7.717537e-03 7.808765e-03 8.240275e-03 8.150898e-03 8.847640e-03 8.231315e-03 9.119478e-03 8.628297e-03 9.992476e-03 9.838617e-03 1.141945e-02 1.122436e-02 1.211368e-02 1.206063e-02 1.303361e-02 1.283708e-02 1.278012e-02 1.272922e-02 1.267724e-02 1.254351e-02 1.176707e-02 1.176850e-02 1.154375e-02 1.175430e-02 1.054094e-02 1.092678e-02 9.493447e-03 1.021476e-02 8.745998e-03 9.461565e-03 8.208248e-03 9.061578e-03 8.312144e-03 8.809572e-03 8.284348e-03 8.233114e-03 8.250638e-03 7.831904e-03 8.473841e-03 7.430811e-03 8.492353e-03 6.928272e-03 8.532659e-03 6.655841e-03 8.647390e-03 6.645159e-03 8.761910e-03 6.656329e-03 8.618172e-03 6.854286e-03 8.583827e-03 7.358166e-03 8.300297e-03 7.700252e-03 7.836483e-03 8.206718e-03 7.609766e-03 8.909056e-03 7.174343e-03 9.317637e-03 6.722282e-03 9.609317e-03 6.422666e-03 9.677710e-03 6.384848e-03 9.572443e-03 6.821608e-03 9.152992e-03 7.491917e-03 8.332917e-03 8.558243e-03 7.223205e-03 1.047486e-02 6.549574e-03 1.617840e-02 8.185459e-03 3.604301e-03 4.097484e-03 4.276855e-03 
7.417126e-04 1.463451e-03 7.567493e-04 1.049174e-03 4.138449e-03 6.324165e-03 6.397922e-03 1.571365e-03 5.820493e-03 5.443842e-03 8.311488e-03 1.145781e-02 1.323755e-02 1.290451e-02 9.704599e-03 4.294299e-03 5.579417e-03 4.003238e-03 6.236623e-03 7.320363e-03 1.266189e-02 1.381944e-02 1.014150e-02 7.585627e-03 4.785520e-03 3.601558e-03 2.433932e-03 2.096961e-03 1.408150e-03 1.734392e-03 1.054921e-03 1.817247e-03 7.273367e-04 1.829300e-03 5.169879e-04 1.926421e-03 4.312137e-04 1.950126e-03 3.811899e-04 1.794903e-03 3.862425e-04 1.618972e-03 4.307074e-04 1.355384e-03 4.476177e-04 8.731754e-04 2.420732e-04 3.999719e-04 8.187116e-05 3.106368e-04 2.237697e-04 5.744849e-04 3.725028e-04 9.737068e-04 7.649345e-04 1.446908e-03 1.606085e-03 2.652803e-03 3.000684e-03 3.320362e-03 2.332359e-03 2.703597e-03 3.033652e-03 3.627447e-03 3.628805e-03 3.814466e-03 4.172576e-03 4.729789e-03 5.235961e-03 5.370209e-03 4.995366e-03 5.369076e-03 5.709934e-03 4.652408e-03 4.908359e-03 3.366318e-03 3.614017e-03 1.982076e-03 2.338504e-03 9.653518e-04 1.479446e-03 4.371871e-04 8.673742e-04 2.579030e-04 4.305986e-04 3.165047e-04 3.646703e-04 5.438902e-04 4.432783e-04 6.519297e-04 7.171145e-04 7.112691e-04 8.509447e-04 7.982192e-04 8.609415e-04 7.834526e-04 8.733483e-04 6.133721e-04 7.266039e-04 4.673204e-04 6.140576e-04 2.953546e-04 5.770265e-04 6.913295e-04 6.882519e-04 1.093725e-03 1.111187e-03 1.431006e-03 1.454847e-03 1.708883e-03 1.699481e-03 1.794501e-03 1.726970e-03 1.743718e-03 1.475553e-03 1.506472e-03 9.633449e-04 1.277247e-03 7.207512e-04 1.397468e-03 1.644331e-03 2.307247e-03 3.661782e-03 5.020533e-03 1.803030e-03 1.030900e-03 1.351139e-03 7.753961e-04 
