# vtk DataFile Version 2.0
Comment goes here
ASCII

DATASET STRUCTURED_POINTS
FIELD FieldData 1
TIME 1 1 double
0.87000000
DIMENSIONS    128   16   1

ORIGIN    0.000   0.000   0.000
SPACING   0.0078125 0.015625   1.000

POINT_DATA   2048
SCALARS uMag double
LOOKUP_TABLE default

7.304375e-03 3.386740e-03 6.164761e-03 4.208826e-04 4.595225e-03 2.728260e-03 1.069669e-02 1.329577e-03 5.191933e-03 4.579124e-03 3.364771e-03 1.383622e-02 2.131243e-02 3.685628e-02 4.570755e-02 4.813739e-02 5.277048e-02 5.095212e-02 5.021064e-02 4.445850e-02 3.856886e-02 2.003902e-02 1.429556e-02 4.505709e-03 3.938834e-03 1.703358e-03 4.039267e-04 4.221230e-03 2.275673e-03 5.162726e-03 3.111313e-03 5.423227e-03 3.519609e-03 5.387697e-03 3.751356e-03 5.226332e-03 3.903990e-03 5.019743e-03 4.011532e-03 4.810391e-03 4.084144e-03 4.621440e-03 4.124648e-03 4.463180e-03 4.135831e-03 4.336879e-03 4.125792e-03 4.240288e-03 4.111669e-03 4.177067e-03 4.123878e-03 4.172350e-03 4.220614e-03 4.319183e-03 4.561797e-03 4.837147e-03 4.877698e-03 4.337468e-03 4.569621e-03 2.803956e-03 2.980636e-03 6.281526e-03 6.421586e-03 4.085073e-03 4.557349e-03 7.631280e-03 8.065948e-03 5.724692e-03 5.907477e-03 1.075044e-02 1.388475e-02 1.231193e-02 1.004196e-02 8.633768e-03 6.377250e-03 6.114636e-03 4.421021e-03 4.958286e-03 3.424934e-03 4.419628e-03 2.931517e-03 4.173056e-03 2.735575e-03 4.023783e-03 2.718374e-03 3.866302e-03 2.819165e-03 3.657935e-03 3.005362e-03 3.392792e-03 3.250869e-03 3.086257e-03 3.526234e-03 2.766515e-03 3.796678e-03 2.469048e-03 4.024494e-03 2.232120e-03 4.172720e-03 2.093425e-03 4.207817e-03 2.085619e-03 4.103136e-03 2.231212e-03 3.842120e-03 2.539077e-03 3.422835e-03 3.000672e-03 2.862371e-03 3.587733e-03 2.201193e-03 4.250633e-03 1.506901e-03 4.917938e-03 8.812918e-04 5.498068e-03 4.828440e-04 5.884166e-03 5.941412e-04 5.960684e-03 1.823319e-03 5.651569e-03 6.001134e-03 1.144336e-03 5.633733e-03 2.871814e-03 6.988016e-03 4.155717e-03 
3.151679e-03 1.145406e-03 3.300246e-03 3.616159e-03 3.673553e-03 9.970575e-03 8.348046e-03 6.190759e-03 4.957836e-03 8.743370e-03 9.269815e-03 1.802252e-02 2.377579e-02 2.440156e-02 1.147649e-02 7.340860e-03 3.091434e-03 3.815375e-03 6.697312e-03 1.172469e-02 2.468596e-02 2.451526e-02 1.572275e-02 1.039825e-02 6.331285e-03 4.388820e-03 2.618668e-03 2.182316e-03 1.038115e-03 1.591017e-03 3.502451e-04 1.459952e-03 7.881091e-05 1.356539e-03 2.104980e-04 1.217630e-03 3.464228e-04 1.059675e-03 4.531819e-04 9.086377e-04 5.340975e-04 7.834032e-04 5.879646e-04 6.892844e-04 6.099176e-04 6.165826e-04 5.941423e-04 5.464921e-04 5.252049e-04 4.673512e-04 3.565244e-04 5.112991e-04 3.599214e-04 1.205054e-03 1.394224e-03 2.097246e-03 4.243065e-03 6.541806e-03 5.419198e-03 6.332244e-03 8.778302e-03 8.928920e-03 5.100806e-03 5.297336e-03 9.177000e-03 9.545176e-03 3.359721e-03 3.090259e-03 1.267626e-02 1.924234e-02 1.043055e-02 1.268271e-02 1.213394e-02 1.108956e-02 7.539529e-03 5.804475e-03 3.188571e-03 2.876956e-03 1.376934e-03 1.481612e-03 9.329383e-04 7.667644e-04 9.508756e-04 3.725707e-04 9.468671e-04 1.407316e-04 8.631522e-04 2.196136e-04 7.210991e-04 4.825108e-04 5.587895e-04 7.823584e-04 4.508283e-04 1.087513e-03 4.755019e-04 1.367201e-03 5.854484e-04 1.590732e-03 6.766882e-04 1.724596e-03 6.914804e-04 1.737468e-03 6.094455e-04 1.612325e-03 4.668765e-04 1.351410e-03 4.901374e-04 9.988556e-04 8.783974e-04 7.216768e-04 1.461467e-03 8.754887e-04 2.104457e-03 1.380014e-03 2.698897e-03 1.938375e-03 3.113908e-03 2.425934e-03 3.132199e-03 2.946651e-03 2.256705e-03 4.790587e-03 4.723961e-03 5.562250e-03 2.570908e-03 1.671757e-03 3.392562e-03 6.522400e-04 
1.021520e-02 8.261053e-03 9.105475e-03 6.766704e-03 1.060981e-02 2.555993e-02 1.076833e-02 1.492195e-02 3.403648e-03 1.111159e-02 8.876072e-04 1.087994e-02 1.103987e-02 1.714556e-02 2.077586e-02 2.117316e-02 2.237111e-02 2.290874e-02 2.081241e-02 2.055658e-02 1.789783e-02 9.611394e-03 5.192634e-03 2.650433e-03 5.605779e-03 4.897344e-03 7.997383e-03 6.654267e-03 9.239974e-03 7.530383e-03 9.832690e-03 8.006500e-03 1.009785e-02 8.316741e-03 1.020419e-02 8.560430e-03 1.023878e-02 8.769600e-03 1.024494e-02 8.945250e-03 1.024145e-02 9.082000e-03 1.023785e-02 9.185539e-03 1.024218e-02 9.274769e-03 1.025583e-02 9.370155e-03 1.027219e-02 9.504853e-03 1.031256e-02 9.763668e-03 1.047612e-02 1.034752e-02 1.117657e-02 1.258272e-02 1.418811e-02 9.694211e-03 1.033047e-02 7.742257e-03 8.840529e-03 1.664763e-02 1.267778e-02 1.074976e-02 1.471924e-02 2.176102e-02 1.911148e-02 1.773687e-02 2.171191e-02 3.170486e-02 3.466384e-02 3.147267e-02 2.989579e-02 2.592396e-02 2.200895e-02 1.771338e-02 1.654003e-02 1.337977e-02 1.414294e-02 1.129413e-02 1.305244e-02 1.032611e-02 1.247934e-02 9.956120e-03 1.208447e-02 9.936912e-03 1.173181e-02 1.013635e-02 1.136901e-02 1.046339e-02 1.098043e-02 1.084842e-02 1.057957e-02 1.124041e-02 1.019625e-02 1.159881e-02 9.869799e-03 1.189348e-02 9.639608e-03 1.209198e-02 9.533172e-03 1.216285e-02 9.575123e-03 1.208960e-02 9.781415e-03 1.186586e-02 1.015152e-02 1.149879e-02 1.066972e-02 1.100636e-02 1.130041e-02 1.041116e-02 1.198963e-02 9.748331e-03 1.268375e-02 9.084773e-03 1.335226e-02 8.547932e-03 1.399641e-02 8.577705e-03 1.467930e-02 1.181226e-02 2.191127e-02 1.460825e-02 9.260637e-03 3.905543e-03 9.316014e-03 8.125095e-03 
9.409209e-03 1.224808e-02 1.730310e-02 2.541775e-02 3.661889e-02 1.460085e-02 2.807356e-02 2.071171e-02 2.349893e-02 2.121077e-02 2.112324e-02 2.136683e-02 1.836145e-02 2.379934e-02 2.159307e-02 2.584217e-02 2.250848e-02 2.637714e-02 2.220429e-02 2.500153e-02 2.038323e-02 2.054610e-02 2.036056e-02 2.131480e-02 2.067098e-02 2.152739e-02 2.109648e-02 2.156910e-02 2.148720e-02 2.150973e-02 2.180198e-02 2.140602e-02 2.204181e-02 2.129281e-02 2.221792e-02 2.118797e-02 2.233937e-02 2.109737e-02 2.240942e-02 2.101918e-02 2.242529e-02 2.094696e-02 2.237905e-02 2.087339e-02 2.225467e-02 2.078546e-02 2.202190e-02 2.065024e-02 2.162132e-02 2.040338e-02 2.094848e-02 1.992269e-02 1.982369e-02 1.897947e-02 1.793194e-02 1.699874e-02 1.356496e-02 1.172184e-02 1.469026e-02 1.691833e-02 1.544278e-02 2.003904e-02 1.812740e-02 2.129351e-02 2.120441e-02 2.567023e-02 2.391561e-02 2.687826e-02 2.747312e-02 3.194216e-02 3.041102e-02 3.182196e-02 3.187733e-02 2.845715e-02 2.813571e-02 2.468600e-02 2.574536e-02 2.290383e-02 2.459688e-02 2.206828e-02 2.394668e-02 2.170253e-02 2.350014e-02 2.159591e-02 2.314417e-02 2.163712e-02 2.284085e-02 2.175730e-02 2.257716e-02 2.190687e-02 2.234700e-02 2.205325e-02 2.214707e-02 2.218314e-02 2.197218e-02 2.229691e-02 2.181871e-02 2.240138e-02 2.168507e-02 2.250315e-02 2.156735e-02 2.260662e-02 2.146568e-02 2.271557e-02 2.137997e-02 2.283195e-02 2.130909e-02 2.295264e-02 2.125293e-02 2.306767e-02 2.121449e-02 2.315807e-02 2.120184e-02 2.320540e-02 2.123922e-02 2.320002e-02 2.139491e-02 2.313349e-02 2.184561e-02 2.298144e-02 2.318404e-02 2.271439e-02 3.095498e-02 3.415965e-02 3.697649e-02 1.707791e-02 1.352321e-02 9.980976e-03 
3.292098e-02 3.682635e-02 3.878052e-02 4.861604e-02 5.734005e-02 5.488451e-02 2.757827e-02 3.960463e-02 2.722593e-02 3.434629e-02 2.506571e-02 2.886706e-02 1.847268e-02 2.258050e-02 2.147471e-02 2.233737e-02 2.244683e-02 2.211225e-02 2.269951e-02 2.170282e-02 2.231237e-02 2.049553e-02 2.797030e-02 2.687568e-02 3.120878e-02 2.986149e-02 3.264453e-02 3.138605e-02 3.329466e-02 3.223169e-02 3.355138e-02 3.274856e-02 3.360758e-02 3.310268e-02 3.357029e-02 3.336613e-02 3.349783e-02 3.356040e-02 3.341737e-02 3.368025e-02 3.333423e-02 3.371210e-02 3.324175e-02 3.364507e-02 3.312373e-02 3.346698e-02 3.293806e-02 3.314200e-02 3.259575e-02 3.259365e-02 3.195344e-02 3.169054e-02 3.077908e-02 3.021832e-02 2.869887e-02 2.743373e-02 2.266277e-02 1.890856e-02 2.490185e-02 2.435327e-02 2.331637e-02 3.092952e-02 3.143038e-02 3.228640e-02 3.309468e-02 4.103457e-02 4.242396e-02 4.386276e-02 4.590894e-02 5.326974e-02 5.842029e-02 5.868777e-02 5.579340e-02 5.018192e-02 4.574271e-02 4.252638e-02 4.037463e-02 3.865412e-02 3.780468e-02 3.662090e-02 3.652986e-02 3.552663e-02 3.585580e-02 3.495353e-02 3.544312e-02 3.470447e-02 3.512925e-02 3.467520e-02 3.483457e-02 3.479223e-02 3.452429e-02 3.499558e-02 3.420253e-02 3.523634e-02 3.389676e-02 3.546974e-02 3.364516e-02 3.565948e-02 3.348433e-02 3.576714e-02 3.343848e-02 3.575573e-02 3.352820e-02 3.560545e-02 3.376862e-02 3.530823e-02 3.416300e-02 3.487373e-02 3.470289e-02 3.432819e-02 3.536063e-02 3.371040e-02 3.608916e-02 3.307956e-02 3.684040e-02 3.253661e-02 3.758906e-02 3.225308e-02 3.834039e-02 3.262072e-02 3.910199e-02 3.488709e-02 4.013565e-02 7.074386e-02 5.257821e-02 4.350942e-02 3.496471e-02 3.549502e-02 
3.713043e-02 3.934980e-02 4.106590e-02 4.633614e-02 5.333351e-02 6.387753e-02 5.906306e-02 6.042075e-02 5.503978e-02 5.703731e-02 5.189245e-02 5.314248e-02 4.644524e-02 4.633459e-02 4.610138e-02 4.627795e-02 4.624753e-02 4.620053e-02 4.633011e-02 4.614018e-02 4.630925e-02 4.679218e-02 5.305253e-02 5.272242e-02 5.574114e-02 5.534772e-02 5.725266e-02 5.665353e-02 5.810454e-02 5.730942e-02 5.857408e-02 5.765311e-02 5.882292e-02 5.785229e-02 5.894860e-02 5.798450e-02 5.900761e-02 5.807786e-02 5.902834e-02 5.813458e-02 5.901905e-02 5.814686e-02 5.897606e-02 5.810742e-02 5.888484e-02 5.800562e-02 5.870931e-02 5.780741e-02 5.837410e-02 5.744111e-02 5.775796e-02 5.678216e-02 5.667903e-02 5.564312e-02 5.500727e-02 5.436434e-02 5.313242e-02 4.909456e-02 5.334050e-02 5.427636e-02 5.397159e-02 5.655680e-02 5.373581e-02 5.875252e-02 5.643990e-02 5.812184e-02 5.511675e-02 5.858375e-02 5.667504e-02 5.648269e-02 5.353394e-02 5.440887e-02 5.785818e-02 5.836866e-02 5.909797e-02 5.796277e-02 5.946983e-02 5.809265e-02 5.991932e-02 5.825027e-02 6.015904e-02 5.837297e-02 6.021617e-02 5.850791e-02 6.013891e-02 5.868704e-02 5.996830e-02 5.891820e-02 5.973443e-02 5.918678e-02 5.946039e-02 5.947055e-02 5.917197e-02 5.975016e-02 5.889583e-02 6.000721e-02 5.865890e-02 6.022468e-02 5.848552e-02 6.038075e-02 5.838835e-02 6.045347e-02 5.837891e-02 6.043028e-02 5.846642e-02 6.030660e-02 5.865471e-02 6.008802e-02 5.894318e-02 5.979075e-02 5.932212e-02 5.943875e-02 5.977409e-02 5.907247e-02 6.029229e-02 5.876989e-02 6.090957e-02 5.867071e-02 6.174597e-02 5.904092e-02 6.312840e-02 6.034378e-02 6.704262e-02 6.370242e-02 4.767859e-02 4.425847e-02 3.872107e-02 3.867207e-02 
4.783859e-02 4.994530e-02 4.966226e-02 5.329819e-02 5.429601e-02 6.000610e-02 6.252913e-02 6.342704e-02 6.162416e-02 6.426169e-02 6.246111e-02 6.589219e-02 6.451585e-02 6.348628e-02 6.320651e-02 6.341430e-02 6.338055e-02 6.331620e-02 6.348313e-02 6.322792e-02 6.347015e-02 6.493892e-02 6.542504e-02 6.341542e-02 6.364841e-02 6.282876e-02 6.331044e-02 6.265388e-02 6.327665e-02 6.259288e-02 6.331551e-02 6.258141e-02 6.336004e-02 6.259710e-02 6.339050e-02 6.262744e-02 6.340200e-02 6.266122e-02 6.339302e-02 6.268739e-02 6.336105e-02 6.269624e-02 6.330202e-02 6.268207e-02 6.321057e-02 6.264444e-02 6.308341e-02 6.259084e-02 6.292936e-02 6.255246e-02 6.280088e-02 6.262405e-02 6.286505e-02 6.304032e-02 6.356655e-02 6.480349e-02 6.802125e-02 7.072585e-02 6.477941e-02 6.528573e-02 6.472090e-02 6.280689e-02 6.095666e-02 6.213518e-02 6.044208e-02 5.911208e-02 5.698372e-02 5.808706e-02 5.664052e-02 5.570112e-02 5.262455e-02 5.283284e-02 5.387987e-02 5.748731e-02 5.997046e-02 6.124173e-02 6.282414e-02 6.267397e-02 6.396797e-02 6.320285e-02 6.438417e-02 6.339979e-02 6.446706e-02 6.350106e-02 6.438851e-02 6.360000e-02 6.422785e-02 6.372642e-02 6.402552e-02 6.388073e-02 6.380587e-02 6.405192e-02 6.358712e-02 6.422641e-02 6.338471e-02 6.439036e-02 6.321310e-02 6.452947e-02 6.308561e-02 6.462923e-02 6.301161e-02 6.467717e-02 6.299830e-02 6.466489e-02 6.304949e-02 6.458982e-02 6.316448e-02 6.445517e-02 6.333707e-02 6.427033e-02 6.355384e-02 6.405004e-02 6.379318e-02 6.381604e-02 6.402598e-02 6.359857e-02 6.421312e-02 6.342970e-02 6.429400e-02 6.330342e-02 6.416382e-02 6.299605e-02 6.398402e-02 5.831691e-02 5.373609e-02 5.205752e-02 4.909438e-02 4.947002e-02 
4.714449e-02 4.848906e-02 4.882651e-02 5.135330e-02 5.255370e-02 5.579456e-02 5.708305e-02 5.955554e-02 6.063094e-02 6.299883e-02 6.569491e-02 6.801861e-02 7.417413e-02 7.403365e-02 7.395034e-02 7.401855e-02 7.399964e-02 7.398553e-02 7.403346e-02 7.394603e-02 7.403866e-02 7.427366e-02 6.715070e-02 6.599955e-02 6.285439e-02 6.227347e-02 6.106117e-02 6.043502e-02 6.024312e-02 5.948961e-02 5.986415e-02 5.899887e-02 5.968415e-02 5.875219e-02 5.959271e-02 5.864180e-02 5.953811e-02 5.860761e-02 5.949548e-02 5.861321e-02 5.945207e-02 5.863597e-02 5.940099e-02 5.866361e-02 5.933900e-02 5.869311e-02 5.926748e-02 5.873253e-02 5.919940e-02 5.881065e-02 5.917781e-02 5.899880e-02 5.930659e-02 5.942874e-02 5.974271e-02 6.036889e-02 6.156495e-02 6.366281e-02 6.048307e-02 6.114520e-02 6.041067e-02 5.985322e-02 5.912909e-02 5.884961e-02 5.893976e-02 5.900256e-02 5.813386e-02 5.828942e-02 5.837556e-02 5.853985e-02 5.769986e-02 5.792312e-02 5.673487e-02 5.756862e-02 5.808662e-02 5.816998e-02 5.898624e-02 5.844723e-02 5.949870e-02 5.864197e-02 5.980595e-02 5.881099e-02 5.996232e-02 5.897659e-02 6.000264e-02 5.915273e-02 5.995580e-02 5.934523e-02 5.984677e-02 5.955184e-02 5.969782e-02 5.976451e-02 5.952995e-02 5.997198e-02 5.936327e-02 6.016110e-02 5.921673e-02 6.031780e-02 5.910719e-02 6.042784e-02 5.904797e-02 6.047875e-02 5.904881e-02 6.046210e-02 5.911494e-02 6.037463e-02 5.924562e-02 6.021883e-02 5.943246e-02 6.000231e-02 5.965671e-02 5.973537e-02 5.988546e-02 5.942596e-02 6.006425e-02 5.906726e-02 6.009787e-02 5.860754e-02 5.980595e-02 5.788726e-02 5.883608e-02 5.653787e-02 5.660415e-02 5.371976e-02 5.141771e-02 4.991380e-02 4.803009e-02 4.797542e-02 
5.193658e-02 5.343763e-02 5.312508e-02 5.562867e-02 5.615536e-02 5.916871e-02 6.045709e-02 6.278776e-02 6.403770e-02 6.630297e-02 6.890837e-02 7.098131e-02 7.714911e-02 7.731681e-02 7.719291e-02 7.728572e-02 7.726456e-02 7.723152e-02 7.732009e-02 7.717618e-02 7.733529e-02 7.712086e-02 6.980334e-02 6.900500e-02 6.602743e-02 6.553597e-02 6.445881e-02 6.391059e-02 6.377666e-02 6.313395e-02 6.348571e-02 6.276800e-02 6.336477e-02 6.261216e-02 6.331531e-02 6.257099e-02 6.329392e-02 6.259647e-02 6.328319e-02 6.266377e-02 6.327900e-02 6.276180e-02 6.328566e-02 6.289061e-02 6.331515e-02 6.306222e-02 6.338925e-02 6.330351e-02 6.354401e-02 6.366089e-02 6.383407e-02 6.420160e-02 6.432611e-02 6.499187e-02 6.503126e-02 6.597574e-02 6.578701e-02 6.719301e-02 6.632520e-02 6.721300e-02 6.627997e-02 6.612988e-02 6.520962e-02 6.551994e-02 6.452382e-02 6.426426e-02 6.320595e-02 6.341009e-02 6.236632e-02 6.182449e-02 6.068868e-02 6.123815e-02 6.092629e-02 6.159143e-02 6.186439e-02 6.215737e-02 6.263086e-02 6.254521e-02 6.314109e-02 6.280319e-02 6.344826e-02 6.298202e-02 6.360297e-02 6.312397e-02 6.364845e-02 6.325779e-02 6.361788e-02 6.339860e-02 6.353606e-02 6.355059e-02 6.342237e-02 6.371051e-02 6.329320e-02 6.387045e-02 6.316340e-02 6.401985e-02 6.304700e-02 6.414688e-02 6.295695e-02 6.423984e-02 6.290434e-02 6.428862e-02 6.289745e-02 6.428607e-02 6.294050e-02 6.422896e-02 6.303218e-02 6.411832e-02 6.316398e-02 6.395869e-02 6.331779e-02 6.375529e-02 6.346164e-02 6.350670e-02 6.354078e-02 6.318772e-02 6.345834e-02 6.271336e-02 6.303876e-02 6.187476e-02 6.197214e-02 6.026435e-02 5.978462e-02 5.733532e-02 5.566761e-02 5.446573e-02 5.281789e-02 5.303688e-02 
4.714706e-02 4.848928e-02 4.883030e-02 5.135173e-02 5.255845e-02 5.579103e-02 5.708632e-02 5.955298e-02 6.063269e-02 6.299678e-02 6.569588e-02 6.801619e-02 7.417510e-02 7.403374e-02 7.394993e-02 7.401881e-02 7.399961e-02 7.398584e-02 7.403415e-02 7.394616e-02 7.404016e-02 7.427344e-02 6.716403e-02 6.599038e-02 6.287461e-02 6.225347e-02 6.109078e-02 6.040518e-02 6.028239e-02 5.945396e-02 5.991185e-02 5.896473e-02 5.973718e-02 5.872907e-02 5.964680e-02 5.864162e-02 5.959067e-02 5.864556e-02 5.954891e-02 5.870836e-02 5.951695e-02 5.881195e-02 5.949912e-02 5.894962e-02 5.950645e-02 5.912571e-02 5.955671e-02 5.935626e-02 5.967529e-02 5.966869e-02 5.989417e-02 6.009764e-02 6.024391e-02 6.066843e-02 6.072248e-02 6.134626e-02 6.122110e-02 6.196262e-02 6.133813e-02 6.182176e-02 6.127690e-02 6.151906e-02 6.103535e-02 6.115112e-02 6.079493e-02 6.093757e-02 6.057193e-02 6.064703e-02 6.040123e-02 6.051311e-02 6.025501e-02 6.022042e-02 5.995049e-02 5.980881e-02 5.987795e-02 5.952196e-02 5.987621e-02 5.931623e-02 5.990078e-02 5.919861e-02 5.992901e-02 5.915954e-02 5.994035e-02 5.918614e-02 5.992128e-02 5.926674e-02 5.986591e-02 5.939090e-02 5.977534e-02 5.954841e-02 5.965639e-02 5.972772e-02 5.951970e-02 5.991500e-02 5.937867e-02 6.009459e-02 5.924858e-02 6.024975e-02 5.914535e-02 6.036448e-02 5.908444e-02 6.042501e-02 5.907858e-02 6.042102e-02 5.913581e-02 6.034711e-02 5.925746e-02 6.020355e-02 5.943617e-02 5.999631e-02 5.965380e-02 5.973549e-02 5.987813e-02 5.942995e-02 6.005475e-02 5.907349e-02 6.008759e-02 5.861473e-02 5.979565e-02 5.789454e-02 5.882634e-02 5.654423e-02 5.659637e-02 5.372370e-02 5.141628e-02 4.991641e-02 4.803115e-02 4.797696e-02 
4.784299e-02 4.994665e-02 4.966945e-02 5.329586e-02 5.430616e-02 5.999677e-02 6.253723e-02 6.342431e-02 6.162875e-02 6.425919e-02 6.246403e-02 6.588783e-02 6.451719e-02 6.348655e-02 6.320447e-02 6.341557e-02 6.337897e-02 6.331738e-02 6.348419e-02 6.322695e-02 6.347660e-02 6.492701e-02 6.545035e-02 6.339617e-02 6.368921e-02 6.279649e-02 6.337405e-02 6.260901e-02 6.336579e-02 6.254334e-02 6.343027e-02 6.254274e-02 6.349708e-02 6.259050e-02 6.354446e-02 6.267992e-02 6.357119e-02 6.280684e-02 6.358571e-02 6.296777e-02 6.360104e-02 6.316097e-02 6.363317e-02 6.338866e-02 6.370059e-02 6.365862e-02 6.382370e-02 6.398400e-02 6.402265e-02 6.437911e-02 6.431115e-02 6.485044e-02 6.468622e-02 6.538061e-02 6.510906e-02 6.590101e-02 6.548314e-02 6.627679e-02 6.568097e-02 6.632369e-02 6.562449e-02 6.609037e-02 6.535644e-02 6.568502e-02 6.495179e-02 6.519237e-02 6.448724e-02 6.465545e-02 6.402499e-02 6.414566e-02 6.364601e-02 6.374808e-02 6.343056e-02 6.344832e-02 6.336384e-02 6.325499e-02 6.339183e-02 6.315342e-02 6.346763e-02 6.312597e-02 6.355435e-02 6.315568e-02 6.362611e-02 6.322991e-02 6.366658e-02 6.333955e-02 6.366739e-02 6.347797e-02 6.362764e-02 6.364004e-02 6.355267e-02 6.381932e-02 6.345144e-02 6.400603e-02 6.333588e-02 6.418745e-02 6.322044e-02 6.434858e-02 6.312111e-02 6.447460e-02 6.305468e-02 6.455255e-02 6.303586e-02 6.457219e-02 6.307499e-02 6.452789e-02 6.317634e-02 6.441970e-02 6.333623e-02 6.425441e-02 6.354273e-02 6.404700e-02 6.377564e-02 6.382127e-02 6.400599e-02 6.360879e-02 6.419299e-02 6.344231e-02 6.427496e-02 6.331654e-02 6.414683e-02 6.300695e-02 6.397124e-02 5.832095e-02 5.373275e-02 5.206140e-02 4.909538e-02 4.947340e-02 
3.713744e-02 3.935052e-02 4.107586e-02 4.633078e-02 5.335017e-02 6.385296e-02 5.907188e-02 6.041646e-02 5.504056e-02 5.703521e-02 5.189086e-02 5.313772e-02 4.644466e-02 4.633467e-02 4.609929e-02 4.627920e-02 4.624623e-02 4.620233e-02 4.633194e-02 4.614058e-02 4.631683e-02 4.678766e-02 5.308824e-02 5.268873e-02 5.580354e-02 5.527647e-02 5.734727e-02 5.654119e-02 5.822989e-02 5.716885e-02 5.872895e-02 5.751030e-02 5.899504e-02 5.773344e-02 5.911370e-02 5.791899e-02 5.914336e-02 5.810348e-02 5.912575e-02 5.829793e-02 5.908997e-02 5.850099e-02 5.905824e-02 5.871023e-02 5.904975e-02 5.892737e-02 5.908285e-02 5.916209e-02 5.917466e-02 5.942443e-02 5.932974e-02 5.971439e-02 5.953817e-02 6.001896e-02 5.977147e-02 6.029853e-02 5.997333e-02 6.047777e-02 6.007688e-02 6.049574e-02 6.008674e-02 6.043678e-02 6.006589e-02 6.028580e-02 5.997225e-02 6.015523e-02 5.989804e-02 5.998015e-02 5.980188e-02 5.984552e-02 5.977015e-02 5.965227e-02 5.965779e-02 5.937215e-02 5.955600e-02 5.910528e-02 5.950744e-02 5.890088e-02 5.950431e-02 5.877033e-02 5.952540e-02 5.871592e-02 5.954973e-02 5.873312e-02 5.955338e-02 5.881018e-02 5.951570e-02 5.893663e-02 5.942944e-02 5.910859e-02 5.930124e-02 5.932012e-02 5.914069e-02 5.955583e-02 5.896142e-02 5.979568e-02 5.878170e-02 6.001365e-02 5.862240e-02 6.018529e-02 5.851117e-02 6.029043e-02 5.847300e-02 6.031007e-02 5.852707e-02 6.023280e-02 5.868518e-02 6.005526e-02 5.894733e-02 5.978511e-02 5.930399e-02 5.944705e-02 5.974272e-02 5.908968e-02 6.025852e-02 5.879238e-02 6.087684e-02 5.869473e-02 6.171553e-02 5.906613e-02 6.309754e-02 6.036504e-02 6.700841e-02 6.370861e-02 4.769239e-02 4.426428e-02 3.872706e-02 3.867581e-02 
3.292772e-02 3.683211e-02 3.878676e-02 4.862452e-02 5.733879e-02 5.486277e-02 2.759433e-02 3.960280e-02 2.723043e-02 3.434892e-02 2.507213e-02 2.887220e-02 1.848509e-02 2.258115e-02 2.147282e-02 2.234374e-02 2.243817e-02 2.211915e-02 2.269367e-02 2.169239e-02 2.233693e-02 2.040563e-02 2.803822e-02 2.678052e-02 3.131763e-02 2.975176e-02 3.278720e-02 3.125956e-02 3.346329e-02 3.210658e-02 3.374689e-02 3.265516e-02 3.382446e-02 3.306471e-02 3.379392e-02 3.340691e-02 3.371984e-02 3.371256e-02 3.364613e-02 3.398987e-02 3.360021e-02 3.423724e-02 3.359978e-02 3.445467e-02 3.365688e-02 3.464783e-02 3.378025e-02 3.483144e-02 3.397411e-02 3.501754e-02 3.422342e-02 3.520105e-02 3.449362e-02 3.536068e-02 3.473333e-02 3.545597e-02 3.488484e-02 3.544856e-02 3.490519e-02 3.526276e-02 3.476318e-02 3.488419e-02 3.439693e-02 3.442777e-02 3.395328e-02 3.385235e-02 3.341592e-02 3.331550e-02 3.296442e-02 3.283290e-02 3.260845e-02 3.257779e-02 3.261034e-02 3.264012e-02 3.289377e-02 3.285869e-02 3.326401e-02 3.310065e-02 3.361528e-02 3.332403e-02 3.390300e-02 3.353519e-02 3.411292e-02 3.375070e-02 3.423433e-02 3.397812e-02 3.426048e-02 3.422108e-02 3.420024e-02 3.448527e-02 3.407778e-02 3.476851e-02 3.391737e-02 3.505288e-02 3.374508e-02 3.531366e-02 3.358951e-02 3.551832e-02 3.348059e-02 3.563687e-02 3.345584e-02 3.564598e-02 3.354785e-02 3.552427e-02 3.378010e-02 3.526134e-02 3.416355e-02 3.485837e-02 3.468930e-02 3.433240e-02 3.532984e-02 3.372351e-02 3.604569e-02 3.310058e-02 3.679416e-02 3.256392e-02 3.754224e-02 3.228426e-02 3.829417e-02 3.265750e-02 3.905282e-02 3.492461e-02 4.007888e-02 7.067767e-02 5.259347e-02 4.352923e-02 3.497170e-02 3.550289e-02 
9.402523e-03 1.225741e-02 1.729514e-02 2.543728e-02 3.660679e-02 1.461508e-02 2.807005e-02 2.070544e-02 2.349175e-02 2.121160e-02 2.111719e-02 2.137413e-02 1.836128e-02 2.379938e-02 2.158498e-02 2.585558e-02 2.248291e-02 2.641903e-02 2.214520e-02 2.507391e-02 2.031518e-02 2.062411e-02 2.027158e-02 2.138510e-02 2.062055e-02 2.156779e-02 2.108820e-02 2.157432e-02 2.152315e-02 2.148611e-02 2.188325e-02 2.137083e-02 2.216133e-02 2.127051e-02 2.236076e-02 2.120922e-02 2.249083e-02 2.119851e-02 2.256260e-02 2.124054e-02 2.258777e-02 2.133132e-02 2.258019e-02 2.146484e-02 2.255563e-02 2.163527e-02 2.253100e-02 2.183884e-02 2.252195e-02 2.207001e-02 2.253631e-02 2.231634e-02 2.257208e-02 2.255685e-02 2.261214e-02 2.275198e-02 2.261233e-02 2.283084e-02 2.251983e-02 2.277589e-02 2.235023e-02 2.270552e-02 2.223814e-02 2.249905e-02 2.203377e-02 2.235311e-02 2.193996e-02 2.215551e-02 2.183750e-02 2.209534e-02 2.193000e-02 2.198464e-02 2.184122e-02 2.175643e-02 2.173862e-02 2.156651e-02 2.171654e-02 2.146653e-02 2.176534e-02 2.143668e-02 2.185265e-02 2.145059e-02 2.195248e-02 2.148894e-02 2.204445e-02 2.154013e-02 2.211362e-02 2.160027e-02 2.215269e-02 2.167209e-02 2.215963e-02 2.175986e-02 2.213177e-02 2.186429e-02 2.206868e-02 2.198413e-02 2.197327e-02 2.211548e-02 2.185235e-02 2.225547e-02 2.171790e-02 2.240408e-02 2.158224e-02 2.256007e-02 2.145671e-02 2.272077e-02 2.135059e-02 2.287828e-02 2.126903e-02 2.301898e-02 2.121487e-02 2.312690e-02 2.119510e-02 2.318775e-02 2.123419e-02 2.319012e-02 2.139514e-02 2.312716e-02 2.185144e-02 2.297648e-02 2.319336e-02 2.270896e-02 3.094923e-02 3.398939e-02 3.698535e-02 1.709713e-02 1.352385e-02 9.986975e-03 
1.020579e-02 8.265544e-03 9.097133e-03 6.768891e-03 1.062703e-02 2.556936e-02 1.076873e-02 1.490789e-02 3.392237e-03 1.109774e-02 8.939076e-04 1.086032e-02 1.105127e-02 1.712862e-02 2.081063e-02 2.112407e-02 2.243287e-02 2.283965e-02 2.086423e-02 2.051159e-02 1.791013e-02 9.605838e-03 5.273492e-03 2.620395e-03 5.661188e-03 4.842816e-03 8.064760e-03 6.559385e-03 9.331066e-03 7.402941e-03 9.952642e-03 7.871676e-03 1.023533e-02 8.195199e-03 1.032949e-02 8.471533e-03 1.032071e-02 8.738125e-03 1.026170e-02 9.000761e-03 1.018483e-02 9.250870e-03 1.011190e-02 9.479168e-03 1.005839e-02 9.680801e-03 1.003503e-02 9.859243e-03 1.004621e-02 1.001530e-02 1.007613e-02 1.013560e-02 1.009306e-02 1.020377e-02 1.006923e-02 1.022611e-02 1.003778e-02 1.031437e-02 1.008358e-02 1.034851e-02 1.010763e-02 9.924885e-03 9.606131e-03 9.661334e-03 9.279486e-03 8.889045e-03 8.507340e-03 8.293862e-03 7.977825e-03 7.340281e-03 7.128171e-03 6.980517e-03 7.560963e-03 7.557249e-03 8.609365e-03 8.341905e-03 9.586756e-03 8.936747e-03 1.030212e-02 9.314058e-03 1.076681e-02 9.556159e-03 1.103802e-02 9.747340e-03 1.115616e-02 9.939435e-03 1.114330e-02 1.016002e-02 1.102211e-02 1.042530e-02 1.082268e-02 1.073558e-02 1.057201e-02 1.107048e-02 1.029909e-02 1.140020e-02 1.003709e-02 1.168607e-02 9.821981e-03 1.189247e-02 9.698213e-03 1.199163e-02 9.704725e-03 1.195887e-02 9.868798e-03 1.178067e-02 1.020102e-02 1.145335e-02 1.068716e-02 1.098525e-02 1.129099e-02 1.040194e-02 1.196381e-02 9.749676e-03 1.265545e-02 9.094816e-03 1.332548e-02 8.564611e-03 1.397238e-02 8.602485e-03 1.465389e-02 1.183160e-02 2.188517e-02 1.460774e-02 9.261149e-03 3.902726e-03 9.304390e-03 8.127654e-03 
3.147104e-03 1.147877e-03 3.299042e-03 3.612804e-03 3.683484e-03 9.976662e-03 8.347640e-03 6.180892e-03 4.965059e-03 8.734220e-03 9.274623e-03 1.801744e-02 2.377689e-02 2.441406e-02 1.141195e-02 7.374117e-03 3.040100e-03 3.795037e-03 6.712194e-03 1.176567e-02 2.469944e-02 2.443707e-02 1.578043e-02 1.035278e-02 6.366142e-03 4.375328e-03 2.619017e-03 2.223713e-03 9.955868e-04 1.668470e-03 2.720646e-04 1.534967e-03 1.334304e-04 1.414822e-03 3.178049e-04 1.251938e-03 4.487585e-04 1.058357e-03 5.374490e-04 8.535347e-04 5.861709e-04 6.533142e-04 5.929570e-04 4.658579e-04 5.552140e-04 2.935829e-04 4.700587e-04 1.558044e-04 3.341198e-04 1.978268e-04 1.522569e-04 3.962203e-04 7.788386e-05 6.171939e-04 2.557493e-04 7.290535e-04 3.961667e-04 7.888066e-04 2.686942e-04 2.111589e-04 6.447606e-04 1.261882e-03 1.365496e-03 1.700992e-03 2.570293e-03 3.145690e-03 3.608820e-03 4.025684e-03 4.657445e-03 5.021766e-03 5.061015e-03 5.260405e-03 5.025048e-03 4.724643e-03 3.714874e-03 3.481066e-03 2.272797e-03 2.375414e-03 1.140063e-03 1.584356e-03 4.000072e-04 1.058029e-03 2.391459e-04 6.899372e-04 4.163819e-04 3.969015e-04 4.677898e-04 1.833765e-04 4.011608e-04 3.156731e-04 2.694605e-04 6.236839e-04 1.943869e-04 9.512321e-04 3.163000e-04 1.255891e-03 4.889490e-04 1.500171e-03 6.165357e-04 1.649693e-03 6.551214e-04 1.677159e-03 5.839983e-04 1.564366e-03 4.347255e-04 1.311634e-03 4.466165e-04 9.559861e-04 8.452141e-04 6.606795e-04 1.433874e-03 8.261370e-04 2.079380e-03 1.353512e-03 2.677949e-03 1.924205e-03 3.096601e-03 2.419420e-03 3.117761e-03 2.942889e-03 2.242883e-03 4.779921e-03 4.739776e-03 5.570848e-03 2.561234e-03 1.658968e-03 3.386546e-03 6.482397e-04 
