# vtk DataFile Version 2.0
Comment goes here
ASCII

DATASET STRUCTURED_POINTS
FIELD FieldData 1
TIME 1 1 double
0.35000000
DIMENSIONS    128   16   1

ORIGIN    0.000   0.000   0.000
SPACING   0.0078125 0.015625   1.000

POINT_DATA   2048
SCALARS uX double
LOOKUP_TABLE default

-2.826283e-03 5.717780e-04 -2.916128e-03 2.581320e-03 -2.553290e-03 7.616845e-03 -2.230056e-03 1.524854e-03 -2.058166e-04 2.826458e-04 2.213065e-04 -6.179512e-04 5.772399e-04 1.442796e-03 3.160834e-03 7.608885e-04 4.611845e-03 1.439167e-03 4.250152e-03 1.903557e-03 3.157155e-03 -8.780274e-04 1.178291e-03 -8.815083e-04 1.612159e-03 -4.555793e-04 1.692877e-03 -9.618924e-05 1.594467e-03 2.548921e-04 1.401404e-03 5.929809e-04 1.165914e-03 9.014709e-04 9.263724e-04 1.157258e-03 7.136990e-04 1.344097e-03 5.590716e-04 1.458559e-03 4.873160e-04 1.500572e-03 5.005705e-04 1.462964e-03 5.799467e-04 1.348237e-03 7.049002e-04 1.167651e-03 8.378700e-04 9.123050e-04 8.926416e-04 5.093105e-04 6.648702e-04 -3.013066e-04 -3.985607e-04 -2.453828e-03 -3.893662e-03 -5.779115e-03 -4.928896e-03 -8.322308e-03 -7.646567e-03 -7.105715e-03 -7.335470e-03 -9.459282e-03 -9.043571e-03 -7.194495e-03 -6.903125e-03 -8.813017e-03 -6.944370e-03 -3.723365e-03 -9.288320e-04 -3.712984e-03 -4.358689e-03 -1.809208e-03 -1.281753e-03 2.460036e-05 3.298219e-05 6.372790e-04 5.423477e-04 7.581420e-04 7.656239e-04 6.970600e-04 9.298378e-04 5.789796e-04 1.088955e-03 4.285172e-04 1.221255e-03 2.643397e-04 1.310532e-03 1.357135e-04 1.351013e-03 8.697598e-05 1.322026e-03 1.385550e-04 1.201453e-03 2.965398e-04 9.832907e-04 5.564571e-04 6.816675e-04 8.941597e-04 3.213247e-04 1.262856e-03 -6.123269e-05 1.604278e-03 -4.066398e-04 1.868001e-03 -6.387774e-04 2.000018e-03 -6.950503e-04 1.940721e-03 -5.247407e-04 1.654754e-03 -9.275275e-05 1.132297e-03 5.968316e-04 3.983376e-04 1.472945e-03 -4.685474e-04 2.369077e-03 -1.284485e-03 2.917750e-03 -1.774607e-03 1.900525e-03 -7.560419e-04 -2.048412e-03 -1.146669e-03 -2.736805e-03 -5.197735e-04 
-2.268063e-03 6.468580e-04 -2.258562e-03 2.409754e-03 -2.138636e-03 9.081389e-03 -1.845832e-03 5.313039e-04 1.610038e-03 -4.835803e-04 3.872456e-03 -6.633714e-04 7.195525e-03 5.035804e-04 6.319006e-03 1.181462e-03 5.658418e-03 1.621791e-03 5.026043e-03 2.508180e-03 4.055372e-03 4.237471e-03 2.122017e-03 1.792272e-03 1.521785e-03 7.929436e-04 1.149656e-03 3.403383e-04 7.955121e-04 2.008003e-04 4.728362e-04 2.735256e-04 1.771863e-04 4.179009e-04 -1.108731e-04 5.700793e-04 -3.473621e-04 6.950761e-04 -5.203830e-04 7.577492e-04 -6.068351e-04 7.559121e-04 -6.035602e-04 6.771154e-04 -5.227961e-04 5.324322e-04 -3.898092e-04 3.102792e-04 -2.731631e-04 -3.373378e-05 -3.140048e-04 -6.377432e-04 -8.040753e-04 -1.864830e-03 -2.562155e-03 -5.110502e-03 -7.427594e-03 -7.648622e-03 -3.848679e-03 -5.324967e-03 -3.974274e-03 -5.172848e-03 -5.363956e-03 -4.079516e-03 -4.626637e-03 -5.443228e-03 -5.602625e-03 -5.630886e-03 -4.997514e-03 -8.109632e-03 -7.592289e-03 -8.519785e-03 -8.563541e-03 -4.637187e-03 -3.981208e-03 -1.973382e-03 -1.919597e-03 -8.644161e-04 -9.673574e-04 -4.057416e-04 -5.051772e-04 -2.751845e-04 -2.225630e-04 -2.735448e-04 2.266988e-06 -3.782412e-04 1.397345e-04 -5.566619e-04 2.248695e-04 -7.059147e-04 2.711410e-04 -7.810805e-04 2.494042e-04 -7.530948e-04 1.426311e-04 -6.029828e-04 -5.060090e-05 -3.345700e-04 -3.403599e-04 -4.347573e-06 -7.132575e-04 3.683093e-04 -1.098161e-03 7.261974e-04 -1.462722e-03 9.984057e-04 -1.716125e-03 1.154014e-03 -1.795457e-03 1.095367e-03 -1.668239e-03 8.095343e-04 -1.239059e-03 3.083568e-04 -5.127854e-04 -4.379968e-04 4.309655e-04 -1.401485e-03 1.479502e-03 -2.439247e-03 2.370476e-03 -3.321082e-03 2.030363e-03 -1.036421e-03 -3.835919e-03 -1.401484e-03 -2.787632e-03 -4.425984e-04 
-2.608352e-03 -1.079716e-03 -3.354557e-03 -2.074335e-03 -5.268456e-03 2.057396e-03 -2.377975e-03 6.511981e-04 -2.257074e-03 1.466733e-04 -2.647087e-03 -2.942121e-05 -4.178749e-03 -2.257213e-03 -4.663156e-03 -2.690274e-03 -4.707194e-03 -3.705307e-03 -3.731130e-03 -4.850669e-03 -2.131929e-03 -4.734846e-03 7.912372e-05 -3.593500e-03 2.013952e-04 -3.140241e-03 2.345016e-04 -2.743979e-03 7.767637e-05 -2.393353e-03 -1.513774e-04 -1.959646e-03 -4.154568e-04 -1.553887e-03 -7.443670e-04 -1.173544e-03 -1.025538e-03 -8.165003e-04 -1.247991e-03 -5.307661e-04 -1.361137e-03 -3.038005e-04 -1.341971e-03 -1.512058e-04 -1.149551e-03 -3.163053e-06 -7.311242e-04 1.878183e-04 -5.731976e-05 5.457405e-04 1.018942e-03 1.405918e-03 2.994293e-03 3.642908e-03 7.043151e-03 8.961665e-03 1.517473e-02 1.560728e-02 1.713195e-02 1.934917e-02 2.139442e-02 1.883805e-02 2.114854e-02 2.212517e-02 2.255287e-02 1.930993e-02 1.902284e-02 2.068156e-02 1.751716e-02 1.360537e-02 8.813717e-03 1.261678e-02 1.212732e-02 7.715863e-03 5.477497e-03 3.250184e-03 2.004711e-03 1.131212e-03 3.639391e-04 1.112134e-04 -4.018136e-04 -4.757961e-04 -6.582713e-04 -7.894060e-04 -6.054220e-04 -1.079609e-03 -5.384857e-04 -1.423514e-03 -4.464245e-04 -1.668289e-03 -3.257832e-04 -1.800312e-03 -2.716332e-04 -1.819876e-03 -3.178490e-04 -1.691395e-03 -4.564103e-04 -1.422695e-03 -7.478266e-04 -1.129310e-03 -1.186045e-03 -7.634971e-04 -1.626463e-03 -3.781020e-04 -2.082476e-03 -7.208915e-05 -2.424241e-03 1.831505e-04 -2.581663e-03 2.174214e-04 -2.584770e-03 3.145180e-05 -2.251905e-03 -3.257151e-04 -1.599886e-03 -9.966241e-04 -7.468014e-04 -2.050088e-03 2.978283e-04 -3.359691e-03 1.622144e-03 -4.476142e-03 3.178302e-03 -2.934970e-03 -7.648611e-03 -2.629959e-03 -3.665751e-03 -1.213752e-03 
-9.448431e-05 -2.039463e-03 -5.449107e-04 -6.030406e-03 -3.048564e-03 -1.446683e-02 1.389765e-03 7.948566e-04 -2.966277e-03 2.127069e-03 -4.771258e-03 2.086241e-03 -6.847996e-03 1.078759e-03 -5.716596e-03 2.285142e-04 -4.753674e-03 -4.735295e-04 -3.808526e-03 -1.641895e-03 -2.599113e-03 -3.557686e-03 -5.610090e-04 -2.330013e-03 1.392940e-04 -1.986498e-03 4.649947e-04 -1.850567e-03 5.810708e-04 -1.790882e-03 5.665254e-04 -1.699704e-03 4.704777e-04 -1.561227e-03 3.174265e-04 -1.347359e-03 1.626318e-04 -1.057877e-03 2.083570e-05 -7.231166e-04 -8.025398e-05 -3.666738e-04 -1.258580e-04 -2.369368e-05 -7.569911e-05 3.198001e-04 1.218623e-04 6.821911e-04 5.076857e-04 1.146373e-03 1.224676e-03 1.969444e-03 2.649765e-03 3.741641e-03 5.652267e-03 7.785008e-03 1.148579e-02 1.049216e-02 6.942538e-03 7.562345e-03 6.098387e-03 6.698643e-03 7.290876e-03 4.611231e-03 5.612681e-03 6.798440e-03 6.552702e-03 7.237775e-03 5.926107e-03 1.137565e-02 1.048554e-02 1.127512e-02 1.097474e-02 6.660499e-03 5.618064e-03 3.444849e-03 2.699442e-03 1.888609e-03 1.142105e-03 1.059458e-03 3.157746e-04 5.492132e-04 -6.437211e-05 2.350125e-04 -1.618100e-04 -2.264938e-06 -1.466655e-04 -2.082720e-04 -5.555990e-05 -3.411639e-04 8.820250e-05 -4.192240e-04 2.141315e-04 -4.784731e-04 2.907642e-04 -5.112248e-04 3.189961e-04 -5.241393e-04 2.647976e-04 -5.502927e-04 1.387237e-04 -5.389338e-04 5.098611e-08 -4.840385e-04 -1.624950e-04 -3.982012e-04 -3.113316e-04 -2.428922e-04 -4.307250e-04 -6.505873e-05 -5.691054e-04 1.203972e-04 -6.910921e-04 3.301917e-04 -8.108800e-04 4.951947e-04 -9.620960e-04 5.710771e-04 -1.087545e-03 5.660835e-04 -9.745892e-04 5.242017e-04 5.838903e-05 -3.897171e-03 -3.607672e-03 -1.998459e-03 -9.008350e-04 -9.908775e-04 
4.422022e-03 1.330736e-03 4.882834e-03 -2.360681e-04 5.211601e-03 -1.061434e-02 3.473070e-03 -6.491769e-04 1.466491e-03 1.274869e-03 2.523726e-03 2.082922e-03 6.247518e-03 4.215529e-03 5.631876e-03 4.795572e-03 5.239183e-03 5.196162e-03 4.752725e-03 5.831574e-03 3.936828e-03 6.961898e-03 1.189017e-03 3.755389e-03 7.573275e-04 2.423527e-03 6.497345e-04 1.606796e-03 7.423969e-04 1.057081e-03 8.661352e-04 5.521985e-04 9.844560e-04 1.668820e-04 1.143130e-03 -1.220939e-04 1.242256e-03 -3.421611e-04 1.276534e-03 -4.754683e-04 1.196831e-03 -5.726946e-04 9.696827e-04 -6.631479e-04 5.429819e-04 -8.548310e-04 -1.604830e-04 -1.242402e-03 -1.233744e-03 -2.016808e-03 -2.938349e-03 -3.635401e-03 -6.026740e-03 -7.296547e-03 -1.233261e-02 -1.562252e-02 -2.470492e-02 -2.220196e-02 -1.958822e-02 -2.009680e-02 -1.939711e-02 -1.947232e-02 -2.068266e-02 -1.792517e-02 -1.863443e-02 -1.975467e-02 -1.873012e-02 -2.042435e-02 -1.702831e-02 -2.295666e-02 -1.979572e-02 -2.229000e-02 -2.127738e-02 -1.377587e-02 -1.049532e-02 -6.800369e-03 -5.038860e-03 -3.310781e-03 -2.343065e-03 -1.532886e-03 -9.663296e-04 -5.518709e-04 -3.051493e-04 -4.204932e-05 -4.295284e-05 3.396395e-04 1.535846e-04 7.249884e-04 2.896216e-04 1.000080e-03 3.647854e-04 1.163098e-03 4.558567e-04 1.206901e-03 5.867297e-04 1.100557e-03 7.528587e-04 8.520946e-04 1.014260e-03 5.767684e-04 1.381496e-03 2.423137e-04 1.733181e-03 -9.383363e-05 2.095060e-03 -3.314360e-04 2.353255e-03 -4.914999e-04 2.446967e-03 -4.118864e-04 2.390060e-03 -1.091455e-04 1.990091e-03 3.679855e-04 1.251561e-03 1.154560e-03 2.750135e-04 2.315823e-03 -9.416448e-04 3.689427e-03 -2.521727e-03 4.616074e-03 -4.228497e-03 6.306162e-04 7.450669e-03 2.757641e-03 5.044025e-03 2.099462e-03 
7.145160e-03 6.494818e-03 7.605597e-03 8.384431e-03 9.781209e-03 9.581786e-03 5.212242e-03 3.933223e-03 6.418763e-03 4.208797e-03 6.665275e-03 4.471119e-03 6.508004e-03 5.829327e-03 6.371553e-03 5.972223e-03 6.187860e-03 6.154552e-03 5.974166e-03 6.333725e-03 5.785872e-03 6.410841e-03 3.408982e-03 5.905404e-03 3.749024e-03 6.204221e-03 4.107266e-03 6.341310e-03 4.440326e-03 6.342260e-03 4.721298e-03 6.172242e-03 4.969295e-03 5.944976e-03 5.229967e-03 5.680350e-03 5.437228e-03 5.392184e-03 5.588021e-03 5.124651e-03 5.645691e-03 4.878698e-03 5.592187e-03 4.674806e-03 5.391668e-03 4.472490e-03 5.008913e-03 4.262231e-03 4.449591e-03 3.998506e-03 3.645388e-03 3.496334e-03 2.294708e-03 2.243355e-03 -3.119113e-04 -7.398818e-04 -5.375761e-03 -3.428242e-03 -3.149816e-03 -4.488521e-03 -2.451446e-03 -2.547386e-03 -3.383326e-03 -1.869011e-03 -2.532376e-03 -2.590518e-03 -1.045777e-03 -3.595430e-03 -2.277721e-04 -2.789094e-03 -8.739383e-04 -9.945441e-04 -2.395474e-03 1.157997e-03 1.351080e-03 3.155086e-03 3.407723e-03 4.165451e-03 4.489838e-03 4.707971e-03 5.043285e-03 5.070250e-03 5.251686e-03 5.292654e-03 5.236275e-03 5.522485e-03 5.203432e-03 5.799243e-03 5.142504e-03 6.003858e-03 5.048510e-03 6.125212e-03 4.996977e-03 6.170359e-03 5.016078e-03 6.110877e-03 5.100654e-03 5.953866e-03 5.302262e-03 5.781408e-03 5.615594e-03 5.548734e-03 5.935149e-03 5.287957e-03 6.273583e-03 5.066457e-03 6.540559e-03 4.857451e-03 6.685283e-03 4.779876e-03 6.737307e-03 4.840088e-03 6.570114e-03 5.001693e-03 6.192612e-03 5.368883e-03 5.681119e-03 5.977295e-03 5.011886e-03 6.700792e-03 4.063820e-03 7.253712e-03 2.942063e-03 9.131430e-03 1.179143e-02 8.082123e-03 8.247984e-03 6.490210e-03 
8.132781e-03 7.505759e-03 8.422885e-03 8.832705e-03 9.727788e-03 1.231289e-02 8.495909e-03 7.341082e-03 9.496665e-03 6.907665e-03 8.974647e-03 6.714134e-03 7.081907e-03 6.378311e-03 6.953146e-03 6.535650e-03 6.746750e-03 6.748260e-03 6.509566e-03 6.964506e-03 6.313624e-03 7.057436e-03 6.626547e-03 8.207921e-03 6.925209e-03 8.681099e-03 7.107758e-03 8.834148e-03 7.268839e-03 8.813362e-03 7.431521e-03 8.682621e-03 7.599302e-03 8.490945e-03 7.766927e-03 8.264341e-03 7.911962e-03 8.023028e-03 8.017914e-03 7.787197e-03 8.066201e-03 7.570854e-03 8.047104e-03 7.389208e-03 7.955477e-03 7.251003e-03 7.810420e-03 7.190514e-03 7.693016e-03 7.293223e-03 7.784621e-03 7.770147e-03 8.519668e-03 9.212827e-03 1.110967e-02 1.352956e-02 1.805875e-02 1.626344e-02 1.287145e-02 1.330977e-02 1.180980e-02 1.304365e-02 1.351402e-02 1.060024e-02 1.158910e-02 1.306862e-02 1.327080e-02 1.310513e-02 1.215942e-02 1.773808e-02 1.753674e-02 1.804509e-02 1.800582e-02 1.279559e-02 1.151934e-02 9.301573e-03 9.092966e-03 8.070125e-03 8.273089e-03 7.705783e-03 8.026499e-03 7.688931e-03 7.947199e-03 7.794031e-03 7.892784e-03 7.949109e-03 7.846736e-03 8.117743e-03 7.800445e-03 8.254838e-03 7.756750e-03 8.341467e-03 7.741565e-03 8.374862e-03 7.771675e-03 8.347599e-03 7.852244e-03 8.266988e-03 7.994105e-03 8.154469e-03 8.185178e-03 8.011816e-03 8.391184e-03 7.857387e-03 8.591408e-03 7.717474e-03 8.749672e-03 7.604990e-03 8.836619e-03 7.552757e-03 8.845172e-03 7.577834e-03 8.753699e-03 7.676945e-03 8.571567e-03 7.857604e-03 8.340791e-03 8.094159e-03 8.123696e-03 8.328894e-03 8.085183e-03 8.615271e-03 8.609996e-03 1.039713e-02 9.623527e-03 8.360291e-03 8.470790e-03 7.445507e-03 
8.733488e-03 8.606137e-03 8.702969e-03 8.940183e-03 8.899840e-03 9.503215e-03 8.727673e-03 8.437833e-03 8.414101e-03 7.843173e-03 7.710668e-03 7.802319e-03 6.628612e-03 6.285402e-03 6.521110e-03 6.316621e-03 6.415063e-03 6.397795e-03 6.327447e-03 6.501772e-03 6.290413e-03 6.610873e-03 8.568374e-03 8.322683e-03 8.131816e-03 8.658072e-03 7.815976e-03 8.807637e-03 7.712756e-03 8.849487e-03 7.750717e-03 8.811137e-03 7.870426e-03 8.717853e-03 8.029410e-03 8.590659e-03 8.191478e-03 8.450278e-03 8.332690e-03 8.317672e-03 8.435017e-03 8.208784e-03 8.489284e-03 8.136993e-03 8.493914e-03 8.108801e-03 8.460443e-03 8.134782e-03 8.428693e-03 8.243751e-03 8.495079e-03 8.530537e-03 8.900876e-03 9.281346e-03 1.029360e-02 1.150976e-02 1.444616e-02 1.393037e-02 1.300783e-02 1.523279e-02 1.323455e-02 1.350074e-02 1.402686e-02 1.387741e-02 1.429548e-02 1.366563e-02 1.292174e-02 1.495358e-02 1.257586e-02 1.284678e-02 1.120360e-02 1.215598e-02 1.369260e-02 1.079672e-02 1.058991e-02 9.297786e-03 9.318565e-03 8.726780e-03 8.807081e-03 8.542585e-03 8.590841e-03 8.527261e-03 8.458474e-03 8.575181e-03 8.340146e-03 8.655839e-03 8.236313e-03 8.750599e-03 8.150690e-03 8.829519e-03 8.089266e-03 8.871978e-03 8.066334e-03 8.866899e-03 8.092368e-03 8.807873e-03 8.170806e-03 8.698815e-03 8.302223e-03 8.554869e-03 8.474814e-03 8.388431e-03 8.663013e-03 8.220461e-03 8.842294e-03 8.075433e-03 8.979683e-03 7.972857e-03 9.047646e-03 7.939143e-03 9.029554e-03 7.986978e-03 8.908316e-03 8.116495e-03 8.691953e-03 8.326533e-03 8.419456e-03 8.599425e-03 8.167731e-03 8.908526e-03 8.104246e-03 9.267299e-03 8.520494e-03 9.521557e-03 9.191017e-03 9.033532e-03 8.967686e-03 8.655469e-03 
8.911895e-03 8.678312e-03 8.973511e-03 9.130096e-03 9.150090e-03 9.618458e-03 8.967136e-03 8.534870e-03 8.697194e-03 7.802065e-03 7.983462e-03 7.831858e-03 7.043832e-03 6.642207e-03 6.939146e-03 6.704305e-03 6.806600e-03 6.826138e-03 6.679373e-03 6.960665e-03 6.610591e-03 7.068676e-03 9.044107e-03 8.872283e-03 8.625805e-03 9.194220e-03 8.301287e-03 9.280116e-03 8.164688e-03 9.250823e-03 8.165741e-03 9.162021e-03 8.252269e-03 9.040109e-03 8.382476e-03 8.904984e-03 8.527540e-03 8.774890e-03 8.668011e-03 8.665926e-03 8.792405e-03 8.593010e-03 8.898699e-03 8.570872e-03 8.994767e-03 8.613828e-03 9.100917e-03 8.740511e-03 9.257566e-03 8.984010e-03 9.537110e-03 9.409018e-03 1.005741e-02 1.011508e-02 1.094053e-02 1.117636e-02 1.223442e-02 1.221998e-02 1.198952e-02 1.243909e-02 1.195781e-02 1.169827e-02 1.178166e-02 1.198416e-02 1.209551e-02 1.174331e-02 1.153192e-02 1.239798e-02 1.191151e-02 1.163228e-02 1.110222e-02 1.135056e-02 1.201204e-02 1.086204e-02 1.102804e-02 9.971427e-03 1.014614e-02 9.357556e-03 9.560714e-03 9.031863e-03 9.201062e-03 8.892437e-03 8.960657e-03 8.854591e-03 8.783337e-03 8.872703e-03 8.650532e-03 8.916821e-03 8.556239e-03 8.960060e-03 8.498278e-03 8.981042e-03 8.479039e-03 8.967516e-03 8.501721e-03 8.913876e-03 8.565538e-03 8.820753e-03 8.664988e-03 8.696051e-03 8.790577e-03 8.554838e-03 8.929193e-03 8.416030e-03 9.061928e-03 8.297098e-03 9.166565e-03 8.214578e-03 9.223970e-03 8.183171e-03 9.221365e-03 8.210843e-03 9.153974e-03 8.295779e-03 9.030861e-03 8.427102e-03 8.881704e-03 8.589363e-03 8.767215e-03 8.782541e-03 8.788692e-03 9.049041e-03 9.027425e-03 9.350418e-03 9.215992e-03 8.944621e-03 9.036058e-03 8.626583e-03 
8.736797e-03 8.610528e-03 8.704254e-03 8.943553e-03 8.899079e-03 9.505722e-03 8.724757e-03 8.441895e-03 8.409886e-03 7.845622e-03 7.705700e-03 7.802463e-03 6.627050e-03 6.286381e-03 6.521338e-03 6.320094e-03 6.418369e-03 6.404460e-03 6.334135e-03 6.511049e-03 6.299103e-03 6.618995e-03 8.586222e-03 8.329552e-03 8.156777e-03 8.663561e-03 7.846789e-03 8.809080e-03 7.740337e-03 8.848844e-03 7.778515e-03 8.825880e-03 7.904703e-03 8.760064e-03 8.073657e-03 8.677395e-03 8.260906e-03 8.602021e-03 8.443697e-03 8.547886e-03 8.606671e-03 8.529581e-03 8.749260e-03 8.564668e-03 8.883181e-03 8.666225e-03 9.023861e-03 8.842464e-03 9.199831e-03 9.112397e-03 9.461218e-03 9.511973e-03 9.883197e-03 1.010469e-02 1.054308e-02 1.091921e-02 1.136814e-02 1.174072e-02 1.171101e-02 1.231479e-02 1.198167e-02 1.230650e-02 1.210075e-02 1.231558e-02 1.208561e-02 1.216125e-02 1.175150e-02 1.201195e-02 1.146527e-02 1.137931e-02 1.100958e-02 1.073559e-02 1.083911e-02 1.008749e-02 1.019009e-02 9.491633e-03 9.608346e-03 9.108563e-03 9.195156e-03 8.918647e-03 8.901473e-03 8.844645e-03 8.666974e-03 8.837194e-03 8.473750e-03 8.872403e-03 8.323010e-03 8.929867e-03 8.218995e-03 8.982015e-03 8.157016e-03 8.999863e-03 8.138830e-03 8.971875e-03 8.171975e-03 8.894392e-03 8.255007e-03 8.764491e-03 8.373776e-03 8.586656e-03 8.517723e-03 8.389904e-03 8.683305e-03 8.205690e-03 8.844733e-03 8.051041e-03 8.969993e-03 7.948751e-03 9.033422e-03 7.918104e-03 9.013342e-03 7.973717e-03 8.901588e-03 8.119447e-03 8.699363e-03 8.340268e-03 8.433219e-03 8.613539e-03 8.181923e-03 8.921515e-03 8.122206e-03 9.282635e-03 8.539043e-03 9.536054e-03 9.203573e-03 9.043841e-03 8.974491e-03 8.661945e-03 
8.138077e-03 7.514752e-03 8.425533e-03 8.839671e-03 9.725586e-03 1.231617e-02 8.484832e-03 7.349471e-03 9.477524e-03 6.909911e-03 8.952631e-03 6.712132e-03 7.070399e-03 6.380367e-03 6.951944e-03 6.541953e-03 6.753090e-03 6.761162e-03 6.523341e-03 6.985730e-03 6.333910e-03 7.081209e-03 6.669136e-03 8.234289e-03 6.988416e-03 8.709640e-03 7.188636e-03 8.858696e-03 7.348324e-03 8.834098e-03 7.513698e-03 8.733007e-03 7.698536e-03 8.599600e-03 7.896317e-03 8.474203e-03 8.109436e-03 8.384983e-03 8.323864e-03 8.339375e-03 8.527193e-03 8.346949e-03 8.721409e-03 8.421878e-03 8.918471e-03 8.571475e-03 9.126130e-03 8.793784e-03 9.359672e-03 9.094646e-03 9.639786e-03 9.468913e-03 9.971533e-03 9.903280e-03 1.034241e-02 1.034799e-02 1.066060e-02 1.068356e-02 1.077304e-02 1.081184e-02 1.076059e-02 1.075028e-02 1.069088e-02 1.063368e-02 1.059850e-02 1.049374e-02 1.049479e-02 1.035959e-02 1.043367e-02 1.013373e-02 1.033672e-02 9.857870e-03 1.021657e-02 9.560167e-03 9.949179e-03 9.240693e-03 9.607510e-03 8.973383e-03 9.273786e-03 8.794585e-03 8.962214e-03 8.681301e-03 8.670899e-03 8.625523e-03 8.421938e-03 8.621770e-03 8.228745e-03 8.653779e-03 8.099637e-03 8.692584e-03 8.020885e-03 8.699107e-03 7.986772e-03 8.662023e-03 8.006765e-03 8.579677e-03 8.077413e-03 8.441961e-03 8.174033e-03 8.243837e-03 8.288479e-03 8.027354e-03 8.437658e-03 7.833247e-03 8.594349e-03 7.668445e-03 8.724848e-03 7.557218e-03 8.807242e-03 7.516466e-03 8.817210e-03 7.559629e-03 8.747711e-03 7.692294e-03 8.595949e-03 7.893548e-03 8.376629e-03 8.126093e-03 8.156801e-03 8.353468e-03 8.124888e-03 8.640191e-03 8.647099e-03 1.042684e-02 9.644992e-03 8.380173e-03 8.481163e-03 7.457996e-03 
7.151262e-03 6.504808e-03 7.609754e-03 8.393794e-03 9.781895e-03 9.589674e-03 5.204241e-03 3.953502e-03 6.411395e-03 4.220098e-03 6.641810e-03 4.459434e-03 6.489208e-03 5.829850e-03 6.367551e-03 5.980043e-03 6.196288e-03 6.176346e-03 5.999055e-03 6.375599e-03 5.828057e-03 6.464344e-03 3.462977e-03 5.917686e-03 3.820107e-03 6.231671e-03 4.229440e-03 6.344562e-03 4.503269e-03 6.285649e-03 4.778533e-03 6.194212e-03 5.062690e-03 6.037004e-03 5.310150e-03 5.895594e-03 5.592192e-03 5.830896e-03 5.861923e-03 5.802042e-03 6.073708e-03 5.809873e-03 6.244588e-03 5.906561e-03 6.436996e-03 6.117782e-03 6.641500e-03 6.402923e-03 6.870184e-03 6.787005e-03 7.158576e-03 7.234395e-03 7.492662e-03 7.766433e-03 7.946574e-03 8.369996e-03 8.391219e-03 8.864200e-03 8.736439e-03 9.230037e-03 8.978329e-03 9.370663e-03 9.031439e-03 9.237167e-03 8.931429e-03 9.007489e-03 8.780283e-03 8.646272e-03 8.518558e-03 8.141606e-03 8.163410e-03 7.549328e-03 7.777116e-03 7.094830e-03 7.442751e-03 6.719023e-03 7.051441e-03 6.439343e-03 6.711324e-03 6.316074e-03 6.378321e-03 6.227367e-03 6.008943e-03 6.192900e-03 5.691318e-03 6.235848e-03 5.454709e-03 6.351043e-03 5.337046e-03 6.480316e-03 5.258185e-03 6.509418e-03 5.211546e-03 6.464132e-03 5.260011e-03 6.370390e-03 5.411536e-03 6.192602e-03 5.573277e-03 5.857906e-03 5.720307e-03 5.497932e-03 5.982507e-03 5.221386e-03 6.267615e-03 4.960717e-03 6.492329e-03 4.780180e-03 6.639275e-03 4.699182e-03 6.643509e-03 4.764817e-03 6.527505e-03 5.028037e-03 6.237302e-03 5.445864e-03 5.735441e-03 6.021520e-03 5.031152e-03 6.723706e-03 4.119585e-03 7.315962e-03 3.015636e-03 9.180244e-03 1.182433e-02 8.111475e-03 8.261280e-03 6.505127e-03 
4.427085e-03 1.345345e-03 4.898032e-03 -2.138146e-04 5.243623e-03 -1.057940e-02 3.525553e-03 -6.040186e-04 1.550371e-03 1.326138e-03 2.577256e-03 2.103761e-03 6.256845e-03 4.244023e-03 5.650481e-03 4.803541e-03 5.246519e-03 5.203232e-03 4.767153e-03 5.868787e-03 3.970012e-03 6.975612e-03 1.174851e-03 3.720142e-03 7.268241e-04 2.458560e-03 6.848452e-04 1.687632e-03 7.252478e-04 1.160542e-03 9.113453e-04 8.669691e-04 1.154775e-03 6.249411e-04 1.340400e-03 4.683089e-04 1.547822e-03 4.353468e-04 1.708953e-03 4.437938e-04 1.767357e-03 4.853378e-04 1.764230e-03 6.406244e-04 1.812671e-03 9.566319e-04 1.911402e-03 1.370340e-03 2.066431e-03 1.893836e-03 2.304428e-03 2.462658e-03 2.607240e-03 3.119603e-03 3.095818e-03 3.856725e-03 3.597552e-03 4.406840e-03 3.925603e-03 4.739615e-03 4.192664e-03 4.774538e-03 4.225071e-03 4.628904e-03 4.211034e-03 4.401730e-03 4.145085e-03 4.154041e-03 4.002482e-03 3.637258e-03 3.626878e-03 3.066540e-03 3.389384e-03 2.584867e-03 3.084292e-03 2.128950e-03 2.677787e-03 1.765711e-03 2.337065e-03 1.592725e-03 2.005200e-03 1.452892e-03 1.610787e-03 1.364015e-03 1.250956e-03 1.351721e-03 9.634003e-04 1.417784e-03 8.046685e-04 1.490988e-03 6.810267e-04 1.440042e-03 6.096073e-04 1.317792e-03 6.822253e-04 1.163555e-03 9.147824e-04 9.432096e-04 1.191063e-03 5.633700e-04 1.457205e-03 1.718484e-04 1.844720e-03 -1.082422e-04 2.212767e-03 -3.629102e-04 2.440324e-03 -5.045628e-04 2.495208e-03 -4.966865e-04 2.295624e-03 -2.525920e-04 1.887012e-03 3.106190e-04 1.197555e-03 1.142676e-03 2.000754e-04 2.278937e-03 -1.063841e-03 3.660762e-03 -2.584038e-03 4.678604e-03 -4.227698e-03 6.622531e-04 7.447335e-03 2.779201e-03 5.043036e-03 2.113387e-03 
-1.002746e-04 -2.035723e-03 -5.274950e-04 -6.014893e-03 -3.000505e-03 -1.443576e-02 1.474808e-03 8.181258e-04 -2.848524e-03 2.170066e-03 -4.641398e-03 2.142162e-03 -6.740837e-03 1.113039e-03 -5.670769e-03 2.531209e-04 -4.757984e-03 -4.764855e-04 -3.835813e-03 -1.670542e-03 -2.654958e-03 -3.588473e-03 -6.724360e-04 -2.334350e-03 -1.300293e-05 -1.952054e-03 2.831886e-04 -1.727137e-03 4.517763e-04 -1.535630e-03 4.973466e-04 -1.378216e-03 4.464344e-04 -1.214843e-03 3.373605e-04 -1.074972e-03 1.493405e-04 -9.845511e-04 -8.392885e-05 -9.224184e-04 -3.266783e-04 -8.814424e-04 -5.626570e-04 -8.669377e-04 -7.877528e-04 -8.711054e-04 -9.729846e-04 -8.692818e-04 -1.114238e-03 -8.780811e-04 -1.222918e-03 -8.747473e-04 -1.267447e-03 -8.431577e-04 -1.258940e-03 -7.727963e-04 -1.162245e-03 -6.408150e-04 -1.064241e-03 -5.495851e-04 -9.808334e-04 -5.397097e-04 -9.477529e-04 -4.920802e-04 -9.498199e-04 -5.836701e-04 -1.092020e-03 -6.887762e-04 -1.247352e-03 -8.841638e-04 -1.416044e-03 -9.442469e-04 -1.363433e-03 -1.003194e-03 -1.321169e-03 -1.008699e-03 -1.170535e-03 -9.594131e-04 -9.727463e-04 -9.089435e-04 -7.382829e-04 -8.316191e-04 -4.851623e-04 -7.754096e-04 -2.880171e-04 -7.747399e-04 -1.638533e-04 -8.320580e-04 -1.224719e-04 -9.214244e-04 -1.060832e-04 -9.750875e-04 -8.434513e-05 -9.943449e-04 -7.548165e-05 -9.877870e-04 -7.743397e-05 -9.272933e-04 -4.194395e-05 -7.696578e-04 2.219684e-05 -5.926814e-04 9.644504e-06 -4.563403e-04 -6.006308e-05 -3.127864e-04 -1.692138e-04 -1.816753e-04 -3.306259e-04 -5.157227e-05 -5.178203e-04 8.214583e-05 -7.369018e-04 2.069984e-04 -9.608265e-04 3.362991e-04 -1.148371e-03 4.501429e-04 -1.257622e-03 4.929012e-04 -1.149008e-03 4.694451e-04 -8.754784e-05 -3.948925e-03 -3.682656e-03 -2.025585e-03 -9.339295e-04 -9.992951e-04 
-2.614964e-03 -1.081901e-03 -3.349847e-03 -2.074512e-03 -5.254679e-03 2.057042e-03 -2.356206e-03 6.367847e-04 -2.243092e-03 1.350967e-04 -2.603679e-03 -1.237143e-05 -4.116729e-03 -2.260958e-03 -4.642010e-03 -2.666572e-03 -4.714531e-03 -3.683750e-03 -3.768919e-03 -4.879087e-03 -2.207929e-03 -4.746895e-03 2.118955e-05 -3.529953e-03 1.451260e-04 -3.086162e-03 1.226233e-04 -2.642157e-03 6.062300e-05 -2.192382e-03 -1.562051e-04 -1.845088e-03 -4.575332e-04 -1.484996e-03 -7.289933e-04 -1.188393e-03 -1.044915e-03 -1.018620e-03 -1.324094e-03 -9.035525e-04 -1.493904e-03 -8.351650e-04 -1.577463e-03 -8.861283e-04 -1.672501e-03 -1.098118e-03 -1.779901e-03 -1.423155e-03 -1.941230e-03 -1.921889e-03 -2.256918e-03 -2.605499e-03 -2.806011e-03 -3.610782e-03 -3.818150e-03 -5.010892e-03 -5.145211e-03 -6.414958e-03 -6.192176e-03 -7.445310e-03 -7.089349e-03 -7.741688e-03 -7.359772e-03 -7.802632e-03 -7.386751e-03 -7.283099e-03 -6.849926e-03 -6.675878e-03 -6.069298e-03 -5.281635e-03 -4.709457e-03 -4.148798e-03 -4.132804e-03 -3.148392e-03 -3.299010e-03 -2.331995e-03 -2.540970e-03 -1.839420e-03 -2.025614e-03 -1.676362e-03 -1.610195e-03 -1.599891e-03 -1.173697e-03 -1.600621e-03 -8.073323e-04 -1.698787e-03 -5.435059e-04 -1.886876e-03 -4.324570e-04 -2.080910e-03 -3.646925e-04 -2.126357e-03 -3.409700e-04 -2.062709e-03 -4.504584e-04 -1.925347e-03 -7.074545e-04 -1.673706e-03 -9.900272e-04 -1.214281e-03 -1.255952e-03 -7.224653e-04 -1.665980e-03 -3.457003e-04 -2.084133e-03 4.809685e-07 -2.389383e-03 2.211711e-04 -2.551031e-03 2.830998e-04 -2.477658e-03 1.122899e-04 -2.205567e-03 -3.651421e-04 -1.662177e-03 -1.092140e-03 -8.180941e-04 -2.100677e-03 2.731319e-04 -3.385852e-03 1.549370e-03 -4.563370e-03 3.075112e-03 -2.991187e-03 -7.703230e-03 -2.660235e-03 -3.690253e-03 -1.224346e-03 
-2.271669e-03 6.444771e-04 -2.259390e-03 2.406025e-03 -2.142101e-03 9.073245e-03 -1.855437e-03 5.217006e-04 1.582834e-03 -4.988041e-04 3.848963e-03 -6.679259e-04 7.172650e-03 5.061007e-04 6.319024e-03 1.180363e-03 5.667877e-03 1.627511e-03 5.015710e-03 2.514553e-03 4.027470e-03 4.236074e-03 2.117091e-03 1.829205e-03 1.526417e-03 8.205231e-04 1.134905e-03 3.672167e-04 8.071707e-04 2.319118e-04 4.664442e-04 2.333640e-04 1.310037e-04 3.307134e-04 -1.548817e-04 4.406945e-04 -4.141974e-04 5.044131e-04 -6.106380e-04 5.279748e-04 -7.151035e-04 4.977087e-04 -7.510266e-04 3.629278e-04 -7.872946e-04 8.601532e-05 -8.615681e-04 -3.331487e-04 -1.036367e-03 -9.437778e-04 -1.415797e-03 -1.797753e-03 -2.117468e-03 -2.997035e-03 -3.270293e-03 -4.528355e-03 -4.693495e-03 -5.877327e-03 -5.302873e-03 -6.544441e-03 -5.854168e-03 -6.184152e-03 -5.722673e-03 -6.168343e-03 -5.784144e-03 -5.582950e-03 -5.233583e-03 -5.502040e-03 -4.980933e-03 -4.528018e-03 -3.947636e-03 -3.825006e-03 -3.928907e-03 -2.724720e-03 -2.857301e-03 -1.693856e-03 -1.963168e-03 -1.072477e-03 -1.373183e-03 -7.976102e-04 -9.540182e-04 -6.794928e-04 -5.817628e-04 -6.515474e-04 -2.617124e-04 -6.988886e-04 -1.446299e-05 -8.013207e-04 1.361436e-04 -8.947636e-04 2.259797e-04 -8.986394e-04 2.393388e-04 -8.149117e-04 1.338701e-04 -6.490967e-04 -9.674773e-05 -3.913319e-04 -4.018154e-04 -2.410134e-05 -7.438848e-04 3.707447e-04 -1.143291e-03 7.111286e-04 -1.510729e-03 9.913747e-04 -1.753676e-03 1.143755e-03 -1.816601e-03 1.117399e-03 -1.636332e-03 8.547632e-04 -1.208254e-03 3.212204e-04 -5.045209e-04 -4.426057e-04 4.424832e-04 -1.399074e-03 1.505190e-03 -2.441836e-03 2.375481e-03 -3.359733e-03 2.013777e-03 -1.054327e-03 -3.851884e-03 -1.413003e-03 -2.796829e-03 -4.475390e-04 
