# vtk DataFile Version 2.0
Comment goes here
ASCII

DATASET STRUCTURED_POINTS
FIELD FieldData 1
TIME 1 1 double
0.71000000
DIMENSIONS    128   16   1

ORIGIN    0.000   0.000   0.000
SPACING   0.0078125 0.015625   1.000

POINT_DATA   2048
SCALARS uX double
LOOKUP_TABLE default

5.917677e-03 1.457708e-03 5.212155e-03 -1.565586e-03 3.928540e-03 -6.492679e-03 7.469148e-03 -2.324508e-03 2.740592e-03 -3.524268e-03 -2.626751e-03 -8.484872e-03 -1.380263e-02 -2.395626e-02 -3.040823e-02 -3.043711e-02 -3.547648e-02 -3.236787e-02 -3.343583e-02 -2.846468e-02 -2.545611e-02 -1.160947e-02 -9.409156e-03 -2.196671e-03 -3.379549e-03 1.282995e-03 -7.971699e-04 2.557487e-03 3.814121e-04 2.884751e-03 9.816575e-04 2.814192e-03 1.345047e-03 2.588935e-03 1.603995e-03 2.323632e-03 1.803523e-03 2.075474e-03 1.951501e-03 1.872337e-03 2.042693e-03 1.728015e-03 2.074584e-03 1.652364e-03 2.055567e-03 1.655066e-03 2.007613e-03 1.748536e-03 1.974352e-03 1.965007e-03 2.048491e-03 2.398948e-03 2.431582e-03 3.303489e-03 3.609032e-03 5.411649e-03 6.438983e-03 7.641412e-03 6.168235e-03 6.181427e-03 5.944809e-03 7.599133e-03 7.588868e-03 6.587233e-03 6.833905e-03 7.713390e-03 7.872991e-03 6.668164e-03 6.019670e-03 7.217922e-03 6.284794e-03 6.376219e-03 5.566402e-03 4.298230e-03 2.969445e-03 2.569778e-03 1.837117e-03 1.993896e-03 1.353995e-03 1.825061e-03 1.098755e-03 1.807442e-03 9.373393e-04 1.834704e-03 8.319849e-04 1.853043e-03 7.812900e-04 1.829463e-03 7.958996e-04 1.743358e-03 8.874818e-04 1.584472e-03 1.059227e-03 1.352838e-03 1.300051e-03 1.061778e-03 1.585660e-03 7.405547e-04 1.880985e-03 4.319741e-04 2.141930e-03 1.862883e-04 2.317988e-03 5.416576e-05 2.358506e-03 8.149176e-05 2.222989e-03 3.046561e-04 1.889776e-03 7.424502e-04 1.361182e-03 1.388837e-03 6.730298e-04 2.212542e-03 -8.607150e-05 3.156592e-03 -7.466101e-04 4.125841e-03 -1.000890e-03 4.943915e-03 -2.676950e-04 5.191994e-03 2.761037e-03 2.501546e-04 4.306398e-03 1.787836e-03 5.631159e-03 2.476469e-03 
2.999444e-03 -6.137916e-04 2.092006e-03 -3.473276e-03 -1.249082e-04 -1.029256e-02 5.979023e-03 -2.373727e-03 1.012662e-03 -9.885813e-04 -2.821261e-03 -5.682803e-04 -8.209161e-03 -8.455168e-04 -5.165345e-03 4.650153e-04 -4.334149e-03 6.138518e-04 -4.245526e-03 -7.360127e-04 -4.891405e-03 -4.678961e-03 -3.189263e-03 -1.759669e-03 -1.978592e-03 -3.797489e-04 -1.288595e-03 2.862700e-04 -8.143343e-04 5.389371e-04 -4.533043e-04 5.483572e-04 -1.585651e-04 4.300381e-04 9.320691e-05 2.610307e-04 3.011306e-04 8.565711e-05 4.549085e-04 -6.690426e-05 5.434685e-04 -1.816280e-04 5.594603e-04 -2.446693e-04 5.136392e-04 -2.382082e-04 4.270077e-04 -1.500487e-04 3.400587e-04 6.401100e-05 3.726885e-04 5.520356e-04 8.077420e-04 1.688725e-03 2.298626e-03 4.306212e-03 5.077706e-03 5.028479e-03 3.263165e-03 2.662366e-03 2.102212e-03 3.872733e-03 4.003220e-03 1.526679e-03 2.593284e-03 3.885908e-03 4.747688e-03 2.669946e-03 3.236739e-03 6.863205e-03 6.895583e-03 6.360662e-03 5.202074e-03 3.080750e-03 1.817753e-03 9.022875e-04 3.608016e-04 1.455362e-04 -2.285213e-04 -6.131997e-05 -4.840688e-04 -5.287824e-05 -6.125669e-04 1.262431e-05 -6.892124e-04 6.551405e-05 -7.177927e-04 7.470815e-05 -6.872121e-04 1.541018e-05 -5.864673e-04 -1.239347e-04 -4.073604e-04 -3.436006e-04 -1.605959e-04 -6.331158e-04 1.306812e-04 -9.580122e-04 4.384807e-04 -1.269409e-03 7.175702e-04 -1.520292e-03 9.120758e-04 -1.658000e-03 9.725209e-04 -1.632916e-03 8.546935e-04 -1.408445e-03 5.374909e-04 -9.560498e-04 2.771255e-05 -2.766510e-04 -6.496960e-04 5.994571e-04 -1.422854e-03 1.630833e-03 -2.154727e-03 2.740694e-03 -2.626495e-03 3.740637e-03 -2.425390e-03 4.006117e-03 -2.708131e-04 -3.989290e-03 3.040199e-03 -5.233792e-04 3.219594e-03 1.984200e-04 
8.079190e-03 5.600701e-03 6.176143e-03 1.985609e-03 -1.933708e-04 -1.085110e-02 -5.206874e-04 -7.518279e-03 8.574915e-05 -4.269366e-03 2.339276e-03 5.543062e-04 9.364599e-03 1.072431e-02 1.519415e-02 1.468857e-02 1.654725e-02 1.632994e-02 1.481099e-02 1.528350e-02 1.049236e-02 8.457059e-03 6.636774e-04 1.636832e-03 -3.357056e-03 -1.211317e-03 -5.069878e-03 -2.590812e-03 -5.761873e-03 -3.345888e-03 -5.986367e-03 -3.857892e-03 -6.002621e-03 -4.262190e-03 -5.917019e-03 -4.601458e-03 -5.800268e-03 -4.903128e-03 -5.700765e-03 -5.177540e-03 -5.652050e-03 -5.443972e-03 -5.687946e-03 -5.718593e-03 -5.824086e-03 -6.022812e-03 -6.109424e-03 -6.447075e-03 -6.663182e-03 -7.144511e-03 -7.652123e-03 -8.344622e-03 -9.373650e-03 -1.052494e-02 -1.253510e-02 -1.482275e-02 -1.812342e-02 -1.891236e-02 -1.789615e-02 -1.666164e-02 -1.743264e-02 -1.980964e-02 -2.049436e-02 -1.802759e-02 -1.900478e-02 -2.076924e-02 -2.120448e-02 -1.870065e-02 -1.812544e-02 -2.064462e-02 -1.957989e-02 -1.840315e-02 -1.695444e-02 -1.373913e-02 -1.174179e-02 -9.786034e-03 -9.144074e-03 -7.852337e-03 -7.910348e-03 -6.759427e-03 -7.301334e-03 -6.074838e-03 -7.019109e-03 -5.648253e-03 -6.911124e-03 -5.401427e-03 -6.850965e-03 -5.287008e-03 -6.766552e-03 -5.301807e-03 -6.623862e-03 -5.436380e-03 -6.400150e-03 -5.676612e-03 -6.107074e-03 -6.009109e-03 -5.768681e-03 -6.387151e-03 -5.401795e-03 -6.750915e-03 -5.053626e-03 -7.062527e-03 -4.788926e-03 -7.273881e-03 -4.654347e-03 -7.339781e-03 -4.701216e-03 -7.234335e-03 -4.953637e-03 -6.923282e-03 -5.409714e-03 -6.415572e-03 -6.088067e-03 -5.764810e-03 -6.986256e-03 -5.021053e-03 -8.085719e-03 -4.272348e-03 -9.405761e-03 -3.699275e-03 -1.090444e-02 -3.726906e-03 -1.181866e-02 -6.833159e-03 6.258560e-03 4.128823e-03 8.184673e-03 6.153591e-03 
5.991029e-03 7.395759e-03 4.713574e-03 6.735246e-03 -4.832535e-04 1.295671e-03 -1.721219e-02 -1.299650e-02 -1.192180e-02 -1.443336e-02 -9.521148e-03 -1.470783e-02 -6.566322e-03 -1.492347e-02 -9.809911e-03 -1.606811e-02 -1.095443e-02 -1.597086e-02 -1.131198e-02 -1.437462e-02 -1.080055e-02 -1.030056e-02 -1.159581e-02 -1.142838e-02 -1.248901e-02 -1.193401e-02 -1.311093e-02 -1.215363e-02 -1.352397e-02 -1.222300e-02 -1.378652e-02 -1.224104e-02 -1.394838e-02 -1.225691e-02 -1.403624e-02 -1.229454e-02 -1.407260e-02 -1.237200e-02 -1.407348e-02 -1.250077e-02 -1.404968e-02 -1.269437e-02 -1.401546e-02 -1.296511e-02 -1.398541e-02 -1.332931e-02 -1.400070e-02 -1.383275e-02 -1.415330e-02 -1.456112e-02 -1.459682e-02 -1.566829e-02 -1.561430e-02 -1.749790e-02 -1.779752e-02 -2.069413e-02 -2.084835e-02 -2.090955e-02 -1.928029e-02 -1.974996e-02 -1.880476e-02 -2.003903e-02 -2.039790e-02 -1.847694e-02 -1.973660e-02 -2.036404e-02 -2.141221e-02 -2.048949e-02 -2.055936e-02 -2.433437e-02 -2.346014e-02 -2.422684e-02 -2.251639e-02 -2.002081e-02 -1.835007e-02 -1.684690e-02 -1.616027e-02 -1.518869e-02 -1.504448e-02 -1.423568e-02 -1.446867e-02 -1.364875e-02 -1.417655e-02 -1.328124e-02 -1.403117e-02 -1.305999e-02 -1.394339e-02 -1.294346e-02 -1.386492e-02 -1.291157e-02 -1.377591e-02 -1.294165e-02 -1.366870e-02 -1.301322e-02 -1.354762e-02 -1.311367e-02 -1.341786e-02 -1.322780e-02 -1.327765e-02 -1.334364e-02 -1.313204e-02 -1.346334e-02 -1.298898e-02 -1.358967e-02 -1.284852e-02 -1.372658e-02 -1.271515e-02 -1.387997e-02 -1.259069e-02 -1.404402e-02 -1.247894e-02 -1.421892e-02 -1.240454e-02 -1.441063e-02 -1.240474e-02 -1.461179e-02 -1.254107e-02 -1.480271e-02 -1.294613e-02 -1.489260e-02 -1.390917e-02 -1.440931e-02 -1.672830e-02 -2.037788e-03 6.571657e-04 4.675532e-03 4.866658e-03 6.815286e-03 
1.743506e-02 2.125770e-02 1.895931e-02 2.517583e-02 2.357375e-02 3.738338e-02 1.405141e-02 2.441581e-02 1.547496e-02 2.014049e-02 1.387753e-02 1.644727e-02 7.463595e-03 1.136958e-02 9.789350e-03 1.083816e-02 1.065207e-02 1.043416e-02 1.109426e-02 9.778603e-03 1.130649e-02 8.264869e-03 1.601365e-02 1.402914e-02 1.839975e-02 1.678679e-02 1.946900e-02 1.830026e-02 1.989096e-02 1.919151e-02 1.999394e-02 1.978827e-02 1.996013e-02 2.022428e-02 1.987026e-02 2.055278e-02 1.978644e-02 2.081223e-02 1.975553e-02 2.102250e-02 1.981429e-02 2.121261e-02 2.000369e-02 2.141282e-02 2.035265e-02 2.166831e-02 2.093075e-02 2.211198e-02 2.189347e-02 2.297736e-02 2.348429e-02 2.465217e-02 2.616760e-02 2.793531e-02 3.103087e-02 3.438676e-02 3.808178e-02 3.655048e-02 3.555280e-02 3.447642e-02 3.374800e-02 3.701298e-02 3.735611e-02 3.397139e-02 3.532062e-02 3.829968e-02 3.897127e-02 3.709820e-02 3.661009e-02 4.305033e-02 4.228129e-02 4.166549e-02 3.898306e-02 3.398278e-02 3.033754e-02 2.779491e-02 2.589375e-02 2.469601e-02 2.363466e-02 2.299573e-02 2.242893e-02 2.199523e-02 2.178062e-02 2.139507e-02 2.144151e-02 2.103592e-02 2.124158e-02 2.082756e-02 2.108721e-02 2.074633e-02 2.092945e-02 2.077795e-02 2.073207e-02 2.091043e-02 2.049415e-02 2.113419e-02 2.022904e-02 2.140645e-02 1.994563e-02 2.167052e-02 1.968470e-02 2.188923e-02 1.950665e-02 2.201357e-02 1.945690e-02 2.199691e-02 1.958714e-02 2.181319e-02 1.992418e-02 2.143213e-02 2.047117e-02 2.087033e-02 2.125524e-02 2.019586e-02 2.228815e-02 1.948674e-02 2.356831e-02 1.888028e-02 2.510815e-02 1.865143e-02 2.671782e-02 1.948121e-02 2.669382e-02 3.030750e-02 1.607761e-02 2.136834e-02 1.646885e-02 2.025919e-02 
1.837400e-02 1.980368e-02 1.976153e-02 2.196212e-02 2.514082e-02 3.176939e-02 3.269924e-02 3.509314e-02 3.015982e-02 3.322526e-02 2.853159e-02 3.055276e-02 2.448248e-02 2.505168e-02 2.456925e-02 2.491924e-02 2.476961e-02 2.475111e-02 2.494528e-02 2.459623e-02 2.503659e-02 2.455507e-02 2.896802e-02 2.788298e-02 3.087264e-02 2.963925e-02 3.203598e-02 3.065593e-02 3.264959e-02 3.123727e-02 3.292720e-02 3.161251e-02 3.302532e-02 3.189059e-02 3.302750e-02 3.212005e-02 3.299638e-02 3.233483e-02 3.297682e-02 3.255403e-02 3.300146e-02 3.280269e-02 3.310452e-02 3.310584e-02 3.331126e-02 3.349718e-02 3.367822e-02 3.406609e-02 3.432204e-02 3.495520e-02 3.540382e-02 3.636728e-02 3.717910e-02 3.866223e-02 4.011820e-02 4.232868e-02 4.352075e-02 4.263538e-02 4.351181e-02 4.516693e-02 4.435059e-02 4.397958e-02 4.483146e-02 4.499354e-02 4.580323e-02 4.413214e-02 4.458611e-02 4.606439e-02 4.446611e-02 4.468135e-02 4.317886e-02 4.545441e-02 4.459594e-02 4.169968e-02 4.009384e-02 3.821896e-02 3.734592e-02 3.608579e-02 3.574084e-02 3.473059e-02 3.481196e-02 3.383735e-02 3.428533e-02 3.325210e-02 3.399639e-02 3.288273e-02 3.381589e-02 3.266993e-02 3.366581e-02 3.259285e-02 3.350524e-02 3.263008e-02 3.330792e-02 3.276103e-02 3.307485e-02 3.296969e-02 3.281692e-02 3.321994e-02 3.254052e-02 3.346919e-02 3.227470e-02 3.369288e-02 3.206176e-02 3.386062e-02 3.193162e-02 3.394435e-02 3.191927e-02 3.392893e-02 3.204328e-02 3.379215e-02 3.230855e-02 3.354331e-02 3.274040e-02 3.322616e-02 3.335612e-02 3.288597e-02 3.416760e-02 3.259780e-02 3.522329e-02 3.248911e-02 3.660624e-02 3.277861e-02 3.863714e-02 3.008088e-02 2.120649e-02 2.164724e-02 1.871338e-02 1.973773e-02 
2.443349e-02 2.587945e-02 2.492761e-02 2.663126e-02 2.652393e-02 2.880360e-02 3.321897e-02 3.496176e-02 3.251321e-02 3.559148e-02 3.305830e-02 3.569206e-02 3.469264e-02 3.531276e-02 3.477760e-02 3.516353e-02 3.501113e-02 3.496508e-02 3.521578e-02 3.477556e-02 3.532154e-02 3.472634e-02 3.474503e-02 3.352782e-02 3.440364e-02 3.315590e-02 3.437079e-02 3.309884e-02 3.439892e-02 3.316600e-02 3.441939e-02 3.329104e-02 3.441898e-02 3.344627e-02 3.440246e-02 3.361915e-02 3.438369e-02 3.380675e-02 3.437916e-02 3.401130e-02 3.440480e-02 3.423972e-02 3.447559e-02 3.450003e-02 3.460138e-02 3.479749e-02 3.478594e-02 3.512647e-02 3.500970e-02 3.543327e-02 3.517369e-02 3.553026e-02 3.497877e-02 3.488604e-02 3.358084e-02 3.229404e-02 3.089956e-02 3.303826e-02 3.353743e-02 3.425248e-02 3.478318e-02 3.321527e-02 3.265028e-02 3.546191e-02 3.393292e-02 3.265661e-02 3.131860e-02 3.317211e-02 3.252046e-02 2.864639e-02 2.816704e-02 2.888315e-02 2.961550e-02 3.273401e-02 3.390701e-02 3.508169e-02 3.527913e-02 3.552841e-02 3.550758e-02 3.536086e-02 3.539286e-02 3.503456e-02 3.521181e-02 3.472278e-02 3.504859e-02 3.448526e-02 3.490936e-02 3.433644e-02 3.477826e-02 3.427562e-02 3.463966e-02 3.429285e-02 3.448391e-02 3.437406e-02 3.431050e-02 3.450302e-02 3.412530e-02 3.465841e-02 3.393799e-02 3.481678e-02 3.376526e-02 3.495763e-02 3.362771e-02 3.506131e-02 3.354342e-02 3.511061e-02 3.352764e-02 3.509271e-02 3.358759e-02 3.499779e-02 3.372083e-02 3.482576e-02 3.391567e-02 3.458569e-02 3.413999e-02 3.428813e-02 3.433048e-02 3.394691e-02 3.439158e-02 3.358399e-02 3.424466e-02 3.321945e-02 3.428106e-02 2.886752e-02 2.727344e-02 2.675823e-02 2.512422e-02 2.585224e-02 
2.390894e-02 2.458945e-02 2.471060e-02 2.594907e-02 2.674933e-02 2.839898e-02 2.981981e-02 3.144750e-02 3.203773e-02 3.336675e-02 3.509923e-02 3.589346e-02 4.157746e-02 4.188857e-02 4.168078e-02 4.185873e-02 4.177831e-02 4.178802e-02 4.185363e-02 4.170208e-02 4.188019e-02 4.161299e-02 3.704581e-02 3.650348e-02 3.482173e-02 3.388655e-02 3.358942e-02 3.243905e-02 3.291608e-02 3.169143e-02 3.254637e-02 3.134388e-02 3.232818e-02 3.122063e-02 3.218259e-02 3.122128e-02 3.207478e-02 3.128991e-02 3.199300e-02 3.139520e-02 3.193538e-02 3.151904e-02 3.190175e-02 3.164738e-02 3.188626e-02 3.176254e-02 3.187145e-02 3.183246e-02 3.181194e-02 3.178208e-02 3.159493e-02 3.143770e-02 3.096995e-02 3.042051e-02 2.938281e-02 2.800652e-02 2.689060e-02 2.787128e-02 2.772815e-02 2.714783e-02 2.788457e-02 2.785912e-02 2.730913e-02 2.775574e-02 2.701394e-02 2.804872e-02 2.745431e-02 2.703202e-02 2.778007e-02 2.753982e-02 2.802294e-02 2.665576e-02 2.684048e-02 2.908911e-02 3.015789e-02 3.105629e-02 3.160208e-02 3.174382e-02 3.215889e-02 3.190207e-02 3.235270e-02 3.185585e-02 3.240759e-02 3.175622e-02 3.241018e-02 3.166983e-02 3.238389e-02 3.162481e-02 3.232954e-02 3.163269e-02 3.224329e-02 3.169464e-02 3.212353e-02 3.180505e-02 3.197464e-02 3.195286e-02 3.180627e-02 3.212065e-02 3.163194e-02 3.228700e-02 3.147006e-02 3.243016e-02 3.134153e-02 3.252827e-02 3.126517e-02 3.256099e-02 3.125512e-02 3.251109e-02 3.131596e-02 3.236429e-02 3.143921e-02 3.211164e-02 3.160021e-02 3.174687e-02 3.174817e-02 3.125955e-02 3.179617e-02 3.063239e-02 3.161084e-02 2.983597e-02 3.098648e-02 2.880213e-02 2.962015e-02 2.712464e-02 2.635951e-02 2.537905e-02 2.446908e-02 2.442557e-02 
2.673971e-02 2.761948e-02 2.722074e-02 2.853023e-02 2.882825e-02 3.036786e-02 3.160249e-02 3.315303e-02 3.368470e-02 3.514801e-02 3.664669e-02 3.764881e-02 4.332291e-02 4.369680e-02 4.342472e-02 4.363737e-02 4.355298e-02 4.352805e-02 4.366669e-02 4.341374e-02 4.371954e-02 4.332716e-02 3.905930e-02 3.846131e-02 3.697460e-02 3.594539e-02 3.574559e-02 3.456031e-02 3.506340e-02 3.387700e-02 3.469732e-02 3.359020e-02 3.449115e-02 3.351599e-02 3.435786e-02 3.354929e-02 3.425436e-02 3.363087e-02 3.416142e-02 3.372620e-02 3.406975e-02 3.381176e-02 3.397007e-02 3.386525e-02 3.384554e-02 3.385753e-02 3.366496e-02 3.374418e-02 3.337431e-02 3.345514e-02 3.288735e-02 3.288822e-02 3.208857e-02 3.193170e-02 3.087738e-02 3.054473e-02 2.938554e-02 2.966730e-02 2.944802e-02 2.994712e-02 2.978205e-02 3.016005e-02 2.962682e-02 3.024449e-02 2.967256e-02 3.029451e-02 2.978250e-02 3.003396e-02 2.987517e-02 2.997025e-02 2.978672e-02 2.972840e-02 2.971030e-02 3.086482e-02 3.128893e-02 3.217891e-02 3.250708e-02 3.303229e-02 3.329871e-02 3.351655e-02 3.378403e-02 3.376758e-02 3.407608e-02 3.389153e-02 3.424639e-02 3.395762e-02 3.433403e-02 3.400859e-02 3.435929e-02 3.406923e-02 3.433349e-02 3.415178e-02 3.426532e-02 3.425954e-02 3.416423e-02 3.438886e-02 3.404159e-02 3.453028e-02 3.391077e-02 3.466998e-02 3.378671e-02 3.479161e-02 3.368484e-02 3.487826e-02 3.361893e-02 3.491373e-02 3.359807e-02 3.488347e-02 3.362315e-02 3.477506e-02 3.368295e-02 3.457773e-02 3.374909e-02 3.427935e-02 3.377042e-02 3.386200e-02 3.367019e-02 3.329644e-02 3.334833e-02 3.252750e-02 3.267826e-02 3.141673e-02 3.145068e-02 2.962253e-02 2.901079e-02 2.825947e-02 2.735910e-02 2.754936e-02 
2.390782e-02 2.458581e-02 2.471033e-02 2.594550e-02 2.675031e-02 2.839529e-02 2.982157e-02 3.144380e-02 3.203946e-02 3.336410e-02 3.510049e-02 3.589213e-02 4.157727e-02 4.188886e-02 4.168039e-02 4.185884e-02 4.177787e-02 4.178755e-02 4.185374e-02 4.170072e-02 4.188124e-02 4.161160e-02 3.705202e-02 3.648894e-02 3.483175e-02 3.385874e-02 3.360195e-02 3.239913e-02 3.292777e-02 3.163947e-02 3.254893e-02 3.127716e-02 3.231042e-02 3.113557e-02 3.213230e-02 3.111060e-02 3.197529e-02 3.113814e-02 3.182209e-02 3.117790e-02 3.166464e-02 3.120033e-02 3.149306e-02 3.117770e-02 3.128981e-02 3.107925e-02 3.102624e-02 3.086771e-02 3.066185e-02 3.049908e-02 3.014667e-02 2.992660e-02 2.943246e-02 2.912659e-02 2.852346e-02 2.818657e-02 2.760639e-02 2.750064e-02 2.711699e-02 2.700954e-02 2.681153e-02 2.687665e-02 2.660409e-02 2.675932e-02 2.651223e-02 2.681590e-02 2.669516e-02 2.683374e-02 2.697634e-02 2.719941e-02 2.745455e-02 2.761139e-02 2.790791e-02 2.845640e-02 2.893401e-02 2.938141e-02 2.989272e-02 3.009637e-02 3.063877e-02 3.058390e-02 3.118341e-02 3.089696e-02 3.156806e-02 3.109384e-02 3.182791e-02 3.122483e-02 3.198899e-02 3.132944e-02 3.206785e-02 3.143387e-02 3.207492e-02 3.155378e-02 3.202060e-02 3.169674e-02 3.191762e-02 3.186217e-02 3.178161e-02 3.204193e-02 3.163097e-02 3.222053e-02 3.148475e-02 3.237678e-02 3.136301e-02 3.248895e-02 3.128626e-02 3.253635e-02 3.126974e-02 3.249960e-02 3.132042e-02 3.236459e-02 3.143413e-02 3.212193e-02 3.158768e-02 3.176322e-02 3.173110e-02 3.127796e-02 3.177860e-02 3.064913e-02 3.159558e-02 2.984724e-02 3.097510e-02 2.880685e-02 2.961418e-02 2.712293e-02 2.635603e-02 2.537515e-02 2.446705e-02 2.442165e-02 
2.443234e-02 2.587215e-02 2.492808e-02 2.662398e-02 2.652770e-02 2.879415e-02 3.322611e-02 3.495273e-02 3.252099e-02 3.558450e-02 3.306466e-02 3.568698e-02 3.469178e-02 3.531312e-02 3.477500e-02 3.516511e-02 3.500748e-02 3.496549e-02 3.521548e-02 3.477031e-02 3.532940e-02 3.471973e-02 3.475555e-02 3.348558e-02 3.441642e-02 3.308585e-02 3.438606e-02 3.300498e-02 3.441124e-02 3.304820e-02 3.441218e-02 3.314291e-02 3.436911e-02 3.325968e-02 3.428441e-02 3.337878e-02 3.416279e-02 3.348138e-02 3.401017e-02 3.355268e-02 3.383162e-02 3.357758e-02 3.362437e-02 3.353754e-02 3.337688e-02 3.341142e-02 3.306985e-02 3.317714e-02 3.268195e-02 3.281958e-02 3.219973e-02 3.233768e-02 3.162560e-02 3.175499e-02 3.099884e-02 3.114980e-02 3.043022e-02 3.067562e-02 3.008260e-02 3.040381e-02 2.988970e-02 3.026323e-02 2.976380e-02 3.018016e-02 2.970249e-02 3.015372e-02 2.973105e-02 3.016710e-02 2.982558e-02 3.029487e-02 3.004081e-02 3.055926e-02 3.043059e-02 3.105661e-02 3.108004e-02 3.167088e-02 3.180604e-02 3.225464e-02 3.248309e-02 3.273664e-02 3.305634e-02 3.310240e-02 3.350884e-02 3.336521e-02 3.384262e-02 3.355469e-02 3.407121e-02 3.370419e-02 3.420754e-02 3.383848e-02 3.426124e-02 3.397506e-02 3.424413e-02 3.412581e-02 3.417055e-02 3.429495e-02 3.405714e-02 3.447936e-02 3.392284e-02 3.466728e-02 3.378546e-02 3.483904e-02 3.366397e-02 3.497517e-02 3.358054e-02 3.505740e-02 3.355292e-02 3.506803e-02 3.359327e-02 3.499766e-02 3.370784e-02 3.484557e-02 3.388795e-02 3.461682e-02 3.410324e-02 3.432266e-02 3.429285e-02 3.397804e-02 3.435892e-02 3.360524e-02 3.422021e-02 3.323044e-02 3.426950e-02 2.886098e-02 2.726690e-02 2.674898e-02 2.512135e-02 2.584410e-02 
1.837196e-02 1.979477e-02 1.976053e-02 2.195328e-02 2.514457e-02 3.175816e-02 3.270758e-02 3.508267e-02 3.016515e-02 3.321832e-02 2.853657e-02 3.055075e-02 2.448318e-02 2.505249e-02 2.456744e-02 2.492089e-02 2.476621e-02 2.475079e-02 2.494426e-02 2.458904e-02 2.504249e-02 2.454600e-02 2.898796e-02 2.783719e-02 3.091208e-02 2.955210e-02 3.209281e-02 3.054007e-02 3.272466e-02 3.109928e-02 3.298814e-02 3.143670e-02 3.303299e-02 3.167889e-02 3.296263e-02 3.187131e-02 3.281877e-02 3.201044e-02 3.262981e-02 3.209906e-02 3.242503e-02 3.213242e-02 3.220906e-02 3.209263e-02 3.197169e-02 3.195916e-02 3.168795e-02 3.170681e-02 3.133221e-02 3.133431e-02 3.090763e-02 3.086802e-02 3.042519e-02 3.033121e-02 2.989816e-02 2.977087e-02 2.938553e-02 2.926740e-02 2.894101e-02 2.885210e-02 2.860269e-02 2.859764e-02 2.838739e-02 2.845880e-02 2.828093e-02 2.845502e-02 2.832219e-02 2.856576e-02 2.850503e-02 2.885729e-02 2.886532e-02 2.926578e-02 2.935037e-02 2.977043e-02 2.995957e-02 3.031588e-02 3.063116e-02 3.082563e-02 3.128240e-02 3.124909e-02 3.186387e-02 3.156973e-02 3.233821e-02 3.178446e-02 3.268838e-02 3.192996e-02 3.293456e-02 3.205768e-02 3.308489e-02 3.218824e-02 3.313105e-02 3.233583e-02 3.308144e-02 3.251811e-02 3.295279e-02 3.273995e-02 3.276716e-02 3.300018e-02 3.255680e-02 3.328115e-02 3.234159e-02 3.353982e-02 3.214443e-02 3.374720e-02 3.201204e-02 3.387976e-02 3.197437e-02 3.390006e-02 3.205423e-02 3.379811e-02 3.228773e-02 3.358650e-02 3.269595e-02 3.328714e-02 3.329431e-02 3.295196e-02 3.410892e-02 3.265884e-02 3.517510e-02 3.252252e-02 3.656865e-02 3.278306e-02 3.863096e-02 3.006019e-02 2.120099e-02 2.162707e-02 1.870985e-02 1.972558e-02 
1.743556e-02 2.124911e-02 1.895627e-02 2.516895e-02 2.356800e-02 3.738139e-02 1.404207e-02 2.441154e-02 1.545981e-02 2.013584e-02 1.386879e-02 1.644688e-02 7.470594e-03 1.136125e-02 9.780970e-03 1.084542e-02 1.063384e-02 1.044732e-02 1.108107e-02 9.759703e-03 1.134763e-02 8.150766e-03 1.606132e-02 1.392386e-02 1.847404e-02 1.665201e-02 1.956099e-02 1.813765e-02 2.000242e-02 1.900088e-02 2.008990e-02 1.954436e-02 2.000374e-02 1.993224e-02 1.985716e-02 2.022177e-02 1.968699e-02 2.041108e-02 1.951836e-02 2.051231e-02 1.938204e-02 2.053082e-02 1.927908e-02 2.045729e-02 1.919422e-02 2.028127e-02 1.909466e-02 1.998634e-02 1.894618e-02 1.958569e-02 1.874891e-02 1.912221e-02 1.850297e-02 1.861946e-02 1.819476e-02 1.811379e-02 1.786655e-02 1.770810e-02 1.762863e-02 1.746494e-02 1.744014e-02 1.732446e-02 1.727845e-02 1.726575e-02 1.717017e-02 1.724575e-02 1.710447e-02 1.728897e-02 1.716442e-02 1.745911e-02 1.735743e-02 1.777273e-02 1.767635e-02 1.822616e-02 1.815373e-02 1.870785e-02 1.867007e-02 1.913269e-02 1.916981e-02 1.947607e-02 1.962701e-02 1.973537e-02 2.000673e-02 1.990683e-02 2.028534e-02 2.003050e-02 2.048141e-02 2.016304e-02 2.059411e-02 2.031950e-02 2.060096e-02 2.050741e-02 2.050494e-02 2.073945e-02 2.032413e-02 2.101154e-02 2.008795e-02 2.131307e-02 1.984328e-02 2.161376e-02 1.962232e-02 2.185148e-02 1.946115e-02 2.198576e-02 1.942588e-02 2.198618e-02 1.955591e-02 2.180589e-02 1.987626e-02 2.143696e-02 2.042520e-02 2.090309e-02 2.121663e-02 2.024224e-02 2.225456e-02 1.953804e-02 2.355458e-02 1.892747e-02 2.511098e-02 1.866363e-02 2.672717e-02 1.945371e-02 2.672912e-02 3.028268e-02 1.609323e-02 2.134449e-02 1.647327e-02 2.024575e-02 
5.993107e-03 7.399226e-03 4.706609e-03 6.742852e-03 -5.043620e-04 1.312550e-03 -1.724874e-02 -1.297959e-02 -1.196422e-02 -1.441861e-02 -9.567230e-03 -1.469334e-02 -6.611998e-03 -1.490640e-02 -9.830801e-03 -1.606977e-02 -1.093444e-02 -1.600038e-02 -1.125014e-02 -1.440998e-02 -1.072920e-02 -1.028696e-02 -1.152769e-02 -1.141572e-02 -1.243144e-02 -1.191871e-02 -1.306410e-02 -1.214325e-02 -1.348878e-02 -1.222291e-02 -1.374462e-02 -1.224448e-02 -1.387546e-02 -1.226267e-02 -1.391673e-02 -1.229644e-02 -1.388318e-02 -1.234255e-02 -1.378964e-02 -1.240138e-02 -1.365630e-02 -1.246977e-02 -1.349511e-02 -1.253840e-02 -1.331396e-02 -1.259733e-02 -1.311614e-02 -1.263534e-02 -1.290671e-02 -1.265390e-02 -1.270586e-02 -1.266850e-02 -1.253647e-02 -1.269028e-02 -1.241344e-02 -1.272744e-02 -1.234270e-02 -1.275676e-02 -1.225502e-02 -1.272264e-02 -1.219965e-02 -1.272851e-02 -1.219195e-02 -1.269247e-02 -1.216228e-02 -1.266520e-02 -1.215322e-02 -1.259532e-02 -1.212870e-02 -1.256358e-02 -1.217388e-02 -1.251649e-02 -1.224950e-02 -1.247770e-02 -1.235397e-02 -1.247996e-02 -1.252583e-02 -1.252651e-02 -1.273533e-02 -1.259002e-02 -1.294975e-02 -1.264854e-02 -1.314007e-02 -1.268534e-02 -1.328991e-02 -1.270466e-02 -1.340463e-02 -1.272076e-02 -1.348681e-02 -1.273663e-02 -1.353249e-02 -1.275676e-02 -1.354471e-02 -1.279208e-02 -1.352730e-02 -1.285144e-02 -1.348237e-02 -1.294372e-02 -1.341329e-02 -1.307178e-02 -1.331501e-02 -1.322674e-02 -1.318352e-02 -1.340570e-02 -1.302842e-02 -1.360586e-02 -1.285548e-02 -1.381375e-02 -1.267365e-02 -1.402417e-02 -1.250720e-02 -1.423684e-02 -1.238430e-02 -1.444811e-02 -1.234593e-02 -1.465726e-02 -1.246304e-02 -1.484952e-02 -1.286298e-02 -1.493056e-02 -1.383018e-02 -1.443911e-02 -1.667423e-02 -2.034730e-03 6.850503e-04 4.678482e-03 4.878764e-03 6.816942e-03 
8.082015e-03 5.606313e-03 6.174740e-03 1.992330e-03 -2.017565e-04 -1.084401e-02 -5.344622e-04 -7.509467e-03 7.503102e-05 -4.264093e-03 2.326548e-03 5.511698e-04 9.351556e-03 1.072104e-02 1.522149e-02 1.464155e-02 1.662677e-02 1.624043e-02 1.490661e-02 1.522587e-02 1.049419e-02 8.506148e-03 6.656850e-04 1.674727e-03 -3.376812e-03 -1.155008e-03 -5.110343e-03 -2.526110e-03 -5.831434e-03 -3.279856e-03 -6.052974e-03 -3.770474e-03 -6.030490e-03 -4.162599e-03 -5.904092e-03 -4.501355e-03 -5.722488e-03 -4.772055e-03 -5.520327e-03 -4.977172e-03 -5.338102e-03 -5.113932e-03 -5.184381e-03 -5.164099e-03 -5.047108e-03 -5.105670e-03 -4.889312e-03 -4.904963e-03 -4.661725e-03 -4.548940e-03 -4.335294e-03 -4.042264e-03 -3.866390e-03 -3.363440e-03 -3.201571e-03 -2.535412e-03 -2.424155e-03 -1.826211e-03 -1.966524e-03 -1.521949e-03 -1.600197e-03 -1.222861e-03 -1.214926e-03 -1.140749e-03 -1.072836e-03 -1.051820e-03 -1.021356e-03 -1.185246e-03 -1.334914e-03 -1.451659e-03 -1.783147e-03 -2.039508e-03 -2.472721e-03 -2.880882e-03 -3.439855e-03 -3.675394e-03 -4.294061e-03 -4.242996e-03 -4.982457e-03 -4.608889e-03 -5.531546e-03 -4.825128e-03 -5.947270e-03 -4.925257e-03 -6.230276e-03 -4.973016e-03 -6.412877e-03 -5.039668e-03 -6.500715e-03 -5.148120e-03 -6.473373e-03 -5.310537e-03 -6.334401e-03 -5.542922e-03 -6.101496e-03 -5.842622e-03 -5.802963e-03 -6.198363e-03 -5.484649e-03 -6.576777e-03 -5.177712e-03 -6.910143e-03 -4.918343e-03 -7.151744e-03 -4.774772e-03 -7.263939e-03 -4.788421e-03 -7.191006e-03 -4.985536e-03 -6.916147e-03 -5.404410e-03 -6.453138e-03 -6.054493e-03 -5.825084e-03 -6.928989e-03 -5.090507e-03 -8.029031e-03 -4.340027e-03 -9.356255e-03 -3.733829e-03 -1.086093e-02 -3.724018e-03 -1.181151e-02 -6.815599e-03 6.268117e-03 4.146427e-03 8.192430e-03 6.161900e-03 
3.001160e-03 -6.106153e-04 2.092283e-03 -3.470512e-03 -1.250460e-04 -1.029321e-02 5.981171e-03 -2.373012e-03 1.018667e-03 -9.896001e-04 -2.810779e-03 -5.753729e-04 -8.185440e-03 -8.619269e-04 -5.144350e-03 4.594619e-04 -4.321525e-03 6.242011e-04 -4.241797e-03 -7.231853e-04 -4.871893e-03 -4.714902e-03 -3.193590e-03 -1.764553e-03 -1.991682e-03 -3.598899e-04 -1.309076e-03 3.207090e-04 -8.435530e-04 5.837985e-04 -4.787305e-04 6.112011e-04 -1.670515e-04 5.081570e-04 1.022159e-04 3.509940e-04 3.368820e-04 1.998626e-04 5.339529e-04 8.715216e-05 6.834717e-04 3.558147e-05 7.901818e-04 6.891935e-05 8.741697e-04 2.110078e-04 9.734330e-04 4.893588e-04 1.139368e-03 9.246277e-04 1.424408e-03 1.529437e-03 1.883801e-03 2.303190e-03 2.537162e-03 3.166999e-03 3.257538e-03 3.707415e-03 3.521653e-03 3.978125e-03 3.800272e-03 3.926109e-03 4.002015e-03 4.019608e-03 4.242722e-03 4.035847e-03 4.307426e-03 4.263233e-03 4.271243e-03 4.101156e-03 3.764214e-03 3.739613e-03 3.416582e-03 2.746431e-03 2.288452e-03 1.796317e-03 1.400877e-03 1.162341e-03 7.348872e-04 7.656636e-04 2.380035e-04 5.345616e-04 -1.225375e-04 4.116051e-04 -3.651155e-04 3.360747e-04 -5.100581e-04 2.519232e-04 -5.616832e-04 1.294231e-04 -5.121728e-04 -4.770524e-05 -3.652477e-04 -2.877356e-04 -1.369173e-04 -5.821712e-04 1.450586e-04 -9.088756e-04 4.396922e-04 -1.228756e-03 7.058306e-04 -1.484978e-03 8.971621e-04 -1.627401e-03 9.568013e-04 -1.611805e-03 8.449022e-04 -1.393233e-03 5.404237e-04 -9.506055e-04 3.626420e-05 -2.866821e-04 -6.382414e-04 5.801638e-04 -1.408720e-03 1.607059e-03 -2.144988e-03 2.717672e-03 -2.621734e-03 3.731959e-03 -2.424269e-03 4.015943e-03 -2.816368e-04 -3.982555e-03 3.042032e-03 -5.148566e-04 3.223083e-03 2.030927e-04 
