# vtk DataFile Version 2.0
Comment goes here
ASCII

DATASET STRUCTURED_POINTS
FIELD FieldData 1
TIME 1 1 double
0.89000000
DIMENSIONS    128   16   1

ORIGIN    0.000   0.000   0.000
SPACING   0.0078125 0.015625   1.000

POINT_DATA   2048
SCALARS uY double
LOOKUP_TABLE default

-4.291916e-07 4.151294e-06 -1.808568e-06 2.132238e-06 -2.673219e-06 -2.860817e-07 -5.189253e-06 5.755185e-07 -2.799864e-06 1.155922e-06 -1.741348e-06 1.648252e-06 2.717149e-07 -5.917745e-07 1.422022e-06 -8.630101e-06 1.644585e-05 -2.660703e-05 3.762018e-05 -4.759033e-05 5.030886e-05 -6.201162e-05 6.636888e-05 -8.732940e-05 7.794463e-05 -1.053454e-04 8.486652e-05 -1.197102e-04 8.201554e-05 -1.304064e-04 6.680837e-05 -1.353008e-04 3.892674e-05 -1.334261e-04 -3.773326e-06 -1.293410e-04 -6.619037e-05 -1.306234e-04 -1.523593e-04 -1.467034e-04 -2.667969e-04 -1.901148e-04 -4.154660e-04 -2.761527e-04 -6.081140e-04 -4.251553e-04 -8.590089e-04 -6.564199e-04 -1.176370e-03 -9.732086e-04 -1.544959e-03 -1.337216e-03 -1.885512e-03 -1.603206e-03 -1.994382e-03 -1.528273e-03 -1.475178e-03 -1.216063e-04 -5.476043e-04 -2.151218e-04 1.006414e-03 9.627389e-04 1.380174e-04 2.723664e-04 1.108644e-03 1.382046e-03 -1.022465e-04 2.975980e-04 1.100177e-03 1.766948e-03 7.727556e-04 -1.044998e-04 1.584179e-03 8.948462e-04 1.274826e-03 8.109347e-04 1.066214e-03 6.720149e-04 8.559337e-04 4.947211e-04 6.719247e-04 3.347428e-04 5.186641e-04 2.071685e-04 3.938967e-04 1.176275e-04 2.935377e-04 6.311524e-05 2.102136e-04 3.598953e-05 1.390120e-04 2.931950e-05 7.860056e-05 3.629507e-05 2.924349e-05 5.036752e-05 -8.166420e-06 6.524262e-05 -3.390557e-05 7.449736e-05 -4.919958e-05 7.469266e-05 -5.368644e-05 6.703130e-05 -4.767194e-05 5.321851e-05 -3.461520e-05 3.526903e-05 -1.749186e-05 1.685009e-05 5.185498e-07 -1.750813e-07 1.532184e-05 -1.477396e-05 2.502674e-05 -2.480431e-05 2.954087e-05 -2.859090e-05 2.913061e-05 -2.433927e-05 2.449844e-05 -9.966857e-06 1.529807e-05 1.265271e-05 8.028997e-06 9.601361e-06 2.318529e-06 6.686058e-06 
5.468124e-04 -7.617690e-04 1.426429e-04 -5.689581e-04 3.008315e-03 4.133766e-03 -4.936789e-03 -1.398884e-03 -3.326324e-03 -5.038241e-03 -6.806603e-03 -1.082579e-02 -1.211569e-02 -1.247796e-02 -7.770716e-03 -3.001568e-03 -1.254849e-03 9.408631e-04 4.434079e-03 5.837250e-03 1.226275e-02 1.316237e-02 9.824891e-03 6.879482e-03 4.464176e-03 2.747488e-03 2.105797e-03 9.918415e-04 1.102223e-03 2.267085e-04 6.391587e-04 -8.827635e-05 3.915946e-04 -1.850274e-04 2.233489e-04 -1.731620e-04 7.563930e-05 -1.110310e-04 -7.404961e-05 -3.494437e-05 -2.322245e-04 2.754200e-05 -4.001494e-04 5.237322e-05 -5.831626e-04 8.884391e-06 -8.012171e-04 -1.438418e-04 -1.091136e-03 -4.612380e-04 -1.518827e-03 -1.034288e-03 -2.212070e-03 -2.109329e-03 -3.832435e-03 -5.052071e-03 -5.350096e-03 -5.062162e-03 -1.183334e-02 -8.926960e-03 5.442126e-03 3.432425e-03 -9.322116e-03 -6.573308e-03 9.904769e-03 9.267648e-03 -6.242187e-03 -1.578277e-03 1.968796e-02 2.291007e-02 -1.824436e-03 -1.078098e-02 3.700132e-03 3.632211e-03 2.042516e-03 1.137745e-03 9.122156e-04 5.704716e-04 5.041553e-04 3.405296e-04 2.684536e-04 2.387044e-04 1.144280e-04 1.893489e-04 8.458364e-06 1.629772e-04 -5.958987e-05 1.432091e-04 -9.518347e-05 1.173770e-04 -9.955766e-05 7.756941e-05 -7.239528e-05 1.909000e-05 -1.462725e-05 -5.766108e-05 6.910719e-05 -1.478856e-04 1.672050e-04 -2.445592e-04 2.627186e-04 -3.339522e-04 3.390540e-04 -3.943151e-04 3.784688e-04 -4.048436e-04 3.607587e-04 -3.508659e-04 2.713936e-04 -2.237955e-04 1.039309e-04 -2.639480e-05 -1.356563e-04 2.267428e-04 -4.228307e-04 5.113244e-04 -7.087339e-04 7.975486e-04 -8.995525e-04 1.092320e-03 -7.833356e-04 1.662838e-03 -7.692566e-04 -3.735639e-03 5.237655e-04 1.003001e-04 1.252851e-03 9.332348e-05 
8.996944e-04 -2.174695e-03 -6.158934e-04 -3.834321e-03 7.549418e-03 1.319267e-02 -1.020444e-02 1.296055e-03 -9.720764e-04 -1.104090e-03 -4.845755e-04 -1.326694e-04 3.442025e-03 3.230715e-03 4.808716e-03 -2.936146e-04 1.818396e-03 -1.803058e-03 3.317083e-04 -4.475383e-03 -2.303410e-03 -2.384034e-03 -1.518340e-03 2.774481e-04 -4.520382e-04 -2.213236e-04 -1.057240e-04 -4.729177e-04 1.375723e-04 -5.863431e-04 2.356561e-04 -6.057110e-04 2.239755e-04 -5.418515e-04 1.352126e-04 -4.219991e-04 -1.875220e-05 -2.784582e-04 -2.227967e-04 -1.418142e-04 -4.644025e-04 -4.613169e-05 -7.324944e-04 -2.024317e-05 -1.029111e-03 -1.191653e-04 -1.403292e-03 -4.362760e-04 -1.953480e-03 -1.118611e-03 -2.872913e-03 -2.446959e-03 -4.567783e-03 -5.127753e-03 -8.370686e-03 -1.064867e-02 -7.328227e-03 4.095247e-03 1.357066e-03 -1.755692e-03 3.759233e-03 1.758814e-03 2.386237e-04 -3.067792e-04 3.183800e-03 3.590783e-03 -1.223801e-03 -1.466549e-06 1.950655e-03 3.872536e-03 -2.181938e-03 -4.856980e-03 9.283858e-03 7.303877e-03 4.574738e-03 2.992261e-03 2.198195e-03 1.621313e-03 1.119683e-03 9.854292e-04 5.048107e-04 6.903279e-04 1.355863e-04 5.485498e-04 -8.989180e-05 4.744009e-04 -2.135780e-04 4.165821e-04 -2.627225e-04 3.407451e-04 -2.449571e-04 2.320860e-04 -1.625165e-04 8.201949e-05 -2.029641e-05 -1.043153e-04 1.729568e-04 -3.122008e-04 3.914121e-04 -5.291555e-04 5.951170e-04 -7.285064e-04 7.533336e-04 -8.599765e-04 8.355823e-04 -8.818138e-04 7.982223e-04 -7.686697e-04 6.133175e-04 -5.017694e-04 2.686981e-04 -8.760204e-05 -2.273551e-04 4.489230e-04 -8.306527e-04 1.073349e-03 -1.466827e-03 1.754111e-03 -2.008912e-03 2.588569e-03 -2.170054e-03 4.338456e-03 -2.902630e-03 -1.023505e-02 4.515343e-03 3.522695e-03 3.351557e-03 6.948232e-04 
3.761150e-04 -6.410007e-03 -9.943006e-03 -1.862476e-02 -9.164231e-03 1.054003e-02 -3.590664e-03 1.737173e-04 1.704434e-03 -1.072131e-03 2.815037e-03 -1.092910e-03 1.077882e-03 -2.202971e-03 -1.125286e-03 -1.366802e-04 -9.504525e-04 1.081693e-03 -1.303594e-03 2.504667e-03 -7.219925e-04 3.316936e-04 -1.302428e-04 -1.038186e-03 1.920061e-04 -9.556107e-04 6.578014e-04 -1.041697e-03 8.692602e-04 -1.128149e-03 8.970578e-04 -1.126319e-03 8.072307e-04 -9.903826e-04 6.401848e-04 -7.457218e-04 3.971314e-04 -4.376061e-04 1.025882e-04 -9.973157e-05 -2.133181e-04 2.343647e-04 -4.980678e-04 5.644939e-04 -6.890361e-04 8.712020e-04 -7.665449e-04 1.130904e-03 -6.974504e-04 1.376461e-03 -4.163143e-04 1.691833e-03 1.731243e-04 2.278296e-03 1.504296e-03 3.960760e-03 2.315509e-03 1.427196e-03 2.861277e-03 3.037123e-03 -1.855041e-03 -2.009547e-03 3.319894e-03 1.179453e-03 -3.338454e-03 -4.368505e-03 2.323516e-03 -4.060818e-04 -5.752056e-03 -8.287594e-03 1.932002e-03 3.215658e-03 -2.694292e-03 -3.467832e-03 -1.079995e-03 -1.345657e-03 -4.161677e-04 -7.134520e-04 -3.202842e-04 -3.397942e-04 -3.519655e-04 -5.941251e-05 -4.438644e-04 1.562581e-04 -5.498936e-04 3.289423e-04 -6.256725e-04 4.443643e-04 -6.583732e-04 4.746385e-04 -6.223674e-04 4.118794e-04 -4.970806e-04 2.486251e-04 -2.770087e-04 -4.100685e-07 3.718189e-05 -3.073363e-04 4.064532e-04 -6.558011e-04 7.586866e-04 -1.002846e-03 1.049220e-03 -1.255772e-03 1.240039e-03 -1.347942e-03 1.258027e-03 -1.242214e-03 1.057382e-03 -9.018003e-04 6.183149e-04 -3.327902e-04 -5.628743e-05 4.393718e-04 -9.059289e-04 1.372257e-03 -1.851904e-03 2.368837e-03 -2.830143e-03 3.275589e-03 -3.856001e-03 3.674452e-03 -5.835870e-03 -6.241879e-03 2.271447e-02 1.777508e-02 1.086950e-02 4.244050e-03 
-1.962566e-03 -7.719747e-03 -1.592860e-02 -2.224196e-02 -2.605594e-02 -4.475904e-03 8.267435e-03 -2.254346e-03 9.497098e-04 -1.075506e-03 -3.832511e-04 -1.053994e-03 -1.034987e-03 3.895155e-04 -2.687891e-04 3.289855e-04 -4.091007e-04 4.475049e-04 -4.668073e-04 4.491902e-04 -3.382117e-04 1.635563e-03 -3.665718e-04 8.553574e-04 6.892571e-05 -1.564647e-04 3.483039e-04 -7.047281e-04 5.936880e-04 -9.866682e-04 7.178379e-04 -1.084647e-03 7.258583e-04 -1.020228e-03 6.349158e-04 -8.344099e-04 4.480178e-04 -5.739857e-04 1.895399e-04 -2.732068e-04 -1.113959e-04 3.361505e-05 -4.071433e-04 3.330843e-04 -6.426436e-04 5.969355e-04 -7.941207e-04 7.941533e-04 -8.297246e-04 9.391783e-04 -6.936444e-04 1.091276e-03 -3.109780e-04 1.383300e-03 3.825649e-04 1.488897e-03 -7.879652e-04 -4.000368e-03 -5.646617e-03 -4.085819e-03 8.963264e-04 7.935092e-04 -4.248760e-03 -3.263761e-03 4.348599e-03 2.685022e-03 -1.565456e-03 -1.152725e-03 8.629260e-03 8.670196e-03 -6.990032e-04 -3.565757e-03 -2.211924e-04 -4.139015e-04 -2.097740e-04 -8.163070e-04 -1.349595e-04 -6.289325e-04 -2.518681e-05 -4.101925e-04 -2.973209e-05 -2.035319e-04 -1.265182e-04 -8.671306e-06 -2.702115e-04 1.799760e-04 -4.122861e-04 3.405122e-04 -5.263107e-04 4.400796e-04 -5.805621e-04 4.608322e-04 -5.505626e-04 3.896236e-04 -4.270905e-04 2.323186e-04 -2.081945e-04 6.529733e-06 7.649142e-05 -2.734554e-04 3.697945e-04 -5.714409e-04 6.337070e-04 -8.161652e-04 8.375565e-04 -9.573515e-04 9.263476e-04 -9.645728e-04 8.624791e-04 -8.087850e-04 6.289292e-04 -4.932080e-04 2.230947e-04 -3.650716e-05 -3.145022e-04 5.192344e-04 -9.215256e-04 1.071488e-03 -1.500309e-03 1.436492e-03 -1.768913e-03 1.282772e-03 1.103126e-03 1.395944e-02 2.885412e-02 2.020011e-02 1.102108e-02 4.549275e-03 
-1.241549e-03 -3.880084e-03 -8.721977e-03 -1.072802e-02 -1.749554e-02 -9.163313e-03 5.203865e-03 -2.808068e-03 -1.532574e-03 -2.357668e-03 -3.462799e-03 -2.006725e-03 -1.425072e-03 3.021170e-04 -2.771601e-04 2.788152e-04 -4.031102e-04 4.368507e-04 -4.313544e-04 4.656460e-04 -2.455853e-04 2.124929e-03 1.907189e-03 2.243094e-03 1.214752e-03 6.379053e-04 8.342298e-04 -8.428423e-05 7.301847e-04 -4.433714e-04 6.670969e-04 -6.072132e-04 5.785623e-04 -6.429248e-04 4.422895e-04 -5.930889e-04 2.506561e-04 -4.964317e-04 4.409170e-06 -3.909293e-04 -2.955228e-04 -3.210092e-04 -6.522381e-04 -3.438718e-04 -1.088471e-03 -5.490214e-04 -1.675119e-03 -1.085953e-03 -2.568909e-03 -2.216990e-03 -4.093516e-03 -4.441366e-03 -6.930256e-03 -8.954258e-03 -1.319469e-02 -1.758299e-02 -1.031287e-02 8.973507e-03 6.282198e-03 1.110032e-03 4.770202e-03 1.654086e-03 4.174579e-03 2.072999e-03 8.991028e-04 2.565750e-03 -3.528764e-04 1.313408e-03 -3.781654e-03 -1.071734e-03 -1.076248e-03 -4.287565e-03 1.210085e-02 1.172573e-02 6.856647e-03 5.185266e-03 3.704633e-03 2.684926e-03 2.139175e-03 1.408745e-03 1.241737e-03 7.855385e-04 6.907282e-04 5.033624e-04 3.196799e-04 3.963848e-04 5.722192e-05 3.700108e-04 -1.242070e-04 3.653179e-04 -2.317646e-04 3.462892e-04 -2.664800e-04 2.927959e-04 -2.317983e-04 1.983440e-04 -1.358761e-04 6.650684e-05 2.505365e-06 -9.108424e-05 1.556052e-04 -2.526619e-04 2.972899e-04 -3.883095e-04 4.042394e-04 -4.729056e-04 4.520445e-04 -4.882296e-04 4.225139e-04 -4.241429e-04 3.101406e-04 -2.844735e-04 1.244775e-04 -8.387320e-05 -9.530955e-05 1.543956e-04 -2.577513e-04 4.195891e-04 -1.378298e-04 7.868907e-04 8.495323e-04 1.594656e-03 5.283720e-03 1.384392e-02 1.367473e-02 9.247947e-03 5.640091e-03 2.411168e-03 
-7.709370e-04 -2.319682e-03 -4.366629e-03 -5.146297e-03 -6.414947e-03 -5.067953e-03 -2.609273e-03 -4.054499e-03 -3.831009e-03 -5.539718e-03 -6.582089e-03 -7.269876e-03 -3.438379e-03 1.588751e-04 -4.492372e-05 1.516352e-04 -1.217341e-04 1.344569e-04 -1.555468e-04 7.058625e-05 -1.351068e-04 6.259451e-03 7.907148e-03 5.356625e-03 3.711518e-03 2.136588e-03 1.816384e-03 7.481902e-04 1.043083e-03 8.219407e-05 6.829292e-04 -2.346543e-04 4.723067e-04 -3.631580e-04 2.997966e-04 -3.865026e-04 1.163351e-04 -3.589460e-04 -9.963502e-05 -3.245424e-04 -3.601524e-04 -3.280312e-04 -6.784114e-04 -4.228384e-04 -1.082460e-03 -6.858234e-04 -1.635502e-03 -1.236531e-03 -2.461199e-03 -2.270048e-03 -3.787906e-03 -4.112561e-03 -6.006647e-03 -7.370852e-03 -1.011099e-02 -1.287934e-02 -9.326611e-03 1.154090e-03 -1.874336e-03 -1.335588e-03 3.344133e-03 1.226580e-04 8.945358e-04 -1.459399e-04 2.302966e-03 4.637946e-03 7.770848e-05 3.384297e-03 5.537921e-03 7.759050e-03 5.183712e-03 -2.414965e-03 5.950371e-03 7.033661e-03 4.870720e-03 3.951498e-03 3.113042e-03 2.355088e-03 1.969955e-03 1.371988e-03 1.223257e-03 8.210229e-04 7.353357e-04 5.285744e-04 4.004335e-04 3.830117e-04 1.640767e-04 3.151795e-04 9.984880e-07 2.797978e-04 -9.894652e-05 2.474054e-04 -1.403901e-04 1.998851e-04 -1.281731e-04 1.293731e-04 -7.016196e-05 3.626953e-05 1.942195e-05 -7.264673e-05 1.211698e-04 -1.831392e-04 2.159451e-04 -2.749316e-04 2.855246e-04 -3.293410e-04 3.116931e-04 -3.324607e-04 2.817149e-04 -2.757416e-04 1.929910e-04 -1.578738e-04 5.900038e-05 2.021185e-05 -7.665665e-05 2.674010e-04 -1.161905e-04 6.312547e-04 1.418421e-04 1.246849e-03 1.046768e-03 2.400899e-03 3.546616e-03 5.620313e-03 5.982286e-03 4.637058e-03 3.058899e-03 1.317817e-03 
-3.916045e-04 -9.629680e-04 -1.929066e-03 -2.195782e-03 -2.734357e-03 -2.472449e-03 -1.266572e-03 -2.186418e-03 -1.943855e-03 -2.734159e-03 -3.353842e-03 -3.482043e-03 -1.701655e-03 7.954382e-05 -4.305872e-05 8.979068e-05 -8.778228e-05 9.515307e-05 -9.727914e-05 6.251362e-05 -6.521901e-05 3.270800e-03 4.221152e-03 2.572100e-03 1.792548e-03 8.772026e-04 8.136976e-04 2.136108e-04 4.487234e-04 -8.159644e-05 2.811444e-04 -2.205130e-04 1.652979e-04 -2.885726e-04 4.418602e-05 -3.273819e-04 -1.070693e-04 -3.663642e-04 -3.035472e-04 -4.348942e-04 -5.603307e-04 -5.680441e-04 -8.980198e-04 -8.100694e-04 -1.347576e-03 -1.216898e-03 -1.953530e-03 -1.854057e-03 -2.769271e-03 -2.780415e-03 -3.828702e-03 -3.987902e-03 -5.041344e-03 -5.219582e-03 -5.994168e-03 -5.807865e-03 -5.271604e-03 -2.156564e-03 -2.071380e-03 -7.585321e-04 2.053292e-03 1.133678e-03 6.256297e-05 6.574634e-04 2.956078e-03 3.384821e-03 4.040929e-04 2.007789e-03 4.934118e-03 5.226289e-03 2.030745e-03 -7.422810e-04 2.832995e-03 3.206840e-03 3.678058e-03 3.190649e-03 3.160443e-03 2.501822e-03 2.390138e-03 1.762450e-03 1.710694e-03 1.189873e-03 1.185177e-03 7.940905e-04 7.919068e-04 5.376713e-04 5.011329e-04 3.797129e-04 2.900319e-04 2.850779e-04 1.428091e-04 2.260298e-04 4.829859e-05 1.823810e-04 -2.350972e-06 1.412044e-04 -1.745558e-05 9.598624e-05 -6.317054e-06 4.569050e-05 2.065577e-05 -6.052486e-06 5.312561e-05 -5.253182e-05 8.145257e-05 -8.660511e-05 9.708388e-05 -1.023455e-04 9.424568e-05 -9.590963e-05 7.234866e-05 -6.545311e-05 3.964775e-05 -7.686183e-06 2.076373e-05 9.078816e-05 6.910092e-05 2.708922e-04 2.824486e-04 6.231755e-04 7.894362e-04 1.283757e-03 1.678895e-03 2.509898e-03 2.295514e-03 1.942209e-03 1.199679e-03 5.653484e-04 
8.596361e-06 -3.240235e-06 6.366745e-06 -3.718152e-06 5.392575e-06 -4.288005e-06 5.804129e-06 -4.401100e-06 5.741424e-06 -3.747942e-06 5.804484e-06 -2.342041e-06 7.777222e-06 -3.241645e-08 -1.395842e-07 -2.650793e-08 -1.304287e-07 -2.353073e-07 6.553999e-08 -7.119689e-07 2.148913e-07 -8.972955e-05 7.995384e-05 -9.449736e-05 7.760181e-05 -1.046874e-04 7.362030e-05 -1.151505e-04 6.116903e-05 -1.250961e-04 3.595877e-05 -1.342624e-04 -5.937580e-06 -1.448119e-04 -6.932915e-05 -1.628587e-04 -1.607049e-04 -1.990278e-04 -2.886171e-04 -2.690839e-04 -4.650252e-04 -3.951112e-04 -7.069648e-04 -6.064042e-04 -1.038232e-03 -9.394062e-04 -1.489038e-03 -1.432889e-03 -2.088450e-03 -2.111504e-03 -2.839639e-03 -2.940492e-03 -3.651846e-03 -3.711506e-03 -4.188958e-03 -3.833800e-03 -3.614860e-03 -2.020783e-03 -1.895553e-03 -1.078505e-03 -2.641399e-04 -1.380910e-04 2.872515e-04 5.388369e-04 9.412743e-04 1.666377e-03 1.337526e-03 2.078694e-03 2.419048e-03 2.727435e-03 2.936919e-03 2.093675e-03 3.244842e-03 2.835357e-03 3.089393e-03 2.541920e-03 2.558018e-03 1.950343e-03 1.961666e-03 1.364959e-03 1.447749e-03 8.991542e-04 1.044965e-03 5.652664e-04 7.387073e-04 3.441141e-04 5.073020e-04 2.099767e-04 3.320443e-04 1.380188e-04 1.992270e-04 1.068836e-04 9.968432e-05 9.934881e-05 2.741950e-05 1.023559e-04 -2.177551e-05 1.066823e-04 -5.157989e-05 1.065428e-04 -6.559758e-05 9.951308e-05 -6.709010e-05 8.597833e-05 -5.925382e-05 6.771311e-05 -4.553287e-05 4.713375e-05 -2.906581e-05 2.686887e-05 -1.255533e-05 8.939663e-06 1.748169e-06 -5.251843e-06 1.258838e-05 -1.469484e-05 1.964602e-05 -1.892982e-05 2.313148e-05 -1.812575e-05 2.351952e-05 -1.332093e-05 2.122278e-05 -7.038397e-06 1.659641e-05 -4.290046e-06 1.205497e-05 -3.280485e-06 
4.074123e-04 9.562138e-04 1.939692e-03 2.188393e-03 2.742351e-03 2.464352e-03 1.276031e-03 2.177909e-03 1.950634e-03 2.727633e-03 3.358621e-03 3.479651e-03 1.709410e-03 -7.941739e-05 4.224083e-05 -8.889680e-05 8.662108e-05 -9.449093e-05 9.685490e-05 -6.343591e-05 6.593502e-05 -3.471159e-03 -4.078974e-03 -2.786078e-03 -1.656190e-03 -1.112924e-03 -6.895692e-04 -4.741381e-04 -3.566319e-04 -2.058500e-04 -2.495681e-04 -9.627939e-05 -2.311741e-04 -6.512373e-05 -2.550237e-04 -8.377724e-05 -3.102293e-04 -1.447444e-04 -3.997046e-04 -2.504789e-04 -5.327671e-04 -4.096273e-04 -7.220770e-04 -6.344397e-04 -9.810269e-04 -9.368711e-04 -1.318543e-03 -1.319796e-03 -1.727882e-03 -1.760907e-03 -2.167359e-03 -2.186884e-03 -2.530853e-03 -2.440216e-03 -2.622040e-03 -2.278136e-03 -2.196612e-03 -1.480240e-03 -1.259238e-03 -6.733063e-04 -2.516585e-04 9.592305e-05 2.121872e-04 6.290421e-04 8.112947e-04 1.254315e-03 1.057411e-03 1.492937e-03 1.644509e-03 1.779236e-03 1.693303e-03 1.413373e-03 1.894391e-03 1.676240e-03 2.023514e-03 1.667422e-03 1.907049e-03 1.425068e-03 1.647064e-03 1.088443e-03 1.351430e-03 7.591401e-04 1.075609e-03 4.859341e-04 8.381561e-04 2.851112e-04 6.395080e-04 1.552325e-04 4.727447e-04 8.614459e-05 3.301259e-04 6.464889e-05 2.060614e-04 7.699808e-05 9.758408e-05 1.100072e-04 4.070425e-06 1.516621e-04 -7.346167e-05 1.914757e-04 -1.329743e-04 2.210727e-04 -1.717284e-04 2.345024e-04 -1.872096e-04 2.279216e-04 -1.781473e-04 1.999428e-04 -1.451528e-04 1.516731e-04 -9.287808e-05 8.494136e-05 -3.390662e-05 -1.062326e-06 4.806258e-06 -1.180973e-04 -3.066645e-05 -3.065348e-04 -2.376290e-04 -6.576068e-04 -7.435743e-04 -1.309628e-03 -1.636225e-03 -2.524031e-03 -2.262760e-03 -1.951540e-03 -1.176423e-03 -5.724773e-04 
7.830060e-04 2.315304e-03 4.374620e-03 5.139733e-03 6.421003e-03 5.058535e-03 2.624114e-03 4.044141e-03 3.843467e-03 5.531977e-03 6.593052e-03 7.265709e-03 3.452388e-03 -1.587280e-04 4.428403e-05 -1.507891e-04 1.207260e-04 -1.338574e-04 1.551668e-04 -7.177067e-05 1.357289e-04 -6.414433e-03 -7.747493e-03 -5.534988e-03 -3.542077e-03 -2.344653e-03 -1.637235e-03 -9.834002e-04 -8.726601e-04 -3.390666e-04 -5.482915e-04 -3.325527e-05 -4.040489e-04 9.634264e-05 -3.352167e-04 1.227696e-04 -3.040850e-04 8.203921e-05 -2.997351e-04 -6.704100e-06 -3.243805e-04 -1.350595e-04 -3.863646e-04 -3.008859e-04 -4.967577e-04 -5.064376e-04 -6.649298e-04 -7.495302e-04 -8.866929e-04 -1.011149e-03 -1.134209e-03 -1.245395e-03 -1.345796e-03 -1.367679e-03 -1.417889e-03 -1.260759e-03 -1.236030e-03 -8.568563e-04 -8.254056e-04 -4.324803e-04 -3.594245e-04 7.593742e-07 -3.326854e-05 3.772968e-04 2.877079e-04 7.629272e-04 5.633548e-04 1.011458e-03 9.147889e-04 1.194631e-03 1.154774e-03 1.159592e-03 1.317484e-03 1.177071e-03 1.347260e-03 1.048543e-03 1.267689e-03 8.124642e-04 1.133757e-03 5.392451e-04 9.895620e-04 2.836542e-04 8.552473e-04 7.790025e-05 7.349020e-04 -6.246609e-05 6.226198e-04 -1.363018e-04 5.072665e-04 -1.501120e-04 3.817467e-04 -1.115502e-04 2.453250e-04 -3.083455e-05 1.011080e-04 7.839744e-05 -4.433423e-05 2.000474e-04 -1.818102e-04 3.161854e-04 -3.002953e-04 4.097181e-04 -3.863129e-04 4.665764e-04 -4.270003e-04 4.744227e-04 -4.134103e-04 4.257554e-04 -3.397285e-04 3.204546e-04 -2.089141e-04 1.612248e-04 -4.117431e-05 -4.916530e-05 1.175566e-04 -3.169943e-04 1.704106e-04 -6.886789e-04 -8.269118e-05 -1.298802e-03 -9.890074e-04 -2.433776e-03 -3.495613e-03 -5.621008e-03 -5.950446e-03 -4.639602e-03 -3.039791e-03 -1.320993e-03 
1.247713e-03 3.877276e-03 8.722682e-03 1.072151e-02 1.748886e-02 9.156493e-03 -5.174923e-03 2.793468e-03 1.540261e-03 2.349941e-03 3.463762e-03 2.005409e-03 1.425668e-03 -3.010102e-04 2.749739e-04 -2.738833e-04 3.976279e-04 -4.307811e-04 4.277668e-04 -4.671507e-04 2.493569e-04 -2.271992e-03 -1.756579e-03 -2.432737e-03 -1.040011e-03 -8.636739e-04 -6.364952e-04 -1.745402e-04 -5.309606e-04 1.577939e-04 -4.967568e-04 3.098984e-04 -4.675841e-04 3.554162e-04 -4.271493e-04 3.276048e-04 -3.796730e-04 2.475959e-04 -3.328152e-04 1.323503e-04 -2.973752e-04 -6.887258e-06 -2.848973e-04 -1.621541e-04 -3.076892e-04 -3.314834e-04 -3.774717e-04 -5.108246e-04 -4.925487e-04 -6.841309e-04 -6.344776e-04 -8.253059e-04 -7.709780e-04 -8.985413e-04 -8.548890e-04 -8.592551e-04 -8.260710e-04 -6.489755e-04 -6.677171e-04 -3.672674e-04 -2.833317e-04 6.271042e-05 -1.295056e-04 3.538081e-04 2.455142e-04 7.546134e-04 3.651817e-04 8.983523e-04 7.217649e-04 1.077520e-03 6.658320e-04 7.307741e-04 7.646451e-04 6.949936e-04 7.980493e-04 5.682456e-04 8.041184e-04 3.933623e-04 7.944344e-04 1.966682e-04 7.757212e-04 7.394263e-06 7.494255e-04 -1.485730e-04 7.137801e-04 -2.515218e-04 6.613659e-04 -2.955172e-04 5.795667e-04 -2.826175e-04 4.633859e-04 -2.147523e-04 3.169547e-04 -9.870254e-05 1.479589e-04 5.211449e-05 -3.228727e-05 2.194488e-04 -2.097665e-04 3.808913e-04 -3.689805e-04 5.144264e-04 -4.907814e-04 6.022236e-04 -5.569467e-04 6.272495e-04 -5.549258e-04 5.788430e-04 -4.741887e-04 4.583506e-04 -3.137637e-04 2.727727e-04 -9.201382e-05 3.772635e-05 1.501681e-04 -2.210179e-04 3.238692e-04 -4.917598e-04 2.056569e-04 -8.498414e-04 -7.862472e-04 -1.633421e-03 -5.215525e-03 -1.383245e-02 -1.364703e-02 -9.249797e-03 -5.626951e-03 -2.412313e-03 
1.956682e-03 7.720918e-03 1.592200e-02 2.224022e-02 2.602876e-02 4.456347e-03 -8.221191e-03 2.238090e-03 -9.309300e-04 1.069393e-03 3.940095e-04 1.050098e-03 1.042352e-03 -3.876685e-04 2.667557e-04 -3.235855e-04 4.036507e-04 -4.403574e-04 4.636848e-04 -4.506212e-04 3.434713e-04 -1.675605e-03 4.746900e-04 -1.010844e-03 1.249068e-04 -6.594342e-05 -7.336531e-05 4.348356e-04 -2.788944e-04 6.727012e-04 -4.143504e-04 7.574666e-04 -4.520138e-04 7.487905e-04 -4.075738e-04 6.633412e-04 -3.168331e-04 5.257908e-04 -1.922534e-04 3.704820e-04 -5.207696e-05 2.186247e-04 9.074511e-05 9.611649e-05 2.205893e-04 -3.587412e-07 3.024513e-04 -7.629235e-05 3.355530e-04 -1.067283e-04 3.410458e-04 -7.984106e-05 3.188155e-04 -1.578744e-05 2.567132e-04 6.329493e-05 1.649746e-04 1.716041e-04 3.572916e-05 2.233514e-04 3.751798e-05 3.710670e-04 -1.796173e-04 3.367585e-04 -1.726479e-04 4.455558e-04 -3.322200e-04 3.665422e-04 -1.580896e-04 4.738175e-04 -2.247443e-04 1.446076e-04 -8.221153e-05 1.156380e-04 5.187646e-05 -5.473486e-06 2.123004e-04 -1.581838e-04 3.782920e-04 -3.293693e-04 5.326831e-04 -4.954629e-04 6.584707e-04 -6.280640e-04 7.518984e-04 -6.898113e-04 8.005884e-04 -6.811680e-04 7.643755e-04 -6.137000e-04 6.365598e-04 -4.718536e-04 4.377435e-04 -2.528507e-04 1.830801e-04 2.592282e-05 -1.063831e-04 3.383388e-04 -4.054302e-04 6.423488e-04 -6.905779e-04 8.957657e-04 -9.187021e-04 1.073337e-03 -1.047035e-03 1.133982e-03 -1.057837e-03 1.046591e-03 -9.171528e-04 8.192069e-04 -6.045788e-04 4.502295e-04 -1.488992e-04 -5.302640e-05 4.112654e-04 -6.357644e-04 1.026994e-03 -1.197761e-03 1.600850e-03 -1.558415e-03 1.864616e-03 -1.373108e-03 -1.006556e-03 -1.381145e-02 -2.885309e-02 -2.020603e-02 -1.103385e-02 -4.549329e-03 
-3.883995e-04 6.417008e-03 9.936673e-03 1.863274e-02 9.142418e-03 -1.057477e-02 3.598354e-03 -1.833221e-04 -1.686683e-03 1.067175e-03 -2.802729e-03 1.083899e-03 -1.078238e-03 2.201762e-03 1.122976e-03 1.515386e-04 9.271369e-04 -1.051625e-03 1.284100e-03 -2.525012e-03 8.064208e-04 -4.341239e-04 2.543356e-04 8.686560e-04 1.755100e-05 7.270873e-04 -3.641827e-04 7.708957e-04 -5.350531e-04 8.098425e-04 -5.774318e-04 7.917950e-04 -5.103436e-04 7.219544e-04 -3.692668e-04 5.911780e-04 -2.017656e-04 4.185612e-04 -1.741624e-05 2.425107e-04 1.669200e-04 8.540475e-05 3.416927e-04 -2.243453e-05 4.931764e-04 -9.152121e-05 5.783358e-04 -1.367170e-04 5.975702e-04 -1.330719e-04 5.756067e-04 -7.681579e-05 5.021045e-04 -8.442487e-06 3.512141e-04 4.127866e-05 1.339829e-04 6.750026e-05 -9.566759e-05 1.582609e-04 -3.162939e-04 2.530353e-04 -3.483739e-04 4.287999e-04 -3.926533e-04 5.107757e-04 -3.078404e-04 6.025170e-04 -3.198463e-04 5.016038e-04 -2.529781e-04 4.266737e-04 -2.264029e-04 1.768023e-04 -7.769773e-05 -3.795173e-05 1.325533e-04 -2.562586e-04 3.514969e-04 -4.734297e-04 5.545074e-04 -6.661152e-04 7.185207e-04 -8.060454e-04 8.393029e-04 -8.514767e-04 9.017902e-04 -8.098451e-04 8.521373e-04 -7.000305e-04 6.820826e-04 -5.000669e-04 4.197023e-04 -2.042536e-04 8.477466e-05 1.655722e-04 -2.941274e-04 5.754279e-04 -6.816019e-04 9.678657e-04 -1.043370e-03 1.283027e-03 -1.316657e-03 1.483190e-03 -1.438982e-03 1.508281e-03 -1.384749e-03 1.312930e-03 -1.107714e-03 9.076540e-04 -5.827163e-04 2.903161e-04 1.447744e-04 -5.316714e-04 1.016446e-03 -1.496203e-03 1.970560e-03 -2.509283e-03 2.942187e-03 -3.419119e-03 3.960775e-03 -3.786924e-03 5.883238e-03 6.472095e-03 -2.272244e-02 -1.776718e-02 -1.089703e-02 -4.237530e-03 
-9.050388e-04 2.182739e-03 6.129793e-04 3.842058e-03 -7.552433e-03 -1.320884e-02 1.017743e-02 -1.295258e-03 9.702149e-04 1.107210e-03 4.784613e-04 1.469254e-04 -3.450700e-03 -3.204743e-03 -4.826027e-03 3.067670e-04 -1.799114e-03 1.759637e-03 -2.463539e-04 4.412201e-03 2.376318e-03 2.242558e-03 1.671601e-03 -4.698872e-04 6.270480e-04 -4.250078e-06 3.116285e-04 2.181503e-04 7.354436e-05 3.011208e-04 -5.316158e-05 3.062428e-04 -8.804563e-05 2.638258e-04 -6.444509e-05 1.821821e-04 -1.830497e-05 7.450665e-05 3.360032e-05 -4.073656e-05 7.594194e-05 -1.524527e-04 9.938135e-05 -2.476813e-04 9.609429e-05 -3.287621e-04 5.230788e-05 -3.948265e-04 -1.940597e-05 -4.193848e-04 -8.378096e-05 -3.704451e-04 -1.050564e-04 -2.217905e-04 -4.869384e-05 4.568380e-05 9.508679e-05 3.699391e-04 2.550636e-04 5.828134e-04 1.229738e-04 5.492198e-04 8.809720e-05 5.669584e-04 -1.986475e-04 3.380941e-04 -2.623727e-04 2.563815e-04 -4.648239e-04 3.290002e-05 -1.742113e-04 3.123365e-04 5.303633e-05 2.730772e-04 2.799825e-04 2.235817e-04 4.691042e-04 1.088255e-04 6.020986e-04 -4.709272e-05 6.881592e-04 -2.059401e-04 7.335856e-04 -3.336733e-04 7.452811e-04 -3.998852e-04 7.194434e-04 -4.011125e-04 6.333401e-04 -3.432913e-04 4.820518e-04 -2.190777e-04 2.776124e-04 -2.998182e-05 3.226770e-05 2.078780e-04 -2.352115e-04 4.694382e-04 -5.004613e-04 7.170918e-04 -7.363910e-04 9.106648e-04 -9.026255e-04 1.018839e-03 -9.592714e-04 1.004137e-03 -8.840753e-04 8.400043e-04 -6.521729e-04 5.288441e-04 -2.548422e-04 7.697752e-05 2.789233e-04 -4.964867e-04 9.027607e-04 -1.146629e-03 1.547800e-03 -1.840977e-03 2.087442e-03 -2.673697e-03 2.239865e-03 -4.392160e-03 2.920186e-03 1.035339e-02 -4.507452e-03 -3.504268e-03 -3.359993e-03 -6.831544e-04 
-5.477972e-04 7.698368e-04 -1.448368e-04 5.735583e-04 -3.008797e-03 -4.137428e-03 4.923133e-03 1.401455e-03 3.325930e-03 5.043610e-03 6.806889e-03 1.083968e-02 1.211617e-02 1.249283e-02 7.762287e-03 2.976818e-03 1.320768e-03 -1.063145e-03 -4.299916e-03 -6.023270e-03 -1.222044e-02 -1.323603e-02 -9.681198e-03 -7.016103e-03 -4.290232e-03 -2.925960e-03 -1.903071e-03 -1.200133e-03 -8.896094e-04 -4.518930e-04 -4.402649e-04 -1.335879e-04 -2.278054e-04 -8.020786e-06 -1.174792e-04 2.688150e-05 -5.826406e-05 1.698188e-05 -3.107345e-05 -1.611258e-05 -3.168525e-05 -6.489373e-05 -6.306983e-05 -1.305898e-04 -1.342567e-04 -2.246313e-04 -2.602321e-04 -3.631013e-04 -4.542219e-04 -5.606949e-04 -7.275950e-04 -8.339161e-04 -1.093002e-03 -1.198277e-03 -1.552757e-03 -1.637198e-03 -1.991310e-03 -1.789992e-03 -2.258118e-03 -1.705458e-03 -8.290596e-04 -3.715744e-04 -9.364454e-04 -9.360134e-05 7.911867e-04 1.603666e-03 7.507773e-04 1.808693e-03 2.625537e-03 3.199584e-03 1.457023e-03 7.828783e-04 1.388076e-03 9.499800e-04 1.070693e-03 6.384984e-04 8.110774e-04 3.490180e-04 6.612321e-04 1.209982e-04 5.776488e-04 -4.960720e-05 5.235511e-04 -1.662274e-04 4.780921e-04 -2.278631e-04 4.266820e-04 -2.381623e-04 3.552653e-04 -2.034517e-04 2.576434e-04 -1.277314e-04 1.361710e-04 -1.730986e-05 -2.523160e-06 1.165196e-04 -1.480879e-04 2.579737e-04 -2.874458e-04 3.870693e-04 -4.052048e-04 4.836206e-04 -4.822467e-04 5.307383e-04 -5.004237e-04 5.128789e-04 -4.476713e-04 4.203021e-04 -3.155592e-04 2.535715e-04 -1.046440e-04 1.964428e-05 1.696978e-04 -2.652877e-04 4.790828e-04 -5.718601e-04 7.750984e-04 -8.669086e-04 9.649366e-04 -1.153093e-03 8.384677e-04 -1.690471e-03 7.958576e-04 3.770823e-03 -5.067231e-04 -8.019328e-05 -1.249139e-03 -7.996531e-05 
