# vtk DataFile Version 2.0
Comment goes here
ASCII

DATASET STRUCTURED_POINTS
FIELD FieldData 1
TIME 1 1 double
0.74000000
DIMENSIONS    128   16   1

ORIGIN    0.000   0.000   0.000
SPACING   0.0078125 0.015625   1.000

POINT_DATA   2048
SCALARS uY double
LOOKUP_TABLE default

2.663957e-06 -3.187768e-06 2.626184e-06 -1.751968e-06 3.933338e-06 1.433298e-06 8.327656e-06 -2.565970e-06 5.623968e-06 -4.125217e-06 3.966134e-06 -3.858144e-06 -3.367645e-07 4.913954e-07 -6.275965e-06 7.916715e-06 -1.175963e-05 1.596380e-05 -1.158877e-05 2.365615e-05 -8.267493e-06 3.645772e-05 -2.531016e-05 5.716059e-05 -3.009952e-05 7.516514e-05 -3.264358e-05 9.201746e-05 -3.263886e-05 1.094417e-04 -2.688126e-05 1.286511e-04 -1.103858e-05 1.505395e-04 2.069274e-05 1.759803e-04 7.361016e-05 2.055789e-04 1.534402e-04 2.449401e-04 2.710251e-04 3.091304e-04 4.412988e-04 4.199776e-04 6.818102e-04 6.094868e-04 1.020707e-03 9.244557e-04 1.496637e-03 1.416230e-03 2.144065e-03 2.107298e-03 2.931479e-03 2.854053e-03 3.566782e-03 3.095483e-03 3.108094e-03 6.452039e-04 4.136470e-04 -2.074261e-04 -1.769711e-03 -2.326834e-03 -1.225604e-03 -1.789403e-03 -2.744512e-03 -3.245908e-03 -1.612198e-03 -1.937953e-03 -2.947982e-03 -3.050002e-03 -1.934679e-03 3.537293e-04 -9.343894e-04 -2.653082e-04 -7.428397e-04 -2.643225e-04 -6.663664e-04 -1.719370e-04 -5.210713e-04 -5.420452e-05 -3.803028e-04 7.222659e-06 -2.692773e-04 1.783201e-05 -1.837068e-04 1.264728e-06 -1.180165e-04 -2.288872e-05 -6.733593e-05 -4.195817e-05 -2.864416e-05 -5.258892e-05 -1.018180e-06 -5.529033e-05 1.731349e-05 -5.325147e-05 2.521303e-05 -5.123181e-05 2.443741e-05 -4.750167e-05 2.152955e-05 -3.914307e-05 1.938424e-05 -2.814387e-05 1.561647e-05 -1.894926e-05 7.460879e-06 -1.291007e-05 -3.679690e-06 -7.378561e-06 -1.353868e-05 1.477949e-06 -1.841462e-05 1.321954e-05 -2.111755e-05 2.120403e-05 -2.493931e-05 2.338956e-05 -2.615731e-05 2.053290e-05 -2.147616e-05 1.055957e-05 -9.136415e-06 -7.818510e-06 -1.392138e-06 -5.239241e-06 2.299818e-06 -4.085878e-06 
-6.431496e-04 8.123820e-04 -1.784723e-04 6.330079e-04 -3.130778e-03 -4.045600e-03 5.437730e-03 1.497553e-03 3.324614e-03 4.909299e-03 6.694915e-03 1.075801e-02 1.229072e-02 1.256426e-02 7.631484e-03 2.859072e-03 9.301167e-04 -1.257889e-03 -4.620577e-03 -6.109571e-03 -1.231534e-02 -1.302996e-02 -9.718098e-03 -6.876628e-03 -4.394640e-03 -2.775631e-03 -2.021975e-03 -1.023976e-03 -1.015144e-03 -2.588068e-04 -5.688514e-04 6.182316e-05 -3.518169e-04 1.760736e-04 -2.180723e-04 1.914070e-04 -1.069245e-04 1.533895e-04 3.026564e-06 8.454182e-05 1.230122e-04 9.264637e-06 2.658010e-04 -4.104940e-05 4.472174e-04 -2.198171e-05 7.008023e-04 1.427339e-04 1.104558e-03 5.983112e-04 1.839139e-03 1.646562e-03 3.290135e-03 3.924539e-03 6.575087e-03 9.636906e-03 1.090831e-02 5.617585e-03 9.979688e-03 9.592634e-03 -5.555899e-03 -6.014148e-03 8.644937e-03 6.079081e-03 -1.156008e-02 -1.250420e-02 3.794771e-03 1.369996e-04 -2.191766e-02 -2.827681e-02 -5.127317e-03 1.191202e-02 7.576700e-04 -1.563966e-03 -1.041982e-03 -5.505126e-04 -7.544260e-04 -2.600823e-04 -5.225342e-04 -1.141266e-04 -2.725729e-04 -9.523259e-05 -6.439403e-05 -1.434401e-04 9.087826e-05 -2.038305e-04 1.872553e-04 -2.398408e-04 2.249063e-04 -2.313228e-04 2.080207e-04 -1.756358e-04 1.436977e-04 -7.935439e-05 4.394899e-05 4.339458e-05 -8.058229e-05 1.723956e-04 -2.131285e-04 2.929950e-04 -3.291975e-04 3.911110e-04 -4.071809e-04 4.480622e-04 -4.330526e-04 4.446891e-04 -3.987237e-04 3.675125e-04 -2.997906e-04 2.123886e-04 -1.362803e-04 -1.384925e-05 8.219820e-05 -2.995244e-04 3.226201e-04 -6.339187e-04 5.286255e-04 -9.934837e-04 6.319326e-04 -1.338863e-03 5.891070e-04 -1.438259e-03 2.164755e-03 4.351159e-03 -6.695729e-04 -1.343930e-04 -1.469195e-03 -1.215862e-04 
-1.484878e-03 1.916607e-03 3.071057e-04 3.952449e-03 -7.702872e-03 -1.300083e-02 1.120004e-02 -1.197636e-03 6.826562e-04 6.387684e-04 3.974843e-05 -9.227487e-06 -3.269940e-03 -3.248023e-03 -4.854481e-03 4.386679e-04 -1.780355e-03 1.902386e-03 -1.909022e-04 4.438609e-03 2.439479e-03 2.738253e-03 1.679319e-03 -4.011592e-04 3.822981e-04 3.282747e-05 9.427950e-05 3.261034e-04 -8.916649e-05 4.766678e-04 -1.718961e-04 5.262807e-04 -1.751015e-04 5.108564e-04 -1.023314e-04 4.637818e-04 3.675259e-05 3.932630e-04 2.181274e-04 3.030299e-04 4.371349e-04 2.317841e-04 7.181411e-04 2.392329e-04 1.090764e-03 4.028913e-04 1.616862e-03 8.536045e-04 2.428404e-03 1.825246e-03 3.823050e-03 3.826842e-03 6.479454e-03 8.046869e-03 1.238896e-02 1.733032e-02 1.481478e-02 -6.217023e-03 -7.677613e-03 4.849434e-04 -4.920973e-03 -5.728076e-03 -2.995529e-03 -3.183286e-03 -5.802279e-03 -7.221806e-03 -2.834670e-03 -4.057544e-03 -4.597579e-03 -7.354783e-03 -6.542789e-03 5.326260e-03 -2.068136e-03 -2.767792e-03 -1.528447e-03 -8.209684e-04 -9.310927e-04 -3.397738e-04 -5.708762e-04 -2.081232e-04 -2.168332e-04 -2.635364e-04 9.236330e-05 -3.793551e-04 3.312522e-04 -4.813222e-04 4.681788e-04 -5.255238e-04 4.990181e-04 -4.801226e-04 4.321754e-04 -3.485931e-04 2.783904e-04 -1.417458e-04 6.696601e-05 1.159565e-04 -1.897014e-04 3.766474e-04 -4.644280e-04 6.169010e-04 -7.034194e-04 8.137843e-04 -8.637017e-04 9.293395e-04 -9.183687e-04 9.234899e-04 -8.525334e-04 7.666065e-04 -6.589601e-04 4.448582e-04 -3.380010e-04 -2.693960e-05 1.049737e-04 -6.214394e-04 6.145850e-04 -1.333485e-03 1.102045e-03 -2.129463e-03 1.527590e-03 -2.929562e-03 2.089979e-03 -3.496905e-03 6.138748e-03 1.149602e-02 -5.073774e-03 -3.695515e-03 -4.052661e-03 -1.100612e-03 
-1.712819e-04 6.854741e-03 1.030470e-02 1.936535e-02 9.247008e-03 -1.177374e-02 3.430058e-03 -7.409966e-05 -1.697796e-03 1.265119e-03 -2.740417e-03 1.309746e-03 -9.476808e-04 2.201356e-03 1.157643e-03 8.188587e-05 9.358718e-04 -1.080514e-03 1.211032e-03 -2.431957e-03 6.158502e-04 -2.997040e-04 2.140192e-04 9.922130e-04 -1.185824e-04 8.840733e-04 -5.238858e-04 9.352968e-04 -7.106588e-04 9.720302e-04 -7.612662e-04 9.362035e-04 -7.186790e-04 8.341876e-04 -5.868408e-04 6.983475e-04 -3.875533e-04 5.130047e-04 -1.864731e-04 2.463609e-04 -1.388005e-05 -7.288458e-05 1.501916e-04 -4.114399e-04 2.893476e-04 -7.757778e-04 3.582121e-04 -1.199255e-03 2.517612e-04 -1.802675e-03 -2.210576e-04 -2.777834e-03 -1.347903e-03 -4.556229e-03 -3.938577e-03 -8.239760e-03 -5.457842e-03 -9.186813e-04 -1.205675e-04 -2.972244e-03 2.468979e-03 3.744909e-03 -1.702497e-03 -1.624142e-04 5.021861e-03 6.447246e-03 -1.435750e-04 2.382089e-03 7.172629e-03 1.184175e-02 2.233953e-03 -3.761800e-03 -1.472031e-03 1.750132e-03 -5.552780e-04 1.240953e-03 -3.567576e-04 8.126125e-04 -6.846649e-05 3.195296e-04 2.682030e-04 -1.444306e-04 6.069836e-04 -5.075346e-04 8.793235e-04 -7.457846e-04 1.009860e-03 -8.486012e-04 9.891220e-04 -7.855354e-04 8.322870e-04 -5.809337e-04 5.511800e-04 -2.548228e-04 2.010248e-04 1.517907e-04 -2.105695e-04 5.471863e-04 -6.494791e-04 9.060014e-04 -1.021639e-03 1.209063e-03 -1.264367e-03 1.404802e-03 -1.345603e-03 1.433264e-03 -1.250624e-03 1.250847e-03 -9.687965e-04 8.396031e-04 -4.898378e-04 2.415761e-04 2.204468e-04 -4.734395e-04 1.115583e-03 -1.293468e-03 2.098187e-03 -2.148306e-03 3.108729e-03 -2.966551e-03 3.968724e-03 -3.992152e-03 4.651027e-03 4.648169e-03 -2.331765e-02 -1.748105e-02 -1.067141e-02 -3.874132e-03 
9.378601e-04 6.635251e-03 1.502685e-02 2.240535e-02 2.896669e-02 5.959263e-03 -8.745723e-03 2.210840e-03 -9.652038e-04 1.190476e-03 4.240740e-04 8.689865e-04 7.028150e-04 -3.911431e-04 2.685367e-04 -3.382225e-04 4.012781e-04 -4.474558e-04 4.508254e-04 -4.403553e-04 3.423696e-04 -1.879416e-03 1.344833e-04 -8.054694e-04 4.162487e-05 2.070611e-04 -1.707031e-04 6.689771e-04 -4.034724e-04 8.662517e-04 -5.455619e-04 9.114425e-04 -5.877445e-04 8.663481e-04 -5.300384e-04 7.783339e-04 -3.950040e-04 6.486837e-04 -2.367885e-04 4.628769e-04 -7.753056e-05 2.473813e-04 1.075622e-04 3.414278e-05 3.290326e-04 -1.638446e-04 5.892829e-04 -3.267945e-04 8.726889e-04 -4.432014e-04 1.157269e-03 -4.575214e-04 1.480894e-03 -2.748943e-04 1.860829e-03 1.098703e-04 2.273840e-03 3.285729e-03 6.085915e-03 3.730366e-03 -2.468679e-04 -1.901505e-03 4.160783e-03 3.085313e-03 -5.117924e-03 -3.814806e-03 3.621151e-04 8.317904e-04 -9.978618e-03 -1.097538e-02 -1.771929e-03 5.529940e-03 9.478667e-04 1.856264e-03 -5.404684e-04 9.476615e-04 -5.172371e-04 4.650432e-04 -1.732798e-04 6.719157e-05 1.973302e-04 -2.807431e-04 5.231600e-04 -5.473295e-04 7.624998e-04 -7.159330e-04 8.750733e-04 -7.810431e-04 8.626102e-04 -7.225130e-04 7.414843e-04 -5.583978e-04 5.237597e-04 -3.046276e-04 2.525157e-04 6.185315e-06 -6.251510e-05 3.062936e-04 -3.950877e-04 5.773006e-04 -6.777705e-04 8.086159e-04 -8.696279e-04 9.680302e-04 -9.527181e-04 1.015257e-03 -9.212777e-04 9.197197e-04 -7.712797e-04 6.680805e-04 -4.988712e-04 2.882273e-04 -8.332931e-05 -1.742584e-04 4.330497e-04 -7.139237e-04 9.577108e-04 -1.262537e-03 1.390996e-03 -1.638680e-03 1.499192e-03 -1.090465e-03 -1.362468e-03 -1.153441e-02 -2.728566e-02 -2.132955e-02 -1.206083e-02 -5.714146e-03 
7.624386e-04 3.233608e-03 8.195293e-03 1.007061e-02 1.788980e-02 1.089604e-02 -3.492283e-03 3.300777e-03 1.042097e-03 1.738642e-03 2.647710e-03 2.215640e-03 2.095520e-03 -2.988662e-04 2.774693e-04 -2.863252e-04 3.958611e-04 -4.357448e-04 4.168937e-04 -4.564172e-04 2.524774e-04 -1.228455e-03 -1.325981e-03 -2.468600e-03 -1.357668e-03 -1.000498e-03 -9.260939e-04 -1.670151e-04 -7.085783e-04 2.808262e-04 -5.775379e-04 4.976498e-04 -4.701218e-04 5.815328e-04 -3.489469e-04 5.958177e-04 -1.990980e-04 5.768791e-04 -1.900274e-05 5.512073e-04 2.014262e-04 5.546086e-04 4.933775e-04 6.395653e-04 9.106811e-04 8.920826e-04 1.551437e-03 1.479864e-03 2.610841e-03 2.746482e-03 4.507373e-03 5.417244e-03 8.172241e-03 1.118725e-02 1.646817e-02 2.471042e-02 2.013341e-02 -1.164979e-02 -1.290308e-02 -4.029010e-03 -6.357312e-03 -6.309392e-03 -7.273642e-03 -6.833027e-03 -3.523189e-03 -6.582709e-03 -4.372128e-03 -5.165973e-03 -3.972797e-04 -3.831576e-04 -9.500288e-03 3.569400e-03 -4.965988e-03 -5.759859e-03 -2.667867e-03 -1.824067e-03 -1.281748e-03 -9.318546e-04 -6.752210e-04 -6.062995e-04 -2.375972e-04 -5.138901e-04 7.349516e-05 -5.152684e-04 2.797039e-04 -5.322043e-04 3.921506e-04 -5.238572e-04 4.217777e-04 -4.687709e-04 3.804375e-04 -3.644884e-04 2.805718e-04 -2.185412e-04 1.407949e-04 -4.820635e-05 -2.254816e-05 1.221036e-04 -1.893736e-04 2.760494e-04 -3.328683e-04 4.009431e-04 -4.334227e-04 4.815247e-04 -4.799104e-04 5.009779e-04 -4.683323e-04 4.460372e-04 -4.002808e-04 3.109138e-04 -2.850041e-04 1.004167e-04 -1.429470e-04 -1.759583e-04 -2.578352e-05 -5.079008e-04 -1.962440e-05 -8.427795e-04 -2.338567e-04 -9.749969e-04 -7.644128e-04 -7.019740e-05 -4.421397e-03 -1.335639e-02 -1.367629e-02 -9.966087e-03 -6.092473e-03 -3.024827e-03 
3.998577e-04 1.893509e-03 4.133554e-03 5.026623e-03 6.712812e-03 5.514542e-03 2.701298e-03 3.834304e-03 2.769522e-03 4.697224e-03 5.518687e-03 8.647931e-03 6.010407e-03 -1.450457e-04 4.422149e-05 -1.494202e-04 1.213442e-04 -1.330896e-04 1.571977e-04 -6.945572e-05 1.511897e-04 -3.611305e-03 -6.212616e-03 -5.985559e-03 -4.144396e-03 -3.055821e-03 -2.253864e-03 -1.363355e-03 -1.262635e-03 -4.345494e-04 -7.436006e-04 4.433896e-05 -4.614114e-04 2.717490e-04 -2.793217e-04 3.662710e-04 -1.277191e-04 3.930958e-04 2.470154e-05 3.902818e-04 1.966373e-04 3.895982e-04 4.077427e-04 4.251412e-04 6.816282e-04 5.422485e-04 1.055052e-03 8.172139e-04 1.597268e-03 1.393707e-03 2.458081e-03 2.567767e-03 3.980937e-03 5.053289e-03 7.500427e-03 1.177783e-02 1.119213e-02 -2.562809e-03 1.319100e-03 4.243128e-04 -4.916947e-03 -1.442044e-03 -5.004668e-04 -1.484501e-03 -2.487315e-03 -5.330199e-03 -5.368073e-05 -2.589056e-03 -7.798284e-03 -4.860456e-03 -5.314242e-03 2.807735e-03 -4.173151e-03 -4.548359e-03 -2.185037e-03 -1.300076e-03 -9.567166e-04 -5.825838e-04 -5.167977e-04 -3.608545e-04 -2.160385e-04 -3.171824e-04 3.812100e-06 -3.396727e-04 1.552228e-04 -3.704111e-04 2.424869e-04 -3.775276e-04 2.713155e-04 -3.454500e-04 2.486264e-04 -2.732703e-04 1.826944e-04 -1.682806e-04 8.571998e-05 -4.409245e-05 -3.031546e-05 8.164471e-05 -1.502469e-04 1.956387e-04 -2.550360e-04 2.865789e-04 -3.295516e-04 3.414768e-04 -3.650856e-04 3.467088e-04 -3.590003e-04 2.911452e-04 -3.141888e-04 1.683527e-04 -2.407227e-04 -2.233236e-05 -1.599101e-04 -2.797819e-04 -1.153539e-04 -6.035455e-04 -1.742680e-04 -9.798247e-04 -4.259239e-04 -1.374419e-03 -1.003336e-03 -1.815349e-03 -2.968224e-03 -4.875433e-03 -5.600772e-03 -4.681611e-03 -3.228158e-03 -1.713554e-03 
2.480865e-04 7.672436e-04 1.786815e-03 2.063464e-03 2.691812e-03 2.527748e-03 1.178237e-03 1.958313e-03 1.346650e-03 2.305174e-03 2.854761e-03 4.537158e-03 3.372420e-03 -7.055872e-05 4.254155e-05 -8.838615e-05 8.710196e-05 -9.407760e-05 9.781779e-05 -6.158075e-05 7.536092e-05 -1.598212e-03 -3.000982e-03 -2.876180e-03 -1.998572e-03 -1.454814e-03 -1.098657e-03 -6.323034e-04 -6.076031e-04 -1.613644e-04 -3.293400e-04 9.979750e-05 -1.572721e-04 2.465952e-04 -2.442190e-05 3.398168e-04 1.081303e-04 4.173286e-04 2.639757e-04 5.057971e-04 4.618061e-04 6.296365e-04 7.216331e-04 8.164318e-04 1.067434e-03 1.100562e-03 1.528139e-03 1.523348e-03 2.133163e-03 2.120614e-03 2.892956e-03 2.878001e-03 3.732785e-03 3.590620e-03 4.361625e-03 3.835264e-03 4.159339e-03 2.494296e-04 1.211222e-03 -5.378433e-04 -3.408809e-03 -3.425312e-03 -1.300566e-03 -2.075760e-03 -4.190475e-03 -5.050463e-03 -1.856685e-03 -2.169792e-03 -6.410418e-03 -5.695489e-03 -3.504058e-03 1.673951e-03 -8.254088e-04 -6.445706e-05 -4.787416e-04 7.047462e-05 -3.164540e-04 -1.258336e-05 -2.438654e-04 -7.232924e-05 -1.588658e-04 -1.192231e-04 -7.646904e-05 -1.607490e-04 -9.815257e-06 -1.918381e-04 3.670158e-05 -2.046631e-04 6.252534e-05 -1.954248e-04 6.805853e-05 -1.657062e-04 5.489874e-05 -1.205318e-04 2.676506e-05 -6.683773e-05 -1.114318e-05 -1.203223e-05 -5.220875e-05 3.787115e-05 -8.913257e-05 7.791050e-05 -1.162185e-04 1.031835e-04 -1.304235e-04 1.088350e-04 -1.314705e-04 9.080322e-05 -1.220147e-04 4.629093e-05 -1.087755e-04 -2.641554e-05 -1.044688e-04 -1.287476e-04 -1.301376e-04 -2.614992e-04 -2.144978e-04 -4.240874e-04 -3.947828e-04 -6.338576e-04 -7.358241e-04 -1.022296e-03 -1.459871e-03 -2.299687e-03 -2.192573e-03 -1.971487e-03 -1.257466e-03 -7.213869e-04 
-5.933456e-06 4.267993e-06 -4.750386e-06 3.748968e-06 -4.550079e-06 3.426167e-06 -5.080773e-06 2.682724e-06 -4.095494e-06 2.023846e-06 -2.327811e-06 2.035919e-06 -1.945467e-06 1.333165e-07 3.182921e-07 1.806787e-07 3.974483e-07 4.382073e-07 5.287685e-07 7.699948e-07 8.668829e-07 5.665176e-05 -1.951103e-05 5.199741e-05 -1.732696e-05 6.023996e-05 -1.261534e-05 7.062556e-05 -4.766926e-06 8.430242e-05 8.426080e-06 1.023588e-04 2.976483e-05 1.260006e-04 6.276283e-05 1.564685e-04 1.115164e-04 1.953487e-04 1.810971e-04 2.459461e-04 2.783827e-04 3.146488e-04 4.119776e-04 4.116533e-04 5.922955e-04 5.527512e-04 8.330774e-04 7.602416e-04 1.150985e-03 1.057892e-03 1.560526e-03 1.454364e-03 2.056304e-03 1.888182e-03 2.540923e-03 2.059086e-03 2.557292e-03 6.304635e-04 1.219438e-03 1.192985e-04 -3.455956e-04 -7.013800e-04 -6.199673e-04 -1.126467e-03 -1.191955e-03 -1.794020e-03 -1.444985e-03 -1.590226e-03 -2.483963e-03 -1.654209e-03 -2.391481e-03 -7.092858e-04 -1.825973e-03 -8.291568e-04 -1.160712e-03 -4.630815e-04 -7.239324e-04 -2.311192e-04 -4.702636e-04 -1.082117e-04 -3.142298e-04 -5.812234e-05 -2.140718e-04 -5.038865e-05 -1.469773e-04 -6.092167e-05 -9.902206e-05 -7.374788e-05 -6.255322e-05 -8.119368e-05 -3.437357e-05 -8.193222e-05 -1.344528e-05 -7.767613e-05 1.035191e-06 -7.109030e-05 9.865587e-06 -6.438531e-05 1.460994e-05 -5.784676e-05 1.741179e-05 -5.085297e-05 1.920622e-05 -4.339376e-05 1.935504e-05 -3.596873e-05 1.696242e-05 -2.857194e-05 1.219629e-05 -2.049515e-05 6.199868e-06 -1.119913e-05 1.220178e-07 -1.536034e-06 -5.924832e-06 6.306512e-06 -1.178670e-05 1.097454e-05 -1.611939e-05 1.227719e-05 -1.768606e-05 1.055108e-05 -1.607671e-05 7.204949e-06 -1.213038e-05 5.903134e-06 -8.378405e-06 5.010201e-06 
-2.590501e-04 -7.594878e-04 -1.794865e-03 -2.057557e-03 -2.699157e-03 -2.523318e-03 -1.188415e-03 -1.955981e-03 -1.352287e-03 -2.305491e-03 -2.854480e-03 -4.539136e-03 -3.369789e-03 7.042222e-05 -4.163314e-05 8.809495e-05 -8.623537e-05 9.482535e-05 -9.723732e-05 6.349013e-05 -7.397569e-05 1.741830e-03 2.974345e-03 3.014705e-03 1.984561e-03 1.612357e-03 1.105265e-03 8.171337e-04 6.454170e-04 3.858645e-04 4.145381e-04 1.809912e-04 3.133363e-04 1.123335e-04 2.844566e-04 1.253903e-04 3.009998e-04 1.903372e-04 3.548463e-04 2.930254e-04 4.481491e-04 4.284410e-04 5.865523e-04 5.956721e-04 7.747216e-04 7.950472e-04 1.013352e-03 1.022870e-03 1.291403e-03 1.258334e-03 1.572047e-03 1.444533e-03 1.775762e-03 1.469458e-03 1.768735e-03 1.169394e-03 1.382054e-03 3.668194e-04 4.855263e-04 -3.933064e-04 -5.886800e-04 -1.211899e-03 -1.082657e-03 -1.610117e-03 -1.680033e-03 -2.034387e-03 -1.848500e-03 -1.867279e-03 -2.220255e-03 -1.740780e-03 -1.794306e-03 -7.315912e-04 -1.139022e-03 -3.454156e-04 -7.176455e-04 -1.092770e-04 -4.901321e-04 5.963564e-06 -3.767910e-04 5.827646e-05 -3.191233e-04 7.589663e-05 -2.862211e-04 7.364187e-05 -2.602640e-04 6.077112e-05 -2.309143e-04 4.213657e-05 -1.933630e-04 1.914866e-05 -1.469987e-04 -8.860047e-06 -9.386332e-05 -4.231118e-05 -3.706371e-05 -8.029537e-05 1.937910e-05 -1.200545e-04 7.165775e-05 -1.561407e-04 1.164344e-04 -1.821702e-04 1.494865e-04 -1.928525e-04 1.662431e-04 -1.839379e-04 1.644969e-04 -1.511525e-04 1.470762e-04 -9.033583e-05 1.227663e-04 1.160573e-06 1.065578e-04 1.230194e-04 1.198442e-04 2.716476e-04 1.918513e-04 4.438607e-04 3.626138e-04 6.567919e-04 6.992412e-04 1.042785e-03 1.424766e-03 2.314707e-03 2.167691e-03 1.984165e-03 1.241058e-03 7.314802e-04 
-4.067898e-04 -1.885811e-03 -4.138825e-03 -5.019387e-03 -6.718210e-03 -5.505142e-03 -2.716372e-03 -3.827726e-03 -2.779038e-03 -4.694431e-03 -5.522233e-03 -8.646878e-03 -6.011631e-03 1.447317e-04 -4.355179e-05 1.489229e-04 -1.207581e-04 1.336694e-04 -1.566830e-04 7.160604e-05 -1.491738e-04 3.706118e-03 6.162849e-03 6.076768e-03 4.100460e-03 3.164465e-03 2.214410e-03 1.489502e-03 1.229736e-03 5.831173e-04 7.250984e-04 1.346641e-04 4.703449e-04 -5.190575e-05 3.359330e-04 -9.419143e-05 2.587523e-04 -5.953557e-05 2.149911e-04 1.666240e-05 2.027336e-04 1.168141e-04 2.253975e-04 2.282179e-04 2.840193e-04 3.446699e-04 3.833141e-04 4.689509e-04 5.267306e-04 5.995038e-04 7.036032e-04 7.168179e-04 8.781058e-04 7.684175e-04 9.749595e-04 6.618976e-04 8.801732e-04 3.056013e-04 5.169454e-04 -5.754294e-05 6.274688e-05 -4.401838e-04 -2.376843e-04 -7.044854e-04 -5.234449e-04 -9.118549e-04 -7.211331e-04 -9.120560e-04 -9.374747e-04 -8.327615e-04 -9.314752e-04 -5.406398e-04 -7.962840e-04 -3.604006e-04 -6.487669e-04 -1.829507e-04 -5.436901e-04 -3.057434e-05 -4.844353e-04 8.715620e-05 -4.577880e-04 1.678055e-04 -4.456381e-04 2.143782e-04 -4.308221e-04 2.295186e-04 -4.016691e-04 2.146968e-04 -3.497038e-04 1.727326e-04 -2.715386e-04 1.049244e-04 -1.702461e-04 1.493876e-05 -5.178544e-05 -9.117047e-05 7.221745e-05 -2.052266e-04 1.907056e-04 -3.105214e-04 2.958562e-04 -3.886901e-04 3.756115e-04 -4.273545e-04 4.145347e-04 -4.181082e-04 4.027767e-04 -3.507122e-04 3.438161e-04 -2.139236e-04 2.538101e-04 -1.178195e-06 1.604755e-04 2.844204e-04 1.032821e-04 6.293271e-04 1.451026e-04 1.015661e-03 3.830028e-04 1.411310e-03 9.553093e-04 1.842691e-03 2.925855e-03 4.881152e-03 5.576452e-03 4.690957e-03 3.216071e-03 1.722532e-03 
-7.637267e-04 -3.227838e-03 -8.193896e-03 -1.006498e-02 -1.788215e-02 -1.088697e-02 3.455560e-03 -3.293308e-03 -1.049511e-03 -1.740664e-03 -2.643232e-03 -2.227281e-03 -2.080972e-03 2.962976e-04 -2.742854e-04 2.812757e-04 -3.940173e-04 4.360027e-04 -4.199406e-04 4.642322e-04 -2.514723e-04 1.336096e-03 1.252581e-03 2.569972e-03 1.307266e-03 1.116058e-03 8.853971e-04 2.970164e-04 6.764768e-04 -1.290871e-04 5.618912e-04 -3.125906e-04 4.837916e-04 -3.472946e-04 4.133440e-04 -2.937491e-04 3.429486e-04 -1.912125e-04 2.796829e-04 -6.097252e-05 2.411147e-04 8.648517e-05 2.400735e-04 2.371193e-04 2.777932e-04 3.817334e-04 3.601355e-04 5.251204e-04 4.925595e-04 6.681938e-04 6.647120e-04 7.965559e-04 8.429154e-04 8.676875e-04 9.561307e-04 8.004209e-04 8.906243e-04 4.617187e-04 5.453648e-04 6.432379e-05 3.731257e-05 -5.133674e-04 -2.454072e-04 -8.163199e-04 -7.026719e-04 -1.242860e-03 -8.771143e-04 -1.276346e-03 -1.186641e-03 -1.349475e-03 -1.023166e-03 -7.049756e-04 -7.626715e-04 -4.442146e-04 -6.365976e-04 -2.253292e-04 -5.767072e-04 -4.061375e-05 -5.541982e-04 1.097471e-04 -5.532661e-04 2.223408e-04 -5.573631e-04 2.971903e-04 -5.506705e-04 3.317529e-04 -5.232764e-04 3.231986e-04 -4.650252e-04 2.743921e-04 -3.704835e-04 1.864447e-04 -2.433317e-04 6.529851e-05 -9.009233e-05 -8.001991e-05 7.261851e-05 -2.395453e-04 2.294778e-04 -3.895903e-04 3.715562e-04 -5.046262e-04 4.821852e-04 -5.696800e-04 5.378958e-04 -5.761345e-04 5.224322e-04 -5.121099e-04 4.381680e-04 -3.643468e-04 3.029604e-04 -1.278586e-04 1.479308e-04 1.858304e-04 1.667271e-05 5.442405e-04 -1.283154e-05 8.895730e-04 1.826555e-04 1.021226e-03 7.057012e-04 1.024397e-04 4.348135e-03 1.335684e-02 1.365621e-02 9.977531e-03 6.086718e-03 3.032692e-03 
-9.267866e-04 -6.631822e-03 -1.501927e-02 -2.240719e-02 -2.894799e-02 -5.921408e-03 8.693420e-03 -2.201296e-03 9.512285e-04 -1.194866e-03 -4.225493e-04 -8.766864e-04 -6.898210e-04 3.860505e-04 -2.656733e-04 3.323865e-04 -4.009440e-04 4.459078e-04 -4.559947e-04 4.480094e-04 -3.389461e-04 1.912532e-03 -2.078027e-04 8.635122e-04 -1.024092e-04 -1.216634e-04 1.007731e-04 -5.821703e-04 3.079774e-04 -7.742899e-04 4.284616e-04 -8.062620e-04 4.483524e-04 -7.361856e-04 3.853895e-04 -6.065246e-04 2.592400e-04 -4.593189e-04 9.547649e-05 -3.084537e-04 -5.048095e-05 -1.438973e-04 -1.507509e-04 -8.050206e-06 -2.390632e-04 5.940405e-05 -3.029015e-04 9.044045e-05 -3.062451e-04 1.064683e-04 -2.452682e-04 1.177722e-04 -1.273633e-04 1.138373e-04 5.130154e-07 5.382611e-05 7.621301e-05 -1.400518e-04 5.779428e-05 -2.457700e-04 7.629784e-06 -4.322263e-04 1.839213e-04 -3.957948e-04 1.092797e-04 -5.199494e-04 2.393228e-04 -3.995998e-04 5.768699e-05 -4.691598e-04 1.434249e-04 -2.265767e-05 1.053822e-04 8.312581e-06 -8.118917e-05 9.462362e-05 -2.667697e-04 2.370189e-04 -4.278105e-04 3.940959e-04 -5.702642e-04 5.334366e-04 -6.806998e-04 6.413595e-04 -7.419745e-04 6.912408e-04 -7.585135e-04 6.604958e-04 -7.081507e-04 5.661626e-04 -5.739547e-04 4.010635e-04 -3.724605e-04 1.777034e-04 -1.038863e-04 -8.701917e-05 1.821031e-04 -4.000413e-04 4.496466e-04 -6.999859e-04 7.091554e-04 -9.196910e-04 9.306131e-04 -1.041785e-03 1.046501e-03 -1.071886e-03 1.005146e-03 -9.871008e-04 8.121947e-04 -7.477036e-04 4.943030e-04 -3.351034e-04 8.426914e-05 2.159710e-04 -4.256833e-04 7.980410e-04 -1.001988e-03 1.348930e-03 -1.474487e-03 1.731860e-03 -1.599151e-03 1.173038e-03 1.263630e-03 1.141890e-02 2.727637e-02 2.134883e-02 1.208117e-02 5.724356e-03 
1.873902e-04 -6.857968e-03 -1.030025e-02 -1.937508e-02 -9.236660e-03 1.182921e-02 -3.433062e-03 7.502366e-05 1.687665e-03 -1.271215e-03 2.738710e-03 -1.306964e-03 9.490035e-04 -2.230723e-03 -1.137435e-03 -1.094668e-04 -9.190985e-04 1.075368e-03 -1.236231e-03 2.487179e-03 -7.153914e-04 3.226387e-04 -2.824299e-04 -9.313561e-04 4.661029e-05 -7.790503e-04 4.305129e-04 -8.240527e-04 5.720692e-04 -8.536813e-04 5.807896e-04 -8.074719e-04 4.947049e-04 -6.909562e-04 3.439410e-04 -5.313751e-04 1.450371e-04 -3.709013e-04 -8.162755e-05 -2.186554e-04 -2.732894e-04 -5.331424e-05 -4.020824e-04 7.036317e-05 -5.225823e-04 9.757848e-05 -6.227654e-04 7.003448e-05 -6.566981e-04 1.425044e-05 -6.197754e-04 -5.218925e-05 -5.116788e-04 -1.221933e-04 -3.605794e-04 -1.885844e-04 -1.506602e-04 -1.639390e-04 1.554080e-04 -1.652783e-04 4.281191e-04 -1.501717e-04 4.763281e-04 -3.034680e-04 4.901939e-04 -3.749795e-04 3.771644e-04 -4.835474e-04 3.587972e-04 -4.039858e-04 2.473068e-04 -4.196852e-04 9.822558e-05 -2.385971e-04 -8.221090e-05 -4.063522e-05 -2.734396e-04 1.916044e-04 -4.659457e-04 4.203615e-04 -6.551265e-04 6.167400e-04 -8.090836e-04 7.673217e-04 -8.970975e-04 8.361790e-04 -9.227072e-04 7.928134e-04 -8.547409e-04 6.626329e-04 -6.705695e-04 4.369771e-04 -3.945534e-04 1.340882e-04 -2.753031e-05 -2.218284e-04 3.601705e-04 -6.406570e-04 7.163760e-04 -1.036864e-03 1.052816e-03 -1.316574e-03 1.325297e-03 -1.454406e-03 1.439019e-03 -1.457255e-03 1.320984e-03 -1.293294e-03 9.766185e-04 -9.091911e-04 4.388379e-04 -2.816242e-04 -2.527878e-04 5.384620e-04 -1.122660e-03 1.402400e-03 -2.159244e-03 2.253727e-03 -3.208769e-03 3.083289e-03 -4.081670e-03 4.095309e-03 -4.716433e-03 -4.855629e-03 2.333465e-02 1.749011e-02 1.070839e-02 3.876831e-03 
1.492998e-03 -1.923633e-03 -3.061008e-04 -3.961699e-03 7.702180e-03 1.302824e-02 -1.116034e-02 1.185322e-03 -6.747543e-04 -6.564185e-04 -2.680091e-05 -1.758738e-05 3.284198e-03 3.260071e-03 4.835511e-03 -4.133744e-04 1.747566e-03 -1.882238e-03 1.821190e-04 -4.462259e-03 -2.418660e-03 -2.653802e-03 -1.770020e-03 5.172441e-04 -4.560715e-04 1.225640e-04 -1.714455e-04 -1.446133e-04 -7.768053e-07 -2.657115e-04 7.673187e-05 -2.808414e-04 8.924407e-05 -2.253719e-04 5.973825e-05 -1.297587e-04 4.923975e-06 -2.139505e-05 -5.751107e-05 9.116523e-05 -9.474207e-05 2.137074e-04 -9.097652e-05 3.217930e-04 -6.675962e-05 3.892249e-04 -2.159172e-05 4.236602e-04 5.000414e-05 4.176062e-04 1.220324e-04 3.428579e-04 1.460093e-04 1.492048e-04 5.059236e-05 -2.011539e-04 -1.681953e-04 -5.723062e-04 -3.522480e-04 -8.147392e-04 -2.846436e-04 -7.910943e-04 -3.020902e-04 -7.903150e-04 -1.560018e-05 -5.021372e-04 7.157173e-05 -3.124244e-04 3.637860e-04 3.250290e-05 1.755884e-04 -1.953501e-04 -1.444889e-06 -9.407299e-05 -1.397888e-04 -3.091972e-06 -2.808752e-04 1.175789e-04 -4.117469e-04 2.495610e-04 -5.288112e-04 3.675567e-04 -6.162868e-04 4.549772e-04 -6.576952e-04 4.904056e-04 -6.505048e-04 4.582244e-04 -5.804695e-04 3.674090e-04 -4.391038e-04 2.162073e-04 -2.392049e-04 1.504031e-05 1.171280e-05 -2.208688e-04 2.762798e-04 -4.853614e-04 5.229288e-04 -7.305453e-04 7.443013e-04 -9.033287e-04 9.095032e-04 -9.794755e-04 9.672779e-04 -9.499605e-04 8.791053e-04 -7.913886e-04 6.458910e-04 -4.733827e-04 2.903351e-04 1.871953e-05 -1.509363e-04 6.642556e-04 -6.522387e-04 1.401443e-03 -1.161368e-03 2.199677e-03 -1.601472e-03 3.002008e-03 -2.162305e-03 3.552224e-03 -6.139830e-03 -1.160145e-02 5.080818e-03 3.686702e-03 4.069802e-03 1.093968e-03 
6.479370e-04 -8.179246e-04 1.814155e-04 -6.362906e-04 3.132693e-03 4.053038e-03 -5.414615e-03 -1.504830e-03 -3.316071e-03 -4.922897e-03 -6.686467e-03 -1.078236e-02 -1.228537e-02 -1.257797e-02 -7.667486e-03 -2.813953e-03 -1.013640e-03 1.336149e-03 4.563347e-03 6.150457e-03 1.234261e-02 1.307167e-02 9.634981e-03 6.949935e-03 4.305416e-03 2.880632e-03 1.916799e-03 1.152688e-03 8.902399e-04 4.062829e-04 4.271471e-04 9.971767e-05 2.033459e-04 -6.896204e-06 8.197519e-05 -2.447783e-05 7.899671e-06 -6.132584e-06 -3.624808e-05 2.678517e-05 -4.740079e-05 7.097809e-05 -1.755170e-05 1.282996e-04 6.158413e-05 2.134841e-04 2.140079e-04 3.659424e-04 4.817852e-04 6.426385e-04 9.174265e-04 1.106754e-03 1.565351e-03 1.777025e-03 2.377746e-03 2.466752e-03 2.934264e-03 2.181755e-03 2.417054e-03 1.698147e-03 7.054320e-04 -1.131585e-04 5.606008e-04 -4.978780e-04 -1.481372e-03 -2.490430e-03 -1.647652e-03 -2.658877e-03 -3.636963e-03 -4.085103e-03 -2.355432e-03 -8.203069e-04 -1.207148e-03 -6.679191e-04 -8.677583e-04 -4.060430e-04 -6.808361e-04 -1.573479e-04 -5.648508e-04 3.926270e-05 -4.975166e-04 1.665206e-04 -4.570379e-04 2.323577e-04 -4.213830e-04 2.483313e-04 -3.760939e-04 2.236598e-04 -3.103661e-04 1.675447e-04 -2.192021e-04 8.440590e-05 -1.054448e-04 -2.062141e-05 2.488740e-05 -1.412235e-04 1.578433e-04 -2.695713e-04 2.805412e-04 -3.858069e-04 3.849276e-04 -4.676733e-04 4.562949e-04 -5.015791e-04 4.735542e-04 -4.797881e-04 4.205853e-04 -3.920772e-04 2.958186e-04 -2.273837e-04 1.097713e-04 1.767000e-05 -1.186923e-04 3.305426e-04 -3.646053e-04 6.832324e-04 -5.811054e-04 1.047788e-03 -6.905374e-04 1.387609e-03 -6.413747e-04 1.465072e-03 -2.179847e-03 -4.379826e-03 6.651219e-04 1.229861e-04 1.473940e-03 1.139213e-04 
