# vtk DataFile Version 2.0
Comment goes here
ASCII

DATASET STRUCTURED_POINTS
FIELD FieldData 1
TIME 1 1 double
0.06500000
DIMENSIONS    64   64   1

ORIGIN    0.000   0.000   0.000
SPACING   0.03125 0.03125   1.000

POINT_DATA   4096
SCALARS Omega double
LOOKUP_TABLE default

-3.360473e-03 7.841178e-03 -4.194866e-03 1.022722e-05 8.420504e-04 1.463266e-03 -2.697101e-03 1.924775e-04 2.940521e-03 -6.772133e-03 9.407053e-03 -1.324635e-02 1.413824e-02 -1.490589e-02 1.342799e-02 -1.980361e-02 -3.945834e-03 -7.015165e-03 1.761887e-02 -1.890758e-03 4.845899e-03 2.292341e-03 -4.927874e-03 1.016801e-02 -1.229680e-02 1.330289e-02 -1.353409e-02 1.346081e-02 -1.445030e-02 1.317670e-02 -1.074317e-02 7.671110e-03 -6.929846e-03 4.052032e-03 1.213017e-03 -5.266544e-03 3.434722e-03 2.008593e-03 -5.962038e-03 6.159607e-03 -3.623472e-03 1.486864e-03 1.738947e-03 -4.461761e-03 5.757089e-03 -5.731685e-03 4.825203e-03 -2.484902e-03 3.344175e-03 -4.555111e-03 5.534174e-03 -4.606337e-03 4.127493e-03 -1.511392e-03 -5.572913e-04 1.896953e-03 1.106444e-04 -1.342929e-03 2.349945e-03 -1.612160e-03 -5.308604e-04 3.678338e-03 -7.395639e-03 7.294367e-03 
-1.556983e+01 -4.027870e+01 -1.294674e+01 -3.363232e+01 -1.973417e+01 -2.823265e+01 -2.572539e+01 -2.410531e+01 -3.244763e+01 -2.201703e+01 -3.618445e+01 -2.104169e+01 -3.805441e+01 -2.079525e+01 -3.914389e+01 -2.021325e+01 -4.108690e+01 -1.807449e+01 -4.462400e+01 -1.413978e+01 -4.969332e+01 -8.947750e+00 -5.543133e+01 -3.568214e+00 -6.099708e+01 1.505159e+00 -6.618787e+01 6.310015e+00 -7.126230e+01 1.110831e+01 -7.633963e+01 1.601258e+01 -8.162104e+01 2.088264e+01 -8.612381e+01 2.403042e+01 -8.836115e+01 2.488776e+01 -8.849446e+01 2.412011e+01 -8.738361e+01 2.257511e+01 -8.568017e+01 2.049164e+01 -8.319241e+01 1.728485e+01 -7.880213e+01 1.190305e+01 -7.210609e+01 4.751660e+00 -6.421241e+01 -2.943812e+00 -5.579027e+01 -1.097826e+01 -4.686089e+01 -1.912012e+01 -3.803547e+01 -2.648381e+01 -3.013388e+01 -3.225468e+01 -2.370926e+01 -3.640418e+01 -1.774985e+01 -3.972767e+01 
-6.266743e+01 7.007970e+00 -5.259327e+01 6.091276e+00 -1.045342e+01 4.008031e+00 -5.329538e+01 -2.393290e+00 -6.794722e+01 -3.550049e+00 -7.809421e+01 -3.704142e+00 -8.595105e+01 -3.280376e+00 -9.231393e+01 -2.935847e+00 -9.677097e+01 -3.518640e+00 -9.937407e+01 -5.100294e+00 -1.003231e+02 -7.383440e+00 -1.004320e+02 -9.695196e+00 -1.002309e+02 -1.183009e+01 -9.992349e+01 -1.381485e+01 -9.929516e+01 -1.589944e+01 -9.843738e+01 -1.812559e+01 -9.700205e+01 -2.072260e+01 -9.555606e+01 -2.240636e+01 -9.521414e+01 -2.283395e+01 -9.559999e+01 -2.257271e+01 -9.614388e+01 -2.216360e+01 -9.635022e+01 -2.183006e+01 -9.621089e+01 -2.124839e+01 -9.653500e+01 -1.945458e+01 -9.765533e+01 -1.680586e+01 -9.855713e+01 -1.409849e+01 -9.882138e+01 -1.121242e+01 -9.855113e+01 -7.992741e+00 -9.727994e+01 -4.935685e+00 -9.427942e+01 -2.361293e+00 -8.879611e+01 -3.913419e-01 -8.145531e+01 2.139172e-01 
-3.049440e+01 6.754597e+00 -2.878899e+01 1.053995e+01 -3.468358e+01 4.493519e+00 -1.946183e+01 8.343131e+00 -2.854705e+01 6.158784e+00 -3.456263e+01 4.614557e+00 -3.915354e+01 3.677929e+00 -4.275294e+01 2.779450e+00 -4.507542e+01 1.365740e+00 -4.598039e+01 -7.585970e-01 -4.570064e+01 -3.428152e+00 -4.470157e+01 -5.965818e+00 -4.360120e+01 -8.144180e+00 -4.242066e+01 -1.022276e+01 -4.103915e+01 -1.220866e+01 -3.946422e+01 -1.416810e+01 -3.749832e+01 -1.617522e+01 -3.564355e+01 -1.730844e+01 -3.473804e+01 -1.733658e+01 -3.461462e+01 -1.673633e+01 -3.484874e+01 -1.598059e+01 -3.506783e+01 -1.521900e+01 -3.529331e+01 -1.420506e+01 -3.614553e+01 -1.225860e+01 -3.790902e+01 -9.524578e+00 -3.984565e+01 -6.874753e+00 -4.153866e+01 -4.094833e+00 -4.316723e+01 -1.245165e+00 -4.433345e+01 1.372742e+00 -4.437155e+01 3.204192e+00 -4.269931e+01 4.949141e+00 -4.128380e+01 7.136311e+00 
-3.108347e+00 2.207300e+00 -3.137059e+00 -6.855033e+00 -5.663544e+01 -9.884794e-01 6.571179e+00 5.788872e-01 1.222766e+00 3.470456e-01 -5.528537e-01 1.793775e-01 -1.209509e+00 3.454334e-02 -1.473469e+00 -1.002007e-01 -1.577432e+00 -1.911371e-01 -1.623244e+00 -2.467632e-01 -1.654070e+00 -2.667901e-01 -1.674465e+00 -2.602648e-01 -1.682865e+00 -2.349859e-01 -1.685701e+00 -2.279626e-01 -1.656027e+00 -2.292662e-01 -1.586072e+00 -2.352195e-01 -1.473820e+00 -2.428316e-01 -1.331523e+00 -2.812429e-01 -1.186852e+00 -3.820374e-01 -1.060233e+00 -5.324399e-01 -9.487923e-01 -6.810247e-01 -8.320582e-01 -7.716496e-01 -7.088318e-01 -7.771038e-01 -5.912348e-01 -7.201366e-01 -4.948869e-01 -6.264133e-01 -4.418728e-01 -5.235691e-01 -4.243809e-01 -3.735419e-01 -4.506999e-01 -1.675996e-01 -5.270663e-01 1.151499e-01 -6.778444e-01 4.729901e-01 -9.063859e-01 9.942199e-01 -1.246300e+00 2.061856e+00 
-2.598366e+00 1.960334e+00 -2.856408e+00 -6.049766e+00 -7.354926e+01 -3.045543e+00 5.511576e+00 -1.067522e+00 3.159669e+00 -2.664111e-01 1.588726e+00 -1.662855e-01 8.117243e-01 -1.594277e-01 4.256175e-01 -1.459705e-01 2.137907e-01 -1.322951e-01 1.032423e-01 -1.119599e-01 4.410577e-02 -8.417430e-02 1.232276e-02 -6.493242e-02 -1.408374e-02 -5.842996e-02 -1.964516e-02 -3.750075e-02 -2.270005e-02 -2.132850e-02 -2.221836e-02 -1.027594e-02 -2.190474e-02 -6.344464e-03 -2.188291e-02 -8.235310e-03 -2.247875e-02 -7.295329e-03 -2.383446e-02 1.560716e-03 -2.730453e-02 1.862859e-02 -3.187646e-02 3.515823e-02 -4.058170e-02 5.316847e-02 -5.416159e-02 7.739239e-02 -7.785376e-02 1.034807e-01 -1.047277e-01 1.556424e-01 -1.496464e-01 2.207391e-01 -2.229237e-01 3.259299e-01 -3.438477e-01 4.875889e-01 -5.412596e-01 7.592279e-01 -9.076110e-01 1.096751e+00 -1.429596e+00 1.191273e+00 
-2.563382e+00 1.256867e+00 -1.716033e+00 -6.991340e+00 -8.398951e+01 -2.211630e+00 4.252513e+00 -1.320726e+00 3.100071e+00 -5.498273e-01 1.738536e+00 -3.419808e-01 9.424713e-01 -2.681835e-01 5.235127e-01 -2.231213e-01 2.989272e-01 -1.839780e-01 1.775546e-01 -1.472412e-01 1.126843e-01 -1.130086e-01 7.909887e-02 -8.283575e-02 6.526287e-02 -5.632227e-02 6.142233e-02 -2.994734e-02 6.083958e-02 -3.209703e-03 5.817533e-02 1.784109e-02 5.055071e-02 2.696259e-02 3.912024e-02 2.505932e-02 2.469376e-02 2.123874e-02 6.573120e-03 2.406496e-02 -1.468984e-02 3.476472e-02 -3.588159e-02 5.120024e-02 -5.581198e-02 7.524308e-02 -7.634516e-02 1.106672e-01 -1.018119e-01 1.595636e-01 -1.411387e-01 2.252842e-01 -2.039575e-01 3.143153e-01 -3.033604e-01 4.317958e-01 -4.598595e-01 5.862307e-01 -7.049607e-01 7.969554e-01 -1.078739e+00 1.055074e+00 -1.612238e+00 1.220858e+00 
-2.265018e+00 9.923457e-01 -1.237233e+00 -6.013204e+00 -9.390096e+01 -2.081254e+00 2.201527e+00 -1.984721e+00 2.422990e+00 -9.858223e-01 1.687901e+00 -5.622398e-01 1.020151e+00 -3.951674e-01 6.007158e-01 -3.084840e-01 3.524016e-01 -2.487107e-01 2.085129e-01 -2.005992e-01 1.246539e-01 -1.585044e-01 7.600448e-02 -1.243870e-01 4.524652e-02 -9.636461e-02 2.874075e-02 -7.032427e-02 1.999104e-02 -4.763239e-02 1.515541e-02 -2.892186e-02 1.129793e-02 -1.382441e-02 7.204962e-03 -7.920937e-04 2.126160e-03 1.346008e-02 -3.987647e-03 3.239416e-02 -1.160353e-02 5.722346e-02 -2.073357e-02 8.655047e-02 -3.401963e-02 1.213346e-01 -5.340197e-02 1.637427e-01 -8.192616e-02 2.176276e-01 -1.225633e-01 2.908673e-01 -1.834159e-01 3.885303e-01 -2.787101e-01 5.225320e-01 -4.273677e-01 7.052268e-01 -6.579673e-01 9.427665e-01 -1.009407e+00 1.202666e+00 -1.499156e+00 1.415690e+00 
-1.835828e+00 6.491017e-01 -5.473733e-02 -6.401387e+00 -9.943721e+01 -1.317874e+00 1.335496e+00 -1.890466e+00 1.750338e+00 -1.140276e+00 1.436415e+00 -7.204753e-01 9.374559e-01 -5.130670e-01 5.742818e-01 -3.922999e-01 3.488151e-01 -3.082337e-01 2.154287e-01 -2.427990e-01 1.384364e-01 -1.887290e-01 9.515336e-02 -1.429528e-01 7.234360e-02 -1.033968e-01 6.061013e-02 -6.849090e-02 5.380415e-02 -3.807242e-02 4.788141e-02 -1.331844e-02 4.042915e-02 4.830147e-03 3.056859e-02 1.739284e-02 1.790535e-02 2.810743e-02 2.451754e-03 4.139039e-02 -1.506007e-02 6.020847e-02 -3.366747e-02 8.623766e-02 -5.381683e-02 1.215011e-01 -7.770422e-02 1.686057e-01 -1.092623e-01 2.305210e-01 -1.549526e-01 3.115138e-01 -2.233345e-01 4.171852e-01 -3.258341e-01 5.535658e-01 -4.779450e-01 7.271742e-01 -6.989664e-01 9.412500e-01 -1.006843e+00 1.174100e+00 -1.406922e+00 1.347654e+00 
-1.404734e+00 4.319470e-01 6.068408e-01 -5.716551e+00 -1.051567e+02 -1.065138e+00 3.317769e-01 -2.098645e+00 9.611341e-01 -1.439980e+00 1.081085e+00 -9.372579e-01 8.169506e-01 -6.542578e-01 5.425786e-01 -4.874933e-01 3.430462e-01 -3.773777e-01 2.129877e-01 -2.968722e-01 1.314404e-01 -2.336742e-01 8.137293e-02 -1.827760e-01 5.016459e-02 -1.406070e-01 3.153984e-02 -1.048342e-01 2.077062e-02 -7.421615e-02 1.435790e-02 -4.781100e-02 9.771123e-03 -2.435990e-02 5.521017e-03 -2.270818e-03 6.968032e-04 2.043153e-02 -5.122160e-03 4.593927e-02 -1.240279e-02 7.592286e-02 -2.179592e-02 1.114676e-01 -3.523375e-02 1.542862e-01 -5.476752e-02 2.068507e-01 -8.326603e-02 2.730651e-01 -1.246527e-01 3.581928e-01 -1.853573e-01 4.680606e-01 -2.756301e-01 6.095697e-01 -4.080047e-01 7.872909e-01 -5.968895e-01 9.959727e-01 -8.540730e-01 1.208194e+00 -1.174818e+00 1.332757e+00 
-9.163169e-01 1.362731e-01 1.588023e+00 -5.647026e+00 -1.075933e+02 -5.251167e-01 -3.953206e-02 -1.970493e+00 3.687961e-01 -1.479887e+00 7.095654e-01 -1.029118e+00 6.259012e-01 -7.447531e-01 4.491708e-01 -5.600404e-01 2.996582e-01 -4.315799e-01 1.961655e-01 -3.358726e-01 1.303155e-01 -2.606343e-01 9.043660e-02 -1.993422e-01 6.729181e-02 -1.481980e-01 5.391518e-02 -1.049189e-01 4.548750e-02 -6.826838e-02 3.878276e-02 -3.756674e-02 3.175928e-02 -1.206521e-02 2.329204e-02 9.644476e-03 1.280648e-02 2.996736e-02 2.211315e-04 5.187495e-02 -1.420121e-02 7.818097e-02 -3.036635e-02 1.113052e-01 -4.904819e-02 1.535993e-01 -7.212221e-02 2.076441e-01 -1.026346e-01 2.764647e-01 -1.450527e-01 3.638673e-01 -2.051950e-01 4.742500e-01 -2.901630e-01 6.116906e-01 -4.077605e-01 7.781697e-01 -5.643126e-01 9.686279e-01 -7.592116e-01 1.159219e+00 -9.676773e-01 1.237993e+00 
-4.791069e-01 -6.779775e-02 2.190469e+00 -5.045597e+00 -1.103500e+02 -2.382072e-01 -4.697193e-01 -1.975313e+00 -1.848943e-01 -1.628817e+00 3.188541e-01 -1.179818e+00 4.116562e-01 -8.625553e-01 3.416252e-01 -6.468474e-01 2.444032e-01 -4.965032e-01 1.635494e-01 -3.865883e-01 1.058508e-01 -3.023908e-01 6.745668e-02 -2.356841e-01 4.261455e-02 -1.813400e-01 2.712363e-02 -1.361031e-01 1.773701e-02 -9.768757e-02 1.191992e-02 -6.428118e-02 7.780477e-03 -3.417669e-02 4.072870e-03 -5.662561e-03 -2.394063e-06 2.303710e-02 -4.957213e-03 5.377932e-02 -1.130314e-02 8.835122e-02 -1.977843e-02 1.284825e-01 -3.173512e-02 1.762059e-01 -4.881914e-02 2.340367e-01 -7.322382e-02 3.052348e-01 -1.078510e-01 3.936603e-01 -1.567042e-01 5.033360e-01 -2.249940e-01 6.375220e-01 -3.175964e-01 7.959848e-01 -4.368257e-01 9.702354e-01 -5.776777e-01 1.135093e+00 -7.054580e-01 1.161947e+00 
-2.647535e-02 -3.195017e-01 2.922285e+00 -4.755683e+00 -1.105113e+02 1.550893e-01 -5.928374e-01 -1.871738e+00 -5.765980e-01 -1.625309e+00 -8.320077e-03 -1.216814e+00 1.978558e-01 -9.152240e-01 2.157705e-01 -6.969538e-01 1.750526e-01 -5.372736e-01 1.285102e-01 -4.170611e-01 9.195632e-02 -3.235249e-01 6.706089e-02 -2.486437e-01 5.134467e-02 -1.873604e-01 4.159761e-02 -1.364113e-01 3.507446e-02 -9.359717e-02 2.972507e-02 -5.726887e-02 2.415385e-02 -2.591752e-02 1.751000e-02 2.148608e-03 9.342038e-03 2.900473e-02 -4.796202e-04 5.704559e-02 -1.193109e-02 8.874152e-02 -2.515131e-02 1.264804e-01 -4.076818e-02 1.726132e-01 -6.003113e-02 2.295951e-01 -8.481384e-02 3.001126e-01 -1.175723e-01 3.871314e-01 -1.610827e-01 4.935527e-01 -2.178518e-01 6.212197e-01 -2.887988e-01 7.690107e-01 -3.706434e-01 9.292989e-01 -4.507346e-01 1.078143e+00 -4.777280e-01 1.062562e+00 
3.674174e-01 -4.946697e-01 3.380833e+00 -4.204033e+00 -1.109610e+02 4.138025e-01 -7.464141e-01 -1.786182e+00 -9.042631e-01 -1.672817e+00 -3.166592e-01 -1.296346e+00 -1.873335e-02 -9.922647e-01 8.013709e-02 -7.615278e-01 9.232563e-02 -5.892396e-01 7.578766e-02 -4.592246e-01 5.476567e-02 -3.588394e-01 3.724364e-02 -2.794461e-01 2.459338e-02 -2.151991e-01 1.621589e-02 -1.620930e-01 1.095054e-02 -1.172025e-01 7.582531e-03 -7.821393e-02 5.072072e-03 -4.312583e-02 2.659028e-03 -1.009502e-02 -1.807835e-04 2.265670e-02 -3.830553e-03 5.690211e-02 -8.682034e-03 9.441789e-02 -1.527395e-02 1.370247e-01 -2.442260e-02 1.867170e-01 -3.712012e-02 2.457426e-01 -5.456042e-02 3.166459e-01 -7.808482e-02 4.020843e-01 -1.090435e-01 5.043569e-01 -1.482425e-01 6.244066e-01 -1.943777e-01 7.599082e-01 -2.415490e-01 9.024089e-01 -2.742017e-01 1.027655e+00 -2.309504e-01 9.651409e-01 
7.478056e-01 -6.899297e-01 3.870417e+00 -3.826655e+00 -1.093153e+02 6.947514e-01 -7.489674e-01 -1.694860e+00 -1.131211e+00 -1.653459e+00 -5.497053e-01 -1.299170e+00 -1.992421e-01 -1.011653e+00 -4.250026e-02 -7.865242e-01 1.623240e-02 -6.125066e-01 3.239621e-02 -4.776669e-01 3.324624e-02 -3.717050e-01 3.017518e-02 -2.869670e-01 2.707014e-02 -2.180473e-01 2.466872e-02 -1.611328e-01 2.260304e-02 -1.134359e-01 2.025371e-02 -7.276801e-02 1.708013e-02 -3.722143e-02 1.272327e-02 -4.933833e-03 7.007450e-03 2.606330e-02 -8.946333e-05 5.787330e-02 -8.530130e-03 9.266341e-02 -1.837020e-02 1.325912e-01 -2.988993e-02 1.797946e-01 -4.361975e-02 2.364275e-01 -6.024749e-02 3.046712e-01 -8.039954e-02 3.866322e-01 -1.041901e-01 4.839503e-01 -1.303835e-01 5.969432e-01 -1.549000e-01 7.231675e-01 -1.683279e-01 8.550245e-01 -1.504989e-01 9.677620e-01 -2.625956e-02 8.646686e-01 
1.071317e+00 -8.197911e-01 4.157640e+00 -3.328661e+00 -1.078826e+02 8.968269e-01 -7.698245e-01 -1.568240e+00 -1.297261e+00 -1.638259e+00 -7.555859e-01 -1.322454e+00 -3.721843e-01 -1.047214e+00 -1.688501e-01 -8.233299e-01 -7.075238e-02 -6.460956e-01 -2.732434e-02 -5.071713e-01 -9.524167e-03 -3.976951e-01 -2.699423e-03 -3.103263e-01 -1.798848e-04 -2.394740e-01 8.561634e-04 -1.809669e-01 1.428283e-03 -1.316174e-01 1.745659e-03 -8.887513e-02 1.705819e-03 -5.058334e-02 1.142456e-03 -1.482514e-02 -9.029293e-05 2.017937e-02 -2.118230e-03 5.614387e-02 -5.092183e-03 9.476107e-02 -9.231135e-03 1.377429e-01 -1.483359e-02 1.868698e-01 -2.218849e-02 2.440010e-01 -3.146655e-02 3.110228e-01 -4.250109e-02 3.896456e-01 -5.438126e-02 4.809760e-01 -6.464397e-02 5.847405e-01 -6.776741e-02 6.980501e-01 -5.279478e-02 8.134237e-01 2.442042e-03 9.054816e-01 1.829638e-01 7.603993e-01 
1.361411e+00 -9.508304e-01 4.427860e+00 -2.941742e+00 -1.047460e+02 1.081636e+00 -7.158784e-01 -1.479032e+00 -1.405723e+00 -1.606353e+00 -8.968570e-01 -1.302829e+00 -4.983736e-01 -1.040742e+00 -2.657662e-01 -8.253759e-01 -1.372838e-01 -6.513033e-01 -6.880198e-02 -5.121595e-01 -3.245433e-02 -4.008434e-01 -1.262337e-02 -3.110989e-01 -1.305790e-03 -2.379514e-01 5.339809e-03 -1.775693e-01 9.065646e-03 -1.269716e-01 1.064363e-02 -8.374497e-02 1.042650e-02 -4.581235e-02 8.618198e-03 -1.125446e-02 5.394090e-03 2.181062e-02 9.452187e-04 5.527888e-02 -4.531790e-03 9.105284e-02 -1.087173e-02 1.310129e-01 -1.795370e-02 1.769976e-01 -2.563893e-02 2.307870e-01 -3.360005e-02 2.940497e-01 -4.100371e-02 3.681869e-01 -4.596346e-02 4.539791e-01 -4.463368e-02 5.509434e-01 -2.976032e-02 6.563431e-01 1.161439e-02 7.632914e-01 1.043774e-01 8.446711e-01 3.454486e-01 6.627019e-01 
1.597294e+00 -1.026922e+00 4.545115e+00 -2.508986e+00 -1.017456e+02 1.215855e+00 -6.773218e-01 -1.336730e+00 -1.461708e+00 -1.551044e+00 -1.012837e+00 -1.285368e+00 -6.145813e-01 -1.041150e+00 -3.627761e-01 -8.349888e-01 -2.115898e-01 -6.648320e-01 -1.238434e-01 -5.268955e-01 -7.349444e-02 -4.156723e-01 -4.428408e-02 -3.256632e-01 -2.686639e-02 -2.521340e-01 -1.609367e-02 -1.912333e-01 -9.206344e-03 -1.398532e-01 -4.754464e-03 -9.544033e-02 -1.976856e-03 -5.582967e-02 -4.532608e-04 -1.912063e-02 7.389417e-05 1.641380e-02 -2.182399e-04 5.239276e-02 -1.197417e-03 9.037324e-02 -2.745319e-03 1.318807e-01 -4.698343e-03 1.784240e-01 -6.724800e-03 2.314727e-01 -8.137533e-03 2.923758e-01 -7.582028e-03 3.621750e-01 -2.519426e-03 4.412653e-01 1.163964e-02 5.288463e-01 4.293894e-02 6.221066e-01 1.051129e-01 7.144906e-01 2.243657e-01 7.777942e-01 5.063144e-01 5.611469e-01 
1.787516e+00 -1.093682e+00 4.624867e+00 -2.156897e+00 -9.736001e+01 1.315902e+00 -6.019976e-01 -1.247699e+00 -1.486447e+00 -1.504493e+00 -1.077959e+00 -1.247876e+00 -6.852146e-01 -1.014377e+00 -4.248260e-01 -8.175613e-01 -2.586901e-01 -6.534042e-01 -1.555920e-01 -5.186354e-01 -9.231567e-02 -4.087497e-01 -5.328477e-02 -3.190982e-01 -2.890699e-02 -2.455444e-01 -1.355918e-02 -1.846259e-01 -4.011602e-03 -1.334867e-01 1.600436e-03 -8.973821e-02 4.393263e-03 -5.131392e-02 5.088290e-03 -1.634652e-02 4.209179e-03 1.692300e-02 2.190276e-03 5.019539e-02 -5.658118e-04 8.512623e-02 -3.648130e-03 1.233166e-01 -6.576059e-03 1.662926e-01 -8.678031e-03 2.154697e-01 -8.873647e-03 2.720772e-01 -5.314945e-03 3.370047e-01 5.182465e-03 4.105187e-01 2.802114e-02 4.917995e-01 7.216309e-02 5.782391e-01 1.522778e-01 6.636187e-01 2.960555e-01 7.174888e-01 6.187729e-01 4.717311e-01 
1.926277e+00 -1.116072e+00 4.587912e+00 -1.797670e+00 -9.304659e+01 1.381158e+00 -5.426289e-01 -1.104790e+00 -1.468029e+00 -1.422083e+00 -1.122011e+00 -1.201004e+00 -7.469682e-01 -9.870638e-01 -4.856828e-01 -8.034499e-01 -3.111615e-01 -6.478273e-01 -1.979852e-01 -5.183645e-01 -1.258241e-01 -4.117869e-01 -7.995147e-02 -3.242528e-01 -5.059048e-02 -2.520635e-01 -3.157082e-02 -1.919538e-01 -1.910020e-02 -1.411362e-01 -1.087008e-02 -9.724102e-02 -5.462801e-03 -5.822870e-02 -1.977663e-03 -2.230862e-02 1.953627e-04 1.212836e-02 1.511625e-03 4.656163e-02 2.361783e-03 8.237697e-02 3.152725e-03 1.208866e-01 4.409920e-03 1.633285e-01 6.929669e-03 2.108341e-01 1.200447e-02 2.643470e-01 2.176976e-02 3.244714e-01 3.974180e-02 3.912186e-01 7.165392e-02 4.636198e-01 1.267424e-01 5.391388e-01 2.198581e-01 6.118770e-01 3.793236e-01 6.502929e-01 7.264921e-01 3.806888e-01 
2.013650e+00 -1.125077e+00 4.507853e+00 -1.502726e+00 -8.761399e+01 1.407211e+00 -4.655130e-01 -1.017887e+00 -1.433884e+00 -1.359589e+00 -1.127009e+00 -1.147397e+00 -7.686295e-01 -9.435632e-01 -5.122714e-01 -7.697987e-01 -3.349646e-01 -6.219348e-01 -2.155906e-01 -4.980375e-01 -1.367288e-01 -3.952977e-01 -8.506113e-02 -3.104333e-01 -5.128093e-02 -2.402277e-01 -2.923994e-02 -1.817811e-01 -1.498886e-02 -1.325686e-01 -6.005617e-03 -9.040466e-02 -6.541623e-04 -5.337293e-02 2.170465e-03 -1.975174e-02 3.268598e-03 1.204676e-02 3.281781e-03 4.351584e-02 2.793317e-03 7.607051e-02 2.414514e-03 1.110449e-01 2.888053e-03 1.496736e-01 5.240364e-03 1.930533e-01 1.101697e-02 2.420695e-01 2.264248e-02 2.972662e-01 4.396436e-02 3.586291e-01 8.106641e-02 4.252462e-01 1.434850e-01 4.947690e-01 2.462349e-01 5.614879e-01 4.181651e-01 5.919327e-01 7.867970e-01 3.049471e-01 
2.053129e+00 -1.099968e+00 4.338815e+00 -1.219155e+00 -8.220654e+01 1.408228e+00 -4.051541e-01 -8.835182e-01 -1.365582e+00 -1.258317e+00 -1.115212e+00 -1.078802e+00 -7.834791e-01 -8.949116e-01 -5.376344e-01 -7.361913e-01 -3.625731e-01 -5.995777e-01 -2.413121e-01 -4.838302e-01 -1.591201e-01 -3.869371e-01 -1.040785e-01 -3.062851e-01 -6.738343e-02 -2.391259e-01 -4.291058e-02 -1.828569e-01 -2.654660e-02 -1.351364e-01 -1.557504e-02 -9.390161e-02 -8.201815e-03 -5.734138e-02 -3.217767e-03 -2.385433e-02 2.313840e-04 7.992823e-03 2.802768e-03 3.950018e-02 5.074367e-03 7.185947e-02 7.652710e-03 1.061653e-01 1.129645e-02 1.434088e-01 1.708100e-02 1.844451e-01 2.663121e-02 2.299261e-01 4.246285e-02 2.801834e-01 6.849146e-02 3.350415e-01 1.107962e-01 3.935341e-01 1.787740e-01 4.534380e-01 2.871180e-01 5.093421e-01 4.645272e-01 5.273138e-01 8.405194e-01 2.301251e-01 
2.040904e+00 -1.061545e+00 4.128850e+00 -9.889240e-01 -7.590661e+01 1.371348e+00 -3.364620e-01 -8.013071e-01 -1.290448e+00 -1.180243e+00 -1.073744e+00 -1.010314e+00 -7.648321e-01 -8.372127e-01 -5.324522e-01 -6.890753e-01 -3.633662e-01 -5.615253e-01 -2.434143e-01 -4.530882e-01 -1.602594e-01 -3.619429e-01 -1.035115e-01 -2.858169e-01 -6.518143e-02 -2.223170e-01 -3.950649e-02 -1.691500e-01 -2.248424e-02 -1.242225e-01 -1.138267e-02 -8.566236e-02 -4.334439e-03 -5.179953e-02 -3.433410e-05 -2.113007e-02 2.476481e-03 7.719110e-03 3.964963e-03 3.601641e-02 5.124623e-03 6.493823e-02 6.682420e-03 9.556784e-02 9.519032e-03 1.288797e-01 1.482864e-02 1.657053e-01 2.434744e-02 2.066718e-01 4.068742e-02 2.520992e-01 6.782594e-02 3.018351e-01 1.118263e-01 3.549987e-01 1.819135e-01 4.095385e-01 2.923558e-01 4.602120e-01 4.714574e-01 4.721967e-01 8.500992e-01 1.717791e-01 
1.985715e+00 -9.982526e-01 3.851760e+00 -7.771714e-01 -6.960136e+01 1.316065e+00 -2.842577e-01 -6.804431e-01 -1.189270e+00 -1.065954e+00 -1.019280e+00 -9.254100e-01 -7.413665e-01 -7.722849e-01 -5.264545e-01 -6.400057e-01 -3.669706e-01 -5.252085e-01 -2.515966e-01 -4.267529e-01 -1.701156e-01 -3.432961e-01 -1.135613e-01 -2.730593e-01 -7.474563e-02 -2.140648e-01 -4.827862e-02 -1.643359e-01 -3.028973e-02 -1.220135e-01 -1.806872e-02 -8.540545e-02 -9.734243e-03 -5.299473e-02 -3.966887e-03 -2.342650e-02 1.931267e-04 4.512230e-03 3.498496e-03 3.191266e-02 6.617640e-03 5.975875e-02 1.024876e-02 8.893246e-02 1.524588e-02 1.202055e-01 2.277810e-02 1.542123e-01 3.454678e-02 1.913980e-01 5.309459e-02 2.319302e-01 8.225538e-02 2.755614e-01 1.278189e-01 3.214124e-01 1.985330e-01 3.675847e-01 3.079015e-01 4.091683e-01 4.831875e-01 4.120543e-01 8.521416e-01 1.162598e-01 
1.882864e+00 -9.238416e-01 3.539675e+00 -6.094597e-01 -6.260070e+01 1.227560e+00 -2.282906e-01 -6.045078e-01 -1.086098e+00 -9.738378e-01 -9.426102e-01 -8.435622e-01 -6.910172e-01 -7.025778e-01 -4.949483e-01 -5.818561e-01 -3.474631e-01 -4.772440e-01 -2.390727e-01 -3.874365e-01 -1.613666e-01 -3.111810e-01 -1.067499e-01 -2.469125e-01 -6.894163e-02 -1.929111e-01 -4.309524e-02 -1.474528e-01 -2.563833e-02 -1.089021e-01 -1.400668e-02 -7.575427e-02 -6.376196e-03 -4.664361e-02 -1.435045e-03 -2.033269e-02 1.796392e-03 4.304100e-03 4.105964e-03 2.829509e-02 6.205037e-03 5.257906e-02 8.835594e-03 7.800379e-02 1.288778e-02 1.053135e-01 1.954831e-02 1.351216e-01 3.050357e-02 1.678632e-01 4.822770e-02 2.037169e-01 7.639813e-02 2.424802e-01 1.205033e-01 2.833723e-01 1.887550e-01 3.246691e-01 2.937612e-01 3.617090e-01 4.614300e-01 3.610168e-01 8.152529e-01 7.664110e-02 
1.743494e+00 -8.323155e-01 3.178145e+00 -4.609274e-01 -5.557864e+01 1.125582e+00 -1.872059e-01 -4.989555e-01 -9.638760e-01 -8.510247e-01 -8.562253e-01 -7.465269e-01 -6.374544e-01 -6.254345e-01 -4.630611e-01 -5.209088e-01 -3.300762e-01 -4.298317e-01 -2.310063e-01 -3.511123e-01 -1.590173e-01 -2.837908e-01 -1.077582e-01 -2.266545e-01 -7.181338e-02 -1.783231e-01 -4.688104e-02 -1.373670e-01 -2.970915e-02 -1.023947e-01 -1.791676e-02 -7.210495e-02 -9.788144e-03 -4.530898e-02 -4.083552e-03 -2.093392e-02 1.190905e-04 1.983304e-03 3.553295e-03 2.430507e-02 6.873853e-03 4.680014e-02 1.076083e-02 7.014508e-02 1.603274e-02 9.491649e-02 2.378544e-02 1.215704e-01 3.557695e-02 1.504037e-01 5.368535e-02 1.814908e-01 8.147920e-02 2.145809e-01 1.239615e-01 2.489342e-01 1.885925e-01 2.830035e-01 2.868313e-01 3.125513e-01 4.425986e-01 3.063004e-01 7.707666e-01 4.078510e-02 
1.563871e+00 -7.325842e-01 2.789111e+00 -3.472575e-01 -4.803624e+01 9.968081e-01 -1.445137e-01 -4.293553e-01 -8.419943e-01 -7.469957e-01 -7.537393e-01 -6.532774e-01 -5.633552e-01 -5.459080e-01 -4.112044e-01 -4.540182e-01 -2.942282e-01 -3.741355e-01 -2.061838e-01 -3.051286e-01 -1.415732e-01 -2.461149e-01 -9.519027e-02 -1.960372e-01 -6.249200e-02 -1.537135e-01 -3.979134e-02 -1.179239e-01 -2.424547e-02 -8.747758e-02 -1.373445e-02 -6.125396e-02 -6.703150e-03 -3.822047e-02 -2.007234e-03 -1.743495e-02 1.220531e-03 1.959361e-03 3.682399e-03 2.074014e-02 6.012513e-03 3.960963e-02 8.868962e-03 5.919280e-02 1.303379e-02 8.002780e-02 1.953591e-02 1.025462e-01 2.981487e-02 1.270382e-01 4.594907e-02 1.535963e-01 7.098191e-02 1.820245e-01 1.093981e-01 2.116911e-01 1.678436e-01 2.412403e-01 2.565008e-01 2.668215e-01 3.969758e-01 2.594957e-01 6.941957e-01 1.878641e-02 
1.355564e+00 -6.218458e-01 2.365334e+00 -2.499400e-01 -4.046786e+01 8.585241e-01 -1.139421e-01 -3.385532e-01 -7.069448e-01 -6.192749e-01 -6.443701e-01 -5.476628e-01 -4.872364e-01 -4.599769e-01 -3.592651e-01 -3.843633e-01 -2.599402e-01 -3.183635e-01 -1.844916e-01 -2.610502e-01 -1.285968e-01 -2.117451e-01 -8.808418e-02 -1.696485e-01 -5.923609e-02 -1.338509e-01 -3.897252e-02 -1.033901e-01 -2.487496e-02 -7.730811e-02 -1.511345e-02 -5.469020e-02 -8.332429e-03 -3.468813e-02 -3.530483e-03 -1.652935e-02 4.965164e-05 4.819511e-04 3.016745e-03 1.696747e-02 5.916087e-03 3.347728e-02 9.311414e-03 5.048940e-02 1.387358e-02 6.840358e-02 2.048769e-02 8.752693e-02 3.039337e-02 1.080476e-01 4.537811e-02 1.299910e-01 6.805319e-02 1.531485e-01 1.022578e-01 1.769592e-01 1.536736e-01 2.002699e-01 2.310178e-01 2.197737e-01 3.530123e-01 2.102251e-01 6.108872e-01 5.266201e-04 
1.116871e+00 -5.057239e-01 1.921993e+00 -1.779432e-01 -3.253837e+01 7.007392e-01 -8.273628e-02 -2.738351e-01 -5.730284e-01 -5.056438e-01 -5.240812e-01 -4.453476e-01 -3.966539e-01 -3.729356e-01 -2.930500e-01 -3.110037e-01 -2.122908e-01 -2.570868e-01 -1.505630e-01 -2.103355e-01 -1.045617e-01 -1.701679e-01 -7.106300e-02 -1.359220e-01 -4.714869e-02 -1.068574e-01 -3.036508e-02 -8.219702e-02 -1.875938e-02 -6.116789e-02 -1.083527e-02 -4.303084e-02 -5.470543e-03 -2.709685e-02 -1.825391e-03 -1.273338e-02 7.439643e-04 6.353466e-04 2.761927e-03 1.353018e-02 4.702353e-03 2.641820e-02 7.055098e-03 3.971093e-02 1.039811e-02 5.375798e-02 1.548470e-02 6.883405e-02 2.335815e-02 8.511649e-02 3.550958e-02 1.026483e-01 5.410271e-02 1.212781e-01 8.230208e-02 1.405613e-01 1.247720e-01 1.595585e-01 1.886605e-01 1.755009e-01 2.895186e-01 1.670582e-01 5.036660e-01 -7.053838e-03 
8.584303e-01 -3.832074e-01 1.456557e+00 -1.175957e-01 -2.458688e+01 5.368562e-01 -6.004669e-02 -1.955326e-01 -4.308904e-01 -3.760072e-01 -3.993972e-01 -3.343986e-01 -3.049126e-01 -2.812802e-01 -2.268881e-01 -2.355081e-01 -1.656806e-01 -1.955302e-01 -1.186291e-01 -1.607226e-01 -8.334972e-02 -1.306713e-01 -5.748966e-02 -1.049162e-01 -3.889191e-02 -8.293853e-02 -2.571937e-02 -6.418485e-02 -1.649282e-02 -4.809581e-02 -1.006823e-02 -3.413038e-02 -5.582446e-03 -2.178159e-02 -2.388276e-03 -1.058461e-02 9.146643e-06 -1.196089e-04 2.010472e-03 9.988196e-03 3.975365e-03 2.006900e-02 6.274525e-03 3.040745e-02 9.345921e-03 4.123877e-02 1.376218e-02 5.274020e-02 2.031798e-02 6.501565e-02 3.014977e-02 7.806989e-02 4.490587e-02 9.176599e-02 6.699571e-02 1.057536e-01 9.997030e-02 1.193180e-01 1.492797e-01 1.303460e-01 2.268700e-01 1.224190e-01 3.914094e-01 -1.169884e-02 
5.811278e-01 -2.577183e-01 9.794752e-01 -7.262498e-02 -1.642284e+01 3.611673e-01 -3.713611e-02 -1.330089e-01 -2.897574e-01 -2.550569e-01 -2.683818e-01 -2.256269e-01 -2.045747e-01 -1.891616e-01 -1.521684e-01 -1.579871e-01 -1.110043e-01 -1.308320e-01 -7.926776e-02 -1.072391e-01 -5.540837e-02 -8.691573e-02 -3.788952e-02 -6.954123e-02 -2.529023e-02 -5.475849e-02 -1.639052e-02 -4.218992e-02 -1.020090e-02 -3.145599e-02 -5.950700e-03 -2.219023e-02 -3.054145e-03 -1.404862e-02 -1.068307e-03 -6.714008e-03 3.488074e-04 1.025540e-04 1.476872e-03 6.662074e-03 2.568757e-03 1.319771e-02 3.885267e-03 1.991372e-02 5.732753e-03 2.698222e-02 8.508330e-03 3.453683e-02 1.275876e-02 4.266154e-02 1.926117e-02 5.137241e-02 2.913767e-02 6.058756e-02 4.402290e-02 7.007724e-02 6.631964e-02 7.935982e-02 9.971300e-02 8.698334e-02 1.523472e-01 8.162647e-02 2.643978e-01 -9.631086e-03 
2.937644e-01 -1.293300e-01 4.916570e-01 -3.366732e-02 -8.246381e+00 1.824933e-01 -1.860921e-02 -6.386814e-02 -1.446839e-01 -1.260601e-01 -1.352272e-01 -1.124351e-01 -1.037136e-01 -9.464242e-02 -7.750975e-02 -7.931542e-02 -5.684999e-02 -6.592620e-02 -4.087815e-02 -5.425494e-02 -2.883293e-02 -4.416158e-02 -1.995527e-02 -3.549534e-02 -1.353957e-02 -2.808748e-02 -8.976600e-03 -2.175734e-02 -5.769632e-03 -1.632122e-02 -3.530263e-03 -1.160022e-02 -1.962729e-03 -7.425847e-03 -8.436052e-04 -3.643066e-03 -1.091040e-06 -1.116290e-04 7.044055e-04 3.293641e-03 1.398337e-03 6.682806e-03 2.209810e-03 1.015039e-02 3.290825e-03 1.377406e-02 4.839249e-03 1.761177e-02 7.128485e-03 2.169670e-02 1.054799e-02 2.602875e-02 1.566075e-02 3.056032e-02 2.328756e-02 3.517217e-02 3.463586e-02 3.962201e-02 5.155980e-02 4.318194e-02 7.816666e-02 4.015546e-02 1.346953e-01 -5.962898e-03 
9.917046e-06 1.444971e-06 -2.240542e-05 1.319577e-04 2.319322e-04 -1.285883e-04 -3.076353e-05 -7.337677e-06 2.086658e-06 5.334091e-06 2.265364e-06 1.735705e-06 -2.469110e-07 4.939607e-07 -5.964385e-07 3.298928e-07 -5.200174e-07 3.064134e-07 -3.754475e-07 3.121025e-07 -2.116818e-07 3.297725e-07 -5.458843e-08 3.482821e-07 7.601840e-08 3.580119e-07 1.676987e-07 3.509358e-07 2.153695e-07 3.211857e-07 2.201321e-07 2.656908e-07 1.877658e-07 1.845130e-07 1.273080e-07 8.067863e-08 4.993157e-08 -4.045620e-08 -3.195752e-08 -1.721150e-07 -1.054705e-07 -3.070995e-07 -1.579612e-07 -4.386582e-07 -1.777210e-07 -5.612009e-07 -1.545808e-07 -6.707999e-07 -8.034495e-08 -7.654822e-07 5.113928e-08 -8.452865e-07 2.443452e-07 -9.121108e-07 5.029935e-07 -9.694660e-07 8.320514e-07 -1.025092e-06 1.255367e-06 -1.158878e-06 2.076120e-06 -2.254127e-06 5.403520e-06 -6.913510e-06 
-2.937424e-01 1.293294e-01 -4.917023e-01 3.393444e-02 8.246881e+00 -1.827542e-01 1.854687e-02 6.385715e-02 1.446903e-01 1.260714e-01 1.352316e-01 1.124385e-01 1.037129e-01 9.464350e-02 7.750831e-02 7.931626e-02 5.684871e-02 6.592705e-02 4.087719e-02 5.425579e-02 2.883236e-02 4.416244e-02 1.995507e-02 3.549617e-02 1.353968e-02 2.808825e-02 8.976928e-03 2.175804e-02 5.770076e-03 1.632181e-02 3.530726e-03 1.160067e-02 1.963125e-03 7.426125e-03 8.438750e-04 3.643140e-03 1.198118e-06 1.114731e-04 -7.044699e-04 -3.294043e-03 -1.398555e-03 -6.683459e-03 -2.210136e-03 -1.015129e-02 -3.291191e-03 -1.377519e-02 -4.839565e-03 -1.761310e-02 -7.128647e-03 -2.169821e-02 -1.054788e-02 -2.603041e-02 -1.566024e-02 -3.056211e-02 -2.328651e-02 -3.517407e-02 -3.463414e-02 -3.962402e-02 -5.155720e-02 -4.318422e-02 -7.816242e-02 -4.015988e-02 -1.346843e-01 5.948553e-03 