# vtk DataFile Version 2.0
Comment goes here
ASCII

DATASET STRUCTURED_POINTS
FIELD FieldData 1
TIME 1 1 double
0.07200000
DIMENSIONS    64   64   1

ORIGIN    0.000   0.000   0.000
SPACING   0.03125 0.03125   1.000

POINT_DATA   4096
SCALARS Omega double
LOOKUP_TABLE default

2.025870e-02 1.041269e-02 -1.332451e-02 1.270116e-02 -1.093672e-02 7.153885e-03 -9.939457e-03 7.833260e-03 -5.303627e-03 2.479778e-03 -1.002046e-04 -1.687959e-03 2.982400e-03 -5.355353e-03 4.407566e-03 -1.337974e-02 -4.601571e-03 -2.780458e-03 1.006695e-02 2.514849e-03 5.782777e-03 -4.268623e-04 1.518893e-03 2.002567e-03 -3.423794e-03 4.854592e-03 -5.260462e-03 4.692923e-03 -3.188157e-03 1.613965e-03 1.530446e-04 -1.710545e-03 2.846029e-03 -4.568455e-03 7.677187e-03 -1.046583e-02 1.195250e-02 -1.131908e-02 1.001124e-02 -6.235765e-03 3.066217e-03 2.950177e-04 -1.693384e-03 1.475805e-03 2.319015e-04 -1.161049e-03 1.913316e-03 -2.498264e-03 3.353920e-03 -2.724711e-03 1.106794e-03 2.085290e-03 -4.311907e-03 6.292947e-03 -6.709282e-03 7.293737e-03 -5.291794e-03 5.205030e-03 -2.695096e-03 2.781706e-04 1.554802e-03 4.866732e-04 -3.168060e-03 -7.295960e-03 
-2.174110e+01 -3.644307e+01 -1.825924e+01 -3.492500e+01 -2.136168e+01 -3.296939e+01 -2.394336e+01 -3.248907e+01 -2.856395e+01 -3.212471e+01 -3.229778e+01 -3.009698e+01 -3.643766e+01 -2.699186e+01 -4.076999e+01 -2.326431e+01 -4.550980e+01 -1.885688e+01 -5.057242e+01 -1.402767e+01 -5.618508e+01 -8.200047e+00 -6.291965e+01 -1.331050e+00 -7.032068e+01 5.700468e+00 -7.723282e+01 1.169345e+01 -8.272324e+01 1.587947e+01 -8.627696e+01 1.833165e+01 -8.849931e+01 1.996586e+01 -9.032466e+01 2.135696e+01 -9.195785e+01 2.253525e+01 -9.325660e+01 2.325339e+01 -9.375958e+01 2.306017e+01 -9.318059e+01 2.154291e+01 -9.091337e+01 1.815607e+01 -8.638539e+01 1.273728e+01 -8.012175e+01 6.340443e+00 -7.316907e+01 -5.233820e-01 -6.542485e+01 -8.044689e+00 -5.670365e+01 -1.620871e+01 -4.719426e+01 -2.475873e+01 -3.717392e+01 -3.318438e+01 -2.730385e+01 -4.069317e+01 -1.633573e+01 -4.793477e+01 
-6.341447e+01 -5.177372e+00 -5.145977e+01 2.886371e+00 -8.290793e+00 2.952555e+00 -6.041103e+01 -3.246254e+00 -7.824247e+01 -3.559302e+00 -8.949956e+01 -4.010253e+00 -9.693341e+01 -4.688766e+00 -1.022776e+02 -5.540073e+00 -1.058935e+02 -6.856538e+00 -1.084208e+02 -8.233399e+00 -1.099892e+02 -1.017490e+01 -1.102503e+02 -1.293221e+01 -1.095029e+02 -1.592905e+01 -1.086316e+02 -1.840636e+01 -1.081545e+02 -1.997373e+01 -1.084590e+02 -2.071754e+01 -1.091231e+02 -2.134478e+01 -1.094850e+02 -2.202921e+01 -1.095360e+02 -2.276474e+01 -1.092900e+02 -2.344974e+01 -1.090129e+02 -2.385422e+01 -1.087371e+02 -2.378915e+01 -1.087901e+02 -2.288964e+01 -1.095384e+02 -2.091789e+01 -1.105200e+02 -1.875083e+01 -1.107893e+02 -1.643089e+01 -1.105450e+02 -1.371005e+01 -1.097724e+02 -1.050518e+01 -1.081420e+02 -6.832708e+00 -1.054306e+02 -2.625441e+00 -1.008923e+02 1.682318e+00 -9.867738e+01 9.386245e+00 
-3.051430e+01 -3.158709e-01 -2.855248e+01 8.294406e+00 -3.967702e+01 3.716180e+00 -2.230270e+01 1.128734e+01 -3.416289e+01 9.667581e+00 -4.119498e+01 7.426128e+00 -4.542709e+01 5.017461e+00 -4.810733e+01 2.572573e+00 -4.964723e+01 3.856978e-02 -5.034567e+01 -2.386073e+00 -5.032884e+01 -5.216697e+00 -4.927370e+01 -8.396336e+00 -4.757999e+01 -1.153048e+01 -4.576670e+01 -1.417124e+01 -4.434492e+01 -1.582850e+01 -4.355267e+01 -1.659304e+01 -4.312207e+01 -1.697075e+01 -4.263106e+01 -1.728425e+01 -4.199239e+01 -1.753990e+01 -4.128900e+01 -1.767691e+01 -4.074648e+01 -1.745608e+01 -4.043788e+01 -1.679500e+01 -4.058088e+01 -1.539160e+01 -4.156086e+01 -1.314984e+01 -4.312063e+01 -1.065180e+01 -4.452423e+01 -8.350583e+00 -4.587205e+01 -5.805310e+00 -4.727021e+01 -3.105533e+00 -4.846503e+01 -2.078421e-01 -4.907984e+01 2.667822e+00 -4.874164e+01 6.644935e+00 -5.112186e+01 9.955055e+00 
-3.816441e+00 2.183891e+00 -3.726356e+00 -8.422119e+00 -6.232354e+01 -3.275639e+00 9.353022e+00 1.325585e+00 2.079424e+00 8.143397e-01 -4.445813e-01 4.044737e-01 -1.404439e+00 1.422698e-01 -1.837736e+00 -3.994644e-02 -2.055850e+00 -1.512510e-01 -2.171566e+00 -2.189166e-01 -2.238953e+00 -2.535624e-01 -2.265034e+00 -2.514083e-01 -2.258323e+00 -2.305443e-01 -2.220229e+00 -2.549183e-01 -2.129102e+00 -3.172153e-01 -1.988249e+00 -3.998495e-01 -1.809659e+00 -4.659747e-01 -1.612026e+00 -5.208137e-01 -1.419325e+00 -6.059118e-01 -1.249848e+00 -7.447203e-01 -1.096866e+00 -9.075935e-01 -9.397003e-01 -1.032065e+00 -7.739580e-01 -1.071216e+00 -6.102558e-01 -1.016912e+00 -4.708709e-01 -8.757427e-01 -3.907870e-01 -6.923801e-01 -3.731208e-01 -4.423545e-01 -4.322683e-01 -1.366516e-01 -5.762953e-01 2.345438e-01 -8.248562e-01 6.541878e-01 -1.187036e+00 1.285382e+00 -2.092051e+00 3.076984e+00 
-3.173170e+00 2.287795e+00 -3.406553e+00 -8.001409e+00 -8.223071e+01 -4.987568e+00 7.427753e+00 -1.355270e+00 4.356709e+00 -1.302089e-01 2.177837e+00 -6.332971e-02 1.095738e+00 -1.186601e-01 5.687930e-01 -1.343705e-01 2.897631e-01 -1.363345e-01 1.415816e-01 -1.253585e-01 5.951216e-02 -9.874146e-02 1.302420e-02 -7.750438e-02 -1.745016e-02 -7.092305e-02 -2.488479e-02 -4.522129e-02 -3.029696e-02 -2.792870e-02 -3.605543e-02 -1.806299e-02 -4.225686e-02 -1.538908e-02 -4.355920e-02 -1.219306e-02 -4.014169e-02 -4.907048e-03 -3.571950e-02 9.548058e-03 -3.656381e-02 3.073919e-02 -4.129095e-02 5.284172e-02 -5.408435e-02 7.313676e-02 -7.674067e-02 1.010116e-01 -1.127953e-01 1.331687e-01 -1.523384e-01 2.086833e-01 -2.123380e-01 3.075128e-01 -3.116868e-01 4.647393e-01 -4.771898e-01 7.037046e-01 -7.559414e-01 1.078790e+00 -1.253288e+00 1.444130e+00 -1.934142e+00 2.210326e+00 
-3.040689e+00 1.386562e+00 -1.723477e+00 -9.255446e+00 -9.276540e+01 -3.274665e+00 5.581216e+00 -1.887117e+00 4.197852e+00 -6.282962e-01 2.369733e+00 -3.258332e-01 1.263648e+00 -2.659722e-01 6.916131e-01 -2.350131e-01 3.968615e-01 -2.017122e-01 2.416627e-01 -1.666081e-01 1.578258e-01 -1.315034e-01 1.141643e-01 -9.790552e-02 9.587542e-02 -6.612549e-02 8.877140e-02 -3.385774e-02 8.227837e-02 -3.971400e-03 7.131250e-02 1.849988e-02 5.701631e-02 3.008950e-02 4.383313e-02 3.433696e-02 3.245099e-02 4.059905e-02 1.757093e-02 5.394640e-02 -4.763562e-03 7.250223e-02 -3.437499e-02 9.228910e-02 -6.996493e-02 1.165980e-01 -1.111145e-01 1.541969e-01 -1.595368e-01 2.130677e-01 -2.227276e-01 3.029883e-01 -3.119468e-01 4.308543e-01 -4.465867e-01 6.030444e-01 -6.558348e-01 8.295192e-01 -9.814160e-01 1.134512e+00 -1.473128e+00 1.502556e+00 -2.191814e+00 1.877724e+00 
-2.804390e+00 1.006179e+00 -1.260622e+00 -7.967938e+00 -1.045582e+02 -2.759024e+00 2.883656e+00 -2.823687e+00 3.189901e+00 -1.317821e+00 2.299965e+00 -6.598977e-01 1.398172e+00 -4.421768e-01 8.202563e-01 -3.495973e-01 4.814894e-01 -2.900755e-01 2.864639e-01 -2.410598e-01 1.725587e-01 -1.957675e-01 1.065952e-01 -1.561405e-01 6.645882e-02 -1.215883e-01 4.364842e-02 -8.948428e-02 2.941875e-02 -6.138170e-02 1.846283e-02 -3.799005e-02 8.974720e-03 -1.778497e-02 1.584708e-03 2.570223e-03 -4.322853e-03 2.525780e-02 -1.062290e-02 5.301556e-02 -1.958255e-02 8.697276e-02 -3.163950e-02 1.270710e-01 -5.034232e-02 1.734546e-01 -7.854587e-02 2.302069e-01 -1.196184e-01 3.047721e-01 -1.772879e-01 4.087041e-01 -2.617513e-01 5.505728e-01 -3.940745e-01 7.453780e-01 -6.008313e-01 1.008206e+00 -9.197275e-01 1.339914e+00 -1.392323e+00 1.701974e+00 -2.038750e+00 2.079945e+00 
-2.191222e+00 4.441935e-01 3.125731e-01 -8.196458e+00 -1.099940e+02 -1.599635e+00 1.839567e+00 -2.613787e+00 2.197641e+00 -1.608867e+00 1.903893e+00 -9.364105e-01 1.263169e+00 -6.328111e-01 7.716415e-01 -4.768851e-01 4.671747e-01 -3.756836e-01 2.895776e-01 -2.985185e-01 1.878981e-01 -2.343000e-01 1.308954e-01 -1.787362e-01 1.003620e-01 -1.296661e-01 8.322882e-02 -8.626441e-02 7.134726e-02 -4.920292e-02 6.042720e-02 -1.884152e-02 4.925068e-02 5.640490e-03 3.778625e-02 2.646993e-02 2.492508e-02 4.701324e-02 8.570175e-03 7.029409e-02 -1.266064e-02 9.835039e-02 -3.922039e-02 1.328875e-01 -7.199521e-02 1.773619e-01 -1.126996e-01 2.373373e-01 -1.645620e-01 3.195997e-01 -2.341372e-01 4.322828e-01 -3.316924e-01 5.834111e-01 -4.727552e-01 7.808690e-01 -6.784405e-01 1.032300e+00 -9.738036e-01 1.339207e+00 -1.378795e+00 1.670262e+00 -1.885060e+00 1.887238e+00 
-1.691060e+00 1.006076e-01 1.030388e+00 -7.215204e+00 -1.170302e+02 -1.115106e+00 6.602004e-01 -2.834302e+00 1.119633e+00 -2.047505e+00 1.395936e+00 -1.268066e+00 1.101679e+00 -8.443027e-01 7.399054e-01 -6.153296e-01 4.685595e-01 -4.747195e-01 2.909149e-01 -3.756629e-01 1.796743e-01 -2.985321e-01 1.117458e-01 -2.353577e-01 6.979988e-02 -1.820017e-01 4.425823e-02 -1.364156e-01 2.835589e-02 -9.704922e-02 1.757214e-02 -6.254259e-02 9.338523e-03 -3.087176e-02 2.513892e-03 3.088357e-04 -3.920402e-03 3.289981e-02 -1.123923e-02 6.896795e-02 -2.074281e-02 1.104867e-01 -3.360108e-02 1.594287e-01 -5.248001e-02 2.181200e-01 -8.033445e-02 2.906879e-01 -1.210169e-01 3.834721e-01 -1.797477e-01 5.041352e-01 -2.652506e-01 6.612033e-01 -3.919942e-01 8.633133e-01 -5.770951e-01 1.114889e+00 -8.385008e-01 1.406175e+00 -1.187507e+00 1.699235e+00 -1.599781e+00 1.809465e+00 
-9.805575e-01 -3.708689e-01 2.270532e+00 -6.883148e+00 -1.192486e+02 -3.292592e-01 3.146924e-01 -2.530637e+00 3.153487e-01 -2.115483e+00 8.378257e-01 -1.435185e+00 8.075276e-01 -1.001275e+00 5.935351e-01 -7.353927e-01 3.979216e-01 -5.603162e-01 2.607543e-01 -4.344850e-01 1.736133e-01 -3.372124e-01 1.209982e-01 -2.582805e-01 9.024754e-02 -1.923585e-01 7.184844e-02 -1.366592e-01 5.956555e-02 -8.960769e-02 4.968405e-02 -4.970473e-02 4.028449e-02 -1.508885e-02 3.024796e-02 1.640597e-02 1.837934e-02 4.720840e-02 3.467354e-03 7.994478e-02 -1.533999e-02 1.173566e-01 -3.873183e-02 1.623975e-01 -6.789574e-02 2.187451e-01 -1.047707e-01 2.910740e-01 -1.524034e-01 3.849645e-01 -2.156837e-01 5.067982e-01 -3.016250e-01 6.629934e-01 -4.195308e-01 8.587282e-01 -5.798061e-01 1.095346e+00 -7.904071e-01 1.363284e+00 -1.047754e+00 1.620474e+00 -1.291919e+00 1.615562e+00 
-4.187615e-01 -6.780527e-01 2.933757e+00 -5.995889e+00 -1.229254e+02 1.166229e-01 -1.310240e-01 -2.473331e+00 -3.766627e-01 -2.313229e+00 2.993247e-01 -1.660192e+00 5.091458e-01 -1.179954e+00 4.485075e-01 -8.658459e-01 3.268833e-01 -6.566009e-01 2.198704e-01 -5.089502e-01 1.423662e-01 -3.981518e-01 9.074433e-02 -3.108898e-01 5.742668e-02 -2.397248e-01 3.644557e-02 -1.803295e-01 2.321279e-02 -1.296218e-01 1.442732e-02 -8.508315e-02 7.891153e-03 -4.430030e-02 2.273060e-03 -4.962021e-03 -3.414311e-03 3.503160e-02 -1.012735e-02 7.780849e-02 -1.885186e-02 1.256305e-01 -3.075774e-02 1.809866e-01 -4.776502e-02 2.468102e-01 -7.225068e-02 3.269617e-01 -1.072917e-01 4.263424e-01 -1.568786e-01 5.504241e-01 -2.265789e-01 7.046617e-01 -3.236963e-01 8.927869e-01 -4.548599e-01 1.113103e+00 -6.226557e-01 1.352010e+00 -8.176698e-01 1.563350e+00 -9.605693e-01 1.454070e+00 
2.558532e-01 -1.051643e+00 3.821683e+00 -5.427828e+00 -1.227504e+02 6.704320e-01 -1.826457e-01 -2.214129e+00 -8.665692e-01 -2.296720e+00 -1.746957e-01 -1.730191e+00 1.877028e-01 -1.275684e+00 2.558829e-01 -9.539580e-01 2.188395e-01 -7.258300e-01 1.635502e-01 -5.588784e-01 1.179155e-01 -4.315917e-01 8.643013e-02 -3.309623e-01 6.642586e-02 -2.492172e-01 5.382912e-02 -1.815833e-01 4.522115e-02 -1.248243e-01 3.820641e-02 -7.631704e-02 3.126238e-02 -3.361950e-02 2.335548e-02 5.649992e-03 1.359793e-02 4.391155e-02 1.226137e-03 8.374142e-02 -1.435008e-02 1.279284e-01 -3.371967e-02 1.795257e-01 -5.778832e-02 2.419999e-01 -8.792960e-02 3.193205e-01 -1.261009e-01 4.158909e-01 -1.749848e-01 5.363114e-01 -2.378184e-01 6.846351e-01 -3.177488e-01 8.628349e-01 -4.160075e-01 1.068041e+00 -5.282482e-01 1.286872e+00 -6.348213e-01 1.467609e+00 -6.237098e-01 1.257854e+00 
7.885010e-01 -1.285662e+00 4.316090e+00 -4.622406e+00 -1.237921e+02 1.035794e+00 -3.123215e-01 -2.047806e+00 -1.233982e+00 -2.344143e+00 -5.794991e-01 -1.845557e+00 -1.092205e-01 -1.392308e+00 6.961492e-02 -1.052362e+00 1.069280e-01 -8.046364e-01 9.342984e-02 -6.223047e-01 6.887339e-02 -4.842741e-01 4.711359e-02 -3.764395e-01 3.110980e-02 -2.897401e-01 2.035825e-02 -2.182633e-01 1.336817e-02 -1.578100e-01 8.623103e-03 -1.051009e-01 4.903846e-03 -5.733564e-02 1.347114e-03 -1.201434e-02 -2.707194e-03 3.315519e-02 -7.874745e-03 8.041477e-02 -1.481960e-02 1.320894e-01 -2.437496e-02 1.906885e-01 -3.773552e-02 2.590321e-01 -5.636431e-02 3.403721e-01 -8.199750e-02 4.383206e-01 -1.165623e-01 5.564596e-01 -1.620393e-01 6.976136e-01 -2.197076e-01 8.623388e-01 -2.879725e-01 1.046258e+00 -3.589448e-01 1.235099e+00 -4.079053e-01 1.373011e+00 -2.988673e-01 1.069334e+00 
1.366021e+00 -1.541923e+00 4.883687e+00 -3.996819e+00 -1.216879e+02 1.418377e+00 -2.477548e-01 -1.827082e+00 -1.490374e+00 -2.300194e+00 -9.070885e-01 -1.857492e+00 -3.752142e-01 -1.432615e+00 -1.153232e-01 -1.100826e+00 -9.939723e-03 -8.481728e-01 2.529127e-02 -6.558902e-01 3.351268e-02 -5.072999e-01 3.336430e-02 -3.900598e-01 3.157623e-02 -2.956599e-01 2.983274e-02 -2.182533e-01 2.804575e-02 -1.536121e-01 2.568061e-02 -9.840433e-02 2.221074e-02 -4.977353e-02 1.718923e-02 -5.119055e-03 1.021203e-02 3.806202e-02 9.349955e-04 8.230654e-02 -1.091411e-02 1.302664e-01 -2.561182e-02 1.847574e-01 -4.355415e-02 2.488031e-01 -6.528032e-02 3.256226e-01 -9.140254e-02 4.184977e-01 -1.224132e-01 5.304522e-01 -1.581820e-01 6.635386e-01 -1.969312e-01 8.175221e-01 -2.332943e-01 9.877303e-01 -2.548606e-01 1.160015e+00 -2.294002e-01 1.270686e+00 1.104865e-02 8.740955e-01 
1.814056e+00 -1.680316e+00 5.174740e+00 -3.294397e+00 -1.205601e+02 1.683731e+00 -2.460488e-01 -1.623608e+00 -1.645302e+00 -2.259077e+00 -1.161271e+00 -1.889466e+00 -6.052015e-01 -1.486738e+00 -2.869560e-01 -1.157759e+00 -1.282799e-01 -9.002032e-01 -5.535783e-02 -7.013532e-01 -2.372681e-02 -5.469999e-01 -1.033365e-02 -4.253174e-01 -4.507897e-03 -3.275067e-01 -1.677836e-03 -2.472018e-01 -1.164335e-04 -1.796731e-01 6.705692e-04 -1.212215e-01 7.068055e-04 -6.878544e-02 -1.182258e-04 -1.971331e-02 -1.957417e-03 2.838550e-02 -5.009815e-03 7.777523e-02 -9.541849e-03 1.307060e-01 -1.591724e-02 1.894951e-01 -2.461655e-02 2.565834e-01 -3.612813e-02 3.345248e-01 -5.079108e-02 4.258368e-01 -6.849442e-02 5.326365e-01 -8.814320e-02 6.559829e-01 -1.065725e-01 7.947415e-01 -1.165302e-01 9.437470e-01 -1.032419e-01 1.088879e+00 -2.948513e-02 1.160957e+00 2.981591e-01 6.835694e-01 
2.259199e+00 -1.816005e+00 5.466293e+00 -2.712689e+00 -1.168444e+02 1.923934e+00 -1.450903e-01 -1.431620e+00 -1.746023e+00 -2.197653e+00 -1.354430e+00 -1.866018e+00 -7.882898e-01 -1.485146e+00 -4.313838e-01 -1.169441e+00 -2.296443e-01 -9.157796e-01 -1.200122e-01 -7.150071e-01 -6.078345e-02 -5.562665e-01 -2.791570e-02 -4.297397e-01 -8.844996e-03 -3.276329e-01 2.585254e-03 -2.440164e-01 9.294529e-03 -1.743330e-01 1.265858e-02 -1.149379e-01 1.333886e-02 -6.276597e-02 1.165931e-02 -1.511030e-02 7.778971e-03 3.053955e-02 1.797040e-03 7.661725e-02 -6.185006e-03 1.255560e-01 -1.604478e-02 1.798272e-01 -2.762161e-02 2.419443e-01 -4.062808e-02 3.144034e-01 -5.444882e-02 3.995193e-01 -6.776689e-02 4.990973e-01 -7.788647e-02 6.138290e-01 -7.957648e-02 7.422937e-01 -6.317370e-02 8.793495e-01 -1.107540e-02 1.010593e+00 1.200509e-01 1.057147e+00 5.539555e-01 5.007122e-01 
2.585994e+00 -1.857643e+00 5.559080e+00 -2.133375e+00 -1.138927e+02 2.084539e+00 -9.934732e-02 -1.227914e+00 -1.768174e+00 -2.102773e+00 -1.483436e+00 -1.838997e+00 -9.359351e-01 -1.487227e+00 -5.597402e-01 -1.185772e+00 -3.294698e-01 -9.380301e-01 -1.941330e-01 -7.388224e-01 -1.158303e-01 -5.798312e-01 -7.014222e-02 -4.524581e-01 -4.279573e-02 -3.493109e-01 -2.587987e-02 -2.644731e-01 -1.513481e-02 -1.932701e-01 -8.289936e-03 -1.319428e-01 -4.119977e-03 -7.737295e-02 -1.934817e-03 -2.688639e-02 -1.326771e-03 2.188930e-02 -2.049496e-03 7.113824e-02 -3.950530e-03 1.229429e-01 -6.915126e-03 1.793387e-01 -1.078473e-02 2.423284e-01 -1.519134e-02 3.138264e-01 -1.929841e-02 3.954959e-01 -2.137365e-02 4.884354e-01 -1.808920e-02 5.926571e-01 -3.346405e-03 7.062662e-01 3.363866e-02 8.240841e-01 1.120062e-01 9.317657e-01 2.797668e-01 9.442221e-01 7.833064e-01 3.274337e-01 
2.878624e+00 -1.886708e+00 5.621508e+00 -1.648183e+00 -1.088135e+02 2.202177e+00 -8.152940e-04 -1.063654e+00 -1.767531e+00 -2.023247e+00 -1.568931e+00 -1.788747e+00 -1.037374e+00 -1.453921e+00 -6.515351e-01 -1.166630e+00 -4.010362e-01 -9.275437e-01 -2.437086e-01 -7.321857e-01 -1.463614e-01 -5.740856e-01 -8.597891e-02 -4.462139e-01 -4.807554e-02 -3.422090e-01 -2.404980e-02 -2.567488e-01 -8.913314e-03 -1.854776e-01 2.325409e-04 -1.247990e-01 5.109026e-03 -7.166844e-02 6.778151e-03 -2.342410e-02 5.939046e-03 2.234532e-02 3.112677e-03 6.789829e-02 -1.234158e-03 1.154023e-01 -6.595346e-03 1.669598e-01 -1.232161e-02 2.245940e-01 -1.745376e-02 2.901749e-01 -2.044304e-02 3.652582e-01 -1.869321e-02 4.507978e-01 -7.819189e-03 5.466674e-01 1.952415e-02 6.509157e-01 7.548187e-02 7.584472e-01 1.808204e-01 8.542585e-01 3.886010e-01 8.436149e-01 9.701803e-01 1.713195e-01 
3.063524e+00 -1.846241e+00 5.538913e+00 -1.200861e+00 -1.043200e+02 2.262744e+00 4.716400e-02 -8.803669e-01 -1.708735e+00 -1.894889e+00 -1.601753e+00 -1.719599e+00 -1.108591e+00 -1.415475e+00 -7.280105e-01 -1.147797e+00 -4.693323e-01 -9.213680e-01 -2.997209e-01 -7.337549e-01 -1.908235e-01 -5.803022e-01 -1.213416e-01 -4.552234e-01 -7.680191e-02 -3.528539e-01 -4.796507e-02 -2.682121e-01 -2.912231e-02 -1.970986e-01 -1.678417e-02 -1.360026e-01 -8.800108e-03 -8.195988e-02 -3.807605e-03 -3.242232e-02 -9.022605e-04 1.484970e-02 5.617984e-04 6.187283e-02 1.107798e-03 1.105026e-01 1.255760e-03 1.624659e-01 1.665335e-03 2.193541e-01 3.345526e-03 2.825574e-01 7.966164e-03 3.531197e-01 1.833704e-02 4.314864e-01 3.915183e-02 5.171054e-01 7.815272e-02 6.078134e-01 1.479732e-01 6.986463e-01 2.701842e-01 7.745481e-01 5.015532e-01 7.356522e-01 1.128756e+00 3.064189e-02 
3.196626e+00 -1.792811e+00 5.416529e+00 -8.331470e-01 -9.808943e+01 2.275355e+00 1.249898e-01 -7.458226e-01 -1.643745e+00 -1.797297e+00 -1.604388e+00 -1.645522e+00 -1.139594e+00 -1.356617e+00 -7.675260e-01 -1.103397e+00 -5.059515e-01 -8.882904e-01 -3.278393e-01 -7.084317e-01 -2.092037e-01 -5.599553e-01 -1.310493e-01 -4.380771e-01 -7.973480e-02 -3.379662e-01 -4.610309e-02 -2.552276e-01 -2.422106e-02 -1.860417e-01 -1.028972e-02 -1.271336e-01 -1.861086e-03 -7.568119e-02 2.681081e-03 -2.921309e-02 4.459460e-03 1.448135e-02 4.331941e-03 5.742234e-02 3.058705e-03 1.014840e-01 1.443702e-03 1.484090e-01 4.884564e-04 1.997867e-01 1.601542e-03 2.569820e-01 6.911837e-03 3.209955e-01 1.974801e-02 3.922284e-01 4.537550e-02 4.701102e-01 9.212537e-02 5.525188e-01 1.731757e-01 6.345741e-01 3.107694e-01 7.004864e-01 5.652570e-01 6.431213e-01 1.238692e+00 -8.697623e-02 
3.233539e+00 -1.692259e+00 5.187332e+00 -5.152132e-01 -9.229898e+01 2.245832e+00 1.568530e-01 -5.936112e-01 -1.537588e+00 -1.648513e+00 -1.565153e+00 -1.545371e+00 -1.146489e+00 -1.287104e+00 -7.941316e-01 -1.055851e+00 -5.388508e-01 -8.572174e-01 -3.600662e-01 -6.892891e-01 -2.379091e-01 -5.492766e-01 -1.557013e-01 -4.333723e-01 -1.007574e-01 -3.374622e-01 -6.409872e-02 -2.576276e-01 -3.963762e-02 -1.903606e-01 -2.333307e-02 -1.326060e-01 -1.251149e-02 -8.172160e-02 -5.378092e-03 -3.541460e-02 -6.830997e-04 8.324388e-03 2.507599e-03 5.127695e-02 4.984353e-03 9.503657e-02 7.548209e-03 1.410250e-01 1.118397e-02 1.904764e-01 1.728890e-02 2.443773e-01 2.799647e-02 3.033475e-01 4.665447e-02 3.674426e-01 7.854509e-02 4.358466e-01 1.319857e-01 5.063822e-01 2.200894e-01 5.743760e-01 3.651516e-01 6.240754e-01 6.294413e-01 5.462434e-01 1.319409e+00 -1.853135e-01 
3.211918e+00 -1.582791e+00 4.919238e+00 -2.658931e-01 -8.510999e+01 2.170223e+00 2.070116e-01 -4.898478e-01 -1.433387e+00 -1.534803e+00 -1.505160e+00 -1.449331e+00 -1.120181e+00 -1.206697e+00 -7.874843e-01 -9.907231e-01 -5.414377e-01 -8.052710e-01 -3.649420e-01 -6.478073e-01 -2.414741e-01 -5.158112e-01 -1.566616e-01 -4.060536e-01 -9.909564e-02 -3.150198e-01 -6.037575e-02 -2.392901e-01 -3.459838e-02 -1.757324e-01 -1.771396e-02 -1.215604e-01 -6.962033e-03 -7.431977e-02 -4.376347e-04 -3.184495e-02 3.225337e-03 7.791802e-03 5.087206e-03 4.632351e-02 6.084659e-03 8.531605e-02 7.192358e-03 1.261738e-01 9.596065e-03 1.701169e-01 1.491340e-02 2.181192e-01 2.550501e-02 2.707950e-01 4.493244e-02 3.282125e-01 7.864491e-02 3.896013e-01 1.350234e-01 4.528785e-01 2.270668e-01 5.134910e-01 3.768759e-01 5.552550e-01 6.481123e-01 4.659569e-01 1.349933e+00 -2.582037e-01 
3.107228e+00 -1.444458e+00 4.572303e+00 -6.588940e-02 -7.824427e+01 2.063196e+00 2.168222e-01 -3.724236e-01 -1.301367e+00 -1.374589e+00 -1.412827e+00 -1.325975e+00 -1.075408e+00 -1.113414e+00 -7.707449e-01 -9.204692e-01 -5.406287e-01 -7.535553e-01 -3.723492e-01 -6.106585e-01 -2.524387e-01 -4.898499e-01 -1.686919e-01 -3.885837e-01 -1.109954e-01 -3.039572e-01 -7.159462e-02 -2.330379e-01 -4.484372e-02 -1.730663e-01 -2.675704e-02 -1.215465e-01 -1.455850e-02 -7.626655e-02 -6.306004e-03 -3.528204e-02 -6.027679e-04 3.113414e-03 3.621851e-03 4.041834e-02 7.288711e-03 7.794505e-02 1.133107e-02 1.168252e-01 1.687146e-02 1.579921e-01 2.544417e-02 2.021302e-01 3.930009e-02 2.495823e-01 6.184559e-02 3.001967e-01 9.829426e-02 3.530844e-01 1.566590e-01 4.062135e-01 2.493773e-01 4.553111e-01 3.978122e-01 4.846102e-01 6.650161e-01 3.842345e-01 1.351673e+00 -3.107874e-01 
2.945554e+00 -1.302135e+00 4.191873e+00 7.627314e-02 -7.027967e+01 1.915689e+00 2.387470e-01 -2.981131e-01 -1.174624e+00 -1.247669e+00 -1.306366e+00 -1.210231e+00 -1.004221e+00 -1.014734e+00 -7.261354e-01 -8.384352e-01 -5.134456e-01 -6.863029e-01 -3.554561e-01 -5.558841e-01 -2.410889e-01 -4.453469e-01 -1.600974e-01 -3.524849e-01 -1.037108e-01 -2.748132e-01 -6.499356e-02 -2.097994e-01 -3.875342e-02 -1.550244e-01 -2.123289e-02 -1.082658e-01 -9.756111e-03 -6.752432e-02 -2.412317e-03 -3.101720e-02 2.202537e-03 2.841870e-03 5.192205e-03 3.546467e-02 7.531324e-03 6.810241e-02 1.022235e-02 1.018454e-01 1.446276e-02 1.376020e-01 2.185134e-02 1.760490e-01 3.466927e-02 2.175431e-01 5.628460e-02 2.619763e-01 9.175248e-02 3.085449e-01 1.487302e-01 3.553600e-01 2.389958e-01 3.983593e-01 3.828788e-01 4.219625e-01 6.419953e-01 3.186876e-01 1.305869e+00 -3.387029e-01 
2.715528e+00 -1.144240e+00 3.753899e+00 1.757758e-01 -6.254542e+01 1.744984e+00 2.270984e-01 -2.142763e-01 -1.030002e+00 -1.082310e+00 -1.175805e+00 -1.069733e+00 -9.194118e-01 -9.034784e-01 -6.740786e-01 -7.507270e-01 -4.835278e-01 -6.182204e-01 -3.400916e-01 -5.039384e-01 -2.348746e-01 -4.064022e-01 -1.594143e-01 -3.238736e-01 -1.062417e-01 -2.543530e-01 -6.926799e-02 -1.957465e-01 -4.380874e-02 -1.460090e-01 -2.639560e-02 -1.032327e-01 -1.451501e-02 -6.568892e-02 -6.351706e-03 -3.183837e-02 -5.677175e-04 -3.249302e-04 3.880527e-03 3.003611e-02 7.898462e-03 6.026697e-02 1.240059e-02 9.122671e-02 1.846949e-02 1.235947e-01 2.755084e-02 1.578317e-01 4.171493e-02 1.941093e-01 6.402793e-02 2.321939e-01 9.910000e-02 2.712576e-01 1.539229e-01 3.095451e-01 2.392768e-01 3.433700e-01 3.739609e-01 3.581747e-01 6.160164e-01 2.538172e-01 1.233569e+00 -3.478314e-01 
2.436051e+00 -9.861674e-01 3.289518e+00 2.290118e-01 -5.398313e+01 1.541463e+00 2.238041e-01 -1.655568e-01 -8.912464e-01 -9.450854e-01 -1.035847e+00 -9.371917e-01 -8.145434e-01 -7.897697e-01 -6.001537e-01 -6.553004e-01 -4.324503e-01 -5.390512e-01 -3.049361e-01 -4.388287e-01 -2.104200e-01 -3.532481e-01 -1.420079e-01 -2.808065e-01 -9.347013e-02 -2.198118e-01 -5.961000e-02 -1.684925e-01 -3.634521e-02 -1.251055e-01 -2.059708e-02 -8.800793e-02 -1.009758e-02 -5.569465e-02 -3.183475e-03 -2.681005e-02 1.391003e-03 -1.452622e-04 4.615570e-03 2.536940e-02 7.364845e-03 5.066942e-02 1.053118e-02 7.655255e-02 1.516627e-02 1.036615e-01 2.265283e-02 1.324468e-01 3.493417e-02 1.631011e-01 5.484026e-02 1.954521e-01 8.657008e-02 2.287864e-01 1.364312e-01 2.615433e-01 2.140972e-01 2.903730e-01 3.365419e-01 3.016963e-01 5.572657e-01 2.032783e-01 1.120084e+00 -3.355841e-01 
2.104247e+00 -8.210529e-01 2.784684e+00 2.491215e-01 -4.557726e+01 1.321471e+00 1.946380e-01 -1.107214e-01 -7.416616e-01 -7.788274e-01 -8.788942e-01 -7.847271e-01 -7.001425e-01 -6.654811e-01 -5.210684e-01 -5.547670e-01 -3.793818e-01 -4.586600e-01 -2.706837e-01 -3.754313e-01 -1.893736e-01 -3.039649e-01 -1.299762e-01 -2.430992e-01 -8.744216e-02 -1.915233e-01 -5.746852e-02 -1.478419e-01 -3.660684e-02 -1.106585e-01 -2.221169e-02 -7.864021e-02 -1.230809e-02 -5.055779e-02 -5.435230e-03 -2.530445e-02 -4.965202e-04 -1.900821e-03 3.374155e-03 2.050664e-02 6.932380e-03 4.264731e-02 1.093881e-02 6.512304e-02 1.628385e-02 8.839503e-02 2.413867e-02 1.127558e-01 3.615499e-02 1.382797e-01 5.474672e-02 1.647397e-01 8.350506e-02 1.914690e-01 1.278364e-01 2.171096e-01 1.960568e-01 2.387927e-01 3.028853e-01 2.446515e-01 4.953010e-01 1.544782e-01 9.844317e-01 -3.079499e-01 
1.734607e+00 -6.576960e-01 2.260998e+00 2.354577e-01 -3.659356e+01 1.077465e+00 1.710929e-01 -8.161732e-02 -5.970214e-01 -6.336566e-01 -7.160135e-01 -6.388229e-01 -5.716659e-01 -5.401944e-01 -4.263201e-01 -4.493995e-01 -3.109630e-01 -3.708737e-01 -2.219334e-01 -3.029629e-01 -1.549112e-01 -2.447006e-01 -1.056802e-01 -1.951315e-01 -7.029125e-02 -1.531983e-01 -4.532527e-02 -1.177817e-01 -2.800343e-02 -8.775877e-02 -1.616728e-02 -6.205249e-02 -8.187336e-03 -3.966247e-02 -2.845311e-03 -1.968019e-02 7.841999e-04 -1.293331e-03 3.442321e-03 1.621481e-02 5.784753e-03 3.346569e-02 8.476989e-03 5.098149e-02 1.229617e-02 6.917277e-02 1.825352e-02 8.831360e-02 2.775632e-02 1.084981e-01 4.283648e-02 1.295682e-01 6.648848e-02 1.509944e-01 1.031904e-01 1.716612e-01 1.598066e-01 1.891669e-01 2.485502e-01 1.934137e-01 4.089803e-01 1.169137e-01 8.170317e-01 -2.639965e-01 
1.329601e+00 -4.919164e-01 1.711444e+00 1.993975e-01 -2.770640e+01 8.228475e-01 1.300008e-01 -4.897396e-02 -4.463901e-01 -4.691951e-01 -5.423326e-01 -4.791015e-01 -4.371606e-01 -4.073740e-01 -3.283485e-01 -3.402531e-01 -2.412669e-01 -2.819917e-01 -1.736861e-01 -2.314318e-01 -1.225174e-01 -1.878625e-01 -8.470122e-02 -1.506047e-01 -5.733818e-02 -1.189116e-01 -3.788478e-02 -9.198490e-02 -2.424707e-02 -6.901438e-02 -1.478014e-02 -4.921526e-02 -8.231255e-03 -3.185509e-02 -3.658767e-03 -1.626907e-02 -3.470264e-04 -1.866743e-03 2.273929e-03 1.186600e-02 4.703043e-03 2.536600e-02 7.441453e-03 3.898957e-02 1.107163e-02 5.300403e-02 1.635255e-02 6.757084e-02 2.434489e-02 8.271584e-02 3.658667e-02 9.827900e-02 5.535230e-02 1.138290e-01 8.405258e-02 1.285057e-01 1.279311e-01 1.404805e-01 1.963753e-01 1.419708e-01 3.200008e-01 8.114949e-02 6.336641e-01 -2.092546e-01 
9.009569e-01 -3.280250e-01 1.150624e+00 1.427763e-01 -1.847782e+01 5.536287e-01 9.219662e-02 -3.197792e-02 -2.989787e-01 -3.177319e-01 -3.653919e-01 -3.236135e-01 -2.943069e-01 -2.742073e-01 -2.209734e-01 -2.284483e-01 -1.622919e-01 -1.888745e-01 -1.166253e-01 -1.545984e-01 -8.194353e-02 -1.251169e-01 -5.625073e-02 -9.996105e-02 -3.763933e-02 -7.862108e-02 -2.442135e-02 -6.055526e-02 -1.519670e-02 -4.521494e-02 -8.858351e-03 -3.206820e-02 -4.558097e-03 -2.061691e-02 -1.654247e-03 -1.040626e-02 3.448407e-04 -1.028742e-03 1.834898e-03 7.874729e-03 3.166374e-03 1.661405e-02 4.693914e-03 2.544739e-02 6.829455e-03 3.457475e-02 1.010582e-02 4.412547e-02 1.526036e-02 5.413646e-02 2.335275e-02 6.451586e-02 3.593905e-02 7.498216e-02 5.534124e-02 8.495376e-02 8.511939e-02 9.317408e-02 1.316660e-01 9.424930e-02 2.160195e-01 5.254408e-02 4.302944e-01 -1.443433e-01 
4.544929e-01 -1.636129e-01 5.771587e-01 7.490859e-02 -9.295184e+00 2.791965e-01 4.553222e-02 -1.337999e-02 -1.489378e-01 -1.566719e-01 -1.832133e-01 -1.610777e-01 -1.485364e-01 -1.371425e-01 -1.120540e-01 -1.146487e-01 -8.269708e-02 -9.512685e-02 -5.978976e-02 -7.817098e-02 -4.234475e-02 -6.353562e-02 -2.937920e-02 -5.099604e-02 -1.994955e-02 -4.030912e-02 -1.321623e-02 -3.121503e-02 -8.478687e-03 -2.344843e-02 -5.180046e-03 -1.675050e-02 -2.891913e-03 -1.087824e-02 -1.289652e-03 -5.610139e-03 -1.249956e-04 -7.490824e-04 8.006116e-04 3.876540e-03 1.661282e-03 8.412156e-03 2.631696e-03 1.297573e-02 3.914180e-03 1.765482e-02 5.771200e-03 2.250097e-02 8.567961e-03 2.751970e-02 1.283210e-02 3.265370e-02 1.934178e-02 3.775387e-02 2.926200e-02 4.252547e-02 4.438379e-02 4.633981e-02 6.793329e-02 4.648394e-02 1.105443e-01 2.504131e-02 2.185652e-01 -7.389908e-02 
-1.334419e-06 2.394551e-05 -4.590966e-05 1.290918e-04 3.764173e-04 -1.230944e-04 -3.954766e-05 -2.794517e-05 -9.475863e-06 1.136750e-06 3.834253e-06 2.382680e-06 1.419655e-06 1.695570e-07 2.672940e-07 -2.646070e-07 1.086940e-07 -2.678362e-07 1.023463e-07 -2.168285e-07 1.242686e-07 -1.518083e-07 1.602594e-07 -7.667705e-08 2.039129e-07 7.814996e-09 2.510320e-07 1.000582e-07 2.989519e-07 1.962394e-07 3.454427e-07 2.904999e-07 3.880548e-07 3.760564e-07 4.242261e-07 4.465391e-07 4.519211e-07 4.969663e-07 4.704002e-07 5.241531e-07 4.807266e-07 5.265426e-07 4.858736e-07 5.037296e-07 4.905116e-07 4.558142e-07 5.006323e-07 3.828340e-07 5.231934e-07 2.842788e-07 5.659789e-07 1.589095e-07 6.377342e-07 4.799999e-09 7.488159e-07 -1.812676e-07 9.171128e-07 -4.253609e-07 1.255630e-06 -1.048268e-06 2.675435e-06 -3.791106e-06 7.154175e-06 -6.072472e-06 
-4.544925e-01 1.636603e-01 -5.772608e-01 -7.463454e-02 9.295972e+00 -2.794588e-01 -4.562281e-02 1.332415e-02 1.489218e-01 1.566761e-01 1.832214e-01 1.610825e-01 1.485388e-01 1.371429e-01 1.120541e-01 1.146483e-01 8.269695e-02 9.512662e-02 5.978969e-02 7.817091e-02 4.234483e-02 6.353564e-02 2.937946e-02 5.099613e-02 1.994998e-02 4.030928e-02 1.321680e-02 3.121527e-02 8.479383e-03 2.344878e-02 5.180840e-03 1.675099e-02 2.892786e-03 1.087887e-02 1.290586e-03 5.610899e-03 1.259725e-04 7.499452e-04 -7.996088e-04 -3.875613e-03 -1.660267e-03 -8.411212e-03 -2.630676e-03 -1.297481e-02 -3.913151e-03 -1.765399e-02 -5.770149e-03 -2.250026e-02 -8.566858e-03 -2.751917e-02 -1.283091e-02 -3.265339e-02 -1.934043e-02 -3.775385e-02 -2.926040e-02 -4.252580e-02 -4.438184e-02 -4.634061e-02 -6.793064e-02 -4.648597e-02 -1.105388e-01 -2.504894e-02 -2.185501e-01 7.388528e-02 