# vtk DataFile Version 2.0
Comment goes here
ASCII

DATASET STRUCTURED_POINTS
FIELD FieldData 1
TIME 1 1 double
0.04400000
DIMENSIONS    64   64   1

ORIGIN    0.000   0.000   0.000
SPACING   0.03125 0.03125   1.000

POINT_DATA   4096
SCALARS P double
LOOKUP_TABLE default

-2.621550e+01 -1.720738e+02 -1.693132e+01 -1.755896e+02 5.933881e+01 1.424434e+02 -1.407310e+01 1.242672e+02 -3.205399e+00 1.026746e+02 2.674746e+00 9.067670e+01 -2.121517e+00 8.700570e+01 -1.295694e+01 8.699153e+01 -2.204780e+01 8.297568e+01 -2.656519e+01 7.553853e+01 -2.530725e+01 6.200821e+01 -1.921635e+01 4.624337e+01 -1.167995e+01 2.844160e+01 -1.477998e+00 6.529278e+00 9.894966e+00 -1.492163e+01 1.702372e+01 -3.033484e+01 1.755195e+01 -3.918989e+01 1.143856e+01 -4.272885e+01 -3.391426e+00 -3.330418e+01 -2.730322e+01 -2.350467e+01 -4.686139e+01 -1.911408e+01 -6.135049e+01 -2.164840e+01 -6.641880e+01 -3.215743e+01 -6.210883e+01 -5.101714e+01 -5.100425e+01 -7.109188e+01 -4.167961e+01 -8.917639e+01 -3.566233e+01 -1.024746e+02 -3.466980e+01 -1.117325e+02 -3.549608e+01 -1.235145e+02 -3.044419e+01 -1.393055e+02 -2.385154e+01 -1.521871e+02 -2.198573e+01 -1.526987e+02 
-8.061952e+00 -1.197422e+02 -2.023145e+00 -1.222510e+02 5.396640e+01 1.147525e+02 -2.333173e+00 1.042002e+02 2.471860e+00 9.161741e+01 4.741026e+00 8.388735e+01 1.819321e+00 7.976727e+01 -3.615159e+00 7.709534e+01 -7.864473e+00 7.212612e+01 -9.961212e+00 6.574973e+01 -9.408182e+00 5.631676e+01 -6.759808e+00 4.622027e+01 -3.915765e+00 3.535579e+01 2.905854e-01 2.209357e+01 5.396928e+00 8.854479e+00 8.590902e+00 -1.555912e+00 8.995440e+00 -9.153114e+00 6.838178e+00 -1.500616e+01 9.333680e-01 -1.415157e+01 -9.611475e+00 -1.352162e+01 -1.756890e+01 -1.556698e+01 -2.355037e+01 -2.058131e+01 -2.534794e+01 -2.894546e+01 -2.303856e+01 -4.116525e+01 -1.753145e+01 -5.356922e+01 -1.327109e+01 -6.490397e+01 -1.060130e+01 -7.371259e+01 -1.055480e+01 -8.027367e+01 -1.156583e+01 -8.811628e+01 -9.206797e+00 -9.813949e+01 -5.862768e+00 -1.065400e+02 -5.021011e+00 -1.070887e+02 
3.826926e+00 -8.830142e+01 5.641482e+00 -9.068676e+01 2.400772e+01 9.529136e+01 4.527532e+00 9.130520e+01 4.333760e+00 8.621882e+01 3.809258e+00 8.131997e+01 2.810514e+00 7.615042e+01 1.903139e+00 7.063605e+01 1.347161e+00 6.454570e+01 9.584576e-01 5.835883e+01 8.043606e-01 5.166593e+01 8.089831e-01 4.509711e+01 5.730128e-01 3.854074e+01 5.773723e-01 3.143646e+01 8.595354e-01 2.424984e+01 9.717324e-01 1.733414e+01 9.798870e-01 1.051414e+01 1.066200e+00 3.384522e+00 1.030289e+00 -2.786677e+00 3.861836e-01 -9.247276e+00 3.692194e-01 -1.603248e+01 3.365286e-01 -2.288883e+01 5.448781e-01 -2.978609e+01 9.449880e-01 -3.699108e+01 1.703271e+00 -4.397160e+01 2.188622e+00 -5.073546e+01 2.584186e+00 -5.702249e+01 2.650689e+00 -6.276312e+01 2.507632e+00 -6.844245e+01 3.026547e+00 -7.424267e+01 3.822160e+00 -7.951123e+01 4.234642e+00 -8.244318e+01 
3.758826e+00 -8.906107e+01 5.460489e+00 -9.215194e+01 6.557843e+00 9.618077e+01 5.184771e+00 9.204403e+01 4.497679e+00 8.684778e+01 3.797074e+00 8.161287e+01 2.771994e+00 7.634093e+01 1.726761e+00 7.086623e+01 9.477840e-01 6.497058e+01 4.733186e-01 5.873300e+01 3.376753e-01 5.204818e+01 4.267823e-01 4.520313e+01 5.548357e-01 3.818725e+01 9.110503e-01 3.082706e+01 1.456530e+00 2.341902e+01 1.853104e+00 1.626116e+01 1.993411e+00 9.371387e+00 1.858085e+00 2.694093e+00 1.339316e+00 -3.351290e+00 4.338896e-01 -9.392845e+00 -1.881773e-01 -1.572376e+01 -5.676211e-01 -2.237872e+01 -5.376058e-01 -2.936778e+01 -9.848076e-02 -3.668338e+01 6.660337e-01 -4.393720e+01 1.328644e+00 -5.090191e+01 1.781149e+00 -5.738076e+01 1.939976e+00 -6.339730e+01 1.999683e+00 -6.925393e+01 2.428001e+00 -7.500468e+01 3.078069e+00 -8.018514e+01 3.553743e+00 -8.425728e+01 
4.243555e+00 -8.830778e+01 5.421994e+00 -9.162096e+01 6.455969e+00 9.513921e+01 5.040821e+00 9.136427e+01 4.181846e+00 8.665875e+01 3.439381e+00 8.158988e+01 2.661268e+00 7.620801e+01 1.975538e+00 7.051096e+01 1.473421e+00 6.446751e+01 1.123453e+00 5.819688e+01 9.208618e-01 5.167456e+01 8.120656e-01 4.506143e+01 7.002646e-01 3.834990e+01 6.912562e-01 3.143592e+01 7.855700e-01 2.445218e+01 8.521992e-01 1.753044e+01 8.786355e-01 1.065563e+01 8.888343e-01 3.783791e+00 8.182922e-01 -2.836491e+00 6.100417e-01 -9.492213e+00 5.607596e-01 -1.626780e+01 5.943724e-01 -2.311503e+01 7.629700e-01 -3.000908e+01 1.065330e+00 -3.696253e+01 1.491138e+00 -4.380363e+01 1.861314e+00 -5.045093e+01 2.158716e+00 -5.679946e+01 2.342513e+00 -6.282921e+01 2.503347e+00 -6.866313e+01 2.880470e+00 -7.429792e+01 3.397019e+00 -7.946078e+01 3.869381e+00 -8.385176e+01 
3.896037e+00 -9.005138e+01 5.045803e+00 -9.381135e+01 6.129564e+00 9.615107e+01 5.041194e+00 9.219112e+01 4.143763e+00 8.733799e+01 3.335780e+00 8.208488e+01 2.513980e+00 7.659399e+01 1.754518e+00 7.086147e+01 1.163576e+00 6.483121e+01 7.802834e-01 5.851081e+01 6.099039e-01 5.190276e+01 6.020989e-01 4.509692e+01 6.946249e-01 3.812663e+01 9.054626e-01 3.100074e+01 1.185448e+00 2.384601e+01 1.398933e+00 1.679952e+01 1.463582e+00 9.915846e+00 1.341969e+00 3.213011e+00 1.014232e+00 -3.249384e+00 5.459194e-01 -9.672342e+00 1.643357e-01 -1.621737e+01 -5.256079e-02 -2.294587e+01 -3.205525e-02 -2.985997e+01 2.271592e-01 -3.690542e+01 6.535530e-01 -4.391255e+01 1.083886e+00 -5.073551e+01 1.431935e+00 -5.727066e+01 1.676240e+00 -6.350938e+01 1.907008e+00 -6.952224e+01 2.274560e+00 -7.529097e+01 2.765524e+00 -8.064650e+01 3.292648e+00 -8.547216e+01 
4.059250e+00 -9.001803e+01 4.913834e+00 -9.412020e+01 5.805382e+00 9.603366e+01 4.776917e+00 9.199581e+01 3.891019e+00 8.726216e+01 3.141727e+00 8.206847e+01 2.477608e+00 7.652937e+01 1.918468e+00 7.069452e+01 1.487494e+00 6.458899e+01 1.175795e+00 5.826522e+01 9.697693e-01 5.175316e+01 8.399232e-01 4.511331e+01 7.545963e-01 3.836502e+01 7.302425e-01 3.150676e+01 7.567430e-01 2.459310e+01 7.876819e-01 1.768300e+01 8.038962e-01 1.079469e+01 8.004591e-01 3.936186e+00 7.606659e-01 -2.844130e+00 6.913744e-01 -9.622142e+00 6.784047e-01 -1.644272e+01 7.310015e-01 -2.330106e+01 8.667864e-01 -3.017882e+01 1.084174e+00 -3.704920e+01 1.360753e+00 -4.383555e+01 1.633869e+00 -5.047419e+01 1.878920e+00 -5.690910e+01 2.092207e+00 -6.312017e+01 2.321003e+00 -6.912408e+01 2.644039e+00 -7.489093e+01 3.056821e+00 -8.031420e+01 3.520227e+00 -8.531746e+01 
3.544882e+00 -9.205294e+01 4.374184e+00 -9.656730e+01 5.220855e+00 9.739564e+01 4.425855e+00 9.303838e+01 3.640022e+00 8.808890e+01 2.916261e+00 8.271851e+01 2.249999e+00 7.705016e+01 1.669492e+00 7.112883e+01 1.214902e+00 6.496012e+01 9.061017e-01 5.855630e+01 7.417073e-01 5.193711e+01 6.968839e-01 4.514660e+01 7.406730e-01 3.822276e+01 8.554876e-01 3.120490e+01 1.000829e+00 2.416383e+01 1.110256e+00 1.717299e+01 1.132723e+00 1.027599e+01 1.042928e+00 3.490233e+00 8.433076e-01 -3.186824e+00 5.831507e-01 -9.835349e+00 3.592019e-01 -1.653705e+01 2.343962e-01 -2.333392e+01 2.491858e-01 -3.022563e+01 4.048271e-01 -3.716999e+01 6.612198e-01 -4.408029e+01 9.476428e-01 -5.087014e+01 1.216358e+00 -5.747640e+01 1.458671e+00 -6.387629e+01 1.713595e+00 -7.007281e+01 2.038900e+00 -7.604072e+01 2.449537e+00 -8.171269e+01 2.939707e+00 -8.704324e+01 
3.554150e+00 -9.239198e+01 4.162966e+00 -9.726814e+01 4.800950e+00 9.793198e+01 4.101584e+00 9.330679e+01 3.400675e+00 8.826278e+01 2.771537e+00 8.284393e+01 2.226551e+00 7.711531e+01 1.773950e+00 7.112560e+01 1.418422e+00 6.491038e+01 1.153963e+00 5.850684e+01 9.691482e-01 5.194710e+01 8.470407e-01 4.526648e+01 7.720291e-01 3.848889e+01 7.402039e-01 3.163313e+01 7.405539e-01 2.473100e+01 7.520342e-01 1.781513e+01 7.606315e-01 1.090498e+01 7.595647e-01 4.012275e+00 7.456235e-01 -2.852506e+00 7.295429e-01 -9.712017e+00 7.423438e-01 -1.658523e+01 7.983010e-01 -2.347232e+01 9.061517e-01 -3.035987e+01 1.063852e+00 -3.722280e+01 1.256961e+00 -4.401891e+01 1.459996e+00 -5.070669e+01 1.659238e+00 -5.725148e+01 1.856700e+00 -6.363383e+01 2.075584e+00 -6.984505e+01 2.347663e+00 -7.586167e+01 2.682256e+00 -8.164007e+01 3.077934e+00 -8.714982e+01 
2.939353e+00 -9.450637e+01 3.501925e+00 -9.976519e+01 4.059464e+00 9.956440e+01 3.552618e+00 9.457533e+01 2.987417e+00 8.926033e+01 2.435386e+00 8.363388e+01 1.930124e+00 7.774589e+01 1.496427e+00 7.163250e+01 1.155024e+00 6.531367e+01 9.159420e-01 5.880701e+01 7.767836e-01 5.213394e+01 7.233530e-01 4.532458e+01 7.360122e-01 3.841171e+01 7.943894e-01 3.143187e+01 8.691124e-01 2.443030e+01 9.231671e-01 1.745068e+01 9.265382e-01 1.052232e+01 8.648413e-01 3.656553e+00 7.438940e-01 -3.154981e+00 5.940752e-01 -9.949120e+00 4.634229e-01 -1.676678e+01 3.913537e-01 -2.363166e+01 4.020690e-01 -3.054249e+01 4.976996e-01 -3.747249e+01 6.583706e-01 -4.437390e+01 8.514772e-01 -5.119593e+01 1.052464e+00 -5.789849e+01 1.256265e+00 -6.445901e+01 1.479353e+00 -7.086569e+01 1.746949e+00 -7.709982e+01 2.073607e+00 -8.313196e+01 2.466519e+00 -8.893899e+01 
2.864428e+00 -9.503889e+01 3.234011e+00 -1.006433e+02 3.584005e+00 1.005262e+02 3.196818e+00 9.521198e+01 2.744078e+00 8.969731e+01 2.298224e+00 8.394451e+01 1.896981e+00 7.796338e+01 1.557299e+00 7.177792e+01 1.284942e+00 6.541398e+01 1.077693e+00 5.889826e+01 9.285952e-01 5.225628e+01 8.277956e-01 4.551298e+01 7.657013e-01 3.868962e+01 7.354016e-01 3.180567e+01 7.279603e-01 2.488291e+01 7.318479e-01 1.794215e+01 7.381045e-01 1.099841e+01 7.420363e-01 4.061010e+00 7.435500e-01 -2.866100e+00 7.497517e-01 -9.789694e+00 7.740895e-01 -1.671658e+01 8.258816e-01 -2.364582e+01 9.098772e-01 -3.056782e+01 1.024540e+00 -3.746490e+01 1.161930e+00 -4.431211e+01 1.310560e+00 -5.108382e+01 1.463598e+00 -5.775845e+01 1.622662e+00 -6.432148e+01 1.798599e+00 -7.076316e+01 2.005383e+00 -7.707063e+01 2.250255e+00 -8.322689e+01 2.535362e+00 -8.921938e+01 
2.187892e+00 -9.713428e+01 2.491384e+00 -1.030900e+02 2.742435e+00 1.023268e+02 2.530396e+00 9.664862e+01 2.220545e+00 9.083900e+01 1.876510e+00 8.485201e+01 1.543459e+00 7.868490e+01 1.250389e+00 7.234881e+01 1.015475e+00 6.585669e+01 8.471732e-01 5.922286e+01 7.449799e-01 5.246475e+01 7.008113e-01 4.560435e+01 7.017788e-01 3.866680e+01 7.320187e-01 3.167991e+01 7.716275e-01 2.467365e+01 7.987599e-01 1.767536e+01 7.959847e-01 1.070385e+01 7.555132e-01 3.766291e+00 6.821846e-01 -3.143036e+00 5.939350e-01 -1.004240e+01 5.167022e-01 -1.695265e+01 4.738441e-01 -2.388647e+01 4.800855e-01 -3.084277e+01 5.378730e-01 -3.780586e+01 6.378745e-01 -4.474912e+01 7.644105e-01 -5.164325e+01 9.046026e-01 -5.846368e+01 1.054556e+00 -6.519413e+01 1.220195e+00 -7.182427e+01 1.411814e+00 -7.834397e+01 1.636512e+00 -8.474169e+01 1.896320e+00 -9.100815e+01 
2.065723e+00 -9.774965e+01 2.190783e+00 -1.040229e+02 2.239294e+00 1.035511e+02 2.160118e+00 9.754386e+01 1.971535e+00 9.149369e+01 1.735224e+00 8.533620e+01 1.496400e+00 7.904658e+01 1.280804e+00 7.262315e+01 1.100704e+00 6.607534e+01 9.596705e-01 5.941772e+01 8.560678e-01 5.266669e+01 7.853642e-01 4.583909e+01 7.420913e-01 3.895083e+01 7.208847e-01 3.201712e+01 7.155839e-01 2.505306e+01 7.194420e-01 1.807241e+01 7.270452e-01 1.108566e+01 7.355583e-01 4.099454e+00 7.453409e-01 -2.883574e+00 7.604192e-01 -9.865069e+00 7.872144e-01 -1.684701e+01 8.308622e-01 -2.382794e+01 8.937625e-01 -3.080157e+01 9.747240e-01 -3.775699e+01 1.069221e+00 -4.467991e+01 1.171270e+00 -5.155580e+01 1.276808e+00 -5.837270e+01 1.385688e+00 -6.512275e+01 1.501549e+00 -7.180151e+01 1.628826e+00 -7.840555e+01 1.768618e+00 -8.493207e+01 1.917345e+00 -9.138038e+01 
1.355236e+00 -9.977042e+01 1.400538e+00 -1.063631e+02 1.338929e+00 1.054288e+02 1.426198e+00 9.907572e+01 1.379493e+00 9.272973e+01 1.254741e+00 8.632661e+01 1.099715e+00 7.983516e+01 9.473952e-01 7.324436e+01 8.185635e-01 6.655379e+01 7.241898e-01 5.976915e+01 6.673463e-01 5.290066e+01 6.449537e-01 4.596247e+01 6.496112e-01 3.897165e+01 6.709577e-01 3.194710e+01 6.964227e-01 2.490814e+01 7.131038e-01 1.787174e+01 7.110404e-01 1.084947e+01 6.861574e-01 3.845603e+00 6.418682e-01 -3.143362e+00 5.887175e-01 -1.012723e+01 5.413068e-01 -1.711728e+01 5.132891e-01 -2.412077e+01 5.135552e-01 -3.113759e+01 5.441349e-01 -3.815961e+01 6.005130e-01 -4.517288e+01 6.744623e-01 -5.216178e+01 7.582999e-01 -5.911308e+01 8.479645e-01 -6.601815e+01 9.433885e-01 -7.287254e+01 1.045928e+00 -7.967430e+01 1.154514e+00 -8.642314e+01 1.262716e+00 -9.312097e+01 
1.210567e+00 -1.003948e+02 1.089084e+00 -1.072732e+02 8.328750e-01 1.067944e+02 1.056922e+00 1.001300e+02 1.131320e+00 9.353661e+01 1.111016e+00 8.694485e+01 1.043074e+00 8.031299e+01 9.592256e-01 7.362076e+01 8.783943e-01 6.686202e+01 8.103721e-01 6.003890e+01 7.590212e-01 5.315800e+01 7.246129e-01 4.622811e+01 7.054943e-01 3.925875e+01 6.990374e-01 3.225963e+01 7.018761e-01 2.524021e+01 7.103740e-01 1.820894e+01 7.215685e-01 1.117234e+01 7.339400e-01 4.134488e+00 7.478106e-01 -2.903028e+00 7.653204e-01 -9.940664e+00 7.895718e-01 -1.697918e+01 8.230520e-01 -2.401781e+01 8.666151e-01 -3.105335e+01 9.189862e-01 -3.808032e+01 9.769595e-01 -4.509186e+01 1.036381e+00 -5.208150e+01 1.093581e+00 -5.904483e+01 1.146191e+00 -6.598054e+01 1.192765e+00 -7.289051e+01 1.231022e+00 -7.977912e+01 1.255416e+00 -8.665313e+01 1.255003e+00 -9.352163e+01 
4.886671e-01 -1.023065e+02 2.801174e-01 -1.094724e+02 -9.141675e-02 1.086719e+02 2.915685e-01 1.016879e+02 5.032164e-01 9.481177e+01 5.959065e-01 8.797680e+01 6.180052e-01 8.113902e+01 6.055317e-01 7.427261e+01 5.829533e-01 6.736460e+01 5.651518e-01 6.041071e+01 5.594570e-01 5.341271e+01 5.674711e-01 4.637672e+01 5.866793e-01 3.931190e+01 6.117643e-01 3.222914e+01 6.357519e-01 2.513958e+01 6.515255e-01 1.805279e+01 6.537453e-01 1.097502e+01 6.405190e-01 3.908084e+00 6.142342e-01 -3.150797e+00 5.811605e-01 -1.020783e+01 5.496719e-01 -1.727014e+01 5.276430e-01 -2.434293e+01 5.202153e-01 -3.142756e+01 5.285394e-01 -3.852128e+01 5.498515e-01 -4.561835e+01 5.788255e-01 -5.271242e+01 6.095279e-01 -5.979877e+01 6.368145e-01 -6.687591e+01 6.563403e-01 -7.394588e+01 6.630255e-01 -8.101399e+01 6.485498e-01 -8.808862e+01 5.984973e-01 -9.518135e+01 
3.408157e-01 -1.028886e+02 -2.253738e-02 -1.103075e+02 -5.776414e-01 1.100841e+02 -6.105012e-02 1.028162e+02 2.663752e-01 9.570340e+01 4.573611e-01 8.867913e+01 5.598622e-01 8.169490e+01 6.096768e-01 7.471919e+01 6.312208e-01 6.773387e+01 6.399323e-01 6.073023e+01 6.448412e-01 5.370554e+01 6.506909e-01 4.666074e+01 6.595039e-01 3.959881e+01 6.716099e-01 3.252373e+01 6.862667e-01 2.543983e+01 7.022221e-01 1.835101e+01 7.183355e-01 1.126019e+01 7.340777e-01 4.168897e+00 7.497758e-01 -2.922771e+00 7.665284e-01 -1.001582e+01 7.857032e-01 -1.711154e+01 8.081626e-01 -2.421063e+01 8.336482e-01 -3.131280e+01 8.604627e-01 -3.841690e+01 8.855299e-01 -4.552161e+01 9.048078e-01 -5.262651e+01 9.138106e-01 -5.973322e+01 9.077737e-01 -6.684619e+01 8.811276e-01 -7.397310e+01 8.261905e-01 -8.112486e+01 7.312967e-01 -8.831573e+01 5.785601e-01 -9.556338e+01 
-3.733783e-01 -1.046689e+02 -8.255468e-01 -1.123434e+02 -1.495820e+00 1.118962e+02 -8.293392e-01 1.043394e+02 -3.720315e-01 9.696517e+01 -7.169551e-02 8.971018e+01 1.207573e-01 8.252587e+01 2.438658e-01 7.537787e+01 3.256550e-01 6.824377e+01 3.850445e-01 6.111035e+01 4.336187e-01 5.397115e+01 4.773366e-01 4.682464e+01 5.180417e-01 3.967264e+01 5.547498e-01 3.251896e+01 5.848124e-01 2.536812e+01 6.051353e-01 1.822393e+01 6.134323e-01 1.108837e+01 6.092362e-01 3.960871e+00 5.943630e-01 -3.161773e+00 5.726343e-01 -1.028472e+01 5.488607e-01 -1.741377e+01 5.274092e-01 -2.455387e+01 5.108974e-01 -3.170818e+01 4.993963e-01 -3.887791e+01 4.903393e-01 -4.606309e+01 4.790638e-01 -5.326391e+01 4.596073e-01 -6.048216e+01 4.251876e-01 -6.772242e+01 3.679173e-01 -7.499264e+01 2.776075e-01 -8.230450e+01 1.398135e-01 -8.967364e+01 -6.672122e-02 -9.712014e+01 
-5.080681e-01 -1.051725e+02 -1.101676e+00 -1.130674e+02 -1.941414e+00 1.132787e+02 -1.149769e+00 1.054698e+02 -5.855074e-01 9.787938e+01 -1.951425e-01 9.044565e+01 7.047427e-02 8.311862e+01 2.502301e-01 7.586073e+01 3.728793e-01 6.864569e+01 4.586082e-01 6.145621e+01 5.209968e-01 5.428157e+01 5.688333e-01 4.711558e+01 6.075661e-01 3.995497e+01 6.403670e-01 3.279832e+01 6.688886e-01 2.564517e+01 6.938648e-01 1.849536e+01 7.156235e-01 1.134846e+01 7.344644e-01 4.203439e+00 7.508445e-01 -2.941455e+00 7.653341e-01 -1.008858e+01 7.783390e-01 -1.724055e+01 7.896874e-01 -2.439992e+01 7.982549e-01 -3.156905e+01 8.017290e-01 -3.875032e+01 7.965501e-01 -4.594666e+01 7.779870e-01 -5.316235e+01 7.401915e-01 -6.040380e+01 6.760007e-01 -6.768030e+01 5.762944e-01 -7.500451e+01 4.288303e-01 -8.239285e+01 2.165817e-01 -8.986592e+01 -8.443462e-02 -9.744899e+01 
-1.198178e+00 -1.068067e+02 -1.877651e+00 -1.149254e+02 -2.827528e+00 1.149709e+02 -1.897475e+00 1.069065e+02 -1.213202e+00 9.908096e+01 -7.206311e-01 9.143587e+01 -3.694417e-01 8.392207e+01 -1.188007e-01 7.650084e+01 6.247565e-02 6.914340e+01 1.969750e-01 6.182948e+01 3.001591e-01 5.454555e+01 3.818834e-01 4.728324e+01 4.477920e-01 4.003788e+01 5.005398e-01 3.280720e+01 5.408811e-01 2.559015e+01 5.686787e-01 1.838582e+01 5.838133e-01 1.119257e+01 5.868635e-01 4.007466e+00 5.794126e-01 -3.173834e+00 5.638966e-01 -1.035677e+01 5.430275e-01 -1.754725e+01 5.189755e-01 -2.475092e+01 4.925797e-01 -3.197279e+01 4.628052e-01 -3.921717e+01 4.265489e-01 -4.648830e+01 3.787409e-01 -5.379118e+01 3.125295e-01 -6.113262e+01 2.192482e-01 -6.852218e+01 8.790727e-02 -7.597287e+01 -9.591474e-02 -8.350184e+01 -3.517839e-01 -9.113098e+01 -7.067193e-01 -9.888785e+01 
-1.305443e+00 -1.072060e+02 -2.111370e+00 -1.155125e+02 -3.213774e+00 1.162613e+02 -2.170955e+00 1.079791e+02 -1.391199e+00 9.996319e+01 -8.186376e-01 9.215715e+01 -4.025299e-01 8.451179e+01 -1.013952e-01 7.698673e+01 1.169704e-01 6.955051e+01 2.766167e-01 6.217959e+01 3.949596e-01 5.485683e+01 4.843027e-01 4.756994e+01 5.531517e-01 4.031014e+01 6.072547e-01 3.307110e+01 6.503976e-01 2.584805e+01 6.850203e-01 1.863715e+01 7.126936e-01 1.143487e+01 7.344558e-01 4.237701e+00 7.509898e-01 -2.958117e+00 7.626339e-01 -1.015661e+01 7.692402e-01 -1.736205e+01 7.699410e-01 -2.457888e+01 7.629032e-01 -3.181184e+01 7.451257e-01 -3.906620e+01 7.122959e-01 -4.634824e+01 6.586646e-01 -5.366588e+01 5.768460e-01 -6.102938e+01 4.574090e-01 -6.845196e+01 2.881433e-01 -7.595047e+01 5.292257e-02 -8.354601e+01 -2.698760e-01 -9.126459e+01 -7.094706e-01 -9.913820e+01 
-1.957541e+00 -1.086844e+02 -2.842424e+00 -1.171831e+02 -4.045570e+00 1.177887e+02 -2.878377e+00 1.092858e+02 -1.990765e+00 1.010644e+02 -1.325760e+00 9.307096e+01 -8.314523e-01 8.525751e+01 -4.648638e-01 7.758346e+01 -1.920822e-01 7.001604e+01 1.262676e-02 6.252981e+01 1.680625e-01 5.510562e+01 2.874230e-01 4.772942e+01 3.795712e-01 4.039102e+01 4.501683e-01 3.308302e+01 5.026698e-01 2.579972e+01 5.391950e-01 1.853624e+01 5.612504e-01 1.128780e+01 5.702487e-01 4.049199e+00 5.677565e-01 -3.185362e+00 5.554417e-01 -1.042226e+01 5.347527e-01 -1.766821e+01 5.064360e-01 -2.492997e+01 4.700337e-01 -3.221429e+01 4.234787e-01 -3.952798e+01 3.628413e-01 -4.687844e+01 2.821885e-01 -5.427430e+01 1.734357e-01 -6.172624e+01 2.601834e-02 -6.924781e+01 -1.737746e-01 -7.685626e+01 -4.439092e-01 -8.457334e+01 -8.082145e-01 -9.242630e+01 -1.298539e+00 -1.004492e+02 
-2.024918e+00 -1.089605e+02 -3.019736e+00 -1.176148e+02 -4.356026e+00 1.189361e+02 -3.091481e+00 1.102509e+02 -2.121975e+00 1.018682e+02 -1.388571e+00 9.373635e+01 -8.387483e-01 8.580798e+01 -4.287652e-01 7.804165e+01 -1.236454e-01 7.040286e+01 1.037519e-01 6.286371e+01 2.739722e-01 5.540219e+01 4.022592e-01 4.800109e+01 4.997316e-01 4.064699e+01 5.743697e-01 3.332934e+01 6.318047e-01 2.603962e+01 6.759357e-01 1.877070e+01 7.093980e-01 1.151630e+01 7.338927e-01 4.270573e+00 7.503770e-01 -2.972179e+00 7.591212e-01 -1.021771e+01 7.596504e-01 -1.747196e+01 7.506056e-01 -2.474117e+01 7.295642e-01 -3.203213e+01 6.928484e-01 -3.935244e+01 6.353232e-01 -4.671103e+01 5.501522e-01 -5.411869e+01 4.284499e-01 -6.158867e+01 2.587464e-01 -6.913741e+01 2.618221e-02 -7.678519e+01 -2.886385e-01 -8.455701e+01 -7.112027e-01 -9.248352e+01 -1.275142e+00 -1.006025e+02 
-2.627373e+00 -1.102770e+02 -3.690913e+00 -1.190918e+02 -5.114718e+00 1.202623e+02 -3.742180e+00 1.113922e+02 -2.678968e+00 1.028356e+02 -1.864915e+00 9.454339e+01 -1.246416e+00 8.646936e+01 -7.785382e-01 7.857238e+01 -4.250675e-01 7.081733e+01 -1.576704e-01 6.317518e+01 4.520313e-02 5.562257e+01 1.995050e-01 4.814092e+01 3.167349e-01 4.071562e+01 4.049817e-01 3.333503e+01 4.698355e-01 2.598966e+01 5.151615e-01 1.867132e+01 5.437216e-01 1.137256e+01 5.576148e-01 4.086105e+00 5.585101e-01 -3.195390e+00 5.476641e-01 -1.047947e+01 5.257521e-01 -1.777389e+01 4.925730e-01 -2.508665e+01 4.467054e-01 -3.242602e+01 3.851800e-01 -3.980085e+01 3.031909e-01 -4.722092e+01 1.938207e-01 -5.469762e+01 4.770472e-02 -6.224460e+01 -1.474717e-01 -6.987858e+01 -4.077478e-01 -7.762019e+01 -7.540230e-01 -8.549503e+01 -1.213626e+00 -9.353479e+01 -1.822395e+00 -1.017790e+02 
-2.644166e+00 -1.104163e+02 -3.799815e+00 -1.193548e+02 -5.335391e+00 1.212253e+02 -3.883233e+00 1.122090e+02 -2.753433e+00 1.035222e+02 -1.883927e+00 9.511750e+01 -1.220456e+00 8.694918e+01 -7.173374e-01 7.897583e+01 -3.373812e-01 7.116121e+01 -5.102251e-02 6.347455e+01 1.647573e-01 5.589029e+01 3.275636e-01 4.838745e+01 4.506503e-01 4.094891e+01 5.438445e-01 3.356064e+01 6.143111e-01 2.621099e+01 6.671635e-01 1.889008e+01 7.059302e-01 1.158923e+01 7.328891e-01 4.300565e+00 7.492761e-01 -2.983401e+00 7.553777e-01 -1.027000e+01 7.505232e-01 -1.756670e+01 7.329971e-01 -2.488130e+01 6.998944e-01 -3.222229e+01 6.469292e-01 -3.959916e+01 5.681935e-01 -4.702288e+01 4.558412e-01 -5.450642e+01 2.996520e-01 -6.206541e+01 8.641587e-02 -6.971878e+01 -2.009244e-01 -7.748960e+01 -5.844422e-01 -8.540601e+01 -1.092781e+00 -9.350253e+01 -1.763186e+00 -1.018216e+02 
-3.187554e+00 -1.115673e+02 -4.398918e+00 -1.206348e+02 -6.005522e+00 1.223217e+02 -4.463747e+00 1.131569e+02 -3.256052e+00 1.043291e+02 -2.319268e+00 9.579300e+01 -1.598208e+00 8.750404e+01 -1.046256e+00 7.942121e+01 -6.253267e-01 7.150807e+01 -3.050257e-01 6.373325e+01 -6.163623e-02 5.607032e+01 1.229612e-01 4.849735e+01 2.623369e-01 4.099628e+01 3.664727e-01 3.355220e+01 4.426050e-01 2.615257e+01 4.959338e-01 1.878659e+01 5.301855e-01 1.144458e+01 5.480163e-01 4.117486e+00 5.512453e-01 -3.203438e+00 5.409214e-01 -1.052689e+01 5.172437e-01 -1.786170e+01 4.793727e-01 -2.521697e+01 4.251761e-01 -3.260228e+01 3.509421e-01 -4.002803e+01 2.510714e-01 -4.750586e+01 1.177261e-01 -5.504917e+01 -5.961380e-02 -6.267386e+01 -2.947568e-01 -7.039906e+01 -6.056483e-01 -7.824811e+01 -1.015537e+00 -8.624958e+01 -1.554536e+00 -9.443881e+01 -2.261672e+00 -1.028597e+02 
-3.144872e+00 -1.115599e+02 -4.429515e+00 -1.207193e+02 -6.125013e+00 1.230674e+02 -4.523115e+00 1.137930e+02 -3.265507e+00 1.048676e+02 -2.287357e+00 9.624696e+01 -1.532889e+00 8.788723e+01 -9.548450e-01 7.974723e+01 -5.143228e-01 7.178983e+01 -1.799268e-01 6.398241e+01 7.323063e-02 5.629696e+01 2.645572e-01 4.870976e+01 4.089566e-01 4.120090e+01 5.176974e-01 3.375367e+01 5.991506e-01 2.635396e+01 6.593891e-01 1.898968e+01 7.026540e-01 1.165024e+01 7.316964e-01 4.326064e+00 7.480015e-01 -2.991798e+00 7.519063e-01 -1.031202e+01 7.426228e-01 -1.764332e+01 7.181792e-01 -2.499479e+01 6.752922e-01 -3.237625e+01 6.091738e-01 -3.979862e+01 5.132637e-01 -4.727440e+01 3.788695e-01 -5.481822e+01 1.946764e-01 -6.244745e+01 -5.391878e-02 -7.018293e+01 -3.857033e-01 -7.804985e+01 -8.248404e-01 -8.607883e+01 -1.402430e+00 -9.430738e+01 -2.158543e+00 -1.027818e+02 
-3.621918e+00 -1.125436e+02 -4.947010e+00 -1.218004e+02 -6.694360e+00 1.239125e+02 -5.022803e+00 1.145261e+02 -3.704420e+00 1.054935e+02 -2.673552e+00 9.677187e+01 -1.873704e+00 8.831822e+01 -1.256927e+00 8.009184e+01 -7.837084e-01 7.205564e+01 -4.221204e-01 6.417676e+01 -1.468438e-01 5.642669e+01 6.184070e-02 4.878115e+01 2.190302e-01 4.121958e+01 3.360981e-01 3.372466e+01 4.214857e-01 2.628161e+01 4.813669e-01 1.887763e+01 5.201776e-01 1.150136e+01 5.410008e-01 4.142330e+00 5.458051e-01 -3.209356e+00 5.355430e-01 -1.056338e+01 5.101242e-01 -1.792946e+01 4.682870e-01 -2.531761e+01 4.073937e-01 -3.273844e+01 3.231669e-01 -4.020350e+01 2.093692e-01 -4.772573e+01 5.740999e-02 -5.532002e+01 -1.441602e-01 -6.300385e+01 -4.103183e-01 -7.079814e+01 -7.604649e-01 -7.872817e+01 -1.219617e+00 -8.682480e+01 -1.819977e+00 -9.512605e+01 -2.602972e+00 -1.036791e+02 
-3.512751e+00 -1.123823e+02 -4.891620e+00 -1.216994e+02 -6.703975e+00 1.244158e+02 -4.993091e+00 1.149567e+02 -3.642515e+00 1.058598e+02 -2.585272e+00 9.708322e+01 -1.764424e+00 8.858436e+01 -1.131545e+00 8.032247e+01 -6.465116e-01 7.225996e+01 -2.766441e-01 6.436312e+01 4.252725e-03 5.660234e+01 2.168534e-01 4.895207e+01 3.772304e-01 4.139046e+01 4.976825e-01 3.389890e+01 5.874476e-01 2.646153e+01 6.532926e-01 1.906466e+01 6.999786e-01 1.169628e+01 7.306082e-01 4.345559e+00 7.468616e-01 -2.997539e+00 7.491300e-01 -1.034270e+01 7.365570e-01 -1.769958e+01 7.069965e-01 -2.507822e+01 6.568932e-01 -3.248939e+01 5.810861e-01 -3.994503e+01 4.725257e-01 -4.745871e+01 3.218872e-01 -5.504619e+01 1.170476e-01 -6.272607e+01 -1.576103e-01 -7.052053e+01 -5.221216e-01 -7.845626e+01 -1.002147e+00 -8.656565e+01 -1.630547e+00 -9.488838e+01 -2.449416e+00 -1.034734e+02 
-3.918294e+00 -1.131981e+02 -5.320566e+00 -1.225811e+02 -7.163474e+00 1.249948e+02 -5.404052e+00 1.154606e+02 -4.010770e+00 1.062907e+02 -2.916208e+00 9.744426e+01 -2.062943e+00 8.887923e+01 -1.402106e+00 8.055526e+01 -8.932195e-01 7.243495e+01 -5.033387e-01 6.448455e+01 -2.060877e-01 5.667431e+01 1.930598e-02 4.897843e+01 1.889433e-01 4.137477e+01 3.151125e-01 3.384440e+01 4.070451e-01 2.637108e+01 4.715545e-01 1.894067e+01 5.135454e-01 1.154066e+01 5.363908e-01 4.159612e+00 5.421753e-01 -3.213181e+00 5.318120e-01 -1.058810e+01 5.050456e-01 -1.797551e+01 4.603558e-01 -2.538607e+01 3.947794e-01 -3.283108e+01 3.036583e-01 -4.032285e+01 1.803130e-01 -4.787517e+01 1.562576e-02 -5.550388e+01 -2.024983e-01 -6.322751e+01 -4.898354e-01 -7.106813e+01 -8.667687e-01 -7.905231e+01 -1.359499e+00 -8.721242e+01 -2.001624e+00 -9.558830e+01 -2.836174e+00 -1.042294e+02 
-3.737572e+00 -1.128778e+02 -5.173809e+00 -1.222895e+02 -7.057325e+00 1.252378e+02 -5.280240e+00 1.156677e+02 -3.873209e+00 1.064676e+02 -2.767912e+00 9.759680e+01 -1.906682e+00 8.901355e+01 -1.240377e+00 8.067741e+01 -7.281389e-01 7.255062e+01 -3.365247e-01 6.459888e+01 -3.856611e-02 5.679169e+01 1.871630e-01 4.910244e+01 3.574320e-01 4.150815e+01 4.851568e-01 3.398910e+01 5.800975e-01 2.652836e+01 6.494408e-01 1.911127e+01 6.982645e-01 1.172495e+01 7.298877e-01 4.357829e+00 7.461141e-01 -3.000834e+00 7.473740e-01 -1.036133e+01 7.327757e-01 -1.773392e+01 7.000716e-01 -2.512920e+01 6.455420e-01 -3.255851e+01 5.637972e-01 -4.003441e+01 4.474858e-01 -4.757109e+01 2.868934e-01 -5.518500e+01 6.940326e-02 -6.289544e+01 -2.212181e-01 -7.072540e+01 -6.057585e-01 -7.870246e+01 -1.110780e+00 -8.686008e+01 -1.770201e+00 -9.523924e+01 -2.627335e+00 -1.038906e+02 
-4.068544e+00 -1.135264e+02 -5.509812e+00 -1.229725e+02 -7.401013e+00 1.255425e+02 -5.597253e+00 1.159344e+02 -4.166186e+00 1.066957e+02 -3.039479e+00 9.778646e+01 -2.159233e+00 8.916528e+01 -1.476106e+00 8.079197e+01 -9.491376e-01 7.262899e+01 -5.448744e-01 6.464220e+01 -2.364163e-01 5.680125e+01 -2.468855e-03 4.907961e+01 1.735669e-01 4.145437e+01 3.044322e-01 3.390581e+01 3.997505e-01 2.641694e+01 4.666521e-01 1.897298e+01 5.102755e-01 1.156081e+01 5.341406e-01 4.168525e+00 5.403946e-01 -3.215012e+00 5.299382e-01 -1.060054e+01 5.024407e-01 -1.799877e+01 4.562592e-01 -2.542069e+01 3.882707e-01 -3.287793e+01 2.936259e-01 -4.038319e+01 1.654199e-01 -4.795070e+01 -5.735225e-03 -5.559674e+01 -2.322640e-01 -6.334037e+01 -5.303480e-01 -7.120422e+01 -9.208647e-01 -7.921551e+01 -1.430609e+00 -8.740737e+01 -2.093874e+00 -9.582053e+01 -2.954498e+00 -1.045056e+02 
-3.813185e+00 -1.130432e+02 -5.268681e+00 -1.224863e+02 -7.176085e+00 1.255140e+02 -5.376793e+00 1.159070e+02 -3.950824e+00 1.066724e+02 -2.829401e+00 9.777007e+01 -1.954610e+00 8.915855e+01 -1.277068e+00 8.079748e+01 -7.556714e-01 7.264907e+01 -3.567249e-01 6.467882e+01 -5.300416e-02 5.685596e+01 1.771659e-01 4.915352e+01 3.507861e-01 4.154816e+01 4.809779e-01 3.401979e+01 5.776758e-01 2.655111e+01 6.482072e-01 1.912716e+01 6.977560e-01 1.173476e+01 7.297149e-01 4.362080e+00 7.459296e-01 -3.001851e+00 7.468447e-01 -1.036753e+01 7.315579e-01 -1.774542e+01 6.977880e-01 -2.514630e+01 6.417608e-01 -3.258172e+01 5.580095e-01 -4.006442e+01 4.390808e-01 -4.760881e+01 2.751290e-01 -5.523156e+01 5.337137e-02 -6.295221e+01 -2.426318e-01 -7.079401e+01 -6.339195e-01 -7.878484e+01 -1.147355e+00 -8.695852e+01 -1.817208e+00 -9.535646e+01 -2.687199e+00 -1.040299e+02 
-4.068591e+00 -1.135262e+02 -5.509855e+00 -1.229723e+02 -7.401046e+00 1.255427e+02 -5.597277e+00 1.159345e+02 -4.166197e+00 1.066958e+02 -3.039474e+00 9.778664e+01 -2.159212e+00 8.916547e+01 -1.476067e+00 8.079216e+01 -9.490828e-01 7.262918e+01 -5.448047e-01 6.464239e+01 -2.363334e-01 5.680144e+01 -2.375104e-03 4.907980e+01 1.736692e-01 4.145454e+01 3.045407e-01 3.390596e+01 3.998626e-01 2.641708e+01 4.667655e-01 1.897310e+01 5.103878e-01 1.156092e+01 5.342495e-01 4.168626e+00 5.404979e-01 -3.214923e+00 5.300340e-01 -1.060047e+01 5.025275e-01 -1.799870e+01 4.563356e-01 -2.542062e+01 3.883355e-01 -3.287787e+01 2.936781e-01 -4.038313e+01 1.654586e-01 -4.795064e+01 -5.710999e-03 -5.559667e+01 -2.322548e-01 -6.334029e+01 -5.303537e-01 -7.120412e+01 -9.208844e-01 -7.921539e+01 -1.430641e+00 -8.740723e+01 -2.093915e+00 -9.582037e+01 -2.954544e+00 -1.045054e+02 