# vtk DataFile Version 2.0
Comment goes here
ASCII

DATASET STRUCTURED_POINTS
FIELD FieldData 1
TIME 1 1 double
0.04200000
DIMENSIONS    64   64   1

ORIGIN    0.000   0.000   0.000
SPACING   0.03125 0.03125   1.000

POINT_DATA   4096
SCALARS P double
LOOKUP_TABLE default

-2.868674e+01 -1.799607e+02 -2.396003e+01 -1.810842e+02 5.817929e+01 1.266399e+02 -1.330193e+01 1.213500e+02 -1.535987e+01 1.121580e+02 -1.003248e+01 9.464718e+01 -1.811974e+00 8.255306e+01 -3.203342e+00 8.013272e+01 -9.519465e+00 7.831086e+01 -1.547712e+01 7.622964e+01 -1.897017e+01 6.970183e+01 -1.736986e+01 5.618962e+01 -8.007288e+00 3.390399e+01 6.110247e+00 1.024926e+01 1.789484e+01 -1.057126e+01 2.404116e+01 -2.760011e+01 2.372264e+01 -3.544029e+01 1.232252e+01 -3.523860e+01 -3.122103e+00 -3.335290e+01 -2.163116e+01 -2.815486e+01 -4.372957e+01 -2.018106e+01 -6.262380e+01 -2.103719e+01 -6.935755e+01 -3.286660e+01 -6.545228e+01 -5.216720e+01 -5.765125e+01 -7.206705e+01 -4.874511e+01 -9.182129e+01 -4.343443e+01 -1.051747e+02 -4.260355e+01 -1.167070e+02 -4.139345e+01 -1.280684e+02 -4.009056e+01 -1.395127e+02 -3.759781e+01 -1.530432e+02 -3.206759e+01 -1.633247e+02 
-8.084480e+00 -1.222164e+02 -5.326907e+00 -1.234227e+02 5.412848e+01 1.057356e+02 -5.076363e-01 1.017690e+02 -2.878236e+00 9.570786e+01 -9.790000e-01 8.459404e+01 2.856801e+00 7.616752e+01 1.614128e+00 7.267372e+01 -1.842364e+00 6.892662e+01 -4.870819e+00 6.511092e+01 -6.778151e+00 5.919994e+01 -6.419907e+00 5.008109e+01 -2.302956e+00 3.651238e+01 4.130184e+00 2.251178e+01 9.317127e+00 9.866517e+00 1.203998e+01 -1.455341e+00 1.224702e+01 -8.379782e+00 7.138425e+00 -1.157291e+01 7.964367e-01 -1.460378e+01 -6.700498e+00 -1.599705e+01 -1.635007e+01 -1.543516e+01 -2.478687e+01 -1.925217e+01 -2.729216e+01 -2.819811e+01 -2.491902e+01 -4.044105e+01 -2.118366e+01 -5.249868e+01 -1.703372e+01 -6.457572e+01 -1.477360e+01 -7.312755e+01 -1.487881e+01 -8.090726e+01 -1.444445e+01 -8.863153e+01 -1.397232e+01 -9.621371e+01 -1.279101e+01 -1.049511e+02 -9.712315e+00 -1.113740e+02 
4.168062e+00 -8.764814e+01 5.081300e+00 -9.003951e+01 2.430926e+01 9.281607e+01 5.652466e+00 8.948038e+01 4.387179e+00 8.525844e+01 3.963746e+00 7.955673e+01 4.057219e+00 7.391988e+01 3.347250e+00 6.872802e+01 2.479965e+00 6.301753e+01 1.814745e+00 5.717004e+01 1.303631e+00 5.098338e+01 1.009855e+00 4.444839e+01 1.176696e+00 3.726345e+01 1.624026e+00 3.018172e+01 1.855748e+00 2.325266e+01 1.948488e+00 1.617610e+01 2.094539e+00 9.590194e+00 1.614906e+00 3.373197e+00 1.340243e+00 -3.174922e+00 1.070191e+00 -9.481396e+00 3.004858e-01 -1.522828e+01 -5.148234e-01 -2.153118e+01 -6.218000e-01 -2.830149e+01 -2.581322e-01 -3.527967e+01 6.555310e-02 -4.197237e+01 4.969029e-01 -4.870391e+01 7.404947e-01 -5.473754e+01 7.068055e-01 -6.067828e+01 1.009384e+00 -6.648263e+01 1.366866e+00 -7.198763e+01 1.995340e+00 -7.752587e+01 3.199488e+00 -8.208770e+01 
3.550755e+00 -8.835048e+01 5.113618e+00 -9.138691e+01 6.765519e+00 9.354864e+01 5.669285e+00 9.008447e+01 4.516929e+00 8.555796e+01 3.928106e+00 8.002743e+01 3.661678e+00 7.438641e+01 3.028044e+00 6.898037e+01 2.220513e+00 6.339588e+01 1.530483e+00 5.759045e+01 1.058375e+00 5.136757e+01 9.320424e-01 4.461411e+01 1.305140e+00 3.728807e+01 1.980570e+00 2.986652e+01 2.565915e+00 2.256449e+01 2.908913e+00 1.543171e+01 2.925124e+00 8.797876e+00 2.359837e+00 2.588263e+00 1.622566e+00 -3.538167e+00 7.441114e-01 -9.425494e+00 -3.538001e-01 -1.511094e+01 -1.269877e+00 -2.126874e+01 -1.528638e+00 -2.801738e+01 -1.237140e+00 -3.511908e+01 -7.631419e-01 -4.217424e+01 -2.591596e-01 -4.905928e+01 6.186111e-02 -5.543309e+01 1.827805e-01 -6.152368e+01 4.322342e-01 -6.740620e+01 8.115477e-01 -7.306067e+01 1.458997e+00 -7.855547e+01 2.494331e+00 -8.350046e+01 
3.965237e+00 -8.751414e+01 5.143569e+00 -9.087081e+01 6.530744e+00 9.324529e+01 5.430671e+00 8.971200e+01 4.456381e+00 8.526621e+01 3.845593e+00 8.001829e+01 3.458848e+00 7.449795e+01 2.928410e+00 6.891762e+01 2.352818e+00 6.309259e+01 1.863804e+00 5.705986e+01 1.494466e+00 5.076701e+01 1.291465e+00 4.420267e+01 1.311437e+00 3.735191e+01 1.466232e+00 3.044277e+01 1.584431e+00 2.356249e+01 1.633688e+00 1.670848e+01 1.612393e+00 1.004200e+01 1.385975e+00 3.534928e+00 1.138326e+00 -2.975828e+00 8.423833e-01 -9.381321e+00 4.104901e-01 -1.565211e+01 1.466124e-02 -2.209554e+01 -1.041364e-01 -2.874410e+01 1.711830e-02 -3.548295e+01 2.202326e-01 -4.213464e+01 4.714159e-01 -4.867865e+01 6.815254e-01 -5.493287e+01 8.496829e-01 -6.100472e+01 1.144220e+00 -6.689260e+01 1.564603e+00 -7.254930e+01 2.184664e+00 -7.797516e+01 3.062167e+00 -8.293199e+01 
3.410767e+00 -8.921943e+01 4.666596e+00 -9.303960e+01 5.871586e+00 9.425857e+01 5.109622e+00 9.050546e+01 4.270931e+00 8.588169e+01 3.636504e+00 8.059122e+01 3.157340e+00 7.501074e+01 2.636348e+00 6.933286e+01 2.095197e+00 6.349001e+01 1.637022e+00 5.742676e+01 1.334349e+00 5.106089e+01 1.252699e+00 4.435465e+01 1.423701e+00 3.734636e+01 1.747391e+00 3.022549e+01 2.048428e+00 2.314188e+01 2.206121e+00 1.619255e+01 2.139518e+00 9.493016e+00 1.787482e+00 3.030641e+00 1.265768e+00 -3.295659e+00 6.376739e-01 -9.504219e+00 -3.855763e-02 -1.568263e+01 -5.796846e-01 -2.206574e+01 -8.066511e-01 -2.872795e+01 -7.342164e-01 -3.557351e+01 -4.979450e-01 -4.242461e+01 -2.061683e-01 -4.915283e+01 5.120044e-02 -5.562845e+01 2.745440e-01 -6.187629e+01 5.698078e-01 -6.791589e+01 9.897970e-01 -7.373711e+01 1.598901e+00 -7.931009e+01 2.432372e+00 -8.449267e+01 
3.649948e+00 -8.909269e+01 4.621187e+00 -9.325157e+01 5.628047e+00 9.451011e+01 4.889081e+00 9.053805e+01 4.129845e+00 8.588032e+01 3.530302e+00 8.065365e+01 3.061086e+00 7.509116e+01 2.611007e+00 6.932563e+01 2.182723e+00 6.335325e+01 1.817607e+00 5.718344e+01 1.541123e+00 5.080819e+01 1.376265e+00 4.423520e+01 1.332094e+00 3.749337e+01 1.364051e+00 3.067571e+01 1.399562e+00 2.384869e+01 1.399831e+00 1.705076e+01 1.341584e+00 1.033759e+01 1.193382e+00 3.708078e+00 9.997677e-01 -2.878330e+00 7.685910e-01 -9.411069e+00 5.033692e-01 -1.590793e+01 2.797456e-01 -2.246550e+01 1.860848e-01 -2.910674e+01 2.245184e-01 -3.578276e+01 3.438067e-01 -4.241386e+01 5.108150e-01 -4.894878e+01 6.946411e-01 -5.532039e+01 9.035542e-01 -6.153207e+01 1.195323e+00 -6.757231e+01 1.598317e+00 -7.341113e+01 2.144833e+00 -7.900811e+01 2.846227e+00 -8.426226e+01 
3.033629e+00 -9.116503e+01 3.986722e+00 -9.575794e+01 4.922811e+00 9.594209e+01 4.376097e+00 9.162131e+01 3.756518e+00 8.673818e+01 3.209212e+00 8.137395e+01 2.748123e+00 7.570158e+01 2.322688e+00 6.983524e+01 1.933235e+00 6.378914e+01 1.616720e+00 5.754632e+01 1.409740e+00 5.108004e+01 1.339680e+00 4.438754e+01 1.405640e+00 3.751007e+01 1.551641e+00 3.054284e+01 1.688341e+00 2.358065e+01 1.738539e+00 1.669770e+01 1.649302e+00 9.950158e+00 1.400127e+00 3.341615e+00 1.032990e+00 -3.165326e+00 5.983884e-01 -9.607951e+00 1.583445e-01 -1.605144e+01 -1.930024e-01 -2.259188e+01 -3.764098e-01 -2.926675e+01 -3.866061e-01 -3.603526e+01 -2.749506e-01 -4.281093e+01 -9.797601e-02 -4.951057e+01 1.033281e-01 -5.606561e+01 3.291381e-01 -6.245748e+01 6.198327e-01 -6.867862e+01 1.012620e+00 -7.471214e+01 1.541290e+00 -8.052192e+01 2.221155e+00 -8.603349e+01 
3.156810e+00 -9.139916e+01 3.882063e+00 -9.632152e+01 4.610843e+00 9.665361e+01 4.127013e+00 9.203304e+01 3.583959e+00 8.700330e+01 3.095460e+00 8.158039e+01 2.680688e+00 7.586094e+01 2.312235e+00 6.992287e+01 1.984680e+00 6.379624e+01 1.709848e+00 5.749768e+01 1.499587e+00 5.103672e+01 1.362490e+00 4.442973e+01 1.295917e+00 3.770652e+01 1.275383e+00 3.091688e+01 1.264745e+00 2.410607e+01 1.236187e+00 1.730821e+01 1.171020e+00 1.055140e+01 1.058627e+00 3.841535e+00 9.120735e-01 -2.832032e+00 7.432782e-01 -9.475245e+00 5.692964e-01 -1.610543e+01 4.280858e-01 -2.275738e+01 3.577718e-01 -2.944099e+01 3.662505e-01 -3.613355e+01 4.376703e-01 -4.279465e+01 5.555250e-01 -4.938668e+01 7.088883e-01 -5.587418e+01 9.043037e-01 -6.224176e+01 1.165874e+00 -6.847401e+01 1.513614e+00 -7.454825e+01 1.962921e+00 -8.043135e+01 2.516096e+00 -8.606931e+01 
2.486048e+00 -9.360806e+01 3.160185e+00 -9.893625e+01 3.807432e+00 9.839283e+01 3.491512e+00 9.338307e+01 3.089350e+00 8.807291e+01 2.690976e+00 8.245019e+01 2.331734e+00 7.657667e+01 2.010940e+00 7.051117e+01 1.733079e+00 6.427800e+01 1.513697e+00 5.788070e+01 1.369076e+00 5.131757e+01 1.308193e+00 4.459913e+01 1.322600e+00 3.775845e+01 1.378693e+00 3.085115e+01 1.427113e+00 2.393653e+01 1.421507e+00 1.706415e+01 1.330045e+00 1.026721e+01 1.143442e+00 3.552317e+00 8.814689e-01 -3.097164e+00 5.785073e-01 -9.709328e+00 2.791216e-01 -1.632476e+01 3.586373e-02 -2.298837e+01 -1.104173e-01 -2.971889e+01 -1.508550e-01 -3.649788e+01 -1.039977e-01 -4.328133e+01 3.965861e-03 -5.002030e+01 1.541096e-01 -5.667359e+01 3.459469e-01 -6.321856e+01 5.963576e-01 -6.964087e+01 9.254483e-01 -7.592403e+01 1.349707e+00 -8.204191e+01 1.874044e+00 -8.795330e+01 
2.530881e+00 -9.402611e+01 3.005362e+00 -9.966365e+01 3.444592e+00 9.942007e+01 3.216094e+00 9.409179e+01 2.898882e+00 8.857154e+01 2.570735e+00 8.281804e+01 2.268154e+00 7.685165e+01 1.996895e+00 7.070646e+01 1.759087e+00 6.440649e+01 1.560036e+00 5.796849e+01 1.405033e+00 5.140621e+01 1.296507e+00 4.473668e+01 1.230002e+00 3.798367e+01 1.191251e+00 3.117817e+01 1.160474e+00 2.435036e+01 1.120072e+00 1.752483e+01 1.057803e+00 1.071927e+01 9.685807e-01 3.940220e+00 8.576383e-01 -2.814913e+00 7.346526e-01 -9.552118e+00 6.141296e-01 -1.628252e+01 5.170914e-01 -2.302043e+01 4.628012e-01 -2.976968e+01 4.585214e-01 -3.651898e+01 5.006131e-01 -4.324699e+01 5.827371e-01 -4.993067e+01 7.013814e-01 -5.654910e+01 8.604984e-01 -6.308820e+01 1.070730e+00 -6.953568e+01 1.342046e+00 -7.587691e+01 1.679869e+00 -8.209210e+01 2.080885e+00 -8.815329e+01 
1.824742e+00 -9.625380e+01 2.230985e+00 -1.022660e+02 2.577213e+00 1.013465e+02 2.505946e+00 9.563145e+01 2.327512e+00 8.980503e+01 2.105931e+00 8.381475e+01 1.882497e+00 7.766141e+01 1.675692e+00 7.136329e+01 1.496722e+00 6.493399e+01 1.356022e+00 5.838035e+01 1.261722e+00 5.170819e+01 1.215968e+00 4.493021e+01 1.210516e+00 3.807060e+01 1.224730e+00 3.116399e+01 1.230289e+00 2.424749e+01 1.200056e+00 1.735286e+01 1.115576e+00 1.050093e+01 9.722651e-01 3.697465e+00 7.813949e-01 -3.065976e+00 5.653309e-01 -9.807451e+00 3.532410e-01 -1.655125e+01 1.761829e-01 -2.332082e+01 5.781584e-02 -3.012657e+01 6.552965e-03 -3.696042e+01 1.690561e-02 -4.380005e+01 7.766891e-02 -5.061820e+01 1.800245e-01 -5.739049e+01 3.229152e-01 -6.410015e+01 5.127037e-01 -7.073553e+01 7.576225e-01 -7.728559e+01 1.062557e+00 -8.373589e+01 1.423837e+00 -9.006653e+01 
1.817653e+00 -9.674911e+01 2.041778e+00 -1.030458e+02 2.185216e+00 1.025693e+02 2.215334e+00 9.654408e+01 2.127623e+00 9.048365e+01 1.981112e+00 8.432547e+01 1.817016e+00 7.804976e+01 1.655865e+00 7.165870e+01 1.508216e+00 6.516069e+01 1.380931e+00 5.856525e+01 1.278424e+00 5.188280e+01 1.202052e+00 4.512634e+01 1.148719e+00 3.831260e+01 1.110311e+00 3.146140e+01 1.075809e+00 2.459228e+01 1.034803e+00 1.772168e+01 9.799669e-01 1.086108e+01 9.086521e-01 4.015621e+00 8.237939e-01 -2.815280e+00 7.323117e-01 -9.635818e+00 6.443746e-01 -1.645285e+01 5.724168e-01 -2.327345e+01 5.273868e-01 -3.009975e+01 5.148724e-01 -3.692660e+01 5.351381e-01 -4.374345e+01 5.862142e-01 -5.053804e+01 6.668657e-01 -5.729918e+01 7.785131e-01 -6.401879e+01 9.245937e-01 -7.069059e+01 1.107357e+00 -7.730840e+01 1.324820e+00 -8.386461e+01 1.567860e+00 -9.034899e+01 
1.094631e+00 -9.892597e+01 1.240771e+00 -1.055646e+02 1.283364e+00 1.045814e+02 1.464615e+00 9.818976e+01 1.511781e+00 9.182138e+01 1.476874e+00 8.541124e+01 1.402331e+00 7.892990e+01 1.314922e+00 7.236861e+01 1.231467e+00 6.572634e+01 1.163190e+00 5.900445e+01 1.116755e+00 5.220702e+01 1.093439e+00 4.534324e+01 1.087809e+00 3.842890e+01 1.087702e+00 3.148523e+01 1.076986e+00 2.453482e+01 1.040242e+00 1.759715e+01 9.672362e-01 1.068491e+01 8.560301e-01 3.801792e+00 7.138881e-01 -3.057275e+00 5.552898e-01 -9.903890e+00 3.989203e-01 -1.675311e+01 2.638732e-01 -2.361883e+01 1.648661e-01 -3.050818e+01 1.087570e-01 -3.741886e+01 9.489663e-02 -4.434073e+01 1.186336e-01 -5.126023e+01 1.753184e-01 -5.816475e+01 2.628924e-01 -6.504528e+01 3.817335e-01 -7.189625e+01 5.319864e-01 -7.871382e+01 7.100995e-01 -8.549423e+01 9.050800e-01 -9.223306e+01 
1.056757e+00 -9.942795e+01 1.035049e+00 -1.063240e+02 8.842621e-01 1.059024e+02 1.172643e+00 9.922109e+01 1.311946e+00 9.261827e+01 1.352718e+00 8.602687e+01 1.337252e+00 7.940810e+01 1.293328e+00 7.274355e+01 1.238177e+00 6.602653e+01 1.182575e+00 5.925660e+01 1.133014e+00 5.243722e+01 1.092430e+00 4.557510e+01 1.060266e+00 3.867983e+01 1.032799e+00 3.176292e+01 1.004448e+00 2.483592e+01 9.696739e-01 1.790868e+01 9.246084e-01 1.098795e+01 8.681652e-01 4.076649e+00 8.024825e-01 -2.825928e+00 7.323847e-01 -9.723144e+00 6.646523e-01 -1.661995e+01 6.069184e-01 -2.352118e+01 5.657762e-01 -3.042933e+01 5.450868e-01 -3.734344e+01 5.457933e-01 -4.425989e+01 5.670573e-01 -5.117416e+01 6.075678e-01 -5.808258e+01 6.662281e-01 -6.498352e+01 7.415765e-01 -7.187731e+01 8.299770e-01 -7.876570e+01 9.234067e-01 -8.565131e+01 1.007082e+00 -9.253732e+01 
3.334794e-01 -1.015097e+02 2.293286e-01 -1.087142e+02 -2.575788e-02 1.079166e+02 4.077205e-01 1.008975e+02 6.763285e-01 9.399981e+01 8.275228e-01 8.715747e+01 9.041123e-01 8.032760e+01 9.371424e-01 7.348517e+01 9.478183e-01 6.661646e+01 9.501200e-01 5.971461e+01 9.523470e-01 5.277787e+01 9.576444e-01 4.580947e+01 9.641784e-01 3.881733e+01 9.658616e-01 3.181283e+01 9.542328e-01 2.480842e+01 9.211767e-01 1.781477e+01 8.615863e-01 1.083855e+01 7.752184e-01 3.881040e+00 6.672169e-01 -3.061903e+00 5.471249e-01 -9.998581e+00 4.269701e-01 -1.693941e+01 3.187980e-01 -2.389416e+01 2.320402e-01 -3.086917e+01 1.717314e-01 -3.786596e+01 1.384742e-01 -4.488194e+01 1.298936e-01 -5.191261e+01 1.424605e-01 -5.895400e+01 1.726213e-01 -6.600442e+01 2.165469e-01 -7.306491e+01 2.685186e-01 -8.013900e+01 3.185195e-01 -8.723223e+01 3.493710e-01 -9.435225e+01 
2.829475e-01 -1.019691e+02 2.487774e-02 -1.094027e+02 -4.109058e-01 1.092558e+02 1.290406e-01 1.019736e+02 4.873045e-01 9.485420e+01 7.117218e-01 8.783254e+01 8.452874e-01 8.086193e+01 9.199408e-01 7.391189e+01 9.578995e-01 6.696411e+01 9.741192e-01 6.000856e+01 9.782865e-01 5.304083e+01 9.760540e-01 4.606064e+01 9.697852e-01 3.907068e+01 9.592708e-01 3.207554e+01 9.427371e-01 2.508032e+01 9.180511e-01 1.808940e+01 8.838053e-01 1.110547e+01 8.400762e-01 4.128940e+00 7.887266e-01 -2.842010e+00 7.331895e-01 -9.810996e+00 6.779446e-01 -1.678269e+01 6.277185e-01 -2.376184e+01 5.864401e-01 -3.075221e+01 5.563651e-01 -3.775614e+01 5.378247e-01 -4.477493e+01 5.295421e-01 -5.180981e+01 5.290514e-01 -5.886310e+01 5.327642e-01 -6.593898e+01 5.353609e-01 -7.304393e+01 5.284902e-01 -8.018674e+01 4.990261e-01 -8.737863e+01 4.269857e-01 -9.463358e+01 
-4.258404e-01 -1.039266e+02 -7.663977e-01 -1.116347e+02 -1.305555e+00 1.112034e+02 -6.283276e-01 1.036165e+02 -1.482318e-01 9.622412e+01 1.816277e-01 8.896356e+01 4.048364e-01 8.178691e+01 5.552694e-01 7.466013e+01 6.576553e-01 6.756019e+01 7.291774e-01 6.047228e+01 7.809331e-01 5.338785e+01 8.189645e-01 4.630349e+01 8.450707e-01 3.921994e+01 8.577986e-01 3.214079e+01 8.538714e-01 2.507081e+01 8.299308e-01 1.801407e+01 7.841897e-01 1.097245e+01 7.175760e-01 3.944672e+00 6.340740e-01 -3.073766e+00 5.401931e-01 -1.009000e+01 4.437962e-01 -1.711253e+01 3.525747e-01 -2.414971e+01 2.725185e-01 -3.120828e+01 2.068709e-01 -3.829266e+01 1.559169e-01 -4.540538e+01 1.174815e-01 -5.254825e+01 8.762610e-02 -5.972381e+01 6.098101e-02 -6.693659e+01 3.033479e-02 -7.419382e+01 -1.458415e-02 -8.150572e+01 -8.895848e-02 -8.888590e+01 -2.152184e-01 -9.635192e+01 
-4.730070e-01 -1.043079e+02 -9.528267e-01 -1.122163e+02 -1.657299e+00 1.124942e+02 -8.792065e-01 1.046740e+02 -3.151766e-01 9.708034e+01 8.300943e-02 8.965216e+01 3.594721e-01 8.234041e+01 5.490662e-01 7.510811e+01 6.778143e-01 6.792894e+01 7.644363e-01 6.078492e+01 8.219646e-01 5.366441e+01 8.590506e-01 4.656041e+01 8.809627e-01 3.946930e+01 8.904530e-01 3.238964e+01 8.886421e-01 2.532111e+01 8.759088e-01 1.826343e+01 8.526680e-01 1.121564e+01 8.199175e-01 4.175586e+00 7.794797e-01 -2.860166e+00 7.339177e-01 -9.896210e+00 6.862001e-01 -1.693789e+01 6.391743e-01 -2.399081e+01 5.949394e-01 -3.106040e+01 5.543059e-01 -3.815172e+01 5.165126e-01 -4.526983e+01 4.791716e-01 -5.242039e+01 4.382305e-01 -5.961047e+01 3.877102e-01 -6.684924e+01 3.190397e-01 -7.414851e+01 2.199409e-01 -8.152317e+01 7.291487e-02 -8.899173e+01 -1.466690e-01 -9.657711e+01 
-1.154369e+00 -1.061214e+02 -1.712924e+00 -1.142706e+02 -2.515698e+00 1.143194e+02 -1.610506e+00 1.062297e+02 -9.340979e-01 9.839020e+01 -4.380857e-01 9.074243e+01 -7.759830e-02 8.323752e+01 1.835528e-01 7.583679e+01 3.730375e-01 6.851099e+01 5.111110e-01 6.123881e+01 6.118811e-01 5.400542e+01 6.844538e-01 4.680116e+01 7.339591e-01 3.962042e+01 7.625964e-01 3.246044e+01 7.708016e-01 2.531990e+01 7.584770e-01 1.819766e+01 7.260927e-01 1.109162e+01 6.754422e-01 3.998019e+00 6.098924e-01 -3.088754e+00 5.340996e-01 -1.017591e+01 4.533051e-01 -1.727159e+01 3.723968e-01 -2.438409e+01 2.949702e-01 -3.152109e+01 2.226368e-01 -3.868942e+01 1.547285e-01 -4.589531e+01 8.833059e-02 -5.314515e+01 1.839249e-02 -6.044649e+01 -6.238330e-02 -6.780898e+01 -1.640950e-01 -7.524516e+01 -3.007197e-01 -8.277116e+01 -4.916888e-01 -9.040744e+01 -7.639263e-01 -9.817989e+01 
-1.183929e+00 -1.063987e+02 -1.866060e+00 -1.147187e+02 -2.816525e+00 1.155058e+02 -1.819890e+00 1.072150e+02 -1.067951e+00 9.919918e+01 -5.105734e-01 9.140186e+01 -1.021200e-01 8.377410e+01 1.946461e-01 7.627574e+01 4.087605e-01 6.887526e+01 5.621374e-01 6.154874e+01 6.708721e-01 5.427849e+01 7.464591e-01 4.705165e+01 7.968322e-01 3.985907e+01 8.272631e-01 3.269413e+01 8.411774e-01 2.555184e+01 8.408912e-01 1.842792e+01 8.282235e-01 1.131814e+01 8.049287e-01 4.217892e+00 7.729097e-01 -2.878108e+00 7.342057e-01 -9.975795e+00 6.907910e-01 -1.708166e+01 6.442333e-01 -2.420257e+01 5.952825e-01 -3.134564e+01 5.434808e-01 -3.851830e+01 4.868613e-01 -4.572854e+01 4.217135e-01 -5.298551e+01 3.423113e-01 -6.030007e+01 2.404699e-01 -6.768551e+01 1.048249e-01 -7.515815e+01 -8.022351e-02 -8.273808e+01 -3.359233e-01 -9.044994e+01 -6.909879e-01 -9.832416e+01 
-1.826714e+00 -1.080551e+02 -2.580546e+00 -1.165824e+02 -3.620450e+00 1.171632e+02 -2.509267e+00 1.086394e+02 -1.656280e+00 1.004080e+02 -1.010686e+00 9.241516e+01 -5.260242e-01 8.461263e+01 -1.640335e-01 7.695965e+01 1.054586e-01 6.942303e+01 3.054325e-01 6.197660e+01 4.527872e-01 5.460033e+01 5.594537e-01 4.727922e+01 6.334458e-01 4.000230e+01 6.798715e-01 3.276155e+01 7.019302e-01 2.555080e+01 7.018604e-01 1.836465e+01 6.817422e-01 1.119766e+01 6.440439e-01 4.043741e+00 5.918316e-01 -3.104156e+00 5.286322e-01 -1.025398e+01 4.580125e-01 -1.741431e+01 3.829930e-01 -2.459405e+01 3.054351e-01 -3.180205e+01 2.255337e-01 -3.904714e+01 1.414833e-01 -4.633836e+01 4.927781e-02 -5.368555e+01 -5.748807e-02 -6.110011e+01 -1.879803e-01 -6.859581e+01 -3.547882e-01 -7.618966e+01 -5.749649e-01 -8.390276e+01 -8.714761e-01 -9.176137e+01 -1.275083e+00 -9.979834e+01 
-1.826133e+00 -1.082088e+02 -2.686842e+00 -1.168772e+02 -3.854992e+00 1.181988e+02 -2.664759e+00 1.095073e+02 -1.746867e+00 1.011276e+02 -1.048657e+00 9.300757e+01 -5.228093e-01 8.509933e+01 -1.300197e-01 7.736139e+01 1.611890e-01 6.975909e+01 3.753617e-01 6.226425e+01 5.312107e-01 5.485446e+01 6.427148e-01 4.751209e+01 7.201172e-01 4.022334e+01 7.708011e-01 3.297726e+01 8.000538e-01 2.576492e+01 8.117202e-01 1.857861e+01 8.087281e-01 1.141127e+01 7.934612e-01 4.255971e+00 7.679617e-01 -2.894368e+00 7.339639e-01 -1.004715e+01 6.927803e-01 -1.721017e+01 6.450756e-01 -2.439164e+01 5.905710e-01 -3.160029e+01 5.277283e-01 -3.884550e+01 4.534371e-01 -4.613766e+01 3.626904e-01 -5.348860e+01 2.481888e-01 -6.091224e+01 9.979504e-02 -6.842520e+01 -9.623328e-02 -7.604753e+01 -3.582904e-01 -8.380362e+01 -7.107977e-01 -9.172323e+01 -1.185977e+00 -9.984305e+01 
-2.420968e+00 -1.096995e+02 -3.343524e+00 -1.185420e+02 -4.588891e+00 1.196522e+02 -3.298776e+00 1.107647e+02 -2.292824e+00 1.022017e+02 -1.517564e+00 9.391326e+01 -9.248856e-01 8.585246e+01 -4.746713e-01 7.797780e+01 -1.346350e-01 7.025370e+01 1.205072e-01 6.265057e+01 3.100459e-01 5.514436e+01 4.483233e-01 4.771578e+01 5.457395e-01 4.034953e+01 6.096997e-01 3.303336e+01 6.454938e-01 2.575717e+01 6.570800e-01 1.851217e+01 6.477237e-01 1.129012e+01 6.204340e-01 4.082810e+00 5.781585e-01 -3.118275e+00 5.237369e-01 -1.032210e+01 4.596524e-01 -1.753804e+01 3.876526e-01 -2.477585e+01 3.083212e-01 -3.204558e+01 2.206730e-01 -3.935771e+01 1.218047e-01 -4.672346e+01 6.574264e-03 -5.415528e+01 -1.327624e-01 -6.166753e+01 -3.070581e-01 -6.927725e+01 -5.310137e-01 -7.700507e+01 -8.242215e-01 -8.487615e+01 -1.212563e+00 -9.292155e+01 -1.730018e+00 -1.011799e+02 
-2.379439e+00 -1.097150e+02 -3.391316e+00 -1.186684e+02 -4.744069e+00 1.204986e+02 -3.389616e+00 1.114779e+02 -2.331213e+00 1.027967e+02 -1.513628e+00 9.440640e+01 -8.879111e-01 8.626061e+01 -4.129830e-01 7.831749e+01 -5.539498e-02 7.054050e+01 2.115050e-01 6.289857e+01 4.085549e-01 5.536580e+01 5.517789e-01 4.792087e+01 6.533214e-01 4.054626e+01 7.222799e-01 3.322752e+01 7.654256e-01 2.595249e+01 7.878064e-01 1.871066e+01 7.932255e-01 1.149254e+01 7.845836e-01 4.289197e+00 7.640807e-01 -2.908101e+00 7.332805e-01 -1.010815e+01 6.930520e-01 -1.732000e+01 6.434127e-01 -2.455315e+01 5.832979e-01 -3.181770e+01 5.102828e-01 -3.912466e+01 4.202637e-01 -4.648629e+01 3.070860e-01 -5.391654e+01 1.620823e-01 -6.143169e+01 -2.653438e-02 -6.905099e+01 -2.744729e-01 -7.679751e+01 -6.024205e-01 -8.469908e+01 -1.037411e+00 -9.278964e+01 -1.614582e+00 -1.011109e+02 
-2.918741e+00 -1.110347e+02 -3.980220e+00 -1.201293e+02 -5.395078e+00 1.217198e+02 -3.957163e+00 1.125404e+02 -2.825055e+00 1.037093e+02 -1.942790e+00 9.517967e+01 -1.260742e+00 8.690614e+01 -7.372037e-01 7.884706e+01 -3.381638e-01 7.096551e+01 -3.648431e-02 6.322958e+01 1.890520e-01 5.561227e+01 3.547212e-01 4.809105e+01 4.728062e-01 4.064728e+01 5.524789e-01 3.326542e+01 6.005950e-01 2.593232e+01 6.223807e-01 1.863649e+01 6.219786e-01 1.136744e+01 6.028273e-01 4.115190e+00 5.678534e-01 -3.130139e+00 5.194825e-01 -1.037854e+01 4.594934e-01 -1.764027e+01 3.887608e-01 -2.492595e+01 3.069333e-01 -3.224670e+01 2.120877e-01 -3.961433e+01 1.003739e-01 -4.704172e+01 -3.436709e-02 -5.454329e+01 -2.010567e-01 -6.213564e+01 -4.119701e-01 -6.983832e+01 -6.835286e-01 -7.767475e+01 -1.037358e+00 -8.567336e+01 -1.501674e+00 -9.386898e+01 -2.113058e+00 -1.023048e+02 
-2.827231e+00 -1.109009e+02 -3.959840e+00 -1.200760e+02 -5.460205e+00 1.223463e+02 -3.974454e+00 1.130689e+02 -2.803831e+00 1.041511e+02 -1.890828e+00 9.554706e+01 -1.185084e+00 8.721191e+01 -6.440744e-01 7.910383e+01 -2.328143e-01 7.118523e+01 7.696429e-02 6.342316e+01 3.077342e-01 5.578927e+01 4.771030e-01 4.825951e+01 5.986904e-01 4.081358e+01 6.829178e-01 3.343435e+01 7.376929e-01 2.610716e+01 7.689801e-01 1.881927e+01 7.812521e-01 1.155926e+01 7.778174e-01 4.316573e+00 7.610244e-01 -2.918904e+00 7.323462e-01 -1.015716e+01 6.923569e-01 -1.740835e+01 6.406159e-01 -2.468302e+01 5.754745e-01 -3.199243e+01 4.938177e-01 -3.934883e+01 3.907429e-01 -4.676590e+01 2.591629e-01 -5.425920e+01 8.930579e-02 -6.184679e+01 -1.319271e-01 -6.954992e+01 -4.217909e-01 -7.739393e+01 -8.027672e-01 -8.540935e+01 -1.303938e+00 -9.363334e+01 -1.962740e+00 -1.021116e+02 
-3.305220e+00 -1.120469e+02 -4.473198e+00 -1.213306e+02 -6.018147e+00 1.233144e+02 -4.466716e+00 1.139156e+02 -3.237799e+00 1.048819e+02 -2.273374e+00 9.616893e+01 -1.522576e+00 8.773251e+01 -9.424402e-01 7.953123e+01 -4.976389e-01 7.152737e+01 -1.596372e-01 6.368755e+01 9.422502e-02 5.598276e+01 2.816665e-01 4.838817e+01 4.163616e-01 4.088269e+01 5.087690e-01 3.344841e+01 5.668694e-01 2.606993e+01 5.967913e-01 1.873374e+01 6.033058e-01 1.142767e+01 5.901759e-01 4.140328e+00 5.603508e-01 -3.139266e+00 5.160121e-01 -1.042199e+01 4.584891e-01 -1.771889e+01 3.880718e-01 -2.504132e+01 3.037500e-01 -3.240127e+01 2.029022e-01 -3.981156e+01 8.093926e-02 -4.728628e+01 -6.910894e-02 -5.484126e+01 -2.570971e-01 -6.249470e+01 -4.964044e-01 -7.026800e+01 -8.047627e-01 -7.818665e+01 -1.205332e+00 -8.628147e+01 -1.728083e+00 -9.459013e+01 -2.411574e+00 -1.031592e+02 
-3.156516e+00 -1.117553e+02 -4.377055e+00 -1.210887e+02 -5.985013e+00 1.236972e+02 -4.403586e+00 1.142361e+02 -3.151239e+00 1.051482e+02 -2.168705e+00 9.638990e+01 -1.404548e+00 8.791718e+01 -8.151700e-01 7.968852e+01 -3.644825e-01 7.166580e+01 -2.307290e-02 6.381489e+01 2.326875e-01 5.610585e+01 4.215289e-01 4.851278e+01 5.581191e-01 4.101346e+01 6.538190e-01 3.358884e+01 7.173405e-01 2.622252e+01 7.552958e-01 1.890015e+01 7.726326e-01 1.160890e+01 7.729552e-01 4.337018e+00 7.587310e-01 -2.926661e+00 7.313882e-01 -1.019303e+01 6.913135e-01 -1.747305e+01 6.377595e-01 -2.477811e+01 5.686721e-01 -3.212028e+01 4.804437e-01 -3.951273e+01 3.675904e-01 -4.697012e+01 2.223415e-01 -5.450914e+01 3.411841e-02 -6.214909e+01 -2.111288e-01 -6.991263e+01 -5.317693e-01 -7.782671e+01 -9.515744e-01 -8.592378e+01 -1.501099e+00 -9.424326e+01 -2.219442e+00 -1.028336e+02 
-3.569234e+00 -1.127265e+02 -4.809312e+00 -1.221363e+02 -6.442399e+00 1.243981e+02 -4.814038e+00 1.148529e+02 -3.519542e+00 1.056835e+02 -2.499435e+00 9.684711e+01 -1.701982e+00 8.830061e+01 -1.083350e+00 8.000273e+01 -6.073186e-01 7.191538e+01 -2.444206e-01 6.400429e+01 2.896307e-02 5.623921e+01 2.315060e-01 4.859384e+01 3.777986e-01 4.104552e+01 4.791408e-01 3.357478e+01 5.442426e-01 2.616474e+01 5.798154e-01 1.880058e+01 5.910387e-01 1.146895e+01 5.818940e-01 4.157515e+00 5.553625e-01 -3.145474e+00 5.134909e-01 -1.045155e+01 4.573414e-01 -1.777230e+01 3.868427e-01 -2.511966e+01 3.005635e-01 -3.250619e+01 1.954195e-01 -3.994539e+01 6.631847e-02 -4.745215e+01 -9.426944e-02 -5.504322e+01 -2.968411e-01 -6.273786e+01 -5.555276e-01 -7.055864e+01 -8.889443e-01 -7.853243e+01 -1.321279e+00 -8.669162e+01 -1.883680e+00 -9.507580e+01 -2.616033e+00 -1.037338e+02 
-3.357975e+00 -1.122708e+02 -4.631951e+00 -1.216993e+02 -6.305323e+00 1.245201e+02 -4.665743e+00 1.149486e+02 -3.363736e+00 1.057584e+02 -2.338934e+00 9.690675e+01 -1.539228e+00 8.835060e+01 -9.203624e-01 8.004854e+01 -4.455819e-01 7.196218e+01 -8.478995e-02 6.405678e+01 1.863306e-01 5.630148e+01 3.871792e-01 4.866933e+01 5.330491e-01 4.113698e+01 6.358620e-01 3.368426e+01 7.048099e-01 2.629370e+01 7.468908e-01 1.894999e+01 7.673375e-01 1.163946e+01 7.699335e-01 4.349593e+00 7.572226e-01 -2.931393e+00 7.306138e-01 -1.021496e+01 6.903891e-01 -1.751261e+01 6.356242e-01 -2.483619e+01 5.640261e-01 -3.219831e+01 4.716917e-01 -3.961267e+01 3.527847e-01 -4.709454e+01 1.991186e-01 -5.466126e+01 -3.751321e-04 -6.233286e+01 -2.603223e-01 -7.013284e+01 -5.997644e-01 -7.808913e+01 -1.043250e+00 -8.623529e+01 -1.622222e+00 -9.461215e+01 -2.376783e+00 -1.032698e+02 
-3.703305e+00 -1.130680e+02 -4.979764e+00 -1.225408e+02 -6.657341e+00 1.249461e+02 -4.990144e+00 1.153276e+02 -3.662547e+00 1.060901e+02 -2.614326e+00 9.719174e+01 -1.793296e+00 8.858976e+01 -1.155184e+00 8.024306e+01 -6.633177e-01 7.211338e+01 -2.877627e-01 6.416605e+01 -4.422374e-03 5.637023e+01 2.058517e-01 4.869891e+01 3.581039e-01 4.112866e+01 4.640497e-01 3.363923e+01 5.327581e-01 2.621301e+01 5.712268e-01 1.883452e+01 5.848369e-01 1.148983e+01 5.776804e-01 4.166139e+00 5.527588e-01 -3.148727e+00 5.120592e-01 -1.046662e+01 4.565188e-01 -1.779944e+01 3.858938e-01 -2.515940e+01 2.985465e-01 -3.255936e+01 1.911624e-01 -4.001317e+01 5.839494e-02 -4.753610e+01 -1.075703e-01 -5.514536e+01 -3.175563e-01 -6.286073e+01 -5.860743e-01 -7.070537e+01 -9.321838e-01 -7.870682e+01 -1.380588e+00 -8.689828e+01 -1.963027e+00 -9.532024e+01 -2.720050e+00 -1.040227e+02 
-3.426002e+00 -1.124435e+02 -4.717905e+00 -1.219036e+02 -6.413223e+00 1.247963e+02 -4.754135e+00 1.151881e+02 -3.435470e+00 1.059636e+02 -2.396485e+00 9.708078e+01 -1.584844e+00 8.849668e+01 -9.560678e-01 8.016998e+01 -4.731789e-01 7.206222e+01 -1.058533e-01 6.413845e+01 1.704548e-01 5.636753e+01 3.753667e-01 4.872217e+01 5.243831e-01 4.117863e+01 6.296121e-01 3.371639e+01 7.004046e-01 2.631761e+01 7.438870e-01 1.896667e+01 7.653867e-01 1.164961e+01 7.687476e-01 4.353668e+00 7.565398e-01 -2.933163e+00 7.301665e-01 -1.022254e+01 6.898765e-01 -1.752612e+01 6.346872e-01 -2.485594e+01 5.622260e-01 -3.222476e+01 4.684915e-01 -3.964649e+01 3.475293e-01 -4.713657e+01 1.910136e-01 -5.471257e+01 -1.228786e-02 -6.239477e+01 -2.771931e-01 -7.020694e+01 -6.229674e-01 -7.817733e+01 -1.074418e+00 -8.633988e+01 -1.663285e+00 -9.473587e+01 -2.430007e+00 -1.034160e+02 
-3.703686e+00 -1.130685e+02 -4.980148e+00 -1.225413e+02 -6.657723e+00 1.249460e+02 -4.990528e+00 1.153274e+02 -3.662930e+00 1.060899e+02 -2.614706e+00 9.719159e+01 -1.793671e+00 8.858962e+01 -1.155552e+00 8.024291e+01 -6.636774e-01 7.211323e+01 -2.881125e-01 6.416589e+01 -4.760866e-03 5.637006e+01 2.055251e-01 4.869872e+01 3.577894e-01 4.112846e+01 4.637467e-01 3.363901e+01 5.324656e-01 2.621278e+01 5.709433e-01 1.883427e+01 5.845610e-01 1.148957e+01 5.774106e-01 4.165853e+00 5.524936e-01 -3.149032e+00 5.117972e-01 -1.046695e+01 4.562582e-01 -1.779979e+01 3.856323e-01 -2.515977e+01 2.982815e-01 -3.255975e+01 1.908907e-01 -4.001358e+01 5.811336e-02 -4.753653e+01 -1.078646e-01 -5.514581e+01 -3.178656e-01 -6.286119e+01 -5.863996e-01 -7.070584e+01 -9.325249e-01 -7.870730e+01 -1.380943e+00 -8.689877e+01 -1.963394e+00 -9.532074e+01 -2.720426e+00 -1.040232e+02 