# vtk DataFile Version 2.0
Comment goes here
ASCII

DATASET STRUCTURED_POINTS
FIELD FieldData 1
TIME 1 1 double
0.06600000
DIMENSIONS    64   64   1

ORIGIN    0.000   0.000   0.000
SPACING   0.03125 0.03125   1.000

POINT_DATA   4096
VECTORS u double

0.576662 0.000039 0.000000 -1.646577 -0.000131 0.000000 0.367622 0.000034 0.000000 -1.450735 0.000087 0.000000 -0.021815 -0.000235 0.000000 -1.262215 0.000062 0.000000 0.059148 0.000035 0.000000 -1.072357 -0.000067 0.000000 0.089180 0.000120 0.000000 -0.979161 -0.000102 0.000000 0.126372 0.000125 0.000000 -0.952357 -0.000057 0.000000 0.174809 0.000089 0.000000 -0.946500 0.000032 0.000000 0.197927 0.000081 0.000000 -0.910718 0.000177 0.000000 0.161151 -0.000290 0.000000 -0.815363 -0.000257 0.000000 0.056258 -0.000238 0.000000 -0.663002 0.000265 0.000000 -0.097194 -0.000155 0.000000 -0.480018 0.000199 0.000000 -0.273561 -0.000067 0.000000 -0.283600 0.000117 0.000000 -0.458587 -0.000074 0.000000 -0.085151 0.000099 0.000000 -0.643931 -0.000109 0.000000 0.111260 0.000149 0.000000 -0.826358 -0.000146 0.000000 0.304562 0.000131 0.000000 -1.006018 -0.000089 0.000000 0.492829 0.000033 0.000000 -1.172009 0.000010 0.000000 0.655562 -0.000048 0.000000 -1.299396 0.000079 0.000000 0.767836 -0.000106 0.000000 -1.368914 0.000166 0.000000 0.819144 -0.000230 0.000000 -1.382442 0.000268 0.000000 0.822529 -0.000265 0.000000 -1.361012 0.000216 0.000000 0.796181 -0.000180 0.000000 -1.317447 0.000160 0.000000 0.738217 -0.000170 0.000000 -1.234123 0.000177 0.000000 0.620191 -0.000164 0.000000 -1.082062 0.000151 0.000000 0.422940 -0.000117 0.000000 -0.857377 0.000030 0.000000 0.154888 0.000064 0.000000 -0.585343 -0.000123 0.000000 -0.149821 0.000120 0.000000 -0.302174 -0.000104 0.000000 -0.462556 0.000097 0.000000 -0.023950 -0.000087 0.000000 -0.776770 0.000079 0.000000 0.235863 -0.000095 0.000000 -1.069508 0.000093 0.000000 0.448875 -0.000075 0.000000 -1.318129 0.000058 0.000000 0.598076 -0.000031 0.000000 -1.517565 -0.000006 0.000000 0.678365 0.000049 0.000000 -1.661338 -0.000018 0.000000 
-0.316233 -0.007476 0.000000 0.362035 0.104473 0.000000 -0.197539 -0.097870 0.000000 0.277694 0.194641 0.000000 0.165916 -0.094112 0.000000 0.186423 -0.040469 0.000000 -0.105474 -0.094993 0.000000 0.044420 -0.014987 0.000000 -0.247659 -0.046631 0.000000 -0.017215 -0.018580 0.000000 -0.347028 -0.013471 0.000000 -0.031191 -0.024155 0.000000 -0.429132 -0.003049 0.000000 -0.028894 -0.011508 0.000000 -0.482639 -0.018052 0.000000 -0.042415 0.018393 0.000000 -0.494049 -0.047571 0.000000 -0.088015 0.052721 0.000000 -0.463091 -0.076099 0.000000 -0.164530 0.076625 0.000000 -0.402297 -0.091490 0.000000 -0.256579 0.088150 0.000000 -0.328094 -0.098273 0.000000 -0.355655 0.092544 0.000000 -0.247464 -0.099305 0.000000 -0.456309 0.092758 0.000000 -0.165117 -0.098335 0.000000 -0.556848 0.091336 0.000000 -0.083100 -0.096777 0.000000 -0.656702 0.089945 0.000000 -0.001130 -0.094227 0.000000 -0.756002 0.083035 0.000000 0.075280 -0.081364 0.000000 -0.842399 0.063653 0.000000 0.130306 -0.056073 0.000000 -0.900574 0.034680 0.000000 0.152601 -0.025579 0.000000 -0.923209 0.006693 0.000000 0.144679 -0.001615 0.000000 -0.919369 -0.010826 0.000000 0.120988 0.013320 0.000000 -0.901618 -0.021954 0.000000 0.092187 0.029145 0.000000 -0.870547 -0.041801 0.000000 0.049324 0.059137 0.000000 -0.809646 -0.076153 0.000000 -0.023288 0.098753 0.000000 -0.708778 -0.112462 0.000000 -0.126931 0.134136 0.000000 -0.572998 -0.136111 0.000000 -0.247074 0.152397 0.000000 -0.419402 -0.141569 0.000000 -0.364189 0.156306 0.000000 -0.261825 -0.139019 0.000000 -0.472615 0.157002 0.000000 -0.098920 -0.129799 0.000000 -0.566302 0.146264 0.000000 0.055414 -0.106436 0.000000 -0.624937 0.124261 0.000000 0.186610 -0.074568 0.000000 -0.634942 0.099695 0.000000 0.287294 -0.040128 0.000000 -0.582976 0.071874 0.000000 0.342212 0.050820 0.000000 
1.700238 -0.019785 0.000000 0.733971 -0.118826 0.000000 1.320437 0.084375 0.000000 0.637769 -0.363368 0.000000 1.024113 0.091036 0.000000 0.495860 0.271452 0.000000 1.722697 0.142038 0.000000 0.502072 0.142118 0.000000 2.127360 0.061756 0.000000 0.471236 0.099268 0.000000 2.373998 0.014101 0.000000 0.448012 0.082046 0.000000 2.527608 -0.002208 0.000000 0.427871 0.053539 0.000000 2.648099 0.013603 0.000000 0.384497 0.011587 0.000000 2.775740 0.045310 0.000000 0.304239 -0.031214 0.000000 2.927114 0.076277 0.000000 0.189836 -0.060530 0.000000 3.092152 0.091894 0.000000 0.061223 -0.074005 0.000000 3.258007 0.099010 0.000000 -0.067752 -0.080512 0.000000 3.416840 0.100580 0.000000 -0.189852 -0.082248 0.000000 3.567542 0.100430 0.000000 -0.306806 -0.081868 0.000000 3.710127 0.099709 0.000000 -0.417014 -0.081839 0.000000 3.847765 0.099211 0.000000 -0.521104 -0.076377 0.000000 3.974388 0.086407 0.000000 -0.603914 -0.055073 0.000000 4.070794 0.058253 0.000000 -0.648157 -0.022402 0.000000 4.122547 0.022801 0.000000 -0.648506 0.007693 0.000000 4.130820 -0.003571 0.000000 -0.619493 0.023426 0.000000 4.111961 -0.017535 0.000000 -0.578857 0.028621 0.000000 4.077010 -0.030912 0.000000 -0.527835 0.042694 0.000000 4.012485 -0.060724 0.000000 -0.445575 0.072448 0.000000 3.894503 -0.100716 0.000000 -0.318183 0.103526 0.000000 3.717230 -0.135750 0.000000 -0.150958 0.120207 0.000000 3.496698 -0.153719 0.000000 0.029206 0.117235 0.000000 3.255879 -0.157682 0.000000 0.206350 0.108523 0.000000 2.996156 -0.162991 0.000000 0.380505 0.093766 0.000000 2.719112 -0.154429 0.000000 0.537072 0.058728 0.000000 2.441171 -0.131271 0.000000 0.659169 0.010063 0.000000 2.162776 -0.100715 0.000000 0.754715 -0.051972 0.000000 1.862339 -0.054869 0.000000 0.810454 -0.266761 0.000000 
3.720223 0.069006 0.000000 0.112969 0.484274 0.000000 2.882664 -0.001667 0.000000 -0.088147 0.490965 0.000000 1.446974 0.047797 0.000000 -0.004723 -0.739053 0.000000 3.160167 -0.101206 0.000000 0.124356 -0.419650 0.000000 4.040174 -0.015794 0.000000 0.165182 -0.265217 0.000000 4.617004 0.009753 0.000000 0.170441 -0.177765 0.000000 5.044915 0.017092 0.000000 0.164464 -0.131999 0.000000 5.370472 0.025322 0.000000 0.166341 -0.109248 0.000000 5.613529 0.032686 0.000000 0.184061 -0.098654 0.000000 5.790357 0.038305 0.000000 0.215958 -0.088412 0.000000 5.919901 0.037123 0.000000 0.251898 -0.077706 0.000000 6.018433 0.030702 0.000000 0.288250 -0.066288 0.000000 6.093288 0.022795 0.000000 0.323059 -0.057944 0.000000 6.149542 0.018619 0.000000 0.356415 -0.051249 0.000000 6.190194 0.013431 0.000000 0.389794 -0.047692 0.000000 6.215005 0.009863 0.000000 0.426273 -0.043589 0.000000 6.226304 0.001446 0.000000 0.459997 -0.032753 0.000000 6.233046 -0.011830 0.000000 0.482583 -0.017073 0.000000 6.241036 -0.025229 0.000000 0.490376 -0.001580 0.000000 6.247653 -0.030629 0.000000 0.491057 0.008033 0.000000 6.243134 -0.027316 0.000000 0.494872 0.012997 0.000000 6.220010 -0.021877 0.000000 0.504331 0.022725 0.000000 6.183145 -0.023123 0.000000 0.509174 0.041828 0.000000 6.141101 -0.028639 0.000000 0.502161 0.064811 0.000000 6.092303 -0.033090 0.000000 0.484241 0.084421 0.000000 6.024984 -0.027767 0.000000 0.462794 0.099250 0.000000 5.923925 -0.020838 0.000000 0.442722 0.120704 0.000000 5.783123 -0.017152 0.000000 0.415930 0.147244 0.000000 5.594103 -0.010302 0.000000 0.385164 0.171505 0.000000 5.334092 0.002163 0.000000 0.351264 0.203827 0.000000 4.981111 0.004149 0.000000 0.307742 0.260308 0.000000 4.504184 0.016135 0.000000 0.249504 0.212922 0.000000 
3.847707 0.116750 0.000000 0.292967 0.718733 0.000000 3.145613 0.285491 0.000000 0.042528 1.072321 0.000000 2.005877 0.007612 0.000000 0.079196 -1.441741 0.000000 3.276457 0.012959 0.000000 0.053486 -0.737888 0.000000 4.103815 0.020930 0.000000 0.095557 -0.477562 0.000000 4.675355 0.008841 0.000000 0.135638 -0.345865 0.000000 5.097150 0.003769 0.000000 0.167822 -0.272018 0.000000 5.416307 0.011726 0.000000 0.198689 -0.231471 0.000000 5.659573 0.027590 0.000000 0.230071 -0.208043 0.000000 5.844503 0.044380 0.000000 0.262791 -0.190073 0.000000 5.987278 0.055953 0.000000 0.293586 -0.172536 0.000000 6.098678 0.062658 0.000000 0.319886 -0.155368 0.000000 6.186583 0.065770 0.000000 0.341461 -0.138502 0.000000 6.254493 0.067074 0.000000 0.362072 -0.122520 0.000000 6.305298 0.066329 0.000000 0.380828 -0.106650 0.000000 6.339391 0.062733 0.000000 0.399614 -0.087676 0.000000 6.358358 0.052682 0.000000 0.415509 -0.061816 0.000000 6.367353 0.035668 0.000000 0.425553 -0.030391 0.000000 6.369714 0.015008 0.000000 0.429494 0.001076 0.000000 6.365307 -0.004252 0.000000 0.432120 0.027944 0.000000 6.349632 -0.021350 0.000000 0.438355 0.051745 0.000000 6.318098 -0.040371 0.000000 0.448814 0.079558 0.000000 6.271544 -0.065567 0.000000 0.458377 0.114492 0.000000 6.213051 -0.093703 0.000000 0.463965 0.152324 0.000000 6.141045 -0.117830 0.000000 0.465397 0.187526 0.000000 6.048184 -0.132272 0.000000 0.468794 0.218294 0.000000 5.924030 -0.137610 0.000000 0.473089 0.249324 0.000000 5.764518 -0.136200 0.000000 0.473791 0.282787 0.000000 5.561143 -0.123663 0.000000 0.470317 0.318738 0.000000 5.295169 -0.097371 0.000000 0.462409 0.363044 0.000000 4.949390 -0.057193 0.000000 0.431433 0.424954 0.000000 4.514228 0.003369 0.000000 0.368300 0.517201 0.000000 
4.121635 0.144339 0.000000 0.142779 1.186369 0.000000 3.437180 0.248772 0.000000 0.080749 1.630701 0.000000 2.524695 0.011129 0.000000 0.073118 -2.009633 0.000000 3.430595 -0.075496 0.000000 0.090757 -1.247008 0.000000 4.217604 -0.057865 0.000000 0.128198 -0.836756 0.000000 4.782475 -0.030328 0.000000 0.152801 -0.599561 0.000000 5.195706 -0.015091 0.000000 0.169874 -0.451156 0.000000 5.505725 -0.005546 0.000000 0.188395 -0.352513 0.000000 5.739230 0.001305 0.000000 0.212675 -0.283585 0.000000 5.914287 0.005584 0.000000 0.242701 -0.231187 0.000000 6.045777 0.006328 0.000000 0.275079 -0.189105 0.000000 6.145262 0.004403 0.000000 0.307571 -0.154193 0.000000 6.220185 0.001219 0.000000 0.339146 -0.125854 0.000000 6.275498 -0.001991 0.000000 0.370208 -0.102054 0.000000 6.313893 -0.005325 0.000000 0.401003 -0.081785 0.000000 6.337060 -0.008923 0.000000 0.431468 -0.062555 0.000000 6.347677 -0.014450 0.000000 0.459122 -0.041749 0.000000 6.350392 -0.021875 0.000000 0.481250 -0.019433 0.000000 6.348701 -0.029169 0.000000 0.497230 0.002826 0.000000 6.342285 -0.033255 0.000000 0.509473 0.023708 0.000000 6.327421 -0.033551 0.000000 0.520392 0.044532 0.000000 6.300792 -0.032336 0.000000 0.529236 0.069278 0.000000 6.263091 -0.032685 0.000000 0.531841 0.100322 0.000000 6.216233 -0.034227 0.000000 0.525524 0.136817 0.000000 6.158401 -0.034522 0.000000 0.511001 0.177283 0.000000 6.083118 -0.031164 0.000000 0.491439 0.223403 0.000000 5.981223 -0.025134 0.000000 0.468074 0.280216 0.000000 5.844730 -0.017853 0.000000 0.438854 0.350619 0.000000 5.663584 -0.006828 0.000000 0.403292 0.437479 0.000000 5.422391 0.010071 0.000000 0.360180 0.549607 0.000000 5.102497 0.035125 0.000000 0.303682 0.695470 0.000000 4.680394 0.079268 0.000000 0.225993 0.879442 0.000000 
4.323267 0.199964 0.000000 0.272330 1.403189 0.000000 3.773400 0.347521 0.000000 0.202166 1.984806 0.000000 3.041139 0.015243 0.000000 0.194284 -2.347641 0.000000 3.678588 -0.004679 0.000000 0.140273 -1.524897 0.000000 4.306821 -0.016512 0.000000 0.139006 -1.042433 0.000000 4.808496 -0.015762 0.000000 0.160759 -0.759096 0.000000 5.192601 -0.013304 0.000000 0.187249 -0.582037 0.000000 5.487275 -0.006795 0.000000 0.214726 -0.464976 0.000000 5.714565 0.003311 0.000000 0.242706 -0.383100 0.000000 5.890083 0.014353 0.000000 0.270622 -0.321563 0.000000 6.026397 0.023575 0.000000 0.297019 -0.272022 0.000000 6.132768 0.030167 0.000000 0.320887 -0.230291 0.000000 6.215869 0.034195 0.000000 0.342086 -0.193815 0.000000 6.279630 0.036012 0.000000 0.361223 -0.160916 0.000000 6.327100 0.035535 0.000000 0.378640 -0.129817 0.000000 6.360072 0.032267 0.000000 0.394662 -0.098293 0.000000 6.380527 0.025029 0.000000 0.408384 -0.064531 0.000000 6.391127 0.013540 0.000000 0.418791 -0.028700 0.000000 6.393606 -0.000972 0.000000 0.425959 0.007492 0.000000 6.387931 -0.016496 0.000000 0.431784 0.042808 0.000000 6.372328 -0.032268 0.000000 0.438328 0.078374 0.000000 6.344865 -0.049215 0.000000 0.446051 0.117259 0.000000 6.305132 -0.068172 0.000000 0.453312 0.161351 0.000000 6.253087 -0.087386 0.000000 0.458685 0.210157 0.000000 6.186699 -0.103306 0.000000 0.462081 0.262809 0.000000 6.101199 -0.112710 0.000000 0.464608 0.320189 0.000000 5.990639 -0.114245 0.000000 0.465861 0.385818 0.000000 5.849605 -0.106980 0.000000 0.463418 0.463932 0.000000 5.670635 -0.088100 0.000000 0.455084 0.559931 0.000000 5.442819 -0.054258 0.000000 0.437335 0.682938 0.000000 5.154678 -0.000695 0.000000 0.403741 0.847057 0.000000 4.791239 0.081058 0.000000 0.351302 1.075960 0.000000 
4.614299 0.223311 0.000000 0.210571 1.736236 0.000000 4.126795 0.318935 0.000000 0.205774 2.362961 0.000000 3.521044 0.019012 0.000000 0.197989 -2.647081 0.000000 3.976191 -0.021486 0.000000 0.165833 -1.875242 0.000000 4.497180 -0.056598 0.000000 0.164106 -1.338431 0.000000 4.952035 -0.052081 0.000000 0.176818 -0.983666 0.000000 5.311336 -0.041581 0.000000 0.193408 -0.745829 0.000000 5.588799 -0.033023 0.000000 0.212732 -0.579804 0.000000 5.801688 -0.026675 0.000000 0.235443 -0.459103 0.000000 5.964195 -0.022332 0.000000 0.261291 -0.367501 0.000000 6.087866 -0.020070 0.000000 0.288884 -0.295476 0.000000 6.181748 -0.019465 0.000000 0.316936 -0.237294 0.000000 6.252371 -0.019979 0.000000 0.344641 -0.189614 0.000000 6.304393 -0.021128 0.000000 0.371699 -0.149525 0.000000 6.341028 -0.022743 0.000000 0.397922 -0.114757 0.000000 6.364743 -0.024945 0.000000 0.422963 -0.083011 0.000000 6.378043 -0.028172 0.000000 0.445755 -0.052349 0.000000 6.383618 -0.032281 0.000000 0.465054 -0.021912 0.000000 6.383311 -0.036337 0.000000 0.480313 0.008501 0.000000 6.377214 -0.039080 0.000000 0.492080 0.039310 0.000000 6.363918 -0.040095 0.000000 0.501030 0.071995 0.000000 6.341917 -0.040059 0.000000 0.506740 0.109011 0.000000 6.310762 -0.039946 0.000000 0.507601 0.152368 0.000000 6.270107 -0.039600 0.000000 0.502398 0.203204 0.000000 6.217923 -0.037918 0.000000 0.491250 0.262783 0.000000 6.149970 -0.033691 0.000000 0.475207 0.333963 0.000000 6.060432 -0.026387 0.000000 0.454772 0.421250 0.000000 5.942950 -0.015410 0.000000 0.429408 0.529589 0.000000 5.789889 0.001506 0.000000 0.398529 0.665296 0.000000 5.591604 0.027820 0.000000 0.361099 0.837748 0.000000 5.337080 0.068720 0.000000 0.315709 1.058909 0.000000 5.014534 0.131707 0.000000 0.263312 1.347413 0.000000 
4.858921 0.252705 0.000000 0.305523 1.890692 0.000000 4.478224 0.352318 0.000000 0.295439 2.590557 0.000000 3.996293 0.023029 0.000000 0.287849 -2.802788 0.000000 4.307281 0.027476 0.000000 0.235955 -2.045886 0.000000 4.685698 -0.014784 0.000000 0.207838 -1.497287 0.000000 5.052775 -0.028474 0.000000 0.207386 -1.118397 0.000000 5.363669 -0.029895 0.000000 0.221087 -0.859500 0.000000 5.614027 -0.026118 0.000000 0.240830 -0.677866 0.000000 5.812217 -0.019400 0.000000 0.263003 -0.545607 0.000000 5.968005 -0.011495 0.000000 0.285778 -0.445234 0.000000 6.090213 -0.004017 0.000000 0.307850 -0.365904 0.000000 6.185935 0.002114 0.000000 0.328434 -0.300914 0.000000 6.260563 0.006490 0.000000 0.347209 -0.245836 0.000000 6.317827 0.008954 0.000000 0.364198 -0.197550 0.000000 6.360548 0.009311 0.000000 0.379533 -0.153533 0.000000 6.390804 0.007226 0.000000 0.393270 -0.111592 0.000000 6.410424 0.002236 0.000000 0.405114 -0.070107 0.000000 6.421115 -0.005759 0.000000 0.414753 -0.028393 0.000000 6.423962 -0.016231 0.000000 0.422328 0.013590 0.000000 6.419102 -0.028262 0.000000 0.428635 0.056105 0.000000 6.405840 -0.041218 0.000000 0.434568 0.100375 0.000000 6.383250 -0.054925 0.000000 0.440416 0.148413 0.000000 6.350708 -0.069033 0.000000 0.445648 0.202006 0.000000 6.307442 -0.082182 0.000000 0.449615 0.262340 0.000000 6.251699 -0.092159 0.000000 0.452022 0.330762 0.000000 6.180461 -0.096666 0.000000 0.452784 0.409726 0.000000 6.089994 -0.093811 0.000000 0.451267 0.503300 0.000000 5.976293 -0.081616 0.000000 0.445929 0.616993 0.000000 5.834460 -0.057221 0.000000 0.434923 0.758217 0.000000 5.658488 -0.016829 0.000000 0.416086 0.937462 0.000000 5.441973 0.044695 0.000000 0.387455 1.169604 0.000000 5.177673 0.133454 0.000000 0.349017 1.476195 0.000000 
5.147219 0.266806 0.000000 0.270731 2.116934 0.000000 4.827457 0.329019 0.000000 0.292879 2.844892 0.000000 4.437644 0.026602 0.000000 0.285870 -2.958069 0.000000 4.645700 0.030408 0.000000 0.247733 -2.253659 0.000000 4.932424 -0.028481 0.000000 0.225361 -1.705508 0.000000 5.237225 -0.051629 0.000000 0.222265 -1.294560 0.000000 5.509016 -0.055281 0.000000 0.230386 -0.996188 0.000000 5.732983 -0.052766 0.000000 0.244795 -0.777994 0.000000 5.911214 -0.048849 0.000000 0.263247 -0.614890 0.000000 6.050502 -0.045107 0.000000 0.284441 -0.489709 0.000000 6.158129 -0.042141 0.000000 0.307208 -0.391198 0.000000 6.240495 -0.040050 0.000000 0.330571 -0.311922 0.000000 6.302710 -0.038754 0.000000 0.353820 -0.246878 0.000000 6.348720 -0.038117 0.000000 0.376504 -0.192247 0.000000 6.381527 -0.038078 0.000000 0.398286 -0.145013 0.000000 6.403532 -0.038682 0.000000 0.418780 -0.102631 0.000000 6.416843 -0.040015 0.000000 0.437377 -0.063040 0.000000 6.423302 -0.041920 0.000000 0.453399 -0.024759 0.000000 6.424117 -0.043912 0.000000 0.466409 0.013361 0.000000 6.419568 -0.045388 0.000000 0.476363 0.052572 0.000000 6.409153 -0.046028 0.000000 0.483295 0.094585 0.000000 6.392122 -0.045907 0.000000 0.486884 0.141552 0.000000 6.367870 -0.045178 0.000000 0.486428 0.195634 0.000000 6.335590 -0.043567 0.000000 0.481364 0.258947 0.000000 6.293633 -0.040324 0.000000 0.471653 0.334022 0.000000 6.239251 -0.034453 0.000000 0.457642 0.424430 0.000000 6.168817 -0.024869 0.000000 0.439576 0.534950 0.000000 6.078168 -0.010072 0.000000 0.417396 0.671422 0.000000 5.962568 0.012511 0.000000 0.391018 0.841267 0.000000 5.816693 0.046657 0.000000 0.360555 1.054263 0.000000 5.635080 0.097350 0.000000 0.327036 1.323209 0.000000 5.412910 0.170145 0.000000 0.293809 1.666165 0.000000 
5.400433 0.275783 0.000000 0.342785 2.210454 0.000000 5.164944 0.330170 0.000000 0.364081 2.980371 0.000000 4.872681 0.030038 0.000000 0.357645 -3.010845 0.000000 4.988903 0.065613 0.000000 0.314578 -2.332610 0.000000 5.172274 0.007588 0.000000 0.279510 -1.802089 0.000000 5.393423 -0.025377 0.000000 0.265007 -1.390187 0.000000 5.608648 -0.038016 0.000000 0.266128 -1.083467 0.000000 5.796721 -0.040528 0.000000 0.276348 -0.856097 0.000000 5.952869 -0.037852 0.000000 0.291187 -0.684895 0.000000 6.079233 -0.032689 0.000000 0.307979 -0.552861 0.000000 6.180103 -0.026784 0.000000 0.325100 -0.448269 0.000000 6.259869 -0.021249 0.000000 0.341607 -0.363129 0.000000 6.322313 -0.016759 0.000000 0.356997 -0.291846 0.000000 6.370387 -0.013730 0.000000 0.371065 -0.230357 0.000000 6.406418 -0.012471 0.000000 0.383755 -0.175537 0.000000 6.432240 -0.013268 0.000000 0.395026 -0.124904 0.000000 6.449373 -0.016361 0.000000 0.404763 -0.076565 0.000000 6.459055 -0.021780 0.000000 0.412882 -0.029207 0.000000 6.462081 -0.029241 0.000000 0.419496 0.018138 0.000000 6.458703 -0.038216 0.000000 0.424964 0.066520 0.000000 6.448709 -0.048151 0.000000 0.429680 0.117405 0.000000 6.431669 -0.058514 0.000000 0.433794 0.172666 0.000000 6.407114 -0.068577 0.000000 0.437104 0.234286 0.000000 6.374369 -0.077118 0.000000 0.439263 0.304298 0.000000 6.332272 -0.082448 0.000000 0.439949 0.385144 0.000000 6.279087 -0.082656 0.000000 0.438817 0.480160 0.000000 6.212723 -0.075745 0.000000 0.435274 0.593948 0.000000 6.130918 -0.059436 0.000000 0.428402 0.732593 0.000000 6.031156 -0.030843 0.000000 0.417252 0.904091 0.000000 5.910715 0.013635 0.000000 0.401229 1.119075 0.000000 5.766949 0.078214 0.000000 0.380749 1.391773 0.000000 5.597489 0.166682 0.000000 0.358304 1.741886 0.000000 
5.674204 0.282326 0.000000 0.320022 2.352423 0.000000 5.492357 0.307722 0.000000 0.357449 3.137155 0.000000 5.275760 0.033038 0.000000 0.351800 -3.074291 0.000000 5.324237 0.073475 0.000000 0.318024 -2.437030 0.000000 5.440222 0.006587 0.000000 0.289946 -1.926657 0.000000 5.603487 -0.037125 0.000000 0.277179 -1.509785 0.000000 5.775064 -0.056402 0.000000 0.276544 -1.184261 0.000000 5.931099 -0.062986 0.000000 0.283966 -0.934142 0.000000 6.062892 -0.063688 0.000000 0.296489 -0.741254 0.000000 6.169749 -0.061898 0.000000 0.312179 -0.590579 0.000000 6.254217 -0.059262 0.000000 0.329684 -0.470964 0.000000 6.319730 -0.056557 0.000000 0.348024 -0.374366 0.000000 6.369599 -0.054144 0.000000 0.366493 -0.294952 0.000000 6.406689 -0.052185 0.000000 0.384587 -0.228277 0.000000 6.433373 -0.050768 0.000000 0.401915 -0.170835 0.000000 6.451617 -0.049953 0.000000 0.418100 -0.119764 0.000000 6.463083 -0.049753 0.000000 0.432702 -0.072722 0.000000 6.469115 -0.050039 0.000000 0.445269 -0.027785 0.000000 6.470610 -0.050526 0.000000 0.455437 0.016739 0.000000 6.467924 -0.050855 0.000000 0.462989 0.062566 0.000000 6.460954 -0.050745 0.000000 0.467756 0.111625 0.000000 6.449362 -0.050020 0.000000 0.469473 0.166108 0.000000 6.432715 -0.048488 0.000000 0.467780 0.228379 0.000000 6.410381 -0.045727 0.000000 0.462405 0.301044 0.000000 6.381298 -0.041010 0.000000 0.453313 0.387207 0.000000 6.343895 -0.033320 0.000000 0.440678 0.490795 0.000000 6.296189 -0.021327 0.000000 0.424739 0.616755 0.000000 6.235966 -0.003200 0.000000 0.405779 0.771185 0.000000 6.160902 0.023661 0.000000 0.384307 0.961708 0.000000 6.068721 0.062681 0.000000 0.361401 1.198029 0.000000 5.957508 0.117830 0.000000 0.339288 1.492670 0.000000 5.826186 0.192589 0.000000 0.322159 1.863221 0.000000 
5.919650 0.277920 0.000000 0.376695 2.392302 0.000000 5.806258 0.292743 0.000000 0.414134 3.196967 0.000000 5.671247 0.035687 0.000000 0.409286 -3.059321 0.000000 5.653709 0.099389 0.000000 0.375967 -2.448594 0.000000 5.695843 0.035665 0.000000 0.343125 -1.965354 0.000000 5.790277 -0.012610 0.000000 0.323282 -1.561764 0.000000 5.907538 -0.037381 0.000000 0.316025 -1.239502 0.000000 6.024584 -0.047950 0.000000 0.317882 -0.987889 0.000000 6.129796 -0.050376 0.000000 0.325344 -0.791752 0.000000 6.219217 -0.048379 0.000000 0.335798 -0.637329 0.000000 6.292794 -0.044289 0.000000 0.347505 -0.513782 0.000000 6.352054 -0.039589 0.000000 0.359379 -0.412998 0.000000 6.398939 -0.035228 0.000000 0.370780 -0.328937 0.000000 6.435287 -0.031824 0.000000 0.381359 -0.257041 0.000000 6.462700 -0.029799 0.000000 0.390936 -0.193782 0.000000 6.482531 -0.029452 0.000000 0.399406 -0.136370 0.000000 6.495911 -0.030963 0.000000 0.406687 -0.082598 0.000000 6.503741 -0.034347 0.000000 0.412745 -0.030702 0.000000 6.506633 -0.039409 0.000000 0.417639 0.020825 0.000000 6.504887 -0.045769 0.000000 0.421532 0.073489 0.000000 6.498540 -0.052917 0.000000 0.424591 0.128998 0.000000 6.487472 -0.060231 0.000000 0.426877 0.189313 0.000000 6.471487 -0.066884 0.000000 0.428285 0.256620 0.000000 6.450262 -0.071743 0.000000 0.428608 0.333381 0.000000 6.423273 -0.073356 0.000000 0.427593 0.422547 0.000000 6.389794 -0.070020 0.000000 0.424952 0.527867 0.000000 6.349021 -0.059807 0.000000 0.420332 0.654171 0.000000 6.300186 -0.040476 0.000000 0.413378 0.807656 0.000000 6.242612 -0.009371 0.000000 0.403980 0.996273 0.000000 6.175803 0.036540 0.000000 0.392659 1.230288 0.000000 6.099593 0.100327 0.000000 0.381052 1.523095 0.000000 6.014267 0.183811 0.000000 0.372649 1.893868 0.000000 
6.172593 0.278279 0.000000 0.360167 2.465815 0.000000 6.106235 0.270284 0.000000 0.404788 3.272167 0.000000 6.036252 0.037886 0.000000 0.400859 -3.056753 0.000000 5.969609 0.106794 0.000000 0.375033 -2.479164 0.000000 5.962099 0.039429 0.000000 0.348729 -2.021091 0.000000 6.008682 -0.017283 0.000000 0.332512 -1.627046 0.000000 6.084889 -0.049145 0.000000 0.326061 -1.301307 0.000000 6.168837 -0.064844 0.000000 0.327190 -1.039354 0.000000 6.247707 -0.071150 0.000000 0.333618 -0.830675 0.000000 6.315842 -0.072352 0.000000 0.343508 -0.664156 0.000000 6.371795 -0.070969 0.000000 0.355501 -0.530224 0.000000 6.416157 -0.068431 0.000000 0.368609 -0.421251 0.000000 6.450321 -0.065545 0.000000 0.382119 -0.331300 0.000000 6.475876 -0.062764 0.000000 0.395506 -0.255690 0.000000 6.494342 -0.060345 0.000000 0.408357 -0.190666 0.000000 6.507078 -0.058423 0.000000 0.420304 -0.133144 0.000000 6.515263 -0.057034 0.000000 0.430984 -0.080551 0.000000 6.519850 -0.056097 0.000000 0.440037 -0.030677 0.000000 6.521511 -0.055421 0.000000 0.447151 0.018485 0.000000 6.520608 -0.054748 0.000000 0.452075 0.068914 0.000000 6.517236 -0.053804 0.000000 0.454596 0.122693 0.000000 6.511327 -0.052306 0.000000 0.454501 0.182093 0.000000 6.502714 -0.049897 0.000000 0.451587 0.249604 0.000000 6.491121 -0.046050 0.000000 0.445733 0.328034 0.000000 6.476098 -0.039995 0.000000 0.436971 0.420685 0.000000 6.457018 -0.030679 0.000000 0.425502 0.531568 0.000000 6.433162 -0.016707 0.000000 0.411689 0.665590 0.000000 6.403846 0.003754 0.000000 0.396110 0.828758 0.000000 6.368559 0.033059 0.000000 0.379736 1.028518 0.000000 6.327126 0.074002 0.000000 0.364203 1.274239 0.000000 6.279932 0.129437 0.000000 0.352151 1.577996 0.000000 6.228125 0.200993 0.000000 0.347754 1.957838 0.000000 
6.401813 0.265507 0.000000 0.405564 2.458659 0.000000 6.392637 0.248122 0.000000 0.449536 3.266951 0.000000 6.392647 0.039615 0.000000 0.446532 -2.992679 0.000000 6.275431 0.125215 0.000000 0.423431 -2.441085 0.000000 6.213533 0.061969 0.000000 0.396519 -2.011936 0.000000 6.206027 0.003607 0.000000 0.376790 -1.637972 0.000000 6.235015 -0.030930 0.000000 0.365526 -1.323451 0.000000 6.281530 -0.049078 0.000000 0.361510 -1.066759 0.000000 6.332543 -0.056804 0.000000 0.362717 -0.859888 0.000000 6.380832 -0.058269 0.000000 0.367213 -0.693281 0.000000 6.423172 -0.056281 0.000000 0.373497 -0.558143 0.000000 6.458607 -0.052697 0.000000 0.380527 -0.447162 0.000000 6.487292 -0.048738 0.000000 0.387624 -0.354492 0.000000 6.509842 -0.045211 0.000000 0.394370 -0.275506 0.000000 6.527013 -0.042650 0.000000 0.400512 -0.206519 0.000000 6.539561 -0.041400 0.000000 0.405899 -0.144555 0.000000 6.548179 -0.041642 0.000000 0.410432 -0.087184 0.000000 6.553453 -0.043400 0.000000 0.414067 -0.032363 0.000000 6.555825 -0.046523 0.000000 0.416816 0.021728 0.000000 6.555588 -0.050692 0.000000 0.418736 0.076861 0.000000 6.552911 -0.055439 0.000000 0.419889 0.134907 0.000000 6.547896 -0.060137 0.000000 0.420291 0.197925 0.000000 6.540624 -0.063970 0.000000 0.419880 0.268213 0.000000 6.531157 -0.065889 0.000000 0.418541 0.348404 0.000000 6.519542 -0.064594 0.000000 0.416139 0.441627 0.000000 6.505851 -0.058552 0.000000 0.412551 0.551723 0.000000 6.490265 -0.045994 0.000000 0.407714 0.683487 0.000000 6.473172 -0.024897 0.000000 0.401738 0.842944 0.000000 6.455245 0.007003 0.000000 0.395111 1.037705 0.000000 6.437528 0.052074 0.000000 0.388986 1.277482 0.000000 6.421534 0.112379 0.000000 0.385468 1.574902 0.000000 6.409248 0.188207 0.000000 0.388155 1.949400 0.000000 
6.630685 0.260870 0.000000 0.392525 2.474990 0.000000 6.663013 0.226312 0.000000 0.438444 3.272157 0.000000 6.719717 0.040889 0.000000 0.436423 -2.939537 0.000000 6.564873 0.129895 0.000000 0.419989 -2.417267 0.000000 6.465439 0.066341 0.000000 0.399130 -2.013585 0.000000 6.419698 0.002447 0.000000 0.383584 -1.656034 0.000000 6.413101 -0.037881 0.000000 0.374475 -1.347823 0.000000 6.428672 -0.060828 0.000000 0.371132 -1.090367 0.000000 6.453720 -0.072358 0.000000 0.372332 -0.878965 0.000000 6.480451 -0.076848 0.000000 0.376794 -0.706496 0.000000 6.504833 -0.077254 0.000000 0.383420 -0.565658 0.000000 6.525212 -0.075461 0.000000 0.391343 -0.449937 0.000000 6.541251 -0.072642 0.000000 0.399905 -0.353850 0.000000 6.553266 -0.069509 0.000000 0.408598 -0.272861 0.000000 6.561859 -0.066487 0.000000 0.417016 -0.203214 0.000000 6.567716 -0.063810 0.000000 0.424806 -0.141762 0.000000 6.571509 -0.061568 0.000000 0.431644 -0.085825 0.000000 6.573827 -0.059732 0.000000 0.437220 -0.033050 0.000000 6.575132 -0.058169 0.000000 0.441258 0.018722 0.000000 6.575738 -0.056668 0.000000 0.443521 0.071591 0.000000 6.575838 -0.054958 0.000000 0.443812 0.127708 0.000000 6.575555 -0.052707 0.000000 0.441968 0.189365 0.000000 6.574983 -0.049486 0.000000 0.437881 0.259071 0.000000 6.574213 -0.044711 0.000000 0.431536 0.339648 0.000000 6.573333 -0.037593 0.000000 0.423055 0.434376 0.000000 6.572467 -0.027091 0.000000 0.412734 0.547154 0.000000 6.571855 -0.011870 0.000000 0.401083 0.682682 0.000000 6.571961 0.009731 0.000000 0.388908 0.846685 0.000000 6.573598 0.039685 0.000000 0.377450 1.046235 0.000000 6.578076 0.080127 0.000000 0.368562 1.290232 0.000000 6.587368 0.132956 0.000000 0.364876 1.590282 0.000000 6.604181 0.198305 0.000000 0.370208 1.965274 0.000000 