# vtk DataFile Version 2.0
Comment goes here
ASCII

DATASET STRUCTURED_POINTS
FIELD FieldData 1
TIME 1 1 double
0.09400000
DIMENSIONS    64   64   1

ORIGIN    0.000   0.000   0.000
SPACING   0.03125 0.03125   1.000

POINT_DATA   4096
SCALARS uX double
LOOKUP_TABLE default

6.116410e-01 -2.172392e+00 3.372577e-01 -2.141605e+00 6.910030e-02 -2.049124e+00 3.263940e-01 -1.730756e+00 3.516458e-01 -1.488124e+00 2.711525e-01 -1.285515e+00 1.445019e-01 -1.101189e+00 -4.945526e-03 -9.204156e-01 -1.718592e-01 -7.350610e-01 -3.513525e-01 -5.447638e-01 -5.335180e-01 -3.550045e-01 -7.130123e-01 -1.675561e-01 -8.836163e-01 8.068760e-03 -1.035137e+00 1.667788e-01 -1.168750e+00 3.102621e-01 -1.279791e+00 4.269423e-01 -1.355222e+00 5.063033e-01 -1.391627e+00 5.498469e-01 -1.399765e+00 5.699367e-01 -1.386797e+00 5.660880e-01 -1.348539e+00 5.279830e-01 -1.271964e+00 4.388542e-01 -1.148615e+00 3.001480e-01 -9.881226e-01 1.274302e-01 -8.131903e-01 -6.224060e-02 -6.401521e-01 -2.585349e-01 -4.803339e-01 -4.566065e-01 -3.358417e-01 -6.579284e-01 -2.029570e-01 -8.797719e-01 -5.911381e-02 -1.150513e+00 1.158522e-01 -1.485201e+00 3.286268e-01 -1.898153e+00 
-6.399434e-01 5.252512e-01 -2.018577e-01 4.844302e-01 1.442358e-01 4.256867e-01 -3.262533e-01 1.020994e-01 -5.111766e-01 -8.043002e-02 -5.661092e-01 -1.938957e-01 -5.606297e-01 -2.796351e-01 -5.233730e-01 -3.584428e-01 -4.647773e-01 -4.394201e-01 -3.929715e-01 -5.243628e-01 -3.175740e-01 -6.106679e-01 -2.419833e-01 -6.993250e-01 -1.698869e-01 -7.842740e-01 -1.091986e-01 -8.620113e-01 -5.822599e-02 -9.346385e-01 -1.867783e-02 -9.955436e-01 2.573080e-03 -1.038910e+00 2.794823e-03 -1.063243e+00 -1.046022e-02 -1.076408e+00 -3.261761e-02 -1.077342e+00 -6.535375e-02 -1.060008e+00 -1.169512e-01 -1.011962e+00 -1.907334e-01 -9.359527e-01 -2.790415e-01 -8.411203e-01 -3.674229e-01 -7.357440e-01 -4.461049e-01 -6.229944e-01 -5.067523e-01 -5.061154e-01 -5.466396e-01 -3.855117e-01 -5.631642e-01 -2.522814e-01 -5.663958e-01 -9.176810e-02 -5.632159e-01 1.078616e-01 -5.634802e-01 3.765558e-01 
2.274366e+00 8.624080e-01 1.952282e+00 8.246742e-01 1.512140e+00 7.466312e-01 2.492313e+00 9.969085e-01 3.086096e+00 9.767419e-01 3.494919e+00 8.353603e-01 3.805270e+00 6.535801e-01 4.059279e+00 4.622081e-01 4.283136e+00 2.706951e-01 4.490047e+00 8.652120e-02 4.680631e+00 -8.227726e-02 4.856721e+00 -2.330632e-01 5.019767e+00 -3.596157e-01 5.163441e+00 -4.604094e-01 5.291370e+00 -5.406832e-01 5.401562e+00 -5.910604e-01 5.481598e+00 -6.043346e-01 5.529982e+00 -5.891643e-01 5.554690e+00 -5.556613e-01 5.559336e+00 -5.052008e-01 5.537038e+00 -4.319935e-01 5.480453e+00 -3.306026e-01 5.380085e+00 -1.975521e-01 5.238150e+00 -5.021546e-02 5.067687e+00 9.331078e-02 4.880325e+00 2.195753e-01 4.676307e+00 3.275923e-01 4.451524e+00 4.120793e-01 4.199768e+00 4.840226e-01 3.893496e+00 5.727370e-01 3.501692e+00 6.774321e-01 3.031747e+00 7.810223e-01 
5.521683e+00 1.106164e-01 4.122898e+00 -4.938192e-01 2.184950e+00 -4.541002e-01 5.015015e+00 1.705894e-01 6.232672e+00 3.993406e-01 6.910828e+00 4.586126e-01 7.373200e+00 4.722163e-01 7.722517e+00 4.828014e-01 7.996018e+00 5.015328e-01 8.214000e+00 5.290130e-01 8.392844e+00 5.615691e-01 8.539592e+00 5.995932e-01 8.659866e+00 6.378248e-01 8.761688e+00 6.741409e-01 8.844355e+00 7.116669e-01 8.909556e+00 7.476783e-01 8.962445e+00 7.798857e-01 9.005309e+00 8.075103e-01 9.033264e+00 8.371377e-01 9.042703e+00 8.683990e-01 9.033139e+00 8.987270e-01 9.008641e+00 9.202761e-01 8.970557e+00 9.373993e-01 8.911963e+00 9.564833e-01 8.820607e+00 9.809736e-01 8.686709e+00 1.008324e+00 8.498415e+00 1.035817e+00 8.244589e+00 1.057164e+00 7.909532e+00 1.057650e+00 7.481138e+00 1.015801e+00 6.934505e+00 8.946292e-01 6.254573e+00 5.653250e-01 
5.750309e+00 5.681239e-01 4.640167e+00 -5.314615e-02 2.968027e+00 -4.565903e-02 4.952209e+00 -9.043013e-02 6.177821e+00 8.144969e-02 6.961296e+00 2.250894e-01 7.505508e+00 3.255030e-01 7.908904e+00 4.011896e-01 8.219248e+00 4.666761e-01 8.462220e+00 5.265983e-01 8.655044e+00 5.815811e-01 8.808526e+00 6.320252e-01 8.928539e+00 6.775342e-01 9.022620e+00 7.186609e-01 9.093100e+00 7.586374e-01 9.142310e+00 7.938797e-01 9.176206e+00 8.219260e-01 9.195721e+00 8.482213e-01 9.199030e+00 8.742300e-01 9.185299e+00 9.002735e-01 9.156351e+00 9.249651e-01 9.110083e+00 9.501240e-01 9.046211e+00 9.696682e-01 8.961982e+00 9.885379e-01 8.850786e+00 1.010823e+00 8.702655e+00 1.039608e+00 8.510988e+00 1.069189e+00 8.265155e+00 1.099847e+00 7.949179e+00 1.122309e+00 7.551311e+00 1.110057e+00 7.057619e+00 1.047762e+00 6.414317e+00 9.135650e-01 
6.026347e+00 3.335551e-01 5.040783e+00 1.987143e-01 3.720686e+00 1.837143e-01 4.995197e+00 4.938529e-02 6.215660e+00 1.577042e-01 7.048141e+00 2.821462e-01 7.608027e+00 3.673656e-01 8.004788e+00 4.273179e-01 8.300426e+00 4.779657e-01 8.527593e+00 5.267358e-01 8.705183e+00 5.760699e-01 8.844232e+00 6.262003e-01 8.952395e+00 6.764674e-01 9.035953e+00 7.261098e-01 9.098673e+00 7.749869e-01 9.143660e+00 8.211125e-01 9.174274e+00 8.628781e-01 9.192242e+00 9.007987e-01 9.196438e+00 9.369235e-01 9.185975e+00 9.721557e-01 9.160932e+00 1.004999e+00 9.122033e+00 1.032660e+00 9.067601e+00 1.053679e+00 8.993289e+00 1.068822e+00 8.892287e+00 1.078975e+00 8.757251e+00 1.083908e+00 8.579944e+00 1.081155e+00 8.351172e+00 1.065545e+00 8.059955e+00 1.025550e+00 7.696622e+00 9.393512e-01 7.254327e+00 7.814526e-01 6.717136e+00 5.686716e-01 
6.367546e+00 5.618820e-01 5.559781e+00 4.973498e-01 4.444680e+00 4.803726e-01 5.325394e+00 2.414076e-01 6.240991e+00 1.687264e-01 6.986972e+00 2.272872e-01 7.543978e+00 3.123353e-01 7.957116e+00 3.901647e-01 8.269847e+00 4.583225e-01 8.511668e+00 5.192330e-01 8.701406e+00 5.743130e-01 8.850987e+00 6.248225e-01 8.968131e+00 6.708112e-01 9.059055e+00 7.126003e-01 9.127403e+00 7.508924e-01 9.176419e+00 7.853162e-01 9.209469e+00 8.157697e-01 9.227795e+00 8.434930e-01 9.231597e+00 8.697437e-01 9.220849e+00 8.948590e-01 9.195832e+00 9.187777e-01 9.155388e+00 9.412759e-01 9.098712e+00 9.620659e-01 9.023060e+00 9.823125e-01 8.923536e+00 1.002988e+00 8.793745e+00 1.023705e+00 8.627691e+00 1.041599e+00 8.417751e+00 1.051853e+00 8.154675e+00 1.044971e+00 7.829381e+00 1.006339e+00 7.430681e+00 9.185620e-01 6.945840e+00 7.658632e-01 
6.745598e+00 5.053843e-01 6.024697e+00 5.948866e-01 5.140355e+00 5.776986e-01 5.729790e+00 4.112450e-01 6.460637e+00 3.026034e-01 7.130487e+00 3.079964e-01 7.660156e+00 3.614270e-01 8.057032e+00 4.212545e-01 8.354142e+00 4.773784e-01 8.580132e+00 5.300433e-01 8.754606e+00 5.807110e-01 8.890224e+00 6.301281e-01 8.995514e+00 6.781940e-01 9.076618e+00 7.245302e-01 9.137807e+00 7.688458e-01 9.182321e+00 8.104792e-01 9.212739e+00 8.489639e-01 9.230565e+00 8.844032e-01 9.236022e+00 9.171789e-01 9.228997e+00 9.472844e-01 9.209490e+00 9.740872e-01 9.177319e+00 9.965731e-01 9.131029e+00 1.013998e+00 9.067588e+00 1.026079e+00 8.982520e+00 1.032348e+00 8.870654e+00 1.031508e+00 8.726321e+00 1.020977e+00 8.543480e+00 9.961009e-01 8.315538e+00 9.492104e-01 8.035973e+00 8.707483e-01 7.696746e+00 7.556086e-01 7.280529e+00 6.165974e-01 
7.146106e+00 6.758404e-01 6.551245e+00 7.790568e-01 5.807027e+00 7.621340e-01 6.219835e+00 5.913443e-01 6.715695e+00 4.151868e-01 7.227938e+00 3.495082e-01 7.688627e+00 3.667767e-01 8.064385e+00 4.166969e-01 8.359290e+00 4.740216e-01 8.589358e+00 5.300311e-01 8.769553e+00 5.822785e-01 8.911020e+00 6.302974e-01 9.021672e+00 6.740177e-01 9.107335e+00 7.136361e-01 9.172088e+00 7.494308e-01 9.219121e+00 7.815628e-01 9.251060e+00 8.103019e-01 9.269414e+00 8.362503e-01 9.274965e+00 8.600621e-01 9.268094e+00 8.820819e-01 9.248897e+00 9.023731e-01 9.216790e+00 9.209032e-01 9.170905e+00 9.377445e-01 9.109381e+00 9.530613e-01 9.029188e+00 9.665419e-01 8.926484e+00 9.769140e-01 8.797370e+00 9.813858e-01 8.637341e+00 9.756115e-01 8.441263e+00 9.533804e-01 8.203610e+00 9.072354e-01 7.918182e+00 8.314280e-01 7.575564e+00 7.362045e-01 
7.538437e+00 6.699688e-01 7.025475e+00 8.226161e-01 6.446774e+00 8.071669e-01 6.703466e+00 6.810860e-01 7.066036e+00 5.304696e-01 7.471775e+00 4.453064e-01 7.864702e+00 4.340711e-01 8.200149e+00 4.624888e-01 8.467984e+00 5.056905e-01 8.676872e+00 5.527526e-01 8.839077e+00 5.998231e-01 8.965024e+00 6.456217e-01 9.062601e+00 6.895727e-01 9.137619e+00 7.313192e-01 9.194311e+00 7.706009e-01 9.235832e+00 8.071239e-01 9.264522e+00 8.406777e-01 9.281912e+00 8.712139e-01 9.288767e+00 8.987344e-01 9.285427e+00 9.230647e-01 9.272007e+00 9.437710e-01 9.248286e+00 9.602325e-01 9.213317e+00 9.718389e-01 9.165284e+00 9.779778e-01 9.101583e+00 9.777681e-01 9.019170e+00 9.697906e-01 8.914776e+00 9.519265e-01 8.785006e+00 9.212591e-01 8.626163e+00 8.744442e-01 8.433890e+00 8.095048e-01 8.201546e+00 7.304844e-01 7.914820e+00 6.613217e-01 
7.933335e+00 7.991706e-01 7.520502e+00 9.473568e-01 7.057432e+00 9.331020e-01 7.203687e+00 8.145532e-01 7.421956e+00 6.493555e-01 7.691097e+00 5.283650e-01 7.989697e+00 4.833905e-01 8.273978e+00 4.909514e-01 8.517885e+00 5.238368e-01 8.716895e+00 5.659049e-01 8.875860e+00 6.094693e-01 9.001576e+00 6.512252e-01 9.100150e+00 6.898636e-01 9.176510e+00 7.249710e-01 9.234432e+00 7.565242e-01 9.276853e+00 7.846479e-01 9.306064e+00 8.095882e-01 9.323632e+00 8.317210e-01 9.330568e+00 8.514240e-01 9.327488e+00 8.689340e-01 9.314673e+00 8.843053e-01 9.291992e+00 8.974891e-01 9.259013e+00 9.083592e-01 9.214824e+00 9.166155e-01 9.157971e+00 9.215392e-01 9.086657e+00 9.217881e-01 8.999066e+00 9.152851e-01 8.893207e+00 8.994540e-01 8.766803e+00 8.717420e-01 8.617117e+00 8.309975e-01 8.439972e+00 7.819979e-01 8.223910e+00 7.504038e-01 
8.308551e+00 8.030276e-01 7.975780e+00 9.605704e-01 7.641896e+00 9.482370e-01 7.685536e+00 8.546018e-01 7.814023e+00 7.223292e-01 7.997000e+00 6.101958e-01 8.221294e+00 5.549508e-01 8.450812e+00 5.473948e-01 8.655893e+00 5.672193e-01 8.826193e+00 5.997806e-01 8.962677e+00 6.370808e-01 9.070156e+00 6.752238e-01 9.153871e+00 7.123606e-01 9.218346e+00 7.475928e-01 9.267189e+00 7.804480e-01 9.303198e+00 8.106305e-01 9.328486e+00 8.379477e-01 9.344551e+00 8.622750e-01 9.352366e+00 8.834858e-01 9.352528e+00 9.013514e-01 9.345367e+00 9.154920e-01 9.330924e+00 9.253935e-01 9.308842e+00 9.304700e-01 9.278335e+00 9.300474e-01 9.238268e+00 9.232788e-01 9.187339e+00 9.091000e-01 9.124223e+00 8.863340e-01 9.047587e+00 8.540288e-01 8.955853e+00 8.122777e-01 8.846639e+00 7.640331e-01 8.715050e+00 7.200245e-01 8.547333e+00 7.130353e-01 
8.674481e+00 8.996828e-01 8.429346e+00 1.044777e+00 8.197252e+00 1.034147e+00 8.159153e+00 9.502908e-01 8.192468e+00 8.216513e-01 8.277183e+00 6.984209e-01 8.415259e+00 6.236090e-01 8.583211e+00 5.975859e-01 8.750017e+00 6.036659e-01 8.898199e+00 6.265964e-01 9.022331e+00 6.565684e-01 9.123015e+00 6.881640e-01 9.202989e+00 7.186616e-01 9.265363e+00 7.468096e-01 9.312951e+00 7.721173e-01 9.348118e+00 7.944696e-01 9.372775e+00 8.139514e-01 9.388364e+00 8.307548e-01 9.395940e+00 8.450754e-01 9.396254e+00 8.570263e-01 9.389809e+00 8.665952e-01 9.376875e+00 8.736541e-01 9.357558e+00 8.779440e-01 9.331791e+00 8.790278e-01 9.299357e+00 8.762209e-01 9.260002e+00 8.685927e-01 9.213589e+00 8.551268e-01 9.160017e+00 8.351753e-01 9.099038e+00 8.092895e-01 9.029785e+00 7.809474e-01 8.948846e+00 7.617570e-01 8.842477e+00 7.850896e-01 
9.020080e+00 8.997526e-01 8.852798e+00 1.037505e+00 8.726860e+00 1.028997e+00 8.614502e+00 9.623836e-01 8.582357e+00 8.619712e-01 8.603595e+00 7.577682e-01 8.678306e+00 6.870058e-01 8.790972e+00 6.557235e-01 8.913801e+00 6.534383e-01 9.027920e+00 6.683672e-01 9.125442e+00 6.919794e-01 9.205012e+00 7.190738e-01 9.268145e+00 7.467445e-01 9.317237e+00 7.734332e-01 9.354685e+00 7.983042e-01 9.382581e+00 8.208878e-01 9.402628e+00 8.408965e-01 9.416141e+00 8.581224e-01 9.424097e+00 8.723628e-01 9.427208e+00 8.833551e-01 9.425994e+00 8.907419e-01 9.420799e+00 8.940717e-01 9.411793e+00 8.928277e-01 9.399002e+00 8.864474e-01 9.382390e+00 8.743501e-01 9.361970e+00 8.560409e-01 9.337892e+00 8.313765e-01 9.310412e+00 8.010780e-01 9.279656e+00 7.676348e-01 9.244996e+00 7.371403e-01 9.202818e+00 7.247477e-01 9.138601e+00 7.666991e-01 
9.348835e+00 9.683422e-01 9.262192e+00 1.091266e+00 9.227366e+00 1.084719e+00 9.050250e+00 1.028302e+00 8.949386e+00 9.381044e-01 8.901106e+00 8.360882e-01 8.907773e+00 7.581012e-01 8.962739e+00 7.152378e-01 9.042736e+00 7.011218e-01 9.127555e+00 7.056119e-01 9.205835e+00 7.202289e-01 9.272934e+00 7.392485e-01 9.327935e+00 7.592524e-01 9.371620e+00 7.783707e-01 9.405373e+00 7.956685e-01 9.430669e+00 8.107365e-01 9.448861e+00 8.234490e-01 9.461095e+00 8.338187e-01 9.468313e+00 8.418908e-01 9.471293e+00 8.476701e-01 9.470692e+00 8.510800e-01 9.467087e+00 8.519524e-01 9.461041e+00 8.500212e-01 9.453149e+00 8.449271e-01 9.444089e+00 8.362565e-01 9.434716e+00 8.236698e-01 9.426124e+00 8.071895e-01 9.419591e+00 7.877291e-01 9.416358e+00 7.679634e-01 9.416965e+00 7.541683e-01 9.418549e+00 7.618675e-01 9.406060e+00 8.258302e-01 
9.659586e+00 9.597389e-01 9.646974e+00 1.069761e+00 9.702422e+00 1.065405e+00 9.468491e+00 1.023142e+00 9.317221e+00 9.567346e-01 9.221760e+00 8.758361e-01 9.178778e+00 8.090914e-01 9.185357e+00 7.686162e-01 9.222698e+00 7.515417e-01 9.272052e+00 7.509181e-01 9.321596e+00 7.602436e-01 9.365623e+00 7.747168e-01 9.402224e+00 7.912095e-01 9.431437e+00 8.078252e-01 9.454127e+00 8.234510e-01 9.471404e+00 8.374286e-01 9.484360e+00 8.493452e-01 9.493956e+00 8.589043e-01 9.501011e+00 8.658437e-01 9.506223e+00 8.698818e-01 9.510212e+00 8.706909e-01 9.513551e+00 8.678997e-01 9.516807e+00 8.611232e-01 9.520591e+00 8.500149e-01 9.525642e+00 8.343603e-01 9.532911e+00 8.142561e-01 9.543623e+00 7.904348e-01 9.559249e+00 7.647895e-01 9.581306e+00 7.412246e-01 9.610680e+00 7.275392e-01 9.644758e+00 7.411626e-01 9.668998e+00 8.160047e-01 
9.948935e+00 1.004241e+00 1.001080e+01 1.100333e+00 1.014838e+01 1.098038e+00 9.861625e+00 1.065834e+00 9.657843e+00 1.011823e+00 9.511702e+00 9.397600e-01 9.417554e+00 8.740456e-01 9.375930e+00 8.285818e-01 9.372768e+00 8.035127e-01 9.390887e+00 7.939798e-01 9.417579e+00 7.944935e-01 9.445334e+00 8.005460e-01 9.470451e+00 8.089845e-01 9.491533e+00 8.178247e-01 9.508412e+00 8.259165e-01 9.521502e+00 8.326424e-01 9.531445e+00 8.376985e-01 9.538942e+00 8.409469e-01 9.544692e+00 8.423145e-01 9.549382e+00 8.417285e-01 9.553719e+00 8.390822e-01 9.558461e+00 8.342269e-01 9.564482e+00 8.269853e-01 9.572829e+00 8.171937e-01 9.584784e+00 8.047965e-01 9.601941e+00 7.900280e-01 9.626245e+00 7.737259e-01 9.659962e+00 7.578244e-01 9.705474e+00 7.461508e-01 9.764528e+00 7.463138e-01 9.835039e+00 7.753282e-01 9.902836e+00 8.632425e-01 
1.022274e+01 9.865331e-01 1.035289e+01 1.069192e+00 1.056910e+01 1.069066e+00 1.023735e+01 1.049483e+00 9.993666e+00 1.016019e+00 9.811595e+00 9.646822e-01 9.679554e+00 9.130796e-01 9.598391e+00 8.744207e-01 9.557507e+00 8.505734e-01 9.542093e+00 8.389084e-01 9.540295e+00 8.358049e-01 9.544514e+00 8.379593e-01 9.550572e+00 8.428429e-01 9.556541e+00 8.487088e-01 9.561788e+00 8.544147e-01 9.566351e+00 8.592234e-01 9.570582e+00 8.626429e-01 9.574961e+00 8.643146e-01 9.580022e+00 8.639411e-01 9.586328e+00 8.612431e-01 9.594493e+00 8.559436e-01 9.605207e+00 8.477788e-01 9.619280e+00 8.365373e-01 9.637700e+00 8.221322e-01 9.661713e+00 8.047217e-01 9.692894e+00 7.849063e-01 9.733215e+00 7.640367e-01 9.785043e+00 7.446703e-01 9.851006e+00 7.313167e-01 9.933289e+00 7.323201e-01 1.003045e+01 7.651026e-01 1.013037e+01 8.557419e-01 
1.047256e+01 1.011755e+00 1.067027e+01 1.082397e+00 1.096071e+01 1.084325e+00 1.058541e+01 1.074489e+00 1.030045e+01 1.053781e+00 1.008022e+01 1.014221e+00 9.910095e+00 9.685321e-01 9.790821e+00 9.297515e-01 9.714991e+00 9.016596e-01 9.670097e+00 8.834588e-01 9.644872e+00 8.728021e-01 9.631169e+00 8.671108e-01 9.623812e+00 8.642047e-01 9.619838e+00 8.624911e-01 9.617741e+00 8.609139e-01 9.616890e+00 8.588197e-01 9.617165e+00 8.558219e-01 9.618735e+00 8.516937e-01 9.621954e+00 8.462908e-01 9.627321e+00 8.395037e-01 9.635480e+00 8.312361e-01 9.647247e+00 8.214081e-01 9.663653e+00 8.099855e-01 9.686006e+00 7.970422e-01 9.715945e+00 7.828720e-01 9.755513e+00 7.681707e-01 9.807204e+00 7.543117e-01 9.873963e+00 7.437483e-01 9.959056e+00 7.406910e-01 1.006533e+01 7.529214e-01 1.019205e+01 7.964319e-01 1.032900e+01 8.915644e-01 
1.070867e+01 9.870157e-01 1.096745e+01 1.045288e+00 1.132723e+01 1.049291e+00 1.091563e+01 1.051066e+00 1.059880e+01 1.048361e+00 1.035070e+01 1.028251e+00 1.015189e+01 9.974197e-01 1.000146e+01 9.675116e-01 9.894078e+00 9.432081e-01 9.819537e+00 9.251951e-01 9.767954e+00 9.126017e-01 9.731738e+00 9.040026e-01 9.705736e+00 8.979635e-01 9.686753e+00 8.932930e-01 9.672968e+00 8.890914e-01 9.663439e+00 8.847055e-01 9.657771e+00 8.796574e-01 9.655901e+00 8.735824e-01 9.657994e+00 8.661850e-01 9.664389e+00 8.572164e-01 9.675596e+00 8.464730e-01 9.692309e+00 8.338180e-01 9.715442e+00 8.192290e-01 9.746187e+00 8.028766e-01 9.786075e+00 7.852452e-01 9.837057e+00 7.673094e-01 9.901581e+00 7.507838e-01 9.982633e+00 7.384747e-01 1.008369e+01 7.348850e-01 1.020807e+01 7.478917e-01 1.035613e+01 7.924295e-01 1.052126e+01 8.830631e-01 
1.091950e+01 9.982284e-01 1.123810e+01 1.046162e+00 1.166463e+01 1.052127e+00 1.121714e+01 1.063209e+00 1.086761e+01 1.072778e+00 1.059018e+01 1.065234e+00 1.036298e+01 1.042777e+00 1.018326e+01 1.015815e+00 1.004734e+01 9.901417e-01 9.947035e+00 9.678820e-01 9.873615e+00 9.493615e-01 9.819710e+00 9.340039e-01 9.779810e+00 9.209144e-01 9.750123e+00 9.092255e-01 9.728194e+00 8.982389e-01 9.712530e+00 8.874469e-01 9.702296e+00 8.764993e-01 9.697117e+00 8.651602e-01 9.696952e+00 8.532710e-01 9.702038e+00 8.407289e-01 9.712870e+00 8.274836e-01 9.730214e+00 8.135546e-01 9.755132e+00 7.990703e-01 9.789032e+00 7.843363e-01 9.833720e+00 7.699400e-01 9.891469e+00 7.569022e-01 9.965080e+00 7.468849e-01 1.005794e+01 7.424787e-01 1.017396e+01 7.477197e-01 1.031704e+01 7.695545e-01 1.048858e+01 8.204553e-01 1.068543e+01 9.085952e-01 
1.111792e+01 9.694933e-01 1.148954e+01 1.006292e+00 1.197704e+01 1.014174e+00 1.150013e+01 1.035931e+00 1.112527e+01 1.061272e+00 1.082612e+01 1.071373e+00 1.057733e+01 1.063348e+00 1.037364e+01 1.045864e+00 1.021233e+01 1.025235e+00 1.008707e+01 1.004649e+00 9.990588e+00 9.855442e-01 9.916351e+00 9.683070e-01 9.859203e+00 9.527551e-01 9.815382e+00 9.384739e-01 9.782292e+00 9.250048e-01 9.758230e+00 9.119255e-01 9.742135e+00 8.988721e-01 9.733415e+00 8.855391e-01 9.731838e+00 8.716766e-01 9.737464e+00 8.570948e-01 9.750630e+00 8.416812e-01 9.771944e+00 8.254336e-01 9.802316e+00 8.085131e-01 9.843000e+00 7.913195e-01 9.895651e+00 7.745957e-01 9.962403e+00 7.595637e-01 1.004596e+01 7.480993e-01 1.014970e+01 7.429618e-01 1.027768e+01 7.482070e-01 1.043431e+01 7.703368e-01 1.062251e+01 8.195589e-01 1.084388e+01 8.980125e-01 
1.129069e+01 9.717306e-01 1.171382e+01 9.994180e-01 1.226029e+01 1.009094e+00 1.175416e+01 1.039505e+00 1.135355e+01 1.076125e+00 1.103173e+01 1.098247e+00 1.076178e+01 1.099335e+00 1.053605e+01 1.086360e+00 1.035230e+01 1.066207e+00 1.020575e+01 1.043162e+00 1.009030e+01 1.019671e+00 9.999987e+00 9.969205e-01 9.929696e+00 9.753097e-01 9.875411e+00 9.548239e-01 9.834150e+00 9.352766e-01 9.803798e+00 9.164400e-01 9.782936e+00 8.981033e-01 9.770689e+00 8.800969e-01 9.766620e+00 8.623013e-01 9.770673e+00 8.446587e-01 9.783142e+00 8.271903e-01 9.804664e+00 8.100275e-01 9.836240e+00 7.934573e-01 9.879265e+00 7.779864e-01 9.935573e+00 7.644267e-01 1.000751e+01 7.540030e-01 1.009800e+01 7.484832e-01 1.021067e+01 7.503414e-01 1.034989e+01 7.630544e-01 1.052057e+01 7.918816e-01 1.072711e+01 8.438270e-01 1.097548e+01 9.152206e-01 
1.145205e+01 9.420403e-01 1.191966e+01 9.597497e-01 1.251861e+01 9.711228e-01 1.198893e+01 1.011106e+00 1.156858e+01 1.061317e+00 1.123001e+01 1.098850e+00 1.094400e+01 1.113135e+00 1.070027e+01 1.109298e+00 1.049676e+01 1.094519e+00 1.033009e+01 1.073912e+00 1.019544e+01 1.050772e+00 1.008772e+01 1.027039e+00 1.000234e+01 1.003715e+00 9.935477e+00 9.812085e-01 9.884140e+00 9.595915e-01 9.846113e+00 9.387630e-01 9.819812e+00 9.185469e-01 9.804183e+00 8.987512e-01 9.798613e+00 8.792084e-01 9.802872e+00 8.598101e-01 9.817085e+00 8.405440e-01 9.841721e+00 8.215390e-01 9.877613e+00 8.031204e-01 9.925979e+00 7.858771e-01 9.988483e+00 7.707426e-01 1.006730e+01 7.590846e-01 1.016525e+01 7.528009e-01 1.028587e+01 7.544197e-01 1.043365e+01 7.672606e-01 1.061399e+01 7.957424e-01 1.083313e+01 8.439012e-01 1.110226e+01 9.029379e-01 
1.158806e+01 9.396879e-01 1.209844e+01 9.493583e-01 1.274774e+01 9.622883e-01 1.219486e+01 1.009958e+00 1.175466e+01 1.070007e+00 1.139879e+01 1.118120e+00 1.109714e+01 1.141008e+00 1.083720e+01 1.142056e+00 1.061670e+01 1.128668e+00 1.043330e+01 1.106783e+00 1.028318e+01 1.080497e+00 1.016189e+01 1.052426e+00 1.006505e+01 1.024102e+00 9.988814e+00 9.963343e-01 9.929987e+00 9.694847e-01 9.886077e+00 9.436681e-01 9.855234e+00 9.188759e-01 9.836168e+00 8.950562e-01 9.828089e+00 8.721682e-01 9.830653e+00 8.502243e-01 9.843933e+00 8.293300e-01 9.868403e+00 8.097272e-01 9.904945e+00 7.918427e-01 9.954869e+00 7.763453e-01 1.001996e+01 7.642068e-01 1.010251e+01 7.567652e-01 1.020547e+01 7.557783e-01 1.033254e+01 7.634598e-01 1.048840e+01 7.825006e-01 1.067894e+01 8.159004e-01 1.091210e+01 8.642473e-01 1.120361e+01 9.142537e-01 
1.171355e+01 9.116481e-01 1.225948e+01 9.126218e-01 1.295197e+01 9.269702e-01 1.238086e+01 9.828177e-01 1.192583e+01 1.054145e+00 1.155748e+01 1.115068e+00 1.124422e+01 1.149285e+00 1.097121e+01 1.158456e+00 1.073593e+01 1.150132e+00 1.053705e+01 1.130909e+00 1.037177e+01 1.105536e+00 1.023643e+01 1.077197e+00 1.012719e+01 1.047893e+00 1.004045e+01 1.018778e+00 9.973105e+00 9.904455e-01 9.922644e+00 9.631394e-01 9.887114e+00 9.369028e-01 9.865091e+00 9.116858e-01 9.855636e+00 8.874235e-01 9.858249e+00 8.640992e-01 9.872843e+00 8.417999e-01 9.899729e+00 8.207721e-01 9.939619e+00 8.014779e-01 9.993649e+00 7.846530e-01 1.006342e+01 7.713632e-01 1.015107e+01 7.630503e-01 1.025940e+01 7.615536e-01 1.039201e+01 7.690838e-01 1.055365e+01 7.880883e-01 1.075066e+01 8.205406e-01 1.099294e+01 8.639534e-01 1.130111e+01 9.013209e-01 
1.181439e+01 9.083121e-01 1.239393e+01 9.025352e-01 1.312697e+01 9.181428e-01 1.253828e+01 9.803232e-01 1.206855e+01 1.059606e+00 1.168745e+01 1.129015e+00 1.136296e+01 1.170403e+00 1.107847e+01 1.183925e+00 1.083096e+01 1.177148e+00 1.061972e+01 1.157264e+00 1.044272e+01 1.129625e+00 1.029682e+01 1.097943e+00 1.017845e+01 1.064650e+00 1.008408e+01 1.031248e+00 1.001052e+01 9.985969e-01 9.955087e+00 9.671484e-01 9.915634e+00 9.371093e-01 9.890567e+00 9.085655e-01 9.878806e+00 8.815712e-01 9.879757e+00 8.562185e-01 9.893285e+00 8.326965e-01 9.919699e+00 8.113445e-01 9.959745e+00 7.927037e-01 1.001462e+01 7.775640e-01 1.008601e+01 7.670049e-01 1.017612e+01 7.624173e-01 1.028784e+01 7.654902e-01 1.042485e+01 7.781261e-01 1.059203e+01 8.021641e-01 1.079615e+01 8.381795e-01 1.104880e+01 8.805176e-01 1.137461e+01 9.091597e-01 
1.190555e+01 8.839437e-01 1.251130e+01 8.711114e-01 1.327708e+01 8.878055e-01 1.267524e+01 9.564332e-01 1.219513e+01 1.044450e+00 1.180536e+01 1.123764e+00 1.147296e+01 1.174122e+00 1.117954e+01 1.194253e+00 1.092166e+01 1.191784e+00 1.069928e+01 1.174410e+00 1.051114e+01 1.147965e+00 1.035475e+01 1.116565e+00 1.022698e+01 1.082971e+00 1.012454e+01 1.048937e+00 1.004440e+01 1.015496e+00 9.983863e+00 9.831993e-01 9.940759e+00 9.522972e-01 9.913399e+00 9.228804e-01 9.900590e+00 8.949862e-01 9.901610e+00 8.686845e-01 9.916188e+00 8.441496e-01 9.944486e+00 8.217238e-01 9.987095e+00 8.019745e-01 1.004505e+01 7.857438e-01 1.011987e+01 7.741837e-01 1.021360e+01 7.687658e-01 1.032899e+01 7.712400e-01 1.046962e+01 7.834956e-01 1.064037e+01 8.071341e-01 1.084844e+01 8.417586e-01 1.110714e+01 8.790657e-01 1.144515e+01 8.966957e-01 
1.197289e+01 8.824466e-01 1.260267e+01 8.646017e-01 1.339792e+01 8.822054e-01 1.278388e+01 9.554242e-01 1.229370e+01 1.049083e+00 1.189520e+01 1.134301e+00 1.155525e+01 1.189723e+00 1.125429e+01 1.212988e+00 1.098837e+01 1.211639e+00 1.075775e+01 1.193760e+00 1.056167e+01 1.165600e+00 1.039802e+01 1.131644e+00 1.026387e+01 1.094968e+00 1.015602e+01 1.057591e+00 1.007138e+01 1.020760e+00 1.000718e+01 9.852007e-01 9.961111e+00 9.513077e-01 9.931362e+00 9.192913e-01 9.916645e+00 8.892940e-01 9.916176e+00 8.614799e-01 9.929655e+00 8.361083e-01 9.957247e+00 8.135948e-01 9.999581e+00 7.945639e-01 1.005774e+01 7.798897e-01 1.013331e+01 7.707185e-01 1.022842e+01 7.684601e-01 1.034584e+01 7.747205e-01 1.048922e+01 7.911182e-01 1.066353e+01 8.187371e-01 1.087631e+01 8.560125e-01 1.114223e+01 8.921793e-01 1.149297e+01 9.031187e-01 
1.203127e+01 8.631395e-01 1.267750e+01 8.403412e-01 1.349388e+01 8.586567e-01 1.287166e+01 9.362793e-01 1.237526e+01 1.035886e+00 1.197162e+01 1.127875e+00 1.162704e+01 1.189552e+00 1.132071e+01 1.217561e+00 1.104836e+01 1.219473e+00 1.081066e+01 1.203714e+00 1.060739e+01 1.176847e+00 1.043686e+01 1.143606e+00 1.029647e+01 1.107264e+00 1.018323e+01 1.069987e+00 1.009417e+01 1.033122e+00 1.002656e+01 9.974465e-01 9.978090e+00 9.633708e-01 9.946901e+00 9.310961e-01 9.931632e+00 9.007408e-01 9.931407e+00 8.724423e-01 9.945818e+00 8.464395e-01 9.974913e+00 8.231426e-01 1.001919e+01 8.031904e-01 1.007959e+01 7.874936e-01 1.015756e+01 7.772554e-01 1.025507e+01 7.739544e-01 1.037479e+01 7.792589e-01 1.052026e+01 7.948018e-01 1.069644e+01 8.215176e-01 1.091117e+01 8.571464e-01 1.118039e+01 8.890878e-01 1.153854e+01 8.919668e-01 
1.206656e+01 8.655470e-01 1.272686e+01 8.399617e-01 1.356053e+01 8.587984e-01 1.293133e+01 9.389383e-01 1.242915e+01 1.041510e+00 1.202043e+01 1.136458e+00 1.167154e+01 1.200628e+00 1.136110e+01 1.230070e+00 1.108449e+01 1.232258e+00 1.084246e+01 1.215808e+00 1.063502e+01 1.187513e+00 1.046066e+01 1.152319e+00 1.031690e+01 1.113690e+00 1.020077e+01 1.073956e+00 1.010926e+01 1.034610e+00 1.003959e+01 9.965569e-01 9.989360e+00 9.603138e-01 9.956638e+00 9.261779e-01 9.940011e+00 8.943535e-01 9.938577e+00 8.650543e-01 9.951927e+00 8.385860e-01 9.980136e+00 8.154128e-01 1.002375e+01 7.962101e-01 1.008378e+01 7.819010e-01 1.016172e+01 7.736681e-01 1.025964e+01 7.729245e-01 1.038025e+01 7.812129e-01 1.052715e+01 7.999552e-01 1.070534e+01 8.297176e-01 1.092288e+01 8.674744e-01 1.119652e+01 8.991492e-01 1.156235e+01 8.985302e-01 
1.209337e+01 8.520378e-01 1.276005e+01 8.239917e-01 1.360230e+01 8.431359e-01 1.296992e+01 9.254106e-01 1.246549e+01 1.030963e+00 1.205504e+01 1.129417e+00 1.170453e+01 1.196921e+00 1.139195e+01 1.229039e+00 1.111254e+01 1.233284e+00 1.086730e+01 1.218446e+00 1.065650e+01 1.191457e+00 1.047888e+01 1.157357e+00 1.033211e+01 1.119679e+00 1.021337e+01 1.080795e+00 1.011974e+01 1.042215e+00 1.004849e+01 1.004837e+00 9.997238e+00 9.691577e-01 9.964051e+00 9.354378e-01 9.947483e+00 9.038410e-01 9.946576e+00 8.745413e-01 9.960854e+00 8.478121e-01 9.990302e+00 8.240988e-01 1.003536e+01 8.040761e-01 1.009694e+01 7.886884e-01 1.017641e+01 7.791625e-01 1.027573e+01 7.769768e-01 1.039749e+01 7.837517e-01 1.054523e+01 8.009786e-01 1.072392e+01 8.292257e-01 1.094175e+01 8.652110e-01 1.121610e+01 8.940677e-01 1.158440e+01 8.891113e-01 
1.209752e+01 8.596842e-01 1.276807e+01 8.314263e-01 1.361474e+01 8.506799e-01 1.298050e+01 9.331797e-01 1.247435e+01 1.038773e+00 1.206227e+01 1.137007e+00 1.171045e+01 1.204146e+00 1.139692e+01 1.235704e+00 1.111680e+01 1.239117e+00 1.087100e+01 1.223180e+00 1.065979e+01 1.194870e+00 1.048186e+01 1.159285e+00 1.033488e+01 1.120017e+00 1.021595e+01 1.079504e+00 1.012212e+01 1.039320e+00 1.005059e+01 1.000431e+00 9.998940e+00 9.633985e-01 9.965199e+00 9.285505e-01 9.947913e+00 8.961130e-01 9.946136e+00 8.663176e-01 9.959427e+00 8.394862e-01 9.987826e+00 8.160995e-01 1.003185e+01 7.968502e-01 1.009248e+01 7.826774e-01 1.017119e+01 7.747749e-01 1.027002e+01 7.745560e-01 1.039165e+01 7.835398e-01 1.053967e+01 8.030781e-01 1.071909e+01 8.335531e-01 1.093814e+01 8.714216e-01 1.121430e+01 9.014645e-01 1.158520e+01 8.968414e-01 
1.209337e+01 8.520385e-01 1.276005e+01 8.239923e-01 1.360230e+01 8.431365e-01 1.296991e+01 9.254111e-01 1.246549e+01 1.030964e+00 1.205504e+01 1.129417e+00 1.170453e+01 1.196921e+00 1.139195e+01 1.229039e+00 1.111254e+01 1.233284e+00 1.086730e+01 1.218446e+00 1.065651e+01 1.191456e+00 1.047888e+01 1.157357e+00 1.033211e+01 1.119679e+00 1.021337e+01 1.080795e+00 1.011974e+01 1.042215e+00 1.004849e+01 1.004837e+00 9.997239e+00 9.691574e-01 9.964052e+00 9.354374e-01 9.947484e+00 9.038405e-01 9.946577e+00 8.745408e-01 9.960855e+00 8.478116e-01 9.990303e+00 8.240983e-01 1.003536e+01 8.040756e-01 1.009694e+01 7.886880e-01 1.017641e+01 7.791622e-01 1.027573e+01 7.769766e-01 1.039749e+01 7.837517e-01 1.054523e+01 8.009787e-01 1.072392e+01 8.292260e-01 1.094175e+01 8.652114e-01 1.121610e+01 8.940682e-01 1.158440e+01 8.891119e-01 
1.206656e+01 8.655483e-01 1.272686e+01 8.399630e-01 1.356053e+01 8.587996e-01 1.293133e+01 9.389393e-01 1.242915e+01 1.041511e+00 1.202043e+01 1.136459e+00 1.167154e+01 1.200628e+00 1.136110e+01 1.230070e+00 1.108449e+01 1.232258e+00 1.084246e+01 1.215808e+00 1.063502e+01 1.187513e+00 1.046067e+01 1.152319e+00 1.031690e+01 1.113689e+00 1.020077e+01 1.073955e+00 1.010927e+01 1.034610e+00 1.003960e+01 9.965562e-01 9.989362e+00 9.603130e-01 9.956640e+00 9.261771e-01 9.940013e+00 8.943526e-01 9.938579e+00 8.650533e-01 9.951929e+00 8.385850e-01 9.980138e+00 8.154118e-01 1.002375e+01 7.962093e-01 1.008378e+01 7.819003e-01 1.016173e+01 7.736676e-01 1.025964e+01 7.729242e-01 1.038025e+01 7.812130e-01 1.052715e+01 7.999556e-01 1.070534e+01 8.297182e-01 1.092288e+01 8.674753e-01 1.119652e+01 8.991503e-01 1.156235e+01 8.985315e-01 