# vtk DataFile Version 2.0
Comment goes here
ASCII

DATASET STRUCTURED_POINTS
FIELD FieldData 1
TIME 1 1 double
0.76000000
DIMENSIONS    128   16   1

ORIGIN    0.000   0.000   0.000
SPACING   0.0078125 0.015625   1.000

POINT_DATA   2048
SCALARS fMag double
LOOKUP_TABLE default

0 0 0 0 0 0 0 0 0 0 0 0 0 0 0 0 0 0 0 0 0 0 0 0 0 0 0 0 0 0 0 0 0 0 0 0 0 0 0 0 0 0 0 0 0 0 0 0 0 0 0 0 0 0 0 0 0 0 0 0 0 0 0 0 0 0 0 0 0 0 0 0 0 0 0 0 0 0 0 0 0 0 0 0 0 0 0 0 0 0 0 0 0 0 0 0 0 0 0 0 0 0 0 0 0 0 0 0 0 0 0 0 0 0 0 0 0 0 0 0 0 0 0 0 0 0 0 0 
0 0 0 0 0 0 0 0 0 0 0 0 0 0 0 0 0 0 0 0 0 0 0 0 0 0 0 0 0 0 0 0 0 0 0 0 0 0 0 0 0 0 0 0 0 0 0 0 0 0 0 0 0 0 0 0 0 0 0 0 0 0 0 0 0 0 0 0 0 0 0 0 0 0 0 0 0 0 0 0 0 0 0 0 0 0 0 0 0 0 0 0 0 0 0 0 0 0 0 0 0 0 0 0 0 0 0 0 0 0 0 0 0 0 0 0 0 0 0 0 0 0 0 0 0 0 0 0 
0 0 0 0 0 1.721588e+00 3.115672e+00 1.543546e+00 2.576337e+00 2.023476e+00 3.158082e+00 2.441554e+00 3.586766e+00 4.941036e+00 7.159907e+00 9.375095e+00 1.327518e+01 1.759534e+01 2.172035e+01 2.531021e+01 3.179118e+01 3.209901e+01 3.150272e+01 3.164669e+01 3.104785e+01 3.109777e+01 3.049615e+01 3.045790e+01 2.990322e+01 2.982430e+01 2.936684e+01 2.927040e+01 2.891673e+01 2.878360e+01 2.847595e+01 2.824032e+01 2.790899e+01 2.756004e+01 2.722083e+01 2.683611e+01 2.656387e+01 2.623856e+01 2.607053e+01 2.580146e+01 2.565691e+01 2.535258e+01 2.513892e+01 2.475129e+01 2.445672e+01 2.403232e+01 2.375850e+01 2.343691e+01 2.330785e+01 2.314908e+01 2.313845e+01 2.304372e+01 2.319832e+01 2.430823e+01 2.536457e+01 2.582684e+01 2.657525e+01 2.416695e+01 2.036535e+01 2.097972e+01 2.318898e+01 2.513034e+01 2.714965e+01 2.840695e+01 2.897721e+01 2.775764e+01 2.298815e+01 1.817473e+01 1.641614e+01 1.610843e+01 1.580629e+01 1.571510e+01 1.538405e+01 1.517508e+01 1.476127e+01 1.445206e+01 1.405564e+01 1.372385e+01 1.342058e+01 1.309298e+01 1.288788e+01 1.252606e+01 1.235963e+01 1.192295e+01 1.177494e+01 1.129218e+01 1.117010e+01 1.068167e+01 1.058700e+01 1.013166e+01 1.002738e+01 9.587330e+00 9.402412e+00 8.990121e+00 8.723121e+00 8.388021e+00 8.033749e+00 7.799741e+00 7.369765e+00 7.271876e+00 6.778459e+00 6.795949e+00 6.218823e+00 6.298511e+00 5.624603e+00 5.701485e+00 4.952995e+00 5.015094e+00 4.295499e+00 4.353731e+00 3.742835e+00 3.754080e+00 3.290463e+00 3.176234e+00 2.849535e+00 2.522201e+00 2.314348e+00 2.001607e+00 3.063370e+00 3.326347e-01 0 0 0 0 
0 0 0 0 0 5.061797e+00 9.151249e+00 4.521093e+00 7.569490e+00 5.949404e+00 9.286315e+00 7.177696e+00 1.054553e+01 1.453389e+01 2.106358e+01 2.758023e+01 3.905336e+01 5.176527e+01 6.390253e+01 7.446748e+01 9.354260e+01 9.444852e+01 9.269325e+01 9.311689e+01 9.135400e+01 9.150072e+01 8.972973e+01 8.961703e+01 8.798432e+01 8.775200e+01 8.640555e+01 8.612172e+01 8.508082e+01 8.468899e+01 8.378356e+01 8.309005e+01 8.211489e+01 8.108786e+01 8.008952e+01 7.895719e+01 7.815596e+01 7.719851e+01 7.670397e+01 7.591205e+01 7.548660e+01 7.459094e+01 7.396212e+01 7.282132e+01 7.195440e+01 7.070540e+01 6.989958e+01 6.895316e+01 6.857336e+01 6.810612e+01 6.807483e+01 6.779610e+01 6.811291e+01 7.012846e+01 7.060921e+01 6.928146e+01 6.937542e+01 6.827183e+01 6.432446e+01 6.505003e+01 6.681852e+01 6.754027e+01 6.816945e+01 6.718339e+01 6.484236e+01 6.341463e+01 6.067714e+01 5.299133e+01 4.820394e+01 4.738812e+01 4.649912e+01 4.623082e+01 4.525680e+01 4.464195e+01 4.342443e+01 4.251465e+01 4.134832e+01 4.037212e+01 3.947984e+01 3.851595e+01 3.791249e+01 3.684794e+01 3.635825e+01 3.507347e+01 3.463798e+01 3.321768e+01 3.285855e+01 3.142161e+01 3.114316e+01 2.980365e+01 2.949697e+01 2.820248e+01 2.765854e+01 2.644573e+01 2.566026e+01 2.467449e+01 2.363222e+01 2.294378e+01 2.167874e+01 2.139067e+01 1.993903e+01 1.999039e+01 1.829258e+01 1.852701e+01 1.654470e+01 1.677104e+01 1.456960e+01 1.475262e+01 1.263641e+01 1.280819e+01 1.101184e+01 1.104539e+01 9.682211e+00 9.346611e+00 8.386220e+00 7.424257e+00 6.813761e+00 5.891860e+00 9.011499e+00 9.784527e-01 0 0 0 0 
0 0 0 0 0 3.495654e+00 6.315243e+00 3.113894e+00 5.224821e+00 4.108630e+00 6.413546e+00 4.956429e+00 7.282576e+00 4.898742e+01 6.782751e+01 5.467545e+01 6.419723e+01 6.532784e+01 7.024581e+01 8.184812e+01 8.257303e+01 6.526027e+01 6.404710e+01 6.433983e+01 6.312132e+01 6.322262e+01 6.199855e+01 6.192061e+01 6.079218e+01 6.063160e+01 5.970106e+01 5.950491e+01 5.878556e+01 5.851477e+01 5.788905e+01 5.740977e+01 5.673586e+01 5.602608e+01 5.533614e+01 5.455360e+01 5.399989e+01 5.333820e+01 5.299643e+01 5.244915e+01 5.215513e+01 5.153616e+01 5.110160e+01 5.031323e+01 4.971414e+01 4.885102e+01 4.829416e+01 4.764014e+01 4.737769e+01 4.705481e+01 4.703319e+01 4.684058e+01 4.654727e+01 4.370802e+01 4.017103e+01 3.843781e+01 3.550869e+01 3.839294e+01 4.061686e+01 3.847279e+01 3.550097e+01 3.308837e+01 2.964882e+01 2.688854e+01 2.439158e+01 2.728903e+01 3.360174e+01 3.409688e+01 3.289392e+01 3.273874e+01 3.212449e+01 3.193912e+01 3.126613e+01 3.084131e+01 3.000009e+01 2.937149e+01 2.856565e+01 2.789115e+01 2.727466e+01 2.660867e+01 2.619172e+01 2.545619e+01 2.511784e+01 2.423016e+01 2.392927e+01 2.294798e+01 2.269987e+01 2.170712e+01 2.151476e+01 2.058937e+01 2.037752e+01 1.948324e+01 1.910748e+01 1.826963e+01 1.772698e+01 1.704596e+01 1.632586e+01 1.585022e+01 1.497620e+01 1.477713e+01 1.377419e+01 1.380963e+01 1.263668e+01 1.279864e+01 1.142923e+01 1.158568e+01 1.006501e+01 1.019163e+01 8.729958e+00 8.848858e+00 7.608207e+00 7.631616e+00 6.690185e+00 6.458544e+00 5.795383e+00 5.131280e+00 4.709980e+00 4.072164e+00 6.225532e+00 6.759297e-01 0 0 0 0 
0 0 0 0 0 1.554444e-01 2.796666e-01 1.363470e-01 2.316675e-01 1.827016e-01 2.853136e-01 2.202863e-01 3.238106e-01 5.406594e+01 5.901215e+01 5.549939e+01 5.715365e+01 5.706852e+01 5.540693e+01 5.857676e+01 5.419436e+01 2.910762e+00 2.856564e+00 2.869623e+00 2.815167e+00 2.819667e+00 2.764973e+00 2.761478e+00 2.711073e+00 2.703899e+00 2.662344e+00 2.653587e+00 2.621468e+00 2.609380e+00 2.581444e+00 2.560044e+00 2.529957e+00 2.498263e+00 2.467460e+00 2.432519e+00 2.407797e+00 2.378253e+00 2.362994e+00 2.338559e+00 2.325432e+00 2.297798e+00 2.278399e+00 2.243206e+00 2.216464e+00 2.177938e+00 2.153083e+00 2.123893e+00 2.112180e+00 2.097770e+00 2.096806e+00 2.088212e+00 1.512839e+00 3.615765e+00 7.180531e+00 6.475883e+00 9.266101e+00 8.430095e+00 4.673250e+00 6.374423e+00 8.947368e+00 9.634996e+00 1.197884e+01 1.255763e+01 1.199113e+01 1.145666e+01 5.860673e+00 8.746385e-01 1.302041e+00 1.459053e+00 1.431660e+00 1.423394e+00 1.393383e+00 1.374440e+00 1.336930e+00 1.308899e+00 1.272968e+00 1.242890e+00 1.215402e+00 1.185703e+00 1.167110e+00 1.134311e+00 1.119223e+00 1.079643e+00 1.066227e+00 1.022481e+00 1.011422e+00 9.671737e-01 9.586059e-01 9.173679e-01 9.079351e-01 8.680893e-01 8.513488e-01 8.140183e-01 7.898341e-01 7.594878e-01 7.273871e-01 7.061849e-01 6.672183e-01 6.583347e-01 6.136241e-01 6.151922e-01 5.629178e-01 5.701358e-01 5.091311e-01 5.161241e-01 4.484120e-01 4.540972e-01 3.890429e-01 3.943993e-01 3.392055e-01 3.403067e-01 2.984364e-01 2.881673e-01 2.586983e-01 2.292241e-01 2.105675e-01 1.819115e-01 2.774031e-01 3.011170e-02 0 0 0 0 
0 0 0 0 0 0 0 0 0 0 0 0 0 5.914040e+01 6.438770e+01 6.055059e+01 6.207676e+01 6.247927e+01 5.998876e+01 6.438490e+01 5.884277e+01 0 0 0 0 0 0 0 0 0 0 0 0 0 0 0 0 0 0 0 0 0 0 0 0 0 0 0 0 0 0 0 0 0 0 0 1.597523e-01 2.226735e+00 3.227424e+00 2.322872e+00 2.767009e+00 2.613515e+00 1.668660e+00 1.654822e+00 2.077691e+00 1.514402e+00 1.866968e+00 1.615981e+00 7.588295e-01 5.609356e-01 6.774212e-01 8.632392e-01 2.042354e-01 0 0 0 0 0 0 0 0 0 0 0 0 0 0 0 0 0 0 0 0 0 0 0 0 0 0 0 0 0 0 0 0 0 0 0 0 0 0 0 0 0 0 0 0 0 0 0 0 0 0 0 0 0 0 0 
0 0 0 0 0 0 0 0 0 0 0 0 0 5.814291e+01 6.011841e+01 5.843397e+01 5.916071e+01 5.913306e+01 5.840201e+01 5.999811e+01 5.811786e+01 0 0 0 0 0 0 0 0 0 0 0 0 0 0 0 0 0 0 0 0 0 0 0 0 0 0 0 0 0 0 0 0 0 0 0 4.149857e-02 7.661397e-01 1.190770e+00 9.698911e-01 1.208936e+00 1.203428e+00 8.564214e-01 9.694862e-01 1.363169e+00 1.296260e+00 1.371082e+00 1.348082e+00 1.582746e+00 2.163428e+00 1.318403e+00 2.116232e-01 5.263814e-03 0 0 0 0 0 0 0 0 0 0 0 0 0 0 0 0 0 0 0 0 0 0 0 0 0 0 0 0 0 0 0 0 0 0 0 0 0 0 0 0 0 0 0 0 0 0 0 0 0 0 0 0 0 0 0 
0 0 0 0 0 0 0 0 0 0 0 0 0 6.170808e+01 6.432899e+01 6.227598e+01 6.305710e+01 6.335108e+01 6.190876e+01 6.450096e+01 6.135974e+01 0 0 0 0 0 0 0 0 0 0 0 0 0 0 0 0 0 0 0 0 0 0 0 0 0 0 0 0 0 0 0 0 0 0 0 1.573364e-03 2.889857e-02 4.612798e-02 3.501896e-02 4.238602e-02 5.332508e-02 5.750021e-02 7.293395e-02 8.603282e-02 7.776838e-02 6.716803e-02 5.103377e-02 4.838989e-02 6.526254e-02 5.263893e-02 2.043654e-02 2.860353e-03 0 0 0 0 0 0 0 0 0 0 0 0 0 0 0 0 0 0 0 0 0 0 0 0 0 0 0 0 0 0 0 0 0 0 0 0 0 0 0 0 0 0 0 0 0 0 0 0 0 0 0 0 0 0 0 
0 0 0 0 0 0 0 0 0 0 0 0 0 5.814010e+01 6.011937e+01 5.842917e+01 5.916095e+01 5.912593e+01 5.840014e+01 5.998838e+01 5.811227e+01 0 0 0 0 0 0 0 0 0 0 0 0 0 0 0 0 0 0 0 0 0 0 0 0 0 0 0 0 0 0 0 0 0 0 0 0 0 0 0 0 0 0 0 0 0 0 0 0 0 0 0 0 0 0 0 0 0 0 0 0 0 0 0 0 0 0 0 0 0 0 0 0 0 0 0 0 0 0 0 0 0 0 0 0 0 0 0 0 0 0 0 0 0 0 0 0 0 0 0 0 0 0 0 0 0 0 0 
0 0 0 0 0 0 0 0 0 0 0 0 0 5.913504e+01 6.438849e+01 6.053980e+01 6.208015e+01 6.246629e+01 5.998838e+01 6.437171e+01 5.882817e+01 0 0 0 0 0 0 0 0 0 0 0 0 0 0 0 0 0 0 0 0 0 0 0 0 0 0 0 0 0 0 0 0 0 0 0 0 0 0 0 0 0 0 0 0 0 0 0 0 0 0 0 0 0 0 0 0 0 0 0 0 0 0 0 0 0 0 0 0 0 0 0 0 0 0 0 0 0 0 0 0 0 0 0 0 0 0 0 0 0 0 0 0 0 0 0 0 0 0 0 0 0 0 0 0 0 0 0 
0 0 0 0 0 1.554596e-01 2.805794e-01 1.379302e-01 2.329739e-01 1.837163e-01 2.853745e-01 2.204030e-01 3.229697e-01 5.406344e+01 5.901878e+01 5.548585e+01 5.716006e+01 5.704889e+01 5.540867e+01 5.855257e+01 5.417570e+01 2.911720e+00 2.856037e+00 2.866679e+00 2.808759e+00 2.812528e+00 2.759176e+00 2.760611e+00 2.715939e+00 2.715283e+00 2.677920e+00 2.669525e+00 2.632669e+00 2.610850e+00 2.572858e+00 2.541968e+00 2.509815e+00 2.479610e+00 2.459541e+00 2.434045e+00 2.421703e+00 2.393692e+00 2.377862e+00 2.341325e+00 2.319029e+00 2.278113e+00 2.254850e+00 2.217820e+00 2.198720e+00 2.167355e+00 2.147652e+00 2.114923e+00 2.088733e+00 2.053953e+00 2.024699e+00 1.992834e+00 1.964397e+00 1.936945e+00 1.907978e+00 1.880853e+00 1.846162e+00 1.815574e+00 1.776572e+00 1.746797e+00 1.708945e+00 1.684463e+00 1.650298e+00 1.630506e+00 1.597566e+00 1.577602e+00 1.542984e+00 1.522793e+00 1.489581e+00 1.470859e+00 1.439480e+00 1.419000e+00 1.387530e+00 1.362841e+00 1.331144e+00 1.301654e+00 1.272797e+00 1.242425e+00 1.221321e+00 1.191197e+00 1.176142e+00 1.142753e+00 1.129992e+00 1.090675e+00 1.076990e+00 1.032042e+00 1.017927e+00 9.716112e-01 9.572829e-01 9.123561e-01 8.977749e-01 8.600696e-01 8.465516e-01 8.179393e-01 7.992875e-01 7.757139e-01 7.454453e-01 7.248140e-01 6.804156e-01 6.645807e-01 6.114665e-01 6.077691e-01 5.531992e-01 5.617116e-01 5.049538e-01 5.177816e-01 4.560835e-01 4.646559e-01 3.998678e-01 4.024874e-01 3.447601e-01 3.422518e-01 2.975174e-01 2.841837e-01 2.545096e-01 2.263926e-01 2.105030e-01 1.820024e-01 2.777854e-01 3.029333e-02 0 0 0 0 
0 0 0 0 0 3.496000e+00 6.335719e+00 3.149509e+00 5.254203e+00 4.131411e+00 6.414908e+00 4.959037e+00 7.263677e+00 4.898664e+01 6.780030e+01 5.464028e+01 6.422393e+01 6.530320e+01 7.027078e+01 8.188073e+01 8.251183e+01 6.528180e+01 6.403543e+01 6.427401e+01 6.297796e+01 6.306288e+01 6.186881e+01 6.190125e+01 6.090115e+01 6.088652e+01 6.004982e+01 5.986179e+01 5.903631e+01 5.854763e+01 5.769669e+01 5.700490e+01 5.628471e+01 5.560829e+01 5.515879e+01 5.458782e+01 5.431143e+01 5.368411e+01 5.332956e+01 5.251121e+01 5.201180e+01 5.109525e+01 5.057411e+01 4.974453e+01 4.931661e+01 4.861387e+01 4.817241e+01 4.743905e+01 4.685222e+01 4.607286e+01 4.541736e+01 4.470327e+01 4.406605e+01 4.345082e+01 4.280171e+01 4.219379e+01 4.141635e+01 4.073078e+01 3.985667e+01 3.918931e+01 3.834088e+01 3.779211e+01 3.702628e+01 3.658261e+01 3.584416e+01 3.539660e+01 3.462045e+01 3.416778e+01 3.342309e+01 3.300328e+01 3.229964e+01 3.184040e+01 3.113468e+01 3.058106e+01 2.987022e+01 2.920895e+01 2.856179e+01 2.788074e+01 2.740748e+01 2.673198e+01 2.639439e+01 2.564564e+01 2.535945e+01 2.447765e+01 2.417068e+01 2.316239e+01 2.284568e+01 2.180652e+01 2.148492e+01 2.047674e+01 2.014941e+01 1.930315e+01 1.899970e+01 1.835751e+01 1.793900e+01 1.741001e+01 1.673106e+01 1.626826e+01 1.527240e+01 1.491733e+01 1.372582e+01 1.364309e+01 1.241859e+01 1.260957e+01 1.133543e+01 1.162278e+01 1.023708e+01 1.042844e+01 8.972746e+00 9.030234e+00 7.732729e+00 7.675161e+00 6.669435e+00 6.369043e+00 5.701295e+00 5.067692e+00 4.708637e+00 4.074260e+00 6.234114e+00 6.800047e-01 0 0 0 0 
0 0 0 0 0 5.062300e+00 9.180885e+00 4.572666e+00 7.612036e+00 5.982383e+00 9.288284e+00 7.181468e+00 1.051817e+01 1.450139e+01 2.105301e+01 2.757315e+01 3.906591e+01 5.177982e+01 6.388619e+01 7.449953e+01 9.355088e+01 9.447970e+01 9.267640e+01 9.302169e+01 9.114660e+01 9.126961e+01 8.954202e+01 8.958903e+01 8.814201e+01 8.812085e+01 8.691019e+01 8.663810e+01 8.544364e+01 8.473652e+01 8.350520e+01 8.250420e+01 8.146208e+01 8.048331e+01 7.983289e+01 7.900671e+01 7.860679e+01 7.769907e+01 7.718605e+01 7.600188e+01 7.527922e+01 7.395295e+01 7.319884e+01 7.199838e+01 7.137915e+01 7.036222e+01 6.972338e+01 6.866213e+01 6.781293e+01 6.668510e+01 6.573651e+01 6.470312e+01 6.378099e+01 6.289066e+01 6.195131e+01 6.107156e+01 5.994649e+01 5.895436e+01 5.768937e+01 5.672357e+01 5.549574e+01 5.470156e+01 5.359324e+01 5.295115e+01 5.188244e+01 5.123471e+01 5.011144e+01 4.945630e+01 4.837852e+01 4.777095e+01 4.675257e+01 4.608791e+01 4.506650e+01 4.426525e+01 4.323643e+01 4.227939e+01 4.134273e+01 4.035705e+01 3.967209e+01 3.869445e+01 3.820585e+01 3.712217e+01 3.670797e+01 3.543170e+01 3.498740e+01 3.352800e+01 3.306958e+01 3.156545e+01 3.109992e+01 2.964058e+01 2.916675e+01 2.794177e+01 2.750250e+01 2.657291e+01 2.596714e+01 2.520144e+01 2.421873e+01 2.354888e+01 2.210750e+01 2.159362e+01 1.986902e+01 1.974932e+01 1.797689e+01 1.825334e+01 1.640891e+01 1.682473e+01 1.481864e+01 1.509538e+01 1.298781e+01 1.307070e+01 1.119205e+01 1.110839e+01 9.652145e+00 9.217032e+00 8.250006e+00 7.332202e+00 6.811843e+00 5.894908e+00 9.023921e+00 9.843510e-01 0 0 0 0 
0 0 0 0 0 1.721759e+00 3.125745e+00 1.561087e+00 2.590807e+00 2.034688e+00 3.158751e+00 2.442835e+00 3.577461e+00 4.929980e+00 7.156316e+00 9.372694e+00 1.327945e+01 1.760029e+01 2.171481e+01 2.532110e+01 3.179400e+01 3.210962e+01 3.149701e+01 3.161436e+01 3.097740e+01 3.101926e+01 3.043239e+01 3.044839e+01 2.995679e+01 2.994961e+01 2.953828e+01 2.944583e+01 2.903999e+01 2.879974e+01 2.838137e+01 2.804127e+01 2.768718e+01 2.735463e+01 2.713364e+01 2.685294e+01 2.671706e+01 2.640865e+01 2.623434e+01 2.583200e+01 2.558645e+01 2.513581e+01 2.487957e+01 2.447167e+01 2.426125e+01 2.391570e+01 2.369862e+01 2.333800e+01 2.304944e+01 2.266619e+01 2.234385e+01 2.199269e+01 2.167934e+01 2.137678e+01 2.105758e+01 2.075862e+01 2.037630e+01 2.003915e+01 1.960927e+01 1.928106e+01 1.886380e+01 1.859391e+01 1.821726e+01 1.799905e+01 1.763585e+01 1.741572e+01 1.703397e+01 1.681131e+01 1.644502e+01 1.623852e+01 1.589240e+01 1.566651e+01 1.531935e+01 1.504703e+01 1.469736e+01 1.437209e+01 1.405374e+01 1.371874e+01 1.348593e+01 1.315366e+01 1.298760e+01 1.261928e+01 1.247851e+01 1.204472e+01 1.189370e+01 1.139765e+01 1.124182e+01 1.073054e+01 1.057228e+01 1.007620e+01 9.915117e+00 9.498690e+00 9.349353e+00 9.033339e+00 8.827426e+00 8.567139e+00 8.233120e+00 8.005436e+00 7.515518e+00 7.340867e+00 6.754668e+00 6.714008e+00 6.111509e+00 6.205477e+00 5.578437e+00 5.719723e+00 5.037643e+00 5.131593e+00 4.414936e+00 4.442951e+00 3.804079e+00 3.775484e+00 3.280227e+00 3.132172e+00 2.803221e+00 2.490902e+00 2.313709e+00 2.002650e+00 3.067593e+00 3.346396e-01 0 0 0 0 
0 0 0 0 0 0 0 0 0 0 0 0 0 0 0 0 0 0 0 0 0 0 0 0 0 0 0 0 0 0 0 0 0 0 0 0 0 0 0 0 0 0 0 0 0 0 0 0 0 0 0 0 0 0 0 0 0 0 0 0 0 0 0 0 0 0 0 0 0 0 0 0 0 0 0 0 0 0 0 0 0 0 0 0 0 0 0 0 0 0 0 0 0 0 0 0 0 0 0 0 0 0 0 0 0 0 0 0 0 0 0 0 0 0 0 0 0 0 0 0 0 0 0 0 0 0 0 0 
