# vtk DataFile Version 2.0
Comment goes here
ASCII

DATASET STRUCTURED_POINTS
FIELD FieldData 1
TIME 1 1 double
0.24000000
DIMENSIONS    128   16   1

ORIGIN    0.000   0.000   0.000
SPACING   0.0078125 0.015625   1.000

POINT_DATA   2048
SCALARS fMag double
LOOKUP_TABLE default

0 0 0 0 0 0 0 0 0 0 0 0 0 0 0 0 0 0 0 0 0 0 0 0 0 0 0 0 0 0 0 0 0 0 0 0 0 0 0 0 0 0 0 0 0 0 0 0 0 0 0 0 0 0 0 0 0 0 0 0 0 0 0 0 0 0 0 0 0 0 0 0 0 0 0 0 0 0 0 0 0 0 0 0 0 0 0 0 0 0 0 0 0 0 0 0 0 0 0 0 0 0 0 0 0 0 0 0 0 0 0 0 0 0 0 0 0 0 0 0 0 0 0 0 0 0 0 0 
0 0 0 0 0 0 0 0 0 0 0 0 0 0 0 0 0 0 0 0 0 0 0 0 0 0 0 0 0 0 0 0 0 0 0 0 0 0 0 0 0 0 0 0 0 0 0 0 0 0 0 0 0 0 0 0 0 0 0 0 0 0 0 0 0 0 0 0 0 0 0 0 0 0 0 0 0 0 0 0 0 0 0 0 0 0 0 0 0 0 0 0 0 0 0 0 0 0 0 0 0 0 0 0 0 0 0 0 0 0 0 0 0 0 0 0 0 0 0 0 0 0 0 0 0 0 0 0 
0 0 0 0 0 1.111081e+00 2.504144e+00 1.995794e+00 2.012963e+00 1.873157e+00 2.436203e+00 2.158853e+00 2.980500e+00 4.071346e+00 5.773678e+00 7.041525e+00 1.103193e+01 1.411000e+01 1.734563e+01 2.087010e+01 2.492699e+01 2.561246e+01 2.549853e+01 2.608124e+01 2.606061e+01 2.623512e+01 2.576925e+01 2.489767e+01 2.365999e+01 2.264881e+01 2.230797e+01 2.242339e+01 2.293684e+01 2.302848e+01 2.298198e+01 2.248503e+01 2.236136e+01 2.219524e+01 2.220500e+01 2.177386e+01 2.149087e+01 2.115860e+01 2.099709e+01 2.082588e+01 2.070776e+01 2.052426e+01 2.026481e+01 2.011048e+01 1.988743e+01 1.991825e+01 1.986884e+01 1.975294e+01 1.894155e+01 1.804880e+01 1.699734e+01 1.644386e+01 1.624647e+01 1.610771e+01 1.628075e+01 1.728114e+01 1.614832e+01 1.608909e+01 1.645417e+01 1.358277e+01 1.168205e+01 1.084609e+01 1.105912e+01 1.214724e+01 1.322958e+01 1.317723e+01 1.672554e+01 1.777981e+01 1.462440e+01 1.296942e+01 1.218679e+01 1.197707e+01 1.179271e+01 1.188217e+01 1.192143e+01 1.223650e+01 1.237946e+01 1.240067e+01 1.183579e+01 1.127534e+01 1.062641e+01 1.010955e+01 9.541927e+00 9.376584e+00 9.564103e+00 9.757985e+00 9.800225e+00 9.327633e+00 8.452132e+00 6.989602e+00 6.137792e+00 5.611672e+00 6.159294e+00 6.774005e+00 7.840924e+00 7.815901e+00 7.648167e+00 6.934384e+00 6.925728e+00 6.704470e+00 6.807179e+00 6.311566e+00 5.485913e+00 4.374199e+00 3.302907e+00 2.506508e+00 1.883794e+00 2.386157e+00 2.917471e+00 4.198434e+00 4.408512e+00 4.638321e+00 3.132684e+00 2.338340e+00 1.119140e+00 1.239253e+00 9.011627e-01 1.789732e+00 1.608686e+00 5.220523e-01 0 0 0 0 
0 0 0 0 0 3.267544e+00 7.366869e+00 5.871600e+00 5.919266e+00 5.506632e+00 7.162033e+00 6.345322e+00 8.762376e+00 1.197469e+01 1.698506e+01 2.071436e+01 3.245255e+01 4.150861e+01 5.102860e+01 6.139992e+01 7.333857e+01 7.535574e+01 7.502046e+01 7.673542e+01 7.667473e+01 7.718838e+01 7.581736e+01 7.325227e+01 6.960993e+01 6.663408e+01 6.563103e+01 6.597068e+01 6.748160e+01 6.775126e+01 6.761442e+01 6.615195e+01 6.578798e+01 6.529910e+01 6.532785e+01 6.405910e+01 6.322635e+01 6.224858e+01 6.177331e+01 6.126951e+01 6.092191e+01 6.038193e+01 5.961844e+01 5.916428e+01 5.850791e+01 5.859859e+01 5.845317e+01 5.811214e+01 5.572452e+01 5.309757e+01 5.000368e+01 4.837509e+01 4.811317e+01 4.911275e+01 5.026859e+01 5.282814e+01 5.214383e+01 5.030778e+01 4.722029e+01 4.106632e+01 3.701014e+01 3.515165e+01 3.705903e+01 4.129638e+01 4.670666e+01 4.872001e+01 5.139146e+01 4.867594e+01 4.268649e+01 3.815232e+01 3.584970e+01 3.523268e+01 3.469028e+01 3.495347e+01 3.506899e+01 3.599596e+01 3.641655e+01 3.647900e+01 3.481711e+01 3.316825e+01 3.125914e+01 2.973854e+01 2.806868e+01 2.758224e+01 2.813386e+01 2.870426e+01 2.882852e+01 2.743816e+01 2.486259e+01 2.056002e+01 1.805420e+01 1.650651e+01 1.811742e+01 1.992575e+01 2.306450e+01 2.299098e+01 2.249766e+01 2.039811e+01 2.037281e+01 1.972211e+01 2.002443e+01 1.856666e+01 1.613779e+01 1.286777e+01 9.716337e+00 7.373764e+00 5.541853e+00 7.019187e+00 8.581887e+00 1.234955e+01 1.296738e+01 1.364353e+01 9.215020e+00 6.879488e+00 3.295971e+00 3.655619e+00 2.677316e+00 5.296701e+00 4.746706e+00 1.535112e+00 0 0 0 0 
0 0 0 0 0 2.256916e+00 5.089565e+00 4.056637e+00 4.088190e+00 3.802462e+00 4.945645e+00 4.381023e+00 6.050837e+00 3.923531e+01 4.927963e+01 4.420394e+01 5.592263e+01 5.204041e+01 6.083801e+01 6.439495e+01 6.432283e+01 5.206467e+01 5.183297e+01 5.301814e+01 5.297621e+01 5.333121e+01 5.238376e+01 5.061112e+01 4.809413e+01 4.603767e+01 4.534452e+01 4.557923e+01 4.662329e+01 4.680962e+01 4.671505e+01 4.570442e+01 4.545289e+01 4.511507e+01 4.513493e+01 4.425821e+01 4.368277e+01 4.300713e+01 4.267871e+01 4.233059e+01 4.209040e+01 4.171727e+01 4.118968e+01 4.087585e+01 4.042229e+01 4.048494e+01 4.038445e+01 4.014880e+01 3.849898e+01 3.668379e+01 3.454600e+01 3.342070e+01 3.368014e+01 3.633971e+01 3.757001e+01 3.692234e+01 3.902241e+01 3.770455e+01 3.315256e+01 3.142917e+01 2.851852e+01 2.699856e+01 2.891361e+01 3.181342e+01 3.543248e+01 3.907718e+01 3.670855e+01 3.044855e+01 2.918255e+01 2.635739e+01 2.476646e+01 2.434015e+01 2.396540e+01 2.414725e+01 2.422706e+01 2.486752e+01 2.515811e+01 2.520127e+01 2.405308e+01 2.291388e+01 2.159492e+01 2.054435e+01 1.939069e+01 1.905461e+01 1.943570e+01 1.982978e+01 1.991562e+01 1.895503e+01 1.717567e+01 1.420314e+01 1.247198e+01 1.140277e+01 1.251564e+01 1.376494e+01 1.593342e+01 1.588266e+01 1.554191e+01 1.409154e+01 1.407414e+01 1.362470e+01 1.383364e+01 1.282663e+01 1.114864e+01 8.889717e+00 6.712557e+00 5.094300e+00 3.828699e+00 4.849080e+00 5.928533e+00 8.531142e+00 8.957887e+00 9.425053e+00 6.365949e+00 4.753038e+00 2.278842e+00 2.530373e+00 1.862622e+00 3.674784e+00 3.286242e+00 1.060228e+00 0 0 0 0 
0 0 0 0 0 1.004528e-01 2.268400e-01 1.808315e-01 1.818877e-01 1.689877e-01 2.198152e-01 1.945539e-01 2.689617e-01 4.400783e+01 4.823003e+01 4.513557e+01 4.743485e+01 4.656095e+01 4.601792e+01 4.830278e+01 4.429722e+01 2.321388e+00 2.311046e+00 2.363957e+00 2.362088e+00 2.377942e+00 2.335653e+00 2.256522e+00 2.144188e+00 2.052398e+00 2.021462e+00 2.031936e+00 2.078522e+00 2.086834e+00 2.082612e+00 2.037506e+00 2.026278e+00 2.011202e+00 2.012089e+00 1.972968e+00 1.947290e+00 1.917146e+00 1.902492e+00 1.886960e+00 1.876243e+00 1.859594e+00 1.836052e+00 1.822049e+00 1.801810e+00 1.804603e+00 1.800119e+00 1.789605e+00 1.715999e+00 1.635022e+00 1.539665e+00 1.489470e+00 1.757876e+00 2.779513e+00 3.051277e+00 1.033155e+00 2.683853e+00 2.513847e+00 8.290723e-01 2.489446e+00 1.743002e+00 2.026914e+00 2.072751e+00 2.485862e+00 2.166430e+00 2.940202e+00 1.490189e+00 1.220204e+00 1.012198e+00 1.174488e+00 1.103553e+00 1.084545e+00 1.067838e+00 1.075946e+00 1.079505e+00 1.108059e+00 1.121015e+00 1.122942e+00 1.071759e+00 1.020974e+00 9.621832e-01 9.153522e-01 8.639354e-01 8.489530e-01 8.659348e-01 8.835011e-01 8.873266e-01 8.445066e-01 7.652063e-01 6.327229e-01 5.555770e-01 5.079336e-01 5.575186e-01 6.131910e-01 7.098403e-01 7.075893e-01 6.924186e-01 6.278136e-01 6.270588e-01 6.070538e-01 6.163859e-01 5.715357e-01 4.967606e-01 3.961427e-01 2.991279e-01 2.270437e-01 1.706402e-01 2.160502e-01 2.641171e-01 3.800210e-01 3.990169e-01 4.198474e-01 2.836130e-01 2.118895e-01 1.020113e-01 1.140060e-01 8.645968e-02 1.678113e-01 1.482216e-01 4.716803e-02 0 0 0 0 
0 0 0 0 0 0 0 0 0 0 0 0 0 4.806108e+01 5.209874e+01 4.925687e+01 5.116515e+01 5.082890e+01 4.952844e+01 5.252667e+01 4.760962e+01 0 0 0 0 0 0 0 0 0 0 0 0 0 0 0 0 0 0 0 0 0 0 0 0 0 0 0 0 0 0 0 0 0 0 0 2.088189e-02 1.836123e-01 5.437575e-02 4.877231e-01 3.574551e-01 5.854409e-01 1.005440e+00 5.168196e-01 6.960715e-01 8.976909e-02 4.293428e-01 1.620777e-01 1.710822e-01 6.559207e-01 7.177417e-01 9.113499e-01 1.403931e-01 0 0 0 0 0 0 0 0 0 0 0 0 0 0 0 0 0 0 0 0 0 0 0 0 0 0 0 0 0 0 0 0 0 0 0 0 0 0 0 0 0 0 0 0 0 0 0 0 0 0 0 0 0 0 0 
0 0 0 0 0 0 0 0 0 0 0 0 0 4.793824e+01 4.978564e+01 4.818580e+01 4.907049e+01 4.881621e+01 4.844427e+01 4.964050e+01 4.814099e+01 0 0 0 0 0 0 0 0 0 0 0 0 0 0 0 0 0 0 0 0 0 0 0 0 0 0 0 0 0 0 0 0 0 0 0 3.822068e-02 4.094790e-01 5.111210e-01 1.451576e-01 4.394515e-03 4.560549e-01 6.621713e-01 1.033733e+00 8.036171e-01 6.085125e-01 4.350019e-01 1.297693e-02 4.177716e-01 2.808925e-02 2.058449e-01 1.425531e-01 2.885806e-02 0 0 0 0 0 0 0 0 0 0 0 0 0 0 0 0 0 0 0 0 0 0 0 0 0 0 0 0 0 0 0 0 0 0 0 0 0 0 0 0 0 0 0 0 0 0 0 0 0 0 0 0 0 0 0 
0 0 0 0 0 0 0 0 0 0 0 0 0 5.048581e+01 5.265693e+01 5.092357e+01 5.179281e+01 5.180383e+01 5.086388e+01 5.278827e+01 5.024904e+01 0 0 0 0 0 0 0 0 0 0 0 0 0 0 0 0 0 0 0 0 0 0 0 0 0 0 0 0 0 0 0 0 0 0 0 2.738007e-03 2.793781e-02 3.389213e-02 2.610939e-03 2.308926e-03 2.621796e-02 4.764390e-02 6.120392e-02 4.493177e-02 2.611362e-02 1.897780e-02 7.176732e-03 3.958310e-02 2.254423e-02 6.688516e-03 4.381791e-03 5.428890e-04 0 0 0 0 0 0 0 0 0 0 0 0 0 0 0 0 0 0 0 0 0 0 0 0 0 0 0 0 0 0 0 0 0 0 0 0 0 0 0 0 0 0 0 0 0 0 0 0 0 0 0 0 0 0 0 
0 0 0 0 0 0 0 0 0 0 0 0 0 4.801771e+01 4.982758e+01 4.826344e+01 4.910279e+01 4.887993e+01 4.844236e+01 4.965204e+01 4.809027e+01 0 0 0 0 0 0 0 0 0 0 0 0 0 0 0 0 0 0 0 0 0 0 0 0 0 0 0 0 0 0 0 0 0 0 0 0 0 0 0 0 0 0 0 0 0 0 0 0 0 0 0 0 0 0 0 0 0 0 0 0 0 0 0 0 0 0 0 0 0 0 0 0 0 0 0 0 0 0 0 0 0 0 0 0 0 0 0 0 0 0 0 0 0 0 0 0 0 0 0 0 0 0 0 0 0 0 0 
0 0 0 0 0 0 0 0 0 0 0 0 0 4.821524e+01 5.218071e+01 4.937821e+01 5.122560e+01 5.091039e+01 4.951067e+01 5.252426e+01 4.755756e+01 0 0 0 0 0 0 0 0 0 0 0 0 0 0 0 0 0 0 0 0 0 0 0 0 0 0 0 0 0 0 0 0 0 0 0 0 0 0 0 0 0 0 0 0 0 0 0 0 0 0 0 0 0 0 0 0 0 0 0 0 0 0 0 0 0 0 0 0 0 0 0 0 0 0 0 0 0 0 0 0 0 0 0 0 0 0 0 0 0 0 0 0 0 0 0 0 0 0 0 0 0 0 0 0 0 0 0 
0 0 0 0 0 1.010926e-01 2.136736e-01 1.513684e-01 1.630146e-01 1.519290e-01 2.272559e-01 2.022683e-01 2.838628e-01 4.427766e+01 4.835396e+01 4.541388e+01 4.761240e+01 4.690310e+01 4.604568e+01 4.840169e+01 4.396694e+01 2.324824e+00 2.285474e+00 2.319334e+00 2.314388e+00 2.327028e+00 2.281664e+00 2.223426e+00 2.156898e+00 2.110373e+00 2.086652e+00 2.062620e+00 2.066235e+00 2.066855e+00 2.094680e+00 2.100813e+00 2.122673e+00 2.108021e+00 2.088605e+00 2.037720e+00 1.991950e+00 1.909969e+00 1.819301e+00 1.732250e+00 1.677094e+00 1.659781e+00 1.689949e+00 1.753376e+00 1.787728e+00 1.777804e+00 1.716982e+00 1.649528e+00 1.587865e+00 1.571958e+00 1.569658e+00 1.569115e+00 1.550583e+00 1.540911e+00 1.545241e+00 1.561915e+00 1.579695e+00 1.582673e+00 1.560073e+00 1.496203e+00 1.406511e+00 1.303242e+00 1.235303e+00 1.215898e+00 1.245118e+00 1.281724e+00 1.313389e+00 1.321516e+00 1.300266e+00 1.258431e+00 1.215106e+00 1.184504e+00 1.139213e+00 1.098465e+00 1.046082e+00 1.017244e+00 1.002643e+00 1.049898e+00 1.088598e+00 1.097919e+00 1.031662e+00 9.485405e-01 8.578482e-01 8.069833e-01 7.968825e-01 8.278142e-01 8.890484e-01 9.413963e-01 9.813137e-01 9.554459e-01 9.217420e-01 8.406792e-01 7.848679e-01 6.865671e-01 6.393401e-01 5.639705e-01 5.487599e-01 5.075655e-01 5.118283e-01 4.768692e-01 4.824475e-01 4.857481e-01 5.068755e-01 4.964553e-01 4.598118e-01 4.338717e-01 3.889841e-01 3.944981e-01 3.629798e-01 3.828130e-01 3.256202e-01 3.323185e-01 2.547924e-01 2.577415e-01 1.980068e-01 2.295523e-01 1.894686e-01 2.151949e-01 1.619503e-01 4.628121e-02 0 0 0 0 
0 0 0 0 0 2.271266e+00 4.793787e+00 3.394965e+00 3.664089e+00 3.418790e+00 5.112122e+00 4.554055e+00 6.384959e+00 3.957574e+01 4.946597e+01 4.439082e+01 5.612750e+01 5.216504e+01 6.067912e+01 6.437463e+01 6.460602e+01 5.214159e+01 5.126014e+01 5.201861e+01 5.190774e+01 5.219074e+01 5.117435e+01 4.986968e+01 4.837902e+01 4.733668e+01 4.680519e+01 4.626682e+01 4.634791e+01 4.636186e+01 4.698544e+01 4.712292e+01 4.761275e+01 4.728448e+01 4.684943e+01 4.570921e+01 4.468357e+01 4.284629e+01 4.081431e+01 3.886307e+01 3.762680e+01 3.723869e+01 3.791489e+01 3.933670e+01 4.010668e+01 3.988424e+01 3.852098e+01 3.700892e+01 3.562663e+01 3.527005e+01 3.521850e+01 3.520632e+01 3.479086e+01 3.457402e+01 3.467109e+01 3.504491e+01 3.544351e+01 3.551028e+01 3.500359e+01 3.357164e+01 3.156057e+01 2.924490e+01 2.772140e+01 2.728621e+01 2.794149e+01 2.876242e+01 2.947250e+01 2.965475e+01 2.917824e+01 2.824004e+01 2.726845e+01 2.658212e+01 2.556634e+01 2.465239e+01 2.347742e+01 2.283054e+01 2.250296e+01 2.356284e+01 2.443092e+01 2.463988e+01 2.315350e+01 2.128895e+01 1.925414e+01 1.811304e+01 1.788641e+01 1.858034e+01 1.995432e+01 2.112869e+01 2.202433e+01 2.144423e+01 2.068817e+01 1.886962e+01 1.761738e+01 1.541152e+01 1.435162e+01 1.265980e+01 1.231812e+01 1.139305e+01 1.148823e+01 1.070300e+01 1.082780e+01 1.090162e+01 1.137549e+01 1.114153e+01 1.031947e+01 9.737469e+00 8.730574e+00 8.854947e+00 8.148097e+00 8.593797e+00 7.310350e+00 7.460556e+00 5.719260e+00 5.782614e+00 4.433061e+00 5.115293e+00 4.128642e+00 4.708945e+00 3.592218e+00 1.040275e+00 0 0 0 0 
0 0 0 0 0 3.288315e+00 6.938654e+00 4.913710e+00 5.305238e+00 4.951052e+00 7.402881e+00 6.595763e+00 9.245945e+00 1.230677e+01 1.720379e+01 2.079822e+01 3.266717e+01 4.217566e+01 5.233143e+01 6.281562e+01 7.424199e+01 7.546703e+01 7.419155e+01 7.528908e+01 7.512862e+01 7.553810e+01 7.406729e+01 7.217936e+01 7.002223e+01 6.851389e+01 6.774478e+01 6.696572e+01 6.708309e+01 6.710329e+01 6.800570e+01 6.820466e+01 6.891350e+01 6.843848e+01 6.780891e+01 6.615888e+01 6.467464e+01 6.201582e+01 5.907523e+01 5.625141e+01 5.446228e+01 5.390060e+01 5.487920e+01 5.693687e+01 5.805117e+01 5.772925e+01 5.575636e+01 5.356809e+01 5.156762e+01 5.105157e+01 5.097696e+01 5.095934e+01 5.035807e+01 5.004424e+01 5.018472e+01 5.072574e+01 5.130261e+01 5.139925e+01 5.066593e+01 4.859353e+01 4.568297e+01 4.233150e+01 4.012652e+01 3.949666e+01 4.044506e+01 4.163322e+01 4.266092e+01 4.292470e+01 4.223504e+01 4.087716e+01 3.947096e+01 3.847761e+01 3.700743e+01 3.568461e+01 3.398399e+01 3.304770e+01 3.257355e+01 3.410759e+01 3.536402e+01 3.566643e+01 3.351503e+01 3.081632e+01 2.787104e+01 2.621940e+01 2.589137e+01 2.689577e+01 2.888456e+01 3.058435e+01 3.188074e+01 3.104115e+01 2.994683e+01 2.731465e+01 2.550209e+01 2.230915e+01 2.077494e+01 1.832593e+01 1.783126e+01 1.649207e+01 1.662971e+01 1.549291e+01 1.567347e+01 1.578026e+01 1.646612e+01 1.612743e+01 1.493758e+01 1.409516e+01 1.263780e+01 1.281799e+01 1.179494e+01 1.244025e+01 1.058247e+01 1.079987e+01 8.278962e+00 8.369949e+00 6.414182e+00 7.395188e+00 5.944928e+00 6.785884e+00 5.189056e+00 1.506217e+00 0 0 0 0 
0 0 0 0 0 1.118141e+00 2.358541e+00 1.670113e+00 1.804163e+00 1.684191e+00 2.518015e+00 2.243976e+00 3.144849e+00 4.184224e+00 5.848037e+00 7.070038e+00 1.110489e+01 1.433672e+01 1.778840e+01 2.135121e+01 2.523397e+01 2.565027e+01 2.521688e+01 2.558980e+01 2.553527e+01 2.567439e+01 2.517461e+01 2.453311e+01 2.380010e+01 2.328758e+01 2.302623e+01 2.276152e+01 2.280141e+01 2.280828e+01 2.311494e+01 2.318255e+01 2.342343e+01 2.326202e+01 2.304808e+01 2.248739e+01 2.198302e+01 2.107950e+01 2.008022e+01 1.912058e+01 1.851258e+01 1.832169e+01 1.865426e+01 1.935354e+01 1.973222e+01 1.962282e+01 1.895237e+01 1.820870e+01 1.752885e+01 1.735348e+01 1.732812e+01 1.732213e+01 1.711779e+01 1.701113e+01 1.705888e+01 1.724274e+01 1.743879e+01 1.747163e+01 1.722242e+01 1.651810e+01 1.552891e+01 1.438984e+01 1.364043e+01 1.342635e+01 1.374869e+01 1.415252e+01 1.450181e+01 1.459146e+01 1.435707e+01 1.389555e+01 1.341762e+01 1.307999e+01 1.258030e+01 1.213068e+01 1.155265e+01 1.123441e+01 1.107324e+01 1.159464e+01 1.202170e+01 1.212447e+01 1.139320e+01 1.047590e+01 9.474750e+00 8.913342e+00 8.801839e+00 9.143245e+00 9.819282e+00 1.039706e+01 1.083773e+01 1.055237e+01 1.018041e+01 9.285706e+00 8.669582e+00 7.584201e+00 7.062657e+00 6.230096e+00 6.061898e+00 5.606584e+00 5.653314e+00 5.266786e+00 5.328117e+00 5.364390e+00 5.597504e+00 5.482360e+00 5.077917e+00 4.791565e+00 4.296207e+00 4.357538e+00 4.009824e+00 4.229263e+00 3.597741e+00 3.671627e+00 2.814494e+00 2.845076e+00 2.179128e+00 2.509447e+00 2.005755e+00 2.292135e+00 1.758789e+00 5.122236e-01 0 0 0 0 
0 0 0 0 0 0 0 0 0 0 0 0 0 0 0 0 0 0 0 0 0 0 0 0 0 0 0 0 0 0 0 0 0 0 0 0 0 0 0 0 0 0 0 0 0 0 0 0 0 0 0 0 0 0 0 0 0 0 0 0 0 0 0 0 0 0 0 0 0 0 0 0 0 0 0 0 0 0 0 0 0 0 0 0 0 0 0 0 0 0 0 0 0 0 0 0 0 0 0 0 0 0 0 0 0 0 0 0 0 0 0 0 0 0 0 0 0 0 0 0 0 0 0 0 0 0 0 0 
