# vtk DataFile Version 2.0
Comment goes here
ASCII

DATASET STRUCTURED_POINTS
FIELD FieldData 1
TIME 1 1 double
0.56000000
DIMENSIONS    128   16   1

ORIGIN    0.000   0.000   0.000
SPACING   0.0078125 0.015625   1.000

POINT_DATA   2048
SCALARS fX double
LOOKUP_TABLE default

0 0 0 0 0 0 0 0 0 0 0 0 0 0 0 0 0 0 0 0 0 0 0 0 0 0 0 0 0 0 0 0 0 0 0 0 0 0 0 0 0 0 0 0 0 0 0 0 0 0 0 0 0 0 0 0 0 0 0 0 0 0 0 0 0 0 0 0 0 0 0 0 0 0 0 0 0 0 0 0 0 0 0 0 0 0 0 0 0 0 0 0 0 0 0 0 0 0 0 0 0 0 0 0 0 0 0 0 0 0 0 0 0 0 0 0 0 0 0 0 0 0 0 0 0 0 0 0 
0 0 0 0 0 0 0 0 0 0 0 0 0 0 0 0 0 0 0 0 0 0 0 0 0 0 0 0 0 0 0 0 0 0 0 0 0 0 0 0 0 0 0 0 0 0 0 0 0 0 0 0 0 0 0 0 0 0 0 0 0 0 0 0 0 0 0 0 0 0 0 0 0 0 0 0 0 0 0 0 0 0 0 0 0 0 0 0 0 0 0 0 0 0 0 0 0 0 0 0 0 0 0 0 0 0 0 0 0 0 0 0 0 0 0 0 0 0 0 0 0 0 0 0 0 0 0 0 
0 0 0 0 0 1.087011e+00 2.570769e+00 6.474118e-01 7.522874e-01 8.258045e-01 8.069550e-01 8.148114e-01 -7.227633e-01 -4.481405e+00 -5.976217e+00 -4.679733e+00 -5.260647e+00 -5.141353e+00 -4.658060e+00 -5.762157e+00 -4.761042e+00 -1.754767e-01 7.571097e-01 8.410739e-01 7.682001e-01 8.316603e-01 7.635747e-01 8.031135e-01 7.483155e-01 7.647634e-01 7.293907e-01 7.270074e-01 7.140103e-01 6.971110e-01 7.057265e-01 6.788931e-01 7.060419e-01 6.731376e-01 7.136291e-01 6.765374e-01 7.239345e-01 6.848487e-01 7.338890e-01 6.952291e-01 7.409601e-01 7.054688e-01 7.439595e-01 7.114941e-01 7.414838e-01 7.120094e-01 7.289727e-01 7.036082e-01 7.019358e-01 6.820064e-01 6.558813e-01 3.918850e-01 -1.472938e+00 -2.747915e+00 -1.470685e+00 -1.738007e+00 -1.593214e-01 4.357858e+00 2.344771e+00 -1.962126e+00 -2.040849e+00 -2.193774e+00 -2.527744e+00 -2.100890e+00 -2.000996e+00 2.653304e+00 7.241397e+00 4.511794e+00 1.176064e+00 9.438576e-01 9.796838e-01 9.312048e-01 9.712668e-01 9.257582e-01 9.589944e-01 9.211906e-01 9.512258e-01 9.224347e-01 9.494788e-01 9.297887e-01 9.562172e-01 9.445110e-01 9.733122e-01 9.661531e-01 9.976973e-01 9.899907e-01 1.022025e+00 1.009113e+00 1.039043e+00 1.017397e+00 1.042845e+00 1.011984e+00 1.031666e+00 9.947999e-01 1.008368e+00 9.723245e-01 9.785041e-01 9.504028e-01 9.452561e-01 9.321925e-01 9.112336e-01 9.213163e-01 8.796120e-01 9.189344e-01 8.510604e-01 9.245127e-01 8.280380e-01 9.396626e-01 8.157691e-01 9.651121e-01 8.148817e-01 9.954438e-01 8.184087e-01 1.022997e+00 8.118063e-01 1.063310e+00 6.315868e-01 1.390584e+00 2.288829e+00 2.748241e-01 0 0 0 0 
0 0 0 0 0 3.196049e+00 7.553911e+00 1.895401e+00 2.209680e+00 2.428095e+00 2.372085e+00 2.394553e+00 -2.128270e+00 -1.318445e+01 -1.758074e+01 -1.376749e+01 -1.547639e+01 -1.512617e+01 -1.370479e+01 -1.695374e+01 -1.400831e+01 -5.162300e-01 2.227821e+00 2.474793e+00 2.260289e+00 2.446970e+00 2.246619e+00 2.362961e+00 2.201740e+00 2.250164e+00 2.146108e+00 2.139114e+00 2.100887e+00 2.051163e+00 2.076515e+00 1.997553e+00 2.077425e+00 1.980598e+00 2.099719e+00 1.990569e+00 2.130005e+00 2.014983e+00 2.159251e+00 2.045484e+00 2.180016e+00 2.075580e+00 2.188816e+00 2.093293e+00 2.181525e+00 2.094805e+00 2.144710e+00 2.070080e+00 2.065151e+00 2.006511e+00 1.929638e+00 1.152936e+00 -4.417205e+00 -8.403321e+00 -4.284989e+00 -3.825754e+00 2.411313e+00 1.581510e+01 8.338057e+00 -5.737040e+00 -6.483746e+00 -6.352253e+00 -6.066089e+00 -2.732152e+00 4.901659e-01 1.522646e+01 2.515294e+01 1.372296e+01 3.483918e+00 2.776692e+00 2.882078e+00 2.739436e+00 2.857270e+00 2.723376e+00 2.821133e+00 2.709919e+00 2.798271e+00 2.713575e+00 2.793130e+00 2.735196e+00 2.812927e+00 2.778467e+00 2.863168e+00 2.842086e+00 2.934869e+00 2.912194e+00 3.006443e+00 2.968472e+00 3.056546e+00 2.992884e+00 3.067767e+00 2.976995e+00 3.034893e+00 2.926455e+00 2.966358e+00 2.860337e+00 2.878501e+00 2.795832e+00 2.780661e+00 2.742209e+00 2.680503e+00 2.710123e+00 2.587384e+00 2.703017e+00 2.503315e+00 2.719369e+00 2.435592e+00 2.763987e+00 2.399642e+00 2.839065e+00 2.397349e+00 2.928681e+00 2.408227e+00 3.010331e+00 2.389619e+00 3.130119e+00 1.861139e+00 4.092692e+00 6.732934e+00 8.084019e-01 0 0 0 0 
0 0 0 0 0 2.207192e+00 5.214446e+00 1.305021e+00 1.524933e+00 1.676866e+00 1.637901e+00 1.653111e+00 -1.471329e+00 -4.814508e+01 -6.665506e+01 -5.346793e+01 -5.686079e+01 -5.831701e+01 -5.112161e+01 -6.636178e+01 -4.868050e+01 -3.566491e-01 1.539382e+00 1.709989e+00 1.561737e+00 1.690704e+00 1.552262e+00 1.632652e+00 1.521263e+00 1.554735e+00 1.482848e+00 1.478025e+00 1.451619e+00 1.417263e+00 1.434781e+00 1.380217e+00 1.435400e+00 1.368492e+00 1.450790e+00 1.375366e+00 1.471698e+00 1.392216e+00 1.491885e+00 1.413270e+00 1.506212e+00 1.434048e+00 1.512281e+00 1.446279e+00 1.507240e+00 1.447322e+00 1.481801e+00 1.430236e+00 1.426827e+00 1.386309e+00 1.333191e+00 7.965609e-01 -3.065346e+00 -5.647866e+00 -2.393058e+00 -1.400628e+00 4.048082e+00 1.339721e+01 7.144033e+00 -3.286589e+00 -3.984926e+00 -3.549017e+00 -2.474498e+00 1.045600e+00 5.011050e+00 1.591106e+01 2.023582e+01 9.852598e+00 2.430147e+00 1.918332e+00 1.991136e+00 1.892576e+00 1.973973e+00 1.881463e+00 1.948991e+00 1.872157e+00 1.933193e+00 1.874680e+00 1.929641e+00 1.889612e+00 1.943305e+00 1.919487e+00 1.977990e+00 1.963416e+00 2.027508e+00 2.011842e+00 2.076960e+00 2.050734e+00 2.111593e+00 2.067620e+00 2.119362e+00 2.056659e+00 2.096658e+00 2.021749e+00 2.049310e+00 1.976071e+00 1.988612e+00 1.931499e+00 1.921003e+00 1.894428e+00 1.851774e+00 1.872218e+00 1.787396e+00 1.867260e+00 1.729279e+00 1.878529e+00 1.682494e+00 1.909378e+00 1.657727e+00 1.961348e+00 1.656297e+00 2.023448e+00 1.664055e+00 2.080145e+00 1.651594e+00 2.163480e+00 1.287308e+00 2.828385e+00 4.651352e+00 5.584563e-01 0 0 0 0 
0 0 0 0 0 9.815285e-02 2.313038e-01 5.703244e-02 6.754086e-02 7.457546e-02 7.277033e-02 7.336896e-02 -6.582178e-02 -5.386945e+01 -5.875764e+01 -5.511910e+01 -5.669296e+01 -5.678997e+01 -5.484281e+01 -5.840491e+01 -5.382874e+01 -1.589575e-02 6.867143e-02 7.627037e-02 6.964825e-02 7.539498e-02 6.921822e-02 7.280418e-02 6.783815e-02 6.933444e-02 6.613111e-02 6.591830e-02 6.474255e-02 6.321026e-02 6.399183e-02 6.155728e-02 6.401711e-02 6.103178e-02 6.469990e-02 6.133441e-02 6.562789e-02 6.208093e-02 6.652288e-02 6.301476e-02 6.715675e-02 6.393733e-02 6.742427e-02 6.448089e-02 6.719864e-02 6.452691e-02 6.606374e-02 6.376422e-02 6.361117e-02 6.180402e-02 5.943455e-02 3.550991e-02 -1.035712e-01 1.748116e-01 6.434544e-01 8.354190e-01 1.662920e+00 2.132090e+00 1.299582e+00 6.491716e-01 6.322801e-01 7.286924e-01 1.193131e+00 1.764362e+00 2.536169e+00 3.353005e+00 2.309247e+00 6.273075e-01 1.196771e-01 8.549747e-02 8.874105e-02 8.434539e-02 8.797039e-02 8.384556e-02 8.685289e-02 8.342835e-02 8.614777e-02 8.354033e-02 8.598929e-02 8.420423e-02 8.659507e-02 8.553080e-02 8.813472e-02 8.748261e-02 9.033717e-02 8.963854e-02 9.254195e-02 9.137481e-02 9.409006e-02 9.213265e-02 9.444071e-02 9.164824e-02 9.343061e-02 9.009403e-02 9.132082e-02 8.805835e-02 8.861540e-02 8.607011e-02 8.559857e-02 8.441159e-02 8.250463e-02 8.341072e-02 7.962408e-02 8.317759e-02 7.702472e-02 8.367270e-02 7.494015e-02 8.505354e-02 7.385407e-02 8.739552e-02 7.382942e-02 9.021065e-02 7.423692e-02 9.281041e-02 7.378182e-02 9.667112e-02 5.775520e-02 1.262779e-01 2.072468e-01 2.487848e-02 0 0 0 0 
0 0 0 0 0 0 0 0 0 0 0 0 0 -5.896146e+01 -6.422354e+01 -6.036322e+01 -6.189935e+01 -6.229313e+01 -5.980418e+01 -6.420195e+01 -5.864890e+01 0 0 0 0 0 0 0 0 0 0 0 0 0 0 0 0 0 0 0 0 0 0 0 0 0 0 0 0 0 0 0 0 0 0 0 1.787019e-02 1.728035e-01 2.304750e-01 1.571900e-01 1.941187e-01 1.905468e-01 1.340953e-01 1.396436e-01 1.555280e-01 1.055259e-01 1.247775e-01 8.839592e-02 1.510227e-02 8.049346e-03 -2.537936e-02 -1.883549e-02 -3.268004e-03 0 0 0 0 0 0 0 0 0 0 0 0 0 0 0 0 0 0 0 0 0 0 0 0 0 0 0 0 0 0 0 0 0 0 0 0 0 0 0 0 0 0 0 0 0 0 0 0 0 0 0 0 0 0 0 
0 0 0 0 0 0 0 0 0 0 0 0 0 -5.801141e+01 -5.998543e+01 -5.829451e+01 -5.902259e+01 -5.899630e+01 -5.826634e+01 -5.987301e+01 -5.798883e+01 0 0 0 0 0 0 0 0 0 0 0 0 0 0 0 0 0 0 0 0 0 0 0 0 0 0 0 0 0 0 0 0 0 0 0 3.269451e-04 5.044746e-03 7.479808e-03 8.241375e-03 7.858487e-03 -2.607153e-03 -1.598295e-02 -2.286927e-02 -2.075119e-02 -1.533688e-02 -5.650670e-03 1.074403e-04 -2.048899e-03 -8.329978e-03 -1.136220e-02 -5.079223e-03 -6.982785e-04 0 0 0 0 0 0 0 0 0 0 0 0 0 0 0 0 0 0 0 0 0 0 0 0 0 0 0 0 0 0 0 0 0 0 0 0 0 0 0 0 0 0 0 0 0 0 0 0 0 0 0 0 0 0 0 
0 0 0 0 0 0 0 0 0 0 0 0 0 -6.156485e+01 -6.417409e+01 -6.213236e+01 -6.290670e+01 -6.320930e+01 -6.176663e+01 -6.436675e+01 -6.122928e+01 0 0 0 0 0 0 0 0 0 0 0 0 0 0 0 0 0 0 0 0 0 0 0 0 0 0 0 0 0 0 0 0 0 0 0 -3.444602e-05 -4.864690e-04 -7.872680e-04 -6.477276e-04 -7.873553e-04 -1.031603e-03 -1.244016e-03 -1.666173e-03 -1.969999e-03 -1.632419e-03 -1.143573e-03 -7.884009e-04 -8.711735e-04 -1.275445e-03 -1.011947e-03 -3.683687e-04 -4.682877e-05 0 0 0 0 0 0 0 0 0 0 0 0 0 0 0 0 0 0 0 0 0 0 0 0 0 0 0 0 0 0 0 0 0 0 0 0 0 0 0 0 0 0 0 0 0 0 0 0 0 0 0 0 0 0 0 
0 0 0 0 0 0 0 0 0 0 0 0 0 -5.800636e+01 -5.998056e+01 -5.829424e+01 -5.902441e+01 -5.900166e+01 -5.827484e+01 -5.988490e+01 -5.800541e+01 0 0 0 0 0 0 0 0 0 0 0 0 0 0 0 0 0 0 0 0 0 0 0 0 0 0 0 0 0 0 0 0 0 0 0 0 0 0 0 0 0 0 0 0 0 0 0 0 0 0 0 0 0 0 0 0 0 0 0 0 0 0 0 0 0 0 0 0 0 0 0 0 0 0 0 0 0 0 0 0 0 0 0 0 0 0 0 0 0 0 0 0 0 0 0 0 0 0 0 0 0 0 0 0 0 0 0 
0 0 0 0 0 0 0 0 0 0 0 0 0 -5.896300e+01 -6.421576e+01 -6.036950e+01 -6.191007e+01 -6.230885e+01 -5.982439e+01 -6.423947e+01 -5.867521e+01 0 0 0 0 0 0 0 0 0 0 0 0 0 0 0 0 0 0 0 0 0 0 0 0 0 0 0 0 0 0 0 0 0 0 0 0 0 0 0 0 0 0 0 0 0 0 0 0 0 0 0 0 0 0 0 0 0 0 0 0 0 0 0 0 0 0 0 0 0 0 0 0 0 0 0 0 0 0 0 0 0 0 0 0 0 0 0 0 0 0 0 0 0 0 0 0 0 0 0 0 0 0 0 0 0 0 0 
0 0 0 0 0 9.808120e-02 2.327555e-01 6.010055e-02 7.136073e-02 7.846764e-02 7.647271e-02 7.648664e-02 -6.335378e-02 -5.385031e+01 -5.873169e+01 -5.511563e+01 -5.669885e+01 -5.680239e+01 -5.486221e+01 -5.843657e+01 -5.387390e+01 -1.824497e-02 6.575608e-02 7.355542e-02 6.699550e-02 7.355853e-02 6.795725e-02 7.280654e-02 6.885731e-02 7.194835e-02 7.007748e-02 7.141092e-02 7.129844e-02 7.060382e-02 7.166325e-02 6.907758e-02 7.114056e-02 6.731948e-02 7.032513e-02 6.585117e-02 6.946583e-02 6.472042e-02 6.855134e-02 6.398548e-02 6.787636e-02 6.407092e-02 6.799112e-02 6.536952e-02 6.920690e-02 6.787675e-02 7.135857e-02 7.108425e-02 7.375896e-02 7.411135e-02 7.563381e-02 7.627210e-02 7.655216e-02 7.735011e-02 7.828193e-02 8.020475e-02 8.023376e-02 8.311971e-02 8.113503e-02 8.044029e-02 7.863966e-02 7.864232e-02 7.730885e-02 7.869412e-02 7.875048e-02 8.168867e-02 8.386438e-02 8.508088e-02 8.551674e-02 8.689170e-02 8.814638e-02 8.958564e-02 9.100108e-02 9.211089e-02 9.326884e-02 9.400389e-02 9.489370e-02 9.526753e-02 9.592616e-02 9.575021e-02 9.607018e-02 9.495366e-02 9.479529e-02 9.252083e-02 9.210968e-02 8.901145e-02 8.902354e-02 8.577439e-02 8.678252e-02 8.377293e-02 8.574954e-02 8.298255e-02 8.549590e-02 8.299354e-02 8.558182e-02 8.362146e-02 8.581397e-02 8.476147e-02 8.593569e-02 8.618678e-02 8.569413e-02 8.771522e-02 8.492421e-02 8.907730e-02 8.333096e-02 8.980207e-02 8.067257e-02 8.965386e-02 7.723004e-02 8.889327e-02 7.365807e-02 8.795900e-02 7.056109e-02 8.763602e-02 6.811010e-02 9.057882e-02 5.234645e-02 1.220146e-01 2.059896e-01 2.490064e-02 0 0 0 0 
0 0 0 0 0 2.205579e+00 5.246979e+00 1.373813e+00 1.610652e+00 1.764254e+00 1.721053e+00 1.723136e+00 -1.415886e+00 -4.824042e+01 -6.673121e+01 -5.347739e+01 -5.692161e+01 -5.829674e+01 -5.116734e+01 -6.640871e+01 -4.861761e+01 -4.092927e-01 1.474046e+00 1.649143e+00 1.502268e+00 1.649514e+00 1.523963e+00 1.632666e+00 1.544076e+00 1.613338e+00 1.571328e+00 1.601192e+00 1.598628e+00 1.583035e+00 1.606782e+00 1.548814e+00 1.595097e+00 1.509457e+00 1.576905e+00 1.476650e+00 1.557770e+00 1.451429e+00 1.537400e+00 1.435060e+00 1.522358e+00 1.437037e+00 1.524971e+00 1.466184e+00 1.552256e+00 1.522435e+00 1.600549e+00 1.594419e+00 1.654452e+00 1.662380e+00 1.696559e+00 1.710889e+00 1.717179e+00 1.735088e+00 1.756017e+00 1.799180e+00 1.799894e+00 1.864686e+00 1.820228e+00 1.804678e+00 1.764318e+00 1.764391e+00 1.734493e+00 1.765583e+00 1.766882e+00 1.832835e+00 1.881713e+00 1.909051e+00 1.918885e+00 1.949757e+00 1.977933e+00 2.010231e+00 2.042009e+00 2.066925e+00 2.092940e+00 2.109468e+00 2.129481e+00 2.137918e+00 2.152745e+00 2.148845e+00 2.156054e+00 2.131029e+00 2.127473e+00 2.076441e+00 2.067192e+00 1.997665e+00 1.997915e+00 1.924997e+00 1.947609e+00 1.880058e+00 1.924410e+00 1.862284e+00 1.918669e+00 1.862466e+00 1.920531e+00 1.876507e+00 1.925737e+00 1.902133e+00 1.928582e+00 1.934289e+00 1.923393e+00 1.968866e+00 1.906405e+00 1.999724e+00 1.870864e+00 2.016132e+00 1.811165e+00 2.012618e+00 1.733457e+00 1.994898e+00 1.652360e+00 1.972796e+00 1.581432e+00 1.963902e+00 1.524185e+00 2.026693e+00 1.165890e+00 2.732673e+00 4.623149e+00 5.589558e-01 0 0 0 0 
0 0 0 0 0 3.193714e+00 7.600992e+00 1.994961e+00 2.333756e+00 2.554600e+00 2.492465e+00 2.495930e+00 -2.048002e+00 -1.313679e+01 -1.754049e+01 -1.372442e+01 -1.546850e+01 -1.511211e+01 -1.372916e+01 -1.699178e+01 -1.406388e+01 -5.924121e-01 2.133269e+00 2.386739e+00 2.174224e+00 2.387352e+00 2.205656e+00 2.362972e+00 2.234747e+00 2.334977e+00 2.274161e+00 2.317373e+00 2.313652e+00 2.291081e+00 2.325447e+00 2.241553e+00 2.308545e+00 2.184609e+00 2.282240e+00 2.137157e+00 2.254579e+00 2.100690e+00 2.225133e+00 2.077026e+00 2.203386e+00 2.079904e+00 2.207177e+00 2.122095e+00 2.246673e+00 2.203514e+00 2.316578e+00 2.307711e+00 2.394612e+00 2.406093e+00 2.455570e+00 2.476314e+00 2.485420e+00 2.511343e+00 2.541642e+00 2.604125e+00 2.605174e+00 2.698967e+00 2.634635e+00 2.612136e+00 2.553728e+00 2.553837e+00 2.510567e+00 2.555570e+00 2.557458e+00 2.652930e+00 2.723693e+00 2.763275e+00 2.777523e+00 2.822215e+00 2.863004e+00 2.909755e+00 2.955757e+00 2.991825e+00 3.029490e+00 3.053421e+00 3.082401e+00 3.094626e+00 3.116101e+00 3.110468e+00 3.120909e+00 3.084694e+00 3.079546e+00 3.005681e+00 2.992287e+00 2.891647e+00 2.892003e+00 2.786454e+00 2.819182e+00 2.721399e+00 2.785597e+00 2.695662e+00 2.777275e+00 2.695909e+00 2.779953e+00 2.716220e+00 2.787488e+00 2.753324e+00 2.791635e+00 2.799913e+00 2.784182e+00 2.850033e+00 2.759666e+00 2.894774e+00 2.708274e+00 2.918562e+00 2.621850e+00 2.913427e+00 2.509254e+00 2.887612e+00 2.391626e+00 2.855331e+00 2.288597e+00 2.842038e+00 2.205162e+00 2.932103e+00 1.685377e+00 3.954138e+00 6.692113e+00 8.091255e-01 0 0 0 0 
0 0 0 0 0 1.086216e+00 2.586768e+00 6.812485e-01 7.944650e-01 8.688133e-01 8.478848e-01 8.492804e-01 -6.954698e-01 -4.465198e+00 -5.962533e+00 -4.665091e+00 -5.257966e+00 -5.136572e+00 -4.666344e+00 -5.775084e+00 -4.779924e+00 -2.013644e-01 7.249788e-01 8.111512e-01 7.389512e-01 8.113965e-01 7.496499e-01 8.031125e-01 7.595284e-01 7.935872e-01 7.729108e-01 7.875927e-01 7.863228e-01 7.786494e-01 7.903285e-01 7.618167e-01 7.845885e-01 7.424715e-01 7.756594e-01 7.263585e-01 7.662748e-01 7.139810e-01 7.562837e-01 7.059521e-01 7.489042e-01 7.069375e-01 7.501974e-01 7.212805e-01 7.636237e-01 7.489561e-01 7.873879e-01 7.843768e-01 8.139188e-01 8.178242e-01 8.346448e-01 8.416969e-01 8.447930e-01 8.536056e-01 8.639075e-01 8.851492e-01 8.855136e-01 9.174006e-01 8.955419e-01 8.878986e-01 8.680495e-01 8.680881e-01 8.533825e-01 8.686809e-01 8.693271e-01 9.017833e-01 9.258450e-01 9.393048e-01 9.441546e-01 9.593492e-01 9.732175e-01 9.891095e-01 1.004749e+00 1.017011e+00 1.029819e+00 1.037958e+00 1.047814e+00 1.051976e+00 1.059282e+00 1.057373e+00 1.060926e+00 1.048619e+00 1.046868e+00 1.021760e+00 1.017205e+00 9.829932e-01 9.831117e-01 9.472313e-01 9.583554e-01 9.251140e-01 9.469367e-01 9.163604e-01 9.441015e-01 9.164364e-01 9.450038e-01 9.233349e-01 9.475647e-01 9.359529e-01 9.489883e-01 9.518113e-01 9.464835e-01 9.688829e-01 9.381849e-01 9.841278e-01 9.207414e-01 9.922318e-01 8.913578e-01 9.904632e-01 8.530263e-01 9.816075e-01 8.129249e-01 9.704941e-01 7.777257e-01 9.657729e-01 7.490869e-01 9.959892e-01 5.718340e-01 1.343480e+00 2.274954e+00 2.750703e-01 0 0 0 0 
0 0 0 0 0 0 0 0 0 0 0 0 0 0 0 0 0 0 0 0 0 0 0 0 0 0 0 0 0 0 0 0 0 0 0 0 0 0 0 0 0 0 0 0 0 0 0 0 0 0 0 0 0 0 0 0 0 0 0 0 0 0 0 0 0 0 0 0 0 0 0 0 0 0 0 0 0 0 0 0 0 0 0 0 0 0 0 0 0 0 0 0 0 0 0 0 0 0 0 0 0 0 0 0 0 0 0 0 0 0 0 0 0 0 0 0 0 0 0 0 0 0 0 0 0 0 0 0 
