# vtk DataFile Version 2.0
Comment goes here
ASCII

DATASET STRUCTURED_POINTS
FIELD FieldData 1
TIME 1 1 double
0.58000000
DIMENSIONS    128   16   1

ORIGIN    0.000   0.000   0.000
SPACING   0.0078125 0.015625   1.000

POINT_DATA   2048
SCALARS fX double
LOOKUP_TABLE default

0 0 0 0 0 0 0 0 0 0 0 0 0 0 0 0 0 0 0 0 0 0 0 0 0 0 0 0 0 0 0 0 0 0 0 0 0 0 0 0 0 0 0 0 0 0 0 0 0 0 0 0 0 0 0 0 0 0 0 0 0 0 0 0 0 0 0 0 0 0 0 0 0 0 0 0 0 0 0 0 0 0 0 0 0 0 0 0 0 0 0 0 0 0 0 0 0 0 0 0 0 0 0 0 0 0 0 0 0 0 0 0 0 0 0 0 0 0 0 0 0 0 0 0 0 0 0 0 
0 0 0 0 0 0 0 0 0 0 0 0 0 0 0 0 0 0 0 0 0 0 0 0 0 0 0 0 0 0 0 0 0 0 0 0 0 0 0 0 0 0 0 0 0 0 0 0 0 0 0 0 0 0 0 0 0 0 0 0 0 0 0 0 0 0 0 0 0 0 0 0 0 0 0 0 0 0 0 0 0 0 0 0 0 0 0 0 0 0 0 0 0 0 0 0 0 0 0 0 0 0 0 0 0 0 0 0 0 0 0 0 0 0 0 0 0 0 0 0 0 0 0 0 0 0 0 0 
0 0 0 0 0 1.635863e+00 -3.568094e-01 -1.157894e+00 1.335544e-01 -3.739772e-01 2.362053e-02 -3.132843e-01 6.064155e-01 9.690300e-01 1.125255e+00 1.105648e+00 1.849420e+00 1.172622e+00 1.773589e+00 1.464391e+00 6.159030e-01 6.910027e-01 -8.569192e-02 1.181397e-02 -9.469942e-02 -4.235685e-03 -1.098833e-01 -2.275643e-02 -1.275519e-01 -4.281907e-02 -1.399202e-01 -5.798756e-02 -1.421717e-01 -6.535963e-02 -1.328827e-01 -6.388620e-02 -1.138998e-01 -5.503429e-02 -8.767478e-02 -4.231756e-02 -5.874335e-02 -2.757930e-02 -3.183217e-02 -1.508573e-02 -1.272981e-02 -1.096365e-02 -8.489966e-03 -2.081866e-02 -2.205158e-02 -4.573202e-02 -4.969865e-02 -8.106714e-02 -8.395643e-02 -1.201143e-01 -1.258664e-01 -3.120569e-01 -8.261821e-01 -7.933928e-01 -2.400158e-01 -2.253686e+00 -8.770209e-01 3.178577e+00 3.103090e-01 -2.405895e+00 -1.601085e+00 -2.227424e+00 -2.301404e+00 -2.273488e+00 -3.205252e+00 1.183260e+00 4.383514e+00 -1.866100e+00 -3.509443e+00 -4.586906e-01 -2.529914e-01 -2.032087e-01 -2.603751e-01 -2.401016e-01 -2.772193e-01 -2.716047e-01 -2.834848e-01 -2.835512e-01 -2.703363e-01 -2.712684e-01 -2.388910e-01 -2.398007e-01 -1.963836e-01 -1.993445e-01 -1.544333e-01 -1.618594e-01 -1.243384e-01 -1.351228e-01 -1.096729e-01 -1.196320e-01 -1.082364e-01 -1.128951e-01 -1.186245e-01 -1.150751e-01 -1.417505e-01 -1.268799e-01 -1.762737e-01 -1.464421e-01 -2.169482e-01 -1.680172e-01 -2.539803e-01 -1.825193e-01 -2.753982e-01 -1.817013e-01 -2.723763e-01 -1.626538e-01 -2.428347e-01 -1.305996e-01 -1.932481e-01 -9.683549e-02 -1.348941e-01 -7.455270e-02 -8.066439e-02 -7.356169e-02 -4.182277e-02 -8.787765e-02 -1.163238e-01 -6.451978e-01 2.131234e-01 2.779907e-01 0 0 0 0 
0 0 0 0 0 4.811066e+00 -1.055942e+00 -3.416870e+00 3.859271e-01 -1.102447e+00 6.835541e-02 -9.219368e-01 1.783563e+00 2.850241e+00 3.309734e+00 3.252029e+00 5.439465e+00 3.448916e+00 5.216425e+00 4.307284e+00 1.811902e+00 2.032820e+00 -2.515016e-01 3.521592e-02 -2.780973e-01 -1.210134e-02 -3.228814e-01 -6.669984e-02 -3.749677e-01 -1.258167e-01 -4.114386e-01 -1.705041e-01 -4.181154e-01 -1.922189e-01 -3.908105e-01 -1.878812e-01 -3.349647e-01 -1.618214e-01 -2.578033e-01 -1.243902e-01 -1.726864e-01 -8.102187e-02 -9.352715e-02 -4.427270e-02 -3.735150e-02 -3.216280e-02 -2.490118e-02 -6.117441e-02 -6.481453e-02 -1.344782e-01 -1.461580e-01 -2.384294e-01 -2.469411e-01 -3.532923e-01 -3.702207e-01 -9.178356e-01 -2.447261e+00 -2.391605e+00 -6.473958e-01 -5.965321e+00 -2.378148e-01 1.339187e+01 4.145851e+00 -5.802303e+00 -4.293294e+00 -6.297227e+00 -6.103133e+00 -5.064787e+00 -5.497834e+00 1.021696e+01 1.846564e+01 -3.726616e+00 -1.022515e+01 -1.349224e+00 -7.441475e-01 -5.976966e-01 -7.658180e-01 -7.061819e-01 -8.153511e-01 -7.988350e-01 -8.337755e-01 -8.339702e-01 -7.951037e-01 -7.978448e-01 -7.026202e-01 -7.052948e-01 -5.775967e-01 -5.863019e-01 -4.542030e-01 -4.760380e-01 -3.656726e-01 -3.973832e-01 -3.225251e-01 -3.518127e-01 -3.182968e-01 -3.320039e-01 -3.488620e-01 -3.384347e-01 -4.169015e-01 -3.731756e-01 -5.184560e-01 -4.307124e-01 -6.380688e-01 -4.941255e-01 -7.469122e-01 -5.366730e-01 -8.097732e-01 -5.341032e-01 -8.007073e-01 -4.778920e-01 -7.136403e-01 -3.834601e-01 -5.676882e-01 -2.841111e-01 -3.960990e-01 -2.187173e-01 -2.368490e-01 -2.160975e-01 -1.226460e-01 -2.566496e-01 -3.313352e-01 -1.881792e+00 6.337588e-01 8.179013e-01 0 0 0 0 
0 0 0 0 0 3.323139e+00 -7.325516e-01 -2.365705e+00 2.632478e-01 -7.627419e-01 4.667582e-02 -6.370832e-01 1.232004e+00 9.129512e+00 7.160440e+00 1.053435e+01 1.587850e+01 1.099437e+01 1.526298e+01 1.160935e+01 4.263535e+00 1.404409e+00 -1.734682e-01 2.455293e-02 -1.918892e-01 -8.186307e-03 -2.228852e-01 -4.596157e-02 -2.589222e-01 -8.684984e-02 -2.841601e-01 -1.177540e-01 -2.887986e-01 -1.327693e-01 -2.699453e-01 -1.297710e-01 -2.313627e-01 -1.117580e-01 -1.780487e-01 -8.588796e-02 -1.192417e-01 -5.592107e-02 -6.455766e-02 -3.053466e-02 -2.575766e-02 -2.217637e-02 -1.716710e-02 -4.222910e-02 -4.475028e-02 -9.287843e-02 -1.009528e-01 -1.646954e-01 -1.705815e-01 -2.440468e-01 -2.557452e-01 -6.340124e-01 -1.688034e+00 -1.614046e+00 -3.587540e-01 -3.777289e+00 1.255691e+00 1.168929e+01 4.773017e+00 -3.209852e+00 -2.733023e+00 -4.248643e+00 -3.860610e+00 -2.622081e+00 -1.584732e+00 1.108217e+01 1.594359e+01 -1.750353e+00 -7.027866e+00 -9.320516e-01 -5.140524e-01 -4.128752e-01 -5.289990e-01 -4.878009e-01 -5.632101e-01 -5.518004e-01 -5.759352e-01 -5.760694e-01 -5.492226e-01 -5.511158e-01 -4.853402e-01 -4.871871e-01 -3.989785e-01 -4.049899e-01 -3.137382e-01 -3.288177e-01 -2.525773e-01 -2.744777e-01 -2.227661e-01 -2.429950e-01 -2.198439e-01 -2.293146e-01 -2.409628e-01 -2.337660e-01 -2.879722e-01 -2.577736e-01 -3.581294e-01 -2.975182e-01 -4.407440e-01 -3.413003e-01 -5.158923e-01 -3.706391e-01 -5.592497e-01 -3.687846e-01 -5.529012e-01 -3.298645e-01 -4.926718e-01 -2.645599e-01 -3.918014e-01 -1.959131e-01 -2.732943e-01 -1.508115e-01 -1.634118e-01 -1.491449e-01 -8.454321e-02 -1.764036e-01 -2.236421e-01 -1.292183e+00 4.411295e-01 5.651082e-01 0 0 0 0 
0 0 0 0 0 1.479350e-01 -3.341902e-02 -1.067296e-01 1.087510e-02 -3.427237e-02 1.940940e-03 -2.843079e-02 5.485666e-02 1.112358e+01 1.214530e+01 1.149001e+01 1.258901e+01 1.194252e+01 1.215942e+01 1.257381e+01 1.076669e+01 6.259139e-02 -7.658490e-03 1.150975e-03 -8.491402e-03 -3.206507e-04 -9.887053e-03 -2.018158e-03 -1.150642e-02 -3.852230e-03 -1.264170e-02 -5.237448e-03 -1.285497e-02 -5.910016e-03 -1.201744e-02 -5.776002e-03 -1.029776e-02 -4.970880e-03 -7.920234e-03 -3.815368e-03 -5.298690e-03 -2.478500e-03 -2.862677e-03 -1.347689e-03 -1.135962e-03 -9.772199e-04 -7.558815e-04 -1.873353e-03 -1.987323e-03 -4.132236e-03 -4.493402e-03 -7.333073e-03 -7.596857e-03 -1.086867e-02 -1.139084e-02 -2.823364e-02 -6.603220e-02 -1.414311e-02 4.267582e-02 -9.432505e-02 5.926189e-01 1.443235e+00 8.984793e-01 1.605548e-01 -8.355679e-02 -2.252250e-01 -1.064040e-01 1.227556e-01 6.372405e-01 1.989828e+00 1.812286e+00 6.375868e-02 -3.178353e-01 -4.151844e-02 -2.289627e-02 -1.838727e-02 -2.355612e-02 -2.172067e-02 -2.507837e-02 -2.457004e-02 -2.564457e-02 -2.565046e-02 -2.445518e-02 -2.453942e-02 -2.161098e-02 -2.169307e-02 -1.776529e-02 -1.803252e-02 -1.396845e-02 -1.463911e-02 -1.124312e-02 -1.221731e-02 -9.914011e-03 -1.081429e-02 -9.783495e-03 -1.020584e-02 -1.072534e-02 -1.040639e-02 -1.282125e-02 -1.147795e-02 -1.594711e-02 -1.324781e-02 -1.962350e-02 -1.519200e-02 -2.296050e-02 -1.648538e-02 -2.487475e-02 -1.638264e-02 -2.457020e-02 -1.462635e-02 -2.186618e-02 -1.169943e-02 -1.736124e-02 -8.637498e-03 -1.208936e-02 -6.646927e-03 -7.227202e-03 -6.609015e-03 -3.719949e-03 -7.631569e-03 -8.630711e-03 -5.558882e-02 2.049411e-02 2.519757e-02 0 0 0 0 
0 0 0 0 0 0 0 0 0 0 0 0 0 1.200116e+01 1.275373e+01 1.229742e+01 1.325738e+01 1.268074e+01 1.285220e+01 1.317072e+01 1.155010e+01 0 0 0 0 0 0 0 0 0 0 0 0 0 0 0 0 0 0 0 0 0 0 0 0 0 0 0 0 0 0 0 0 0 0 0 -2.113696e-04 -6.203961e-03 -1.363645e-02 -2.851412e-02 -2.496778e-02 -3.952505e-02 -5.260995e-02 -4.302649e-02 -5.262925e-02 -4.732918e-02 -4.359739e-02 -3.360015e-02 -4.995716e-02 -4.023264e-02 -3.271886e-02 -3.660167e-02 -4.705075e-03 0 0 0 0 0 0 0 0 0 0 0 0 0 0 0 0 0 0 0 0 0 0 0 0 0 0 0 0 0 0 0 0 0 0 0 0 0 0 0 0 0 0 0 0 0 0 0 0 0 0 0 0 0 0 0 
0 0 0 0 0 0 0 0 0 0 0 0 0 1.249520e+01 1.312188e+01 1.254915e+01 1.296714e+01 1.273061e+01 1.277002e+01 1.297446e+01 1.258984e+01 0 0 0 0 0 0 0 0 0 0 0 0 0 0 0 0 0 0 0 0 0 0 0 0 0 0 0 0 0 0 0 0 0 0 0 -1.232331e-03 -8.605550e-03 -8.305008e-03 2.236028e-04 -1.308412e-03 -7.291470e-03 -1.448335e-02 -1.827483e-02 -1.064900e-02 -1.000894e-03 4.223462e-03 1.381465e-02 2.219066e-02 1.962341e-02 1.753646e-02 1.053875e-02 1.055188e-03 0 0 0 0 0 0 0 0 0 0 0 0 0 0 0 0 0 0 0 0 0 0 0 0 0 0 0 0 0 0 0 0 0 0 0 0 0 0 0 0 0 0 0 0 0 0 0 0 0 0 0 0 0 0 0 
0 0 0 0 0 0 0 0 0 0 0 0 0 1.276083e+01 1.336792e+01 1.283822e+01 1.326061e+01 1.304887e+01 1.302093e+01 1.331258e+01 1.273363e+01 0 0 0 0 0 0 0 0 0 0 0 0 0 0 0 0 0 0 0 0 0 0 0 0 0 0 0 0 0 0 0 0 0 0 0 -9.812811e-05 -7.102270e-04 -6.187321e-04 6.682169e-05 -2.071769e-04 -5.291502e-04 -8.696898e-04 -1.248759e-03 -7.625079e-04 -5.574866e-05 2.972734e-04 9.524279e-04 1.538203e-03 1.219399e-03 1.070327e-03 7.355946e-04 8.078941e-05 0 0 0 0 0 0 0 0 0 0 0 0 0 0 0 0 0 0 0 0 0 0 0 0 0 0 0 0 0 0 0 0 0 0 0 0 0 0 0 0 0 0 0 0 0 0 0 0 0 0 0 0 0 0 0 
0 0 0 0 0 0 0 0 0 0 0 0 0 1.249303e+01 1.311840e+01 1.253871e+01 1.295569e+01 1.270984e+01 1.275217e+01 1.294560e+01 1.257257e+01 0 0 0 0 0 0 0 0 0 0 0 0 0 0 0 0 0 0 0 0 0 0 0 0 0 0 0 0 0 0 0 0 0 0 0 0 0 0 0 0 0 0 0 0 0 0 0 0 0 0 0 0 0 0 0 0 0 0 0 0 0 0 0 0 0 0 0 0 0 0 0 0 0 0 0 0 0 0 0 0 0 0 0 0 0 0 0 0 0 0 0 0 0 0 0 0 0 0 0 0 0 0 0 0 0 0 0 
0 0 0 0 0 0 0 0 0 0 0 0 0 1.200850e+01 1.274962e+01 1.228497e+01 1.323261e+01 1.264411e+01 1.281824e+01 1.310547e+01 1.152105e+01 0 0 0 0 0 0 0 0 0 0 0 0 0 0 0 0 0 0 0 0 0 0 0 0 0 0 0 0 0 0 0 0 0 0 0 0 0 0 0 0 0 0 0 0 0 0 0 0 0 0 0 0 0 0 0 0 0 0 0 0 0 0 0 0 0 0 0 0 0 0 0 0 0 0 0 0 0 0 0 0 0 0 0 0 0 0 0 0 0 0 0 0 0 0 0 0 0 0 0 0 0 0 0 0 0 0 0 
0 0 0 0 0 1.479832e-01 -3.161165e-02 -1.024214e-01 1.594843e-02 -2.869317e-02 7.144745e-03 -2.370845e-02 5.841660e-02 1.113304e+01 1.214516e+01 1.146762e+01 1.254904e+01 1.187194e+01 1.207868e+01 1.245022e+01 1.069458e+01 5.482071e-02 -1.557113e-02 -6.295919e-03 -1.470365e-02 -4.861687e-03 -1.211337e-02 -1.997968e-03 -8.828557e-03 8.321920e-04 -5.773628e-03 2.736679e-03 -3.641770e-03 3.318884e-03 -2.579600e-03 2.711165e-03 -2.486455e-03 9.999721e-04 -3.456851e-03 -1.766634e-03 -5.283560e-03 -5.050502e-03 -7.363058e-03 -8.162182e-03 -9.127055e-03 -1.050555e-02 -1.003992e-02 -1.158023e-02 -9.802335e-03 -1.135743e-02 -8.662450e-03 -1.031240e-02 -7.102672e-03 -8.896062e-03 -5.470235e-03 -7.561394e-03 -4.486810e-03 -7.227919e-03 -4.503063e-03 -8.165103e-03 -7.106045e-03 -9.353120e-03 -1.123625e-02 -1.629847e-02 -1.771505e-02 -2.179992e-02 -2.319223e-02 -2.501076e-02 -2.586164e-02 -2.541995e-02 -2.412551e-02 -2.599381e-02 -2.606298e-02 -2.379111e-02 -2.307294e-02 -2.024589e-02 -1.898075e-02 -1.627738e-02 -1.500153e-02 -1.324407e-02 -1.255104e-02 -1.219807e-02 -1.233743e-02 -1.337699e-02 -1.422998e-02 -1.624589e-02 -1.736307e-02 -1.963459e-02 -2.049718e-02 -2.238666e-02 -2.283897e-02 -2.404031e-02 -2.425994e-02 -2.453351e-02 -2.473704e-02 -2.372560e-02 -2.413193e-02 -2.148228e-02 -2.240181e-02 -1.790406e-02 -1.975748e-02 -1.348771e-02 -1.682734e-02 -9.209050e-03 -1.450889e-02 -6.094396e-03 -1.339025e-02 -4.712771e-03 -1.353453e-02 -5.249825e-03 -1.477177e-02 -7.750115e-03 -1.677216e-02 -1.186138e-02 -1.872453e-02 -1.663524e-02 -1.959145e-02 -2.093308e-02 -1.859311e-02 -2.253950e-02 -2.192316e-02 -6.550500e-02 1.702442e-02 2.502416e-02 0 0 0 0 
0 0 0 0 0 3.324221e+00 -6.919531e-01 -2.268959e+00 3.771726e-01 -6.374373e-01 1.635407e-01 -5.310280e-01 1.311963e+00 9.185700e+00 7.185700e+00 1.054054e+01 1.579981e+01 1.095890e+01 1.516754e+01 1.147662e+01 4.251768e+00 1.229986e+00 -3.510711e-01 -1.426208e-01 -3.313418e-01 -1.101148e-01 -2.728434e-01 -4.546824e-02 -1.987483e-01 1.838584e-02 -1.298866e-01 6.135696e-02 -8.185733e-02 7.452022e-02 -5.795651e-02 6.087218e-02 -5.589592e-02 2.238656e-02 -7.775129e-02 -3.981849e-02 -1.188322e-01 -1.136182e-01 -1.655603e-01 -1.835106e-01 -2.051691e-01 -2.361108e-01 -2.256368e-01 -2.602038e-01 -2.202451e-01 -2.551514e-01 -1.945864e-01 -2.316308e-01 -1.595179e-01 -1.997889e-01 -1.228437e-01 -1.698106e-01 -1.007645e-01 -1.623389e-01 -1.011466e-01 -1.834062e-01 -1.596238e-01 -2.100880e-01 -2.523804e-01 -3.660630e-01 -3.978726e-01 -4.896077e-01 -5.208691e-01 -5.617037e-01 -5.808043e-01 -5.708673e-01 -5.417818e-01 -5.837179e-01 -5.852638e-01 -5.342289e-01 -5.180995e-01 -4.546158e-01 -4.262083e-01 -3.655101e-01 -3.368658e-01 -2.974085e-01 -2.818567e-01 -2.739413e-01 -2.770864e-01 -3.004485e-01 -3.196222e-01 -3.649176e-01 -3.900258e-01 -4.410695e-01 -4.604596e-01 -5.029223e-01 -5.130936e-01 -5.400813e-01 -5.450154e-01 -5.511430e-01 -5.556999e-01 -5.329505e-01 -5.420493e-01 -4.825029e-01 -5.031257e-01 -4.020925e-01 -4.437124e-01 -3.029240e-01 -3.779750e-01 -2.069728e-01 -3.261226e-01 -1.373337e-01 -3.013879e-01 -1.067763e-01 -3.051412e-01 -1.193738e-01 -3.334356e-01 -1.759436e-01 -3.786644e-01 -2.683690e-01 -4.223624e-01 -3.751592e-01 -4.411001e-01 -4.708264e-01 -4.185280e-01 -5.111846e-01 -5.221268e-01 -1.514898e+00 3.631738e-01 5.612190e-01 0 0 0 0 
0 0 0 0 0 4.812633e+00 -9.971659e-01 -3.276814e+00 5.508513e-01 -9.210434e-01 2.375385e-01 -7.684019e-01 1.899320e+00 2.940375e+00 3.367404e+00 3.288792e+00 5.423434e+00 3.429084e+00 5.120067e+00 4.169819e+00 1.643402e+00 1.780334e+00 -5.085897e-01 -2.067816e-01 -4.799650e-01 -1.596481e-01 -3.951950e-01 -6.597553e-02 -2.878461e-01 2.653984e-02 -1.880914e-01 8.879933e-02 -1.185216e-01 1.078780e-01 -8.390885e-02 8.811993e-02 -8.093370e-02 3.239071e-02 -1.125892e-01 -5.768107e-02 -1.720759e-01 -1.645326e-01 -2.397302e-01 -2.657175e-01 -2.970694e-01 -3.418592e-01 -3.266918e-01 -3.767275e-01 -3.188720e-01 -3.694009e-01 -2.817113e-01 -3.353374e-01 -2.309333e-01 -2.892318e-01 -1.778374e-01 -2.458316e-01 -1.458753e-01 -2.350193e-01 -1.464328e-01 -2.655232e-01 -2.310942e-01 -3.041504e-01 -3.653768e-01 -5.299522e-01 -5.760014e-01 -7.088044e-01 -7.540591e-01 -8.131733e-01 -8.408228e-01 -8.264327e-01 -7.843222e-01 -8.450269e-01 -8.472629e-01 -7.733771e-01 -7.500266e-01 -6.581239e-01 -6.170000e-01 -5.291316e-01 -4.876660e-01 -4.305471e-01 -4.080361e-01 -3.965801e-01 -4.011372e-01 -4.349621e-01 -4.627239e-01 -5.283031e-01 -5.646565e-01 -6.385592e-01 -6.666347e-01 -7.281146e-01 -7.428428e-01 -7.819145e-01 -7.890580e-01 -7.979247e-01 -8.045182e-01 -7.715755e-01 -7.847409e-01 -6.985260e-01 -7.283743e-01 -5.821043e-01 -6.423557e-01 -4.385430e-01 -5.472059e-01 -2.996710e-01 -4.721946e-01 -1.989342e-01 -4.364850e-01 -1.548164e-01 -4.420487e-01 -1.731898e-01 -4.831393e-01 -2.551912e-01 -5.486934e-01 -3.890182e-01 -6.119169e-01 -5.435098e-01 -6.388574e-01 -6.817892e-01 -6.061417e-01 -7.413019e-01 -7.634378e-01 -2.204217e+00 5.208949e-01 8.122723e-01 0 0 0 0 
0 0 0 0 0 1.636395e+00 -3.368244e-01 -1.110276e+00 1.896271e-01 -3.122992e-01 8.114250e-02 -2.610824e-01 6.457739e-01 9.996766e-01 1.144864e+00 1.118149e+00 1.843972e+00 1.165883e+00 1.740835e+00 1.417665e+00 5.586261e-01 6.051685e-01 -1.730897e-01 -7.045676e-02 -1.633268e-01 -5.439491e-02 -1.344649e-01 -2.250525e-02 -9.792632e-02 8.986191e-03 -6.397844e-02 3.017905e-02 -4.030600e-02 3.667662e-02 -2.853194e-02 2.995891e-02 -2.752424e-02 1.100413e-02 -3.829477e-02 -1.962921e-02 -5.852722e-02 -5.596496e-02 -8.153296e-02 -9.036910e-02 -1.010274e-01 -1.162539e-01 -1.110949e-01 -1.281040e-01 -1.084293e-01 -1.256069e-01 -9.578738e-02 -1.140190e-01 -7.851807e-02 -9.833895e-02 -6.046387e-02 -8.358234e-02 -4.959756e-02 -7.990831e-02 -4.978921e-02 -9.028211e-02 -7.857647e-02 -1.034155e-01 -1.242326e-01 -1.801877e-01 -1.958439e-01 -2.409966e-01 -2.563823e-01 -2.764804e-01 -2.858802e-01 -2.809854e-01 -2.666660e-01 -2.873028e-01 -2.880622e-01 -2.629394e-01 -2.550001e-01 -2.237540e-01 -2.097725e-01 -1.798989e-01 -1.658017e-01 -1.463827e-01 -1.387304e-01 -1.348369e-01 -1.363881e-01 -1.478905e-01 -1.573317e-01 -1.796313e-01 -1.919938e-01 -2.171244e-01 -2.266723e-01 -2.475790e-01 -2.525882e-01 -2.658736e-01 -2.683025e-01 -2.713152e-01 -2.735553e-01 -2.623505e-01 -2.668235e-01 -2.375054e-01 -2.476504e-01 -1.979158e-01 -2.184008e-01 -1.491067e-01 -1.860582e-01 -1.019073e-01 -1.605808e-01 -6.769492e-02 -1.484873e-01 -5.275286e-02 -1.504421e-01 -5.906579e-02 -1.644754e-01 -8.699771e-02 -1.868012e-01 -1.325105e-01 -2.082790e-01 -1.849859e-01 -2.173487e-01 -2.318958e-01 -2.062068e-01 -2.526568e-01 -2.632342e-01 -7.548240e-01 1.747455e-01 2.760774e-01 0 0 0 0 
0 0 0 0 0 0 0 0 0 0 0 0 0 0 0 0 0 0 0 0 0 0 0 0 0 0 0 0 0 0 0 0 0 0 0 0 0 0 0 0 0 0 0 0 0 0 0 0 0 0 0 0 0 0 0 0 0 0 0 0 0 0 0 0 0 0 0 0 0 0 0 0 0 0 0 0 0 0 0 0 0 0 0 0 0 0 0 0 0 0 0 0 0 0 0 0 0 0 0 0 0 0 0 0 0 0 0 0 0 0 0 0 0 0 0 0 0 0 0 0 0 0 0 0 0 0 0 0 
