# vtk DataFile Version 2.0
Comment goes here
ASCII

DATASET STRUCTURED_POINTS
FIELD FieldData 1
TIME 1 1 double
0.39000000
DIMENSIONS    128   16   1

ORIGIN    0.000   0.000   0.000
SPACING   0.0078125 0.015625   1.000

POINT_DATA   2048
SCALARS fY double
LOOKUP_TABLE default

0 0 0 0 0 0 0 0 0 0 0 0 0 0 0 0 0 0 0 0 0 0 0 0 0 0 0 0 0 0 0 0 0 0 0 0 0 0 0 0 0 0 0 0 0 0 0 0 0 0 0 0 0 0 0 0 0 0 0 0 0 0 0 0 0 0 0 0 0 0 0 0 0 0 0 0 0 0 0 0 0 0 0 0 0 0 0 0 0 0 0 0 0 0 0 0 0 0 0 0 0 0 0 0 0 0 0 0 0 0 0 0 0 0 0 0 0 0 0 0 0 0 0 0 0 0 0 0 
0 0 0 0 0 0 0 0 0 0 0 0 0 0 0 0 0 0 0 0 0 0 0 0 0 0 0 0 0 0 0 0 0 0 0 0 0 0 0 0 0 0 0 0 0 0 0 0 0 0 0 0 0 0 0 0 0 0 0 0 0 0 0 0 0 0 0 0 0 0 0 0 0 0 0 0 0 0 0 0 0 0 0 0 0 0 0 0 0 0 0 0 0 0 0 0 0 0 0 0 0 0 0 0 0 0 0 0 0 0 0 0 0 0 0 0 0 0 0 0 0 0 0 0 0 0 0 0 
0 0 0 0 0 -5.644714e-01 -1.508181e+00 -1.134772e+00 -1.957872e+00 -1.548755e+00 -2.388716e+00 -1.921286e+00 -2.789538e+00 -1.584660e+00 3.144288e+00 5.788990e+00 9.819151e+00 1.355032e+01 1.703839e+01 2.080687e+01 2.540240e+01 2.639694e+01 2.596919e+01 2.585013e+01 2.506152e+01 2.459607e+01 2.403996e+01 2.386291e+01 2.383979e+01 2.389588e+01 2.401796e+01 2.385811e+01 2.372788e+01 2.325391e+01 2.299794e+01 2.254870e+01 2.245359e+01 2.219286e+01 2.214681e+01 2.181985e+01 2.148441e+01 2.088365e+01 2.032351e+01 1.984030e+01 1.955256e+01 1.955327e+01 1.968990e+01 2.008377e+01 2.036312e+01 2.064598e+01 2.041877e+01 1.992845e+01 1.891353e+01 1.792218e+01 1.689362e+01 1.632625e+01 1.614619e+01 1.667903e+01 1.725517e+01 1.755580e+01 1.657875e+01 1.799425e+01 1.972681e+01 1.809882e+01 1.711140e+01 1.600627e+01 1.505991e+01 1.436763e+01 1.349182e+01 1.279559e+01 1.588664e+01 1.685997e+01 1.480419e+01 1.462299e+01 1.419738e+01 1.362266e+01 1.276536e+01 1.217703e+01 1.161237e+01 1.152549e+01 1.141545e+01 1.159402e+01 1.145432e+01 1.134402e+01 1.087403e+01 1.049306e+01 1.002614e+01 9.733201e+00 9.485553e+00 9.264118e+00 9.150697e+00 8.869899e+00 8.698711e+00 8.161505e+00 7.937947e+00 7.462448e+00 7.570581e+00 7.317767e+00 7.504742e+00 7.092467e+00 7.061666e+00 6.494638e+00 6.313683e+00 5.732450e+00 5.538011e+00 5.229200e+00 5.175231e+00 5.092843e+00 4.856634e+00 4.666440e+00 4.028088e+00 3.777620e+00 3.037535e+00 3.128442e+00 2.658484e+00 3.105338e+00 2.587298e+00 2.763490e+00 1.942256e+00 1.903729e+00 1.314448e+00 1.205320e+00 1.108271e+00 -5.592312e-01 0 0 0 0 
0 0 0 0 0 -1.660492e+00 -4.437224e+00 -3.339261e+00 -5.759892e+00 -4.556902e+00 -7.028538e+00 -5.654645e+00 -8.209534e+00 -4.665948e+00 9.245118e+00 1.702383e+01 2.887626e+01 3.984760e+01 5.010365e+01 6.118239e+01 7.469216e+01 7.761599e+01 7.635866e+01 7.600866e+01 7.369048e+01 7.232229e+01 7.068751e+01 7.016703e+01 7.009908e+01 7.026396e+01 7.062285e+01 7.015299e+01 6.977016e+01 6.837692e+01 6.762449e+01 6.630387e+01 6.602430e+01 6.525782e+01 6.512242e+01 6.416123e+01 6.317512e+01 6.140896e+01 5.976226e+01 5.834167e+01 5.749577e+01 5.749787e+01 5.789954e+01 5.905749e+01 5.987875e+01 6.071034e+01 6.004240e+01 5.860092e+01 5.561712e+01 5.270257e+01 4.967855e+01 4.801043e+01 4.733269e+01 4.833891e+01 4.981161e+01 5.179381e+01 5.177990e+01 5.254751e+01 5.304618e+01 5.016583e+01 4.838301e+01 4.565788e+01 4.384418e+01 4.247391e+01 4.224795e+01 4.147514e+01 4.391163e+01 4.495600e+01 4.323130e+01 4.300253e+01 4.175115e+01 4.006130e+01 3.754056e+01 3.581063e+01 3.415029e+01 3.389480e+01 3.357121e+01 3.409626e+01 3.368543e+01 3.336106e+01 3.197902e+01 3.085875e+01 2.948569e+01 2.862429e+01 2.789604e+01 2.724492e+01 2.691141e+01 2.608574e+01 2.558237e+01 2.400270e+01 2.334531e+01 2.194702e+01 2.226502e+01 2.152152e+01 2.207129e+01 2.085877e+01 2.076806e+01 1.910035e+01 1.856804e+01 1.685849e+01 1.628656e+01 1.537824e+01 1.521947e+01 1.497718e+01 1.428261e+01 1.372337e+01 1.184626e+01 1.110980e+01 8.933451e+00 9.200980e+00 7.818876e+00 9.133004e+00 7.609003e+00 8.125967e+00 5.707196e+00 5.583462e+00 3.815013e+00 3.485304e+00 3.238492e+00 -1.645280e+00 0 0 0 0 
0 0 0 0 0 -1.147135e+00 -3.065725e+00 -2.307443e+00 -3.979391e+00 -3.148558e+00 -4.856423e+00 -3.907833e+00 -5.673228e+00 -7.038922e+00 9.134500e+00 8.575936e+00 2.413770e+01 2.327614e+01 3.939863e+01 3.780762e+01 5.468922e+01 5.360315e+01 5.273501e+01 5.249333e+01 5.089265e+01 4.994793e+01 4.881910e+01 4.845970e+01 4.841278e+01 4.852663e+01 4.877445e+01 4.845003e+01 4.818570e+01 4.722368e+01 4.670413e+01 4.579224e+01 4.559919e+01 4.506993e+01 4.497642e+01 4.431270e+01 4.363176e+01 4.241216e+01 4.127506e+01 4.029407e+01 3.970995e+01 3.971140e+01 3.998878e+01 4.078841e+01 4.135552e+01 4.192977e+01 4.146854e+01 4.047313e+01 3.841267e+01 3.640001e+01 3.431170e+01 3.315973e+01 3.253522e+01 3.262734e+01 3.320929e+01 3.396099e+01 3.621721e+01 3.472799e+01 3.222399e+01 3.211584e+01 3.035601e+01 2.827131e+01 2.740782e+01 2.620691e+01 2.655922e+01 2.809888e+01 2.596724e+01 2.610258e+01 2.953111e+01 2.970129e+01 2.883709e+01 2.767006e+01 2.592919e+01 2.473445e+01 2.358776e+01 2.341131e+01 2.318781e+01 2.355042e+01 2.326666e+01 2.304262e+01 2.208809e+01 2.131438e+01 2.036604e+01 1.977111e+01 1.926813e+01 1.881843e+01 1.858810e+01 1.801787e+01 1.767022e+01 1.657921e+01 1.612518e+01 1.515942e+01 1.537905e+01 1.486552e+01 1.524519e+01 1.440766e+01 1.434495e+01 1.319297e+01 1.282524e+01 1.164433e+01 1.124924e+01 1.062178e+01 1.051210e+01 1.034475e+01 9.865049e+00 9.478814e+00 8.182383e+00 7.673774e+00 6.170620e+00 6.355493e+00 5.400855e+00 6.308527e+00 5.255640e+00 5.612133e+00 3.939711e+00 3.849192e+00 2.610531e+00 2.378545e+00 2.226776e+00 -1.136724e+00 0 0 0 0 
0 0 0 0 0 -5.111383e-02 -1.366813e-01 -1.029535e-01 -1.773705e-01 -1.404115e-01 -2.166018e-01 -1.744742e-01 -2.532317e-01 -3.130829e+00 3.112417e+00 -2.187600e+00 4.965325e+00 -3.051980e+00 5.837197e+00 -2.796623e+00 4.652144e+00 2.384103e+00 2.345539e+00 2.334799e+00 2.263683e+00 2.221710e+00 2.171549e+00 2.155580e+00 2.153494e+00 2.158552e+00 2.169567e+00 2.155156e+00 2.143414e+00 2.100673e+00 2.077589e+00 2.037069e+00 2.028491e+00 2.004970e+00 2.000814e+00 1.971315e+00 1.941053e+00 1.886845e+00 1.836308e+00 1.792703e+00 1.766741e+00 1.766806e+00 1.779136e+00 1.814681e+00 1.839889e+00 1.865414e+00 1.844916e+00 1.800671e+00 1.709081e+00 1.619609e+00 1.526762e+00 1.475545e+00 1.264226e+00 6.174944e-01 8.478501e-01 1.337366e-02 1.252803e+00 1.176700e-01 -1.529971e+00 -5.379650e-01 -1.295738e+00 -1.124671e+00 -1.165779e+00 -8.264977e-01 -1.053645e+00 3.774300e-01 -1.487712e+00 -2.130980e+00 1.093138e+00 1.321755e+00 1.283325e+00 1.231421e+00 1.153994e+00 1.100853e+00 1.049844e+00 1.041994e+00 1.032049e+00 1.048175e+00 1.035548e+00 1.025577e+00 9.831060e-01 9.486843e-01 9.064868e-01 8.800183e-01 8.576375e-01 8.376328e-01 8.273872e-01 8.020213e-01 7.865566e-01 7.380185e-01 7.178186e-01 6.748454e-01 6.846196e-01 6.617620e-01 6.786487e-01 6.413624e-01 6.385552e-01 5.872624e-01 5.708777e-01 5.182898e-01 5.006907e-01 4.727451e-01 4.678569e-01 4.604083e-01 4.390691e-01 4.218889e-01 3.642114e-01 3.415905e-01 2.747040e-01 2.829553e-01 2.404629e-01 2.808611e-01 2.339352e-01 2.496553e-01 1.747709e-01 1.694583e-01 1.099655e-01 9.856142e-02 9.655486e-02 -5.067490e-02 0 0 0 0 
0 0 0 0 0 0 0 0 0 0 0 0 0 -1.551528e+00 4.691621e-01 -1.483521e+00 1.230673e+00 -1.327007e+00 1.543343e+00 -7.519494e-01 1.276709e+00 0 0 0 0 0 0 0 0 0 0 0 0 0 0 0 0 0 0 0 0 0 0 0 0 0 0 0 0 0 0 0 0 0 0 0 -9.337499e-02 -4.271582e-01 -9.490728e-02 -3.585596e-01 -2.078599e-01 -4.331897e-01 -7.297079e-01 -6.355474e-01 -7.108864e-01 -2.683179e-01 -4.765219e-01 1.202978e-01 -8.980490e-02 9.243605e-02 -1.825838e-01 -7.268149e-01 -5.120683e-02 0 0 0 0 0 0 0 0 0 0 0 0 0 0 0 0 0 0 0 0 0 0 0 0 0 0 0 0 0 0 0 0 0 0 0 0 0 0 0 0 0 0 0 0 0 0 0 0 0 0 0 0 0 0 0 
0 0 0 0 0 0 0 0 0 0 0 0 0 -7.719878e-01 4.412768e-01 -8.767139e-01 8.817623e-01 -9.426915e-01 9.600269e-01 -6.472377e-01 6.175652e-01 0 0 0 0 0 0 0 0 0 0 0 0 0 0 0 0 0 0 0 0 0 0 0 0 0 0 0 0 0 0 0 0 0 0 0 -7.886367e-03 -7.364254e-02 -2.995275e-01 -6.828433e-01 -4.743322e-01 -3.920923e-01 -2.962020e-01 -4.311829e-02 -3.486222e-01 -5.598453e-01 -7.302331e-01 -1.016987e+00 -1.315740e+00 -9.286033e-01 -7.934513e-01 -6.106135e-01 -4.175053e-02 0 0 0 0 0 0 0 0 0 0 0 0 0 0 0 0 0 0 0 0 0 0 0 0 0 0 0 0 0 0 0 0 0 0 0 0 0 0 0 0 0 0 0 0 0 0 0 0 0 0 0 0 0 0 0 
0 0 0 0 0 0 0 0 0 0 0 0 0 1.080521e-02 5.241890e-03 4.988879e-03 -1.177303e-03 -5.942432e-03 -1.501359e-02 -2.133511e-02 -3.343504e-02 0 0 0 0 0 0 0 0 0 0 0 0 0 0 0 0 0 0 0 0 0 0 0 0 0 0 0 0 0 0 0 0 0 0 0 9.950999e-04 3.540711e-03 -9.616797e-03 -3.389064e-02 -2.973483e-02 -1.596333e-02 -1.083454e-03 5.639101e-03 -1.786404e-02 -3.590079e-02 -4.304046e-02 -6.441124e-02 -8.266960e-02 -6.294679e-02 -4.083313e-02 -2.132247e-02 -1.408233e-03 0 0 0 0 0 0 0 0 0 0 0 0 0 0 0 0 0 0 0 0 0 0 0 0 0 0 0 0 0 0 0 0 0 0 0 0 0 0 0 0 0 0 0 0 0 0 0 0 0 0 0 0 0 0 0 
0 0 0 0 0 0 0 0 0 0 0 0 0 8.013312e-01 -4.205804e-01 8.988304e-01 -8.650881e-01 9.451001e-01 -9.688528e-01 6.191844e-01 -6.650600e-01 0 0 0 0 0 0 0 0 0 0 0 0 0 0 0 0 0 0 0 0 0 0 0 0 0 0 0 0 0 0 0 0 0 0 0 0 0 0 0 0 0 0 0 0 0 0 0 0 0 0 0 0 0 0 0 0 0 0 0 0 0 0 0 0 0 0 0 0 0 0 0 0 0 0 0 0 0 0 0 0 0 0 0 0 0 0 0 0 0 0 0 0 0 0 0 0 0 0 0 0 0 0 0 0 0 0 0 
0 0 0 0 0 0 0 0 0 0 0 0 0 1.588405e+00 -4.398065e-01 1.514099e+00 -1.203360e+00 1.332971e+00 -1.552654e+00 6.928143e-01 -1.364732e+00 0 0 0 0 0 0 0 0 0 0 0 0 0 0 0 0 0 0 0 0 0 0 0 0 0 0 0 0 0 0 0 0 0 0 0 0 0 0 0 0 0 0 0 0 0 0 0 0 0 0 0 0 0 0 0 0 0 0 0 0 0 0 0 0 0 0 0 0 0 0 0 0 0 0 0 0 0 0 0 0 0 0 0 0 0 0 0 0 0 0 0 0 0 0 0 0 0 0 0 0 0 0 0 0 0 0 0 
0 0 0 0 0 5.092633e-02 1.353001e-01 1.008065e-01 1.773513e-01 1.438532e-01 2.223662e-01 1.800144e-01 2.567589e-01 3.136323e+00 -3.030504e+00 2.260814e+00 -4.863704e+00 3.097018e+00 -5.786800e+00 2.770657e+00 -4.720607e+00 -2.330757e+00 -2.291433e+00 -2.309269e+00 -2.279308e+00 -2.273365e+00 -2.232043e+00 -2.201401e+00 -2.164527e+00 -2.137849e+00 -2.131598e+00 -2.129590e+00 -2.147459e+00 -2.139633e+00 -2.133227e+00 -2.080957e+00 -2.028917e+00 -1.947103e+00 -1.895135e+00 -1.852417e+00 -1.863699e+00 -1.894573e+00 -1.945672e+00 -1.972947e+00 -1.969973e+00 -1.927688e+00 -1.850575e+00 -1.757554e+00 -1.655919e+00 -1.582428e+00 -1.540338e+00 -1.558021e+00 -1.604845e+00 -1.674747e+00 -1.721460e+00 -1.741133e+00 -1.709852e+00 -1.642458e+00 -1.549587e+00 -1.456937e+00 -1.384332e+00 -1.341279e+00 -1.338209e+00 -1.361294e+00 -1.407699e+00 -1.444593e+00 -1.458530e+00 -1.423167e+00 -1.358763e+00 -1.278291e+00 -1.212949e+00 -1.172587e+00 -1.163532e+00 -1.178675e+00 -1.195973e+00 -1.205649e+00 -1.175229e+00 -1.125273e+00 -1.050932e+00 -1.008558e+00 -9.788264e-01 -9.927272e-01 -9.987957e-01 -1.015810e+00 -9.970376e-01 -9.733615e-01 -9.275844e-01 -8.945925e-01 -8.693615e-01 -8.539746e-01 -8.390066e-01 -8.009304e-01 -7.701205e-01 -7.237240e-01 -7.149525e-01 -6.861911e-01 -6.987572e-01 -6.746382e-01 -6.873611e-01 -6.469935e-01 -6.329925e-01 -5.626782e-01 -5.284487e-01 -4.707178e-01 -4.599867e-01 -4.421745e-01 -4.491158e-01 -4.521975e-01 -4.387110e-01 -4.211895e-01 -3.598566e-01 -3.340967e-01 -2.717161e-01 -2.868162e-01 -2.471622e-01 -2.844237e-01 -2.394124e-01 -2.659711e-01 -2.009880e-01 -1.921382e-01 -1.179054e-01 -9.588501e-02 -9.379766e-02 5.082851e-02 0 0 0 0 
0 0 0 0 0 1.142929e+00 3.034721e+00 2.259234e+00 3.978951e+00 3.225839e+00 4.985822e+00 4.032205e+00 5.752421e+00 7.127312e+00 -9.007744e+00 -8.434635e+00 -2.397119e+01 -2.310678e+01 -3.919181e+01 -3.753735e+01 -5.427104e+01 -5.240229e+01 -5.151708e+01 -5.191862e+01 -5.124429e+01 -5.111063e+01 -5.018068e+01 -4.949101e+01 -4.866120e+01 -4.806072e+01 -4.792000e+01 -4.787477e+01 -4.827681e+01 -4.810060e+01 -4.795637e+01 -4.677993e+01 -4.560884e+01 -4.376782e+01 -4.259847e+01 -4.163736e+01 -4.189124e+01 -4.258591e+01 -4.373575e+01 -4.434946e+01 -4.428256e+01 -4.333115e+01 -4.159604e+01 -3.950335e+01 -3.721687e+01 -3.556379e+01 -3.461703e+01 -3.501471e+01 -3.606793e+01 -3.764029e+01 -3.869109e+01 -3.913366e+01 -3.842996e+01 -3.691396e+01 -3.482503e+01 -3.274123e+01 -3.110841e+01 -3.014023e+01 -3.007118e+01 -3.059032e+01 -3.163389e+01 -3.246358e+01 -3.277703e+01 -3.198178e+01 -3.053345e+01 -2.872395e+01 -2.725471e+01 -2.634724e+01 -2.614364e+01 -2.648409e+01 -2.687301e+01 -2.709055e+01 -2.640658e+01 -2.528348e+01 -2.361222e+01 -2.265963e+01 -2.199135e+01 -2.230388e+01 -2.244035e+01 -2.282291e+01 -2.240103e+01 -2.186887e+01 -2.084006e+01 -2.009848e+01 -1.953143e+01 -1.918557e+01 -1.884914e+01 -1.799324e+01 -1.730078e+01 -1.625795e+01 -1.606074e+01 -1.541436e+01 -1.569674e+01 -1.515483e+01 -1.544092e+01 -1.453411e+01 -1.421983e+01 -1.264049e+01 -1.187172e+01 -1.057531e+01 -1.033456e+01 -9.934744e+00 -1.009089e+01 -1.016010e+01 -9.856888e+00 -9.463029e+00 -8.084491e+00 -7.505394e+00 -6.103490e+00 -6.442188e+00 -5.551289e+00 -6.388514e+00 -5.378654e+00 -5.978587e+00 -4.528377e+00 -4.358478e+00 -2.788484e+00 -2.317810e+00 -2.164669e+00 1.140166e+00 0 0 0 0 
0 0 0 0 0 1.654404e+00 4.392344e+00 3.269472e+00 5.759252e+00 4.668777e+00 7.215852e+00 5.834683e+00 8.324176e+00 4.723157e+00 -9.212502e+00 -1.699046e+01 -2.890750e+01 -3.986025e+01 -5.005472e+01 -6.068943e+01 -7.354935e+01 -7.587680e+01 -7.459477e+01 -7.517632e+01 -7.419973e+01 -7.400618e+01 -7.265941e+01 -7.166061e+01 -7.045888e+01 -6.958923e+01 -6.938543e+01 -6.931990e+01 -6.990212e+01 -6.964691e+01 -6.943802e+01 -6.773426e+01 -6.603827e+01 -6.337213e+01 -6.167871e+01 -6.028689e+01 -6.065455e+01 -6.166055e+01 -6.332573e+01 -6.421449e+01 -6.411761e+01 -6.273981e+01 -6.022707e+01 -5.719660e+01 -5.388550e+01 -5.149168e+01 -5.012069e+01 -5.069655e+01 -5.222171e+01 -5.449862e+01 -5.602029e+01 -5.666117e+01 -5.564213e+01 -5.344683e+01 -5.042189e+01 -4.740441e+01 -4.504003e+01 -4.363808e+01 -4.353811e+01 -4.428982e+01 -4.580094e+01 -4.700236e+01 -4.745626e+01 -4.630471e+01 -4.420748e+01 -4.158733e+01 -3.945988e+01 -3.814589e+01 -3.785108e+01 -3.834403e+01 -3.890719e+01 -3.922217e+01 -3.823180e+01 -3.660559e+01 -3.418570e+01 -3.280641e+01 -3.183881e+01 -3.229134e+01 -3.248895e+01 -3.304290e+01 -3.243208e+01 -3.166156e+01 -3.017197e+01 -2.909823e+01 -2.827723e+01 -2.777645e+01 -2.728933e+01 -2.605006e+01 -2.504746e+01 -2.353756e+01 -2.325201e+01 -2.231613e+01 -2.272497e+01 -2.194040e+01 -2.235466e+01 -2.104183e+01 -2.058689e+01 -1.830044e+01 -1.718749e+01 -1.531071e+01 -1.496225e+01 -1.438350e+01 -1.460962e+01 -1.470980e+01 -1.427077e+01 -1.370049e+01 -1.170452e+01 -1.086602e+01 -8.836261e+00 -9.326482e+00 -8.036652e+00 -9.248793e+00 -7.787089e+00 -8.656487e+00 -6.559369e+00 -6.320733e+00 -4.072541e+00 -3.397219e+00 -3.148534e+00 1.650261e+00 0 0 0 0 
0 0 0 0 0 5.624021e-01 1.492923e+00 1.111045e+00 1.957653e+00 1.586792e+00 2.452396e+00 1.982493e+00 2.828514e+00 1.604109e+00 -3.133197e+00 -5.777643e+00 -9.829771e+00 -1.355461e+01 -1.702174e+01 -2.063916e+01 -2.501361e+01 -2.580527e+01 -2.536912e+01 -2.556697e+01 -2.523475e+01 -2.516892e+01 -2.471078e+01 -2.437100e+01 -2.396220e+01 -2.366636e+01 -2.359702e+01 -2.357473e+01 -2.377277e+01 -2.368594e+01 -2.361488e+01 -2.303528e+01 -2.245835e+01 -2.155142e+01 -2.097538e+01 -2.050194e+01 -2.062701e+01 -2.096921e+01 -2.153565e+01 -2.183797e+01 -2.180502e+01 -2.133635e+01 -2.048161e+01 -1.945081e+01 -1.832454e+01 -1.751032e+01 -1.704400e+01 -1.723986e+01 -1.775862e+01 -1.853307e+01 -1.905066e+01 -1.926865e+01 -1.892203e+01 -1.817532e+01 -1.714645e+01 -1.612013e+01 -1.531596e+01 -1.483914e+01 -1.480513e+01 -1.506080e+01 -1.557475e+01 -1.598338e+01 -1.613776e+01 -1.574610e+01 -1.503280e+01 -1.414167e+01 -1.341812e+01 -1.297124e+01 -1.287097e+01 -1.303862e+01 -1.323015e+01 -1.333727e+01 -1.300045e+01 -1.244739e+01 -1.162441e+01 -1.115534e+01 -1.082629e+01 -1.098019e+01 -1.104740e+01 -1.123580e+01 -1.102808e+01 -1.076605e+01 -1.025950e+01 -9.894349e+00 -9.615158e+00 -9.444856e+00 -9.279201e+00 -8.857752e+00 -8.516802e+00 -8.003329e+00 -7.906215e+00 -7.587960e+00 -7.726988e+00 -7.460203e+00 -7.601095e+00 -7.154704e+00 -7.000044e+00 -6.222626e+00 -5.844218e+00 -5.206125e+00 -5.087679e+00 -4.890929e+00 -4.967844e+00 -5.001904e+00 -4.852592e+00 -4.658654e+00 -3.979885e+00 -3.694724e+00 -3.004487e+00 -3.171110e+00 -2.732526e+00 -3.144703e+00 -2.647848e+00 -2.943871e+00 -2.231980e+00 -2.154394e+00 -1.401963e+00 -1.175294e+00 -1.077663e+00 5.609238e-01 0 0 0 0 
0 0 0 0 0 0 0 0 0 0 0 0 0 0 0 0 0 0 0 0 0 0 0 0 0 0 0 0 0 0 0 0 0 0 0 0 0 0 0 0 0 0 0 0 0 0 0 0 0 0 0 0 0 0 0 0 0 0 0 0 0 0 0 0 0 0 0 0 0 0 0 0 0 0 0 0 0 0 0 0 0 0 0 0 0 0 0 0 0 0 0 0 0 0 0 0 0 0 0 0 0 0 0 0 0 0 0 0 0 0 0 0 0 0 0 0 0 0 0 0 0 0 0 0 0 0 0 0 
