# vtk DataFile Version 2.0
Comment goes here
ASCII

DATASET STRUCTURED_POINTS
FIELD FieldData 1
TIME 1 1 double
0.28000000
DIMENSIONS    128   16   1

ORIGIN    0.000   0.000   0.000
SPACING   0.0078125 0.015625   1.000

POINT_DATA   2048
SCALARS P double
LOOKUP_TABLE default

-1.422286e-01 -1.445096e-01 -1.428661e-01 -1.474742e-01 -1.412305e-01 -1.497040e-01 -1.358246e-01 -1.503368e-01 -1.378003e-01 -1.483967e-01 -1.392174e-01 -1.448119e-01 -1.382509e-01 -1.384021e-01 -1.324522e-01 -1.287129e-01 -1.239568e-01 -1.158738e-01 -1.145339e-01 -1.033625e-01 -1.053555e-01 -9.539723e-02 -1.008723e-01 -9.390031e-02 -1.024932e-01 -9.622526e-02 -1.061839e-01 -9.859539e-02 -1.081717e-01 -9.924896e-02 -1.084637e-01 -9.969815e-02 -1.088420e-01 -1.011096e-01 -1.093133e-01 -1.026431e-01 -1.094106e-01 -1.048330e-01 -1.111747e-01 -1.103692e-01 -1.169945e-01 -1.194434e-01 -1.244770e-01 -1.271674e-01 -1.280275e-01 -1.289746e-01 -1.263810e-01 -1.274182e-01 -1.251673e-01 -1.290422e-01 -1.298201e-01 -1.364233e-01 -1.394562e-01 -1.458321e-01 -1.488300e-01 -1.521617e-01 -1.543438e-01 -1.543295e-01 -1.573026e-01 -1.552651e-01 -1.618423e-01 -1.591893e-01 -1.654531e-01 -1.689316e-01 -1.813245e-01 -1.844252e-01 -1.969685e-01 -1.965886e-01 -2.050469e-01 -2.028580e-01 -2.063588e-01 -2.030658e-01 -2.147427e-01 -2.150170e-01 -2.244617e-01 -2.256431e-01 -2.310178e-01 -2.305628e-01 -2.311431e-01 -2.291094e-01 -2.273409e-01 -2.264322e-01 -2.260826e-01 -2.280387e-01 -2.301975e-01 -2.330130e-01 -2.354741e-01 -2.354228e-01 -2.364473e-01 -2.319834e-01 -2.323878e-01 -2.244835e-01 -2.266527e-01 -2.170800e-01 -2.226714e-01 -2.122559e-01 -2.209784e-01 -2.088799e-01 -2.185556e-01 -2.037101e-01 -2.125228e-01 -1.958996e-01 -2.040133e-01 -1.883727e-01 -1.958646e-01 -1.828948e-01 -1.881964e-01 -1.782240e-01 -1.794511e-01 -1.730216e-01 -1.694961e-01 -1.673308e-01 -1.591949e-01 -1.615297e-01 -1.496529e-01 -1.559582e-01 -1.421632e-01 -1.512566e-01 -1.379576e-01 -1.474014e-01 -1.368002e-01 -1.431730e-01 -1.379626e-01 -1.388638e-01 -1.387715e-01 -1.391475e-01 -1.405229e-01 -1.414678e-01 
-1.250356e-01 -1.275551e-01 -1.255927e-01 -1.302035e-01 -1.232906e-01 -1.322614e-01 -1.154083e-01 -1.314697e-01 -1.189255e-01 -1.283830e-01 -1.222590e-01 -1.234466e-01 -1.236643e-01 -1.157697e-01 -1.231245e-01 -1.086818e-01 -1.217255e-01 -1.033347e-01 -1.191982e-01 -9.823097e-02 -1.137897e-01 -9.282903e-02 -1.072926e-01 -9.124780e-02 -1.068116e-01 -9.423563e-02 -1.093791e-01 -9.532504e-02 -1.063838e-01 -9.010261e-02 -9.985043e-02 -8.689269e-02 -9.994898e-02 -9.207403e-02 -1.054945e-01 -9.917247e-02 -1.097390e-01 -1.041950e-01 -1.125418e-01 -1.100275e-01 -1.180186e-01 -1.191593e-01 -1.260207e-01 -1.279516e-01 -1.298251e-01 -1.284452e-01 -1.245125e-01 -1.215912e-01 -1.177988e-01 -1.200940e-01 -1.230084e-01 -1.317207e-01 -1.388930e-01 -1.475171e-01 -1.526948e-01 -1.547624e-01 -1.548818e-01 -1.492078e-01 -1.468353e-01 -1.374558e-01 -1.419761e-01 -1.402770e-01 -1.523546e-01 -1.611955e-01 -1.788218e-01 -1.848220e-01 -1.981634e-01 -1.941461e-01 -1.968208e-01 -1.886429e-01 -1.893158e-01 -1.829679e-01 -1.952536e-01 -1.976924e-01 -2.125081e-01 -2.185333e-01 -2.276923e-01 -2.282842e-01 -2.272715e-01 -2.217727e-01 -2.156555e-01 -2.114920e-01 -2.093721e-01 -2.124310e-01 -2.170883e-01 -2.236550e-01 -2.286612e-01 -2.306205e-01 -2.315992e-01 -2.266972e-01 -2.248054e-01 -2.149072e-01 -2.135628e-01 -2.014471e-01 -2.039593e-01 -1.933687e-01 -2.026460e-01 -1.941719e-01 -2.064790e-01 -1.946420e-01 -2.029598e-01 -1.859083e-01 -1.913471e-01 -1.747714e-01 -1.801442e-01 -1.677429e-01 -1.726272e-01 -1.648354e-01 -1.662674e-01 -1.617882e-01 -1.567714e-01 -1.548956e-01 -1.437743e-01 -1.462390e-01 -1.312488e-01 -1.387083e-01 -1.224270e-01 -1.335990e-01 -1.179043e-01 -1.298622e-01 -1.172007e-01 -1.256244e-01 -1.192845e-01 -1.199303e-01 -1.209009e-01 -1.218179e-01 -1.231374e-01 -1.246079e-01 
-1.428120e-01 -1.431646e-01 -1.459390e-01 -1.473815e-01 -1.471559e-01 -1.510771e-01 -1.192822e-01 -1.544010e-01 -1.391771e-01 -1.530992e-01 -1.467108e-01 -1.541079e-01 -1.518088e-01 -1.478431e-01 -1.392450e-01 -1.368849e-01 -1.275622e-01 -1.176192e-01 -1.170811e-01 -9.752987e-02 -1.008998e-01 -8.882319e-02 -9.376094e-02 -8.896408e-02 -9.950733e-02 -9.660416e-02 -1.097346e-01 -9.987891e-02 -1.050848e-01 -8.663314e-02 -8.982934e-02 -7.676440e-02 -8.993002e-02 -8.717982e-02 -1.038365e-01 -1.026223e-01 -1.146999e-01 -1.117400e-01 -1.192409e-01 -1.184616e-01 -1.254880e-01 -1.297567e-01 -1.371010e-01 -1.430701e-01 -1.432606e-01 -1.418255e-01 -1.308233e-01 -1.239028e-01 -1.124519e-01 -1.152656e-01 -1.182927e-01 -1.352836e-01 -1.473000e-01 -1.642750e-01 -1.698066e-01 -1.725567e-01 -1.646768e-01 -1.535860e-01 -1.390011e-01 -1.272717e-01 -1.502208e-01 -1.222893e-01 -1.060833e-01 -1.442368e-01 -1.855904e-01 -2.081113e-01 -2.429985e-01 -2.414482e-01 -2.544885e-01 -2.479987e-01 -1.868758e-01 -1.543820e-01 -2.013335e-01 -2.080823e-01 -2.257761e-01 -2.401627e-01 -2.521241e-01 -2.539400e-01 -2.468707e-01 -2.345704e-01 -2.186652e-01 -2.090620e-01 -2.034873e-01 -2.100738e-01 -2.198574e-01 -2.341680e-01 -2.439077e-01 -2.495804e-01 -2.510755e-01 -2.452143e-01 -2.403465e-01 -2.259574e-01 -2.200652e-01 -2.019730e-01 -2.018509e-01 -1.893149e-01 -2.036579e-01 -1.994534e-01 -2.209489e-01 -2.108298e-01 -2.223385e-01 -1.996741e-01 -2.048531e-01 -1.820404e-01 -1.890579e-01 -1.735294e-01 -1.830723e-01 -1.749657e-01 -1.816753e-01 -1.771431e-01 -1.739851e-01 -1.693472e-01 -1.559466e-01 -1.557039e-01 -1.377508e-01 -1.457298e-01 -1.274681e-01 -1.415859e-01 -1.235881e-01 -1.394073e-01 -1.234326e-01 -1.351688e-01 -1.320726e-01 -1.250044e-01 -1.333982e-01 -1.324311e-01 -1.385358e-01 -1.382584e-01 
-1.283729e-01 -1.268436e-01 -1.351916e-01 -1.307969e-01 -1.442684e-01 -1.335079e-01 -8.216298e-02 -1.486886e-01 -1.330572e-01 -1.478215e-01 -1.455298e-01 -1.501950e-01 -1.526997e-01 -1.250321e-01 -1.034584e-01 -7.807573e-02 -5.333334e-02 -4.834120e-04 -5.367551e-03 7.322510e-02 5.495120e-02 1.011800e-01 9.118695e-02 1.083291e-01 9.895908e-02 1.083553e-01 9.356441e-02 9.920728e-02 8.676092e-02 9.517172e-02 8.697966e-02 9.498415e-02 8.530694e-02 8.725436e-02 7.361091e-02 7.004670e-02 5.554270e-02 5.130053e-02 4.131454e-02 4.031002e-02 3.576997e-02 3.611367e-02 3.241185e-02 3.056510e-02 2.735391e-02 2.660666e-02 2.720998e-02 2.994269e-02 3.257667e-02 3.271719e-02 2.867669e-02 1.997767e-02 8.324790e-03 -2.622548e-03 -1.170278e-02 -1.668992e-02 -2.299056e-02 -3.027150e-02 -4.249444e-02 -5.487343e-02 -1.475747e-01 -3.848872e-02 9.888889e-02 3.178329e-02 -1.464356e-02 -5.768306e-02 -1.305238e-01 -1.564631e-01 -2.093146e-01 -2.336316e-01 -2.166320e-02 5.704095e-02 -9.233184e-02 -1.008398e-01 -1.129550e-01 -1.178114e-01 -1.255174e-01 -1.254936e-01 -1.260343e-01 -1.236626e-01 -1.241891e-01 -1.260682e-01 -1.325639e-01 -1.407008e-01 -1.508676e-01 -1.574500e-01 -1.641324e-01 -1.663688e-01 -1.721152e-01 -1.717422e-01 -1.750538e-01 -1.681907e-01 -1.668245e-01 -1.540509e-01 -1.520893e-01 -1.403033e-01 -1.448270e-01 -1.384539e-01 -1.479785e-01 -1.408179e-01 -1.464310e-01 -1.344969e-01 -1.373447e-01 -1.267176e-01 -1.308263e-01 -1.250883e-01 -1.303438e-01 -1.293113e-01 -1.334710e-01 -1.360429e-01 -1.345128e-01 -1.345338e-01 -1.225630e-01 -1.222236e-01 -1.080102e-01 -1.150563e-01 -1.028674e-01 -1.147405e-01 -1.025519e-01 -1.151666e-01 -1.004793e-01 -1.128950e-01 -1.193551e-01 -1.065096e-01 -1.149146e-01 -1.151053e-01 -1.219181e-01 -1.217117e-01 
-1.481219e-01 -1.448028e-01 -1.572158e-01 -1.506087e-01 -1.697788e-01 -1.563468e-01 -1.357250e-01 -1.777044e-01 -1.790712e-01 -1.844921e-01 -1.950572e-01 -1.906046e-01 -2.077690e-01 -1.733713e-01 -6.594555e-02 -6.257784e-02 9.579531e-02 1.801011e-01 2.592135e-01 4.093572e-01 4.341407e-01 4.737933e-01 4.597965e-01 4.766779e-01 4.711302e-01 4.801778e-01 4.711835e-01 4.644819e-01 4.473329e-01 4.310233e-01 4.169634e-01 4.069159e-01 4.056935e-01 4.015229e-01 4.007032e-01 3.905714e-01 3.827199e-01 3.683418e-01 3.605107e-01 3.527696e-01 3.520513e-01 3.528852e-01 3.544910e-01 3.548786e-01 3.475938e-01 3.389186e-01 3.208349e-01 3.086562e-01 2.920057e-01 2.897895e-01 2.839621e-01 2.900106e-01 2.858396e-01 2.889177e-01 2.775918e-01 2.689231e-01 2.414150e-01 2.131637e-01 1.694588e-01 1.371119e-01 5.150906e-02 1.358384e-01 2.651448e-01 2.377750e-01 2.389764e-01 2.196433e-01 1.795166e-01 1.469867e-01 9.806839e-02 5.733831e-02 2.050775e-01 2.433737e-01 1.139198e-01 1.065558e-01 1.007315e-01 1.099406e-01 1.047198e-01 1.032719e-01 8.204116e-02 6.388978e-02 3.096164e-02 1.126135e-02 -1.433300e-02 -1.861911e-02 -2.673244e-02 -1.695267e-02 -2.008028e-02 -1.523185e-02 -2.810310e-02 -3.416947e-02 -5.229668e-02 -6.003271e-02 -7.314763e-02 -7.665087e-02 -8.061304e-02 -7.608863e-02 -6.791264e-02 -5.766134e-02 -4.586557e-02 -4.273013e-02 -4.012259e-02 -4.904797e-02 -5.172394e-02 -6.356762e-02 -6.478543e-02 -7.407875e-02 -7.219434e-02 -7.868207e-02 -7.776677e-02 -8.535976e-02 -8.902862e-02 -9.501621e-02 -9.789403e-02 -9.868518e-02 -1.037990e-01 -1.037000e-01 -1.115956e-01 -1.098315e-01 -1.182920e-01 -1.148270e-01 -1.196888e-01 -1.198287e-01 -1.361056e-01 -1.284603e-01 -1.334550e-01 -1.330686e-01 -1.404063e-01 -1.388899e-01 
-1.319869e-01 -1.329770e-01 -1.389239e-01 -1.400484e-01 -1.461747e-01 -1.483829e-01 -1.504762e-01 -1.627330e-01 -1.655059e-01 -1.740181e-01 -1.787212e-01 -1.844597e-01 -1.912560e-01 -1.933742e-01 -2.824842e-02 -1.519105e-02 1.404710e-01 1.693972e-01 3.167304e-01 3.464386e-01 5.049052e-01 5.035166e-01 4.933977e-01 4.964187e-01 4.890356e-01 4.920691e-01 4.833410e-01 4.779925e-01 4.631041e-01 4.503819e-01 4.362713e-01 4.270520e-01 4.218921e-01 4.177984e-01 4.145978e-01 4.081217e-01 4.011439e-01 3.920302e-01 3.839915e-01 3.780942e-01 3.731193e-01 3.723726e-01 3.687070e-01 3.684439e-01 3.588191e-01 3.523929e-01 3.343985e-01 3.245321e-01 3.064879e-01 3.036260e-01 2.943047e-01 2.993298e-01 2.932184e-01 2.966007e-01 2.846085e-01 2.779445e-01 2.547555e-01 2.368005e-01 2.062040e-01 1.853272e-01 1.619694e-01 1.647678e-01 1.761378e-01 1.844520e-01 1.934070e-01 1.964173e-01 1.925210e-01 1.806291e-01 1.620357e-01 1.457083e-01 1.402392e-01 1.317693e-01 1.098783e-01 1.103415e-01 1.071013e-01 1.148067e-01 1.088371e-01 1.072105e-01 8.773997e-02 7.404351e-02 4.662876e-02 3.305293e-02 1.227315e-02 1.074854e-02 2.736639e-03 1.006009e-02 4.734044e-03 7.976981e-03 -3.075425e-03 -7.259096e-03 -2.166736e-02 -2.875757e-02 -4.053616e-02 -4.648041e-02 -5.147712e-02 -5.176670e-02 -4.599759e-02 -4.106371e-02 -3.076185e-02 -3.113212e-02 -2.758406e-02 -3.790728e-02 -3.844960e-02 -5.098719e-02 -5.003174e-02 -5.999364e-02 -5.649139e-02 -6.358207e-02 -6.075780e-02 -6.749998e-02 -6.906244e-02 -7.564555e-02 -7.998400e-02 -8.342377e-02 -8.989373e-02 -9.031751e-02 -9.815798e-02 -9.597107e-02 -1.047086e-01 -1.010596e-01 -1.093912e-01 -1.073844e-01 -1.164940e-01 -1.175222e-01 -1.198607e-01 -1.211398e-01 -1.255142e-01 -1.266323e-01 
-1.499162e-01 -1.493004e-01 -1.580369e-01 -1.580152e-01 -1.660774e-01 -1.679766e-01 -1.726963e-01 -1.802194e-01 -1.866678e-01 -1.920724e-01 -2.011058e-01 -2.045279e-01 -2.157422e-01 -2.185856e-01 -4.373328e-02 -3.486312e-02 1.328287e-01 1.562539e-01 3.154556e-01 3.410132e-01 5.073798e-01 5.069953e-01 4.933076e-01 4.948722e-01 4.830383e-01 4.830826e-01 4.717947e-01 4.680724e-01 4.566167e-01 4.498465e-01 4.398001e-01 4.325976e-01 4.252632e-01 4.182857e-01 4.119867e-01 4.041722e-01 3.974638e-01 3.892664e-01 3.826246e-01 3.757018e-01 3.697255e-01 3.644180e-01 3.580270e-01 3.528706e-01 3.441151e-01 3.377281e-01 3.263665e-01 3.196471e-01 3.078221e-01 3.028109e-01 2.922392e-01 2.885914e-01 2.779868e-01 2.730897e-01 2.603830e-01 2.517846e-01 2.360168e-01 2.231040e-01 2.066685e-01 1.936800e-01 1.799978e-01 1.727582e-01 1.636283e-01 1.619704e-01 1.548922e-01 1.540298e-01 1.471197e-01 1.436585e-01 1.324030e-01 1.272046e-01 1.166032e-01 1.117769e-01 1.049803e-01 1.030021e-01 9.496298e-02 9.380666e-02 8.339742e-02 8.000582e-02 6.550755e-02 5.922314e-02 4.223951e-02 3.603797e-02 2.051232e-02 1.755187e-02 5.599037e-03 5.532780e-03 -4.593754e-03 -4.950944e-03 -1.545673e-02 -1.760661e-02 -2.797213e-02 -3.088580e-02 -3.912589e-02 -4.145097e-02 -4.616527e-02 -4.713034e-02 -4.800103e-02 -4.840704e-02 -4.739608e-02 -4.966940e-02 -4.940212e-02 -5.455149e-02 -5.514102e-02 -6.163500e-02 -6.222863e-02 -6.854938e-02 -6.902300e-02 -7.457829e-02 -7.577188e-02 -8.064021e-02 -8.335555e-02 -8.710287e-02 -9.110790e-02 -9.317120e-02 -9.861475e-02 -9.931033e-02 -1.060938e-01 -1.056571e-01 -1.133498e-01 -1.121760e-01 -1.203367e-01 -1.190936e-01 -1.282377e-01 -1.266132e-01 -1.347955e-01 -1.337824e-01 -1.421093e-01 -1.413098e-01 
-1.343811e-01 -1.369565e-01 -1.424865e-01 -1.459727e-01 -1.512978e-01 -1.562452e-01 -1.611511e-01 -1.682136e-01 -1.733515e-01 -1.812041e-01 -1.871786e-01 -1.956592e-01 -2.028428e-01 -2.126161e-01 -2.653663e-02 -2.696284e-02 1.505421e-01 1.560201e-01 3.305783e-01 3.359199e-01 5.147619e-01 5.135858e-01 4.991565e-01 4.983948e-01 4.859358e-01 4.844564e-01 4.729406e-01 4.694481e-01 4.582058e-01 4.528194e-01 4.425115e-01 4.365899e-01 4.279056e-01 4.220294e-01 4.141556e-01 4.079813e-01 4.000393e-01 3.938550e-01 3.858592e-01 3.805099e-01 3.725590e-01 3.681619e-01 3.594882e-01 3.551346e-01 3.445525e-01 3.394161e-01 3.268894e-01 3.215930e-01 3.086496e-01 3.045621e-01 2.925426e-01 2.895841e-01 2.779027e-01 2.742969e-01 2.615303e-01 2.554642e-01 2.410042e-01 2.320188e-01 2.176499e-01 2.088347e-01 1.963389e-01 1.899018e-01 1.788329e-01 1.761244e-01 1.674231e-01 1.656274e-01 1.569633e-01 1.539175e-01 1.424950e-01 1.380202e-01 1.259039e-01 1.199748e-01 1.119882e-01 1.088352e-01 9.994931e-02 9.786867e-02 8.717336e-02 8.409673e-02 7.072070e-02 6.632588e-02 5.159195e-02 4.772161e-02 3.420579e-02 3.257235e-02 2.150582e-02 2.153913e-02 1.186023e-02 1.145328e-02 1.960569e-03 1.340501e-05 -8.981913e-03 -1.207926e-02 -1.930412e-02 -2.269789e-02 -2.706757e-02 -3.016183e-02 -3.139389e-02 -3.460205e-02 -3.392932e-02 -3.861261e-02 -3.772801e-02 -4.433975e-02 -4.351086e-02 -5.092901e-02 -4.985041e-02 -5.694357e-02 -5.584589e-02 -6.213188e-02 -6.185331e-02 -6.728144e-02 -6.860899e-02 -7.297427e-02 -7.603455e-02 -7.896743e-02 -8.364508e-02 -8.517430e-02 -9.114199e-02 -9.158872e-02 -9.838458e-02 -9.836995e-02 -1.054453e-01 -1.057620e-01 -1.126377e-01 -1.136585e-01 -1.195757e-01 -1.211250e-01 -1.267830e-01 -1.287833e-01 
-1.507693e-01 -1.512166e-01 -1.595821e-01 -1.609240e-01 -1.687978e-01 -1.716130e-01 -1.788376e-01 -1.834962e-01 -1.912902e-01 -1.963770e-01 -2.055271e-01 -2.109517e-01 -2.216732e-01 -2.284775e-01 -4.200528e-02 -3.906910e-02 1.387723e-01 1.483554e-01 3.228257e-01 3.318472e-01 5.110938e-01 5.109158e-01 4.950258e-01 4.947042e-01 4.810346e-01 4.797277e-01 4.677709e-01 4.648748e-01 4.542934e-01 4.497907e-01 4.404536e-01 4.346967e-01 4.263916e-01 4.197224e-01 4.120248e-01 4.047714e-01 3.973642e-01 3.900561e-01 3.828382e-01 3.759610e-01 3.686592e-01 3.621591e-01 3.540810e-01 3.474734e-01 3.380200e-01 3.311019e-01 3.204350e-01 3.136436e-01 3.025184e-01 2.963613e-01 2.853437e-01 2.797651e-01 2.688411e-01 2.632719e-01 2.521412e-01 2.459953e-01 2.345415e-01 2.277778e-01 2.161790e-01 2.082345e-01 1.980363e-01 1.914664e-01 1.799889e-01 1.748286e-01 1.631155e-01 1.566033e-01 1.447081e-01 1.382982e-01 1.262369e-01 1.223668e-01 1.112514e-01 1.069788e-01 9.888511e-02 9.548159e-02 8.594625e-02 8.278546e-02 7.188852e-02 6.873231e-02 5.668953e-02 5.367206e-02 4.121299e-02 3.892608e-02 2.702715e-02 2.586585e-02 1.501474e-02 1.461263e-02 4.594021e-03 4.052868e-03 -5.455362e-03 -6.734792e-03 -1.551009e-02 -1.749547e-02 -2.491887e-02 -2.736469e-02 -3.301824e-02 -3.589659e-02 -3.983336e-02 -4.336518e-02 -4.598017e-02 -5.031737e-02 -5.199306e-02 -5.693991e-02 -5.789323e-02 -6.298577e-02 -6.348923e-02 -6.832756e-02 -6.887852e-02 -7.323970e-02 -7.444108e-02 -7.815019e-02 -8.043717e-02 -8.327156e-02 -8.685593e-02 -8.871235e-02 -9.371146e-02 -9.469366e-02 -1.010343e-01 -1.013192e-01 -1.087667e-01 -1.086368e-01 -1.169358e-01 -1.166596e-01 -1.254987e-01 -1.250746e-01 -1.338354e-01 -1.335383e-01 -1.422180e-01 -1.421815e-01 
-1.347697e-01 -1.375882e-01 -1.433198e-01 -1.469934e-01 -1.524634e-01 -1.575528e-01 -1.625344e-01 -1.696728e-01 -1.747741e-01 -1.826754e-01 -1.885463e-01 -1.970985e-01 -2.041545e-01 -2.141043e-01 -2.791555e-02 -2.805413e-02 1.487831e-01 1.549753e-01 3.278371e-01 3.343385e-01 5.102302e-01 5.105923e-01 4.950325e-01 4.951620e-01 4.818401e-01 4.810998e-01 4.694879e-01 4.673890e-01 4.571483e-01 4.536648e-01 4.444001e-01 4.394538e-01 4.304967e-01 4.242130e-01 4.151794e-01 4.081556e-01 3.991910e-01 3.925569e-01 3.842072e-01 3.789372e-01 3.710800e-01 3.666689e-01 3.577284e-01 3.525898e-01 3.411948e-01 3.348582e-01 3.216880e-01 3.154850e-01 3.022803e-01 2.972860e-01 2.849095e-01 2.810695e-01 2.695076e-01 2.661582e-01 2.550329e-01 2.514024e-01 2.404106e-01 2.361480e-01 2.252164e-01 2.201613e-01 2.090865e-01 2.035195e-01 1.922026e-01 1.864891e-01 1.751498e-01 1.692352e-01 1.577845e-01 1.518277e-01 1.404514e-01 1.352745e-01 1.247297e-01 1.204504e-01 1.104284e-01 1.066500e-01 9.575540e-02 9.215475e-02 8.021960e-02 7.698155e-02 6.440812e-02 6.194416e-02 4.958535e-02 4.857121e-02 3.739286e-02 3.793236e-02 2.805620e-02 2.922881e-02 2.000198e-02 2.034612e-02 1.116767e-02 9.897412e-03 1.222402e-03 -1.297224e-03 -8.307118e-03 -1.153510e-02 -1.640658e-02 -2.065366e-02 -2.395338e-02 -2.986012e-02 -3.204253e-02 -3.922713e-02 -3.993402e-02 -4.732512e-02 -4.634481e-02 -5.317211e-02 -5.104550e-02 -5.720029e-02 -5.515246e-02 -6.083651e-02 -5.995491e-02 -6.488898e-02 -6.547604e-02 -6.910146e-02 -7.134757e-02 -7.365700e-02 -7.785606e-02 -7.920257e-02 -8.515181e-02 -8.574474e-02 -9.280657e-02 -9.325770e-02 -1.010211e-01 -1.021992e-01 -1.099878e-01 -1.117751e-01 -1.183669e-01 -1.204419e-01 -1.265387e-01 -1.288851e-01 
-1.506316e-01 -1.504960e-01 -1.596167e-01 -1.600189e-01 -1.683769e-01 -1.705999e-01 -1.754061e-01 -1.828863e-01 -1.888984e-01 -1.941107e-01 -2.025804e-01 -2.059593e-01 -2.167868e-01 -2.200122e-01 -4.471622e-02 -3.533963e-02 1.316132e-01 1.561877e-01 3.133365e-01 3.403740e-01 5.015010e-01 5.034497e-01 4.879845e-01 4.894028e-01 4.759871e-01 4.758290e-01 4.645658e-01 4.625859e-01 4.534073e-01 4.497684e-01 4.419919e-01 4.363135e-01 4.287377e-01 4.210639e-01 4.132373e-01 4.044266e-01 3.967258e-01 3.883637e-01 3.816637e-01 3.750470e-01 3.691901e-01 3.634340e-01 3.560664e-01 3.488186e-01 3.380202e-01 3.288216e-01 3.158273e-01 3.069320e-01 2.942425e-01 2.871600e-01 2.757485e-01 2.705121e-01 2.604611e-01 2.565566e-01 2.474483e-01 2.439232e-01 2.351012e-01 2.312676e-01 2.222883e-01 2.174105e-01 2.074973e-01 2.011948e-01 1.899475e-01 1.825248e-01 1.703977e-01 1.622741e-01 1.496327e-01 1.416028e-01 1.293953e-01 1.229729e-01 1.121771e-01 1.074173e-01 9.711117e-02 9.276964e-02 8.140982e-02 7.719639e-02 6.494638e-02 6.148761e-02 4.898193e-02 4.686305e-02 3.502377e-02 3.507045e-02 2.484849e-02 2.695132e-02 1.806404e-02 2.091830e-02 1.229671e-02 1.396799e-02 4.567522e-03 4.029067e-03 -5.631841e-03 -7.670857e-03 -1.594976e-02 -1.862750e-02 -2.500879e-02 -2.891581e-02 -3.433972e-02 -4.038850e-02 -4.510102e-02 -5.228357e-02 -5.503588e-02 -6.163449e-02 -6.186285e-02 -6.715224e-02 -6.557701e-02 -6.982370e-02 -6.804118e-02 -7.190738e-02 -7.137629e-02 -7.481664e-02 -7.582774e-02 -7.816244e-02 -8.085585e-02 -8.209067e-02 -8.693717e-02 -8.749796e-02 -9.433398e-02 -9.420873e-02 -1.024347e-01 -1.022728e-01 -1.119657e-01 -1.126715e-01 -1.237117e-01 -1.234657e-01 -1.328094e-01 -1.326741e-01 -1.417250e-01 -1.415295e-01 
-1.339050e-01 -1.354365e-01 -1.418729e-01 -1.435189e-01 -1.501306e-01 -1.528476e-01 -1.553395e-01 -1.676679e-01 -1.701511e-01 -1.786081e-01 -1.828275e-01 -1.884547e-01 -1.946797e-01 -1.972974e-01 -3.113402e-02 -1.706348e-02 1.376037e-01 1.685950e-01 3.117391e-01 3.451951e-01 4.925770e-01 4.972039e-01 4.825441e-01 4.862597e-01 4.742929e-01 4.763151e-01 4.659747e-01 4.653873e-01 4.577275e-01 4.564621e-01 4.509126e-01 4.464400e-01 4.387444e-01 4.296648e-01 4.188886e-01 4.064973e-01 3.943247e-01 3.833436e-01 3.751289e-01 3.719601e-01 3.704979e-01 3.724191e-01 3.686955e-01 3.646548e-01 3.497290e-01 3.368670e-01 3.160900e-01 3.046812e-01 2.877646e-01 2.820807e-01 2.694017e-01 2.673346e-01 2.574027e-01 2.573954e-01 2.491202e-01 2.493227e-01 2.419780e-01 2.425583e-01 2.361521e-01 2.345388e-01 2.248579e-01 2.182142e-01 2.054293e-01 1.964861e-01 1.834396e-01 1.736327e-01 1.591771e-01 1.480199e-01 1.342770e-01 1.271655e-01 1.189940e-01 1.175674e-01 1.104230e-01 1.072452e-01 9.501348e-02 8.915396e-02 7.436924e-02 6.932451e-02 5.414116e-02 5.090580e-02 3.705752e-02 3.848523e-02 2.915601e-02 3.555163e-02 2.947609e-02 3.763547e-02 3.126366e-02 3.550312e-02 2.481804e-02 2.276469e-02 9.763376e-03 5.657198e-03 -3.029907e-03 -4.849726e-03 -7.955285e-03 -1.079391e-02 -1.434242e-02 -2.447700e-02 -3.094570e-02 -4.491938e-02 -4.806205e-02 -5.931599e-02 -5.601834e-02 -6.269197e-02 -5.461507e-02 -5.902631e-02 -5.167706e-02 -5.787706e-02 -5.518203e-02 -6.185632e-02 -6.094205e-02 -6.385606e-02 -6.411471e-02 -6.438650e-02 -6.892218e-02 -6.924591e-02 -7.773433e-02 -7.602368e-02 -8.500906e-02 -8.245222e-02 -9.363620e-02 -9.617567e-02 -1.098762e-01 -1.137882e-01 -1.181405e-01 -1.207524e-01 -1.261080e-01 -1.279569e-01 
-1.504939e-01 -1.478643e-01 -1.609541e-01 -1.553709e-01 -1.756157e-01 -1.638936e-01 -1.446616e-01 -1.856104e-01 -1.844090e-01 -1.880970e-01 -1.962258e-01 -1.906451e-01 -2.057589e-01 -1.712568e-01 -6.640250e-02 -6.118061e-02 9.619771e-02 1.841229e-01 2.665014e-01 4.174496e-01 4.419442e-01 4.775145e-01 4.587122e-01 4.656153e-01 4.516745e-01 4.534627e-01 4.430555e-01 4.418962e-01 4.364011e-01 4.349007e-01 4.322842e-01 4.266704e-01 4.213674e-01 4.103301e-01 4.015443e-01 3.868581e-01 3.769911e-01 3.645734e-01 3.598001e-01 3.565664e-01 3.593466e-01 3.610587e-01 3.599084e-01 3.531266e-01 3.375086e-01 3.195499e-01 2.970735e-01 2.813657e-01 2.639532e-01 2.554193e-01 2.432545e-01 2.398863e-01 2.323221e-01 2.333519e-01 2.288926e-01 2.306055e-01 2.261206e-01 2.273509e-01 2.230414e-01 2.221508e-01 2.142654e-01 2.080360e-01 1.961290e-01 1.856270e-01 1.716292e-01 1.591856e-01 1.426526e-01 1.286170e-01 1.134513e-01 1.048352e-01 9.686075e-02 9.487787e-02 8.682680e-02 8.237215e-02 6.907597e-02 6.223340e-02 4.698163e-02 4.136660e-02 2.559791e-02 2.175329e-02 7.842286e-03 1.058531e-02 3.206620e-03 1.271496e-02 9.459836e-03 2.169907e-02 1.808515e-02 2.546896e-02 1.499337e-02 1.342185e-02 -1.854430e-03 -6.232385e-03 -1.703147e-02 -1.811654e-02 -2.297301e-02 -2.532190e-02 -3.204216e-02 -4.319113e-02 -5.372404e-02 -6.807711e-02 -7.352842e-02 -8.316175e-02 -8.053429e-02 -8.471826e-02 -7.654942e-02 -7.786003e-02 -6.917079e-02 -7.173636e-02 -6.769437e-02 -7.215964e-02 -7.108017e-02 -7.309713e-02 -7.339987e-02 -7.320076e-02 -7.786424e-02 -7.810287e-02 -8.611587e-02 -8.384406e-02 -9.178727e-02 -8.988772e-02 -1.001752e-01 -1.092712e-01 -1.326913e-01 -1.271305e-01 -1.332347e-01 -1.336962e-01 -1.416458e-01 -1.407375e-01 
-1.329943e-01 -1.316255e-01 -1.403517e-01 -1.367848e-01 -1.513250e-01 -1.423409e-01 -9.245412e-02 -1.565903e-01 -1.368716e-01 -1.481978e-01 -1.428648e-01 -1.460377e-01 -1.478730e-01 -1.202260e-01 -9.815438e-02 -7.218952e-02 -4.501876e-02 1.004351e-02 1.018429e-02 9.062889e-02 7.685291e-02 1.186883e-01 1.026750e-01 1.082823e-01 8.958800e-02 9.288923e-02 7.625536e-02 8.160392e-02 6.814281e-02 7.351239e-02 6.145421e-02 6.687158e-02 5.824369e-02 6.536865e-02 6.109446e-02 6.980370e-02 6.902013e-02 7.666767e-02 7.423819e-02 7.449113e-02 6.546712e-02 5.802723e-02 4.680518e-02 3.939012e-02 3.273201e-02 2.944934e-02 2.616805e-02 2.246229e-02 1.698624e-02 1.062682e-02 3.403504e-03 -2.269326e-03 -7.562376e-03 -9.493336e-03 -1.272934e-02 -1.301660e-02 -1.856699e-02 -2.079160e-02 -2.910501e-02 -2.936134e-02 -3.534420e-02 -3.162479e-02 -3.700762e-02 -3.566387e-02 -4.535768e-02 -4.622567e-02 -5.723663e-02 -5.760220e-02 -6.850783e-02 -7.103107e-02 -8.531729e-02 -9.239032e-02 -1.096514e-01 -1.155503e-01 -1.269683e-01 -1.283456e-01 -1.348768e-01 -1.348662e-01 -1.395615e-01 -1.394634e-01 -1.424582e-01 -1.416198e-01 -1.435501e-01 -1.428669e-01 -1.448033e-01 -1.433926e-01 -1.441223e-01 -1.406039e-01 -1.410276e-01 -1.369233e-01 -1.392884e-01 -1.360946e-01 -1.424660e-01 -1.416135e-01 -1.523947e-01 -1.522173e-01 -1.632914e-01 -1.585668e-01 -1.654035e-01 -1.553994e-01 -1.594530e-01 -1.484181e-01 -1.531229e-01 -1.450746e-01 -1.505950e-01 -1.437703e-01 -1.439957e-01 -1.346465e-01 -1.286472e-01 -1.225024e-01 -1.168343e-01 -1.187999e-01 -1.130819e-01 -1.201081e-01 -1.109087e-01 -1.194738e-01 -1.063008e-01 -1.169763e-01 -1.045498e-01 -1.187154e-01 -1.075974e-01 -1.249919e-01 -1.329797e-01 -1.170650e-01 -1.229496e-01 -1.215492e-01 -1.273075e-01 -1.265666e-01 
-1.459048e-01 -1.461446e-01 -1.489077e-01 -1.505670e-01 -1.505503e-01 -1.548709e-01 -1.230984e-01 -1.565904e-01 -1.388811e-01 -1.505535e-01 -1.422230e-01 -1.486947e-01 -1.461373e-01 -1.419931e-01 -1.340399e-01 -1.314456e-01 -1.223214e-01 -1.108633e-01 -1.094660e-01 -8.860631e-02 -9.071174e-02 -7.857768e-02 -8.530352e-02 -8.441232e-02 -9.746729e-02 -9.579407e-02 -1.094545e-01 -1.041879e-01 -1.180261e-01 -1.126784e-01 -1.267442e-01 -1.187807e-01 -1.273800e-01 -1.145502e-01 -1.162841e-01 -1.000360e-01 -9.745204e-02 -8.453891e-02 -8.688470e-02 -8.812465e-02 -1.018522e-01 -1.145321e-01 -1.275836e-01 -1.349327e-01 -1.335821e-01 -1.295777e-01 -1.202069e-01 -1.182112e-01 -1.144146e-01 -1.197885e-01 -1.214118e-01 -1.294474e-01 -1.326556e-01 -1.396910e-01 -1.432791e-01 -1.484126e-01 -1.543257e-01 -1.601326e-01 -1.693588e-01 -1.715968e-01 -1.772947e-01 -1.724117e-01 -1.757518e-01 -1.708854e-01 -1.780237e-01 -1.741101e-01 -1.812570e-01 -1.753854e-01 -1.830708e-01 -1.823038e-01 -1.975102e-01 -2.048757e-01 -2.229356e-01 -2.272564e-01 -2.358022e-01 -2.339534e-01 -2.356409e-01 -2.326807e-01 -2.311273e-01 -2.285433e-01 -2.258415e-01 -2.266662e-01 -2.271856e-01 -2.325318e-01 -2.358917e-01 -2.421158e-01 -2.442561e-01 -2.446614e-01 -2.419498e-01 -2.349951e-01 -2.311320e-01 -2.226242e-01 -2.262240e-01 -2.218714e-01 -2.343379e-01 -2.294068e-01 -2.412169e-01 -2.254843e-01 -2.306003e-01 -2.071554e-01 -2.126122e-01 -1.909938e-01 -2.017286e-01 -1.865129e-01 -2.007494e-01 -1.890344e-01 -1.976291e-01 -1.836086e-01 -1.820645e-01 -1.708527e-01 -1.663929e-01 -1.657549e-01 -1.594143e-01 -1.664374e-01 -1.533598e-01 -1.627067e-01 -1.437394e-01 -1.575422e-01 -1.401583e-01 -1.568911e-01 -1.409330e-01 -1.514636e-01 -1.453357e-01 -1.346137e-01 -1.404214e-01 -1.377373e-01 -1.427063e-01 -1.417575e-01 
-1.271335e-01 -1.295436e-01 -1.275338e-01 -1.321550e-01 -1.252407e-01 -1.341426e-01 -1.170660e-01 -1.324929e-01 -1.190728e-01 -1.276603e-01 -1.206884e-01 -1.214073e-01 -1.211789e-01 -1.130630e-01 -1.200360e-01 -1.055028e-01 -1.179618e-01 -9.930019e-02 -1.144289e-01 -9.355493e-02 -1.086056e-01 -8.846066e-02 -1.034733e-01 -8.908246e-02 -1.055595e-01 -9.385812e-02 -1.097573e-01 -9.810507e-02 -1.129605e-01 -1.018775e-01 -1.157002e-01 -1.043708e-01 -1.152699e-01 -1.030778e-01 -1.103540e-01 -9.792973e-02 -1.026584e-01 -9.314975e-02 -9.935233e-02 -9.735063e-02 -1.075817e-01 -1.116332e-01 -1.206017e-01 -1.231667e-01 -1.248207e-01 -1.228261e-01 -1.199109e-01 -1.189018e-01 -1.179973e-01 -1.209550e-01 -1.232196e-01 -1.283752e-01 -1.323282e-01 -1.371950e-01 -1.415434e-01 -1.444163e-01 -1.492330e-01 -1.505764e-01 -1.566404e-01 -1.557407e-01 -1.616894e-01 -1.587189e-01 -1.653126e-01 -1.629987e-01 -1.717113e-01 -1.693733e-01 -1.777567e-01 -1.738076e-01 -1.817602e-01 -1.797560e-01 -1.908904e-01 -1.928797e-01 -2.057687e-01 -2.077858e-01 -2.167546e-01 -2.167984e-01 -2.212683e-01 -2.200827e-01 -2.208258e-01 -2.190225e-01 -2.179421e-01 -2.178962e-01 -2.183035e-01 -2.210380e-01 -2.232788e-01 -2.265911e-01 -2.284558e-01 -2.282683e-01 -2.276850e-01 -2.226169e-01 -2.214034e-01 -2.141095e-01 -2.166218e-01 -2.099428e-01 -2.172794e-01 -2.096341e-01 -2.179748e-01 -2.052898e-01 -2.115295e-01 -1.947629e-01 -2.007555e-01 -1.840180e-01 -1.914176e-01 -1.775535e-01 -1.854526e-01 -1.743311e-01 -1.787849e-01 -1.688055e-01 -1.672740e-01 -1.604537e-01 -1.550155e-01 -1.545323e-01 -1.458428e-01 -1.508674e-01 -1.377325e-01 -1.459480e-01 -1.297433e-01 -1.411140e-01 -1.258534e-01 -1.382147e-01 -1.253839e-01 -1.329812e-01 -1.253412e-01 -1.247472e-01 -1.248058e-01 -1.249995e-01 -1.258101e-01 -1.269292e-01 
