# vtk DataFile Version 2.0
Comment goes here
ASCII

DATASET STRUCTURED_POINTS
FIELD FieldData 1
TIME 1 1 double
0.21000000
DIMENSIONS    128   16   1

ORIGIN    0.000   0.000   0.000
SPACING   0.0078125 0.015625   1.000

POINT_DATA   2048
SCALARS P double
LOOKUP_TABLE default

-8.761612e-01 -8.580777e-01 -8.779214e-01 -8.642477e-01 -8.778200e-01 -8.709218e-01 -8.764647e-01 -8.847659e-01 -8.731671e-01 -8.920961e-01 -8.670550e-01 -8.905872e-01 -8.532116e-01 -8.736070e-01 -8.198656e-01 -8.333883e-01 -7.777408e-01 -7.870059e-01 -7.325690e-01 -7.422089e-01 -6.923411e-01 -7.048851e-01 -6.751102e-01 -6.904050e-01 -6.723288e-01 -6.870835e-01 -6.768060e-01 -6.892910e-01 -6.842210e-01 -6.935200e-01 -6.928894e-01 -6.997816e-01 -7.040364e-01 -7.095844e-01 -7.184001e-01 -7.223728e-01 -7.341106e-01 -7.352979e-01 -7.477996e-01 -7.457378e-01 -7.584674e-01 -7.543926e-01 -7.683856e-01 -7.643021e-01 -7.799901e-01 -7.768343e-01 -7.947584e-01 -7.937438e-01 -8.139827e-01 -8.150759e-01 -8.362279e-01 -8.372418e-01 -8.561818e-01 -8.540901e-01 -8.678749e-01 -8.608664e-01 -8.696380e-01 -8.602837e-01 -8.676002e-01 -8.594047e-01 -8.700356e-01 -8.701690e-01 -8.880655e-01 -8.864658e-01 -8.984321e-01 -8.924135e-01 -8.965815e-01 -8.837374e-01 -8.841193e-01 -8.697370e-01 -8.771772e-01 -8.677144e-01 -8.752376e-01 -8.681629e-01 -8.797501e-01 -8.715754e-01 -8.827675e-01 -8.697857e-01 -8.785379e-01 -8.602840e-01 -8.677042e-01 -8.467513e-01 -8.570393e-01 -8.377831e-01 -8.536566e-01 -8.366981e-01 -8.556054e-01 -8.372203e-01 -8.548997e-01 -8.336593e-01 -8.499831e-01 -8.284085e-01 -8.449987e-01 -8.257716e-01 -8.431024e-01 -8.271834e-01 -8.439724e-01 -8.303755e-01 -8.440610e-01 -8.317818e-01 -8.413935e-01 -8.306089e-01 -8.363412e-01 -8.268944e-01 -8.297275e-01 -8.229475e-01 -8.267641e-01 -8.241927e-01 -8.313681e-01 -8.306548e-01 -8.403821e-01 -8.365350e-01 -8.481526e-01 -8.384771e-01 -8.540267e-01 -8.373519e-01 -8.591183e-01 -8.350060e-01 -8.642128e-01 -8.329972e-01 -8.695899e-01 -8.334471e-01 -8.744960e-01 -8.403666e-01 -8.738164e-01 -8.455396e-01 -8.742164e-01 -8.515683e-01 
-7.297938e-01 -7.167037e-01 -7.283448e-01 -7.179906e-01 -7.250882e-01 -7.183864e-01 -7.198380e-01 -7.320590e-01 -7.174764e-01 -7.399378e-01 -7.171564e-01 -7.423392e-01 -7.189505e-01 -7.399977e-01 -7.238543e-01 -7.430252e-01 -7.312321e-01 -7.451594e-01 -7.379127e-01 -7.451230e-01 -7.416308e-01 -7.411255e-01 -7.385374e-01 -7.377285e-01 -7.382299e-01 -7.370822e-01 -7.410911e-01 -7.376749e-01 -7.423060e-01 -7.339612e-01 -7.398032e-01 -7.296607e-01 -7.405805e-01 -7.338086e-01 -7.536171e-01 -7.499541e-01 -7.742285e-01 -7.694985e-01 -7.929243e-01 -7.822381e-01 -8.005230e-01 -7.842651e-01 -8.017911e-01 -7.867178e-01 -8.059967e-01 -7.919999e-01 -8.127494e-01 -8.021651e-01 -8.273482e-01 -8.224997e-01 -8.496222e-01 -8.442112e-01 -8.673709e-01 -8.579673e-01 -8.743708e-01 -8.590398e-01 -8.689315e-01 -8.496576e-01 -8.559109e-01 -8.377270e-01 -8.484889e-01 -8.423420e-01 -8.665831e-01 -8.668092e-01 -8.892463e-01 -8.848941e-01 -8.910496e-01 -8.706131e-01 -8.664158e-01 -8.412315e-01 -8.457929e-01 -8.331554e-01 -8.453146e-01 -8.399740e-01 -8.549168e-01 -8.453142e-01 -8.553793e-01 -8.371652e-01 -8.414955e-01 -8.173342e-01 -8.194784e-01 -7.930909e-01 -7.998518e-01 -7.794308e-01 -7.957012e-01 -7.814751e-01 -8.012475e-01 -7.828818e-01 -7.958107e-01 -7.713844e-01 -7.826896e-01 -7.603098e-01 -7.734525e-01 -7.547391e-01 -7.680424e-01 -7.531460e-01 -7.674043e-01 -7.564591e-01 -7.665213e-01 -7.558494e-01 -7.601512e-01 -7.496855e-01 -7.478018e-01 -7.378521e-01 -7.325748e-01 -7.267879e-01 -7.244190e-01 -7.265067e-01 -7.292887e-01 -7.344480e-01 -7.392371e-01 -7.401081e-01 -7.441373e-01 -7.384973e-01 -7.458031e-01 -7.319622e-01 -7.429356e-01 -7.189564e-01 -7.366721e-01 -7.070444e-01 -7.365768e-01 -7.041095e-01 -7.408269e-01 -7.096095e-01 -7.342980e-01 -7.119749e-01 -7.311127e-01 -7.144264e-01 
-8.741957e-01 -8.564290e-01 -8.793500e-01 -8.607142e-01 -8.776734e-01 -8.539724e-01 -8.777513e-01 -8.966336e-01 -8.803930e-01 -9.133391e-01 -8.880940e-01 -9.289850e-01 -9.005885e-01 -9.279007e-01 -8.456860e-01 -8.535860e-01 -7.918719e-01 -7.905453e-01 -7.298626e-01 -7.327271e-01 -6.521809e-01 -6.638729e-01 -6.491516e-01 -6.703514e-01 -6.595070e-01 -6.777329e-01 -6.716559e-01 -6.838325e-01 -6.741803e-01 -6.744097e-01 -6.657119e-01 -6.643286e-01 -6.634008e-01 -6.685495e-01 -6.845603e-01 -6.984582e-01 -7.241773e-01 -7.391367e-01 -7.641174e-01 -7.657157e-01 -7.743213e-01 -7.603042e-01 -7.679131e-01 -7.597700e-01 -7.730116e-01 -7.654252e-01 -7.792486e-01 -7.745061e-01 -7.958941e-01 -8.025048e-01 -8.312106e-01 -8.390309e-01 -8.644087e-01 -8.653612e-01 -8.774934e-01 -8.638661e-01 -8.664660e-01 -8.509396e-01 -8.434969e-01 -8.045908e-01 -7.953810e-01 -8.344682e-01 -9.080109e-01 -9.160545e-01 -9.335204e-01 -9.330074e-01 -9.182817e-01 -8.838899e-01 -8.439127e-01 -8.081603e-01 -8.536112e-01 -8.613212e-01 -8.577073e-01 -8.655116e-01 -8.911904e-01 -8.919258e-01 -9.074440e-01 -8.931479e-01 -8.958516e-01 -8.670312e-01 -8.596154e-01 -8.247165e-01 -8.286668e-01 -8.117068e-01 -8.391077e-01 -8.366640e-01 -8.684850e-01 -8.520256e-01 -8.641790e-01 -8.329310e-01 -8.456911e-01 -8.221619e-01 -8.415474e-01 -8.221774e-01 -8.403506e-01 -8.254018e-01 -8.498762e-01 -8.421912e-01 -8.601041e-01 -8.483626e-01 -8.569230e-01 -8.435304e-01 -8.430754e-01 -8.275679e-01 -8.210949e-01 -8.109675e-01 -8.119671e-01 -8.175418e-01 -8.294457e-01 -8.412927e-01 -8.552501e-01 -8.578560e-01 -8.650756e-01 -8.585692e-01 -8.709570e-01 -8.539864e-01 -8.672771e-01 -8.328657e-01 -8.528918e-01 -8.121712e-01 -8.544860e-01 -8.075252e-01 -8.760486e-01 -8.369521e-01 -8.666067e-01 -8.399347e-01 -8.680812e-01 -8.479667e-01 
-7.274340e-01 -7.179155e-01 -7.329175e-01 -7.188855e-01 -7.304041e-01 -7.057770e-01 -7.612093e-01 -7.964308e-01 -7.819211e-01 -8.183629e-01 -8.056564e-01 -8.389028e-01 -8.225352e-01 -7.897866e-01 -5.985386e-01 -4.991062e-01 -3.640198e-01 -2.433993e-01 -1.023997e-01 -4.688416e-03 2.027120e-01 2.545013e-01 2.473519e-01 2.491028e-01 2.318877e-01 2.328331e-01 2.107264e-01 2.137995e-01 1.954657e-01 2.020296e-01 1.741559e-01 1.718028e-01 1.430088e-01 1.480973e-01 1.210065e-01 1.225472e-01 8.806058e-02 8.115384e-02 4.049547e-02 3.985932e-02 1.838032e-02 3.194403e-02 6.444968e-03 4.511945e-03 -3.021584e-02 -3.237354e-02 -5.978192e-02 -5.205372e-02 -7.136187e-02 -6.702752e-02 -9.898904e-02 -1.116493e-01 -1.558061e-01 -1.674267e-01 -1.920632e-01 -1.785805e-01 -1.940949e-01 -1.953679e-01 -2.002877e-01 -1.372054e-01 -1.231280e-01 -2.634805e-01 -4.577588e-01 -4.300604e-01 -3.969207e-01 -3.453624e-01 -2.840474e-01 -2.301759e-01 -1.724615e-01 -1.609207e-01 -3.650356e-01 -4.053874e-01 -3.282853e-01 -3.094548e-01 -3.266063e-01 -3.266337e-01 -3.611431e-01 -3.704249e-01 -3.983498e-01 -3.813047e-01 -3.784468e-01 -3.475618e-01 -3.583976e-01 -3.555227e-01 -3.942947e-01 -4.038540e-01 -4.358049e-01 -4.250583e-01 -4.349534e-01 -4.145872e-01 -4.319343e-01 -4.255377e-01 -4.480172e-01 -4.387647e-01 -4.533617e-01 -4.457686e-01 -4.678408e-01 -4.675017e-01 -4.844862e-01 -4.775966e-01 -4.884824e-01 -4.863663e-01 -4.999331e-01 -4.989498e-01 -5.069808e-01 -5.065462e-01 -5.194334e-01 -5.288039e-01 -5.503773e-01 -5.652444e-01 -5.877424e-01 -5.919139e-01 -6.057160e-01 -6.050811e-01 -6.279484e-01 -6.256221e-01 -6.490874e-01 -6.334186e-01 -6.581723e-01 -6.332902e-01 -6.716241e-01 -6.311604e-01 -7.161909e-01 -7.114313e-01 -7.158912e-01 -7.073130e-01 -7.200471e-01 -7.119586e-01 
-8.760908e-01 -8.715592e-01 -9.082176e-01 -9.017323e-01 -9.426251e-01 -9.356614e-01 -1.020290e+00 -1.035939e+00 -1.085380e+00 -1.088347e+00 -1.151324e+00 -1.139963e+00 -1.210031e+00 -1.137383e+00 -4.902497e-01 -1.169259e-01 3.134919e-01 7.342362e-01 1.200106e+00 1.512444e+00 2.218881e+00 2.251524e+00 2.214422e+00 2.205759e+00 2.162753e+00 2.151711e+00 2.107037e+00 2.092374e+00 2.044037e+00 2.018623e+00 1.956417e+00 1.919342e+00 1.864432e+00 1.847780e+00 1.817105e+00 1.809996e+00 1.782063e+00 1.766971e+00 1.728970e+00 1.703942e+00 1.665831e+00 1.637127e+00 1.591324e+00 1.551523e+00 1.500872e+00 1.461872e+00 1.420755e+00 1.398939e+00 1.378139e+00 1.368280e+00 1.340746e+00 1.311411e+00 1.263413e+00 1.227512e+00 1.186526e+00 1.164885e+00 1.123853e+00 1.085397e+00 1.039712e+00 1.037382e+00 1.008062e+00 8.845941e-01 7.303132e-01 7.578823e-01 7.885960e-01 8.262588e-01 8.465625e-01 8.411374e-01 8.203521e-01 7.754122e-01 5.738357e-01 5.364379e-01 6.007192e-01 6.334647e-01 6.239058e-01 6.218576e-01 5.724273e-01 5.375651e-01 4.769623e-01 4.566531e-01 4.201471e-01 4.102701e-01 3.710277e-01 3.511223e-01 3.073619e-01 2.922083e-01 2.622164e-01 2.541866e-01 2.244534e-01 2.091315e-01 1.709413e-01 1.494988e-01 1.137544e-01 1.016040e-01 7.357061e-02 6.526757e-02 3.645277e-02 2.892314e-02 -3.015611e-03 -8.564724e-03 -4.644966e-02 -6.090824e-02 -1.156239e-01 -1.350748e-01 -1.926352e-01 -2.056059e-01 -2.607611e-01 -2.639850e-01 -3.173007e-01 -3.175244e-01 -3.716522e-01 -3.689124e-01 -4.243780e-01 -4.248759e-01 -4.877509e-01 -4.966850e-01 -5.628778e-01 -5.749910e-01 -6.371388e-01 -6.421891e-01 -6.934835e-01 -6.861245e-01 -7.584500e-01 -7.854013e-01 -8.072779e-01 -8.140847e-01 -8.434144e-01 -8.426626e-01 
-7.329088e-01 -7.394316e-01 -7.700899e-01 -7.778787e-01 -8.133961e-01 -8.270940e-01 -8.744058e-01 -8.849172e-01 -9.323461e-01 -9.373190e-01 -9.890710e-01 -9.873918e-01 -1.041328e+00 -1.028644e+00 -2.521002e-01 -1.632898e-01 5.567672e-01 6.699231e-01 1.393547e+00 1.479100e+00 2.259985e+00 2.277312e+00 2.220426e+00 2.227020e+00 2.171039e+00 2.173485e+00 2.118163e+00 2.115552e+00 2.056373e+00 2.044175e+00 1.979672e+00 1.962210e+00 1.903207e+00 1.895183e+00 1.851653e+00 1.850080e+00 1.811558e+00 1.806737e+00 1.764575e+00 1.750117e+00 1.701664e+00 1.678666e+00 1.627126e+00 1.601354e+00 1.550494e+00 1.524775e+00 1.478464e+00 1.460064e+00 1.424470e+00 1.414183e+00 1.378716e+00 1.361275e+00 1.316979e+00 1.294634e+00 1.247989e+00 1.225926e+00 1.176144e+00 1.149254e+00 1.089506e+00 1.056436e+00 9.987733e-01 9.780362e-01 9.373462e-01 9.427893e-01 9.241238e-01 9.224818e-01 8.841148e-01 8.557043e-01 7.954590e-01 7.645572e-01 7.050589e-01 7.028319e-01 6.880299e-01 7.035369e-01 6.815160e-01 6.809607e-01 6.399234e-01 6.208813e-01 5.710046e-01 5.516642e-01 5.072520e-01 4.895698e-01 4.488881e-01 4.338327e-01 4.001924e-01 3.916065e-01 3.649427e-01 3.537263e-01 3.207782e-01 3.015934e-01 2.665860e-01 2.479201e-01 2.165230e-01 2.022217e-01 1.731968e-01 1.616152e-01 1.347104e-01 1.257700e-01 9.481120e-02 8.433257e-02 4.678622e-02 3.183017e-02 -1.620051e-02 -3.431500e-02 -8.693381e-02 -1.009407e-01 -1.511317e-01 -1.556052e-01 -2.023013e-01 -2.026609e-01 -2.499746e-01 -2.517123e-01 -3.032882e-01 -3.083688e-01 -3.619507e-01 -3.725616e-01 -4.283487e-01 -4.449668e-01 -4.977998e-01 -5.126266e-01 -5.539496e-01 -5.670093e-01 -6.031358e-01 -6.261320e-01 -6.555402e-01 -6.685019e-01 -6.963455e-01 -7.045096e-01 
-8.804263e-01 -8.819244e-01 -9.286065e-01 -9.292519e-01 -9.804450e-01 -9.815768e-01 -1.039648e+00 -1.042041e+00 -1.100712e+00 -1.101161e+00 -1.162455e+00 -1.159914e+00 -1.223253e+00 -1.218216e+00 -3.684338e-01 -2.795157e-01 5.093650e-01 6.228658e-01 1.418890e+00 1.494524e+00 2.359329e+00 2.348810e+00 2.302574e+00 2.289588e+00 2.243335e+00 2.228494e+00 2.181817e+00 2.164711e+00 2.117046e+00 2.096887e+00 2.048235e+00 2.026159e+00 1.979851e+00 1.959625e+00 1.917996e+00 1.898662e+00 1.858962e+00 1.837555e+00 1.797114e+00 1.772222e+00 1.730743e+00 1.702789e+00 1.660124e+00 1.629889e+00 1.587206e+00 1.557076e+00 1.516544e+00 1.489059e+00 1.451498e+00 1.425840e+00 1.387482e+00 1.359725e+00 1.317993e+00 1.288697e+00 1.245305e+00 1.216127e+00 1.170430e+00 1.139336e+00 1.089468e+00 1.059513e+00 1.011270e+00 9.865187e-01 9.487384e-01 9.321280e-01 8.978140e-01 8.827880e-01 8.406874e-01 8.221032e-01 7.794004e-01 7.591312e-01 7.198215e-01 7.091108e-01 6.730743e-01 6.664701e-01 6.312301e-01 6.207433e-01 5.803979e-01 5.645081e-01 5.217100e-01 5.055778e-01 4.648954e-01 4.495955e-01 4.100827e-01 3.946068e-01 3.563278e-01 3.417519e-01 3.056474e-01 2.914479e-01 2.553739e-01 2.400335e-01 2.030853e-01 1.874152e-01 1.505704e-01 1.364368e-01 9.989140e-02 8.726036e-02 4.976832e-02 3.818525e-02 -1.878891e-03 -1.309581e-02 -5.704855e-02 -6.891235e-02 -1.177796e-01 -1.294687e-01 -1.813541e-01 -1.907649e-01 -2.438533e-01 -2.499972e-01 -3.037202e-01 -3.077354e-01 -3.624814e-01 -3.657546e-01 -4.219521e-01 -4.260511e-01 -4.837634e-01 -4.896702e-01 -5.478593e-01 -5.549629e-01 -6.116743e-01 -6.183159e-01 -6.719478e-01 -6.781445e-01 -7.296245e-01 -7.384552e-01 -7.834587e-01 -7.896590e-01 -8.329213e-01 -8.363696e-01 
-7.360068e-01 -7.468986e-01 -7.828993e-01 -7.939652e-01 -8.326925e-01 -8.446680e-01 -8.868883e-01 -8.992797e-01 -9.437170e-01 -9.569249e-01 -1.002885e+00 -1.018924e+00 -1.065103e+00 -1.088359e+00 -2.340461e-01 -2.245798e-01 6.015964e-01 6.241150e-01 1.448294e+00 1.461430e+00 2.308442e+00 2.294503e+00 2.240624e+00 2.232030e+00 2.177963e+00 2.171376e+00 2.117330e+00 2.110642e+00 2.056481e+00 2.048351e+00 1.994502e+00 1.985158e+00 1.933246e+00 1.923907e+00 1.874988e+00 1.865102e+00 1.817887e+00 1.805816e+00 1.758699e+00 1.743371e+00 1.695726e+00 1.677410e+00 1.629639e+00 1.609550e+00 1.562504e+00 1.542014e+00 1.496624e+00 1.477105e+00 1.433708e+00 1.415090e+00 1.372000e+00 1.352494e+00 1.307977e+00 1.287133e+00 1.241041e+00 1.219078e+00 1.171312e+00 1.147972e+00 1.099460e+00 1.078477e+00 1.033100e+00 1.016148e+00 9.760723e-01 9.626710e-01 9.212754e-01 9.101617e-01 8.646994e-01 8.517989e-01 8.077782e-01 7.933950e-01 7.534458e-01 7.437900e-01 7.047091e-01 6.977136e-01 6.602906e-01 6.518239e-01 6.129547e-01 6.014719e-01 5.616240e-01 5.486681e-01 5.097776e-01 4.964275e-01 4.593440e-01 4.462450e-01 4.114232e-01 3.987300e-01 3.655527e-01 3.520462e-01 3.186950e-01 3.036574e-01 2.698758e-01 2.543347e-01 2.205945e-01 2.056809e-01 1.718627e-01 1.579199e-01 1.233044e-01 1.101845e-01 7.336260e-02 6.051417e-02 2.052868e-02 7.755097e-03 -3.568987e-02 -4.778884e-02 -9.361581e-02 -1.037537e-01 -1.504483e-01 -1.579095e-01 -2.048036e-01 -2.105963e-01 -2.580231e-01 -2.638560e-01 -3.121619e-01 -3.193865e-01 -3.680629e-01 -3.774875e-01 -4.255725e-01 -4.371898e-01 -4.831209e-01 -4.960450e-01 -5.383983e-01 -5.522455e-01 -5.912048e-01 -6.059244e-01 -6.419562e-01 -6.552262e-01 -6.897547e-01 -7.014614e-01 
-8.821344e-01 -8.852472e-01 -9.344307e-01 -9.368541e-01 -9.889479e-01 -9.913845e-01 -1.046730e+00 -1.049685e+00 -1.106898e+00 -1.110645e+00 -1.169215e+00 -1.175483e+00 -1.234411e+00 -1.247628e+00 -3.497099e-01 -3.200382e-01 5.441652e-01 5.875144e-01 1.454921e+00 1.477208e+00 2.383098e+00 2.358114e+00 2.312248e+00 2.292539e+00 2.246512e+00 2.228876e+00 2.183172e+00 2.166043e+00 2.120910e+00 2.103309e+00 2.058823e+00 2.040186e+00 1.996518e+00 1.976619e+00 1.933743e+00 1.912148e+00 1.869638e+00 1.845931e+00 1.803467e+00 1.777749e+00 1.735420e+00 1.708103e+00 1.665923e+00 1.637422e+00 1.595495e+00 1.566564e+00 1.525291e+00 1.496743e+00 1.456156e+00 1.428097e+00 1.387467e+00 1.359447e+00 1.318050e+00 1.290016e+00 1.247741e+00 1.219976e+00 1.176955e+00 1.149834e+00 1.106678e+00 1.081005e+00 1.038759e+00 1.017152e+00 9.775746e-01 9.569514e-01 9.151601e-01 8.965065e-01 8.537814e-01 8.354509e-01 7.924648e-01 7.745645e-01 7.347159e-01 7.188864e-01 6.773147e-01 6.630811e-01 6.227860e-01 6.091353e-01 5.692804e-01 5.554572e-01 5.159642e-01 5.020364e-01 4.632810e-01 4.493734e-01 4.114896e-01 3.975997e-01 3.605264e-01 3.465962e-01 3.100078e-01 2.957129e-01 2.588440e-01 2.438158e-01 2.060243e-01 1.904909e-01 1.517623e-01 1.365425e-01 9.694640e-02 8.257592e-02 4.163040e-02 2.813496e-02 -1.487341e-02 -2.748333e-02 -7.294941e-02 -8.443768e-02 -1.323160e-01 -1.422755e-01 -1.921656e-01 -2.001559e-01 -2.514266e-01 -2.572715e-01 -3.095111e-01 -3.137284e-01 -3.669743e-01 -3.705961e-01 -4.249402e-01 -4.289199e-01 -4.841191e-01 -4.889661e-01 -5.442760e-01 -5.499555e-01 -6.045077e-01 -6.108397e-01 -6.639470e-01 -6.707695e-01 -7.218739e-01 -7.289230e-01 -7.773333e-01 -7.832806e-01 -8.303455e-01 -8.347534e-01 
-7.365484e-01 -7.478495e-01 -7.841240e-01 -7.955350e-01 -8.344295e-01 -8.467026e-01 -8.889367e-01 -9.015506e-01 -9.457575e-01 -9.591538e-01 -1.004595e+00 -1.020974e+00 -1.066516e+00 -1.090418e+00 -2.343348e-01 -2.255309e-01 6.022051e-01 6.238267e-01 1.449241e+00 1.460726e+00 2.308798e+00 2.292430e+00 2.240004e+00 2.229685e+00 2.176738e+00 2.169560e+00 2.117353e+00 2.111956e+00 2.061110e+00 2.056128e+00 2.006437e+00 2.000344e+00 1.951296e+00 1.942844e+00 1.893693e+00 1.882049e+00 1.832562e+00 1.817532e+00 1.767964e+00 1.750689e+00 1.702243e+00 1.683751e+00 1.636346e+00 1.616449e+00 1.569490e+00 1.548744e+00 1.502931e+00 1.482568e+00 1.438116e+00 1.418316e+00 1.374538e+00 1.354772e+00 1.310621e+00 1.290385e+00 1.245251e+00 1.224435e+00 1.178435e+00 1.158115e+00 1.112833e+00 1.094985e+00 1.051766e+00 1.036766e+00 9.949259e-01 9.814396e-01 9.389385e-01 9.253563e-01 8.807817e-01 8.657992e-01 8.199992e-01 8.046212e-01 7.597576e-01 7.459200e-01 7.028762e-01 6.911525e-01 6.507142e-01 6.405172e-01 6.019536e-01 5.918635e-01 5.543023e-01 5.434186e-01 5.066523e-01 4.950531e-01 4.597485e-01 4.479873e-01 4.144509e-01 4.025277e-01 3.701104e-01 3.571861e-01 3.244574e-01 3.094580e-01 2.750144e-01 2.580737e-01 2.224678e-01 2.055693e-01 1.698342e-01 1.541222e-01 1.174319e-01 1.023384e-01 6.348290e-02 4.905112e-02 7.809534e-03 -5.181501e-03 -4.834975e-02 -5.958026e-02 -1.046713e-01 -1.138039e-01 -1.596737e-01 -1.660900e-01 -2.118488e-01 -2.162422e-01 -2.623938e-01 -2.669181e-01 -3.139875e-01 -3.201238e-01 -3.677418e-01 -3.760088e-01 -4.226434e-01 -4.328030e-01 -4.775357e-01 -4.900887e-01 -5.327530e-01 -5.475886e-01 -5.875750e-01 -6.033218e-01 -6.402104e-01 -6.542407e-01 -6.893603e-01 -7.016048e-01 
-8.818293e-01 -8.841280e-01 -9.313954e-01 -9.327908e-01 -9.844373e-01 -9.861787e-01 -1.044318e+00 -1.046718e+00 -1.104527e+00 -1.104673e+00 -1.164539e+00 -1.162148e+00 -1.224128e+00 -1.220807e+00 -3.676824e-01 -2.804115e-01 5.114437e-01 6.235992e-01 1.421265e+00 1.495043e+00 2.360480e+00 2.348795e+00 2.301276e+00 2.287783e+00 2.240058e+00 2.225914e+00 2.180200e+00 2.166968e+00 2.124072e+00 2.111283e+00 2.070276e+00 2.055982e+00 2.015072e+00 1.997226e+00 1.954804e+00 1.932618e+00 1.888582e+00 1.862170e+00 1.817322e+00 1.789134e+00 1.745897e+00 1.717555e+00 1.675446e+00 1.645664e+00 1.602889e+00 1.571908e+00 1.529767e+00 1.499724e+00 1.459023e+00 1.430372e+00 1.390370e+00 1.362294e+00 1.321674e+00 1.293764e+00 1.252080e+00 1.224223e+00 1.181512e+00 1.154932e+00 1.113031e+00 1.089964e+00 1.050400e+00 1.031089e+00 9.925271e-01 9.747249e-01 9.344503e-01 9.153687e-01 8.711244e-01 8.495243e-01 8.024535e-01 7.806425e-01 7.340458e-01 7.142331e-01 6.692547e-01 6.522401e-01 6.102457e-01 5.964549e-01 5.574056e-01 5.453778e-01 5.076876e-01 4.954639e-01 4.580992e-01 4.455944e-01 4.095839e-01 3.975118e-01 3.629469e-01 3.509594e-01 3.169493e-01 3.040329e-01 2.689382e-01 2.533085e-01 2.147321e-01 1.960605e-01 1.551704e-01 1.367204e-01 9.600205e-02 7.978912e-02 3.824395e-02 2.279386e-02 -2.157955e-02 -3.652671e-02 -8.368812e-02 -9.642882e-02 -1.449206e-01 -1.549115e-01 -2.053321e-01 -2.126059e-01 -2.637069e-01 -2.671807e-01 -3.177882e-01 -3.180776e-01 -3.694568e-01 -3.696123e-01 -4.230757e-01 -4.248979e-01 -4.805626e-01 -4.844882e-01 -5.403936e-01 -5.453668e-01 -6.005121e-01 -6.071799e-01 -6.620020e-01 -6.705046e-01 -7.240152e-01 -7.346278e-01 -7.810254e-01 -7.884689e-01 -8.326831e-01 -8.370638e-01 
-7.355453e-01 -7.430388e-01 -7.744473e-01 -7.832046e-01 -8.194111e-01 -8.341116e-01 -8.818289e-01 -8.928448e-01 -9.397573e-01 -9.445485e-01 -9.940679e-01 -9.928000e-01 -1.044150e+00 -1.034409e+00 -2.520604e-01 -1.643621e-01 5.608288e-01 6.733713e-01 1.400109e+00 1.480806e+00 2.263752e+00 2.270754e+00 2.217075e+00 2.216777e+00 2.159957e+00 2.157637e+00 2.104800e+00 2.106154e+00 2.059460e+00 2.063734e+00 2.020241e+00 2.022392e+00 1.979197e+00 1.974959e+00 1.926510e+00 1.913880e+00 1.861108e+00 1.838557e+00 1.781722e+00 1.758385e+00 1.709459e+00 1.691550e+00 1.646891e+00 1.624958e+00 1.575290e+00 1.549356e+00 1.502260e+00 1.480336e+00 1.437576e+00 1.418708e+00 1.378429e+00 1.360418e+00 1.319073e+00 1.299889e+00 1.255240e+00 1.231266e+00 1.180713e+00 1.155491e+00 1.107890e+00 1.091889e+00 1.053834e+00 1.045875e+00 1.010228e+00 1.003596e+00 9.659452e-01 9.546877e-01 9.071161e-01 8.856290e-01 8.297491e-01 8.058020e-01 7.518397e-01 7.317030e-01 6.821323e-01 6.680597e-01 6.275301e-01 6.212821e-01 5.865131e-01 5.814180e-01 5.469740e-01 5.378501e-01 5.005408e-01 4.884789e-01 4.537273e-01 4.433038e-01 4.136494e-01 4.058534e-01 3.799177e-01 3.718718e-01 3.453786e-01 3.298832e-01 2.925667e-01 2.662934e-01 2.246886e-01 2.012280e-01 1.668797e-01 1.516719e-01 1.177465e-01 1.005064e-01 6.050079e-02 4.136945e-02 -2.965908e-03 -1.745429e-02 -6.036069e-02 -7.207366e-02 -1.210031e-01 -1.316052e-01 -1.802083e-01 -1.828069e-01 -2.254143e-01 -2.197943e-01 -2.625697e-01 -2.598626e-01 -3.071707e-01 -3.101450e-01 -3.628320e-01 -3.708943e-01 -4.197553e-01 -4.264530e-01 -4.706603e-01 -4.832820e-01 -5.287114e-01 -5.500186e-01 -5.927716e-01 -6.200735e-01 -6.524330e-01 -6.674978e-01 -6.968244e-01 -7.062251e-01 
-8.799179e-01 -8.766631e-01 -9.145261e-01 -9.098995e-01 -9.527130e-01 -9.488376e-01 -1.035798e+00 -1.049959e+00 -1.095708e+00 -1.094950e+00 -1.152635e+00 -1.137106e+00 -1.204143e+00 -1.130102e+00 -4.864597e-01 -1.173228e-01 3.223432e-01 7.430721e-01 1.210793e+00 1.514707e+00 2.230006e+00 2.259643e+00 2.210010e+00 2.198266e+00 2.142915e+00 2.126609e+00 2.079355e+00 2.071461e+00 2.034883e+00 2.033457e+00 2.003421e+00 2.000850e+00 1.968693e+00 1.955849e+00 1.915389e+00 1.892739e+00 1.845247e+00 1.809496e+00 1.756369e+00 1.721908e+00 1.679991e+00 1.655053e+00 1.619161e+00 1.588273e+00 1.541624e+00 1.502558e+00 1.457054e+00 1.424213e+00 1.386342e+00 1.360649e+00 1.326086e+00 1.299569e+00 1.261230e+00 1.233775e+00 1.192801e+00 1.161989e+00 1.115541e+00 1.084179e+00 1.040001e+00 1.019107e+00 9.867511e-01 9.777493e-01 9.508704e-01 9.464533e-01 9.160038e-01 9.008594e-01 8.518644e-01 8.202335e-01 7.595405e-01 7.277452e-01 6.723144e-01 6.472496e-01 5.958444e-01 5.753244e-01 5.316692e-01 5.224637e-01 4.901571e-01 4.874116e-01 4.558967e-01 4.467963e-01 4.086848e-01 3.968262e-01 3.639165e-01 3.565206e-01 3.282986e-01 3.224521e-01 2.967444e-01 2.916617e-01 2.661636e-01 2.518625e-01 2.098921e-01 1.793849e-01 1.294776e-01 1.021306e-01 6.341542e-02 5.026665e-02 1.559629e-02 4.007204e-04 -4.422506e-02 -6.626167e-02 -1.188789e-01 -1.349216e-01 -1.817628e-01 -1.913318e-01 -2.441352e-01 -2.532000e-01 -3.059098e-01 -3.045910e-01 -3.482431e-01 -3.351211e-01 -3.788347e-01 -3.691854e-01 -4.198669e-01 -4.175257e-01 -4.781131e-01 -4.837973e-01 -5.433331e-01 -5.461338e-01 -6.009765e-01 -6.067841e-01 -6.662465e-01 -6.715901e-01 -7.521384e-01 -7.824481e-01 -8.063340e-01 -8.147167e-01 -8.451538e-01 -8.455506e-01 
-7.339124e-01 -7.248711e-01 -7.406617e-01 -7.280772e-01 -7.415086e-01 -7.197871e-01 -7.774921e-01 -8.079112e-01 -7.859240e-01 -8.155120e-01 -7.964746e-01 -8.228296e-01 -8.050549e-01 -7.692217e-01 -5.785809e-01 -4.747168e-01 -3.386677e-01 -2.131164e-01 -7.504369e-02 2.155422e-02 2.161585e-01 2.612108e-01 2.459518e-01 2.430267e-01 2.190051e-01 2.139801e-01 1.898671e-01 1.907692e-01 1.680767e-01 1.731713e-01 1.534307e-01 1.612253e-01 1.360787e-01 1.399427e-01 1.134823e-01 1.186493e-01 9.069292e-02 9.613810e-02 6.985453e-02 7.588487e-02 4.764692e-02 5.144469e-02 2.244927e-02 2.358398e-02 -9.654913e-03 -1.484165e-02 -5.251742e-02 -5.990715e-02 -9.429727e-02 -9.809388e-02 -1.313723e-01 -1.390916e-01 -1.738933e-01 -1.793737e-01 -2.068995e-01 -2.029615e-01 -2.201828e-01 -2.113318e-01 -2.298993e-01 -2.264518e-01 -2.485090e-01 -2.447516e-01 -2.620998e-01 -2.536344e-01 -2.724115e-01 -2.718506e-01 -2.972634e-01 -2.988929e-01 -3.219877e-01 -3.173161e-01 -3.350193e-01 -3.280866e-01 -3.481463e-01 -3.483882e-01 -3.763974e-01 -3.761434e-01 -3.953765e-01 -3.842215e-01 -3.984371e-01 -3.857107e-01 -3.999868e-01 -3.836929e-01 -3.935065e-01 -3.749871e-01 -3.895679e-01 -3.781044e-01 -3.986751e-01 -3.886565e-01 -4.084176e-01 -3.978350e-01 -4.177101e-01 -4.092175e-01 -4.324629e-01 -4.291868e-01 -4.537301e-01 -4.500239e-01 -4.685045e-01 -4.633170e-01 -4.828812e-01 -4.852357e-01 -5.074621e-01 -5.120836e-01 -5.280821e-01 -5.270802e-01 -5.353946e-01 -5.339220e-01 -5.423342e-01 -5.428120e-01 -5.523434e-01 -5.536544e-01 -5.640382e-01 -5.628125e-01 -5.755992e-01 -5.724101e-01 -5.913346e-01 -5.895210e-01 -6.212664e-01 -6.192719e-01 -6.583194e-01 -6.444450e-01 -6.886229e-01 -6.502925e-01 -7.335694e-01 -7.247907e-01 -7.260523e-01 -7.156296e-01 -7.271129e-01 -7.185579e-01 
-8.788731e-01 -8.610436e-01 -8.839878e-01 -8.657321e-01 -8.830133e-01 -8.598608e-01 -8.834162e-01 -8.988551e-01 -8.772192e-01 -9.063220e-01 -8.771450e-01 -9.150346e-01 -8.848656e-01 -9.120574e-01 -8.284231e-01 -8.373268e-01 -7.750621e-01 -7.763386e-01 -7.149544e-01 -7.206638e-01 -6.405877e-01 -6.558184e-01 -6.438978e-01 -6.660898e-01 -6.561592e-01 -6.743565e-01 -6.702001e-01 -6.866718e-01 -6.892423e-01 -7.045021e-01 -7.101479e-01 -7.210692e-01 -7.318050e-01 -7.386770e-01 -7.468524e-01 -7.457408e-01 -7.521293e-01 -7.413999e-01 -7.435658e-01 -7.329008e-01 -7.456121e-01 -7.434633e-01 -7.621129e-01 -7.583435e-01 -7.743128e-01 -7.707347e-01 -7.924446e-01 -7.952910e-01 -8.199875e-01 -8.243121e-01 -8.504103e-01 -8.567237e-01 -8.810015e-01 -8.831103e-01 -8.979871e-01 -8.873168e-01 -8.880289e-01 -8.708305e-01 -8.738078e-01 -8.676402e-01 -8.823032e-01 -8.837191e-01 -8.987641e-01 -8.982687e-01 -9.122004e-01 -9.102962e-01 -9.173059e-01 -9.048688e-01 -9.022174e-01 -8.833915e-01 -8.807691e-01 -8.642094e-01 -8.668983e-01 -8.589288e-01 -8.742959e-01 -8.720490e-01 -8.870909e-01 -8.772812e-01 -8.876465e-01 -8.696639e-01 -8.751199e-01 -8.505284e-01 -8.562826e-01 -8.323265e-01 -8.468801e-01 -8.303044e-01 -8.533461e-01 -8.387479e-01 -8.624655e-01 -8.411468e-01 -8.545470e-01 -8.241992e-01 -8.360981e-01 -8.131711e-01 -8.347897e-01 -8.218434e-01 -8.411938e-01 -8.257021e-01 -8.390430e-01 -8.255198e-01 -8.354033e-01 -8.278560e-01 -8.358533e-01 -8.271526e-01 -8.237596e-01 -8.141612e-01 -8.112925e-01 -8.099794e-01 -8.156502e-01 -8.223470e-01 -8.304879e-01 -8.309675e-01 -8.388149e-01 -8.306535e-01 -8.402264e-01 -8.256003e-01 -8.509603e-01 -8.357982e-01 -8.744392e-01 -8.439995e-01 -8.866508e-01 -8.335523e-01 -8.953830e-01 -8.509762e-01 -8.767420e-01 -8.477046e-01 -8.741802e-01 -8.532093e-01 
-7.327011e-01 -7.194889e-01 -7.310987e-01 -7.207220e-01 -7.278180e-01 -7.208145e-01 -7.218153e-01 -7.324601e-01 -7.160291e-01 -7.365418e-01 -7.124042e-01 -7.357358e-01 -7.117696e-01 -7.314532e-01 -7.151760e-01 -7.333691e-01 -7.225561e-01 -7.363771e-01 -7.306504e-01 -7.381794e-01 -7.367639e-01 -7.372329e-01 -7.366818e-01 -7.366922e-01 -7.378640e-01 -7.371346e-01 -7.422366e-01 -7.411233e-01 -7.502887e-01 -7.480993e-01 -7.600729e-01 -7.556402e-01 -7.709144e-01 -7.642560e-01 -7.802045e-01 -7.700932e-01 -7.862017e-01 -7.713887e-01 -7.861888e-01 -7.706183e-01 -7.896029e-01 -7.770984e-01 -7.989540e-01 -7.863075e-01 -8.074799e-01 -7.955726e-01 -8.195380e-01 -8.116045e-01 -8.377625e-01 -8.320351e-01 -8.585149e-01 -8.531719e-01 -8.768555e-01 -8.685969e-01 -8.860573e-01 -8.714069e-01 -8.811304e-01 -8.631965e-01 -8.724259e-01 -8.593236e-01 -8.735715e-01 -8.656709e-01 -8.816185e-01 -8.747191e-01 -8.894306e-01 -8.805046e-01 -8.890240e-01 -8.731952e-01 -8.756075e-01 -8.565092e-01 -8.594527e-01 -8.426625e-01 -8.489373e-01 -8.362987e-01 -8.477557e-01 -8.369286e-01 -8.482315e-01 -8.331691e-01 -8.415147e-01 -8.210641e-01 -8.266452e-01 -8.027917e-01 -8.097683e-01 -7.870656e-01 -7.991891e-01 -7.800755e-01 -7.964471e-01 -7.781889e-01 -7.946042e-01 -7.732845e-01 -7.848866e-01 -7.603007e-01 -7.708076e-01 -7.504304e-01 -7.645392e-01 -7.503057e-01 -7.632033e-01 -7.499088e-01 -7.583843e-01 -7.466491e-01 -7.510580e-01 -7.427957e-01 -7.444415e-01 -7.373255e-01 -7.331423e-01 -7.272479e-01 -7.230709e-01 -7.223145e-01 -7.226137e-01 -7.258607e-01 -7.284302e-01 -7.281663e-01 -7.320106e-01 -7.257986e-01 -7.325873e-01 -7.202395e-01 -7.361536e-01 -7.196827e-01 -7.446658e-01 -7.192272e-01 -7.492361e-01 -7.147166e-01 -7.491999e-01 -7.162613e-01 -7.395834e-01 -7.163094e-01 -7.347342e-01 -7.176153e-01 
