# vtk DataFile Version 2.0
Comment goes here
ASCII

DATASET STRUCTURED_POINTS
FIELD FieldData 1
TIME 1 1 double
0.61000000
DIMENSIONS    128   16   1

ORIGIN    0.000   0.000   0.000
SPACING   0.0078125 0.015625   1.000

POINT_DATA   2048
SCALARS P double
LOOKUP_TABLE default

-9.285652e-01 -9.102037e-01 -9.302056e-01 -9.161917e-01 -9.299774e-01 -9.226458e-01 -9.284538e-01 -9.361801e-01 -9.249465e-01 -9.435082e-01 -9.192996e-01 -9.426254e-01 -9.061545e-01 -9.260377e-01 -8.730162e-01 -8.857194e-01 -8.308764e-01 -8.394210e-01 -7.861845e-01 -7.954768e-01 -7.472236e-01 -7.598316e-01 -7.314756e-01 -7.465487e-01 -7.289747e-01 -7.427075e-01 -7.317229e-01 -7.425817e-01 -7.363103e-01 -7.439376e-01 -7.416652e-01 -7.462777e-01 -7.475879e-01 -7.493882e-01 -7.536252e-01 -7.526615e-01 -7.590654e-01 -7.555961e-01 -7.637099e-01 -7.584014e-01 -7.680196e-01 -7.615627e-01 -7.723022e-01 -7.650454e-01 -7.763251e-01 -7.684953e-01 -7.799355e-01 -7.719181e-01 -7.834030e-01 -7.755129e-01 -7.868298e-01 -7.790158e-01 -7.897857e-01 -7.818534e-01 -7.918620e-01 -7.837230e-01 -7.928335e-01 -7.840195e-01 -7.917433e-01 -7.833420e-01 -7.907555e-01 -7.855762e-01 -7.969318e-01 -7.881394e-01 -7.939894e-01 -7.839431e-01 -7.883929e-01 -7.787550e-01 -7.856668e-01 -7.776396e-01 -7.913361e-01 -7.865500e-01 -7.963567e-01 -7.889255e-01 -7.997886e-01 -7.909693e-01 -8.034013e-01 -7.935955e-01 -8.079230e-01 -7.969940e-01 -8.130796e-01 -8.006229e-01 -8.181589e-01 -8.040022e-01 -8.228293e-01 -8.072440e-01 -8.272993e-01 -8.108367e-01 -8.319015e-01 -8.151713e-01 -8.367460e-01 -8.203308e-01 -8.416450e-01 -8.260596e-01 -8.461853e-01 -8.319424e-01 -8.500823e-01 -8.378287e-01 -8.535664e-01 -8.439821e-01 -8.572256e-01 -8.506408e-01 -8.614343e-01 -8.575471e-01 -8.661151e-01 -8.640445e-01 -8.710222e-01 -8.694978e-01 -8.760888e-01 -8.736299e-01 -8.816035e-01 -8.766425e-01 -8.880930e-01 -8.789764e-01 -8.958445e-01 -8.808456e-01 -9.044624e-01 -8.821658e-01 -9.130693e-01 -8.832339e-01 -9.208573e-01 -8.854567e-01 -9.268157e-01 -8.928382e-01 -9.263823e-01 -8.979883e-01 -9.267351e-01 -9.038666e-01 
-7.854639e-01 -7.720084e-01 -7.838325e-01 -7.730879e-01 -7.804427e-01 -7.730503e-01 -7.745597e-01 -7.851768e-01 -7.700522e-01 -7.909638e-01 -7.685857e-01 -7.923941e-01 -7.698019e-01 -7.890454e-01 -7.735943e-01 -7.905581e-01 -7.801145e-01 -7.924262e-01 -7.872729e-01 -7.934940e-01 -7.930327e-01 -7.925660e-01 -7.929506e-01 -7.922413e-01 -7.942331e-01 -7.920539e-01 -7.958562e-01 -7.915403e-01 -7.974348e-01 -7.909278e-01 -7.992536e-01 -7.906712e-01 -8.013039e-01 -7.905080e-01 -8.028489e-01 -7.897344e-01 -8.032757e-01 -7.883436e-01 -8.032200e-01 -7.876152e-01 -8.039894e-01 -7.881705e-01 -8.050386e-01 -7.884104e-01 -8.045412e-01 -7.871249e-01 -8.026503e-01 -7.857246e-01 -8.015883e-01 -7.860969e-01 -8.021242e-01 -7.872464e-01 -8.019088e-01 -7.861825e-01 -7.985125e-01 -7.816563e-01 -7.921793e-01 -7.744672e-01 -7.844500e-01 -7.706007e-01 -7.805213e-01 -7.678775e-01 -7.797093e-01 -7.640267e-01 -7.715594e-01 -7.574798e-01 -7.642772e-01 -7.524461e-01 -7.631481e-01 -7.519725e-01 -7.672691e-01 -7.593274e-01 -7.698267e-01 -7.583956e-01 -7.680152e-01 -7.546946e-01 -7.652170e-01 -7.518267e-01 -7.648146e-01 -7.518031e-01 -7.671098e-01 -7.535224e-01 -7.699656e-01 -7.546198e-01 -7.711986e-01 -7.539140e-01 -7.706260e-01 -7.523980e-01 -7.697133e-01 -7.519053e-01 -7.700707e-01 -7.537894e-01 -7.721716e-01 -7.575286e-01 -7.743621e-01 -7.608438e-01 -7.744449e-01 -7.622728e-01 -7.723799e-01 -7.629840e-01 -7.704903e-01 -7.651534e-01 -7.706466e-01 -7.692453e-01 -7.726841e-01 -7.737823e-01 -7.749294e-01 -7.763441e-01 -7.757295e-01 -7.758206e-01 -7.756435e-01 -7.735842e-01 -7.768896e-01 -7.717188e-01 -7.810164e-01 -7.708621e-01 -7.871987e-01 -7.696227e-01 -7.931059e-01 -7.669675e-01 -7.974782e-01 -7.644133e-01 -7.998529e-01 -7.676109e-01 -7.915258e-01 -7.684835e-01 -7.872906e-01 -7.701167e-01 
-9.290244e-01 -9.109277e-01 -9.340058e-01 -9.152720e-01 -9.326101e-01 -9.088427e-01 -9.326882e-01 -9.485357e-01 -9.291933e-01 -9.599005e-01 -9.342815e-01 -9.744056e-01 -9.465113e-01 -9.731670e-01 -8.903466e-01 -8.969806e-01 -8.351540e-01 -8.337382e-01 -7.737824e-01 -7.775863e-01 -7.000461e-01 -7.149922e-01 -7.046433e-01 -7.270545e-01 -7.176955e-01 -7.343626e-01 -7.271440e-01 -7.390232e-01 -7.347457e-01 -7.428461e-01 -7.421795e-01 -7.470863e-01 -7.496513e-01 -7.510563e-01 -7.557199e-01 -7.533748e-01 -7.594888e-01 -7.544174e-01 -7.628413e-01 -7.573331e-01 -7.688395e-01 -7.633233e-01 -7.757670e-01 -7.681798e-01 -7.789967e-01 -7.690580e-01 -7.790996e-01 -7.697910e-01 -7.818435e-01 -7.754559e-01 -7.895418e-01 -7.842656e-01 -7.971815e-01 -7.900951e-01 -8.004440e-01 -7.926512e-01 -8.024215e-01 -7.871471e-01 -7.901780e-01 -7.707013e-01 -7.628180e-01 -7.888183e-01 -8.430035e-01 -8.235659e-01 -8.107500e-01 -7.892099e-01 -7.733677e-01 -7.548073e-01 -7.432930e-01 -7.289374e-01 -7.920891e-01 -8.154066e-01 -8.076155e-01 -7.959096e-01 -8.041944e-01 -7.915937e-01 -8.006447e-01 -7.890702e-01 -8.028231e-01 -7.932325e-01 -8.114394e-01 -8.015895e-01 -8.215375e-01 -8.084439e-01 -8.278096e-01 -8.106277e-01 -8.296248e-01 -8.102179e-01 -8.304392e-01 -8.114713e-01 -8.342713e-01 -8.177920e-01 -8.425936e-01 -8.281396e-01 -8.515811e-01 -8.370550e-01 -8.557973e-01 -8.409179e-01 -8.548720e-01 -8.425712e-01 -8.542166e-01 -8.475000e-01 -8.582081e-01 -8.572202e-01 -8.664145e-01 -8.687092e-01 -8.747278e-01 -8.764597e-01 -8.788555e-01 -8.779369e-01 -8.798972e-01 -8.765251e-01 -8.830226e-01 -8.771231e-01 -8.919354e-01 -8.810149e-01 -9.049190e-01 -8.843186e-01 -9.169810e-01 -8.833438e-01 -9.265534e-01 -8.766699e-01 -9.406388e-01 -8.980516e-01 -9.252469e-01 -8.967938e-01 -9.239620e-01 -9.030377e-01 
-7.848349e-01 -7.753762e-01 -7.910275e-01 -7.776586e-01 -7.905285e-01 -7.674752e-01 -8.243779e-01 -8.548822e-01 -8.348409e-01 -8.671604e-01 -8.532888e-01 -8.845360e-01 -8.697359e-01 -8.342888e-01 -6.431978e-01 -5.375686e-01 -4.014075e-01 -2.743855e-01 -1.359068e-01 -3.858651e-02 1.570232e-01 2.024372e-01 1.866932e-01 1.871703e-01 1.683237e-01 1.699218e-01 1.492294e-01 1.521655e-01 1.300405e-01 1.341699e-01 1.107970e-01 1.159350e-01 9.171223e-02 9.786264e-02 7.333992e-02 8.041300e-02 5.588926e-02 6.332750e-02 3.853469e-02 4.542103e-02 2.012407e-02 2.627392e-02 1.245530e-03 7.419735e-03 -1.647518e-02 -1.010860e-02 -3.318759e-02 -2.758312e-02 -5.086447e-02 -4.667597e-02 -7.029205e-02 -6.675629e-02 -8.972051e-02 -8.582215e-02 -1.077652e-01 -1.041114e-01 -1.214538e-01 -8.431708e-02 -6.445078e-02 -6.742690e-03 3.483145e-02 -8.016756e-02 -2.663743e-01 -2.332968e-01 -1.878358e-01 -1.265752e-01 -6.168026e-02 -9.729107e-03 2.713401e-02 2.935723e-02 -1.985168e-01 -2.986236e-01 -2.637339e-01 -2.535429e-01 -2.748010e-01 -2.689380e-01 -2.901097e-01 -2.846788e-01 -3.074037e-01 -3.027997e-01 -3.270127e-01 -3.225336e-01 -3.472360e-01 -3.419308e-01 -3.662634e-01 -3.599243e-01 -3.839108e-01 -3.773460e-01 -4.015138e-01 -3.957768e-01 -4.205848e-01 -4.164753e-01 -4.416447e-01 -4.389946e-01 -4.632462e-01 -4.612578e-01 -4.832850e-01 -4.817854e-01 -5.014526e-01 -5.013986e-01 -5.195445e-01 -5.219125e-01 -5.390928e-01 -5.438332e-01 -5.600220e-01 -5.661239e-01 -5.810089e-01 -5.868798e-01 -6.006712e-01 -6.052472e-01 -6.195074e-01 -6.224428e-01 -6.394102e-01 -6.401906e-01 -6.616991e-01 -6.588814e-01 -6.857623e-01 -6.769512e-01 -7.100084e-01 -6.924344e-01 -7.352819e-01 -6.969586e-01 -7.803751e-01 -7.732312e-01 -7.758809e-01 -7.657895e-01 -7.779164e-01 -7.692731e-01 
-9.298311e-01 -9.259087e-01 -9.634404e-01 -9.579027e-01 -1.000075e+00 -9.948221e-01 -1.080853e+00 -1.094138e+00 -1.140147e+00 -1.140309e+00 -1.201087e+00 -1.187954e+00 -1.257472e+00 -1.182952e+00 -5.379165e-01 -1.652765e-01 2.702189e-01 6.934743e-01 1.156831e+00 1.463507e+00 2.169875e+00 2.199522e+00 2.154957e+00 2.147627e+00 2.102918e+00 2.092637e+00 2.048050e+00 2.035795e+00 1.991960e+00 1.978525e+00 1.936371e+00 1.921953e+00 1.881520e+00 1.865342e+00 1.825958e+00 1.807266e+00 1.768682e+00 1.747953e+00 1.711296e+00 1.690340e+00 1.656592e+00 1.635557e+00 1.602818e+00 1.579621e+00 1.545524e+00 1.519965e+00 1.485471e+00 1.460638e+00 1.428541e+00 1.407021e+00 1.377335e+00 1.357845e+00 1.327513e+00 1.307757e+00 1.275691e+00 1.257504e+00 1.231442e+00 1.246424e+00 1.252994e+00 1.279186e+00 1.293754e+00 1.185051e+00 1.019137e+00 1.016873e+00 1.020614e+00 1.039775e+00 1.059611e+00 1.070598e+00 1.057667e+00 1.022694e+00 8.090555e-01 7.167622e-01 7.158071e-01 7.037484e-01 6.576728e-01 6.397600e-01 5.932222e-01 5.770093e-01 5.337805e-01 5.203060e-01 4.802662e-01 4.672817e-01 4.279413e-01 4.123392e-01 3.715560e-01 3.522357e-01 3.103666e-01 2.887564e-01 2.475393e-01 2.259036e-01 1.868813e-01 1.669451e-01 1.298754e-01 1.110369e-01 7.298699e-02 5.314914e-02 1.121436e-02 -9.885106e-03 -5.555276e-02 -7.496297e-02 -1.218990e-01 -1.364644e-01 -1.835446e-01 -1.927293e-01 -2.410270e-01 -2.466212e-01 -2.985740e-01 -3.034840e-01 -3.606258e-01 -3.658125e-01 -4.263361e-01 -4.303503e-01 -4.907966e-01 -4.923564e-01 -5.503799e-01 -5.505687e-01 -6.066241e-01 -6.086739e-01 -6.644073e-01 -6.698456e-01 -7.266540e-01 -7.272120e-01 -8.047655e-01 -8.343035e-01 -8.578674e-01 -8.655496e-01 -8.958326e-01 -8.956436e-01 
-7.873619e-01 -7.944186e-01 -8.256355e-01 -8.339156e-01 -8.698970e-01 -8.840729e-01 -9.315966e-01 -9.420657e-01 -9.888208e-01 -9.934115e-01 -1.043596e+00 -1.042144e+00 -1.094484e+00 -1.083705e+00 -3.026143e-01 -2.142766e-01 5.099089e-01 6.228496e-01 1.349417e+00 1.431191e+00 2.214563e+00 2.224762e+00 2.171572e+00 2.175260e+00 2.122148e+00 2.122945e+00 2.070020e+00 2.068739e+00 2.016652e+00 2.013861e+00 1.963461e+00 1.959252e+00 1.910672e+00 1.904428e+00 1.857232e+00 1.848397e+00 1.802443e+00 1.791437e+00 1.747584e+00 1.735817e+00 1.694751e+00 1.682364e+00 1.642580e+00 1.628043e+00 1.587689e+00 1.570899e+00 1.530603e+00 1.513921e+00 1.475665e+00 1.461004e+00 1.424651e+00 1.410927e+00 1.373928e+00 1.359205e+00 1.320284e+00 1.305529e+00 1.267137e+00 1.257209e+00 1.220540e+00 1.210422e+00 1.171965e+00 1.150495e+00 1.098568e+00 1.080518e+00 1.037319e+00 1.019804e+00 9.792635e-01 9.625265e-01 9.165360e-01 8.965911e-01 8.379762e-01 8.265979e-01 7.872025e-01 7.766611e-01 7.314092e-01 7.175362e-01 6.720963e-01 6.584861e-01 6.159896e-01 6.036521e-01 5.641106e-01 5.514276e-01 5.129492e-01 4.975926e-01 4.585159e-01 4.396890e-01 4.002363e-01 3.791493e-01 3.406047e-01 3.191396e-01 2.826141e-01 2.622321e-01 2.273930e-01 2.077526e-01 1.721902e-01 1.518108e-01 1.131273e-01 9.193861e-02 5.009589e-02 3.046970e-02 -1.275401e-02 -2.831361e-02 -7.208215e-02 -8.313001e-02 -1.282326e-01 -1.362032e-01 -1.844013e-01 -1.916612e-01 -2.439203e-01 -2.514198e-01 -3.060721e-01 -3.129770e-01 -3.670267e-01 -3.726698e-01 -4.239593e-01 -4.295183e-01 -4.780228e-01 -4.863913e-01 -5.328481e-01 -5.460675e-01 -5.899046e-01 -6.078818e-01 -6.484347e-01 -6.744401e-01 -7.059850e-01 -7.203464e-01 -7.493215e-01 -7.582438e-01 
-9.324644e-01 -9.343435e-01 -9.814442e-01 -9.823915e-01 -1.033870e+00 -1.035157e+00 -1.093207e+00 -1.095281e+00 -1.153285e+00 -1.153347e+00 -1.213822e+00 -1.211346e+00 -1.273955e+00 -1.269907e+00 -4.172445e-01 -3.293851e-01 4.623433e-01 5.745359e-01 1.372961e+00 1.445932e+00 2.313839e+00 2.299910e+00 2.255113e+00 2.240893e+00 2.196225e+00 2.181662e+00 2.137362e+00 2.122273e+00 2.078667e+00 2.062890e+00 2.020307e+00 2.003641e+00 1.962224e+00 1.944385e+00 1.904110e+00 1.884913e+00 1.845785e+00 1.825340e+00 1.787497e+00 1.766143e+00 1.729589e+00 1.707451e+00 1.671723e+00 1.648673e+00 1.613245e+00 1.589496e+00 1.554343e+00 1.530611e+00 1.495953e+00 1.472803e+00 1.438376e+00 1.415655e+00 1.380629e+00 1.357820e+00 1.321461e+00 1.298220e+00 1.260020e+00 1.235446e+00 1.194923e+00 1.174567e+00 1.133489e+00 1.111161e+00 1.070996e+00 1.048451e+00 1.007404e+00 9.882744e-01 9.451993e-01 9.271463e-01 8.866214e-01 8.674606e-01 8.244792e-01 8.085404e-01 7.634857e-01 7.468171e-01 7.018379e-01 6.848010e-01 6.402149e-01 6.233269e-01 5.797522e-01 5.631166e-01 5.205755e-01 5.036655e-01 4.616640e-01 4.437849e-01 4.018374e-01 3.827343e-01 3.407807e-01 3.208130e-01 2.790713e-01 2.589004e-01 2.174839e-01 1.976797e-01 1.562383e-01 1.369632e-01 9.462983e-02 7.583476e-02 3.177463e-02 1.377082e-02 -3.225272e-02 -4.861189e-02 -9.634700e-02 -1.102259e-01 -1.595442e-01 -1.707183e-01 -2.218547e-01 -2.307537e-01 -2.841008e-01 -2.914716e-01 -3.470717e-01 -3.534016e-01 -4.105518e-01 -4.159485e-01 -4.735199e-01 -4.781406e-01 -5.351967e-01 -5.396296e-01 -5.958033e-01 -6.009389e-01 -6.562009e-01 -6.625759e-01 -7.168068e-01 -7.243220e-01 -7.770753e-01 -7.870312e-01 -8.330067e-01 -8.399508e-01 -8.839194e-01 -8.878746e-01 
-7.890451e-01 -8.002186e-01 -8.364297e-01 -8.477055e-01 -8.865030e-01 -8.986340e-01 -9.407358e-01 -9.532205e-01 -9.972799e-01 -1.010603e+00 -1.055949e+00 -1.072287e+00 -1.117730e+00 -1.141558e+00 -2.840647e-01 -2.754741e-01 5.542469e-01 5.753319e-01 1.403647e+00 1.414264e+00 2.266590e+00 2.248950e+00 2.198133e+00 2.187403e+00 2.136216e+00 2.128826e+00 2.077746e+00 2.071665e+00 2.021161e+00 2.015228e+00 1.965730e+00 1.959229e+00 1.911002e+00 1.903423e+00 1.856557e+00 1.847587e+00 1.802117e+00 1.791722e+00 1.747723e+00 1.736089e+00 1.693531e+00 1.680783e+00 1.639345e+00 1.625491e+00 1.584783e+00 1.570016e+00 1.529896e+00 1.514685e+00 1.475142e+00 1.459859e+00 1.420617e+00 1.405217e+00 1.365702e+00 1.349914e+00 1.309637e+00 1.293257e+00 1.251921e+00 1.234455e+00 1.192465e+00 1.177194e+00 1.135089e+00 1.120148e+00 1.079079e+00 1.063825e+00 1.019823e+00 1.006358e+00 9.604183e-01 9.469299e-01 9.035105e-01 8.891362e-01 8.472517e-01 8.343716e-01 7.899465e-01 7.769174e-01 7.330186e-01 7.195118e-01 6.763030e-01 6.623934e-01 6.202760e-01 6.059009e-01 5.649193e-01 5.497043e-01 5.095829e-01 4.931164e-01 4.535705e-01 4.357559e-01 3.967144e-01 3.778584e-01 3.393655e-01 3.199829e-01 2.819664e-01 2.625369e-01 2.246110e-01 2.054026e-01 1.668719e-01 1.480534e-01 1.082521e-01 9.019992e-02 4.883082e-02 3.219879e-02 -1.071537e-02 -2.534398e-02 -6.978835e-02 -8.226298e-02 -1.283556e-01 -1.389955e-01 -1.868444e-01 -1.962306e-01 -2.456325e-01 -2.542761e-01 -3.045121e-01 -3.127729e-01 -3.628136e-01 -3.711200e-01 -4.200212e-01 -4.290584e-01 -4.762095e-01 -4.867894e-01 -5.318015e-01 -5.444094e-01 -5.869028e-01 -6.013645e-01 -6.410379e-01 -6.564932e-01 -6.931896e-01 -7.070270e-01 -7.420525e-01 -7.541568e-01 
-9.334318e-01 -9.365113e-01 -9.857315e-01 -9.880840e-01 -1.040158e+00 -1.042491e+00 -1.097740e+00 -1.100580e+00 -1.157623e+00 -1.161336e+00 -1.219717e+00 -1.226107e+00 -1.284811e+00 -1.298327e+00 -3.988041e-01 -3.697557e-01 4.964485e-01 5.386917e-01 1.408803e+00 1.429237e+00 2.339134e+00 2.311414e+00 2.267767e+00 2.246513e+00 2.202660e+00 2.184365e+00 2.140702e+00 2.123498e+00 2.080355e+00 2.063240e+00 2.020916e+00 2.003343e+00 1.962049e+00 1.943688e+00 1.903499e+00 1.884140e+00 1.845034e+00 1.824613e+00 1.786533e+00 1.765140e+00 1.728003e+00 1.705808e+00 1.669445e+00 1.646623e+00 1.610789e+00 1.587524e+00 1.551953e+00 1.528452e+00 1.492882e+00 1.469322e+00 1.433455e+00 1.409916e+00 1.373410e+00 1.349876e+00 1.312387e+00 1.288764e+00 1.249949e+00 1.226039e+00 1.185899e+00 1.163064e+00 1.122246e+00 1.101580e+00 1.061990e+00 1.041366e+00 9.993296e-01 9.803355e-01 9.378691e-01 9.198137e-01 8.773168e-01 8.595760e-01 8.195524e-01 8.035486e-01 7.604547e-01 7.439651e-01 7.005535e-01 6.838430e-01 6.404774e-01 6.235279e-01 5.804181e-01 5.631119e-01 5.203252e-01 5.025099e-01 4.600337e-01 4.416289e-01 3.994306e-01 3.804899e-01 3.385139e-01 3.192096e-01 2.773292e-01 2.579077e-01 2.158919e-01 1.966407e-01 1.541592e-01 1.353902e-01 9.205602e-02 7.410920e-02 2.955472e-02 1.280185e-02 -3.325949e-02 -4.845853e-02 -9.622510e-02 -1.096124e-01 -1.592115e-01 -1.707007e-01 -2.221703e-01 -2.318497e-01 -2.850874e-01 -2.931809e-01 -3.479047e-01 -3.547268e-01 -4.104806e-01 -4.164049e-01 -4.726226e-01 -4.780709e-01 -5.341815e-01 -5.396013e-01 -5.951116e-01 -6.008927e-01 -6.553866e-01 -6.617356e-01 -7.148055e-01 -7.216802e-01 -7.728154e-01 -7.799350e-01 -8.284205e-01 -8.344125e-01 -8.815642e-01 -8.859783e-01 
-7.891646e-01 -8.003190e-01 -8.364871e-01 -8.477578e-01 -8.865223e-01 -8.986605e-01 -9.407321e-01 -9.532385e-01 -9.972687e-01 -1.010631e+00 -1.055951e+00 -1.072351e+00 -1.117767e+00 -1.141671e+00 -2.841021e-01 -2.755589e-01 5.542326e-01 5.753092e-01 1.403704e+00 1.414323e+00 2.266794e+00 2.249069e+00 2.198338e+00 2.187577e+00 2.136452e+00 2.129020e+00 2.077928e+00 2.071691e+00 2.021055e+00 2.014842e+00 1.965185e+00 1.958434e+00 1.910205e+00 1.902542e+00 1.855860e+00 1.846891e+00 1.801607e+00 1.791082e+00 1.747056e+00 1.735053e+00 1.692282e+00 1.679142e+00 1.637621e+00 1.623672e+00 1.583173e+00 1.568556e+00 1.528655e+00 1.513426e+00 1.473701e+00 1.457975e+00 1.418142e+00 1.402139e+00 1.362058e+00 1.346029e+00 1.305604e+00 1.289688e+00 1.248718e+00 1.232882e+00 1.191173e+00 1.175704e+00 1.133321e+00 1.118317e+00 1.075617e+00 1.061299e+00 1.018178e+00 1.004769e+00 9.613533e-01 9.482381e-01 9.046517e-01 8.912862e-01 8.475942e-01 8.342234e-01 7.903785e-01 7.770405e-01 7.337365e-01 7.203015e-01 6.777282e-01 6.637800e-01 6.218679e-01 6.069584e-01 5.656406e-01 5.495429e-01 5.089182e-01 4.917297e-01 4.519987e-01 4.339707e-01 3.951630e-01 3.764802e-01 3.383263e-01 3.191081e-01 2.811435e-01 2.615953e-01 2.233635e-01 2.039128e-01 1.650766e-01 1.463132e-01 1.065823e-01 8.905189e-02 4.806560e-02 3.209423e-02 -1.056943e-02 -2.487006e-02 -6.951718e-02 -8.214302e-02 -1.287921e-01 -1.397783e-01 -1.880902e-01 -1.975599e-01 -2.469786e-01 -2.553291e-01 -3.052642e-01 -3.131693e-01 -3.629766e-01 -3.712063e-01 -4.201615e-01 -4.294301e-01 -4.767859e-01 -4.876345e-01 -5.327280e-01 -5.454178e-01 -5.877889e-01 -6.021740e-01 -6.416605e-01 -6.570245e-01 -6.935745e-01 -7.073471e-01 -7.422740e-01 -7.543400e-01 
-9.326875e-01 -9.345301e-01 -9.815368e-01 -9.824695e-01 -1.033866e+00 -1.035162e+00 -1.093125e+00 -1.095249e+00 -1.153162e+00 -1.153325e+00 -1.213701e+00 -1.211411e+00 -1.273892e+00 -1.270142e+00 -4.173473e-01 -3.296295e-01 4.621445e-01 5.744565e-01 1.372741e+00 1.446016e+00 2.313827e+00 2.299945e+00 2.255177e+00 2.241056e+00 2.196447e+00 2.181918e+00 2.137580e+00 2.122273e+00 2.078411e+00 2.062139e+00 2.019231e+00 2.002079e+00 1.960604e+00 1.942555e+00 1.902552e+00 1.883287e+00 1.844424e+00 1.823668e+00 1.785690e+00 1.763576e+00 1.726525e+00 1.703570e+00 1.667564e+00 1.644234e+00 1.609050e+00 1.585443e+00 1.550499e+00 1.526525e+00 1.491239e+00 1.466947e+00 1.431009e+00 1.406708e+00 1.370096e+00 1.346217e+00 1.308968e+00 1.285759e+00 1.247661e+00 1.225013e+00 1.185716e+00 1.163632e+00 1.123216e+00 1.102101e+00 1.061162e+00 1.041441e+00 1.000223e+00 9.820164e-01 9.404690e-01 9.230729e-01 8.807605e-01 8.634887e-01 8.204638e-01 8.033983e-01 7.598940e-01 7.432461e-01 6.999521e-01 6.836442e-01 6.406669e-01 6.241278e-01 5.812159e-01 5.638507e-01 5.208695e-01 5.024703e-01 4.596490e-01 4.405044e-01 3.982786e-01 3.788105e-01 3.373197e-01 3.176924e-01 2.765972e-01 2.567752e-01 2.154820e-01 1.955356e-01 1.535621e-01 1.339388e-01 9.107494e-02 7.248892e-02 2.858654e-02 1.164490e-02 -3.366072e-02 -4.873105e-02 -9.602040e-02 -1.092612e-01 -1.589895e-01 -1.704398e-01 -2.226536e-01 -2.322165e-01 -2.864734e-01 -2.940313e-01 -3.497043e-01 -3.555230e-01 -4.121457e-01 -4.169088e-01 -4.740569e-01 -4.785422e-01 -5.356817e-01 -5.405280e-01 -5.970403e-01 -6.026392e-01 -6.579986e-01 -6.644879e-01 -7.184469e-01 -7.258025e-01 -7.781951e-01 -7.880002e-01 -8.337087e-01 -8.405483e-01 -8.843336e-01 -8.882239e-01 
-7.875600e-01 -7.945807e-01 -8.257117e-01 -8.339825e-01 -8.698941e-01 -8.840834e-01 -9.315238e-01 -9.420463e-01 -9.887039e-01 -9.933881e-01 -1.043513e+00 -1.042292e+00 -1.094613e+00 -1.084135e+00 -3.028179e-01 -2.146668e-01 5.096720e-01 6.227059e-01 1.349292e+00 1.431449e+00 2.214900e+00 2.225005e+00 2.172063e+00 2.175919e+00 2.123201e+00 2.124275e+00 2.071498e+00 2.069790e+00 2.016936e+00 2.012694e+00 1.961082e+00 1.955577e+00 1.906870e+00 1.900693e+00 1.854797e+00 1.846828e+00 1.802290e+00 1.791323e+00 1.747280e+00 1.733543e+00 1.690584e+00 1.675742e+00 1.635045e+00 1.620432e+00 1.581840e+00 1.567154e+00 1.529161e+00 1.513445e+00 1.474676e+00 1.457631e+00 1.417765e+00 1.400151e+00 1.359889e+00 1.343066e+00 1.303294e+00 1.287979e+00 1.248233e+00 1.233262e+00 1.191713e+00 1.175742e+00 1.131985e+00 1.115929e+00 1.071848e+00 1.057974e+00 1.015454e+00 1.004219e+00 9.623699e-01 9.513271e-01 9.075918e-01 8.945115e-01 8.484919e-01 8.342476e-01 7.884838e-01 7.753802e-01 7.319130e-01 7.202136e-01 6.785561e-01 6.663611e-01 6.249236e-01 6.103877e-01 5.683389e-01 5.509703e-01 5.090398e-01 4.901251e-01 4.500899e-01 4.311108e-01 3.936149e-01 3.746278e-01 3.386709e-01 3.187968e-01 2.827082e-01 2.613322e-01 2.241427e-01 2.020913e-01 1.641111e-01 1.432205e-01 1.050015e-01 8.668920e-02 4.777386e-02 3.201604e-02 -9.172539e-03 -2.316209e-02 -6.793720e-02 -8.057505e-02 -1.291356e-01 -1.399766e-01 -1.909745e-01 -1.989404e-01 -2.507352e-01 -2.560997e-01 -3.083090e-01 -3.127804e-01 -3.652497e-01 -3.705470e-01 -4.225455e-01 -4.298814e-01 -4.800955e-01 -4.901665e-01 -5.371900e-01 -5.505415e-01 -5.934556e-01 -6.106276e-01 -6.501987e-01 -6.757664e-01 -7.068429e-01 -7.210094e-01 -7.497413e-01 -7.585774e-01 
-9.300344e-01 -9.260655e-01 -9.634900e-01 -9.579146e-01 -9.999923e-01 -9.946897e-01 -1.080545e+00 -1.093895e+00 -1.139749e+00 -1.139990e+00 -1.200669e+00 -1.187777e+00 -1.257255e+00 -1.183085e+00 -5.384117e-01 -1.664609e-01 2.695138e-01 6.932976e-01 1.155461e+00 1.464383e+00 2.168753e+00 2.199107e+00 2.154750e+00 2.148042e+00 2.103871e+00 2.094249e+00 2.049945e+00 2.037353e+00 1.992588e+00 1.977370e+00 1.933611e+00 1.917487e+00 1.876756e+00 1.860562e+00 1.822669e+00 1.804977e+00 1.768019e+00 1.747255e+00 1.710153e+00 1.686583e+00 1.650173e+00 1.625906e+00 1.591803e+00 1.568496e+00 1.536556e+00 1.513712e+00 1.482027e+00 1.458310e+00 1.425149e+00 1.400094e+00 1.365096e+00 1.339636e+00 1.303771e+00 1.279672e+00 1.244203e+00 1.222458e+00 1.186911e+00 1.166075e+00 1.128160e+00 1.106309e+00 1.065389e+00 1.043472e+00 1.001651e+00 9.832258e-01 9.438246e-01 9.293314e-01 8.908601e-01 8.770237e-01 8.356536e-01 8.194381e-01 7.741491e-01 7.564446e-01 7.113387e-01 6.956393e-01 6.529108e-01 6.395385e-01 5.984536e-01 5.849882e-01 5.434421e-01 5.275802e-01 4.844807e-01 4.656364e-01 4.219210e-01 4.017837e-01 3.597959e-01 3.402756e-01 3.009281e-01 2.820431e-01 2.441661e-01 2.246888e-01 1.862809e-01 1.652653e-01 1.252408e-01 1.035536e-01 6.248844e-02 4.227284e-02 1.054586e-03 -1.607614e-02 -5.788044e-02 -7.214299e-02 -1.164620e-01 -1.289876e-01 -1.774622e-01 -1.888031e-01 -2.417219e-01 -2.512047e-01 -3.069411e-01 -3.129385e-01 -3.695937e-01 -3.721531e-01 -4.295838e-01 -4.305386e-01 -4.889485e-01 -4.900789e-01 -5.489561e-01 -5.513802e-01 -6.095126e-01 -6.136286e-01 -6.699222e-01 -6.753786e-01 -7.308514e-01 -7.302689e-01 -8.065636e-01 -8.356859e-01 -8.587520e-01 -8.662512e-01 -8.962736e-01 -8.960002e-01 
-7.847130e-01 -7.752954e-01 -7.909508e-01 -7.775840e-01 -7.904548e-01 -7.673628e-01 -8.241832e-01 -8.548156e-01 -8.348117e-01 -8.672745e-01 -8.534835e-01 -8.849132e-01 -8.702300e-01 -8.351653e-01 -6.439398e-01 -5.389355e-01 -4.026242e-01 -2.757475e-01 -1.377446e-01 -3.953282e-02 1.551549e-01 2.011422e-01 1.855817e-01 1.863178e-01 1.676600e-01 1.694573e-01 1.490253e-01 1.523906e-01 1.308218e-01 1.356662e-01 1.128208e-01 1.183422e-01 9.385377e-02 9.953513e-02 7.386560e-02 8.004352e-02 5.426785e-02 6.135660e-02 3.618783e-02 4.395825e-02 1.931037e-02 2.689113e-02 2.273733e-03 8.988444e-03 -1.557949e-02 -9.594225e-03 -3.355901e-02 -2.782788e-02 -5.076386e-02 -4.508145e-02 -6.707520e-02 -6.166969e-02 -8.323722e-02 -7.854520e-02 -1.002035e-01 -9.630022e-02 -1.178343e-01 -1.138589e-01 -1.343577e-01 -1.297775e-01 -1.493590e-01 -1.449794e-01 -1.652775e-01 -1.611662e-01 -1.816930e-01 -1.784005e-01 -1.992284e-01 -1.958217e-01 -2.163820e-01 -2.120782e-01 -2.328449e-01 -2.285641e-01 -2.492096e-01 -2.453225e-01 -2.673741e-01 -2.641811e-01 -2.873725e-01 -2.840735e-01 -3.075797e-01 -3.033689e-01 -3.267258e-01 -3.214454e-01 -3.449317e-01 -3.392638e-01 -3.636211e-01 -3.583015e-01 -3.836672e-01 -3.787140e-01 -4.044120e-01 -3.994125e-01 -4.244764e-01 -4.192147e-01 -4.430871e-01 -4.381212e-01 -4.609283e-01 -4.573346e-01 -4.793520e-01 -4.779603e-01 -4.990016e-01 -4.998545e-01 -5.192520e-01 -5.218987e-01 -5.391886e-01 -5.431752e-01 -5.585061e-01 -5.635790e-01 -5.779532e-01 -5.839827e-01 -5.986835e-01 -6.047417e-01 -6.205716e-01 -6.249504e-01 -6.427167e-01 -6.436977e-01 -6.645783e-01 -6.607305e-01 -6.862922e-01 -6.763837e-01 -7.086236e-01 -6.907277e-01 -7.335656e-01 -6.954718e-01 -7.791615e-01 -7.724705e-01 -7.753392e-01 -7.654588e-01 -7.776690e-01 -7.691254e-01 
-9.288722e-01 -9.108345e-01 -9.339293e-01 -9.152157e-01 -9.325585e-01 -9.087924e-01 -9.326241e-01 -9.485526e-01 -9.292858e-01 -9.600911e-01 -9.345417e-01 -9.746876e-01 -9.468378e-01 -9.735937e-01 -8.909038e-01 -8.978277e-01 -8.360330e-01 -8.348639e-01 -7.750860e-01 -7.789770e-01 -7.016015e-01 -7.165640e-01 -7.060011e-01 -7.285733e-01 -7.193156e-01 -7.362380e-01 -7.289390e-01 -7.402215e-01 -7.347980e-01 -7.410934e-01 -7.388768e-01 -7.423876e-01 -7.450640e-01 -7.470689e-01 -7.539188e-01 -7.533025e-01 -7.618242e-01 -7.572926e-01 -7.659177e-01 -7.580466e-01 -7.673074e-01 -7.585165e-01 -7.698756e-01 -7.620432e-01 -7.753038e-01 -7.680411e-01 -7.813431e-01 -7.733582e-01 -7.851252e-01 -7.759382e-01 -7.860023e-01 -7.764293e-01 -7.859115e-01 -7.774872e-01 -7.877055e-01 -7.810855e-01 -7.914802e-01 -7.847824e-01 -7.929161e-01 -7.843523e-01 -7.900390e-01 -7.810162e-01 -7.873325e-01 -7.797567e-01 -7.878486e-01 -7.826371e-01 -7.919182e-01 -7.863930e-01 -7.944353e-01 -7.862143e-01 -7.931611e-01 -7.838328e-01 -7.914700e-01 -7.832804e-01 -7.946701e-01 -7.880231e-01 -8.025247e-01 -7.950341e-01 -8.104854e-01 -7.998353e-01 -8.150295e-01 -8.006552e-01 -8.164168e-01 -8.001106e-01 -8.186515e-01 -8.024569e-01 -8.244455e-01 -8.084873e-01 -8.323953e-01 -8.155717e-01 -8.390036e-01 -8.205923e-01 -8.421319e-01 -8.233631e-01 -8.433633e-01 -8.268154e-01 -8.460185e-01 -8.336711e-01 -8.515606e-01 -8.433728e-01 -8.580368e-01 -8.527926e-01 -8.627727e-01 -8.595124e-01 -8.649110e-01 -8.635591e-01 -8.666790e-01 -8.678238e-01 -8.715300e-01 -8.738035e-01 -8.794096e-01 -8.794756e-01 -8.881157e-01 -8.826876e-01 -8.962906e-01 -8.828720e-01 -9.040614e-01 -8.810228e-01 -9.124654e-01 -8.785176e-01 -9.225516e-01 -8.736634e-01 -9.386568e-01 -8.967532e-01 -9.244019e-01 -8.962581e-01 -9.236073e-01 -9.028218e-01 
-7.853438e-01 -7.719271e-01 -7.837718e-01 -7.730486e-01 -7.804152e-01 -7.730423e-01 -7.745631e-01 -7.852242e-01 -7.701372e-01 -7.911102e-01 -7.687628e-01 -7.926139e-01 -7.700255e-01 -7.893402e-01 -7.739157e-01 -7.909847e-01 -7.805650e-01 -7.929685e-01 -7.878616e-01 -7.941451e-01 -7.937087e-01 -7.932052e-01 -7.935451e-01 -7.928468e-01 -7.948789e-01 -7.927436e-01 -7.964921e-01 -7.918899e-01 -7.973264e-01 -7.900803e-01 -7.978165e-01 -7.886607e-01 -7.993586e-01 -7.887507e-01 -8.019605e-01 -7.894530e-01 -8.039414e-01 -7.891359e-01 -8.041011e-01 -7.874977e-01 -8.030214e-01 -7.858493e-01 -8.022938e-01 -7.854485e-01 -8.024684e-01 -7.859235e-01 -8.026086e-01 -7.860242e-01 -8.016659e-01 -7.849647e-01 -7.993665e-01 -7.828233e-01 -7.962379e-01 -7.803492e-01 -7.931931e-01 -7.782109e-01 -7.903326e-01 -7.756666e-01 -7.863060e-01 -7.716075e-01 -7.808438e-01 -7.664193e-01 -7.755832e-01 -7.622196e-01 -7.718673e-01 -7.602199e-01 -7.703655e-01 -7.592738e-01 -7.692330e-01 -7.573934e-01 -7.670190e-01 -7.549280e-01 -7.646398e-01 -7.528248e-01 -7.640369e-01 -7.526158e-01 -7.654312e-01 -7.535080e-01 -7.672801e-01 -7.538501e-01 -7.680780e-01 -7.527538e-01 -7.676334e-01 -7.510511e-01 -7.673433e-01 -7.504349e-01 -7.683320e-01 -7.514305e-01 -7.701951e-01 -7.531964e-01 -7.716223e-01 -7.545705e-01 -7.717098e-01 -7.553791e-01 -7.709020e-01 -7.565838e-01 -7.703770e-01 -7.591666e-01 -7.708067e-01 -7.629989e-01 -7.716910e-01 -7.669339e-01 -7.721578e-01 -7.698892e-01 -7.718710e-01 -7.715826e-01 -7.716218e-01 -7.728315e-01 -7.727288e-01 -7.740753e-01 -7.753206e-01 -7.746190e-01 -7.787718e-01 -7.738073e-01 -7.826516e-01 -7.715391e-01 -7.868211e-01 -7.682819e-01 -7.912664e-01 -7.649733e-01 -7.957772e-01 -7.630840e-01 -7.989198e-01 -7.669421e-01 -7.910503e-01 -7.681506e-01 -7.870515e-01 -7.699527e-01 
