# vtk DataFile Version 2.0
Comment goes here
ASCII

DATASET STRUCTURED_POINTS
FIELD FieldData 1
TIME 1 1 double
0.46000000
DIMENSIONS    128   16   1

ORIGIN    0.000   0.000   0.000
SPACING   0.0078125 0.015625   1.000

POINT_DATA   2048
SCALARS P double
LOOKUP_TABLE default

9.259691e-01 9.072075e-01 9.276568e-01 9.133665e-01 9.274356e-01 9.201021e-01 9.259030e-01 9.337425e-01 9.224589e-01 9.412485e-01 9.168196e-01 9.404623e-01 9.035048e-01 9.234814e-01 8.695702e-01 8.828858e-01 8.272496e-01 8.365326e-01 7.829675e-01 7.929899e-01 7.447226e-01 7.583101e-01 7.294298e-01 7.451615e-01 7.269522e-01 7.413431e-01 7.298715e-01 7.413647e-01 7.346920e-01 7.427105e-01 7.399321e-01 7.445540e-01 7.452406e-01 7.468466e-01 7.506009e-01 7.496174e-01 7.559437e-01 7.528283e-01 7.611722e-01 7.563428e-01 7.660221e-01 7.597418e-01 7.700722e-01 7.627087e-01 7.734218e-01 7.656666e-01 7.768587e-01 7.692982e-01 7.808277e-01 7.734307e-01 7.847642e-01 7.772089e-01 7.880519e-01 7.803822e-01 7.909592e-01 7.832792e-01 7.933630e-01 7.844349e-01 7.927336e-01 7.849535e-01 7.924996e-01 7.855758e-01 7.962130e-01 7.860867e-01 7.919775e-01 7.820850e-01 7.885964e-01 7.805728e-01 7.908017e-01 7.849955e-01 8.009862e-01 7.986915e-01 8.109751e-01 8.039428e-01 8.154249e-01 8.068263e-01 8.198777e-01 8.111463e-01 8.265281e-01 8.171414e-01 8.341482e-01 8.228184e-01 8.406694e-01 8.269033e-01 8.457004e-01 8.301535e-01 8.503746e-01 8.339092e-01 8.553738e-01 8.383734e-01 8.601432e-01 8.428969e-01 8.640404e-01 8.473237e-01 8.672635e-01 8.520755e-01 8.702108e-01 8.571898e-01 8.727588e-01 8.621398e-01 8.746042e-01 8.664511e-01 8.758710e-01 8.701418e-01 8.772397e-01 8.736182e-01 8.796220e-01 8.772634e-01 8.835615e-01 8.807980e-01 8.885915e-01 8.830512e-01 8.936079e-01 8.831469e-01 8.983767e-01 8.818244e-01 9.039135e-01 8.807775e-01 9.108258e-01 8.809857e-01 9.180816e-01 8.829938e-01 9.237218e-01 8.901110e-01 9.235738e-01 8.950205e-01 9.240618e-01 9.008156e-01 
7.828737e-01 7.687890e-01 7.813059e-01 7.700380e-01 7.778965e-01 7.702272e-01 7.719117e-01 7.822699e-01 7.672558e-01 7.879731e-01 7.655215e-01 7.893240e-01 7.664802e-01 7.857394e-01 7.697303e-01 7.872051e-01 7.762108e-01 7.892765e-01 7.838364e-01 7.909116e-01 7.903173e-01 7.909316e-01 7.908639e-01 7.911646e-01 7.923965e-01 7.907788e-01 7.932550e-01 7.890099e-01 7.937739e-01 7.877454e-01 7.957589e-01 7.880593e-01 7.987851e-01 7.887289e-01 8.008650e-01 7.877219e-01 8.002958e-01 7.847170e-01 7.984046e-01 7.823449e-01 7.978599e-01 7.821603e-01 7.986772e-01 7.828232e-01 7.990236e-01 7.827663e-01 7.984790e-01 7.825408e-01 7.980369e-01 7.825171e-01 7.973256e-01 7.818408e-01 7.958008e-01 7.803394e-01 7.936541e-01 7.781072e-01 7.906566e-01 7.733702e-01 7.837897e-01 7.702192e-01 7.778594e-01 7.608170e-01 7.691430e-01 7.499727e-01 7.567067e-01 7.439033e-01 7.552018e-01 7.477026e-01 7.641997e-01 7.565725e-01 7.735884e-01 7.666995e-01 7.785314e-01 7.663590e-01 7.766969e-01 7.646455e-01 7.774838e-01 7.672384e-01 7.826050e-01 7.722507e-01 7.883850e-01 7.758273e-01 7.915779e-01 7.759802e-01 7.915097e-01 7.739577e-01 7.907039e-01 7.731158e-01 7.917601e-01 7.748441e-01 7.942270e-01 7.776455e-01 7.959969e-01 7.797110e-01 7.957419e-01 7.803383e-01 7.933510e-01 7.799111e-01 7.900126e-01 7.799434e-01 7.874607e-01 7.811346e-01 7.857327e-01 7.824387e-01 7.841283e-01 7.830397e-01 7.826002e-01 7.825007e-01 7.811743e-01 7.806844e-01 7.804269e-01 7.780083e-01 7.808580e-01 7.746724e-01 7.827081e-01 7.712626e-01 7.864179e-01 7.682673e-01 7.911205e-01 7.650627e-01 7.949760e-01 7.621069e-01 7.966891e-01 7.647592e-01 7.886893e-01 7.652489e-01 7.845982e-01 7.668126e-01 
9.268423e-01 9.080738e-01 9.318047e-01 9.125804e-01 9.303937e-01 9.063061e-01 9.298642e-01 9.462470e-01 9.266384e-01 9.571630e-01 9.311940e-01 9.713999e-01 9.433255e-01 9.700080e-01 8.859804e-01 8.939553e-01 8.308672e-01 8.306831e-01 7.703880e-01 7.750226e-01 6.978317e-01 7.139452e-01 7.035333e-01 7.272302e-01 7.173360e-01 7.340361e-01 7.247452e-01 7.353836e-01 7.294860e-01 7.377228e-01 7.376498e-01 7.441873e-01 7.484505e-01 7.514061e-01 7.568302e-01 7.539739e-01 7.584482e-01 7.509474e-01 7.568127e-01 7.492426e-01 7.591294e-01 7.532776e-01 7.658020e-01 7.598143e-01 7.718994e-01 7.643744e-01 7.756714e-01 7.680160e-01 7.796028e-01 7.722683e-01 7.836625e-01 7.764481e-01 7.881494e-01 7.822098e-01 7.959926e-01 7.937255e-01 8.091933e-01 7.878834e-01 7.900490e-01 7.812922e-01 7.718613e-01 7.814027e-01 8.270952e-01 8.030659e-01 7.884950e-01 7.717502e-01 7.650636e-01 7.530923e-01 7.530101e-01 7.383555e-01 7.937618e-01 8.254540e-01 8.268197e-01 8.080760e-01 8.122060e-01 7.995431e-01 8.113046e-01 8.049466e-01 8.224009e-01 8.167992e-01 8.354687e-01 8.261309e-01 8.435987e-01 8.287046e-01 8.452056e-01 8.267959e-01 8.456399e-01 8.276785e-01 8.509251e-01 8.345816e-01 8.603040e-01 8.441050e-01 8.689389e-01 8.517843e-01 8.733321e-01 8.555073e-01 8.728266e-01 8.562431e-01 8.705553e-01 8.585082e-01 8.712861e-01 8.646329e-01 8.747738e-01 8.717758e-01 8.782895e-01 8.775033e-01 8.808095e-01 8.804841e-01 8.817893e-01 8.806381e-01 8.830137e-01 8.801193e-01 8.867261e-01 8.801861e-01 8.937493e-01 8.815328e-01 9.043788e-01 8.835002e-01 9.159487e-01 8.826921e-01 9.254209e-01 8.758012e-01 9.375566e-01 8.960727e-01 9.234741e-01 8.941241e-01 9.218907e-01 9.001612e-01 
7.827877e-01 7.721429e-01 7.890110e-01 7.746051e-01 7.884712e-01 7.639606e-01 8.211662e-01 8.518166e-01 8.326255e-01 8.633596e-01 8.500987e-01 8.800832e-01 8.656036e-01 8.289399e-01 6.349809e-01 5.320877e-01 3.926683e-01 2.677135e-01 1.285610e-01 3.155194e-02 -1.626716e-01 -2.072186e-01 -1.914735e-01 -1.906896e-01 -1.725155e-01 -1.732427e-01 -1.537283e-01 -1.562469e-01 -1.351485e-01 -1.386473e-01 -1.157814e-01 -1.202482e-01 -9.650725e-02 -1.024168e-01 -7.881997e-02 -8.641899e-02 -6.345827e-02 -7.201813e-02 -4.890492e-02 -5.671917e-02 -3.249048e-02 -3.868138e-02 -1.361918e-02 -1.869275e-02 6.106042e-03 1.425105e-03 2.557390e-02 2.135482e-02 4.495239e-02 4.100817e-02 6.373150e-02 6.002811e-02 8.234506e-02 7.950386e-02 1.025178e-01 1.014190e-01 1.157022e-01 3.992358e-02 -1.660113e-03 -2.930269e-02 -6.995335e-02 1.124078e-02 1.757171e-01 1.331877e-01 7.379508e-02 1.676864e-02 -4.283927e-02 -9.163713e-02 -1.045917e-01 -1.015135e-01 1.155143e-01 2.587959e-01 2.788900e-01 2.693895e-01 2.910989e-01 2.855548e-01 3.086197e-01 3.058482e-01 3.300055e-01 3.277691e-01 3.516301e-01 3.481138e-01 3.710099e-01 3.655421e-01 3.878452e-01 3.813288e-01 4.045136e-01 3.986166e-01 4.235920e-01 4.188986e-01 4.449353e-01 4.409333e-01 4.666322e-01 4.628526e-01 4.870432e-01 4.834264e-01 5.054274e-01 5.025135e-01 5.224954e-01 5.213904e-01 5.397682e-01 5.407082e-01 5.570266e-01 5.592336e-01 5.733078e-01 5.763636e-01 5.889894e-01 5.924558e-01 6.046995e-01 6.078764e-01 6.212321e-01 6.233494e-01 6.394924e-01 6.395062e-01 6.600537e-01 6.567210e-01 6.829857e-01 6.742940e-01 7.070170e-01 6.898668e-01 7.319372e-01 6.943927e-01 7.730541e-01 7.684368e-01 7.741739e-01 7.619836e-01 7.759528e-01 7.658094e-01 
9.276526e-01 9.225056e-01 9.613390e-01 9.545176e-01 9.978513e-01 9.906575e-01 1.077564e+00 1.089608e+00 1.137845e+00 1.135580e+00 1.198310e+00 1.182869e+00 1.253442e+00 1.177104e+00 5.252258e-01 1.581591e-01 -2.857925e-01 -7.056827e-01 -1.172155e+00 -1.479313e+00 -2.184483e+00 -2.214533e+00 -2.169071e+00 -2.161738e+00 -2.116745e+00 -2.105103e+00 -2.058941e+00 -2.044138e+00 -1.999384e+00 -1.985258e+00 -1.944875e+00 -1.932060e+00 -1.895070e+00 -1.881068e+00 -1.844339e+00 -1.825861e+00 -1.787175e+00 -1.764596e+00 -1.726498e+00 -1.703896e+00 -1.669154e+00 -1.647788e+00 -1.615030e+00 -1.592793e+00 -1.559220e+00 -1.534996e+00 -1.500772e+00 -1.476576e+00 -1.443353e+00 -1.420376e+00 -1.388215e+00 -1.366740e+00 -1.336161e+00 -1.317863e+00 -1.290605e+00 -1.279285e+00 -1.267014e+00 -1.322660e+00 -1.355267e+00 -1.360184e+00 -1.374248e+00 -1.279669e+00 -1.128007e+00 -1.130145e+00 -1.146888e+00 -1.164651e+00 -1.186172e+00 -1.198104e+00 -1.165443e+00 -1.116666e+00 -8.981506e-01 -7.670323e-01 -7.109654e-01 -6.881190e-01 -6.326107e-01 -6.134818e-01 -5.661536e-01 -5.529924e-01 -5.116232e-01 -4.997504e-01 -4.598217e-01 -4.454099e-01 -4.043334e-01 -3.857107e-01 -3.432490e-01 -3.220310e-01 -2.809083e-01 -2.603958e-01 -2.224073e-01 -2.033361e-01 -1.668434e-01 -1.475966e-01 -1.098284e-01 -8.924423e-02 -4.852599e-02 -2.693225e-02 1.693363e-02 3.754543e-02 8.278028e-02 9.907349e-02 1.439926e-01 1.549418e-01 2.006678e-01 2.076285e-01 2.557610e-01 2.600584e-01 3.116530e-01 3.148432e-01 3.702603e-01 3.726631e-01 4.301465e-01 4.312940e-01 4.891888e-01 4.896964e-01 5.469248e-01 5.475603e-01 6.031277e-01 6.053337e-01 6.599617e-01 6.653357e-01 7.210594e-01 7.223685e-01 7.967185e-01 8.283929e-01 8.553208e-01 8.613061e-01 8.935373e-01 8.919898e-01 
7.848878e-01 7.905993e-01 8.231712e-01 8.299420e-01 8.673216e-01 8.797030e-01 9.284774e-01 9.370757e-01 9.860527e-01 9.885068e-01 1.040873e+00 1.037320e+00 1.091272e+00 1.079063e+00 2.944147e-01 2.062349e-01 -5.217977e-01 -6.341390e-01 -1.363982e+00 -1.445300e+00 -2.231399e+00 -2.241018e+00 -2.187864e+00 -2.190940e+00 -2.138053e+00 -2.137344e+00 -2.083686e+00 -2.080142e+00 -2.027836e+00 -2.024193e+00 -1.975513e+00 -1.972088e+00 -1.926336e+00 -1.921202e+00 -1.876141e+00 -1.866952e+00 -1.821064e+00 -1.808179e+00 -1.763349e+00 -1.749854e+00 -1.708148e+00 -1.695131e+00 -1.655559e+00 -1.641548e+00 -1.601915e+00 -1.586011e+00 -1.546214e+00 -1.529770e+00 -1.490800e+00 -1.474572e+00 -1.436238e+00 -1.420380e+00 -1.382899e+00 -1.368465e+00 -1.332769e+00 -1.321832e+00 -1.290244e+00 -1.287510e+00 -1.255263e+00 -1.240461e+00 -1.200153e+00 -1.168522e+00 -1.112456e+00 -1.088049e+00 -1.042921e+00 -1.023312e+00 -9.830595e-01 -9.675904e-01 -9.182852e-01 -8.942162e-01 -8.283751e-01 -8.134312e-01 -7.656064e-01 -7.515457e-01 -7.020532e-01 -6.887477e-01 -6.440303e-01 -6.337146e-01 -5.931741e-01 -5.827373e-01 -5.433798e-01 -5.300012e-01 -4.900331e-01 -4.725279e-01 -4.319344e-01 -4.117202e-01 -3.727030e-01 -3.525250e-01 -3.164912e-01 -2.971180e-01 -2.627255e-01 -2.430588e-01 -2.079890e-01 -1.872360e-01 -1.499515e-01 -1.284503e-01 -8.857043e-02 -6.796378e-02 -2.666659e-02 -9.618296e-03 3.191862e-02 4.454811e-02 8.725427e-02 9.653832e-02 1.416238e-01 1.485850e-01 1.966045e-01 2.024280e-01 2.533573e-01 2.585212e-01 3.108087e-01 3.152934e-01 3.673337e-01 3.718721e-01 4.224256e-01 4.279289e-01 4.759264e-01 4.839974e-01 5.296133e-01 5.423792e-01 5.856965e-01 6.036243e-01 6.441147e-01 6.704094e-01 7.030898e-01 7.165012e-01 7.467378e-01 7.544611e-01 
9.299001e-01 9.305757e-01 9.789200e-01 9.784933e-01 1.031302e+00 1.031024e+00 1.090498e+00 1.090862e+00 1.150555e+00 1.148741e+00 1.210967e+00 1.206629e+00 1.270823e+00 1.265179e+00 4.093758e-01 3.216067e-01 -4.739068e-01 -5.854134e-01 -1.387311e+00 -1.459531e+00 -2.330604e+00 -2.315613e+00 -2.271032e+00 -2.255891e+00 -2.211432e+00 -2.195883e+00 -2.151660e+00 -2.135602e+00 -2.092295e+00 -2.076012e+00 -2.034265e+00 -2.017615e+00 -1.977357e+00 -1.959688e+00 -1.920374e+00 -1.901028e+00 -1.862281e+00 -1.841317e+00 -1.803442e+00 -1.781569e+00 -1.744911e+00 -1.722521e+00 -1.686783e+00 -1.663764e+00 -1.628371e+00 -1.604717e+00 -1.569484e+00 -1.545622e+00 -1.510629e+00 -1.486925e+00 -1.452079e+00 -1.428693e+00 -1.393839e+00 -1.370809e+00 -1.335622e+00 -1.312466e+00 -1.275947e+00 -1.250217e+00 -1.209348e+00 -1.187425e+00 -1.144256e+00 -1.118520e+00 -1.076097e+00 -1.051023e+00 -1.007696e+00 -9.879787e-01 -9.443983e-01 -9.262243e-01 -8.848472e-01 -8.659738e-01 -8.197782e-01 -8.008794e-01 -7.527013e-01 -7.334683e-01 -6.855735e-01 -6.673094e-01 -6.212659e-01 -6.041931e-01 -5.600321e-01 -5.432306e-01 -5.001599e-01 -4.826128e-01 -4.399592e-01 -4.211831e-01 -3.787864e-01 -3.590973e-01 -3.173058e-01 -2.974344e-01 -2.563989e-01 -2.367398e-01 -1.959444e-01 -1.764895e-01 -1.350893e-01 -1.158881e-01 -7.320644e-02 -5.465602e-02 -1.040620e-02 6.721679e-03 5.241443e-02 6.721283e-02 1.142057e-01 1.262589e-01 1.747990e-01 1.842920e-01 2.347243e-01 2.420953e-01 2.945812e-01 3.003851e-01 3.547678e-01 3.594478e-01 4.151187e-01 4.190394e-01 4.752553e-01 4.789147e-01 5.349969e-01 5.389423e-01 5.943622e-01 5.991795e-01 6.537692e-01 6.599063e-01 7.136513e-01 7.210498e-01 7.736262e-01 7.834479e-01 8.300627e-01 8.362734e-01 8.812277e-01 8.841657e-01 
7.863594e-01 7.961829e-01 8.337158e-01 8.434341e-01 8.837366e-01 8.940840e-01 9.378962e-01 9.483476e-01 9.944408e-01 1.005457e+00 1.053124e+00 1.066819e+00 1.114884e+00 1.135504e+00 2.770418e-01 2.669655e-01 -5.651989e-01 -5.864451e-01 -1.418386e+00 -1.427988e+00 -2.285273e+00 -2.265223e+00 -2.215603e+00 -2.203226e+00 -2.152911e+00 -2.144203e+00 -2.093785e+00 -2.086597e+00 -2.036792e+00 -2.030082e+00 -1.981494e+00 -1.974519e+00 -1.927314e+00 -1.919363e+00 -1.873386e+00 -1.863929e+00 -1.819045e+00 -1.808032e+00 -1.764384e+00 -1.752162e+00 -1.709855e+00 -1.696652e+00 -1.655428e+00 -1.641248e+00 -1.600701e+00 -1.585622e+00 -1.545539e+00 -1.529847e+00 -1.490117e+00 -1.474015e+00 -1.434412e+00 -1.417950e+00 -1.378218e+00 -1.361334e+00 -1.321125e+00 -1.303327e+00 -1.261801e+00 -1.241307e+00 -1.197375e+00 -1.180788e+00 -1.135916e+00 -1.118509e+00 -1.075055e+00 -1.058601e+00 -1.012469e+00 -9.982469e-01 -9.520902e-01 -9.374753e-01 -8.940977e-01 -8.785817e-01 -8.352325e-01 -8.209285e-01 -7.750100e-01 -7.604664e-01 -7.151111e-01 -7.008842e-01 -6.569190e-01 -6.429235e-01 -6.005001e-01 -5.860797e-01 -5.447885e-01 -5.292227e-01 -4.886703e-01 -4.716505e-01 -4.317749e-01 -4.135806e-01 -3.745987e-01 -3.558011e-01 -3.177400e-01 -2.987274e-01 -2.611511e-01 -2.420919e-01 -2.043322e-01 -1.854521e-01 -1.469254e-01 -1.286529e-01 -8.898913e-02 -7.192411e-02 -3.098084e-02 -1.573649e-02 2.656816e-02 3.968568e-02 8.353510e-02 9.459185e-02 1.401076e-01 1.493840e-01 1.964842e-01 2.044276e-01 2.527948e-01 2.599357e-01 3.089876e-01 3.159195e-01 3.649383e-01 3.723172e-01 4.205251e-01 4.289607e-01 4.756229e-01 4.856719e-01 5.303051e-01 5.423573e-01 5.846861e-01 5.985891e-01 6.384357e-01 6.532626e-01 6.905309e-01 7.034675e-01 7.393803e-01 7.503449e-01 
9.306834e-01 9.325647e-01 9.829859e-01 9.839545e-01 1.037392e+00 1.038155e+00 1.094942e+00 1.096018e+00 1.154829e+00 1.156554e+00 1.216945e+00 1.221038e+00 1.282079e+00 1.292645e+00 3.918635e-01 3.616839e-01 -5.072267e-01 -5.493697e-01 -1.423140e+00 -1.442501e+00 -2.357128e+00 -2.327158e+00 -2.284666e+00 -2.262056e+00 -2.219029e+00 -2.199839e+00 -2.156859e+00 -2.139015e+00 -2.096474e+00 -2.078846e+00 -2.037048e+00 -2.019021e+00 -1.978194e+00 -1.959443e+00 -1.919709e+00 -1.900068e+00 -1.861432e+00 -1.840847e+00 -1.803216e+00 -1.781705e+00 -1.744891e+00 -1.722519e+00 -1.686282e+00 -1.663186e+00 -1.627314e+00 -1.603709e+00 -1.568013e+00 -1.544103e+00 -1.508323e+00 -1.484184e+00 -1.447957e+00 -1.423545e+00 -1.386466e+00 -1.361660e+00 -1.323287e+00 -1.297788e+00 -1.257458e+00 -1.230585e+00 -1.187637e+00 -1.163035e+00 -1.119601e+00 -1.096271e+00 -1.053779e+00 -1.031497e+00 -9.869429e-01 -9.665447e-01 -9.226890e-01 -9.034475e-01 -8.605239e-01 -8.419977e-01 -8.018289e-01 -7.871168e-01 -7.447673e-01 -7.283810e-01 -6.846232e-01 -6.674908e-01 -6.234883e-01 -6.060358e-01 -5.623653e-01 -5.445827e-01 -5.013516e-01 -4.830449e-01 -4.401932e-01 -4.212993e-01 -3.788197e-01 -3.595104e-01 -3.174093e-01 -2.979622e-01 -2.561078e-01 -2.367853e-01 -1.948816e-01 -1.759581e-01 -1.336532e-01 -1.154796e-01 -7.243768e-02 -5.539620e-02 -1.127520e-02 4.318258e-03 4.986477e-02 6.379066e-02 1.110360e-01 1.231472e-01 1.722072e-01 1.824253e-01 2.332391e-01 2.416026e-01 2.939744e-01 3.006966e-01 3.543590e-01 3.598587e-01 4.145173e-01 4.193598e-01 4.746518e-01 4.793689e-01 5.347847e-01 5.397282e-01 5.946741e-01 6.000417e-01 6.540344e-01 6.599428e-01 7.126672e-01 7.190823e-01 7.701875e-01 7.767741e-01 8.256658e-01 8.308882e-01 8.788002e-01 8.822166e-01 
7.863187e-01 7.961135e-01 8.335842e-01 8.433014e-01 8.835506e-01 8.939236e-01 9.376826e-01 9.481935e-01 9.942280e-01 1.005339e+00 1.052954e+00 1.066796e+00 1.114795e+00 1.135549e+00 2.772604e-01 2.671863e-01 -5.648117e-01 -5.862229e-01 -1.417991e+00 -1.427903e+00 -2.285044e+00 -2.265323e+00 -2.215681e+00 -2.203698e+00 -2.153533e+00 -2.145403e+00 -2.095354e+00 -2.088693e+00 -2.038968e+00 -2.032160e+00 -1.983004e+00 -1.975320e+00 -1.927285e+00 -1.918637e+00 -1.872285e+00 -1.862758e+00 -1.818302e+00 -1.807777e+00 -1.764894e+00 -1.753029e+00 -1.711147e+00 -1.697750e+00 -1.656502e+00 -1.641830e+00 -1.601223e+00 -1.585836e+00 -1.545904e+00 -1.530152e+00 -1.490566e+00 -1.474387e+00 -1.434538e+00 -1.417723e+00 -1.377134e+00 -1.359766e+00 -1.318398e+00 -1.300841e+00 -1.258706e+00 -1.241175e+00 -1.198088e+00 -1.181225e+00 -1.137283e+00 -1.120688e+00 -1.076082e+00 -1.059968e+00 -1.014785e+00 -9.996242e-01 -9.547451e-01 -9.404590e-01 -8.962992e-01 -8.824361e-01 -8.384713e-01 -8.246721e-01 -7.802293e-01 -7.658655e-01 -7.213533e-01 -7.065471e-01 -6.627217e-01 -6.476694e-01 -6.049996e-01 -5.894765e-01 -5.478259e-01 -5.313059e-01 -4.904177e-01 -4.727642e-01 -4.327393e-01 -4.142793e-01 -3.752252e-01 -3.562538e-01 -3.179106e-01 -2.985836e-01 -2.604976e-01 -2.411418e-01 -2.030278e-01 -1.843057e-01 -1.460173e-01 -1.285734e-01 -8.969596e-02 -7.371982e-02 -3.345775e-02 -1.879310e-02 2.354624e-02 3.688676e-02 8.139389e-02 9.310041e-02 1.393755e-01 1.491757e-01 1.966283e-01 2.045673e-01 2.527040e-01 2.594461e-01 3.081354e-01 3.148886e-01 3.639991e-01 3.717783e-01 4.205796e-01 4.297207e-01 4.769780e-01 4.874469e-01 5.321899e-01 5.441405e-01 5.861698e-01 5.997572e-01 6.392818e-01 6.538765e-01 6.909218e-01 7.037225e-01 7.394965e-01 7.503916e-01 
9.297710e-01 9.303746e-01 9.786124e-01 9.781394e-01 1.030858e+00 1.030571e+00 1.089976e+00 1.090435e+00 1.150123e+00 1.148492e+00 1.210759e+00 1.206700e+00 1.270890e+00 1.265505e+00 4.098511e-01 3.221304e-01 -4.732530e-01 -5.850162e-01 -1.386672e+00 -1.459367e+00 -2.330130e+00 -2.315701e+00 -2.271295e+00 -2.256754e+00 -2.212806e+00 -2.198242e+00 -2.154929e+00 -2.139821e+00 -2.096823e+00 -2.080301e+00 -2.037538e+00 -2.019445e+00 -1.977562e+00 -1.958391e+00 -1.918205e+00 -1.898487e+00 -1.860342e+00 -1.840061e+00 -1.803428e+00 -1.782019e+00 -1.746005e+00 -1.723103e+00 -1.687221e+00 -1.663179e+00 -1.627589e+00 -1.603223e+00 -1.568097e+00 -1.543834e+00 -1.508722e+00 -1.484329e+00 -1.448337e+00 -1.423379e+00 -1.385848e+00 -1.360460e+00 -1.321553e+00 -1.296445e+00 -1.256480e+00 -1.232063e+00 -1.190966e+00 -1.167473e+00 -1.125240e+00 -1.102518e+00 -1.059246e+00 -1.037434e+00 -9.935341e-01 -9.732427e-01 -9.297465e-01 -9.113367e-01 -8.686146e-01 -8.516173e-01 -8.090878e-01 -7.925415e-01 -7.490985e-01 -7.319237e-01 -6.876397e-01 -6.699342e-01 -6.256630e-01 -6.078714e-01 -5.642606e-01 -5.462731e-01 -5.031214e-01 -4.843080e-01 -4.412872e-01 -4.215886e-01 -3.790006e-01 -3.589611e-01 -3.170764e-01 -2.970046e-01 -2.555156e-01 -2.354323e-01 -1.938272e-01 -1.740322e-01 -1.321655e-01 -1.134906e-01 -7.145643e-02 -5.466084e-02 -1.205410e-02 2.883035e-03 4.718993e-02 6.083201e-02 1.078661e-01 1.203493e-01 1.701717e-01 1.809623e-01 2.329403e-01 2.414426e-01 2.947693e-01 3.007365e-01 3.548545e-01 3.589141e-01 4.140109e-01 4.176480e-01 4.740546e-01 4.784234e-01 5.355465e-01 5.406982e-01 5.971035e-01 6.025558e-01 6.572091e-01 6.630280e-01 7.161266e-01 7.228967e-01 7.748897e-01 7.843491e-01 8.306083e-01 8.366172e-01 8.813551e-01 8.841781e-01 
7.845013e-01 7.901792e-01 8.226302e-01 8.294016e-01 8.666570e-01 8.790861e-01 9.277226e-01 9.364934e-01 9.852472e-01 9.879171e-01 1.040210e+00 1.037362e+00 1.091321e+00 1.079880e+00 2.956298e-01 2.075958e-01 -5.199927e-01 -6.329182e-01 -1.362103e+00 -1.444856e+00 -2.229512e+00 -2.240911e+00 -2.187146e+00 -2.190932e+00 -2.138311e+00 -2.140273e+00 -2.089750e+00 -2.090079e+00 -2.039461e+00 -2.035470e+00 -1.983529e+00 -1.975494e+00 -1.924378e+00 -1.914696e+00 -1.867118e+00 -1.857990e+00 -1.815254e+00 -1.806594e+00 -1.766763e+00 -1.756017e+00 -1.716032e+00 -1.701412e+00 -1.660112e+00 -1.642710e+00 -1.601906e+00 -1.584811e+00 -1.546344e+00 -1.530778e+00 -1.493773e+00 -1.478359e+00 -1.440170e+00 -1.422663e+00 -1.381377e+00 -1.362071e+00 -1.319496e+00 -1.301324e+00 -1.259384e+00 -1.243025e+00 -1.200952e+00 -1.185239e+00 -1.141687e+00 -1.125310e+00 -1.079246e+00 -1.061961e+00 -1.014612e+00 -9.985358e-01 -9.528500e-01 -9.402145e-01 -8.974113e-01 -8.871223e-01 -8.446339e-01 -8.329416e-01 -7.880248e-01 -7.733130e-01 -7.266180e-01 -7.104479e-01 -6.648870e-01 -6.496756e-01 -6.073054e-01 -5.927840e-01 -5.518014e-01 -5.348735e-01 -4.932461e-01 -4.736509e-01 -4.330469e-01 -4.131399e-01 -3.750542e-01 -3.552852e-01 -3.184758e-01 -2.975260e-01 -2.600713e-01 -2.377679e-01 -1.998867e-01 -1.787444e-01 -1.423529e-01 -1.249788e-01 -9.007065e-02 -7.580822e-02 -3.899766e-02 -2.486237e-02 1.714992e-02 3.195219e-02 7.871710e-02 9.216144e-02 1.415594e-01 1.517007e-01 2.014810e-01 2.067565e-01 2.551908e-01 2.567005e-01 3.055543e-01 3.080676e-01 3.601933e-01 3.670275e-01 4.213613e-01 4.313439e-01 4.830755e-01 4.933496e-01 5.389917e-01 5.502228e-01 5.910934e-01 6.068842e-01 6.459222e-01 6.714698e-01 7.035417e-01 7.166636e-01 7.466149e-01 7.542330e-01 
9.270827e-01 9.218609e-01 9.605576e-01 9.535929e-01 9.967222e-01 9.892524e-01 1.075821e+00 1.088112e+00 1.136523e+00 1.134709e+00 1.197927e+00 1.183426e+00 1.254638e+00 1.178964e+00 5.270555e-01 1.604417e-01 -2.837904e-01 -7.045354e-01 -1.170301e+00 -1.478759e+00 -2.182068e+00 -2.213132e+00 -2.168139e+00 -2.161182e+00 -2.117350e+00 -2.109045e+00 -2.067643e+00 -2.058025e+00 -2.016007e+00 -2.001519e+00 -1.957058e+00 -1.937998e+00 -1.893669e+00 -1.873097e+00 -1.832381e+00 -1.813274e+00 -1.778032e+00 -1.760385e+00 -1.728215e+00 -1.708731e+00 -1.675826e+00 -1.652222e+00 -1.617199e+00 -1.590773e+00 -1.555952e+00 -1.530515e+00 -1.498251e+00 -1.475257e+00 -1.444440e+00 -1.422000e+00 -1.389164e+00 -1.364193e+00 -1.326800e+00 -1.299656e+00 -1.260274e+00 -1.235031e+00 -1.196474e+00 -1.174192e+00 -1.135569e+00 -1.114318e+00 -1.073676e+00 -1.051805e+00 -1.007481e+00 -9.850799e-01 -9.395265e-01 -9.192467e-01 -8.759871e-01 -8.607183e-01 -8.209056e-01 -8.089965e-01 -7.687887e-01 -7.549168e-01 -7.112078e-01 -6.939323e-01 -6.474204e-01 -6.287354e-01 -5.830710e-01 -5.661480e-01 -5.238719e-01 -5.083486e-01 -4.668968e-01 -4.486726e-01 -4.053389e-01 -3.842225e-01 -3.414100e-01 -3.206382e-01 -2.804673e-01 -2.605808e-01 -2.215776e-01 -2.007729e-01 -1.606458e-01 -1.385462e-01 -9.775140e-02 -7.735748e-02 -3.849718e-02 -2.288838e-02 1.390509e-02 2.580688e-02 6.478382e-02 7.709043e-02 1.225244e-01 1.364373e-01 1.876795e-01 2.004877e-01 2.547470e-01 2.638053e-01 3.183169e-01 3.213672e-01 3.740191e-01 3.720085e-01 4.252609e-01 4.239132e-01 4.818830e-01 4.851692e-01 5.470135e-01 5.530239e-01 6.129243e-01 6.173670e-01 6.714197e-01 6.742414e-01 7.263958e-01 7.246762e-01 7.973154e-01 8.286481e-01 8.552131e-01 8.610906e-01 8.931452e-01 8.915428e-01 
7.816195e-01 7.710853e-01 7.879363e-01 7.734819e-01 7.871966e-01 7.624398e-01 8.193264e-01 8.506081e-01 8.322918e-01 8.642421e-01 8.518286e-01 8.827582e-01 8.686214e-01 8.324969e-01 6.384426e-01 5.357352e-01 3.960769e-01 2.707297e-01 1.313350e-01 3.367798e-02 -1.610198e-01 -2.062172e-01 -1.917435e-01 -1.924162e-01 -1.752764e-01 -1.763920e-01 -1.563409e-01 -1.582634e-01 -1.368282e-01 -1.409693e-01 -1.191622e-01 -1.250627e-01 -1.021354e-01 -1.083310e-01 -8.354657e-02 -8.905713e-02 -6.254059e-02 -6.751773e-02 -4.069919e-02 -4.640656e-02 -2.114175e-02 -2.852841e-02 -5.479782e-03 -1.381953e-02 8.275979e-03 8.509594e-04 2.337028e-02 1.761392e-02 4.051059e-02 3.581443e-02 5.827764e-02 5.366969e-02 7.519112e-02 7.065752e-02 9.209942e-02 8.845579e-02 1.104254e-01 1.073920e-01 1.293965e-01 1.268413e-01 1.486555e-01 1.457494e-01 1.673581e-01 1.631605e-01 1.835530e-01 1.793365e-01 2.003249e-01 1.974177e-01 2.202318e-01 2.186491e-01 2.427237e-01 2.414161e-01 2.643635e-01 2.614615e-01 2.835593e-01 2.800003e-01 3.026602e-01 2.997586e-01 3.240709e-01 3.218424e-01 3.470883e-01 3.440771e-01 3.691871e-01 3.649966e-01 3.904031e-01 3.858684e-01 4.119847e-01 4.071759e-01 4.330556e-01 4.271459e-01 4.514583e-01 4.443377e-01 4.670675e-01 4.603296e-01 4.826494e-01 4.781499e-01 5.003459e-01 4.981855e-01 5.188232e-01 5.178960e-01 5.357539e-01 5.358893e-01 5.514118e-01 5.532313e-01 5.674357e-01 5.712315e-01 5.854389e-01 5.912830e-01 6.067066e-01 6.131004e-01 6.292797e-01 6.329148e-01 6.492466e-01 6.478318e-01 6.659184e-01 6.593468e-01 6.824800e-01 6.711678e-01 7.022930e-01 6.844584e-01 7.265135e-01 6.891874e-01 7.683823e-01 7.650483e-01 7.715643e-01 7.600230e-01 7.743458e-01 7.645128e-01 
9.259651e-01 9.073139e-01 9.310936e-01 9.118848e-01 9.296887e-01 9.055578e-01 9.291008e-01 9.458954e-01 9.270292e-01 9.583648e-01 9.329108e-01 9.732857e-01 9.450978e-01 9.716411e-01 8.874722e-01 8.953698e-01 8.322456e-01 8.319734e-01 7.719908e-01 7.767338e-01 6.997736e-01 7.151883e-01 7.033534e-01 7.254623e-01 7.149184e-01 7.332407e-01 7.273988e-01 7.420406e-01 7.382263e-01 7.457057e-01 7.419433e-01 7.431246e-01 7.418259e-01 7.403743e-01 7.444421e-01 7.435003e-01 7.538971e-01 7.534952e-01 7.670459e-01 7.639036e-01 7.761144e-01 7.679346e-01 7.771445e-01 7.656380e-01 7.745955e-01 7.642636e-01 7.759178e-01 7.685765e-01 7.821822e-01 7.760089e-01 7.884606e-01 7.803885e-01 7.894730e-01 7.796556e-01 7.879337e-01 7.798072e-01 7.896871e-01 7.835348e-01 7.938014e-01 7.881832e-01 7.973456e-01 7.901788e-01 7.971314e-01 7.871616e-01 7.920461e-01 7.824957e-01 7.898361e-01 7.843719e-01 7.967349e-01 7.946075e-01 8.090702e-01 8.057040e-01 8.172186e-01 8.092515e-01 8.186201e-01 8.083541e-01 8.196575e-01 8.106436e-01 8.267756e-01 8.187550e-01 8.372224e-01 8.258739e-01 8.437002e-01 8.284412e-01 8.476219e-01 8.314886e-01 8.538082e-01 8.373064e-01 8.607412e-01 8.419284e-01 8.634706e-01 8.420758e-01 8.618371e-01 8.415635e-01 8.622982e-01 8.471938e-01 8.691916e-01 8.587932e-01 8.777734e-01 8.683258e-01 8.802362e-01 8.707505e-01 8.765601e-01 8.693620e-01 8.721350e-01 8.690552e-01 8.722059e-01 8.744816e-01 8.809711e-01 8.860809e-01 8.942248e-01 8.946122e-01 9.014810e-01 8.917804e-01 8.999318e-01 8.810134e-01 8.979382e-01 8.730317e-01 9.043009e-01 8.720720e-01 9.171220e-01 8.697020e-01 9.329968e-01 8.928302e-01 9.211004e-01 8.923884e-01 9.205511e-01 8.991183e-01 
7.823045e-01 7.683121e-01 7.808708e-01 7.696578e-01 7.775378e-01 7.699392e-01 7.716786e-01 7.822575e-01 7.675217e-01 7.886063e-01 7.663549e-01 7.903011e-01 7.674242e-01 7.867136e-01 7.706577e-01 7.881283e-01 7.770619e-01 7.901009e-01 7.846074e-01 7.916985e-01 7.909767e-01 7.913426e-01 7.906894e-01 7.904313e-01 7.914436e-01 7.904524e-01 7.942385e-01 7.914705e-01 7.970170e-01 7.906558e-01 7.972696e-01 7.874819e-01 7.961061e-01 7.843448e-01 7.960392e-01 7.836496e-01 7.986057e-01 7.857629e-01 8.025004e-01 7.881130e-01 8.045817e-01 7.879021e-01 8.031444e-01 7.850024e-01 7.998973e-01 7.822986e-01 7.979622e-01 7.818590e-01 7.979274e-01 7.826144e-01 7.976528e-01 7.818043e-01 7.948136e-01 7.784714e-01 7.904924e-01 7.750817e-01 7.871230e-01 7.728126e-01 7.843164e-01 7.707008e-01 7.810001e-01 7.667547e-01 7.757589e-01 7.609547e-01 7.694402e-01 7.563438e-01 7.668058e-01 7.568340e-01 7.701810e-01 7.621334e-01 7.762555e-01 7.676076e-01 7.800127e-01 7.690144e-01 7.802869e-01 7.681909e-01 7.805841e-01 7.690313e-01 7.839099e-01 7.725282e-01 7.887099e-01 7.753676e-01 7.914474e-01 7.757323e-01 7.924672e-01 7.757825e-01 7.939713e-01 7.768959e-01 7.956487e-01 7.777111e-01 7.954754e-01 7.768316e-01 7.932117e-01 7.756943e-01 7.913957e-01 7.770264e-01 7.918161e-01 7.807549e-01 7.926435e-01 7.836065e-01 7.908058e-01 7.834219e-01 7.863477e-01 7.814427e-01 7.816961e-01 7.797686e-01 7.793329e-01 7.803117e-01 7.810516e-01 7.830225e-01 7.850249e-01 7.838781e-01 7.868215e-01 7.793686e-01 7.852556e-01 7.711319e-01 7.839082e-01 7.640902e-01 7.863803e-01 7.606193e-01 7.913627e-01 7.593368e-01 7.945120e-01 7.630761e-01 7.873557e-01 7.642161e-01 7.837601e-01 7.661457e-01 
