# vtk DataFile Version 2.0
Comment goes here
ASCII

DATASET STRUCTURED_POINTS
FIELD FieldData 1
TIME 1 1 double
0.29000000
DIMENSIONS    128   16   1

ORIGIN    0.000   0.000   0.000
SPACING   0.0078125 0.015625   1.000

POINT_DATA   2048
SCALARS uMag double
LOOKUP_TABLE default

2.111090e-03 3.088097e-03 1.334016e-03 3.223136e-03 7.424254e-04 6.248626e-03 4.830080e-03 1.183721e-03 3.347660e-03 2.279370e-03 1.844133e-03 9.247907e-03 1.281623e-02 2.144254e-02 2.527742e-02 2.915221e-02 2.827431e-02 3.038583e-02 2.726711e-02 2.602053e-02 2.129250e-02 1.380727e-02 8.074314e-03 3.938537e-03 1.002282e-03 5.898654e-04 1.964646e-03 2.680626e-03 3.122912e-03 3.692750e-03 3.484181e-03 4.218294e-03 3.535999e-03 4.527172e-03 3.494564e-03 4.694067e-03 3.413593e-03 4.707416e-03 3.308862e-03 4.614628e-03 3.269780e-03 4.500748e-03 3.349949e-03 4.397843e-03 3.517370e-03 4.265531e-03 3.686914e-03 4.048764e-03 3.788936e-03 3.737821e-03 3.801639e-03 3.330804e-03 3.660796e-03 2.725908e-03 3.117183e-03 1.509402e-03 1.506716e-03 1.107357e-03 1.986095e-04 1.334972e-03 2.384017e-03 6.142142e-03 3.170204e-03 2.698761e-03 3.793834e-03 5.967409e-03 5.707577e-03 4.012600e-03 2.299557e-03 4.200090e-03 7.939061e-03 3.315182e-03 1.301571e-03 3.152555e-03 2.412977e-03 3.631241e-03 2.774613e-03 3.758845e-03 2.918274e-03 3.678020e-03 3.009422e-03 3.445006e-03 3.089286e-03 3.141336e-03 3.215276e-03 2.866935e-03 3.420519e-03 2.666209e-03 3.673597e-03 2.525850e-03 3.888965e-03 2.413006e-03 3.993251e-03 2.326234e-03 3.958242e-03 2.310866e-03 3.820245e-03 2.449801e-03 3.623665e-03 2.739266e-03 3.312914e-03 3.094065e-03 2.876267e-03 3.483677e-03 2.380811e-03 3.901066e-03 1.927762e-03 4.307290e-03 1.571578e-03 4.591498e-03 1.347059e-03 4.674709e-03 1.338244e-03 4.503956e-03 1.592785e-03 4.043272e-03 2.149355e-03 3.307475e-03 2.986828e-03 2.372573e-03 4.089049e-03 1.545543e-03 5.714673e-03 8.147051e-04 1.934108e-03 1.256957e-03 1.997107e-03 2.519361e-03 
5.817080e-04 1.183938e-03 1.089504e-03 7.958587e-04 4.320566e-03 5.952223e-03 6.145575e-03 1.711991e-03 5.395211e-03 5.379777e-03 7.824067e-03 1.110660e-02 1.267677e-02 1.246832e-02 9.228148e-03 3.860198e-03 5.040955e-03 3.503881e-03 5.908689e-03 6.898683e-03 1.230869e-02 1.337995e-02 9.872832e-03 7.245207e-03 4.675138e-03 3.321190e-03 2.372698e-03 1.800506e-03 1.305222e-03 1.381096e-03 6.953024e-04 1.317832e-03 3.450172e-04 1.352680e-03 2.120488e-04 1.435062e-03 1.058550e-04 1.422598e-03 1.261415e-04 1.326573e-03 1.976164e-04 1.197551e-03 2.816805e-04 1.051473e-03 4.054392e-04 8.475059e-04 5.332225e-04 5.480832e-04 6.766373e-04 2.776734e-04 9.753452e-04 1.079694e-03 1.819113e-03 2.722185e-03 3.955069e-03 6.038102e-03 7.198455e-03 7.233830e-03 4.071196e-03 6.893095e-03 1.520893e-02 2.844148e-03 2.093313e-02 1.581030e-02 8.790690e-03 5.502049e-03 5.162188e-03 8.685215e-03 1.849621e-02 2.312711e-02 1.774617e-03 1.383167e-02 3.047124e-03 2.670026e-03 1.897006e-03 1.704225e-03 1.324573e-03 1.544460e-03 8.284721e-04 1.094026e-03 2.938488e-04 5.569086e-04 1.903045e-04 2.495540e-04 2.701409e-04 5.158170e-04 1.771431e-04 7.593225e-04 2.375610e-04 8.508986e-04 5.281863e-04 8.492173e-04 6.806270e-04 9.779524e-04 5.598988e-04 1.142939e-03 3.281991e-04 1.056140e-03 3.865294e-04 7.158333e-04 4.901279e-04 3.998191e-04 6.308775e-04 5.089902e-04 1.038107e-03 7.545367e-04 1.510113e-03 1.029666e-03 1.886698e-03 1.246760e-03 2.132678e-03 1.316711e-03 2.158491e-03 1.201537e-03 1.963554e-03 9.148634e-04 1.532479e-03 8.440137e-04 1.021490e-03 1.533047e-03 1.169413e-03 2.715860e-03 3.073336e-03 5.150430e-03 2.168852e-03 1.278118e-03 1.317514e-03 4.634625e-04 
3.810750e-03 4.287685e-03 1.027669e-03 4.269816e-03 1.137657e-02 1.532074e-02 1.166978e-02 7.249394e-03 4.587007e-03 4.658696e-03 2.454051e-03 4.477800e-04 4.226630e-03 7.717380e-03 9.086237e-03 1.032372e-02 9.304130e-03 1.064804e-02 9.217258e-03 8.958713e-03 7.911795e-03 2.729183e-03 1.908265e-03 4.062140e-03 3.156599e-03 6.148488e-03 4.826189e-03 6.733824e-03 5.700206e-03 6.963638e-03 6.521083e-03 7.144011e-03 7.197690e-03 7.085441e-03 7.564677e-03 6.834393e-03 7.700193e-03 6.637397e-03 7.798100e-03 6.503178e-03 7.824891e-03 6.494205e-03 7.760656e-03 6.485538e-03 7.584732e-03 6.484259e-03 7.306516e-03 6.499279e-03 7.059273e-03 6.605632e-03 6.961990e-03 6.756057e-03 6.712896e-03 6.371876e-03 6.470699e-03 6.242648e-03 5.413641e-03 2.105617e-03 2.932114e-03 3.334919e-03 6.065404e-03 8.952371e-03 5.430180e-03 5.301036e-03 7.356855e-03 9.396687e-03 1.016594e-02 6.644870e-03 4.066214e-03 9.763357e-03 1.274009e-02 1.034051e-02 5.270893e-03 6.620699e-03 6.706626e-03 6.604746e-03 7.244715e-03 6.677815e-03 7.238442e-03 6.681035e-03 7.413754e-03 7.133992e-03 7.777804e-03 7.783090e-03 8.034381e-03 8.352429e-03 8.030029e-03 8.667422e-03 7.702615e-03 8.677133e-03 7.183569e-03 8.568902e-03 6.916598e-03 8.804706e-03 7.122969e-03 9.208202e-03 7.463234e-03 9.277492e-03 7.614356e-03 8.898495e-03 7.643442e-03 8.349035e-03 7.863463e-03 8.010341e-03 8.412342e-03 7.722034e-03 9.037025e-03 7.391316e-03 9.512697e-03 6.989747e-03 9.775049e-03 6.699250e-03 9.859393e-03 6.692916e-03 9.756671e-03 7.032739e-03 9.386057e-03 7.748588e-03 8.677658e-03 8.850771e-03 7.618516e-03 1.087981e-02 6.843962e-03 1.616821e-02 8.762015e-03 3.804993e-03 3.781437e-03 3.824917e-03 
5.674036e-03 7.499971e-03 1.067266e-02 1.962323e-02 1.163628e-02 2.390182e-02 1.589241e-02 1.206697e-02 1.736278e-02 1.106267e-02 1.742556e-02 1.095457e-02 1.765462e-02 1.330867e-02 1.904359e-02 1.568715e-02 1.869566e-02 1.686149e-02 1.757683e-02 1.738556e-02 1.505803e-02 1.614551e-02 1.309003e-02 1.569806e-02 1.286992e-02 1.548979e-02 1.288561e-02 1.531108e-02 1.294184e-02 1.520585e-02 1.317412e-02 1.511467e-02 1.347138e-02 1.492392e-02 1.373600e-02 1.468456e-02 1.388408e-02 1.438196e-02 1.391977e-02 1.405406e-02 1.395442e-02 1.383481e-02 1.396454e-02 1.360658e-02 1.385637e-02 1.335378e-02 1.364721e-02 1.308249e-02 1.338428e-02 1.276186e-02 1.297850e-02 1.223999e-02 1.213659e-02 1.126635e-02 1.073733e-02 9.624279e-03 8.461522e-03 6.673640e-03 8.638502e-03 8.085340e-03 9.528398e-03 8.650740e-03 9.808566e-03 9.601536e-03 1.199063e-02 1.140459e-02 1.191547e-02 1.210241e-02 1.059008e-02 1.243123e-02 9.424744e-03 8.082877e-03 7.881121e-03 1.045511e-02 1.097388e-02 1.200315e-02 1.237495e-02 1.286891e-02 1.311077e-02 1.325709e-02 1.364582e-02 1.359141e-02 1.409900e-02 1.389033e-02 1.437786e-02 1.414000e-02 1.447782e-02 1.432033e-02 1.441321e-02 1.439609e-02 1.424291e-02 1.439432e-02 1.413443e-02 1.455917e-02 1.412543e-02 1.479684e-02 1.409315e-02 1.496127e-02 1.409519e-02 1.504038e-02 1.402530e-02 1.504530e-02 1.391359e-02 1.513476e-02 1.393563e-02 1.519293e-02 1.407832e-02 1.517906e-02 1.420815e-02 1.496649e-02 1.423550e-02 1.469143e-02 1.435561e-02 1.445276e-02 1.457060e-02 1.423410e-02 1.488967e-02 1.409337e-02 1.529212e-02 1.397953e-02 1.602767e-02 1.385300e-02 1.800718e-02 1.313464e-02 2.359285e-02 1.819766e-02 1.182406e-02 6.625490e-03 
2.524684e-02 2.493259e-02 3.114370e-02 3.329997e-02 4.044333e-02 2.055310e-02 2.222717e-02 2.455472e-02 1.897510e-02 2.275593e-02 1.820131e-02 1.953599e-02 1.769454e-02 1.818386e-02 1.892403e-02 1.862489e-02 1.913666e-02 1.888022e-02 1.877187e-02 1.925035e-02 1.772310e-02 1.963136e-02 1.890958e-02 2.084836e-02 2.065016e-02 2.126157e-02 2.126228e-02 2.116807e-02 2.160968e-02 2.118675e-02 2.210856e-02 2.135743e-02 2.254816e-02 2.137215e-02 2.270345e-02 2.121453e-02 2.266171e-02 2.114938e-02 2.264231e-02 2.115122e-02 2.254616e-02 2.120394e-02 2.235934e-02 2.121565e-02 2.207399e-02 2.116987e-02 2.163316e-02 2.099075e-02 2.104099e-02 2.063640e-02 2.024148e-02 1.989768e-02 1.868309e-02 1.777502e-02 1.520985e-02 1.296713e-02 9.277975e-03 8.013756e-03 9.517622e-03 1.007743e-02 9.641142e-03 1.512923e-02 1.256065e-02 1.254197e-02 1.221378e-02 1.136263e-02 1.159475e-02 1.377650e-02 1.452935e-02 1.551296e-02 1.789708e-02 1.203912e-02 1.184426e-02 1.526238e-02 1.772887e-02 1.870358e-02 2.014983e-02 1.998002e-02 2.092610e-02 2.064390e-02 2.143464e-02 2.140226e-02 2.192884e-02 2.217007e-02 2.226567e-02 2.276653e-02 2.233957e-02 2.307388e-02 2.211443e-02 2.306655e-02 2.170922e-02 2.291152e-02 2.154319e-02 2.307254e-02 2.184472e-02 2.340827e-02 2.225224e-02 2.340292e-02 2.239340e-02 2.294266e-02 2.241928e-02 2.233947e-02 2.264553e-02 2.196853e-02 2.317918e-02 2.169748e-02 2.374126e-02 2.140129e-02 2.416902e-02 2.112283e-02 2.440525e-02 2.100105e-02 2.439757e-02 2.113211e-02 2.415068e-02 2.160307e-02 2.357690e-02 2.246921e-02 2.262976e-02 2.381747e-02 2.140065e-02 2.615233e-02 2.033222e-02 3.457665e-02 4.230409e-02 3.412357e-02 2.854237e-02 2.490235e-02 
3.038189e-02 3.138424e-02 3.437793e-02 3.870518e-02 4.557978e-02 4.798563e-02 4.189884e-02 4.160888e-02 4.063374e-02 3.905183e-02 3.839332e-02 3.579439e-02 3.504189e-02 3.448829e-02 3.488212e-02 3.459577e-02 3.478991e-02 3.473255e-02 3.461682e-02 3.486114e-02 3.439284e-02 3.502223e-02 3.692994e-02 3.936595e-02 3.927624e-02 4.116129e-02 4.033927e-02 4.183904e-02 4.098240e-02 4.215889e-02 4.163338e-02 4.239302e-02 4.218948e-02 4.242491e-02 4.251733e-02 4.226769e-02 4.264904e-02 4.207247e-02 4.269232e-02 4.188934e-02 4.268573e-02 4.181162e-02 4.261220e-02 4.171602e-02 4.241173e-02 4.158917e-02 4.207991e-02 4.141931e-02 4.166623e-02 4.118744e-02 4.113064e-02 4.073230e-02 4.017144e-02 3.950904e-02 3.839743e-02 3.729479e-02 3.542901e-02 3.473770e-02 3.522570e-02 3.653012e-02 3.441067e-02 3.573439e-02 3.502901e-02 3.710885e-02 3.645714e-02 3.641230e-02 3.548969e-02 3.596334e-02 3.574741e-02 3.257865e-02 3.420810e-02 3.333048e-02 3.568102e-02 3.797388e-02 3.911019e-02 3.974243e-02 4.066413e-02 4.065976e-02 4.134171e-02 4.121739e-02 4.186169e-02 4.184859e-02 4.235609e-02 4.249698e-02 4.271884e-02 4.303424e-02 4.285465e-02 4.334338e-02 4.270061e-02 4.340214e-02 4.236440e-02 4.338571e-02 4.219114e-02 4.360147e-02 4.233037e-02 4.391952e-02 4.255725e-02 4.403144e-02 4.262700e-02 4.381873e-02 4.259045e-02 4.344544e-02 4.271229e-02 4.320197e-02 4.307438e-02 4.302637e-02 4.352793e-02 4.285064e-02 4.389538e-02 4.257095e-02 4.409578e-02 4.233753e-02 4.421023e-02 4.227735e-02 4.421311e-02 4.242155e-02 4.407473e-02 4.284953e-02 4.381931e-02 4.363261e-02 4.368359e-02 4.506276e-02 4.452687e-02 4.841250e-02 4.244538e-02 3.600666e-02 3.261513e-02 3.063382e-02 
3.739613e-02 3.819398e-02 3.919373e-02 4.199927e-02 4.386541e-02 4.947728e-02 4.682723e-02 4.612967e-02 4.726052e-02 4.608141e-02 4.738831e-02 4.636128e-02 4.629480e-02 4.564014e-02 4.604025e-02 4.575305e-02 4.593937e-02 4.590362e-02 4.576085e-02 4.606350e-02 4.555620e-02 4.660445e-02 4.680378e-02 4.765473e-02 4.643892e-02 4.767251e-02 4.640807e-02 4.760688e-02 4.649394e-02 4.748935e-02 4.667629e-02 4.737272e-02 4.688796e-02 4.723433e-02 4.706702e-02 4.707067e-02 4.717774e-02 4.688665e-02 4.720881e-02 4.671215e-02 4.719649e-02 4.658918e-02 4.712994e-02 4.647342e-02 4.697849e-02 4.635370e-02 4.675796e-02 4.624084e-02 4.650740e-02 4.615148e-02 4.626204e-02 4.612229e-02 4.612134e-02 4.634663e-02 4.649485e-02 4.745109e-02 4.751162e-02 4.829571e-02 4.695711e-02 4.752236e-02 4.899545e-02 4.834452e-02 4.961338e-02 4.849441e-02 4.770645e-02 4.910130e-02 4.929197e-02 4.874347e-02 5.036004e-02 5.256877e-02 5.160858e-02 5.289704e-02 5.242363e-02 4.955355e-02 4.891733e-02 4.763345e-02 4.767935e-02 4.700213e-02 4.726179e-02 4.686932e-02 4.719866e-02 4.700650e-02 4.728237e-02 4.726318e-02 4.737980e-02 4.753411e-02 4.741354e-02 4.774542e-02 4.735158e-02 4.787740e-02 4.723848e-02 4.797983e-02 4.717238e-02 4.810678e-02 4.718587e-02 4.821882e-02 4.724477e-02 4.826103e-02 4.731440e-02 4.819653e-02 4.738156e-02 4.804844e-02 4.750162e-02 4.789546e-02 4.769612e-02 4.775353e-02 4.793913e-02 4.762399e-02 4.815248e-02 4.746450e-02 4.828073e-02 4.733689e-02 4.835873e-02 4.729905e-02 4.836583e-02 4.735699e-02 4.830640e-02 4.752122e-02 4.820032e-02 4.772481e-02 4.810196e-02 4.773657e-02 4.804562e-02 4.627378e-02 4.263782e-02 4.034158e-02 3.851004e-02 3.771403e-02 
3.711738e-02 3.794211e-02 3.836617e-02 4.024997e-02 4.106851e-02 4.356081e-02 4.358846e-02 4.490348e-02 4.572398e-02 4.694686e-02 4.870211e-02 5.040972e-02 5.235532e-02 5.205969e-02 5.224281e-02 5.208078e-02 5.216516e-02 5.214047e-02 5.209592e-02 5.221817e-02 5.206080e-02 5.240546e-02 4.903539e-02 4.838823e-02 4.606530e-02 4.640991e-02 4.480842e-02 4.545940e-02 4.429412e-02 4.495032e-02 4.415772e-02 4.465118e-02 4.419523e-02 4.443950e-02 4.428770e-02 4.426860e-02 4.438053e-02 4.413508e-02 4.445341e-02 4.404176e-02 4.449490e-02 4.399214e-02 4.449545e-02 4.397572e-02 4.445756e-02 4.400112e-02 4.441010e-02 4.409476e-02 4.440966e-02 4.430984e-02 4.455134e-02 4.476288e-02 4.501967e-02 4.570112e-02 4.616529e-02 4.753331e-02 4.782579e-02 4.868512e-02 4.731469e-02 4.734326e-02 4.723259e-02 4.541706e-02 4.646464e-02 4.769010e-02 4.801798e-02 4.877838e-02 4.922469e-02 4.791637e-02 4.792063e-02 4.765003e-02 4.537852e-02 4.823496e-02 4.810610e-02 4.602296e-02 4.597942e-02 4.490262e-02 4.511985e-02 4.445771e-02 4.474392e-02 4.434748e-02 4.462181e-02 4.444502e-02 4.461538e-02 4.464294e-02 4.462638e-02 4.485810e-02 4.459820e-02 4.503737e-02 4.451536e-02 4.516604e-02 4.441029e-02 4.526771e-02 4.434471e-02 4.537020e-02 4.434856e-02 4.544934e-02 4.440035e-02 4.545776e-02 4.447149e-02 4.537639e-02 4.456703e-02 4.523268e-02 4.471565e-02 4.507229e-02 4.491901e-02 4.490901e-02 4.514126e-02 4.474702e-02 4.533305e-02 4.459234e-02 4.545945e-02 4.447998e-02 4.550759e-02 4.443847e-02 4.545437e-02 4.446394e-02 4.527060e-02 4.451127e-02 4.490878e-02 4.444069e-02 4.426203e-02 4.394996e-02 4.307480e-02 4.225371e-02 4.026290e-02 3.917232e-02 3.782337e-02 3.754034e-02 
4.012403e-02 4.090703e-02 4.110533e-02 4.288214e-02 4.334853e-02 4.567993e-02 4.587361e-02 4.701131e-02 4.816610e-02 4.909332e-02 5.108533e-02 5.264187e-02 5.474975e-02 5.444898e-02 5.466989e-02 5.449183e-02 5.458004e-02 5.457967e-02 5.448544e-02 5.467883e-02 5.442516e-02 5.474987e-02 5.097166e-02 5.048429e-02 4.815917e-02 4.863745e-02 4.704522e-02 4.779833e-02 4.661595e-02 4.734493e-02 4.649665e-02 4.705391e-02 4.651792e-02 4.684146e-02 4.659893e-02 4.668356e-02 4.669999e-02 4.657519e-02 4.679677e-02 4.651204e-02 4.687177e-02 4.648919e-02 4.691766e-02 4.650822e-02 4.694969e-02 4.659113e-02 4.700914e-02 4.677696e-02 4.715978e-02 4.712869e-02 4.750474e-02 4.776541e-02 4.821976e-02 4.887763e-02 4.953136e-02 5.066481e-02 5.147217e-02 5.202094e-02 5.071404e-02 5.110027e-02 5.078149e-02 4.886652e-02 4.971117e-02 5.000952e-02 4.893211e-02 4.861528e-02 4.855761e-02 4.798843e-02 4.889747e-02 4.779776e-02 4.635963e-02 4.893422e-02 4.979037e-02 4.875312e-02 4.891307e-02 4.803825e-02 4.822595e-02 4.754770e-02 4.776387e-02 4.728459e-02 4.748440e-02 4.719688e-02 4.731469e-02 4.721840e-02 4.719384e-02 4.729427e-02 4.708595e-02 4.738696e-02 4.697912e-02 4.747688e-02 4.688351e-02 4.755866e-02 4.681813e-02 4.762636e-02 4.679245e-02 4.766409e-02 4.680562e-02 4.765777e-02 4.685615e-02 4.760323e-02 4.694497e-02 4.750892e-02 4.707269e-02 4.738867e-02 4.722832e-02 4.725282e-02 4.738992e-02 4.711242e-02 4.753037e-02 4.698090e-02 4.762915e-02 4.688145e-02 4.767344e-02 4.682394e-02 4.763896e-02 4.678681e-02 4.749133e-02 4.670594e-02 4.716647e-02 4.642949e-02 4.651102e-02 4.567182e-02 4.521510e-02 4.403308e-02 4.268649e-02 4.172383e-02 4.070646e-02 4.050548e-02 
3.711600e-02 3.794029e-02 3.836313e-02 4.024573e-02 4.106357e-02 4.355453e-02 4.358203e-02 4.489890e-02 4.571839e-02 4.694702e-02 4.869890e-02 5.041035e-02 5.235072e-02 5.205676e-02 5.224129e-02 5.208117e-02 5.216791e-02 5.214477e-02 5.210391e-02 5.222661e-02 5.207308e-02 5.241667e-02 4.903826e-02 4.839008e-02 4.607672e-02 4.642958e-02 4.485260e-02 4.550812e-02 4.435952e-02 4.499982e-02 4.420259e-02 4.466939e-02 4.419888e-02 4.443026e-02 4.427357e-02 4.427841e-02 4.440396e-02 4.422132e-02 4.456218e-02 4.423336e-02 4.469263e-02 4.426971e-02 4.476036e-02 4.432172e-02 4.479180e-02 4.443445e-02 4.485603e-02 4.466150e-02 4.501331e-02 4.503074e-02 4.530561e-02 4.557094e-02 4.579483e-02 4.632087e-02 4.651233e-02 4.722850e-02 4.732881e-02 4.792725e-02 4.757643e-02 4.788948e-02 4.766416e-02 4.761182e-02 4.760689e-02 4.784449e-02 4.773390e-02 4.778874e-02 4.777751e-02 4.754994e-02 4.752188e-02 4.717991e-02 4.685190e-02 4.683916e-02 4.690102e-02 4.623921e-02 4.637355e-02 4.566059e-02 4.588391e-02 4.525234e-02 4.551325e-02 4.503635e-02 4.526669e-02 4.498382e-02 4.509661e-02 4.502617e-02 4.494428e-02 4.510575e-02 4.478685e-02 4.519644e-02 4.463185e-02 4.529185e-02 4.450678e-02 4.538899e-02 4.442575e-02 4.546410e-02 4.438688e-02 4.549065e-02 4.438971e-02 4.545788e-02 4.444421e-02 4.537682e-02 4.456879e-02 4.526624e-02 4.475323e-02 4.512019e-02 4.496062e-02 4.493757e-02 4.515576e-02 4.473699e-02 4.531604e-02 4.455783e-02 4.543312e-02 4.444674e-02 4.549223e-02 4.442054e-02 4.545388e-02 4.445762e-02 4.527461e-02 4.450794e-02 4.491577e-02 4.444564e-02 4.427353e-02 4.395749e-02 4.308176e-02 4.225997e-02 4.026578e-02 3.917566e-02 3.782371e-02 3.754100e-02 
3.739436e-02 3.819261e-02 3.919075e-02 4.199420e-02 4.385919e-02 4.946636e-02 4.681582e-02 4.612222e-02 4.724759e-02 4.608833e-02 4.738459e-02 4.637207e-02 4.627631e-02 4.563602e-02 4.603530e-02 4.575664e-02 4.594550e-02 4.591630e-02 4.577877e-02 4.608446e-02 4.558226e-02 4.663138e-02 4.682304e-02 4.766277e-02 4.647307e-02 4.771260e-02 4.649788e-02 4.770217e-02 4.662921e-02 4.759550e-02 4.678156e-02 4.743167e-02 4.692633e-02 4.724967e-02 4.707460e-02 4.712756e-02 4.726777e-02 4.711764e-02 4.750287e-02 4.718804e-02 4.769646e-02 4.726054e-02 4.779587e-02 4.732854e-02 4.785132e-02 4.746631e-02 4.795527e-02 4.773158e-02 4.815541e-02 4.812578e-02 4.846522e-02 4.864906e-02 4.891707e-02 4.930080e-02 4.949276e-02 4.998477e-02 5.003371e-02 5.043307e-02 5.019787e-02 5.040806e-02 5.016547e-02 5.008948e-02 4.988053e-02 4.979171e-02 4.954302e-02 4.939601e-02 4.935691e-02 4.917614e-02 4.931685e-02 4.910641e-02 4.919833e-02 4.908752e-02 4.937529e-02 4.891464e-02 4.922621e-02 4.859862e-02 4.893400e-02 4.828891e-02 4.863370e-02 4.808464e-02 4.839612e-02 4.800832e-02 4.820060e-02 4.800356e-02 4.799989e-02 4.803088e-02 4.779490e-02 4.808149e-02 4.760046e-02 4.814975e-02 4.744539e-02 4.823352e-02 4.734202e-02 4.830468e-02 4.727966e-02 4.832420e-02 4.725262e-02 4.828583e-02 4.728065e-02 4.820703e-02 4.738933e-02 4.811135e-02 4.756970e-02 4.798203e-02 4.777519e-02 4.780588e-02 4.796450e-02 4.759658e-02 4.811365e-02 4.739478e-02 4.823206e-02 4.727670e-02 4.833376e-02 4.727069e-02 4.837293e-02 4.735169e-02 4.831783e-02 4.751536e-02 4.821686e-02 4.773862e-02 4.813184e-02 4.775300e-02 4.805955e-02 4.628593e-02 4.264102e-02 4.034705e-02 3.850937e-02 3.771569e-02 
3.037721e-02 3.137911e-02 3.436948e-02 3.869062e-02 4.556170e-02 4.795687e-02 4.187072e-02 4.158451e-02 4.061801e-02 3.907131e-02 3.840069e-02 3.580570e-02 3.501592e-02 3.447691e-02 3.487483e-02 3.459579e-02 3.479523e-02 3.474432e-02 3.464437e-02 3.489812e-02 3.445780e-02 3.507854e-02 3.685167e-02 3.923536e-02 3.920111e-02 4.116533e-02 4.051358e-02 4.209667e-02 4.134224e-02 4.243458e-02 4.184808e-02 4.243020e-02 4.210128e-02 4.221146e-02 4.225112e-02 4.207660e-02 4.252575e-02 4.221547e-02 4.298015e-02 4.252127e-02 4.333006e-02 4.268825e-02 4.335503e-02 4.263645e-02 4.317424e-02 4.262524e-02 4.311195e-02 4.289311e-02 4.329847e-02 4.335784e-02 4.355845e-02 4.384660e-02 4.384838e-02 4.432875e-02 4.416897e-02 4.480035e-02 4.452981e-02 4.520863e-02 4.486514e-02 4.546489e-02 4.508736e-02 4.556668e-02 4.521698e-02 4.549271e-02 4.524289e-02 4.538773e-02 4.533255e-02 4.533497e-02 4.544606e-02 4.526924e-02 4.548957e-02 4.503171e-02 4.535822e-02 4.464373e-02 4.498803e-02 4.405797e-02 4.444806e-02 4.350709e-02 4.397059e-02 4.323983e-02 4.375765e-02 4.330915e-02 4.366830e-02 4.344555e-02 4.346048e-02 4.350931e-02 4.315151e-02 4.354276e-02 4.281767e-02 4.362099e-02 4.262354e-02 4.381354e-02 4.254055e-02 4.396439e-02 4.246436e-02 4.397642e-02 4.238547e-02 4.384941e-02 4.235858e-02 4.368502e-02 4.257076e-02 4.362480e-02 4.295713e-02 4.348330e-02 4.332332e-02 4.318766e-02 4.359193e-02 4.277054e-02 4.376295e-02 4.236978e-02 4.393455e-02 4.218165e-02 4.414565e-02 4.223654e-02 4.424592e-02 4.243322e-02 4.408772e-02 4.281837e-02 4.382826e-02 4.366531e-02 4.374248e-02 4.510004e-02 4.454074e-02 4.843747e-02 4.245046e-02 3.601665e-02 3.261275e-02 3.063476e-02 
2.524319e-02 2.493222e-02 3.114091e-02 3.329110e-02 4.043621e-02 2.056322e-02 2.225340e-02 2.458805e-02 1.904744e-02 2.283361e-02 1.829186e-02 1.959147e-02 1.776757e-02 1.824813e-02 1.897394e-02 1.865613e-02 1.916464e-02 1.891093e-02 1.881692e-02 1.930495e-02 1.777928e-02 1.956399e-02 1.868744e-02 2.053191e-02 2.044559e-02 2.120774e-02 2.145998e-02 2.156212e-02 2.210754e-02 2.163970e-02 2.246232e-02 2.153040e-02 2.254620e-02 2.129399e-02 2.251671e-02 2.124218e-02 2.265974e-02 2.155177e-02 2.304323e-02 2.203938e-02 2.331993e-02 2.235738e-02 2.322914e-02 2.237983e-02 2.286460e-02 2.237130e-02 2.266176e-02 2.270601e-02 2.285218e-02 2.330066e-02 2.312461e-02 2.382868e-02 2.332575e-02 2.420151e-02 2.347665e-02 2.452285e-02 2.372725e-02 2.485269e-02 2.403888e-02 2.500036e-02 2.417174e-02 2.483304e-02 2.423850e-02 2.477448e-02 2.431917e-02 2.464528e-02 2.445742e-02 2.452827e-02 2.461123e-02 2.443309e-02 2.468408e-02 2.435111e-02 2.483785e-02 2.406779e-02 2.457810e-02 2.350909e-02 2.403116e-02 2.293048e-02 2.350296e-02 2.266695e-02 2.331351e-02 2.281798e-02 2.327420e-02 2.302870e-02 2.305337e-02 2.308879e-02 2.266678e-02 2.304980e-02 2.225028e-02 2.305857e-02 2.206906e-02 2.323943e-02 2.203269e-02 2.333301e-02 2.198936e-02 2.323597e-02 2.196174e-02 2.296068e-02 2.201290e-02 2.268109e-02 2.241376e-02 2.259222e-02 2.303360e-02 2.236578e-02 2.356650e-02 2.192362e-02 2.391031e-02 2.136148e-02 2.408492e-02 2.092623e-02 2.421005e-02 2.081919e-02 2.427988e-02 2.105251e-02 2.410938e-02 2.155844e-02 2.349147e-02 2.237019e-02 2.254061e-02 2.377724e-02 2.135495e-02 2.614487e-02 2.027405e-02 3.457778e-02 4.230108e-02 3.413271e-02 2.853567e-02 2.490391e-02 
5.669009e-03 7.507973e-03 1.067637e-02 1.962287e-02 1.160904e-02 2.385286e-02 1.582216e-02 1.200291e-02 1.725796e-02 1.103968e-02 1.737064e-02 1.093905e-02 1.758390e-02 1.327935e-02 1.899265e-02 1.568405e-02 1.866586e-02 1.687229e-02 1.757497e-02 1.741685e-02 1.510124e-02 1.625514e-02 1.311840e-02 1.570937e-02 1.290144e-02 1.553917e-02 1.292805e-02 1.537578e-02 1.305861e-02 1.515008e-02 1.322689e-02 1.487942e-02 1.337827e-02 1.456095e-02 1.347867e-02 1.431951e-02 1.370457e-02 1.426165e-02 1.408657e-02 1.424766e-02 1.436100e-02 1.416847e-02 1.446941e-02 1.406549e-02 1.449084e-02 1.396966e-02 1.455390e-02 1.399172e-02 1.468031e-02 1.409588e-02 1.474368e-02 1.421942e-02 1.480334e-02 1.436344e-02 1.485144e-02 1.445510e-02 1.482371e-02 1.445368e-02 1.473737e-02 1.443474e-02 1.467731e-02 1.445925e-02 1.453158e-02 1.413696e-02 1.419761e-02 1.389959e-02 1.407289e-02 1.397862e-02 1.429268e-02 1.428616e-02 1.469346e-02 1.444685e-02 1.478533e-02 1.448401e-02 1.479498e-02 1.439105e-02 1.467564e-02 1.425751e-02 1.455700e-02 1.421102e-02 1.459455e-02 1.431252e-02 1.463538e-02 1.442788e-02 1.457360e-02 1.453462e-02 1.448617e-02 1.463009e-02 1.438210e-02 1.469357e-02 1.430600e-02 1.481566e-02 1.423348e-02 1.495987e-02 1.415838e-02 1.505663e-02 1.406942e-02 1.509775e-02 1.395979e-02 1.514640e-02 1.388678e-02 1.524492e-02 1.392093e-02 1.525610e-02 1.401455e-02 1.518379e-02 1.410687e-02 1.503703e-02 1.412302e-02 1.482480e-02 1.415973e-02 1.463598e-02 1.438737e-02 1.448172e-02 1.470441e-02 1.432604e-02 1.500809e-02 1.415622e-02 1.546569e-02 1.404988e-02 1.621072e-02 1.395894e-02 1.810282e-02 1.319520e-02 2.360038e-02 1.818543e-02 1.181604e-02 6.613795e-03 
3.803148e-03 4.301395e-03 1.044606e-03 4.290895e-03 1.134460e-02 1.527705e-02 1.167290e-02 7.213558e-03 4.580983e-03 4.680939e-03 2.454158e-03 4.201652e-04 4.244979e-03 7.712620e-03 9.115879e-03 1.031829e-02 9.328609e-03 1.061757e-02 9.191756e-03 8.864673e-03 7.792472e-03 2.496380e-03 1.829977e-03 3.770084e-03 3.030771e-03 6.056492e-03 5.013473e-03 7.009040e-03 6.118557e-03 7.223227e-03 6.739423e-03 7.055013e-03 7.012417e-03 6.665469e-03 7.141529e-03 6.430321e-03 7.444084e-03 6.578928e-03 7.980016e-03 6.945545e-03 8.354636e-03 7.150900e-03 8.292847e-03 7.073755e-03 7.929238e-03 6.979871e-03 7.694764e-03 7.225908e-03 7.797497e-03 7.739120e-03 7.940039e-03 8.219250e-03 8.039597e-03 8.620980e-03 8.172773e-03 9.074222e-03 8.521375e-03 9.628347e-03 8.966139e-03 9.912258e-03 9.258592e-03 9.822913e-03 9.921676e-03 1.103550e-02 1.108704e-02 1.170649e-02 1.164630e-02 1.141027e-02 1.131372e-02 1.048621e-02 1.043023e-02 1.012350e-02 1.072357e-02 9.627088e-03 1.029446e-02 8.811600e-03 9.516579e-03 8.050248e-03 8.834602e-03 7.738267e-03 8.593478e-03 7.949894e-03 8.550729e-03 8.275545e-03 8.332160e-03 8.481899e-03 7.953750e-03 8.593238e-03 7.532002e-03 8.723926e-03 7.317867e-03 9.009308e-03 7.245193e-03 9.211548e-03 7.188476e-03 9.207255e-03 7.149770e-03 8.994571e-03 7.175512e-03 8.746662e-03 7.534897e-03 8.649858e-03 8.150511e-03 8.389787e-03 8.728750e-03 7.905927e-03 9.140496e-03 7.285769e-03 9.373834e-03 6.749013e-03 9.582393e-03 6.525691e-03 9.799391e-03 6.663047e-03 9.820274e-03 7.069457e-03 9.421457e-03 7.729141e-03 8.727410e-03 8.890297e-03 7.723063e-03 1.092655e-02 6.894086e-03 1.623359e-02 8.768004e-03 3.777325e-03 3.757073e-03 3.812403e-03 
5.602693e-04 1.200492e-03 1.086935e-03 8.177799e-04 4.301511e-03 5.927581e-03 6.161342e-03 1.743630e-03 5.389817e-03 5.386063e-03 7.811306e-03 1.110114e-02 1.266827e-02 1.245407e-02 9.195448e-03 3.846601e-03 5.023443e-03 3.515038e-03 5.911572e-03 6.978359e-03 1.236556e-02 1.346707e-02 9.899385e-03 7.240591e-03 4.520159e-03 3.185082e-03 2.124054e-03 1.656968e-03 1.136392e-03 1.283024e-03 6.882443e-04 1.305301e-03 4.348871e-04 1.436818e-03 2.034107e-04 1.491867e-03 7.588236e-05 1.362889e-03 2.921001e-04 1.095601e-03 4.062783e-04 8.864777e-04 3.516078e-04 8.409792e-04 1.988427e-04 7.446423e-04 8.303991e-05 4.417152e-04 6.754946e-05 3.234014e-04 2.100523e-04 7.108039e-04 4.216109e-04 1.137830e-03 7.217451e-04 1.635814e-03 1.106185e-03 2.108072e-03 1.223649e-03 2.206594e-03 1.507403e-03 2.233677e-03 3.473182e-03 3.381875e-03 2.920436e-03 2.808282e-03 2.731970e-03 3.130861e-03 3.531381e-03 3.726808e-03 2.706384e-03 2.666764e-03 3.333066e-03 2.284882e-03 2.921188e-03 1.581850e-03 2.142411e-03 8.447647e-04 1.399394e-03 4.195463e-04 9.752862e-04 2.416204e-04 7.350385e-04 3.768004e-04 4.792385e-04 6.006910e-04 2.345988e-04 7.381223e-04 3.285635e-04 8.387691e-04 4.945679e-04 9.982032e-04 5.336673e-04 1.099585e-03 5.303569e-04 1.072035e-03 4.907486e-04 9.036508e-04 3.732627e-04 7.330114e-04 2.331363e-04 6.420324e-04 6.714004e-04 5.104509e-04 1.193887e-03 5.959480e-04 1.608279e-03 9.647349e-04 1.882252e-03 1.289006e-03 2.066205e-03 1.384566e-03 2.121175e-03 1.226609e-03 1.961857e-03 9.186912e-04 1.534055e-03 8.316276e-04 1.050676e-03 1.516273e-03 1.199160e-03 2.701149e-03 3.081557e-03 5.190504e-03 2.170479e-03 1.285170e-03 1.294719e-03 4.511653e-04 
