# vtk DataFile Version 2.0
Comment goes here
ASCII

DATASET STRUCTURED_POINTS
FIELD FieldData 1
TIME 1 1 double
0.21000000
DIMENSIONS    128   16   1

ORIGIN    0.000   0.000   0.000
SPACING   0.0078125 0.015625   1.000

POINT_DATA   2048
SCALARS uX double
LOOKUP_TABLE default

6.028522e-03 1.530415e-03 5.350056e-03 -1.442125e-03 4.133371e-03 -6.323872e-03 7.730126e-03 -2.052273e-03 3.132305e-03 -3.040771e-03 -1.930899e-03 -7.661899e-03 -1.274803e-02 -2.292542e-02 -2.928849e-02 -2.934946e-02 -3.435652e-02 -3.126885e-02 -3.234244e-02 -2.738381e-02 -2.441711e-02 -1.060767e-02 -8.588122e-03 -1.506247e-03 -2.925315e-03 1.680712e-03 -5.582258e-04 2.877809e-03 6.093881e-04 3.275674e-03 1.252590e-03 3.193102e-03 1.540239e-03 2.909217e-03 1.795842e-03 2.675645e-03 2.061975e-03 2.465392e-03 2.217313e-03 2.206909e-03 2.266760e-03 2.025529e-03 2.305188e-03 1.935679e-03 2.290402e-03 1.900236e-03 2.214679e-03 1.919802e-03 2.133120e-03 1.973458e-03 1.961061e-03 1.973699e-03 1.804287e-03 2.165640e-03 2.094634e-03 3.122170e-03 3.373405e-03 4.518270e-03 3.465934e-03 3.782980e-03 3.718584e-03 3.331466e-03 3.776905e-03 4.263158e-03 4.411766e-03 4.861484e-03 4.747835e-03 4.687777e-03 4.061905e-03 3.830206e-03 2.403911e-03 3.282186e-03 3.948365e-03 3.502979e-03 2.933109e-03 2.611980e-03 2.147008e-03 2.134842e-03 1.576410e-03 1.927384e-03 1.270441e-03 1.953421e-03 1.105971e-03 2.028083e-03 9.554120e-04 2.032764e-03 8.394529e-04 1.982139e-03 8.309042e-04 1.948647e-03 9.645568e-04 1.825760e-03 1.153154e-03 1.623577e-03 1.454963e-03 1.399709e-03 1.786381e-03 1.048166e-03 2.012501e-03 6.421935e-04 2.241712e-03 3.821972e-04 2.474640e-03 2.876013e-04 2.587248e-03 3.266656e-04 2.486226e-03 5.189045e-04 2.134929e-03 9.057822e-04 1.613239e-03 1.571878e-03 9.808529e-04 2.425220e-03 1.834881e-04 3.264473e-03 -6.329930e-04 4.143433e-03 -9.531860e-04 5.009890e-03 -1.702268e-04 5.375525e-03 2.938883e-03 3.978803e-04 4.546855e-03 2.023359e-03 5.841645e-03 2.603855e-03 
3.010555e-03 -6.201514e-04 2.179517e-03 -3.362056e-03 1.240315e-04 -1.009170e-02 6.233548e-03 -2.151186e-03 1.301778e-03 -6.753482e-04 -2.336614e-03 -1.038344e-04 -7.628358e-03 -3.964787e-04 -4.635856e-03 9.023366e-04 -3.830622e-03 1.061177e-03 -3.756084e-03 -3.020687e-04 -4.382201e-03 -4.192564e-03 -2.758570e-03 -1.365701e-03 -1.732342e-03 -7.500847e-05 -1.066766e-03 6.532209e-04 -5.521201e-04 1.026246e-03 -1.160250e-04 9.603050e-04 -1.014313e-05 7.291787e-04 2.428676e-04 6.028165e-04 5.930434e-04 5.621004e-04 7.787910e-04 2.966643e-04 7.564907e-04 1.026611e-04 7.901893e-04 1.184026e-04 9.175789e-04 2.768399e-04 9.772315e-04 4.362423e-04 9.672862e-04 5.459572e-04 8.391602e-04 7.925925e-04 1.208609e-03 1.864880e-03 2.530124e-03 3.919105e-03 4.441391e-03 5.253102e-03 3.728203e-03 3.655994e-03 5.011218e-03 4.799147e-03 3.797886e-03 9.444978e-04 -1.196972e-04 -1.006010e-03 -1.037361e-03 -9.042713e-04 -4.308246e-04 1.896753e-03 1.435089e-03 2.132158e-04 1.780867e-04 -7.265712e-04 -8.165129e-04 -1.093528e-03 -7.608208e-04 -6.414044e-04 -4.844383e-04 -8.987172e-05 -2.021676e-04 2.616403e-04 -3.050485e-04 2.330339e-04 -6.918715e-04 5.632518e-05 -8.556724e-04 1.146404e-04 -6.570067e-04 3.742338e-04 -3.192300e-04 3.130971e-04 -1.918310e-04 3.119445e-05 4.923124e-05 -2.225302e-04 3.582148e-04 -6.571420e-04 4.675612e-04 -1.141028e-03 7.379318e-04 -1.335130e-03 1.099301e-03 -1.320902e-03 1.305510e-03 -1.260609e-03 1.236095e-03 -1.111324e-03 7.793092e-04 -8.691904e-04 1.837173e-04 -1.782387e-04 -3.211464e-04 9.299907e-04 -9.755785e-04 1.838157e-03 -1.992699e-03 2.741109e-03 -2.612273e-03 3.810785e-03 -2.258403e-03 4.319496e-03 -3.695658e-05 -3.805497e-03 3.250983e-03 -3.580553e-04 3.333780e-03 2.242796e-04 
7.998624e-03 5.548445e-03 6.298085e-03 2.233669e-03 3.518855e-04 -1.033307e-02 -5.054346e-05 -7.042114e-03 3.928889e-04 -4.040984e-03 2.425575e-03 5.646411e-04 9.243571e-03 1.070052e-02 1.519573e-02 1.461530e-02 1.653053e-02 1.627126e-02 1.489091e-02 1.525499e-02 1.044533e-02 8.401399e-03 4.869376e-04 1.593075e-03 -3.466252e-03 -1.019482e-03 -4.785142e-03 -1.930507e-03 -5.264888e-03 -2.599475e-03 -5.528391e-03 -3.358954e-03 -5.876153e-03 -3.928927e-03 -5.707102e-03 -4.122011e-03 -5.211424e-03 -4.092593e-03 -5.006594e-03 -4.619191e-03 -5.281171e-03 -5.177194e-03 -5.327895e-03 -5.163777e-03 -4.888183e-03 -4.766331e-03 -4.535689e-03 -4.753642e-03 -4.883591e-03 -5.360459e-03 -5.697653e-03 -6.068163e-03 -6.233121e-03 -6.359029e-03 -6.760885e-03 -7.405883e-03 -8.621003e-03 -9.379669e-03 -8.672432e-03 -8.642122e-03 -1.058691e-02 -9.931095e-03 -1.092681e-02 -9.992662e-03 -1.029036e-02 -1.040533e-02 -1.048568e-02 -1.054335e-02 -1.047555e-02 -1.152579e-02 -9.463692e-03 -1.069870e-02 -1.155724e-02 -1.101397e-02 -1.010119e-02 -9.173323e-03 -8.444803e-03 -7.129230e-03 -6.726468e-03 -5.310979e-03 -5.773196e-03 -4.769408e-03 -6.048919e-03 -5.083783e-03 -6.888932e-03 -5.572548e-03 -7.125823e-03 -5.234937e-03 -6.411910e-03 -4.358707e-03 -5.617855e-03 -4.350612e-03 -5.745505e-03 -5.051545e-03 -5.885022e-03 -5.553943e-03 -5.428759e-03 -5.751555e-03 -5.075221e-03 -6.264532e-03 -4.930844e-03 -6.856549e-03 -4.713419e-03 -6.907453e-03 -4.223775e-03 -6.695975e-03 -3.944827e-03 -6.607510e-03 -4.485423e-03 -6.852720e-03 -5.301956e-03 -6.545561e-03 -5.761494e-03 -5.307238e-03 -6.018798e-03 -4.357105e-03 -7.351956e-03 -3.972317e-03 -9.122385e-03 -3.540341e-03 -1.047674e-02 -3.149115e-03 -1.133400e-02 -6.222156e-03 6.622102e-03 4.348003e-03 8.224594e-03 6.091736e-03 
5.802813e-03 7.268380e-03 4.691126e-03 6.854176e-03 -1.794118e-04 1.656910e-03 -1.693290e-02 -1.260541e-02 -1.172470e-02 -1.430756e-02 -9.657988e-03 -1.483696e-02 -6.707251e-03 -1.488117e-02 -9.853433e-03 -1.600506e-02 -1.093488e-02 -1.589507e-02 -1.121353e-02 -1.423739e-02 -1.067893e-02 -1.021793e-02 -1.180590e-02 -1.151559e-02 -1.264027e-02 -1.186844e-02 -1.299588e-02 -1.178589e-02 -1.331192e-02 -1.201816e-02 -1.380492e-02 -1.219905e-02 -1.399117e-02 -1.220223e-02 -1.396226e-02 -1.213351e-02 -1.379119e-02 -1.209408e-02 -1.370716e-02 -1.230953e-02 -1.383525e-02 -1.271032e-02 -1.384738e-02 -1.281794e-02 -1.349925e-02 -1.268683e-02 -1.311186e-02 -1.291281e-02 -1.334964e-02 -1.358715e-02 -1.369567e-02 -1.426641e-02 -1.415320e-02 -1.514908e-02 -1.504998e-02 -1.673402e-02 -1.654708e-02 -1.803781e-02 -1.657194e-02 -1.661790e-02 -1.789438e-02 -1.760557e-02 -1.757014e-02 -1.535500e-02 -1.494757e-02 -1.443085e-02 -1.382126e-02 -1.520863e-02 -1.398045e-02 -1.775751e-02 -1.627474e-02 -1.651498e-02 -1.555950e-02 -1.528561e-02 -1.487954e-02 -1.451790e-02 -1.443569e-02 -1.358792e-02 -1.352802e-02 -1.267069e-02 -1.329057e-02 -1.269249e-02 -1.359199e-02 -1.290661e-02 -1.390764e-02 -1.304284e-02 -1.390559e-02 -1.274895e-02 -1.344160e-02 -1.230092e-02 -1.307617e-02 -1.230011e-02 -1.328029e-02 -1.277478e-02 -1.365765e-02 -1.313403e-02 -1.341580e-02 -1.281147e-02 -1.289023e-02 -1.280708e-02 -1.302028e-02 -1.346832e-02 -1.330807e-02 -1.377762e-02 -1.300833e-02 -1.366433e-02 -1.252539e-02 -1.370144e-02 -1.241439e-02 -1.412220e-02 -1.252993e-02 -1.457349e-02 -1.252667e-02 -1.455494e-02 -1.201847e-02 -1.426407e-02 -1.187853e-02 -1.447523e-02 -1.256152e-02 -1.485469e-02 -1.368012e-02 -1.429014e-02 -1.649721e-02 -1.534277e-03 8.109002e-04 4.721671e-03 4.720100e-03 6.647223e-03 
1.710074e-02 2.092422e-02 1.853088e-02 2.470448e-02 2.293444e-02 3.682560e-02 1.352648e-02 2.394218e-02 1.511967e-02 1.982172e-02 1.362488e-02 1.625625e-02 7.494059e-03 1.132252e-02 9.719683e-03 1.082647e-02 1.064552e-02 1.042359e-02 1.105088e-02 9.797220e-03 1.141936e-02 8.366578e-03 1.607108e-02 1.400890e-02 1.838768e-02 1.655440e-02 1.911782e-02 1.766832e-02 1.932411e-02 1.835130e-02 1.932876e-02 1.913062e-02 1.965756e-02 1.975619e-02 1.953817e-02 1.997097e-02 1.913487e-02 1.990025e-02 1.902135e-02 2.032921e-02 1.934629e-02 2.070812e-02 1.948804e-02 2.062747e-02 1.929669e-02 2.029828e-02 1.928746e-02 2.032545e-02 1.986236e-02 2.102294e-02 2.115847e-02 2.220378e-02 2.251080e-02 2.340447e-02 2.423634e-02 2.566510e-02 2.684940e-02 2.785616e-02 2.637091e-02 2.638274e-02 2.924704e-02 2.948788e-02 2.911079e-02 2.529166e-02 2.563510e-02 2.414980e-02 2.443491e-02 2.537491e-02 2.495908e-02 2.952890e-02 2.857116e-02 2.782632e-02 2.784133e-02 2.694800e-02 2.498087e-02 2.440025e-02 2.285031e-02 2.243801e-02 2.125907e-02 2.083912e-02 2.018989e-02 2.017062e-02 2.024041e-02 2.037914e-02 2.095901e-02 2.083188e-02 2.117874e-02 2.055384e-02 2.057697e-02 1.972352e-02 1.985460e-02 1.963746e-02 1.990889e-02 2.009876e-02 1.991170e-02 2.039928e-02 1.959985e-02 2.072921e-02 1.956643e-02 2.123038e-02 1.938124e-02 2.144229e-02 1.900257e-02 2.124996e-02 1.863330e-02 2.104280e-02 1.860259e-02 2.094475e-02 1.928919e-02 2.106473e-02 2.014208e-02 2.057885e-02 2.064327e-02 1.934378e-02 2.122788e-02 1.868033e-02 2.294025e-02 1.849292e-02 2.484340e-02 1.827118e-02 2.618665e-02 1.866421e-02 2.607405e-02 2.964658e-02 1.547140e-02 2.082125e-02 1.601295e-02 1.989180e-02 
1.843210e-02 1.981809e-02 1.961301e-02 2.166817e-02 2.458206e-02 3.122409e-02 3.219754e-02 3.454985e-02 2.976965e-02 3.295045e-02 2.843220e-02 3.057419e-02 2.452368e-02 2.506502e-02 2.459236e-02 2.494064e-02 2.479019e-02 2.476739e-02 2.493840e-02 2.458829e-02 2.501657e-02 2.456216e-02 2.918744e-02 2.796623e-02 3.102011e-02 2.950686e-02 3.182630e-02 3.010094e-02 3.225487e-02 3.067908e-02 3.264111e-02 3.124969e-02 3.293255e-02 3.161083e-02 3.284066e-02 3.170897e-02 3.250493e-02 3.167754e-02 3.237612e-02 3.205509e-02 3.261756e-02 3.252424e-02 3.269391e-02 3.254352e-02 3.235607e-02 3.225687e-02 3.208276e-02 3.238589e-02 3.253617e-02 3.314622e-02 3.339428e-02 3.410307e-02 3.427300e-02 3.507351e-02 3.534961e-02 3.657661e-02 3.666054e-02 3.823097e-02 3.805988e-02 3.767739e-02 3.817164e-02 3.709358e-02 3.898978e-02 3.784257e-02 4.048708e-02 3.922024e-02 3.927254e-02 4.044054e-02 3.678953e-02 3.868912e-02 3.666686e-02 3.712515e-02 3.663689e-02 3.622368e-02 3.564242e-02 3.522901e-02 3.472316e-02 3.389009e-02 3.344614e-02 3.252702e-02 3.278724e-02 3.220227e-02 3.303131e-02 3.243243e-02 3.361567e-02 3.272899e-02 3.372470e-02 3.236051e-02 3.308740e-02 3.161538e-02 3.244882e-02 3.156167e-02 3.258470e-02 3.213476e-02 3.282144e-02 3.257405e-02 3.247308e-02 3.255939e-02 3.205204e-02 3.284200e-02 3.200666e-02 3.342928e-02 3.197615e-02 3.355259e-02 3.156017e-02 3.335902e-02 3.122136e-02 3.330945e-02 3.153209e-02 3.360440e-02 3.211139e-02 3.358755e-02 3.245678e-02 3.285030e-02 3.250365e-02 3.218963e-02 3.334216e-02 3.212362e-02 3.477850e-02 3.221866e-02 3.613864e-02 3.222734e-02 3.811007e-02 2.933617e-02 2.075890e-02 2.133345e-02 1.862653e-02 1.975235e-02 
2.493100e-02 2.633560e-02 2.530670e-02 2.690688e-02 2.666920e-02 2.889117e-02 3.331002e-02 3.498287e-02 3.256883e-02 3.564709e-02 3.316283e-02 3.578961e-02 3.471822e-02 3.532378e-02 3.478883e-02 3.517593e-02 3.501859e-02 3.497335e-02 3.521419e-02 3.477826e-02 3.532695e-02 3.473768e-02 3.496068e-02 3.368558e-02 3.468447e-02 3.330834e-02 3.460311e-02 3.315562e-02 3.460657e-02 3.327196e-02 3.471343e-02 3.345541e-02 3.472380e-02 3.361066e-02 3.465704e-02 3.373739e-02 3.453905e-02 3.387191e-02 3.446919e-02 3.408321e-02 3.449549e-02 3.433935e-02 3.449777e-02 3.446124e-02 3.439155e-02 3.448133e-02 3.430896e-02 3.463000e-02 3.448460e-02 3.492648e-02 3.467968e-02 3.510745e-02 3.471832e-02 3.497034e-02 3.432983e-02 3.421042e-02 3.347069e-02 3.312227e-02 3.301845e-02 3.357920e-02 3.313249e-02 3.314732e-02 3.291656e-02 3.354665e-02 3.161043e-02 3.275685e-02 3.187873e-02 3.217263e-02 3.348028e-02 3.311663e-02 3.237647e-02 3.446669e-02 3.382536e-02 3.468424e-02 3.484833e-02 3.532558e-02 3.521249e-02 3.516502e-02 3.497149e-02 3.473048e-02 3.483554e-02 3.457243e-02 3.490747e-02 3.453881e-02 3.501735e-02 3.450936e-02 3.499161e-02 3.433199e-02 3.475245e-02 3.412074e-02 3.452073e-02 3.411640e-02 3.448118e-02 3.435165e-02 3.451044e-02 3.460585e-02 3.432792e-02 3.465254e-02 3.403269e-02 3.479448e-02 3.395343e-02 3.512304e-02 3.393636e-02 3.528186e-02 3.376398e-02 3.524332e-02 3.361239e-02 3.520861e-02 3.367978e-02 3.523122e-02 3.389760e-02 3.516898e-02 3.411320e-02 3.486348e-02 3.417368e-02 3.440519e-02 3.429455e-02 3.408424e-02 3.448389e-02 3.381991e-02 3.441070e-02 3.341162e-02 3.444532e-02 2.892604e-02 2.751969e-02 2.706217e-02 2.556601e-02 2.632103e-02 
2.455616e-02 2.522587e-02 2.532150e-02 2.653470e-02 2.728087e-02 2.890643e-02 3.030768e-02 3.189847e-02 3.244858e-02 3.371002e-02 3.533803e-02 3.603690e-02 4.159342e-02 4.190473e-02 4.169609e-02 4.187554e-02 4.179232e-02 4.180526e-02 4.186517e-02 4.172029e-02 4.189349e-02 4.163882e-02 3.722616e-02 3.670578e-02 3.518479e-02 3.421241e-02 3.404510e-02 3.280739e-02 3.342535e-02 3.211067e-02 3.311588e-02 3.182092e-02 3.293913e-02 3.172764e-02 3.278278e-02 3.172026e-02 3.262914e-02 3.177138e-02 3.252110e-02 3.189751e-02 3.246940e-02 3.204191e-02 3.240831e-02 3.212118e-02 3.230405e-02 3.214250e-02 3.221536e-02 3.218646e-02 3.220973e-02 3.225032e-02 3.219755e-02 3.217832e-02 3.197873e-02 3.170401e-02 3.128629e-02 3.061745e-02 3.040126e-02 2.958990e-02 3.012542e-02 3.047305e-02 3.015471e-02 3.085327e-02 2.975533e-02 3.071094e-02 2.877230e-02 2.989404e-02 2.930888e-02 2.896309e-02 3.059014e-02 2.965793e-02 3.024993e-02 3.053531e-02 2.991707e-02 3.086093e-02 3.133819e-02 3.182160e-02 3.212344e-02 3.210182e-02 3.238934e-02 3.207343e-02 3.251422e-02 3.204462e-02 3.266456e-02 3.206438e-02 3.281066e-02 3.208285e-02 3.285182e-02 3.203198e-02 3.276021e-02 3.196807e-02 3.263541e-02 3.201893e-02 3.256722e-02 3.218918e-02 3.249453e-02 3.238213e-02 3.234079e-02 3.254296e-02 3.216150e-02 3.273400e-02 3.203165e-02 3.294138e-02 3.192161e-02 3.305623e-02 3.179502e-02 3.306602e-02 3.172430e-02 3.302677e-02 3.178909e-02 3.294876e-02 3.194625e-02 3.274557e-02 3.210420e-02 3.235985e-02 3.221288e-02 3.185633e-02 3.229384e-02 3.127375e-02 3.219166e-02 3.050627e-02 3.159556e-02 2.941920e-02 3.021743e-02 2.768218e-02 2.697347e-02 2.598663e-02 2.511744e-02 2.506454e-02 
2.744546e-02 2.831581e-02 2.792192e-02 2.922199e-02 2.950855e-02 3.103238e-02 3.225957e-02 3.376937e-02 3.424768e-02 3.561237e-02 3.696426e-02 3.782684e-02 4.333130e-02 4.370504e-02 4.343216e-02 4.364686e-02 4.355991e-02 4.353966e-02 4.367400e-02 4.342922e-02 4.373065e-02 4.334993e-02 3.922985e-02 3.867729e-02 3.734797e-02 3.632090e-02 3.625462e-02 3.503115e-02 3.566150e-02 3.442078e-02 3.536326e-02 3.418673e-02 3.519227e-02 3.413968e-02 3.506701e-02 3.418668e-02 3.496084e-02 3.428308e-02 3.487140e-02 3.440614e-02 3.480049e-02 3.453287e-02 3.473027e-02 3.462093e-02 3.463064e-02 3.464344e-02 3.450023e-02 3.460863e-02 3.434595e-02 3.449409e-02 3.410521e-02 3.419608e-02 3.363791e-02 3.354250e-02 3.277131e-02 3.244551e-02 3.181277e-02 3.208135e-02 3.273216e-02 3.304254e-02 3.129771e-02 3.182537e-02 3.142636e-02 3.399045e-02 3.424729e-02 3.529267e-02 3.481518e-02 3.495963e-02 3.349775e-02 3.193776e-02 3.181322e-02 3.198670e-02 3.156081e-02 3.270795e-02 3.298380e-02 3.372389e-02 3.385309e-02 3.419283e-02 3.430600e-02 3.438344e-02 3.457691e-02 3.447568e-02 3.477020e-02 3.453204e-02 3.490465e-02 3.456493e-02 3.496991e-02 3.458496e-02 3.497787e-02 3.462762e-02 3.495545e-02 3.471591e-02 3.491027e-02 3.484123e-02 3.483086e-02 3.498140e-02 3.470745e-02 3.511810e-02 3.456638e-02 3.526831e-02 3.445158e-02 3.542524e-02 3.435970e-02 3.553206e-02 3.427006e-02 3.555975e-02 3.420973e-02 3.552753e-02 3.421916e-02 3.544495e-02 3.429103e-02 3.528355e-02 3.437645e-02 3.500953e-02 3.441646e-02 3.461690e-02 3.436144e-02 3.409411e-02 3.410087e-02 3.334711e-02 3.345502e-02 3.219853e-02 3.220829e-02 3.033556e-02 2.974633e-02 2.895949e-02 2.807829e-02 2.824201e-02 
2.455911e-02 2.522988e-02 2.532755e-02 2.654131e-02 2.729164e-02 2.891636e-02 3.032285e-02 3.190941e-02 3.245582e-02 3.369687e-02 3.532432e-02 3.600899e-02 4.158562e-02 4.189735e-02 4.168938e-02 4.186977e-02 4.178859e-02 4.180284e-02 4.186808e-02 4.172279e-02 4.190110e-02 4.164377e-02 3.718847e-02 3.668012e-02 3.514631e-02 3.419247e-02 3.403959e-02 3.280630e-02 3.342525e-02 3.208455e-02 3.309163e-02 3.176269e-02 3.289151e-02 3.165067e-02 3.272810e-02 3.164142e-02 3.258185e-02 3.169878e-02 3.245790e-02 3.179472e-02 3.236463e-02 3.191046e-02 3.229453e-02 3.200671e-02 3.220291e-02 3.201739e-02 3.205449e-02 3.193499e-02 3.185263e-02 3.176700e-02 3.160519e-02 3.149674e-02 3.124620e-02 3.105912e-02 3.071724e-02 3.043277e-02 3.008548e-02 2.995751e-02 2.986030e-02 3.000211e-02 2.961795e-02 3.001180e-02 2.958210e-02 3.015639e-02 2.980054e-02 3.027867e-02 3.007623e-02 3.034149e-02 3.034652e-02 3.042634e-02 3.058284e-02 3.069551e-02 3.065480e-02 3.095821e-02 3.110124e-02 3.126651e-02 3.150320e-02 3.148854e-02 3.184320e-02 3.162661e-02 3.210809e-02 3.169406e-02 3.229542e-02 3.172158e-02 3.243122e-02 3.174769e-02 3.252941e-02 3.181773e-02 3.261805e-02 3.194637e-02 3.266702e-02 3.209718e-02 3.262718e-02 3.222880e-02 3.249641e-02 3.236016e-02 3.232284e-02 3.252079e-02 3.215681e-02 3.271684e-02 3.202654e-02 3.291614e-02 3.192212e-02 3.304944e-02 3.181439e-02 3.306880e-02 3.173750e-02 3.300416e-02 3.175505e-02 3.287678e-02 3.186990e-02 3.265800e-02 3.204014e-02 3.232808e-02 3.221967e-02 3.188896e-02 3.233500e-02 3.131391e-02 3.220934e-02 3.051581e-02 3.159446e-02 2.942425e-02 3.021339e-02 2.768464e-02 2.697284e-02 2.598881e-02 2.511844e-02 2.506714e-02 
2.493329e-02 2.634172e-02 2.531497e-02 2.691945e-02 2.669006e-02 2.891627e-02 3.335571e-02 3.503797e-02 3.260168e-02 3.561228e-02 3.308493e-02 3.568127e-02 3.468746e-02 3.531168e-02 3.477818e-02 3.516828e-02 3.501040e-02 3.497339e-02 3.521796e-02 3.478572e-02 3.533085e-02 3.475117e-02 3.485276e-02 3.360695e-02 3.458072e-02 3.322219e-02 3.456542e-02 3.314101e-02 3.460488e-02 3.319550e-02 3.463768e-02 3.331532e-02 3.460756e-02 3.342786e-02 3.452258e-02 3.356659e-02 3.443428e-02 3.371241e-02 3.431724e-02 3.383708e-02 3.422027e-02 3.400248e-02 3.419893e-02 3.416399e-02 3.411249e-02 3.415459e-02 3.390281e-02 3.401114e-02 3.363364e-02 3.382331e-02 3.338420e-02 3.356222e-02 3.301929e-02 3.319401e-02 3.264246e-02 3.285581e-02 3.234061e-02 3.265433e-02 3.219014e-02 3.261012e-02 3.198722e-02 3.257743e-02 3.208473e-02 3.294779e-02 3.254790e-02 3.326258e-02 3.277480e-02 3.325955e-02 3.269566e-02 3.297221e-02 3.253169e-02 3.287542e-02 3.247356e-02 3.290237e-02 3.269216e-02 3.309529e-02 3.306367e-02 3.335180e-02 3.343937e-02 3.352780e-02 3.373629e-02 3.363501e-02 3.398157e-02 3.373271e-02 3.418183e-02 3.378465e-02 3.429078e-02 3.386068e-02 3.443892e-02 3.406591e-02 3.459541e-02 3.428154e-02 3.459049e-02 3.438637e-02 3.444107e-02 3.448639e-02 3.427055e-02 3.464596e-02 3.410755e-02 3.483314e-02 3.397035e-02 3.504706e-02 3.388575e-02 3.521868e-02 3.377008e-02 3.523698e-02 3.363982e-02 3.517032e-02 3.362198e-02 3.509764e-02 3.374576e-02 3.497309e-02 3.394114e-02 3.475824e-02 3.417145e-02 3.449478e-02 3.442415e-02 3.421359e-02 3.454820e-02 3.384178e-02 3.439726e-02 3.340962e-02 3.442974e-02 2.892628e-02 2.751556e-02 2.706403e-02 2.556488e-02 2.632419e-02 
1.843619e-02 1.982487e-02 1.962387e-02 2.168333e-02 2.461183e-02 3.126078e-02 3.228130e-02 3.465981e-02 2.982144e-02 3.288023e-02 2.832116e-02 3.039315e-02 2.447212e-02 2.504877e-02 2.456621e-02 2.491777e-02 2.476518e-02 2.475336e-02 2.495255e-02 2.460042e-02 2.506126e-02 2.455396e-02 2.890675e-02 2.774409e-02 3.078147e-02 2.941187e-02 3.193456e-02 3.025836e-02 3.236311e-02 3.062932e-02 3.257895e-02 3.101977e-02 3.273242e-02 3.132146e-02 3.263037e-02 3.143073e-02 3.244981e-02 3.159138e-02 3.228356e-02 3.173931e-02 3.219706e-02 3.196636e-02 3.227803e-02 3.231279e-02 3.235280e-02 3.235028e-02 3.216518e-02 3.212048e-02 3.174068e-02 3.172092e-02 3.142923e-02 3.139211e-02 3.110880e-02 3.116864e-02 3.102498e-02 3.109765e-02 3.098625e-02 3.104037e-02 3.082030e-02 3.084289e-02 3.048502e-02 3.044286e-02 2.999093e-02 3.016724e-02 2.990188e-02 3.034993e-02 3.034851e-02 3.088859e-02 3.077461e-02 3.106730e-02 3.078540e-02 3.089313e-02 3.054949e-02 3.069493e-02 3.062123e-02 3.081255e-02 3.106277e-02 3.126320e-02 3.170806e-02 3.161669e-02 3.217628e-02 3.167179e-02 3.227059e-02 3.150412e-02 3.229467e-02 3.133748e-02 3.234604e-02 3.149203e-02 3.273537e-02 3.194355e-02 3.311838e-02 3.234073e-02 3.310663e-02 3.237523e-02 3.272425e-02 3.232937e-02 3.230548e-02 3.245591e-02 3.203052e-02 3.280339e-02 3.195220e-02 3.328061e-02 3.196289e-02 3.361144e-02 3.173891e-02 3.352159e-02 3.142789e-02 3.334707e-02 3.141338e-02 3.325891e-02 3.167046e-02 3.306569e-02 3.207265e-02 3.276216e-02 3.268718e-02 3.249827e-02 3.366260e-02 3.236152e-02 3.479706e-02 3.214903e-02 3.609359e-02 3.225340e-02 3.808625e-02 2.934256e-02 2.076773e-02 2.133958e-02 1.862951e-02 1.975658e-02 
1.709510e-02 2.092175e-02 1.851874e-02 2.469757e-02 2.291334e-02 3.681626e-02 1.350710e-02 2.394659e-02 1.508750e-02 1.984413e-02 1.372858e-02 1.636906e-02 7.513886e-03 1.137021e-02 9.804315e-03 1.083238e-02 1.061623e-02 1.041800e-02 1.105260e-02 9.699580e-03 1.123428e-02 7.958529e-03 1.570398e-02 1.355174e-02 1.813641e-02 1.642494e-02 1.934868e-02 1.775905e-02 1.942356e-02 1.822959e-02 1.931371e-02 1.878204e-02 1.941064e-02 1.932572e-02 1.922847e-02 1.940828e-02 1.888300e-02 1.953913e-02 1.871794e-02 1.971694e-02 1.869513e-02 1.982689e-02 1.872712e-02 2.003934e-02 1.896862e-02 2.011415e-02 1.906781e-02 1.991342e-02 1.878559e-02 1.930174e-02 1.850923e-02 1.894080e-02 1.859405e-02 1.907406e-02 1.905481e-02 1.930108e-02 1.936261e-02 1.945156e-02 1.947191e-02 1.942637e-02 1.923350e-02 1.898600e-02 1.854376e-02 1.839815e-02 1.815632e-02 1.846267e-02 1.860473e-02 1.913025e-02 1.894503e-02 1.911411e-02 1.859524e-02 1.868795e-02 1.812012e-02 1.849916e-02 1.820974e-02 1.873728e-02 1.873639e-02 1.943282e-02 1.967091e-02 2.013152e-02 2.038117e-02 2.025839e-02 2.026729e-02 1.975920e-02 1.995819e-02 1.941161e-02 1.998712e-02 1.971114e-02 2.044936e-02 2.018428e-02 2.070814e-02 2.052751e-02 2.059124e-02 2.056746e-02 2.008130e-02 2.044407e-02 1.945207e-02 2.047795e-02 1.911540e-02 2.093282e-02 1.919064e-02 2.152728e-02 1.931943e-02 2.180973e-02 1.918265e-02 2.159961e-02 1.907383e-02 2.128024e-02 1.933316e-02 2.090390e-02 1.983610e-02 2.030077e-02 2.056515e-02 1.962366e-02 2.164639e-02 1.901270e-02 2.310774e-02 1.850755e-02 2.463999e-02 1.807903e-02 2.612608e-02 1.872229e-02 2.605743e-02 2.966133e-02 1.548564e-02 2.082935e-02 1.601342e-02 1.989309e-02 
5.788250e-03 7.255891e-03 4.659831e-03 6.824365e-03 -2.443804e-04 1.594776e-03 -1.706865e-02 -1.275670e-02 -1.180850e-02 -1.418139e-02 -9.399669e-03 -1.449445e-02 -6.579946e-03 -1.484420e-02 -9.827370e-03 -1.601177e-02 -1.095023e-02 -1.595664e-02 -1.130754e-02 -1.443783e-02 -1.087831e-02 -1.045029e-02 -1.169003e-02 -1.154824e-02 -1.249721e-02 -1.188123e-02 -1.300377e-02 -1.202261e-02 -1.341155e-02 -1.213362e-02 -1.376318e-02 -1.225066e-02 -1.394274e-02 -1.226302e-02 -1.397556e-02 -1.232892e-02 -1.401419e-02 -1.244384e-02 -1.393922e-02 -1.251359e-02 -1.386134e-02 -1.274961e-02 -1.396517e-02 -1.309722e-02 -1.390571e-02 -1.312254e-02 -1.357928e-02 -1.299822e-02 -1.320714e-02 -1.296169e-02 -1.302724e-02 -1.289643e-02 -1.263038e-02 -1.269331e-02 -1.238260e-02 -1.270736e-02 -1.237475e-02 -1.281015e-02 -1.232081e-02 -1.276769e-02 -1.221898e-02 -1.264356e-02 -1.211628e-02 -1.271907e-02 -1.232878e-02 -1.297943e-02 -1.264485e-02 -1.320782e-02 -1.282252e-02 -1.319486e-02 -1.275423e-02 -1.288859e-02 -1.245338e-02 -1.248667e-02 -1.228444e-02 -1.231588e-02 -1.236088e-02 -1.231889e-02 -1.243961e-02 -1.219911e-02 -1.244936e-02 -1.210159e-02 -1.255565e-02 -1.217297e-02 -1.274620e-02 -1.215819e-02 -1.275870e-02 -1.213850e-02 -1.296167e-02 -1.240487e-02 -1.332134e-02 -1.268568e-02 -1.342000e-02 -1.266827e-02 -1.329838e-02 -1.265021e-02 -1.322195e-02 -1.275590e-02 -1.313427e-02 -1.286569e-02 -1.301285e-02 -1.305974e-02 -1.295721e-02 -1.328977e-02 -1.273513e-02 -1.331119e-02 -1.234684e-02 -1.334397e-02 -1.209160e-02 -1.359308e-02 -1.201260e-02 -1.389608e-02 -1.194478e-02 -1.412951e-02 -1.192004e-02 -1.439578e-02 -1.217769e-02 -1.475999e-02 -1.271332e-02 -1.486496e-02 -1.365336e-02 -1.427022e-02 -1.647003e-02 -1.518412e-03 8.112287e-04 4.725743e-03 4.714522e-03 6.644426e-03 
7.992266e-03 5.543967e-03 6.283641e-03 2.220013e-03 3.241467e-04 -1.036281e-02 -1.134599e-04 -7.122677e-03 3.744390e-04 -3.993910e-03 2.464841e-03 6.361592e-04 9.284524e-03 1.065360e-02 1.509459e-02 1.454618e-02 1.650033e-02 1.613153e-02 1.476690e-02 1.510075e-02 1.045468e-02 8.504314e-03 8.078244e-04 1.844640e-03 -3.220677e-03 -1.030059e-03 -5.021291e-03 -2.240529e-03 -5.440120e-03 -2.683399e-03 -5.556050e-03 -3.242339e-03 -5.730933e-03 -3.778466e-03 -5.577006e-03 -3.961608e-03 -5.277598e-03 -4.217649e-03 -5.082845e-03 -4.498372e-03 -5.018263e-03 -4.796101e-03 -5.094412e-03 -5.222944e-03 -5.277210e-03 -5.363763e-03 -5.221262e-03 -5.192865e-03 -4.836677e-03 -4.719620e-03 -4.575205e-03 -4.453940e-03 -4.526552e-03 -4.530053e-03 -4.843516e-03 -4.732268e-03 -5.063478e-03 -4.842339e-03 -5.052073e-03 -4.719898e-03 -4.504655e-03 -3.962427e-03 -3.407305e-03 -2.983262e-03 -2.793451e-03 -2.918798e-03 -3.245505e-03 -3.579478e-03 -3.639146e-03 -3.512079e-03 -3.303006e-03 -2.964629e-03 -2.687294e-03 -2.768802e-03 -3.021818e-03 -3.259019e-03 -3.893160e-03 -4.124169e-03 -4.971781e-03 -4.766844e-03 -5.692057e-03 -4.834217e-03 -5.698998e-03 -4.424280e-03 -5.562509e-03 -4.100714e-03 -5.606797e-03 -4.327876e-03 -6.089564e-03 -4.850092e-03 -6.456028e-03 -5.292039e-03 -6.364726e-03 -5.355571e-03 -5.820315e-03 -5.300825e-03 -5.190457e-03 -5.458439e-03 -4.800735e-03 -5.974861e-03 -4.733114e-03 -6.628630e-03 -4.740041e-03 -7.010509e-03 -4.458551e-03 -6.851228e-03 -4.154763e-03 -6.580899e-03 -4.267771e-03 -6.333582e-03 -4.698861e-03 -5.869630e-03 -5.333568e-03 -5.254739e-03 -6.275550e-03 -4.655343e-03 -7.618192e-03 -4.101598e-03 -9.015778e-03 -3.366622e-03 -1.040375e-02 -3.170759e-03 -1.129471e-02 -6.209594e-03 6.617422e-03 4.354280e-03 8.223210e-03 6.094216e-03 
3.008785e-03 -6.203019e-04 2.177552e-03 -3.361469e-03 1.273113e-04 -1.008511e-02 6.252597e-03 -2.121708e-03 1.329896e-03 -6.907323e-04 -2.427475e-03 -1.954576e-04 -7.665318e-03 -4.114980e-04 -4.633420e-03 8.932923e-04 -3.826595e-03 1.044210e-03 -3.753081e-03 -2.719587e-04 -4.339014e-03 -4.155400e-03 -2.660353e-03 -1.284153e-03 -1.668900e-03 -1.164055e-04 -1.185178e-03 5.648197e-04 -5.990384e-04 1.004457e-03 -1.494745e-04 1.018865e-03 4.240408e-05 8.080060e-04 3.070158e-04 7.407782e-04 6.405698e-04 6.192740e-04 8.228773e-04 4.223693e-04 8.854278e-04 2.968308e-04 9.415469e-04 1.950849e-04 8.655180e-04 1.480276e-04 7.900709e-04 2.294992e-04 8.442406e-04 5.009587e-04 8.514656e-04 5.825478e-04 5.622106e-04 3.547534e-04 1.183010e-04 1.803225e-04 -5.913146e-05 1.586396e-04 -1.074017e-04 1.166863e-04 2.667898e-04 4.310095e-04 1.164352e-03 1.634960e-03 2.028222e-03 2.055942e-03 2.091278e-03 2.069547e-03 2.326945e-03 2.597460e-03 2.902822e-03 3.323792e-03 3.670499e-03 3.143626e-03 2.871368e-03 2.180174e-03 1.738780e-03 1.187102e-03 6.592774e-04 4.984570e-04 -4.978170e-05 3.022336e-04 -2.152295e-04 5.065703e-04 -2.125567e-04 6.302270e-04 -3.380439e-04 4.531025e-04 -5.467997e-04 2.407263e-04 -5.589358e-04 3.672658e-05 -3.996341e-04 -1.335827e-04 -3.588507e-05 -2.564061e-04 4.312978e-04 -4.720156e-04 7.500278e-04 -8.998981e-04 8.721106e-04 -1.321686e-03 9.771846e-04 -1.498864e-03 1.123420e-03 -1.396780e-03 1.119057e-03 -1.148170e-03 8.310275e-04 -7.218433e-04 3.547786e-04 -2.647292e-05 -2.872155e-04 8.365991e-04 -1.115338e-03 1.771036e-03 -1.990715e-03 2.803835e-03 -2.495490e-03 3.901629e-03 -2.236401e-03 4.299207e-03 -2.897714e-05 -3.804835e-03 3.247913e-03 -3.552876e-04 3.333633e-03 2.259948e-04 
