# vtk DataFile Version 2.0
Comment goes here
ASCII

DATASET STRUCTURED_POINTS
FIELD FieldData 1
TIME 1 1 double
0.53000000
DIMENSIONS    128   16   1

ORIGIN    0.000   0.000   0.000
SPACING   0.0078125 0.015625   1.000

POINT_DATA   2048
SCALARS uX double
LOOKUP_TABLE default

5.666290e-03 3.863386e-03 4.434803e-03 2.170604e-03 3.038035e-03 2.233534e-03 9.264687e-03 -5.248094e-04 4.869683e-03 -4.559518e-03 -3.375460e-03 -1.432649e-02 -2.101397e-02 -3.615277e-02 -4.387192e-02 -4.778223e-02 -4.987729e-02 -5.000585e-02 -4.737518e-02 -4.305099e-02 -3.635902e-02 -2.037140e-02 -1.339863e-02 -4.852828e-03 -2.785864e-03 1.641857e-03 1.611718e-03 4.406320e-03 3.423004e-03 5.580608e-03 4.132972e-03 6.045581e-03 4.381558e-03 6.173476e-03 4.456112e-03 6.135500e-03 4.492469e-03 6.016587e-03 4.545932e-03 5.853180e-03 4.622009e-03 5.655940e-03 4.704809e-03 5.431432e-03 4.780069e-03 5.196366e-03 4.844249e-03 4.969162e-03 4.884724e-03 4.735024e-03 4.841982e-03 4.407047e-03 4.568933e-03 3.771191e-03 3.729541e-03 2.230694e-03 1.198923e-03 -1.246186e-03 -1.067826e-04 -2.502462e-04 3.149063e-03 7.825941e-03 4.840233e-03 -8.919645e-04 -2.014884e-03 -3.941298e-03 -3.799820e-03 -1.925430e-03 3.901297e-05 6.488556e-03 1.154649e-02 8.100075e-03 5.178394e-03 5.938026e-03 4.241014e-03 5.079042e-03 3.700302e-03 4.732726e-03 3.489690e-03 4.573040e-03 3.446364e-03 4.447565e-03 3.509389e-03 4.292947e-03 3.643619e-03 4.083579e-03 3.820964e-03 3.817954e-03 4.018231e-03 3.519584e-03 4.223613e-03 3.235099e-03 4.427475e-03 3.010324e-03 4.598974e-03 2.866071e-03 4.682859e-03 2.806939e-03 4.632087e-03 2.851337e-03 4.439241e-03 3.034525e-03 4.123847e-03 3.371091e-03 3.700721e-03 3.829953e-03 3.182886e-03 4.355420e-03 2.614892e-03 4.895206e-03 2.080969e-03 5.394235e-03 1.680122e-03 5.780741e-03 1.516699e-03 5.985569e-03 1.726556e-03 5.976398e-03 2.518919e-03 5.758341e-03 4.246052e-03 5.273808e-03 7.622306e-03 5.013918e-04 4.451739e-03 2.067358e-03 5.386057e-03 3.884002e-03 
1.765120e-03 4.619546e-04 2.355113e-04 -1.475804e-03 -3.044355e-03 -1.850443e-03 7.176528e-03 -2.477164e-03 4.709026e-03 -1.978654e-03 1.983511e-03 -1.775366e-03 -1.319918e-03 -3.148713e-04 2.137633e-03 2.936187e-03 2.442952e-03 3.921492e-03 1.560463e-03 3.210399e-03 -1.057971e-03 -4.187516e-04 -1.318732e-03 5.666060e-04 -3.693989e-04 1.190100e-03 2.995684e-05 1.523075e-03 1.793465e-04 1.711464e-03 2.174512e-04 1.799007e-03 2.159328e-04 1.803218e-03 2.114624e-04 1.728293e-03 2.161657e-04 1.585743e-03 2.493745e-04 1.414507e-03 3.313315e-04 1.236419e-03 4.359328e-04 1.036402e-03 5.283530e-04 8.228154e-04 6.006560e-04 6.056369e-04 6.211363e-04 3.376310e-04 4.756950e-04 -1.641212e-04 -1.397711e-04 -1.345223e-03 -1.900980e-03 -4.311033e-03 -6.562359e-03 -9.421357e-03 -5.964038e-03 -6.089427e-03 -5.516713e-03 -1.795273e-03 -2.690614e-03 -4.926906e-03 -2.613982e-03 -3.509872e-03 -2.789701e-03 -9.365346e-04 -9.501158e-04 1.580632e-03 6.400835e-03 4.339551e-03 1.625266e-03 1.889579e-03 2.007056e-04 7.806858e-04 -5.538122e-04 3.227881e-04 -8.544542e-04 1.355339e-04 -9.101757e-04 4.240753e-05 -8.006904e-04 -4.224563e-05 -6.023281e-04 -2.008808e-04 -4.006877e-04 -4.752856e-04 -2.347848e-04 -8.291228e-04 -7.390032e-05 -1.146609e-03 1.452798e-04 -1.339156e-03 3.775102e-04 -1.447152e-03 4.946507e-04 -1.512627e-03 4.378484e-04 -1.498944e-03 2.316914e-04 -1.332735e-03 -7.617388e-05 -9.869922e-04 -4.823314e-04 -5.130352e-04 -9.939127e-04 2.849175e-05 -1.559733e-03 6.066458e-04 -2.072181e-03 1.179802e-03 -2.449608e-03 1.636465e-03 -2.630092e-03 1.897534e-03 -2.463549e-03 1.954631e-03 -1.746399e-03 1.748346e-03 -1.919996e-04 9.126826e-04 2.997025e-03 -6.627680e-03 -5.025234e-04 -2.047282e-03 1.412286e-03 3.056744e-04 
8.885860e-03 7.292316e-03 4.778282e-03 -9.483416e-05 -8.359193e-03 -1.420388e-02 -5.063553e-03 -1.118054e-02 -3.916488e-03 -6.683547e-03 -6.677538e-04 1.008227e-03 8.406433e-03 1.389911e-02 1.725652e-02 1.954949e-02 1.950289e-02 2.059094e-02 1.835818e-02 1.705855e-02 1.386967e-02 6.429880e-03 1.443972e-03 -2.719024e-03 -4.994937e-03 -6.608970e-03 -7.927527e-03 -8.200818e-03 -9.360620e-03 -8.794146e-03 -1.010594e-02 -8.982615e-03 -1.051241e-02 -9.038728e-03 -1.074115e-02 -9.111429e-03 -1.089145e-02 -9.258996e-03 -1.096520e-02 -9.418451e-03 -1.090451e-02 -9.539441e-03 -1.074673e-02 -9.654395e-03 -1.053552e-02 -9.715668e-03 -1.021263e-02 -9.612298e-03 -9.686816e-03 -9.212380e-03 -8.826895e-03 -8.348439e-03 -7.428014e-03 -6.679066e-03 -4.872025e-03 -3.066624e-03 8.105258e-04 3.721236e-03 2.982443e-03 1.500349e-03 -1.916083e-03 -1.152382e-02 -5.242436e-03 1.551749e-03 3.590677e-03 4.877847e-03 4.316060e-03 -1.088613e-04 -4.027043e-03 -1.485011e-02 -2.535794e-02 -1.889807e-02 -1.572102e-02 -1.466513e-02 -1.396124e-02 -1.257272e-02 -1.299648e-02 -1.158266e-02 -1.259774e-02 -1.114213e-02 -1.234490e-02 -1.091286e-02 -1.203412e-02 -1.078093e-02 -1.168281e-02 -1.082887e-02 -1.142342e-02 -1.113001e-02 -1.130223e-02 -1.161195e-02 -1.120575e-02 -1.202948e-02 -1.093407e-02 -1.221042e-02 -1.055296e-02 -1.230160e-02 -1.032489e-02 -1.243458e-02 -1.033934e-02 -1.254317e-02 -1.051716e-02 -1.247892e-02 -1.075634e-02 -1.218753e-02 -1.108070e-02 -1.176643e-02 -1.155371e-02 -1.130083e-02 -1.213127e-02 -1.079065e-02 -1.267540e-02 -1.025696e-02 -1.315436e-02 -9.901889e-03 -1.362829e-02 -9.869415e-03 -1.400265e-02 -1.018117e-02 -1.420003e-02 -1.098079e-02 -1.421395e-02 -1.261657e-02 -1.358715e-02 -1.605247e-02 -2.814366e-03 1.962206e-03 7.038114e-03 7.833143e-03 
9.422742e-03 8.289346e-03 6.153034e-03 4.708426e-04 -6.191943e-03 -2.084698e-02 -2.596753e-02 -1.973184e-02 -2.441487e-02 -1.978570e-02 -2.312039e-02 -2.014650e-02 -2.174530e-02 -2.233798e-02 -2.513118e-02 -2.562913e-02 -2.545743e-02 -2.667294e-02 -2.451043e-02 -2.604278e-02 -2.174538e-02 -2.250578e-02 -2.000840e-02 -2.248617e-02 -2.037506e-02 -2.259145e-02 -2.084051e-02 -2.255388e-02 -2.126156e-02 -2.240734e-02 -2.160835e-02 -2.221164e-02 -2.188293e-02 -2.201355e-02 -2.209315e-02 -2.184961e-02 -2.225285e-02 -2.173456e-02 -2.235075e-02 -2.164105e-02 -2.235597e-02 -2.154147e-02 -2.227180e-02 -2.143202e-02 -2.210028e-02 -2.127471e-02 -2.179999e-02 -2.099811e-02 -2.130563e-02 -2.050257e-02 -2.050758e-02 -1.962990e-02 -1.919679e-02 -1.804776e-02 -1.681932e-02 -1.476548e-02 -1.180589e-02 -9.831483e-03 -1.296142e-02 -1.392731e-02 -1.205008e-02 -1.587094e-02 -1.616125e-02 -1.761391e-02 -2.102081e-02 -2.207164e-02 -2.250271e-02 -2.512403e-02 -2.396023e-02 -2.350843e-02 -2.687989e-02 -2.611005e-02 -2.530853e-02 -2.475223e-02 -2.433506e-02 -2.354766e-02 -2.359506e-02 -2.282641e-02 -2.319521e-02 -2.242123e-02 -2.295292e-02 -2.217085e-02 -2.276111e-02 -2.200541e-02 -2.260144e-02 -2.193673e-02 -2.250088e-02 -2.198224e-02 -2.245846e-02 -2.211409e-02 -2.241982e-02 -2.224773e-02 -2.230158e-02 -2.232550e-02 -2.211518e-02 -2.240180e-02 -2.194446e-02 -2.252659e-02 -2.181745e-02 -2.267927e-02 -2.170945e-02 -2.280886e-02 -2.159190e-02 -2.289293e-02 -2.148523e-02 -2.295716e-02 -2.142944e-02 -2.301779e-02 -2.143363e-02 -2.305549e-02 -2.147930e-02 -2.305237e-02 -2.158997e-02 -2.305081e-02 -2.183109e-02 -2.307475e-02 -2.223512e-02 -2.309681e-02 -2.289170e-02 -2.304939e-02 -2.409151e-02 -2.252084e-02 -2.706691e-02 -1.176915e-02 -4.796533e-03 3.947421e-03 6.555067e-03 9.209079e-03 
3.557506e-02 3.654224e-02 3.812163e-02 3.986430e-02 4.535084e-02 4.324927e-02 2.882086e-02 3.892588e-02 2.803223e-02 3.488820e-02 2.672049e-02 2.984791e-02 2.236151e-02 2.520453e-02 2.499640e-02 2.533752e-02 2.570555e-02 2.535969e-02 2.565746e-02 2.534510e-02 2.479301e-02 2.455588e-02 2.824079e-02 2.892591e-02 3.144885e-02 3.120922e-02 3.304251e-02 3.231114e-02 3.384451e-02 3.282526e-02 3.422591e-02 3.306496e-02 3.437511e-02 3.319140e-02 3.439882e-02 3.330884e-02 3.437727e-02 3.345646e-02 3.430298e-02 3.356219e-02 3.410785e-02 3.356797e-02 3.381030e-02 3.349543e-02 3.342939e-02 3.328348e-02 3.287534e-02 3.279528e-02 3.200152e-02 3.183864e-02 3.057013e-02 3.011086e-02 2.816027e-02 2.697019e-02 2.365758e-02 2.045838e-02 1.385401e-02 1.006916e-02 1.459101e-02 1.687120e-02 1.581795e-02 2.565972e-02 2.322022e-02 2.203775e-02 2.583708e-02 2.656365e-02 2.785435e-02 3.319070e-02 3.401786e-02 3.846381e-02 4.818547e-02 4.473733e-02 4.115610e-02 4.061217e-02 3.888203e-02 3.794246e-02 3.734456e-02 3.653453e-02 3.657894e-02 3.583617e-02 3.610867e-02 3.543597e-02 3.567181e-02 3.517132e-02 3.525092e-02 3.509838e-02 3.496038e-02 3.527839e-02 3.483840e-02 3.563633e-02 3.476929e-02 3.593229e-02 3.455426e-02 3.600026e-02 3.425244e-02 3.598533e-02 3.411226e-02 3.601709e-02 3.421280e-02 3.603373e-02 3.446960e-02 3.589420e-02 3.477795e-02 3.554833e-02 3.515520e-02 3.509104e-02 3.565729e-02 3.460549e-02 3.623879e-02 3.409699e-02 3.676953e-02 3.359969e-02 3.722870e-02 3.333346e-02 3.768840e-02 3.347615e-02 3.807041e-02 3.411676e-02 3.829286e-02 3.553088e-02 3.821495e-02 3.839240e-02 3.650600e-02 4.972571e-02 3.918599e-02 3.954574e-02 3.555435e-02 3.649240e-02 
4.147384e-02 4.295976e-02 4.477725e-02 4.979182e-02 5.662070e-02 6.667969e-02 6.158077e-02 6.300850e-02 5.917712e-02 5.988499e-02 5.626762e-02 5.566132e-02 5.013060e-02 4.994855e-02 5.005854e-02 4.998204e-02 5.008570e-02 5.001906e-02 5.003547e-02 5.006763e-02 4.990456e-02 5.012952e-02 5.351088e-02 5.563784e-02 5.727988e-02 5.870623e-02 5.953208e-02 6.026130e-02 6.085661e-02 6.096642e-02 6.162135e-02 6.124184e-02 6.205733e-02 6.132962e-02 6.230295e-02 6.137750e-02 6.245253e-02 6.145219e-02 6.252014e-02 6.151924e-02 6.246825e-02 6.154577e-02 6.232657e-02 6.155923e-02 6.213390e-02 6.153802e-02 6.186738e-02 6.143255e-02 6.150472e-02 6.121126e-02 6.103607e-02 6.086835e-02 6.045131e-02 6.032134e-02 5.944690e-02 5.883139e-02 5.662289e-02 5.606973e-02 5.822278e-02 6.004009e-02 5.724163e-02 5.935374e-02 6.059776e-02 6.157646e-02 6.372327e-02 6.434457e-02 6.333442e-02 6.549978e-02 6.421311e-02 6.160250e-02 6.197498e-02 6.246389e-02 6.340769e-02 6.380800e-02 6.412384e-02 6.352859e-02 6.393726e-02 6.312518e-02 6.375942e-02 6.286713e-02 6.358857e-02 6.268746e-02 6.335132e-02 6.255541e-02 6.308283e-02 6.255210e-02 6.288796e-02 6.274098e-02 6.280029e-02 6.307113e-02 6.273103e-02 6.336256e-02 6.252845e-02 6.349000e-02 6.223661e-02 6.356164e-02 6.204533e-02 6.367593e-02 6.202030e-02 6.378563e-02 6.210505e-02 6.378184e-02 6.222717e-02 6.362240e-02 6.240687e-02 6.337375e-02 6.269521e-02 6.309377e-02 6.306924e-02 6.278082e-02 6.344308e-02 6.245279e-02 6.381224e-02 6.226356e-02 6.424381e-02 6.233422e-02 6.470384e-02 6.270776e-02 6.519866e-02 6.351201e-02 6.590743e-02 6.495970e-02 6.754788e-02 6.434656e-02 5.332765e-02 4.799119e-02 4.355400e-02 4.254777e-02 
5.266592e-02 5.417245e-02 5.428279e-02 5.789793e-02 5.934796e-02 6.669032e-02 6.736863e-02 6.792766e-02 6.755703e-02 6.813500e-02 6.762380e-02 6.815283e-02 6.758334e-02 6.744527e-02 6.752198e-02 6.747419e-02 6.756552e-02 6.750749e-02 6.751990e-02 6.754942e-02 6.738684e-02 6.760605e-02 6.732149e-02 6.779194e-02 6.733435e-02 6.785965e-02 6.752747e-02 6.787345e-02 6.775840e-02 6.783193e-02 6.796850e-02 6.776373e-02 6.813736e-02 6.769733e-02 6.825931e-02 6.765381e-02 6.833463e-02 6.763896e-02 6.835621e-02 6.763881e-02 6.831381e-02 6.763895e-02 6.821472e-02 6.763788e-02 6.807679e-02 6.763691e-02 6.792397e-02 6.765666e-02 6.781705e-02 6.777801e-02 6.790229e-02 6.820852e-02 6.850180e-02 6.940934e-02 7.033403e-02 7.255269e-02 7.521441e-02 7.760889e-02 7.374749e-02 7.386448e-02 7.600799e-02 7.393842e-02 7.325155e-02 7.289736e-02 6.965941e-02 7.077965e-02 7.036581e-02 6.916130e-02 6.986968e-02 7.299690e-02 7.071931e-02 7.016723e-02 7.106588e-02 7.031497e-02 7.076746e-02 7.013644e-02 7.042292e-02 6.974479e-02 7.004410e-02 6.938363e-02 6.971546e-02 6.911907e-02 6.942775e-02 6.895541e-02 6.917753e-02 6.890118e-02 6.897597e-02 6.895460e-02 6.881984e-02 6.908214e-02 6.867999e-02 6.922276e-02 6.852286e-02 6.933250e-02 6.836124e-02 6.941792e-02 6.824317e-02 6.949150e-02 6.819530e-02 6.953730e-02 6.821272e-02 6.952536e-02 6.828046e-02 6.944231e-02 6.839728e-02 6.930267e-02 6.856527e-02 6.912716e-02 6.876821e-02 6.892985e-02 6.897303e-02 6.873044e-02 6.915367e-02 6.856665e-02 6.928563e-02 6.845762e-02 6.931516e-02 6.838132e-02 6.918751e-02 6.827987e-02 6.894425e-02 6.800597e-02 6.927585e-02 6.380717e-02 5.934733e-02 5.672446e-02 5.414874e-02 5.383618e-02 
5.240490e-02 5.349553e-02 5.390219e-02 5.642523e-02 5.768510e-02 6.123506e-02 6.228102e-02 6.442384e-02 6.559845e-02 6.710612e-02 6.993495e-02 7.148885e-02 7.799393e-02 7.793311e-02 7.798586e-02 7.793719e-02 7.797096e-02 7.795473e-02 7.795049e-02 7.798077e-02 7.793196e-02 7.800292e-02 7.284597e-02 7.148724e-02 6.849654e-02 6.790367e-02 6.632135e-02 6.598540e-02 6.528385e-02 6.495073e-02 6.484058e-02 6.438911e-02 6.468693e-02 6.408811e-02 6.466032e-02 6.394116e-02 6.467720e-02 6.389149e-02 6.469348e-02 6.390313e-02 6.468867e-02 6.395610e-02 6.466451e-02 6.404445e-02 6.463453e-02 6.416634e-02 6.461718e-02 6.432915e-02 6.464707e-02 6.456675e-02 6.479530e-02 6.496854e-02 6.521368e-02 6.575261e-02 6.629437e-02 6.765695e-02 6.938850e-02 7.108253e-02 6.860198e-02 6.793217e-02 6.814994e-02 6.582832e-02 6.564728e-02 6.800480e-02 6.654390e-02 6.762514e-02 6.782586e-02 6.622090e-02 6.589255e-02 6.547918e-02 6.315872e-02 6.420665e-02 6.494956e-02 6.406218e-02 6.482643e-02 6.435647e-02 6.510127e-02 6.455659e-02 6.523356e-02 6.464314e-02 6.525628e-02 6.468786e-02 6.520249e-02 6.473573e-02 6.510466e-02 6.481976e-02 6.499277e-02 6.495316e-02 6.488088e-02 6.512104e-02 6.476369e-02 6.528719e-02 6.463221e-02 6.542265e-02 6.450295e-02 6.552591e-02 6.441214e-02 6.560011e-02 6.438311e-02 6.563269e-02 6.441667e-02 6.560266e-02 6.450336e-02 6.550062e-02 6.463817e-02 6.533677e-02 6.481466e-02 6.512749e-02 6.501044e-02 6.488453e-02 6.518603e-02 6.461829e-02 6.529661e-02 6.433905e-02 6.528638e-02 6.402927e-02 6.506607e-02 6.361893e-02 6.451008e-02 6.297095e-02 6.344480e-02 6.183018e-02 6.158946e-02 5.923723e-02 5.703712e-02 5.530235e-02 5.354434e-02 5.313794e-02 
5.727322e-02 5.847912e-02 5.839610e-02 6.086063e-02 6.148292e-02 6.466878e-02 6.568890e-02 6.756653e-02 6.898994e-02 7.027176e-02 7.322034e-02 7.469870e-02 8.149745e-02 8.144099e-02 8.149053e-02 8.144775e-02 8.148093e-02 8.146831e-02 8.145621e-02 8.149622e-02 8.142627e-02 8.151897e-02 7.650831e-02 7.516251e-02 7.230098e-02 7.173085e-02 7.018361e-02 6.990717e-02 6.916505e-02 6.894502e-02 6.873421e-02 6.844407e-02 6.859513e-02 6.819170e-02 6.858493e-02 6.807840e-02 6.861791e-02 6.804894e-02 6.865419e-02 6.807765e-02 6.868219e-02 6.815507e-02 6.870733e-02 6.828030e-02 6.874481e-02 6.845830e-02 6.881786e-02 6.870323e-02 6.896269e-02 6.904740e-02 6.923844e-02 6.955505e-02 6.974537e-02 7.034905e-02 7.067319e-02 7.174455e-02 7.262746e-02 7.409090e-02 7.283475e-02 7.267263e-02 7.138960e-02 6.924809e-02 6.931744e-02 7.113048e-02 6.982604e-02 6.990123e-02 6.913296e-02 6.841079e-02 6.794426e-02 6.533836e-02 6.220625e-02 6.413783e-02 6.552452e-02 6.584759e-02 6.694496e-02 6.711905e-02 6.797868e-02 6.788826e-02 6.854544e-02 6.830851e-02 6.881957e-02 6.854660e-02 6.892309e-02 6.870594e-02 6.892917e-02 6.884188e-02 6.887978e-02 6.897850e-02 6.879921e-02 6.911980e-02 6.870207e-02 6.925772e-02 6.859977e-02 6.938065e-02 6.850649e-02 6.947962e-02 6.843960e-02 6.954803e-02 6.841354e-02 6.957757e-02 6.843390e-02 6.955867e-02 6.849861e-02 6.948683e-02 6.860223e-02 6.936666e-02 6.873527e-02 6.920782e-02 6.887835e-02 6.901800e-02 6.899907e-02 6.879849e-02 6.905290e-02 6.853836e-02 6.898154e-02 6.820100e-02 6.870657e-02 6.770373e-02 6.812083e-02 6.688939e-02 6.706134e-02 6.546783e-02 6.518567e-02 6.285718e-02 6.130207e-02 5.980016e-02 5.832286e-02 5.813783e-02 
5.240474e-02 5.349654e-02 5.390206e-02 5.642475e-02 5.768520e-02 6.123335e-02 6.228133e-02 6.442375e-02 6.559937e-02 6.710764e-02 6.993622e-02 7.149034e-02 7.799353e-02 7.793309e-02 7.798581e-02 7.793749e-02 7.797138e-02 7.795541e-02 7.795156e-02 7.798186e-02 7.793345e-02 7.800474e-02 7.285670e-02 7.149566e-02 6.851324e-02 6.791424e-02 6.633742e-02 6.599456e-02 6.529783e-02 6.496211e-02 6.485994e-02 6.441419e-02 6.472433e-02 6.413747e-02 6.472091e-02 6.401235e-02 6.475260e-02 6.397448e-02 6.477793e-02 6.400137e-02 6.479483e-02 6.408950e-02 6.481287e-02 6.423300e-02 6.483924e-02 6.441941e-02 6.487563e-02 6.463116e-02 6.492260e-02 6.485675e-02 6.498978e-02 6.509720e-02 6.509631e-02 6.536757e-02 6.527422e-02 6.570470e-02 6.558315e-02 6.611757e-02 6.557699e-02 6.577895e-02 6.528602e-02 6.526218e-02 6.484406e-02 6.535137e-02 6.480098e-02 6.503544e-02 6.467686e-02 6.454629e-02 6.425397e-02 6.392683e-02 6.353010e-02 6.347980e-02 6.371779e-02 6.346734e-02 6.405204e-02 6.372675e-02 6.442849e-02 6.399245e-02 6.470403e-02 6.420540e-02 6.486785e-02 6.438414e-02 6.494471e-02 6.455547e-02 6.495315e-02 6.472749e-02 6.490254e-02 6.489989e-02 6.480781e-02 6.507232e-02 6.469034e-02 6.524214e-02 6.457237e-02 6.539819e-02 6.446875e-02 6.552186e-02 6.439502e-02 6.560277e-02 6.437197e-02 6.563392e-02 6.440879e-02 6.560225e-02 6.450060e-02 6.549942e-02 6.464004e-02 6.533387e-02 6.482085e-02 6.512540e-02 6.502441e-02 6.488927e-02 6.521140e-02 6.463124e-02 6.532581e-02 6.434790e-02 6.530309e-02 6.402443e-02 6.506757e-02 6.360697e-02 6.450499e-02 6.296123e-02 6.343994e-02 6.182719e-02 6.158693e-02 5.923964e-02 5.703655e-02 5.530576e-02 5.354419e-02 5.314043e-02 
5.266486e-02 5.417531e-02 5.428160e-02 5.789724e-02 5.934720e-02 6.668506e-02 6.737025e-02 6.793176e-02 6.756123e-02 6.814262e-02 6.762855e-02 6.815863e-02 6.758254e-02 6.744457e-02 6.752098e-02 6.747496e-02 6.756583e-02 6.750871e-02 6.752238e-02 6.755011e-02 6.739173e-02 6.760814e-02 6.733969e-02 6.781158e-02 6.736882e-02 6.789190e-02 6.757040e-02 6.791431e-02 6.781036e-02 6.789055e-02 6.804614e-02 6.786475e-02 6.826880e-02 6.786635e-02 6.846149e-02 6.789506e-02 6.860182e-02 6.794549e-02 6.869179e-02 6.803458e-02 6.876283e-02 6.818614e-02 6.884407e-02 6.840679e-02 6.895029e-02 6.868727e-02 6.908259e-02 6.900611e-02 6.923628e-02 6.934706e-02 6.941565e-02 6.970136e-02 6.962042e-02 7.005136e-02 6.983432e-02 7.036260e-02 7.000444e-02 7.052900e-02 6.989230e-02 7.019857e-02 6.945141e-02 6.955869e-02 6.882722e-02 6.905941e-02 6.826851e-02 6.831270e-02 6.764308e-02 6.750944e-02 6.700406e-02 6.674384e-02 6.634696e-02 6.636680e-02 6.654734e-02 6.652404e-02 6.703019e-02 6.691853e-02 6.756232e-02 6.733159e-02 6.799577e-02 6.768178e-02 6.829947e-02 6.797727e-02 6.849476e-02 6.824222e-02 6.859556e-02 6.847861e-02 6.860573e-02 6.868655e-02 6.854477e-02 6.887623e-02 6.844572e-02 6.905952e-02 6.834219e-02 6.923260e-02 6.824821e-02 6.937243e-02 6.817536e-02 6.946954e-02 6.814946e-02 6.952158e-02 6.818248e-02 6.951387e-02 6.826767e-02 6.943475e-02 6.839874e-02 6.929514e-02 6.857797e-02 6.912243e-02 6.879632e-02 6.893763e-02 6.902196e-02 6.875301e-02 6.920857e-02 6.858017e-02 6.931493e-02 6.844406e-02 6.931474e-02 6.835419e-02 6.917466e-02 6.825681e-02 6.893281e-02 6.799615e-02 6.927157e-02 6.381537e-02 5.934662e-02 5.673337e-02 5.414802e-02 5.384241e-02 
4.147290e-02 4.296254e-02 4.477560e-02 4.978824e-02 5.661987e-02 6.666752e-02 6.157881e-02 6.300629e-02 5.917941e-02 5.989421e-02 5.627764e-02 5.567117e-02 5.012890e-02 4.994792e-02 5.005796e-02 4.998258e-02 5.008604e-02 5.002055e-02 5.003925e-02 5.006931e-02 4.990880e-02 5.013091e-02 5.355977e-02 5.568273e-02 5.736330e-02 5.875532e-02 5.959309e-02 6.027721e-02 6.087553e-02 6.095838e-02 6.163611e-02 6.128092e-02 6.215855e-02 6.149810e-02 6.253160e-02 6.164887e-02 6.272167e-02 6.171547e-02 6.275342e-02 6.177820e-02 6.275148e-02 6.193229e-02 6.278611e-02 6.218624e-02 6.286748e-02 6.250962e-02 6.296459e-02 6.282579e-02 6.302738e-02 6.310195e-02 6.308569e-02 6.336818e-02 6.316873e-02 6.361369e-02 6.325641e-02 6.379945e-02 6.331195e-02 6.388125e-02 6.330203e-02 6.382873e-02 6.321619e-02 6.367072e-02 6.302944e-02 6.334558e-02 6.278382e-02 6.295653e-02 6.254128e-02 6.254870e-02 6.233527e-02 6.219040e-02 6.221712e-02 6.187222e-02 6.216388e-02 6.171723e-02 6.232606e-02 6.176855e-02 6.257638e-02 6.188155e-02 6.275818e-02 6.198024e-02 6.285599e-02 6.212234e-02 6.293741e-02 6.235151e-02 6.297941e-02 6.259144e-02 6.290447e-02 6.279067e-02 6.272306e-02 6.297039e-02 6.250450e-02 6.318394e-02 6.233403e-02 6.343146e-02 6.219195e-02 6.361238e-02 6.205429e-02 6.372076e-02 6.200680e-02 6.379188e-02 6.207747e-02 6.377737e-02 6.221963e-02 6.362178e-02 6.240943e-02 6.335422e-02 6.269358e-02 6.306321e-02 6.309001e-02 6.279044e-02 6.354368e-02 6.254347e-02 6.396115e-02 6.233251e-02 6.430246e-02 6.229795e-02 6.467244e-02 6.263856e-02 6.515474e-02 6.346771e-02 6.588198e-02 6.495831e-02 6.753769e-02 6.436937e-02 5.333155e-02 4.800877e-02 4.355484e-02 4.255703e-02 
3.557193e-02 3.654812e-02 3.811568e-02 3.986336e-02 4.534186e-02 4.324249e-02 2.879689e-02 3.889849e-02 2.800685e-02 3.487065e-02 2.671112e-02 2.984081e-02 2.235607e-02 2.519920e-02 2.498880e-02 2.533863e-02 2.569965e-02 2.535843e-02 2.565202e-02 2.533082e-02 2.479710e-02 2.457021e-02 2.832869e-02 2.901134e-02 3.159157e-02 3.129600e-02 3.314779e-02 3.234125e-02 3.387766e-02 3.281137e-02 3.423608e-02 3.310940e-02 3.448841e-02 3.341775e-02 3.468079e-02 3.369903e-02 3.472751e-02 3.388213e-02 3.463916e-02 3.405076e-02 3.456691e-02 3.431915e-02 3.459109e-02 3.469460e-02 3.471883e-02 3.514461e-02 3.491002e-02 3.558165e-02 3.510229e-02 3.598158e-02 3.534454e-02 3.640780e-02 3.568255e-02 3.685941e-02 3.607758e-02 3.726843e-02 3.642981e-02 3.750388e-02 3.656225e-02 3.735688e-02 3.638707e-02 3.687699e-02 3.602896e-02 3.645171e-02 3.569137e-02 3.586395e-02 3.522530e-02 3.509227e-02 3.462614e-02 3.428811e-02 3.405685e-02 3.374742e-02 3.399033e-02 3.360165e-02 3.420657e-02 3.372731e-02 3.450942e-02 3.390689e-02 3.471084e-02 3.405230e-02 3.480988e-02 3.424886e-02 3.490706e-02 3.455747e-02 3.497673e-02 3.487462e-02 3.491536e-02 3.512647e-02 3.473317e-02 3.533535e-02 3.451817e-02 3.556945e-02 3.438121e-02 3.582824e-02 3.429116e-02 3.597589e-02 3.421008e-02 3.600589e-02 3.424936e-02 3.597099e-02 3.444579e-02 3.581546e-02 3.473748e-02 3.547513e-02 3.509044e-02 3.499762e-02 3.556097e-02 3.450978e-02 3.616339e-02 3.407692e-02 3.681128e-02 3.371912e-02 3.736079e-02 3.345721e-02 3.773094e-02 3.348741e-02 3.802129e-02 3.410230e-02 3.824489e-02 3.555243e-02 3.819183e-02 3.845633e-02 3.648701e-02 4.977369e-02 3.918917e-02 3.957544e-02 3.555410e-02 3.650729e-02 
9.417435e-03 8.294370e-03 6.145503e-03 4.735537e-04 -6.204056e-03 -2.084291e-02 -2.598977e-02 -1.976278e-02 -2.444247e-02 -1.983212e-02 -2.314465e-02 -2.019319e-02 -2.174510e-02 -2.237410e-02 -2.510733e-02 -2.566396e-02 -2.540967e-02 -2.670262e-02 -2.445178e-02 -2.605949e-02 -2.167375e-02 -2.248905e-02 -1.996192e-02 -2.249242e-02 -2.036094e-02 -2.261492e-02 -2.084411e-02 -2.258506e-02 -2.128250e-02 -2.245084e-02 -2.166715e-02 -2.229523e-02 -2.202212e-02 -2.216973e-02 -2.233301e-02 -2.206299e-02 -2.255552e-02 -2.195442e-02 -2.268739e-02 -2.187833e-02 -2.278306e-02 -2.188076e-02 -2.287681e-02 -2.196746e-02 -2.297656e-02 -2.212420e-02 -2.307103e-02 -2.231281e-02 -2.313935e-02 -2.251217e-02 -2.319454e-02 -2.272211e-02 -2.323935e-02 -2.290999e-02 -2.324174e-02 -2.302097e-02 -2.316333e-02 -2.302183e-02 -2.303887e-02 -2.299582e-02 -2.289611e-02 -2.290626e-02 -2.257466e-02 -2.239371e-02 -2.205544e-02 -2.193207e-02 -2.171195e-02 -2.171707e-02 -2.168592e-02 -2.175132e-02 -2.188089e-02 -2.170966e-02 -2.183402e-02 -2.163896e-02 -2.189862e-02 -2.164878e-02 -2.202568e-02 -2.169244e-02 -2.213670e-02 -2.173193e-02 -2.221415e-02 -2.178885e-02 -2.228208e-02 -2.188087e-02 -2.232466e-02 -2.197295e-02 -2.230399e-02 -2.204685e-02 -2.222563e-02 -2.211902e-02 -2.211983e-02 -2.221928e-02 -2.202290e-02 -2.235328e-02 -2.192251e-02 -2.248039e-02 -2.180601e-02 -2.260526e-02 -2.171288e-02 -2.274740e-02 -2.165222e-02 -2.288007e-02 -2.159816e-02 -2.296949e-02 -2.154098e-02 -2.301943e-02 -2.151175e-02 -2.305806e-02 -2.153470e-02 -2.308640e-02 -2.160743e-02 -2.308676e-02 -2.171874e-02 -2.304069e-02 -2.189184e-02 -2.298794e-02 -2.223260e-02 -2.297873e-02 -2.287125e-02 -2.293965e-02 -2.407936e-02 -2.244287e-02 -2.707278e-02 -1.174169e-02 -4.803784e-03 3.962801e-03 6.550010e-03 9.218282e-03 
8.881734e-03 7.295209e-03 4.773985e-03 -9.107098e-05 -8.364752e-03 -1.419742e-02 -5.061801e-03 -1.117682e-02 -3.915600e-03 -6.697009e-03 -6.762177e-04 9.875618e-04 8.411494e-03 1.388725e-02 1.728159e-02 1.952784e-02 1.954180e-02 2.058044e-02 1.839390e-02 1.708893e-02 1.387929e-02 6.450428e-03 1.400578e-03 -2.763277e-03 -5.078903e-03 -6.652353e-03 -7.971093e-03 -8.184662e-03 -9.333491e-03 -8.722430e-03 -1.005300e-02 -8.941719e-03 -1.054908e-02 -9.131117e-03 -1.091543e-02 -9.291043e-03 -1.107529e-02 -9.361408e-03 -1.104019e-02 -9.430571e-03 -1.096621e-02 -9.615626e-03 -1.094072e-02 -9.923891e-03 -1.097979e-02 -1.032311e-02 -1.105652e-02 -1.073165e-02 -1.113286e-02 -1.114718e-02 -1.130126e-02 -1.167405e-02 -1.166645e-02 -1.236332e-02 -1.224934e-02 -1.318256e-02 -1.295472e-02 -1.390872e-02 -1.331860e-02 -1.384571e-02 -1.310212e-02 -1.321588e-02 -1.305830e-02 -1.386832e-02 -1.367333e-02 -1.398958e-02 -1.355288e-02 -1.296204e-02 -1.228909e-02 -1.110131e-02 -1.051852e-02 -9.990471e-03 -1.055665e-02 -9.805160e-03 -1.092611e-02 -9.981959e-03 -1.133684e-02 -1.018797e-02 -1.158216e-02 -1.032514e-02 -1.166964e-02 -1.049432e-02 -1.171486e-02 -1.077624e-02 -1.170584e-02 -1.108124e-02 -1.154988e-02 -1.134430e-02 -1.126653e-02 -1.158932e-02 -1.094824e-02 -1.187920e-02 -1.070883e-02 -1.220599e-02 -1.052068e-02 -1.242750e-02 -1.035357e-02 -1.253625e-02 -1.032833e-02 -1.258118e-02 -1.048170e-02 -1.249502e-02 -1.074482e-02 -1.220276e-02 -1.107905e-02 -1.174849e-02 -1.154106e-02 -1.125911e-02 -1.214381e-02 -1.079580e-02 -1.279557e-02 -1.036987e-02 -1.334553e-02 -9.986550e-03 -1.370497e-02 -9.814239e-03 -1.396720e-02 -1.008538e-02 -1.415477e-02 -1.091877e-02 -1.419240e-02 -1.260776e-02 -1.357640e-02 -1.605989e-02 -2.823679e-03 1.959425e-03 7.032624e-03 7.834906e-03 
1.763629e-03 4.629979e-04 2.341614e-04 -1.475596e-03 -3.045214e-03 -1.852259e-03 7.184143e-03 -2.467560e-03 4.719268e-03 -1.973456e-03 1.990409e-03 -1.773591e-03 -1.311340e-03 -3.126845e-04 2.137996e-03 2.940648e-03 2.435372e-03 3.927349e-03 1.550278e-03 3.215325e-03 -1.076370e-03 -4.314750e-04 -1.358967e-03 5.315539e-04 -4.222532e-04 1.159854e-03 -3.968682e-06 1.520421e-03 1.762057e-04 1.732119e-03 2.253708e-04 1.804834e-03 1.872969e-04 1.749802e-03 1.242277e-04 1.627455e-03 1.135041e-04 1.492643e-03 1.690929e-04 1.325982e-03 2.297711e-04 1.085196e-03 2.479364e-04 7.631875e-04 1.986456e-04 3.657427e-04 7.087518e-05 -9.033005e-05 -1.526209e-04 -6.365535e-04 -5.551035e-04 -1.363098e-03 -1.228816e-03 -2.329206e-03 -2.184545e-03 -3.471955e-03 -3.249598e-03 -4.453373e-03 -3.614146e-03 -4.144342e-03 -3.305569e-03 -3.119450e-03 -2.566704e-03 -2.920630e-03 -2.036420e-03 -2.025059e-03 -1.248766e-03 -6.149967e-04 2.667386e-05 9.032439e-04 1.604332e-03 1.880628e-03 1.403671e-03 1.869895e-03 8.299077e-04 1.458422e-03 2.564459e-04 1.063324e-03 -1.435205e-04 7.447544e-04 -3.661332e-04 4.585282e-04 -4.667473e-04 1.534406e-04 -4.663051e-04 -1.571931e-04 -3.568719e-04 -4.572758e-04 -1.678548e-04 -7.495962e-04 4.930410e-05 -1.039162e-03 2.374526e-04 -1.301319e-03 3.852212e-04 -1.469397e-03 4.743494e-04 -1.532068e-03 4.356086e-04 -1.495474e-03 2.473092e-04 -1.319423e-03 -5.920633e-05 -9.717696e-04 -4.606561e-04 -4.859443e-04 -9.638937e-04 6.052215e-05 -1.540739e-03 6.132265e-04 -2.099975e-03 1.136590e-03 -2.512195e-03 1.595059e-03 -2.657412e-03 1.902315e-03 -2.453334e-03 1.971728e-03 -1.733813e-03 1.751844e-03 -1.859748e-04 8.986949e-04 3.006012e-03 -6.631233e-03 -5.047169e-04 -2.047973e-03 1.410571e-03 3.068370e-04 
