# vtk DataFile Version 2.0
Comment goes here
ASCII

DATASET STRUCTURED_POINTS
FIELD FieldData 1
TIME 1 1 double
0.71000000
DIMENSIONS    128   16   1

ORIGIN    0.000   0.000   0.000
SPACING   0.0078125 0.015625   1.000

POINT_DATA   2048
SCALARS uY double
LOOKUP_TABLE default

1.494534e-06 2.920645e-06 7.874912e-07 2.617283e-06 -3.836323e-08 1.328637e-06 -5.723405e-07 6.431321e-07 -8.652262e-07 -1.012180e-06 -1.058497e-06 -3.546744e-06 4.147315e-07 -9.882315e-06 4.145197e-06 -1.716272e-05 9.848369e-06 -2.354593e-05 1.332596e-05 -2.701685e-05 1.256824e-05 -2.808669e-05 2.458447e-05 -2.437184e-05 3.775820e-05 -1.245758e-05 4.742453e-05 -4.254927e-06 4.114008e-05 -7.293964e-06 1.934518e-05 -1.319547e-05 -3.110585e-06 -5.888622e-06 -1.093527e-05 2.110247e-05 -8.109093e-06 4.860054e-05 -1.842626e-05 5.304825e-05 -5.214894e-05 3.380022e-05 -9.745832e-05 7.225654e-06 -1.322090e-04 -8.293795e-06 -1.460256e-04 -1.933618e-05 -1.606858e-04 -5.889928e-05 -2.092505e-04 -1.547215e-04 -3.033236e-04 -3.231451e-04 -4.704264e-04 -5.784810e-04 -4.056483e-04 -3.787949e-04 -3.005079e-04 -5.348894e-04 -5.347723e-05 -4.573932e-04 -8.196213e-04 -7.816345e-04 -8.666952e-04 -8.757866e-04 -1.172338e-03 -1.057530e-03 -9.438668e-04 -4.282850e-04 -4.018391e-04 -6.323457e-04 8.437602e-04 1.308560e-03 1.472684e-03 1.399236e-03 1.278919e-03 1.173521e-03 9.778998e-04 8.884884e-04 7.015804e-04 6.460491e-04 4.933739e-04 4.602539e-04 3.365772e-04 3.110560e-04 2.158834e-04 1.978141e-04 1.378533e-04 1.278020e-04 1.014494e-04 9.158598e-05 8.799842e-05 6.712223e-05 7.484849e-05 3.968740e-05 5.579180e-05 1.367576e-05 3.972879e-05 -3.945949e-07 3.340248e-05 -2.510957e-06 3.008841e-05 -2.743077e-06 2.374242e-05 -1.697026e-06 1.837612e-05 1.657553e-06 1.247867e-05 3.345680e-06 5.139505e-06 3.437684e-06 -2.371464e-06 2.402956e-06 -7.575299e-06 4.255329e-06 -6.055119e-06 1.029801e-05 -4.178820e-07 1.459964e-05 2.438907e-06 1.141782e-05 4.322302e-07 3.952514e-06 2.167950e-06 3.716970e-06 2.003475e-06 3.211705e-06 
1.022686e-03 6.814298e-04 2.991105e-03 1.231356e-03 4.852859e-03 -3.604839e-03 -4.192399e-03 4.737808e-03 1.211776e-03 5.386198e-03 5.008391e-03 1.122409e-02 1.560555e-02 1.679352e-02 6.574678e-03 5.100705e-03 1.965716e-03 -2.082658e-03 -3.936838e-03 -8.089359e-03 -1.701698e-02 -1.619769e-02 -9.484443e-03 -6.099959e-03 -3.493156e-03 -2.606854e-03 -1.253458e-03 -1.181192e-03 -2.980029e-04 -6.065893e-04 8.379561e-05 -3.855638e-04 2.170671e-04 -2.845182e-04 2.511596e-04 -2.025248e-04 2.403122e-04 -1.236258e-04 1.848087e-04 -6.464685e-05 8.600344e-05 -3.114336e-05 -3.853239e-05 -1.773056e-05 -1.625808e-04 -1.586091e-05 -2.718936e-04 -4.397888e-05 -3.976738e-04 -1.595637e-04 -6.069325e-04 -4.433260e-04 -1.006229e-03 -1.072989e-03 -1.815372e-03 -1.545097e-03 -4.079070e-04 3.313448e-04 -5.998602e-04 -2.772523e-03 -2.188065e-03 -1.454966e-03 -1.387515e-05 3.795529e-05 -8.105715e-04 -7.739626e-04 -4.646389e-04 7.825260e-04 1.303875e-03 2.419549e-03 5.822188e-04 -2.050480e-03 1.882135e-03 3.432084e-03 2.551120e-03 1.959736e-03 1.161308e-03 1.112306e-03 5.419000e-04 6.930593e-04 2.375598e-04 4.663977e-04 1.111858e-04 3.236201e-04 6.843004e-05 1.887422e-04 6.378969e-05 5.169084e-05 1.000481e-04 -6.650088e-05 1.767507e-04 -1.578293e-04 2.690021e-04 -2.300276e-04 3.400178e-04 -2.874793e-04 3.665730e-04 -3.161525e-04 3.449942e-04 -2.949030e-04 2.786268e-04 -2.126531e-04 1.650446e-04 -7.481548e-05 5.379024e-06 1.100794e-04 -1.891948e-04 3.198777e-04 -4.106454e-04 5.216214e-04 -6.360250e-04 6.852283e-04 -8.321957e-04 7.634146e-04 -9.660666e-04 6.790102e-04 -9.941795e-04 2.897852e-04 -8.387116e-04 -6.894170e-04 -2.601351e-04 -2.998501e-03 4.990282e-03 -1.463796e-03 -1.460912e-03 -1.279693e-03 -6.490396e-04 -2.775994e-04 
1.624837e-03 1.748127e-03 5.623065e-03 4.250373e-03 1.341324e-02 -1.234692e-02 -1.590080e-02 9.906992e-03 -2.809844e-03 7.599514e-03 -8.967112e-04 1.063283e-02 4.531680e-04 -6.153438e-03 -2.661636e-03 -1.692245e-03 -3.070921e-04 -1.788953e-04 2.724918e-03 1.289629e-03 8.014111e-03 -3.259559e-03 -5.800862e-03 -2.349694e-03 -2.739440e-03 -1.310289e-03 -1.279428e-03 -8.704717e-04 -4.455260e-04 -6.890122e-04 -4.421940e-06 -6.267993e-04 2.092158e-04 -5.693341e-04 3.181900e-04 -4.412805e-04 3.739265e-04 -2.746970e-04 3.363765e-04 -1.363201e-04 2.077246e-04 -3.424102e-05 2.483236e-05 3.528096e-05 -1.539332e-04 1.128831e-04 -2.627426e-04 1.968681e-04 -3.338023e-04 2.060288e-04 -4.593212e-04 4.082766e-05 -7.474895e-04 -4.107434e-04 -1.126466e-03 3.871750e-04 2.053263e-03 8.276317e-04 -1.119174e-03 -4.340600e-03 -5.084411e-03 -2.045942e-03 4.029683e-03 3.897097e-03 9.183481e-04 -4.947092e-04 -3.193395e-03 -4.472186e-03 -8.988873e-03 -9.010346e-03 -2.397458e-03 1.117811e-03 6.293041e-03 6.863711e-03 5.009035e-03 3.957680e-03 2.437636e-03 2.276638e-03 1.158268e-03 1.397222e-03 5.307439e-04 9.590046e-04 2.999556e-04 7.108684e-04 2.190536e-04 4.406701e-04 1.778839e-04 1.471818e-04 2.217778e-04 -9.893919e-05 3.621297e-04 -2.816110e-04 5.455921e-04 -4.256292e-04 6.858768e-04 -5.493365e-04 7.343659e-04 -6.208984e-04 6.869076e-04 -5.924528e-04 5.564363e-04 -4.370602e-04 3.307598e-04 -1.752358e-04 8.449455e-06 1.897603e-04 -3.780221e-04 6.091730e-04 -8.375949e-04 1.004116e-03 -1.322570e-03 1.340740e-03 -1.761141e-03 1.540812e-03 -2.104313e-03 1.493582e-03 -2.270169e-03 1.012586e-03 -2.057464e-03 -3.141176e-04 -5.882508e-04 -4.243235e-03 1.607830e-02 -6.480322e-03 -6.710837e-03 -2.405767e-04 -1.351520e-03 4.581583e-04 
2.140962e-03 4.411446e-03 1.012962e-02 1.372921e-02 3.032897e-02 -2.833052e-03 -1.085169e-02 3.533161e-03 -5.274145e-03 8.684833e-04 -4.641775e-03 -2.851442e-03 -4.812123e-03 4.900513e-03 -1.377685e-03 2.300089e-03 -1.307708e-03 1.422745e-03 -1.852955e-03 7.662033e-04 -3.382002e-03 3.548933e-03 4.140982e-03 1.994281e-03 2.150049e-03 9.005670e-04 1.527465e-03 3.255952e-04 1.271058e-03 -1.173587e-04 1.099432e-03 -4.559678e-04 9.599781e-04 -6.295408e-04 8.965075e-04 -5.630556e-04 9.046352e-04 -3.731484e-04 8.158403e-04 -2.237130e-04 5.950907e-04 -1.262436e-04 2.892370e-04 -7.506371e-05 1.743870e-06 4.258829e-05 -1.118327e-04 2.652875e-04 -8.083251e-05 4.703490e-04 -2.759442e-05 5.415088e-04 4.423695e-06 5.393558e-04 1.342970e-04 1.440574e-04 -1.204105e-03 -1.242446e-03 5.942124e-04 2.570323e-03 3.486655e-03 7.222375e-04 -2.082513e-03 -2.760215e-03 -3.565554e-04 1.866593e-04 1.508111e-03 2.144047e-03 4.797442e-03 3.628828e-03 1.025416e-03 -4.097450e-04 -2.545294e-03 -2.337782e-03 -2.083042e-03 -8.172551e-04 -1.304117e-03 -2.699666e-04 -1.088212e-03 -3.314440e-05 -8.596186e-04 2.179284e-04 -4.846355e-04 3.923405e-04 -1.949408e-04 2.491205e-04 -7.034888e-05 -7.811792e-05 1.038552e-04 -3.689384e-04 4.101907e-04 -5.700208e-04 7.742025e-04 -7.353104e-04 1.040800e-03 -9.137996e-04 1.139589e-03 -1.044081e-03 1.086752e-03 -1.028861e-03 9.277512e-04 -8.102410e-04 6.371074e-04 -4.350448e-04 2.080653e-04 1.170124e-04 -2.919640e-04 7.696451e-04 -9.147186e-04 1.391421e-03 -1.575117e-03 1.994643e-03 -2.131551e-03 2.518087e-03 -2.501516e-03 2.897683e-03 -2.549562e-03 3.017982e-03 -2.067558e-03 2.436079e-03 -3.187037e-04 -1.026170e-03 1.105713e-02 -3.771211e-02 -2.311891e-02 -5.003626e-03 -4.584599e-03 -5.082209e-05 
4.787265e-04 4.314279e-03 6.990498e-03 1.468286e-02 2.446080e-02 2.150618e-02 1.275589e-02 -6.644666e-04 1.182680e-04 2.846975e-03 -2.678132e-04 4.843052e-03 1.023140e-03 3.762091e-04 -3.184602e-04 5.935038e-04 -4.773155e-04 5.075831e-04 -4.883422e-04 2.494881e-04 -2.598753e-04 -1.794464e-03 -3.697182e-03 -6.228676e-04 -1.819787e-03 -7.864062e-05 -8.694977e-04 -3.172634e-05 -3.007382e-04 -1.841671e-04 2.893084e-05 -3.839488e-04 2.249550e-04 -5.128558e-04 3.868888e-04 -4.862181e-04 5.448951e-04 -3.756015e-04 5.927031e-04 -2.941569e-04 5.124566e-04 -2.478002e-04 3.440117e-04 -2.280600e-04 1.694935e-04 -1.465562e-04 1.082242e-04 3.087570e-05 1.514296e-04 2.199920e-04 2.224271e-04 3.399969e-04 2.712119e-04 3.402673e-04 1.687839e-04 -3.719667e-05 2.866036e-04 1.275959e-03 -1.383222e-04 -1.758147e-03 -1.422039e-03 1.199851e-04 2.203518e-03 2.015442e-03 1.642264e-03 -5.751915e-04 6.352799e-04 -1.753274e-03 -2.044848e-03 -7.128780e-04 -7.127582e-04 6.987223e-04 -2.241362e-05 1.042718e-03 -1.544123e-04 5.415146e-04 -4.161318e-04 3.756295e-04 -5.343000e-04 3.153475e-04 -4.891620e-04 3.706159e-04 -2.698338e-04 4.149034e-04 -7.599233e-05 2.541171e-04 1.387858e-05 -2.587309e-05 1.461115e-04 -2.711152e-04 3.762474e-04 -4.451955e-04 6.492318e-04 -5.906153e-04 8.520103e-04 -7.465912e-04 9.355276e-04 -8.710355e-04 9.130631e-04 -8.922435e-04 8.185958e-04 -7.655794e-04 6.336904e-04 -5.231149e-04 3.510555e-04 -1.500086e-04 1.232174e-05 2.981549e-04 -4.268829e-04 7.267439e-04 -9.135041e-04 1.143916e-03 -1.354842e-03 1.503951e-03 -1.705537e-03 1.759013e-03 -1.903603e-03 1.849193e-03 -1.909221e-03 1.665154e-03 -1.615048e-03 1.496210e-03 -8.993639e-03 -4.155084e-02 -2.021115e-02 -8.710118e-03 -5.644082e-03 -1.804176e-03 
1.286376e-04 1.446169e-03 2.412384e-03 4.787239e-03 6.220820e-03 1.629845e-02 1.510093e-02 6.243448e-04 3.223101e-03 3.978095e-03 2.639785e-03 9.799738e-03 5.192822e-03 2.694799e-04 -3.509954e-04 5.943655e-04 -5.043953e-04 5.290452e-04 -4.988727e-04 2.764249e-04 -1.855437e-04 -5.692636e-03 -7.214008e-03 -2.694682e-03 -3.245947e-03 -1.248889e-03 -1.486010e-03 -6.003684e-04 -5.382224e-04 -3.415665e-04 -4.567023e-05 -2.764217e-04 2.057614e-04 -2.733697e-04 3.386330e-04 -2.621492e-04 4.069582e-04 -2.352690e-04 4.117591e-04 -2.123802e-04 3.555455e-04 -2.019946e-04 2.515536e-04 -2.075709e-04 1.183766e-04 -2.272815e-04 -3.738270e-05 -2.898599e-04 -2.588679e-04 -4.752239e-04 -6.410828e-04 -8.956288e-04 -1.340146e-03 -1.700835e-03 -2.128107e-03 -3.719962e-04 2.191831e-03 -8.663504e-04 -2.218094e-03 -2.584777e-03 -5.617577e-03 -3.818082e-03 3.116501e-03 7.335632e-04 -1.120180e-03 -3.076536e-04 -4.722785e-03 -2.938757e-03 -6.614549e-03 -9.641094e-03 -2.441370e-03 1.755031e-03 6.793297e-03 9.645790e-03 6.769457e-03 5.669110e-03 3.544771e-03 3.216650e-03 1.859853e-03 1.904118e-03 9.767713e-04 1.183455e-03 5.554992e-04 7.569750e-04 3.687307e-04 4.438484e-04 2.935788e-04 1.843216e-04 2.986096e-04 -2.378630e-05 3.638930e-04 -1.835899e-04 4.553499e-04 -3.088206e-04 5.302170e-04 -4.087167e-04 5.629892e-04 -4.725136e-04 5.472933e-04 -4.793413e-04 4.857524e-04 -4.156400e-04 3.754537e-04 -2.870870e-04 2.164553e-04 -1.028645e-04 1.603759e-05 1.079828e-04 -2.269196e-04 3.030650e-04 -4.960719e-04 4.454930e-04 -7.679595e-04 4.760881e-04 -1.031778e-03 3.115104e-04 -1.286591e-03 -1.447183e-04 -1.546086e-03 -8.954494e-04 -1.896185e-03 -1.077228e-03 -1.062296e-02 -1.652949e-02 -5.592400e-03 -5.966702e-03 -2.513015e-03 -2.017442e-03 
3.300617e-04 1.590167e-03 2.714386e-03 4.069277e-03 4.898893e-03 6.179526e-03 6.104511e-03 4.438637e-03 3.839204e-03 6.115458e-03 5.054598e-03 1.294197e-02 1.199118e-02 2.062614e-04 -5.895078e-05 1.951066e-04 -1.411084e-04 1.518166e-04 -1.722345e-04 5.486951e-05 -1.781115e-04 -9.661172e-03 -1.023557e-02 -4.445066e-03 -5.245379e-03 -2.456786e-03 -2.893254e-03 -1.341145e-03 -1.489127e-03 -7.533498e-04 -6.993796e-04 -4.782102e-04 -2.649952e-04 -3.522703e-04 -2.625783e-05 -2.823296e-04 9.825622e-05 -2.375490e-04 1.357072e-04 -2.195417e-04 9.857815e-05 -2.339848e-04 -3.736580e-06 -2.911821e-04 -1.696137e-04 -4.119053e-04 -4.214654e-04 -6.520661e-04 -8.312061e-04 -1.112332e-03 -1.510607e-03 -1.902360e-03 -2.561944e-03 -3.029381e-03 -3.551661e-03 -2.238900e-03 -5.330278e-04 -2.151355e-03 -1.400994e-03 -8.038727e-04 -1.758352e-03 -2.662605e-03 -5.135617e-04 -2.496011e-03 -2.480003e-03 3.273604e-04 -2.968188e-03 1.319018e-03 9.411205e-04 -8.433361e-04 1.179243e-03 -1.440478e-03 3.121811e-03 6.934917e-03 5.491545e-03 5.000965e-03 3.377451e-03 3.142676e-03 1.999223e-03 1.966720e-03 1.162165e-03 1.242863e-03 6.993559e-04 7.885702e-04 4.572279e-04 4.683826e-04 3.378641e-04 2.222968e-04 3.013385e-04 3.405260e-05 3.223362e-04 -1.064888e-04 3.702628e-04 -2.123346e-04 4.118294e-04 -2.913653e-04 4.255193e-04 -3.379272e-04 4.040347e-04 -3.396101e-04 3.471057e-04 -2.889090e-04 2.524893e-04 -1.902560e-04 1.197786e-04 -5.326871e-05 -4.745484e-05 9.930904e-05 -2.496836e-04 2.348630e-04 -4.791796e-04 3.199372e-04 -7.263469e-04 3.052383e-04 -9.916223e-04 1.208868e-04 -1.284885e-03 -3.316198e-04 -1.632565e-03 -1.204507e-03 -2.111139e-03 -2.695907e-03 -3.399319e-03 -6.528334e-03 -3.490615e-03 -3.781982e-03 -1.899142e-03 -1.127613e-03 
6.840444e-05 4.771396e-04 9.107642e-04 1.608362e-03 1.840152e-03 2.784223e-03 2.781383e-03 2.072880e-03 1.980971e-03 2.939719e-03 2.477658e-03 6.643875e-03 6.022496e-03 1.016671e-04 -5.862200e-05 1.284481e-04 -1.084696e-04 1.142751e-04 -1.136719e-04 5.356478e-05 -8.596042e-05 -4.644233e-03 -4.830901e-03 -2.072461e-03 -2.485898e-03 -1.222428e-03 -1.359600e-03 -6.812490e-04 -6.645912e-04 -3.719326e-04 -2.779114e-04 -2.184484e-04 -7.643859e-05 -1.487870e-04 2.016244e-05 -1.194716e-04 5.440021e-05 -1.135828e-04 4.253961e-05 -1.308320e-04 -1.196383e-05 -1.788570e-04 -1.134631e-04 -2.733455e-04 -2.773198e-04 -4.433702e-04 -5.369648e-04 -7.375174e-04 -9.443291e-04 -1.212903e-03 -1.541357e-03 -1.884802e-03 -2.288129e-03 -2.637543e-03 -2.814271e-03 -2.135552e-03 9.741960e-05 1.273122e-03 -5.939054e-04 -4.428464e-03 -3.953139e-03 -9.416170e-04 3.430159e-03 4.330367e-03 1.230575e-03 -5.404942e-04 -2.721328e-03 -4.949162e-03 -9.274190e-03 -7.109965e-03 -2.201396e-03 -6.404121e-04 4.004801e-03 6.318547e-03 5.746629e-03 5.364437e-03 4.294960e-03 3.865178e-03 2.958051e-03 2.636987e-03 1.958684e-03 1.752130e-03 1.286616e-03 1.145680e-03 8.576851e-04 7.306701e-04 5.924044e-04 4.427775e-04 4.355544e-04 2.418693e-04 3.488059e-04 1.017101e-04 3.026722e-04 3.847891e-06 2.742171e-04 -6.309683e-05 2.485970e-04 -1.033255e-04 2.182803e-04 -1.170618e-04 1.798234e-04 -1.051131e-04 1.307926e-04 -7.156760e-05 6.979546e-05 -2.331643e-05 -3.382809e-06 2.851379e-05 -8.918298e-05 6.878125e-05 -1.870957e-04 7.955165e-05 -2.974012e-04 3.843214e-05 -4.242360e-04 -7.986475e-05 -5.778514e-04 -2.995085e-04 -7.844336e-04 -6.489794e-04 -1.128253e-03 -1.212935e-03 -1.813555e-03 -2.442005e-03 -1.372455e-03 -1.656067e-03 -7.141473e-04 -6.243510e-04 
-1.395516e-06 -5.991920e-07 -1.279173e-06 -9.907379e-07 -1.255781e-06 -9.726421e-07 -1.392921e-06 -7.460856e-07 -1.670363e-06 -2.510190e-07 -1.643180e-06 6.229986e-07 -9.991024e-07 -3.936168e-07 -1.800035e-07 -2.206260e-07 1.056324e-07 -1.241332e-07 4.085346e-07 -5.471192e-08 6.629625e-07 -2.577150e-05 1.948601e-05 -2.101214e-05 2.116206e-05 -1.725855e-05 2.020619e-05 -1.517904e-05 1.317948e-05 -1.602518e-05 2.235507e-07 -1.798394e-05 -1.547393e-05 -1.868357e-05 -3.196054e-05 -2.021769e-05 -5.362880e-05 -3.225933e-05 -9.113765e-05 -6.772425e-05 -1.552883e-04 -1.377860e-04 -2.560144e-04 -2.547229e-04 -4.080774e-04 -4.389903e-04 -6.378749e-04 -7.229619e-04 -9.788200e-04 -1.133801e-03 -1.436862e-03 -1.642557e-03 -1.923727e-03 -2.100773e-03 -2.202286e-03 -2.139013e-03 -1.555064e-03 -1.201330e-03 -9.601263e-04 -1.289487e-03 -9.965038e-04 -9.548331e-04 -6.114957e-04 -5.370816e-04 -7.603128e-04 -3.772243e-04 -7.230927e-04 -2.326760e-04 -2.837066e-04 2.408610e-04 8.610230e-04 7.457231e-04 2.084658e-03 2.731552e-03 2.856146e-03 2.838416e-03 2.523919e-03 2.319644e-03 1.923317e-03 1.696784e-03 1.361714e-03 1.171467e-03 9.327373e-04 7.817783e-04 6.310042e-04 5.069000e-04 4.263531e-04 3.190619e-04 2.923430e-04 1.959126e-04 2.074891e-04 1.179173e-04 1.527628e-04 6.784734e-05 1.133163e-04 3.400984e-05 8.179764e-05 1.187717e-05 5.710517e-05 4.949471e-07 3.942579e-05 -2.183252e-06 2.692445e-05 6.077368e-08 1.758191e-05 4.766985e-06 1.081659e-05 1.018829e-05 5.591661e-06 1.440978e-05 1.108202e-06 1.663531e-05 -2.651131e-06 1.699246e-05 -5.050089e-06 1.650275e-05 -5.288680e-06 1.562215e-05 -3.991146e-06 1.344533e-05 -2.696597e-06 9.328753e-06 -1.965620e-06 4.690283e-06 -1.716680e-06 1.918205e-06 -1.543280e-06 2.931087e-07 
-7.153042e-05 -4.779882e-04 -9.137458e-04 -1.609928e-03 -1.843250e-03 -2.785443e-03 -2.785524e-03 -2.073352e-03 -1.986208e-03 -2.938446e-03 -2.483265e-03 -6.639818e-03 -6.028026e-03 -1.018929e-04 5.865641e-05 -1.283626e-04 1.089664e-04 -1.143807e-04 1.147702e-04 -5.383296e-05 8.706186e-05 4.601464e-03 4.873289e-03 2.035685e-03 2.530302e-03 1.192398e-03 1.402132e-03 6.556505e-04 6.945401e-04 3.463779e-04 2.850921e-04 1.920829e-04 5.682742e-05 1.252965e-04 -6.647787e-05 9.905122e-05 -1.347620e-04 7.898777e-05 -1.833781e-04 4.173910e-05 -2.345863e-04 -2.430876e-05 -3.008999e-04 -1.246291e-04 -3.928318e-04 -2.669061e-04 -5.260798e-04 -4.651001e-04 -7.174961e-04 -7.251051e-04 -9.582238e-04 -1.008818e-03 -1.172627e-03 -1.198940e-03 -1.202379e-03 -1.115145e-03 -8.680404e-04 -7.631875e-04 -7.539966e-04 -1.020541e-03 -8.085716e-04 -5.744804e-04 -2.270537e-04 -1.210369e-04 -4.970995e-04 -7.074130e-04 -1.202161e-03 -1.375986e-03 -1.665459e-03 -1.291499e-03 -4.891965e-04 2.530023e-06 1.096365e-03 1.579031e-03 2.022893e-03 2.053992e-03 2.103944e-03 1.898554e-03 1.801028e-03 1.515675e-03 1.401046e-03 1.120607e-03 1.033093e-03 7.951220e-04 7.330837e-04 5.543629e-04 4.999905e-04 3.911181e-04 3.242360e-04 2.910591e-04 1.933957e-04 2.352265e-04 9.418458e-05 2.039101e-04 1.703460e-05 1.825543e-04 -3.986140e-05 1.641101e-04 -7.294833e-05 1.449986e-04 -7.985897e-05 1.205823e-04 -6.285119e-05 8.645385e-05 -2.521871e-05 4.408663e-05 3.160023e-05 6.497774e-07 1.053402e-04 -3.301079e-05 1.933778e-04 -4.084103e-05 2.955083e-04 -4.970175e-07 4.167666e-04 1.152578e-04 5.689236e-04 3.316675e-04 7.771466e-04 6.757231e-04 1.122974e-03 1.230971e-03 1.809924e-03 2.450961e-03 1.368939e-03 1.659900e-03 7.108131e-04 6.251852e-04 
-3.319691e-04 -1.592726e-03 -2.716080e-03 -4.072578e-03 -4.900546e-03 -6.182207e-03 -6.106616e-03 -4.440922e-03 -3.843346e-03 -6.116496e-03 -5.058852e-03 -1.293988e-02 -1.199417e-02 -2.068425e-04 5.851031e-05 -1.952440e-04 1.412506e-04 -1.519568e-04 1.731056e-04 -5.532199e-05 1.786332e-04 9.602921e-03 1.027279e-02 4.397831e-03 5.296364e-03 2.426039e-03 2.955254e-03 1.320318e-03 1.537236e-03 7.238176e-04 7.086848e-04 4.348296e-04 2.343845e-04 3.148320e-04 -2.122193e-05 2.784337e-04 -1.494342e-04 2.569251e-04 -2.249055e-04 2.038817e-04 -2.885328e-04 1.111810e-04 -3.485012e-04 -5.389804e-06 -3.995460e-04 -1.287920e-04 -4.482234e-04 -2.668161e-04 -5.251117e-04 -4.424439e-04 -6.513836e-04 -6.489984e-04 -7.940473e-04 -8.196148e-04 -8.621377e-04 -8.562293e-04 -7.694493e-04 -7.231653e-04 -6.197382e-04 -6.153830e-04 -5.200847e-04 -4.820159e-04 -4.350942e-04 -3.502350e-04 -3.663676e-04 -2.315642e-04 -2.374796e-04 -9.005106e-05 2.376739e-05 1.374866e-04 4.333231e-04 4.368244e-04 8.803594e-04 8.406240e-04 1.160396e-03 9.505206e-04 1.163698e-03 8.331480e-04 1.008405e-03 6.324759e-04 8.073325e-04 4.470990e-04 6.133055e-04 3.097347e-04 4.295373e-04 2.189158e-04 2.561845e-04 1.801684e-04 1.074942e-04 1.950933e-04 -1.271969e-05 2.431453e-04 -1.155366e-04 2.914564e-04 -2.100860e-04 3.180282e-04 -2.847894e-04 3.221919e-04 -3.150529e-04 3.079631e-04 -2.872611e-04 2.661121e-04 -2.103305e-04 1.811888e-04 -9.444444e-05 6.026310e-05 6.315785e-05 -7.398492e-05 2.579994e-04 -1.980191e-04 4.784910e-04 -2.792653e-04 7.154653e-04 -2.680802e-04 9.725911e-04 -8.667727e-05 1.267750e-03 3.676060e-04 1.624148e-03 1.238736e-03 2.107688e-03 2.716479e-03 3.397302e-03 6.530567e-03 3.487938e-03 3.781849e-03 1.896910e-03 1.126051e-03 
-1.300762e-04 -1.449660e-03 -2.413423e-03 -4.792387e-03 -6.219687e-03 -1.630164e-02 -1.510546e-02 -6.278467e-04 -3.229675e-03 -3.978773e-03 -2.646539e-03 -9.792666e-03 -5.201771e-03 -2.665538e-04 3.501584e-04 -5.923092e-04 5.043358e-04 -5.292656e-04 5.021231e-04 -2.816925e-04 1.859106e-04 5.642846e-03 7.252701e-03 2.646531e-03 3.303840e-03 1.221315e-03 1.564960e-03 5.869398e-04 6.038852e-04 3.142025e-04 6.312037e-05 2.285415e-04 -2.337921e-04 2.392389e-04 -3.678380e-04 2.951059e-04 -4.017842e-04 3.353194e-04 -4.072599e-04 3.135173e-04 -4.185686e-04 2.349197e-04 -4.275604e-04 1.367296e-04 -4.083498e-04 5.882899e-05 -3.541436e-04 -4.281472e-07 -3.041615e-04 -7.831698e-05 -3.031650e-04 -1.928042e-04 -3.482734e-04 -3.081798e-04 -3.843020e-04 -3.639279e-04 -3.550325e-04 -3.392897e-04 -3.256161e-04 -3.504517e-04 -3.103334e-04 -2.834101e-04 -2.809360e-04 -2.398017e-04 -3.220017e-04 -3.297517e-04 -4.140968e-04 -4.291269e-04 -3.888666e-04 -3.717838e-04 -1.060307e-04 -1.490702e-04 3.341077e-04 2.215708e-04 6.419156e-04 3.552256e-04 7.296366e-04 3.244499e-04 6.917902e-04 2.376250e-04 6.060556e-04 1.656856e-04 5.027216e-04 1.234018e-04 3.696892e-04 1.008267e-04 2.104992e-04 1.164682e-04 5.906528e-05 1.855842e-04 -7.048700e-05 2.859860e-04 -1.908618e-04 3.742849e-04 -3.140616e-04 4.231951e-04 -4.196107e-04 4.384792e-04 -4.671046e-04 4.308687e-04 -4.349421e-04 3.864115e-04 -3.397888e-04 2.774946e-04 -1.986980e-04 1.141697e-04 -4.445076e-06 -7.149703e-05 2.345865e-04 -2.526352e-04 4.956172e-04 -3.920463e-04 7.555743e-04 -4.313367e-04 1.007582e-03 -2.737021e-04 1.264920e-03 1.851951e-04 1.536896e-03 9.348538e-04 1.892297e-03 1.096307e-03 1.062412e-02 1.652304e-02 5.589498e-03 5.962939e-03 2.510777e-03 2.014384e-03 
-4.781068e-04 -4.317987e-03 -6.988919e-03 -1.468872e-02 -2.445844e-02 -2.151425e-02 -1.275882e-02 6.617481e-04 -1.253283e-04 -2.852191e-03 2.593969e-04 -4.838019e-03 -1.025590e-03 -3.744866e-04 3.164337e-04 -5.920030e-04 4.766937e-04 -5.066571e-04 4.929260e-04 -2.512434e-04 2.610619e-04 1.702919e-03 3.678034e-03 5.197516e-04 1.884617e-03 6.998736e-05 1.045449e-03 8.726237e-05 4.621417e-04 1.681128e-04 -1.813282e-05 2.393984e-04 -3.656292e-04 3.419482e-04 -4.990134e-04 5.236697e-04 -4.482316e-04 6.539734e-04 -4.125204e-04 5.910073e-04 -4.605718e-04 3.840612e-04 -5.264654e-04 1.633565e-04 -4.872931e-04 8.782365e-05 -2.756675e-04 1.490319e-04 -3.105659e-05 1.783650e-04 6.382668e-05 6.457999e-05 -2.109339e-05 -1.162295e-04 -1.414005e-04 -2.130993e-04 -1.646727e-04 -1.516762e-04 -8.351560e-05 -2.150859e-05 1.123552e-06 7.545587e-05 -1.316036e-05 6.228697e-05 -6.673452e-05 -9.451284e-06 -1.184711e-04 -9.388594e-05 -9.191534e-05 -1.142528e-04 4.346481e-05 -1.275767e-04 2.407867e-04 -9.077794e-05 3.303224e-04 -2.299923e-04 2.903814e-04 -3.986514e-04 2.564958e-04 -4.642811e-04 2.863168e-04 -3.861874e-04 3.437310e-04 -2.537098e-04 2.717502e-04 -1.937024e-04 5.148217e-05 -1.074683e-04 -1.508390e-04 1.121137e-04 -2.820461e-04 4.065574e-04 -4.108229e-04 6.337781e-04 -6.156988e-04 7.176481e-04 -8.361013e-04 7.260523e-04 -9.263796e-04 7.383825e-04 -8.135963e-04 7.093621e-04 -5.991750e-04 4.965390e-04 -3.590145e-04 1.439147e-04 -7.999931e-06 -2.436022e-04 4.409260e-04 -6.546342e-04 9.159050e-04 -1.069753e-03 1.331127e-03 -1.468225e-03 1.638408e-03 -1.743484e-03 1.854364e-03 -1.793864e-03 1.917622e-03 -1.574764e-03 1.634264e-03 -1.456467e-03 8.984522e-03 4.148334e-02 2.021097e-02 8.704562e-03 5.644287e-03 1.799655e-03 
-2.137989e-03 -4.410343e-03 -1.012673e-02 -1.372761e-02 -3.033113e-02 2.826897e-03 1.085664e-02 -3.530746e-03 5.270653e-03 -8.748300e-04 4.633910e-03 2.848995e-03 4.815484e-03 -4.889327e-03 1.359624e-03 -2.300060e-03 1.295200e-03 -1.418437e-03 1.874015e-03 -8.153573e-04 3.411637e-03 -3.691034e-03 -4.177239e-03 -2.131472e-03 -2.066272e-03 -8.959568e-04 -1.288238e-03 -2.272764e-04 -1.047929e-03 1.173618e-04 -1.079666e-03 2.717822e-04 -1.149591e-03 3.920283e-04 -1.055088e-03 5.915745e-04 -7.887483e-04 7.152293e-04 -5.976500e-04 5.816161e-04 -5.596185e-04 2.653483e-04 -5.777283e-04 -5.586841e-05 -4.818737e-04 -1.649117e-04 -1.760261e-04 -7.257709e-05 1.543511e-04 -7.892207e-06 2.678127e-04 -1.201551e-04 1.326940e-04 -3.025478e-04 -4.682070e-05 -3.575562e-04 -1.152111e-04 -2.233161e-04 -2.079344e-05 5.541655e-05 1.018491e-04 2.286002e-04 1.106685e-04 2.463072e-04 2.382785e-05 1.556047e-04 -9.813474e-05 8.804530e-07 -1.694143e-04 -1.004657e-04 -8.860145e-05 -9.831538e-05 5.473173e-05 -1.986381e-04 1.328274e-04 -3.929673e-04 1.146270e-04 -5.953525e-04 1.152814e-04 -6.558230e-04 1.988994e-04 -5.264804e-04 3.136762e-04 -3.315681e-04 2.430718e-04 -2.466020e-04 -3.689615e-05 -1.336640e-04 -2.922884e-04 1.564203e-04 -4.458620e-04 5.439891e-04 -5.875283e-04 8.341598e-04 -8.233459e-04 9.204119e-04 -1.071877e-03 8.935071e-04 -1.137741e-03 8.612044e-04 -9.249381e-04 7.632344e-04 -5.771439e-04 4.068411e-04 -2.027869e-04 -1.409029e-04 3.122402e-04 -7.298520e-04 9.432174e-04 -1.341208e-03 1.583370e-03 -1.945633e-03 2.103250e-03 -2.517771e-03 2.414965e-03 -2.915213e-03 2.491612e-03 -2.967093e-03 2.092984e-03 -2.321901e-03 3.609581e-04 1.085259e-03 -1.107877e-02 3.762016e-02 2.312571e-02 5.005461e-03 4.589531e-03 5.056209e-05 
-1.622104e-03 -1.743009e-03 -5.621673e-03 -4.243282e-03 -1.341753e-02 1.234886e-02 1.590441e-02 -9.901537e-03 2.806735e-03 -7.597166e-03 8.886581e-04 -1.062674e-02 -4.625686e-04 6.136232e-03 2.667853e-03 1.653970e-03 3.334775e-04 1.247454e-04 -2.690286e-03 -1.339943e-03 -8.031246e-03 3.167666e-03 5.838119e-03 2.269880e-03 2.829919e-03 1.300518e-03 1.437795e-03 9.070024e-04 5.893622e-04 6.857739e-04 4.514749e-05 5.475606e-04 -2.742579e-04 4.794810e-04 -3.819829e-04 4.836007e-04 -3.349424e-04 4.688175e-04 -2.736573e-04 3.457713e-04 -2.553640e-04 1.435510e-04 -2.489039e-04 -5.290293e-05 -1.851234e-04 -1.447513e-04 -3.108344e-05 -1.372023e-04 1.236558e-04 -1.339500e-04 1.665679e-04 -2.038501e-04 8.325174e-05 -2.999144e-04 -3.123889e-05 -3.314262e-04 -1.011134e-04 -2.638678e-04 -9.618598e-05 -1.236924e-04 -8.927073e-05 -7.628032e-05 -1.951510e-04 -1.131493e-04 -3.074230e-04 -1.997237e-04 -4.286429e-04 -3.142232e-04 -4.427039e-04 -2.993825e-04 -2.378134e-04 -1.009169e-04 9.264247e-05 7.398936e-05 3.367941e-04 1.152208e-04 4.297801e-04 4.797058e-05 4.375791e-04 -1.788300e-05 4.284521e-04 -1.816731e-05 4.064351e-04 1.919500e-05 2.943640e-04 3.267425e-05 8.971088e-05 8.100119e-05 -1.037779e-04 2.240272e-04 -2.455018e-04 4.199367e-04 -3.683057e-04 5.725242e-04 -5.118156e-04 6.234094e-04 -6.348575e-04 6.009665e-04 -6.469225e-04 5.444888e-04 -5.025011e-04 4.251988e-04 -2.595019e-04 1.652620e-04 3.391556e-05 -2.019089e-04 4.156281e-04 -5.988691e-04 8.670857e-04 -9.908458e-04 1.332460e-03 -1.329161e-03 1.746485e-03 -1.547103e-03 2.062205e-03 -1.500932e-03 2.242225e-03 -9.835706e-04 2.069152e-03 3.752101e-04 6.120514e-04 4.284903e-03 -1.608714e-02 6.455258e-03 6.718693e-03 2.481171e-04 1.356371e-03 -4.535923e-04 
-1.019606e-03 -6.770791e-04 -2.989243e-03 -1.226645e-03 -4.853715e-03 3.606523e-03 4.192559e-03 -4.735962e-03 -1.213340e-03 -5.385715e-03 -5.011851e-03 -1.122365e-02 -1.561045e-02 -1.680780e-02 -6.561152e-03 -5.142085e-03 -1.932212e-03 2.024810e-03 3.964955e-03 8.043721e-03 1.701277e-02 1.613366e-02 9.535549e-03 6.045062e-03 3.570886e-03 2.579304e-03 1.354674e-03 1.171059e-03 3.839510e-04 5.834279e-04 -5.208538e-05 3.400676e-04 -2.408547e-04 2.490244e-04 -2.922128e-04 2.271141e-04 -2.710981e-04 2.085466e-04 -2.410362e-04 1.482193e-04 -2.318008e-04 4.886709e-05 -2.336073e-04 -5.562595e-05 -2.202753e-04 -1.307082e-04 -1.854164e-04 -1.820778e-04 -1.670705e-04 -2.523511e-04 -2.123363e-04 -3.704447e-04 -3.241012e-04 -5.113577e-04 -4.409103e-04 -5.907452e-04 -4.097675e-04 -5.152010e-04 -4.588632e-04 -6.823335e-04 -5.073061e-04 -4.484537e-04 -3.025572e-04 -1.813458e-04 -2.492334e-04 -1.109764e-04 -1.961279e-04 2.128097e-05 1.182990e-05 2.285051e-04 2.897313e-04 1.827345e-04 6.761868e-04 6.949870e-04 8.375606e-04 6.354004e-04 6.966036e-04 4.354568e-04 5.206084e-04 2.538715e-04 3.776618e-04 1.389805e-04 2.687736e-04 8.090544e-05 1.614590e-04 5.393263e-05 4.489140e-05 6.344437e-05 -5.773691e-05 1.192582e-04 -1.345613e-04 2.011561e-04 -1.972849e-04 2.693552e-04 -2.587823e-04 2.973320e-04 -3.050777e-04 2.882410e-04 -3.041370e-04 2.519686e-04 -2.385705e-04 1.792675e-04 -1.222318e-04 5.031600e-05 2.910485e-05 -1.259033e-04 2.166742e-04 -3.229351e-04 4.288002e-04 -5.178173e-04 6.401511e-04 -6.797938e-04 8.207063e-04 -7.603447e-04 9.435337e-04 -6.714529e-04 9.771675e-04 -2.669943e-04 8.370448e-04 7.227309e-04 2.657630e-04 3.023468e-03 -4.992128e-03 1.468554e-03 1.465746e-03 1.285329e-03 6.530311e-04 2.820425e-04 
