# vtk DataFile Version 2.0
Comment goes here
ASCII

DATASET STRUCTURED_POINTS
FIELD FieldData 1
TIME 1 1 double
0.74000000
DIMENSIONS    128   16   1

ORIGIN    0.000   0.000   0.000
SPACING   0.0078125 0.015625   1.000

POINT_DATA   2048
SCALARS fMag double
LOOKUP_TABLE default

0 0 0 0 0 0 0 0 0 0 0 0 0 0 0 0 0 0 0 0 0 0 0 0 0 0 0 0 0 0 0 0 0 0 0 0 0 0 0 0 0 0 0 0 0 0 0 0 0 0 0 0 0 0 0 0 0 0 0 0 0 0 0 0 0 0 0 0 0 0 0 0 0 0 0 0 0 0 0 0 0 0 0 0 0 0 0 0 0 0 0 0 0 0 0 0 0 0 0 0 0 0 0 0 0 0 0 0 0 0 0 0 0 0 0 0 0 0 0 0 0 0 0 0 0 0 0 0 
0 0 0 0 0 0 0 0 0 0 0 0 0 0 0 0 0 0 0 0 0 0 0 0 0 0 0 0 0 0 0 0 0 0 0 0 0 0 0 0 0 0 0 0 0 0 0 0 0 0 0 0 0 0 0 0 0 0 0 0 0 0 0 0 0 0 0 0 0 0 0 0 0 0 0 0 0 0 0 0 0 0 0 0 0 0 0 0 0 0 0 0 0 0 0 0 0 0 0 0 0 0 0 0 0 0 0 0 0 0 0 0 0 0 0 0 0 0 0 0 0 0 0 0 0 0 0 0 
0 0 0 0 0 1.141745e+00 2.461604e+00 1.929087e+00 1.972800e+00 1.794541e+00 2.435802e+00 2.086858e+00 2.978976e+00 4.008368e+00 5.712398e+00 6.992552e+00 1.095443e+01 1.412778e+01 1.752786e+01 2.106832e+01 2.512514e+01 2.567360e+01 2.517852e+01 2.526260e+01 2.485600e+01 2.480252e+01 2.447836e+01 2.432016e+01 2.407842e+01 2.383643e+01 2.364699e+01 2.332288e+01 2.316163e+01 2.279669e+01 2.267919e+01 2.231797e+01 2.221203e+01 2.183956e+01 2.170397e+01 2.135978e+01 2.122174e+01 2.094204e+01 2.075142e+01 2.047443e+01 2.017045e+01 1.990804e+01 1.955529e+01 1.938149e+01 1.904157e+01 1.894898e+01 1.861198e+01 1.853173e+01 1.817753e+01 1.804287e+01 1.767566e+01 1.745662e+01 1.712198e+01 1.614491e+01 1.515850e+01 1.583122e+01 1.568334e+01 1.681556e+01 1.647253e+01 1.521899e+01 1.678619e+01 1.554913e+01 1.813492e+01 1.703984e+01 1.819366e+01 1.889860e+01 1.644208e+01 1.693872e+01 1.510887e+01 1.405968e+01 1.344744e+01 1.321113e+01 1.275218e+01 1.260411e+01 1.223531e+01 1.211015e+01 1.175859e+01 1.159326e+01 1.123720e+01 1.102544e+01 1.070283e+01 1.049827e+01 1.027532e+01 1.008633e+01 9.904774e+00 9.609297e+00 9.369240e+00 8.942234e+00 8.722910e+00 8.296979e+00 8.209881e+00 7.824913e+00 7.815869e+00 7.395151e+00 7.379675e+00 6.911557e+00 6.869609e+00 6.383065e+00 6.292878e+00 5.836571e+00 5.706597e+00 5.346364e+00 5.149485e+00 4.883093e+00 4.566962e+00 4.421752e+00 4.016968e+00 4.043360e+00 3.558164e+00 3.702755e+00 3.087549e+00 3.257517e+00 2.530233e+00 2.693891e+00 1.966900e+00 2.101625e+00 1.492882e+00 1.916017e+00 1.620916e+00 5.199236e-01 0 0 0 0 
0 0 0 0 0 3.357710e+00 7.241946e+00 5.675740e+00 5.801214e+00 5.275641e+00 7.161141e+00 6.133699e+00 8.758101e+00 1.178953e+01 1.680481e+01 2.057033e+01 3.222458e+01 4.156099e+01 5.156482e+01 6.198324e+01 7.392174e+01 7.553570e+01 7.407863e+01 7.432612e+01 7.312952e+01 7.297217e+01 7.201823e+01 7.155265e+01 7.084126e+01 7.012910e+01 6.957159e+01 6.861771e+01 6.814315e+01 6.706914e+01 6.672334e+01 6.566032e+01 6.534853e+01 6.425243e+01 6.385343e+01 6.284059e+01 6.243437e+01 6.161132e+01 6.105037e+01 6.023529e+01 5.934076e+01 5.856859e+01 5.753053e+01 5.701912e+01 5.601885e+01 5.574637e+01 5.475474e+01 5.451860e+01 5.347638e+01 5.308018e+01 5.199969e+01 5.135524e+01 5.054826e+01 4.936815e+01 4.824225e+01 4.930933e+01 4.818901e+01 4.929347e+01 4.942416e+01 4.698320e+01 4.944586e+01 4.626694e+01 4.961542e+01 4.701834e+01 4.825957e+01 4.924479e+01 4.578860e+01 4.702628e+01 4.400872e+01 4.136007e+01 3.955870e+01 3.886345e+01 3.751313e+01 3.707750e+01 3.599246e+01 3.562423e+01 3.458995e+01 3.410356e+01 3.305606e+01 3.243306e+01 3.148397e+01 3.088216e+01 3.022626e+01 2.967026e+01 2.913612e+01 2.826681e+01 2.756057e+01 2.630431e+01 2.565907e+01 2.440600e+01 2.414975e+01 2.301725e+01 2.299066e+01 2.175305e+01 2.170759e+01 2.033063e+01 2.020735e+01 1.877626e+01 1.851111e+01 1.716901e+01 1.678679e+01 1.572727e+01 1.514815e+01 1.436457e+01 1.343454e+01 1.300729e+01 1.181639e+01 1.189382e+01 1.046636e+01 1.089151e+01 9.081769e+00 9.581794e+00 7.442887e+00 7.925378e+00 5.790186e+00 6.196110e+00 4.438123e+00 5.680304e+00 4.784099e+00 1.528855e+00 0 0 0 0 
0 0 0 0 0 2.319188e+00 5.003367e+00 3.921510e+00 4.006681e+00 3.643017e+00 4.945168e+00 4.234905e+00 6.047985e+00 3.884001e+01 4.879616e+01 4.409680e+01 5.557537e+01 5.200684e+01 6.030120e+01 6.374331e+01 6.383963e+01 5.218904e+01 5.118211e+01 5.135314e+01 5.052624e+01 5.041752e+01 4.975832e+01 4.943659e+01 4.894500e+01 4.845285e+01 4.806759e+01 4.740840e+01 4.708045e+01 4.633825e+01 4.609928e+01 4.536469e+01 4.514923e+01 4.439180e+01 4.411608e+01 4.341620e+01 4.313550e+01 4.256677e+01 4.217915e+01 4.161593e+01 4.099780e+01 4.046423e+01 3.974692e+01 3.939353e+01 3.870235e+01 3.851407e+01 3.782886e+01 3.766570e+01 3.694555e+01 3.667180e+01 3.592523e+01 3.547996e+01 3.485579e+01 3.533074e+01 3.559324e+01 3.333054e+01 3.407249e+01 3.080445e+01 3.231661e+01 3.258898e+01 2.932662e+01 3.049670e+01 2.631596e+01 2.710897e+01 2.497918e+01 2.418886e+01 2.736846e+01 2.615989e+01 2.914753e+01 2.857370e+01 2.732908e+01 2.684871e+01 2.591574e+01 2.561476e+01 2.486510e+01 2.461069e+01 2.389611e+01 2.356008e+01 2.283637e+01 2.240595e+01 2.175025e+01 2.133446e+01 2.088131e+01 2.049718e+01 2.012815e+01 1.952754e+01 1.903961e+01 1.817167e+01 1.772587e+01 1.686015e+01 1.668311e+01 1.590070e+01 1.588234e+01 1.502735e+01 1.499598e+01 1.404476e+01 1.395966e+01 1.297108e+01 1.278797e+01 1.186089e+01 1.159690e+01 1.086502e+01 1.046497e+01 9.923664e+00 9.281126e+00 8.985926e+00 8.163123e+00 8.216514e+00 7.230292e+00 7.523900e+00 6.273662e+00 6.619116e+00 5.141730e+00 5.475568e+00 4.002129e+00 4.287212e+00 3.088597e+00 3.945587e+00 3.312757e+00 1.055907e+00 0 0 0 0 
0 0 0 0 0 1.032231e-01 2.230259e-01 1.748563e-01 1.782675e-01 1.619169e-01 2.198294e-01 1.880633e-01 2.688603e-01 4.394940e+01 4.805394e+01 4.506218e+01 4.727978e+01 4.653817e+01 4.578361e+01 4.801703e+01 4.375881e+01 2.326942e+00 2.281990e+00 2.289628e+00 2.252721e+00 2.247872e+00 2.218453e+00 2.204095e+00 2.182156e+00 2.160188e+00 2.142992e+00 2.113567e+00 2.098927e+00 2.065798e+00 2.055130e+00 2.022344e+00 2.012728e+00 1.978927e+00 1.966624e+00 1.935395e+00 1.922871e+00 1.897496e+00 1.880200e+00 1.855072e+00 1.827490e+00 1.803684e+00 1.771677e+00 1.755910e+00 1.725071e+00 1.716671e+00 1.686103e+00 1.678825e+00 1.646702e+00 1.634494e+00 1.601197e+00 1.581343e+00 1.382305e+00 2.227655e+00 2.896564e+00 6.364599e-01 2.022058e+00 2.042762e+00 1.230424e+00 1.148614e+00 4.322597e+00 1.091047e+00 6.200549e+00 3.067900e+00 5.592820e+00 6.650230e+00 2.493702e+00 5.430983e+00 4.809826e-01 1.273311e+00 1.217810e+00 1.196391e+00 1.154792e+00 1.141373e+00 1.107951e+00 1.096610e+00 1.064756e+00 1.049777e+00 1.017519e+00 9.983331e-01 9.691076e-01 9.505735e-01 9.303763e-01 9.132519e-01 8.968026e-01 8.700270e-01 8.482770e-01 8.095858e-01 7.897138e-01 7.511253e-01 7.432328e-01 7.083632e-01 7.075472e-01 6.694515e-01 6.680624e-01 6.256890e-01 6.219117e-01 5.778837e-01 5.697423e-01 5.284590e-01 5.167116e-01 4.841207e-01 4.663002e-01 4.421878e-01 4.135485e-01 4.003846e-01 3.637024e-01 3.660560e-01 3.220919e-01 3.351499e-01 2.794421e-01 2.948390e-01 2.290749e-01 2.440807e-01 1.788432e-01 1.927281e-01 1.433559e-01 1.812973e-01 1.495742e-01 4.697607e-02 0 0 0 0 
0 0 0 0 0 0 0 0 0 0 0 0 0 4.787280e+01 5.186997e+01 4.906646e+01 5.089874e+01 5.060689e+01 4.921338e+01 5.217608e+01 4.725128e+01 0 0 0 0 0 0 0 0 0 0 0 0 0 0 0 0 0 0 0 0 0 0 0 0 0 0 0 0 0 0 0 0 0 0 0 4.824597e-02 1.149481e-01 3.703047e-01 4.206796e-01 4.183544e-01 1.487519e-01 4.674851e-01 2.331649e-02 9.293449e-01 1.284700e-01 8.234172e-01 1.260419e-01 1.673148e-01 4.033001e-01 3.207737e-01 1.458009e+00 3.673908e-01 0 0 0 0 0 0 0 0 0 0 0 0 0 0 0 0 0 0 0 0 0 0 0 0 0 0 0 0 0 0 0 0 0 0 0 0 0 0 0 0 0 0 0 0 0 0 0 0 0 0 0 0 0 0 0 
0 0 0 0 0 0 0 0 0 0 0 0 0 4.780948e+01 4.959748e+01 4.803553e+01 4.885821e+01 4.864325e+01 4.819673e+01 4.942118e+01 4.784522e+01 0 0 0 0 0 0 0 0 0 0 0 0 0 0 0 0 0 0 0 0 0 0 0 0 0 0 0 0 0 0 0 0 0 0 0 0 0 0 0 0 0 0 0 0 0 0 0 0 0 0 0 0 0 0 0 0 0 0 0 0 0 0 0 0 0 0 0 0 0 0 0 0 0 0 0 0 0 0 0 0 0 0 0 0 0 0 0 0 0 0 0 0 0 0 0 0 0 0 0 0 0 0 0 0 0 0 0 
0 0 0 0 0 0 0 0 0 0 0 0 0 5.024487e+01 5.239795e+01 5.067255e+01 5.151800e+01 5.154378e+01 5.057746e+01 5.251945e+01 4.995648e+01 0 0 0 0 0 0 0 0 0 0 0 0 0 0 0 0 0 0 0 0 0 0 0 0 0 0 0 0 0 0 0 0 0 0 0 0 0 0 0 0 0 0 0 0 0 0 0 0 0 0 0 0 0 0 0 0 0 0 0 0 0 0 0 0 0 0 0 0 0 0 0 0 0 0 0 0 0 0 0 0 0 0 0 0 0 0 0 0 0 0 0 0 0 0 0 0 0 0 0 0 0 0 0 0 0 0 0 
0 0 0 0 0 0 0 0 0 0 0 0 0 4.781275e+01 4.960312e+01 4.804065e+01 4.886548e+01 4.865270e+01 4.820229e+01 4.943641e+01 4.784657e+01 0 0 0 0 0 0 0 0 0 0 0 0 0 0 0 0 0 0 0 0 0 0 0 0 0 0 0 0 0 0 0 0 0 0 0 0 0 0 0 0 0 0 0 0 0 0 0 0 0 0 0 0 0 0 0 0 0 0 0 0 0 0 0 0 0 0 0 0 0 0 0 0 0 0 0 0 0 0 0 0 0 0 0 0 0 0 0 0 0 0 0 0 0 0 0 0 0 0 0 0 0 0 0 0 0 0 0 
0 0 0 0 0 0 0 0 0 0 0 0 0 4.787492e+01 5.188306e+01 4.906476e+01 5.092427e+01 5.061336e+01 4.922894e+01 5.221423e+01 4.723464e+01 0 0 0 0 0 0 0 0 0 0 0 0 0 0 0 0 0 0 0 0 0 0 0 0 0 0 0 0 0 0 0 0 0 0 0 0 0 0 0 0 0 0 0 0 0 0 0 0 0 0 0 0 0 0 0 0 0 0 0 0 0 0 0 0 0 0 0 0 0 0 0 0 0 0 0 0 0 0 0 0 0 0 0 0 0 0 0 0 0 0 0 0 0 0 0 0 0 0 0 0 0 0 0 0 0 0 0 
0 0 0 0 0 1.030989e-01 2.233481e-01 1.751020e-01 1.766099e-01 1.606677e-01 2.183023e-01 1.879761e-01 2.683823e-01 4.395531e+01 4.807105e+01 4.506641e+01 4.731573e+01 4.656085e+01 4.581680e+01 4.808636e+01 4.374520e+01 2.330425e+00 2.285705e+00 2.291647e+00 2.256563e+00 2.251939e+00 2.225530e+00 2.208884e+00 2.184281e+00 2.154555e+00 2.132268e+00 2.099249e+00 2.086301e+00 2.057836e+00 2.052086e+00 2.025169e+00 2.017822e+00 1.987374e+00 1.971707e+00 1.936238e+00 1.912980e+00 1.880285e+00 1.859452e+00 1.838611e+00 1.822569e+00 1.807848e+00 1.787263e+00 1.769442e+00 1.741713e+00 1.721657e+00 1.692016e+00 1.672401e+00 1.644134e+00 1.625483e+00 1.600773e+00 1.582511e+00 1.559612e+00 1.537051e+00 1.512672e+00 1.486685e+00 1.465634e+00 1.443717e+00 1.427457e+00 1.408016e+00 1.389605e+00 1.367651e+00 1.345837e+00 1.322281e+00 1.301121e+00 1.278731e+00 1.261049e+00 1.242615e+00 1.227658e+00 1.212177e+00 1.192554e+00 1.173319e+00 1.144569e+00 1.123888e+00 1.094228e+00 1.080094e+00 1.053605e+00 1.041957e+00 1.013048e+00 9.973969e-01 9.656814e-01 9.460736e-01 9.155928e-01 8.937883e-01 8.693513e-01 8.475614e-01 8.319238e-01 8.076350e-01 7.960937e-01 7.623203e-01 7.504557e-01 7.083582e-01 7.007799e-01 6.578674e-01 6.562624e-01 6.137077e-01 6.134920e-01 5.726830e-01 5.711676e-01 5.342198e-01 5.257636e-01 4.927161e-01 4.741769e-01 4.499991e-01 4.222073e-01 4.092117e-01 3.691588e-01 3.653273e-01 3.131338e-01 3.200562e-01 2.620085e-01 2.796138e-01 2.188602e-01 2.387446e-01 1.776452e-01 1.933356e-01 1.456764e-01 1.814287e-01 1.499754e-01 4.673043e-02 0 0 0 0 
0 0 0 0 0 2.316399e+00 5.010573e+00 3.926943e+00 3.969443e+00 3.614985e+00 4.910886e+00 4.232913e+00 6.037227e+00 3.884819e+01 4.877724e+01 4.404692e+01 5.570887e+01 5.194031e+01 6.043420e+01 6.389152e+01 6.385558e+01 5.226709e+01 5.126531e+01 5.139835e+01 5.061228e+01 5.050858e+01 4.991682e+01 4.954386e+01 4.899260e+01 4.832667e+01 4.782734e+01 4.708763e+01 4.679757e+01 4.615986e+01 4.603110e+01 4.542799e+01 4.526338e+01 4.458109e+01 4.423002e+01 4.343511e+01 4.291390e+01 4.218112e+01 4.171420e+01 4.124708e+01 4.088754e+01 4.055760e+01 4.009626e+01 3.969682e+01 3.907534e+01 3.862578e+01 3.796140e+01 3.752173e+01 3.688810e+01 3.647001e+01 3.591607e+01 3.550667e+01 3.499330e+01 3.448751e+01 3.394093e+01 3.335830e+01 3.288631e+01 3.239490e+01 3.203033e+01 3.159442e+01 3.118160e+01 3.068932e+01 3.020015e+01 2.967192e+01 2.919742e+01 2.869531e+01 2.829879e+01 2.788537e+01 2.754995e+01 2.720275e+01 2.676268e+01 2.633127e+01 2.568646e+01 2.522261e+01 2.455735e+01 2.424031e+01 2.364612e+01 2.338482e+01 2.273629e+01 2.238515e+01 2.167360e+01 2.123370e+01 2.054981e+01 2.006064e+01 1.951235e+01 1.902353e+01 1.867271e+01 1.812785e+01 1.786897e+01 1.711130e+01 1.684514e+01 1.590058e+01 1.573051e+01 1.476745e+01 1.473126e+01 1.377597e+01 1.377079e+01 1.285445e+01 1.282000e+01 1.199023e+01 1.180009e+01 1.105795e+01 1.064176e+01 1.009899e+01 9.475479e+00 9.184069e+00 8.285636e+00 8.200166e+00 7.029233e+00 7.185098e+00 5.882298e+00 6.277332e+00 4.912384e+00 5.355710e+00 3.975135e+00 4.300702e+00 3.140454e+00 3.947246e+00 3.321704e+00 1.050380e+00 0 0 0 0 
0 0 0 0 0 3.353672e+00 7.252370e+00 5.683585e+00 5.747302e+00 5.235065e+00 7.111515e+00 6.130808e+00 8.742520e+00 1.178313e+01 1.681383e+01 2.055053e+01 3.226168e+01 4.162627e+01 5.158280e+01 6.218898e+01 7.404377e+01 7.564863e+01 7.419903e+01 7.439152e+01 7.325401e+01 7.310392e+01 7.224757e+01 7.170788e+01 7.091014e+01 6.994650e+01 6.922394e+01 6.815353e+01 6.773381e+01 6.681100e+01 6.662468e+01 6.575193e+01 6.551372e+01 6.452636e+01 6.401831e+01 6.286796e+01 6.211369e+01 6.105323e+01 6.037753e+01 5.970151e+01 5.918120e+01 5.870372e+01 5.803609e+01 5.745802e+01 5.655863e+01 5.590804e+01 5.494655e+01 5.431026e+01 5.339327e+01 5.278819e+01 5.198651e+01 5.139402e+01 5.065104e+01 4.991905e+01 4.912800e+01 4.828479e+01 4.760171e+01 4.689049e+01 4.636287e+01 4.573198e+01 4.513450e+01 4.442203e+01 4.371407e+01 4.294955e+01 4.226280e+01 4.153609e+01 4.096220e+01 4.036384e+01 3.987838e+01 3.937586e+01 3.873894e+01 3.811454e+01 3.718128e+01 3.650992e+01 3.554705e+01 3.508817e+01 3.422814e+01 3.384994e+01 3.291125e+01 3.240301e+01 3.137309e+01 3.073636e+01 2.974647e+01 2.903844e+01 2.824482e+01 2.753730e+01 2.702951e+01 2.624089e+01 2.586618e+01 2.476952e+01 2.438427e+01 2.301708e+01 2.277090e+01 2.137686e+01 2.132443e+01 1.994158e+01 1.993399e+01 1.860746e+01 1.855749e+01 1.735624e+01 1.708091e+01 1.600654e+01 1.540407e+01 1.461836e+01 1.371587e+01 1.329412e+01 1.199374e+01 1.187016e+01 1.017532e+01 1.040107e+01 8.515238e+00 9.087035e+00 7.110881e+00 7.751855e+00 5.751084e+00 6.215599e+00 4.513122e+00 5.682359e+00 4.797034e+00 1.520851e+00 0 0 0 0 
0 0 0 0 0 1.140372e+00 2.465145e+00 1.931744e+00 1.954469e+00 1.780748e+00 2.418931e+00 2.085871e+00 2.973676e+00 4.006185e+00 5.715467e+00 6.985830e+00 1.096705e+01 1.414997e+01 1.753396e+01 2.113823e+01 2.516660e+01 2.571197e+01 2.521942e+01 2.528482e+01 2.489829e+01 2.484728e+01 2.455629e+01 2.437290e+01 2.410182e+01 2.377439e+01 2.352886e+01 2.316515e+01 2.302254e+01 2.270897e+01 2.264567e+01 2.234910e+01 2.226816e+01 2.193265e+01 2.176000e+01 2.136909e+01 2.111277e+01 2.075240e+01 2.052278e+01 2.029305e+01 2.011623e+01 1.995397e+01 1.972709e+01 1.953064e+01 1.922501e+01 1.900391e+01 1.867717e+01 1.846093e+01 1.814930e+01 1.794367e+01 1.767122e+01 1.746986e+01 1.721736e+01 1.696859e+01 1.669975e+01 1.641318e+01 1.618102e+01 1.593931e+01 1.575999e+01 1.554557e+01 1.534251e+01 1.510036e+01 1.485975e+01 1.459991e+01 1.436650e+01 1.411951e+01 1.392446e+01 1.372109e+01 1.355609e+01 1.338529e+01 1.316881e+01 1.295659e+01 1.263939e+01 1.241120e+01 1.208393e+01 1.192796e+01 1.163563e+01 1.150708e+01 1.118801e+01 1.101525e+01 1.066517e+01 1.044874e+01 1.011225e+01 9.871586e+00 9.601819e+00 9.361329e+00 9.188724e+00 8.920670e+00 8.793306e+00 8.420544e+00 8.289595e+00 7.824855e+00 7.741168e+00 7.267279e+00 7.249433e+00 6.779314e+00 6.776692e+00 6.325693e+00 6.308650e+00 5.900227e+00 5.806586e+00 5.441303e+00 5.236487e+00 4.969371e+00 4.662603e+00 4.519260e+00 4.077266e+00 4.035317e+00 3.459225e+00 3.536028e+00 2.894948e+00 3.089317e+00 2.417357e+00 2.634890e+00 1.953595e+00 2.108233e+00 1.518344e+00 1.916543e+00 1.625305e+00 5.172010e-01 0 0 0 0 
0 0 0 0 0 0 0 0 0 0 0 0 0 0 0 0 0 0 0 0 0 0 0 0 0 0 0 0 0 0 0 0 0 0 0 0 0 0 0 0 0 0 0 0 0 0 0 0 0 0 0 0 0 0 0 0 0 0 0 0 0 0 0 0 0 0 0 0 0 0 0 0 0 0 0 0 0 0 0 0 0 0 0 0 0 0 0 0 0 0 0 0 0 0 0 0 0 0 0 0 0 0 0 0 0 0 0 0 0 0 0 0 0 0 0 0 0 0 0 0 0 0 0 0 0 0 0 0 
