# vtk DataFile Version 2.0
Comment goes here
ASCII

DATASET STRUCTURED_POINTS
FIELD FieldData 1
TIME 1 1 double
0.23000000
DIMENSIONS    128   16   1

ORIGIN    0.000   0.000   0.000
SPACING   0.0078125 0.015625   1.000

POINT_DATA   2048
SCALARS fX double
LOOKUP_TABLE default

0 0 0 0 0 0 0 0 0 0 0 0 0 0 0 0 0 0 0 0 0 0 0 0 0 0 0 0 0 0 0 0 0 0 0 0 0 0 0 0 0 0 0 0 0 0 0 0 0 0 0 0 0 0 0 0 0 0 0 0 0 0 0 0 0 0 0 0 0 0 0 0 0 0 0 0 0 0 0 0 0 0 0 0 0 0 0 0 0 0 0 0 0 0 0 0 0 0 0 0 0 0 0 0 0 0 0 0 0 0 0 0 0 0 0 0 0 0 0 0 0 0 0 0 0 0 0 0 
0 0 0 0 0 0 0 0 0 0 0 0 0 0 0 0 0 0 0 0 0 0 0 0 0 0 0 0 0 0 0 0 0 0 0 0 0 0 0 0 0 0 0 0 0 0 0 0 0 0 0 0 0 0 0 0 0 0 0 0 0 0 0 0 0 0 0 0 0 0 0 0 0 0 0 0 0 0 0 0 0 0 0 0 0 0 0 0 0 0 0 0 0 0 0 0 0 0 0 0 0 0 0 0 0 0 0 0 0 0 0 0 0 0 0 0 0 0 0 0 0 0 0 0 0 0 0 0 
0 0 0 0 0 -1.693394e+00 3.969551e-01 1.181979e+00 -2.364850e-01 2.060134e-01 -1.951408e-01 1.006360e-01 -8.485433e-01 -1.095022e+00 -1.183892e+00 -1.071552e+00 -1.710832e+00 -1.066088e+00 -1.605059e+00 -1.239971e+00 -3.353058e-01 -2.953413e-01 5.857121e-01 4.789172e-01 6.311842e-01 6.127874e-01 7.491675e-01 6.835329e-01 8.951499e-01 9.586905e-01 1.027294e+00 7.498815e-01 6.191667e-01 5.278943e-01 7.404739e-01 8.884820e-01 1.114376e+00 1.234828e+00 1.349952e+00 1.227269e+00 1.006100e+00 8.247790e-01 8.407804e-01 9.159273e-01 9.573289e-01 9.210641e-01 7.555770e-01 5.251991e-01 3.817462e-01 3.898726e-01 3.190405e-01 1.541967e-01 -1.593734e-01 -3.713415e-01 -5.058544e-01 -2.987464e-01 3.017336e+00 5.628033e+00 2.536143e-02 1.928047e+00 3.219821e+00 5.951026e-01 3.239351e+00 4.919927e-01 4.086533e+00 1.103489e+00 1.012946e+00 4.583902e+00 5.997879e-02 3.683365e+00 -5.235917e-01 -6.936684e-01 3.295069e+00 5.153653e-01 1.989024e-01 -1.102954e-02 -3.520938e-01 -6.954459e-01 -6.929199e-01 -5.138350e-01 -3.699533e-01 -5.040993e-01 -7.200123e-01 -8.855288e-01 -8.873504e-01 -8.023439e-01 -5.822729e-01 -3.937525e-01 -3.339142e-01 -3.877857e-01 -2.700102e-01 2.867768e-02 3.540820e-01 3.724599e-01 9.979520e-02 -1.474954e-01 -1.465781e-01 9.559010e-03 1.883843e-01 1.831458e-01 6.586202e-02 -2.596999e-01 -4.971120e-01 -6.396666e-01 -5.075947e-01 -4.886420e-01 -4.746481e-01 -6.365897e-01 -4.413470e-01 -2.432668e-01 5.391413e-02 -1.246018e-02 1.271919e-02 -5.370457e-03 2.345285e-01 4.394313e-01 6.815824e-01 7.113580e-01 5.672614e-01 4.553409e-01 4.703637e-01 7.663828e-01 -1.990197e-01 -1.505770e-01 0 0 0 0 
0 0 0 0 0 -4.981244e+00 1.159900e+00 3.463499e+00 -7.033445e-01 6.032319e-01 -5.751775e-01 2.954468e-01 -2.495901e+00 -3.220703e+00 -3.482074e+00 -3.151655e+00 -5.032094e+00 -3.135629e+00 -4.720916e+00 -3.646847e+00 -9.857620e-01 -8.681671e-01 1.723302e+00 1.409117e+00 1.856932e+00 1.802750e+00 2.203853e+00 2.010717e+00 2.633126e+00 2.820009e+00 3.021792e+00 2.205762e+00 1.821259e+00 1.552773e+00 2.178056e+00 2.613413e+00 3.277884e+00 3.632197e+00 3.970856e+00 3.610008e+00 2.959458e+00 2.426116e+00 2.473144e+00 2.694159e+00 2.815887e+00 2.709212e+00 2.222480e+00 1.544851e+00 1.122906e+00 1.146803e+00 9.384087e-01 4.535416e-01 -4.687847e-01 -1.092296e+00 -1.487979e+00 -8.789389e-01 8.865646e+00 1.496619e+01 -5.385867e+00 -2.419086e-02 3.663066e+00 -5.641647e+00 2.346563e+00 -5.538720e+00 6.028767e+00 -4.450327e+00 -4.032947e+00 6.287079e+00 -8.195435e+00 2.705199e+00 -9.459748e+00 -5.234728e+00 9.569752e+00 1.515981e+00 5.850133e-01 -3.249699e-02 -1.035695e+00 -2.045620e+00 -2.038145e+00 -1.511377e+00 -1.088161e+00 -1.482727e+00 -2.117824e+00 -2.604683e+00 -2.610030e+00 -2.359983e+00 -1.712659e+00 -1.158150e+00 -9.821589e-01 -1.140636e+00 -7.942194e-01 8.435507e-02 1.041476e+00 1.095522e+00 2.935343e-01 -4.338259e-01 -4.311339e-01 2.811458e-02 5.541013e-01 5.386941e-01 1.937395e-01 -7.638195e-01 -1.462107e+00 -1.881336e+00 -1.492822e+00 -1.437025e+00 -1.395794e+00 -1.871993e+00 -1.297632e+00 -7.149573e-01 1.592506e-01 -3.592268e-02 3.818179e-02 -1.503580e-02 6.905222e-01 1.293097e+00 2.005166e+00 2.092526e+00 1.668452e+00 1.339372e+00 1.386695e+00 2.260101e+00 -5.823653e-01 -4.427544e-01 0 0 0 0 
0 0 0 0 0 -3.441159e+00 7.975202e-01 2.386182e+00 -4.896209e-01 4.153835e-01 -3.979064e-01 2.038197e-01 -1.724153e+00 -9.077046e+00 -6.875500e+00 -9.976062e+00 -1.473908e+01 -1.016693e+01 -1.470658e+01 -1.115991e+01 -3.756194e+00 -5.994586e-01 1.190685e+00 9.736184e-01 1.282937e+00 1.245473e+00 1.522531e+00 1.389076e+00 1.819013e+00 1.948103e+00 2.087491e+00 1.523758e+00 1.258136e+00 1.072659e+00 1.504602e+00 1.805347e+00 2.264373e+00 2.509138e+00 2.743097e+00 2.493831e+00 2.044434e+00 1.676002e+00 1.708470e+00 1.861135e+00 1.945199e+00 1.871506e+00 1.535290e+00 1.067190e+00 7.757161e-01 7.922205e-01 6.482394e-01 3.132980e-01 -3.238358e-01 -7.545683e-01 -1.027916e+00 -6.072662e-01 6.123706e+00 9.151781e+00 -7.461424e+00 -3.635949e+00 -1.404969e+00 -8.617577e+00 -2.979782e+00 -8.394154e+00 4.075795e-01 -8.143716e+00 -7.042551e+00 -2.488189e-01 -1.079652e+01 -2.995840e+00 -1.141194e+01 -5.341347e+00 6.568858e+00 1.047273e+00 4.041055e-01 -2.247525e-02 -7.154753e-01 -1.413120e+00 -1.407935e+00 -1.044043e+00 -7.516862e-01 -1.024245e+00 -1.462972e+00 -1.799295e+00 -1.802983e+00 -1.630248e+00 -1.183077e+00 -8.000275e-01 -6.784621e-01 -7.879471e-01 -5.486479e-01 5.827326e-02 7.194364e-01 7.567648e-01 2.027703e-01 -2.996763e-01 -2.978196e-01 1.942028e-02 3.827643e-01 3.721217e-01 1.338405e-01 -5.276123e-01 -1.009968e+00 -1.299530e+00 -1.031128e+00 -9.925600e-01 -9.640444e-01 -1.292933e+00 -8.961330e-01 -4.936039e-01 1.103329e-01 -2.446255e-02 2.674871e-02 -1.001793e-02 4.773386e-01 8.935323e-01 1.385332e+00 1.445572e+00 1.152514e+00 9.252468e-01 9.594565e-01 1.564107e+00 -4.008257e-01 -3.057782e-01 0 0 0 0 
0 0 0 0 0 -1.533093e-01 3.457480e-02 1.046624e-01 -2.276139e-02 1.816501e-02 -1.786966e-02 9.008958e-03 -7.679511e-02 -1.013370e+01 -1.118673e+01 -1.037228e+01 -1.142831e+01 -1.060419e+01 -1.088852e+01 -1.112062e+01 -9.720076e+00 -2.663287e-02 5.309453e-02 4.341890e-02 5.718859e-02 5.551125e-02 6.784613e-02 6.189221e-02 8.103706e-02 8.678495e-02 9.299269e-02 6.787736e-02 5.604386e-02 4.778041e-02 6.701986e-02 8.041607e-02 1.008649e-01 1.117688e-01 1.221937e-01 1.110926e-01 9.107565e-02 7.466459e-02 7.610606e-02 8.290325e-02 8.664121e-02 8.335813e-02 6.838668e-02 4.753755e-02 3.455592e-02 3.529025e-02 2.887120e-02 1.395310e-02 -1.442446e-02 -3.361329e-02 -4.579177e-02 -2.707369e-02 2.789122e-01 -2.400966e-01 -2.153531e+00 -1.702887e+00 -1.920821e+00 -2.410863e+00 -2.103894e+00 -2.401485e+00 -1.499692e+00 -2.609987e+00 -1.967854e+00 -1.947276e+00 -2.542841e+00 -2.009622e+00 -2.487911e+00 -7.889902e-01 2.965957e-01 4.665723e-02 1.799461e-02 -1.007802e-03 -3.187378e-02 -6.294624e-02 -6.270987e-02 -4.650075e-02 -3.347852e-02 -4.561716e-02 -6.515992e-02 -8.014115e-02 -8.030404e-02 -7.260911e-02 -5.269080e-02 -3.562996e-02 -3.021743e-02 -3.509646e-02 -2.443877e-02 2.595868e-03 3.204198e-02 3.370318e-02 9.031195e-03 -1.334582e-02 -1.326385e-02 8.647181e-04 1.704723e-02 1.657337e-02 5.962994e-03 -2.349281e-02 -4.497297e-02 -5.786040e-02 -4.590079e-02 -4.417692e-02 -4.289827e-02 -5.753054e-02 -3.984760e-02 -2.191335e-02 4.996485e-03 -1.000050e-03 1.286108e-03 -3.525885e-04 2.134487e-02 3.986700e-02 6.174845e-02 6.440431e-02 5.132304e-02 4.121550e-02 4.312527e-02 7.038890e-02 -1.748005e-02 -1.360089e-02 0 0 0 0 
0 0 0 0 0 0 0 0 0 0 0 0 0 -1.113629e+01 -1.177544e+01 -1.133212e+01 -1.218776e+01 -1.158163e+01 -1.176962e+01 -1.192236e+01 -1.039597e+01 0 0 0 0 0 0 0 0 0 0 0 0 0 0 0 0 0 0 0 0 0 0 0 0 0 0 0 0 0 0 0 0 0 0 0 3.516536e-03 -5.372553e-02 -1.033358e-01 -1.917630e-02 -7.260731e-02 -3.003515e-02 -1.690081e-02 -3.804459e-02 3.496303e-02 -2.008738e-02 2.880504e-02 4.719705e-03 -1.737037e-03 8.053203e-03 -1.212311e-02 1.129686e-02 2.420271e-03 0 0 0 0 0 0 0 0 0 0 0 0 0 0 0 0 0 0 0 0 0 0 0 0 0 0 0 0 0 0 0 0 0 0 0 0 0 0 0 0 0 0 0 0 0 0 0 0 0 0 0 0 0 0 0 
0 0 0 0 0 0 0 0 0 0 0 0 0 -1.139670e+01 -1.193674e+01 -1.137562e+01 -1.173898e+01 -1.145948e+01 -1.147545e+01 -1.160812e+01 -1.121395e+01 0 0 0 0 0 0 0 0 0 0 0 0 0 0 0 0 0 0 0 0 0 0 0 0 0 0 0 0 0 0 0 0 0 0 0 0 0 0 0 0 0 0 0 0 0 0 0 0 0 0 0 0 0 0 0 0 0 0 0 0 0 0 0 0 0 0 0 0 0 0 0 0 0 0 0 0 0 0 0 0 0 0 0 0 0 0 0 0 0 0 0 0 0 0 0 0 0 0 0 0 0 0 0 0 0 0 0 
0 0 0 0 0 0 0 0 0 0 0 0 0 -1.180815e+01 -1.227827e+01 -1.183482e+01 -1.216346e+01 -1.196052e+01 -1.187217e+01 -1.211160e+01 -1.146652e+01 0 0 0 0 0 0 0 0 0 0 0 0 0 0 0 0 0 0 0 0 0 0 0 0 0 0 0 0 0 0 0 0 0 0 0 0 0 0 0 0 0 0 0 0 0 0 0 0 0 0 0 0 0 0 0 0 0 0 0 0 0 0 0 0 0 0 0 0 0 0 0 0 0 0 0 0 0 0 0 0 0 0 0 0 0 0 0 0 0 0 0 0 0 0 0 0 0 0 0 0 0 0 0 0 0 0 0 
0 0 0 0 0 0 0 0 0 0 0 0 0 -1.141415e+01 -1.194495e+01 -1.140846e+01 -1.176157e+01 -1.150328e+01 -1.150011e+01 -1.164873e+01 -1.121489e+01 0 0 0 0 0 0 0 0 0 0 0 0 0 0 0 0 0 0 0 0 0 0 0 0 0 0 0 0 0 0 0 0 0 0 0 0 0 0 0 0 0 0 0 0 0 0 0 0 0 0 0 0 0 0 0 0 0 0 0 0 0 0 0 0 0 0 0 0 0 0 0 0 0 0 0 0 0 0 0 0 0 0 0 0 0 0 0 0 0 0 0 0 0 0 0 0 0 0 0 0 0 0 0 0 0 0 0 
0 0 0 0 0 0 0 0 0 0 0 0 0 -1.105923e+01 -1.179001e+01 -1.137972e+01 -1.228440e+01 -1.167728e+01 -1.187124e+01 -1.198436e+01 -1.052322e+01 0 0 0 0 0 0 0 0 0 0 0 0 0 0 0 0 0 0 0 0 0 0 0 0 0 0 0 0 0 0 0 0 0 0 0 0 0 0 0 0 0 0 0 0 0 0 0 0 0 0 0 0 0 0 0 0 0 0 0 0 0 0 0 0 0 0 0 0 0 0 0 0 0 0 0 0 0 0 0 0 0 0 0 0 0 0 0 0 0 0 0 0 0 0 0 0 0 0 0 0 0 0 0 0 0 0 0 
0 0 0 0 0 -1.532500e-01 3.686057e-02 1.145840e-01 -1.953972e-03 4.276954e-02 5.150778e-03 3.286955e-02 -5.017230e-02 -1.016210e+01 -1.118053e+01 -1.048225e+01 -1.154306e+01 -1.079357e+01 -1.107049e+01 -1.125339e+01 -9.679425e+00 -5.774666e-02 3.186845e-02 4.216371e-02 7.189112e-02 7.974755e-02 1.045122e-01 1.117097e-01 1.357026e-01 1.423054e-01 1.618342e-01 1.613117e-01 1.714502e-01 1.675525e-01 1.765295e-01 1.724719e-01 1.715029e-01 1.525770e-01 1.348519e-01 1.127964e-01 1.021012e-01 9.445684e-02 9.238563e-02 9.007444e-02 8.426779e-02 7.503157e-02 6.415229e-02 6.075221e-02 5.961416e-02 6.748394e-02 7.313411e-02 8.191911e-02 8.214345e-02 8.925148e-02 8.951634e-02 9.279023e-02 8.393076e-02 7.975698e-02 5.887824e-02 4.757161e-02 3.726146e-02 3.148391e-02 3.107329e-02 2.195604e-02 1.291144e-02 -9.685409e-03 -3.132156e-02 -3.940604e-02 -5.082461e-02 -4.654395e-02 -5.267241e-02 -5.166675e-02 -5.109045e-02 -5.037233e-02 -4.782789e-02 -4.711352e-02 -4.061716e-02 -3.587104e-02 -2.873824e-02 -2.400419e-02 -1.525626e-02 -9.345593e-03 -3.941937e-03 -8.510930e-03 -1.617533e-02 -2.751199e-02 -3.729381e-02 -4.852898e-02 -5.870167e-02 -6.842412e-02 -7.871349e-02 -9.066489e-02 -1.040671e-01 -1.166517e-01 -1.247044e-01 -1.264287e-01 -1.205461e-01 -1.066029e-01 -8.607589e-02 -7.055619e-02 -5.591770e-02 -5.181474e-02 -3.797807e-02 -2.938543e-02 -7.990342e-03 -2.102294e-03 1.103502e-02 5.194905e-03 1.257419e-02 3.120442e-03 6.663252e-03 -1.173331e-02 -1.950606e-02 -3.963205e-02 -3.869832e-02 -3.982515e-02 -3.289062e-02 -3.317966e-02 -3.723076e-02 -4.010079e-02 -3.891550e-02 4.270655e-03 -4.429380e-02 -1.549166e-02 0 0 0 0 
0 0 0 0 0 -3.439844e+00 8.489171e-01 2.609050e+00 -2.237740e-02 9.679153e-01 1.190665e-01 7.396416e-01 -1.126278e+00 -8.047653e+00 -6.304489e+00 -1.024368e+01 -1.519310e+01 -1.068686e+01 -1.488418e+01 -1.149238e+01 -4.752403e+00 -1.297961e+00 7.140662e-01 9.453839e-01 1.612972e+00 1.789473e+00 2.345598e+00 2.507343e+00 3.046140e+00 3.194643e+00 3.633211e+00 3.621550e+00 3.849090e+00 3.761541e+00 3.963012e+00 3.871993e+00 3.850309e+00 3.425403e+00 3.027388e+00 2.532131e+00 2.291903e+00 2.120254e+00 2.073782e+00 2.021930e+00 1.891699e+00 1.684375e+00 1.440188e+00 1.363882e+00 1.338310e+00 1.515009e+00 1.641898e+00 1.839153e+00 1.844251e+00 2.003832e+00 2.009727e+00 2.083183e+00 1.884303e+00 1.790654e+00 1.321940e+00 1.068125e+00 8.366155e-01 7.068534e-01 6.976172e-01 4.929339e-01 2.898760e-01 -2.174794e-01 -7.032803e-01 -8.847864e-01 -1.141115e+00 -1.044972e+00 -1.182522e+00 -1.159928e+00 -1.146967e+00 -1.130825e+00 -1.073636e+00 -1.057584e+00 -9.117503e-01 -8.052159e-01 -6.451567e-01 -5.388943e-01 -3.425189e-01 -2.098223e-01 -8.849917e-02 -1.910949e-01 -3.631959e-01 -6.177452e-01 -8.374194e-01 -1.089694e+00 -1.318112e+00 -1.536356e+00 -1.767337e+00 -2.035621e+00 -2.336570e+00 -2.619178e+00 -2.800053e+00 -2.838793e+00 -2.706638e+00 -2.393563e+00 -1.932640e+00 -1.584233e+00 -1.255578e+00 -1.163519e+00 -8.528911e-01 -6.600497e-01 -1.798131e-01 -4.777396e-02 2.469828e-01 1.156115e-01 2.810159e-01 6.850225e-02 1.478622e-01 -2.655109e-01 -4.400464e-01 -8.920127e-01 -8.709665e-01 -8.958438e-01 -7.396848e-01 -7.456710e-01 -8.358697e-01 -9.006164e-01 -8.826632e-01 7.984486e-02 -1.002741e+00 -3.482869e-01 0 0 0 0 
0 0 0 0 0 -4.979344e+00 1.234323e+00 3.786155e+00 -2.693537e-02 1.403115e+00 1.732315e-01 1.071138e+00 -1.630372e+00 -2.451599e+00 -2.988711e+00 -3.094601e+00 -5.261345e+00 -3.382590e+00 -5.140720e+00 -4.130751e+00 -1.744853e+00 -1.879316e+00 1.033328e+00 1.368231e+00 2.334681e+00 2.590214e+00 3.395297e+00 3.629481e+00 4.409480e+00 4.624520e+00 5.259426e+00 5.242563e+00 5.571932e+00 5.445185e+00 5.736818e+00 5.605077e+00 5.573705e+00 4.958610e+00 4.382423e+00 3.665463e+00 3.317680e+00 3.069193e+00 3.001927e+00 2.926874e+00 2.738386e+00 2.438272e+00 2.084801e+00 1.974347e+00 1.937324e+00 2.193118e+00 2.376814e+00 2.662365e+00 2.669762e+00 2.900772e+00 2.909292e+00 3.015616e+00 2.727722e+00 2.592169e+00 1.913665e+00 1.546249e+00 1.211105e+00 1.023247e+00 1.009873e+00 7.135739e-01 4.196266e-01 -3.148327e-01 -1.018093e+00 -1.280843e+00 -1.651898e+00 -1.512711e+00 -1.711820e+00 -1.679109e+00 -1.660341e+00 -1.636968e+00 -1.554165e+00 -1.530924e+00 -1.319819e+00 -1.165604e+00 -9.339213e-01 -7.801008e-01 -4.958326e-01 -3.037412e-01 -1.281116e-01 -2.766342e-01 -5.257758e-01 -8.942706e-01 -1.212288e+00 -1.577491e+00 -1.908158e+00 -2.224081e+00 -2.558444e+00 -2.946805e+00 -3.382474e+00 -3.791597e+00 -4.053455e+00 -4.109542e+00 -3.918212e+00 -3.464993e+00 -2.797740e+00 -2.293390e+00 -1.817626e+00 -1.684375e+00 -1.234713e+00 -9.555727e-01 -2.604058e-01 -6.930400e-02 3.573398e-01 1.671010e-01 4.064736e-01 9.876946e-02 2.136059e-01 -3.848851e-01 -6.375513e-01 -1.291850e+00 -1.261363e+00 -1.297268e+00 -1.071092e+00 -1.079630e+00 -1.210011e+00 -1.303818e+00 -1.280026e+00 1.115135e-01 -1.453682e+00 -5.043052e-01 0 0 0 0 
0 0 0 0 0 -1.692750e+00 4.222666e-01 1.291688e+00 -6.511942e-03 4.779691e-01 5.931582e-02 3.643663e-01 -5.542658e-01 -8.335270e-01 -1.016150e+00 -1.052147e+00 -1.788768e+00 -1.150042e+00 -1.747768e+00 -1.404481e+00 -5.933745e-01 -6.391010e-01 3.511304e-01 4.650103e-01 7.935998e-01 8.804884e-01 1.154212e+00 1.233847e+00 1.499043e+00 1.572183e+00 1.788050e+00 1.782325e+00 1.894292e+00 1.851196e+00 1.950335e+00 1.905556e+00 1.894899e+00 1.685783e+00 1.489886e+00 1.246128e+00 1.127878e+00 1.043395e+00 1.020530e+00 9.950186e-01 9.309543e-01 8.289284e-01 7.087655e-01 6.712176e-01 6.586278e-01 7.455930e-01 8.080492e-01 9.051320e-01 9.076543e-01 9.861915e-01 9.890813e-01 1.025223e+00 9.273499e-01 8.812725e-01 6.506034e-01 5.256952e-01 4.117507e-01 3.478780e-01 3.433288e-01 2.425961e-01 1.426620e-01 -1.070388e-01 -3.461345e-01 -4.354627e-01 -5.616078e-01 -5.142833e-01 -5.819702e-01 -5.708473e-01 -5.644640e-01 -5.565155e-01 -5.283568e-01 -5.204537e-01 -4.486854e-01 -3.962591e-01 -3.175029e-01 -2.652107e-01 -1.685700e-01 -1.032645e-01 -4.355440e-02 -9.405026e-02 -1.787552e-01 -3.040373e-01 -4.121626e-01 -5.363260e-01 -6.487478e-01 -7.561489e-01 -8.698206e-01 -1.001848e+00 -1.149971e+00 -1.289071e+00 -1.378106e+00 -1.397177e+00 -1.332120e+00 -1.178033e+00 -9.511758e-01 -7.797135e-01 -6.179654e-01 -5.726706e-01 -4.197998e-01 -3.249084e-01 -8.858298e-02 -2.363233e-02 1.213920e-01 5.668447e-02 1.380318e-01 3.338765e-02 7.240687e-02 -1.311075e-01 -2.170109e-01 -4.394698e-01 -4.290946e-01 -4.412496e-01 -3.642975e-01 -3.671383e-01 -4.113718e-01 -4.433021e-01 -4.362783e-01 3.593928e-02 -4.952347e-01 -1.715099e-01 0 0 0 0 
0 0 0 0 0 0 0 0 0 0 0 0 0 0 0 0 0 0 0 0 0 0 0 0 0 0 0 0 0 0 0 0 0 0 0 0 0 0 0 0 0 0 0 0 0 0 0 0 0 0 0 0 0 0 0 0 0 0 0 0 0 0 0 0 0 0 0 0 0 0 0 0 0 0 0 0 0 0 0 0 0 0 0 0 0 0 0 0 0 0 0 0 0 0 0 0 0 0 0 0 0 0 0 0 0 0 0 0 0 0 0 0 0 0 0 0 0 0 0 0 0 0 0 0 0 0 0 0 
