# vtk DataFile Version 2.0
Comment goes here
ASCII

DATASET STRUCTURED_POINTS
FIELD FieldData 1
TIME 1 1 double
0.09000000
DIMENSIONS    128   16   1

ORIGIN    0.000   0.000   0.000
SPACING   0.0078125 0.015625   1.000

POINT_DATA   2048
SCALARS fX double
LOOKUP_TABLE default

0 0 0 0 0 0 0 0 0 0 0 0 0 0 0 0 0 0 0 0 0 0 0 0 0 0 0 0 0 0 0 0 0 0 0 0 0 0 0 0 0 0 0 0 0 0 0 0 0 0 0 0 0 0 0 0 0 0 0 0 0 0 0 0 0 0 0 0 0 0 0 0 0 0 0 0 0 0 0 0 0 0 0 0 0 0 0 0 0 0 0 0 0 0 0 0 0 0 0 0 0 0 0 0 0 0 0 0 0 0 0 0 0 0 0 0 0 0 0 0 0 0 0 0 0 0 0 0 
0 0 0 0 0 0 0 0 0 0 0 0 0 0 0 0 0 0 0 0 0 0 0 0 0 0 0 0 0 0 0 0 0 0 0 0 0 0 0 0 0 0 0 0 0 0 0 0 0 0 0 0 0 0 0 0 0 0 0 0 0 0 0 0 0 0 0 0 0 0 0 0 0 0 0 0 0 0 0 0 0 0 0 0 0 0 0 0 0 0 0 0 0 0 0 0 0 0 0 0 0 0 0 0 0 0 0 0 0 0 0 0 0 0 0 0 0 0 0 0 0 0 0 0 0 0 0 0 
0 0 0 0 0 1.062774e+00 -1.100421e+00 -8.420044e-01 2.403237e-01 -3.257318e-01 -7.776248e-01 -1.841439e+00 1.713593e-01 3.757836e+00 4.521530e+00 2.940444e+00 4.586145e+00 5.796253e+00 5.745877e+00 4.234455e+00 3.210812e+00 1.529413e+00 -1.392780e+00 -1.925595e+00 5.367282e-01 1.680473e+00 1.391349e+00 7.081642e-01 6.455102e-01 -1.082376e-01 -1.198590e+00 7.299224e-01 7.306142e-01 3.510909e-02 -5.837367e-01 -1.231666e+00 7.037185e-01 3.319086e+00 4.360469e+00 3.886630e+00 2.341064e+00 9.771001e-01 -1.843000e-01 -6.509625e-02 2.113808e+00 3.665923e+00 1.726638e+00 -1.784782e+00 -2.894524e+00 -1.165408e+00 1.881186e+00 4.259386e+00 4.105567e+00 1.580204e+00 -1.409525e+00 -2.814453e+00 -2.753945e+00 1.999612e-01 4.852563e+00 1.373957e+00 -1.893452e+00 -2.019504e+00 -9.432834e-02 6.515882e+00 4.438252e+00 2.795366e+00 8.573235e-01 1.656108e+00 3.977809e+00 -1.784322e+00 -3.958184e+00 -8.292700e+00 -7.620385e+00 -5.721216e-01 1.875210e+00 6.058599e-02 -3.507403e+00 -4.456313e+00 -2.533294e+00 -8.179994e-01 -2.294118e+00 -5.925970e+00 -8.333823e+00 -6.835221e+00 -2.899791e+00 5.529068e-01 1.293329e+00 -5.217489e-01 -2.175094e+00 -2.537969e+00 -1.281504e+00 7.132622e-01 -1.093578e-01 -2.154083e+00 -4.895230e+00 -5.449817e+00 -1.930796e+00 -1.191413e+00 -2.796177e+00 -5.915806e+00 -8.119434e+00 -5.676480e+00 -5.463196e+00 -7.595627e+00 -8.055789e+00 -4.241144e+00 -1.444887e+00 -4.029870e+00 -5.386494e+00 -2.491428e+00 9.986903e-01 3.077649e+00 1.357512e+00 -1.581849e+00 8.258620e-01 4.505976e+00 3.904921e+00 3.362208e+00 5.683506e+00 4.378972e+00 3.859107e-01 -2.511692e+00 -1.590422e+00 1.364647e-01 0 0 0 0 
0 0 0 0 0 3.126411e+00 -3.232896e+00 -2.472570e+00 7.068791e-01 -9.596455e-01 -2.289196e+00 -5.417974e+00 5.026981e-01 1.105074e+01 1.329704e+01 8.647297e+00 1.348737e+01 1.704577e+01 1.689695e+01 1.245202e+01 9.441107e+00 4.497000e+00 -4.095303e+00 -5.662083e+00 1.578366e+00 4.941563e+00 4.091141e+00 2.082371e+00 1.898331e+00 -3.183186e-01 -3.524557e+00 2.146249e+00 2.148321e+00 1.031770e-01 -1.716725e+00 -3.622019e+00 2.069510e+00 9.760497e+00 1.282231e+01 1.142836e+01 6.883493e+00 2.872949e+00 -5.419309e-01 -1.913890e-01 6.215487e+00 1.077950e+01 5.077258e+00 -5.248066e+00 -8.511519e+00 -3.426975e+00 5.532217e+00 1.252573e+01 1.207308e+01 4.646802e+00 -4.144618e+00 -8.275995e+00 -8.062016e+00 1.514402e+00 1.700931e+01 6.591730e+00 -2.840794e+00 -1.697094e+00 3.870648e+00 2.280856e+01 1.593602e+01 1.199972e+01 6.078279e+00 7.472770e+00 1.520906e+01 -1.152421e+00 -7.704637e+00 -2.261520e+01 -2.233385e+01 -1.682142e+00 5.514562e+00 1.781053e-01 -1.031436e+01 -1.310484e+01 -7.449818e+00 -2.405655e+00 -6.747067e+00 -1.742827e+01 -2.450959e+01 -2.010196e+01 -8.527907e+00 1.626000e+00 3.803459e+00 -1.534490e+00 -6.396850e+00 -7.463957e+00 -3.768767e+00 2.097560e+00 -3.217111e-01 -6.335100e+00 -1.439703e+01 -1.602811e+01 -5.678488e+00 -3.503839e+00 -8.223375e+00 -1.739818e+01 -2.387874e+01 -1.669411e+01 -1.606730e+01 -2.233937e+01 -2.369211e+01 -1.247204e+01 -4.248558e+00 -1.185211e+01 -1.584220e+01 -7.327062e+00 2.937483e+00 9.051595e+00 3.992586e+00 -4.652185e+00 2.429219e+00 1.325279e+01 1.148487e+01 9.889472e+00 1.671935e+01 1.288563e+01 1.155906e+00 -7.360987e+00 -4.668314e+00 4.014815e-01 0 0 0 0 
0 0 0 0 0 2.159885e+00 -2.231385e+00 -1.706050e+00 4.883040e-01 -6.636633e-01 -1.582280e+00 -3.743465e+00 3.466127e-01 3.557965e+01 4.709696e+01 4.345815e+01 5.150248e+01 4.979222e+01 4.790835e+01 4.509790e+01 2.552189e+01 3.105720e+00 -2.828324e+00 -3.910433e+00 1.090149e+00 3.412936e+00 2.825472e+00 1.438189e+00 1.311176e+00 -2.198679e-01 -2.434273e+00 1.482256e+00 1.483706e+00 7.122906e-02 -1.185770e+00 -2.501681e+00 1.429409e+00 6.741403e+00 8.855849e+00 7.892824e+00 4.753863e+00 1.984088e+00 -3.742809e-01 -1.321692e-01 4.292622e+00 7.444755e+00 3.506628e+00 -3.624517e+00 -5.878532e+00 -2.366873e+00 3.821091e+00 8.651339e+00 8.338553e+00 3.209399e+00 -2.862422e+00 -5.715832e+00 -5.549049e+00 1.587392e+00 1.341809e+01 6.120410e+00 -2.786510e-01 1.457861e+00 5.214500e+00 1.803751e+01 1.283442e+01 1.066114e+01 6.450035e+00 6.788585e+00 1.268321e+01 1.674701e+00 -2.914160e+00 -1.448652e+01 -1.537712e+01 -1.161678e+00 3.808856e+00 1.229845e-01 -7.123988e+00 -9.051316e+00 -5.145512e+00 -1.661615e+00 -4.660425e+00 -1.203820e+01 -1.692939e+01 -1.388479e+01 -5.890286e+00 1.123077e+00 2.627050e+00 -1.059930e+00 -4.418438e+00 -5.155467e+00 -2.603130e+00 1.448775e+00 -2.222586e-01 -4.375807e+00 -9.944514e+00 -1.107118e+01 -3.922303e+00 -2.420150e+00 -5.680033e+00 -1.201733e+01 -1.649348e+01 -1.153089e+01 -1.109817e+01 -1.543075e+01 -1.636484e+01 -8.614235e+00 -2.934187e+00 -8.186713e+00 -1.094291e+01 -5.060901e+00 2.029166e+00 6.252308e+00 2.757863e+00 -3.213381e+00 1.678105e+00 9.154428e+00 7.933168e+00 6.831532e+00 1.155055e+01 8.903899e+00 8.085664e-01 -5.071896e+00 -3.220122e+00 2.773820e-01 0 0 0 0 
0 0 0 0 0 9.624870e-02 -9.891041e-02 -7.548468e-02 2.174848e-02 -2.974953e-02 -7.070904e-02 -1.669304e-01 1.527386e-02 4.331969e+01 4.716697e+01 4.337219e+01 4.570670e+01 4.506184e+01 4.454389e+01 4.453701e+01 4.113934e+01 1.381333e-01 -1.258018e-01 -1.739458e-01 4.851140e-02 1.518460e-01 1.256807e-01 6.398191e-02 5.835530e-02 -9.786844e-03 -1.083053e-01 6.592965e-02 6.599888e-02 3.161196e-03 -5.278127e-02 -1.113287e-01 6.361728e-02 2.999912e-01 3.940095e-01 3.510912e-01 2.114334e-01 8.823895e-02 -1.665006e-02 -5.876487e-03 1.909435e-01 3.311741e-01 1.560077e-01 -1.612320e-01 -2.615367e-01 -1.053057e-01 1.700598e-01 3.849924e-01 3.710356e-01 1.428012e-01 -1.273283e-01 -2.542897e-01 -2.448581e-01 2.950417e-01 1.305897e+00 9.164895e-01 6.881643e-01 1.144228e+00 1.256236e+00 1.760778e+00 1.332463e+00 1.463147e+00 1.231719e+00 9.712874e-01 1.466066e+00 1.048768e+00 8.450710e-01 -1.431345e-01 -6.626142e-01 -5.165679e-02 1.695052e-01 5.465274e-03 -3.170261e-01 -4.027912e-01 -2.289884e-01 -7.395981e-02 -2.074756e-01 -5.359019e-01 -7.536204e-01 -6.180549e-01 -2.621704e-01 4.998369e-02 1.169206e-01 -4.718806e-02 -1.966825e-01 -2.294793e-01 -1.158665e-01 6.447722e-02 -9.905300e-03 -1.947899e-01 -4.427176e-01 -4.928790e-01 -1.746108e-01 -1.077244e-01 -2.528349e-01 -5.349490e-01 -7.341744e-01 -5.132675e-01 -4.940606e-01 -6.870068e-01 -7.285156e-01 -3.833359e-01 -1.305157e-01 -3.644784e-01 -4.872075e-01 -2.252673e-01 9.037323e-02 2.783615e-01 1.227891e-01 -1.430455e-01 7.474817e-02 4.076143e-01 3.532207e-01 3.042684e-01 5.147068e-01 3.972438e-01 3.857087e-02 -2.226003e-01 -1.422291e-01 1.236527e-02 0 0 0 0 
0 0 0 0 0 0 0 0 0 0 0 0 0 4.712479e+01 5.135751e+01 4.849461e+01 5.033949e+01 4.995439e+01 4.816096e+01 5.047518e+01 4.495872e+01 0 0 0 0 0 0 0 0 0 0 0 0 0 0 0 0 0 0 0 0 0 0 0 0 0 0 0 0 0 0 0 0 0 0 0 -3.880636e-03 2.209049e-02 4.455694e-02 1.385270e-02 1.947368e-02 8.777288e-03 6.711972e-03 1.594463e-02 -4.181814e-03 6.363805e-03 2.638325e-03 -6.353466e-04 1.410864e-02 5.968505e-03 1.277829e-02 2.087988e-02 1.036555e-03 0 0 0 0 0 0 0 0 0 0 0 0 0 0 0 0 0 0 0 0 0 0 0 0 0 0 0 0 0 0 0 0 0 0 0 0 0 0 0 0 0 0 0 0 0 0 0 0 0 0 0 0 0 0 0 
0 0 0 0 0 0 0 0 0 0 0 0 0 4.756279e+01 4.926381e+01 4.764505e+01 4.840265e+01 4.821130e+01 4.770700e+01 4.893684e+01 4.726917e+01 0 0 0 0 0 0 0 0 0 0 0 0 0 0 0 0 0 0 0 0 0 0 0 0 0 0 0 0 0 0 0 0 0 0 0 0 0 0 0 0 0 0 0 0 0 0 0 0 0 0 0 0 0 0 0 0 0 0 0 0 0 0 0 0 0 0 0 0 0 0 0 0 0 0 0 0 0 0 0 0 0 0 0 0 0 0 0 0 0 0 0 0 0 0 0 0 0 0 0 0 0 0 0 0 0 0 0 
0 0 0 0 0 0 0 0 0 0 0 0 0 5.018578e+01 5.217713e+01 5.054313e+01 5.117037e+01 5.135700e+01 5.013622e+01 5.232815e+01 4.952995e+01 0 0 0 0 0 0 0 0 0 0 0 0 0 0 0 0 0 0 0 0 0 0 0 0 0 0 0 0 0 0 0 0 0 0 0 0 0 0 0 0 0 0 0 0 0 0 0 0 0 0 0 0 0 0 0 0 0 0 0 0 0 0 0 0 0 0 0 0 0 0 0 0 0 0 0 0 0 0 0 0 0 0 0 0 0 0 0 0 0 0 0 0 0 0 0 0 0 0 0 0 0 0 0 0 0 0 0 
0 0 0 0 0 0 0 0 0 0 0 0 0 4.824118e+01 4.969671e+01 4.849161e+01 4.895353e+01 4.925222e+01 4.837580e+01 5.032687e+01 4.838605e+01 0 0 0 0 0 0 0 0 0 0 0 0 0 0 0 0 0 0 0 0 0 0 0 0 0 0 0 0 0 0 0 0 0 0 0 0 0 0 0 0 0 0 0 0 0 0 0 0 0 0 0 0 0 0 0 0 0 0 0 0 0 0 0 0 0 0 0 0 0 0 0 0 0 0 0 0 0 0 0 0 0 0 0 0 0 0 0 0 0 0 0 0 0 0 0 0 0 0 0 0 0 0 0 0 0 0 0 
0 0 0 0 0 0 0 0 0 0 0 0 0 4.841465e+01 5.181497e+01 4.928102e+01 5.062643e+01 5.064607e+01 4.891497e+01 5.285706e+01 4.784827e+01 0 0 0 0 0 0 0 0 0 0 0 0 0 0 0 0 0 0 0 0 0 0 0 0 0 0 0 0 0 0 0 0 0 0 0 0 0 0 0 0 0 0 0 0 0 0 0 0 0 0 0 0 0 0 0 0 0 0 0 0 0 0 0 0 0 0 0 0 0 0 0 0 0 0 0 0 0 0 0 0 0 0 0 0 0 0 0 0 0 0 0 0 0 0 0 0 0 0 0 0 0 0 0 0 0 0 0 
0 0 0 0 0 7.887490e-02 -1.812700e-01 -1.396417e-01 -3.547786e-03 -2.984645e-02 2.076700e-02 -6.574252e-03 1.603792e-01 4.459837e+01 4.797784e+01 4.580866e+01 4.734401e+01 4.752979e+01 4.517738e+01 4.984205e+01 4.468061e+01 -9.969097e-02 -2.257061e-01 -2.069232e-01 -2.137940e-01 -2.112323e-01 -2.033799e-01 -1.912409e-01 -1.712905e-01 -2.056944e-01 -2.719398e-01 -3.381059e-01 -3.636159e-01 -2.640715e-01 -1.560831e-01 -3.375455e-02 -2.955403e-03 -1.725392e-02 -5.209004e-02 -7.190015e-02 -5.371911e-02 -2.937465e-02 -4.868184e-02 -1.230216e-01 -1.940663e-01 -1.692895e-01 -5.403926e-02 5.142951e-02 9.184604e-02 3.859766e-02 -7.223740e-02 -1.308506e-01 -5.323572e-02 1.331895e-01 3.177136e-01 3.234706e-01 1.448263e-01 -5.593143e-02 -9.727840e-02 3.821679e-02 2.139008e-01 2.847227e-01 2.349411e-01 1.472246e-01 7.588060e-02 7.003601e-02 9.380531e-02 5.948919e-02 -5.509882e-02 -1.719817e-01 -1.621803e-01 -4.862660e-02 5.056197e-02 2.003083e-02 -1.259196e-01 -2.543999e-01 -2.650358e-01 -1.740315e-01 -9.985635e-02 -9.607308e-02 -1.208041e-01 -8.410794e-02 2.163981e-02 1.100468e-01 7.936997e-02 -6.474265e-02 -2.021367e-01 -2.575139e-01 -2.457179e-01 -2.343640e-01 -2.720601e-01 -3.215725e-01 -3.553623e-01 -3.507552e-01 -2.932900e-01 -2.562880e-01 -2.614295e-01 -2.978468e-01 -3.523194e-01 -2.729027e-01 -1.769648e-01 -9.748799e-02 -8.296088e-02 -6.909695e-02 -7.400980e-03 4.514918e-02 5.075520e-02 2.716433e-02 3.606274e-02 8.351863e-02 6.027795e-02 9.004407e-03 6.429278e-02 1.817034e-01 2.199922e-01 1.823922e-01 1.598398e-01 1.176113e-01 9.576459e-02 5.897229e-02 9.719541e-02 -1.798153e-03 -4.763977e-02 1.807483e-02 0 0 0 0 
0 0 0 0 0 1.770128e+00 -4.078609e+00 -3.146717e+00 -8.114109e-02 -6.650965e-01 4.720132e-01 -1.425257e-01 3.604750e+00 4.034802e+01 4.764775e+01 4.333695e+01 4.885827e+01 4.324710e+01 4.199609e+01 4.847318e+01 3.601903e+01 -2.241190e+00 -5.074247e+00 -4.653150e+00 -4.808142e+00 -4.750512e+00 -4.573547e+00 -4.299730e+00 -3.851053e+00 -4.624546e+00 -6.113550e+00 -7.600325e+00 -8.173170e+00 -5.935201e+00 -3.508095e+00 -7.586430e-01 -6.643988e-02 -3.879529e-01 -1.171427e+00 -1.616843e+00 -1.207880e+00 -6.604934e-01 -1.094222e+00 -2.764821e+00 -4.361612e+00 -3.804875e+00 -1.214584e+00 1.155477e+00 2.063699e+00 8.672944e-01 -1.623306e+00 -2.940421e+00 -1.196267e+00 2.993080e+00 7.139968e+00 7.269506e+00 3.254746e+00 -1.257075e+00 -2.186312e+00 8.592105e-01 4.808049e+00 6.399499e+00 5.280103e+00 3.308524e+00 1.705251e+00 1.573994e+00 2.108166e+00 1.336929e+00 -1.238247e+00 -3.865051e+00 -3.644823e+00 -1.092816e+00 1.136362e+00 4.504261e-01 -2.828593e+00 -5.714519e+00 -5.953556e+00 -3.909672e+00 -2.243583e+00 -2.158737e+00 -2.714287e+00 -1.889661e+00 4.862836e-01 2.472956e+00 1.783753e+00 -1.454784e+00 -4.541624e+00 -5.785300e+00 -5.519834e+00 -5.264415e+00 -6.111468e+00 -7.224157e+00 -7.983034e+00 -7.878885e+00 -6.587935e+00 -5.756964e+00 -5.872449e+00 -6.690337e+00 -7.914303e+00 -6.130647e+00 -3.975615e+00 -2.190588e+00 -1.864681e+00 -1.553341e+00 -1.672299e-01 1.012693e+00 1.138531e+00 6.088866e-01 8.088344e-01 1.874421e+00 1.352377e+00 2.013928e-01 1.443688e+00 4.081036e+00 4.941173e+00 4.097063e+00 3.590389e+00 2.640562e+00 2.146143e+00 1.307749e+00 2.122409e+00 -1.123504e-01 -1.094871e+00 4.054304e-01 0 0 0 0 
0 0 0 0 0 2.562272e+00 -5.906484e+00 -4.558159e+00 -1.178388e-01 -9.615318e-01 6.847553e-01 -2.050329e-01 5.219293e+00 1.255142e+01 1.544418e+01 1.334467e+01 1.466356e+01 1.085544e+01 1.016023e+01 9.850811e+00 4.911252e+00 -3.245130e+00 -7.347270e+00 -6.737838e+00 -6.962394e+00 -6.878937e+00 -6.622592e+00 -6.225885e+00 -5.576183e+00 -6.696173e+00 -8.852104e+00 -1.100469e+01 -1.183398e+01 -8.593494e+00 -5.079325e+00 -1.098425e+00 -9.620117e-02 -5.617517e-01 -1.696261e+00 -2.341217e+00 -1.749000e+00 -9.563892e-01 -1.584325e+00 -4.003099e+00 -6.315073e+00 -5.509018e+00 -1.758583e+00 1.672888e+00 2.987846e+00 1.255688e+00 -2.350290e+00 -4.257257e+00 -1.731996e+00 4.333524e+00 1.033764e+01 1.052523e+01 4.712417e+00 -1.820095e+00 -3.165506e+00 1.244105e+00 6.961625e+00 9.265782e+00 7.644892e+00 4.790250e+00 2.468953e+00 2.278934e+00 3.052339e+00 1.935686e+00 -1.792805e+00 -5.596061e+00 -5.277211e+00 -1.582247e+00 1.645308e+00 6.522211e-01 -4.095089e+00 -8.273132e+00 -8.619226e+00 -5.660299e+00 -3.248258e+00 -3.125458e+00 -3.929756e+00 -2.735828e+00 7.040611e-01 3.580450e+00 2.582633e+00 -2.106271e+00 -6.575360e+00 -8.375815e+00 -7.991365e+00 -7.621488e+00 -8.847875e+00 -1.045889e+01 -1.155751e+01 -1.140656e+01 -9.537569e+00 -8.334590e+00 -8.501780e+00 -9.685833e+00 -1.145791e+01 -8.875704e+00 -5.755779e+00 -3.171587e+00 -2.699863e+00 -2.249146e+00 -2.423549e-01 1.465739e+00 1.647897e+00 8.811793e-01 1.170668e+00 2.713257e+00 1.957475e+00 2.913431e-01 2.089955e+00 5.908143e+00 7.153414e+00 5.931487e+00 5.197934e+00 3.822513e+00 3.105787e+00 1.888983e+00 3.057241e+00 -1.809272e-01 -1.591374e+00 5.868102e-01 0 0 0 0 
0 0 0 0 0 8.710193e-01 -2.009145e+00 -1.551083e+00 -4.024547e-02 -3.262817e-01 2.335091e-01 -6.908147e-02 1.774923e+00 4.267915e+00 5.251418e+00 4.537520e+00 4.986036e+00 3.691199e+00 3.454985e+00 3.349835e+00 1.670170e+00 -1.103631e+00 -2.498729e+00 -2.291612e+00 -2.368046e+00 -2.339658e+00 -2.252425e+00 -2.117397e+00 -1.896420e+00 -2.277322e+00 -3.010494e+00 -3.742475e+00 -4.024424e+00 -2.922364e+00 -1.727313e+00 -3.735361e-01 -3.271670e-02 -1.910527e-01 -5.769242e-01 -7.962733e-01 -5.948394e-01 -3.252705e-01 -5.387844e-01 -1.361300e+00 -2.147527e+00 -1.873432e+00 -5.980376e-01 5.688400e-01 1.015993e+00 4.269916e-01 -7.992214e-01 -1.447686e+00 -5.889649e-01 1.473633e+00 3.515381e+00 3.579193e+00 1.602497e+00 -6.189512e-01 -1.076473e+00 4.231110e-01 2.367477e+00 3.151005e+00 2.599730e+00 1.628950e+00 8.395825e-01 7.749760e-01 1.037978e+00 6.582465e-01 -6.096569e-01 -1.902991e+00 -1.794569e+00 -5.380574e-01 5.595082e-01 2.218258e-01 -1.392415e+00 -2.813013e+00 -2.930707e+00 -1.924658e+00 -1.104532e+00 -1.062794e+00 -1.336273e+00 -9.302756e-01 2.394173e-01 1.217541e+00 8.782506e-01 -7.162297e-01 -2.235873e+00 -2.848030e+00 -2.717249e+00 -2.591437e+00 -3.008467e+00 -3.556302e+00 -3.929836e+00 -3.878430e+00 -3.242924e+00 -2.833914e+00 -2.890761e+00 -3.293342e+00 -3.895924e+00 -3.017960e+00 -1.957130e+00 -1.078488e+00 -9.181437e-01 -7.649019e-01 -8.252602e-02 4.981955e-01 5.601212e-01 2.994570e-01 3.978964e-01 9.223547e-01 6.653758e-01 9.895473e-02 7.105602e-01 2.008810e+00 2.432233e+00 2.016816e+00 1.767385e+00 1.299562e+00 1.055409e+00 6.402056e-01 1.032028e+00 -7.037496e-02 -5.441431e-01 1.994547e-01 0 0 0 0 
0 0 0 0 0 0 0 0 0 0 0 0 0 0 0 0 0 0 0 0 0 0 0 0 0 0 0 0 0 0 0 0 0 0 0 0 0 0 0 0 0 0 0 0 0 0 0 0 0 0 0 0 0 0 0 0 0 0 0 0 0 0 0 0 0 0 0 0 0 0 0 0 0 0 0 0 0 0 0 0 0 0 0 0 0 0 0 0 0 0 0 0 0 0 0 0 0 0 0 0 0 0 0 0 0 0 0 0 0 0 0 0 0 0 0 0 0 0 0 0 0 0 0 0 0 0 0 0 
