# vtk DataFile Version 2.0
Comment goes here
ASCII

DATASET STRUCTURED_POINTS
FIELD FieldData 1
TIME 1 1 double
0.78000000
DIMENSIONS    128   16   1

ORIGIN    0.000   0.000   0.000
SPACING   0.0078125 0.015625   1.000

POINT_DATA   2048
SCALARS fX double
LOOKUP_TABLE default

0 0 0 0 0 0 0 0 0 0 0 0 0 0 0 0 0 0 0 0 0 0 0 0 0 0 0 0 0 0 0 0 0 0 0 0 0 0 0 0 0 0 0 0 0 0 0 0 0 0 0 0 0 0 0 0 0 0 0 0 0 0 0 0 0 0 0 0 0 0 0 0 0 0 0 0 0 0 0 0 0 0 0 0 0 0 0 0 0 0 0 0 0 0 0 0 0 0 0 0 0 0 0 0 0 0 0 0 0 0 0 0 0 0 0 0 0 0 0 0 0 0 0 0 0 0 0 0 
0 0 0 0 0 0 0 0 0 0 0 0 0 0 0 0 0 0 0 0 0 0 0 0 0 0 0 0 0 0 0 0 0 0 0 0 0 0 0 0 0 0 0 0 0 0 0 0 0 0 0 0 0 0 0 0 0 0 0 0 0 0 0 0 0 0 0 0 0 0 0 0 0 0 0 0 0 0 0 0 0 0 0 0 0 0 0 0 0 0 0 0 0 0 0 0 0 0 0 0 0 0 0 0 0 0 0 0 0 0 0 0 0 0 0 0 0 0 0 0 0 0 0 0 0 0 0 0 
0 0 0 0 0 1.645959e+00 -3.107843e-01 -1.110417e+00 1.896535e-01 -3.129914e-01 8.218984e-02 -2.577784e-01 6.628795e-01 9.688028e-01 1.076619e+00 1.087222e+00 1.804917e+00 1.118358e+00 1.731619e+00 1.382902e+00 5.345786e-01 6.620597e-01 -1.384000e-01 -4.048671e-02 -1.444094e-01 -4.451137e-02 -1.384044e-01 -3.587904e-02 -1.269479e-01 -2.562848e-02 -1.132851e-01 -1.873298e-02 -1.001187e-01 -1.796986e-02 -8.858592e-02 -2.441432e-02 -7.972526e-02 -3.681940e-02 -7.388376e-02 -5.344664e-02 -7.080101e-02 -7.060396e-02 -7.064788e-02 -8.442962e-02 -7.233439e-02 -9.370370e-02 -7.416206e-02 -9.941914e-02 -7.512686e-02 -1.037449e-01 -7.579633e-02 -1.096305e-01 -7.922800e-02 -1.196212e-01 -9.665846e-02 5.196767e-02 -1.436365e+00 -2.079967e+00 9.642072e-01 -2.650648e+00 -2.476368e+00 -2.536868e-01 -2.547918e+00 -4.197378e-01 -4.301744e+00 -8.333412e-01 -1.658112e+00 -4.601361e+00 1.511274e-01 -4.224194e+00 -2.304427e+00 -3.565864e+00 -5.202917e+00 -6.533410e-01 -2.921544e-01 -1.742137e-01 -2.431715e-01 -1.679980e-01 -2.096056e-01 -1.659656e-01 -1.882112e-01 -1.682091e-01 -1.779823e-01 -1.754912e-01 -1.781479e-01 -1.871105e-01 -1.864416e-01 -2.015667e-01 -1.993153e-01 -2.159010e-01 -2.122415e-01 -2.268575e-01 -2.215532e-01 -2.308423e-01 -2.261642e-01 -2.254626e-01 -2.260783e-01 -2.116798e-01 -2.228364e-01 -1.916258e-01 -2.185339e-01 -1.687294e-01 -2.140585e-01 -1.457359e-01 -2.101946e-01 -1.257634e-01 -2.069938e-01 -1.118686e-01 -2.045034e-01 -1.070109e-01 -2.021263e-01 -1.124882e-01 -1.979291e-01 -1.275668e-01 -1.888199e-01 -1.497667e-01 -1.721072e-01 -1.753017e-01 -1.476715e-01 -1.889437e-01 -2.101399e-01 -7.003995e-01 2.129088e-01 2.781671e-01 0 0 0 0 
0 0 0 0 0 4.840784e+00 -9.203171e-01 -3.276813e+00 5.511571e-01 -9.230061e-01 2.406599e-01 -7.586540e-01 1.949663e+00 2.849604e+00 3.166712e+00 3.197859e+00 5.308609e+00 3.289356e+00 5.093051e+00 4.067689e+00 1.572792e+00 1.947759e+00 -4.064934e-01 -1.185853e-01 -4.242949e-01 -1.305617e-01 -4.067778e-01 -1.053154e-01 -3.732161e-01 -7.528183e-02 -3.331264e-01 -5.507012e-02 -2.944461e-01 -5.284373e-02 -2.605253e-01 -7.177829e-02 -2.344367e-01 -1.082295e-01 -2.172254e-01 -1.571073e-01 -2.081444e-01 -2.075662e-01 -2.077032e-01 -2.482474e-01 -2.126905e-01 -2.755545e-01 -2.180976e-01 -2.923954e-01 -2.209618e-01 -3.051396e-01 -2.229460e-01 -3.224587e-01 -2.330418e-01 -3.518447e-01 -2.843215e-01 1.527492e-01 -4.182165e+00 -4.975285e+00 7.310842e+00 -2.704220e+00 -2.469467e+00 5.722045e+00 -1.055143e+00 5.476159e+00 -6.728459e+00 4.558094e+00 2.008307e+00 -7.155982e+00 8.030424e+00 -4.914834e+00 8.408619e-01 -6.853573e+00 -1.514323e+01 -1.921730e+00 -8.594891e-01 -5.125469e-01 -7.153055e-01 -4.941693e-01 -6.165189e-01 -4.881500e-01 -5.535682e-01 -4.947316e-01 -5.234729e-01 -5.161424e-01 -5.239548e-01 -5.503121e-01 -5.483427e-01 -5.928237e-01 -5.861986e-01 -6.349749e-01 -6.242077e-01 -6.671925e-01 -6.515894e-01 -6.789108e-01 -6.651529e-01 -6.630955e-01 -6.649118e-01 -6.225738e-01 -6.553940e-01 -5.636055e-01 -6.427466e-01 -4.962557e-01 -6.295580e-01 -4.285761e-01 -6.181143e-01 -3.697222e-01 -6.085600e-01 -3.286883e-01 -6.010547e-01 -3.142136e-01 -5.938904e-01 -3.301798e-01 -5.814493e-01 -3.745014e-01 -5.547174e-01 -4.399546e-01 -5.058229e-01 -5.153650e-01 -4.340051e-01 -5.539673e-01 -6.074200e-01 -2.044299e+00 6.330868e-01 8.184183e-01 0 0 0 0 
0 0 0 0 0 3.343678e+00 -6.387431e-01 -2.268757e+00 3.774944e-01 -6.387577e-01 1.657167e-01 -5.242798e-01 1.346753e+00 8.637911e+00 6.397487e+00 9.991339e+00 1.522734e+01 1.029970e+01 1.472096e+01 1.086235e+01 3.642962e+00 1.345684e+00 -2.805145e-01 -8.167470e-02 -2.928724e-01 -9.001492e-02 -2.808425e-01 -7.264510e-02 -2.577243e-01 -5.195496e-02 -2.300781e-01 -3.802709e-02 -2.033810e-01 -3.649795e-02 -1.799495e-01 -4.956757e-02 -1.619150e-01 -7.472992e-02 -1.500115e-01 -1.084801e-01 -1.437319e-01 -1.433331e-01 -1.434316e-01 -1.714425e-01 -1.468896e-01 -1.903197e-01 -1.506399e-01 -2.019677e-01 -1.526313e-01 -2.107812e-01 -1.540092e-01 -2.227486e-01 -1.609843e-01 -2.430479e-01 -1.964127e-01 1.054658e-01 -2.877134e+00 -2.676460e+00 7.941358e+00 1.235734e+00 1.364505e+00 7.857046e+00 3.186539e+00 7.929890e+00 -1.151236e+00 7.509871e+00 5.369619e+00 -1.102659e+00 9.980822e+00 9.037259e-01 5.069243e+00 -2.791353e+00 -1.039128e+01 -1.327517e+00 -5.938012e-01 -3.541203e-01 -4.941490e-01 -3.413791e-01 -4.258806e-01 -3.372010e-01 -3.823844e-01 -3.417392e-01 -3.615908e-01 -3.565254e-01 -3.619212e-01 -3.801260e-01 -3.787647e-01 -4.094882e-01 -4.049102e-01 -4.386002e-01 -4.311608e-01 -4.608512e-01 -4.500722e-01 -4.689448e-01 -4.594421e-01 -4.580239e-01 -4.592812e-01 -4.300410e-01 -4.527149e-01 -3.893150e-01 -4.439821e-01 -3.427890e-01 -4.348596e-01 -2.960137e-01 -4.269162e-01 -2.553060e-01 -4.202487e-01 -2.268806e-01 -4.149768e-01 -2.167913e-01 -4.099442e-01 -2.277506e-01 -4.013038e-01 -2.583529e-01 -3.828674e-01 -3.036424e-01 -3.492194e-01 -3.558817e-01 -2.996359e-01 -3.818094e-01 -4.144251e-01 -1.404508e+00 4.406455e-01 5.654644e-01 0 0 0 0 
0 0 0 0 0 1.488523e-01 -2.921033e-02 -1.023612e-01 1.599085e-02 -2.874297e-02 7.246680e-03 -2.340422e-02 5.996971e-02 1.058268e+01 1.153129e+01 1.091652e+01 1.196799e+01 1.131531e+01 1.152674e+01 1.191285e+01 1.012585e+01 5.998461e-02 -1.242106e-02 -3.576093e-03 -1.298692e-02 -3.964581e-03 -1.246906e-02 -3.208727e-03 -1.145613e-02 -2.301610e-03 -1.023682e-02 -1.689947e-03 -9.053531e-03 -1.624081e-03 -8.010063e-03 -2.203610e-03 -7.203602e-03 -3.319809e-03 -6.669836e-03 -4.819444e-03 -6.388478e-03 -6.370893e-03 -6.376243e-03 -7.624690e-03 -6.533536e-03 -8.468976e-03 -6.704410e-03 -8.991433e-03 -6.796355e-03 -9.386510e-03 -6.859574e-03 -9.920417e-03 -7.170489e-03 -1.082448e-02 -8.749703e-03 4.684211e-03 -1.375626e-01 2.613033e-01 1.685402e+00 1.302860e+00 1.429944e+00 1.899994e+00 1.717286e+00 2.077822e+00 1.237272e+00 2.156292e+00 1.678136e+00 1.466267e+00 2.111173e+00 1.607940e+00 1.946534e+00 4.550961e-01 -4.572475e-01 -5.912821e-02 -2.646653e-02 -1.578703e-02 -2.201497e-02 -1.520785e-02 -1.896732e-02 -1.501667e-02 -1.702736e-02 -1.521668e-02 -1.610020e-02 -1.587419e-02 -1.611429e-02 -1.692448e-02 -1.686363e-02 -1.823112e-02 -1.802685e-02 -1.952633e-02 -1.919460e-02 -2.051620e-02 -2.003597e-02 -2.087638e-02 -2.045342e-02 -2.039101e-02 -2.044768e-02 -1.914698e-02 -2.015739e-02 -1.733528e-02 -1.976941e-02 -1.526268e-02 -1.936007e-02 -1.317351e-02 -1.899658e-02 -1.134720e-02 -1.868247e-02 -1.006096e-02 -1.842548e-02 -9.588663e-03 -1.818014e-02 -1.005898e-02 -1.778356e-02 -1.141829e-02 -1.696996e-02 -1.345452e-02 -1.550375e-02 -1.581846e-02 -1.330234e-02 -1.678574e-02 -1.714493e-02 -6.060856e-02 2.046753e-02 2.521318e-02 0 0 0 0 
0 0 0 0 0 0 0 0 0 0 0 0 0 1.140972e+01 1.209418e+01 1.167882e+01 1.260228e+01 1.202381e+01 1.220659e+01 1.248932e+01 1.089701e+01 0 0 0 0 0 0 0 0 0 0 0 0 0 0 0 0 0 0 0 0 0 0 0 0 0 0 0 0 0 0 0 0 0 0 0 -6.228988e-03 4.244563e-02 9.067973e-02 1.355534e-02 7.234040e-02 1.867966e-02 2.352246e-02 4.382880e-02 -3.820705e-02 3.785704e-02 -2.506346e-02 1.430583e-02 9.647580e-03 1.357373e-02 2.257973e-02 -4.125963e-02 -6.283986e-03 0 0 0 0 0 0 0 0 0 0 0 0 0 0 0 0 0 0 0 0 0 0 0 0 0 0 0 0 0 0 0 0 0 0 0 0 0 0 0 0 0 0 0 0 0 0 0 0 0 0 0 0 0 0 0 
0 0 0 0 0 0 0 0 0 0 0 0 0 1.192155e+01 1.251574e+01 1.196530e+01 1.235825e+01 1.213178e+01 1.215851e+01 1.236273e+01 1.197506e+01 0 0 0 0 0 0 0 0 0 0 0 0 0 0 0 0 0 0 0 0 0 0 0 0 0 0 0 0 0 0 0 0 0 0 0 0 0 0 0 0 0 0 0 0 0 0 0 0 0 0 0 0 0 0 0 0 0 0 0 0 0 0 0 0 0 0 0 0 0 0 0 0 0 0 0 0 0 0 0 0 0 0 0 0 0 0 0 0 0 0 0 0 0 0 0 0 0 0 0 0 0 0 0 0 0 0 0 
0 0 0 0 0 0 0 0 0 0 0 0 0 1.215059e+01 1.271903e+01 1.221883e+01 1.261750e+01 1.241608e+01 1.238519e+01 1.266781e+01 1.209911e+01 0 0 0 0 0 0 0 0 0 0 0 0 0 0 0 0 0 0 0 0 0 0 0 0 0 0 0 0 0 0 0 0 0 0 0 0 0 0 0 0 0 0 0 0 0 0 0 0 0 0 0 0 0 0 0 0 0 0 0 0 0 0 0 0 0 0 0 0 0 0 0 0 0 0 0 0 0 0 0 0 0 0 0 0 0 0 0 0 0 0 0 0 0 0 0 0 0 0 0 0 0 0 0 0 0 0 0 
0 0 0 0 0 0 0 0 0 0 0 0 0 1.191882e+01 1.251269e+01 1.196427e+01 1.235920e+01 1.213188e+01 1.216535e+01 1.236183e+01 1.198718e+01 0 0 0 0 0 0 0 0 0 0 0 0 0 0 0 0 0 0 0 0 0 0 0 0 0 0 0 0 0 0 0 0 0 0 0 0 0 0 0 0 0 0 0 0 0 0 0 0 0 0 0 0 0 0 0 0 0 0 0 0 0 0 0 0 0 0 0 0 0 0 0 0 0 0 0 0 0 0 0 0 0 0 0 0 0 0 0 0 0 0 0 0 0 0 0 0 0 0 0 0 0 0 0 0 0 0 0 
0 0 0 0 0 0 0 0 0 0 0 0 0 1.140956e+01 1.207939e+01 1.168180e+01 1.259510e+01 1.202975e+01 1.221698e+01 1.248544e+01 1.094017e+01 0 0 0 0 0 0 0 0 0 0 0 0 0 0 0 0 0 0 0 0 0 0 0 0 0 0 0 0 0 0 0 0 0 0 0 0 0 0 0 0 0 0 0 0 0 0 0 0 0 0 0 0 0 0 0 0 0 0 0 0 0 0 0 0 0 0 0 0 0 0 0 0 0 0 0 0 0 0 0 0 0 0 0 0 0 0 0 0 0 0 0 0 0 0 0 0 0 0 0 0 0 0 0 0 0 0 0 
0 0 0 0 0 1.488991e-01 -3.030977e-02 -1.047116e-01 1.308989e-02 -3.173549e-02 4.518088e-03 -2.586110e-02 5.845339e-02 1.057565e+01 1.151532e+01 1.091571e+01 1.196314e+01 1.132403e+01 1.154951e+01 1.191691e+01 1.019792e+01 6.190885e-02 -9.569931e-03 -9.698033e-04 -1.025187e-02 -1.937003e-03 -1.061239e-02 -2.414926e-03 -1.085678e-02 -2.899535e-03 -1.087177e-02 -3.285385e-03 -1.049468e-02 -3.436518e-03 -9.619173e-03 -3.304024e-03 -8.262368e-03 -2.960738e-03 -6.586213e-03 -2.569321e-03 -4.833330e-03 -2.307844e-03 -3.261414e-03 -2.301571e-03 -2.076837e-03 -2.607151e-03 -1.408503e-03 -3.271967e-03 -1.341548e-03 -4.345274e-03 -1.896092e-03 -5.820697e-03 -3.017217e-03 -7.632566e-03 -4.623319e-03 -9.715385e-03 -6.699368e-03 -1.237399e-02 -7.643294e-03 -1.275374e-02 -1.133079e-02 -1.099566e-02 -1.342372e-02 -1.055214e-02 -1.440991e-02 -1.218477e-02 -1.228034e-02 -1.563267e-02 -1.124128e-02 -1.640759e-02 -1.359068e-02 -1.541755e-02 -1.658453e-02 -1.369827e-02 -1.556700e-02 -1.361323e-02 -1.576188e-02 -1.476308e-02 -1.658664e-02 -1.632789e-02 -1.751146e-02 -1.772098e-02 -1.815157e-02 -1.857606e-02 -1.827094e-02 -1.871806e-02 -1.781014e-02 -1.818816e-02 -1.694319e-02 -1.724510e-02 -1.602847e-02 -1.622601e-02 -1.543265e-02 -1.538731e-02 -1.539374e-02 -1.484611e-02 -1.595231e-02 -1.455837e-02 -1.697392e-02 -1.437788e-02 -1.823129e-02 -1.416961e-02 -1.950315e-02 -1.386284e-02 -2.058517e-02 -1.344742e-02 -2.125868e-02 -1.293261e-02 -2.128967e-02 -1.236054e-02 -2.048956e-02 -1.185836e-02 -1.881577e-02 -1.168987e-02 -1.641947e-02 -1.215793e-02 -1.360054e-02 -1.339342e-02 -1.069000e-02 -1.403217e-02 -1.468384e-02 -5.859709e-02 2.095762e-02 2.515195e-02 0 0 0 0 
0 0 0 0 0 3.344725e+00 -6.634516e-01 -2.321556e+00 3.123536e-01 -7.059505e-01 1.044539e-01 -5.794439e-01 1.312702e+00 8.660310e+00 6.379306e+00 9.998316e+00 1.517286e+01 1.035823e+01 1.467556e+01 1.082726e+01 3.838339e+00 1.389076e+00 -2.163536e-01 -2.304750e-02 -2.313952e-01 -4.446050e-02 -2.391493e-01 -5.485092e-02 -2.443089e-01 -6.543715e-02 -2.443910e-01 -7.390220e-02 -2.357752e-01 -7.720918e-02 -2.160717e-01 -7.424316e-02 -1.856389e-01 -6.659954e-02 -1.480697e-01 -5.788631e-02 -1.087655e-01 -5.206449e-02 -7.348509e-02 -5.192485e-02 -4.685763e-02 -5.874351e-02 -3.178724e-02 -7.360530e-02 -3.021003e-02 -9.764122e-02 -4.260251e-02 -1.307296e-01 -6.774937e-02 -1.714051e-01 -1.038222e-01 -2.181976e-01 -1.504737e-01 -2.779402e-01 -1.717070e-01 -2.864931e-01 -2.545371e-01 -2.469998e-01 -3.015219e-01 -2.370145e-01 -3.236460e-01 -2.736619e-01 -2.758009e-01 -3.510809e-01 -2.524403e-01 -3.684515e-01 -3.051671e-01 -3.461748e-01 -3.723742e-01 -3.075466e-01 -3.495193e-01 -3.056468e-01 -3.539144e-01 -3.314952e-01 -3.724635e-01 -3.666662e-01 -3.932601e-01 -3.979796e-01 -4.076621e-01 -4.172114e-01 -4.103732e-01 -4.204351e-01 -4.000626e-01 -4.085751e-01 -3.806347e-01 -3.874344e-01 -3.601272e-01 -3.645732e-01 -3.467614e-01 -3.457354e-01 -3.458692e-01 -3.335449e-01 -3.583614e-01 -3.270215e-01 -3.812402e-01 -3.229114e-01 -4.094437e-01 -3.182368e-01 -4.380625e-01 -3.114741e-01 -4.625660e-01 -3.024403e-01 -4.780674e-01 -2.913338e-01 -4.792669e-01 -2.790099e-01 -4.617937e-01 -2.681560e-01 -4.244864e-01 -2.644741e-01 -3.705314e-01 -2.745623e-01 -3.065236e-01 -3.014677e-01 -2.410076e-01 -3.199772e-01 -3.590881e-01 -1.359228e+00 4.516985e-01 5.640896e-01 0 0 0 0 
0 0 0 0 0 4.842300e+00 -9.560916e-01 -3.353253e+00 4.568559e-01 -1.020277e+00 1.519746e-01 -8.385111e-01 1.900368e+00 2.802474e+00 3.147620e+00 3.183230e+00 5.290696e+00 3.338227e+00 5.075361e+00 4.095922e+00 1.688954e+00 2.010621e+00 -3.135756e-01 -3.368742e-02 -3.352817e-01 -6.460840e-02 -3.464203e-01 -7.956343e-02 -3.538061e-01 -9.481351e-02 -3.538604e-01 -1.070174e-01 -3.413501e-01 -1.117827e-01 -3.128150e-01 -1.074913e-01 -2.687678e-01 -9.644243e-02 -2.143982e-01 -8.384802e-02 -1.575137e-01 -7.543266e-02 -1.064443e-01 -7.523081e-02 -6.788995e-02 -8.509091e-02 -4.605731e-02 -1.065887e-01 -4.375533e-02 -1.413677e-01 -6.168013e-02 -1.892575e-01 -9.807691e-02 -2.481389e-01 -1.502998e-01 -3.158840e-01 -2.178436e-01 -4.023814e-01 -2.485914e-01 -4.147695e-01 -3.685076e-01 -3.575931e-01 -4.365220e-01 -3.431312e-01 -4.685447e-01 -3.961805e-01 -3.992752e-01 -5.082553e-01 -3.654499e-01 -5.333942e-01 -4.417727e-01 -5.011338e-01 -5.390602e-01 -4.452081e-01 -5.059726e-01 -4.424603e-01 -5.123400e-01 -4.798871e-01 -5.392001e-01 -5.308109e-01 -5.693138e-01 -5.761497e-01 -5.901701e-01 -6.039986e-01 -5.941027e-01 -6.086743e-01 -5.791858e-01 -5.915150e-01 -5.510709e-01 -5.609196e-01 -5.213916e-01 -5.278304e-01 -5.020459e-01 -5.005586e-01 -5.007496e-01 -4.829014e-01 -5.188211e-01 -4.734420e-01 -5.519260e-01 -4.674773e-01 -5.927471e-01 -4.607107e-01 -6.341921e-01 -4.509527e-01 -6.697172e-01 -4.379497e-01 -6.922538e-01 -4.219865e-01 -6.941181e-01 -4.042783e-01 -6.689482e-01 -3.886729e-01 -6.150107e-01 -3.833685e-01 -5.368657e-01 -3.978657e-01 -4.440246e-01 -4.366025e-01 -3.491397e-01 -4.644557e-01 -5.272927e-01 -1.978721e+00 6.490998e-01 8.164281e-01 0 0 0 0 
0 0 0 0 0 1.646474e+00 -3.229497e-01 -1.136409e+00 1.575922e-01 -3.460618e-01 5.203882e-02 -2.849283e-01 6.461197e-01 9.527786e-01 1.070128e+00 1.082249e+00 1.798831e+00 1.134983e+00 1.725620e+00 1.392524e+00 5.740993e-01 6.834546e-01 -1.067919e-01 -1.160972e-02 -1.141384e-01 -2.208490e-02 -1.178833e-01 -2.712743e-02 -1.203540e-01 -3.227589e-02 -1.203411e-01 -3.640055e-02 -1.160695e-01 -3.801004e-02 -1.063626e-01 -3.655212e-02 -9.139121e-02 -3.280363e-02 -7.291463e-02 -2.853103e-02 -5.358154e-02 -2.567601e-02 -3.622062e-02 -2.560753e-02 -2.310916e-02 -2.895455e-02 -1.567857e-02 -3.625534e-02 -1.488685e-02 -4.807181e-02 -2.097371e-02 -6.434857e-02 -3.334476e-02 -8.436634e-02 -5.110090e-02 -1.074017e-01 -7.406919e-02 -1.368152e-01 -8.452769e-02 -1.410302e-01 -1.253012e-01 -1.215890e-01 -1.484239e-01 -1.166688e-01 -1.593087e-01 -1.347034e-01 -1.357547e-01 -1.728071e-01 -1.242510e-01 -1.813503e-01 -1.501963e-01 -1.703766e-01 -1.832705e-01 -1.513598e-01 -1.720203e-01 -1.504268e-01 -1.741875e-01 -1.631549e-01 -1.833232e-01 -1.804725e-01 -1.935652e-01 -1.958911e-01 -2.006595e-01 -2.053632e-01 -2.020003e-01 -2.069572e-01 -1.969333e-01 -2.011280e-01 -1.873794e-01 -1.907304e-01 -1.772928e-01 -1.794832e-01 -1.707171e-01 -1.702105e-01 -1.702741e-01 -1.642026e-01 -1.764120e-01 -1.609788e-01 -1.876597e-01 -1.589439e-01 -2.015346e-01 -1.566435e-01 -2.156328e-01 -1.533414e-01 -2.277363e-01 -1.489568e-01 -2.354450e-01 -1.435853e-01 -2.361408e-01 -1.376289e-01 -2.276440e-01 -1.323753e-01 -2.093401e-01 -1.305843e-01 -1.827537e-01 -1.354613e-01 -1.511016e-01 -1.485283e-01 -1.188221e-01 -1.585107e-01 -1.828884e-01 -6.780902e-01 2.183590e-01 2.774905e-01 0 0 0 0 
0 0 0 0 0 0 0 0 0 0 0 0 0 0 0 0 0 0 0 0 0 0 0 0 0 0 0 0 0 0 0 0 0 0 0 0 0 0 0 0 0 0 0 0 0 0 0 0 0 0 0 0 0 0 0 0 0 0 0 0 0 0 0 0 0 0 0 0 0 0 0 0 0 0 0 0 0 0 0 0 0 0 0 0 0 0 0 0 0 0 0 0 0 0 0 0 0 0 0 0 0 0 0 0 0 0 0 0 0 0 0 0 0 0 0 0 0 0 0 0 0 0 0 0 0 0 0 0 
