# vtk DataFile Version 2.0
Comment goes here
ASCII

DATASET STRUCTURED_POINTS
FIELD FieldData 1
TIME 1 1 double
0.57000000
DIMENSIONS    128   16   1

ORIGIN    0.000   0.000   0.000
SPACING   0.0078125 0.015625   1.000

POINT_DATA   2048
SCALARS fY double
LOOKUP_TABLE default

0 0 0 0 0 0 0 0 0 0 0 0 0 0 0 0 0 0 0 0 0 0 0 0 0 0 0 0 0 0 0 0 0 0 0 0 0 0 0 0 0 0 0 0 0 0 0 0 0 0 0 0 0 0 0 0 0 0 0 0 0 0 0 0 0 0 0 0 0 0 0 0 0 0 0 0 0 0 0 0 0 0 0 0 0 0 0 0 0 0 0 0 0 0 0 0 0 0 0 0 0 0 0 0 0 0 0 0 0 0 0 0 0 0 0 0 0 0 0 0 0 0 0 0 0 0 0 0 
0 0 0 0 0 0 0 0 0 0 0 0 0 0 0 0 0 0 0 0 0 0 0 0 0 0 0 0 0 0 0 0 0 0 0 0 0 0 0 0 0 0 0 0 0 0 0 0 0 0 0 0 0 0 0 0 0 0 0 0 0 0 0 0 0 0 0 0 0 0 0 0 0 0 0 0 0 0 0 0 0 0 0 0 0 0 0 0 0 0 0 0 0 0 0 0 0 0 0 0 0 0 0 0 0 0 0 0 0 0 0 0 0 0 0 0 0 0 0 0 0 0 0 0 0 0 0 0 
0 0 0 0 0 9.897449e-01 7.870970e-01 6.743447e-01 1.193579e+00 8.060018e-01 1.481283e+00 1.030126e+00 1.711898e+00 1.001941e+00 -2.043242e+00 -4.646494e+00 -6.200642e+00 -8.546404e+00 -1.078217e+01 -1.198555e+01 -1.613830e+01 -1.637093e+01 -1.609565e+01 -1.611969e+01 -1.568442e+01 -1.568835e+01 -1.528098e+01 -1.540546e+01 -1.507271e+01 -1.522903e+01 -1.487859e+01 -1.497990e+01 -1.461845e+01 -1.467417e+01 -1.435075e+01 -1.438083e+01 -1.415226e+01 -1.417191e+01 -1.401073e+01 -1.388875e+01 -1.366020e+01 -1.335995e+01 -1.320444e+01 -1.297851e+01 -1.308594e+01 -1.296857e+01 -1.318202e+01 -1.298846e+01 -1.313039e+01 -1.279355e+01 -1.279283e+01 -1.232165e+01 -1.220607e+01 -1.179080e+01 -1.180289e+01 -1.173037e+01 -1.188215e+01 -1.351763e+01 -1.257735e+01 -9.443272e+00 -1.321741e+01 -1.155128e+01 -1.016149e+01 -8.719471e+00 -8.625257e+00 -1.247570e+01 -7.648196e+00 -1.253767e+01 -1.082666e+01 -8.893232e+00 -8.081841e+00 -4.199966e+00 -6.609692e+00 -6.983249e+00 -7.224813e+00 -7.302518e+00 -7.408977e+00 -7.291035e+00 -7.221911e+00 -6.943562e+00 -6.806881e+00 -6.466164e+00 -6.355814e+00 -6.046537e+00 -6.038697e+00 -5.788306e+00 -5.812377e+00 -5.530934e+00 -5.541221e+00 -5.324816e+00 -5.431045e+00 -5.309473e+00 -5.320831e+00 -5.041555e+00 -4.773626e+00 -4.426871e+00 -4.148403e+00 -4.077540e+00 -3.976431e+00 -4.175624e+00 -4.057988e+00 -4.266491e+00 -3.912915e+00 -3.992637e+00 -3.404594e+00 -3.423895e+00 -2.810174e+00 -2.966683e+00 -2.548704e+00 -2.828576e+00 -2.484262e+00 -2.588044e+00 -2.192260e+00 -2.101000e+00 -1.856163e+00 -1.692370e+00 -1.666385e+00 -1.355199e+00 -1.491896e+00 -1.012048e+00 -1.323860e+00 -6.666679e-01 -1.345715e+00 -5.286328e-01 0 0 0 0 
0 0 0 0 0 2.910264e+00 2.306975e+00 1.971171e+00 3.504520e+00 2.369219e+00 4.356294e+00 3.029485e+00 5.034511e+00 2.946250e+00 -6.010271e+00 -1.366778e+01 -1.823946e+01 -2.514050e+01 -3.171761e+01 -3.525830e+01 -4.747709e+01 -4.816155e+01 -4.735163e+01 -4.742235e+01 -4.614143e+01 -4.615285e+01 -4.495401e+01 -4.532009e+01 -4.434089e+01 -4.480074e+01 -4.376956e+01 -4.406762e+01 -4.300415e+01 -4.316812e+01 -4.221661e+01 -4.230514e+01 -4.163274e+01 -4.169060e+01 -4.121640e+01 -4.085753e+01 -4.018513e+01 -3.930166e+01 -3.884411e+01 -3.817933e+01 -3.849533e+01 -3.814993e+01 -3.877789e+01 -3.820835e+01 -3.862591e+01 -3.763490e+01 -3.763280e+01 -3.624658e+01 -3.590662e+01 -3.468498e+01 -3.472071e+01 -3.450760e+01 -3.515473e+01 -3.767651e+01 -3.760313e+01 -3.294645e+01 -3.566645e+01 -3.190081e+01 -3.016849e+01 -2.913741e+01 -2.639749e+01 -3.085993e+01 -2.355145e+01 -2.843526e+01 -2.407484e+01 -2.169791e+01 -2.079269e+01 -1.627332e+01 -1.990978e+01 -2.054144e+01 -2.125206e+01 -2.148067e+01 -2.179383e+01 -2.144685e+01 -2.124348e+01 -2.042461e+01 -2.002250e+01 -1.902017e+01 -1.869554e+01 -1.778572e+01 -1.776266e+01 -1.702610e+01 -1.709693e+01 -1.626906e+01 -1.629936e+01 -1.566284e+01 -1.597539e+01 -1.561784e+01 -1.565130e+01 -1.482985e+01 -1.404171e+01 -1.302175e+01 -1.220257e+01 -1.199409e+01 -1.169662e+01 -1.228247e+01 -1.193635e+01 -1.254960e+01 -1.150949e+01 -1.174399e+01 -1.001431e+01 -1.007120e+01 -8.266174e+00 -8.726795e+00 -7.497682e+00 -8.321298e+00 -7.308920e+00 -7.614542e+00 -6.450738e+00 -6.182472e+00 -5.462426e+00 -4.980520e+00 -4.903825e+00 -3.988032e+00 -4.389686e+00 -2.978624e+00 -3.902223e+00 -1.974229e+00 -3.964774e+00 -1.555236e+00 0 0 0 0 
0 0 0 0 0 2.009924e+00 1.589676e+00 1.355691e+00 2.417863e+00 1.635890e+00 3.008941e+00 2.092497e+00 3.477393e+00 3.456014e+00 -5.621626e+00 -5.535161e+00 -1.484185e+01 -1.501369e+01 -2.402487e+01 -2.454391e+01 -3.317545e+01 -3.327366e+01 -3.271407e+01 -3.276292e+01 -3.187778e+01 -3.188559e+01 -3.105715e+01 -3.131001e+01 -3.063337e+01 -3.095105e+01 -3.023853e+01 -3.044446e+01 -2.970967e+01 -2.982298e+01 -2.916557e+01 -2.922677e+01 -2.876222e+01 -2.880223e+01 -2.847462e+01 -2.822667e+01 -2.776210e+01 -2.715166e+01 -2.683551e+01 -2.637618e+01 -2.659447e+01 -2.635580e+01 -2.678964e+01 -2.639611e+01 -2.668460e+01 -2.599989e+01 -2.599846e+01 -2.504073e+01 -2.480589e+01 -2.396191e+01 -2.398666e+01 -2.383955e+01 -2.449477e+01 -2.165344e+01 -2.232129e+01 -2.605791e+01 -1.875676e+01 -2.059333e+01 -1.992111e+01 -2.130529e+01 -2.085460e+01 -1.550139e+01 -2.205817e+01 -1.515026e+01 -1.593424e+01 -1.764297e+01 -1.506659e+01 -1.943950e+01 -1.478699e+01 -1.419035e+01 -1.468129e+01 -1.483923e+01 -1.505558e+01 -1.481585e+01 -1.467534e+01 -1.410960e+01 -1.383180e+01 -1.313932e+01 -1.291504e+01 -1.228649e+01 -1.227056e+01 -1.176172e+01 -1.181066e+01 -1.123876e+01 -1.125971e+01 -1.082001e+01 -1.103596e+01 -1.078898e+01 -1.081213e+01 -1.024468e+01 -9.700212e+00 -8.995617e+00 -8.429697e+00 -8.285658e+00 -8.080125e+00 -8.484798e+00 -8.245656e+00 -8.669268e+00 -7.950711e+00 -8.112713e+00 -6.917850e+00 -6.957202e+00 -5.710387e+00 -6.028711e+00 -5.179806e+00 -5.748949e+00 -5.049792e+00 -5.261088e+00 -4.457309e+00 -4.272074e+00 -3.774726e+00 -3.441769e+00 -3.388661e+00 -2.755807e+00 -3.033061e+00 -2.058483e+00 -2.699618e+00 -1.370227e+00 -2.741989e+00 -1.074501e+00 0 0 0 0 
0 0 0 0 0 8.940474e-02 6.979788e-02 5.886449e-02 1.069222e-01 7.267304e-02 1.339292e-01 9.313717e-02 1.547803e-01 8.693920e-01 -1.950464e+00 3.777393e+00 -3.105742e+00 1.906145e+00 -3.352950e+00 -1.015903e+00 -1.768056e+00 -1.483040e+00 -1.458090e+00 -1.460267e+00 -1.420767e+00 -1.421095e+00 -1.384123e+00 -1.395379e+00 -1.365185e+00 -1.379340e+00 -1.347556e+00 -1.356736e+00 -1.323970e+00 -1.329027e+00 -1.299718e+00 -1.302455e+00 -1.281749e+00 -1.283540e+00 -1.268937e+00 -1.257883e+00 -1.237170e+00 -1.209945e+00 -1.195846e+00 -1.175357e+00 -1.185081e+00 -1.174432e+00 -1.193768e+00 -1.176216e+00 -1.189076e+00 -1.158548e+00 -1.158488e+00 -1.115796e+00 -1.105335e+00 -1.067724e+00 -1.068846e+00 -1.062319e+00 -1.230851e+00 3.382502e+00 4.148675e+00 -2.178615e+00 4.994248e+00 -1.010788e-01 4.244288e-01 -4.518086e-01 -3.906435e+00 3.379599e+00 -7.007944e+00 9.795169e-01 -3.182634e+00 -5.567774e+00 -3.094617e+00 -9.291920e+00 -1.745224e+00 -6.321653e-01 -6.540427e-01 -6.610835e-01 -6.707233e-01 -6.600365e-01 -6.537725e-01 -6.285568e-01 -6.161745e-01 -5.853133e-01 -5.753171e-01 -5.473079e-01 -5.465972e-01 -5.239258e-01 -5.261090e-01 -5.006319e-01 -5.015708e-01 -4.819877e-01 -4.916174e-01 -4.806209e-01 -4.816595e-01 -4.563851e-01 -4.321278e-01 -4.007419e-01 -3.755249e-01 -3.691036e-01 -3.599397e-01 -3.779570e-01 -3.672934e-01 -3.861565e-01 -3.541382e-01 -3.613554e-01 -3.081334e-01 -3.099001e-01 -2.543872e-01 -2.685985e-01 -2.308280e-01 -2.562273e-01 -2.251338e-01 -2.345893e-01 -1.988317e-01 -1.906017e-01 -1.684635e-01 -1.536181e-01 -1.512202e-01 -1.229741e-01 -1.352710e-01 -9.190676e-02 -1.212551e-01 -6.266639e-02 -1.229294e-01 -4.789829e-02 0 0 0 0 
0 0 0 0 0 0 0 0 0 0 0 0 0 9.521547e-01 -2.939955e-01 1.006616e+00 -6.619957e-01 7.064638e-01 -7.901096e-01 1.530777e-01 -1.075895e+00 0 0 0 0 0 0 0 0 0 0 0 0 0 0 0 0 0 0 0 0 0 0 0 0 0 0 0 0 0 0 0 0 0 0 0 -8.662055e-03 8.770647e-01 1.444175e+00 3.761163e-01 1.301960e+00 1.427240e-01 3.385433e-01 4.355445e-01 -8.240597e-01 4.967532e-01 -8.530370e-01 2.321860e-01 -4.965828e-01 -7.294809e-01 -7.388771e-01 -1.925774e+00 -2.583256e-01 0 0 0 0 0 0 0 0 0 0 0 0 0 0 0 0 0 0 0 0 0 0 0 0 0 0 0 0 0 0 0 0 0 0 0 0 0 0 0 0 0 0 0 0 0 0 0 0 0 0 0 0 0 0 0 
0 0 0 0 0 0 0 0 0 0 0 0 0 4.450238e-01 -3.116907e-01 7.255899e-01 -5.438087e-01 5.746394e-01 -5.479346e-01 1.827773e-01 -5.302332e-01 0 0 0 0 0 0 0 0 0 0 0 0 0 0 0 0 0 0 0 0 0 0 0 0 0 0 0 0 0 0 0 0 0 0 0 0 0 0 0 0 0 0 0 0 0 0 0 0 0 0 0 0 0 0 0 0 0 0 0 0 0 0 0 0 0 0 0 0 0 0 0 0 0 0 0 0 0 0 0 0 0 0 0 0 0 0 0 0 0 0 0 0 0 0 0 0 0 0 0 0 0 0 0 0 0 0 0 
0 0 0 0 0 0 0 0 0 0 0 0 0 1.009287e-02 7.869385e-03 8.671634e-03 8.221665e-03 1.132616e-02 1.212847e-02 1.778658e-02 1.738779e-02 0 0 0 0 0 0 0 0 0 0 0 0 0 0 0 0 0 0 0 0 0 0 0 0 0 0 0 0 0 0 0 0 0 0 0 0 0 0 0 0 0 0 0 0 0 0 0 0 0 0 0 0 0 0 0 0 0 0 0 0 0 0 0 0 0 0 0 0 0 0 0 0 0 0 0 0 0 0 0 0 0 0 0 0 0 0 0 0 0 0 0 0 0 0 0 0 0 0 0 0 0 0 0 0 0 0 0 
0 0 0 0 0 0 0 0 0 0 0 0 0 -4.407619e-01 3.114479e-01 -7.266634e-01 5.452248e-01 -5.684518e-01 5.618706e-01 -1.609888e-01 5.680179e-01 0 0 0 0 0 0 0 0 0 0 0 0 0 0 0 0 0 0 0 0 0 0 0 0 0 0 0 0 0 0 0 0 0 0 0 0 0 0 0 0 0 0 0 0 0 0 0 0 0 0 0 0 0 0 0 0 0 0 0 0 0 0 0 0 0 0 0 0 0 0 0 0 0 0 0 0 0 0 0 0 0 0 0 0 0 0 0 0 0 0 0 0 0 0 0 0 0 0 0 0 0 0 0 0 0 0 0 
0 0 0 0 0 0 0 0 0 0 0 0 0 -9.433737e-01 2.989624e-01 -1.005701e+00 6.642215e-01 -6.990356e-01 8.083968e-01 -1.158198e-01 1.143402e+00 0 0 0 0 0 0 0 0 0 0 0 0 0 0 0 0 0 0 0 0 0 0 0 0 0 0 0 0 0 0 0 0 0 0 0 0 0 0 0 0 0 0 0 0 0 0 0 0 0 0 0 0 0 0 0 0 0 0 0 0 0 0 0 0 0 0 0 0 0 0 0 0 0 0 0 0 0 0 0 0 0 0 0 0 0 0 0 0 0 0 0 0 0 0 0 0 0 0 0 0 0 0 0 0 0 0 0 
0 0 0 0 0 -8.939018e-02 -6.975972e-02 -6.026107e-02 -1.112487e-01 -7.902755e-02 -1.398773e-01 -9.743319e-02 -1.583659e-01 -9.381543e-01 1.917578e+00 -3.833179e+00 3.060090e+00 -1.936456e+00 3.319358e+00 1.035900e+00 1.850289e+00 1.465853e+00 1.440519e+00 1.454664e+00 1.428306e+00 1.439625e+00 1.403119e+00 1.408495e+00 1.370991e+00 1.379616e+00 1.349599e+00 1.359290e+00 1.332968e+00 1.338154e+00 1.315786e+00 1.315210e+00 1.293165e+00 1.280133e+00 1.257621e+00 1.241996e+00 1.234052e+00 1.224794e+00 1.223780e+00 1.204096e+00 1.194031e+00 1.162436e+00 1.150921e+00 1.120868e+00 1.116308e+00 1.095237e+00 1.100330e+00 1.089568e+00 1.096153e+00 1.080943e+00 1.068463e+00 1.036252e+00 1.007112e+00 9.795920e-01 9.624660e-01 9.591905e-01 9.517946e-01 9.504355e-01 9.313046e-01 9.191464e-01 8.916621e-01 8.753051e-01 8.440036e-01 8.265766e-01 7.959777e-01 7.873162e-01 7.642735e-01 7.604969e-01 7.359654e-01 7.229481e-01 6.936991e-01 6.738967e-01 6.503618e-01 6.326473e-01 6.208519e-01 6.065646e-01 6.066739e-01 5.958558e-01 6.042716e-01 5.872499e-01 5.876688e-01 5.538510e-01 5.471313e-01 5.130906e-01 5.142234e-01 4.870984e-01 4.875462e-01 4.604292e-01 4.573838e-01 4.392370e-01 4.371443e-01 4.276726e-01 4.155193e-01 4.064281e-01 3.802622e-01 3.764575e-01 3.427859e-01 3.469755e-01 3.042884e-01 3.122588e-01 2.654543e-01 2.849459e-01 2.464333e-01 2.742214e-01 2.367757e-01 2.564876e-01 2.198033e-01 2.320309e-01 2.050120e-01 2.040927e-01 1.836017e-01 1.642610e-01 1.585545e-01 1.291555e-01 1.441554e-01 1.011402e-01 1.291069e-01 6.604701e-02 1.239949e-01 4.807901e-02 0 0 0 0 
0 0 0 0 0 -2.009597e+00 -1.588828e+00 -1.387095e+00 -2.515050e+00 -1.778592e+00 -3.142532e+00 -2.188982e+00 -3.557925e+00 -3.608007e+00 5.486888e+00 5.372584e+00 1.468029e+01 1.484542e+01 2.385589e+01 2.439607e+01 3.308605e+01 3.288839e+01 3.232024e+01 3.263754e+01 3.204701e+01 3.230128e+01 3.148329e+01 3.160425e+01 3.076368e+01 3.095733e+01 3.028439e+01 3.050175e+01 2.991147e+01 3.002770e+01 2.952600e+01 2.951297e+01 2.901849e+01 2.872619e+01 2.822124e+01 2.787085e+01 2.769270e+01 2.748513e+01 2.746247e+01 2.702113e+01 2.679547e+01 2.608697e+01 2.582878e+01 2.515480e+01 2.505256e+01 2.457994e+01 2.469418e+01 2.445277e+01 2.460040e+01 2.425920e+01 2.397924e+01 2.325664e+01 2.260299e+01 2.198562e+01 2.160147e+01 2.152801e+01 2.136214e+01 2.133169e+01 2.090257e+01 2.062985e+01 2.001330e+01 1.964635e+01 1.894411e+01 1.855313e+01 1.786658e+01 1.767222e+01 1.715515e+01 1.707035e+01 1.651983e+01 1.622769e+01 1.557127e+01 1.512690e+01 1.459871e+01 1.420122e+01 1.393653e+01 1.361598e+01 1.361850e+01 1.337581e+01 1.356475e+01 1.318283e+01 1.319227e+01 1.243333e+01 1.228249e+01 1.151840e+01 1.154370e+01 1.093471e+01 1.094456e+01 1.033567e+01 1.026714e+01 9.859622e+00 9.812542e+00 9.599879e+00 9.327162e+00 9.123188e+00 8.536117e+00 8.450937e+00 7.695422e+00 7.789695e+00 6.831653e+00 7.010608e+00 5.959753e+00 6.396984e+00 5.531804e+00 6.154823e+00 5.313172e+00 5.754620e+00 4.929850e+00 5.203331e+00 4.595796e+00 4.574633e+00 4.114286e+00 3.680480e+00 3.553094e+00 2.894402e+00 3.232424e+00 2.265747e+00 2.875746e+00 1.445907e+00 2.765807e+00 1.078551e+00 0 0 0 0 
0 0 0 0 0 -2.909790e+00 -2.305749e+00 -2.016644e+00 -3.645223e+00 -2.575805e+00 -4.549694e+00 -3.169168e+00 -5.151098e+00 -3.075540e+00 5.847768e+00 1.352545e+01 1.812160e+01 2.503836e+01 3.163419e+01 3.508161e+01 4.706228e+01 4.760399e+01 4.678168e+01 4.724094e+01 4.638640e+01 4.675453e+01 4.557080e+01 4.574598e+01 4.452952e+01 4.480985e+01 4.383594e+01 4.415055e+01 4.329623e+01 4.346443e+01 4.273828e+01 4.271940e+01 4.200370e+01 4.158063e+01 4.084979e+01 4.034266e+01 4.008482e+01 3.978442e+01 3.975163e+01 3.911290e+01 3.878632e+01 3.776091e+01 3.738722e+01 3.641176e+01 3.626379e+01 3.557974e+01 3.574508e+01 3.539567e+01 3.560933e+01 3.511547e+01 3.471025e+01 3.366437e+01 3.271829e+01 3.182469e+01 3.126868e+01 3.116237e+01 3.092229e+01 3.087822e+01 3.025714e+01 2.986239e+01 2.897001e+01 2.843888e+01 2.742245e+01 2.685652e+01 2.586278e+01 2.558145e+01 2.483300e+01 2.471025e+01 2.391336e+01 2.349049e+01 2.254032e+01 2.189710e+01 2.113254e+01 2.055718e+01 2.017405e+01 1.971006e+01 1.971373e+01 1.936246e+01 1.963598e+01 1.908317e+01 1.909683e+01 1.799827e+01 1.777992e+01 1.667386e+01 1.671044e+01 1.582886e+01 1.584307e+01 1.496162e+01 1.486237e+01 1.427242e+01 1.420424e+01 1.389639e+01 1.350164e+01 1.320640e+01 1.235664e+01 1.223340e+01 1.113982e+01 1.127635e+01 9.889563e+00 1.014862e+01 8.627385e+00 9.260229e+00 8.007654e+00 8.909323e+00 7.690702e+00 8.329464e+00 7.135224e+00 7.530852e+00 6.651143e+00 6.620375e+00 5.953897e+00 5.326021e+00 5.141801e+00 4.188616e+00 4.678260e+00 3.278653e+00 4.157149e+00 2.083729e+00 3.999228e+00 1.561097e+00 0 0 0 0 
0 0 0 0 0 -9.895837e-01 -7.866810e-01 -6.898107e-01 -1.241421e+00 -8.762401e-01 -1.547040e+00 -1.077619e+00 -1.751538e+00 -1.045899e+00 1.987995e+00 4.598109e+00 6.160573e+00 8.511680e+00 1.075381e+01 1.192550e+01 1.599734e+01 1.618145e+01 1.590196e+01 1.605807e+01 1.576770e+01 1.589287e+01 1.549063e+01 1.555022e+01 1.513683e+01 1.523214e+01 1.490115e+01 1.500809e+01 1.471773e+01 1.477488e+01 1.452807e+01 1.452164e+01 1.427838e+01 1.413458e+01 1.388617e+01 1.371381e+01 1.362618e+01 1.352408e+01 1.351295e+01 1.329587e+01 1.318488e+01 1.283637e+01 1.270937e+01 1.237782e+01 1.232754e+01 1.209504e+01 1.215123e+01 1.203246e+01 1.210508e+01 1.193721e+01 1.179948e+01 1.144398e+01 1.112241e+01 1.081867e+01 1.062968e+01 1.059354e+01 1.051195e+01 1.049697e+01 1.028587e+01 1.015169e+01 9.848370e+00 9.667835e+00 9.322338e+00 9.129969e+00 8.792177e+00 8.696544e+00 8.442123e+00 8.400391e+00 8.129499e+00 7.985746e+00 7.662744e+00 7.444094e+00 7.184189e+00 6.988609e+00 6.858368e+00 6.700652e+00 6.701905e+00 6.582507e+00 6.675496e+00 6.487585e+00 6.492233e+00 6.118790e+00 6.044558e+00 5.668548e+00 5.680967e+00 5.381252e+00 5.386060e+00 5.086380e+00 5.052616e+00 4.852037e+00 4.828847e+00 4.724182e+00 4.589994e+00 4.489636e+00 4.200790e+00 4.158919e+00 3.787188e+00 3.833628e+00 3.362198e+00 3.450273e+00 2.933087e+00 3.148191e+00 2.722283e+00 3.028722e+00 2.614305e+00 2.831331e+00 2.425177e+00 2.559552e+00 2.260360e+00 2.249835e+00 2.023213e+00 1.809802e+00 1.747262e+00 1.423370e+00 1.589991e+00 1.114046e+00 1.410510e+00 7.038682e-01 1.357416e+00 5.306245e-01 0 0 0 0 
0 0 0 0 0 0 0 0 0 0 0 0 0 0 0 0 0 0 0 0 0 0 0 0 0 0 0 0 0 0 0 0 0 0 0 0 0 0 0 0 0 0 0 0 0 0 0 0 0 0 0 0 0 0 0 0 0 0 0 0 0 0 0 0 0 0 0 0 0 0 0 0 0 0 0 0 0 0 0 0 0 0 0 0 0 0 0 0 0 0 0 0 0 0 0 0 0 0 0 0 0 0 0 0 0 0 0 0 0 0 0 0 0 0 0 0 0 0 0 0 0 0 0 0 0 0 0 0 
