# vtk DataFile Version 2.0
Comment goes here
ASCII

DATASET STRUCTURED_POINTS
FIELD FieldData 1
TIME 1 1 double
0.14000000
DIMENSIONS    128   16   1

ORIGIN    0.000   0.000   0.000
SPACING   0.0078125 0.015625   1.000

POINT_DATA   2048
SCALARS fY double
LOOKUP_TABLE default

0 0 0 0 0 0 0 0 0 0 0 0 0 0 0 0 0 0 0 0 0 0 0 0 0 0 0 0 0 0 0 0 0 0 0 0 0 0 0 0 0 0 0 0 0 0 0 0 0 0 0 0 0 0 0 0 0 0 0 0 0 0 0 0 0 0 0 0 0 0 0 0 0 0 0 0 0 0 0 0 0 0 0 0 0 0 0 0 0 0 0 0 0 0 0 0 0 0 0 0 0 0 0 0 0 0 0 0 0 0 0 0 0 0 0 0 0 0 0 0 0 0 0 0 0 0 0 0 
0 0 0 0 0 0 0 0 0 0 0 0 0 0 0 0 0 0 0 0 0 0 0 0 0 0 0 0 0 0 0 0 0 0 0 0 0 0 0 0 0 0 0 0 0 0 0 0 0 0 0 0 0 0 0 0 0 0 0 0 0 0 0 0 0 0 0 0 0 0 0 0 0 0 0 0 0 0 0 0 0 0 0 0 0 0 0 0 0 0 0 0 0 0 0 0 0 0 0 0 0 0 0 0 0 0 0 0 0 0 0 0 0 0 0 0 0 0 0 0 0 0 0 0 0 0 0 0 
0 0 0 0 0 4.751820e-01 1.250499e+00 5.950431e-01 1.264942e+00 1.167644e+00 2.595345e+00 2.525724e+00 3.457389e+00 2.102282e+00 -2.831328e+00 -5.573932e+00 -9.485783e+00 -1.318261e+01 -1.725610e+01 -2.141818e+01 -2.587463e+01 -2.584521e+01 -2.307039e+01 -2.077945e+01 -1.949890e+01 -2.083165e+01 -2.397277e+01 -2.736180e+01 -2.834465e+01 -2.695635e+01 -2.487848e+01 -2.247892e+01 -2.114518e+01 -2.180713e+01 -2.349783e+01 -2.460084e+01 -2.480119e+01 -2.293221e+01 -2.021808e+01 -1.819138e+01 -1.864040e+01 -2.095726e+01 -2.331664e+01 -2.279814e+01 -2.026065e+01 -1.779871e+01 -1.635156e+01 -1.663029e+01 -1.778635e+01 -1.844582e+01 -1.794393e+01 -1.797851e+01 -1.878776e+01 -2.056122e+01 -2.127638e+01 -2.053154e+01 -1.913274e+01 -1.697248e+01 -1.546178e+01 -1.637392e+01 -1.620673e+01 -1.642866e+01 -1.407883e+01 -1.280443e+01 -1.481243e+01 -1.528362e+01 -1.985140e+01 -1.926757e+01 -1.911482e+01 -1.722178e+01 -1.465378e+01 -1.623663e+01 -1.508315e+01 -1.429407e+01 -1.237764e+01 -1.083037e+01 -9.870602e+00 -1.072781e+01 -1.221265e+01 -1.291168e+01 -1.208327e+01 -1.105515e+01 -1.019584e+01 -1.002609e+01 -1.022179e+01 -1.009629e+01 -9.921319e+00 -1.058472e+01 -1.175691e+01 -1.215296e+01 -1.180348e+01 -1.045097e+01 -8.575242e+00 -7.564860e+00 -8.846402e+00 -1.061430e+01 -1.197328e+01 -1.084572e+01 -8.213418e+00 -5.177886e+00 -4.184910e+00 -4.691077e+00 -6.532247e+00 -6.862706e+00 -5.400557e+00 -2.549379e+00 -2.371654e-01 5.928412e-01 -6.606912e-01 -3.838025e+00 -6.434975e+00 -7.568081e+00 -6.611026e+00 -5.568741e+00 -3.961316e+00 -4.101868e+00 -4.255182e+00 -5.236550e+00 -3.983525e+00 -2.669176e+00 -9.754647e-01 -4.933383e-01 -7.953343e-01 5.526382e-01 0 0 0 0 
0 0 0 0 0 1.397468e+00 3.677145e+00 1.748989e+00 3.719421e+00 3.432741e+00 7.630652e+00 7.424996e+00 1.016408e+01 6.178086e+00 -8.330724e+00 -1.639743e+01 -2.790436e+01 -3.878059e+01 -5.076564e+01 -6.301326e+01 -7.612775e+01 -7.604087e+01 -6.787470e+01 -6.113287e+01 -5.736467e+01 -6.128668e+01 -7.053045e+01 -8.050467e+01 -8.339723e+01 -7.931110e+01 -7.319590e+01 -6.613409e+01 -6.220915e+01 -6.415719e+01 -6.913256e+01 -7.237862e+01 -7.296823e+01 -6.746804e+01 -5.948101e+01 -5.351718e+01 -5.483846e+01 -6.165619e+01 -6.859943e+01 -6.707360e+01 -5.960629e+01 -5.236187e+01 -4.810357e+01 -4.892368e+01 -5.232537e+01 -5.426584e+01 -5.278901e+01 -5.289073e+01 -5.527203e+01 -6.049075e+01 -6.259521e+01 -6.040343e+01 -5.645861e+01 -5.232343e+01 -4.976920e+01 -5.115259e+01 -5.015296e+01 -4.858282e+01 -4.341722e+01 -4.006620e+01 -4.418075e+01 -4.594601e+01 -5.483525e+01 -5.382097e+01 -5.100795e+01 -4.579689e+01 -4.152374e+01 -4.530542e+01 -4.403379e+01 -4.204977e+01 -3.641124e+01 -3.185906e+01 -2.903545e+01 -3.155738e+01 -3.592581e+01 -3.798249e+01 -3.554528e+01 -3.252046e+01 -2.999243e+01 -2.949303e+01 -3.006875e+01 -2.969951e+01 -2.918479e+01 -3.113656e+01 -3.458508e+01 -3.575026e+01 -3.472207e+01 -3.074291e+01 -2.522475e+01 -2.225231e+01 -2.602236e+01 -3.122342e+01 -3.522162e+01 -3.190439e+01 -2.416041e+01 -1.523093e+01 -1.230993e+01 -1.379900e+01 -1.921554e+01 -2.018769e+01 -1.588649e+01 -7.500268e+00 -6.988086e-01 1.742378e+00 -1.944870e+00 -1.129012e+01 -1.892941e+01 -2.226244e+01 -1.944667e+01 -1.638056e+01 -1.165202e+01 -1.206544e+01 -1.251686e+01 -1.540503e+01 -1.172229e+01 -7.865867e+00 -2.916955e+00 -1.506308e+00 -2.358710e+00 1.625027e+00 0 0 0 0 
0 0 0 0 0 9.652503e-01 2.539633e+00 1.207576e+00 2.568736e+00 2.370463e+00 5.269616e+00 5.127127e+00 7.018628e+00 7.370963e+00 -8.952793e+00 -8.455819e+00 -2.361929e+01 -2.239350e+01 -3.785936e+01 -3.670202e+01 -5.282209e+01 -5.253821e+01 -4.689497e+01 -4.223617e+01 -3.963235e+01 -4.234254e+01 -4.873026e+01 -5.562317e+01 -5.762212e+01 -5.479819e+01 -5.057222e+01 -4.569214e+01 -4.297991e+01 -4.432608e+01 -4.776417e+01 -5.000733e+01 -5.041479e+01 -4.661393e+01 -4.109476e+01 -3.697376e+01 -3.788675e+01 -4.259783e+01 -4.739580e+01 -4.634143e+01 -4.118134e+01 -3.617553e+01 -3.323313e+01 -3.379977e+01 -3.615026e+01 -3.749106e+01 -3.647058e+01 -3.654087e+01 -3.818633e+01 -4.179249e+01 -4.324667e+01 -4.173216e+01 -3.889119e+01 -3.824742e+01 -3.797305e+01 -3.537457e+01 -3.649846e+01 -3.127370e+01 -2.992371e+01 -2.906868e+01 -2.762348e+01 -3.175750e+01 -3.041141e+01 -3.240214e+01 -2.737496e+01 -2.439334e+01 -2.620045e+01 -2.569433e+01 -2.950665e+01 -2.905027e+01 -2.515446e+01 -2.200933e+01 -2.005853e+01 -2.180093e+01 -2.481907e+01 -2.624007e+01 -2.455621e+01 -2.246633e+01 -2.071976e+01 -2.037474e+01 -2.077248e+01 -2.051737e+01 -2.016178e+01 -2.151027e+01 -2.389279e+01 -2.469781e+01 -2.398743e+01 -2.123821e+01 -1.742587e+01 -1.537228e+01 -1.797686e+01 -2.157019e+01 -2.433256e+01 -2.204073e+01 -1.669059e+01 -1.052179e+01 -8.503846e+00 -9.532595e+00 -1.327476e+01 -1.394638e+01 -1.097493e+01 -5.181883e+00 -4.833197e-01 1.202945e+00 -1.344239e+00 -7.799612e+00 -1.307710e+01 -1.537959e+01 -1.343414e+01 -1.131592e+01 -8.049254e+00 -8.334842e+00 -8.646906e+00 -1.064280e+01 -8.100188e+00 -5.440848e+00 -2.038144e+00 -1.067304e+00 -1.638746e+00 1.122316e+00 0 0 0 0 
0 0 0 0 0 4.296466e-02 1.129861e-01 5.363041e-02 1.142569e-01 1.053655e-01 2.343089e-01 2.278550e-01 3.119421e-01 2.792155e+00 -2.956849e+00 2.393457e+00 -4.515541e+00 4.038515e+00 -5.112482e+00 2.909460e+00 -5.984028e+00 -2.342544e+00 -2.090656e+00 -1.882747e+00 -1.766575e+00 -1.887517e+00 -2.172584e+00 -2.480306e+00 -2.569541e+00 -2.443442e+00 -2.254800e+00 -2.036974e+00 -1.915938e+00 -1.976019e+00 -2.129441e+00 -2.229559e+00 -2.247748e+00 -2.078110e+00 -1.831826e+00 -1.647965e+00 -1.688696e+00 -1.898894e+00 -2.113012e+00 -2.065965e+00 -1.835693e+00 -1.612373e+00 -1.481113e+00 -1.506382e+00 -1.611232e+00 -1.671039e+00 -1.625512e+00 -1.628646e+00 -1.702057e+00 -1.862958e+00 -1.927837e+00 -1.860267e+00 -1.491867e+00 -3.056791e+00 -4.038131e+00 -1.284718e-01 -3.086811e+00 9.806289e-01 -3.401193e-01 -1.931882e+00 2.455141e+00 -1.285997e+00 5.656479e+00 2.405023e+00 4.846391e+00 4.538473e+00 9.545315e-01 4.738751e+00 -3.089906e-01 -1.294570e+00 -1.120857e+00 -9.806401e-01 -8.936816e-01 -9.713581e-01 -1.105904e+00 -1.169263e+00 -1.094198e+00 -1.001024e+00 -9.231740e-01 -9.077948e-01 -9.255209e-01 -9.141475e-01 -8.983013e-01 -9.584201e-01 -1.064619e+00 -1.100504e+00 -1.068835e+00 -9.462731e-01 -7.763562e-01 -6.848254e-01 -8.008997e-01 -9.610682e-01 -1.084221e+00 -9.820618e-01 -7.435976e-01 -4.687380e-01 -3.788245e-01 -4.246739e-01 -5.914675e-01 -6.213993e-01 -4.889948e-01 -2.309941e-01 -2.167651e-02 5.340763e-02 -6.006005e-02 -3.475202e-01 -5.826616e-01 -6.852317e-01 -5.984936e-01 -5.041047e-01 -3.585479e-01 -3.712684e-01 -3.852250e-01 -4.743182e-01 -3.614247e-01 -2.441567e-01 -9.665425e-02 -5.433395e-02 -7.536952e-02 4.992737e-02 0 0 0 0 
0 0 0 0 0 0 0 0 0 0 0 0 0 1.441920e+00 -5.819561e-01 1.402258e+00 -1.394687e+00 1.256433e+00 -1.774990e+00 6.149061e-01 -2.233988e+00 0 0 0 0 0 0 0 0 0 0 0 0 0 0 0 0 0 0 0 0 0 0 0 0 0 0 0 0 0 0 0 0 0 0 0 7.344727e-02 -1.603176e-01 -3.724974e-01 4.674257e-01 -5.345789e-01 1.001678e-01 2.452004e-01 -1.249634e-01 7.103104e-01 -1.908843e-01 1.084039e+00 2.537555e-01 3.282174e-01 3.567015e-01 2.850277e-01 1.364295e+00 2.470148e-01 0 0 0 0 0 0 0 0 0 0 0 0 0 0 0 0 0 0 0 0 0 0 0 0 0 0 0 0 0 0 0 0 0 0 0 0 0 0 0 0 0 0 0 0 0 0 0 0 0 0 0 0 0 0 0 
0 0 0 0 0 0 0 0 0 0 0 0 0 8.171334e-01 -3.570054e-01 9.975406e-01 -7.917723e-01 1.075988e+00 -9.746387e-01 5.640408e-01 -1.053773e+00 0 0 0 0 0 0 0 0 0 0 0 0 0 0 0 0 0 0 0 0 0 0 0 0 0 0 0 0 0 0 0 0 0 0 0 0 0 0 0 0 0 0 0 0 0 0 0 0 0 0 0 0 0 0 0 0 0 0 0 0 0 0 0 0 0 0 0 0 0 0 0 0 0 0 0 0 0 0 0 0 0 0 0 0 0 0 0 0 0 0 0 0 0 0 0 0 0 0 0 0 0 0 0 0 0 0 0 
0 0 0 0 0 0 0 0 0 0 0 0 0 8.029833e-02 -1.078365e-02 4.360024e-02 -5.755194e-02 2.432981e-02 -1.199530e-01 -7.321034e-03 -2.588837e-01 0 0 0 0 0 0 0 0 0 0 0 0 0 0 0 0 0 0 0 0 0 0 0 0 0 0 0 0 0 0 0 0 0 0 0 0 0 0 0 0 0 0 0 0 0 0 0 0 0 0 0 0 0 0 0 0 0 0 0 0 0 0 0 0 0 0 0 0 0 0 0 0 0 0 0 0 0 0 0 0 0 0 0 0 0 0 0 0 0 0 0 0 0 0 0 0 0 0 0 0 0 0 0 0 0 0 0 
0 0 0 0 0 0 0 0 0 0 0 0 0 -5.930345e-01 5.465594e-01 -7.378611e-01 1.065057e+00 -7.188271e-01 1.279385e+00 -3.090073e-01 1.110814e+00 0 0 0 0 0 0 0 0 0 0 0 0 0 0 0 0 0 0 0 0 0 0 0 0 0 0 0 0 0 0 0 0 0 0 0 0 0 0 0 0 0 0 0 0 0 0 0 0 0 0 0 0 0 0 0 0 0 0 0 0 0 0 0 0 0 0 0 0 0 0 0 0 0 0 0 0 0 0 0 0 0 0 0 0 0 0 0 0 0 0 0 0 0 0 0 0 0 0 0 0 0 0 0 0 0 0 0 
0 0 0 0 0 0 0 0 0 0 0 0 0 -1.369011e+00 4.946178e-01 -1.386807e+00 1.342105e+00 -1.158241e+00 1.849347e+00 -3.144232e-01 2.024609e+00 0 0 0 0 0 0 0 0 0 0 0 0 0 0 0 0 0 0 0 0 0 0 0 0 0 0 0 0 0 0 0 0 0 0 0 0 0 0 0 0 0 0 0 0 0 0 0 0 0 0 0 0 0 0 0 0 0 0 0 0 0 0 0 0 0 0 0 0 0 0 0 0 0 0 0 0 0 0 0 0 0 0 0 0 0 0 0 0 0 0 0 0 0 0 0 0 0 0 0 0 0 0 0 0 0 0 0 
0 0 0 0 0 -4.931822e-02 -1.603341e-01 -1.657753e-01 -2.486747e-01 -1.762477e-01 -2.057963e-01 -1.329805e-01 -1.967628e-01 -3.488121e+00 3.194381e+00 -2.364973e+00 5.018724e+00 -2.851402e+00 6.525762e+00 -1.789781e+00 6.189550e+00 2.289223e+00 2.246087e+00 2.273600e+00 2.257348e+00 2.291581e+00 2.302046e+00 2.291246e+00 2.236796e+00 2.133514e+00 1.991121e+00 1.879316e+00 1.878972e+00 1.908246e+00 2.000446e+00 2.116839e+00 2.228306e+00 2.241722e+00 2.204370e+00 2.114831e+00 2.011828e+00 1.892693e+00 1.800743e+00 1.729196e+00 1.645608e+00 1.572466e+00 1.628537e+00 1.802796e+00 1.975107e+00 2.073995e+00 2.042290e+00 1.866803e+00 1.602703e+00 1.409265e+00 1.327134e+00 1.335942e+00 1.357324e+00 1.400047e+00 1.451244e+00 1.454029e+00 1.405102e+00 1.356368e+00 1.341425e+00 1.351857e+00 1.391278e+00 1.374570e+00 1.271015e+00 1.186217e+00 1.217141e+00 1.308115e+00 1.366131e+00 1.349642e+00 1.285010e+00 1.255555e+00 1.291198e+00 1.335593e+00 1.272954e+00 1.120699e+00 9.728497e-01 9.742227e-01 1.063877e+00 1.148378e+00 1.141967e+00 1.073136e+00 9.393726e-01 8.284606e-01 7.566451e-01 7.350390e-01 7.632465e-01 8.204453e-01 8.296296e-01 7.633788e-01 7.165495e-01 6.559788e-01 6.214808e-01 6.143601e-01 6.807353e-01 6.422448e-01 5.892028e-01 5.211655e-01 5.586868e-01 6.123431e-01 7.544846e-01 8.359908e-01 8.320888e-01 7.058027e-01 5.819234e-01 4.986969e-01 4.364275e-01 3.706301e-01 2.382413e-01 1.503161e-01 8.731759e-02 1.888702e-01 2.579329e-01 3.377315e-01 2.485577e-01 1.844404e-01 3.464162e-02 1.526804e-02 2.521856e-02 9.352421e-02 1.088808e-01 -4.725625e-02 0 0 0 0 
0 0 0 0 0 -1.108058e+00 -3.603307e+00 -3.726319e+00 -5.588008e+00 -3.962786e+00 -4.628869e+00 -2.996489e+00 -4.431497e+00 -6.807874e+00 9.266256e+00 8.234236e+00 2.382634e+01 2.280475e+01 3.940580e+01 3.778220e+01 5.528302e+01 5.134404e+01 5.037774e+01 5.099405e+01 5.062986e+01 5.139660e+01 5.163099e+01 5.138900e+01 5.016905e+01 4.785521e+01 4.466429e+01 4.215906e+01 4.215156e+01 4.280764e+01 4.487390e+01 4.748187e+01 4.997935e+01 5.028000e+01 4.944315e+01 4.743696e+01 4.512899e+01 4.245910e+01 4.039839e+01 3.879469e+01 3.692102e+01 3.528124e+01 3.653807e+01 4.044423e+01 4.430589e+01 4.652197e+01 4.581153e+01 4.187850e+01 3.595892e+01 3.162225e+01 2.978071e+01 2.997825e+01 3.045771e+01 3.141570e+01 3.256365e+01 3.262608e+01 3.152903e+01 3.043627e+01 3.010120e+01 3.033511e+01 3.121905e+01 3.084437e+01 2.852220e+01 2.662050e+01 2.731398e+01 2.935420e+01 3.065517e+01 3.028542e+01 2.883609e+01 2.817555e+01 2.897485e+01 2.997040e+01 2.856567e+01 2.515087e+01 2.183451e+01 2.186534e+01 2.387643e+01 2.577167e+01 2.562784e+01 2.408394e+01 2.108305e+01 1.859496e+01 1.698354e+01 1.649877e+01 1.713172e+01 1.841494e+01 1.862104e+01 1.713484e+01 1.608414e+01 1.472511e+01 1.395100e+01 1.379117e+01 1.528059e+01 1.441678e+01 1.322634e+01 1.169898e+01 1.254062e+01 1.374434e+01 1.693282e+01 1.876166e+01 1.867373e+01 1.583909e+01 1.305974e+01 1.119167e+01 9.794447e+00 8.317607e+00 5.346789e+00 3.373070e+00 1.959242e+00 4.240146e+00 5.790773e+00 7.581778e+00 5.578998e+00 4.136309e+00 7.634861e-01 3.023180e-01 4.338006e-01 1.944621e+00 2.390634e+00 -1.062213e+00 0 0 0 0 
0 0 0 0 0 -1.604238e+00 -5.217096e+00 -5.395385e+00 -8.090508e+00 -5.738040e+00 -6.702948e+00 -4.340516e+00 -6.418613e+00 -3.334572e+00 9.702830e+00 1.678861e+01 2.857835e+01 3.980270e+01 5.002475e+01 6.045984e+01 7.273815e+01 7.431294e+01 7.291467e+01 7.380648e+01 7.327945e+01 7.438893e+01 7.472809e+01 7.437791e+01 7.261253e+01 6.926426e+01 6.464656e+01 6.102122e+01 6.101043e+01 6.195988e+01 6.495007e+01 6.872407e+01 7.233815e+01 7.277323e+01 7.156224e+01 6.865910e+01 6.531921e+01 6.145549e+01 5.847332e+01 5.615247e+01 5.344087e+01 5.106772e+01 5.288660e+01 5.853962e+01 6.412803e+01 6.733501e+01 6.630693e+01 6.061518e+01 5.204842e+01 4.577221e+01 4.310699e+01 4.339290e+01 4.408683e+01 4.547330e+01 4.713471e+01 4.722507e+01 4.563733e+01 4.405579e+01 4.357085e+01 4.390938e+01 4.518869e+01 4.464642e+01 4.128552e+01 3.853314e+01 3.953684e+01 4.248970e+01 4.437260e+01 4.383745e+01 4.173984e+01 4.078383e+01 4.194066e+01 4.338153e+01 4.134843e+01 3.640603e+01 3.160601e+01 3.165064e+01 3.456148e+01 3.730455e+01 3.709637e+01 3.486177e+01 3.051823e+01 2.691696e+01 2.458449e+01 2.388281e+01 2.479900e+01 2.665634e+01 2.695468e+01 2.480353e+01 2.328271e+01 2.131558e+01 2.019508e+01 1.996373e+01 2.211962e+01 2.086924e+01 1.914607e+01 1.693508e+01 1.815325e+01 1.989554e+01 2.451051e+01 2.715768e+01 2.703031e+01 2.292702e+01 1.890408e+01 1.619998e+01 1.417754e+01 1.203975e+01 7.739546e+00 4.882453e+00 2.835925e+00 6.138017e+00 8.382739e+00 1.097527e+01 8.075844e+00 5.986589e+00 1.101608e+00 4.273610e-01 5.943597e-01 2.775674e+00 3.447029e+00 -1.537987e+00 0 0 0 0 
0 0 0 0 0 -5.454987e-01 -1.774123e+00 -1.834841e+00 -2.751175e+00 -1.951501e+00 -2.279875e+00 -1.477008e+00 -2.183878e+00 -1.135400e+00 3.297822e+00 5.706931e+00 9.714890e+00 1.353003e+01 1.700432e+01 2.055047e+01 2.472290e+01 2.525812e+01 2.478301e+01 2.508603e+01 2.490694e+01 2.528391e+01 2.539914e+01 2.528015e+01 2.468028e+01 2.354256e+01 2.197340e+01 2.074148e+01 2.073784e+01 2.106049e+01 2.207661e+01 2.335904e+01 2.458711e+01 2.473495e+01 2.432346e+01 2.333697e+01 2.220206e+01 2.088909e+01 1.987568e+01 1.908697e+01 1.816546e+01 1.735894e+01 1.797706e+01 1.989819e+01 2.179725e+01 2.288704e+01 2.253769e+01 2.060348e+01 1.769221e+01 1.555923e+01 1.465341e+01 1.475059e+01 1.498644e+01 1.545765e+01 1.602231e+01 1.605302e+01 1.551340e+01 1.497589e+01 1.481107e+01 1.492613e+01 1.536092e+01 1.517662e+01 1.403434e+01 1.309886e+01 1.343999e+01 1.444361e+01 1.508356e+01 1.490168e+01 1.418876e+01 1.386383e+01 1.425701e+01 1.474672e+01 1.405572e+01 1.237586e+01 1.074435e+01 1.075952e+01 1.174892e+01 1.268126e+01 1.261049e+01 1.185097e+01 1.037455e+01 9.150460e+00 8.357593e+00 8.119080e+00 8.430519e+00 9.061848e+00 9.163264e+00 8.432078e+00 7.915121e+00 7.246452e+00 6.865562e+00 6.786913e+00 7.519766e+00 7.094711e+00 6.508928e+00 5.757268e+00 6.171320e+00 6.763539e+00 8.332171e+00 9.232009e+00 9.188667e+00 7.793733e+00 6.426269e+00 5.507001e+00 4.819522e+00 4.092778e+00 2.630998e+00 1.659698e+00 9.640010e-01 2.086741e+00 2.849899e+00 3.731222e+00 2.745404e+00 2.034720e+00 3.727633e-01 1.403110e-01 1.857777e-01 9.245770e-01 1.165276e+00 -5.230302e-01 0 0 0 0 
0 0 0 0 0 0 0 0 0 0 0 0 0 0 0 0 0 0 0 0 0 0 0 0 0 0 0 0 0 0 0 0 0 0 0 0 0 0 0 0 0 0 0 0 0 0 0 0 0 0 0 0 0 0 0 0 0 0 0 0 0 0 0 0 0 0 0 0 0 0 0 0 0 0 0 0 0 0 0 0 0 0 0 0 0 0 0 0 0 0 0 0 0 0 0 0 0 0 0 0 0 0 0 0 0 0 0 0 0 0 0 0 0 0 0 0 0 0 0 0 0 0 0 0 0 0 0 0 
