# vtk DataFile Version 2.0
Comment goes here
ASCII

DATASET STRUCTURED_POINTS
FIELD FieldData 1
TIME 1 1 double
0.62000000
DIMENSIONS    128   16   1

ORIGIN    0.000   0.000   0.000
SPACING   0.0078125 0.015625   1.000

POINT_DATA   2048
SCALARS Omega double
LOOKUP_TABLE default

1.963681e-05 5.420506e-06 -4.442557e-06 -6.605175e-06 1.326229e-05 3.067279e-05 -3.503171e-06 -3.632762e-05 -8.358343e-07 -1.422889e-05 -1.151087e-05 -2.137196e-05 -2.930447e-05 6.719937e-05 -5.640604e-05 -4.429148e-05 7.621305e-05 -1.768475e-04 1.997856e-04 -8.037940e-05 -2.455301e-04 2.684873e-04 4.318405e-05 -1.748068e-05 -4.986689e-05 -2.512798e-05 -5.382978e-05 -1.716392e-05 -5.581686e-05 -6.825412e-06 -5.590472e-05 1.905747e-06 -5.314828e-05 1.069531e-05 -4.516826e-05 2.318843e-05 -2.956594e-05 4.438894e-05 4.611527e-07 8.619027e-05 6.092457e-05 1.642000e-04 1.578814e-04 2.541861e-04 2.181608e-04 2.027843e-04 2.636600e-07 -3.118593e-04 -8.406305e-04 -1.539015e-03 -2.325034e-03 -3.234242e-03 -4.602845e-03 -7.250298e-03 -7.829184e-03 1.261254e-02 5.987488e-02 8.260906e-02 5.158315e-02 4.380357e-02 4.162422e-02 5.754595e-02 8.087945e-02 4.304327e-02 5.840110e-02 7.435426e-02 8.021191e-02 7.082044e-02 6.643367e-02 8.752766e-02 3.775013e-02 4.109053e-02 5.754957e-02 1.348558e-02 -1.201978e-02 -8.955475e-03 -1.274099e-03 1.983042e-03 2.986292e-03 2.589028e-03 2.212746e-03 1.444340e-03 1.190425e-03 6.652590e-04 7.132300e-04 3.833434e-04 5.720140e-04 3.052226e-04 5.055666e-04 2.556055e-04 4.219396e-04 1.960190e-04 3.241788e-04 1.385153e-04 2.333821e-04 9.639178e-05 1.615973e-04 7.184906e-05 1.102051e-04 6.104667e-05 7.471664e-05 5.799270e-05 4.917973e-05 5.730213e-05 2.869112e-05 5.480245e-05 1.065449e-05 4.826026e-05 -5.815728e-06 3.703299e-05 -2.120473e-05 2.208836e-05 -3.404634e-05 7.494975e-06 -4.056344e-05 -1.424873e-06 -3.780343e-05 -9.024949e-07 -2.565330e-05 1.062940e-05 -7.083787e-06 6.092118e-05 1.291978e-05 1.171631e-05 4.800665e-05 5.099311e-05 4.552089e-05 3.366838e-05 
-5.858087e-03 -3.055935e-03 5.097967e-03 -1.883810e-02 -1.895905e-01 1.484969e-01 1.199872e+00 5.886112e-01 4.083749e-01 4.380106e-01 4.502813e-01 4.106131e-01 -6.175724e-01 -2.427861e+00 -3.245865e+00 -2.783513e+00 -3.021465e+00 -2.970275e+00 -2.832119e+00 -3.199550e+00 -2.517931e+00 -3.524667e-01 3.921660e-01 4.726440e-01 4.255985e-01 4.460136e-01 4.309881e-01 4.497748e-01 4.400994e-01 4.490434e-01 4.456460e-01 4.464687e-01 4.494846e-01 4.436703e-01 4.521780e-01 4.413528e-01 4.539719e-01 4.397768e-01 4.549519e-01 4.388936e-01 4.551341e-01 4.385121e-01 4.545801e-01 4.383396e-01 4.533114e-01 4.380834e-01 4.511349e-01 4.375171e-01 4.478592e-01 4.368499e-01 4.436274e-01 4.361055e-01 4.359743e-01 4.321658e-01 4.672210e-01 6.664767e-01 3.981002e-01 5.631758e-01 1.384885e+00 -3.282981e-01 -9.773750e-01 7.978984e-01 1.394969e+00 4.457405e-01 -1.084964e+00 1.748349e-01 7.489314e-03 -1.068594e+00 7.092666e-01 1.469150e+00 1.963898e+00 1.523597e+00 5.828552e-01 7.156088e-01 4.939673e-01 4.232913e-01 4.271200e-01 4.416914e-01 4.438086e-01 4.466369e-01 4.468063e-01 4.455061e-01 4.480982e-01 4.436942e-01 4.495104e-01 4.421270e-01 4.510721e-01 4.409334e-01 4.524605e-01 4.401551e-01 4.534508e-01 4.396945e-01 4.540764e-01 4.393625e-01 4.543538e-01 4.391677e-01 4.541973e-01 4.391914e-01 4.535097e-01 4.396194e-01 4.520891e-01 4.407661e-01 4.497630e-01 4.429754e-01 4.463612e-01 4.465155e-01 4.418233e-01 4.514907e-01 4.363051e-01 4.578751e-01 4.301886e-01 4.655330e-01 4.241739e-01 4.743938e-01 4.193725e-01 4.850707e-01 4.173127e-01 5.005409e-01 4.191204e-01 5.328503e-01 4.107417e-01 8.912928e-01 1.018309e+00 -2.742767e-02 -3.983914e-02 -1.520471e-02 -1.299273e-02 -8.833930e-03 
-6.013577e-03 1.446401e-02 7.281225e-02 -5.605878e-02 -1.661210e+00 -1.023516e+00 3.021000e+00 1.010131e+00 7.693533e-01 7.281957e-01 7.976110e-01 5.978702e-01 -8.312077e-01 4.657669e-01 1.063502e+00 1.171442e+00 8.509021e-01 1.191868e+00 8.647639e-01 1.297232e+00 1.673733e-01 -3.612190e-01 4.870290e-01 8.050162e-01 6.960752e-01 7.840858e-01 6.884583e-01 7.718657e-01 6.956835e-01 7.627543e-01 7.038139e-01 7.518367e-01 7.111538e-01 7.403509e-01 7.166320e-01 7.268942e-01 7.190270e-01 7.152120e-01 7.252433e-01 7.121051e-01 7.361788e-01 7.109094e-01 7.402214e-01 7.015639e-01 7.353350e-01 6.913967e-01 7.321523e-01 6.885442e-01 7.307413e-01 6.905024e-01 7.277353e-01 6.975731e-01 7.227412e-01 7.166032e-01 7.888643e-01 9.641407e-01 6.454254e-02 -5.014568e-01 9.987172e-01 4.287661e-01 -1.389502e-02 8.083717e-01 9.973874e-01 8.513479e-01 -8.100150e-02 1.036433e+00 1.015277e+00 -1.321173e-02 1.113614e+00 9.506609e-01 1.370641e+00 1.505380e+00 7.488054e-01 1.048999e+00 7.361344e-01 6.564771e-01 6.377850e-01 6.918098e-01 6.647968e-01 7.042374e-01 6.730969e-01 7.038931e-01 6.805822e-01 7.002745e-01 6.899970e-01 6.963415e-01 7.013411e-01 6.917270e-01 7.109096e-01 6.840432e-01 7.175281e-01 6.764627e-01 7.262826e-01 6.712431e-01 7.338692e-01 6.621338e-01 7.357512e-01 6.532521e-01 7.390068e-01 6.514886e-01 7.409016e-01 6.527745e-01 7.358201e-01 6.597197e-01 7.258992e-01 6.752340e-01 7.076681e-01 6.949576e-01 6.781686e-01 7.197201e-01 6.441201e-01 7.544756e-01 6.115493e-01 7.957293e-01 5.794073e-01 8.378081e-01 5.477238e-01 8.836568e-01 5.112081e-01 9.683967e-01 4.067539e-01 1.998417e+00 1.362081e+00 -1.763519e+00 -4.204723e-02 1.755703e-01 2.460932e-02 -9.886408e-03 
-1.084969e-03 4.053961e-02 1.822447e-01 1.100930e-02 -3.766274e+00 -4.942143e+00 -1.245024e-01 -1.459376e+00 -1.051007e+00 -1.298626e+00 -9.972887e-01 -8.141883e-01 3.109256e-01 7.450208e-02 -2.797775e-01 -3.309458e-02 -9.834305e-02 1.197957e-02 -1.558594e-01 -1.660136e-01 4.703867e-02 1.154020e-01 -8.712720e-01 -1.004364e+00 -1.217270e+00 -1.156266e+00 -1.326331e+00 -1.228100e+00 -1.378900e+00 -1.258330e+00 -1.401562e+00 -1.277342e+00 -1.411339e+00 -1.293950e+00 -1.416700e+00 -1.318216e+00 -1.423837e+00 -1.341549e+00 -1.413599e+00 -1.343950e+00 -1.383753e+00 -1.343904e+00 -1.369071e+00 -1.369269e+00 -1.376110e+00 -1.397339e+00 -1.373142e+00 -1.404007e+00 -1.359442e+00 -1.398550e+00 -1.345044e+00 -1.381869e+00 -1.331162e+00 -1.362478e+00 -1.353686e+00 -1.440464e+00 -1.032919e+00 -7.734538e-01 -1.764714e+00 -8.624611e-01 -3.651544e-01 -1.658046e+00 -1.561480e+00 -1.556245e+00 -2.434402e-01 -1.481975e+00 -1.342539e+00 -5.080220e-01 -1.976007e+00 -1.975208e+00 -2.717315e+00 -2.439806e+00 -1.787621e+00 -1.864501e+00 -1.668140e+00 -1.521290e+00 -1.538891e+00 -1.445076e+00 -1.515026e+00 -1.418471e+00 -1.504523e+00 -1.409883e+00 -1.494045e+00 -1.408798e+00 -1.479252e+00 -1.409426e+00 -1.459172e+00 -1.414234e+00 -1.442662e+00 -1.431254e+00 -1.431488e+00 -1.450697e+00 -1.410711e+00 -1.464525e+00 -1.390017e+00 -1.491146e+00 -1.382145e+00 -1.518996e+00 -1.365776e+00 -1.529053e+00 -1.347792e+00 -1.535407e+00 -1.343824e+00 -1.532650e+00 -1.346747e+00 -1.513899e+00 -1.366674e+00 -1.492301e+00 -1.413609e+00 -1.464654e+00 -1.470461e+00 -1.414556e+00 -1.523890e+00 -1.350335e+00 -1.583394e+00 -1.290810e+00 -1.657652e+00 -1.246501e+00 -1.771223e+00 -1.202068e+00 -2.014080e+00 -6.871445e-01 -3.711894e+00 -5.328849e+00 1.405912e-01 5.920276e-01 1.286454e-01 4.236536e-03 
-5.084797e-04 3.760312e-02 1.892396e-01 3.100732e-01 -1.979520e+00 -4.475252e+00 -4.268899e+00 -3.094523e+00 -2.302591e+00 -2.484441e+00 -2.193117e+00 -2.292074e+00 -2.369552e+00 -2.331245e+00 -2.149269e+00 -2.311468e+00 -2.210402e+00 -2.320908e+00 -2.207801e+00 -2.267220e+00 -2.309933e+00 -2.349007e+00 -2.144225e+00 -2.219225e+00 -2.321890e+00 -2.383359e+00 -2.461657e+00 -2.455537e+00 -2.532895e+00 -2.480265e+00 -2.570895e+00 -2.489561e+00 -2.592482e+00 -2.494832e+00 -2.606080e+00 -2.505837e+00 -2.617423e+00 -2.517850e+00 -2.614035e+00 -2.517196e+00 -2.594772e+00 -2.516304e+00 -2.584105e+00 -2.533838e+00 -2.587032e+00 -2.553947e+00 -2.581768e+00 -2.560413e+00 -2.567963e+00 -2.560946e+00 -2.552964e+00 -2.558561e+00 -2.542075e+00 -2.564239e+00 -2.545035e+00 -2.538543e+00 -2.510918e+00 -2.201985e+00 -2.155034e+00 -2.885806e+00 -3.222196e+00 -2.470119e+00 -2.187630e+00 -2.869880e+00 -3.268641e+00 -2.962555e+00 -2.966617e+00 -3.483445e+00 -2.816748e+00 -2.430982e+00 -2.215640e+00 -2.503293e+00 -2.937993e+00 -2.907757e+00 -2.817298e+00 -2.736683e+00 -2.710092e+00 -2.642683e+00 -2.670576e+00 -2.604968e+00 -2.658338e+00 -2.587371e+00 -2.652436e+00 -2.577537e+00 -2.646426e+00 -2.570594e+00 -2.637849e+00 -2.568329e+00 -2.631319e+00 -2.576609e+00 -2.626928e+00 -2.588423e+00 -2.614140e+00 -2.597532e+00 -2.599503e+00 -2.616607e+00 -2.591527e+00 -2.637823e+00 -2.575353e+00 -2.648482e+00 -2.555381e+00 -2.659090e+00 -2.542204e+00 -2.666695e+00 -2.530762e+00 -2.667082e+00 -2.528276e+00 -2.669261e+00 -2.542467e+00 -2.670451e+00 -2.562859e+00 -2.658259e+00 -2.582129e+00 -2.637119e+00 -2.609037e+00 -2.619484e+00 -2.650658e+00 -2.615047e+00 -2.716566e+00 -2.627813e+00 -2.775890e+00 -3.241317e+00 -6.136432e+00 -3.954196e+00 1.944926e-01 4.029298e-01 6.829953e-02 -8.042830e-03 
-6.178028e-03 -1.022890e-06 4.230471e-02 2.043536e-01 3.573846e-01 -5.645452e-01 -2.398133e+00 -1.332307e+00 -9.474684e-01 -9.307445e-01 -8.110525e-01 -1.019585e+00 -2.140373e+00 -1.730754e+00 -1.313896e+00 -1.319230e+00 -1.319950e+00 -1.317068e+00 -1.322118e+00 -1.315815e+00 -1.746011e+00 -1.905849e+00 -9.855291e-01 -8.860136e-01 -8.701950e-01 -9.219832e-01 -9.043801e-01 -9.311239e-01 -9.236285e-01 -9.339433e-01 -9.377776e-01 -9.333334e-01 -9.474367e-01 -9.313234e-01 -9.538614e-01 -9.296564e-01 -9.581369e-01 -9.288447e-01 -9.602935e-01 -9.285084e-01 -9.607053e-01 -9.292092e-01 -9.609559e-01 -9.317623e-01 -9.619209e-01 -9.358742e-01 -9.633125e-01 -9.417405e-01 -9.658360e-01 -9.507817e-01 -9.697791e-01 -9.631657e-01 -9.735211e-01 -9.595343e-01 -8.606957e-01 -6.027976e-01 -1.749616e+00 -2.891686e+00 -8.765853e-01 -1.061844e+00 -1.706506e+00 -7.975649e-01 -1.247387e+00 -4.717410e-01 -1.775815e+00 -5.860296e-01 -3.482272e-01 -1.710929e+00 -6.321564e-02 -1.109440e+00 -2.574145e-01 -1.412923e-02 -7.184364e-01 -2.824726e-01 -7.892090e-01 -9.986694e-01 -9.951914e-01 -9.808361e-01 -9.667009e-01 -9.602095e-01 -9.584880e-01 -9.491478e-01 -9.561776e-01 -9.413175e-01 -9.566289e-01 -9.354679e-01 -9.582270e-01 -9.313583e-01 -9.600284e-01 -9.292291e-01 -9.612364e-01 -9.285375e-01 -9.611388e-01 -9.285911e-01 -9.598746e-01 -9.299075e-01 -9.576351e-01 -9.322034e-01 -9.536849e-01 -9.351169e-01 -9.480454e-01 -9.394687e-01 -9.411105e-01 -9.454800e-01 -9.326486e-01 -9.531851e-01 -9.231777e-01 -9.628605e-01 -9.135264e-01 -9.739696e-01 -9.039308e-01 -9.852029e-01 -8.948787e-01 -9.955589e-01 -8.871291e-01 -1.003845e+00 -8.790682e-01 -1.007972e+00 -8.608985e-01 -1.009503e+00 -7.708786e-01 -1.581501e+00 -2.292983e+00 -2.866080e-01 2.240770e-01 6.906175e-02 -1.049506e-02 -1.280598e-02 
-7.066661e-03 -3.905811e-03 3.805599e-04 2.304182e-02 8.868360e-02 9.529585e-02 -1.194638e-01 -7.711057e-02 -1.206025e-02 3.126310e-02 1.393191e-01 -1.967903e-02 -2.019922e+00 -1.853963e+00 -8.917634e-01 -8.900408e-01 -8.900628e-01 -8.899512e-01 -8.901493e-01 -8.908710e-01 -1.692283e+00 -1.823507e+00 -2.419674e-01 -2.681381e-02 -3.696681e-02 -3.619008e-02 -2.661273e-02 -2.120344e-02 -1.910824e-02 -1.753780e-02 -1.870064e-02 -1.735224e-02 -1.968055e-02 -1.781044e-02 -2.066186e-02 -1.830189e-02 -2.140731e-02 -1.880356e-02 -2.200402e-02 -1.944212e-02 -2.263767e-02 -2.040556e-02 -2.358206e-02 -2.197980e-02 -2.525181e-02 -2.459936e-02 -2.813764e-02 -2.862383e-02 -3.225452e-02 -3.326852e-02 -3.531844e-02 -3.398922e-02 -2.930805e-02 -1.157334e-02 5.747863e-02 2.523134e-01 1.116748e-01 -3.594406e-01 -8.737882e-02 2.314714e-01 2.697971e-01 8.961566e-02 -2.138361e-01 4.330257e-01 3.294261e-01 1.108914e-01 2.635753e-01 2.404784e-01 4.410139e-01 -1.229320e-01 -1.068244e-01 2.116561e-01 3.433654e-01 3.882758e-01 7.422867e-02 -2.628752e-02 -3.116604e-02 -2.599249e-02 -2.469904e-02 -2.335080e-02 -2.327084e-02 -2.168609e-02 -2.218810e-02 -2.045176e-02 -2.166457e-02 -1.971884e-02 -2.151786e-02 -1.930091e-02 -2.152645e-02 -1.905265e-02 -2.156129e-02 -1.888891e-02 -2.157664e-02 -1.876532e-02 -2.154939e-02 -1.868096e-02 -2.145704e-02 -1.865252e-02 -2.127825e-02 -1.871138e-02 -2.098260e-02 -1.889884e-02 -2.054347e-02 -1.925403e-02 -1.993831e-02 -1.979961e-02 -1.915279e-02 -2.051888e-02 -1.816953e-02 -2.132338e-02 -1.690842e-02 -2.195149e-02 -1.507413e-02 -2.174341e-02 -1.182378e-02 -1.927305e-02 -5.292701e-03 -1.227890e-02 7.318354e-03 9.875256e-04 3.172455e-02 -3.153520e-02 -6.723990e-02 5.155976e-02 2.156314e-02 -1.185832e-02 -1.655167e-02 -1.120396e-02 
-5.690257e-03 -4.435246e-03 -3.536133e-03 -2.460374e-03 3.063896e-03 1.132510e-02 3.309555e-03 4.758888e-03 1.844983e-02 4.725351e-02 1.065878e-01 3.847424e-02 -1.024327e+00 -9.370509e-01 -4.463799e-01 -4.453479e-01 -4.453459e-01 -4.453457e-01 -4.453464e-01 -4.457968e-01 -8.335584e-01 -8.993509e-01 -1.142471e-01 -1.575381e-02 -2.253863e-02 -1.825042e-02 -1.034712e-02 -5.114400e-03 -2.501442e-03 -9.715628e-04 -4.825935e-04 -6.077671e-05 -1.803986e-04 -6.966174e-05 -3.276252e-04 -2.872686e-04 -5.545164e-04 -5.419614e-04 -8.092206e-04 -8.525324e-04 -1.158211e-03 -1.322507e-03 -1.743770e-03 -2.133397e-03 -2.786725e-03 -3.518219e-03 -4.473477e-03 -5.483939e-03 -6.418110e-03 -6.920046e-03 -6.361468e-03 -4.015699e-03 1.037305e-03 9.589918e-03 2.611596e-02 6.589899e-02 1.359623e-01 1.609288e-01 1.158565e-01 1.317112e-01 1.400753e-01 1.168366e-01 1.138194e-01 9.500959e-02 1.174882e-01 1.158565e-01 1.189306e-01 1.210569e-01 1.033441e-01 1.001531e-01 6.649638e-02 1.129940e-01 1.481675e-01 6.911545e-02 1.506897e-02 3.319026e-03 1.427474e-03 3.024257e-04 -7.955808e-04 -9.880199e-04 -9.832315e-04 -6.644712e-04 -5.256856e-04 -3.004208e-04 -2.972308e-04 -2.116971e-04 -3.014555e-04 -2.757188e-04 -3.877637e-04 -3.647919e-04 -4.691242e-04 -4.281078e-04 -5.232641e-04 -4.598763e-04 -5.532638e-04 -4.676981e-04 -5.663900e-04 -4.604280e-04 -5.681448e-04 -4.456169e-04 -5.615285e-04 -4.291533e-04 -5.472990e-04 -4.147758e-04 -5.232603e-04 -4.018649e-04 -4.811916e-04 -3.791449e-04 -3.960086e-04 -3.041604e-04 -1.916899e-04 -4.878826e-05 3.359480e-04 7.007532e-04 1.628437e-03 2.524535e-03 4.339181e-03 5.966950e-03 8.535302e-03 1.015820e-02 1.256427e-02 1.108855e-02 9.389838e-03 4.108272e-03 -4.661863e-03 -7.798712e-03 -7.730144e-03 -6.733871e-03 
-4.744291e-06 -1.497940e-06 2.132906e-06 3.444356e-06 4.894485e-06 4.523210e-06 5.216483e-06 6.410539e-06 6.606542e-06 7.315446e-06 6.276619e-06 -1.813671e-05 -7.769567e-05 3.583798e-04 6.770071e-07 4.735139e-09 1.859933e-09 4.733035e-09 5.811819e-09 1.751677e-06 1.445752e-03 -2.803282e-03 -2.435478e-05 4.992194e-05 -1.437119e-05 -3.937195e-05 -4.127797e-05 -4.308255e-05 -4.163951e-05 -4.335242e-05 -4.518549e-05 -5.034757e-05 -5.791997e-05 -6.925699e-05 -8.538022e-05 -1.075914e-04 -1.381023e-04 -1.802149e-04 -2.367993e-04 -3.157872e-04 -4.215019e-04 -5.701411e-04 -7.697409e-04 -1.047029e-03 -1.411246e-03 -1.887665e-03 -2.459778e-03 -3.100069e-03 -3.692302e-03 -4.057023e-03 -3.883250e-03 -2.783864e-03 -3.715412e-04 3.502166e-03 8.700523e-03 1.569357e-02 2.567856e-02 3.382791e-02 3.420582e-02 3.506508e-02 3.655466e-02 3.477209e-02 3.313889e-02 2.776560e-02 2.629849e-02 2.610584e-02 2.484463e-02 2.496645e-02 2.364205e-02 2.456934e-02 2.213753e-02 2.307614e-02 2.199837e-02 1.286503e-02 7.227414e-03 4.422954e-03 2.383201e-03 9.888028e-04 2.303209e-04 4.053748e-06 1.312178e-05 1.337485e-04 2.454625e-04 3.219907e-04 3.502722e-04 3.378522e-04 3.049609e-04 2.563951e-04 2.115015e-04 1.652974e-04 1.304873e-04 9.782460e-05 7.579161e-05 5.553391e-05 4.318139e-05 3.169195e-05 2.560588e-05 1.952435e-05 1.693583e-05 1.359170e-05 1.245214e-05 9.988819e-06 9.037428e-06 6.514527e-06 5.310422e-06 2.602581e-06 1.200072e-06 -1.476166e-06 -2.981952e-06 -5.396877e-06 -6.903854e-06 -8.746370e-06 -1.002943e-05 -1.089671e-05 -1.172324e-05 -1.133107e-05 -1.177055e-05 -1.042937e-05 -1.133630e-05 -1.046093e-05 -1.332306e-05 -1.468299e-05 -1.967841e-05 -2.149539e-05 -1.924035e-05 -1.866343e-05 -1.363141e-05 -1.028460e-05 
5.679554e-03 4.432877e-03 3.541807e-03 2.468880e-03 -3.056357e-03 -1.132125e-02 -3.298329e-03 -4.739625e-03 -1.843785e-02 -4.724039e-02 -1.065791e-01 -3.851688e-02 1.023843e+00 9.376065e-01 4.463810e-01 4.453479e-01 4.453459e-01 4.453457e-01 4.453464e-01 4.458011e-01 8.371192e-01 8.954675e-01 1.142622e-01 1.582348e-02 2.250785e-02 1.816798e-02 1.025931e-02 5.007341e-03 2.401796e-03 8.488245e-04 3.644396e-04 -9.278321e-05 2.044535e-05 -1.437716e-04 8.720939e-05 -3.476598e-05 1.680661e-04 2.588792e-05 1.614711e-04 -1.066203e-05 4.125815e-05 -1.696042e-04 -2.281943e-04 -5.099774e-04 -7.321698e-04 -1.146332e-03 -1.596310e-03 -2.185925e-03 -2.845817e-03 -3.493858e-03 -4.089819e-03 -4.358069e-03 -4.297002e-03 -3.587855e-03 -2.479347e-03 -8.384412e-04 9.572307e-04 2.861388e-03 4.077581e-03 5.218711e-03 5.988991e-03 6.223782e-03 6.201772e-03 5.690469e-03 5.591775e-03 5.721885e-03 5.961597e-03 6.606632e-03 7.018526e-03 7.796232e-03 8.011799e-03 8.114320e-03 7.427651e-03 5.999654e-03 4.629032e-03 3.302307e-03 2.221507e-03 1.439492e-03 9.985491e-04 7.641010e-04 7.094984e-04 6.864280e-04 7.359315e-04 7.289601e-04 7.677667e-04 7.291315e-04 7.482517e-04 6.889642e-04 7.061380e-04 6.384701e-04 6.662826e-04 5.922877e-04 6.368249e-04 5.534192e-04 6.177840e-04 5.213397e-04 6.063634e-04 4.946372e-04 5.980421e-04 4.714445e-04 5.875233e-04 4.503329e-04 5.698502e-04 4.305737e-04 5.402236e-04 4.102696e-04 4.904152e-04 3.786893e-04 3.961506e-04 2.941884e-04 1.825022e-04 2.999245e-05 -3.528818e-04 -7.255421e-04 -1.649266e-03 -2.550220e-03 -4.358452e-03 -5.987925e-03 -8.549360e-03 -1.017353e-02 -1.257766e-02 -1.111379e-02 -9.422529e-03 -4.148837e-03 4.621853e-03 7.758603e-03 7.700014e-03 6.711238e-03 
7.056188e-03 3.906726e-03 -3.723452e-04 -2.304365e-02 -8.872711e-02 -9.530325e-02 1.195159e-01 7.717469e-02 1.215056e-02 -3.121529e-02 -1.392544e-01 1.965040e-02 2.019529e+00 1.854630e+00 8.917624e-01 8.900469e-01 8.900606e-01 8.899540e-01 8.901548e-01 8.908661e-01 1.694414e+00 1.818521e+00 2.422442e-01 2.676697e-02 3.695190e-02 3.586632e-02 2.656506e-02 2.083622e-02 1.907287e-02 1.714909e-02 1.863830e-02 1.691920e-02 1.951484e-02 1.726695e-02 2.028393e-02 1.753383e-02 2.066084e-02 1.763338e-02 2.066046e-02 1.759813e-02 2.034663e-02 1.744721e-02 1.975640e-02 1.714126e-02 1.886089e-02 1.655620e-02 1.754623e-02 1.550330e-02 1.567584e-02 1.386553e-02 1.329733e-02 1.185742e-02 1.090085e-02 1.017103e-02 9.381433e-03 9.714811e-03 9.602646e-03 1.031473e-02 1.024673e-02 1.055517e-02 1.069620e-02 1.170763e-02 1.267419e-02 1.293165e-02 1.305518e-02 1.466640e-02 1.494586e-02 1.694153e-02 1.742200e-02 2.072402e-02 2.017264e-02 2.237953e-02 2.120081e-02 2.154548e-02 1.982634e-02 1.985785e-02 1.891706e-02 1.885730e-02 1.861786e-02 1.842557e-02 1.878733e-02 1.838696e-02 1.920358e-02 1.851999e-02 1.966155e-02 1.866160e-02 2.005023e-02 1.874099e-02 2.034573e-02 1.875115e-02 2.056733e-02 1.871250e-02 2.073778e-02 1.865529e-02 2.086484e-02 1.861539e-02 2.093735e-02 1.863008e-02 2.092545e-02 1.873538e-02 2.078865e-02 1.896566e-02 2.048825e-02 1.934874e-02 1.999289e-02 1.989541e-02 1.928039e-02 2.058618e-02 1.832696e-02 2.133531e-02 1.705390e-02 2.189139e-02 1.517502e-02 2.161230e-02 1.186620e-02 1.909228e-02 5.287949e-03 1.208798e-02 -7.336811e-03 -1.142609e-03 -3.171546e-02 3.134915e-02 6.725038e-02 -5.151655e-02 -2.158275e-02 1.181082e-02 1.651808e-02 1.118060e-02 
6.170162e-03 3.136015e-06 -4.231793e-02 -2.044610e-01 -3.576356e-01 5.655443e-01 2.399057e+00 1.332030e+00 9.492087e-01 9.314412e-01 8.126674e-01 1.020105e+00 2.139250e+00 1.731134e+00 1.313836e+00 1.319374e+00 1.319895e+00 1.317125e+00 1.322229e+00 1.315583e+00 1.747933e+00 1.902879e+00 9.873708e-01 8.828035e-01 8.712551e-01 9.186672e-01 9.059576e-01 9.289904e-01 9.264280e-01 9.336644e-01 9.410943e-01 9.341830e-01 9.503255e-01 9.327954e-01 9.559090e-01 9.310481e-01 9.587011e-01 9.295339e-01 9.593980e-01 9.286646e-01 9.585799e-01 9.283414e-01 9.563421e-01 9.280880e-01 9.528891e-01 9.278677e-01 9.487218e-01 9.275592e-01 9.438024e-01 9.268258e-01 9.381866e-01 9.254276e-01 9.315116e-01 9.222785e-01 9.236991e-01 9.178940e-01 9.173894e-01 9.086086e-01 9.142788e-01 8.981355e-01 8.919123e-01 9.031511e-01 8.992254e-01 9.016354e-01 8.807522e-01 8.987708e-01 8.927989e-01 8.996755e-01 9.135857e-01 9.349998e-01 9.350845e-01 9.497445e-01 9.310181e-01 9.438180e-01 9.272189e-01 9.366813e-01 9.287864e-01 9.339341e-01 9.329286e-01 9.325455e-01 9.378936e-01 9.317760e-01 9.427053e-01 9.309626e-01 9.465552e-01 9.300023e-01 9.493576e-01 9.291862e-01 9.511093e-01 9.284886e-01 9.517542e-01 9.281541e-01 9.518778e-01 9.287926e-01 9.515574e-01 9.301697e-01 9.502682e-01 9.325150e-01 9.482345e-01 9.363669e-01 9.450011e-01 9.414193e-01 9.400518e-01 9.479722e-01 9.337185e-01 9.562155e-01 9.259200e-01 9.654605e-01 9.165841e-01 9.751383e-01 9.065046e-01 9.849370e-01 8.967419e-01 9.940441e-01 8.879563e-01 1.001439e+00 8.790496e-01 1.005201e+00 8.599479e-01 1.006320e+00 7.693474e-01 1.578342e+00 2.292330e+00 2.877769e-01 -2.235534e-01 -6.906125e-02 1.044622e-02 1.278560e-02 
5.049420e-04 -3.760692e-02 -1.893081e-01 -3.101747e-01 1.980522e+00 4.475584e+00 4.268887e+00 3.092203e+00 2.303556e+00 2.485621e+00 2.196863e+00 2.294812e+00 2.369470e+00 2.331814e+00 2.148886e+00 2.312621e+00 2.209558e+00 2.321144e+00 2.207351e+00 2.264393e+00 2.308432e+00 2.342914e+00 2.151211e+00 2.213298e+00 2.326422e+00 2.373180e+00 2.462788e+00 2.453380e+00 2.545398e+00 2.492679e+00 2.584675e+00 2.500470e+00 2.596279e+00 2.502316e+00 2.602241e+00 2.508792e+00 2.604762e+00 2.518391e+00 2.606132e+00 2.532920e+00 2.607862e+00 2.547093e+00 2.602324e+00 2.551907e+00 2.588361e+00 2.553080e+00 2.576687e+00 2.557640e+00 2.570797e+00 2.569094e+00 2.576927e+00 2.589662e+00 2.583672e+00 2.594905e+00 2.568322e+00 2.580754e+00 2.549712e+00 2.568351e+00 2.549778e+00 2.561270e+00 2.532787e+00 2.568113e+00 2.541388e+00 2.559071e+00 2.513054e+00 2.545202e+00 2.511758e+00 2.530639e+00 2.524603e+00 2.557004e+00 2.547448e+00 2.560494e+00 2.543956e+00 2.546081e+00 2.552270e+00 2.543619e+00 2.572274e+00 2.545924e+00 2.588692e+00 2.546340e+00 2.604510e+00 2.550303e+00 2.617991e+00 2.552715e+00 2.623615e+00 2.554937e+00 2.625719e+00 2.562445e+00 2.624130e+00 2.570315e+00 2.613199e+00 2.579144e+00 2.602189e+00 2.597720e+00 2.592091e+00 2.614938e+00 2.573986e+00 2.630023e+00 2.559677e+00 2.649567e+00 2.547953e+00 2.661695e+00 2.534907e+00 2.669873e+00 2.532999e+00 2.679392e+00 2.540717e+00 2.680042e+00 2.549551e+00 2.668329e+00 2.562696e+00 2.651394e+00 2.583785e+00 2.631759e+00 2.613191e+00 2.618650e+00 2.660641e+00 2.618992e+00 2.720885e+00 2.620263e+00 2.765504e+00 3.231341e+00 6.125319e+00 3.957577e+00 -1.899446e-01 -4.021266e-01 -6.834792e-02 8.021511e-03 
1.103563e-03 -4.054553e-02 -1.823013e-01 -1.095111e-02 3.768262e+00 4.939658e+00 1.221615e-01 1.456780e+00 1.047894e+00 1.298650e+00 9.988287e-01 8.170041e-01 -3.090896e-01 -7.508596e-02 2.776521e-01 3.554324e-02 9.555946e-02 -1.132636e-02 1.550689e-01 1.585185e-01 -4.181291e-02 -1.233489e-01 8.774496e-01 1.003578e+00 1.221375e+00 1.148366e+00 1.323641e+00 1.229262e+00 1.390702e+00 1.277006e+00 1.413723e+00 1.290198e+00 1.408459e+00 1.299194e+00 1.403205e+00 1.315760e+00 1.399133e+00 1.335927e+00 1.398198e+00 1.361438e+00 1.401387e+00 1.384251e+00 1.396557e+00 1.391416e+00 1.381239e+00 1.391768e+00 1.370614e+00 1.396307e+00 1.369877e+00 1.411159e+00 1.388493e+00 1.440675e+00 1.410104e+00 1.450601e+00 1.400803e+00 1.435098e+00 1.384971e+00 1.437590e+00 1.390266e+00 1.452600e+00 1.420977e+00 1.445804e+00 1.415219e+00 1.437397e+00 1.419879e+00 1.421487e+00 1.383234e+00 1.396221e+00 1.345947e+00 1.347005e+00 1.331937e+00 1.321661e+00 1.347713e+00 1.320762e+00 1.375724e+00 1.340114e+00 1.407663e+00 1.354836e+00 1.426762e+00 1.362319e+00 1.442351e+00 1.373157e+00 1.454290e+00 1.381160e+00 1.455936e+00 1.388705e+00 1.454158e+00 1.403668e+00 1.448676e+00 1.418609e+00 1.430845e+00 1.434028e+00 1.413661e+00 1.462214e+00 1.398502e+00 1.486493e+00 1.372868e+00 1.505091e+00 1.354758e+00 1.526861e+00 1.343611e+00 1.533906e+00 1.334819e+00 1.530675e+00 1.347171e+00 1.524767e+00 1.378724e+00 1.501867e+00 1.416499e+00 1.457791e+00 1.463363e+00 1.404110e+00 1.521614e+00 1.345642e+00 1.587863e+00 1.295692e+00 1.673566e+00 1.259976e+00 1.780807e+00 1.198838e+00 2.002227e+00 6.794946e-01 3.695522e+00 5.331897e+00 -1.345201e-01 -5.910279e-01 -1.286695e-01 -4.249918e-03 
6.050512e-03 -1.445570e-02 -7.282407e-02 5.617412e-02 1.662239e+00 1.021192e+00 -3.022936e+00 -1.010668e+00 -7.726763e-01 -7.290750e-01 -7.991239e-01 -5.980110e-01 8.279265e-01 -4.654412e-01 -1.062247e+00 -1.175291e+00 -8.463511e-01 -1.196944e+00 -8.624737e-01 -1.297728e+00 -1.683123e-01 3.658222e-01 -4.838557e-01 -8.013009e-01 -6.958869e-01 -7.836215e-01 -6.914882e-01 -7.696506e-01 -6.947856e-01 -7.564060e-01 -7.036058e-01 -7.493341e-01 -7.165100e-01 -7.418384e-01 -7.256312e-01 -7.316926e-01 -7.314105e-01 -7.211169e-01 -7.337321e-01 -7.099615e-01 -7.328099e-01 -7.011668e-01 -7.333132e-01 -6.990993e-01 -7.365448e-01 -7.005424e-01 -7.376979e-01 -7.014950e-01 -7.352549e-01 -6.995968e-01 -7.261508e-01 -6.929917e-01 -7.160722e-01 -6.927222e-01 -7.170722e-01 -7.006502e-01 -7.220803e-01 -6.945860e-01 -7.212084e-01 -6.781062e-01 -6.852708e-01 -6.901318e-01 -6.976327e-01 -6.899390e-01 -6.726964e-01 -6.941768e-01 -7.020010e-01 -7.041354e-01 -7.406925e-01 -7.620615e-01 -7.649308e-01 -7.808378e-01 -7.453821e-01 -7.669310e-01 -7.237870e-01 -7.449799e-01 -7.082421e-01 -7.319651e-01 -7.019067e-01 -7.246479e-01 -6.984942e-01 -7.175412e-01 -6.966207e-01 -7.119413e-01 -6.979010e-01 -7.067715e-01 -6.998283e-01 -6.993173e-01 -7.026023e-01 -6.921444e-01 -7.094141e-01 -6.851313e-01 -7.160394e-01 -6.742333e-01 -7.220152e-01 -6.654144e-01 -7.313285e-01 -6.596407e-01 -7.372802e-01 -6.543260e-01 -7.393084e-01 -6.560473e-01 -7.382763e-01 -6.637486e-01 -7.272435e-01 -6.750697e-01 -7.065798e-01 -6.948031e-01 -6.808705e-01 -7.240555e-01 -6.499534e-01 -7.584051e-01 -6.146385e-01 -7.959108e-01 -5.786346e-01 -8.331998e-01 -5.415619e-01 -8.752486e-01 -5.062842e-01 -9.656325e-01 -4.091935e-01 -1.997120e+00 -1.368171e+00 1.763372e+00 4.402744e-02 -1.751920e-01 -2.456591e-02 9.925387e-03 
5.897259e-03 3.067933e-03 -5.102358e-03 1.886919e-02 1.897690e-01 -1.489976e-01 -1.200302e+00 -5.885454e-01 -4.092517e-01 -4.383846e-01 -4.510887e-01 -4.110291e-01 6.162769e-01 2.429132e+00 3.247415e+00 2.779987e+00 3.027174e+00 2.965753e+00 2.836299e+00 3.204160e+00 2.507844e+00 3.550667e-01 -3.915464e-01 -4.710964e-01 -4.261044e-01 -4.448339e-01 -4.318622e-01 -4.491020e-01 -4.413728e-01 -4.490657e-01 -4.472451e-01 -4.472043e-01 -4.512651e-01 -4.449354e-01 -4.539722e-01 -4.428641e-01 -4.555924e-01 -4.412682e-01 -4.562730e-01 -4.402677e-01 -4.561768e-01 -4.398880e-01 -4.554872e-01 -4.400903e-01 -4.544307e-01 -4.408615e-01 -4.533322e-01 -4.423321e-01 -4.526413e-01 -4.447343e-01 -4.527557e-01 -4.480919e-01 -4.538222e-01 -4.524082e-01 -4.568180e-01 -4.574294e-01 -4.577817e-01 -4.567205e-01 -4.641757e-01 -4.510678e-01 -4.464155e-01 -4.543620e-01 -4.543182e-01 -4.523395e-01 -4.372912e-01 -4.455891e-01 -4.402386e-01 -4.388134e-01 -4.459588e-01 -4.557216e-01 -4.580035e-01 -4.638737e-01 -4.506755e-01 -4.573569e-01 -4.476349e-01 -4.494350e-01 -4.435812e-01 -4.455407e-01 -4.442139e-01 -4.447429e-01 -4.460804e-01 -4.444405e-01 -4.476028e-01 -4.438500e-01 -4.484852e-01 -4.430170e-01 -4.489500e-01 -4.421527e-01 -4.492541e-01 -4.413619e-01 -4.495776e-01 -4.406620e-01 -4.500075e-01 -4.400831e-01 -4.505339e-01 -4.397311e-01 -4.510315e-01 -4.397571e-01 -4.512410e-01 -4.403530e-01 -4.508274e-01 -4.417510e-01 -4.494684e-01 -4.441797e-01 -4.469014e-01 -4.477842e-01 -4.429737e-01 -4.525988e-01 -4.377364e-01 -4.585765e-01 -4.315382e-01 -4.656331e-01 -4.251169e-01 -4.738306e-01 -4.197245e-01 -4.839386e-01 -4.170928e-01 -4.990805e-01 -4.185438e-01 -5.313682e-01 -4.101661e-01 -8.896615e-01 -1.018523e+00 2.701097e-02 3.990211e-02 1.529047e-02 1.307166e-02 8.897953e-03 
