# vtk DataFile Version 2.0
Comment goes here
ASCII

DATASET STRUCTURED_POINTS
FIELD FieldData 1
TIME 1 1 double
0.94000000
DIMENSIONS    128   16   1

ORIGIN    0.000   0.000   0.000
SPACING   0.0078125 0.015625   1.000

POINT_DATA   2048
SCALARS Omega double
LOOKUP_TABLE default

1.384967e-05 1.735988e-05 2.103029e-05 2.878794e-05 3.415753e-05 -8.718374e-06 -3.810112e-06 7.414460e-06 -2.362276e-05 -1.129757e-05 -3.363242e-05 -2.708660e-05 -4.274469e-06 2.811554e-05 1.030936e-04 -1.113415e-04 1.167752e-04 6.261794e-05 -5.334728e-05 3.648314e-04 -3.016323e-04 -4.732983e-05 1.571433e-05 4.428409e-05 -7.805593e-05 -3.684047e-05 -9.327919e-05 -7.423450e-05 -1.080822e-04 -1.067952e-04 -1.294224e-04 -1.415081e-04 -1.630010e-04 -1.870336e-04 -2.157941e-04 -2.530759e-04 -2.970738e-04 -3.524823e-04 -4.203775e-04 -5.035417e-04 -6.074065e-04 -7.329604e-04 -8.906691e-04 -1.074225e-03 -1.301805e-03 -1.545312e-03 -1.830810e-03 -2.100453e-03 -2.384400e-03 -2.642553e-03 -2.975818e-03 -3.635981e-03 -4.858214e-03 -5.399938e-03 -7.335362e-04 4.522761e-03 -3.928836e-02 -5.654731e-02 2.209254e-02 -5.795966e-02 -1.108783e-01 -3.664793e-04 2.023028e-02 -1.000064e-02 -1.106136e-01 -4.589199e-02 -3.973094e-02 -1.196417e-01 2.157019e-02 6.351895e-02 1.410902e-01 1.308757e-01 1.348082e-02 -6.278292e-03 -1.778210e-02 -1.897579e-02 -1.241447e-02 -5.720202e-03 -1.941877e-03 2.124862e-04 1.097924e-03 1.469876e-03 1.452988e-03 1.297166e-03 1.112227e-03 8.800609e-04 7.517019e-04 5.504058e-04 5.070678e-04 3.331377e-04 3.564920e-04 1.915082e-04 2.621618e-04 9.798236e-05 2.002196e-04 3.885389e-05 1.582623e-04 5.921578e-06 1.292843e-04 -7.639707e-06 1.079842e-04 -8.589362e-06 9.034119e-05 -3.451782e-06 7.327713e-05 2.406918e-06 5.474748e-05 5.515809e-06 3.420651e-05 4.479299e-06 1.258590e-05 3.661815e-07 -7.843526e-06 -3.976442e-06 -2.410680e-05 -5.062542e-06 -3.304102e-05 9.213146e-07 -3.198788e-05 1.823886e-05 -1.317794e-05 9.135093e-05 -2.510663e-05 -4.670267e-05 -1.415874e-05 -2.565053e-06 2.750990e-06 8.138418e-06 
-3.526886e-03 -3.672344e-04 -4.249490e-03 -4.586707e-02 -1.280023e-02 9.972261e-01 6.587572e-01 1.065420e-01 4.435350e-01 2.699506e-01 3.837249e-01 4.864356e-02 -3.666628e-01 -1.226281e+00 -1.698635e+00 -1.709077e+00 -1.475086e+00 -1.667701e+00 -1.475869e+00 -1.567897e+00 -1.346096e+00 -2.872726e-01 1.217001e-01 3.556932e-01 3.382583e-01 3.748585e-01 3.372625e-01 3.745648e-01 3.405555e-01 3.740114e-01 3.427344e-01 3.718893e-01 3.445354e-01 3.689901e-01 3.463056e-01 3.656662e-01 3.480570e-01 3.620396e-01 3.496420e-01 3.581612e-01 3.507785e-01 3.540495e-01 3.511683e-01 3.496075e-01 3.506099e-01 3.445755e-01 3.490436e-01 3.386425e-01 3.465850e-01 3.314997e-01 3.427832e-01 3.219811e-01 3.361214e-01 3.188058e-01 3.390640e-01 8.089511e-02 -1.289202e+00 -1.981962e+00 -2.918145e-02 -1.182300e+00 -1.949668e+00 -4.546186e-01 -9.679624e-01 -4.936674e-01 -2.273318e+00 -1.204987e+00 -1.043389e+00 -2.645953e+00 -1.805778e-01 -5.886960e-01 1.155141e+00 1.547202e+00 -5.757673e-01 2.028918e-02 3.061532e-01 3.145144e-01 3.004021e-01 3.282558e-01 3.259547e-01 3.440549e-01 3.374024e-01 3.491783e-01 3.426942e-01 3.506544e-01 3.459120e-01 3.507329e-01 3.483286e-01 3.501960e-01 3.503265e-01 3.494283e-01 3.519418e-01 3.487235e-01 3.530631e-01 3.483868e-01 3.534710e-01 3.487418e-01 3.529366e-01 3.499912e-01 3.513647e-01 3.521737e-01 3.488079e-01 3.551944e-01 3.454603e-01 3.588105e-01 3.416902e-01 3.626445e-01 3.379958e-01 3.662535e-01 3.350033e-01 3.691257e-01 3.334440e-01 3.708210e-01 3.341826e-01 3.711369e-01 3.382419e-01 3.705885e-01 3.469450e-01 3.713257e-01 3.617517e-01 3.802334e-01 3.945288e-01 5.187309e-01 7.825623e-01 2.059107e-01 -2.006555e-02 -8.979432e-03 -5.968120e-03 -5.370261e-03 
3.146749e-03 1.854469e-02 -1.523827e-02 -3.770769e-01 -9.858461e-01 2.080978e+00 1.382533e+00 -3.092915e-01 8.066829e-01 2.842072e-01 6.455202e-01 1.202180e-01 5.062803e-01 3.574224e-01 1.044409e+00 8.157007e-01 8.834018e-01 7.821796e-01 8.840914e-01 8.662199e-01 4.628594e-01 5.749873e-01 2.422939e-01 4.772904e-01 4.693444e-01 5.309801e-01 4.636437e-01 5.325925e-01 4.562724e-01 5.351267e-01 4.507208e-01 5.353072e-01 4.475010e-01 5.330568e-01 4.471620e-01 5.286869e-01 4.496679e-01 5.225811e-01 4.543879e-01 5.149536e-01 4.600648e-01 5.063362e-01 4.664051e-01 4.981238e-01 4.746756e-01 4.918037e-01 4.869190e-01 4.885273e-01 5.058143e-01 4.906344e-01 5.361182e-01 5.066903e-01 5.917610e-01 5.715796e-01 6.865740e-01 2.760239e-01 -1.712147e+00 -3.224954e+00 2.041420e-01 -1.864955e-01 -8.885916e-01 4.905685e-01 -1.157959e+00 7.537418e-01 -7.122854e-01 2.228705e-01 9.223156e-01 -9.641071e-01 1.289620e+00 -9.226542e-01 4.302174e-01 1.023169e+00 -1.341105e+00 -4.408625e-02 5.082225e-01 5.167381e-01 4.493868e-01 4.887053e-01 4.451270e-01 4.877343e-01 4.446379e-01 4.821945e-01 4.464707e-01 4.745667e-01 4.516673e-01 4.658191e-01 4.598781e-01 4.560102e-01 4.694418e-01 4.455238e-01 4.785910e-01 4.357536e-01 4.858011e-01 4.289992e-01 4.896761e-01 4.274047e-01 4.883515e-01 4.319212e-01 4.805062e-01 4.425477e-01 4.657304e-01 4.586102e-01 4.454499e-01 4.795314e-01 4.224851e-01 5.030356e-01 3.992363e-01 5.256161e-01 3.788103e-01 5.434090e-01 3.644261e-01 5.525144e-01 3.600127e-01 5.505165e-01 3.698049e-01 5.362189e-01 3.971029e-01 5.115622e-01 4.462314e-01 4.920080e-01 5.300829e-01 6.707762e-01 1.646259e+00 -5.246461e-01 -8.861396e-01 -3.151322e-02 3.216342e-02 5.719116e-03 
1.809035e-02 4.353200e-02 -2.379284e-02 -8.922645e-01 -3.228776e+00 -1.231609e+00 -2.424760e-02 -1.277563e+00 -6.062747e-01 -8.932761e-01 -6.231886e-01 -4.756820e-01 -4.085258e-01 -1.971242e-01 -4.691863e-01 -2.577716e-01 -3.679961e-01 -2.335755e-01 -3.730293e-01 -3.965500e-01 -1.795574e-01 -5.966891e-01 -4.532288e-01 -7.709814e-01 -7.271551e-01 -8.599442e-01 -8.066614e-01 -8.720582e-01 -8.574465e-01 -8.661312e-01 -8.930351e-01 -8.549012e-01 -9.179471e-01 -8.440282e-01 -9.333117e-01 -8.354268e-01 -9.396901e-01 -8.292047e-01 -9.382879e-01 -8.255040e-01 -9.311979e-01 -8.233272e-01 -9.175900e-01 -8.182764e-01 -8.927356e-01 -8.043604e-01 -8.503676e-01 -7.758895e-01 -7.831978e-01 -7.240384e-01 -6.762791e-01 -6.251372e-01 -4.959573e-01 -4.311805e-01 -1.574776e-01 2.050641e-01 1.701758e+00 2.260031e+00 7.959814e-01 1.077506e+00 1.803846e+00 6.338593e-01 1.484065e+00 5.502025e-01 1.531367e+00 8.997078e-01 2.483589e-01 1.680156e+00 -3.045227e-01 7.048034e-01 -6.006109e-01 -1.102416e+00 4.189534e-01 -2.566613e-01 -5.458184e-01 -6.495962e-01 -7.207929e-01 -7.498870e-01 -8.283972e-01 -8.129091e-01 -8.846233e-01 -8.537699e-01 -9.124053e-01 -8.866615e-01 -9.212113e-01 -9.156003e-01 -9.159557e-01 -9.433394e-01 -9.030416e-01 -9.710049e-01 -8.879088e-01 -9.965941e-01 -8.744607e-01 -1.015562e+00 -8.654602e-01 -1.023962e+00 -8.649792e-01 -1.020465e+00 -8.764689e-01 -1.005296e+00 -9.017623e-01 -9.796394e-01 -9.382339e-01 -9.432595e-01 -9.803195e-01 -8.998838e-01 -1.024455e+00 -8.563932e-01 -1.065740e+00 -8.202019e-01 -1.099387e+00 -7.991847e-01 -1.118935e+00 -7.980740e-01 -1.117325e+00 -8.222675e-01 -1.092034e+00 -8.801938e-01 -1.045889e+00 -9.861249e-01 -9.960632e-01 -1.134107e+00 -2.365218e-01 -3.149493e+00 -2.567512e+00 -4.945883e-02 1.274857e-01 3.795957e-02 
1.544965e-02 4.716896e-02 8.050534e-02 -3.724120e-01 -2.530961e+00 -4.622789e+00 -2.071767e+00 -1.208028e+00 -1.911022e+00 -1.533297e+00 -1.818953e+00 -1.530099e+00 -1.767815e+00 -1.559697e+00 -1.727360e+00 -1.608395e+00 -1.722159e+00 -1.653524e+00 -1.671909e+00 -1.678859e+00 -1.678036e+00 -1.655827e+00 -1.470154e+00 -1.721106e+00 -1.551386e+00 -1.786323e+00 -1.642296e+00 -1.812989e+00 -1.698214e+00 -1.813497e+00 -1.735957e+00 -1.803201e+00 -1.762927e+00 -1.789123e+00 -1.781596e+00 -1.774334e+00 -1.792964e+00 -1.759745e+00 -1.797878e+00 -1.745943e+00 -1.797288e+00 -1.732538e+00 -1.790010e+00 -1.716328e+00 -1.772407e+00 -1.692327e+00 -1.739925e+00 -1.655207e+00 -1.687254e+00 -1.597232e+00 -1.602771e+00 -1.501829e+00 -1.460211e+00 -1.335338e+00 -1.214437e+00 -1.107033e+00 -1.034027e+00 -5.085606e-01 -5.356824e-01 -1.193636e+00 -9.904987e-01 -1.438300e+00 -6.126527e-01 -1.431093e+00 -1.609452e+00 -1.090065e+00 -1.744154e+00 -1.367538e+00 -1.719573e+00 -9.204511e-01 -7.633499e-01 -6.066431e-01 -9.012962e-01 -1.419250e+00 -1.449430e+00 -1.599836e+00 -1.599518e+00 -1.664733e+00 -1.683450e+00 -1.711861e+00 -1.735920e+00 -1.744667e+00 -1.766724e+00 -1.770047e+00 -1.782026e+00 -1.791047e+00 -1.785618e+00 -1.810071e+00 -1.782256e+00 -1.828572e+00 -1.775756e+00 -1.845893e+00 -1.768613e+00 -1.859714e+00 -1.762232e+00 -1.868210e+00 -1.758913e+00 -1.870977e+00 -1.760976e+00 -1.868132e+00 -1.770097e+00 -1.860016e+00 -1.785261e+00 -1.845515e+00 -1.803913e+00 -1.825851e+00 -1.825162e+00 -1.804268e+00 -1.847445e+00 -1.784223e+00 -1.869391e+00 -1.769688e+00 -1.888471e+00 -1.762826e+00 -1.901319e+00 -1.767146e+00 -1.906429e+00 -1.789310e+00 -1.901207e+00 -1.839508e+00 -1.854761e+00 -2.069480e+00 -2.599416e+00 -3.441011e+00 -2.096696e+00 -1.053119e-01 8.539870e-02 2.529870e-02 
2.805438e-03 1.621619e-02 5.685463e-02 9.017286e-02 -3.069701e-01 -2.291580e+00 -1.362673e+00 -4.449471e-01 -1.043286e+00 -6.713939e-01 -9.112060e-01 -8.906770e-01 -1.063266e+00 -9.887267e-01 -8.660518e-01 -8.601068e-01 -8.674074e-01 -8.627090e-01 -8.640848e-01 -8.670049e-01 -9.326836e-01 -9.485510e-01 -9.612416e-01 -8.670618e-01 -7.419324e-01 -8.269226e-01 -7.593436e-01 -8.360316e-01 -7.738412e-01 -8.390908e-01 -7.849973e-01 -8.384920e-01 -7.935949e-01 -8.352771e-01 -8.002665e-01 -8.305299e-01 -8.055265e-01 -8.249409e-01 -8.096660e-01 -8.190064e-01 -8.127296e-01 -8.130833e-01 -8.146499e-01 -8.072290e-01 -8.154855e-01 -8.011870e-01 -8.154687e-01 -7.945063e-01 -8.147942e-01 -7.863329e-01 -8.122565e-01 -7.743784e-01 -7.970300e-01 -7.256432e-01 -7.299789e-01 -1.142544e+00 -4.175192e+00 -6.233290e+00 -2.055253e+00 -1.982684e+00 -2.806437e+00 -1.229620e+00 -3.328152e+00 -9.865867e-01 -2.289027e+00 -1.854863e+00 -5.830008e-01 -2.718091e+00 -1.604639e-01 -2.625595e+00 -1.532590e+00 -6.419630e-01 -3.544455e+00 -1.636345e+00 -6.653044e-01 -7.604369e-01 -7.869391e-01 -8.204404e-01 -7.991101e-01 -8.160799e-01 -8.023499e-01 -8.149512e-01 -8.065562e-01 -8.147467e-01 -8.102009e-01 -8.147649e-01 -8.129659e-01 -8.148591e-01 -8.148636e-01 -8.151563e-01 -8.159106e-01 -8.158394e-01 -8.160322e-01 -8.171193e-01 -8.149983e-01 -8.193010e-01 -8.126464e-01 -8.225563e-01 -8.090731e-01 -8.268018e-01 -8.046034e-01 -8.317428e-01 -7.996546e-01 -8.367901e-01 -7.948357e-01 -8.412605e-01 -7.909610e-01 -8.444865e-01 -7.889169e-01 -8.457179e-01 -7.895884e-01 -8.442575e-01 -7.936151e-01 -8.392574e-01 -8.008483e-01 -8.296452e-01 -8.090989e-01 -8.130664e-01 -8.097707e-01 -7.826188e-01 -7.689580e-01 -9.088223e-01 -1.764030e+00 -1.071895e+00 -2.161079e-01 4.275823e-02 2.197740e-02 2.435205e-03 
6.557667e-04 5.729797e-03 1.525494e-02 3.864392e-02 4.243354e-02 -1.363057e-01 -1.801854e-01 -1.028609e-01 -1.044461e-01 -3.579065e-02 -3.884867e-02 -3.508671e-01 -1.116070e+00 -9.449068e-01 -5.555869e-01 -5.545911e-01 -5.548898e-01 -5.546916e-01 -5.547584e-01 -5.551797e-01 -7.895247e-01 -9.609767e-01 -6.299933e-01 -2.221095e-01 -1.105280e-01 -9.966062e-02 -8.693695e-02 -8.739814e-02 -7.981482e-02 -8.329990e-02 -7.919126e-02 -8.298699e-02 -8.037369e-02 -8.337858e-02 -8.169602e-02 -8.371803e-02 -8.284220e-02 -8.397533e-02 -8.389949e-02 -8.433810e-02 -8.508124e-02 -8.508137e-02 -8.668017e-02 -8.654427e-02 -8.906719e-02 -8.908083e-02 -9.258560e-02 -9.283292e-02 -9.711530e-02 -9.696574e-02 -1.007587e-01 -9.742457e-02 -9.367320e-02 -6.550839e-02 -1.290955e-02 -5.158496e-02 -1.036499e+00 -2.216384e+00 -1.003367e+00 -6.603900e-01 -9.961726e-01 -7.389188e-02 -1.046232e+00 -2.322421e-01 -4.872468e-01 -1.163535e+00 -4.824299e-01 -1.208500e+00 -1.780810e-01 -6.486745e-01 -6.452640e-01 -7.017172e-01 -1.530419e+00 -4.288890e-01 -6.739259e-04 -4.789729e-02 -8.231362e-02 -8.969258e-02 -8.798931e-02 -8.796486e-02 -8.640279e-02 -8.614072e-02 -8.520057e-02 -8.469600e-02 -8.445606e-02 -8.372198e-02 -8.409205e-02 -8.309926e-02 -8.394195e-02 -8.271266e-02 -8.386851e-02 -8.249598e-02 -8.377450e-02 -8.242592e-02 -8.359246e-02 -8.250530e-02 -8.328268e-02 -8.273634e-02 -8.283583e-02 -8.310962e-02 -8.226574e-02 -8.360149e-02 -8.160434e-02 -8.416913e-02 -8.089997e-02 -8.474640e-02 -8.020329e-02 -8.523514e-02 -7.954367e-02 -8.546825e-02 -7.886657e-02 -8.513284e-02 -7.789540e-02 -8.359430e-02 -7.585480e-02 -7.961437e-02 -7.108139e-02 -7.121976e-02 -6.086071e-02 -5.652765e-02 -4.589130e-02 -9.012970e-02 -1.738085e-01 -5.929302e-02 7.836092e-03 4.922150e-03 -4.540592e-03 -3.221333e-03 
-2.673161e-04 9.300783e-04 2.190332e-03 5.070928e-03 1.046578e-02 6.543837e-03 -3.284623e-03 9.700642e-04 1.364015e-02 3.797593e-02 5.063374e-02 -1.206537e-01 -5.681944e-01 -4.941768e-01 -2.771438e-01 -2.767128e-01 -2.767122e-01 -2.767122e-01 -2.767124e-01 -2.768504e-01 -3.811160e-01 -4.691299e-01 -3.050352e-01 -8.828705e-02 -3.162638e-02 -2.030832e-02 -1.303593e-02 -7.942205e-03 -4.460545e-03 -2.776687e-03 -1.787902e-03 -1.454593e-03 -1.315484e-03 -1.361605e-03 -1.489771e-03 -1.612298e-03 -1.837972e-03 -1.982399e-03 -2.291666e-03 -2.499467e-03 -2.941969e-03 -3.296092e-03 -3.948821e-03 -4.538569e-03 -5.457290e-03 -6.296866e-03 -7.385901e-03 -8.208572e-03 -8.916416e-03 -8.735214e-03 -7.475454e-03 -3.914496e-03 2.802711e-03 1.611489e-02 4.183192e-02 7.900259e-02 7.287887e-02 4.751046e-03 1.291612e-02 8.141546e-02 4.922293e-02 8.800010e-02 6.252811e-02 8.134592e-02 1.302109e-01 7.365475e-02 1.313986e-01 1.020324e-01 1.282518e-01 1.022849e-01 6.797973e-02 1.164686e-01 1.013779e-01 9.063837e-02 4.966456e-02 1.849887e-02 6.237819e-03 1.843959e-03 -3.903014e-04 -1.563564e-03 -2.124503e-03 -2.246962e-03 -2.254406e-03 -2.102666e-03 -2.047901e-03 -1.874529e-03 -1.877806e-03 -1.728813e-03 -1.793978e-03 -1.661190e-03 -1.764592e-03 -1.635718e-03 -1.754047e-03 -1.626102e-03 -1.741575e-03 -1.620637e-03 -1.719294e-03 -1.616851e-03 -1.686351e-03 -1.616151e-03 -1.644512e-03 -1.620285e-03 -1.595474e-03 -1.628585e-03 -1.537991e-03 -1.633685e-03 -1.461637e-03 -1.611313e-03 -1.331302e-03 -1.496394e-03 -1.052434e-03 -1.134933e-03 -4.078217e-04 -2.100830e-04 1.017881e-03 1.799209e-03 3.786281e-03 5.333846e-03 7.970268e-03 9.692210e-03 1.163573e-02 7.515987e-03 2.876710e-03 5.793649e-03 2.784634e-03 -1.022045e-03 -2.269444e-03 -1.361751e-03 
-3.947815e-06 -3.659259e-06 -2.247422e-06 -1.820814e-06 -1.666443e-07 1.095852e-06 3.279163e-06 5.433293e-06 6.935617e-06 7.509459e-06 3.289319e-06 -3.300455e-05 -5.106427e-06 -1.512426e-04 -3.020955e-07 -1.017022e-09 -3.877313e-11 -1.095205e-09 5.388444e-09 3.961815e-06 3.064656e-03 4.286789e-04 -3.499259e-04 -5.163792e-05 1.537519e-05 -2.464399e-05 -3.770027e-05 -6.135841e-05 -6.987241e-05 -8.789708e-05 -1.005409e-04 -1.226432e-04 -1.457094e-04 -1.815757e-04 -2.242232e-04 -2.867073e-04 -3.641427e-04 -4.734279e-04 -6.114072e-04 -7.997357e-04 -1.038047e-03 -1.350103e-03 -1.735980e-03 -2.210117e-03 -2.759776e-03 -3.361265e-03 -3.955597e-03 -4.427492e-03 -4.614510e-03 -4.237397e-03 -2.972313e-03 -3.610691e-04 3.993115e-03 1.056542e-02 2.004620e-02 3.308765e-02 4.718774e-02 5.503660e-02 5.831296e-02 6.305798e-02 6.293691e-02 6.241911e-02 5.904728e-02 5.549084e-02 5.495770e-02 5.163219e-02 5.164876e-02 4.955052e-02 4.835657e-02 4.643715e-02 4.297631e-02 4.422118e-02 4.155719e-02 3.104165e-02 1.973326e-02 1.204725e-02 7.388620e-03 4.337041e-03 2.321949e-03 1.117817e-03 4.415681e-04 1.217031e-04 -1.656616e-05 -4.264101e-05 -3.087306e-05 6.315189e-07 2.610279e-05 4.584276e-05 5.479852e-05 5.668963e-05 5.336143e-05 4.668786e-05 3.973614e-05 3.211530e-05 2.639533e-05 2.101678e-05 1.776991e-05 1.493260e-05 1.360918e-05 1.242237e-05 1.198316e-05 1.136401e-05 1.091786e-05 1.004420e-05 9.075307e-06 7.533026e-06 5.925781e-06 3.703991e-06 1.676796e-06 -9.091651e-07 -2.906026e-06 -5.325152e-06 -6.737070e-06 -8.409602e-06 -8.787873e-06 -9.349130e-06 -8.684380e-06 -8.366895e-06 -7.494658e-06 -7.337217e-06 -7.703970e-06 -8.857870e-06 -1.032903e-05 -8.887762e-06 -7.310665e-06 -6.150458e-06 -5.175911e-06 -5.011728e-06 
2.618094e-04 -9.375851e-04 -2.197517e-03 -5.080115e-03 -1.047411e-02 -6.544328e-03 3.290985e-03 -9.602699e-04 -1.362447e-02 -3.796561e-02 -5.063556e-02 1.205631e-01 5.682125e-01 4.939997e-01 2.771434e-01 2.767128e-01 2.767122e-01 2.767121e-01 2.767124e-01 2.768596e-01 3.881465e-01 4.712091e-01 3.048682e-01 8.829944e-02 3.169015e-02 2.026018e-02 1.297255e-02 7.811062e-03 4.323773e-03 2.586247e-03 1.581691e-03 1.188294e-03 1.007765e-03 9.663436e-04 1.006456e-03 9.854993e-04 1.042761e-03 9.424864e-04 9.460142e-04 7.346970e-04 6.435776e-04 2.978564e-04 7.082455e-05 -4.316313e-04 -8.214538e-04 -1.465640e-03 -1.969223e-03 -2.619115e-03 -3.007879e-03 -3.300388e-03 -3.077898e-03 -2.398199e-03 -8.964582e-04 1.320651e-03 4.424835e-03 8.132218e-03 1.232827e-02 1.603223e-02 1.870020e-02 2.023767e-02 2.114582e-02 2.116991e-02 2.066560e-02 1.967935e-02 1.871579e-02 1.819942e-02 1.758005e-02 1.726392e-02 1.696461e-02 1.674777e-02 1.627195e-02 1.546903e-02 1.376502e-02 1.108954e-02 8.237497e-03 5.937184e-03 4.090764e-03 2.828644e-03 1.970058e-03 1.504021e-03 1.280378e-03 1.200688e-03 1.250098e-03 1.280835e-03 1.409963e-03 1.429255e-03 1.563292e-03 1.537344e-03 1.659381e-03 1.592901e-03 1.705151e-03 1.613928e-03 1.719224e-03 1.619226e-03 1.715429e-03 1.620596e-03 1.700713e-03 1.623647e-03 1.677406e-03 1.630197e-03 1.645556e-03 1.639808e-03 1.604025e-03 1.649649e-03 1.549480e-03 1.651326e-03 1.470898e-03 1.620970e-03 1.334061e-03 1.495232e-03 1.046595e-03 1.122839e-03 3.942855e-04 1.900522e-04 -1.035209e-03 -1.821592e-03 -3.801697e-03 -5.352550e-03 -7.979500e-03 -9.705227e-03 -1.164194e-02 -7.539462e-03 -2.890139e-03 -5.798943e-03 -2.787585e-03 1.018829e-03 2.266887e-03 1.356613e-03 
-6.531950e-04 -5.738007e-03 -1.527436e-02 -3.868245e-02 -4.246206e-02 1.363513e-01 1.801855e-01 1.028440e-01 1.044755e-01 3.578449e-02 3.883328e-02 3.507700e-01 1.116189e+00 9.445521e-01 5.555889e-01 5.545881e-01 5.548957e-01 5.546858e-01 5.547610e-01 5.551890e-01 7.949161e-01 9.604635e-01 6.293861e-01 2.219858e-01 1.106545e-01 9.949243e-02 8.692286e-02 8.718024e-02 7.972818e-02 8.306597e-02 7.903213e-02 8.271834e-02 8.010390e-02 8.301101e-02 8.123239e-02 8.312694e-02 8.202959e-02 8.294568e-02 8.245901e-02 8.249765e-02 8.252831e-02 8.179380e-02 8.220225e-02 8.078651e-02 8.140213e-02 7.939196e-02 8.006100e-02 7.756612e-02 7.822197e-02 7.541006e-02 7.612348e-02 7.321435e-02 7.414164e-02 7.129558e-02 7.249775e-02 6.965137e-02 7.078202e-02 6.757441e-02 7.070256e-02 6.854449e-02 6.828339e-02 7.020050e-02 6.878466e-02 7.079041e-02 6.820718e-02 7.009861e-02 7.158783e-02 7.053939e-02 7.605906e-02 7.625688e-02 8.029266e-02 8.117880e-02 7.971865e-02 8.031036e-02 7.893074e-02 7.961110e-02 7.893434e-02 7.986443e-02 7.969352e-02 8.051864e-02 8.064329e-02 8.115008e-02 8.150738e-02 8.160613e-02 8.220367e-02 8.187964e-02 8.272409e-02 8.201945e-02 8.307846e-02 8.209228e-02 8.327570e-02 8.216390e-02 8.331896e-02 8.228913e-02 8.320843e-02 8.250557e-02 8.294676e-02 8.283088e-02 8.254371e-02 8.326340e-02 8.201881e-02 8.378311e-02 8.140405e-02 8.435136e-02 8.074248e-02 8.490808e-02 8.008177e-02 8.536034e-02 7.945026e-02 8.554864e-02 7.879514e-02 8.516591e-02 7.784306e-02 8.358492e-02 7.582515e-02 7.957232e-02 7.108375e-02 7.116050e-02 6.090790e-02 5.646818e-02 4.598634e-02 8.991365e-02 1.738526e-01 5.943258e-02 -7.750262e-03 -4.880632e-03 4.564357e-03 3.232576e-03 
-2.795615e-03 -1.622950e-02 -5.690765e-02 -9.024308e-02 3.071808e-01 2.292090e+00 1.362268e+00 4.449307e-01 1.043140e+00 6.714261e-01 9.110118e-01 8.905603e-01 1.064079e+00 9.886207e-01 8.661111e-01 8.600349e-01 8.675536e-01 8.625693e-01 8.641475e-01 8.670618e-01 9.369674e-01 9.448322e-01 9.617508e-01 8.669102e-01 7.429227e-01 8.270670e-01 7.604600e-01 8.369114e-01 7.753258e-01 8.408519e-01 7.869796e-01 8.412019e-01 7.962629e-01 8.391123e-01 8.040025e-01 8.358295e-01 8.108568e-01 8.322778e-01 8.171192e-01 8.289536e-01 8.227673e-01 8.261265e-01 8.277253e-01 8.239293e-01 8.318763e-01 8.221979e-01 8.349595e-01 8.202527e-01 8.362733e-01 8.166503e-01 8.343893e-01 8.091399e-01 8.267764e-01 7.944418e-01 8.095026e-01 7.683972e-01 7.771111e-01 7.303584e-01 7.642488e-01 7.349546e-01 7.296364e-01 7.485064e-01 7.250327e-01 7.499008e-01 7.199322e-01 7.333828e-01 7.508644e-01 7.219261e-01 7.847367e-01 7.628333e-01 8.106132e-01 8.105178e-01 8.016762e-01 8.125970e-01 8.095131e-01 8.185418e-01 8.155809e-01 8.226112e-01 8.193208e-01 8.242077e-01 8.208805e-01 8.239831e-01 8.213139e-01 8.228396e-01 8.213744e-01 8.213764e-01 8.212175e-01 8.199032e-01 8.207209e-01 8.188391e-01 8.198019e-01 8.186695e-01 8.183160e-01 8.197160e-01 8.159986e-01 8.219781e-01 8.125863e-01 8.252939e-01 8.081564e-01 8.295126e-01 8.030739e-01 8.343405e-01 7.978594e-01 8.392713e-01 7.930561e-01 8.435456e-01 7.892892e-01 8.464446e-01 7.874568e-01 8.473305e-01 7.884252e-01 8.454621e-01 7.927640e-01 8.400162e-01 8.003297e-01 8.298951e-01 8.089572e-01 8.128407e-01 8.100790e-01 7.820043e-01 7.698385e-01 9.067348e-01 1.764858e+00 1.072910e+00 2.165760e-01 -4.250329e-02 -2.188903e-02 -2.404598e-03 
-1.544378e-02 -4.718657e-02 -8.055087e-02 3.727448e-01 2.532763e+00 4.622915e+00 2.070092e+00 1.208348e+00 1.910405e+00 1.533493e+00 1.818347e+00 1.530392e+00 1.768949e+00 1.558592e+00 1.728222e+00 1.607028e+00 1.724113e+00 1.651391e+00 1.673984e+00 1.677409e+00 1.682373e+00 1.651485e+00 1.471626e+00 1.722179e+00 1.552621e+00 1.789085e+00 1.644443e+00 1.818923e+00 1.703216e+00 1.822533e+00 1.743590e+00 1.813745e+00 1.773166e+00 1.801762e+00 1.796620e+00 1.792537e+00 1.816762e+00 1.789220e+00 1.833896e+00 1.790953e+00 1.846385e+00 1.796646e+00 1.855279e+00 1.807655e+00 1.863918e+00 1.826086e+00 1.875923e+00 1.852208e+00 1.891693e+00 1.882233e+00 1.909055e+00 1.911761e+00 1.925978e+00 1.936714e+00 1.939597e+00 1.951607e+00 1.941855e+00 1.948844e+00 1.962287e+00 1.969748e+00 1.949271e+00 1.986632e+00 1.951458e+00 1.981894e+00 1.939055e+00 1.958204e+00 1.954045e+00 1.926698e+00 1.967754e+00 1.930698e+00 1.970784e+00 1.932646e+00 1.940479e+00 1.897363e+00 1.931747e+00 1.875749e+00 1.918687e+00 1.857571e+00 1.900696e+00 1.843147e+00 1.880592e+00 1.835470e+00 1.861546e+00 1.835889e+00 1.844558e+00 1.842083e+00 1.826792e+00 1.848888e+00 1.806767e+00 1.855381e+00 1.788281e+00 1.863497e+00 1.775464e+00 1.873079e+00 1.768710e+00 1.879635e+00 1.765208e+00 1.879228e+00 1.765371e+00 1.872610e+00 1.771631e+00 1.861632e+00 1.785235e+00 1.847405e+00 1.804024e+00 1.828602e+00 1.824144e+00 1.807017e+00 1.845561e+00 1.787647e+00 1.867418e+00 1.773387e+00 1.886529e+00 1.766107e+00 1.899341e+00 1.768948e+00 1.904662e+00 1.789757e+00 1.900657e+00 1.838656e+00 1.856065e+00 2.066050e+00 2.606841e+00 3.439358e+00 2.094048e+00 1.058368e-01 -8.513624e-02 -2.524245e-02 
-1.808333e-02 -4.353243e-02 2.387550e-02 8.929744e-01 3.230827e+00 1.230181e+00 2.294118e-02 1.278195e+00 6.057743e-01 8.935223e-01 6.227248e-01 4.760157e-01 4.067657e-01 1.981613e-01 4.696107e-01 2.558107e-01 3.711542e-01 2.282243e-01 3.785072e-01 3.911209e-01 1.781966e-01 6.025372e-01 4.541047e-01 7.727629e-01 7.267392e-01 8.633302e-01 8.069510e-01 8.784746e-01 8.610140e-01 8.751278e-01 8.991879e-01 8.637155e-01 9.260786e-01 8.529078e-01 9.456448e-01 8.485796e-01 9.607541e-01 8.535551e-01 9.714827e-01 8.654050e-01 9.755849e-01 8.817544e-01 9.750088e-01 9.042485e-01 9.752682e-01 9.364249e-01 9.826858e-01 9.803901e-01 9.998644e-01 1.034176e+00 1.027654e+00 1.097425e+00 1.070468e+00 1.173291e+00 1.135175e+00 1.264749e+00 1.223075e+00 1.356858e+00 1.284668e+00 1.376684e+00 1.350724e+00 1.361446e+00 1.366242e+00 1.350112e+00 1.356388e+00 1.348495e+00 1.293054e+00 1.324275e+00 1.219703e+00 1.225667e+00 1.164584e+00 1.113525e+00 1.151951e+00 1.055568e+00 1.121683e+00 1.009041e+00 1.090387e+00 9.743403e-01 1.057949e+00 9.520663e-01 1.027067e+00 9.444333e-01 9.995520e-01 9.511684e-01 9.750566e-01 9.672565e-01 9.489132e-01 9.839900e-01 9.193313e-01 9.989523e-01 8.926795e-01 1.013947e+00 8.759991e-01 1.027874e+00 8.707998e-01 1.033642e+00 8.735499e-01 1.025425e+00 8.848393e-01 1.004692e+00 9.076298e-01 9.750420e-01 9.426045e-01 9.395184e-01 9.850081e-01 8.980665e-01 1.027171e+00 8.554543e-01 1.066586e+00 8.212162e-01 1.099324e+00 8.016693e-01 1.118106e+00 8.010492e-01 1.115580e+00 8.242642e-01 1.089668e+00 8.813740e-01 1.044357e+00 9.864682e-01 9.961099e-01 1.133708e+00 2.453199e-01 3.144378e+00 2.562764e+00 4.990936e-02 -1.272462e-01 -3.792378e-02 
-3.127449e-03 -1.851469e-02 1.532644e-02 3.774479e-01 9.864990e-01 -2.082283e+00 -1.382472e+00 3.095838e-01 -8.067218e-01 -2.841815e-01 -6.456905e-01 -1.203082e-01 -5.040878e-01 -3.585594e-01 -1.044568e+00 -8.146394e-01 -8.857136e-01 -7.778733e-01 -8.889756e-01 -8.602172e-01 -4.591339e-01 -5.800431e-01 -2.427582e-01 -4.761378e-01 -4.703950e-01 -5.301101e-01 -4.649239e-01 -5.313898e-01 -4.568947e-01 -5.339038e-01 -4.510641e-01 -5.352371e-01 -4.480110e-01 -5.343730e-01 -4.475153e-01 -5.303901e-01 -4.489302e-01 -5.229983e-01 -4.522076e-01 -5.135262e-01 -4.579154e-01 -5.031617e-01 -4.650887e-01 -4.915258e-01 -4.714666e-01 -4.772143e-01 -4.743243e-01 -4.586655e-01 -4.717009e-01 -4.347286e-01 -4.611743e-01 -4.023682e-01 -4.373781e-01 -3.558473e-01 -3.923799e-01 -2.885899e-01 -3.191322e-01 -2.087650e-01 -2.829242e-01 -2.075431e-01 -2.176922e-01 -2.361460e-01 -2.076750e-01 -2.432282e-01 -2.080733e-01 -2.302006e-01 -2.765712e-01 -2.303841e-01 -3.536230e-01 -3.211764e-01 -4.033678e-01 -4.177425e-01 -3.876587e-01 -4.385934e-01 -4.032547e-01 -4.589115e-01 -4.165909e-01 -4.723298e-01 -4.284539e-01 -4.788638e-01 -4.384832e-01 -4.784712e-01 -4.471401e-01 -4.720328e-01 -4.552099e-01 -4.619120e-01 -4.644454e-01 -4.516474e-01 -4.752008e-01 -4.426196e-01 -4.847917e-01 -4.347716e-01 -4.901917e-01 -4.289917e-01 -4.902980e-01 -4.280703e-01 -4.859139e-01 -4.341453e-01 -4.767245e-01 -4.466166e-01 -4.619053e-01 -4.638708e-01 -4.417197e-01 -4.841883e-01 -4.185842e-01 -5.066424e-01 -3.961922e-01 -5.284431e-01 -3.767281e-01 -5.450599e-01 -3.630622e-01 -5.531226e-01 -3.593334e-01 -5.504125e-01 -3.698834e-01 -5.358693e-01 -3.978633e-01 -5.109097e-01 -4.471597e-01 -4.910749e-01 -5.308969e-01 -6.684954e-01 -1.644442e+00 5.213531e-01 8.840974e-01 3.162248e-02 -3.208664e-02 -5.709067e-03 
3.552145e-03 4.044840e-04 4.304641e-03 4.596895e-02 1.285544e-02 -9.975736e-01 -6.585652e-01 -1.064846e-01 -4.435253e-01 -2.699938e-01 -3.837726e-01 -4.872661e-02 3.678085e-01 1.224346e+00 1.700094e+00 1.708664e+00 1.473127e+00 1.672191e+00 1.469806e+00 1.572291e+00 1.349575e+00 2.831784e-01 -1.221608e-01 -3.553877e-01 -3.386841e-01 -3.750117e-01 -3.379231e-01 -3.750498e-01 -3.414331e-01 -3.748815e-01 -3.438901e-01 -3.732372e-01 -3.460739e-01 -3.709554e-01 -3.484190e-01 -3.684486e-01 -3.510211e-01 -3.659572e-01 -3.538358e-01 -3.636557e-01 -3.567562e-01 -3.616763e-01 -3.596433e-01 -3.600810e-01 -3.623319e-01 -3.587777e-01 -3.645709e-01 -3.573922e-01 -3.658847e-01 -3.551448e-01 -3.654215e-01 -3.508915e-01 -3.620898e-01 -3.435236e-01 -3.539819e-01 -3.287266e-01 -3.353325e-01 -3.076263e-01 -3.277741e-01 -3.110944e-01 -3.115823e-01 -3.180004e-01 -3.069170e-01 -3.212890e-01 -3.082510e-01 -3.130003e-01 -3.233905e-01 -3.099855e-01 -3.404157e-01 -3.284383e-01 -3.549087e-01 -3.593934e-01 -3.554671e-01 -3.651304e-01 -3.596280e-01 -3.652307e-01 -3.563686e-01 -3.616853e-01 -3.538906e-01 -3.596368e-01 -3.529922e-01 -3.581924e-01 -3.528765e-01 -3.567107e-01 -3.531356e-01 -3.550177e-01 -3.535946e-01 -3.532421e-01 -3.541262e-01 -3.516336e-01 -3.545517e-01 -3.504602e-01 -3.546366e-01 -3.499598e-01 -3.541408e-01 -3.503041e-01 -3.528847e-01 -3.515721e-01 -3.507945e-01 -3.537430e-01 -3.479175e-01 -3.566868e-01 -3.444363e-01 -3.601609e-01 -3.406721e-01 -3.638204e-01 -3.370822e-01 -3.672269e-01 -3.342505e-01 -3.698933e-01 -3.328853e-01 -3.713776e-01 -3.338210e-01 -3.714861e-01 -3.380830e-01 -3.707176e-01 -3.469892e-01 -3.712272e-01 -3.619862e-01 -3.799198e-01 -3.949212e-01 -5.175998e-01 -7.830153e-01 -2.065917e-01 1.987957e-02 8.966048e-03 5.966990e-03 5.379007e-03 
