# vtk DataFile Version 2.0
Comment goes here
ASCII

DATASET STRUCTURED_POINTS
FIELD FieldData 1
TIME 1 1 double
0.60000000
DIMENSIONS    128   16   1

ORIGIN    0.000   0.000   0.000
SPACING   0.0078125 0.015625   1.000

POINT_DATA   2048
SCALARS Omega double
LOOKUP_TABLE default

1.912893e-05 4.225662e-06 -5.896509e-06 -1.390060e-05 -1.053763e-05 2.601316e-05 -1.592602e-05 -2.273426e-05 2.191671e-06 -1.329336e-05 -4.352998e-06 -3.224781e-05 -1.518388e-05 -1.116709e-05 -6.697837e-05 2.827656e-05 -1.174016e-04 4.011371e-05 -7.387661e-05 -9.831559e-05 2.780762e-04 4.235662e-05 -2.981673e-05 -6.917379e-05 -1.854947e-05 -7.626623e-05 -1.646058e-05 -8.116060e-05 -1.635858e-05 -7.814431e-05 -2.552301e-05 -7.054782e-05 -4.434781e-05 -5.775656e-05 -6.957171e-05 -4.048017e-05 -9.668239e-05 -2.002808e-05 -1.160459e-04 9.151193e-06 -1.089431e-04 6.056655e-05 -6.684148e-05 1.121209e-04 -6.656093e-05 2.132779e-06 -3.784885e-04 -6.405516e-04 -1.425839e-03 -2.168774e-03 -3.308269e-03 -4.197992e-03 -5.367186e-03 -8.072378e-03 -1.579211e-02 -2.027875e-02 2.238321e-02 1.371584e-02 -6.228237e-02 5.250940e-02 8.040421e-02 -1.373167e-02 -2.061064e-02 -7.219742e-03 1.049836e-01 3.498513e-02 5.752085e-02 1.142840e-01 2.147567e-03 -4.897388e-03 -8.085086e-02 -4.562898e-02 2.108272e-02 -2.809060e-02 -2.323274e-02 -7.170558e-03 9.040546e-04 2.418113e-03 2.984960e-03 2.159259e-03 1.800507e-03 9.306904e-04 6.912918e-04 2.687956e-04 2.636921e-04 1.468202e-04 1.981761e-04 1.923327e-04 1.986657e-04 2.195711e-04 1.708762e-04 2.029360e-04 1.199631e-04 1.673435e-04 6.925437e-05 1.343912e-04 3.184153e-05 1.108013e-04 1.039105e-05 9.470891e-05 1.618903e-06 8.165272e-05 2.205607e-07 6.791123e-05 1.340731e-06 5.189929e-05 1.590485e-06 3.374106e-05 -7.887909e-07 1.436238e-05 -6.491905e-06 -4.703973e-06 -1.403712e-05 -1.968781e-05 -1.881486e-05 -2.540325e-05 -1.674788e-05 -1.980931e-05 -6.602825e-06 -3.459403e-06 4.362487e-06 1.265322e-05 3.576512e-05 5.591743e-05 6.189365e-05 5.434335e-05 4.814372e-05 3.495386e-05 
-5.913831e-03 -6.503417e-03 2.105440e-03 2.806911e-02 -1.022572e-01 -8.722298e-01 6.363192e-02 2.231891e-01 -2.180928e-01 -1.850884e-02 -1.117449e-01 2.093221e-01 -1.840358e-02 -3.020263e-01 -3.245930e-01 -3.354827e-02 -4.117210e-01 -1.610433e-01 -2.742670e-01 -4.040356e-01 -1.811402e-01 8.246083e-02 1.214043e-01 -6.048369e-02 -6.966612e-02 -9.300390e-02 -6.463845e-02 -9.096087e-02 -6.297004e-02 -9.183421e-02 -6.269027e-02 -9.216869e-02 -6.298434e-02 -9.158606e-02 -6.368807e-02 -9.008304e-02 -6.470778e-02 -8.783677e-02 -6.593489e-02 -8.493746e-02 -6.731095e-02 -8.141909e-02 -6.881140e-02 -7.736356e-02 -7.035983e-02 -7.294371e-02 -7.173240e-02 -6.828469e-02 -7.239910e-02 -6.309860e-02 -7.069758e-02 -5.612884e-02 -6.621542e-02 -5.890266e-02 -7.685255e-02 4.998064e-02 1.000932e+00 1.586458e+00 4.276917e-01 1.098834e+00 1.133258e+00 6.844177e-01 1.400446e+00 5.425399e-01 1.550744e+00 9.066017e-01 1.074953e+00 1.575009e+00 5.073485e-01 1.592599e+00 4.274246e-01 9.286926e-01 1.667234e+00 2.711504e-01 -8.462026e-02 -1.052461e-01 -5.683806e-02 -7.122457e-02 -5.262681e-02 -7.326193e-02 -5.821379e-02 -7.599023e-02 -6.395052e-02 -7.707793e-02 -6.859984e-02 -7.700103e-02 -7.199962e-02 -7.655160e-02 -7.423718e-02 -7.639484e-02 -7.535661e-02 -7.685941e-02 -7.545768e-02 -7.805707e-02 -7.471470e-02 -7.995010e-02 -7.335519e-02 -8.237345e-02 -7.154582e-02 -8.510378e-02 -6.949448e-02 -8.782191e-02 -6.750990e-02 -9.009483e-02 -6.597888e-02 -9.139143e-02 -6.534066e-02 -9.113314e-02 -6.605191e-02 -8.880821e-02 -6.849233e-02 -8.395809e-02 -7.279812e-02 -7.610668e-02 -7.861417e-02 -6.450374e-02 -8.476594e-02 -4.734403e-02 -8.890067e-02 -1.856004e-02 -9.172931e-02 1.390051e-01 -1.132902e-01 -3.111696e-01 -5.300494e-02 -2.586725e-02 -1.604320e-02 -7.803061e-03 
-8.201735e-03 -4.999416e-03 6.371609e-02 3.422470e-01 -5.866963e-02 -2.641653e+00 4.709039e-01 8.750938e-01 -3.546092e-01 1.622717e-01 -1.300606e-01 2.844060e-01 -1.009481e+00 -7.462674e-02 -3.669519e-01 -7.946873e-02 -3.578462e-01 -2.906131e-02 -3.540480e-01 -6.000795e-02 -3.370356e-01 -7.907992e-01 3.472346e-02 4.483531e-03 -4.677493e-02 -4.476024e-02 -3.416580e-02 -4.879520e-02 -1.714800e-02 -5.788536e-02 -7.091434e-03 -6.939813e-02 7.825537e-04 -7.415473e-02 9.707753e-03 -7.386017e-02 1.335885e-02 -7.309161e-02 1.007564e-02 -7.097129e-02 2.012505e-03 -6.512802e-02 -8.231578e-03 -5.444018e-02 -1.796026e-02 -3.801640e-02 -2.627585e-02 -2.396883e-02 -4.412636e-02 -2.617529e-02 -7.304481e-02 -4.058473e-02 -1.032097e-01 -7.215056e-02 -1.172111e-01 1.210267e-01 1.426729e+00 2.320227e+00 1.692964e-01 6.222443e-01 5.113706e-01 4.933624e-02 1.516937e+00 -3.207281e-01 8.712936e-01 4.624153e-02 1.965850e-01 7.888387e-01 -3.349531e-01 1.784280e+00 -5.117544e-02 1.343820e+00 2.661882e+00 3.847833e-01 -1.439616e-01 -1.933169e-01 -6.721280e-02 -1.081352e-01 -2.609622e-02 -8.205267e-02 -1.555851e-02 -6.271868e-02 -1.867828e-02 -4.690598e-02 -2.829342e-02 -3.243577e-02 -3.743912e-02 -1.930547e-02 -4.441239e-02 -1.217971e-02 -5.056522e-02 -1.256005e-02 -5.160649e-02 -1.617463e-02 -4.555105e-02 -2.473204e-02 -3.511829e-02 -3.606541e-02 -1.758538e-02 -4.844107e-02 7.909663e-07 -6.852315e-02 1.126737e-02 -9.047629e-02 2.273760e-02 -1.028273e-01 3.548419e-02 -1.045660e-01 4.106983e-02 -9.883245e-02 3.384174e-02 -8.349543e-02 1.308792e-02 -5.650568e-02 -2.145547e-02 -1.384977e-02 -6.504156e-02 5.196258e-02 -1.183009e-01 1.600113e-01 -2.070160e-01 7.330556e-01 -7.720256e-01 -7.812929e-01 7.938522e-01 1.176925e-01 -3.157095e-02 -1.740908e-02 
-6.718234e-03 -6.859593e-03 1.436301e-01 8.817329e-01 7.475164e-01 -1.851457e+00 5.386164e-02 3.903440e-01 -1.653321e-02 1.043700e-01 1.753445e-02 -2.349093e-02 5.972682e-01 2.476393e-01 2.938632e-01 2.418559e-01 3.134869e-01 2.379753e-01 2.806115e-01 2.996165e-01 2.049590e-01 6.824640e-01 -8.168799e-02 1.573354e-01 -2.333658e-02 1.522697e-01 -7.860133e-03 1.203764e-01 1.653414e-02 8.892039e-02 3.505547e-02 5.173754e-02 5.480496e-02 3.080295e-02 8.244480e-02 1.986719e-02 9.783655e-02 5.993529e-03 9.482641e-02 -8.166267e-03 7.907559e-02 -1.585135e-02 5.783312e-02 -1.370003e-02 3.788425e-02 1.093272e-03 1.882916e-02 3.819012e-03 -3.706060e-02 -4.943168e-02 -1.459410e-01 -1.544748e-01 -2.913237e-01 -3.153590e-01 -5.106740e-01 -6.954993e-01 -1.638921e+00 -2.108608e+00 -1.261881e+00 -1.521188e+00 -1.463924e+00 -1.340428e+00 -1.985016e+00 -1.192601e+00 -1.705929e+00 -1.371684e+00 -1.408282e+00 -1.763516e+00 -1.157882e+00 -2.146827e+00 -1.330393e+00 -1.707258e+00 -2.276497e+00 -9.857761e-01 -4.970841e-01 -3.756388e-01 -2.396691e-01 -2.298800e-01 -1.056621e-01 -1.210507e-01 -3.060147e-02 -4.287166e-02 -1.158341e-03 1.113339e-02 2.042772e-03 5.385243e-02 -1.356002e-03 9.030218e-02 -6.502871e-03 1.110100e-01 -1.726594e-02 1.138347e-01 -2.014352e-02 1.121456e-01 -7.805652e-03 1.005575e-01 1.357924e-02 8.410528e-02 5.330389e-02 6.615466e-02 9.213399e-02 2.477449e-02 1.134989e-01 -2.590568e-02 1.392473e-01 -5.579274e-02 1.754928e-01 -6.575996e-02 2.005120e-01 -6.823099e-02 2.002579e-01 -5.946987e-02 1.738135e-01 -3.546864e-02 1.189148e-01 1.239341e-02 4.281300e-02 9.427448e-02 -7.482248e-02 2.104345e-01 -3.129521e-01 6.289795e-01 -2.100130e+00 -1.329047e-01 2.755680e+00 4.756607e-01 -2.054806e-02 -2.058308e-02 
-1.868215e-03 1.864922e-03 1.308618e-01 7.723134e-01 1.365099e+00 1.667969e+00 -6.145397e-01 -7.023382e-01 4.958467e-01 -2.411058e-02 4.278813e-01 6.381154e-02 3.027490e-01 1.320354e-01 3.944966e-01 1.760485e-01 3.542898e-01 2.147399e-01 3.062768e-01 2.770404e-01 2.390995e-01 1.968710e-01 1.875790e-01 3.913976e-01 1.409667e-01 3.315624e-01 1.320368e-01 3.047521e-01 1.412355e-01 2.803687e-01 1.502160e-01 2.518173e-01 1.631639e-01 2.330379e-01 1.835946e-01 2.193347e-01 1.967954e-01 2.020080e-01 1.978279e-01 1.828700e-01 1.902393e-01 1.663906e-01 1.788134e-01 1.547469e-01 1.676478e-01 1.497040e-01 1.549645e-01 1.334970e-01 1.121845e-01 7.447769e-02 2.365383e-02 -2.751334e-02 -1.097604e-01 -1.923369e-01 -3.552553e-01 -5.207078e-01 -6.480208e-01 -9.152119e-01 -6.091294e-01 -6.868541e-01 -7.980224e-01 -4.454952e-01 -8.753390e-01 -4.047135e-01 -7.734236e-01 -6.668654e-01 -5.867348e-01 -8.087280e-01 -3.916855e-01 -8.755992e-01 -2.340840e-01 -8.003252e-01 -8.140120e-01 -4.676795e-01 -4.145910e-01 -2.123968e-01 -1.370354e-01 -3.829366e-02 7.965812e-03 6.693074e-02 8.641530e-02 1.348581e-01 1.259643e-01 1.778297e-01 1.427488e-01 2.091865e-01 1.508350e-01 2.349434e-01 1.537752e-01 2.504964e-01 1.491221e-01 2.553742e-01 1.467941e-01 2.591243e-01 1.526756e-01 2.577514e-01 1.634480e-01 2.540483e-01 1.862135e-01 2.495105e-01 2.083842e-01 2.279102e-01 2.194639e-01 1.976834e-01 2.356633e-01 1.780755e-01 2.623845e-01 1.669175e-01 2.858117e-01 1.544459e-01 2.971890e-01 1.424666e-01 2.963054e-01 1.335250e-01 2.814377e-01 1.340361e-01 2.574585e-01 1.520836e-01 2.143292e-01 1.890529e-01 1.519971e-01 3.289972e-02 -1.099078e+00 1.140435e+00 2.046181e+00 2.075458e-01 -5.898850e-02 -2.093217e-02 
-4.047206e-03 -7.639865e-03 -9.018104e-03 1.179863e-01 7.098247e-01 1.994826e+00 -2.121147e-01 -4.885173e-01 3.963555e-01 6.419476e-02 4.398475e-01 3.122141e-01 -2.740426e-01 -1.044629e-01 5.382571e-02 4.465859e-02 5.173282e-02 4.860060e-02 4.700319e-02 5.412325e-02 -1.107184e-01 -2.002093e-01 3.080603e-01 2.830511e-01 1.943239e-01 2.586075e-01 2.042288e-01 2.649224e-01 2.057780e-01 2.634803e-01 2.054146e-01 2.599396e-01 2.060477e-01 2.557961e-01 2.079328e-01 2.510061e-01 2.100334e-01 2.453248e-01 2.116559e-01 2.387467e-01 2.126217e-01 2.312065e-01 2.128163e-01 2.224228e-01 2.117564e-01 2.118637e-01 2.080027e-01 1.976482e-01 1.983598e-01 1.773141e-01 1.802636e-01 1.507578e-01 1.502913e-01 1.159298e-01 1.611051e-01 4.889204e-01 2.566951e+00 3.562653e+00 8.635739e-01 1.243973e+00 1.136913e+00 7.230967e-01 2.185083e+00 3.633627e-01 1.380756e+00 8.700515e-01 9.589389e-01 1.324224e+00 4.964268e-01 2.421857e+00 4.444327e-01 2.162323e+00 4.252339e+00 1.036334e+00 5.383042e-02 1.076461e-01 1.310355e-01 1.925838e-01 1.735122e-01 2.139126e-01 1.923636e-01 2.253961e-01 2.053294e-01 2.311378e-01 2.142604e-01 2.341361e-01 2.202596e-01 2.361238e-01 2.237465e-01 2.379649e-01 2.248330e-01 2.401778e-01 2.243641e-01 2.433393e-01 2.230943e-01 2.470876e-01 2.214161e-01 2.511623e-01 2.200483e-01 2.551745e-01 2.188142e-01 2.578080e-01 2.177471e-01 2.587338e-01 2.181513e-01 2.580102e-01 2.208700e-01 2.547512e-01 2.258938e-01 2.479912e-01 2.333663e-01 2.376286e-01 2.437273e-01 2.242621e-01 2.576912e-01 2.101585e-01 2.781538e-01 2.008638e-01 3.137268e-01 2.067903e-01 4.005259e-01 -1.113908e-02 3.071402e-01 8.533673e-01 2.610091e-01 -3.773746e-02 -3.438813e-02 -1.038959e-02 
-6.661509e-03 -3.248659e-03 -4.933257e-03 -6.189910e-03 4.286310e-02 2.045727e-01 8.367593e-02 1.654867e-02 8.229493e-02 9.430185e-02 2.662378e-01 5.458189e-01 -2.001078e-01 -3.070361e-01 4.400486e-03 4.511072e-03 4.803524e-03 4.667806e-03 4.615402e-03 4.649019e-03 -1.452542e-01 -8.346446e-02 2.871266e-01 5.962476e-02 2.310148e-02 4.783903e-02 5.604349e-02 6.677384e-02 6.422960e-02 6.989910e-02 6.547395e-02 6.969600e-02 6.526334e-02 6.876783e-02 6.491378e-02 6.779002e-02 6.466824e-02 6.684510e-02 6.444144e-02 6.583230e-02 6.405560e-02 6.456158e-02 6.325409e-02 6.272222e-02 6.162891e-02 5.984053e-02 5.864411e-02 5.549824e-02 5.419526e-02 5.046128e-02 5.059730e-02 4.980472e-02 5.579737e-02 6.478861e-02 1.075206e-01 3.060955e-01 1.229008e+00 1.790975e+00 6.619800e-01 9.467631e-01 1.145589e+00 5.980255e-01 1.105725e+00 5.224239e-01 1.157108e+00 1.124699e+00 1.026212e+00 1.122000e+00 6.360889e-01 1.067540e+00 2.276431e-02 1.050243e+00 1.895014e+00 4.094820e-01 2.634466e-02 4.478905e-02 5.932038e-02 6.588422e-02 6.220587e-02 6.504977e-02 6.309640e-02 6.555591e-02 6.423546e-02 6.583849e-02 6.494505e-02 6.583378e-02 6.530986e-02 6.572971e-02 6.546545e-02 6.567331e-02 6.548619e-02 6.572504e-02 6.540767e-02 6.589614e-02 6.525052e-02 6.617330e-02 6.503392e-02 6.653248e-02 6.477331e-02 6.694320e-02 6.449107e-02 6.736227e-02 6.422410e-02 6.773540e-02 6.402442e-02 6.800201e-02 6.396070e-02 6.811175e-02 6.413321e-02 6.807256e-02 6.472860e-02 6.806015e-02 6.617425e-02 6.867256e-02 6.947444e-02 7.137565e-02 7.667162e-02 7.869868e-02 9.014739e-02 9.207756e-02 1.142775e-01 1.121925e-01 1.431709e-01 8.137406e-02 -1.486231e-02 -2.711468e-02 -1.678650e-02 -1.051287e-02 
-6.107050e-03 -4.502906e-03 -3.449781e-03 -4.359973e-03 -5.080934e-03 1.857970e-03 5.224710e-03 4.405138e-03 1.399576e-02 3.750965e-02 1.196762e-01 2.800333e-01 -1.144852e-01 -1.543169e-01 1.228734e-03 1.472854e-03 1.473337e-03 1.473306e-03 1.473094e-03 1.367249e-03 -6.383719e-02 -2.832097e-02 1.087640e-01 -2.433600e-02 -3.599605e-02 -2.137437e-02 -1.183751e-02 -6.945668e-03 -4.673363e-03 -3.283284e-03 -2.827360e-03 -2.488888e-03 -2.560538e-03 -2.538501e-03 -2.703638e-03 -2.766258e-03 -2.913305e-03 -3.015687e-03 -3.146673e-03 -3.308493e-03 -3.470901e-03 -3.746224e-03 -4.025443e-03 -4.508835e-03 -5.031590e-03 -5.836517e-03 -6.688119e-03 -7.754725e-03 -8.625696e-03 -9.159062e-03 -8.543944e-03 -6.026317e-03 -5.525150e-04 7.720472e-03 1.804948e-02 3.907012e-02 1.088768e-01 1.808658e-01 1.375571e-01 1.159614e-01 1.306790e-01 1.058299e-01 1.247692e-01 6.011786e-02 6.901016e-02 8.835653e-02 6.625033e-02 8.079314e-02 5.691790e-02 8.826000e-02 5.199125e-02 8.162869e-02 1.011784e-01 1.105367e-02 -2.459098e-03 1.669970e-03 6.813139e-05 -2.090418e-03 -3.395662e-03 -3.447356e-03 -3.352982e-03 -3.019611e-03 -2.839299e-03 -2.676797e-03 -2.626189e-03 -2.633203e-03 -2.654088e-03 -2.730888e-03 -2.753582e-03 -2.838775e-03 -2.839375e-03 -2.912551e-03 -2.894147e-03 -2.950738e-03 -2.924280e-03 -2.961825e-03 -2.939307e-03 -2.953741e-03 -2.946911e-03 -2.932394e-03 -2.952148e-03 -2.902001e-03 -2.957411e-03 -2.864941e-03 -2.961356e-03 -2.819935e-03 -2.955597e-03 -2.756183e-03 -2.913841e-03 -2.633174e-03 -2.757294e-03 -2.325270e-03 -2.275372e-03 -1.518783e-03 -1.014629e-03 3.705931e-04 1.693378e-03 3.897229e-03 5.843312e-03 7.779444e-03 8.778038e-03 1.013705e-02 9.118002e-03 -2.669267e-03 -9.000175e-03 -8.389888e-03 -7.627548e-03 -7.052772e-03 
-4.469476e-06 -8.900370e-07 2.181021e-06 3.810663e-06 4.787670e-06 5.112424e-06 5.368594e-06 5.865876e-06 6.301187e-06 7.907453e-06 1.040593e-05 -3.593149e-06 1.103155e-04 1.301997e-04 1.987192e-07 2.904524e-10 1.932483e-11 -4.935053e-11 -1.187196e-08 -7.096998e-06 -4.204054e-03 1.103254e-03 2.699622e-04 4.822618e-07 -3.689148e-05 -4.424704e-05 -4.199226e-05 -4.150651e-05 -4.061900e-05 -4.069506e-05 -4.328500e-05 -4.731297e-05 -5.514329e-05 -6.566757e-05 -8.110170e-05 -1.027010e-04 -1.312614e-04 -1.728033e-04 -2.257672e-04 -3.037242e-04 -4.035632e-04 -5.496872e-04 -7.410644e-04 -1.013946e-03 -1.370695e-03 -1.844246e-03 -2.419634e-03 -3.067493e-03 -3.687579e-03 -4.077226e-03 -3.957758e-03 -2.876313e-03 -4.279438e-04 3.627481e-03 8.704441e-03 1.372311e-02 1.959022e-02 2.587065e-02 2.822899e-02 2.900088e-02 3.063950e-02 2.974449e-02 2.842765e-02 2.327166e-02 2.082568e-02 2.095169e-02 1.901478e-02 1.967557e-02 1.868134e-02 2.010237e-02 1.920668e-02 1.778938e-02 1.425111e-02 8.694669e-03 6.770660e-03 4.288867e-03 2.019808e-03 6.357649e-04 3.982669e-05 -5.568175e-05 1.932246e-05 1.814754e-04 2.965701e-04 3.750592e-04 3.884771e-04 3.685150e-04 3.234825e-04 2.696871e-04 2.192148e-04 1.705330e-04 1.342028e-04 1.000406e-04 7.820883e-05 5.661206e-05 4.504468e-05 3.230605e-05 2.708103e-05 1.992998e-05 1.801573e-05 1.384973e-05 1.308443e-05 1.007024e-05 9.184300e-06 6.388854e-06 5.030507e-06 2.338385e-06 7.010332e-07 -1.743784e-06 -3.472732e-06 -5.585333e-06 -7.253003e-06 -8.853123e-06 -1.019462e-05 -1.098101e-05 -1.173309e-05 -1.150270e-05 -1.172398e-05 -1.081017e-05 -1.143122e-05 -1.119041e-05 -1.390953e-05 -1.544926e-05 -2.026948e-05 -2.123923e-05 -1.981323e-05 -1.851220e-05 -1.376677e-05 -9.705163e-06 
6.096892e-03 4.501820e-03 3.456232e-03 4.370563e-03 5.093202e-03 -1.848508e-03 -5.210823e-03 -4.392241e-03 -1.398434e-02 -3.749693e-02 -1.196631e-01 -2.800309e-01 1.146917e-01 1.544154e-01 -1.228617e-03 -1.472854e-03 -1.473336e-03 -1.473302e-03 -1.473118e-03 -1.381767e-03 5.524828e-02 2.998169e-02 -1.085202e-01 2.433431e-02 3.594179e-02 2.129466e-02 1.175041e-02 6.855254e-03 4.578379e-03 3.184521e-03 2.718427e-03 2.365480e-03 2.417445e-03 2.362623e-03 2.492955e-03 2.492766e-03 2.576507e-03 2.565736e-03 2.577893e-03 2.540161e-03 2.475578e-03 2.395326e-03 2.236011e-03 2.074993e-03 1.771974e-03 1.461106e-03 9.449884e-04 4.273386e-04 -3.015529e-04 -9.305784e-04 -1.622706e-03 -1.948483e-03 -2.019975e-03 -1.424928e-03 -4.224171e-04 1.003809e-03 2.460905e-03 4.092302e-03 5.369065e-03 6.571085e-03 7.332845e-03 7.557704e-03 7.531645e-03 7.173228e-03 7.143732e-03 7.228347e-03 7.593682e-03 8.302120e-03 8.805234e-03 9.538296e-03 1.000868e-02 1.004942e-02 9.453647e-03 8.300124e-03 7.086571e-03 5.657736e-03 4.625180e-03 3.869875e-03 3.484557e-03 3.281448e-03 3.225766e-03 3.225123e-03 3.239218e-03 3.254181e-03 3.242110e-03 3.233845e-03 3.196783e-03 3.180210e-03 3.136490e-03 3.124396e-03 3.083417e-03 3.078036e-03 3.043328e-03 3.041321e-03 3.015927e-03 3.011358e-03 2.999488e-03 2.984295e-03 2.991114e-03 2.955768e-03 2.987292e-03 2.922163e-03 2.984642e-03 2.881148e-03 2.979346e-03 2.830071e-03 2.963236e-03 2.758583e-03 2.910814e-03 2.626801e-03 2.744122e-03 2.310373e-03 2.254214e-03 1.497831e-03 9.897794e-04 -3.928098e-04 -1.716113e-03 -3.915294e-03 -5.860323e-03 -7.793060e-03 -8.794153e-03 -1.015674e-02 -9.157280e-03 2.622633e-03 8.957558e-03 8.349829e-03 7.596437e-03 7.030581e-03 
6.650777e-03 3.251080e-03 4.946468e-03 6.206923e-03 -4.287165e-02 -2.047069e-01 -8.365643e-02 -1.636441e-02 -8.231129e-02 -9.419667e-02 -2.662488e-01 -5.457740e-01 2.001999e-01 3.069537e-01 -4.396349e-03 -4.508359e-03 -4.798121e-03 -4.655136e-03 -4.613245e-03 -4.648230e-03 1.371159e-01 8.679313e-02 -2.868215e-01 -5.961681e-02 -2.341925e-02 -4.795076e-02 -5.636687e-02 -6.695556e-02 -6.451837e-02 -7.017950e-02 -6.572800e-02 -7.012948e-02 -6.553337e-02 -6.943392e-02 -6.530734e-02 -6.879421e-02 -6.535640e-02 -6.833326e-02 -6.568245e-02 -6.804426e-02 -6.623589e-02 -6.792120e-02 -6.698982e-02 -6.800157e-02 -6.797903e-02 -6.840075e-02 -6.932355e-02 -6.930617e-02 -7.117119e-02 -7.084725e-02 -7.348971e-02 -7.282343e-02 -7.579481e-02 -7.452203e-02 -7.719272e-02 -7.498885e-02 -7.672316e-02 -7.355161e-02 -7.618848e-02 -7.245671e-02 -7.244252e-02 -7.262586e-02 -7.033389e-02 -7.116152e-02 -6.778559e-02 -6.847561e-02 -6.776335e-02 -6.490529e-02 -6.779684e-02 -6.391135e-02 -6.631107e-02 -6.389906e-02 -6.351764e-02 -6.489329e-02 -6.460547e-02 -6.593110e-02 -6.547114e-02 -6.658752e-02 -6.605556e-02 -6.679515e-02 -6.628409e-02 -6.664995e-02 -6.627559e-02 -6.636167e-02 -6.617949e-02 -6.610233e-02 -6.607275e-02 -6.595328e-02 -6.596332e-02 -6.593294e-02 -6.582901e-02 -6.602888e-02 -6.564425e-02 -6.622018e-02 -6.539594e-02 -6.648672e-02 -6.508665e-02 -6.680712e-02 -6.473401e-02 -6.715489e-02 -6.437284e-02 -6.749754e-02 -6.405344e-02 -6.779420e-02 -6.383565e-02 -6.799837e-02 -6.379055e-02 -6.807398e-02 -6.401305e-02 -6.803264e-02 -6.467535e-02 -6.804518e-02 -6.618730e-02 -6.869986e-02 -6.953641e-02 -7.144588e-02 -7.674765e-02 -7.879335e-02 -9.019532e-02 -9.216895e-02 -1.142554e-01 -1.123291e-01 -1.431277e-01 -8.141683e-02 1.479095e-02 2.706608e-02 1.675398e-02 1.048856e-02 
4.040273e-03 7.646828e-03 9.031233e-03 -1.180233e-01 -7.101900e-01 -1.996854e+00 2.118682e-01 4.914978e-01 -3.966873e-01 -6.224846e-02 -4.397527e-01 -3.108298e-01 2.740568e-01 1.034594e-01 -5.372289e-02 -4.459953e-02 -5.162827e-02 -4.831817e-02 -4.695760e-02 -5.375309e-02 1.047562e-01 2.062308e-01 -3.117122e-01 -2.829708e-01 -1.977817e-01 -2.590352e-01 -2.066719e-01 -2.659596e-01 -2.065806e-01 -2.657152e-01 -2.051042e-01 -2.640391e-01 -2.047866e-01 -2.612461e-01 -2.061234e-01 -2.581175e-01 -2.098144e-01 -2.552562e-01 -2.155759e-01 -2.525188e-01 -2.225221e-01 -2.496070e-01 -2.299254e-01 -2.466760e-01 -2.375446e-01 -2.441862e-01 -2.453825e-01 -2.430187e-01 -2.537565e-01 -2.434907e-01 -2.612918e-01 -2.436849e-01 -2.651993e-01 -2.410716e-01 -2.625629e-01 -2.317414e-01 -2.483869e-01 -2.132769e-01 -2.462412e-01 -2.184917e-01 -2.279944e-01 -2.344519e-01 -2.170770e-01 -2.374579e-01 -2.136052e-01 -2.256258e-01 -2.285732e-01 -2.057604e-01 -2.436681e-01 -2.026264e-01 -2.416240e-01 -2.166209e-01 -2.249899e-01 -2.372000e-01 -2.407682e-01 -2.501580e-01 -2.461136e-01 -2.540416e-01 -2.473257e-01 -2.536452e-01 -2.464971e-01 -2.508940e-01 -2.446604e-01 -2.476897e-01 -2.427163e-01 -2.454378e-01 -2.408221e-01 -2.445421e-01 -2.386485e-01 -2.451039e-01 -2.361715e-01 -2.470162e-01 -2.330925e-01 -2.496022e-01 -2.293973e-01 -2.527829e-01 -2.256783e-01 -2.560683e-01 -2.217735e-01 -2.584807e-01 -2.181840e-01 -2.599455e-01 -2.159976e-01 -2.601013e-01 -2.157976e-01 -2.583243e-01 -2.181612e-01 -2.541470e-01 -2.234278e-01 -2.470144e-01 -2.315934e-01 -2.367741e-01 -2.430271e-01 -2.244540e-01 -2.585498e-01 -2.117174e-01 -2.796636e-01 -2.028640e-01 -3.148712e-01 -2.090542e-01 -4.011140e-01 7.999949e-03 -3.059285e-01 -8.526088e-01 -2.612055e-01 3.759798e-02 3.435210e-02 1.037645e-02 
1.875860e-03 -1.858548e-03 -1.309128e-01 -7.724829e-01 -1.365561e+00 -1.671503e+00 6.129763e-01 7.043679e-01 -4.969360e-01 2.794108e-02 -4.255307e-01 -6.052495e-02 -3.040456e-01 -1.340647e-01 -3.941066e-01 -1.765706e-01 -3.548341e-01 -2.147541e-01 -3.079838e-01 -2.750067e-01 -2.451756e-01 -1.924391e-01 -1.967342e-01 -3.904071e-01 -1.450116e-01 -3.334072e-01 -1.316115e-01 -3.072874e-01 -1.335938e-01 -2.905014e-01 -1.501434e-01 -2.775464e-01 -1.640114e-01 -2.527539e-01 -1.706671e-01 -2.303522e-01 -1.871176e-01 -2.238017e-01 -2.133825e-01 -2.268239e-01 -2.367897e-01 -2.280195e-01 -2.489723e-01 -2.257718e-01 -2.527515e-01 -2.245056e-01 -2.569004e-01 -2.386704e-01 -2.802971e-01 -2.761639e-01 -3.133542e-01 -3.116894e-01 -3.359906e-01 -3.387991e-01 -3.552498e-01 -3.606968e-01 -3.663920e-01 -3.680893e-01 -3.926865e-01 -3.980759e-01 -4.082647e-01 -4.311095e-01 -4.239207e-01 -4.437929e-01 -4.281880e-01 -4.284784e-01 -4.350644e-01 -4.016312e-01 -4.382906e-01 -3.830848e-01 -4.253745e-01 -3.740664e-01 -3.953674e-01 -3.596803e-01 -3.791490e-01 -3.288972e-01 -3.446849e-01 -3.030626e-01 -3.192412e-01 -2.905128e-01 -2.940692e-01 -2.779430e-01 -2.637447e-01 -2.682651e-01 -2.366956e-01 -2.668586e-01 -2.153159e-01 -2.691323e-01 -1.965210e-01 -2.729416e-01 -1.850727e-01 -2.786889e-01 -1.780275e-01 -2.776501e-01 -1.745273e-01 -2.755962e-01 -1.830564e-01 -2.706353e-01 -1.921349e-01 -2.519820e-01 -2.008696e-01 -2.296862e-01 -2.176244e-01 -2.083510e-01 -2.386320e-01 -1.873738e-01 -2.607474e-01 -1.683618e-01 -2.790074e-01 -1.493220e-01 -2.862911e-01 -1.319902e-01 -2.867514e-01 -1.307802e-01 -2.867802e-01 -1.435007e-01 -2.661432e-01 -1.562393e-01 -2.155005e-01 -1.911245e-01 -1.544083e-01 -3.787606e-02 1.098330e+00 -1.138365e+00 -2.045226e+00 -2.081751e-01 5.885699e-02 2.093958e-02 
6.751096e-03 6.869859e-03 -1.437041e-01 -8.819578e-01 -7.474713e-01 1.851264e+00 -5.541992e-02 -3.950281e-01 1.573046e-02 -1.035812e-01 -1.411881e-02 2.521166e-02 -5.980157e-01 -2.479464e-01 -2.941128e-01 -2.428962e-01 -3.153514e-01 -2.349094e-01 -2.867342e-01 -2.892807e-01 -2.105223e-01 -6.874598e-01 7.753808e-02 -1.557113e-01 2.566867e-02 -1.541234e-01 1.435447e-02 -1.219949e-01 -3.159474e-03 -9.962250e-02 -3.656663e-02 -8.240775e-02 -6.042654e-02 -4.911642e-02 -6.827440e-02 -2.105025e-02 -8.524104e-02 -1.785840e-02 -1.120590e-01 -3.004165e-02 -1.311975e-01 -4.052273e-02 -1.315646e-01 -4.638133e-02 -1.183798e-01 -5.339386e-02 -1.056726e-01 -8.204872e-02 -1.225913e-01 -1.440616e-01 -1.580113e-01 -2.046938e-01 -1.875078e-01 -2.596399e-01 -2.287917e-01 -3.229752e-01 -2.867893e-01 -3.873332e-01 -3.371066e-01 -4.182337e-01 -4.102618e-01 -4.309586e-01 -4.632996e-01 -4.398607e-01 -4.769055e-01 -4.502344e-01 -4.509659e-01 -4.614798e-01 -4.203694e-01 -4.387280e-01 -4.002017e-01 -3.776464e-01 -3.878208e-01 -2.948553e-01 -3.157902e-01 -2.067788e-01 -2.444751e-01 -1.531035e-01 -1.995302e-01 -1.329437e-01 -1.606642e-01 -1.196857e-01 -1.163230e-01 -1.126810e-01 -7.738833e-02 -1.165963e-01 -4.730900e-02 -1.230680e-01 -2.220648e-02 -1.283148e-01 -9.662327e-03 -1.330571e-01 -5.890047e-03 -1.252423e-01 -9.648787e-03 -1.140075e-01 -3.273623e-02 -9.760846e-02 -5.765188e-02 -6.171403e-02 -8.168925e-02 -2.227238e-02 -1.150043e-01 1.251984e-02 -1.500165e-01 4.186242e-02 -1.801196e-01 6.180710e-02 -1.965213e-01 7.368230e-02 -1.880928e-01 7.372784e-02 -1.609408e-01 4.044669e-02 -1.252304e-01 -2.287367e-02 -5.253267e-02 -9.521076e-02 7.609184e-02 -2.073194e-01 3.110221e-01 -6.284674e-01 2.096154e+00 1.338386e-01 -2.754141e+00 -4.765116e-01 2.039627e-02 2.060336e-02 
8.244311e-03 5.012476e-03 -6.375150e-02 -3.423428e-01 5.904978e-02 2.644179e+00 -4.710864e-01 -8.805791e-01 3.547168e-01 -1.644277e-01 1.311589e-01 -2.854830e-01 1.010296e+00 7.358972e-02 3.636662e-01 8.385465e-02 3.529072e-01 3.222382e-02 3.558951e-01 5.518169e-02 3.363074e-01 7.966263e-01 -3.229390e-02 -4.089631e-03 5.152236e-02 4.456580e-02 3.924877e-02 4.918024e-02 2.283328e-02 5.601456e-02 5.808810e-03 6.191412e-02 -4.801652e-03 7.257431e-02 -7.062602e-03 8.023241e-02 -9.767192e-03 7.811720e-02 -1.347061e-02 6.970501e-02 -1.261066e-02 6.112233e-02 -3.972148e-03 5.368396e-02 1.003453e-02 4.577056e-02 2.383951e-02 3.056133e-02 2.635170e-02 3.762055e-03 1.968021e-02 -2.385413e-02 9.717840e-03 -5.312937e-02 -1.304052e-02 -9.328551e-02 -5.630880e-02 -1.454236e-01 -8.115814e-02 -1.497769e-01 -1.347284e-01 -1.358790e-01 -1.680626e-01 -1.325930e-01 -1.769812e-01 -1.537371e-01 -1.483026e-01 -1.822682e-01 -1.171406e-01 -1.716820e-01 -1.052887e-01 -1.212127e-01 -1.158993e-01 -6.022728e-02 -6.669934e-02 -7.709961e-03 -3.203705e-02 1.829533e-02 -1.306498e-02 2.545750e-02 1.417325e-03 2.686768e-02 1.727421e-02 2.518739e-02 3.126527e-02 2.027325e-02 4.200800e-02 1.579235e-02 5.038023e-02 1.341583e-02 5.335935e-02 1.294041e-02 5.193762e-02 1.830666e-02 4.646538e-02 2.610628e-02 3.309988e-02 3.650656e-02 1.819435e-02 5.376940e-02 3.362784e-03 7.174907e-02 -1.382184e-02 8.683486e-02 -2.960076e-02 9.779995e-02 -4.054471e-02 1.022982e-01 -4.267411e-02 9.976280e-02 -3.158736e-02 8.798629e-02 -9.311826e-03 5.879681e-02 1.985818e-02 1.198016e-02 6.301945e-02 -4.966289e-02 1.201343e-01 -1.558261e-01 2.071742e-01 -7.288362e-01 7.695512e-01 7.802253e-01 -7.933615e-01 -1.179136e-01 3.158291e-02 1.746713e-02 
5.953515e-03 6.514014e-03 -2.118431e-03 -2.809799e-02 1.023873e-01 8.732987e-01 -6.352052e-02 -2.247381e-01 2.182495e-01 1.754493e-02 1.117146e-01 -2.100317e-01 1.895289e-02 3.027628e-01 3.218903e-01 3.588388e-02 4.092988e-01 1.609239e-01 2.769448e-01 3.980329e-01 1.835665e-01 -7.855795e-02 -1.197949e-01 6.034350e-02 7.119123e-02 9.306222e-02 6.574910e-02 9.118892e-02 6.340625e-02 9.237267e-02 6.237502e-02 9.316191e-02 6.212146e-02 9.324893e-02 6.275590e-02 9.259072e-02 6.429699e-02 9.125752e-02 6.669533e-02 8.942521e-02 6.984596e-02 8.728785e-02 7.356391e-02 8.500680e-02 7.757498e-02 8.265581e-02 8.140309e-02 8.004999e-02 8.423957e-02 7.669481e-02 8.508583e-02 7.201792e-02 8.308955e-02 6.537520e-02 7.642597e-02 5.309316e-02 6.233736e-02 3.671329e-02 5.363979e-02 4.163813e-02 5.040290e-02 4.985451e-02 4.028535e-02 5.379803e-02 4.567595e-02 5.068757e-02 5.597101e-02 5.018863e-02 7.398057e-02 5.553622e-02 7.632113e-02 6.450838e-02 6.769238e-02 7.741331e-02 7.759534e-02 8.795775e-02 8.197257e-02 8.957274e-02 8.167191e-02 8.766072e-02 8.058961e-02 8.494863e-02 8.010544e-02 8.262618e-02 8.026633e-02 8.094133e-02 8.059852e-02 7.990556e-02 8.068088e-02 7.954598e-02 8.025260e-02 7.987787e-02 7.918628e-02 8.087865e-02 7.745602e-02 8.246545e-02 7.512614e-02 8.449300e-02 7.235334e-02 8.672627e-02 6.941124e-02 8.886674e-02 6.671308e-02 9.055828e-02 6.474406e-02 9.137378e-02 6.400106e-02 9.084964e-02 6.491398e-02 8.849883e-02 6.775992e-02 8.383602e-02 7.254104e-02 7.632324e-02 7.878479e-02 6.512484e-02 8.521455e-02 4.831821e-02 8.940288e-02 1.973806e-02 9.203131e-02 -1.374010e-01 1.129765e-01 3.107190e-01 5.306849e-02 2.596396e-02 1.613412e-02 7.873113e-03 
