# vtk DataFile Version 2.0
Comment goes here
ASCII

DATASET STRUCTURED_POINTS
FIELD FieldData 1
TIME 1 1 double
0.56000000
DIMENSIONS    128   16   1

ORIGIN    0.000   0.000   0.000
SPACING   0.0078125 0.015625   1.000

POINT_DATA   2048
SCALARS Omega double
LOOKUP_TABLE default

1.759761e-05 5.943171e-07 -9.162503e-06 -1.137430e-05 -1.653733e-05 -2.594075e-05 -1.491756e-06 2.104810e-06 -7.365287e-06 -1.056399e-05 -1.513501e-05 2.867504e-07 1.929558e-05 -6.385792e-05 -3.895421e-05 7.868737e-05 -1.787961e-04 1.704191e-04 -1.457037e-04 -1.687214e-05 2.311990e-04 -6.011327e-05 -6.697597e-05 -4.069599e-05 -5.834538e-05 -7.616006e-05 -7.460109e-05 -8.946920e-05 -8.698759e-05 -1.068723e-04 -1.105917e-04 -1.348250e-04 -1.461052e-04 -1.742977e-04 -1.942146e-04 -2.283352e-04 -2.567966e-04 -3.021434e-04 -3.327022e-04 -3.940924e-04 -4.089034e-04 -4.908310e-04 -4.761280e-04 -6.096812e-04 -6.153198e-04 -9.277918e-04 -1.157021e-03 -1.924065e-03 -2.714259e-03 -4.199644e-03 -5.739355e-03 -7.818071e-03 -9.404795e-03 -9.219234e-03 -8.044958e-03 -2.416844e-02 -8.685912e-02 -1.143067e-01 -5.752863e-02 -1.116978e-01 -1.322952e-01 -6.649827e-02 -8.724682e-02 -7.820321e-02 -1.471803e-01 -1.184451e-01 -1.138956e-01 -1.464266e-01 -3.158306e-02 -3.108680e-02 3.230581e-02 1.529707e-02 -7.178607e-02 -2.971492e-02 -4.146317e-03 -5.834736e-04 -6.694571e-04 7.869986e-04 8.161587e-04 6.925806e-04 -1.498323e-04 -4.012373e-04 -8.363388e-04 -7.056959e-04 -7.689270e-04 -4.975809e-04 -4.546155e-04 -2.320713e-04 -2.084867e-04 -7.188946e-05 -8.464836e-05 -6.579174e-06 -3.953938e-05 1.119153e-05 -2.546873e-05 1.369915e-05 -1.701678e-05 1.302203e-05 -5.687263e-06 1.137710e-05 8.329792e-06 6.886295e-06 2.106782e-05 -1.329404e-06 2.931461e-05 -1.179744e-05 3.199739e-05 -2.261310e-05 2.913248e-05 -3.286494e-05 2.083118e-05 -4.204049e-05 8.897992e-06 -4.766395e-05 -9.631318e-07 -4.520029e-05 -2.713698e-06 -3.281660e-05 4.432752e-06 -1.188291e-05 3.101480e-05 1.240841e-05 4.032807e-05 2.506838e-05 4.217748e-05 6.082757e-05 5.556644e-05 3.707969e-05 
-4.927179e-03 -5.443510e-03 -1.579053e-02 -2.146529e-02 1.682391e-01 4.822366e-01 -7.988736e-01 -5.569615e-01 -1.618362e-01 -2.916663e-01 -2.252636e-01 -3.846208e-01 3.838763e-01 1.670266e+00 2.181309e+00 1.717203e+00 2.111817e+00 1.933062e+00 1.935291e+00 2.233877e+00 1.695656e+00 1.901947e-01 -3.168594e-01 -2.560410e-01 -2.183308e-01 -2.160835e-01 -2.235404e-01 -2.208073e-01 -2.319875e-01 -2.216984e-01 -2.375833e-01 -2.214172e-01 -2.413811e-01 -2.209409e-01 -2.436997e-01 -2.209030e-01 -2.448151e-01 -2.217658e-01 -2.448746e-01 -2.236794e-01 -2.439964e-01 -2.265378e-01 -2.424511e-01 -2.299984e-01 -2.406749e-01 -2.336620e-01 -2.392524e-01 -2.372294e-01 -2.386948e-01 -2.402963e-01 -2.387953e-01 -2.414858e-01 -2.355910e-01 -2.345278e-01 -2.636316e-01 -4.755026e-01 -6.700148e-01 -9.414438e-01 -1.031713e+00 -5.815916e-01 -1.099554e-01 -8.086762e-01 -1.744049e+00 -7.603566e-01 -4.015928e-01 -7.922715e-01 -7.348903e-01 -4.727297e-01 -6.826800e-01 -1.939974e+00 -2.050195e+00 -2.038946e+00 -1.731491e+00 -8.147288e-01 -3.643501e-01 -2.518156e-01 -2.572415e-01 -2.433906e-01 -2.497992e-01 -2.377651e-01 -2.458535e-01 -2.355510e-01 -2.441561e-01 -2.344488e-01 -2.428239e-01 -2.339455e-01 -2.418109e-01 -2.338659e-01 -2.413123e-01 -2.338981e-01 -2.414236e-01 -2.337310e-01 -2.420172e-01 -2.330949e-01 -2.428658e-01 -2.319707e-01 -2.437653e-01 -2.305200e-01 -2.444830e-01 -2.290246e-01 -2.447965e-01 -2.279345e-01 -2.445187e-01 -2.277517e-01 -2.434310e-01 -2.288854e-01 -2.412525e-01 -2.316154e-01 -2.377157e-01 -2.361644e-01 -2.325778e-01 -2.425144e-01 -2.256153e-01 -2.502387e-01 -2.165498e-01 -2.585847e-01 -2.045678e-01 -2.667121e-01 -1.861872e-01 -2.732055e-01 -1.237744e-01 -4.859050e-01 -5.058066e-01 5.976963e-02 -2.431808e-02 -2.057822e-02 -8.611882e-03 -6.126815e-03 
2.212982e-03 -7.080586e-03 -8.758642e-02 -1.980403e-01 1.022615e+00 2.375416e+00 -2.156586e+00 -1.255191e+00 -3.062217e-01 -5.676565e-01 -3.883429e-01 -5.018715e-01 1.132609e+00 -2.477598e-01 -4.273923e-01 -6.705652e-01 -3.075405e-01 -7.218868e-01 -3.214763e-01 -7.755828e-01 1.165580e-01 7.247248e-01 -3.644551e-01 -5.365060e-01 -4.183067e-01 -4.719006e-01 -4.047987e-01 -4.544856e-01 -4.146829e-01 -4.420739e-01 -4.278214e-01 -4.280742e-01 -4.390848e-01 -4.144408e-01 -4.504446e-01 -4.041169e-01 -4.583812e-01 -3.963751e-01 -4.630877e-01 -3.964408e-01 -4.651876e-01 -3.998415e-01 -4.573301e-01 -4.019935e-01 -4.436900e-01 -4.080552e-01 -4.315304e-01 -4.174575e-01 -4.207521e-01 -4.237526e-01 -4.069810e-01 -4.168948e-01 -3.781890e-01 -3.825264e-01 -3.781783e-01 -5.727132e-01 -4.534970e-01 -4.615059e-01 -5.063743e-01 -5.724038e-01 -1.440701e-01 -2.804765e-01 -1.389503e+00 -2.632931e-01 -3.215365e-01 -6.169357e-01 -6.244297e-01 -5.843488e-01 -3.967313e-01 -1.611866e+00 -1.244462e+00 -2.030748e+00 -2.355610e+00 -1.100338e+00 -4.578460e-01 -2.881240e-01 -3.506951e-01 -3.514502e-01 -3.905859e-01 -3.875958e-01 -4.071005e-01 -4.085387e-01 -4.124462e-01 -4.172886e-01 -4.088977e-01 -4.210789e-01 -4.083114e-01 -4.256458e-01 -4.108896e-01 -4.257390e-01 -4.159524e-01 -4.235897e-01 -4.269675e-01 -4.199448e-01 -4.405663e-01 -4.104726e-01 -4.498721e-01 -3.927107e-01 -4.546705e-01 -3.750126e-01 -4.615673e-01 -3.652346e-01 -4.711527e-01 -3.660095e-01 -4.793053e-01 -3.714328e-01 -4.717551e-01 -3.740510e-01 -4.503812e-01 -3.900400e-01 -4.294562e-01 -4.238610e-01 -4.006140e-01 -4.630687e-01 -3.574409e-01 -5.066480e-01 -3.024198e-01 -5.586190e-01 -2.245287e-01 -6.296079e-01 -3.237645e-02 -1.454971e+00 -3.378654e-01 1.221552e+00 -5.498755e-01 -2.118666e-01 -1.791102e-02 4.146800e-03 
1.818494e-02 -8.087543e-03 -2.009385e-01 -5.829908e-01 1.718254e+00 4.191902e+00 1.058644e-01 6.785025e-01 6.962406e-01 7.523406e-01 6.194087e-01 5.117057e-01 -5.611739e-01 -2.070643e-01 -9.304361e-03 -1.268197e-01 -1.394015e-01 -1.525182e-01 -8.964072e-02 -7.840426e-02 -1.601582e-01 -4.975549e-01 5.969319e-01 5.198907e-01 7.781550e-01 6.130398e-01 8.400340e-01 6.769317e-01 8.611310e-01 7.134598e-01 8.578137e-01 7.483401e-01 8.488562e-01 7.819143e-01 8.301583e-01 8.095997e-01 8.136006e-01 8.365333e-01 7.993371e-01 8.481130e-01 7.861650e-01 8.564907e-01 7.975136e-01 8.722574e-01 8.236602e-01 8.762328e-01 8.457757e-01 8.657812e-01 8.653232e-01 8.550080e-01 8.921113e-01 8.636574e-01 9.408370e-01 9.196090e-01 1.070218e+00 1.197472e+00 1.340040e+00 1.311876e+00 1.585563e+00 1.313185e+00 9.637945e-01 1.591368e+00 2.062156e+00 1.689764e+00 1.180796e+00 1.821409e+00 1.728838e+00 1.564831e+00 1.939534e+00 2.663096e+00 3.018594e+00 3.097674e+00 2.912517e+00 2.100088e+00 1.530764e+00 1.320456e+00 1.173585e+00 1.089403e+00 1.030136e+00 9.623451e-01 9.611083e-01 8.855114e-01 9.334955e-01 8.508881e-01 9.356287e-01 8.361630e-01 9.318349e-01 8.222644e-01 9.219933e-01 8.220282e-01 9.086401e-01 8.268080e-01 8.807314e-01 8.327258e-01 8.466043e-01 8.526252e-01 8.250029e-01 8.950461e-01 8.148317e-01 9.374779e-01 7.950367e-01 9.600036e-01 7.626145e-01 9.583924e-01 7.283496e-01 9.528107e-01 7.325654e-01 9.669272e-01 7.682708e-01 9.545996e-01 7.924662e-01 9.027289e-01 8.293133e-01 8.456873e-01 8.977241e-01 7.831080e-01 9.870251e-01 6.980154e-01 1.102032e+00 5.575529e-01 1.328453e+00 -7.434607e-02 3.475192e+00 3.390105e+00 -1.585234e+00 -5.592690e-01 -2.197565e-02 3.117212e-02 
1.589161e-02 1.826520e-02 -7.415800e-02 -4.304215e-01 4.206942e-01 1.515101e+00 2.969842e+00 2.376962e+00 1.123585e+00 1.524740e+00 1.049214e+00 1.308754e+00 1.284697e+00 1.371801e+00 1.083820e+00 1.317468e+00 1.145897e+00 1.301538e+00 1.173970e+00 1.230271e+00 1.262958e+00 1.325365e+00 1.272598e+00 1.181334e+00 1.397086e+00 1.292403e+00 1.470472e+00 1.340135e+00 1.501904e+00 1.362558e+00 1.511694e+00 1.382536e+00 1.513641e+00 1.402466e+00 1.505407e+00 1.420617e+00 1.495679e+00 1.441574e+00 1.484804e+00 1.455431e+00 1.472271e+00 1.470057e+00 1.475173e+00 1.491487e+00 1.488111e+00 1.504821e+00 1.499455e+00 1.506707e+00 1.511345e+00 1.505987e+00 1.531145e+00 1.516257e+00 1.568878e+00 1.555307e+00 1.622398e+00 1.572276e+00 1.626575e+00 1.601509e+00 1.477660e+00 1.866080e+00 2.124884e+00 1.562984e+00 1.592246e+00 1.781324e+00 2.203607e+00 2.053399e+00 1.935223e+00 2.443067e+00 1.830129e+00 1.806746e+00 1.125680e+00 1.578113e+00 2.078242e+00 2.018270e+00 1.957784e+00 1.810595e+00 1.754888e+00 1.662871e+00 1.650003e+00 1.570498e+00 1.595249e+00 1.509649e+00 1.570220e+00 1.479808e+00 1.567488e+00 1.466385e+00 1.562277e+00 1.455306e+00 1.554547e+00 1.454222e+00 1.546109e+00 1.456219e+00 1.528795e+00 1.457888e+00 1.507527e+00 1.468205e+00 1.494516e+00 1.493715e+00 1.488186e+00 1.519774e+00 1.473243e+00 1.533974e+00 1.447113e+00 1.534871e+00 1.416837e+00 1.537492e+00 1.409733e+00 1.558681e+00 1.420530e+00 1.566937e+00 1.419379e+00 1.553037e+00 1.423182e+00 1.539802e+00 1.445965e+00 1.526746e+00 1.482020e+00 1.505659e+00 1.535161e+00 1.479309e+00 1.627267e+00 1.963899e+00 4.550836e+00 1.949345e+00 -1.537061e+00 -5.294879e-01 -4.068867e-02 1.725627e-02 
-3.039590e-03 9.723927e-03 1.830772e-02 -8.495894e-02 -4.768069e-01 -8.082556e-01 1.550991e+00 9.729144e-01 2.367708e-01 4.966335e-01 2.663128e-01 5.092806e-01 1.478391e+00 1.098595e+00 7.785089e-01 7.876396e-01 7.836087e-01 7.842587e-01 7.879394e-01 7.802268e-01 1.195068e+00 1.344246e+00 3.622800e-01 3.268660e-01 4.041318e-01 4.117907e-01 4.404927e-01 4.196018e-01 4.504999e-01 4.185666e-01 4.553981e-01 4.163171e-01 4.578988e-01 4.149520e-01 4.585652e-01 4.151603e-01 4.579814e-01 4.174871e-01 4.561634e-01 4.214054e-01 4.531631e-01 4.268383e-01 4.501062e-01 4.331907e-01 4.472602e-01 4.386559e-01 4.445243e-01 4.419354e-01 4.423497e-01 4.430832e-01 4.423328e-01 4.458650e-01 4.536094e-01 4.653848e-01 4.254186e-01 1.948070e-01 2.199504e-01 3.256555e-01 1.546246e-01 -2.231110e-02 4.216026e-01 2.768597e-01 -5.326318e-01 5.858482e-02 3.055841e-01 -2.667565e-01 -3.061950e-01 1.382869e-03 -3.060434e-01 -8.385052e-01 -5.546033e-01 -1.528160e+00 -2.506235e+00 -8.900765e-01 2.757556e-01 4.704075e-01 4.920137e-01 4.571041e-01 4.693142e-01 4.467331e-01 4.621095e-01 4.390867e-01 4.572732e-01 4.338352e-01 4.545056e-01 4.308299e-01 4.526228e-01 4.290041e-01 4.516428e-01 4.280568e-01 4.516265e-01 4.271701e-01 4.518637e-01 4.258005e-01 4.520685e-01 4.244099e-01 4.523561e-01 4.236523e-01 4.522064e-01 4.233635e-01 4.505241e-01 4.236829e-01 4.469239e-01 4.252995e-01 4.415397e-01 4.294370e-01 4.353585e-01 4.370541e-01 4.279623e-01 4.468931e-01 4.180491e-01 4.584939e-01 4.067575e-01 4.727027e-01 3.960039e-01 4.905527e-01 3.887327e-01 5.171257e-01 3.917568e-01 5.721409e-01 3.771742e-01 1.034569e+00 1.153709e+00 -3.371375e-01 -4.044798e-01 -8.528363e-02 -9.841976e-04 -2.337316e-03 
-1.047007e-02 -4.016733e-03 6.701840e-03 1.027808e-02 -4.641842e-02 -1.741893e-01 -1.670794e-02 -2.117216e-02 -6.356930e-02 -1.462444e-02 -6.347856e-02 -7.093021e-02 1.289678e+00 1.201820e+00 5.478196e-01 5.472787e-01 5.471120e-01 5.471456e-01 5.472870e-01 5.483164e-01 1.278578e+00 1.289238e+00 -2.613118e-01 -2.143465e-01 -9.752179e-02 -6.203173e-02 -4.808643e-02 -4.673910e-02 -4.108787e-02 -4.380774e-02 -3.999237e-02 -4.405481e-02 -4.056076e-02 -4.478406e-02 -4.131628e-02 -4.528244e-02 -4.198028e-02 -4.549436e-02 -4.260998e-02 -4.554309e-02 -4.334219e-02 -4.562032e-02 -4.435545e-02 -4.602440e-02 -4.593800e-02 -4.722547e-02 -4.851632e-02 -4.971757e-02 -5.221922e-02 -5.304834e-02 -5.519513e-02 -5.282136e-02 -4.719883e-02 -2.717589e-02 -8.596850e-03 -6.254699e-02 -2.569397e-01 -4.506817e-01 -2.592471e-01 -5.067666e-01 -6.195012e-01 -1.215424e-01 -3.469439e-01 -4.729709e-01 -6.387712e-01 -5.708812e-01 -5.482350e-01 -6.925643e-01 -4.605276e-01 -2.929393e-01 5.298083e-01 1.471956e-02 -1.065929e+00 -6.138513e-01 -1.222081e-01 -2.629215e-02 -3.276113e-02 -4.222403e-02 -4.244789e-02 -4.405567e-02 -4.244510e-02 -4.382702e-02 -4.231499e-02 -4.372445e-02 -4.241706e-02 -4.380386e-02 -4.265004e-02 -4.395032e-02 -4.284499e-02 -4.409599e-02 -4.292539e-02 -4.424046e-02 -4.289320e-02 -4.440700e-02 -4.278067e-02 -4.459997e-02 -4.262234e-02 -4.480399e-02 -4.245755e-02 -4.499037e-02 -4.232771e-02 -4.511285e-02 -4.227218e-02 -4.511524e-02 -4.232904e-02 -4.494133e-02 -4.253665e-02 -4.453622e-02 -4.291304e-02 -4.381312e-02 -4.339680e-02 -4.258386e-02 -4.369850e-02 -4.035259e-02 -4.297663e-02 -3.588344e-02 -3.938502e-02 -2.672971e-02 -3.009075e-02 -1.089807e-02 -2.592005e-02 -1.760201e-03 -3.850606e-02 -9.807636e-02 -4.385762e-02 -1.200517e-02 -1.128149e-02 -1.277286e-02 
-7.735029e-03 -6.183818e-03 -3.710761e-03 -3.703609e-04 -7.192991e-04 -1.206527e-02 -1.248947e-02 -6.619423e-03 3.465613e-03 1.908886e-02 3.889196e-03 -2.518940e-02 6.391917e-01 5.842071e-01 2.747504e-01 2.743289e-01 2.743282e-01 2.743284e-01 2.743297e-01 2.750355e-01 6.484787e-01 6.527613e-01 -1.527699e-01 -1.178901e-01 -5.231247e-02 -2.960566e-02 -2.107022e-02 -1.685432e-02 -1.393394e-02 -1.269443e-02 -1.178841e-02 -1.171209e-02 -1.147247e-02 -1.169330e-02 -1.162931e-02 -1.187757e-02 -1.186079e-02 -1.207903e-02 -1.210284e-02 -1.230686e-02 -1.240869e-02 -1.264869e-02 -1.289904e-02 -1.326671e-02 -1.378459e-02 -1.441701e-02 -1.532921e-02 -1.627377e-02 -1.742023e-02 -1.812373e-02 -1.831721e-02 -1.671501e-02 -1.253633e-02 -2.786250e-03 1.335025e-02 2.255897e-02 -1.591142e-02 -4.782650e-02 9.101418e-03 2.206775e-02 1.701722e-02 4.858678e-02 1.480843e-02 3.484312e-02 1.578644e-02 -5.293583e-03 7.453628e-03 -1.185490e-02 1.243948e-02 -1.843460e-02 1.102516e-02 9.586173e-04 -4.840652e-02 -3.710101e-03 1.246864e-02 5.681980e-04 -8.842880e-03 -1.216996e-02 -1.290991e-02 -1.285322e-02 -1.250113e-02 -1.215320e-02 -1.183155e-02 -1.167046e-02 -1.157756e-02 -1.158760e-02 -1.162188e-02 -1.168134e-02 -1.174193e-02 -1.179036e-02 -1.183714e-02 -1.186724e-02 -1.189035e-02 -1.191352e-02 -1.190943e-02 -1.193968e-02 -1.190457e-02 -1.195440e-02 -1.188414e-02 -1.196311e-02 -1.185460e-02 -1.196831e-02 -1.182114e-02 -1.196978e-02 -1.178687e-02 -1.196299e-02 -1.175033e-02 -1.193545e-02 -1.169784e-02 -1.185223e-02 -1.157505e-02 -1.160877e-02 -1.121319e-02 -1.093049e-02 -1.020879e-02 -9.265848e-03 -7.900024e-03 -5.971699e-03 -3.911698e-03 -1.528572e-03 -1.194011e-03 -4.079233e-03 -9.466784e-03 -8.149402e-03 -5.444303e-03 -6.597151e-03 -8.365815e-03 -8.544168e-03 
-4.973188e-06 -1.125949e-06 1.929313e-06 3.392805e-06 4.409930e-06 4.302458e-06 4.882839e-06 5.841899e-06 6.487345e-06 4.819649e-06 9.926164e-07 2.412460e-05 1.852536e-04 -2.724513e-04 -2.935758e-07 4.534920e-10 -2.368182e-10 3.560286e-10 -4.162137e-10 -6.036695e-08 1.855287e-06 1.240524e-03 2.058304e-04 -8.593790e-05 -5.378233e-05 -4.468682e-05 -4.073959e-05 -4.045943e-05 -3.677382e-05 -3.606992e-05 -3.603806e-05 -3.924800e-05 -4.396558e-05 -5.266816e-05 -6.360109e-05 -8.104336e-05 -1.026418e-04 -1.356115e-04 -1.771607e-04 -2.384980e-04 -3.180669e-04 -4.328473e-04 -5.872615e-04 -8.064722e-04 -1.106103e-03 -1.512886e-03 -2.041336e-03 -2.676480e-03 -3.367565e-03 -3.953058e-03 -4.207069e-03 -3.743108e-03 -2.163766e-03 1.088514e-03 6.555544e-03 1.355546e-02 1.786726e-02 1.855555e-02 2.260157e-02 2.657567e-02 2.708862e-02 2.833437e-02 2.478093e-02 2.442340e-02 2.354303e-02 2.115758e-02 2.234312e-02 2.128431e-02 2.205525e-02 1.924553e-02 1.883974e-02 2.004383e-02 1.731259e-02 1.440497e-02 8.961857e-03 4.015236e-03 1.333111e-03 1.651604e-04 -2.732038e-04 -2.648674e-04 -9.902546e-05 1.317580e-04 2.968653e-04 3.958001e-04 4.185931e-04 3.937334e-04 3.446770e-04 2.829515e-04 2.286515e-04 1.753815e-04 1.371727e-04 1.011177e-04 7.817575e-05 5.613455e-05 4.352482e-05 3.124086e-05 2.488471e-05 1.882388e-05 1.568473e-05 1.301699e-05 1.096515e-05 9.617775e-06 7.391564e-06 6.189694e-06 3.520113e-06 2.249424e-06 -4.905179e-07 -1.715140e-06 -4.255960e-06 -5.464070e-06 -7.659350e-06 -8.779937e-06 -1.036399e-05 -1.114799e-05 -1.184095e-05 -1.207644e-05 -1.187974e-05 -1.179495e-05 -1.145589e-05 -1.212949e-05 -1.351681e-05 -1.677965e-05 -1.980332e-05 -2.167478e-05 -2.184565e-05 -1.942643e-05 -1.506972e-05 -9.956967e-06 
7.723789e-03 6.182762e-03 3.717363e-03 3.800536e-04 7.313204e-04 1.207916e-02 1.250001e-02 6.631335e-03 -3.451841e-03 -1.907990e-02 -3.890027e-03 2.523262e-02 -6.387740e-01 -5.844536e-01 -2.747507e-01 -2.743289e-01 -2.743282e-01 -2.743284e-01 -2.743297e-01 -2.750365e-01 -6.489983e-01 -6.502499e-01 1.534519e-01 1.178342e-01 5.223802e-02 2.952114e-02 2.098722e-02 1.676444e-02 1.384793e-02 1.260383e-02 1.169339e-02 1.160501e-02 1.134891e-02 1.154551e-02 1.144825e-02 1.165147e-02 1.157317e-02 1.170914e-02 1.162054e-02 1.167560e-02 1.157121e-02 1.153913e-02 1.140325e-02 1.125923e-02 1.104450e-02 1.072731e-02 1.034946e-02 9.780250e-03 9.180581e-03 8.381601e-03 7.705264e-03 7.001138e-03 6.742265e-03 6.734726e-03 7.490187e-03 8.611699e-03 1.024711e-02 1.147951e-02 1.280150e-02 1.380222e-02 1.453761e-02 1.505678e-02 1.491744e-02 1.478441e-02 1.462384e-02 1.475831e-02 1.533642e-02 1.590336e-02 1.701555e-02 1.773246e-02 1.862856e-02 1.916906e-02 1.889376e-02 1.777544e-02 1.621667e-02 1.479919e-02 1.371380e-02 1.300956e-02 1.255202e-02 1.236607e-02 1.227455e-02 1.228234e-02 1.227974e-02 1.228207e-02 1.226637e-02 1.223128e-02 1.220606e-02 1.215649e-02 1.213658e-02 1.209052e-02 1.207667e-02 1.204273e-02 1.202751e-02 1.201209e-02 1.198601e-02 1.199603e-02 1.194930e-02 1.199109e-02 1.191417e-02 1.199220e-02 1.187769e-02 1.199379e-02 1.183848e-02 1.199058e-02 1.179672e-02 1.197682e-02 1.175142e-02 1.194094e-02 1.168983e-02 1.184859e-02 1.155818e-02 1.159614e-02 1.118913e-02 1.091099e-02 1.018127e-02 9.243905e-03 7.874480e-03 5.952658e-03 3.892407e-03 1.513662e-03 1.174182e-03 4.052167e-03 9.430995e-03 8.110704e-03 5.400563e-03 6.552459e-03 8.329365e-03 8.519779e-03 
1.045587e-02 4.018522e-03 -6.690231e-03 -1.026064e-02 4.645434e-02 1.742314e-01 1.670753e-02 2.111454e-02 6.353441e-02 1.455931e-02 6.341956e-02 7.090616e-02 -1.289336e+00 -1.202376e+00 -5.478272e-01 -5.472836e-01 -5.471150e-01 -5.471406e-01 -5.472879e-01 -5.483095e-01 -1.278622e+00 -1.286508e+00 2.615864e-01 2.142979e-01 9.745456e-02 6.200936e-02 4.799431e-02 4.666995e-02 4.097625e-02 4.369736e-02 3.985663e-02 4.389891e-02 4.038912e-02 4.458114e-02 4.108566e-02 4.503083e-02 4.164225e-02 4.517322e-02 4.206152e-02 4.506528e-02 4.238654e-02 4.475833e-02 4.263083e-02 4.426151e-02 4.273439e-02 4.349466e-02 4.251016e-02 4.225445e-02 4.164841e-02 4.027358e-02 3.986315e-02 3.744410e-02 3.718292e-02 3.406461e-02 3.405408e-02 3.065235e-02 3.082639e-02 2.789012e-02 2.986588e-02 2.845731e-02 2.936246e-02 3.045003e-02 3.010499e-02 3.198859e-02 3.159469e-02 3.247974e-02 3.466502e-02 3.399512e-02 3.889534e-02 3.794203e-02 4.230779e-02 4.219622e-02 4.333675e-02 4.419732e-02 4.476679e-02 4.503118e-02 4.475632e-02 4.486184e-02 4.433220e-02 4.455850e-02 4.401343e-02 4.441654e-02 4.387799e-02 4.440776e-02 4.382561e-02 4.445005e-02 4.377446e-02 4.450753e-02 4.369010e-02 4.457751e-02 4.356550e-02 4.466765e-02 4.340152e-02 4.477671e-02 4.319685e-02 4.489356e-02 4.295909e-02 4.500489e-02 4.271023e-02 4.509051e-02 4.248406e-02 4.512099e-02 4.232726e-02 4.506028e-02 4.229617e-02 4.486236e-02 4.244059e-02 4.446462e-02 4.278366e-02 4.377611e-02 4.326580e-02 4.259991e-02 4.358755e-02 4.042026e-02 4.289513e-02 3.599589e-02 3.933740e-02 2.688277e-02 3.007541e-02 1.108145e-02 2.589310e-02 1.994147e-03 3.836022e-02 9.800779e-02 4.384520e-02 1.196846e-02 1.123565e-02 1.273914e-02 
3.023873e-03 -9.722179e-03 -1.828954e-02 8.502205e-02 4.768897e-01 8.083243e-01 -1.551123e+00 -9.742458e-01 -2.377571e-01 -4.982157e-01 -2.675796e-01 -5.109173e-01 -1.479116e+00 -1.098814e+00 -7.786604e-01 -7.877572e-01 -7.836867e-01 -7.841554e-01 -7.879804e-01 -7.800919e-01 -1.195231e+00 -1.338673e+00 -3.617523e-01 -3.252655e-01 -4.036940e-01 -4.102438e-01 -4.399350e-01 -4.187486e-01 -4.504660e-01 -4.188449e-01 -4.558430e-01 -4.170401e-01 -4.583981e-01 -4.157061e-01 -4.592842e-01 -4.150216e-01 -4.580523e-01 -4.145910e-01 -4.551838e-01 -4.153047e-01 -4.514849e-01 -4.170660e-01 -4.465647e-01 -4.192599e-01 -4.407505e-01 -4.221111e-01 -4.351464e-01 -4.258891e-01 -4.307677e-01 -4.305714e-01 -4.284082e-01 -4.360860e-01 -4.287074e-01 -4.425319e-01 -4.325067e-01 -4.515974e-01 -4.429631e-01 -4.623526e-01 -4.507979e-01 -4.612646e-01 -4.542942e-01 -4.596792e-01 -4.670723e-01 -4.602284e-01 -4.597716e-01 -4.697194e-01 -4.600281e-01 -4.831664e-01 -4.653535e-01 -5.009421e-01 -4.806005e-01 -4.967367e-01 -4.795332e-01 -4.723939e-01 -4.553442e-01 -4.488271e-01 -4.419201e-01 -4.369993e-01 -4.367583e-01 -4.314988e-01 -4.359208e-01 -4.292205e-01 -4.371175e-01 -4.279762e-01 -4.387466e-01 -4.268161e-01 -4.405608e-01 -4.255037e-01 -4.421592e-01 -4.237503e-01 -4.435865e-01 -4.221449e-01 -4.451665e-01 -4.209589e-01 -4.465544e-01 -4.201306e-01 -4.474056e-01 -4.200261e-01 -4.479698e-01 -4.214767e-01 -4.481290e-01 -4.241934e-01 -4.466574e-01 -4.279114e-01 -4.433715e-01 -4.332999e-01 -4.380337e-01 -4.402648e-01 -4.302065e-01 -4.490301e-01 -4.200791e-01 -4.594530e-01 -4.079147e-01 -4.717953e-01 -3.959758e-01 -4.882585e-01 -3.883076e-01 -5.143059e-01 -3.915142e-01 -5.690075e-01 -3.772661e-01 -1.029797e+00 -1.155737e+00 3.360860e-01 4.044949e-01 8.533729e-02 9.780068e-04 2.307059e-03 
-1.589264e-02 -1.825426e-02 7.422946e-02 4.305796e-01 -4.219507e-01 -1.514347e+00 -2.969346e+00 -2.377621e+00 -1.123006e+00 -1.526363e+00 -1.051411e+00 -1.312797e+00 -1.285900e+00 -1.373874e+00 -1.083907e+00 -1.319060e+00 -1.146204e+00 -1.301869e+00 -1.174815e+00 -1.229822e+00 -1.261889e+00 -1.319426e+00 -1.276248e+00 -1.184569e+00 -1.397145e+00 -1.290129e+00 -1.462948e+00 -1.337631e+00 -1.498891e+00 -1.366604e+00 -1.512302e+00 -1.382843e+00 -1.513062e+00 -1.401830e+00 -1.512992e+00 -1.418667e+00 -1.499292e+00 -1.423099e+00 -1.481304e+00 -1.433348e+00 -1.473814e+00 -1.445645e+00 -1.463241e+00 -1.447562e+00 -1.448507e+00 -1.445934e+00 -1.438847e+00 -1.447541e+00 -1.436759e+00 -1.451322e+00 -1.437101e+00 -1.450671e+00 -1.430349e+00 -1.436434e+00 -1.409903e+00 -1.416606e+00 -1.399346e+00 -1.417338e+00 -1.405023e+00 -1.418211e+00 -1.397540e+00 -1.405969e+00 -1.392065e+00 -1.389078e+00 -1.362591e+00 -1.379281e+00 -1.352292e+00 -1.389399e+00 -1.364664e+00 -1.419986e+00 -1.391089e+00 -1.423513e+00 -1.391974e+00 -1.402464e+00 -1.383521e+00 -1.401666e+00 -1.408208e+00 -1.418661e+00 -1.436137e+00 -1.426196e+00 -1.458315e+00 -1.431346e+00 -1.479265e+00 -1.431290e+00 -1.492121e+00 -1.429282e+00 -1.504405e+00 -1.430816e+00 -1.510600e+00 -1.430898e+00 -1.511959e+00 -1.439522e+00 -1.514923e+00 -1.454853e+00 -1.509858e+00 -1.465922e+00 -1.491000e+00 -1.474739e+00 -1.471971e+00 -1.496054e+00 -1.461099e+00 -1.519236e+00 -1.443729e+00 -1.534824e+00 -1.429538e+00 -1.553043e+00 -1.423112e+00 -1.564762e+00 -1.420237e+00 -1.570166e+00 -1.424221e+00 -1.562236e+00 -1.425627e+00 -1.538996e+00 -1.438420e+00 -1.520456e+00 -1.477312e+00 -1.505056e+00 -1.537598e+00 -1.478182e+00 -1.625261e+00 -1.952293e+00 -4.552464e+00 -1.947101e+00 1.536871e+00 5.293440e-01 4.077753e-02 -1.723047e-02 
-1.816509e-02 8.111644e-03 2.010569e-01 5.831313e-01 -1.720510e+00 -4.190873e+00 -1.046760e-01 -6.758626e-01 -6.926196e-01 -7.505709e-01 -6.194530e-01 -5.137894e-01 5.609392e-01 2.076663e-01 1.217423e-02 1.256073e-01 1.390256e-01 1.533256e-01 8.704760e-02 8.484810e-02 1.599007e-01 4.931337e-01 -6.032048e-01 -5.292121e-01 -7.794413e-01 -6.137797e-01 -8.296965e-01 -6.753961e-01 -8.562381e-01 -7.189658e-01 -8.571314e-01 -7.466087e-01 -8.461023e-01 -7.783968e-01 -8.395690e-01 -8.060966e-01 -8.185071e-01 -8.141872e-01 -7.959499e-01 -8.283846e-01 -7.926392e-01 -8.427769e-01 -7.881762e-01 -8.394331e-01 -7.798605e-01 -8.284666e-01 -7.791613e-01 -8.199918e-01 -7.874317e-01 -8.128125e-01 -7.947233e-01 -7.970919e-01 -7.843560e-01 -7.580686e-01 -7.432224e-01 -7.034665e-01 -7.003466e-01 -6.785852e-01 -6.881976e-01 -6.805295e-01 -6.688276e-01 -6.648598e-01 -6.235531e-01 -6.346300e-01 -5.976370e-01 -5.987018e-01 -5.815477e-01 -5.819812e-01 -5.857181e-01 -5.771407e-01 -5.786190e-01 -5.848648e-01 -5.791489e-01 -6.168006e-01 -6.303309e-01 -6.797756e-01 -7.067229e-01 -7.399469e-01 -7.666537e-01 -7.678930e-01 -8.056977e-01 -7.825614e-01 -8.368457e-01 -7.855809e-01 -8.538657e-01 -7.850282e-01 -8.694046e-01 -7.904193e-01 -8.758859e-01 -7.948397e-01 -8.750545e-01 -8.124345e-01 -8.760166e-01 -8.396645e-01 -8.645469e-01 -8.595732e-01 -8.325117e-01 -8.743465e-01 -8.005887e-01 -9.048377e-01 -7.821949e-01 -9.351168e-01 -7.577650e-01 -9.509942e-01 -7.430834e-01 -9.665484e-01 -7.461073e-01 -9.675950e-01 -7.616202e-01 -9.537341e-01 -7.945624e-01 -9.144349e-01 -8.301104e-01 -8.467775e-01 -8.861336e-01 -7.793577e-01 -9.809425e-01 -7.045548e-01 -1.106538e+00 -5.640207e-01 -1.325009e+00 7.963790e-02 -3.472663e+00 -3.383849e+00 1.585060e+00 5.590085e-01 2.209205e-02 -3.110451e-02 
-2.177229e-03 7.093849e-03 8.762893e-02 1.980706e-01 -1.023567e+00 -2.375082e+00 2.157198e+00 1.257887e+00 3.088153e-01 5.702923e-01 3.899286e-01 5.036392e-01 -1.131238e+00 2.508981e-01 4.261322e-01 6.747845e-01 3.051990e-01 7.225549e-01 3.239062e-01 7.719418e-01 -1.166510e-01 -7.241371e-01 3.613796e-01 5.309671e-01 4.173622e-01 4.696620e-01 4.081959e-01 4.540265e-01 4.169108e-01 4.405203e-01 4.292357e-01 4.299964e-01 4.414574e-01 4.173814e-01 4.486293e-01 4.064260e-01 4.576547e-01 4.030016e-01 4.644808e-01 3.988748e-01 4.624911e-01 3.963803e-01 4.590890e-01 4.016624e-01 4.559141e-01 4.112336e-01 4.501503e-01 4.214653e-01 4.425265e-01 4.324633e-01 4.377122e-01 4.476344e-01 4.430408e-01 4.729725e-01 4.653506e-01 5.084421e-01 4.978040e-01 5.337566e-01 5.152744e-01 5.351808e-01 5.293889e-01 5.396865e-01 5.660558e-01 5.541403e-01 5.670246e-01 5.771393e-01 5.708102e-01 5.973276e-01 5.725695e-01 6.207638e-01 5.965713e-01 6.143070e-01 5.968368e-01 5.686963e-01 5.443521e-01 5.116428e-01 4.950006e-01 4.706798e-01 4.622026e-01 4.508943e-01 4.434945e-01 4.416496e-01 4.312104e-01 4.391974e-01 4.252863e-01 4.386721e-01 4.203391e-01 4.357850e-01 4.187168e-01 4.325747e-01 4.199287e-01 4.242942e-01 4.210727e-01 4.124993e-01 4.271758e-01 4.034295e-01 4.409314e-01 3.967002e-01 4.548305e-01 3.855104e-01 4.635684e-01 3.756246e-01 4.728451e-01 3.722544e-01 4.762591e-01 3.711703e-01 4.702473e-01 3.778728e-01 4.559199e-01 3.930473e-01 4.313188e-01 4.206142e-01 4.017730e-01 4.614899e-01 3.617268e-01 5.051845e-01 3.041227e-01 5.526566e-01 2.225173e-01 6.233561e-01 3.390110e-02 1.450958e+00 3.412632e-01 -1.217919e+00 5.497513e-01 2.117969e-01 1.803317e-02 -4.064122e-03 
4.963465e-03 5.446794e-03 1.578046e-02 2.145091e-02 -1.683305e-01 -4.822841e-01 7.989562e-01 5.576635e-01 1.623480e-01 2.924315e-01 2.258680e-01 3.855697e-01 -3.834765e-01 -1.670016e+00 -2.182840e+00 -1.713796e+00 -2.114901e+00 -1.932093e+00 -1.934509e+00 -2.239005e+00 -1.692092e+00 -1.888529e-01 3.163309e-01 2.550451e-01 2.180784e-01 2.152053e-01 2.234067e-01 2.202850e-01 2.320921e-01 2.216454e-01 2.378840e-01 2.217126e-01 2.417149e-01 2.213369e-01 2.439268e-01 2.209835e-01 2.447655e-01 2.209377e-01 2.444281e-01 2.214376e-01 2.431416e-01 2.226555e-01 2.411451e-01 2.246342e-01 2.387314e-01 2.272871e-01 2.361906e-01 2.302630e-01 2.336269e-01 2.329875e-01 2.311596e-01 2.352266e-01 2.294980e-01 2.379876e-01 2.314021e-01 2.448358e-01 2.371876e-01 2.506540e-01 2.465397e-01 2.511648e-01 2.468629e-01 2.580078e-01 2.657841e-01 2.610648e-01 2.590816e-01 2.679831e-01 2.648506e-01 2.757670e-01 2.751199e-01 2.975153e-01 2.898080e-01 2.939861e-01 2.786531e-01 2.707980e-01 2.618379e-01 2.534078e-01 2.500295e-01 2.431918e-01 2.429870e-01 2.370355e-01 2.390073e-01 2.341704e-01 2.375500e-01 2.334217e-01 2.374046e-01 2.334117e-01 2.376522e-01 2.333275e-01 2.379761e-01 2.328998e-01 2.383886e-01 2.321302e-01 2.390072e-01 2.311656e-01 2.399509e-01 2.301978e-01 2.412166e-01 2.293725e-01 2.426258e-01 2.288173e-01 2.438775e-01 2.286924e-01 2.445695e-01 2.291856e-01 2.442514e-01 2.305619e-01 2.425261e-01 2.331331e-01 2.390556e-01 2.371457e-01 2.336290e-01 2.427159e-01 2.261995e-01 2.496820e-01 2.166927e-01 2.574430e-01 2.044285e-01 2.652015e-01 1.860011e-01 2.715902e-01 1.239533e-01 4.836904e-01 5.068998e-01 -5.916064e-02 2.432777e-02 2.067295e-02 8.725194e-03 6.203735e-03 
