# vtk DataFile Version 2.0
Comment goes here
ASCII

DATASET STRUCTURED_POINTS
FIELD FieldData 1
TIME 1 1 double
0.89000000
DIMENSIONS    128   16   1

ORIGIN    0.000   0.000   0.000
SPACING   0.0078125 0.015625   1.000

POINT_DATA   2048
SCALARS Omega double
LOOKUP_TABLE default

1.587424e-05 1.751251e-05 2.024392e-05 1.864678e-05 9.517214e-06 1.479771e-05 -2.730057e-05 1.168168e-05 -2.053361e-05 -3.868879e-06 -2.476325e-05 -1.688821e-05 -5.569164e-05 -2.145509e-05 -1.118623e-06 2.497016e-05 -6.093148e-05 8.598863e-05 -1.203246e-04 5.449891e-05 3.219924e-04 -5.192929e-05 -5.239741e-05 -3.580957e-05 -2.324930e-05 -6.827556e-05 -3.675272e-05 -1.069014e-04 -4.214409e-05 -1.388375e-04 -5.157381e-05 -1.685840e-04 -7.589726e-05 -1.985976e-04 -1.240157e-04 -2.331620e-04 -2.042404e-04 -2.808963e-04 -3.246039e-04 -3.586636e-04 -4.962798e-04 -4.956196e-04 -7.412070e-04 -7.330859e-04 -1.088092e-03 -1.101213e-03 -1.531112e-03 -1.554228e-03 -1.965209e-03 -1.940678e-03 -2.235212e-03 -2.115800e-03 -2.555880e-03 -5.090386e-03 -1.549242e-02 -2.913837e-02 -4.097159e-03 -2.052159e-02 -9.327162e-02 5.326985e-03 3.960400e-02 -5.527037e-02 -7.984457e-02 -5.772600e-02 3.874170e-02 -3.183641e-02 -1.940511e-02 4.973084e-02 -4.487641e-02 -7.005550e-02 -1.352043e-01 -1.308858e-01 -6.108965e-02 -6.604675e-02 -3.929816e-02 -1.832208e-02 -9.060887e-03 -4.457988e-03 -1.570267e-03 1.600154e-04 8.623539e-04 1.175425e-03 1.020369e-03 9.655384e-04 6.677013e-04 6.178242e-04 3.693445e-04 3.841868e-04 1.942372e-04 2.527541e-04 9.683112e-05 1.768545e-04 3.867415e-05 1.289586e-04 3.635256e-06 9.740395e-05 -1.368341e-05 7.711995e-05 -1.723391e-05 6.470788e-05 -1.199170e-05 5.692027e-05 -3.327580e-06 5.012926e-05 4.273530e-06 4.149349e-05 7.754727e-06 2.902285e-05 6.372769e-06 1.264389e-05 1.562341e-06 -5.896333e-06 -3.517288e-06 -2.344169e-05 -5.406999e-06 -3.604495e-05 -1.290953e-06 -4.029384e-05 1.166677e-05 -3.097294e-05 3.258556e-05 -4.748762e-05 6.577706e-05 3.992519e-05 -8.880387e-07 -4.337884e-06 6.215114e-06 1.192949e-05 
-3.675650e-03 -5.870446e-03 -2.424475e-03 3.783125e-02 1.552592e-02 -9.504068e-01 -6.760374e-01 -1.567883e-01 -4.818651e-01 -2.961206e-01 -3.943179e-01 -4.207694e-02 3.696379e-01 1.187889e+00 1.666712e+00 1.677327e+00 1.454521e+00 1.672642e+00 1.482250e+00 1.584625e+00 1.383675e+00 3.050337e-01 -1.197383e-01 -3.493640e-01 -3.301809e-01 -3.654436e-01 -3.276026e-01 -3.661937e-01 -3.313117e-01 -3.674813e-01 -3.346046e-01 -3.670359e-01 -3.377158e-01 -3.652361e-01 -3.408605e-01 -3.624033e-01 -3.440451e-01 -3.589276e-01 -3.470451e-01 -3.552543e-01 -3.495589e-01 -3.516765e-01 -3.513592e-01 -3.482795e-01 -3.522649e-01 -3.448792e-01 -3.520282e-01 -3.408692e-01 -3.500599e-01 -3.351398e-01 -3.450109e-01 -3.263519e-01 -3.382733e-01 -3.312099e-01 -3.638618e-01 -2.522143e-01 7.275447e-01 9.716393e-01 -5.119925e-01 1.151551e+00 1.492395e+00 1.101570e-01 5.209206e-01 1.978317e-01 2.084879e+00 7.611032e-01 1.001554e+00 2.246000e+00 -6.287169e-02 5.901253e-01 -6.874731e-01 -2.667849e-01 1.034644e+00 -2.744658e-01 -4.298048e-01 -3.867070e-01 -3.292878e-01 -3.446312e-01 -3.278857e-01 -3.423547e-01 -3.336328e-01 -3.426489e-01 -3.395291e-01 -3.433812e-01 -3.442006e-01 -3.438814e-01 -3.474933e-01 -3.441753e-01 -3.496450e-01 -3.444390e-01 -3.508427e-01 -3.448673e-01 -3.511962e-01 -3.456205e-01 -3.507143e-01 -3.468938e-01 -3.493311e-01 -3.488691e-01 -3.470215e-01 -3.516127e-01 -3.438825e-01 -3.550075e-01 -3.401793e-01 -3.587779e-01 -3.362660e-01 -3.625138e-01 -3.326410e-01 -3.656445e-01 -3.298412e-01 -3.675398e-01 -3.284330e-01 -3.674686e-01 -3.288362e-01 -3.646706e-01 -3.310865e-01 -3.582603e-01 -3.343061e-01 -3.471371e-01 -3.350733e-01 -3.289995e-01 -3.183341e-01 -3.609772e-01 -7.263448e-01 -3.305775e-01 -4.573120e-02 -2.639131e-02 -1.291965e-02 -4.878004e-03 
-3.601172e-03 -1.198782e-02 2.080921e-02 3.725965e-01 9.722598e-01 -1.969883e+00 -1.386037e+00 2.288327e-01 -8.475269e-01 -2.855325e-01 -6.131104e-01 -5.875707e-02 -4.849588e-01 -3.584475e-01 -1.015702e+00 -7.972189e-01 -8.715855e-01 -7.635062e-01 -8.845921e-01 -8.541235e-01 -4.292359e-01 -5.671215e-01 -2.823638e-01 -4.962290e-01 -4.805006e-01 -5.265749e-01 -4.604327e-01 -5.240195e-01 -4.483440e-01 -5.281232e-01 -4.399859e-01 -5.304740e-01 -4.343546e-01 -5.303841e-01 -4.329385e-01 -5.274770e-01 -4.357246e-01 -5.214510e-01 -4.417136e-01 -5.124131e-01 -4.496874e-01 -5.011777e-01 -4.591675e-01 -4.888302e-01 -4.702784e-01 -4.775961e-01 -4.842421e-01 -4.688772e-01 -4.999597e-01 -4.627189e-01 -5.168993e-01 -4.629500e-01 -5.404923e-01 -4.899089e-01 -5.655838e-01 -2.463597e-01 1.277570e+00 2.068861e+00 -5.767364e-01 4.460623e-01 4.540592e-01 -4.952300e-01 9.257256e-01 -8.183306e-01 8.931902e-01 -5.173624e-01 -5.221755e-01 9.225391e-01 -1.150328e+00 1.117493e+00 -3.270747e-01 4.608717e-01 2.085979e+00 -2.960702e-01 -6.021838e-01 -5.878134e-01 -4.452978e-01 -5.050505e-01 -4.318241e-01 -4.861102e-01 -4.365772e-01 -4.706683e-01 -4.453898e-01 -4.577445e-01 -4.562162e-01 -4.471419e-01 -4.667233e-01 -4.377608e-01 -4.748539e-01 -4.289241e-01 -4.792293e-01 -4.220921e-01 -4.814337e-01 -4.205890e-01 -4.815657e-01 -4.239986e-01 -4.766695e-01 -4.317661e-01 -4.659608e-01 -4.438632e-01 -4.491150e-01 -4.597036e-01 -4.284780e-01 -4.799023e-01 -4.071359e-01 -5.023061e-01 -3.864574e-01 -5.224696e-01 -3.680132e-01 -5.365450e-01 -3.557890e-01 -5.427016e-01 -3.543824e-01 -5.377619e-01 -3.652461e-01 -5.179500e-01 -3.886773e-01 -4.799495e-01 -4.176732e-01 -4.152549e-01 -4.179266e-01 -4.150109e-01 -1.596931e+00 2.181836e-01 8.009975e-01 2.644346e-03 -5.145735e-02 -1.196407e-02 
5.922344e-04 -2.596176e-02 3.282793e-02 8.625625e-01 3.065732e+00 1.201161e+00 1.283326e-01 1.317861e+00 6.419415e-01 9.186162e-01 6.367879e-01 4.831457e-01 4.039209e-01 2.030087e-01 4.756644e-01 2.647151e-01 3.815768e-01 2.334311e-01 3.852094e-01 3.979979e-01 1.783004e-01 6.166504e-01 4.613624e-01 7.847007e-01 7.339564e-01 8.772604e-01 8.096919e-01 8.853220e-01 8.580632e-01 8.737061e-01 8.977336e-01 8.588541e-01 9.309645e-01 8.434999e-01 9.538636e-01 8.302297e-01 9.658374e-01 8.221065e-01 9.675822e-01 8.214655e-01 9.599435e-01 8.274457e-01 9.421698e-01 8.368511e-01 9.121188e-01 8.412998e-01 8.641923e-01 8.322371e-01 7.975950e-01 8.016894e-01 7.036215e-01 7.260390e-01 5.593640e-01 5.756778e-01 3.299952e-01 1.850103e-01 -8.905868e-01 -1.191463e+00 -4.674743e-02 -8.496437e-01 -1.116790e+00 -2.006959e-01 -9.641239e-01 -1.692028e-01 -1.402214e+00 -4.326701e-01 -3.887416e-01 -1.430307e+00 2.744182e-01 -8.972488e-01 1.441371e-01 -1.712105e-01 -9.679384e-01 2.571299e-01 5.962947e-01 6.219167e-01 7.335107e-01 7.141643e-01 8.307071e-01 7.944180e-01 8.831154e-01 8.543170e-01 9.050827e-01 8.990993e-01 9.066051e-01 9.333897e-01 8.981886e-01 9.629347e-01 8.885937e-01 9.912312e-01 8.833102e-01 1.015177e+00 8.784894e-01 1.025884e+00 8.740036e-01 1.025735e+00 8.781749e-01 1.017446e+00 8.932069e-01 1.001365e+00 9.208489e-01 9.782151e-01 9.562260e-01 9.441380e-01 9.929194e-01 9.025989e-01 1.030585e+00 8.628152e-01 1.068550e+00 8.320735e-01 1.099300e+00 8.113185e-01 1.112720e+00 8.058905e-01 1.105848e+00 8.226842e-01 1.073023e+00 8.648941e-01 1.011049e+00 9.369157e-01 9.060558e-01 9.996483e-01 1.658883e-01 3.188428e+00 2.734189e+00 1.383852e-01 -8.757376e-02 -1.453837e-02 
7.326712e-03 -9.320367e-03 3.810906e-02 6.615838e-01 2.649747e+00 4.359385e+00 1.964798e+00 1.227096e+00 1.915266e+00 1.503701e+00 1.769076e+00 1.447927e+00 1.774703e+00 1.577613e+00 1.721515e+00 1.603370e+00 1.720063e+00 1.648791e+00 1.671957e+00 1.677935e+00 1.662752e+00 1.638742e+00 1.545221e+00 1.779409e+00 1.592628e+00 1.818694e+00 1.658242e+00 1.832472e+00 1.701238e+00 1.824690e+00 1.736269e+00 1.810001e+00 1.767140e+00 1.791560e+00 1.791730e+00 1.772027e+00 1.809362e+00 1.754498e+00 1.819409e+00 1.741720e+00 1.821118e+00 1.733706e+00 1.812913e+00 1.728137e+00 1.792459e+00 1.718297e+00 1.755038e+00 1.696331e+00 1.698636e+00 1.653681e+00 1.613564e+00 1.568737e+00 1.473273e+00 1.397600e+00 1.197929e+00 1.004668e+00 7.848717e-01 4.187627e-01 6.050426e-01 1.062790e+00 1.072594e+00 1.098784e+00 4.433581e-01 1.290937e+00 1.258116e+00 1.020435e+00 1.321998e+00 1.152446e+00 1.277982e+00 5.958109e-01 1.001004e+00 6.075081e-01 7.490265e-01 1.215173e+00 1.253480e+00 1.467410e+00 1.517589e+00 1.604344e+00 1.648433e+00 1.679950e+00 1.718395e+00 1.728750e+00 1.755338e+00 1.762479e+00 1.770866e+00 1.787600e+00 1.774496e+00 1.809384e+00 1.773540e+00 1.830827e+00 1.772431e+00 1.850187e+00 1.768917e+00 1.861573e+00 1.763082e+00 1.867009e+00 1.760624e+00 1.868702e+00 1.763146e+00 1.866867e+00 1.772350e+00 1.861421e+00 1.785888e+00 1.848683e+00 1.800585e+00 1.829736e+00 1.817863e+00 1.809268e+00 1.838962e+00 1.790663e+00 1.860473e+00 1.772896e+00 1.876916e+00 1.758547e+00 1.887352e+00 1.752307e+00 1.888490e+00 1.759644e+00 1.879527e+00 1.799042e+00 1.861684e+00 2.041829e+00 2.752046e+00 3.583736e+00 1.822396e+00 -6.999803e-02 -9.540752e-02 -1.131598e-02 
6.421347e-03 1.712725e-03 -2.310509e-02 7.331594e-03 5.234409e-01 2.400584e+00 1.268690e+00 2.682391e-01 9.414402e-01 6.219807e-01 9.496233e-01 9.759719e-01 1.050738e+00 9.471948e-01 8.655914e-01 8.598708e-01 8.675298e-01 8.623738e-01 8.641749e-01 8.674158e-01 9.911075e-01 9.808337e-01 8.905853e-01 8.184354e-01 7.337077e-01 8.309575e-01 7.679618e-01 8.459701e-01 7.799245e-01 8.469163e-01 7.866380e-01 8.432649e-01 7.923937e-01 8.373615e-01 7.981565e-01 8.301765e-01 8.038506e-01 8.223640e-01 8.087521e-01 8.145289e-01 8.119355e-01 8.067993e-01 8.125142e-01 7.987074e-01 8.095520e-01 7.889913e-01 8.018692e-01 7.756692e-01 7.881062e-01 7.564625e-01 7.664185e-01 7.290652e-01 7.304184e-01 6.783907e-01 7.219908e-01 1.138609e+00 3.536856e+00 4.574427e+00 1.165243e+00 1.955315e+00 2.001691e+00 1.020440e+00 2.871404e+00 5.937692e-01 2.359302e+00 1.194357e+00 9.817255e-01 2.479235e+00 3.630074e-01 2.905282e+00 1.120072e+00 2.321206e+00 4.521852e+00 1.194958e+00 4.826918e-01 6.877888e-01 7.140783e-01 7.752109e-01 7.572814e-01 7.887764e-01 7.800008e-01 7.960797e-01 7.945209e-01 7.998241e-01 8.034924e-01 8.022197e-01 8.088337e-01 8.043585e-01 8.117128e-01 8.067595e-01 8.127703e-01 8.095813e-01 8.121934e-01 8.126852e-01 8.101320e-01 8.163378e-01 8.068649e-01 8.207777e-01 8.025559e-01 8.259594e-01 7.975888e-01 8.315317e-01 7.924377e-01 8.367611e-01 7.876437e-01 8.409865e-01 7.841564e-01 8.435445e-01 7.829408e-01 8.437925e-01 7.848506e-01 8.410234e-01 7.907100e-01 8.353743e-01 8.019537e-01 8.286585e-01 8.214416e-01 8.270960e-01 8.563372e-01 8.469087e-01 9.215552e-01 9.946478e-01 1.688538e+00 1.002430e+00 9.500551e-02 -8.589908e-02 -2.827590e-02 6.223189e-04 
2.431565e-03 6.878249e-03 4.939121e-03 -9.237010e-03 -7.318284e-04 1.541721e-01 1.509676e-01 4.842835e-02 8.397986e-02 8.841288e-02 2.284396e-01 6.701298e-01 1.028856e+00 7.803286e-01 5.551189e-01 5.545802e-01 5.548928e-01 5.546781e-01 5.547608e-01 5.556609e-01 9.611476e-01 1.065387e+00 3.310505e-01 2.772852e-02 2.307608e-02 5.826662e-02 6.769669e-02 7.875857e-02 7.686308e-02 8.239828e-02 7.879024e-02 8.228355e-02 7.887316e-02 8.123250e-02 7.864875e-02 8.007561e-02 7.844417e-02 7.893142e-02 7.816242e-02 7.769239e-02 7.755722e-02 7.613487e-02 7.629982e-02 7.392741e-02 7.399692e-02 7.067874e-02 7.031940e-02 6.620230e-02 6.549029e-02 6.144880e-02 6.201205e-02 6.161608e-02 6.799662e-02 7.579458e-02 1.171346e-01 3.469912e-01 1.364400e+00 2.103838e+00 8.740452e-01 8.490797e-01 9.690831e-01 5.131332e-01 1.284535e+00 2.900550e-01 9.616076e-01 1.206217e+00 8.249591e-01 1.237542e+00 5.300519e-01 1.044335e+00 2.187879e-01 1.029563e+00 1.837364e+00 2.843895e-01 -7.568556e-03 5.741965e-02 7.422184e-02 7.714263e-02 7.394661e-02 7.559310e-02 7.528308e-02 7.636666e-02 7.676450e-02 7.697622e-02 7.772276e-02 7.731508e-02 7.826872e-02 7.748063e-02 7.854505e-02 7.757483e-02 7.865182e-02 7.767222e-02 7.864390e-02 7.781896e-02 7.853931e-02 7.804714e-02 7.833435e-02 7.837557e-02 7.802452e-02 7.880624e-02 7.761773e-02 7.932229e-02 7.714105e-02 7.989406e-02 7.663813e-02 8.048592e-02 7.618542e-02 8.107019e-02 7.590947e-02 8.167869e-02 7.605510e-02 8.250473e-02 7.712382e-02 8.413490e-02 8.015168e-02 8.793348e-02 8.707547e-02 9.630408e-02 9.981516e-02 1.096170e-01 1.171529e-01 1.507558e-01 1.932215e-01 4.981748e-02 -3.327575e-02 -2.218801e-02 -7.758536e-03 -1.472905e-03 
-5.075969e-04 1.135529e-03 2.418914e-03 1.178284e-03 -2.821464e-03 -1.978900e-03 5.133550e-03 4.966983e-03 1.161224e-02 2.694855e-02 9.215696e-02 3.281002e-01 5.013357e-01 3.874874e-01 2.768587e-01 2.767124e-01 2.767122e-01 2.767121e-01 2.767130e-01 2.771347e-01 4.895964e-01 5.441220e-01 1.123056e-01 -5.078781e-02 -4.247467e-02 -2.268636e-02 -1.220953e-02 -7.124221e-03 -4.383773e-03 -2.841145e-03 -2.119221e-03 -1.798947e-03 -1.735614e-03 -1.810744e-03 -1.903053e-03 -2.096510e-03 -2.213647e-03 -2.470849e-03 -2.622080e-03 -2.973210e-03 -3.225387e-03 -3.739017e-03 -4.185317e-03 -4.936242e-03 -5.646552e-03 -6.629688e-03 -7.508341e-03 -8.416226e-03 -8.874640e-03 -8.633068e-03 -6.920744e-03 -2.742537e-03 4.984140e-03 1.634104e-02 2.919822e-02 4.997025e-02 1.152839e-01 2.080926e-01 1.948151e-01 1.487113e-01 1.736066e-01 1.383201e-01 1.562425e-01 9.408197e-02 6.535626e-02 1.041400e-01 5.061290e-02 7.938744e-02 4.919581e-02 7.673179e-02 8.658598e-02 6.931302e-02 6.866028e-02 1.006926e-02 1.006493e-02 1.205314e-02 6.260996e-03 1.516773e-03 -9.879638e-04 -1.989098e-03 -2.389718e-03 -2.498671e-03 -2.438635e-03 -2.388190e-03 -2.260352e-03 -2.236234e-03 -2.137278e-03 -2.163575e-03 -2.093565e-03 -2.151213e-03 -2.091784e-03 -2.161158e-03 -2.100123e-03 -2.169683e-03 -2.104249e-03 -2.167796e-03 -2.101806e-03 -2.154537e-03 -2.095648e-03 -2.131728e-03 -2.089716e-03 -2.101112e-03 -2.086542e-03 -2.062229e-03 -2.084249e-03 -2.008605e-03 -2.069710e-03 -1.917197e-03 -2.001465e-03 -1.722829e-03 -1.772182e-03 -1.266286e-03 -1.142200e-03 -2.169881e-04 3.319969e-04 1.960098e-03 3.221505e-03 5.692450e-03 7.385059e-03 9.451760e-03 9.255815e-03 1.039446e-02 8.947344e-03 -2.470780e-03 -5.010048e-03 -2.836418e-03 -2.151203e-03 -1.487688e-03 
-4.084688e-06 -3.757466e-06 -1.594602e-06 -8.941667e-07 9.974910e-07 2.813347e-06 3.963941e-06 5.482447e-06 6.210812e-06 8.190952e-06 1.755770e-05 2.337796e-05 -1.031573e-04 9.794394e-06 1.451920e-08 7.343514e-10 -8.680100e-11 8.562246e-10 -1.262878e-08 -6.569855e-06 -3.314965e-03 2.249880e-03 1.483955e-04 1.611993e-06 -1.609110e-05 -3.333000e-05 -4.381650e-05 -5.925437e-05 -6.942531e-05 -8.256525e-05 -9.601087e-05 -1.139492e-04 -1.375891e-04 -1.685793e-04 -2.111667e-04 -2.671133e-04 -3.427814e-04 -4.434387e-04 -5.765977e-04 -7.544588e-04 -9.842802e-04 -1.285650e-03 -1.661064e-03 -2.127609e-03 -2.668917e-03 -3.267618e-03 -3.856407e-03 -4.320415e-03 -4.490318e-03 -4.072901e-03 -2.747912e-03 1.315330e-06 4.619283e-03 1.143649e-02 1.984040e-02 2.816199e-02 3.651450e-02 4.560986e-02 5.170684e-02 5.350863e-02 5.567684e-02 5.469760e-02 5.258775e-02 4.837353e-02 4.433400e-02 4.362117e-02 4.019239e-02 3.964961e-02 3.778988e-02 3.736217e-02 3.778897e-02 3.410678e-02 2.744471e-02 2.087046e-02 1.629074e-02 1.087384e-02 6.439330e-03 3.544729e-03 1.839918e-03 8.939224e-04 3.733547e-04 1.443301e-04 4.964829e-05 4.346805e-05 5.693591e-05 8.100926e-05 9.505460e-05 1.009124e-04 9.845786e-05 8.876641e-05 7.808156e-05 6.388935e-05 5.332249e-05 4.123478e-05 3.420542e-05 2.605209e-05 2.263136e-05 1.781202e-05 1.676944e-05 1.396883e-05 1.392472e-05 1.193814e-05 1.184710e-05 9.886052e-06 9.174102e-06 6.905957e-06 5.431502e-06 2.899207e-06 8.511222e-07 -1.633425e-06 -3.833423e-06 -5.785482e-06 -7.604502e-06 -8.511293e-06 -9.525711e-06 -9.102391e-06 -9.366791e-06 -7.927999e-06 -8.429496e-06 -7.216701e-06 -9.615264e-06 -9.036793e-06 -1.224046e-05 -9.862861e-06 -7.769725e-06 -8.530544e-06 -6.209718e-06 -6.648620e-06 
5.008261e-04 -1.143975e-03 -2.425006e-03 -1.184018e-03 2.820371e-03 1.983094e-03 -5.122493e-03 -4.960019e-03 -1.160001e-02 -2.693913e-02 -9.213302e-02 -3.280710e-01 -5.013956e-01 -3.875943e-01 -2.768588e-01 -2.767124e-01 -2.767122e-01 -2.767121e-01 -2.767130e-01 -2.771497e-01 -4.972511e-01 -5.416666e-01 -1.122933e-01 5.083297e-02 4.247936e-02 2.263631e-02 1.212784e-02 7.008221e-03 4.243504e-03 2.674111e-03 1.921660e-03 1.564332e-03 1.449758e-03 1.458203e-03 1.460501e-03 1.530607e-03 1.489030e-03 1.522626e-03 1.393335e-03 1.349379e-03 1.110736e-03 9.525823e-04 5.769531e-04 2.669364e-04 -2.652726e-04 -7.286442e-04 -1.366889e-03 -1.862108e-03 -2.378514e-03 -2.553224e-03 -2.457498e-03 -1.716093e-03 -3.521347e-04 1.874516e-03 4.786270e-03 8.082695e-03 1.131601e-02 1.429269e-02 1.663030e-02 1.813734e-02 1.893394e-02 1.886630e-02 1.838833e-02 1.762858e-02 1.695086e-02 1.644845e-02 1.605920e-02 1.594356e-02 1.569116e-02 1.542227e-02 1.513401e-02 1.419965e-02 1.254889e-02 1.031137e-02 8.042525e-03 5.851868e-03 4.239060e-03 3.126715e-03 2.442907e-03 2.075136e-03 1.892109e-03 1.866196e-03 1.879218e-03 1.956537e-03 2.004921e-03 2.082752e-03 2.108717e-03 2.163052e-03 2.158811e-03 2.196440e-03 2.169703e-03 2.202191e-03 2.161391e-03 2.195661e-03 2.147072e-03 2.184115e-03 2.133254e-03 2.169126e-03 2.122471e-03 2.149390e-03 2.115261e-03 2.122388e-03 2.110649e-03 2.084395e-03 2.104408e-03 2.027330e-03 2.082579e-03 1.928323e-03 2.004330e-03 1.723816e-03 1.764164e-03 1.257263e-03 1.125041e-03 2.011877e-04 -3.538208e-04 -1.976927e-03 -3.242058e-03 -5.704282e-03 -7.400793e-03 -9.458091e-03 -9.272038e-03 -1.039844e-02 -8.976608e-03 2.454032e-03 5.006385e-03 2.829932e-03 2.146386e-03 1.478491e-03 
-2.432608e-03 -6.888459e-03 -4.952239e-03 9.221339e-03 7.165119e-04 -1.542517e-01 -1.509030e-01 -4.842552e-02 -8.397376e-02 -8.842102e-02 -2.284482e-01 -6.701200e-01 -1.029014e+00 -7.802318e-01 -5.551154e-01 -5.545842e-01 -5.548903e-01 -5.546806e-01 -5.547658e-01 -5.556655e-01 -9.666020e-01 -1.060616e+00 -3.310185e-01 -2.767506e-02 -2.323933e-02 -5.827486e-02 -6.796917e-02 -7.884626e-02 -7.722981e-02 -8.257843e-02 -7.923823e-02 -8.261545e-02 -7.942108e-02 -8.182198e-02 -7.936496e-02 -8.108614e-02 -7.948535e-02 -8.061068e-02 -7.984300e-02 -8.042925e-02 -8.044059e-02 -8.057545e-02 -8.131221e-02 -8.112041e-02 -8.253002e-02 -8.214475e-02 -8.414783e-02 -8.364842e-02 -8.608331e-02 -8.542119e-02 -8.799800e-02 -8.698031e-02 -8.932864e-02 -8.774118e-02 -8.960927e-02 -8.740448e-02 -8.865713e-02 -8.591529e-02 -8.846226e-02 -8.525422e-02 -8.554257e-02 -8.658574e-02 -8.524459e-02 -8.651085e-02 -8.376028e-02 -8.537581e-02 -8.523241e-02 -8.344606e-02 -8.659465e-02 -8.474216e-02 -8.646983e-02 -8.572666e-02 -8.415659e-02 -8.532768e-02 -8.360177e-02 -8.407444e-02 -8.256654e-02 -8.258048e-02 -8.148050e-02 -8.120134e-02 -8.056993e-02 -8.011187e-02 -7.989905e-02 -7.931918e-02 -7.943832e-02 -7.877548e-02 -7.913501e-02 -7.842837e-02 -7.893397e-02 -7.823551e-02 -7.878269e-02 -7.816868e-02 -7.863472e-02 -7.821408e-02 -7.845198e-02 -7.836798e-02 -7.820773e-02 -7.862988e-02 -7.788878e-02 -7.899551e-02 -7.749643e-02 -7.945164e-02 -7.704841e-02 -7.997403e-02 -7.658288e-02 -8.052970e-02 -7.616801e-02 -8.109290e-02 -7.592614e-02 -8.169056e-02 -7.609680e-02 -8.251137e-02 -7.717885e-02 -8.413312e-02 -8.020708e-02 -8.791622e-02 -8.711805e-02 -9.626183e-02 -9.983344e-02 -1.095476e-01 -1.171443e-01 -1.506558e-01 -1.933056e-01 -4.989256e-02 3.328901e-02 2.221730e-02 7.784651e-03 1.479873e-03 
-6.412850e-03 -1.721682e-03 2.308521e-02 -7.394070e-03 -5.236415e-01 -2.402029e+00 -1.268348e+00 -2.676680e-01 -9.418727e-01 -6.218745e-01 -9.502997e-01 -9.755513e-01 -1.050606e+00 -9.474026e-01 -8.655131e-01 -8.599638e-01 -8.674686e-01 -8.624242e-01 -8.642910e-01 -8.672704e-01 -9.959791e-01 -9.772170e-01 -8.928198e-01 -8.166317e-01 -7.357162e-01 -8.293147e-01 -7.704160e-01 -8.450207e-01 -7.828754e-01 -8.471527e-01 -7.896059e-01 -8.450609e-01 -7.949668e-01 -8.413962e-01 -8.003306e-01 -8.371968e-01 -8.060389e-01 -8.329588e-01 -8.120755e-01 -8.290392e-01 -8.182984e-01 -8.258568e-01 -8.246526e-01 -8.238695e-01 -8.312339e-01 -8.235195e-01 -8.381357e-01 -8.247690e-01 -8.449438e-01 -8.269647e-01 -8.508989e-01 -8.289813e-01 -8.544212e-01 -8.284234e-01 -8.525969e-01 -8.215174e-01 -8.408755e-01 -8.058961e-01 -8.425677e-01 -8.064182e-01 -8.140897e-01 -8.251575e-01 -8.058842e-01 -8.259644e-01 -7.914782e-01 -8.123190e-01 -8.125634e-01 -7.926411e-01 -8.376037e-01 -8.109581e-01 -8.428115e-01 -8.321580e-01 -8.230041e-01 -8.417325e-01 -8.315449e-01 -8.423488e-01 -8.326376e-01 -8.376492e-01 -8.313959e-01 -8.316921e-01 -8.294994e-01 -8.261838e-01 -8.274431e-01 -8.217129e-01 -8.252950e-01 -8.184921e-01 -8.230417e-01 -8.166064e-01 -8.206209e-01 -8.159756e-01 -8.177887e-01 -8.164868e-01 -8.145056e-01 -8.182727e-01 -8.107664e-01 -8.212042e-01 -8.064244e-01 -8.250909e-01 -8.016140e-01 -8.296664e-01 -7.965057e-01 -8.344566e-01 -7.915401e-01 -8.390645e-01 -7.873623e-01 -8.428395e-01 -7.845332e-01 -8.449043e-01 -7.836369e-01 -8.444524e-01 -7.855329e-01 -8.411433e-01 -7.913366e-01 -8.351391e-01 -8.023837e-01 -8.281871e-01 -8.216548e-01 -8.265725e-01 -8.562113e-01 -8.463244e-01 -9.209881e-01 -9.945639e-01 -1.687693e+00 -1.002772e+00 -9.531139e-02 8.590825e-02 2.834290e-02 -5.838516e-04 
-7.309108e-03 9.328232e-03 -3.818940e-02 -6.619221e-01 -2.649904e+00 -4.360626e+00 -1.964512e+00 -1.225763e+00 -1.915699e+00 -1.503788e+00 -1.770222e+00 -1.447872e+00 -1.775330e+00 -1.576612e+00 -1.721838e+00 -1.603271e+00 -1.719880e+00 -1.648692e+00 -1.672218e+00 -1.676431e+00 -1.664394e+00 -1.633658e+00 -1.552919e+00 -1.773842e+00 -1.599123e+00 -1.813384e+00 -1.663600e+00 -1.832333e+00 -1.708661e+00 -1.831601e+00 -1.741261e+00 -1.820316e+00 -1.767239e+00 -1.807459e+00 -1.790440e+00 -1.797136e+00 -1.811088e+00 -1.791002e+00 -1.828289e+00 -1.788785e+00 -1.840922e+00 -1.790916e+00 -1.850047e+00 -1.799043e+00 -1.859232e+00 -1.816770e+00 -1.872455e+00 -1.842669e+00 -1.887074e+00 -1.872261e+00 -1.904786e+00 -1.907761e+00 -1.929110e+00 -1.946471e+00 -1.956237e+00 -1.980720e+00 -1.977628e+00 -1.998788e+00 -2.010433e+00 -2.019889e+00 -2.006756e+00 -2.044483e+00 -2.016470e+00 -2.047815e+00 -2.006068e+00 -2.029197e+00 -2.016754e+00 -1.994175e+00 -2.023508e+00 -1.987330e+00 -2.016231e+00 -1.976240e+00 -1.982975e+00 -1.948238e+00 -1.972457e+00 -1.916966e+00 -1.950835e+00 -1.887251e+00 -1.926127e+00 -1.864685e+00 -1.901959e+00 -1.850686e+00 -1.878302e+00 -1.844303e+00 -1.855460e+00 -1.844703e+00 -1.834255e+00 -1.851023e+00 -1.815367e+00 -1.859706e+00 -1.796399e+00 -1.867048e+00 -1.780107e+00 -1.875204e+00 -1.769837e+00 -1.881290e+00 -1.763958e+00 -1.882954e+00 -1.764021e+00 -1.879270e+00 -1.768798e+00 -1.868423e+00 -1.779382e+00 -1.853949e+00 -1.797777e+00 -1.837125e+00 -1.820595e+00 -1.816376e+00 -1.842374e+00 -1.791863e+00 -1.861493e+00 -1.770053e+00 -1.878969e+00 -1.755063e+00 -1.890351e+00 -1.749282e+00 -1.893101e+00 -1.758888e+00 -1.882879e+00 -1.796897e+00 -1.860128e+00 -2.040759e+00 -2.744608e+00 -3.587659e+00 -1.824470e+00 6.945071e-02 9.536346e-02 1.137143e-02 
-5.571390e-04 2.599790e-02 -3.287286e-02 -8.630107e-01 -3.065725e+00 -1.199146e+00 -1.285537e-01 -1.317380e+00 -6.413280e-01 -9.191114e-01 -6.367421e-01 -4.840499e-01 -4.033243e-01 -2.030321e-01 -4.753073e-01 -2.651155e-01 -3.804216e-01 -2.329409e-01 -3.869225e-01 -3.918536e-01 -1.846403e-01 -6.107740e-01 -4.673456e-01 -7.805249e-01 -7.392826e-01 -8.732392e-01 -8.122931e-01 -8.876415e-01 -8.626905e-01 -8.840357e-01 -8.985595e-01 -8.706177e-01 -9.252376e-01 -8.585442e-01 -9.472105e-01 -8.526005e-01 -9.643719e-01 -8.541883e-01 -9.754036e-01 -8.618454e-01 -9.789630e-01 -8.750747e-01 -9.769937e-01 -8.952684e-01 -9.750537e-01 -9.269978e-01 -9.793634e-01 -9.681664e-01 -9.869407e-01 -1.013272e+00 -1.002170e+00 -1.068184e+00 -1.034120e+00 -1.134275e+00 -1.084032e+00 -1.209253e+00 -1.150962e+00 -1.283247e+00 -1.201822e+00 -1.313117e+00 -1.273658e+00 -1.306180e+00 -1.311358e+00 -1.307155e+00 -1.332756e+00 -1.319775e+00 -1.297513e+00 -1.319950e+00 -1.247439e+00 -1.259507e+00 -1.217222e+00 -1.174831e+00 -1.206729e+00 -1.097116e+00 -1.160684e+00 -1.039184e+00 -1.119379e+00 -1.000518e+00 -1.081034e+00 -9.782813e-01 -1.046349e+00 -9.696911e-01 -1.013506e+00 -9.712310e-01 -9.824468e-01 -9.807042e-01 -9.542975e-01 -9.963223e-01 -9.302098e-01 -1.012569e+00 -9.070669e-01 -1.023803e+00 -8.893351e-01 -1.032922e+00 -8.823523e-01 -1.035623e+00 -8.840563e-01 -1.028624e+00 -8.966361e-01 -1.011104e+00 -9.178119e-01 -9.814265e-01 -9.481749e-01 -9.461661e-01 -9.891405e-01 -9.090781e-01 -1.033850e+00 -8.701303e-01 -1.072130e+00 -8.319901e-01 -1.099253e+00 -8.063523e-01 -1.114493e+00 -8.008865e-01 -1.109644e+00 -8.190361e-01 -1.079881e+00 -8.649150e-01 -1.016710e+00 -9.348407e-01 -9.049983e-01 -9.983252e-01 -1.565856e-01 -3.193796e+00 -2.736773e+00 -1.392952e-01 8.743515e-02 1.455613e-02 
3.637521e-03 1.203323e-02 -2.077597e-02 -3.727399e-01 -9.721526e-01 1.972619e+00 1.385592e+00 -2.294194e-01 8.483443e-01 2.851550e-01 6.139350e-01 5.750280e-02 4.868743e-01 3.557337e-01 1.017716e+00 7.974728e-01 8.690419e-01 7.681616e-01 8.809781e-01 8.551251e-01 4.266086e-01 5.665094e-01 2.805704e-01 4.955104e-01 4.806077e-01 5.263221e-01 4.619858e-01 5.221582e-01 4.496998e-01 5.246059e-01 4.428565e-01 5.281636e-01 4.393222e-01 5.292786e-01 4.378337e-01 5.267689e-01 4.385861e-01 5.206871e-01 4.420364e-01 5.121382e-01 4.484891e-01 5.019184e-01 4.570428e-01 4.900841e-01 4.655421e-01 4.754068e-01 4.715744e-01 4.586265e-01 4.757143e-01 4.411916e-01 4.755845e-01 4.199397e-01 4.663083e-01 3.920323e-01 4.443458e-01 3.538843e-01 4.037313e-01 3.038888e-01 3.853410e-01 2.955430e-01 3.203259e-01 3.202623e-01 2.969030e-01 3.239903e-01 2.710321e-01 2.986955e-01 3.099250e-01 2.731787e-01 3.584477e-01 3.231372e-01 3.820253e-01 3.909526e-01 3.667362e-01 4.353769e-01 3.957668e-01 4.598863e-01 4.128406e-01 4.692991e-01 4.256150e-01 4.701598e-01 4.360686e-01 4.658890e-01 4.458158e-01 4.588091e-01 4.551387e-01 4.501107e-01 4.635980e-01 4.405872e-01 4.705975e-01 4.322520e-01 4.768999e-01 4.271712e-01 4.806292e-01 4.245330e-01 4.796133e-01 4.259601e-01 4.742912e-01 4.326119e-01 4.638385e-01 4.446036e-01 4.491943e-01 4.620638e-01 4.305966e-01 4.820492e-01 4.082999e-01 5.022943e-01 3.856690e-01 5.215839e-01 3.674099e-01 5.376092e-01 3.564634e-01 5.449283e-01 3.542516e-01 5.395322e-01 3.641033e-01 5.188778e-01 3.861564e-01 4.794045e-01 4.153131e-01 4.154489e-01 4.177789e-01 4.154103e-01 1.599703e+00 -2.201853e-01 -8.017803e-01 -3.005402e-03 5.138880e-02 1.197285e-02 
3.706859e-03 5.910039e-03 2.472704e-03 -3.780180e-02 -1.547990e-02 9.512340e-01 6.758521e-01 1.565302e-01 4.820677e-01 2.960336e-01 3.945866e-01 4.163383e-02 -3.690997e-01 -1.188019e+00 -1.667676e+00 -1.676380e+00 -1.457549e+00 -1.670459e+00 -1.484785e+00 -1.588412e+00 -1.377247e+00 -3.051787e-01 1.198670e-01 3.485060e-01 3.308996e-01 3.647423e-01 3.285025e-01 3.656347e-01 3.323920e-01 3.672688e-01 3.357606e-01 3.674141e-01 3.387932e-01 3.664507e-01 3.417281e-01 3.646747e-01 3.446990e-01 3.623824e-01 3.477621e-01 3.598767e-01 3.508957e-01 3.574440e-01 3.540283e-01 3.553089e-01 3.570657e-01 3.536026e-01 3.599093e-01 3.523568e-01 3.624438e-01 3.514588e-01 3.643820e-01 3.504469e-01 3.649797e-01 3.481734e-01 3.618654e-01 3.397189e-01 3.499756e-01 3.264858e-01 3.471900e-01 3.278999e-01 3.351596e-01 3.387752e-01 3.286747e-01 3.391576e-01 3.223382e-01 3.310955e-01 3.336479e-01 3.268620e-01 3.575819e-01 3.476610e-01 3.657714e-01 3.585289e-01 3.486610e-01 3.605426e-01 3.535681e-01 3.643877e-01 3.565417e-01 3.639921e-01 3.573093e-01 3.615357e-01 3.566797e-01 3.581443e-01 3.556456e-01 3.549092e-01 3.547953e-01 3.522626e-01 3.542067e-01 3.502724e-01 3.537360e-01 3.489245e-01 3.531812e-01 3.482333e-01 3.523399e-01 3.482615e-01 3.510342e-01 3.490931e-01 3.491372e-01 3.507756e-01 3.466001e-01 3.532722e-01 3.434732e-01 3.564285e-01 3.399172e-01 3.599589e-01 3.362142e-01 3.634405e-01 3.327702e-01 3.663298e-01 3.300837e-01 3.679827e-01 3.286847e-01 3.676849e-01 3.290048e-01 3.646690e-01 3.311256e-01 3.580808e-01 3.342202e-01 3.468486e-01 3.349105e-01 3.287224e-01 3.181982e-01 3.608767e-01 7.263896e-01 3.305826e-01 4.574673e-02 2.635224e-02 1.291288e-02 4.895328e-03 
