# vtk DataFile Version 2.0
Comment goes here
ASCII

DATASET STRUCTURED_POINTS
FIELD FieldData 1
TIME 1 1 double
0.07000000
DIMENSIONS    128   16   1

ORIGIN    0.000   0.000   0.000
SPACING   0.0078125 0.015625   1.000

POINT_DATA   2048
SCALARS Omega double
LOOKUP_TABLE default

1.153794e-06 -2.045732e-07 -5.082997e-07 -2.434612e-06 -1.961369e-05 -1.191027e-04 3.347773e-05 3.978820e-04 -7.347963e-04 -1.963468e-04 4.759463e-04 2.088390e-05 -6.039470e-04 -1.478583e-03 2.028924e-03 4.392149e-04 -2.489418e-03 2.435524e-03 -1.452022e-03 -1.083393e-03 1.619767e-03 -4.010602e-04 -3.075421e-04 6.888253e-04 -3.417526e-04 -3.992543e-04 1.472358e-03 -3.006322e-04 -1.103723e-03 4.876441e-04 -3.066817e-04 -9.768567e-04 1.250117e-03 -7.959652e-04 1.053618e-03 -3.815334e-04 -9.518985e-04 2.628651e-04 -2.244444e-03 1.456458e-03 -6.590690e-04 -1.616184e-04 1.056650e-04 -1.008228e-03 3.001387e-04 -8.921564e-04 -2.178436e-04 4.517633e-04 1.139629e-03 2.545855e-03 4.100516e-03 7.625341e-03 9.180687e-03 -1.022381e-03 -5.980526e-02 -2.283971e-01 -4.876209e-01 -6.707614e-01 -5.648373e-01 -3.160098e-01 -2.146456e-01 -1.564197e-01 -1.365879e-01 -5.186828e-02 -4.641791e-02 -1.287428e-01 -1.539560e-01 -1.739169e-01 -1.170348e-02 9.612685e-02 3.020612e-01 5.207522e-01 4.386819e-01 2.620603e-01 9.788872e-02 8.497503e-03 -2.069343e-02 -2.124189e-02 -1.640459e-02 -1.095046e-02 -7.878799e-03 -4.920267e-03 -5.178225e-03 -2.920955e-03 -3.525583e-03 -2.001114e-03 -1.945709e-04 -1.782112e-03 8.951633e-04 -1.526764e-03 -1.418297e-03 7.806290e-04 -1.661823e-03 1.691720e-03 -6.510620e-04 4.709882e-04 -8.865130e-04 -2.958929e-04 1.187452e-03 -5.449847e-04 -5.341568e-04 7.376841e-04 -4.721141e-04 -6.495297e-04 1.036280e-03 -2.004220e-04 -5.036129e-04 -2.129045e-04 2.456299e-04 -4.017394e-04 3.908840e-04 4.050308e-05 -1.334012e-04 1.379617e-04 4.426934e-04 -3.322413e-04 -4.587952e-04 4.688288e-04 5.544268e-04 -5.969616e-04 -3.020180e-04 6.892403e-04 8.946129e-04 7.669960e-05 1.341301e-05 7.311642e-06 -3.723399e-06 -5.905790e-07 
-1.915418e-03 -4.478778e-03 -4.745891e-03 3.483114e-02 1.796291e-01 -2.682761e-01 -1.175084e+00 -5.954362e-01 -5.074373e-01 -5.150082e-01 -4.708061e-01 -4.353501e-01 7.346362e-01 2.559725e+00 3.428276e+00 3.137833e+00 3.316224e+00 3.366100e+00 3.120918e+00 3.386488e+00 2.778069e+00 4.949336e-01 -5.334325e-01 -5.590789e-01 -4.872626e-01 -5.500155e-01 -3.402758e-01 -2.993975e-01 -5.354380e-01 -4.701450e-01 -3.728140e-01 -6.462469e-01 -5.895509e-01 -4.191290e-01 -3.980770e-01 -4.183119e-01 -5.194786e-01 -3.209771e-01 -5.242490e-01 -4.957925e-01 -4.294178e-01 -5.534950e-01 -3.205616e-01 -3.279990e-01 -4.237716e-01 -4.674890e-01 -4.696647e-01 -4.395525e-01 -4.937694e-01 -4.539338e-01 -3.915516e-01 -3.405507e-01 -3.860143e-01 -5.223955e-01 -7.592632e-01 -1.225551e+00 -9.455580e-01 -8.549108e-01 -1.699309e+00 1.872168e-01 1.000080e+00 -7.529852e-01 -1.212533e+00 -3.194505e-01 9.681281e-01 -2.662406e-01 4.699910e-03 8.201509e-01 -5.979840e-01 -1.444354e+00 -1.858133e+00 -9.416710e-01 1.386590e-02 -1.820452e-01 -2.314778e-01 -2.989524e-01 -3.832583e-01 -4.330456e-01 -5.375978e-01 -5.727036e-01 -5.077238e-01 -4.336233e-01 -3.428354e-01 -3.572801e-01 -5.528393e-01 -5.094228e-01 -6.012997e-01 -4.091696e-01 -2.901111e-01 -5.212066e-01 -4.564168e-01 -7.067244e-01 -6.187228e-01 -3.157211e-01 -3.437312e-01 -3.347970e-01 -5.889560e-01 -5.105256e-01 -5.577040e-01 -4.691586e-01 -2.068751e-01 -4.122818e-01 -6.651043e-01 -4.902960e-01 -3.901911e-01 -4.848045e-01 -4.280633e-01 -4.484597e-01 -4.960671e-01 -5.054500e-01 -4.580699e-01 -5.314119e-01 -3.699019e-01 -3.451180e-01 -4.896350e-01 -6.918886e-01 -3.772071e-01 -2.286321e-01 -3.613885e-01 -7.744527e-01 -5.164937e-01 -6.807546e-01 -9.086799e-01 1.438500e-02 4.538360e-02 -8.517525e-03 -8.750587e-03 -3.171557e-03 
-1.578942e-02 -3.916280e-02 -9.375519e-02 6.847242e-02 1.647415e+00 7.192870e-01 -2.919340e+00 -9.836385e-01 -1.033113e+00 -9.237017e-01 -8.153271e-01 -6.143306e-01 8.774527e-01 -6.902104e-01 -1.231172e+00 -9.510923e-01 -8.142909e-01 -8.939446e-01 -8.943967e-01 -1.592818e+00 -3.023109e-01 5.446838e-01 -5.042291e-01 -9.424126e-01 -1.146434e+00 -1.128506e+00 -2.630180e-01 -6.044999e-01 -1.258766e+00 -5.922090e-01 -2.325292e-01 -1.659620e+00 -1.391102e+00 -4.292906e-01 -5.445722e-01 -9.828981e-01 -9.887823e-01 -2.675550e-01 -9.411483e-01 -8.849487e-01 -6.621648e-01 -1.086713e+00 -2.959722e-01 -1.002856e-01 -6.417518e-01 -9.962508e-01 -9.037699e-01 -8.004514e-01 -7.618097e-01 -6.662151e-01 -6.757203e-01 -5.874216e-01 -6.509444e-01 -7.883772e-01 -7.358910e-01 -6.548126e-01 4.605859e-01 1.272287e+00 -8.460037e-01 -2.775450e-01 5.356288e-01 -5.960270e-01 -6.132785e-01 -7.730935e-01 -1.336461e-01 -9.154557e-01 -7.922279e-01 -4.458366e-02 -1.121147e+00 -1.314335e+00 -1.353447e+00 -1.612929e+00 -1.740514e+00 -1.896780e+00 -1.146406e+00 -7.490339e-01 -5.849264e-01 -7.385532e-01 -1.022770e+00 -9.901838e-01 -9.338054e-01 -6.392912e-01 -3.838868e-01 -5.261171e-01 -9.136487e-01 -9.617512e-01 -1.168291e+00 -4.994088e-01 -1.628762e-01 -8.141678e-01 -7.651504e-01 -1.534300e+00 -1.351691e+00 -4.514054e-01 -2.603312e-01 -3.173197e-01 -1.125994e+00 -9.504596e-01 -1.221858e+00 -7.052393e-01 -4.596371e-02 -5.324866e-01 -1.410374e+00 -8.185816e-01 -5.169770e-01 -7.611398e-01 -5.340575e-01 -7.482442e-01 -9.098359e-01 -1.006521e+00 -8.462751e-01 -9.776538e-01 -4.412541e-01 -3.980535e-01 -8.416365e-01 -1.479079e+00 -4.656981e-01 -8.490718e-02 -3.190269e-01 -1.628531e+00 -7.559622e-01 -1.527719e+00 -1.277966e+00 1.777021e+00 2.667696e-01 -2.459220e-01 -1.161199e-01 -3.351108e-02 
-3.883627e-02 -1.037460e-01 -2.861022e-01 -5.241450e-02 3.899871e+00 4.899214e+00 2.686589e-01 1.652442e+00 1.021263e+00 1.212341e+00 8.692125e-01 7.840743e-01 -5.955124e-01 -1.130908e-01 3.705989e-01 -1.551188e-01 -1.548364e-01 -1.793573e-01 1.454937e-01 9.488742e-02 -5.341707e-01 5.508986e-04 1.969997e+00 1.238888e+00 4.044327e-01 1.049206e+00 2.043051e+00 6.997695e-01 5.616182e-01 2.055998e+00 2.352628e+00 2.278335e-01 6.200740e-01 2.109922e+00 1.645882e+00 4.812207e-01 1.239672e+00 1.859531e+00 1.389258e+00 1.397208e+00 1.505500e+00 1.221162e+00 1.768178e+00 2.389202e+00 1.542981e+00 8.155368e-01 1.115577e+00 1.199342e+00 1.732776e+00 1.726425e+00 1.232072e+00 1.125057e+00 1.215717e+00 1.421264e+00 1.835053e+00 2.082574e+00 7.486663e-01 1.773586e-01 1.441516e+00 9.710567e-01 7.010174e-01 1.925241e+00 1.802866e+00 1.259468e+00 -1.964266e-01 1.583656e+00 1.699534e+00 7.279122e-01 1.665952e+00 1.323497e+00 2.206786e+00 2.118964e+00 1.927907e+00 2.199348e+00 1.832704e+00 1.311144e+00 1.502443e+00 1.214201e+00 1.160896e+00 1.568714e+00 1.258565e+00 1.593385e+00 1.632900e+00 1.351441e+00 1.683575e+00 1.230199e+00 1.349067e+00 1.824905e+00 1.941688e+00 1.752289e+00 1.391926e+00 1.084913e+00 9.046391e-01 1.300189e+00 2.032849e+00 1.809385e+00 1.352678e+00 1.281330e+00 8.689354e-01 1.685222e+00 1.617274e+00 1.778969e+00 1.097635e+00 1.512463e+00 1.657290e+00 1.643741e+00 1.868784e+00 1.403215e+00 1.298411e+00 1.072396e+00 1.202663e+00 1.357168e+00 1.714003e+00 1.636851e+00 1.463373e+00 1.088964e+00 1.708118e+00 1.661989e+00 2.041478e+00 1.260260e+00 1.989919e+00 7.138475e-01 3.340702e+00 5.734957e+00 5.541316e-01 -7.157487e-01 -3.014846e-01 -8.234308e-02 
-3.291475e-02 -8.968430e-02 -2.654839e-01 -2.440406e-01 2.246002e+00 4.724697e+00 4.149008e+00 3.142063e+00 2.483329e+00 2.547093e+00 2.020489e+00 2.334629e+00 2.507586e+00 2.390824e+00 2.207626e+00 2.269678e+00 2.180122e+00 2.253462e+00 2.212643e+00 2.279717e+00 1.734754e+00 2.318449e+00 3.506866e+00 2.638874e+00 1.947426e+00 2.680451e+00 2.665295e+00 1.572606e+00 2.319981e+00 3.120601e+00 2.973617e+00 2.465987e+00 2.570161e+00 2.961727e+00 2.586635e+00 1.835958e+00 2.720345e+00 2.448409e+00 2.828985e+00 2.771490e+00 2.585635e+00 2.838147e+00 2.380170e+00 2.829751e+00 2.602006e+00 2.253365e+00 2.472658e+00 2.429886e+00 2.995158e+00 2.860160e+00 2.306257e+00 2.074989e+00 2.281509e+00 2.698284e+00 2.945251e+00 2.794218e+00 2.099040e+00 1.586106e+00 1.638174e+00 2.841522e+00 3.234166e+00 2.633452e+00 2.256869e+00 2.686163e+00 2.980757e+00 3.009352e+00 3.328354e+00 3.388976e+00 2.637539e+00 2.022024e+00 1.695592e+00 2.388579e+00 3.380367e+00 3.827570e+00 3.355029e+00 2.502657e+00 2.496780e+00 2.356181e+00 2.685779e+00 3.112284e+00 2.669186e+00 2.649418e+00 2.336721e+00 2.214736e+00 3.134652e+00 2.674459e+00 3.101477e+00 2.718673e+00 2.401083e+00 3.077768e+00 2.588290e+00 3.300346e+00 2.825593e+00 2.051855e+00 2.636062e+00 2.460751e+00 3.045371e+00 2.714223e+00 2.613040e+00 2.846044e+00 1.855384e+00 2.725587e+00 3.137582e+00 2.804796e+00 2.548266e+00 2.877887e+00 2.821073e+00 2.582552e+00 2.685337e+00 2.548753e+00 2.480602e+00 2.838089e+00 2.520719e+00 2.369584e+00 2.782274e+00 3.217812e+00 2.540141e+00 1.961431e+00 2.744909e+00 3.634813e+00 3.338935e+00 2.958008e+00 5.786803e+00 4.080810e+00 -2.067446e-01 -7.674481e-01 -2.789125e-01 -7.260657e-02 
-9.721690e-03 -2.992901e-02 -1.086709e-01 -2.854601e-01 -3.114923e-01 8.570168e-01 2.231455e+00 1.063453e+00 9.137667e-01 9.006195e-01 7.208449e-01 1.105501e+00 2.281319e+00 1.708540e+00 1.320991e+00 1.318223e+00 1.305472e+00 1.300977e+00 1.291165e+00 1.274951e+00 1.534371e+00 1.872542e+00 1.229001e+00 9.097970e-01 8.581391e-01 1.054013e+00 6.874215e-01 5.482070e-01 1.036657e+00 9.390205e-01 7.514018e-01 1.235332e+00 1.152161e+00 8.326937e-01 7.812349e-01 7.796591e-01 1.011540e+00 6.254507e-01 1.021973e+00 9.796900e-01 8.382309e-01 1.086148e+00 6.204884e-01 6.530538e-01 8.313206e-01 9.036338e-01 9.178454e-01 8.633814e-01 9.949102e-01 9.208413e-01 7.841105e-01 6.933838e-01 7.898879e-01 9.637866e-01 8.965607e-01 6.042471e-01 2.078076e+00 3.383491e+00 6.844133e-01 1.174049e+00 1.845499e+00 6.568679e-01 1.275732e+00 5.887827e-01 1.877769e+00 6.570272e-01 5.746445e-01 1.647844e+00 2.929118e-01 9.483777e-01 6.952414e-01 9.608275e-01 3.127279e-01 -2.043951e-01 5.681315e-01 7.333848e-01 7.814135e-01 8.185893e-01 1.029549e+00 1.120795e+00 9.763963e-01 8.396909e-01 6.461524e-01 6.769146e-01 1.090611e+00 9.855156e-01 1.189906e+00 7.935057e-01 5.627534e-01 1.032320e+00 8.776881e-01 1.400825e+00 1.196758e+00 5.950234e-01 6.708674e-01 6.489258e-01 1.159058e+00 9.890708e-01 1.080742e+00 9.210392e-01 3.686283e-01 8.136418e-01 1.304624e+00 9.586958e-01 7.515705e-01 9.533597e-01 8.372434e-01 8.688740e-01 9.678823e-01 9.724938e-01 8.830469e-01 1.036139e+00 7.183367e-01 6.620387e-01 9.596653e-01 1.357972e+00 7.303614e-01 4.170963e-01 7.306354e-01 1.541607e+00 1.111535e+00 1.344815e+00 2.004330e+00 6.344741e-02 -5.070876e-01 -2.781030e-01 -8.608862e-02 -2.019791e-02 
-1.429067e-03 -4.072082e-03 -1.813312e-02 -5.996821e-02 -1.340349e-01 -1.249907e-01 2.274025e-02 -3.810393e-02 -6.565647e-02 -7.626521e-02 -1.093476e-01 2.092110e-01 2.080826e+00 1.800667e+00 8.912423e-01 8.900417e-01 8.894798e-01 8.892726e-01 8.887220e-01 8.897937e-01 1.765765e+00 1.933435e+00 4.394354e-03 -1.814394e-01 -9.605269e-02 -4.607849e-02 -5.252301e-02 -5.343721e-02 -2.920949e-02 -4.107117e-02 -4.794168e-02 -2.374526e-02 -3.130591e-02 -4.281794e-02 -4.881480e-02 -4.445276e-02 -3.605990e-02 -5.485136e-02 -3.263044e-02 -4.012767e-02 -4.249507e-02 -3.312846e-02 -5.461247e-02 -5.256100e-02 -4.537974e-02 -3.800846e-02 -3.864903e-02 -4.161606e-02 -3.733815e-02 -4.143848e-02 -4.662392e-02 -5.084143e-02 -4.393712e-02 -3.813290e-02 -1.115644e-01 -3.885781e-01 -2.565300e-01 3.601176e-01 -3.165648e-02 -2.503910e-01 -2.192094e-01 -1.387048e-01 2.072567e-01 -4.692962e-01 -2.294241e-01 -5.699052e-02 -2.436370e-01 -1.644136e-01 -2.745041e-01 -8.695449e-02 4.693374e-01 9.777299e-01 -1.807776e-02 -7.380742e-01 -3.712650e-01 -1.214611e-01 -4.475329e-02 -3.199922e-02 -2.352554e-02 -2.471997e-02 -3.310556e-02 -4.353869e-02 -4.984939e-02 -5.047769e-02 -3.008281e-02 -3.583980e-02 -3.042878e-02 -4.534668e-02 -5.992264e-02 -3.468754e-02 -3.965866e-02 -2.174205e-02 -2.531249e-02 -5.883432e-02 -5.169143e-02 -5.375892e-02 -2.864680e-02 -3.708692e-02 -3.584841e-02 -4.094701e-02 -6.395446e-02 -4.757292e-02 -2.229783e-02 -3.833424e-02 -5.072155e-02 -4.026676e-02 -4.402850e-02 -4.286862e-02 -3.909857e-02 -3.733493e-02 -4.394021e-02 -3.521860e-02 -5.057141e-02 -5.051887e-02 -4.153851e-02 -1.881665e-02 -5.132265e-02 -6.078173e-02 -5.309735e-02 -7.670659e-03 -3.875361e-02 -2.539582e-03 1.074228e-02 -1.483656e-01 -1.214221e-01 -5.023465e-02 -1.502172e-02 -3.377795e-03 
-2.118887e-04 -6.034891e-04 -2.234140e-03 -7.284563e-03 -1.812035e-02 -2.972165e-02 -2.573623e-02 -2.432289e-02 -2.819846e-02 -4.065664e-02 -5.797550e-02 8.795650e-02 1.045887e+00 8.951116e-01 4.458692e-01 4.453464e-01 4.453454e-01 4.453453e-01 4.453471e-01 4.462716e-01 8.801928e-01 9.617319e-01 -4.531289e-02 -1.177328e-01 -5.908707e-02 -3.040573e-02 -2.175277e-02 -2.006328e-02 -1.974044e-02 -2.008826e-02 -2.010482e-02 -2.014123e-02 -2.034054e-02 -2.005276e-02 -2.034114e-02 -2.018072e-02 -2.032451e-02 -2.029173e-02 -2.009830e-02 -2.031530e-02 -2.012805e-02 -2.030800e-02 -2.032920e-02 -2.029583e-02 -2.036060e-02 -2.019708e-02 -2.026570e-02 -2.038067e-02 -2.059689e-02 -2.087025e-02 -2.118603e-02 -2.144443e-02 -2.079383e-02 -1.809679e-02 -1.896042e-02 -5.137107e-02 -1.256343e-01 -1.550376e-01 -1.043022e-01 -9.442289e-02 -8.604323e-02 -8.423854e-02 -9.028949e-02 -7.296053e-02 -1.191296e-01 -1.567639e-01 -1.856375e-01 -2.248112e-01 -2.024906e-01 -1.717239e-01 -4.897761e-02 -2.905499e-02 -1.745411e-01 -1.635332e-01 -7.909616e-02 -3.341323e-02 -2.001700e-02 -1.799392e-02 -1.826780e-02 -1.891091e-02 -1.933401e-02 -1.985768e-02 -1.986535e-02 -2.005329e-02 -1.994425e-02 -2.000478e-02 -2.027426e-02 -2.018628e-02 -2.036030e-02 -2.027158e-02 -2.000875e-02 -2.042668e-02 -2.011327e-02 -2.048755e-02 -2.026653e-02 -2.026113e-02 -2.020478e-02 -2.020019e-02 -2.042852e-02 -2.032260e-02 -2.017666e-02 -2.034045e-02 -2.018744e-02 -2.021194e-02 -2.036061e-02 -2.035656e-02 -2.019352e-02 -2.025134e-02 -2.027263e-02 -2.024984e-02 -2.038670e-02 -2.028452e-02 -2.032545e-02 -2.012982e-02 -2.047336e-02 -2.021239e-02 -2.053087e-02 -2.017990e-02 -2.075886e-02 -2.044221e-02 -2.243568e-02 -2.248319e-02 -2.393733e-02 -2.514069e-02 -1.430905e-02 -5.142764e-03 -1.391300e-03 -2.417452e-04 
4.350625e-06 -5.748055e-07 3.199911e-06 -5.865705e-07 2.156760e-06 -1.872398e-07 -9.766581e-07 1.865810e-06 2.923491e-06 3.122895e-06 -7.362055e-06 3.596044e-05 1.131910e-02 9.827038e-03 1.055353e-05 -8.897830e-08 -7.877839e-08 -1.723280e-07 -2.413995e-07 -6.319631e-05 -3.551225e-02 6.379817e-04 6.906966e-04 -1.254174e-04 5.392188e-05 -1.076257e-05 1.158612e-05 -5.353481e-06 4.212384e-06 -8.503084e-06 -2.321751e-06 -1.088309e-05 -1.108642e-06 6.936649e-06 -3.416888e-07 1.018613e-05 -1.036726e-05 2.874620e-06 -1.744501e-06 7.522247e-07 3.746950e-06 -1.673193e-05 -1.953532e-05 -3.317747e-05 -3.787507e-05 -4.466105e-05 -7.065482e-05 -1.023503e-04 -1.534727e-04 -2.174511e-04 -2.856263e-04 -3.489820e-04 -2.482616e-04 3.567741e-04 1.701722e-03 1.721790e-03 -3.565181e-03 -1.154723e-02 -9.239839e-03 -6.714359e-03 -9.541360e-03 -8.135071e-03 -8.774138e-03 -5.095876e-03 -8.044597e-03 -1.792682e-02 -2.211114e-02 -3.054481e-02 -2.957443e-02 -2.419009e-02 -1.466976e-02 -1.150650e-02 -2.077376e-02 -1.538567e-02 -5.709525e-03 -8.532251e-04 5.855432e-04 7.973189e-04 6.722651e-04 5.326344e-04 3.818757e-04 2.649867e-04 1.825809e-04 1.239027e-04 9.621571e-05 5.931969e-05 4.611293e-05 1.822962e-05 1.564585e-05 9.936297e-06 7.653371e-06 6.854672e-06 -4.612472e-06 -3.650172e-06 -3.700699e-06 1.116366e-06 3.345151e-06 -1.990301e-06 -3.787551e-06 -3.009844e-06 -3.953185e-06 5.335671e-06 -1.368751e-06 3.788055e-06 -9.129504e-06 3.985047e-06 -4.966827e-06 5.010414e-06 -2.286971e-07 -4.014307e-06 -1.475561e-06 -9.553316e-06 6.930562e-06 -5.450027e-06 6.727794e-06 -9.063985e-06 -1.091884e-06 -4.311370e-07 -3.141062e-07 1.086842e-05 -1.454812e-05 6.138405e-06 -1.515432e-05 -6.916487e-06 4.648804e-06 -4.378886e-06 5.659992e-06 -1.651394e-06 
2.137939e-04 5.982484e-04 2.235327e-03 7.280821e-03 1.812363e-02 2.973766e-02 2.573815e-02 2.428438e-02 2.825709e-02 4.066439e-02 5.784057e-02 -8.857952e-02 -1.013523e+00 -8.820855e-01 -4.458521e-01 -4.453463e-01 -4.453454e-01 -4.453457e-01 -4.453481e-01 -4.464331e-01 -9.670355e-01 -9.885327e-01 4.662042e-02 1.173074e-01 5.919003e-02 3.038036e-02 2.164248e-02 2.012041e-02 1.989461e-02 2.005965e-02 2.009031e-02 2.020874e-02 2.022324e-02 2.024089e-02 2.028403e-02 2.025899e-02 2.033345e-02 2.027520e-02 2.033163e-02 2.030038e-02 2.027821e-02 2.029613e-02 2.023572e-02 2.024409e-02 2.021997e-02 2.017473e-02 2.012116e-02 1.999998e-02 1.986958e-02 1.966312e-02 1.941890e-02 1.905419e-02 1.865601e-02 1.814957e-02 1.766693e-02 1.709120e-02 1.613730e-02 1.492864e-02 1.499923e-02 1.587717e-02 1.611589e-02 1.722155e-02 1.790259e-02 1.907455e-02 1.948956e-02 1.892752e-02 1.908347e-02 1.856944e-02 1.976704e-02 2.120541e-02 2.305111e-02 2.416611e-02 2.406005e-02 2.408264e-02 2.382267e-02 2.318416e-02 2.247330e-02 2.193503e-02 2.147206e-02 2.118935e-02 2.090250e-02 2.076083e-02 2.060023e-02 2.054440e-02 2.046293e-02 2.045692e-02 2.036898e-02 2.039308e-02 2.027814e-02 2.035504e-02 2.027340e-02 2.033243e-02 2.030145e-02 2.026760e-02 2.028188e-02 2.024026e-02 2.029877e-02 2.027798e-02 2.027591e-02 2.029242e-02 2.023337e-02 2.028952e-02 2.025714e-02 2.030583e-02 2.023624e-02 2.030754e-02 2.023684e-02 2.030759e-02 2.026162e-02 2.028382e-02 2.028321e-02 2.024401e-02 2.032861e-02 2.020068e-02 2.042212e-02 2.020066e-02 2.053736e-02 2.014751e-02 2.073186e-02 2.054660e-02 2.247020e-02 2.240063e-02 2.379528e-02 2.510117e-02 1.431895e-02 5.134861e-03 1.398525e-03 2.349665e-04 
1.439841e-03 4.075879e-03 1.813669e-02 5.997010e-02 1.341447e-01 1.248223e-01 -2.517656e-02 3.471888e-02 6.986456e-02 8.006659e-02 1.107448e-01 -2.016821e-01 -2.060404e+00 -1.791636e+00 -8.906563e-01 -8.896792e-01 -8.896961e-01 -8.896129e-01 -8.901163e-01 -8.921623e-01 -1.903375e+00 -1.967255e+00 1.399957e-02 1.934845e-01 1.041043e-01 5.508380e-02 3.348789e-02 2.814558e-02 2.386077e-02 3.284928e-02 3.723396e-02 4.562213e-02 5.011879e-02 4.715181e-02 4.626759e-02 3.991295e-02 3.797522e-02 3.764649e-02 3.992504e-02 4.458401e-02 4.381812e-02 4.437394e-02 4.040257e-02 3.999211e-02 3.994300e-02 4.001668e-02 4.357065e-02 4.487549e-02 4.669074e-02 4.553988e-02 4.225282e-02 4.132505e-02 4.000116e-02 3.745763e-02 3.358838e-02 2.810185e-02 2.160591e-02 1.718974e-02 1.673820e-02 2.270701e-02 2.673290e-02 3.188488e-02 3.452747e-02 3.802608e-02 3.996085e-02 3.959597e-02 4.306073e-02 4.560327e-02 5.268183e-02 5.528109e-02 5.996547e-02 6.355362e-02 6.514655e-02 6.458148e-02 6.168272e-02 5.647907e-02 4.905743e-02 4.346147e-02 4.130311e-02 4.331100e-02 4.466091e-02 4.535600e-02 4.122256e-02 3.859175e-02 3.774823e-02 4.188321e-02 4.885918e-02 4.920803e-02 4.721756e-02 4.330439e-02 3.766469e-02 4.336058e-02 4.147648e-02 4.620321e-02 4.111343e-02 4.141692e-02 4.077915e-02 4.500938e-02 4.897510e-02 4.646571e-02 4.366142e-02 4.112328e-02 4.238429e-02 4.132361e-02 4.587519e-02 4.462647e-02 4.581112e-02 4.470861e-02 4.790215e-02 4.378282e-02 4.673063e-02 4.053791e-02 4.405213e-02 3.922771e-02 4.849044e-02 4.130447e-02 5.013544e-02 3.863676e-02 4.731052e-02 3.072733e-02 4.930696e-02 -1.388890e-02 -2.439150e-02 1.461998e-01 1.212779e-01 5.021246e-02 1.505366e-02 3.385943e-03 
9.707197e-03 2.992423e-02 1.086544e-01 2.858093e-01 3.117086e-01 -8.683107e-01 -2.284532e+00 -1.122703e+00 -8.493361e-01 -8.286566e-01 -6.746309e-01 -9.272914e-01 -2.139599e+00 -1.766511e+00 -1.307681e+00 -1.311287e+00 -1.312171e+00 -1.310144e+00 -1.321995e+00 -1.322144e+00 -1.893412e+00 -2.092092e+00 -8.103840e-01 -5.988393e-01 -7.050378e-01 -8.485876e-01 -1.026884e+00 -1.163801e+00 -1.247416e+00 -1.075485e+00 -9.602647e-01 -8.021728e-01 -7.013990e-01 -7.625802e-01 -8.066676e-01 -9.217730e-01 -9.941088e-01 -9.859241e-01 -9.714694e-01 -8.512292e-01 -8.580677e-01 -8.597391e-01 -9.236762e-01 -9.385415e-01 -9.488626e-01 -9.540491e-01 -8.723218e-01 -8.195179e-01 -7.732784e-01 -7.857975e-01 -8.375531e-01 -8.347688e-01 -8.362876e-01 -8.469826e-01 -8.451544e-01 -8.575594e-01 -8.811619e-01 -9.007049e-01 -9.219984e-01 -8.889077e-01 -8.632682e-01 -8.497519e-01 -8.489842e-01 -8.628226e-01 -8.813339e-01 -9.302139e-01 -9.141249e-01 -8.778206e-01 -8.598798e-01 -8.991505e-01 -9.386521e-01 -9.411025e-01 -8.978964e-01 -8.380101e-01 -7.947399e-01 -8.196048e-01 -9.196079e-01 -1.009364e+00 -1.023196e+00 -9.631628e-01 -8.970278e-01 -8.652795e-01 -9.361140e-01 -1.002307e+00 -1.026556e+00 -9.276394e-01 -7.580154e-01 -7.516362e-01 -7.779291e-01 -9.042273e-01 -9.934722e-01 -8.936909e-01 -9.041727e-01 -8.043090e-01 -9.151096e-01 -8.999131e-01 -9.308320e-01 -8.263927e-01 -7.403913e-01 -7.938837e-01 -8.470081e-01 -9.189262e-01 -8.852872e-01 -9.108762e-01 -8.110407e-01 -8.543769e-01 -8.156980e-01 -8.480251e-01 -7.802916e-01 -8.553372e-01 -7.993136e-01 -9.140138e-01 -8.769875e-01 -9.284160e-01 -7.836312e-01 -8.637325e-01 -7.573023e-01 -8.927406e-01 -8.380142e-01 -1.062003e+00 -8.913246e-01 -1.681736e+00 -2.283113e+00 -9.591060e-02 5.047302e-01 2.776466e-01 8.605510e-02 2.021237e-02 
3.285167e-02 8.967765e-02 2.657271e-01 2.495181e-01 -2.274646e+00 -4.811691e+00 -4.209789e+00 -3.195278e+00 -2.403063e+00 -2.547525e+00 -2.053661e+00 -1.991104e+00 -2.328893e+00 -2.395368e+00 -2.149190e+00 -2.332081e+00 -2.290826e+00 -2.380854e+00 -2.336694e+00 -2.364658e+00 -2.555756e+00 -2.554636e+00 -2.175963e+00 -2.140002e+00 -2.179455e+00 -2.072480e+00 -2.606759e+00 -3.001086e+00 -3.245071e+00 -2.689318e+00 -2.542273e+00 -2.358410e+00 -2.343084e+00 -2.435997e+00 -2.627162e+00 -2.529471e+00 -2.584970e+00 -2.756924e+00 -3.011757e+00 -2.766069e+00 -2.700551e+00 -2.746218e+00 -2.687817e+00 -2.511566e+00 -2.641999e+00 -2.802715e+00 -2.578472e+00 -2.327187e+00 -2.335379e+00 -2.418557e+00 -2.450783e+00 -2.540800e+00 -2.629553e+00 -2.796078e+00 -2.599259e+00 -2.595898e+00 -2.613953e+00 -2.764362e+00 -2.819403e+00 -2.703911e+00 -2.606596e+00 -2.473293e+00 -2.515343e+00 -2.464185e+00 -2.574495e+00 -2.763557e+00 -2.666117e+00 -2.528615e+00 -2.536344e+00 -2.783271e+00 -2.896862e+00 -2.819558e+00 -2.808787e+00 -2.702737e+00 -2.555906e+00 -2.507383e+00 -2.702234e+00 -2.815405e+00 -2.808645e+00 -2.773043e+00 -2.625067e+00 -2.441533e+00 -2.486062e+00 -2.777570e+00 -2.992906e+00 -2.733171e+00 -2.444389e+00 -2.377856e+00 -2.658560e+00 -2.956686e+00 -3.001038e+00 -2.690541e+00 -2.551293e+00 -2.550412e+00 -2.722365e+00 -2.686195e+00 -2.621595e+00 -2.501776e+00 -2.292950e+00 -2.399465e+00 -2.494791e+00 -2.719804e+00 -2.439109e+00 -2.614071e+00 -2.599456e+00 -2.866042e+00 -2.673300e+00 -2.714879e+00 -2.669793e+00 -2.612575e+00 -2.492522e+00 -2.680731e+00 -2.867794e+00 -2.796421e+00 -2.521866e+00 -2.461921e+00 -2.481460e+00 -2.680737e+00 -2.855363e+00 -2.939198e+00 -2.841968e+00 -3.319000e+00 -6.268814e+00 -4.067855e+00 2.156823e-01 7.616646e-01 2.785069e-01 7.266453e-02 
3.887534e-02 1.037247e-01 2.863989e-01 5.869565e-02 -3.943738e+00 -5.000665e+00 -2.241835e-01 -1.575645e+00 -1.062839e+00 -1.410581e+00 -1.048962e+00 -7.241186e-01 3.853833e-01 1.806365e-01 -1.798875e-01 6.108720e-02 -1.406202e-02 2.839307e-02 -1.153321e-01 -1.024102e-01 1.095760e-01 2.670098e-01 -1.015797e+00 -1.304094e+00 -1.180384e+00 -6.539635e-01 -1.037241e+00 -1.265728e+00 -1.434264e+00 -1.011674e+00 -1.103936e+00 -1.232435e+00 -1.490171e+00 -1.462647e+00 -1.645026e+00 -1.178781e+00 -1.068504e+00 -1.361537e+00 -1.797194e+00 -1.740046e+00 -1.617072e+00 -1.682530e+00 -1.418467e+00 -1.099903e+00 -1.273029e+00 -1.512270e+00 -1.376397e+00 -1.128265e+00 -1.260067e+00 -1.358385e+00 -1.264915e+00 -1.413844e+00 -1.541666e+00 -1.775539e+00 -1.471609e+00 -1.440350e+00 -1.412370e+00 -1.605840e+00 -1.637508e+00 -1.536111e+00 -1.450776e+00 -1.270331e+00 -1.338415e+00 -1.211132e+00 -1.334986e+00 -1.498198e+00 -1.390834e+00 -1.274957e+00 -1.331060e+00 -1.606647e+00 -1.666693e+00 -1.528435e+00 -1.626960e+00 -1.630508e+00 -1.526313e+00 -1.393417e+00 -1.431210e+00 -1.369749e+00 -1.323468e+00 -1.434415e+00 -1.384464e+00 -1.184185e+00 -1.063696e+00 -1.341617e+00 -1.615829e+00 -1.474989e+00 -1.485080e+00 -1.395440e+00 -1.770253e+00 -1.889754e+00 -1.724817e+00 -1.500917e+00 -1.260391e+00 -1.528971e+00 -1.500005e+00 -1.483878e+00 -1.295256e+00 -1.392605e+00 -1.297198e+00 -1.322483e+00 -1.326862e+00 -1.485407e+00 -1.130792e+00 -1.343783e+00 -1.584463e+00 -1.893615e+00 -1.686586e+00 -1.671677e+00 -1.776270e+00 -1.492509e+00 -1.448004e+00 -1.441880e+00 -1.829318e+00 -1.584209e+00 -1.536923e+00 -1.232666e+00 -1.549974e+00 -1.502501e+00 -1.928445e+00 -1.455531e+00 -1.809382e+00 -3.857617e-01 -3.336869e+00 -5.627158e+00 -5.397193e-01 7.055011e-01 3.012279e-01 8.236894e-02 
1.581901e-02 3.914691e-02 9.388094e-02 -6.634624e-02 -1.662236e+00 -7.427063e-01 2.998852e+00 1.089913e+00 9.390246e-01 7.554713e-01 6.873961e-01 4.019518e-01 -1.023865e+00 4.201278e-01 9.923253e-01 1.238369e+00 1.105084e+00 1.275078e+00 1.164106e+00 1.571285e+00 3.661564e-01 -4.775829e-01 3.423721e-01 5.232961e-01 6.617310e-01 1.016133e+00 1.069592e+00 1.169254e+00 1.199299e+00 1.157346e+00 9.673099e-01 7.307079e-01 4.988340e-01 5.946928e-01 5.758069e-01 9.010967e-01 1.031929e+00 9.121140e-01 7.297288e-01 5.996511e-01 6.574387e-01 6.338587e-01 8.158278e-01 9.553408e-01 9.073341e-01 8.219685e-01 7.769839e-01 8.026444e-01 7.024044e-01 6.804815e-01 7.889864e-01 7.331073e-01 6.975971e-01 6.264499e-01 7.485841e-01 7.784483e-01 8.206691e-01 7.661843e-01 7.794665e-01 7.803234e-01 7.779624e-01 8.277962e-01 7.963219e-01 8.633243e-01 8.313104e-01 8.279443e-01 8.367588e-01 8.307538e-01 7.787217e-01 7.237626e-01 7.501261e-01 8.068249e-01 7.127647e-01 6.301050e-01 6.138577e-01 6.920614e-01 8.068065e-01 9.414551e-01 9.788595e-01 8.591827e-01 7.958132e-01 8.309011e-01 9.660029e-01 9.441438e-01 8.699747e-01 8.003053e-01 5.807908e-01 6.089740e-01 4.967405e-01 6.137236e-01 7.840412e-01 7.475823e-01 8.470962e-01 6.211845e-01 7.703698e-01 7.583267e-01 8.698078e-01 6.999346e-01 6.292382e-01 6.843473e-01 7.520372e-01 7.805814e-01 8.773465e-01 8.209726e-01 6.124572e-01 5.404771e-01 5.813139e-01 6.176022e-01 5.024532e-01 6.943261e-01 6.483950e-01 7.875331e-01 5.990823e-01 7.554564e-01 5.919222e-01 8.092191e-01 5.477770e-01 7.439769e-01 4.961758e-01 9.665302e-01 5.450854e-01 2.071330e+00 1.636758e+00 -1.707647e+00 -2.639584e-01 2.423408e-01 1.160969e-01 3.351574e-02 
1.903904e-03 4.466875e-03 4.734617e-03 -3.481193e-02 -1.793937e-01 2.724986e-01 1.199724e+00 6.271022e-01 4.747949e-01 4.754829e-01 4.462057e-01 3.455289e-01 -7.634672e-01 -2.630932e+00 -3.536365e+00 -3.025846e+00 -3.206196e+00 -3.215477e+00 -3.018359e+00 -3.411547e+00 -2.696317e+00 -4.996018e-01 3.454264e-01 4.067714e-01 4.014494e-01 4.540677e-01 5.230096e-01 5.903286e-01 6.245201e-01 5.526143e-01 4.921985e-01 4.174363e-01 3.620190e-01 3.963849e-01 4.120054e-01 4.773863e-01 5.119776e-01 5.054203e-01 4.912946e-01 4.340185e-01 4.411388e-01 4.396275e-01 4.767146e-01 4.874430e-01 4.923164e-01 4.905128e-01 4.560487e-01 4.340507e-01 4.140141e-01 4.195705e-01 4.512809e-01 4.515141e-01 4.576874e-01 4.639952e-01 4.702402e-01 4.623950e-01 4.380844e-01 4.065830e-01 4.247342e-01 4.466290e-01 4.514191e-01 4.621152e-01 4.661459e-01 4.804129e-01 4.796132e-01 4.865808e-01 4.634341e-01 4.423000e-01 4.582168e-01 5.031263e-01 5.540242e-01 5.781079e-01 5.234723e-01 4.494736e-01 4.034720e-01 4.076886e-01 4.584643e-01 5.050307e-01 5.168564e-01 4.872727e-01 4.588333e-01 4.469985e-01 4.846861e-01 5.132582e-01 5.210612e-01 4.760046e-01 3.928788e-01 3.921576e-01 3.992910e-01 4.590946e-01 5.044951e-01 4.595071e-01 4.673521e-01 4.155268e-01 4.695525e-01 4.630196e-01 4.802217e-01 4.277642e-01 3.878745e-01 4.126204e-01 4.402180e-01 4.711183e-01 4.623314e-01 4.681246e-01 4.201372e-01 4.317447e-01 4.213741e-01 4.322249e-01 4.022143e-01 4.389432e-01 4.150661e-01 4.690232e-01 4.455903e-01 4.765983e-01 4.033100e-01 4.515401e-01 3.869354e-01 4.638193e-01 4.157622e-01 5.430758e-01 4.105236e-01 8.495615e-01 1.050574e+00 -8.030801e-04 -4.597153e-02 8.543605e-03 8.738942e-03 3.160313e-03 
