# vtk DataFile Version 2.0
Comment goes here
ASCII

DATASET STRUCTURED_POINTS
FIELD FieldData 1
TIME 1 1 double
0.78000000
DIMENSIONS    128   16   1

ORIGIN    0.000   0.000   0.000
SPACING   0.0078125 0.015625   1.000

POINT_DATA   2048
SCALARS P double
LOOKUP_TABLE default

-1.799908e-01 -1.821028e-01 -1.803789e-01 -1.846790e-01 -1.783455e-01 -1.863638e-01 -1.723983e-01 -1.862982e-01 -1.736874e-01 -1.836284e-01 -1.744908e-01 -1.795151e-01 -1.731526e-01 -1.728048e-01 -1.671010e-01 -1.628494e-01 -1.581167e-01 -1.494934e-01 -1.481432e-01 -1.364461e-01 -1.384398e-01 -1.276786e-01 -1.323377e-01 -1.235352e-01 -1.301514e-01 -1.213106e-01 -1.292987e-01 -1.199936e-01 -1.287294e-01 -1.191721e-01 -1.278933e-01 -1.185616e-01 -1.265038e-01 -1.180258e-01 -1.246072e-01 -1.176533e-01 -1.225098e-01 -1.175628e-01 -1.204466e-01 -1.176146e-01 -1.183912e-01 -1.174667e-01 -1.162737e-01 -1.169224e-01 -1.142407e-01 -1.160491e-01 -1.125583e-01 -1.149601e-01 -1.113470e-01 -1.136315e-01 -1.105376e-01 -1.120386e-01 -1.101323e-01 -1.104500e-01 -1.104300e-01 -1.095327e-01 -1.121032e-01 -1.104798e-01 -1.174694e-01 -1.107913e-01 -1.237204e-01 -1.165206e-01 -1.269243e-01 -1.249460e-01 -1.300545e-01 -1.355727e-01 -1.358818e-01 -1.426202e-01 -1.478187e-01 -1.472567e-01 -1.602602e-01 -1.552018e-01 -1.697038e-01 -1.659170e-01 -1.731529e-01 -1.702813e-01 -1.736634e-01 -1.722561e-01 -1.733920e-01 -1.733909e-01 -1.731720e-01 -1.740934e-01 -1.731567e-01 -1.743215e-01 -1.733308e-01 -1.740861e-01 -1.738025e-01 -1.735645e-01 -1.747029e-01 -1.729045e-01 -1.759835e-01 -1.721221e-01 -1.774411e-01 -1.712297e-01 -1.788845e-01 -1.703579e-01 -1.801833e-01 -1.696904e-01 -1.811767e-01 -1.693493e-01 -1.816624e-01 -1.694285e-01 -1.815206e-01 -1.700530e-01 -1.807438e-01 -1.712865e-01 -1.793557e-01 -1.730486e-01 -1.774279e-01 -1.751565e-01 -1.751455e-01 -1.773526e-01 -1.727923e-01 -1.792973e-01 -1.707329e-01 -1.806266e-01 -1.694135e-01 -1.810249e-01 -1.692975e-01 -1.802918e-01 -1.707783e-01 -1.785294e-01 -1.742341e-01 -1.758496e-01 -1.761716e-01 -1.768090e-01 -1.783081e-01 -1.792524e-01 
-1.662094e-01 -1.690137e-01 -1.663324e-01 -1.712177e-01 -1.635902e-01 -1.726766e-01 -1.549962e-01 -1.707631e-01 -1.569072e-01 -1.658947e-01 -1.585278e-01 -1.596250e-01 -1.588893e-01 -1.512163e-01 -1.573496e-01 -1.430234e-01 -1.543140e-01 -1.358961e-01 -1.499819e-01 -1.294464e-01 -1.438977e-01 -1.236970e-01 -1.371791e-01 -1.203194e-01 -1.335498e-01 -1.181264e-01 -1.312594e-01 -1.165462e-01 -1.294758e-01 -1.154909e-01 -1.277444e-01 -1.147198e-01 -1.256175e-01 -1.140030e-01 -1.230442e-01 -1.134143e-01 -1.203185e-01 -1.131132e-01 -1.177524e-01 -1.130569e-01 -1.153796e-01 -1.128736e-01 -1.129896e-01 -1.121461e-01 -1.105252e-01 -1.109073e-01 -1.084508e-01 -1.096220e-01 -1.071822e-01 -1.083477e-01 -1.065338e-01 -1.068481e-01 -1.063057e-01 -1.051691e-01 -1.066196e-01 -1.038759e-01 -1.084286e-01 -1.046341e-01 -1.153536e-01 -1.032869e-01 -1.199979e-01 -1.071757e-01 -1.190453e-01 -1.165064e-01 -1.162146e-01 -1.247528e-01 -1.175848e-01 -1.274538e-01 -1.282615e-01 -1.282816e-01 -1.441739e-01 -1.364295e-01 -1.574391e-01 -1.524925e-01 -1.625400e-01 -1.588276e-01 -1.631343e-01 -1.613647e-01 -1.626978e-01 -1.628945e-01 -1.626935e-01 -1.641610e-01 -1.630238e-01 -1.646587e-01 -1.630676e-01 -1.640507e-01 -1.629093e-01 -1.629251e-01 -1.633072e-01 -1.620421e-01 -1.645337e-01 -1.614121e-01 -1.661932e-01 -1.608412e-01 -1.679108e-01 -1.602104e-01 -1.692051e-01 -1.593661e-01 -1.697572e-01 -1.585342e-01 -1.696649e-01 -1.582087e-01 -1.692095e-01 -1.588437e-01 -1.685286e-01 -1.603968e-01 -1.672913e-01 -1.623206e-01 -1.651560e-01 -1.642500e-01 -1.624340e-01 -1.663299e-01 -1.598779e-01 -1.684954e-01 -1.577997e-01 -1.700893e-01 -1.563964e-01 -1.706624e-01 -1.562028e-01 -1.699192e-01 -1.576694e-01 -1.676042e-01 -1.613780e-01 -1.625948e-01 -1.630050e-01 -1.642084e-01 -1.647988e-01 -1.665259e-01 
-1.826909e-01 -1.827565e-01 -1.853493e-01 -1.866171e-01 -1.863811e-01 -1.900856e-01 -1.581920e-01 -1.915465e-01 -1.746854e-01 -1.864382e-01 -1.789833e-01 -1.853014e-01 -1.832778e-01 -1.788701e-01 -1.713464e-01 -1.684080e-01 -1.587881e-01 -1.474566e-01 -1.464883e-01 -1.261096e-01 -1.306994e-01 -1.191505e-01 -1.251177e-01 -1.198825e-01 -1.278922e-01 -1.196859e-01 -1.292157e-01 -1.190209e-01 -1.295286e-01 -1.185782e-01 -1.291361e-01 -1.182725e-01 -1.276632e-01 -1.177805e-01 -1.252028e-01 -1.173019e-01 -1.223491e-01 -1.172056e-01 -1.197295e-01 -1.175825e-01 -1.174675e-01 -1.178477e-01 -1.150548e-01 -1.171248e-01 -1.121258e-01 -1.154197e-01 -1.095591e-01 -1.137898e-01 -1.082007e-01 -1.122337e-01 -1.073560e-01 -1.097812e-01 -1.059431e-01 -1.054913e-01 -1.026635e-01 -9.846112e-02 -9.326441e-02 -1.083384e-01 -1.099913e-01 -8.273516e-02 -1.344620e-01 -1.016039e-01 -1.250790e-01 -1.152783e-01 -1.160398e-01 -1.523754e-01 -1.067155e-01 -1.546024e-01 -1.443048e-01 -1.337238e-01 -1.749087e-01 -1.455238e-01 -2.002791e-01 -1.972180e-01 -1.907858e-01 -1.847390e-01 -1.805542e-01 -1.782927e-01 -1.750971e-01 -1.761744e-01 -1.735832e-01 -1.766194e-01 -1.739051e-01 -1.768613e-01 -1.736945e-01 -1.753343e-01 -1.727415e-01 -1.730949e-01 -1.727839e-01 -1.718170e-01 -1.745216e-01 -1.713672e-01 -1.771238e-01 -1.711648e-01 -1.799080e-01 -1.707621e-01 -1.818459e-01 -1.695253e-01 -1.823393e-01 -1.678628e-01 -1.818944e-01 -1.669062e-01 -1.813904e-01 -1.676813e-01 -1.812084e-01 -1.700180e-01 -1.804314e-01 -1.725919e-01 -1.780191e-01 -1.747034e-01 -1.745048e-01 -1.771259e-01 -1.714475e-01 -1.801660e-01 -1.690797e-01 -1.825638e-01 -1.672191e-01 -1.835779e-01 -1.665411e-01 -1.827035e-01 -1.672644e-01 -1.806186e-01 -1.776512e-01 -1.689128e-01 -1.759994e-01 -1.739921e-01 -1.793619e-01 -1.785387e-01 
-1.715709e-01 -1.703575e-01 -1.780330e-01 -1.745005e-01 -1.877158e-01 -1.785124e-01 -1.268548e-01 -1.916177e-01 -1.730056e-01 -1.859579e-01 -1.817748e-01 -1.864486e-01 -1.887650e-01 -1.616338e-01 -1.414895e-01 -1.169366e-01 -8.993019e-02 -3.691878e-02 -3.814252e-02 4.118246e-02 2.404413e-02 6.578971e-02 5.192878e-02 6.127085e-02 4.827748e-02 5.710999e-02 4.481259e-02 5.326125e-02 4.179030e-02 4.949904e-02 3.916287e-02 4.585193e-02 3.701850e-02 4.240355e-02 3.523563e-02 3.905883e-02 3.349581e-02 3.565070e-02 3.149148e-02 3.210535e-02 2.910599e-02 2.859701e-02 2.651789e-02 2.539045e-02 2.393932e-02 2.246215e-02 2.116229e-02 1.946036e-02 1.796578e-02 1.643728e-02 1.464659e-02 1.380667e-02 1.164464e-02 1.197665e-02 9.595171e-03 1.113859e-02 1.813291e-02 -4.770066e-02 -4.787504e-02 7.067054e-02 -8.242393e-02 4.141802e-02 9.093975e-03 4.154963e-02 9.622339e-02 -4.858022e-02 1.764154e-01 -8.202559e-03 8.462322e-02 1.229965e-01 3.343831e-02 1.481888e-01 -5.105191e-02 -6.488108e-02 -6.653057e-02 -6.318794e-02 -6.483384e-02 -6.413052e-02 -6.579755e-02 -6.682341e-02 -6.864129e-02 -7.052751e-02 -7.241582e-02 -7.426854e-02 -7.624079e-02 -7.756116e-02 -8.004728e-02 -8.084142e-02 -8.446416e-02 -8.472613e-02 -8.972828e-02 -8.913301e-02 -9.550337e-02 -9.376792e-02 -1.014423e-01 -9.838800e-02 -1.070292e-01 -1.026969e-01 -1.119284e-01 -1.067997e-01 -1.162220e-01 -1.110977e-01 -1.201795e-01 -1.159606e-01 -1.239247e-01 -1.213547e-01 -1.271704e-01 -1.268411e-01 -1.296309e-01 -1.322083e-01 -1.316236e-01 -1.377575e-01 -1.338431e-01 -1.435983e-01 -1.365044e-01 -1.492457e-01 -1.396250e-01 -1.543631e-01 -1.434111e-01 -1.587485e-01 -1.472452e-01 -1.664220e-01 -1.735033e-01 -1.577682e-01 -1.629396e-01 -1.616273e-01 -1.665967e-01 -1.660344e-01 
-1.881961e-01 -1.850542e-01 -1.973638e-01 -1.913096e-01 -2.106022e-01 -1.983468e-01 -1.777383e-01 -2.185491e-01 -2.185786e-01 -2.230500e-01 -2.327421e-01 -2.279272e-01 -2.443621e-01 -2.091269e-01 -1.108430e-01 -1.098329e-01 4.389745e-02 1.273191e-01 2.038193e-01 3.559762e-01 3.733254e-01 4.102356e-01 3.938810e-01 4.003108e-01 3.882872e-01 3.888083e-01 3.802846e-01 3.766819e-01 3.711688e-01 3.648308e-01 3.615320e-01 3.532921e-01 3.510506e-01 3.417683e-01 3.396885e-01 3.304213e-01 3.278047e-01 3.195455e-01 3.158165e-01 3.091794e-01 3.037037e-01 2.987337e-01 2.909435e-01 2.872997e-01 2.772474e-01 2.748200e-01 2.635386e-01 2.622877e-01 2.506513e-01 2.496744e-01 2.378166e-01 2.359301e-01 2.237028e-01 2.197943e-01 2.065023e-01 1.993071e-01 1.898519e-01 1.310994e-01 1.189079e-01 2.361152e-01 1.131992e-01 2.296749e-01 2.184697e-01 2.419013e-01 3.240121e-01 1.868623e-01 4.130980e-01 2.424045e-01 3.527325e-01 3.748043e-01 3.177298e-01 4.211581e-01 2.297593e-01 2.110085e-01 1.772381e-01 1.731439e-01 1.495608e-01 1.467537e-01 1.285079e-01 1.277567e-01 1.124008e-01 1.131291e-01 9.866515e-02 9.937499e-02 8.460676e-02 8.440274e-02 6.974097e-02 6.885074e-02 5.558319e-02 5.413004e-02 4.277437e-02 4.005890e-02 3.057506e-02 2.612186e-02 1.849851e-02 1.193238e-02 5.802866e-03 -3.077847e-03 -7.848079e-03 -1.848389e-02 -2.174495e-02 -3.319415e-02 -3.491459e-02 -4.623265e-02 -4.696455e-02 -5.781090e-02 -5.888056e-02 -6.924770e-02 -7.187312e-02 -8.123137e-02 -8.572418e-02 -9.297460e-02 -9.926965e-02 -1.040805e-01 -1.126438e-01 -1.156092e-01 -1.263406e-01 -1.280880e-01 -1.399002e-01 -1.418993e-01 -1.525743e-01 -1.606653e-01 -1.793874e-01 -1.712412e-01 -1.751281e-01 -1.742271e-01 -1.809412e-01 -1.792902e-01 
-1.726437e-01 -1.744778e-01 -1.799281e-01 -1.819181e-01 -1.875172e-01 -1.906344e-01 -1.920833e-01 -2.048087e-01 -2.069940e-01 -2.160912e-01 -2.202320e-01 -2.264373e-01 -2.324643e-01 -2.348752e-01 -7.648720e-02 -6.341577e-02 8.486470e-02 1.146384e-01 2.526910e-01 2.855905e-01 4.301399e-01 4.344246e-01 4.209932e-01 4.229469e-01 4.108888e-01 4.105178e-01 4.005246e-01 3.977782e-01 3.899727e-01 3.853682e-01 3.792856e-01 3.732940e-01 3.680470e-01 3.613258e-01 3.561645e-01 3.495750e-01 3.439062e-01 3.382557e-01 3.316018e-01 3.273781e-01 3.192593e-01 3.164642e-01 3.064901e-01 3.048119e-01 2.930675e-01 2.923691e-01 2.796800e-01 2.798683e-01 2.669649e-01 2.672815e-01 2.543755e-01 2.538301e-01 2.409736e-01 2.386518e-01 2.255444e-01 2.206669e-01 2.068580e-01 1.967538e-01 1.877686e-01 2.008956e-01 1.862846e-01 1.990942e-01 1.952803e-01 1.984154e-01 2.053228e-01 1.912618e-01 2.118994e-01 1.932697e-01 2.076767e-01 2.066111e-01 2.083959e-01 2.222466e-01 1.949151e-01 1.930619e-01 1.748628e-01 1.731133e-01 1.567047e-01 1.555981e-01 1.405625e-01 1.407252e-01 1.266919e-01 1.276915e-01 1.138722e-01 1.145463e-01 1.004387e-01 1.000590e-01 8.622680e-02 8.490588e-02 7.250270e-02 7.027238e-02 5.982496e-02 5.609113e-02 4.766057e-02 4.197975e-02 3.559546e-02 2.763778e-02 2.300121e-02 1.264729e-02 9.581350e-03 -2.637590e-03 -4.152243e-03 -1.733762e-02 -1.746387e-02 -3.067809e-02 -3.006375e-02 -4.280114e-02 -4.269516e-02 -5.470335e-02 -5.625179e-02 -6.691131e-02 -7.052033e-02 -7.884754e-02 -8.455807e-02 -9.023357e-02 -9.838417e-02 -1.018902e-01 -1.123120e-01 -1.142427e-01 -1.260118e-01 -1.275240e-01 -1.393348e-01 -1.421838e-01 -1.530175e-01 -1.563683e-01 -1.589833e-01 -1.615571e-01 -1.656777e-01 -1.677303e-01 
-1.879799e-01 -1.877451e-01 -1.964396e-01 -1.967177e-01 -2.046845e-01 -2.067814e-01 -2.113106e-01 -2.187105e-01 -2.248322e-01 -2.300346e-01 -2.387671e-01 -2.420308e-01 -2.530247e-01 -2.558069e-01 -8.913639e-02 -8.057066e-02 7.914124e-02 1.024022e-01 2.530643e-01 2.789241e-01 4.345636e-01 4.347128e-01 4.211357e-01 4.211135e-01 4.093182e-01 4.077983e-01 3.980829e-01 3.947759e-01 3.870127e-01 3.820994e-01 3.758867e-01 3.697399e-01 3.645138e-01 3.576319e-01 3.528228e-01 3.457700e-01 3.408621e-01 3.341578e-01 3.287106e-01 3.227209e-01 3.163798e-01 3.112621e-01 3.038183e-01 2.995597e-01 2.910489e-01 2.875609e-01 2.782797e-01 2.753852e-01 2.656969e-01 2.630487e-01 2.532643e-01 2.504779e-01 2.409303e-01 2.377714e-01 2.289336e-01 2.255318e-01 2.183228e-01 2.155126e-01 2.155473e-01 2.046781e-01 2.079343e-01 1.981953e-01 1.943211e-01 1.963019e-01 1.793232e-01 1.908981e-01 1.693396e-01 1.798977e-01 1.669650e-01 1.671053e-01 1.687206e-01 1.604549e-01 1.671155e-01 1.647843e-01 1.590917e-01 1.567701e-01 1.462524e-01 1.443682e-01 1.321186e-01 1.308418e-01 1.180494e-01 1.171942e-01 1.042294e-01 1.033659e-01 9.041628e-02 8.916026e-02 7.657924e-02 7.471512e-02 6.297204e-02 6.030073e-02 4.972794e-02 4.596833e-02 3.672578e-02 3.165062e-02 2.378667e-02 1.727334e-02 1.071151e-02 2.798923e-03 -2.581132e-03 -1.161560e-02 -1.596989e-02 -2.568081e-02 -2.927277e-02 -3.916684e-02 -4.243930e-02 -5.210101e-02 -5.565411e-02 -6.473015e-02 -6.912556e-02 -7.722946e-02 -8.281435e-02 -8.956976e-02 -9.650532e-02 -1.017671e-01 -1.101129e-01 -1.140206e-01 -1.236029e-01 -1.264496e-01 -1.368361e-01 -1.390223e-01 -1.496975e-01 -1.514713e-01 -1.622393e-01 -1.622592e-01 -1.711255e-01 -1.710121e-01 -1.795836e-01 -1.793278e-01 
-1.730775e-01 -1.765717e-01 -1.816753e-01 -1.859302e-01 -1.907566e-01 -1.963474e-01 -2.007273e-01 -2.082783e-01 -2.129150e-01 -2.211252e-01 -2.266350e-01 -2.352948e-01 -2.420434e-01 -2.517634e-01 -7.351814e-02 -7.366889e-02 9.574079e-02 1.018506e-01 2.677148e-01 2.741599e-01 4.434415e-01 4.435746e-01 4.283385e-01 4.281374e-01 4.149829e-01 4.138696e-01 4.026294e-01 4.003591e-01 3.907987e-01 3.874123e-01 3.791645e-01 3.748931e-01 3.674887e-01 3.627063e-01 3.556692e-01 3.508252e-01 3.437224e-01 3.392357e-01 3.316957e-01 3.278577e-01 3.195917e-01 3.165262e-01 3.073829e-01 3.050776e-01 2.951042e-01 2.934657e-01 2.829014e-01 2.817474e-01 2.709024e-01 2.699340e-01 2.591147e-01 2.580146e-01 2.475602e-01 2.461345e-01 2.364886e-01 2.348262e-01 2.267354e-01 2.254490e-01 2.209601e-01 2.171910e-01 2.141711e-01 2.113895e-01 2.057002e-01 2.073071e-01 1.974169e-01 2.024561e-01 1.921437e-01 1.958983e-01 1.877212e-01 1.873293e-01 1.819527e-01 1.768344e-01 1.735470e-01 1.712859e-01 1.630480e-01 1.613753e-01 1.507764e-01 1.496040e-01 1.378938e-01 1.371473e-01 1.249398e-01 1.243834e-01 1.119887e-01 1.112544e-01 9.894217e-02 9.768363e-02 8.583638e-02 8.379767e-02 7.285499e-02 6.979413e-02 6.009542e-02 5.574462e-02 4.749053e-02 4.164451e-02 3.491806e-02 2.748757e-02 2.224185e-02 1.329683e-02 9.387203e-03 -8.032131e-04 -3.612475e-03 -1.461901e-02 -1.667995e-02 -2.799412e-02 -2.979594e-02 -4.092294e-02 -4.305327e-02 -5.353589e-02 -5.654133e-02 -6.594402e-02 -7.019824e-02 -7.816634e-02 -8.384802e-02 -9.025119e-02 -9.735581e-02 -1.023337e-01 -1.105931e-01 -1.144879e-01 -1.233574e-01 -1.266560e-01 -1.354117e-01 -1.385750e-01 -1.464612e-01 -1.495949e-01 -1.559026e-01 -1.589842e-01 -1.646117e-01 -1.677642e-01 
-1.878260e-01 -1.885305e-01 -1.967743e-01 -1.982468e-01 -2.059630e-01 -2.088130e-01 -2.158896e-01 -2.204948e-01 -2.281929e-01 -2.331618e-01 -2.422609e-01 -2.474894e-01 -2.581654e-01 -2.646636e-01 -8.682752e-02 -8.410469e-02 8.565641e-02 9.472307e-02 2.613772e-01 2.697799e-01 4.412154e-01 4.403001e-01 4.255100e-01 4.243705e-01 4.118523e-01 4.098885e-01 3.994059e-01 3.962957e-01 3.875792e-01 3.832866e-01 3.759789e-01 3.706868e-01 3.643709e-01 3.584082e-01 3.526606e-01 3.464246e-01 3.408499e-01 3.347169e-01 3.289632e-01 3.232179e-01 3.170050e-01 3.118199e-01 3.049871e-01 3.004355e-01 2.929661e-01 2.890287e-01 2.810280e-01 2.775942e-01 2.692476e-01 2.661399e-01 2.576885e-01 2.547185e-01 2.464564e-01 2.434779e-01 2.357453e-01 2.326612e-01 2.258150e-01 2.225106e-01 2.168466e-01 2.129623e-01 2.074894e-01 2.044179e-01 1.974269e-01 1.966596e-01 1.874710e-01 1.886304e-01 1.787321e-01 1.799269e-01 1.715485e-01 1.711278e-01 1.650748e-01 1.631980e-01 1.578352e-01 1.560438e-01 1.489175e-01 1.472730e-01 1.383148e-01 1.368823e-01 1.265555e-01 1.253289e-01 1.141097e-01 1.129847e-01 1.012790e-01 1.000734e-01 8.825184e-02 8.674465e-02 7.516825e-02 7.312354e-02 6.212605e-02 5.930569e-02 4.916215e-02 4.535352e-02 3.626204e-02 3.131987e-02 2.339204e-02 1.727004e-02 1.051590e-02 3.276398e-03 -2.410475e-03 -1.059757e-02 -1.543581e-02 -2.429634e-02 -2.859410e-02 -3.776875e-02 -4.189730e-02 -5.098328e-02 -5.534293e-02 -6.394171e-02 -6.891085e-02 -7.667364e-02 -8.255252e-02 -8.922615e-02 -9.618885e-02 -1.016517e-01 -1.097111e-01 -1.139835e-01 -1.229818e-01 -1.262022e-01 -1.358407e-01 -1.381950e-01 -1.481024e-01 -1.497071e-01 -1.595104e-01 -1.603251e-01 -1.695536e-01 -1.700189e-01 -1.788511e-01 -1.792664e-01 
-1.730083e-01 -1.764879e-01 -1.815823e-01 -1.858265e-01 -1.906417e-01 -1.962261e-01 -2.005968e-01 -2.081481e-01 -2.127878e-01 -2.210055e-01 -2.265343e-01 -2.351969e-01 -2.419690e-01 -2.516650e-01 -7.348438e-02 -7.362291e-02 9.575704e-02 1.019028e-01 2.677279e-01 2.743092e-01 4.434400e-01 4.439178e-01 4.283573e-01 4.284575e-01 4.149791e-01 4.141700e-01 4.026321e-01 4.006874e-01 3.908402e-01 3.877494e-01 3.792122e-01 3.751658e-01 3.675066e-01 3.628651e-01 3.556838e-01 3.509102e-01 3.438575e-01 3.393706e-01 3.320982e-01 3.281516e-01 3.203428e-01 3.170570e-01 3.085538e-01 3.059966e-01 2.968366e-01 2.949865e-01 2.853060e-01 2.840046e-01 2.739925e-01 2.730075e-01 2.629183e-01 2.620396e-01 2.522105e-01 2.513301e-01 2.421379e-01 2.412071e-01 2.329192e-01 2.318520e-01 2.245240e-01 2.231478e-01 2.163037e-01 2.151260e-01 2.081177e-01 2.076697e-01 2.002618e-01 2.003680e-01 1.929256e-01 1.927954e-01 1.855951e-01 1.846241e-01 1.775794e-01 1.758376e-01 1.684924e-01 1.668956e-01 1.583590e-01 1.570809e-01 1.472992e-01 1.463509e-01 1.355117e-01 1.347985e-01 1.231756e-01 1.225359e-01 1.104864e-01 1.097291e-01 9.768169e-02 9.656925e-02 8.494765e-02 8.315981e-02 7.231962e-02 6.949984e-02 5.974701e-02 5.560024e-02 4.719091e-02 4.153610e-02 3.465589e-02 2.747171e-02 2.219670e-02 1.358246e-02 9.773796e-03 -1.070683e-04 -2.800836e-03 -1.366447e-02 -1.570128e-02 -2.709655e-02 -2.896218e-02 -4.030906e-02 -4.248801e-02 -5.318815e-02 -5.615548e-02 -6.572004e-02 -6.990535e-02 -7.803487e-02 -8.370783e-02 -9.027808e-02 -9.741299e-02 -1.024919e-01 -1.107741e-01 -1.146830e-01 -1.235607e-01 -1.268038e-01 -1.355532e-01 -1.386368e-01 -1.465201e-01 -1.495960e-01 -1.559013e-01 -1.589471e-01 -1.645708e-01 -1.677014e-01 
-1.878332e-01 -1.875596e-01 -1.962462e-01 -1.964856e-01 -2.044421e-01 -2.065061e-01 -2.110354e-01 -2.184358e-01 -2.246102e-01 -2.298382e-01 -2.386627e-01 -2.419331e-01 -2.530170e-01 -2.557183e-01 -8.910285e-02 -8.071449e-02 7.922422e-02 1.021276e-01 2.532206e-01 2.787824e-01 4.346422e-01 4.352276e-01 4.212534e-01 4.216522e-01 4.094136e-01 4.083757e-01 3.982157e-01 3.954652e-01 3.872290e-01 3.828307e-01 3.760982e-01 3.703462e-01 3.646357e-01 3.580025e-01 3.528994e-01 3.459739e-01 3.411417e-01 3.344408e-01 3.295017e-01 3.233093e-01 3.178691e-01 3.123218e-01 3.061682e-01 3.013993e-01 2.945505e-01 2.906045e-01 2.831422e-01 2.798770e-01 2.719070e-01 2.690911e-01 2.607923e-01 2.582205e-01 2.498776e-01 2.474684e-01 2.394082e-01 2.371058e-01 2.294473e-01 2.270982e-01 2.196924e-01 2.172388e-01 2.098617e-01 2.074903e-01 2.001095e-01 1.980729e-01 1.907520e-01 1.890500e-01 1.818904e-01 1.803381e-01 1.732721e-01 1.716747e-01 1.644919e-01 1.628361e-01 1.552631e-01 1.537581e-01 1.454775e-01 1.442460e-01 1.349974e-01 1.340407e-01 1.237349e-01 1.229757e-01 1.117074e-01 1.110415e-01 9.911336e-02 9.844886e-02 8.631287e-02 8.549796e-02 7.359155e-02 7.231850e-02 6.096675e-02 5.884773e-02 4.834105e-02 4.506473e-02 3.567754e-02 3.105400e-02 2.302149e-02 1.704235e-02 1.052048e-02 3.275594e-03 -1.844856e-03 -1.027980e-02 -1.437080e-02 -2.381677e-02 -2.733666e-02 -3.740170e-02 -4.078627e-02 -5.088957e-02 -5.454290e-02 -6.405899e-02 -6.840112e-02 -7.683543e-02 -8.231156e-02 -8.939026e-02 -9.632750e-02 -1.019104e-01 -1.103139e-01 -1.143970e-01 -1.240051e-01 -1.268529e-01 -1.372311e-01 -1.392860e-01 -1.499264e-01 -1.515332e-01 -1.622887e-01 -1.622124e-01 -1.710812e-01 -1.709080e-01 -1.794824e-01 -1.791833e-01 
-1.724189e-01 -1.742221e-01 -1.796402e-01 -1.815985e-01 -1.871479e-01 -1.902347e-01 -1.916161e-01 -2.043403e-01 -2.065198e-01 -2.156873e-01 -2.199305e-01 -2.262329e-01 -2.323547e-01 -2.347003e-01 -7.647832e-02 -6.351228e-02 8.485598e-02 1.144314e-01 2.527765e-01 2.856514e-01 4.302154e-01 4.355666e-01 4.212211e-01 4.238932e-01 4.107616e-01 4.112281e-01 4.004038e-01 3.988402e-01 3.902282e-01 3.866730e-01 3.795724e-01 3.743095e-01 3.679954e-01 3.616432e-01 3.557126e-01 3.493346e-01 3.437247e-01 3.382246e-01 3.324851e-01 3.279488e-01 3.212278e-01 3.174513e-01 3.094369e-01 3.067149e-01 2.978225e-01 2.963948e-01 2.868425e-01 2.863236e-01 2.761254e-01 2.759645e-01 2.652564e-01 2.650310e-01 2.543173e-01 2.541769e-01 2.443657e-01 2.445057e-01 2.357928e-01 2.356262e-01 2.273804e-01 2.263665e-01 2.182940e-01 2.166006e-01 2.092079e-01 2.074162e-01 2.010267e-01 1.993592e-01 1.936832e-01 1.920806e-01 1.862098e-01 1.843756e-01 1.774871e-01 1.754573e-01 1.676120e-01 1.659947e-01 1.573733e-01 1.564476e-01 1.467332e-01 1.463888e-01 1.353249e-01 1.352913e-01 1.228244e-01 1.228662e-01 1.094466e-01 1.096165e-01 9.613840e-02 9.645405e-02 8.363488e-02 8.352448e-02 7.156252e-02 7.016418e-02 5.933276e-02 5.611390e-02 4.680719e-02 4.142815e-02 3.409085e-02 2.675446e-02 2.200691e-02 1.306808e-02 1.076797e-02 5.927353e-05 -6.852230e-04 -1.321255e-02 -1.328012e-02 -2.707834e-02 -2.706803e-02 -4.102971e-02 -4.135582e-02 -5.422963e-02 -5.544013e-02 -6.636442e-02 -6.940273e-02 -7.818964e-02 -8.395870e-02 -9.042240e-02 -9.885001e-02 -1.027425e-01 -1.132610e-01 -1.151641e-01 -1.269585e-01 -1.281227e-01 -1.398428e-01 -1.422671e-01 -1.531035e-01 -1.562833e-01 -1.588974e-01 -1.613953e-01 -1.655102e-01 -1.675226e-01 
-1.879078e-01 -1.847063e-01 -1.969860e-01 -1.908309e-01 -2.100526e-01 -1.976188e-01 -1.768493e-01 -2.177175e-01 -2.179292e-01 -2.226391e-01 -2.326617e-01 -2.281143e-01 -2.448620e-01 -2.096268e-01 -1.109102e-01 -1.105454e-01 4.392754e-02 1.257330e-01 2.046847e-01 3.536395e-01 3.735390e-01 4.109421e-01 3.942410e-01 4.012488e-01 3.883411e-01 3.897578e-01 3.804922e-01 3.782817e-01 3.719184e-01 3.668011e-01 3.622342e-01 3.548206e-01 3.511190e-01 3.422465e-01 3.389909e-01 3.299986e-01 3.272461e-01 3.192482e-01 3.165190e-01 3.095657e-01 3.057921e-01 2.995907e-01 2.943600e-01 2.893316e-01 2.831389e-01 2.796667e-01 2.726923e-01 2.703454e-01 2.624683e-01 2.606062e-01 2.518423e-01 2.499804e-01 2.408141e-01 2.392152e-01 2.306716e-01 2.296461e-01 2.218103e-01 2.205926e-01 2.123599e-01 2.108222e-01 2.017565e-01 1.994702e-01 1.914670e-01 1.884529e-01 1.824707e-01 1.787853e-01 1.743968e-01 1.709331e-01 1.657566e-01 1.632375e-01 1.559073e-01 1.539852e-01 1.454292e-01 1.439395e-01 1.355247e-01 1.347600e-01 1.256768e-01 1.254487e-01 1.150487e-01 1.150697e-01 1.030293e-01 1.031122e-01 8.981156e-02 9.018169e-02 7.661582e-02 7.747549e-02 6.442531e-02 6.520287e-02 5.277195e-02 5.249906e-02 4.090818e-02 3.901780e-02 2.866424e-02 2.477032e-02 1.615462e-02 1.051952e-02 4.459394e-03 -2.516520e-03 -6.122095e-03 -1.480200e-02 -1.695128e-02 -2.760385e-02 -2.919921e-02 -4.136896e-02 -4.289947e-02 -5.544041e-02 -5.713523e-02 -6.871596e-02 -7.098920e-02 -8.074553e-02 -8.458567e-02 -9.246279e-02 -9.890822e-02 -1.047333e-01 -1.136642e-01 -1.170505e-01 -1.278426e-01 -1.294301e-01 -1.411712e-01 -1.425804e-01 -1.530218e-01 -1.604344e-01 -1.791347e-01 -1.709376e-01 -1.748927e-01 -1.739516e-01 -1.806935e-01 -1.790028e-01 
-1.712138e-01 -1.699930e-01 -1.776230e-01 -1.740303e-01 -1.871549e-01 -1.778133e-01 -1.259652e-01 -1.910330e-01 -1.726866e-01 -1.861423e-01 -1.821436e-01 -1.872760e-01 -1.896295e-01 -1.628044e-01 -1.426695e-01 -1.182137e-01 -9.119132e-02 -3.851623e-02 -3.875970e-02 3.909108e-02 2.357845e-02 6.495541e-02 5.169365e-02 6.120922e-02 4.883529e-02 5.778018e-02 4.582904e-02 5.410871e-02 4.272513e-02 5.021171e-02 3.976797e-02 4.632907e-02 3.716845e-02 4.261607e-02 3.488728e-02 3.890008e-02 3.252466e-02 3.491849e-02 2.992051e-02 3.094613e-02 2.745659e-02 2.752801e-02 2.534707e-02 2.464103e-02 2.318806e-02 2.188561e-02 2.069265e-02 1.923066e-02 1.796707e-02 1.680527e-02 1.513122e-02 1.462426e-02 1.207459e-02 1.226090e-02 8.214608e-03 9.055328e-03 3.258391e-03 4.998273e-03 -2.549940e-03 1.169486e-03 -7.867381e-03 -3.769513e-03 -1.219081e-02 -9.718999e-03 -1.672541e-02 -1.658512e-02 -2.256161e-02 -2.290073e-02 -3.022604e-02 -2.869661e-02 -3.794979e-02 -3.513011e-02 -4.481595e-02 -4.266422e-02 -5.062568e-02 -4.945440e-02 -5.592777e-02 -5.579633e-02 -6.102003e-02 -6.170451e-02 -6.592940e-02 -6.711063e-02 -7.073519e-02 -7.219242e-02 -7.575326e-02 -7.725598e-02 -8.115638e-02 -8.223156e-02 -8.660763e-02 -8.671553e-02 -9.174254e-02 -9.059407e-02 -9.649164e-02 -9.398571e-02 -1.009483e-01 -9.734701e-02 -1.055773e-01 -1.013071e-01 -1.105418e-01 -1.058493e-01 -1.153609e-01 -1.106048e-01 -1.195884e-01 -1.154430e-01 -1.231712e-01 -1.205732e-01 -1.263997e-01 -1.262993e-01 -1.295702e-01 -1.326161e-01 -1.326188e-01 -1.389579e-01 -1.352112e-01 -1.447639e-01 -1.375494e-01 -1.500117e-01 -1.401734e-01 -1.546119e-01 -1.433446e-01 -1.584375e-01 -1.466486e-01 -1.656618e-01 -1.725966e-01 -1.571677e-01 -1.624040e-01 -1.612170e-01 -1.662062e-01 -1.656899e-01 
-1.824566e-01 -1.825274e-01 -1.851161e-01 -1.863658e-01 -1.861267e-01 -1.898062e-01 -1.579185e-01 -1.914878e-01 -1.748467e-01 -1.868566e-01 -1.795060e-01 -1.859642e-01 -1.839965e-01 -1.796591e-01 -1.721908e-01 -1.692093e-01 -1.596677e-01 -1.483429e-01 -1.471857e-01 -1.272650e-01 -1.314722e-01 -1.201965e-01 -1.256093e-01 -1.203523e-01 -1.273279e-01 -1.194237e-01 -1.282574e-01 -1.189941e-01 -1.289823e-01 -1.189185e-01 -1.288551e-01 -1.185493e-01 -1.273687e-01 -1.176163e-01 -1.248139e-01 -1.168756e-01 -1.225337e-01 -1.173499e-01 -1.211333e-01 -1.184452e-01 -1.195643e-01 -1.186704e-01 -1.171551e-01 -1.180359e-01 -1.149542e-01 -1.175418e-01 -1.136733e-01 -1.170886e-01 -1.128857e-01 -1.160860e-01 -1.121016e-01 -1.142766e-01 -1.115068e-01 -1.127107e-01 -1.126839e-01 -1.131311e-01 -1.163963e-01 -1.152918e-01 -1.212952e-01 -1.174337e-01 -1.254201e-01 -1.206264e-01 -1.288563e-01 -1.258285e-01 -1.335619e-01 -1.331498e-01 -1.406039e-01 -1.407704e-01 -1.495248e-01 -1.474932e-01 -1.574814e-01 -1.536379e-01 -1.632908e-01 -1.600141e-01 -1.672507e-01 -1.653887e-01 -1.699059e-01 -1.695834e-01 -1.714840e-01 -1.723374e-01 -1.719446e-01 -1.734648e-01 -1.716520e-01 -1.736360e-01 -1.717774e-01 -1.739821e-01 -1.731490e-01 -1.745875e-01 -1.751019e-01 -1.744814e-01 -1.767370e-01 -1.733173e-01 -1.778143e-01 -1.712142e-01 -1.784389e-01 -1.691392e-01 -1.797410e-01 -1.685527e-01 -1.820442e-01 -1.691577e-01 -1.839382e-01 -1.697734e-01 -1.841896e-01 -1.699903e-01 -1.827224e-01 -1.704426e-01 -1.804378e-01 -1.721218e-01 -1.782561e-01 -1.752565e-01 -1.760726e-01 -1.785846e-01 -1.729687e-01 -1.808897e-01 -1.694373e-01 -1.824136e-01 -1.668113e-01 -1.829973e-01 -1.656928e-01 -1.820009e-01 -1.664358e-01 -1.800717e-01 -1.769676e-01 -1.685025e-01 -1.755944e-01 -1.737066e-01 -1.790814e-01 -1.783041e-01 
-1.660654e-01 -1.688836e-01 -1.661925e-01 -1.710878e-01 -1.634517e-01 -1.725672e-01 -1.548955e-01 -1.707725e-01 -1.569758e-01 -1.660968e-01 -1.587517e-01 -1.599504e-01 -1.592236e-01 -1.516368e-01 -1.577835e-01 -1.434858e-01 -1.547690e-01 -1.363777e-01 -1.503742e-01 -1.299559e-01 -1.442241e-01 -1.242103e-01 -1.373595e-01 -1.205735e-01 -1.333228e-01 -1.180773e-01 -1.308767e-01 -1.165656e-01 -1.292514e-01 -1.156441e-01 -1.276412e-01 -1.148551e-01 -1.255443e-01 -1.139884e-01 -1.229876e-01 -1.133308e-01 -1.205437e-01 -1.132831e-01 -1.185076e-01 -1.135437e-01 -1.164723e-01 -1.134031e-01 -1.141657e-01 -1.127723e-01 -1.120478e-01 -1.120477e-01 -1.105157e-01 -1.112557e-01 -1.094954e-01 -1.101995e-01 -1.088234e-01 -1.088258e-01 -1.086252e-01 -1.076775e-01 -1.096181e-01 -1.076200e-01 -1.121852e-01 -1.086970e-01 -1.156823e-01 -1.101861e-01 -1.185778e-01 -1.129065e-01 -1.207069e-01 -1.173504e-01 -1.234424e-01 -1.227848e-01 -1.281940e-01 -1.281979e-01 -1.352663e-01 -1.335327e-01 -1.430354e-01 -1.396182e-01 -1.497364e-01 -1.465299e-01 -1.545178e-01 -1.523106e-01 -1.575957e-01 -1.566687e-01 -1.594676e-01 -1.596820e-01 -1.604792e-01 -1.614386e-01 -1.609686e-01 -1.622779e-01 -1.614983e-01 -1.627292e-01 -1.625062e-01 -1.629681e-01 -1.638410e-01 -1.627411e-01 -1.651613e-01 -1.619613e-01 -1.662985e-01 -1.607255e-01 -1.672257e-01 -1.594999e-01 -1.683096e-01 -1.589411e-01 -1.695901e-01 -1.590140e-01 -1.704351e-01 -1.593249e-01 -1.703071e-01 -1.597712e-01 -1.691647e-01 -1.606195e-01 -1.673702e-01 -1.622059e-01 -1.653262e-01 -1.645174e-01 -1.631029e-01 -1.669351e-01 -1.605239e-01 -1.688177e-01 -1.579858e-01 -1.700569e-01 -1.562541e-01 -1.704374e-01 -1.558619e-01 -1.696298e-01 -1.573190e-01 -1.673748e-01 -1.610828e-01 -1.623946e-01 -1.627884e-01 -1.640486e-01 -1.646322e-01 -1.663892e-01 
