# vtk DataFile Version 2.0
Comment goes here
ASCII

DATASET STRUCTURED_POINTS
FIELD FieldData 1
TIME 1 1 double
0.81000000
DIMENSIONS    128   16   1

ORIGIN    0.000   0.000   0.000
SPACING   0.0078125 0.015625   1.000

POINT_DATA   2048
SCALARS P double
LOOKUP_TABLE default

-9.249659e-01 -9.069467e-01 -9.270241e-01 -9.133663e-01 -9.272416e-01 -9.203101e-01 -9.261899e-01 -9.344108e-01 -9.232262e-01 -9.422571e-01 -9.180865e-01 -9.418460e-01 -9.054050e-01 -9.256574e-01 -8.726468e-01 -8.856134e-01 -8.307354e-01 -8.396124e-01 -7.862177e-01 -7.960057e-01 -7.475469e-01 -7.607458e-01 -7.323118e-01 -7.480380e-01 -7.304464e-01 -7.449323e-01 -7.340278e-01 -7.457714e-01 -7.396943e-01 -7.482419e-01 -7.462186e-01 -7.516363e-01 -7.532689e-01 -7.557304e-01 -7.605377e-01 -7.601449e-01 -7.675216e-01 -7.644734e-01 -7.739275e-01 -7.687092e-01 -7.799358e-01 -7.731962e-01 -7.858649e-01 -7.781311e-01 -7.917236e-01 -7.833324e-01 -7.972709e-01 -7.885275e-01 -8.023857e-01 -7.936431e-01 -8.071664e-01 -7.986770e-01 -8.116278e-01 -8.033421e-01 -8.153895e-01 -8.068682e-01 -8.174852e-01 -8.076850e-01 -8.153931e-01 -8.093317e-01 -8.111042e-01 -8.042453e-01 -8.094994e-01 -8.018547e-01 -8.068797e-01 -7.932644e-01 -8.019217e-01 -7.882497e-01 -7.939042e-01 -7.881874e-01 -7.943938e-01 -7.925059e-01 -7.987985e-01 -7.934633e-01 -8.034906e-01 -7.959428e-01 -8.085704e-01 -7.988718e-01 -8.137545e-01 -8.020003e-01 -8.189915e-01 -8.053531e-01 -8.242323e-01 -8.089547e-01 -8.293542e-01 -8.127812e-01 -8.342265e-01 -8.168294e-01 -8.387855e-01 -8.211506e-01 -8.430243e-01 -8.257982e-01 -8.469359e-01 -8.307731e-01 -8.504975e-01 -8.360177e-01 -8.537093e-01 -8.414624e-01 -8.566744e-01 -8.470752e-01 -8.596050e-01 -8.527819e-01 -8.626884e-01 -8.583507e-01 -8.660286e-01 -8.634597e-01 -8.697567e-01 -8.678659e-01 -8.740964e-01 -8.714463e-01 -8.792736e-01 -8.741432e-01 -8.854027e-01 -8.759542e-01 -8.924349e-01 -8.769826e-01 -9.001536e-01 -8.775452e-01 -9.081751e-01 -8.783248e-01 -9.158690e-01 -8.806674e-01 -9.220503e-01 -8.883966e-01 -9.219798e-01 -8.939355e-01 -9.227310e-01 -9.002076e-01 
-7.804319e-01 -7.673061e-01 -7.791954e-01 -7.687783e-01 -7.762154e-01 -7.691991e-01 -7.708081e-01 -7.819311e-01 -7.669425e-01 -7.883056e-01 -7.660969e-01 -7.902509e-01 -7.679057e-01 -7.874205e-01 -7.723866e-01 -7.895890e-01 -7.795741e-01 -7.921878e-01 -7.873796e-01 -7.940513e-01 -7.938203e-01 -7.939242e-01 -7.943512e-01 -7.942896e-01 -7.962265e-01 -7.948468e-01 -7.985953e-01 -7.951058e-01 -8.008031e-01 -7.949000e-01 -8.029690e-01 -7.949545e-01 -8.057883e-01 -7.958521e-01 -8.091839e-01 -7.971287e-01 -8.122518e-01 -7.979563e-01 -8.143325e-01 -7.982301e-01 -8.157720e-01 -7.987174e-01 -8.173774e-01 -8.000384e-01 -8.193280e-01 -8.018840e-01 -8.209775e-01 -8.035137e-01 -8.219030e-01 -8.048336e-01 -8.223614e-01 -8.059199e-01 -8.222631e-01 -8.061313e-01 -8.207735e-01 -8.040202e-01 -8.159578e-01 -7.964720e-01 -8.034088e-01 -7.913252e-01 -7.954508e-01 -7.842712e-01 -7.912463e-01 -7.781038e-01 -7.880983e-01 -7.702703e-01 -7.842651e-01 -7.675335e-01 -7.768147e-01 -7.675242e-01 -7.724582e-01 -7.672623e-01 -7.716560e-01 -7.628748e-01 -7.717162e-01 -7.608898e-01 -7.723279e-01 -7.594854e-01 -7.730676e-01 -7.584917e-01 -7.740826e-01 -7.580594e-01 -7.753756e-01 -7.581664e-01 -7.766590e-01 -7.584939e-01 -7.774625e-01 -7.587215e-01 -7.776014e-01 -7.590131e-01 -7.774619e-01 -7.598983e-01 -7.773855e-01 -7.613798e-01 -7.770339e-01 -7.629551e-01 -7.760345e-01 -7.643776e-01 -7.745128e-01 -7.658853e-01 -7.731528e-01 -7.679743e-01 -7.725206e-01 -7.703912e-01 -7.722572e-01 -7.721192e-01 -7.718718e-01 -7.725840e-01 -7.716551e-01 -7.720248e-01 -7.723618e-01 -7.708295e-01 -7.744108e-01 -7.690595e-01 -7.777064e-01 -7.665602e-01 -7.817362e-01 -7.632291e-01 -7.860027e-01 -7.597431e-01 -7.902670e-01 -7.576357e-01 -7.932690e-01 -7.615313e-01 -7.855618e-01 -7.629430e-01 -7.818314e-01 -7.650212e-01 
-9.252281e-01 -9.074754e-01 -9.306461e-01 -9.122224e-01 -9.297115e-01 -9.062578e-01 -9.301414e-01 -9.468592e-01 -9.276495e-01 -9.589897e-01 -9.334817e-01 -9.741284e-01 -9.463133e-01 -9.734384e-01 -8.908474e-01 -8.974841e-01 -8.357524e-01 -8.347889e-01 -7.742636e-01 -7.792174e-01 -7.008322e-01 -7.166251e-01 -7.060391e-01 -7.293257e-01 -7.196220e-01 -7.374109e-01 -7.298584e-01 -7.427650e-01 -7.376675e-01 -7.461320e-01 -7.443502e-01 -7.496208e-01 -7.520600e-01 -7.547672e-01 -7.609614e-01 -7.606288e-01 -7.692549e-01 -7.653925e-01 -7.755678e-01 -7.687683e-01 -7.806692e-01 -7.724145e-01 -7.863875e-01 -7.777659e-01 -7.932122e-01 -7.842318e-01 -7.997588e-01 -7.902848e-01 -8.052554e-01 -7.961586e-01 -8.108143e-01 -8.029011e-01 -8.173425e-01 -8.109323e-01 -8.257231e-01 -8.213545e-01 -8.390915e-01 -8.079829e-01 -8.283905e-01 -8.422256e-01 -8.029244e-01 -7.963921e-01 -8.163737e-01 -8.290600e-01 -8.180607e-01 -7.751654e-01 -8.130049e-01 -7.617655e-01 -7.534216e-01 -7.650173e-01 -7.730905e-01 -8.040852e-01 -7.946881e-01 -7.855193e-01 -8.002763e-01 -7.926620e-01 -8.069589e-01 -7.967686e-01 -8.124952e-01 -8.000398e-01 -8.181232e-01 -8.037409e-01 -8.242457e-01 -8.081790e-01 -8.304200e-01 -8.127136e-01 -8.356523e-01 -8.165680e-01 -8.395719e-01 -8.201490e-01 -8.432331e-01 -8.248302e-01 -8.475603e-01 -8.306286e-01 -8.516564e-01 -8.362860e-01 -8.545026e-01 -8.412446e-01 -8.562570e-01 -8.461905e-01 -8.584328e-01 -8.525852e-01 -8.622748e-01 -8.600994e-01 -8.666518e-01 -8.664783e-01 -8.700599e-01 -8.705633e-01 -8.729669e-01 -8.731846e-01 -8.770500e-01 -8.754186e-01 -8.832134e-01 -8.773608e-01 -8.912346e-01 -8.783565e-01 -9.000379e-01 -8.774773e-01 -9.088842e-01 -8.750468e-01 -9.185805e-01 -8.695860e-01 -9.342736e-01 -8.926295e-01 -9.201560e-01 -8.923052e-01 -9.196411e-01 -8.991429e-01 
-7.797018e-01 -7.704970e-01 -7.861775e-01 -7.729698e-01 -7.859291e-01 -7.628874e-01 -8.192760e-01 -8.511758e-01 -8.308560e-01 -8.638876e-01 -8.499524e-01 -8.817468e-01 -8.669804e-01 -8.315848e-01 -6.407801e-01 -5.332942e-01 -3.971409e-01 -2.694976e-01 -1.290213e-01 -3.281968e-02 1.653208e-01 2.107776e-01 1.951281e-01 1.957093e-01 1.769056e-01 1.784580e-01 1.576740e-01 1.604724e-01 1.382343e-01 1.422862e-01 1.186727e-01 1.235365e-01 9.853073e-02 1.039111e-01 7.791651e-02 8.390565e-02 5.756499e-02 6.429130e-02 3.801015e-02 4.526366e-02 1.901311e-02 2.628852e-02 -8.402643e-05 6.838493e-03 -1.950713e-02 -1.294755e-02 -3.886851e-02 -3.264516e-02 -5.799159e-02 -5.248630e-02 -7.740829e-02 -7.300906e-02 -9.772915e-02 -9.461535e-02 -1.198190e-01 -1.180847e-01 -1.482173e-01 -5.949451e-02 -1.008614e-01 -2.050068e-01 -5.813360e-02 -8.088809e-02 -1.396296e-01 -2.003469e-01 -1.869063e-01 -4.543289e-02 -2.073604e-01 -3.551389e-02 -6.201403e-02 -1.212317e-01 -1.796769e-01 -3.193561e-01 -2.693342e-01 -2.553103e-01 -2.801472e-01 -2.757291e-01 -2.996916e-01 -2.944580e-01 -3.189986e-01 -3.130314e-01 -3.385150e-01 -3.319468e-01 -3.582439e-01 -3.512874e-01 -3.778830e-01 -3.707289e-01 -3.970126e-01 -3.898672e-01 -4.154885e-01 -4.087859e-01 -4.337000e-01 -4.279673e-01 -4.520338e-01 -4.474602e-01 -4.702356e-01 -4.668950e-01 -4.880210e-01 -4.861392e-01 -5.055089e-01 -5.054893e-01 -5.232956e-01 -5.254725e-01 -5.418581e-01 -5.459364e-01 -5.608250e-01 -5.660008e-01 -5.796707e-01 -5.851450e-01 -5.985362e-01 -6.035535e-01 -6.179856e-01 -6.215041e-01 -6.383063e-01 -6.389604e-01 -6.593992e-01 -6.556428e-01 -6.809444e-01 -6.711367e-01 -7.029910e-01 -6.850635e-01 -7.274107e-01 -6.891933e-01 -7.731424e-01 -7.667200e-01 -7.697123e-01 -7.601273e-01 -7.723891e-01 -7.640952e-01 
-9.261940e-01 -9.224284e-01 -9.598152e-01 -9.544121e-01 -9.963882e-01 -9.911817e-01 -1.076374e+00 -1.090755e+00 -1.136087e+00 -1.136862e+00 -1.197319e+00 -1.184722e+00 -1.254176e+00 -1.179658e+00 -5.328703e-01 -1.552391e-01 2.826877e-01 7.079235e-01 1.178698e+00 1.482634e+00 2.198075e+00 2.229239e+00 2.183594e+00 2.177852e+00 2.131915e+00 2.123282e+00 2.077274e+00 2.066283e+00 2.020226e+00 2.007063e+00 1.962020e+00 1.947536e+00 1.904858e+00 1.889269e+00 1.849047e+00 1.831543e+00 1.792997e+00 1.772828e+00 1.735481e+00 1.713019e+00 1.677298e+00 1.653833e+00 1.620226e+00 1.596707e+00 1.564747e+00 1.541126e+00 1.509552e+00 1.485694e+00 1.454034e+00 1.430828e+00 1.399573e+00 1.378038e+00 1.347627e+00 1.328793e+00 1.300257e+00 1.286370e+00 1.260282e+00 1.317211e+00 1.284160e+00 1.159405e+00 1.253110e+00 1.190900e+00 1.124694e+00 1.051690e+00 1.009221e+00 1.096406e+00 9.107720e-01 1.024064e+00 9.325027e-01 8.657552e-01 7.775305e-01 6.443022e-01 6.675573e-01 6.629038e-01 6.259854e-01 6.132253e-01 5.726296e-01 5.584171e-01 5.163510e-01 5.010816e-01 4.590963e-01 4.430292e-01 4.018452e-01 3.849280e-01 3.446016e-01 3.264805e-01 2.866402e-01 2.672242e-01 2.277056e-01 2.077100e-01 1.688394e-01 1.493174e-01 1.108658e-01 9.202510e-02 5.280835e-02 3.451975e-02 -6.465547e-03 -2.381491e-02 -6.694374e-02 -8.235645e-02 -1.273058e-01 -1.396526e-01 -1.864660e-01 -1.959030e-01 -2.456292e-01 -2.530989e-01 -3.063261e-01 -3.121293e-01 -3.681168e-01 -3.719630e-01 -4.293484e-01 -4.313648e-01 -4.890831e-01 -4.901562e-01 -5.474749e-01 -5.490174e-01 -6.055951e-01 -6.089945e-01 -6.644707e-01 -6.696756e-01 -7.250455e-01 -7.245295e-01 -8.015483e-01 -8.308289e-01 -8.542792e-01 -8.620004e-01 -8.921803e-01 -8.921223e-01 
-7.825841e-01 -7.898112e-01 -8.207265e-01 -8.292358e-01 -8.648205e-01 -8.792985e-01 -9.261872e-01 -9.372029e-01 -9.833225e-01 -9.884396e-01 -1.038126e+00 -1.037225e+00 -1.089151e+00 -1.078836e+00 -2.925290e-01 -2.033851e-01 5.256345e-01 6.395163e-01 1.371312e+00 1.453928e+00 2.242559e+00 2.254228e+00 2.199896e+00 2.205036e+00 2.150648e+00 2.152921e+00 2.098560e+00 2.098456e+00 2.044353e+00 2.042002e+00 1.989149e+00 1.985148e+00 1.934679e+00 1.929153e+00 1.881189e+00 1.873494e+00 1.827453e+00 1.817009e+00 1.772513e+00 1.759612e+00 1.716950e+00 1.702605e+00 1.662096e+00 1.647085e+00 1.608292e+00 1.592641e+00 1.554503e+00 1.538152e+00 1.500141e+00 1.483768e+00 1.446001e+00 1.430289e+00 1.392746e+00 1.378119e+00 1.341020e+00 1.328162e+00 1.292261e+00 1.284969e+00 1.244216e+00 1.213779e+00 1.175848e+00 1.148015e+00 1.103629e+00 1.078198e+00 1.027986e+00 1.012039e+00 9.527595e-01 9.425227e-01 8.806204e-01 8.644913e-01 8.093177e-01 7.915084e-01 7.545487e-01 7.472781e-01 7.058189e-01 6.958725e-01 6.533881e-01 6.412893e-01 5.990305e-01 5.852648e-01 5.440822e-01 5.289398e-01 4.891730e-01 4.727167e-01 4.342170e-01 4.162981e-01 3.786226e-01 3.592809e-01 3.221862e-01 3.020742e-01 2.656920e-01 2.457277e-01 2.097717e-01 1.902445e-01 1.536989e-01 1.346559e-01 9.663466e-02 7.850899e-02 3.861664e-02 2.229286e-02 -1.931612e-02 -3.290699e-02 -7.631931e-02 -8.728381e-02 -1.332774e-01 -1.424047e-01 -1.913258e-01 -1.990111e-01 -2.501126e-01 -2.563715e-01 -3.083535e-01 -3.135769e-01 -3.653073e-01 -3.705032e-01 -4.210866e-01 -4.276840e-01 -4.764907e-01 -4.859557e-01 -5.321744e-01 -5.453065e-01 -5.880218e-01 -6.052650e-01 -6.449979e-01 -6.706226e-01 -7.017522e-01 -7.160504e-01 -7.447266e-01 -7.537375e-01 
-9.290097e-01 -9.310500e-01 -9.778686e-01 -9.790329e-01 -1.030176e+00 -1.031750e+00 -1.089368e+00 -1.091865e+00 -1.149435e+00 -1.149913e+00 -1.210006e+00 -1.207919e+00 -1.270179e+00 -1.266475e+00 -4.082426e-01 -3.195994e-01 4.773987e-01 5.904974e-01 1.394544e+00 1.468281e+00 2.341761e+00 2.329287e+00 2.283284e+00 2.270374e+00 2.224453e+00 2.211052e+00 2.165401e+00 2.151244e+00 2.106121e+00 2.090979e+00 2.046802e+00 2.030588e+00 1.987766e+00 1.970356e+00 1.929029e+00 1.910202e+00 1.870277e+00 1.849907e+00 1.811267e+00 1.789508e+00 1.752123e+00 1.729360e+00 1.693149e+00 1.669761e+00 1.634431e+00 1.610641e+00 1.575734e+00 1.551723e+00 1.516849e+00 1.492863e+00 1.457722e+00 1.433886e+00 1.398030e+00 1.374095e+00 1.336699e+00 1.311660e+00 1.270953e+00 1.241987e+00 1.193830e+00 1.173421e+00 1.124873e+00 1.104328e+00 1.061109e+00 1.035766e+00 9.999157e-01 9.693259e-01 9.373638e-01 9.096939e-01 8.702076e-01 8.522631e-01 8.034872e-01 7.920432e-01 7.406174e-01 7.264604e-01 6.796869e-01 6.646815e-01 6.197843e-01 6.039649e-01 5.600490e-01 5.434819e-01 5.003255e-01 4.830665e-01 4.406068e-01 4.226833e-01 3.808111e-01 3.622527e-01 3.207821e-01 3.017311e-01 2.604721e-01 2.412606e-01 2.000309e-01 1.810827e-01 1.395604e-01 1.212066e-01 7.889523e-02 6.141967e-02 1.784202e-02 1.600645e-03 -4.356977e-02 -5.815426e-02 -1.050804e-01 -1.176646e-01 -1.664958e-01 -1.770434e-01 -2.279676e-01 -2.366870e-01 -2.896925e-01 -2.968156e-01 -3.515345e-01 -3.572939e-01 -4.131201e-01 -4.178884e-01 -4.741823e-01 -4.785202e-01 -5.347099e-01 -5.392721e-01 -5.949037e-01 -6.002459e-01 -6.549626e-01 -6.613142e-01 -7.149080e-01 -7.222458e-01 -7.745004e-01 -7.843655e-01 -8.299863e-01 -8.369468e-01 -8.806304e-01 -8.846843e-01 
-7.844166e-01 -7.957701e-01 -8.316078e-01 -8.431294e-01 -8.815097e-01 -8.939519e-01 -9.355799e-01 -9.484424e-01 -9.920058e-01 -1.005734e+00 -1.050593e+00 -1.067341e+00 -1.112308e+00 -1.136530e+00 -2.733838e-01 -2.646091e-01 5.703377e-01 5.920079e-01 1.425261e+00 1.436756e+00 2.293715e+00 2.277260e+00 2.225407e+00 2.215781e+00 2.163494e+00 2.157112e+00 2.104858e+00 2.099639e+00 2.047864e+00 2.042601e+00 1.991792e+00 1.985815e+00 1.936389e+00 1.929263e+00 1.881411e+00 1.872799e+00 1.826516e+00 1.816241e+00 1.771465e+00 1.759601e+00 1.716285e+00 1.703100e+00 1.661129e+00 1.646917e+00 1.606020e+00 1.591001e+00 1.550792e+00 1.535168e+00 1.495296e+00 1.479310e+00 1.439484e+00 1.423311e+00 1.383200e+00 1.366817e+00 1.325951e+00 1.308998e+00 1.266568e+00 1.248007e+00 1.202610e+00 1.185911e+00 1.140579e+00 1.123874e+00 1.079325e+00 1.060746e+00 1.018866e+00 9.990068e-01 9.563025e-01 9.382941e-01 8.938890e-01 8.791842e-01 8.319630e-01 8.197723e-01 7.721044e-01 7.597323e-01 7.145658e-01 7.018320e-01 6.581200e-01 6.446085e-01 6.020483e-01 5.875932e-01 5.461389e-01 5.306882e-01 4.903087e-01 4.738661e-01 4.344492e-01 4.170753e-01 3.784258e-01 3.602904e-01 3.221785e-01 3.035949e-01 2.657641e-01 2.471261e-01 2.092216e-01 1.908969e-01 1.524593e-01 1.347974e-01 9.538058e-02 7.875993e-02 3.802573e-02 2.283014e-02 -1.942867e-02 -3.291909e-02 -7.684214e-02 -8.859216e-02 -1.342574e-01 -1.444546e-01 -1.917365e-01 -2.006752e-01 -2.491575e-01 -2.572177e-01 -3.062662e-01 -3.139713e-01 -3.628690e-01 -3.708852e-01 -4.189194e-01 -4.279613e-01 -4.744769e-01 -4.851456e-01 -5.295615e-01 -5.421488e-01 -5.840222e-01 -5.983813e-01 -6.375122e-01 -6.529066e-01 -6.891631e-01 -7.030255e-01 -7.376736e-01 -7.498857e-01 
-9.299794e-01 -9.332518e-01 -9.821959e-01 -9.847862e-01 -1.036550e+00 -1.039165e+00 -1.094066e+00 -1.097224e+00 -1.153904e+00 -1.157927e+00 -1.215954e+00 -1.222620e+00 -1.280989e+00 -1.294736e+00 -3.893289e-01 -3.598471e-01 5.117898e-01 5.548459e-01 1.430170e+00 1.451581e+00 2.366497e+00 2.339908e+00 2.295280e+00 2.275007e+00 2.230151e+00 2.212707e+00 2.168028e+00 2.151556e+00 2.107388e+00 2.090878e+00 2.047517e+00 2.030404e+00 1.988073e+00 1.970027e+00 1.928837e+00 1.909663e+00 1.869618e+00 1.849253e+00 1.810293e+00 1.788813e+00 1.750838e+00 1.728421e+00 1.691263e+00 1.668117e+00 1.631526e+00 1.607855e+00 1.571526e+00 1.547525e+00 1.511139e+00 1.486981e+00 1.450213e+00 1.426014e+00 1.388498e+00 1.364278e+00 1.325598e+00 1.301322e+00 1.261079e+00 1.236873e+00 1.194968e+00 1.171863e+00 1.129468e+00 1.106751e+00 1.065045e+00 1.042056e+00 1.001341e+00 9.783136e-01 9.376542e-01 9.159217e-01 8.736102e-01 8.542239e-01 8.098288e-01 7.923643e-01 7.469381e-01 7.300910e-01 6.849404e-01 6.682343e-01 6.236604e-01 6.068068e-01 5.628566e-01 5.456814e-01 5.023471e-01 4.847573e-01 4.419991e-01 4.239711e-01 3.817022e-01 3.632876e-01 3.213638e-01 3.026992e-01 2.609158e-01 2.422199e-01 2.003128e-01 1.818692e-01 1.395241e-01 1.216571e-01 7.853173e-02 6.158005e-02 1.733712e-02 1.626863e-03 -4.402772e-02 -5.821677e-02 -1.055048e-01 -1.179824e-01 -1.670334e-01 -1.777339e-01 -2.285603e-01 -2.375528e-01 -2.900244e-01 -2.975064e-01 -3.513463e-01 -3.576331e-01 -4.124433e-01 -4.179437e-01 -4.732488e-01 -4.784190e-01 -5.337169e-01 -5.389920e-01 -5.938024e-01 -5.995168e-01 -6.534093e-01 -6.597262e-01 -7.122964e-01 -7.191715e-01 -7.699163e-01 -7.770818e-01 -8.252556e-01 -8.313447e-01 -8.782260e-01 -8.827866e-01 
-7.844603e-01 -7.958301e-01 -8.316642e-01 -8.431989e-01 -8.815762e-01 -8.940302e-01 -9.356528e-01 -9.485249e-01 -9.920749e-01 -1.005811e+00 -1.050647e+00 -1.067403e+00 -1.112346e+00 -1.136590e+00 -2.734301e-01 -2.646171e-01 5.702369e-01 5.919767e-01 1.425086e+00 1.436555e+00 2.293481e+00 2.276726e+00 2.225135e+00 2.215194e+00 2.163197e+00 2.156498e+00 2.104578e+00 2.099074e+00 2.047690e+00 2.042189e+00 1.991761e+00 1.985550e+00 1.936396e+00 1.929024e+00 1.881304e+00 1.872476e+00 1.826203e+00 1.815800e+00 1.770938e+00 1.759039e+00 1.715519e+00 1.702321e+00 1.659975e+00 1.645678e+00 1.604224e+00 1.589026e+00 1.548154e+00 1.532286e+00 1.491707e+00 1.475403e+00 1.434849e+00 1.418301e+00 1.377487e+00 1.360775e+00 1.319372e+00 1.302483e+00 1.260212e+00 1.243186e+00 1.199982e+00 1.183177e+00 1.139478e+00 1.122831e+00 1.078962e+00 1.062337e+00 1.018455e+00 1.002026e+00 9.577289e-01 9.419506e-01 8.970320e-01 8.821786e-01 8.367340e-01 8.226687e-01 7.772883e-01 7.635262e-01 7.188683e-01 7.050333e-01 6.613256e-01 6.470747e-01 6.044019e-01 5.894719e-01 5.478707e-01 5.321002e-01 4.915581e-01 4.748892e-01 4.353353e-01 4.178285e-01 3.791231e-01 3.609418e-01 3.228390e-01 3.042090e-01 2.663478e-01 2.475665e-01 2.095504e-01 1.910310e-01 1.524847e-01 1.346909e-01 9.523100e-02 7.858015e-02 3.783308e-02 2.264502e-02 -1.970478e-02 -3.323643e-02 -7.735778e-02 -8.914387e-02 -1.349811e-01 -1.450730e-01 -1.923798e-01 -2.010537e-01 -2.494514e-01 -2.572205e-01 -3.062018e-01 -3.137265e-01 -3.626410e-01 -3.706203e-01 -4.187247e-01 -4.278075e-01 -4.743589e-01 -4.850627e-01 -5.294550e-01 -5.420804e-01 -5.839288e-01 -5.983486e-01 -6.374678e-01 -6.529138e-01 -6.891616e-01 -7.030592e-01 -7.376998e-01 -7.499350e-01 
-9.291126e-01 -9.311874e-01 -9.779948e-01 -9.791905e-01 -1.030327e+00 -1.031929e+00 -1.089535e+00 -1.092042e+00 -1.149562e+00 -1.150044e+00 -1.210058e+00 -1.207978e+00 -1.270162e+00 -1.266494e+00 -4.082512e-01 -3.193115e-01 4.771364e-01 5.910245e-01 1.394007e+00 1.468517e+00 2.341327e+00 2.328249e+00 2.282716e+00 2.269177e+00 2.223777e+00 2.209736e+00 2.164701e+00 2.149962e+00 2.105581e+00 2.089955e+00 2.046519e+00 2.029831e+00 1.987548e+00 1.969645e+00 1.928576e+00 1.909310e+00 1.869380e+00 1.848714e+00 1.809840e+00 1.787930e+00 1.750036e+00 1.727125e+00 1.690021e+00 1.666307e+00 1.629674e+00 1.605346e+00 1.568868e+00 1.544176e+00 1.507586e+00 1.482795e+00 1.445859e+00 1.421214e+00 1.383697e+00 1.359335e+00 1.320963e+00 1.296940e+00 1.257550e+00 1.233984e+00 1.193661e+00 1.170713e+00 1.129757e+00 1.107505e+00 1.066096e+00 1.044539e+00 1.002701e+00 9.818978e-01 9.393697e-01 9.193734e-01 8.759631e-01 8.568286e-01 8.126061e-01 7.943249e-01 7.496487e-01 7.320246e-01 6.873063e-01 6.700560e-01 6.256242e-01 6.084342e-01 5.644832e-01 5.470731e-01 5.037213e-01 4.858961e-01 4.431867e-01 4.248478e-01 3.827592e-01 3.639422e-01 3.223844e-01 3.032308e-01 2.619795e-01 2.426643e-01 2.013374e-01 1.821009e-01 1.403032e-01 1.215675e-01 7.897724e-02 6.124465e-02 1.751319e-02 1.214845e-03 -4.403660e-02 -5.859122e-02 -1.057234e-01 -1.183566e-01 -1.675785e-01 -1.781546e-01 -2.294051e-01 -2.378792e-01 -2.909253e-01 -2.975050e-01 -3.520586e-01 -3.572361e-01 -4.129330e-01 -4.173398e-01 -4.736645e-01 -4.779256e-01 -5.342538e-01 -5.389040e-01 -5.946161e-01 -6.000481e-01 -6.547377e-01 -6.611941e-01 -7.147599e-01 -7.222423e-01 -7.744755e-01 -7.844397e-01 -8.300294e-01 -8.370528e-01 -8.807092e-01 -8.848064e-01 
-7.827347e-01 -7.899957e-01 -8.209054e-01 -8.294469e-01 -8.650354e-01 -8.795522e-01 -9.264472e-01 -9.374884e-01 -9.835754e-01 -9.887101e-01 -1.038289e+00 -1.037359e+00 -1.089163e+00 -1.078883e+00 -2.924812e-01 -2.031077e-01 5.254066e-01 6.400071e-01 1.370733e+00 1.453987e+00 2.241988e+00 2.252688e+00 2.199028e+00 2.203172e+00 2.149581e+00 2.150774e+00 2.097371e+00 2.096345e+00 2.043675e+00 2.040796e+00 1.989478e+00 1.984831e+00 1.935315e+00 1.928872e+00 1.881228e+00 1.872667e+00 1.826551e+00 1.815697e+00 1.771022e+00 1.758304e+00 1.715255e+00 1.701245e+00 1.659652e+00 1.644476e+00 1.603701e+00 1.587401e+00 1.547020e+00 1.529970e+00 1.489762e+00 1.472372e+00 1.432223e+00 1.414982e+00 1.374776e+00 1.357788e+00 1.316965e+00 1.299979e+00 1.258136e+00 1.241211e+00 1.198442e+00 1.181796e+00 1.138431e+00 1.122382e+00 1.078561e+00 1.063192e+00 1.018925e+00 1.004105e+00 9.590398e-01 9.443959e-01 8.985792e-01 8.841232e-01 8.380929e-01 8.240937e-01 7.783635e-01 7.647123e-01 7.196534e-01 7.060873e-01 6.620482e-01 6.481115e-01 6.051807e-01 5.904211e-01 5.487241e-01 5.328674e-01 4.924456e-01 4.753089e-01 4.361778e-01 4.178855e-01 3.801069e-01 3.609768e-01 3.243265e-01 3.044623e-01 2.681555e-01 2.475791e-01 2.109520e-01 1.903833e-01 1.532618e-01 1.336676e-01 9.565804e-02 7.769786e-02 3.820010e-02 2.224490e-02 -1.952023e-02 -3.345028e-02 -7.799181e-02 -8.960969e-02 -1.366033e-01 -1.454865e-01 -1.943313e-01 -2.006890e-01 -2.510292e-01 -2.558686e-01 -3.073822e-01 -3.119321e-01 -3.638352e-01 -3.691831e-01 -4.203295e-01 -4.273838e-01 -4.763975e-01 -4.859330e-01 -5.318487e-01 -5.450168e-01 -5.875972e-01 -6.051492e-01 -6.448890e-01 -6.706982e-01 -7.018081e-01 -7.161950e-01 -7.448458e-01 -7.539053e-01 
-9.264035e-01 -9.226836e-01 -9.600621e-01 -9.547244e-01 -9.967217e-01 -9.916273e-01 -1.076941e+00 -1.091272e+00 -1.136449e+00 -1.137176e+00 -1.197354e+00 -1.184686e+00 -1.253825e+00 -1.179525e+00 -5.319864e-01 -1.543987e-01 2.822731e-01 7.110251e-01 1.176192e+00 1.486928e+00 2.197441e+00 2.227582e+00 2.182437e+00 2.175430e+00 2.130281e+00 2.120222e+00 2.075298e+00 2.063087e+00 2.018842e+00 2.005004e+00 1.962007e+00 1.946720e+00 1.905375e+00 1.888649e+00 1.848930e+00 1.830348e+00 1.791736e+00 1.771034e+00 1.733405e+00 1.711104e+00 1.674745e+00 1.651537e+00 1.616299e+00 1.592274e+00 1.557402e+00 1.532536e+00 1.497581e+00 1.472288e+00 1.437074e+00 1.411827e+00 1.376323e+00 1.351730e+00 1.315921e+00 1.292129e+00 1.255419e+00 1.232155e+00 1.194172e+00 1.171603e+00 1.132701e+00 1.110556e+00 1.071415e+00 1.050486e+00 1.010361e+00 9.907225e-01 9.498630e-01 9.317555e-01 8.892556e-01 8.715425e-01 8.280416e-01 8.099550e-01 7.657383e-01 7.480900e-01 7.037180e-01 6.871194e-01 6.426373e-01 6.267593e-01 5.826702e-01 5.669839e-01 5.234558e-01 5.074248e-01 4.646733e-01 4.479505e-01 4.060750e-01 3.883777e-01 3.474497e-01 3.288665e-01 2.890448e-01 2.699014e-01 2.310073e-01 2.113232e-01 1.724710e-01 1.521251e-01 1.126215e-01 9.239444e-02 5.222017e-02 3.320028e-02 -7.958090e-03 -2.508438e-02 -6.782474e-02 -8.271264e-02 -1.279197e-01 -1.406404e-01 -1.889321e-01 -1.991267e-01 -2.501230e-01 -2.571538e-01 -3.102226e-01 -3.141761e-01 -3.691141e-01 -3.710214e-01 -4.277593e-01 -4.288534e-01 -4.867790e-01 -4.880585e-01 -5.461291e-01 -5.483344e-01 -6.052335e-01 -6.088341e-01 -6.639970e-01 -6.693891e-01 -7.246983e-01 -7.247340e-01 -8.017388e-01 -8.311651e-01 -8.544951e-01 -8.622757e-01 -8.923837e-01 -8.923690e-01 
-7.799722e-01 -7.707660e-01 -7.864481e-01 -7.732590e-01 -7.862660e-01 -7.632678e-01 -8.198604e-01 -8.515028e-01 -8.309653e-01 -8.637359e-01 -8.495657e-01 -8.812103e-01 -8.662657e-01 -8.310589e-01 -6.396791e-01 -5.324111e-01 -3.966577e-01 -2.676830e-01 -1.295542e-01 -3.059535e-02 1.653619e-01 2.110136e-01 1.948751e-01 1.954155e-01 1.761922e-01 1.777191e-01 1.566888e-01 1.594533e-01 1.370548e-01 1.410015e-01 1.174483e-01 1.224108e-01 9.785275e-02 1.035996e-01 7.825969e-02 8.466740e-02 5.889591e-02 6.580603e-02 3.978527e-02 4.682998e-02 2.057893e-02 2.741706e-02 1.094417e-03 7.676945e-03 -1.836836e-02 -1.200124e-02 -3.755726e-02 -3.149011e-02 -5.646036e-02 -5.076960e-02 -7.511308e-02 -6.989672e-02 -9.357683e-02 -8.872722e-02 -1.114839e-01 -1.067042e-01 -1.283189e-01 -1.235140e-01 -1.438491e-01 -1.400953e-01 -1.590761e-01 -1.557984e-01 -1.752722e-01 -1.723692e-01 -1.920377e-01 -1.884855e-01 -2.089033e-01 -2.054207e-01 -2.253638e-01 -2.231829e-01 -2.433617e-01 -2.417059e-01 -2.622985e-01 -2.597766e-01 -2.814757e-01 -2.780930e-01 -3.008061e-01 -2.965116e-01 -3.200209e-01 -3.148245e-01 -3.389727e-01 -3.330332e-01 -3.576652e-01 -3.512082e-01 -3.761981e-01 -3.695690e-01 -3.948485e-01 -3.884201e-01 -4.137956e-01 -4.077612e-01 -4.327580e-01 -4.272062e-01 -4.513935e-01 -4.467100e-01 -4.698861e-01 -4.665462e-01 -4.884144e-01 -4.867132e-01 -5.069250e-01 -5.069745e-01 -5.251851e-01 -5.268556e-01 -5.429808e-01 -5.461732e-01 -5.606916e-01 -5.652510e-01 -5.789405e-01 -5.842744e-01 -5.979451e-01 -6.029489e-01 -6.175207e-01 -6.208809e-01 -6.375809e-01 -6.379820e-01 -6.582463e-01 -6.544075e-01 -6.798261e-01 -6.703806e-01 -7.026774e-01 -6.852440e-01 -7.279466e-01 -6.900511e-01 -7.739704e-01 -7.674252e-01 -7.702256e-01 -7.605652e-01 -7.727287e-01 -7.644073e-01 
-9.254188e-01 -9.076547e-01 -9.308171e-01 -9.123839e-01 -9.298865e-01 -9.064043e-01 -9.303545e-01 -9.468836e-01 -9.275340e-01 -9.586858e-01 -9.330858e-01 -9.736878e-01 -9.458478e-01 -9.730651e-01 -8.902944e-01 -8.970339e-01 -8.353897e-01 -8.340507e-01 -7.742238e-01 -7.782367e-01 -7.005675e-01 -7.159818e-01 -7.057799e-01 -7.286341e-01 -7.195424e-01 -7.367206e-01 -7.298526e-01 -7.422600e-01 -7.382828e-01 -7.466571e-01 -7.459796e-01 -7.508526e-01 -7.536028e-01 -7.554123e-01 -7.612526e-01 -7.600045e-01 -7.680999e-01 -7.639255e-01 -7.738774e-01 -7.676459e-01 -7.795185e-01 -7.721871e-01 -7.856244e-01 -7.774304e-01 -7.914804e-01 -7.824590e-01 -7.965134e-01 -7.870890e-01 -8.008538e-01 -7.914561e-01 -8.047997e-01 -7.959334e-01 -8.087230e-01 -8.003257e-01 -8.117609e-01 -8.032653e-01 -8.126476e-01 -8.040254e-01 -8.111592e-01 -8.034101e-01 -8.086082e-01 -8.013200e-01 -8.066629e-01 -7.995100e-01 -8.050874e-01 -7.970660e-01 -8.030885e-01 -7.949702e-01 -8.004739e-01 -7.938691e-01 -7.999925e-01 -7.943890e-01 -8.018532e-01 -7.954326e-01 -8.052258e-01 -7.974580e-01 -8.097813e-01 -8.001853e-01 -8.148074e-01 -8.030670e-01 -8.198471e-01 -8.059722e-01 -8.246954e-01 -8.088309e-01 -8.292873e-01 -8.119624e-01 -8.340546e-01 -8.159985e-01 -8.392812e-01 -8.208462e-01 -8.441247e-01 -8.254572e-01 -8.477121e-01 -8.298377e-01 -8.507385e-01 -8.349492e-01 -8.539025e-01 -8.410083e-01 -8.572300e-01 -8.475842e-01 -8.601663e-01 -8.535323e-01 -8.620747e-01 -8.584430e-01 -8.638548e-01 -8.632558e-01 -8.670075e-01 -8.684749e-01 -8.718763e-01 -8.732439e-01 -8.776889e-01 -8.764126e-01 -8.839793e-01 -8.776775e-01 -8.908922e-01 -8.774712e-01 -8.990696e-01 -8.767463e-01 -9.088083e-01 -8.753630e-01 -9.192793e-01 -8.702589e-01 -9.349297e-01 -8.931282e-01 -9.205484e-01 -8.926213e-01 -9.198947e-01 -8.993657e-01 
-7.805441e-01 -7.674066e-01 -7.792936e-01 -7.688617e-01 -7.763056e-01 -7.692557e-01 -7.708737e-01 -7.819154e-01 -7.668811e-01 -7.881581e-01 -7.659143e-01 -7.900355e-01 -7.676761e-01 -7.871858e-01 -7.721337e-01 -7.893167e-01 -7.793562e-01 -7.918726e-01 -7.872293e-01 -7.937046e-01 -7.936981e-01 -7.935426e-01 -7.942454e-01 -7.939179e-01 -7.961933e-01 -7.945013e-01 -7.986013e-01 -7.948539e-01 -8.010455e-01 -7.950383e-01 -8.035681e-01 -7.953343e-01 -8.062979e-01 -7.959557e-01 -8.091302e-01 -7.966698e-01 -8.115361e-01 -7.970776e-01 -8.132824e-01 -7.973602e-01 -8.147688e-01 -7.980284e-01 -8.163215e-01 -7.990966e-01 -8.176472e-01 -8.001137e-01 -8.183855e-01 -8.008366e-01 -8.184621e-01 -8.011966e-01 -8.179246e-01 -8.012120e-01 -8.167805e-01 -8.005755e-01 -8.144498e-01 -7.984898e-01 -8.102142e-01 -7.946222e-01 -8.041556e-01 -7.899946e-01 -7.981526e-01 -7.849367e-01 -7.930837e-01 -7.801653e-01 -7.887616e-01 -7.757023e-01 -7.845486e-01 -7.720579e-01 -7.801102e-01 -7.691144e-01 -7.766649e-01 -7.666580e-01 -7.747054e-01 -7.642426e-01 -7.738938e-01 -7.624152e-01 -7.739492e-01 -7.610996e-01 -7.744476e-01 -7.600752e-01 -7.751166e-01 -7.592864e-01 -7.757950e-01 -7.586948e-01 -7.763714e-01 -7.583985e-01 -7.769281e-01 -7.586213e-01 -7.775192e-01 -7.593349e-01 -7.778073e-01 -7.601609e-01 -7.774543e-01 -7.610930e-01 -7.767078e-01 -7.624586e-01 -7.758399e-01 -7.642997e-01 -7.749134e-01 -7.664116e-01 -7.738165e-01 -7.683033e-01 -7.724154e-01 -7.697026e-01 -7.711307e-01 -7.708098e-01 -7.706227e-01 -7.716941e-01 -7.711480e-01 -7.719626e-01 -7.725306e-01 -7.711452e-01 -7.746492e-01 -7.691358e-01 -7.775419e-01 -7.661965e-01 -7.813498e-01 -7.629343e-01 -7.859636e-01 -7.598560e-01 -7.905330e-01 -7.578922e-01 -7.935353e-01 -7.617550e-01 -7.857572e-01 -7.631099e-01 -7.819742e-01 -7.651467e-01 
