# vtk DataFile Version 2.0
Comment goes here
ASCII

DATASET STRUCTURED_POINTS
FIELD FieldData 1
TIME 1 1 double
0.84000000
DIMENSIONS    128   16   1

ORIGIN    0.000   0.000   0.000
SPACING   0.0078125 0.015625   1.000

POINT_DATA   2048
SCALARS uMag double
LOOKUP_TABLE default

2.369003e-03 3.334276e-03 1.579277e-03 3.558936e-03 1.002022e-03 6.776560e-03 5.122862e-03 1.362736e-03 3.607807e-03 1.974817e-03 1.334599e-03 8.713904e-03 1.215776e-02 2.112866e-02 2.491227e-02 2.885614e-02 2.780418e-02 2.984426e-02 2.649935e-02 2.520859e-02 2.030805e-02 1.272869e-02 7.155393e-03 2.962102e-03 2.002403e-04 1.447321e-03 2.642880e-03 3.455289e-03 3.734741e-03 4.426040e-03 4.068393e-03 4.920999e-03 4.095783e-03 5.179996e-03 4.028954e-03 5.303258e-03 3.963652e-03 5.330145e-03 3.937314e-03 5.277757e-03 3.961701e-03 5.160758e-03 4.042310e-03 4.998620e-03 4.185450e-03 4.813688e-03 4.396220e-03 4.630213e-03 4.671095e-03 4.476576e-03 4.971978e-03 4.369180e-03 5.144608e-03 4.253302e-03 4.800074e-03 4.543821e-03 4.967623e-03 8.152969e-03 3.388867e-03 7.677889e-03 9.263642e-03 5.330476e-03 9.089411e-03 6.118191e-03 1.138378e-02 9.742177e-03 7.097181e-03 1.151654e-02 3.150849e-03 3.886064e-03 4.501818e-03 4.046033e-03 1.590499e-03 3.525730e-03 2.689924e-03 4.191094e-03 3.163133e-03 4.291037e-03 3.319503e-03 4.201475e-03 3.416578e-03 4.034921e-03 3.541220e-03 3.819807e-03 3.707942e-03 3.568620e-03 3.905178e-03 3.301684e-03 4.109699e-03 3.049022e-03 4.290495e-03 2.845477e-03 4.412411e-03 2.724652e-03 4.441103e-03 2.713528e-03 4.350421e-03 2.829031e-03 4.130040e-03 3.074297e-03 3.788602e-03 3.433939e-03 3.353455e-03 3.872237e-03 2.869829e-03 4.335332e-03 2.398257e-03 4.756126e-03 2.010468e-03 5.062569e-03 1.784846e-03 5.188281e-03 1.798460e-03 5.083489e-03 2.116765e-03 4.729548e-03 2.784802e-03 4.159432e-03 3.818210e-03 3.477548e-03 5.191114e-03 2.837089e-03 6.645065e-03 6.203927e-04 2.183724e-03 1.227581e-03 2.261395e-03 2.677208e-03 
6.855499e-04 1.407448e-03 7.660144e-04 1.214701e-03 4.149027e-03 6.504731e-03 6.705990e-03 1.610110e-03 5.655186e-03 5.019581e-03 7.977682e-03 1.085868e-02 1.314785e-02 1.279192e-02 9.753283e-03 4.393712e-03 5.836938e-03 4.373556e-03 6.675457e-03 7.537261e-03 1.272345e-02 1.348086e-02 9.846735e-03 7.263845e-03 4.607039e-03 3.431431e-03 2.391746e-03 2.177726e-03 1.508600e-03 1.946017e-03 1.079781e-03 1.973027e-03 8.099950e-04 2.025145e-03 6.297849e-04 2.050811e-03 5.325233e-04 2.033211e-03 5.165890e-04 1.960560e-03 5.741177e-04 1.837904e-03 7.044338e-04 1.678270e-03 9.174552e-04 1.488453e-03 1.243030e-03 1.314774e-03 1.766066e-03 1.484982e-03 2.737218e-03 2.852096e-03 4.847159e-03 6.476011e-03 9.939586e-03 1.505088e-02 1.923981e-02 1.705332e-02 8.162269e-03 1.716380e-02 1.152015e-02 5.113803e-03 1.207369e-02 5.519235e-03 1.079856e-02 1.240464e-02 4.509901e-03 1.737956e-02 1.825518e-02 1.500623e-02 1.950407e-02 4.443611e-03 7.532632e-03 6.281775e-03 4.028650e-03 2.953329e-03 1.957290e-03 1.800337e-03 1.035306e-03 1.229477e-03 4.995030e-04 8.982925e-04 2.124951e-04 6.429429e-04 2.700293e-04 4.118830e-04 4.799609e-04 2.735101e-04 6.894739e-04 3.629803e-04 8.690660e-04 5.311510e-04 9.917701e-04 6.480904e-04 1.031022e-03 6.692790e-04 9.636826e-04 5.907880e-04 7.815423e-04 4.557864e-04 5.318678e-04 4.246132e-04 4.355102e-04 6.759514e-04 7.060600e-04 1.071761e-03 1.093586e-03 1.470576e-03 1.434829e-03 1.772736e-03 1.646025e-03 1.911967e-03 1.643526e-03 1.865276e-03 1.363887e-03 1.654124e-03 8.392309e-04 1.399355e-03 8.332776e-04 1.389312e-03 2.089256e-03 1.744366e-03 4.379526e-03 6.036236e-03 2.223166e-03 1.605955e-03 1.491466e-03 4.205747e-04 
4.550726e-03 4.613368e-03 1.320595e-03 3.898310e-03 1.123668e-02 1.494715e-02 1.189347e-02 6.209567e-03 3.434904e-03 3.633101e-03 1.544376e-03 1.145300e-03 4.652488e-03 8.457419e-03 9.798660e-03 1.106883e-02 1.006223e-02 1.124019e-02 9.799073e-03 9.322206e-03 8.284865e-03 3.313037e-03 2.310826e-03 3.342882e-03 2.558771e-03 5.432064e-03 4.379030e-03 6.151546e-03 5.379982e-03 6.300312e-03 6.017313e-03 6.217831e-03 6.454272e-03 6.055765e-03 6.748560e-03 5.888931e-03 6.924442e-03 5.755403e-03 7.009271e-03 5.678208e-03 7.015993e-03 5.630924e-03 6.914179e-03 5.556746e-03 6.676105e-03 5.398185e-03 6.280108e-03 5.087980e-03 5.771813e-03 4.680877e-03 5.633885e-03 5.074848e-03 7.743429e-03 9.170659e-03 1.541266e-02 2.058798e-02 2.818862e-02 2.218995e-02 2.322380e-02 2.255346e-02 2.976501e-02 1.839701e-02 2.741472e-02 2.092055e-02 2.824658e-02 2.893970e-02 1.974009e-02 2.721246e-02 8.477623e-03 1.406606e-02 1.493725e-02 9.924683e-03 4.290955e-03 1.074815e-02 5.997316e-03 6.287654e-03 5.087504e-03 5.654825e-03 5.859530e-03 5.978585e-03 6.482709e-03 6.416169e-03 6.813641e-03 6.811665e-03 6.905988e-03 7.173228e-03 6.852252e-03 7.526563e-03 6.716459e-03 7.853988e-03 6.545826e-03 8.125332e-03 6.393951e-03 8.307357e-03 6.311402e-03 8.372629e-03 6.347402e-03 8.316204e-03 6.540255e-03 8.144496e-03 6.888354e-03 7.849513e-03 7.342854e-03 7.439465e-03 7.845178e-03 6.955193e-03 8.331787e-03 6.465426e-03 8.754656e-03 6.077651e-03 9.078107e-03 5.893576e-03 9.231443e-03 6.009948e-03 9.154916e-03 6.525378e-03 8.834170e-03 7.505045e-03 8.282664e-03 8.961570e-03 7.574260e-03 1.078002e-02 8.604429e-03 1.644555e-02 7.950057e-03 3.586349e-03 4.685560e-03 4.574976e-03 
5.989563e-03 7.865736e-03 1.078898e-02 1.940358e-02 1.063993e-02 2.474386e-02 1.568550e-02 1.184813e-02 1.709471e-02 1.112909e-02 1.751190e-02 1.137124e-02 1.780434e-02 1.352929e-02 1.925719e-02 1.594067e-02 1.885319e-02 1.707440e-02 1.767808e-02 1.753306e-02 1.516986e-02 1.629130e-02 1.280056e-02 1.548202e-02 1.257975e-02 1.525285e-02 1.267989e-02 1.508566e-02 1.287376e-02 1.490451e-02 1.309559e-02 1.469045e-02 1.331250e-02 1.445079e-02 1.350373e-02 1.419885e-02 1.365543e-02 1.394543e-02 1.376036e-02 1.369647e-02 1.380730e-02 1.343877e-02 1.376561e-02 1.314152e-02 1.359951e-02 1.275734e-02 1.325459e-02 1.220703e-02 1.262886e-02 1.136720e-02 1.153968e-02 1.008486e-02 9.755161e-03 8.528599e-03 7.998541e-03 9.660312e-03 9.958992e-03 9.148330e-03 3.052013e-03 3.858851e-03 4.007932e-03 6.795773e-03 3.532388e-03 9.242115e-03 3.581280e-03 1.027279e-02 1.150369e-02 6.131831e-03 1.489730e-02 2.702161e-03 1.212974e-02 5.749866e-03 2.126924e-03 8.365722e-03 8.000087e-03 1.080750e-02 1.062814e-02 1.217292e-02 1.205792e-02 1.295310e-02 1.286375e-02 1.341598e-02 1.332024e-02 1.370922e-02 1.357035e-02 1.391257e-02 1.369918e-02 1.406876e-02 1.374955e-02 1.419334e-02 1.374818e-02 1.429277e-02 1.371849e-02 1.437297e-02 1.368039e-02 1.444161e-02 1.365171e-02 1.451066e-02 1.364633e-02 1.458373e-02 1.366957e-02 1.464187e-02 1.371241e-02 1.466544e-02 1.376155e-02 1.464238e-02 1.380778e-02 1.457405e-02 1.385772e-02 1.447614e-02 1.394749e-02 1.436449e-02 1.410527e-02 1.427139e-02 1.436035e-02 1.423653e-02 1.476025e-02 1.428251e-02 1.535252e-02 1.438029e-02 1.617225e-02 1.435586e-02 1.750419e-02 1.117276e-02 2.374131e-02 1.741133e-02 1.126561e-02 6.524042e-03 
2.501978e-02 2.455216e-02 3.067796e-02 3.322559e-02 4.260385e-02 2.109911e-02 2.174817e-02 2.373393e-02 1.826881e-02 2.230993e-02 1.805311e-02 1.964335e-02 1.768970e-02 1.817097e-02 1.892317e-02 1.862445e-02 1.910812e-02 1.889693e-02 1.878769e-02 1.928529e-02 1.780829e-02 1.952425e-02 1.825038e-02 2.013137e-02 1.996514e-02 2.066972e-02 2.089140e-02 2.083646e-02 2.143423e-02 2.083768e-02 2.177016e-02 2.077169e-02 2.195717e-02 2.068472e-02 2.201890e-02 2.059951e-02 2.196869e-02 2.052327e-02 2.182619e-02 2.045544e-02 2.159410e-02 2.034924e-02 2.122009e-02 2.012387e-02 2.062631e-02 1.967807e-02 1.968261e-02 1.883224e-02 1.815079e-02 1.725029e-02 1.559035e-02 1.425805e-02 1.112815e-02 8.479003e-03 3.673992e-03 4.375471e-03 1.506767e-02 2.372956e-02 1.426211e-02 1.319060e-02 1.761270e-02 4.026406e-03 1.659053e-02 4.661479e-03 8.665062e-03 4.743732e-03 4.739506e-03 1.012710e-02 1.232141e-02 8.474252e-03 8.572145e-03 7.560167e-03 2.004083e-03 9.727252e-03 1.087033e-02 1.507422e-02 1.605019e-02 1.777561e-02 1.879528e-02 1.935655e-02 2.027783e-02 2.034208e-02 2.105715e-02 2.100867e-02 2.142263e-02 2.151289e-02 2.155550e-02 2.193942e-02 2.155781e-02 2.230175e-02 2.149435e-02 2.258773e-02 2.142483e-02 2.277352e-02 2.140019e-02 2.283563e-02 2.146877e-02 2.277053e-02 2.167034e-02 2.258790e-02 2.200819e-02 2.228665e-02 2.244203e-02 2.188299e-02 2.292148e-02 2.142589e-02 2.338612e-02 2.098950e-02 2.378475e-02 2.068075e-02 2.407303e-02 2.058917e-02 2.417448e-02 2.078939e-02 2.402781e-02 2.138026e-02 2.361992e-02 2.247888e-02 2.294859e-02 2.419890e-02 2.191178e-02 2.657062e-02 1.988192e-02 3.317038e-02 3.987284e-02 3.394653e-02 2.813815e-02 2.481119e-02 
3.018872e-02 3.088714e-02 3.354764e-02 3.752215e-02 4.489760e-02 4.851014e-02 4.161268e-02 4.163580e-02 4.065475e-02 3.967709e-02 3.896655e-02 3.715778e-02 3.504191e-02 3.445888e-02 3.486183e-02 3.457367e-02 3.476862e-02 3.471666e-02 3.461257e-02 3.486371e-02 3.442664e-02 3.497535e-02 3.532415e-02 3.818679e-02 3.793185e-02 4.018559e-02 3.956027e-02 4.118870e-02 4.058426e-02 4.161224e-02 4.124416e-02 4.172113e-02 4.167135e-02 4.167157e-02 4.193537e-02 4.155237e-02 4.207313e-02 4.141165e-02 4.211278e-02 4.127768e-02 4.206569e-02 4.113808e-02 4.190892e-02 4.095646e-02 4.161791e-02 4.069880e-02 4.116802e-02 4.032451e-02 4.053692e-02 3.980844e-02 3.975275e-02 3.921334e-02 3.907622e-02 3.907228e-02 4.004994e-02 4.239470e-02 4.386885e-02 2.825669e-02 3.484145e-02 3.245906e-02 3.264684e-02 3.497472e-02 2.981409e-02 3.652010e-02 3.411933e-02 3.475850e-02 3.546803e-02 2.968586e-02 3.449450e-02 3.071895e-02 3.351620e-02 3.135145e-02 2.972254e-02 3.849483e-02 3.672385e-02 3.862492e-02 3.877579e-02 3.975625e-02 4.021780e-02 4.064718e-02 4.110179e-02 4.129126e-02 4.161298e-02 4.177244e-02 4.186660e-02 4.216200e-02 4.195745e-02 4.250525e-02 4.194898e-02 4.280570e-02 4.188645e-02 4.305260e-02 4.181409e-02 4.322839e-02 4.176920e-02 4.331669e-02 4.178671e-02 4.331454e-02 4.189736e-02 4.322643e-02 4.210657e-02 4.304866e-02 4.238940e-02 4.278858e-02 4.271675e-02 4.247670e-02 4.305371e-02 4.216083e-02 4.337215e-02 4.191286e-02 4.364528e-02 4.179160e-02 4.382248e-02 4.184053e-02 4.386625e-02 4.212100e-02 4.377833e-02 4.270494e-02 4.359801e-02 4.364228e-02 4.343449e-02 4.491860e-02 4.399166e-02 4.764641e-02 4.275397e-02 3.628926e-02 3.275918e-02 3.061255e-02 
3.751693e-02 3.813611e-02 3.896457e-02 4.159803e-02 4.327561e-02 4.922086e-02 4.706793e-02 4.672597e-02 4.772912e-02 4.664309e-02 4.766255e-02 4.708125e-02 4.651870e-02 4.560938e-02 4.601290e-02 4.572961e-02 4.591422e-02 4.588524e-02 4.574455e-02 4.604453e-02 4.554907e-02 4.627333e-02 4.619002e-02 4.738259e-02 4.619150e-02 4.742488e-02 4.630221e-02 4.742446e-02 4.650518e-02 4.735002e-02 4.671728e-02 4.722076e-02 4.690478e-02 4.706251e-02 4.704855e-02 4.689520e-02 4.713655e-02 4.673095e-02 4.716195e-02 4.657495e-02 4.711908e-02 4.642308e-02 4.700209e-02 4.626940e-02 4.681683e-02 4.612284e-02 4.659870e-02 4.603408e-02 4.645056e-02 4.616024e-02 4.663577e-02 4.691360e-02 4.780355e-02 4.933193e-02 5.164168e-02 5.632310e-02 6.240949e-02 6.809966e-02 5.848951e-02 5.869186e-02 6.007017e-02 5.254169e-02 6.051100e-02 5.088163e-02 5.628775e-02 5.382744e-02 4.941365e-02 5.757717e-02 4.825601e-02 5.731842e-02 5.335624e-02 5.217355e-02 5.907936e-02 5.268413e-02 5.154826e-02 4.859854e-02 4.854485e-02 4.738465e-02 4.752968e-02 4.704859e-02 4.723563e-02 4.706618e-02 4.719390e-02 4.722011e-02 4.721026e-02 4.742040e-02 4.721741e-02 4.762876e-02 4.720123e-02 4.782274e-02 4.716947e-02 4.798573e-02 4.713951e-02 4.810419e-02 4.713048e-02 4.816845e-02 4.715970e-02 4.817451e-02 4.723945e-02 4.812260e-02 4.737145e-02 4.801558e-02 4.754544e-02 4.786299e-02 4.774449e-02 4.768380e-02 4.794717e-02 4.750493e-02 4.813066e-02 4.735827e-02 4.827037e-02 4.727016e-02 4.833741e-02 4.725581e-02 4.830702e-02 4.731714e-02 4.816807e-02 4.743113e-02 4.794142e-02 4.753552e-02 4.776534e-02 4.755106e-02 4.832765e-02 4.628799e-02 4.304898e-02 4.054258e-02 3.880902e-02 3.787899e-02 
3.745325e-02 3.808492e-02 3.843775e-02 4.019920e-02 4.100170e-02 4.358169e-02 4.370746e-02 4.490918e-02 4.563593e-02 4.631600e-02 4.805126e-02 4.923313e-02 5.239400e-02 5.203445e-02 5.221398e-02 5.205711e-02 5.213940e-02 5.211819e-02 5.207295e-02 5.219676e-02 5.203817e-02 5.229612e-02 5.030406e-02 4.925018e-02 4.724622e-02 4.711045e-02 4.566366e-02 4.595721e-02 4.494027e-02 4.531539e-02 4.467841e-02 4.493729e-02 4.464339e-02 4.469542e-02 4.470216e-02 4.453067e-02 4.478375e-02 4.441899e-02 4.485386e-02 4.435229e-02 4.489801e-02 4.432707e-02 4.491276e-02 4.434351e-02 4.490738e-02 4.441205e-02 4.490973e-02 4.456335e-02 4.497827e-02 4.486873e-02 4.522822e-02 4.548028e-02 4.588587e-02 4.671986e-02 4.743692e-02 4.942879e-02 5.134039e-02 5.526428e-02 5.270622e-02 5.256753e-02 5.370951e-02 5.019702e-02 5.366577e-02 5.085175e-02 5.195614e-02 5.370451e-02 5.080032e-02 5.396974e-02 4.957745e-02 5.179229e-02 5.068727e-02 4.998392e-02 5.209731e-02 4.790404e-02 4.767312e-02 4.590284e-02 4.607042e-02 4.522370e-02 4.542562e-02 4.499631e-02 4.516044e-02 4.498217e-02 4.503928e-02 4.506918e-02 4.495938e-02 4.520354e-02 4.488353e-02 4.535584e-02 4.480479e-02 4.550429e-02 4.473038e-02 4.563031e-02 4.467430e-02 4.571792e-02 4.465196e-02 4.575503e-02 4.467670e-02 4.573505e-02 4.475636e-02 4.565700e-02 4.488952e-02 4.552511e-02 4.506450e-02 4.535081e-02 4.526211e-02 4.515337e-02 4.545717e-02 4.495747e-02 4.562041e-02 4.478871e-02 4.571854e-02 4.466456e-02 4.571376e-02 4.458709e-02 4.556877e-02 4.453711e-02 4.525216e-02 4.446374e-02 4.474357e-02 4.426980e-02 4.404182e-02 4.379146e-02 4.314048e-02 4.236286e-02 4.072772e-02 3.954770e-02 3.833836e-02 3.788639e-02 
4.056226e-02 4.118895e-02 4.132630e-02 4.298408e-02 4.339696e-02 4.568818e-02 4.594082e-02 4.687418e-02 4.790059e-02 4.822158e-02 5.019540e-02 5.106722e-02 5.470887e-02 5.442220e-02 5.463841e-02 5.446521e-02 5.455013e-02 5.455271e-02 5.445584e-02 5.465062e-02 5.439370e-02 5.472541e-02 5.274817e-02 5.175211e-02 4.982304e-02 4.976474e-02 4.830129e-02 4.866044e-02 4.758306e-02 4.803065e-02 4.731275e-02 4.765787e-02 4.727223e-02 4.742492e-02 4.733515e-02 4.727586e-02 4.743371e-02 4.718844e-02 4.753588e-02 4.715754e-02 4.763166e-02 4.718692e-02 4.772672e-02 4.728780e-02 4.784203e-02 4.748301e-02 4.801811e-02 4.781488e-02 4.832190e-02 4.835540e-02 4.885399e-02 4.921332e-02 4.974664e-02 5.051703e-02 5.111204e-02 5.230580e-02 5.285763e-02 5.413684e-02 5.351021e-02 5.320027e-02 5.363232e-02 5.190912e-02 5.309462e-02 5.125753e-02 5.159009e-02 5.137788e-02 5.010492e-02 5.155942e-02 4.965527e-02 5.120377e-02 5.036140e-02 5.018625e-02 5.079459e-02 4.951887e-02 5.001602e-02 4.888396e-02 4.927426e-02 4.840500e-02 4.869966e-02 4.810428e-02 4.830293e-02 4.795520e-02 4.803148e-02 4.791435e-02 4.783598e-02 4.794334e-02 4.768498e-02 4.801130e-02 4.756350e-02 4.809328e-02 4.746826e-02 4.816902e-02 4.740289e-02 4.822246e-02 4.737389e-02 4.824186e-02 4.738693e-02 4.822006e-02 4.744418e-02 4.815496e-02 4.754267e-02 4.805024e-02 4.767370e-02 4.791537e-02 4.782280e-02 4.776444e-02 4.797022e-02 4.761352e-02 4.809171e-02 4.747654e-02 4.815945e-02 4.735970e-02 4.814341e-02 4.725482e-02 4.801329e-02 4.713197e-02 4.774085e-02 4.693184e-02 4.730060e-02 4.655594e-02 4.664971e-02 4.583847e-02 4.561124e-02 4.438874e-02 4.328900e-02 4.219737e-02 4.129709e-02 4.093859e-02 
3.745488e-02 3.808511e-02 3.843870e-02 4.019967e-02 4.100214e-02 4.358248e-02 4.370692e-02 4.490995e-02 4.563497e-02 4.631657e-02 4.805017e-02 4.923338e-02 5.239386e-02 5.203436e-02 5.221410e-02 5.205695e-02 5.213952e-02 5.211815e-02 5.207275e-02 5.219704e-02 5.203741e-02 5.229971e-02 5.031065e-02 4.926714e-02 4.725831e-02 4.713499e-02 4.568256e-02 4.599079e-02 4.496933e-02 4.536135e-02 4.472446e-02 4.500279e-02 4.471615e-02 4.479041e-02 4.481208e-02 4.466781e-02 4.494288e-02 4.461543e-02 4.507723e-02 4.463040e-02 4.520617e-02 4.471637e-02 4.533410e-02 4.487825e-02 4.547393e-02 4.512252e-02 4.564806e-02 4.546131e-02 4.588935e-02 4.591420e-02 4.624013e-02 4.650975e-02 4.675231e-02 4.728538e-02 4.747925e-02 4.825945e-02 4.841244e-02 4.927338e-02 4.913060e-02 4.939595e-02 4.957997e-02 4.931123e-02 4.969945e-02 4.949523e-02 4.946469e-02 4.981338e-02 4.915462e-02 4.970681e-02 4.887093e-02 4.910378e-02 4.875727e-02 4.829595e-02 4.847957e-02 4.742068e-02 4.764707e-02 4.664584e-02 4.691940e-02 4.610788e-02 4.636969e-02 4.577490e-02 4.596114e-02 4.559758e-02 4.564691e-02 4.553387e-02 4.539385e-02 4.554831e-02 4.518240e-02 4.560935e-02 4.500501e-02 4.568934e-02 4.486313e-02 4.576415e-02 4.476361e-02 4.581402e-02 4.471551e-02 4.582401e-02 4.472542e-02 4.578334e-02 4.479381e-02 4.568732e-02 4.491563e-02 4.554091e-02 4.508070e-02 4.535794e-02 4.527155e-02 4.515805e-02 4.546328e-02 4.496376e-02 4.562418e-02 4.479575e-02 4.571816e-02 4.466976e-02 4.570957e-02 4.459043e-02 4.556428e-02 4.453998e-02 4.525090e-02 4.446644e-02 4.474684e-02 4.427131e-02 4.404870e-02 4.379072e-02 4.314808e-02 4.236172e-02 4.073242e-02 3.954711e-02 3.834114e-02 3.788626e-02 
3.752004e-02 3.813617e-02 3.896657e-02 4.159858e-02 4.327693e-02 4.922260e-02 4.706622e-02 4.672664e-02 4.772627e-02 4.664330e-02 4.765915e-02 4.708144e-02 4.651798e-02 4.560981e-02 4.601380e-02 4.572880e-02 4.591586e-02 4.588437e-02 4.574458e-02 4.604603e-02 4.554468e-02 4.628174e-02 4.620435e-02 4.742407e-02 4.622567e-02 4.749036e-02 4.635971e-02 4.751829e-02 4.659378e-02 4.748183e-02 4.685344e-02 4.740944e-02 4.711300e-02 4.733425e-02 4.735752e-02 4.728437e-02 4.758196e-02 4.728468e-02 4.779015e-02 4.735503e-02 4.799270e-02 4.751090e-02 4.820509e-02 4.776123e-02 4.844389e-02 4.810914e-02 4.872866e-02 4.855544e-02 4.907941e-02 4.909327e-02 4.950544e-02 4.969839e-02 4.999315e-02 5.031819e-02 5.049210e-02 5.085580e-02 5.090133e-02 5.116517e-02 5.110101e-02 5.112585e-02 5.101680e-02 5.090110e-02 5.075937e-02 5.063093e-02 5.034967e-02 5.037468e-02 5.004683e-02 5.014511e-02 4.994840e-02 4.996309e-02 4.998422e-02 4.970269e-02 4.990376e-02 4.934300e-02 4.968632e-02 4.898895e-02 4.938843e-02 4.867955e-02 4.905888e-02 4.843800e-02 4.872931e-02 4.827419e-02 4.841823e-02 4.818808e-02 4.813599e-02 4.816815e-02 4.788587e-02 4.819421e-02 4.767074e-02 4.824411e-02 4.749577e-02 4.829585e-02 4.736811e-02 4.833067e-02 4.729625e-02 4.833386e-02 4.728551e-02 4.829298e-02 4.733439e-02 4.820062e-02 4.743749e-02 4.806088e-02 4.758724e-02 4.788759e-02 4.776943e-02 4.770024e-02 4.796312e-02 4.752188e-02 4.814080e-02 4.737500e-02 4.827204e-02 4.728252e-02 4.833182e-02 4.726429e-02 4.830114e-02 4.732428e-02 4.816846e-02 4.743702e-02 4.795030e-02 4.753793e-02 4.778081e-02 4.754747e-02 4.834323e-02 4.628759e-02 4.305842e-02 4.054245e-02 3.881430e-02 3.787880e-02 
3.019140e-02 3.088744e-02 3.355045e-02 3.752386e-02 4.490238e-02 4.851128e-02 4.160957e-02 4.163989e-02 4.065032e-02 3.968063e-02 3.896129e-02 3.715995e-02 3.504132e-02 3.445901e-02 3.486235e-02 3.457255e-02 3.477000e-02 3.471595e-02 3.461286e-02 3.486634e-02 3.442323e-02 3.498045e-02 3.533079e-02 3.822232e-02 3.795127e-02 4.024895e-02 3.959606e-02 4.127402e-02 4.063869e-02 4.172089e-02 4.133994e-02 4.187863e-02 4.184620e-02 4.190799e-02 4.221701e-02 4.189926e-02 4.249255e-02 4.191857e-02 4.270661e-02 4.200599e-02 4.288920e-02 4.219036e-02 4.307063e-02 4.247837e-02 4.326361e-02 4.285838e-02 4.348716e-02 4.332935e-02 4.377301e-02 4.388743e-02 4.414016e-02 4.451006e-02 4.458764e-02 4.516014e-02 4.509503e-02 4.577878e-02 4.560587e-02 4.628266e-02 4.607644e-02 4.665984e-02 4.638457e-02 4.689228e-02 4.656264e-02 4.696150e-02 4.657382e-02 4.684946e-02 4.652440e-02 4.652751e-02 4.638709e-02 4.607808e-02 4.612713e-02 4.550809e-02 4.570341e-02 4.484628e-02 4.523190e-02 4.424302e-02 4.474693e-02 4.376032e-02 4.428244e-02 4.341703e-02 4.384430e-02 4.320451e-02 4.343687e-02 4.311683e-02 4.307093e-02 4.313109e-02 4.274127e-02 4.320741e-02 4.244940e-02 4.331228e-02 4.220601e-02 4.341128e-02 4.202450e-02 4.347833e-02 4.192708e-02 4.349715e-02 4.192816e-02 4.344478e-02 4.201868e-02 4.329828e-02 4.218719e-02 4.306698e-02 4.243257e-02 4.277996e-02 4.273746e-02 4.247040e-02 4.307324e-02 4.218009e-02 4.339474e-02 4.194233e-02 4.364583e-02 4.180597e-02 4.379741e-02 4.184445e-02 4.383905e-02 4.212849e-02 4.376827e-02 4.271747e-02 4.360898e-02 4.365187e-02 4.346254e-02 4.491507e-02 4.402592e-02 4.763860e-02 4.276087e-02 3.628783e-02 3.276358e-02 3.061191e-02 
2.502141e-02 2.455109e-02 3.068255e-02 3.322738e-02 4.260886e-02 2.109065e-02 2.175219e-02 2.374103e-02 1.827235e-02 2.231896e-02 1.805180e-02 1.965163e-02 1.768278e-02 1.817748e-02 1.892482e-02 1.862115e-02 1.911654e-02 1.888934e-02 1.879589e-02 1.929357e-02 1.778802e-02 1.958269e-02 1.824135e-02 2.019490e-02 1.997403e-02 2.075764e-02 2.092651e-02 2.094594e-02 2.150029e-02 2.097387e-02 2.189532e-02 2.096891e-02 2.218719e-02 2.097823e-02 2.238433e-02 2.102597e-02 2.250429e-02 2.114404e-02 2.257675e-02 2.135187e-02 2.263616e-02 2.166832e-02 2.272117e-02 2.209295e-02 2.284649e-02 2.260969e-02 2.303579e-02 2.322371e-02 2.333073e-02 2.394299e-02 2.375967e-02 2.475498e-02 2.433215e-02 2.562667e-02 2.503388e-02 2.647871e-02 2.577503e-02 2.712728e-02 2.633230e-02 2.728408e-02 2.673477e-02 2.712653e-02 2.678001e-02 2.688997e-02 2.655070e-02 2.666522e-02 2.605940e-02 2.630105e-02 2.554738e-02 2.559294e-02 2.517085e-02 2.476143e-02 2.495490e-02 2.409372e-02 2.464642e-02 2.352508e-02 2.428215e-02 2.308373e-02 2.389886e-02 2.278556e-02 2.350691e-02 2.261997e-02 2.311633e-02 2.258185e-02 2.274671e-02 2.264583e-02 2.239717e-02 2.276336e-02 2.207881e-02 2.289423e-02 2.181521e-02 2.299679e-02 2.163311e-02 2.304024e-02 2.156871e-02 2.300827e-02 2.164419e-02 2.287548e-02 2.184700e-02 2.261630e-02 2.215554e-02 2.224985e-02 2.255681e-02 2.182036e-02 2.301473e-02 2.137735e-02 2.347839e-02 2.098273e-02 2.387741e-02 2.069088e-02 2.412591e-02 2.058342e-02 2.417627e-02 2.077398e-02 2.400843e-02 2.137291e-02 2.360570e-02 2.248390e-02 2.294661e-02 2.420942e-02 2.192214e-02 2.657543e-02 1.990882e-02 3.317150e-02 3.986232e-02 3.394378e-02 2.813698e-02 2.480887e-02 
5.986608e-03 7.867657e-03 1.079158e-02 1.940824e-02 1.063488e-02 2.475456e-02 1.568055e-02 1.184235e-02 1.708725e-02 1.111664e-02 1.750791e-02 1.135397e-02 1.780681e-02 1.350871e-02 1.927744e-02 1.590235e-02 1.889912e-02 1.702233e-02 1.774435e-02 1.749676e-02 1.523076e-02 1.628231e-02 1.285712e-02 1.549005e-02 1.263693e-02 1.528453e-02 1.273980e-02 1.513759e-02 1.293887e-02 1.498226e-02 1.317634e-02 1.481140e-02 1.343352e-02 1.463078e-02 1.368957e-02 1.446062e-02 1.393534e-02 1.432570e-02 1.417148e-02 1.424332e-02 1.440077e-02 1.422692e-02 1.462589e-02 1.427899e-02 1.483972e-02 1.439055e-02 1.504292e-02 1.455144e-02 1.524013e-02 1.474363e-02 1.542136e-02 1.493003e-02 1.555714e-02 1.505608e-02 1.559929e-02 1.505945e-02 1.550199e-02 1.492523e-02 1.535530e-02 1.483333e-02 1.505590e-02 1.474713e-02 1.480974e-02 1.458632e-02 1.461147e-02 1.440950e-02 1.467302e-02 1.435951e-02 1.489077e-02 1.458869e-02 1.507485e-02 1.482151e-02 1.505966e-02 1.482450e-02 1.503403e-02 1.475698e-02 1.494609e-02 1.465998e-02 1.481595e-02 1.456548e-02 1.466561e-02 1.448969e-02 1.451532e-02 1.444339e-02 1.437824e-02 1.442914e-02 1.424959e-02 1.443740e-02 1.412646e-02 1.446123e-02 1.400782e-02 1.449518e-02 1.389653e-02 1.453812e-02 1.380160e-02 1.459381e-02 1.373102e-02 1.465408e-02 1.368691e-02 1.470160e-02 1.366575e-02 1.473138e-02 1.366550e-02 1.473672e-02 1.368384e-02 1.470825e-02 1.372153e-02 1.463961e-02 1.378713e-02 1.453058e-02 1.388672e-02 1.440665e-02 1.405077e-02 1.430394e-02 1.432787e-02 1.425760e-02 1.475650e-02 1.429044e-02 1.536797e-02 1.437455e-02 1.619322e-02 1.433819e-02 1.752363e-02 1.114512e-02 2.372488e-02 1.740742e-02 1.125741e-02 6.522106e-03 
4.548154e-03 4.614692e-03 1.318718e-03 3.900784e-03 1.124287e-02 1.495106e-02 1.190506e-02 6.212672e-03 3.432375e-03 3.632407e-03 1.538895e-03 1.148883e-03 4.653522e-03 8.476816e-03 9.774447e-03 1.109819e-02 1.001322e-02 1.129359e-02 9.736484e-03 9.367210e-03 8.245559e-03 3.255075e-03 2.315283e-03 3.361555e-03 2.570015e-03 5.459977e-03 4.386608e-03 6.180703e-03 5.381424e-03 6.326257e-03 6.030639e-03 6.262495e-03 6.512669e-03 6.138328e-03 6.865318e-03 6.024948e-03 7.109906e-03 5.978155e-03 7.271229e-03 6.028854e-03 7.377226e-03 6.200951e-03 7.462542e-03 6.498757e-03 7.545858e-03 6.913852e-03 7.670457e-03 7.471876e-03 7.921744e-03 8.227469e-03 8.405215e-03 9.252023e-03 9.245790e-03 1.063666e-02 1.056314e-02 1.241423e-02 1.230254e-02 1.426205e-02 1.374648e-02 1.508221e-02 1.527238e-02 1.524695e-02 1.593414e-02 1.539674e-02 1.595086e-02 1.550354e-02 1.473614e-02 1.493656e-02 1.299798e-02 1.291566e-02 1.151010e-02 1.066602e-02 1.084456e-02 9.368832e-03 1.004663e-02 8.454102e-03 9.357612e-03 7.861158e-03 8.805713e-03 7.536345e-03 8.349790e-03 7.418834e-03 7.950058e-03 7.468866e-03 7.590549e-03 7.637952e-03 7.248927e-03 7.863858e-03 6.927040e-03 8.099031e-03 6.646877e-03 8.298064e-03 6.439445e-03 8.428703e-03 6.348964e-03 8.473609e-03 6.406270e-03 8.404352e-03 6.604491e-03 8.191273e-03 6.920979e-03 7.850493e-03 7.338656e-03 7.422016e-03 7.819214e-03 6.950951e-03 8.312910e-03 6.496916e-03 8.753373e-03 6.119588e-03 9.057963e-03 5.917310e-03 9.182848e-03 6.020487e-03 9.108810e-03 6.534812e-03 8.814068e-03 7.515146e-03 8.288985e-03 8.966817e-03 7.597236e-03 1.077282e-02 8.604486e-03 1.642486e-02 7.946859e-03 3.577792e-03 4.680357e-03 4.575178e-03 
6.839423e-04 1.408893e-03 7.675480e-04 1.215164e-03 4.151939e-03 6.509237e-03 6.708685e-03 1.605802e-03 5.652605e-03 5.014438e-03 7.973896e-03 1.085440e-02 1.314381e-02 1.277211e-02 9.772760e-03 4.358372e-03 5.846103e-03 4.373693e-03 6.666963e-03 7.512677e-03 1.274686e-02 1.352080e-02 9.812896e-03 7.294419e-03 4.579660e-03 3.444811e-03 2.371028e-03 2.165490e-03 1.490404e-03 1.915075e-03 1.050194e-03 1.923539e-03 7.538075e-04 1.947637e-03 5.381136e-04 1.934189e-03 3.913419e-04 1.860065e-03 3.031172e-04 1.709613e-03 2.500145e-04 1.469369e-03 1.960044e-04 1.141303e-03 1.571357e-04 7.815616e-04 3.296972e-04 7.551715e-04 8.012311e-04 1.521772e-03 1.649711e-03 2.891213e-03 3.005677e-03 4.817427e-03 4.893941e-03 7.115166e-03 6.899712e-03 8.856597e-03 7.322830e-03 8.630587e-03 8.415249e-03 7.110177e-03 8.300248e-03 6.407490e-03 7.474155e-03 7.035440e-03 5.409989e-03 7.577586e-03 5.111659e-03 5.981124e-03 4.996390e-03 3.365073e-03 3.986669e-03 2.709413e-03 3.130590e-03 1.811344e-03 2.258006e-03 1.062007e-03 1.545682e-03 5.715627e-04 1.024130e-03 3.109182e-04 6.663863e-04 1.640468e-04 4.841751e-04 9.700711e-05 5.119966e-04 2.456177e-04 6.701974e-04 4.364381e-04 8.441533e-04 6.005187e-04 9.710291e-04 7.027691e-04 1.008342e-03 7.218009e-04 9.332795e-04 6.440594e-04 7.569781e-04 4.949305e-04 5.318960e-04 4.485422e-04 4.458080e-04 6.943943e-04 7.034266e-04 1.080562e-03 1.094376e-03 1.459969e-03 1.445848e-03 1.754751e-03 1.649751e-03 1.906242e-03 1.632873e-03 1.868777e-03 1.351503e-03 1.651955e-03 8.391536e-04 1.383869e-03 8.396486e-04 1.368986e-03 2.084523e-03 1.734257e-03 4.362430e-03 6.033828e-03 2.222922e-03 1.603071e-03 1.490716e-03 4.207719e-04 
