# vtk DataFile Version 2.0
Comment goes here
ASCII

DATASET STRUCTURED_POINTS
FIELD FieldData 1
TIME 1 1 double
0.52000000
DIMENSIONS    128   16   1

ORIGIN    0.000   0.000   0.000
SPACING   0.0078125 0.015625   1.000

POINT_DATA   2048
SCALARS uMag double
LOOKUP_TABLE default

7.270483e-03 3.391629e-03 6.084948e-03 4.696314e-04 4.446955e-03 2.550543e-03 1.056556e-02 1.525683e-03 4.925717e-03 4.753381e-03 3.504111e-03 1.388957e-02 2.133325e-02 3.695706e-02 4.581056e-02 4.825811e-02 5.265461e-02 5.091445e-02 4.987435e-02 4.419492e-02 3.816740e-02 1.968361e-02 1.397149e-02 4.223923e-03 3.659140e-03 1.967664e-03 6.493986e-04 4.476485e-03 2.462587e-03 5.414408e-03 3.236741e-03 5.683789e-03 3.596389e-03 5.665994e-03 3.794619e-03 5.513639e-03 3.923827e-03 5.293503e-03 4.022182e-03 5.049520e-03 4.111744e-03 4.814750e-03 4.200275e-03 4.606449e-03 4.279800e-03 4.429474e-03 4.339267e-03 4.294033e-03 4.386027e-03 4.230497e-03 4.454769e-03 4.285404e-03 4.605893e-03 4.534091e-03 4.975029e-03 5.190581e-03 5.571063e-03 4.685561e-03 6.669499e-03 2.304841e-03 2.037411e-03 4.349797e-03 4.575741e-03 3.311064e-03 1.099719e-03 2.490959e-03 1.799773e-03 1.334811e-03 5.651558e-03 7.000942e-03 8.868059e-03 8.629436e-03 5.776384e-03 6.894033e-03 4.394625e-03 5.223501e-03 3.485358e-03 4.585135e-03 3.120321e-03 4.321217e-03 2.971354e-03 4.160264e-03 2.936655e-03 4.006126e-03 2.983334e-03 3.833862e-03 3.101347e-03 3.635522e-03 3.270006e-03 3.397946e-03 3.463497e-03 3.124835e-03 3.673484e-03 2.848166e-03 3.895334e-03 2.600519e-03 4.098998e-03 2.400213e-03 4.236669e-03 2.269280e-03 4.268344e-03 2.244527e-03 4.169503e-03 2.363892e-03 3.924545e-03 2.649017e-03 3.528005e-03 3.100747e-03 2.993766e-03 3.696969e-03 2.358971e-03 4.388046e-03 1.689142e-03 5.104893e-03 1.099692e-03 5.778558e-03 7.898252e-04 6.343352e-03 1.085971e-03 6.692908e-03 2.558663e-03 6.529729e-03 6.515062e-03 6.545595e-04 5.553413e-03 2.546089e-03 6.930723e-03 4.053490e-03 
3.079593e-03 1.183022e-03 3.278785e-03 3.449513e-03 3.552037e-03 9.645338e-03 8.387604e-03 6.286719e-03 4.916272e-03 8.587977e-03 9.148884e-03 1.787988e-02 2.378050e-02 2.448355e-02 1.144782e-02 7.225865e-03 2.816202e-03 4.040275e-03 6.894268e-03 1.174934e-02 2.476054e-02 2.436026e-02 1.569259e-02 1.029949e-02 6.366636e-03 4.335957e-03 2.653236e-03 2.221302e-03 1.046477e-03 1.761308e-03 3.344303e-04 1.708140e-03 7.194897e-05 1.648184e-03 2.245042e-04 1.530544e-03 3.646765e-04 1.366853e-03 4.862306e-04 1.167097e-03 5.857094e-04 9.598389e-04 6.750187e-04 7.706511e-04 7.457038e-04 5.933896e-04 7.696893e-04 4.442717e-04 7.517854e-04 3.788063e-04 7.201670e-04 4.817402e-04 7.575282e-04 9.385004e-04 1.287697e-03 1.575370e-03 2.376814e-03 5.051372e-03 5.485363e-03 1.180052e-02 4.868829e-03 5.972520e-03 2.879611e-03 1.054507e-02 4.753652e-03 6.071376e-03 2.321140e-03 1.017416e-02 1.616746e-02 8.387536e-03 5.258153e-03 6.850222e-03 3.844327e-03 4.255779e-03 3.847808e-03 2.479406e-03 1.830810e-03 1.157585e-03 1.164853e-03 6.034387e-04 9.394124e-04 3.388949e-04 8.131838e-04 1.862613e-04 6.995702e-04 1.081836e-04 5.705964e-04 2.329568e-04 4.255028e-04 4.452891e-04 3.039065e-04 6.890171e-04 2.980822e-04 9.371680e-04 4.313683e-04 1.158403e-03 6.063109e-04 1.341521e-03 7.318664e-04 1.468629e-03 7.712961e-04 1.491095e-03 7.111895e-04 1.392615e-03 5.332432e-04 1.183163e-03 4.282788e-04 8.561956e-04 7.487895e-04 6.175223e-04 1.265871e-03 9.754759e-04 1.846822e-03 1.623326e-03 2.404473e-03 2.295774e-03 2.755084e-03 2.978273e-03 2.609298e-03 3.751801e-03 1.536033e-03 5.046778e-03 6.133421e-03 6.405390e-03 2.547582e-03 1.990988e-03 3.324964e-03 5.319140e-04 
1.057144e-02 8.586862e-03 9.098077e-03 6.848017e-03 1.019016e-02 2.544234e-02 9.948728e-03 1.464151e-02 3.213529e-03 1.050397e-02 1.401193e-03 1.079962e-02 1.130782e-02 1.736816e-02 2.106961e-02 2.140027e-02 2.258690e-02 2.306661e-02 2.095583e-02 2.061507e-02 1.803435e-02 9.548548e-03 5.113274e-03 2.617825e-03 5.570910e-03 4.793631e-03 7.931410e-03 6.441437e-03 9.185297e-03 7.234069e-03 9.830516e-03 7.656328e-03 1.014395e-02 7.925037e-03 1.026268e-02 8.144915e-03 1.025868e-02 8.359188e-03 1.019309e-02 8.609738e-03 1.011090e-02 8.877133e-03 9.989922e-03 9.119124e-03 9.865063e-03 9.367196e-03 9.792892e-03 9.616326e-03 9.762687e-03 9.821822e-03 9.776510e-03 1.001081e-02 9.925431e-03 1.031464e-02 1.040663e-02 1.121990e-02 1.297564e-02 9.022993e-03 1.251843e-02 7.307416e-03 6.011177e-03 1.047305e-02 7.476322e-03 8.968908e-03 5.588215e-04 1.052515e-02 6.837359e-03 6.530226e-03 1.611128e-02 1.518795e-02 2.154158e-02 1.931476e-02 1.620028e-02 1.581352e-02 1.439441e-02 1.266065e-02 1.260022e-02 1.106467e-02 1.192878e-02 1.032899e-02 1.158979e-02 9.989775e-03 1.138239e-02 9.894213e-03 1.122577e-02 9.949961e-03 1.106969e-02 1.010258e-02 1.088388e-02 1.031519e-02 1.066001e-02 1.057312e-02 1.040900e-02 1.085315e-02 1.012798e-02 1.111592e-02 9.847523e-03 1.136456e-02 9.639519e-03 1.158672e-02 9.518169e-03 1.170106e-02 9.495055e-03 1.170107e-02 9.664057e-03 1.161937e-02 1.004303e-02 1.135887e-02 1.052612e-02 1.085556e-02 1.107027e-02 1.022854e-02 1.173724e-02 9.624156e-03 1.254864e-02 9.109054e-03 1.343439e-02 8.789325e-03 1.430601e-02 9.088012e-03 1.516446e-02 1.184649e-02 2.438054e-02 1.393612e-02 1.005726e-02 4.593969e-03 1.013192e-02 8.695358e-03 
9.705908e-03 1.290133e-02 1.769982e-02 2.590454e-02 3.625661e-02 1.516397e-02 2.817048e-02 2.052280e-02 2.336286e-02 2.125916e-02 2.113581e-02 2.170356e-02 1.831320e-02 2.396972e-02 2.163863e-02 2.596471e-02 2.258030e-02 2.643509e-02 2.222610e-02 2.506617e-02 2.035509e-02 2.060421e-02 2.001453e-02 2.118000e-02 2.039381e-02 2.140169e-02 2.096315e-02 2.146418e-02 2.146207e-02 2.140999e-02 2.184682e-02 2.130455e-02 2.211721e-02 2.119318e-02 2.228556e-02 2.110465e-02 2.236477e-02 2.104941e-02 2.237431e-02 2.103466e-02 2.232837e-02 2.104764e-02 2.222198e-02 2.106358e-02 2.207215e-02 2.108346e-02 2.189032e-02 2.109648e-02 2.165546e-02 2.106491e-02 2.134216e-02 2.094031e-02 2.092323e-02 2.063392e-02 2.030322e-02 1.983494e-02 1.880315e-02 1.609610e-02 1.979866e-02 2.057465e-02 2.086326e-02 2.172773e-02 2.109968e-02 2.434327e-02 2.216435e-02 2.612497e-02 2.503272e-02 2.521252e-02 2.619990e-02 2.464457e-02 2.465613e-02 2.563452e-02 2.417849e-02 2.541279e-02 2.372809e-02 2.362512e-02 2.290827e-02 2.271841e-02 2.260766e-02 2.223776e-02 2.249547e-02 2.195155e-02 2.247169e-02 2.177427e-02 2.248259e-02 2.166519e-02 2.249180e-02 2.161033e-02 2.247650e-02 2.160526e-02 2.242733e-02 2.164968e-02 2.234588e-02 2.173675e-02 2.222969e-02 2.185099e-02 2.208958e-02 2.199460e-02 2.194585e-02 2.217169e-02 2.179404e-02 2.235775e-02 2.163465e-02 2.255668e-02 2.149495e-02 2.278280e-02 2.138744e-02 2.298134e-02 2.129514e-02 2.312236e-02 2.120471e-02 2.324423e-02 2.115351e-02 2.336800e-02 2.121685e-02 2.346933e-02 2.147003e-02 2.351762e-02 2.204704e-02 2.344509e-02 2.343199e-02 2.307067e-02 3.046602e-02 3.526979e-02 3.750779e-02 1.679805e-02 1.329438e-02 1.022845e-02 
3.276884e-02 3.674057e-02 3.881714e-02 4.910548e-02 5.910513e-02 5.555622e-02 2.749138e-02 3.902961e-02 2.682661e-02 3.405076e-02 2.497914e-02 2.895860e-02 1.840697e-02 2.255178e-02 2.142472e-02 2.231295e-02 2.241183e-02 2.207082e-02 2.265695e-02 2.164882e-02 2.227090e-02 2.040638e-02 2.757657e-02 2.653256e-02 3.087234e-02 2.955447e-02 3.244442e-02 3.108862e-02 3.319336e-02 3.191657e-02 3.353560e-02 3.241098e-02 3.365417e-02 3.273705e-02 3.364525e-02 3.297906e-02 3.356069e-02 3.317507e-02 3.344850e-02 3.336799e-02 3.334323e-02 3.354089e-02 3.320951e-02 3.365023e-02 3.306187e-02 3.371458e-02 3.293337e-02 3.370827e-02 3.278391e-02 3.355178e-02 3.255962e-02 3.320097e-02 3.222593e-02 3.262823e-02 3.164697e-02 3.152316e-02 2.929929e-02 2.517412e-02 3.128214e-02 3.041283e-02 2.671367e-02 3.552206e-02 2.940462e-02 3.801970e-02 2.876630e-02 3.689052e-02 3.748390e-02 3.253411e-02 4.417811e-02 3.753243e-02 4.512419e-02 4.254003e-02 4.081883e-02 4.136529e-02 3.862175e-02 3.752387e-02 3.664633e-02 3.571221e-02 3.573086e-02 3.485021e-02 3.519178e-02 3.445352e-02 3.483483e-02 3.433558e-02 3.457300e-02 3.438071e-02 3.435550e-02 3.451642e-02 3.415111e-02 3.469129e-02 3.394692e-02 3.488352e-02 3.374747e-02 3.507276e-02 3.354387e-02 3.522653e-02 3.335796e-02 3.535146e-02 3.325032e-02 3.543979e-02 3.322737e-02 3.541863e-02 3.329773e-02 3.528593e-02 3.355291e-02 3.508093e-02 3.400554e-02 3.472258e-02 3.455352e-02 3.415648e-02 3.517068e-02 3.351039e-02 3.593107e-02 3.296215e-02 3.686075e-02 3.262289e-02 3.790127e-02 3.261276e-02 3.896806e-02 3.324663e-02 3.986647e-02 3.548083e-02 4.006960e-02 6.945549e-02 5.100731e-02 4.340820e-02 3.462030e-02 3.540267e-02 
3.698353e-02 3.894514e-02 4.062560e-02 4.574276e-02 5.321716e-02 6.449292e-02 5.956163e-02 6.053272e-02 5.525989e-02 5.760593e-02 5.243782e-02 5.421844e-02 4.650334e-02 4.630656e-02 4.606987e-02 4.624894e-02 4.621525e-02 4.616969e-02 4.629953e-02 4.610608e-02 4.627834e-02 4.659776e-02 5.178115e-02 5.187615e-02 5.473875e-02 5.462461e-02 5.666165e-02 5.609938e-02 5.780865e-02 5.684894e-02 5.846658e-02 5.723239e-02 5.881728e-02 5.744222e-02 5.897393e-02 5.758489e-02 5.900497e-02 5.771203e-02 5.896677e-02 5.786493e-02 5.890289e-02 5.803481e-02 5.880663e-02 5.819573e-02 5.870823e-02 5.837567e-02 5.865953e-02 5.858461e-02 5.867348e-02 5.882044e-02 5.878620e-02 5.914568e-02 5.911051e-02 5.967929e-02 5.975479e-02 6.047263e-02 6.097678e-02 5.949479e-02 6.057887e-02 6.261142e-02 6.373411e-02 6.264656e-02 6.162592e-02 6.487302e-02 6.534232e-02 6.618538e-02 6.498301e-02 6.585481e-02 6.330421e-02 6.129094e-02 6.067328e-02 6.120956e-02 6.219446e-02 6.207234e-02 6.188457e-02 6.073970e-02 6.091778e-02 5.984181e-02 6.041771e-02 5.932774e-02 6.010796e-02 5.903708e-02 5.990082e-02 5.890575e-02 5.974468e-02 5.888385e-02 5.960273e-02 5.893971e-02 5.944958e-02 5.904939e-02 5.927344e-02 5.920330e-02 5.907958e-02 5.938502e-02 5.886513e-02 5.956781e-02 5.864848e-02 5.975476e-02 5.847840e-02 5.993496e-02 5.836101e-02 6.004985e-02 5.829982e-02 6.009316e-02 5.836242e-02 6.008664e-02 5.855831e-02 5.996502e-02 5.881450e-02 5.968081e-02 5.912915e-02 5.932009e-02 5.957885e-02 5.901115e-02 6.020017e-02 5.883738e-02 6.097796e-02 5.887253e-02 6.192723e-02 5.926558e-02 6.323457e-02 6.031791e-02 6.689587e-02 6.333140e-02 4.801835e-02 4.446559e-02 3.888705e-02 3.859698e-02 
4.768922e-02 4.957057e-02 4.930017e-02 5.274618e-02 5.389877e-02 5.966799e-02 6.260510e-02 6.384280e-02 6.203187e-02 6.466130e-02 6.273541e-02 6.651299e-02 6.492738e-02 6.345391e-02 6.316347e-02 6.338087e-02 6.333848e-02 6.328022e-02 6.344202e-02 6.319100e-02 6.343176e-02 6.442983e-02 6.479477e-02 6.311944e-02 6.337453e-02 6.252831e-02 6.313810e-02 6.237227e-02 6.319959e-02 6.234130e-02 6.331989e-02 6.235495e-02 6.341855e-02 6.239337e-02 6.347235e-02 6.245488e-02 6.348025e-02 6.254004e-02 6.345173e-02 6.264914e-02 6.339928e-02 6.277508e-02 6.333194e-02 6.291045e-02 6.326768e-02 6.306104e-02 6.323232e-02 6.323914e-02 6.325409e-02 6.347118e-02 6.338435e-02 6.382200e-02 6.372840e-02 6.441771e-02 6.447878e-02 6.558634e-02 6.685962e-02 7.088274e-02 6.605480e-02 6.709824e-02 6.767163e-02 6.452851e-02 6.695786e-02 6.311990e-02 6.652994e-02 6.385096e-02 6.207256e-02 6.675676e-02 6.019396e-02 6.529528e-02 6.100378e-02 6.202727e-02 6.305686e-02 6.156814e-02 6.353704e-02 6.322951e-02 6.417670e-02 6.370588e-02 6.429422e-02 6.376357e-02 6.426241e-02 6.371512e-02 6.418620e-02 6.366713e-02 6.409438e-02 6.365450e-02 6.399088e-02 6.368574e-02 6.387293e-02 6.375850e-02 6.373898e-02 6.386612e-02 6.359259e-02 6.399670e-02 6.343953e-02 6.413577e-02 6.329239e-02 6.427330e-02 6.317035e-02 6.439567e-02 6.308545e-02 6.448194e-02 6.304806e-02 6.452037e-02 6.307461e-02 6.450440e-02 6.316605e-02 6.441659e-02 6.330491e-02 6.425009e-02 6.348075e-02 6.402841e-02 6.368761e-02 6.378496e-02 6.389508e-02 6.353883e-02 6.403481e-02 6.329171e-02 6.401600e-02 6.303584e-02 6.382034e-02 6.271898e-02 6.416453e-02 5.801796e-02 5.392108e-02 5.196633e-02 4.913598e-02 4.928573e-02 
4.719770e-02 4.828070e-02 4.868316e-02 5.099715e-02 5.234858e-02 5.551514e-02 5.703812e-02 5.930200e-02 6.042241e-02 6.228732e-02 6.510941e-02 6.708311e-02 7.424595e-02 7.400700e-02 7.390722e-02 7.399205e-02 7.396020e-02 7.396021e-02 7.399636e-02 7.392415e-02 7.400313e-02 7.413162e-02 6.808839e-02 6.667813e-02 6.379868e-02 6.279314e-02 6.168287e-02 6.071205e-02 6.064878e-02 5.961401e-02 6.016864e-02 5.904917e-02 5.994938e-02 5.877698e-02 5.984054e-02 5.867285e-02 5.977049e-02 5.867102e-02 5.970912e-02 5.873440e-02 5.964608e-02 5.883687e-02 5.957886e-02 5.895987e-02 5.951342e-02 5.909309e-02 5.945677e-02 5.922293e-02 5.940355e-02 5.932318e-02 5.932938e-02 5.934921e-02 5.918416e-02 5.922986e-02 5.888812e-02 5.892513e-02 5.877483e-02 6.015858e-02 5.929315e-02 5.905688e-02 5.896566e-02 5.881226e-02 5.966047e-02 5.815769e-02 5.838933e-02 5.895334e-02 5.783433e-02 5.901149e-02 5.728647e-02 5.933636e-02 5.826464e-02 5.821459e-02 5.803801e-02 5.776429e-02 5.899044e-02 5.885678e-02 5.973841e-02 5.926840e-02 6.004003e-02 5.940760e-02 6.015717e-02 5.945716e-02 6.018492e-02 5.949403e-02 6.016180e-02 5.954879e-02 6.010189e-02 5.963168e-02 6.001179e-02 5.974396e-02 5.989747e-02 5.988099e-02 5.976566e-02 6.003189e-02 5.962448e-02 6.018314e-02 5.948809e-02 6.032320e-02 5.937543e-02 6.043802e-02 5.930128e-02 6.050879e-02 5.927710e-02 6.052106e-02 5.931387e-02 6.046448e-02 5.941071e-02 6.032598e-02 5.955157e-02 6.009933e-02 5.971560e-02 5.979263e-02 5.987213e-02 5.941206e-02 5.995911e-02 5.893905e-02 5.986688e-02 5.831674e-02 5.942980e-02 5.743690e-02 5.840667e-02 5.609738e-02 5.643507e-02 5.351354e-02 5.158960e-02 4.992110e-02 4.823495e-02 4.794101e-02 
5.198939e-02 5.325687e-02 5.300347e-02 5.529238e-02 5.591190e-02 5.876529e-02 6.019971e-02 6.229397e-02 6.353349e-02 6.526909e-02 6.801102e-02 6.959772e-02 7.708522e-02 7.728646e-02 7.714399e-02 7.725380e-02 7.721868e-02 7.719921e-02 7.727586e-02 7.714701e-02 7.729256e-02 7.710992e-02 7.119557e-02 7.002116e-02 6.735664e-02 6.639243e-02 6.537218e-02 6.445910e-02 6.438046e-02 6.347234e-02 6.392045e-02 6.299657e-02 6.371901e-02 6.279426e-02 6.363103e-02 6.274243e-02 6.358570e-02 6.277701e-02 6.355065e-02 6.286170e-02 6.351302e-02 6.297450e-02 6.347131e-02 6.310282e-02 6.343078e-02 6.323999e-02 6.339786e-02 6.337973e-02 6.337295e-02 6.351008e-02 6.334495e-02 6.361051e-02 6.329024e-02 6.365555e-02 6.317408e-02 6.361676e-02 6.295507e-02 6.360237e-02 6.279869e-02 6.304091e-02 6.269740e-02 6.242896e-02 6.244365e-02 6.205618e-02 6.193912e-02 6.198816e-02 6.113390e-02 6.219151e-02 6.077955e-02 6.207878e-02 6.103186e-02 6.176129e-02 6.148063e-02 6.196852e-02 6.240233e-02 6.258386e-02 6.306084e-02 6.298985e-02 6.345491e-02 6.322867e-02 6.367709e-02 6.337119e-02 6.379272e-02 6.347284e-02 6.383829e-02 6.356506e-02 6.383191e-02 6.366448e-02 6.378599e-02 6.377985e-02 6.371136e-02 6.391151e-02 6.361629e-02 6.405149e-02 6.350900e-02 6.418903e-02 6.340196e-02 6.431412e-02 6.331066e-02 6.441596e-02 6.324866e-02 6.448149e-02 6.322500e-02 6.449779e-02 6.324410e-02 6.445514e-02 6.330467e-02 6.434802e-02 6.339700e-02 6.417408e-02 6.349923e-02 6.393026e-02 6.357166e-02 6.360416e-02 6.354875e-02 6.316055e-02 6.333187e-02 6.252454e-02 6.278499e-02 6.155414e-02 6.171508e-02 5.996868e-02 5.976768e-02 5.719902e-02 5.584036e-02 5.445055e-02 5.299416e-02 5.299179e-02 
4.719958e-02 4.828378e-02 4.868531e-02 5.099889e-02 5.235083e-02 5.551553e-02 5.704003e-02 5.930110e-02 6.042372e-02 6.228534e-02 6.511011e-02 6.708034e-02 7.424653e-02 7.400685e-02 7.390653e-02 7.399072e-02 7.395849e-02 7.395716e-02 7.399384e-02 7.391975e-02 7.400079e-02 7.413441e-02 6.808433e-02 6.667178e-02 6.379538e-02 6.278532e-02 6.168240e-02 6.071156e-02 6.064987e-02 5.962151e-02 6.016353e-02 5.905895e-02 5.993095e-02 5.878540e-02 5.981023e-02 5.868354e-02 5.973845e-02 5.868910e-02 5.968168e-02 5.875416e-02 5.961811e-02 5.884456e-02 5.954085e-02 5.894083e-02 5.945240e-02 5.903101e-02 5.935643e-02 5.910325e-02 5.924822e-02 5.913676e-02 5.910976e-02 5.910558e-02 5.892333e-02 5.899972e-02 5.869774e-02 5.885500e-02 5.849690e-02 5.877717e-02 5.839718e-02 5.856940e-02 5.830261e-02 5.843675e-02 5.828498e-02 5.836940e-02 5.811957e-02 5.844574e-02 5.800814e-02 5.850184e-02 5.801749e-02 5.854071e-02 5.824577e-02 5.846635e-02 5.849483e-02 5.850287e-02 5.890138e-02 5.872273e-02 5.928390e-02 5.891445e-02 5.956815e-02 5.905411e-02 5.976287e-02 5.916698e-02 5.988842e-02 5.927532e-02 5.995133e-02 5.938606e-02 5.995205e-02 5.950649e-02 5.990410e-02 5.965162e-02 5.982708e-02 5.982349e-02 5.972661e-02 6.000319e-02 5.960387e-02 6.017207e-02 5.947466e-02 6.032133e-02 5.936452e-02 6.044231e-02 5.929495e-02 6.051892e-02 5.927573e-02 6.052877e-02 5.930801e-02 6.045665e-02 5.939458e-02 6.030372e-02 5.953556e-02 6.007733e-02 5.971204e-02 5.977926e-02 5.988032e-02 5.940462e-02 5.997087e-02 5.893325e-02 5.987591e-02 5.831217e-02 5.943525e-02 5.743709e-02 5.841044e-02 5.610295e-02 5.643631e-02 5.352132e-02 5.159143e-02 4.992753e-02 4.823669e-02 4.794562e-02 
4.769236e-02 4.957654e-02 4.930397e-02 5.274994e-02 5.390272e-02 5.967049e-02 6.260899e-02 6.383732e-02 6.203361e-02 6.465330e-02 6.273537e-02 6.650480e-02 6.492781e-02 6.345649e-02 6.316216e-02 6.338033e-02 6.333486e-02 6.327462e-02 6.343757e-02 6.318023e-02 6.342680e-02 6.443343e-02 6.479195e-02 6.310637e-02 6.337429e-02 6.251492e-02 6.314506e-02 6.237747e-02 6.321342e-02 6.236790e-02 6.332746e-02 6.239402e-02 6.340866e-02 6.244078e-02 6.345131e-02 6.252155e-02 6.347254e-02 6.264167e-02 6.347596e-02 6.278259e-02 6.345376e-02 6.292461e-02 6.340885e-02 6.306018e-02 6.335187e-02 6.318745e-02 6.329405e-02 6.330480e-02 6.323693e-02 6.339766e-02 6.316424e-02 6.344083e-02 6.305674e-02 6.341378e-02 6.290511e-02 6.330304e-02 6.271095e-02 6.309755e-02 6.248927e-02 6.279806e-02 6.222789e-02 6.252866e-02 6.200610e-02 6.230804e-02 6.173167e-02 6.216856e-02 6.155814e-02 6.213736e-02 6.157023e-02 6.221275e-02 6.176211e-02 6.227765e-02 6.203109e-02 6.237928e-02 6.239194e-02 6.253836e-02 6.275053e-02 6.270225e-02 6.305663e-02 6.285117e-02 6.330127e-02 6.299250e-02 6.348711e-02 6.313249e-02 6.360540e-02 6.326542e-02 6.364633e-02 6.339660e-02 6.362750e-02 6.355191e-02 6.357809e-02 6.373901e-02 6.350082e-02 6.393201e-02 6.338899e-02 6.410868e-02 6.325968e-02 6.426532e-02 6.314456e-02 6.439938e-02 6.306926e-02 6.449673e-02 6.304224e-02 6.453080e-02 6.306088e-02 6.448497e-02 6.313319e-02 6.436986e-02 6.327309e-02 6.420471e-02 6.347349e-02 6.400019e-02 6.370345e-02 6.376905e-02 6.391890e-02 6.352769e-02 6.405438e-02 6.328413e-02 6.402897e-02 6.303764e-02 6.382976e-02 6.272972e-02 6.416660e-02 5.803393e-02 5.392396e-02 5.197862e-02 4.913850e-02 4.929441e-02 
3.698770e-02 3.895281e-02 4.063090e-02 4.574703e-02 5.322573e-02 6.449440e-02 5.956599e-02 6.053016e-02 5.526511e-02 5.760029e-02 5.244064e-02 5.421365e-02 4.650848e-02 4.630824e-02 4.606833e-02 4.624695e-02 4.620959e-02 4.615923e-02 4.628836e-02 4.608541e-02 4.626537e-02 4.659022e-02 5.177764e-02 5.181916e-02 5.472045e-02 5.456904e-02 5.666508e-02 5.610268e-02 5.784264e-02 5.690552e-02 5.848178e-02 5.729106e-02 5.876242e-02 5.747128e-02 5.885414e-02 5.761908e-02 5.890278e-02 5.781810e-02 5.893478e-02 5.801791e-02 5.890202e-02 5.817050e-02 5.881188e-02 5.828221e-02 5.869312e-02 5.836744e-02 5.858172e-02 5.845429e-02 5.849964e-02 5.853020e-02 5.841254e-02 5.855448e-02 5.829726e-02 5.852651e-02 5.816948e-02 5.845718e-02 5.803481e-02 5.833573e-02 5.790715e-02 5.820530e-02 5.779912e-02 5.816372e-02 5.777675e-02 5.810260e-02 5.766586e-02 5.800812e-02 5.761631e-02 5.792831e-02 5.767254e-02 5.794259e-02 5.782237e-02 5.794351e-02 5.800147e-02 5.794969e-02 5.824392e-02 5.798753e-02 5.850066e-02 5.804228e-02 5.873724e-02 5.811393e-02 5.895496e-02 5.823020e-02 5.916077e-02 5.838960e-02 5.929851e-02 5.852211e-02 5.929044e-02 5.861339e-02 5.919270e-02 5.877882e-02 5.912023e-02 5.905954e-02 5.903865e-02 5.934277e-02 5.886558e-02 5.956511e-02 5.863879e-02 5.975780e-02 5.844583e-02 5.994655e-02 5.834666e-02 6.011212e-02 5.833803e-02 6.016946e-02 5.837117e-02 6.006097e-02 5.847040e-02 5.984343e-02 5.871758e-02 5.958617e-02 5.912029e-02 5.929583e-02 5.963378e-02 5.901019e-02 6.025704e-02 5.882436e-02 6.100380e-02 5.884609e-02 6.193062e-02 5.926327e-02 6.324322e-02 6.034883e-02 6.688308e-02 6.336424e-02 4.802809e-02 4.448806e-02 3.889200e-02 3.860968e-02 
3.277238e-02 3.674887e-02 3.882277e-02 4.911267e-02 5.911459e-02 5.555819e-02 2.750455e-02 3.906059e-02 2.685111e-02 3.408186e-02 2.500431e-02 2.898232e-02 1.843001e-02 2.255496e-02 2.142355e-02 2.231478e-02 2.240404e-02 2.206566e-02 2.265526e-02 2.162755e-02 2.226834e-02 2.036679e-02 2.752858e-02 2.646404e-02 3.078400e-02 2.951550e-02 3.239179e-02 3.114913e-02 3.320675e-02 3.206114e-02 3.355949e-02 3.256827e-02 3.362331e-02 3.286281e-02 3.356463e-02 3.311759e-02 3.354060e-02 3.341935e-02 3.356049e-02 3.369575e-02 3.354542e-02 3.388985e-02 3.350040e-02 3.402238e-02 3.345879e-02 3.412482e-02 3.346515e-02 3.424837e-02 3.354794e-02 3.438981e-02 3.365970e-02 3.450020e-02 3.375746e-02 3.457008e-02 3.382922e-02 3.459146e-02 3.383718e-02 3.454197e-02 3.379293e-02 3.443535e-02 3.380908e-02 3.427910e-02 3.373052e-02 3.408328e-02 3.360593e-02 3.382484e-02 3.334242e-02 3.355428e-02 3.312638e-02 3.325356e-02 3.307735e-02 3.311851e-02 3.325049e-02 3.316614e-02 3.350639e-02 3.329277e-02 3.373902e-02 3.342047e-02 3.391999e-02 3.355132e-02 3.407200e-02 3.372330e-02 3.421955e-02 3.393313e-02 3.429758e-02 3.408805e-02 3.420955e-02 3.416833e-02 3.403662e-02 3.432548e-02 3.393365e-02 3.461989e-02 3.384492e-02 3.490651e-02 3.366127e-02 3.510219e-02 3.343774e-02 3.524593e-02 3.328634e-02 3.537055e-02 3.328148e-02 3.545175e-02 3.341708e-02 3.537604e-02 3.363029e-02 3.506785e-02 3.394620e-02 3.460931e-02 3.445866e-02 3.409701e-02 3.516461e-02 3.354097e-02 3.598543e-02 3.300318e-02 3.689615e-02 3.262471e-02 3.788115e-02 3.258022e-02 3.891349e-02 3.323739e-02 3.982769e-02 3.551524e-02 4.002146e-02 6.945382e-02 5.101916e-02 4.343532e-02 3.462633e-02 3.541639e-02 
9.700486e-03 1.290731e-02 1.769744e-02 2.591680e-02 3.625453e-02 1.515935e-02 2.815178e-02 2.048138e-02 2.334187e-02 2.121026e-02 2.111045e-02 2.166469e-02 1.829434e-02 2.393373e-02 2.160073e-02 2.596130e-02 2.254328e-02 2.643320e-02 2.221688e-02 2.503458e-02 2.039972e-02 2.053863e-02 2.007748e-02 2.109564e-02 2.048492e-02 2.132878e-02 2.106428e-02 2.141272e-02 2.155826e-02 2.137592e-02 2.191199e-02 2.127714e-02 2.213523e-02 2.117058e-02 2.227263e-02 2.111164e-02 2.237519e-02 2.113092e-02 2.243738e-02 2.119808e-02 2.243820e-02 2.128408e-02 2.239347e-02 2.138333e-02 2.232300e-02 2.149493e-02 2.225091e-02 2.162781e-02 2.219063e-02 2.177019e-02 2.212780e-02 2.189442e-02 2.205679e-02 2.198815e-02 2.198063e-02 2.202774e-02 2.188000e-02 2.195556e-02 2.172771e-02 2.179709e-02 2.147794e-02 2.171885e-02 2.135395e-02 2.160576e-02 2.114216e-02 2.151048e-02 2.114262e-02 2.152647e-02 2.132287e-02 2.174367e-02 2.154049e-02 2.183228e-02 2.162742e-02 2.176976e-02 2.171173e-02 2.165803e-02 2.180379e-02 2.155458e-02 2.190251e-02 2.147966e-02 2.201088e-02 2.145196e-02 2.212968e-02 2.146957e-02 2.222194e-02 2.150156e-02 2.224667e-02 2.153506e-02 2.223324e-02 2.160897e-02 2.223454e-02 2.174906e-02 2.220876e-02 2.190316e-02 2.211473e-02 2.203263e-02 2.197774e-02 2.215152e-02 2.183219e-02 2.229025e-02 2.169702e-02 2.245843e-02 2.156791e-02 2.261990e-02 2.143501e-02 2.275221e-02 2.130499e-02 2.289238e-02 2.120840e-02 2.305696e-02 2.117063e-02 2.320765e-02 2.118708e-02 2.333323e-02 2.128339e-02 2.343322e-02 2.153707e-02 2.349191e-02 2.210754e-02 2.344177e-02 2.350421e-02 2.308354e-02 3.051296e-02 3.519402e-02 3.752810e-02 1.680182e-02 1.330147e-02 1.022936e-02 
1.056662e-02 8.590292e-03 9.096883e-03 6.858048e-03 1.019650e-02 2.543837e-02 9.913130e-03 1.464009e-02 3.208488e-03 1.049558e-02 1.411581e-03 1.078469e-02 1.132146e-02 1.737107e-02 2.111663e-02 2.139020e-02 2.262249e-02 2.306289e-02 2.094403e-02 2.064474e-02 1.797102e-02 9.649722e-03 5.094300e-03 2.707696e-03 5.532607e-03 4.702535e-03 7.928876e-03 6.417386e-03 9.240229e-03 7.278121e-03 9.870841e-03 7.696398e-03 1.009397e-02 7.914251e-03 1.012382e-02 8.126267e-03 1.013757e-02 8.426801e-03 1.015003e-02 8.734633e-03 1.008721e-02 8.978383e-03 9.961349e-03 9.166928e-03 9.813004e-03 9.322339e-03 9.694767e-03 9.490029e-03 9.642885e-03 9.662817e-03 9.615976e-03 9.794752e-03 9.581263e-03 9.896576e-03 9.551007e-03 1.001129e-02 9.545866e-03 1.025328e-02 9.699700e-03 1.059681e-02 1.035238e-02 1.061048e-02 1.049607e-02 1.071527e-02 1.079322e-02 1.066310e-02 1.021450e-02 1.023064e-02 9.297112e-03 9.028425e-03 8.713858e-03 8.376384e-03 9.045992e-03 8.419686e-03 9.589348e-03 8.707184e-03 1.007193e-02 8.953861e-03 1.042477e-02 9.146855e-03 1.068346e-02 9.349516e-03 1.089012e-02 9.585375e-03 1.099085e-02 9.776564e-03 1.089516e-02 9.907464e-03 1.069283e-02 1.013296e-02 1.054669e-02 1.051419e-02 1.039930e-02 1.089573e-02 1.013880e-02 1.118440e-02 9.825216e-03 1.141905e-02 9.578468e-03 1.163623e-02 9.480270e-03 1.181179e-02 9.532443e-03 1.182628e-02 9.677753e-03 1.160109e-02 9.936575e-03 1.121921e-02 1.039571e-02 1.076557e-02 1.104873e-02 1.022557e-02 1.180473e-02 9.632228e-03 1.262124e-02 9.088376e-03 1.346458e-02 8.748017e-03 1.430479e-02 9.070389e-03 1.518150e-02 1.186477e-02 2.439308e-02 1.396834e-02 1.004593e-02 4.574485e-03 1.012288e-02 8.691469e-03 
3.077431e-03 1.190016e-03 3.280366e-03 3.450385e-03 3.558734e-03 9.641532e-03 8.382115e-03 6.289511e-03 4.913693e-03 8.583182e-03 9.138730e-03 1.786886e-02 2.376138e-02 2.448136e-02 1.140397e-02 7.214090e-03 2.819234e-03 4.117822e-03 6.838381e-03 1.191143e-02 2.473902e-02 2.440636e-02 1.565151e-02 1.035856e-02 6.268455e-03 4.380582e-03 2.513532e-03 2.246246e-03 9.124103e-04 1.753443e-03 2.317329e-04 1.686127e-03 9.807236e-05 1.631173e-03 3.024740e-04 1.503394e-03 4.332806e-04 1.297659e-03 5.005527e-04 1.068870e-03 5.546496e-04 8.604440e-04 6.196082e-04 6.759665e-04 6.790095e-04 5.057882e-04 6.989331e-04 3.342086e-04 6.518217e-04 1.834941e-04 5.471406e-04 1.818226e-04 4.048846e-04 3.276868e-04 2.659628e-04 4.569567e-04 5.084836e-04 6.759841e-04 7.441907e-04 1.222893e-03 8.933234e-05 4.839635e-05 4.680615e-04 5.186680e-04 5.428087e-04 1.501134e-03 1.473736e-03 2.419152e-03 3.014256e-03 2.507683e-03 2.462763e-03 2.240487e-03 1.611391e-03 2.082175e-03 1.022560e-03 1.596774e-03 6.338604e-04 1.198257e-03 4.189132e-04 8.805124e-04 3.907163e-04 6.139179e-04 4.573061e-04 3.774313e-04 4.803589e-04 2.088892e-04 3.924485e-04 1.769982e-04 2.689557e-04 3.186849e-04 2.575424e-04 5.986882e-04 3.186123e-04 8.964285e-04 4.467417e-04 1.140794e-03 6.241252e-04 1.329815e-03 7.569186e-04 1.466183e-03 7.775568e-04 1.522085e-03 6.843373e-04 1.431466e-03 5.494028e-04 1.164372e-03 4.901918e-04 8.123190e-04 7.264883e-04 6.528315e-04 1.247198e-03 9.979423e-04 1.860520e-03 1.616858e-03 2.420255e-03 2.297970e-03 2.751393e-03 2.996980e-03 2.591332e-03 3.757376e-03 1.532284e-03 5.027718e-03 6.160613e-03 6.418639e-03 2.532516e-03 1.983041e-03 3.318865e-03 5.243593e-04 
