# vtk DataFile Version 2.0
Comment goes here
ASCII

DATASET STRUCTURED_POINTS
FIELD FieldData 1
TIME 1 1 double
0.35000000
DIMENSIONS    128   16   1

ORIGIN    0.000   0.000   0.000
SPACING   0.0078125 0.015625   1.000

POINT_DATA   2048
SCALARS uMag double
LOOKUP_TABLE default

2.529576e-03 8.445890e-04 2.599712e-03 2.890285e-03 2.192586e-03 7.997356e-03 1.829163e-03 1.889674e-03 1.876515e-04 6.363065e-04 5.990164e-04 2.904934e-04 9.262726e-04 1.684967e-03 3.397070e-03 9.721191e-04 4.793411e-03 1.661895e-03 4.423240e-03 2.156113e-03 3.385585e-03 5.594820e-04 1.453310e-03 5.085747e-04 1.901782e-03 5.472206e-05 1.995548e-03 3.294433e-04 1.924840e-03 6.947801e-04 1.764220e-03 1.025180e-03 1.553764e-03 1.305067e-03 1.331538e-03 1.522674e-03 1.134106e-03 1.675511e-03 1.000962e-03 1.772272e-03 9.708860e-04 1.814917e-03 1.051621e-03 1.790263e-03 1.230741e-03 1.713818e-03 1.516686e-03 1.676164e-03 1.918430e-03 1.835256e-03 2.393447e-03 2.285671e-03 2.851509e-03 3.079319e-03 3.360627e-03 4.919028e-03 5.539940e-03 8.633167e-03 5.451263e-03 8.507943e-03 8.826230e-03 6.918071e-03 1.092258e-02 7.141281e-03 1.105188e-02 9.304898e-03 8.743156e-03 1.123110e-02 5.928680e-03 9.851084e-03 6.192227e-03 5.921773e-03 7.269614e-03 4.056506e-03 3.720627e-03 2.771907e-03 2.402347e-03 2.278531e-03 1.878727e-03 1.867323e-03 1.660224e-03 1.497184e-03 1.609920e-03 1.187798e-03 1.658961e-03 9.360111e-04 1.726165e-03 7.255178e-04 1.762086e-03 5.694065e-04 1.757027e-03 5.061370e-04 1.694456e-03 5.489511e-04 1.543784e-03 6.875778e-04 1.306575e-03 9.322073e-04 1.017121e-03 1.272289e-03 6.874670e-04 1.642458e-03 3.211475e-04 1.968290e-03 2.947671e-05 2.214960e-03 2.669889e-04 2.345614e-03 3.237979e-04 2.289833e-03 1.648154e-04 1.994730e-03 2.473594e-04 1.462718e-03 9.343265e-04 7.428423e-04 1.836209e-03 1.048550e-04 2.753566e-03 9.245797e-04 3.304359e-03 1.434552e-03 2.287925e-03 4.274702e-04 1.709953e-03 8.633660e-04 2.432712e-03 2.551719e-04 
2.304982e-03 8.772451e-04 2.855226e-03 2.715878e-03 5.421015e-03 9.445750e-03 6.272710e-03 2.204390e-03 2.353161e-03 4.277513e-04 4.376106e-03 4.259483e-04 7.894382e-03 2.610101e-03 6.811488e-03 2.119748e-03 6.133765e-03 2.116973e-03 5.453680e-03 3.156360e-03 5.228200e-03 5.086573e-03 2.452755e-03 2.250933e-03 1.842565e-03 1.185592e-03 1.457332e-03 7.451116e-04 1.167694e-03 6.453777e-04 8.980809e-04 7.059949e-04 6.087137e-04 7.966345e-04 3.266173e-04 8.748288e-04 1.473482e-04 9.480758e-04 1.458239e-04 1.005010e-03 1.933581e-04 1.027370e-03 2.959016e-04 9.827622e-04 5.352889e-04 8.928584e-04 9.523362e-04 8.840745e-04 1.564980e-03 1.346070e-03 2.463769e-03 2.605947e-03 4.075452e-03 5.332433e-03 7.896829e-03 1.174925e-02 1.402265e-02 1.079273e-02 4.462642e-03 1.064416e-02 6.759111e-03 6.157210e-03 9.644539e-03 1.761342e-03 8.066576e-03 7.782638e-03 5.544810e-03 1.141909e-02 5.286386e-03 1.208847e-02 1.324112e-02 1.014635e-02 1.522941e-02 1.376471e-02 9.544132e-03 6.482238e-03 4.237878e-03 3.066442e-03 1.881931e-03 1.565862e-03 8.059999e-04 8.803872e-04 4.258254e-04 5.375760e-04 4.557739e-04 3.736479e-04 5.634292e-04 3.490164e-04 6.442311e-04 3.714707e-04 6.733777e-04 3.898072e-04 6.145710e-04 3.937051e-04 4.549258e-04 3.431427e-04 3.136951e-04 2.378267e-04 3.661803e-04 4.208883e-04 5.450409e-04 7.839475e-04 8.218716e-04 1.088508e-03 1.164020e-03 1.303821e-03 1.402987e-03 1.447837e-03 1.467477e-03 1.414694e-03 1.369037e-03 1.193295e-03 1.067201e-03 9.187561e-04 7.405707e-04 9.091582e-04 1.127867e-03 1.427164e-03 1.982566e-03 2.214554e-03 2.752449e-03 3.194381e-03 2.603300e-03 4.043183e-03 3.564565e-03 1.363923e-03 2.609550e-03 2.413047e-04 
3.246413e-03 8.748851e-04 4.766881e-03 1.872813e-03 1.439029e-02 2.396620e-03 1.725100e-02 6.991057e-03 2.848708e-03 4.578969e-03 2.430255e-03 6.734728e-03 4.605010e-03 2.643270e-03 4.568241e-03 2.764879e-03 4.458197e-03 3.673169e-03 3.834855e-03 4.967125e-03 3.836302e-03 5.951308e-03 5.030687e-03 3.557007e-03 2.116033e-03 2.978240e-03 9.397743e-04 2.478058e-03 3.498806e-04 2.019871e-03 1.376511e-04 1.646792e-03 2.000973e-04 1.391356e-03 5.266040e-04 1.119813e-03 8.084025e-04 8.042744e-04 9.664492e-04 4.737613e-04 1.004154e-03 2.010168e-04 9.995231e-04 1.706388e-04 1.025605e-03 4.665501e-04 1.399519e-03 1.011207e-03 2.315596e-03 1.950585e-03 3.728340e-03 3.708375e-03 6.517647e-03 7.828498e-03 1.296348e-02 1.693035e-02 2.314886e-02 2.177431e-02 2.136545e-02 2.276701e-02 2.591563e-02 2.200107e-02 2.833926e-02 2.296258e-02 2.783781e-02 2.664906e-02 2.489736e-02 2.844045e-02 1.974770e-02 2.804770e-02 2.015326e-02 2.177318e-02 2.229862e-02 2.119275e-02 1.522153e-02 1.112788e-02 7.427371e-03 5.762733e-03 3.731832e-03 3.075376e-03 1.808474e-03 1.768414e-03 8.688974e-04 1.366293e-03 4.411431e-04 1.354936e-03 2.631659e-04 1.452825e-03 2.465318e-04 1.474166e-03 2.685183e-04 1.465582e-03 2.337386e-04 1.523126e-03 3.179676e-04 1.523757e-03 6.659933e-04 1.305013e-03 9.918969e-04 9.771872e-04 1.223511e-03 7.487440e-04 1.455144e-03 7.034807e-04 1.859789e-03 4.991952e-04 2.180018e-03 4.329607e-04 2.288147e-03 5.561950e-04 2.358897e-03 8.659881e-04 2.265957e-03 1.458134e-03 2.010666e-03 2.078778e-03 1.953984e-03 2.773644e-03 2.142766e-03 3.573048e-03 2.584344e-03 4.272246e-03 5.766028e-03 1.212695e-02 7.441393e-03 3.158878e-03 3.926978e-03 1.450769e-03 
1.393903e-03 2.473172e-03 4.760535e-04 6.833655e-03 1.371490e-02 1.573924e-02 9.002164e-03 2.360332e-03 3.792432e-03 2.112664e-03 5.031052e-03 3.387630e-03 7.395873e-03 1.868633e-03 6.071665e-03 1.339440e-03 5.079055e-03 1.698952e-03 4.323817e-03 2.752400e-03 3.665043e-03 4.370730e-03 2.318734e-03 2.470034e-03 1.264294e-03 2.047491e-03 1.353312e-03 1.838933e-03 1.365956e-03 1.738300e-03 1.236059e-03 1.737482e-03 9.313973e-04 1.733650e-03 7.475409e-04 1.517892e-03 7.170694e-04 1.174897e-03 6.554039e-04 7.939911e-04 4.984802e-04 4.863523e-04 2.720335e-04 5.049535e-04 1.292538e-04 8.697246e-04 2.582679e-04 1.134047e-03 6.551968e-04 1.654160e-03 8.992414e-04 3.229019e-03 3.054606e-03 6.097683e-03 6.902519e-03 1.035333e-02 1.173543e-02 1.387353e-02 9.211359e-03 8.950030e-03 1.161301e-02 4.701356e-03 1.406560e-02 4.724588e-03 1.047304e-02 8.903829e-03 6.035486e-03 1.407541e-02 4.581977e-03 1.756024e-02 1.014786e-02 1.515129e-02 1.670495e-02 1.349342e-02 1.043814e-02 6.961103e-03 5.741316e-03 3.385094e-03 3.290999e-03 1.532694e-03 2.050613e-03 4.968040e-04 1.266744e-03 1.306419e-04 8.206506e-04 4.185887e-04 5.417551e-04 5.752237e-04 3.518212e-04 5.817792e-04 3.822240e-04 5.675135e-04 3.911557e-04 8.377382e-04 4.206543e-04 9.608531e-04 8.048148e-04 9.213364e-04 1.174885e-03 9.782665e-04 1.275968e-03 1.169762e-03 9.700503e-04 1.357311e-03 7.093802e-04 9.897679e-04 6.776607e-04 3.682273e-04 3.907602e-04 1.620978e-04 8.834391e-04 9.642430e-04 1.470324e-03 2.001672e-03 2.148289e-03 2.734973e-03 3.040215e-03 3.119064e-03 3.597074e-03 3.285968e-03 2.959321e-03 2.206877e-03 4.106104e-03 2.591880e-02 3.581931e-03 7.458239e-03 3.538257e-03 2.229265e-03 
4.460513e-03 1.599067e-03 6.599239e-03 4.665204e-03 6.254566e-03 1.418017e-02 1.393614e-02 1.964612e-03 1.550179e-03 1.528101e-03 2.542423e-03 3.234552e-03 6.277369e-03 4.246226e-03 5.658189e-03 4.847854e-03 5.278323e-03 5.255420e-03 4.799790e-03 5.856217e-03 3.980326e-03 6.917377e-03 2.749996e-03 3.697449e-03 1.555318e-03 2.398009e-03 8.158261e-04 1.553289e-03 6.235665e-04 1.042774e-03 7.206335e-04 9.227664e-04 8.543736e-04 9.755110e-04 1.059040e-03 8.527612e-04 1.215964e-03 6.545344e-04 1.228004e-03 5.554241e-04 1.045273e-03 6.314627e-04 6.873785e-04 7.907983e-04 1.618587e-04 1.096781e-03 7.896346e-04 1.554543e-03 2.041457e-03 2.357623e-03 3.610337e-03 4.116491e-03 6.582802e-03 8.239742e-03 1.268805e-02 1.684235e-02 2.422736e-02 2.988796e-02 2.380023e-02 2.469243e-02 2.656609e-02 2.035465e-02 3.032662e-02 2.044901e-02 2.594093e-02 2.491400e-02 2.126838e-02 3.007986e-02 2.032534e-02 3.332603e-02 2.666163e-02 2.965861e-02 3.331455e-02 2.199048e-02 1.723254e-02 1.149165e-02 8.727546e-03 6.197317e-03 4.470011e-03 3.335472e-03 2.251441e-03 1.671565e-03 1.060473e-03 7.924956e-04 4.487100e-04 4.837682e-04 1.085036e-04 6.495405e-04 1.574073e-04 7.757506e-04 2.643623e-04 8.046544e-04 3.675598e-04 9.751722e-04 6.775266e-04 1.066627e-03 1.099002e-03 9.494353e-04 1.426840e-03 8.014857e-04 1.660558e-03 8.656521e-04 1.833695e-03 1.068699e-03 2.147990e-03 8.890075e-04 2.400116e-03 6.209356e-04 2.391711e-03 4.677544e-04 2.308883e-03 5.064437e-04 2.035696e-03 1.243341e-03 1.612763e-03 2.000065e-03 1.686173e-03 2.954805e-03 2.301981e-03 4.177718e-03 3.225236e-03 4.828798e-03 6.115449e-03 1.894754e-02 8.023931e-03 8.032233e-03 6.416826e-03 3.442018e-03 
7.159182e-03 6.559307e-03 8.214994e-03 8.857557e-03 1.229324e-02 9.960100e-03 1.225027e-02 4.305664e-03 6.649995e-03 4.579373e-03 6.708134e-03 6.574890e-03 6.804361e-03 5.865384e-03 6.411843e-03 6.025296e-03 6.242405e-03 6.215682e-03 6.035175e-03 6.382172e-03 5.831169e-03 7.186059e-03 5.469981e-03 5.941900e-03 4.104214e-03 6.244083e-03 4.270290e-03 6.318344e-03 4.500310e-03 6.235577e-03 4.723764e-03 6.085678e-03 4.982670e-03 5.937342e-03 5.258551e-03 5.758882e-03 5.461442e-03 5.518540e-03 5.547973e-03 5.237437e-03 5.514149e-03 4.950053e-03 5.379155e-03 4.669709e-03 5.115699e-03 4.355220e-03 4.757416e-03 4.117089e-03 4.550280e-03 4.161875e-03 4.791993e-03 4.816019e-03 6.375330e-03 7.731872e-03 1.197806e-02 1.630140e-02 2.011084e-02 6.654684e-03 1.122380e-02 7.382196e-03 1.205691e-02 6.637102e-03 8.083581e-03 8.529792e-03 9.827908e-03 1.126676e-02 9.841245e-03 9.914521e-03 6.578477e-03 1.183686e-02 5.193785e-03 1.321164e-02 1.235689e-02 2.430233e-02 1.535434e-02 1.263330e-02 7.463068e-03 6.939516e-03 4.706606e-03 5.178266e-03 4.271944e-03 5.102180e-03 4.501602e-03 5.399909e-03 4.703678e-03 5.682509e-03 4.825029e-03 5.894332e-03 4.860145e-03 5.989349e-03 4.847101e-03 6.031796e-03 4.911304e-03 6.099087e-03 5.088375e-03 6.115098e-03 5.279730e-03 5.982545e-03 5.452873e-03 5.744512e-03 5.652085e-03 5.462639e-03 5.918511e-03 5.250571e-03 6.272667e-03 5.082845e-03 6.549300e-03 4.873606e-03 6.665714e-03 4.771908e-03 6.715113e-03 4.858857e-03 6.604161e-03 5.063540e-03 6.248295e-03 5.415937e-03 5.727361e-03 5.985228e-03 5.060224e-03 6.683177e-03 4.173400e-03 7.380368e-03 4.921669e-03 9.415213e-03 1.262465e-02 8.499608e-03 8.537058e-03 6.577997e-03 
8.174762e-03 7.567173e-03 8.485369e-03 8.905037e-03 9.827241e-03 1.240673e-02 8.828748e-03 7.430498e-03 9.645801e-03 7.103252e-03 9.038629e-03 7.095881e-03 7.729919e-03 6.408500e-03 6.983985e-03 6.568711e-03 6.778590e-03 6.782470e-03 6.543946e-03 6.996748e-03 6.352032e-03 8.475285e-03 7.551353e-03 8.303813e-03 7.076599e-03 8.760968e-03 7.244155e-03 8.874753e-03 7.384315e-03 8.825407e-03 7.527497e-03 8.697021e-03 7.688639e-03 8.531802e-03 7.849121e-03 8.339988e-03 7.976929e-03 8.124602e-03 8.043698e-03 7.894802e-03 8.041899e-03 7.667514e-03 7.975259e-03 7.452337e-03 7.848131e-03 7.261611e-03 7.702712e-03 7.166401e-03 7.655576e-03 7.301714e-03 7.880965e-03 7.916730e-03 8.813877e-03 9.791156e-03 1.186720e-02 1.536685e-02 1.979088e-02 2.049976e-02 1.371188e-02 1.587429e-02 1.547339e-02 1.095524e-02 1.767357e-02 9.985905e-03 1.548638e-02 1.281039e-02 1.188428e-02 1.645988e-02 1.224911e-02 1.872073e-02 1.655226e-02 1.783264e-02 2.273513e-02 1.863259e-02 1.475074e-02 1.146768e-02 9.648547e-03 8.603100e-03 7.876197e-03 7.718448e-03 7.376817e-03 7.627762e-03 7.342371e-03 7.791579e-03 7.424318e-03 7.997409e-03 7.514493e-03 8.174222e-03 7.580952e-03 8.290845e-03 7.631248e-03 8.359088e-03 7.707525e-03 8.398914e-03 7.821614e-03 8.386236e-03 7.952405e-03 8.306078e-03 8.099718e-03 8.178517e-03 8.266563e-03 8.024646e-03 8.450465e-03 7.879633e-03 8.645316e-03 7.758381e-03 8.805212e-03 7.655463e-03 8.887946e-03 7.605894e-03 8.902032e-03 7.644493e-03 8.828516e-03 7.756380e-03 8.656091e-03 7.936096e-03 8.428964e-03 8.159579e-03 8.216651e-03 8.377075e-03 8.192564e-03 8.709041e-03 8.712245e-03 1.055887e-02 9.731882e-03 8.440813e-03 8.551527e-03 7.523452e-03 
8.749410e-03 8.642076e-03 8.727326e-03 8.978399e-03 8.925685e-03 9.544528e-03 8.822767e-03 8.476808e-03 8.481059e-03 7.907237e-03 7.745649e-03 7.889467e-03 6.763328e-03 6.313351e-03 6.550604e-03 6.346283e-03 6.446125e-03 6.428814e-03 6.359922e-03 6.533167e-03 6.323495e-03 7.094421e-03 8.828240e-03 8.363308e-03 8.220860e-03 8.689397e-03 7.905086e-03 8.819213e-03 7.791768e-03 8.845133e-03 7.817688e-03 8.809466e-03 7.931246e-03 8.736117e-03 8.084850e-03 8.636796e-03 8.236368e-03 8.521268e-03 8.357956e-03 8.404476e-03 8.438865e-03 8.306399e-03 8.483686e-03 8.249212e-03 8.509293e-03 8.260185e-03 8.557333e-03 8.391117e-03 8.703042e-03 8.712603e-03 9.034867e-03 9.308429e-03 9.674678e-03 1.035634e-02 1.091613e-02 1.243266e-02 1.372901e-02 1.642546e-02 1.430850e-02 1.521827e-02 1.593587e-02 1.326741e-02 1.633083e-02 1.392835e-02 1.611902e-02 1.608526e-02 1.527779e-02 1.673859e-02 1.378749e-02 1.521501e-02 1.332975e-02 1.375788e-02 1.643599e-02 1.326128e-02 1.251518e-02 1.102615e-02 1.042515e-02 9.855581e-03 9.301147e-03 9.205151e-03 8.688968e-03 8.919362e-03 8.372221e-03 8.841518e-03 8.203697e-03 8.856799e-03 8.108659e-03 8.898458e-03 8.053435e-03 8.927770e-03 8.031357e-03 8.932257e-03 8.054380e-03 8.909161e-03 8.126198e-03 8.844973e-03 8.233497e-03 8.728209e-03 8.365832e-03 8.568909e-03 8.520956e-03 8.391998e-03 8.695061e-03 8.228515e-03 8.870575e-03 8.094188e-03 9.007425e-03 7.997655e-03 9.073894e-03 7.966153e-03 9.059458e-03 8.019261e-03 8.947722e-03 8.152189e-03 8.735310e-03 8.357489e-03 8.460088e-03 8.623493e-03 8.206325e-03 8.931642e-03 8.145519e-03 9.299571e-03 8.563111e-03 9.558571e-03 9.226440e-03 9.070830e-03 8.993297e-03 8.691717e-03 
8.961691e-03 8.742744e-03 9.021964e-03 9.197087e-03 9.201697e-03 9.688487e-03 9.028477e-03 8.595729e-03 8.758606e-03 7.852017e-03 8.033901e-03 7.868802e-03 7.073775e-03 6.669813e-03 6.969170e-03 6.733107e-03 6.836522e-03 6.856270e-03 6.709661e-03 6.991841e-03 6.641970e-03 7.101243e-03 9.097900e-03 8.915769e-03 8.704532e-03 9.243385e-03 8.396797e-03 9.328396e-03 8.268175e-03 9.296433e-03 8.271370e-03 9.209124e-03 8.357205e-03 9.095725e-03 8.484338e-03 8.975311e-03 8.623185e-03 8.863069e-03 8.754191e-03 8.772811e-03 8.869625e-03 8.720746e-03 8.975027e-03 8.727450e-03 9.089973e-03 8.820828e-03 9.251093e-03 9.042435e-03 9.515038e-03 9.448828e-03 9.953090e-03 1.010606e-02 1.064409e-02 1.108170e-02 1.165081e-02 1.238839e-02 1.290983e-02 1.366520e-02 1.322911e-02 1.315277e-02 1.362538e-02 1.237193e-02 1.390098e-02 1.227973e-02 1.345286e-02 1.298248e-02 1.302926e-02 1.381529e-02 1.318872e-02 1.427227e-02 1.401469e-02 1.382400e-02 1.444149e-02 1.300318e-02 1.297732e-02 1.167836e-02 1.150698e-02 1.058970e-02 1.038525e-02 9.854642e-03 9.630746e-03 9.432920e-03 9.155195e-03 9.226756e-03 8.862653e-03 9.146219e-03 8.685567e-03 9.126411e-03 8.583024e-03 9.122520e-03 8.532980e-03 9.107488e-03 8.528378e-03 9.068439e-03 8.566692e-03 8.997828e-03 8.641357e-03 8.892168e-03 8.743107e-03 8.757231e-03 8.864525e-03 8.609985e-03 8.998244e-03 8.471127e-03 9.128726e-03 8.355652e-03 9.232576e-03 8.275598e-03 9.289597e-03 8.245727e-03 9.289620e-03 8.275892e-03 9.226764e-03 8.361312e-03 9.105028e-03 8.489040e-03 8.953592e-03 8.647185e-03 8.837271e-03 8.840431e-03 8.859244e-03 9.110824e-03 9.097468e-03 9.415723e-03 9.277352e-03 9.008849e-03 9.090222e-03 8.690148e-03 
8.753944e-03 8.646010e-03 8.730114e-03 8.982310e-03 8.927114e-03 9.548751e-03 8.825457e-03 8.479426e-03 8.481039e-03 7.907529e-03 7.741832e-03 7.887106e-03 6.763232e-03 6.312776e-03 6.549612e-03 6.347872e-03 6.447257e-03 6.433182e-03 6.363370e-03 6.540055e-03 6.328848e-03 7.076793e-03 8.805825e-03 8.371535e-03 8.219076e-03 8.697904e-03 7.917427e-03 8.833805e-03 7.821305e-03 8.868077e-03 7.864680e-03 8.842994e-03 7.992210e-03 8.782611e-03 8.162790e-03 8.714881e-03 8.353237e-03 8.663385e-03 8.541700e-03 8.640193e-03 8.713714e-03 8.660579e-03 8.874985e-03 8.749860e-03 9.049576e-03 8.933307e-03 9.264481e-03 9.227746e-03 9.548681e-03 9.650498e-03 9.939992e-03 1.022342e-02 1.047857e-02 1.096423e-02 1.119135e-02 1.186287e-02 1.205975e-02 1.279462e-02 1.279070e-02 1.310812e-02 1.343778e-02 1.319017e-02 1.383134e-02 1.348455e-02 1.393784e-02 1.386694e-02 1.379195e-02 1.390156e-02 1.345917e-02 1.344413e-02 1.314747e-02 1.274806e-02 1.289818e-02 1.200094e-02 1.198041e-02 1.115304e-02 1.102440e-02 1.042796e-02 1.020441e-02 9.884916e-03 9.558192e-03 9.523095e-03 9.068889e-03 9.309562e-03 8.712574e-03 9.207632e-03 8.471220e-03 9.177111e-03 8.321587e-03 9.166961e-03 8.234141e-03 9.134083e-03 8.198359e-03 9.065454e-03 8.221677e-03 8.962187e-03 8.301802e-03 8.816808e-03 8.416702e-03 8.627660e-03 8.554576e-03 8.424290e-03 8.715736e-03 8.239718e-03 8.877658e-03 8.087780e-03 9.003022e-03 7.982617e-03 9.063581e-03 7.949101e-03 9.048554e-03 8.010040e-03 8.947667e-03 8.159412e-03 8.746564e-03 8.371405e-03 8.469159e-03 8.631984e-03 8.210876e-03 8.940286e-03 8.156823e-03 9.313992e-03 8.577881e-03 9.568966e-03 9.236399e-03 9.077221e-03 9.000029e-03 8.696309e-03 
8.183572e-03 7.574204e-03 8.491868e-03 8.912619e-03 9.831040e-03 1.241483e-02 8.832676e-03 7.432316e-03 9.639022e-03 7.099291e-03 9.022781e-03 7.087865e-03 7.725547e-03 6.408179e-03 6.982616e-03 6.572588e-03 6.783393e-03 6.792645e-03 6.553579e-03 7.015557e-03 6.365643e-03 8.453522e-03 7.510173e-03 8.331844e-03 7.085511e-03 8.790115e-03 7.282423e-03 8.919207e-03 7.456614e-03 8.889724e-03 7.634012e-03 8.784544e-03 7.824717e-03 8.651506e-03 8.028514e-03 8.535817e-03 8.248365e-03 8.465620e-03 8.470756e-03 8.447153e-03 8.681577e-03 8.489784e-03 8.886410e-03 8.614623e-03 9.110915e-03 8.837783e-03 9.371576e-03 9.155624e-03 9.678662e-03 9.563816e-03 1.005116e-02 1.005657e-02 1.049692e-02 1.060491e-02 1.098670e-02 1.112809e-02 1.143300e-02 1.150260e-02 1.175484e-02 1.166338e-02 1.195628e-02 1.172813e-02 1.209206e-02 1.182381e-02 1.216725e-02 1.197061e-02 1.226180e-02 1.207024e-02 1.233965e-02 1.203657e-02 1.231810e-02 1.180182e-02 1.209762e-02 1.139143e-02 1.163223e-02 1.085382e-02 1.100423e-02 1.029301e-02 1.034786e-02 9.810144e-03 9.743177e-03 9.436753e-03 9.220754e-03 9.177866e-03 8.805778e-03 9.029872e-03 8.509244e-03 8.969322e-03 8.317155e-03 8.942346e-03 8.190636e-03 8.890590e-03 8.113709e-03 8.801722e-03 8.103805e-03 8.688818e-03 8.164559e-03 8.536636e-03 8.257715e-03 8.328467e-03 8.367434e-03 8.107576e-03 8.512349e-03 7.914426e-03 8.669932e-03 7.750319e-03 8.796795e-03 7.627415e-03 8.868143e-03 7.577324e-03 8.883132e-03 7.629404e-03 8.832287e-03 7.774335e-03 8.686264e-03 7.971074e-03 8.455118e-03 8.183236e-03 8.233145e-03 8.399658e-03 8.222455e-03 8.744558e-03 8.741325e-03 1.057419e-02 9.749140e-03 8.449647e-03 8.563423e-03 7.530535e-03 
7.169203e-03 6.567168e-03 8.220013e-03 8.865112e-03 1.228980e-02 9.982457e-03 1.228329e-02 4.306702e-03 6.658230e-03 4.587069e-03 6.690662e-03 6.557591e-03 6.785791e-03 5.860888e-03 6.407449e-03 6.027504e-03 6.245930e-03 6.228781e-03 6.048131e-03 6.415041e-03 5.858183e-03 7.206074e-03 5.379794e-03 5.938387e-03 4.033122e-03 6.231654e-03 4.284774e-03 6.346813e-03 4.588470e-03 6.292953e-03 4.887656e-03 6.179604e-03 5.168303e-03 6.009399e-03 5.414700e-03 5.876145e-03 5.702288e-03 5.844167e-03 5.994897e-03 5.860550e-03 6.220732e-03 5.909283e-03 6.395127e-03 6.060944e-03 6.614103e-03 6.371427e-03 6.894395e-03 6.783817e-03 7.187884e-03 7.245886e-03 7.520478e-03 7.792716e-03 7.992845e-03 8.492461e-03 8.636424e-03 9.227975e-03 9.249587e-03 9.771227e-03 9.736961e-03 1.015090e-02 1.008840e-02 1.035567e-02 1.030083e-02 1.047369e-02 1.048412e-02 1.057425e-02 1.061350e-02 1.043201e-02 1.042543e-02 9.877917e-03 9.882057e-03 9.172786e-03 9.336739e-03 8.635322e-03 8.872956e-03 8.113503e-03 8.266209e-03 7.569385e-03 7.636365e-03 7.154722e-03 7.052283e-03 6.836192e-03 6.477501e-03 6.588311e-03 5.981958e-03 6.485751e-03 5.671551e-03 6.561137e-03 5.534764e-03 6.670069e-03 5.414412e-03 6.643757e-03 5.288163e-03 6.521304e-03 5.277493e-03 6.406143e-03 5.430051e-03 6.233787e-03 5.596392e-03 5.893541e-03 5.736300e-03 5.530320e-03 5.985102e-03 5.262737e-03 6.291077e-03 5.025719e-03 6.523610e-03 4.803916e-03 6.620291e-03 4.678344e-03 6.641513e-03 4.791430e-03 6.608826e-03 5.113160e-03 6.336847e-03 5.496392e-03 5.758609e-03 5.981541e-03 5.025030e-03 6.678226e-03 4.216532e-03 7.454464e-03 4.943723e-03 9.444991e-03 1.265504e-02 8.515349e-03 8.553727e-03 6.587110e-03 
4.472254e-03 1.601924e-03 6.606816e-03 4.651195e-03 6.268478e-03 1.417435e-02 1.397680e-02 1.920348e-03 1.642763e-03 1.612784e-03 2.588741e-03 3.263503e-03 6.315152e-03 4.283197e-03 5.698033e-03 4.863369e-03 5.298478e-03 5.264353e-03 4.819277e-03 5.904854e-03 4.013240e-03 6.966270e-03 2.543408e-03 3.644939e-03 1.410247e-03 2.346476e-03 8.431156e-04 1.600792e-03 7.902273e-04 1.179488e-03 1.016646e-03 9.898912e-04 1.273375e-03 8.376778e-04 1.394419e-03 8.649071e-04 1.520270e-03 8.202271e-04 1.685417e-03 6.276918e-04 1.754007e-03 5.287397e-04 1.733300e-03 6.915961e-04 1.786730e-03 1.071023e-03 1.930094e-03 1.590096e-03 2.081831e-03 2.147601e-03 2.280810e-03 2.746250e-03 2.697997e-03 3.559216e-03 3.410148e-03 4.462700e-03 4.141125e-03 5.086077e-03 4.659629e-03 5.276432e-03 5.058239e-03 5.215812e-03 5.246105e-03 5.242148e-03 5.370168e-03 5.536481e-03 5.434465e-03 5.620481e-03 5.250233e-03 5.131985e-03 4.805015e-03 4.328905e-03 4.457691e-03 3.721600e-03 4.117265e-03 3.151817e-03 3.579620e-03 2.588462e-03 3.009411e-03 2.196539e-03 2.483315e-03 1.947339e-03 1.920655e-03 1.682282e-03 1.442823e-03 1.441038e-03 1.268107e-03 1.457553e-03 1.134490e-03 1.553592e-03 8.174362e-04 1.477674e-03 6.557258e-04 1.308103e-03 7.003885e-04 1.266649e-03 1.006702e-03 1.109118e-03 1.487778e-03 7.990297e-04 1.739961e-03 8.702310e-04 1.925633e-03 9.806766e-04 2.247160e-03 8.301715e-04 2.466682e-03 6.392713e-04 2.426156e-03 5.764121e-04 2.280915e-03 3.707919e-04 2.170672e-03 1.006082e-03 1.738153e-03 2.038991e-03 1.533546e-03 2.911790e-03 2.393319e-03 3.957496e-03 3.367668e-03 4.783913e-03 6.031109e-03 1.885600e-02 8.056860e-03 8.059245e-03 6.438949e-03 3.456783e-03 
1.393669e-03 2.473541e-03 4.617820e-04 6.826243e-03 1.369674e-02 1.570360e-02 9.035907e-03 2.361030e-03 3.700046e-03 2.201678e-03 4.903075e-03 3.435615e-03 7.299580e-03 1.910439e-03 6.003456e-03 1.381498e-03 5.058928e-03 1.672515e-03 4.352911e-03 2.713128e-03 3.643060e-03 4.481964e-03 2.627245e-03 2.537874e-03 1.392425e-03 2.052104e-03 1.295414e-03 1.850379e-03 1.330984e-03 1.750400e-03 1.183595e-03 1.650474e-03 1.121473e-03 1.470641e-03 8.529033e-04 1.388088e-03 4.181418e-04 1.250341e-03 2.866027e-04 1.013989e-03 4.347440e-04 8.956903e-04 6.001118e-04 8.723339e-04 8.961637e-04 8.938992e-04 1.131894e-03 9.727548e-04 1.239889e-03 1.052246e-03 1.351454e-03 9.613268e-04 1.540176e-03 9.332331e-04 1.615019e-03 9.017924e-04 1.435431e-03 7.895918e-04 1.381869e-03 7.795675e-04 1.329135e-03 8.194147e-04 1.203051e-03 9.972579e-04 1.333856e-03 1.278543e-03 1.571327e-03 1.161213e-03 1.791380e-03 1.187312e-03 1.870813e-03 1.308240e-03 1.665391e-03 1.472892e-03 1.674545e-03 1.471788e-03 1.531286e-03 1.438287e-03 1.309250e-03 1.371541e-03 1.050558e-03 1.390045e-03 7.510178e-04 1.324354e-03 6.499484e-04 1.057899e-03 8.856746e-04 9.718761e-04 7.986517e-04 1.035181e-03 2.789587e-04 1.043102e-03 3.053461e-04 1.027839e-03 4.204900e-04 1.239583e-03 6.979714e-04 1.264902e-03 1.247288e-03 1.155107e-03 1.362740e-03 1.340483e-03 1.058516e-03 1.377386e-03 8.562134e-04 9.817100e-04 6.817246e-04 3.238305e-04 3.569694e-04 2.602790e-04 9.194795e-04 7.403029e-04 1.798306e-03 1.758330e-03 2.249629e-03 2.867084e-03 2.850597e-03 3.264173e-03 3.661408e-03 2.984501e-03 3.272777e-03 1.966075e-03 4.091991e-03 2.585092e-02 3.616701e-03 7.482879e-03 3.549481e-03 2.240908e-03 
3.238749e-03 8.786213e-04 4.751767e-03 1.870044e-03 1.436525e-02 2.385776e-03 1.729214e-02 6.954239e-03 2.853109e-03 4.595195e-03 2.398932e-03 6.762064e-03 4.582742e-03 2.578340e-03 4.575507e-03 2.688525e-03 4.482385e-03 3.639453e-03 3.876324e-03 5.025811e-03 3.940165e-03 5.938026e-03 4.829080e-03 3.497697e-03 2.045764e-03 2.935050e-03 9.760763e-04 2.474565e-03 3.725875e-04 2.038381e-03 5.789995e-05 1.660138e-03 2.995333e-04 1.264481e-03 5.173630e-04 9.783143e-04 7.912958e-04 8.130939e-04 1.088438e-03 7.046450e-04 1.265964e-03 6.992242e-04 1.334844e-03 8.178029e-04 1.443424e-03 1.124967e-03 1.624190e-03 1.600281e-03 1.838728e-03 2.177007e-03 2.195405e-03 2.945432e-03 2.949042e-03 4.181457e-03 4.263360e-03 5.822764e-03 5.857552e-03 7.353131e-03 7.093790e-03 7.981372e-03 8.216766e-03 8.064188e-03 8.839317e-03 8.204365e-03 8.927074e-03 8.598397e-03 8.455100e-03 8.667263e-03 7.527276e-03 7.635873e-03 6.483559e-03 5.919203e-03 5.587256e-03 4.470528e-03 4.414995e-03 3.295686e-03 3.328555e-03 2.435353e-03 2.492965e-03 1.955610e-03 1.867294e-03 1.685223e-03 1.281254e-03 1.511549e-03 8.619958e-04 1.488279e-03 7.544451e-04 1.688571e-03 6.240368e-04 1.904462e-03 3.264649e-04 1.915086e-03 1.706277e-04 1.798468e-03 3.106316e-04 1.721452e-03 6.361246e-04 1.553811e-03 1.015798e-03 1.191012e-03 1.251771e-03 9.593595e-04 1.523246e-03 8.330643e-04 1.898237e-03 6.019451e-04 2.180316e-03 4.773756e-04 2.258268e-03 6.472934e-04 2.286090e-03 8.054775e-04 2.336760e-03 1.404356e-03 2.099581e-03 2.198031e-03 1.883087e-03 2.816223e-03 2.213048e-03 3.495130e-03 2.681303e-03 4.391087e-03 5.630147e-03 1.215998e-02 7.479688e-03 3.171332e-03 3.931052e-03 1.452362e-03 
2.298674e-03 8.755202e-04 2.843717e-03 2.712655e-03 5.405630e-03 9.442726e-03 6.293887e-03 2.185818e-03 2.336907e-03 4.421344e-04 4.356197e-03 4.509704e-04 7.885297e-03 2.655223e-03 6.807946e-03 2.142091e-03 6.148464e-03 2.095881e-03 5.462415e-03 3.152746e-03 5.169964e-03 5.048231e-03 2.470463e-03 2.286647e-03 1.899522e-03 1.221430e-03 1.472358e-03 7.660774e-04 1.141149e-03 6.521694e-04 8.256594e-04 6.648720e-04 5.373443e-04 7.393086e-04 2.969277e-04 8.107805e-04 1.643884e-04 8.179301e-04 2.822899e-04 7.878439e-04 3.824601e-04 7.360233e-04 4.232314e-04 6.178386e-04 4.941414e-04 5.218291e-04 6.952628e-04 8.616222e-04 1.101373e-03 1.635320e-03 1.775832e-03 2.755260e-03 2.819434e-03 4.281111e-03 4.298981e-03 6.074311e-03 5.898883e-03 7.396782e-03 6.362955e-03 7.330642e-03 7.510846e-03 6.365531e-03 7.900440e-03 6.158760e-03 7.723605e-03 7.101247e-03 6.689504e-03 7.974208e-03 5.906925e-03 7.286606e-03 5.993658e-03 5.912578e-03 6.206605e-03 5.012620e-03 4.862551e-03 3.463240e-03 3.363455e-03 2.171562e-03 2.216880e-03 1.334294e-03 1.410017e-03 8.299938e-04 8.175860e-04 5.574230e-04 4.938297e-04 4.831583e-04 4.798123e-04 5.493457e-04 4.902980e-04 6.238142e-04 4.872832e-04 6.017612e-04 4.970860e-04 5.077851e-04 4.270795e-04 4.133571e-04 2.942985e-04 3.500097e-04 3.441807e-04 4.922345e-04 5.537459e-04 8.150250e-04 8.621621e-04 1.099325e-03 1.204338e-03 1.308402e-03 1.443576e-03 1.442545e-03 1.487921e-03 1.438704e-03 1.361644e-03 1.201883e-03 1.101505e-03 8.861178e-04 7.734105e-04 9.185765e-04 1.142921e-03 1.392954e-03 2.049054e-03 2.162714e-03 2.778371e-03 3.231230e-03 2.545735e-03 4.092736e-03 3.583635e-03 1.388710e-03 2.611041e-03 2.540970e-04 
