# vtk DataFile Version 2.0
Comment goes here
ASCII

DATASET STRUCTURED_POINTS
FIELD FieldData 1
TIME 1 1 double
0.24000000
DIMENSIONS    128   16   1

ORIGIN    0.000   0.000   0.000
SPACING   0.0078125 0.015625   1.000

POINT_DATA   2048
SCALARS uMag double
LOOKUP_TABLE default

2.001809e-03 2.924930e-03 1.207216e-03 3.156944e-03 6.359698e-04 6.352607e-03 4.758697e-03 1.028180e-03 3.374368e-03 2.127726e-03 1.330860e-03 8.585190e-03 1.185325e-02 2.074382e-02 2.441969e-02 2.836065e-02 2.726206e-02 2.931531e-02 2.597337e-02 2.473128e-02 1.990102e-02 1.248247e-02 7.066589e-03 3.031854e-03 4.027079e-04 1.164525e-03 2.280264e-03 3.063164e-03 3.287306e-03 3.968916e-03 3.570153e-03 4.434113e-03 3.587157e-03 4.660527e-03 3.459738e-03 4.678449e-03 3.308338e-03 4.640636e-03 3.293496e-03 4.627406e-03 3.381205e-03 4.534291e-03 3.473357e-03 4.386720e-03 3.647367e-03 4.247639e-03 3.877682e-03 4.091534e-03 4.143375e-03 4.007503e-03 4.560247e-03 4.172495e-03 5.016940e-03 4.352329e-03 4.835012e-03 4.241577e-03 4.428339e-03 7.451317e-03 2.694866e-03 7.417559e-03 9.051110e-03 4.839172e-03 8.675860e-03 5.586520e-03 1.116939e-02 9.047348e-03 6.983607e-03 1.115958e-02 2.981807e-03 4.990042e-03 3.706895e-03 1.242784e-03 2.782240e-03 2.539040e-03 2.064012e-03 3.671992e-03 2.739762e-03 3.983108e-03 3.008537e-03 3.931392e-03 3.112296e-03 3.791743e-03 3.237857e-03 3.554308e-03 3.324066e-03 3.220602e-03 3.447473e-03 2.918475e-03 3.657277e-03 2.694560e-03 3.897807e-03 2.542223e-03 4.095296e-03 2.463305e-03 4.145251e-03 2.398216e-03 3.958350e-03 2.391548e-03 3.658539e-03 2.610266e-03 3.340377e-03 3.002994e-03 2.945098e-03 3.475473e-03 2.483049e-03 3.963377e-03 2.029569e-03 4.412164e-03 1.660715e-03 4.748482e-03 1.446585e-03 4.875951e-03 1.431078e-03 4.733477e-03 1.698641e-03 4.339203e-03 2.323153e-03 3.722145e-03 3.314595e-03 3.023365e-03 4.706598e-03 2.407600e-03 6.204667e-03 1.637051e-04 1.847073e-03 8.882306e-04 1.956569e-03 2.306607e-03 
6.461123e-04 1.112661e-03 1.081339e-03 9.411061e-04 4.291107e-03 6.248516e-03 6.499164e-03 1.656051e-03 5.376877e-03 4.907495e-03 7.647383e-03 1.061479e-02 1.285385e-02 1.261542e-02 9.538342e-03 4.158601e-03 5.590692e-03 4.087881e-03 6.449583e-03 7.265286e-03 1.243932e-02 1.310307e-02 9.498771e-03 6.883112e-03 4.265913e-03 3.063720e-03 2.049258e-03 1.777937e-03 1.134233e-03 1.502514e-03 7.667713e-04 1.630080e-03 5.562286e-04 1.696390e-03 1.835357e-04 1.494050e-03 8.017109e-05 1.408652e-03 1.366582e-05 1.496545e-03 2.780516e-04 1.383519e-03 4.888153e-04 1.183961e-03 6.906570e-04 1.010746e-03 9.876457e-04 9.392550e-04 1.502673e-03 1.371771e-03 2.584537e-03 2.802913e-03 4.555012e-03 5.802709e-03 8.654860e-03 1.308796e-02 1.799996e-02 1.536108e-02 6.214501e-03 1.693180e-02 1.047581e-02 4.078007e-03 1.157693e-02 5.631418e-03 1.107807e-02 1.235917e-02 5.919514e-03 1.775315e-02 1.507720e-02 1.503679e-02 1.625931e-02 8.377953e-03 1.185521e-02 9.596229e-03 6.556115e-03 3.864677e-03 2.937265e-03 1.598943e-03 1.349414e-03 8.378174e-04 7.353827e-04 7.121987e-04 2.936410e-04 5.038226e-04 4.733689e-05 2.417231e-04 1.467080e-04 5.007093e-04 2.293939e-04 7.238086e-04 5.744473e-04 7.532591e-04 8.479675e-04 7.340123e-04 9.230734e-04 8.291893e-04 6.792250e-04 9.728254e-04 3.764356e-04 8.076991e-04 4.946010e-04 3.607150e-04 6.503189e-04 5.151786e-04 7.997561e-04 9.762427e-04 1.259806e-03 1.289110e-03 1.672570e-03 1.571588e-03 1.879353e-03 1.707473e-03 1.906571e-03 1.611838e-03 1.682303e-03 1.391470e-03 1.131989e-03 1.234128e-03 5.810229e-04 1.559590e-03 1.750532e-03 2.010224e-03 4.117861e-03 6.145798e-03 2.493297e-03 1.888188e-03 1.566871e-03 8.343971e-05 
4.189858e-03 4.267587e-03 1.073238e-03 3.808263e-03 1.121339e-02 1.487919e-02 1.185347e-02 6.213033e-03 3.541696e-03 3.852466e-03 1.886281e-03 7.437318e-04 4.325879e-03 8.002531e-03 9.338082e-03 1.060375e-02 9.579945e-03 1.075530e-02 9.255609e-03 8.859349e-03 7.774409e-03 3.163618e-03 2.113810e-03 3.521446e-03 2.672956e-03 5.437117e-03 4.461168e-03 6.255149e-03 5.598433e-03 6.411335e-03 6.046970e-03 5.937497e-03 6.122500e-03 5.746819e-03 6.674752e-03 6.001149e-03 7.111984e-03 5.849178e-03 6.879706e-03 5.459772e-03 6.671462e-03 5.435285e-03 6.659965e-03 5.446530e-03 6.487645e-03 5.454260e-03 6.298628e-03 5.331762e-03 5.680810e-03 4.539307e-03 4.947147e-03 4.442207e-03 6.797962e-03 8.135204e-03 1.351726e-02 1.810894e-02 2.639088e-02 2.033103e-02 2.115923e-02 2.206569e-02 2.833109e-02 1.714771e-02 2.537876e-02 1.779589e-02 2.693604e-02 2.603955e-02 2.060482e-02 2.631407e-02 8.442448e-03 1.565120e-02 1.181427e-02 1.310103e-02 8.967107e-03 1.306723e-02 7.741503e-03 7.367178e-03 5.700575e-03 5.948972e-03 5.932238e-03 5.982752e-03 6.609869e-03 6.448536e-03 6.857288e-03 6.690701e-03 6.943766e-03 7.212279e-03 7.201338e-03 7.834486e-03 6.993084e-03 7.960178e-03 6.428847e-03 7.876541e-03 5.981087e-03 7.867826e-03 5.831982e-03 8.054378e-03 6.130019e-03 8.451808e-03 6.787014e-03 8.550574e-03 7.203663e-03 7.943421e-03 7.239275e-03 7.199661e-03 7.591323e-03 6.919447e-03 8.323288e-03 6.633078e-03 8.877270e-03 6.197352e-03 9.173790e-03 5.969207e-03 9.274456e-03 6.029600e-03 9.244899e-03 6.606713e-03 9.000443e-03 7.638262e-03 8.317744e-03 8.995678e-03 7.315247e-03 1.059104e-02 8.577506e-03 1.624202e-02 8.009145e-03 3.545235e-03 4.462572e-03 4.201927e-03 
5.696410e-03 7.520570e-03 1.031359e-02 1.889094e-02 1.032566e-02 2.447633e-02 1.546969e-02 1.158604e-02 1.690349e-02 1.099082e-02 1.738760e-02 1.121799e-02 1.769593e-02 1.327950e-02 1.908502e-02 1.566902e-02 1.867443e-02 1.680844e-02 1.751381e-02 1.728483e-02 1.501856e-02 1.609030e-02 1.257421e-02 1.513974e-02 1.222695e-02 1.481040e-02 1.225222e-02 1.465087e-02 1.245653e-02 1.433053e-02 1.257427e-02 1.390305e-02 1.261709e-02 1.372334e-02 1.284522e-02 1.351940e-02 1.298040e-02 1.315350e-02 1.296854e-02 1.287211e-02 1.297678e-02 1.259176e-02 1.284595e-02 1.226417e-02 1.269991e-02 1.201075e-02 1.257283e-02 1.171096e-02 1.213083e-02 1.111611e-02 1.122964e-02 9.837759e-03 9.702279e-03 8.047746e-03 7.696343e-03 8.602033e-03 1.008095e-02 7.605255e-03 1.110731e-03 5.167563e-03 3.031820e-03 7.446668e-03 3.324600e-03 9.799568e-03 3.027995e-03 8.904551e-03 1.012679e-02 4.288747e-03 1.225445e-02 3.049833e-03 1.031390e-02 3.777915e-03 1.988995e-03 8.312115e-03 7.069021e-03 1.019443e-02 1.005919e-02 1.184592e-02 1.181240e-02 1.277279e-02 1.278652e-02 1.341032e-02 1.342546e-02 1.378594e-02 1.367396e-02 1.396552e-02 1.378677e-02 1.411346e-02 1.359957e-02 1.412170e-02 1.339275e-02 1.402044e-02 1.322086e-02 1.398928e-02 1.314358e-02 1.407532e-02 1.315818e-02 1.434304e-02 1.339223e-02 1.462048e-02 1.369381e-02 1.462107e-02 1.371627e-02 1.466353e-02 1.369805e-02 1.483184e-02 1.384520e-02 1.480365e-02 1.397275e-02 1.466118e-02 1.406609e-02 1.450640e-02 1.411814e-02 1.428355e-02 1.432445e-02 1.423875e-02 1.473169e-02 1.427980e-02 1.504788e-02 1.432119e-02 1.572576e-02 1.410669e-02 1.724730e-02 1.082579e-02 2.335629e-02 1.689319e-02 1.076855e-02 6.148565e-03 
2.461040e-02 2.409562e-02 3.000928e-02 3.243922e-02 4.184634e-02 2.069011e-02 2.139951e-02 2.342803e-02 1.799636e-02 2.219689e-02 1.802452e-02 1.968753e-02 1.774746e-02 1.819395e-02 1.892004e-02 1.861816e-02 1.909616e-02 1.890784e-02 1.883322e-02 1.937043e-02 1.790725e-02 1.963908e-02 1.833166e-02 2.013881e-02 1.989744e-02 2.058480e-02 2.086229e-02 2.089690e-02 2.159163e-02 2.096785e-02 2.183057e-02 2.057463e-02 2.164471e-02 2.044701e-02 2.196006e-02 2.081794e-02 2.225523e-02 2.079340e-02 2.186180e-02 2.040154e-02 2.140275e-02 2.034438e-02 2.121331e-02 2.028140e-02 2.077172e-02 2.001182e-02 2.007609e-02 1.937705e-02 1.866904e-02 1.772051e-02 1.597587e-02 1.473480e-02 1.199166e-02 9.899282e-03 5.526069e-03 2.826208e-03 1.101987e-02 2.045640e-02 1.025265e-02 1.135375e-02 1.513617e-02 2.392423e-03 1.531477e-02 4.609771e-03 9.335018e-03 3.729164e-03 2.517163e-03 1.102535e-02 9.303501e-03 1.005187e-02 5.141587e-03 1.086484e-03 4.829405e-03 6.567288e-03 8.355971e-03 1.315712e-02 1.445945e-02 1.638824e-02 1.766074e-02 1.838151e-02 1.953810e-02 1.952091e-02 2.032736e-02 2.017251e-02 2.082998e-02 2.097198e-02 2.140121e-02 2.176211e-02 2.147891e-02 2.201101e-02 2.111892e-02 2.201326e-02 2.081589e-02 2.204023e-02 2.075489e-02 2.223314e-02 2.111139e-02 2.260688e-02 2.166855e-02 2.256976e-02 2.189848e-02 2.189084e-02 2.182727e-02 2.108015e-02 2.213447e-02 2.076404e-02 2.283454e-02 2.053245e-02 2.336862e-02 2.020676e-02 2.363954e-02 2.010538e-02 2.374813e-02 2.034296e-02 2.369602e-02 2.101219e-02 2.336882e-02 2.221620e-02 2.265707e-02 2.381271e-02 2.138844e-02 2.597614e-02 1.937777e-02 3.272167e-02 3.901293e-02 3.312549e-02 2.744033e-02 2.434337e-02 
3.014141e-02 3.080568e-02 3.329425e-02 3.713132e-02 4.432637e-02 4.797772e-02 4.115518e-02 4.119731e-02 4.030686e-02 3.943436e-02 3.883163e-02 3.710858e-02 3.504545e-02 3.445519e-02 3.486461e-02 3.457168e-02 3.477147e-02 3.472130e-02 3.462576e-02 3.489720e-02 3.447486e-02 3.505494e-02 3.528432e-02 3.805165e-02 3.769050e-02 3.987853e-02 3.927244e-02 4.091540e-02 4.037571e-02 4.130435e-02 4.083249e-02 4.109334e-02 4.100069e-02 4.100945e-02 4.142225e-02 4.115012e-02 4.171641e-02 4.097902e-02 4.152802e-02 4.065745e-02 4.135553e-02 4.052136e-02 4.120783e-02 4.038302e-02 4.097325e-02 4.026917e-02 4.072718e-02 4.006635e-02 4.013843e-02 3.937643e-02 3.909584e-02 3.851239e-02 3.833807e-02 3.828766e-02 3.894530e-02 4.097730e-02 4.391237e-02 2.830488e-02 3.430044e-02 3.139375e-02 3.158155e-02 3.302862e-02 2.775121e-02 3.422515e-02 3.142158e-02 3.311322e-02 3.319328e-02 2.827289e-02 3.227863e-02 2.788584e-02 3.201622e-02 3.182359e-02 3.017224e-02 3.894282e-02 3.629645e-02 3.798935e-02 3.808281e-02 3.906168e-02 3.963365e-02 4.006528e-02 4.070545e-02 4.084931e-02 4.130674e-02 4.135016e-02 4.157424e-02 4.186006e-02 4.185332e-02 4.235974e-02 4.176518e-02 4.245980e-02 4.140188e-02 4.244355e-02 4.109938e-02 4.249785e-02 4.099361e-02 4.265599e-02 4.116659e-02 4.295816e-02 4.163893e-02 4.313783e-02 4.190286e-02 4.275541e-02 4.186345e-02 4.225588e-02 4.215581e-02 4.205627e-02 4.268959e-02 4.190786e-02 4.310218e-02 4.165952e-02 4.337789e-02 4.151654e-02 4.349684e-02 4.150575e-02 4.355249e-02 4.183429e-02 4.351928e-02 4.242142e-02 4.321449e-02 4.315161e-02 4.284366e-02 4.428180e-02 4.340430e-02 4.699312e-02 4.212064e-02 3.583990e-02 3.249697e-02 3.051814e-02 
3.787161e-02 3.846731e-02 3.921497e-02 4.174866e-02 4.331522e-02 4.918873e-02 4.703250e-02 4.667033e-02 4.768835e-02 4.658399e-02 4.760913e-02 4.700517e-02 4.648901e-02 4.560565e-02 4.600968e-02 4.572695e-02 4.591539e-02 4.589019e-02 4.575999e-02 4.606421e-02 4.558097e-02 4.629335e-02 4.616738e-02 4.733581e-02 4.615261e-02 4.736979e-02 4.627909e-02 4.738665e-02 4.649517e-02 4.728025e-02 4.663594e-02 4.707075e-02 4.677617e-02 4.691409e-02 4.693261e-02 4.677181e-02 4.701588e-02 4.658626e-02 4.698825e-02 4.641906e-02 4.692800e-02 4.626054e-02 4.677516e-02 4.610502e-02 4.660104e-02 4.600191e-02 4.643569e-02 4.593423e-02 4.625791e-02 4.594056e-02 4.628943e-02 4.643324e-02 4.717994e-02 4.835232e-02 5.027682e-02 5.402852e-02 5.990880e-02 6.563963e-02 5.552093e-02 5.687145e-02 5.758279e-02 5.069777e-02 5.880111e-02 4.873732e-02 5.557373e-02 5.165420e-02 4.927011e-02 5.634040e-02 4.722722e-02 5.756134e-02 5.204574e-02 5.363265e-02 5.974185e-02 5.252116e-02 5.132452e-02 4.819554e-02 4.821463e-02 4.703107e-02 4.727536e-02 4.677789e-02 4.709143e-02 4.692791e-02 4.718300e-02 4.717684e-02 4.724789e-02 4.742744e-02 4.728728e-02 4.766483e-02 4.722552e-02 4.780426e-02 4.710498e-02 4.789351e-02 4.699856e-02 4.798311e-02 4.696919e-02 4.807128e-02 4.703017e-02 4.815882e-02 4.722052e-02 4.821317e-02 4.741079e-02 4.808567e-02 4.753961e-02 4.790299e-02 4.774490e-02 4.774852e-02 4.799524e-02 4.761077e-02 4.821705e-02 4.748326e-02 4.838345e-02 4.740109e-02 4.844000e-02 4.736539e-02 4.841146e-02 4.744401e-02 4.828930e-02 4.754263e-02 4.800112e-02 4.757237e-02 4.776413e-02 4.754045e-02 4.830943e-02 4.622148e-02 4.309021e-02 4.068608e-02 3.906762e-02 3.821015e-02 
3.806300e-02 3.868987e-02 3.901102e-02 4.073874e-02 4.148778e-02 4.402972e-02 4.412434e-02 4.529403e-02 4.597112e-02 4.658947e-02 4.822200e-02 4.931817e-02 5.238102e-02 5.202816e-02 5.221157e-02 5.205284e-02 5.213973e-02 5.211647e-02 5.207742e-02 5.219801e-02 5.204767e-02 5.229377e-02 5.033569e-02 4.931768e-02 4.737684e-02 4.727706e-02 4.588827e-02 4.619607e-02 4.522012e-02 4.557734e-02 4.495517e-02 4.517950e-02 4.490067e-02 4.493909e-02 4.497025e-02 4.480029e-02 4.505778e-02 4.468676e-02 4.509275e-02 4.459572e-02 4.510014e-02 4.455599e-02 4.509286e-02 4.456976e-02 4.508485e-02 4.464966e-02 4.510219e-02 4.480434e-02 4.516546e-02 4.506588e-02 4.537499e-02 4.559489e-02 4.596510e-02 4.667049e-02 4.727531e-02 4.887301e-02 5.054303e-02 5.433379e-02 5.160052e-02 5.228004e-02 5.318616e-02 5.016756e-02 5.385027e-02 5.051786e-02 5.274982e-02 5.317760e-02 5.149617e-02 5.390470e-02 4.968220e-02 5.282185e-02 5.053045e-02 5.091230e-02 5.250471e-02 4.839604e-02 4.821842e-02 4.648357e-02 4.663324e-02 4.576208e-02 4.594756e-02 4.548123e-02 4.566295e-02 4.545159e-02 4.554482e-02 4.554146e-02 4.546974e-02 4.569035e-02 4.539879e-02 4.584628e-02 4.528307e-02 4.595283e-02 4.513767e-02 4.602297e-02 4.501922e-02 4.608183e-02 4.497647e-02 4.613778e-02 4.503267e-02 4.617773e-02 4.517336e-02 4.614997e-02 4.532853e-02 4.600778e-02 4.547933e-02 4.581003e-02 4.567575e-02 4.562290e-02 4.589986e-02 4.545284e-02 4.609321e-02 4.530214e-02 4.621596e-02 4.519517e-02 4.623316e-02 4.513751e-02 4.612083e-02 4.511959e-02 4.583660e-02 4.506178e-02 4.532440e-02 4.484044e-02 4.458732e-02 4.431704e-02 4.365536e-02 4.285945e-02 4.125544e-02 4.010374e-02 3.892609e-02 3.849402e-02 
4.121030e-02 4.183122e-02 4.196143e-02 4.360066e-02 4.399318e-02 4.625588e-02 4.648833e-02 4.738492e-02 4.835485e-02 4.859402e-02 5.044197e-02 5.120378e-02 5.470414e-02 5.441636e-02 5.463499e-02 5.446050e-02 5.454884e-02 5.454906e-02 5.445776e-02 5.464770e-02 5.439837e-02 5.471992e-02 5.278569e-02 5.183412e-02 4.997543e-02 4.995680e-02 4.855171e-02 4.892568e-02 4.788985e-02 4.833179e-02 4.764269e-02 4.797264e-02 4.761020e-02 4.774875e-02 4.767734e-02 4.760810e-02 4.777553e-02 4.752344e-02 4.786665e-02 4.748619e-02 4.794161e-02 4.750048e-02 4.801102e-02 4.758728e-02 4.811137e-02 4.777892e-02 4.828689e-02 4.811259e-02 4.859517e-02 4.865103e-02 4.913428e-02 4.950696e-02 5.003557e-02 5.079909e-02 5.136856e-02 5.251743e-02 5.298805e-02 5.431373e-02 5.358966e-02 5.352437e-02 5.394458e-02 5.237625e-02 5.386945e-02 5.190128e-02 5.287471e-02 5.232220e-02 5.169339e-02 5.296933e-02 5.125770e-02 5.308268e-02 5.191061e-02 5.220069e-02 5.244252e-02 5.120402e-02 5.142524e-02 5.020541e-02 5.038285e-02 4.940045e-02 4.955657e-02 4.887289e-02 4.900540e-02 4.860417e-02 4.866075e-02 4.851149e-02 4.843029e-02 4.851786e-02 4.825594e-02 4.857055e-02 4.810757e-02 4.863384e-02 4.798194e-02 4.868902e-02 4.788868e-02 4.872941e-02 4.784575e-02 4.875246e-02 4.786504e-02 4.875049e-02 4.794263e-02 4.870554e-02 4.805407e-02 4.860385e-02 4.818471e-02 4.846482e-02 4.833465e-02 4.831354e-02 4.848950e-02 4.816991e-02 4.862733e-02 4.804928e-02 4.872119e-02 4.795834e-02 4.873916e-02 4.788841e-02 4.865294e-02 4.780868e-02 4.842410e-02 4.763954e-02 4.800388e-02 4.726271e-02 4.734125e-02 4.651109e-02 4.626930e-02 4.501402e-02 4.392811e-02 4.282954e-02 4.194399e-02 4.158215e-02 
3.808203e-02 3.870550e-02 3.902749e-02 4.075421e-02 4.150455e-02 4.404630e-02 4.414099e-02 4.530448e-02 4.597394e-02 4.657883e-02 4.820878e-02 4.929884e-02 5.237552e-02 5.202593e-02 5.220681e-02 5.204916e-02 5.213290e-02 5.210907e-02 5.206622e-02 5.218535e-02 5.203102e-02 5.228376e-02 5.032820e-02 4.932073e-02 4.737080e-02 4.727762e-02 4.586497e-02 4.617615e-02 4.518046e-02 4.556640e-02 4.495593e-02 4.522555e-02 4.495974e-02 4.502291e-02 4.506461e-02 4.492044e-02 4.521744e-02 4.489503e-02 4.536171e-02 4.491025e-02 4.546781e-02 4.497193e-02 4.556143e-02 4.511014e-02 4.567883e-02 4.534849e-02 4.586043e-02 4.571649e-02 4.615056e-02 4.623016e-02 4.657432e-02 4.689851e-02 4.717126e-02 4.776211e-02 4.800219e-02 4.885180e-02 4.905220e-02 5.002945e-02 4.994447e-02 5.038975e-02 5.066686e-02 5.049664e-02 5.109000e-02 5.080182e-02 5.109070e-02 5.123048e-02 5.084206e-02 5.127971e-02 5.048577e-02 5.083565e-02 5.028423e-02 4.998337e-02 4.992332e-02 4.888285e-02 4.888998e-02 4.781972e-02 4.790607e-02 4.701293e-02 4.714793e-02 4.648793e-02 4.659699e-02 4.618988e-02 4.620466e-02 4.607583e-02 4.592488e-02 4.607274e-02 4.569157e-02 4.611530e-02 4.549125e-02 4.618558e-02 4.533165e-02 4.624484e-02 4.520097e-02 4.626933e-02 4.512952e-02 4.627869e-02 4.515174e-02 4.626403e-02 4.523925e-02 4.617762e-02 4.536112e-02 4.602779e-02 4.552486e-02 4.583924e-02 4.570710e-02 4.561899e-02 4.587820e-02 4.540502e-02 4.603390e-02 4.524010e-02 4.614775e-02 4.514042e-02 4.617882e-02 4.510453e-02 4.608640e-02 4.510353e-02 4.582064e-02 4.506420e-02 4.534185e-02 4.487504e-02 4.463907e-02 4.436948e-02 4.371171e-02 4.289816e-02 4.129406e-02 4.013059e-02 3.895224e-02 3.851319e-02 
3.790289e-02 3.849336e-02 3.924233e-02 4.177489e-02 4.334301e-02 4.921921e-02 4.705946e-02 4.668691e-02 4.768151e-02 4.655175e-02 4.757142e-02 4.696028e-02 4.648028e-02 4.560479e-02 4.600809e-02 4.572226e-02 4.590784e-02 4.587350e-02 4.573477e-02 4.603385e-02 4.553765e-02 4.626871e-02 4.613910e-02 4.733834e-02 4.614243e-02 4.739443e-02 4.626043e-02 4.738211e-02 4.645020e-02 4.730680e-02 4.669084e-02 4.722410e-02 4.693909e-02 4.713586e-02 4.717818e-02 4.709968e-02 4.743621e-02 4.714717e-02 4.767994e-02 4.722322e-02 4.784684e-02 4.732597e-02 4.799220e-02 4.752554e-02 4.819223e-02 4.786348e-02 4.848088e-02 4.834323e-02 4.887667e-02 4.893805e-02 4.935820e-02 4.960671e-02 4.991231e-02 5.030467e-02 5.051929e-02 5.098223e-02 5.109290e-02 5.146568e-02 5.149019e-02 5.160731e-02 5.162412e-02 5.157741e-02 5.163161e-02 5.152155e-02 5.146553e-02 5.145996e-02 5.129284e-02 5.137321e-02 5.123526e-02 5.129214e-02 5.126741e-02 5.103017e-02 5.109075e-02 5.048753e-02 5.061472e-02 4.980655e-02 5.000422e-02 4.920178e-02 4.944483e-02 4.876120e-02 4.896085e-02 4.846758e-02 4.856533e-02 4.833533e-02 4.826424e-02 4.830069e-02 4.799079e-02 4.830770e-02 4.776499e-02 4.836846e-02 4.759462e-02 4.841574e-02 4.744199e-02 4.841586e-02 4.733812e-02 4.840458e-02 4.733221e-02 4.838513e-02 4.739568e-02 4.829511e-02 4.749026e-02 4.814143e-02 4.762613e-02 4.794500e-02 4.778082e-02 4.771603e-02 4.793100e-02 4.750370e-02 4.809536e-02 4.736091e-02 4.824698e-02 4.729528e-02 4.834454e-02 4.732064e-02 4.836726e-02 4.742926e-02 4.827263e-02 4.756135e-02 4.806186e-02 4.765962e-02 4.788248e-02 4.764925e-02 4.841949e-02 4.628781e-02 4.315492e-02 4.073067e-02 3.911054e-02 3.824204e-02 
3.017550e-02 3.083479e-02 3.332950e-02 3.717069e-02 4.437881e-02 4.804950e-02 4.126638e-02 4.128540e-02 4.032713e-02 3.935664e-02 3.871052e-02 3.697782e-02 3.501713e-02 3.445891e-02 3.485301e-02 3.456836e-02 3.475811e-02 3.470409e-02 3.459432e-02 3.484673e-02 3.439940e-02 3.497083e-02 3.525274e-02 3.808452e-02 3.774120e-02 3.994833e-02 3.918929e-02 4.073461e-02 4.002588e-02 4.107372e-02 4.074702e-02 4.129866e-02 4.127471e-02 4.127530e-02 4.159222e-02 4.130371e-02 4.201260e-02 4.151353e-02 4.235890e-02 4.161514e-02 4.245309e-02 4.167615e-02 4.250621e-02 4.185797e-02 4.258041e-02 4.213313e-02 4.274368e-02 4.265260e-02 4.317191e-02 4.340480e-02 4.368342e-02 4.408205e-02 4.409657e-02 4.469624e-02 4.467478e-02 4.552371e-02 4.547598e-02 4.630024e-02 4.616928e-02 4.678774e-02 4.655222e-02 4.708365e-02 4.686836e-02 4.728087e-02 4.699799e-02 4.719076e-02 4.684355e-02 4.675921e-02 4.662498e-02 4.640440e-02 4.652138e-02 4.599605e-02 4.610711e-02 4.514713e-02 4.526367e-02 4.409836e-02 4.444337e-02 4.346477e-02 4.398248e-02 4.311673e-02 4.346274e-02 4.277175e-02 4.299200e-02 4.274953e-02 4.276539e-02 4.285781e-02 4.241627e-02 4.285584e-02 4.208823e-02 4.303863e-02 4.195741e-02 4.318215e-02 4.169079e-02 4.308962e-02 4.145703e-02 4.308743e-02 4.157599e-02 4.320647e-02 4.174933e-02 4.301153e-02 4.182292e-02 4.274284e-02 4.212472e-02 4.253269e-02 4.244203e-02 4.211184e-02 4.259533e-02 4.166185e-02 4.282789e-02 4.139864e-02 4.310160e-02 4.130540e-02 4.331361e-02 4.141708e-02 4.344434e-02 4.177185e-02 4.340725e-02 4.236374e-02 4.324258e-02 4.329483e-02 4.310358e-02 4.456588e-02 4.366521e-02 4.712868e-02 4.222415e-02 3.590600e-02 3.255063e-02 3.055469e-02 
2.463447e-02 2.411783e-02 3.004800e-02 3.248663e-02 4.192934e-02 2.077890e-02 2.153731e-02 2.351958e-02 1.806850e-02 2.209696e-02 1.786102e-02 1.952911e-02 1.765419e-02 1.815835e-02 1.892374e-02 1.860882e-02 1.908596e-02 1.884502e-02 1.873955e-02 1.923956e-02 1.774197e-02 1.958432e-02 1.828988e-02 2.023393e-02 1.996437e-02 2.064204e-02 2.069887e-02 2.055987e-02 2.106697e-02 2.055461e-02 2.158909e-02 2.074916e-02 2.201609e-02 2.075935e-02 2.219064e-02 2.091101e-02 2.251255e-02 2.125300e-02 2.270635e-02 2.144449e-02 2.266840e-02 2.164924e-02 2.263422e-02 2.194318e-02 2.253957e-02 2.219394e-02 2.252281e-02 2.274621e-02 2.294039e-02 2.368209e-02 2.351373e-02 2.448018e-02 2.390468e-02 2.515191e-02 2.453257e-02 2.610755e-02 2.548177e-02 2.695026e-02 2.610970e-02 2.704801e-02 2.639397e-02 2.674706e-02 2.640055e-02 2.647294e-02 2.616936e-02 2.614130e-02 2.552410e-02 2.564695e-02 2.498205e-02 2.520587e-02 2.494219e-02 2.471156e-02 2.486813e-02 2.391198e-02 2.426213e-02 2.298625e-02 2.370907e-02 2.262399e-02 2.359072e-02 2.251224e-02 2.320384e-02 2.222670e-02 2.276194e-02 2.226482e-02 2.257044e-02 2.243399e-02 2.214338e-02 2.237880e-02 2.170541e-02 2.252542e-02 2.153721e-02 2.266214e-02 2.119710e-02 2.248391e-02 2.095949e-02 2.247245e-02 2.126798e-02 2.263471e-02 2.163050e-02 2.232113e-02 2.184353e-02 2.198143e-02 2.242451e-02 2.178332e-02 2.301410e-02 2.121400e-02 2.322952e-02 2.055419e-02 2.340597e-02 2.012944e-02 2.357324e-02 1.998211e-02 2.361545e-02 2.016962e-02 2.347390e-02 2.076605e-02 2.305748e-02 2.187034e-02 2.241663e-02 2.364536e-02 2.146776e-02 2.612979e-02 1.955142e-02 3.289413e-02 3.913381e-02 3.321777e-02 2.748912e-02 2.437620e-02 
5.659182e-03 7.513930e-03 1.032940e-02 1.894376e-02 1.039634e-02 2.448311e-02 1.550457e-02 1.163684e-02 1.693371e-02 1.086931e-02 1.734027e-02 1.114738e-02 1.765525e-02 1.331836e-02 1.909960e-02 1.569313e-02 1.874132e-02 1.684875e-02 1.761531e-02 1.733406e-02 1.511539e-02 1.612430e-02 1.264194e-02 1.521717e-02 1.235027e-02 1.494044e-02 1.241404e-02 1.468705e-02 1.246806e-02 1.448517e-02 1.263839e-02 1.428129e-02 1.284573e-02 1.399048e-02 1.302798e-02 1.383104e-02 1.334466e-02 1.377758e-02 1.366845e-02 1.369630e-02 1.383234e-02 1.358646e-02 1.395673e-02 1.359137e-02 1.414902e-02 1.372658e-02 1.440791e-02 1.394452e-02 1.471722e-02 1.419571e-02 1.487787e-02 1.439362e-02 1.498126e-02 1.450217e-02 1.510740e-02 1.464757e-02 1.517964e-02 1.465539e-02 1.517404e-02 1.466374e-02 1.499001e-02 1.473825e-02 1.495231e-02 1.482900e-02 1.498954e-02 1.482895e-02 1.511571e-02 1.480057e-02 1.531870e-02 1.511373e-02 1.558038e-02 1.537828e-02 1.558899e-02 1.529716e-02 1.539645e-02 1.496462e-02 1.500248e-02 1.466967e-02 1.475987e-02 1.448151e-02 1.449455e-02 1.431243e-02 1.431929e-02 1.428297e-02 1.426949e-02 1.434966e-02 1.412533e-02 1.437992e-02 1.407642e-02 1.448983e-02 1.405401e-02 1.459514e-02 1.391649e-02 1.456091e-02 1.375081e-02 1.457189e-02 1.367289e-02 1.465421e-02 1.361413e-02 1.460458e-02 1.348895e-02 1.458618e-02 1.337720e-02 1.450432e-02 1.339699e-02 1.433288e-02 1.339816e-02 1.426788e-02 1.345510e-02 1.428495e-02 1.365032e-02 1.429262e-02 1.394654e-02 1.431562e-02 1.438127e-02 1.438523e-02 1.488811e-02 1.443081e-02 1.550141e-02 1.445466e-02 1.629507e-02 1.435026e-02 1.750033e-02 1.086231e-02 2.348495e-02 1.695822e-02 1.078535e-02 6.126298e-03 
4.146506e-03 4.242112e-03 1.034567e-03 3.839500e-03 1.125829e-02 1.490984e-02 1.187309e-02 6.367397e-03 3.535285e-03 3.736159e-03 1.727034e-03 8.960934e-04 4.313948e-03 8.007674e-03 9.306312e-03 1.055040e-02 9.485308e-03 1.075013e-02 9.206423e-03 8.908855e-03 7.773826e-03 3.154632e-03 2.182708e-03 3.680390e-03 2.799984e-03 5.586735e-03 4.381108e-03 6.015399e-03 5.144544e-03 6.096299e-03 5.883495e-03 6.185607e-03 6.439119e-03 6.010023e-03 6.743050e-03 5.976101e-03 7.199094e-03 6.171473e-03 7.509529e-03 6.231740e-03 7.506296e-03 6.275612e-03 7.460580e-03 6.469497e-03 7.374688e-03 6.692913e-03 7.364890e-03 7.220260e-03 7.783091e-03 8.205658e-03 8.436237e-03 9.275000e-03 9.169045e-03 1.053359e-02 1.049908e-02 1.249660e-02 1.249496e-02 1.458897e-02 1.401136e-02 1.532925e-02 1.535684e-02 1.522289e-02 1.590256e-02 1.526100e-02 1.590299e-02 1.522155e-02 1.449212e-02 1.451520e-02 1.265654e-02 1.283107e-02 1.151964e-02 1.101731e-02 1.102330e-02 9.459570e-03 9.856501e-03 8.122356e-03 8.980156e-03 7.613010e-03 8.705996e-03 7.467737e-03 8.257994e-03 7.244862e-03 7.839582e-03 7.411943e-03 7.703316e-03 7.734942e-03 7.322808e-03 7.852116e-03 6.946783e-03 8.166102e-03 6.809470e-03 8.426052e-03 6.458276e-03 8.330503e-03 6.184917e-03 8.385630e-03 6.433317e-03 8.583164e-03 6.751791e-03 8.273266e-03 6.910211e-03 7.914805e-03 7.407554e-03 7.618058e-03 7.979470e-03 6.959268e-03 8.255067e-03 6.281750e-03 8.538430e-03 5.871749e-03 8.844233e-03 5.733588e-03 9.050591e-03 5.930355e-03 9.098668e-03 6.523760e-03 8.863947e-03 7.497158e-03 8.376391e-03 8.949794e-03 7.741812e-03 1.081249e-02 8.889413e-03 1.641439e-02 8.091554e-03 3.511459e-03 4.410242e-03 4.150358e-03 
6.380103e-04 1.107911e-03 1.103612e-03 9.187019e-04 4.333146e-03 6.246083e-03 6.415526e-03 1.597257e-03 5.281253e-03 4.773952e-03 7.586568e-03 1.054664e-02 1.281943e-02 1.254199e-02 9.504660e-03 4.077988e-03 5.592251e-03 4.113192e-03 6.483355e-03 7.284258e-03 1.248610e-02 1.315636e-02 9.476661e-03 6.950400e-03 4.343975e-03 3.190106e-03 2.196118e-03 1.915800e-03 1.255890e-03 1.622524e-03 6.828207e-04 1.558416e-03 3.246576e-04 1.557482e-03 8.422136e-05 1.460393e-03 1.783945e-04 1.264999e-03 2.839074e-04 1.132170e-03 2.760136e-04 9.689440e-04 2.971653e-04 7.982994e-04 3.555720e-04 7.118586e-04 4.876144e-04 8.706520e-04 9.559594e-04 1.806911e-03 1.962321e-03 3.312025e-03 3.406937e-03 5.235151e-03 5.272198e-03 7.471225e-03 7.185718e-03 9.168722e-03 7.470475e-03 8.777346e-03 8.380017e-03 6.961045e-03 8.161499e-03 6.119755e-03 7.370318e-03 6.689985e-03 5.247598e-03 7.338866e-03 4.815157e-03 5.975335e-03 4.778667e-03 3.501491e-03 3.935176e-03 2.508715e-03 2.755263e-03 1.440551e-03 2.014195e-03 9.211907e-04 1.650800e-03 5.382584e-04 1.257951e-03 2.698799e-04 9.315864e-04 1.683739e-04 7.136233e-04 3.371130e-04 4.646386e-04 4.977166e-04 4.698303e-04 6.900749e-04 5.671419e-04 8.505545e-04 7.440533e-04 8.529024e-04 8.593221e-04 9.305923e-04 6.439844e-04 1.010757e-03 3.905354e-04 8.086279e-04 2.951781e-04 6.422291e-04 5.461799e-04 5.408692e-04 1.071543e-03 7.195385e-04 1.429970e-03 1.211692e-03 1.674647e-03 1.599998e-03 1.825703e-03 1.768339e-03 1.824614e-03 1.698299e-03 1.593391e-03 1.435320e-03 1.114797e-03 1.135434e-03 8.459810e-04 1.242369e-03 1.817331e-03 1.862005e-03 4.139976e-03 6.291700e-03 2.521250e-03 1.925429e-03 1.546463e-03 4.049249e-05 
