# vtk DataFile Version 2.0
Comment goes here
ASCII

DATASET STRUCTURED_POINTS
FIELD FieldData 1
TIME 1 1 double
0.01000000
DIMENSIONS    128   16   1

ORIGIN    0.000   0.000   0.000
SPACING   0.0078125 0.015625   1.000

POINT_DATA   2048
SCALARS uX double
LOOKUP_TABLE default

2.619850e-03 1.594305e-03 2.448419e-03 6.718123e-04 1.976490e-03 -8.150933e-05 3.451934e-03 1.004135e-03 1.270099e-03 -1.413356e-03 -2.203242e-03 -6.755687e-03 -1.026261e-02 -1.830677e-02 -2.082556e-02 -2.422218e-02 -2.507031e-02 -2.567644e-02 -2.563623e-02 -2.305495e-02 -2.153620e-02 -1.289519e-02 -9.900300e-03 -3.790513e-03 -3.849885e-03 1.182296e-03 -1.347763e-04 3.506498e-03 2.210469e-03 4.246253e-03 2.955622e-03 3.898656e-03 3.293503e-03 4.180629e-03 4.450647e-03 5.399766e-03 5.904258e-03 6.596428e-03 5.978586e-03 4.265773e-03 3.438753e-03 3.228143e-03 2.893354e-03 3.598029e-03 5.756138e-03 5.521621e-03 6.033602e-03 3.855516e-03 6.205800e-03 5.885337e-03 3.903390e-03 1.995843e-03 -5.529372e-03 -8.253410e-04 -1.007736e-02 -1.943003e-02 -2.739615e-02 -5.925833e-02 -5.069457e-02 -1.558476e-02 -2.336506e-02 -7.586446e-03 -5.500097e-03 -9.256998e-06 1.211915e-02 4.843105e-03 1.336191e-02 4.011599e-03 2.595724e-02 3.415995e-02 4.072970e-02 7.398403e-02 5.349849e-02 2.934137e-02 2.588018e-02 9.486003e-03 8.703727e-03 5.157730e-03 7.777736e-04 2.362123e-04 -7.759129e-04 7.361877e-04 -1.316626e-03 -2.670606e-03 -1.497556e-03 -2.598828e-04 8.013327e-04 1.738896e-03 1.442107e-03 -3.190008e-04 -1.768023e-03 -2.171765e-03 -1.975529e-03 -1.701761e-03 -1.016350e-03 -4.654007e-04 -1.709980e-04 -3.951181e-04 -6.490600e-04 -1.020238e-03 -1.069697e-03 -1.014233e-03 -5.501623e-04 -7.804070e-05 6.185741e-04 1.079826e-03 1.543974e-03 1.617722e-03 1.719919e-03 1.402363e-03 1.120387e-03 5.945536e-04 2.745261e-04 -3.654119e-04 -6.375122e-04 -9.975173e-04 -9.328789e-04 -1.328366e-03 -8.613259e-04 -5.329775e-04 -8.812197e-04 9.853928e-04 5.092976e-04 -4.283249e-04 5.993643e-04 5.419682e-04 1.888717e-03 1.561561e-03 
5.948142e-04 -2.019210e-05 2.695984e-04 -1.037659e-03 -8.322165e-04 -2.542847e-03 1.449823e-03 4.456048e-04 -5.410966e-04 -4.889753e-04 -2.183987e-03 -1.720258e-03 -4.522911e-03 -2.799649e-03 -1.148886e-03 -2.536770e-03 -1.526561e-03 -1.905874e-03 -3.347854e-03 -2.639164e-03 -5.230845e-03 -7.135498e-03 -4.583480e-03 -3.546674e-03 -2.799993e-03 -8.739299e-05 -3.600926e-04 2.160861e-03 1.731329e-03 2.596930e-03 1.400988e-03 9.102532e-04 3.178203e-04 8.652876e-04 1.928367e-03 2.776909e-03 4.800729e-03 8.002975e-03 6.371659e-03 -1.196844e-04 -4.015661e-04 1.358454e-03 -2.299556e-03 -1.538270e-03 3.932275e-03 4.411685e-03 3.381928e-03 -1.370009e-03 7.843818e-03 4.781547e-03 2.295187e-03 -1.322989e-03 -1.590727e-02 3.427544e-03 -9.513570e-03 -1.340041e-02 -8.688214e-03 -4.494764e-02 -3.312849e-02 -1.171203e-02 -2.885326e-02 -8.327875e-03 -8.648884e-03 -1.316929e-02 3.905475e-03 4.626362e-03 1.443581e-02 9.787018e-03 3.111748e-02 2.840631e-02 1.142485e-02 5.229675e-02 3.864153e-02 1.433436e-02 2.865786e-02 3.479842e-03 7.583086e-03 7.011483e-03 -3.921809e-03 -8.053065e-04 -1.698954e-03 3.676614e-03 -3.107565e-03 -8.796922e-03 -2.490595e-03 4.748213e-04 4.022541e-04 3.717872e-03 3.673460e-03 -2.349347e-03 -6.595020e-03 -5.535367e-03 -4.130171e-03 -3.988513e-03 -2.720748e-03 -9.418187e-04 -4.271454e-04 -1.260199e-03 -2.302387e-03 -3.222100e-03 -3.640386e-03 -3.597879e-03 -2.920396e-03 -2.028370e-03 -9.371508e-04 -1.302083e-04 4.037164e-04 4.516919e-04 4.391448e-04 -8.210442e-05 -6.904299e-04 -1.220327e-03 -1.469503e-03 -2.061881e-03 -2.294892e-03 -2.108113e-03 -1.741618e-03 -2.107924e-03 -1.194303e-03 -1.121344e-03 -1.833905e-03 4.036476e-04 -1.979309e-03 -3.386780e-03 -1.627234e-03 -1.458048e-03 -1.205880e-04 -1.591735e-04 
4.037350e-03 3.261269e-03 2.943779e-03 3.895965e-04 -1.655374e-03 -6.662487e-03 -3.252375e-03 -4.620181e-03 -2.440794e-03 -3.160717e-03 -3.208362e-05 -5.052443e-04 6.217180e-03 6.237408e-03 1.070075e-02 1.014771e-02 1.197166e-02 1.194548e-02 1.128531e-02 1.147013e-02 6.982330e-03 7.306142e-03 -2.989984e-04 2.036903e-03 -3.582753e-03 -9.470855e-04 -5.087475e-03 -2.680037e-03 -5.021313e-03 -3.496221e-03 -4.504896e-03 -4.274516e-03 -4.492650e-03 -3.861090e-03 -4.044483e-03 -6.592641e-03 -6.136113e-03 2.428460e-06 -2.539868e-03 -1.273364e-02 -4.862458e-03 6.586734e-03 -2.877912e-03 -6.694212e-03 -1.052428e-03 -1.017121e-03 -3.887177e-04 -4.581558e-03 1.660206e-02 1.254136e-03 2.167822e-03 1.577461e-02 4.777856e-03 3.801086e-02 3.176085e-02 6.450456e-02 7.990127e-02 1.166930e-01 1.231227e-01 3.833918e-02 7.139856e-02 2.365715e-02 3.184597e-02 9.438698e-03 -2.649222e-02 -1.316335e-03 -5.763836e-02 -2.085022e-02 -8.787494e-02 -8.211415e-02 -1.041338e-01 -1.636598e-01 -1.109179e-01 -9.868774e-02 -5.109921e-02 -5.398191e-02 -3.552328e-02 -2.743006e-02 -3.151526e-02 -1.293578e-02 -1.479135e-02 -3.636216e-03 -1.370014e-02 -2.223632e-02 -5.746746e-03 -5.389059e-03 -1.327714e-02 -6.698086e-03 -1.575529e-03 -8.482707e-03 -1.147428e-02 -4.852393e-03 -2.225819e-03 -6.188904e-03 -7.810708e-03 -6.444378e-03 -5.983200e-03 -6.791446e-03 -7.111098e-03 -7.179982e-03 -7.225900e-03 -7.547319e-03 -7.772474e-03 -8.175095e-03 -8.354259e-03 -8.633342e-03 -8.871662e-03 -9.165709e-03 -8.904400e-03 -9.132427e-03 -9.443965e-03 -9.332165e-03 -8.881893e-03 -9.481964e-03 -9.906569e-03 -9.522328e-03 -9.061972e-03 -1.040549e-02 -9.002611e-03 -1.052737e-02 -1.026767e-02 -8.312879e-03 -1.196237e-02 -8.771269e-03 -2.998749e-03 -4.498203e-04 2.300946e-03 2.999992e-03 
4.313799e-03 4.279557e-03 3.187679e-03 1.612104e-03 -1.771374e-03 -5.670071e-03 -1.052815e-02 -1.100164e-02 -8.629199e-03 -9.917517e-03 -7.645848e-03 -9.373433e-03 -5.964442e-03 -8.731675e-03 -9.517180e-03 -8.931395e-03 -9.640072e-03 -9.267493e-03 -8.013471e-03 -7.806229e-03 -5.994712e-03 -2.353345e-03 -5.826276e-03 -4.338340e-03 -7.989830e-03 -9.339972e-03 -1.211120e-02 -1.339881e-02 -1.475503e-02 -1.388565e-02 -1.227710e-02 -1.046689e-02 -9.202270e-03 -9.562881e-03 -1.181181e-02 -1.667466e-02 -2.025755e-02 -2.026321e-02 -1.934927e-02 -1.775021e-02 -7.570742e-03 1.426873e-03 -1.332375e-03 -8.394258e-03 -1.262227e-02 -1.634909e-02 -1.236186e-02 -1.178153e-02 -6.359187e-03 -2.295305e-02 -2.004731e-02 -4.091226e-03 3.852783e-03 -1.164087e-02 -1.102626e-02 -2.296249e-04 -2.644152e-02 9.693033e-03 3.662943e-04 -1.684922e-02 1.926767e-02 -1.461476e-02 -8.453677e-03 5.691639e-03 -1.333042e-02 -1.567138e-02 -2.463654e-02 -1.217339e-02 -4.098523e-02 -3.131945e-02 2.130874e-03 -4.363240e-02 -2.104388e-02 -1.683594e-02 -3.344856e-02 -1.373951e-02 -2.047972e-02 -2.176945e-02 -1.426980e-02 -3.327990e-03 -9.915690e-03 -9.384625e-03 -1.015260e-02 -9.058195e-03 -4.791652e-03 -1.100773e-02 -2.030912e-02 -1.968420e-02 -1.388533e-02 -9.028228e-03 -3.573798e-03 1.798304e-03 1.740651e-03 -3.274254e-03 -8.027827e-03 -1.051871e-02 -1.127499e-02 -1.067807e-02 -8.959309e-03 -7.321332e-03 -6.598916e-03 -7.321172e-03 -9.156852e-03 -1.182316e-02 -1.449362e-02 -1.684126e-02 -1.837165e-02 -1.912915e-02 -1.889036e-02 -1.839439e-02 -1.762071e-02 -1.679744e-02 -1.593633e-02 -1.592445e-02 -1.609774e-02 -1.653556e-02 -1.668618e-02 -1.781989e-02 -1.766513e-02 -1.920454e-02 -1.697969e-02 -1.780039e-02 -1.635560e-02 -8.218543e-03 -3.584103e-03 4.510379e-04 2.413017e-03 3.931326e-03 
1.677297e-02 1.745964e-02 1.755274e-02 1.912271e-02 1.977061e-02 2.277206e-02 1.631800e-02 1.722217e-02 1.622754e-02 1.644701e-02 1.419570e-02 1.501065e-02 9.038520e-03 1.174722e-02 9.414524e-03 1.070054e-02 9.631375e-03 9.791770e-03 1.010802e-02 9.452523e-03 1.222313e-02 9.396028e-03 1.617645e-02 1.299931e-02 1.715376e-02 1.315326e-02 1.595136e-02 1.267040e-02 1.427140e-02 1.335926e-02 1.523687e-02 1.629577e-02 1.713610e-02 1.628508e-02 1.510003e-02 1.523870e-02 1.269694e-02 5.501482e-03 9.311365e-03 2.216212e-02 1.931887e-02 1.097846e-02 2.102366e-02 2.115375e-02 1.289838e-02 1.024328e-02 1.284545e-02 1.753343e-02 -2.146183e-03 6.368716e-03 1.030685e-02 4.289703e-03 2.689853e-02 -1.723269e-02 -3.291906e-04 -2.413637e-02 -3.885114e-02 -5.204308e-02 -7.188951e-02 8.954726e-03 -5.076014e-02 3.680798e-03 -2.421002e-02 -1.162004e-03 4.154979e-02 -5.574631e-03 8.519923e-02 2.619165e-02 1.020697e-01 5.994908e-02 6.383320e-02 1.314457e-01 9.437478e-02 9.675140e-02 3.795523e-02 6.031091e-02 3.696559e-02 3.139530e-02 4.083432e-02 2.784422e-02 2.644332e-02 1.503772e-02 2.618018e-02 3.722678e-02 2.026608e-02 1.658314e-02 2.043767e-02 1.330739e-02 1.076167e-02 2.180969e-02 2.862884e-02 2.408480e-02 2.109387e-02 2.273548e-02 2.185551e-02 1.858879e-02 1.756209e-02 1.862933e-02 2.000189e-02 2.082508e-02 2.130122e-02 2.099663e-02 2.013344e-02 1.871396e-02 1.726263e-02 1.585267e-02 1.514829e-02 1.470662e-02 1.450068e-02 1.474460e-02 1.555760e-02 1.559372e-02 1.557566e-02 1.594906e-02 1.638269e-02 1.536693e-02 1.487696e-02 1.557544e-02 1.436383e-02 1.528669e-02 1.678942e-02 1.442293e-02 2.024459e-02 2.168481e-02 1.847016e-02 1.827891e-02 1.697273e-02 1.719385e-02 
2.014389e-02 2.064908e-02 2.148591e-02 2.346617e-02 2.611193e-02 3.034221e-02 3.056938e-02 3.103625e-02 2.901931e-02 2.934683e-02 2.711367e-02 2.739024e-02 2.309577e-02 2.354311e-02 2.304213e-02 2.342576e-02 2.333968e-02 2.323675e-02 2.352013e-02 2.282296e-02 2.360364e-02 2.229262e-02 2.639558e-02 2.480290e-02 2.870519e-02 2.800966e-02 3.108284e-02 3.041083e-02 3.214311e-02 3.105930e-02 3.094122e-02 3.013722e-02 2.973589e-02 2.946613e-02 3.048651e-02 3.378909e-02 3.515480e-02 3.167805e-02 3.313988e-02 3.831947e-02 3.021307e-02 2.000867e-02 2.715653e-02 3.216194e-02 3.143366e-02 3.305294e-02 3.182492e-02 3.449514e-02 2.217842e-02 3.962625e-02 4.197859e-02 3.088423e-02 4.111874e-02 3.773001e-02 5.385577e-02 5.224884e-02 7.863075e-02 8.627859e-02 8.338797e-02 7.927584e-02 4.545216e-02 6.572750e-02 5.313129e-02 4.028689e-02 4.069007e-02 2.352532e-02 2.836276e-02 1.730253e-03 1.525607e-02 -2.230208e-03 -2.586244e-02 -1.129407e-02 -1.299821e-02 1.207636e-02 1.411819e-02 2.506549e-02 2.677516e-02 3.166139e-02 3.509373e-02 2.408381e-02 3.035077e-02 2.583746e-02 3.273408e-02 3.796781e-02 2.718314e-02 3.007936e-02 3.860742e-02 3.498219e-02 2.996041e-02 3.213798e-02 3.189306e-02 2.614429e-02 2.487026e-02 2.912800e-02 3.199338e-02 3.204790e-02 3.204420e-02 3.205044e-02 3.152305e-02 3.070848e-02 3.042382e-02 3.064296e-02 3.141044e-02 3.236289e-02 3.337219e-02 3.408554e-02 3.467738e-02 3.479334e-02 3.445206e-02 3.407892e-02 3.389823e-02 3.321481e-02 3.257873e-02 3.261014e-02 3.290254e-02 3.257717e-02 3.243052e-02 3.345310e-02 3.284281e-02 3.432523e-02 3.373101e-02 3.322863e-02 3.536641e-02 3.051851e-02 2.593037e-02 2.322082e-02 2.132599e-02 2.054790e-02 
2.559354e-02 2.607171e-02 2.632833e-02 2.772979e-02 2.868845e-02 3.105693e-02 3.243371e-02 3.356493e-02 3.235520e-02 3.360259e-02 3.260991e-02 3.384677e-02 3.306618e-02 3.392064e-02 3.324760e-02 3.375269e-02 3.353495e-02 3.342944e-02 3.378274e-02 3.297100e-02 3.390646e-02 3.232602e-02 3.317559e-02 3.143343e-02 3.332792e-02 3.242713e-02 3.432403e-02 3.355867e-02 3.494498e-02 3.374534e-02 3.394189e-02 3.268429e-02 3.276540e-02 3.244833e-02 3.350591e-02 3.465761e-02 3.609647e-02 3.603958e-02 3.579912e-02 3.479861e-02 3.171192e-02 2.876478e-02 2.947167e-02 3.156839e-02 3.271028e-02 3.426811e-02 3.172604e-02 3.210555e-02 2.976902e-02 3.531829e-02 3.456876e-02 2.856119e-02 2.714500e-02 3.285980e-02 3.288926e-02 3.540057e-02 4.150365e-02 5.366311e-02 5.460446e-02 2.560627e-02 5.429127e-02 3.305268e-02 4.772445e-02 3.982529e-02 2.374310e-02 4.674955e-02 1.096509e-02 3.450751e-02 8.499547e-03 2.918915e-02 4.165070e-02 -6.130022e-04 5.564836e-03 1.713539e-02 3.031996e-02 3.071918e-02 3.470633e-02 3.798644e-02 3.621483e-02 3.276113e-02 3.592833e-02 3.530740e-02 3.561320e-02 3.474653e-02 3.348890e-02 3.538921e-02 3.801435e-02 3.779019e-02 3.596889e-02 3.405712e-02 3.218212e-02 3.048337e-02 3.060114e-02 3.203143e-02 3.358420e-02 3.435785e-02 3.467310e-02 3.436213e-02 3.386009e-02 3.325596e-02 3.309907e-02 3.324964e-02 3.390353e-02 3.466264e-02 3.556161e-02 3.619620e-02 3.669386e-02 3.679622e-02 3.670854e-02 3.638881e-02 3.608304e-02 3.564750e-02 3.529412e-02 3.509645e-02 3.501706e-02 3.502027e-02 3.492291e-02 3.516188e-02 3.503361e-02 3.535523e-02 3.464340e-02 3.465465e-02 3.405893e-02 3.089474e-02 2.912387e-02 2.750595e-02 2.644679e-02 2.598242e-02 
2.587509e-02 2.614827e-02 2.657096e-02 2.754028e-02 2.847147e-02 2.988135e-02 3.087442e-02 3.190054e-02 3.282857e-02 3.367372e-02 3.548057e-02 3.627969e-02 3.996015e-02 4.029187e-02 4.005962e-02 4.019650e-02 4.012341e-02 4.001244e-02 4.011748e-02 3.975821e-02 4.001202e-02 3.947928e-02 3.638054e-02 3.527172e-02 3.437537e-02 3.348531e-02 3.357577e-02 3.281308e-02 3.313501e-02 3.244734e-02 3.261620e-02 3.212440e-02 3.226773e-02 3.211433e-02 3.242002e-02 3.265217e-02 3.292940e-02 3.273586e-02 3.262369e-02 3.269837e-02 3.182036e-02 3.108780e-02 3.134411e-02 3.215836e-02 3.187778e-02 3.302567e-02 3.197132e-02 3.344101e-02 3.180663e-02 3.387845e-02 3.382025e-02 3.242674e-02 3.346707e-02 3.191359e-02 3.230563e-02 2.947605e-02 2.620822e-02 2.398039e-02 2.344745e-02 2.029996e-02 3.393930e-02 2.296011e-02 2.683163e-02 2.601142e-02 2.326061e-02 3.657914e-02 2.796168e-02 4.140538e-02 3.259862e-02 3.818015e-02 4.598799e-02 3.227395e-02 2.843300e-02 2.795479e-02 2.791773e-02 2.864630e-02 2.927724e-02 2.969218e-02 3.080148e-02 2.929063e-02 3.110217e-02 3.018347e-02 3.148011e-02 3.161731e-02 3.141445e-02 3.175960e-02 3.258676e-02 3.230538e-02 3.200675e-02 3.175415e-02 3.152945e-02 3.093601e-02 3.093726e-02 3.125917e-02 3.171525e-02 3.190701e-02 3.214174e-02 3.219407e-02 3.227889e-02 3.226206e-02 3.241115e-02 3.257320e-02 3.291679e-02 3.324177e-02 3.364980e-02 3.394650e-02 3.423031e-02 3.436092e-02 3.441608e-02 3.436528e-02 3.427794e-02 3.411938e-02 3.391239e-02 3.378621e-02 3.358558e-02 3.347717e-02 3.318342e-02 3.316999e-02 3.278042e-02 3.263496e-02 3.218064e-02 3.150280e-02 3.105961e-02 2.955674e-02 2.849183e-02 2.731604e-02 2.655252e-02 2.606881e-02 
2.806105e-02 2.840612e-02 2.859171e-02 2.953659e-02 3.013752e-02 3.146843e-02 3.229831e-02 3.350217e-02 3.424531e-02 3.537306e-02 3.700290e-02 3.806588e-02 4.183262e-02 4.222364e-02 4.188827e-02 4.205486e-02 4.195222e-02 4.177952e-02 4.198332e-02 4.145663e-02 4.190667e-02 4.116581e-02 3.821260e-02 3.677644e-02 3.608688e-02 3.484982e-02 3.515464e-02 3.408298e-02 3.467681e-02 3.372996e-02 3.423740e-02 3.350186e-02 3.394566e-02 3.352146e-02 3.395357e-02 3.376764e-02 3.405653e-02 3.381088e-02 3.373989e-02 3.342955e-02 3.305189e-02 3.281027e-02 3.268714e-02 3.305832e-02 3.287489e-02 3.341255e-02 3.278380e-02 3.331700e-02 3.264419e-02 3.332526e-02 3.295738e-02 3.276404e-02 3.282295e-02 3.323906e-02 3.411567e-02 3.401201e-02 3.614329e-02 3.507534e-02 3.803741e-02 3.268345e-02 3.795373e-02 3.321170e-02 3.521591e-02 3.434140e-02 3.032061e-02 3.484181e-02 2.689060e-02 3.269147e-02 2.653267e-02 2.988056e-02 2.931490e-02 2.614420e-02 2.752454e-02 2.742501e-02 3.011990e-02 3.008321e-02 3.201665e-02 3.205720e-02 3.310344e-02 3.252881e-02 3.353760e-02 3.307652e-02 3.367203e-02 3.337136e-02 3.369719e-02 3.370875e-02 3.415754e-02 3.401388e-02 3.400111e-02 3.361976e-02 3.345863e-02 3.311357e-02 3.315645e-02 3.316655e-02 3.342518e-02 3.350164e-02 3.370606e-02 3.370689e-02 3.383226e-02 3.382479e-02 3.400870e-02 3.413148e-02 3.445602e-02 3.470993e-02 3.509767e-02 3.535546e-02 3.566080e-02 3.579801e-02 3.592118e-02 3.589206e-02 3.583344e-02 3.566880e-02 3.545632e-02 3.524079e-02 3.495108e-02 3.474107e-02 3.438247e-02 3.421443e-02 3.380498e-02 3.360362e-02 3.308959e-02 3.262023e-02 3.205554e-02 3.094164e-02 3.013647e-02 2.926018e-02 2.862705e-02 2.832056e-02 
2.611320e-02 2.639810e-02 2.683845e-02 2.781629e-02 2.877526e-02 3.019380e-02 3.121794e-02 3.221175e-02 3.310569e-02 3.386749e-02 3.565775e-02 3.639923e-02 4.012154e-02 4.041893e-02 4.013884e-02 4.024688e-02 4.009861e-02 3.997336e-02 4.001093e-02 3.967866e-02 3.988675e-02 3.940757e-02 3.658597e-02 3.546919e-02 3.462149e-02 3.357885e-02 3.360665e-02 3.273492e-02 3.304524e-02 3.236056e-02 3.259598e-02 3.216641e-02 3.233635e-02 3.213561e-02 3.223476e-02 3.211785e-02 3.213565e-02 3.203685e-02 3.196637e-02 3.199708e-02 3.188482e-02 3.204241e-02 3.201128e-02 3.239246e-02 3.219307e-02 3.262632e-02 3.219425e-02 3.257124e-02 3.204779e-02 3.219066e-02 3.185556e-02 3.135998e-02 3.127738e-02 3.033495e-02 3.028063e-02 2.890915e-02 2.888890e-02 2.736778e-02 2.826536e-02 2.675334e-02 2.901491e-02 2.756322e-02 2.872376e-02 2.935358e-02 2.888191e-02 3.194635e-02 3.022199e-02 3.357572e-02 3.196627e-02 3.359999e-02 3.351923e-02 3.259016e-02 3.203813e-02 3.134206e-02 3.116021e-02 3.070510e-02 3.087871e-02 3.045535e-02 3.089142e-02 3.031239e-02 3.087331e-02 3.040486e-02 3.090772e-02 3.068738e-02 3.105440e-02 3.101301e-02 3.142547e-02 3.142690e-02 3.169633e-02 3.165346e-02 3.179527e-02 3.167424e-02 3.176280e-02 3.171496e-02 3.185301e-02 3.186281e-02 3.202278e-02 3.206431e-02 3.223041e-02 3.229888e-02 3.249668e-02 3.263039e-02 3.289581e-02 3.311112e-02 3.342626e-02 3.366985e-02 3.396426e-02 3.416109e-02 3.432486e-02 3.439278e-02 3.440696e-02 3.430429e-02 3.409374e-02 3.390010e-02 3.357868e-02 3.331564e-02 3.285982e-02 3.270488e-02 3.221825e-02 3.203807e-02 3.162399e-02 3.105759e-02 3.079862e-02 2.946206e-02 2.852108e-02 2.743640e-02 2.673080e-02 2.628311e-02 
2.614151e-02 2.656017e-02 2.679377e-02 2.813701e-02 2.912579e-02 3.146042e-02 3.297319e-02 3.404492e-02 3.287094e-02 3.382822e-02 3.296178e-02 3.383208e-02 3.357922e-02 3.400962e-02 3.331865e-02 3.363766e-02 3.335533e-02 3.317436e-02 3.346941e-02 3.265045e-02 3.355399e-02 3.204878e-02 3.383990e-02 3.206134e-02 3.404626e-02 3.260762e-02 3.414340e-02 3.292784e-02 3.423077e-02 3.319038e-02 3.391800e-02 3.330471e-02 3.390303e-02 3.366288e-02 3.399432e-02 3.366203e-02 3.366800e-02 3.325488e-02 3.314241e-02 3.299016e-02 3.307657e-02 3.336166e-02 3.366422e-02 3.409257e-02 3.412530e-02 3.433263e-02 3.401471e-02 3.408933e-02 3.367544e-02 3.357766e-02 3.312498e-02 3.281619e-02 3.276316e-02 3.238462e-02 3.242360e-02 3.152407e-02 3.198918e-02 3.069765e-02 3.176465e-02 3.089160e-02 3.206977e-02 3.147313e-02 3.196559e-02 3.227370e-02 3.162499e-02 3.304054e-02 3.150554e-02 3.316981e-02 3.198770e-02 3.324710e-02 3.280798e-02 3.319928e-02 3.295733e-02 3.243956e-02 3.269007e-02 3.211208e-02 3.254224e-02 3.209062e-02 3.255774e-02 3.196279e-02 3.232336e-02 3.182667e-02 3.213428e-02 3.179495e-02 3.213939e-02 3.213403e-02 3.274225e-02 3.300512e-02 3.354552e-02 3.359819e-02 3.374272e-02 3.347789e-02 3.340051e-02 3.314618e-02 3.319013e-02 3.313646e-02 3.332842e-02 3.337121e-02 3.357362e-02 3.360892e-02 3.380579e-02 3.389782e-02 3.420310e-02 3.446104e-02 3.491995e-02 3.529853e-02 3.581024e-02 3.616476e-02 3.649680e-02 3.663478e-02 3.671136e-02 3.647899e-02 3.610093e-02 3.564191e-02 3.510842e-02 3.453957e-02 3.384818e-02 3.357394e-02 3.309641e-02 3.331470e-02 3.277968e-02 3.331053e-02 3.354903e-02 3.099209e-02 2.951047e-02 2.804746e-02 2.703375e-02 2.655795e-02 
2.098011e-02 2.143600e-02 2.226066e-02 2.425314e-02 2.700983e-02 3.142567e-02 3.197465e-02 3.231913e-02 2.983952e-02 2.961174e-02 2.718430e-02 2.732362e-02 2.336189e-02 2.395731e-02 2.327117e-02 2.356409e-02 2.314132e-02 2.291627e-02 2.296792e-02 2.243641e-02 2.309021e-02 2.222558e-02 2.798695e-02 2.666643e-02 3.029744e-02 2.852630e-02 3.094538e-02 2.983784e-02 3.149739e-02 3.055189e-02 3.086046e-02 3.057179e-02 3.070577e-02 3.094432e-02 3.083423e-02 3.065204e-02 3.051547e-02 3.017126e-02 3.005119e-02 3.009399e-02 3.022863e-02 3.079710e-02 3.135295e-02 3.189666e-02 3.201439e-02 3.221155e-02 3.189658e-02 3.194055e-02 3.144259e-02 3.137678e-02 3.062755e-02 3.037122e-02 3.003417e-02 2.967691e-02 2.935296e-02 2.850616e-02 2.843021e-02 2.730735e-02 2.775014e-02 2.734256e-02 2.796475e-02 2.775522e-02 2.822893e-02 2.869955e-02 2.880937e-02 3.004895e-02 2.965524e-02 3.088570e-02 3.057446e-02 3.145062e-02 3.128208e-02 3.168968e-02 3.124644e-02 3.064666e-02 3.055683e-02 2.992206e-02 3.016172e-02 2.967761e-02 3.006090e-02 2.944549e-02 2.957570e-02 2.905887e-02 2.913145e-02 2.890134e-02 2.917127e-02 2.927998e-02 2.994358e-02 3.044346e-02 3.110222e-02 3.135322e-02 3.159260e-02 3.142402e-02 3.128790e-02 3.100696e-02 3.096721e-02 3.088700e-02 3.099913e-02 3.101011e-02 3.112919e-02 3.112143e-02 3.122718e-02 3.126878e-02 3.151521e-02 3.180006e-02 3.224844e-02 3.266865e-02 3.333857e-02 3.386226e-02 3.415808e-02 3.448288e-02 3.490680e-02 3.459726e-02 3.403250e-02 3.381701e-02 3.359538e-02 3.258582e-02 3.170934e-02 3.208748e-02 3.100190e-02 3.226163e-02 3.172490e-02 3.170503e-02 3.483587e-02 3.079286e-02 2.658293e-02 2.406632e-02 2.221763e-02 2.142444e-02 
1.804308e-02 1.841326e-02 1.826593e-02 1.962723e-02 2.011381e-02 2.300075e-02 1.634983e-02 1.640008e-02 1.424979e-02 1.349058e-02 1.073945e-02 1.142301e-02 5.440150e-03 8.197510e-03 6.583928e-03 8.737221e-03 8.028496e-03 8.869157e-03 9.589358e-03 9.376413e-03 1.250120e-02 9.604339e-03 1.702672e-02 1.414623e-02 1.813268e-02 1.394829e-02 1.723311e-02 1.460940e-02 1.637145e-02 1.469387e-02 1.496999e-02 1.405582e-02 1.354398e-02 1.317208e-02 1.275525e-02 1.270663e-02 1.323641e-02 1.363687e-02 1.432111e-02 1.469996e-02 1.474461e-02 1.469940e-02 1.455651e-02 1.437918e-02 1.433995e-02 1.472583e-02 1.499962e-02 1.577045e-02 1.601911e-02 1.722391e-02 1.743922e-02 1.856980e-02 1.870508e-02 1.936377e-02 2.048087e-02 2.100556e-02 2.235109e-02 2.226362e-02 2.290762e-02 2.103460e-02 2.108581e-02 1.929093e-02 1.846439e-02 1.726241e-02 1.551347e-02 1.486980e-02 1.273195e-02 1.276082e-02 1.041035e-02 1.053004e-02 9.044579e-03 8.940625e-03 9.176774e-03 9.994776e-03 1.113902e-02 1.159080e-02 1.329583e-02 1.337206e-02 1.497714e-02 1.527915e-02 1.649113e-02 1.675980e-02 1.757368e-02 1.798771e-02 1.862155e-02 1.855269e-02 1.856321e-02 1.813846e-02 1.801515e-02 1.790290e-02 1.837350e-02 1.882221e-02 1.947066e-02 1.981266e-02 2.014325e-02 2.006800e-02 1.997926e-02 1.963081e-02 1.942771e-02 1.909027e-02 1.892393e-02 1.858302e-02 1.836984e-02 1.797919e-02 1.763802e-02 1.712629e-02 1.700905e-02 1.682804e-02 1.669623e-02 1.699321e-02 1.803615e-02 1.860376e-02 1.948583e-02 2.108916e-02 2.298274e-02 2.348488e-02 2.438777e-02 2.614047e-02 2.545000e-02 2.617768e-02 2.670998e-02 2.265005e-02 2.638777e-02 2.627862e-02 2.203002e-02 2.100253e-02 1.910408e-02 1.882930e-02 
5.772402e-03 5.244887e-03 3.731397e-03 1.725994e-03 -2.118472e-03 -6.573232e-03 -1.213128e-02 -1.315897e-02 -1.088287e-02 -1.206238e-02 -9.553091e-03 -1.096570e-02 -7.281061e-03 -9.699870e-03 -9.818334e-03 -8.654923e-03 -8.729089e-03 -8.104748e-03 -6.644892e-03 -6.896011e-03 -5.313121e-03 -2.484787e-03 -7.510712e-03 -6.254966e-03 -9.448609e-03 -9.397237e-03 -1.084389e-02 -1.110874e-02 -1.235006e-02 -1.234884e-02 -1.267516e-02 -1.309651e-02 -1.370838e-02 -1.443729e-02 -1.458794e-02 -1.440977e-02 -1.384910e-02 -1.309715e-02 -1.252229e-02 -1.238521e-02 -1.270372e-02 -1.356988e-02 -1.466635e-02 -1.551730e-02 -1.588216e-02 -1.577777e-02 -1.534564e-02 -1.471139e-02 -1.411310e-02 -1.298198e-02 -1.228037e-02 -1.093652e-02 -1.101393e-02 -9.932082e-03 -9.179887e-03 -7.935567e-03 -6.966112e-03 -6.088827e-03 -5.976553e-03 -6.975405e-03 -7.290543e-03 -8.065488e-03 -8.689830e-03 -9.432145e-03 -1.026135e-02 -1.109109e-02 -1.180854e-02 -1.210075e-02 -1.334780e-02 -1.355954e-02 -1.457224e-02 -1.496762e-02 -1.425956e-02 -1.341172e-02 -1.209231e-02 -1.179466e-02 -1.043376e-02 -1.046423e-02 -9.502533e-03 -8.951871e-03 -7.971082e-03 -7.408246e-03 -6.692692e-03 -6.399122e-03 -6.109537e-03 -6.577551e-03 -7.384571e-03 -8.654841e-03 -9.630878e-03 -1.033422e-02 -1.030970e-02 -9.914872e-03 -9.151674e-03 -8.582601e-03 -8.148063e-03 -8.134336e-03 -8.243240e-03 -8.586300e-03 -8.832082e-03 -9.159669e-03 -9.369755e-03 -9.753714e-03 -1.017772e-02 -1.091472e-02 -1.168959e-02 -1.267071e-02 -1.357207e-02 -1.442009e-02 -1.472505e-02 -1.487062e-02 -1.444714e-02 -1.339683e-02 -1.157115e-02 -9.880239e-03 -7.824218e-03 -5.782155e-03 -3.550737e-03 -2.778174e-03 -1.486699e-03 -2.916330e-03 -1.697744e-03 -4.762180e-03 -6.668870e-03 -1.293510e-03 1.533283e-03 4.182573e-03 5.196148e-03 5.952778e-03 
4.812224e-03 3.749119e-03 3.156904e-03 3.008494e-04 -2.075718e-03 -7.499003e-03 -4.491022e-03 -5.602639e-03 -2.696501e-03 -2.651784e-03 8.071634e-04 5.981274e-04 7.170317e-03 7.486314e-03 1.175343e-02 1.070709e-02 1.267787e-02 1.220230e-02 1.149966e-02 1.119339e-02 6.544012e-03 6.563671e-03 -2.150373e-03 -1.475509e-04 -5.233279e-03 -1.705740e-03 -5.502711e-03 -3.160149e-03 -5.602994e-03 -3.953258e-03 -4.673303e-03 -3.951001e-03 -4.013441e-03 -3.893781e-03 -3.633662e-03 -3.324149e-03 -3.440925e-03 -3.326954e-03 -3.671031e-03 -4.096944e-03 -4.398575e-03 -4.913854e-03 -5.337059e-03 -5.640422e-03 -5.570923e-03 -5.971311e-03 -5.932931e-03 -6.574124e-03 -6.687865e-03 -7.437712e-03 -8.386812e-03 -9.255786e-03 -1.150163e-02 -1.228449e-02 -1.518213e-02 -1.736477e-02 -1.955961e-02 -2.157573e-02 -2.177113e-02 -1.640947e-02 -1.659236e-02 -1.126435e-02 -9.424619e-03 -6.454637e-03 -2.297299e-03 -1.938256e-03 3.065615e-03 3.032950e-03 8.499278e-03 1.067386e-02 1.283434e-02 1.607460e-02 1.390275e-02 1.111582e-02 9.076434e-03 5.195323e-03 3.374482e-03 8.863040e-04 -8.684016e-04 -2.160930e-03 -3.074885e-03 -3.592475e-03 -4.075029e-03 -4.704812e-03 -4.887238e-03 -5.203277e-03 -5.357638e-03 -5.780266e-03 -6.077334e-03 -6.670362e-03 -7.061941e-03 -7.442088e-03 -7.439701e-03 -7.486041e-03 -7.289640e-03 -7.227373e-03 -7.013157e-03 -6.998210e-03 -6.853828e-03 -6.889214e-03 -6.761540e-03 -6.781456e-03 -6.661720e-03 -6.758035e-03 -6.662612e-03 -6.760039e-03 -6.912987e-03 -7.230063e-03 -7.057369e-03 -7.407813e-03 -7.816440e-03 -7.739574e-03 -7.223913e-03 -7.654417e-03 -7.816341e-03 -7.117293e-03 -6.341852e-03 -7.416725e-03 -5.803320e-03 -7.161979e-03 -6.781592e-03 -4.815308e-03 -8.761211e-03 -6.076730e-03 -7.900287e-04 1.328414e-03 3.707507e-03 4.069966e-03 
1.037061e-03 3.046880e-04 4.857089e-04 -9.359252e-04 -8.160607e-04 -2.616479e-03 1.403575e-03 6.877278e-04 9.043146e-05 4.094945e-04 -1.223010e-03 -8.929936e-04 -3.940568e-03 -2.539626e-03 -1.196995e-03 -2.869747e-03 -1.976936e-03 -2.420306e-03 -3.779886e-03 -2.914435e-03 -5.223586e-03 -6.991021e-03 -4.598200e-03 -3.629861e-03 -2.930680e-03 -3.351180e-04 -1.065098e-03 9.904158e-04 3.833852e-04 1.658862e-03 1.367781e-03 2.093731e-03 2.377445e-03 2.914897e-03 3.326230e-03 3.536773e-03 3.400966e-03 3.175766e-03 2.549138e-03 1.586591e-03 1.359520e-03 1.288957e-03 1.263775e-03 1.280819e-03 1.883623e-03 1.239095e-03 1.268871e-03 -1.446176e-04 -1.660570e-05 -1.478257e-03 -3.419099e-03 -4.251034e-03 -7.998569e-03 -7.069645e-03 -1.124492e-02 -1.313420e-02 -1.523188e-02 -1.915029e-02 -1.928181e-02 -1.369465e-02 -1.466462e-02 -8.557530e-03 -6.292860e-03 -3.001249e-03 2.874701e-03 4.476757e-03 1.063796e-02 1.133047e-02 1.765049e-02 1.991253e-02 2.092001e-02 2.548395e-02 2.277291e-02 1.833382e-02 1.796041e-02 1.215578e-02 1.106793e-02 8.176061e-03 5.676976e-03 4.393239e-03 2.514147e-03 2.072003e-03 5.298654e-04 -4.792017e-04 -6.011013e-04 -5.810841e-04 -4.414251e-04 -9.636394e-05 -9.259701e-05 -7.466025e-04 -1.501499e-03 -2.086230e-03 -2.486658e-03 -2.823328e-03 -2.801844e-03 -2.669451e-03 -2.432124e-03 -2.353954e-03 -2.237395e-03 -2.247348e-03 -2.119412e-03 -2.002175e-03 -1.652929e-03 -1.309187e-03 -7.459623e-04 -2.879742e-04 1.598364e-04 3.603319e-04 6.555384e-04 4.676560e-04 9.871575e-05 -3.807476e-04 -8.100141e-04 -1.806489e-03 -2.614959e-03 -3.089572e-03 -3.374201e-03 -4.269067e-03 -3.666872e-03 -3.577274e-03 -3.918839e-03 -8.947210e-04 -2.226370e-03 -2.990935e-03 -1.017788e-03 -7.747490e-04 5.148455e-04 3.911985e-04 
