# vtk DataFile Version 2.0
Comment goes here
ASCII

DATASET STRUCTURED_POINTS
FIELD FieldData 1
TIME 1 1 double
0.85000000
DIMENSIONS    128   16   1

ORIGIN    0.000   0.000   0.000
SPACING   0.0078125 0.015625   1.000

POINT_DATA   2048
SCALARS uX double
LOOKUP_TABLE default

-2.281375e-03 1.108267e-03 -2.358321e-03 3.148858e-03 -1.959475e-03 8.264459e-03 -1.609021e-03 2.104078e-03 3.444986e-04 7.676173e-04 6.576065e-04 -2.637057e-04 8.869064e-04 1.639073e-03 3.319518e-03 8.993983e-04 4.707967e-03 1.580419e-03 4.334591e-03 2.077309e-03 3.302802e-03 -6.015051e-04 1.455470e-03 -4.559263e-04 2.014399e-03 9.536150e-05 2.185378e-03 5.301069e-04 2.139145e-03 9.108999e-04 1.975603e-03 1.248316e-03 1.760837e-03 1.541556e-03 1.544045e-03 1.782255e-03 1.360484e-03 1.957890e-03 1.233851e-03 2.056477e-03 1.178647e-03 2.069977e-03 1.199509e-03 1.995332e-03 1.288144e-03 1.833700e-03 1.417930e-03 1.583302e-03 1.530260e-03 1.214220e-03 1.499276e-03 6.037258e-04 1.044550e-03 -6.146297e-04 -4.936610e-04 -3.468877e-03 -4.510001e-03 -7.997181e-03 -5.356259e-03 -7.774495e-03 -8.393485e-03 -6.811479e-03 -1.075606e-02 -7.303462e-03 -1.081421e-02 -9.306277e-03 -8.470484e-03 -1.119455e-02 -5.759497e-03 -9.131112e-03 -5.361989e-03 -4.473753e-03 -5.878550e-03 -2.239377e-03 -1.621916e-03 1.826050e-04 2.059932e-04 1.050996e-03 9.969515e-04 1.305587e-03 1.388165e-03 1.290457e-03 1.627043e-03 1.163680e-03 1.803123e-03 1.004907e-03 1.939012e-03 8.628542e-04 2.030740e-03 7.722486e-04 2.063667e-03 7.569242e-04 2.019643e-03 8.303059e-04 1.884814e-03 9.969750e-04 1.657418e-03 1.252048e-03 1.350788e-03 1.577266e-03 9.927510e-04 1.938075e-03 6.249555e-04 2.285115e-03 3.014165e-04 2.559423e-03 8.420143e-05 2.699149e-03 3.559142e-05 2.647334e-03 2.081528e-04 2.362548e-03 6.346480e-04 1.832404e-03 1.314757e-03 1.087599e-03 2.190604e-03 2.184153e-04 3.097237e-03 -6.013409e-04 3.647854e-03 -1.110601e-03 2.611476e-03 -1.004959e-04 -1.433610e-03 -5.954915e-04 -2.189340e-03 3.924364e-06 
-1.790917e-03 1.114032e-03 -1.775142e-03 2.894048e-03 -1.623983e-03 9.645083e-03 -1.302597e-03 1.049896e-03 2.137584e-03 2.411312e-05 4.401344e-03 -1.431266e-04 7.758612e-03 1.060479e-03 6.889242e-03 1.769484e-03 6.220789e-03 2.226596e-03 5.557834e-03 3.112954e-03 4.551897e-03 4.811067e-03 2.588883e-03 2.362966e-03 1.977983e-03 1.364116e-03 1.598167e-03 9.146076e-04 1.264377e-03 7.730804e-04 9.446602e-04 7.970975e-04 6.422939e-04 9.030409e-04 3.769902e-04 1.034123e-03 1.636770e-04 1.143830e-03 1.709104e-05 1.205485e-03 -4.348294e-05 1.203727e-03 -8.248841e-06 1.128615e-03 1.178690e-04 9.727126e-04 3.024897e-04 7.225602e-04 4.794567e-04 3.458718e-04 5.226183e-04 -2.817500e-04 1.405304e-04 -1.573601e-03 -1.398728e-03 -4.708263e-03 -5.398374e-03 -9.143410e-03 -4.243864e-03 -5.646104e-03 -6.189592e-03 -2.299816e-03 -8.921058e-03 -1.644010e-03 -5.908800e-03 -3.950135e-03 -2.754111e-03 -7.622706e-03 -2.566927e-03 -1.042246e-02 -7.769567e-03 -8.629741e-03 -1.147923e-02 -5.750590e-03 -4.660121e-03 -1.672963e-03 -1.626659e-03 -2.153382e-04 -3.943987e-04 2.405616e-04 1.587269e-04 2.935112e-04 4.511980e-04 1.811667e-04 6.320465e-04 1.595524e-05 7.578026e-04 -1.328828e-04 8.418596e-04 -2.256156e-04 8.733165e-04 -2.420162e-04 8.298171e-04 -1.758815e-04 6.924275e-04 -2.246069e-05 4.626188e-04 2.223125e-04 1.588598e-04 5.464788e-04 -1.950646e-04 9.112427e-04 -5.671448e-04 1.264342e-03 -9.033535e-04 1.549912e-03 -1.138601e-03 1.705739e-03 -1.206317e-03 1.674406e-03 -1.048341e-03 1.406194e-03 -6.303076e-04 8.746040e-04 5.951691e-05 9.477920e-05 9.931010e-04 -8.729296e-04 2.062800e-03 -1.911267e-03 2.961839e-03 -2.820018e-03 2.609954e-03 -5.125548e-04 -3.348374e-03 -9.569774e-04 -2.329296e-03 8.577177e-06 
-2.205277e-03 -7.074060e-04 -2.983504e-03 -1.776087e-03 -4.948921e-03 2.280748e-03 -2.128756e-03 9.098978e-04 -1.984991e-03 4.621273e-04 -2.304052e-03 3.642287e-04 -3.772255e-03 -1.809359e-03 -4.175632e-03 -2.230904e-03 -4.182636e-03 -3.260557e-03 -3.233382e-03 -4.438743e-03 -1.736895e-03 -4.329144e-03 4.217983e-04 -3.174062e-03 4.884655e-04 -2.752110e-03 4.412255e-04 -2.362714e-03 2.978477e-04 -1.978138e-03 6.843447e-05 -1.595075e-03 -2.117283e-04 -1.214819e-03 -4.935608e-04 -8.521680e-04 -7.481160e-04 -5.404436e-04 -9.441680e-04 -2.856375e-04 -1.029755e-03 -7.753840e-05 -9.604836e-04 1.052028e-04 -6.922913e-04 3.058337e-04 -1.814383e-04 6.107303e-04 6.705695e-04 1.236526e-03 2.109138e-03 2.619822e-03 4.635175e-03 5.581913e-03 9.293349e-03 1.183201e-02 1.790243e-02 2.061832e-02 1.986720e-02 2.130790e-02 2.465792e-02 2.121351e-02 2.845640e-02 2.289402e-02 2.709091e-02 2.633297e-02 2.273234e-02 2.928138e-02 1.892328e-02 2.648025e-02 1.942010e-02 1.836205e-02 1.921435e-02 1.267710e-02 9.775809e-03 6.326986e-03 4.799101e-03 2.972558e-03 2.280317e-03 1.104666e-03 1.050494e-03 2.629747e-05 4.788939e-04 -6.573370e-04 2.167530e-04 -1.125875e-03 1.097581e-04 -1.433935e-03 7.832961e-05 -1.606294e-03 5.960270e-05 -1.662185e-03 -5.412293e-06 -1.624254e-03 -1.602750e-04 -1.495832e-03 -4.058902e-04 -1.261430e-03 -7.178870e-04 -9.247622e-04 -1.080296e-03 -5.337985e-04 -1.479760e-03 -1.457673e-04 -1.866097e-03 1.907748e-04 -2.174429e-03 4.159902e-04 -2.337346e-03 4.752874e-04 -2.294097e-03 3.068282e-04 -2.014360e-03 -1.409791e-04 -1.472480e-03 -8.846872e-04 -6.524070e-04 -1.919844e-03 4.445365e-04 -3.185306e-03 1.799444e-03 -4.311001e-03 3.369942e-03 -2.760984e-03 -7.434349e-03 -2.382242e-03 -3.337235e-03 -8.536567e-04 
1.443609e-04 -1.847997e-03 -3.608315e-04 -5.994858e-03 -3.017606e-03 -1.468777e-02 1.284697e-03 6.852382e-04 -3.054312e-03 2.047794e-03 -4.836244e-03 2.008130e-03 -6.929296e-03 9.440805e-04 -5.820207e-03 5.170659e-05 -4.863542e-03 -6.752545e-04 -3.907934e-03 -1.846262e-03 -2.691222e-03 -3.721870e-03 -6.470317e-04 -2.413773e-03 5.377953e-05 -2.012999e-03 3.536507e-04 -1.815175e-03 4.751307e-04 -1.668113e-03 4.795063e-04 -1.513444e-03 4.035310e-04 -1.330352e-03 2.799407e-04 -1.118767e-03 1.320668e-04 -8.909699e-04 -1.748099e-05 -6.500971e-04 -1.401567e-04 -3.910195e-04 -2.098669e-04 -1.030395e-04 -1.953465e-04 2.322523e-04 -5.492615e-05 6.480711e-04 2.877861e-04 1.232962e-03 9.803246e-04 2.186013e-03 2.297647e-03 3.943027e-03 4.816545e-03 7.557719e-03 9.541756e-03 1.260280e-02 8.924602e-03 8.212779e-03 1.118411e-02 3.818819e-03 1.269642e-02 3.972127e-03 8.220323e-03 8.218036e-03 3.635886e-03 1.297175e-02 3.305588e-03 1.539500e-02 9.396170e-03 1.338827e-02 1.535387e-02 1.022194e-02 8.262601e-03 5.068231e-03 4.402670e-03 2.518060e-03 2.447343e-03 1.133289e-03 1.414588e-03 3.449241e-04 8.456530e-04 -1.319057e-04 5.114471e-04 -4.380544e-04 3.089401e-04 -6.371772e-04 1.875549e-04 -7.642956e-04 1.134184e-04 -8.412811e-04 5.910531e-05 -8.847478e-04 4.385761e-06 -9.001491e-04 -5.643056e-05 -8.827797e-04 -1.216836e-04 -8.314329e-04 -1.953417e-04 -7.558043e-04 -2.871087e-04 -6.630438e-04 -3.986944e-04 -5.525426e-04 -5.294720e-04 -4.251514e-04 -6.781013e-04 -2.801696e-04 -8.422111e-04 -1.238979e-04 -1.022525e-03 3.210611e-05 -1.209904e-03 1.757965e-04 -1.379903e-03 2.857768e-04 -1.476260e-03 3.385336e-04 -1.330881e-03 3.370533e-04 -2.475957e-04 -4.119620e-03 -3.712023e-03 -1.980642e-03 -7.677535e-04 -8.016303e-04 
4.705045e-03 1.605509e-03 5.149435e-03 -1.855660e-05 5.390048e-03 -1.051928e-02 3.603440e-03 -5.556949e-04 1.581216e-03 1.336678e-03 2.598722e-03 2.106024e-03 6.320972e-03 4.253931e-03 5.686749e-03 4.841628e-03 5.274698e-03 5.251263e-03 4.800647e-03 5.910729e-03 4.026046e-03 7.009144e-03 1.247580e-03 3.735389e-03 8.110662e-04 2.440995e-03 7.574276e-04 1.672768e-03 8.337200e-04 1.151967e-03 9.751065e-04 7.624466e-04 1.134801e-03 4.458241e-04 1.268045e-03 1.796844e-04 1.353628e-03 -2.923436e-05 1.366742e-03 -1.942300e-04 1.258602e-03 -3.402418e-04 9.831829e-04 -5.029268e-04 4.910290e-04 -7.447845e-04 -2.720350e-04 -1.184334e-03 -1.425028e-03 -2.091882e-03 -3.260596e-03 -4.001714e-03 -6.395966e-03 -7.943640e-03 -1.220350e-02 -1.617758e-02 -2.314492e-02 -2.741174e-02 -2.274069e-02 -2.324725e-02 -2.574198e-02 -1.918624e-02 -2.878198e-02 -1.982123e-02 -2.347902e-02 -2.437854e-02 -1.870928e-02 -2.906137e-02 -1.860537e-02 -3.111643e-02 -2.616248e-02 -2.690897e-02 -3.186179e-02 -2.106070e-02 -1.649209e-02 -1.095774e-02 -8.334848e-03 -5.827936e-03 -4.199993e-03 -3.025613e-03 -2.059341e-03 -1.421218e-03 -9.397055e-04 -4.274451e-04 -3.303891e-04 2.292838e-04 4.886115e-06 6.549149e-04 1.891165e-04 9.054061e-04 3.078744e-04 1.020737e-03 4.319534e-04 1.037065e-03 6.115353e-04 9.663857e-04 8.529092e-04 7.981021e-04 1.137336e-03 5.367341e-04 1.454272e-03 2.278560e-04 1.794580e-03 -7.425511e-05 2.111556e-03 -3.231720e-04 2.342639e-03 -4.601593e-04 2.421504e-03 -4.294930e-04 2.287387e-03 -1.662746e-04 1.908667e-03 3.861712e-04 1.257367e-03 1.250177e-03 3.125415e-04 2.418752e-03 -9.379236e-04 3.785576e-03 -2.519049e-03 4.757598e-03 -4.194504e-03 7.568637e-04 7.620488e-03 3.003977e-03 5.305497e-03 2.381889e-03 
7.275070e-03 6.650189e-03 7.772361e-03 8.625691e-03 1.001485e-02 9.928202e-03 5.492412e-03 4.170037e-03 6.642493e-03 4.360882e-03 6.782687e-03 4.523004e-03 6.529770e-03 5.855072e-03 6.400052e-03 6.004217e-03 6.219267e-03 6.193673e-03 6.012333e-03 6.382353e-03 5.835873e-03 6.466523e-03 3.480153e-03 5.950873e-03 3.874124e-03 6.291078e-03 4.317225e-03 6.455115e-03 4.665076e-03 6.443392e-03 4.956963e-03 6.309102e-03 5.217683e-03 6.097680e-03 5.443589e-03 5.847453e-03 5.628860e-03 5.597297e-03 5.755728e-03 5.358385e-03 5.786625e-03 5.125981e-03 5.689055e-03 4.888516e-03 5.434956e-03 4.627581e-03 5.008525e-03 4.315966e-03 4.383606e-03 3.879304e-03 3.495370e-03 3.180721e-03 2.233187e-03 1.985312e-03 3.495035e-04 -3.368816e-04 -3.084957e-03 -4.980337e-03 -4.999305e-03 -3.169987e-03 -6.164826e-03 -9.048219e-04 -4.956637e-03 -2.940464e-03 -3.111331e-03 -6.587733e-03 -1.682481e-03 -7.031997e-03 -7.186763e-04 -3.978492e-03 -3.109859e-04 -2.242806e-03 -4.566379e-03 -1.444869e-03 -2.832953e-04 1.655283e-03 2.161906e-03 3.287931e-03 3.472272e-03 4.313744e-03 4.206722e-03 5.007179e-03 4.626180e-03 5.515357e-03 4.880097e-03 5.901730e-03 5.031669e-03 6.178012e-03 5.117790e-03 6.352901e-03 5.177357e-03 6.439012e-03 5.252751e-03 6.453882e-03 5.377554e-03 6.400805e-03 5.555529e-03 6.268370e-03 5.772899e-03 6.058268e-03 6.022855e-03 5.803129e-03 6.301661e-03 5.540849e-03 6.579724e-03 5.302025e-03 6.816457e-03 5.125261e-03 6.968655e-03 5.046592e-03 6.996528e-03 5.109289e-03 6.879308e-03 5.350549e-03 6.594626e-03 5.779538e-03 6.117404e-03 6.378338e-03 5.417956e-03 7.067934e-03 4.453532e-03 7.620950e-03 3.319032e-03 9.519525e-03 1.211587e-02 8.367615e-03 8.449977e-03 6.657890e-03 
8.012555e-03 7.413389e-03 8.347653e-03 8.839376e-03 9.761186e-03 1.245220e-02 8.613751e-03 7.456770e-03 9.612872e-03 7.001968e-03 9.059122e-03 6.771607e-03 7.110016e-03 6.409538e-03 6.987946e-03 6.572347e-03 6.783590e-03 6.788983e-03 6.549353e-03 7.005669e-03 6.355810e-03 7.090853e-03 6.686428e-03 8.254606e-03 7.008269e-03 8.723303e-03 7.205806e-03 8.863302e-03 7.368469e-03 8.824731e-03 7.526114e-03 8.686060e-03 7.685039e-03 8.492967e-03 7.836058e-03 8.275481e-03 7.964381e-03 8.055206e-03 8.051956e-03 7.843379e-03 8.079309e-03 7.644113e-03 8.033032e-03 7.460428e-03 7.911515e-03 7.302786e-03 7.735980e-03 7.205750e-03 7.570068e-03 7.260830e-03 7.572925e-03 7.707321e-03 8.135744e-03 9.158202e-03 1.025408e-02 1.324270e-02 1.595837e-02 1.960385e-02 1.440720e-02 1.541592e-02 1.601094e-02 1.140840e-02 1.808496e-02 1.111882e-02 1.490994e-02 1.381435e-02 1.206139e-02 1.673250e-02 1.200453e-02 1.858539e-02 1.704818e-02 1.735564e-02 2.255375e-02 1.518475e-02 1.316019e-02 9.833236e-03 9.196581e-03 8.029917e-03 7.819491e-03 7.560327e-03 7.418774e-03 7.599675e-03 7.378144e-03 7.807884e-03 7.451492e-03 8.043602e-03 7.545440e-03 8.246898e-03 7.632168e-03 8.394887e-03 7.713764e-03 8.481827e-03 7.803797e-03 8.509735e-03 7.915373e-03 8.481210e-03 8.053132e-03 8.398871e-03 8.213961e-03 8.271396e-03 8.391464e-03 8.116825e-03 8.575884e-03 7.957345e-03 8.749884e-03 7.815441e-03 8.891414e-03 7.714311e-03 8.977806e-03 7.674823e-03 8.990133e-03 7.713912e-03 8.918311e-03 7.837922e-03 8.762235e-03 8.033548e-03 8.540070e-03 8.264362e-03 8.313196e-03 8.483872e-03 8.263594e-03 8.759561e-03 8.773833e-03 1.055319e-02 9.709421e-03 8.392527e-03 8.420890e-03 7.361797e-03 
8.372679e-03 8.267762e-03 8.366694e-03 8.657886e-03 8.631715e-03 9.296434e-03 8.532485e-03 8.275600e-03 8.283432e-03 7.745741e-03 7.663776e-03 7.786918e-03 6.655296e-03 6.310852e-03 6.548007e-03 6.342553e-03 6.441613e-03 6.423493e-03 6.353137e-03 6.525348e-03 6.313766e-03 6.628189e-03 8.578064e-03 8.279174e-03 8.085370e-03 8.533604e-03 7.713217e-03 8.616124e-03 7.567520e-03 8.613706e-03 7.579135e-03 8.555573e-03 7.682036e-03 8.457140e-03 7.825109e-03 8.335508e-03 7.973179e-03 8.209991e-03 8.101932e-03 8.097399e-03 8.194649e-03 8.011326e-03 8.243912e-03 7.964108e-03 8.254064e-03 7.970510e-03 8.245953e-03 8.054533e-03 8.264379e-03 8.262525e-03 8.397956e-03 8.699762e-03 8.833190e-03 9.626126e-03 1.001926e-02 1.180820e-02 1.318030e-02 1.611485e-02 1.444812e-02 1.473939e-02 1.573657e-02 1.283043e-02 1.576108e-02 1.381482e-02 1.520960e-02 1.605552e-02 1.455732e-02 1.646087e-02 1.350959e-02 1.418204e-02 1.271594e-02 1.257819e-02 1.549917e-02 1.207856e-02 1.135771e-02 9.699540e-03 9.435057e-03 8.824412e-03 8.597755e-03 8.515549e-03 8.205532e-03 8.457725e-03 8.011101e-03 8.508015e-03 7.907644e-03 8.594674e-03 7.849880e-03 8.677475e-03 7.821809e-03 8.733580e-03 7.822696e-03 8.750993e-03 7.858437e-03 8.724685e-03 7.934435e-03 8.653021e-03 8.050213e-03 8.537507e-03 8.199023e-03 8.386025e-03 8.369962e-03 8.214571e-03 8.547890e-03 8.044148e-03 8.711700e-03 7.897506e-03 8.836576e-03 7.797622e-03 8.897522e-03 7.764425e-03 8.873496e-03 7.811822e-03 8.752406e-03 7.942938e-03 8.535934e-03 8.146833e-03 8.251980e-03 8.403040e-03 7.980870e-03 8.697070e-03 7.903776e-03 9.052894e-03 8.310188e-03 9.302309e-03 8.940628e-03 8.757598e-03 8.646082e-03 8.320763e-03 
8.514547e-03 8.298477e-03 8.592711e-03 8.790099e-03 8.820163e-03 9.337115e-03 8.701076e-03 8.303581e-03 8.510354e-03 7.659210e-03 7.911894e-03 7.804624e-03 7.076907e-03 6.672584e-03 6.972479e-03 6.734821e-03 6.838633e-03 6.855444e-03 6.708943e-03 6.986180e-03 6.636108e-03 7.087332e-03 9.046321e-03 8.826298e-03 8.558376e-03 9.057925e-03 8.162707e-03 9.068688e-03 7.977140e-03 8.990640e-03 7.949313e-03 8.874945e-03 8.018623e-03 8.741897e-03 8.136507e-03 8.606490e-03 8.270020e-03 8.483820e-03 8.399041e-03 8.388767e-03 8.513825e-03 8.335475e-03 8.614395e-03 8.338391e-03 8.711478e-03 8.415075e-03 8.828943e-03 8.591025e-03 9.008086e-03 8.906432e-03 9.313630e-03 9.423057e-03 9.837204e-03 1.022075e-02 1.068114e-02 1.135939e-02 1.189223e-02 1.259530e-02 1.243214e-02 1.210771e-02 1.275399e-02 1.143043e-02 1.279397e-02 1.139246e-02 1.216152e-02 1.198347e-02 1.172541e-02 1.258700e-02 1.192149e-02 1.285769e-02 1.279694e-02 1.244789e-02 1.319100e-02 1.165468e-02 1.184069e-02 1.053763e-02 1.060593e-02 9.720034e-03 9.703493e-03 9.214231e-03 9.107062e-03 8.946702e-03 8.727511e-03 8.830654e-03 8.488070e-03 8.798064e-03 8.338783e-03 8.801216e-03 8.251760e-03 8.808210e-03 8.213736e-03 8.798895e-03 8.219534e-03 8.761960e-03 8.266702e-03 8.692817e-03 8.351558e-03 8.592497e-03 8.467098e-03 8.467400e-03 8.602482e-03 8.328912e-03 8.743322e-03 8.192236e-03 8.872459e-03 8.074448e-03 8.971375e-03 7.991988e-03 9.022416e-03 7.957691e-03 9.011665e-03 7.977535e-03 8.932590e-03 8.048144e-03 8.791817e-03 8.157916e-03 8.619205e-03 8.296161e-03 8.482227e-03 8.473112e-03 8.491067e-03 8.738141e-03 8.724665e-03 9.041438e-03 8.889456e-03 8.602615e-03 8.664360e-03 8.248232e-03 
8.372643e-03 8.267379e-03 8.366256e-03 8.658110e-03 8.630830e-03 9.297246e-03 8.531183e-03 8.276771e-03 8.282400e-03 7.746977e-03 7.663535e-03 7.787934e-03 6.656040e-03 6.311122e-03 6.548663e-03 6.342768e-03 6.442027e-03 6.423824e-03 6.353111e-03 6.525766e-03 6.313362e-03 6.628227e-03 8.582912e-03 8.284905e-03 8.098217e-03 8.544560e-03 7.736634e-03 8.635067e-03 7.604564e-03 8.645780e-03 7.632292e-03 8.607941e-03 7.754175e-03 8.539706e-03 7.921202e-03 8.460124e-03 8.100605e-03 8.389866e-03 8.273891e-03 8.350319e-03 8.434369e-03 8.360395e-03 8.584011e-03 8.434934e-03 8.732177e-03 8.584516e-03 8.894422e-03 8.817382e-03 9.094703e-03 9.145570e-03 9.369524e-03 9.590657e-03 9.769761e-03 1.018479e-02 1.035359e-02 1.094980e-02 1.113434e-02 1.176083e-02 1.178277e-02 1.196089e-02 1.226470e-02 1.197405e-02 1.247905e-02 1.222258e-02 1.245744e-02 1.251764e-02 1.229265e-02 1.244534e-02 1.202768e-02 1.192506e-02 1.177801e-02 1.130178e-02 1.161600e-02 1.072799e-02 1.084777e-02 1.007316e-02 1.009563e-02 9.581331e-03 9.491406e-03 9.260863e-03 9.027999e-03 9.074354e-03 8.673873e-03 8.979881e-03 8.403504e-03 8.941673e-03 8.202600e-03 8.930021e-03 8.063880e-03 8.919192e-03 7.983908e-03 8.888974e-03 7.961762e-03 8.826267e-03 7.996822e-03 8.725678e-03 8.086055e-03 8.588871e-03 8.221084e-03 8.423313e-03 8.386602e-03 8.241643e-03 8.561658e-03 8.062505e-03 8.722764e-03 7.909056e-03 8.844825e-03 7.804732e-03 8.903444e-03 7.770063e-03 8.878215e-03 7.817594e-03 8.755747e-03 7.948102e-03 8.537336e-03 8.150309e-03 8.251911e-03 8.404374e-03 7.980519e-03 8.696342e-03 7.904099e-03 9.050655e-03 8.311340e-03 9.300089e-03 8.941120e-03 8.755949e-03 8.646336e-03 8.319759e-03 
8.013075e-03 7.411865e-03 8.347106e-03 8.838756e-03 9.759734e-03 1.245247e-02 8.610641e-03 7.458494e-03 9.610304e-03 7.003738e-03 9.058461e-03 6.772950e-03 7.112447e-03 6.409503e-03 6.989654e-03 6.571691e-03 6.784965e-03 6.789372e-03 6.549059e-03 7.007795e-03 6.354257e-03 7.091551e-03 6.696176e-03 8.270585e-03 7.037651e-03 8.752913e-03 7.260062e-03 8.912717e-03 7.454134e-03 8.905181e-03 7.649404e-03 8.813129e-03 7.853898e-03 8.688411e-03 8.063924e-03 8.566032e-03 8.270674e-03 8.471748e-03 8.468838e-03 8.428196e-03 8.660149e-03 8.453102e-03 8.851231e-03 8.557740e-03 9.052269e-03 8.745405e-03 9.272902e-03 9.010804e-03 9.521956e-03 9.343979e-03 9.807247e-03 9.728621e-03 1.012792e-02 1.013296e-02 1.046309e-02 1.050069e-02 1.076608e-02 1.075486e-02 1.097809e-02 1.082757e-02 1.106559e-02 1.082325e-02 1.108303e-02 1.083774e-02 1.105464e-02 1.087703e-02 1.109291e-02 1.091090e-02 1.121018e-02 1.092777e-02 1.132187e-02 1.083535e-02 1.125933e-02 1.058275e-02 1.096122e-02 1.023965e-02 1.052618e-02 9.887319e-03 1.004772e-02 9.580980e-03 9.586497e-03 9.345023e-03 9.173685e-03 9.179434e-03 8.823176e-03 9.071809e-03 8.542702e-03 9.003211e-03 8.334463e-03 8.949772e-03 8.196968e-03 8.889224e-03 8.128330e-03 8.805612e-03 8.126545e-03 8.691542e-03 8.187934e-03 8.547379e-03 8.303593e-03 8.378676e-03 8.456923e-03 8.194885e-03 8.625732e-03 8.012173e-03 8.787373e-03 7.852759e-03 8.918447e-03 7.739594e-03 8.996701e-03 7.694264e-03 9.004104e-03 7.730931e-03 8.927772e-03 7.851427e-03 8.766741e-03 8.042067e-03 8.541077e-03 8.267660e-03 8.313326e-03 8.482719e-03 8.264752e-03 8.755618e-03 8.776152e-03 1.054859e-02 9.711811e-03 8.389298e-03 8.422481e-03 7.359405e-03 
7.275157e-03 6.649152e-03 7.771674e-03 8.627286e-03 1.001249e-02 9.931041e-03 5.486233e-03 4.174264e-03 6.637276e-03 4.365486e-03 6.781670e-03 4.527994e-03 6.533058e-03 5.855653e-03 6.402525e-03 6.004249e-03 6.221182e-03 6.194826e-03 6.012096e-03 6.385354e-03 5.834391e-03 6.468874e-03 3.488476e-03 5.969081e-03 3.901417e-03 6.314234e-03 4.374911e-03 6.492392e-03 4.765431e-03 6.511107e-03 5.103598e-03 6.425747e-03 5.412561e-03 6.296273e-03 5.700913e-03 6.166494e-03 5.957999e-03 6.064625e-03 6.181141e-03 6.026351e-03 6.383836e-03 6.078887e-03 6.580493e-03 6.238447e-03 6.790098e-03 6.505676e-03 7.019638e-03 6.859600e-03 7.274909e-03 7.285537e-03 7.578942e-03 7.779820e-03 7.955548e-03 8.324524e-03 8.396926e-03 8.865422e-03 8.858392e-03 9.334996e-03 9.299368e-03 9.687896e-03 9.615087e-03 9.906560e-03 9.808739e-03 9.995745e-03 9.896837e-03 9.921725e-03 9.878437e-03 9.659545e-03 9.728575e-03 9.269405e-03 9.438653e-03 8.814368e-03 9.052888e-03 8.328112e-03 8.606619e-03 7.872389e-03 8.109681e-03 7.487254e-03 7.605507e-03 7.198253e-03 7.126604e-03 7.008843e-03 6.687256e-03 6.898152e-03 6.295227e-03 6.848466e-03 5.973557e-03 6.842383e-03 5.733740e-03 6.843066e-03 5.575035e-03 6.814779e-03 5.498998e-03 6.733076e-03 5.510123e-03 6.590694e-03 5.614491e-03 6.394112e-03 5.808027e-03 6.153264e-03 6.065013e-03 5.875120e-03 6.344800e-03 5.583666e-03 6.615963e-03 5.321785e-03 6.841994e-03 5.129240e-03 6.984824e-03 5.052221e-03 7.014398e-03 5.125812e-03 6.894580e-03 5.367937e-03 6.599655e-03 5.790525e-03 6.114416e-03 6.381516e-03 5.413761e-03 7.063120e-03 4.453346e-03 7.610132e-03 3.328790e-03 9.507259e-03 1.211249e-02 8.360525e-03 8.449943e-03 6.654413e-03 
4.705614e-03 1.602545e-03 5.148751e-03 -1.929339e-05 5.385892e-03 -1.052176e-02 3.596403e-03 -5.620611e-04 1.572129e-03 1.329705e-03 2.589183e-03 2.101439e-03 6.307657e-03 4.252557e-03 5.685837e-03 4.835504e-03 5.279862e-03 5.250090e-03 4.800415e-03 5.923860e-03 4.024455e-03 7.032211e-03 1.274004e-03 3.760663e-03 8.560332e-04 2.462403e-03 8.295630e-04 1.702093e-03 9.453216e-04 1.207024e-03 1.128085e-03 8.613276e-04 1.329235e-03 6.241331e-04 1.519670e-03 4.784636e-04 1.669510e-03 4.134088e-04 1.771556e-03 4.444270e-04 1.843715e-03 5.862086e-04 1.904275e-03 8.470020e-04 1.976920e-03 1.221065e-03 2.070638e-03 1.679236e-03 2.198052e-03 2.206439e-03 2.403790e-03 2.809390e-03 2.743896e-03 3.483037e-03 3.236847e-03 4.171230e-03 3.831093e-03 4.745851e-03 4.362220e-03 5.013392e-03 4.835957e-03 5.104854e-03 5.136568e-03 5.205465e-03 5.238734e-03 5.342158e-03 5.166709e-03 5.364042e-03 5.053983e-03 5.084479e-03 4.949034e-03 4.543404e-03 4.745375e-03 3.913031e-03 4.271524e-03 3.249164e-03 3.690030e-03 2.674050e-03 3.101566e-03 2.238932e-03 2.554763e-03 1.948114e-03 2.061395e-03 1.769175e-03 1.623620e-03 1.676002e-03 1.267134e-03 1.645479e-03 1.005066e-03 1.629198e-03 8.363104e-04 1.579657e-03 7.641344e-04 1.463178e-03 7.961404e-04 1.268538e-03 9.419953e-04 1.003862e-03 1.197079e-03 6.843411e-04 1.525994e-03 3.241648e-04 1.870543e-03 -3.688899e-05 2.182347e-03 -3.320991e-04 2.404023e-03 -4.990227e-04 2.475294e-03 -4.676554e-04 2.347862e-03 -1.849545e-04 1.968294e-03 3.777739e-04 1.303442e-03 1.243754e-03 3.450937e-04 2.411174e-03 -9.126056e-04 3.773013e-03 -2.495612e-03 4.737770e-03 -4.164115e-03 7.375029e-04 7.619608e-03 2.992129e-03 5.306471e-03 2.375787e-03 
1.477348e-04 -1.850403e-03 -3.591914e-04 -5.997555e-03 -3.017693e-03 -1.469195e-02 1.285418e-03 6.790411e-04 -3.058448e-03 2.044959e-03 -4.848008e-03 2.013775e-03 -6.949341e-03 9.660714e-04 -5.857710e-03 9.179831e-05 -4.907535e-03 -6.343653e-04 -3.934900e-03 -1.826749e-03 -2.693103e-03 -3.720979e-03 -6.425087e-04 -2.424792e-03 5.256133e-05 -2.030007e-03 3.362008e-04 -1.843063e-03 4.331712e-04 -1.715422e-03 4.103558e-04 -1.589570e-03 3.065370e-04 -1.451652e-03 1.493970e-04 -1.304646e-03 -3.409400e-05 -1.157189e-03 -2.266058e-04 -1.027568e-03 -4.224760e-04 -9.316198e-04 -6.193775e-04 -8.792505e-04 -8.188792e-04 -8.710378e-04 -1.015684e-03 -8.941528e-04 -1.199228e-03 -9.345480e-04 -1.359659e-03 -9.777120e-04 -1.479805e-03 -9.975309e-04 -1.527343e-03 -9.581844e-04 -1.480491e-03 -8.728442e-04 -1.417977e-03 -8.474250e-04 -1.286021e-03 -8.439031e-04 -1.175467e-03 -8.177563e-04 -1.180302e-03 -7.890860e-04 -1.312812e-03 -8.156687e-04 -1.483607e-03 -9.751285e-04 -1.574861e-03 -1.193608e-03 -1.593105e-03 -1.332869e-03 -1.612685e-03 -1.394090e-03 -1.524610e-03 -1.375088e-03 -1.349466e-03 -1.316142e-03 -1.132333e-03 -1.250273e-03 -9.072888e-04 -1.190895e-03 -6.952355e-04 -1.145019e-03 -5.152775e-04 -1.114875e-03 -3.744770e-04 -1.091123e-03 -2.703719e-04 -1.064237e-03 -2.000679e-04 -1.028906e-03 -1.620229e-04 -9.853968e-04 -1.570369e-04 -9.364496e-04 -1.844544e-04 -8.813278e-04 -2.381845e-04 -8.122113e-04 -3.103289e-04 -7.242213e-04 -4.019228e-04 -6.178739e-04 -5.141694e-04 -4.909427e-04 -6.479301e-04 -3.465967e-04 -8.055951e-04 -1.884954e-04 -9.808721e-04 -2.168544e-05 -1.163167e-03 1.370642e-04 -1.332579e-03 2.609591e-04 -1.434247e-03 3.241780e-04 -1.298154e-03 3.278038e-04 -2.280019e-04 -4.125449e-03 -3.699509e-03 -1.985342e-03 -7.615659e-04 -8.049268e-04 
-2.201549e-03 -7.092382e-04 -2.981195e-03 -1.779746e-03 -4.945991e-03 2.277457e-03 -2.124900e-03 9.083425e-04 -1.983747e-03 4.623647e-04 -2.308301e-03 3.662395e-04 -3.780016e-03 -1.804419e-03 -4.203916e-03 -2.201080e-03 -4.224444e-03 -3.231607e-03 -3.246992e-03 -4.449391e-03 -1.699949e-03 -4.357033e-03 4.348584e-04 -3.194146e-03 4.883752e-04 -2.757383e-03 4.204660e-04 -2.363554e-03 2.468578e-04 -1.988897e-03 -9.424480e-06 -1.627742e-03 -3.080715e-04 -1.296562e-03 -6.120534e-04 -1.012831e-03 -8.779462e-04 -7.889880e-04 -1.085181e-03 -6.579716e-04 -1.241857e-03 -6.476889e-04 -1.362506e-03 -7.777611e-04 -1.476429e-03 -1.055672e-03 -1.610285e-03 -1.473106e-03 -1.811328e-03 -2.053137e-03 -2.182774e-03 -2.866815e-03 -2.865887e-03 -3.995178e-03 -3.968710e-03 -5.436155e-03 -5.432629e-03 -6.885852e-03 -6.687261e-03 -7.627347e-03 -7.926299e-03 -7.959308e-03 -8.754250e-03 -8.300401e-03 -8.899873e-03 -8.641749e-03 -8.336352e-03 -8.596507e-03 -7.485966e-03 -7.664631e-03 -6.749013e-03 -6.138199e-03 -5.960826e-03 -4.688828e-03 -4.632787e-03 -3.388110e-03 -3.426330e-03 -2.483531e-03 -2.486908e-03 -1.955703e-03 -1.783779e-03 -1.711644e-03 -1.244331e-03 -1.642639e-03 -8.132100e-04 -1.674386e-03 -4.850803e-04 -1.757230e-03 -2.590068e-04 -1.830020e-03 -1.292878e-04 -1.841673e-03 -9.934399e-05 -1.760195e-03 -1.781993e-04 -1.578228e-03 -3.764206e-04 -1.307922e-03 -6.893339e-04 -9.676444e-04 -1.080953e-03 -5.735115e-04 -1.492621e-03 -1.665506e-04 -1.876304e-03 1.858322e-04 -2.175036e-03 4.215579e-04 -2.329331e-03 4.711567e-04 -2.292571e-03 2.828829e-04 -2.013287e-03 -1.694557e-04 -1.461243e-03 -9.069663e-04 -6.335488e-04 -1.933274e-03 4.626429e-04 -3.188237e-03 1.810584e-03 -4.303679e-03 3.365186e-03 -2.752700e-03 -7.420189e-03 -2.379405e-03 -3.330489e-03 -8.539715e-04 
-1.789024e-03 1.113474e-03 -1.774117e-03 2.892982e-03 -1.622900e-03 9.645305e-03 -1.302128e-03 1.052742e-03 2.137281e-03 2.763637e-05 4.398944e-03 -1.410404e-04 7.753564e-03 1.060259e-03 6.897131e-03 1.756813e-03 6.233904e-03 2.210797e-03 5.562027e-03 3.104826e-03 4.542740e-03 4.803559e-03 2.578757e-03 2.355154e-03 1.964252e-03 1.359002e-03 1.577699e-03 9.085228e-04 1.232434e-03 7.600594e-04 9.011945e-04 7.711425e-04 5.888872e-04 8.517520e-04 3.105620e-04 9.433001e-04 8.541076e-05 1.006139e-03 -7.799265e-05 1.003315e-03 -1.856591e-04 9.059114e-04 -2.522740e-04 6.912578e-04 -3.072337e-04 3.413784e-04 -3.927140e-04 -1.603702e-04 -5.779090e-04 -8.536339e-04 -9.773731e-04 -1.813923e-03 -1.742355e-03 -3.129058e-03 -3.002055e-03 -4.814221e-03 -4.743262e-03 -6.453296e-03 -5.786010e-03 -6.573848e-03 -7.152321e-03 -6.117732e-03 -7.684414e-03 -6.239452e-03 -7.576066e-03 -7.022376e-03 -6.607182e-03 -7.703537e-03 -5.794516e-03 -7.031838e-03 -5.665654e-03 -5.652869e-03 -5.875516e-03 -4.464684e-03 -4.510892e-03 -2.937966e-03 -3.045974e-03 -1.744973e-03 -1.862714e-03 -9.825289e-04 -1.000135e-03 -5.726734e-04 -3.802693e-04 -3.961828e-04 7.297399e-05 -3.558352e-04 3.985322e-04 -3.793671e-04 6.155476e-04 -4.041154e-04 7.323448e-04 -3.826356e-04 7.469017e-04 -2.847856e-04 6.539790e-04 -9.860278e-05 4.522648e-04 1.716455e-04 1.539496e-04 5.090007e-04 -2.081373e-04 8.858976e-04 -5.837226e-04 1.255344e-03 -9.184765e-04 1.553722e-03 -1.149905e-03 1.717089e-03 -1.214394e-03 1.682647e-03 -1.058786e-03 1.405271e-03 -6.406322e-04 8.690377e-04 5.370745e-05 8.874317e-05 9.913742e-04 -8.774860e-04 2.062304e-03 -1.912322e-03 2.960148e-03 -2.815882e-03 2.603996e-03 -5.079687e-04 -3.342499e-03 -9.551362e-04 -2.326018e-03 8.744551e-06 
