# vtk DataFile Version 2.0
Comment goes here
ASCII

DATASET STRUCTURED_POINTS
FIELD FieldData 1
TIME 1 1 double
0.72000000
DIMENSIONS    128   16   1

ORIGIN    0.000   0.000   0.000
SPACING   0.0078125 0.015625   1.000

POINT_DATA   2048
SCALARS uX double
LOOKUP_TABLE default

7.379825e-03 3.504810e-03 6.193122e-03 5.838992e-04 4.557314e-03 -2.429076e-03 1.067402e-02 -1.419930e-03 5.017309e-03 -4.668974e-03 -3.434872e-03 -1.382795e-02 -2.128492e-02 -3.691449e-02 -4.577660e-02 -4.822289e-02 -5.262672e-02 -5.088216e-02 -4.984986e-02 -4.416316e-02 -3.814134e-02 -1.964096e-02 -1.392776e-02 -4.165276e-03 -3.594499e-03 2.045933e-03 7.344495e-04 4.574420e-03 2.569042e-03 5.523551e-03 3.351859e-03 5.790551e-03 3.707372e-03 5.762596e-03 3.900356e-03 5.607766e-03 4.035581e-03 5.398400e-03 4.146526e-03 5.167407e-03 4.240461e-03 4.936644e-03 4.319911e-03 4.725836e-03 4.386733e-03 4.550752e-03 4.440427e-03 4.422414e-03 4.481959e-03 4.352195e-03 4.522654e-03 4.358176e-03 4.592556e-03 4.477325e-03 4.772736e-03 4.797818e-03 4.866255e-03 3.768523e-03 5.958030e-03 1.890998e-03 1.087251e-03 3.838431e-03 4.169966e-03 3.069594e-03 -6.614793e-04 1.512160e-03 1.841634e-03 1.996573e-04 5.791201e-03 7.530431e-03 9.676659e-03 9.656443e-03 6.511537e-03 7.186396e-03 4.590107e-03 5.330227e-03 3.584167e-03 4.671596e-03 3.215196e-03 4.415551e-03 3.079609e-03 4.268413e-03 3.060011e-03 4.132732e-03 3.118253e-03 3.973234e-03 3.235284e-03 3.775132e-03 3.395582e-03 3.536473e-03 3.588072e-03 3.269539e-03 3.804242e-03 2.997128e-03 4.027544e-03 2.743655e-03 4.226514e-03 2.533607e-03 4.362073e-03 2.398597e-03 4.399119e-03 2.376428e-03 4.309016e-03 2.498890e-03 4.068935e-03 2.782356e-03 3.669900e-03 3.226925e-03 3.127741e-03 3.814618e-03 2.486235e-03 4.503538e-03 1.818522e-03 5.229476e-03 1.240941e-03 5.918270e-03 9.424163e-04 6.491185e-03 1.238227e-03 6.836299e-03 2.701024e-03 6.664215e-03 6.648682e-03 7.849686e-04 5.670903e-03 2.661872e-03 7.040148e-03 4.166439e-03 
3.101109e-03 4.699096e-05 1.579069e-03 -2.946280e-03 -1.789605e-03 -7.358804e-03 8.409302e-03 -2.689385e-03 3.786591e-03 -1.542484e-03 -2.990423e-04 -1.188123e-03 -5.667059e-03 -4.168112e-04 -1.599962e-03 2.377699e-03 -8.508663e-04 3.059462e-03 -1.328366e-03 1.779748e-03 -3.352779e-03 -2.949271e-03 -2.502569e-03 -5.256853e-04 -1.193794e-03 7.355930e-04 -5.410886e-04 1.381363e-03 -1.909362e-04 1.672757e-03 9.048656e-06 1.748457e-03 1.433343e-04 1.696323e-03 2.653830e-04 1.580282e-03 3.978428e-04 1.427295e-03 5.285623e-04 1.242886e-03 6.395895e-04 1.038078e-03 7.268582e-04 8.378094e-04 7.954699e-04 6.616247e-04 8.342448e-04 5.079265e-04 8.140483e-04 3.505585e-04 6.773199e-04 1.126776e-04 3.144457e-04 -3.729528e-04 -5.094283e-04 -1.603818e-03 -2.969289e-03 -6.011704e-03 -1.767474e-03 -3.789976e-03 -3.744843e-03 -1.671655e-03 -2.034121e-03 -7.824865e-04 -3.249943e-03 -7.890675e-04 4.161094e-04 -2.365441e-03 2.719599e-03 1.383946e-03 3.999832e-03 4.592655e-03 2.130714e-03 3.299601e-03 8.142169e-04 1.466410e-03 -1.625850e-04 7.796191e-04 -5.114517e-04 5.283575e-04 -6.159260e-04 3.967298e-04 -6.023970e-04 2.738753e-04 -5.173139e-04 1.236084e-04 -3.782769e-04 -6.213276e-05 -1.991190e-04 -2.835934e-04 8.290178e-06 -5.321622e-04 2.337587e-04 -7.903326e-04 4.627597e-04 -1.034807e-03 6.655878e-04 -1.245649e-03 8.037009e-04 -1.386148e-03 8.532388e-04 -1.408000e-03 7.864860e-04 -1.283009e-03 5.696681e-04 -9.989246e-04 1.874672e-04 -5.508718e-04 -3.406660e-04 5.704975e-05 -9.657446e-04 7.905592e-04 -1.622976e-03 1.585745e-03 -2.213479e-03 2.372659e-03 -2.578025e-03 3.080032e-03 -2.463450e-03 3.556324e-03 -1.428339e-03 3.213254e-03 1.894127e-03 -6.243143e-03 1.781256e-03 -1.342216e-03 3.049508e-03 4.993145e-04 
1.059610e-02 8.095428e-03 6.909841e-03 1.324983e-03 -5.060049e-03 -1.518971e-02 -3.328432e-03 -1.133853e-02 -2.198376e-03 -6.570330e-03 1.258133e-03 1.174688e-03 1.126964e-02 1.542728e-02 2.039613e-02 2.142704e-02 2.262643e-02 2.312290e-02 2.088061e-02 2.027407e-02 1.544341e-02 9.459981e-03 1.611753e-03 -4.430436e-04 -4.889534e-03 -4.572350e-03 -7.768083e-03 -6.364896e-03 -9.120019e-03 -7.183857e-03 -9.782532e-03 -7.620064e-03 -1.011363e-02 -7.914122e-03 -1.023993e-02 -8.135521e-03 -1.021823e-02 -8.335184e-03 -1.012547e-02 -8.563671e-03 -1.002345e-02 -8.831836e-03 -9.927787e-03 -9.099309e-03 -9.820850e-03 -9.322830e-03 -9.706980e-03 -9.486007e-03 -9.599258e-03 -9.579842e-03 -9.513181e-03 -9.604802e-03 -9.437115e-03 -9.525152e-03 -9.313730e-03 -9.263976e-03 -8.463446e-03 -6.253114e-03 -9.973024e-03 -4.455869e-03 -1.673301e-03 -8.529598e-03 -6.197490e-03 -8.023886e-03 5.443245e-04 -6.033375e-03 -5.984840e-03 -3.788914e-03 -1.471136e-02 -1.613122e-02 -2.241952e-02 -2.084427e-02 -1.764141e-02 -1.655671e-02 -1.447024e-02 -1.284589e-02 -1.268821e-02 -1.115796e-02 -1.194862e-02 -1.036837e-02 -1.159987e-02 -1.001856e-02 -1.140282e-02 -9.912151e-03 -1.124964e-02 -9.948926e-03 -1.108209e-02 -1.007535e-02 -1.088108e-02 -1.027147e-02 -1.064737e-02 -1.052170e-02 -1.038842e-02 -1.080486e-02 -1.011399e-02 -1.109337e-02 -9.856347e-03 -1.137566e-02 -9.660840e-03 -1.160776e-02 -9.534093e-03 -1.172233e-02 -9.501530e-03 -1.169835e-02 -9.617423e-03 -1.153574e-02 -9.914151e-03 -1.122790e-02 -1.037659e-02 -1.076347e-02 -1.096557e-02 -1.018061e-02 -1.166475e-02 -9.574216e-03 -1.245967e-02 -9.054879e-03 -1.332247e-02 -8.735747e-03 -1.422765e-02 -8.810719e-03 -1.514519e-02 -9.795071e-03 -1.540192e-02 -1.393136e-02 2.189547e-03 3.860168e-03 9.487109e-03 8.754910e-03 
9.553306e-03 9.727452e-03 6.669026e-03 4.457326e-03 -4.178902e-03 -1.180035e-02 -2.679439e-02 -2.025671e-02 -2.249486e-02 -2.120600e-02 -2.015208e-02 -2.159134e-02 -1.748095e-02 -2.313570e-02 -2.161453e-02 -2.585170e-02 -2.255442e-02 -2.642129e-02 -2.218144e-02 -2.504759e-02 -2.012605e-02 -2.030541e-02 -1.951721e-02 -2.099046e-02 -2.026484e-02 -2.132778e-02 -2.090552e-02 -2.141275e-02 -2.141308e-02 -2.135945e-02 -2.179319e-02 -2.125522e-02 -2.206440e-02 -2.115032e-02 -2.223178e-02 -2.106116e-02 -2.230197e-02 -2.100218e-02 -2.229931e-02 -2.098581e-02 -2.224642e-02 -2.100697e-02 -2.215026e-02 -2.103897e-02 -2.200345e-02 -2.105131e-02 -2.179852e-02 -2.101895e-02 -2.151953e-02 -2.090691e-02 -2.113474e-02 -2.065179e-02 -2.057099e-02 -2.009837e-02 -1.963708e-02 -1.877801e-02 -1.726192e-02 -1.439907e-02 -1.854766e-02 -1.854220e-02 -1.951372e-02 -2.097163e-02 -2.052556e-02 -2.381075e-02 -2.209042e-02 -2.548673e-02 -2.536218e-02 -2.484300e-02 -2.616920e-02 -2.518395e-02 -2.553593e-02 -2.711234e-02 -2.543873e-02 -2.644581e-02 -2.440758e-02 -2.422593e-02 -2.334723e-02 -2.305495e-02 -2.288483e-02 -2.242486e-02 -2.269102e-02 -2.206092e-02 -2.262349e-02 -2.184199e-02 -2.260638e-02 -2.171199e-02 -2.259399e-02 -2.164793e-02 -2.256232e-02 -2.164383e-02 -2.250218e-02 -2.169276e-02 -2.241275e-02 -2.178473e-02 -2.229485e-02 -2.190949e-02 -2.215660e-02 -2.206450e-02 -2.200916e-02 -2.223867e-02 -2.184829e-02 -2.241399e-02 -2.167655e-02 -2.258777e-02 -2.150898e-02 -2.276148e-02 -2.135917e-02 -2.292842e-02 -2.123351e-02 -2.307366e-02 -2.114143e-02 -2.319346e-02 -2.111391e-02 -2.329902e-02 -2.120082e-02 -2.340159e-02 -2.147621e-02 -2.349167e-02 -2.208374e-02 -2.347702e-02 -2.339421e-02 -2.285234e-02 -2.703219e-02 -8.637931e-03 -2.454239e-03 5.394367e-03 7.129041e-03 9.955611e-03 
3.282671e-02 3.576043e-02 3.524588e-02 4.016875e-02 4.238793e-02 4.974219e-02 2.646862e-02 3.905832e-02 2.685972e-02 3.389438e-02 2.500223e-02 2.846104e-02 1.834858e-02 2.254947e-02 2.142187e-02 2.230310e-02 2.240573e-02 2.206368e-02 2.265279e-02 2.164995e-02 2.227775e-02 2.020804e-02 2.736449e-02 2.651457e-02 3.082963e-02 2.957096e-02 3.245380e-02 3.112218e-02 3.322869e-02 3.195964e-02 3.357946e-02 3.246834e-02 3.371694e-02 3.281833e-02 3.371620e-02 3.305686e-02 3.361272e-02 3.322844e-02 3.346844e-02 3.338237e-02 3.333082e-02 3.353021e-02 3.320010e-02 3.363090e-02 3.304001e-02 3.363305e-02 3.282976e-02 3.349832e-02 3.254489e-02 3.317564e-02 3.213564e-02 3.258613e-02 3.146092e-02 3.152801e-02 3.015313e-02 2.937366e-02 2.624403e-02 2.173471e-02 2.820303e-02 2.774385e-02 2.453827e-02 3.385869e-02 2.799214e-02 3.697380e-02 2.843792e-02 3.641558e-02 3.826835e-02 3.283839e-02 4.483918e-02 3.921266e-02 4.716198e-02 4.567157e-02 4.339559e-02 4.318077e-02 3.996660e-02 3.848804e-02 3.731492e-02 3.622214e-02 3.605971e-02 3.514906e-02 3.538567e-02 3.466526e-02 3.497566e-02 3.449640e-02 3.468355e-02 3.449606e-02 3.443381e-02 3.458223e-02 3.419931e-02 3.471905e-02 3.397499e-02 3.488676e-02 3.376169e-02 3.506737e-02 3.356176e-02 3.523875e-02 3.339811e-02 3.539479e-02 3.330650e-02 3.549765e-02 3.328731e-02 3.548702e-02 3.336157e-02 3.534749e-02 3.358013e-02 3.508374e-02 3.397329e-02 3.469494e-02 3.452606e-02 3.417781e-02 3.520217e-02 3.358122e-02 3.599138e-02 3.301748e-02 3.689126e-02 3.263097e-02 3.789050e-02 3.260233e-02 3.895665e-02 3.326770e-02 3.990064e-02 3.553423e-02 3.897710e-02 4.938684e-02 3.433460e-02 3.772418e-02 3.228201e-02 3.514418e-02 
3.703140e-02 3.882718e-02 3.998097e-02 4.442519e-02 5.057820e-02 6.063301e-02 5.827716e-02 6.054000e-02 5.515900e-02 5.740261e-02 5.226086e-02 5.307402e-02 4.605714e-02 4.630083e-02 4.606334e-02 4.623849e-02 4.620440e-02 4.615532e-02 4.628272e-02 4.608781e-02 4.626128e-02 4.610225e-02 5.109958e-02 5.169794e-02 5.458473e-02 5.460357e-02 5.663941e-02 5.611942e-02 5.782781e-02 5.687965e-02 5.849645e-02 5.727274e-02 5.886204e-02 5.750097e-02 5.902586e-02 5.764488e-02 5.904537e-02 5.776141e-02 5.898976e-02 5.789886e-02 5.891399e-02 5.807178e-02 5.883824e-02 5.825647e-02 5.876031e-02 5.843172e-02 5.870021e-02 5.860905e-02 5.870045e-02 5.882987e-02 5.883579e-02 5.917911e-02 5.920503e-02 5.974241e-02 5.986666e-02 6.043845e-02 6.024540e-02 5.951002e-02 5.999546e-02 6.268971e-02 6.341759e-02 6.291731e-02 6.170105e-02 6.511133e-02 6.569172e-02 6.537979e-02 6.517906e-02 6.585520e-02 6.351156e-02 6.147592e-02 6.001920e-02 6.107452e-02 6.243575e-02 6.235567e-02 6.198473e-02 6.096036e-02 6.108915e-02 6.002734e-02 6.055142e-02 5.946515e-02 6.022829e-02 5.915486e-02 6.002325e-02 5.901128e-02 5.986903e-02 5.897646e-02 5.971944e-02 5.901576e-02 5.955440e-02 5.911627e-02 5.937011e-02 5.926699e-02 5.916981e-02 5.945266e-02 5.895832e-02 5.965377e-02 5.875589e-02 5.986209e-02 5.859156e-02 6.004649e-02 5.846691e-02 6.015977e-02 5.839874e-02 6.018820e-02 5.842657e-02 6.013245e-02 5.857675e-02 5.998707e-02 5.884498e-02 5.974308e-02 5.921466e-02 5.942954e-02 5.969227e-02 5.912258e-02 6.029464e-02 5.892010e-02 6.104090e-02 5.893310e-02 6.198038e-02 5.932659e-02 6.328876e-02 6.040240e-02 6.561879e-02 5.834213e-02 4.601114e-02 4.295813e-02 3.848195e-02 3.848550e-02 
4.764575e-02 4.945093e-02 4.899219e-02 5.224698e-02 5.317076e-02 5.894534e-02 6.214363e-02 6.349314e-02 6.176778e-02 6.400864e-02 6.213524e-02 6.409635e-02 6.314720e-02 6.344983e-02 6.315857e-02 6.337420e-02 6.333138e-02 6.327062e-02 6.343240e-02 6.317831e-02 6.341994e-02 6.318217e-02 6.310029e-02 6.259504e-02 6.289694e-02 6.238361e-02 6.298642e-02 6.232699e-02 6.314459e-02 6.232018e-02 6.329182e-02 6.234007e-02 6.339890e-02 6.238188e-02 6.345344e-02 6.244202e-02 6.345564e-02 6.252177e-02 6.341919e-02 6.262457e-02 6.336133e-02 6.274848e-02 6.329583e-02 6.288590e-02 6.323589e-02 6.303558e-02 6.320578e-02 6.321675e-02 6.325050e-02 6.348069e-02 6.345261e-02 6.393286e-02 6.396520e-02 6.477281e-02 6.509826e-02 6.657112e-02 6.844719e-02 7.275296e-02 6.755736e-02 6.825215e-02 6.894769e-02 6.549907e-02 6.787631e-02 6.374212e-02 6.699795e-02 6.450132e-02 6.210130e-02 6.703469e-02 6.009128e-02 6.498923e-02 6.067509e-02 6.094428e-02 6.230300e-02 6.122388e-02 6.335126e-02 6.326220e-02 6.426218e-02 6.385122e-02 6.443073e-02 6.390402e-02 6.439023e-02 6.382701e-02 6.429571e-02 6.375178e-02 6.418727e-02 6.371772e-02 6.406897e-02 6.373294e-02 6.393802e-02 6.379569e-02 6.379402e-02 6.389801e-02 6.364051e-02 6.402780e-02 6.348421e-02 6.417082e-02 6.333689e-02 6.431276e-02 6.321257e-02 6.443477e-02 6.312126e-02 6.451627e-02 6.307487e-02 6.454459e-02 6.308730e-02 6.451341e-02 6.316620e-02 6.441894e-02 6.330729e-02 6.426122e-02 6.349597e-02 6.405130e-02 6.371036e-02 6.381022e-02 6.391353e-02 6.355781e-02 6.404239e-02 6.330045e-02 6.401115e-02 6.302058e-02 6.378832e-02 6.261361e-02 6.396621e-02 5.722389e-02 5.346773e-02 5.153814e-02 4.896539e-02 4.920882e-02 
4.706445e-02 4.813975e-02 4.851995e-02 5.080621e-02 5.213882e-02 5.526911e-02 5.685715e-02 5.914865e-02 6.029896e-02 6.208908e-02 6.493995e-02 6.645054e-02 7.383978e-02 7.399916e-02 7.389918e-02 7.398285e-02 7.395064e-02 7.394904e-02 7.398490e-02 7.391078e-02 7.399005e-02 7.386824e-02 6.769208e-02 6.653668e-02 6.364788e-02 6.270688e-02 6.158301e-02 6.062871e-02 6.055457e-02 5.952404e-02 6.007101e-02 5.895570e-02 5.985029e-02 5.868420e-02 5.974085e-02 5.858034e-02 5.966856e-02 5.857729e-02 5.960513e-02 5.864040e-02 5.954414e-02 5.874731e-02 5.948616e-02 5.887916e-02 5.943379e-02 5.902079e-02 5.939148e-02 5.916056e-02 5.936029e-02 5.928282e-02 5.932722e-02 5.935500e-02 5.925038e-02 5.931359e-02 5.905897e-02 5.915604e-02 5.919376e-02 6.059726e-02 5.966482e-02 5.938643e-02 5.934352e-02 5.904225e-02 5.991907e-02 5.833581e-02 5.848683e-02 5.914032e-02 5.778679e-02 5.914671e-02 5.725812e-02 5.929083e-02 5.839999e-02 5.806457e-02 5.786137e-02 5.757341e-02 5.883654e-02 5.874280e-02 5.964069e-02 5.919152e-02 5.996508e-02 5.934069e-02 6.009318e-02 5.939141e-02 6.012701e-02 5.942583e-02 6.010660e-02 5.947707e-02 6.004701e-02 5.955689e-02 5.995570e-02 5.966731e-02 5.983906e-02 5.980348e-02 5.970455e-02 5.995552e-02 5.956225e-02 6.011068e-02 5.942626e-02 6.025491e-02 5.931246e-02 6.037064e-02 5.923412e-02 6.043888e-02 5.920372e-02 6.044534e-02 5.923208e-02 6.038081e-02 5.932236e-02 6.023907e-02 5.946471e-02 6.001651e-02 5.963484e-02 5.971349e-02 5.979242e-02 5.932881e-02 5.987207e-02 5.884574e-02 5.976964e-02 5.821450e-02 5.932570e-02 5.732895e-02 5.829384e-02 5.597135e-02 5.627866e-02 5.327542e-02 5.141725e-02 4.972790e-02 4.809185e-02 4.779948e-02 
5.182411e-02 5.309453e-02 5.284834e-02 5.514951e-02 5.578012e-02 5.864934e-02 6.009386e-02 6.220517e-02 6.345880e-02 6.521477e-02 6.797467e-02 6.957813e-02 7.707927e-02 7.728055e-02 7.713803e-02 7.724729e-02 7.721232e-02 7.719153e-02 7.726856e-02 7.713731e-02 7.728338e-02 7.709695e-02 7.117216e-02 6.998406e-02 6.730288e-02 6.632346e-02 6.528670e-02 6.436234e-02 6.427084e-02 6.335752e-02 6.379693e-02 6.287354e-02 6.358989e-02 6.266936e-02 6.350031e-02 6.261751e-02 6.345400e-02 6.265197e-02 6.341890e-02 6.273806e-02 6.338473e-02 6.285595e-02 6.335151e-02 6.299327e-02 6.332401e-02 6.314242e-02 6.330861e-02 6.329870e-02 6.330961e-02 6.345677e-02 6.332446e-02 6.360656e-02 6.333963e-02 6.373139e-02 6.332386e-02 6.379845e-02 6.322388e-02 6.387408e-02 6.306758e-02 6.323364e-02 6.288619e-02 6.252039e-02 6.247763e-02 6.201804e-02 6.177750e-02 6.181832e-02 6.078489e-02 6.184649e-02 6.030074e-02 6.154625e-02 6.046821e-02 6.111116e-02 6.088711e-02 6.142167e-02 6.193716e-02 6.219117e-02 6.273114e-02 6.271643e-02 6.322467e-02 6.303290e-02 6.351080e-02 6.321981e-02 6.366239e-02 6.334311e-02 6.372588e-02 6.344519e-02 6.372850e-02 6.354996e-02 6.368694e-02 6.366798e-02 6.361264e-02 6.379980e-02 6.351529e-02 6.393941e-02 6.340569e-02 6.407765e-02 6.329710e-02 6.420372e-02 6.320381e-02 6.430523e-02 6.313864e-02 6.436900e-02 6.311152e-02 6.438334e-02 6.312831e-02 6.433970e-02 6.318837e-02 6.423250e-02 6.328097e-02 6.405781e-02 6.338199e-02 6.381041e-02 6.344978e-02 6.347703e-02 6.341916e-02 6.302447e-02 6.319480e-02 6.238223e-02 6.264500e-02 6.141165e-02 6.157778e-02 5.983032e-02 5.963343e-02 5.706112e-02 5.569933e-02 5.430034e-02 5.283722e-02 5.282792e-02 
4.706441e-02 4.814103e-02 4.852020e-02 5.080643e-02 5.213938e-02 5.526844e-02 5.685783e-02 5.914715e-02 6.029936e-02 6.208747e-02 6.493977e-02 6.644945e-02 7.383938e-02 7.399942e-02 7.389902e-02 7.398336e-02 7.395120e-02 7.394962e-02 7.398641e-02 7.391121e-02 7.399197e-02 7.386815e-02 6.770032e-02 6.653316e-02 6.365715e-02 6.270440e-02 6.159197e-02 6.063198e-02 6.056077e-02 5.953423e-02 6.007063e-02 5.897078e-02 5.984040e-02 5.870255e-02 5.972401e-02 5.860385e-02 5.965120e-02 5.860622e-02 5.959014e-02 5.866846e-02 5.952729e-02 5.876193e-02 5.945721e-02 5.886505e-02 5.937812e-02 5.896023e-02 5.928745e-02 5.903056e-02 5.917795e-02 5.905628e-02 5.903453e-02 5.901505e-02 5.884143e-02 5.889761e-02 5.860654e-02 5.873891e-02 5.839310e-02 5.863998e-02 5.825315e-02 5.838522e-02 5.811185e-02 5.820208e-02 5.803355e-02 5.809764e-02 5.781126e-02 5.815303e-02 5.766307e-02 5.818638e-02 5.766854e-02 5.819816e-02 5.791355e-02 5.811738e-02 5.816104e-02 5.818059e-02 5.860760e-02 5.845789e-02 5.905259e-02 5.871490e-02 5.940046e-02 5.890986e-02 5.964295e-02 5.905564e-02 5.979265e-02 5.917563e-02 5.986460e-02 5.929199e-02 5.987467e-02 5.942233e-02 5.983716e-02 5.957447e-02 5.976192e-02 5.974423e-02 5.965559e-02 5.991964e-02 5.952863e-02 6.008866e-02 5.939901e-02 6.024010e-02 5.928801e-02 6.036089e-02 5.921459e-02 6.043455e-02 5.919138e-02 6.044412e-02 5.922585e-02 6.037832e-02 5.931982e-02 6.023225e-02 5.946474e-02 6.000585e-02 5.963785e-02 5.970129e-02 5.979811e-02 5.931716e-02 5.987884e-02 5.883598e-02 5.977536e-02 5.820786e-02 5.932933e-02 5.732657e-02 5.829459e-02 5.597229e-02 5.627659e-02 5.327914e-02 5.141666e-02 4.973143e-02 4.809160e-02 4.780191e-02 
4.764548e-02 4.945381e-02 4.899269e-02 5.224828e-02 5.317208e-02 5.894658e-02 6.214683e-02 6.348883e-02 6.177054e-02 6.400465e-02 6.213568e-02 6.409370e-02 6.314394e-02 6.345049e-02 6.315654e-02 6.337613e-02 6.333139e-02 6.327214e-02 6.343621e-02 6.317845e-02 6.342614e-02 6.318273e-02 6.312341e-02 6.258851e-02 6.292342e-02 6.238318e-02 6.301534e-02 6.234344e-02 6.317301e-02 6.235778e-02 6.331503e-02 6.239772e-02 6.341467e-02 6.246016e-02 6.347143e-02 6.254987e-02 6.349464e-02 6.266726e-02 6.349344e-02 6.280639e-02 6.347464e-02 6.295682e-02 6.344331e-02 6.310827e-02 6.340485e-02 6.325203e-02 6.336238e-02 6.337909e-02 6.331397e-02 6.347608e-02 6.324733e-02 6.352069e-02 6.314235e-02 6.348760e-02 6.298183e-02 6.335628e-02 6.276201e-02 6.311497e-02 6.249682e-02 6.276365e-02 6.216906e-02 6.242379e-02 6.186282e-02 6.213106e-02 6.150672e-02 6.192606e-02 6.126625e-02 6.183707e-02 6.123455e-02 6.187189e-02 6.141206e-02 6.192795e-02 6.169430e-02 6.205941e-02 6.210458e-02 6.228329e-02 6.253920e-02 6.252829e-02 6.292714e-02 6.275091e-02 6.323500e-02 6.293829e-02 6.345241e-02 6.309583e-02 6.358261e-02 6.324028e-02 6.363990e-02 6.339198e-02 6.364098e-02 6.356220e-02 6.359658e-02 6.374712e-02 6.351149e-02 6.393352e-02 6.339522e-02 6.411091e-02 6.326815e-02 6.427181e-02 6.315484e-02 6.440679e-02 6.307672e-02 6.450084e-02 6.304638e-02 6.453645e-02 6.307193e-02 6.450379e-02 6.315909e-02 6.440184e-02 6.330617e-02 6.423752e-02 6.350150e-02 6.402541e-02 6.372167e-02 6.378613e-02 6.392730e-02 6.353803e-02 6.405423e-02 6.328713e-02 6.401903e-02 6.301546e-02 6.379051e-02 6.261396e-02 6.396168e-02 5.723326e-02 5.346671e-02 5.154557e-02 4.896449e-02 4.921377e-02 
3.703087e-02 3.883059e-02 3.998182e-02 4.442584e-02 5.058267e-02 6.063164e-02 5.828001e-02 6.053268e-02 5.516087e-02 5.739639e-02 5.225905e-02 5.306899e-02 4.605315e-02 4.630152e-02 4.606126e-02 4.624070e-02 4.620526e-02 4.615790e-02 4.628923e-02 4.609063e-02 4.627130e-02 4.610521e-02 5.113308e-02 5.167191e-02 5.461546e-02 5.458358e-02 5.667412e-02 5.613302e-02 5.786073e-02 5.692898e-02 5.850822e-02 5.733711e-02 5.882644e-02 5.756383e-02 5.895881e-02 5.773383e-02 5.899829e-02 5.789985e-02 5.898925e-02 5.807111e-02 5.894874e-02 5.823277e-02 5.888008e-02 5.837145e-02 5.879278e-02 5.848149e-02 5.869527e-02 5.856378e-02 5.859964e-02 5.862040e-02 5.849979e-02 5.863356e-02 5.837790e-02 5.859018e-02 5.822733e-02 5.848581e-02 5.805899e-02 5.833675e-02 5.791279e-02 5.818696e-02 5.776607e-02 5.809804e-02 5.769618e-02 5.801742e-02 5.758350e-02 5.794309e-02 5.755856e-02 5.788643e-02 5.763320e-02 5.791244e-02 5.779515e-02 5.791773e-02 5.797230e-02 5.791537e-02 5.821135e-02 5.796129e-02 5.849658e-02 5.806419e-02 5.879648e-02 5.819743e-02 5.906126e-02 5.832845e-02 5.924677e-02 5.843823e-02 5.933194e-02 5.854277e-02 5.933951e-02 5.868613e-02 5.930335e-02 5.889249e-02 5.923225e-02 5.914177e-02 5.910443e-02 5.938860e-02 5.891542e-02 5.961665e-02 5.870424e-02 5.982710e-02 5.852074e-02 6.001613e-02 5.840654e-02 6.015651e-02 5.837058e-02 6.020296e-02 5.841985e-02 6.013875e-02 5.857416e-02 5.996722e-02 5.884256e-02 5.970499e-02 5.922319e-02 5.938831e-02 5.971332e-02 5.908601e-02 6.032083e-02 5.888903e-02 6.105921e-02 5.891095e-02 6.199107e-02 5.932399e-02 6.328664e-02 6.041037e-02 6.559344e-02 5.836205e-02 4.601262e-02 4.297195e-02 3.848129e-02 3.849271e-02 
3.282535e-02 3.576426e-02 3.524773e-02 4.016967e-02 4.239512e-02 4.973786e-02 2.646761e-02 3.906861e-02 2.685855e-02 3.390642e-02 2.500216e-02 2.846970e-02 1.835478e-02 2.255325e-02 2.142070e-02 2.231242e-02 2.240253e-02 2.206928e-02 2.266043e-02 2.164468e-02 2.229023e-02 2.020008e-02 2.735608e-02 2.650777e-02 3.081115e-02 2.959282e-02 3.244832e-02 3.119891e-02 3.323957e-02 3.208750e-02 3.358889e-02 3.261698e-02 3.369393e-02 3.296682e-02 3.368415e-02 3.324859e-02 3.364454e-02 3.350741e-02 3.361071e-02 3.374949e-02 3.359126e-02 3.396054e-02 3.358228e-02 3.413486e-02 3.359210e-02 3.428006e-02 3.363040e-02 3.441296e-02 3.371413e-02 3.455045e-02 3.383437e-02 3.467663e-02 3.395683e-02 3.476888e-02 3.404150e-02 3.479517e-02 3.404976e-02 3.474895e-02 3.399511e-02 3.460752e-02 3.394543e-02 3.436213e-02 3.377382e-02 3.409796e-02 3.360195e-02 3.381787e-02 3.331609e-02 3.351884e-02 3.306324e-02 3.316705e-02 3.296402e-02 3.298448e-02 3.310004e-02 3.301160e-02 3.333840e-02 3.313964e-02 3.359218e-02 3.331551e-02 3.384062e-02 3.351477e-02 3.404739e-02 3.370243e-02 3.417103e-02 3.385248e-02 3.419154e-02 3.398179e-02 3.414224e-02 3.414511e-02 3.406809e-02 3.437345e-02 3.397906e-02 3.464166e-02 3.384364e-02 3.489132e-02 3.365307e-02 3.510187e-02 3.345654e-02 3.527419e-02 3.331795e-02 3.540189e-02 3.329157e-02 3.544818e-02 3.338824e-02 3.535338e-02 3.361505e-02 3.509798e-02 3.399363e-02 3.469124e-02 3.452761e-02 3.416213e-02 3.520175e-02 3.356740e-02 3.599460e-02 3.300927e-02 3.689332e-02 3.262426e-02 3.787925e-02 3.259915e-02 3.893744e-02 3.328309e-02 3.987006e-02 3.555906e-02 3.892478e-02 4.940783e-02 3.432728e-02 3.773865e-02 3.227779e-02 3.515176e-02 
9.547089e-03 9.728965e-03 6.664179e-03 4.459191e-03 -4.185033e-03 -1.180007e-02 -2.680510e-02 -2.023911e-02 -2.250650e-02 -2.119077e-02 -2.016078e-02 -2.158451e-02 -1.748689e-02 -2.314397e-02 -2.160521e-02 -2.587621e-02 -2.254099e-02 -2.644146e-02 -2.219251e-02 -2.503253e-02 -2.017353e-02 -2.025382e-02 -1.959422e-02 -2.092094e-02 -2.035201e-02 -2.126016e-02 -2.099735e-02 -2.136390e-02 -2.150165e-02 -2.133660e-02 -2.186819e-02 -2.125586e-02 -2.211625e-02 -2.117392e-02 -2.227424e-02 -2.112865e-02 -2.236830e-02 -2.113465e-02 -2.241375e-02 -2.119019e-02 -2.242000e-02 -2.128306e-02 -2.239390e-02 -2.140151e-02 -2.234744e-02 -2.153751e-02 -2.229308e-02 -2.168667e-02 -2.224481e-02 -2.184497e-02 -2.220518e-02 -2.199487e-02 -2.216458e-02 -2.211081e-02 -2.210686e-02 -2.215417e-02 -2.200886e-02 -2.207922e-02 -2.186157e-02 -2.192012e-02 -2.159398e-02 -2.180703e-02 -2.142848e-02 -2.165879e-02 -2.118398e-02 -2.153736e-02 -2.116123e-02 -2.152923e-02 -2.132228e-02 -2.172791e-02 -2.153108e-02 -2.180443e-02 -2.160392e-02 -2.172255e-02 -2.167771e-02 -2.161402e-02 -2.178640e-02 -2.154394e-02 -2.192610e-02 -2.151296e-02 -2.206772e-02 -2.150560e-02 -2.218181e-02 -2.150934e-02 -2.225065e-02 -2.152744e-02 -2.227966e-02 -2.157660e-02 -2.228193e-02 -2.166476e-02 -2.226035e-02 -2.178035e-02 -2.220319e-02 -2.190233e-02 -2.210559e-02 -2.202668e-02 -2.198134e-02 -2.216029e-02 -2.184707e-02 -2.230928e-02 -2.171457e-02 -2.246882e-02 -2.158099e-02 -2.262394e-02 -2.144595e-02 -2.276986e-02 -2.132029e-02 -2.290556e-02 -2.121604e-02 -2.302911e-02 -2.114826e-02 -2.314030e-02 -2.114222e-02 -2.324639e-02 -2.124259e-02 -2.335397e-02 -2.152044e-02 -2.345256e-02 -2.212618e-02 -2.345127e-02 -2.342846e-02 -2.283418e-02 -2.704856e-02 -8.641974e-03 -2.472893e-03 5.392539e-03 7.118853e-03 9.956241e-03 
1.059164e-02 8.096748e-03 6.905173e-03 1.328875e-03 -5.068321e-03 -1.518158e-02 -3.331171e-03 -1.133466e-02 -2.199379e-03 -6.568617e-03 1.261716e-03 1.175291e-03 1.127647e-02 1.542457e-02 2.041972e-02 2.140366e-02 2.265190e-02 2.311295e-02 2.085382e-02 2.032133e-02 1.533545e-02 9.531958e-03 1.534527e-03 -3.606894e-04 -4.945033e-03 -4.506687e-03 -7.821982e-03 -6.342442e-03 -9.170765e-03 -7.201387e-03 -9.806486e-03 -7.646187e-03 -1.007311e-02 -7.924088e-03 -1.015099e-02 -8.166143e-03 -1.014395e-02 -8.419111e-03 -1.009677e-02 -8.683667e-03 -1.002484e-02 -8.935860e-03 -9.930200e-03 -9.158786e-03 -9.827792e-03 -9.350119e-03 -9.735425e-03 -9.521283e-03 -9.680839e-03 -9.691040e-03 -9.668933e-03 -9.855301e-03 -9.685406e-03 -1.001993e-02 -9.722634e-03 -1.020758e-02 -9.794731e-03 -1.052013e-02 -9.969933e-03 -1.081500e-02 -1.056563e-02 -1.075197e-02 -1.062024e-02 -1.078774e-02 -1.086991e-02 -1.073700e-02 -1.025872e-02 -1.026528e-02 -9.273876e-03 -8.965351e-03 -8.603526e-03 -8.230674e-03 -8.915204e-03 -8.306083e-03 -9.482904e-03 -8.627755e-03 -1.000061e-02 -8.926277e-03 -1.041449e-02 -9.177891e-03 -1.071387e-02 -9.381712e-03 -1.087942e-02 -9.539240e-03 -1.090450e-02 -9.684403e-03 -1.083164e-02 -9.881068e-03 -1.071288e-02 -1.016244e-02 -1.056304e-02 -1.050026e-02 -1.035348e-02 -1.083074e-02 -1.007854e-02 -1.112935e-02 -9.791995e-03 -1.139427e-02 -9.561931e-03 -1.161623e-02 -9.445558e-03 -1.175447e-02 -9.455093e-03 -1.174485e-02 -9.599281e-03 -1.156428e-02 -9.901363e-03 -1.121755e-02 -1.036431e-02 -1.072670e-02 -1.096909e-02 -1.013772e-02 -1.168661e-02 -9.534449e-03 -1.249088e-02 -9.017996e-03 -1.334615e-02 -8.705780e-03 -1.424489e-02 -8.803115e-03 -1.514817e-02 -9.799384e-03 -1.537500e-02 -1.394561e-02 2.178864e-03 3.852029e-03 9.480808e-03 8.753136e-03 
3.098583e-03 4.777178e-05 1.576007e-03 -2.944184e-03 -1.794314e-03 -7.353267e-03 8.409248e-03 -2.693556e-03 3.787784e-03 -1.546571e-03 -2.965058e-04 -1.189292e-03 -5.663332e-03 -4.147309e-04 -1.611881e-03 2.394538e-03 -8.740067e-04 3.081119e-03 -1.349737e-03 1.789652e-03 -3.371027e-03 -2.945636e-03 -2.519850e-03 -5.128995e-04 -1.203354e-03 7.436390e-04 -5.533326e-04 1.371874e-03 -2.070022e-04 1.646109e-03 -2.751226e-06 1.716015e-03 1.493614e-04 1.666090e-03 2.823224e-04 1.536345e-03 4.002292e-04 1.354477e-03 5.014247e-04 1.144012e-03 5.839006e-04 9.278778e-04 6.468211e-04 7.202611e-04 6.816311e-04 5.226771e-04 6.741565e-04 3.234598e-04 6.031676e-04 1.016690e-04 4.564898e-04 -1.590024e-04 2.375894e-04 -4.719327e-04 -1.492412e-05 -7.934928e-04 -1.599643e-04 -1.104290e-03 -1.583046e-04 -9.063053e-04 -2.952851e-04 -3.196339e-04 1.295212e-04 1.795432e-04 4.422455e-04 6.866430e-04 1.411038e-03 1.152676e-03 2.191685e-03 2.140285e-03 2.430502e-03 2.639637e-03 1.972701e-03 2.333438e-03 1.122077e-03 1.740925e-03 5.084289e-04 1.311042e-03 1.001701e-04 9.860521e-04 -1.598090e-04 7.291504e-04 -2.907764e-04 5.162042e-04 -3.066068e-04 3.172444e-04 -2.374921e-04 9.528869e-05 -1.160290e-04 -1.686430e-04 4.212469e-05 -4.614799e-04 2.390032e-04 -7.492949e-04 4.642778e-04 -1.009064e-03 6.781601e-04 -1.224039e-03 8.309821e-04 -1.370336e-03 8.786731e-04 -1.409172e-03 7.978578e-04 -1.296175e-03 5.721139e-04 -1.010348e-03 1.901158e-04 -5.510466e-04 -3.355527e-04 6.501212e-05 -9.638868e-04 8.003003e-04 -1.625797e-03 1.594828e-03 -2.218276e-03 2.381770e-03 -2.579214e-03 3.087513e-03 -2.461893e-03 3.555583e-03 -1.421616e-03 3.206575e-03 1.910348e-03 -6.245973e-03 1.779428e-03 -1.344393e-03 3.047135e-03 4.989609e-04 
