# vtk DataFile Version 2.0
Comment goes here
ASCII

DATASET STRUCTURED_POINTS
FIELD FieldData 1
TIME 1 1 double
0.50000000
DIMENSIONS    128   16   1

ORIGIN    0.000   0.000   0.000
SPACING   0.0078125 0.015625   1.000

POINT_DATA   2048
SCALARS uY double
LOOKUP_TABLE default

5.311526e-06 -4.486597e-07 4.899080e-06 -4.208164e-07 5.417473e-06 5.336682e-07 8.474305e-06 2.037737e-06 2.239084e-06 2.451370e-07 -5.477409e-06 -3.276939e-06 -9.681806e-06 -6.829654e-06 -8.585582e-06 -1.690159e-05 2.056739e-06 -2.954232e-05 1.232580e-05 -3.722888e-05 1.118066e-05 -4.180284e-05 2.156285e-05 -3.990360e-05 2.674981e-05 -3.099466e-05 1.803353e-05 -2.752827e-05 -9.689892e-06 -2.894865e-05 -4.781631e-05 -2.960498e-05 -8.660848e-05 -2.621249e-05 -1.194454e-04 -2.389050e-05 -1.548890e-04 -4.528268e-05 -2.141075e-04 -1.120145e-04 -3.068799e-04 -2.290620e-04 -4.313080e-04 -3.946789e-04 -5.863582e-04 -6.131866e-04 -7.919234e-04 -9.214987e-04 -1.112941e-03 -1.389735e-03 -1.623482e-03 -2.050148e-03 -2.312662e-03 -2.795653e-03 -2.983792e-03 -3.324389e-03 -2.995582e-03 -1.710893e-03 -2.121959e-04 -2.468212e-03 1.158871e-03 -9.873816e-04 3.980647e-05 4.615103e-05 -1.736395e-03 1.942100e-03 -2.373112e-03 1.988535e-03 -3.335809e-04 7.931694e-04 1.881030e-03 -3.246281e-04 3.374581e-03 2.959251e-03 3.507750e-03 2.796063e-03 2.770077e-03 2.239421e-03 2.019110e-03 1.641055e-03 1.382716e-03 1.147980e-03 9.012382e-04 7.778883e-04 5.574499e-04 5.139955e-04 3.376584e-04 3.515120e-04 2.273141e-04 2.625008e-04 1.727078e-04 1.908878e-04 1.201515e-04 1.122189e-04 6.500001e-05 4.646943e-05 3.220842e-05 1.903864e-05 3.349157e-05 2.417537e-05 4.480187e-05 2.627725e-05 3.358389e-05 6.634489e-06 5.158546e-06 -1.123149e-05 -7.570930e-06 -4.017036e-06 1.951452e-06 1.405184e-05 8.717982e-06 1.477048e-05 -7.275240e-06 -7.652753e-06 -3.178404e-05 -2.203388e-05 -2.854239e-05 -4.957115e-06 -3.840000e-08 1.661313e-05 1.703965e-05 1.503508e-05 1.528947e-05 3.643541e-06 9.563385e-06 5.973966e-07 6.617417e-06 -2.173601e-07 
9.946998e-04 -2.615804e-05 2.002741e-03 4.767738e-04 4.996361e-03 3.838782e-04 -5.707932e-03 2.007314e-03 -1.345240e-03 1.712017e-04 -1.193034e-03 1.773328e-04 1.954015e-03 2.415330e-03 -7.996382e-04 1.264293e-03 4.450018e-04 -6.300281e-04 3.783607e-04 -1.219849e-03 -2.732922e-03 -1.749212e-03 2.928788e-04 5.555555e-04 6.365225e-04 1.537720e-04 5.191178e-04 -5.185052e-05 4.408145e-04 -1.572027e-04 3.556396e-04 -1.898334e-04 2.621624e-04 -1.677763e-04 1.622700e-04 -1.093385e-04 5.631394e-05 -4.286825e-05 -6.343176e-05 1.362119e-06 -1.977422e-04 4.285497e-06 -3.405116e-04 -5.108561e-05 -4.950812e-04 -1.979379e-04 -7.051033e-04 -5.210462e-04 -1.094502e-03 -1.186692e-03 -1.890055e-03 -2.467710e-03 -3.493554e-03 -4.925427e-03 -6.948274e-03 -1.018990e-02 -1.286041e-02 -4.067925e-03 -1.563092e-03 -8.493570e-03 1.746002e-03 -5.433764e-03 -3.757289e-04 -1.148277e-03 -4.486341e-03 5.289657e-03 -5.151588e-03 7.048573e-03 1.499208e-03 3.208009e-03 8.875051e-03 -1.470864e-03 1.081519e-02 1.209811e-02 8.012954e-03 5.642129e-03 3.744914e-03 2.860290e-03 1.873908e-03 1.602997e-03 8.826777e-04 9.915660e-04 3.488281e-04 6.712429e-04 6.779981e-05 4.591123e-04 -5.675232e-05 2.993466e-04 -5.274485e-05 1.738412e-04 2.872416e-05 3.972558e-05 1.189039e-04 -1.200648e-04 1.980899e-04 -2.652107e-04 2.866043e-04 -3.483075e-04 3.784390e-04 -3.743331e-04 4.172342e-04 -3.782699e-04 3.630179e-04 -3.491596e-04 2.422315e-04 -2.385230e-04 9.217621e-05 -3.909903e-05 -9.432646e-05 2.052160e-04 -3.332081e-04 4.451992e-04 -6.162638e-04 6.351262e-04 -8.989905e-04 7.400756e-04 -1.086309e-03 6.897649e-04 -1.067392e-03 2.840750e-04 -6.340586e-04 -8.586302e-04 2.402864e-03 -3.421865e-03 -6.670518e-04 -8.069943e-04 3.611856e-04 -1.281151e-04 
1.648098e-03 -1.574470e-04 3.273810e-03 5.059722e-04 1.335041e-02 6.593856e-04 -1.623941e-02 6.905233e-03 -2.257554e-03 4.146183e-03 -7.205387e-04 6.674782e-03 2.497035e-03 -1.792633e-03 1.357744e-03 -1.232674e-03 9.238710e-04 -1.276070e-03 1.885727e-03 -2.058941e-03 3.420018e-03 -3.725763e-03 -4.669332e-03 -1.366936e-03 -2.006149e-03 -9.513216e-04 -8.899907e-04 -8.175688e-04 -2.830531e-04 -7.427562e-04 1.362656e-05 -6.527370e-04 1.074960e-04 -5.363394e-04 7.344475e-05 -3.832820e-04 -3.319384e-05 -2.245071e-04 -2.067708e-04 -1.101024e-04 -4.311440e-04 -6.441483e-05 -6.820190e-04 -1.137587e-04 -9.473593e-04 -2.972182e-04 -1.269343e-03 -7.354276e-04 -1.832298e-03 -1.676321e-03 -2.943021e-03 -3.435605e-03 -5.085843e-03 -6.661919e-03 -9.516729e-03 -1.271645e-02 -1.529777e-02 7.954821e-04 7.956673e-03 -4.826952e-03 8.197149e-03 -6.721310e-03 3.535405e-03 4.413974e-03 -5.045565e-03 8.132311e-03 -1.000196e-02 5.340608e-03 -8.162754e-03 -3.724716e-03 4.949031e-03 -1.191169e-02 1.298091e-02 1.643232e-02 1.133389e-02 8.203002e-03 5.446099e-03 4.373229e-03 2.739088e-03 2.571882e-03 1.256599e-03 1.708856e-03 4.978669e-04 1.278449e-03 1.024883e-04 9.244211e-04 -1.056686e-04 6.089768e-04 -8.111257e-05 3.805083e-04 1.071399e-04 1.304769e-04 2.821606e-04 -2.055391e-04 4.088619e-04 -5.175611e-04 5.789435e-04 -6.690071e-04 7.957337e-04 -6.974903e-04 8.862512e-04 -7.351116e-04 7.428348e-04 -7.316518e-04 4.819804e-04 -5.211435e-04 2.067158e-04 -1.070789e-04 -1.516213e-04 3.839732e-04 -6.373020e-04 8.768671e-04 -1.232001e-03 1.279831e-03 -1.882595e-03 1.563007e-03 -2.377142e-03 1.721155e-03 -2.479999e-03 1.476059e-03 -1.659466e-03 -4.262100e-06 7.696848e-03 -1.079177e-02 -1.536205e-03 1.868237e-03 1.241380e-03 7.327249e-04 
1.548430e-03 -1.189191e-03 2.005495e-04 -2.759592e-03 1.339434e-02 4.614793e-03 -8.887583e-03 2.305637e-03 -2.249401e-03 -1.373789e-04 -1.227121e-03 -2.490670e-03 -2.415121e-03 1.720175e-03 -1.616368e-03 1.351904e-03 -1.400212e-03 1.548702e-03 -1.902346e-03 1.988068e-03 -2.435173e-03 2.338850e-03 2.559520e-03 5.444615e-04 1.561730e-03 -3.017160e-05 1.406015e-03 -4.566644e-04 1.252115e-03 -7.356150e-04 1.118633e-03 -8.094495e-04 9.492631e-04 -7.355477e-04 7.428935e-04 -5.147077e-04 5.327821e-04 -2.193905e-04 2.818153e-04 5.385870e-05 1.630801e-05 2.912190e-04 -1.957175e-04 5.002584e-04 -2.651193e-04 7.321379e-04 -1.137236e-04 9.796291e-04 1.933392e-04 1.170204e-03 6.814120e-04 1.561290e-03 1.750929e-03 2.729342e-03 4.018877e-03 5.511207e-03 7.421389e-03 -5.775665e-05 -1.742157e-04 8.243658e-04 -5.462369e-04 1.849667e-03 -8.647903e-04 -1.368391e-03 3.779311e-04 -1.343958e-03 2.050950e-03 -8.218954e-05 1.905539e-03 1.628268e-03 -2.555897e-03 1.390977e-03 -5.180717e-03 -8.889056e-03 -4.714813e-03 -4.141229e-03 -2.221016e-03 -1.751970e-03 -1.464583e-03 -6.907271e-04 -1.289667e-03 -3.452562e-05 -1.078338e-03 4.239911e-04 -9.208587e-04 4.715747e-04 -8.660928e-04 3.170031e-04 -5.857853e-04 2.355416e-04 -1.020120e-04 3.108276e-05 2.492578e-04 -4.406117e-04 4.384137e-04 -9.247155e-04 7.320383e-04 -1.099781e-03 1.179981e-03 -1.069308e-03 1.398928e-03 -1.163832e-03 1.165128e-03 -1.262092e-03 7.821815e-04 -9.724277e-04 4.820135e-04 -3.138684e-04 7.614992e-05 4.512950e-04 -5.398551e-04 1.231433e-03 -1.345186e-03 1.896255e-03 -2.283121e-03 2.504434e-03 -2.948139e-03 3.240790e-03 -3.059070e-03 3.589908e-03 -2.488564e-03 1.717923e-03 3.451736e-03 -2.713292e-02 -4.790411e-04 7.686358e-03 3.796916e-03 2.553396e-03 
-8.161613e-04 -1.987702e-03 -5.490281e-03 -4.591177e-03 -1.336399e-03 9.950106e-03 1.313734e-02 -1.765211e-03 6.284765e-04 1.156995e-03 -4.732706e-04 2.427343e-03 -2.915716e-05 4.811808e-04 -3.677370e-04 5.800759e-04 -5.446861e-04 5.964646e-04 -5.775220e-04 4.362820e-04 -3.597291e-04 -1.254258e-04 -2.449358e-03 7.036858e-05 -1.007555e-03 -1.798020e-04 -2.889610e-04 -4.924343e-04 1.234911e-04 -7.167058e-04 3.689094e-04 -7.958247e-04 4.713496e-04 -7.586187e-04 4.668677e-04 -6.038453e-04 3.982453e-04 -3.911710e-04 2.521471e-04 -1.999171e-04 5.799344e-05 -5.028232e-05 -1.341166e-04 5.147384e-05 -2.695105e-04 1.275337e-04 -3.117914e-04 1.463099e-04 -3.495020e-04 -2.246266e-06 -4.427409e-04 -2.606531e-04 -4.549788e-04 -5.410794e-04 -4.262446e-04 -1.439947e-03 -1.112117e-03 -1.590434e-03 -1.481508e-03 -1.013192e-03 -1.251619e-03 -1.257845e-03 -4.257913e-04 -1.006058e-03 5.406572e-04 -4.852436e-04 4.430736e-04 2.743757e-06 9.019639e-04 4.732701e-04 1.470401e-03 2.883364e-03 1.018990e-03 1.939036e-03 9.390123e-04 8.890013e-04 3.980696e-04 6.351683e-04 -2.119759e-05 5.094051e-04 -3.586690e-04 5.176249e-04 -4.482707e-04 6.029293e-04 -4.693020e-04 5.161980e-04 -5.104651e-04 3.454225e-04 -3.629248e-04 2.560665e-04 -4.987732e-05 8.788241e-05 1.834146e-04 -2.772642e-04 3.117217e-04 -6.578987e-04 5.299920e-04 -8.162101e-04 8.727551e-04 -8.287024e-04 1.056974e-03 -9.358423e-04 9.226922e-04 -1.045420e-03 6.930008e-04 -8.737471e-04 5.303255e-04 -4.384782e-04 2.920771e-04 7.083771e-05 -1.050810e-04 5.838987e-04 -6.592218e-04 1.002254e-03 -1.337427e-03 1.366971e-03 -1.859195e-03 1.808642e-03 -2.057694e-03 2.031112e-03 -1.950044e-03 1.749814e-03 -4.849478e-03 -1.719143e-02 5.286714e-03 7.324457e-03 3.453347e-03 1.892018e-03 
-6.460588e-04 -1.488199e-03 -3.961980e-03 -3.773670e-03 -7.126976e-03 4.140528e-03 1.233072e-02 -1.465868e-03 1.111696e-03 1.134208e-03 -3.594089e-04 4.991119e-03 2.311853e-03 3.559400e-04 -3.959238e-04 5.444716e-04 -5.613884e-04 5.979900e-04 -5.680533e-04 4.550328e-04 -2.662427e-04 -2.439351e-03 -3.436258e-03 -3.160893e-04 -1.265467e-03 -3.576282e-04 -4.006430e-04 -3.961727e-04 8.341088e-05 -4.468420e-04 3.128461e-04 -4.802002e-04 3.841639e-04 -4.764470e-04 3.553098e-04 -4.335194e-04 2.580490e-04 -3.765694e-04 1.024521e-04 -3.436692e-04 -1.037455e-04 -3.701182e-04 -3.633912e-04 -5.001036e-04 -7.070553e-04 -8.044101e-04 -1.225612e-03 -1.432035e-03 -2.138189e-03 -2.682946e-03 -3.860913e-03 -5.107980e-03 -7.175603e-03 -9.864714e-03 -1.379346e-02 -1.883661e-02 -2.147460e-02 1.615737e-03 9.636800e-03 -3.668042e-03 8.647106e-03 -5.946214e-03 3.869010e-03 5.081373e-03 -4.835118e-03 6.300553e-03 -7.958796e-03 4.206995e-03 -8.421978e-03 -3.397470e-03 4.043737e-03 -1.537077e-02 1.473623e-02 2.452209e-02 1.450074e-02 1.193102e-02 6.968639e-03 6.136451e-03 3.589146e-03 3.390208e-03 1.838405e-03 2.006789e-03 9.268274e-04 1.285950e-03 4.450235e-04 8.550631e-04 1.939773e-04 5.608141e-04 1.118315e-04 3.483905e-04 1.417392e-04 1.512347e-04 2.065238e-04 -6.718529e-05 2.779320e-04 -2.698671e-04 3.768353e-04 -4.023394e-04 4.913790e-04 -4.745548e-04 5.499227e-04 -5.266233e-04 5.133280e-04 -5.344891e-04 4.214163e-04 -4.420636e-04 3.062757e-04 -2.566573e-04 1.447126e-04 -3.303906e-05 -8.275267e-05 1.762310e-04 -3.732979e-04 3.130450e-04 -6.930471e-04 3.394649e-04 -9.444884e-04 2.273397e-04 -9.972122e-04 -2.859726e-05 -6.204744e-04 1.566146e-04 -3.285655e-03 -1.456597e-03 5.107511e-03 2.233235e-03 2.049857e-03 3.780213e-04 
-2.360889e-04 -4.201521e-04 -1.048661e-03 -7.233226e-04 -1.039592e-03 5.264689e-04 2.093123e-03 1.934501e-04 5.057540e-05 3.852118e-04 -8.858205e-04 3.387999e-03 4.947595e-03 2.198314e-04 -6.536728e-05 2.140029e-04 -1.635098e-04 1.765678e-04 -2.045943e-04 7.566719e-05 -2.033285e-04 -2.412504e-03 -1.547857e-03 6.763360e-04 -8.726405e-04 -5.363405e-05 -5.962721e-04 -2.573307e-04 -2.664655e-04 -3.334653e-04 -5.345497e-05 -3.646332e-04 4.802025e-05 -3.655010e-04 6.282558e-05 -3.447880e-04 1.108419e-05 -3.232585e-04 -9.914683e-05 -3.300486e-04 -2.640793e-04 -3.944677e-04 -4.878470e-04 -5.527236e-04 -7.953028e-04 -8.624703e-04 -1.256100e-03 -1.434547e-03 -2.021912e-03 -2.467431e-03 -3.351724e-03 -4.269563e-03 -5.643062e-03 -7.326805e-03 -9.580716e-03 -1.224081e-02 -1.369428e-02 -4.144189e-03 8.208614e-05 -6.294031e-03 1.785494e-03 -2.605381e-03 -3.868346e-04 -2.683272e-04 -4.033850e-03 3.220659e-03 -4.701194e-04 6.036884e-03 2.480545e-03 5.153733e-03 5.632301e-03 -3.577391e-03 1.052859e-02 1.374940e-02 8.834220e-03 7.504990e-03 4.907944e-03 4.426836e-03 2.866165e-03 2.733158e-03 1.660417e-03 1.768534e-03 9.575892e-04 1.199645e-03 5.466033e-04 8.244514e-04 3.124052e-04 5.532631e-04 2.108665e-04 3.478168e-04 1.987250e-04 1.654159e-04 2.229670e-04 -1.619752e-05 2.611033e-04 -1.759143e-04 3.189354e-04 -2.832249e-04 3.843416e-04 -3.430780e-04 4.126225e-04 -3.777250e-04 3.770079e-04 -3.747273e-04 2.970569e-04 -3.022121e-04 1.923814e-04 -1.640771e-04 5.097082e-05 2.582547e-06 -1.405595e-04 1.582644e-04 -3.791983e-04 2.641334e-04 -6.365895e-04 2.968793e-04 -8.395956e-04 2.424183e-04 -8.870300e-04 6.280797e-05 -6.550069e-04 -2.144527e-04 5.949620e-05 -5.726233e-04 1.547593e-03 6.088228e-04 7.753678e-04 2.072179e-04 
-1.905720e-04 -2.886670e-04 -6.444266e-04 -3.842529e-04 -5.866721e-04 1.495197e-04 9.111175e-04 -8.006849e-05 5.370394e-05 1.424082e-04 -5.040977e-04 1.866784e-03 2.471940e-03 1.082500e-04 -6.406826e-05 1.340658e-04 -1.225713e-04 1.282338e-04 -1.324074e-04 6.943524e-05 -1.005895e-04 -1.047716e-03 -5.098845e-04 3.652404e-04 -4.272941e-04 -1.216454e-04 -3.271383e-04 -2.151211e-04 -1.556372e-04 -2.295303e-04 -5.387965e-05 -2.365081e-04 -2.657197e-05 -2.495541e-04 -6.000025e-05 -2.755859e-04 -1.448872e-04 -3.280386e-04 -2.809963e-04 -4.272396e-04 -4.758753e-04 -5.987151e-04 -7.468072e-04 -8.759447e-04 -1.126540e-03 -1.306638e-03 -1.671104e-03 -1.959577e-03 -2.461598e-03 -2.915071e-03 -3.573048e-03 -4.202218e-03 -4.964052e-03 -5.624110e-03 -6.240207e-03 -6.454632e-03 -6.105775e-03 -3.794303e-03 -9.646540e-04 -2.503937e-03 6.553486e-04 -1.238342e-03 4.878565e-04 1.046191e-03 -1.016571e-03 1.763076e-03 -1.291659e-03 1.620505e-03 -2.926423e-04 8.719834e-04 2.688506e-03 1.007426e-03 5.565485e-03 5.920301e-03 5.843634e-03 5.505004e-03 4.648918e-03 4.301121e-03 3.369152e-03 3.118781e-03 2.335204e-03 2.202112e-03 1.589801e-03 1.541976e-03 1.075715e-03 1.072445e-03 7.316791e-04 7.363695e-04 5.122076e-04 4.916273e-04 3.789692e-04 3.044344e-04 2.991956e-04 1.542390e-04 2.527407e-04 3.671513e-05 2.299690e-04 -4.618937e-05 2.201579e-04 -9.828688e-05 2.074793e-04 -1.267718e-04 1.812329e-04 -1.320702e-04 1.421004e-04 -1.105493e-04 9.316885e-05 -6.637907e-05 3.196579e-05 -1.350792e-05 -4.520202e-05 3.068463e-05 -1.367799e-04 5.097063e-05 -2.300395e-04 4.198699e-05 -2.964903e-04 1.463494e-05 -2.972646e-04 -1.727701e-07 -2.133332e-04 3.461390e-05 -9.506694e-05 6.372408e-05 5.793723e-04 2.216846e-04 3.214077e-04 3.067724e-06 
-1.016892e-06 2.827045e-06 -1.839661e-06 2.255841e-06 -2.390984e-06 2.071456e-06 -2.666038e-06 2.124016e-06 -1.714757e-06 2.081206e-06 -6.408754e-07 2.417880e-06 1.119032e-07 -1.340860e-06 -1.013265e-06 -1.112663e-06 -1.314891e-06 -1.653058e-06 -2.381043e-06 -3.064978e-06 -4.542736e-06 -5.285279e-05 2.884771e-05 -5.141927e-05 2.225879e-05 -5.410135e-05 8.429677e-06 -5.766646e-05 -1.440927e-05 -6.217658e-05 -4.583966e-05 -6.789375e-05 -8.497725e-05 -7.796719e-05 -1.333119e-04 -1.009079e-04 -1.977451e-04 -1.515152e-04 -2.898010e-04 -2.465547e-04 -4.216543e-04 -4.015590e-04 -6.071500e-04 -6.340263e-04 -8.675371e-04 -9.700172e-04 -1.238802e-03 -1.450344e-03 -1.772130e-03 -2.120211e-03 -2.505723e-03 -2.980340e-03 -3.390313e-03 -3.884697e-03 -4.154699e-03 -4.377323e-03 -4.102383e-03 -3.437884e-03 -2.165062e-03 -2.698312e-03 -1.023539e-03 -1.414608e-03 -6.508625e-04 -6.408472e-05 -4.935705e-04 1.214607e-03 4.442761e-04 2.143414e-03 1.671272e-03 2.414480e-03 2.970128e-03 2.343340e-03 4.031201e-03 3.963162e-03 3.964376e-03 3.656392e-03 3.204124e-03 2.882257e-03 2.389949e-03 2.122033e-03 1.717432e-03 1.513500e-03 1.212599e-03 1.060082e-03 8.479126e-04 7.329828e-04 5.929733e-04 5.047816e-04 4.212967e-04 3.478758e-04 3.038991e-04 2.342603e-04 2.162298e-04 1.468464e-04 1.479506e-04 8.259560e-05 9.912557e-05 4.293692e-05 6.891129e-05 2.331246e-05 4.947681e-05 1.303932e-05 3.204654e-05 5.315407e-06 1.626081e-05 2.202317e-06 7.619316e-06 6.192554e-06 6.480751e-06 1.249811e-05 6.281429e-06 1.367858e-05 1.795093e-06 8.544741e-06 -3.985572e-06 4.377802e-06 -3.793273e-06 6.684100e-06 1.862104e-06 1.091813e-05 5.420298e-06 1.124015e-05 4.268780e-06 8.729039e-06 2.146200e-06 6.007211e-06 2.564131e-07 4.012071e-06 
1.879087e-04 2.941724e-04 6.398522e-04 3.881150e-04 5.800984e-04 -1.469398e-04 -9.202759e-04 8.187651e-05 -5.893979e-05 -1.412605e-04 5.027823e-04 -1.864820e-03 -2.470292e-03 -1.094692e-04 6.350256e-05 -1.345102e-04 1.216054e-04 -1.296711e-04 1.301717e-04 -7.366731e-05 9.413802e-05 9.353477e-04 5.509638e-04 -4.835052e-04 4.522848e-04 -8.246181e-06 3.203014e-04 6.970743e-05 9.673903e-05 6.449552e-05 -7.754363e-05 4.633599e-05 -1.977296e-04 2.107444e-05 -2.822031e-04 -2.288552e-05 -3.556858e-04 -1.035305e-04 -4.432151e-04 -2.362863e-04 -5.637890e-04 -4.293443e-04 -7.305455e-04 -6.863987e-04 -9.546426e-04 -1.011210e-03 -1.249425e-03 -1.411443e-03 -1.627991e-03 -1.886499e-03 -2.075282e-03 -2.387929e-03 -2.499285e-03 -2.774416e-03 -2.695248e-03 -2.807278e-03 -2.379993e-03 -2.263610e-03 -1.426322e-03 -1.582821e-03 -7.260283e-04 -8.066213e-04 -4.172571e-04 1.188686e-05 -3.403485e-04 5.799006e-04 -8.018222e-05 9.010804e-04 5.428733e-04 1.132291e-03 1.492429e-03 1.568730e-03 2.352271e-03 2.343530e-03 2.688513e-03 2.512425e-03 2.544772e-03 2.268761e-03 2.171883e-03 1.855230e-03 1.747471e-03 1.424590e-03 1.354820e-03 1.046377e-03 1.023225e-03 7.485664e-04 7.605855e-04 5.374733e-04 5.591745e-04 3.983935e-04 3.972387e-04 3.059855e-04 2.560595e-04 2.430191e-04 1.320553e-04 2.038194e-04 3.168572e-05 1.861683e-04 -3.835430e-05 1.831099e-04 -7.888918e-05 1.798972e-04 -9.712338e-05 1.626868e-04 -9.537236e-05 1.304869e-04 -6.730396e-05 9.086189e-05 -1.081765e-05 4.774308e-05 6.467072e-05 3.924400e-06 1.469887e-04 -2.814284e-05 2.283749e-04 -2.928691e-05 2.940130e-04 4.798139e-07 3.039464e-04 2.185517e-05 2.246024e-04 -1.277819e-05 1.016501e-04 -4.560510e-05 -5.762764e-04 -2.091315e-04 -3.216655e-04 5.176203e-06 
2.327165e-04 4.236636e-04 1.044118e-03 7.264121e-04 1.033751e-03 -5.232648e-04 -2.103293e-03 -1.886871e-04 -5.428669e-05 -3.823358e-04 8.847664e-04 -3.385263e-03 -4.945014e-03 -2.206288e-04 6.571975e-05 -2.131403e-04 1.639382e-04 -1.763883e-04 2.039157e-04 -7.847359e-05 1.978795e-04 2.307150e-03 1.619081e-03 -7.806880e-04 9.440278e-04 -5.050100e-05 6.501025e-04 1.464502e-04 2.724929e-04 2.141339e-04 -7.437136e-06 2.459908e-04 -1.817333e-04 2.602008e-04 -2.663433e-04 2.518408e-04 -2.987267e-04 1.943121e-04 -3.264869e-04 6.961164e-05 -3.747835e-04 -1.129095e-04 -4.468797e-04 -3.295950e-04 -5.361236e-04 -5.549915e-04 -6.443650e-04 -7.934207e-04 -8.095930e-04 -1.080086e-03 -1.062451e-03 -1.405490e-03 -1.347641e-03 -1.669898e-03 -1.526793e-03 -1.732484e-03 -1.450469e-03 -1.496863e-03 -1.068143e-03 -1.138050e-03 -7.044171e-04 -6.168579e-04 -4.590423e-04 -3.963797e-05 -2.204084e-04 5.101916e-04 1.563951e-04 9.052203e-04 6.637922e-04 1.127273e-03 1.187508e-03 1.287823e-03 1.580471e-03 1.525208e-03 1.692827e-03 1.474180e-03 1.578289e-03 1.240975e-03 1.371760e-03 9.513966e-04 1.147492e-03 6.682153e-04 9.213821e-04 4.178154e-04 7.050285e-04 2.375217e-04 5.312115e-04 1.627254e-04 4.074524e-04 1.690641e-04 2.856537e-04 1.948321e-04 1.293008e-04 2.152660e-04 -4.443443e-05 2.417146e-04 -1.958114e-04 2.884738e-04 -2.899538e-04 3.520422e-04 -3.218880e-04 3.933783e-04 -3.197272e-04 3.666453e-04 -2.933708e-04 2.779444e-04 -2.073817e-04 1.669784e-04 -4.196262e-05 4.271973e-05 1.701076e-04 -1.057981e-04 3.878615e-04 -2.509910e-04 6.046969e-04 -3.140298e-04 8.101690e-04 -2.367907e-04 8.990644e-04 -2.552603e-05 6.843830e-04 2.478377e-04 -4.746276e-05 5.910073e-04 -1.543879e-03 -5.991284e-04 -7.766415e-04 -2.018538e-04 
6.427851e-04 1.490318e-03 3.958473e-03 3.776432e-03 7.122510e-03 -4.140213e-03 -1.236582e-02 1.467266e-03 -1.116636e-03 -1.138697e-03 3.610305e-04 -4.998854e-03 -2.300015e-03 -3.483332e-04 3.985058e-04 -5.378259e-04 5.639001e-04 -5.922212e-04 5.769268e-04 -4.568311e-04 2.749337e-04 2.348556e-03 3.508453e-03 2.044207e-04 1.349959e-03 2.430423e-04 4.756328e-04 2.678415e-04 -6.010993e-05 3.037305e-04 -3.636175e-04 3.415538e-04 -5.103546e-04 3.721907e-04 -5.395006e-04 3.825120e-04 -5.047924e-04 3.308511e-04 -4.729030e-04 1.922743e-04 -4.720709e-04 -1.348631e-05 -4.975664e-04 -2.453522e-04 -5.270158e-04 -4.535793e-04 -5.464576e-04 -6.363614e-04 -6.090924e-04 -8.556544e-04 -7.754394e-04 -1.121739e-03 -9.972710e-04 -1.335748e-03 -1.142892e-03 -1.377916e-03 -1.088801e-03 -1.145991e-03 -7.361103e-04 -9.152477e-04 -4.621649e-04 -5.115768e-04 -4.028722e-04 -3.272638e-05 -3.833993e-04 4.288125e-04 -2.236873e-04 6.616800e-04 2.069648e-04 7.094718e-04 7.486831e-04 7.964210e-04 1.167752e-03 1.074556e-03 1.311473e-03 1.035736e-03 1.263738e-03 8.613541e-04 1.157166e-03 6.518165e-04 1.031363e-03 4.358059e-04 8.724500e-04 2.236014e-04 6.884590e-04 7.091342e-05 5.383687e-04 4.487092e-05 4.435788e-04 1.144196e-04 3.291200e-04 1.869512e-04 1.417226e-04 2.348976e-04 -8.508839e-05 2.837214e-04 -2.895451e-04 3.597237e-04 -4.165790e-04 4.649736e-04 -4.565006e-04 5.424350e-04 -4.579617e-04 5.171100e-04 -4.412210e-04 4.004360e-04 -3.454568e-04 2.597076e-04 -1.361889e-04 1.042337e-04 1.320810e-04 -9.343605e-05 3.936192e-04 -2.970397e-04 6.470533e-04 -3.768233e-04 9.023385e-04 -2.285305e-04 1.022410e-03 7.597197e-05 6.683993e-04 -1.209538e-04 3.285230e-03 1.481451e-03 -5.104204e-03 -2.224241e-03 -2.052120e-03 -3.744179e-04 
8.103684e-04 1.985525e-03 5.486914e-03 4.589712e-03 1.331890e-03 -9.953723e-03 -1.317599e-02 1.783322e-03 -6.212513e-04 -1.161383e-03 4.649804e-04 -2.443157e-03 3.902259e-05 -4.706671e-04 3.754564e-04 -5.678186e-04 5.524268e-04 -5.847443e-04 5.942608e-04 -4.257532e-04 3.853262e-04 1.121014e-05 2.487587e-03 -2.091112e-04 1.170974e-03 1.087560e-04 4.976973e-04 3.954833e-04 -1.193017e-05 5.681702e-04 -3.844452e-04 6.435946e-04 -5.938768e-04 7.022999e-04 -5.685375e-04 7.982371e-04 -3.887139e-04 7.896078e-04 -2.609239e-04 5.852471e-04 -2.207126e-04 2.712973e-04 -2.142689e-04 -4.054687e-05 -1.387839e-04 -1.545053e-04 1.400248e-04 -4.202894e-05 4.185219e-04 -2.874011e-05 3.729724e-04 -2.486770e-04 1.191450e-04 -4.044107e-04 -6.132820e-06 -2.973249e-04 4.203366e-05 -1.668972e-05 1.976720e-04 5.076331e-05 1.276704e-04 1.405406e-04 -1.026248e-04 2.935993e-04 -2.983179e-04 4.635379e-04 -3.859987e-04 4.090486e-04 -2.855294e-04 2.332600e-04 -2.803203e-05 1.147193e-04 1.716031e-04 1.309898e-04 2.034848e-04 -9.945977e-05 2.156134e-04 -2.646734e-04 3.697310e-04 -2.891206e-04 5.729785e-04 -3.218932e-04 5.996238e-04 -5.055889e-04 4.036421e-04 -6.769950e-04 2.758241e-04 -4.996528e-04 3.851371e-04 -8.095339e-05 3.983639e-04 1.868932e-04 9.885268e-05 2.738455e-04 -3.438924e-04 3.380516e-04 -7.402048e-04 4.884867e-04 -9.195294e-04 7.922188e-04 -8.511386e-04 1.065801e-03 -7.871530e-04 9.891272e-04 -8.546527e-04 6.454315e-04 -7.447371e-04 3.678072e-04 -2.726480e-04 1.321466e-04 3.162750e-04 -3.239550e-04 7.494443e-04 -1.031619e-03 1.107230e-03 -1.622686e-03 1.650668e-03 -1.844071e-03 2.174833e-03 -1.831622e-03 2.132895e-03 -1.661246e-03 4.831077e-03 1.717298e-02 -5.297480e-03 -7.330160e-03 -3.464302e-03 -1.896294e-03 
-1.551780e-03 1.182681e-03 -2.006645e-04 2.752849e-03 -1.339569e-02 -4.619100e-03 8.912397e-03 -2.271221e-03 2.269071e-03 1.442141e-04 1.197640e-03 2.479378e-03 2.390693e-03 -1.725708e-03 1.591331e-03 -1.363011e-03 1.371097e-03 -1.534409e-03 1.931841e-03 -2.030477e-03 2.526244e-03 -2.508989e-03 -2.529747e-03 -6.919492e-04 -1.365283e-03 1.232275e-05 -1.151520e-03 4.238528e-04 -1.129451e-03 6.369387e-04 -1.159930e-03 6.892593e-04 -1.123665e-03 7.089379e-04 -8.708934e-04 7.875514e-04 -4.784333e-04 7.417190e-04 -2.087773e-04 4.535345e-04 -9.281171e-05 4.498509e-05 -4.710665e-05 -3.378479e-04 6.991773e-05 -4.337771e-04 4.481744e-04 -2.032598e-04 8.181509e-04 -9.130941e-05 7.458199e-04 -2.798612e-04 4.000519e-04 -3.667809e-04 2.316995e-04 -1.250197e-04 2.129421e-04 1.329023e-04 4.503899e-06 2.861940e-04 -2.625782e-04 2.506924e-04 -3.523409e-04 2.534514e-04 -2.408128e-04 2.744402e-04 -1.838214e-04 2.622619e-04 -2.930428e-04 2.846565e-04 -3.352409e-04 2.736161e-04 -3.115464e-04 -5.170637e-05 -2.837239e-04 -3.821697e-04 -1.493904e-04 -5.558315e-04 1.817828e-04 -5.281420e-04 5.520711e-04 -5.181028e-04 6.435502e-04 -7.266430e-04 3.940335e-04 -9.323989e-04 2.147097e-04 -6.684573e-04 3.564111e-04 -7.801405e-05 3.746031e-04 3.003390e-04 -1.965725e-05 4.265107e-04 -5.892541e-04 5.144165e-04 -1.080098e-03 7.040690e-04 -1.266818e-03 1.082423e-03 -1.110423e-03 1.399013e-03 -9.574409e-04 1.218834e-03 -9.828978e-04 6.625194e-04 -7.637341e-04 1.948393e-04 -4.943144e-05 -2.127297e-04 8.152179e-04 -9.205608e-04 1.445241e-03 -1.975833e-03 1.939239e-03 -2.880796e-03 2.637524e-03 -3.296308e-03 3.204548e-03 -3.311055e-03 2.733506e-03 -1.593607e-03 -3.436372e-03 2.707569e-02 4.690535e-04 -7.706853e-03 -3.807063e-03 -2.564895e-03 
-1.643602e-03 1.535746e-04 -3.269171e-03 -5.109316e-04 -1.334694e-02 -6.597374e-04 1.629122e-02 -6.886858e-03 2.268491e-03 -4.139196e-03 6.942703e-04 -6.682060e-03 -2.536854e-03 1.801534e-03 -1.411223e-03 1.206328e-03 -9.171424e-04 1.199475e-03 -1.823187e-03 1.992591e-03 -3.436610e-03 3.597757e-03 4.726762e-03 1.260045e-03 2.115518e-03 9.120628e-04 1.002475e-03 7.825995e-04 3.057924e-04 6.815038e-04 -1.059129e-04 5.764743e-04 -3.033709e-04 4.871253e-04 -3.002426e-04 4.293868e-04 -1.793177e-04 3.151535e-04 -8.392379e-05 8.988661e-05 -4.925069e-05 -1.911413e-04 -4.594995e-05 -4.514808e-04 -1.461728e-05 -5.743842e-04 1.149145e-04 -5.441295e-04 2.263088e-04 -5.383732e-04 1.517900e-04 -6.141279e-04 -8.482211e-06 -5.761406e-04 -2.375381e-05 -3.074506e-04 1.072836e-04 -4.225765e-06 1.021484e-04 2.333850e-04 6.161483e-06 3.345581e-04 -1.419429e-04 3.639537e-04 -2.368338e-04 3.433463e-04 -3.285526e-04 2.573211e-04 -3.926305e-04 1.884926e-04 -3.158015e-04 1.833188e-04 -7.065938e-05 1.485122e-04 1.866565e-04 1.447524e-04 4.113334e-04 1.138395e-04 6.125000e-04 8.504820e-05 7.503825e-04 1.049056e-05 7.230155e-04 -1.536397e-04 5.302327e-04 -2.884468e-04 3.591954e-04 -1.909873e-04 3.202538e-04 7.661870e-05 2.312299e-04 2.775925e-04 -3.278084e-05 3.756998e-04 -3.698021e-04 4.553107e-04 -6.518482e-04 5.758480e-04 -7.694966e-04 7.577160e-04 -7.071547e-04 8.746533e-04 -6.076911e-04 7.378376e-04 -5.354955e-04 3.983429e-04 -3.119970e-04 5.551645e-05 1.653815e-04 -2.868299e-04 7.445311e-04 -7.553712e-04 1.250456e-03 -1.327732e-03 1.707689e-03 -1.732656e-03 2.219657e-03 -1.748133e-03 2.526891e-03 -1.349604e-03 1.769805e-03 7.556406e-05 -7.646472e-03 1.076947e-02 1.544246e-03 -1.878165e-03 -1.237476e-03 -7.384377e-04 
-9.858553e-04 2.482036e-05 -1.994809e-03 -4.780847e-04 -4.988253e-03 -3.817924e-04 5.735346e-03 -1.999779e-03 1.350614e-03 -1.667862e-04 1.180568e-03 -1.804938e-04 -1.976991e-03 -2.414238e-03 7.881459e-04 -1.304964e-03 -4.130808e-04 5.457565e-04 -3.197888e-04 1.143831e-03 2.735703e-03 1.674204e-03 -2.235365e-04 -6.218368e-04 -5.507139e-04 -1.931859e-04 -4.421641e-04 2.743622e-05 -4.145050e-04 1.397956e-04 -3.987751e-04 1.888405e-04 -3.672375e-04 2.048261e-04 -3.017000e-04 1.986359e-04 -2.196491e-04 1.468390e-04 -1.626071e-04 3.157948e-05 -1.473689e-04 -1.315639e-04 -1.659178e-04 -3.134114e-04 -2.052257e-04 -4.906798e-04 -2.763755e-04 -6.939871e-04 -4.611724e-04 -1.019730e-03 -8.648103e-04 -1.534940e-03 -1.508838e-03 -2.193087e-03 -2.274614e-03 -2.768332e-03 -2.726410e-03 -2.401573e-03 -1.663183e-03 -2.395945e-03 -9.557108e-04 -1.566854e-03 -9.418137e-04 -3.556830e-04 -1.126144e-03 1.010169e-03 -7.176232e-04 1.672575e-03 6.847772e-04 1.653590e-03 2.237795e-03 1.660525e-03 2.942902e-03 2.683189e-03 2.702913e-03 2.178051e-03 2.020181e-03 1.477592e-03 1.437883e-03 9.050318e-04 1.012534e-03 4.905219e-04 6.920649e-04 1.991492e-04 4.388305e-04 2.926406e-05 2.674996e-04 1.142378e-06 1.765733e-04 6.962386e-05 9.407197e-05 1.443053e-04 -3.582212e-05 1.910702e-04 -1.915342e-04 2.317517e-04 -3.185918e-04 2.914742e-04 -3.738256e-04 3.650978e-04 -3.591761e-04 3.978711e-04 -3.175218e-04 3.323869e-04 -2.590993e-04 1.852287e-04 -1.321325e-04 1.296370e-05 8.841361e-05 -1.776968e-04 3.520332e-04 -4.115436e-04 5.976810e-04 -6.579834e-04 8.179678e-04 -7.995343e-04 1.014000e-03 -7.034119e-04 1.068162e-03 -2.411865e-04 6.753295e-04 8.965470e-04 -2.362655e-03 3.427317e-03 6.847195e-04 8.067101e-04 -3.498488e-04 1.268544e-04 
