# vtk DataFile Version 2.0
Comment goes here
ASCII

DATASET STRUCTURED_POINTS
FIELD FieldData 1
TIME 1 1 double
0.78000000
DIMENSIONS    128   16   1

ORIGIN    0.000   0.000   0.000
SPACING   0.0078125 0.015625   1.000

POINT_DATA   2048
SCALARS uY double
LOOKUP_TABLE default

-4.272815e-07 3.230942e-06 -5.879336e-07 2.866967e-06 -2.457215e-07 1.278808e-06 1.701846e-06 -1.889890e-06 3.377642e-06 -5.227718e-06 3.754158e-06 -7.456366e-06 3.284965e-06 -9.296352e-06 5.743969e-07 -3.993663e-06 -5.576539e-06 1.511608e-06 -7.428937e-06 -2.241475e-06 -2.658929e-06 -6.885648e-06 -5.255507e-06 -1.438747e-05 5.132908e-06 -2.517424e-05 1.677651e-05 -4.561128e-05 2.141192e-05 -7.281234e-05 1.838486e-05 -9.753070e-05 9.135429e-06 -1.126507e-04 -9.100132e-06 -1.206149e-04 -4.785924e-05 -1.354012e-04 -1.205841e-04 -1.684310e-04 -2.285035e-04 -2.236807e-04 -3.695385e-04 -3.120217e-04 -5.519931e-04 -4.553020e-04 -7.947507e-04 -6.830667e-04 -1.121754e-03 -1.019874e-03 -1.539332e-03 -1.449131e-03 -1.982727e-03 -1.826980e-03 -2.197701e-03 -1.814739e-03 -1.799266e-03 -2.764823e-04 9.131759e-04 -1.097700e-03 2.353492e-03 7.466430e-04 1.605632e-03 1.402503e-03 2.704877e-04 3.326426e-03 -4.436285e-04 2.447004e-03 1.598613e-03 8.753601e-04 2.321315e-03 -4.116943e-04 1.225566e-03 2.988357e-04 3.217136e-04 3.123070e-04 1.460767e-04 3.278220e-04 1.133182e-04 2.881379e-04 1.181702e-04 2.268592e-04 1.223098e-04 1.624094e-04 1.195206e-04 1.068320e-04 1.107566e-04 6.491959e-05 9.741018e-05 3.520475e-05 7.941244e-05 1.598471e-05 6.122348e-05 9.039654e-06 4.612314e-05 1.045707e-05 3.066517e-05 1.289865e-05 1.321523e-05 1.468067e-05 -1.520644e-06 1.824250e-05 -9.428899e-06 2.228628e-05 -1.226569e-05 2.215932e-05 -1.432383e-05 1.380294e-05 -1.788659e-05 8.818482e-07 -1.566190e-05 -4.910012e-06 -2.241528e-06 -3.050560e-06 1.285095e-05 -2.961091e-06 1.952063e-05 -7.642685e-06 1.735459e-05 -1.151205e-05 1.203630e-05 -7.859103e-06 5.282427e-06 2.125161e-06 2.338452e-06 3.229078e-06 2.879572e-07 3.338266e-06 
-1.187456e-04 -1.159618e-03 -1.709197e-03 -1.284619e-03 -1.368363e-05 6.394443e-03 -2.210182e-03 -4.273356e-03 -4.079617e-03 -8.406081e-03 -9.945387e-03 -1.781738e-02 -2.177837e-02 -2.289994e-02 -1.180596e-02 -6.240948e-03 -2.528494e-03 2.232805e-03 6.740376e-03 1.092422e-02 2.278902e-02 2.322014e-02 1.564856e-02 1.070896e-02 6.582100e-03 4.431945e-03 2.851760e-03 1.801500e-03 1.263489e-03 6.615630e-04 5.631481e-04 1.807029e-04 2.404808e-04 7.749869e-06 7.839749e-05 -1.886347e-05 -2.936834e-05 7.689175e-06 -1.386106e-04 4.081858e-05 -2.569484e-04 7.098556e-05 -3.705788e-04 8.759193e-05 -4.848544e-04 5.607326e-05 -6.357237e-04 -8.323222e-05 -8.858677e-04 -4.149802e-04 -1.332344e-03 -1.076648e-03 -2.161388e-03 -2.369252e-03 -4.021009e-03 -5.882595e-03 -8.796819e-03 8.304048e-04 -4.546028e-03 -1.509166e-02 4.823165e-03 1.668124e-03 -1.680132e-03 -9.941875e-03 -5.632171e-03 9.294599e-03 -4.576991e-03 1.462488e-02 1.901991e-02 1.148656e-02 1.278210e-02 -5.675979e-03 -3.449521e-04 1.432455e-03 -1.573674e-03 -2.594680e-04 -9.810422e-04 -5.262141e-05 -5.041490e-04 7.015786e-05 -2.870820e-04 1.339363e-04 -2.030200e-04 1.695069e-04 -1.842096e-04 1.926945e-04 -1.932022e-04 2.051300e-04 -2.080650e-04 1.996903e-04 -2.134547e-04 1.724313e-04 -1.909487e-04 1.265580e-04 -1.313257e-04 5.714721e-05 -4.277974e-05 -4.360405e-05 6.470660e-05 -1.685728e-04 1.874329e-04 -2.986927e-04 3.172130e-04 -4.164407e-04 4.325786e-04 -5.088089e-04 5.052773e-04 -5.622792e-04 5.122885e-04 -5.523522e-04 4.499562e-04 -4.465621e-04 3.185456e-04 -2.319754e-04 1.079469e-04 9.665749e-05 -1.753642e-04 5.923561e-04 -4.820215e-04 1.462524e-03 -6.719215e-04 3.576642e-03 -3.487621e-03 -2.721048e-03 1.355605e-03 8.604383e-04 1.573248e-03 2.499302e-04 
-2.316491e-04 -3.273329e-03 -4.146352e-03 -6.400469e-03 -8.374007e-04 2.087896e-02 -8.225762e-05 -4.702555e-03 7.309054e-04 -5.894776e-03 -1.787591e-05 -6.703966e-03 3.254144e-03 6.977845e-03 6.537552e-03 6.713365e-04 2.054051e-03 -1.666795e-03 -1.413173e-03 -5.236697e-03 -7.298014e-03 -2.781749e-04 2.007521e-03 1.751589e-03 1.157321e-03 6.429233e-04 6.337314e-04 1.420819e-04 3.735399e-04 -1.164617e-04 1.852173e-04 -2.293829e-04 3.691247e-05 -2.233354e-04 -7.466975e-05 -1.340023e-04 -1.933787e-04 -5.144832e-05 -3.842766e-04 -2.920339e-05 -6.247641e-04 -3.693974e-05 -8.540817e-04 -7.102705e-05 -1.086366e-03 -2.041995e-04 -1.415622e-03 -5.671666e-04 -1.990320e-03 -1.334597e-03 -3.018671e-03 -2.784600e-03 -4.909681e-03 -5.557212e-03 -8.869901e-03 -1.166911e-02 -1.498517e-02 4.579156e-03 7.669918e-03 -7.920088e-03 1.092578e-02 -6.043331e-04 4.833913e-03 1.969620e-03 -1.949103e-03 1.469109e-02 -8.013417e-03 8.434779e-03 4.999300e-03 -3.026773e-03 1.005214e-02 -7.610935e-03 5.216656e-03 6.922081e-03 1.141154e-03 1.872028e-03 1.319890e-04 1.008795e-03 -1.402457e-05 6.314199e-04 -1.290051e-04 4.655220e-04 -2.242110e-04 4.208412e-04 -3.071072e-04 4.309720e-04 -3.809682e-04 4.515303e-04 -4.368646e-04 4.406775e-04 -4.665102e-04 3.810175e-04 -4.278623e-04 2.921967e-04 -2.968305e-04 1.587290e-04 -1.067520e-04 -5.019986e-05 1.136410e-04 -3.168419e-04 3.662239e-04 -5.902152e-04 6.418293e-04 -8.323962e-04 8.946835e-04 -1.019901e-03 1.061651e-03 -1.135796e-03 1.085192e-03 -1.132599e-03 9.733010e-04 -9.225513e-04 7.441259e-04 -4.873358e-04 3.589682e-04 1.517024e-04 -1.925907e-04 1.080259e-03 -8.783737e-04 2.726103e-03 -1.806446e-03 7.139891e-03 -1.198186e-02 -6.143498e-03 8.384202e-03 3.639706e-03 3.999149e-03 3.471302e-04 
-8.828145e-04 -8.994936e-03 -1.610013e-02 -2.694537e-02 -2.784917e-02 1.246169e-02 3.142740e-03 -2.095660e-03 5.005279e-03 -1.647329e-03 5.738254e-03 6.451322e-04 4.102654e-03 -5.244263e-03 -2.886051e-04 -1.555862e-03 -1.425536e-04 1.793123e-04 -1.291338e-04 2.026261e-03 1.282232e-03 -1.847962e-03 -2.789671e-03 -2.194539e-03 -1.210716e-03 -1.332555e-03 -3.126549e-04 -1.045892e-03 3.814263e-05 -9.534039e-04 1.120969e-04 -8.701318e-04 8.461849e-05 -6.818027e-04 6.575838e-05 -3.766789e-04 1.166819e-05 -1.067992e-04 -2.006799e-04 4.959186e-05 -4.906712e-04 2.234088e-04 -6.775536e-04 4.975144e-04 -7.154362e-04 8.168110e-04 -6.548262e-04 1.091754e-03 -5.185967e-04 1.338255e-03 -1.713301e-04 1.750146e-03 6.527866e-04 2.623003e-03 2.422364e-03 4.899126e-03 5.756528e-03 -1.688472e-03 -1.091721e-04 6.018921e-03 -3.464225e-03 -2.039154e-03 2.390859e-05 1.242888e-03 1.930045e-03 -8.565662e-03 3.607131e-03 -7.896027e-03 -7.062556e-03 -3.695099e-03 -6.715119e-03 2.908123e-03 -3.596064e-04 -1.867561e-03 5.836903e-04 -1.143241e-04 3.946961e-04 1.982741e-06 2.353792e-05 6.000635e-05 -2.436405e-04 1.547515e-04 -4.250558e-04 3.066817e-04 -5.534281e-04 4.659948e-04 -6.598356e-04 5.944807e-04 -7.443705e-04 6.375814e-04 -8.126770e-04 5.833759e-04 -7.790609e-04 4.975874e-04 -5.858223e-04 3.472067e-04 -3.073060e-04 5.588444e-05 1.639395e-06 -3.458050e-04 3.672132e-04 -7.568128e-04 7.932233e-04 -1.117887e-03 1.205281e-03 -1.407729e-03 1.490646e-03 -1.627368e-03 1.541067e-03 -1.708927e-03 1.397733e-03 -1.480249e-03 1.114327e-03 -9.368603e-04 5.814492e-04 -2.007235e-04 -2.793311e-04 6.979498e-04 -1.526275e-03 1.895864e-03 -3.655161e-03 4.202682e-03 -1.291379e-02 1.611035e-02 3.670509e-02 2.097541e-02 1.374919e-02 4.412675e-03 
-2.442219e-03 -1.055146e-02 -2.032393e-02 -3.119802e-02 -4.063088e-02 -1.753537e-02 1.514589e-04 -1.856760e-03 9.298963e-04 -2.859309e-03 -1.565883e-04 -4.106721e-03 -1.721503e-03 1.529821e-04 -7.469751e-05 -4.102742e-05 -1.145086e-04 1.281649e-04 -1.630114e-04 2.959627e-04 -1.857459e-04 2.705269e-03 1.746955e-03 1.347667e-03 1.085542e-03 9.758350e-05 8.178526e-04 -4.747957e-04 6.949903e-04 -7.457245e-04 5.761282e-04 -8.296625e-04 4.620766e-04 -7.463208e-04 3.806587e-04 -5.334024e-04 2.758286e-04 -3.222489e-04 4.673488e-05 -1.810697e-04 -2.555679e-04 -2.159956e-05 -5.059531e-04 2.073062e-04 -6.730730e-04 4.452938e-04 -7.952391e-04 5.958983e-04 -8.987516e-04 6.289061e-04 -9.173881e-04 6.191528e-04 -7.440875e-04 6.159311e-04 -4.304693e-04 1.615587e-04 -1.107095e-03 -3.758349e-04 -4.149047e-03 -6.281509e-03 2.668956e-04 7.605012e-04 -7.656928e-04 -5.662824e-03 1.756030e-04 2.503578e-03 1.447496e-04 5.734070e-03 7.962057e-03 6.071438e-03 4.613301e-03 -1.131645e-03 -2.105427e-03 -2.097166e-03 -1.402721e-03 -1.527583e-03 -8.499882e-04 -9.091190e-04 -5.466292e-04 -4.788996e-04 -4.570253e-04 -1.735692e-04 -4.599897e-04 7.865094e-05 -4.986928e-04 2.811262e-04 -5.566927e-04 4.302295e-04 -6.186229e-04 5.019599e-04 -6.825058e-04 4.976942e-04 -6.822413e-04 4.673306e-04 -5.695431e-04 3.852240e-04 -3.920681e-04 1.950347e-04 -1.851130e-04 -8.308518e-05 7.395498e-05 -3.764740e-04 3.898640e-04 -6.438068e-04 7.105341e-04 -8.725681e-04 9.545747e-04 -1.066262e-03 1.044994e-03 -1.177426e-03 1.012684e-03 -1.084137e-03 8.971949e-04 -7.866076e-04 6.222852e-04 -3.850028e-04 1.513173e-04 4.977589e-05 -4.390367e-04 4.397360e-04 -8.819877e-04 3.903711e-04 6.748868e-03 3.974952e-02 4.155692e-02 2.546304e-02 1.440896e-02 5.457116e-03 
-1.444664e-03 -4.920240e-03 -1.033428e-02 -1.369336e-02 -2.123288e-02 -1.910478e-02 -3.722207e-03 -2.928056e-03 -3.645071e-03 -4.967253e-03 -5.263031e-03 -8.038590e-03 -4.440228e-03 1.385018e-04 -6.200898e-05 -8.939361e-05 -9.074395e-05 1.046374e-04 -1.204695e-04 2.919615e-04 -1.332030e-04 5.903841e-03 6.363401e-03 3.974211e-03 3.078312e-03 1.454116e-03 1.612323e-03 3.606815e-04 9.525910e-04 -1.583851e-04 6.099016e-04 -3.873870e-04 4.010892e-04 -4.499145e-04 2.465810e-04 -4.188314e-04 9.143052e-05 -3.594734e-04 -1.069161e-04 -3.144000e-04 -3.554936e-04 -2.958795e-04 -6.500091e-04 -3.346984e-04 -1.020795e-03 -5.188389e-04 -1.556334e-03 -1.008248e-03 -2.431124e-03 -2.068494e-03 -3.978734e-03 -4.179596e-03 -6.870094e-03 -8.332629e-03 -1.280728e-02 -1.716611e-02 -2.064865e-02 6.373010e-03 1.364483e-02 -4.868305e-03 1.414309e-02 -1.421715e-03 6.818388e-03 6.792491e-03 -3.953079e-03 1.615804e-02 -1.058409e-02 6.914627e-03 3.221229e-04 -7.436531e-03 9.188622e-03 -9.680911e-03 9.734229e-03 1.172891e-02 3.646774e-03 3.731397e-03 1.678425e-03 1.952872e-03 9.825667e-04 1.103641e-03 5.258440e-04 7.028256e-04 2.241668e-04 5.260385e-04 1.724370e-05 4.550840e-04 -1.291279e-04 4.267818e-04 -2.328767e-04 4.038968e-04 -3.013450e-04 3.698071e-04 -3.245225e-04 3.213870e-04 -2.935621e-04 2.462278e-04 -2.182177e-04 1.317410e-04 -1.096423e-04 -1.569866e-05 2.897606e-05 -1.736820e-04 1.881255e-04 -3.224874e-04 3.441042e-04 -4.481348e-04 4.653977e-04 -5.374912e-04 5.271368e-04 -5.652676e-04 5.302438e-04 -4.951770e-04 4.868006e-04 -3.110164e-04 4.109006e-04 -1.748437e-06 3.808512e-04 4.966171e-04 6.673882e-04 1.364247e-03 2.038058e-03 2.642745e-03 1.190651e-02 2.403460e-02 1.726607e-02 1.282504e-02 7.132204e-03 3.513306e-03 
-1.066601e-03 -3.408616e-03 -6.124262e-03 -7.689207e-03 -9.400326e-03 -8.798811e-03 -6.375255e-03 -6.876297e-03 -6.458337e-03 -9.519022e-03 -9.884720e-03 -1.501275e-02 -1.032714e-02 4.082003e-05 -9.102497e-06 3.197363e-05 -3.395585e-05 4.022836e-05 -4.702181e-05 3.632853e-05 -1.498750e-05 1.286531e-02 1.453749e-02 8.158470e-03 6.811478e-03 3.566836e-03 3.412544e-03 1.540943e-03 1.825085e-03 5.540674e-04 1.028709e-03 7.660892e-05 5.983949e-04 -1.334847e-04 3.370026e-04 -2.019456e-04 1.395356e-04 -2.100460e-04 -5.469013e-05 -2.068714e-04 -2.681917e-04 -2.164240e-04 -5.084795e-04 -2.701228e-04 -8.014290e-04 -4.318834e-04 -1.208301e-03 -8.066636e-04 -1.836955e-03 -1.550140e-03 -2.864325e-03 -2.895403e-03 -4.570159e-03 -5.176287e-03 -7.443961e-03 -9.160251e-03 -1.113567e-02 -2.078013e-03 3.998496e-03 -1.727529e-03 3.494207e-03 -2.444165e-03 1.385101e-03 3.231630e-03 -5.402627e-03 3.476199e-03 -1.192320e-03 3.335979e-03 3.059881e-03 2.150771e-04 4.681111e-03 -2.115700e-04 9.458804e-03 8.616501e-03 4.309258e-03 3.559278e-03 2.260412e-03 1.974401e-03 1.273054e-03 1.132913e-03 6.892666e-04 7.045935e-04 3.390967e-04 4.949351e-04 1.192165e-04 3.958084e-04 -2.534675e-05 3.467364e-04 -1.221505e-04 3.124963e-04 -1.825253e-04 2.757249e-04 -2.040653e-04 2.302909e-04 -1.841953e-04 1.674035e-04 -1.302152e-04 7.917004e-05 -5.038885e-05 -3.007358e-05 5.108237e-05 -1.457892e-04 1.661822e-04 -2.537400e-04 2.778498e-04 -3.425478e-04 3.646763e-04 -4.001940e-04 4.111645e-04 -4.059216e-04 4.201882e-04 -3.300242e-04 4.087911e-04 -1.457898e-04 4.125337e-04 1.924011e-04 5.350113e-04 8.114720e-04 1.027543e-03 2.002426e-03 2.358128e-03 4.227477e-03 5.791867e-03 9.814824e-03 8.253054e-03 6.982646e-03 4.210644e-03 1.928684e-03 
-4.759194e-04 -1.308542e-03 -2.539907e-03 -3.224243e-03 -3.893722e-03 -4.208235e-03 -3.020011e-03 -3.534096e-03 -3.324781e-03 -4.643909e-03 -4.961918e-03 -7.351681e-03 -5.058142e-03 2.218223e-05 -7.068369e-06 1.083975e-05 -2.025647e-05 2.406121e-05 -2.590965e-05 2.897050e-05 -6.661613e-06 6.584504e-03 7.413135e-03 3.933042e-03 3.219644e-03 1.590248e-03 1.497882e-03 6.136616e-04 7.415782e-04 1.561933e-04 3.797642e-04 -6.727879e-05 1.808279e-04 -1.816458e-04 4.121363e-05 -2.479773e-04 -9.160956e-05 -3.041691e-04 -2.493143e-04 -3.786582e-04 -4.532964e-04 -4.978378e-04 -7.246038e-04 -6.968442e-04 -1.094693e-03 -1.027604e-03 -1.610714e-03 -1.557179e-03 -2.329401e-03 -2.348062e-03 -3.284676e-03 -3.397164e-03 -4.388173e-03 -4.466447e-03 -5.178383e-03 -4.797540e-03 -4.561728e-03 -2.319566e-03 6.445623e-04 -9.851751e-04 2.568212e-03 9.415264e-04 2.208004e-03 3.384157e-03 5.720422e-04 4.280837e-03 -8.980504e-05 2.690146e-03 1.330094e-03 4.178880e-04 3.061037e-03 6.490836e-04 3.664067e-03 2.379166e-03 2.642691e-03 2.160700e-03 1.969268e-03 1.688448e-03 1.369327e-03 1.212438e-03 9.197512e-04 8.545682e-04 6.027606e-04 6.092274e-04 3.827153e-04 4.468556e-04 2.295720e-04 3.389170e-04 1.224402e-04 2.638550e-04 4.881743e-05 2.074166e-04 2.850709e-06 1.604884e-04 -1.875152e-05 1.158999e-04 -1.994069e-05 6.882714e-05 -4.633473e-06 1.872766e-05 2.378850e-05 -3.123928e-05 6.068310e-05 -7.680398e-05 9.912384e-05 -1.135491e-04 1.314582e-04 -1.360415e-04 1.527668e-04 -1.360320e-04 1.647145e-04 -1.019599e-04 1.777372e-04 -1.832252e-05 2.184852e-04 1.452464e-04 3.509544e-04 4.573543e-04 7.052974e-04 1.051514e-03 1.479659e-03 2.117931e-03 2.839172e-03 4.076917e-03 3.180168e-03 2.970379e-03 1.631760e-03 9.161421e-04 
2.207799e-06 -3.044714e-06 1.365322e-06 -2.890712e-06 7.590177e-07 -2.582851e-06 2.631704e-07 -1.717755e-06 -4.181214e-07 -6.854671e-07 -9.851937e-07 3.509460e-07 -7.060866e-07 -2.924138e-07 -9.292134e-08 -1.319430e-07 -3.929396e-08 -1.654173e-07 -3.736067e-08 -4.913505e-07 -1.707949e-08 -1.341600e-05 -6.746789e-08 -1.737661e-05 2.952003e-06 -2.685439e-05 6.277160e-06 -4.177302e-05 7.431683e-06 -6.107933e-05 4.611508e-06 -8.223157e-05 -4.639789e-06 -1.038957e-04 -2.532635e-05 -1.284033e-04 -6.583475e-05 -1.624576e-04 -1.361324e-04 -2.153438e-04 -2.455659e-04 -2.994819e-04 -4.056028e-04 -4.351260e-04 -6.346419e-04 -6.534045e-04 -9.597534e-04 -9.938868e-04 -1.411232e-03 -1.490261e-03 -1.999752e-03 -2.131768e-03 -2.660641e-03 -2.782184e-03 -3.143864e-03 -3.045261e-03 -2.864035e-03 -2.079155e-03 -8.585950e-04 -1.250331e-03 -2.126914e-05 -4.290120e-04 9.552089e-06 7.635240e-04 -3.590891e-04 1.359984e-03 3.740190e-04 1.552437e-03 1.496012e-03 1.445303e-03 2.415936e-03 1.754744e-03 3.122779e-03 2.607489e-03 2.615961e-03 2.213018e-03 1.945346e-03 1.641733e-03 1.366934e-03 1.139251e-03 9.387256e-04 7.632345e-04 6.435431e-04 5.017761e-04 4.463448e-04 3.265362e-04 3.143982e-04 2.112309e-04 2.233989e-04 1.362489e-04 1.574948e-04 8.857734e-05 1.079767e-04 5.994419e-05 7.009734e-05 4.375234e-05 4.049788e-05 3.462137e-05 1.750113e-05 2.948866e-05 1.181756e-06 2.700315e-05 -8.446224e-06 2.568355e-05 -1.276105e-05 2.365217e-05 -1.384891e-05 1.971416e-05 -1.296851e-05 1.476330e-05 -9.446978e-06 1.108410e-05 -3.100582e-06 8.785218e-06 3.484784e-06 5.947989e-06 7.564788e-06 1.902550e-06 8.756641e-06 -1.898075e-06 8.428121e-06 -3.721923e-06 7.488185e-06 -3.690661e-06 5.297383e-06 -3.470366e-06 3.478743e-06 -3.226953e-06 
4.813631e-04 1.301533e-03 2.544004e-03 3.217234e-03 3.896904e-03 4.201500e-03 3.022232e-03 3.529865e-03 3.325508e-03 4.642674e-03 4.961595e-03 7.353287e-03 5.057834e-03 -2.239563e-05 7.018633e-06 -1.031272e-05 2.005424e-05 -2.314674e-05 2.544168e-05 -2.852760e-05 6.319989e-06 -6.630418e-03 -7.449825e-03 -3.990900e-03 -3.251125e-03 -1.670830e-03 -1.528068e-03 -7.311580e-04 -7.789374e-04 -3.237170e-04 -4.369519e-04 -1.602711e-04 -2.768024e-04 -1.154977e-04 -2.069628e-04 -1.352058e-04 -1.945053e-04 -1.973843e-04 -2.315852e-04 -2.952767e-04 -3.203043e-04 -4.309055e-04 -4.674919e-04 -6.129970e-04 -6.816615e-04 -8.531356e-04 -9.685519e-04 -1.159284e-03 -1.322634e-03 -1.521238e-03 -1.706136e-03 -1.881958e-03 -2.014540e-03 -2.103705e-03 -2.049598e-03 -1.970987e-03 -1.568044e-03 -1.324188e-03 -4.986323e-04 -5.368488e-04 2.890521e-04 3.655150e-04 5.856797e-04 1.187258e-03 5.839338e-04 1.618353e-03 6.821058e-04 1.527432e-03 1.061426e-03 1.224699e-03 1.458483e-03 1.156462e-03 1.616816e-03 1.279138e-03 1.470981e-03 1.212705e-03 1.228283e-03 1.019417e-03 9.763395e-04 7.828012e-04 7.637604e-04 5.586265e-04 6.031829e-04 3.709856e-04 4.881691e-04 2.251704e-04 4.054195e-04 1.187381e-04 3.416224e-04 4.692290e-05 2.858318e-04 5.050464e-06 2.310379e-04 -1.065224e-05 1.736627e-04 -4.453767e-06 1.124207e-04 1.861919e-05 4.859793e-05 5.341648e-05 -1.411024e-05 9.430016e-05 -7.122587e-05 1.341629e-04 -1.188067e-04 1.649546e-04 -1.536056e-04 1.787449e-04 -1.736254e-04 1.686108e-04 -1.795424e-04 1.270829e-04 -1.814339e-04 3.860587e-05 -2.107695e-04 -1.309850e-04 -3.364489e-04 -4.515576e-04 -6.889664e-04 -1.053872e-03 -1.463562e-03 -2.124883e-03 -2.823416e-03 -4.084976e-03 -3.169114e-03 -2.978221e-03 -1.624094e-03 -9.234222e-04 
1.069653e-03 3.402946e-03 6.126310e-03 7.682995e-03 9.401607e-03 8.791535e-03 6.376653e-03 6.872279e-03 6.457041e-03 9.518156e-03 9.881525e-03 1.501565e-02 1.032378e-02 -4.098796e-05 9.235224e-06 -3.146326e-05 3.408406e-05 -3.938957e-05 4.677438e-05 -3.616566e-05 1.458512e-05 -1.287553e-02 -1.454954e-02 -8.176175e-03 -6.808600e-03 -3.599723e-03 -3.392437e-03 -1.607914e-03 -1.795225e-03 -6.698603e-04 -9.950465e-04 -2.408027e-04 -5.643187e-04 -6.622598e-05 -3.127710e-04 -2.264645e-05 -1.600333e-04 -5.028816e-05 -7.542262e-05 -1.180688e-04 -4.614947e-05 -2.102150e-04 -7.020972e-05 -3.240586e-04 -1.487137e-04 -4.589223e-04 -2.781458e-04 -6.148638e-04 -4.548757e-04 -7.927952e-04 -6.669791e-04 -9.752525e-04 -8.693338e-04 -1.101669e-03 -9.675136e-04 -1.071112e-03 -8.468069e-04 -8.075007e-04 -4.766485e-04 -4.652961e-04 -1.862634e-04 -4.865110e-05 -6.709805e-05 3.582757e-04 7.989476e-06 6.886968e-04 2.402577e-04 8.727634e-04 5.943386e-04 9.463013e-04 8.791902e-04 1.006187e-03 1.022839e-03 1.078679e-03 9.775819e-04 9.858362e-04 8.560867e-04 7.955463e-04 7.282617e-04 5.711302e-04 6.249913e-04 3.536532e-04 5.556836e-04 1.666544e-04 5.149424e-04 1.850251e-05 4.895385e-04 -8.760901e-05 4.657655e-04 -1.522387e-04 4.290792e-04 -1.772786e-04 3.713192e-04 -1.618854e-04 2.899502e-04 -1.091336e-04 1.840930e-04 -2.643398e-05 5.833539e-05 7.819299e-05 -7.567554e-05 1.949391e-04 -2.044957e-04 3.077462e-04 -3.164858e-04 3.972266e-04 -4.004991e-04 4.433896e-04 -4.479408e-04 4.300822e-04 -4.506337e-04 3.464500e-04 -4.161199e-04 1.654034e-04 -3.955911e-04 -1.756567e-04 -5.082734e-04 -8.085838e-04 -1.003926e-03 -2.014226e-03 -2.339007e-03 -4.242600e-03 -5.772014e-03 -9.822831e-03 -8.243908e-03 -6.989517e-03 -4.205634e-03 -1.934574e-03 
1.447122e-03 4.914743e-03 1.033703e-02 1.368563e-02 2.123690e-02 1.908967e-02 3.726529e-03 2.921896e-03 3.643894e-03 4.967055e-03 5.260803e-03 8.045362e-03 4.437387e-03 -1.366893e-04 6.242625e-05 9.133100e-05 9.099437e-05 -1.002875e-04 1.180661e-04 -2.849027e-04 1.321304e-04 -5.910257e-03 -6.415001e-03 -3.990377e-03 -3.101909e-03 -1.482054e-03 -1.611809e-03 -4.281990e-04 -9.415121e-04 2.842849e-05 -5.942337e-04 1.940426e-04 -3.785193e-04 2.111377e-04 -2.198786e-04 1.515921e-04 -9.777403e-05 4.999286e-05 -1.445594e-05 -7.268084e-05 2.788557e-05 -2.029838e-04 2.296799e-05 -3.400373e-04 -3.262961e-05 -4.779895e-04 -1.292482e-04 -6.090252e-04 -2.602426e-04 -7.348498e-04 -4.206934e-04 -8.502293e-04 -5.824755e-04 -9.181465e-04 -6.781257e-04 -8.699957e-04 -6.185006e-04 -6.224533e-04 -3.076136e-04 -4.206448e-04 2.853834e-05 9.403160e-05 1.024879e-04 4.946529e-04 1.519279e-04 1.027620e-03 3.344486e-04 1.230858e-03 7.287214e-04 1.091275e-03 7.830487e-04 7.925065e-04 5.964225e-04 6.964293e-04 4.429613e-04 5.657923e-04 3.771254e-04 4.264696e-04 3.683195e-04 2.735249e-04 3.884411e-04 1.158332e-04 4.256079e-04 -2.897627e-05 4.695831e-04 -1.506401e-04 5.075200e-04 -2.395181e-04 5.286300e-04 -2.910748e-04 5.178481e-04 -3.038305e-04 4.684500e-04 -2.712094e-04 3.805926e-04 -1.938944e-04 2.542446e-04 -7.981843e-05 9.640732e-05 6.266284e-05 -7.568454e-05 2.230199e-04 -2.431980e-04 3.805589e-04 -3.908756e-04 5.100680e-04 -5.031181e-04 5.852613e-04 -5.676137e-04 5.864882e-04 -5.660801e-04 5.092429e-04 -4.920149e-04 3.357007e-04 -3.847267e-04 2.581852e-05 -3.461476e-04 -4.917803e-04 -6.424624e-04 -1.380997e-03 -2.021533e-03 -2.664552e-03 -1.187435e-02 -2.404666e-02 -1.725996e-02 -1.283433e-02 -7.129073e-03 -3.519062e-03 
2.439764e-03 1.054908e-02 2.032437e-02 3.119427e-02 4.062886e-02 1.751483e-02 -1.419827e-04 1.851564e-03 -9.329153e-04 2.855625e-03 1.476362e-04 4.117519e-03 1.714836e-03 -1.504804e-04 7.578500e-05 4.366745e-05 1.159194e-04 -1.221520e-04 1.617712e-04 -2.865042e-04 1.806689e-04 -2.686584e-03 -1.830251e-03 -1.316691e-03 -1.096192e-03 -3.955898e-05 -7.606762e-04 4.783991e-04 -6.255079e-04 6.294235e-04 -5.054133e-04 6.072989e-04 -3.492671e-04 5.021177e-04 -1.561713e-04 3.686766e-04 4.667373e-05 2.145599e-04 2.147144e-04 6.052261e-05 3.550993e-04 -6.075621e-05 4.499359e-04 -1.716266e-04 4.814937e-04 -2.461912e-04 5.028706e-04 -2.397738e-04 5.283025e-04 -1.837459e-04 5.091822e-04 -1.375426e-04 4.158200e-04 -1.081941e-04 2.856545e-04 -4.864026e-05 1.899337e-04 1.281403e-04 2.552330e-04 1.580797e-04 2.884880e-04 3.648428e-04 4.989000e-05 3.545066e-04 -2.041386e-04 5.608971e-04 -2.815853e-04 6.184955e-04 -7.864663e-05 5.307280e-04 -9.099214e-05 3.299853e-04 -2.270497e-04 3.019992e-04 -2.349961e-04 2.260626e-04 -1.138600e-04 1.448827e-04 6.104227e-05 1.749972e-05 2.248812e-04 -1.493455e-04 3.883143e-04 -3.066048e-04 5.462786e-04 -4.495889e-04 6.745025e-04 -5.508733e-04 7.705547e-04 -6.011666e-04 7.913948e-04 -6.075253e-04 7.314941e-04 -5.336440e-04 6.055712e-04 -3.777508e-04 3.992944e-04 -1.646974e-04 1.168948e-04 9.666250e-05 -1.971318e-04 4.050757e-04 -5.008724e-04 7.169790e-04 -7.741533e-04 9.826683e-04 -9.841866e-04 1.142094e-03 -1.123319e-03 1.148774e-03 -1.123410e-03 1.048394e-03 -9.110540e-04 8.299660e-04 -5.369208e-04 4.487554e-04 -5.915131e-05 -4.521481e-05 4.774487e-04 -5.055837e-04 8.912946e-04 -4.620204e-04 -6.699368e-03 -3.971954e-02 -4.156731e-02 -2.546957e-02 -1.441619e-02 -5.460416e-03 
8.762510e-04 9.000140e-03 1.609633e-02 2.695318e-02 2.783776e-02 -1.246862e-02 -3.132019e-03 2.091191e-03 -5.000138e-03 1.629653e-03 -5.738029e-03 -6.591662e-04 -4.090345e-03 5.250242e-03 2.808601e-04 1.549786e-03 1.439003e-04 -1.733037e-04 1.107599e-04 -1.989505e-03 -1.396854e-03 1.847518e-03 2.721207e-03 2.232735e-03 1.235486e-03 1.413600e-03 4.268417e-04 1.062613e-03 8.587841e-05 8.230538e-04 -1.196599e-06 6.182067e-04 6.120640e-05 4.282646e-04 2.085441e-04 2.634077e-04 3.834532e-04 1.010805e-04 5.221533e-04 -4.732315e-05 6.388920e-04 -1.453374e-04 7.118794e-04 -2.296888e-04 7.162493e-04 -2.686257e-04 7.243099e-04 -2.042685e-04 7.532613e-04 -8.487770e-05 7.304893e-04 1.657912e-07 6.019223e-04 2.669820e-05 3.932054e-04 3.322309e-05 1.594237e-04 5.368556e-05 -7.970734e-05 2.168504e-04 -2.481754e-04 2.352594e-04 -3.247017e-04 2.751773e-04 -3.163088e-04 3.173060e-04 -2.677873e-04 4.781159e-04 -3.200237e-04 6.175907e-04 -3.241486e-04 6.238400e-04 -2.818539e-04 4.362148e-04 -2.097842e-04 2.609365e-04 -7.632114e-05 1.059509e-04 1.004663e-04 -7.630350e-05 2.674064e-04 -2.858036e-04 4.487835e-04 -4.680341e-04 6.350461e-04 -6.273258e-04 7.878171e-04 -7.298602e-04 9.012185e-04 -7.633065e-04 9.139520e-04 -7.374364e-04 8.184401e-04 -6.018241e-04 6.352161e-04 -3.554246e-04 3.435860e-04 -3.505529e-05 -5.069904e-05 3.440370e-04 -4.848311e-04 7.766284e-04 -8.976658e-04 1.198443e-03 -1.256199e-03 1.537608e-03 -1.508299e-03 1.708106e-03 -1.638436e-03 1.642352e-03 -1.548892e-03 1.402234e-03 -1.136194e-03 9.689965e-04 -4.676943e-04 2.650634e-04 4.046650e-04 -7.068716e-04 1.581353e-03 -1.990682e-03 3.672032e-03 -4.290932e-03 1.294397e-02 -1.604297e-02 -3.672211e-02 -2.096805e-02 -1.376179e-02 -4.408005e-03 
2.282459e-04 3.280552e-03 4.143035e-03 6.410281e-03 8.293848e-04 -2.087183e-02 8.846964e-05 4.699554e-03 -7.201692e-04 5.879494e-03 2.917847e-05 6.684844e-03 -3.239326e-03 -7.021040e-03 -6.520502e-03 -6.804998e-04 -2.083698e-03 1.706504e-03 1.373990e-03 5.247473e-03 7.317147e-03 2.633381e-04 -2.069647e-03 -1.767507e-03 -1.154269e-03 -6.561048e-04 -5.742346e-04 -2.068589e-04 -3.021790e-04 -3.972860e-05 -1.262047e-04 -5.261659e-06 1.392159e-05 -3.285133e-05 1.343367e-04 -8.390998e-05 2.283400e-04 -1.527495e-04 2.774311e-04 -2.284735e-04 2.913859e-04 -2.930668e-04 2.662549e-04 -3.575565e-04 1.979077e-04 -4.066116e-04 1.223134e-04 -4.134525e-04 5.891713e-05 -3.869073e-04 2.514249e-06 -3.375772e-04 -2.681269e-05 -2.312611e-04 3.613326e-05 -1.114603e-05 2.334222e-04 2.808748e-04 4.233554e-04 6.823191e-04 4.237013e-04 7.426874e-04 3.472299e-04 8.267478e-04 1.418827e-04 5.251129e-04 -1.785262e-04 2.144825e-04 -5.277163e-04 1.045290e-04 -4.058263e-04 2.674423e-04 -8.370830e-05 3.036981e-04 1.128850e-04 3.181752e-04 2.408967e-04 2.688963e-04 3.372497e-04 1.567219e-04 4.101587e-04 4.874903e-06 4.834452e-04 -1.450830e-04 5.580813e-04 -2.787649e-04 6.165067e-04 -3.719108e-04 6.493136e-04 -4.121662e-04 6.254515e-04 -3.980141e-04 5.370185e-04 -3.074221e-04 3.896062e-04 -1.415394e-04 1.754638e-04 7.927553e-05 -9.829525e-05 3.398583e-04 -3.966105e-04 6.255039e-04 -6.810421e-04 8.941799e-04 -9.226277e-04 1.097384e-03 -1.084924e-03 1.181625e-03 -1.145085e-03 1.105627e-03 -1.050540e-03 8.818908e-04 -7.563529e-04 4.882716e-04 -3.003042e-04 -1.382042e-04 2.667407e-04 -1.097922e-03 9.262591e-04 -2.777547e-03 1.834566e-03 -7.178915e-03 1.198442e-02 6.178717e-03 -8.385537e-03 -3.628317e-03 -4.003273e-03 -3.396713e-04 
1.163125e-04 1.166251e-03 1.706063e-03 1.291601e-03 9.823625e-06 -6.388771e-03 2.211019e-03 4.272138e-03 4.084141e-03 8.399507e-03 9.949559e-03 1.780982e-02 2.177922e-02 2.288170e-02 1.180805e-02 6.234265e-03 2.510909e-03 -2.225010e-03 -6.760244e-03 -1.094826e-02 -2.278283e-02 -2.320913e-02 -1.565910e-02 -1.070929e-02 -6.550312e-03 -4.446838e-03 -2.778540e-03 -1.852397e-03 -1.164322e-03 -7.611725e-04 -4.499089e-04 -3.160842e-04 -1.164276e-04 -1.446284e-04 5.140725e-05 -8.666885e-05 1.362991e-04 -7.860007e-05 1.666006e-04 -9.330690e-05 1.572321e-04 -1.180802e-04 1.129775e-04 -1.554139e-04 3.106708e-05 -2.134249e-04 -9.403039e-05 -3.101507e-04 -2.835160e-04 -4.820464e-04 -5.742197e-04 -7.689024e-04 -9.966174e-04 -1.178756e-03 -1.531364e-03 -1.617209e-03 -1.987126e-03 -1.539325e-03 -1.437886e-03 -2.413409e-03 -4.496973e-04 -1.000907e-03 -6.318572e-04 -5.089666e-04 -6.145272e-04 1.989302e-03 5.003068e-04 3.294275e-03 3.059215e-03 2.873194e-03 2.949729e-03 1.094167e-03 1.363870e-03 8.203684e-04 4.614744e-04 4.451813e-04 1.544471e-04 2.460928e-04 1.088976e-04 1.175284e-04 1.484978e-04 1.012693e-05 2.074095e-04 -8.352397e-05 2.636032e-04 -1.594765e-04 3.058438e-04 -2.097905e-04 3.265096e-04 -2.295632e-04 3.157069e-04 -2.159643e-04 2.703810e-04 -1.633393e-04 1.917320e-04 -7.360093e-05 7.953868e-05 4.408684e-05 -6.008421e-05 1.804461e-04 -2.106721e-04 3.246369e-04 -3.528093e-04 4.570165e-04 -4.696118e-04 5.531817e-04 -5.439195e-04 5.889482e-04 -5.589574e-04 5.489161e-04 -4.914166e-04 4.314618e-04 -3.264496e-04 2.246186e-04 -7.841988e-05 -1.021489e-04 2.207397e-04 -6.097417e-04 5.215497e-04 -1.490799e-03 6.994875e-04 -3.595936e-03 3.494017e-03 2.728532e-03 -1.350817e-03 -8.529446e-04 -1.573941e-03 -2.432241e-04 
