# vtk DataFile Version 2.0
Comment goes here
ASCII

DATASET STRUCTURED_POINTS
FIELD FieldData 1
TIME 1 1 double
0.05300000
DIMENSIONS    64   64   1

ORIGIN    0.000   0.000   0.000
SPACING   0.03125 0.03125   1.000

POINT_DATA   4096
SCALARS Omega double
LOOKUP_TABLE default

-1.533432e-01 3.988637e-02 -2.483592e-01 -1.688746e-04 -2.858715e-01 1.228718e-01 -2.187280e-01 5.590456e-02 -1.851888e-01 5.016449e-02 -1.183426e-01 3.410842e-02 -2.554653e-02 3.154690e-02 5.187325e-02 4.867089e-02 1.210521e-01 7.439751e-02 1.992036e-01 1.045984e-01 2.211074e-01 1.145772e-01 2.925113e-01 2.269126e-01 2.691063e-01 2.276423e-01 2.539447e-01 2.636109e-01 2.293075e-01 2.412750e-01 2.161044e-01 2.275481e-01 2.562242e-01 1.862909e-01 2.805939e-01 1.659287e-01 3.055156e-01 1.363907e-01 2.743161e-01 1.709831e-01 2.493395e-01 1.633609e-01 2.469710e-01 1.381872e-01 2.314839e-01 8.712843e-02 2.205048e-01 3.682769e-02 1.756685e-01 -4.168413e-03 1.451747e-01 -3.256658e-02 7.759066e-02 -4.677778e-02 1.122162e-02 -5.071445e-02 -4.347481e-02 -6.018451e-02 -7.659332e-02 -6.168527e-02 -1.229621e-01 -2.781626e-02 -1.694657e-01 7.788403e-04 
-1.859925e+00 -3.684436e+01 -9.159613e+00 -3.286815e+01 -1.030053e+01 -3.081266e+01 -1.431192e+01 -2.645005e+01 -2.195596e+01 -2.112246e+01 -2.917227e+01 -1.583136e+01 -3.510423e+01 -1.190978e+01 -3.904096e+01 -9.608766e+00 -4.144308e+01 -8.384296e+00 -4.288389e+01 -7.959779e+00 -4.352935e+01 -7.969158e+00 -4.398819e+01 -7.913939e+00 -4.508889e+01 -6.219824e+00 -4.834625e+01 -1.876529e+00 -5.404730e+01 4.651709e+00 -6.137160e+01 1.185876e+01 -6.844604e+01 1.820785e+01 -7.425904e+01 2.296276e+01 -7.795504e+01 2.514383e+01 -7.870601e+01 2.494527e+01 -7.749407e+01 2.297817e+01 -7.444802e+01 1.904053e+01 -6.942835e+01 1.337615e+01 -6.280861e+01 6.778327e+00 -5.581478e+01 4.372285e-01 -4.933833e+01 -5.083445e+00 -4.392176e+01 -9.099153e+00 -4.001502e+01 -1.178377e+01 -3.671061e+01 -1.433812e+01 -3.265752e+01 -1.820866e+01 -2.667444e+01 -2.385884e+01 -1.912860e+01 -3.254981e+01 
-6.803882e+01 9.137464e+00 -3.819417e+01 7.120291e+00 -1.150218e+01 7.141874e+00 -4.413432e+01 2.947908e+00 -5.541272e+01 2.014122e-01 -6.225952e+01 -2.350512e+00 -6.714334e+01 -4.120922e+00 -7.144211e+01 -5.067011e+00 -7.523177e+01 -5.707768e+00 -7.844065e+01 -6.056128e+00 -8.133473e+01 -6.058473e+00 -8.397545e+01 -6.045990e+00 -8.581636e+01 -6.691813e+00 -8.617916e+01 -8.722831e+00 -8.479565e+01 -1.198677e+01 -8.232974e+01 -1.543300e+01 -7.995403e+01 -1.835431e+01 -7.791305e+01 -2.057077e+01 -7.660262e+01 -2.147824e+01 -7.641378e+01 -2.129658e+01 -7.666597e+01 -2.056744e+01 -7.719141e+01 -1.893912e+01 -7.851589e+01 -1.625673e+01 -8.031607e+01 -1.313954e+01 -8.185122e+01 -1.023711e+01 -8.262865e+01 -7.651102e+00 -8.233081e+01 -5.906867e+00 -8.042696e+01 -4.989370e+00 -7.727487e+01 -4.204006e+00 -7.342320e+01 -2.552077e+00 -6.917903e+01 7.260717e-03 -6.207823e+01 5.912443e+00 
-3.571493e+01 8.532149e+00 -2.052272e+01 1.080617e+01 -2.620081e+01 8.260172e+00 -1.831784e+01 9.320143e+00 -2.440177e+01 6.155313e+00 -2.749991e+01 3.046398e+00 -2.951718e+01 6.680581e-01 -3.135779e+01 -9.055496e-01 -3.307773e+01 -1.911310e+00 -3.453095e+01 -2.482615e+00 -3.592071e+01 -2.782440e+00 -3.695537e+01 -2.688907e+00 -3.757712e+01 -3.319408e+00 -3.706943e+01 -5.018850e+00 -3.520883e+01 -7.794239e+00 -3.248173e+01 -1.067799e+01 -2.981087e+01 -1.315511e+01 -2.757731e+01 -1.500693e+01 -2.613126e+01 -1.578942e+01 -2.589226e+01 -1.566113e+01 -2.620064e+01 -1.496262e+01 -2.700777e+01 -1.352576e+01 -2.855326e+01 -1.120416e+01 -3.060932e+01 -8.487584e+00 -3.262664e+01 -5.818971e+00 -3.413708e+01 -3.461410e+00 -3.491033e+01 -1.805208e+00 -3.468090e+01 -8.190917e-01 -3.374773e+01 9.265816e-02 -3.259436e+01 1.509695e+00 -3.149751e+01 3.762888e+00 -2.977456e+01 9.961764e+00 
-1.999857e+00 1.745235e+00 -2.343233e+00 -3.817568e+00 -4.622157e+01 8.592403e-02 3.208980e+00 -1.372556e-02 4.294347e-01 -2.475649e-03 -5.174261e-01 1.148411e-02 -9.049839e-01 1.466074e-03 -1.067519e+00 -3.527913e-02 -1.103208e+00 -8.784443e-02 -1.089722e+00 -1.441051e-01 -1.035279e+00 -1.903154e-01 -9.519393e-01 -2.323353e-01 -9.061263e-01 -2.501676e-01 -8.819316e-01 -2.540083e-01 -8.733849e-01 -2.520499e-01 -8.718982e-01 -2.174749e-01 -8.471145e-01 -1.701186e-01 -8.219479e-01 -1.370432e-01 -7.978263e-01 -1.625682e-01 -7.740286e-01 -2.325366e-01 -7.590609e-01 -3.031912e-01 -7.187075e-01 -3.385612e-01 -6.498213e-01 -3.566808e-01 -5.735495e-01 -3.694339e-01 -4.960837e-01 -3.834595e-01 -4.341380e-01 -3.798100e-01 -3.831254e-01 -3.258587e-01 -3.436283e-01 -2.057705e-01 -3.262001e-01 -1.339407e-02 -3.551558e-01 2.377927e-01 -4.499336e-01 5.866018e-01 -5.970387e-01 1.035726e+00 
-1.352381e+00 1.254558e+00 -1.985544e+00 -3.352785e+00 -5.835888e+01 -1.339474e+00 2.985316e+00 -6.741741e-01 1.669507e+00 -2.810937e-01 8.422676e-01 -1.742095e-01 4.304874e-01 -1.217293e-01 2.303103e-01 -8.814994e-02 1.383126e-01 -8.357035e-02 6.895007e-02 -7.513284e-02 2.842627e-02 -4.425073e-02 2.489077e-02 -5.910516e-02 -2.096193e-03 -5.107609e-02 -1.634970e-02 -3.438832e-02 -6.911523e-03 -2.769803e-02 -1.821041e-02 -1.412997e-02 -9.647478e-03 -1.062200e-02 -1.618208e-02 -7.953505e-03 -1.944648e-02 5.723235e-03 2.931216e-04 3.413058e-03 -1.476785e-02 1.258182e-02 -2.556429e-02 3.155104e-02 -1.935398e-02 3.629428e-02 -2.945568e-02 4.748012e-02 -2.763906e-02 5.368990e-02 -3.341706e-02 6.176997e-02 -6.127431e-02 9.097075e-02 -1.048414e-01 1.457646e-01 -1.729784e-01 2.261250e-01 -2.810930e-01 3.521930e-01 -4.850776e-01 5.313618e-01 -8.816619e-01 4.271577e-01 
-1.450874e+00 8.585340e-01 -1.431227e+00 -4.079217e+00 -6.857564e+01 -1.039107e+00 2.347436e+00 -7.071560e-01 1.652157e+00 -3.739532e-01 9.079585e-01 -2.402487e-01 4.904064e-01 -1.593523e-01 2.840709e-01 -1.152504e-01 2.119758e-01 -1.172417e-01 1.219457e-01 -9.879573e-02 7.682203e-02 -6.142295e-02 9.152538e-02 -6.647113e-02 4.302122e-02 -5.502969e-02 2.511184e-02 -4.017460e-02 2.282130e-02 -3.089900e-02 1.550522e-03 -9.386134e-03 1.505850e-02 -1.269066e-02 -1.246525e-02 -1.686010e-03 -2.160405e-02 2.195889e-02 1.462504e-02 1.152961e-02 -1.289501e-02 2.424660e-02 -2.024193e-02 4.519512e-02 -1.239089e-02 5.761743e-02 -1.928834e-02 7.848903e-02 -2.030433e-03 7.891983e-02 -2.889052e-02 9.493265e-02 -7.661678e-02 1.365126e-01 -1.430297e-01 1.950230e-01 -2.395022e-01 2.682832e-01 -3.829637e-01 3.663877e-01 -5.990287e-01 5.000769e-01 -9.221089e-01 5.640427e-01 
-1.261937e+00 7.539296e-01 -1.008956e+00 -3.617238e+00 -7.555592e+01 -1.146232e+00 1.277222e+00 -1.005270e+00 1.359928e+00 -5.489827e-01 8.924133e-01 -3.334470e-01 5.078320e-01 -2.168627e-01 2.777376e-01 -1.582438e-01 2.173450e-01 -1.715283e-01 1.083200e-01 -1.579218e-01 4.537846e-02 -8.827208e-02 1.062448e-01 -1.049382e-01 3.035269e-02 -8.703114e-02 1.226001e-03 -4.706783e-02 3.355392e-02 -4.802594e-02 -1.096087e-02 -1.600470e-02 1.347466e-02 -1.498481e-02 -1.221269e-02 -4.927194e-03 -3.685903e-02 4.515670e-02 4.112125e-02 1.665570e-02 -1.353765e-02 2.552267e-02 -4.145070e-02 6.781447e-02 -5.895958e-03 6.240956e-02 -4.511906e-02 8.794533e-02 -2.020436e-02 8.793715e-02 -1.411344e-02 9.052481e-02 -5.358238e-02 1.552210e-01 -1.126191e-01 2.459601e-01 -2.011830e-01 3.470867e-01 -3.340292e-01 4.657080e-01 -5.397698e-01 5.972691e-01 -8.487986e-01 6.775478e-01 
-1.071863e+00 6.369471e-01 -3.844721e-01 -3.953252e+00 -8.133668e+01 -9.018698e-01 6.961195e-01 -9.723605e-01 1.027653e+00 -5.739535e-01 7.548526e-01 -3.595035e-01 4.398536e-01 -2.258285e-01 2.430079e-01 -1.713967e-01 2.688845e-01 -2.448957e-01 1.095631e-01 -1.989276e-01 4.698975e-02 -9.310913e-02 1.760067e-01 -1.195220e-01 4.450517e-02 -8.243331e-02 2.306860e-02 -6.823626e-02 4.940107e-02 -5.112810e-02 -1.759776e-02 7.852350e-03 4.585120e-02 -3.902878e-02 -3.520650e-02 -6.311979e-03 -6.459254e-02 6.950436e-02 6.896018e-02 1.777843e-02 -3.037961e-02 4.264954e-02 -4.615268e-02 6.550468e-02 -1.525264e-02 7.354956e-02 -5.839461e-02 1.179378e-01 1.360587e-02 6.913637e-02 -2.259335e-02 8.858139e-02 -6.649937e-02 1.691810e-01 -1.320220e-01 2.630423e-01 -2.312694e-01 3.583762e-01 -3.676308e-01 4.663043e-01 -5.503032e-01 5.883616e-01 -7.884590e-01 6.852817e-01 
-8.138586e-01 5.616757e-01 9.897615e-02 -3.712614e+00 -8.504652e+01 -8.183308e-01 1.100018e-01 -1.103734e+00 6.445502e-01 -7.035395e-01 5.967846e-01 -4.291043e-01 3.563721e-01 -2.387466e-01 1.343498e-01 -1.745175e-01 2.586272e-01 -3.332240e-01 9.850735e-02 -2.748581e-01 -2.964517e-02 -8.590716e-02 2.498266e-01 -1.755775e-01 2.637150e-02 -1.118126e-01 -4.935448e-02 -7.332505e-02 1.128453e-01 -8.454210e-02 -4.504452e-02 2.850921e-02 3.131606e-02 -5.732207e-02 -1.860049e-02 -2.223883e-02 -1.219238e-01 1.335266e-01 1.433755e-01 -5.219930e-03 -3.081601e-02 3.482590e-02 -1.217642e-01 1.026591e-01 4.691614e-02 7.121110e-02 -1.020519e-01 1.625429e-01 -4.280289e-02 6.200419e-02 3.883375e-02 3.202335e-02 -3.754686e-03 1.752771e-01 -7.926737e-02 3.099041e-01 -1.805380e-01 4.163498e-01 -3.027168e-01 5.206681e-01 -4.553459e-01 6.272369e-01 -6.427804e-01 7.105539e-01 
-5.869716e-01 4.761070e-01 6.293865e-01 -3.781990e+00 -8.794099e+01 -6.655477e-01 -2.310654e-01 -1.103657e+00 3.266317e-01 -7.052690e-01 3.950273e-01 -4.021149e-01 2.069212e-01 -1.482698e-01 -2.645148e-03 -8.632211e-02 3.692490e-01 -5.857935e-01 6.259217e-02 -2.906182e-01 -1.068288e-01 -7.989657e-02 4.307811e-01 -2.085718e-01 1.533532e-03 -9.393771e-03 -5.491749e-02 -2.036368e-01 1.542912e-01 -7.305459e-02 -9.095232e-02 1.599026e-01 1.230788e-01 -1.841099e-01 -7.812854e-02 -7.116782e-03 -2.080913e-01 1.761245e-01 2.705581e-01 -2.942505e-02 -7.522466e-02 1.209800e-01 -1.383445e-01 2.377117e-02 4.683535e-02 9.222200e-02 -1.522828e-01 2.722611e-01 4.318263e-02 -5.201966e-02 1.043037e-02 1.368260e-02 5.367227e-03 1.905485e-01 -7.192287e-02 3.248731e-01 -1.832961e-01 4.202939e-01 -2.986588e-01 5.133485e-01 -4.175473e-01 6.130519e-01 -5.370227e-01 6.969016e-01 
-3.453375e-01 4.031555e-01 1.060847e+00 -3.640549e+00 -8.929720e+01 -4.784330e-01 -4.880543e-01 -1.171236e+00 4.566958e-02 -8.206622e-01 2.532917e-01 -4.501851e-01 1.172805e-01 6.190663e-03 -2.813821e-01 2.038270e-01 2.461630e-01 -1.053455e+00 1.906877e-01 -2.646490e-01 -3.469492e-01 2.151662e-02 6.505080e-01 -4.367994e-01 4.722880e-02 1.851765e-01 -3.966863e-01 -3.913912e-01 4.426260e-01 -1.550275e-01 -1.184059e-01 4.629034e-01 -6.975296e-02 -4.724932e-01 9.557517e-02 2.179578e-02 -4.132530e-01 3.929358e-01 4.483326e-01 -2.662395e-01 2.094048e-02 2.753231e-01 -5.041521e-01 -5.342667e-02 3.541903e-01 4.035181e-02 -1.872283e-01 6.293453e-01 -3.253738e-01 -3.011764e-01 2.484135e-01 -1.680472e-01 1.672485e-01 2.403132e-01 -1.107804e-02 3.993594e-01 -1.500346e-01 4.689819e-01 -2.437120e-01 5.404928e-01 -3.206261e-01 6.224637e-01 -3.844424e-01 6.900576e-01 
-1.452565e-01 3.295194e-01 1.461930e+00 -3.574863e+00 -9.009169e+01 -3.823744e-01 -6.603844e-01 -1.231683e+00 -1.650882e-01 -8.905594e-01 8.590941e-02 -4.551376e-01 -7.973088e-02 3.233250e-01 -6.179217e-01 1.054904e+00 4.188335e-01 -2.213781e+00 2.631939e-01 3.357507e-01 -8.335536e-01 -8.261613e-02 1.316382e+00 -5.833680e-01 -1.484795e-02 1.099376e+00 -7.057229e-01 -1.379543e+00 7.510836e-01 4.927550e-02 -2.896452e-01 1.302693e+00 6.150952e-02 -1.218358e+00 5.999317e-02 3.683554e-01 -8.160250e-01 3.320200e-01 9.936865e-01 -3.585638e-01 -4.129658e-02 9.298902e-01 -7.611781e-01 -7.532061e-01 5.534456e-01 2.105153e-01 -3.331112e-01 1.292843e+00 -2.528470e-01 -8.104445e-01 2.140001e-01 -1.400685e-01 2.531888e-01 2.999886e-01 1.332409e-02 4.337902e-01 -1.571589e-01 4.736987e-01 -2.358041e-01 5.291037e-01 -2.728362e-01 6.048383e-01 -2.775193e-01 6.696902e-01 
5.721025e-02 2.486574e-01 1.809428e+00 -3.472775e+00 -8.959061e+01 -1.465098e-01 -7.429266e-01 -1.285374e+00 -3.472261e-01 -1.125282e+00 5.322974e-02 -7.939674e-01 8.928229e-02 5.535273e-01 -8.457035e-01 1.953278e+00 -1.134428e-01 -3.330139e+00 1.564274e+00 2.010803e+00 -1.925427e+00 1.205486e+00 1.782873e+00 -2.389505e+00 1.090655e+00 3.437666e+00 -2.726900e+00 -2.703248e+00 1.950770e+00 -3.371780e-01 1.985254e-01 3.740096e+00 -1.559219e+00 -3.861585e+00 1.381120e+00 1.391220e+00 -1.734509e+00 1.401137e+00 1.105237e+00 -2.570023e+00 1.259147e+00 3.309255e+00 -2.954855e+00 -2.341458e+00 1.860514e+00 -3.095747e-01 3.453405e-01 4.444102e+00 -2.862985e+00 -3.152399e+00 1.479850e+00 -1.100249e-01 6.037108e-01 6.604492e-01 -7.859237e-02 5.404606e-01 -2.225578e-01 4.910534e-01 -2.178287e-01 5.272697e-01 -1.912752e-01 5.942255e-01 -1.432420e-01 6.469913e-01 
2.159586e-01 1.727244e-01 2.081605e+00 -3.313311e+00 -8.873735e+01 -1.079477e-01 -8.062744e-01 -1.366789e+00 -4.197438e-01 -1.340264e+00 1.417346e-02 -1.256696e+00 -2.152691e-01 -1.370064e-01 -1.192574e+00 -6.042485e+00 8.462754e+00 1.038679e+01 5.068659e+00 7.345457e+00 -4.653882e+00 3.890167e+00 9.966160e+00 3.293122e+00 1.242679e+00 1.564950e+00 -9.196668e-02 3.988068e+00 5.011819e+00 2.446835e+00 -9.541332e-01 -5.251051e-02 5.523733e+00 -7.784986e-01 2.332177e+00 3.856576e+00 -3.660170e+00 3.592175e+00 7.014410e+00 -2.871722e+00 9.104723e-01 1.507532e+00 4.878667e-02 3.557325e-01 2.904745e+00 -4.148509e-01 -6.197231e-01 1.891309e+00 3.911730e+00 -7.044327e+00 4.987095e-01 -1.106524e+00 7.982481e-01 9.956412e-01 -1.536116e-01 6.181248e-01 -2.988883e-01 4.821479e-01 -2.263736e-01 5.034103e-01 -1.463827e-01 5.693843e-01 -5.044959e-02 6.193527e-01 
3.804562e-01 8.500094e-02 2.322660e+00 -3.140259e+00 -8.669793e+01 1.163173e-01 -8.327585e-01 -1.272000e+00 -6.233955e-01 -1.526918e+00 -1.807328e-01 -2.570325e+00 3.770774e-01 -5.312276e+00 5.510921e+00 -2.699247e+01 3.337143e+01 6.708322e+01 2.227782e+01 1.098324e+01 -8.875273e-01 6.999906e+00 5.169715e+01 5.438710e+01 1.456234e+01 -1.372010e+01 1.234373e+01 5.187461e+01 3.788387e+01 2.621433e+01 5.438873e+00 -2.168247e+01 2.944080e+01 5.666927e+01 2.161471e+01 9.493312e+00 -6.787696e-01 7.171765e+00 4.930357e+01 4.803425e+01 1.633160e+01 -1.260291e+01 1.058399e+01 4.533761e+01 3.594696e+01 2.304085e+01 7.176850e+00 -2.170924e+01 2.395421e+01 4.827570e+01 2.056978e+01 1.360138e+01 -6.896862e-01 1.086122e+00 -1.225101e+00 3.110750e-01 -4.974331e-01 3.886631e-01 -2.005059e-01 4.757016e-01 -5.918275e-02 5.493082e-01 6.869244e-02 5.876588e-01 
5.010889e-01 1.437299e-02 2.463430e+00 -2.859271e+00 -8.446940e+01 7.706453e-02 -8.596407e-01 -1.216311e+00 -5.649639e-01 -1.480790e+00 2.770922e-01 -3.025606e+00 2.420125e+00 -7.127899e+00 7.338043e+00 -1.845946e+01 3.929576e+01 5.666526e+01 1.393271e+01 -5.764923e+00 6.088735e+00 1.617214e+01 6.076940e+01 5.168477e+01 9.237578e+00 -2.049189e+01 2.985088e+01 6.960718e+01 3.721322e+01 2.082679e+01 3.361025e+00 -1.978019e+01 5.289731e+01 7.810734e+01 1.194194e+01 -1.824726e+00 4.241826e+00 2.299047e+01 7.288810e+01 6.426746e+01 7.709886e+00 -2.054246e+01 3.152358e+01 7.816285e+01 4.091930e+01 2.617143e+01 2.386667e+00 -2.323100e+01 5.765910e+01 9.423717e+01 9.915588e+00 1.474374e+01 -4.457367e+00 6.004354e-01 -1.926721e+00 8.096940e-03 -5.821846e-01 2.700097e-01 -1.636826e-01 4.250991e-01 3.567523e-03 5.167707e-01 1.508102e-01 5.538394e-01 
6.305610e-01 -6.077464e-02 2.582665e+00 -2.568478e+00 -8.120887e+01 2.046684e-01 -7.892559e-01 -8.776215e-01 -5.647593e-01 -5.427283e-01 -1.383332e-02 1.421072e-01 5.739531e-01 1.335851e+00 9.934277e-01 1.195865e+01 -3.530832e+01 -5.466536e+01 -2.811907e+00 -5.299820e+00 1.028727e+00 -1.417349e+01 -3.847021e+01 -3.618352e+01 9.525526e-01 7.269231e+00 -1.595426e+01 -3.690803e+01 -1.555901e+01 -1.102421e+01 6.058940e-01 6.153849e+00 -2.409601e+01 -3.190365e+01 -2.209973e+00 1.935169e+00 -2.699321e+00 -1.122948e+01 -2.609111e+01 -1.944733e+01 -2.278232e+00 7.705408e+00 -1.244312e+01 -2.331982e+01 -1.034570e+01 -2.264934e+00 -3.073334e+00 5.216456e+00 -1.310982e+01 -1.493616e+01 -2.662288e+00 1.083474e+00 -4.807964e-01 1.011752e+00 -6.189051e-02 5.994282e-01 1.628658e-03 4.694674e-01 4.911297e-02 4.695060e-01 1.252853e-01 5.085128e-01 2.579745e-01 5.182283e-01 
7.128631e-01 -9.279250e-02 2.595608e+00 -2.198022e+00 -7.780421e+01 1.432416e-01 -8.531063e-01 -7.845830e-01 -7.285891e-01 -1.954188e-01 -6.240384e-01 1.503610e+00 -1.523191e+00 6.078541e+00 -9.063838e+00 2.936946e+01 -3.797507e+01 -7.259906e+01 -2.748797e+01 -8.001826e+00 -1.790290e+00 -1.054579e+01 -6.535039e+01 -6.481921e+01 -1.664238e+01 1.979514e+01 -2.314407e+01 -7.219571e+01 -4.579638e+01 -2.871030e+01 -5.691572e+00 2.577944e+01 -4.836086e+01 -8.275833e+01 -2.054398e+01 -3.522620e+00 -2.847396e+00 -1.803406e+01 -7.329689e+01 -6.886736e+01 -1.394102e+01 2.217497e+01 -2.680965e+01 -7.694211e+01 -4.565771e+01 -2.805605e+01 -6.211153e+00 2.799030e+01 -5.115309e+01 -9.153903e+01 -1.527557e+01 -1.426537e+01 3.468773e+00 6.370422e-01 1.542846e+00 8.824991e-01 4.321238e-01 5.713338e-01 1.817380e-01 4.820759e-01 1.937641e-01 4.900500e-01 3.204972e-01 4.857750e-01 
7.932417e-01 -1.416961e-01 2.623720e+00 -1.998046e+00 -7.362824e+01 3.088675e-01 -8.312509e-01 -6.684134e-01 -8.945504e-01 -3.857044e-01 -8.928088e-01 2.088010e-01 -1.349619e+00 1.386926e+00 -3.948772e+00 1.024292e+01 -9.957727e+00 -9.716518e+00 -1.172758e+01 -5.304327e+00 7.186171e-01 -3.674097e-01 -1.931107e+01 -1.314879e+01 -9.214728e+00 3.899815e+00 -3.205691e+00 -1.714191e+01 -1.796395e+01 -1.145110e+01 -3.290105e+00 1.050792e+01 -1.398404e+01 -2.227249e+01 -1.258849e+01 -8.517686e+00 2.873185e+00 -3.047708e+00 -2.646212e+01 -2.309588e+01 -9.169449e+00 4.667950e+00 -3.933096e+00 -2.472157e+01 -2.146432e+01 -1.644918e+01 -2.610068e+00 1.331907e+01 -1.575912e+01 -3.280719e+01 -1.325771e+01 -1.199251e+01 5.347178e-01 -1.232800e+00 9.677427e-01 2.135050e-01 4.337359e-01 3.765844e-01 2.620613e-01 4.145693e-01 2.716899e-01 4.488033e-01 3.931893e-01 4.424698e-01 
8.293469e-01 -1.623225e-01 2.553379e+00 -1.689306e+00 -6.935856e+01 2.709191e-01 -8.804746e-01 -5.770272e-01 -9.912932e-01 -3.181946e-01 -1.027527e+00 -1.479797e-01 -1.176367e+00 -1.181633e+00 -2.978323e-01 -3.981003e+00 1.040342e+00 5.933295e+00 -1.889622e+00 -1.024901e+00 1.540070e+00 -2.343197e+00 -1.876157e+00 4.809060e+00 -1.096070e+00 -3.437957e+00 2.280401e+00 2.791745e+00 -2.037663e+00 8.251270e-01 2.174271e-01 -3.606070e+00 -3.353646e-01 5.194880e+00 -1.362359e+00 -2.622532e+00 3.037526e+00 -2.325118e+00 -3.120761e+00 3.911961e+00 -7.049557e-01 -3.793035e+00 2.383979e+00 1.839025e+00 -2.256888e+00 -6.555804e-01 1.091745e+00 -3.593867e+00 -9.508720e-01 4.279820e+00 -1.091745e+00 -8.112334e-01 -1.621246e-01 -9.837729e-01 3.922912e-01 -1.035424e-01 3.546309e-01 2.332517e-01 2.842435e-01 3.482028e-01 3.040543e-01 4.051257e-01 4.250837e-01 4.022358e-01 
8.567817e-01 -1.962745e-01 2.502774e+00 -1.569389e+00 -6.453798e+01 3.812273e-01 -7.833177e-01 -5.365946e-01 -9.451244e-01 -4.214561e-01 -8.712773e-01 -3.354533e-01 -7.411871e-01 -8.444569e-01 4.896658e-02 -2.520121e+00 1.276130e+00 1.685143e+00 -9.327944e-01 -4.695681e-01 5.726269e-01 -1.189650e+00 -7.324554e-01 1.078161e+00 -6.395253e-01 -1.891556e+00 1.571052e+00 1.552035e+00 -1.209532e+00 1.418718e-01 -8.697581e-02 -2.578864e+00 8.854900e-01 2.338304e+00 -6.569100e-01 -7.710491e-01 1.163298e+00 -7.292320e-01 -1.033848e+00 1.394489e+00 -5.040748e-01 -2.275731e+00 1.742636e+00 2.112347e+00 -1.165967e+00 -2.099673e-02 2.403815e-01 -2.947271e+00 9.550171e-01 3.107528e+00 -7.570975e-01 3.057813e-01 -2.149721e-01 -4.118531e-01 2.090624e-01 -1.068448e-01 2.791732e-01 1.464417e-01 2.825720e-01 2.787921e-01 3.285400e-01 3.516667e-01 4.546642e-01 3.532368e-01 
8.451694e-01 -2.120453e-01 2.373605e+00 -1.357099e+00 -5.963025e+01 3.468792e-01 -7.547249e-01 -5.133832e-01 -8.925843e-01 -4.616498e-01 -7.535536e-01 -4.945530e-01 -4.754257e-01 -8.061408e-01 1.924567e-01 -9.783151e-01 2.656205e-01 4.172699e-01 -2.960905e-01 -1.498974e-01 3.042868e-01 -5.945224e-01 -6.684662e-01 2.276085e-01 -5.191383e-02 -5.054876e-01 5.199783e-01 4.467941e-01 -5.893278e-01 -4.111626e-02 1.828190e-01 -8.366640e-01 9.457479e-03 7.593719e-01 -7.697893e-02 -2.198818e-01 6.322636e-01 -3.072860e-01 -8.079386e-01 3.675607e-01 8.557755e-02 -6.384300e-01 5.969344e-01 7.815401e-01 -5.092405e-01 -9.757621e-02 4.499234e-01 -9.137150e-01 -7.602642e-02 1.380804e+00 -3.111810e-01 4.099351e-01 -1.028656e-01 -9.592001e-02 1.114633e-01 -4.235798e-02 2.123474e-01 1.171924e-01 2.588048e-01 2.347319e-01 3.224459e-01 3.090734e-01 4.509119e-01 3.116556e-01 
8.252340e-01 -2.295669e-01 2.249522e+00 -1.252905e+00 -5.428598e+01 3.925121e-01 -6.293357e-01 -4.659943e-01 -7.841516e-01 -4.510699e-01 -6.267193e-01 -4.481499e-01 -3.864904e-01 -5.882476e-01 -1.075831e-02 -6.340071e-01 -1.919318e-02 -6.831333e-03 -1.252184e-01 -1.154631e-01 1.057350e-01 -4.086508e-01 -3.577368e-01 3.464219e-02 -4.156231e-02 -1.963483e-01 1.918087e-01 5.178041e-02 -2.588543e-01 1.686253e-03 6.976543e-02 -3.478899e-01 -2.491227e-02 2.487451e-01 -8.215546e-04 -8.027242e-03 2.793430e-01 -2.299997e-01 -3.581763e-01 1.725023e-01 3.805878e-02 -1.481834e-01 2.638667e-01 2.164520e-01 -1.929456e-01 6.853777e-02 1.914205e-01 -2.505979e-01 -5.788120e-02 5.833898e-01 -1.491519e-01 4.000867e-01 -3.796476e-02 7.345089e-02 9.352235e-02 3.750153e-02 1.803980e-01 1.196438e-01 2.402945e-01 2.050994e-01 3.147554e-01 2.684770e-01 4.445726e-01 2.670284e-01 
7.729159e-01 -2.319305e-01 2.069983e+00 -1.094904e+00 -4.885930e+01 3.548751e-01 -5.609868e-01 -4.473930e-01 -6.935145e-01 -4.448294e-01 -5.288893e-01 -4.283188e-01 -3.139187e-01 -4.592314e-01 -7.116940e-02 -4.230253e-01 -9.951655e-02 -1.834203e-01 -7.313541e-02 -1.437126e-01 2.812952e-02 -2.571573e-01 -2.276637e-01 -6.483721e-02 -1.154150e-02 -9.225024e-02 4.767670e-02 -3.280118e-02 -1.154694e-01 -3.126553e-02 5.595594e-02 -1.405305e-01 -6.835437e-02 6.698157e-02 4.276268e-02 -3.996785e-03 1.463998e-01 -1.109305e-01 -2.088991e-01 5.503086e-02 5.737211e-02 -1.922144e-02 9.769267e-02 9.509985e-02 -5.727752e-02 5.590443e-02 1.319264e-01 -1.910263e-02 -1.261687e-01 3.348060e-01 -6.983247e-02 2.716532e-01 4.324081e-03 1.150254e-01 8.054017e-02 8.129603e-02 1.481311e-01 1.257567e-01 2.093817e-01 1.861144e-01 2.864405e-01 2.374952e-01 4.124286e-01 2.315573e-01 
7.141039e-01 -2.307399e-01 1.884159e+00 -9.888846e-01 -4.307166e+01 3.578712e-01 -4.426507e-01 -3.969276e-01 -5.835744e-01 -4.010049e-01 -4.433211e-01 -3.532503e-01 -2.994816e-01 -3.313020e-01 -1.782036e-01 -3.172169e-01 -1.389694e-01 -2.145809e-01 -6.070124e-02 -1.796958e-01 -3.967408e-02 -1.766974e-01 -9.631205e-02 -1.016141e-01 -2.631409e-02 -8.970690e-02 -1.654640e-02 -4.776718e-02 -2.046890e-02 -4.620321e-02 6.456214e-03 -6.451950e-02 -3.825427e-02 3.178774e-05 3.327178e-02 -7.049174e-03 3.931759e-02 -2.447777e-02 -6.341323e-02 1.262563e-02 2.200880e-02 1.123969e-02 1.901455e-02 6.986081e-02 9.617591e-03 6.379603e-02 2.977470e-02 6.608941e-02 -8.189329e-02 1.706814e-01 -3.075602e-03 1.605591e-01 4.831966e-02 1.267439e-01 8.904329e-02 1.202019e-01 1.311611e-01 1.407751e-01 1.840041e-01 1.742469e-01 2.591120e-01 2.080060e-01 3.796348e-01 1.945159e-01 
6.307476e-01 -2.183794e-01 1.662875e+00 -8.589262e-01 -3.721893e+01 3.167698e-01 -3.608982e-01 -3.682573e-01 -4.869801e-01 -3.686192e-01 -3.643077e-01 -2.953100e-01 -2.651752e-01 -2.209701e-01 -2.086138e-01 -2.187621e-01 -1.254049e-01 -2.686825e-01 -4.996653e-02 -1.891583e-01 -8.138123e-02 -1.033632e-01 -3.509463e-03 -1.230878e-01 -2.889951e-02 -6.716505e-02 -5.533684e-02 -5.386182e-02 4.139766e-02 -4.985549e-02 -1.705183e-02 1.104683e-03 -1.928878e-02 -5.313536e-02 2.759235e-02 -1.736189e-02 -2.722046e-02 4.454330e-02 2.259767e-02 -2.537023e-02 6.606311e-03 2.399186e-02 -3.594920e-02 6.318442e-02 5.325131e-02 5.320171e-02 -1.959569e-02 1.175260e-01 -7.239725e-02 7.490641e-02 2.894996e-02 6.851630e-02 6.824698e-02 1.158032e-01 8.346338e-02 1.353710e-01 1.045863e-01 1.449635e-01 1.477907e-01 1.614118e-01 2.172489e-01 1.826817e-01 3.280003e-01 1.647406e-01 
5.427244e-01 -2.033798e-01 1.430991e+00 -7.547391e-01 -3.107244e+01 2.956002e-01 -2.550629e-01 -3.255619e-01 -3.749299e-01 -3.394468e-01 -2.656075e-01 -2.359480e-01 -2.148431e-01 -5.458642e-02 -2.877292e-01 -3.862638e-02 -2.374514e-01 -3.978653e-01 3.929215e-02 -2.141024e-01 -1.248656e-01 5.000269e-02 5.436304e-02 -2.350113e-01 2.499946e-02 -1.937959e-02 -1.716831e-01 -6.558783e-02 1.685346e-01 -1.023989e-01 -2.247869e-02 1.492172e-01 -1.037937e-01 -1.901292e-01 1.073187e-01 -1.575485e-02 -1.169747e-01 2.105152e-01 7.403536e-02 -1.613569e-01 5.384924e-02 7.782998e-02 -1.774476e-01 5.527701e-02 1.697265e-01 1.465025e-02 -5.842417e-02 2.859431e-01 -2.084903e-01 -1.183190e-01 1.531397e-01 -8.023773e-02 1.473571e-01 1.346197e-01 8.706208e-02 1.745628e-01 7.227765e-02 1.561850e-01 1.076601e-01 1.483022e-01 1.747980e-01 1.545897e-01 2.767718e-01 1.320948e-01 
4.388030e-01 -1.820068e-01 1.178692e+00 -6.407681e-01 -2.488802e+01 2.519270e-01 -1.689039e-01 -2.908825e-01 -2.706226e-01 -3.137555e-01 -1.750912e-01 -1.980155e-01 -1.609869e-01 8.496440e-02 -3.139765e-01 2.825290e-01 -3.094725e-01 -7.732293e-01 1.364173e-01 -1.052806e-01 -1.992958e-01 2.111546e-01 1.642704e-01 -3.928427e-01 6.268137e-02 2.092927e-01 -3.118011e-01 -2.663255e-01 3.120322e-01 -9.232841e-02 -3.536470e-02 4.493142e-01 -1.633280e-01 -5.024723e-01 1.662926e-01 7.909866e-02 -2.396905e-01 3.510730e-01 1.824168e-01 -3.373168e-01 8.795707e-02 2.921134e-01 -3.447533e-01 -1.453345e-01 2.993916e-01 1.653030e-02 -8.367302e-02 6.063521e-01 -3.189094e-01 -4.903147e-01 2.457514e-01 -1.250475e-01 1.870853e-01 1.760586e-01 6.577186e-02 1.973770e-01 3.021297e-02 1.533524e-01 6.204679e-02 1.297692e-01 1.247745e-01 1.269940e-01 2.140776e-01 1.036395e-01 
3.333405e-01 -1.582754e-01 9.126121e-01 -5.278972e-01 -1.846795e+01 2.168927e-01 -8.456426e-02 -2.537127e-01 -1.658745e-01 -3.477604e-01 -3.779138e-02 -3.008265e-01 6.042777e-02 2.517182e-01 -1.895263e-01 1.454820e+00 -1.182546e+00 -2.179673e+00 8.191412e-01 2.415717e-01 -1.827393e-01 1.079504e+00 -1.960590e-01 -1.574573e+00 7.340199e-01 1.279841e+00 -1.062541e+00 -8.176118e-01 7.397549e-01 -4.555909e-01 3.681972e-01 1.808000e+00 -1.066601e+00 -1.882847e+00 8.449187e-01 4.985796e-01 -3.989776e-01 1.160391e+00 -1.311652e-01 -1.580884e+00 7.950249e-01 1.392361e+00 -1.169590e+00 -7.397045e-01 7.820638e-01 -3.356468e-01 3.435641e-01 2.197640e+00 -1.461369e+00 -1.953877e+00 8.653464e-01 -1.291484e-01 3.900587e-01 4.258786e-01 -2.667838e-02 2.526864e-01 -6.209305e-02 1.359394e-01 2.549202e-03 9.842315e-02 7.522716e-02 9.246929e-02 1.544341e-01 7.178284e-02 
2.201174e-01 -1.315422e-01 6.383644e-01 -4.127185e-01 -1.204595e+01 1.722572e-01 -4.128936e-03 -2.061063e-01 -6.204564e-02 -3.413418e-01 6.885858e-02 -3.710571e-01 1.683927e-01 3.523555e-02 2.215315e-01 1.806881e-01 -3.119146e-01 -6.728762e-01 1.968307e+00 1.327223e+00 -5.486917e-01 8.129325e-01 1.723265e+00 -6.643813e-01 1.357164e+00 1.548444e+00 -1.259009e+00 3.522004e-01 2.182248e+00 2.908930e-01 5.147260e-01 9.701657e-01 1.493165e-01 -5.417875e-01 1.777629e+00 1.505930e+00 -9.119853e-01 8.767258e-01 2.299451e+00 -3.874171e-01 1.455369e+00 1.574535e+00 -1.296073e+00 5.895746e-01 2.469331e+00 6.411486e-01 5.450022e-01 1.157678e+00 -1.164928e-01 -4.595946e-01 1.833352e+00 6.327067e-01 3.763841e-01 6.538038e-01 -1.468051e-01 2.550680e-01 -1.364837e-01 1.011697e-01 -4.576444e-02 6.258674e-02 2.707444e-02 5.750685e-02 9.026553e-02 4.165420e-02 
1.102514e-01 -9.625385e-02 3.422917e-01 -2.463431e-01 -5.445415e+00 1.195453e-01 3.897103e-02 -1.134302e-01 -2.415753e-02 -3.492900e-01 6.543263e-02 -9.237782e-01 4.693122e-01 -3.122047e+00 4.294329e+00 -1.129452e+01 4.556107e+00 2.211179e+01 1.563557e+01 1.041314e+01 1.711126e+00 -7.072928e+00 1.707185e+01 2.910152e+01 1.300740e+01 1.426599e-01 1.508721e-01 1.231799e+01 2.053826e+01 1.870081e+01 6.044158e+00 -9.362732e+00 7.213195e+00 2.558150e+01 1.447899e+01 8.362993e+00 6.957305e-01 -6.363866e+00 2.068489e+01 3.133672e+01 1.250128e+01 -6.988129e-01 4.273599e-01 1.335668e+01 2.146788e+01 1.919230e+01 6.422640e+00 -1.036263e+01 7.016902e+00 2.806190e+01 1.411942e+01 1.165301e+01 -1.201212e-01 9.460231e-01 -8.273231e-01 -1.723356e-02 -2.910008e-01 -1.417208e-02 -8.325322e-02 1.088854e-02 -6.754831e-03 2.057428e-02 3.507696e-02 1.174842e-02 
-2.023849e-03 -6.193670e-02 5.329656e-02 -1.027252e-01 1.113796e+00 7.417243e-02 1.022434e-01 -2.847002e-02 4.598104e-02 -3.121760e-01 1.237000e-01 -1.129869e+00 6.853938e-01 -4.060952e+00 5.225116e+00 -1.482837e+01 1.022077e+01 3.430905e+01 1.873546e+01 1.105576e+01 1.552087e+00 -7.748651e+00 2.718918e+01 4.287271e+01 1.408304e+01 -3.202242e+00 3.049266e+00 2.036790e+01 2.779042e+01 2.470829e+01 5.951672e+00 -1.279175e+01 1.422589e+01 3.804726e+01 1.606373e+01 7.400721e+00 7.575048e-01 -5.862948e+00 3.093898e+01 4.343837e+01 1.249607e+01 -4.308765e+00 3.608900e+00 2.096219e+01 2.769843e+01 2.397205e+01 6.153846e+00 -1.372895e+01 1.433072e+01 4.055831e+01 1.447679e+01 1.268356e+01 -1.037343e+00 5.839800e-01 -9.969555e-01 -2.089432e-01 -3.130345e-01 -9.540866e-02 -9.581597e-02 -3.414804e-02 -3.829473e-02 -1.634159e-02 -2.231377e-02 -1.845627e-02 
-1.092188e-01 -1.393416e-02 -2.619358e-01 1.293927e-01 7.748211e+00 -2.183122e-02 1.498157e-01 1.529511e-01 1.280927e-01 1.796917e-01 2.911742e-02 4.284398e-01 -2.306734e-01 1.300296e+00 -1.551445e+00 4.584565e+00 -3.725856e+00 -1.046775e+01 -5.195776e+00 -2.214976e+00 -4.917769e-01 1.963019e+00 -9.381137e+00 -1.312516e+01 -3.861097e+00 1.829740e+00 -1.575173e+00 -7.626585e+00 -9.276563e+00 -7.571662e+00 -1.615693e+00 4.485835e+00 -5.868356e+00 -1.376525e+01 -5.075549e+00 -2.010656e+00 -1.385722e-01 1.426659e+00 -1.230478e+01 -1.595027e+01 -3.789023e+00 2.063575e+00 -1.844507e+00 -9.026530e+00 -1.073723e+01 -8.967556e+00 -1.773670e+00 5.339609e+00 -6.737998e+00 -1.701747e+01 -5.162065e+00 -4.897559e+00 5.328549e-01 -2.903928e-01 3.794643e-01 5.521637e-02 9.123947e-02 1.153984e-02 -6.828234e-03 -2.104260e-02 -4.395808e-02 -3.649843e-02 -7.045818e-02 -4.385623e-02 