# vtk DataFile Version 2.0
Comment goes here
ASCII

DATASET STRUCTURED_POINTS
FIELD FieldData 1
TIME 1 1 double
0.02300000
DIMENSIONS    64   64   1

ORIGIN    0.000   0.000   0.000
SPACING   0.03125 0.03125   1.000

POINT_DATA   4096
SCALARS Omega double
LOOKUP_TABLE default

4.134261e-02 1.470646e-01 -3.383659e-01 7.766505e-02 -3.486344e-01 3.116130e-01 -2.563634e-01 1.756981e-01 -2.399591e-01 1.753643e-01 -2.070606e-01 1.720577e-01 -1.675434e-01 1.593008e-01 -1.053201e-01 1.185898e-01 -5.350668e-03 7.081378e-02 4.663678e-02 4.008073e-02 1.155115e-01 -6.067527e-03 1.186428e-01 2.224397e-02 1.583037e-01 -2.931574e-02 1.779007e-01 3.337338e-02 1.334004e-01 7.780993e-03 1.736702e-01 -1.715450e-02 1.860312e-01 -3.941117e-02 2.223342e-01 -6.423849e-02 2.344214e-01 -8.019613e-02 2.711187e-01 -1.142584e-01 2.643975e-01 -8.943793e-02 2.236101e-01 -8.115839e-02 2.003863e-01 -4.784047e-02 1.447030e-01 -1.545974e-02 8.639345e-02 1.750411e-03 3.895873e-02 1.070031e-02 -1.031061e-02 2.803948e-02 -5.770556e-02 2.865953e-02 -7.527732e-02 8.481529e-03 -7.339892e-02 -1.885321e-02 -5.749332e-02 -5.458774e-02 -4.834228e-02 -4.065045e-02 
-4.465922e+00 -2.033279e+01 4.512656e+00 -2.203540e+01 5.009817e+00 -2.244537e+01 4.281696e+00 -2.122774e+01 1.703105e+00 -1.841684e+01 -2.521127e+00 -1.400815e+01 -8.043711e+00 -8.355140e+00 -1.460750e+01 -2.258047e+00 -2.055230e+01 2.435603e+00 -2.463009e+01 5.353500e+00 -2.721934e+01 7.037325e+00 -2.865114e+01 7.647336e+00 -2.845125e+01 6.406540e+00 -2.690802e+01 4.749679e+00 -2.559555e+01 3.660445e+00 -2.507740e+01 3.642831e+00 -2.567777e+01 4.693202e+00 -2.706244e+01 6.058326e+00 -2.807621e+01 6.349159e+00 -2.750592e+01 5.234158e+00 -2.582911e+01 3.077427e+00 -2.325148e+01 3.874739e-01 -2.075794e+01 -1.026868e+00 -2.061048e+01 4.692774e-01 -2.326288e+01 3.977869e+00 -2.670294e+01 7.062991e+00 -2.860320e+01 8.113133e+00 -2.826671e+01 7.105689e+00 -2.607125e+01 4.171083e+00 -2.172877e+01 -9.166584e-01 -1.533915e+01 -7.702621e+00 -6.827239e+00 -1.502705e+01 
-1.366084e+01 3.826478e+00 -1.931782e+01 5.948794e+00 -7.249032e+00 5.810227e+00 -1.774146e+01 5.319394e+00 -2.331468e+01 4.166811e+00 -2.623709e+01 2.355756e+00 -2.759058e+01 -7.392808e-03 -2.754260e+01 -2.707440e+00 -2.738726e+01 -4.439767e+00 -2.794424e+01 -5.207348e+00 -2.873133e+01 -5.619944e+00 -2.928587e+01 -5.814531e+00 -3.063150e+01 -4.653034e+00 -3.256704e+01 -3.569804e+00 -3.386029e+01 -2.732738e+00 -3.471334e+01 -2.559128e+00 -3.470248e+01 -3.118727e+00 -3.401107e+01 -4.018569e+00 -3.326535e+01 -4.414753e+00 -3.337289e+01 -3.971526e+00 -3.382741e+01 -3.170686e+00 -3.461667e+01 -1.863346e+00 -3.549484e+01 -1.169869e+00 -3.486491e+01 -2.227051e+00 -3.223074e+01 -4.514238e+00 -2.907624e+01 -6.261077e+00 -2.688424e+01 -6.780528e+00 -2.555113e+01 -6.456727e+00 -2.452999e+01 -5.406915e+00 -2.414825e+01 -3.291320e+00 -2.423204e+01 -1.743539e-01 -2.648649e+01 2.134737e+00 
-6.071164e+00 6.109890e+00 -1.152035e+01 7.054768e+00 -7.076733e+00 7.553801e+00 -9.858612e+00 6.758347e+00 -1.245305e+01 5.419617e+00 -1.332157e+01 3.540639e+00 -1.308532e+01 1.252311e+00 -1.185614e+01 -1.219075e+00 -1.062950e+01 -2.878115e+00 -1.010882e+01 -3.702193e+00 -9.967862e+00 -4.143938e+00 -9.956570e+00 -4.308729e+00 -1.066367e+01 -3.489274e+00 -1.193636e+01 -2.631203e+00 -1.285438e+01 -2.036578e+00 -1.339631e+01 -1.980901e+00 -1.329421e+01 -2.483966e+00 -1.268842e+01 -3.211098e+00 -1.211623e+01 -3.461993e+00 -1.225755e+01 -3.028619e+00 -1.277556e+01 -2.208197e+00 -1.364238e+01 -1.035878e+00 -1.455221e+01 -4.270195e-01 -1.427809e+01 -1.260564e+00 -1.247697e+01 -3.098516e+00 -1.025862e+01 -4.592766e+00 -8.790379e+00 -5.072662e+00 -8.145971e+00 -4.731330e+00 -7.975951e+00 -3.648673e+00 -8.521171e+00 -1.633021e+00 -9.689237e+00 1.135250e+00 -1.225314e+01 4.217304e+00 
-1.287203e-01 4.338519e-01 -4.697621e-01 1.106353e-01 -2.173040e+01 -4.128297e-01 1.062322e-01 -2.092903e-02 -9.191536e-02 -2.013857e-02 -1.473709e-01 -1.128697e-02 -1.510491e-01 -6.905885e-03 -1.382092e-01 -1.154864e-02 -1.244546e-01 -2.341634e-02 -1.166048e-01 -3.432987e-02 -1.138753e-01 -3.933668e-02 -1.156877e-01 -3.728446e-02 -1.180308e-01 -3.688103e-02 -1.226385e-01 -3.403932e-02 -1.285994e-01 -2.837776e-02 -1.343872e-01 -2.308504e-02 -1.379651e-01 -2.070817e-02 -1.365919e-01 -2.237340e-02 -1.299179e-01 -3.096992e-02 -1.221537e-01 -3.891083e-02 -1.140256e-01 -4.575946e-02 -1.098349e-01 -4.672211e-02 -1.122468e-01 -3.793056e-02 -1.218638e-01 -2.194980e-02 -1.318115e-01 -8.693175e-03 -1.337286e-01 -4.861109e-03 -1.253208e-01 -1.097153e-02 -1.074838e-01 -2.449016e-02 -8.476777e-02 -4.056576e-02 -6.217577e-02 -5.075114e-02 -4.707452e-02 -6.434025e-02 -6.951130e-03 8.417040e-02 
-8.917701e-02 -1.781138e-01 -2.974721e-01 -1.866675e-01 -2.332269e+01 -3.337373e-01 2.031593e-01 -6.965856e-02 1.271241e-01 -3.304132e-02 7.142334e-02 -1.830071e-02 3.981542e-02 -1.193573e-02 2.221663e-02 -9.618523e-03 1.205838e-02 -1.015853e-02 5.572512e-03 -8.972801e-03 2.802432e-03 -7.235138e-03 2.312753e-03 -5.541888e-03 1.032032e-03 -4.631928e-03 -1.207096e-03 -4.913001e-03 -5.054506e-04 -2.781747e-03 -4.070428e-04 4.228580e-05 8.217088e-04 1.092350e-03 1.825341e-03 2.736846e-03 1.246745e-03 2.454137e-03 1.525688e-04 1.379325e-03 -1.798665e-03 1.895597e-04 -5.237522e-03 -2.609034e-03 -6.117086e-03 -2.394797e-03 -5.411807e-03 1.158753e-03 -1.456633e-03 3.595518e-03 1.312303e-03 6.334067e-03 1.522735e-06 9.115293e-03 -4.112494e-03 1.141142e-02 -1.191205e-02 1.246858e-02 -2.499236e-02 1.445470e-02 -4.497389e-02 3.249605e-02 -5.020044e-02 1.969933e-01 
-1.536508e-01 -6.186777e-02 -3.020447e-01 -2.189293e-01 -3.089588e+01 -5.630277e-01 1.943643e-01 -4.821918e-02 1.438153e-01 -3.203501e-02 8.541326e-02 -2.059241e-02 5.230337e-02 -1.378784e-02 3.250006e-02 -1.172694e-02 2.001297e-02 -1.316292e-02 9.717787e-03 -1.253666e-02 3.504088e-03 -1.127448e-02 1.521616e-03 -1.004821e-02 -1.253105e-03 -8.258499e-03 -2.848652e-03 -7.356337e-03 -1.053606e-03 -3.997713e-03 1.357860e-04 3.434360e-05 2.581822e-03 1.357803e-03 3.726331e-03 3.389226e-03 2.774012e-03 3.502553e-03 1.530104e-03 1.163656e-03 -2.602338e-03 -5.213452e-04 -6.781485e-03 -2.520466e-03 -6.827388e-03 -1.132066e-03 -4.984277e-03 3.478445e-03 5.892934e-04 6.825260e-03 5.606010e-03 1.137288e-02 5.655282e-03 1.568593e-02 8.383114e-04 1.844477e-02 -9.069167e-03 1.985098e-02 -2.503576e-02 2.266755e-02 -4.928556e-02 3.724847e-02 -7.919935e-02 1.093944e-01 
-8.095768e-02 -1.027406e-03 -1.439809e-01 -3.345164e-01 -3.118365e+01 -3.893184e-01 8.877977e-02 -6.235850e-02 1.016940e-01 -4.563249e-02 6.708553e-02 -3.123019e-02 4.017864e-02 -2.113680e-02 2.337323e-02 -1.605892e-02 1.650529e-02 -1.837531e-02 9.880708e-03 -1.364240e-02 5.212643e-03 -9.243880e-03 7.202710e-03 -9.142347e-03 2.848339e-03 -5.782093e-03 -3.243851e-04 -6.458409e-03 2.371869e-03 -3.645476e-03 3.483723e-04 8.654248e-04 1.543909e-03 -1.997690e-03 1.704097e-03 1.456254e-03 -3.751764e-04 4.029325e-03 2.453805e-03 1.068142e-03 -1.666530e-03 2.539467e-03 -5.549579e-03 7.289211e-04 -3.006789e-03 2.217947e-03 -4.513735e-03 6.391222e-03 -1.805247e-03 2.918753e-03 1.289248e-03 5.702386e-03 -1.160755e-03 1.117853e-02 -6.668071e-03 1.657905e-02 -1.458753e-02 2.227073e-02 -2.553840e-02 3.148623e-02 -3.945062e-02 5.187458e-02 -5.150982e-02 8.348217e-02 
-1.002457e-01 2.588083e-02 -1.378261e-01 -2.981028e-01 -3.604146e+01 -5.705921e-01 6.132559e-02 -5.338640e-02 9.918801e-02 -3.966692e-02 6.879445e-02 -2.809159e-02 4.329302e-02 -1.950926e-02 2.702753e-02 -1.674607e-02 2.299436e-02 -2.172755e-02 1.203635e-02 -1.555045e-02 4.373602e-03 -1.220556e-02 8.341599e-03 -1.202021e-02 8.216810e-04 -7.467933e-03 -2.987122e-03 -9.546590e-03 1.962040e-03 -4.839168e-03 -8.222600e-04 1.356424e-03 2.034995e-03 -3.205873e-03 2.107040e-03 1.683577e-03 -1.274005e-03 4.772904e-03 3.907478e-03 5.312078e-04 -2.506454e-03 2.826086e-03 -8.071924e-03 5.764777e-04 -2.912685e-03 3.163726e-03 -4.863428e-03 9.532031e-03 -8.318970e-04 5.079843e-03 5.296351e-03 8.718784e-03 3.257324e-03 1.510408e-02 -3.204410e-03 2.048206e-02 -1.281462e-02 2.526744e-02 -2.637766e-02 3.198407e-02 -4.512473e-02 4.427798e-02 -6.855983e-02 5.917896e-02 
-4.329359e-02 4.209767e-02 -3.699596e-02 -3.790270e-01 -3.543817e+01 -4.365264e-01 -5.788493e-03 -5.878532e-02 5.289529e-02 -4.821451e-02 4.258892e-02 -3.540449e-02 2.568894e-02 -2.230394e-02 1.225139e-02 -1.436533e-02 1.979238e-02 -3.413462e-02 1.219935e-02 -1.738062e-02 -8.882223e-05 -8.150777e-03 1.732016e-02 -1.598498e-02 2.828461e-03 -2.433145e-03 -6.773736e-03 -1.270184e-02 9.118682e-03 -5.902464e-03 -2.810748e-03 8.879875e-03 1.496429e-03 -1.188339e-02 3.356031e-03 1.396877e-03 -7.736778e-03 1.025017e-02 1.035160e-02 -3.760811e-03 -2.081593e-03 8.392606e-03 -1.370899e-02 -2.942765e-04 3.566980e-03 4.307632e-03 -8.052994e-03 1.951846e-02 -4.331393e-03 -4.398304e-03 7.111009e-03 2.096991e-03 1.455537e-03 1.292975e-02 -6.269300e-03 2.118784e-02 -1.345463e-02 2.878847e-02 -2.092671e-02 3.848001e-02 -2.880045e-02 5.149041e-02 -3.544162e-02 6.019139e-02 
-4.960186e-02 4.863284e-02 -3.232987e-02 -3.405599e-01 -3.853973e+01 -5.650611e-01 -2.842979e-02 -5.943120e-02 4.715816e-02 -4.414029e-02 3.944696e-02 -2.974182e-02 2.179524e-02 -1.604062e-02 6.942691e-03 -1.359274e-02 3.323933e-02 -4.336057e-02 1.269620e-02 -1.447819e-02 -6.848446e-03 -1.235072e-02 2.712512e-02 -1.803814e-02 -2.318729e-04 1.330852e-03 -1.272132e-02 -2.008526e-02 1.312595e-02 -6.269747e-03 -7.030295e-03 1.346661e-02 3.068319e-03 -1.764225e-02 4.886777e-03 2.636726e-03 -1.375104e-02 1.204857e-02 1.738889e-02 -6.383405e-03 -2.359521e-03 1.166411e-02 -2.130031e-02 -1.915216e-03 8.470621e-03 4.178994e-03 -9.998692e-03 2.700294e-02 -6.735355e-03 -4.989468e-03 1.461017e-02 2.439726e-03 6.851352e-03 1.482956e-02 -3.464965e-03 2.311256e-02 -1.252408e-02 2.946875e-02 -2.199351e-02 3.654785e-02 -3.276215e-02 4.528551e-02 -4.322812e-02 5.217375e-02 
-6.367920e-03 5.313348e-02 3.078682e-02 -3.949095e-01 -3.728307e+01 -4.525027e-01 -6.723273e-02 -6.169479e-02 1.065832e-02 -5.043110e-02 1.565597e-02 -3.575580e-02 3.109967e-03 -1.238505e-02 -2.329618e-02 1.619907e-02 3.550773e-02 -9.020173e-02 2.333126e-02 -9.366030e-03 -3.577185e-02 4.660017e-03 5.843947e-02 -4.340867e-02 2.216538e-04 2.824055e-02 -4.188585e-02 -4.043649e-02 4.439007e-02 -1.333029e-02 -2.040531e-02 5.264777e-02 -2.657284e-04 -5.780876e-02 2.087717e-02 8.768566e-03 -4.365997e-02 3.532130e-02 4.675463e-02 -3.410222e-02 -1.088235e-04 3.801374e-02 -5.446737e-02 -1.802568e-02 3.979531e-02 -1.899122e-03 -2.469821e-02 7.348575e-02 -2.030913e-02 -4.459653e-02 3.394312e-02 -6.015946e-03 8.592710e-03 1.697324e-02 -5.414971e-03 2.659362e-02 -1.123093e-02 3.344093e-02 -1.429111e-02 4.127726e-02 -1.575168e-02 4.996925e-02 -1.403958e-02 5.551890e-02 
-8.776904e-03 5.612681e-02 3.306422e-02 -3.640214e-01 -3.911715e+01 -5.396761e-01 -8.120759e-02 -6.680559e-02 8.378586e-03 -5.010604e-02 1.396964e-02 -2.926971e-02 -6.462174e-03 6.782671e-03 -6.174269e-02 2.699252e-02 8.611199e-02 -1.286681e-01 2.042244e-02 2.121994e-02 -7.384823e-02 -1.689516e-02 1.111967e-01 -4.840518e-02 -1.243966e-02 5.964775e-02 -6.921365e-02 -7.012241e-02 7.160605e-02 -8.810421e-03 -4.181136e-02 7.808408e-02 5.190959e-03 -8.394686e-02 3.313902e-02 1.892711e-02 -7.503523e-02 3.676873e-02 8.315382e-02 -4.894208e-02 2.352559e-03 5.868703e-02 -9.277777e-02 -2.576973e-02 6.934871e-02 -8.605387e-03 -3.387689e-02 1.032667e-01 -4.230522e-02 -5.344535e-02 5.992536e-02 -1.023978e-02 1.537741e-02 1.827523e-02 -5.206102e-03 2.819998e-02 -1.233801e-02 3.361350e-02 -1.598988e-02 3.935719e-02 -1.847518e-02 4.607602e-02 -1.777575e-02 5.225298e-02 
2.211429e-02 5.657844e-02 7.447698e-02 -4.078996e-01 -3.735847e+01 -4.338260e-01 -1.011148e-01 -6.857674e-02 -1.583624e-02 -5.899270e-02 1.480699e-03 -4.480178e-02 -9.075931e-03 6.894087e-03 -1.500822e-01 2.426396e-01 1.213780e-01 -3.241969e-01 1.044410e-01 8.480800e-02 -2.215968e-01 1.039355e-01 2.479023e-01 -1.882418e-01 -1.847163e-03 2.183980e-01 -2.061685e-01 -1.618711e-01 2.258447e-01 -4.280790e-02 -1.164998e-01 2.930755e-01 -1.252822e-02 -2.923248e-01 1.392700e-01 6.932996e-02 -2.252578e-01 1.505626e-01 2.126389e-01 -2.072499e-01 2.855322e-02 2.125642e-01 -2.479799e-01 -1.222517e-01 2.297597e-01 -5.334963e-02 -1.026076e-01 3.374025e-01 -1.057439e-01 -2.647941e-01 1.563435e-01 4.431930e-03 5.082326e-03 3.414796e-02 -1.419568e-02 3.535856e-02 -1.228917e-02 3.751125e-02 -8.425194e-03 4.248485e-02 -3.404859e-03 4.877107e-02 5.400578e-03 5.410187e-02 
2.028859e-02 5.824645e-02 7.478118e-02 -3.876422e-01 -3.821453e+01 -4.858124e-01 -1.061374e-01 -7.654883e-02 -1.058432e-02 -6.774280e-02 1.357837e-02 -5.196705e-02 7.437469e-04 5.660812e-02 -3.559198e-01 1.106513e+00 1.843272e+00 7.042458e-01 1.123996e-01 2.051961e-01 -7.649428e-02 1.581507e+00 1.201947e+00 7.497767e-02 -7.392685e-02 2.336343e-01 8.333554e-01 9.578792e-01 5.624768e-01 5.729593e-02 -2.376691e-01 9.152204e-01 1.244476e+00 2.012925e-01 2.230131e-01 7.710758e-02 -4.485540e-02 1.339400e+00 9.871821e-01 -9.446768e-02 4.213791e-02 1.816443e-01 7.050387e-01 6.827240e-01 5.404984e-01 -4.549893e-02 -1.540677e-01 8.621668e-01 9.736355e-01 -9.048685e-02 2.869090e-01 9.217680e-03 -2.451484e-03 4.251130e-02 -2.421707e-02 3.967627e-02 -1.725725e-02 3.842545e-02 -1.101145e-02 4.113028e-02 -5.552045e-03 4.621903e-02 3.097472e-03 5.228621e-02 
4.134274e-02 5.650500e-02 1.028717e-01 -4.295492e-01 -3.606257e+01 -3.768770e-01 -1.139494e-01 -7.580707e-02 -2.689077e-02 -8.020593e-02 1.550392e-02 -1.111091e-01 1.024698e-01 -1.567412e-01 -3.817730e-01 6.959578e+00 2.221060e+01 1.568297e+01 9.218054e-01 -2.833775e-01 3.422272e+00 1.764530e+01 1.743987e+01 4.676120e+00 1.074491e-01 -8.601073e-01 1.436300e+01 2.088934e+01 6.836145e+00 1.064954e+00 -4.660592e-01 6.717779e+00 2.094214e+01 1.452362e+01 1.029273e+00 -4.590404e-01 3.593989e+00 1.780545e+01 1.762785e+01 4.606438e+00 2.570908e-01 -9.581023e-01 1.443547e+01 2.087016e+01 6.961698e+00 9.602461e-01 -3.989817e-01 7.114021e+00 2.248227e+01 1.568233e+01 1.015886e+00 3.068974e-01 -1.753992e-01 7.404717e-02 -5.113890e-02 4.449559e-02 -1.661060e-02 3.953176e-02 -2.834238e-03 4.193716e-02 7.431628e-03 4.684061e-02 2.062842e-02 5.223829e-02 
3.896991e-02 5.637865e-02 1.014935e-01 -4.171521e-01 -3.613290e+01 -3.998069e-01 -1.135476e-01 -8.186165e-02 -1.762789e-02 -1.000895e-01 5.322997e-02 -1.989115e-01 2.598820e-01 -5.796183e-01 4.614661e-01 9.247597e+00 2.859840e+01 1.927984e+01 9.005209e-01 -8.824558e-01 5.853031e+00 2.372046e+01 2.267794e+01 5.158899e+00 3.094826e-01 -5.995296e-01 2.047886e+01 2.814283e+01 8.235150e+00 8.503990e-01 1.928962e-02 1.004858e+01 2.908961e+01 1.935709e+01 5.054419e-01 -6.137820e-01 6.160388e+00 2.525458e+01 2.386111e+01 5.580815e+00 8.127317e-02 -4.255655e-01 2.130120e+01 2.929928e+01 8.449500e+00 1.099136e+00 -2.029085e-01 1.131081e+01 3.272068e+01 2.223357e+01 1.752942e-01 5.441428e-01 -2.948326e-01 1.195802e-01 -7.860216e-02 5.239052e-02 -2.193562e-02 3.971468e-02 -4.049146e-03 3.998196e-02 6.333126e-03 4.427618e-02 1.888001e-02 5.026279e-02 
5.260485e-02 5.293587e-02 1.201257e-01 -4.503764e-01 -3.368692e+01 -2.929909e-01 -1.159636e-01 -6.741817e-02 -4.043119e-02 -6.816102e-02 -9.595498e-04 -9.037520e-02 5.705756e-02 -1.528005e-01 3.818079e-01 -4.610624e+00 -1.293122e+01 -8.741320e+00 3.713327e-01 -2.957706e-01 -2.194837e+00 -9.879721e+00 -9.059593e+00 -2.314831e+00 2.759488e-01 -1.296242e-01 -7.989196e+00 -1.077953e+01 -2.852800e+00 -4.696543e-01 6.760975e-02 -3.964674e+00 -1.080923e+01 -7.016745e+00 -2.059463e-02 1.843870e-01 -2.379796e+00 -9.184159e+00 -8.417950e+00 -1.799838e+00 -1.067357e-01 1.384421e-01 -7.565780e+00 -1.002243e+01 -2.842707e+00 -8.073167e-02 -2.700527e-01 -3.771324e+00 -1.070728e+01 -6.957495e+00 -2.393422e-01 1.364783e-02 -2.291042e-03 4.361966e-02 -1.144514e-03 3.601552e-02 2.546441e-03 3.497086e-02 8.889584e-03 3.804461e-02 1.804043e-02 4.292136e-02 3.176537e-02 4.850494e-02 
4.940049e-02 5.074571e-02 1.167800e-01 -4.342402e-01 -3.311813e+01 -2.993507e-01 -1.184024e-01 -5.558073e-02 -5.631024e-02 -2.964373e-02 -6.452650e-02 4.401156e-02 -2.060197e-01 2.725533e-01 -2.722704e-02 -9.457594e+00 -3.048903e+01 -2.111731e+01 -1.073526e+00 6.007915e-01 -5.509721e+00 -2.465198e+01 -2.410570e+01 -6.068674e+00 -2.127974e-01 8.848164e-01 -2.095351e+01 -2.949478e+01 -9.008357e+00 -1.191445e+00 2.499881e-01 -1.000612e+01 -3.010101e+01 -2.048062e+01 -8.638537e-01 6.661470e-01 -5.943979e+00 -2.587487e+01 -2.493012e+01 -6.156523e+00 -2.094769e-01 9.003179e-01 -2.157222e+01 -3.031428e+01 -9.214613e+00 -1.182801e+00 2.632875e-01 -1.101080e+01 -3.326644e+01 -2.305226e+01 -6.224111e-01 -3.948841e-01 2.788659e-01 -3.776453e-02 6.436114e-02 1.316861e-02 2.009738e-02 2.663222e-02 1.376442e-02 3.340577e-02 1.861425e-02 3.937521e-02 3.019829e-02 4.566761e-02 
5.749917e-02 4.632374e-02 1.271237e-01 -4.453333e-01 -3.048724e+01 -2.158562e-01 -1.163731e-01 -4.616732e-02 -6.864006e-02 -2.223407e-02 -7.276905e-02 3.568291e-02 -1.452386e-01 1.988432e-01 2.166544e-02 -2.875290e+00 -9.734161e+00 -6.398717e+00 -9.732688e-01 3.549335e-01 -1.475547e+00 -8.118136e+00 -8.250364e+00 -1.989667e+00 -2.663034e-01 4.922635e-01 -6.809543e+00 -9.829018e+00 -3.601588e+00 -4.702271e-01 3.169545e-01 -3.401482e+00 -1.031615e+01 -6.902391e+00 -7.324599e-01 1.907354e-01 -1.547436e+00 -9.048518e+00 -8.939047e+00 -2.290229e+00 -1.019300e-01 4.218940e-01 -7.254375e+00 -1.061244e+01 -3.738138e+00 -6.528977e-01 5.159855e-01 -3.975197e+00 -1.181307e+01 -8.188123e+00 -5.863217e-01 -2.944316e-01 1.290212e-01 -4.797503e-02 4.699454e-02 2.786403e-03 2.372179e-02 2.077761e-02 2.068302e-02 2.993801e-02 2.648452e-02 3.666119e-02 3.860814e-02 4.269324e-02 
5.324034e-02 4.316653e-02 1.212784e-01 -4.245213e-01 -2.941534e+01 -2.161629e-01 -1.133837e-01 -4.115290e-02 -6.944842e-02 -1.975337e-02 -6.888403e-02 8.558242e-03 -7.802691e-02 2.387341e-02 4.617924e-02 -4.000175e-01 4.543718e-02 5.496859e-01 -3.068733e-01 -1.200395e-02 2.138773e-01 -2.762572e-01 -2.013586e-01 3.299517e-01 -8.039647e-02 -2.445950e-01 1.557153e-01 1.998379e-01 -2.984333e-01 7.967237e-02 1.428759e-01 -4.720073e-01 -8.058166e-02 4.468879e-01 -2.039239e-01 -9.399415e-02 2.667226e-01 -3.659026e-01 -2.738783e-01 2.741087e-01 -5.188615e-03 -2.892969e-01 1.044851e-01 1.322293e-01 -2.828823e-01 9.409400e-03 2.401105e-01 -5.765241e-01 -1.407549e-01 4.267122e-01 -1.477340e-01 -4.756293e-02 3.473141e-02 -2.767439e-02 3.598072e-02 6.257962e-04 2.473216e-02 1.649962e-02 2.159118e-02 2.599071e-02 2.574433e-02 3.308243e-02 3.615458e-02 3.942536e-02 
5.707399e-02 3.860577e-02 1.241985e-01 -4.123181e-01 -2.667182e+01 -1.594195e-01 -1.068372e-01 -3.659995e-02 -7.042239e-02 -2.083004e-02 -6.310687e-02 -5.745174e-03 -5.539812e-02 -1.721471e-02 2.965718e-02 -2.219570e-01 9.143759e-02 1.437493e-01 -1.417250e-01 -1.612457e-02 1.180226e-01 -1.257025e-01 -1.218870e-01 1.309063e-01 -3.524932e-02 -1.287548e-01 1.734835e-01 6.693719e-02 -1.549509e-01 3.863205e-02 5.986236e-02 -1.885493e-01 3.033357e-02 1.778696e-01 -9.034355e-02 -4.189206e-02 1.495566e-01 -7.860072e-02 -1.525804e-01 1.272393e-01 -4.212453e-03 -1.452968e-01 1.611714e-01 1.113549e-01 -1.447586e-01 1.778942e-02 1.037660e-01 -1.969102e-01 3.400939e-05 2.159084e-01 -8.310704e-02 6.344584e-03 1.592896e-02 -9.717262e-03 2.545912e-02 3.277970e-03 2.319109e-02 1.505065e-02 2.402754e-02 2.361634e-02 2.976741e-02 3.030632e-02 4.059333e-02 3.604655e-02 
5.171777e-02 3.536299e-02 1.156074e-01 -3.850823e-01 -2.519338e+01 -1.586928e-01 -9.929661e-02 -3.518429e-02 -6.329241e-02 -2.343788e-02 -5.137254e-02 -1.793242e-02 -3.265814e-02 -3.426550e-02 2.063523e-02 -1.099730e-01 3.161799e-02 5.079421e-02 -6.006737e-02 -9.174847e-03 4.686632e-02 -6.313536e-02 -6.298795e-02 4.448264e-02 -1.171873e-02 -4.898667e-02 7.386212e-02 2.524622e-02 -6.857331e-02 1.150563e-02 2.599463e-02 -7.643124e-02 7.280489e-03 7.053222e-02 -3.279198e-02 -1.449912e-02 6.565468e-02 -3.479805e-02 -7.288849e-02 4.588019e-02 3.751886e-03 -5.220195e-02 7.108749e-02 4.960310e-02 -5.939179e-02 5.327665e-03 4.951630e-02 -7.363662e-02 -7.921225e-03 1.004749e-01 -4.286594e-02 2.388363e-02 1.868117e-03 2.881969e-03 1.683522e-02 6.365122e-03 1.962477e-02 1.406503e-02 2.183836e-02 2.115771e-02 2.718989e-02 2.730825e-02 3.686196e-02 3.286339e-02 
5.221122e-02 3.112850e-02 1.124364e-01 -3.559591e-01 -2.237955e+01 -1.215663e-01 -9.057199e-02 -3.234609e-02 -5.986785e-02 -2.382132e-02 -4.676188e-02 -2.106391e-02 -2.948429e-02 -3.231017e-02 3.896636e-03 -6.576568e-02 8.282721e-03 1.511676e-02 -2.952256e-02 -1.152060e-02 1.614164e-02 -3.715208e-02 -3.105999e-02 1.693827e-02 -6.222185e-03 -2.523524e-02 3.069864e-02 9.749375e-03 -3.054079e-02 4.161877e-03 1.045725e-02 -3.850322e-02 2.522437e-03 3.352448e-02 -1.343947e-02 -5.580424e-03 2.844536e-02 -2.047526e-02 -3.162294e-02 2.280728e-02 2.019455e-03 -2.210508e-02 3.221906e-02 2.390977e-02 -2.416302e-02 6.722524e-03 2.187354e-02 -3.215279e-02 -3.906766e-03 5.548295e-02 -2.119442e-02 2.271727e-02 2.695950e-03 8.304134e-03 1.367653e-02 9.011459e-03 1.801062e-02 1.412255e-02 2.199844e-02 1.968905e-02 2.832303e-02 2.484912e-02 3.811358e-02 2.953526e-02 
4.591364e-02 2.806719e-02 1.014085e-01 -3.231814e-01 -2.056296e+01 -1.196236e-01 -8.095494e-02 -3.116927e-02 -5.112388e-02 -2.432295e-02 -3.793158e-02 -2.258355e-02 -2.249149e-02 -2.845444e-02 -2.222947e-03 -3.923313e-02 1.822013e-04 -4.592952e-03 -1.434856e-02 -1.077333e-02 3.036775e-03 -2.108505e-02 -1.582561e-02 1.352850e-03 -3.353870e-03 -1.156674e-02 1.171523e-02 8.036319e-04 -1.253947e-02 -8.541430e-04 3.719444e-03 -1.577825e-02 -1.843462e-05 1.141228e-02 -4.181073e-03 -2.053596e-03 1.137045e-02 -8.162700e-03 -1.391768e-02 7.807055e-03 2.093348e-03 -6.351185e-03 1.397593e-02 1.132080e-02 -7.645069e-03 4.422846e-03 1.003390e-02 -7.233099e-03 -4.159466e-03 2.889207e-02 -1.030086e-02 1.866913e-02 1.301816e-03 1.067666e-02 9.601001e-03 1.039579e-02 1.428495e-02 1.367477e-02 1.854295e-02 1.794093e-02 2.448929e-02 2.231208e-02 3.330506e-02 2.655462e-02 
4.381207e-02 2.418412e-02 9.380574e-02 -2.854791e-01 -1.770921e+01 -9.295859e-02 -7.109525e-02 -2.856214e-02 -4.593740e-02 -2.319125e-02 -3.421038e-02 -2.084928e-02 -2.318736e-02 -2.123379e-02 -1.212519e-02 -2.277482e-02 -4.707746e-03 -1.579084e-02 -7.679479e-03 -1.141029e-02 -4.747994e-03 -1.186972e-02 -4.357737e-03 -5.913944e-03 -2.974357e-03 -5.570871e-03 2.065908e-05 -4.015361e-03 -2.185277e-03 -2.780274e-03 -4.041950e-04 -3.992336e-03 -5.570040e-04 4.637338e-05 -2.245980e-04 -7.054500e-04 1.417567e-03 -8.063554e-04 -1.674691e-03 1.242534e-03 1.034958e-03 7.033791e-04 2.078822e-03 5.006750e-03 8.158658e-04 4.358891e-03 2.364672e-03 5.625158e-03 -2.833747e-03 1.311712e-02 -3.087738e-04 1.217017e-02 4.369362e-03 1.079056e-02 8.664626e-03 1.144463e-02 1.267543e-02 1.367823e-02 1.734347e-02 1.669697e-02 2.358291e-02 2.000495e-02 3.214856e-02 2.332689e-02 
3.684788e-02 2.118420e-02 8.106673e-02 -2.498575e-01 -1.560862e+01 -8.758167e-02 -6.035068e-02 -2.672415e-02 -3.711622e-02 -2.194973e-02 -2.714622e-02 -1.870484e-02 -2.000491e-02 -1.511496e-02 -1.566966e-02 -1.206276e-02 -3.155846e-03 -2.201926e-02 -3.123460e-03 -9.527386e-03 -8.953020e-03 -6.665603e-03 4.064745e-03 -9.273586e-03 -2.653346e-03 -8.205395e-04 -6.248149e-03 -7.518886e-03 4.281462e-03 -3.515229e-03 -2.974821e-03 3.526651e-03 -6.122079e-04 -7.076283e-03 2.234882e-03 1.421946e-04 -4.722051e-03 3.810364e-03 5.483238e-03 -3.027478e-03 7.405544e-04 4.934241e-03 -5.452885e-03 1.294092e-03 6.046792e-03 3.340443e-03 -1.865008e-03 1.343267e-02 -3.949572e-03 3.348579e-03 5.181463e-03 7.203639e-03 4.958033e-03 1.000125e-02 6.155310e-03 1.138059e-02 9.152745e-03 1.292473e-02 1.341832e-02 1.503850e-02 1.908419e-02 1.759915e-02 2.665546e-02 2.039824e-02 
3.277914e-02 1.744325e-02 7.072090e-02 -2.111441e-01 -1.274272e+01 -6.347824e-02 -4.919455e-02 -2.412393e-02 -3.034862e-02 -2.093148e-02 -2.160295e-02 -1.731119e-02 -1.862418e-02 -7.222583e-03 -2.741206e-02 1.337697e-02 -6.029604e-03 -4.564042e-02 9.291422e-03 -6.315417e-03 -2.439159e-02 7.514432e-03 2.201179e-02 -2.415340e-02 -1.650845e-03 1.342524e-02 -2.528021e-02 -1.758363e-02 2.281091e-02 -7.741027e-03 -1.014259e-02 2.581467e-02 -3.518321e-03 -2.908464e-02 1.179581e-02 3.521599e-03 -2.166150e-02 1.775920e-02 2.274225e-02 -1.852385e-02 1.359297e-03 1.898528e-02 -2.562448e-02 -8.842839e-03 2.352785e-02 -3.945351e-04 -1.161046e-02 3.864301e-02 -9.119906e-03 -2.200281e-02 1.989756e-02 8.458671e-04 7.146688e-03 1.084733e-02 4.009040e-03 1.244457e-02 6.570503e-03 1.273214e-02 1.111534e-02 1.361809e-02 1.676363e-02 1.517480e-02 2.377042e-02 1.712811e-02 
2.547366e-02 1.424792e-02 5.717373e-02 -1.757554e-01 -1.040492e+01 -5.213311e-02 -3.734668e-02 -2.168103e-02 -2.124272e-02 -1.952440e-02 -1.387251e-02 -1.561181e-02 -1.463023e-02 -9.374230e-04 -3.616839e-02 3.141189e-02 -1.967178e-03 -6.214583e-02 1.911794e-02 1.171572e-03 -3.895925e-02 1.242679e-02 4.147799e-02 -3.218800e-02 -1.533047e-03 2.682004e-02 -4.172645e-02 -2.715697e-02 3.937612e-02 -8.471970e-03 -1.773497e-02 4.135818e-02 -5.150225e-03 -4.404644e-02 2.040989e-02 7.766974e-03 -3.777065e-02 2.312277e-02 3.964381e-02 -2.834564e-02 2.439641e-03 3.056191e-02 -4.480289e-02 -1.716907e-02 3.939709e-02 -3.063472e-03 -1.994036e-02 5.545499e-02 -1.607391e-02 -3.827557e-02 3.174603e-02 -2.366215e-03 7.049165e-03 1.096640e-02 6.401254e-04 1.229669e-02 2.686022e-03 1.168918e-02 7.004187e-03 1.173140e-02 1.206655e-02 1.260088e-02 1.801281e-02 1.402594e-02 
1.997723e-02 1.039838e-02 4.555208e-02 -1.416520e-01 -7.555576e+00 -2.462235e-02 -2.478418e-02 -1.877976e-02 -1.310684e-02 -2.038341e-02 -3.593017e-03 -2.183618e-02 -1.139910e-03 -3.702227e-03 -6.454155e-02 1.395153e-01 -1.802898e-02 -1.751480e-01 8.858113e-02 2.884866e-02 -1.190641e-01 7.309146e-02 1.101356e-01 -1.115709e-01 1.269914e-02 1.070049e-01 -1.263219e-01 -7.448887e-02 1.283325e-01 -2.966983e-02 -5.225207e-02 1.489997e-01 -2.239220e-02 -1.491202e-01 7.991838e-02 3.398116e-02 -1.183718e-01 8.279235e-02 1.092269e-01 -1.096087e-01 1.612045e-02 1.103074e-01 -1.298764e-01 -6.598270e-02 1.296059e-01 -2.496603e-02 -5.918633e-02 1.764874e-01 -4.396626e-02 -1.483281e-01 8.704188e-02 7.640590e-03 -1.217738e-03 1.958589e-02 -7.148170e-03 1.454666e-02 -1.537353e-03 1.102122e-02 4.056827e-03 9.735372e-03 8.992892e-03 9.786596e-03 1.403047e-02 1.054040e-02 
1.266921e-02 6.781960e-03 3.206857e-02 -1.090053e-01 -5.022980e+00 -5.078135e-03 -1.207621e-02 -1.537755e-02 -4.036616e-03 -1.962769e-02 6.778359e-03 -2.574736e-02 1.336878e-02 -1.002738e-02 -9.282407e-02 3.397245e-01 5.577040e-01 1.512793e-01 1.565180e-01 3.574556e-02 -7.721476e-02 5.684528e-01 5.580438e-01 -1.716839e-02 2.091535e-02 9.611908e-02 2.502184e-01 4.305841e-01 3.392033e-01 3.014496e-04 -9.096385e-02 3.700775e-01 5.491061e-01 1.610224e-01 1.399618e-01 3.611133e-02 -6.603845e-02 6.136257e-01 5.820015e-01 -1.282981e-02 2.543684e-02 9.659483e-02 2.709885e-01 4.642210e-01 3.494453e-01 5.226911e-03 -1.015478e-01 4.170268e-01 5.849281e-01 1.945559e-01 1.446314e-01 2.879088e-02 -1.234988e-02 2.454259e-02 -1.415336e-02 1.458850e-02 -5.835281e-03 9.325561e-03 2.832684e-04 7.268437e-03 4.626168e-03 6.794128e-03 8.443136e-03 7.087427e-03 
6.215989e-03 2.688607e-03 2.013898e-02 -8.147680e-02 -2.223480e+00 2.856125e-02 7.561967e-04 -9.978762e-03 2.307267e-03 -1.969361e-02 1.931954e-02 -5.093074e-02 7.796631e-02 -1.282018e-01 -1.108160e-01 2.426165e+00 1.035111e+01 8.174907e+00 8.038772e-01 -1.890986e-01 1.323184e+00 8.054746e+00 8.872707e+00 2.666990e+00 1.675949e-01 -6.373056e-01 6.591358e+00 1.042566e+01 3.816125e+00 5.968342e-01 -2.221636e-01 2.804861e+00 1.027388e+01 7.740398e+00 6.717866e-01 -2.091431e-01 1.473109e+00 8.511293e+00 9.174330e+00 2.661049e+00 1.589136e-01 -6.352732e-01 6.811840e+00 1.070401e+01 3.902808e+00 6.129286e-01 -2.469983e-01 3.019439e+00 1.134362e+01 8.752079e+00 6.332870e-01 2.238851e-01 -1.095210e-01 3.993784e-02 -3.087960e-02 1.367099e-02 -8.911279e-03 6.407264e-03 -1.621142e-03 4.109612e-03 1.692365e-03 3.397087e-03 3.955521e-03 3.309366e-03 
-7.698291e-04 -1.370186e-03 7.363850e-03 -5.251504e-02 4.626580e-01 5.725974e-02 1.320302e-02 -3.874320e-03 8.253075e-03 -1.529662e-02 2.610831e-02 -5.520174e-02 1.043149e-01 -1.842187e-01 -4.373527e-02 3.545218e+00 1.455556e+01 1.138803e+01 8.356747e-01 -2.757505e-01 2.143046e+00 1.135090e+01 1.221319e+01 3.568423e+00 1.632260e-01 -7.333501e-01 9.466603e+00 1.451538e+01 4.969666e+00 7.210524e-01 -1.753164e-01 4.076807e+00 1.436727e+01 1.065795e+01 6.474419e-01 -3.063736e-01 2.366354e+00 1.190757e+01 1.253098e+01 3.501885e+00 1.502703e-01 -7.224687e-01 9.724381e+00 1.479145e+01 5.046272e+00 7.213537e-01 -1.926292e-01 4.356234e+00 1.581015e+01 1.201736e+01 5.818567e-01 2.728431e-01 -1.441264e-01 3.906134e-02 -3.741864e-02 9.426652e-03 -1.075409e-02 2.712667e-03 -3.795073e-03 7.132549e-04 -1.746249e-03 -8.619157e-05 -1.072561e-03 -4.914638e-04 
-7.781581e-03 -5.581538e-03 -4.667818e-03 -2.810663e-02 3.166802e+00 9.337768e-02 2.453170e-02 8.399253e-03 5.507901e-03 1.056552e-02 -3.872914e-03 2.702279e-02 -3.645812e-02 9.002371e-02 -1.560786e-02 -1.282263e+00 -5.103233e+00 -3.913007e+00 -2.731795e-01 1.287114e-01 -8.205691e-01 -4.052195e+00 -4.282788e+00 -1.193531e+00 -6.433180e-02 2.393563e-01 -3.437486e+00 -5.167102e+00 -1.724149e+00 -2.246929e-01 4.001874e-02 -1.521779e+00 -5.191224e+00 -3.782781e+00 -1.959163e-01 1.111611e-01 -9.080750e-01 -4.364193e+00 -4.508201e+00 -1.220801e+00 -3.946008e-02 2.209523e-01 -3.611968e+00 -5.396685e+00 -1.782638e+00 -2.518370e-01 6.472494e-02 -1.682952e+00 -5.861084e+00 -4.379393e+00 -1.642919e-01 -1.157362e-01 4.937636e-02 -1.909855e-02 1.138631e-02 -5.894576e-03 1.012172e-03 -3.558568e-03 -2.276084e-03 -3.447910e-03 -4.058915e-03 -3.860884e-03 -5.765062e-03 -4.418417e-03 