# vtk DataFile Version 2.0
Comment goes here
ASCII

DATASET STRUCTURED_POINTS
FIELD FieldData 1
TIME 1 1 double
0.03800000
DIMENSIONS    64   64   1

ORIGIN    0.000   0.000   0.000
SPACING   0.03125 0.03125   1.000

POINT_DATA   4096
SCALARS Omega double
LOOKUP_TABLE default

-8.332740e-02 6.317842e-03 -1.612753e-01 -7.265174e-02 -1.568243e-01 -1.001146e-03 -8.060442e-02 -7.299952e-02 -4.110989e-02 -8.806199e-02 3.571181e-02 -1.197527e-01 1.300893e-01 -1.411867e-01 2.182624e-01 -1.458901e-01 2.751464e-01 -1.396327e-01 3.408701e-01 -1.126896e-01 3.460600e-01 -8.524550e-02 3.600559e-01 -1.666350e-02 3.423560e-01 -1.969181e-02 3.311572e-01 4.227929e-02 2.681473e-01 7.006005e-02 2.461105e-01 1.110034e-01 1.951108e-01 1.620618e-01 1.606065e-01 1.948351e-01 1.337501e-01 2.015290e-01 1.400632e-01 1.676817e-01 1.548126e-01 1.438785e-01 1.626927e-01 8.458216e-02 1.775944e-01 8.480587e-02 1.137502e-01 1.040508e-01 4.079004e-02 1.315014e-01 -5.048528e-02 1.517354e-01 -1.344213e-01 1.707421e-01 -2.126159e-01 1.904344e-01 -2.852936e-01 2.165816e-01 -3.450004e-01 2.327481e-01 -3.802451e-01 2.419644e-01 -4.393506e-01 2.110071e-01 
4.601367e+00 -2.910284e+01 -3.352040e+00 -2.448605e+01 -5.543220e+00 -2.239053e+01 -8.043320e+00 -2.035943e+01 -1.150925e+01 -1.892980e+01 -1.419777e+01 -1.727752e+01 -1.695346e+01 -1.551977e+01 -1.921687e+01 -1.408620e+01 -2.170207e+01 -1.117448e+01 -2.656347e+01 -5.277942e+00 -3.393808e+01 1.912599e+00 -4.127574e+01 8.304762e+00 -4.715332e+01 1.269821e+01 -5.031630e+01 1.394377e+01 -5.066083e+01 1.290902e+01 -4.894226e+01 1.039968e+01 -4.618227e+01 7.465324e+00 -4.347710e+01 5.114479e+00 -4.167781e+01 4.093793e+00 -4.152547e+01 4.842282e+00 -4.320682e+01 7.509546e+00 -4.636984e+01 1.103140e+01 -4.966377e+01 1.406324e+01 -5.169089e+01 1.511814e+01 -5.095410e+01 1.299400e+01 -4.718107e+01 8.363869e+00 -4.150012e+01 2.491399e+00 -3.476772e+01 -4.054654e+00 -2.763522e+01 -1.056939e+01 -2.074041e+01 -1.647880e+01 -1.412322e+01 -2.224415e+01 -7.633548e+00 -2.978936e+01 
-4.881437e+01 6.906554e+00 -2.651631e+01 4.115152e+00 -5.834597e+00 3.648432e+00 -2.833774e+01 2.180945e+00 -3.786921e+01 1.802154e+00 -4.464589e+01 1.248287e+00 -4.922542e+01 5.762022e-01 -5.309090e+01 5.905936e-01 -5.638614e+01 -7.923019e-02 -5.752950e+01 -2.770199e+00 -5.637407e+01 -6.245784e+00 -5.500627e+01 -9.178699e+00 -5.401014e+01 -1.120282e+01 -5.396043e+01 -1.164443e+01 -5.511881e+01 -1.087571e+01 -5.685669e+01 -9.625579e+00 -5.869290e+01 -8.237736e+00 -6.017383e+01 -7.183949e+00 -6.103349e+01 -6.600895e+00 -6.104501e+01 -6.879864e+00 -5.985063e+01 -8.207666e+00 -5.770806e+01 -9.872740e+00 -5.535685e+01 -1.151672e+01 -5.311696e+01 -1.231765e+01 -5.201372e+01 -1.140683e+01 -5.213749e+01 -9.415986e+00 -5.252927e+01 -7.102843e+00 -5.280543e+01 -4.517791e+00 -5.261310e+01 -2.024878e+00 -5.140558e+01 5.669718e-02 -4.906913e+01 2.221540e+00 -4.433332e+01 6.728196e+00 
-2.637741e+01 8.932422e+00 -1.409062e+01 7.333633e+00 -1.798157e+01 5.878946e+00 -1.249593e+01 5.988097e+00 -1.750218e+01 5.046861e+00 -2.090162e+01 3.997358e+00 -2.303637e+01 2.961440e+00 -2.475354e+01 2.379652e+00 -2.606045e+01 1.334688e+00 -2.577593e+01 -1.201180e+00 -2.379779e+01 -4.272684e+00 -2.157556e+01 -6.745270e+00 -1.982312e+01 -8.368564e+00 -1.904946e+01 -8.585721e+00 -1.942473e+01 -7.805537e+00 -2.054582e+01 -6.594751e+00 -2.198271e+01 -5.329912e+00 -2.328628e+01 -4.435648e+00 -2.414903e+01 -4.103656e+00 -2.428258e+01 -4.521936e+00 -2.344702e+01 -5.830651e+00 -2.183390e+01 -7.429636e+00 -2.003214e+01 -8.890212e+00 -1.849323e+01 -9.490248e+00 -1.797453e+01 -8.561299e+00 -1.860245e+01 -6.589316e+00 -1.972477e+01 -4.221636e+00 -2.102700e+01 -1.638034e+00 -2.223219e+01 8.745924e-01 -2.294770e+01 2.974561e+00 -2.302264e+01 5.104882e+00 -2.197687e+01 8.848834e+00 
-6.680038e-01 8.745192e-01 -1.313826e+00 -1.627782e+00 -3.229388e+01 3.964372e-01 9.231314e-01 -7.149897e-02 -1.568852e-02 -5.028380e-02 -3.471852e-01 -3.485167e-02 -4.775192e-01 -3.152414e-02 -5.235710e-01 -3.727472e-02 -5.286443e-01 -4.547460e-02 -5.199467e-01 -4.816613e-02 -4.936607e-01 -5.099520e-02 -4.469259e-01 -6.612930e-02 -3.928357e-01 -1.019676e-01 -3.463639e-01 -1.472761e-01 -3.136925e-01 -1.901798e-01 -2.964241e-01 -1.986619e-01 -2.899924e-01 -1.751979e-01 -3.059995e-01 -1.303766e-01 -3.455812e-01 -8.551222e-02 -3.964196e-01 -5.548651e-02 -4.425932e-01 -3.462171e-02 -4.625009e-01 -2.599958e-02 -4.514817e-01 -3.447444e-02 -4.152760e-01 -7.058851e-02 -3.627298e-01 -1.231821e-01 -3.034769e-01 -1.755273e-01 -2.429910e-01 -1.958711e-01 -1.881430e-01 -1.681704e-01 -1.489486e-01 -9.446533e-02 -1.376563e-01 1.147596e-02 -1.639763e-01 1.254279e-01 -2.947223e-01 4.536432e-01 
-4.080458e-01 1.861885e-01 -9.780581e-01 -1.344377e+00 -4.129012e+01 -4.345838e-01 1.045283e+00 -2.846535e-01 5.932159e-01 -1.463359e-01 3.093614e-01 -9.024453e-02 1.631555e-01 -5.943441e-02 8.776865e-02 -4.287725e-02 5.101985e-02 -3.787778e-02 2.925940e-02 -2.479787e-02 2.002572e-02 -1.201601e-02 1.957246e-02 -1.481523e-02 8.251191e-03 -1.651536e-02 -2.310742e-03 -1.737104e-02 -4.292144e-03 -1.935806e-02 -1.152438e-02 -1.672984e-02 -1.356410e-02 -1.921268e-02 -1.576537e-02 -1.220447e-02 -1.232670e-02 1.695101e-03 -2.046218e-03 5.747844e-03 -9.753803e-04 1.394186e-02 -2.484247e-03 1.772578e-02 1.219401e-03 2.079893e-02 -2.216276e-03 2.387368e-02 -2.246140e-03 2.059290e-02 -6.858001e-03 2.087443e-02 -2.077283e-02 2.851404e-02 -4.097712e-02 4.220189e-02 -6.934961e-02 6.095039e-02 -1.126615e-01 8.638418e-02 -1.929097e-01 1.199682e-01 -3.623328e-01 3.684069e-01 
-5.049460e-01 1.982300e-01 -8.421149e-01 -1.614949e+00 -4.836495e+01 -6.121376e-01 8.592547e-01 -2.496134e-01 5.994163e-01 -1.616853e-01 3.345942e-01 -1.091532e-01 1.895032e-01 -7.143844e-02 1.156131e-01 -4.903378e-02 8.731050e-02 -4.339362e-02 6.195037e-02 -2.769246e-02 4.905694e-02 -1.347693e-02 4.762637e-02 -1.552479e-02 2.429996e-02 -1.819217e-02 4.264160e-03 -2.683201e-02 -8.076835e-03 -3.204182e-02 -2.324361e-02 -2.943275e-02 -2.446117e-02 -3.255155e-02 -2.636438e-02 -1.959003e-02 -1.889563e-02 9.061117e-04 2.880958e-03 1.006917e-02 7.387000e-03 2.501458e-02 1.151308e-02 3.407956e-02 1.858002e-02 4.025883e-02 1.465798e-02 4.471608e-02 1.355168e-02 3.563733e-02 8.067989e-04 3.255471e-02 -2.288546e-02 3.891576e-02 -5.451744e-02 5.195177e-02 -9.445409e-02 7.155460e-02 -1.485701e-01 1.020482e-01 -2.311062e-01 1.598222e-01 -3.750546e-01 2.825769e-01 
-4.141104e-01 2.437367e-01 -5.202834e-01 -1.442190e+00 -5.360545e+01 -7.062015e-01 4.806148e-01 -3.357165e-01 4.955041e-01 -2.163280e-01 3.197331e-01 -1.435434e-01 1.852077e-01 -9.478188e-02 1.039199e-01 -6.703618e-02 8.008627e-02 -7.572542e-02 4.658083e-02 -5.612643e-02 2.582774e-02 -3.022143e-02 4.193377e-02 -3.755503e-02 1.484206e-02 -2.663189e-02 -2.127141e-04 -2.568325e-02 8.009169e-03 -2.328726e-02 -8.738531e-03 -7.082297e-03 -2.901680e-03 -2.051289e-02 -8.100855e-03 -7.427120e-03 -1.437494e-02 1.554246e-02 1.295769e-02 4.895679e-03 -2.681918e-03 1.772258e-02 -1.158986e-02 2.351997e-02 2.685785e-03 2.691139e-02 -9.918111e-03 4.165596e-02 -6.538215e-04 2.411481e-02 2.034987e-03 2.752820e-02 -1.410669e-02 5.062365e-02 -4.038997e-02 7.781738e-02 -7.588296e-02 1.071654e-01 -1.264198e-01 1.441222e-01 -2.050447e-01 1.985649e-01 -3.230704e-01 2.760023e-01 
-3.879025e-01 2.496799e-01 -3.385384e-01 -1.595403e+00 -5.764709e+01 -7.796399e-01 2.629495e-01 -3.121661e-01 4.035675e-01 -2.082135e-01 2.800456e-01 -1.434857e-01 1.670802e-01 -9.458527e-02 9.955635e-02 -6.924739e-02 1.065472e-01 -9.393608e-02 6.008843e-02 -6.033275e-02 3.479961e-02 -3.156573e-02 6.836379e-02 -3.961267e-02 2.119854e-02 -2.406911e-02 -6.369962e-04 -3.866130e-02 6.319979e-03 -3.233030e-02 -2.129998e-02 -9.385018e-03 -7.343723e-03 -3.649561e-02 -1.909243e-02 -1.349674e-02 -2.665604e-02 1.768206e-02 2.090530e-02 6.036743e-03 -1.435202e-03 2.889993e-02 -1.028028e-02 3.070266e-02 1.110579e-02 3.916076e-02 -6.632846e-03 6.016828e-02 7.707045e-03 2.747924e-02 6.912977e-03 2.926203e-02 -1.451289e-02 5.287439e-02 -4.786895e-02 7.980140e-02 -8.921292e-02 1.094429e-01 -1.412161e-01 1.478115e-01 -2.118120e-01 1.994318e-01 -3.061905e-01 2.479607e-01 
-2.661308e-01 2.567267e-01 -8.239095e-02 -1.531167e+00 -6.038209e+01 -7.496850e-01 2.681383e-02 -3.528306e-01 2.610627e-01 -2.473717e-01 2.155411e-01 -1.683170e-01 1.268540e-01 -1.010526e-01 4.980430e-02 -6.040501e-02 9.984541e-02 -1.500205e-01 5.161153e-02 -8.647142e-02 -5.514674e-03 -2.673945e-02 9.412610e-02 -7.437542e-02 1.184729e-02 -1.937661e-02 -2.891054e-02 -4.857066e-02 4.120860e-02 -3.565125e-02 -2.370402e-02 3.133822e-02 3.831092e-03 -5.488549e-02 1.730910e-03 -6.955155e-03 -4.732791e-02 5.212002e-02 5.644109e-02 -1.707888e-02 -8.607890e-03 3.523120e-02 -5.278635e-02 2.041262e-02 2.460446e-02 2.729658e-02 -3.716211e-02 9.296868e-02 -1.170820e-02 -4.398574e-03 2.912057e-02 9.479950e-03 5.625943e-03 6.199894e-02 -3.089239e-02 1.026292e-01 -6.879201e-02 1.364067e-01 -1.115813e-01 1.735532e-01 -1.655461e-01 2.177180e-01 -2.277256e-01 2.584927e-01 
-2.117798e-01 2.502645e-01 6.838817e-02 -1.577789e+00 -6.240304e+01 -8.179476e-01 -1.284257e-01 -3.534786e-01 1.690282e-01 -2.378803e-01 1.560928e-01 -1.526835e-01 7.879116e-02 -7.453799e-02 2.074953e-03 -4.250206e-02 1.589250e-01 -2.163493e-01 5.282446e-02 -7.179468e-02 -3.408831e-02 -3.676548e-02 1.602800e-01 -7.965497e-02 6.219806e-03 1.488421e-02 -4.455474e-02 -9.317286e-02 5.777093e-02 -3.749418e-02 -4.893483e-02 6.127688e-02 1.590215e-02 -9.676838e-02 -6.240464e-03 -2.926738e-03 -8.249187e-02 5.841156e-02 9.588189e-02 -2.564330e-02 -1.070602e-02 6.541860e-02 -7.143750e-02 4.625520e-03 4.424268e-02 3.512873e-02 -4.762302e-02 1.333152e-01 -7.330347e-03 -2.345788e-02 4.248368e-02 2.185993e-03 1.544523e-02 6.238765e-02 -3.108680e-02 1.037378e-01 -7.401338e-02 1.361720e-01 -1.143362e-01 1.717139e-01 -1.569529e-01 2.125672e-01 -1.979364e-01 2.493842e-01 
-1.006731e-01 2.471776e-01 2.578150e-01 -1.559817e+00 -6.332593e+01 -7.233811e-01 -2.529833e-01 -3.740364e-01 5.539259e-02 -2.693433e-01 9.403854e-02 -1.718789e-01 3.317588e-02 -4.263559e-02 -1.277222e-01 8.140326e-02 1.527426e-01 -4.244214e-01 1.087040e-01 -5.677569e-02 -1.759940e-01 2.538263e-02 2.886983e-01 -2.038157e-01 1.041647e-02 1.227878e-01 -1.998049e-01 -1.811072e-01 2.085815e-01 -6.782426e-02 -9.215227e-02 2.362364e-01 -2.156827e-02 -2.607307e-01 8.827579e-02 2.786319e-02 -2.120163e-01 1.683331e-01 2.240886e-01 -1.544668e-01 8.977732e-03 1.665335e-01 -2.468343e-01 -6.531409e-02 1.859182e-01 5.407685e-04 -1.096036e-01 3.298418e-01 -1.070815e-01 -1.896185e-01 1.473743e-01 -3.776361e-02 5.422258e-02 8.682045e-02 -2.024235e-02 1.319355e-01 -5.965890e-02 1.585293e-01 -8.521731e-02 1.882281e-01 -1.073028e-01 2.228185e-01 -1.206285e-01 2.555467e-01 
-4.968539e-02 2.418955e-01 3.670268e-01 -1.556546e+00 -6.386404e+01 -7.756105e-01 -3.480193e-01 -3.950127e-01 -3.417019e-03 -2.767282e-01 4.975645e-02 -1.538018e-01 -3.277168e-02 5.676172e-02 -3.248015e-01 2.514569e-01 3.508251e-01 -7.063388e-01 1.155981e-01 1.354104e-01 -3.809867e-01 -8.093918e-02 5.682954e-01 -2.252406e-01 -3.564480e-02 3.610672e-01 -3.223579e-01 -4.229992e-01 3.339209e-01 -2.078545e-02 -1.957483e-01 4.277411e-01 1.581626e-02 -4.415654e-01 1.204845e-01 1.154058e-01 -3.750780e-01 1.380015e-01 4.171030e-01 -2.013313e-01 1.190676e-02 3.391679e-01 -3.886890e-01 -2.034253e-01 3.001296e-01 1.426346e-02 -1.612667e-01 5.144860e-01 -1.602975e-01 -2.793347e-01 2.110454e-01 -5.227604e-02 8.415611e-02 9.494766e-02 -2.246544e-02 1.375575e-01 -6.711771e-02 1.588873e-01 -8.591137e-02 1.850856e-01 -9.523753e-02 2.175210e-01 -9.098837e-02 2.505538e-01 
3.822594e-02 2.322511e-01 5.061412e-01 -1.563377e+00 -6.339492e+01 -6.397026e-01 -4.006305e-01 -4.115913e-01 -7.894432e-02 -3.318460e-01 2.806636e-02 -2.340108e-01 1.334488e-02 1.310892e-01 -6.408542e-01 1.120458e+00 3.413637e-01 -1.510887e+00 6.289310e-01 5.679845e-01 -1.059986e+00 4.713286e-01 1.043344e+00 -8.933243e-01 2.091739e-01 1.145065e+00 -1.116197e+00 -9.187646e-01 1.038930e+00 -1.211922e-01 -3.541106e-01 1.400466e+00 -3.405139e-01 -1.467928e+00 7.410243e-01 4.568069e-01 -1.052048e+00 6.052328e-01 8.490098e-01 -9.814816e-01 3.375232e-01 1.125685e+00 -1.282506e+00 -7.498857e-01 1.034802e+00 -1.452910e-01 -2.822103e-01 1.608913e+00 -7.908584e-01 -1.259419e+00 7.515031e-01 3.849806e-02 9.267851e-02 1.922672e-01 -6.524564e-02 1.743424e-01 -7.475508e-02 1.745405e-01 -6.399558e-02 1.934982e-01 -5.068522e-02 2.213638e-01 -2.505847e-02 2.508453e-01 
7.616919e-02 2.251189e-01 5.782847e-01 -1.535001e+00 -6.277196e+01 -6.724006e-01 -4.454784e-01 -4.476944e-01 -9.053914e-02 -3.903059e-01 5.139589e-02 -3.241738e-01 2.723608e-02 2.917778e-01 -1.484779e+00 1.350540e+00 5.628140e+00 3.039292e+00 1.083317e+00 1.505417e+00 -1.539555e+00 4.241754e+00 4.175239e+00 5.386506e-01 -7.024796e-02 5.232388e-01 1.328414e+00 2.160654e+00 2.091201e+00 6.156591e-01 -9.747572e-01 1.806047e+00 3.216752e+00 -4.369507e-01 1.085754e+00 7.997515e-01 -1.226538e+00 3.285590e+00 2.811995e+00 -9.189169e-01 3.235842e-01 5.450387e-01 8.713914e-01 6.037910e-01 1.641265e+00 -4.810803e-03 -6.103330e-01 1.977813e+00 1.814119e+00 -2.637951e+00 9.720941e-01 7.676509e-02 1.157455e-01 2.552421e-01 -1.128321e-01 1.925342e-01 -9.954393e-02 1.762661e-01 -6.806258e-02 1.894125e-01 -3.988447e-02 2.152886e-01 -9.480495e-04 2.453874e-01 
1.410093e-01 2.084965e-01 6.766723e-01 -1.537299e+00 -6.119541e+01 -5.146395e-01 -4.577933e-01 -4.412617e-01 -1.537734e-01 -4.710296e-01 3.502301e-02 -7.235566e-01 3.585392e-01 -9.588574e-01 -3.567222e-01 -1.534084e+00 3.699326e+01 4.096538e+01 7.039389e+00 5.788138e-01 1.714433e+00 2.519590e+01 3.784774e+01 2.078155e+01 2.494999e+00 -7.649747e+00 1.987016e+01 4.160807e+01 1.958109e+01 7.052219e+00 -8.387195e-01 -3.972867e-01 3.528467e+01 3.735995e+01 7.126878e+00 -1.112967e-01 2.055582e+00 2.477799e+01 3.708583e+01 1.955068e+01 3.176385e+00 -7.737447e+00 1.910848e+01 3.958063e+01 1.937493e+01 6.435551e+00 -3.778684e-01 -1.198289e+00 3.355969e+01 3.623270e+01 6.935018e+00 2.787695e+00 -8.457879e-01 2.908618e-01 -3.338427e-01 1.745606e-01 -1.201779e-01 1.711267e-01 -4.279314e-02 1.885208e-01 2.023142e-03 2.132230e-01 5.287371e-02 2.402468e-01 
1.653392e-01 1.960963e-01 7.159519e-01 -1.476295e+00 -5.961913e+01 -5.354342e-01 -4.760500e-01 -4.513868e-01 -1.361411e-01 -5.309412e-01 1.773249e-01 -1.073723e+00 1.049737e+00 -2.714366e+00 2.199883e+00 5.818903e-01 4.298251e+01 4.251363e+01 5.616674e+00 -3.486998e+00 7.107707e+00 3.301331e+01 4.536903e+01 2.107185e+01 2.305842e+00 -8.326304e+00 3.103532e+01 5.430142e+01 2.081925e+01 5.334101e+00 4.417261e-02 3.730719e+00 5.071360e+01 4.896537e+01 3.961371e+00 -2.283013e+00 7.391420e+00 3.789556e+01 5.006867e+01 2.392851e+01 1.311049e+00 -8.079304e+00 3.289643e+01 5.821020e+01 2.186587e+01 6.727209e+00 -8.691783e-01 3.823585e+00 5.516157e+01 5.610555e+01 2.804363e+00 3.528832e+00 -1.614527e+00 4.169649e-01 -4.927267e-01 1.755577e-01 -1.443353e-01 1.619048e-01 -3.779861e-02 1.789154e-01 1.529414e-02 2.038105e-01 7.163759e-02 2.316033e-01 
2.106993e-01 1.741137e-01 7.762754e-01 -1.432093e+00 -5.717719e+01 -3.902199e-01 -4.627942e-01 -3.480143e-01 -1.932211e-01 -2.805777e-01 -4.922879e-03 -2.447955e-01 2.074472e-01 -2.936081e-01 1.554226e+00 -2.522768e+00 -2.713486e+01 -2.691000e+01 3.949096e-01 -1.277949e+00 -2.346731e+00 -1.773749e+01 -2.199877e+01 -1.134127e+01 9.865646e-01 2.098197e+00 -1.394073e+01 -2.350145e+01 -7.521036e+00 -2.659348e+00 4.548957e-01 -2.575302e+00 -2.021734e+01 -1.834068e+01 -5.720555e-01 9.507385e-01 -3.415692e+00 -1.439792e+01 -1.732827e+01 -7.302592e+00 -6.301740e-01 2.754380e+00 -1.165983e+01 -1.836604e+01 -6.440362e+00 -5.025512e-01 -1.049381e+00 -1.235314e+00 -1.514766e+01 -1.355083e+01 -1.268685e+00 1.470127e-01 -4.519102e-02 2.820963e-01 -1.713337e-03 1.962837e-01 6.660585e-03 1.712379e-01 2.712006e-02 1.783681e-01 6.074430e-02 1.981242e-01 1.149134e-01 2.217344e-01 
2.233022e-01 1.593782e-01 7.842356e-01 -1.319978e+00 -5.480953e+01 -4.090101e-01 -4.913341e-01 -2.906631e-01 -2.683458e-01 -9.757939e-02 -2.727078e-01 3.960226e-01 -7.795845e-01 1.425609e+00 -1.067326e+00 1.711421e+00 -4.711239e+01 -5.029624e+01 -8.320149e+00 1.019449e+00 -4.691272e+00 -3.376839e+01 -4.972286e+01 -2.582968e+01 -2.922675e+00 9.657112e+00 -3.028452e+01 -5.759318e+01 -2.417593e+01 -7.557783e+00 4.137866e-01 -1.673749e+00 -5.158730e+01 -5.246441e+01 -6.455488e+00 1.718860e+00 -6.047614e+00 -3.764471e+01 -5.227482e+01 -2.631233e+01 -2.626335e+00 9.944091e+00 -3.176234e+01 -5.959999e+01 -2.445657e+01 -7.433102e+00 2.692979e-01 -1.306854e+00 -5.380700e+01 -5.710738e+01 -5.131720e+00 -3.107247e+00 1.465952e+00 2.179014e-03 4.000803e-01 1.394328e-01 1.143603e-01 1.497506e-01 6.314619e-02 1.636049e-01 7.857004e-02 1.850967e-01 1.282247e-01 2.094894e-01 
2.501174e-01 1.377068e-01 8.096414e-01 -1.270916e+00 -5.174816e+01 -2.805220e-01 -4.738604e-01 -2.510376e-01 -3.207540e-01 -1.160645e-01 -3.316367e-01 1.500380e-01 -5.978981e-01 6.028161e-01 -5.312913e-01 1.437923e+00 -1.317794e+01 -1.163416e+01 -5.228844e+00 2.507522e-02 -8.061627e-02 -9.823796e+00 -1.611734e+01 -7.342652e+00 -2.308544e+00 3.557783e+00 -8.343896e+00 -1.754056e+01 -1.017487e+01 -3.410178e+00 6.308347e-01 6.858964e-02 -1.710775e+01 -1.658986e+01 -4.577570e+00 -6.843893e-01 2.067751e-01 -1.288856e+01 -1.931451e+01 -9.691157e+00 -1.701289e+00 3.686776e+00 -9.562104e+00 -2.092476e+01 -1.111130e+01 -4.560579e+00 1.353579e+00 9.326461e-03 -1.960639e+01 -2.090284e+01 -4.186674e+00 -2.506668e+00 5.979283e-01 -2.549118e-01 2.733221e-01 3.051682e-02 1.237453e-01 1.080748e-01 9.109768e-02 1.438779e-01 1.075054e-01 1.708593e-01 1.563383e-01 1.947645e-01 
2.502096e-01 1.217934e-01 7.923803e-01 -1.165285e+00 -4.878812e+01 -2.865616e-01 -4.803169e-01 -2.246659e-01 -3.417143e-01 -1.069448e-01 -3.449488e-01 -2.197272e-03 -4.053181e-01 -1.213338e-01 1.217722e-01 -1.739690e+00 3.174466e-01 2.731300e+00 -1.257604e+00 -3.426457e-01 1.003819e+00 -1.119410e+00 -8.363592e-01 1.764903e+00 -4.813971e-01 -1.239646e+00 9.195098e-01 1.132925e+00 -1.193553e+00 2.263356e-01 5.063985e-01 -1.874928e+00 -2.573539e-01 2.287022e+00 -9.066129e-01 -7.449920e-01 1.401328e+00 -1.419199e+00 -1.231782e+00 1.436261e+00 -1.820699e-01 -1.347787e+00 7.622801e-01 7.707782e-01 -1.193366e+00 -1.912557e-01 9.643630e-01 -2.157293e+00 -5.720075e-01 2.084119e+00 -6.457831e-01 -3.407572e-01 8.730718e-02 -2.050276e-01 1.678554e-01 -8.798647e-03 1.207909e-01 7.949563e-02 1.003041e-01 1.238981e-01 1.146796e-01 1.545571e-01 1.600816e-01 1.797674e-01 
2.602892e-01 1.022076e-01 7.851858e-01 -1.104114e+00 -4.528029e+01 -1.937807e-01 -4.413453e-01 -2.047520e-01 -3.342108e-01 -1.239957e-01 -3.024722e-01 -6.825076e-02 -2.686066e-01 -1.738613e-01 1.038157e-01 -1.026581e+00 5.078077e-01 6.728038e-01 -6.162796e-01 -1.538858e-01 4.971256e-01 -5.041567e-01 -5.013364e-01 5.410097e-01 -2.371967e-01 -6.917244e-01 8.148649e-01 4.666165e-01 -6.894590e-01 1.077052e-01 1.920918e-01 -9.404648e-01 2.620703e-01 8.831931e-01 -4.373071e-01 -2.772689e-01 6.965501e-01 -2.956323e-01 -6.575248e-01 5.705939e-01 -1.210347e-01 -7.902128e-01 8.037036e-01 6.751182e-01 -6.601609e-01 1.412047e-02 3.867772e-01 -1.015149e+00 1.766376e-01 1.106551e+00 -4.188669e-01 2.489042e-02 2.380940e-02 -8.336298e-02 1.099714e-01 -4.277823e-04 1.055187e-01 6.592503e-02 1.052516e-01 1.086274e-01 1.264823e-01 1.393083e-01 1.727383e-01 1.631249e-01 
2.486514e-01 8.790480e-02 7.462957e-01 -1.009294e+00 -4.186426e+01 -1.933730e-01 -4.206374e-01 -1.971055e-01 -3.105676e-01 -1.366827e-01 -2.563239e-01 -1.236992e-01 -1.655886e-01 -2.150864e-01 1.063986e-01 -4.857307e-01 1.250662e-01 2.366599e-01 -2.252096e-01 -6.042193e-02 2.028047e-01 -2.716675e-01 -3.045860e-01 1.753443e-01 -4.434507e-02 -2.432685e-01 3.056438e-01 1.631598e-01 -2.999594e-01 2.638489e-02 1.202845e-01 -3.724055e-01 2.288251e-02 3.418230e-01 -1.227622e-01 -8.761952e-02 3.106497e-01 -1.415089e-01 -3.598215e-01 2.004930e-01 2.046601e-02 -2.707391e-01 3.090956e-01 2.785214e-01 -2.628775e-01 -5.956624e-05 2.365539e-01 -3.675722e-01 -3.758557e-02 5.125326e-01 -1.810278e-01 1.204747e-01 -1.318228e-02 -8.159017e-03 6.628836e-02 1.443755e-02 8.689989e-02 5.895350e-02 9.825111e-02 9.575911e-02 1.218592e-01 1.248947e-01 1.660385e-01 1.480641e-01 
2.446679e-01 7.207759e-02 7.106810e-01 -9.305708e-01 -3.800756e+01 -1.325379e-01 -3.718732e-01 -1.806773e-01 -2.825739e-01 -1.363344e-01 -2.212565e-01 -1.266890e-01 -1.385765e-01 -1.780087e-01 2.260183e-02 -2.931142e-01 2.445306e-02 5.310946e-02 -1.093570e-01 -5.174927e-02 7.407442e-02 -1.734739e-01 -1.539988e-01 6.235231e-02 -2.657633e-02 -1.119894e-01 1.273553e-01 4.335603e-02 -1.356951e-01 1.486430e-02 5.009419e-02 -1.772706e-01 5.510928e-03 1.467429e-01 -4.861249e-02 -2.102874e-02 1.380837e-01 -9.650012e-02 -1.602747e-01 1.013476e-01 8.529434e-03 -9.776589e-02 1.430134e-01 1.093150e-01 -1.079129e-01 3.168973e-02 1.049728e-01 -1.449425e-01 -1.962094e-02 2.620426e-01 -9.465766e-02 1.200042e-01 -1.681560e-03 3.170491e-02 5.300643e-02 3.275427e-02 7.653723e-02 5.978416e-02 9.457249e-02 8.781247e-02 1.218479e-01 1.122630e-01 1.659784e-01 1.319981e-01 
2.235325e-01 6.100477e-02 6.533072e-01 -8.382356e-01 -3.422306e+01 -1.287380e-01 -3.367855e-01 -1.736346e-01 -2.473620e-01 -1.360492e-01 -1.839970e-01 -1.279998e-01 -1.084641e-01 -1.499134e-01 -9.348182e-03 -1.811089e-01 -1.809149e-02 -3.353827e-02 -4.975598e-02 -5.117085e-02 1.644456e-02 -1.024165e-01 -8.454883e-02 -1.578302e-03 -9.904446e-03 -5.110863e-02 4.116499e-02 9.800498e-04 -5.376991e-02 -5.618813e-03 2.408268e-02 -7.460751e-02 -1.290741e-02 4.887599e-02 -6.851043e-03 -7.125190e-03 5.783753e-02 -4.221621e-02 -7.751922e-02 3.521197e-02 1.494700e-02 -2.622595e-02 5.524761e-02 5.049844e-02 -3.085645e-02 2.249922e-02 5.564353e-02 -3.188399e-02 -3.402494e-02 1.391557e-01 -4.238072e-02 9.368501e-02 2.002470e-03 4.603334e-02 3.862343e-02 4.199100e-02 6.167314e-02 5.857524e-02 8.197352e-02 7.977653e-02 1.094551e-01 1.004270e-01 1.509246e-01 1.180431e-01 
2.083141e-01 4.898796e-02 5.956668e-01 -7.474773e-01 -3.008656e+01 -8.741285e-02 -2.856943e-01 -1.571255e-01 -2.146676e-01 -1.266782e-01 -1.581824e-01 -1.125075e-01 -1.059789e-01 -1.099949e-01 -5.703904e-02 -1.126502e-01 -3.318818e-02 -7.858603e-02 -2.904461e-02 -5.951062e-02 -1.814445e-02 -5.862402e-02 -2.614992e-02 -3.350169e-02 -1.235609e-02 -2.990362e-02 -2.658228e-03 -1.686538e-02 -7.920597e-03 -1.525616e-02 1.172879e-03 -2.215775e-02 -9.091454e-03 2.091911e-04 4.110349e-03 -3.772486e-03 1.033289e-02 -4.470265e-03 -1.485120e-02 4.731622e-03 5.843507e-03 2.283129e-03 8.477668e-03 2.679222e-02 5.253088e-03 2.146186e-02 1.301233e-02 2.446114e-02 -2.307813e-02 6.471141e-02 -3.235526e-03 5.868280e-02 1.804641e-02 4.955761e-02 3.618254e-02 5.084273e-02 5.327275e-02 6.059915e-02 7.356934e-02 7.442706e-02 1.014602e-01 8.949370e-02 1.412583e-01 1.029520e-01 
1.803023e-01 4.051661e-02 5.240796e-01 -6.549562e-01 -2.600486e+01 -7.941576e-02 -2.432073e-01 -1.463754e-01 -1.772781e-01 -1.180520e-01 -1.279012e-01 -9.819430e-02 -9.319151e-02 -7.695724e-02 -7.666873e-02 -6.346734e-02 -2.730851e-02 -1.074061e-01 -1.395372e-02 -5.498818e-02 -3.969937e-02 -3.083000e-02 1.543532e-02 -4.799610e-02 -1.183854e-02 -9.660955e-03 -2.802580e-02 -3.017902e-02 2.155050e-02 -1.925755e-02 -1.217799e-02 1.377973e-02 -6.732776e-03 -3.189966e-02 1.131147e-02 -2.771915e-03 -2.002820e-02 2.046404e-02 2.204804e-02 -1.556882e-02 3.254730e-03 2.000405e-02 -2.246971e-02 1.239410e-02 2.816376e-02 1.568203e-02 -9.189938e-03 5.986301e-02 -2.452847e-02 1.777554e-02 1.939868e-02 3.104016e-02 2.456824e-02 4.681309e-02 2.859309e-02 5.273677e-02 3.990245e-02 5.851132e-02 5.838700e-02 6.739130e-02 8.447226e-02 7.862751e-02 1.205627e-01 8.956979e-02 
1.566389e-01 3.073130e-02 4.516367e-01 -5.609637e-01 -2.165100e+01 -4.597087e-02 -1.904282e-01 -1.303383e-01 -1.406278e-01 -1.106727e-01 -9.591719e-02 -8.570378e-02 -7.851413e-02 -3.065720e-02 -1.231251e-01 4.211604e-02 -6.034128e-02 -2.035464e-01 4.577650e-02 -4.863177e-02 -9.736627e-02 3.987439e-02 8.290279e-02 -1.167208e-01 2.238224e-03 4.363698e-02 -1.120898e-01 -6.186590e-02 1.051979e-01 -4.175265e-02 -3.565519e-02 1.082495e-01 -3.730823e-02 -1.231865e-01 6.033752e-02 7.366983e-03 -9.065931e-02 9.126805e-02 8.872083e-02 -8.890028e-02 1.477126e-02 7.337102e-02 -1.139527e-01 -1.915171e-02 1.071288e-01 -3.581685e-03 -4.612018e-02 1.659540e-01 -7.039487e-02 -9.181987e-02 8.932885e-02 -6.486216e-03 4.337290e-02 5.387169e-02 2.088111e-02 6.098705e-02 2.641092e-02 5.909677e-02 4.511053e-02 6.122339e-02 7.086943e-02 6.745073e-02 1.041157e-01 7.465771e-02 
1.243723e-01 2.300903e-02 3.708330e-01 -4.691461e-01 -1.733928e+01 -3.158738e-02 -1.424905e-01 -1.163513e-01 -1.006717e-01 -1.025177e-01 -6.159761e-02 -7.511303e-02 -5.965265e-02 7.139385e-03 -1.563842e-01 1.467660e-01 -6.309028e-02 -3.079591e-01 9.372239e-02 -3.591020e-03 -1.615946e-01 6.674635e-02 1.634527e-01 -1.574353e-01 1.058365e-02 1.247395e-01 -1.860003e-01 -1.318416e-01 1.796989e-01 -3.896029e-02 -6.293245e-02 2.026051e-01 -5.467201e-02 -2.145859e-01 9.868055e-02 3.864917e-02 -1.639830e-01 1.171540e-01 1.610091e-01 -1.383793e-01 2.577653e-02 1.470441e-01 -1.983339e-01 -8.524600e-02 1.770247e-01 -7.143897e-03 -7.754941e-02 2.668567e-01 -1.103788e-01 -1.951503e-01 1.407338e-01 -1.979278e-02 4.937003e-02 6.015484e-02 7.894836e-03 6.320274e-02 9.852780e-03 5.532043e-02 2.788654e-02 5.289285e-02 5.162669e-02 5.579849e-02 8.039861e-02 6.069698e-02 
9.518595e-02 1.356526e-02 2.898629e-01 -3.755955e-01 -1.282821e+01 1.487864e-03 -8.924902e-02 -9.962648e-02 -6.224468e-02 -1.090113e-01 -1.300982e-02 -1.057553e-01 1.421759e-02 2.807750e-02 -1.909704e-01 6.260539e-01 -3.226492e-01 -8.643212e-01 4.802854e-01 1.671035e-01 -4.451203e-01 3.412821e-01 3.187890e-01 -5.568840e-01 2.004479e-01 5.253505e-01 -6.293002e-01 -3.766400e-01 5.629661e-01 -1.249540e-01 -9.722929e-02 7.002529e-01 -3.108740e-01 -7.348695e-01 4.461180e-01 2.025643e-01 -4.806215e-01 3.849186e-01 3.387468e-01 -5.495525e-01 2.115996e-01 5.457299e-01 -6.519758e-01 -3.382004e-01 5.718837e-01 -9.106374e-02 -1.224332e-01 8.326801e-01 -4.373509e-01 -7.451933e-01 4.602606e-01 3.660441e-02 4.055096e-02 1.150167e-01 -3.408659e-02 7.452077e-02 -1.597039e-02 5.083969e-02 1.092512e-02 4.293429e-02 3.545931e-02 4.271801e-02 6.020919e-02 4.508616e-02 
6.126781e-02 4.991667e-03 2.045130e-01 -2.838193e-01 -8.351358e+00 2.432391e-02 -3.842976e-02 -8.049982e-02 -2.192131e-02 -1.063783e-01 3.200798e-02 -1.279157e-01 7.283227e-02 1.457888e-02 -2.327335e-01 4.735508e-01 7.624704e-01 -8.823245e-02 8.858433e-01 3.759326e-01 -6.387678e-01 1.072132e+00 1.414698e+00 -1.848939e-01 3.215915e-01 3.960998e-01 -1.814996e-01 6.501272e-01 1.240747e+00 1.230195e-01 -2.114197e-01 7.045709e-01 8.710377e-01 1.660897e-02 7.990947e-01 3.750071e-01 -6.702162e-01 1.241825e+00 1.575945e+00 -1.329793e-01 3.318855e-01 3.838091e-01 -1.348663e-01 7.950758e-01 1.318191e+00 1.864826e-01 -2.462387e-01 8.049707e-01 8.425512e-01 6.502748e-02 8.019230e-01 2.335633e-01 -6.180340e-04 1.534902e-01 -7.163080e-02 7.452954e-02 -3.744865e-02 4.163205e-02 -5.784459e-03 3.093740e-02 1.690976e-02 2.891303e-02 3.613468e-02 2.968942e-02 
2.959512e-02 -4.870501e-03 1.189242e-01 -1.824832e-01 -3.746572e+00 5.730000e-02 9.306909e-03 -4.931618e-02 2.118412e-03 -1.128581e-01 6.419030e-02 -2.889935e-01 2.454087e-01 -6.055851e-01 4.853056e-01 -3.744389e+00 1.335520e+01 1.989184e+01 6.162847e+00 1.107022e+00 -2.905045e-01 7.061132e+00 1.836034e+01 1.310683e+01 2.321076e+00 -3.292662e+00 6.074246e+00 1.834713e+01 1.229859e+01 4.776648e+00 9.186881e-02 -2.326800e+00 1.515243e+01 2.028654e+01 5.319910e+00 7.125274e-01 -1.646351e-01 8.493745e+00 1.960205e+01 1.311677e+01 2.184352e+00 -3.414423e+00 6.467956e+00 1.903022e+01 1.261262e+01 4.868903e+00 1.026634e-01 -2.783726e+00 1.563150e+01 2.208749e+01 5.243905e+00 2.235093e+00 -5.242976e-01 1.780594e-01 -2.089027e-01 4.354125e-02 -6.322408e-02 2.118396e-02 -1.586276e-02 1.534223e-02 3.647358e-03 1.369955e-02 1.552420e-02 1.327784e-02 
-3.597078e-03 -1.452833e-02 3.267684e-02 -8.587533e-02 8.287128e-01 8.902681e-02 5.775795e-02 -1.617928e-02 2.880631e-02 -9.622861e-02 8.830620e-02 -3.364888e-01 3.442615e-01 -8.913586e-01 7.041746e-01 -4.394750e+00 1.982237e+01 2.833374e+01 6.988597e+00 7.426791e-01 4.956305e-01 1.075931e+01 2.571019e+01 1.800802e+01 2.259391e+00 -4.454004e+00 9.989600e+00 2.609818e+01 1.583837e+01 5.803420e+00 8.118508e-02 -2.356234e+00 2.208335e+01 2.817464e+01 5.646920e+00 1.645152e-01 8.471088e-01 1.255120e+01 2.677381e+01 1.743036e+01 2.021767e+00 -4.532842e+00 1.039706e+01 2.644013e+01 1.588236e+01 5.717033e+00 1.107409e-01 -2.912415e+00 2.257056e+01 3.023939e+01 5.363626e+00 2.476988e+00 -7.278659e-01 1.355422e-01 -2.475164e-01 8.306497e-03 -7.100585e-02 -3.987691e-05 -2.389266e-02 -1.039525e-03 -1.058787e-02 -2.085584e-03 -6.592599e-03 -3.361014e-03 
-3.563850e-02 -2.421701e-02 -5.517315e-02 3.375818e-02 5.442041e+00 1.139896e-01 1.004484e-01 5.534544e-02 3.453686e-02 5.817630e-02 -4.612353e-03 1.458192e-01 -1.220122e-01 3.851393e-01 -2.785946e-01 1.323288e+00 -6.722217e+00 -9.095835e+00 -2.094997e+00 5.025267e-02 -3.877778e-01 -3.924302e+00 -8.689299e+00 -5.725222e+00 -6.745897e-01 1.565606e+00 -3.800353e+00 -9.207983e+00 -5.285470e+00 -1.768106e+00 -2.601414e-02 6.206068e-01 -8.161793e+00 -9.924016e+00 -1.745311e+00 6.461601e-02 -4.678679e-01 -4.930615e+00 -9.801295e+00 -6.111981e+00 -5.489807e-01 1.601865e+00 -4.194177e+00 -1.006092e+01 -5.700155e+00 -1.991091e+00 5.762878e-02 8.099250e-01 -9.002707e+00 -1.152111e+01 -1.725758e+00 -9.447066e-01 2.707149e-01 -7.700159e-02 8.392746e-02 -1.448959e-02 1.379695e-02 -1.151671e-02 -7.689677e-03 -1.409541e-02 -1.763842e-02 -1.695325e-02 -2.621753e-02 -1.979889e-02 