# vtk DataFile Version 2.0
Comment goes here
ASCII

DATASET STRUCTURED_POINTS
FIELD FieldData 1
TIME 1 1 double
0.00600000
DIMENSIONS    64   64   1

ORIGIN    0.000   0.000   0.000
SPACING   0.03125 0.03125   1.000

POINT_DATA   4096
SCALARS Omega double
LOOKUP_TABLE default

-7.206185e-03 2.823189e-04 -5.698172e-03 -7.905554e-04 -6.504431e-03 -5.447331e-03 -1.272468e-03 4.725233e-04 -1.130936e-02 1.059113e-02 -1.526427e-02 1.775007e-02 -3.284937e-02 4.504999e-02 -5.894234e-02 7.779908e-02 -9.972285e-02 1.015229e-01 -1.049184e-01 1.213755e-01 -1.424404e-01 1.420489e-01 -2.589883e-02 -1.699098e-02 2.744922e-02 -2.514825e-02 7.336125e-02 -1.655442e-01 1.633380e-01 -1.192438e-01 1.026144e-01 -8.525546e-02 8.962687e-02 -5.881680e-02 4.560100e-02 -3.316632e-02 3.705360e-02 -3.077197e-02 3.488644e-02 -2.405977e-02 2.294470e-02 -1.279857e-02 6.378964e-03 2.015529e-02 -1.105949e-02 9.565448e-03 -7.734418e-03 1.335026e-02 -1.102240e-02 1.006719e-02 -4.233037e-03 3.270801e-03 -6.650696e-03 9.251228e-03 -1.503770e-02 1.071219e-02 -1.247125e-02 4.001386e-03 -4.830140e-03 -3.981642e-03 -1.526790e-03 -3.669239e-03 -4.075748e-03 1.106206e-03 
-3.879722e+00 -3.897775e+00 2.274673e+00 -2.855684e+00 5.461169e-01 -1.607507e+00 -1.349568e+00 3.771949e-01 -3.305533e+00 1.945559e+00 -4.761468e+00 2.814369e+00 -5.463740e+00 2.940924e+00 -5.278217e+00 2.216884e+00 -4.584996e+00 1.562869e+00 -4.388316e+00 1.401222e+00 -4.283255e+00 9.938208e-01 -3.817933e+00 5.623081e-01 -3.661925e+00 2.929372e-01 -3.487018e+00 -1.646106e-01 -3.022296e+00 -6.022829e-01 -2.664885e+00 -9.549454e-01 -2.504935e+00 -1.110769e+00 -2.452070e+00 -1.194070e+00 -2.385087e+00 -1.307086e+00 -2.363726e+00 -1.287776e+00 -2.485183e+00 -1.181000e+00 -2.617451e+00 -1.073376e+00 -2.665367e+00 -1.084856e+00 -2.716616e+00 -9.903353e-01 -2.857812e+00 -8.105249e-01 -2.974745e+00 -7.081168e-01 -3.142225e+00 -6.105603e-01 -2.831359e+00 -1.471126e+00 -1.611045e+00 -2.501390e+00 -1.207157e+00 -1.947851e+00 -2.614928e+00 2.950489e-01 -6.231595e+00 4.285661e+00 
-1.590098e+00 1.068147e+01 -9.700004e+00 6.263641e+00 -4.212479e+00 5.326273e+00 -4.496864e+00 3.628316e+00 -4.660825e+00 2.434839e+00 -4.736411e+00 1.642398e+00 -4.814233e+00 1.040836e+00 -5.121813e+00 1.017541e+00 -5.612612e+00 9.055569e-01 -5.426185e+00 1.749902e-01 -4.976972e+00 -3.060474e-01 -5.127321e+00 -4.264757e-01 -4.801310e+00 -9.516899e-01 -4.411417e+00 -1.117586e+00 -4.321036e+00 -1.613560e+00 -3.943415e+00 -1.950452e+00 -3.668123e+00 -2.177695e+00 -3.466553e+00 -2.298095e+00 -3.488658e+00 -2.206247e+00 -3.543599e+00 -2.184652e+00 -3.475926e+00 -2.183515e+00 -3.446122e+00 -2.162217e+00 -3.498627e+00 -1.897757e+00 -3.611303e+00 -1.716429e+00 -3.624718e+00 -1.593292e+00 -3.622260e+00 -1.473657e+00 -3.256615e+00 -1.714108e+00 -3.002124e+00 -1.123051e+00 -3.601998e+00 -2.530724e-01 -3.472295e+00 -6.083492e-01 -1.822651e+00 -2.299360e+00 3.688597e+00 -8.616894e+00 
-1.025165e-01 6.176433e+00 -5.406214e+00 3.906688e+00 -2.286544e-01 2.850365e+00 -2.069478e+00 1.784450e+00 -1.802750e+00 8.912232e-01 -1.577245e+00 3.330700e-01 -1.491091e+00 9.749692e-03 -1.685439e+00 1.332416e-01 -2.066479e+00 1.929960e-01 -2.005403e+00 -1.489226e-01 -1.800811e+00 -3.164038e-01 -1.944579e+00 -3.240647e-01 -1.799065e+00 -5.440296e-01 -1.624472e+00 -5.681479e-01 -1.648277e+00 -7.342168e-01 -1.530353e+00 -8.370780e-01 -1.419958e+00 -9.219137e-01 -1.332566e+00 -9.649883e-01 -1.356038e+00 -8.984797e-01 -1.386825e+00 -8.909525e-01 -1.331368e+00 -9.086996e-01 -1.293736e+00 -9.125334e-01 -1.314440e+00 -7.771147e-01 -1.362046e+00 -7.006885e-01 -1.344268e+00 -6.702961e-01 -1.320943e+00 -6.282103e-01 -1.104562e+00 -7.674013e-01 -1.030752e+00 -3.098903e-01 -1.556053e+00 3.205714e-01 -1.563095e+00 3.906495e-02 -4.671105e-01 -1.235332e+00 3.018980e+00 -5.159623e+00 
-4.915652e-03 1.831984e-02 -2.024667e-02 -3.195475e-02 -6.605914e+00 1.146690e-02 -1.848760e-03 1.391439e-03 -3.723509e-03 3.049007e-04 -3.798394e-03 -1.244133e-04 -4.402935e-03 -3.036281e-04 -5.334350e-03 -2.266461e-04 -5.492076e-03 -4.767425e-04 -5.033486e-03 -9.812625e-04 -4.643295e-03 -1.631336e-03 -4.675038e-03 -1.322958e-03 -4.197042e-03 -1.737574e-03 -3.715147e-03 -2.016778e-03 -3.659946e-03 -2.079794e-03 -3.440769e-03 -2.139537e-03 -3.176019e-03 -2.297561e-03 -2.911312e-03 -2.403055e-03 -2.852081e-03 -2.268045e-03 -2.799033e-03 -2.151563e-03 -2.607030e-03 -2.146552e-03 -2.409674e-03 -2.177991e-03 -2.361931e-03 -1.935144e-03 -2.305581e-03 -1.686408e-03 -2.188202e-03 -1.580382e-03 -2.087252e-03 -1.254128e-03 -1.916536e-03 -1.016041e-03 -1.580272e-03 -8.409618e-04 -1.843222e-03 4.261097e-04 -2.658148e-03 1.693008e-03 -2.346094e-03 -7.335797e-04 9.456103e-03 -4.012087e-03 
-7.048244e-04 -7.919695e-03 -6.484815e-03 7.625581e-02 -5.691247e+00 -1.095100e-01 2.355821e-03 -6.750564e-04 1.518626e-03 -5.255308e-04 8.599863e-04 -3.948439e-04 5.358806e-04 -2.717230e-04 4.146025e-04 -7.219745e-05 3.396799e-04 2.704635e-05 2.292678e-04 -2.382470e-05 1.332665e-04 -1.335934e-04 5.473920e-05 6.080492e-06 9.274617e-05 2.647850e-06 2.714098e-07 -5.959398e-05 3.776388e-05 -1.789731e-05 3.532521e-06 -1.638390e-05 3.056255e-06 -1.330640e-05 -1.549984e-05 -3.574915e-05 -3.235108e-05 -2.541836e-05 -1.468286e-05 5.900346e-06 -3.106681e-06 1.554960e-05 -5.311124e-06 5.873853e-06 -4.682813e-05 -3.646117e-06 -5.233789e-05 4.615648e-06 -4.710722e-05 2.071746e-05 -8.874847e-05 4.527993e-05 -8.768754e-05 1.114466e-04 -1.516247e-04 3.707197e-05 -4.072458e-04 -1.009551e-04 -6.892655e-04 6.513627e-05 -9.436220e-04 8.584134e-04 1.285317e-03 6.839581e-03 
-2.779759e-03 -3.580416e-03 -5.669903e-03 1.761923e-01 -8.532097e+00 -2.243511e-01 3.177454e-03 -4.546548e-04 2.140662e-03 -4.307769e-04 1.169250e-03 -3.531696e-04 6.430104e-04 -2.703102e-04 4.070719e-04 -1.559770e-04 2.888285e-04 -8.316398e-05 1.967676e-04 -7.988645e-05 1.207830e-04 -1.082729e-04 6.759702e-05 -3.359994e-05 6.618099e-05 -2.698280e-05 1.816221e-05 -4.454714e-05 2.940790e-05 -2.652393e-05 1.001048e-05 -1.705402e-05 3.627802e-06 -1.462396e-05 -9.953268e-06 -2.064980e-05 -2.060607e-05 -1.143638e-05 -1.039967e-05 7.238000e-06 -2.864108e-06 1.704800e-05 -8.618865e-06 1.669155e-05 -3.323951e-05 1.580754e-05 -4.080706e-05 2.646325e-05 -4.307498e-05 4.361007e-05 -6.990151e-05 5.958813e-05 -9.643950e-05 8.433678e-05 -1.623644e-04 8.057193e-05 -3.120377e-04 7.352199e-05 -4.698550e-04 1.293983e-04 -6.151343e-04 5.221845e-04 3.724708e-04 3.819319e-03 
-8.105833e-04 -1.400400e-03 -2.026842e-03 1.595248e-01 -7.677290e+00 -2.031822e-01 6.306500e-04 -3.275982e-04 1.025928e-03 -4.740113e-04 7.312353e-04 -4.039525e-04 5.151086e-04 -2.881786e-04 3.885668e-04 -1.654084e-04 2.960575e-04 -9.682002e-05 2.059211e-04 -8.292751e-05 1.340782e-04 -9.044142e-05 8.786640e-05 -4.675249e-05 6.687543e-05 -3.273073e-05 3.115146e-05 -4.319649e-05 2.931206e-05 -2.758880e-05 1.285963e-05 -1.796658e-05 5.623973e-06 -1.826091e-05 -4.501408e-06 -1.643887e-05 -1.341088e-05 -6.439418e-06 -7.342511e-06 5.912040e-06 -8.387911e-06 1.725325e-05 -1.669551e-05 1.884310e-05 -2.993402e-05 2.388361e-05 -4.246133e-05 3.718145e-05 -5.390107e-05 5.010788e-05 -7.794769e-05 7.506050e-05 -1.096767e-04 1.099903e-04 -1.799483e-04 1.152205e-04 -3.229296e-04 1.283925e-04 -4.763756e-04 2.959808e-04 -4.362261e-04 8.548537e-04 3.058560e-04 1.677417e-03 
-1.358174e-03 -5.056578e-04 -1.949208e-03 1.400281e-01 -9.413420e+00 -1.919409e-01 9.640128e-04 -3.335340e-04 1.311603e-03 -3.972895e-04 9.047921e-04 -3.523552e-04 5.803704e-04 -2.798962e-04 3.825612e-04 -2.047558e-04 2.669323e-04 -1.523442e-04 1.752895e-04 -1.188647e-04 1.123775e-04 -1.045127e-04 7.919798e-05 -6.837212e-05 5.129616e-05 -4.946879e-05 2.654772e-05 -4.972576e-05 2.313846e-05 -3.355548e-05 9.219227e-06 -2.087161e-05 3.934033e-06 -2.066122e-05 -4.356932e-06 -1.217968e-05 -1.241736e-05 -1.217661e-06 -5.419734e-06 7.311971e-06 -8.891871e-06 1.994208e-05 -1.870826e-05 2.544157e-05 -2.356983e-05 3.450928e-05 -3.569148e-05 5.178507e-05 -4.839181e-05 6.355090e-05 -6.479924e-05 8.405101e-05 -9.821110e-05 1.137916e-04 -1.566628e-04 1.457208e-04 -2.517840e-04 1.926716e-04 -3.650409e-04 3.072205e-04 -4.424668e-04 6.266852e-04 -3.629399e-04 1.155258e-03 
-2.185236e-04 -1.020085e-04 -1.612722e-04 1.214401e-01 -8.617173e+00 -1.694843e-01 -4.650085e-04 -2.519576e-04 4.154587e-04 -4.040531e-04 4.214152e-04 -3.797993e-04 3.488198e-04 -2.965004e-04 2.779744e-04 -2.117235e-04 2.294336e-04 -1.697549e-04 1.611055e-04 -1.202747e-04 1.037050e-04 -9.864721e-05 8.915790e-05 -7.595692e-05 5.166428e-05 -4.721871e-05 2.437860e-05 -5.608763e-05 2.955221e-05 -3.503059e-05 7.916674e-06 -1.338256e-05 6.285862e-06 -2.975462e-05 8.504855e-07 -9.394502e-06 -1.491634e-05 5.929747e-06 2.568086e-06 3.271832e-06 -1.032515e-05 2.592716e-05 -2.782863e-05 2.444652e-05 -1.773432e-05 3.942245e-05 -3.827926e-05 6.855310e-05 -5.214789e-05 6.453650e-05 -5.978978e-05 9.390757e-05 -9.244895e-05 1.330914e-04 -1.446303e-04 1.721823e-04 -2.162246e-04 2.331454e-04 -2.662389e-04 3.728728e-04 -1.968797e-04 6.239917e-04 2.555123e-05 7.235258e-04 
-4.514328e-04 2.182526e-04 -2.432427e-04 9.953491e-02 -9.709385e+00 -1.524042e-01 -2.696227e-04 -3.567568e-04 5.427016e-04 -3.892376e-04 5.079879e-04 -3.482249e-04 3.797411e-04 -2.831298e-04 2.684858e-04 -2.322594e-04 2.276431e-04 -2.045238e-04 1.348211e-04 -1.366437e-04 7.833985e-05 -1.220347e-04 8.876907e-05 -8.898758e-05 3.620409e-05 -5.287903e-05 1.517953e-05 -7.193752e-05 2.852729e-05 -3.789737e-05 -2.334925e-07 -1.225110e-05 7.459504e-06 -3.600203e-05 1.572642e-06 -6.307903e-06 -2.045371e-05 1.121651e-05 9.868490e-06 2.605157e-06 -8.694108e-06 3.097003e-05 -3.502690e-05 3.084363e-05 -6.953203e-06 4.445685e-05 -3.179683e-05 8.433632e-05 -5.234118e-05 7.450247e-05 -4.100741e-05 9.973852e-05 -7.237888e-05 1.406984e-04 -1.183953e-04 1.897828e-04 -1.756330e-04 2.560304e-04 -2.341386e-04 3.629457e-04 -2.681405e-04 5.277116e-04 -2.739286e-04 6.273738e-04 
2.606645e-04 2.631110e-04 6.241238e-04 8.668801e-02 -8.948849e+00 -1.358288e-01 -1.083128e-03 -3.120139e-04 -8.188428e-05 -3.841001e-04 9.470342e-05 -3.596484e-04 1.324199e-04 -2.865219e-04 1.153127e-04 -2.109449e-04 1.756182e-04 -2.533730e-04 1.080736e-04 -1.279531e-04 2.956901e-05 -1.078834e-04 1.168831e-04 -1.143766e-04 2.821084e-05 -2.297777e-05 -1.486727e-05 -9.988995e-05 5.918593e-05 -4.405611e-05 -1.773623e-05 3.031793e-05 1.073912e-05 -7.980881e-05 1.795599e-05 2.955606e-06 -5.158179e-05 3.648046e-05 4.347786e-05 -2.612548e-05 -7.578026e-06 6.048133e-05 -6.875255e-05 1.370871e-05 2.622981e-05 4.021110e-05 -4.279025e-05 1.359111e-04 -5.845710e-05 4.451779e-05 -1.204047e-05 1.016112e-04 -5.150413e-05 1.553734e-04 -8.498646e-05 2.076875e-04 -1.079731e-04 2.755491e-04 -9.871359e-05 3.764955e-04 -1.768801e-05 4.944167e-04 1.346648e-04 5.078214e-04 
1.279399e-04 4.207411e-04 5.348499e-04 6.909540e-02 -9.616471e+00 -1.209125e-01 -9.229476e-04 -4.158819e-04 -1.485802e-05 -4.011655e-04 1.406313e-04 -3.437645e-04 1.381330e-04 -2.568123e-04 6.754033e-05 -2.285118e-04 2.453718e-04 -3.036853e-04 6.787521e-05 -9.736866e-05 -2.420715e-05 -1.578715e-04 1.673455e-04 -1.189615e-04 -7.995648e-06 3.135877e-06 -3.278052e-05 -1.473611e-04 8.069440e-05 -3.631850e-05 -4.852973e-05 4.855179e-05 2.403291e-05 -1.078705e-04 2.715473e-05 1.269909e-05 -8.413440e-05 4.986363e-05 7.616288e-05 -4.329817e-05 -4.270461e-07 7.444502e-05 -1.098882e-04 2.364523e-05 6.547004e-05 2.580484e-05 -3.615795e-05 1.722594e-04 -9.225026e-05 4.775957e-05 3.246589e-05 9.609307e-05 -2.963231e-05 1.597700e-04 -6.840126e-05 2.177172e-04 -9.204089e-05 2.840749e-04 -1.007025e-04 3.688560e-04 -7.888279e-05 4.636358e-04 -9.525625e-06 5.086514e-04 
5.681908e-04 3.923135e-04 9.724496e-04 6.062204e-02 -8.873830e+00 -1.087841e-01 -1.391312e-03 -3.865352e-04 -4.189076e-04 -3.950895e-04 -1.639506e-04 -3.548808e-04 -6.760937e-05 -2.579729e-04 -1.615405e-04 -1.670115e-05 2.896728e-04 -4.690884e-04 7.917578e-05 -2.513736e-05 -2.101383e-04 -1.836596e-06 3.670661e-04 -2.558950e-04 -3.794752e-05 1.852574e-04 -1.370170e-04 -2.051604e-04 2.624231e-04 -7.515590e-05 -1.545399e-04 3.037192e-04 9.256377e-05 -2.978534e-04 1.202268e-04 6.651769e-05 -2.450153e-04 2.212114e-04 2.805549e-04 -2.088631e-04 6.570315e-06 2.406835e-04 -2.271782e-04 -2.865170e-05 2.567088e-04 -3.090453e-05 -1.091285e-04 4.206134e-04 -7.205716e-05 -1.200823e-04 1.360162e-04 1.086710e-04 -1.296193e-05 1.803601e-04 -3.062335e-05 2.303514e-04 -1.524588e-05 2.895805e-04 3.389838e-05 3.628504e-04 1.379710e-04 4.335605e-04 3.109635e-04 4.541955e-04 
4.748227e-04 4.781358e-04 8.971454e-04 4.711694e-02 -9.238211e+00 -9.647251e-02 -1.236304e-03 -4.633960e-04 -3.633574e-04 -4.268113e-04 -1.162571e-04 -3.593307e-04 -5.083036e-05 -1.556237e-04 -3.950669e-04 1.965356e-02 3.953654e-02 1.976351e-02 -2.066276e-05 1.773844e-04 9.521064e-03 3.925400e-02 3.264522e-02 3.162063e-03 -1.861176e-04 3.427363e-03 3.363700e-02 4.159337e-02 1.130531e-02 5.075711e-05 -2.811262e-04 2.290892e-02 4.576832e-02 2.296078e-02 2.209682e-04 7.744375e-05 1.043362e-02 4.251046e-02 3.534305e-02 3.346668e-03 5.182165e-05 3.338211e-03 3.354543e-02 4.146114e-02 1.139007e-02 -7.439128e-05 -7.786236e-05 2.142122e-02 4.276546e-02 2.149855e-02 3.516008e-04 7.143844e-05 -1.333052e-05 1.900006e-04 -3.511662e-05 2.408995e-04 -1.812209e-05 2.946237e-04 1.840869e-05 3.597471e-04 9.071825e-05 4.269783e-04 2.265006e-04 4.720122e-04 
7.385674e-04 4.378556e-04 1.115729e-03 4.109535e-02 -8.503240e+00 -8.682568e-02 -1.500278e-03 -4.367135e-04 -6.104192e-04 -4.211854e-04 -3.073625e-04 -3.981407e-04 -8.304871e-05 -3.605790e-04 -3.048802e-04 4.117582e-01 8.398723e-01 4.293281e-01 9.475825e-04 -3.073095e-04 2.140828e-01 8.407842e-01 6.977961e-01 7.231104e-02 -5.377346e-05 6.710590e-02 7.355653e-01 9.071849e-01 2.397007e-01 1.246760e-03 -2.678635e-04 4.891197e-01 9.968466e-01 5.092144e-01 1.521596e-03 -4.888825e-04 2.354364e-01 9.237471e-01 7.667430e-01 7.929926e-02 2.578102e-04 6.762001e-02 7.421636e-01 9.151136e-01 2.419827e-01 1.099199e-03 -2.323911e-05 4.638927e-01 9.456597e-01 4.831686e-01 1.419303e-03 3.117842e-04 -1.193628e-04 2.355675e-04 -9.611194e-06 2.478240e-04 5.488549e-05 2.896775e-04 1.348867e-04 3.448200e-04 2.594220e-04 3.989038e-04 4.507899e-04 4.325576e-04 
6.604412e-04 4.807604e-04 1.048432e-03 3.061764e-02 -8.639829e+00 -7.645659e-02 -1.345373e-03 -4.829082e-04 -5.515296e-04 -4.663429e-04 -2.206750e-04 -5.333560e-04 1.815009e-04 -9.471072e-04 6.471153e-04 5.735006e-01 1.171128e+00 5.983674e-01 2.189258e-03 -1.376169e-03 2.999607e-01 1.174548e+00 9.750390e-01 1.004858e-01 6.453310e-04 9.345477e-02 1.029558e+00 1.269268e+00 3.353630e-01 1.334099e-03 1.346206e-04 6.847118e-01 1.395911e+00 7.130223e-01 2.066593e-03 -7.613698e-04 3.302695e-01 1.294333e+00 1.074114e+00 1.111363e-01 2.001338e-04 9.502252e-02 1.040956e+00 1.283423e+00 3.388000e-01 1.919861e-03 -3.015100e-04 6.513407e-01 1.327537e+00 6.786116e-01 1.339924e-03 6.638378e-04 -2.868822e-04 3.133357e-04 -4.580552e-05 2.651903e-04 4.193686e-05 2.915157e-04 1.152469e-04 3.411736e-04 2.201112e-04 3.963134e-04 3.885138e-04 4.444198e-04 
8.087924e-04 4.400949e-04 1.144110e-03 2.608672e-02 -7.908408e+00 -6.830744e-02 -1.486070e-03 -4.467522e-04 -7.103121e-04 -4.292847e-04 -4.078234e-04 -4.612632e-04 -1.332719e-04 -6.748681e-04 4.622836e-04 -2.112859e-01 -4.299079e-01 -2.201043e-01 2.854430e-04 -8.112932e-04 -1.089657e-01 -4.286444e-01 -3.552804e-01 -3.733234e-02 5.287065e-04 -3.467571e-02 -3.740148e-01 -4.610605e-01 -1.213373e-01 -9.584437e-04 1.991533e-04 -2.484645e-01 -5.058552e-01 -2.583272e-01 -5.061546e-04 1.429951e-04 -1.195902e-01 -4.682127e-01 -3.883456e-01 -3.998362e-02 -2.447568e-04 -3.416029e-02 -3.758043e-01 -4.629279e-01 -1.223177e-01 -1.312756e-04 -4.534352e-04 -2.341430e-01 -4.774959e-01 -2.436354e-01 -8.750237e-04 2.658191e-04 3.526900e-06 2.253561e-04 5.806828e-05 2.363636e-04 1.216622e-04 2.725559e-04 2.103110e-04 3.195066e-04 3.413521e-04 3.676861e-04 5.332132e-04 4.086726e-04 
7.349422e-04 4.535780e-04 1.077203e-03 1.795982e-02 -7.868449e+00 -5.946472e-02 -1.339678e-03 -4.449747e-04 -6.830952e-04 -3.827752e-04 -4.604789e-04 -2.800545e-04 -4.586480e-04 3.677444e-05 -4.051394e-04 -5.932031e-01 -1.210766e+00 -6.191120e-01 -1.830334e-03 5.461824e-04 -3.095412e-01 -1.213395e+00 -1.007199e+00 -1.044453e-01 -2.869638e-04 -9.687787e-02 -1.063090e+00 -1.310712e+00 -3.461728e-01 -1.732829e-03 5.462851e-05 -7.069550e-01 -1.441117e+00 -7.361969e-01 -2.079706e-03 7.349455e-04 -3.408596e-01 -1.335958e+00 -1.108680e+00 -1.146890e-01 -2.967276e-04 -9.783370e-02 -1.074217e+00 -1.324385e+00 -3.497669e-01 -1.632816e-03 9.850480e-05 -6.716600e-01 -1.369434e+00 -6.998911e-01 -1.600384e-03 -2.175940e-04 2.777530e-04 1.030227e-04 1.221717e-04 1.999585e-04 1.298494e-04 2.569273e-04 1.943117e-04 3.089236e-04 3.056746e-04 3.604035e-04 4.779419e-04 4.090192e-04 
8.068412e-04 4.137243e-04 1.098432e-03 1.524379e-02 -7.140745e+00 -5.313822e-02 -1.398477e-03 -4.054825e-04 -7.634255e-04 -3.424005e-04 -5.498444e-04 -2.321084e-04 -4.918582e-04 7.310825e-05 -4.988465e-04 -2.011812e-01 -4.107597e-01 -2.096374e-01 -1.258045e-03 4.421469e-04 -1.051837e-01 -4.124978e-01 -3.427754e-01 -3.523194e-02 -3.947272e-04 -3.296154e-02 -3.617587e-01 -4.460999e-01 -1.183206e-01 -4.320173e-04 8.716409e-05 -2.410736e-01 -4.911368e-01 -2.506596e-01 -9.610772e-04 2.445098e-04 -1.159251e-01 -4.557458e-01 -3.783808e-01 -3.902147e-02 -3.673438e-05 -3.355786e-02 -3.663935e-01 -4.520198e-01 -1.196294e-01 -6.556665e-04 4.149230e-04 -2.298156e-01 -4.679457e-01 -2.390981e-01 -5.110709e-04 -1.300948e-04 1.997343e-04 9.109628e-05 1.485793e-04 1.794299e-04 1.808049e-04 2.355770e-04 2.598747e-04 2.846102e-04 3.837216e-04 3.311843e-04 5.614632e-04 3.743570e-04 
7.321577e-04 4.080752e-04 1.026815e-03 9.376881e-03 -6.961347e+00 -4.592357e-02 -1.248940e-03 -3.940694e-04 -7.092198e-04 -3.280094e-04 -5.049865e-04 -2.461235e-04 -3.764822e-04 -1.511908e-04 -1.827421e-04 -6.628043e-04 -4.175401e-04 1.206893e-04 -4.487909e-04 -6.080082e-05 8.955903e-05 -7.375412e-04 -7.106794e-04 2.496739e-04 -1.429201e-04 -3.292485e-04 -1.210512e-04 -3.582349e-04 -5.602103e-04 1.098742e-04 1.409550e-04 -7.334373e-04 -6.170518e-04 9.465649e-05 -2.298880e-04 -7.934795e-05 2.061406e-04 -8.333021e-04 -8.318717e-04 2.476268e-04 2.985367e-05 -3.392955e-04 -1.890239e-04 -3.950651e-04 -4.811278e-04 6.675703e-05 3.005975e-04 -7.249627e-04 -6.853663e-04 7.683859e-05 -6.508344e-05 6.288295e-05 1.121632e-04 1.111704e-04 1.333133e-04 1.711727e-04 1.679942e-04 2.231812e-04 2.362650e-04 2.716193e-04 3.452543e-04 3.187799e-04 5.057888e-04 3.644542e-04 
7.523023e-04 3.693372e-04 1.000077e-03 8.242237e-03 -6.238984e+00 -4.119335e-02 -1.250470e-03 -3.597302e-04 -7.300263e-04 -3.035546e-04 -5.347420e-04 -2.440109e-04 -3.907116e-04 -2.108072e-04 -2.028636e-04 -4.258457e-04 -3.860840e-05 -6.537044e-06 -2.653645e-04 -1.163415e-04 6.192480e-05 -2.825191e-04 -1.633522e-04 8.263303e-05 -7.764471e-05 -1.848390e-04 1.722531e-04 4.242836e-06 -1.957129e-04 2.561809e-05 5.554256e-05 -2.321540e-04 1.858377e-05 1.793554e-04 -1.000579e-04 -4.291075e-05 1.671114e-04 -9.896462e-05 -1.640879e-04 1.554544e-04 1.578486e-05 -1.255716e-04 1.587144e-04 1.660319e-04 -1.379381e-04 6.766828e-05 1.460018e-04 -1.159719e-04 -1.789233e-05 3.049620e-04 -9.868908e-06 1.064330e-04 1.067857e-04 1.181057e-04 1.470619e-04 1.605960e-04 1.967218e-04 2.046571e-04 2.740507e-04 2.477042e-04 3.869805e-04 2.898287e-04 5.434783e-04 3.305333e-04 
6.747066e-04 3.516099e-04 9.211008e-04 4.270878e-03 -5.947594e+00 -3.537911e-02 -1.099674e-03 -3.421330e-04 -6.598563e-04 -2.911688e-04 -4.753743e-04 -2.455238e-04 -3.309475e-04 -2.266568e-04 -1.886095e-04 -2.936059e-04 -8.920684e-05 -9.299049e-05 -1.642597e-04 -1.184961e-04 -1.230291e-05 -1.821567e-04 -1.003043e-04 -1.778467e-05 -4.920111e-05 -1.070417e-04 6.739249e-05 -2.812301e-05 -9.285951e-05 -1.395862e-05 1.550368e-05 -1.087645e-04 4.911482e-06 6.303337e-05 -4.162665e-05 -1.737254e-05 7.207482e-05 -3.894859e-05 -7.475347e-05 6.580378e-05 1.007029e-05 -3.025953e-05 8.005690e-05 9.326269e-05 -4.971875e-05 5.447728e-05 7.368086e-05 -4.930675e-06 6.972049e-06 1.830606e-04 9.421448e-06 1.212677e-04 7.931245e-05 1.250416e-04 1.246417e-04 1.555576e-04 1.734383e-04 1.932988e-04 2.430306e-04 2.329571e-04 3.436786e-04 2.731403e-04 4.845163e-04 3.129880e-04 
6.591569e-04 3.138084e-04 8.626483e-04 4.163960e-03 -5.232972e+00 -3.170017e-02 -1.061701e-03 -3.093527e-04 -6.428251e-04 -2.665723e-04 -4.744461e-04 -2.299355e-04 -3.382847e-04 -2.121039e-04 -2.140566e-04 -2.267791e-04 -1.357012e-04 -1.152552e-04 -1.394378e-04 -1.183137e-04 -5.449322e-05 -1.321566e-04 -8.001010e-05 -4.755295e-05 -4.341784e-05 -8.098871e-05 1.346426e-05 -3.321242e-05 -5.180340e-05 -2.518852e-05 -8.731216e-07 -6.440464e-05 -2.637466e-06 2.480373e-05 -1.958545e-05 -1.063758e-05 3.080209e-05 -1.794842e-05 -3.118712e-05 3.809369e-05 8.405790e-06 -2.193032e-06 4.327637e-05 6.227148e-05 -9.518861e-06 5.133309e-05 4.769975e-05 2.819499e-05 2.626771e-05 1.306625e-04 3.592460e-05 1.119952e-04 8.771425e-05 1.187626e-04 1.334438e-04 1.434546e-04 1.865079e-04 1.751230e-04 2.583700e-04 2.093666e-04 3.568368e-04 2.445308e-04 4.884647e-04 2.796273e-04 
5.783366e-04 2.883458e-04 7.758375e-04 1.595863e-03 -4.850472e+00 -2.689443e-02 -9.130517e-04 -2.850987e-04 -5.655790e-04 -2.470812e-04 -4.136812e-04 -2.148762e-04 -2.926299e-04 -1.943744e-04 -1.928084e-04 -1.844574e-04 -1.270010e-04 -1.239816e-04 -1.086460e-04 -1.093700e-04 -6.005510e-05 -1.053403e-04 -5.810872e-05 -6.084466e-05 -3.514212e-05 -6.265043e-05 -5.521729e-06 -3.922324e-05 -2.896758e-05 -2.918893e-05 -6.808103e-06 -3.748147e-05 -4.223346e-06 1.266380e-06 -8.974379e-06 -5.951647e-06 1.173950e-05 -4.424844e-06 -1.227394e-05 2.109824e-05 6.616976e-06 1.397929e-05 2.373262e-05 4.474662e-05 5.277324e-06 4.642206e-05 3.081383e-05 4.807164e-05 2.555126e-05 9.811467e-05 3.733863e-05 1.022040e-04 7.284674e-05 1.129840e-04 1.119343e-04 1.343526e-04 1.591483e-04 1.617764e-04 2.225392e-04 1.922419e-04 3.092736e-04 2.241912e-04 4.258975e-04 2.565694e-04 
5.379496e-04 2.509960e-04 6.966937e-04 1.972346e-03 -4.146763e+00 -2.373475e-02 -8.466567e-04 -2.515886e-04 -5.238631e-04 -2.194590e-04 -3.915854e-04 -1.910589e-04 -2.858643e-04 -1.681191e-04 -2.009089e-04 -1.496034e-04 -1.358282e-04 -1.212836e-04 -1.042085e-04 -9.816699e-05 -7.217839e-05 -8.485774e-05 -4.997328e-05 -6.194689e-05 -3.610275e-05 -5.005734e-05 -2.142830e-05 -3.995111e-05 -1.841592e-05 -2.819047e-05 -1.144688e-05 -2.174375e-05 -5.806154e-06 -1.010492e-05 -4.168279e-06 -3.825977e-06 6.442696e-07 2.882369e-06 1.016874e-06 1.245950e-05 6.605937e-06 1.951444e-05 1.172939e-05 3.291541e-05 1.616496e-05 4.139056e-05 2.578721e-05 5.437770e-05 3.129002e-05 7.375938e-05 5.071612e-05 8.581646e-05 7.868324e-05 1.003682e-04 1.139230e-04 1.196712e-04 1.596472e-04 1.427683e-04 2.203987e-04 1.684126e-04 3.008288e-04 1.955939e-04 4.053806e-04 2.234206e-04 
4.546118e-04 2.204424e-04 6.030076e-04 3.591380e-04 -3.689556e+00 -1.956622e-02 -7.016827e-04 -2.219822e-04 -4.428014e-04 -1.940793e-04 -3.292604e-04 -1.680020e-04 -2.413863e-04 -1.436836e-04 -1.740294e-04 -1.232761e-04 -1.114083e-04 -1.145186e-04 -8.392738e-05 -8.469939e-05 -6.555567e-05 -7.132576e-05 -3.307725e-05 -5.894994e-05 -3.028042e-05 -3.954563e-05 -2.440943e-05 -4.047615e-05 -8.545291e-06 -2.582649e-05 -1.232775e-05 -1.156183e-05 -4.552015e-06 -1.676136e-05 -7.783776e-07 -2.104383e-06 -6.062363e-06 7.423829e-06 7.929545e-06 6.742033e-06 5.326804e-06 2.209573e-05 1.527459e-06 2.566719e-05 1.890501e-05 3.600525e-05 1.768351e-05 5.671704e-05 2.390334e-05 5.740925e-05 4.688273e-05 7.257532e-05 6.537826e-05 8.921971e-05 9.226772e-05 1.070212e-04 1.302304e-04 1.268742e-04 1.817614e-04 1.487653e-04 2.503999e-04 1.721691e-04 3.401180e-04 1.963547e-04 
3.969800e-04 1.830681e-04 5.110773e-04 7.711335e-04 -3.000739e+00 -1.649426e-02 -6.133268e-04 -1.874163e-04 -3.837263e-04 -1.651592e-04 -2.897046e-04 -1.428250e-04 -2.195235e-04 -1.151379e-04 -1.748288e-04 -7.910525e-05 -1.029018e-04 -1.238789e-04 -6.891198e-05 -6.703535e-05 -8.253342e-05 -4.728623e-05 -1.044407e-05 -6.650029e-05 -3.001287e-05 -1.574087e-05 -4.520493e-05 -4.914808e-05 1.230535e-05 -2.620796e-05 -2.179728e-05 1.660858e-05 -4.714082e-06 -4.057896e-05 8.903422e-06 3.031113e-06 -2.624751e-05 2.121136e-05 2.866017e-05 -1.170026e-05 5.329163e-06 3.598536e-05 -1.992457e-05 8.429568e-06 3.807455e-05 2.649864e-05 6.858273e-06 7.580305e-05 2.206532e-05 2.264943e-05 6.018353e-05 5.529365e-05 6.452851e-05 7.643385e-05 8.551317e-05 9.174166e-05 1.198750e-04 1.072163e-04 1.661842e-04 1.244421e-04 2.260759e-04 1.432675e-04 3.021716e-04 1.630629e-04 
3.124056e-04 1.490848e-04 4.122243e-04 -2.515609e-04 -2.482072e+00 -1.265968e-02 -4.726133e-04 -1.543289e-04 -3.001791e-04 -1.369894e-04 -2.245271e-04 -1.178081e-04 -1.726678e-04 -8.816769e-05 -1.527696e-04 -4.495551e-05 -6.861490e-05 -1.261837e-04 -4.512124e-05 -4.663167e-05 -8.578789e-05 -3.211378e-05 1.976797e-05 -6.743021e-05 -2.586078e-05 3.869125e-06 -5.584116e-05 -5.502976e-05 3.297601e-05 -2.400324e-05 -2.915576e-05 3.496285e-05 -2.142450e-06 -5.520378e-05 1.782500e-05 7.056357e-06 -4.392271e-05 2.933555e-05 4.557471e-05 -2.443929e-05 4.640318e-06 4.385432e-05 -4.165689e-05 -1.743573e-06 5.171447e-05 1.667787e-05 -5.855067e-06 8.609788e-05 9.071267e-06 -7.131844e-07 6.184744e-05 4.136387e-05 4.983156e-05 6.438996e-05 6.223889e-05 7.742628e-05 8.918883e-05 8.929228e-05 1.263865e-04 1.025426e-04 1.744865e-04 1.173045e-04 2.357213e-04 1.330492e-04 
2.429740e-04 1.114000e-04 3.132729e-04 -1.710787e-04 -1.812963e+00 -9.328413e-03 -3.666385e-04 -1.185583e-04 -2.287902e-04 -1.087360e-04 -1.682782e-04 -9.952538e-05 -1.283305e-04 -7.267207e-05 -1.754491e-04 9.488522e-05 -2.247345e-05 -2.125657e-04 2.316234e-05 -5.497839e-06 -1.722801e-04 6.442630e-05 1.365819e-04 -1.434794e-04 -2.242166e-05 1.039300e-04 -1.242164e-04 -8.201831e-05 1.432708e-04 -4.702351e-05 -8.196004e-05 1.721453e-04 2.713894e-05 -1.570707e-04 7.304582e-05 3.527212e-05 -1.364218e-04 1.182149e-04 1.584711e-04 -1.146053e-04 4.902881e-06 1.322556e-04 -1.110264e-04 -3.810723e-05 1.567461e-04 -1.605785e-05 -6.329508e-05 2.132148e-04 2.551138e-05 -1.056912e-04 1.033130e-04 3.806806e-05 3.285068e-05 5.904862e-05 4.434108e-05 6.339073e-05 6.989748e-05 6.907655e-05 1.011225e-04 7.749626e-05 1.390491e-04 8.787091e-05 1.857388e-04 9.939271e-05 
1.587982e-04 7.508434e-05 2.112637e-04 -8.949014e-04 -1.243795e+00 -5.585491e-03 -2.312873e-04 -8.284788e-05 -1.448273e-04 -7.969123e-05 -9.943100e-05 -7.933894e-05 -6.937217e-05 -5.953859e-05 -1.668880e-04 9.490958e-03 1.912722e-02 9.583393e-03 1.001914e-04 7.506537e-06 4.660808e-03 1.926898e-02 1.611542e-02 1.501767e-03 -1.428104e-05 1.660247e-03 1.662637e-02 2.062195e-02 5.685338e-03 -2.186552e-05 -1.145663e-04 1.137799e-02 2.280561e-02 1.145411e-02 1.408332e-04 3.181905e-05 5.186430e-03 2.125698e-02 1.773365e-02 1.678117e-03 9.764579e-06 1.694169e-03 1.681759e-02 2.087352e-02 5.750307e-03 -2.826136e-06 -1.016038e-04 1.084042e-02 2.166082e-02 1.092919e-02 1.503845e-04 3.759600e-05 7.276093e-06 5.103494e-05 1.807667e-05 4.848353e-05 3.940608e-05 4.928117e-05 6.225038e-05 5.352733e-05 8.837409e-05 5.982637e-05 1.199974e-04 6.722007e-05 
8.156568e-05 3.710325e-05 1.093524e-04 -1.404625e-03 -6.001986e-01 -1.760088e-03 -1.123097e-04 -4.398122e-05 -6.839185e-05 -4.886502e-05 -3.006405e-05 -7.475601e-05 5.567782e-05 -1.803381e-04 -4.592109e-05 2.039565e-01 4.186572e-01 2.151919e-01 7.573351e-04 -3.285600e-04 1.064237e-01 4.192229e-01 3.488400e-01 3.647884e-02 9.850188e-05 3.312547e-02 3.670713e-01 4.534883e-01 1.202081e-01 6.164373e-04 -1.191339e-04 2.438530e-01 4.982461e-01 2.551012e-01 8.312472e-04 -2.907210e-04 1.174127e-01 4.616450e-01 3.837238e-01 3.993571e-02 1.040886e-04 3.354915e-02 3.709260e-01 4.581125e-01 1.213926e-01 6.438379e-04 -1.392378e-04 2.314580e-01 4.734016e-01 2.427374e-01 6.780387e-04 1.721403e-04 -8.566696e-05 5.925151e-05 -9.874886e-06 3.259130e-05 1.628707e-05 2.686923e-05 3.165728e-05 2.724653e-05 4.595478e-05 2.978324e-05 6.216861e-05 3.323726e-05 
-2.815110e-07 -6.458752e-07 6.240255e-06 -2.030872e-03 1.017211e-02 2.051719e-03 1.508400e-05 -4.390927e-06 1.028875e-05 -1.399062e-05 3.354953e-05 -5.090999e-05 1.325884e-04 -2.096158e-04 2.688578e-05 2.857654e-01 5.867571e-01 3.017434e-01 1.035944e-03 -4.536550e-04 1.492385e-01 5.874336e-01 4.887696e-01 5.120461e-02 1.490581e-04 4.636707e-02 5.144224e-01 6.355004e-01 1.683384e-01 8.917672e-04 -1.052300e-04 3.415721e-01 6.981029e-01 3.575327e-01 1.104702e-03 -4.251457e-04 1.646041e-01 6.467307e-01 5.375347e-01 5.600711e-02 1.429048e-04 4.693432e-02 5.197385e-01 6.418462e-01 1.699648e-01 9.069142e-04 -1.449742e-04 3.241216e-01 6.631958e-01 3.401347e-01 8.799074e-04 2.113462e-04 -1.346457e-04 4.874449e-05 -3.309411e-05 1.312941e-05 -9.508120e-06 4.016357e-06 -3.322496e-06 1.214315e-06 -1.411162e-06 1.421111e-07 -6.924108e-07 -3.591397e-07 
-8.225276e-05 -3.846270e-05 -9.605149e-05 -3.112879e-03 6.211565e-01 6.323189e-03 1.415969e-04 4.047669e-05 7.685418e-05 3.989966e-05 4.805184e-05 5.245078e-05 -8.600712e-06 1.219951e-04 -6.158873e-05 -1.033531e-01 -2.120212e-01 -1.089016e-01 -3.339774e-04 1.881619e-04 -5.407398e-02 -2.124342e-01 -1.766096e-01 -1.838781e-02 -7.297614e-05 -1.684040e-02 -1.861545e-01 -2.297659e-01 -6.077098e-02 -2.708715e-04 -3.403327e-05 -1.236808e-01 -2.525332e-01 -1.292021e-01 -3.379841e-04 1.271044e-04 -5.967449e-02 -2.340621e-01 -1.943776e-01 -2.016877e-02 -4.493647e-05 -1.709203e-02 -1.881951e-01 -2.322183e-01 -6.138546e-02 -3.189816e-04 4.021075e-06 -1.174639e-01 -2.400772e-01 -1.230165e-01 -2.520431e-04 -1.029264e-04 3.640940e-05 -3.565683e-05 -7.334851e-06 -2.351803e-05 -2.343910e-05 -2.334306e-05 -3.505373e-05 -2.621340e-05 -4.777345e-05 -3.001757e-05 -6.327579e-05 -3.416893e-05 