# vtk DataFile Version 2.0
Comment goes here
ASCII

DATASET STRUCTURED_POINTS
FIELD FieldData 1
TIME 1 1 double
0.03300000
DIMENSIONS    64   64   1

ORIGIN    0.000   0.000   0.000
SPACING   0.03125 0.03125   1.000

POINT_DATA   4096
SCALARS Omega double
LOOKUP_TABLE default

1.528848e-01 -5.929118e-01 4.069692e-01 -5.349279e-01 4.350829e-01 -4.329649e-01 3.428215e-01 -4.386197e-01 3.049710e-01 -3.605827e-01 2.625666e-01 -2.817674e-01 2.321667e-01 -1.916742e-01 2.026483e-01 -9.865152e-02 1.674824e-01 -2.583438e-02 1.510901e-01 4.794999e-02 1.134642e-01 1.102848e-01 1.006165e-01 1.688776e-01 7.032879e-02 1.715222e-01 9.904111e-02 1.140742e-01 1.266054e-01 1.519409e-01 8.748380e-02 1.906487e-01 4.941804e-02 2.345767e-01 2.533284e-02 2.467277e-01 8.585668e-03 2.756758e-01 -2.527371e-02 2.862242e-01 -3.538577e-02 2.757260e-01 -3.943557e-02 2.642872e-01 -5.575518e-02 2.581662e-01 -9.078907e-02 2.510748e-01 -1.175399e-01 2.309817e-01 -1.419362e-01 1.967057e-01 -1.598378e-01 1.617494e-01 -1.798595e-01 1.439171e-01 -2.091645e-01 1.413447e-01 -2.452815e-01 1.543599e-01 -2.788471e-01 1.694099e-01 -3.677698e-01 2.121954e-01 
-6.174619e-01 -2.242850e+01 -3.129390e+00 -2.253607e+01 -2.615351e+00 -2.217078e+01 -3.866194e+00 -2.070335e+01 -7.054681e+00 -1.871147e+01 -1.026123e+01 -1.629591e+01 -1.364859e+01 -1.370685e+01 -1.679269e+01 -1.118892e+01 -2.021575e+01 -7.689765e+00 -2.484312e+01 -2.972196e+00 -3.026637e+01 2.185355e+00 -3.579435e+01 7.318311e+00 -4.113463e+01 1.230487e+01 -4.569721e+01 1.535653e+01 -4.730860e+01 1.448724e+01 -4.426461e+01 9.872559e+00 -3.904925e+01 4.576837e+00 -3.411280e+01 3.843010e-01 -3.112390e+01 -1.015554e+00 -3.119085e+01 3.372698e-03 -3.297954e+01 2.565006e+00 -3.610728e+01 6.325085e+00 -3.991741e+01 1.013711e+01 -4.317853e+01 1.290236e+01 -4.484276e+01 1.379273e+01 -4.439207e+01 1.216698e+01 -4.102199e+01 7.671593e+00 -3.507423e+01 1.304596e+00 -2.763894e+01 -6.098487e+00 -1.973326e+01 -1.309210e+01 -1.257615e+01 -1.906881e+01 -6.045737e+00 -2.538281e+01 
-3.733638e+01 3.332787e+00 -2.306255e+01 5.117726e+00 -7.146862e+00 5.118730e+00 -2.566271e+01 4.126297e+00 -3.368501e+01 3.251381e+00 -3.898397e+01 2.221909e+00 -4.248246e+01 1.113560e+00 -4.519960e+01 2.688631e-01 -4.710962e+01 -1.192755e+00 -4.764974e+01 -3.378469e+00 -4.735351e+01 -5.649751e+00 -4.676755e+01 -7.875648e+00 -4.571764e+01 -1.047163e+01 -4.417344e+01 -1.231254e+01 -4.397649e+01 -1.198016e+01 -4.612841e+01 -9.540104e+00 -4.912656e+01 -6.975964e+00 -5.170590e+01 -4.903451e+00 -5.320770e+01 -4.303833e+00 -5.293259e+01 -4.852219e+00 -5.189686e+01 -5.835462e+00 -5.019359e+01 -7.465305e+00 -4.785402e+01 -9.124938e+00 -4.561844e+01 -1.022960e+01 -4.390537e+01 -1.055350e+01 -4.276431e+01 -9.741173e+00 -4.276818e+01 -7.472881e+00 -4.355136e+01 -4.583347e+00 -4.439957e+01 -1.208759e+00 -4.480090e+01 1.865275e+00 -4.381217e+01 4.438111e+00 -4.168284e+01 8.592208e+00 
-1.930978e+01 6.269326e+00 -1.211532e+01 7.059321e+00 -1.439360e+01 6.887466e+00 -1.208467e+01 6.597590e+00 -1.615936e+01 5.386984e+00 -1.861962e+01 4.052199e+00 -2.002921e+01 2.735127e+00 -2.095563e+01 1.632601e+00 -2.133298e+01 2.081421e-01 -2.072852e+01 -1.698917e+00 -1.948816e+01 -3.645759e+00 -1.800879e+01 -5.511395e+00 -1.638761e+01 -7.607480e+00 -1.469589e+01 -9.025958e+00 -1.423725e+01 -8.664320e+00 -1.588598e+01 -6.578063e+00 -1.837594e+01 -4.323732e+00 -2.060887e+01 -2.542010e+00 -2.195404e+01 -2.027268e+00 -2.183421e+01 -2.526749e+00 -2.101688e+01 -3.550067e+00 -1.960879e+01 -5.115139e+00 -1.774033e+01 -6.718027e+00 -1.601865e+01 -7.830544e+00 -1.481956e+01 -8.171835e+00 -1.426542e+01 -7.451823e+00 -1.479879e+01 -5.414517e+00 -1.619136e+01 -2.704477e+00 -1.792184e+01 4.501295e-01 -1.958587e+01 3.316453e+00 -2.043200e+01 5.711503e+00 -2.067582e+01 8.959799e+00 
-3.954122e-01 6.794399e-01 -1.006456e+00 -8.839934e-01 -2.866784e+01 8.305808e-02 5.239875e-01 -5.278810e-02 -8.233544e-02 -4.325954e-02 -3.022949e-01 -2.932723e-02 -3.843925e-01 -1.927902e-02 -3.998362e-01 -1.785456e-02 -3.775287e-01 -2.796553e-02 -3.431756e-01 -4.736096e-02 -3.099005e-01 -7.100181e-02 -2.851328e-01 -8.574141e-02 -2.679866e-01 -8.993275e-02 -2.575293e-01 -8.857538e-02 -2.514585e-01 -9.435840e-02 -2.477625e-01 -1.036946e-01 -2.417396e-01 -1.054762e-01 -2.383993e-01 -9.804275e-02 -2.442074e-01 -8.341412e-02 -2.627391e-01 -6.998184e-02 -2.883959e-01 -5.284514e-02 -3.086158e-01 -3.645223e-02 -3.160749e-01 -2.940392e-02 -3.083092e-01 -3.577949e-02 -2.857037e-01 -5.501429e-02 -2.519962e-01 -8.338183e-02 -2.109416e-01 -1.103958e-01 -1.678208e-01 -1.215537e-01 -1.282579e-01 -1.004726e-01 -1.010918e-01 -4.328281e-02 -1.020662e-01 2.130942e-02 -1.881419e-01 3.282033e-01 
-2.368524e-01 -1.812987e-02 -7.077114e-01 -8.757754e-01 -3.523135e+01 -3.514040e-01 6.638486e-01 -1.957147e-01 3.827641e-01 -1.017243e-01 2.040911e-01 -5.935995e-02 1.124120e-01 -3.486477e-02 6.514622e-02 -2.266644e-02 3.936340e-02 -2.187536e-02 2.060922e-02 -1.906533e-02 8.864878e-03 -1.686488e-02 5.376634e-03 -1.778121e-02 1.807108e-04 -1.502006e-02 -1.881541e-03 -1.144418e-02 1.888587e-03 -7.312495e-03 -3.681856e-04 -3.884098e-03 -2.453702e-03 -6.038133e-03 -6.417038e-03 -4.970396e-03 -9.257660e-03 -7.306785e-04 -5.963518e-03 -7.336293e-04 -6.280739e-03 4.377962e-03 -5.315022e-03 7.533719e-03 -2.133460e-03 1.075344e-02 -2.194585e-03 1.423303e-02 -2.328371e-04 1.335024e-02 -1.108685e-03 1.634768e-02 -8.278460e-03 2.296143e-02 -2.149968e-02 3.022190e-02 -4.329661e-02 3.685407e-02 -7.751027e-02 4.398668e-02 -1.361045e-01 5.792003e-02 -2.383042e-01 3.446386e-01 
-3.303452e-01 6.421871e-02 -6.450320e-01 -1.114171e+00 -4.240353e+01 -5.149139e-01 5.622934e-01 -1.602730e-01 3.942582e-01 -1.065327e-01 2.247868e-01 -6.906127e-02 1.349215e-01 -4.122209e-02 8.885293e-02 -2.637554e-02 6.644057e-02 -2.581982e-02 4.272703e-02 -2.256077e-02 2.509216e-02 -2.051229e-02 1.754915e-02 -2.255169e-02 4.189400e-03 -2.001759e-02 -2.595793e-03 -1.881612e-02 -2.398007e-03 -1.474728e-02 -6.321783e-03 -9.982792e-03 -6.363045e-03 -1.264464e-02 -9.903000e-03 -8.486540e-03 -1.101104e-02 -1.281154e-03 -3.385752e-03 7.674979e-04 -3.101185e-03 8.853707e-03 -4.163689e-04 1.515983e-02 6.241807e-03 2.174631e-02 7.815968e-03 2.818585e-02 1.149506e-02 2.606224e-02 8.317154e-03 2.767543e-02 -4.437254e-03 3.257331e-02 -2.613301e-02 3.788733e-02 -5.691793e-02 4.479153e-02 -9.853466e-02 5.916314e-02 -1.581159e-01 9.873729e-02 -2.561020e-01 2.207984e-01 
-2.517926e-01 1.277428e-01 -3.671207e-01 -1.047309e+00 -4.607298e+01 -5.205994e-01 3.101933e-01 -2.117216e-01 3.202111e-01 -1.417226e-01 2.080804e-01 -9.405687e-02 1.232309e-01 -6.094041e-02 7.164886e-02 -4.289942e-02 5.397371e-02 -4.980550e-02 3.097958e-02 -3.821953e-02 1.513211e-02 -2.470963e-02 2.255886e-02 -2.815890e-02 7.210723e-03 -1.877574e-02 -3.166839e-04 -1.753537e-02 7.358986e-03 -1.222164e-02 -1.272422e-03 -6.872658e-04 1.520635e-03 -1.067088e-02 -2.590640e-03 -2.992414e-03 -8.931332e-03 8.580029e-03 5.099059e-03 1.000556e-03 -4.934245e-03 9.466599e-03 -1.055367e-02 1.169416e-02 -7.872080e-04 1.590181e-02 -6.975985e-03 2.644683e-02 -2.977367e-04 1.428924e-02 3.193362e-03 1.861198e-02 -6.456040e-03 3.413406e-02 -2.379008e-02 5.064374e-02 -4.817016e-02 6.735532e-02 -8.308032e-02 8.923571e-02 -1.354390e-01 1.282745e-01 -2.069703e-01 1.997148e-01 
-2.549262e-01 1.490867e-01 -2.729215e-01 -1.134076e+00 -5.034356e+01 -6.467606e-01 1.775228e-01 -1.927056e-01 2.708783e-01 -1.327108e-01 1.879540e-01 -9.133732e-02 1.162488e-01 -5.926888e-02 7.348484e-02 -4.403764e-02 7.377141e-02 -5.987648e-02 4.149287e-02 -4.070422e-02 2.030230e-02 -2.765714e-02 3.592422e-02 -3.162147e-02 7.898033e-03 -1.956334e-02 -4.142168e-03 -2.671868e-02 4.851385e-03 -1.778528e-02 -8.972634e-03 -1.773792e-03 -8.749491e-04 -1.933851e-02 -7.416470e-03 -6.098560e-03 -1.538050e-02 9.342572e-03 9.702586e-03 7.198632e-04 -4.682514e-03 1.482523e-02 -1.174310e-02 1.518398e-02 4.141287e-03 2.328186e-02 -4.575385e-03 3.914171e-02 5.416194e-03 1.943097e-02 9.774023e-03 2.284115e-02 -3.306341e-03 3.798697e-02 -2.619099e-02 5.325253e-02 -5.553938e-02 6.947966e-02 -9.267526e-02 9.228231e-02 -1.420345e-01 1.272220e-01 -2.055770e-01 1.645689e-01 
-1.594246e-01 1.645736e-01 -7.238200e-02 -1.115203e+00 -5.203531e+01 -5.917914e-01 1.635834e-02 -2.160324e-01 1.708686e-01 -1.573085e-01 1.390247e-01 -1.091770e-01 8.295349e-02 -6.623067e-02 3.574491e-02 -3.987820e-02 6.522232e-02 -9.942453e-02 3.510554e-02 -5.506871e-02 -2.808859e-03 -2.155979e-02 5.652010e-02 -4.947616e-02 6.912052e-03 -1.115714e-02 -1.899731e-02 -3.449784e-02 2.679918e-02 -2.067670e-02 -1.243185e-02 2.337684e-02 4.166993e-03 -3.594165e-02 3.593993e-03 -2.137277e-03 -2.919105e-02 3.116554e-02 3.325288e-02 -1.239646e-02 -6.853052e-03 2.366304e-02 -3.632790e-02 8.097527e-03 1.390156e-02 1.752411e-02 -2.392091e-02 6.213374e-02 -7.741736e-03 -6.061262e-03 2.049706e-02 7.384099e-03 4.379776e-03 4.078549e-02 -1.959222e-02 6.593102e-02 -4.396789e-02 8.705132e-02 -7.157365e-02 1.111921e-01 -1.056336e-01 1.420421e-01 -1.417785e-01 1.715807e-01 
-1.376790e-01 1.659436e-01 4.524232e-03 -1.128917e+00 -5.438365e+01 -6.990428e-01 -8.230103e-02 -2.162767e-01 1.200427e-01 -1.494232e-01 1.064546e-01 -9.730591e-02 5.624903e-02 -4.889632e-02 9.235568e-03 -3.165035e-02 1.061336e-01 -1.359212e-01 3.763302e-02 -4.458166e-02 -2.051585e-02 -3.016953e-02 9.497811e-02 -5.311436e-02 1.565002e-03 7.253857e-03 -3.201123e-02 -6.130084e-02 3.685356e-02 -2.212054e-02 -2.833479e-02 3.984076e-02 1.016963e-02 -5.960310e-02 1.636218e-03 4.962204e-04 -5.047803e-02 3.470771e-02 5.672549e-02 -1.860761e-02 -7.351096e-03 4.017047e-02 -5.131575e-02 -6.629827e-05 2.808532e-02 2.168407e-02 -2.976045e-02 8.775775e-02 -7.901409e-03 -1.404203e-02 3.418237e-02 4.677481e-03 1.312397e-02 4.213073e-02 -1.862243e-02 6.710335e-02 -4.713567e-02 8.680707e-02 -7.452001e-02 1.091804e-01 -1.036355e-01 1.361252e-01 -1.305371e-01 1.606405e-01 
-5.297167e-02 1.688210e-01 1.434584e-01 -1.130431e+00 -5.463139e+01 -6.088924e-01 -1.710426e-01 -2.273868e-01 3.896926e-02 -1.686334e-01 5.905116e-02 -1.114712e-01 1.909289e-02 -3.323151e-02 -7.870339e-02 4.992809e-02 1.069024e-01 -2.742495e-01 7.047955e-02 -3.347449e-02 -1.122227e-01 1.241643e-02 1.827489e-01 -1.306089e-01 3.165424e-03 8.132241e-02 -1.266700e-01 -1.205210e-01 1.327207e-01 -4.145697e-02 -6.167565e-02 1.542702e-01 -6.058781e-03 -1.702541e-01 5.825184e-02 2.129947e-02 -1.366419e-01 1.050909e-01 1.439388e-01 -1.004596e-01 2.622315e-03 1.107511e-01 -1.598035e-01 -4.897235e-02 1.188386e-01 5.665203e-04 -7.487391e-02 2.198358e-01 -6.266226e-02 -1.284741e-01 9.850251e-02 -1.998198e-02 3.156963e-02 5.554041e-02 -1.475909e-02 8.387583e-02 -3.784628e-02 1.017267e-01 -5.292590e-02 1.218328e-01 -6.550170e-02 1.453982e-01 -7.057087e-02 1.670132e-01 
-2.964679e-02 1.688343e-01 1.976550e-01 -1.116073e+00 -5.557472e+01 -6.883285e-01 -2.329098e-01 -2.406929e-01 7.611073e-03 -1.711187e-01 3.567335e-02 -9.704833e-02 -2.035179e-02 2.814081e-02 -2.063342e-01 1.292379e-01 2.506415e-01 -4.301609e-01 6.910872e-02 7.975133e-02 -2.370016e-01 -5.709552e-02 3.546400e-01 -1.425270e-01 -3.011076e-02 2.126655e-01 -2.044735e-01 -2.517167e-01 2.113290e-01 -1.693285e-02 -1.290034e-01 2.565776e-01 1.685486e-02 -2.713838e-01 8.455400e-02 6.841758e-02 -2.378287e-01 9.156517e-02 2.611280e-01 -1.345440e-01 7.140837e-03 2.048888e-01 -2.575211e-01 -1.153056e-01 1.972919e-01 7.655805e-04 -1.069960e-01 3.274526e-01 -1.067349e-01 -1.752244e-01 1.531486e-01 -3.019655e-02 5.016566e-02 5.976439e-02 -1.670981e-02 8.702854e-02 -4.296656e-02 1.015589e-01 -5.479498e-02 1.188886e-01 -6.117458e-02 1.402629e-01 -5.780551e-02 1.620785e-01 
3.588559e-02 1.656494e-01 2.956267e-01 -1.130923e+00 -5.471418e+01 -5.721388e-01 -2.734806e-01 -2.494267e-01 -4.667006e-02 -2.025784e-01 1.565608e-02 -1.450718e-01 -1.757616e-03 6.013888e-02 -4.397599e-01 7.334310e-01 2.825037e-01 -9.812809e-01 3.735634e-01 3.263683e-01 -6.818727e-01 2.859982e-01 7.015222e-01 -5.534076e-01 7.732407e-02 7.010861e-01 -6.787356e-01 -5.623561e-01 6.718323e-01 -8.470748e-02 -2.824309e-01 8.790138e-01 -1.414896e-01 -9.124720e-01 4.571488e-01 2.658755e-01 -6.864464e-01 3.945949e-01 5.874181e-01 -6.126723e-01 1.653744e-01 6.887183e-01 -7.938946e-01 -4.513595e-01 6.772576e-01 -1.041513e-01 -2.424536e-01 1.025363e+00 -4.268858e-01 -8.141053e-01 4.836496e-01 2.763339e-02 4.055826e-02 1.165227e-01 -4.330441e-02 1.104666e-01 -4.485864e-02 1.130804e-01 -3.700404e-02 1.262822e-01 -2.719468e-02 1.449154e-01 -7.860123e-03 1.642984e-01 
5.303928e-02 1.641394e-01 3.301747e-01 -1.106562e+00 -5.456273e+01 -6.221115e-01 -3.028488e-01 -2.724843e-01 -4.895531e-02 -2.356697e-01 3.660040e-02 -1.885109e-01 1.925354e-02 1.916717e-01 -1.040237e+00 1.594357e+00 3.832267e+00 1.674901e+00 5.284974e-01 8.095556e-01 -7.949276e-01 3.091467e+00 2.713513e+00 2.673019e-01 -1.224798e-01 4.229923e-01 1.159955e+00 1.545859e+00 1.375492e+00 3.228345e-01 -6.723358e-01 1.553394e+00 2.286412e+00 -1.338896e-01 6.894467e-01 3.994963e-01 -6.376535e-01 2.431998e+00 1.958142e+00 -4.709233e-01 1.777246e-01 3.832692e-01 8.185781e-01 6.169584e-01 1.188337e+00 -1.906570e-02 -4.381394e-01 1.559041e+00 1.371611e+00 -1.404571e+00 7.317763e-01 6.641765e-02 3.929870e-02 1.491107e-01 -7.428560e-02 1.216044e-01 -6.033930e-02 1.144229e-01 -4.081406e-02 1.232949e-01 -2.328979e-02 1.401433e-01 2.601477e-03 1.602827e-01 
1.001946e-01 1.557571e-01 3.986252e-01 -1.121296e+00 -5.282648e+01 -4.882773e-01 -3.144386e-01 -2.698480e-01 -9.076859e-02 -2.840159e-01 3.357528e-02 -4.203028e-01 2.679998e-01 -5.312777e-01 -6.337078e-01 2.821642e+00 3.032231e+01 2.884525e+01 3.755196e+00 -1.924800e-01 2.693074e+00 2.277220e+01 2.857998e+01 1.276510e+01 1.095536e+00 -4.685311e+00 1.803659e+01 3.260662e+01 1.334130e+01 3.919860e+00 -9.077012e-01 3.488197e+00 2.964228e+01 2.714749e+01 3.985595e+00 -6.706663e-01 2.998316e+00 2.278924e+01 2.862514e+01 1.229191e+01 1.531035e+00 -4.829261e+00 1.754199e+01 3.136388e+01 1.325529e+01 3.568011e+00 -6.574709e-01 2.836646e+00 2.875589e+01 2.680272e+01 3.847041e+00 1.419622e+00 -5.535261e-01 1.952216e-01 -1.903044e-01 1.212515e-01 -6.688994e-02 1.144605e-01 -2.131916e-02 1.242755e-01 7.445675e-03 1.401631e-01 4.227803e-02 1.582443e-01 
1.099290e-01 1.502649e-01 4.163391e-01 -1.083045e+00 -5.178382e+01 -5.149428e-01 -3.252786e-01 -2.809927e-01 -7.612498e-02 -3.325882e-01 1.292617e-01 -6.661937e-01 7.151554e-01 -1.749798e+00 1.333795e+00 4.588437e+00 3.650667e+01 3.182854e+01 3.245529e+00 -2.471318e+00 6.777937e+00 2.989160e+01 3.518420e+01 1.328127e+01 1.289036e+00 -4.944283e+00 2.687273e+01 4.295336e+01 1.470750e+01 3.014371e+00 -6.567571e-02 7.229184e+00 4.172871e+01 3.568397e+01 2.257968e+00 -1.717138e+00 7.176865e+00 3.350929e+01 3.844817e+01 1.492532e+01 6.334834e-01 -4.683197e+00 2.810448e+01 4.511274e+01 1.507900e+01 3.803479e+00 -6.704579e-01 7.598745e+00 4.471368e+01 3.985260e+01 1.263164e+00 1.965539e+00 -9.790953e-01 2.985334e-01 -2.822619e-01 1.313174e-01 -8.203870e-02 1.111752e-01 -2.005474e-02 1.183388e-01 1.293590e-02 1.336563e-01 5.008897e-02 1.525250e-01 
1.419173e-01 1.375116e-01 4.597728e-01 -1.070081e+00 -4.936817e+01 -3.856201e-01 -3.210060e-01 -2.217560e-01 -1.236335e-01 -1.937570e-01 -3.832337e-03 -2.060998e-01 1.409218e-01 -3.041202e-01 1.105804e+00 -3.853277e+00 -2.033213e+01 -1.780227e+01 6.264342e-01 -7.743191e-01 -2.447303e+00 -1.450512e+01 -1.577730e+01 -6.709303e+00 6.741732e-01 1.069554e+00 -1.140715e+01 -1.767675e+01 -5.155494e+00 -1.541476e+00 2.839010e-01 -3.447623e+00 -1.612981e+01 -1.316253e+01 -3.179549e-01 6.382380e-01 -3.057614e+00 -1.242963e+01 -1.336272e+01 -4.627405e+00 -3.936359e-01 1.615189e+00 -9.912624e+00 -1.464688e+01 -4.701316e+00 -2.713196e-01 -6.827113e-01 -2.368033e+00 -1.316453e+01 -1.068189e+01 -8.026658e-01 7.071947e-02 -1.280162e-02 1.629672e-01 -1.330509e-04 1.203428e-01 5.726028e-03 1.094534e-01 2.040494e-02 1.160699e-01 4.381488e-02 1.299556e-01 8.090208e-02 1.466767e-01 
1.450676e-01 1.286015e-01 4.614541e-01 -1.000640e+00 -4.759159e+01 -4.022829e-01 -3.380603e-01 -1.835681e-01 -1.731787e-01 -7.303141e-02 -1.837659e-01 2.138893e-01 -5.519729e-01 8.608419e-01 -3.524978e-01 -3.698972e+00 -3.984448e+01 -3.673059e+01 -4.440270e+00 1.226166e+00 -5.374621e+00 -3.094900e+01 -3.821559e+01 -1.610832e+01 -1.386127e+00 5.822893e+00 -2.688799e+01 -4.542776e+01 -1.675025e+01 -4.253115e+00 5.398383e-01 -6.227700e+00 -4.287602e+01 -3.811449e+01 -3.602401e+00 1.570665e+00 -6.350842e+00 -3.380991e+01 -4.023775e+01 -1.645473e+01 -1.290539e+00 5.966679e+00 -2.770190e+01 -4.643376e+01 -1.683748e+01 -4.182019e+00 4.802198e-01 -6.050015e+00 -4.433365e+01 -4.093726e+01 -2.710316e+00 -1.637660e+00 9.062922e-01 -3.770681e-02 2.296298e-01 7.008902e-02 6.769644e-02 9.059683e-02 4.065300e-02 1.045842e-01 5.259855e-02 1.205932e-01 8.598292e-02 1.384104e-01 
1.639513e-01 1.146859e-01 4.817197e-01 -9.733567e-01 -4.469538e+01 -2.926222e-01 -3.274287e-01 -1.572016e-01 -2.071194e-01 -7.334687e-02 -2.159766e-01 1.014251e-01 -4.075067e-01 4.486570e-01 -1.634996e-01 -5.778910e-01 -1.178569e+01 -9.501763e+00 -3.204648e+00 4.223340e-01 -7.739949e-01 -9.535646e+00 -1.276454e+01 -4.880005e+00 -1.205103e+00 2.293939e+00 -8.007551e+00 -1.438629e+01 -7.077294e+00 -1.882400e+00 6.468105e-01 -1.869379e+00 -1.448343e+01 -1.238754e+01 -2.633307e+00 -8.666457e-03 -7.328426e-01 -1.178317e+01 -1.480006e+01 -6.120248e+00 -7.693712e-01 2.282084e+00 -8.834812e+00 -1.633206e+01 -7.470920e+00 -2.516924e+00 1.167956e+00 -2.120316e+00 -1.609804e+01 -1.481587e+01 -2.269207e+00 -1.296491e+00 3.928835e-01 -1.493473e-01 1.602882e-01 1.633833e-02 7.543055e-02 6.783224e-02 5.934281e-02 9.297767e-02 7.257088e-02 1.119012e-01 1.059925e-01 1.291742e-01 
1.602551e-01 1.042307e-01 4.694338e-01 -9.041551e-01 -4.235845e+01 -2.977406e-01 -3.283947e-01 -1.409415e-01 -2.172121e-01 -6.788752e-02 -2.175071e-01 5.817668e-03 -2.526729e-01 -2.487815e-02 1.132545e-01 -1.153202e+00 1.883585e-01 1.750496e+00 -8.645780e-01 -1.743298e-01 6.619040e-01 -7.185182e-01 -5.627535e-01 1.052305e+00 -2.814799e-01 -7.734677e-01 5.643089e-01 7.123266e-01 -8.225851e-01 1.516585e-01 3.763063e-01 -1.262442e+00 -1.804860e-01 1.413915e+00 -5.986743e-01 -4.149291e-01 8.761911e-01 -9.327487e-01 -8.014453e-01 8.523843e-01 -7.635396e-02 -8.567059e-01 4.422820e-01 4.917113e-01 -8.072462e-01 -9.178144e-02 6.779482e-01 -1.508249e+00 -3.816536e-01 1.326833e+00 -4.340381e-01 -1.991529e-01 7.621251e-02 -1.099087e-01 1.075769e-01 -9.720322e-04 7.586313e-02 5.178823e-02 6.446468e-02 8.046932e-02 7.530720e-02 1.011984e-01 1.057098e-01 1.192921e-01 
1.679684e-01 9.092067e-02 4.682109e-01 -8.587253e-01 -3.911892e+01 -2.182594e-01 -3.042733e-01 -1.275325e-01 -2.146659e-01 -7.572640e-02 -1.933361e-01 -3.622068e-02 -1.710376e-01 -9.066626e-02 8.085252e-02 -6.692456e-01 3.043689e-01 4.384431e-01 -4.143862e-01 -8.760295e-02 3.415059e-01 -3.354025e-01 -3.459101e-01 3.579088e-01 -1.331720e-01 -4.267139e-01 5.227735e-01 2.710462e-01 -4.522614e-01 7.890004e-02 1.518442e-01 -5.838515e-01 1.297166e-01 5.530039e-01 -2.783408e-01 -1.640492e-01 4.553799e-01 -1.963029e-01 -4.419905e-01 3.640052e-01 -5.123793e-02 -4.811178e-01 5.008354e-01 4.037842e-01 -4.271858e-01 1.763713e-02 2.831587e-01 -6.270087e-01 6.091303e-02 6.914225e-01 -2.642376e-01 1.388933e-02 2.910314e-02 -4.229369e-02 7.283361e-02 5.484234e-03 6.811303e-02 4.502979e-02 6.903329e-02 7.186519e-02 8.421597e-02 9.201456e-02 1.152675e-01 1.087741e-01 
1.579330e-01 8.106747e-02 4.433191e-01 -7.909880e-01 -3.634230e+01 -2.175683e-01 -2.884508e-01 -1.227110e-01 -1.976527e-01 -8.363064e-02 -1.620383e-01 -7.188324e-02 -1.039006e-01 -1.262318e-01 6.895354e-02 -3.244273e-01 8.196491e-02 1.561683e-01 -1.591506e-01 -3.766884e-02 1.362958e-01 -1.772068e-01 -1.962126e-01 1.181863e-01 -2.985266e-02 -1.567382e-01 2.043414e-01 9.873210e-02 -1.961039e-01 2.096871e-02 8.033686e-02 -2.361194e-01 1.255219e-02 2.172330e-01 -8.545325e-02 -5.414821e-02 2.006083e-01 -9.200382e-02 -2.287308e-01 1.307540e-01 1.309594e-02 -1.695881e-01 2.016259e-01 1.719634e-01 -1.700714e-01 3.678020e-03 1.560142e-01 -2.317678e-01 -2.907850e-02 3.227558e-01 -1.210079e-01 7.445625e-02 -2.857122e-03 8.063076e-04 4.569605e-02 1.438042e-02 5.696270e-02 4.093060e-02 6.415151e-02 6.378963e-02 7.996939e-02 8.268657e-02 1.090120e-01 9.894232e-02 
1.564687e-01 6.956896e-02 4.237681e-01 -7.281419e-01 -3.284084e+01 -1.631227e-01 -2.579382e-01 -1.125578e-01 -1.821000e-01 -8.367169e-02 -1.423025e-01 -7.642722e-02 -8.910971e-02 -1.093066e-01 1.516733e-02 -1.956243e-01 1.767670e-02 3.987235e-02 -7.829259e-02 -3.494312e-02 4.897520e-02 -1.112761e-01 -9.863293e-02 4.335270e-02 -1.730610e-02 -7.523508e-02 8.544952e-02 2.995412e-02 -8.852554e-02 9.749303e-03 3.340228e-02 -1.154362e-01 2.992914e-03 9.684141e-02 -3.453671e-02 -1.573047e-02 8.869709e-02 -6.035264e-02 -1.014327e-01 6.612872e-02 5.896212e-03 -6.501037e-02 9.287087e-02 7.272386e-02 -6.949064e-02 1.953846e-02 6.948906e-02 -9.548320e-02 -1.455449e-02 1.700122e-01 -6.233695e-02 7.363056e-02 2.452279e-03 2.280828e-02 3.674654e-02 2.458890e-02 5.095448e-02 4.133102e-02 6.272459e-02 5.896770e-02 8.098266e-02 7.481809e-02 1.100215e-01 8.863886e-02 
1.413202e-01 6.120071e-02 3.880754e-01 -6.580883e-01 -2.970640e+01 -1.586144e-01 -2.333724e-01 -1.081529e-01 -1.583827e-01 -8.384650e-02 -1.176638e-01 -7.842419e-02 -6.939911e-02 -9.366481e-02 -5.849850e-03 -1.191195e-01 -8.364164e-03 -1.832966e-02 -3.645393e-02 -3.322572e-02 9.985057e-03 -6.494367e-02 -5.241006e-02 4.613789e-04 -7.629286e-03 -3.457978e-02 2.916227e-02 1.847689e-03 -3.524335e-02 -3.662025e-03 1.437229e-02 -4.849648e-02 -6.222284e-03 3.249647e-02 -7.348925e-03 -5.600773e-03 3.619358e-02 -2.555470e-02 -4.715061e-02 2.305811e-02 8.356799e-03 -1.809035e-02 3.728424e-02 3.388115e-02 -2.006272e-02 1.385124e-02 3.498036e-02 -2.150832e-02 -1.931703e-02 8.962263e-02 -2.865200e-02 5.904645e-02 2.319713e-03 3.111278e-02 2.641397e-02 2.951812e-02 4.097132e-02 4.005517e-02 5.404981e-02 5.353763e-02 7.203611e-02 6.698636e-02 9.895490e-02 7.943967e-02 
1.325794e-01 5.154212e-02 3.546577e-01 -5.847326e-01 -2.600214e+01 -1.187947e-01 -2.005506e-01 -9.821727e-02 -1.390432e-01 -7.858113e-02 -1.027433e-01 -7.010137e-02 -6.903738e-02 -6.938323e-02 -3.668834e-02 -7.210475e-02 -1.877649e-02 -5.039238e-02 -2.074163e-02 -3.718008e-02 -1.289383e-02 -3.720804e-02 -1.522570e-02 -2.040956e-02 -8.521631e-03 -1.857534e-02 -1.309682e-03 -1.179586e-02 -5.604464e-03 -9.431346e-03 6.877205e-05 -1.350996e-02 -4.326650e-03 -2.742939e-04 1.190406e-03 -2.393150e-03 5.646626e-03 -2.501551e-03 -7.516887e-03 3.428328e-03 3.357253e-03 1.824116e-03 5.521183e-03 1.623663e-02 3.360836e-03 1.372803e-02 8.166017e-03 1.656281e-02 -1.253881e-02 4.094728e-02 -1.757612e-03 3.779976e-02 1.211688e-02 3.277430e-02 2.426152e-02 3.418809e-02 3.568765e-02 4.077538e-02 4.919580e-02 4.989799e-02 6.760200e-02 5.988673e-02 9.348138e-02 6.956674e-02 
1.137681e-01 4.422656e-02 3.108565e-01 -5.124236e-01 -2.257669e+01 -1.093058e-01 -1.712217e-01 -9.153602e-02 -1.141817e-01 -7.344726e-02 -8.275753e-02 -6.170474e-02 -6.059400e-02 -4.901788e-02 -4.938090e-02 -3.947178e-02 -1.413092e-02 -6.945372e-02 -9.574133e-03 -3.297360e-02 -2.662349e-02 -2.031039e-02 1.156906e-02 -2.976717e-02 -8.102535e-03 -4.512656e-03 -1.852619e-02 -2.172312e-02 1.326764e-02 -1.173453e-02 -8.598484e-03 9.783709e-03 -2.942199e-03 -2.140652e-02 6.685647e-03 -7.894744e-04 -1.376858e-02 1.232985e-02 1.585247e-02 -9.455884e-03 1.964328e-03 1.417130e-02 -1.519880e-02 5.471600e-03 1.818857e-02 1.047222e-02 -6.112270e-03 4.020114e-02 -1.377812e-02 1.034020e-02 1.370649e-02 2.120604e-02 1.546181e-02 3.078331e-02 1.842299e-02 3.467502e-02 2.646022e-02 3.883179e-02 3.885171e-02 4.495227e-02 5.592043e-02 5.256589e-02 7.919495e-02 6.062016e-02 
9.952703e-02 3.553058e-02 2.684160e-01 -4.367132e-01 -1.872265e+01 -7.455575e-02 -1.361829e-01 -8.176792e-02 -9.154386e-02 -6.907290e-02 -6.335074e-02 -5.488592e-02 -5.289778e-02 -2.150684e-02 -8.212090e-02 3.299737e-02 -2.959308e-02 -1.367874e-01 2.879134e-02 -2.593743e-02 -6.846456e-02 2.334834e-02 6.126355e-02 -7.359442e-02 -2.110461e-03 3.401911e-02 -7.430416e-02 -4.777644e-02 6.810938e-02 -2.455681e-02 -2.700481e-02 7.347721e-02 -1.715877e-02 -8.362988e-02 3.679141e-02 7.830181e-03 -6.251111e-02 5.551183e-02 6.434889e-02 -5.587648e-02 6.639794e-03 5.228219e-02 -7.504757e-02 -2.075688e-02 6.981592e-02 -4.009441e-04 -3.338000e-02 1.126385e-01 -3.702701e-02 -6.420886e-02 5.856521e-02 -2.696543e-04 2.524782e-02 3.466352e-02 1.273000e-02 3.900086e-02 1.804978e-02 3.867981e-02 3.082999e-02 4.073249e-02 4.768267e-02 4.519133e-02 6.910381e-02 5.072006e-02 
7.851621e-02 2.822263e-02 2.196657e-01 -3.642679e-01 -1.506741e+01 -5.788554e-02 -1.030019e-01 -7.304949e-02 -6.519693e-02 -6.393710e-02 -4.082644e-02 -4.841292e-02 -4.084044e-02 1.038688e-03 -1.068925e-01 9.588571e-02 -2.454745e-02 -1.976786e-01 5.909156e-02 1.925600e-03 -1.120252e-01 3.740814e-02 1.173644e-01 -9.759310e-02 9.062508e-04 8.298759e-02 -1.225089e-01 -8.859628e-02 1.163879e-01 -2.312648e-02 -4.748691e-02 1.287015e-01 -2.463857e-02 -1.372227e-01 6.163790e-02 2.622559e-02 -1.110882e-01 6.962336e-02 1.138409e-01 -8.565870e-02 1.197411e-02 9.616700e-02 -1.303104e-01 -5.889207e-02 1.155435e-01 -3.527176e-03 -5.680912e-02 1.724898e-01 -5.962467e-02 -1.249475e-01 9.265481e-02 -8.655967e-03 2.736096e-02 3.721324e-02 3.714987e-03 3.947959e-02 7.121869e-03 3.575114e-02 1.939350e-02 3.502978e-02 3.476129e-02 3.737110e-02 5.316427e-02 4.132815e-02 
6.051608e-02 1.942771e-02 1.724413e-01 -2.908633e-01 -1.111469e+01 -2.168135e-02 -6.615095e-02 -6.265819e-02 -4.037000e-02 -6.727149e-02 -9.482180e-03 -6.721794e-02 4.741467e-03 7.280179e-03 -1.549904e-01 4.114329e-01 -1.476689e-01 -5.537374e-01 2.982368e-01 1.087217e-01 -3.255324e-01 2.056424e-01 2.669344e-01 -3.389501e-01 9.055736e-02 3.350417e-01 -4.007482e-01 -2.498214e-01 3.753600e-01 -7.231693e-02 -1.050385e-01 4.448075e-01 -1.438889e-01 -4.642182e-01 2.697115e-01 1.261121e-01 -3.371288e-01 2.339881e-01 2.729799e-01 -3.336617e-01 9.932996e-02 3.463330e-01 -4.123704e-01 -2.255056e-01 3.802654e-01 -5.246802e-02 -1.247127e-01 5.341951e-01 -2.210673e-01 -4.742157e-01 2.862141e-01 2.948620e-02 1.277374e-02 6.794126e-02 -2.201254e-02 4.606555e-02 -7.911753e-03 3.303272e-02 9.234253e-03 2.865922e-02 2.467448e-02 2.878790e-02 4.036368e-02 3.088062e-02 
3.874878e-02 1.121578e-02 1.217284e-01 -2.193826e-01 -7.287628e+00 4.176079e-03 -3.050693e-02 -5.075721e-02 -1.380163e-02 -6.520310e-02 2.054904e-02 -8.040256e-02 4.604046e-02 -1.403063e-03 -2.116598e-01 4.730241e-01 7.321956e-01 1.785277e-03 5.356399e-01 1.991633e-01 -4.068397e-01 8.886370e-01 1.064265e+00 -9.272859e-02 1.455076e-01 2.452728e-01 5.813273e-02 5.478492e-01 8.395651e-01 6.513441e-02 -2.000095e-01 5.966420e-01 7.809116e-01 8.834876e-02 4.796316e-01 1.938154e-01 -4.040485e-01 1.005011e+00 1.152652e+00 -6.869074e-02 1.552779e-01 2.398995e-01 9.513223e-02 6.311518e-01 8.743282e-01 9.456539e-02 -2.299053e-01 6.829521e-01 7.690256e-01 9.659325e-02 4.826071e-01 1.329416e-01 -1.727833e-02 8.784227e-02 -4.471886e-02 4.584927e-02 -2.120352e-02 2.727621e-02 -1.672298e-03 2.088867e-02 1.229934e-02 1.965727e-02 2.435326e-02 2.051568e-02 
1.871538e-02 1.812269e-03 7.246687e-02 -1.451127e-01 -3.290181e+00 4.298486e-02 4.446912e-03 -3.183248e-02 3.246661e-03 -6.853259e-02 4.780662e-02 -1.762553e-01 1.884642e-01 -3.600879e-01 4.100709e-02 -9.055419e-01 1.247286e+01 1.465032e+01 3.252519e+00 1.467769e-01 3.692099e-01 8.425266e+00 1.436688e+01 7.786526e+00 1.066392e+00 -2.392668e+00 6.772718e+00 1.545564e+01 8.197717e+00 2.430195e+00 -2.661333e-01 2.195244e-01 1.365524e+01 1.482401e+01 2.855483e+00 -3.699430e-02 5.786730e-01 9.488010e+00 1.522242e+01 7.816049e+00 1.013309e+00 -2.441161e+00 7.056427e+00 1.580950e+01 8.292732e+00 2.468784e+00 -2.883021e-01 -4.662636e-02 1.408652e+01 1.594279e+01 2.683054e+00 1.080095e+00 -3.455167e-01 1.097597e-01 -1.162767e-01 3.291834e-02 -3.459776e-02 1.597225e-02 -7.920253e-03 1.101367e-02 3.519899e-03 9.558763e-03 1.082738e-02 9.404830e-03 
-2.479331e-03 -7.442718e-03 2.209618e-02 -7.277426e-02 6.504404e-01 7.851581e-02 3.907659e-02 -1.117828e-02 2.082890e-02 -5.698724e-02 6.507887e-02 -2.008575e-01 2.583872e-01 -5.399717e-01 1.879834e-01 -7.443306e-01 1.797313e+01 2.061622e+01 3.543992e+00 -1.346219e-01 1.221535e+00 1.223612e+01 1.985620e+01 1.054799e+01 1.041777e+00 -3.085830e+00 1.034017e+01 2.171952e+01 1.050187e+01 2.907053e+00 -2.314183e-01 8.374798e-01 1.943262e+01 2.047077e+01 2.970271e+00 -3.897511e-01 1.591167e+00 1.352937e+01 2.068104e+01 1.031972e+01 9.539183e-01 -3.107683e+00 1.061981e+01 2.184762e+01 1.044456e+01 2.860306e+00 -2.330745e-01 4.919445e-01 1.991970e+01 2.180313e+01 2.637500e+00 1.218142e+00 -4.637196e-01 9.084602e-02 -1.388280e-01 1.408985e-02 -3.983959e-02 3.245127e-03 -1.370581e-02 4.584362e-04 -6.193023e-03 -9.114135e-04 -3.865971e-03 -1.847638e-03 
-2.323855e-02 -1.705593e-02 -2.798432e-02 9.661456e-03 4.622465e+00 1.140279e-01 7.012295e-02 3.278133e-02 2.014429e-02 3.589339e-02 -5.948396e-03 9.067931e-02 -9.069836e-02 2.500763e-01 -1.133836e-01 1.599455e-01 -6.145485e+00 -6.783361e+00 -1.105295e+00 1.929938e-01 -5.796712e-01 -4.366618e+00 -6.786021e+00 -3.414697e+00 -3.380961e-01 1.062521e+00 -3.824923e+00 -7.663346e+00 -3.548422e+00 -8.917327e-01 5.643084e-02 -4.480922e-01 -7.087154e+00 -7.213947e+00 -9.197546e-01 1.864653e-01 -6.996431e-01 -5.111885e+00 -7.488861e+00 -3.602086e+00 -2.617058e-01 1.064479e+00 -4.113977e+00 -8.141796e+00 -3.705288e+00 -9.926858e-01 1.206635e-01 -3.878909e-01 -7.679763e+00 -8.133316e+00 -8.141808e-01 -4.796956e-01 1.658719e-01 -4.963887e-02 4.518922e-02 -1.265774e-02 6.255515e-03 -8.879581e-03 -5.805663e-03 -9.749278e-03 -1.177764e-02 -1.136453e-02 -1.718467e-02 -1.314966e-02 