# vtk DataFile Version 2.0
Comment goes here
ASCII

DATASET STRUCTURED_POINTS
FIELD FieldData 1
TIME 1 1 double
0.06000000
DIMENSIONS    64   64   1

ORIGIN    0.000   0.000   0.000
SPACING   0.03125 0.03125   1.000

POINT_DATA   4096
SCALARS Omega double
LOOKUP_TABLE default

-2.894101e-02 -3.446912e-01 7.938147e-02 -4.856215e-01 6.768686e-02 -8.733680e-02 7.095668e-02 -2.866986e-01 1.024227e-01 -2.788769e-01 1.497432e-01 -2.386594e-01 1.830397e-01 -1.607869e-01 2.189063e-01 -9.083166e-02 2.570172e-01 -1.397475e-02 3.194561e-01 4.647004e-02 3.425412e-01 6.214464e-02 4.164819e-01 2.093401e-01 3.817860e-01 2.241850e-01 3.582141e-01 2.655567e-01 3.051640e-01 2.857198e-01 2.312794e-01 3.467704e-01 1.738765e-01 3.809133e-01 1.426685e-01 4.129506e-01 1.137702e-01 4.240282e-01 1.357340e-01 3.789030e-01 1.284271e-01 3.771453e-01 1.204309e-01 3.400581e-01 1.063267e-01 3.029258e-01 7.562311e-02 2.468969e-01 2.740020e-02 1.963418e-01 -2.017325e-02 1.623557e-01 -8.596470e-02 1.217763e-01 -1.416131e-01 8.636783e-02 -1.773908e-01 5.543857e-02 -2.074546e-01 4.035447e-02 -2.399881e-01 4.554493e-02 -2.994212e-01 1.044307e-01 
-9.218487e+00 -4.027972e+01 -1.075928e+01 -3.374753e+01 -1.565374e+01 -2.970549e+01 -2.129798e+01 -2.465127e+01 -2.930050e+01 -2.029127e+01 -3.535100e+01 -1.697086e+01 -3.936269e+01 -1.511071e+01 -4.163490e+01 -1.438940e+01 -4.290346e+01 -1.398896e+01 -4.415160e+01 -1.311250e+01 -4.612960e+01 -1.093578e+01 -4.965875e+01 -7.261330e+00 -5.471279e+01 -1.777432e+00 -6.092405e+01 4.288606e+00 -6.721302e+01 1.016224e+01 -7.287629e+01 1.528666e+01 -7.790171e+01 1.980725e+01 -8.231428e+01 2.359151e+01 -8.574706e+01 2.614339e+01 -8.741272e+01 2.678485e+01 -8.669679e+01 2.446834e+01 -8.288271e+01 1.964133e+01 -7.747972e+01 1.427848e+01 -7.167755e+01 8.715733e+00 -6.543076e+01 2.617339e+00 -5.839310e+01 -4.260112e+00 -5.048492e+01 -1.158302e+01 -4.225169e+01 -1.871631e+01 -3.480991e+01 -2.416990e+01 -2.905395e+01 -2.804349e+01 -2.399382e+01 -3.161153e+01 -1.893591e+01 -3.547873e+01 
-6.564606e+01 1.106261e+01 -4.704442e+01 7.659771e+00 -1.072532e+01 6.512728e+00 -4.928655e+01 8.057292e-01 -6.232433e+01 -1.498754e+00 -7.101462e+01 -2.951491e+00 -7.784413e+01 -3.601683e+00 -8.375932e+01 -3.637045e+00 -8.894162e+01 -3.623440e+00 -9.306337e+01 -3.898197e+00 -9.599973e+01 -4.691970e+00 -9.757557e+01 -6.484375e+00 -9.755595e+01 -9.222601e+00 -9.642666e+01 -1.212743e+01 -9.503437e+01 -1.490432e+01 -9.367498e+01 -1.730845e+01 -9.233154e+01 -1.958637e+01 -9.089611e+01 -2.167446e+01 -8.947059e+01 -2.345880e+01 -8.844426e+01 -2.426535e+01 -8.812752e+01 -2.362966e+01 -8.914922e+01 -2.157731e+01 -9.047486e+01 -1.960723e+01 -9.112985e+01 -1.771694e+01 -9.134226e+01 -1.555992e+01 -9.138055e+01 -1.286734e+01 -9.133571e+01 -9.789482e+00 -9.085322e+01 -6.529202e+00 -8.914311e+01 -4.238598e+00 -8.515094e+01 -2.703104e+00 -7.933148e+01 -1.055591e+00 -7.022132e+01 6.143154e-03 
-3.315055e+01 8.980884e+00 -2.558695e+01 1.143840e+01 -3.106620e+01 6.774393e+00 -1.881191e+01 9.022648e+00 -2.642379e+01 6.005944e+00 -3.101501e+01 3.586429e+00 -3.454699e+01 2.010805e+00 -3.759270e+01 1.093428e+00 -4.028184e+01 4.909639e-01 -4.228632e+01 -2.146733e-01 -4.350500e+01 -1.558120e+00 -4.354752e+01 -3.190827e+00 -4.255605e+01 -5.795775e+00 -4.084107e+01 -8.433953e+00 -3.888157e+01 -1.099803e+01 -3.701489e+01 -1.302082e+01 -3.516983e+01 -1.477524e+01 -3.338847e+01 -1.625829e+01 -3.180446e+01 -1.736975e+01 -3.080148e+01 -1.777412e+01 -3.060269e+01 -1.686522e+01 -3.166855e+01 -1.486272e+01 -3.321796e+01 -1.281841e+01 -3.452513e+01 -1.087028e+01 -3.579779e+01 -8.703648e+00 -3.712129e+01 -6.203809e+00 -3.855459e+01 -3.435441e+00 -3.990947e+01 -6.079898e-01 -4.052407e+01 1.483075e+00 -3.962606e+01 2.692318e+00 -3.750786e+01 4.123044e+00 -3.469130e+01 7.289720e+00 
-2.670962e+00 2.110284e+00 -2.822551e+00 -5.484897e+00 -5.253916e+01 -3.459306e-01 5.022028e+00 2.105955e-01 8.096561e-01 1.465691e-01 -5.812150e-01 1.010605e-01 -1.109032e+00 3.486458e-02 -1.307620e+00 -6.071333e-02 -1.346938e+00 -1.578166e-01 -1.352409e+00 -2.341809e-01 -1.345798e+00 -2.712025e-01 -1.313554e+00 -2.688779e-01 -1.347218e+00 -2.403178e-01 -1.367822e+00 -2.166767e-01 -1.360418e+00 -2.124341e-01 -1.319290e+00 -2.088058e-01 -1.230475e+00 -2.024126e-01 -1.138970e+00 -2.118360e-01 -1.044707e+00 -2.764505e-01 -9.522407e-01 -3.953257e-01 -8.797376e-01 -5.239144e-01 -7.923290e-01 -6.093071e-01 -6.768348e-01 -6.466866e-01 -5.729188e-01 -6.154035e-01 -4.845019e-01 -5.481023e-01 -4.448927e-01 -4.620682e-01 -4.352347e-01 -3.446683e-01 -4.376754e-01 -1.803477e-01 -4.582585e-01 5.793601e-02 -5.310057e-01 3.758858e-01 -6.803676e-01 8.433287e-01 -8.716865e-01 1.576090e+00 
-2.048835e+00 1.753057e+00 -2.515543e+00 -4.766830e+00 -6.746308e+01 -2.205790e+00 4.398667e+00 -9.115391e-01 2.487336e+00 -2.913094e-01 1.247507e+00 -1.716054e-01 6.284898e-01 -1.320221e-01 3.252139e-01 -1.082439e-01 1.812496e-01 -1.108500e-01 7.810585e-02 -1.145248e-01 2.189516e-02 -7.145983e-02 2.456845e-02 -8.402416e-02 3.682874e-03 -6.511852e-02 -1.192867e-02 -3.720128e-02 8.699426e-03 -2.372314e-02 -1.615973e-02 -1.337675e-02 -1.672412e-02 -3.438300e-03 -2.936872e-02 -2.678931e-03 -3.767569e-02 9.815257e-03 -5.460010e-03 1.181724e-02 -2.446170e-02 1.794295e-02 -4.178832e-02 4.024493e-02 -3.382597e-02 3.407731e-02 -5.323328e-02 4.093960e-02 -5.500285e-02 6.326794e-02 -5.454956e-02 9.020781e-02 -8.756226e-02 1.439767e-01 -1.474127e-01 2.351361e-01 -2.468576e-01 3.642460e-01 -4.066925e-01 5.704610e-01 -7.007900e-01 8.510508e-01 -1.171825e+00 7.365673e-01 
-2.095372e+00 1.157757e+00 -1.652997e+00 -5.614030e+00 -7.796567e+01 -1.650948e+00 3.424476e+00 -1.035042e+00 2.445286e+00 -4.629698e-01 1.348487e+00 -2.772361e-01 7.132170e-01 -1.920874e-01 3.931240e-01 -1.586431e-01 2.696107e-01 -1.695800e-01 1.312430e-01 -1.601326e-01 6.771151e-02 -1.082393e-01 1.114369e-01 -1.017050e-01 6.426792e-02 -7.266090e-02 5.724507e-02 -3.162629e-02 6.901061e-02 -1.246162e-02 3.823264e-02 1.059115e-02 4.973646e-02 1.120414e-02 -2.347223e-04 2.037498e-02 -2.262017e-02 4.392445e-02 2.511817e-02 2.493324e-02 -2.406465e-02 3.008757e-02 -4.616067e-02 5.141436e-02 -4.472698e-02 5.363339e-02 -6.238004e-02 7.386750e-02 -3.590803e-02 9.188268e-02 -6.780855e-02 1.371025e-01 -1.223929e-01 2.177357e-01 -2.027863e-01 3.205175e-01 -3.335400e-01 4.410602e-01 -5.395916e-01 5.959037e-01 -8.489554e-01 7.907921e-01 -1.286611e+00 8.754980e-01 
-1.831239e+00 9.629377e-01 -1.181966e+00 -4.910544e+00 -8.664068e+01 -1.643894e+00 1.807882e+00 -1.526883e+00 1.960431e+00 -7.641503e-01 1.316032e+00 -4.264419e-01 7.463625e-01 -2.743109e-01 4.033353e-01 -2.153001e-01 2.939573e-01 -2.144505e-01 1.418092e-01 -2.230874e-01 5.072197e-02 -1.403406e-01 1.406766e-01 -1.421967e-01 5.080452e-02 -1.276100e-01 1.133007e-02 -5.311550e-02 6.752792e-02 -5.734116e-02 4.006060e-03 -3.412289e-02 1.820012e-02 7.851504e-04 -1.586925e-02 6.674456e-03 -5.679481e-02 5.961912e-02 4.321385e-02 3.942262e-02 -2.248070e-02 3.508622e-02 -6.799873e-02 1.013142e-01 -1.246404e-02 8.435700e-02 -6.450479e-02 9.655260e-02 -4.721028e-02 1.362363e-01 -3.051848e-02 1.465260e-01 -8.779043e-02 2.371698e-01 -1.681671e-01 3.786505e-01 -2.930032e-01 5.402152e-01 -4.854485e-01 7.265078e-01 -7.764157e-01 9.241370e-01 -1.188841e+00 1.055868e+00 
-1.519811e+00 7.446396e-01 -2.602948e-01 -5.309344e+00 -9.238640e+01 -1.132355e+00 1.045026e+00 -1.465955e+00 1.435294e+00 -8.311907e-01 1.102723e+00 -4.808078e-01 6.432036e-01 -2.933963e-01 3.488663e-01 -2.506998e-01 3.481810e-01 -3.233117e-01 1.249978e-01 -3.055873e-01 4.056185e-02 -1.508206e-01 2.324918e-01 -1.710566e-01 6.365390e-02 -1.314294e-01 4.913275e-02 -6.533386e-02 9.715455e-02 -4.943891e-02 7.070281e-03 7.478917e-03 8.581323e-02 -1.845836e-02 -4.115068e-02 1.142241e-02 -8.670681e-02 1.063602e-01 9.368487e-02 3.744308e-02 -5.232883e-02 4.780633e-02 -7.496410e-02 9.655194e-02 -4.012474e-02 8.961591e-02 -9.698301e-02 1.242789e-01 6.074254e-03 9.693998e-02 -6.102572e-02 1.396655e-01 -1.195347e-01 2.637015e-01 -1.960517e-01 4.129116e-01 -3.277670e-01 5.639725e-01 -5.220015e-01 7.279959e-01 -7.834114e-01 9.043548e-01 -1.117346e+00 1.043317e+00 
-1.164866e+00 5.983395e-01 3.606472e-01 -4.917720e+00 -9.723928e+01 -9.248517e-01 2.362342e-01 -1.661153e+00 8.469429e-01 -1.048990e+00 8.568638e-01 -5.923171e-01 5.255692e-01 -3.091520e-01 2.237023e-01 -2.785311e-01 3.208822e-01 -3.981592e-01 1.244907e-01 -4.135985e-01 -2.951305e-02 -1.616890e-01 3.117714e-01 -2.123458e-01 4.764866e-02 -2.036434e-01 -4.837184e-02 -6.058852e-02 1.646237e-01 -1.060599e-01 -2.476508e-02 -2.971020e-02 3.444316e-02 -7.062864e-03 -3.046089e-02 -1.895591e-02 -1.542004e-01 1.586393e-01 1.491782e-01 4.305338e-02 -4.327914e-02 1.505559e-02 -1.630888e-01 1.816079e-01 5.038295e-02 1.083437e-01 -1.178345e-01 1.386473e-01 -8.016040e-02 1.489390e-01 3.238808e-02 6.947285e-02 -2.759883e-02 2.524751e-01 -1.173896e-01 4.656618e-01 -2.578774e-01 6.362554e-01 -4.385518e-01 7.953846e-01 -6.604933e-01 9.518321e-01 -9.272453e-01 1.062236e+00 
-8.108931e-01 4.264835e-01 1.137497e+00 -4.943459e+00 -9.994380e+01 -5.853915e-01 -1.426715e-01 -1.630396e+00 3.637177e-01 -1.069955e+00 5.453458e-01 -5.610912e-01 3.063943e-01 -1.525830e-01 4.915167e-02 -1.496794e-01 4.087279e-01 -7.706887e-01 5.128783e-02 -5.090737e-01 -1.079991e-01 -1.058792e-01 5.388601e-01 -2.799773e-01 2.159664e-03 -8.956069e-02 -3.266512e-02 -2.073578e-01 2.169283e-01 -9.154299e-02 -6.917267e-02 1.655964e-01 1.838877e-01 -1.714772e-01 -1.325267e-01 -1.371246e-02 -2.537852e-01 2.616346e-01 3.332497e-01 -8.018526e-03 -1.284762e-01 1.170338e-01 -1.640148e-01 8.780864e-02 2.511405e-02 1.302622e-01 -1.996459e-01 2.803507e-01 8.490651e-02 -3.923835e-02 -4.364706e-02 4.054148e-02 -3.533136e-02 2.869145e-01 -1.025993e-01 4.970155e-01 -2.514476e-01 6.464261e-01 -4.231878e-01 7.828423e-01 -6.006575e-01 9.229077e-01 -7.767069e-01 1.019719e+00 
-4.711399e-01 2.781696e-01 1.723318e+00 -4.690672e+00 -1.020553e+02 -2.729926e-01 -4.549022e-01 -1.727119e+00 -3.912163e-02 -1.273326e+00 3.332182e-01 -6.407739e-01 1.733865e-01 1.200223e-01 -2.521072e-01 2.650492e-01 1.230478e-01 -1.390136e+00 1.930795e-01 -5.131781e-01 -2.797491e-01 9.409090e-03 6.842986e-01 -4.973238e-01 7.694923e-02 8.083643e-02 -3.993119e-01 -4.006782e-01 4.979961e-01 -2.266927e-01 -3.068704e-02 4.410913e-01 -1.140714e-01 -4.143301e-01 3.125705e-02 -2.999746e-02 -3.848946e-01 5.011189e-01 3.874261e-01 -2.183549e-01 1.309412e-02 1.975913e-01 -5.375808e-01 9.863983e-02 3.420925e-01 7.505931e-02 -1.515484e-01 5.885599e-01 -4.391779e-01 -1.782557e-01 2.223533e-01 -2.819827e-01 2.183691e-01 3.179160e-01 1.713666e-02 6.034659e-01 -1.985189e-01 7.129601e-01 -3.556848e-01 8.117384e-01 -4.785438e-01 9.237652e-01 -5.777357e-01 9.877379e-01 
-1.543943e-01 1.225437e-01 2.310353e+00 -4.526816e+00 -1.025350e+02 -5.351536e-02 -6.104744e-01 -1.793661e+00 -3.566415e-01 -1.423942e+00 6.225568e-02 -7.196471e-01 -1.030483e-01 5.664298e-01 -4.684670e-01 1.613917e+00 -2.191270e-02 -3.229532e+00 3.168559e-01 2.349758e-01 -7.092395e-01 2.581672e-01 1.368627e+00 -9.076377e-01 5.425823e-02 1.472788e+00 -7.887110e-01 -1.864560e+00 8.852357e-01 3.264734e-03 -1.170342e-01 1.846917e+00 6.501274e-03 -1.627670e+00 -8.191781e-02 4.302735e-01 -8.194684e-01 6.516234e-01 1.047306e+00 -4.598732e-01 -9.250136e-02 1.186388e+00 -8.195283e-01 -9.722523e-01 5.653095e-01 3.435824e-01 -3.180423e-01 1.582863e+00 -2.463931e-01 -1.095540e+00 1.098643e-01 -1.912662e-01 3.083730e-01 4.303044e-01 7.559838e-02 6.697158e-01 -1.966144e-01 7.237483e-01 -3.401978e-01 7.902908e-01 -4.072551e-01 8.878224e-01 -4.204333e-01 9.361606e-01 
1.412757e-01 -3.633129e-02 2.790353e+00 -4.318922e+00 -1.024472e+02 2.943376e-01 -6.968143e-01 -1.861617e+00 -6.046261e-01 -1.840773e+00 1.811737e-02 -1.350379e+00 1.160560e-01 5.532266e-01 -2.336319e-01 1.693431e+00 -1.292324e+00 -3.589966e+00 1.970122e+00 2.802564e+00 -1.379345e+00 1.808648e+00 1.433007e+00 -3.267841e+00 1.572247e+00 4.814905e+00 -3.149713e+00 -3.348318e+00 1.907590e+00 -1.035953e+00 1.079747e+00 5.272168e+00 -2.398401e+00 -4.947806e+00 1.150514e+00 1.495297e+00 -1.131135e+00 2.203688e+00 3.724587e-01 -3.549364e+00 1.608710e+00 4.403082e+00 -3.167765e+00 -2.904561e+00 1.635187e+00 -7.803475e-01 1.129578e+00 6.270131e+00 -3.964220e+00 -4.006427e+00 1.347647e+00 -5.377603e-01 1.086611e+00 1.022872e+00 2.736591e-02 8.643154e-01 -3.131932e-01 7.390456e-01 -3.433510e-01 7.702319e-01 -3.115979e-01 8.566507e-01 -2.438968e-01 8.806698e-01 
4.035492e-01 -1.896892e-01 3.181444e+00 -4.010590e+00 -1.011552e+02 3.882358e-01 -7.361346e-01 -1.920526e+00 -7.236427e-01 -2.141645e+00 -1.560862e-01 -2.163082e+00 -5.535583e-01 -2.085132e+00 1.217021e+00 -1.254353e+01 6.852100e+00 1.803980e+01 1.056215e+01 1.326918e+01 -4.766511e+00 -4.927703e-02 1.281530e+01 6.955319e+00 3.327965e+00 3.789567e+00 -2.164676e+00 5.406091e+00 7.713212e+00 3.611569e+00 3.679531e-01 -1.771436e+00 5.564599e+00 7.685062e-01 3.177177e+00 6.063967e+00 -4.007952e+00 1.168826e+00 9.969737e+00 -3.024316e+00 1.279212e+00 2.481804e+00 -1.049942e+00 1.030490e+00 3.837712e+00 -1.719123e+00 -1.070977e-01 1.089729e+00 4.546499e+00 -7.394869e+00 -2.245824e-01 -3.467564e+00 1.091831e+00 1.531841e+00 -2.478063e-03 1.037698e+00 -4.311807e-01 7.170588e-01 -3.633054e-01 7.185324e-01 -2.448665e-01 8.059425e-01 -1.016014e-01 8.174161e-01 
6.574601e-01 -3.424776e-01 3.499996e+00 -3.669773e+00 -9.920719e+01 6.895122e-01 -7.970502e-01 -1.683635e+00 -1.047753e+00 -2.303066e+00 -5.034711e-01 -4.126002e+00 5.707995e-01 -1.085770e+01 1.172566e+01 -3.833569e+01 2.840221e+01 8.312314e+01 3.864401e+01 2.285073e+01 2.158212e+00 -1.091873e+01 5.342154e+01 7.427080e+01 2.594434e+01 -9.709757e+00 6.763332e+00 5.318910e+01 5.333971e+01 4.407085e+01 1.382852e+01 -2.973938e+01 2.375318e+01 6.619938e+01 3.259766e+01 2.035128e+01 2.316311e+00 -9.864606e+00 5.006717e+01 6.326009e+01 2.820273e+01 -7.051775e+00 4.823351e+00 4.419010e+01 4.924930e+01 3.713663e+01 1.627323e+01 -2.718957e+01 1.654781e+01 5.161546e+01 3.045819e+01 2.315695e+01 1.362974e+00 2.618691e+00 -1.844696e+00 3.852619e-01 -8.784286e-01 4.927381e-01 -3.666617e-01 6.520663e-01 -1.325810e-01 7.638964e-01 6.423659e-02 7.508799e-01 
8.678517e-01 -4.581158e-01 3.682359e+00 -3.198152e+00 -9.641270e+01 6.295875e-01 -8.084605e-01 -1.549226e+00 -9.081728e-01 -2.070241e+00 3.113410e-01 -4.216942e+00 3.429396e+00 -9.910778e+00 1.100363e+01 -2.511073e+01 3.562098e+01 6.266665e+01 2.338711e+01 -4.676140e+00 6.494529e+00 6.555469e-01 6.601373e+01 6.902838e+01 1.494544e+01 -2.494482e+01 2.711524e+01 7.516298e+01 5.398674e+01 3.768046e+01 8.147750e+00 -3.216356e+01 5.321110e+01 9.684822e+01 2.095973e+01 2.411109e+00 2.993329e+00 5.407515e+00 8.303166e+01 9.146731e+01 1.400721e+01 -2.440195e+01 2.763102e+01 8.761878e+01 6.246967e+01 4.765400e+01 8.594361e+00 -3.724285e+01 5.644283e+01 1.205259e+02 2.236602e+01 2.671685e+01 -5.753781e+00 9.605643e-01 -3.285925e+00 -4.616914e-01 -1.051916e+00 1.891192e-01 -2.966617e-01 5.433743e-01 -2.350620e-02 7.051250e-01 2.006035e-01 6.843986e-01 
1.075031e+00 -5.597538e-01 3.815156e+00 -2.749428e+00 -9.299943e+01 7.505288e-01 -6.881338e-01 -1.085138e+00 -7.974528e-01 -6.062048e-01 -2.255278e-02 8.859441e-01 6.799828e-01 4.477472e+00 -2.361178e+00 2.159637e+01 -3.707440e+01 -7.692170e+01 -1.409982e+01 -1.160419e+01 3.404242e+00 -5.755314e+00 -4.799198e+01 -5.603520e+01 -6.715280e-01 9.800878e+00 -1.546801e+01 -4.557053e+01 -2.626828e+01 -2.146387e+01 -2.636126e-01 1.189238e+01 -2.646749e+01 -4.247292e+01 -5.224759e+00 1.291493e+00 -1.821366e+00 -6.156033e+00 -3.130251e+01 -2.823697e+01 -3.624648e+00 1.038772e+01 -1.252426e+01 -2.638364e+01 -1.491143e+01 -4.646151e+00 -4.721647e+00 8.033487e+00 -1.158592e+01 -1.374278e+01 -3.326213e+00 2.582796e+00 -1.050526e+00 1.591335e+00 -2.172382e-01 8.502182e-01 -2.987689e-02 6.453933e-01 5.327815e-02 6.489949e-01 1.586757e-01 6.972869e-01 3.589581e-01 6.188604e-01 
1.220089e+00 -5.756236e-01 3.799144e+00 -2.215834e+00 -8.888751e+01 6.654892e-01 -7.577926e-01 -1.019312e+00 -1.002785e+00 -2.952554e-01 -8.391098e-01 2.424940e+00 -2.382051e+00 1.158373e+01 -1.660136e+01 3.906632e+01 -2.779189e+01 -8.068671e+01 -4.586810e+01 -2.022553e+01 -5.383498e+00 1.032397e+01 -6.581349e+01 -8.560981e+01 -3.036381e+01 1.761888e+01 -1.641783e+01 -7.462023e+01 -6.542231e+01 -4.974363e+01 -1.429503e+01 3.804883e+01 -4.384737e+01 -9.982091e+01 -3.352698e+01 -1.234642e+01 -4.018946e+00 2.992562e+00 -7.976476e+01 -9.588419e+01 -2.468009e+01 2.316699e+01 -2.175841e+01 -8.352940e+01 -6.736322e+01 -4.952003e+01 -1.437697e+01 4.099694e+01 -4.868351e+01 -1.139199e+02 -2.748210e+01 -2.563845e+01 3.920743e+00 8.962994e-01 2.560053e+00 1.767983e+00 7.593533e-01 1.005309e+00 2.765072e-01 7.330485e-01 2.658685e-01 6.873387e-01 4.625229e-01 5.681510e-01 
1.351756e+00 -6.194555e-01 3.810495e+00 -1.922359e+00 -8.434891e+01 8.846248e-01 -7.661454e-01 -8.191682e-01 -1.273810e+00 -6.275972e-01 -1.302184e+00 8.598001e-02 -1.950664e+00 2.224009e+00 -6.696949e+00 1.280113e+01 -7.611551e+00 -7.508642e+00 -1.391756e+01 -8.726068e+00 -2.093304e+00 6.696433e+00 -1.873745e+01 -1.350182e+01 -1.370138e+01 -3.786350e-01 -1.842377e-01 -1.433891e+01 -2.250114e+01 -1.627894e+01 -8.323721e+00 1.358390e+01 -1.062077e+01 -2.421514e+01 -1.742013e+01 -1.570613e+01 1.057616e+00 7.005086e+00 -2.712382e+01 -2.973206e+01 -1.575167e+01 -4.860674e-01 2.842732e-01 -2.445412e+01 -2.973196e+01 -2.602303e+01 -8.611336e+00 1.755182e+01 -1.153114e+01 -4.036730e+01 -2.139747e+01 -2.092000e+01 -7.379834e-01 -2.831229e+00 1.498181e+00 4.159812e-01 7.430858e-01 6.512434e-01 4.077996e-01 6.322995e-01 3.882322e-01 6.305821e-01 5.759775e-01 5.020661e-01 
1.421112e+00 -6.061208e-01 3.676411e+00 -1.483125e+00 -7.927501e+01 8.304230e-01 -8.590483e-01 -6.633728e-01 -1.444108e+00 -4.637226e-01 -1.566889e+00 -3.507389e-01 -1.728787e+00 -2.296794e+00 -7.764135e-01 -5.091075e+00 1.692263e+00 6.325755e+00 -1.550748e+00 -6.056827e-01 7.867535e-01 -2.785705e+00 -1.992591e+00 5.941392e+00 -1.080721e+00 -4.378847e+00 2.728825e+00 3.066552e+00 -2.045892e+00 2.063946e+00 -5.081980e-01 -4.392683e+00 1.504593e-01 5.856552e+00 -9.831808e-01 -3.313064e+00 2.932740e+00 -2.059989e+00 -3.850615e+00 5.019988e+00 -8.842966e-01 -5.428437e+00 3.428849e+00 1.825898e+00 -2.475576e+00 -7.358481e-02 2.363247e-01 -4.139807e+00 -1.489525e-01 4.373636e+00 -1.217837e+00 -6.215156e-01 -4.621934e-01 -1.805602e+00 4.524046e-01 -2.725232e-01 5.316224e-01 3.504480e-01 4.274261e-01 5.178974e-01 4.402288e-01 5.662962e-01 6.349159e-01 4.431217e-01 
1.465468e+00 -6.280194e-01 3.592417e+00 -1.361551e+00 -7.397027e+01 9.579016e-01 -7.350287e-01 -6.270179e-01 -1.354484e+00 -6.679479e-01 -1.300507e+00 -6.171058e-01 -1.058357e+00 -1.471123e+00 -4.756009e-02 -3.177696e+00 1.437522e+00 2.064711e+00 -6.164398e-01 -4.517031e-01 7.338099e-02 -1.776143e+00 -4.720281e-01 1.259065e+00 -6.765708e-01 -2.340173e+00 1.432706e+00 1.941160e+00 -1.085867e+00 3.365448e-01 -5.327472e-01 -3.535135e+00 1.165665e+00 2.998080e+00 -3.662809e-01 -7.465370e-01 7.944052e-01 -1.352129e+00 -6.604004e-01 1.943089e+00 -6.086296e-01 -2.938196e+00 1.794065e+00 2.662669e+00 -1.021691e+00 3.096355e-01 -2.930610e-01 -4.139353e+00 1.451520e+00 4.123179e+00 -5.853690e-01 8.958466e-01 -4.876211e-01 -7.102529e-01 1.754778e-01 -2.812094e-01 3.863003e-01 1.706481e-01 4.118641e-01 3.873914e-01 4.740439e-01 4.773988e-01 6.812586e-01 3.692321e-01 
1.454008e+00 -6.183030e-01 3.387436e+00 -1.093734e+00 -6.821426e+01 8.898886e-01 -7.161061e-01 -5.929034e-01 -1.279758e+00 -7.321275e-01 -1.123785e+00 -8.554624e-01 -6.851609e-01 -1.292590e+00 1.254981e-01 -1.052073e+00 3.624750e-01 2.562067e-01 -2.384338e-01 -1.517831e-01 1.750494e-01 -7.262189e-01 -6.649747e-01 1.213463e-01 -5.604106e-02 -4.961912e-01 4.854580e-01 4.570955e-01 -6.419282e-01 -7.399295e-02 8.556590e-02 -9.438021e-01 3.500020e-02 8.218118e-01 3.757412e-02 -2.203929e-01 6.129340e-01 -4.812849e-01 -8.173843e-01 4.133792e-01 1.268441e-01 -6.976234e-01 6.334610e-01 9.233903e-01 -5.317349e-01 -1.095013e-01 3.848051e-01 -1.088427e+00 -4.319499e-02 1.812802e+00 -3.195469e-01 6.990289e-01 -1.675939e-01 -1.588466e-01 9.561648e-02 -1.393634e-01 2.791492e-01 1.201668e-01 3.679057e-01 3.109036e-01 4.650135e-01 4.092358e-01 6.828570e-01 3.076120e-01 
1.418372e+00 -6.205337e-01 3.208241e+00 -1.017110e+00 -6.227175e+01 9.107270e-01 -5.503814e-01 -5.313485e-01 -1.099842e+00 -7.029068e-01 -9.234944e-01 -7.329121e-01 -5.622005e-01 -9.113839e-01 -1.115969e-01 -7.630723e-01 -9.549560e-02 -1.841634e-01 -7.130523e-02 -1.548726e-01 4.930317e-02 -5.081830e-01 -4.070444e-01 -6.635252e-02 -3.167384e-02 -1.635278e-01 1.422020e-01 -3.779045e-02 -2.766061e-01 -2.115918e-02 2.671700e-02 -3.370066e-01 -4.906285e-02 1.829277e-01 7.844675e-02 3.376292e-02 2.729120e-01 -3.051646e-01 -3.696653e-01 1.512964e-01 7.409272e-02 -6.142464e-02 2.612630e-01 1.725363e-01 -1.889984e-01 1.081260e-01 1.550393e-01 -1.643600e-01 -7.180456e-02 6.470708e-01 -1.239658e-01 6.342194e-01 -5.474063e-02 1.282454e-01 9.068304e-02 1.225786e-02 2.320179e-01 1.279380e-01 3.349258e-01 2.608651e-01 4.497658e-01 3.444385e-01 6.721765e-01 2.435636e-01 
1.336197e+00 -5.974016e-01 2.942354e+00 -8.504012e-01 -5.595666e+01 8.254319e-01 -4.777106e-01 -5.118106e-01 -9.698216e-01 -6.907049e-01 -7.848706e-01 -6.827544e-01 -4.741280e-01 -6.904025e-01 -1.722613e-01 -5.470992e-01 -1.487718e-01 -3.617894e-01 -9.709176e-02 -2.270001e-01 1.114874e-02 -3.295552e-01 -2.756347e-01 -1.424166e-01 -2.130341e-02 -9.330029e-02 3.356772e-02 -9.696481e-02 -1.516715e-01 -5.724782e-02 4.540850e-02 -1.267520e-01 -8.669374e-02 2.407743e-02 7.796296e-02 -2.199218e-03 1.780751e-01 -1.493569e-01 -2.461511e-01 4.600959e-02 8.420126e-02 2.943588e-02 1.126913e-01 7.561734e-02 -7.265745e-02 8.424894e-02 1.332946e-01 6.733420e-02 -1.670551e-01 4.103590e-01 -7.543539e-02 3.968527e-01 1.275558e-02 1.703242e-01 9.723716e-02 9.227385e-02 1.958369e-01 1.483390e-01 2.918315e-01 2.364843e-01 4.095867e-01 2.998203e-01 6.280036e-01 1.957435e-01 
1.233888e+00 -5.721302e-01 2.679149e+00 -7.804651e-01 -4.945361e+01 7.808513e-01 -3.349009e-01 -4.449775e-01 -8.009700e-01 -6.086774e-01 -6.568426e-01 -5.474743e-01 -4.514065e-01 -5.060451e-01 -2.848454e-01 -4.613464e-01 -2.308703e-01 -3.173721e-01 -9.382229e-02 -2.750765e-01 -5.548736e-02 -2.722239e-01 -1.493122e-01 -1.434446e-01 -2.873347e-02 -1.305825e-01 -2.568897e-02 -8.850989e-02 -4.679640e-02 -6.994724e-02 7.978259e-03 -8.964791e-02 -4.864532e-02 -4.680171e-03 5.331856e-02 -1.051650e-02 5.984042e-02 -4.962044e-02 -9.647504e-02 2.800248e-02 3.938051e-02 3.016313e-02 2.977357e-02 8.049958e-02 -1.318327e-02 1.013240e-01 2.855330e-02 1.083959e-01 -1.038420e-01 2.246602e-01 -5.091235e-03 2.303192e-01 6.972654e-02 1.786371e-01 1.221765e-01 1.589864e-01 1.799444e-01 1.811607e-01 2.558253e-01 2.241323e-01 3.673085e-01 2.588454e-01 5.760071e-01 1.496253e-01 
1.096352e+00 -5.281400e-01 2.360589e+00 -6.690455e-01 -4.267079e+01 6.843455e-01 -2.507788e-01 -4.136238e-01 -6.663045e-01 -5.548121e-01 -5.460512e-01 -4.466425e-01 -4.036922e-01 -3.362860e-01 -2.996169e-01 -3.592247e-01 -2.082134e-01 -3.535666e-01 -1.022650e-01 -3.030192e-01 -9.141471e-02 -1.855508e-01 -4.833294e-02 -1.549555e-01 -2.919147e-02 -1.311088e-01 -5.599815e-02 -6.087671e-02 1.725607e-02 -7.002078e-02 -7.176262e-03 -4.058692e-02 -1.901311e-02 -3.481077e-02 3.499421e-02 -3.068702e-02 -1.039819e-02 3.727153e-02 -5.750431e-03 -5.374599e-03 1.691316e-02 1.056241e-02 -2.625168e-02 1.097075e-01 2.713047e-02 8.937306e-02 -2.004707e-02 1.216998e-01 -8.677971e-02 1.374986e-01 2.143972e-02 9.042461e-02 9.133707e-02 1.503788e-01 1.244190e-01 1.857212e-01 1.507199e-01 1.966686e-01 2.070491e-01 2.123059e-01 3.076575e-01 2.267297e-01 4.999660e-01 1.165250e-01 
9.431965e-01 -4.806978e-01 2.032415e+00 -6.092972e-01 -3.570054e+01 6.035743e-01 -1.378014e-01 -3.678157e-01 -5.008071e-01 -5.040034e-01 -3.995162e-01 -3.360237e-01 -3.350957e-01 -7.986551e-02 -3.765154e-01 -1.914997e-01 -3.337632e-01 -4.078491e-01 -6.948614e-02 -3.700034e-01 -7.082611e-02 -3.749046e-02 -4.814400e-02 -2.118204e-01 3.718050e-02 -1.559195e-01 -1.072233e-01 -1.318118e-02 7.972747e-02 -1.335816e-01 3.090555e-02 5.122677e-02 -9.036964e-02 -1.084256e-01 8.301599e-02 -5.296188e-02 -5.177776e-02 2.253289e-01 -3.649247e-02 -1.082391e-01 7.641407e-02 -6.317967e-03 -1.092033e-01 1.709960e-01 6.466571e-02 4.938388e-02 -2.540842e-02 2.264629e-01 -2.155999e-01 -2.270270e-02 1.076081e-01 -1.563284e-01 2.107557e-01 1.582199e-01 1.561053e-01 2.567287e-01 1.145142e-01 2.258326e-01 1.483599e-01 1.993685e-01 2.425601e-01 1.901052e-01 4.188789e-01 8.241936e-02 
7.677938e-01 -4.225431e-01 1.672718e+00 -5.320834e-01 -2.855069e+01 4.994627e-01 -5.562818e-02 -3.338819e-01 -3.564570e-01 -4.656105e-01 -2.691547e-01 -2.716615e-01 -2.515946e-01 1.547063e-01 -3.847099e-01 2.326180e-01 -4.339193e-01 -9.183514e-01 1.616417e-03 -2.958492e-01 -5.962970e-02 2.819633e-01 4.206564e-03 -4.868455e-01 9.842960e-02 1.179078e-01 -2.237705e-01 -1.951167e-01 1.888254e-01 -1.678971e-01 6.693482e-02 4.591130e-01 -1.676518e-01 -5.285003e-01 1.233404e-01 3.940287e-02 -1.262933e-01 5.136438e-01 1.147568e-02 -4.196008e-01 1.275769e-01 2.550273e-01 -2.630893e-01 -1.818979e-02 1.507215e-01 1.168499e-02 -8.570472e-03 6.526938e-01 -3.413392e-01 -5.398264e-01 1.853517e-01 -2.593712e-01 2.805696e-01 2.303483e-01 1.417004e-01 3.069135e-01 5.705090e-02 2.301639e-01 8.148842e-02 1.767148e-01 1.692646e-01 1.547256e-01 3.240408e-01 5.583178e-02 
5.839045e-01 -3.569300e-01 1.291551e+00 -4.618421e-01 -2.120948e+01 4.000925e-01 1.148762e-02 -3.075372e-01 -2.083377e-01 -5.345210e-01 -5.717029e-02 -4.288117e-01 7.720803e-02 4.949247e-01 -2.622746e-01 1.699858e+00 -1.337395e+00 -2.556035e+00 3.758424e-01 -1.930087e-01 5.319633e-01 1.676907e+00 -8.148631e-01 -2.038669e+00 7.968135e-01 1.301869e+00 -5.885266e-01 -5.909532e-01 1.369369e-01 -9.333054e-01 8.314036e-01 2.302109e+00 -1.169988e+00 -2.194028e+00 6.094880e-01 3.249490e-01 2.281012e-01 1.839863e+00 -8.818514e-01 -2.143300e+00 9.563266e-01 1.535852e+00 -7.422198e-01 -4.912870e-01 1.578906e-01 -7.425193e-01 8.080395e-01 2.857948e+00 -1.626008e+00 -2.320377e+00 5.482158e-01 -5.989097e-01 7.606199e-01 6.751389e-01 7.690195e-02 4.393248e-01 -8.859545e-02 2.064282e-01 -1.803295e-02 1.267443e-01 9.172716e-02 1.061495e-01 2.304695e-01 2.665493e-02 
3.901134e-01 -2.856757e-01 8.988226e-01 -3.881386e-01 -1.379723e+01 2.924677e-01 7.563628e-02 -2.577536e-01 -6.949152e-02 -5.233247e-01 8.464039e-02 -5.484666e-01 2.583280e-01 -6.611023e-02 5.839489e-01 3.367753e-01 -1.274184e+00 -9.779115e-01 2.182041e+00 1.504837e+00 5.899700e-01 5.757195e-01 9.790228e-01 -4.848950e-01 1.914200e+00 2.229569e+00 -1.233543e+00 4.832762e-02 2.193291e+00 1.836343e-01 1.446549e+00 1.475620e+00 -6.356009e-01 -5.683271e-01 2.056140e+00 1.907502e+00 -2.752153e-02 2.720443e-01 1.766229e+00 -6.686592e-02 2.202907e+00 2.468707e+00 -1.365800e+00 1.919306e-01 2.673934e+00 9.128268e-01 1.613358e+00 1.849881e+00 -1.039029e+00 -5.535457e-01 2.309340e+00 6.855871e-01 8.570828e-01 1.156945e+00 -9.608388e-02 4.616412e-01 -2.165338e-01 1.446560e-01 -9.522718e-02 6.927257e-02 2.150579e-02 5.821561e-02 1.334952e-01 1.442869e-03 
1.976361e-01 -1.882097e-01 4.640008e-01 -2.301503e-01 -6.193494e+00 1.717707e-01 6.279367e-02 -1.320090e-01 -5.115509e-02 -5.219474e-01 3.881189e-02 -1.565246e+00 9.761459e-01 -5.854693e+00 6.362669e+00 -1.020787e+01 -9.540151e-01 1.564541e+01 2.150065e+01 2.029354e+01 7.700881e+00 -1.189753e+01 1.023966e+01 3.139488e+01 2.122181e+01 8.716837e+00 -3.400381e-01 3.108876e+00 2.265528e+01 3.033436e+01 1.396731e+01 -6.612566e+00 1.218672e+00 2.252199e+01 2.051285e+01 1.638550e+01 5.248531e+00 -1.377061e+01 1.484241e+01 3.658674e+01 2.128333e+01 7.363623e+00 -5.019520e-01 3.856222e+00 2.475724e+01 3.211167e+01 1.467112e+01 -7.234293e+00 6.654036e-01 2.506421e+01 2.094432e+01 2.224160e+01 1.865209e+00 2.510341e+00 -1.284765e+00 -1.050317e-01 -5.549995e-01 -1.095052e-01 -1.666334e-01 -2.288289e-02 -2.564994e-02 9.030065e-03 5.101472e-02 -1.876282e-02 
2.869003e-03 -9.402471e-02 4.421610e-02 -1.151083e-01 1.363078e+00 6.072968e-02 9.502821e-02 -3.347147e-02 3.871426e-02 -4.779939e-01 1.242744e-01 -1.932726e+00 1.319787e+00 -7.530782e+00 8.081144e+00 -1.457612e+01 2.936769e+00 2.758994e+01 2.874972e+01 2.536033e+01 7.384300e+00 -1.592269e+01 2.030977e+01 4.949423e+01 2.481675e+01 5.267380e+00 7.607350e-01 9.028244e+00 3.333472e+01 4.279955e+01 1.490202e+01 -1.209063e+01 7.018324e+00 3.662258e+01 2.499688e+01 1.729837e+01 4.444037e+00 -1.617377e+01 2.602246e+01 5.302882e+01 2.248292e+01 2.604313e+00 9.941156e-01 9.838186e+00 3.407561e+01 4.207939e+01 1.491697e+01 -1.271721e+01 6.859480e+00 3.919493e+01 2.374794e+01 2.548485e+01 2.014621e-01 1.723151e+00 -1.652887e+00 -4.980319e-01 -5.975984e-01 -2.561418e-01 -1.762771e-01 -8.829216e-02 -6.437864e-02 -3.612299e-02 -3.353883e-02 -3.841279e-02 
-1.877333e-01 3.598641e-02 -4.250519e-01 1.236851e-01 9.032878e+00 -1.385742e-01 1.138280e-01 1.749601e-01 1.934753e-01 2.730268e-01 6.296949e-02 6.617963e-01 -3.827502e-01 2.161894e+00 -2.298709e+00 4.583138e+00 -1.580193e+00 -8.596108e+00 -7.870864e+00 -5.418534e+00 -1.654859e+00 4.804849e+00 -7.589618e+00 -1.520227e+01 -6.687504e+00 1.149143e-02 -5.507301e-01 -4.151607e+00 -1.159966e+01 -1.330226e+01 -4.020096e+00 4.849963e+00 -3.503278e+00 -1.384475e+01 -8.260101e+00 -5.124512e+00 -1.016769e+00 5.474227e+00 -1.125600e+01 -2.037555e+01 -7.209744e+00 1.134573e-01 -5.348979e-01 -5.238701e+00 -1.434166e+01 -1.667996e+01 -4.807907e+00 5.633921e+00 -3.883655e+00 -1.782078e+01 -9.545792e+00 -1.027543e+01 3.176027e-01 -7.428459e-01 6.740410e-01 1.695596e-01 1.995621e-01 7.293869e-02 7.412313e-03 -8.077714e-03 -6.006744e-02 -4.118031e-02 -1.039398e-01 -4.566839e-02 