# vtk DataFile Version 2.0
Comment goes here
ASCII

DATASET STRUCTURED_POINTS
FIELD FieldData 1
TIME 1 1 double
0.03100000
DIMENSIONS    64   64   1

ORIGIN    0.000   0.000   0.000
SPACING   0.03125 0.03125   1.000

POINT_DATA   4096
SCALARS Omega double
LOOKUP_TABLE default

1.521041e-01 -5.768901e-01 4.192103e-01 -5.685002e-01 4.785726e-01 -4.318704e-01 3.819630e-01 -4.684061e-01 3.616988e-01 -4.159822e-01 3.254440e-01 -3.256291e-01 2.770344e-01 -2.312848e-01 2.331077e-01 -1.166325e-01 1.637151e-01 -4.392920e-03 9.868745e-02 8.916417e-02 3.688902e-02 1.758689e-01 4.946815e-02 1.773592e-01 2.263875e-02 2.078919e-01 3.326972e-03 2.081306e-01 3.617020e-03 2.351787e-01 -1.155632e-02 2.376332e-01 -3.473925e-03 2.469580e-01 -8.023362e-03 2.429844e-01 -7.208441e-03 2.566113e-01 -6.830372e-02 3.193363e-01 -9.451894e-02 3.167333e-01 -1.266999e-01 3.568608e-01 -1.552811e-01 3.155746e-01 -1.462831e-01 2.659435e-01 -1.211500e-01 2.157588e-01 -1.268783e-01 1.648930e-01 -1.229804e-01 1.191206e-01 -1.314854e-01 9.351641e-02 -1.460254e-01 7.588672e-02 -1.536223e-01 5.563329e-02 -1.529352e-01 3.520975e-02 -1.829812e-01 7.577000e-02 
-2.615421e+00 -2.046057e+01 -1.997758e+00 -2.027959e+01 -2.697097e+00 -1.987465e+01 -3.148962e+00 -1.957093e+01 -5.084922e+00 -1.846678e+01 -7.640253e+00 -1.640404e+01 -1.100288e+01 -1.321549e+01 -1.531661e+01 -9.149912e+00 -2.023341e+01 -4.776780e+00 -2.501608e+01 -6.962651e-01 -2.951514e+01 3.379421e+00 -3.398124e+01 7.269447e+00 -3.778712e+01 1.007270e+01 -4.017786e+01 1.152020e+01 -4.132359e+01 1.170045e+01 -4.056508e+01 9.355640e+00 -3.705631e+01 4.958467e+00 -3.252546e+01 7.329339e-01 -2.931091e+01 -1.495063e+00 -2.825103e+01 -1.690529e+00 -2.932430e+01 5.919767e-01 -3.247761e+01 4.262169e+00 -3.616526e+01 7.950696e+00 -3.967649e+01 1.117868e+01 -4.182487e+01 1.243337e+01 -4.187004e+01 1.167669e+01 -3.987937e+01 8.810664e+00 -3.553249e+01 3.787723e+00 -2.914022e+01 -3.016854e+00 -2.138110e+01 -1.052033e+01 -1.337546e+01 -1.766751e+01 -5.480890e+00 -2.484906e+01 
-3.149215e+01 4.145827e+00 -2.454488e+01 5.824214e+00 -7.617035e+00 5.182642e+00 -2.470766e+01 4.854209e+00 -3.265697e+01 4.278295e+00 -3.767216e+01 3.271307e+00 -4.076241e+01 1.676001e+00 -4.237217e+01 -4.108460e-01 -4.288218e+01 -2.624603e+00 -4.303737e+01 -4.546364e+00 -4.292695e+01 -6.674007e+00 -4.230544e+01 -8.690129e+00 -4.161477e+01 -1.013135e+01 -4.140904e+01 -1.087832e+01 -4.138442e+01 -1.134601e+01 -4.191636e+01 -1.021640e+01 -4.425819e+01 -7.653133e+00 -4.705746e+01 -5.361521e+00 -4.876078e+01 -4.212879e+00 -4.927238e+01 -3.977711e+00 -4.871802e+01 -4.922988e+00 -4.694204e+01 -6.517072e+00 -4.489648e+01 -7.824992e+00 -4.276224e+01 -9.093070e+00 -4.108776e+01 -9.209339e+00 -4.020111e+01 -8.541811e+00 -3.971249e+01 -7.067214e+00 -3.990537e+01 -4.716165e+00 -4.054236e+01 -1.543903e+00 -4.125050e+01 2.005693e+00 -4.122847e+01 5.446315e+00 -4.112916e+01 9.395378e+00 
-1.586443e+01 6.413659e+00 -1.302523e+01 6.895207e+00 -1.289543e+01 6.597078e+00 -1.180074e+01 6.614580e+00 -1.598261e+01 5.747945e+00 -1.837189e+01 4.530808e+00 -1.954464e+01 2.898492e+00 -1.966648e+01 9.378733e-01 -1.903854e+01 -9.836230e-01 -1.819838e+01 -2.603451e+00 -1.721618e+01 -4.257998e+00 -1.593218e+01 -5.817698e+00 -1.479677e+01 -6.947509e+00 -1.421875e+01 -7.544370e+00 -1.398219e+01 -7.834870e+00 -1.441568e+01 -6.878730e+00 -1.625608e+01 -4.798511e+00 -1.850606e+01 -2.878411e+00 -1.997050e+01 -1.904272e+00 -2.044239e+01 -1.752236e+00 -1.998906e+01 -2.676634e+00 -1.853489e+01 -4.174205e+00 -1.684370e+01 -5.572628e+00 -1.513106e+01 -6.865493e+00 -1.387564e+01 -7.194443e+00 -1.338324e+01 -6.741559e+00 -1.343282e+01 -5.433796e+00 -1.424108e+01 -3.254218e+00 -1.566154e+01 -3.152620e-01 -1.742435e+01 2.899529e+00 -1.889240e+01 5.949434e+00 -2.036710e+01 9.303582e+00 
-3.084161e-01 6.191200e-01 -8.872368e-01 -8.730291e-01 -2.716169e+01 2.066122e-01 4.038972e-01 -4.355072e-02 -9.294504e-02 -3.817686e-02 -2.724644e-01 -2.537858e-02 -3.356106e-01 -1.489930e-02 -3.409574e-01 -1.311375e-02 -3.146686e-01 -2.324322e-02 -2.798192e-01 -4.539860e-02 -2.500766e-01 -7.101980e-02 -2.321298e-01 -8.683750e-02 -2.238272e-01 -8.983588e-02 -2.236354e-01 -7.930863e-02 -2.276679e-01 -6.665491e-02 -2.307772e-01 -6.395283e-02 -2.282699e-01 -7.333950e-02 -2.217110e-01 -8.207976e-02 -2.172688e-01 -8.008578e-02 -2.242127e-01 -7.156008e-02 -2.408651e-01 -5.701812e-02 -2.589334e-01 -4.127858e-02 -2.710483e-01 -2.833748e-02 -2.717000e-01 -2.599424e-02 -2.584903e-01 -3.560092e-02 -2.328695e-01 -5.546256e-02 -1.986141e-01 -8.107863e-02 -1.608227e-01 -1.004542e-01 -1.241168e-01 -9.537275e-02 -9.455026e-02 -5.851690e-02 -8.603231e-02 -1.382199e-02 -1.434358e-01 2.738355e-01 
-1.931154e-01 -7.463359e-02 -6.100695e-01 -8.419880e-01 -3.287036e+01 -2.046570e-01 5.415388e-01 -1.647075e-01 3.153879e-01 -8.576892e-02 1.695088e-01 -4.871984e-02 9.471367e-02 -2.769148e-02 5.532108e-02 -1.809738e-02 3.354087e-02 -1.795389e-02 1.731119e-02 -1.681890e-02 6.544540e-03 -1.583237e-02 3.325729e-03 -1.688665e-02 -1.937793e-03 -1.515661e-02 -3.996258e-03 -1.170619e-02 4.730782e-04 -5.075069e-03 2.613252e-03 1.286882e-03 2.682103e-03 -5.729030e-04 -2.305925e-03 -2.469463e-03 -7.637646e-03 -1.625427e-03 -6.643368e-03 -2.037997e-03 -7.032468e-03 1.927740e-03 -6.554669e-03 3.912605e-03 -3.068546e-03 7.939385e-03 -1.967469e-03 1.158471e-02 1.075787e-04 1.103534e-02 1.584158e-04 1.419084e-02 -5.244998e-03 2.001675e-02 -1.606973e-02 2.578515e-02 -3.436352e-02 3.052543e-02 -6.370869e-02 3.414272e-02 -1.148866e-01 4.384429e-02 -1.943678e-01 3.222576e-01 
-2.815023e-01 2.395275e-02 -5.689663e-01 -9.912138e-01 -4.004923e+01 -4.334754e-01 4.647227e-01 -1.306985e-01 3.283547e-01 -8.758671e-02 1.888549e-01 -5.584140e-02 1.153903e-01 -3.250535e-02 7.701425e-02 -2.084118e-02 5.692565e-02 -2.136343e-02 3.533601e-02 -2.040516e-02 1.832752e-02 -2.043536e-02 1.019976e-02 -2.296061e-02 -1.396970e-03 -2.075528e-02 -5.956352e-03 -1.776714e-02 -2.436208e-03 -1.031301e-02 -1.163137e-03 -2.944799e-03 7.898455e-04 -4.970959e-03 -3.439744e-03 -4.224240e-03 -7.704838e-03 -1.555893e-03 -4.604316e-03 -1.620311e-03 -5.852998e-03 4.037805e-03 -4.370194e-03 8.884185e-03 2.070044e-03 1.562978e-02 5.211867e-03 2.251034e-02 1.011161e-02 2.220409e-02 9.723318e-03 2.501095e-02 4.891877e-04 2.973247e-02 -1.730386e-02 3.365458e-02 -4.368949e-02 3.796436e-02 -7.998684e-02 4.789781e-02 -1.322305e-01 8.032406e-02 -2.151329e-01 1.960233e-01 
-2.042799e-01 9.066663e-02 -3.135144e-01 -9.386513e-01 -4.314473e+01 -4.289067e-01 2.527027e-01 -1.722065e-01 2.632290e-01 -1.171352e-01 1.714665e-01 -7.773881e-02 1.021508e-01 -5.019882e-02 5.972222e-02 -3.559063e-02 4.452641e-02 -4.164493e-02 2.560379e-02 -3.221095e-02 1.209921e-02 -2.176431e-02 1.744898e-02 -2.448111e-02 4.872042e-03 -1.662332e-02 -1.318503e-03 -1.551922e-02 5.980792e-03 -9.305021e-03 6.606710e-04 1.559455e-03 3.426497e-03 -6.896326e-03 -3.431960e-04 -1.366536e-03 -6.846714e-03 6.651270e-03 3.279636e-03 1.216942e-04 -5.133899e-03 6.996823e-03 -1.004274e-02 8.200770e-03 -1.587960e-03 1.250471e-02 -5.974413e-03 2.159594e-02 -3.048486e-04 1.128956e-02 3.271446e-03 1.541880e-02 -4.437508e-03 2.839581e-02 -1.872910e-02 4.187531e-02 -3.894692e-02 5.539943e-02 -6.803244e-02 7.327144e-02 -1.114250e-01 1.070688e-01 -1.680338e-01 1.724772e-01 
-2.141179e-01 1.155353e-01 -2.457577e-01 -1.001848e+00 -4.746107e+01 -5.680394e-01 1.469380e-01 -1.550350e-01 2.269194e-01 -1.081462e-01 1.575446e-01 -7.437834e-02 9.852067e-02 -4.814551e-02 6.310745e-02 -3.629886e-02 6.174669e-02 -4.947288e-02 3.455534e-02 -3.440484e-02 1.564627e-02 -2.517569e-02 2.668407e-02 -2.842802e-02 3.960065e-03 -1.823768e-02 -5.518384e-03 -2.321943e-02 3.978800e-03 -1.354839e-02 -5.161034e-03 1.032022e-03 1.961116e-03 -1.322175e-02 -3.276423e-03 -3.266275e-03 -1.149045e-02 7.359985e-03 6.911267e-03 -5.780021e-04 -5.531969e-03 1.046179e-02 -1.214826e-02 1.033664e-02 1.807758e-03 1.795298e-02 -4.316449e-03 3.193835e-02 4.467960e-03 1.631307e-02 1.007025e-02 2.009962e-02 -1.692819e-04 3.286335e-02 -1.918311e-02 4.506188e-02 -4.400681e-02 5.764198e-02 -7.579713e-02 7.564423e-02 -1.181470e-01 1.045889e-01 -1.719699e-01 1.371613e-01 
-1.272591e-01 1.328626e-01 -6.673078e-02 -9.874084e-01 -4.877131e+01 -5.141425e-01 1.076143e-02 -1.733806e-01 1.407021e-01 -1.285054e-01 1.139423e-01 -8.989878e-02 6.819096e-02 -5.471131e-02 3.009533e-02 -3.314984e-02 5.336859e-02 -8.294291e-02 2.942630e-02 -4.533560e-02 -2.119159e-03 -1.898437e-02 4.529728e-02 -4.139110e-02 5.316992e-03 -9.155411e-03 -1.628859e-02 -2.957911e-02 2.211659e-02 -1.632424e-02 -9.107968e-03 2.061217e-02 4.337234e-03 -2.923260e-02 4.264103e-03 -6.948685e-04 -2.340164e-02 2.510464e-02 2.655694e-02 -1.057388e-02 -6.086657e-03 1.968602e-02 -3.095278e-02 5.076951e-03 1.094247e-02 1.430675e-02 -1.968569e-02 5.168313e-02 -6.675264e-03 -6.138744e-03 1.758206e-02 6.203549e-03 3.947771e-03 3.367976e-02 -1.588077e-02 5.427224e-02 -3.576431e-02 7.172472e-02 -5.823478e-02 9.192905e-02 -8.573234e-02 1.182159e-01 -1.139548e-01 1.431088e-01 
-1.144981e-01 1.362029e-01 -1.183618e-02 -9.936853e-01 -5.120727e+01 -6.260693e-01 -6.905485e-02 -1.735690e-01 1.024654e-01 -1.212733e-01 8.966806e-02 -7.929195e-02 4.804561e-02 -4.007580e-02 9.933880e-03 -2.718694e-02 8.783733e-02 -1.112381e-01 3.194898e-02 -3.662057e-02 -1.680019e-02 -2.675195e-02 7.543044e-02 -4.478476e-02 1.361636e-04 4.735356e-03 -2.801940e-02 -5.102677e-02 3.053871e-02 -1.747787e-02 -2.185714e-02 3.362813e-02 9.051393e-03 -4.765047e-02 3.784705e-03 1.689943e-03 -4.047545e-02 2.809447e-02 4.544832e-02 -1.603817e-02 -6.572008e-03 3.218584e-02 -4.461309e-02 -1.292087e-03 2.287511e-02 1.718794e-02 -2.446590e-02 7.262912e-02 -7.707761e-03 -1.153030e-02 3.066627e-02 4.736912e-03 1.231212e-02 3.544757e-02 -1.426136e-02 5.570881e-02 -3.796654e-02 7.159973e-02 -6.104196e-02 8.973381e-02 -8.578004e-02 1.118919e-01 -1.084730e-01 1.320123e-01 
-3.912026e-02 1.403902e-01 1.095579e-01 -9.938678e-01 -5.121461e+01 -5.445899e-01 -1.449378e-01 -1.820878e-01 3.241719e-02 -1.370129e-01 4.762949e-02 -9.174662e-02 1.453672e-02 -2.845331e-02 -6.389807e-02 4.135216e-02 8.937091e-02 -2.269733e-01 5.859157e-02 -2.706141e-02 -9.207218e-02 9.718455e-03 1.494118e-01 -1.079878e-01 1.653164e-03 6.752671e-02 -1.044130e-01 -1.002626e-01 1.093509e-01 -3.373615e-02 -5.109458e-02 1.282828e-01 -2.936020e-03 -1.409691e-01 4.879853e-02 1.864841e-02 -1.122990e-01 8.610825e-02 1.184335e-01 -8.324256e-02 1.197674e-03 9.234444e-02 -1.324834e-01 -4.212378e-02 9.810040e-02 2.037843e-04 -6.275683e-02 1.834837e-01 -5.049875e-02 -1.080629e-01 8.270207e-02 -1.577013e-02 2.520855e-02 4.545315e-02 -1.249532e-02 6.881462e-02 -3.074009e-02 8.386398e-02 -4.255063e-02 1.008232e-01 -5.214521e-02 1.206180e-01 -5.503507e-02 1.382174e-01 
-2.372971e-02 1.415815e-01 1.476015e-01 -9.793574e-01 -5.228159e+01 -6.258063e-01 -1.952581e-01 -1.931376e-01 9.364307e-03 -1.383786e-01 3.053135e-02 -7.891087e-02 -1.674136e-02 2.163442e-02 -1.684677e-01 9.837243e-02 2.115542e-01 -3.483056e-01 5.620819e-02 6.285511e-02 -1.930088e-01 -4.707143e-02 2.886534e-01 -1.178685e-01 -2.681167e-02 1.692400e-01 -1.689246e-01 -2.012045e-01 1.742598e-01 -1.530435e-02 -1.065628e-01 2.074739e-01 1.556137e-02 -2.203271e-01 7.221822e-02 5.483948e-02 -1.947615e-01 7.740111e-02 2.136033e-01 -1.128969e-01 5.290531e-03 1.648898e-01 -2.156291e-01 -9.026955e-02 1.646356e-01 -2.578027e-03 -8.908443e-02 2.695629e-01 -9.006601e-02 -1.436394e-01 1.322238e-01 -2.441767e-02 4.063082e-02 4.884432e-02 -1.396434e-02 7.148855e-02 -3.491601e-02 8.365552e-02 -4.464911e-02 9.793203e-02 -5.013362e-02 1.155003e-01 -4.734046e-02 1.333626e-01 
3.387919e-02 1.399370e-01 2.320290e-01 -9.902445e-01 -5.129100e+01 -5.226615e-01 -2.307205e-01 -1.997708e-01 -3.758189e-02 -1.633991e-01 1.182363e-02 -1.181013e-01 -5.269983e-03 4.234017e-02 -3.693175e-01 6.097611e-01 2.505809e-01 -8.134890e-01 2.995366e-01 2.564713e-01 -5.613883e-01 2.361165e-01 5.868831e-01 -4.549356e-01 4.757016e-02 5.690796e-01 -5.489418e-01 -4.530241e-01 5.554395e-01 -7.518177e-02 -2.474455e-01 7.223832e-01 -9.496429e-02 -7.450398e-01 3.702702e-01 2.100931e-01 -5.669317e-01 3.310245e-01 4.957385e-01 -5.031917e-01 1.208524e-01 5.591112e-01 -6.459592e-01 -3.612716e-01 5.622875e-01 -9.261538e-02 -2.169084e-01 8.472584e-01 -3.300678e-01 -6.737604e-01 3.992201e-01 2.185617e-02 2.826281e-02 9.406862e-02 -3.594416e-02 9.071148e-02 -3.587222e-02 9.351647e-02 -2.895198e-02 1.046634e-01 -2.028083e-02 1.201484e-01 -3.319158e-03 1.359634e-01 
4.510651e-02 1.396592e-01 2.556693e-01 -9.698387e-01 -5.129436e+01 -5.730127e-01 -2.544043e-01 -2.188080e-01 -3.723371e-02 -1.893957e-01 3.133707e-02 -1.496986e-01 1.472540e-02 1.564406e-01 -8.769114e-01 1.548572e+00 3.251879e+00 1.308882e+00 3.926682e-01 6.274008e-01 -5.897451e-01 2.669356e+00 2.242526e+00 1.879189e-01 -1.218266e-01 3.842269e-01 1.064599e+00 1.331092e+00 1.136401e+00 2.407806e-01 -5.659697e-01 1.415568e+00 1.969810e+00 -7.142510e-02 5.621191e-01 2.979004e-01 -4.712639e-01 2.128645e+00 1.668376e+00 -3.639277e-01 1.350993e-01 3.334442e-01 7.815829e-01 6.032819e-01 1.015604e+00 -2.920580e-02 -3.744457e-01 1.401037e+00 1.240710e+00 -1.058209e+00 6.312757e-01 5.388343e-02 2.270609e-02 1.192613e-01 -6.148602e-02 9.998648e-02 -4.855390e-02 9.472947e-02 -3.263835e-02 1.019807e-01 -1.838318e-02 1.157609e-01 3.142938e-03 1.323687e-01 
8.614834e-02 1.334586e-01 3.144382e-01 -9.823007e-01 -4.951781e+01 -4.535065e-01 -2.650520e-01 -2.168943e-01 -7.235875e-02 -2.278376e-01 3.107638e-02 -3.326698e-01 2.321413e-01 -4.227209e-01 -6.360887e-01 3.883020e+00 2.767424e+01 2.481561e+01 2.854708e+00 -3.037060e-01 2.884413e+00 2.106046e+01 2.492640e+01 1.029796e+01 7.558068e-01 -3.699269e+00 1.679880e+01 2.879717e+01 1.114508e+01 3.074548e+00 -8.506147e-01 4.294945e+00 2.680878e+01 2.326275e+01 3.066489e+00 -7.100808e-01 3.160644e+00 2.114798e+01 2.509239e+01 9.981667e+00 1.114953e+00 -3.849212e+00 1.643185e+01 2.787801e+01 1.113164e+01 2.795421e+00 -6.602446e-01 3.861765e+00 2.663540e+01 2.345869e+01 2.980775e+00 1.073815e+00 -4.572953e-01 1.658183e-01 -1.504291e-01 1.028036e-01 -5.224747e-02 9.563625e-02 -1.561504e-02 1.032557e-01 8.272216e-03 1.162617e-01 3.774229e-02 1.311544e-01 
9.189277e-02 1.297105e-01 3.258866e-01 -9.528701e-01 -4.865853e+01 -4.788822e-01 -2.732277e-01 -2.274498e-01 -5.864572e-02 -2.706120e-01 1.124833e-01 -5.409200e-01 6.048167e-01 -1.449128e+00 1.092501e+00 5.665985e+00 3.381969e+01 2.798348e+01 2.512242e+00 -2.093688e+00 6.541553e+00 2.778410e+01 3.100276e+01 1.077967e+01 9.922661e-01 -3.818902e+00 2.478119e+01 3.808510e+01 1.239208e+01 2.378962e+00 -6.380009e-02 7.855019e+00 3.757216e+01 3.059123e+01 1.683832e+00 -1.475487e+00 6.924777e+00 3.080372e+01 3.364426e+01 1.205135e+01 4.510644e-01 -3.573178e+00 2.582113e+01 3.979944e+01 1.264073e+01 3.005976e+00 -5.652919e-01 8.441519e+00 4.070948e+01 3.439245e+01 8.329956e-01 1.549304e+00 -7.924517e-01 2.572511e-01 -2.240566e-01 1.136579e-01 -6.479073e-02 9.359723e-02 -1.529248e-02 9.833430e-02 1.160631e-02 1.106551e-01 4.246524e-02 1.263247e-01 
1.194444e-01 1.196628e-01 3.636962e-01 -9.441212e-01 -4.627431e+01 -3.613569e-01 -2.710028e-01 -1.810443e-01 -1.014466e-01 -1.631264e-01 -2.962854e-03 -1.836904e-01 1.202146e-01 -2.813003e-01 9.357982e-01 -4.056177e+00 -1.795593e+01 -1.493479e+01 6.448162e-01 -6.407218e-01 -2.388423e+00 -1.299830e+01 -1.349450e+01 -5.327853e+00 5.746792e-01 7.472618e-01 -1.030279e+01 -1.538916e+01 -4.284257e+00 -1.235568e+00 2.295551e-01 -3.531439e+00 -1.437238e+01 -1.122236e+01 -2.121643e-01 5.265066e-01 -2.874096e+00 -1.135848e+01 -1.171675e+01 -3.758931e+00 -3.140816e-01 1.238454e+00 -9.119124e+00 -1.307201e+01 -4.018310e+00 -2.153245e-01 -5.714144e-01 -2.665820e+00 -1.229872e+01 -9.557882e+00 -6.382910e-01 5.088903e-02 -6.973140e-03 1.285048e-01 -1.780395e-04 9.731222e-02 5.099976e-03 8.987871e-02 1.779298e-02 9.590266e-02 3.771329e-02 1.076295e-01 6.900792e-02 1.216884e-01 
1.202135e-01 1.125629e-01 3.634628e-01 -8.896606e-01 -4.470700e+01 -3.751805e-01 -2.843687e-01 -1.494396e-01 -1.426015e-01 -6.316390e-02 -1.541691e-01 1.636057e-01 -4.715940e-01 7.027102e-01 -2.105407e-01 -5.106648e+00 -3.678611e+01 -3.201622e+01 -3.363401e+00 1.153127e+00 -5.423588e+00 -2.881061e+01 -3.356874e+01 -1.305716e+01 -9.976336e-01 4.550121e+00 -2.493217e+01 -4.023476e+01 -1.405830e+01 -3.355300e+00 5.121647e-01 -7.120589e+00 -3.869313e+01 -3.266002e+01 -2.730957e+00 1.412968e+00 -6.250363e+00 -3.119207e+01 -3.524237e+01 -1.332348e+01 -9.416378e-01 4.661781e+00 -2.559252e+01 -4.103924e+01 -1.413588e+01 -3.300717e+00 4.759660e-01 -7.192877e+00 -4.058278e+01 -3.544965e+01 -2.017059e+00 -1.259236e+00 7.387437e-01 -4.469603e-02 1.826013e-01 5.202212e-02 5.445380e-02 7.293811e-02 3.361857e-02 8.584618e-02 4.397456e-02 9.958348e-02 7.185772e-02 1.147272e-01 
1.364937e-01 1.011557e-01 3.818966e-01 -8.654695e-01 -4.189539e+01 -2.768670e-01 -2.757926e-01 -1.273020e-01 -1.708845e-01 -5.955792e-02 -1.790412e-01 8.558010e-02 -3.434444e-01 3.953549e-01 -8.290163e-02 -1.141855e+00 -1.111382e+01 -8.602646e+00 -2.583606e+00 4.678006e-01 -9.542592e-01 -9.047676e+00 -1.134489e+01 -4.038908e+00 -9.121119e-01 1.846855e+00 -7.591067e+00 -1.291032e+01 -5.968433e+00 -1.463322e+00 5.993854e-01 -2.267092e+00 -1.314561e+01 -1.070801e+01 -2.061117e+00 1.110935e-01 -9.563116e-01 -1.091426e+01 -1.294566e+01 -4.972492e+00 -5.430382e-01 1.809077e+00 -8.271475e+00 -1.443143e+01 -6.236517e+00 -1.962474e+00 1.047603e+00 -2.595913e+00 -1.468068e+01 -1.277179e+01 -1.748921e+00 -9.877596e-01 3.258012e-01 -1.212809e-01 1.285501e-01 1.213929e-02 6.134834e-02 5.523760e-02 4.933196e-02 7.657137e-02 6.097822e-02 9.257101e-02 8.910641e-02 1.072031e-01 
1.320957e-01 9.254958e-02 3.710697e-01 -8.093671e-01 -3.978425e+01 -2.802474e-01 -2.754546e-01 -1.140694e-01 -1.780943e-01 -5.495040e-02 -1.780649e-01 8.048981e-03 -2.059721e-01 -3.248077e-03 1.026447e-01 -9.648927e-01 1.495386e-01 1.439925e+00 -7.290206e-01 -1.245678e-01 5.484520e-01 -6.012702e-01 -4.728295e-01 8.497814e-01 -2.230197e-01 -6.317225e-01 4.542142e-01 5.756444e-01 -6.938419e-01 1.339798e-01 3.238126e-01 -1.062893e+00 -1.567617e-01 1.150587e+00 -4.965991e-01 -3.207327e-01 7.128023e-01 -7.846406e-01 -6.659488e-01 6.893385e-01 -5.064105e-02 -7.063485e-01 3.467906e-01 3.970296e-01 -6.767262e-01 -5.922264e-02 5.744095e-01 -1.288093e+00 -3.226988e-01 1.094562e+00 -3.629331e-01 -1.559108e-01 6.865054e-02 -8.523894e-02 8.896200e-02 3.889480e-05 6.228874e-02 4.260543e-02 5.325091e-02 6.632011e-02 6.254271e-02 8.365987e-02 8.786983e-02 9.897441e-02 
1.389702e-01 8.141862e-02 3.716014e-01 -7.668550e-01 -3.666888e+01 -2.094714e-01 -2.558562e-01 -1.028863e-01 -1.767716e-01 -6.058855e-02 -1.590657e-01 -2.686041e-02 -1.404968e-01 -6.813465e-02 7.058071e-02 -5.559214e-01 2.457321e-01 3.638596e-01 -3.467544e-01 -6.695182e-02 2.866842e-01 -2.822443e-01 -2.913850e-01 2.999238e-01 -1.040119e-01 -3.462957e-01 4.308063e-01 2.135811e-01 -3.757302e-01 6.980976e-02 1.324149e-01 -4.772808e-01 9.699119e-02 4.525698e-01 -2.282342e-01 -1.296795e-01 3.762279e-01 -1.664282e-01 -3.689701e-01 3.012767e-01 -3.457501e-02 -3.890949e-01 4.092996e-01 3.227327e-01 -3.537755e-01 1.921062e-02 2.423835e-01 -5.124827e-01 3.691885e-02 5.655272e-01 -2.169316e-01 1.194080e-02 2.775756e-02 -3.208344e-02 6.081859e-02 5.724316e-03 5.642790e-02 3.756790e-02 5.745063e-02 5.956081e-02 7.036078e-02 7.627666e-02 9.629290e-02 9.037467e-02 
1.297800e-01 7.317305e-02 3.509727e-01 -7.096295e-01 -3.412875e+01 -2.078654e-01 -2.419664e-01 -9.898356e-02 -1.620825e-01 -6.710996e-02 -1.326078e-01 -5.648806e-02 -8.472520e-02 -1.004424e-01 5.694687e-02 -2.712164e-01 6.951052e-02 1.299414e-01 -1.360804e-01 -2.987556e-02 1.138728e-01 -1.475738e-01 -1.616449e-01 9.965500e-02 -2.514148e-02 -1.287985e-01 1.713550e-01 7.877939e-02 -1.632327e-01 1.901784e-02 6.671554e-02 -1.938183e-01 1.054956e-02 1.785081e-01 -7.254081e-02 -4.342939e-02 1.653809e-01 -7.704517e-02 -1.875126e-01 1.086743e-01 1.077276e-02 -1.382796e-01 1.679337e-01 1.389872e-01 -1.412930e-01 4.521458e-03 1.292433e-01 -1.905269e-01 -2.428191e-02 2.643837e-01 -1.018252e-01 6.098789e-02 -8.346390e-04 2.302273e-03 3.864296e-02 1.303371e-02 4.738262e-02 3.434021e-02 5.322381e-02 5.296702e-02 6.637027e-02 6.857093e-02 9.041538e-02 8.223311e-02 
1.289954e-01 6.335816e-02 3.363571e-01 -6.509248e-01 -3.078400e+01 -1.592811e-01 -2.171265e-01 -9.083046e-02 -1.500542e-01 -6.732229e-02 -1.172188e-01 -6.113307e-02 -7.335928e-02 -8.850868e-02 1.265779e-02 -1.632986e-01 1.575711e-02 3.462430e-02 -6.701041e-02 -2.894617e-02 4.058966e-02 -9.175480e-02 -8.100506e-02 3.692179e-02 -1.437324e-02 -6.272922e-02 7.166548e-02 2.504746e-02 -7.353318e-02 8.298475e-03 2.762025e-02 -9.551989e-02 2.675635e-03 8.065959e-02 -2.946114e-02 -1.338047e-02 7.287855e-02 -4.957536e-02 -8.287130e-02 5.487323e-02 5.007897e-03 -5.414644e-02 7.717439e-02 6.033436e-02 -5.761860e-02 1.595895e-02 5.754891e-02 -7.965077e-02 -1.203967e-02 1.407030e-01 -5.210874e-02 5.995136e-02 2.969189e-03 1.943629e-02 3.109983e-02 2.105718e-02 4.258897e-02 3.465761e-02 5.233411e-02 4.908964e-02 6.755871e-02 6.217622e-02 9.164266e-02 7.377237e-02 
1.159317e-01 5.616605e-02 3.073087e-01 -5.900663e-01 -2.789410e+01 -1.542718e-01 -1.962705e-01 -8.731098e-02 -1.300961e-01 -6.766268e-02 -9.661069e-02 -6.320377e-02 -5.693559e-02 -7.628067e-02 -4.646146e-03 -9.886164e-02 -5.442873e-03 -1.408381e-02 -3.148872e-02 -2.731036e-02 8.053143e-03 -5.324866e-02 -4.260793e-02 9.123360e-04 -6.691317e-03 -2.886373e-02 2.502308e-02 1.796656e-03 -2.941349e-02 -2.949301e-03 1.143014e-02 -3.999924e-02 -4.316457e-03 2.716312e-02 -6.955413e-03 -4.820380e-03 2.954515e-02 -2.071340e-02 -3.802145e-02 1.909459e-02 6.565931e-03 -1.524895e-02 3.149824e-02 2.818839e-02 -1.681445e-02 1.119549e-02 2.844653e-02 -1.807960e-02 -1.494856e-02 7.396806e-02 -2.423132e-02 4.841349e-02 2.139938e-03 2.604110e-02 2.223575e-02 2.490978e-02 3.417789e-02 3.352041e-02 4.494215e-02 4.457247e-02 5.980870e-02 5.568087e-02 8.201101e-02 6.614976e-02 
1.090937e-01 4.769818e-02 2.813350e-01 -5.221467e-01 -2.437443e+01 -1.182504e-01 -1.693481e-01 -7.942669e-02 -1.147127e-01 -6.362015e-02 -8.487456e-02 -5.687249e-02 -5.707616e-02 -5.662567e-02 -3.014389e-02 -5.921741e-02 -1.460148e-02 -4.129618e-02 -1.761879e-02 -3.023498e-02 -1.094836e-02 -3.049217e-02 -1.218181e-02 -1.642385e-02 -7.154226e-03 -1.507243e-02 -8.933981e-04 -9.921054e-03 -4.804947e-03 -7.625417e-03 -1.580748e-04 -1.089609e-02 -3.091997e-03 -2.340207e-04 6.054669e-04 -1.927605e-03 4.389939e-03 -2.015187e-03 -5.662701e-03 2.918899e-03 2.710230e-03 1.582772e-03 4.656721e-03 1.310138e-02 2.704729e-03 1.124499e-02 6.632101e-03 1.382504e-02 -9.654892e-03 3.363201e-02 -1.375942e-03 3.115981e-02 1.012079e-02 2.719761e-02 2.029727e-02 2.849090e-02 2.985387e-02 3.398344e-02 4.111399e-02 4.154629e-02 5.639808e-02 4.983767e-02 7.777974e-02 5.799823e-02 
9.326540e-02 4.120108e-02 2.460385e-01 -4.583932e-01 -2.119936e+01 -1.085608e-01 -1.446426e-01 -7.407188e-02 -9.392760e-02 -5.958031e-02 -6.820051e-02 -5.023076e-02 -5.001031e-02 -4.006897e-02 -4.052844e-02 -3.205661e-02 -1.065862e-02 -5.714565e-02 -7.889359e-03 -2.645596e-02 -2.215770e-02 -1.681925e-02 9.819735e-03 -2.421057e-02 -6.758188e-03 -3.267606e-03 -1.539790e-02 -1.839100e-02 1.080224e-02 -9.464131e-03 -7.249007e-03 8.298320e-03 -2.073862e-03 -1.777579e-02 5.435690e-03 -3.716014e-04 -1.153480e-02 9.926820e-03 1.341385e-02 -7.672992e-03 1.633526e-03 1.196635e-02 -1.275543e-02 3.926380e-03 1.504037e-02 8.682090e-03 -5.066711e-03 3.353865e-02 -1.092265e-02 8.323431e-03 1.170798e-02 1.774095e-02 1.264146e-02 2.546918e-02 1.518804e-02 2.871779e-02 2.202427e-02 3.225566e-02 3.236367e-02 3.738911e-02 4.648543e-02 4.374202e-02 6.565131e-02 5.056502e-02 
8.184287e-02 3.340165e-02 2.127633e-01 -3.889585e-01 -1.755357e+01 -7.634858e-02 -1.155947e-01 -6.629682e-02 -7.558523e-02 -5.616459e-02 -5.259717e-02 -4.503775e-02 -4.426837e-02 -1.800387e-02 -6.836476e-02 2.907317e-02 -2.196916e-02 -1.140916e-01 2.383254e-02 -2.002357e-02 -5.779332e-02 1.878332e-02 5.215421e-02 -6.036572e-02 -2.558735e-03 2.961017e-02 -6.176581e-02 -4.120276e-02 5.622157e-02 -1.975732e-02 -2.324514e-02 6.159556e-02 -1.236592e-02 -6.998989e-02 2.988315e-02 7.213282e-03 -5.242955e-02 4.499316e-02 5.456642e-02 -4.581915e-02 4.798321e-03 4.441373e-02 -6.233443e-02 -1.908420e-02 5.780554e-02 -3.745642e-05 -2.841160e-02 9.451284e-02 -2.848079e-02 -5.417961e-02 4.880246e-02 5.489974e-04 2.009649e-02 2.844817e-02 1.029833e-02 3.205779e-02 1.516573e-02 3.202941e-02 2.590811e-02 3.387546e-02 3.987074e-02 3.764170e-02 5.752278e-02 4.235685e-02 
6.438277e-02 2.678135e-02 1.737806e-01 -3.246550e-01 -1.415189e+01 -5.981568e-02 -8.766621e-02 -5.928822e-02 -5.364956e-02 -5.203229e-02 -3.387177e-02 -3.987035e-02 -3.435317e-02 4.344038e-05 -8.962376e-02 7.969161e-02 -1.612473e-02 -1.625200e-01 4.880882e-02 2.312495e-03 -9.413070e-02 2.999710e-02 9.932815e-02 -7.985041e-02 -7.027295e-04 6.880402e-02 -1.017590e-01 -7.323145e-02 9.624934e-02 -1.891726e-02 -4.085417e-02 1.056003e-01 -1.761474e-02 -1.127317e-01 5.046960e-02 2.166311e-02 -9.274519e-02 5.642808e-02 9.601323e-02 -7.005166e-02 8.693753e-03 7.935721e-02 -1.083101e-01 -4.882725e-02 9.587215e-02 -3.135685e-03 -4.850218e-02 1.424917e-01 -4.650027e-02 -1.025711e-01 7.737112e-02 -6.492885e-03 2.136892e-02 3.013166e-02 2.656288e-03 3.222946e-02 6.035733e-03 2.951515e-02 1.633413e-02 2.911248e-02 2.902162e-02 3.113651e-02 4.414819e-02 3.454159e-02 
4.977843e-02 1.882728e-02 1.367551e-01 -2.584207e-01 -1.042719e+01 -2.532418e-02 -5.668906e-02 -5.094871e-02 -3.316961e-02 -5.462470e-02 -7.983605e-03 -5.532418e-02 2.625173e-03 2.650829e-03 -1.370885e-01 3.431266e-01 -1.042906e-01 -4.554145e-01 2.423235e-01 8.777477e-02 -2.774657e-01 1.687937e-01 2.352386e-01 -2.763435e-01 6.394556e-02 2.751298e-01 -3.277856e-01 -2.054076e-01 3.121928e-01 -5.983556e-02 -9.796957e-02 3.664691e-01 -1.025326e-01 -3.803159e-01 2.167465e-01 1.013602e-01 -2.838415e-01 1.918883e-01 2.384497e-01 -2.716524e-01 7.156602e-02 2.840577e-01 -3.369084e-01 -1.854334e-01 3.163401e-01 -4.441161e-02 -1.152843e-01 4.419166e-01 -1.652632e-01 -3.893004e-01 2.331352e-01 2.439977e-02 7.008855e-03 5.445482e-02 -1.821363e-02 3.762162e-02 -5.945571e-03 2.737600e-02 8.170945e-03 2.389835e-02 2.081856e-02 2.403835e-02 3.368869e-02 2.585394e-02 
3.180550e-02 1.136978e-02 9.651694e-02 -1.950442e-01 -6.853883e+00 4.318981e-06 -2.658699e-02 -4.135658e-02 -1.107824e-02 -5.285342e-02 1.710395e-02 -6.594658e-02 3.759561e-02 -5.713550e-03 -1.914879e-01 4.561067e-01 6.950208e-01 2.724847e-02 4.296034e-01 1.493250e-01 -3.236028e-01 8.083740e-01 9.258303e-01 -7.672633e-02 1.027538e-01 2.039943e-01 1.158576e-01 5.017427e-01 6.978590e-01 4.510576e-02 -1.818410e-01 5.481775e-01 7.201365e-01 9.416494e-02 3.814051e-01 1.450136e-01 -3.149771e-01 9.032883e-01 9.919347e-01 -5.958622e-02 1.115587e-01 2.004244e-01 1.479329e-01 5.669444e-01 7.225906e-01 6.632335e-02 -2.085522e-01 6.286010e-01 7.201686e-01 1.029106e-01 3.873097e-01 1.027717e-01 -1.871638e-02 6.978575e-02 -3.661798e-02 3.745180e-02 -1.681449e-02 2.270334e-02 -8.939566e-04 1.749981e-02 1.047524e-02 1.646736e-02 2.033151e-02 1.722161e-02 
1.537927e-02 2.849151e-03 5.806144e-02 -1.301531e-01 -3.100307e+00 3.813396e-02 3.303168e-03 -2.616634e-02 3.398409e-03 -5.521772e-02 4.158851e-02 -1.422740e-01 1.654729e-01 -2.968803e-01 -4.487817e-02 -3.957296e-02 1.182555e+01 1.273084e+01 2.448679e+00 -2.990930e-02 6.228816e-01 8.338617e+00 1.261631e+01 6.152422e+00 7.660760e-01 -2.002480e+00 6.730689e+00 1.391444e+01 6.701552e+00 1.836112e+00 -3.057281e-01 9.192362e-01 1.260911e+01 1.265433e+01 2.126896e+00 -1.623947e-01 8.318670e-01 9.224362e+00 1.330522e+01 6.175025e+00 7.280426e-01 -2.035549e+00 6.976952e+00 1.419520e+01 6.767381e+00 1.868766e+00 -3.342294e-01 7.494647e-01 1.320921e+01 1.376879e+01 1.990780e+00 8.040309e-01 -2.853675e-01 9.150346e-02 -9.139025e-02 2.877180e-02 -2.704319e-02 1.387221e-02 -5.964607e-03 9.400278e-03 3.195516e-03 8.068743e-03 9.137769e-03 7.940692e-03 
-2.071166e-03 -5.550329e-03 1.843059e-02 -6.667223e-02 5.897898e-01 7.276802e-02 3.269378e-02 -9.431399e-03 1.798399e-02 -4.539955e-02 5.642388e-02 -1.606420e-01 2.252459e-01 -4.444986e-01 8.281514e-02 3.683556e-01 1.690707e+01 1.783927e+01 2.608065e+00 -2.681169e-01 1.487102e+00 1.199601e+01 1.736766e+01 8.283917e+00 7.477658e-01 -2.543457e+00 1.010170e+01 1.948588e+01 8.547199e+00 2.185916e+00 -2.622171e-01 1.708695e+00 1.784209e+01 1.743709e+01 2.163089e+00 -4.508321e-01 1.832248e+00 1.306993e+01 1.805226e+01 8.123479e+00 6.868750e-01 -2.555513e+00 1.034762e+01 1.959493e+01 8.503768e+00 2.156070e+00 -2.710823e-01 1.487301e+00 1.859252e+01 1.882383e+01 1.900627e+00 9.161727e-01 -3.799993e-01 7.866947e-02 -1.094335e-01 1.433062e-02 -3.143110e-02 3.634326e-03 -1.089253e-02 7.045976e-04 -4.952416e-03 -6.305360e-04 -3.089624e-03 -1.451737e-03 
-1.925884e-02 -1.430518e-02 -2.055513e-02 3.106119e-03 4.307665e+00 1.092412e-01 5.917137e-02 2.593620e-02 1.595765e-02 2.907623e-02 -5.961336e-03 7.369112e-02 -7.890746e-02 2.096836e-01 -7.575482e-02 -2.018880e-01 -5.808000e+00 -5.925944e+00 -8.259399e-01 2.018664e-01 -6.482034e-01 -4.270629e+00 -5.966993e+00 -2.700676e+00 -2.526748e-01 8.721310e-01 -3.711172e+00 -6.882341e+00 -2.902400e+00 -6.746469e-01 6.503929e-02 -7.323461e-01 -6.484475e+00 -6.150115e+00 -6.685361e-01 1.908670e-01 -7.672032e-01 -4.890927e+00 -6.518594e+00 -2.833515e+00 -1.896581e-01 8.664703e-01 -3.959746e+00 -7.255265e+00 -3.005100e+00 -7.509541e-01 1.203605e-01 -7.239991e-01 -7.091604e+00 -6.975371e+00 -5.743546e-01 -3.666000e-01 1.343421e-01 -4.199474e-02 3.509272e-02 -1.145099e-02 4.511157e-03 -7.729058e-03 -5.008096e-03 -8.217115e-03 -9.824329e-03 -9.484720e-03 -1.424731e-02 -1.094303e-02 