# vtk DataFile Version 2.0
Comment goes here
ASCII

DATASET STRUCTURED_POINTS
FIELD FieldData 1
TIME 1 1 double
0.08900000
DIMENSIONS    64   64   1

ORIGIN    0.000   0.000   0.000
SPACING   0.03125 0.03125   1.000

POINT_DATA   4096
SCALARS P double
LOOKUP_TABLE default

-2.994883e+02 1.930777e+03 5.167983e+03 9.331787e+03 6.235672e+03 6.162848e+03 9.296706e+03 7.296998e+03 8.435481e+03 5.943905e+03 7.005130e+03 5.121211e+03 5.910559e+03 3.111173e+03 5.290400e+03 3.537160e+03 4.035114e+03 6.953339e+02 3.672395e+03 3.462931e+03 4.848950e+03 2.681978e+03 2.030268e+03 7.858767e+02 1.034941e+03 -4.308878e+03 -5.778728e+03 3.805939e+03 1.129019e+04 1.068217e+04 5.167447e+03 -1.252929e+01 8.156684e+02 3.074039e+03 4.255480e+03 9.750515e+02 -7.434672e+02 -9.916135e+02 -9.097887e+02 5.866770e+02 -1.258049e+02 6.802443e+02 -7.279377e+02 -2.729988e+03 -6.489852e+03 -9.491868e+03 -1.266988e+04 -1.370369e+04 -1.726686e+04 -1.843729e+04 -2.263122e+04 -2.389911e+04 -2.622211e+04 -2.511938e+04 -2.642505e+04 -2.335700e+04 -2.395656e+04 -1.951181e+04 -1.860057e+04 -1.192310e+04 -1.069041e+04 -3.379419e+03 3.178699e+02 2.932245e+03 
-4.363662e+02 2.734011e+03 3.700210e+03 8.921500e+03 5.970268e+03 5.291266e+03 7.362491e+03 4.679533e+03 7.512202e+03 5.075490e+03 7.430743e+03 4.960626e+03 5.986236e+03 1.831750e+03 4.213129e+03 3.298731e+03 5.096129e+03 2.523731e+03 6.007989e+03 5.401607e+03 6.766896e+03 3.584446e+03 3.668217e+03 2.259645e+03 2.446010e+03 -2.514668e+03 -4.201572e+03 4.418596e+03 1.145529e+04 1.176717e+04 8.639019e+03 5.540302e+03 6.788708e+03 7.648071e+03 7.294858e+03 4.180467e+03 2.061786e+03 9.341666e+02 1.139208e+03 3.102143e+03 2.410703e+03 4.248315e+03 4.564569e+03 3.560758e+03 5.975631e+02 -1.371358e+03 -4.321438e+03 -5.440539e+03 -7.745112e+03 -8.034909e+03 -1.137989e+04 -1.166213e+04 -1.330824e+04 -1.329149e+04 -1.615206e+04 -1.515503e+04 -1.636481e+04 -1.361069e+04 -1.449182e+04 -1.003931e+04 -1.035672e+04 -4.345540e+03 -3.126416e+03 2.771650e+03 
5.810674e+02 5.425512e+03 4.050941e+03 9.021675e+03 6.730038e+03 6.148832e+03 7.540593e+03 4.802611e+03 8.569401e+03 5.917812e+03 8.819609e+03 5.321178e+03 7.695335e+03 3.198214e+03 6.195638e+03 4.448354e+03 7.452307e+03 5.734567e+03 8.892001e+03 6.904644e+03 8.470906e+03 5.765677e+03 6.794861e+03 4.774772e+03 4.582855e+03 2.329331e+03 1.458241e+03 7.723022e+03 9.022720e+03 9.656456e+03 1.063138e+04 9.620543e+03 1.160767e+04 1.042929e+04 9.472277e+03 6.529371e+03 4.939466e+03 3.394662e+03 3.019535e+03 4.529753e+03 4.930696e+03 6.714474e+03 7.612550e+03 7.652164e+03 5.253910e+03 4.323412e+03 1.909369e+03 8.605426e+02 -3.233456e+02 2.797621e+02 -2.503752e+03 -1.742427e+03 -3.343235e+03 -3.565498e+03 -7.159714e+03 -6.706879e+03 -8.703309e+03 -6.344582e+03 -8.906573e+03 -5.686905e+03 -7.920193e+03 -2.503213e+03 -3.942035e+03 2.583641e+03 
-1.363387e+03 3.514129e+03 2.147935e+03 6.522523e+03 4.829244e+03 4.413258e+03 6.239055e+03 3.997539e+03 7.297760e+03 4.626801e+03 7.545859e+03 4.267444e+03 6.927943e+03 3.286826e+03 6.118936e+03 3.787403e+03 6.626646e+03 4.580299e+03 7.422337e+03 5.046064e+03 7.001403e+03 4.204013e+03 5.794276e+03 3.094092e+03 3.952131e+03 1.347302e+03 -8.239671e+02 4.522040e+03 8.853668e+03 1.087688e+04 1.190443e+04 9.763866e+03 9.519500e+03 8.513239e+03 7.531786e+03 6.018754e+03 4.855914e+03 3.956785e+03 3.478456e+03 4.314870e+03 4.321595e+03 5.421375e+03 5.426909e+03 5.476874e+03 3.663301e+03 2.965993e+03 8.052603e+02 7.763609e+01 -1.712555e+03 -1.505962e+03 -3.965278e+03 -3.556844e+03 -5.933850e+03 -5.927244e+03 -9.194935e+03 -8.412373e+03 -1.099096e+04 -8.667123e+03 -1.131183e+04 -7.599454e+03 -9.702375e+03 -4.397031e+03 -5.923276e+03 1.118318e+02 
-2.803797e+02 5.098702e+03 3.520429e+03 8.083697e+03 6.103800e+03 5.396759e+03 8.006798e+03 5.528652e+03 9.059890e+03 5.814450e+03 9.305941e+03 5.538795e+03 8.844214e+03 4.920330e+03 8.239629e+03 5.162508e+03 8.366743e+03 5.568671e+03 8.557792e+03 5.735084e+03 8.131335e+03 5.031038e+03 6.988375e+03 3.724624e+03 4.412752e+03 7.032336e+02 -4.397632e+03 -1.773548e+03 -1.091853e+03 -7.461441e+02 9.521062e+03 8.509463e+03 9.581381e+03 8.341814e+03 8.189413e+03 6.728132e+03 6.175508e+03 5.353336e+03 5.055101e+03 5.331681e+03 5.234275e+03 5.773043e+03 5.499374e+03 5.564804e+03 4.168949e+03 3.883031e+03 2.061773e+03 1.849176e+03 -3.701854e+01 3.111834e+02 -2.187229e+03 -1.606249e+03 -4.272367e+03 -3.695389e+03 -7.034689e+03 -5.803341e+03 -9.011472e+03 -6.412516e+03 -9.591122e+03 -5.476125e+03 -8.182932e+03 -2.669750e+03 -4.586224e+03 1.439326e+03 
-2.388316e+03 3.037877e+03 1.817977e+03 6.158115e+03 4.520225e+03 3.895556e+03 6.694043e+03 4.334355e+03 7.819365e+03 4.637355e+03 8.125203e+03 4.536263e+03 7.862344e+03 4.242963e+03 7.445971e+03 4.312403e+03 7.350367e+03 4.470893e+03 7.291715e+03 4.329085e+03 6.799017e+03 3.405437e+03 5.784783e+03 1.340097e+03 3.509007e+03 -3.669324e+03 -1.281286e+03 -1.310973e+04 -1.126394e+04 -1.025826e+04 -2.642252e+02 3.777171e+03 5.551278e+03 6.095292e+03 6.126670e+03 5.710325e+03 5.294746e+03 4.922277e+03 4.590336e+03 4.737069e+03 4.473182e+03 4.761999e+03 4.256673e+03 4.240539e+03 2.962741e+03 2.675981e+03 9.155589e+02 6.631591e+02 -1.376498e+03 -1.287285e+03 -3.850672e+03 -3.570773e+03 -6.597423e+03 -6.194083e+03 -9.819119e+03 -8.740676e+03 -1.249251e+04 -9.964241e+03 -1.354068e+04 -8.998824e+03 -1.173287e+04 -5.846874e+03 -7.433076e+03 -1.258789e+03 
-9.009363e+02 5.232477e+03 3.841177e+03 8.833077e+03 6.755360e+03 5.444294e+03 9.213801e+03 6.045788e+03 1.032017e+04 6.241143e+03 1.049469e+04 6.081120e+03 1.010447e+04 5.776737e+03 9.544519e+03 5.679600e+03 9.144881e+03 5.624241e+03 8.760708e+03 5.348711e+03 8.169360e+03 4.516150e+03 7.313973e+03 2.928566e+03 6.306910e+03 -7.552060e+02 6.936603e+03 -2.596360e+03 -7.282241e+03 -6.951389e+02 3.122164e+03 6.551425e+03 7.451473e+03 7.265125e+03 7.373000e+03 6.630111e+03 6.486118e+03 5.940463e+03 5.771631e+03 5.645051e+03 5.416958e+03 5.460040e+03 4.961401e+03 4.922500e+03 3.828184e+03 3.753515e+03 2.150467e+03 2.241359e+03 1.763299e+02 5.734753e+02 -2.105574e+03 -1.532186e+03 -4.781206e+03 -4.062174e+03 -7.988410e+03 -6.697470e+03 -1.100910e+04 -8.246702e+03 -1.248273e+04 -7.381945e+03 -1.086085e+04 -4.495736e+03 -6.385016e+03 2.863804e+02 
-2.893074e+03 3.388945e+03 2.644129e+03 7.470715e+03 5.700433e+03 3.991422e+03 8.115478e+03 4.736974e+03 9.125220e+03 5.018189e+03 9.265125e+03 4.987573e+03 8.931976e+03 4.831262e+03 8.439157e+03 4.741362e+03 7.997233e+03 4.648575e+03 7.535521e+03 4.357330e+03 6.844214e+03 3.574124e+03 5.900717e+03 1.605077e+03 3.812136e+03 -2.515046e+03 -9.572792e+03 -1.720131e+04 -1.030095e+04 2.016736e+03 3.066094e+03 6.040545e+03 5.737096e+03 6.148927e+03 6.009260e+03 5.774362e+03 5.591287e+03 5.268419e+03 5.097059e+03 4.931577e+03 4.700268e+03 4.633230e+03 4.147891e+03 4.024581e+03 2.989246e+03 2.797324e+03 1.228478e+03 1.110406e+03 -9.612146e+02 -8.773803e+02 -3.633151e+03 -3.484356e+03 -7.077861e+03 -6.860053e+03 -1.138600e+04 -1.077593e+04 -1.604446e+04 -1.380435e+04 -1.899086e+04 -1.304955e+04 -1.654738e+04 -9.203039e+03 -1.013160e+04 -2.760723e+03 
-1.219397e+03 6.264095e+03 5.588541e+03 1.148858e+04 9.094810e+03 6.175358e+03 1.169730e+04 6.897561e+03 1.247778e+04 6.984939e+03 1.223735e+04 6.745576e+03 1.152040e+04 6.405001e+03 1.066942e+04 6.128015e+03 9.866294e+03 5.880839e+03 9.090488e+03 5.525017e+03 8.239824e+03 4.757102e+03 7.169972e+03 3.292311e+03 5.509428e+03 -1.665725e+03 -9.445703e+03 -1.225171e+04 -7.689937e+03 5.476585e+03 8.558935e+03 8.177952e+03 8.094875e+03 7.275194e+03 7.304706e+03 6.577415e+03 6.616231e+03 6.118854e+03 6.113392e+03 5.833879e+03 5.687109e+03 5.488347e+03 5.087164e+03 4.887308e+03 3.999477e+03 3.918893e+03 2.473036e+03 2.693416e+03 5.772884e+02 1.095352e+03 -1.851049e+03 -1.342108e+03 -5.150455e+03 -4.805150e+03 -9.737413e+03 -9.404507e+03 -1.544866e+04 -1.355338e+04 -1.969748e+04 -1.248429e+04 -1.703525e+04 -8.978939e+03 -9.799042e+03 -1.629732e+03 
-2.409174e+03 5.186505e+03 5.452375e+03 1.095487e+04 8.864068e+03 4.738653e+03 1.087268e+04 5.500896e+03 1.126154e+04 5.655624e+03 1.086075e+04 5.536486e+03 1.014185e+04 5.334756e+03 9.353258e+03 5.156805e+03 8.615126e+03 5.003027e+03 7.916993e+03 4.833059e+03 7.008091e+03 4.793225e+03 6.229377e+03 3.823961e+03 6.566717e+03 1.672392e+03 1.904695e+02 -1.161273e+03 -1.401185e+02 6.436200e+03 8.175234e+03 6.954187e+03 7.088912e+03 6.362433e+03 6.535969e+03 5.945255e+03 5.955460e+03 5.430191e+03 5.490645e+03 5.077815e+03 5.073124e+03 4.810677e+03 4.636896e+03 4.408732e+03 3.594554e+03 3.340618e+03 1.928116e+03 1.787417e+03 -1.540866e+02 6.668835e+00 -2.839782e+03 -2.936287e+03 -7.135806e+03 -7.609191e+03 -1.347791e+04 -1.483053e+04 -2.280550e+04 -2.348768e+04 -3.216846e+04 -2.270345e+04 -2.651623e+04 -1.626109e+04 -1.459656e+04 -4.869293e+03 
-8.114961e+02 9.139272e+03 9.998951e+03 1.713190e+04 1.412444e+04 7.814933e+03 1.594877e+04 8.266785e+03 1.561668e+04 7.994858e+03 1.443658e+04 7.475174e+03 1.305187e+04 6.938090e+03 1.172617e+04 6.503087e+03 1.053523e+04 6.196013e+03 9.444614e+03 5.942899e+03 8.252886e+03 5.804089e+03 6.742487e+03 5.845134e+03 3.367770e+03 1.194603e+02 4.780053e+02 1.849726e+03 -1.556352e+03 3.854595e+03 5.789269e+03 6.289620e+03 7.310215e+03 6.669084e+03 7.049147e+03 6.242035e+03 6.522470e+03 6.091339e+03 6.350691e+03 6.066766e+03 6.120693e+03 5.769105e+03 5.689386e+03 5.192338e+03 4.568995e+03 4.287234e+03 3.095193e+03 3.420647e+03 1.374959e+03 2.217317e+03 -1.048064e+03 -6.181427e+02 -4.975503e+03 -5.450056e+03 -1.190223e+04 -1.488348e+04 -2.469239e+04 -3.062704e+04 -4.087996e+04 -2.713641e+04 -2.984716e+04 -1.889922e+04 -1.607910e+04 -5.425722e+03 
7.143924e+02 1.008765e+04 1.186765e+04 1.779660e+04 1.502752e+04 6.348868e+03 1.520676e+04 6.697380e+03 1.413522e+04 6.477780e+03 1.274459e+04 6.119835e+03 1.139447e+04 5.783942e+03 1.018344e+04 5.525672e+03 9.122551e+03 5.330418e+03 8.280579e+03 5.225118e+03 6.673028e+03 4.849499e+03 4.543017e+03 5.412176e+03 -2.455670e+03 -4.128111e+02 4.814875e+03 4.845312e+03 1.669157e+03 3.008520e+03 3.227375e+03 3.147207e+03 6.459710e+03 6.085922e+03 6.974408e+03 6.114451e+03 6.147391e+03 5.373558e+03 5.797704e+03 5.126561e+03 5.457908e+03 5.123926e+03 5.719374e+03 5.419567e+03 4.782539e+03 4.324567e+03 3.004121e+03 2.619730e+03 1.158402e+03 1.893240e+03 -6.720021e+02 -1.097801e+03 -5.950600e+03 -7.291797e+03 -1.514616e+04 -2.150889e+04 -3.613866e+04 -5.539058e+04 -7.280055e+04 -5.240942e+04 -4.665565e+04 -3.080550e+04 -2.167611e+04 -7.755530e+03 
1.340908e+03 1.674274e+04 1.982302e+04 2.800185e+04 2.358645e+04 1.069401e+04 2.232379e+04 1.016136e+04 1.954594e+04 9.158455e+03 1.680716e+04 8.171481e+03 1.449835e+04 7.336909e+03 1.262949e+04 6.705703e+03 1.111734e+04 6.462031e+03 9.827632e+03 5.972637e+03 9.339241e+03 7.735849e+03 8.241665e+03 9.013689e+03 9.175949e+03 2.895754e+03 7.413642e+03 5.024796e+03 -8.644055e+03 -5.784278e+03 -1.261591e+03 -1.912582e+03 5.700263e+03 4.992343e+03 6.686933e+03 5.490451e+03 5.888773e+03 5.825602e+03 6.539852e+03 6.482886e+03 6.668756e+03 6.289103e+03 6.900503e+03 5.748696e+03 5.405969e+03 4.555365e+03 3.908035e+03 4.427088e+03 2.706791e+03 4.579145e+03 7.315863e+02 1.301133e+03 -3.348075e+03 -3.931476e+03 -1.235265e+04 -2.130283e+04 -3.949416e+04 -7.287884e+04 -1.001331e+05 -6.828378e+04 -5.677201e+04 -3.864543e+04 -2.827149e+04 -1.386081e+04 
1.044424e+04 2.238974e+04 2.451935e+04 2.955642e+04 2.488371e+04 8.927511e+03 2.074380e+04 8.167238e+03 1.723644e+04 7.311724e+03 1.453818e+04 6.618845e+03 1.247940e+04 6.117233e+03 1.084904e+04 5.808992e+03 9.389534e+03 5.639373e+03 8.129362e+03 5.216508e+03 7.781020e+03 3.489765e+03 4.873771e+03 1.462980e+03 5.579695e+03 1.299897e+03 8.481712e+03 6.776564e+03 -1.889770e+03 -8.676430e+03 -4.472391e+03 -2.499408e+03 4.354204e+03 4.681064e+03 7.144255e+03 6.652030e+03 5.494444e+03 4.571115e+03 5.902340e+03 4.793139e+03 5.103586e+03 4.988097e+03 7.831312e+03 7.562121e+03 6.603928e+03 5.883506e+03 4.180496e+03 2.352221e+03 2.227162e+03 5.732521e+03 4.583002e+03 3.427466e+03 -2.190840e+03 -2.276647e+03 -1.144574e+04 -2.169394e+04 -4.443016e+04 -8.722488e+04 -1.317148e+05 -9.560333e+04 -8.027576e+04 -5.012067e+04 -3.108933e+04 -1.103345e+04 
5.854635e+03 3.739513e+04 4.044555e+04 4.681264e+04 3.908963e+04 1.469814e+04 3.006417e+04 1.220026e+04 2.331706e+04 1.015988e+04 1.869203e+04 8.643459e+03 1.547472e+04 7.503795e+03 1.315834e+04 6.567686e+03 1.146243e+04 5.043059e+03 1.035615e+04 5.927462e+03 7.631932e+03 4.901210e+03 6.761393e+03 5.044687e+03 1.831436e+03 4.659713e+03 7.059767e+03 5.873383e+03 4.259242e+03 2.613209e+03 4.311179e+03 4.550728e+03 6.040991e+03 6.617106e+03 7.368129e+03 5.254145e+03 3.243384e+03 4.496260e+03 6.724864e+03 6.981194e+03 6.193280e+03 6.401895e+03 8.204631e+03 5.943116e+03 5.651717e+03 3.896571e+03 4.327129e+03 5.019654e+03 4.170203e+03 9.499155e+03 3.538532e+03 3.384096e+03 -4.682248e+02 1.033479e+03 -8.383791e+03 -1.657209e+04 -3.378797e+04 -7.572829e+04 -1.195238e+05 -8.492376e+04 -6.651148e+04 -3.979075e+04 -4.767886e+04 -3.968454e+04 
3.536789e+04 5.191406e+04 4.521453e+04 4.488883e+04 3.555639e+04 1.164489e+04 2.530315e+04 9.302158e+03 1.933287e+04 7.837139e+03 1.560587e+04 6.867176e+03 1.309712e+04 6.222296e+03 1.130720e+04 5.893350e+03 1.014163e+04 6.125418e+03 7.755180e+03 6.501086e+03 8.162918e+03 4.415388e+03 5.524313e+03 -2.827312e+02 6.888005e+03 4.556021e+03 5.575600e+03 5.445151e+03 3.812754e+03 3.179007e+03 1.515576e+03 2.645454e+03 3.480651e+03 4.704022e+03 6.311100e+03 5.056411e+03 2.977030e+03 1.696173e+03 2.796187e+03 3.263948e+03 -7.158850e+02 2.252111e+02 1.265185e+04 1.390911e+04 9.207598e+03 9.878390e+03 5.825926e+03 -6.690771e+03 -2.990493e+03 1.435915e+04 1.691765e+04 8.671578e+03 1.474944e+03 1.251962e+04 3.401440e+03 -5.696258e+03 -2.015598e+04 -6.798504e+04 -1.333459e+05 -1.034517e+05 -5.632361e+04 -4.525316e+04 -8.870805e+04 -4.052954e+04 
3.115294e+04 7.846358e+04 7.536016e+04 6.920645e+04 5.707574e+04 1.775097e+04 3.492278e+04 1.316857e+04 2.471689e+04 1.039015e+04 1.907433e+04 8.633236e+03 1.552267e+04 7.425070e+03 1.305909e+04 6.495082e+03 1.127215e+04 5.784171e+03 1.015672e+04 4.682874e+03 6.071881e+03 5.725237e+03 4.609264e+03 4.741669e+03 9.937627e+03 4.446659e+03 5.083596e+03 4.466214e+03 4.761810e+03 5.253769e+03 5.255648e+03 6.490353e+03 6.413940e+03 6.819157e+03 7.192935e+03 9.266767e+03 7.494447e+03 7.392238e+03 2.122601e+03 -5.299099e+02 -4.582531e+03 2.817343e+03 6.307345e+03 6.874071e+03 5.005128e+03 1.342842e+03 1.205362e+03 7.738727e+02 9.248878e+01 1.515202e+04 8.827548e+03 1.181620e+03 4.023667e+03 1.607529e+04 8.170243e+03 -6.540152e+03 -2.760977e+04 -5.480913e+04 -9.722961e+04 -6.324725e+04 -6.218673e+04 -9.971620e+04 -1.374233e+05 -9.135230e+04 
1.284988e+04 3.543851e+04 3.803558e+04 3.864973e+04 3.408291e+04 1.108966e+04 2.439741e+04 9.119177e+03 1.887985e+04 7.732831e+03 1.533472e+04 6.749191e+03 1.289094e+04 6.028247e+03 1.114990e+04 5.393156e+03 9.886222e+03 4.464590e+03 8.982968e+03 2.922081e+03 5.992074e+03 4.227511e+03 6.591922e+03 3.066416e+03 7.192870e+03 4.954021e+03 3.339164e+03 5.396398e+03 3.803896e+03 4.495615e+03 3.392583e+03 4.675759e+03 4.317310e+03 5.217130e+03 3.276831e+03 4.132709e+03 1.546665e+02 2.834588e+03 9.731366e+03 7.927863e+03 -3.897957e+03 -1.207865e+03 7.267144e+03 3.927376e+03 1.009368e+04 5.842632e+03 -2.548299e+03 -2.947749e+03 -1.365341e+03 1.674603e+04 5.178007e+02 -1.189438e+04 1.619814e+03 2.686721e+04 1.778973e+04 -1.637485e+04 -5.830116e+04 -5.626836e+04 -7.120032e+04 -5.543567e+04 -1.193841e+05 -1.406210e+05 -8.647737e+04 -2.581724e+04 
-1.241695e+04 2.067884e+04 3.172394e+04 3.729758e+04 3.374321e+04 1.270622e+04 2.677175e+04 1.089145e+04 2.123134e+04 9.245291e+03 1.726728e+04 7.966646e+03 1.443190e+04 6.993239e+03 1.234521e+04 6.241294e+03 1.080327e+04 5.706716e+03 9.358799e+03 4.751037e+03 7.852173e+03 4.850236e+03 3.385716e+03 4.758831e+03 2.628958e+03 4.660912e+03 4.463688e+03 7.472887e+03 5.304073e+03 6.545483e+03 5.795527e+03 7.209637e+03 6.518176e+03 6.783611e+03 4.127109e+03 4.230015e+03 3.684220e+03 3.070862e+03 1.023460e+04 9.073737e+03 6.115288e+03 8.580776e+03 1.146045e+04 3.452149e+03 7.536763e+03 -1.911796e+03 1.914304e+03 1.765933e+04 2.080270e+04 2.290077e+04 2.737914e+03 -9.119147e+03 -2.779817e+03 2.160050e+04 1.193405e+04 -1.940694e+04 -5.059047e+04 -3.297100e+04 -2.682496e+04 -1.421050e+04 -8.506556e+04 -1.548140e+05 -1.670881e+05 -8.917058e+04 
4.517329e+03 1.770649e+04 2.011426e+04 2.504040e+04 2.264609e+04 8.609404e+03 1.924656e+04 7.926730e+03 1.634099e+04 7.083514e+03 1.394641e+04 6.324983e+03 1.204308e+04 5.672985e+03 1.054598e+04 5.072207e+03 9.320659e+03 4.449839e+03 8.251291e+03 3.315444e+03 6.623222e+03 2.334072e+03 6.219344e+03 4.269336e+03 6.492297e+03 -1.269280e+03 3.412595e+03 5.786234e+03 3.822015e+03 3.813170e+03 3.044713e+03 5.023488e+03 3.924286e+03 4.925048e+03 3.542253e+03 4.062365e+03 2.025955e+03 2.376696e+03 -4.276322e+02 1.321194e+02 1.614586e+03 1.945200e+03 2.425145e+03 2.763426e+03 1.552787e+03 2.232199e+03 3.480443e+03 3.506457e+03 9.926861e+02 6.224083e+03 1.919464e+03 2.432938e+03 -7.514701e+02 -9.358705e+02 -8.884176e+03 -1.227776e+04 -2.929123e+04 -2.908813e+04 -4.509337e+04 -3.904305e+04 -5.237788e+04 -4.921759e+04 -3.401903e+04 -1.006905e+04 
-1.692765e+04 1.808772e+03 9.163483e+03 1.715501e+04 1.605856e+04 7.786548e+03 1.726453e+04 8.018955e+03 1.604976e+04 7.539381e+03 1.425939e+04 6.904846e+03 1.254407e+04 6.305736e+03 1.106117e+04 5.809568e+03 9.806041e+03 5.447921e+03 8.756845e+03 5.409106e+03 8.073475e+03 5.356784e+03 9.073750e+03 5.251773e+03 1.122971e+04 6.317810e+03 5.217193e+03 6.353772e+03 5.292534e+03 5.306443e+03 5.463054e+03 8.176455e+03 6.959694e+03 7.455230e+03 6.365833e+03 6.114536e+03 5.904694e+03 6.156910e+03 8.337336e+03 7.124123e+03 5.033584e+03 6.612889e+03 7.803024e+03 4.677358e+03 6.138324e+03 4.705974e+03 5.025780e+03 8.684806e+03 8.238579e+03 9.651444e+03 3.872400e+03 1.656997e+03 -1.087711e+03 3.089557e+03 -4.866565e+03 -9.846631e+03 -2.416342e+04 -2.031556e+04 -3.058774e+04 -2.713482e+04 -4.953236e+04 -5.958554e+04 -6.392071e+04 -3.831657e+04 
2.981403e+03 1.153771e+04 1.142241e+04 1.692549e+04 1.410877e+04 6.582404e+03 1.426305e+04 6.574607e+03 1.333791e+04 6.205250e+03 1.205629e+04 5.724130e+03 1.076823e+04 5.229838e+03 9.581857e+03 4.738771e+03 8.484468e+03 4.260389e+03 7.426102e+03 3.761260e+03 6.095622e+03 3.500760e+03 5.047452e+03 2.893821e+03 4.008073e+03 1.961656e+01 2.730407e+03 4.897550e+03 2.081949e+03 -7.974648e+02 -3.032754e+01 5.941966e+03 5.410064e+03 5.628932e+03 4.793216e+03 4.772412e+03 4.322654e+03 4.147996e+03 4.424612e+03 3.501007e+03 1.694973e+03 1.840163e+03 2.573717e+03 2.172802e+03 1.847883e+03 1.928320e+03 1.223867e+03 1.847984e+03 2.067889e+02 2.602300e+03 -5.868435e+02 8.374087e+02 -3.220988e+03 -2.327175e+03 -8.601329e+03 -8.151786e+03 -1.812671e+04 -1.588166e+04 -2.383180e+04 -1.779937e+04 -2.134935e+04 -1.485513e+04 -1.158147e+04 -4.371564e+02 
-1.254234e+04 -1.686668e+03 9.536051e+02 7.754076e+03 6.878229e+03 4.616105e+03 1.046895e+04 5.672720e+03 1.143658e+04 5.901201e+03 1.116470e+04 5.767247e+03 1.041239e+04 5.503997e+03 9.517125e+03 5.224762e+03 8.612737e+03 4.969678e+03 7.739905e+03 4.706945e+03 6.929608e+03 4.281830e+03 6.057426e+03 3.273546e+03 5.098426e+03 1.279132e+03 4.448678e+03 5.537586e+03 3.183011e+03 7.280856e+01 1.203465e+03 8.579349e+03 8.308186e+03 7.364772e+03 6.059248e+03 5.736743e+03 5.427784e+03 5.622176e+03 5.929289e+03 5.695094e+03 4.994438e+03 5.244986e+03 5.130506e+03 4.303138e+03 4.287975e+03 4.053103e+03 3.533442e+03 4.722908e+03 3.293058e+03 4.202640e+03 7.021465e+02 8.612423e+02 -3.245291e+03 -1.824500e+03 -8.111030e+03 -7.910455e+03 -1.612429e+04 -1.379351e+04 -2.179410e+04 -1.880815e+04 -2.809902e+04 -2.604113e+04 -2.897582e+04 -1.768401e+04 
3.037376e+03 9.226174e+03 7.566464e+03 1.252320e+04 9.440444e+03 5.247181e+03 1.070185e+04 5.449000e+03 1.074679e+04 5.351884e+03 1.019559e+04 5.093295e+03 9.403182e+03 4.764731e+03 8.533216e+03 4.410276e+03 7.641776e+03 4.054891e+03 6.717898e+03 3.704674e+03 5.658739e+03 3.309890e+03 3.935496e+03 2.338297e+03 6.389315e+02 -3.375362e+03 -2.552943e+03 1.140354e+03 -3.974258e+03 -9.526231e+03 -1.026023e+04 -4.320459e+02 4.131112e+03 4.627879e+03 4.194347e+03 4.006738e+03 3.411262e+03 3.458846e+03 3.225454e+03 3.006912e+03 1.991552e+03 1.853357e+03 1.327392e+03 1.347396e+03 5.414180e+02 9.122466e+02 -1.163673e+02 7.157689e+02 -8.178848e+02 6.402944e+02 -1.911949e+03 -4.484999e+02 -3.907045e+03 -2.497806e+03 -7.050769e+03 -5.358045e+03 -1.089460e+04 -7.806661e+03 -1.184497e+04 -6.718900e+03 -8.792247e+03 -3.113659e+03 -3.433881e+03 3.410106e+03 
-7.776889e+03 -1.103102e+03 -1.083415e+03 4.032081e+03 3.004928e+03 2.854682e+03 6.444813e+03 4.026688e+03 8.068041e+03 4.565437e+03 8.559043e+03 4.735072e+03 8.433592e+03 4.713075e+03 7.990368e+03 4.601957e+03 7.378380e+03 4.439756e+03 6.637931e+03 4.179447e+03 5.670033e+03 3.632183e+03 3.770267e+03 1.863415e+03 -1.213549e+03 -3.655411e+03 -5.105024e+03 -2.833317e+03 -8.572174e+03 -9.618753e+03 -8.773808e+03 -4.812592e+03 7.515649e+02 2.888191e+03 3.605254e+03 3.832629e+03 3.835286e+03 4.323390e+03 4.595053e+03 4.672124e+03 4.223702e+03 4.067396e+03 3.349970e+03 3.007116e+03 2.187204e+03 2.217899e+03 1.393177e+03 2.205042e+03 6.645767e+02 1.393976e+03 -1.380806e+03 -5.902586e+02 -4.203622e+03 -3.114061e+03 -7.616865e+03 -6.309152e+03 -1.149481e+04 -9.110874e+03 -1.391773e+04 -1.039477e+04 -1.520550e+04 -1.142027e+04 -1.420312e+04 -7.816370e+03 
3.749929e+03 8.328689e+03 5.996928e+03 1.012513e+04 7.171116e+03 4.359372e+03 8.397638e+03 4.586308e+03 8.757289e+03 4.617219e+03 8.589961e+03 4.506885e+03 8.132520e+03 4.312989e+03 7.523161e+03 4.071675e+03 6.834257e+03 3.801408e+03 6.108167e+03 3.532012e+03 5.401878e+03 3.437066e+03 4.441429e+03 3.420530e+03 2.863665e+03 2.382160e+03 3.012330e+03 1.791018e+03 -3.763830e+03 -6.191279e+03 -4.410885e+03 -4.137982e+02 1.210139e+03 2.191634e+03 1.952383e+03 2.176593e+03 1.318668e+03 2.110547e+03 2.022720e+03 2.620368e+03 1.609500e+03 1.385884e+03 1.280846e+02 3.090951e+02 -1.083213e+03 -5.231194e+02 -1.475735e+03 -4.333338e+02 -1.445114e+03 -5.213741e+02 -2.535797e+03 -1.055733e+03 -3.859329e+03 -2.304474e+03 -5.324923e+03 -3.499054e+03 -6.625344e+03 -3.402867e+03 -4.835500e+03 6.016004e+01 -1.574505e+03 2.737549e+03 9.925186e+02 5.627213e+03 
-4.011491e+03 2.585233e+02 -9.032898e+02 2.812084e+03 1.696361e+03 1.911335e+03 4.267649e+03 2.933774e+03 5.822229e+03 3.552228e+03 6.575031e+03 3.872719e+03 6.785532e+03 3.999571e+03 6.646017e+03 4.006776e+03 6.273713e+03 3.939765e+03 5.730591e+03 3.789095e+03 5.061069e+03 3.227551e+03 4.350901e+03 3.438082e+03 2.850214e+03 1.169152e+02 1.510207e+03 1.156120e+03 9.240259e+02 1.232146e+03 1.002244e+03 1.275804e+03 1.675607e+03 2.479780e+03 2.171827e+03 1.954352e+03 1.413321e+03 2.805578e+03 4.075708e+03 4.512764e+03 3.976520e+03 3.402361e+03 1.891705e+03 1.320165e+03 -4.573174e+02 -5.986598e+02 -9.706375e+02 4.812873e+02 -6.084930e+02 -2.334444e+02 -2.709396e+03 -1.446812e+03 -4.542896e+03 -3.809187e+03 -6.711243e+03 -5.382660e+03 -8.701070e+03 -6.136565e+03 -7.758281e+03 -3.102447e+03 -6.048493e+03 -2.998954e+03 -6.103483e+03 -2.227465e+03 
4.516977e+03 7.858851e+03 5.375507e+03 8.671038e+03 6.053890e+03 3.707659e+03 6.901512e+03 3.914501e+03 7.271005e+03 4.002530e+03 7.272518e+03 3.985985e+03 7.021737e+03 3.894326e+03 6.604517e+03 3.743316e+03 6.072462e+03 3.513212e+03 5.455134e+03 3.163071e+03 4.697768e+03 2.851506e+03 4.254959e+03 3.819419e+03 1.202455e+03 -8.774253e+02 1.225887e+03 1.688800e+03 1.882802e+03 2.288041e+03 2.721764e+03 2.402272e+03 2.086385e+03 2.383205e+03 1.281074e+03 2.106037e+02 -2.694638e+03 -5.513922e+02 1.386142e+03 3.627682e+03 2.037623e+03 6.475323e+02 -1.455689e+03 -1.177507e+03 -3.772193e+03 -3.037399e+03 -3.337391e+03 -1.440287e+03 -1.030676e+03 -1.340578e+03 -3.008349e+03 -1.099358e+03 -3.854364e+03 -2.390664e+03 -4.081699e+03 -3.246834e+03 -5.401089e+03 -2.377153e+03 -3.550846e+02 6.122119e+03 4.445581e+03 6.813830e+03 4.039171e+03 7.047512e+03 
-1.506836e+03 1.267410e+03 -2.519122e+02 2.425371e+03 1.373894e+03 1.370742e+03 3.098815e+03 2.205376e+03 4.360854e+03 2.803307e+03 5.129836e+03 3.183358e+03 5.493810e+03 3.392838e+03 5.545789e+03 3.468960e+03 5.338222e+03 3.448715e+03 4.871695e+03 3.695527e+03 4.597309e+03 2.277387e+03 2.942105e+03 3.295395e+03 2.130588e+03 1.042456e+03 2.004909e+03 2.738395e+03 3.296474e+03 4.366035e+03 3.617839e+03 2.796427e+03 2.138104e+03 3.490642e+03 1.588402e+03 -2.763323e+03 -5.531930e+03 -1.359869e+03 4.995378e+03 6.817553e+03 5.626282e+03 3.602322e+03 7.174326e+02 -8.003239e+02 -5.490652e+03 -7.063139e+03 -4.645688e+03 4.101627e+02 7.088232e+02 -1.403643e+03 -4.364063e+03 -1.106566e+03 -4.611662e+03 -5.411254e+03 -6.235676e+03 -6.291593e+03 -9.621430e+03 -7.446476e+03 -4.415440e+03 4.450884e+03 2.311366e+03 2.874402e+03 -1.168170e+03 9.235249e+02 
4.727687e+03 7.175408e+03 4.925339e+03 7.496723e+03 5.327309e+03 3.168246e+03 5.826645e+03 3.360480e+03 6.124752e+03 3.478210e+03 6.195416e+03 3.522615e+03 6.072603e+03 3.511131e+03 5.795159e+03 3.448980e+03 5.376039e+03 3.217205e+03 4.760456e+03 2.141643e+03 4.180604e+03 2.924228e+03 8.967433e+02 2.774699e+03 1.717382e+03 1.742073e+03 2.477843e+03 3.640453e+03 3.468751e+03 4.880969e+03 4.141230e+03 3.219990e+03 3.354954e+03 4.903705e+03 4.064466e+03 -3.270822e+03 -1.319084e+04 -1.077914e+04 -3.190047e+03 5.662434e+03 3.596396e+03 -1.742433e+03 -4.406450e+03 -3.766380e+03 -1.094629e+04 -9.790743e+03 -8.032095e+03 -1.913591e+03 3.196317e+03 -2.872079e+03 -4.673607e+03 1.976913e+02 -4.697707e+03 -3.336229e+03 -2.729756e+03 -5.434239e+03 -9.262326e+03 -7.054815e+03 -3.362273e+03 5.685392e+03 6.534248e+03 8.225319e+03 5.205831e+03 7.219658e+03 
-6.447696e+02 1.383627e+03 1.069079e+02 2.083178e+03 1.237716e+03 1.009701e+03 2.389658e+03 1.699473e+03 3.374911e+03 2.248401e+03 4.077090e+03 2.644919e+03 4.505675e+03 2.908479e+03 4.702906e+03 3.048439e+03 4.645163e+03 2.958909e+03 4.313322e+03 2.323451e+03 2.439996e+03 3.368393e+03 -4.169926e+02 9.347386e+02 2.583291e+03 1.536335e+03 3.091223e+03 2.084917e+03 4.270287e+03 6.263409e+03 2.575383e+03 2.453793e+03 3.438164e+03 4.440477e+03 1.014741e+03 -2.991232e+03 -6.890055e+03 -5.775918e+03 -1.743659e+02 6.315750e+03 6.475355e+03 3.112064e+03 6.646206e+02 -2.589940e+03 -1.915717e+04 -2.687788e+04 -1.314585e+04 5.447618e+03 9.192450e+03 -5.831992e+03 -1.093649e+04 3.493545e+03 -3.117921e+03 -1.125779e+04 -6.732424e+03 -4.019632e+03 -7.421456e+03 -5.983595e+03 -4.852871e+03 -4.971415e+02 -9.211782e+02 1.688918e+03 -6.757884e+02 1.167887e+03 
4.061733e+03 6.034582e+03 4.266762e+03 6.312617e+03 4.587230e+03 2.687937e+03 4.927255e+03 2.878255e+03 5.184098e+03 3.015493e+03 5.296643e+03 3.099133e+03 5.266976e+03 3.139723e+03 5.111256e+03 3.156284e+03 4.878657e+03 3.385969e+03 4.357581e+03 3.061247e+03 4.714690e+03 3.260045e+03 3.494419e+03 1.799055e+02 3.009113e+03 5.301305e+02 -1.203315e+03 4.119146e+03 6.073554e+03 2.217949e+03 1.217735e+03 2.246244e+03 3.940370e+03 3.051351e+03 -2.482090e+03 -1.033526e+04 -1.326721e+04 -1.311661e+04 -1.302232e+04 -5.438926e+03 -6.136350e+03 -5.234710e+03 -4.002699e+03 -2.103590e+03 -2.373322e+04 -1.841155e+04 -2.159484e+04 -1.031070e+04 -2.380401e+03 -1.270617e+04 -1.502092e+04 -1.353119e+03 -7.138922e+03 -5.973773e+03 -1.134761e+04 -9.472145e+03 -2.318698e+03 -9.043777e+02 -7.470048e+02 3.020548e+03 2.815064e+03 5.508684e+03 3.958583e+03 5.819422e+03 
-5.826245e+02 1.053338e+03 1.344402e+02 1.684155e+03 1.017197e+03 7.419691e+02 1.866217e+03 1.329616e+03 2.656051e+03 1.826427e+03 3.275656e+03 2.217946e+03 3.711416e+03 2.514713e+03 3.986598e+03 2.722393e+03 4.082696e+03 2.872003e+03 4.322936e+03 2.359978e+03 5.213515e+03 4.432617e+03 1.889004e+03 3.228521e+03 2.700766e+03 4.863390e+03 3.783178e+03 -1.305520e+03 4.553074e+03 3.179278e+03 3.500917e+02 2.399141e+03 3.731007e+03 4.399431e+03 -3.190347e+03 -3.384953e+02 -3.589390e+03 -1.280267e+04 -1.703389e+04 -7.168674e+03 -6.605663e+03 -5.665699e+03 -2.960642e+03 -5.270455e+03 -2.892970e+04 -1.997135e+04 -7.966823e+03 -2.846136e+04 -2.037513e+04 -1.166810e+04 -1.458707e+04 -6.594592e+03 -1.982227e+04 -1.026638e+04 -6.983375e+03 -1.769219e+04 -7.323769e+03 -3.614635e+03 -5.893425e+03 -4.068167e+03 -3.091630e+03 -5.610060e+02 -1.257458e+03 4.481323e+02 
3.079593e+03 4.812254e+03 3.462969e+03 5.178934e+03 3.787716e+03 2.252231e+03 4.114382e+03 2.446417e+03 4.373457e+03 2.598199e+03 4.526832e+03 2.712242e+03 4.583308e+03 2.807951e+03 4.578187e+03 2.917394e+03 4.564718e+03 3.035689e+03 3.816441e+03 3.556301e+03 1.998918e+03 3.782865e+03 3.742908e+03 1.240921e+03 1.374858e+03 -3.952964e+02 3.932275e+03 3.865867e+03 2.711003e+03 2.665569e+03 1.368631e+03 4.095405e+03 3.827745e+03 1.254342e+03 -4.974526e+02 -2.211042e+03 -6.938021e+03 -3.070800e+03 -4.201092e+03 4.003300e+01 -2.656235e+03 3.799421e+03 9.801687e+03 -4.338180e+03 -1.112852e+04 -1.527036e+04 -2.631999e+04 -2.986671e+04 -1.245638e+04 1.776630e+03 -4.749077e+03 -1.221636e+04 -2.607625e+03 -1.570290e+03 -1.106254e+04 -1.163373e+04 -3.799414e+03 -5.564472e+03 -3.828304e+03 -3.745722e+02 7.524350e+02 3.082591e+03 2.448660e+03 4.240938e+03 