# vtk DataFile Version 2.0
Comment goes here
ASCII

DATASET STRUCTURED_POINTS
FIELD FieldData 1
TIME 1 1 double
0.06100000
DIMENSIONS    64   64   1

ORIGIN    0.000   0.000   0.000
SPACING   0.03125 0.03125   1.000

POINT_DATA   4096
SCALARS P double
LOOKUP_TABLE default

-3.703890e+01 -2.067195e+02 -2.695237e+01 -2.175085e+02 8.632069e+01 1.325422e+02 -2.709556e+01 1.277740e+02 -3.611831e+01 1.194014e+02 -4.016585e+01 1.061195e+02 -3.861842e+01 8.833718e+01 -3.186353e+01 6.713258e+01 -2.290991e+01 4.519280e+01 -1.458739e+01 2.493844e+01 -1.039760e+01 1.198024e+01 -1.613438e+01 7.928099e+00 -2.856388e+01 6.796666e+00 -3.975080e+01 8.198709e-01 -4.412089e+01 -1.036105e+01 -4.661496e+01 -2.046507e+01 -4.971066e+01 -2.964070e+01 -5.409016e+01 -3.822707e+01 -5.699115e+01 -4.859580e+01 -5.910505e+01 -6.106321e+01 -5.660715e+01 -7.820821e+01 -5.404531e+01 -9.117666e+01 -5.736493e+01 -1.002280e+02 -6.233323e+01 -1.071823e+02 -7.027995e+01 -1.116612e+02 -7.878712e+01 -1.163477e+02 -8.431409e+01 -1.260498e+02 -8.316742e+01 -1.396035e+02 -8.000115e+01 -1.540165e+02 -7.221545e+01 -1.738207e+02 -5.802391e+01 -1.955109e+02 -4.364601e+01 -2.133493e+02 
-7.030904e+00 -1.334856e+02 -1.193742e+00 -1.421047e+02 8.244494e+01 1.170941e+02 -1.414905e+00 1.121345e+02 -7.142806e+00 1.055855e+02 -1.021939e+01 9.677666e+01 -1.059836e+01 8.590088e+01 -8.365784e+00 7.328226e+01 -5.010818e+00 6.020382e+01 -1.725550e+00 4.755407e+01 5.922444e-02 3.820401e+01 -2.878548e+00 3.322388e+01 -8.966043e+00 2.955936e+01 -1.407717e+01 2.305603e+01 -1.539202e+01 1.373365e+01 -1.582925e+01 5.211992e+00 -1.676136e+01 -2.751187e+00 -1.848926e+01 -1.031255e+01 -1.946855e+01 -1.867924e+01 -2.046501e+01 -2.787689e+01 -1.889208e+01 -3.986413e+01 -1.722730e+01 -4.947961e+01 -1.870881e+01 -5.720317e+01 -2.063145e+01 -6.408280e+01 -2.403021e+01 -6.955759e+01 -2.780263e+01 -7.485331e+01 -3.023791e+01 -8.256975e+01 -2.927524e+01 -9.186697e+01 -2.789955e+01 -1.008844e+02 -2.435945e+01 -1.126616e+02 -1.728795e+01 -1.254388e+02 -9.950071e+00 -1.369815e+02 
9.376156e+00 -8.841645e+01 1.139656e+01 -9.237493e+01 3.925508e+01 1.006396e+02 1.146630e+01 9.701861e+01 9.388619e+00 9.233590e+01 7.742388e+00 8.691621e+01 6.458671e+00 8.096964e+01 5.630124e+00 7.454943e+01 5.037714e+00 6.788755e+01 4.616510e+00 6.095308e+01 4.340404e+00 5.414044e+01 3.568572e+00 4.778440e+01 2.495316e+00 4.145495e+01 1.730095e+00 3.448505e+01 1.683295e+00 2.696961e+01 1.725260e+00 1.966005e+01 1.648918e+00 1.243027e+01 1.449307e+00 5.261942e+00 1.376605e+00 -1.924569e+00 1.117320e+00 -9.056783e+00 1.459675e+00 -1.678838e+01 1.998833e+00 -2.399370e+01 2.054381e+00 -3.102216e+01 2.312670e+00 -3.806080e+01 2.414534e+00 -4.475177e+01 2.469799e+00 -5.117618e+01 2.715124e+00 -5.775980e+01 3.505467e+00 -6.420366e+01 4.050936e+00 -7.001701e+01 4.881759e+00 -7.597412e+01 6.472208e+00 -8.172555e+01 8.291605e+00 -8.732831e+01 
9.238374e+00 -9.339342e+01 1.191074e+01 -9.716413e+01 1.496435e+01 1.044884e+02 1.185113e+01 1.003134e+02 9.136483e+00 9.509799e+01 7.157778e+00 8.917262e+01 5.787376e+00 8.267719e+01 4.940155e+00 7.571962e+01 4.432451e+00 6.851910e+01 4.087077e+00 6.125587e+01 3.706521e+00 5.424361e+01 2.961768e+00 4.763407e+01 1.982134e+00 4.107630e+01 1.245999e+00 3.408259e+01 1.030919e+00 2.667290e+01 1.056642e+00 1.925691e+01 1.068084e+00 1.190558e+01 1.025796e+00 4.589311e+00 1.036185e+00 -2.773929e+00 1.035219e+00 -1.024053e+01 1.312198e+00 -1.797266e+01 1.577874e+00 -2.542089e+01 1.525860e+00 -3.259615e+01 1.441340e+00 -3.957823e+01 1.236743e+00 -4.627695e+01 1.007243e+00 -5.281182e+01 9.872109e-01 -5.942685e+01 1.427325e+00 -6.600257e+01 2.115450e+00 -7.234560e+01 3.293874e+00 -7.871657e+01 5.129073e+00 -8.486049e+01 7.259245e+00 -9.023403e+01 
9.297308e+00 -9.037946e+01 1.141000e+01 -9.398348e+01 1.413353e+01 1.008069e+02 1.152117e+01 9.704207e+01 9.377557e+00 9.230848e+01 7.729351e+00 8.689676e+01 6.474089e+00 8.098138e+01 5.552712e+00 7.467331e+01 4.855476e+00 6.810021e+01 4.308851e+00 6.134539e+01 3.828598e+00 5.459008e+01 3.234164e+00 4.792442e+01 2.585920e+00 4.120472e+01 2.087582e+00 3.421042e+01 1.859529e+00 2.697266e+01 1.755122e+00 1.971552e+01 1.658155e+00 1.247688e+01 1.546922e+00 5.258697e+00 1.481130e+00 -1.963773e+00 1.434591e+00 -9.206798e+00 1.593451e+00 -1.658222e+01 1.829717e+00 -2.381836e+01 1.960669e+00 -3.092730e+01 2.130651e+00 -3.793335e+01 2.284039e+00 -4.475443e+01 2.465871e+00 -5.141652e+01 2.790369e+00 -5.800696e+01 3.348751e+00 -6.441683e+01 4.004000e+00 -7.050987e+01 4.903408e+00 -7.640082e+01 6.183562e+00 -8.195342e+01 7.695988e+00 -8.691197e+01 
8.571590e+00 -9.515690e+01 1.084101e+01 -9.926800e+01 1.303772e+01 1.037347e+02 1.100930e+01 9.976105e+01 8.842468e+00 9.472436e+01 7.079979e+00 8.893076e+01 5.768278e+00 8.258610e+01 4.831921e+00 7.583937e+01 4.157218e+00 6.885059e+01 3.638031e+00 6.176712e+01 3.144449e+00 5.474993e+01 2.555751e+00 4.785398e+01 1.945635e+00 4.095071e+01 1.459870e+00 3.386333e+01 1.194267e+00 2.657873e+01 1.093909e+00 1.922817e+01 1.048306e+00 1.187290e+01 1.028098e+00 4.517755e+00 1.034607e+00 -2.866846e+00 1.059679e+00 -1.030768e+01 1.180407e+00 -1.780473e+01 1.279117e+00 -2.519693e+01 1.263094e+00 -3.243331e+01 1.211826e+00 -3.951048e+01 1.137086e+00 -4.641663e+01 1.116317e+00 -5.319739e+01 1.261976e+00 -5.991980e+01 1.680493e+00 -6.654636e+01 2.378467e+00 -7.300853e+01 3.439896e+00 -7.930622e+01 4.906455e+00 -8.528633e+01 6.663716e+00 -9.067429e+01 
8.542138e+00 -9.304955e+01 1.033760e+01 -9.746807e+01 1.228991e+01 1.013977e+02 1.060972e+01 9.734693e+01 8.853125e+00 9.256118e+01 7.381264e+00 8.714087e+01 6.225128e+00 8.123578e+01 5.325974e+00 7.496442e+01 4.605369e+00 6.843200e+01 4.018140e+00 6.171231e+01 3.519719e+00 5.491806e+01 3.024399e+00 4.810200e+01 2.577289e+00 4.120886e+01 2.216968e+00 3.416721e+01 1.958212e+00 2.698291e+01 1.811811e+00 1.974401e+01 1.709891e+00 1.250143e+01 1.624924e+00 5.257415e+00 1.583310e+00 -1.990226e+00 1.573829e+00 -9.245450e+00 1.665476e+00 -1.653285e+01 1.796224e+00 -2.377177e+01 1.886631e+00 -3.093712e+01 2.016660e+00 -3.800818e+01 2.171718e+00 -4.494696e+01 2.366145e+00 -5.176621e+01 2.689289e+00 -5.846754e+01 3.173675e+00 -6.499489e+01 3.803602e+00 -7.128892e+01 4.634241e+00 -7.734155e+01 5.717417e+00 -8.307915e+01 7.027355e+00 -8.836543e+01 
7.475348e+00 -9.762185e+01 9.260031e+00 -1.025517e+02 1.097547e+01 1.043641e+02 9.597732e+00 9.990666e+01 8.017623e+00 9.479443e+01 6.591944e+00 8.903720e+01 5.442357e+00 8.276765e+01 4.540012e+00 7.612009e+01 3.820428e+00 6.923067e+01 3.253958e+00 6.219045e+01 2.762492e+00 5.512125e+01 2.258156e+00 4.807251e+01 1.845784e+00 4.100055e+01 1.499717e+00 3.383257e+01 1.238031e+00 2.654429e+01 1.107745e+00 1.919596e+01 1.032045e+00 1.183346e+01 1.016963e+00 4.462794e+00 1.018285e+00 -2.929255e+00 1.007961e+00 -1.034874e+01 1.080828e+00 -1.777238e+01 1.119378e+00 -2.514871e+01 1.082790e+00 -3.244717e+01 1.052981e+00 -3.963942e+01 1.033642e+00 -4.671281e+01 1.106665e+00 -5.367500e+01 1.323166e+00 -6.054080e+01 1.731784e+00 -6.729575e+01 2.364885e+00 -7.390522e+01 3.264207e+00 -8.033551e+01 4.445844e+00 -8.650403e+01 5.868846e+00 -9.229275e+01 
7.345923e+00 -9.614377e+01 8.732479e+00 -1.014354e+02 1.018131e+01 1.031717e+02 9.091196e+00 9.841519e+01 7.861810e+00 9.330746e+01 6.723811e+00 8.774132e+01 5.772126e+00 8.176062e+01 4.983488e+00 7.544753e+01 4.301931e+00 6.890034e+01 3.719463e+00 6.212175e+01 3.273406e+00 5.524022e+01 2.844280e+00 4.833750e+01 2.532676e+00 4.134630e+01 2.276204e+00 3.425012e+01 1.993646e+00 2.703921e+01 1.854814e+00 1.977259e+01 1.767485e+00 1.252366e+01 1.681263e+00 5.256773e+00 1.665340e+00 -2.017494e+00 1.648615e+00 -9.264651e+00 1.726035e+00 -1.654321e+01 1.826249e+00 -2.381114e+01 1.828561e+00 -3.105195e+01 1.923994e+00 -3.823091e+01 2.061947e+00 -4.528665e+01 2.193339e+00 -5.226104e+01 2.481600e+00 -5.912890e+01 2.909661e+00 -6.583900e+01 3.461531e+00 -7.235919e+01 4.165281e+00 -7.867987e+01 5.049667e+00 -8.477476e+01 6.114236e+00 -9.060079e+01 
6.072579e+00 -1.004315e+02 7.367190e+00 -1.061578e+02 8.598112e+00 1.062099e+02 7.778934e+00 1.010079e+02 6.780488e+00 9.551384e+01 5.782656e+00 8.959611e+01 4.898513e+00 8.326492e+01 4.122417e+00 7.659229e+01 3.426990e+00 6.972225e+01 2.876646e+00 6.261533e+01 2.449601e+00 5.544927e+01 1.967349e+00 4.830574e+01 1.728927e+00 4.113677e+01 1.484631e+00 3.391095e+01 1.199006e+00 2.656608e+01 1.088605e+00 1.917409e+01 9.869962e-01 1.180053e+01 9.925312e-01 4.418926e+00 1.004763e+00 -2.986042e+00 9.186109e-01 -1.040411e+01 1.028397e+00 -1.781153e+01 1.049853e+00 -2.520352e+01 9.420550e-01 -3.259093e+01 9.208812e-01 -3.991514e+01 8.950607e-01 -4.714244e+01 9.989411e-01 -5.427088e+01 1.237753e+00 -6.129375e+01 1.612452e+00 -6.820933e+01 2.144713e+00 -7.500245e+01 2.861756e+00 -8.165745e+01 3.773566e+00 -8.814109e+01 4.858264e+00 -9.440837e+01 
5.850904e+00 -9.933608e+01 6.781572e+00 -1.054070e+02 7.700431e+00 1.058372e+02 7.170815e+00 1.002932e+02 6.501173e+00 9.466561e+01 5.801957e+00 8.878834e+01 5.161762e+00 8.260571e+01 4.566688e+00 7.614202e+01 3.971935e+00 6.955489e+01 3.371572e+00 6.259785e+01 3.039693e+00 5.556010e+01 2.640828e+00 4.864161e+01 2.480161e+00 4.157234e+01 2.354117e+00 3.442908e+01 1.958808e+00 2.714361e+01 1.871043e+00 1.978865e+01 1.827526e+00 1.256261e+01 1.690144e+00 5.261641e+00 1.737201e+00 -2.070777e+00 1.687157e+00 -9.263705e+00 1.798528e+00 -1.657614e+01 1.943115e+00 -2.389503e+01 1.755230e+00 -3.124594e+01 1.831740e+00 -3.859049e+01 1.973358e+00 -4.573967e+01 1.932202e+00 -5.288906e+01 2.182172e+00 -5.996568e+01 2.552884e+00 -6.687785e+01 2.995048e+00 -7.362648e+01 3.537670e+00 -8.023955e+01 4.201072e+00 -8.672876e+01 4.980043e+00 -9.309260e+01 
4.462997e+00 -1.032881e+02 5.249684e+00 -1.097246e+02 5.923310e+00 1.088985e+02 5.667055e+00 1.029359e+02 5.242759e+00 9.690865e+01 4.732882e+00 9.066744e+01 4.215146e+00 8.412990e+01 3.649482e+00 7.726974e+01 3.006349e+00 7.039959e+01 2.460472e+00 6.305135e+01 2.169758e+00 5.574113e+01 1.586106e+00 4.855872e+01 1.642702e+00 4.131424e+01 1.490651e+00 3.409278e+01 1.064351e+00 2.663133e+01 1.056536e+00 1.914189e+01 8.825429e-01 1.178271e+01 9.471253e-01 4.384264e+00 1.028693e+00 -3.041811e+00 7.503415e-01 -1.047810e+01 1.061308e+00 -1.789318e+01 1.092326e+00 -2.529111e+01 7.861942e-01 -3.282681e+01 8.099960e-01 -4.032040e+01 7.005771e-01 -4.768938e+01 7.879243e-01 -5.499423e+01 1.041566e+00 -6.216752e+01 1.363667e+00 -6.923355e+01 1.769885e+00 -7.620631e+01 2.290328e+00 -8.310544e+01 2.932112e+00 -8.992916e+01 3.671582e+00 -9.666193e+01 
4.163898e+00 -1.024081e+02 4.602456e+00 -1.091558e+02 4.911593e+00 1.090783e+02 4.965463e+00 1.027949e+02 4.857863e+00 9.659504e+01 4.658784e+00 9.031765e+01 4.442463e+00 8.382046e+01 4.154288e+00 7.703201e+01 3.724747e+00 7.047718e+01 2.896162e+00 6.307188e+01 2.780105e+00 5.579651e+01 2.351593e+00 4.905757e+01 2.456523e+00 4.184268e+01 2.559607e+00 3.473959e+01 1.790967e+00 2.728884e+01 1.860050e+00 1.971712e+01 1.913372e+00 1.267641e+01 1.581919e+00 5.267214e+00 1.817059e+00 -2.204698e+00 1.676804e+00 -9.177697e+00 1.911914e+00 -1.663593e+01 2.248190e+00 -2.394799e+01 1.594577e+00 -3.148500e+01 1.732201e+00 -3.913577e+01 1.974853e+00 -4.624016e+01 1.517966e+00 -5.365746e+01 1.801282e+00 -6.097650e+01 2.111998e+00 -6.803882e+01 2.417184e+00 -7.496768e+01 2.781253e+00 -8.185145e+01 3.211627e+00 -8.871680e+01 3.685278e+00 -9.556882e+01 
2.728727e+00 -1.060074e+02 2.989129e+00 -1.130634e+02 3.017366e+00 1.121160e+02 3.349452e+00 1.054560e+02 3.471902e+00 9.887326e+01 3.464759e+00 9.224650e+01 3.418791e+00 8.543441e+01 3.236088e+00 7.817180e+01 2.742941e+00 7.128702e+01 1.897738e+00 6.331797e+01 1.854759e+00 5.601515e+01 9.446868e-01 4.881717e+01 1.725521e+00 4.148078e+01 1.604291e+00 3.443066e+01 7.271401e-01 2.668921e+01 1.078562e+00 1.910006e+01 6.520791e-01 1.176555e+01 8.595377e-01 4.319522e+00 1.146669e+00 -3.028323e+00 3.429153e-01 -1.060941e+01 1.312939e+00 -1.801105e+01 1.337297e+00 -2.531476e+01 4.840730e-01 -3.315208e+01 7.879515e-01 -4.082611e+01 4.250570e-01 -4.837560e+01 4.121036e-01 -5.591525e+01 7.798602e-01 -6.315428e+01 1.024772e+00 -7.028397e+01 1.275248e+00 -7.739321e+01 1.593033e+00 -8.452989e+01 1.970309e+00 -9.168832e+01 2.367244e+00 -9.885258e+01 
2.378093e+00 -1.052368e+02 2.305483e+00 -1.125664e+02 1.936100e+00 1.126219e+02 2.589126e+00 1.056751e+02 2.986841e+00 9.893744e+01 3.249690e+00 9.230421e+01 3.510413e+00 8.553205e+01 3.776402e+00 7.829083e+01 4.032182e+00 7.140476e+01 1.886939e+00 6.323411e+01 2.235766e+00 5.591166e+01 1.929887e+00 4.955576e+01 2.560889e+00 4.213394e+01 3.066542e+00 3.529151e+01 1.296326e+00 2.732261e+01 1.783691e+00 1.955096e+01 2.044226e+00 1.291108e+01 1.218262e+00 5.149696e+00 1.842684e+00 -2.415957e+00 1.570785e+00 -8.994602e+00 2.206164e+00 -1.680032e+01 2.845930e+00 -2.377155e+01 1.194015e+00 -3.183504e+01 1.657287e+00 -3.985702e+01 2.123391e+00 -4.670152e+01 8.426984e-01 -5.481244e+01 1.354204e+00 -6.216720e+01 1.563186e+00 -6.917870e+01 1.725841e+00 -7.622745e+01 1.926945e+00 -8.337319e+01 2.132967e+00 -9.059608e+01 2.300099e+00 -9.788564e+01 
9.501732e-01 -1.084909e+02 6.841929e-01 -1.160798e+02 4.083796e-02 1.155959e+02 9.739360e-01 1.083177e+02 1.563827e+00 1.012183e+02 1.917728e+00 9.420437e+01 2.168655e+00 8.721222e+01 2.648693e+00 8.042095e+01 2.890765e+00 7.063338e+01 1.863383e-01 6.303521e+01 7.030943e-01 5.685426e+01 -3.192240e-01 4.809904e+01 1.851126e+00 4.237246e+01 1.944604e+00 3.416039e+01 -2.925831e-01 2.632371e+01 6.623049e-01 2.007543e+01 -2.656582e-01 1.061333e+01 5.221510e-01 4.222929e+00 1.064677e+00 -2.432572e+00 -1.018846e+00 -1.171453e+01 2.027785e+00 -1.751584e+01 1.826362e+00 -2.585142e+01 -4.989099e-01 -3.381433e+01 8.712950e-01 -4.046362e+01 -5.928948e-01 -5.018978e+01 -3.979552e-01 -5.727317e+01 5.751786e-01 -6.413633e+01 5.846358e-01 -7.115105e+01 6.619996e-01 -7.840876e+01 8.091118e-01 -8.582114e+01 9.447037e-01 -9.331743e+01 1.011707e+00 -1.008768e+02 
5.839897e-01 -1.077641e+02 1.468206e-02 -1.155933e+02 -9.860520e-01 1.162657e+02 2.427696e-01 1.086913e+02 1.066563e+00 1.013828e+02 1.615818e+00 9.437683e+01 2.127477e+00 8.798832e+01 3.316131e+00 8.305222e+01 6.135511e+00 6.951203e+01 -4.777776e-01 6.250641e+01 3.601235e-01 5.800203e+01 2.117977e+00 4.694899e+01 2.198636e+00 4.481372e+01 3.369717e+00 3.505670e+01 7.313785e-01 2.515711e+01 2.464223e-01 2.263578e+01 1.751748e+00 9.945263e+00 4.131515e-03 4.739895e+00 5.755097e-01 -7.644332e-01 1.246758e+00 -1.219641e+01 2.251452e+00 -1.503293e+01 2.826883e+00 -2.424936e+01 3.544237e-01 -3.443410e+01 4.569275e-01 -3.730281e+01 7.352430e-01 -4.993330e+01 -6.504870e-01 -5.734515e+01 5.836335e-01 -6.299948e+01 7.720830e-01 -6.994455e+01 9.319224e-01 -7.727165e+01 1.031777e+00 -8.473995e+01 1.032198e+00 -9.230719e+01 8.995404e-01 -9.997992e+01 
-7.902126e-01 -1.106936e+02 -1.550457e+00 -1.187432e+02 -2.792239e+00 1.191222e+02 -1.256780e+00 1.112875e+02 -1.607510e-01 1.037577e+02 6.370075e-01 9.662027e+01 1.300409e+00 9.017160e+01 2.179064e+00 8.480120e+01 3.515059e+00 7.066627e+01 -2.862780e-01 6.368407e+01 3.238264e-01 5.923448e+01 1.456904e+00 4.696184e+01 2.536402e+00 4.608500e+01 3.431794e+00 3.460234e+01 7.031016e-01 2.513097e+01 3.350728e-01 2.391875e+01 2.324358e+00 8.075579e+00 1.097453e-02 5.326134e+00 5.252773e-01 -3.898725e-01 1.674920e+00 -1.378008e+01 2.358149e+00 -1.355573e+01 3.665338e+00 -2.613420e+01 3.351564e-01 -3.545830e+01 1.772830e-01 -3.565583e+01 3.196719e+00 -5.430847e+01 -1.644672e+00 -5.837409e+01 -7.727107e-01 -6.381677e+01 -2.844513e-01 -7.145465e+01 -2.743491e-02 -7.922682e+01 2.457911e-02 -8.698923e+01 -7.114366e-02 -9.479784e+01 -3.244547e-01 -1.026944e+02 
-1.135562e+00 -1.099680e+02 -2.166350e+00 -1.182311e+02 -3.718632e+00 1.198924e+02 -1.919907e+00 1.118030e+02 -5.762065e-01 1.040655e+02 4.426237e-01 9.666680e+01 1.184183e+00 8.954842e+01 1.512969e+00 8.225796e+01 -9.048800e-02 7.144237e+01 7.198090e-01 6.385735e+01 1.244793e+00 5.808006e+01 -4.377995e-01 4.815616e+01 2.703108e+00 4.311485e+01 2.197800e+00 3.477535e+01 3.607994e-01 2.606797e+01 8.977013e-01 2.118870e+01 1.625297e-01 1.059453e+01 6.574403e-01 4.294996e+00 9.573397e-01 -1.543762e+00 2.117451e-01 -1.170629e+01 2.255873e+00 -1.639383e+01 2.537668e+00 -2.499741e+01 1.794122e-01 -3.410549e+01 3.205692e-01 -3.824634e+01 1.231114e+00 -4.995529e+01 -1.228124e+00 -5.748395e+01 -3.192477e-01 -6.356267e+01 5.840320e-02 -7.077065e+01 2.412141e-01 -7.832184e+01 2.128123e-01 -8.602192e+01 -1.012834e-02 -9.385213e+01 -4.426214e-01 -1.018299e+02 
-2.422118e+00 -1.125967e+02 -3.630471e+00 -1.210518e+02 -5.410937e+00 1.225485e+02 -3.348424e+00 1.142215e+02 -1.770511e+00 1.062269e+02 -5.206171e-01 9.849136e+01 4.879618e-01 9.072204e+01 1.126500e+00 8.245750e+01 1.688917e+00 7.488920e+01 2.687528e-01 6.593890e+01 1.440489e+00 5.811606e+01 9.093219e-01 5.088862e+01 2.069992e+00 4.331178e+01 2.688504e+00 3.577535e+01 5.959609e-01 2.753523e+01 1.540256e+00 1.996995e+01 1.314402e+00 1.218264e+01 9.073174e-01 4.750772e+00 1.638370e+00 -2.667436e+00 5.068448e-01 -1.053387e+01 2.170881e+00 -1.763375e+01 2.507585e+00 -2.553358e+01 -1.244143e-03 -3.376355e+01 8.930933e-01 -4.122458e+01 4.224688e-01 -5.033378e+01 -7.234246e-01 -5.778030e+01 -2.749012e-01 -6.504038e+01 -4.004181e-01 -7.250936e+01 -5.086933e-01 -8.022361e+01 -6.919005e-01 -8.810698e+01 -1.032283e+00 -9.612346e+01 -1.586355e+00 -1.042818e+02 
-2.715261e+00 -1.118430e+02 -4.168094e+00 -1.204845e+02 -6.228203e+00 1.232245e+02 -3.978505e+00 1.146216e+02 -2.256313e+00 1.063338e+02 -9.505979e-01 9.826680e+01 -1.036550e-02 9.021994e+01 5.165058e-01 8.194380e+01 9.212804e-01 7.400396e+01 6.840259e-01 6.582672e+01 1.257059e+00 5.790206e+01 9.368706e-01 5.044445e+01 1.809944e+00 4.279257e+01 2.129531e+00 3.548934e+01 1.129895e+00 2.761762e+01 1.558791e+00 1.974343e+01 1.481233e+00 1.254412e+01 1.319734e+00 4.869677e+00 1.739021e+00 -2.675328e+00 1.200237e+00 -9.809639e+00 2.046408e+00 -1.758129e+01 2.283032e+00 -2.475848e+01 9.827577e-01 -3.282518e+01 1.356478e+00 -4.084952e+01 1.268287e+00 -4.816669e+01 1.385325e-01 -5.653816e+01 3.000442e-01 -6.419651e+01 1.161473e-01 -7.170108e+01 -1.331019e-01 -7.934938e+01 -4.583788e-01 -8.718548e+01 -9.468758e-01 -9.520450e+01 -1.673389e+00 -1.034177e+02 
-3.890277e+00 -1.141989e+02 -5.500407e+00 -1.230052e+02 -7.757844e+00 1.255824e+02 -5.282950e+00 1.167551e+02 -3.343011e+00 1.082057e+02 -1.827604e+00 9.984169e+01 -6.807533e-01 9.154572e+01 1.316751e-01 8.332578e+01 8.109180e-01 7.553919e+01 4.522882e-01 6.716743e+01 1.029312e+00 5.899249e+01 1.022641e+00 5.145785e+01 1.522024e+00 4.361707e+01 1.900590e+00 3.597244e+01 1.156789e+00 2.799142e+01 1.463880e+00 2.004069e+01 1.426517e+00 1.258154e+01 1.278897e+00 4.864686e+00 1.566937e+00 -2.836984e+00 1.019585e+00 -1.033814e+01 1.585550e+00 -1.806996e+01 1.656667e+00 -2.566380e+01 6.520845e-01 -3.376169e+01 7.851111e-01 -4.186276e+01 2.898143e-01 -4.965584e+01 -1.983291e-01 -5.768043e+01 -1.921917e-01 -6.548888e+01 -4.550865e-01 -7.324886e+01 -8.197082e-01 -8.110147e+01 -1.270021e+00 -8.910418e+01 -1.875460e+00 -9.727407e+01 -2.718897e+00 -1.056305e+02 
-4.111010e+00 -1.133919e+02 -5.948309e+00 -1.223549e+02 -8.490773e+00 1.260961e+02 -5.855755e+00 1.170394e+02 -3.803344e+00 1.082687e+02 -2.221979e+00 9.971540e+01 -1.046152e+00 9.130158e+01 -2.339389e-01 8.299728e+01 3.315409e-01 7.489988e+01 5.194948e-01 6.681157e+01 9.235197e-01 5.874948e+01 1.015421e+00 5.103933e+01 1.428487e+00 4.331946e+01 1.702856e+00 3.566253e+01 1.369786e+00 2.791868e+01 1.510068e+00 2.011275e+01 1.555343e+00 1.261960e+01 1.499882e+00 5.035943e+00 1.669456e+00 -2.599653e+00 1.447243e+00 -9.978765e+00 1.695646e+00 -1.759790e+01 1.793702e+00 -2.516141e+01 1.205467e+00 -3.297180e+01 1.156098e+00 -4.091923e+01 9.209340e-01 -4.857166e+01 3.573694e-01 -5.654540e+01 2.226184e-01 -6.446612e+01 -4.348330e-02 -7.229447e+01 -4.622410e-01 -8.015927e+01 -1.015537e+00 -8.815625e+01 -1.752818e+00 -9.633565e+01 -2.753173e+00 -1.047349e+02 
-5.166240e+00 -1.155028e+02 -7.138603e+00 -1.245997e+02 -9.848955e+00 1.281449e+02 -7.013918e+00 1.189106e+02 -4.771064e+00 1.099488e+02 -3.009378e+00 1.012137e+02 -1.656076e+00 9.266888e+01 -6.535435e-01 8.430547e+01 3.662600e-02 7.614862e+01 2.697245e-01 6.790498e+01 6.829132e-01 5.974046e+01 8.827289e-01 5.186004e+01 1.227305e+00 4.397103e+01 1.464942e+00 3.612352e+01 1.265553e+00 2.821615e+01 1.371899e+00 2.033026e+01 1.384819e+00 1.263388e+01 1.350643e+00 4.909616e+00 1.407819e+00 -2.823592e+00 1.167092e+00 -1.046543e+01 1.302722e+00 -1.819221e+01 1.254866e+00 -2.595610e+01 7.650339e-01 -3.390431e+01 5.923430e-01 -4.191315e+01 2.230810e-01 -4.982027e+01 -1.368943e-01 -5.781759e+01 -3.401037e-01 -6.579304e+01 -6.675445e-01 -7.375933e+01 -1.145511e+00 -8.177822e+01 -1.775481e+00 -8.991486e+01 -2.601096e+00 -9.821854e+01 -3.698434e+00 -1.067322e+02 
-5.301107e+00 -1.146201e+02 -7.477472e+00 -1.238447e+02 -1.045445e+01 1.284908e+02 -7.475597e+00 1.190841e+02 -5.131183e+00 1.099689e+02 -3.298346e+00 1.011062e+02 -1.900125e+00 9.246009e+01 -8.748878e-01 8.399992e+01 -1.590251e-01 7.572068e+01 2.699350e-01 6.754334e+01 6.746487e-01 5.943853e+01 9.333711e-01 5.154245e+01 1.244619e+00 4.371522e+01 1.477480e+00 3.592111e+01 1.427081e+00 2.815200e+01 1.504465e+00 2.037835e+01 1.568181e+00 1.272755e+01 1.561348e+00 5.101245e+00 1.615582e+00 -2.530940e+00 1.526645e+00 -1.006225e+01 1.573636e+00 -1.767874e+01 1.563288e+00 -2.535846e+01 1.237542e+00 -3.313336e+01 1.045445e+00 -4.101049e+01 7.818659e-01 -4.884335e+01 3.590172e-01 -5.677877e+01 6.448815e-02 -6.476225e+01 -2.948979e-01 -7.274909e+01 -8.126963e-01 -8.077679e+01 -1.514811e+00 -8.891569e+01 -2.443433e+00 -9.723079e+01 -3.671775e+00 -1.057790e+02 
-6.233146e+00 -1.165123e+02 -8.517642e+00 -1.258387e+02 -1.163200e+01 1.302395e+02 -8.478534e+00 1.207055e+02 -5.973018e+00 1.114576e+02 -3.990393e+00 1.024673e+02 -2.452698e+00 9.371068e+01 -1.301179e+00 8.516181e+01 -4.957468e-01 7.679661e+01 -2.248007e-02 6.848145e+01 4.129244e-01 6.025368e+01 7.091291e-01 5.222020e+01 1.019270e+00 4.424418e+01 1.247760e+00 3.630800e+01 1.233483e+00 2.839206e+01 1.304621e+00 2.049739e+01 1.340626e+00 1.270402e+01 1.320389e+00 4.933010e+00 1.315169e+00 -2.828745e+00 1.180964e+00 -1.053471e+01 1.173232e+00 -1.829267e+01 1.087544e+00 -2.611468e+01 7.559851e-01 -3.402644e+01 5.044308e-01 -4.201304e+01 1.826769e-01 -4.999018e+01 -1.868581e-01 -5.801872e+01 -5.059677e-01 -6.607697e+01 -9.108328e-01 -7.415699e+01 -1.474107e+00 -8.229035e+01 -2.228265e+00 -9.053393e+01 -3.218462e+00 -9.894637e+01 -4.518611e+00 -1.075840e+02 
-6.267702e+00 -1.155376e+02 -8.723985e+00 -1.249637e+02 -1.206620e+01 1.303986e+02 -8.791482e+00 1.207395e+02 -6.200169e+00 1.113853e+02 -4.154812e+00 1.023025e+02 -2.571941e+00 9.346664e+01 -1.377671e+00 8.485684e+01 -5.019304e-01 7.644437e+01 2.020237e-02 6.814839e+01 4.801872e-01 5.991958e+01 8.364002e-01 5.194780e+01 1.119664e+00 4.403763e+01 1.396013e+00 3.615369e+01 1.426054e+00 2.836552e+01 1.487817e+00 2.054238e+01 1.583312e+00 1.283012e+01 1.549346e+00 5.158689e+00 1.587112e+00 -2.520084e+00 1.555365e+00 -1.007046e+01 1.521928e+00 -1.772200e+01 1.510718e+00 -2.546607e+01 1.237072e+00 -3.323159e+01 9.860189e-01 -4.114067e+01 7.359373e-01 -4.903826e+01 2.785381e-01 -5.700163e+01 -1.053361e-01 -6.505433e+01 -5.410105e-01 -7.312659e+01 -1.141976e+00 -8.124449e+01 -1.951653e+00 -8.947737e+01 -3.019175e+00 -9.789352e+01 -4.421579e+00 -1.065558e+02 
-7.071102e+00 -1.172367e+02 -9.603912e+00 -1.267331e+02 -1.304828e+01 1.318463e+02 -9.630229e+00 1.221047e+02 -6.909725e+00 1.126626e+02 -4.744582e+00 1.034873e+02 -3.054988e+00 9.455640e+01 -1.778383e+00 8.585844e+01 -8.387511e-01 7.737252e+01 -2.983443e-01 6.893316e+01 2.019926e-01 6.056063e+01 5.442550e-01 5.248701e+01 8.595621e-01 4.445419e+01 1.165017e+00 3.646111e+01 1.160824e+00 2.853114e+01 1.234593e+00 2.057555e+01 1.304927e+00 1.276392e+01 1.241224e+00 4.951912e+00 1.254589e+00 -2.871739e+00 1.143623e+00 -1.055715e+01 1.106606e+00 -1.834179e+01 1.073914e+00 -2.619914e+01 7.289611e-01 -3.410722e+01 4.546330e-01 -4.214253e+01 1.696417e-01 -5.012946e+01 -2.886905e-01 -5.820480e+01 -6.664516e-01 -6.633725e+01 -1.129992e+00 -7.447493e+01 -1.766238e+00 -8.266236e+01 -2.611660e+00 -9.097037e+01 -3.718440e+00 -9.946084e+01 -5.167356e+00 -1.081915e+02 
-6.987750e+00 -1.161598e+02 -9.654480e+00 -1.257273e+02 -1.328281e+01 1.317798e+02 -9.771416e+00 1.219578e+02 -6.988667e+00 1.124561e+02 -4.774698e+00 1.032281e+02 -3.045323e+00 9.424096e+01 -1.724701e+00 8.552332e+01 -6.627053e-01 7.705324e+01 -1.746703e-01 6.861650e+01 3.285612e-01 6.014186e+01 7.641632e-01 5.225027e+01 1.008117e+00 4.429256e+01 1.439145e+00 3.631847e+01 1.423587e+00 2.857204e+01 1.437093e+00 2.059830e+01 1.618587e+00 1.292125e+01 1.470582e+00 5.217017e+00 1.562183e+00 -2.591739e+00 1.577476e+00 -9.999274e+00 1.486944e+00 -1.770108e+01 1.610939e+00 -2.552004e+01 1.265416e+00 -3.323958e+01 9.388677e-01 -4.130249e+01 7.817965e-01 -4.916728e+01 1.572348e-01 -5.718080e+01 -2.752532e-01 -6.533513e+01 -7.577271e-01 -7.342984e+01 -1.425478e+00 -8.156677e+01 -2.307271e+00 -8.984672e+01 -3.464248e+00 -9.833197e+01 -4.985209e+00 -1.070774e+02 
-7.654511e+00 -1.176913e+02 -1.036285e+01 -1.272982e+02 -1.405307e+01 1.329175e+02 -1.043598e+01 1.230553e+02 -7.561466e+00 1.135091e+02 -5.259027e+00 1.042294e+02 -3.444213e+00 9.516804e+01 -2.070857e+00 8.634914e+01 -9.713652e-01 7.787571e+01 -5.083609e-01 6.921296e+01 5.374009e-02 6.060093e+01 3.812222e-01 5.264767e+01 7.137022e-01 4.458131e+01 1.224852e+00 3.659394e+01 1.077579e+00 2.863388e+01 1.152133e+00 2.052699e+01 1.286589e+00 1.284021e+01 1.098699e+00 4.960852e+00 1.218754e+00 -2.975998e+00 1.063479e+00 -1.052864e+01 1.064315e+00 -1.835055e+01 1.221178e+00 -2.618468e+01 7.121959e-01 -3.413751e+01 4.211501e-01 -4.233269e+01 2.155097e-01 -5.018808e+01 -4.329124e-01 -5.839698e+01 -8.122140e-01 -6.659343e+01 -1.319293e+00 -7.470542e+01 -2.010845e+00 -8.288395e+01 -2.908391e+00 -9.122283e+01 -4.081243e+00 -9.976853e+01 -5.623175e+00 -1.085664e+02 
-7.432969e+00 -1.165058e+02 -1.023331e+01 -1.261549e+02 -1.405968e+01 1.325780e+02 -1.038768e+01 1.226754e+02 -7.488581e+00 1.131207e+02 -5.162075e+00 1.038633e+02 -3.311051e+00 9.479726e+01 -1.911304e+00 8.595110e+01 -6.060737e-01 7.765104e+01 -2.069852e-01 6.881082e+01 1.707541e-01 5.999632e+01 6.729908e-01 5.247554e+01 8.997807e-01 4.441635e+01 1.602315e+00 3.650337e+01 1.509815e+00 2.876307e+01 1.321339e+00 2.042642e+01 1.629093e+00 1.309509e+01 1.323671e+00 5.234813e+00 1.511535e+00 -2.764986e+00 1.572660e+00 -9.823589e+00 1.469776e+00 -1.768168e+01 1.843711e+00 -2.540729e+01 1.418881e+00 -3.315780e+01 8.697198e-01 -4.159670e+01 8.942011e-01 -4.909518e+01 6.604763e-02 -5.746624e+01 -4.658132e-01 -6.564195e+01 -9.837450e-01 -7.360484e+01 -1.670334e+00 -8.170640e+01 -2.562775e+00 -9.001796e+01 -3.752724e+00 -9.855656e+01 -5.336435e+00 -1.073605e+02 
-7.953804e+00 -1.178937e+02 -1.075797e+01 -1.275524e+02 -1.459863e+01 1.333940e+02 -1.086614e+01 1.234889e+02 -7.919543e+00 1.139295e+02 -5.549344e+00 1.046719e+02 -3.645369e+00 9.561719e+01 -2.153716e+00 8.672179e+01 -8.931467e-01 7.826193e+01 -5.482794e-01 6.901614e+01 -2.252474e-01 6.051479e+01 8.314284e-02 5.243487e+01 5.131627e-01 4.463562e+01 1.411797e+00 3.689620e+01 1.046046e+00 2.844913e+01 9.291027e-01 2.042578e+01 1.212525e+00 1.285854e+01 8.597035e-01 4.847859e+00 1.065593e+00 -2.880506e+00 7.802261e-01 -1.080052e+01 9.973994e-01 -1.829019e+01 1.482466e+00 -2.585082e+01 7.635931e-01 -3.439049e+01 2.975081e-01 -4.245367e+01 2.373738e-01 -5.017967e+01 -5.705074e-01 -5.887751e+01 -1.021180e+00 -6.682832e+01 -1.547130e+00 -7.475834e+01 -2.218510e+00 -8.291164e+01 -3.094906e+00 -9.128884e+01 -4.276745e+00 -9.988251e+01 -5.857385e+00 -1.087256e+02 
-7.574473e+00 -1.165921e+02 -1.042298e+01 -1.262664e+02 -1.432702e+01 1.327518e+02 -1.060365e+01 1.228200e+02 -7.687261e+00 1.132470e+02 -5.361215e+00 1.040395e+02 -3.469811e+00 9.528922e+01 -1.819750e+00 8.684674e+01 -7.156514e-01 7.788002e+01 7.187350e-01 6.762231e+01 -7.855007e-01 6.079982e+01 2.068076e-01 5.123890e+01 1.014130e+00 4.467707e+01 1.252961e+00 3.749450e+01 2.361443e+00 2.757643e+01 6.630884e-01 2.101160e+01 1.116322e+00 1.275480e+01 1.490174e+00 4.635768e+00 8.192064e-01 -1.571342e+00 1.348648e+00 -1.124062e+01 1.599263e+00 -1.728629e+01 1.496121e+00 -2.433493e+01 2.443942e+00 -3.445417e+01 2.520467e-01 -4.079698e+01 5.492642e-01 -4.915983e+01 7.134811e-01 -5.881482e+01 -1.214320e+00 -6.561650e+01 -1.365829e+00 -7.344378e+01 -1.848348e+00 -8.163437e+01 -2.667341e+00 -9.001133e+01 -3.846197e+00 -9.858992e+01 -5.445797e+00 -1.074228e+02 
-7.942875e+00 -1.178568e+02 -1.075400e+01 -1.275134e+02 -1.461445e+01 1.332483e+02 -1.088589e+01 1.233419e+02 -7.966195e+00 1.137843e+02 -5.635801e+00 1.046095e+02 -3.715947e+00 9.599688e+01 -1.947845e+00 8.781699e+01 -7.344247e-01 7.837724e+01 1.047247e+00 6.761193e+01 -1.374239e+00 6.169896e+01 1.199702e-01 5.083262e+01 9.901478e-01 4.535492e+01 9.671408e-01 3.810529e+01 2.633593e+00 2.711792e+01 2.438144e-01 2.149958e+01 8.501761e-01 1.236055e+01 1.409107e+00 4.369261e+00 4.150505e-01 -1.296092e+00 1.263566e+00 -1.233873e+01 1.462880e+00 -1.735602e+01 1.091798e+00 -2.455618e+01 2.495016e+00 -3.566614e+01 -2.781978e-01 -4.108170e+01 1.674645e-01 -5.033360e+01 5.785503e-01 -6.020911e+01 -1.853757e+00 -6.652604e+01 -1.886062e+00 -7.445494e+01 -2.308573e+00 -8.276104e+01 -3.104209e+00 -9.120885e+01 -4.266011e+00 -9.982968e+01 -5.843588e+00 -1.086845e+02 