# vtk DataFile Version 2.0
Comment goes here
ASCII

DATASET STRUCTURED_POINTS
FIELD FieldData 1
TIME 1 1 double
0.07100000
DIMENSIONS    64   64   1

ORIGIN    0.000   0.000   0.000
SPACING   0.03125 0.03125   1.000

POINT_DATA   4096
SCALARS P double
LOOKUP_TABLE default

-2.418161e+01 -2.040652e+02 -2.751840e+01 -2.002878e+02 3.628386e+01 1.465242e+02 -1.942242e+01 1.273865e+02 -1.738490e+01 1.071487e+02 -1.374931e+01 8.780777e+01 -1.236009e+01 7.372994e+01 -1.463759e+01 6.270280e+01 -1.851182e+01 5.324298e+01 -2.154450e+01 4.128769e+01 -2.192941e+01 2.876971e+01 -2.466365e+01 2.127919e+01 -3.241433e+01 1.718943e+01 -4.190601e+01 1.286855e+01 -4.959620e+01 4.872504e+00 -5.119385e+01 -8.867418e+00 -4.949450e+01 -2.325545e+01 -4.986299e+01 -3.318172e+01 -5.424781e+01 -4.203658e+01 -5.573776e+01 -5.453221e+01 -5.454078e+01 -6.865358e+01 -5.335065e+01 -8.168423e+01 -5.210243e+01 -9.445913e+01 -5.240870e+01 -1.068285e+02 -5.204173e+01 -1.202823e+02 -5.164470e+01 -1.304388e+02 -5.533614e+01 -1.371184e+02 -6.079163e+01 -1.425738e+02 -6.467525e+01 -1.505102e+02 -6.290260e+01 -1.636909e+02 -5.467253e+01 -1.798450e+02 -4.418767e+01 -1.942590e+02 
2.672030e+00 -1.362812e+02 6.151771e-01 -1.350749e+02 4.760821e+01 1.243454e+02 3.344117e+00 1.127565e+02 2.004431e+00 1.009750e+02 1.953928e+00 8.942742e+01 1.162424e+00 8.040070e+01 -1.089383e+00 7.251401e+01 -3.793063e+00 6.521546e+01 -5.763844e+00 5.624103e+01 -5.932109e+00 4.662093e+01 -7.015695e+00 3.952510e+01 -1.050823e+01 3.399948e+01 -1.468835e+01 2.830652e+01 -1.806507e+01 2.081464e+01 -1.827071e+01 1.026402e+01 -1.687141e+01 -4.914934e-01 -1.674766e+01 -8.672782e+00 -1.889246e+01 -1.634418e+01 -1.932619e+01 -2.605686e+01 -1.830528e+01 -3.648147e+01 -1.755900e+01 -4.607184e+01 -1.670989e+01 -5.549653e+01 -1.692180e+01 -6.463714e+01 -1.660401e+01 -7.456480e+01 -1.593990e+01 -8.275841e+01 -1.737769e+01 -8.905214e+01 -1.968922e+01 -9.449270e+01 -2.127705e+01 -1.009067e+02 -2.002136e+01 -1.097432e+02 -1.550609e+01 -1.197428e+02 -1.010749e+01 -1.289207e+02 
1.497200e+01 -9.385021e+01 1.576927e+01 -9.523174e+01 3.200502e+01 1.049087e+02 1.544540e+01 1.003205e+02 1.274830e+01 9.508563e+01 1.054534e+01 8.929112e+01 8.615599e+00 8.342471e+01 6.871385e+00 7.728830e+01 5.339359e+00 7.102053e+01 4.110751e+00 6.422291e+01 3.437830e+00 5.702978e+01 2.841101e+00 5.007239e+01 2.063775e+00 4.310606e+01 1.389890e+00 3.599218e+01 8.640607e-01 2.859030e+01 9.300459e-01 2.068410e+01 1.264865e+00 1.280920e+01 1.362710e+00 5.388103e+00 1.064932e+00 -2.039716e+00 1.199773e+00 -9.836327e+00 1.600997e+00 -1.762413e+01 1.885392e+00 -2.508769e+01 2.272837e+00 -3.243295e+01 2.502689e+00 -3.957999e+01 3.013907e+00 -4.689700e+01 3.826915e+00 -5.385734e+01 4.429875e+00 -6.041099e+01 5.077913e+00 -6.660978e+01 5.903227e+00 -7.257600e+01 7.204522e+00 -7.847155e+01 9.052636e+00 -8.397241e+01 1.092043e+01 -8.911667e+01 
1.380588e+01 -9.607710e+01 1.631313e+01 -9.890050e+01 1.979736e+01 1.074962e+02 1.590200e+01 1.026024e+02 1.256555e+01 9.672525e+01 1.004916e+01 9.046423e+01 7.984260e+00 8.414861e+01 6.178968e+00 7.771901e+01 4.647246e+00 7.112139e+01 3.470999e+00 6.415420e+01 2.711219e+00 5.694427e+01 2.098383e+00 4.984705e+01 1.441647e+00 4.279455e+01 8.472587e-01 3.561091e+01 4.277593e-01 2.811463e+01 4.075539e-01 2.022609e+01 5.865838e-01 1.230807e+01 6.447450e-01 4.640042e+00 5.418699e-01 -2.998004e+00 6.862393e-01 -1.083454e+01 1.032412e+00 -1.868684e+01 1.366139e+00 -2.635680e+01 1.672138e+00 -3.388228e+01 1.871448e+00 -4.125100e+01 2.183842e+00 -4.855318e+01 2.638982e+00 -5.551484e+01 3.003336e+00 -6.206325e+01 3.391782e+00 -6.827748e+01 4.040540e+00 -7.432533e+01 5.247367e+00 -8.031489e+01 7.125071e+00 -8.605069e+01 9.593139e+00 -9.132680e+01 
1.346696e+01 -9.376331e+01 1.574535e+01 -9.709558e+01 1.885345e+01 1.041840e+02 1.550823e+01 1.000964e+02 1.258687e+01 9.502471e+01 1.026671e+01 8.938707e+01 8.359024e+00 8.345065e+01 6.739012e+00 7.725144e+01 5.368970e+00 7.081758e+01 4.262228e+00 6.405731e+01 3.462814e+00 5.706420e+01 2.813255e+00 5.002929e+01 2.214044e+00 4.293197e+01 1.709313e+00 3.570125e+01 1.348695e+00 2.827586e+01 1.249825e+00 2.062742e+01 1.297562e+00 1.294583e+01 1.304782e+00 5.370978e+00 1.250474e+00 -2.191786e+00 1.343111e+00 -9.830306e+00 1.562309e+00 -1.744566e+01 1.811423e+00 -2.492480e+01 2.101891e+00 -3.229025e+01 2.413902e+00 -3.954289e+01 2.860257e+00 -4.672237e+01 3.443096e+00 -5.368352e+01 4.067301e+00 -6.036830e+01 4.795484e+00 -6.677227e+01 5.721187e+00 -7.292098e+01 6.977425e+00 -7.881946e+01 8.615015e+00 -8.436088e+01 1.057124e+01 -8.938116e+01 
1.220098e+01 -9.730170e+01 1.505094e+01 -1.014617e+02 1.790818e+01 1.058924e+02 1.506811e+01 1.017302e+02 1.209246e+01 9.643500e+01 9.630430e+00 9.049853e+01 7.636935e+00 8.424324e+01 5.975239e+00 7.776578e+01 4.597869e+00 7.107856e+01 3.500970e+00 6.412648e+01 2.688785e+00 5.699756e+01 2.046179e+00 4.983217e+01 1.505313e+00 4.262416e+01 1.054561e+00 3.529858e+01 7.273594e-01 2.777911e+01 6.032625e-01 2.006615e+01 5.976841e-01 1.229702e+01 6.014716e-01 4.572991e+00 5.995274e-01 -3.135327e+00 6.933734e-01 -1.087306e+01 9.045097e-01 -1.859058e+01 1.140699e+00 -2.621542e+01 1.367268e+00 -3.373713e+01 1.598458e+00 -4.113599e+01 1.893902e+00 -4.839365e+01 2.282965e+00 -5.541891e+01 2.728850e+00 -6.216575e+01 3.282158e+00 -6.866074e+01 4.074857e+00 -7.495996e+01 5.265992e+00 -8.107900e+01 6.961222e+00 -8.693020e+01 9.213388e+00 -9.239875e+01 
1.191304e+01 -9.608695e+01 1.419034e+01 -1.006488e+02 1.662835e+01 1.039226e+02 1.429171e+01 9.983813e+01 1.182981e+01 9.497107e+01 9.693574e+00 8.947613e+01 7.933411e+00 8.356169e+01 6.467957e+00 7.733689e+01 5.239462e+00 7.085592e+01 4.213709e+00 6.408038e+01 3.441569e+00 5.709974e+01 2.832022e+00 5.003115e+01 2.330182e+00 4.286437e+01 1.928350e+00 3.557717e+01 1.615715e+00 2.815039e+01 1.464471e+00 2.058640e+01 1.413069e+00 1.297059e+01 1.356459e+00 5.349556e+00 1.334458e+00 -2.264412e+00 1.396934e+00 -9.855677e+00 1.535539e+00 -1.741495e+01 1.731276e+00 -2.489948e+01 1.952120e+00 -3.229363e+01 2.247720e+00 -3.959830e+01 2.644796e+00 -4.678929e+01 3.108672e+00 -5.382385e+01 3.687298e+00 -6.066148e+01 4.408479e+00 -6.727532e+01 5.310197e+00 -7.365422e+01 6.457368e+00 -7.978172e+01 7.899579e+00 -8.560758e+01 9.674178e+00 -9.105952e+01 
1.048433e+01 -9.993125e+01 1.286837e+01 -1.050576e+02 1.511271e+01 1.060450e+02 1.316509e+01 1.015028e+02 1.094133e+01 9.634416e+01 8.864583e+00 9.058765e+01 7.101579e+00 8.440711e+01 5.621109e+00 7.793113e+01 4.393086e+00 7.123076e+01 3.368041e+00 6.423776e+01 2.606137e+00 5.706546e+01 1.996468e+00 4.984176e+01 1.543404e+00 4.254557e+01 1.176020e+00 3.514523e+01 8.648513e-01 2.760595e+01 7.128447e-01 1.994558e+01 6.389604e-01 1.223380e+01 6.003548e-01 4.493291e+00 5.946075e-01 -3.241811e+00 6.302459e-01 -1.094288e+01 7.827307e-01 -1.861126e+01 9.521619e-01 -2.621986e+01 1.099508e+00 -3.376063e+01 1.313259e+00 -4.120157e+01 1.583489e+00 -4.850653e+01 1.947369e+00 -5.564870e+01 2.421581e+00 -6.258442e+01 3.015905e+00 -6.932624e+01 3.806916e+00 -7.589387e+01 4.890258e+00 -8.228601e+01 6.343268e+00 -8.846565e+01 8.208837e+00 -9.437686e+01 
1.003979e+01 -9.921412e+01 1.186618e+01 -1.046879e+02 1.371919e+01 1.052266e+02 1.216363e+01 1.004462e+02 1.043221e+01 9.535159e+01 8.761592e+00 8.980815e+01 7.303176e+00 8.385853e+01 6.056404e+00 7.759653e+01 4.999076e+00 7.110609e+01 4.026809e+00 6.425969e+01 3.352940e+00 5.719687e+01 2.830917e+00 5.010106e+01 2.404854e+00 4.289359e+01 2.092061e+00 3.556257e+01 1.779283e+00 2.813609e+01 1.626200e+00 2.058695e+01 1.562184e+00 1.298631e+01 1.415930e+00 5.321438e+00 1.369811e+00 -2.349649e+00 1.412833e+00 -9.919358e+00 1.491639e+00 -1.746684e+01 1.654909e+00 -2.498463e+01 1.788652e+00 -3.241352e+01 2.043816e+00 -3.978638e+01 2.417105e+00 -4.704794e+01 2.746660e+00 -5.419852e+01 3.247560e+00 -6.122267e+01 3.914864e+00 -6.807364e+01 4.722088e+00 -7.472564e+01 5.699677e+00 -8.117343e+01 6.892380e+00 -8.741131e+01 8.334659e+00 -9.342914e+01 
8.462326e+00 -1.029872e+02 1.021773e+01 -1.089074e+02 1.184852e+01 1.076924e+02 1.063339e+01 1.023963e+02 9.204566e+00 9.689245e+01 7.726608e+00 9.102844e+01 6.355646e+00 8.479067e+01 5.122726e+00 7.827086e+01 4.091334e+00 7.159687e+01 3.103999e+00 6.448551e+01 2.466471e+00 5.716458e+01 1.897193e+00 4.990007e+01 1.542977e+00 4.254972e+01 1.261085e+00 3.510090e+01 9.026478e-01 2.753258e+01 7.778582e-01 1.986731e+01 6.796390e-01 1.218583e+01 5.866445e-01 4.408912e+00 5.621043e-01 -3.376973e+00 5.122101e-01 -1.105356e+01 6.638959e-01 -1.871034e+01 7.996006e-01 -2.633022e+01 8.243045e-01 -3.392447e+01 1.021934e+00 -4.144177e+01 1.252236e+00 -4.882598e+01 1.571663e+00 -5.612166e+01 2.051190e+00 -6.323957e+01 2.617606e+00 -7.021115e+01 3.321521e+00 -7.704896e+01 4.224223e+00 -8.375660e+01 5.377995e+00 -9.032992e+01 6.803161e+00 -9.675308e+01 
7.847975e+00 -1.024772e+02 9.085360e+00 -1.087033e+02 1.027324e+01 1.076591e+02 9.465042e+00 1.020706e+02 8.510123e+00 9.644526e+01 7.477873e+00 9.060541e+01 6.475697e+00 8.445753e+01 5.525742e+00 7.807487e+01 4.715856e+00 7.161237e+01 3.690519e+00 6.459530e+01 3.201185e+00 5.732164e+01 2.801547e+00 5.024732e+01 2.415464e+00 4.302297e+01 2.251192e+00 3.562240e+01 1.867740e+00 2.821685e+01 1.758732e+00 2.063579e+01 1.780913e+00 1.304022e+01 1.420544e+00 5.299207e+00 1.349150e+00 -2.500155e+00 1.417451e+00 -1.001334e+01 1.404900e+00 -1.755608e+01 1.608298e+00 -2.517120e+01 1.587868e+00 -3.262297e+01 1.799485e+00 -4.010598e+01 2.237070e+00 -4.746810e+01 2.310450e+00 -5.474236e+01 2.724028e+00 -6.199277e+01 3.329885e+00 -6.909540e+01 3.994887e+00 -7.601367e+01 4.748280e+00 -8.278270e+01 5.637161e+00 -8.944069e+01 6.677598e+00 -9.600810e+01 
6.179444e+00 -1.060198e+02 7.249300e+00 -1.126220e+02 8.134913e+00 1.103420e+02 7.669019e+00 1.042794e+02 7.028291e+00 9.821693e+01 6.264965e+00 9.201046e+01 5.442673e+00 8.551523e+01 4.524195e+00 7.881324e+01 3.784629e+00 7.226953e+01 2.682851e+00 6.485564e+01 2.309731e+00 5.723076e+01 1.700818e+00 5.002272e+01 1.489512e+00 4.261805e+01 1.373509e+00 3.516134e+01 8.204358e-01 2.753604e+01 8.474081e-01 1.980436e+01 7.353382e-01 1.220419e+01 5.066767e-01 4.331574e+00 5.302773e-01 -3.578769e+00 3.061363e-01 -1.119112e+01 5.524765e-01 -1.886938e+01 7.254312e-01 -2.649866e+01 4.805434e-01 -3.420688e+01 7.346173e-01 -4.185506e+01 9.081558e-01 -4.929774e+01 1.100397e+00 -5.680342e+01 1.616197e+00 -6.407343e+01 2.120813e+00 -7.123545e+01 2.680701e+00 -7.830409e+01 3.346937e+00 -8.530425e+01 4.160373e+00 -9.226015e+01 5.120972e+00 -9.917538e+01 
5.427713e+00 -1.055610e+02 6.003256e+00 -1.124271e+02 6.361691e+00 1.108070e+02 6.353580e+00 1.044824e+02 6.169268e+00 9.826514e+01 5.868698e+00 9.199472e+01 5.497432e+00 8.545376e+01 4.969842e+00 7.877173e+01 4.562175e+00 7.246436e+01 3.113990e+00 6.500366e+01 2.991993e+00 5.736263e+01 2.752728e+00 5.051756e+01 2.283687e+00 4.324272e+01 2.492133e+00 3.574166e+01 1.852445e+00 2.840849e+01 1.885398e+00 2.068669e+01 2.215929e+00 1.321963e+01 1.231567e+00 5.294553e+00 1.245577e+00 -2.803415e+00 1.454208e+00 -1.008381e+01 1.194237e+00 -1.765100e+01 1.684082e+00 -2.545612e+01 1.302312e+00 -3.286290e+01 1.488727e+00 -4.059574e+01 2.244113e+00 -4.801366e+01 1.702429e+00 -5.541072e+01 2.118218e+00 -6.296500e+01 2.684539e+00 -7.027193e+01 3.152634e+00 -7.737196e+01 3.638033e+00 -8.440628e+01 4.193776e+00 -9.144473e+01 4.805830e+00 -9.850508e+01 
3.728898e+00 -1.088078e+02 4.078455e+00 -1.159964e+02 4.066115e+00 1.136167e+02 4.398920e+00 1.068625e+02 4.480215e+00 1.002219e+02 4.438315e+00 9.360350e+01 4.352499e+00 8.672547e+01 3.988735e+00 7.955521e+01 3.754201e+00 7.329793e+01 1.954004e+00 6.504842e+01 2.129000e+00 5.725177e+01 1.287582e+00 5.028256e+01 1.375693e+00 4.261397e+01 1.593424e+00 3.544324e+01 4.948069e-01 2.754588e+01 1.065815e+00 1.970501e+01 8.569183e-01 1.237138e+01 2.029065e-01 4.195910e+00 5.710060e-01 -3.798491e+00 -9.069254e-02 -1.134347e+01 4.537695e-01 -1.915101e+01 8.490275e-01 -2.658111e+01 -8.345264e-02 -3.463011e+01 5.231335e-01 -4.245402e+01 6.170931e-01 -4.989698e+01 3.683509e-01 -5.778177e+01 1.160706e+00 -6.505930e+01 1.584858e+00 -7.229410e+01 1.931561e+00 -7.950190e+01 2.315118e+00 -8.675159e+01 2.770742e+00 -9.406650e+01 3.264581e+00 -1.014341e+02 
2.891895e+00 -1.083201e+02 2.773246e+00 -1.157327e+02 2.197644e+00 1.143325e+02 3.020044e+00 1.073572e+02 3.484765e+00 1.006147e+02 3.795205e+00 9.399705e+01 4.106257e+00 8.710140e+01 4.550251e+00 8.001689e+01 5.001575e+00 7.308188e+01 1.785194e+00 6.484027e+01 2.266820e+00 5.753658e+01 2.734421e+00 5.097661e+01 1.826071e+00 4.337737e+01 2.921695e+00 3.604634e+01 1.666853e+00 2.854288e+01 2.053571e+00 2.069011e+01 3.099031e+00 1.381140e+01 4.625399e-01 5.021833e+00 9.638347e-01 -3.201473e+00 1.522117e+00 -1.003498e+01 7.440388e-01 -1.798379e+01 1.971596e+00 -2.562349e+01 8.565199e-01 -3.311540e+01 1.200381e+00 -4.140547e+01 2.467617e+00 -4.843345e+01 7.430996e-01 -5.649467e+01 1.517342e+00 -6.423126e+01 1.972533e+00 -7.144193e+01 2.173605e+00 -7.858217e+01 2.392427e+00 -8.585618e+01 2.628375e+00 -9.326012e+01 2.817989e+00 -1.007654e+02 
1.221182e+00 -1.112580e+02 8.538696e-01 -1.189497e+02 -4.166373e-02 1.172250e+02 1.104446e+00 1.098414e+02 1.758365e+00 1.026347e+02 2.107426e+00 9.556828e+01 2.445711e+00 8.874292e+01 3.583821e+00 8.199994e+01 3.875066e+00 7.234793e+01 3.004170e-01 6.341182e+01 2.234983e-01 5.898406e+01 3.147684e-01 4.944288e+01 1.044957e+00 4.285814e+01 1.811587e+00 3.573529e+01 -3.496992e-01 2.642945e+01 1.032493e+00 2.100655e+01 7.269885e-01 1.136873e+01 -8.747119e-01 3.394321e+00 -3.523424e-02 -2.627149e+00 -1.258923e+00 -1.282392e+01 3.931496e-01 -1.918894e+01 1.220744e+00 -2.672334e+01 -1.324611e+00 -3.583330e+01 5.630692e-01 -4.205614e+01 -2.233063e-02 -5.189136e+01 -1.304585e+00 -5.943494e+01 9.187401e-01 -6.606289e+01 1.056607e+00 -7.310096e+01 1.046434e+00 -8.040299e+01 1.158942e+00 -8.795685e+01 1.286862e+00 -9.565126e+01 1.334357e+00 -1.034358e+02 
3.644864e-01 -1.107057e+02 -4.177472e-01 -1.185962e+02 -1.785195e+00 1.180381e+02 -1.872186e-01 1.103909e+02 8.494913e-01 1.030235e+02 1.553726e+00 9.612136e+01 2.334666e+00 9.022960e+01 3.999082e+00 8.554541e+01 6.393571e+00 7.191404e+01 1.322260e+00 6.200711e+01 3.368262e-01 6.187491e+01 3.064822e+00 4.785430e+01 7.765917e-01 4.500936e+01 2.148927e+00 3.710392e+01 2.370832e+00 2.477161e+01 1.033674e+00 2.494991e+01 3.343438e+00 1.241449e+01 -1.550760e+00 2.113122e+00 -8.813977e-01 1.886558e-01 8.043067e-01 -1.357344e+01 -4.156741e-02 -1.767931e+01 7.900690e-01 -2.490864e+01 4.052949e-01 -3.681371e+01 2.232250e-01 -3.869665e+01 -3.820994e-01 -5.038065e+01 -1.197568e+00 -6.049109e+01 8.042098e-01 -6.529511e+01 9.240874e-01 -7.196902e+01 9.820046e-01 -7.939034e+01 1.061915e+00 -8.705877e+01 1.032266e+00 -9.484788e+01 8.207646e-01 -1.027426e+02 
-1.224380e+00 -1.133499e+02 -2.259354e+00 -1.214860e+02 -3.941151e+00 1.209454e+02 -1.929890e+00 1.130186e+02 -5.042289e-01 1.054475e+02 5.595595e-01 9.842022e+01 1.446060e+00 9.222430e+01 2.281942e+00 8.627689e+01 2.549194e+00 7.414126e+01 5.699767e-01 6.307340e+01 7.481488e-01 6.234140e+01 2.286571e+00 4.794741e+01 1.081765e+00 4.592569e+01 2.039532e+00 3.690773e+01 2.259506e+00 2.435242e+01 1.385308e+00 2.676285e+01 4.312335e+00 9.915585e+00 -1.621896e+00 2.366093e+00 -9.772273e-01 1.527010e+00 1.891663e+00 -1.660160e+01 -1.776575e-01 -1.579648e+01 1.037910e+00 -2.647120e+01 1.025340e+00 -3.859585e+01 1.209873e-01 -3.503561e+01 2.647562e+00 -5.669343e+01 -8.973497e-01 -6.204595e+01 -9.298789e-01 -6.487507e+01 -4.031376e-01 -7.274201e+01 -6.689161e-02 -8.093517e+01 -1.174405e-02 -8.900219e+01 -1.784641e-01 -9.705406e+01 -5.633050e-01 -1.051731e+02 
-2.042614e+00 -1.127217e+02 -3.448602e+00 -1.210349e+02 -5.569478e+00 1.218705e+02 -3.133757e+00 1.137524e+02 -1.307181e+00 1.060178e+02 1.160294e-01 9.865166e+01 1.127815e+00 9.144971e+01 1.475689e+00 8.352471e+01 1.660201e-01 7.360356e+01 -3.298365e-01 6.465511e+01 1.808404e+00 5.992875e+01 7.753113e-02 4.964282e+01 1.999377e+00 4.334053e+01 2.207602e+00 3.643689e+01 4.192390e-01 2.619409e+01 1.726108e+00 2.207233e+01 1.246541e+00 1.185138e+01 -8.375407e-01 2.684389e+00 -2.735452e-01 -1.251071e+00 -3.973279e-01 -1.303319e+01 3.641057e-01 -1.885348e+01 1.147442e+00 -2.576213e+01 1.154231e-01 -3.625893e+01 -3.896823e-02 -3.943747e+01 9.920030e-01 -5.077092e+01 -1.508689e+00 -6.042101e+01 -8.487562e-01 -6.546751e+01 -3.575140e-01 -7.256652e+01 -1.003261e-01 -8.031463e+01 -1.324025e-01 -8.823708e+01 -4.549685e-01 -9.627559e+01 -1.075089e+00 -1.044451e+02 
-3.514636e+00 -1.150907e+02 -5.163881e+00 -1.236242e+02 -7.596894e+00 1.246577e+02 -4.838859e+00 1.162655e+02 -2.756345e+00 1.082264e+02 -1.107398e+00 1.004099e+02 1.223369e-01 9.232744e+01 8.006314e-01 8.416225e+01 2.279528e+00 7.686919e+01 -3.237886e-02 6.782823e+01 1.440830e+00 5.952649e+01 2.002314e+00 5.223585e+01 1.183232e+00 4.435051e+01 2.783397e+00 3.665268e+01 1.057278e+00 2.845938e+01 1.960632e+00 2.097556e+01 2.727857e+00 1.301465e+01 -1.761592e-01 4.327236e+00 6.822305e-01 -3.232533e+00 6.079000e-01 -1.151686e+01 4.615563e-01 -1.903610e+01 1.664450e+00 -2.682430e+01 -5.464974e-01 -3.541502e+01 4.494924e-01 -4.259977e+01 6.150873e-01 -5.224262e+01 -1.536801e+00 -5.982467e+01 -4.077157e-01 -6.671294e+01 -6.309742e-01 -7.418803e+01 -8.314948e-01 -8.201048e+01 -1.096528e+00 -9.007447e+01 -1.576772e+00 -9.828792e+01 -2.356838e+00 -1.066341e+02 
-4.248326e+00 -1.143828e+02 -6.231173e+00 -1.230713e+02 -9.023828e+00 1.253989e+02 -5.993468e+00 1.167354e+02 -3.684888e+00 1.083673e+02 -1.934118e+00 1.001748e+02 -6.992323e-01 9.191598e+01 2.226494e-02 8.366237e+01 8.244171e-01 7.580578e+01 2.531977e-01 6.746075e+01 1.152817e+00 5.919953e+01 1.205540e+00 5.158555e+01 1.501306e+00 4.388469e+01 2.064541e+00 3.625086e+01 1.147070e+00 2.837910e+01 1.715492e+00 2.035858e+01 1.945055e+00 1.298009e+01 6.668687e-01 4.658756e+00 1.033984e+00 -3.578256e+00 8.719618e-01 -1.089142e+01 8.143429e-01 -1.881589e+01 1.457179e+00 -2.637107e+01 4.022887e-01 -3.409000e+01 8.665262e-01 -4.235528e+01 1.420208e+00 -4.957097e+01 -4.337053e-01 -5.810464e+01 -1.704683e-02 -6.603490e+01 -2.087200e-01 -7.367331e+01 -6.129607e-01 -8.140106e+01 -1.100639e+00 -8.935202e+01 -1.794024e+00 -9.751100e+01 -2.810362e+00 -1.058616e+02 
-5.566406e+00 -1.165035e+02 -7.769211e+00 -1.253892e+02 -1.084904e+01 1.278924e+02 -7.547463e+00 1.189588e+02 -4.983811e+00 1.102720e+02 -2.989367e+00 1.017353e+02 -1.496213e+00 9.328403e+01 -3.265124e-01 8.514290e+01 8.991241e-01 7.731669e+01 1.666667e-01 6.897288e+01 8.487509e-01 6.041506e+01 1.449843e+00 5.274097e+01 1.362623e+00 4.478207e+01 1.978627e+00 3.681323e+01 1.329037e+00 2.889101e+01 1.640820e+00 2.079992e+01 1.904091e+00 1.308209e+01 8.833218e-01 4.762076e+00 1.046741e+00 -3.552718e+00 7.661682e-01 -1.114239e+01 6.980104e-01 -1.911208e+01 1.024209e+00 -2.698582e+01 -2.462836e-02 -3.510151e+01 2.223295e-01 -4.331194e+01 8.706149e-02 -5.112326e+01 -7.995362e-01 -5.931912e+01 -4.978386e-01 -6.717747e+01 -7.787004e-01 -7.501473e+01 -1.294913e+00 -8.294818e+01 -1.938817e+00 -9.105499e+01 -2.786947e+00 -9.935002e+01 -3.956655e+00 -1.078342e+02 
-6.187655e+00 -1.157098e+02 -8.712196e+00 -1.247196e+02 -1.219502e+01 1.283716e+02 -8.639002e+00 1.192308e+02 -5.886811e+00 1.103424e+02 -3.753305e+00 1.016501e+02 -2.147514e+00 9.311365e+01 -9.900000e-01 8.477654e+01 -1.138981e-01 7.661011e+01 9.931669e-02 6.839678e+01 6.079109e-01 6.011081e+01 9.905637e-01 5.219747e+01 1.310203e+00 4.438477e+01 1.613635e+00 3.643709e+01 1.342960e+00 2.860402e+01 1.478720e+00 2.066457e+01 1.611063e+00 1.284685e+01 1.152216e+00 4.838830e+00 1.121824e+00 -3.317256e+00 1.027080e+00 -1.094670e+01 9.463982e-01 -1.867058e+01 1.109052e+00 -2.654236e+01 6.170621e-01 -3.428478e+01 5.985404e-01 -4.227437e+01 6.660151e-01 -5.002013e+01 -1.571723e-01 -5.804733e+01 -2.769178e-01 -6.615128e+01 -5.503174e-01 -7.416806e+01 -1.109362e+00 -8.215846e+01 -1.891175e+00 -9.025034e+01 -2.927421e+00 -9.851772e+01 -4.317918e+00 -1.069968e+02 
-7.340281e+00 -1.176116e+02 -1.005783e+01 -1.267867e+02 -1.378668e+01 1.305648e+02 -9.982066e+00 1.212114e+02 -6.997361e+00 1.121053e+02 -4.642385e+00 1.032224e+02 -2.803575e+00 9.456239e+01 -1.371063e+00 8.614540e+01 -2.980321e-01 7.792848e+01 -8.438155e-02 6.959824e+01 4.415789e-01 6.120992e+01 9.624261e-01 5.316017e+01 1.211069e+00 4.509268e+01 1.507822e+00 3.702235e+01 1.347488e+00 2.902222e+01 1.449558e+00 2.095886e+01 1.517773e+00 1.298627e+01 1.147577e+00 4.825063e+00 1.036686e+00 -3.356570e+00 8.271835e-01 -1.120514e+01 7.251355e-01 -1.914822e+01 6.806979e-01 -2.713491e+01 1.483993e-01 -3.515779e+01 9.352627e-03 -4.325210e+01 -2.068375e-01 -5.122036e+01 -6.934316e-01 -5.933552e+01 -8.359554e-01 -6.740714e+01 -1.190980e+00 -7.548032e+01 -1.808652e+00 -8.359420e+01 -2.670994e+00 -9.181256e+01 -3.812492e+00 -1.001925e+02 -5.325053e+00 -1.087778e+02 
-7.836782e+00 -1.167198e+02 -1.085328e+01 -1.259901e+02 -1.497968e+01 1.308266e+02 -1.092805e+01 1.213376e+02 -7.764836e+00 1.121150e+02 -5.276078e+00 1.031315e+02 -3.349825e+00 9.437153e+01 -1.903693e+00 8.581326e+01 -8.545864e-01 7.742936e+01 -2.546219e-01 6.912598e+01 2.685223e-01 6.083627e+01 7.518254e-01 5.273006e+01 1.114047e+00 4.472690e+01 1.362343e+00 3.671934e+01 1.366014e+00 2.880342e+01 1.417419e+00 2.085048e+01 1.482102e+00 1.290238e+01 1.300899e+00 4.911096e+00 1.182171e+00 -3.116061e+00 1.096919e+00 -1.092315e+01 9.937455e-01 -1.871958e+01 9.405648e-01 -2.659030e+01 6.596867e-01 -3.440807e+01 4.681466e-01 -4.233165e+01 3.161689e-01 -5.025033e+01 -1.919028e-01 -5.826183e+01 -5.592014e-01 -6.637615e+01 -9.858632e-01 -7.452286e+01 -1.652480e+00 -8.268091e+01 -2.609200e+00 -9.090591e+01 -3.894503e+00 -9.927463e+01 -5.591877e+00 -1.078556e+02 
-8.821665e+00 -1.184303e+02 -1.199361e+01 -1.278319e+02 -1.632108e+01 1.327377e+02 -1.204749e+01 1.230927e+02 -8.683986e+00 1.137182e+02 -6.009868e+00 1.045930e+02 -3.902637e+00 9.571143e+01 -2.275474e+00 8.705821e+01 -1.098002e+00 7.859182e+01 -4.807651e-01 7.016947e+01 9.103558e-02 6.175286e+01 6.378122e-01 5.352171e+01 9.845544e-01 4.534048e+01 1.250481e+00 3.720511e+01 1.276010e+00 2.915066e+01 1.326325e+00 2.106204e+01 1.370613e+00 1.299580e+01 1.179748e+00 4.870557e+00 1.014158e+00 -3.259891e+00 8.454756e-01 -1.122155e+01 6.883450e-01 -1.920388e+01 5.352133e-01 -2.721212e+01 1.761904e-01 -3.521288e+01 -9.358665e-02 -4.328442e+01 -3.496429e-01 -5.134574e+01 -7.699443e-01 -5.946672e+01 -1.126645e+00 -6.762835e+01 -1.599556e+00 -7.581985e+01 -2.316385e+00 -8.404689e+01 -3.328421e+00 -9.235406e+01 -4.682715e+00 -1.008061e+02 -6.465932e+00 -1.094699e+02 
-9.179722e+00 -1.174352e+02 -1.260864e+01 -1.269057e+02 -1.728274e+01 1.327869e+02 -1.279290e+01 1.230531e+02 -9.276043e+00 1.136056e+02 -6.493407e+00 1.044075e+02 -4.313300e+00 9.545357e+01 -2.628473e+00 8.672216e+01 -1.376216e+00 7.815706e+01 -5.901843e-01 6.978841e+01 -2.519418e-02 6.138027e+01 5.870485e-01 5.312526e+01 9.516983e-01 4.502229e+01 1.230151e+00 3.693111e+01 1.368205e+00 2.900522e+01 1.378702e+00 2.101764e+01 1.485039e+00 1.298488e+01 1.356385e+00 5.009053e+00 1.187942e+00 -3.028590e+00 1.149346e+00 -1.089985e+01 9.799078e-01 -1.873608e+01 8.737470e-01 -2.665713e+01 6.725109e-01 -3.446912e+01 3.670445e-01 -4.241213e+01 1.743684e-01 -5.043925e+01 -2.987112e-01 -5.843341e+01 -8.300506e-01 -6.660527e+01 -1.367240e+00 -7.483432e+01 -2.140436e+00 -8.307025e+01 -3.235647e+00 -9.136512e+01 -4.703678e+00 -9.980050e+01 -6.633908e+00 -1.084564e+02 
-9.989729e+00 -1.189828e+02 -1.352738e+01 -1.285524e+02 -1.835092e+01 1.344103e+02 -1.367790e+01 1.245668e+02 -9.999982e+00 1.150106e+02 -7.070749e+00 1.056987e+02 -4.759309e+00 9.663450e+01 -2.955101e+00 8.782510e+01 -1.602161e+00 7.916864e+01 -8.413055e-01 7.068028e+01 -2.298668e-01 6.210871e+01 4.341393e-01 5.377534e+01 7.836866e-01 4.552727e+01 1.114031e+00 3.730389e+01 1.199607e+00 2.927605e+01 1.216601e+00 2.114956e+01 1.359018e+00 1.303544e+01 1.157577e+00 4.928091e+00 9.491742e-01 -3.259999e+00 8.398274e-01 -1.122058e+01 6.178240e-01 -1.922956e+01 4.900211e-01 -2.730276e+01 1.642723e-01 -3.524716e+01 -1.891152e-01 -4.334800e+01 -3.888388e-01 -5.147490e+01 -8.949491e-01 -5.958407e+01 -1.382532e+00 -6.783558e+01 -1.928768e+00 -7.610117e+01 -2.740890e+00 -8.436998e+01 -3.877695e+00 -9.271275e+01 -5.389180e+00 -1.012081e+02 -7.371850e+00 -1.099290e+02 
-1.018840e+01 -1.178891e+02 -1.392984e+01 -1.275006e+02 -1.904035e+01 1.342098e+02 -1.418986e+01 1.243229e+02 -1.039356e+01 1.147383e+02 -7.381849e+00 1.053842e+02 -5.015916e+00 9.627512e+01 -3.137353e+00 8.747069e+01 -1.653864e+00 7.871308e+01 -8.000617e-01 7.040280e+01 -2.998824e-01 6.171035e+01 5.343775e-01 5.334808e+01 8.119930e-01 4.527093e+01 1.173586e+00 3.700847e+01 1.417756e+00 2.922437e+01 1.307732e+00 2.118654e+01 1.612591e+00 1.304347e+01 1.406892e+00 5.158162e+00 1.095602e+00 -3.061626e+00 1.208858e+00 -1.088197e+01 9.005465e-01 -1.868505e+01 8.647302e-01 -2.678623e+01 7.268552e-01 -3.444920e+01 2.385122e-01 -4.246850e+01 1.996436e-01 -5.065447e+01 -3.821413e-01 -5.849312e+01 -1.093431e+00 -6.683028e+01 -1.658326e+00 -7.512195e+01 -2.529728e+00 -8.334690e+01 -3.740394e+00 -9.164701e+01 -5.335487e+00 -1.001177e+02 -7.425458e+00 -1.088278e+02 
-1.081068e+01 -1.193041e+02 -1.460872e+01 -1.289834e+02 -1.980963e+01 1.355237e+02 -1.482696e+01 1.255713e+02 -1.091986e+01 1.159242e+02 -7.801368e+00 1.064944e+02 -5.340205e+00 9.727732e+01 -3.397664e+00 8.841549e+01 -1.803686e+00 7.961787e+01 -1.078226e+00 7.111081e+01 -5.158253e-01 6.217392e+01 3.521580e-01 5.391463e+01 5.781226e-01 4.563429e+01 1.096852e+00 3.729038e+01 1.145112e+00 2.941929e+01 1.064825e+00 2.117688e+01 1.509149e+00 1.311767e+01 1.131233e+00 5.024218e+00 8.123181e-01 -3.412973e+00 8.165287e-01 -1.116816e+01 4.742371e-01 -1.923569e+01 5.471926e-01 -2.742226e+01 1.478966e-01 -3.521503e+01 -3.369117e-01 -4.346551e+01 -2.713331e-01 -5.158398e+01 -1.040487e+00 -5.966301e+01 -1.603537e+00 -6.808395e+01 -2.158085e+00 -7.634153e+01 -3.066856e+00 -8.455679e+01 -4.299456e+00 -9.289029e+01 -5.908244e+00 -1.014160e+02 -8.016242e+00 -1.101842e+02 
-1.082172e+01 -1.181224e+02 -1.476270e+01 -1.278154e+02 -2.018465e+01 1.350171e+02 -1.507924e+01 1.250651e+02 -1.110618e+01 1.154547e+02 -7.933077e+00 1.060629e+02 -5.434009e+00 9.680842e+01 -3.459891e+00 8.803250e+01 -1.660176e+00 7.916468e+01 -7.553696e-01 7.097532e+01 -5.175939e-01 6.153307e+01 5.481687e-01 5.346346e+01 6.249104e-01 4.541303e+01 1.191693e+00 3.695664e+01 1.540857e+00 2.955059e+01 1.181394e+00 2.115377e+01 1.864870e+00 1.320319e+01 1.553216e+00 5.415142e+00 8.455889e-01 -3.381656e+00 1.210013e+00 -1.074148e+01 7.224889e-01 -1.865899e+01 9.254487e-01 -2.692562e+01 8.483034e-01 -3.422938e+01 7.403218e-02 -4.268703e+01 3.844756e-01 -5.079039e+01 -3.743447e-01 -5.847465e+01 -1.334981e+00 -6.721936e+01 -1.884559e+00 -7.534651e+01 -2.856375e+00 -8.343925e+01 -4.115255e+00 -9.173238e+01 -5.757844e+00 -1.002460e+02 -7.929469e+00 -1.090060e+02 
-1.123941e+01 -1.194338e+02 -1.518086e+01 -1.291650e+02 -2.062064e+01 1.359940e+02 -1.544961e+01 1.260134e+02 -1.143113e+01 1.163828e+02 -8.214425e+00 1.069853e+02 -5.643705e+00 9.772915e+01 -3.600014e+00 8.884812e+01 -1.783696e+00 8.009442e+01 -1.029180e+00 7.103725e+01 -8.708404e-01 6.184319e+01 2.819085e-01 5.387318e+01 3.048225e-01 4.550629e+01 1.069568e+00 3.747665e+01 1.106727e+00 2.930647e+01 7.609791e-01 2.100910e+01 1.775006e+00 1.340787e+01 1.251265e+00 4.959485e+00 4.041492e-01 -3.579233e+00 6.073156e-01 -1.122620e+01 2.246126e-01 -1.942088e+01 5.703159e-01 -2.716466e+01 8.208769e-02 -3.540047e+01 -5.770864e-01 -4.372547e+01 -4.844976e-02 -5.143226e+01 -1.217636e+00 -6.012389e+01 -1.872269e+00 -6.849160e+01 -2.377077e+00 -7.641358e+01 -3.352476e+00 -8.450849e+01 -4.581236e+00 -9.287115e+01 -6.199085e+00 -1.014561e+02 -8.355490e+00 -1.102732e+02 
-1.103350e+01 -1.181709e+02 -1.504530e+01 -1.278918e+02 -2.058183e+01 1.351571e+02 -1.540317e+01 1.251674e+02 -1.140687e+01 1.155471e+02 -8.216154e+00 1.062973e+02 -5.573302e+00 9.745194e+01 -3.467240e+00 8.848645e+01 -2.043754e+00 8.023326e+01 2.481204e-01 6.988132e+01 -6.302217e-01 6.143898e+01 -3.915792e-01 5.319884e+01 8.990014e-01 4.465053e+01 6.343753e-01 3.830564e+01 1.684197e+00 2.866026e+01 1.370137e+00 2.087701e+01 1.195479e+00 1.414836e+01 2.790441e+00 4.533242e+00 -1.425590e-01 -2.686611e+00 3.724691e-01 -1.133364e+01 1.006267e+00 -1.945463e+01 2.888362e-01 -2.536583e+01 1.050415e+00 -3.530889e+01 3.155578e-01 -4.279112e+01 -3.782463e-01 -4.984639e+01 5.909817e-01 -6.019020e+01 -1.927031e+00 -6.768041e+01 -2.444568e+00 -7.503062e+01 -3.176035e+00 -8.322933e+01 -4.297493e+00 -9.165233e+01 -5.908079e+00 -1.002347e+02 -8.097306e+00 -1.090310e+02 
-1.123435e+01 -1.194004e+02 -1.518590e+01 -1.291328e+02 -2.065065e+01 1.357948e+02 -1.549236e+01 1.257956e+02 -1.151728e+01 1.161652e+02 -8.332921e+00 1.069631e+02 -5.633889e+00 9.828128e+01 -3.439543e+00 8.934711e+01 -2.095364e+00 8.121708e+01 9.709931e-01 6.982716e+01 -7.664685e-01 6.227154e+01 -7.517121e-01 5.313325e+01 1.055240e+00 4.492951e+01 2.920002e-01 3.928617e+01 1.903411e+00 2.813396e+01 1.425935e+00 2.128877e+01 7.717345e-01 1.439515e+01 3.180505e+00 4.064861e+00 -6.923208e-01 -2.374777e+00 8.932361e-02 -1.221306e+01 9.876228e-01 -1.983435e+01 -1.706078e-01 -2.522100e+01 1.013896e+00 -3.654139e+01 1.698745e-01 -4.310605e+01 -9.402204e-01 -5.050385e+01 6.860483e-01 -6.190230e+01 -2.350374e+00 -6.851333e+01 -2.894723e+00 -7.582248e+01 -3.542549e+00 -8.420148e+01 -4.614079e+00 -9.273965e+01 -6.192292e+00 -1.013904e+02 -8.345181e+00 -1.102320e+02 