# vtk DataFile Version 2.0
Comment goes here
ASCII

DATASET STRUCTURED_POINTS
FIELD FieldData 1
TIME 1 1 double
0.02400000
DIMENSIONS    64   64   1

ORIGIN    0.000   0.000   0.000
SPACING   0.03125 0.03125   1.000

POINT_DATA   4096
SCALARS P double
LOOKUP_TABLE default

-3.817803e+01 -2.141518e+02 -3.479543e+01 -2.138475e+02 -4.899343e+01 1.203583e+02 -3.452086e+01 1.176382e+02 -3.508359e+01 1.102598e+02 -2.916335e+01 9.744875e+01 -2.200857e+01 8.497164e+01 -1.280769e+01 6.644527e+01 1.613098e+00 4.563343e+01 1.141586e+01 3.358502e+01 6.837568e+00 3.134823e+01 4.800541e-01 2.418528e+01 -2.559510e+00 1.416916e+01 -4.529022e+00 5.851376e+00 -1.168765e+01 8.743326e-01 -1.922932e+01 -3.479059e+00 -3.074467e+01 -5.504311e+00 -3.984204e+01 -1.428899e+01 -4.106894e+01 -2.845629e+01 -3.994113e+01 -4.393313e+01 -3.638680e+01 -6.387186e+01 -2.858662e+01 -8.538853e+01 -2.530198e+01 -9.623097e+01 -3.794934e+01 -9.175605e+01 -5.802349e+01 -9.004429e+01 -7.081599e+01 -9.572289e+01 -7.700420e+01 -1.037247e+02 -8.368068e+01 -1.126853e+02 -8.518415e+01 -1.252976e+02 -8.072911e+01 -1.460898e+02 -7.071648e+01 -1.679060e+02 -5.935793e+01 -1.953444e+02 
-9.624424e+00 -1.389693e+02 -9.459209e+00 -1.395708e+02 -2.110643e+01 1.075609e+02 -1.113960e+01 1.042337e+02 -1.245421e+01 9.845451e+01 -1.009292e+01 8.968643e+01 -7.410374e+00 8.152868e+01 -3.805828e+00 6.990466e+01 2.997446e+00 5.671949e+01 7.659974e+00 4.806860e+01 4.737303e+00 4.452710e+01 1.619400e+00 3.772881e+01 6.126442e-01 2.931564e+01 4.847672e-01 2.169603e+01 -2.471817e+00 1.589770e+01 -5.347464e+00 1.031599e+01 -1.055497e+01 6.336066e+00 -1.469136e+01 -1.069829e+00 -1.488763e+01 -1.091403e+01 -1.439772e+01 -2.090705e+01 -1.290508e+01 -3.337740e+01 -8.734542e+00 -4.715894e+01 -6.331709e+00 -5.578341e+01 -1.189526e+01 -5.637726e+01 -2.116264e+01 -5.887867e+01 -2.622905e+01 -6.536357e+01 -2.790794e+01 -7.256242e+01 -3.082878e+01 -7.947217e+01 -3.149563e+01 -8.775622e+01 -2.954791e+01 -1.000520e+02 -2.508605e+01 -1.121832e+02 -2.054088e+01 -1.277034e+02 
4.246156e+00 -8.805147e+01 3.391411e+00 -8.943097e+01 -9.362100e-01 9.261480e+01 2.012417e+00 9.009470e+01 1.240328e+00 8.618526e+01 1.264974e+00 8.106781e+01 1.166966e+00 7.584855e+01 1.128703e+00 6.963999e+01 1.827040e+00 6.279509e+01 2.303058e+00 5.650019e+01 1.592908e+00 5.085429e+01 1.313145e+00 4.429443e+01 1.522776e+00 3.741432e+01 2.005488e+00 3.055273e+01 1.941858e+00 2.401322e+01 1.959459e+00 1.746760e+01 1.408200e+00 1.136052e+01 9.104367e-01 4.781457e+00 8.692138e-01 -1.930657e+00 6.739795e-01 -8.422378e+00 5.406178e-01 -1.535862e+01 1.062034e+00 -2.274788e+01 1.686251e+00 -2.964323e+01 1.326003e+00 -3.530871e+01 4.978690e-01 -4.147165e+01 5.476199e-01 -4.821567e+01 1.101838e+00 -5.470083e+01 9.920609e-01 -6.060592e+01 1.068314e+00 -6.630105e+01 1.351530e+00 -7.231944e+01 1.933519e+00 -7.767342e+01 2.267971e+00 -8.347055e+01 
3.017202e+00 -9.202679e+01 2.975905e+00 -9.496082e+01 2.672826e+00 9.669763e+01 1.866654e+00 9.337236e+01 1.191398e+00 8.885038e+01 1.061767e+00 8.336657e+01 1.154819e+00 7.742255e+01 1.503018e+00 7.080524e+01 2.227764e+00 6.385494e+01 2.683494e+00 5.729827e+01 2.387084e+00 5.113456e+01 2.080282e+00 4.457792e+01 2.018136e+00 3.775131e+01 2.089938e+00 3.092643e+01 1.889338e+00 2.432181e+01 1.565983e+00 1.783519e+01 9.762728e-01 1.148603e+01 4.853323e-01 4.825783e+00 3.422652e-01 -2.082479e+00 3.309799e-01 -9.094098e+00 5.003754e-01 -1.641230e+01 9.775021e-01 -2.383603e+01 1.299012e+00 -3.070114e+01 8.896759e-01 -3.672242e+01 8.808210e-02 -4.281695e+01 -2.770534e-01 -4.927375e+01 -2.472901e-01 -5.572453e+01 -3.552325e-01 -6.195836e+01 -2.949535e-01 -6.819017e+01 6.573120e-02 -7.462134e+01 7.427714e-01 -8.085896e+01 1.575538e+00 -8.699056e+01 
3.048826e+00 -8.769295e+01 3.023532e+00 -9.068603e+01 2.977545e+00 9.350555e+01 2.271944e+00 9.025021e+01 1.739859e+00 8.605636e+01 1.526579e+00 8.107274e+01 1.424631e+00 7.562536e+01 1.441814e+00 6.963166e+01 1.668480e+00 6.328908e+01 1.807041e+00 5.699515e+01 1.622834e+00 5.078808e+01 1.508966e+00 4.429162e+01 1.568525e+00 3.760855e+01 1.708850e+00 3.089654e+01 1.701328e+00 2.427456e+01 1.619583e+00 1.770488e+01 1.360591e+00 1.123145e+01 1.102477e+00 4.633449e+00 9.748014e-01 -2.043456e+00 8.715062e-01 -8.731810e+00 8.542907e-01 -1.557322e+01 1.036728e+00 -2.251149e+01 1.219182e+00 -2.922074e+01 1.102751e+00 -3.553449e+01 8.471821e-01 -4.189603e+01 8.416628e-01 -4.838042e+01 1.020905e+00 -5.474080e+01 1.099295e+00 -6.084113e+01 1.238754e+00 -6.676028e+01 1.498379e+00 -7.258979e+01 1.890322e+00 -7.809563e+01 2.322986e+00 -8.332320e+01 
2.180944e+00 -9.177310e+01 2.416709e+00 -9.556063e+01 2.451494e+00 9.711639e+01 1.952198e+00 9.334062e+01 1.542026e+00 8.865956e+01 1.376962e+00 8.325006e+01 1.406131e+00 7.733078e+01 1.603335e+00 7.097476e+01 1.920302e+00 6.438418e+01 2.125062e+00 5.783213e+01 2.069261e+00 5.134582e+01 1.940388e+00 4.472753e+01 1.854930e+00 3.798831e+01 1.785271e+00 3.123103e+01 1.618311e+00 2.454129e+01 1.363883e+00 1.790602e+01 1.024937e+00 1.128435e+01 7.322054e-01 4.538044e+00 5.812466e-01 -2.347098e+00 5.415550e-01 -9.337069e+00 6.113059e-01 -1.643420e+01 7.670155e-01 -2.350866e+01 8.283365e-01 -3.031793e+01 6.245886e-01 -3.679042e+01 2.747646e-01 -4.319441e+01 5.093485e-02 -4.966230e+01 -7.791687e-03 -5.611304e+01 -1.154735e-02 -6.247679e+01 1.076181e-01 -6.878942e+01 4.065927e-01 -7.506172e+01 8.867970e-01 -8.113428e+01 1.490139e+00 -8.684757e+01 
2.519902e+00 -8.878878e+01 2.668941e+00 -9.274633e+01 2.751350e+00 9.518066e+01 2.292893e+00 9.124090e+01 1.915079e+00 8.666147e+01 1.690746e+00 8.151418e+01 1.577008e+00 7.592883e+01 1.555008e+00 6.995978e+01 1.610939e+00 6.372747e+01 1.644345e+00 5.739499e+01 1.586081e+00 5.100244e+01 1.534380e+00 4.446980e+01 1.539799e+00 3.782967e+01 1.567540e+00 3.115129e+01 1.544894e+00 2.448819e+01 1.466574e+00 1.784844e+01 1.319371e+00 1.122653e+01 1.166835e+00 4.561187e+00 1.057084e+00 -2.149447e+00 9.825636e-01 -8.895512e+00 9.667943e-01 -1.569306e+01 1.020538e+00 -2.249544e+01 1.069860e+00 -2.918729e+01 1.029118e+00 -3.571925e+01 9.495013e-01 -4.220663e+01 9.554907e-01 -4.867774e+01 1.044962e+00 -5.505189e+01 1.148817e+00 -6.126664e+01 1.298003e+00 -6.731992e+01 1.518105e+00 -7.320453e+01 1.809929e+00 -7.882627e+01 2.145140e+00 -8.409925e+01 
1.748134e+00 -9.270473e+01 2.004990e+00 -9.719424e+01 2.141957e+00 9.852920e+01 1.866899e+00 9.415892e+01 1.625982e+00 8.916248e+01 1.503055e+00 8.362428e+01 1.500668e+00 7.766102e+01 1.594337e+00 7.136670e+01 1.734957e+00 6.486424e+01 1.832986e+00 5.828790e+01 1.825540e+00 5.167677e+01 1.758081e+00 4.499017e+01 1.680164e+00 3.824080e+01 1.585471e+00 3.146992e+01 1.444878e+00 2.471139e+01 1.256099e+00 1.796683e+01 1.034556e+00 1.120749e+01 8.398218e-01 4.385602e+00 7.086746e-01 -2.512945e+00 6.423547e-01 -9.478147e+00 6.386407e-01 -1.647790e+01 6.621784e-01 -2.343781e+01 6.403673e-01 -3.026353e+01 5.186939e-01 -3.692803e+01 3.417648e-01 -4.351497e+01 2.161771e-01 -5.007843e+01 1.763877e-01 -5.660218e+01 2.084248e-01 -6.306000e+01 3.334293e-01 -6.944285e+01 5.716501e-01 -7.571870e+01 9.172013e-01 -8.179024e+01 1.331808e+00 -8.752134e+01 
2.178458e+00 -9.062351e+01 2.338148e+00 -9.535348e+01 2.442036e+00 9.750753e+01 2.168619e+00 9.286673e+01 1.920456e+00 8.782018e+01 1.747011e+00 8.238137e+01 1.645378e+00 7.660481e+01 1.599183e+00 7.054158e+01 1.587087e+00 6.425928e+01 1.582162e+00 5.784877e+01 1.548591e+00 5.135085e+01 1.508951e+00 4.475267e+01 1.494943e+00 3.808820e+01 1.483456e+00 3.139095e+01 1.451459e+00 2.468060e+01 1.388832e+00 1.797526e+01 1.289599e+00 1.126492e+01 1.191549e+00 4.532643e+00 1.105800e+00 -2.223328e+00 1.037596e+00 -9.010059e+00 1.012548e+00 -1.580815e+01 1.015877e+00 -2.258778e+01 1.021381e+00 -2.931203e+01 1.003253e+00 -3.595206e+01 9.738759e-01 -4.253930e+01 9.921006e-01 -4.907771e+01 1.059613e+00 -5.552822e+01 1.157873e+00 -6.185911e+01 1.292940e+00 -6.805445e+01 1.472563e+00 -7.409122e+01 1.693294e+00 -7.991610e+01 1.937762e+00 -8.546053e+01 
1.449633e+00 -9.431378e+01 1.663974e+00 -9.946254e+01 1.810761e+00 1.006469e+02 1.687656e+00 9.562589e+01 1.570299e+00 9.020984e+01 1.506474e+00 8.442084e+01 1.504525e+00 7.831611e+01 1.546319e+00 7.195801e+01 1.601658e+00 6.541096e+01 1.651747e+00 5.877056e+01 1.644592e+00 5.207450e+01 1.590162e+00 4.531153e+01 1.526290e+00 3.851332e+01 1.437706e+00 3.169636e+01 1.326407e+00 2.486994e+01 1.186918e+00 1.804362e+01 1.023574e+00 1.119337e+01 8.864242e-01 4.308317e+00 7.721448e-01 -2.616010e+00 6.836733e-01 -9.585825e+00 6.426946e-01 -1.656011e+01 6.108102e-01 -2.349872e+01 5.630612e-01 -3.036772e+01 4.772304e-01 -3.714540e+01 3.654682e-01 -4.386469e+01 2.997900e-01 -5.054102e+01 2.899306e-01 -5.716445e+01 3.361763e-01 -6.372490e+01 4.485078e-01 -7.020914e+01 6.334481e-01 -7.658486e+01 8.827721e-01 -8.278857e+01 1.169669e+00 -8.873285e+01 
1.893227e+00 -9.285378e+01 2.016394e+00 -9.828177e+01 2.096316e+00 1.002762e+02 1.963067e+00 9.494468e+01 1.828348e+00 8.938987e+01 1.725526e+00 8.359243e+01 1.659477e+00 7.756616e+01 1.614687e+00 7.133505e+01 1.568517e+00 6.491490e+01 1.555087e+00 5.838694e+01 1.521015e+00 5.179314e+01 1.466348e+00 4.510238e+01 1.452003e+00 3.838072e+01 1.425983e+00 3.164168e+01 1.394249e+00 2.487039e+01 1.350296e+00 1.810712e+01 1.266169e+00 1.132495e+01 1.205802e+00 4.528051e+00 1.136897e+00 -2.270882e+00 1.055659e+00 -9.112265e+00 1.032438e+00 -1.594000e+01 1.014681e+00 -2.273770e+01 1.004173e+00 -2.952013e+01 9.943180e-01 -3.624152e+01 9.620848e-01 -4.292719e+01 9.862031e-01 -4.956867e+01 1.046706e+00 -5.612529e+01 1.133147e+00 -6.258720e+01 1.247333e+00 -6.894684e+01 1.389843e+00 -7.518739e+01 1.555031e+00 -8.127837e+01 1.729690e+00 -8.718104e+01 
1.195639e+00 -9.630717e+01 1.348094e+00 -1.020886e+02 1.454674e+00 1.032164e+02 1.451941e+00 9.754493e+01 1.437094e+00 9.165963e+01 1.439549e+00 8.554743e+01 1.464089e+00 7.922705e+01 1.489538e+00 7.272833e+01 1.486818e+00 6.604833e+01 1.529716e+00 5.930594e+01 1.511696e+00 5.252859e+01 1.438083e+00 4.566944e+01 1.398728e+00 3.880579e+01 1.318984e+00 3.192870e+01 1.240255e+00 2.503169e+01 1.142382e+00 1.814347e+01 9.954828e-01 1.121425e+01 9.106758e-01 4.271469e+00 8.084659e-01 -2.680161e+00 6.847339e-01 -9.686363e+00 6.398117e-01 -1.667456e+01 5.817840e-01 -2.363247e+01 5.312633e-01 -3.056117e+01 4.659398e-01 -3.742537e+01 3.551222e-01 -4.426581e+01 3.324479e-01 -5.106047e+01 3.471236e-01 -5.779086e+01 3.971859e-01 -6.446569e+01 4.915090e-01 -7.108170e+01 6.318975e-01 -7.761711e+01 8.099830e-01 -8.403290e+01 1.006933e+00 -9.027944e+01 
1.624522e+00 -9.527613e+01 1.694005e+00 -1.013505e+02 1.722160e+00 1.032988e+02 1.708632e+00 9.730920e+01 1.677236e+00 9.123998e+01 1.653930e+00 8.505432e+01 1.645790e+00 7.874146e+01 1.630704e+00 7.230428e+01 1.542627e+00 6.567496e+01 1.546696e+00 5.899643e+01 1.509871e+00 5.231603e+01 1.399779e+00 4.549155e+01 1.416927e+00 3.869889e+01 1.383152e+00 3.191164e+01 1.353460e+00 2.506112e+01 1.343693e+00 1.825660e+01 1.238423e+00 1.139621e+01 1.224397e+00 4.533071e+00 1.172064e+00 -2.290683e+00 1.033265e+00 -9.220851e+00 1.042179e+00 -1.609233e+01 1.012807e+00 -2.291760e+01 9.928605e-01 -2.978210e+01 1.002717e+00 -3.657131e+01 9.192874e-01 -4.337566e+01 9.490659e-01 -5.014426e+01 1.005101e+00 -5.681174e+01 1.079568e+00 -6.341135e+01 1.174135e+00 -6.995085e+01 1.284869e+00 -7.642210e+01 1.404625e+00 -8.280997e+01 1.522661e+00 -8.909824e+01 
9.555054e-01 -9.849183e+01 1.038529e+00 -1.048719e+02 1.078174e+00 1.060352e+02 1.180915e+00 9.974348e+01 1.258360e+00 9.338057e+01 1.334236e+00 8.691234e+01 1.413400e+00 8.033001e+01 1.459769e+00 7.364840e+01 1.362252e+00 6.675082e+01 1.452650e+00 5.988753e+01 1.429152e+00 5.303188e+01 1.266220e+00 4.604827e+01 1.299624e+00 3.912223e+01 1.214577e+00 3.215992e+01 1.171729e+00 2.519944e+01 1.132147e+00 1.827778e+01 9.335988e-01 1.124451e+01 9.423775e-01 4.256656e+00 8.547503e-01 -2.715936e+00 6.280728e-01 -9.792816e+00 6.404283e-01 -1.680393e+01 5.541372e-01 -2.381869e+01 5.192776e-01 -3.080681e+01 4.886838e-01 -3.773560e+01 2.865454e-01 -4.473917e+01 3.304990e-01 -5.164371e+01 3.619659e-01 -5.846529e+01 4.091194e-01 -6.525741e+01 4.859865e-01 -7.202588e+01 5.903283e-01 -7.875593e+01 7.133577e-01 -8.542505e+01 8.410805e-01 -9.200949e+01 
1.362566e+00 -9.775035e+01 1.370585e+00 -1.044199e+02 1.329909e+00 1.064167e+02 1.423970e+00 9.981628e+01 1.486630e+00 9.325252e+01 1.545307e+00 8.668008e+01 1.619140e+00 8.007105e+01 1.694823e+00 7.341840e+01 1.515251e+00 6.646234e+01 1.531989e+00 5.965654e+01 1.546093e+00 5.291087e+01 1.258228e+00 4.588120e+01 1.383630e+00 3.905535e+01 1.371521e+00 3.216922e+01 1.290662e+00 2.525034e+01 1.376757e+00 1.845826e+01 1.201570e+00 1.143532e+01 1.244254e+00 4.548825e+00 1.254945e+00 -2.271475e+00 9.287546e-01 -9.364916e+00 1.042017e+00 -1.623892e+01 1.024916e+00 -2.314027e+01 9.577940e-01 -3.007558e+01 1.048254e+00 -3.688430e+01 8.523163e-01 -4.393361e+01 8.718457e-01 -5.080404e+01 9.264907e-01 -5.754799e+01 9.991639e-01 -6.428267e+01 1.082460e+00 -7.101111e+01 1.168046e+00 -7.772488e+01 1.249289e+00 -8.441825e+01 1.317829e+00 -9.109070e+01 
7.214494e-01 -1.007292e+02 7.321654e-01 -1.076640e+02 6.903340e-01 1.089377e+02 8.883878e-01 1.020736e+02 1.047922e+00 9.525642e+01 1.197720e+00 8.844055e+01 1.363823e+00 8.158523e+01 1.533932e+00 7.463663e+01 1.186599e+00 6.738875e+01 1.359823e+00 6.054254e+01 1.468308e+00 5.349750e+01 9.358871e-01 4.643132e+01 1.221696e+00 3.952403e+01 1.117230e+00 3.225636e+01 1.049893e+00 2.540196e+01 1.192821e+00 1.847475e+01 7.799758e-01 1.115911e+01 9.913817e-01 4.305726e+00 9.825140e-01 -2.786935e+00 3.994746e-01 -9.934720e+00 6.546242e-01 -1.685732e+01 4.843835e-01 -2.417440e+01 4.840173e-01 -3.104581e+01 5.922737e-01 -3.799787e+01 6.596352e-02 -4.546049e+01 3.112202e-01 -5.228173e+01 3.330365e-01 -5.914409e+01 3.800858e-01 -6.605780e+01 4.478005e-01 -7.299621e+01 5.248905e-01 -7.994037e+01 6.034736e-01 -8.687912e+01 6.734499e-01 -9.380738e+01 
1.108868e+00 -1.001722e+02 1.052527e+00 -1.073818e+02 9.340484e-01 1.094946e+02 1.124015e+00 1.023390e+02 1.266164e+00 9.531759e+01 1.391111e+00 8.839033e+01 1.540271e+00 8.154279e+01 1.801030e+00 7.474051e+01 1.722165e+00 6.684487e+01 1.200209e+00 6.052557e+01 1.762033e+00 5.345528e+01 9.558171e-01 4.612369e+01 1.148279e+00 3.970026e+01 1.596701e+00 3.202633e+01 9.817046e-01 2.550881e+01 1.357544e+00 1.887910e+01 1.346625e+00 1.104069e+01 1.028839e+00 4.766499e+00 1.505632e+00 -2.305723e+00 6.634716e-01 -9.709574e+00 8.342781e-01 -1.610117e+01 1.204299e+00 -2.378715e+01 7.181587e-01 -3.029673e+01 1.042124e+00 -3.693992e+01 9.404900e-01 -4.509407e+01 5.725334e-01 -5.146050e+01 7.809012e-01 -5.825545e+01 9.004678e-01 -6.514618e+01 9.856522e-01 -7.207511e+01 1.050494e+00 -7.903372e+01 1.096666e+00 -8.602636e+01 1.119258e+00 -9.306528e+01 
4.956531e-01 -1.029155e+02 4.351066e-01 -1.103531e+02 3.075609e-01 1.117819e+02 5.895056e-01 1.044007e+02 8.143735e-01 9.717013e+01 1.010609e+00 9.006674e+01 1.219156e+00 8.311011e+01 1.557386e+00 7.624162e+01 1.560292e+00 6.765921e+01 1.064233e+00 6.152238e+01 1.723119e+00 5.418673e+01 8.165910e-01 4.661318e+01 1.018671e+00 4.028816e+01 1.568396e+00 3.211968e+01 7.795851e-01 2.573570e+01 1.207846e+00 1.907114e+01 1.192810e+00 1.078621e+01 7.286674e-01 4.681116e+00 1.377220e+00 -2.679101e+00 2.845777e-01 -1.026028e+01 4.770272e-01 -1.658249e+01 1.014225e+00 -2.474254e+01 2.551427e-01 -3.110777e+01 6.859138e-01 -3.783429e+01 5.896127e-01 -4.645458e+01 -7.179880e-02 -5.273230e+01 1.913078e-01 -5.972831e+01 3.192184e-01 -6.682282e+01 3.963556e-01 -7.395312e+01 4.515338e-01 -8.111830e+01 4.907467e-01 -8.832476e+01 5.091032e-01 -9.558384e+01 
8.692852e-01 -1.024610e+02 7.503008e-01 -1.101519e+02 5.563877e-01 1.124147e+02 8.286827e-01 1.047604e+02 1.036718e+00 9.731403e+01 1.205387e+00 9.003276e+01 1.357847e+00 8.288633e+01 1.515144e+00 7.579503e+01 1.330747e+00 6.780577e+01 1.410322e+00 6.111434e+01 1.574038e+00 5.398339e+01 1.040749e+00 4.663966e+01 1.249234e+00 3.993342e+01 1.341839e+00 3.240016e+01 1.129283e+00 2.565511e+01 1.361329e+00 1.885891e+01 1.168557e+00 1.125872e+01 1.161867e+00 4.661923e+00 1.390929e+00 -2.419605e+00 7.120318e-01 -9.690080e+00 9.262152e-01 -1.638148e+01 1.065285e+00 -2.387080e+01 7.996567e-01 -3.061622e+01 1.055514e+00 -3.750024e+01 7.859855e-01 -4.526097e+01 6.048119e-01 -5.196968e+01 7.523049e-01 -5.893010e+01 8.475258e-01 -6.598622e+01 9.096071e-01 -7.310893e+01 9.453121e-01 -8.029993e+01 9.547896e-01 -8.757267e+01 9.327226e-01 -9.494916e+01 
2.840265e-01 -1.049703e+02 1.577337e-01 -1.128537e+02 -4.564648e-02 1.144468e+02 3.067577e-01 1.065958e+02 5.908898e-01 9.895344e+01 8.322335e-01 9.146886e+01 1.054314e+00 8.408865e+01 1.252888e+00 7.673896e+01 1.051328e+00 6.908261e+01 1.278159e+00 6.186256e+01 1.332600e+00 5.465666e+01 9.560513e-01 4.728395e+01 1.187841e+00 4.017559e+01 1.103110e+00 3.288160e+01 1.054055e+00 2.578714e+01 1.177747e+00 1.875138e+01 8.645792e-01 1.139683e+01 1.012381e+00 4.353588e+00 1.011284e+00 -2.759563e+00 5.231355e-01 -1.005656e+01 7.244514e-01 -1.712890e+01 6.159295e-01 -2.440458e+01 5.474962e-01 -3.150809e+01 6.549694e-01 -3.862073e+01 2.340372e-01 -4.610445e+01 3.117892e-01 -5.323216e+01 3.189176e-01 -6.037156e+01 3.446500e-01 -6.758991e+01 3.718510e-01 -7.488219e+01 3.877874e-01 -8.225001e+01 3.849080e-01 -8.970529e+01 3.543680e-01 -9.726859e+01 
6.500044e-01 -1.045529e+02 4.733671e-01 -1.126640e+02 2.128686e-01 1.150804e+02 5.539557e-01 1.069817e+02 8.199743e-01 9.913586e+01 1.032334e+00 9.148478e+01 1.206407e+00 8.397005e+01 1.334442e+00 7.653544e+01 1.257812e+00 6.905242e+01 1.364392e+00 6.171968e+01 1.404450e+00 5.453123e+01 1.205374e+00 4.723692e+01 1.306207e+00 4.009376e+01 1.287396e+00 3.296527e+01 1.258633e+00 2.584094e+01 1.318438e+00 1.882179e+01 1.172453e+00 1.166199e+01 1.233306e+00 4.593015e+00 1.223137e+00 -2.414765e+00 9.731011e-01 -9.608606e+00 1.047366e+00 -1.666579e+01 1.004593e+00 -2.375657e+01 9.679124e-01 -3.088607e+01 1.000909e+00 -3.794675e+01 7.943274e-01 -4.522810e+01 8.193998e-01 -5.241250e+01 8.324335e-01 -5.956230e+01 8.498679e-01 -6.677700e+01 8.626832e-01 -7.407786e+01 8.587998e-01 -8.148031e+01 8.289023e-01 -8.900579e+01 7.633159e-01 -9.668371e+01 
9.174752e-02 -1.068303e+02 -9.342901e-02 -1.150992e+02 -3.635456e-01 1.168479e+02 4.649394e-02 1.085852e+02 3.773092e-01 1.005734e+02 6.475498e-01 9.275498e+01 8.664960e-01 8.507637e+01 1.015267e+00 7.749377e+01 1.005502e+00 6.993139e+01 1.124000e+00 6.245889e+01 1.159070e+00 5.511060e+01 1.044545e+00 4.772365e+01 1.108826e+00 4.043608e+01 1.074653e+00 3.320121e+01 1.057947e+00 2.595925e+01 1.066266e+00 1.878606e+01 9.326519e-01 1.155366e+01 9.555595e-01 4.353883e+00 8.968884e-01 -2.802327e+00 7.063262e-01 -1.006916e+01 7.156319e-01 -1.727208e+01 6.343526e-01 -2.447390e+01 5.928787e-01 -3.172318e+01 5.627422e-01 -3.894529e+01 3.737235e-01 -4.628790e+01 3.882010e-01 -5.360943e+01 3.792042e-01 -6.092048e+01 3.674946e-01 -6.828678e+01 3.550931e-01 -7.573734e+01 3.325811e-01 -8.329133e+01 2.892917e-01 -9.097068e+01 2.136188e-01 -9.880425e+01 
4.555255e-01 -1.063969e+02 2.275161e-01 -1.148652e+02 -9.142730e-02 1.174270e+02 3.066459e-01 1.089486e+02 6.199629e-01 1.007597e+02 8.657122e-01 9.280208e+01 1.053111e+00 8.502353e+01 1.174730e+00 7.738264e+01 1.198982e+00 6.982633e+01 1.273359e+00 6.235349e+01 1.302733e+00 5.500302e+01 1.246083e+00 4.766520e+01 1.278323e+00 4.041131e+01 1.269378e+00 3.322542e+01 1.262156e+00 2.603788e+01 1.267994e+00 1.890866e+01 1.201913e+00 1.176380e+01 1.206895e+00 4.630617e+00 1.170863e+00 -2.466398e+00 1.064048e+00 -9.635307e+00 1.056889e+00 -1.677113e+01 1.013790e+00 -2.389954e+01 9.849267e-01 -3.108330e+01 9.602057e-01 -3.825940e+01 8.584756e-01 -4.551962e+01 8.574840e-01 -5.280963e+01 8.545178e-01 -6.011313e+01 8.435231e-01 -6.747992e+01 8.230513e-01 -7.494462e+01 7.849764e-01 -8.253532e+01 7.190851e-01 -9.028207e+01 6.138175e-01 -9.822101e+01 
-7.720809e-02 -1.084452e+02 -3.136971e-01 -1.170375e+02 -6.423020e-01 1.189284e+02 -1.848971e-01 1.103213e+02 1.831470e-01 1.020017e+02 4.767466e-01 9.391388e+01 7.026648e-01 8.600910e+01 8.553142e-01 7.824672e+01 9.275225e-01 7.057928e+01 1.014700e+00 6.299978e+01 1.055793e+00 5.552213e+01 1.035227e+00 4.808178e+01 1.055246e+00 4.071568e+01 1.043918e+00 3.341049e+01 1.029905e+00 2.611993e+01 1.011502e+00 1.887078e+01 9.458031e-01 1.162047e+01 9.196203e-01 4.380084e+00 8.608149e-01 -2.842603e+00 7.604867e-01 -1.010735e+01 7.163819e-01 -1.735758e+01 6.524030e-01 -2.460782e+01 6.003300e-01 -3.189754e+01 5.442276e-01 -3.919887e+01 4.462055e-01 -4.656284e+01 4.208643e-01 -5.396396e+01 3.997032e-01 -6.139660e+01 3.713609e-01 -6.889357e+01 3.341567e-01 -7.648687e+01 2.817230e-01 -8.420526e+01 2.042341e-01 -9.207908e+01 8.949302e-02 -1.001442e+02 
2.892901e-01 -1.079520e+02 1.715260e-02 -1.167140e+02 -3.522378e-01 1.194085e+02 9.288416e-02 1.106197e+02 4.449657e-01 1.021523e+02 7.194169e-01 9.395041e+01 9.250686e-01 8.596509e+01 1.063048e+00 7.815362e+01 1.137520e+00 7.046988e+01 1.207755e+00 6.289299e+01 1.244550e+00 5.542616e+01 1.239910e+00 4.802109e+01 1.256511e+00 4.069519e+01 1.256745e+00 3.343615e+01 1.252674e+00 2.620312e+01 1.245892e+00 1.901154e+01 1.210873e+00 1.183235e+01 1.194418e+00 4.663105e+00 1.158360e+00 -2.492087e+00 1.095870e+00 -9.675591e+00 1.065798e+00 -1.685382e+01 1.027148e+00 -2.403633e+01 9.919832e-01 -3.125949e+01 9.544644e-01 -3.850668e+01 8.927122e-01 -4.581317e+01 8.704721e-01 -5.317543e+01 8.531648e-01 -6.058810e+01 8.259889e-01 -6.807934e+01 7.839546e-01 -7.568314e+01 7.201536e-01 -8.343337e+01 6.248641e-01 -9.136604e+01 4.860591e-01 -9.952250e+01 
-2.192674e-01 -1.097755e+02 -4.985817e-01 -1.186280e+02 -8.765643e-01 1.206448e+02 -3.802827e-01 1.117628e+02 1.876589e-02 1.031989e+02 3.347984e-01 9.489877e+01 5.759205e-01 8.681459e+01 7.448391e-01 7.890326e+01 8.509869e-01 7.111992e+01 9.397269e-01 6.344670e+01 9.900209e-01 5.587744e+01 1.001015e+00 4.837458e+01 1.016986e+00 4.094803e+01 1.014737e+00 3.358403e+01 1.003905e+00 2.625117e+01 9.836324e-01 1.895482e+01 9.391297e-01 1.167224e+01 9.034900e-01 4.400200e+00 8.496859e-01 -2.863030e+00 7.754164e-01 -1.014733e+01 7.222845e-01 -1.743107e+01 6.639310e-01 -2.472278e+01 6.081248e-01 -3.204948e+01 5.498849e-01 -3.940472e+01 4.774796e-01 -4.681425e+01 4.372307e-01 -5.427891e+01 4.042881e-01 -6.179892e+01 3.636533e-01 -6.939833e+01 3.094536e-01 -7.710881e+01 2.350237e-01 -8.496332e+01 1.307921e-01 -9.299736e+01 -1.558805e-02 -1.012518e+02 
1.545148e-01 -1.091867e+02 -1.535631e-01 -1.181781e+02 -5.645449e-01 1.209874e+02 -8.144423e-02 1.119582e+02 3.025870e-01 1.032763e+02 6.033426e-01 9.488671e+01 8.309366e-01 8.674055e+01 9.892370e-01 7.879326e+01 1.084449e+00 7.099526e+01 1.165077e+00 6.332396e+01 1.210615e+00 5.577626e+01 1.218954e+00 4.830291e+01 1.240226e+00 4.091925e+01 1.244800e+00 3.361020e+01 1.243066e+00 2.633311e+01 1.238860e+00 1.910148e+01 1.210466e+00 1.188875e+01 1.193319e+00 4.687095e+00 1.160345e+00 -2.500728e+00 1.104756e+00 -9.714143e+00 1.074808e+00 -1.692555e+01 1.037318e+00 -2.414357e+01 9.995075e-01 -3.140773e+01 9.621628e-01 -3.870349e+01 9.038774e-01 -4.606008e+01 8.713656e-01 -5.348632e+01 8.428357e-01 -6.097760e+01 8.035272e-01 -6.856166e+01 7.466983e-01 -7.627372e+01 6.646178e-01 -8.415015e+01 5.472206e-01 -9.223008e+01 3.821476e-01 -1.005581e+02 
-3.308867e-01 -1.107915e+02 -6.436871e-01 -1.198402e+02 -1.060802e+00 1.219609e+02 -5.337016e-01 1.128737e+02 -1.089608e-01 1.041283e+02 2.287480e-01 9.567012e+01 4.890109e-01 8.745059e+01 6.745952e-01 7.942555e+01 7.894363e-01 7.154277e+01 8.920881e-01 6.378814e+01 9.495686e-01 5.615739e+01 9.621820e-01 4.859470e+01 9.882294e-01 4.112153e+01 9.893871e-01 3.372025e+01 9.831337e-01 2.634944e+01 9.705732e-01 1.902408e+01 9.270878e-01 1.171293e+01 8.990894e-01 4.414150e+00 8.501176e-01 -2.869734e+00 7.735586e-01 -1.018297e+01 7.277955e-01 -1.749282e+01 6.709857e-01 -2.480975e+01 6.160132e-01 -3.217217e+01 5.624303e-01 -3.956396e+01 4.844070e-01 -4.701767e+01 4.402903e-01 -5.453626e+01 4.001818e-01 -6.211639e+01 3.502313e-01 -6.978802e+01 2.843160e-01 -7.758553e+01 1.947151e-01 -8.554369e+01 7.122788e-02 -9.370027e+01 -9.882154e-02 -1.020989e+02 
5.444077e-02 -1.100774e+02 -2.806494e-01 -1.192334e+02 -7.235625e-01 1.221322e+02 -2.118303e-01 1.129327e+02 1.970708e-01 1.041002e+02 5.211406e-01 9.557923e+01 7.730668e-01 8.731910e+01 9.546241e-01 7.927526e+01 1.046962e+00 7.138354e+01 1.143801e+00 6.363173e+01 1.197321e+00 5.604076e+01 1.188171e+00 4.849938e+01 1.229360e+00 4.107423e+01 1.234899e+00 3.374275e+01 1.232257e+00 2.642311e+01 1.243895e+00 1.917234e+01 1.205415e+00 1.193153e+01 1.200173e+00 4.702122e+00 1.173585e+00 -2.492841e+00 1.095856e+00 -9.749296e+00 1.083433e+00 -1.698460e+01 1.045641e+00 -2.421511e+01 1.004958e+00 -3.152119e+01 9.801655e-01 -3.884506e+01 9.000758e-01 -4.624811e+01 8.619785e-01 -5.372979e+01 8.260121e-01 -6.126890e+01 7.789441e-01 -6.891269e+01 7.136905e-01 -7.670002e+01 6.204861e-01 -8.466711e+01 4.883594e-01 -9.285361e+01 3.046997e-01 -1.013056e+02 
-4.086136e-01 -1.114719e+02 -7.449731e-01 -1.206520e+02 -1.190307e+00 1.228470e+02 -6.411809e-01 1.136247e+02 -1.972127e-01 1.047616e+02 1.598428e-01 9.620188e+01 4.426900e-01 8.789409e+01 6.499367e-01 7.979408e+01 7.450052e-01 7.182526e+01 8.716294e-01 6.400830e+01 9.360127e-01 5.635381e+01 9.138409e-01 4.873111e+01 9.701181e-01 4.123045e+01 9.689071e-01 3.381265e+01 9.637178e-01 2.640980e+01 9.738517e-01 1.907830e+01 9.091935e-01 1.173712e+01 9.058038e-01 4.420395e+00 8.653458e-01 -2.859981e+00 7.504246e-01 -1.021547e+01 7.340389e-01 -1.753922e+01 6.746083e-01 -2.486567e+01 6.203528e-01 -3.226013e+01 5.856843e-01 -3.966703e+01 4.702678e-01 -4.717068e+01 4.316920e-01 -5.472909e+01 3.877556e-01 -6.233661e+01 3.328066e-01 -7.004881e+01 2.614562e-01 -7.790227e+01 1.637319e-01 -8.593008e+01 2.848123e-02 -9.416970e+01 -1.571284e-01 -1.026658e+02 
-7.770500e-03 -1.106082e+02 -3.603656e-01 -1.198632e+02 -8.248987e-01 1.228171e+02 -2.951963e-01 1.135177e+02 1.292206e-01 1.046000e+02 4.701576e-01 9.600864e+01 7.473463e-01 8.768973e+01 9.705416e-01 7.959431e+01 1.041557e+00 7.159663e+01 1.132980e+00 6.380170e+01 1.213305e+00 5.622188e+01 1.135227e+00 4.858974e+01 1.220184e+00 4.116191e+01 1.239316e+00 3.382098e+01 1.204583e+00 2.646689e+01 1.263360e+00 1.923721e+01 1.204645e+00 1.194169e+01 1.205414e+00 4.709219e+00 1.210665e+00 -2.455630e+00 1.056137e+00 -9.794275e+00 1.087444e+00 -1.702088e+01 1.063231e+00 -2.425462e+01 9.944536e-01 -3.159439e+01 1.015963e+00 -3.890734e+01 8.990755e-01 -4.639594e+01 8.333799e-01 -5.390399e+01 7.953645e-01 -6.144643e+01 7.516409e-01 -6.911765e+01 6.875799e-01 -7.694893e+01 5.909634e-01 -8.497117e+01 4.512831e-01 -9.322266e+01 2.566288e-01 -1.017499e+02 
-4.493022e-01 -1.118033e+02 -7.988056e-01 -1.210493e+02 -1.260800e+00 1.232792e+02 -7.001755e-01 1.139923e+02 -2.464210e-01 1.050773e+02 1.230962e-01 9.647974e+01 4.301903e-01 8.814455e+01 6.861670e-01 8.001420e+01 7.275229e-01 7.189577e+01 8.590306e-01 6.410709e+01 9.675574e-01 5.645956e+01 8.255740e-01 4.875837e+01 9.562837e-01 4.129710e+01 9.637502e-01 3.381915e+01 9.169088e-01 2.643441e+01 9.996251e-01 1.914076e+01 8.863728e-01 1.169675e+01 9.105614e-01 4.433494e+00 9.184404e-01 -2.834207e+00 6.737646e-01 -1.026520e+01 7.350611e-01 -1.754121e+01 6.819369e-01 -2.492578e+01 5.969243e-01 -3.229886e+01 6.334355e-01 -3.968055e+01 4.415055e-01 -4.733325e+01 3.979651e-01 -5.485269e+01 3.570789e-01 -6.244106e+01 3.104620e-01 -7.016631e+01 2.440526e-01 -7.804796e+01 1.458553e-01 -8.611199e+01 5.938568e-03 -9.439433e+01 -1.874331e-01 -1.029400e+02 
-2.938422e-02 -1.107700e+02 -3.892572e-01 -1.200580e+02 -8.634938e-01 1.230226e+02 -3.285619e-01 1.136924e+02 9.903578e-02 1.047533e+02 4.429710e-01 9.615749e+01 7.291098e-01 8.786858e+01 1.002749e+00 7.984414e+01 1.230020e+00 7.140038e+01 9.833632e-01 6.391747e+01 1.288222e+00 5.631254e+01 1.077427e+00 4.847773e+01 1.101707e+00 4.131412e+01 1.370743e+00 3.368301e+01 1.068636e+00 2.649069e+01 1.236387e+00 1.940216e+01 1.347261e+00 1.173096e+01 1.079713e+00 4.799955e+00 1.315691e+00 -2.393184e+00 9.943199e-01 -9.942276e+00 9.752937e-01 -1.690069e+01 1.197422e+00 -2.441910e+01 8.814705e-01 -3.158300e+01 1.007424e+00 -3.875984e+01 1.071847e+00 -4.672229e+01 6.653902e-01 -5.396372e+01 7.297581e-01 -6.148011e+01 7.264792e-01 -6.916407e+01 6.753986e-01 -7.701327e+01 5.811659e-01 -8.505563e+01 4.395187e-01 -9.332976e+01 2.407020e-01 -1.018826e+02 
-4.505601e-01 -1.117795e+02 -8.020644e-01 -1.210255e+02 -1.267194e+00 1.232413e+02 -7.079546e-01 1.139578e+02 -2.567432e-01 1.050524e+02 1.102403e-01 9.648127e+01 4.211869e-01 8.821816e+01 7.380851e-01 8.022508e+01 1.042262e+00 7.158012e+01 6.600422e-01 6.421145e+01 1.075473e+00 5.653243e+01 8.096403e-01 4.857834e+01 8.159889e-01 4.146927e+01 1.191123e+00 3.363305e+01 7.653305e-01 2.646382e+01 9.686051e-01 1.935588e+01 1.129698e+00 1.145075e+01 7.396118e-01 4.579013e+00 1.059090e+00 -2.728087e+00 6.507470e-01 -1.042832e+01 6.017406e-01 -1.735347e+01 9.091352e-01 -2.508784e+01 4.735480e-01 -3.222885e+01 6.253489e-01 -3.942233e+01 7.437224e-01 -4.764708e+01 1.964815e-01 -5.482864e+01 2.901581e-01 -6.239719e+01 2.928030e-01 -7.013211e+01 2.412373e-01 -7.801934e+01 1.467813e-01 -8.608596e+01 7.115330e-03 -9.436963e+01 -1.872059e-01 -1.029160e+02 